14
gdb 131621	2.24664	1.68198	0.98531	2.6673	72.38	-0.2487	-0.0327	0.2161	1116.1248	0.099854	-436.641602	-436.633383	-436.632439	-436.675091	29.801	
O	 0.2181051978	 1.1429043066	-0.6112698089	-0.403113
C	-0.0547433853	 0.0814309176	 0.2743407907	-0.195439
C	-1.4272989295	-0.496647033	 0.0884970211	 0.337628
C	-2.1843446441	-0.7184423927	-1.0343650665	-0.02766
C	-3.3705768944	-1.3171843852	-0.5062609903	-0.053862
N	-3.3282936242	-1.4440890351	 0.7920194379	-0.129265
O	-2.0878005824	-0.9168988012	 1.1708077921	-0.204849
C	-1.8494777685	-0.4344043034	-2.3763444812	 0.195926
C	-1.5599332761	-0.2029207845	-3.5231014615	-0.434973
H	 0.1207574387	 0.8192733298	-1.5149208593	 0.295931
H	 0.6874978078	-0.7295736369	 0.1882056696	 0.123599
H	 0.0230732997	 0.4787504871	 1.2906304893	 0.148318
H	-4.2433632816	-1.6525239165	-1.0477327642	 0.146498
H	-1.3172678278	 0.0037867275	-4.5363777888	 0.20126
45.9412	124.065	171.0758	198.475	270.2712	380.4621	401.3939	478.6083	512.3928	561.1865	603.0387	637.1448	676.5069	686.0583	748.4565	899.9789	913.5375	955.4136	988.4976	1086.0276	1154.3142	1193.8516	1206.364	1279.8102	1364.8978	1397.8589	1435.1991	1488.1971	1510.9607	1631.9275	2230.9916	2968.8285	3091.1292	3253.5597	3499.0287	3785.2447
OCC1=C(C=NO1)C#C	OCc1c(cno1)C#C	
InChI=1S/C6H5NO2/c1-2-5-3-7-9-6(5)4-8/h1,3,8H,4H2	InChI=1S/C6H5NO2/c1-2-5-3-7-9-6(5)4-8/h1,3,8H,4H2
