19
gdb 72454	2.34038	2.15487	1.51222	0.8571	73.08	-0.2427	0.0659	0.3087	929.125	0.161763	-423.010874	-423.003941	-423.002997	-423.041589	29.694	
O	-0.0798128883	 1.3677565814	 0.0204752818	-0.501366
C	 0.0190651399	-0.029500406	 0.0509826785	 0.372095
C	 0.7880251412	-0.6806354574	-1.1338059084	-0.112629
O	 1.0749526744	-2.01249063	-0.6831324175	-0.278944
C	 0.4955280907	-2.1141796507	 0.6433110565	 0.087348
C	 0.7721838598	-0.7200726438	 1.2155571827	-0.31944
C	-1.0195281366	-2.1509836511	 0.4493434262	-0.029072
C	-1.9133725705	-1.2983554391	 1.3155402955	-0.335381
C	-1.3451803038	-0.7166429653	 0.0497746795	-0.039877
H	 0.8103135272	 1.7334573441	-0.0314590752	 0.2774
H	 0.1934721953	-0.7039488445	-2.0546803768	 0.100208
H	 1.7288608735	-0.1473541531	-1.3390412264	 0.079894
H	 0.951312384	-2.9741122749	 1.1340762057	 0.076048
H	 1.8416893704	-0.4941954563	 1.2173708256	 0.096593
H	 0.3591419884	-0.5151446909	 2.2020810937	 0.109724
H	-1.4359436745	-2.998662563	-0.0816888309	 0.094056
H	-2.9688494253	-1.5459280472	 1.2726532078	 0.115007
H	-1.5947191918	-0.9551173981	 2.2925791304	 0.115987
H	-2.0080357839	-0.4896396742	-0.7776377687	 0.092349
226.575	269.9844	306.9564	331.1016	387.244	409.0526	501.8232	534.2186	568.5988	616.4661	738.1463	766.8596	819.0093	850.8177	890.4129	919.4861	928.2875	933.0008	981.3681	992.2405	1022.0316	1027.1295	1068.0437	1077.9787	1092.1759	1113.0467	1140.3968	1167.591	1188.6116	1197.5563	1208.516	1260.2348	1292.7298	1298.1607	1331.2416	1356.6819	1381.1829	1409.6135	1481.1951	1514.3538	1525.5728	2983.4996	3049.9655	3076.7088	3117.517	3135.0299	3145.82	3172.6872	3184.554	3215.655	3798.546
OC12COC(C1)C1CC21	O[C@@]12CO[C@@H](C1)[C@H]1C[C@@H]21	
InChI=1S/C7H10O2/c8-7-2-6(9-3-7)4-1-5(4)7/h4-6,8H,1-3H2	InChI=1S/C7H10O2/c8-7-2-6(9-3-7)4-1-5(4)7/h4-6,8H,1-3H2/t4-,5+,6-,7+/m0/s1
