13
gdb 16265	3.33752	2.0441	1.44521	2.0993	67.11	-0.2481	-0.0306	0.2175	838.6343	0.094109	-361.39513	-361.388182	-361.387238	-361.426219	26.207	
O	-0.0306768373	 0.0133580977	 0.044788655	-0.284138
C	-0.011161283	 1.2042491248	 0.1090773806	 0.35728
C	-1.0733638985	 2.315853609	 0.0098508114	-0.289539
N	 0.0079777495	 3.3436815758	-0.1915079559	-0.141403
C	 0.7799454948	 3.3132287081	 1.0359936836	-0.255285
C	 1.0888667876	 2.2425997673	 0.0239899995	 0.041758
C	 2.3219703879	 2.1357378236	-0.6700372165	 0.200795
C	 3.3657543737	 2.0026606033	-1.2521733826	-0.395763
H	-1.6768762641	 2.1999234251	-0.8939214715	 0.152328
H	-1.7224381232	 2.5058201957	 0.8692795443	 0.134562
H	 1.5240949087	 4.0996033303	 1.1138650021	 0.150296
H	 0.2949526323	 3.0400150316	 1.9717910009	 0.127562
H	 4.2839421216	 1.8877359276	-1.7735572509	 0.201547
121.5577	146.4776	203.9432	375.3069	431.7577	486.7737	501.0803	578.2312	606.0922	651.4582	668.7653	683.3217	747.1188	857.0672	869.3091	993.1915	1012.2399	1037.9771	1100.902	1135.898	1192.9272	1220.8022	1256.4641	1334.7978	1461.9729	1503.2549	1901.2139	2237.848	3062.4648	3099.5492	3124.5451	3203.9513	3500.7785
O=C1CN2CC12C#C	O=C1CN2C[C@@]12C#C	
InChI=1S/C6H5NO/c1-2-6-4-7(6)3-5(6)8/h1H,3-4H2	InChI=1S/C6H5NO/c1-2-6-4-7(6)3-5(6)8/h1H,3-4H2/t6-,7?/m0/s1
