15
gdb 5392	5.28817	1.5634	1.21877	4.1711	71.61	-0.2162	-0.0299	0.1862	954.1461	0.12167	-358.888042	-358.880992	-358.880047	-358.919348	25.924	
C	 0.0362645887	 1.4556885905	-0.0611046142	-0.328016
N	-0.0199720654	 0.0221315769	 0.1452041245	-0.378102
C	-1.2044913628	-0.6786530807	 0.0658068284	 0.280631
C	-2.4720626591	-0.0772287264	 0.0774362745	-0.051529
N	-3.6014063016	-0.7854318592	 0.0442818468	-0.242916
C	-3.4816943986	-2.1090484974	-0.0097985391	 0.05138
N	-2.3350666943	-2.796125418	-0.0394947449	-0.240651
C	-1.2183111242	-2.0829785183	-0.0020212209	-0.046693
H	 1.0787480986	 1.7764193301	-0.0156080254	 0.132326
H	-0.3841039549	 1.771810264	-1.0280199551	 0.124457
H	-0.5062265684	 1.9818596729	 0.7320300757	 0.141496
H	 0.7963489027	-0.4901927877	-0.1491211745	 0.243426
H	-2.5787215485	 1.0032504694	 0.115801548	 0.104599
H	-4.4004838798	-2.6876915117	-0.0365906629	 0.111223
H	-0.2774711724	-2.6341459544	-0.0257882608	 0.098369
101.7612	173.2082	224.7395	239.6783	375.7735	435.8182	467.5174	525.1754	617.8587	634.7922	753.6491	835.005	906.0851	955.372	972.0465	1037.4942	1077.2736	1150.0665	1157.0517	1167.8415	1230.9969	1254.616	1335.7785	1376.8758	1438.8333	1460.0204	1482.6354	1487.0459	1515.9561	1535.2953	1593.8096	1625.5129	2988.2472	3063.9943	3117.492	3127.7545	3166.3476	3176.4726	3621.1541
CNC1=CN=CN=C1	CNc1cncnc1	
InChI=1S/C5H7N3/c1-6-5-2-7-4-8-3-5/h2-4,6H,1H3	InChI=1S/C5H7N3/c1-6-5-2-7-4-8-3-5/h2-4,6H,1H3
