17
gdb 115231	4.43368	0.99114	0.85304	5.612	65.76	-0.2785	0.0389	0.3174	1318.1912	0.135709	-496.125073	-496.116308	-496.115364	-496.159728	30.434	
C	-0.113039789	 1.4554469535	 0.0330044525	-0.245785
O	-0.0459366503	 0.0453956822	 0.140442806	-0.243284
C	-1.2839986214	-0.613753429	 0.020717961	 0.063591
C	-1.6819490577	-0.8518037391	-1.4324486581	-0.091648
O	-2.8694693334	-1.6476797844	-1.4981365566	-0.252641
C	-3.0801924726	-2.6798334576	-0.6475836097	 0.480847
O	-4.0028604516	-3.4196269054	-0.8046488937	-0.357441
O	-2.2433813247	-2.8335221472	 0.4026431146	-0.260849
C	-1.1176965663	-1.9842014377	 0.6558174327	-0.082205
H	 0.8982012368	 1.8323234671	 0.1987098219	 0.140827
H	-0.4518100131	 1.7849471677	-0.9588321972	 0.117021
H	-0.78334162	 1.8838474845	 0.79203675	 0.118913
H	-2.0839928745	-0.0561011546	 0.5320697752	 0.092701
H	-1.9202752947	 0.0717787134	-1.9637301338	 0.127842
H	-0.8606816008	-1.3548131887	-1.9585322	 0.126525
H	-0.2119901879	-2.4555880804	 0.2562529857	 0.131171
H	-1.0231507488	-1.9175829943	 1.7415647396	 0.134417
61.8623	73.5531	87.5084	169.557	188.6926	281.1025	359.9848	424.7846	434.8821	506.9716	588.7153	720.0755	763.4595	809.4375	915.1503	945.8799	1017.4616	1055.2856	1134.1645	1140.0488	1160.278	1171.065	1182.2423	1189.3523	1223.6192	1236.1885	1288.0958	1343.0586	1382.139	1412.8203	1433.4981	1482.4788	1492.7126	1507.8588	1512.3044	1525.2184	1883.7315	2987.6222	2995.0219	3033.4348	3045.7913	3046.603	3112.4888	3115.1428	3127.8242
COC1COC(=O)OC1	COC1COC(=O)OC1	
InChI=1S/C5H8O4/c1-7-4-2-8-5(6)9-3-4/h4H,2-3H2,1H3	InChI=1S/C5H8O4/c1-7-4-2-8-5(6)9-3-4/h4H,2-3H2,1H3
