15
gdb 25967	5.01554	1.00405	0.84098	4.4452	70.99	-0.2231	-0.0094	0.2137	1310.174	0.112625	-454.005641	-453.997252	-453.996308	-454.040362	29.301	
C	-0.2403506199	 1.5256289369	 0.0137659192	-0.505018
C	 0.1631695874	 0.058972814	 0.0012707362	 0.402186
O	 1.3039367649	-0.3271066398	-0.0169544185	-0.298807
N	-0.9385659717	-0.798107458	 0.0120955885	-0.449897
C	-0.9279076938	-2.1768918835	 0.0029500758	 0.533538
N	 0.0507837007	-3.0203992713	-0.0055076757	-0.31236
C	-0.5892837703	-4.2590765142	-0.0110231437	-0.10376
C	-1.9268150898	-4.0853361442	-0.0050354558	-0.048935
O	-2.1690575008	-2.7270822761	 0.0039841739	-0.202579
H	 0.66513656	 2.1306990553	 0.0087514171	 0.160105
H	-0.8455821281	 1.774033778	-0.8646621124	 0.142922
H	-0.8295400384	 1.7640101097	 0.9057235872	 0.142662
H	-1.8601368824	-0.3894909591	 0.0239419593	 0.265314
H	-0.0262770076	-5.1787074542	-0.018701718	 0.12815
H	-2.7919753301	-4.7236562834	-0.0054859732	 0.14648
35.3243	60.6543	92.641	147.7435	315.4718	345.3178	363.099	510.2851	591.6851	595.3662	622.4243	710.5376	753.3591	799.9615	868.3501	918.3978	952.9297	959.9373	1024.0625	1049.2239	1094.4653	1137.2047	1175.3543	1228.9321	1245.6517	1359.075	1387.6783	1470.8323	1483.5582	1549.9448	1578.4191	1647.5645	1833.9372	3041.5066	3103.9641	3168.1761	3266.5646	3310.2238	3636.6522
CC(=O)NC1=NC=CO1	CC(=O)Nc1ncco1	
InChI=1S/C5H6N2O2/c1-4(8)7-5-6-2-3-9-5/h2-3H,1H3,(H,6,7,8)	InChI=1S/C5H6N2O2/c1-4(8)7-5-6-2-3-9-5/h2-3H,1H3,(H,6,7,8)
