20
gdb 98471	2.31724	1.2646	1.02426	2.0976	76.35	-0.2441	0.0216	0.2657	1285.7099	0.169225	-440.306305	-440.296095	-440.295151	-440.342027	36.131	
C	-0.4165757063	 1.1526623536	 0.5781710055	-0.389959
C	 0.2092965233	-0.2086292365	 0.2528298954	-0.254203
C	 0.7573104329	-0.2765768411	-1.1551016602	 0.315817
C	 0.6116700664	-1.4944021258	-1.9733042717	-0.216864
O	-0.2082208648	-0.3486782244	-2.2227475404	-0.287816
C	 1.9601660184	 0.6148954406	-1.4326116868	 0.337891
O	 2.8109568296	 0.8042378337	-0.5784506682	-0.392781
N	 1.9840209428	 1.1353324773	-2.6848891087	-0.312557
C	 3.0402092341	 2.0100289522	-3.1488606491	-0.334687
H	 0.3312099773	 1.9491697825	 0.522620374	 0.135827
H	-1.2255952085	 1.3871277134	-0.1206032565	 0.12446
H	-0.831680309	 1.1541345414	 1.589964274	 0.115492
H	 1.0378452926	-0.4133858547	 0.9374504938	 0.131528
H	-0.5327945415	-1.004346347	 0.3759844533	 0.09767
H	 1.3452004513	-1.719614317	-2.7454542006	 0.121779
H	 0.0920530776	-2.3540182145	-1.553168593	 0.12418
H	 1.1700242386	 0.9618152921	-3.2551625682	 0.261868
H	 3.7871930149	 2.0712106026	-2.3560793376	 0.168499
H	 3.5105670277	 1.6169564299	-4.0567753407	 0.125932
H	 2.6628211827	 3.0170671117	-3.3600624741	 0.127924
64.9189	78.6864	94.8311	129.9726	187.3558	201.9154	228.8818	296.8689	327.929	344.5554	461.9055	506.832	543.2443	623.1187	747.9935	763.9686	806.4361	873.054	882.5314	948.7075	998.649	1033.055	1091.0441	1103.4838	1135.1313	1154.2105	1166.1334	1178.702	1214.0431	1277.593	1311.5008	1352.5596	1403.7797	1407.8863	1440.9851	1464.6879	1495.312	1499.9503	1500.4205	1507.7346	1519.6673	1570.6395	1774.8245	3027.6921	3042.0457	3049.8862	3079.6506	3087.6922	3094.9058	3114.3899	3121.0917	3149.0669	3178.919	3619.9792
CCC1(CO1)C(=O)NC	CC[C@]1(CO1)C(=O)NC	
InChI=1S/C6H11NO2/c1-3-6(4-9-6)5(8)7-2/h3-4H2,1-2H3,(H,7,8)	InChI=1S/C6H11NO2/c1-3-6(4-9-6)5(8)7-2/h3-4H2,1-2H3,(H,7,8)/t6-/m0/s1
