22
gdb 57628	3.02027	0.96207	0.92431	1.125	89.	-0.2362	0.0589	0.295	1413.5295	0.191399	-367.150121	-367.139831	-367.138887	-367.185037	38.833	
C	-0.1054892632	 1.546413646	-0.0271586713	-0.405642
C	 0.005979687	 0.0060439717	 0.0210546437	 0.046345
C	 0.8171411203	-0.422570201	 1.2646079159	-0.400294
C	-1.4021034596	-0.6518883383	 0.0564504456	-0.148804
N	-2.1738356636	-0.2374310534	 1.2224594423	-0.067501
C	-3.2116480758	 0.7690405158	 1.0154507213	-0.220125
C	-3.5708013523	-0.6558131444	 1.2444849363	-0.225033
C	 0.6791070778	-0.4693577354	-1.192348185	 0.342849
C	 1.2217525792	-0.8660197466	-2.1896160832	-0.496052
H	 0.8879589152	 1.9964737424	-0.1041380758	 0.120965
H	-0.6911598872	 1.8728915627	-0.8917443788	 0.114539
H	-0.5843438277	 1.9175657847	 0.882439122	 0.127221
H	 0.2803662508	-0.1309507112	 2.170180435	 0.13234
H	 0.959660826	-1.5069730148	 1.2799038228	 0.116809
H	 1.8035804738	 0.0492864527	 1.2624986127	 0.1152
H	-1.9267070531	-0.431695195	-0.8894194715	 0.087816
H	-1.270788112	-1.738349331	 0.1080862771	 0.110024
H	-3.3263371752	 1.5036167579	 1.8075295814	 0.117442
H	-3.348339472	 1.1595906179	 0.0081774594	 0.112667
H	-3.9485045106	-1.2147761912	 0.3894397953	 0.110685
H	-3.9513174582	-0.9850739783	 2.2072987448	 0.117432
H	 1.7071247105	-1.214188741	-3.0675049999	 0.191115
75.248	100.2869	120.7898	183.0042	209.3353	236.8632	283.3424	310.9277	316.7148	369.0163	411.0614	455.8888	551.4296	553.7624	624.3334	634.8002	734.9372	775.7554	841.3253	889.9679	900.6502	931.6287	964.2564	991.4816	1032.105	1035.4294	1053.06	1113.6098	1122.5922	1156.4117	1176.1647	1208.2293	1223.5462	1242.3287	1310.0001	1323.4616	1381.5481	1390.1328	1417.1266	1480.2171	1484.388	1487.7368	1493.5835	1503.6973	1509.4671	1523.112	2229.9292	2953.057	3041.6086	3045.887	3061.884	3092.7272	3097.0156	3113.9758	3116.962	3125.5213	3133.8187	3175.2152	3189.5998	3502.6152
CC(C)(CN1CC1)C#C	CC(C)(CN1CC1)C#C	
InChI=1S/C8H13N/c1-4-8(2,3)7-9-5-6-9/h1H,5-7H2,2-3H3	InChI=1S/C8H13N/c1-4-8(2,3)7-9-5-6-9/h1H,5-7H2,2-3H3
