19
gdb 105817	2.44384	1.53353	1.24354	1.0552	75.18	-0.2276	0.0593	0.2869	1100.3807	0.156689	-422.924315	-422.91546	-422.914515	-422.957807	33.225	
C	-0.363884147	 1.2576430829	-0.1023598428	-0.256078
O	 0.1338300836	-0.0650301349	 0.0415808668	-0.271052
C	 0.7648388308	-0.5303819011	-1.0906957275	 0.365919
C	 0.0315372588	-1.0888905441	-2.2840205055	-0.056089
C	 0.0511894789	-0.7198679452	-3.7574897867	-0.435983
C	 0.9666120777	-1.9875903877	-1.480390261	-0.227248
C	 2.4872399643	-1.6905213109	-1.6568469101	 0.025846
O	 2.6958196271	-0.6428548711	-2.6195896944	-0.235601
C	 2.3075844535	-0.2920857515	-1.288129659	-0.064375
H	 0.4385042742	 1.9701320856	-0.339669549	 0.112668
H	-1.124857363	 1.3138126321	-0.8923653864	 0.11559
H	-0.8137900342	 1.5342094021	 0.8535825715	 0.128475
H	-0.9822295376	-1.3105771417	-1.9426508512	 0.098578
H	-0.3324361582	-1.5567147101	-4.3526292134	 0.112729
H	-0.6125490956	 0.1344793933	-3.9343250473	 0.108694
H	 1.0459305482	-0.4687613742	-4.1122743981	 0.154209
H	 0.6089766358	-2.8675096654	-0.9610379053	 0.101885
H	 3.3056255037	-2.3782108044	-1.4828602398	 0.111419
H	 2.9287138691	 0.3962108259	-0.726715631	 0.110416
82.9857	134.7169	157.7848	168.882	213.4762	279.5495	346.6398	371.1902	409.5433	497.0891	586.0585	697.2913	720.9459	764.6232	814.2167	852.2379	862.7921	925.11	965.696	977.1581	1013.9326	1038.5951	1056.9247	1060.7802	1120.2279	1127.4651	1177.4604	1180.0528	1214.4715	1222.0496	1259.4879	1280.3784	1326.0602	1376.2084	1406.725	1451.185	1486.4953	1488.2383	1498.4863	1505.7722	1512.6465	2995.6727	3031.5381	3051.0878	3081.3229	3087.9125	3124.0668	3180.9448	3194.0828	3197.9736	3202.1296
COC12C(C)C1C1OC21	CO[C@]12[C@@H](C)[C@H]1[C@H]1O[C@@H]21	
InChI=1S/C7H10O2/c1-3-4-5-6(9-5)7(3,4)8-2/h3-6H,1-2H3	InChI=1S/C7H10O2/c1-3-4-5-6(9-5)7(3,4)8-2/h3-6H,1-2H3/t3-,4-,5+,6+,7+/m0/s1
