13
gdb 125470	5.4694	1.32169	1.07157	2.9044	66.46	-0.2429	-0.0221	0.2208	1040.7689	0.090501	-452.73928	-452.73256	-452.731616	-452.770565	25.044	
C	 0.0829787953	 1.4528758888	-0.0174199912	-0.492173
C	-0.0802379971	-0.0198656447	-0.0242990966	 0.347343
N	-1.1288573919	-0.7282628033	-0.2908209199	-0.366667
C	-0.6910074013	-2.0433808102	-0.1386057006	 0.118006
C	 0.6166146977	-2.0167406756	 0.2155046505	 0.467357
O	 1.1719451503	-3.1936353692	 0.3960764141	-0.239688
N	 0.108521724	-4.1397595435	 0.1315763616	-0.145076
C	-0.9626257694	-3.433901976	-0.1769835228	-0.082511
O	 1.0772460046	-0.7660571495	 0.3087181756	-0.235541
H	 0.8492522115	 1.7668719193	-0.7335339384	 0.155673
H	-0.8693138796	 1.9097208858	-0.2872280804	 0.16642
H	 0.3868392784	 1.8101412886	 0.9718270362	 0.155673
H	-1.8681413327	-3.9763993106	-0.4088903682	 0.151184
120.3648	146.8278	283.0349	294.0055	355.3263	516.362	574.3662	609.9569	667.1173	755.9662	767.293	782.1633	808.0442	858.6358	905.5521	977.6166	1028.1579	1063.0304	1162.3536	1198.6495	1251.3895	1406.6283	1423.7875	1454.7756	1470.7647	1480.2801	1542.6793	1625.104	1639.4592	3045.736	3101.8765	3160.2652	3247.5908
CC1=NC2=C(ON=C2)O1	Cc1nc2c(onc2)o1	
InChI=1S/C5H4N2O2/c1-3-7-4-2-6-9-5(4)8-3/h2H,1H3	InChI=1S/C5H4N2O2/c1-3-7-4-2-6-9-5(4)8-3/h2H,1H3
