14
gdb 25278	3.36508	1.76222	1.16506	3.5809	69.35	-0.2313	-0.0183	0.213	964.7369	0.104313	-436.765608	-436.759203	-436.758259	-436.796544	24.737	
O	-0.0076135333	-0.0446464118	 0.0023490187	-0.372214
C	 0.0044681378	 1.1478658136	 0.0092255214	 0.531148
O	-1.0993298671	 1.9445272217	 0.0291995095	-0.257287
C	-0.7444014293	 3.3475683127	 0.0319089951	-0.201131
C	 0.7516157407	 3.3281012515	 0.0102940835	 0.326904
C	 1.8901247121	 4.0827497886	-0.0019699439	-0.336899
C	 2.9877216747	 3.1529650764	-0.0231326571	-0.135231
C	 2.485560682	 1.8757895505	-0.0229258669	-0.113162
N	 1.113496085	 2.0019232643	-0.0021786416	-0.11663
H	-1.1975136235	 3.8150060258	-0.8485987734	 0.14813
H	-1.171973492	 3.8050976991	 0.9302138984	 0.148117
H	 1.9590390063	 5.1590673888	 0.0029990558	 0.114175
H	 4.0356215444	 3.412452584	-0.0369257615	 0.113033
H	 2.9548154222	 0.907002095	-0.0351106381	 0.151048
139.9287	194.683	236.677	317.7837	571.743	608.415	630.2225	658.1973	681.1984	732.0225	763.7218	783.3732	796.0861	864.2894	925.2655	1019.9	1031.8782	1033.6553	1062.0058	1100.5978	1172.4735	1191.9732	1255.0477	1298.3944	1363.1935	1436.734	1451.5617	1500.8596	1511.007	1620.6332	1907.9292	3043.8241	3080.616	3247.104	3262.5593	3292.5758
O=C1OCC2=CC=CN12	O=C1OCc2cccn12	
InChI=1S/C6H5NO2/c8-6-7-3-1-2-5(7)4-9-6/h1-3H,4H2	InChI=1S/C6H5NO2/c8-6-7-3-1-2-5(7)4-9-6/h1-3H,4H2
