19
gdb 38161	2.41381	2.17658	1.44628	2.5191	79.31	-0.2502	0.0041	0.2543	942.5813	0.161456	-385.841396	-385.834571	-385.833627	-385.872101	29.039	
C	-0.0110538344	 1.5526729687	-0.0783410512	-0.285842
C	 1.5213456887	 1.3316087513	 0.0474504568	-0.013431
C	 1.1993281636	 0.0279509509	 0.8790692729	-0.315002
C	-0.0511622186	 0.0354104557	-0.0053992357	 0.41841
O	-1.1618465252	-0.7809160812	-0.3098430374	-0.328905
C	-0.0130795763	-0.7951930451	-1.2014888941	-0.024888
C	 0.1903748722	-0.0973828264	-2.4951985492	-0.152927
C	 1.2431373718	 0.7307400619	-2.5368884355	-0.031046
C	 2.1510161139	 1.1226878997	-1.3676579732	-0.263547
H	-0.4313055372	 1.9998961085	 0.8274102678	 0.097992
H	-0.4007399413	 2.0538718219	-0.9636058343	 0.106357
H	 2.0921043822	 2.0866871812	 0.5909329757	 0.073047
H	 1.8740804209	-0.8278026839	 0.8024111025	 0.098748
H	 1.0294489706	 0.2831201787	 1.9293781506	 0.102111
H	 0.5200028338	-1.7457183593	-1.120865027	 0.099884
H	-0.3874363854	-0.330329243	-3.3847948331	 0.097934
H	 1.5187192682	 1.1757764111	-3.4911687091	 0.093124
H	 2.6290660469	 2.0686614418	-1.6460404826	 0.110637
H	 2.9767993557	 0.3989848475	-1.2974212339	 0.117342
159.7968	303.1847	345.8629	358.1384	403.9694	418.605	488.8084	521.049	594.0687	716.1263	724.0814	775.7827	834.1891	857.803	876.376	897.8092	934.9571	967.6587	970.4471	996.1039	999.4529	1025.2017	1070.0561	1090.6462	1120.7603	1137.416	1172.1707	1188.6087	1204.7223	1232.3993	1251.4455	1281.0644	1314.041	1341.2777	1371.351	1401.1141	1469.6804	1479.5013	1492.1467	1515.4966	1669.8289	3001.5176	3051.6072	3053.2028	3063.	3069.223	3090.9157	3114.3832	3139.4811	3140.7333	3173.7066
C1C2CC11OC1C=CC2	C1[C@H]2C[C@]31O[C@H]3C=CC2	
InChI=1S/C8H10O/c1-2-6-4-8(5-6)7(3-1)9-8/h1,3,6-7H,2,4-5H2	InChI=1S/C8H10O/c1-2-6-4-8(5-6)7(3-1)9-8/h1,3,6-7H,2,4-5H2/t6-,7-,8-/m0/s1
