23
gdb 88662	3.93891	0.80659	0.73445	1.283	86.96	-0.2493	0.0768	0.3261	1621.7696	0.205256	-388.267604	-388.257916	-388.256972	-388.30259	36.838	
C	 0.0390270711	 1.5542965094	-0.2911114425	-0.407069
C	 0.0007895698	 0.0616920733	-0.0423335816	 0.005704
C	 1.2534550022	-0.7765309713	-0.1273468452	-0.309402
C	 0.56525665	-0.5849092849	 1.2067546894	-0.002829
C	 1.2164325311	 0.1912009134	 2.3188265589	 0.033124
C	 0.3386520745	 0.677177612	 3.5112447322	-0.257904
C	 1.5021864806	 0.3321887786	 4.459082517	 0.146542
O	 1.096997747	-0.2402318296	 5.6814264902	-0.432017
C	 2.0913135289	-0.5834952771	 3.3507520089	-0.284263
H	 0.9716538085	 2.0049802463	 0.0602964047	 0.115119
H	-0.0409560123	 1.7695310787	-1.3625794728	 0.115068
H	-0.788189936	 2.0670496165	 0.2127216455	 0.116611
H	-0.8991445616	-0.4152773921	-0.4233615812	 0.080268
H	 1.2106226844	-1.7483597953	-0.6071593525	 0.10589
H	 2.1916480076	-0.2502694444	-0.2800596019	 0.104103
H	 0.0022136497	-1.444660203	 1.5657936364	 0.073909
H	 1.7894689984	 1.0303229728	 1.9126293559	 0.062659
H	-0.0404631811	 1.7015236663	 3.50255863	 0.095136
H	-0.4927876261	-0.0118110437	 3.6914148805	 0.108224
H	 2.147258027	 1.207694863	 4.6259277256	 0.061649
H	 1.8841484287	-0.431330661	 6.2013263827	 0.279638
H	 1.72417514	-1.6061160421	 3.4855136746	 0.101553
H	 3.1744768578	-0.6041164259	 3.2044530652	 0.088286
50.7169	77.6511	131.0366	200.3567	204.8084	269.5317	320.5891	349.5077	375.712	393.3056	457.4983	522.3832	612.0459	758.6485	776.9258	810.4603	852.3761	882.2745	909.4683	929.5225	952.4805	993.8905	1021.4487	1029.1961	1050.9463	1063.1567	1085.2451	1108.803	1120.8591	1150.2692	1183.1321	1198.5618	1214.5663	1217.6427	1248.1384	1259.8614	1266.387	1273.8505	1320.7306	1329.4853	1395.9653	1419.5731	1426.4752	1442.8924	1469.5914	1491.8774	1494.7323	1499.4474	1507.0263	2985.6957	3028.9514	3047.3091	3053.1334	3056.8807	3085.2382	3104.1959	3106.9167	3113.0015	3117.9055	3121.4932	3135.1447	3205.4768	3814.3998
CC1CC1C1CC(O)C1	C[C@H]1C[C@H]1[C@H]1C[C@@H](O)C1	
InChI=1S/C8H14O/c1-5-2-8(5)6-3-7(9)4-6/h5-9H,2-4H2,1H3	InChI=1S/C8H14O/c1-5-2-8(5)6-3-7(9)4-6/h5-9H,2-4H2,1H3/t5-,6-,7+,8+/m0/s1
