18
gdb 87061	2.26957	1.48342	1.15397	2.5867	77.12	-0.2499	0.0086	0.2585	1132.3784	0.147705	-398.08116	-398.072299	-398.071355	-398.114775	32.546	
C	-0.2464911956	 1.485241497	 0.1668832127	-0.330461
N	-0.0973463495	 0.0377583486	 0.2919273739	-0.122817
C	 1.1411344336	-0.5621131091	-0.1727971726	-0.273031
C	 0.8191825911	-0.5109930811	 1.296579744	 0.159384
C	 1.6057550549	 0.397455895	 2.1053646552	 0.252596
N	 2.2173921114	 1.1140802225	 2.7765943197	-0.341759
C	 0.3366773191	-1.7381875545	 2.0349471027	-0.080599
C	-0.9696360796	-1.6993406274	 2.7352807272	-0.22886
N	-0.8006907065	-2.4856949213	 1.5003421284	-0.323475
H	 0.6939908183	 2.0375071792	 0.3008383863	 0.134059
H	-0.6437384413	 1.7011978001	-0.8285986021	 0.137411
H	-0.9651820932	 1.838367094	 0.9111205403	 0.14103
H	 1.0489835374	-1.5124898048	-0.6911178533	 0.141307
H	 1.9275823457	 0.0981153266	-0.5330896779	 0.1353
H	 1.1403557008	-2.350277285	 2.4371625265	 0.110597
H	-1.1176779081	-2.2794935142	 3.6408556741	 0.12759
H	-1.5396529739	-0.7756950929	 2.6795359447	 0.118185
H	-1.1918913842	-1.9459301626	 0.7277661702	 0.243543
84.5617	141.3129	154.6335	164.0521	201.8223	239.677	346.0676	368.4564	469.778	474.5906	572.6439	603.6364	657.101	793.1589	836.0752	885.703	910.1833	936.5299	983.1277	1026.0417	1050.3752	1102.6008	1124.2501	1137.2142	1150.9603	1156.5919	1200.9281	1218.7296	1233.9887	1289.4832	1313.399	1352.3285	1411.5002	1454.0066	1490.6831	1494.1236	1504.67	1510.3595	2346.7447	3007.9653	3092.1558	3101.9976	3114.0513	3123.6909	3138.9173	3196.7109	3203.2504	3464.3731
CN1CC1(C#N)C1CN1	CN1C[C@]1(C#N)[C@H]1CN1	
InChI=1S/C6H9N3/c1-9-4-6(9,3-7)5-2-8-5/h5,8H,2,4H2,1H3	InChI=1S/C6H9N3/c1-9-4-6(9,3-7)5-2-8-5/h5,8H,2,4H2,1H3/t5-,6-,9?/m1/s1
