15
gdb 11244	3.62733	1.74085	1.39428	2.2307	62.85	-0.2484	-0.0325	0.216	906.55	0.118044	-399.828991	-399.821299	-399.820355	-399.86168	26.827	
C	-0.1898611363	 1.3574930564	 0.2021372037	-0.477044
C	 0.0160912673	-0.1017988222	-0.0024105287	 0.418208
N	-0.2932580428	-0.7796376022	-1.0308829178	-0.296221
C	 0.1238233875	-2.1593262009	-0.7745113774	-0.208626
C	 0.5847183647	-2.1391572163	 0.7221522949	-0.017665
O	 0.6146553632	-0.7488579946	 1.0449543455	-0.234818
C	-0.4010386283	-2.8769670256	 1.6109589308	 0.147531
O	-1.1904217301	-2.3511261052	 2.3467218983	-0.228432
H	 0.7667013856	 1.8486930786	 0.4058619667	 0.147298
H	-0.6451449075	 1.7923776459	-0.6866885714	 0.154084
H	-0.8348761325	 1.5253312034	 1.0699055804	 0.157398
H	-0.7051052768	-2.8540926879	-0.9482507644	 0.123758
H	 0.935547034	-2.4436124588	-1.4528475999	 0.124136
H	 1.5836734727	-2.5656142308	 0.8630094902	 0.110914
H	-0.3526624906	-3.9848908599	 1.4894019189	 0.079478
62.3468	109.3175	143.9107	216.8715	271.3175	321.3698	366.2765	596.6041	639.3178	723.7028	751.1266	835.9933	903.3807	944.1085	959.8462	984.9668	1064.2334	1070.4215	1083.982	1113.2299	1196.0195	1245.9336	1273.9292	1330.2053	1368.2432	1411.3623	1421.4322	1473.9153	1475.7502	1502.5391	1747.7484	1845.8606	2859.0133	3036.7244	3053.5007	3056.6703	3073.0092	3112.6327	3168.5585
CC1=NCC(O1)C=O	CC1=NC[C@@H](O1)C=O	
InChI=1S/C5H7NO2/c1-4-6-2-5(3-7)8-4/h3,5H,2H2,1H3	InChI=1S/C5H7NO2/c1-4-6-2-5(3-7)8-4/h3,5H,2H2,1H3/t5-/m1/s1
