18
gdb 82421	2.52647	1.75958	1.16667	3.5104	72.58	-0.2284	0.0229	0.2512	1057.5817	0.148571	-439.091973	-439.083814	-439.08287	-439.124799	30.732	
C	-0.0705674508	 1.3992724265	-0.1001703874	-0.35292
N	 0.0151720533	-0.0413371908	 0.0886081216	-0.089631
C	-1.2151958297	-0.7823570095	 0.1260220351	-0.020493
C	-1.5328534571	-1.7809680824	-0.9863677289	-0.362907
C	-1.1219006414	-2.2485975202	 0.392989383	 0.117936
O	 0.1141116755	-2.8134840685	 0.6937068659	-0.249007
C	 1.2335020511	-2.1853380271	 0.0947937977	-0.204988
C	 1.2354072192	-0.6560187933	 0.0607818858	 0.37767
O	 2.2942729761	-0.0595507967	-0.0405157023	-0.384812
H	 0.9423427095	 1.7987714211	-0.0945487716	 0.171951
H	-0.5532500585	 1.6411524337	-1.0548414506	 0.127505
H	-0.6513788116	 1.8552529874	 0.7093221835	 0.125722
H	-2.0274799595	-0.2153992427	 0.5694236181	 0.105617
H	-2.5646867809	-1.9285933117	-1.2865123054	 0.122222
H	-0.8134933602	-1.8418034107	-1.7953175688	 0.129626
H	-1.8833451197	-2.7063325953	 1.0143421082	 0.115402
H	 2.1113170742	-2.4947202415	 0.6641162449	 0.14787
H	 1.3753249605	-2.5337083183	-0.9407962688	 0.123239
103.5143	116.4486	142.1051	207.637	331.378	346.2463	378.5229	463.6556	500.8539	559.6182	597.3505	693.3665	758.0898	772.594	809.0459	925.236	986.2772	995.8727	1012.3649	1045.4125	1076.887	1100.7154	1127.4663	1153.963	1158.5029	1184.1838	1257.1722	1264.0776	1275.1132	1361.6102	1379.2413	1415.3296	1425.2127	1455.1189	1486.0161	1488.7509	1499.4889	1523.8114	1768.0442	2983.3487	3022.8326	3076.1176	3123.4052	3135.9046	3153.0517	3169.2199	3177.4255	3227.4694
CN1C2CC2OCC1=O	CN1[C@H]2C[C@H]2OCC1=O	
InChI=1S/C6H9NO2/c1-7-4-2-5(4)9-3-6(7)8/h4-5H,2-3H2,1H3	InChI=1S/C6H9NO2/c1-7-4-2-5(4)9-3-6(7)8/h4-5H,2-3H2,1H3/t4-,5+/m0/s1
