20
gdb 97396	5.74609	0.75114	0.73814	2.7216	85.47	-0.2448	0.0273	0.2721	1625.2712	0.170804	-403.090738	-403.082115	-403.08117	-403.125212	31.938	
C	-0.0172937434	 1.3506043484	-0.2466831721	-0.314491
N	 0.011268036	-0.0403516697	 0.1529183876	-0.210574
C	-1.0527233828	-0.698188041	 0.0279251969	 0.121707
O	-1.1122004944	-1.9922413164	 0.4039009586	-0.227086
C	-2.320895503	-2.6749271106	 0.1242495233	 0.187179
C	-2.4275280011	-3.5194049853	-1.1800161818	-0.089319
C	-1.3852495754	-4.4912377478	-0.5456755616	-0.221443
C	-2.3770391108	-4.139569462	 0.6070608645	-0.086272
C	-3.5251162532	-4.3258758753	-0.4287564939	-0.224247
H	 0.7386889457	 1.5269361346	-1.0204615531	 0.126999
H	-0.9931971457	 1.6874043711	-0.6344955405	 0.094003
H	 0.2490865439	 1.9846647442	 0.6068453364	 0.127462
H	-1.9984067392	-0.2961132541	-0.3700634878	 0.071345
H	-3.1811987138	-2.0411608418	 0.3696516585	 0.078042
H	-2.4609356032	-3.1508230836	-2.2057931985	 0.076037
H	-1.4136764915	-5.5231213394	-0.9041827491	 0.091964
H	-0.3657557111	-4.1221614608	-0.4431988019	 0.123429
H	-2.3514660475	-4.4853539	 1.6403618921	 0.080423
H	-4.4715610814	-3.8163801766	-0.2241556463	 0.092386
H	-3.6868856581	-5.3470482037	-0.7780169012	 0.102458
35.909	77.3859	123.6516	204.6994	273.3238	300.3724	359.8433	391.5926	491.9048	555.6586	697.4825	770.7933	804.1113	885.5347	902.1073	911.113	924.0597	983.3361	1015.464	1018.9998	1026.4955	1048.194	1088.0812	1108.4964	1117.2776	1134.5097	1141.6681	1153.1606	1167.0922	1197.1203	1215.6431	1236.513	1250.5019	1258.6442	1283.4337	1388.5767	1428.5089	1450.5849	1480.16	1497.5161	1504.7773	1534.7278	1779.7283	2963.0516	2985.352	3038.942	3054.6884	3056.5795	3070.6166	3076.1787	3109.5152	3118.5278	3127.6012	3154.5311
CN=COC1C2CC1C2	CN=CO[C@H]1[C@H]2C[C@@H]1C2	
InChI=1S/C7H11NO/c1-8-4-9-7-5-2-6(7)3-5/h4-7H,2-3H2,1H3	InChI=1S/C7H11NO/c1-8-4-9-7-5-2-6(7)3-5/h4-7H,2-3H2,1H3/t5-,6+,7-
