19
gdb 122052	3.09843	0.77256	0.6498	2.3937	74.63	-0.2492	-0.0525	0.1967	1727.7844	0.15436	-460.168144	-460.157546	-460.156602	-460.205258	35.647	
C	 0.1084669079	 1.5192045668	 0.206752744	-0.384944
C	 0.0081178688	 0.0237521776	-0.1040223509	-0.18488
C	-1.396288547	-0.5158568476	 0.1187402583	-0.049404
O	-1.3968620144	-1.9039101187	-0.2104270654	-0.251199
C	-2.6307041631	-2.5384887327	-0.1160670398	-0.061427
C	-2.5606251054	-3.8374396884	-0.9206436348	 0.127764
O	-3.4789999709	-4.606360851	-1.0183859993	-0.243216
C	-3.0736368887	-2.8661798116	 1.3181603638	 0.143467
O	-2.4913530604	-2.4884608226	 2.2973270262	-0.230085
H	 1.1271279151	 1.8834947102	 0.0475471643	 0.120954
H	-0.5578341581	 2.1075268025	-0.4338624349	 0.116713
H	-0.1606139016	 1.7293418255	 1.2475354247	 0.122434
H	 0.299034464	-0.1709902925	-1.1426784558	 0.105463
H	 0.7000349494	-0.5432136969	 0.5286649982	 0.115824
H	-1.7037572463	-0.3760572352	 1.1617020795	 0.12137
H	-2.1202290162	 0.0123161185	-0.5250808795	 0.08571
H	-3.4534162541	-1.9433075573	-0.5589989451	 0.117723
H	-1.5693911228	-4.0004857839	-1.3931921281	 0.11443
H	-3.9884358963	-3.4940259627	 1.3627596347	 0.113302
49.2561	60.9665	102.5977	122.4836	127.2245	162.5282	218.1704	231.8691	266.3973	331.0777	351.4423	485.3381	560.0401	716.148	767.6368	810.3722	871.0402	903.1397	910.5329	1016.1259	1048.5218	1069.8666	1088.7778	1152.097	1189.5334	1196.7217	1227.0314	1269.0855	1308.1847	1319.6672	1341.1225	1384.04	1394.0812	1413.311	1444.8821	1492.5098	1500.736	1507.4936	1523.1744	1817.893	1850.4424	2914.5777	2924.3119	2930.3313	2962.2469	3033.6059	3039.8568	3055.3054	3077.4431	3103.1907	3111.6617
CCCOC(C=O)C=O	CCCOC(C=O)C=O	
InChI=1S/C6H10O3/c1-2-3-9-6(4-7)5-8/h4-6H,2-3H2,1H3	InChI=1S/C6H10O3/c1-2-3-9-6(4-7)5-8/h4-6H,2-3H2,1H3
