15
gdb 93198	2.89005	1.46378	1.01674	4.7771	62.68	-0.2613	-0.0875	0.1738	1114.0892	0.111236	-494.942248	-494.934107	-494.933163	-494.97561	29.459	
C	-0.1634565805	 1.4472984987	 0.0574146694	-0.406777
C	-0.009559467	-0.0479176321	-0.0838006567	 0.201883
O	 0.9100547712	-0.3325632452	-1.0889112374	-0.225517
C	 0.9704046784	-1.7198984864	-1.3624509687	-0.193979
C	 1.1657495007	-2.5382783375	-0.0934546458	 0.234249
O	 1.407550443	-3.7133313366	-0.1030794689	-0.25038
C	 1.0271242945	-1.7732279462	 1.253356529	 0.337206
O	 1.4148790657	-2.2322471224	 2.2859670207	-0.288885
O	 0.4527207837	-0.5511506024	 1.1929908203	-0.228862
H	 0.8126745521	 1.897367611	 0.2522816905	 0.149273
H	-0.5740308327	 1.8636633848	-0.8650379115	 0.137108
H	-0.8347884504	 1.675479031	 0.8874315489	 0.144613
H	-0.9731253796	-0.5399338174	-0.2965417119	 0.089825
H	 0.0521574933	-2.0720979073	-1.8608203445	 0.138403
H	 1.8094821978	-1.8929597219	-2.0407644634	 0.161841
51.4606	102.2359	214.2802	238.453	289.0771	337.5188	385.4921	433.5141	455.9365	545.8187	583.8658	653.6467	692.172	754.3319	878.8403	949.4083	998.2016	1063.3013	1087.9566	1120.7497	1156.2898	1181.6438	1247.2443	1268.4534	1361.0914	1383.3651	1402.0238	1433.4349	1459.3747	1482.192	1488.6326	1844.6539	1859.5196	2971.7838	2982.7934	3062.738	3110.1413	3145.544	3149.9227
CC1OCC(=O)C(=O)O1	C[C@H]1OCC(=O)C(=O)O1	
InChI=1S/C5H6O4/c1-3-8-2-4(6)5(7)9-3/h3H,2H2,1H3	InChI=1S/C5H6O4/c1-3-8-2-4(6)5(7)9-3/h3H,2H2,1H3/t3-/m0/s1
