20
gdb 76120	3.07482	1.28053	1.0854	2.2626	85.62	-0.2253	0.0516	0.2769	1194.1324	0.169226	-365.942663	-365.933347	-365.932403	-365.97619	35.727	
C	-0.1535642169	 1.5747787948	 0.1422843225	-0.415251
C	 0.004958537	 0.0682758524	 0.0245834588	-0.038472
C	 1.1424160063	-0.5168526292	-0.930241905	-0.206933
C	 1.9791654692	 0.395727461	-1.683382757	 0.366678
C	 2.6596952511	 1.1523542106	-2.3243468863	-0.478043
C	 1.7415135943	-1.2110058102	 0.3059937341	-0.123484
N	 2.0422217961	-0.1464775632	 1.2920244026	-0.361249
C	 0.6660617022	-0.6922422438	 1.1938399835	 0.344881
C	-0.0342124875	-1.3027592642	 2.3677709677	-0.511176
H	 0.7858507975	 2.0324244372	 0.4588616908	 0.147198
H	-0.4423151225	 2.01377288	-0.8177867272	 0.117967
H	-0.9294628448	 1.8261946164	 0.874237533	 0.104419
H	-0.9466930287	-0.4027530804	-0.2413172845	 0.072673
H	 0.7021653546	-1.2574382522	-1.6051498446	 0.099802
H	 3.271507645	 1.8206785477	-2.8777098883	 0.190864
H	 2.2779552971	-2.1525962419	 0.321481492	 0.093647
H	 2.4903216283	-0.599227577	 2.0886148985	 0.223943
H	-0.3821694003	-0.5337213115	 3.0676671384	 0.130776
H	-0.9081612233	-1.8810919486	 2.0486854116	 0.124321
H	 0.6316416053	-1.976954878	 2.9181024594	 0.11744
95.6294	128.4174	190.4114	200.0444	208.3261	241.5246	295.5292	339.5765	394.9928	497.1443	534.2047	602.072	614.8304	632.715	670.1244	690.2597	770.2345	851.8781	873.0082	921.0654	969.7143	978.6109	1005.1536	1043.3582	1090.4605	1101.0971	1104.9871	1120.7344	1147.8596	1200.6792	1243.4902	1289.5395	1311.4056	1346.4871	1366.7552	1404.853	1411.3558	1455.0744	1482.2615	1487.7159	1499.1839	1502.2368	2232.7795	3021.7869	3035.1201	3048.0678	3063.8688	3083.58	3093.4366	3098.2306	3135.532	3180.7514	3468.9362	3504.5737
CC1C(C#C)C2NC12C	C[C@H]1[C@@H](C#C)[C@H]2N[C@@]12C	
InChI=1S/C8H11N/c1-4-6-5(2)8(3)7(6)9-8/h1,5-7,9H,2-3H3	InChI=1S/C8H11N/c1-4-6-5(2)8(3)7(6)9-8/h1,5-7,9H,2-3H3/t5-,6+,7+,8-/m0/s1
