19
gdb 65046	2.27564	1.53359	1.22073	1.6558	81.17	-0.2596	0.0249	0.2845	1118.8691	0.156332	-385.822311	-385.813079	-385.812135	-385.855993	35.337	
C	 0.0140856897	 1.3450951251	 0.7131828207	-0.47488
C	 0.0109232634	-0.0183926969	 0.049202314	 0.263555
C	 0.9166578915	-0.260948802	-1.1315926314	-0.31467
C	 1.2211931242	-0.9074938886	 0.199313927	-0.293191
C	-1.3409707514	-0.6991660535	 0.0438059588	 0.135813
C	-2.2544275709	-0.5429338263	-1.1089100903	-0.21257
O	-1.5216005793	-1.7513998355	-0.9208658196	-0.27108
C	-1.9083565431	-0.9697055203	 1.3471527585	 0.309233
C	-2.3547639466	-1.1765998579	 2.4438459619	-0.417953
H	 1.0211830831	 1.7720126841	 0.7079614884	 0.116514
H	-0.649118717	 2.044123103	 0.1902975688	 0.115331
H	-0.3203578885	 1.2795289333	 1.7534762015	 0.132097
H	 0.5563466132	-0.9092518347	-1.9210456858	 0.129305
H	 1.5385011938	 0.5648225476	-1.4604149624	 0.106133
H	 2.0554455338	-0.5331536567	 0.7827518484	 0.110174
H	 1.0564123265	-1.9762415554	 0.2796153522	 0.125758
H	-3.3290106523	-0.6208120785	-0.9580194672	 0.124355
H	-1.9301766697	 0.0745887106	-1.9451654342	 0.118675
H	-2.7564406504	-1.3681858474	 3.4082584105	 0.1974
61.5822	136.3888	179.1592	212.6397	245.7276	265.5424	308.5903	337.7546	439.6139	463.8793	528.0776	582.5214	596.6893	621.4629	662.2272	791.9758	806.1922	868.4747	882.0123	907.3592	929.8861	955.4898	981.8332	1044.5707	1069.8439	1091.0249	1126.9191	1134.3966	1155.3008	1178.6311	1195.3386	1301.9334	1338.8246	1373.4792	1417.4825	1458.4828	1488.7013	1494.7626	1507.6139	1514.6612	2237.3736	3028.8012	3088.6281	3092.574	3109.7222	3133.6488	3138.0094	3184.3535	3217.6719	3232.8176	3500.9505
CC1(CC1)C1(CO1)C#C	CC1(CC1)[C@]1(CO1)C#C	
InChI=1S/C8H10O/c1-3-8(6-9-8)7(2)4-5-7/h1H,4-6H2,2H3	InChI=1S/C8H10O/c1-3-8(6-9-8)7(2)4-5-7/h1H,4-6H2,2H3/t8-/m1/s1
