18
gdb 76124	2.96368	1.32278	1.10304	3.6503	75.56	-0.268	0.0299	0.2979	1126.1833	0.146733	-401.934709	-401.925864	-401.92492	-401.967968	33.291	
C	-0.1957798962	 1.5577215859	 0.1026684908	-0.424885
C	 0.0352931852	 0.0558504502	 0.0413771815	-0.059144
C	 1.1374434866	-0.5463392243	-0.9327378242	-0.185034
C	 1.9877445612	 0.3995344247	-1.643347434	 0.290248
N	 2.6582916137	 1.1684600492	-2.1883235881	-0.343226
C	 1.7663483675	-1.2807366602	 0.2652553376	-0.120331
C	 2.1854372866	-0.2836730089	 1.3216178263	-0.356685
C	 0.7377456948	-0.6648054448	 1.2023973933	 0.40247
O	 0.0454045385	-1.3029021072	 2.2137842562	-0.464548
H	 0.7303689359	 2.1070844676	 0.2929315868	 0.133772
H	-0.6131734637	 1.9318717767	-0.8373822838	 0.131232
H	-0.9054536318	 1.7978797871	 0.9017412774	 0.11786
H	-0.9047590531	-0.4626673333	-0.1678332259	 0.097397
H	 0.6909395485	-1.2312150851	-1.6568160893	 0.126224
H	 2.1635757139	-2.2863200725	 0.227349436	 0.109846
H	 2.686442168	-0.7366408023	 2.171237354	 0.122883
H	 2.5611254003	 0.6982717852	 1.046092381	 0.130311
H	 0.0348263641	-0.7308129782	 2.9884371543	 0.291608
95.8859	134.0212	188.9305	192.1942	233.7311	249.8815	331.2779	377.8635	428.1769	483.2844	546.8845	602.5666	671.9367	682.0126	774.8418	847.6183	911.5008	919.6154	938.1859	979.6675	1019.4819	1050.5956	1077.5079	1098.3025	1109.4825	1119.3015	1179.6165	1212.026	1240.6572	1287.6688	1321.7546	1325.5891	1363.4894	1411.6559	1418.4327	1490.4006	1493.5025	1499.7787	2348.8334	3038.1719	3066.8772	3090.0902	3103.2039	3115.2658	3119.5006	3202.0491	3209.7516	3805.2365
CC1C(C#N)C2CC12O	C[C@H]1[C@@H](C#N)[C@H]2C[C@@]12O	
InChI=1S/C7H9NO/c1-4-5(3-8)6-2-7(4,6)9/h4-6,9H,2H2,1H3	InChI=1S/C7H9NO/c1-4-5(3-8)6-2-7(4,6)9/h4-6,9H,2H2,1H3/t4-,5+,6+,7+/m0/s1
