20
gdb 59495	3.66303	0.81372	0.7185	4.974	80.13	-0.2752	0.0391	0.3143	1580.5432	0.169525	-403.152347	-403.142358	-403.141414	-403.187908	36.213	
C	-0.0218651619	 1.5383915025	-0.2117145645	-0.405505
C	 0.0199681791	 0.0421320826	 0.1011666201	 0.117663
O	 0.7294242548	-0.2173699015	 1.314485969	-0.431265
C	-1.37024568	-0.5670494195	 0.125983952	-0.037976
C	-1.9286455267	-1.2937319393	-1.0769577994	-0.297345
C	-1.5852669377	-2.060104579	 0.1739942029	-0.005355
C	-0.4088059552	-3.0265526963	 0.2148860298	-0.357448
C	-0.7978136792	-4.3791726897	-0.1875622861	 0.258457
N	-1.1191068593	-5.4438376132	-0.5016036356	-0.308418
H	 0.9892022531	 1.9535057633	-0.2182556768	 0.12701
H	-0.4863763119	 1.7232867685	-1.1852955613	 0.124679
H	-0.6085741809	 2.0748692798	 0.5444875424	 0.108666
H	 0.6206033195	-0.456298238	-0.6682917662	 0.086328
H	 0.2609468812	 0.2280152163	 2.0293437589	 0.277922
H	-2.0857993258	 0.0165244796	 0.7033588117	 0.082721
H	-2.9719759078	-1.1602702359	-1.3385833669	 0.12233
H	-1.2705623523	-1.4130937038	-1.9328893237	 0.119358
H	-2.4271032961	-2.3925082778	 0.7737691124	 0.105244
H	 0.39821296	-2.693036529	-0.4443994606	 0.150291
H	 0.0182219671	-3.0641983494	 1.222749042	 0.162644
49.2979	75.3005	102.2164	163.5832	223.4679	248.9769	277.9101	309.841	367.7175	378.9197	391.2738	492.8229	521.8621	599.5321	779.3554	820.9754	865.2427	878.569	910.2797	941.8422	988.4363	1016.5252	1029.7604	1069.5576	1086.0759	1101.2936	1136.8495	1153.7463	1192.513	1236.977	1251.043	1284.4101	1315.7892	1332.1033	1400.8852	1403.8369	1419.019	1436.7464	1456.7729	1490.1822	1493.4894	1497.1737	2361.7305	3026.2257	3042.8968	3058.5817	3094.4647	3097.4761	3115.8666	3123.854	3129.1296	3154.983	3215.7041	3799.7308
CC(O)C1CC1CC#N	C[C@@H](O)[C@H]1C[C@H]1CC#N	
InChI=1S/C7H11NO/c1-5(9)7-4-6(7)2-3-8/h5-7,9H,2,4H2,1H3	InChI=1S/C7H11NO/c1-5(9)7-4-6(7)2-3-8/h5-7,9H,2,4H2,1H3/t5-,6-,7-/m1/s1
