16
gdb 37863	2.51207	2.24595	2.19613	1.1085	64.83	-0.1846	0.0459	0.2305	777.4384	0.128248	-437.813525	-437.80771	-437.806766	-437.843388	24.837	
N	 0.0168147591	 1.4335861135	 0.0038186643	-0.305401
C	 1.3651872639	 1.9781780955	-0.0109794455	-0.109526
C	 2.4504827116	 1.2155072421	 0.7402099022	 0.037537
O	 2.0605967617	 0.0506360974	 1.4341983105	-0.263868
C	 1.1228817694	-0.7445116261	 0.7421111339	 0.037538
C	 0.0113200616	-0.0206194687	-0.0090403925	-0.109526
C	 1.1187664641	-0.7190658081	-0.7648808429	 0.053765
O	 2.0836013835	 0.0322546747	-1.4522376674	-0.250316
C	 2.4239685654	 1.207884566	-0.7667500272	 0.053765
H	-0.4346437682	 1.7402112579	 0.8639330715	 0.228389
H	 1.3893967002	 3.0628990499	-0.0493269199	 0.098338
H	 3.2431955587	 1.720940584	 1.2807157757	 0.104871
H	 0.948101269	-1.6674468776	 1.2840018287	 0.104871
H	-0.9870408166	-0.4455797896	-0.0459226294	 0.098338
H	 0.8920503147	-1.6257191815	-1.3137595977	 0.110613
H	 3.181310492	 1.7540569604	-1.3170384341	 0.110613
218.6246	257.6488	496.6074	502.9205	588.2598	595.5106	603.8929	704.1725	723.9065	733.5908	774.747	776.0311	819.3486	865.2344	949.4674	963.272	1023.7924	1054.6074	1073.8593	1074.7737	1103.6584	1112.4087	1133.8611	1141.2242	1181.5748	1186.9255	1205.4681	1266.2313	1296.6535	1309.2092	1376.8994	1382.168	1383.294	1483.7489	1491.8181	3148.2115	3148.8079	3165.4635	3167.5029	3178.1446	3180.7191	3450.1273
N1C2C3OC4C1C4OC23	N1[C@H]2[C@H]3O[C@H]4[C@@H]1[C@H]4O[C@@H]23	
InChI=1S/C6H7NO2/c7-1-3-4(1)9-6-2(7)5(6)8-3/h1-7H	InChI=1S/C6H7NO2/c7-1-3-4(1)9-6-2(7)5(6)8-3/h1-7H/t1-,2+,3+,4-,5-,6+
