21
gdb 100665	2.14326	1.21318	1.11282	1.874	74.93	-0.2491	-0.0385	0.2106	1272.2831	0.179111	-461.378967	-461.368409	-461.367465	-461.414097	38.951	
C	-0.1713068203	 1.4736892334	-0.7146065336	-0.379663
C	-0.4078907174	-0.0259904701	-0.9185195587	-0.219084
C	-1.0606958173	-0.681435561	 0.3038950259	 0.087232
O	-2.3185980405	-0.0849425396	 0.6328781674	-0.459398
C	-1.2633496254	-2.2110518576	 0.2183503403	 0.270525
C	 0.0256347172	-3.0112455889	 0.0941863032	-0.442905
O	-1.9180413378	-2.6482990201	 1.4151352467	-0.467294
C	-2.2655409627	-2.6142016494	-0.8709122808	 0.139576
O	-2.9864190718	-1.8555456047	-1.4775597875	-0.281151
H	 0.2610261653	 1.9272979903	-1.6110892316	 0.111881
H	-1.1093499299	 1.9859636263	-0.4867724464	 0.132097
H	 0.5164684652	 1.6549593885	 0.1188163419	 0.11409
H	-1.0420213118	-0.1903910125	-1.7966526061	 0.116658
H	 0.5473026499	-0.5244950824	-1.1209798195	 0.099748
H	-0.4294309344	-0.5039405426	 1.1842697132	 0.092286
H	-2.8807953123	-0.2184147844	-0.1446008815	 0.296256
H	 0.7081215521	-2.7468867312	 0.9068208868	 0.134311
H	-0.1950411649	-4.0797734244	 0.1745265608	 0.133808
H	 0.5258177629	-2.8321335149	-0.8614753646	 0.12762
H	-2.5239166103	-1.9235772506	 1.6376767373	 0.293175
H	-2.3533814761	-3.7140895841	-1.0062000232	 0.100234
88.5831	112.2418	116.0766	176.9186	209.3975	218.8854	240.7188	282.5339	313.0993	344.7437	364.1152	434.4306	467.8436	499.7546	555.3847	623.2568	679.3355	778.0955	835.0491	900.8164	920.3168	953.3315	984.3973	1004.5465	1059.3703	1102.4024	1109.9371	1129.9798	1170.3726	1242.301	1271.5885	1312.807	1341.8511	1378.2226	1384.6134	1408.8661	1412.2654	1428.5611	1445.2052	1484.4074	1489.0957	1495.5713	1496.78	1508.957	1802.0856	2903.1753	3028.1736	3037.4904	3038.9533	3045.0406	3078.6036	3106.2751	3117.6478	3124.789	3126.6453	3702.6454	3732.0405
CCC(O)C(C)(O)C=O	CC[C@@H](O)[C@@](C)(O)C=O	
InChI=1S/C6H12O3/c1-3-5(8)6(2,9)4-7/h4-5,8-9H,3H2,1-2H3	InChI=1S/C6H12O3/c1-3-5(8)6(2,9)4-7/h4-5,8-9H,3H2,1-2H3/t5-,6+/m1/s1
