22
gdb 36796	7.62645	0.46084	0.45253	4.2591	88.04	-0.2823	0.0381	0.3204	2381.0077	0.193879	-367.225056	-367.214913	-367.213969	-367.261643	36.133	
N	-0.0911556734	-1.1590228348	 0.0032469007	-0.305632
C	-0.0549294237	-0.0069085365	 0.0861361313	 0.256456
C	 0.0159478063	 1.4492914865	 0.1858040308	-0.341918
C	 1.4274517995	 1.9992711648	-0.1019463096	-0.181311
C	 1.4842476752	 3.5252653561	 0.0100427374	-0.175271
C	 2.8808382501	 4.095891424	-0.2706828615	-0.214177
C	 2.9369420643	 5.6049998307	-0.1612851523	 0.034314
C	 3.1291171219	 6.2661697425	 1.1818397694	-0.255229
C	 4.2328996697	 6.3063887426	 0.1524043267	-0.276975
H	-0.7091473523	 1.8804310072	-0.5146149471	 0.150926
H	-0.3076973446	 1.7441644297	 1.1910090805	 0.151118
H	 2.1366632959	 1.5437993513	 0.5986769079	 0.119781
H	 1.7359712538	 1.6828842055	-1.1048349818	 0.120205
H	 0.7632554019	 3.9695001513	-0.6901644837	 0.097285
H	 1.1637187356	 3.8340936371	 1.013744836	 0.102642
H	 3.6013089852	 3.6560815154	 0.4322858957	 0.094566
H	 3.2055545659	 3.7851415219	-1.2732314839	 0.099378
H	 2.2751778658	 6.1253485732	-0.8502866122	 0.08062
H	 2.5882643081	 7.1815999516	 1.3946227546	 0.11146
H	 3.2692659937	 5.6241393889	 2.04595394	 0.108492
H	 5.1107405209	 5.6928499181	 0.327792497	 0.111054
H	 4.4437437603	 7.2489638227	-0.3404556658	 0.112215
44.9631	64.7447	82.4212	117.5527	137.7136	170.491	277.1496	303.3067	394.7463	401.6128	449.6787	559.4407	734.0287	770.6719	777.0189	818.909	835.7669	895.0504	923.6964	940.3796	974.0714	1021.0244	1038.6056	1057.2652	1063.5699	1077.7078	1090.5222	1139.9898	1146.2783	1198.4281	1217.7984	1230.6154	1252.115	1283.0933	1317.6044	1327.2022	1332.722	1370.7602	1396.8801	1420.0932	1468.0249	1469.7589	1481.177	1489.7016	1507.0249	1509.7099	2361.9771	3005.3792	3012.6471	3032.8297	3034.5934	3044.7931	3052.7635	3069.0957	3091.7385	3127.3219	3128.6932	3133.776	3205.5921	3220.8652
N#CCCCCC1CC1	N#CCCCCC1CC1	
InChI=1S/C8H13N/c9-7-3-1-2-4-8-5-6-8/h8H,1-6H2	InChI=1S/C8H13N/c9-7-3-1-2-4-8-5-6-8/h8H,1-6H2
