16
gdb 93549	3.56337	1.29222	1.0075	3.7914	67.54	-0.2715	-0.0158	0.2556	1144.2479	0.124396	-475.062005	-475.05395	-475.053006	-475.0952	29.442	
C	 0.0430327105	 1.5783116441	 0.0374014701	-0.390522
C	-0.1506704557	 0.0598306468	-0.055005928	 0.024975
C	 0.7287864013	-0.5324939692	-1.1500920055	-0.095678
O	 0.3748314897	-1.8904806934	-1.4558444877	-0.239069
C	 0.7182061703	-2.8973782248	-0.6502837574	 0.47145
O	 0.6738891801	-4.0361801181	-0.9900491222	-0.329419
O	 1.1753565367	-2.5750865147	 0.6135843638	-0.244613
C	 0.6631128008	-1.6074565122	 1.4665179306	 0.123989
N	 0.0851953091	-0.5158496565	 1.2599291723	-0.237856
H	 1.0862557715	 1.8243866281	 0.2610750587	 0.125671
H	-0.236833162	 2.0680348829	-0.8999678514	 0.119323
H	-0.5754942475	 1.9783761415	 0.8430664668	 0.141077
H	-1.1969666443	-0.1431627122	-0.320428313	 0.115977
H	 0.5807433266	-0.0009467617	-2.0919259008	 0.135874
H	 1.7883139856	-0.4731065084	-0.8776839968	 0.132305
H	 0.8614005574	-1.9442489823	 2.4815722205	 0.146516
59.3516	96.3286	217.844	246.688	281.1511	335.3528	346.9832	418.2774	537.8752	576.3764	649.5638	748.1368	787.4886	825.9952	862.0653	923.1858	942.1437	956.9603	1053.1772	1085.9044	1112.7664	1133.3223	1167.1635	1202.0908	1286.1749	1315.2382	1372.8278	1404.3435	1417.5088	1429.0658	1487.7886	1496.2902	1502.161	1767.4996	1896.3589	3021.5893	3042.7595	3054.1052	3112.0611	3124.8911	3137.2569	3169.6182
CC1COC(=O)OC=N1	C[C@H]1COC(=O)OC=N1	
InChI=1S/C5H7NO3/c1-4-2-8-5(7)9-3-6-4/h3-4H,2H2,1H3	InChI=1S/C5H7NO3/c1-4-2-8-5(7)9-3-6-4/h3-4H,2H2,1H3/t4-/m0/s1
