18
gdb 18902	3.37185	2.64978	2.17183	0.2207	74.22	-0.232	0.0982	0.3302	736.2595	0.155353	-310.601921	-310.595764	-310.594819	-310.631633	26.042	
C	 0.0073996999	 1.553181177	-0.0351196217	-0.534622
C	 0.0291307744	 0.0548521009	-0.0538937347	 0.388507
C	 0.6211015968	-0.8852278225	-1.1549312749	-0.170176
C	-0.4456009573	-1.8829668047	-0.7642847154	-0.062163
C	 0.907293674	-1.8722704035	-0.0459752739	-0.062157
C	 0.6053521891	-0.8736432242	 1.0936893153	-0.102763
C	-0.8327529579	-1.164176155	 1.5872501624	-0.248752
C	-1.2328296853	-0.8880853887	 0.117612368	-0.102751
H	 1.02275617	 1.9659804568	-0.0661224413	 0.118541
H	-0.5406079895	 1.9537059246	-0.896270181	 0.11854
H	-0.4775956821	 1.93101044	 0.872652409	 0.118575
H	 1.1204877005	-0.7048126445	-2.0981994733	 0.080226
H	-0.8082996515	-2.7417121294	-1.3135844148	 0.080471
H	 1.5760512035	-2.7228487887	-0.0476473303	 0.080471
H	 1.414080177	-0.5739182311	 1.7603621922	 0.058024
H	-1.0515009622	-2.14809229	 2.0137568638	 0.088755
H	-1.1962160373	-0.3803627551	 2.2601021601	 0.093248
H	-2.2416740721	-0.6026493818	-0.1808655294	 0.058027
222.1608	239.5524	256.7637	421.5541	538.9813	585.9408	714.3345	741.9519	785.6719	788.6539	814.9716	851.3674	857.3784	875.7291	915.8003	926.8613	959.3144	980.9031	989.8635	1022.2635	1036.9405	1073.1399	1074.9054	1110.0541	1151.4237	1155.5861	1159.1349	1212.0548	1222.5642	1228.0141	1269.6616	1297.0921	1350.0378	1355.79	1411.9811	1484.0942	1488.4764	1492.8725	3016.1231	3041.6535	3079.3477	3082.6961	3096.5583	3111.1749	3114.2086	3187.0988	3192.5586	3207.0285
CC12C3C4C3C1CC24	C[C@@]12[C@@H]3[C@H]4[C@@H]3[C@@H]1C[C@@H]24	
InChI=1S/C8H10/c1-8-3-2-4(8)6-5(3)7(6)8/h3-7H,2H2,1H3	InChI=1S/C8H10/c1-8-3-2-4(8)6-5(3)7(6)8/h3-7H,2H2,1H3/t3-,4+,5-,6+,7-,8+
