15
gdb 21036	3.92391	1.84723	1.27609	2.1484	66.2	-0.2046	0.0119	0.2165	933.8293	0.11863	-396.003053	-395.994976	-395.994032	-396.036209	28.073	
C	 0.1033029182	 1.4049083157	-0.0421376593	-0.3254
N	 0.0892178411	-0.0348865881	-0.0041219175	-0.049149
N	 0.1228180774	-0.7962533254	-1.1563734334	-0.283746
C	 0.0976352294	-2.0090596443	-0.7394038474	 0.40305
C	 0.115003521	-3.248801198	-1.5488441893	-0.489029
O	 0.04900782	-2.1199455367	 0.6254270559	-0.232616
C	 0.0431565419	-0.8185720709	 1.1201988861	 0.447302
N	 0.0042583765	-0.4448266816	 2.3294054107	-0.615198
H	 1.0152563781	 1.7730516429	-0.5227617548	 0.138581
H	-0.765771002	 1.788730034	-0.5857960608	 0.138595
H	 0.0697758846	 1.7508414697	 0.991692626	 0.176177
H	 0.9845545498	-3.8651384051	-1.2978342894	 0.151546
H	-0.7808869998	-3.8493623874	-1.3598735044	 0.151548
H	 0.1545023556	-2.9849768831	-2.6061379353	 0.160085
H	-0.0248301117	-1.2378196417	 2.9625040629	 0.228253
45.0157	109.1897	157.5778	189.5394	264.9278	296.8155	304.4713	526.3706	624.2096	646.9707	682.1234	686.654	728.187	841.8504	958.9516	983.5694	1038.0917	1067.7477	1072.6936	1160.0695	1169.0553	1276.6921	1345.8137	1421.517	1431.286	1451.1502	1470.7817	1481.9855	1483.8595	1516.101	1699.4212	1792.8517	3037.2555	3044.0453	3096.1509	3099.0884	3156.4167	3156.8935	3557.2334
CN1N=C(C)OC1=N	CN1N=C(C)O[C@@H]1[NH]	
InChI=1S/C4H7N3O/c1-3-6-7(2)4(5)8-3/h5H,1-2H3	InChI=1S/C4H8N3O/c1-3-6-7(2)4(5)8-3/h4-5H,1-2H3/t4-/m1/s1
