16
gdb 37679	3.12857	2.46715	2.0928	1.0697	67.45	-0.2354	0.0666	0.3021	734.4492	0.128979	-400.69903	-400.694022	-400.693078	-400.728083	22.732	
O	-0.0045287705	 1.4746357692	-0.0747830659	-0.255159
C	 1.3232739032	 1.9014209557	 0.0693641985	 0.08765
C	 2.4141650712	 1.1698821649	-0.6854595107	-0.116011
C	 2.1652612805	 0.877385283	 0.7921840543	-0.110441
C	 1.3435840276	-0.398848719	 0.7238145924	-0.065484
C	 0.0472540598	 0.0605468672	-0.0350745643	 0.068027
C	 0.642144825	-0.5968515978	-1.2674910532	-0.062812
C	 2.0294951983	-0.0915564365	-1.4235907242	-0.053523
N	 1.7822753916	-1.2231615078	-0.490884026	-0.153824
H	 1.396834691	 2.9685366178	 0.2410863879	 0.107381
H	 3.2858732952	 1.7232760018	-1.0125550208	 0.093751
H	 2.8582265739	 1.1016856498	 1.5919055631	 0.096914
H	 1.253936217	-0.9825472647	 1.6362092873	 0.083228
H	-0.9128707384	-0.328410359	 0.3021369371	 0.091442
H	 0.1018332044	-1.1268521094	-2.0447794172	 0.090987
H	 2.5711742501	-0.3556489452	-2.3246453981	 0.097874
374.676	487.0889	599.5894	638.3932	671.5854	714.7026	730.3753	773.2813	780.4868	790.9367	811.1203	862.5796	881.2257	936.9253	946.696	953.7833	981.1861	1008.2802	1015.8069	1051.4787	1060.6406	1069.5686	1081.7122	1095.8782	1146.6025	1171.5573	1201.3387	1232.7234	1255.8456	1286.7612	1296.3048	1342.9559	1351.1518	1392.6128	1413.3831	3122.9508	3154.0817	3164.5499	3178.4398	3187.7238	3192.4036	3205.786
O1C2C3C2C2C1C1C3N21	O1[C@@H]2[C@H]3[C@@H]2[C@H]2[C@@H]1[C@H]1[C@@H]3N21	
InChI=1S/C7H7NO/c9-6-1-2(6)4-7(9)5-3(1)8(4)5/h1-7H	InChI=1S/C7H7NO/c9-6-1-2(6)4-7(9)5-3(1)8(4)5/h1-7H/t1-,2+,3+,4-,5+,6+,7+,8?/m0/s1
