21
gdb 107039	3.90311	1.11874	0.99696	1.6679	83.66	-0.2407	0.0048	0.2455	1294.1716	0.181847	-387.091591	-387.082596	-387.081652	-387.125121	34.471	
C	-0.3782631745	 1.4864330093	-0.1578818957	-0.379361
C	 0.1031199449	 0.0512072828	 0.0942559354	-0.289015
C	 0.9151611604	-0.497523687	-1.0498684552	 0.403804
O	 0.1655584249	-0.8151473463	-2.258177052	-0.305307
C	 0.8542515647	-1.8712977811	-1.5793726308	-0.050435
C	 2.2075332458	-2.2355966725	-2.1928538081	-0.066388
C	 2.1154176763	-2.6945004437	-3.6560747074	-0.392747
C	 2.9953570971	-0.9491534659	-2.0043851554	-0.078099
C	 2.2976463837	-0.0056902212	-1.3695774368	-0.145573
H	 0.4619165621	 2.177765706	-0.2814082711	 0.116807
H	-0.9854037131	 1.5306660417	-1.0665923037	 0.136341
H	-0.9848263658	 1.8472417285	 0.677905736	 0.112476
H	 0.7086806331	 0.0115303309	 1.0086591341	 0.101673
H	-0.7607044088	-0.6029659367	 0.2537254703	 0.106314
H	 0.2152229815	-2.6431974728	-1.1556603392	 0.087091
H	 2.6622250584	-3.0412592611	-1.5980778207	 0.081723
H	 1.5863510844	-1.9442300291	-4.249098614	 0.138996
H	 3.1113724235	-2.8392573038	-4.0864411701	 0.11177
H	 1.5744849739	-3.6428259178	-3.7366332182	 0.114505
H	 3.9990368556	-0.8306516187	-2.3996197598	 0.097144
H	 2.6474001721	 0.9902537783	-1.1258196976	 0.098281
77.1395	118.865	186.5378	200.8673	226.8526	246.3725	328.4394	361.0258	417.8888	513.9986	575.614	645.9353	705.6922	747.028	777.4149	808.9897	854.4493	867.7869	925.6274	953.4362	963.3592	971.248	1024.4237	1043.2572	1072.9363	1100.5234	1103.4687	1123.7269	1141.5551	1229.354	1272.49	1300.178	1308.4644	1325.0254	1362.1984	1377.3046	1402.1597	1409.7494	1447.8692	1473.7417	1494.5656	1499.0023	1504.7311	1508.5261	1665.5891	3000.9903	3028.6766	3038.0263	3039.1012	3072.0624	3102.5292	3106.6431	3118.9706	3125.7675	3132.6095	3180.1724	3210.7614
CCC12OC1C(C)C=C2	CC[C@]12O[C@H]1[C@@H](C)C=C2	
InChI=1S/C8H12O/c1-3-8-5-4-6(2)7(8)9-8/h4-7H,3H2,1-2H3	InChI=1S/C8H12O/c1-3-8-5-4-6(2)7(8)9-8/h4-7H,3H2,1-2H3/t6-,7-,8+/m0/s1
