20
gdb 121543	6.22139	0.46984	0.45228	2.2541	87.85	-0.232	0.0365	0.2685	2412.8758	0.169637	-403.079923	-403.069528	-403.068584	-403.118053	35.39	
C	 0.2467057574	 1.3128845205	 0.1140678206	-0.229676
O	-0.1006967727	-0.028597375	-0.1335443474	-0.226586
C	 0.6772878269	-0.6191672689	-1.1478758462	-0.041599
C	 0.1926850917	-2.0629610502	-1.3213213159	-0.354669
C	 0.9319557511	-2.7827328951	-2.349781266	 0.022418
C	 1.5618409429	-3.3510850998	-3.2069462893	 0.111901
C	 2.2848358713	-4.0582671489	-4.2261141072	-0.158111
C	 3.7793190539	-4.0443352015	-4.2277779944	-0.226574
N	 3.0635659663	-5.2750585072	-3.8806674755	-0.306811
H	 1.2944568825	 1.4103397549	 0.4399386754	 0.105154
H	 0.10617019	 1.9428000819	-0.7785637517	 0.105848
H	-0.4060363891	 1.67827673	 0.9104247908	 0.129012
H	 0.5721251361	-0.0689651513	-2.0970727307	 0.097241
H	 1.7468739713	-0.6091297047	-0.8812897611	 0.094534
H	 0.2814080922	-2.5773984933	-0.356634594	 0.138471
H	-0.8769131591	-2.0445290567	-1.5629731311	 0.140218
H	 1.7792912099	-4.1406128786	-5.185043952	 0.115109
H	 4.3073073944	-4.0720362267	-5.1768373321	 0.123988
H	 4.2719112783	-3.4795219254	-3.4419348301	 0.121072
H	 3.0527881247	-5.3896845341	-2.869788592	 0.239059
14.5778	63.2527	70.722	101.6991	140.5263	175.0589	232.6938	271.4381	323.9539	384.5944	468.8675	526.732	550.7119	729.0805	793.8277	812.5022	881.2672	960.5967	988.9824	1000.7672	1051.3158	1085.0515	1087.5688	1120.5179	1155.2995	1164.3388	1182.4342	1216.2736	1228.2971	1232.469	1257.843	1298.4745	1298.9002	1316.5873	1396.3575	1418.4466	1474.0839	1481.8497	1486.215	1503.5926	1504.7104	1531.5532	2360.6198	2961.4678	2974.6567	2995.057	3015.1275	3031.3149	3067.8332	3113.0995	3115.6318	3136.3155	3203.4741	3503.5592
COCCC#CC1CN1	COCCC#C[C@H]1CN1	
InChI=1S/C7H11NO/c1-9-5-3-2-4-7-6-8-7/h7-8H,3,5-6H2,1H3	InChI=1S/C7H11NO/c1-9-5-3-2-4-7-6-8-7/h7-8H,3,5-6H2,1H3/t7-/m0/s1
