17
gdb 23888	3.08562	1.40191	1.20836	2.1065	57.01	-0.336	0.0818	0.4177	1044.9058	0.137359	-495.392319	-495.383432	-495.382488	-495.426172	31.754	
C	-0.1031275643	 1.5583534725	 0.0623730036	-0.398853
C	 0.0401280852	 0.0345667842	 0.0244571323	-0.1814
C	 0.7736766876	-0.4904865404	-1.2247691131	-0.110374
C	 2.2485066057	-0.0716102415	-1.2916458938	-0.410858
C	 0.658452696	-2.0074580511	-1.2984367004	 0.286124
F	-0.6242636988	-2.4098674702	-1.3198700353	-0.085307
F	 1.2402740214	-2.4981202262	-2.4065521983	-0.085439
F	 1.243767961	-2.6058122654	-0.2452842702	-0.089571
H	 0.8661394864	 2.062954102	 0.1163840383	 0.12199
H	-0.6245848781	 1.9303311475	-0.8267013551	 0.117811
H	-0.6813532463	 1.8666277424	 0.9383695333	 0.120594
H	 0.5713992062	-0.3139353634	 0.9179656159	 0.110771
H	-0.9545607528	-0.4212218204	 0.0587010512	 0.114758
H	 0.2546361872	-0.1226083813	-2.119146014	 0.100984
H	 2.3372785151	 1.0160114875	-1.3310501041	 0.124405
H	 2.792014148	-0.4275476881	-0.4110430144	 0.13125
H	 2.7329127605	-0.4824641781	-2.1803835459	 0.133115
70.0289	77.5011	187.356	203.1777	220.2907	276.593	306.5623	345.3766	397.4772	456.1123	551.5127	571.2044	662.8475	775.5099	807.2432	873.4112	972.556	993.9403	1033.5097	1065.3184	1132.7512	1162.9368	1199.6714	1206.1965	1276.977	1295.8868	1342.264	1364.1799	1398.7809	1412.6847	1420.2443	1489.9178	1494.9032	1502.5749	1510.4909	1513.9319	3033.1903	3036.0384	3043.7456	3053.0421	3079.6495	3104.6817	3112.5103	3124.7844	3134.2715
CCC(C)C(F)(F)F	CC[C@@H](C)C(F)(F)F	
InChI=1S/C5H9F3/c1-3-4(2)5(6,7)8/h4H,3H2,1-2H3	InChI=1S/C5H9F3/c1-3-4(2)5(6,7)8/h4H,3H2,1-2H3/t4-/m1/s1
