19
gdb 59585	3.05979	1.26585	1.09062	1.9622	71.09	-0.2491	0.053	0.3021	1170.2437	0.158252	-460.112533	-460.103906	-460.102962	-460.146033	32.378	
C	 0.0598550569	 1.2822028608	-0.416307936	-0.413427
C	-0.0014369896	-0.1859933808	-0.0066128392	 0.110891
O	 0.6853006609	-0.4451519879	 1.2150933846	-0.432133
C	-1.4363374106	-0.6828034283	 0.1232917052	 0.101207
O	-2.2571693452	-0.4652435317	-1.0628536551	-0.319556
C	-2.6543072753	-1.8488303432	-1.1052590261	 0.070097
C	-1.7185198947	-2.7128273883	-1.9589142897	-0.092372
O	-0.8254730274	-2.9111994297	-0.8299559853	-0.286778
C	-1.7065065717	-2.1991934877	 0.0580527624	 0.04476
H	 1.0999050959	 1.6031448825	-0.5197860378	 0.12367
H	-0.4588733962	 1.4370460424	-1.3660070875	 0.139694
H	-0.4242605471	 1.9185634625	 0.3363337313	 0.10246
H	 0.5048621238	-0.8054580671	-0.7529771537	 0.107817
H	 0.3809712524	 0.1987123981	 1.8646380392	 0.277613
H	-1.914821587	-0.2138639153	 0.9985792023	 0.064354
H	-3.7350987936	-1.9864397011	-1.158819349	 0.090613
H	-2.1436884791	-3.6669346465	-2.295346623	 0.105944
H	-1.2393073951	-2.1951958652	-2.7962851559	 0.115178
H	-1.9297801872	-2.7494489734	 0.9723678932	 0.089968
75.0069	104.3693	153.7233	238.9731	261.6043	292.3703	338.1522	397.2032	419.6702	470.1641	560.5955	726.843	801.729	813.49	881.3915	913.57	946.8771	962.4332	996.1696	1004.2219	1021.7803	1064.846	1075.3527	1077.7337	1120.1474	1160.7751	1177.1652	1194.9524	1225.4527	1263.9004	1280.0055	1297.9498	1316.8611	1338.0708	1356.5256	1399.1393	1408.4712	1420.8232	1492.6132	1496.3532	1502.6106	2972.3423	3019.0661	3022.3254	3075.6451	3083.4704	3100.0233	3101.5589	3114.4729	3130.159	3795.444
CC(O)C1OC2COC12	C[C@@H](O)[C@H]1O[C@H]2CO[C@@H]12	
InChI=1S/C6H10O3/c1-3(7)5-6-4(9-5)2-8-6/h3-7H,2H2,1H3	InChI=1S/C6H10O3/c1-3(7)5-6-4(9-5)2-8-6/h3-7H,2H2,1H3/t3-,4+,5-,6-/m1/s1
