19
gdb 111837	2.49978	1.57481	1.43301	0.5925	76.44	-0.2135	0.0195	0.2329	1032.6511	0.159501	-422.988806	-422.98044	-422.979496	-423.021951	31.336	
C	-0.2389879418	 1.2847752014	 0.2265420789	-0.23869
O	 0.6229463723	 0.2013150371	-0.0838392648	-0.23368
C	 0.9930462014	-0.5127809884	 1.0467053007	 0.065973
C	 0.0845016748	-1.5853217998	 1.5924059408	 0.074294
O	-1.159889938	-1.875654327	 1.0328350857	-0.275788
C	-1.2591269188	-2.1376920021	-0.3693810466	-0.109216
C	-0.0407879107	-2.7498803729	-0.9896334878	-0.082766
C	 1.1620846734	-2.6658421193	-0.4267154766	-0.041588
C	 1.3559879866	-1.9881422017	 0.8735866924	-0.202548
H	 0.2502691871	 2.0058932624	 0.8982491099	 0.106848
H	-0.4736181055	 1.7848369877	-0.7160043978	 0.126303
H	-1.1668564617	 0.9369385833	 0.6984790771	 0.127218
H	 1.5895482946	 0.054105538	 1.766207812	 0.08225
H	 0.0285171745	-1.7191680039	 2.6681424748	 0.102499
H	-2.1203883362	-2.8090454508	-0.4758009815	 0.110177
H	-1.5111283759	-1.205624141	-0.8982351945	 0.111637
H	-0.1846938831	-3.2490797574	-1.9431009307	 0.093131
H	 2.0326743076	-3.1051543231	-0.9038277327	 0.091743
H	 2.1914685193	-2.3350809027	 1.4732310607	 0.092203
87.172	123.3914	140.0761	169.5689	237.1718	296.5412	392.5252	475.5017	538.603	603.9356	675.7505	734.2865	761.145	764.9483	825.0122	905.6819	930.5701	982.6514	1005.592	1025.0992	1037.0532	1071.2269	1089.4381	1112.1744	1127.8159	1173.9199	1185.2855	1198.9439	1225.6576	1265.3481	1277.5883	1347.3528	1360.2075	1400.008	1421.9601	1441.3866	1482.3307	1487.6653	1495.7811	1507.1723	1724.5891	2981.8723	2989.8055	3038.4465	3052.6185	3062.8612	3119.7514	3149.7192	3159.8091	3164.8456	3185.0311
COC1C2OCC=CC12	CO[C@H]1[C@H]2OCC=C[C@@H]12	
InChI=1S/C7H10O2/c1-8-6-5-3-2-4-9-7(5)6/h2-3,5-7H,4H2,1H3	InChI=1S/C7H10O2/c1-8-6-5-3-2-4-9-7(5)6/h2-3,5-7H,4H2,1H3/t5-,6+,7-/m0/s1
