23
gdb 102559	2.41283	1.01156	0.80965	3.1565	82.18	-0.2417	0.0621	0.3038	1504.1566	0.204555	-425.406813	-425.396237	-425.395293	-425.442725	38.937	
C	 1.1736165975	 0.9572230954	-0.6674645103	-0.409153
C	 0.7540693079	-0.4077155395	-0.1653198051	-0.003607
C	 1.7790269775	-1.4749807564	 0.1331873628	-0.31212
C	 0.9679786574	-0.8733171494	 1.2598311606	 0.002581
C	 1.611040653	-0.0118664042	 2.3322184094	-0.04351
C	 0.5640775636	 0.8961738164	 3.0065229741	-0.050408
O	 1.1232271021	 1.897427463	 3.8294626241	-0.43613
C	 2.3191110488	-0.9126373412	 3.3485560815	-0.084229
O	 2.9772033185	-0.0963872969	 4.3231358063	-0.42737
H	 2.122741403	 1.2816844437	-0.2320637108	 0.121909
H	 1.3037113225	 0.9410440451	-1.755226201	 0.116349
H	 0.4234343302	 1.7210535515	-0.4348484397	 0.121924
H	-0.1674691833	-0.7680457106	-0.6161389963	 0.082911
H	 1.5853000148	-2.4987920147	-0.1681990012	 0.107258
H	 2.8239533052	-1.1848199687	 0.0664667335	 0.108511
H	 0.174913136	-1.5111201399	 1.6474414667	 0.078339
H	 2.3704314277	 0.6408567323	 1.8856993787	 0.086893
H	-0.0167097277	 1.4117110088	 2.2338038476	 0.10305
H	-0.1471225542	 0.259027767	 3.5658165001	 0.068571
H	 1.7990361366	 1.4592580329	 4.3639362016	 0.286925
H	 1.5780104806	-1.5680810161	 3.8330292001	 0.089607
H	 3.0473896979	-1.5554317259	 2.834178505	 0.098684
H	 3.2935145342	-0.6601672827	 5.0347582222	 0.293017
51.4414	102.2262	105.9239	141.2216	194.9855	223.7607	241.4894	270.0611	337.5997	359.4184	389.683	415.4828	490.8811	549.5666	558.5601	773.1906	849.0823	859.66	869.856	913.1815	920.0747	981.3787	1027.0404	1047.7933	1067.3367	1089.2884	1092.2404	1113.6196	1128.2878	1152.7711	1166.3457	1200.4664	1222.0668	1239.989	1248.6309	1278.1157	1289.0393	1346.0732	1388.2513	1394.5521	1420.3292	1430.4701	1453.35	1469.8897	1492.1047	1492.7402	1504.0992	1508.5572	1520.3709	2923.7019	2975.5321	3017.7637	3030.8512	3047.7037	3061.6713	3088.2316	3106.7092	3111.825	3120.9647	3136.4595	3205.0491	3746.028	3834.2831
CC1CC1C(CO)CO	C[C@H]1C[C@H]1C(CO)CO	
InChI=1S/C7H14O2/c1-5-2-7(5)6(3-8)4-9/h5-9H,2-4H2,1H3	InChI=1S/C7H14O2/c1-5-2-7(5)6(3-8)4-9/h5-9H,2-4H2,1H3/t5-,7+/m0/s1
