19
gdb 92858	2.92526	1.65471	1.19948	4.2577	75.84	-0.2115	0.0619	0.2735	1060.8161	0.162645	-419.230899	-419.223257	-419.222313	-419.262981	29.486	
C	 0.0161478143	 1.482495995	 0.1208631716	-0.403842
C	-0.0467983111	-0.0457748033	 0.0497162872	 0.000093
C	 0.8305174568	-0.6369133821	-1.1131039551	-0.170468
N	 2.114894463	-1.052002669	-0.5122106011	-0.383029
C	 1.8703536685	-1.0574992533	 0.7328743096	 0.4908
O	 2.7041288641	-1.3120145958	 1.7567968637	-0.260878
C	 1.9493876314	-1.1382841152	 2.9752428714	-0.09465
C	 0.7139851559	-0.3038656938	 2.5704795568	-0.202196
N	 0.5979299006	-0.722583563	 1.1853106378	-0.118483
H	 1.0531064842	 1.8315359513	 0.1705148766	 0.131797
H	-0.4406434517	 1.9094167982	-0.7773377274	 0.124149
H	-0.525588227	 1.8771420404	 0.9866441101	 0.115026
H	-1.0900761698	-0.3656615846	-0.0358667076	 0.081181
H	 0.3357156037	-1.5025150927	-1.572337174	 0.105174
H	 0.9951270412	 0.1025060584	-1.903627198	 0.104709
H	 1.6593065664	-2.1251042514	 3.3517585379	 0.125785
H	 2.5916624001	-0.645534866	 3.7068081012	 0.128699
H	-0.1660341368	-0.5631959332	 3.1663084502	 0.117582
H	 0.906028956	 0.7734643101	 2.6822575691	 0.108552
108.7623	164.6109	216.7901	248.2577	265.977	334.6812	437.7849	477.8092	635.2039	701.6947	725.3109	739.319	786.1004	856.79	893.7756	929.2704	958.6468	968.5393	1016.2457	1072.033	1088.1111	1119.2452	1123.8467	1141.0365	1215.2784	1227.3797	1245.3162	1250.5762	1267.5001	1308.3419	1325.0067	1376.9384	1383.8226	1404.3516	1444.3044	1491.2701	1496.8997	1504.4188	1516.5284	1530.6631	1765.0456	2994.552	3016.6845	3033.2544	3048.9813	3050.6585	3069.4042	3077.4468	3103.5947	3110.4076	3124.4849
CC1CN=C2OCCN12	C[C@H]1C[N][C]2OCCN12	
InChI=1S/C6H10N2O/c1-5-4-7-6-8(5)2-3-9-6/h5H,2-4H2,1H3	InChI=1S/C6H10N2O/c1-5-4-7-6-8(5)2-3-9-6/h5H,2-4H2,1H3/t5-/m0/s1
