22
gdb 94685	2.42651	1.63252	1.18584	2.9218	82.49	-0.2293	0.0707	0.3	1147.4663	0.193479	-404.346799	-404.337398	-404.336454	-404.380143	36.249	
C	 0.1655432435	 1.55906678	-0.0567051262	-0.407873
C	 0.0380908038	 0.0462415476	 0.0304681259	 0.118573
O	 0.6817377453	-0.5237898799	-1.1098431089	-0.271894
C	 1.2216112943	-1.7924543871	-0.7761059474	-0.113112
C	 1.4637514266	-1.7719803999	 0.7238098433	 0.255725
C	 1.6979945202	-3.070451446	 1.4463826146	-0.499223
N	 2.1851652875	-0.5348073591	 1.1151118121	-0.402587
C	 0.707544351	-0.6016038499	 1.2404272267	 0.247501
C	 0.0358895311	-0.5077575252	 2.5836619931	-0.502714
H	 1.2180468445	 1.8431670652	 0.0157900341	 0.139615
H	-0.2319274047	 1.916556769	-1.0104107226	 0.122707
H	-0.3952734655	 2.0435006365	 0.7495091518	 0.104961
H	-1.0290193511	-0.241370277	 0.0424475164	 0.056471
H	 0.5207398843	-2.6080327754	-1.0243367777	 0.080857
H	 2.1374879677	-1.9308054637	-1.3612836438	 0.107331
H	 2.6528512887	-3.5170302872	 1.145486717	 0.130124
H	 1.7278141867	-2.9302079196	 2.5313046194	 0.117298
H	 0.9084291358	-3.7962174374	 1.2225438994	 0.125543
H	 2.5916098737	-0.6788077468	 2.0389172771	 0.217946
H	 0.0398517902	 0.5245742864	 2.9520801559	 0.131001
H	-1.0085603418	-0.8338867207	 2.5260476771	 0.125409
H	 0.5403637584	-1.1266714498	 3.3319165328	 0.11634
122.8128	178.8415	191.0446	203.2433	228.3548	232.1325	249.3968	309.6479	356.3952	430.3965	460.505	531.3122	574.7916	640.5873	675.9133	772.4473	838.9664	882.5315	901.3918	957.9738	992.8564	1009.9626	1047.1375	1077.7815	1093.195	1102.9426	1119.9008	1132.3205	1155.6943	1168.3563	1240.7562	1294.6194	1306.0391	1358.568	1379.5067	1391.8726	1403.9257	1415.6019	1422.8296	1454.612	1480.	1484.7683	1492.5474	1494.8776	1500.0079	1507.8976	1512.9502	2933.5264	2958.4397	3025.946	3028.9318	3042.953	3061.4846	3086.357	3087.2861	3100.3923	3105.4414	3112.6552	3134.3815	3469.4452
CC1OCC2(C)NC12C	C[C@H]1OC[C@@]2(C)N[C@@]12C	
InChI=1S/C7H13NO/c1-5-7(3)6(2,8-7)4-9-5/h5,8H,4H2,1-3H3	InChI=1S/C7H13NO/c1-5-7(3)6(2,8-7)4-9-5/h5,8H,4H2,1-3H3/t5-,6-,7+/m1/s1
