23
gdb 94809	2.77677	1.32156	1.12986	1.3908	85.34	-0.2393	0.085	0.3244	1219.374	0.20573	-388.29115	-388.281841	-388.280897	-388.324976	36.016	
C	-0.4534930259	 1.3495216348	 0.0173659458	-0.413356
C	 0.050485869	-0.076161031	 0.1579162111	 0.152428
O	 0.7653567471	-0.4257492611	-1.0317745843	-0.27809
C	 1.6209930196	-1.5305197488	-0.7518894019	-0.135444
C	 1.6190866957	-1.6991824134	 0.769607216	 0.359221
C	 1.248922277	-3.0244516193	 1.3867575677	-0.322467
C	 2.6648752705	-2.5046916566	 1.4830873287	-0.338647
C	 1.0387748376	-0.3893838199	 1.3031389769	-0.098763
C	 2.1062327872	 0.6918946329	 1.5117980044	-0.399492
H	 0.3721058167	 2.0494830193	-0.1331399458	 0.124168
H	-1.1227022044	 1.4255961282	-0.8442697306	 0.124418
H	-1.0111709435	 1.6488673936	 0.9106203628	 0.11132
H	-0.8171688114	-0.7495033082	 0.2713543808	 0.061391
H	 1.2605075543	-2.4365849202	-1.2606076514	 0.091764
H	 2.6182675231	-1.2964599064	-1.1468801263	 0.099097
H	 0.6430626831	-3.0226637155	 2.2874792492	 0.11012
H	 1.0576475792	-3.8616010975	 0.7223760187	 0.110033
H	 3.4306860354	-2.9927161018	 0.8878100217	 0.111625
H	 3.0160317204	-2.1540948477	 2.4484631	 0.112243
H	 0.4976278012	-0.5547892315	 2.2411613857	 0.066603
H	 2.6106263415	 0.9370237782	 0.571808594	 0.127838
H	 1.6717593668	 1.6136162721	 1.910606661	 0.11304
H	 2.8670677797	 0.3503225797	 2.2201213957	 0.110949
63.7625	119.3585	208.1515	218.6274	235.2836	256.9673	286.2618	306.949	380.314	441.8239	496.7322	568.2849	673.1111	763.7963	783.4695	799.4539	863.9416	881.4228	928.5936	936.9105	978.8389	996.0797	1027.5974	1049.3624	1056.0696	1059.5013	1080.302	1106.6199	1113.8075	1158.3873	1172.9397	1189.3655	1219.5358	1245.6157	1288.7503	1335.4896	1340.06	1373.7172	1386.8001	1405.5379	1411.8522	1416.3803	1468.5206	1481.5212	1494.8991	1498.8335	1505.7971	1510.6735	1527.8802	2941.8701	2989.9465	3027.7861	3037.7366	3043.6842	3047.3557	3104.5145	3109.9612	3113.5283	3118.4654	3122.8366	3126.6899	3195.7158	3210.9275
CC1OCC2(CC2)C1C	C[C@H]1OCC2(CC2)[C@H]1C	
InChI=1S/C8H14O/c1-6-7(2)9-5-8(6)3-4-8/h6-7H,3-5H2,1-2H3	InChI=1S/C8H14O/c1-6-7(2)9-5-8(6)3-4-8/h6-7H,3-5H2,1-2H3/t6-,7+/m0/s1
