19
gdb 76877	2.38194	1.89631	1.5721	1.2044	73.63	-0.2409	0.0117	0.2525	949.1716	0.160573	-423.01834	-423.010553	-423.009609	-423.050164	31.204	
C	-0.1428777621	 1.577059629	 0.0175363515	-0.401798
C	 0.0576634953	 0.0640724108	 0.0273354653	 0.000798
C	 0.9287540016	-0.5309591384	-1.1350830456	 0.004228
O	 1.2465690246	-1.8233292443	-0.5907374502	-0.248063
C	 1.9574400719	-1.3370105133	 0.5516914059	-0.033559
C	 2.9229528472	-0.3322412574	-0.0608135853	-0.059741
C	 2.2832037733	 0.1626515436	-1.1203922022	-0.079041
C	 0.8217192212	-0.5121623767	 1.2636646664	 0.092574
O	 1.2853705821	 0.5186565803	 2.1166449701	-0.422601
H	 0.8083744859	 2.1096481645	 0.0785411566	 0.129261
H	-0.6589121689	 1.8883209169	-0.8975979552	 0.102779
H	-0.7494528366	 1.8937568209	 0.8703225952	 0.121479
H	-0.9180295598	-0.4272766491	-0.0306318312	 0.079355
H	 0.420495845	-0.630414165	-2.0938700618	 0.07619
H	 2.3772957869	-2.1619018658	 1.1283264994	 0.070741
H	 3.8752330271	-0.0351780329	 0.3547740909	 0.104618
H	 2.5892073122	 0.9603917012	-1.782857678	 0.105384
H	 0.1734549614	-1.2037286565	 1.815773207	 0.072881
H	 1.5971573214	 0.1153758821	 2.9320999415	 0.284516
125.5901	200.9312	221.342	247.8454	261.2215	340.5311	477.8538	510.9989	552.1883	565.3387	702.4889	739.4955	763.857	797.4688	834.8595	881.5334	915.2914	919.7431	940.8655	965.2592	985.5543	1018.9592	1064.0213	1080.3726	1109.2969	1130.0303	1157.7541	1184.7193	1240.0012	1252.8356	1264.3243	1293.7438	1319.9802	1350.1568	1351.1217	1366.8913	1406.4452	1424.8522	1490.1945	1501.6654	1643.0293	3015.8917	3039.2855	3058.601	3105.807	3113.0862	3123.5729	3132.928	3220.2943	3246.0486	3827.4156
CC1C2OC(C=C2)C1O	C[C@H]1[C@@H]2O[C@@H](C=C2)[C@H]1O	
InChI=1S/C7H10O2/c1-4-5-2-3-6(9-5)7(4)8/h2-8H,1H3	InChI=1S/C7H10O2/c1-4-5-2-3-6(9-5)7(4)8/h2-8H,1H3/t4-,5+,6-,7-/m0/s1
