21
gdb 68927	2.31958	1.70913	1.22583	0.6482	78.15	-0.2361	0.074	0.31	1096.1333	0.182888	-424.219124	-424.210411	-424.209467	-424.251784	34.572	
C	 0.0240943398	 1.5378200902	-0.0092897061	-0.462915
C	 0.0189137168	 0.0224278685	 0.0169356703	 0.299201
C	 1.3476463512	-0.6921552452	-0.2006308868	-0.389784
C	 0.706363195	-0.688385125	 1.161058763	 0.324922
O	 1.2525775869	 0.1171584902	 2.1719272524	-0.462751
C	 0.0893126892	-1.971824981	 1.6929836791	-0.146463
O	-0.7015154964	-2.6359971898	 0.7280685152	-0.241014
C	-1.7533123342	-1.7974018689	 0.2736839131	-0.074592
C	-1.2317527214	-0.6373812147	-0.57955853	-0.290606
H	 0.9273424297	 1.9407165255	 0.452104807	 0.126435
H	-0.0339424638	 1.9040838364	-1.0410140533	 0.110796
H	-0.8363592253	 1.9425546435	 0.5360923203	 0.114029
H	 1.3412115331	-1.6220355407	-0.7611626781	 0.116362
H	 2.2280717229	-0.0719778752	-0.335903935	 0.10385
H	 2.1106917642	-0.2496497823	 2.411481594	 0.284206
H	 0.8692499267	-2.6809373483	 1.9962184138	 0.095936
H	-0.5099212604	-1.7219108675	 2.5848839485	 0.094344
H	-2.4313045031	-2.4348093979	-0.3012729172	 0.10497
H	-2.3109555877	-1.4078858198	 1.1416274081	 0.089358
H	-2.0299017804	 0.1075119567	-0.6772376626	 0.098019
H	-1.0109181028	-0.9935651049	-1.5926225356	 0.105699
115.5622	171.9851	205.7834	255.9074	278.6167	322.4865	359.0552	380.636	414.991	429.9343	506.7443	514.436	607.3334	678.8666	731.342	853.172	873.348	920.0719	936.0702	953.8179	976.1968	1033.1879	1041.9349	1051.337	1089.0258	1124.4915	1149.8786	1175.6692	1197.1026	1254.761	1260.3476	1294.8168	1305.0292	1326.1831	1364.9819	1387.3083	1404.4522	1414.3546	1423.0485	1475.6974	1487.0208	1493.0871	1496.4672	1502.559	1507.3033	2964.0384	2969.2262	3024.9569	3030.0202	3048.3092	3067.6273	3081.368	3085.1876	3120.2144	3132.5774	3212.8251	3795.8488
CC12CC1(O)COCC2	C[C@@]12C[C@]1(O)COCC2	
InChI=1S/C7H12O2/c1-6-2-3-9-5-7(6,8)4-6/h8H,2-5H2,1H3	InChI=1S/C7H12O2/c1-6-2-3-9-5-7(6,8)4-6/h8H,2-5H2,1H3/t6-,7+/m1/s1
