17
gdb 96811	2.20077	1.50794	0.92898	2.11	72.11	-0.2575	-0.0123	0.2451	1230.8475	0.136089	-455.191771	-455.182799	-455.181854	-455.226039	32.	
C	 0.0498057326	 1.3665568473	 0.0732287716	-0.33992
N	 0.1028762975	-0.0846955551	 0.0025149432	-0.308343
C	 0.528856168	-0.6663806097	-1.0207181454	 0.405602
O	 0.9869264979	-0.0305169224	-2.173494298	-0.223546
C	 1.6238228333	-0.929752222	-3.0129059623	 0.413124
O	 2.0514631321	-0.5938609913	-4.0720951702	-0.306261
C	 1.6675275233	-2.286949479	-2.3336988549	-0.358966
C	 0.6335330968	-2.1788716356	-1.2068696924	-0.080527
N	 0.9470485801	-2.9602764084	-0.0237367104	-0.507169
H	 0.5036724665	 1.8746922529	-0.7839275409	 0.135616
H	-0.9974763948	 1.6779139266	 0.154625748	 0.136463
H	 0.5493948837	 1.6923921906	 0.9914033694	 0.13232
H	 1.4894102298	-3.0858979828	-3.053033305	 0.153963
H	 2.6757152769	-2.4291601871	-1.9254993637	 0.14835
H	-0.3388918005	-2.523141837	-1.582858214	 0.123284
H	 1.8088886918	-2.6099128334	 0.389234317	 0.228655
H	 0.2293185251	-2.7842059236	 0.674966958	 0.247357
79.0661	91.4009	125.454	177.8729	202.5313	232.9924	286.4073	400.848	477.6771	526.1469	579.3073	591.1247	625.3753	730.7113	792.5498	904.4979	930.6187	952.5514	981.4454	1050.5425	1103.9187	1130.6577	1135.3169	1161.9033	1173.6111	1235.8547	1260.6339	1302.7266	1310.2418	1419.917	1439.5793	1462.2119	1492.5448	1496.5618	1670.6947	1813.684	1919.3579	3025.6967	3026.1275	3052.7211	3089.1422	3101.9055	3140.8712	3478.507	3552.5888
CN=C1OC(=O)CC1N	CN=C1OC(=O)C[C@H]1N	
InChI=1S/C5H8N2O2/c1-7-5-3(6)2-4(8)9-5/h3H,2,6H2,1H3	InChI=1S/C5H8N2O2/c1-7-5-3(6)2-4(8)9-5/h3H,2,6H2,1H3/t3-/m1/s1
