22
gdb 116958	3.7726	0.61372	0.57103	1.7544	91.97	-0.2323	0.0469	0.2792	2046.8804	0.192872	-367.157924	-367.147403	-367.146459	-367.196087	37.104	
C	-0.0558132143	 0.9279376585	-0.9360636881	-0.38217
C	-0.2233630766	-0.5602849219	-0.6240140961	-0.154448
C	-1.3888493702	-0.8282317121	 0.3500646197	-0.336026
C	-1.5654684162	-2.2407717553	 0.6707716387	-0.001729
C	-1.6832324948	-3.4100542162	 0.9423273417	 0.117355
C	-1.8471588213	-4.8373597003	 1.2391124277	-0.282092
N	-2.2719801348	-5.7120757271	 0.1363637577	-0.073888
C	-3.2074687363	-5.1850394201	-0.8500399733	-0.217306
C	-1.7811403235	-5.4272017892	-1.2067825756	-0.217738
H	 0.7740725333	 1.0951938678	-1.6290555651	 0.115816
H	-0.9607110522	 1.342907745	-1.3939954247	 0.116198
H	 0.1485152971	 1.5040393054	-0.0266643487	 0.116499
H	-0.3991083761	-1.1217463595	-1.5486079742	 0.107963
H	 0.6991197895	-0.9618886601	-0.1901758749	 0.109622
H	-1.2211826474	-0.2651687009	 1.2784118043	 0.127887
H	-2.3180165775	-0.4275517109	-0.077511697	 0.125205
H	-0.901168157	-5.2411554371	 1.6208173922	 0.132706
H	-2.5822238103	-4.9584866672	 2.0445829551	 0.133308
H	-3.9853370583	-5.8741313274	-1.166676294	 0.112645
H	-3.5137731855	-4.1452364582	-0.7604013286	 0.119173
H	-1.1615724177	-4.5445969128	-1.3492497955	 0.118391
H	-1.4928038997	-6.2973077604	-1.7898857914	 0.112629
11.3224	62.0534	72.8237	110.8256	133.3473	240.122	263.7731	294.9692	331.2135	362.5068	384.4135	462.4923	587.1971	742.5613	753.0444	785.6653	834.3683	871.7577	874.6283	894.2609	985.0152	1024.7351	1041.3053	1063.6739	1108.6471	1114.6374	1121.2846	1125.2526	1148.161	1173.7309	1187.0508	1259.763	1288.2135	1305.1958	1311.0926	1322.4898	1361.4265	1381.4638	1413.3598	1469.488	1471.7818	1482.0215	1491.7992	1499.2124	1508.8735	1512.901	2351.4798	3009.3795	3023.2499	3030.3016	3035.686	3040.8661	3053.8579	3073.0912	3100.5073	3102.9373	3105.4833	3106.4854	3184.1541	3197.6703
CCCC#CCN1CC1	CCCC#CCN1CC1	
InChI=1S/C8H13N/c1-2-3-4-5-6-9-7-8-9/h2-3,6-8H2,1H3	InChI=1S/C8H13N/c1-2-3-4-5-6-9-7-8-9/h2-3,6-8H2,1H3
