19
gdb 58705	1.90653	1.74858	1.13848	4.2264	75.34	-0.2445	0.0154	0.2599	1134.762	0.158503	-419.194456	-419.184965	-419.184021	-419.228431	35.205	
C	 0.0096288349	 1.4961924718	 0.2650642982	-0.433666
C	-0.0908534267	-0.0140326121	 0.0628419722	 0.05956
O	 0.5590192778	-0.7265076764	 1.1049828516	-0.429676
C	-1.5558763102	-0.5123379744	-0.1003708535	 0.167661
C	-1.6916954273	-2.0699514132	-0.0569249847	-0.280476
C	-2.2915159223	-1.8890284935	 1.3578336136	-0.152808
N	-2.4166859968	-0.4333018009	 1.1028479158	-0.341807
C	-2.1537266266	 0.1313758718	-1.2802896628	 0.276577
N	-2.5974536975	 0.6303442784	-2.2241137335	-0.351246
H	 1.0582937878	 1.7844761822	 0.3723160714	 0.135091
H	-0.4212328918	 2.0405822906	-0.5785835407	 0.158739
H	-0.5223542716	 1.8116868532	 1.172419892	 0.110268
H	 0.4413862599	-0.2934615155	-0.8544356807	 0.10988
H	 0.3432734376	-0.30040453	 1.9410270583	 0.282446
H	-2.3933219348	-2.4596527308	-0.7937729691	 0.129552
H	-0.745364872	-2.6052123758	-0.1142942006	 0.133369
H	-3.2521137596	-2.3769975529	 1.5486872867	 0.111796
H	-1.5877398392	-2.1588925258	 2.1519879237	 0.10337
H	-2.1071106817	 0.1987946032	 1.8326493422	 0.211371
87.0659	132.608	159.0612	191.1528	224.2308	241.7879	255.951	285.5733	370.088	444.3236	510.4478	531.8677	561.0808	602.1377	677.6696	775.6788	875.7175	904.5512	931.1489	966.6975	997.3056	1020.6163	1059.5233	1080.4024	1136.1727	1147.2154	1182.4038	1186.1583	1222.8972	1267.5231	1299.5212	1316.7561	1357.4137	1378.7263	1407.6464	1415.5266	1476.3876	1490.8579	1496.7753	1519.7463	2348.2317	3023.8967	3036.6803	3044.613	3080.6583	3102.7124	3103.2288	3136.1185	3167.1586	3529.8745	3813.1444
CC(O)C1(CCN1)C#N	C[C@@H](O)[C@]1(CCN1)C#N	
InChI=1S/C6H10N2O/c1-5(9)6(4-7)2-3-8-6/h5,8-9H,2-3H2,1H3	InChI=1S/C6H10N2O/c1-5(9)6(4-7)2-3-8-6/h5,8-9H,2-3H2,1H3/t5-,6+/m1/s1
