22
gdb 16016	3.50088	1.73548	1.40483	0.1784	81.45	-0.2589	0.0841	0.3429	989.8003	0.203403	-313.087163	-313.079733	-313.078789	-313.118348	30.622	
C	 0.0101206743	 1.5314485783	 0.010187035	-0.337454
C	 1.3175876223	 0.7727003922	-0.0064200285	-0.300027
C	 0.0029363726	 0.0272720335	 0.0021823998	 0.419548
C	-0.3937797023	-0.7142754601	 1.2702932423	-0.266828
C	 0.1269438377	-2.1608554068	 1.2578731295	-0.188003
C	-0.3204257936	-2.9025384947	-0.0104550737	-0.177423
C	 0.1026310638	-2.1472303216	-1.2790855617	-0.188004
C	-0.418085372	-0.7006540687	-1.2659855886	-0.266827
H	-0.271373833	 2.0418280196	 0.9260994806	 0.104947
H	-0.2888334276	 2.0516089235	-0.8946226282	 0.104947
H	 1.9007968432	 0.7819383139	-0.9219291633	 0.105119
H	 1.9182530746	 0.7721765303	 0.8977786022	 0.105119
H	-0.0222403201	-0.1801188864	 2.1524335046	 0.084548
H	-1.4906169656	-0.7270545196	 1.3518665813	 0.089397
H	 1.2243359345	-2.1482163451	 1.3006544391	 0.093804
H	-0.2166951685	-2.6930469767	 2.1520595413	 0.086274
H	 0.0880421628	-3.9192680625	-0.0198298753	 0.087292
H	-1.4148152455	-3.0062875839	-0.0005241372	 0.089547
H	 1.1990031831	-2.1340194737	-1.342751596	 0.093804
H	-0.2581360909	-2.6698237292	-2.1721856272	 0.086274
H	-1.5162860366	-0.7126682482	-1.3266563327	 0.089397
H	-0.0634646532	-0.1570140042	-2.1492948934	 0.084548
126.224	193.2824	284.09	290.5674	362.4251	381.8199	444.7365	451.2248	546.4283	688.2629	783.9301	797.2995	828.9403	850.9762	875.7545	912.3209	915.7937	947.5001	969.611	976.1165	1017.8047	1039.4119	1055.3878	1079.9763	1080.5109	1116.3026	1143.417	1168.0337	1190.9151	1227.7493	1278.7233	1285.5219	1315.4809	1348.9889	1363.9752	1368.7476	1374.5353	1379.2075	1407.8477	1468.1983	1478.1099	1484.0881	1485.9725	1489.5675	1504.4478	1509.7967	2997.698	3002.4378	3007.62	3016.9926	3018.4746	3053.5038	3055.6101	3061.4315	3062.4342	3068.6377	3119.1898	3124.1204	3195.4095	3209.9953
C1CC11CCCCC1	C1CC21CCCCC2	
InChI=1S/C8H14/c1-2-4-8(5-3-1)6-7-8/h1-7H2	InChI=1S/C8H14/c1-2-4-8(5-3-1)6-7-8/h1-7H2
