14
gdb 132802	2.41473	1.81944	1.03835	1.557	68.98	-0.2059	-0.0021	0.2039	1042.0624	0.10195	-478.034143	-478.026623	-478.025679	-478.065768	29.449	
N	-0.0589908622	 1.3911733914	-0.1584088594	-0.564897
C	-0.0223500399	 0.0170927841	-0.0712829432	 0.316612
N	-1.1764237835	-0.6455227709	 0.009273754	-0.345645
C	-1.1460423365	-1.9826843616	 0.0372340248	-0.011305
C	 0.0179620672	-2.7363238979	-0.0036273477	-0.277806
C	 1.2089404639	-2.0241398354	-0.0745121178	 0.20672
F	 2.3980778501	-2.6513874596	-0.1073612745	-0.093059
C	 1.221895172	-0.6445380757	-0.1114852197	 0.182384
O	 2.3684711508	 0.0948015263	-0.1743718792	-0.459221
H	 0.7779380774	 1.8790808713	 0.1194099186	 0.263437
H	-0.9269215812	 1.8014474243	 0.1502429933	 0.257277
H	-2.1109505535	-2.4779282994	 0.0997717246	 0.10991
H	 0.0175437533	-3.8178809746	 0.024420902	 0.110643
H	 3.1169512821	-0.5136567324	-0.1740113559	 0.30495
148.7753	251.9364	283.6507	302.4597	310.7803	375.948	428.3921	493.5075	507.0598	547.9518	564.3671	566.3321	628.2848	722.8961	779.9359	798.6596	856.1293	948.8566	1008.7125	1060.3427	1133.7968	1237.3056	1303.2957	1323.6321	1343.7114	1382.2566	1511.2431	1532.9123	1621.2968	1628.0458	1670.5804	3166.0034	3222.199	3583.3759	3703.1115	3803.3439
NC1=NC=CC(F)=C1O	Nc1nccc(F)c1O	
InChI=1S/C5H5FN2O/c6-3-1-2-8-5(7)4(3)9/h1-2,9H,(H2,7,8)	InChI=1S/C5H5FN2O/c6-3-1-2-8-5(7)4(3)9/h1-2,9H,(H2,7,8)
