16
gdb 28333	4.84605	1.25957	1.0182	3.7683	71.56	-0.1731	0.0527	0.2258	1114.2306	0.128302	-434.102718	-434.09552	-434.094576	-434.134201	28.081	
O	-0.0099588743	 1.2998452227	-0.0151532821	-0.437943
C	 0.025644416	-0.0497874278	-0.0713217347	 0.345259
C	-0.0889241729	-0.8291412361	-1.1931038499	-0.276226
N	-0.0729017173	-2.1339603968	-0.6796848412	-0.01099
C	 0.1323720868	-3.4924931563	-1.1395295553	-0.177566
C	-0.0376934263	-4.2608400761	 0.2004848684	-0.175387
N	 0.3810609449	-3.275026277	 1.2191662616	-0.399666
C	 0.1314780722	-2.0278268913	 0.6512690374	 0.451078
N	 0.175084087	-0.7900716474	 1.0868246077	-0.478555
H	 0.1207214214	 1.529245313	 0.9126814305	 0.298683
H	-0.2574147952	-0.5991755344	-2.2287601547	 0.12195
H	-0.6002570737	-3.801009952	-1.8895470239	 0.125964
H	 1.1394496627	-3.6234891315	-1.5579726771	 0.124607
H	-1.0892816596	-4.5535786442	 0.3257450709	 0.114321
H	 0.5824145445	-5.1586190445	 0.2430003144	 0.123061
H	 0.0004224336	-3.4125941404	 2.145514488	 0.251409
121.4947	195.1622	276.7924	313.9726	318.94	363.497	513.7076	558.6397	596.1872	616.3908	682.4144	716.0741	743.0523	804.2093	858.5358	907.7973	949.7804	1011.5181	1056.7564	1122.8974	1147.6288	1153.8649	1208.8872	1226.0786	1265.0115	1310.4178	1331.5167	1371.7918	1394.9346	1422.2417	1498.1596	1520.6314	1547.2075	1621.9554	1658.0839	3006.6039	3014.0741	3089.7872	3104.7532	3302.8144	3586.8845	3806.7888
OC1=CN2CCNC2=N1	Oc1cn2CCNc2n1	
InChI=1S/C5H7N3O/c9-4-3-8-2-1-6-5(8)7-4/h3,9H,1-2H2,(H,6,7)	InChI=1S/C5H7N3O/c9-4-3-8-2-1-6-5(8)7-4/h3,9H,1-2H2,(H,6,7)
