20
gdb 99628	2.64956	1.09647	0.88281	1.7926	81.22	-0.2443	0.0435	0.2879	1372.3035	0.168999	-403.080067	-403.069958	-403.069014	-403.115552	37.037	
C	-0.0849854939	 1.4866384879	-0.3274162791	-0.408689
C	-0.0875545563	 0.0282237674	 0.0630710348	-0.008829
N	 1.1696686177	-0.7305607021	-0.0599287786	-0.331481
C	 0.5693225054	-0.5539168418	 1.2671640678	-0.01393
C	 1.3530176562	 0.1792947171	 2.354813391	-0.193433
C	 2.1114426525	-0.8602551488	 3.2270051698	-0.05458
O	 2.7947253348	-0.2739584555	 4.3088947499	-0.425217
C	 2.3187668478	 1.1736789704	 1.8935901842	 0.307119
C	 3.1896891608	 1.9609474762	 1.6283797921	-0.453257
H	 0.8482277335	 1.9738848612	-0.0458678651	 0.147178
H	-0.2100143433	 1.585859991	-1.4112005374	 0.117291
H	-0.9160756158	 2.0138990513	 0.1541803601	 0.113279
H	-0.9946134066	-0.4988029208	-0.2360034792	 0.081131
H	 1.0032214298	-1.6677367066	-0.4143762005	 0.230932
H	 0.0480359737	-1.4138866192	 1.6902527173	 0.082392
H	 0.6314198186	 0.6807863046	 3.0153045507	 0.115869
H	 1.384069662	-1.5544014454	 3.6606859113	 0.105888
H	 2.7850359647	-1.4356522415	 2.5734570731	 0.103104
H	 3.3919004644	 0.3878202563	 3.938207629	 0.284993
H	 3.9282250439	 2.6698007484	 1.344903109	 0.200241
35.7148	118.5657	143.5741	149.4283	176.0488	208.3043	241.0816	328.3344	390.1015	404.4207	426.4584	477.9063	570.2478	627.4666	655.5982	666.6424	775.7513	812.7106	838.4821	893.781	974.9617	1006.6528	1033.2127	1055.3966	1062.508	1095.3549	1099.3936	1154.2219	1202.5894	1210.0125	1257.125	1268.7618	1287.8952	1360.1221	1381.9512	1400.3407	1423.1739	1437.9878	1469.4883	1495.7851	1503.496	1506.6956	2223.934	2987.4364	3013.6479	3036.7701	3074.26	3085.66	3092.4499	3097.3762	3157.5069	3500.7313	3510.5651	3774.0633
CC1NC1C(CO)C#C	C[C@H]1N[C@H]1[C@@H](CO)C#C	
InChI=1S/C7H11NO/c1-3-6(4-9)7-5(2)8-7/h1,5-9H,4H2,2H3	InChI=1S/C7H11NO/c1-3-6(4-9)7-5(2)8-7/h1,5-9H,4H2,2H3/t5-,6-,7-/m1/s1
