20
gdb 30818	2.40728	1.24676	0.8732	1.1337	84.91	-0.1619	0.0549	0.2168	1369.7847	0.171597	-399.361086	-399.35075	-399.349806	-399.396958	37.272	
C	 0.1792063108	 1.5670715794	-0.2212009765	-0.362073
C	-0.0224168921	 0.0600079205	 0.0310264308	-0.309098
C	 0.6378121184	-0.4599835166	 1.2650865741	 0.263202
C	 0.1032982619	-0.8120917628	 2.4876544034	 0.167917
N	-1.2780130918	-0.7767457935	 2.813526794	-0.614458
C	 1.1677498316	-1.2842644359	 3.3162380226	-0.293606
C	 2.3297477676	-1.1952618099	 2.579786534	 0.27507
N	 3.6843495373	-1.4623515213	 2.8792668397	-0.611941
N	 2.0039467001	-0.6884006698	 1.351448251	-0.32603
H	 1.2410755238	 1.8136916306	-0.3292666527	 0.106958
H	-0.3327177359	 1.8869189719	-1.1352119959	 0.106917
H	-0.2093297383	 2.1592029007	 0.6134717671	 0.113613
H	-1.0933155163	-0.1558351099	 0.1161269805	 0.117983
H	 0.3309862329	-0.4975545945	-0.848126849	 0.094883
H	-1.652787915	 0.1649472953	 2.7903365973	 0.235756
H	-1.4390884775	-1.1435141699	 3.7433372461	 0.231999
H	 1.0822205523	-1.6649547558	 4.3238662271	 0.069011
H	 3.8315910894	-1.4633738309	 3.8813613158	 0.242976
H	 3.9829909849	-2.369294276	 2.5296305282	 0.240489
H	 2.6872025657	-0.4346412315	 0.6590942525	 0.250431
53.9062	63.5734	114.6084	130.2862	184.2537	215.9474	268.0116	283.5488	318.3549	394.6012	444.4427	505.8168	600.9704	618.6662	656.5922	685.5509	740.1765	771.7329	801.4684	823.3654	837.1772	961.3664	1030.7604	1061.2619	1075.9377	1090.3327	1163.3634	1193.7425	1214.0191	1247.4288	1303.6614	1356.4375	1358.6965	1405.8181	1470.1418	1479.9849	1489.0694	1495.5296	1504.6958	1561.4927	1640.4938	1651.5767	1669.4222	3001.7913	3027.7479	3064.7151	3096.5056	3103.9354	3230.5604	3479.07	3514.7746	3587.6045	3600.3219	3677.2675
CCC1=C(N)C=C(N)N1	CCc1c(N)cc(N)[nH]1	
InChI=1S/C6H11N3/c1-2-5-4(7)3-6(8)9-5/h3,9H,2,7-8H2,1H3	InChI=1S/C6H11N3/c1-2-5-4(7)3-6(8)9-5/h3,9H,2,7-8H2,1H3
