20
gdb 95393	2.22263	1.68426	0.99666	4.6604	84.24	-0.207	-0.0244	0.1827	1211.3141	0.171793	-403.200041	-403.190924	-403.18998	-403.233606	34.32	
C	-0.2070397286	 1.5158831592	-0.0096455136	-0.395009
C	 0.0106627581	 0.004310225	 0.0264199096	-0.096023
C	 0.6931388841	-0.5136814472	-1.2416655419	-0.178861
N	 0.9082878391	-1.9515506902	-1.1403055851	-0.303078
C	 1.448061411	-2.4208714166	 0.0261664914	-0.060054
C	 1.4612456872	-1.7371632277	 1.1997929249	 0.159427
C	 2.0814334482	-2.2936426707	 2.4522380303	-0.478096
C	 0.7929713729	-0.4382905559	 1.2795998355	 0.302764
O	 0.7800831449	 0.2337572302	 2.2991645531	-0.357398
H	 0.7379378405	 2.042861492	-0.1820994055	 0.116709
H	-0.9044504362	 1.7959876894	-0.8054002346	 0.103146
H	-0.6015803097	 1.857098609	 0.9484296814	 0.144422
H	-0.9660698742	-0.4990721185	 0.1049406327	 0.103632
H	 0.0806999772	-0.3061224276	-2.124193911	 0.110764
H	 1.6565127525	 0.0113302831	-1.3686739	 0.102094
H	 1.2055511872	-2.4178774731	-1.9828346517	 0.247187
H	 1.8643795507	-3.4235293536	-0.034654638	 0.110796
H	 2.4994205598	-3.2902399319	 2.2806902263	 0.103038
H	 2.8838292276	-1.6436693209	 2.8176164026	 0.132908
H	 1.348043698	-2.3592945542	 3.2632442637	 0.131631
85.8816	136.6813	176.1204	188.0311	253.5059	273.2464	311.106	359.2799	421.0901	441.0542	461.7888	528.6291	558.0964	645.9838	755.9266	813.1456	895.2491	917.8054	942.3043	966.55	1026.855	1046.0736	1069.7852	1104.2953	1141.5693	1156.4512	1233.5827	1235.5109	1278.1071	1310.2624	1349.4796	1378.084	1403.7475	1417.0318	1418.8503	1470.8756	1489.5333	1493.7973	1497.2521	1500.0077	1522.2359	1686.9648	1742.0013	2949.9335	2990.5224	3030.6628	3038.5486	3076.4838	3084.3094	3100.4563	3106.5872	3143.0645	3161.1684	3622.7301
CC1CNC=C(C)C1=O	C[C@H]1CNC=C(C)C1=O	
InChI=1S/C7H11NO/c1-5-3-8-4-6(2)7(5)9/h3,6,8H,4H2,1-2H3	InChI=1S/C7H11NO/c1-5-3-8-4-6(2)7(5)9/h3,6,8H,4H2,1-2H3/t6-/m0/s1
