17
gdb 126439	2.70447	1.5113	0.98105	3.8964	79.53	-0.2262	-0.0346	0.1916	1176.5283	0.138016	-414.208134	-414.199896	-414.198952	-414.241449	30.565	
C	-0.0449430813	 1.5445125091	 0.0662880371	-0.382979
C	 0.033432543	 0.0245492022	-0.0584412969	-0.248098
C	 0.7333624008	-0.485304169	-1.2845054849	 0.32365
N	 1.2082039341	 0.3667515361	-2.1332584498	-0.265886
N	 1.8313225372	-0.16200069	-3.2248555724	-0.229762
C	 1.9582122119	-1.4931674651	-3.4309758303	 0.114211
N	 1.5123296648	-2.398664213	-2.6320173539	-0.329317
C	 0.8528752234	-1.9533000706	-1.4742884476	 0.28075
N	 0.357806026	-2.7382920868	-0.5925934182	-0.525045
H	 0.9510210695	 1.9952067692	 0.0927751505	 0.122728
H	-0.5801766596	 1.9878320623	-0.7779438445	 0.122807
H	-0.5693902549	 1.8175714705	 0.9862884759	 0.110354
H	 0.534061287	-0.4220771193	 0.809885846	 0.136646
H	-0.9657274525	-0.4290146244	-0.0433571266	 0.136527
H	 2.1935369437	 0.5176256989	-3.8730762591	 0.279079
H	 2.4793381434	-1.772134279	-4.3462296956	 0.136927
H	 0.5281783935	-3.7045777211	-0.8805552297	 0.217407
64.7807	87.3323	198.2747	211.2677	297.7636	343.5867	407.9588	469.9378	507.2139	554.9494	581.1432	599.8806	745.371	746.2281	828.0524	910.0734	919.621	969.4182	993.0063	1015.0914	1059.4599	1100.0991	1100.7344	1197.8791	1243.2315	1270.8151	1347.8874	1393.7951	1414.2566	1424.8824	1450.3043	1493.9261	1499.8534	1508.6489	1650.9365	1660.6544	1688.8092	3038.3507	3046.9644	3056.6134	3117.6585	3118.8065	3140.5125	3454.6643	3651.524
CCC1=NNC=NC1=N	CCC1=NNCN=C1[NH]	
InChI=1S/C5H8N4/c1-2-4-5(6)7-3-8-9-4/h3H,2H2,1H3,(H2,6,7,8)	InChI=1S/C5H9N4/c1-2-4-5(6)7-3-8-9-4/h6,8H,2-3H2,1H3
