16
gdb 15057	2.83753	1.7267	1.21224	2.716	65.4	-0.2581	0.0057	0.2639	999.1081	0.130195	-379.88709	-379.878683	-379.877739	-379.920451	29.205	
C	-0.3600998272	 1.4978108661	 0.0499232519	-0.251141
O	-0.5373239733	 0.2006233991	 0.5980217331	-0.237833
C	-1.6097667178	-0.5241090083	 0.0479013909	-0.046226
C	-1.358320524	-0.8770538697	-1.3696428255	 0.272968
N	-1.16044499	-1.142764865	-2.4766278567	-0.320193
C	-1.8301887895	-1.7878477523	 0.8732664116	-0.004198
C	-0.6772129855	-2.5030352761	 1.4637985912	-0.225643
N	-1.6139603624	-1.743190602	 2.3182433589	-0.330096
H	 0.4707537333	 1.9535885809	 0.5908095131	 0.143585
H	-0.1155050754	 1.4517775113	-1.018752168	 0.142137
H	-1.2616458885	 2.1121074354	 0.1848033994	 0.12001
H	-2.5298248232	 0.0847828303	 0.0715372104	 0.120594
H	-2.70604259	-2.3477809921	 0.5553875467	 0.114432
H	-0.7176001649	-3.5813509946	 1.5811777843	 0.125788
H	 0.3105260228	-2.0870632351	 1.2944674102	 0.132733
H	-1.1805558044	-0.8518340281	 2.5516250986	 0.243083
79.2733	98.6855	145.0122	179.1398	196.697	262.6284	351.2451	361.0616	485.309	581.9421	627.7902	810.5417	869.3005	897.788	965.6032	986.6407	998.1617	1045.8468	1118.2269	1142.1187	1156.8694	1184.9928	1200.1868	1229.8887	1276.6916	1309.9604	1324.0938	1365.3567	1414.658	1480.4205	1487.6193	1504.2481	1508.5239	2352.8671	2962.8105	3000.147	3064.4862	3125.5866	3137.7891	3144.1276	3217.2632	3497.475
COC(C#N)C1CN1	CO[C@@H](C#N)[C@H]1CN1	
InChI=1S/C5H8N2O/c1-8-5(2-6)4-3-7-4/h4-5,7H,3H2,1H3	InChI=1S/C5H8N2O/c1-8-5(2-6)4-3-7-4/h4-5,7H,3H2,1H3/t4-,5+/m1/s1
