21
gdb 104744	2.64166	1.13439	0.92159	1.6686	85.78	-0.2562	0.0218	0.2779	1362.1464	0.179111	-387.045901	-387.035489	-387.034545	-387.081388	38.235	
C	 0.9694992331	 0.0753055847	-0.7342857486	-0.373801
C	 0.0795275752	-0.4751377154	 0.3888961551	-0.278929
C	-1.3934399658	-0.593170157	 0.0010453432	 0.408184
C	-2.3292172377	 0.5250771738	 0.4328552038	-0.246516
C	-1.9805083165	 1.8987422168	-0.1536144955	-0.386136
O	-1.6411941287	-1.0910573109	-1.3232689817	-0.281322
C	-2.0013393644	-1.9354893285	-0.2175800887	-0.231743
C	-1.2717235288	-3.1627311598	-0.0493512499	 0.336565
C	-0.6886349826	-4.2021330966	 0.1116714517	-0.41681
H	 2.0164082237	 0.0891784942	-0.4168091026	 0.109958
H	 0.885559617	-0.5540015936	-1.62330549	 0.138794
H	 0.6913683389	 1.0938433137	-1.0193167966	 0.118001
H	 0.4518965429	-1.4615184726	 0.6821365717	 0.11837
H	 0.1524084206	 0.1627139729	 1.2773179797	 0.097409
H	-3.3477577245	 0.2550015498	 0.1336036931	 0.103951
H	-2.3230742875	 0.5760310868	 1.5293551536	 0.10295
H	-1.0078774711	 2.2566579909	 0.1967408358	 0.122426
H	-1.955609611	 1.8589340817	-1.24669715	 0.133703
H	-2.7293745928	 2.6402255503	 0.1403762489	 0.115082
H	-3.0775109958	-2.0288240225	-0.0678640974	 0.108636
H	-0.1709225043	-5.1198691186	 0.2454059843	 0.20123
56.626	81.5049	129.0348	151.0337	206.0214	218.56	248.5829	272.0926	326.6626	375.2443	409.001	463.4766	567.5975	613.0097	638.0001	666.1829	688.4519	775.4536	789.6518	840.7659	922.0707	946.8791	986.867	1028.2908	1045.2085	1076.6384	1082.9297	1120.8189	1131.918	1229.1386	1274.1497	1316.3279	1333.6282	1365.3546	1386.599	1405.5229	1411.185	1440.6788	1472.579	1489.6342	1493.3832	1504.5838	1509.6272	1513.2476	2236.399	3025.4844	3040.9587	3041.4815	3047.6174	3069.0798	3080.3941	3100.7822	3108.9628	3115.2326	3117.3358	3131.3097	3501.3915
CCC1(CC)OC1C#C	CCC1(CC)O[C@H]1C#C	
InChI=1S/C8H12O/c1-4-7-8(5-2,6-3)9-7/h1,7H,5-6H2,2-3H3	InChI=1S/C8H12O/c1-4-7-8(5-2,6-3)9-7/h1,7H,5-6H2,2-3H3/t7-/m0/s1
