14
gdb 5692	4.85032	2.12952	1.51747	2.1619	62.99	-0.1926	0.0054	0.1981	782.4137	0.111306	-378.734431	-378.728549	-378.727605	-378.764434	22.559	
C	 0.034575077	 1.4217732506	 0.0638826304	-0.163228
C	 1.5299899288	 1.9051660649	-0.0604142339	-0.347868
C	 2.1837204882	 0.5772261474	 0.0899081355	 0.257524
C	 1.3232021511	-0.4456957027	-0.0630192538	 0.295249
N	 0.0059997498	-0.0333223193	-0.2991597084	-0.399737
N	 1.9926359917	-1.6492779745	-0.0948410579	-0.346984
C	 3.2362319773	-1.2789504158	 0.0266790058	 0.040919
O	 3.4506590511	 0.0628522432	 0.1199038835	-0.191968
H	-0.2937070866	 1.56283583	 1.1016795949	 0.110485
H	-0.6347323032	 1.9870444425	-0.5880359765	 0.11782
H	 1.7224830936	 2.3601528023	-1.0417958857	 0.122592
H	 1.7701564286	 2.6527225857	 0.7015496289	 0.120015
H	-0.7029574856	-0.5495667608	 0.2081693299	 0.238506
H	 4.1111971982	-1.9071133936	 0.0806772175	 0.146675
160.2748	186.9204	310.7258	436.7722	580.5034	630.8753	683.9553	727.8845	734.0177	796.9426	827.4193	853.3184	933.7196	952.2694	1011.0571	1074.126	1102.0541	1117.0361	1182.0981	1237.3655	1260.3659	1295.995	1324.6145	1343.0236	1387.9109	1466.4051	1495.9976	1513.986	1520.9349	1687.4795	3007.6503	3017.9776	3070.3659	3102.0894	3278.4104	3545.1721
C1CC2=C(N1)N=CO2	C1Cc2c(N1)nco2	
InChI=1S/C5H6N2O/c1-2-6-5-4(1)8-3-7-5/h3,6H,1-2H2	InChI=1S/C5H6N2O/c1-2-6-5-4(1)8-3-7-5/h3,6H,1-2H2
