21
gdb 108466	2.29792	1.42725	1.18712	2.0665	77.6	-0.2406	0.0654	0.3061	1165.4114	0.181973	-424.187977	-424.178848	-424.177904	-424.222059	34.453	
C	-0.5720667998	 1.3698168938	-0.0043537698	-0.416714
C	 0.0501268635	-0.0194059011	-0.0434227999	-0.037463
C	 1.3651015471	-0.2248023516	-0.8678276065	-0.25707
C	 2.048246244	-0.8307602614	 0.379132875	 0.06394
O	 2.7862165415	 0.1371025239	 1.1452102548	-0.292082
C	 1.6508914586	 0.3910144765	 2.010870423	-0.132882
C	 0.7594502684	-0.5941195858	 1.2274648256	 0.261227
C	 0.0252538734	-1.6618618818	 2.0117307238	-0.179622
O	 0.8202720865	-2.2803355613	 3.0117686882	-0.41214
H	 0.1640388344	 2.1384810697	 0.2517286914	 0.124701
H	-0.9871073632	 1.6305750142	-0.9839946437	 0.118889
H	-1.3871982397	 1.4264390316	 0.7258515821	 0.115541
H	-0.7111426116	-0.7373225026	-0.3705928693	 0.071713
H	 1.2641597709	-0.9045606509	-1.7180136589	 0.098915
H	 1.8548180096	 0.693192882	-1.2029570228	 0.11053
H	 2.5847063607	-1.7805495013	 0.2756228318	 0.06201
H	 1.854053688	 0.0635814246	 3.0363525776	 0.115168
H	 1.3576203964	 1.4468084927	 2.0150636426	 0.097345
H	-0.824270455	-1.2171409006	 2.545520833	 0.11345
H	-0.3912602201	-2.4085242819	 1.3157220601	 0.087401
H	 1.5657230263	-2.7054503686	 2.5746558217	 0.287142
54.4878	99.3666	163.5017	213.4634	253.7043	277.4593	313.024	335.9262	395.5698	432.5898	514.9783	628.3906	651.2071	779.0176	829.5192	859.8635	874.287	929.3397	941.4126	998.5019	1015.0184	1030.1635	1057.4332	1076.8192	1110.2811	1120.4604	1146.8898	1172.4597	1195.4332	1208.1624	1234.7008	1248.1061	1275.8549	1288.9527	1325.6156	1350.9879	1378.0728	1395.876	1412.5594	1416.0559	1466.4982	1492.1911	1497.3804	1498.1985	1523.2497	2967.9309	3025.1706	3027.5209	3030.8232	3039.5063	3046.5981	3059.6719	3075.5299	3092.7772	3101.518	3115.6908	3811.2124
CC1CC2OCC12CO	C[C@H]1C[C@H]2OC[C@@]12CO	
InChI=1S/C7H12O2/c1-5-2-6-7(5,3-8)4-9-6/h5-6,8H,2-4H2,1H3	InChI=1S/C7H12O2/c1-5-2-6-7(5,3-8)4-9-6/h5-6,8H,2-4H2,1H3/t5-,6+,7-/m0/s1
