16
gdb 54735	3.07132	1.5046	1.46268	4.3234	67.28	-0.2286	0.0397	0.2683	953.9938	0.123891	-437.827113	-437.819532	-437.818588	-437.859269	29.671	
N	 0.1353224685	 1.01618853	-0.6062170862	-0.516308
C	 0.1492354925	-0.0855000123	 0.2123957917	 0.381465
O	 1.0063311371	-0.2824316345	 1.0464179036	-0.365619
C	-1.1005975941	-0.9441826976	 0.1287337753	-0.117655
C	-1.7791330198	-1.5329290572	-1.0857635468	-0.152144
C	-0.7610672431	-2.0943218506	-2.1293353356	 0.009862
O	 0.5706734831	-1.8177054651	-1.6764586057	-0.232745
C	-0.1319184742	-2.9359088031	-1.1182993597	 0.030263
C	-1.1233440097	-2.4316478167	-0.025410806	-0.105663
H	 1.0012200036	 1.5314764409	-0.6578410459	 0.255839
H	-0.4152983917	 0.9832714066	-1.4484571644	 0.254004
H	-1.8321847857	-0.6126299869	 0.8645223922	 0.12633
H	-2.833774131	-1.4068093829	-1.2931770773	 0.09885
H	-0.9178967999	-2.2262148479	-3.1928295101	 0.113401
H	 0.3447661303	-3.9062216328	-1.1721998713	 0.116846
H	-1.6088837959	-3.0911026598	 0.6810289663	 0.103275
78.3822	143.7402	161.4529	345.0767	370.3742	432.1855	483.1316	533.4774	600.2126	643.9818	694.189	732.7548	755.4863	779.6578	827.6256	854.8301	899.0802	912.3186	957.534	966.6379	1002.7981	1036.8687	1045.8114	1069.6227	1104.4982	1135.4343	1230.3008	1235.5928	1270.9113	1304.9799	1314.6655	1383.4492	1432.0583	1616.4328	1806.4724	3127.1563	3187.3764	3198.777	3203.9887	3213.6799	3581.0322	3707.609
NC(=O)C1C2C3OC3C12	NC(=O)[C@H]1[C@H]2[C@H]3O[C@H]3[C@@H]12	
InChI=1S/C6H7NO2/c7-6(8)3-1-2(3)5-4(1)9-5/h1-5H,(H2,7,8)	InChI=1S/C6H7NO2/c7-6(8)3-1-2(3)5-4(1)9-5/h1-5H,(H2,7,8)/t1-,2+,3-,4+,5-
