17
gdb 99008	4.23076	0.83393	0.70272	2.2238	69.44	-0.2532	0.0057	0.259	1549.9698	0.134711	-492.323631	-492.313451	-492.312507	-492.360019	34.295	
C	 0.2975531701	 1.1456154122	-0.3412975909	-0.234654
O	-0.1078803733	 0.2947091418	 0.7357315576	-0.260882
C	 0.7392879901	-0.7246906136	 1.0015774154	 0.539561
O	 1.768052278	-0.9362994994	 0.4002765818	-0.408118
N	 0.2374273544	-1.4561415639	 2.0465446337	-0.408527
C	 0.7739099572	-2.5949060487	 2.6575871439	 0.373826
N	 0.1126359077	-3.0961117984	 3.6179019502	-0.50923
C	 2.0903749173	-3.1253468055	 2.1204402343	-0.163857
O	 2.4218912312	-4.2650374855	 2.888900765	-0.420942
H	 0.3810487667	 0.5794747102	-1.2722803271	 0.142795
H	-0.4820198877	 1.9027681478	-0.4250135943	 0.13685
H	 1.2613410266	 1.612896918	-0.1244411656	 0.142717
H	-0.6387199804	-1.1511809953	 2.4468678067	 0.268704
H	 0.6098867347	-3.9133294159	 3.9703534155	 0.246058
H	 1.9794592152	-3.3574993935	 1.0531530078	 0.129465
H	 2.8529246424	-2.3384319595	 2.1873179636	 0.12947
H	 3.2564554797	-4.6110119709	 2.5621336327	 0.296764
50.5237	76.4142	91.2395	135.1075	148.3905	156.813	190.2685	278.1275	336.1538	382.4217	429.2279	530.4292	653.544	673.4382	742.9585	777.2085	831.4619	891.7883	995.3282	1046.7775	1069.2404	1111.5407	1180.1538	1183.0615	1216.47	1222.7653	1237.9788	1252.6845	1393.7222	1462.6512	1471.4618	1480.5958	1481.0761	1497.8337	1528.6753	1731.9685	1815.1759	3018.2006	3049.3804	3052.725	3127.6739	3160.0457	3504.0902	3612.613	3851.7602
COC(=O)NC(=N)CO	COC(=O)NC(=N)CO	
InChI=1S/C4H8N2O3/c1-9-4(8)6-3(5)2-7/h7H,2H2,1H3,(H2,5,6,8)	InChI=1S/C4H8N2O3/c1-9-4(8)6-3(5)2-7/h7H,2H2,1H3,(H2,5,6,8)
