13
gdb 16604	3.33851	2.38466	1.53287	5.0373	58.37	-0.2438	-0.0887	0.1551	779.2669	0.095765	-398.608293	-398.601827	-398.600883	-398.639348	24.009	
O	-0.0047952969	-0.002080795	-0.0055382882	-0.264569
C	-0.0445665923	 1.1942955536	 0.0132860617	 0.326014
C	-1.270910336	 2.1006534055	 0.0922292726	-0.3721
C	-0.6958704356	 3.5069416803	 0.0598389295	-0.030771
C	 0.1538688302	 3.9796554243	 1.1759267584	-0.24853
N	 0.7859374557	 3.4726622065	-0.0695981047	-0.124788
C	 1.2126748866	 2.1216894608	 0.0044541633	 0.278481
O	 2.3466242324	 1.7443632188	 0.0698673799	-0.27602
H	-1.9190256404	 1.9051362856	-0.7676568881	 0.155409
H	-1.853243368	 1.8780326382	 0.9918380198	 0.153159
H	-1.1775622479	 4.2438759092	-0.5746317634	 0.118417
H	 0.2985140114	 5.0414633589	 1.3458794508	 0.146463
H	 0.2337912009	 3.3603771934	 2.0669587383	 0.138835
58.9808	206.9396	322.936	348.9388	385.263	526.3951	589.0721	650.4544	694.7104	708.2569	798.7209	848.9446	906.1842	953.5401	1017.0315	1049.4836	1073.8586	1119.2428	1148.2692	1174.2996	1183.2682	1271.0359	1293.9951	1391.3572	1442.0292	1509.9303	1856.4699	1864.8761	3060.1157	3100.5352	3111.4629	3162.6605	3206.5943
O=C1CC2CN2C1=O	O=C1C[C@H]2CN2C1=O	
InChI=1S/C5H5NO2/c7-4-1-3-2-6(3)5(4)8/h3H,1-2H2	InChI=1S/C5H5NO2/c7-4-1-3-2-6(3)5(4)8/h3H,1-2H2/t3-,6?/m0/s1
