14
gdb 8833	3.0859	1.47558	1.09312	1.4422	59.8	-0.2755	-0.0496	0.2259	1040.7873	0.103281	-419.642276	-419.633396	-419.632452	-419.676596	30.96	
O	 0.1469145575	 1.3301164144	 0.0434445513	-0.416756
C	 0.0274893826	-0.0594363439	-0.0362970641	-0.130181
C	-1.4145762786	-0.5073452637	 0.056925714	 0.332421
O	-2.3075399656	 0.3003450163	 0.1956961755	-0.33031
C	-1.7645283308	-2.0092394137	-0.0080201646	-0.111475
O	-3.1278829673	-2.1976780622	 0.2570106634	-0.40889
C	-1.3570441485	-2.5424493075	-1.3144803484	 0.320828
C	-1.0250353992	-2.9699376892	-2.3871574437	-0.466158
H	-0.7511357052	 1.670635098	 0.1674070341	 0.299017
H	 0.4458803549	-0.4443963081	-0.978041271	 0.144784
H	 0.5850077611	-0.558046976	 0.7752710976	 0.124512
H	-1.1750798542	-2.5147279112	 0.7739121488	 0.129804
H	-3.527075425	-1.3142246906	 0.2095943195	 0.300386
H	-0.7374017515	-3.3582063826	-3.3335001023	 0.212019
33.8186	82.6083	135.6779	212.9265	239.2859	321.9625	348.8825	381.7735	390.1831	418.9772	549.7014	581.0854	639.3998	684.5364	727.003	844.446	963.8335	1015.8726	1044.8141	1133.226	1154.207	1231.6881	1267.7757	1314.6033	1333.6116	1429.6383	1446.6038	1487.4543	1794.8901	2233.2537	2968.6368	2983.6697	3018.7301	3499.8358	3693.6397	3726.6968
OCC(=O)C(O)C#C	OCC(=O)[C@@H](O)C#C	
InChI=1S/C5H6O3/c1-2-4(7)5(8)3-6/h1,4,6-7H,3H2	InChI=1S/C5H6O3/c1-2-4(7)5(8)3-6/h1,4,6-7H,3H2/t4-/m0/s1
