16
gdb 33857	4.4241	1.29693	1.16552	0.9491	75.11	-0.2336	0.0144	0.2481	1050.0985	0.124253	-400.666798	-400.659546	-400.658602	-400.698246	29.004	
C	-0.0457632019	-1.1697437625	 0.219928892	-0.361372
C	 0.0156116123	 0.0217537945	 0.0734007685	 0.213741
C	 0.0415195759	 1.4407927002	-0.1332893463	 0.223816
C	-0.9752178017	 2.111308529	-1.0623704054	-0.258921
N	-0.3545874477	 3.3265563292	-1.6296416751	-0.10725
C	-0.0375241682	 4.4125554708	-0.6956142008	-0.243539
C	 1.0186230907	 3.4401969628	-1.0862636608	-0.056361
C	 1.2593952828	 2.2891093101	-0.1438384801	-0.043019
O	 0.3987570919	 2.2648225896	 0.9969173606	-0.282049
H	-0.0893047999	-2.2219809556	 0.3578261431	 0.197166
H	-1.2130727722	 1.4293571729	-1.8848000171	 0.125943
H	-1.9050616002	 2.3501805243	-0.5370785469	 0.12773
H	-0.0508236462	 5.4018311931	-1.1448291949	 0.116586
H	-0.4019877036	 4.3527379187	 0.3247338155	 0.138034
H	 1.8129975942	 3.6971942165	-1.7807051014	 0.09741
H	 2.2574957437	 1.8884395364	 0.0059593691	 0.112082
129.7196	143.2664	277.3043	298.9069	422.2923	444.4192	507.0905	568.8216	588.455	622.3146	674.0496	694.6025	734.7153	771.5042	819.2481	860.9446	916.3863	938.55	1006.9929	1028.1618	1045.3722	1067.9962	1103.0061	1125.5993	1151.3219	1192.2478	1231.4587	1260.2848	1287.8683	1326.3694	1364.3653	1418.0341	1482.9755	1497.826	2240.9307	3052.2197	3097.4837	3114.4392	3152.082	3169.7252	3209.8833	3501.3957
C#CC12CN3CC3C1O2	C#C[C@]12CN3C[C@H]3[C@H]1O2	
InChI=1S/C7H7NO/c1-2-7-4-8-3-5(8)6(7)9-7/h1,5-6H,3-4H2	InChI=1S/C7H7NO/c1-2-7-4-8-3-5(8)6(7)9-7/h1,5-6H,3-4H2/t5-,6+,7-,8?/m0/s1
