16
gdb 14829	2.50376	2.23275	1.20708	3.6015	71.04	-0.2478	-0.0227	0.2252	974.1869	0.130314	-379.935882	-379.927813	-379.926868	-379.968747	28.321	
C	 0.1697603242	 1.372619011	-0.4169985137	-0.36729
N	 0.0210227085	-0.0460065609	-0.1485148499	-0.301906
C	-1.068914451	-0.6283925878	 0.0259791735	 0.423814
C	-1.3896637894	-2.0905079449	 0.3130217576	-0.332543
C	-2.889134311	-1.6905728211	 0.3349944464	-0.178192
N	-2.4790496398	-0.2994106309	 0.0546238216	-0.130405
C	-3.2917497977	 0.7908673094	-0.0933310065	 0.15235
O	-2.9554267586	 1.9301678242	-0.3231595019	-0.299822
H	 0.8148444777	 1.8039484698	 0.3572543114	 0.125861
H	 0.7062959528	 1.4891745689	-1.3658178169	 0.125877
H	-0.7713214632	 1.9276236864	-0.4591654732	 0.165525
H	-1.1033569573	-2.7753358869	-0.486656947	 0.138249
H	-0.9921728065	-2.4568692917	 1.2607739285	 0.138251
H	-3.5019092355	-2.1307849049	-0.4561893994	 0.12677
H	-3.3909245117	-1.8098475505	 1.2989305442	 0.126792
H	-4.3536667615	 0.49608644	 0.0279406053	 0.086669
62.8053	139.512	191.9054	213.9259	241.2981	249.0069	273.0717	470.29	560.6618	566.9577	688.5059	800.1457	812.2882	955.8912	1024.9905	1030.8228	1051.7779	1082.0486	1133.0662	1143.0987	1157.7107	1186.1252	1203.8617	1252.2321	1299.4898	1354.2369	1434.475	1447.7191	1469.8592	1504.5666	1504.6863	1520.1382	1785.5063	1847.5589	2931.0373	3021.751	3055.5061	3075.3851	3090.0793	3104.6526	3118.6997	3143.8173
CN=C1CCN1C=O	CN=C1CCN1C=O	
InChI=1S/C5H8N2O/c1-6-5-2-3-7(5)4-8/h4H,2-3H2,1H3	InChI=1S/C5H8N2O/c1-6-5-2-3-7(5)4-8/h4H,2-3H2,1H3
