15
gdb 27680	2.77287	1.34117	0.90976	6.205	80.18	-0.2069	-0.0203	0.1866	1215.5357	0.112999	-416.862318	-416.853766	-416.852822	-416.895499	31.229	
C	-0.0173052129	 1.5572374673	 0.0501154809	-0.516087
C	 0.0246325187	 0.0637059332	 0.0508964235	 0.200963
C	 0.016075368	-0.7525918879	-1.0502610717	 0.154324
O	 0.0637650762	-2.0822662526	-0.6541249175	-0.206064
C	 0.1018969721	-2.0796321216	 0.6901804235	 0.38871
N	 0.2205946514	-3.3132287659	 1.28177952	-0.599245
C	 0.0792003209	-0.80035987	 1.1848526178	-0.348794
C	-0.0358254936	-0.4771490486	-2.4248888605	 0.210445
N	-0.0811842749	-0.217365449	-3.5558214483	-0.362247
H	 0.8698489319	 1.97454374	 0.538729071	 0.140901
H	-0.0622359828	 1.9500272054	-0.9681691438	 0.151136
H	-0.8915192196	 1.9255777891	 0.5978546148	 0.139329
H	-0.1269309995	-4.0782745526	 0.7207055738	 0.269131
H	-0.0947856103	-3.3546408332	 2.239015151	 0.266838
H	 0.1022506344	-0.5116578035	 2.2234872056	 0.110659
117.4628	137.544	139.9113	194.7807	248.9891	271.6618	349.5699	411.4325	511.7887	549.516	564.9984	598.5271	628.5329	671.6298	706.0036	753.3888	800.7534	995.0588	1023.1251	1060.7535	1083.4703	1120.0347	1206.8654	1267.0986	1353.0302	1415.7159	1471.1338	1481.9632	1492.0974	1588.9085	1635.2513	1666.6785	2320.0933	3036.5195	3090.003	3127.9053	3259.2145	3571.3523	3678.0908
CC1=C(OC(N)=C1)C#N	Cc1c(oc(N)c1)C#N	
InChI=1S/C6H6N2O/c1-4-2-6(8)9-5(4)3-7/h2H,8H2,1H3	InChI=1S/C6H6N2O/c1-4-2-6(8)9-5(4)3-7/h2H,8H2,1H3
