21
gdb 41151	2.79047	1.87852	1.42517	1.2442	81.77	-0.2408	0.089	0.3299	984.8392	0.185967	-387.063985	-387.057088	-387.056144	-387.09475	29.663	
C	-0.0520564585	 1.5236576803	-0.0867774892	-0.275518
C	 1.5119242443	 1.5753445692	 0.0345728886	-0.356129
C	 1.4343454789	 0.2151947369	 0.7586506039	 0.343301
C	 2.2191213564	-1.1097154799	 0.8153302252	-0.320809
C	 1.2500731081	-1.4308610363	 2.0021749397	-0.035154
C	 1.2321900992	 0.0937953233	 2.290369945	-0.261649
C	-0.1624682094	-1.8256346435	 1.5048851238	-0.083243
O	-0.8448859888	-0.7281853961	 0.8872611801	-0.26592
C	 0.0643985384	-0.0052001377	 0.0922251672	 0.139237
H	-0.5356358518	 1.9872350945	 0.7761574818	 0.114803
H	-0.5127180585	 1.8970274679	-1.0031245976	 0.09866
H	 1.9984514318	 1.5083338685	-0.9431439273	 0.105108
H	 1.9469677393	 2.4107590084	 0.5874987552	 0.101216
H	 2.1831122731	-1.7497709975	-0.0730238368	 0.086555
H	 3.2538493567	-1.013268285	 1.1591254975	 0.093271
H	 1.5933941364	-2.1240239395	 2.773337013	 0.065119
H	 2.1209449713	 0.4181420552	 2.8388741275	 0.091087
H	 0.3331707269	 0.5230710087	 2.7377715693	 0.104193
H	-0.0950214566	-2.6763484992	 0.806663689	 0.089018
H	-0.792292786	-2.1288004635	 2.3471639949	 0.107877
H	 0.1909920088	-0.4930905847	-0.8893899908	 0.058978
191.7047	227.9457	323.3318	374.1291	375.3084	437.5117	518.1101	526.3518	615.4509	685.6054	776.9925	804.7803	848.5553	864.4529	878.698	903.6247	907.2652	967.404	973.3151	995.255	1007.6562	1018.0388	1091.1442	1102.175	1133.8861	1139.1424	1145.8233	1176.563	1187.936	1202.3509	1235.3788	1239.5172	1252.3831	1262.6057	1294.4888	1304.2743	1315.6186	1328.9053	1375.8152	1408.1141	1476.1901	1480.9042	1493.6991	1503.2094	1509.883	2950.508	2970.049	3033.3772	3056.521	3058.0953	3071.797	3073.2979	3085.4309	3090.7371	3109.2423	3117.5328	3132.0547
C1CC23CC(C2)COC13	C1C[C@@]23C[C@@H](C2)CO[C@@H]13	
InChI=1S/C8H12O/c1-2-8-3-6(4-8)5-9-7(1)8/h6-7H,1-5H2	InChI=1S/C8H12O/c1-2-8-3-6(4-8)5-9-7(1)8/h6-7H,1-5H2/t6-,7-,8+/m0/s1
