13
gdb 130019	5.42184	1.32005	1.0634	7.059	67.71	-0.2274	-0.0119	0.2154	1025.1771	0.092629	-448.926054	-448.919452	-448.918508	-448.956751	26.127	
N	 0.023633122	 1.3447021728	-0.1225872015	-0.590737
C	-0.0182994922	-0.0208258579	-0.0235948881	 0.414748
N	-1.1169942455	-0.7328169481	 0.0015967926	-0.392036
C	-0.6503713166	-2.0365427241	-0.0045735387	 0.420003
N	-1.1952200709	-3.2298956115	 0.0124977873	-0.267892
O	-0.0851261526	-4.092615615	-0.0005067981	-0.184143
C	 1.0820393433	-3.3911132158	-0.0095281352	-0.056853
C	 0.7748678455	-2.0773728863	-0.0183223402	 0.187357
N	 1.1766998648	-0.7463134901	 0.0172495726	-0.483242
H	 0.7622079708	 1.8071481581	 0.3872669473	 0.261854
H	-0.8824616124	 1.7699598302	 0.013292845	 0.278352
H	 1.9827422714	-3.98150786	-0.0208701384	 0.144388
H	 2.0522011126	-0.3859087224	-0.3239490445	 0.2682
164.0729	324.6693	333.1218	340.4126	359.6536	403.6522	560.057	562.908	592.0233	620.1155	737.9359	764.4694	766.1981	776.5216	857.5556	893.7363	973.6822	983.2488	1089.8512	1119.286	1210.2891	1264.9525	1314.9142	1431.4146	1464.5992	1565.3693	1600.5213	1673.9579	1727.3399	3278.95	3570.1083	3658.2244	3675.6553
NC1=NC2=NOC=C2N1	Nc1nc2nocc2[nH]1	
InChI=1S/C4H4N4O/c5-4-6-2-1-9-8-3(2)7-4/h1H,(H3,5,6,7,8)	InChI=1S/C4H4N4O/c5-4-6-2-1-9-8-3(2)7-4/h1H,(H3,5,6,7,8)
