21
gdb 92710	2.26275	1.72227	1.08944	1.6571	84.73	-0.2306	0.0186	0.2492	1172.6132	0.182025	-387.096864	-387.087885	-387.086941	-387.130308	34.554	
C	 0.0175524	 1.6017058128	-0.0599033074	-0.419041
C	 0.1162589065	 0.0807705809	 0.01863596	-0.04873
C	 0.8205722706	-0.5905393144	-1.1904494657	-0.282185
C	 1.5273064141	-1.7749092004	-0.5783687349	-0.184481
C	 1.5628611049	-1.7270310158	 0.7561400359	 0.264455
C	 2.1833326087	-2.7012711219	 1.7057208173	-0.505438
C	 0.8601079032	-0.4947711038	 1.2328498965	 0.361065
C	 1.3147691342	 0.2864046067	 2.3977264504	-0.253129
O	 0.1577004955	-0.548191613	 2.4857801587	-0.287329
H	 1.0092242937	 2.0644519234	-0.1145397624	 0.114033
H	-0.541586718	 1.906654687	-0.9505626691	 0.114126
H	-0.5039316517	 2.011913974	 0.811057386	 0.124197
H	-0.8989206741	-0.3307910105	 0.084486258	 0.094846
H	 0.1144949775	-0.8742212754	-1.9793671971	 0.103817
H	 1.5404488626	 0.097993402	-1.6567948045	 0.104145
H	 1.9807391213	-2.557927794	-1.1775258849	 0.089734
H	 2.5101366321	-3.6073274763	 1.1893961542	 0.122939
H	 3.0575171737	-2.2707434417	 2.2106338811	 0.125104
H	 1.470768994	-2.9780606875	 2.4899506844	 0.143671
H	 2.1767438728	-0.0460214001	 2.9755129988	 0.106302
H	 1.1248541684	 1.3576228881	 2.4378973547	 0.1119
62.1536	147.9708	221.5571	247.9945	253.4671	257.829	284.6767	309.9836	442.1543	465.5189	513.0243	603.2052	643.7036	679.6069	819.5301	843.0266	851.3056	897.1436	940.7388	954.225	975.9136	1029.5348	1051.8231	1065.1195	1096.1377	1123.7668	1129.0382	1144.1928	1165.4926	1201.6704	1251.9876	1307.1781	1317.0715	1337.2596	1373.4693	1395.4078	1410.0893	1414.7558	1475.1901	1491.7648	1493.9927	1497.4054	1503.7345	1529.8855	1718.3431	3001.2786	3024.7742	3025.0108	3029.047	3053.4261	3078.8222	3082.4542	3097.2874	3100.2898	3119.6591	3164.9067	3183.5609
CC1CC=C(C)C11CO1	C[C@H]1CC=C(C)[C@]21CO2	
InChI=1S/C8H12O/c1-6-3-4-7(2)8(6)5-9-8/h3,7H,4-5H2,1-2H3	InChI=1S/C8H12O/c1-6-3-4-7(2)8(6)5-9-8/h3,7H,4-5H2,1-2H3/t7-,8-/m0/s1
