18
gdb 35222	3.17135	1.22603	1.04361	4.2018	83.92	-0.2408	0.0006	0.2414	1179.1506	0.149054	-364.832617	-364.824629	-364.823685	-364.865548	30.523	
N	 0.1928751021	-1.1138272154	-0.3077258194	-0.348963
C	 0.1119715734	 0.0369033157	-0.2062690673	 0.293586
C	 0.0465681064	 1.4623224001	-0.0840870809	-0.225751
C	 0.2879833116	 2.1204651206	 1.264208366	-0.339176
C	 1.337366422	 2.2618725758	 0.2052234443	 0.332742
C	 2.7116661561	 1.584890443	 0.3081996315	-0.312902
C	 3.6176303793	 2.3593418761	-0.6891160826	-0.264769
C	 2.8095593592	 3.5903980458	-1.0240569251	-0.072658
C	 1.5693595863	 3.5274510761	-0.5402857387	-0.13474
H	-0.6759747071	 1.933719257	-0.7420121721	 0.129776
H	-0.3346799142	 2.9751977143	 1.5065142436	 0.126381
H	 0.5006833062	 1.4627522731	 2.100082536	 0.137628
H	 3.0940362614	 1.6975214235	 1.3275779923	 0.113516
H	 2.6665572314	 0.5144531825	 0.0955239768	 0.134589
H	 4.5932306419	 2.6035886143	-0.2546600416	 0.111608
H	 3.8246688964	 1.7748679868	-1.5952476139	 0.119601
H	 3.2052717826	 4.4070284063	-1.6171442191	 0.101584
H	 0.7939355048	 4.2743852845	-0.6712580097	 0.097946
65.0031	133.2468	133.9978	262.0772	315.3625	343.7124	448.209	524.0323	551.1985	588.7587	721.252	757.9058	785.2852	810.9157	849.3705	863.6042	911.1171	946.1993	964.3066	972.8444	1003.1397	1052.6304	1057.5853	1087.3513	1122.9665	1127.2978	1182.3813	1225.3966	1260.6804	1293.7992	1306.1406	1328.1014	1366.7892	1415.0462	1480.415	1482.7595	1499.3482	1680.2683	2344.1033	3022.9456	3050.8761	3064.5901	3109.0551	3132.308	3166.1283	3183.9313	3209.4712	3223.0925
N#CC1CC11CCC=C1	N#C[C@H]1C[C@]21CCC=C2	
InChI=1S/C8H9N/c9-6-7-5-8(7)3-1-2-4-8/h1,3,7H,2,4-5H2	InChI=1S/C8H9N/c9-6-7-5-8(7)3-1-2-4-8/h1,3,7H,2,4-5H2/t7-,8-/m1/s1
