20
gdb 7157	4.45901	0.82292	0.72337	1.1243	81.4	-0.2431	0.0626	0.3057	1613.3423	0.173882	-348.976815	-348.966191	-348.965246	-349.014316	35.579	
C	 0.0670979208	 1.4023590483	-0.0184092695	-0.227999
O	 0.0276284338	-0.00359829	 0.0085380138	-0.232172
C	 0.7106621244	-0.5523357075	 1.1136850348	-0.045226
C	 0.6264811424	-2.0846659408	 1.0227859117	-0.164257
C	 1.2988769562	-2.6114199173	-0.2597564037	-0.381911
C	 1.1993544782	-2.6871473265	 2.2256269457	 0.061627
C	 1.6924459464	-3.1698187984	 3.2128498686	 0.05487
C	 2.2784730069	-3.7634968451	 4.406625923	-0.497456
H	 1.0993193705	 1.7815110039	-0.0850842496	 0.104334
H	-0.4867852254	 1.7293556963	-0.9018617472	 0.126634
H	-0.4005190961	 1.8418390769	 0.8770861957	 0.10415
H	 1.7676816028	-0.2361750109	 1.1168522216	 0.090305
H	 0.2610979165	-0.2077101051	 2.0585729646	 0.093236
H	-0.4423743545	-2.3348441741	 0.9760763138	 0.109052
H	 2.3719603491	-2.3952082381	-0.2457901548	 0.116871
H	 1.1731161137	-3.6937099063	-0.3452765611	 0.118332
H	 0.8567231304	-2.1299001323	-1.1344529632	 0.130958
H	 3.0543517611	-4.4932671062	 4.1495367257	 0.146577
H	 2.7407367934	-3.0020921102	 5.0447849354	 0.14567
H	 1.5227411994	-4.2823647266	 5.0068956944	 0.146406
15.8047	76.1603	82.5313	96.1083	155.2714	209.6981	229.3086	250.4854	292.2304	330.9207	352.3743	414.9206	518.7755	540.9383	748.6366	890.0954	933.1296	992.5231	1035.7996	1053.6769	1054.1153	1117.9843	1135.0534	1165.8502	1180.7804	1199.9968	1226.7096	1263.832	1315.6801	1346.592	1394.8232	1414.5728	1418.3494	1479.1207	1479.5427	1480.2574	1485.465	1493.14	1500.0079	1503.5065	1526.8838	2370.642	2956.288	2971.3469	2992.8863	3012.34	3016.6555	3024.9231	3044.6685	3084.7489	3084.9166	3112.3207	3115.4233	3136.4736
COCC(C)C#CC	COC[C@@H](C)C#CC	
InChI=1S/C7H12O/c1-4-5-7(2)6-8-3/h7H,6H2,1-3H3	InChI=1S/C7H12O/c1-4-5-7(2)6-8-3/h7H,6H2,1-3H3/t7-/m0/s1
