18
gdb 54199	2.87496	1.41646	1.28491	2.4933	71.28	-0.2329	0.031	0.2639	1058.9994	0.146602	-439.082507	-439.073856	-439.072912	-439.115602	33.265	
C	-0.1245065184	 1.6226506565	 0.2676684517	-0.444715
C	 0.0072025488	 0.1187276843	 0.1093850394	 0.31243
O	 0.9995142151	-0.2766185063	-0.900776264	-0.346344
C	 1.6286790168	-1.1557671105	 0.0447692965	 0.094915
C	 2.2132538578	-0.3781689848	 1.1768863112	-0.316999
C	 0.7350257269	-0.7113735776	 1.175628454	-0.140811
C	-1.3685667804	-0.5028278359	-0.1888485118	 0.349568
N	-1.4612288869	-1.1091871104	-1.3949021109	-0.521088
O	-2.2715835902	-0.4209108826	 0.6234861004	-0.38644
H	 0.8108287625	 2.0678267903	 0.6133699266	 0.118838
H	-0.392398469	 2.081082081	-0.6898806481	 0.128016
H	-0.9173853893	 1.8362076844	 0.9882162164	 0.152055
H	 1.9535555429	-2.1277561007	-0.306029501	 0.10616
H	 2.7948725638	-0.9564120179	 1.8884425248	 0.120585
H	 2.5687972934	 0.6335502992	 1.0076876274	 0.120695
H	 0.2394177939	-1.2670094332	 1.9584852613	 0.1192
H	-0.6488887336	-1.1509353414	-1.9872939917	 0.272541
H	-2.3285681041	-1.5422890045	-1.6634409523	 0.261396
63.8916	164.9603	205.2572	221.9498	269.9886	297.359	325.2122	370.3965	478.8329	502.2935	553.6857	632.8427	668.7242	760.0533	768.5889	797.1063	856.0921	878.1649	945.0022	962.3162	980.6742	1029.2082	1044.147	1062.1461	1084.4927	1092.423	1128.8981	1161.9488	1184.1087	1232.2534	1289.4098	1347.5906	1372.079	1398.5678	1471.9716	1484.1598	1493.1964	1585.3432	1795.0411	3047.4596	3118.9896	3124.4013	3141.7055	3186.6391	3211.6862	3223.8999	3596.3503	3739.3344
CC1(OC2CC12)C(N)=O	C[C@]1(O[C@H]2C[C@@H]12)C(=O)N	
InChI=1S/C6H9NO2/c1-6(5(7)8)3-2-4(3)9-6/h3-4H,2H2,1H3,(H2,7,8)	InChI=1S/C6H9NO2/c1-6(5(7)8)3-2-4(3)9-6/h3-4H,2H2,1H3,(H2,7,8)/t3-,4+,6-/m1/s1
