15
gdb 126338	1.98318	1.74598	0.99158	4.983	72.89	-0.2836	-0.0604	0.2232	1151.5737	0.113064	-416.818714	-416.810576	-416.809631	-416.852188	29.033	
C	 0.024078246	 1.5344870271	-0.1885362528	-0.381358
C	-0.0152665812	 0.0174791867	 0.0658077606	-0.318025
C	-1.4036496664	-0.5460719051	 0.0642068482	 0.071125
C	-2.1628278163	-0.9999114211	 1.095137834	-0.004323
O	-3.3694974348	-1.4108875776	 0.6641012473	-0.150049
N	-3.4533506618	-1.2408076318	-0.6950000552	-0.186329
C	-2.2889640015	-0.7279825887	-1.0477048457	 0.23292
C	-2.0177338458	-0.4231686314	-2.4127222365	 0.256721
N	-1.7414402855	-0.1560804739	-3.5035312945	-0.332307
H	 1.0563718078	 1.8951714013	-0.1755811301	 0.126173
H	-0.4065958392	 1.7825799368	-1.1628163815	 0.144407
H	-0.538212505	 2.0754213476	 0.5783438832	 0.125132
H	 0.5798335571	-0.4933486775	-0.7000104915	 0.132518
H	 0.4566909599	-0.2101945714	 1.0270938454	 0.116692
H	-1.9862593132	-1.0942087609	 2.1553333391	 0.166704
56.1032	123.8122	162.7603	184.5859	226.3869	327.3443	390.2283	518.9004	550.11	593.7169	622.7699	676.0141	755.8064	792.202	846.389	937.9814	969.7348	984.5029	1074.7101	1094.035	1140.8411	1201.3985	1270.815	1307.3024	1359.82	1411.8038	1414.8438	1473.5384	1485.3242	1499.0698	1507.4885	1631.5459	2361.7433	3040.2061	3045.0105	3078.7656	3119.353	3122.8072	3269.4084
CCC1=CON=C1C#N	CCc1conc1C#N	
InChI=1S/C6H6N2O/c1-2-5-4-9-8-6(5)3-7/h4H,2H2,1H3	InChI=1S/C6H6N2O/c1-2-5-4-9-8-6(5)3-7/h4H,2H2,1H3
