21
gdb 87589	3.17277	1.29542	1.20245	0.304	89.15	-0.2116	0.0223	0.2339	1158.6794	0.183584	-349.943044	-349.93497	-349.934026	-349.975271	32.808	
C	-0.0884537963	 1.5261279658	-0.0908705839	-0.40914
C	 0.0227632429	 0.0200432804	 0.0033770497	-0.033432
C	 1.3443029979	-0.674099081	-0.1873849908	-0.354933
C	 0.6842852018	-0.6757149162	 1.1821866332	 0.348462
C	 1.2816584355	 0.0453427996	 2.3435838512	-0.167198
C	 1.2013802032	-0.67769313	 3.4665237573	-0.094716
C	 0.4822520854	-1.9654738648	 3.2405122651	-0.089591
C	-0.9676399022	-1.8344570648	 2.8088824221	-0.286605
C	 0.1140575332	-1.9524941357	 1.7641057696	-0.126041
H	 0.8176510069	 2.0220462253	 0.2699814327	 0.11476
H	-0.2395829037	 1.839273687	-1.1301233182	 0.116011
H	-0.9314440346	 1.904761897	 0.4976053009	 0.118297
H	-0.8420487179	-0.5107933176	-0.3884487084	 0.084049
H	 1.3720225019	-1.6132138042	-0.7315262065	 0.10829
H	 2.2279292752	-0.0566244609	-0.3188151227	 0.107075
H	 1.7063536029	 1.0390216021	 2.2665406653	 0.092131
H	 1.5740688063	-0.3719127396	 4.4372468003	 0.09189
H	 0.7951748233	-2.8667240731	 3.756465602	 0.083738
H	-1.609268593	-2.6987304577	 2.9478400192	 0.104976
H	-1.4549528771	-0.8759221478	 2.9551223871	 0.110192
H	 0.1530474085	-2.8577913739	 1.1683693248	 0.081784
115.4313	148.9858	211.8752	219.4597	327.6092	377.4669	397.3259	448.7135	523.6967	606.5895	718.3919	756.1753	775.6816	796.0883	824.8458	851.7425	873.8192	918.4198	921.5357	932.092	954.4972	1000.2896	1006.2584	1047.9825	1049.5232	1067.8294	1076.5034	1088.5327	1096.7073	1128.8543	1136.884	1187.0522	1196.5219	1252.5921	1282.8206	1326.1261	1359.9678	1390.7536	1410.499	1429.8637	1476.8068	1486.2546	1492.7733	1503.0548	1652.4506	3028.4809	3087.4142	3100.3352	3117.1635	3122.5751	3131.3234	3161.1505	3168.8874	3189.7166	3203.3198	3212.4986	3214.028
CC1CC11C=CC2CC12	C[C@H]1C[C@]21C=C[C@H]1C[C@@H]21	
InChI=1S/C9H12/c1-6-5-9(6)3-2-7-4-8(7)9/h2-3,6-8H,4-5H2,1H3	InChI=1S/C9H12/c1-6-5-9(6)3-2-7-4-8(7)9/h2-3,6-8H,4-5H2,1H3/t6-,7-,8+,9-/m0/s1
