16
gdb 53455	4.06783	0.55468	0.49113	3.6163	84.14	-0.2498	-0.0177	0.2321	2158.7026	0.121029	-400.72685	-400.715773	-400.714829	-400.767637	35.739	
C	 0.0734894692	 1.5100140202	 0.031791222	-0.496756
C	 0.0397811187	 0.0565427421	-0.0355193042	 0.08111
C	 0.0039203284	-1.1440280066	-0.089968845	 0.08112
C	-0.0393251008	-2.6053785667	-0.1562947586	-0.508411
C	-1.3887228499	-3.1611973539	-0.0399676752	 0.066239
C	-2.4979622745	-3.6207772373	 0.0564988772	 0.052072
C	-3.8650122615	-4.1082489015	 0.1797085498	 0.26628
N	-3.9740322968	-5.4665810478	 0.0865239857	-0.520656
O	-4.8157948625	-3.3722523793	 0.3574909	-0.332717
H	 0.6888657061	 1.8555891466	 0.86950695	 0.149486
H	 0.4872609805	 1.9416635269	-0.886007098	 0.149357
H	-0.9333205994	 1.9194091424	 0.167518433	 0.156908
H	 0.4063760534	-2.9505641818	-1.1000850109	 0.162659
H	 0.5894936048	-3.0347656545	 0.6366894379	 0.163464
H	-3.1802380333	-6.0458573585	-0.1223962512	 0.26441
H	-4.8946201826	-5.8731419702	 0.1148836276	 0.265434
6.9682	22.3761	45.8191	87.0586	124.7677	140.9459	196.9328	231.7722	356.8917	365.4114	378.6503	412.3169	520.1446	566.7224	613.4636	721.1237	768.2518	772.5502	925.7889	1052.1948	1054.7493	1060.2819	1088.6298	1168.0656	1230.516	1334.1669	1349.6005	1414.6867	1446.9488	1477.6536	1477.8947	1607.0906	1775.6141	2354.1583	2384.7954	3002.7672	3025.6902	3029.5432	3090.8306	3093.0787	3603.0274	3745.7379
CC#CCC#CC(N)=O	CC#CCC#CC(=O)N	
InChI=1S/C7H7NO/c1-2-3-4-5-6-7(8)9/h4H2,1H3,(H2,8,9)	InChI=1S/C7H7NO/c1-2-3-4-5-6-7(8)9/h4H2,1H3,(H2,8,9)
