16
gdb 17712	6.66913	1.47059	1.41363	3.4262	69.26	-0.2398	0.009	0.2488	901.5797	0.130797	-346.550493	-346.543921	-346.542977	-346.581035	25.71	
C	-0.1563601889	 1.5985401875	-0.0284713789	-0.421669
C	-0.0222559764	 0.0850241598	 0.0081172012	-0.006858
C	 1.1945834334	-0.6005809019	-0.6542076167	-0.036728
C	 2.1585156101	-0.2545425756	 0.5512588371	-0.206879
C	 0.7418330129	-0.5967152387	 1.1660615168	-0.036728
C	 1.0722681584	-1.8648517617	 0.2845006278	-0.201892
C	 2.5440753464	-1.7261538037	 0.6502019899	 0.44881
O	 3.4950031851	-2.4070392096	 0.8883282853	-0.334223
H	 0.7883723933	 2.0995935932	 0.2055788723	 0.117493
H	-0.4785104078	 1.9370875622	-1.0193205731	 0.120836
H	-0.905015385	 1.9407327555	 0.6944354243	 0.120835
H	-0.9809208948	-0.3925765081	-0.2293156679	 0.072658
H	 1.4947641193	-0.6312086002	-1.7022258979	 0.088602
H	 2.7367722062	 0.654939528	 0.6931721864	 0.094951
H	 0.516039462	-0.622852603	 2.2327022619	 0.088604
H	 0.4287987958	-2.7279742437	 0.1263035815	 0.092191
141.2716	194.6942	216.6502	301.0876	431.4164	545.6889	645.0192	696.3905	768.3726	780.0252	811.4147	828.5627	838.7671	891.1643	957.3677	997.8532	1010.5644	1040.8867	1052.0222	1095.0276	1119.5587	1123.3178	1131.098	1134.2756	1176.7726	1208.6468	1237.911	1241.0555	1294.8386	1403.5145	1417.3228	1493.4692	1498.5581	1913.2495	3028.4437	3031.4272	3093.8176	3103.8833	3107.1758	3108.9879	3145.6814	3155.8654
CC1C2C3C1C2C3=O	C[C@H]1[C@H]2[C@H]3[C@@H]1[C@@H]2C3=O	
InChI=1S/C7H8O/c1-2-3-5-4(2)6(3)7(5)8/h2-6H,1H3	InChI=1S/C7H8O/c1-2-3-5-4(2)6(3)7(5)8/h2-6H,1H3/t2-,3-,4+,5-,6+
