17
gdb 72837	2.73135	1.56465	1.3027	2.3104	69.42	-0.2402	0.0137	0.2539	1012.3123	0.137644	-455.127664	-455.119932	-455.118987	-455.159877	29.906	
O	 0.1722449299	 1.3896242459	-0.0965925587	-0.475694
C	 0.048470443	 0.0012540066	-0.0070867658	 0.367351
C	 0.2938181942	-0.7421990323	-1.3316061785	-0.215841
N	-0.7828855909	-1.684913171	-0.9403438251	-0.318872
C	-1.3395763208	-0.6985553096	 0.0271925309	-0.147936
C	-1.5115475149	-1.2295197094	 1.4227861581	 0.437286
N	-2.5858131347	-1.6483553819	 1.9361999633	-0.548311
O	-0.3086619749	-1.1586793542	 2.0750494372	-0.247808
C	 0.7288031034	-0.6375064126	 1.2282714701	-0.147972
H	-0.067198924	 1.7832818612	 0.7499586893	 0.286912
H	 0.0495195319	-0.0887880416	-2.1785693608	 0.110615
H	 1.2742255403	-1.2019930242	-1.4944237892	 0.107112
H	-1.4191279638	-1.9669754483	-1.6758761065	 0.23373
H	-2.1937603352	-0.1123203634	-0.3199894251	 0.096821
H	-2.4288079698	-1.9569924697	 2.8981575154	 0.221217
H	 1.3997719282	-1.4560534342	 0.9502299232	 0.127431
H	 1.2939289779	 0.1063676987	 1.7983817122	 0.11396
110.2856	120.2332	229.7951	286.9384	332.1081	346.0397	381.6454	475.3989	601.1391	616.6372	654.6419	670.2894	782.7369	878.0198	888.3651	906.4732	950.0921	964.6045	992.2636	1015.7449	1037.5177	1059.2383	1113.0992	1127.7292	1158.4955	1178.0396	1215.2209	1256.1789	1283.4648	1326.8763	1334.2242	1368.157	1403.5135	1407.0424	1508.0811	1519.5183	1779.4239	3020.898	3045.9592	3074.4803	3086.389	3095.2418	3460.4993	3555.059	3800.9421
OC12CNC1C(=N)OC2	O[C@]12CN[C@H]1[C]([NH])OC2	
InChI=1S/C5H8N2O2/c6-4-3-5(8,1-7-3)2-9-4/h3,6-8H,1-2H2	InChI=1S/C5H8N2O2/c6-4-3-5(8,1-7-3)2-9-4/h3,6-8H,1-2H2/t3-,5-/m0/s1
