20
gdb 104102	2.92309	1.11572	1.05882	3.3233	75.	-0.2358	0.0383	0.2741	1233.9961	0.171161	-440.333791	-440.324485	-440.32354	-440.367675	35.056	
C	-0.4257639795	 1.7073543268	-0.023485211	-0.448803
C	 0.058599656	 0.2553736303	 0.0082169047	 0.291356
C	-1.1404868946	-0.7052139718	-0.0418267931	-0.105998
O	-1.8584856749	-0.4798640682	-1.2463349445	-0.425574
C	 1.0222157764	-0.0653823484	-1.1720612463	-0.201044
N	 1.9159564108	-1.0619386512	-0.6093999901	-0.303245
C	 1.9659049961	-1.0887530042	 0.7582069228	 0.400416
O	 2.7080064242	-1.7674283636	 1.4337085562	-0.38135
C	 0.9124099616	-0.088962456	 1.2477317337	-0.390894
H	 0.4187501071	 2.4029217053	 0.010378999	 0.111076
H	-1.0023926583	 1.9044779672	-0.9309406734	 0.136937
H	-1.0711369927	 1.920609665	 0.8356943523	 0.114191
H	-0.781981126	-1.7443477991	 0.0156728976	 0.098042
H	-1.7771432867	-0.5217889983	 0.8382135654	 0.090156
H	-2.5731231983	-1.1205065438	-1.2981426218	 0.291736
H	 0.4724988474	-0.4496858966	-2.0350020681	 0.127893
H	 1.5661281599	 0.8362212676	-1.4877914866	 0.097843
H	 2.6031939279	-1.5629062488	-1.1499480797	 0.248989
H	 1.4348443266	 0.7930868482	 1.6350433283	 0.124936
H	 0.3414511469	-0.5138351905	 2.0776370947	 0.123336
75.6748	130.3208	159.5618	226.9402	235.9035	256.0525	294.9783	344.6398	379.2704	422.2851	492.6897	523.6819	588.6092	623.8684	695.1065	789.7227	870.5033	897.5593	929.5653	953.5424	983.2241	1024.3062	1066.7115	1081.2391	1133.4509	1167.4482	1189.7124	1205.0934	1255.038	1262.162	1274.3106	1309.4157	1331.2626	1353.5789	1407.6198	1436.6389	1457.7307	1468.0478	1490.8126	1504.6579	1516.0589	1537.9934	1831.3119	2970.5434	2997.7951	3007.3122	3034.362	3050.3614	3091.6794	3098.5574	3101.0591	3121.0971	3640.5872	3839.2933
CC1(CO)CNC(=O)C1	C[C@@]1(CO)CNC(=O)C1	
InChI=1S/C6H11NO2/c1-6(4-8)2-5(9)7-3-6/h8H,2-4H2,1H3,(H,7,9)	InChI=1S/C6H11NO2/c1-6(4-8)2-5(9)7-3-6/h8H,2-4H2,1H3,(H,7,9)/t6-/m0/s1
