21
gdb 76547	2.43005	1.27159	1.16623	2.2279	79.7	-0.2218	0.0631	0.2849	1218.3786	0.180179	-424.190872	-424.180807	-424.179863	-424.225885	36.52	
C	-0.1352535286	 0.7389457881	-2.0545092346	-0.409848
C	 0.0400096326	-0.3965547514	-1.069815703	-0.092792
C	 1.3522966667	-0.6390391527	-0.3178703267	-0.119918
C	 2.5729613925	 0.2375125009	-0.5053750008	-0.409378
C	 0.1483458541	-0.1147204874	 0.3979656401	 0.430176
O	 0.0970317856	 1.2208531516	 0.9156804091	-0.309367
C	-0.850377613	 0.8156424582	 1.9312994236	-0.102062
C	-0.692698339	-0.6742254339	 1.5341052722	-0.035781
O	-1.8349497206	-1.3713608394	 1.1003958804	-0.424894
H	 0.2670279262	 1.676165055	-1.6636246127	 0.132303
H	 0.3584212706	 0.52272511	-3.008164016	 0.112371
H	-1.1984831155	 0.9030160143	-2.2592064044	 0.118915
H	-0.516081582	-1.2986583849	-1.3118893269	 0.095325
H	 1.5782063588	-1.6876278903	-0.1311608357	 0.079986
H	 2.3095274818	 1.297124243	-0.5201496842	 0.135282
H	 3.2802042336	 0.0917202327	 0.3181947878	 0.11498
H	 3.0945898356	-0.0000844829	-1.4388111826	 0.113866
H	-0.5212826881	 1.1102966867	 2.9336365536	 0.100113
H	-1.85775629	 1.2014967025	 1.7335023903	 0.104995
H	-0.1170194949	-1.2603840761	 2.2623259441	 0.077393
H	-2.2377398465	-1.8017465941	 1.8605044164	 0.288334
70.1574	127.1361	137.5404	145.0762	159.5098	193.4081	235.0298	245.1729	298.4756	431.5169	482.8779	534.3379	577.4035	591.2955	752.5763	792.7293	832.9484	909.7897	933.5919	987.9448	1008.2983	1011.3239	1045.481	1070.0094	1089.9333	1134.9796	1145.0971	1154.0455	1168.0916	1177.3719	1198.5272	1217.7378	1279.2298	1309.3433	1330.9448	1360.0411	1410.1205	1418.5412	1433.1262	1474.8321	1485.9848	1493.3146	1501.4773	1509.4429	1522.2295	3012.297	3022.0092	3033.3692	3036.6748	3079.3627	3089.582	3091.745	3110.2359	3121.7225	3131.8683	3145.5146	3827.043
CC1C(C)C11OCC1O	C[C@H]1[C@@H](C)[C@]21OC[C@H]2O	
InChI=1S/C7H12O2/c1-4-5(2)7(4)6(8)3-9-7/h4-6,8H,3H2,1-2H3	InChI=1S/C7H12O2/c1-4-5(2)7(4)6(8)3-9-7/h4-6,8H,3H2,1-2H3/t4-,5+,6-,7-/m1/s1
