23
gdb 95249	2.57087	1.41411	1.12867	1.3658	84.79	-0.2518	0.0692	0.321	1188.0969	0.208668	-388.295404	-388.287014	-388.286069	-388.327786	34.399	
O	-0.0272041683	 1.4394791218	-0.0639086504	-0.432389
C	 0.0146292325	 0.0120872151	 0.0107097086	 0.129262
C	 0.8662834292	-0.4522044766	 1.2077282876	-0.217001
C	 0.3780935439	 0.0406441261	 2.5820034572	-0.221946
C	-0.7724787424	-0.7846384807	 3.1269209207	 0.014654
C	-1.976321791	-0.1461085002	 3.7782307813	-0.32413
C	-2.1066715597	-0.7924188996	 2.419445857	 0.01316
C	-2.3116119508	 0.026345177	 1.1581600597	-0.225965
C	-1.4470242525	-0.4569447475	-0.0208796623	-0.185623
H	 0.8788266963	 1.7639842878	-0.0498984335	 0.279346
H	 0.4962743762	-0.3837416772	-0.8992597099	 0.057436
H	 0.9289488145	-1.5480865556	 1.1986796149	 0.093133
H	 1.8912920277	-0.0927237351	 1.0339164042	 0.07647
H	 1.2092680597	 0.013363926	 3.2968849793	 0.088358
H	 0.090696254	 1.0933294803	 2.490634336	 0.104501
H	-0.4640582626	-1.7413960895	 3.5427945441	 0.074208
H	-2.4272385324	-0.6318067681	 4.6370724319	 0.104145
H	-2.0046195421	 0.938975173	 3.8177701814	 0.108213
H	-2.613288175	-1.7550123676	 2.4032184452	 0.074088
H	-3.3692203455	-0.0191707919	 0.8720279866	 0.088762
H	-2.0939891357	 1.0832624364	 1.3389210027	 0.115178
H	-1.8735293997	-0.0849065028	-0.9594354826	 0.098349
H	-1.4643604163	-1.5523161109	-0.0775827797	 0.087791
118.9479	178.137	259.1038	267.1975	305.9387	313.0394	364.2203	371.9084	453.0078	459.4184	552.5602	673.9201	748.5604	752.9451	799.442	858.9621	885.5394	898.3893	915.1656	940.4584	942.1832	1027.1122	1037.5305	1051.2535	1062.8946	1074.8034	1093.8588	1108.9539	1139.3609	1171.3523	1216.3461	1222.7535	1234.2444	1251.6883	1279.2143	1283.495	1339.2808	1347.7242	1372.5528	1393.8151	1401.4426	1402.9507	1428.7383	1439.0113	1471.0126	1482.6909	1487.756	1494.6979	1507.1077	2949.5545	2997.3083	3027.2727	3031.3863	3037.1031	3046.0976	3069.6504	3073.7185	3087.0788	3118.7233	3121.6347	3130.7829	3206.2442	3815.626
OC1CCC2CC2CC1	O[C@H]1CC[C@H]2C[C@H]2CC1	
InChI=1S/C8H14O/c9-8-3-1-6-5-7(6)2-4-8/h6-9H,1-5H2	InChI=1S/C8H14O/c9-8-3-1-6-5-7(6)2-4-8/h6-9H,1-5H2/t6-,7+,8-
