17
gdb 71334	3.10036	1.59313	1.23029	2.3371	73.03	-0.2384	-0.0343	0.204	1009.217	0.133851	-421.744867	-421.737015	-421.736071	-421.777332	29.807	
C	 0.2862199533	 1.4710697598	 0.0552104687	-0.534397
C	 0.1211823525	-0.0128126168	 0.085707507	 0.471944
O	 0.6303624507	-0.7803094362	-1.061179809	-0.353277
C	 0.0844662418	-1.7859734515	-0.1767891754	 0.080746
C	 0.562325796	-1.0970983613	 1.1358257465	-0.136646
C	-0.844686921	-1.2162354765	 1.764160219	-0.13161
C	-1.3103035942	-0.2153904503	 2.7809428141	 0.132863
O	-0.7514429287	 0.8231446211	 3.0412066234	-0.25192
C	-1.1429500999	-0.9333556136	 0.2558251212	-0.154031
H	 1.3453763077	 1.719833583	-0.0637563562	 0.13531
H	-0.2627891978	 1.8960548077	-0.7907575279	 0.129293
H	-0.0755910913	 1.9110136475	 0.9854156716	 0.162786
H	 0.1279568142	-2.8349483988	-0.4669678236	 0.099047
H	 1.5366296921	-1.1876343578	 1.6142634467	 0.092562
H	-1.1405491157	-2.2248661374	 2.076668361	 0.085282
H	-2.2538322498	-0.4936044795	 3.3046148879	 0.080695
H	-2.10331839	-0.8464886095	-0.2524293452	 0.091352
81.0479	159.854	185.4785	211.3942	272.7332	311.3777	415.1342	542.5283	631.5471	675.2145	735.0105	767.6084	803.5161	816.6201	855.1114	886.9942	914.5024	960.8782	988.591	1022.8731	1052.2124	1071.1661	1106.6121	1115.6069	1124.4446	1162.5148	1179.2823	1212.7195	1228.8632	1279.2282	1368.0094	1383.5856	1415.4661	1427.5578	1481.3114	1488.8258	1814.5753	2866.8055	3041.3937	3046.0868	3110.9345	3118.7836	3127.0112	3138.3875	3154.4216
CC12OC3C1C(C=O)C23	C[C@@]12O[C@H]3[C@@H]1[C@@H](C=O)[C@@H]23	
InChI=1S/C7H8O2/c1-7-4-3(2-8)5(7)6(4)9-7/h2-6H,1H3	InChI=1S/C7H8O2/c1-7-4-3(2-8)5(7)6(4)9-7/h2-6H,1H3/t3-,4+,5-,6+,7-
