17
gdb 33848	4.07995	1.29697	1.1553	1.2508	77.96	-0.2378	0.0376	0.2754	1067.3728	0.136099	-384.633775	-384.626392	-384.625448	-384.665295	29.954	
C	-0.0550805107	-1.1656378593	-0.1639130528	-0.404429
C	-0.0268299353	 0.034353502	-0.074323621	 0.193279
C	-0.0111845704	 1.4609388077	 0.049714933	 0.152173
C	 0.4530561746	 2.2907699721	-1.1354820831	-0.316594
C	 1.3110335765	 2.2498293431	 0.0967452945	-0.105029
C	 1.115068017	 3.3650920675	 1.0953316375	 0.026805
O	 0.1123561225	 4.3244979115	 0.7275813124	-0.254536
C	-0.2430870583	 3.2942166375	 1.6599381098	 0.043379
C	-0.9823912899	 2.1078433471	 1.0602260156	-0.32954
H	-0.0771130332	-2.2235113495	-0.2487062768	 0.187041
H	 0.7953631639	 1.7355092787	-2.0006843052	 0.122523
H	-0.0741636056	 3.2137398865	-1.342546386	 0.139947
H	 2.2612563411	 1.7312954303	 0.0789685969	 0.101447
H	 1.9686682688	 3.7657907636	 1.6341888719	 0.100318
H	-0.5014384255	 3.6469889362	 2.6558365109	 0.099407
H	-1.9295184336	 2.4045508212	 0.5985258708	 0.123779
H	-1.2112606119	 1.3878216538	 1.8519318416	 0.120028
126.7359	149.9247	270.5414	299.7688	401.7486	445.8182	518.1745	553.6427	574.5198	601.2749	650.7332	694.0233	718.9958	791.0282	826.5313	868.2967	891.0187	922.7175	935.8841	977.4455	1003.339	1046.713	1057.9239	1091.6292	1094.54	1110.7955	1193.0968	1237.9835	1239.3569	1271.343	1315.3236	1334.526	1379.1977	1420.8165	1470.0928	1478.4615	2232.2829	3054.3306	3097.6407	3138.5834	3147.7124	3158.9403	3198.1901	3244.5739	3504.5237
C#CC12CC1C1OC1C2	C#C[C@]12C[C@H]1[C@H]1O[C@H]1C2	
InChI=1S/C8H8O/c1-2-8-3-5(8)7-6(4-8)9-7/h1,5-7H,3-4H2	InChI=1S/C8H8O/c1-2-8-3-5(8)7-6(4-8)9-7/h1,5-7H,3-4H2/t5-,6-,7+,8+/m0/s1
