20
gdb 122599	4.1912	0.7492	0.68172	2.1637	77.93	-0.2574	0.0256	0.283	1683.3211	0.170065	-440.274345	-440.264663	-440.263719	-440.310596	33.951	
C	 0.1077006148	 0.9785143217	-1.2010167429	-0.38189
C	-0.5703218565	 0.3129563443	-0.0153322207	-0.044672
O	-0.6656275427	-1.0762431499	-0.2816745336	-0.243545
C	-1.1878801375	-1.8481702366	 0.7787855185	-0.084974
C	-2.7151585004	-1.8029490892	 0.8455566892	-0.151607
C	-3.4855712268	-2.5327500907	-0.2738499969	-0.08947
O	-4.0273105804	-3.4761459679	 0.7075564453	-0.254115
C	-3.3583815658	-2.8478320223	 1.7373249904	 0.428696
N	-3.3100016933	-3.1051849718	 2.9633043081	-0.546069
H	 0.2028631857	 2.0548964622	-1.0302165655	 0.117031
H	 1.1057435213	 0.5593285653	-1.3554424127	 0.129355
H	-0.4743722049	 0.8220568218	-2.1136762484	 0.12626
H	 0.0100412077	 0.4770189629	 0.9072637658	 0.093294
H	-1.5668052338	 0.7536507052	 0.1481331254	 0.088403
H	-0.8622238133	-2.8783776215	 0.5970183491	 0.112814
H	-0.7709839487	-1.5338104788	 1.7470009473	 0.112648
H	-3.071187564	-0.7902226611	 1.0483347033	 0.109076
H	-4.2884203562	-1.9762027841	-0.7620904589	 0.121409
H	-2.8707829152	-3.0475739112	-1.0161616527	 0.128544
H	-3.87731713	-3.9222409083	 3.1961218099	 0.228812
42.8137	48.7301	90.4834	130.709	158.9627	236.4733	267.0695	294.2956	389.4843	468.7213	544.6718	636.229	724.5229	820.2536	856.4572	861.7897	874.561	925.3359	964.6987	967.6523	1014.2321	1031.9341	1105.5895	1115.0508	1142.055	1149.9812	1172.3395	1188.0369	1220.2243	1239.1745	1290.2471	1305.8567	1335.9262	1371.4969	1397.8431	1411.2881	1432.2328	1483.1808	1490.3909	1499.3554	1519.4865	1528.5603	1821.1498	2966.2945	2993.5676	3001.7536	3046.0107	3064.2969	3068.3199	3093.535	3120.549	3123.8321	3127.0752	3475.0858
CCOCC1COC1=N	CCOC[C@H]1CO[C]1[NH]	
InChI=1S/C6H11NO2/c1-2-8-3-5-4-9-6(5)7/h5,7H,2-4H2,1H3	InChI=1S/C6H11NO2/c1-2-8-3-5-4-9-6(5)7/h5,7H,2-4H2,1H3/t5-/m0/s1
