18
gdb 6299	4.1093	1.09018	0.96191	2.3407	74.46	-0.2464	-0.0163	0.2301	1245.3007	0.14971	-347.800058	-347.790337	-347.789393	-347.835053	34.302	
C	-0.1270947659	 1.6533798537	 0.0251742416	-0.39576
C	-0.0391034005	 0.1135851032	 0.0330289	-0.154833
C	 0.7789614522	-0.4094353611	 1.2315171092	-0.303113
C	 2.2762724351	-0.1433962851	 1.1187526899	 0.381749
C	 3.0977928454	-0.4288101788	 2.3626728956	-0.474457
O	 2.7833199721	 0.2576436267	 0.0955522171	-0.293402
C	-1.3700266702	-0.4904689403	 0.0244843768	 0.304022
C	-2.4683263287	-0.9798218171	 0.039386569	-0.449376
H	 0.8752785955	 2.0840325788	-0.0240391284	 0.136068
H	-0.6969484165	 2.000774004	-0.840102276	 0.127487
H	-0.6300264308	 2.0163056385	 0.9273268918	 0.117392
H	 0.4940787161	-0.1942460667	-0.8745678516	 0.126872
H	 0.4014603634	 0.0085536811	 2.1733600292	 0.122604
H	 0.6541401527	-1.496393409	 1.3272075308	 0.136493
H	 2.8743509295	-1.4243513477	 2.7607628391	 0.13778
H	 4.1607872492	-0.3466214052	 2.1333553779	 0.144789
H	 2.8395717658	 0.2916200688	 3.1478166981	 0.143834
H	-3.4370465844	-1.4143754838	 0.0345406597	 0.191851
49.1917	77.9265	114.8192	132.2071	193.7214	229.3131	278.0205	322.4357	369.5012	471.9575	520.877	542.1733	585.8138	624.3966	636.6483	807.1476	823.4648	849.5949	940.6713	962.5397	988.3521	1081.54	1111.2582	1143.1082	1175.7462	1243.1775	1290.3004	1339.5714	1372.2837	1384.3908	1403.7225	1445.4333	1463.6706	1476.3194	1496.4445	1503.5471	1807.4047	2234.4437	3025.5365	3037.5671	3038.5377	3046.4138	3062.554	3098.2259	3117.8585	3137.145	3152.9124	3505.279
CC(CC(C)=O)C#C	C[C@@H](CC(=O)C)C#C	
InChI=1S/C7H10O/c1-4-6(2)5-7(3)8/h1,6H,5H2,2-3H3	InChI=1S/C7H10O/c1-4-6(2)5-7(3)8/h1,6H,5H2,2-3H3/t6-/m1/s1
