23
gdb 58219	2.16302	1.09081	1.08295	2.6836	82.02	-0.2565	-0.0358	0.2207	1361.0876	0.202611	-425.447769	-425.436758	-425.435814	-425.483914	40.155	
C	 0.2452872444	 1.5444868892	 0.0482479381	-0.387502
C	 0.0387703971	 0.0577298737	 0.3721888491	 0.00035
C	 0.4777198484	-0.2392264464	 1.8142984986	-0.398853
C	-1.4342733195	-0.3356669744	 0.1044882536	 0.136339
O	-1.8357921725	-0.0016983888	-1.2178816996	-0.448038
C	-1.7779921189	-1.8135187356	 0.4043331063	-0.101139
C	-3.299946002	-2.0719110383	 0.3202026033	-0.409934
C	-1.0953733813	-2.7868202443	-0.5328752489	 0.163101
O	-0.5696345994	-2.5016438056	-1.5849453818	-0.265485
H	 1.3021748554	 1.8170470378	 0.1314222199	 0.104584
H	-0.0990589778	 1.7757827827	-0.9612016916	 0.130484
H	-0.3170043925	 2.1760824831	 0.7473074089	 0.106185
H	 0.6672674056	-0.5301158904	-0.3094110934	 0.085325
H	 0.5077088913	-1.3095506649	 2.0389844476	 0.107137
H	 1.4824589854	 0.1556746165	 1.9948058729	 0.116396
H	-0.1949453269	 0.2378189813	 2.5380738333	 0.112503
H	-2.0641435346	 0.2826172961	 0.7601179121	 0.077964
H	-1.3305600404	-0.5875050457	-1.7992342532	 0.2908
H	-1.4550191665	-2.0789096	 1.4188796475	 0.09412
H	-3.6821673217	-1.7202374617	-0.6405272581	 0.150321
H	-3.5383337815	-3.1349036719	 0.4304628558	 0.115691
H	-3.8149696689	-1.5281921027	 1.1170540463	 0.127727
H	-1.1361437732	-3.8503568297	-0.2044267467	 0.091924
45.0335	99.6417	105.3372	171.8981	219.1805	222.8176	224.7641	236.2315	280.4709	318.1429	365.9665	378.1088	433.4374	473.8016	505.5349	595.5566	745.0715	826.8898	860.8599	909.481	926.231	933.0458	959.0586	980.9123	996.1837	1047.8795	1093.0653	1134.2284	1151.5651	1172.1335	1190.2815	1276.532	1282.1243	1312.6957	1352.1579	1373.6246	1389.7874	1395.0212	1399.1663	1419.0949	1429.9396	1454.1019	1488.9774	1490.9704	1492.2281	1505.528	1507.0503	1513.3384	1803.4555	2875.2504	3003.5459	3023.8287	3025.575	3032.4041	3036.897	3041.8851	3088.5661	3095.4369	3102.6878	3108.3249	3135.1883	3137.3544	3740.2972
CC(C)C(O)C(C)C=O	CC(C)[C@@H](O)[C@@H](C)C=O	
InChI=1S/C7H14O2/c1-5(2)7(9)6(3)4-8/h4-7,9H,1-3H3	InChI=1S/C7H14O2/c1-5(2)7(9)6(3)4-8/h4-7,9H,1-3H3/t6-,7+/m0/s1
