16
gdb 37779	3.02446	2.03924	1.4911	3.5805	72.98	-0.2268	-0.0325	0.1942	877.5359	0.126159	-400.675087	-400.6687	-400.667756	-400.705479	26.483	
C	-0.04428241	 1.4256172003	 0.0841864011	-0.236259
C	 1.3599944315	 2.0500415748	 0.0351750673	-0.063938
C	 2.3042173705	 1.8151774383	-0.8870550157	-0.051938
C	 2.1138940225	 1.08736666	-2.1868564383	-0.083595
C	 1.9724352943	-0.4235146796	-2.546700532	 0.070634
O	 1.5301181651	-1.272950344	-1.45756866	-0.260135
C	 0.5585897891	-0.3171909226	-1.1820578119	 0.370445
N	 0.1222787167	-0.0326038124	-0.0446832181	-0.246599
C	 0.780008551	 0.4575628588	-2.4815816471	-0.27401
H	-0.5164662645	 1.6470860482	 1.0430507531	 0.115244
H	-0.6822883848	 1.8624881012	-0.6997214046	 0.116066
H	 1.6183542524	 2.6943136065	 0.8712110037	 0.101163
H	 3.2792220255	 2.2764987048	-0.7502533195	 0.093593
H	 2.5566139069	 1.6126040139	-3.0344676966	 0.10506
H	 2.4975034699	-0.8997973661	-3.3633344409	 0.125597
H	 0.0426088938	 0.757768638	-3.2132052205	 0.118673
188.9756	250.7296	312.2179	358.6052	481.612	528.4161	550.829	685.2307	693.726	735.0169	775.0856	795.9071	827.2186	876.4078	884.2543	933.3236	959.9652	989.4328	1011.4098	1021.3823	1043.0858	1062.4057	1085.7094	1103.9392	1151.4113	1218.4863	1245.815	1254.5952	1319.978	1337.007	1397.2347	1407.6927	1492.6484	1676.4414	1789.5411	2985.2013	3101.2369	3101.9948	3148.5021	3172.6577	3202.0225	3220.2529
C1C=CC2C3OC(=N1)C23	C1C=C[C@H]2[C@H]3O[C]([N]1)[C@@H]23	
InChI=1S/C7H7NO/c1-2-4-5-6(4)9-7(5)8-3-1/h1-2,4-6H,3H2	InChI=1S/C7H7NO/c1-2-4-5-6(4)9-7(5)8-3-1/h1-2,4-6H,3H2/t4-,5+,6-/m1/s1
