18
gdb 62855	2.92084	1.59099	1.39431	2.821	72.93	-0.254	0.022	0.2761	993.3449	0.148223	-439.079296	-439.071536	-439.070592	-439.111039	31.345	
C	-0.1454569406	 1.5574923943	 0.0213933316	-0.454673
C	-0.0054949576	 0.0446338073	 0.0013663209	 0.450263
O	-1.2896481314	-0.458115546	-0.2255242062	-0.484306
C	 1.1528733867	-0.5846614886	-0.8346311701	 0.018203
C	 2.1251675576	-0.2310495733	 0.3046058726	-0.259236
C	 0.8731111172	-0.5975511375	 1.1754101615	-0.189626
C	 0.7509195682	-2.0439145228	 0.7863102998	 0.426377
N	 0.5333993326	-3.0659107475	 1.485884894	-0.570943
O	 0.9188607479	-2.0109467131	-0.5975940267	-0.285528
H	 0.7790807847	 2.0791123208	 0.2687890757	 0.121174
H	-0.4951674622	 1.9060225284	-0.9548881478	 0.131832
H	-0.9036640614	 1.8293034846	 0.7611355627	 0.140519
H	-1.2129357679	-1.3941482694	-0.4470934879	 0.295527
H	 1.3247605804	-0.4189691252	-1.8966179267	 0.093061
H	 2.9993179705	-0.8762201951	 0.4020383778	 0.124055
H	 2.4125223967	 0.8167386537	 0.3525262611	 0.119728
H	 0.7611165734	-0.3491966978	 2.2267457099	 0.098748
H	 0.5116310254	-3.9065108927	 0.9045791478	 0.224824
149.6879	173.071	200.6759	287.3843	379.9331	387.806	437.0726	455.2618	491.1605	554.8799	637.1509	675.3749	743.0429	791.8438	842.3502	861.9964	893.7565	895.8634	929.8745	963.7744	983.6743	1014.0817	1070.036	1080.4751	1098.7503	1110.0954	1153.5553	1212.7768	1219.5105	1225.6471	1261.7037	1274.5765	1341.5676	1392.9416	1426.9754	1481.3468	1490.2341	1507.8082	1810.1045	3053.9357	3097.718	3116.9623	3143.7129	3147.4672	3170.5474	3173.593	3463.3202	3787.3232
CC1(O)C2CC1C(=N)O2	C[C@@]1(O)[C@H]2C[C@@H]1[C]([NH])O2	
InChI=1S/C6H9NO2/c1-6(8)3-2-4(6)9-5(3)7/h3-4,7-8H,2H2,1H3	InChI=1S/C6H9NO2/c1-6(8)3-2-4(6)9-5(3)7/h3-4,7-8H,2H2,1H3/t3-,4-,6+/m1/s1
