22
gdb 100076	3.31608	0.89785	0.84637	19.0492	87.41	-0.1478	-0.0425	0.1053	1450.4749	0.192349	-441.435529	-441.425032	-441.424088	-441.470939	39.124	
C	-0.0511818371	 1.5739344496	 0.0760654478	-0.445475
C	 0.0118023151	 0.0333184227	 0.0580025731	 0.294434
C	 0.7196582251	-0.4895430204	 1.32423895	-0.445485
C	-1.3942539994	-0.5518433666	-0.0410357461	-0.240062
N	-2.227780135	-0.1209273627	 1.1864277752	-0.421725
H	-3.1835923552	-0.4799467671	 1.1832234907	 0.322336
H	-1.7429739342	-0.4400205042	 2.0300352301	 0.326237
H	-2.2444968424	 0.902421363	 1.218195867	 0.326237
C	 0.76456593	-0.4488162897	-1.2039286059	-0.372409
C	 2.2868633917	 0.0309254641	-1.3511330829	 0.352096
O	 2.729765543	 0.7555769632	-0.4263140291	-0.468451
O	 2.8171152034	-0.3924183922	-2.3787563653	-0.444243
H	 0.9845757207	 1.92237874	 0.0160713886	 0.208171
H	-0.6095265925	 1.9638868203	-0.7838464378	 0.102349
H	-0.4941900239	 1.9849914754	 0.9989050791	 0.056452
H	 0.2857828483	-0.1028036327	 2.26181071	 0.056453
H	 0.7164549065	-1.5857743859	 1.3633212702	 0.102339
H	 1.7543423024	-0.1382275481	 1.262446172	 0.208181
H	-1.9464507518	-0.1871159241	-0.9101389599	 0.152766
H	-1.4021461361	-1.6441258014	-0.0290067574	 0.152765
H	 0.7702124571	-1.5457962483	-1.2362631701	 0.08852
H	 0.2343954842	-0.1117902549	-2.1038015796	 0.088517
50.2306	97.6983	155.8967	158.7874	201.453	282.6592	290.5559	295.1909	332.8384	348.8453	351.6935	394.9407	409.7803	555.5654	589.4506	680.3303	747.9562	790.0546	823.6327	828.9898	886.5332	913.6281	948.5236	961.7059	973.4746	1056.0392	1062.5666	1146.258	1167.2189	1236.0188	1274.9085	1275.1208	1321.262	1334.6489	1360.8715	1372.8676	1404.1427	1434.1215	1446.607	1457.0105	1481.7134	1492.2264	1525.4072	1540.1541	1627.7148	1659.5124	1778.5158	2955.4052	2965.9902	3015.4767	3048.5929	3051.9884	3061.1344	3077.0414	3101.6194	3107.5613	3142.2391	3393.0645	3476.0355	3509.8562
CC(C)(C[NH3+])CC([O-])=O	CC(C)(C[NH3])CC(=O)[O]	
InChI=1S/C6H13NO2/c1-6(2,4-7)3-5(8)9/h3-4,7H2,1-2H3,(H,8,9)	InChI=1S/C6H13NO2/c1-6(2,4-7)3-5(8)9/h3-4H2,1-2,7H3
