16
gdb 34849	2.6882	1.65943	1.51914	2.226	71.97	-0.2561	-0.0146	0.2415	932.7052	0.126407	-400.745198	-400.738259	-400.737315	-400.776496	27.397	
N	-0.1467732555	-1.2238207717	-0.2305879398	-0.336273
C	-0.0713788617	-0.0746501635	-0.1283552683	 0.284755
C	 0.001370152	 1.3673394397	 0.0094711967	-0.179809
C	-0.1193110532	 2.054731139	 1.4046103415	 0.075926
C	 0.6017587745	 1.2764381275	 2.5122173521	-0.281012
C	 2.0007615809	 0.9312397307	 2.0454612746	-0.048204
C	 2.3884910448	 1.3252102283	 0.8328334569	-0.064494
C	 1.3739977924	 2.1164476804	 0.0390502859	 0.038509
O	 0.7550541866	 3.1049186911	 0.915297679	-0.291525
H	-0.6793943819	 1.8496332711	-0.6945400949	 0.13788
H	-1.1005769134	 2.4312443324	 1.7009558819	 0.095852
H	 0.6377121364	 1.8909564499	 3.4205866927	 0.126801
H	 0.0424196074	 0.367637383	 2.7692383172	 0.132557
H	 2.6486222137	 0.3690801139	 2.7102737115	 0.108765
H	 3.3614337874	 1.1014299839	 0.4114695695	 0.10468
H	 1.7454061997	 2.5549673644	-0.8875241265	 0.09559
127.2264	143.6074	283.5412	338.5519	413.7242	470.4523	517.7782	554.8775	627.8999	662.507	736.6806	820.1761	847.2926	887.5422	911.9686	922.6654	967.442	995.974	1013.2128	1029.221	1032.0592	1107.0721	1120.6445	1171.0935	1198.4491	1232.671	1303.0854	1310.6415	1321.7287	1356.2561	1372.1395	1397.9066	1460.9107	1696.2672	2355.031	3026.4257	3059.2827	3091.6436	3101.4545	3114.8309	3178.4614	3206.0532
N#CC1C2CC=CC1O2	N#C[C@H]1[C@H]2CC=C[C@@H]1O2	
InChI=1S/C7H7NO/c8-4-5-6-2-1-3-7(5)9-6/h1-2,5-7H,3H2	InChI=1S/C7H7NO/c8-4-5-6-2-1-3-7(5)9-6/h1-2,5-7H,3H2/t5-,6+,7-/m1/s1
