24
gdb 88824	2.93828	1.07894	0.87936	1.2884	90.08	-0.2183	0.0782	0.2965	1430.379	0.217243	-368.371007	-368.361259	-368.360314	-368.405904	36.932	
C	-2.1782168201	-0.0622708844	 1.6721334125	-0.392617
C	-1.5242867504	-1.4217329657	 1.9086000411	-0.003231
C	-1.1184060352	-2.1609547223	 0.5978277973	-0.221714
C	 0.3461661019	-1.6990291469	 0.8154784391	-0.240184
C	-0.0028637051	-1.3997767306	 2.3023623453	 0.028946
C	 0.5777036656	-0.17432142	 2.957367349	 0.000101
C	 0.6621285097	-0.0510285219	 4.444720383	-0.263775
N	 1.8751792201	-0.1562457917	 3.6453332165	-0.089647
C	 2.6608876677	-1.3752004219	 3.7629164444	-0.311448
H	-1.6116103383	 0.547836353	 0.9599779263	 0.11414
H	-3.1847494557	-0.1934925628	 1.2601196147	 0.110882
H	-2.2691154771	 0.509006484	 2.6018732423	 0.117444
H	-2.1501963455	-2.0025772956	 2.5934259763	 0.063796
H	-1.2256291168	-3.2457449017	 0.6846012068	 0.097131
H	-1.6157294128	-1.8375556118	-0.320864451	 0.092857
H	 1.1433702372	-2.4211110977	 0.6224157056	 0.095129
H	 0.5759665895	-0.7823332629	 0.2634010663	 0.101506
H	 0.2046403524	-2.2839859629	 2.911314575	 0.065723
H	 0.4113323913	 0.743422047	 2.394211697	 0.08287
H	 0.4918841419	 0.9009946629	 4.9419304555	 0.109742
H	 0.3595317889	-0.9234272111	 5.0253721412	 0.099388
H	 2.0802586103	-2.2818268366	 3.9944870336	 0.099184
H	 3.2082264601	-1.5470074554	 2.8302980769	 0.122307
H	 3.3943385802	-1.2382014429	 4.5644114851	 0.121471
47.4054	105.3262	122.3015	186.122	221.1825	242.9886	263.3954	348.7283	362.1982	413.134	441.4222	512.6656	674.8598	742.8604	773.7631	810.4993	878.7885	885.0417	913.7077	927.0444	955.6754	983.2358	1024.8148	1035.7179	1051.0357	1093.1804	1116.7046	1126.2452	1136.6796	1164.2659	1165.5776	1202.3836	1212.5983	1218.5047	1252.0077	1260.7171	1280.0978	1284.3021	1312.0406	1342.3476	1367.3522	1411.6143	1438.5554	1450.4349	1480.1772	1489.0134	1497.3542	1498.6824	1500.7362	1503.2019	1511.7121	2976.7961	3026.8836	3040.9894	3049.7083	3056.0557	3060.7736	3067.073	3076.5389	3091.7026	3094.2385	3097.2752	3097.9265	3105.4853	3113.3269	3163.5965
CC1CCC1C1CN1C	C[C@H]1CC[C@H]1[C@H]1CN1C	
InChI=1S/C8H15N/c1-6-3-4-7(6)8-5-9(8)2/h6-8H,3-5H2,1-2H3	InChI=1S/C8H15N/c1-6-3-4-7(6)8-5-9(8)2/h6-8H,3-5H2,1-2H3/t6-,7+,8+,9?/m0/s1
