21
gdb 40874	3.32929	1.51886	1.34545	0.1902	86.11	-0.2189	0.0143	0.2332	1044.1552	0.184701	-349.909452	-349.902178	-349.901234	-349.940891	30.596	
C	-0.0624028571	 1.5512689327	-0.1262577676	-0.2154
C	 1.4828172342	 1.5337644255	 0.0203570739	-0.305049
C	 1.3726366205	 0.0907772853	 0.5860614691	 0.436138
C	-0.069334061	 0.0056307092	 0.0346022712	-0.309499
C	 2.5035159001	-0.9789827669	 0.4097604069	-0.1516
C	 3.1992936561	-0.2711748872	 1.6224585013	-0.218704
C	 1.7138654657	-0.1519103477	 2.1044385395	-0.132266
C	 1.3448880587	-1.6360082303	 2.2309450476	-0.089284
C	 1.859757404	-2.1766852249	 1.1220975176	-0.082267
H	-0.5487614684	 2.0542026982	 0.7140021915	 0.100637
H	-0.469802381	 1.9589225281	-1.053987721	 0.094689
H	 1.9874986412	 1.5518594645	-0.9514704046	 0.098061
H	 1.9381365301	 2.296049952	 0.6582196271	 0.096518
H	-0.8280396688	-0.4372154159	 0.6831672679	 0.097655
H	-0.1029439318	-0.5061023367	-0.9328227014	 0.097041
H	 3.0043569232	-1.138309156	-0.5461495873	 0.051778
H	 3.8725657272	-0.8777316257	 2.2325853998	 0.089711
H	 3.6596218143	 0.6879040969	 1.3681866953	 0.095445
H	 1.4037887945	 0.5395548288	 2.8889794928	 0.054924
H	 0.7877600909	-2.0949074707	 3.035377557	 0.095487
H	 1.8387263975	-3.1987283191	 0.7711954433	 0.095986
100.5225	205.4815	211.4801	319.6392	407.56	508.161	537.2777	547.8531	680.7327	720.1322	736.6254	783.795	826.3122	832.2775	863.6773	882.7947	907.7703	914.4303	933.6532	941.1359	960.2486	983.9303	1023.4283	1041.8889	1084.0223	1087.752	1112.9844	1116.7672	1169.2491	1171.6026	1200.6469	1216.6533	1232.1965	1243.7502	1252.9173	1256.1706	1270.7944	1278.1677	1306.208	1325.8107	1470.348	1481.4044	1494.3916	1503.3744	1621.8466	3041.4483	3049.6837	3053.5597	3059.8149	3090.5283	3103.3431	3103.9179	3107.1969	3118.	3119.2159	3216.2407	3243.5388
C1CC2(C1)C1CC2C=C1	C1CC2(C1)[C@H]1C[C@@H]2C=C1	
InChI=1S/C9H12/c1-4-9(5-1)7-2-3-8(9)6-7/h2-3,7-8H,1,4-6H2	InChI=1S/C9H12/c1-4-9(5-1)7-2-3-8(9)6-7/h2-3,7-8H,1,4-6H2/t7-,8+
