19
gdb 84956	2.15491	1.63814	1.10288	4.5847	75.36	-0.2281	-0.0846	0.1435	1147.1064	0.157829	-423.073974	-423.064928	-423.063984	-423.107727	33.756	
C	 0.4203082184	 1.6600769275	-0.1435264903	-0.395966
C	 0.0631072394	 0.174064289	-0.0152072031	-0.03366
C	 0.5964424613	-0.6334540595	-1.2256193381	-0.343341
C	 2.0288560185	-0.9888306328	-0.8580846972	 0.32709
O	 2.9357135018	-1.2984194968	-1.5816701418	-0.27999
C	 2.1318265324	-0.8666933307	 0.6940790971	 0.308571
O	 3.1420484227	-1.0123170017	 1.3285529913	-0.291254
C	 0.7419560906	-0.5171457383	 1.2055951837	-0.10224
C	 0.7351150507	 0.2029663603	 2.5499213322	-0.412982
H	 1.50522787	 1.8132201767	-0.20206613	 0.127634
H	-0.0192597225	 2.0813457641	-1.0529152924	 0.123135
H	 0.0495442633	 2.2400743035	 0.7056675384	 0.127278
H	-1.0240057348	 0.0795104672	 0.0609767714	 0.083045
H	 0.0406616552	-1.5744761852	-1.3393569929	 0.133562
H	 0.5434285636	-0.1071576231	-2.1815433366	 0.132742
H	 0.2411842455	-1.4929493748	 1.3273822207	 0.10967
H	 1.2516645925	 1.1648053044	 2.49207495	 0.130786
H	-0.2863990082	 0.381922864	 2.898736503	 0.116118
H	 1.2563720197	-0.4007987938	 3.2971859343	 0.139802
69.3017	105.6248	187.0925	222.1557	236.6038	283.6313	315.6903	355.3239	368.266	469.6941	506.3724	564.965	649.3526	677.5184	719.5793	810.7911	880.0088	918.0535	982.4487	996.7342	1006.8899	1039.611	1074.1733	1098.019	1135.1621	1184.6953	1218.9589	1228.6403	1282.3738	1312.6815	1351.9944	1374.8177	1410.6988	1418.1395	1443.9102	1489.695	1493.41	1497.0938	1510.1008	1840.5477	1859.8602	2967.1769	3024.3376	3028.9271	3046.763	3058.5452	3096.6302	3106.8661	3115.3702	3118.4843	3125.2796
CC1CC(=O)C(=O)C1C	C[C@H]1CC(=O)C(=O)[C@H]1C	
InChI=1S/C7H10O2/c1-4-3-6(8)7(9)5(4)2/h4-5H,3H2,1-2H3	InChI=1S/C7H10O2/c1-4-3-6(8)7(9)5(4)2/h4-5H,3H2,1-2H3/t4-,5-/m0/s1
