13
gdb 23970	6.54685	0.90195	0.79273	0.2721	87.57	-0.2216	-0.0304	0.1912	1339.0697	0.087812	-382.255848	-382.248006	-382.247062	-382.288176	29.631	
C	 0.1533222964	-1.1865808814	-0.0059142327	-0.394289
C	 0.0387053095	 0.0121152087	 0.002244491	 0.23643
C	-0.1098134298	 1.4090735653	 0.0119904526	 0.257328
C	-1.2069439477	 2.2217122671	 0.0317173985	-0.425048
C	-0.7212262746	 3.5732837723	 0.032393438	 0.143227
C	 0.6455682322	 3.4664464232	 0.0127954863	-0.117292
O	 1.0312014788	 2.1768698742	 0.000339669	-0.170088
C	-1.4839191013	 4.7635491611	 0.0495433044	 0.195686
C	-2.1454790101	 5.7690367794	 0.0642696111	-0.403102
H	 0.2537608881	-2.2437934506	-0.0130895757	 0.197895
H	-2.2369526836	 1.9059909464	 0.0443084532	 0.134595
H	 1.4319949659	 4.2026164261	 0.0059038458	 0.15461
H	-2.7250643837	 6.6585302781	 0.0772165786	 0.190047
106.5872	115.155	194.4961	209.3108	426.0314	470.7247	487.2156	508.004	552.0041	567.4098	572.3499	645.2758	657.594	669.0487	688.786	693.1581	779.2974	847.1075	952.7844	998.794	1154.8721	1190.8221	1211.5655	1297.1858	1356.002	1535.8307	1614.8624	2234.5818	2239.8946	3278.3203	3284.2047	3501.9011	3503.7334
C#CC1=CC(=CO1)C#C	C#Cc1cc(co1)C#C	
InChI=1S/C8H4O/c1-3-7-5-8(4-2)9-6-7/h1-2,5-6H	InChI=1S/C8H4O/c1-3-7-5-8(4-2)9-6-7/h1-2,5-6H
