23
gdb 122150	2.65781	0.74216	0.62835	2.9793	79.85	-0.2468	0.0709	0.3177	1858.856	0.202821	-462.535191	-462.523706	-462.522761	-462.573101	39.484	
C	 0.0273804786	 1.3740039411	-0.0860872594	-0.225753
O	-0.0757384785	-0.0238776479	 0.0190639479	-0.230433
C	 0.7020651628	-0.5528584698	 1.0720672996	-0.056077
C	 0.5507031769	-2.0679835383	 1.059986272	-0.203963
C	 1.2727181871	-2.7547760581	 2.2170057746	 0.076118
C	 1.1392058774	-4.2830290399	 2.160555654	-0.066573
O	 1.7732996074	-4.8075687139	 1.0113544205	-0.420314
O	 2.6606564733	-2.4098537293	 2.1245555803	-0.25685
C	 3.3674066093	-2.4573724825	 3.3472508804	-0.241501
H	 1.06380141	 1.6959131027	-0.277473343	 0.101658
H	-0.5996122303	 1.6883323615	-0.9242969866	 0.124954
H	-0.3223530217	 1.8817337104	 0.8277717735	 0.099227
H	 1.7598727753	-0.2741797715	 0.9528839808	 0.099537
H	 0.3649808414	-0.138972164	 2.0403615575	 0.072962
H	-0.5148578422	-2.3179227715	 1.1150533786	 0.106473
H	 0.9241484424	-2.4694929345	 0.113512409	 0.122534
H	 0.8701359724	-2.3908072239	 3.1767190497	 0.064505
H	 1.5544250129	-4.7251201825	 3.0810762232	 0.08241
H	 0.0824905526	-4.5670813865	 2.112731783	 0.108169
H	 2.6186897655	-4.3443883727	 0.9501797984	 0.28656
H	 4.3923173828	-2.1416724708	 3.1371385502	 0.131234
H	 2.9298735939	-1.7729917559	 4.0890010204	 0.111741
H	 3.3954176107	-3.4659104224	 3.7834668954	 0.113385
61.8239	70.601	73.1749	97.5118	132.3953	142.6915	202.8011	232.1637	259.0987	284.719	325.0731	339.2443	457.7171	469.0407	533.0415	678.5129	784.7405	858.0403	920.0445	952.6214	995.1376	1061.9394	1086.7043	1108.4758	1124.3154	1149.5507	1165.4862	1182.3159	1185.3851	1216.6134	1225.7271	1230.9124	1251.1935	1283.8816	1307.6638	1350.2545	1372.5161	1404.2088	1427.6929	1432.2349	1479.7353	1482.3836	1484.9853	1486.7773	1488.3257	1506.0525	1509.7601	1515.8177	1534.8549	2934.5667	2963.2924	2964.7893	2975.6644	2990.2781	3004.2443	3006.836	3038.7284	3051.1081	3072.5585	3103.9553	3110.735	3114.5769	3770.9218
COCCC(CO)OC	COCC[C@@H](CO)OC	
InChI=1S/C6H14O3/c1-8-4-3-6(5-7)9-2/h6-7H,3-5H2,1-2H3	InChI=1S/C6H14O3/c1-8-4-3-6(5-7)9-2/h6-7H,3-5H2,1-2H3/t6-/m0/s1
