21
gdb 60218	3.77516	0.91212	0.82516	0.9706	78.31	-0.2487	0.0706	0.3193	1454.3572	0.180945	-424.186149	-424.176829	-424.175884	-424.22082	35.075	
C	 0.020684218	 1.5607388013	-0.0417417357	-0.402742
C	 0.0123128689	 0.034098298	 0.0494377619	 0.13405
O	 0.6486248241	-0.4092894125	 1.2484546255	-0.424467
C	-1.4000957882	-0.5475454561	-0.1014804646	-0.210514
C	-1.4563104366	-2.0705973898	-0.14522668	-0.004329
C	-1.2094364647	-2.9117540442	 1.1675436587	-0.251577
C	-2.6101642188	-3.5071441429	 0.9943347755	 0.028978
O	-3.5343379147	-2.4088081871	 1.0060355472	-0.250097
C	-2.8549389054	-2.7124856201	-0.2189821085	 0.002799
H	 1.0359211615	 1.9425171019	 0.0960851507	 0.12283
H	-0.3529749916	 1.9046040756	-1.0116384395	 0.11524
H	-0.6191132665	 1.9992863316	 0.7346423075	 0.107904
H	 0.6458049067	-0.371094096	-0.7507005628	 0.084557
H	 0.160776336	-0.0331499787	 1.9898610748	 0.276404
H	-2.0340533045	-0.1885374866	 0.7201707933	 0.101074
H	-1.8394032404	-0.1489918917	-1.0266077494	 0.092164
H	-0.8211678117	-2.4521800527	-0.9526011794	 0.074113
H	-0.39933029	-3.6347410356	 1.0530910498	 0.106467
H	-1.0592338904	-2.3476364565	 2.0886386921	 0.100404
H	-2.9949594876	-4.4754860244	 1.2927804239	 0.101616
H	-3.4737265743	-2.9075982733	-1.0883733109	 0.095125
43.5524	96.0898	127.7362	213.9238	237.226	267.9347	308.1605	321.2047	421.6053	460.3891	485.2793	572.3231	729.5754	811.9718	831.2001	845.8763	857.703	879.1353	934.171	939.0684	949.6569	996.6639	1000.8938	1043.4048	1065.7335	1100.0495	1112.2947	1132.2564	1167.4392	1202.294	1225.2016	1238.1404	1238.6434	1274.8796	1304.3176	1334.6253	1364.4469	1383.3416	1399.5269	1403.6219	1421.9783	1471.4624	1479.3622	1492.7061	1494.816	3009.7374	3020.4567	3026.5811	3040.9924	3058.8382	3082.1683	3093.3456	3117.9064	3138.5083	3170.5389	3189.78	3794.8433
CC(O)CC1CC2OC12	C[C@@H](O)C[C@H]1C[C@H]2O[C@@H]12	
InChI=1S/C7H12O2/c1-4(8)2-5-3-6-7(5)9-6/h4-8H,2-3H2,1H3	InChI=1S/C7H12O2/c1-4(8)2-5-3-6-7(5)9-6/h4-8H,2-3H2,1H3/t4-,5+,6-,7+/m1/s1
