20
gdb 36504	3.72577	0.96168	0.80942	4.0558	84.5	-0.2479	0.0198	0.2677	1410.85	0.172939	-366.054122	-366.045617	-366.044673	-366.087634	32.274	
N	-0.119344984	-1.172451941	 0.094953375	-0.315109
C	-0.0899778262	-0.0179112668	 0.049692508	 0.265265
C	-0.0278507835	 1.4415656859	-0.0112258844	-0.363803
C	 1.4150616278	 1.9906503287	 0.0065675394	 0.022631
C	 1.4127811699	 3.5199241813	-0.1321511634	-0.208946
C	 2.8431813792	 4.0665888295	-0.2474122093	-0.267626
C	 3.775271649	 3.426466505	 0.7481215208	-0.038335
C	 3.4723031842	 2.3255805456	 1.4341793413	-0.063364
C	 2.1764077868	 1.5731811156	 1.275565074	-0.248752
H	-0.5438352382	 1.7693639531	-0.9211966502	 0.147842
H	-0.5939046845	 1.8484250108	 0.8361172885	 0.147952
H	 1.9424090805	 1.5695267088	-0.8593913161	 0.096157
H	 0.8198720205	 3.8263355407	-1.0018486932	 0.093859
H	 0.9268188769	 3.9554309494	 0.7514781231	 0.101934
H	 3.2267515294	 3.9076946556	-1.2662933455	 0.11155
H	 2.8379563283	 5.1547119141	-0.1068879808	 0.106894
H	 4.7396368246	 3.906143495	 0.8970517429	 0.087115
H	 4.1825566856	 1.9236188117	 2.1524613421	 0.089442
H	 1.5420770934	 1.7391353999	 2.1610012638	 0.106735
H	 2.3695240105	 0.493985087	 1.2562965539	 0.12856
70.5953	104.3851	149.0043	204.707	296.2806	383.6854	397.4309	400.6712	416.1545	506.1021	574.1396	673.0491	743.5225	812.9202	872.4208	874.6263	925.5315	943.0017	962.0258	984.6209	1006.9026	1055.2205	1074.1612	1089.8263	1104.9518	1164.1132	1197.5314	1209.3884	1258.1099	1292.7808	1302.1238	1335.4406	1354.1236	1369.9875	1381.3043	1396.8502	1418.5911	1464.1042	1474.419	1479.034	1495.8969	1727.737	2359.5877	2984.1216	2999.0956	3012.4849	3023.6515	3035.9296	3042.9299	3053.2724	3062.302	3075.971	3145.7723	3169.0487
N#CCC1CCC=CC1	N#CC[C@H]1CCC=CC1	
InChI=1S/C8H11N/c9-7-6-8-4-2-1-3-5-8/h1-2,8H,3-6H2	InChI=1S/C8H11N/c9-7-6-8-4-2-1-3-5-8/h1-2,8H,3-6H2/t8-/m1/s1
