19
gdb 57807	4.7496	0.56113	0.53659	2.4092	81.9	-0.252	0.0356	0.2876	2073.6723	0.156446	-422.970295	-422.959994	-422.95905	-423.008348	35.856	
C	-0.0851004239	 1.2974578868	-0.5759546572	-0.384217
C	 0.0047532115	-0.0396749352	 0.1733885058	-0.018975
O	 0.6973763113	 0.1003156716	 1.4132563923	-0.41453
C	-1.3184365994	-0.6467626917	 0.3537757585	 0.114026
C	-2.4184078737	-1.1070338637	 0.5259401385	 0.007089
C	-3.7321251401	-1.7122752131	 0.7217924803	-0.381377
C	-3.867763334	-3.0598990445	 0.0322237078	 0.111627
C	-5.1678660663	-3.5495887987	-0.4381607106	-0.181599
O	-4.1961625573	-3.0378848102	-1.3535019915	-0.224137
H	 0.9169004349	 1.7199567324	-0.687618176	 0.12414
H	-0.5297444484	 1.1598721605	-1.565781039	 0.1276
H	-0.7069789511	 2.0065296289	-0.0197297966	 0.114684
H	 0.6308725087	-0.726032616	-0.4096724957	 0.118732
H	 0.1152063241	 0.5802156046	 2.0127774971	 0.280627
H	-3.9179613135	-1.8475532852	 1.7962725299	 0.134162
H	-4.5195838227	-1.0483105961	 0.3450797849	 0.135679
H	-3.1033462316	-3.7897157626	 0.3000116046	 0.104751
H	-5.3550812009	-4.6204655523	-0.4996985573	 0.117941
H	-6.0549788875	-2.9309103254	-0.3055123059	 0.113778
9.4845	51.9034	82.9919	122.4037	171.9531	253.0334	274.5688	307.8922	325.5298	375.8533	401.8597	505.3761	545.3884	567.3358	737.5509	790.4786	858.6488	897.3747	938.7523	957.5901	1015.2186	1066.7219	1094.671	1095.3972	1108.8485	1158.6408	1168.3789	1177.6183	1245.9056	1281.0375	1293.5515	1319.0132	1338.9598	1398.5711	1416.6937	1438.4621	1453.4599	1487.8558	1491.443	1530.6082	2361.7338	3014.8	3035.7567	3039.7148	3056.8217	3081.7161	3112.2191	3113.4508	3126.5525	3168.2973	3803.5674
CC(O)C#CCC1CO1	C[C@@H](O)C#CC[C@H]1CO1	
InChI=1S/C7H10O2/c1-6(8)3-2-4-7-5-9-7/h6-8H,4-5H2,1H3	InChI=1S/C7H10O2/c1-6(8)3-2-4-7-5-9-7/h6-8H,4-5H2,1H3/t6-,7+/m1/s1
