17
gdb 9622	3.66275	1.31627	1.27072	2.2915	66.15	-0.2553	-0.0039	0.2514	1027.3808	0.140507	-400.991321	-400.982648	-400.981704	-401.02463	31.046	
C	 0.2890083407	 1.3823520381	 0.0442873592	-0.462139
C	-0.0467013844	-0.0928620225	-0.0270532042	 0.268138
C	-1.4676978849	-0.4559725424	 0.369323643	-0.109222
O	-1.7145977656	-0.1707645298	 1.7347685336	-0.415368
C	 0.6900487416	-0.9807624586	-0.9911973155	-0.285954
N	 0.942215122	-1.0753458075	 0.4315877565	-0.103265
C	 2.1708513796	-0.8003244789	 1.0086091403	 0.137555
O	 3.2401788694	-1.1035900814	 0.539694157	-0.285213
H	 1.3472533971	 1.5660120983	-0.1611460107	 0.133183
H	-0.3026710525	 1.9365357923	-0.6916912462	 0.130981
H	 0.0448992493	 1.7795248539	 1.0334337495	 0.143697
H	-2.1812706712	 0.146113297	-0.2032272424	 0.115528
H	-1.6528945717	-1.5145532912	 0.1382812482	 0.096365
H	-1.1316935959	-0.7426988079	 2.2471575185	 0.288735
H	 0.1842658012	-1.8298084316	-1.4436234068	 0.125736
H	 1.4770230702	-0.5369171253	-1.5955230341	 0.138157
H	 2.0586366651	-0.3271546125	 2.003441034	 0.083084
76.0341	105.0557	156.7295	209.3998	250.9724	261.4616	324.4008	381.8238	416.0492	446.4515	516.087	610.3449	771.6988	858.3293	905.7736	941.0191	959.1244	1014.2143	1040.539	1069.8661	1097.1565	1125.5475	1142.8947	1191.6021	1249.8559	1307.5971	1371.0668	1404.0672	1413.9042	1415.7739	1434.7034	1480.3305	1495.7723	1505.4282	1514.7856	1799.5018	2946.5146	3004.3119	3040.8438	3078.6735	3108.9838	3109.9792	3123.7786	3198.3047	3798.6497
CC1(CO)CN1C=O	C[C@@]1(CO)CN1C=O	
InChI=1S/C5H9NO2/c1-5(3-7)2-6(5)4-8/h4,7H,2-3H2,1H3	InChI=1S/C5H9NO2/c1-5(3-7)2-6(5)4-8/h4,7H,2-3H2,1H3/t5-,6?/m0/s1
