19
gdb 92469	2.62798	1.71441	1.69463	2.2694	73.85	-0.243	0.0038	0.2468	930.0943	0.162722	-423.033788	-423.026775	-423.025831	-423.064839	29.384	
O	 0.1020916857	 1.4173543359	 0.0720034968	-0.452606
C	 0.0331488597	 0.0030436371	 0.0581588638	 0.161472
C	-1.4318076982	-0.5326852748	 0.0296830827	-0.244876
C	-1.6548233883	-1.3441034901	-1.2726731617	-0.078266
C	-1.3144678458	-0.4097709218	-2.4558150883	-0.070353
O	 0.0247641424	 0.0784760206	-2.3214774264	-0.29533
C	 0.7320354768	-0.5386601704	-1.2110719168	 0.013335
C	 0.6197838238	-2.0360606667	-1.2773338036	-0.069299
C	-0.643028868	-2.4647252102	-1.3095470597	-0.08423
H	-0.0427717957	 1.6895738553	-0.8445668539	 0.283578
H	 0.5578391445	-0.3364636074	 0.9554484865	 0.084795
H	-1.6410708303	-1.1609160995	 0.8990418332	 0.101508
H	-2.1071210698	 0.3273525253	 0.0716446122	 0.104283
H	-2.6856758389	-1.6954765815	-1.355333962	 0.069673
H	-1.4095258153	-0.9398059723	-3.4120916247	 0.100169
H	-1.9933206608	 0.4534314294	-2.4697662588	 0.097706
H	 1.7543364763	-0.1650738976	-1.2811201689	 0.081384
H	 1.496810811	-2.6715883282	-1.3108144949	 0.100205
H	-0.9389194092	-3.505126393	-1.3865621253	 0.096854
115.9976	274.1084	318.1864	367.2606	385.7669	443.1654	494.2423	499.5477	628.6916	654.6328	686.4716	721.4606	798.2707	828.5509	858.0474	922.2731	953.7581	968.2381	980.953	1007.4491	1009.9492	1034.4281	1060.8801	1083.7348	1110.4616	1140.1993	1182.6694	1209.8736	1238.0395	1266.2676	1296.546	1320.9238	1337.9982	1341.6884	1360.3164	1388.559	1400.0634	1438.4656	1485.1074	1522.8205	1680.9341	3004.8669	3042.987	3052.6751	3070.4702	3086.5521	3103.3117	3110.2497	3181.5552	3206.4161	3750.7141
OC1CC2COC1C=C2	O[C@H]1C[C@H]2CO[C@@H]1C=C2	
InChI=1S/C7H10O2/c8-6-3-5-1-2-7(6)9-4-5/h1-2,5-8H,3-4H2	InChI=1S/C7H10O2/c8-6-3-5-1-2-7(6)9-4-5/h1-2,5-8H,3-4H2/t5-,6-,7+/m0/s1
