17
gdb 37256	3.21907	2.25812	1.79974	0.4099	72.89	-0.2105	0.0533	0.2638	801.8817	0.138655	-380.755897	-380.750137	-380.749193	-380.785533	25.545	
C	-0.0485922561	 1.5252490129	 0.1007154961	-0.309661
C	 1.280439186	 0.8269519598	 0.014341136	 0.006155
C	 0.0147065301	 0.0237463608	 0.0470439443	 0.006154
N	-0.3180484745	-0.653405153	-1.1853372472	-0.095279
C	-0.0422409506	-0.0662026786	-2.478414049	-0.091504
C	 1.2929975192	 0.7811411135	-2.5129010372	-0.09151
C	 2.0553776773	-0.4109718306	-2.0391487193	-0.072889
C	 0.7291998546	-1.2525538695	-2.0048641938	-0.072892
N	 1.9889341679	 0.8105632569	-1.2449384006	-0.095277
H	-0.3144192267	 1.9826716136	 1.0466928575	 0.116337
H	-0.4067328529	 2.0538798275	-0.7770497348	 0.122457
H	 1.9483726565	 0.8586429713	 0.8689648172	 0.09423
H	-0.2664616462	-0.546846722	 0.9261846938	 0.09423
H	-0.8345323873	 0.0095153165	-3.2147342921	 0.097316
H	 1.5342355531	 1.5127428836	-3.2759143159	 0.097315
H	 3.0222101379	-0.7977440794	-2.3378742078	 0.097409
H	 0.6569490818	-2.2987217332	-2.2767233373	 0.097408
270.3814	276.7444	493.3818	524.3569	562.6474	592.0322	663.9192	736.1329	739.7512	785.2144	802.2549	813.6863	875.1208	906.7027	908.5952	920.1848	924.0106	955.8396	989.0554	1035.0487	1041.4776	1049.6406	1050.7741	1076.788	1116.8576	1117.9323	1151.9521	1207.2158	1215.6256	1234.5014	1243.3039	1252.7382	1333.0616	1357.2225	1391.2293	1397.9452	1477.3495	3132.4761	3149.2493	3157.5491	3164.8089	3173.6259	3180.9389	3190.7486	3222.5447
C1C2C1N1C3C4C(C13)N24	C1[C@H]2[C@@H]1N1[C@H]3[C@@H]4[C@H]([C@@H]13)N24	
InChI=1S/C7H8N2/c1-2-3(1)9-6-4-5(7(6)9)8(2)4/h2-7H,1H2	InChI=1S/C7H8N2/c1-2-3(1)9-6-4-5(7(6)9)8(2)4/h2-7H,1H2/t2-,3+,4-,5+,6-,7+,8?,9?
