23
gdb 100668	2.8373	0.94277	0.86302	2.2775	77.42	-0.2544	0.0607	0.3151	1450.4218	0.202566	-462.552663	-462.5413	-462.540356	-462.58861	42.063	
C	-0.0993532148	 1.5969215037	 0.0898513703	-0.438135
C	 0.0223922881	 0.0610009749	 0.0478124124	 0.231663
C	 0.7180829068	-0.4403179594	 1.3286191591	-0.426007
C	-1.3888955188	-0.5563187109	-0.0267756082	-0.088126
O	-2.142827097	-0.1233771673	 1.0981697242	-0.429252
C	 0.7989285475	-0.4314199752	-1.20022302	 0.074636
O	 0.1721503395	-0.0420607442	-2.4333600409	-0.452483
C	 2.2800939492	-0.0406443631	-1.2772020841	-0.083381
O	 2.8594742912	-0.5549515267	-2.458718983	-0.424426
H	 0.8758460183	 2.0809999415	 0.1932150118	 0.11562
H	-0.5865450551	 1.995255844	-0.8087485748	 0.096626
H	-0.7194894738	 1.892151733	 0.9384063972	 0.144025
H	 0.0686636074	-0.2723270304	 2.1905062445	 0.137987
H	 0.928463906	-1.5145919754	 1.2703415349	 0.110477
H	 1.6634974736	 0.0791065517	 1.5090840982	 0.114322
H	-1.8671826556	-0.2536297291	-0.9675123983	 0.097208
H	-1.2985128295	-1.6547527796	-0.0380228912	 0.082704
H	-3.0340726981	-0.4726776759	 1.0140859757	 0.28935
H	 0.753938595	-1.5276182888	-1.2217163846	 0.093079
H	 0.1344939692	 0.9215518734	-2.4493291976	 0.283222
H	 2.3808066505	 1.0580717835	-1.2314708866	 0.076578
H	 2.8381831254	-0.4567632484	-0.433821808	 0.11087
H	 2.1867156149	-0.4375281714	-3.142367151	 0.283443
64.1595	106.5907	131.6204	160.3032	219.1216	227.1789	257.8977	271.4123	282.9414	320.2484	338.5978	349.0062	358.2402	382.4486	463.0675	519.68	532.4554	629.8267	764.5971	851.0739	916.7578	938.2999	961.6906	978.8649	1034.081	1045.6994	1067.8715	1087.6921	1108.9638	1174.4694	1194.6325	1215.4061	1229.1664	1279.161	1287.3213	1301.6526	1333.9819	1383.7157	1396.084	1409.4554	1419.8916	1445.2772	1455.5492	1480.8082	1497.7335	1502.7862	1510.719	1518.4735	1523.9753	2950.7958	2967.5763	3024.1756	3031.2897	3034.5341	3038.3668	3086.8372	3094.6585	3102.4906	3128.5135	3133.9332	3760.9168	3791.318	3840.2686
CC(C)(CO)C(O)CO	CC(C)(CO)[C@@H](O)CO	
InChI=1S/C6H14O3/c1-6(2,4-8)5(9)3-7/h5,7-9H,3-4H2,1-2H3	InChI=1S/C6H14O3/c1-6(2,4-8)5(9)3-7/h5,7-9H,3-4H2,1-2H3/t5-/m0/s1
