13
gdb 129503	2.97549	1.64071	1.05775	4.9874	62.67	-0.2373	-0.0195	0.2178	1026.0062	0.089752	-486.102182	-486.094255	-486.093311	-486.1353	28.384	
N	-0.1284055974	 1.3460349411	-0.1179324816	-0.572248
C	 0.1097906626	 0.0079868071	-0.073750324	 0.506648
O	 1.1919101913	-0.5204804584	-0.0894773654	-0.344783
N	-1.0969295172	-0.7484101769	-0.0231524679	-0.16111
N	-2.3362661669	-0.1175228183	 0.02677608	-0.236571
C	-3.1747665346	-1.0794168463	 0.0665772388	 0.098644
O	-2.6353549286	-2.3173792877	 0.0482412485	-0.209892
C	-1.2401775632	-2.1372077115	-0.011832222	 0.487505
N	-0.3738849752	-3.042684425	-0.0465257399	-0.538768
H	 0.6744088704	 1.9464728934	-0.0572952699	 0.273027
H	-1.0556257468	 1.7159134289	-0.0022935833	 0.280468
H	-4.2482958899	-0.9889687548	 0.1127818603	 0.177613
H	-0.8084535645	-3.9622613917	-0.0254949137	 0.239466
63.1164	104.2157	169.845	217.0188	237.5589	385.9299	448.8263	535.1656	555.6683	622.4269	669.8982	702.4214	753.6707	758.4474	777.3189	857.9123	913.5525	958.4935	1076.4669	1096.5774	1155.0142	1219.6414	1264.1947	1336.0549	1392.5062	1593.2305	1671.6218	1794.1809	1866.4973	3283.1645	3534.8066	3620.8901	3760.3283
NC(=O)N1N=COC1=N	NC(=O)N1N=CO[C@H]1[NH]	
InChI=1S/C3H4N4O2/c4-2(8)7-3(5)9-1-6-7/h1,5H,(H2,4,8)	InChI=1S/C3H5N4O2/c4-2(8)7-3(5)9-1-6-7/h1,3,5H,(H2,4,8)/t3-/m0/s1
