20
gdb 87411	3.38554	1.41717	1.34081	1.5999	82.65	-0.2207	0.0912	0.3118	1060.3154	0.171511	-365.91928	-365.911651	-365.910707	-365.951066	31.008	
C	-0.152755322	 1.5086690943	-0.0130144559	-0.404652
C	-0.0274156529	 0.0042059785	 0.0815820042	-0.07805
C	 1.3148293373	-0.6812133111	-0.15864698	-0.38691
C	 0.7089155405	-0.6450429598	 1.2051696414	 0.424606
C	 1.3326498785	-0.1449261706	 2.4800274716	-0.185176
C	 0.378130585	-0.6236658585	 3.6006081567	-0.094417
C	-0.743980585	-1.3546631385	 2.8830197367	-0.175798
N	 0.2821031576	-1.9018804463	 1.9005799654	-0.218369
C	 1.3561959967	-1.5648281008	 2.9665374638	-0.026147
H	 0.7337629162	 2.0041442144	 0.3969466878	 0.112166
H	-0.2610588693	 1.8344296123	-1.0534597908	 0.117579
H	-1.0221957072	 1.8744476313	 0.544707675	 0.116754
H	-0.8898305755	-0.5539207098	-0.2771113769	 0.089034
H	 1.3153716588	-1.63149121	-0.681300491	 0.119226
H	 2.1778663583	-0.0509805244	-0.3534538119	 0.105801
H	 2.064064096	 0.6354120634	 2.6480433972	 0.090856
H	 0.4097280922	-0.1874324233	 4.5916126074	 0.089965
H	-1.1553487316	-2.1786824479	 3.4717563035	 0.105275
H	-1.5549669377	-0.7855657146	 2.4156017398	 0.099065
H	 2.127277234	-2.2323207786	 3.322919456	 0.099191
133.2616	154.0136	192.4107	240.8159	350.8791	396.7773	481.8391	497.05	611.677	765.0179	784.8621	802.8158	815.2377	821.2667	857.6628	877.7688	882.2073	934.4414	964.4916	983.6172	990.2027	1010.9738	1028.5725	1041.6283	1050.4693	1060.8721	1096.1633	1114.7546	1131.6473	1153.5338	1172.0411	1180.4045	1208.4627	1241.512	1293.3857	1344.5024	1355.2281	1413.3947	1429.4418	1490.0812	1493.2442	1505.0797	1512.6419	3025.4027	3040.8676	3087.6962	3092.679	3101.8783	3122.23	3131.4593	3185.5513	3193.945	3213.4724	3223.1849
CC1CC11C2C3CN1C23	C[C@H]1C[C@]21[C@H]1[C@H]3CN2[C@@H]13	
InChI=1S/C8H11N/c1-4-2-8(4)6-5-3-9(8)7(5)6/h4-7H,2-3H2,1H3	InChI=1S/C8H11N/c1-4-2-8(4)6-5-3-9(8)7(5)6/h4-7H,2-3H2,1H3/t4-,5+,6-,7+,8-/m0/s1
