21
gdb 64091	3.22345	1.20176	1.09737	4.1651	78.56	-0.2346	0.0543	0.2888	1202.3997	0.184258	-420.470984	-420.461774	-420.46083	-420.504413	35.458	
C	-0.1641931477	 1.5955343942	 0.0116839304	-0.40673
C	-0.0349895259	 0.062779713	 0.0032474044	 0.234301
C	-1.4276019012	-0.5815269965	 0.0024331791	-0.425708
C	 0.7459298685	-0.4105004126	-1.2378561523	-0.169458
N	 2.1350028365	 0.0117326575	-1.1629215273	-0.340913
C	 2.8799666339	 0.0364338953	-0.0024549129	 0.422462
O	 4.0939106994	 0.151685082	-0.004145525	-0.416613
N	 2.1394616601	-0.0009773356	 1.160510758	-0.340908
C	 0.7505882881	-0.423716608	 1.2362775068	-0.169443
H	 0.8128991434	 2.0822927249	 0.0125651706	 0.142019
H	-0.7154409407	 1.9397441223	-0.8698912827	 0.110087
H	-0.7123229357	 1.9302613679	 0.8988373086	 0.110086
H	-2.0003024596	-0.2723350664	-0.8782587608	 0.117212
H	-1.3647631742	-1.6749846814	-0.0036358969	 0.115003
H	-1.9968914862	-0.2819482847	 0.888642255	 0.117212
H	 0.6592389653	-1.5061582555	-1.3215160901	 0.096066
H	 0.2988705998	 0.0155250654	-2.1432826838	 0.106492
H	 2.7074072069	-0.0581261477	-1.9889745427	 0.248135
H	 2.7150208883	-0.079721835	 1.9835653334	 0.248137
H	 0.3070725652	-0.0071997767	 2.1478529119	 0.106493
H	 0.6639918959	-1.5201802922	 1.308703106	 0.096067
97.2475	119.7596	201.6262	221.363	238.2973	278.5014	326.9017	362.5419	409.0101	453.1547	466.4789	489.9895	561.9334	594.2027	707.4222	763.8388	804.9745	873.2425	907.1092	945.8397	947.6772	958.3564	1043.5804	1060.5951	1082.4707	1158.0177	1197.7214	1223.5088	1230.6854	1280.0498	1302.5965	1332.2207	1389.116	1404.6119	1414.6796	1424.3568	1470.7746	1475.3307	1486.4329	1487.3364	1505.6805	1508.4406	1524.2022	1529.9092	1804.3791	2959.3904	2968.6424	3028.5957	3037.1972	3050.0721	3053.8498	3095.9016	3098.7433	3101.3657	3133.5102	3641.9555	3644.5339
CC1(C)CNC(=O)NC1	CC1(C)CNC(=O)NC1	
InChI=1S/C6H12N2O/c1-6(2)3-7-5(9)8-4-6/h3-4H2,1-2H3,(H2,7,8,9)	InChI=1S/C6H12N2O/c1-6(2)3-7-5(9)8-4-6/h3-4H2,1-2H3,(H2,7,8,9)
