21
gdb 83007	2.48891	1.74272	1.55212	1.4592	80.27	-0.2456	0.0673	0.3128	992.8483	0.18536	-387.068684	-387.061104	-387.06016	-387.100289	31.302	
O	-0.3652711748	 1.5599819883	 0.2419945015	-0.410888
C	-0.1405792903	 0.1884269613	 0.0711067277	 0.086397
C	-0.3671813881	-0.7923617452	 1.1910813995	-0.103431
C	-1.1454422255	-0.3052249013	 2.4168222929	-0.251353
C	-2.5982909093	-0.0288821936	 1.9569105076	 0.012403
C	-3.0650224829	 1.4230857075	 1.6337641739	-0.218195
C	-3.2990401018	 1.0204314136	 0.1484839261	-0.224693
C	-2.701111077	-0.393465943	 0.4413342477	-0.012948
C	-1.299800844	-0.7656495604	-0.0234033385	-0.092397
H	 0.3359845881	 1.9043404059	 0.805223524	 0.28776
H	 0.6904162219	-0.0347304345	-0.5995773146	 0.082417
H	 0.3614018985	-1.5844110923	 1.3321744268	 0.078289
H	-1.1201275251	-1.0839742424	 3.1855346406	 0.096481
H	-0.6923609937	 0.5885655213	 2.8639884356	 0.086272
H	-3.3120322362	-0.5592884425	 2.59266329	 0.06296
H	-3.9575109654	 1.7458921233	 2.1761033248	 0.084156
H	-2.2857040775	 2.1743388326	 1.7632488596	 0.096968
H	-4.3549703804	 0.980683017	-0.1319430358	 0.084947
H	-2.7618748425	 1.615538017	-0.5896330989	 0.11323
H	-3.3776188241	-1.2181517108	 0.20071961	 0.061351
H	-1.2180262099	-1.5254172618	-0.7940231807	 0.080273
147.4582	176.9181	200.7074	295.8327	302.3614	356.7623	507.001	595.7	649.9462	670.4663	686.2346	741.2498	767.4961	788.3191	819.2242	867.7897	894.6049	940.1051	964.7842	972.7166	1026.7354	1035.7779	1039.7607	1077.5143	1097.0665	1099.5491	1117.4517	1142.6013	1191.1491	1216.1433	1228.2003	1242.7742	1260.6228	1266.2811	1275.8033	1287.0387	1312.7804	1325.5533	1340.0498	1355.0305	1372.0496	1452.009	1468.5138	1486.356	1495.1299	3025.4352	3049.4967	3058.511	3062.1322	3070.4037	3079.1021	3083.6889	3125.5075	3139.9272	3149.4865	3160.1413	3802.1236
OC1C2CC3CCC3C12	O[C@H]1[C@H]2C[C@H]3CC[C@H]3[C@@H]12	
InChI=1S/C8H12O/c9-8-6-3-4-1-2-5(4)7(6)8/h4-9H,1-3H2	InChI=1S/C8H12O/c9-8-6-3-4-1-2-5(4)7(6)8/h4-9H,1-3H2/t4-,5-,6+,7-,8+/m1/s1
