19
gdb 40743	3.79078	1.16457	1.04946	0.9841	75.75	-0.2433	0.0609	0.3042	1199.7841	0.159858	-422.964039	-422.956285	-422.95534	-422.996888	29.759	
C	 0.6186574138	 1.6634835644	 0.3402558181	-0.268173
C	 0.9361613781	 0.4499731331	-0.4906637219	-0.27143
C	-0.3634991131	 0.5194871049	 0.2793825253	 0.014159
C	-0.5518575796	-0.3566872279	 1.4731728758	 0.10406
O	-1.4578301906	 0.1901541982	 2.4884652514	-0.320983
C	-2.2480851305	-1.0093545429	 2.5096824988	 0.070245
C	-3.4122231517	-0.976087453	 1.5106781356	-0.093108
O	-2.5480110707	-1.4560168202	 0.4444091552	-0.29168
C	-1.4386749111	-1.6147668931	 1.3486879942	 0.036093
H	 1.1705541499	 1.8080708933	 1.2629557337	 0.117149
H	 0.3539474557	 2.5842326362	-0.1670320603	 0.115641
H	 0.8872828609	 0.5299724234	-1.5704981135	 0.117181
H	 1.706900111	-0.2246316274	-0.1317632325	 0.110693
H	-1.2664927407	 0.6713038845	-0.3013969396	 0.098787
H	 0.4173467835	-0.5862466267	 1.9413482275	 0.070331
H	-2.3946622964	-1.4177981498	 3.5107784087	 0.0875
H	-4.2199748796	-1.691363183	 1.7119088307	 0.103408
H	-3.8257259093	 0.0171499889	 1.3086761003	 0.115443
H	-0.9735938994	-2.5999740229	 1.2855022126	 0.084685
71.5514	104.4087	154.6698	249.432	297.5111	395.2086	442.8046	527.1133	719.1939	773.8651	802.4346	808.9068	840.935	887.1546	915.6435	926.856	947.0183	958.4019	998.8341	1003.4781	1019.9086	1060.8829	1077.1545	1078.0927	1083.566	1138.4735	1161.8353	1188.1913	1197.7872	1210.0942	1223.5393	1230.9263	1283.6619	1296.4798	1311.5173	1337.2862	1356.7672	1441.0294	1470.5474	1502.3015	1504.7749	2988.0295	3017.8152	3084.8782	3092.1713	3105.0871	3131.8378	3136.6371	3176.244	3210.6967	3225.8608
C1CC1C1OC2COC12	C1CC1[C@H]1O[C@H]2CO[C@@H]12	
InChI=1S/C7H10O2/c1-2-4(1)6-7-5(9-6)3-8-7/h4-7H,1-3H2	InChI=1S/C7H10O2/c1-2-4(1)6-7-5(9-6)3-8-7/h4-7H,1-3H2/t5-,6+,7+/m0/s1
