19
gdb 75118	3.07324	1.23142	0.96524	4.6084	78.32	-0.2373	0.0027	0.24	1242.7037	0.15946	-423.066138	-423.057429	-423.056485	-423.09989	32.413	
C	-0.1411334957	 1.5688835754	 0.0538428799	-0.484033
C	-0.0312233479	 0.0717865028	 0.0021485898	 0.332763
C	-0.012794416	-0.6245460985	-1.13393295	-0.172592
C	 0.0659468167	-2.1318613339	-1.1694235865	-0.377989
C	 1.3313022527	-2.7814312541	-0.6120060649	 0.398558
O	 1.9388607907	-3.6130780563	-1.2303640763	-0.307283
O	 1.7275319691	-2.5182668162	 0.658667769	-0.233365
C	 1.4629530973	-1.3546675093	 1.4580160421	-0.043248
C	 0.1036171856	-0.671587147	 1.3154143931	-0.32582
H	 0.7242745729	 2.0152486428	 0.5610862693	 0.126698
H	-0.2106034346	 2.0045547246	-0.9461149925	 0.126703
H	-1.0266959473	 1.8776167603	 0.6245433185	 0.128209
H	-0.0782576216	-0.1141444608	-2.09055217	 0.095599
H	-0.7749959669	-2.5626315459	-0.6050233616	 0.134167
H	-0.0162268911	-2.5039706464	-2.1904910917	 0.135806
H	 1.5923845821	-1.7137548645	 2.4834592756	 0.120179
H	 2.2588390521	-0.6269864074	 1.2547572625	 0.116344
H	 0.0088292457	 0.0209133395	 2.1591050156	 0.109192
H	-0.6954309436	-1.415927605	 1.4341329683	 0.120112
68.0824	81.4366	179.4724	206.1628	269.6596	315.4706	343.3859	354.3043	466.1856	515.5555	561.5076	608.5168	695.6729	745.33	804.902	871.1827	887.6232	944.2545	992.442	1014.6084	1026.8473	1072.9325	1099.4995	1122.866	1151.0244	1205.0645	1232.1825	1260.7871	1306.6243	1330.8631	1342.5954	1381.9637	1414.3068	1440.9436	1462.158	1478.8673	1480.5898	1490.432	1507.0461	1744.159	1829.7456	3001.3166	3012.8601	3017.8617	3026.753	3058.5835	3072.851	3083.2813	3115.0094	3130.7689	3168.3698
CC1=CCC(=O)OCC1	CC1=CCC(=O)OCC1	
InChI=1S/C7H10O2/c1-6-2-3-7(8)9-5-4-6/h2H,3-5H2,1H3	InChI=1S/C7H10O2/c1-6-2-3-7(8)9-5-4-6/h2H,3-5H2,1H3
