17
gdb 74464	2.96916	1.42039	1.03816	4.7775	77.82	-0.2081	-0.012	0.1961	1150.6498	0.136454	-418.032326	-418.024019	-418.023075	-418.065053	31.475	
C	 0.0397278562	 1.5189288007	 0.0005220522	-0.495957
C	-0.0521908057	 0.0321537027	 0.0048416631	 0.36536
C	-1.125174487	-0.7720849607	 0.0916846105	-0.36353
C	-0.6587039524	-2.1758560566	 0.0525754329	 0.206166
C	-1.2929630214	-3.3305981132	 0.7559401805	-0.268376
N	-1.3248753046	-3.26718831	-0.7022954576	-0.333255
C	 0.8550095552	-2.0967833723	-0.0670034516	 0.400019
O	 1.6595065669	-2.9963043677	-0.1148916638	-0.369575
N	 1.1244216991	-0.7379279321	-0.0824210911	-0.415498
H	 0.6384560003	 1.883842118	 0.8439448121	 0.138585
H	 0.5168004617	 1.884024398	-0.9173201456	 0.138511
H	-0.9550144799	 1.963324808	 0.0693340844	 0.14159
H	-2.1527422764	-0.4517779268	 0.1813335574	 0.103835
H	-0.6366105681	-4.0978755704	 1.1573567635	 0.142831
H	-2.1988499275	-3.1354035772	 1.3241349076	 0.116415
H	-2.2314460781	-2.9265694764	-1.0176207259	 0.235599
H	 2.0564188916	-0.3688588641	-0.1737270186	 0.25728
107.8473	149.2542	182.7062	228.1427	249.8616	288.15	363.2782	461.5998	475.6307	569.354	613.9163	621.1909	710.3986	746.1254	751.6994	867.9136	902.295	960.5923	974.0777	993.8722	1011.6979	1063.8429	1070.2637	1135.0414	1168.2497	1177.8398	1268.2136	1293.8172	1328.6209	1397.8766	1412.0977	1421.3593	1475.7145	1491.4551	1495.8138	1700.8201	1845.8335	3024.4999	3073.1041	3106.0472	3132.4672	3201.0386	3236.6975	3484.9519	3660.9013
CC1=CC2(CN2)C(=O)N1	CC1=C[C@]2(CN2)C(=O)N1	
InChI=1S/C6H8N2O/c1-4-2-6(3-7-6)5(9)8-4/h2,7H,3H2,1H3,(H,8,9)	InChI=1S/C6H8N2O/c1-4-2-6(3-7-6)5(9)8-4/h2,7H,3H2,1H3,(H,8,9)/t6-/m0/s1
