20
gdb 22260	2.29182	1.12276	0.98249	2.217	74.06	-0.2471	0.0047	0.2518	1312.4448	0.167275	-477.380704	-477.369896	-477.368952	-477.416733	39.249	
C	-0.1678444259	 0.4430932484	 1.3593045928	-0.414553
C	-0.2870836707	 0.37971347	-0.1568425529	 0.088636
O	 0.9159130299	-0.0905343844	-0.7792329758	-0.443436
C	-1.4955662283	-0.4379690332	-0.6765303985	 0.043305
O	-1.4296053752	-0.5009150156	-2.0902851345	-0.439254
C	-1.604061288	-1.8301074854	-0.072737914	 0.350211
C	-0.6782974066	-2.929379284	-0.5159608665	-0.494021
N	-2.5264849438	-1.9695300906	 0.8015412629	-0.172423
O	-2.5477273906	-3.2630966926	 1.346102483	-0.398109
H	 0.6632821563	 1.0933475654	 1.6448734901	 0.125815
H	-1.0880442198	 0.8332298866	 1.8040380785	 0.134478
H	 0.0022316732	-0.5505979472	 1.7884365306	 0.121202
H	-0.4128776455	 1.3913052268	-0.5595633312	 0.102256
H	 1.2081981844	-0.8801578897	-0.3105234965	 0.287012
H	-2.4094550576	 0.0985404068	-0.4014095701	 0.099256
H	-0.4865560606	-0.4751647521	-2.3056229577	 0.290997
H	-0.2418686407	-2.6983807228	-1.4879319471	 0.129386
H	 0.1277577594	-3.0855905621	 0.2130634119	 0.128104
H	-1.2214067161	-3.8749796894	-0.5792117884	 0.15464
H	-3.3231271238	-3.228968125	 1.9162893834	 0.306495
52.6601	79.6385	106.7083	132.8392	225.2957	241.2617	265.0158	304.063	324.8237	337.7007	365.6944	393.1952	442.0119	501.9546	534.0184	569.8361	608.1354	726.5966	793.8826	850.4717	922.3734	977.6323	1003.9307	1041.8283	1053.6003	1082.8158	1103.5834	1143.7507	1246.9036	1266.5678	1292.6265	1321.8956	1360.4977	1395.43	1404.4011	1411.3524	1425.7824	1428.6692	1475.0416	1486.7369	1488.6003	1492.6614	1722.401	3026.3927	3037.0474	3047.019	3064.6047	3103.2684	3107.1792	3123.5029	3151.7792	3736.712	3804.6921	3818.1231
CC(O)C(O)C(C)=NO	C[C@@H](O)[C@@H](O)C(=NO)C	
InChI=1S/C5H11NO3/c1-3(6-9)5(8)4(2)7/h4-5,7-9H,1-2H3	InChI=1S/C5H11NO3/c1-3(6-9)5(8)4(2)7/h4-5,7-9H,1-2H3/t4-,5+/m1/s1
