16
gdb 31299	2.22355	1.55615	0.9261	2.3351	85.59	-0.1843	-0.0069	0.1773	1221.601	0.123647	-400.737598	-400.728837	-400.727893	-400.771217	32.231	
C	 0.0857664978	 1.4440827613	 0.0994383215	-0.329792
N	-0.2082442926	 0.0476823975	-0.1668224905	-0.409751
C	 0.5086265122	-0.6381220657	-1.1241411172	 0.164919
C	 0.6789516337	-2.0084220339	-1.1921068675	 0.161019
O	 1.4037422385	-2.3250359646	-2.3264292415	-0.180588
C	 1.6863090264	-1.1650640202	-2.9446013609	-0.023513
C	 1.1770696986	-0.0974692176	-2.2705208049	-0.236301
C	 0.2496429034	-3.0233813148	-0.3334186202	 0.224203
C	-0.1377883529	-3.8598735162	 0.4472854144	-0.430375
H	 1.1278636233	 1.6266133377	 0.4047698867	 0.116752
H	-0.1183004133	 2.0489364936	-0.7900770811	 0.134517
H	-0.5752865012	 1.7980130668	 0.8937578055	 0.129532
H	-0.4026324081	-0.5060287015	 0.655060981	 0.243802
H	 2.2590597156	-1.2455926543	-3.8545296006	 0.13526
H	 1.2626959283	 0.9389495994	-2.553672574	 0.113492
H	-0.4850895	-4.6052065676	 1.1184118493	 0.186824
77.3193	119.3593	156.2066	165.8561	230.8874	315.202	392.4357	396.5211	482.3481	509.762	585.567	611.4398	614.7532	702.3524	708.4892	741.6169	763.9556	812.9113	907.3251	1029.0746	1092.8913	1108.9374	1151.7234	1182.8809	1214.6029	1242.673	1336.2954	1452.6319	1461.9165	1488.4593	1496.7141	1517.9055	1534.642	1649.8437	2207.236	2982.5041	3069.9494	3121.4021	3259.094	3280.5115	3503.4461	3594.9516
CNC1=C(OC=C1)C#C	CNc1c(occ1)C#C	
InChI=1S/C7H7NO/c1-3-7-6(8-2)4-5-9-7/h1,4-5,8H,2H3	InChI=1S/C7H7NO/c1-3-7-6(8-2)4-5-9-7/h1,4-5,8H,2H3
