20
gdb 93796	2.88146	1.35982	0.96782	4.9346	76.99	-0.2381	0.0563	0.2944	1246.3394	0.171644	-440.345148	-440.336008	-440.335064	-440.379209	33.458	
C	-0.0525682789	 1.4921530503	 0.0808589285	-0.402096
C	 0.0349208647	-0.0185654176	-0.0576383928	 0.142637
C	 0.834816208	-0.4938280883	-1.2603295242	-0.231823
C	 0.8647045213	-2.0158322238	-1.2513661688	-0.159273
N	 1.1445272938	-2.5260527098	 0.0825978662	-0.148333
C	 1.4941831447	-3.9325117398	 0.1703417472	-0.336663
C	 1.082638848	-1.7929124564	 1.2441024323	 0.471525
O	 1.3926042257	-2.2228140761	 2.330316503	-0.397851
O	 0.6613086256	-0.5024296685	 1.1428759019	-0.262413
H	 0.9484597098	 1.9319114009	 0.1218113485	 0.129456
H	-0.5901186086	 1.9211385336	-0.7701381209	 0.117067
H	-0.5819851722	 1.7587659029	 0.9988829607	 0.136612
H	-0.9798364876	-0.4423621697	-0.1060581096	 0.08589
H	 0.3887374088	-0.1329259523	-2.1918597388	 0.110278
H	 1.850308614	-0.0873161889	-1.1923990963	 0.118662
H	-0.0964586748	-2.4164450411	-1.6112917102	 0.105928
H	 1.6354476079	-2.39070759	-1.9373347526	 0.11069
H	 2.41187262	-4.140714294	-0.3947010208	 0.119174
H	 1.651294781	-4.1844390956	 1.2171831295	 0.173412
H	 0.6907519789	-4.5574050959	-0.2415500428	 0.117118
70.6947	112.5944	143.9897	200.9679	226.8455	234.1624	274.5505	361.0116	410.667	453.137	516.2809	561.5885	673.8661	720.8234	759.728	848.8903	915.4165	966.9091	977.7814	1017.7811	1063.3878	1112.9179	1145.8551	1152.5583	1176.0928	1183.5312	1236.8309	1255.5919	1282.6043	1341.3478	1349.0659	1380.534	1408.088	1414.7967	1434.3408	1460.7941	1477.224	1485.5331	1499.2937	1499.9322	1510.6558	1544.6967	1813.8098	2973.828	2988.9618	3008.8698	3026.3012	3043.9818	3049.5091	3053.8627	3097.7882	3119.215	3128.5678	3174.8006
CC1CCN(C)C(=O)O1	C[C@H]1CCN(C)C(=O)O1	
InChI=1S/C6H11NO2/c1-5-3-4-7(2)6(8)9-5/h5H,3-4H2,1-2H3	InChI=1S/C6H11NO2/c1-5-3-4-7(2)6(8)9-5/h5H,3-4H2,1-2H3/t5-/m0/s1
