23
gdb 75502	2.54196	1.42785	0.9996	0.0932	91.56	-0.2217	0.0332	0.2549	1271.0961	0.208009	-351.162678	-351.154176	-351.153232	-351.195324	34.406	
C	 0.2714093568	 1.5403288362	 0.0722126522	-0.471798
C	 0.0020472223	 0.0580756304	-0.0176410355	 0.314985
C	 0.0156945495	-0.5623056005	-1.2032444397	-0.117191
C	-0.1845332607	-2.0157928558	-1.5647384293	-0.239473
C	-0.2687929724	-3.0262254199	-0.4095004109	-0.236427
C	-1.4664471872	-2.7689554618	 0.4801587876	 0.025039
C	-1.3928936145	-2.9085799145	 1.9821525745	-0.329036
C	-1.4625069625	-1.5383775263	 1.347481633	 0.017308
C	-0.2486773765	-0.6235159063	 1.3238143431	-0.336044
H	 1.133364703	 1.7464486935	 0.7210937606	 0.118675
H	 0.4729851553	 1.9827021861	-0.9069660303	 0.114837
H	-0.5808133347	 2.0703223192	 0.5186062294	 0.117739
H	 0.2074774811	 0.0650165046	-2.0744992829	 0.069027
H	-1.0950082187	-2.0990290329	-2.1795102178	 0.101683
H	 0.6325958038	-2.3094456881	-2.2395415024	 0.096859
H	-0.3195945472	-4.0409691763	-0.8232871019	 0.090124
H	 0.6561264049	-2.9876422406	 0.1763553231	 0.096831
H	-2.4199492856	-3.0241014141	 0.0233640017	 0.075427
H	-2.2620441348	-3.2833107583	 2.5120497343	 0.106072
H	-0.4452350627	-3.2152974338	 2.4154650623	 0.105197
H	-2.4101859988	-1.0140358667	 1.4353150897	 0.078202
H	 0.6464561462	-1.1844449399	 1.6205408426	 0.107971
H	-0.3682563968	 0.1451839561	 2.0963978367	 0.093995
94.2953	193.1114	223.9656	256.3791	280.5099	311.273	346.3762	394.5921	432.6351	472.8745	586.5436	618.8863	756.8042	799.0988	811.6456	834.9028	873.1508	895.5496	919.9399	932.7482	969.7557	1005.4486	1027.6729	1045.7571	1059.9006	1072.691	1105.5017	1120.3519	1136.5455	1139.5256	1175.2741	1223.3013	1251.5511	1259.2079	1265.4533	1331.2109	1359.4319	1375.4415	1395.0288	1398.9628	1413.5182	1431.8271	1474.5249	1478.2141	1484.226	1493.1103	1494.0691	1507.6515	1737.8226	2982.4093	3006.8882	3008.2754	3022.1207	3031.6477	3050.2612	3050.3875	3068.9785	3106.5585	3115.5439	3121.3851	3126.0287	3140.6333	3206.2056
CC1=CCCC2CC2C1	CC1=CCC[C@H]2C[C@H]2C1	
InChI=1S/C9H14/c1-7-3-2-4-8-6-9(8)5-7/h3,8-9H,2,4-6H2,1H3	InChI=1S/C9H14/c1-7-3-2-4-8-6-9(8)5-7/h3,8-9H,2,4-6H2,1H3/t8-,9+/m0/s1
