21
gdb 63682	4.05261	0.71205	0.70189	3.732	82.12	-0.2423	0.0362	0.2785	1701.1686	0.181664	-420.417834	-420.407599	-420.406655	-420.454297	36.803	
C	 0.2004429585	 1.3777128382	-0.5418500696	-0.43874
C	-0.0368235705	 0.0297120011	 0.1099746522	 0.324212
C	-1.3715681391	-0.5985065477	-0.2439331928	-0.456925
N	 1.1464147601	-0.8549347566	 0.1732108849	-0.38217
C	 0.5597113241	-0.3323586538	 1.4281507444	-0.055367
C	 1.461949776	 0.5559040419	 2.2567733251	-0.179432
N	 2.5879150158	-0.2038235365	 2.7772505453	-0.265992
C	 2.8561281393	-0.3396129541	 4.1009305441	 0.153833
O	 2.2317536232	 0.1791972758	 5.0034907885	-0.327287
H	 1.2147081507	 1.7393504105	-0.3674813774	 0.128593
H	 0.0622876081	 1.2981663433	-1.6260240166	 0.118865
H	-0.5088014626	 2.1248482789	-0.1689241253	 0.118593
H	-1.4425624072	-0.7736681734	-1.3238666989	 0.122501
H	-1.5123652541	-1.5563973206	 0.2671939363	 0.113745
H	-2.2025211783	 0.0572643812	 0.0383182931	 0.127382
H	 0.8686088254	-1.8236546672	 0.0344180032	 0.226477
H	-0.012477799	-1.0401373376	 2.026937964	 0.088767
H	 1.8291928332	 1.3988941106	 1.6636736676	 0.110231
H	 0.9286834772	 0.9566931658	 3.1218182724	 0.147078
H	 3.1454278724	-0.7111839817	 2.1074835669	 0.2547
H	 3.7359879669	-0.9914560981	 4.2738030428	 0.070938
30.82	44.5977	129.9959	175.5183	204.4045	215.698	267.1594	277.811	343.9385	374.6964	423.4544	464.6225	532.4783	580.6772	705.354	746.4759	838.014	882.0161	955.3091	966.6336	981.52	989.4425	1013.7204	1034.744	1082.3361	1085.2016	1133.9643	1155.963	1202.4793	1224.885	1287.7841	1314.0794	1347.7825	1373.8331	1412.7947	1424.0405	1429.2199	1461.5492	1478.5697	1483.8863	1492.957	1502.6124	1513.3718	1529.7072	1802.688	2931.0273	3024.2105	3035.2429	3057.7492	3087.7786	3093.5389	3100.1714	3108.6929	3124.3809	3138.2403	3491.4608	3630.0378
CC1(C)NC1CNC=O	CC1(C)N[C@H]1CNC=O	
InChI=1S/C6H12N2O/c1-6(2)5(8-6)3-7-4-9/h4-5,8H,3H2,1-2H3,(H,7,9)	InChI=1S/C6H12N2O/c1-6(2)5(8-6)3-7-4-9/h4-5,8H,3H2,1-2H3,(H,7,9)/t5-/m0/s1
