18
gdb 41010	3.16372	1.95077	1.45929	1.8766	75.64	-0.2127	0.0709	0.2836	911.1942	0.149561	-401.839194	-401.83286	-401.831915	-401.869546	26.972	
C	-0.0356603515	 1.4048710394	-0.3425584166	-0.175886
C	 1.4746628878	 1.5291833201	 0.0639346097	-0.3787
C	 1.1581525803	 0.3087629728	 0.9365452775	 0.403496
C	 1.6526621491	-0.9685336471	 1.6400893007	-0.065327
O	 2.0260586534	-0.2517391471	 2.8578045579	-0.318833
C	 0.7478392106	 0.349508319	 2.4716934257	-0.000192
C	 0.1293953696	-1.0250919414	 2.1268089034	-0.058388
C	-0.8508743739	-0.8018493136	 0.9624478164	-0.222611
N	 0.0372718473	-0.0139056695	 0.0876319693	-0.093083
H	-0.6826610786	 2.0347584466	 0.2879813723	 0.091308
H	-0.2984191082	 1.5522915152	-1.3933197526	 0.106767
H	 2.1409986416	 1.3092724715	-0.7717582601	 0.122212
H	 1.7963137981	 2.4349605042	 0.5769207808	 0.115766
H	 2.2961520113	-1.7761058529	 1.2916666156	 0.091611
H	 0.3521081682	 1.1487674559	 3.0997441998	 0.086975
H	-0.1159044581	-1.7094561777	 2.937569122	 0.085373
H	-1.1932968709	-1.7219929359	 0.4774833805	 0.10968
H	-1.7367154159	-0.2422120495	 1.2977466574	 0.09983
184.6553	288.6511	318.7065	346.757	473.4904	579.464	616.7181	655.0161	701.8937	756.4632	767.5775	833.2986	868.953	894.0791	907.2133	920.5372	950.3224	975.4312	986.6866	1053.5382	1083.7669	1097.8367	1120.8549	1131.8433	1154.4693	1167.2768	1180.4789	1199.1026	1206.3577	1215.232	1235.9759	1261.2809	1282.6119	1291.7907	1331.3525	1360.6884	1480.7757	1506.2493	1520.5131	2981.5172	2997.9726	3062.1645	3082.9847	3091.7245	3106.8566	3123.1404	3142.8504	3152.4912
C1CC23C4OC2C4CN13	C1C[C@@]23[C@H]4O[C@@H]2[C@H]4CN13	
InChI=1S/C7H9NO/c1-2-8-3-4-5-7(1,8)6(4)9-5/h4-6H,1-3H2	InChI=1S/C7H9NO/c1-2-8-3-4-5-7(1,8)6(4)9-5/h4-6H,1-3H2/t4-,5-,6+,7+
