18
gdb 70489	3.33306	1.01472	0.90805	2.1131	75.24	-0.2542	0.0243	0.2786	1323.0641	0.146574	-439.045621	-439.036833	-439.035889	-439.080029	32.433	
O	 0.0143380169	 1.3983753592	 0.061652508	-0.461689
C	 0.0220337088	 0.017148695	 0.050778322	 0.374635
C	-0.3129174147	-0.7930144096	-1.1701455667	-0.338978
C	-1.1720418908	-0.9394763473	 0.062855896	-0.106995
C	-0.4522041482	-1.8596272232	 1.0550330696	-0.268048
C	 0.7185660002	-0.821558496	 1.1081093508	 0.051795
O	 2.0240822653	-1.2643816884	 0.7571714861	-0.197211
C	 2.8850912817	-1.5326763492	 1.7566661914	 0.123411
N	 4.0171708769	-2.0302229082	 1.5032140913	-0.443883
H	 0.6926300162	 1.7106228861	-0.5473901524	 0.292995
H	-0.7577230282	-0.2005499956	-1.9633436316	 0.117667
H	 0.325055307	-1.6066869061	-1.5049274683	 0.125889
H	-2.2266286141	-0.6990487363	 0.0653962587	 0.101742
H	-0.9541069747	-1.9814361046	 2.0170060863	 0.108855
H	-0.1701544088	-2.841636025	 0.6650304339	 0.114455
H	 0.7446431214	-0.2922385122	 2.067128609	 0.094056
H	 2.4982795795	-1.2646799414	 2.7504962772	 0.083482
H	 4.5444598857	-2.1460405271	 2.3661348487	 0.227823
37.6378	107.6497	111.4809	211.941	270.6994	282.287	359.1083	388.0997	448.9618	501.4433	601.8949	674.9361	732.0999	818.9172	851.9627	858.7367	890.2709	943.9741	996.4699	1008.071	1032.1813	1034.4519	1045.7185	1082.9065	1108.3697	1130.5693	1170.7786	1203.7526	1226.0123	1244.1211	1292.8585	1305.9251	1327.8047	1373.7986	1413.4148	1432.0499	1475.7346	1506.8704	1744.23	3012.2647	3049.4165	3060.8933	3116.2836	3118.9781	3205.1934	3212.9762	3517.117	3797.172
OC12CC1CC2OC=N	O[C@]12C[C@H]1C[C@H]2O[CH][NH]	
InChI=1S/C6H9NO2/c7-3-9-5-1-4-2-6(4,5)8/h3-5,7-8H,1-2H2	InChI=1S/C6H9NO2/c7-3-9-5-1-4-2-6(4,5)8/h3-5,7-8H,1-2H2/t4-,5-,6-/m1/s1
