16
gdb 14357	4.34474	2.20551	1.924	2.2991	69.24	-0.2302	-0.001	0.2292	736.8422	0.132075	-346.505002	-346.499288	-346.498343	-346.53436	24.317	
C	-0.0620216623	 1.596305986	 0.1154566156	-0.260605
C	 1.4257739883	 1.245779214	 0.055530363	-0.007971
O	 1.1492690105	 0.0765258315	 0.9658529792	-0.373123
C	 0.1028116431	 0.055496661	-0.0970447135	 0.427753
C	-0.8880039956	-0.8719768899	-0.7095864955	-0.244839
C	-0.7629418795	-0.7071949026	-2.0385484251	-0.040978
C	 0.3642259488	 0.2647962308	-2.4500315271	-0.349134
C	 1.1825269425	 0.2693322735	-1.1466410627	 0.014571
H	-0.4307144116	 1.8910267179	 1.0977790424	 0.107581
H	-0.497425347	 2.1832091898	-0.6964640272	 0.09748
H	 2.3015236605	 1.8423190742	 0.3129961648	 0.092569
H	-1.6493565794	-1.4524947894	-0.2050333464	 0.112494
H	-1.4247668341	-1.1530186492	-2.7740337806	 0.103309
H	 0.9237250783	-0.0836369271	-3.3233322101	 0.110422
H	-0.0649324272	 1.2387065581	-2.7154574022	 0.120459
H	 1.9106002848	-0.5446738387	-1.1344347647	 0.090012
260.793	297.1242	408.8972	483.4096	545.7376	563.2336	658.1337	697.7818	732.0267	770.0783	839.5037	885.9907	894.2046	915.7922	951.0772	957.9192	981.9009	1000.5695	1056.1179	1068.2468	1098.0689	1136.7493	1140.782	1165.3949	1189.599	1207.8892	1240.7825	1259.1319	1293.6263	1359.1454	1380.6036	1473.4972	1499.2273	1607.6325	3035.5847	3071.0563	3076.4229	3094.3893	3114.766	3152.345	3186.2033	3222.5826
C1C2OC11C=CCC21	C1[C@H]2O[C@]31C=CC[C@@H]23	
InChI=1S/C7H8O/c1-2-5-6-4-7(5,3-1)8-6/h1,3,5-6H,2,4H2	InChI=1S/C7H8O/c1-2-5-6-4-7(5,3-1)8-6/h1,3,5-6H,2,4H2/t5-,6+,7-/m0/s1
