19
gdb 47506	2.73723	1.42302	1.08435	2.8107	75.67	-0.2306	-0.0207	0.2099	1143.3889	0.159767	-423.033048	-423.025003	-423.024059	-423.065811	31.222	
O	-0.0102246213	-0.048865812	 0.1598302451	-0.298239
C	-0.0133072757	 1.1453013638	-0.0170028427	 0.374442
C	-1.319300444	 1.9408599335	-0.1135746802	-0.171649
O	-1.2865381703	 2.9754207684	-1.077595927	-0.240245
C	-0.1928659796	 3.8630130261	-0.895595542	-0.154214
C	 1.1239635792	 3.1376657953	-1.0667823826	 0.35418
C	 1.6744100574	 2.9812148855	-2.4619353744	-0.294404
C	 2.344936951	 3.9143507341	-1.4802544066	-0.326629
C	 1.2584682522	 1.9829450461	-0.0843650233	-0.396794
H	-2.1298047121	 1.2610088419	-0.3825731413	 0.135822
H	-1.5311069293	 2.3492915071	 0.8935110388	 0.104862
H	-0.3117119644	 4.6513395357	-1.6441389942	 0.108713
H	-0.24695059	 4.3301610344	 0.1041438545	 0.086169
H	 2.1801863319	 2.0542124352	-2.7102246515	 0.119686
H	 1.1154887141	 3.4151266578	-3.2841646324	 0.120138
H	 2.2438886569	 4.9834058705	-1.6385980845	 0.115
H	 3.301228194	 3.618185123	-1.0616621501	 0.115358
H	 1.4160953542	 2.3825936373	 0.9302514178	 0.124506
H	 2.1044416657	 1.3278476463	-0.3078526936	 0.123297
76.97	109.0388	235.7521	258.3949	339.4257	365.3872	407.0107	437.4255	467.6157	530.0988	602.4509	765.652	782.1055	816.9346	829.9447	916.5915	939.3012	957.1431	967.2892	985.3922	1014.1633	1056.4206	1082.623	1097.6523	1131.9492	1159.6352	1186.1206	1225.5269	1247.9514	1284.8386	1306.0837	1329.9767	1354.6816	1378.6286	1412.2547	1454.5865	1465.7686	1468.4295	1491.6544	1508.951	1825.9297	2926.9331	2948.1146	2992.5608	3087.0878	3097.6465	3119.3241	3126.2031	3132.9837	3204.8743	3220.1937
O=C1COCC2(CC2)C1	O=C1COCC2(CC2)C1	
InChI=1S/C7H10O2/c8-6-3-7(1-2-7)5-9-4-6/h1-5H2	InChI=1S/C7H10O2/c8-6-3-7(1-2-7)5-9-4-6/h1-5H2
