18
gdb 41564	2.97873	1.81283	1.67383	1.5495	73.11	-0.2425	0.0176	0.2601	892.1225	0.151178	-401.932135	-401.925614	-401.92467	-401.963156	26.582	
C	 0.3072932657	 1.6105342018	-0.3011730405	-0.23885
C	 1.5759349052	 1.5169264618	 0.6033032652	-0.233349
C	 1.3423074488	-0.0051878357	 0.7800486559	-0.026994
C	 0.0254760194	 0.0983545397	-0.0832288538	-0.045278
C	 0.6333554908	-0.8843111768	-1.1179444252	 0.072968
O	 1.0214609175	-0.340594152	-2.4001435637	-0.22556
C	 2.3537571594	-0.0878650223	-2.2810651701	 0.107561
N	 2.9714238549	-0.3684754243	-1.2081575154	-0.257854
C	 1.9603297884	-0.9422520285	-0.3102447459	-0.028633
H	-0.4776925303	 2.2545664416	 0.1007408256	 0.101679
H	 0.480942475	 1.8962362415	-1.3405990494	 0.111974
H	 2.523658088	 1.793587731	 0.1392150052	 0.11962
H	 1.4735837106	 2.0677183265	 1.5411527769	 0.099252
H	 1.3568151619	-0.4037340862	 1.7949412505	 0.066233
H	-0.9615248052	-0.171495966	 0.2943579452	 0.0656
H	 0.0650836219	-1.7982209079	-1.2978304814	 0.088734
H	 2.8008519406	 0.351284639	-3.1665414356	 0.140194
H	 2.2957602674	-1.9110988033	 0.0673414766	 0.082701
83.4739	220.8317	257.5401	414.7892	481.4829	600.6664	615.7984	702.1889	727.3923	801.4716	809.7078	844.1161	885.9687	886.7422	908.618	949.517	960.6968	965.2179	993.0928	1023.127	1077.3762	1089.3881	1103.4021	1115.1994	1133.4221	1206.2617	1232.0783	1235.2591	1256.1795	1268.6023	1273.8536	1292.617	1316.6039	1322.8254	1324.0183	1359.4969	1476.5119	1493.3371	1679.1064	3067.7584	3072.2985	3073.414	3090.2444	3097.8827	3108.7873	3115.5073	3133.7449	3211.9146
C1CC2C1C1OC=NC21	C1C[C@H]2[C@@H]1[C@H]1OC=N[C@@H]21	
InChI=1S/C7H9NO/c1-2-5-4(1)6-7(5)9-3-8-6/h3-7H,1-2H2	InChI=1S/C7H9NO/c1-2-5-4(1)6-7(5)9-3-8-6/h3-7H,1-2H2/t4-,5+,6-,7+/m0/s1
