14
gdb 123983	3.82496	1.66211	1.16689	2.929	67.86	-0.2238	0.007	0.2308	959.2461	0.105256	-432.889119	-432.882728	-432.881783	-432.920039	24.854	
C	-0.001857296	 1.4666885985	-0.0532810612	-0.269427
N	 1.3471606247	 2.0176624489	 0.1167125032	-0.259433
C	 2.3539062367	 1.277595137	 0.2693396938	 0.110159
O	 2.4423762441	-0.0970420495	 0.3120509355	-0.250868
C	 1.2311823494	-0.7144292728	 0.1621426472	 0.267335
C	 0.927296119	-2.0557059665	 0.1510465206	-0.175138
N	-0.4217155254	-2.0937867165	-0.0304258779	-0.185079
N	-0.9947203508	-0.8775348809	-0.1350949263	-0.303915
C	 0.0200206522	-0.0284047075	-0.0169014703	 0.239351
H	-0.6422121858	 1.8849904651	 0.7338111511	 0.13523
H	-0.4079522336	 1.8462367168	-0.9996286703	 0.135231
H	 3.3489534383	 1.6958600591	 0.3944679163	 0.130909
H	 1.529852463	-2.9423570881	 0.2523085638	 0.145665
H	-1.0038905957	-2.9108468937	-0.0908152655	 0.279982
97.5761	237.2288	337.9247	424.4583	462.6392	490.2192	516.7316	627.2417	653.2808	700.046	737.9935	767.2003	883.6678	942.5685	955.4848	962.3918	1023.8403	1061.5505	1093.1691	1176.6487	1205.0836	1238.7149	1321.4812	1349.6478	1408.1893	1432.7705	1475.8024	1489.5863	1543.0277	1634.6221	1744.7496	3019.5954	3038.3269	3182.397	3280.0547	3685.9263
C1N=COC2=CNN=C12	C1N=COc2c[nH]nc12	
InChI=1S/C5H5N3O/c1-4-5(2-7-8-4)9-3-6-1/h2-3H,1H2,(H,7,8)	InChI=1S/C5H5N3O/c1-4-5(2-7-8-4)9-3-6-1/h2-3H,1H2,(H,7,8)
