13
gdb 21918	5.22631	1.79	1.42242	3.6486	60.24	-0.2614	-0.0035	0.2579	816.2163	0.097642	-394.729775	-394.723546	-394.722602	-394.760307	23.085	
O	 0.2977435974	 1.3668112149	 0.3097819103	-0.406001
C	 0.0876318471	 0.0106131209	 0.0684858211	-0.012079
C	-1.4132936773	-0.525881807	 0.0355038759	-0.208097
N	-1.0905941084	-0.964424125	-1.3394463715	 0.095842
N	-1.4623066717	-1.6161067066	-2.4448628633	-0.173726
N	-0.4007004197	-1.5660497905	-3.2246893004	-0.178734
C	 0.633870871	-0.9108104364	-2.6121195662	-0.213267
C	 0.1761627994	-0.5198624255	-1.3710220696	 0.25139
H	-0.0917676478	 1.8734819566	-0.4120303114	 0.293651
H	 0.708160247	-0.5313848755	 0.7850026709	 0.130124
H	-1.6568470993	-1.3462858952	 0.7131272247	 0.14853
H	-2.1747070638	 0.2554142092	 0.0810040897	 0.141689
H	 1.5813670661	-0.78037879	-3.1065264903	 0.130678
122.5481	161.6675	288.9802	371.0411	460.2073	486.737	668.9435	697.9513	760.2651	769.3035	841.2472	860.5431	983.3583	1013.616	1062.7896	1109.3473	1130.5259	1154.4979	1199.1916	1202.2884	1249.1289	1282.4787	1297.2044	1336.3975	1434.5552	1469.8624	1508.9666	1528.8797	3076.2506	3101.9169	3143.1171	3285.6635	3800.4345
OC1CN2N=NC=C12	O[C@H]1Cn2nncc12	
InChI=1S/C4H5N3O/c8-4-2-7-3(4)1-5-6-7/h1,4,8H,2H2	InChI=1S/C4H5N3O/c8-4-2-7-3(4)1-5-6-7/h1,4,8H,2H2/t4-/m0/s1
