14
gdb 12294	3.05422	2.28117	1.36977	5.4299	65.36	-0.2353	-0.0862	0.1491	854.1307	0.107848	-382.582994	-382.576153	-382.575209	-382.614381	25.255	
O	 0.0036564741	-0.0106240969	-0.2429203176	-0.275011
C	-0.0311337051	 1.1783470491	-0.0580306834	 0.30314
C	-1.3123440023	 1.9838844979	 0.0531659359	-0.325365
C	-1.274677436	 2.9988721699	 1.2094204044	-0.274968
C	 0.0325576073	 3.7307426289	 1.2962170538	-0.046263
C	 1.1792626271	 3.2922079963	 0.7558877453	-0.148301
C	 1.2817762361	 2.0008711082	 0.0530752798	 0.289778
O	 2.3186161011	 1.5665238853	-0.3968585578	-0.300159
H	-1.4111433284	 2.5392340002	-0.8907994877	 0.13859
H	-2.160942828	 1.299990665	 0.1263456832	 0.132089
H	-2.0954166018	 3.7174543561	 1.1070581376	 0.126642
H	-1.4546233276	 2.4869893647	 2.1660459601	 0.142833
H	 0.0303412758	 4.6680727992	 1.8485252589	 0.118685
H	 2.1053303276	 3.851425526	 0.8499651474	 0.118312
70.4808	151.3426	293.3963	336.4469	371.8549	443.3924	494.5278	578.2136	663.8143	676.045	716.7847	856.9526	884.2945	904.9066	1014.4276	1018.2075	1037.3266	1121.7112	1136.9483	1180.9206	1244.2253	1279.9546	1316.7625	1373.397	1408.899	1458.9444	1475.166	1678.0549	1781.385	1829.8729	3009.694	3019.3008	3062.0369	3110.3908	3153.4366	3186.1724
O=C1CCC=CC1=O	O=C1CCC=CC1=O	
InChI=1S/C6H6O2/c7-5-3-1-2-4-6(5)8/h1,3H,2,4H2	InChI=1S/C6H6O2/c7-5-3-1-2-4-6(5)8/h1,3H,2,4H2
