21
gdb 102401	1.87502	1.3842	1.03893	2.8001	74.41	-0.2524	-0.0344	0.2181	1262.9197	0.179922	-461.362847	-461.352174	-461.35123	-461.398443	38.581	
C	 0.1615977401	 1.489699913	-0.1514010749	-0.409567
C	-0.0441575661	-0.0186410547	 0.0374750851	-0.215862
C	-1.5247608923	-0.4943430074	 0.0490234633	 0.102242
C	-2.2753798664	 0.004804458	 1.3034340582	-0.094605
O	-1.6335307824	-0.3427646623	 2.5108855963	-0.42802
C	-2.2899172583	-0.0437806672	-1.2196411113	-0.120439
O	-1.6641053098	-0.4327325249	-2.4313647093	-0.42139
C	-1.4796942627	-2.0153888123	 0.0474600859	 0.144187
O	-1.6737387446	-2.7139194725	 1.0175594503	-0.280861
H	 1.2291217356	 1.726437974	-0.1169204178	 0.126793
H	-0.2204364682	 1.8539035233	-1.1117503517	 0.106001
H	-0.3276656912	 2.0657650237	 0.6387484257	 0.138475
H	 0.4998673933	-0.5626486365	-0.7451572082	 0.097324
H	 0.3956224966	-0.3212420071	 0.9920055205	 0.131597
H	-2.3413506517	 1.0981020184	 1.284681891	 0.10602
H	-3.307634808	-0.3794936416	 1.2728850895	 0.092729
H	-1.6338669933	-1.3099521931	 2.529197054	 0.295128
H	-3.2813891663	-0.5097533861	-1.2376670584	 0.120861
H	-2.4512925021	 1.0428834383	-1.1788086663	 0.105362
H	-0.8751557072	 0.1048626586	-2.549646939	 0.292592
H	-1.2370242947	-2.4696231515	-0.9351928328	 0.11143
71.4483	93.6542	117.7081	159.4444	186.9586	231.5716	270.7443	272.9343	300.5375	326.4156	336.6662	391.9376	403.5392	510.6421	599.3538	656.3667	760.4365	777.5283	853.724	944.5834	967.9823	1006.5587	1018.1302	1054.1894	1070.3171	1103.6695	1113.3136	1182.9568	1215.9813	1221.5295	1279.9036	1324.9258	1372.883	1388.8512	1391.4325	1414.1341	1416.9464	1424.7329	1453.8156	1485.8987	1490.8155	1502.7225	1510.4356	1513.645	1797.9554	2930.2134	2975.9685	3001.6428	3026.6253	3037.7418	3064.797	3069.1851	3085.8121	3104.6847	3120.3039	3743.08	3826.7615
CCC(CO)(CO)C=O	CCC(CO)(CO)C=O	
InChI=1S/C6H12O3/c1-2-6(3-7,4-8)5-9/h3,8-9H,2,4-5H2,1H3	InChI=1S/C6H12O3/c1-2-6(3-7,4-8)5-9/h3,8-9H,2,4-5H2,1H3
