18
gdb 62965	2.13479	1.87491	1.43056	2.5524	71.81	-0.2362	0.0592	0.2955	996.2841	0.145638	-439.003519	-438.995065	-438.99412	-439.035983	32.987	
C	-0.0547002973	 1.5857656678	-0.1154474834	-0.463536
C	 0.0179578034	 0.0739188845	 0.0026045959	 0.307744
O	-1.2536652759	-0.5390642023	-0.0531695966	-0.465056
C	 1.0511573897	-0.66710907	-0.8947258266	-0.112023
N	 2.3917841394	-0.1855901874	-0.4918228656	-0.350563
C	 1.7247148512	-1.2688204268	 0.2860221281	-0.17934
C	 0.7788124471	-0.5427418983	 1.2222260674	 0.484613
C	 0.9686876786	-0.0671099204	 2.5892146694	-0.263571
O	 0.1007583717	-1.1736691875	 2.2787605571	-0.271963
H	 0.9466124159	 2.0195422499	-0.0742330908	 0.145355
H	-0.513848251	 1.8763787908	-1.0694186283	 0.101875
H	-0.6632317223	 2.003039061	 0.6929179065	 0.124883
H	-1.7133946728	-0.1835162313	-0.8216241202	 0.277471
H	 0.8607515278	-1.0894591703	-1.8741725877	 0.093653
H	 3.0731535299	-0.6331285294	-1.1047621646	 0.234189
H	 2.1802361598	-2.2410221358	 0.4234620991	 0.10505
H	 1.8797937791	-0.3219317453	 3.1284765303	 0.115274
H	 0.4609381858	 0.8350296908	 2.9267503301	 0.115946
111.6731	202.7332	221.6126	244.3022	261.9672	280.8858	318.3985	370.4899	428.8274	523.9564	567.818	605.8882	664.4185	820.8327	835.5307	852.53	865.355	912.8094	927.3488	966.3468	987.0554	1017.1883	1071.4153	1093.1582	1104.2468	1120.6626	1143.4704	1161.0674	1175.2337	1208.6806	1283.354	1310.4815	1340.206	1381.6268	1399.536	1453.5363	1487.9934	1497.6847	1540.3706	3021.524	3083.9875	3091.4767	3134.967	3172.0261	3185.315	3204.5152	3469.9352	3803.3213
CC1(O)C2NC2C11CO1	C[C@@]1(O)[C@H]2N[C@H]2[C@]21CO2	
InChI=1S/C6H9NO2/c1-5(8)3-4(7-3)6(5)2-9-6/h3-4,7-8H,2H2,1H3	InChI=1S/C6H9NO2/c1-5(8)3-4(7-3)6(5)2-9-6/h3-4,7-8H,2H2,1H3/t3-,4+,5+,6-/m0/s1
