18
gdb 84558	2.91041	1.77578	1.36897	2.9004	76.89	-0.2169	-0.0034	0.2135	963.2664	0.14937	-401.834679	-401.827663	-401.826718	-401.865736	28.969	
O	-0.1913433928	 1.4716242026	 0.1386871636	-0.435107
C	 0.005650117	 0.0731907476	 0.0068889931	-0.077869
C	 0.6255810249	-0.5955431637	 1.2594377471	-0.08295
C	-0.0258551194	-1.688074747	 1.6880789549	-0.170724
C	-1.0935587265	-2.0200079488	 0.6756368082	 0.027277
N	-2.6676028381	-1.8916186949	 0.7116557226	-0.19003
C	-2.3950181639	-0.4320735784	 1.0999120505	-0.178387
C	-1.3175695595	-0.6698228454	 0.0143546055	 0.314536
C	-2.4741466991	-1.3795593069	-0.743578595	-0.267916
H	 0.6706024295	 1.8979927802	 0.1748935114	 0.285602
H	 0.6135482209	-0.1539134221	-0.8848465859	 0.076915
H	 1.5159009721	-0.1804701696	 1.7239363984	 0.095643
H	 0.2636914261	-2.2943459865	 2.5392816663	 0.103485
H	-0.8128768475	-2.8744021148	 0.048987085	 0.081321
H	-3.2188658306	 0.2406128657	 0.8505865725	 0.098885
H	-2.0739259491	-0.300396239	 2.1330608904	 0.109108
H	-2.2163497356	-2.1657399396	-1.4578764039	 0.102873
H	-3.3191873286	-0.7798002794	-1.0893330948	 0.107338
151.0468	238.6985	243.1855	311.935	370.049	489.688	527.477	545.4116	617.2355	684.5771	726.6484	784.3723	794.6616	849.1433	900.2683	918.47	945.9011	968.8958	977.2707	1002.7446	1032.8701	1044.685	1081.7808	1097.1871	1125.0912	1141.0674	1161.5134	1189.2978	1195.456	1232.3543	1233.9993	1287.6979	1315.7251	1339.7994	1361.6023	1424.3479	1508.4019	1545.9359	1622.4714	2959.5791	3034.3083	3056.6666	3071.393	3127.3329	3142.9848	3167.1029	3197.7008	3819.6401
OC1C=CC2N3CC12C3	O[C@H]1C=C[C@H]2N3C[C@@]12C3	
InChI=1S/C7H9NO/c9-6-2-1-5-7(6)3-8(5)4-7/h1-2,5-6,9H,3-4H2	InChI=1S/C7H9NO/c9-6-2-1-5-7(6)3-8(5)4-7/h1-2,5-6,9H,3-4H2/t5-,6+/m1/s1
