20
gdb 71681	2.68249	2.24068	1.65497	1.6584	80.66	-0.2196	0.0766	0.2963	898.2456	0.173995	-365.953122	-365.946535	-365.945591	-365.98355	28.419	
C	 0.051259019	 1.4839485675	 0.0266611773	-0.512959
C	 0.0282693527	-0.0260949106	-0.0036538298	 0.328183
C	-1.2701738429	-0.8480203849	-0.1956818266	-0.220598
N	-0.4247454184	-1.9584976136	-0.7410329629	-0.155084
C	 0.594346583	-2.2113321767	 0.3376231858	-0.001382
C	 1.7789291244	-1.6837928388	-0.5210194462	-0.055016
C	 2.2726518928	-0.8307396158	 0.6602636105	-0.262148
C	 0.782222335	-0.8181578649	 1.0841635386	-0.086887
C	 0.6040326433	-0.9149258618	-1.1798369946	-0.044828
H	 1.0740498296	 1.8742673147	 0.0598010248	 0.119589
H	-0.4355489631	 1.9059471632	-0.8594800662	 0.115642
H	-0.4766804319	 1.8662254466	 0.9083628186	 0.118026
H	-1.8731033006	-1.0980990592	 0.6850840941	 0.092811
H	-1.9182681935	-0.45744427	-0.986983504	 0.100303
H	 0.5603127701	-3.147020461	 0.8931643985	 0.069488
H	 2.4217845929	-2.3058684984	-1.1408701863	 0.072724
H	 2.8915233806	-1.4164663266	 1.3462912604	 0.100396
H	 2.7640181847	 0.126397211	 0.456650111	 0.092569
H	 0.4802903366	-0.6562255735	 2.119272431	 0.060846
H	 0.580078516	-0.5598021774	-2.2102766742	 0.068325
200.2906	249.4824	259.7775	390.1314	437.6194	481.6105	588.2505	697.896	732.5346	784.9233	792.3919	828.0144	843.915	866.9584	887.9228	903.2773	932.9388	951.3247	973.9118	998.7469	1004.5662	1013.1349	1030.7012	1073.0096	1102.9695	1149.5803	1153.4328	1165.5145	1191.3075	1198.2696	1219.4754	1225.294	1229.6971	1253.1028	1273.809	1282.8884	1300.473	1355.66	1413.9314	1490.0529	1492.0873	1502.2172	1504.1605	3023.18	3031.009	3043.0007	3085.5938	3089.1893	3092.9053	3097.9209	3108.8978	3111.377	3126.0937	3138.4543
CC12CN3C4C(CC14)C23	C[C@]12CN3[C@H]4[C@H](C[C@@H]14)[C@H]23	
InChI=1S/C8H11N/c1-8-3-9-6-4(7(8)9)2-5(6)8/h4-7H,2-3H2,1H3	InChI=1S/C8H11N/c1-8-3-9-6-4(7(8)9)2-5(6)8/h4-7H,2-3H2,1H3/t4-,5+,6-,7+,8-/m0/s1
