14
gdb 46026	3.325	1.30363	0.97468	4.1174	70.74	-0.2585	-0.0763	0.1822	1135.8163	0.100044	-436.670968	-436.662947	-436.662003	-436.704021	29.353	
N	 0.0118787364	 1.3110459548	-0.2100290866	-0.499128
C	 0.0273299567	 0.0645699297	-0.023645698	 0.32355
O	 1.1224815796	-0.7431849973	-0.0300065925	-0.238539
C	 0.7906475367	-2.0733783197	 0.418204553	-0.109976
C	-0.7178764989	-2.248147115	 0.149507906	-0.326795
C	-1.4005926636	-3.1754200225	 1.0252674145	 0.319745
C	-1.9545145612	-3.9395082113	 1.7676932996	-0.41427
C	-1.2117337894	-0.784414667	 0.2094966695	 0.325153
O	-2.3251234154	-0.3906902506	 0.3863179308	-0.258688
H	 0.9583430137	 1.6725897994	-0.3492443945	 0.236559
H	 1.4160497074	-2.7735258275	-0.135962716	 0.141133
H	 1.008506851	-2.1603499578	 1.4874220583	 0.139014
H	-0.8524185813	-2.5490740626	-0.9005362621	 0.153433
H	-2.4540096919	-4.6130520527	 2.419743458	 0.208808
61.9014	126.2594	157.5479	214.332	330.6263	370.3537	415.0721	479.3727	542.3835	592.7616	639.4143	643.3865	659.4565	712.7438	814.8046	906.9051	938.9784	981.9296	1022.2276	1045.4764	1079.9371	1136.5781	1207.3821	1258.7733	1272.2506	1329.2947	1400.5186	1522.4426	1761.0484	1877.8211	2248.5027	3002.1691	3059.9225	3133.9857	3464.8306	3502.7498
N=C1OCC(C#C)C1=O	[NH][C]1OC[C@@H](C#C)C1=O	
InChI=1S/C6H5NO2/c1-2-4-3-9-6(7)5(4)8/h1,4,7H,3H2	InChI=1S/C6H5NO2/c1-2-4-3-9-6(7)5(4)8/h1,4,7H,3H2/t4-/m1/s1
