25
gdb 109768	2.28776	1.05487	0.8465	1.4173	89.41	-0.2518	0.0739	0.3257	1523.0182	0.226668	-389.485604	-389.474217	-389.473273	-389.522305	41.643	
C	 0.2336732135	 1.0060286429	 0.8971157616	-0.378512
C	 0.0356016795	-0.5148043995	 0.8616730146	-0.194619
C	-1.3503206191	-0.9028999695	 0.3804407446	-0.019507
C	-1.708130379	-1.092475242	-1.0816242605	-0.035717
C	-0.712428717	-0.9555355714	-2.2155078034	-0.402016
C	-1.7055250307	-2.2824520235	-0.144993337	-0.067681
C	-0.7050586114	-3.4142669964	-0.2773857562	 0.131711
C	-0.6538448667	-4.2774996022	 0.9858069715	-0.398482
O	-0.9778753501	-4.2133320615	-1.4321870542	-0.437507
H	 1.2268976034	 1.2685979468	 1.2748323155	 0.109288
H	 0.1260468123	 1.4411996404	-0.1016912898	 0.120718
H	-0.5074955536	 1.4844412852	 1.5469806476	 0.113134
H	 0.8107581095	-0.9628949457	 0.2322246845	 0.098316
H	 0.1942730529	-0.9235469143	 1.8687680987	 0.095819
H	-2.1328571476	-0.4405746661	 0.9799660477	 0.075688
H	-2.7004121704	-0.7387822494	-1.3525738567	 0.077028
H	 0.3081126537	-1.2060925161	-1.9173421661	 0.115725
H	-0.9774248693	-1.6228263899	-3.0413914016	 0.128238
H	-0.698513128	 0.0711994388	-2.5973443759	 0.108874
H	-2.6899909535	-2.6457035428	 0.1529917347	 0.065393
H	 0.2953911895	-3.0152308964	-0.466697907	 0.080924
H	-1.6436048018	-4.6950209886	 1.2094443672	 0.102894
H	 0.0439341742	-5.1084278774	 0.850624465	 0.119577
H	-0.337722674	-3.6885057711	 1.8529131802	 0.118309
H	-1.8855658665	-4.5280212902	-1.3570932451	 0.272403
55.1395	75.2859	106.5543	127.0854	177.1296	210.6134	240.3996	251.3657	264.5672	276.7239	315.3326	365.6877	431.6597	495.0201	550.6782	596.47	751.5782	773.6629	807.6172	821.3857	902.6449	942.582	973.2433	981.3963	1019.9927	1046.7666	1065.0967	1093.8246	1100.1314	1102.177	1135.8297	1157.4409	1187.6399	1193.9284	1259.5088	1280.0594	1292.6033	1328.9923	1340.4874	1392.7371	1400.8283	1404.7946	1413.1127	1419.9059	1422.5427	1458.1256	1483.6102	1490.2379	1494.8184	1498.1379	1499.6142	1500.2661	1510.7032	3017.3992	3024.2218	3031.605	3037.3541	3061.3716	3072.3509	3085.8138	3097.3667	3098.2795	3099.1947	3105.6282	3111.2667	3116.4098	3117.6516	3133.3972	3798.7251
CCC1C(C)C1C(C)O	CC[C@H]1[C@@H](C)[C@H]1[C@@H](C)O	
InChI=1S/C8H16O/c1-4-7-5(2)8(7)6(3)9/h5-9H,4H2,1-3H3	InChI=1S/C8H16O/c1-4-7-5(2)8(7)6(3)9/h5-9H,4H2,1-3H3/t5-,6-,7+,8+/m1/s1
