17
gdb 124978	2.97809	1.22608	0.94732	1.36	75.85	-0.2312	-0.0235	0.2077	1216.4598	0.13628	-418.045906	-418.037085	-418.03614	-418.080465	31.053	
C	 0.1732200297	 1.4862615462	-0.2366920405	-0.517364
C	 0.0929128095	-0.0041592621	-0.1587708405	 0.296661
C	-0.01961578	-0.9749311592	-1.1470621155	 0.099428
C	-0.0299629979	-0.7527235028	-2.6356796637	-0.391394
C	 1.3596074093	-0.3265245079	-3.0774054672	 0.160769
O	 1.6547361777	 0.7922428293	-3.4154032263	-0.244868
C	-0.0785990159	-2.1974532	-0.4388567946	-0.086281
N	-0.0181104075	-2.0210158996	 0.875719162	-0.228334
N	 0.0843827286	-0.6835769033	 1.0154532922	-0.24274
H	 0.8154214306	 1.8930869584	 0.5512403179	 0.131573
H	 0.5858456122	 1.7955113644	-1.1995096491	 0.170178
H	-0.8148343671	 1.9506396619	-0.1312194491	 0.141514
H	-0.2947820389	-1.6876919029	-3.1426778764	 0.121427
H	-0.7422194846	 0.0210454504	-2.9371876442	 0.123701
H	 2.1267604093	-1.130989276	-3.0160580011	 0.085051
H	-0.1677207808	-3.1958030822	-0.8440272215	 0.109645
H	 0.1477658157	-0.2955410947	 1.9421541275	 0.271034
57.8616	74.0417	97.7974	163.9418	230.7067	248.1502	360.2897	386.4331	485.8075	536.0614	641.9845	688.3062	697.0816	710.1344	865.2852	885.3272	949.3776	1002.5233	1011.2333	1054.3986	1067.4289	1135.4411	1155.8515	1215.3837	1251.1677	1289.242	1313.0625	1384.8843	1419.4304	1420.3641	1443.1864	1466.4327	1485.5549	1494.9318	1527.0973	1616.3078	1820.9502	2881.9564	3029.2523	3040.7987	3086.6009	3097.8075	3131.6763	3235.7021	3662.6395
CC1=C(CC=O)C=NN1	Cc1c(CC=O)cn[nH]1	
InChI=1S/C6H8N2O/c1-5-6(2-3-9)4-7-8-5/h3-4H,2H2,1H3,(H,7,8)	InChI=1S/C6H8N2O/c1-5-6(2-3-9)4-7-8-5/h3-4H,2H2,1H3,(H,7,8)
