15
gdb 57750	3.44262	0.69332	0.61834	3.2827	81.98	-0.2717	-0.0836	0.1881	1760.6253	0.108488	-420.565761	-420.555688	-420.554744	-420.602455	34.591	
C	-0.6845917816	 1.4595783256	-0.1807752308	-0.391886
C	 0.21083648	 0.2298929657	 0.0413651343	-0.025929
O	-0.4514633055	-0.7901948552	 0.7756691603	-0.405942
C	 0.7361008168	-0.270224235	-1.2330750886	 0.024143
C	 1.1191190041	-0.6986642954	-2.2957958964	 0.053282
C	 1.5705438541	-1.2266442418	-3.5612540497	 0.160315
O	 1.0631023943	-2.1950392613	-4.0927265058	-0.266258
C	 2.681522714	-0.5075147664	-4.154386232	 0.288692
C	 3.6036524687	 0.083383973	-4.6532644456	-0.47548
H	-0.1275341056	 2.2689521012	-0.6608530666	 0.133263
H	-1.5362459448	 1.2039284193	-0.818838715	 0.126632
H	-1.058504725	 1.8044588639	 0.7862621753	 0.135296
H	 1.0577981035	 0.5211034949	 0.6743815532	 0.132203
H	-1.1353490156	-1.1662630747	 0.209550444	 0.290313
H	 4.4185209527	 0.5996886862	-5.1000193568	 0.221357
23.523	64.496	92.6082	146.947	219.9271	239.9244	264.0184	288.2261	305.6594	368.3833	470.7523	552.9008	583.0636	602.9241	652.902	700.1631	705.9099	773.719	860.5964	946.4192	1038.4224	1082.4566	1120.9397	1213.8905	1286.0381	1326.065	1398.427	1417.025	1487.1264	1491.4975	1720.5865	2216.8273	2322.9831	3041.4669	3045.1075	3120.2864	3133.5624	3493.5195	3801.4311
CC(O)C#CC(=O)C#C	C[C@@H](O)C#CC(=O)C#C	
InChI=1S/C7H6O2/c1-3-7(9)5-4-6(2)8/h1,6,8H,2H3	InChI=1S/C7H6O2/c1-3-7(9)5-4-6(2)8/h1,6,8H,2H3/t6-/m1/s1
