21
gdb 69546	2.58004	1.52975	1.34598	1.1956	81.98	-0.2183	0.0777	0.296	1085.2122	0.181985	-387.042505	-387.034124	-387.03318	-387.074647	34.285	
C	-0.0005048452	 1.5536550722	 0.0428840771	-0.499684
C	 0.045651552	 0.0524892859	-0.0009760793	 0.363394
C	-0.8448751985	-0.8143173307	 0.846672357	-0.354483
C	 0.6442821893	-0.9540947514	 0.9963121005	-0.129793
C	 1.2867610326	-1.7451664618	-0.1580895312	 0.440931
O	 2.6596176035	-1.878088912	 0.0661337877	-0.489131
C	 0.5065785493	-2.9250493312	-0.8189644043	-0.307417
C	-0.1457849686	-1.9182033571	-1.8247192571	-0.248485
C	 0.6582616571	-0.7475937148	-1.1840597831	-0.153785
H	 0.9643461384	 1.9924608217	-0.2360981705	 0.117466
H	-0.7564582844	 1.9491916401	-0.6473030069	 0.116538
H	-0.2519236809	 1.9113133562	 1.04716351	 0.115453
H	-1.3279707653	-0.2891801656	 1.6661107817	 0.107623
H	-1.4578548457	-1.6097371267	 0.4330944109	 0.107016
H	 1.1542289147	-0.7828276944	 1.9375676195	 0.086921
H	 3.0625341127	-2.2391807847	-0.730617207	 0.275171
H	 1.1835112949	-3.6357089085	-1.3049072982	 0.087963
H	-0.1682263203	-3.4923233015	-0.1722512079	 0.10311
H	 0.1234883809	-2.1096972395	-2.8661672919	 0.095804
H	-1.2332345263	-1.8311666471	-1.7699184382	 0.103092
H	 1.2960604098	-0.1517812092	-1.8390483589	 0.062299
138.308	204.2686	230.6288	257.3864	295.2478	328.6873	344.1643	378.5345	444.4201	488.6698	578.2636	621.9597	717.5867	742.4054	780.5827	834.1537	877.369	899.6991	936.2128	950.3072	974.4336	988.2757	1006.1278	1034.8296	1058.3262	1075.3249	1090.806	1091.258	1111.0069	1135.1667	1200.5059	1215.2211	1231.4068	1239.4825	1252.1711	1279.3699	1315.8631	1388.2676	1394.449	1420.1839	1470.3411	1483.8821	1487.2515	1499.2498	1508.0568	3016.0676	3042.9883	3063.9379	3074.1436	3091.5117	3092.5497	3098.5541	3114.395	3116.9107	3175.4028	3190.6428	3805.1314
CC12CC1C1(O)CCC21	C[C@]12C[C@H]1[C@@]1(O)CC[C@@H]21	
InChI=1S/C8H12O/c1-7-4-6(7)8(9)3-2-5(7)8/h5-6,9H,2-4H2,1H3	InChI=1S/C8H12O/c1-7-4-6(7)8(9)3-2-5(7)8/h5-6,9H,2-4H2,1H3/t5-,6+,7+,8+/m0/s1
