13
gdb 129939	3.50396	1.62977	1.11401	4.5887	65.13	-0.2117	-0.0074	0.2043	986.2289	0.091626	-452.724515	-452.717869	-452.716925	-452.755404	25.97	
N	-0.0029313317	 1.4367262617	 0.169863686	-0.602009
C	 0.0258651278	 0.0491419347	 0.0364789946	 0.049052
C	-1.0279019823	-0.8205174764	-0.0030997138	-0.096479
O	-0.6004485293	-2.1676171972	-0.0392515773	-0.214619
C	 0.7174188188	-2.061241916	-0.0356709184	 0.496078
C	 1.2059337538	-0.7871650842	 0.0121848738	 0.104522
C	 2.6054309122	-1.0236682318	 0.0156389697	-0.129958
N	 2.8926847643	-2.3084139477	-0.029708076	-0.145984
O	 1.6386306986	-3.0053623027	-0.0634092234	-0.23977
H	 0.7154067586	 1.9043823842	-0.3670474689	 0.253355
H	-0.9058353402	 1.843597922	-0.0353845073	 0.251187
H	-2.0955312637	-0.6893098228	 0.0046144993	 0.136059
H	 3.4355408432	-0.3317797838	 0.0510049716	 0.138565
193.2927	235.2087	249.1836	288.6691	408.2748	536.1592	578.0613	612.7978	622.4264	645.3915	687.0215	722.6109	765.3787	778.4804	827.3538	900.7921	966.9129	1044.5454	1088.6204	1159.0044	1205.3633	1269.17	1325.7253	1433.6179	1474.6696	1574.2681	1602.6861	1638.472	1668.9172	3239.7589	3296.1465	3543.9866	3636.0025
NC1=COC2=C1C=NO2	Nc1coc2c1cno2	
InChI=1S/C5H4N2O2/c6-4-2-8-5-3(4)1-7-9-5/h1-2H,6H2	InChI=1S/C5H4N2O2/c6-4-2-8-5-3(4)1-7-9-5/h1-2H,6H2
