15
gdb 12451	3.59461	1.97879	1.36173	2.9835	63.23	-0.2603	-0.0221	0.2382	869.3243	0.120327	-399.837357	-399.830395	-399.829451	-399.868979	25.54	
O	-0.2488085923	-0.1791310386	-0.2127663734	-0.291921
C	-0.078160493	 0.9695156713	 0.0724224786	 0.422849
C	-1.1139916407	 2.0559450609	-0.0779276371	-0.328948
C	-1.376041432	 2.7961533087	 1.2439184364	-0.235106
C	-0.3630020658	 3.9147852096	 1.4871607028	-0.144334
N	 1.0472185017	 3.6084479815	 1.4023694503	-0.233368
C	 1.6057373701	 2.5553274816	 1.0199159061	 0.13799
O	 1.1564247324	 1.3181304595	 0.5815317559	-0.223731
H	-0.7814201539	 2.7668948581	-0.8454434139	 0.13234
H	-2.0120185222	 1.5610597206	-0.450159676	 0.139613
H	-2.3767505058	 3.2399879408	 1.2176948721	 0.115838
H	-1.3739818287	 2.0839690773	 2.077040777	 0.122043
H	-0.5446534893	 4.7262301682	 0.7683081829	 0.124478
H	-0.5313703677	 4.3616418679	 2.4746075243	 0.125158
H	 2.6925711672	 2.4917653127	 1.031406464	 0.137101
77.9315	112.8993	253.8764	304.078	380.4378	456.0017	497.5441	541.3254	680.6911	727.4521	823.3283	837.3357	898.1785	933.154	962.5674	978.1918	1068.4753	1091.5486	1108.7853	1141.1563	1209.6476	1259.0831	1306.4792	1354.31	1376.4542	1396.331	1447.288	1470.3766	1478.9672	1494.5135	1783.5497	1861.9218	3013.4376	3033.4222	3039.2218	3053.2654	3084.0245	3125.7429	3154.5024
O=C1CCCN=CO1	O=C1CCCN=CO1	
InChI=1S/C5H7NO2/c7-5-2-1-3-6-4-8-5/h4H,1-3H2	InChI=1S/C5H7NO2/c7-5-2-1-3-6-4-8-5/h4H,1-3H2
