18
gdb 39250	2.89967	1.89186	1.34968	1.6418	75.52	-0.2276	0.0204	0.248	957.9882	0.151008	-401.964263	-401.957543	-401.956598	-401.995274	27.453	
C	-0.0038066016	 1.40004296	-0.1764053393	-0.357066
C	 1.3929624312	 0.8421413358	 0.0120846815	-0.091338
C	 1.9568114851	 0.7526067003	 1.4336871127	-0.241314
C	 1.3907329992	-0.5691464568	 2.0235019484	-0.22553
C	 0.044936285	-0.7773517542	 1.3091926821	 0.037268
O	-0.206663699	-2.1517605305	 0.9151004034	-0.239326
C	-0.2540114811	-2.1367428881	-0.4435848912	 0.083612
N	-0.0742090594	-1.046460285	-1.0733296365	-0.322187
C	 0.1877999894	-0.0755806747	-0.0474300711	 0.361776
H	-0.4734542293	 1.937731275	 0.6440789483	 0.106627
H	-0.2548903943	 1.7705949109	-1.1645891754	 0.126121
H	 2.0734176454	 0.899238959	-0.8290477589	 0.099622
H	 3.0496453985	 0.7496062934	 1.4348027259	 0.110123
H	 1.6434437095	 1.6128197168	 2.0371373718	 0.10455
H	 2.0410420996	-1.4050982796	 1.7455997708	 0.11689
H	 1.3099919941	-0.5585022263	 3.1139473792	 0.101856
H	-0.8119935763	-0.4539822733	 1.9101744696	 0.090214
H	-0.445384546	-3.1028714526	-0.8959944712	 0.138104
119.6537	202.9427	274.5305	394.4878	407.6333	543.6477	555.1996	574.1939	622.4644	810.8637	820.3993	829.6839	851.0491	895.1188	926.7885	937.6991	951.3633	958.7405	981.6113	1035.6089	1051.3845	1060.0772	1078.2992	1111.5207	1124.3068	1195.9403	1210.8474	1232.1175	1269.7687	1297.5221	1317.8075	1334.9192	1340.9184	1369.2528	1397.8728	1477.6185	1489.6701	1502.9912	1672.3989	3035.9718	3043.6046	3052.7605	3093.4347	3106.9922	3109.6862	3184.9115	3207.9717	3220.6183
C1C2CCC3OC=NC123	C1[C@H]2CC[C@@H]3OC=N[C@]123	
InChI=1S/C7H9NO/c1-2-6-7(3-5(1)7)8-4-9-6/h4-6H,1-3H2	InChI=1S/C7H9NO/c1-2-6-7(3-5(1)7)8-4-9-6/h4-6H,1-3H2/t5-,6+,7-/m1/s1
