19
gdb 84481	2.85868	1.49437	1.12685	2.4651	82.87	-0.2361	-0.0151	0.221	1129.6477	0.159169	-385.918589	-385.910195	-385.909251	-385.95157	32.317	
C	-0.1174275248	 1.573277757	 0.0378241599	-0.391599
C	 0.0225267299	 0.044182114	-0.0293297885	-0.15642
C	 0.7913997104	-0.4927593587	-1.2135622027	-0.104724
C	 1.8373801178	-1.2411658524	-0.8502022253	-0.166053
C	 1.9535943832	-1.3379476457	 0.6232530359	 0.218878
C	 2.3829696941	-2.5833872002	 1.3909636535	-0.298454
C	 3.2637253791	-1.3823973253	 1.3993393762	-0.296755
C	 0.8214517219	-0.5114823615	 1.1667485941	 0.337114
O	 0.5869464811	-0.3043578188	 2.3333217832	-0.344018
H	 0.8609629171	 2.05906595	-0.0301401065	 0.121233
H	-0.738465878	 1.9454595245	-0.7824274112	 0.11534
H	-0.5794327831	 1.8622259097	 0.9856455579	 0.138813
H	-0.9862750409	-0.392462463	 0.0164857212	 0.108975
H	 0.5051729057	-0.2776165387	-2.2366756148	 0.098804
H	 2.5290808292	-1.7305091106	-1.5267447999	 0.101461
H	 1.8129422027	-2.8009951368	 2.2878776628	 0.137853
H	 2.6767043564	-3.4455348416	 0.8022240303	 0.120809
H	 4.1788624597	-1.3989816705	 0.8176438488	 0.120267
H	 3.2914343087	-0.7810039113	 2.3017503852	 0.138476
61.2107	181.6379	208.5928	221.3143	236.5707	262.6134	332.4045	458.615	525.3661	576.8735	662.4941	703.3293	741.6195	775.6441	790.1966	865.9774	881.5438	901.1319	958.612	960.0393	970.5543	1023.3896	1060.0717	1073.4523	1086.6176	1098.7863	1105.3519	1147.4054	1203.0083	1270.9459	1285.1103	1304.8963	1318.3627	1395.0238	1415.2069	1451.9195	1483.3457	1495.2443	1500.1836	1662.0968	1828.9193	2999.8619	3039.2815	3109.8915	3123.0076	3132.016	3133.163	3184.5079	3207.6872	3218.5024	3233.5275
CC1C=CC2(CC2)C1=O	C[C@H]1C=CC2(CC2)C1=O	
InChI=1S/C8H10O/c1-6-2-3-8(4-5-8)7(6)9/h2-3,6H,4-5H2,1H3	InChI=1S/C8H10O/c1-6-2-3-8(4-5-8)7(6)9/h2-3,6H,4-5H2,1H3/t6-/m0/s1
