15
gdb 131206	3.20111	1.64632	1.10626	3.8584	67.74	-0.1969	0.0299	0.2268	1025.5698	0.115094	-453.940904	-453.933443	-453.932499	-453.973169	27.322	
O	 0.1685355812	 1.3907675026	 0.1620929397	-0.451364
C	 0.0774775996	 0.0363344691	 0.0141520731	 0.072094
C	 0.1855165488	-0.766952662	-1.0988565405	 0.35517
O	 0.4967133943	-0.6699066973	-2.4168463437	-0.297368
C	 0.2716590521	-1.9998100535	-2.9589934994	-0.107849
C	 0.2878404961	-2.9815752488	-1.7529973109	-0.189944
N	-0.0186557798	-2.0401751062	-0.6997672209	 0.014559
N	-0.2200683105	-2.1619828658	 0.6279841531	-0.310897
C	-0.1794262991	-0.895000934	 1.0549341446	-0.044548
H	 0.4014955484	 1.7805618769	-0.685923743	 0.302839
H	-0.7058653111	-2.0081302353	-3.4528705916	 0.131077
H	 1.052887339	-2.1992146946	-3.6929869549	 0.135063
H	-0.4691347153	-3.7633972846	-1.8477666379	 0.140083
H	 1.2675884526	-3.4498142001	-1.5996433327	 0.132874
H	-0.3466507561	-0.6663146162	 2.0971056851	 0.118209
106.8168	134.1414	154.7969	256.5398	262.5649	369.4921	526.2566	611.9255	638.7302	646.7276	664.7588	777.4042	818.2027	855.5773	869.8632	947.4398	991.7034	1084.4498	1125.9079	1140.9343	1195.849	1223.7464	1245.7153	1259.671	1313.3493	1352.3631	1376.5046	1424.8485	1453.5799	1504.7137	1525.044	1560.3953	1694.1757	3032.1756	3050.4898	3103.139	3134.6933	3248.7385	3836.8879
OC1=C2OCCN2N=C1	Oc1c2OCCn2nc1	
InChI=1S/C5H6N2O2/c8-4-3-6-7-1-2-9-5(4)7/h3,8H,1-2H2	InChI=1S/C5H6N2O2/c8-4-3-6-7-1-2-9-5(4)7/h3,8H,1-2H2
