19
gdb 57731	3.7558	0.74824	0.72518	1.2105	72.9	-0.2592	-0.0359	0.2233	1589.293	0.152758	-460.170347	-460.159289	-460.158344	-460.209685	37.13	
C	-0.0793610864	 1.6498472282	 0.039683092	-0.428758
C	-0.0300414468	 0.1140758056	 0.0228970685	 0.28017
C	 0.9205205927	-0.4326615155	 1.0995040371	-0.428729
O	-1.3306337142	-0.4742669245	 0.0942072142	-0.30016
C	-2.0950839502	-0.2510975076	 1.2528404409	-0.163961
C	-3.4194701458	-0.9776720053	 1.074321095	 0.144126
O	-4.2923152037	-0.9765338115	 1.8997706087	-0.235812
C	 0.4796211597	-0.3411822987	-1.3514795228	 0.142185
O	 1.5575954926	-0.0446450809	-1.7925765511	-0.258235
H	 0.9003976079	 2.0414777652	-0.2438417155	 0.147875
H	-0.8217173516	 2.0198052498	-0.6736404674	 0.128981
H	-0.3273909973	 2.0313681363	 1.0341937447	 0.122165
H	 0.6679809647	-0.0447919784	 2.0904221501	 0.122234
H	 0.8814754169	-1.5255301297	 1.1297432482	 0.128987
H	 1.9423832851	-0.1278013849	 0.8616804447	 0.147826
H	-1.6122039574	-0.6371056757	 2.1631516377	 0.128615
H	-2.3091589545	 0.8146718547	 1.4235936644	 0.128633
H	-3.5072542971	-1.5136597335	 0.1037912496	 0.096898
H	-0.2435999547	-0.9756191938	-1.9074861688	 0.096959
8.8878	45.5341	51.2614	103.5454	117.8661	217.8786	256.5686	263.5589	295.0733	296.8719	380.2099	389.5027	425.4003	553.3054	645.666	743.004	763.2448	895.7719	912.5626	956.0215	987.1733	1035.4711	1055.4537	1114.6339	1130.9976	1199.973	1207.0175	1242.1651	1262.2468	1353.8439	1384.3923	1385.8395	1406.1488	1411.0879	1481.1085	1481.8806	1484.9161	1500.542	1510.0529	1840.0004	1845.869	2900.5198	2909.7794	2989.2663	3023.2786	3043.0191	3045.8343	3115.4968	3117.8048	3130.6933	3134.9377
CC(C)(OCC=O)C=O	CC(C)(OCC=O)C=O	
InChI=1S/C6H10O3/c1-6(2,5-8)9-4-3-7/h3,5H,4H2,1-2H3	InChI=1S/C6H10O3/c1-6(2,5-8)9-4-3-7/h3,5H,4H2,1-2H3
