15
gdb 25585	6.52645	0.80811	0.72226	4.0034	68.47	-0.2527	-0.0099	0.2429	1460.0295	0.113779	-454.000365	-453.992268	-453.991324	-454.035212	28.013	
O	-0.0691950375	-0.0895074088	-0.0018547121	-0.32733
C	 0.0787299147	 0.9967784468	 0.5195627689	 0.157725
N	 1.2228646001	 1.7197796785	 0.4645319741	-0.280479
C	 2.386381465	 1.231116236	-0.242961661	-0.252524
C	 3.4788297062	 2.2397661196	-0.1262388101	 0.402005
N	 3.4420892694	 3.3765066311	 0.4929996035	-0.321814
C	 4.707918081	 3.9207787038	 0.2958927389	-0.108865
C	 5.4429552801	 3.062145081	-0.4438747602	-0.041639
O	 4.6604717229	 1.9717167166	-0.7233838443	-0.175356
H	-0.7131308496	 1.5112945164	 1.0979330243	 0.081916
H	 1.3025866041	 2.6204484294	 0.913466436	 0.270936
H	 2.7154806433	 0.2664412677	 0.1653250518	 0.153906
H	 2.1521225935	 1.0460859515	-1.2996022334	 0.153916
H	 4.9845979725	 4.8807686661	 0.7005208385	 0.13341
H	 6.4445137043	 3.0484611444	-0.8363818051	 0.154192
18.2947	67.4671	128.9976	231.8111	234.6779	285.0937	414.7309	534.7137	625.5348	688.9709	690.9436	764.7128	853.0567	864.6293	934.0364	982.3676	1021.88	1034.1281	1052.5312	1104.6576	1143.7083	1168.5879	1221.6264	1228.7338	1243.233	1344.6734	1421.1158	1424.0789	1503.4064	1522.919	1561.4423	1623.653	1801.0769	2947.2212	3022.3145	3041.3342	3270.0322	3306.521	3614.2073
O=CNCC1=NC=CO1	O=CNCc1ncco1	
InChI=1S/C5H6N2O2/c8-4-6-3-5-7-1-2-9-5/h1-2,4H,3H2,(H,6,8)	InChI=1S/C5H6N2O2/c8-4-6-3-5-7-1-2-9-5/h1-2,4H,3H2,(H,6,8)
