21
gdb 120228	4.30944	0.84141	0.82298	2.207	78.26	-0.2342	0.0766	0.3107	1467.0654	0.183803	-424.191633	-424.183142	-424.182198	-424.225318	32.544	
O	-1.2065985169	 1.3978871584	 1.4849641906	-0.420297
C	-1.3520581049	-0.0139389554	 1.4942970887	-0.067119
C	-1.2601235625	-0.5001574032	 0.0509718455	-0.232647
C	-1.3704970339	-2.0158990744	-0.0602770848	 0.032905
C	-2.7921991283	-2.6827249015	 0.0549131859	-0.078334
C	-2.990052873	-2.3350616728	-1.4554607459	-0.246226
C	-1.4792960935	-2.6656818385	-1.4700105663	 0.08835
O	-1.4503836796	-4.0724530072	-1.173457363	-0.283199
C	-2.3885354825	-4.15649799	-0.0721566233	-0.083809
H	-1.2594543952	 1.7126286266	 2.3919465579	 0.285566
H	-0.564120759	-0.4931957624	 2.0983304001	 0.085121
H	-2.3201314024	-0.3120240254	 1.9284394423	 0.085605
H	-2.0300898741	 0.0164914777	-0.5299483318	 0.10848
H	-0.2945298914	-0.1740546572	-0.3554337967	 0.108459
H	-0.598257006	-2.4870020189	 0.5598105983	 0.069358
H	-3.5169263896	-2.4201321537	 0.8254096858	 0.069134
H	-3.6395370445	-2.9817530753	-2.0503046087	 0.098922
H	-3.2240837189	-1.2872684612	-1.6365201457	 0.107497
H	-0.8046204077	-2.4504972288	-2.2979207949	 0.076968
H	-1.8874239476	-4.5527489939	 0.8190450084	 0.097277
H	-3.2213515685	-4.8189240629	-0.3370133024	 0.097989
77.9916	84.6158	123.8344	265.1907	292.6826	325.8401	332.5927	374.9675	500.2012	589.4162	653.6794	764.339	826.9484	847.6496	873.2114	909.5568	921.5786	941.7237	966.2214	1001.3686	1020.7534	1028.9706	1065.6982	1073.8336	1087.6847	1113.7478	1122.077	1140.45	1182.7505	1216.8409	1223.5952	1227.4769	1256.6157	1264.5117	1270.696	1289.8698	1316.4717	1330.2646	1365.1826	1406.75	1463.2503	1485.841	1503.0898	1528.2789	1530.1813	2961.0757	2986.8748	3019.4504	3032.0536	3035.9159	3059.036	3076.0948	3088.2187	3118.8721	3130.5426	3153.3323	3830.1737
OCCC1C2CC1OC2	OCC[C@H]1[C@H]2C[C@@H]1OC2	
InChI=1S/C7H12O2/c8-2-1-6-5-3-7(6)9-4-5/h5-8H,1-4H2	InChI=1S/C7H12O2/c8-2-1-6-5-3-7(6)9-4-5/h5-8H,1-4H2/t5-,6-,7-/m0/s1
