17
gdb 87098	3.04251	1.16586	0.97728	2.4723	78.16	-0.2543	-0.0605	0.1938	1240.4854	0.131923	-421.79217	-421.782414	-421.78147	-421.82688	35.488	
C	-0.0371126825	 1.5391751007	 0.0596129452	-0.411636
C	 0.0400370781	 0.0307366669	 0.0373634833	-0.01545
C	 1.3300823335	-0.6837375881	-0.2285078198	-0.337116
C	 0.7268123897	-0.7102592178	 1.1746281013	 0.264968
O	 1.291056956	 0.0813087899	 2.1733578272	-0.461418
C	 0.1027540535	-2.0014479685	 1.6024878416	 0.168565
O	-0.4683698247	-2.7430691999	 0.826467395	-0.318901
C	 0.2400480965	-2.3387880921	 3.0114708986	 0.247573
C	 0.3552834647	-2.6592681064	 4.1663024243	-0.38942
H	 0.8611871814	 1.9738597489	 0.5027402078	 0.132552
H	-0.144821895	 1.9275006878	-0.9586353008	 0.120849
H	-0.8977324771	 1.8809103969	 0.6432055304	 0.125917
H	-0.8450025199	-0.4852013233	-0.3235326139	 0.116636
H	 1.3059629806	-1.6113712013	-0.788794244	 0.136071
H	 2.2280730877	-0.0826136702	-0.3264239852	 0.118352
H	 2.0722523584	-0.3663253831	 2.5163745007	 0.288909
H	 0.4440559191	-2.9464605305	 5.1859917484	 0.213547
44.3867	125.5065	158.4447	177.3512	221.6325	250.4815	254.8359	277.9139	361.534	403.7143	470.4611	490.0208	590.0052	643.2996	700.31	705.2671	725.0511	818.6826	854.6239	901.4204	934.3629	1014.7985	1033.6921	1060.912	1119.6818	1155.1729	1197.4603	1253.5584	1292.8953	1348.0656	1400.2971	1421.7402	1463.4516	1491.9071	1500.989	1742.162	2209.4789	3040.5578	3100.8103	3129.3389	3132.7608	3161.0662	3232.9869	3493.3165	3801.2056
CC1CC1(O)C(=O)C#C	C[C@H]1C[C@]1(O)C(=O)C#C	
InChI=1S/C7H8O2/c1-3-6(8)7(9)4-5(7)2/h1,5,9H,4H2,2H3	InChI=1S/C7H8O2/c1-3-6(8)7(9)4-5(7)2/h1,5,9H,4H2,2H3/t5-,7+/m0/s1
