19
gdb 62797	2.28311	1.80796	1.55362	2.1506	74.7	-0.2305	-0.0129	0.2176	976.5806	0.15967	-423.035397	-423.027333	-423.026389	-423.067441	32.176	
C	-0.1033780807	 1.5663803363	 0.0070270903	-0.459442
C	 0.0353719295	 0.048316134	-0.0490339001	 0.324064
O	-1.2522719697	-0.5592107859	-0.1238568141	-0.48668
C	 0.9467728456	-0.5211172196	-1.1536869515	-0.054423
C	 1.1442113702	-1.9923314543	-0.6855082923	-0.238738
C	 1.9381846354	-1.3183686895	 0.4916909309	-0.142035
C	 2.3719972322	-0.2613914551	-0.5792770185	-0.250306
C	 0.8072602796	-0.5660769002	 1.1589259647	 0.400924
O	 0.4890850563	-0.4825653403	 2.3171529411	-0.363307
H	 0.8598761513	 2.0806600321	-0.0465521491	 0.118773
H	-0.7296544817	 1.9059311714	-0.8230232641	 0.126433
H	-0.5841365458	 1.8584101159	 0.9468330496	 0.12789
H	-1.6614885226	-0.4532079956	 0.743893057	 0.287533
H	 0.6845237411	-0.2725107875	-2.1814235032	 0.075594
H	 0.2540983167	-2.5743503144	-0.4476095605	 0.123279
H	 1.8155317851	-2.552341431	-1.3396577267	 0.106592
H	 2.6370366682	-1.8542408227	 1.1302848944	 0.08404
H	 3.1525057664	-0.6570676205	-1.2321566912	 0.113616
H	 2.643346363	 0.7418009067	-0.2420035768	 0.106193
121.8005	190.7213	216.6941	260.5338	273.2707	357.0482	370.6546	478.9501	490.2423	507.1353	588.9304	687.651	765.1938	794.3346	829.4799	862.8999	874.1281	892.8624	958.9599	990.0224	1002.5841	1021.5014	1044.9034	1058.6967	1096.8409	1131.5884	1153.05	1163.6432	1211.9913	1225.1875	1241.5675	1244.5383	1283.0822	1329.5141	1377.2015	1402.745	1482.8869	1490.0309	1494.5552	1520.7917	1859.6434	3038.4414	3066.1368	3078.5839	3107.7387	3119.9777	3122.3753	3127.1265	3146.3525	3149.0609	3783.0144
CC1(O)C2CC(C2)C1=O	C[C@@]1(O)[C@@H]2C[C@@H](C2)C1=O	
InChI=1S/C7H10O2/c1-7(9)5-2-4(3-5)6(7)8/h4-5,9H,2-3H2,1H3	InChI=1S/C7H10O2/c1-7(9)5-2-4(3-5)6(7)8/h4-5,9H,2-3H2,1H3/t4-,5+,7-/m1/s1
