18
gdb 12379	2.92216	2.10508	1.31059	4.2778	67.83	-0.257	0.0118	0.2689	945.3049	0.155078	-384.993545	-384.985841	-384.984897	-385.025793	28.78	
C	 0.0676727137	 1.5806984312	-0.0199528657	-0.395714
C	 0.100221147	 0.0494595476	-0.0132427075	-0.115709
C	 0.7019852488	-0.5484568692	-1.2924697319	-0.210576
C	 0.8560366267	-2.0590493194	-1.1333705001	-0.23053
C	 1.7655964469	-2.3380265758	 0.0513137438	-0.056853
O	 1.3549419403	-1.6834568801	 1.2636765128	-0.234056
C	 0.7482851701	-0.4700942936	 1.2763140451	 0.417421
O	 0.6690335688	 0.1181857828	 2.3214436827	-0.32464
H	 1.0790731157	 1.9919285597	-0.1043615614	 0.120332
H	-0.5175187185	 1.9436744767	-0.8704519981	 0.108964
H	-0.3715314117	 1.9601223708	 0.903323551	 0.145456
H	-0.9369171569	-0.3136943357	 0.06013358	 0.113739
H	 0.0675245908	-0.2978090869	-2.1489060554	 0.104274
H	 1.6841842273	-0.0959981781	-1.4867952699	 0.104062
H	-0.1237190491	-2.5249852349	-0.970990536	 0.110719
H	 1.2904283555	-2.5190025334	-2.027512929	 0.107698
H	 1.8002339908	-3.4018817698	 0.2997234789	 0.121998
H	 2.7901590339	-2.0124148619	-0.1737323493	 0.113417
65.1377	130.7896	211.5126	285.0718	297.1977	364.3888	416.2692	454.3044	531.6852	603.759	673.8277	756.1017	873.6576	885.2658	910.6491	953.0936	991.3835	1029.0021	1071.7791	1120.7139	1135.7853	1164.3136	1174.6526	1217.1679	1261.9459	1298.8039	1314.9294	1353.5813	1377.3824	1381.9362	1408.5981	1429.0485	1482.2241	1491.1579	1497.7018	1502.5372	1517.31	1831.5763	2990.4159	3017.0924	3018.7181	3033.6513	3042.6168	3072.3517	3081.6877	3095.7887	3105.8572	3146.759
CC1CCCOC1=O	C[C@H]1CCCOC1=O	
InChI=1S/C6H10O2/c1-5-3-2-4-8-6(5)7/h5H,2-4H2,1H3	InChI=1S/C6H10O2/c1-5-3-2-4-8-6(5)7/h5H,2-4H2,1H3/t5-/m0/s1
