19
gdb 11859	6.21179	1.1061	1.05069	2.4844	72.91	-0.24	0.0775	0.3175	1172.0767	0.165126	-365.011477	-365.003318	-365.002374	-365.044283	30.416	
C	 0.3202175514	 1.5962797037	-0.4432229132	-0.239815
O	-0.3295184582	 0.3453791911	-0.4332385687	-0.238498
C	 0.4503070189	-0.6875245943	-0.9685949293	 0.16282
C	 1.6143997368	-1.2661593556	-0.097311067	-0.349161
C	 1.0850089116	-2.6595198577	-0.4580546178	 0.369509
C	 1.8658658757	-3.7643841785	-1.0548269093	-0.305157
N	 1.2321211345	-3.9085837417	 0.2752189401	-0.363755
C	-0.2427883201	-2.0684166551	-0.9400319365	-0.325356
H	 1.235535812	 1.5906278951	 0.1679149633	 0.106803
H	 0.5916673032	 1.9051256292	-1.4652425023	 0.103931
H	-0.3755817142	 2.3282681598	-0.0263396806	 0.1277
H	 0.8061643048	-0.420537601	-1.9753753354	 0.065698
H	 2.6439595847	-1.0202252386	-0.3696970957	 0.098519
H	 1.4453412451	-1.0266633859	 0.958494155	 0.109334
H	 1.4305843252	-4.3853265847	-1.833964408	 0.117599
H	 2.9469451228	-3.6583353674	-1.1113580016	 0.108499
H	 1.9321281863	-3.8049777718	 1.0066955504	 0.227855
H	-1.0030597496	-2.0920849403	-0.1540029246	 0.120129
H	-0.669479731	-2.4437424762	-1.8723263688	 0.103347
64.1145	104.0451	182.759	232.1302	303.1666	332.0421	339.3722	431.5335	464.9013	552.4115	718.3724	810.2962	839.5706	881.4985	905.9143	959.1978	965.0477	994.9468	1017.2928	1029.7019	1074.5068	1115.1972	1127.8906	1164.4228	1182.9736	1197.3596	1208.7548	1239.166	1253.1294	1264.085	1273.1171	1308.6541	1385.4502	1420.635	1461.6616	1479.9518	1486.2227	1492.9694	1508.785	1516.8827	2971.7429	2985.2168	3019.8561	3041.7115	3064.2895	3097.8069	3102.9902	3115.1694	3122.5523	3182.2032	3488.4778
COC1CC2(CN2)C1	CO[C@H]1C[C@]2(CN2)C1	
InChI=1S/C6H11NO/c1-8-5-2-6(3-5)4-7-6/h5,7H,2-4H2,1H3	InChI=1S/C6H11NO/c1-8-5-2-6(3-5)4-7-6/h5,7H,2-4H2,1H3/t5-,6+
