12
gdb 9118	4.12691	0.94045	0.76959	3.6627	70.52	-0.2716	-0.0802	0.1914	1364.7699	0.08029	-381.268651	-381.259875	-381.258931	-381.303332	29.094	
O	-0.0336276383	 1.4777911486	 0.0105730905	-0.403159
C	-0.0157782682	 0.0604131943	 0.0021624989	-0.21826
C	-1.3769024102	-0.4526471506	 0.0124395795	 0.035102
C	-2.4920408644	-0.9137297761	 0.0205661706	 0.095851
C	-3.8194786105	-1.4797503876	 0.0303433476	 0.153122
O	-4.0270861234	-2.6776970951	 0.0261195543	-0.26772
C	-4.8912820157	-0.503606043	 0.0457724906	 0.291351
C	-5.786294222	 0.3006747367	 0.0586473301	-0.473564
H	 0.8808485591	 1.7787683831	 0.0044256681	 0.296694
H	 0.4957792538	-0.338123883	-0.8895709435	 0.134826
H	 0.5130613255	-0.3484157668	 0.8790205627	 0.134827
H	-6.5798778656	 1.0078837296	 0.0704668407	 0.22093
43.6103	64.1823	131.4725	170.6744	224.2814	246.4104	261.5818	392.937	449.9652	554.5729	621.3732	653.1723	702.1168	705.9333	772.6764	964.6012	1009.9197	1074.351	1207.5121	1244.2431	1261.938	1455.4867	1488.5065	1720.0355	2217.8082	2336.1645	2965.9767	2985.9383	3494.3823	3821.4137
OCC#CC(=O)C#C	OCC#CC(=O)C#C	
InChI=1S/C6H4O2/c1-2-6(8)4-3-5-7/h1,7H,5H2	InChI=1S/C6H4O2/c1-2-6(8)4-3-5-7/h1,7H,5H2
