19
gdb 66104	2.58686	1.51973	1.33367	3.1722	78.95	-0.245	0.0336	0.2786	1053.9105	0.160934	-382.079421	-382.071209	-382.070265	-382.111787	32.22	
C	-0.0327884539	 1.5247083655	-0.0180051313	-0.420501
C	 0.0320877266	-0.0080864188	 0.0089483166	 0.111676
N	 0.8404537837	-0.5203736409	-1.1086233946	-0.327814
C	 1.3077204887	-1.8728499204	-0.7663301783	-0.188482
C	 1.5563782483	-1.7792962265	 0.7297280864	-0.024592
C	 2.2570883225	-0.5372442311	 1.2179973564	-0.311546
C	 0.7499430397	-0.6028361157	 1.2258411987	-0.027466
C	-1.3504868745	-0.5577101788	-0.0241928699	 0.250743
N	-2.4173382993	-0.9985889597	-0.0994825514	-0.347595
H	 0.9813582446	 1.9253658739	 0.036004218	 0.132755
H	-0.5020816217	 1.8786498082	-0.9406267472	 0.127476
H	-0.6164218954	 1.9029018448	 0.8257328471	 0.131152
H	 0.3488600355	-0.4787709499	-1.9931425691	 0.233584
H	 0.5594733645	-2.657620028	-0.9612364613	 0.108249
H	 2.2061943333	-2.1077207133	-1.3483414713	 0.109248
H	 1.6276916287	-2.6972789441	 1.2994610296	 0.094661
H	 2.7443337499	-0.5907010137	 2.1851837756	 0.11532
H	 2.7514406786	 0.0968712566	 0.4908912132	 0.13031
H	 0.2126735204	-0.621679848	 2.1654457229	 0.102821
117.9979	148.6435	214.9029	226.5229	277.6718	333.2949	376.3545	440.9692	478.3616	558.6002	630.4566	644.4373	704.0777	790.7546	809.9826	843.2751	891.1096	910.656	963.987	985.6498	1023.2956	1059.1643	1082.2614	1087.8605	1101.7172	1118.1988	1150.5921	1171.48	1198.664	1204.9276	1233.5608	1312.8544	1355.0365	1385.8488	1405.7888	1442.9142	1475.7704	1484.3189	1493.9457	1519.8239	2336.5664	2977.3642	3048.075	3054.0122	3119.3233	3137.6006	3140.0947	3189.0642	3197.2396	3226.7137	3559.9652
CC1(NCC2CC12)C#N	C[C@]1(NC[C@H]2C[C@@H]12)C#N	
InChI=1S/C7H10N2/c1-7(4-8)6-2-5(6)3-9-7/h5-6,9H,2-3H2,1H3	InChI=1S/C7H10N2/c1-7(4-8)6-2-5(6)3-9-7/h5-6,9H,2-3H2,1H3/t5-,6-,7+/m1/s1
