19
gdb 114025	5.09793	0.62824	0.60948	3.0388	74.52	-0.2519	0.0294	0.2812	1805.733	0.159534	-456.333177	-456.323379	-456.322435	-456.370027	34.22	
O	-0.5540299245	 1.4319740546	-0.7843927123	-0.419591
C	 0.0262441528	 0.3157371557	-0.1310687391	-0.065863
C	-1.0441164164	-0.5579605211	 0.481719848	-0.037288
N	-1.8397894447	-1.346012317	-0.4849529386	-0.362397
C	-1.0300323387	-2.043926596	 0.5348386358	-0.02337
C	 0.0865682416	-2.9240310525	 0.0166813422	-0.175679
N	-0.4450002812	-4.1461293693	-0.564997686	-0.269899
C	-0.1844936421	-5.3853444112	-0.0707889819	 0.15386
O	 0.5319660096	-5.6269560653	 0.8778304752	-0.32284
H	-1.1596862905	 1.0716165894	-1.4427358954	 0.288672
H	 0.6516672367	-0.2655542763	-0.8218837225	 0.091504
H	 0.6781774029	 0.7197291358	 0.6505177926	 0.114616
H	-1.6000316087	-0.0617637924	 1.2757385514	 0.096892
H	-2.8206803653	-1.3465586022	-0.220138902	 0.23722
H	-1.5748708379	-2.4907796654	 1.3652722102	 0.099364
H	 0.6820369543	-2.3916941987	-0.7304178912	 0.114297
H	 0.7480025811	-3.2291980191	 0.8308867792	 0.152024
H	-1.0833669437	-4.0549310042	-1.3398211502	 0.254074
H	-0.7089370355	-6.1730192048	-0.6476064453	 0.074404
28.9159	39.9938	76.5732	134.1649	179.1184	242.3815	271.5359	345.4271	407.7414	433.234	490.4464	563.7153	580.7152	740.1295	802.708	860.0359	898.284	963.7709	974.4482	1000.8394	1022.9964	1035.5766	1062.7798	1070.9861	1148.6162	1181.0226	1206.6434	1229.9387	1270.2997	1276.8501	1297.8981	1353.0375	1374.0149	1405.3085	1429.7467	1439.5405	1477.2865	1482.9392	1499.0911	1530.1242	1804.9723	2935.4387	3012.4658	3062.5614	3078.4379	3113.3656	3123.4757	3130.8837	3509.7396	3633.5434	3793.5974
OCC1NC1CNC=O	OC[C@H]1N[C@H]1CNC=O	
InChI=1S/C5H10N2O2/c8-2-5-4(7-5)1-6-3-9/h3-5,7-8H,1-2H2,(H,6,9)	InChI=1S/C5H10N2O2/c8-2-5-4(7-5)1-6-3-9/h3-5,7-8H,1-2H2,(H,6,9)/t4-,5+/m0/s1
