19
gdb 102444	1.96468	1.37536	0.91754	5.2424	78.82	-0.2647	-0.0468	0.2179	1321.9602	0.157884	-419.249085	-419.238801	-419.237857	-419.285164	35.751	
C	 0.0635627727	 1.5666288005	 0.0817894743	-0.378105
C	-0.0297761188	 0.0423275491	-0.0237708186	-0.177967
N	 0.6366182498	-0.4990916793	-1.2094654257	-0.093964
C	 2.088992183	-0.7022775612	-1.170238047	-0.1645
C	 2.4763250304	-2.1164493882	-0.7314575025	-0.38029
C	-0.0066893345	-0.8406579482	-2.3528215454	 0.358899
O	 0.5199712916	-1.3068409599	-3.3463929551	-0.36648
C	-1.4668418234	-0.6016348012	-2.3509980612	 0.208685
N	-2.6086092513	-0.4378538461	-2.4262872073	-0.33429
H	 1.1033336257	 1.9072182331	 0.0957815991	 0.127856
H	-0.4423578039	 2.0437947555	-0.7621884894	 0.140141
H	-0.4148525096	 1.9069322096	 1.0050721002	 0.129868
H	 0.4237054208	-0.431641932	 0.8537069633	 0.120164
H	-1.0771332948	-0.2672338781	-0.0405515909	 0.153489
H	 2.4778934796	-0.5024073434	-2.170841787	 0.147512
H	 2.5065348339	 0.0441776303	-0.4885950999	 0.111958
H	 2.0831307158	-2.3507205416	 0.2628568264	 0.12076
H	 2.0908667349	-2.8516120891	-1.4418753893	 0.150573
H	 3.5658123578	-2.2112659398	-0.6951892341	 0.125691
58.3405	70.4923	81.936	130.2887	171.7367	222.8258	240.4686	301.5583	339.1252	340.7973	407.7673	467.751	542.3316	598.5181	703.7748	757.6279	784.2216	791.0438	909.5862	954.2355	1024.9298	1089.132	1100.8134	1119.4606	1165.0161	1245.7958	1295.407	1342.8559	1383.2935	1402.3919	1409.7168	1415.0406	1459.0135	1475.9201	1489.9571	1493.759	1494.5963	1504.4083	1507.2732	1751.9743	2344.5206	3043.0758	3043.4095	3049.4555	3064.7875	3102.3459	3106.4098	3119.231	3121.3151	3126.9067	3136.3359
CCN(CC)C(=O)C#N	CCN(CC)C(=O)C#N	
InChI=1S/C6H10N2O/c1-3-8(4-2)6(9)5-7/h3-4H2,1-2H3	InChI=1S/C6H10N2O/c1-3-8(4-2)6(9)5-7/h3-4H2,1-2H3
