19
gdb 50572	3.50807	1.32016	1.13666	2.953	76.52	-0.2265	0.0297	0.2562	1103.0729	0.162544	-419.196473	-419.188987	-419.188043	-419.228876	29.138	
O	-0.0882726418	-0.0140997707	 0.1645442344	-0.347362
C	-0.0077196252	 1.1976041298	 0.157147143	 0.139794
N	 1.1400617569	 1.8994546138	-0.0307894897	-0.027796
C	 2.4130085976	 1.1955283131	-0.2241346813	-0.178159
C	 3.4674561357	 2.1289784811	-0.8968560046	-0.190567
N	 3.1869072181	 3.5722615939	-0.7588959322	-0.116164
C	 2.538315918	 3.8059274812	 0.5845282168	-0.192625
C	 1.1941778935	 3.351236958	-0.0360526469	-0.010794
C	 1.8283339267	 3.8305084924	-1.3628931927	-0.176731
H	-0.8803830512	 1.8652191044	 0.3059353712	 0.069227
H	 2.781386594	 0.8479148198	 0.7485403302	 0.12227
H	 2.2230948118	 0.2995896978	-0.8186730966	 0.141711
H	 4.4496541	 1.9217733943	-0.4606550753	 0.113922
H	 3.5404010957	 1.9169607748	-1.9679052033	 0.117698
H	 2.9501986907	 3.2359194484	 1.4207327371	 0.114972
H	 2.5547092542	 4.872340762	 0.8233118764	 0.117244
H	 0.2425437221	 3.7606760336	 0.3121874027	 0.082365
H	 1.700023192	 4.9014779198	-1.5460216653	 0.111596
H	 1.6002444212	 3.2647563625	-2.2700352639	 0.109399
53.8026	148.2252	238.4551	320.4855	364.2504	398.8659	432.7706	465.6854	591.9848	663.32	797.24	810.5476	819.3417	826.9476	916.0249	922.7013	962.8701	983.5918	1007.4492	1028.0586	1063.992	1087.1415	1103.6668	1151.3639	1214.5615	1221.7607	1251.2317	1257.3641	1264.5992	1296.8728	1301.9795	1318.4378	1365.8346	1377.7651	1430.5732	1449.7295	1487.6523	1498.6922	1511.2012	1528.6789	1788.0504	2927.0802	3028.2181	3046.8028	3049.8887	3062.4915	3080.2548	3087.8436	3108.495	3112.9256	3120.934
O=CN1CCN2CC1C2	O=CN1CCN2C[C@H]1C2	
InChI=1S/C6H10N2O/c9-5-8-2-1-7-3-6(8)4-7/h5-6H,1-4H2	InChI=1S/C6H10N2O/c9-5-8-2-1-7-3-6(8)4-7/h5-6H,1-4H2
