15
gdb 18219	4.44653	1.68003	1.3829	3.697	66.8	-0.2348	-0.0261	0.2087	876.5204	0.11989	-362.645439	-362.638754	-362.63781	-362.67672	25.231	
O	-0.0468476868	-0.0397186444	-0.1903239353	-0.256093
C	 0.0141404036	 1.1278581485	 0.0985599393	 0.148263
C	 1.2948318129	 1.9541667493	 0.0447524685	-0.112339
C	 1.2988608097	 2.8970604915	-1.1526886686	-0.100814
C	 1.4506661974	 4.1746455397	-0.7954095389	-0.04878
C	 1.5269166756	 4.3051861974	 0.6868864049	-0.082546
N	 0.2771413381	 3.8488896924	 1.3607164353	-0.326773
C	 1.4209761034	 2.9205358766	 1.2272466832	-0.079321
H	-0.8758795546	 1.7056410297	 0.4206605194	 0.105354
H	 2.1311725218	 1.2475955729	-0.002121473	 0.100098
H	 1.1619907234	 2.5298347007	-2.1630001801	 0.114911
H	 1.4931224548	 5.0186795154	-1.4727804264	 0.108208
H	 2.1191035065	 5.079216016	 1.1620898789	 0.096733
H	 0.2676196217	 4.2051329981	 2.3152633954	 0.23319
H	 1.9450460125	 2.6036510961	 2.1217152373	 0.099908
68.4229	150.9228	239.6906	385.5576	418.1665	468.2319	559.7774	715.0429	757.7775	795.5102	828.9144	849.8925	909.6193	923.9406	953.754	955.5776	976.3374	1061.2721	1079.5667	1083.6936	1116.9832	1153.4608	1166.3209	1232.1512	1248.9839	1299.0388	1318.0119	1389.6111	1396.4933	1411.0145	1655.4661	1822.4323	2934.477	3050.2133	3171.407	3180.6345	3197.498	3221.4214	3478.1409
O=CC1C=CC2NC12	O=C[C@H]1C=C[C@H]2N[C@@H]12	
InChI=1S/C6H7NO/c8-3-4-1-2-5-6(4)7-5/h1-7H	InChI=1S/C6H7NO/c8-3-4-1-2-5-6(4)7-5/h1-7H/t4-,5-,6+/m1/s1
