18
gdb 114029	5.27109	0.63027	0.61114	1.9936	71.	-0.2586	0.0235	0.2821	1786.1726	0.146501	-476.214617	-476.204896	-476.203951	-476.251219	33.601	
O	-0.5587378825	 1.4267713371	-0.7462500159	-0.415514
C	 0.0154088342	 0.2943473074	-0.1165787852	-0.086439
C	-1.0530686661	-0.5607949209	 0.519736655	 0.032416
O	-1.8431047456	-1.3542211868	-0.3851712033	-0.278502
C	-1.0482770399	-2.0296124775	 0.6018486323	 0.05333
C	 0.0486628201	-2.9314633062	 0.0854991994	-0.19799
N	-0.5090841225	-4.1580145077	-0.4598456077	-0.273701
C	-0.2244029268	-5.3896781339	 0.0444237669	 0.156263
O	 0.5322743072	-5.6097174433	 0.96585363	-0.319732
H	-1.1822377807	 1.0975404068	-1.4034301547	 0.293343
H	 0.6163826337	-0.2945086895	-0.822245667	 0.094429
H	 0.6878746541	 0.6816283229	 0.6566202975	 0.120349
H	-1.6519298509	-0.0256211233	 1.2587447357	 0.104817
H	-1.6410337302	-2.4806952603	 1.3997608663	 0.105814
H	 0.645875671	-2.4207974062	-0.6753491072	 0.115817
H	 0.7108028617	-3.2307963632	 0.9023033605	 0.157021
H	-1.1776014438	-4.0829802682	-1.2105713678	 0.258439
H	-0.7695535631	-6.188330417	-0.4956112248	 0.07984
33.5453	43.3058	81.125	132.7499	178.0578	240.2487	272.4501	348.6977	397.6016	437.8962	494.2737	556.6491	582.3195	738.0175	789.2645	856.2598	909.6081	980.2238	995.6445	1033.0505	1069.4802	1073.5063	1088.4517	1159.9809	1163.2139	1210.0048	1232.008	1273.3976	1303.3051	1344.2297	1369.2219	1403.3266	1428.9378	1431.8657	1474.4132	1492.338	1495.5883	1530.8741	1805.836	2944.3295	3014.815	3060.4176	3076.2269	3093.7744	3107.0329	3120.7697	3634.5091	3803.7087
OCC1OC1CNC=O	OC[C@H]1O[C@H]1CNC=O	
InChI=1S/C5H9NO3/c7-2-5-4(9-5)1-6-3-8/h3-5,7H,1-2H2,(H,6,8)	InChI=1S/C5H9NO3/c7-2-5-4(9-5)1-6-3-8/h3-5,7H,1-2H2,(H,6,8)/t4-,5+/m0/s1
