19
gdb 64141	3.27007	1.1116	1.03236	1.5487	76.76	-0.2528	0.0336	0.2864	1232.8153	0.157346	-422.993398	-422.98413	-422.983186	-423.02775	35.255	
C	 0.3778136325	 1.4296153769	-0.2008811719	-0.446826
C	-0.153898746	 0.0130506581	 0.024081799	 0.394586
O	-1.5750958082	 0.0000723824	 0.0711609614	-0.474649
C	 0.4174481516	-0.9728452057	-1.0170846335	-0.13857
O	 1.7042825987	-1.3112345756	-0.5282681201	-0.245453
C	 1.577998225	-1.495379526	 0.8914096952	-0.070948
C	 0.3749628004	-0.6118135461	 1.335974333	-0.292851
C	 1.3999252971	-2.9090814246	 1.2318227771	 0.353558
C	 1.2521982413	-4.0680837206	 1.5141921688	-0.476729
H	 1.4705719004	 1.426350313	-0.2531000642	 0.135358
H	 0.0027394191	 1.839631046	-1.1471677363	 0.105174
H	 0.0642964409	 2.0934361259	 0.6100432466	 0.123883
H	-1.9034258376	 0.5156936248	-0.6728553535	 0.277607
H	-0.2421099462	-1.8513308554	-1.080087607	 0.102978
H	 0.5445999004	-0.5446531744	-2.0156748291	 0.0994
H	 2.5191107257	-1.1437051713	 1.3267987892	 0.10902
H	 0.6787342042	 0.1434875166	 2.0633348804	 0.109951
H	-0.4163931176	-1.2173504129	 1.7787413998	 0.134452
H	 1.1273029482	-5.0933610011	 1.7614005549	 0.200057
29.0669	125.4604	187.8727	252.0097	269.511	275.636	312.0311	344.4463	409.2111	437.1082	496.0534	556.3593	597.312	619.2392	666.3143	720.4077	782.7179	820.3814	928.4483	944.2046	960.5135	986.111	996.0532	1035.4928	1083.2357	1131.858	1137.1576	1204.3193	1227.8253	1276.8291	1298.0219	1310.2312	1349.1604	1366.4603	1393.6578	1405.7976	1485.9109	1493.2334	1499.4017	1512.3469	2232.7618	2996.4282	3023.5023	3050.5176	3081.6451	3088.1672	3093.7831	3120.1962	3138.1736	3503.0149	3811.2242
CC1(O)COC(C1)C#C	C[C@@]1(O)CO[C@@H](C1)C#C	
InChI=1S/C7H10O2/c1-3-6-4-7(2,8)5-9-6/h1,6,8H,4-5H2,2H3	InChI=1S/C7H10O2/c1-3-6-4-7(2,8)5-9-6/h1,6,8H,4-5H2,2H3/t6-,7+/m1/s1
