18
gdb 13909	3.01496	1.60644	1.48541	3.3146	69.66	-0.2397	-0.0237	0.2161	970.6711	0.151815	-384.953698	-384.944961	-384.944016	-384.986879	31.992	
C	-0.1609895037	 1.5498448973	-0.0744796962	-0.418966
C	-0.0011793157	 0.0504780713	 0.0224094843	-0.059617
C	 1.2874049918	-0.640302129	-0.2474049516	 0.126921
O	 2.4494064935	 0.0378952405	-0.5482558778	-0.420586
C	 0.7351120293	-0.6403966014	 1.2028932871	-0.225039
C	 1.4801647491	 0.1376032226	 2.2088525261	 0.420733
C	 1.3740693471	-0.3221415896	 3.6480933419	-0.479928
O	 2.1824689267	 1.0988331882	 1.9101100372	-0.370522
H	 0.7278034994	 2.0802137794	 0.2675842943	 0.147473
H	-0.3470824945	 1.8333142683	-1.1157425101	 0.125587
H	-1.0107863518	 1.8923093993	 0.5245944892	 0.116654
H	-0.88630573	-0.5106875576	-0.267721999	 0.096713
H	 1.2541839333	-1.6015880875	-0.7524736752	 0.109506
H	 2.604400526	 0.6778627514	 0.171509139	 0.309589
H	 0.2824200689	-1.5558458645	 1.5679613525	 0.090057
H	 1.7232422924	-1.3570003806	 3.7395306985	 0.145056
H	 1.9719709861	 0.3249600656	 4.290560791	 0.143496
H	 0.3283969222	-0.3093564936	 3.975325379	 0.142873
80.9366	125.8751	156.5382	173.3761	207.9914	255.9544	339.8511	387.7649	461.8096	570.164	628.8013	641.4468	658.95	691.1959	792.2698	851.7113	927.5293	962.0141	975.2817	1016.3728	1052.1417	1091.8137	1100.9843	1139.3118	1172.2456	1198.8716	1256.1582	1359.9071	1376.5768	1391.854	1410.4048	1422.0298	1462.7018	1474.7711	1478.4374	1502.5507	1507.4979	1730.4859	3036.3478	3042.3753	3096.8718	3098.8075	3129.83	3149.597	3152.6539	3154.1433	3167.7103	3576.2237
CC1C(O)C1C(C)=O	C[C@H]1[C@@H](O)[C@H]1C(=O)C	
InChI=1S/C6H10O2/c1-3-5(4(2)7)6(3)8/h3,5-6,8H,1-2H3	InChI=1S/C6H10O2/c1-3-5(4(2)7)6(3)8/h3,5-6,8H,1-2H3/t3-,5-,6-/m1/s1
