18
gdb 91441	2.91856	1.33293	1.05279	3.555	73.73	-0.2483	0.015	0.2633	1146.7778	0.148381	-439.074612	-439.066513	-439.065568	-439.107847	30.438	
O	 0.2977108509	 0.9878472712	-0.803895905	-0.428422
C	 0.0394044408	-0.1848753719	-0.0907435011	 0.159211
C	 0.159340429	-0.187440046	 1.4717875589	-0.287941
C	-1.2709790122	-0.7837831137	 1.5888757536	-0.055089
C	-2.3822208029	 0.2829103681	 1.7567245825	-0.179786
N	-2.3521642933	 0.4837322591	 0.2976708102	-0.05491
C	-3.3034082897	 1.0634637931	-0.4817819654	 0.120755
O	-4.2069038005	 1.7510989666	-0.0575289396	-0.320683
C	-1.4416665545	-0.6396231274	 0.0324502596	-0.054771
H	-0.3653419278	 1.6347512852	-0.530236249	 0.282391
H	 0.6558541917	-0.9684030944	-0.5406682244	 0.097468
H	 0.9608004943	-0.8200095693	 1.8586439258	 0.11225
H	 0.2654416604	 0.80920977	 1.9101830938	 0.106859
H	-1.3923278239	-1.7276943413	 2.1142518205	 0.088446
H	-3.3498867822	-0.1032907475	 2.0944565085	 0.126868
H	-2.1269648507	 1.1686991076	 2.3463821639	 0.122861
H	-3.1468977501	 0.8438426646	-1.5577773178	 0.079266
H	-1.8308162791	-1.4010525539	-0.6470043348	 0.085226
58.2474	101.6385	189.9471	224.6914	310.0197	379.023	387.921	420.0117	469.6115	642.2469	655.2118	750.293	807.0778	837.1336	860.0007	927.5483	950.4222	999.5506	1009.9098	1033.6884	1056.5618	1115.9393	1126.2364	1146.0429	1166.4437	1187.3238	1208.7748	1244.0156	1271.0153	1290.1976	1302.6212	1324.7226	1327.3828	1384.5197	1428.1549	1438.3732	1479.1275	1515.999	1792.833	2928.0608	3041.6067	3060.6584	3070.7439	3088.5314	3090.5419	3117.6674	3146.8851	3766.6028
OC1CC2CN(C=O)C12	O[C@H]1C[C@H]2CN(C=O)[C@@H]12	
InChI=1S/C6H9NO2/c8-3-7-2-4-1-5(9)6(4)7/h3-6,9H,1-2H2	InChI=1S/C6H9NO2/c8-3-7-2-4-1-5(9)6(4)7/h3-6,9H,1-2H2/t4-,5-,6+/m0/s1
