17
gdb 31107	3.60952	0.75554	0.62744	7.6132	81.01	-0.1929	-0.0247	0.1682	1721.4313	0.130704	-455.183607	-455.171828	-455.170884	-455.223069	39.789	
N	-0.3484895853	 0.6496921192	-0.9285452492	-0.559989
C	 0.1112610907	-0.3666835312	-0.1748732436	 0.355631
C	-0.8407766465	-1.4077494458	 0.3462045356	 0.293087
C	-2.1580517266	-1.4148558497	 0.0825587441	-0.468514
N	-3.139435844	 1.5755809961	-1.8283325142	-0.702135
H	-3.6097514783	 1.0173538295	-2.5356715446	 0.257956
H	-3.8175769289	 1.7307055018	-1.0872168501	 0.258692
H	-2.9655682538	 2.4839680757	-2.2505484253	 0.254706
C	-0.1509843863	-2.3876308228	 1.1531878222	-0.468753
C	 1.1619971525	-2.3710195447	 1.3883344863	 0.486926
O	 2.2444069871	-2.5958990482	 1.7472950751	-0.235252
O	 1.3049234584	-0.4813843023	 0.1088945674	-0.375173
H	 0.3410209923	 1.3165201195	-1.2350551454	 0.253237
H	-1.3236620872	 0.822133842	-1.1618013664	 0.307611
H	-2.8059527564	-2.1884049002	 0.4792943801	 0.106281
H	-2.6256529019	-0.6597868121	-0.5347281681	 0.106927
H	-0.6908702858	-3.208316157	 1.6110603459	 0.128763
10.5695	60.4607	75.6177	94.6396	125.5653	132.712	177.4228	223.403	277.4098	337.4189	377.1306	401.7383	449.8782	511.7716	546.7754	583.1798	588.3821	638.4024	679.4774	734.4322	779.0231	834.7831	866.8851	964.893	1114.1109	1125.122	1134.5775	1264.139	1362.808	1449.7228	1478.2571	1652.4687	1673.0994	1674.2376	1681.5899	1730.9362	2189.5807	3165.1622	3194.966	3253.4316	3432.8657	3471.5089	3586.4775	3589.7659	3675.5385
NC1=C(C[NH3+])C=C([O-])O1	NC(=O)C(=C[C][O])[CH2].N	
InChI=1S/C5H8N2O2/c6-2-3-1-4(8)9-5(3)7/h1,8H,2,6-7H2	InChI=1S/C5H5NO2.H3N/c1-4(2-3-7)5(6)8;/h2H,1H2,(H2,6,8);1H3
