18
gdb 87436	4.50447	1.18999	1.10138	2.0134	75.93	-0.2301	0.075	0.3051	1134.6632	0.147162	-401.818644	-401.811223	-401.810279	-401.85044	29.606	
C	-0.0474972895	 1.5619731174	-0.1498733503	-0.391018
C	-0.0220005436	 0.0594438277	-0.0080398503	-0.102419
N	 1.3093605683	-0.5976358755	-0.1668075035	-0.409842
C	 0.6256159158	-0.63486175	 1.1162001633	 0.410282
C	 1.1870254805	-0.2050478353	 2.4686867411	-0.211151
C	-0.0065445126	-0.880646235	 3.2216896223	 0.109828
O	 0.8371466233	-1.6550557271	 4.123518148	-0.333897
C	 1.5301536693	-1.6882542106	 2.8429010384	 0.108526
C	 0.2214856846	-1.8183355846	 1.9887483165	-0.238237
H	 0.8368784329	 2.0056794732	 0.3148174702	 0.125965
H	-0.0561068363	 1.8544031212	-1.2052946059	 0.121568
H	-0.9393914215	 1.9848046807	 0.3257029466	 0.1146
H	-0.8681920256	-0.4573539046	-0.4613108642	 0.082971
H	 1.2106388293	-1.4844972654	-0.6562838407	 0.227324
H	 1.7326823054	 0.6882107219	 2.7664499617	 0.092217
H	-0.9291935192	-0.4454654515	 3.603201206	 0.101363
H	 2.4730424908	-2.227332458	 2.7647832056	 0.105475
H	-0.3214198319	-2.7323223546	 1.7484956254	 0.086445
123.0585	160.1916	186.2812	241.575	358.3303	446.2579	507.9201	569.053	603.9066	748.4127	788.5932	795.7295	816.7923	821.5911	865.466	904.0086	914.6923	926.7525	958.2821	1018.4989	1037.965	1046.8105	1059.1674	1098.6069	1108.0608	1141.1679	1146.0742	1149.5762	1169.8426	1172.4248	1226.0365	1240.5403	1265.3692	1327.297	1368.4938	1412.9187	1481.6788	1493.2687	1529.4052	3033.1803	3095.6731	3098.8866	3119.1819	3123.1113	3128.3737	3133.4434	3148.566	3486.3052
CC1NC11C2C3OC2C13	C[C@H]1N[C@]21[C@H]1[C@@H]3O[C@H]1[C@H]23	
InChI=1S/C7H9NO/c1-2-7(8-2)3-5-4(7)6(3)9-5/h2-6,8H,1H3	InChI=1S/C7H9NO/c1-2-7(8-2)3-5-4(7)6(3)9-5/h2-6,8H,1H3/t2-,3-,4+,5-,6+,7-/m1/s1
