12
gdb 25371	4.25007	1.07162	0.85583	1.9403	78.67	-0.26	-0.0864	0.1736	1230.6759	0.076844	-435.490254	-435.482806	-435.481861	-435.522643	26.667	
O	 0.0526635921	-0.094785889	-0.0012332592	-0.26394
C	 0.0245020227	 1.1135101807	 0.0086880846	 0.055002
C	 1.1929402145	 1.9820090939	 0.0021337366	 0.232412
C	 1.3302333176	 3.3442807542	 0.012103728	-0.154826
N	 2.6589730046	 3.6766300504	-0.0010615996	-0.304315
C	 3.2778952583	 2.5205341511	-0.0181005147	 0.232884
O	 2.4505470527	 1.4489557029	-0.0175129964	-0.176056
C	 4.6669183023	 2.2862081462	-0.0368664123	 0.263925
C	 5.8523223446	 2.0866312706	-0.0528836229	-0.340501
H	-0.9278476885	 1.6852730734	 0.0257267393	 0.090489
H	 0.5550171876	 4.0952839627	 0.0277584154	 0.149014
H	 6.9007468614	 1.913066713	-0.0670199529	 0.215911
119.2932	126.977	153.1148	214.6517	299.0182	456.421	485.2104	535.6858	615.3085	639.5947	652.2882	697.2031	762.9142	790.3481	893.3962	992.738	1009.6238	1017.7667	1174.243	1222.7829	1284.1113	1356.8571	1423.3006	1517.7382	1586.9945	1791.2064	2247.9273	2905.1213	3260.1061	3498.6981
O=CC1=CN=C(O1)C#C	O=Cc1cnc(o1)C#C	
InChI=1S/C6H3NO2/c1-2-6-7-3-5(4-8)9-6/h1,3-4H	InChI=1S/C6H3NO2/c1-2-6-7-3-5(4-8)9-6/h1,3-4H
