18
gdb 87666	3.55709	1.12832	0.9693	4.0649	82.21	-0.2358	-0.05	0.1858	1238.9469	0.147862	-401.965643	-401.957451	-401.956507	-401.998591	31.363	
C	-0.0703317171	 1.5229133763	-0.1135750027	-0.398633
C	-0.0111480166	 0.0231414454	 0.0419389469	-0.052593
N	 1.295478183	-0.6176160707	-0.1389167135	-0.370929
C	 0.6656386156	-0.639224782	 1.2019071246	 0.309247
C	 1.3421455632	 0.0716772062	 2.3660825522	-0.420846
C	 1.1207365411	-0.8649805541	 3.5696082847	 0.371149
O	 1.4792161313	-0.6578526545	 4.7049056237	-0.327189
C	 0.3805708335	-2.0469360752	 3.0652826388	-0.207479
C	 0.1341120418	-1.9083087018	 1.7543287946	-0.115468
H	 0.8394548801	 1.990404789	 0.2697878043	 0.134641
H	-0.1668984021	 1.7928081154	-1.1704593964	 0.125991
H	-0.9314325401	 1.9373593016	 0.4213440139	 0.122327
H	-0.8776677503	-0.5066914709	-0.3548158069	 0.083973
H	 1.1990182761	-1.5248758471	-0.5907211666	 0.231207
H	 2.4119862615	 0.208026021	 2.1879095863	 0.146731
H	 0.9182900303	 1.0551774417	 2.5889496264	 0.134089
H	 0.0986049533	-2.8751195453	 3.7019900757	 0.119447
H	-0.3882116046	-2.6241853149	 1.125988784	 0.114335
66.6455	158.932	176.6577	201.5876	307.9279	357.0883	437.0641	450.0309	477.5025	517.0912	613.4277	689.2277	766.5772	814.4596	824.862	831.9264	879.017	958.0166	984.072	992.3535	1036.6174	1048.2288	1079.1987	1112.0721	1124.5003	1161.3947	1178.1678	1229.6904	1241.0969	1280.3256	1349.6722	1374.6511	1409.3713	1443.1539	1461.0992	1488.9926	1497.9983	1630.5879	1816.0943	3037.9429	3067.2966	3098.1221	3100.705	3112.5103	3131.5805	3174.5265	3230.0459	3483.8833
CC1NC11CC(=O)C=C1	C[C@H]1N[C@]21CC(=O)C=C2	
InChI=1S/C7H9NO/c1-5-7(8-5)3-2-6(9)4-7/h2-3,5,8H,4H2,1H3	InChI=1S/C7H9NO/c1-5-7(8-5)3-2-6(9)4-7/h2-3,5,8H,4H2,1H3/t5-,7+/m1/s1
