19
gdb 90162	3.36188	1.4461	1.30176	1.2647	74.1	-0.2126	0.0738	0.2863	1032.3593	0.160386	-422.978448	-422.970806	-422.969862	-423.010182	30.844	
O	-0.0942199939	 1.4575151285	-0.0607758888	-0.431533
C	-0.0016882547	 0.053030014	 0.0226796092	 0.052092
C	 0.2965353176	-0.6018305409	 1.4276069685	-0.342435
C	-1.067808787	-1.2842354955	 1.3191748314	 0.377448
C	-2.2024952687	-0.3197887025	 1.1858734664	-0.396327
C	-1.3589963493	-0.6564847406	-0.0318632872	 0.21999
C	-1.7735945486	-1.8062183931	-0.920407325	-0.329258
C	-2.0282043136	-2.9576252361	 0.1111613856	-0.096246
O	-1.274195406	-2.6590835444	 1.300622505	-0.293052
H	 0.7812946982	 1.8255324744	 0.0981643515	 0.28347
H	 0.6772250814	-0.3470517718	-0.7431407832	 0.071517
H	 1.1271073822	-1.3091286113	 1.3906784173	 0.109751
H	 0.4302463843	 0.0816348534	 2.2716984907	 0.098055
H	-3.1995344696	-0.744910693	 1.1998995993	 0.118425
H	-2.1305889443	 0.6761049494	 1.610771963	 0.125497
H	-2.6623464766	-1.634939291	-1.5356592988	 0.108131
H	-0.9499167426	-2.0670863987	-1.5935376958	 0.107014
H	-3.0966522529	-3.017828142	 0.3576263247	 0.104931
H	-1.7111544261	-3.9413223289	-0.2466778538	 0.112532
120.8713	187.4213	254.9478	277.7559	310.293	376.8363	422.3065	466.3282	571.9255	652.2751	654.0381	712.3146	810.3411	828.0691	852.3226	859.1711	910.6208	930.1542	943.6256	962.1036	1016.2746	1034.7365	1063.6413	1088.1198	1133.872	1161.3165	1193.0753	1221.1905	1232.1695	1241.9487	1250.2107	1290.4624	1306.4134	1336.2554	1363.3488	1395.2295	1422.5665	1466.2072	1488.858	1496.1087	1525.6162	2997.2267	3013.3838	3044.176	3051.4583	3079.4403	3093.2205	3123.2094	3133.2738	3223.6301	3810.7989
OC1CC23CC12CCO3	O[C@H]1C[C@@]23C[C@@]12CCO3	
InChI=1S/C7H10O2/c8-5-3-7-4-6(5,7)1-2-9-7/h5,8H,1-4H2	InChI=1S/C7H10O2/c8-5-3-7-4-6(5,7)1-2-9-7/h5,8H,1-4H2/t5-,6-,7+/m0/s1
