16
gdb 42775	2.51236	1.99453	1.64431	3.5544	68.82	-0.2203	-0.0229	0.1974	877.4538	0.125583	-437.79718	-437.790499	-437.789555	-437.828027	27.11	
O	-0.0093561777	 0.0090590909	 0.0322508631	-0.316693
C	-0.029963381	 1.1993675319	-0.0061484968	 0.433771
C	-1.0570677186	 2.345177541	 0.0593301212	-0.023561
C	 0.0062483713	 3.0247531452	 1.0241742334	-0.357955
C	 0.9853426007	 2.3645306398	-0.0072536434	 0.158965
N	 2.3615035405	 2.1352541705	-0.5301613666	-0.412027
C	 1.7448111948	 2.2804213446	-1.9235205389	-0.246743
C	 0.5627524129	 3.0673174804	-1.2694583512	 0.118104
O	-0.8709507884	 2.9060674477	-1.2734872838	-0.298918
H	-2.110638966	 2.2535977361	 0.3039240099	 0.113774
H	 0.0243893541	 4.1152051126	 1.0568114176	 0.124006
H	-0.0375015444	 2.5898628874	 2.0245616509	 0.132648
H	 2.9404510837	 2.9558297995	-0.3545317487	 0.228817
H	 2.3626033059	 2.8136480229	-2.6481548578	 0.114891
H	 1.4780289157	 1.2918855869	-2.302334987	 0.147673
H	 0.7997808966	 4.1389379925	-1.2827098021	 0.083248
147.407	211.8246	276.5198	376.2454	412.8509	484.1544	539.109	624.464	684.0571	715.5693	772.5437	799.5571	837.6761	845.6677	890.3605	905.8763	947.7895	980.3305	1008.5114	1042.8822	1068.2053	1099.1308	1125.8449	1161.1569	1175.2263	1196.3696	1230.5365	1246.6282	1270.4686	1300.7478	1348.6673	1386.894	1483.2507	1494.1193	1916.662	3015.2442	3075.5879	3077.3812	3141.8481	3149.7134	3185.4946	3471.9988
O=C1C2CC11NCC1O2	O=C1[C@H]2C[C@]31NC[C@H]3O2	
InChI=1S/C6H7NO2/c8-5-3-1-6(5)4(9-3)2-7-6/h3-4,7H,1-2H2	InChI=1S/C6H7NO2/c8-5-3-1-6(5)4(9-3)2-7-6/h3-4,7H,1-2H2/t3-,4-,6+/m1/s1
