23
gdb 105052	2.54171	1.21851	1.12075	3.1245	84.89	-0.2353	0.0681	0.3035	1268.4699	0.20535	-384.420874	-384.410927	-384.409983	-384.456205	37.741	
C	-0.5046729064	 1.6093164802	 0.508489771	-0.411565
C	-0.491876394	 0.1247675747	 0.8865472794	-0.244962
C	 0.8703544116	-0.5173554168	 1.1667057663	 0.236893
C	 2.1113395765	 0.1153240171	 0.642586493	-0.300104
N	 1.8098876033	 0.1531848051	 2.084171218	-0.340526
C	 0.7782067476	-2.0202837987	 1.37254528	 0.314592
C	 0.0741244093	-2.4380252741	 2.6496392833	-0.458719
C	 0.6839561507	-2.87745297	 0.1596207528	-0.27595
N	 1.8908687644	-2.9082568856	 1.004025769	-0.356081
H	-0.0410728118	 1.7884086222	-0.4659200392	 0.124586
H	-1.5355847097	 1.9705878048	 0.4519586584	 0.121928
H	 0.0109188504	 2.2340703294	 1.2468228868	 0.114297
H	-1.1187355169	-0.0165127725	 1.7758691658	 0.110885
H	-0.9762415968	-0.4496545479	 0.0879386054	 0.108889
H	 2.9842235605	-0.4743214482	 0.3755384255	 0.111526
H	 2.0159288097	 1.0292198016	 0.0642830717	 0.111525
H	 1.4650181256	 1.075035423	 2.3420208423	 0.225681
H	-0.9811245963	-2.146091702	 2.6498423022	 0.108875
H	 0.1312213535	-3.5224907754	 2.7663104895	 0.125415
H	 0.561899454	-1.9727178166	 3.511941609	 0.133761
H	 0.0863347761	-3.7855258344	 0.1731478204	 0.112033
H	 0.7456302415	-2.392122286	-0.812100306	 0.102405
H	 2.6412748271	-2.3943759399	 0.5527347956	 0.224617
30.6285	63.7313	185.7073	198.6718	235.5502	251.392	297.122	318.9247	343.5281	369.2879	455.7026	485.7217	524.3239	613.6302	773.	791.0673	836.3086	868.0064	890.396	916.1932	930.257	967.2012	976.033	1007.9921	1032.5699	1038.2806	1073.4295	1081.9553	1114.4746	1123.1647	1138.5948	1145.9899	1241.2896	1254.4076	1264.0804	1306.0288	1326.4233	1356.2018	1367.2028	1402.1925	1410.6832	1421.7101	1484.8542	1487.9205	1498.4077	1499.5075	1502.9167	1513.1449	1525.1829	3027.0311	3033.4201	3039.9643	3058.6384	3096.3588	3097.4713	3106.1066	3110.5839	3115.233	3127.8366	3179.71	3189.776	3490.8581	3524.2979
CCC1(CN1)C1(C)CN1	CC[C@]1(CN1)[C@@]1(C)CN1	
InChI=1S/C7H14N2/c1-3-7(5-9-7)6(2)4-8-6/h8-9H,3-5H2,1-2H3	InChI=1S/C7H14N2/c1-3-7(5-9-7)6(2)4-8-6/h8-9H,3-5H2,1-2H3/t6-,7+/m1/s1
