18
gdb 18762	3.8261	2.18818	1.69078	1.86	71.05	-0.2369	0.0698	0.3066	811.8747	0.15547	-347.75026	-347.74377	-347.742826	-347.780725	26.092	
C	-0.0340093112	 1.5253182698	 0.0689678937	-0.226873
C	 1.5246885904	 1.6006049977	-0.02806333	-0.336791
C	 1.5692337779	 0.0840507793	 0.1321307855	 0.328665
C	 2.5386272783	-1.0224637276	-0.252078947	-0.179617
O	 2.160727112	-1.7918088908	 0.919276992	-0.296442
C	 1.3992448024	-0.6897936227	 1.4697055592	 0.081386
C	-0.1271541598	-0.8347053531	 1.2561173242	-0.253288
C	 0.0175748469	-0.0318824753	-0.0650785298	-0.061516
H	-0.4369623155	 1.8654622606	 1.0271782239	 0.10207
H	-0.5723670795	 2.0418114547	-0.7282041107	 0.104744
H	 1.8528129377	 1.9205019636	-1.0225347111	 0.104854
H	 2.056428496	 2.2009760882	 0.7162487348	 0.099697
H	 2.346013781	-1.5628825242	-1.1874278794	 0.099912
H	 3.6004352787	-0.7375596574	-0.2154235765	 0.09673
H	 1.7861114219	-0.3679045482	 2.4426585601	 0.067235
H	-0.4256208775	-1.8791638809	 1.1375706299	 0.111181
H	-0.7609157312	-0.3660849488	 2.0161117185	 0.094391
H	-0.4283432486	-0.4386917749	-0.9746262174	 0.063663
115.9453	211.281	302.9753	339.553	424.3768	488.1123	660.2041	693.0717	767.5333	793.2897	843.0973	847.6978	895.4045	923.9633	941.2872	971.6029	996.4112	1006.3616	1032.3597	1093.9367	1118.9794	1124.0643	1156.751	1173.0477	1209.957	1218.8723	1234.9096	1239.5735	1270.3292	1273.8326	1291.2153	1301.7708	1324.5667	1375.4363	1460.2397	1478.2369	1495.0097	1517.0168	2989.8655	3040.5377	3042.7379	3043.2533	3052.6714	3060.3496	3084.259	3089.0944	3110.1022	3118.2661
C1CC23COC2CC13	C1C[C@@]23CO[C@@H]2C[C@@H]13	
InChI=1S/C7H10O/c1-2-7-4-8-6(7)3-5(1)7/h5-6H,1-4H2	InChI=1S/C7H10O/c1-2-7-4-8-6(7)3-5(1)7/h5-6H,1-4H2/t5-,6-,7+/m1/s1
