12
gdb 133305	2.37587	1.87871	1.04976	3.1122	68.25	-0.2151	-0.0843	0.1308	1010.9944	0.074476	-510.033656	-510.02534	-510.024396	-510.066913	29.775	
N	 0.000328411	 1.3865775933	-0.1314780757	-0.555076
C	 0.0183473251	 0.0254400432	-0.047983679	 0.371056
C	-1.1304229433	-0.7213339085	-0.0287286517	 0.074873
F	-2.3018016757	-0.0627090239	-0.0377395821	-0.078791
C	-1.1379760103	-2.1385285709	-0.0039458714	 0.298696
N	-2.1482955852	-2.9143628278	 0.0279433909	-0.530134
N	 0.2165491819	-2.6821703897	-0.0201918769	-0.076956
N	 1.2676147852	-2.1289791233	-0.0253214559	 0.027945
O	 1.2260244865	-0.5140932897	-0.0230064551	-0.320132
H	 0.8416698355	 1.8621130631	 0.1531972645	 0.274996
H	-0.872760509	 1.8396297152	 0.0863617492	 0.279897
H	-1.8513872518	-3.889047581	 0.0351589332	 0.233625
75.1518	109.0323	132.424	271.4436	286.9323	360.8287	409.0752	442.154	467.6926	484.4747	531.4577	545.6843	666.9474	716.0425	728.1777	815.491	819.4263	936.381	1054.7781	1204.9927	1235.6465	1334.7271	1452.0242	1615.9877	1656.3464	1729.5061	1790.7611	3505.8515	3595.1689	3716.6577
NC1=C(F)C(=N)N=NO1	NC1=C(F)C(=N[N]O1)[NH]	
InChI=1S/C3H3FN4O/c4-1-2(5)7-8-9-3(1)6/h5H,6H2	InChI=1S/C3H3FN4O/c4-1-2(5)7-8-9-3(1)6/h5H,6H2
