18
gdb 53309	2.68705	0.80903	0.66063	2.9513	83.35	-0.2339	-0.0234	0.2104	1690.2301	0.144072	-401.897329	-401.887091	-401.886147	-401.935965	34.38	
C	 0.1980477703	 1.558064927	 0.1074527051	-0.499242
C	 0.1231546117	 0.105337233	 0.0627855328	 0.050669
C	 0.0657583503	-1.0983855809	 0.0381345387	 0.104588
C	 0.0133816138	-2.5325946862	-0.0442063157	-0.178874
C	-0.4815463142	-3.3461962888	 1.1156210981	-0.248681
N	-1.2708580617	-3.2588571498	-0.1044047248	-0.098052
C	-2.5005902621	-2.4836446972	-0.0490132974	-0.227551
C	-3.6855920498	-3.4101734738	 0.170261355	 0.158047
O	-4.7149979261	-3.0732575628	 0.6937353304	-0.239757
H	 1.2257226533	 1.8933040833	 0.2855734307	 0.153827
H	-0.1386816575	 2.0056990904	-0.8340812615	 0.151982
H	-0.4264218165	 1.9630657387	 0.9111687944	 0.153084
H	 0.7739345413	-2.9789903198	-0.6813840546	 0.117172
H	-0.0335075943	-4.3131978084	 1.3267202713	 0.124597
H	-0.8222368718	-2.7908238164	 1.9873175188	 0.125754
H	-2.5170362046	-1.6891196891	 0.7099475207	 0.12468
H	-2.6478368787	-1.9998514822	-1.0254225549	 0.138575
H	-3.5282286934	-4.440971347	-0.2177778271	 0.089183
9.7135	58.2805	61.607	74.7403	133.6518	185.5176	274.2905	303.9125	375.5604	399.4583	492.7365	512.1835	589.4768	716.934	726.1687	821.3915	877.9676	979.2695	1032.7033	1051.2038	1053.0435	1061.4395	1072.6219	1108.1103	1121.0796	1162.534	1201.4182	1252.232	1321.6137	1327.588	1382.9261	1406.7057	1414.5154	1457.0889	1475.5474	1477.9505	1502.7265	1838.3113	2364.7878	2893.5125	3001.9939	3027.8743	3045.0864	3088.8427	3091.032	3098.9639	3123.5208	3190.3818
CC#CC1CN1CC=O	CC#C[C@H]1CN1CC=O	
InChI=1S/C7H9NO/c1-2-3-7-6-8(7)4-5-9/h5,7H,4,6H2,1H3	InChI=1S/C7H9NO/c1-2-3-7-6-8(7)4-5-9/h5,7H,4,6H2,1H3/t7-,8?/m0/s1
