20
gdb 76174	2.06342	1.44132	1.19598	4.9697	81.24	-0.2262	0.0311	0.2573	1173.567	0.169847	-399.324309	-399.313861	-399.312917	-399.35889	38.634	
C	-0.0895415083	 1.5188466395	 0.0721852374	-0.419321
C	 0.0282072545	 0.0148999119	-0.029130295	-0.07254
C	 0.678207194	-0.7017995257	-1.1938349928	 0.211582
C	 0.0546598805	-1.9807716736	-1.714003513	-0.466762
N	 1.3465571602	 0.1422178422	-2.1569167331	-0.551669
C	 1.3713340067	-0.674980388	 0.1974379396	 0.143436
N	 2.5456277385	 0.148943302	 0.4082455026	-0.572657
C	 1.3696472849	-1.8867438834	 0.9747642861	 0.258731
N	 1.3766970884	-2.8697471205	 1.5862064019	-0.359405
H	 0.7728811344	 2.0294671934	-0.3573705192	 0.134699
H	-0.988204235	 1.8685884262	-0.4479699716	 0.115803
H	-0.1701545494	 1.8231273349	 1.1199420693	 0.135623
H	-0.8179864552	-0.5225582289	 0.3906854822	 0.104162
H	-0.754328173	-1.7520518768	-2.4181855233	 0.113951
H	 0.7975856981	-2.5915069824	-2.241054965	 0.119136
H	-0.359180423	-2.5914464534	-0.9076873653	 0.143556
H	 1.8833488506	-0.4222916287	-2.8086048199	 0.235768
H	 0.6741547064	 0.6718654562	-2.7033278444	 0.240098
H	 3.3517432118	-0.4520829362	 0.5524829364	 0.237719
H	 2.7085042248	 0.6550704414	-0.4617693829	 0.248089
108.8225	123.5338	154.0589	185.8449	207.8793	217.4847	232.9345	277.7263	301.8234	309.4046	373.8146	441.0713	474.0027	530.5226	579.8902	600.9194	679.5862	726.5005	775.3778	859.8152	970.7255	977.4592	992.2289	1021.753	1044.5756	1085.6325	1123.1364	1143.7067	1182.1915	1275.113	1278.8036	1317.4736	1346.4868	1416.0716	1420.4314	1447.8122	1490.2017	1491.3735	1493.5984	1502.1036	1648.8124	1656.4417	2342.9041	3021.0873	3041.7634	3079.6816	3101.4174	3119.29	3137.688	3153.5016	3456.1557	3492.1188	3553.7806	3567.6599
CC1C(C)(N)C1(N)C#N	C[C@H]1[C@@](C)(N)[C@]1(N)C#N	
InChI=1S/C6H11N3/c1-4-5(2,8)6(4,9)3-7/h4H,8-9H2,1-2H3	InChI=1S/C6H11N3/c1-4-5(2,8)6(4,9)3-7/h4H,8-9H2,1-2H3/t4-,5+,6-/m0/s1
