18
gdb 106055	2.89223	1.60305	1.20627	1.9633	70.76	-0.2387	0.0556	0.2943	1036.0374	0.148253	-439.00208	-438.994188	-438.993244	-439.034273	30.89	
O	 0.1027291367	 1.2300805344	-0.6340005523	-0.424478
C	-0.1055466531	 0.1427801676	 0.2580049957	-0.192063
C	-1.4767416157	-0.4451585316	 0.1103157308	 0.291721
C	-2.7961428282	-0.0084846382	 0.6513319848	-0.12872
C	-3.4522607778	-1.0051748259	-0.3868773739	-0.126487
C	-3.1113101785	-2.0970450162	 0.6348359368	-0.156663
N	-2.0933960346	-1.1772376711	 1.2599317489	-0.189996
C	-2.1314432195	-0.9122633209	-1.1982278377	 0.084265
O	-2.0945431072	 0.0824508735	-2.2072737697	-0.449406
H	-0.0886184349	 0.906777604	-1.5226622328	 0.289012
H	 0.6502930935	-0.6456664026	 0.1114294019	 0.09644
H	 0.023585071	 0.530113183	 1.2728867604	 0.12331
H	-3.1228210559	 0.8571217503	 1.2122351855	 0.106935
H	-4.4127213181	-0.922691688	-0.8921645892	 0.082999
H	-3.8985667912	-2.2825544914	 1.3691515568	 0.116444
H	-2.7160984038	-3.0509203124	 0.2648898413	 0.101772
H	-1.7757695819	-1.8303686824	-1.6776439094	 0.087563
H	-2.3280606908	 0.9242843278	-1.7937659678	 0.287352
109.5615	173.4152	209.1354	235.6768	281.4021	368.7203	384.5139	455.2177	542.9861	579.2042	667.5405	748.1206	802.6931	832.9982	871.6341	910.9939	932.9481	937.7516	971.2892	994.9785	1013.0984	1052.0513	1062.3403	1104.4143	1140.2041	1159.9677	1163.9349	1193.501	1223.4386	1236.1152	1280.0563	1299.878	1314.5346	1369.184	1398.8738	1439.215	1450.4528	1501.1157	1510.2345	2976.4933	3031.5998	3060.6869	3087.1898	3105.8711	3137.379	3205.5037	3763.1095	3784.3026
OCC12C3C(CN13)C2O	OC[C@]12[C@H]3[C@H](CN13)[C@H]2O	
InChI=1S/C6H9NO2/c8-2-6-4-3(5(6)9)1-7(4)6/h3-5,8-9H,1-2H2	InChI=1S/C6H9NO2/c8-2-6-4-3(5(6)9)1-7(4)6/h3-5,8-9H,1-2H2/t3-,4+,5+,6+,7?/m0/s1
