15
gdb 112403	2.3249	1.46429	0.95453	3.6819	63.57	-0.2721	-0.0071	0.265	1164.5892	0.113484	-491.138163	-491.129957	-491.129012	-491.171595	29.793	
O	 0.092925903	 1.391806677	-0.2858343912	-0.415905
C	 0.0765228756	 0.004789046	 0.003291627	-0.075877
C	-1.3664589179	-0.522369732	 0.0638858673	-0.103514
N	-2.0975647304	-0.2963557937	-1.1641396917	-0.356244
C	-2.4143554545	-1.4523871634	-1.8145676269	 0.479313
O	-2.9096635556	-1.6260976109	-2.8858008428	-0.364249
O	-2.060913249	-2.5141031713	-0.9655831896	-0.230977
C	-1.4391244626	-2.0339988092	 0.1611219803	 0.408798
N	-0.9829697522	-2.7236905846	 1.1075042406	-0.528198
H	-0.1293547833	 1.8728515506	 0.5180718221	 0.293506
H	 0.6091189429	-0.4865897646	-0.8170671507	 0.12703
H	 0.5887401365	-0.2429626765	 0.9408930505	 0.12927
H	-1.8769482936	-0.0702579345	 0.9241705325	 0.118913
H	-2.0378195789	 0.5726693031	-1.6692849832	 0.277251
H	-1.1313155599	-3.720882466	 0.9470935657	 0.240882
69.3478	123.9548	151.0515	175.2444	309.1665	314.7233	397.5225	460.709	488.6418	597.9318	628.9047	644.0107	729.701	764.0504	876.9029	904.0335	934.8834	964.2288	1029.9877	1078.8084	1083.6483	1125.3575	1191.3037	1207.4467	1277.3878	1341.5688	1386.3465	1390.2879	1406.1363	1416.7464	1495.5232	1794.2568	1932.8224	3021.76	3035.1431	3096.551	3488.0816	3663.7792	3815.6827
OCC1NC(=O)OC1=N	OC[C@H]1NC(=O)O[C]1[NH]	
InChI=1S/C4H6N2O3/c5-3-2(1-7)6-4(8)9-3/h2,5,7H,1H2,(H,6,8)	InChI=1S/C4H6N2O3/c5-3-2(1-7)6-4(8)9-3/h2,5,7H,1H2,(H,6,8)/t2-/m1/s1
