25
gdb 120481	2.56032	0.88181	0.82202	1.4159	88.72	-0.2482	0.0644	0.3126	1613.7913	0.227894	-389.489542	-389.478807	-389.477863	-389.525493	39.9	
C	-0.2954125405	 1.5031572792	-0.4909797233	-0.380628
C	-0.0653911182	 0.0099963209	-0.2428461884	-0.168802
C	 0.7102113973	-0.6760595245	-1.373948284	-0.19347
C	 0.9321878261	-2.1700952883	-1.1349443377	-0.025005
C	-0.2971591919	-3.0959624384	-1.3952721312	-0.251985
C	 0.3655745864	-3.6372180039	-2.6988344508	-0.008669
C	-0.2495312616	-3.1407289546	-4.0046415265	-0.416179
C	 1.6953332219	-2.9360692023	-2.266355382	 0.114489
O	 2.4454688223	-2.215551438	-3.2156455391	-0.425988
H	 0.6549765516	 2.0371643833	-0.6018205877	 0.114532
H	-0.8745978482	 1.6687553587	-1.4064952926	 0.1117
H	-0.8428224006	 1.9663065244	 0.3359511704	 0.111601
H	 0.4828278129	-0.1267077293	 0.6985259709	 0.096568
H	-1.0318014787	-0.4918456	-0.1052370831	 0.098805
H	 0.1685972044	-0.5142684619	-2.3177904073	 0.082456
H	 1.6858867882	-0.1868332148	-1.494613699	 0.103843
H	 1.38851662	-2.2972359307	-0.1470607164	 0.063319
H	-0.4393535035	-3.8603157136	-0.6276822513	 0.097557
H	-1.2517282059	-2.5795158057	-1.5389250591	 0.092299
H	 0.448645964	-4.7276536285	-2.7429849254	 0.067449
H	-0.419220745	-2.0573465401	-4.000103259	 0.107654
H	 0.3943879804	-3.3755201214	-4.8583676953	 0.125077
H	-1.2228723622	-3.6125758528	-4.1751154184	 0.117535
H	 2.3989577292	-3.6583614656	-1.8432633436	 0.083902
H	 1.8686546616	-1.5645999122	-3.6275361199	 0.28194
64.0421	93.7302	103.3446	132.6764	206.3013	233.3051	247.4619	259.3762	288.8946	310.2176	349.9479	424.1858	519.0504	545.456	726.9314	750.0387	790.4605	825.7238	835.8326	882.326	910.5721	922.3495	952.3005	1008.94	1032.9351	1050.059	1079.91	1088.4816	1117.8591	1145.2828	1176.4282	1180.5555	1225.7901	1254.5434	1261.0785	1270.6136	1291.4542	1300.2701	1310.0639	1331.0688	1358.8151	1374.4893	1394.9796	1406.451	1413.2279	1439.4449	1479.9401	1489.1861	1494.2228	1498.0483	1500.1575	1500.5679	1511.193	2995.5464	3017.8868	3025.4177	3028.3133	3030.9221	3038.0014	3044.5923	3047.969	3057.7957	3071.9873	3088.6538	3094.7662	3100.9409	3102.037	3104.509	3823.784
CCCC1CC(C)C1O	CCC[C@H]1C[C@@H](C)[C@H]1O	
InChI=1S/C8H16O/c1-3-4-7-5-6(2)8(7)9/h6-9H,3-5H2,1-2H3	InChI=1S/C8H16O/c1-3-4-7-5-6(2)8(7)9/h6-9H,3-5H2,1-2H3/t6-,7+,8-/m1/s1
