23
gdb 64016	1.88357	1.7901	1.46698	1.2011	85.93	-0.2422	0.0153	0.2575	1099.0746	0.204142	-388.309776	-388.300063	-388.299119	-388.342944	39.011	
C	 0.0179909	 1.5178022271	-0.0931308875	-0.429378
C	 0.0032006418	-0.0196614498	-0.0015182231	 0.261092
C	-1.4464182245	-0.5151520301	-0.057627859	-0.434168
C	 0.8734182004	-0.5881266665	-1.1641958428	-0.286934
C	 2.2453993254	-0.7142266154	-0.5538492601	-0.076908
C	 2.198756471	-0.6426798657	 0.7739950885	-0.116087
C	 0.773022744	-0.5151774397	 1.2792570856	 0.344345
C	 0.6305083289	 0.3541183325	 2.5297850465	-0.448144
O	 0.2560247279	-1.8295718242	 1.5801098424	-0.478141
H	 1.0372509304	 1.9159509882	-0.0665287359	 0.114089
H	-0.4405042123	 1.8357128921	-1.0353067252	 0.108406
H	-0.5507667977	 1.9808349611	 0.7185401621	 0.111642
H	-1.9219051432	-0.1789888528	-0.9858651022	 0.09986
H	-1.4960830297	-1.6037895298	-0.0146709008	 0.132192
H	-2.0361055751	-0.1183809108	 0.7761321623	 0.106729
H	 0.5099977152	-1.57136403	-1.4917816755	 0.110213
H	 0.8536038242	 0.0623623936	-2.0465068178	 0.094312
H	 3.1417613604	-0.8729521301	-1.1443143342	 0.093058
H	 3.0446492496	-0.7283541384	 1.4496500862	 0.08339
H	 1.0547517142	 1.3520635287	 2.3919870833	 0.119221
H	-0.4203142914	 0.453520869	 2.8175979712	 0.122571
H	 1.159696689	-0.1171879938	 3.3664835989	 0.098242
H	 0.8746324415	-2.2517604851	 2.185171287	 0.270398
106.8149	214.795	229.443	256.861	260.8218	272.1852	296.8188	318.5046	352.0744	366.9195	392.0977	419.0635	496.5859	532.2724	584.2184	651.5791	730.6131	773.6454	845.63	912.7849	928.0988	940.3231	954.0275	966.8407	976.1517	981.0605	1031.5005	1083.9916	1104.2545	1140.1515	1150.2849	1191.8456	1216.9639	1235.1661	1270.7629	1314.8134	1355.7366	1371.945	1397.9153	1405.1497	1421.9423	1478.9889	1485.9916	1487.1142	1492.4696	1498.7611	1510.6717	1517.717	1685.095	3017.7749	3030.8693	3030.9604	3036.4282	3055.4933	3088.7375	3094.2467	3099.8938	3109.2683	3122.7203	3140.637	3165.9836	3194.6414	3810.7704
CC1(C)CC=CC1(C)O	CC1(C)CC=C[C@]1(C)O	
InChI=1S/C8H14O/c1-7(2)5-4-6-8(7,3)9/h4,6,9H,5H2,1-3H3	InChI=1S/C8H14O/c1-7(2)5-4-6-8(7,3)9/h4,6,9H,5H2,1-3H3/t8-/m0/s1
