15
gdb 24528	3.85518	1.72267	1.19064	4.297	87.14	-0.1857	-0.0581	0.1275	966.3557	0.117237	-379.723535	-379.71744	-379.716496	-379.753704	25.475	
N	-0.0075149039	 1.3487049483	 0.0094314879	-0.378812
C	 1.1650955041	 2.0361970015	 0.0021319384	-0.041301
C	 2.3579829262	 1.3476977607	-0.0129290905	-0.063359
N	 2.4467370907	-0.0032233669	-0.0212202833	-0.334499
C	 1.3137442183	-0.6762092708	-0.0141626386	 0.324184
C	 1.0579151979	-2.069286175	-0.020084242	-0.261103
C	-0.3194205527	-2.2263286853	-0.0072471203	-0.063598
C	-1.0049445708	-0.9657505337	 0.0063842799	-0.311555
C	-0.0208205744	-0.0098767701	 0.0021072492	 0.343728
H	-0.880038481	 1.8582142067	 0.0205447958	 0.27203
H	 1.0977645861	 3.1150752641	 0.0087433748	 0.132068
H	 3.2894240684	 1.9026390882	-0.0186950264	 0.109927
H	 1.8074157325	-2.8450543399	-0.032000665	 0.093618
H	-0.8315095143	-3.1811093279	-0.0076981785	 0.09547
H	-2.074923857	-0.8195846799	 0.0175101485	 0.083203
221.3393	240.8218	412.3155	439.7786	555.3015	562.4947	597.3343	614.6208	696.9929	719.0086	739.1502	741.948	792.5856	812.0566	841.8846	906.0747	915.6384	924.6249	1032.8198	1068.5687	1082.4112	1135.0273	1228.2459	1244.2734	1313.1843	1329.6799	1376.3136	1411.9639	1483.6589	1508.226	1524.6847	1616.5188	1650.8428	3189.4664	3206.0111	3234.1205	3234.7753	3256.927	3599.2041
N1C=CN=C2C=CC=C12	[nH]1ccnc2cccc12	
InChI=1S/C7H6N2/c1-2-6-7(3-1)9-5-4-8-6/h1-5,8H	InChI=1S/C7H6N2/c1-2-6-7(3-1)9-5-4-8-6/h1-5,8H
