18
gdb 55125	2.70403	1.36435	1.16091	5.0689	71.76	-0.2393	0.0147	0.254	1122.0149	0.146421	-439.071171	-439.062244	-439.0613	-439.105185	33.382	
C	 0.1969598026	 1.6115594868	-0.0522024669	-0.494894
C	 0.051768198	 0.1178925779	-0.0204036353	 0.208321
C	-1.0100239317	-0.6286967907	 0.7853077867	-0.360051
C	 0.4386409702	-0.9260542121	 1.0023560702	 0.076494
O	 0.9175044303	-1.8441831482	 0.017251613	-0.293375
C	 0.6848108282	-0.8518926391	-1.0238168702	 0.004032
C	-0.0651100594	-1.4354454811	-2.2265033846	 0.380587
N	-1.2815519658	-0.8737098119	-2.4883929819	-0.529023
O	 0.4332628419	-2.3043140018	-2.9100326523	-0.353215
H	 1.2304892996	 1.9049877206	-0.266476465	 0.12903
H	-0.4416004266	 2.0633190222	-0.8212550755	 0.122456
H	-0.0845837336	 2.0545802566	 0.9080637612	 0.126108
H	-1.4844513456	-0.0216971305	 1.5510482829	 0.117374
H	-1.6443671845	-1.3910363693	 0.3411674295	 0.119905
H	 0.9686822263	-0.8696288662	 1.9459864573	 0.111095
H	 1.6503430123	-0.4817254108	-1.3918671036	 0.107698
H	-1.7443165348	-0.2992823088	-1.8053117637	 0.265741
H	-1.8331608774	-1.2803938236	-3.2274904519	 0.261718
37.2817	133.7376	164.5664	200.0673	281.741	286.2118	324.6071	365.1467	434.6901	481.0324	530.9873	593.5519	643.7507	718.3023	767.8178	821.6656	893.1911	910.4545	970.676	979.5373	1003.6292	1030.9661	1039.308	1083.2671	1088.1836	1104.1607	1137.6496	1226.2194	1257.9699	1285.6854	1338.9818	1357.4908	1401.5086	1427.2659	1485.2859	1486.963	1499.4542	1609.982	1810.0397	3022.0776	3029.4078	3080.8893	3102.7545	3113.733	3182.8181	3205.4298	3592.7657	3728.5542
CC12CC1OC2C(N)=O	C[C@]12C[C@H]1O[C@H]2C(=O)N	
InChI=1S/C6H9NO2/c1-6-2-3(6)9-4(6)5(7)8/h3-4H,2H2,1H3,(H2,7,8)	InChI=1S/C6H9NO2/c1-6-2-3(6)9-4(6)5(7)8/h3-4H,2H2,1H3,(H2,7,8)/t3-,4+,6+/m1/s1
