25
gdb 122209	2.50625	0.83118	0.70375	1.0413	90.05	-0.2497	0.0807	0.3304	1754.7611	0.22714	-389.473696	-389.462689	-389.461745	-389.510609	39.926	
C	 0.888832587	-0.0798870513	-1.1764407493	-0.381739
C	-0.0671157858	-0.2080731041	 0.0160657335	-0.254669
C	 0.591306946	-0.71693907	 1.2941607759	 0.39697
C	 1.6997777525	 0.139661871	 1.8900590511	-0.290511
C	 1.2360180566	 1.5182748319	 2.3515291261	-0.051485
O	 2.3268455733	 2.1669184739	 2.9711478802	-0.228551
C	 2.0088886782	 3.4585868575	 3.4254594821	-0.226975
C	-0.284941905	-1.4752042346	 2.2656873607	-0.313598
C	 0.7350061173	-2.2149325192	 1.4325999459	-0.314766
H	 1.3822741617	-1.0341457621	-1.3891756012	 0.1179
H	 0.3487523538	 0.2277297097	-2.0773076394	 0.11016
H	 1.670812702	 0.663874123	-0.9936570996	 0.119455
H	-0.5487088536	 0.7605772191	 0.2035274786	 0.096009
H	-0.8788332847	-0.8963126785	-0.2497697827	 0.09088
H	 2.1305071127	-0.374041563	 2.7569493453	 0.101278
H	 2.5179813098	 0.2682429196	 1.1717161314	 0.105506
H	 0.8730244331	 2.1201083614	 1.5010522772	 0.083419
H	 0.3933449017	 1.4219138554	 3.0580429703	 0.085356
H	 2.9065752068	 3.874882007	 3.8896623719	 0.124593
H	 1.6976783187	 4.119451791	 2.6000318264	 0.100567
H	 1.1980763794	 3.4435499862	 4.1718642515	 0.100775
H	-0.0886846574	-1.3639533636	 3.3272397663	 0.108211
H	-1.3345542842	-1.6029207533	 2.0216959335	 0.106018
H	 0.3730871409	-2.8382895799	 0.6211614778	 0.106705
H	 1.6162196191	-2.605650807	 1.9304312665	 0.108495
45.8469	75.4942	95.3111	129.0468	140.2956	220.882	232.6881	240.4696	306.6035	315.3306	351.5886	409.695	462.0637	523.0871	714.6305	774.2947	795.2675	804.8487	901.3712	910.2935	929.4929	958.477	999.5484	1017.159	1048.4748	1054.5733	1075.9499	1079.5222	1113.9746	1120.7174	1162.6842	1182.2231	1188.3479	1224.3352	1235.3751	1270.7901	1295.8632	1315.0348	1333.1357	1359.8367	1393.8998	1408.5966	1426.7462	1467.6769	1481.3282	1484.2236	1485.0212	1490.0554	1502.1542	1505.2507	1505.3751	1512.2315	1532.7913	2946.8465	2966.5205	2974.214	3005.7005	3017.8615	3033.5915	3037.0842	3049.4326	3074.8701	3103.3073	3106.4181	3109.9683	3123.3775	3128.0985	3200.5898	3215.0554
CCC1(CCOC)CC1	CCC1(CCOC)CC1	
InChI=1S/C8H16O/c1-3-8(4-5-8)6-7-9-2/h3-7H2,1-2H3	InChI=1S/C8H16O/c1-3-8(4-5-8)6-7-9-2/h3-7H2,1-2H3
