15
gdb 15321	2.90277	1.59367	1.17554	5.67	63.79	-0.2475	-0.0228	0.2247	1003.7984	0.117672	-399.814974	-399.806838	-399.805893	-399.849324	28.2	
O	 0.2596677752	 0.7944398488	 1.2919508771	-0.303581
C	 0.1465167343	 1.4655385518	 0.2925653922	 0.150593
N	 1.1748956883	 1.7676607572	-0.5559380104	-0.287774
C	 2.4735496987	 1.1835950675	-0.4050556691	 0.04679
C	 3.6458700439	 1.9095439767	-0.9627079544	-0.347074
C	 3.4967197031	 1.7934869644	 0.5509244626	-0.090113
C	 3.1804554967	 3.0200954874	 1.3200880862	 0.178579
O	 3.6429302191	 3.2760453766	 2.4032609564	-0.26304
H	-0.8082539053	 1.9203309008	-0.0385282133	 0.081197
H	 0.9538417336	 2.2255561228	-1.426760373	 0.253895
H	 2.4844412312	 0.0974538465	-0.4311067412	 0.128333
H	 4.4394682925	 1.3452335242	-1.4369960147	 0.140828
H	 3.4684707882	 2.8910205778	-1.392845553	 0.128047
H	 4.1437586536	 1.0970292016	 1.0711514577	 0.118378
H	 2.4793480268	 3.7185390158	 0.8107469868	 0.064942
14.9594	105.7657	158.443	197.4285	276.6536	284.7337	390.1397	438.7419	499.0995	570.2455	763.6092	817.9772	846.8265	860.697	968.3811	1021.4024	1033.1506	1049.6706	1079.1238	1122.725	1138.884	1180.6264	1191.4789	1263.9292	1345.6894	1399.3533	1428.8218	1443.1148	1483.4428	1500.5945	1813.1142	1825.7992	2879.5027	2939.9269	3133.4662	3145.0938	3191.4445	3227.58	3620.5585
O=CNC1CC1C=O	O=CN[C@H]1C[C@H]1C=O	
InChI=1S/C5H7NO2/c7-2-4-1-5(4)6-3-8/h2-5H,1H2,(H,6,8)	InChI=1S/C5H7NO2/c7-2-4-1-5(4)6-3-8/h2-5H,1H2,(H,6,8)/t4-,5-/m0/s1
