21
gdb 109343	2.90676	1.26446	0.98698	1.4389	85.18	-0.2271	0.0181	0.2452	1272.1545	0.183283	-387.083236	-387.074582	-387.073637	-387.116834	33.225	
C	 0.0241705086	 1.5400698556	 0.2621363327	-0.374903
C	-0.0226022144	 0.0520482684	-0.1268814949	-0.273974
C	-1.4081023238	-0.5434931012	-0.0983711282	 0.313921
C	-2.0509822734	-0.9607447553	-1.1913615333	-0.186515
C	-3.4198836299	-1.5884982017	-1.1086643689	-0.122867
O	-3.6364379137	-2.2836378059	 0.1146226865	-0.25855
C	-3.3172106222	-1.5507354951	 1.2610668126	 0.102859
C	-2.0776481592	-1.9650563239	 2.0071429517	-0.309649
C	-2.1066876133	-0.6630738415	 1.2141294282	-0.152691
H	 1.0485420813	 1.9213087711	 0.207540981	 0.11391
H	-0.5975620709	 2.1388262705	-0.4110313218	 0.119211
H	-0.333418516	 1.7042324202	 1.28342247	 0.11898
H	 0.3984231044	-0.0715925612	-1.1308940904	 0.098758
H	 0.6246595045	-0.5126566273	 0.5581560259	 0.104517
H	-1.5978053159	-0.8763225835	-2.1758833448	 0.083517
H	-4.2046834927	-0.8272332235	-1.2631392215	 0.098384
H	-3.5466058824	-2.3393737216	-1.8951858845	 0.113561
H	-4.1872030808	-1.2257153666	 1.8295518459	 0.085816
H	-2.073053101	-1.9087815585	 3.0904826503	 0.108546
H	-1.5250301409	-2.7939037053	 1.5795685649	 0.122854
H	-2.1477840683	 0.2454448363	 1.8086268784	 0.094314
56.1897	117.8308	186.2279	201.0185	233.2934	293.3413	362.7826	416.7014	469.8855	567.337	628.1098	684.1761	761.759	791.7207	814.2777	832.1593	844.102	936.5864	955.8423	981.4033	1011.2381	1043.6549	1057.4898	1067.196	1076.9312	1100.2286	1106.0611	1127.1171	1177.1182	1196.4642	1234.4004	1267.7171	1277.6941	1318.7749	1356.2502	1366.0639	1405.8532	1406.9072	1420.0185	1472.9469	1478.5861	1496.0864	1499.6179	1506.6568	1727.5417	2949.0538	3013.4775	3036.7029	3061.4717	3069.8761	3106.3798	3108.6383	3109.6714	3133.0249	3142.3022	3158.6152	3229.1926
CCC1=CCOC2CC12	CCC1=CCO[C@H]2C[C@@H]12	
InChI=1S/C8H12O/c1-2-6-3-4-9-8-5-7(6)8/h3,7-8H,2,4-5H2,1H3	InChI=1S/C8H12O/c1-2-6-3-4-9-8-5-7(6)8/h3,7-8H,2,4-5H2,1H3/t7-,8-/m0/s1
