18
gdb 66373	2.32406	1.42119	1.34402	3.4077	71.58	-0.2648	0.0117	0.2765	1070.2348	0.148488	-439.102498	-439.094129	-439.093185	-439.135162	32.074	
O	-0.057450599	 1.3976703808	-0.0086844493	-0.449837
C	 0.0209507461	-0.0182112361	 0.0282916241	 0.205768
C	-1.4217582433	-0.5515400858	 0.0561573204	-0.227863
C	-1.4497632373	-2.0729510448	-0.1447884506	-0.228453
C	-0.6408799811	-2.4617294533	-1.3823765541	-0.065246
O	 0.6896758142	-1.9637242602	-1.3118372599	-0.235712
C	 0.7293896063	-0.5607564386	-1.2395270861	-0.116578
C	 0.7583186937	-0.4533208315	 1.2355881625	 0.249935
N	 1.3564458244	-0.7517333466	 2.1785044322	-0.338549
H	 0.8304723014	 1.7609880331	 0.0894349169	 0.294882
H	-1.9053408261	-0.2550455438	 0.9904418581	 0.12577
H	-1.9484478594	-0.0453683633	-0.7614045622	 0.117311
H	-1.0262966056	-2.5747699474	 0.732361528	 0.132279
H	-2.4832410579	-2.4189521476	-0.2518679199	 0.108178
H	-0.5506254885	-3.5468323052	-1.4748894646	 0.11747
H	-1.1326295691	-2.0790915354	-2.2929586922	 0.091428
H	 0.2291949342	-0.0910962519	-2.1022965805	 0.103742
H	 1.7841733572	-0.2693913022	-1.245195143	 0.115476
107.6735	142.1156	211.4932	259.7146	303.679	327.1451	340.6243	405.8328	432.6858	456.155	553.419	594.554	649.1357	688.8331	846.0882	882.1652	903.4624	930.9743	997.7403	1029.8981	1043.8545	1108.7929	1119.4407	1144.858	1184.1105	1219.5352	1245.9892	1298.1438	1321.0296	1345.8449	1363.6023	1380.5843	1398.9059	1417.5102	1480.1034	1485.045	1490.9262	1504.2838	2350.1853	2965.0405	2979.1234	3044.6835	3045.2751	3085.2166	3088.9373	3099.7789	3104.7075	3799.7685
OC1(CCCOC1)C#N	O[C@]1(CCCOC1)C#N	
InChI=1S/C6H9NO2/c7-4-6(8)2-1-3-9-5-6/h8H,1-3,5H2	InChI=1S/C6H9NO2/c7-4-6(8)2-1-3-9-5-6/h8H,1-3,5H2/t6-/m1/s1
