17
gdb 91729	2.60871	1.68598	1.50957	3.7675	66.46	-0.267	0.0056	0.2726	941.7828	0.138805	-459.013822	-459.006923	-459.005979	-459.045028	27.995	
O	 0.1067670077	 1.4001650101	-0.0926421471	-0.441572
C	 0.0521708524	-0.0013099906	 0.0048807255	 0.158036
C	 0.6629037614	-0.6037172002	 1.318229962	-0.271088
C	-0.5355010485	-1.3815158854	 1.9414754045	-0.159973
C	-1.2215079153	-1.9438725536	 0.6777904725	-0.249749
C	-1.3916258238	-0.5506305964	 0.0683817039	 0.056512
O	-2.0423427114	 0.1912527396	 1.1421694595	-0.263627
C	-1.5444989364	-0.3092205493	 2.3297544921	 0.441001
O	-1.8743043384	 0.1151432907	 3.3952723506	-0.339911
H	-0.5656330203	 1.7537216443	 0.5037279317	 0.29384
H	 0.566428825	-0.3869966783	-0.8800093518	 0.096152
H	 1.4840671585	-1.292405726	 1.1034011809	 0.112805
H	 1.045303018	 0.1880082018	 1.965885761	 0.129671
H	-0.2948185626	-2.0576537583	 2.7582340784	 0.099323
H	-0.5777281561	-2.5982705646	 0.084569474	 0.115716
H	-2.1744864945	-2.4419489374	 0.8718142407	 0.12456
H	-1.9927226957	-0.4329300463	-0.8311388784	 0.098303
117.0306	204.6361	294.535	413.0918	421.2747	439.6834	475.8884	517.4598	587.8206	732.0312	757.4234	794.312	835.1869	851.8439	884.8601	930.7623	955.5904	967.3679	969.5841	1010.2397	1061.7556	1074.7925	1114.111	1156.2669	1176.9805	1199.5479	1224.6023	1274.8189	1296.3885	1306.657	1327.8149	1336.1335	1357.6396	1443.9318	1485.1044	1501.2513	1901.8776	3064.0502	3067.6522	3076.006	3121.6375	3124.0948	3145.7282	3153.3745	3775.3215
OC1CC2CC1OC2=O	O[C@H]1C[C@@H]2C[C@H]1OC2=O	
InChI=1S/C6H8O3/c7-4-1-3-2-5(4)9-6(3)8/h3-5,7H,1-2H2	InChI=1S/C6H8O3/c7-4-1-3-2-5(4)9-6(3)8/h3-5,7H,1-2H2/t3-,4+,5-/m1/s1
