16
gdb 11849	7.15462	1.05874	1.02832	2.0578	66.74	-0.2542	-0.0277	0.2265	1121.4801	0.129096	-383.714572	-383.707053	-383.706109	-383.747011	27.499	
O	 0.954404134	-0.2665452283	-0.2814779636	-0.250083
C	 0.4294166687	 0.7930310864	-0.0574351369	 0.163158
C	 1.143666691	 2.107881233	 0.0723965323	-0.064927
C	 0.5827712807	 3.2875073679	-0.7942408037	-0.341644
C	 0.6964652371	 4.171855588	 0.4474269462	 0.473096
C	 1.3345188795	 5.4808139736	 0.5847150778	-0.266021
O	-0.0877892672	 5.3116142102	 0.7131469185	-0.267054
C	 0.8172723195	 2.947795643	 1.3550815512	-0.341632
H	-0.677548456	 0.8710155766	 0.0756381213	 0.068976
H	 2.2145896072	 1.9558023914	-0.0684556464	 0.098201
H	 1.1466633695	 3.5618851096	-1.6875417885	 0.121559
H	-0.4656803987	 3.1250001782	-1.0675584432	 0.12216
H	 1.8575001311	 5.736405315	 1.5054397896	 0.120234
H	 1.6602349082	 6.0222020865	-0.3026282155	 0.120234
H	-0.1549812734	 2.6749237266	 1.780074921	 0.122169
H	 1.5653590687	 2.9553702724	 2.1497847996	 0.121574
65.6254	75.1107	258.5011	289.3762	318.8613	379.3815	400.6412	419.1873	600.6315	750.0339	820.8716	867.5318	877.071	888.2779	904.7477	961.5046	1038.8735	1039.8972	1074.311	1125.5795	1150.8452	1165.5654	1192.8768	1213.3328	1231.9948	1246.0317	1262.3825	1315.7168	1427.9821	1439.4943	1464.8736	1489.9204	1539.2487	1832.3426	2835.5153	3048.7089	3053.4337	3080.9551	3105.3312	3120.1028	3125.0224	3168.9287
O=CC1CC2(CO2)C1	O=C[C@H]1C[C@]2(CO2)C1	
InChI=1S/C6H8O2/c7-3-5-1-6(2-5)4-8-6/h3,5H,1-2,4H2	InChI=1S/C6H8O2/c7-3-5-1-6(2-5)4-8-6/h3,5H,1-2,4H2/t5-,6+
