20
gdb 108802	3.20064	1.07086	0.86062	3.594	82.66	-0.2098	0.004	0.2138	1399.8582	0.170563	-403.212352	-403.202842	-403.201898	-403.246935	35.014	
C	 0.0339651048	 1.5826856977	 0.2489213997	-0.372672
C	 0.0101239714	 0.0793568134	-0.0809873722	-0.29882
C	-1.3670245309	-0.4994483342	-0.133238351	 0.36579
C	-2.0540605997	-1.0127713085	-1.1623507782	-0.241481
C	-3.4207481261	-1.4491133735	-0.6965987683	-0.154405
C	-3.7859718257	-2.9209937984	-0.939757529	-0.387641
C	-3.3860915673	-1.1236609855	 0.8109971144	 0.408781
O	-4.2378650519	-1.3414898928	 1.6424374592	-0.379899
N	-2.1556911002	-0.5364059531	 1.0373089732	-0.378558
H	 1.0625928303	 1.9530578396	 0.2808376391	 0.121255
H	-0.5138372913	 2.1540362947	-0.5060028506	 0.129514
H	-0.4256758382	 1.790538524	 1.2202905981	 0.11829
H	 0.4894274275	-0.0959814452	-1.0487997868	 0.118946
H	 0.6052278629	-0.4642249398	 0.6661687151	 0.11112
H	-1.6903062509	-1.0934053244	-2.1764576305	 0.096898
H	-4.2073788905	-0.8201058459	-1.1379001734	 0.113912
H	-3.010377945	-3.5851979873	-0.5467097952	 0.120832
H	-4.7277047127	-3.1557468327	-0.4363685052	 0.139797
H	-3.8969799452	-3.1229837985	-2.0090158412	 0.11364
H	-1.843007481	-0.2817086399	 1.9599786028	 0.254699
63.1472	110.6131	115.8242	187.7469	223.969	232.0808	243.2981	316.7858	425.8409	473.1592	518.4454	567.7773	640.3172	684.6042	713.1953	762.6035	791.89	808.5994	913.3476	952.6611	1004.5063	1030.4471	1066.075	1081.926	1097.8583	1103.1661	1196.0768	1201.7356	1267.6647	1280.2923	1301.9239	1338.0749	1359.3358	1401.1061	1409.6684	1422.6187	1479.9097	1494.5416	1496.2793	1499.8691	1506.0124	1708.2012	1832.189	3008.512	3013.8712	3041.1545	3041.5064	3081.0412	3112.3846	3113.1049	3118.8846	3124.0401	3234.8237	3653.812
CCC1=CC(C)C(=O)N1	CCC1=C[C@@H](C)C(=O)N1	
InChI=1S/C7H11NO/c1-3-6-4-5(2)7(9)8-6/h4-5H,3H2,1-2H3,(H,8,9)	InChI=1S/C7H11NO/c1-3-6-4-5(2)7(9)8-6/h4-5H,3H2,1-2H3,(H,8,9)/t5-/m1/s1
