18
gdb 110047	2.37633	1.51957	1.05171	6.1123	68.32	-0.2472	0.0239	0.2712	1139.439	0.148917	-476.260665	-476.252013	-476.251069	-476.294001	32.516	
O	-0.0163476001	 1.4548664549	-0.1031373385	-0.432663
C	 0.0809878243	 0.0467718557	-0.0913389329	-0.072341
C	-1.3104233893	-0.5855245745	 0.0666818583	-0.14561
C	-1.4113017447	-2.1174586295	 0.0334321088	 0.075673
O	-0.2353628833	-2.6415005486	 0.6302187409	-0.422548
C	-2.6661247605	-2.4089143292	 0.9000121698	-0.186906
N	-2.7022036636	-1.2748997439	 1.8045961627	-0.310651
C	-1.9509114733	-0.2120775113	 1.4072749783	 0.446083
O	-1.8206494863	 0.8417413806	 2.0063665059	-0.409056
H	-0.4861860094	 1.6896317186	 0.7121949642	 0.295946
H	 0.5245829432	-0.258094186	-1.0450067532	 0.10055
H	 0.739970717	-0.3159570792	 0.7082564564	 0.10818
H	-1.9563606628	-0.167274755	-0.7164849215	 0.111198
H	-1.5382330495	-2.5050816779	-0.9851006299	 0.078377
H	-0.262714444	-3.6011495058	 0.5673028131	 0.288655
H	-3.5726241868	-2.471643074	 0.2812343565	 0.110055
H	-2.5547147859	-3.3545133167	 1.4413505787	 0.109265
H	-3.2560925249	-1.2376645581	 2.6451237324	 0.255793
79.5069	153.2644	171.1044	193.2528	251.1419	288.2506	349.0737	421.6525	445.1371	503.6036	523.5661	603.4967	673.9362	719.4574	771.0443	830.0128	864.8503	942.707	997.3639	1026.9791	1069.941	1082.3432	1109.758	1134.5755	1197.7385	1209.6105	1223.7751	1277.3469	1278.9085	1311.7594	1333.1996	1380.6443	1387.9863	1423.1271	1450.7812	1470.6794	1512.9155	1515.8826	1800.1202	2999.6428	3017.3217	3024.2931	3038.1488	3065.3044	3073.7105	3646.526	3698.4811	3823.0407
OCC1C(O)CNC1=O	OC[C@H]1[C@@H](O)CNC1=O	
InChI=1S/C5H9NO3/c7-2-3-4(8)1-6-5(3)9/h3-4,7-8H,1-2H2,(H,6,9)	InChI=1S/C5H9NO3/c7-2-3-4(8)1-6-5(3)9/h3-4,7-8H,1-2H2,(H,6,9)/t3-,4-/m0/s1
