19
gdb 16888	3.85304	1.78891	1.40279	1.1935	77.58	-0.2169	0.0223	0.2392	943.4571	0.167852	-327.925554	-327.918296	-327.917352	-327.956643	28.891	
C	 0.0498080458	 1.5296394954	 0.0047564978	-0.479286
C	-0.030338015	 0.0296416794	-0.0164906908	 0.30781
C	-0.0161907686	-0.6785144574	-1.1509100604	-0.115819
C	-0.0639975001	-2.1605172176	-1.1556602769	-0.069678
N	 0.9346484394	-2.8741278989	-0.3019555413	-0.340794
C	-0.4810634365	-2.8605198818	 0.0897692062	-0.020479
C	-0.8541053012	-2.0088149221	 1.2832144102	-0.216282
C	-0.0825357637	-0.6744134715	 1.3232140878	-0.297855
H	 0.9267354062	 1.8705708742	 0.5710900647	 0.124043
H	 0.115849496	 1.9477164954	-1.0035614234	 0.117272
H	-0.826481476	 1.9666052942	 0.5015856313	 0.119349
H	 0.0386235094	-0.1733140243	-2.1119013853	 0.073275
H	-0.3112609594	-2.6289597794	-2.1044566253	 0.076636
H	 1.164057165	-3.7683349806	-0.7293219845	 0.226048
H	-1.0475344482	-3.7834399413	-0.0213535695	 0.07703
H	-1.9316627684	-1.8069745662	 1.22480886	 0.099414
H	-0.6856047357	-2.5599805895	 2.2156055838	 0.098499
H	 0.943989975	-0.8656237499	 1.6587557606	 0.130329
H	-0.533703594	-0.0165876579	 2.0755508251	 0.090491
140.6315	181.2956	218.8999	324.9203	347.7698	390.261	472.8336	476.019	623.9707	683.2002	755.8146	770.6605	834.8883	843.7434	893.0355	916.9599	961.5761	983.9659	1014.8637	1036.7719	1048.4084	1083.6857	1125.7917	1145.7205	1173.0225	1198.1014	1218.2869	1253.1616	1286.8382	1333.0165	1357.4304	1395.9416	1404.2016	1414.0654	1455.0647	1474.9114	1479.4153	1488.0466	1490.5635	1727.8694	3010.1609	3021.1531	3029.1522	3054.5102	3056.0101	3067.5509	3107.0319	3118.4764	3138.3328	3157.9973	3492.4474
CC1=CC2NC2CC1	CC1=C[C@H]2N[C@H]2CC1	
InChI=1S/C7H11N/c1-5-2-3-6-7(4-5)8-6/h4,6-8H,2-3H2,1H3	InChI=1S/C7H11N/c1-5-2-3-6-7(4-5)8-6/h4,6-8H,2-3H2,1H3/t6-,7+/m0/s1
