15
gdb 52029	2.62691	0.83215	0.66019	1.7514	68.6	-0.2702	-0.0718	0.1984	1582.2578	0.109238	-453.941936	-453.932113	-453.931169	-453.979161	32.043	
O	-0.2434536577	 0.1358198082	 0.3904212489	-0.226264
C	-0.012332361	 1.185205741	-0.1466633965	 0.152694
C	 1.3197005734	 1.9139044369	-0.0500010648	-0.240577
N	 1.597015134	 2.6199161817	-1.2992131355	-0.328712
C	 2.7086228643	 3.5715423988	-1.264076141	-0.177556
C	 2.7317443413	 4.2563303307	-2.6512489746	 0.160459
O	 3.5958264588	 4.0550694817	-3.455276673	-0.218974
C	 2.487614112	 4.5923466659	-0.234563193	 0.292751
N	 2.3251535765	 5.4162000689	 0.5590356011	-0.30803
H	-0.7710510683	 1.7239376641	-0.7562696295	 0.09572
H	 1.208212973	 2.6606283946	 0.7486349631	 0.166501
H	 2.098094009	 1.2046749662	 0.2674641658	 0.125325
H	 1.7881950856	 1.9510554265	-2.039097698	 0.247002
H	 3.6986807279	 3.1179283394	-1.0982858494	 0.135432
H	 1.8510278712	 4.8989865453	-2.8475827436	 0.124231
30.1567	59.3589	74.5331	87.5052	131.387	208.8657	251.9899	326.3903	341.0101	468.6169	509.5898	532.4696	615.9283	733.6355	813.2427	943.238	961.4977	1023.4981	1043.7195	1083.2578	1137.9532	1144.5571	1241.5529	1253.4941	1337.7083	1347.8456	1402.0384	1408.8245	1471.8975	1509.7664	1843.7113	1847.7846	2360.5757	2898.1887	2948.3888	2987.1874	2999.7321	3050.8886	3517.8769
O=CCNC(C=O)C#N	O=CCN[C@@H](C=O)C#N	
InChI=1S/C5H6N2O2/c6-3-5(4-9)7-1-2-8/h2,4-5,7H,1H2	InChI=1S/C5H6N2O2/c6-3-5(4-9)7-1-2-8/h2,4-5,7H,1H2/t5-/m1/s1
