15
gdb 47616	2.43431	2.03086	1.21926	4.8347	60.75	-0.2601	-0.0124	0.2477	963.736	0.113836	-494.898657	-494.891537	-494.890593	-494.931088	26.167	
O	-0.0214849685	 0.1441745015	 0.6202556249	-0.314861
C	-0.0325260875	 1.2205438548	 0.0998400461	 0.418921
O	-1.205578274	 1.8086882777	-0.2501077896	-0.223048
C	-1.1619264312	 3.1155328768	-0.8389712153	 0.010026
O	-0.2751695971	 3.9577097031	-0.179789396	-0.231192
C	 1.0591166498	 3.5335805546	-0.3902593303	 0.040855
C	 1.9379455318	 3.656203479	 0.860322756	-0.09224
O	 2.0417105794	 2.2156189132	 0.9793465086	-0.27393
C	 1.2407196133	 2.0126561478	-0.2006918622	-0.043996
H	-0.9096659334	 3.0158863605	-1.9062474185	 0.107499
H	-2.1660015458	 3.5244018191	-0.725348118	 0.144398
H	 1.4555281636	 3.9572776685	-1.3194882228	 0.095705
H	 2.9170319302	 4.1227488366	 0.7096247955	 0.115977
H	 1.4298561074	 4.1111369421	 1.7164293536	 0.129328
H	 1.798027842	 1.4894222047	-0.987404282	 0.116558
53.6293	109.3457	254.3216	272.7226	395.1574	436.617	498.4772	517.8374	664.2958	743.6638	787.9628	847.6982	901.8941	952.4018	986.3887	1028.1476	1044.5453	1057.6325	1099.2145	1133.3365	1160.6463	1167.6437	1255.4506	1261.9592	1274.6086	1299.8857	1331.5206	1344.3812	1388.4396	1450.9484	1511.3792	1524.064	1870.2474	2985.5875	3032.6918	3038.3775	3051.8923	3096.7463	3136.3262
O=C1OCOC2COC12	O=C1OCO[C@H]2CO[C@@H]12	
InChI=1S/C5H6O4/c6-5-4-3(1-7-4)8-2-9-5/h3-4H,1-2H2	InChI=1S/C5H6O4/c6-5-4-3(1-7-4)8-2-9-5/h3-4H,1-2H2/t3-,4+/m0/s1
