23
gdb 122413	5.02715	0.65943	0.62402	2.3255	83.41	-0.254	0.0788	0.3328	1865.4493	0.204583	-425.408519	-425.398322	-425.397378	-425.444885	37.209	
C	-0.2272499605	 1.4227158007	-0.0779181023	-0.390767
C	 0.0429384205	-0.0724769052	 0.0683633693	 0.021951
C	 1.139220467	-0.6310704169	-0.8903834403	-0.269314
C	 2.1488397739	-0.56907426	 0.2717604523	 0.175713
C	 0.9625298538	-0.4501408099	 1.2706875329	-0.263268
O	 2.9912674733	-1.6913736638	 0.3596590921	-0.269914
C	 3.9339592381	-1.6349600938	 1.417858572	-0.082593
C	 4.8634172713	-2.8248346063	 1.2343958144	-0.057705
O	 5.5075378974	-2.7831614782	-0.0227696268	-0.422032
H	 0.7005052659	 2.0058846865	-0.0521553129	 0.114136
H	-0.7279621648	 1.6415648795	-1.0274692532	 0.115199
H	-0.8690103618	 1.7879925512	 0.7313654872	 0.114677
H	-0.9042790638	-0.6172482043	 0.0362412606	 0.072326
H	 0.9530887121	-1.6722520782	-1.1665215224	 0.10931
H	 1.3682948287	-0.0569167979	-1.7918597769	 0.096579
H	 2.7544145873	 0.3492393755	 0.2522224069	 0.067362
H	 1.0469377865	 0.2735244596	 2.086036279	 0.093123
H	 0.7152272616	-1.4320839055	 1.6839916873	 0.104441
H	 4.5084385186	-0.6963642697	 1.3625704151	 0.094482
H	 3.4345703147	-1.6767096059	 2.3985928348	 0.090494
H	 5.6433286599	-2.8084562865	 2.0028943653	 0.10618
H	 4.2842782984	-3.7539279875	 1.3604412782	 0.091285
H	 4.8073266717	-2.6098343934	-0.6635528425	 0.288334
38.9997	62.9046	74.2492	153.7827	172.0509	244.4175	281.9188	315.1325	345.9572	429.6561	436.0671	466.5703	512.586	683.8561	798.2165	818.531	871.9388	890.7536	904.5104	908.5262	948.7706	968.8824	1037.9546	1056.6276	1081.3795	1093.878	1133.7495	1136.8071	1152.8672	1192.4937	1209.8835	1235.5626	1249.758	1261.795	1270.3884	1273.0228	1301.1809	1364.0242	1375.1241	1385.5796	1411.2352	1425.0813	1443.3292	1464.9592	1489.6461	1497.8257	1498.9755	1500.3486	1509.5727	2969.6514	2976.0515	2986.5194	3013.1483	3024.1601	3050.9949	3055.9394	3064.8225	3077.4454	3092.957	3093.301	3110.0136	3116.5569	3788.5805
CC1CC(C1)OCCO	C[C@H]1C[C@@H](C1)OCCO	
InChI=1S/C7H14O2/c1-6-4-7(5-6)9-3-2-8/h6-8H,2-5H2,1H3	InChI=1S/C7H14O2/c1-6-4-7(5-6)9-3-2-8/h6-8H,2-5H2,1H3/t6-,7-
