15
gdb 68504	3.04144	1.33966	1.15192	1.4182	67.45	-0.2508	-0.0411	0.2096	1055.4569	0.110688	-457.728529	-457.720395	-457.719451	-457.761399	29.824	
O	 0.717392666	 0.984861965	 0.6150678547	-0.452613
C	 0.316515395	-0.2630531362	 0.2451247242	 0.255036
C	 0.5524884813	-1.5853082461	 1.0344805642	-0.283762
C	-0.275161997	-2.0542050056	-0.2214642661	-0.190963
C	-1.1921718739	-0.8068030111	-0.0278232085	-0.152475
C	-2.1694251569	-0.7431433761	 1.1100725085	 0.124504
O	-2.3236821379	-1.5815090747	 1.9639209687	-0.245925
C	 0.6346941545	-1.0978494064	-1.0060399973	 0.384421
O	 1.2511445756	-1.0052717742	-2.0221604121	-0.32758
H	 0.9593749448	 1.479552834	-0.177440929	 0.307092
H	 1.5861734627	-1.9285717666	 1.0983228317	 0.120568
H	 0.0255530001	-1.6769261732	 1.9800735037	 0.15399
H	-0.5981482	-3.0607868362	-0.4601212693	 0.116219
H	-1.6545618646	-0.3896855178	-0.9286023668	 0.101617
H	-2.7829635195	 0.1857330853	 1.1057777035	 0.089871
93.6558	144.2951	178.9638	183.0607	247.9013	286.6449	380.5449	431.8833	526.7454	641.4332	701.1485	730.1936	759.9574	787.2017	807.3668	890.9941	936.1264	996.6345	1009.6782	1030.9117	1074.8807	1106.4921	1126.1861	1146.5172	1165.1498	1218.2343	1306.3789	1377.478	1405.5868	1426.7831	1525.5348	1810.5851	1916.0391	2880.5101	3060.858	3094.2231	3190.7679	3199.674	3789.0004
OC12CC(C1C=O)C2=O	O[C@@]12C[C@@H]([C@H]1C=O)C2=O	
InChI=1S/C6H6O3/c7-2-4-3-1-6(4,9)5(3)8/h2-4,9H,1H2	InChI=1S/C6H6O3/c7-2-4-3-1-6(4,9)5(3)8/h2-4,9H,1H2/t3-,4+,6-/m0/s1
