14
gdb 28404	3.24144	1.46423	1.00931	1.8222	72.88	-0.1895	-0.0376	0.1519	1083.9683	0.101582	-470.038918	-470.030955	-470.03001	-470.071225	30.291	
N	 0.0373513197	 1.3336929419	-0.0043390082	-0.55161
C	-0.026028819	-0.0310873226	 0.0142388751	 0.334151
N	-1.1505224965	-0.6657977549	 0.0817286385	-0.329727
C	-1.1240676001	-2.046824335	 0.1650826999	-0.188209
C	 0.0339558481	-2.7255376517	 0.1717002149	 0.410179
O	 0.1727961982	-4.0594670966	 0.262490325	-0.411233
O	 1.2337461363	-2.0821362817	 0.0816186656	-0.260061
C	 1.2858372236	-0.7097063596	-0.0193351648	 0.347881
N	 2.3798245232	-0.0784725004	-0.1445179641	-0.540578
H	 0.9098339283	 1.7320767281	-0.314309319	 0.274648
H	-0.8158063892	 1.8183570915	-0.23052732	 0.259572
H	-2.0679636198	-2.5700041086	 0.2287946381	 0.119975
H	 1.1138130001	-4.2680868694	 0.2206013174	 0.307927
H	 3.1825626372	-0.7065845212	-0.1616839585	 0.227084
103.4095	164.2473	186.2988	321.0183	341.6171	384.7274	399.1142	461.4591	493.3356	504.4519	519.7444	583.7462	636.8147	717.7174	784.5181	799.898	831.6363	845.7555	981.5658	1041.365	1093.7728	1204.6954	1249.4504	1277.3991	1297.8933	1403.2512	1428.643	1585.4214	1663.7827	1695.2717	1747.9301	3224.6245	3499.5924	3586.9899	3717.0832	3811.1663
NC1=NC=C(O)OC1=N	NC1=C(OC(=C[N]1)O)[NH]	
InChI=1S/C4H5N3O2/c5-3-4(6)9-2(8)1-7-3/h1,6,8H,(H2,5,7)	InChI=1S/C4H5N3O2/c5-3-4(6)9-2(8)1-7-3/h1,6,8H,(H2,5,7)
