23
gdb 117706	3.79195	0.70632	0.69364	3.2345	83.08	-0.2409	-0.0195	0.2214	1748.2101	0.201417	-425.445866	-425.434499	-425.433555	-425.482819	40.825	
C	-0.054923173	 1.6367354044	 0.0982131863	-0.382955
C	 0.0251115543	 0.1186381507	-0.0876590443	-0.178816
C	-1.3531722869	-0.5519399339	-0.0412302653	-0.196741
C	-1.3381859343	-2.0947878053	-0.0089379521	 0.312385
C	-0.634278888	-2.6951043165	-1.2299762103	-0.400603
O	-0.5930572208	-2.5617333943	 1.1243626832	-0.45607
C	-2.7951310324	-2.6149632314	 0.0839864102	-0.304459
C	-2.8963221207	-4.1225453613	 0.1848231663	 0.152208
O	-3.6688780802	-4.7958995415	-0.4499204083	-0.248616
H	 0.9380724946	 2.094448682	 0.054183243	 0.114877
H	-0.6703744874	 2.1022043211	-0.6798441812	 0.11485
H	-0.4980043885	 1.8960814543	 1.0664302066	 0.111782
H	 0.5127916259	-0.1014996689	-1.044146081	 0.101797
H	 0.6600759006	-0.3218994893	 0.6889100411	 0.107646
H	-1.8881854838	-0.2047006658	 0.8563957876	 0.079524
H	-1.9595994127	-0.2197355461	-0.8937569574	 0.099132
H	 0.4115676797	-2.3838491304	-1.2637528896	 0.130271
H	-0.6551065334	-3.7878042237	-1.1886619267	 0.130361
H	-1.1268404017	-2.3787906198	-2.1540255598	 0.119715
H	-0.9487377912	-2.133333853	 1.9112315905	 0.277027
H	-3.2515785009	-2.1984660977	 0.9954783932	 0.106153
H	-3.397567344	-2.2804938078	-0.7657235288	 0.119193
H	-2.1957123852	-4.5804413157	 0.9150705067	 0.091339
56.8884	72.598	92.8379	114.9166	138.9136	228.8266	242.0326	255.859	309.4555	323.3494	337.0787	350.9767	401.5515	430.6025	499.0278	609.8489	746.9821	754.8122	826.1342	862.8494	897.438	931.2027	954.0699	978.0811	1042.8921	1053.6144	1079.5904	1099.0763	1142.6925	1170.2285	1192.2358	1231.5959	1263.8484	1306.1087	1319.4312	1325.7387	1387.0699	1393.3995	1412.4454	1419.7014	1423.9589	1451.3419	1477.7161	1487.7817	1494.9117	1500.0423	1504.84	1512.2985	1826.9898	2911.2154	2987.559	2999.8251	3028.2577	3037.7114	3041.3404	3050.4783	3072.0458	3094.3818	3098.5755	3103.2815	3118.7601	3136.8394	3795.6688
CCCC(C)(O)CC=O	CCC[C@@](C)(O)CC=O	
InChI=1S/C7H14O2/c1-3-4-7(2,9)5-6-8/h6,9H,3-5H2,1-2H3	InChI=1S/C7H14O2/c1-3-4-7(2,9)5-6-8/h6,9H,3-5H2,1-2H3/t7-/m1/s1
