16
gdb 128129	3.20892	1.24709	0.9121	2.3786	69.97	-0.1983	0.032	0.2303	1232.6773	0.124846	-471.189409	-471.180369	-471.179424	-471.223239	32.651	
C	 0.1323037548	 1.4692758969	 0.0130825337	-0.331199
N	-0.1500671525	 0.049343777	 0.1566931553	-0.385024
C	 0.5250057122	-0.7180062927	 1.0529519621	 0.54924
C	 0.6973694472	-2.0804111169	 1.1020990703	-0.136418
N	 0.2352738003	-3.00268555	 0.1285656338	-0.631315
C	 1.4286862186	-2.2446601142	 2.3086426604	 0.428888
O	 1.8418761186	-3.4303189345	 2.789504001	-0.426875
N	 1.6924725152	-1.1215695954	 2.932548392	-0.294147
O	 1.0944674275	-0.1216318542	 2.1057291045	-0.240854
H	 1.132670041	 1.673605981	-0.393946575	 0.125699
H	-0.6148112365	 1.90880778	-0.650934713	 0.130557
H	 0.055054445	 1.9560898943	 0.9872495691	 0.158442
H	-0.3733412905	-0.4636945154	-0.6845852256	 0.257596
H	-0.4861459329	-3.614253199	 0.4993489437	 0.24343
H	 0.9854868825	-3.6029758645	-0.1993551703	 0.243743
H	 2.3275763294	-3.2573158826	 3.6070824378	 0.308237
80.9664	121.4472	167.6445	186.8041	225.9114	247.2285	293.9069	354.9131	393.7475	460.0461	540.0228	577.6276	656.0883	684.0035	748.5667	757.9259	780.3941	846.8788	943.1483	1018.9567	1116.713	1152.4512	1178.3218	1220.328	1231.2582	1275.9256	1411.4369	1452.4502	1471.8772	1490.2062	1515.139	1553.0256	1596.6073	1658.517	1723.3759	3005.056	3099.2249	3140.699	3489.3188	3551.9035	3601.1558	3779.9981
CNC1=C(N)C(O)=NO1	CNc1c(N)c(O)no1	
InChI=1S/C4H7N3O2/c1-6-4-2(5)3(8)7-9-4/h6H,5H2,1H3,(H,7,8)	InChI=1S/C4H7N3O2/c1-6-4-2(5)3(8)7-9-4/h6H,5H2,1H3,(H,7,8)
