20
gdb 114782	3.41987	1.37884	1.31612	1.2691	78.03	-0.2107	0.0861	0.2968	1067.7956	0.172879	-403.091123	-403.083538	-403.082594	-403.12317	30.069	
C	 0.0488989808	 1.3969197774	 0.0638977558	-0.236398
O	-0.1294773767	 0.0058094566	-0.059797266	-0.241438
C	 0.5872402512	-0.5686182257	-1.1450770747	 0.099187
C	 2.0933036974	-0.8494443337	-0.8401266466	-0.200415
N	 2.204260793	-2.2878721553	-0.5328820493	-0.125688
C	 1.2956267343	-2.622145635	 0.6337405753	-0.181308
C	 0.2033374391	-3.0303147217	-0.3410902887	-0.076298
C	 0.0691202181	-1.9677298415	-1.4314090425	-0.071328
C	 1.2170605908	-2.9350793194	-1.4523180638	-0.04869
H	 1.0924429498	 1.6725579712	 0.2808606855	 0.10411
H	-0.2598282371	 1.9279108375	-0.8509574902	 0.102888
H	-0.5779755702	 1.7321842814	 0.8940571824	 0.126379
H	 0.4722653297	 0.0804965894	-2.0277957628	 0.05856
H	 2.7042583859	-0.6388304834	-1.7251379468	 0.100952
H	 2.4717078828	-0.2466446126	-0.0094556652	 0.106718
H	 1.7078072592	-3.4677112844	 1.1922881716	 0.103252
H	 1.0899596071	-1.7892503035	 1.3114460403	 0.113195
H	-0.5740658456	-3.7684314622	-0.1850692533	 0.087579
H	-0.7583824477	-2.1063182721	-2.1172231517	 0.088453
H	 1.5108240682	-3.5989027031	-2.2554222895	 0.090289
105.2037	140.6964	184.639	252.6286	354.4905	409.9633	435.7501	500.4461	685.7009	702.8279	768.5746	805.871	819.1935	832.3899	895.8623	919.34	961.7008	971.8034	995.6008	1011.6857	1029.7537	1066.4652	1073.0672	1075.6857	1112.3306	1124.3496	1147.3314	1182.8257	1202.5532	1219.1736	1230.9917	1261.4418	1285.6658	1298.7962	1315.5934	1345.7583	1390.3737	1395.6711	1474.4195	1478.5721	1488.0564	1506.5741	1511.0337	2965.2262	2973.301	3014.3777	3039.9021	3047.4211	3096.6261	3105.2736	3110.7284	3179.5976	3183.4633	3198.4463
COC1CN2CC3C1C23	CO[C@H]1CN2C[C@H]3[C@@H]1[C@@H]23	
InChI=1S/C7H11NO/c1-9-5-3-8-2-4-6(5)7(4)8/h4-7H,2-3H2,1H3	InChI=1S/C7H11NO/c1-9-5-3-8-2-4-6(5)7(4)8/h4-7H,2-3H2,1H3/t4-,5-,6-,7-/m0/s1
