13
gdb 19027	4.85997	2.16244	1.82361	3.165	66.55	-0.2394	-0.084	0.1555	705.7404	0.096175	-361.357259	-361.351633	-361.350688	-361.386794	22.491	
O	-0.0780368833	 0.0895669208	 0.4334314088	-0.317041
C	-0.0726369913	 1.222062318	 0.0256903693	 0.38839
C	-1.2230862722	 2.1709723862	-0.1744960545	-0.254654
C	-0.6638310174	 3.3560037522	-0.5255902647	 0.070965
C	-0.1413416882	 4.2893434581	 0.5497421441	-0.170923
N	 1.2294683433	 3.6264404055	 0.2665297489	-0.144404
C	 0.7499663221	 3.2086671397	-1.0608501765	-0.077264
C	 1.1551167666	 2.1168979964	-0.1455722666	-0.135924
H	-2.0656492642	 2.0822537702	 0.5051780453	 0.123381
H	 0.0056713591	 5.3392953946	 0.2874941684	 0.139731
H	-0.5497079131	 4.1813230136	 1.5571459693	 0.132261
H	 1.1964169616	 3.5097107664	-2.0009416954	 0.119415
H	 2.150585447	 1.6895802885	-0.1172090863	 0.126068
146.8005	380.0309	399.0666	418.0283	579.8349	618.9704	692.9503	720.1792	747.7356	794.4444	821.0759	866.5701	881.4671	938.0354	999.956	1023.1546	1054.6023	1060.4765	1107.2223	1124.2131	1177.6482	1217.1778	1241.3691	1276.1723	1295.2308	1497.684	1552.8713	1811.9022	3067.7606	3137.2625	3177.5856	3185.4929	3203.073
O=C1C=C2CN3C2C13	O=C1[CH][C]2CN3[C@H]2[C@H]13	
InChI=1S/C6H5NO/c8-4-1-3-2-7-5(3)6(4)7/h1,5-6H,2H2	InChI=1S/C6H5NO/c8-4-1-3-2-7-5(3)6(4)7/h1,5-6H,2H2/t5-,6+,7?/m1/s1
