19
gdb 61869	2.24765	1.00482	0.78484	1.6514	73.51	-0.2502	-0.0233	0.2269	1477.5067	0.157286	-456.399418	-456.389013	-456.388069	-456.436037	36.713	
C	-0.0915228217	 1.6207663578	 0.0508341526	-0.398938
C	 0.0194577682	 0.0946315773	-0.0433032464	 0.045932
C	 0.9034323103	-0.4976374187	 1.0642186217	-0.300878
C	 1.0405261638	-1.9994650171	 0.930168323	 0.167477
O	 0.8633271867	-2.7879175501	 1.8221856191	-0.244421
N	-1.2817768417	-0.5721617407	-0.0060135697	-0.340536
C	-2.0812969247	-0.5827507762	-1.1331686607	 0.459654
N	-3.3634382128	-1.0658114222	-0.9065498436	-0.567942
O	-1.7033145759	-0.192330839	-2.2223793603	-0.392862
H	 0.8954978601	 2.0889215237	-0.0219357085	 0.11645
H	-0.7117167392	 1.9950619413	-0.7666969397	 0.148513
H	-0.5414881613	 1.9253091475	 1.0025912051	 0.109221
H	 0.4456918732	-0.1585983159	-1.019054197	 0.122203
H	 1.9058190441	-0.0548935498	 0.9894292076	 0.127735
H	 0.5140164412	-0.2679052343	 2.0625133026	 0.114239
H	 1.3344446302	-2.3410222093	-0.0894882889	 0.079137
H	-1.7489757608	-0.5908846646	 0.8891706673	 0.241213
H	-3.476826517	-1.7695837561	-0.191923164	 0.251726
H	-3.8527215125	-1.2718430535	-1.7645245101	 0.262077
46.0421	52.8347	97.985	111.8709	184.8368	193.1923	254.7551	332.5109	391.0887	397.4776	436.0162	492.2083	503.8869	522.9624	569.6674	655.7108	778.0362	786.3048	895.8697	927.7552	972.587	996.7512	1062.3259	1094.3044	1117.6667	1154.7091	1176.516	1229.5895	1286.1654	1314.6507	1363.1731	1393.9651	1404.9171	1429.4582	1459.9942	1486.9842	1502.0807	1530.7214	1627.4326	1799.0208	1837.1888	2865.48	3025.6585	3033.9083	3067.6909	3083.5286	3103.6123	3131.1724	3572.0538	3600.1466	3686.0304
CC(CC=O)NC(N)=O	C[C@@H](CC=O)NC(=O)N	
InChI=1S/C5H10N2O2/c1-4(2-3-8)7-5(6)9/h3-4H,2H2,1H3,(H3,6,7,9)	InChI=1S/C5H10N2O2/c1-4(2-3-8)7-5(6)9/h3-4H,2H2,1H3,(H3,6,7,9)/t4-/m0/s1
