16
gdb 16128	3.93991	1.83279	1.48736	2.9503	70.76	-0.2419	-0.0179	0.224	859.258	0.13126	-346.617443	-346.610704	-346.60976	-346.648258	26.229	
O	-0.11994629	 0.0324427071	 0.1297313592	-0.272614
C	 0.0216458732	 1.2168511867	-0.0608618692	 0.085034
C	 1.313038315	 1.92766763	-0.0308320526	 0.252924
C	 1.2953877939	 3.4205912544	 0.251061445	-0.325732
C	 1.6214430929	 2.9697956315	-1.1385364564	-0.111913
C	 3.065174583	 2.756857771	-1.4479807995	-0.073735
C	 3.6089512959	 1.8047461502	-0.6865810927	-0.076022
C	 2.6001375743	 1.1516594072	 0.2323671876	-0.346016
H	-0.8534012759	 1.8711050385	-0.2869779971	 0.062578
H	 0.3202380859	 3.8675884466	 0.4217006076	 0.121323
H	 2.0955860296	 3.8188518512	 0.8658533722	 0.126235
H	 0.909973086	 3.1691520281	-1.9332011105	 0.10177
H	 3.5857878608	 3.344487017	-2.1951438913	 0.102618
H	 4.6542183398	 1.5177237458	-0.6970061043	 0.100976
H	 2.9049259011	 1.1987053203	 1.2851963184	 0.11583
H	 2.4501092245	 0.0901854145	 0.0015938236	 0.136746
109.8365	214.7898	239.3602	344.0624	365.6624	490.0038	496.6458	656.4032	726.9453	746.0119	769.3443	832.5011	878.1783	931.7939	951.6614	958.7976	991.5377	1016.3082	1049.0676	1055.4636	1079.015	1083.559	1143.3378	1167.4156	1248.6018	1272.8273	1332.5488	1353.1269	1392.1761	1437.7874	1469.8755	1483.8429	1670.1903	1807.3223	2850.1211	3032.0938	3063.1742	3122.237	3164.802	3190.1536	3213.4913	3214.4144
O=CC12CC1C=CC2	O=C[C@]12C[C@H]1C=CC2	
InChI=1S/C7H8O/c8-5-7-3-1-2-6(7)4-7/h1-2,5-6H,3-4H2	InChI=1S/C7H8O/c8-5-7-3-1-2-6(7)4-7/h1-2,5-6H,3-4H2/t6-,7+/m1/s1
