15
gdb 44661	3.02424	1.96563	1.75768	4.0854	69.11	-0.241	-0.0289	0.2121	824.351	0.115807	-416.792611	-416.786608	-416.785664	-416.822874	24.826	
N	 0.0047807086	 1.1106882402	 0.4691387179	-0.534712
C	 0.0080649305	-0.0662793469	 0.0234664576	 0.437264
O	 1.1223906333	-0.7752395722	-0.3725042087	-0.248044
C	 0.762789034	-2.1824155895	-0.3221020578	-0.003987
C	 0.8285909378	-2.5734573146	 1.1464571354	-0.087326
C	-0.3677769469	-2.3928807607	 1.7136857868	-0.072693
C	-1.397541039	-2.0466206327	 0.6873578171	-0.069334
C	-0.7442739435	-2.153343084	-0.6362222617	-0.061266
N	-1.1734058956	-0.8304337561	-0.2008321654	-0.153195
H	 0.9608864519	 1.456966756	 0.5440588614	 0.228491
H	 1.4085451537	-2.7171546389	-1.016015405	 0.099682
H	 1.7644543028	-2.7565728764	 1.6590781252	 0.120067
H	-0.5912655486	-2.4517427983	 2.7713526936	 0.11881
H	-2.4483730084	-2.248763274	 0.8546682349	 0.114891
H	-1.1748829705	-2.5839460618	-1.5331555713	 0.111351
129.9129	269.8354	397.0742	464.8596	538.9558	644.7018	673.3271	689.7941	757.9567	772.1787	819.4756	844.6307	858.2601	871.6334	915.6159	918.5792	954.3997	973.5085	983.9071	1000.162	1035.4515	1049.8406	1109.0136	1127.279	1213.7471	1281.1874	1283.3981	1289.5072	1340.3464	1363.909	1378.6067	1651.6667	1780.8715	3139.5393	3174.4353	3194.0707	3208.2347	3231.0072	3502.7156
N=C1OC2C=CC3C2N13	[NH][C]1O[C@H]2C=C[C@@H]3[C@H]2N13	
InChI=1S/C6H6N2O/c7-6-8-3-1-2-4(9-6)5(3)8/h1-5,7H	InChI=1S/C6H6N2O/c7-6-8-3-1-2-4(9-6)5(3)8/h1-5,7H/t3-,4+,5-,8?/m1/s1
