14
gdb 5743	4.10328	2.15442	1.4385	2.6559	64.35	-0.1957	0.0585	0.2542	816.2603	0.109978	-378.723978	-378.71755	-378.716606	-378.754766	24.15	
O	 0.0586043724	 1.3745894625	-0.0430369722	-0.427074
C	 0.0891075933	 0.0345981494	 0.0661641001	 0.414627
N	 1.1325334565	-0.7474465809	-0.0938712201	-0.375881
C	 0.6939551566	-2.0547802553	 0.1151390078	-0.237224
C	-0.6399977262	-2.0177200837	 0.4028943563	 0.289684
C	-2.0514672867	-2.4758850511	 0.7513812688	-0.37759
C	-2.4291696258	-0.9449710991	 0.7007846373	-0.168796
N	-1.0097526081	-0.6912586836	 0.3689945126	-0.064797
H	 0.9594932191	 1.6428037143	-0.2636268308	 0.311959
H	 1.3747666112	-2.8867216395	 0.0382245808	 0.107112
H	-2.5571403816	-3.0889665884	 0.0015039119	 0.128623
H	-2.178447448	-2.9381816993	 1.7332344898	 0.128654
H	-3.1207829885	-0.6536010307	-0.0926968166	 0.135361
H	-2.740493164	-0.5023696247	 1.6494959043	 0.135344
82.8806	193.3471	298.1232	349.9018	405.4991	550.6204	635.7467	687.5437	690.7881	716.5347	794.0801	814.557	846.2838	904.5007	1053.2691	1054.0296	1104.3198	1139.738	1185.2297	1190.1314	1219.9856	1245.5698	1271.9546	1301.9408	1373.9377	1484.6444	1502.4601	1535.9521	1585.5463	1609.0517	3066.0588	3071.5812	3109.5712	3129.6895	3265.1562	3804.6951
OC1=NC=C2CCN12	Oc1ncc2CCn12	
InChI=1S/C5H6N2O/c8-5-6-3-4-1-2-7(4)5/h3H,1-2H2,(H,6,8)	InChI=1S/C5H6N2O/c8-5-6-3-4-1-2-7(4)5/h3H,1-2H2,(H,6,8)
