20
gdb 8179	2.66949	2.46617	1.69669	1.5814	73.69	-0.2376	0.0846	0.3223	869.4833	0.177662	-348.999745	-348.992122	-348.991178	-349.031002	30.44	
C	-0.0832394426	 1.5642387776	-0.0147355777	-0.420626
C	 0.0749428892	 0.0458678453	 0.0253496377	 0.014771
C	 1.0247581691	-0.5677304004	-1.0567883439	-0.241489
C	 1.9502437201	-1.3383654666	-0.0948198289	 0.081153
C	 2.2981763229	-0.30341048	 0.9914290762	-0.273784
C	 0.7923712806	-0.5454526111	 1.2746053656	 0.414322
C	 0.1564705972	-0.4032123877	 2.628480586	-0.50154
O	 0.9952497998	-1.935857285	 0.8357047052	-0.334735
H	 0.8815943859	 2.0777844094	 0.0583822751	 0.113969
H	-0.5516023241	 1.8811729383	-0.952418444	 0.118235
H	-0.7160304301	 1.923377301	 0.8042546269	 0.114422
H	-0.9141210557	-0.4199345222	-0.0357548222	 0.075601
H	 0.5075494018	-1.2383440208	-1.7463239296	 0.103444
H	 1.5561756679	 0.1909971273	-1.64036002	 0.092627
H	 2.673422519	-2.0435435158	-0.5046036214	 0.073745
H	 2.9242354296	-0.7281763501	 1.777325677	 0.104702
H	 2.6467544745	 0.6903624667	 0.698377548	 0.090037
H	 0.0907717208	 0.6516509777	 2.9139425493	 0.122498
H	-0.8574407851	-0.8178504166	 2.6214414388	 0.126759
H	 0.7380929793	-0.9311725771	 3.3890446319	 0.125891
162.1144	192.1709	214.9449	234.6137	314.1896	346.8641	418.5105	503.2798	545.7049	603.2579	688.1447	785.6244	821.0205	844.2265	865.4015	893.2958	932.6932	937.663	983.0913	1011.496	1025.5102	1078.728	1090.7667	1105.9155	1147.9022	1176.6285	1200.5414	1223.871	1250.6617	1282.3634	1292.5201	1308.5143	1348.0861	1365.6365	1409.8094	1415.8868	1480.0724	1482.3628	1491.4886	1495.9329	1497.5899	1504.2671	3028.9056	3036.4935	3047.4387	3053.7735	3064.1582	3093.7507	3097.8999	3104.6545	3110.1492	3116.4165	3120.7494	3136.7444
CC1CC2CC1(C)O2	C[C@H]1C[C@H]2C[C@]1(C)O2	
InChI=1S/C7H12O/c1-5-3-6-4-7(5,2)8-6/h5-6H,3-4H2,1-2H3	InChI=1S/C7H12O/c1-5-3-6-4-7(5,2)8-6/h5-6H,3-4H2,1-2H3/t5-,6-,7-/m0/s1
