15
gdb 28836	3.428	1.37423	0.99532	3.0815	89.46	-0.2051	-0.0731	0.132	1126.1229	0.114509	-412.993729	-412.986006	-412.985062	-413.026511	29.347	
N	 0.0531208665	 1.3553627071	-0.2434671623	-0.530036
C	-0.0380689225	 0.0044357817	-0.0268155344	 0.366089
C	-1.2721891273	-0.6125993699	 0.0335951267	-0.072418
N	-1.5831826485	-1.9237282097	 0.1662066622	-0.227621
C	-0.7896944046	-2.9399745557	 0.1298633827	-0.068936
C	 0.6611287737	-3.0093326251	-0.0759471399	 0.21971
N	 1.3125358985	-4.0893669586	-0.3420802099	-0.500001
C	 1.4946989773	-1.8075312088	 0.1378885866	 0.040077
N	 1.2125754861	-0.5579239538	 0.1452576819	-0.308844
H	 0.9245163092	 1.7832537702	 0.0243491436	 0.266574
H	-0.7754347703	 1.9211457703	-0.1654610649	 0.263611
H	-2.1400901975	 0.0441507983	-0.0046555254	 0.090673
H	-1.2609353673	-3.9180684369	 0.2642602347	 0.103898
H	 0.6661158607	-4.8767527304	-0.4465160933	 0.218885
H	 2.5425400461	-2.0632743688	 0.3083183418	 0.13834
38.1733	135.9695	323.5911	342.1946	359.9733	401.7382	416.4848	447.4521	456.6687	503.6202	612.366	679.7334	734.0506	760.2231	846.2456	871.3972	878.6602	906.1429	942.8269	1005.8182	1054.2153	1137.2851	1218.0037	1332.9388	1384.1817	1403.553	1429.4407	1446.4728	1535.646	1618.3931	1628.3601	1646.9987	1697.5581	3077.9106	3115.6469	3125.4183	3426.5451	3598.2582	3723.2812
NC1=CN=CC(=N)C=N1	NC1=CN=C[C]([NH])C=N1	
InChI=1S/C5H6N4/c6-4-1-8-3-5(7)9-2-4/h1-3,6H,7H2	InChI=1S/C5H6N4/c6-4-1-8-3-5(7)9-2-4/h1-3,6H,7H2
