13
gdb 25273	3.31093	1.78547	1.16854	2.4183	65.38	-0.2273	-0.0507	0.1767	945.4043	0.092039	-452.795577	-452.789208	-452.788264	-452.826578	24.114	
O	-0.0331037211	-0.0397739581	 0.0034117007	-0.324834
C	-0.0300285417	 1.1582308833	 0.0095551916	 0.403408
C	-1.2324298284	 2.1197207322	 0.0322479474	-0.229783
O	-0.7047792386	 3.4576018693	 0.031102643	-0.273698
C	 0.6425441204	 3.3449976189	 0.0104931497	 0.396626
C	 1.7532249045	 4.1256291791	-0.0020987996	-0.220671
N	 2.8735940767	 3.2875225328	-0.0230180984	-0.2506
C	 2.450254656	 2.0574129396	-0.023037757	 0.007037
N	 1.0611201688	 2.0272357761	-0.0023880207	-0.131678
H	-1.860949535	 1.969567772	-0.8503999914	 0.166387
H	-1.8343975843	 1.9606140621	 0.9316790514	 0.166376
H	 1.843161533	 5.1981146833	 0.0019935392	 0.130332
H	 3.0454137996	 1.1590146796	-0.0364794758	 0.161099
141.319	151.46	302.1886	306.5978	551.1103	560.556	643.4029	662.016	679.3642	685.8257	742.6774	783.4317	804.5141	942.378	1007.0837	1026.4642	1054.1232	1093.9357	1162.1733	1198.5511	1240.4119	1263.2086	1327.9502	1380.9238	1429.6307	1475.9442	1519.0437	1650.5735	1875.4164	3063.8233	3112.7168	3277.644	3283.9099
O=C1COC2=CN=CN12	O=C1COc2cncn12	
InChI=1S/C5H4N2O2/c8-4-2-9-5-1-6-3-7(4)5/h1,3H,2H2	InChI=1S/C5H4N2O2/c8-4-2-9-5-1-6-3-7(4)5/h1,3H,2H2
