22
gdb 63653	4.00893	0.79586	0.76537	2.0937	83.34	-0.2291	0.0806	0.3097	1594.4492	0.19181	-404.298657	-404.288688	-404.287744	-404.334029	36.737	
C	-0.130132269	 1.534349907	-0.2802021032	-0.453927
C	 0.0824419259	 0.0490552796	-0.0488812922	 0.340888
C	-0.8987458016	-0.839390964	-0.7891541846	-0.4354
C	 1.4648005627	-0.4534272142	 0.2174587223	-0.294186
N	 0.4575260861	-0.4601604235	 1.2764590877	-0.116894
C	 0.636256071	 0.4426216079	 2.4050237101	-0.180665
C	 1.2601707196	-0.315866376	 3.5554554488	 0.102992
C	 2.6970831548	-0.2459598501	 3.8452607732	-0.169442
O	 1.7509863946	 0.47684954	 4.6364011594	-0.24039
H	 0.6203097946	 2.1516807174	 0.2177885926	 0.120125
H	-0.0821776496	 1.7562257773	-1.3516302816	 0.121398
H	-1.1194638717	 1.8478470456	 0.0734794589	 0.120964
H	-0.8100129462	-0.7018078071	-1.8728279994	 0.11192
H	-0.7185007236	-1.8906715004	-0.5534086258	 0.123867
H	-1.9303993273	-0.6010402024	-0.5052566971	 0.115174
H	 1.7859552353	-1.4268003565	-0.1464015524	 0.108543
H	 2.2606607124	 0.2890151341	 0.2800613196	 0.100584
H	 1.2596091603	 1.3250317623	 2.1896785472	 0.090808
H	-0.350414253	 0.8083710443	 2.715999044	 0.110843
H	 0.7196959457	-1.2138633305	 3.855242181	 0.098815
H	 3.1912629421	-1.0756398866	 4.3485982165	 0.115268
H	 3.3430994468	 0.3666911357	 3.2170124749	 0.108715
54.9981	69.8422	121.478	183.5228	191.9865	234.552	263.1277	332.5932	370.5576	395.1699	426.5381	475.1711	498.9701	702.3163	786.7342	845.3073	878.5902	898.1774	905.1304	921.7555	960.3509	1009.4925	1015.6183	1030.3279	1076.3577	1112.0011	1121.9995	1142.7658	1152.8173	1161.7386	1177.5382	1206.1014	1259.918	1280.5775	1289.0742	1362.3114	1385.9029	1409.0314	1420.9187	1444.9126	1478.0336	1486.1154	1490.078	1498.7935	1505.2585	1517.0941	1530.4613	2972.5593	3027.0383	3033.2291	3046.881	3079.0518	3081.1161	3086.4163	3091.0642	3114.8075	3123.4811	3125.0648	3164.5204	3167.47
CC1(C)CN1CC1CO1	CC1(C)CN1C[C@H]1CO1	
InChI=1S/C7H13NO/c1-7(2)5-8(7)3-6-4-9-6/h6H,3-5H2,1-2H3	InChI=1S/C7H13NO/c1-7(2)5-8(7)3-6-4-9-6/h6H,3-5H2,1-2H3/t6-,8?/m0/s1
