17
gdb 17775	5.86541	1.16563	1.13999	3.1308	70.01	-0.2312	-0.0214	0.2098	1073.238	0.141553	-363.784858	-363.7776	-363.776656	-363.817253	27.054	
O	 1.6297612965	 2.6324955247	 2.5449583941	-0.240368
C	 1.2744652194	 2.9453020513	 1.4388242408	 0.1607
C	 1.4846245124	 2.0925847626	 0.1962459364	-0.251217
N	 1.5602802483	 2.9535982513	-0.9767654745	-0.117796
C	 1.7586329044	 2.3225768896	-2.3449057076	-0.005016
C	 2.2243301808	 3.7266366029	-2.8101438846	-0.205918
C	 2.9299837616	 3.4166857801	-1.465301825	-0.01477
C	 3.2431581482	 1.9942558026	-2.0147261947	-0.237445
H	 0.7402063251	 3.8997504381	 1.2340669128	 0.085434
H	 2.3251026064	 1.4106532009	 0.387099413	 0.112404
H	 0.582275912	 1.4702284496	 0.094486825	 0.129827
H	 0.9966214865	 1.679031009	-2.7885743945	 0.08348
H	 2.8545068076	 3.7670627593	-3.699394244	 0.098349
H	 1.4669490764	 4.5096272207	-2.7755008848	 0.107468
H	 3.5611235535	 4.0736270544	-0.8646522876	 0.089205
H	 3.4353271343	 1.2022905877	-1.2912953896	 0.106466
H	 3.9394058566	 1.9290701053	-2.8549969354	 0.099197
56.7502	81.5685	170.1172	313.2897	371.3507	446.7105	557.2389	628.2366	704.7373	765.9565	786.5148	835.8249	879.3599	902.912	905.6482	995.957	1001.1347	1046.3531	1062.7928	1082.0387	1104.9808	1122.4918	1129.5473	1176.7662	1186.2401	1192.9276	1222.9639	1253.5175	1264.0814	1280.2408	1329.4931	1400.5409	1452.3014	1482.557	1527.5701	1837.5925	2892.3778	2991.6615	3032.2274	3068.0546	3081.4308	3098.1284	3107.9868	3141.6619	3162.953
O=CCN1C2CC1C2	O=CCN1[C@H]2C[C@@H]1C2	
InChI=1S/C6H9NO/c8-2-1-7-5-3-6(7)4-5/h2,5-6H,1,3-4H2	InChI=1S/C6H9NO/c8-2-1-7-5-3-6(7)4-5/h2,5-6H,1,3-4H2/t5-,6+
