22
gdb 80922	2.65561	1.41393	1.25344	1.4023	87.33	-0.2341	0.0851	0.3192	1152.11	0.194159	-367.139119	-367.130268	-367.129324	-367.171926	35.062	
C	-0.1669024428	 1.5751926847	-0.0128174001	-0.449185
C	 0.0188535378	 0.0650612902	 0.0137902416	 0.032792
C	 1.1916559255	-0.6323600421	-0.7563021755	-0.166777
C	 2.1600739937	-0.1447785803	 0.3669478273	-0.280835
C	 0.8815739687	-0.6414136363	 1.126354051	 0.24971
C	 0.6419101934	-0.6749269613	 2.6101758892	-0.522389
C	 0.9236762197	-1.8386668875	 0.1534256476	 0.425103
C	 0.1663906111	-3.0865048049	 0.0067371637	-0.36187
N	 1.6303285886	-3.0886225833	 0.3276302881	-0.414084
H	 0.7609145893	 2.1340014644	 0.1307354201	 0.117935
H	-0.5963157209	 1.8899066474	-0.9705179863	 0.116145
H	-0.8648053948	 1.8869398047	 0.7725369464	 0.117199
H	-0.9479065633	-0.4271434891	-0.1467447778	 0.061774
H	 1.3682084681	-0.6357834479	-1.833576917	 0.064514
H	 3.0633412659	-0.7401885831	 0.5197266314	 0.099234
H	 2.3840509567	 0.9218551261	 0.4076876012	 0.088766
H	 0.7069592427	 0.3270787106	 3.0478461494	 0.117312
H	-0.3518019184	-1.076336427	 2.8392351751	 0.116648
H	 1.3831604003	-1.3103462792	 3.1061420055	 0.132795
H	-0.4672857492	-3.4585439196	 0.8078216377	 0.117299
H	-0.1402632175	-3.3973540159	-0.9894342648	 0.110187
H	 2.1626923855	-3.3250967504	-0.5072111138	 0.227727
165.3923	170.28	182.0102	191.1494	203.7393	243.2717	337.012	374.4877	448.4628	467.0495	597.4834	634.283	658.1735	736.0616	793.2855	794.7337	884.4443	897.3852	926.4082	950.6274	966.4554	1003.897	1011.2298	1022.9994	1042.4847	1093.416	1107.9916	1108.6518	1133.6367	1157.8798	1183.9157	1197.459	1209.6333	1236.3244	1246.8116	1257.5023	1331.5679	1401.5236	1407.3005	1416.5662	1447.7212	1487.7512	1491.4357	1496.7287	1497.7539	1518.5444	1542.7283	3026.6269	3028.4317	3035.1491	3069.4253	3086.8546	3091.4296	3096.2105	3099.7061	3100.2432	3115.8759	3135.0042	3181.9716	3483.2088
CC1C2CC1(C)C21CN1	C[C@H]1[C@H]2C[C@]1(C)[C@]12CN1	
InChI=1S/C8H13N/c1-5-6-3-7(5,2)8(6)4-9-8/h5-6,9H,3-4H2,1-2H3	InChI=1S/C8H13N/c1-5-6-3-7(5,2)8(6)4-9-8/h5-6,9H,3-4H2,1-2H3/t5-,6+,7-,8+/m0/s1
