18
gdb 12370	2.96793	2.03476	1.40429	2.714	68.79	-0.2508	0.0032	0.2539	909.8828	0.155415	-384.954299	-384.946782	-384.945837	-384.985705	29.691	
O	 0.0423887218	 1.437561776	 0.0318306519	-0.449233
C	 0.0094878924	 0.025099814	 0.0241667222	 0.132163
C	-1.4224726232	-0.5217020626	 0.0287561089	-0.231291
C	-1.4188404418	-2.0545424454	 0.107943756	-0.262568
C	-0.4300557295	-2.6623669903	-0.8510817511	-0.041694
C	 0.5621412567	-1.9789938915	-1.4256504082	-0.105533
C	 0.796380099	-0.5130924402	-1.1876244712	 0.060625
O	 0.4759839682	 0.265311776	-2.3592796793	-0.448268
H	 0.0280039914	 1.6930532868	-0.9016192199	 0.281818
H	 0.5180766872	-0.3123741527	 0.9376842541	 0.080941
H	-1.9763169952	-0.0815300371	 0.8625799243	 0.105909
H	-1.9286373517	-0.1985584116	-0.8912634613	 0.08284
H	-1.1715332989	-2.3780306237	 1.130341018	 0.118222
H	-2.420504059	-2.4562667799	-0.0872321112	 0.107991
H	-0.5415056852	-3.7229506699	-1.0668529131	 0.094749
H	 1.2386878534	-2.4700517815	-2.1205429761	 0.095007
H	 1.862010806	-0.3163894534	-1.0250903701	 0.095069
H	-0.3193661114	-0.1168059829	-2.7465124438	 0.283254
113.1147	194.0257	276.1088	291.9265	336.1369	365.6888	443.013	492.5262	508.6895	523.9503	652.4493	719.7136	756.3052	803.4592	882.3587	914.7679	978.312	1002.2256	1016.5501	1052.3337	1070.9283	1105.9674	1112.5149	1156.4039	1213.5491	1230.6624	1254.9905	1283.6289	1327.2112	1345.6499	1364.1655	1400.6695	1405.2162	1423.8373	1444.7838	1472.585	1494.056	1712.3539	3000.0179	3010.7454	3024.2428	3048.488	3050.6504	3090.7093	3143.5022	3168.2236	3733.7755	3806.1573
OC1CCC=CC1O	O[C@H]1CCC=C[C@H]1O	
InChI=1S/C6H10O2/c7-5-3-1-2-4-6(5)8/h1,3,5-8H,2,4H2	InChI=1S/C6H10O2/c7-5-3-1-2-4-6(5)8/h1,3,5-8H,2,4H2/t5-,6+/m1/s1
