16
gdb 52295	3.8514	0.84664	0.72706	3.9805	68.19	-0.2573	-0.0445	0.2128	1479.2169	0.122886	-475.036179	-475.027283	-475.026339	-475.071853	30.556	
O	-0.1322249636	 0.7319677313	-1.0657123318	-0.317133
C	 0.0140886315	 1.3098030989	-0.010447911	 0.1554
N	 1.1766957412	 1.3688844242	 0.6965543367	-0.275051
C	 2.4167601118	 0.7863994985	 0.222416077	-0.175775
C	 3.4619152985	 1.8681369223	-0.0237064361	 0.002991
O	 3.7813294485	 2.6113666362	 1.1836994396	-0.301835
C	 5.1811507234	 2.2576082967	 1.1580807113	-0.189142
C	 4.9343843451	 1.4298454352	-0.1096111973	 0.337024
O	 5.5817141335	 0.736559534	-0.8296996932	-0.262667
H	-0.8033663865	 1.8529109657	 0.502522119	 0.081036
H	 1.212152583	 1.9261478879	 1.5359145132	 0.260839
H	 2.7976735387	 0.0623802223	 0.9524533685	 0.115275
H	 2.1937935053	 0.2584027318	-0.7076321416	 0.166867
H	 3.1410200573	 2.5380102651	-0.8322629359	 0.122988
H	 5.8396716337	 3.1252529994	 1.0267936777	 0.140171
H	 5.4988289685	 1.6896030307	 2.041201674	 0.13901
29.8076	54.4464	111.7603	127.909	209.1931	262.2387	351.9475	388.9941	508.3932	556.0459	565.6437	693.6889	752.1531	827.1226	880.6105	928.5244	1004.7386	1020.3396	1033.5045	1074.106	1081.7292	1106.9024	1138.6312	1209.3212	1241.4239	1256.3451	1290.6756	1329.0975	1394.7524	1428.4439	1474.2826	1481.3128	1526.7918	1806.3089	1927.8332	2946.0398	3020.3537	3028.5696	3040.8263	3070.591	3124.4888	3634.9116
O=CNCC1OCC1=O	O=CNC[C@H]1OCC1=O	
InChI=1S/C5H7NO3/c7-3-6-1-5-4(8)2-9-5/h3,5H,1-2H2,(H,6,7)	InChI=1S/C5H7NO3/c7-3-6-1-5-4(8)2-9-5/h3,5H,1-2H2,(H,6,7)/t5-/m1/s1
