21
gdb 42006	3.1182	1.44056	1.07559	1.254	84.28	-0.2248	0.0259	0.2506	1161.9476	0.185932	-387.108463	-387.100666	-387.099722	-387.141426	30.551	
C	-0.0653746773	 1.4918932673	-0.2039592697	-0.249083
C	 1.4211049811	 1.8997388899	-0.0413626762	-0.23317
C	 2.0857721749	 0.7233569738	 0.7154722181	-0.10729
C	 3.5460208765	 0.3900693305	 0.3057644157	-0.092391
O	 3.7271039509	-0.9723739057	-0.0566599341	-0.238998
C	 3.1336468786	-1.8549285992	 0.8762723781	-0.078857
C	 1.5991403572	-1.8373380144	 0.7377710822	-0.339756
C	 1.1444616245	-0.4365258734	 0.4305539583	 0.390132
C	-0.0119446719	-0.0121893044	-0.0784157273	-0.214005
H	-0.6929584018	 1.9289264723	 0.5866550576	 0.101824
H	-0.4917835334	 1.8318490497	-1.1545849375	 0.100365
H	 1.8795637205	 1.9870552195	-1.0329170791	 0.103474
H	 1.5492118578	 2.8613475945	 0.4629800218	 0.094494
H	 2.0735897958	 0.9252926717	 1.7974506811	 0.076474
H	 3.8410447467	 0.9658795395	-0.5770123144	 0.106926
H	 4.240537983	 0.6475748138	 1.1221057817	 0.083128
H	 3.5372326103	-2.8502141885	 0.6709666561	 0.107521
H	 3.4317593801	-1.5803434296	 1.9021815407	 0.084898
H	 1.2871513155	-2.5139112764	-0.0650648199	 0.116478
H	 1.1428751777	-2.215474625	 1.6631664385	 0.105908
H	-0.8475780368	-0.6530180259	-0.3415219815	 0.081929
45.6038	95.3068	238.703	293.3677	350.9516	360.2737	460.3101	495.1333	576.7447	655.519	681.0413	782.1198	818.1208	851.4522	880.6297	919.9639	930.2128	970.5428	977.2622	1003.5361	1020.174	1054.2654	1073.1061	1101.0282	1133.8519	1172.0932	1192.5407	1227.1328	1237.6637	1255.7059	1274.0468	1297.9915	1312.2351	1325.2346	1336.0737	1346.8983	1361.5324	1396.6957	1420.7983	1468.2094	1485.1529	1497.6852	1502.6504	1507.3302	1720.8565	2959.0336	2961.066	2982.222	2999.1762	3012.5387	3037.3561	3055.3014	3062.9094	3073.6573	3088.7534	3094.7109	3180.3097
C1CC2COCCC2=C1	C1C[C@@H]2COCCC2=C1	
InChI=1S/C8H12O/c1-2-7-4-5-9-6-8(7)3-1/h2,8H,1,3-6H2	InChI=1S/C8H12O/c1-2-7-4-5-9-6-8(7)3-1/h2,8H,1,3-6H2/t8-/m1/s1
