17
gdb 84024	2.22154	1.75165	1.4677	1.4463	63.27	-0.2335	0.0615	0.295	968.8815	0.135779	-496.062013	-496.053895	-496.052951	-496.09429	31.271	
O	 0.118078972	 1.3539720351	-0.1405027882	-0.425723
C	-0.0061844767	-0.0258840899	-0.0681448657	 0.044054
C	-0.4790830737	-0.6635057368	 1.2236888809	-0.024937
O	-0.7994858265	 0.2403348094	 2.2501093173	-0.252755
C	-2.1865728764	 0.5071365025	 2.3154472314	 0.001598
O	-2.6482875475	 1.0812222536	 1.1292927468	-0.233846
C	-2.6439899515	 0.1425084038	 0.0541438674	-0.149257
C	-1.3689380525	-0.6882888539	-0.0025525497	 0.23998
O	-1.5185179242	-1.9500051434	-0.5923791842	-0.453843
H	-0.1629361552	 1.7031243719	 0.717165852	 0.296646
H	 0.7607539286	-0.5534909847	-0.6292043551	 0.105185
H	-0.0357232581	-1.5946295409	 1.564993714	 0.112752
H	-2.7361435889	-0.4220394677	 2.5412814761	 0.095964
H	-2.3236234143	 1.2419017136	 3.1105964001	 0.123809
H	-3.4850723008	-0.5591663052	 0.1588708343	 0.109493
H	-2.7856599953	 0.73085262	-0.8572872828	 0.120977
H	-1.4307977989	-1.8449477673	-1.5466606247	 0.289904
137.0454	152.8863	214.8332	264.0515	313.2516	330.2658	356.802	395.8444	464.9526	504.3087	524.0823	637.4845	650.059	783.3912	858.1199	892.5016	967.0676	980.7966	1009.1435	1043.0741	1074.4476	1099.1299	1159.4309	1164.9808	1190.3653	1225.2064	1261.1548	1295.3087	1320.6045	1322.8381	1334.4163	1360.1288	1404.1095	1436.2752	1461.8782	1495.3744	1511.7315	2966.315	2997.7441	3084.464	3122.7332	3144.0246	3153.5254	3742.8481	3791.2075
OC1C2OCOCC12O	O[C@H]1[C@H]2OCOC[C@@]12O	
InChI=1S/C5H8O4/c6-3-4-5(3,7)1-8-2-9-4/h3-4,6-7H,1-2H2	InChI=1S/C5H8O4/c6-3-4-5(3,7)1-8-2-9-4/h3-4,6-7H,1-2H2/t3-,4+,5+/m0/s1
