17
gdb 18667	3.15572	2.32599	1.51345	3.2767	69.58	-0.251	0.0213	0.2723	846.9806	0.144997	-363.868727	-363.861952	-363.861008	-363.899872	26.424	
N	-0.1050393589	 1.2798485712	 0.0930779747	-0.520956
C	-0.0363860441	 0.0208482245	-0.0252938745	 0.376503
O	 1.1680381347	-0.6369739337	-0.062986244	-0.256496
C	 1.2288527355	-1.7958580044	-0.9094873277	-0.082085
C	 0.2715980114	-2.8888252731	-0.4498216953	-0.234471
C	-1.133718706	-2.3234521088	-0.2572471834	-0.046768
C	-1.5232347637	-1.7805806587	 1.0852629071	-0.27987
C	-1.25900484	-0.821972877	-0.0637186795	-0.07332
H	 0.8379261557	 1.6751506797	 0.1007926423	 0.216783
H	 1.0029696896	-1.4953751963	-1.9416847255	 0.108396
H	 2.2699567095	-2.1252306828	-0.8713371399	 0.116843
H	 0.2631181751	-3.6876050943	-1.1985995356	 0.108462
H	 0.6409814295	-3.3302260398	 0.4822208661	 0.113671
H	-1.9197397613	-2.7909063762	-0.8405348725	 0.094072
H	-2.5503589497	-1.8778573676	 1.4172674133	 0.120161
H	-0.784477133	-1.826150181	 1.8787876345	 0.125587
H	-2.1199057944	-0.3093283917	-0.4729212202	 0.113486
68.2083	210.2822	244.1773	376.8243	405.5876	463.2488	510.8875	663.607	718.4296	744.0221	782.9695	834.8444	885.1077	914.5502	932.9133	954.5031	972.0251	1027.7163	1066.6315	1084.0118	1092.8806	1125.2246	1137.7753	1156.1151	1218.2639	1254.2465	1281.5263	1309.2139	1366.8093	1379.2511	1391.4711	1429.0817	1476.2713	1491.9809	1507.4719	1746.8746	3014.7641	3041.5333	3083.6166	3103.0198	3134.4652	3161.6808	3197.6841	3224.6789	3459.7502
N=C1OCCC2CC12	[NH][C]1OCC[C@H]2C[C@@H]12	
InChI=1S/C6H9NO/c7-6-5-3-4(5)1-2-8-6/h4-5,7H,1-3H2	InChI=1S/C6H9NO/c7-6-5-3-4(5)1-2-8-6/h4-5,7H,1-3H2/t4-,5+/m0/s1
