19
gdb 111704	2.69315	1.18213	0.95098	3.669	82.14	-0.2362	0.0155	0.2516	1290.8123	0.160158	-382.042843	-382.034027	-382.033083	-382.076694	32.785	
C	 0.1846963726	 1.4563222713	 0.1527394531	-0.377469
C	-0.1792608197	-0.0134307058	-0.0910351884	-0.212534
C	 0.5792407674	-0.5901175777	-1.2681435896	-0.048466
C	 1.9264271359	-1.2240411881	-1.1785231253	-0.066283
N	 2.0734112887	-1.9297149941	 0.102867547	-0.323489
C	 0.9890467083	-2.8881108141	-0.2893725754	-0.23445
C	 0.6986118745	-2.0847244906	-1.5701553443	 0.139942
C	 0.3118147143	-2.6511927948	-2.8149382602	 0.183183
N	 0.0017795161	-3.1199867353	-3.8283702382	-0.356439
H	 1.2508333299	 1.5626243931	 0.3771010776	 0.125085
H	-0.0366565235	 2.0741107697	-0.7245254883	 0.115871
H	-0.3786087996	 1.8633631069	 0.9975495558	 0.117079
H	 0.0436274621	-0.5940391577	 0.8081874125	 0.124119
H	-1.2556319096	-0.1060987856	-0.2787339603	 0.105845
H	 0.4588502726	-0.0317326676	-2.1950276321	 0.109193
H	 2.7781916093	-0.9320486886	-1.781500645	 0.115489
H	 2.9661618086	-2.4059108875	 0.1600313191	 0.23463
H	 1.3697402395	-3.8841181663	-0.5283323439	 0.128479
H	 0.1776143428	-2.9738281872	 0.439977656	 0.120215
63.2222	127.322	144.6551	202.7354	204.4392	269.9622	305.9264	403.4091	496.138	546.9111	584.1428	610.1402	741.6317	761.5758	805.8919	842.4856	899.1535	929.3138	965.0942	1001.609	1015.2602	1028.065	1073.1439	1080.8397	1115.8932	1140.8182	1158.1296	1228.0996	1256.2383	1274.4924	1318.2352	1338.2846	1361.7777	1387.4217	1410.6772	1472.6817	1480.9551	1498.4696	1504.6411	1510.3525	2335.8419	3034.1114	3039.7121	3050.7251	3087.6874	3105.4763	3108.4516	3111.2137	3134.6866	3188.4005	3544.8021
CCC1C2NCC12C#N	CC[C@H]1[C@H]2NC[C@@]12C#N	
InChI=1S/C7H10N2/c1-2-5-6-7(5,3-8)4-9-6/h5-6,9H,2,4H2,1H3	InChI=1S/C7H10N2/c1-2-5-6-7(5,3-8)4-9-6/h5-6,9H,2,4H2,1H3/t5-,6+,7-/m0/s1
