23
gdb 89482	2.74416	1.50067	1.33047	1.6026	84.19	-0.2359	0.0785	0.3144	1111.8929	0.207651	-388.317457	-388.309085	-388.30814	-388.349691	34.158	
C	-0.1900451611	 1.5484325203	 0.0191991876	-0.409788
C	 0.0171125834	 0.0357262013	 0.0033562005	 0.035432
C	 0.8734118876	-0.50095359	-1.1941190772	-0.263666
C	 2.0144665101	-1.3031023375	-0.5085322093	 0.294717
C	 2.7770365341	-2.2575977885	-1.4102845311	-0.487805
C	 2.8936416943	-0.2722342872	 0.2262857762	-0.092802
O	 2.065752571	 0.2208325061	 1.2932551935	-0.280719
C	 0.8279099582	-0.5042898599	 1.204543421	 0.094492
C	 1.2685774916	-1.8879229389	 0.7167352799	-0.263226
H	 0.7697132538	 2.0666976535	 0.0967515612	 0.129135
H	-0.6944907551	 1.8864883865	-0.8919729496	 0.107032
H	-0.8034899602	 1.8555149347	 0.8736103864	 0.108334
H	-0.9629939544	-0.4570327927	 0.0026999584	 0.065453
H	 0.2858186701	-1.1518760595	-1.8497717339	 0.090172
H	 1.2700184062	 0.3111194386	-1.813151671	 0.092881
H	 3.2813300988	-1.7204765543	-2.2219279966	 0.115614
H	 3.5414395643	-2.8091584985	-0.8518071096	 0.114115
H	 2.1031412265	-2.9887568676	-1.8694333404	 0.115195
H	 3.7992793266	-0.7311469467	 0.6484313157	 0.088525
H	 3.200260944	 0.5579966053	-0.4231327907	 0.092031
H	 0.3284570803	-0.4351028537	 2.1726271878	 0.065865
H	 0.4365962998	-2.5434216838	 0.4435659413	 0.092766
H	 1.9251831599	-2.4026213076	 1.42403971	 0.096248
125.1164	218.4374	224.5754	232.0924	277.8465	298.8485	376.1184	409.4752	459.4086	482.4079	574.8414	607.5442	736.8722	809.1499	828.0542	878.9683	903.9681	918.8602	925.1447	928.7808	965.5763	986.9858	1013.2497	1025.7258	1061.9359	1068.8345	1090.1573	1154.8157	1176.4361	1184.3739	1201.0779	1247.9969	1259.9633	1269.8714	1289.9933	1296.8278	1322.7526	1344.9506	1369.0315	1394.2312	1407.9985	1415.3414	1483.4837	1492.7797	1493.6541	1495.3258	1500.4165	1502.366	1531.4135	2992.1239	3021.2639	3024.2524	3031.9699	3034.7019	3039.3806	3054.5668	3079.4648	3087.8828	3093.5097	3094.9204	3103.3077	3108.5212	3118.4317
CC1CC2(C)COC1C2	C[C@H]1C[C@@]2(C)CO[C@@H]1C2	
InChI=1S/C8H14O/c1-6-3-8(2)4-7(6)9-5-8/h6-7H,3-5H2,1-2H3	InChI=1S/C8H14O/c1-6-3-8(2)4-7(6)9-5-8/h6-7H,3-5H2,1-2H3/t6-,7+,8+/m0/s1
