15
gdb 47750	2.47559	1.85923	1.26951	3.1976	60.79	-0.2698	-0.0194	0.2505	967.3345	0.112968	-494.899092	-494.891608	-494.890664	-494.931652	27.51	
O	-0.2433735866	 0.5185797998	 1.2304315638	-0.33034
C	-0.1345513086	 1.3949046447	 0.4211558438	 0.432586
O	-1.1697372635	 1.7590832568	-0.3685478143	-0.223875
C	-0.8788016194	 2.7780843024	-1.3419866635	 0.00593
O	-0.32376325	 3.8986194959	-0.7447885545	-0.231589
C	 0.9737335927	 3.6386305987	-0.2113264402	-0.145351
C	 1.1452407588	 2.1742180688	 0.1612312236	 0.175105
C	 2.3948561452	 1.6600359018	 0.720387537	-0.224993
O	 2.0667408021	 1.4156810194	-0.6505803343	-0.263432
H	-0.2237909418	 2.3491167407	-2.1141426842	 0.126109
H	-1.840590284	 3.0622547105	-1.7673849398	 0.143764
H	 1.7560518452	 3.902699222	-0.9357771677	 0.125643
H	 1.0731959595	 4.2805820039	 0.6690269956	 0.135841
H	 3.2213937264	 2.3508738782	 0.881501647	 0.122337
H	 2.351430114	 0.7943669663	 1.3758566477	 0.152266
59.3257	116.5841	243.1429	285.762	330.0239	354.3257	439.8886	483.112	572.7613	624.973	745.778	791.2811	815.4393	912.2846	942.3856	988.1849	1022.1295	1053.7256	1084.456	1132.6665	1145.9825	1173.378	1224.9115	1252.9446	1282.5589	1314.7849	1362.3614	1432.867	1446.1436	1496.8351	1516.4173	1524.7728	1863.6169	3005.6209	3018.6419	3087.3502	3094.9349	3146.6427	3198.1849
O=C1OCOCC11CO1	O=C1OCOC[C@]21CO2	
InChI=1S/C5H6O4/c6-4-5(2-9-5)1-7-3-8-4/h1-3H2	InChI=1S/C5H6O4/c6-4-5(2-9-5)1-7-3-8-4/h1-3H2/t5-/m1/s1
