14
gdb 28851	3.47493	1.3214	0.95735	3.1092	80.27	-0.229	-0.0898	0.1392	1129.3397	0.102479	-436.728192	-436.72094	-436.719996	-436.760836	27.347	
O	-0.0101924716	 1.3743881098	 0.0082548958	-0.389485
C	-0.0374186579	 0.0259577268	 0.0014326342	 0.407793
C	-1.2677148904	-0.5762476159	 0.0054618203	-0.162496
C	-1.5394548176	-1.9654010857	-0.0001655319	-0.052616
C	-0.692615944	-3.0335964971	-0.0103940253	-0.196442
C	 0.7591495033	-3.0435463254	-0.0184040553	 0.320569
O	 1.4080674911	-4.085170795	-0.0272560706	-0.362614
C	 1.5373183495	-1.7679630717	-0.0168990454	-0.039383
N	 1.2145005466	-0.5223387541	-0.0087625203	-0.325446
H	 0.9253629508	 1.6209814735	 0.0040711944	 0.303961
H	-2.1163124013	 0.0993025151	 0.0138266639	 0.119306
H	-2.5998212292	-2.2072480684	 0.0045564953	 0.117426
H	-1.1225791358	-4.0309446261	-0.0131188462	 0.118145
H	 2.6094116563	-1.9787285558	-0.0242878689	 0.141284
30.8851	170.5854	340.7717	352.8134	389.1505	403.6982	403.9416	524.047	533.4604	607.8992	701.107	748.805	751.2959	841.9927	873.1572	896.4849	919.6998	994.1377	1041.6594	1068.7414	1212.5363	1232.8108	1298.532	1326.8222	1385.0285	1432.6679	1475.4293	1580.9256	1647.3152	1679.5554	1710.7293	3112.4808	3153.3704	3181.5631	3192.1073	3766.7133
OC1=CC=CC(=O)C=N1	Oc1cccc(=O)cn1	
InChI=1S/C6H5NO2/c8-5-2-1-3-6(9)7-4-5/h1-4,9H	InChI=1S/C6H5NO2/c8-5-2-1-3-6(9)7-4-5/h1-4,9H
