18
gdb 57217	2.4152	1.42545	1.11591	4.5994	68.12	-0.2535	0.0129	0.2664	1138.603	0.145403	-476.234045	-476.224426	-476.223481	-476.268738	35.481	
C	-0.0511031452	 1.5543319288	-0.5183920545	-0.487106
C	-6.931*^-6	 0.101209738	-0.0957325743	 0.39581
C	 1.02673342	-0.7872447802	-0.6594723718	-0.214428
O	 1.1455652089	-0.2704218479	 0.6726552581	-0.274196
C	-1.3146063492	-0.5392254639	 0.3933076203	-0.049624
O	-1.2198729209	-1.9315797911	 0.4821338072	-0.426985
C	-1.7086837258	-0.0181699977	 1.7938901088	 0.401435
N	-2.2275913345	 1.2320481759	 1.8717563229	-0.517536
O	-1.5431694535	-0.7332967506	 2.7660320419	-0.369223
H	 0.9182696055	 1.8630885384	-0.9157707286	 0.135893
H	-0.8056584926	 1.7115277329	-1.298127045	 0.116412
H	-0.2848075066	 2.2063267103	 0.3286399239	 0.12909
H	 0.8274578843	-1.8520685645	-0.7213665167	 0.136309
H	 1.7364692634	-0.3809726382	-1.3795278993	 0.104556
H	-2.1044843125	-0.2770844201	-0.3272011605	 0.085611
H	-1.1196394995	-2.106361748	 1.4347282944	 0.298659
H	-2.4719995903	 1.7595358032	 1.0525266515	 0.26553
H	-2.5228587205	 1.5724375747	 2.7728610917	 0.269793
44.7283	82.3646	167.785	198.4555	241.6492	271.5938	317.429	348.0816	371.5746	416.5094	439.89	505.7336	549.1543	558.1106	665.1683	683.9693	783.6758	842.4835	893.1879	923.7388	937.4127	1017.0882	1094.542	1104.856	1138.669	1141.8359	1175.3573	1233.5642	1250.6119	1344.8276	1360.815	1387.0018	1414.3288	1466.9534	1483.7977	1505.6074	1517.5239	1620.2315	1791.6938	2991.5261	3034.7224	3092.21	3102.3019	3126.4706	3205.5599	3601.3518	3640.2382	3738.
CC1(CO1)C(O)C(N)=O	C[C@]1(CO1)[C@@H](O)C(=O)N	
InChI=1S/C5H9NO3/c1-5(2-9-5)3(7)4(6)8/h3,7H,2H2,1H3,(H2,6,8)	InChI=1S/C5H9NO3/c1-5(2-9-5)3(7)4(6)8/h3,7H,2H2,1H3,(H2,6,8)/t3-,5-/m0/s1
