17
gdb 108889	3.40604	1.07664	0.86416	1.7865	76.17	-0.2246	0.0417	0.2663	1322.6499	0.136105	-417.982981	-417.97412	-417.973176	-418.016883	32.204	
C	-0.0597905447	 1.3520871617	 0.0850363313	-0.235045
O	 0.1874227546	-0.0584085553	 0.0854906974	-0.262277
C	 0.7214693633	-0.5404733845	-1.0354642314	 0.485711
N	 1.0201789898	 0.1315329162	-2.081795902	-0.369387
C	 1.5982840074	-0.8535447893	-3.0214063609	-0.140667
C	 1.2382023135	-2.2564624336	-2.4220972531	-0.194559
N	 1.0033515757	-1.8997273149	-1.019827547	-0.369704
C	 1.1289455661	-0.6871878824	-4.3925446856	 0.33639
C	 0.7493734429	-0.5838458755	-5.527893822	-0.457517
H	 0.8737900455	 1.9036000907	-0.0513394665	 0.144005
H	-0.7470734129	 1.6208574144	-0.7212191245	 0.144708
H	-0.4999830304	 1.5745227031	 1.0574142301	 0.130001
H	 2.6916418209	-0.7319243074	-3.0160717663	 0.111352
H	 0.3379939404	-2.6601511158	-2.9021781433	 0.115211
H	 2.0504500772	-2.9786550265	-2.5293625482	 0.120095
H	 0.3788054272	-2.4784493052	-0.4756292478	 0.246472
H	 0.4143155935	-0.4757782657	-6.5296246702	 0.195212
82.4978	108.9248	140.6262	155.7913	232.9368	245.5024	300.7535	477.8912	498.0804	527.5542	554.3005	617.2783	650.7657	677.7817	730.9944	751.9075	863.893	992.5197	1020.8353	1031.8686	1051.7732	1083.3771	1104.1868	1183.1613	1203.8403	1225.7199	1279.9392	1301.1088	1324.5243	1365.271	1452.0933	1476.8441	1494.3869	1504.3057	1532.8857	1709.6557	2241.2492	2986.7292	3024.8983	3050.8553	3100.0693	3126.9537	3156.3243	3505.3689	3595.1582
COC1=NC(CN1)C#C	CO[C]1[N][C@@H](CN1)C#C	
InChI=1S/C6H8N2O/c1-3-5-4-7-6(8-5)9-2/h1,5H,4H2,2H3,(H,7,8)	InChI=1S/C6H8N2O/c1-3-5-4-7-6(8-5)9-2/h1,5H,4H2,2H3,(H,7,8)/t5-/m1/s1
