18
gdb 31260	2.38427	1.38449	0.94565	1.7892	76.81	-0.1911	0.022	0.2131	1267.7726	0.148715	-435.277759	-435.26857	-435.267626	-435.312474	32.54	
C	 0.4965386877	 1.2339369018	 0.2685943873	-0.333258
N	-0.2260637615	 0.0700856293	-0.2405675928	-0.390213
C	 0.3753165325	-0.7130724077	-1.1979915333	 0.371838
C	 0.415766402	-2.0606907966	-1.4018187431	 0.11719
N	-0.1218571942	-3.0386403569	-0.5428936207	-0.396965
C	 0.8462763317	-4.0383685145	-0.0751251113	-0.320262
N	 1.0798907232	-2.3046215499	-2.6092362232	-0.285674
C	 1.4035563817	-1.1387920901	-3.0442119296	 0.048689
O	 1.0029991785	-0.1028757781	-2.2405364467	-0.185189
H	 1.4368243181	 0.9783386225	 0.7801265543	 0.115404
H	 0.7292706659	 1.9050246242	-0.5607457462	 0.149603
H	-0.1499814449	 1.7691993583	 0.9675752825	 0.128653
H	-0.6014389342	-0.5292487341	 0.4844219154	 0.249571
H	-0.9046836852	-3.510540284	-0.9854042929	 0.230205
H	 1.3506980125	-4.5745074673	-0.890952721	 0.125061
H	 1.6119497701	-3.5408275943	 0.5281279866	 0.121037
H	 0.3307743445	-4.7650617289	 0.5599999316	 0.112057
H	 1.9486028116	-0.8655237137	-3.933060077	 0.142254
52.7758	94.6558	153.1214	158.9133	179.1182	201.4256	288.1971	322.8053	425.7733	543.726	611.9556	658.2881	710.5059	715.2188	765.9061	783.486	825.4051	944.3847	1025.1351	1055.6355	1094.5452	1099.6127	1147.8939	1152.9855	1173.6296	1183.5938	1258.6144	1311.9435	1419.343	1444.2856	1464.882	1472.983	1477.829	1488.0326	1495.0364	1517.7722	1520.4956	1573.5297	1704.4111	2989.8784	3005.5069	3076.3859	3095.6236	3109.2453	3136.9053	3279.2169	3498.9003	3568.7161
CNC1=C(NC)N=CO1	CNc1c(NC)nco1	
InChI=1S/C5H9N3O/c1-6-4-5(7-2)9-3-8-4/h3,6-7H,1-2H3	InChI=1S/C5H9N3O/c1-6-4-5(7-2)9-3-8-4/h3,6-7H,1-2H3
