21
gdb 87870	3.1002	1.22648	1.20142	1.7001	82.4	-0.2382	0.0758	0.314	1172.2573	0.182536	-387.042925	-387.034538	-387.033594	-387.075982	32.62	
C	-0.1026862534	 1.5412552506	 0.2079021189	-0.405844
C	-0.0549099268	 0.0296885754	 0.1804452691	-0.049989
C	 1.1861452828	-0.6940160344	-0.2912090555	-0.369621
C	 0.7911813581	-0.7390149237	 1.1586894268	 0.372932
C	 1.62049082	-0.2025527934	 2.3455474618	-0.325549
C	 1.1775795131	-1.4404501792	 3.1610335115	 0.126197
O	-0.0457627081	-1.2211057323	 3.8930688996	-0.294632
C	-0.839790344	-1.8303905383	 2.8470044397	-0.078078
C	 0.3901282628	-1.9997605879	 1.9389477876	-0.176362
H	 0.8707795337	 1.9631506533	 0.4783155861	 0.116977
H	-0.3767145739	 1.9457188776	-0.7727612193	 0.116906
H	-0.8348556854	 1.9061401797	 0.9368658242	 0.11986
H	-0.9985192363	-0.4442509954	-0.0841625246	 0.079791
H	 1.070615897	-1.5953155954	-0.8857167273	 0.107214
H	 2.0511222043	-0.0925792747	-0.5581190872	 0.107593
H	 2.6969823418	-0.165818537	 2.1492443806	 0.098341
H	 1.3027961531	 0.7461636601	 2.7863650962	 0.109979
H	 1.9235983043	-1.9847454728	 3.7457111399	 0.073918
H	-1.2867203839	-2.7730686666	 3.1893486233	 0.096176
H	-1.6338564006	-1.1667358756	 2.4830890386	 0.099969
H	 0.5618334512	-2.9701840901	 1.4729696501	 0.074223
71.3448	139.8392	182.4138	190.6648	243.2982	359.5769	384.7717	438.1937	452.2327	548.1207	724.5128	780.5343	798.488	830.6281	867.0336	900.0143	901.4528	938.3346	963.3176	976.4992	1002.1684	1018.0108	1051.7372	1060.9228	1079.0576	1103.5715	1126.1465	1145.0032	1163.2943	1178.685	1182.2377	1203.1315	1244.4109	1262.3319	1281.0665	1305.2379	1335.8192	1360.2123	1409.2468	1426.582	1465.1244	1487.0103	1490.7363	1503.7816	1519.5178	3005.3744	3026.6822	3043.8537	3051.804	3073.5961	3088.2787	3094.7892	3103.4018	3108.5377	3112.2846	3122.7425	3196.4709
CC1CC11CC2OCC12	C[C@H]1C[C@]21C[C@H]1OC[C@@H]21	
InChI=1S/C8H12O/c1-5-2-8(5)3-7-6(8)4-9-7/h5-7H,2-4H2,1H3	InChI=1S/C8H12O/c1-5-2-8(5)3-7-6(8)4-9-7/h5-7H,2-4H2,1H3/t5-,6+,7+,8+/m0/s1
