23
gdb 121146	2.56936	1.06289	0.92005	1.3613	82.28	-0.2437	0.0684	0.3121	1424.7564	0.20337	-425.401647	-425.391082	-425.390138	-425.437823	38.022	
C	-0.5528442648	 1.301021254	-0.3100862274	-0.223587
O	-0.7720339826	-0.0782311799	-0.4879740911	-0.238054
C	-0.8779685627	-0.7817634355	 0.7313058062	-0.083223
C	-1.0606667734	-2.2518934194	 0.4013884038	 0.091974
O	-1.1751831322	-3.0499347588	 1.5971619368	-0.300936
C	-2.3542058821	-3.7146912312	 1.0965995283	-0.105191
C	-2.4180080091	-2.7907586566	-0.1486032809	 0.27553
C	-3.5833220091	-1.8026034058	-0.1302060607	-0.45551
C	-2.3149961046	-3.4959134499	-1.4981117486	-0.454317
H	-0.4829481966	 1.7530666979	-1.3025120044	 0.126727
H	-1.3781758442	 1.7784841961	 0.2413110729	 0.105195
H	 0.3825362745	 1.496836052	 0.2373345817	 0.106489
H	 0.035689172	-0.6655330757	 1.3388659722	 0.095306
H	-1.718162252	-0.4055920231	 1.335119828	 0.088657
H	-0.2088345186	-2.5738783414	-0.2153263336	 0.072884
H	-2.1621390483	-4.773738565	 0.8775100738	 0.092893
H	-3.1926525804	-3.6434588871	 1.8004836917	 0.09636
H	-3.7262034249	-1.3584068549	 0.8594638168	 0.116427
H	-3.4162361737	-0.991505272	-0.8453940444	 0.13003
H	-4.5163720234	-2.3100236352	-0.3996046981	 0.109861
H	-3.2357178423	-4.04461194	-1.7272192773	 0.111634
H	-2.1483852975	-2.7708249137	-2.3021183898	 0.125721
H	-1.4857587639	-4.2107371446	-1.5130031961	 0.115128
41.2242	75.4544	101.8997	164.5892	203.4412	221.9898	239.3883	279.1684	310.3948	337.65	376.7741	388.7662	438.3597	549.0972	648.8592	794.2982	871.0941	933.9088	961.2496	971.6452	985.4441	1013.3973	1026.4922	1046.1896	1069.6062	1130.4402	1161.2049	1168.898	1183.1015	1215.1891	1220.7017	1230.8026	1259.9065	1279.6378	1291.8983	1353.7547	1381.7136	1401.8509	1423.7057	1426.5817	1481.2112	1484.9973	1485.319	1487.7904	1501.7939	1503.7361	1509.4135	1528.857	1531.2334	2961.4695	2974.3562	2988.4158	3003.2916	3010.0939	3016.9237	3024.5916	3033.2804	3049.1486	3091.336	3097.5042	3099.1421	3111.9636	3113.5011
COCC1OCC1(C)C	COC[C@H]1OCC1(C)C	
InChI=1S/C7H14O2/c1-7(2)5-9-6(7)4-8-3/h6H,4-5H2,1-3H3	InChI=1S/C7H14O2/c1-7(2)5-9-6(7)4-8-3/h6H,4-5H2,1-3H3/t6-/m1/s1
