21
gdb 74911	2.87722	1.5218	1.22057	0.4596	88.15	-0.2074	0.0267	0.2341	1124.2526	0.183202	-349.942279	-349.934163	-349.933219	-349.974334	32.863	
C	 0.0927608448	 1.4670191729	 0.0245384619	-0.502397
C	-0.0322266593	-0.0216626645	-0.0381717139	 0.339349
C	-0.1539451283	-0.8063100665	-1.117212771	-0.199169
C	-0.0642685156	-2.2561855072	-0.6964779829	-0.095685
C	 1.4113662178	-2.5090207616	-0.1906715694	-0.277382
C	 0.9591488599	-2.1259525309	 1.2162198291	 0.342299
C	 1.6573870383	-2.5210079125	 2.4856325743	-0.501027
C	-0.4921079884	-2.2641602614	 0.8096953021	-0.115723
C	 0.0081736189	-0.8933060539	 1.178601758	-0.184398
H	 1.0599744442	 1.7686432474	 0.44696408	 0.125352
H	 0.0020119423	 1.9191842078	-0.9669142384	 0.121751
H	-0.6781884755	 1.9069063951	 0.6704266811	 0.121445
H	-0.1340846852	-0.476561777	-2.1496439177	 0.084321
H	-0.4776266733	-2.9980562605	-1.3781873152	 0.063506
H	 1.6572141566	-3.5748558137	-0.2218787997	 0.095406
H	 2.2098595058	-1.9338951583	-0.6732456202	 0.083317
H	 2.6164631269	-1.9992844314	 2.5906315906	 0.119135
H	 1.0521022102	-2.278969408	 3.3658929874	 0.115223
H	 1.8632962353	-3.5977711854	 2.509444795	 0.115196
H	-1.3198877716	-2.7866941864	 1.2759783162	 0.078725
H	-0.2271370139	-0.4853381938	 2.1566717425	 0.070757
156.9183	175.3421	202.9478	212.4751	275.4042	339.3852	397.3684	435.306	564.5656	583.938	595.1767	716.0052	749.7972	804.1424	837.5611	867.1382	878.4107	896.948	926.6058	944.5669	969.4837	994.6058	1024.4072	1027.9439	1052.6502	1070.2784	1083.7682	1146.3755	1163.5422	1188.8325	1210.2341	1234.5987	1261.5127	1284.8276	1298.3067	1341.7893	1406.376	1414.3405	1423.0264	1479.1187	1484.9794	1488.0445	1491.8368	1498.3766	1691.5849	3014.1509	3016.9834	3029.8258	3058.0897	3075.0457	3087.6201	3089.4995	3108.0703	3119.1036	3158.7253	3172.3633	3196.0586
CC1=CC2CC3(C)C2C13	CC1=C[C@H]2C[C@]3(C)[C@H]2[C@H]13	
InChI=1S/C9H12/c1-5-3-6-4-9(2)7(5)8(6)9/h3,6-8H,4H2,1-2H3	InChI=1S/C9H12/c1-5-3-6-4-9(2)7(5)8(6)9/h3,6-8H,4H2,1-2H3/t6-,7-,8+,9-/m0/s1
