22
gdb 101052	2.18311	1.15156	1.02771	4.021	86.48	-0.2819	0.0367	0.3187	1349.7239	0.192878	-367.229802	-367.219555	-367.218611	-367.265025	37.786	
C	-0.1598794426	 1.6018927503	-0.1432386192	-0.394687
C	-0.1327562468	 0.070968356	-0.1866395347	-0.178622
C	 0.8628164697	-0.5201945261	-1.2032475815	-0.049045
C	 2.3241696371	-0.1741205143	-0.8855470685	-0.408989
C	 0.6766550296	-2.0377220481	-1.3290121533	 0.197386
C	-0.4200790749	-2.5786283115	-2.2346499211	-0.302959
C	 1.014933688	-2.7197190847	-2.6467766671	-0.306015
C	 0.9493915913	-2.792899477	-0.129736105	 0.253841
N	 1.1733142699	-3.3845953283	 0.83959238	-0.362186
H	 0.7898835654	 2.0204497948	 0.2022769124	 0.122806
H	-0.3703425202	 2.024641063	-1.1325165783	 0.111785
H	-0.9390598186	 1.9542405467	 0.5393306083	 0.118189
H	 0.1004295909	-0.323682052	 0.8103821538	 0.119139
H	-1.1362268534	-0.2978774725	-0.4321712571	 0.097889
H	 0.619162421	-0.1084359682	-2.1928941142	 0.072449
H	 2.4867886997	 0.9066036772	-0.8904936047	 0.119948
H	 2.6094018183	-0.5547821747	 0.1010716126	 0.138291
H	 3.000584933	-0.6166239359	-1.6234221432	 0.116838
H	-0.9526192263	-3.4658408961	-1.9139817042	 0.139651
H	-1.032619563	-1.8386507661	-2.7380950576	 0.127248
H	 1.3929089113	-2.07716185	-3.4345596112	 0.127454
H	 1.4665696105	-3.7036158826	-2.6077353661	 0.139589
67.716	82.5632	135.4756	167.6081	218.5226	223.9777	233.0548	281.4204	286.959	375.4391	421.0855	450.9187	579.9023	601.9197	689.1608	774.4798	787.8371	838.8753	902.8121	908.5318	951.6387	970.4653	974.0436	1000.649	1039.4676	1063.8866	1089.3193	1090.3304	1151.5279	1187.5427	1193.8	1258.8221	1287.3388	1299.0354	1346.9711	1365.8767	1388.5188	1411.5052	1417.7537	1466.3776	1484.7045	1493.9785	1495.2381	1500.9534	1506.4527	1511.655	2344.0831	3004.2508	3024.7832	3033.3266	3039.9868	3059.8541	3099.5601	3106.3274	3109.8525	3120.7125	3138.8962	3142.4545	3224.8276	3238.508
CCC(C)C1(CC1)C#N	CC[C@@H](C)C1(CC1)C#N	
InChI=1S/C8H13N/c1-3-7(2)8(6-9)4-5-8/h7H,3-5H2,1-2H3	InChI=1S/C8H13N/c1-3-7(2)8(6-9)4-5-8/h7H,3-5H2,1-2H3/t7-/m1/s1
