21
gdb 57775	3.43509	0.71972	0.6486	1.5326	90.24	-0.2276	0.0428	0.2703	1824.1433	0.179688	-387.053893	-387.043292	-387.042348	-387.092146	38.589	
C	 0.3286890094	 1.6318615909	-0.1304813673	-0.373139
C	 0.0092614486	 0.1347525254	 0.055316584	-0.126269
C	 0.3980138371	-0.6791783559	-1.1951236479	-0.37249
C	 0.6647182773	-0.3916196543	 1.2531666446	 0.057119
C	 1.2310552779	-0.8298214621	 2.2240337355	 0.030311
C	 1.8936511028	-1.3028120386	 3.4131714461	 0.236619
O	 2.6792968936	-0.350984658	 4.0874521709	-0.444936
C	 1.2225934585	-2.3717419455	 4.2622264187	-0.313283
C	 2.4616011622	-2.6965335158	 3.4644761108	-0.28987
H	 1.4025655939	 1.7803535037	-0.2794111554	 0.126772
H	-0.1981442986	 2.0249709635	-1.0058258706	 0.112012
H	 0.0247120247	 2.2115439771	 0.7451029998	 0.120601
H	-1.0775191212	 0.0402183632	 0.1918411536	 0.101881
H	 1.4733936221	-0.6043417764	-1.3833291428	 0.125504
H	 0.1490391682	-1.7362494936	-1.0698965878	 0.121733
H	-0.1332472188	-0.3005304163	-2.0743885023	 0.111124
H	 2.0988994325	 0.3786930503	 4.3319084682	 0.282506
H	 1.3352427675	-2.2578021758	 5.3344335344	 0.119409
H	 0.2697544018	-2.7665724575	 3.9297818018	 0.120736
H	 2.3666170507	-3.3153570767	 2.5807487093	 0.124716
H	 3.3953420698	-2.796127638	 4.0057361966	 0.128943
4.1736	74.5351	94.801	178.8696	204.1642	228.6591	262.1504	303.7154	319.4783	372.6715	381.0195	485.5487	495.1344	562.1747	581.128	612.5377	774.1161	810.2213	883.2546	895.8397	922.4411	931.3577	964.4009	979.4428	1019.7166	1052.9583	1079.9136	1118.6917	1129.284	1190.6038	1193.8172	1238.7264	1304.611	1326.3424	1350.5951	1383.9382	1394.7486	1416.9618	1448.4239	1485.2941	1487.0293	1488.9033	1498.0246	1510.3261	2351.1349	2999.0734	3035.3719	3038.8588	3107.0996	3112.0133	3117.3812	3119.5013	3138.0453	3145.838	3228.4393	3243.7854	3796.5091
CC(C)C#CC1(O)CC1	CC(C)C#CC1(O)CC1	
InChI=1S/C8H12O/c1-7(2)3-4-8(9)5-6-8/h7,9H,5-6H2,1-2H3	InChI=1S/C8H12O/c1-7(2)3-4-8(9)5-6-8/h7,9H,5-6H2,1-2H3
