16
gdb 18201	4.28881	1.67328	1.38365	5.1039	68.25	-0.2546	0.0408	0.2954	894.4297	0.133597	-342.789576	-342.782867	-342.781923	-342.820509	25.855	
N	-0.0287387765	-1.1542292179	-0.1304913867	-0.329845
C	-0.0192875263	-0.0002212581	-0.0662500274	 0.275313
C	-0.0084452515	 1.4595924434	 0.0006172711	-0.135553
C	-0.6498538158	 2.0278111041	 1.3031839337	-0.230325
C	 0.0115253046	 3.4114381328	 1.5001938262	-0.219179
C	 1.3892912346	 3.2557789435	 0.8820488744	-0.030706
N	 2.0623625766	 2.0043410107	 1.2901432246	-0.324755
C	 1.3898477507	 2.0773552125	-0.0176485	-0.043047
H	-0.5514183264	 1.8349875017	-0.8761364805	 0.12263
H	-1.7377211022	 2.0772039447	 1.2296623254	 0.1133
H	-0.3955161881	 1.371036141	 2.1353196384	 0.146753
H	-0.5363484429	 4.1932822074	 0.9610350794	 0.105117
H	 0.0464722953	 3.6972573923	 2.5555380431	 0.114987
H	 1.9919972221	 4.1312731568	 0.6634677528	 0.093606
H	 3.0660734635	 2.0915260519	 1.1566757537	 0.239158
H	 1.9762618623	 2.0311669133	-0.9285468783	 0.102547
112.3066	157.6722	254.656	341.3915	401.9563	499.8598	544.2698	627.87	657.9438	803.9085	830.11	862.5459	876.8435	905.2866	942.87	982.3022	1016.3852	1030.7848	1068.2119	1072.8529	1125.9402	1164.428	1199.412	1229.5704	1251.8502	1289.5435	1319.1961	1326.9623	1348.8116	1379.1788	1425.9483	1482.1977	1495.3172	2358.0465	3034.0542	3041.1994	3087.038	3092.4641	3142.4567	3164.118	3178.0949	3516.4781
N#CC1CCC2NC12	N#C[C@H]1CC[C@H]2N[C@@H]12	
InChI=1S/C6H8N2/c7-3-4-1-2-5-6(4)8-5/h4-6,8H,1-2H2	InChI=1S/C6H8N2/c7-3-4-1-2-5-6(4)8-5/h4-6,8H,1-2H2/t4-,5-,6+/m1/s1
