20
gdb 111737	2.93529	1.14811	0.96857	3.2465	82.03	-0.2434	-0.0254	0.2181	1293.7451	0.169835	-403.118531	-403.109529	-403.108585	-403.152557	33.516	
C	 0.2588714764	 1.488234374	 0.1359680021	-0.378588
C	-0.2531533989	 0.0638770841	-0.0619366922	-0.125015
N	 0.4894374646	-0.5877946258	-1.1398119264	-0.117332
C	 1.7350651453	-1.266801863	-0.9431480819	-0.090176
C	 1.8122653607	-2.0964367066	 0.354223974	-0.243551
C	 0.5146283284	-2.8541115948	-0.0596532727	-0.30708
C	 0.4536255923	-2.0222499276	-1.3514212809	 0.222988
C	 0.1156469593	-2.5292803262	-2.6929140851	 0.082258
O	-0.2079717805	-3.6706604964	-2.9235044385	-0.270745
H	 1.3077640402	 1.4871036732	 0.4501490897	 0.120531
H	 0.1856089941	 2.057401885	-0.7946904234	 0.129985
H	-0.323598262	 2.0010753258	 0.9071113382	 0.116942
H	-0.204474074	-0.4832339345	 0.8903027685	 0.096396
H	-1.3052581797	 0.0785231126	-0.3667152236	 0.111922
H	 2.5772123921	-0.9922264043	-1.5703876807	 0.106373
H	 2.6878281217	-2.747784392	 0.3680851965	 0.11688
H	 1.7885075928	-1.5270515325	 1.2878124879	 0.109167
H	 0.6915947268	-3.9066118567	-0.2829961805	 0.134201
H	-0.3497921863	-2.7759364107	 0.6044973279	 0.10691
H	 0.1990670169	-1.7609567034	-3.4923148489	 0.077935
62.6915	101.8091	167.1093	206.7573	232.6066	253.7429	288.6323	328.469	408.184	528.3652	571.126	700.2879	711.2332	785.6865	790.2472	817.8734	901.1424	929.9988	949.7363	965.2283	1006.3666	1023.9958	1064.6325	1096.6648	1106.4925	1126.2014	1182.1999	1212.9838	1224.9694	1235.0194	1280.1489	1301.1291	1308.9441	1370.5328	1387.4747	1408.6923	1437.95	1474.0448	1489.0531	1495.1392	1500.7285	1516.4193	1802.711	2898.7794	3002.2047	3040.8986	3062.3443	3063.5139	3073.2577	3110.5691	3116.8174	3122.8155	3139.2938	3164.9473
CCN1C2CCC12C=O	CCN1[C@H]2CC[C@@]12C=O	
InChI=1S/C7H11NO/c1-2-8-6-3-4-7(6,8)5-9/h5-6H,2-4H2,1H3	InChI=1S/C7H11NO/c1-2-8-6-3-4-7(6,8)5-9/h5-6H,2-4H2,1H3/t6-,7-,8?/m0/s1
