16
gdb 8586	4.66387	1.85367	1.70672	2.7413	70.3	-0.2421	-0.0238	0.2184	798.1183	0.130991	-346.503169	-346.497016	-346.496072	-346.533244	25.102	
O	-0.1034172732	-0.0740530155	-0.2459810452	-0.276662
C	-0.0348847735	 1.0940937041	-0.0296550506	 0.338984
C	-1.123935362	 2.2165969695	 0.2627768692	-0.438246
C	 0.0642405037	 2.9899384902	 0.8621715263	 0.284038
C	 1.0996100992	 4.1609262703	 0.9211811383	-0.306212
C	 1.9037354781	 2.8277726331	 1.2422321852	-0.075228
C	 0.7293747475	 2.4326209899	 2.1636728827	-0.247105
C	 1.0991220432	 2.1808510443	 0.0606243211	-0.118956
H	-1.4906857716	 2.6249211661	-0.685229501	 0.132717
H	-1.9712173945	 1.946418692	 0.8975590876	 0.126549
H	 1.3323077146	 4.6556275966	-0.0250599731	 0.102387
H	 1.0125974513	 4.8784973262	 1.7421011023	 0.100551
H	 2.9726551975	 2.7600211248	 1.4552293497	 0.081218
H	 0.5832470565	 3.0242056499	 3.0710133369	 0.093879
H	 0.6063358805	 1.3642426704	 2.3627824811	 0.110862
H	 1.3310302027	 2.5533577582	-0.9445260706	 0.091223
121.0208	270.6347	352.7457	460.6465	478.5862	550.0791	586.3679	664.8135	751.6368	780.0603	831.2115	847.8737	878.2433	923.5277	962.072	973.4449	1004.917	1012.8084	1035.4258	1072.0212	1093.8092	1127.3149	1137.2745	1177.3413	1189.8897	1198.3324	1211.3761	1228.3385	1260.7545	1306.987	1448.3999	1497.0753	1535.7334	1893.7327	3036.6797	3048.957	3051.0695	3054.2293	3089.5511	3114.4063	3117.281	3121.5354
O=C1CC23CC(C2)C13	O=C1C[C@@]23C[C@@H](C2)[C@@H]13	
InChI=1S/C7H8O/c8-5-3-7-1-4(2-7)6(5)7/h4,6H,1-3H2	InChI=1S/C7H8O/c8-5-3-7-1-4(2-7)6(5)7/h4,6H,1-3H2/t4-,6-,7+/m0/s1
