19
gdb 100252	2.28663	0.98539	0.85955	1.8161	76.54	-0.2418	0.0327	0.2745	1460.1291	0.155783	-460.125716	-460.114685	-460.113741	-460.162935	38.782	
C	 0.0621929213	 1.4841510421	 0.0501883869	-0.501876
C	 0.0471259009	 0.0283376004	 0.0251293611	 0.072065
C	-0.0018736417	-1.1754169912	-0.0107555278	 0.076601
C	 0.0278709063	-2.6396103318	-0.0365184293	 0.102336
O	-1.2968106162	-3.1543493111	-0.0415428883	-0.460973
C	 0.7606298774	-3.114806861	-1.3151690643	-0.107903
O	 0.5758180348	-4.5156522222	-1.4951795598	-0.431383
C	 0.7509468464	-3.1497259024	 1.2362869488	-0.105725
O	 2.077742037	-2.6747323435	 1.3459716139	-0.419233
H	 1.0082561804	 1.8782321031	-0.3365679035	 0.151448
H	-0.7446033704	 1.8927860251	-0.567612902	 0.158349
H	-0.0694797183	 1.8685561087	 1.0673025687	 0.152836
H	-1.2199725491	-4.0212028981	-0.4667874699	 0.28841
H	 0.3079084827	-2.6300603403	-2.1834297753	 0.123932
H	 1.8192968148	-2.8425987731	-1.2595461075	 0.118339
H	 1.2316862387	-4.9784530209	-0.9643703592	 0.298364
H	 0.1327772838	-2.8843102625	 2.1040659682	 0.107982
H	 0.8102340812	-4.2430898784	 1.194846185	 0.091209
H	 2.0267929999	-1.7108821429	 1.3515112242	 0.285222
27.7775	81.8825	87.4995	93.5904	182.1654	227.9787	264.6329	304.3243	320.981	322.2156	366.5309	407.7176	442.229	461.8155	505.2761	551.9844	607.8116	726.2607	858.2335	911.8436	1012.7463	1051.0602	1054.1601	1058.6966	1081.9678	1100.9991	1126.602	1178.9981	1208.1671	1253.7899	1354.3781	1373.1384	1394.5819	1410.2711	1417.6889	1431.7251	1476.2807	1478.0232	1484.5767	1504.9625	2362.0013	3018.2121	3030.7247	3055.0822	3071.617	3092.4702	3094.8291	3117.7865	3728.7332	3778.5395	3825.2699
CC#CC(O)(CO)CO	CC#CC(O)(CO)CO	
InChI=1S/C6H10O3/c1-2-3-6(9,4-7)5-8/h7-9H,4-5H2,1H3	InChI=1S/C6H10O3/c1-2-3-6(9,4-7)5-8/h7-9H,4-5H2,1H3
