20
gdb 41872	3.26258	1.47665	1.07373	2.3667	78.41	-0.2441	0.0271	0.2712	1125.7414	0.175247	-403.178318	-403.170895	-403.169951	-403.210442	29.273	
C	-0.0461848202	 1.5318692853	-0.0485383093	-0.212367
C	 1.4384145796	 2.0249160284	-0.002806189	-0.252996
C	 2.2126656232	 0.8170563472	 0.5354864958	 0.013869
C	 3.7016294183	 0.6312821168	 0.2767798219	-0.200917
N	 4.117079913	-0.7524558862	 0.5427063205	-0.270678
C	 3.2421848154	-1.6625381735	 0.6183560346	 0.119649
O	 1.8939758169	-1.5995164642	 0.4213711784	-0.244617
C	 1.4672198866	-0.3454287754	-0.1130701698	 0.166802
C	-0.0035219937	-0.0194786929	 0.1149843321	-0.259816
H	-0.637563814	 1.9852885077	 0.7506591627	 0.109006
H	-0.5223473565	 1.8194768189	-0.98931545	 0.106583
H	 1.788946594	 2.2753624924	-1.0111181063	 0.10126
H	 1.5629687574	 2.9210556214	 0.609900089	 0.10332
H	 2.0411748888	 0.7369969016	 1.6189209966	 0.084607
H	 3.9555447764	 0.881660717	-0.762891941	 0.107537
H	 4.3129108699	 1.2865791523	 0.9070692012	 0.10981
H	 3.5260557179	-2.6821606912	 0.8728514499	 0.120722
H	 1.6886492617	-0.3548163797	-1.1917061527	 0.08164
H	-0.2763830032	-0.3176278002	 1.132354237	 0.112175
H	-0.6737990513	-0.5407590557	-0.5722380916	 0.104411
81.2382	156.9633	175.4442	330.7365	355.1848	440.0197	503.6531	540.6974	548.0703	626.7166	764.6166	808.902	855.0358	897.6638	907.0524	941.1451	961.8777	973.4326	992.2654	1009.7434	1048.1153	1108.8645	1121.437	1144.005	1159.6178	1188.9669	1197.0232	1249.3788	1266.563	1275.4978	1309.693	1324.1492	1332.2573	1336.2729	1374.9301	1398.165	1406.1386	1409.9186	1487.9799	1492.1198	1499.5778	1516.0291	1723.5876	2982.053	3001.6462	3015.1907	3038.491	3055.8507	3058.1194	3067.1675	3088.8959	3101.9855	3116.4018	3158.0863
C1CC2CN=COC2C1	C1C[C@@H]2CN=CO[C@H]2C1	
InChI=1S/C7H11NO/c1-2-6-4-8-5-9-7(6)3-1/h5-7H,1-4H2	InChI=1S/C7H11NO/c1-2-6-4-8-5-9-7(6)3-1/h5-7H,1-4H2/t6-,7+/m1/s1
