16
gdb 55499	3.4028	1.05949	0.81208	11.6833	71.02	-0.211	-0.0716	0.1394	1342.4026	0.122573	-471.254799	-471.245631	-471.244687	-471.289789	32.28	
C	 0.3297068492	 1.358384838	-0.1604979375	-0.486714
C	-0.0108172928	-0.0973890326	-0.0581555853	 0.460461
N	-0.004817539	-0.71479969	 1.110244199	-0.487325
H	-0.2193041473	-1.7293653828	 1.0889265104	 0.317847
H	 0.207794209	-0.2140672734	 1.956090208	 0.282438
N	-0.294225669	-0.7814685833	-1.1466749077	-0.297626
C	-0.5927623859	-2.1517153954	-1.238199465	 0.231291
N	-0.6289987353	-2.9151791508	-0.2227472922	-0.545223
C	-0.8494962552	-2.4973651113	-2.7400167751	 0.384481
O	-1.1227297021	-3.6722406333	-2.9626521687	-0.436926
O	-0.7235375633	-1.4722537162	-3.4635619953	-0.504058
H	 1.4152637102	 1.4746626942	-0.2471852354	 0.182516
H	-0.1323912342	 1.7982338311	-1.0451418427	 0.18034
H	-0.0037106824	 1.900056887	 0.7275795421	 0.157065
H	-0.3480481697	-0.455638744	-2.1516416512	 0.303591
H	-0.8674996923	-3.8511997971	-0.5665788633	 0.257842
47.3322	82.9158	114.3355	137.8102	175.7696	305.9627	337.6083	373.8624	460.792	505.1524	512.1292	571.392	607.0829	738.7448	815.8498	874.4784	877.184	886.8028	960.5386	1012.2077	1016.4054	1059.8722	1062.8298	1077.213	1244.3145	1327.9929	1384.3973	1415.3842	1459.972	1483.7702	1514.8	1572.2237	1686.3954	1747.1258	1814.1241	2960.9833	3054.7902	3124.6408	3128.7808	3157.7508	3426.615	3684.9122
CC(=[NH2+])NC(=N)C([O-])=O	CC(=[NH2])NC(=N)C(=O)[O]	
InChI=1S/C4H7N3O2/c1-2(5)7-3(6)4(8)9/h1H3,(H,8,9)(H3,5,6,7)	InChI=1S/C4H7N3O2/c1-2(5)7-3(6)4(8)9/h5H2,1H3,(H2,6,7)
