13
gdb 127214	3.4472	1.30928	0.95465	4.8805	62.5	-0.2701	-0.102	0.1682	1120.0935	0.08812	-489.900307	-489.892215	-489.891271	-489.933597	27.697	
C	-0.0193732944	 1.439121025	 0.0388192696	-0.361162
N	-0.0004918757	-0.0131410024	 0.0488169412	-0.199819
C	-0.017946619	-0.769689633	-1.1145627273	 0.51381
O	-0.0483874765	-0.4112342556	-2.2555982133	-0.388704
O	 0.0077597802	-2.0780603336	-0.6819015329	-0.218763
N	 0.0402396399	-2.1313930137	 0.7128501429	-0.133862
C	 0.0338519831	-0.8935290004	 1.1039122693	 0.304564
C	 0.0617620685	-0.4928432551	 2.5365910084	 0.097466
O	 0.090201647	-1.276452294	 3.446784305	-0.212435
H	 0.879720153	 1.8496898125	 0.5062711907	 0.155266
H	-0.0472249407	 1.7397102059	-1.0098937678	 0.187792
H	-0.9063912657	 1.8267155511	 0.5471673374	 0.15527
H	 0.0535931003	 0.6044236032	 2.7013619769	 0.100577
86.3176	132.7569	135.1368	184.571	214.2415	287.3198	328.7383	419.5804	552.3155	644.8824	676.2619	763.968	781.217	804.9081	951.083	996.6265	1019.9222	1119.2266	1158.0338	1189.692	1329.6654	1399.0068	1451.0432	1490.5032	1496.7087	1510.8577	1593.9052	1826.0696	1898.7299	2920.2788	3048.1066	3117.2405	3151.1624
CN1C(=O)ON=C1C=O	Cn1c(=O)onc1C=O	
InChI=1S/C4H4N2O3/c1-6-3(2-7)5-9-4(6)8/h2H,1H3	InChI=1S/C4H4N2O3/c1-6-3(2-7)5-9-4(6)8/h2H,1H3
