14
gdb 49394	6.12006	1.04672	1.01359	2.1616	67.86	-0.2424	-0.0185	0.2239	1121.2771	0.100378	-436.620236	-436.613319	-436.612375	-436.651988	26.02	
O	 0.136482534	 0.0289678403	 0.5034274232	-0.3059
C	 0.057403791	 1.1960625915	 0.1940421799	 0.129898
N	 1.0321970212	 1.8907230799	-0.4805434994	-0.082712
C	 2.4925355891	 1.6720387671	-0.3200735378	-0.006603
C	 2.8232803433	 3.0215545873	-1.0619982586	-0.21326
C	 1.5591262322	 3.2435146169	-0.1515063865	-0.024638
C	 2.6300993369	 2.7005587643	 0.8786929768	-0.218065
C	 3.7208607189	 3.4312574925	 0.101840817	 0.455689
O	 4.7404171662	 4.0152838427	 0.2971464398	-0.315036
H	-0.8536297887	 1.8101217946	 0.3470541972	 0.08015
H	 2.9801633751	 0.7081112749	-0.4303945356	 0.137699
H	 2.8787666493	 3.1715589707	-2.1366490318	 0.118247
H	 0.9458724577	 4.1388064848	-0.0727601387	 0.124423
H	 2.4782086037	 2.4945898625	 1.9353385246	 0.120106
89.3276	131.7342	224.3931	269.1398	393.187	512.2126	624.713	659.3183	689.6464	764.5205	788.5539	810.5287	814.4671	846.0064	949.4345	980.3467	1021.3447	1029.4612	1040.0768	1101.1505	1107.3879	1119.9711	1138.2834	1172.1727	1200.0754	1208.8043	1282.047	1365.5345	1417.6596	1793.9691	1930.9745	2927.8571	3145.7472	3162.7815	3168.9405	3179.1743
O=CN1C2C3C1C2C3=O	O=CN1[C@H]2[C@H]3[C@@H]1[C@@H]2C3=O	
InChI=1S/C6H5NO2/c8-1-7-4-2-5(7)3(4)6(2)9/h1-5H	InChI=1S/C6H5NO2/c8-1-7-4-2-5(7)3(4)6(2)9/h1-5H/t2-,3+,4-,5+
