19
gdb 31665	2.69285	1.23782	0.89761	2.9213	80.77	-0.1818	0.0434	0.2252	1326.129	0.159624	-419.22142	-419.211844	-419.2109	-419.256512	34.662	
C	-0.6018279497	 1.0181739277	 0.0086784723	-0.31953
N	 0.406886733	-0.0253899711	-0.1987781109	-0.401671
C	 0.8936777007	-0.6481300006	 0.9850919291	 0.07688
C	 1.6939241573	-0.1859689835	 2.0150584412	-0.163412
N	 1.8805284472	-1.2111944153	 2.8999629687	 0.024353
C	 2.5656033301	-1.1086931857	 4.1681356207	-0.330422
C	 1.1963399228	-2.3355419699	 2.4668147988	-0.209627
C	 0.5859309885	-2.0061993252	 1.2803742075	 0.286939
O	-0.1667810342	-2.8017184693	 0.4791164356	-0.454728
H	-0.2478388767	 1.8681731497	 0.6129951119	 0.101269
H	-0.935019739	 1.3989875962	-0.9623074148	 0.112308
H	-1.4657598514	 0.5841119824	 0.5200902891	 0.131888
H	 1.1657019514	 0.3354503485	-0.7659351599	 0.227509
H	 2.1453366566	 0.7790810438	 2.1853716309	 0.110597
H	 1.8676539368	-0.9628352527	 5.0019528878	 0.134501
H	 3.1448688873	-2.017528528	 4.3566229757	 0.137685
H	 3.255442545	-0.2622053895	 4.1396722149	 0.135402
H	 1.2191496361	-3.2553401408	 3.0262583163	 0.113208
H	-0.3633152518	-2.2490204067	-0.2933683348	 0.28685
42.0278	84.2168	134.8782	166.7142	180.8214	261.0753	295.6015	302.9233	401.9256	537.5916	543.5191	594.3712	612.1488	622.7722	635.5066	714.1763	734.4766	794.8305	835.1581	1015.9585	1040.8472	1090.3146	1144.481	1149.4341	1163.0282	1181.7283	1194.819	1240.3104	1292.3608	1388.9951	1431.4745	1441.8931	1452.5101	1473.4475	1478.3565	1486.6619	1492.8371	1515.65	1521.1358	1583.9311	1652.6195	2978.6239	3020.843	3067.0492	3085.4949	3110.4999	3126.2546	3249.9875	3272.2712	3522.9324	3705.3416
CNC1=CN(C)C=C1O	CNc1cn(C)cc1O	
InChI=1S/C6H10N2O/c1-7-5-3-8(2)4-6(5)9/h3-4,7,9H,1-2H3	InChI=1S/C6H10N2O/c1-7-5-3-8(2)4-6(5)9/h3-4,7,9H,1-2H3
