17
gdb 99344	3.62013	0.71492	0.60382	0.7036	71.87	-0.2569	-0.0041	0.2528	1752.9692	0.134072	-455.171001	-455.160687	-455.159743	-455.20841	33.881	
C	-0.4717056498	 1.227681267	 0.5097786432	-0.33579
N	-0.8955246199	-0.1349449845	 0.256214947	-0.299072
C	-0.4705565899	-0.8415835477	-0.8159848894	 0.367832
O	 0.2942929929	-0.4376097527	-1.6733752765	-0.379342
C	-1.0246553834	-2.2638720933	-0.9176154175	-0.156337
O	-1.8945630662	-2.5577942754	 0.1632493691	-0.251865
C	-2.4254849348	-3.8595929714	 0.1047501452	-0.185402
C	-3.3068067814	-4.0678078257	 1.2568660391	 0.263031
N	-4.0053038872	-4.2514474028	 2.157274771	-0.284909
H	 0.0534673143	 1.3072170507	 1.4677249902	 0.13058
H	 0.2062287422	 1.5159374637	-0.2943986722	 0.171132
H	-1.3264648454	 1.9125495979	 0.5213921732	 0.130582
H	-1.5309559386	-0.5936686374	 0.8895777993	 0.266554
H	-1.5469155271	-2.3522315736	-1.8812395981	 0.132303
H	-0.170382341	-2.9559315985	-0.9375528289	 0.132304
H	-3.0052512483	-4.0168828137	-0.8186840985	 0.149208
H	-1.6291307665	-4.6205242026	 0.1248361035	 0.149191
41.1261	64.0969	82.8192	85.6364	104.0069	165.0514	206.2356	301.5502	334.4092	384.0496	433.4403	531.5568	599.2182	640.1751	668.4861	877.1016	956.2681	1016.2075	1044.8173	1048.0832	1108.7984	1149.8284	1154.7396	1181.6524	1243.6498	1257.4755	1273.7847	1359.73	1427.2259	1441.9782	1483.5154	1496.9603	1499.6842	1506.6487	1578.5602	1791.1695	2375.6997	2979.7653	2999.6437	3007.4792	3031.5573	3037.7794	3084.9743	3153.5426	3640.4459
CNC(=O)COCC#N	CNC(=O)COCC#N	
InChI=1S/C5H8N2O2/c1-7-5(8)4-9-3-2-6/h3-4H2,1H3,(H,7,8)	InChI=1S/C5H8N2O2/c1-7-5(8)4-9-3-2-6/h3-4H2,1H3,(H,7,8)
