17
gdb 124473	3.2241	1.20893	1.08669	2.8822	69.59	-0.2706	-0.0397	0.2309	1152.4323	0.133643	-455.127468	-455.118638	-455.117694	-455.161006	32.875	
C	-0.2459691861	 1.490551342	-0.1022025145	-0.429078
C	 0.0253177763	-0.0141920131	 0.0268156251	 0.227825
C	 0.8734391176	-0.317226271	 1.2677686517	-0.39156
O	-1.1956386799	-0.7383008414	 0.2035517121	-0.45097
C	 0.7128229358	-0.5373081622	-1.2116900503	 0.244026
C	 0.438950729	-1.628794253	-1.9725698047	-0.062455
O	 1.3255915087	-1.7034731678	-2.9641066988	-0.163463
N	 2.2011608134	-0.5889067888	-2.7995690675	-0.004903
N	 1.8185836641	 0.0532954639	-1.7878913675	-0.19476
H	 0.6859351627	 2.0433501704	-0.243890249	 0.147168
H	-0.8868109133	 1.696796004	-0.9672772533	 0.111633
H	-0.7456009296	 1.8538836918	 0.7999072279	 0.125334
H	 0.381157217	 0.0795247535	 2.1597167196	 0.123294
H	 0.9917632349	-1.3973605579	 1.3854123449	 0.127584
H	 1.8636370786	 0.1356228398	 1.1735244606	 0.134515
H	-1.8378987706	-0.3905301195	-0.4250824831	 0.280367
H	-0.3146363985	-2.3950957108	-1.9150049934	 0.175442
56.9919	147.7712	179.7649	225.3687	270.9707	324.8867	326.4264	347.284	361.36	477.2953	491.6594	613.4136	640.0784	654.9386	741.6765	860.08	865.8748	935.7155	972.2331	984.6387	1017.9041	1036.0297	1116.7404	1141.1222	1163.3571	1209.4632	1296.0278	1319.9439	1361.4924	1396.5084	1413.7305	1454.3931	1479.5867	1480.3152	1496.2858	1505.4341	1611.0056	3034.21	3048.5861	3106.475	3126.8577	3131.1197	3135.8126	3299.115	3802.7359
CC(C)(O)C1=CON=N1	CC(C)(O)c1conn1	
InChI=1S/C5H8N2O2/c1-5(2,8)4-3-9-7-6-4/h3,8H,1-2H3	InChI=1S/C5H8N2O2/c1-5(2,8)4-3-9-7-6-4/h3,8H,1-2H3
