14
gdb 81726	3.19132	1.32442	1.0448	4.5097	68.75	-0.2579	-0.0457	0.2121	1089.9029	0.100114	-436.679567	-436.671491	-436.670546	-436.71243	29.364	
O	-0.1426065659	 1.4845461093	 0.1247874645	-0.421787
C	-0.02927801	 0.0921639441	 0.0065350365	-0.007235
C	-1.3606858367	-0.6576008266	 0.0467104034	-0.105101
C	-2.1915160174	-0.2713939071	-1.1154397721	-0.304231
C	-1.0729185977	-1.3004007291	-1.3539153194	 0.075734
C	-1.3355368532	-2.6142336118	-1.8336424869	 0.195578
N	-1.5282356145	-3.6870344737	-2.2225975446	-0.33952
C	 0.237014471	-0.5423168664	-1.3959319895	 0.329341
O	 1.1722843919	-0.5319197182	-2.1368985302	-0.289744
H	 0.7174248764	 1.8736355533	-0.0695270183	 0.303802
H	 0.6964614238	-0.3339848976	 0.7164434667	 0.112349
H	-1.7522700907	-1.1874850101	 0.9037588054	 0.135785
H	-3.1865117846	-0.6988125018	-1.166874702	 0.157489
H	-2.0919263824	 0.7167053955	-1.5501410736	 0.157541
88.1104	132.679	168.817	214.8934	264.2131	289.3392	404.2005	467.6289	539.6836	567.5335	615.0481	642.3102	783.3862	816.092	856.3782	891.2489	969.3409	985.3293	1026.6243	1059.3713	1101.579	1148.7189	1169.2751	1238.4748	1283.0955	1287.9904	1367.8577	1414.2933	1491.8273	1897.3396	2349.6288	2994.8523	3145.1352	3223.7858	3237.5411	3811.3721
OC1C2CC2(C#N)C1=O	O[C@H]1[C@H]2C[C@@]2(C#N)C1=O	
InChI=1S/C6H5NO2/c7-2-6-1-3(6)4(8)5(6)9/h3-4,8H,1H2	InChI=1S/C6H5NO2/c7-2-6-1-3(6)4(8)5(6)9/h3-4,8H,1H2/t3-,4+,6+/m1/s1
