19
gdb 6485	3.51009	1.39722	1.2451	2.3846	71.55	-0.241	-0.0167	0.2243	1053.7545	0.163401	-365.061042	-365.051924	-365.05098	-365.095256	32.944	
C	 0.3657585052	 1.0075103782	-1.1827937719	-0.487535
C	-0.8592436899	 0.1193546061	-1.0501339864	 0.389216
O	-1.8242957443	 0.4555556587	-0.4041937077	-0.297176
C	-0.8217782337	-1.2309010952	-1.7731246871	-0.359326
C	 0.2195800425	-2.1910577238	-1.2063064422	 0.328025
C	 0.0472789353	-2.5373931464	 0.2591908886	-0.439433
C	 0.8131278762	-3.1983691613	-2.1225409176	-0.282713
N	 1.6262006297	-2.061743113	-1.6436240928	-0.344948
H	 1.2563266286	 0.4906281636	-0.8092270204	 0.161215
H	 0.5514926463	 1.2431307623	-2.2374597042	 0.131463
H	 0.2124761321	 1.9318853437	-0.6249372433	 0.142936
H	-1.8221426043	-1.6658633306	-1.6863001107	 0.124392
H	-0.6145435322	-1.060112506	-2.8377356811	 0.099969
H	-0.9129695861	-3.0361061961	 0.4289472551	 0.122647
H	 0.850773282	-3.1997983063	 0.5886053439	 0.128246
H	 0.0697416351	-1.6406682669	 0.8876949751	 0.128198
H	 1.1127121544	-4.1688708621	-1.7362439566	 0.119402
H	 0.4914071972	-3.2070580742	-3.1608711427	 0.110467
H	 1.7042643658	-1.3701742108	-2.3856788977	 0.224956
43.9742	81.5231	144.0687	172.6126	198.6307	318.2015	323.124	365.1162	394.5965	453.2195	515.2928	577.4135	725.3531	787.56	825.0663	872.3506	914.7195	929.2863	969.9564	998.1186	1027.0569	1064.4991	1086.1547	1111.1139	1139.4542	1178.7011	1242.2994	1262.7877	1299.7475	1338.391	1381.5118	1386.593	1425.7367	1460.2322	1470.7398	1478.922	1488.7833	1493.3751	1515.6036	1812.9863	3021.2941	3035.2829	3036.7976	3091.0711	3097.9983	3098.2642	3105.4963	3127.9794	3153.0809	3189.7747	3493.0295
CC(=O)CC1(C)CN1	CC(=O)C[C@@]1(C)CN1	
InChI=1S/C6H11NO/c1-5(8)3-6(2)4-7-6/h7H,3-4H2,1-2H3	InChI=1S/C6H11NO/c1-5(8)3-6(2)4-7-6/h7H,3-4H2,1-2H3/t6-/m0/s1
