18
gdb 62453	3.56585	1.1977	1.15731	3.2291	76.45	-0.2679	0.0327	0.3006	1117.9951	0.148876	-401.95768	-401.949552	-401.948608	-401.990143	30.831	
C	-0.034741014	 1.5650036502	 0.0100636215	-0.482726
C	 0.057624806	 0.0439960719	 0.0280385526	 0.138995
C	-1.1580375566	-0.6055622016	-0.4066299219	 0.241092
N	-2.1360983254	-1.115944966	-0.7556879438	-0.344969
C	 1.3263708735	-0.7339043276	-0.3293444061	-0.098498
C	 2.6424535625	 0.0199080482	-0.2956904786	-0.11265
O	 2.6897596737	 0.691133739	 0.9615182873	-0.252477
C	 1.8690663287	-0.0012057712	 1.8998663428	-0.112638
C	 0.8268909055	-0.7474720561	 1.0884392072	-0.098511
H	 0.8978299001	 2.0201862314	 0.3429831287	 0.157451
H	-0.2564232843	 1.9184630617	-1.0012763956	 0.136496
H	-0.8434763558	 1.9025220771	 0.6649816433	 0.136502
H	 1.2345124504	-1.59549156	-0.9788078454	 0.117913
H	 3.4712235741	-0.6980458813	-0.396034888	 0.10789
H	 2.7519803086	 0.7804529735	-1.0757008008	 0.120156
H	 2.456304109	-0.7257417684	 2.4851839233	 0.1079
H	 1.4610307724	 0.7452484605	 2.5891730992	 0.120156
H	 0.3534164916	-1.6194152113	 1.5221568044	 0.117916
133.7826	158.1757	189.8111	227.2038	229.4877	261.4146	393.5859	402.0413	560.6071	561.9241	660.0186	678.8771	743.7566	848.4528	864.174	920.8631	951.4727	992.9339	993.3645	1023.6887	1031.2406	1104.9124	1110.3096	1116.6788	1129.8455	1203.3468	1226.3927	1246.4874	1284.7154	1315.4936	1356.2728	1369.5132	1409.5889	1434.0452	1498.5063	1503.2812	1517.6071	1524.201	2348.0023	2984.6927	2989.8969	3049.2533	3069.9883	3072.8297	3110.3101	3154.9249	3191.3481	3199.6006
CC1(C#N)C2COCC12	C[C@@]1(C#N)[C@H]2COC[C@@H]12	
InChI=1S/C7H9NO/c1-7(4-8)5-2-9-3-6(5)7/h5-6H,2-3H2,1H3	InChI=1S/C7H9NO/c1-7(4-8)5-2-9-3-6(5)7/h5-6H,2-3H2,1H3/t5-,6+,7+
