17
gdb 63603	4.60917	0.66449	0.64032	3.3954	84.27	-0.2702	-0.0693	0.2009	1749.6144	0.131713	-421.792049	-421.782056	-421.781112	-421.827988	34.472	
C	-0.1276843133	 1.5370392111	-0.0605998642	-0.456681
C	-0.0547563166	 0.0307577349	 0.0364754002	 0.403893
C	-1.192629047	-0.7323617098	-0.6057974604	-0.452102
O	 1.2413824915	-0.5360354006	-0.1680142408	-0.268661
C	 0.6845645377	-0.6226689615	 1.1552734667	-0.247245
C	 1.3220477953	 0.1219952721	 2.2009218966	 0.113827
C	 1.836047824	 0.7195317251	 3.1179684684	 0.094845
C	 2.4764767184	 1.4541081556	 4.1774104016	 0.015965
O	 2.2205311462	 1.3235393467	 5.3526813303	-0.228103
H	 0.7312527902	 2.0046778064	 0.4227206021	 0.139753
H	-0.1433446771	 1.8397081076	-1.1128318659	 0.131497
H	-1.0431497291	 1.9092870294	 0.4102753864	 0.129753
H	-1.250349731	-0.4893542976	-1.672147394	 0.133855
H	-1.0462465241	-1.8105326365	-0.5086812877	 0.133179
H	-2.1491414204	-0.4622544831	-0.1471614603	 0.130717
H	 0.3696691915	-1.6261322525	 1.4408387221	 0.121799
H	 3.2457355238	 2.1715941226	 3.8266850791	 0.103708
47.1807	77.3956	89.9593	164.76	181.4015	203.7331	242.3721	291.1453	354.7773	395.9763	413.3607	488.6098	570.7183	643.7093	707.7939	805.4219	866.892	914.1891	950.3745	1005.4057	1019.391	1048.6721	1086.5441	1144.8204	1189.3396	1263.0078	1330.4755	1409.7871	1419.6624	1420.3737	1423.4437	1472.5973	1482.6613	1495.371	1507.221	1764.5503	2318.1738	2922.4842	3038.9277	3044.5412	3103.468	3108.513	3112.5207	3129.4402	3144.2426
CC1(C)OC1C#CC=O	CC1(C)O[C@H]1C#CC=O	
InChI=1S/C7H8O2/c1-7(2)6(9-7)4-3-5-8/h5-6H,1-2H3	InChI=1S/C7H8O2/c1-7(2)6(9-7)4-3-5-8/h5-6H,1-2H3/t6-/m0/s1
