21
gdb 108925	3.7395	1.01234	0.91224	1.972	84.99	-0.2314	0.0105	0.2419	1388.4443	0.181469	-387.097669	-387.088531	-387.087587	-387.131561	34.791	
C	-0.4558316602	 1.44742814	 0.0059440225	-0.375616
C	 0.1394073548	 0.0294114453	 0.056965565	-0.283436
C	 0.8470023487	-0.3738317988	-1.202342886	 0.329266
C	 2.1261615981	-0.7490729946	-1.3230875382	-0.264724
C	 2.4433005075	-1.1829147639	-2.7204258627	 0.410009
C	 3.8334959413	-1.115110913	-3.2850044236	-0.49121
O	 1.6467564855	-2.3327864468	-3.1236958182	-0.302972
C	 1.1878484116	-1.0255717281	-3.4785489387	-0.030237
C	 0.1290716118	-0.4549212283	-2.5452782371	-0.343269
H	 0.3251208474	 2.1937565336	-0.1711306921	 0.120212
H	-1.1976438218	 1.5434286395	-0.7931097149	 0.120184
H	-0.9518678261	 1.6928463252	 0.9497768499	 0.115261
H	 0.8340837869	-0.048184405	 0.9006930837	 0.103457
H	-0.6715425281	-0.6853978239	 0.2574931425	 0.108243
H	 2.8477037493	-0.784373047	-0.5142165213	 0.089056
H	 4.5068355186	-1.786041715	-2.7398643312	 0.126977
H	 3.8358899587	-1.4142173984	-4.3359235653	 0.129427
H	 4.236380222	-0.0998029081	-3.2053278259	 0.122589
H	 1.1581002615	-0.8155721922	-4.5453098349	 0.08723
H	-0.7599695838	-1.0962695384	-2.4951272926	 0.119892
H	-0.2087898336	 0.5307963378	-2.8898575112	 0.109663
60.2798	124.2333	183.7644	198.2265	237.0968	238.5822	293.9847	377.9402	422.1138	506.1149	514.9768	584.7421	641.3605	728.4872	781.8355	819.6754	870.6138	871.1802	912.7253	938.1555	963.2675	982.9872	1024.6749	1058.008	1065.362	1094.8302	1106.8843	1165.4605	1193.0064	1235.8281	1281.2738	1293.1038	1321.1307	1344.7631	1355.3655	1407.8458	1408.3085	1443.7211	1459.4927	1476.7149	1484.3613	1495.2313	1498.8874	1506.7159	1695.5342	3007.0146	3024.7277	3033.9773	3037.1816	3058.3383	3061.8151	3094.4433	3108.4093	3109.3144	3123.9039	3136.9961	3190.5331
CCC1=CC2(C)OC2C1	CCC1=C[C@@]2(C)O[C@H]2C1	
InChI=1S/C8H12O/c1-3-6-4-7-8(2,5-6)9-7/h5,7H,3-4H2,1-2H3	InChI=1S/C8H12O/c1-3-6-4-7-8(2,5-6)9-7/h5,7H,3-4H2,1-2H3/t7-,8+/m0/s1
