12
gdb 22461	2.56893	0.91564	0.67504	0.536	94.77	-0.2384	-0.0757	0.1627	1531.3966	0.073555	-398.210974	-398.201866	-398.200922	-398.245286	32.646	
O	-0.0383495454	 1.3439159155	 0.0094445846	-0.366305
N	 0.0854956275	-0.0257992178	 0.0009224502	-0.158857
C	-1.0715232529	-0.6165301115	 0.0088397238	 0.017083
C	-1.0771634313	-2.043396206	 0.0012513452	 0.287506
C	-1.1331585439	-3.2446282641	-0.0046459828	-0.460781
C	-2.3212360857	 0.0595484729	 0.0244281229	 0.641076
C	-3.3939813459	 0.6245053029	 0.0377266123	-0.432175
C	-4.5963563169	 1.2530131454	 0.0526068505	 0.316222
C	-5.6665315211	 1.8133195811	 0.0658593556	-0.574663
H	 0.8801167849	 1.6389786147	 0.0022274288	 0.320481
H	-1.1715600142	-4.3061091023	-0.0099657224	 0.209636
H	-6.6079961651	 2.3046411793	 0.0775058515	 0.200778
59.5235	108.5435	158.7898	194.9771	202.0823	304.5252	367.2059	423.5661	493.8176	494.5222	508.4256	566.1293	577.0733	598.2811	605.5741	615.7576	654.6392	669.4424	719.9252	1037.8637	1057.1489	1308.539	1393.8912	1610.5593	2178.1542	2236.8808	2337.8764	3501.221	3502.0891	3799.8301
ON=C(C#C)C#CC#C	ON=C(C#C)C#CC#C	
InChI=1S/C7H3NO/c1-3-5-6-7(4-2)8-9/h1-2,9H	InChI=1S/C7H3NO/c1-3-5-6-7(4-2)8-9/h1-2,9H
