20
gdb 12021	4.12481	1.21303	1.16454	1.8177	76.21	-0.2508	0.0898	0.3406	1153.1116	0.174995	-348.9838	-348.974888	-348.973944	-349.017294	33.122	
C	-0.0876343738	 1.5375273915	-0.1174420319	-0.454997
C	-0.0810928202	 0.0392515522	 0.0974319839	 0.384408
C	-1.226821294	-0.7004941395	-0.5624112702	-0.450305
O	 1.2004453001	-0.6018283315	-0.0510064503	-0.305311
C	 0.5976422764	-0.5834952553	 1.2515001127	 0.017173
C	 1.3084378848	 0.1416263931	 2.3428982927	-0.011041
C	 0.8214360377	-0.0200985069	 3.7650338858	-0.269193
C	 2.1216160364	-0.6486027292	 3.3422138756	-0.264497
H	 0.7933455108	 2.0139936685	 0.3145607163	 0.127451
H	-0.0982325325	 1.7617203345	-1.1898326799	 0.122956
H	-0.9822112601	 1.9885111043	 0.3257721447	 0.119365
H	-1.2216291801	-0.5265297089	-1.6442657283	 0.122459
H	-1.1457370213	-1.7766225809	-0.3905601075	 0.124385
H	-2.1910693898	-0.3556608972	-0.1731042277	 0.117474
H	 0.2143245845	-1.5593690221	 1.5659679607	 0.073071
H	 1.7021553722	 1.1146290923	 2.0726262152	 0.087139
H	 0.8480296172	 0.8478575715	 4.4139418039	 0.114771
H	-0.0265907329	-0.6751463141	 3.9374811817	 0.112972
H	 2.1509688554	-1.726970831	 3.2257253123	 0.116579
H	 3.0484627292	-0.2146606414	 3.6996692104	 0.115142
62.6368	131.9756	148.6773	173.0431	203.9327	300.5757	353.4074	366.7872	408.6777	446.9548	530.7973	704.1265	765.7055	820.2969	831.4645	886.6176	912.2582	927.1985	945.6575	973.4346	1006.5098	1061.1134	1070.3924	1080.6248	1122.7409	1131.2622	1153.3496	1194.8998	1198.0591	1224.4623	1263.7102	1331.8352	1373.3353	1407.5467	1418.0241	1470.3616	1471.4901	1475.4078	1485.8065	1499.3098	1503.9505	1527.8392	3030.8148	3037.9437	3053.0073	3091.7779	3097.1475	3121.0549	3131.9131	3136.0306	3138.1114	3173.4014	3210.3737	3225.9101
CC1(C)OC1C1CC1	CC1(C)O[C@H]1C1CC1	
InChI=1S/C7H12O/c1-7(2)6(8-7)5-3-4-5/h5-6H,3-4H2,1-2H3	InChI=1S/C7H12O/c1-7(2)6(8-7)5-3-4-5/h5-6H,3-4H2,1-2H3/t6-/m0/s1
