16
gdb 23486	4.10845	1.32106	1.17197	1.9815	71.27	-0.2315	0.0011	0.2326	1038.2931	0.125254	-437.803262	-437.796366	-437.795422	-437.834545	27.758	
O	-0.1094955768	 1.3109529446	-0.1028039409	-0.388549
N	 0.016250941	-0.086314326	-0.0377920257	-0.258001
C	-1.1221456399	-0.6463369562	 0.0305173065	 0.478763
C	-2.5126270387	-0.038255575	 0.0838950191	-0.324772
C	-3.3846265327	-1.2256290709	 0.4871363571	-0.103277
C	-3.247208593	-2.5112374623	-0.3082259684	 0.103809
O	-2.0608931022	-2.4973467302	-1.1029003432	-0.303472
C	-1.2846430652	-2.1356202184	 0.0977063945	-0.024548
C	-2.5239195177	-2.3737087044	 0.994979809	-0.156653
H	 0.8097393891	 1.5979088855	-0.1277250432	 0.308426
H	-2.5491187841	 0.7620388299	 0.8301038756	 0.130884
H	-2.7879269326	 0.4051736434	-0.8785742425	 0.135641
H	-4.3432309784	-1.0537195356	 0.9633859655	 0.095303
H	-4.0711121306	-3.133847291	-0.636297266	 0.107801
H	-0.3805076936	-2.7315198344	 0.2033549658	 0.094673
H	-2.5880351144	-2.886001599	 1.9440903967	 0.103971
104.3086	216.833	257.3287	374.7561	424.8478	458.5243	474.2706	580.2193	698.5131	724.8035	747.8673	800.2848	805.4315	846.3374	869.5532	916.0582	957.3807	979.3789	990.5797	1013.2967	1035.4794	1056.1637	1076.0442	1104.7276	1178.9462	1209.1706	1228.4493	1247.5902	1269.976	1283.1709	1319.6161	1396.7258	1410.8663	1466.5288	1765.7989	3052.7869	3088.7206	3146.4064	3180.1078	3188.1378	3217.3616	3816.8189
ON=C1CC2C3OC1C23	ON=C1C[C@H]2[C@H]3O[C@@H]1[C@@H]23	
InChI=1S/C6H7NO2/c8-7-3-1-2-4-5(2)9-6(3)4/h2,4-6,8H,1H2	InChI=1S/C6H7NO2/c8-7-3-1-2-4-5(2)9-6(3)4/h2,4-6,8H,1H2/t2-,4+,5-,6+/m1/s1
