19
gdb 34869	2.20707	1.74702	1.20656	0.789	85.33	-0.2471	0.0464	0.2935	1091.4692	0.158539	-348.674125	-348.665938	-348.664994	-348.706633	32.67	
C	-0.081456367	-1.240545364	-0.0976298429	-0.473562
C	-0.0565351372	-0.0396863947	-0.0257687239	 0.347297
C	 0.0104856077	 1.4084676126	 0.0538821087	-0.285302
C	-0.2552265037	 2.0891710531	 1.4170028898	-0.048019
C	 0.8121370172	 1.7444219838	 2.4147898016	-0.287213
C	 1.1082700253	 2.7808593118	 1.3634629016	-0.141089
C	 1.4123720685	 2.0948571281	 0.0483070149	 0.392149
C	 2.7115125318	 1.5197007752	-0.423829065	-0.328397
C	 2.0768631802	 2.6850731589	-1.155156354	-0.345331
H	-0.1183781905	-2.3001142636	-0.1549658657	 0.193355
H	-0.6202543321	 1.8539510297	-0.7227885446	 0.103148
H	-1.2162095702	 2.4916031086	 1.7107887867	 0.092722
H	 0.6418050843	 2.1289332185	 3.4154412975	 0.110533
H	 1.3015570737	 0.7748163867	 2.3812228918	 0.121076
H	 1.3577449497	 3.8068611465	 1.6064942098	 0.088536
H	 3.6006237513	 1.7076875416	 0.1695184678	 0.111604
H	 2.6836346267	 0.5441966831	-0.8985907779	 0.122622
H	 1.6352881507	 2.5000297013	-2.1297563731	 0.113756
H	 2.5362638838	 3.663673623	-1.0544705033	 0.112115
98.3219	127.2447	181.2939	253.1804	290.7874	355.443	469.0038	476.9474	548.752	602.403	620.4427	631.3339	742.8384	769.2163	790.9181	817.9905	891.4673	917.7679	933.4237	949.2002	980.8372	993.856	1011.9428	1050.579	1056.8241	1064.6511	1076.5816	1081.8906	1087.3997	1172.3575	1187.1513	1205.7099	1226.5419	1281.5236	1319.0622	1345.3424	1399.6515	1461.8801	1485.8086	1503.1912	2228.2386	3047.3691	3116.5208	3119.0679	3125.8265	3178.6537	3190.8821	3198.1154	3206.9847	3215.1365	3503.0893
C#CC1C2CC2C11CC1	C#C[C@H]1[C@H]2C[C@H]2C21CC2	
InChI=1S/C9H10/c1-2-7-6-5-8(6)9(7)3-4-9/h1,6-8H,3-5H2	InChI=1S/C9H10/c1-2-7-6-5-8(6)9(7)3-4-9/h1,6-8H,3-5H2/t6-,7+,8-/m1/s1
