16
gdb 125292	2.67096	1.71784	1.05217	1.3414	73.18	-0.2447	-0.0158	0.2289	1082.0295	0.125677	-434.141035	-434.132647	-434.131703	-434.174314	30.745	
C	-0.0322033478	 1.5278959223	-0.0143150884	-0.47229
C	-0.0120045283	 0.0361238439	-0.0417952218	 0.394365
C	-0.0227571408	-0.8247576825	-1.1156360046	-0.317619
C	 0.0069582404	-2.1256645427	-0.5624741907	 0.010127
N	 0.0343074332	-2.0975239507	 0.7568572673	-0.277407
N	 0.023100291	-0.7692440287	 1.0744648385	-0.115728
C	 0.046932474	-0.3642509208	 2.4425182776	 0.510409
N	 0.0772382231	-1.415748989	 3.2889823553	-0.560861
O	 0.0385824135	 0.8062593029	 2.7563079536	-0.386018
H	 0.8482044915	 1.9315856486	 0.4917731615	 0.153458
H	-0.0594710847	 1.9031727639	-1.0400953261	 0.120156
H	-0.9009776417	 1.907247445	 0.5293262772	 0.153411
H	-0.0486742057	-0.5454178395	-2.1566973168	 0.109839
H	 0.0092156916	-3.0759566456	-1.0772143653	 0.122021
H	 0.0840445308	-2.3532382788	 2.9215458423	 0.284683
H	 0.09856682	-1.2252305683	 4.2741896104	 0.271456
57.2667	145.1234	185.7573	204.072	235.2434	276.6624	344.6851	442.8898	517.2221	610.5514	649.5556	667.3057	675.3056	699.2837	773.4202	806.203	905.6804	931.6134	1008.2482	1061.7593	1067.9995	1087.9984	1146.8915	1223.5388	1240.6796	1338.0537	1383.305	1412.6435	1422.4452	1472.6415	1479.2424	1508.0146	1579.4286	1600.4504	1831.4334	3054.1808	3119.4977	3132.7621	3238.6549	3267.6539	3603.2095	3757.4229
CC1=CC=NN1C(N)=O	Cc1ccnn1C(=O)N	
InChI=1S/C5H7N3O/c1-4-2-3-7-8(4)5(6)9/h2-3H,1H3,(H2,6,9)	InChI=1S/C5H7N3O/c1-4-2-3-7-8(4)5(6)9/h2-3H,1H3,(H2,6,9)
