21
gdb 85872	2.00552	1.66332	1.26993	1.5669	78.3	-0.2477	0.0808	0.3284	1139.0642	0.17913	-424.203723	-424.193932	-424.192988	-424.237945	36.722	
C	 0.3173318841	 1.5900739802	-0.1449720299	-0.412308
C	 0.0566521441	 0.1139060509	 0.0800987572	 0.083573
O	 0.7973513776	-0.7368680637	-0.831811373	-0.358651
C	 1.3629111965	-1.5487617602	 0.246204194	 0.331241
C	 0.7721091327	-2.9531544461	 0.2476251407	-0.419305
C	 2.8830836516	-1.5503273418	 0.1768155306	-0.430066
C	 0.7143517757	-0.5951135107	 1.2603589103	 0.316175
C	 1.1708000846	-0.1026167037	 2.5571609584	-0.264456
O	 0.0489067637	-0.9960515282	 2.4377435755	-0.268237
H	 1.3816688296	 1.8210776462	-0.0431238071	 0.11888
H	-0.002727076	 1.8799912154	-1.1505489803	 0.131096
H	-0.2455658073	 2.1929143143	 0.5760177051	 0.119536
H	-1.020681663	-0.0993943217	 0.0260086451	 0.086419
H	 1.0739456358	-3.4850968047	-0.6599165891	 0.120773
H	 1.1218900677	-3.5191766762	 1.1165648865	 0.121077
H	-0.3195023564	-2.9176733038	 0.2829956259	 0.12565
H	 3.2752313647	-0.5299343299	 0.1863889143	 0.117054
H	 3.311590648	-2.0995654235	 1.0218841176	 0.11672
H	 3.2153206332	-2.0358868368	-0.7464338511	 0.127006
H	 2.0583349342	-0.5302260346	 3.0214091424	 0.118827
H	 0.926271899	 0.9110818085	 2.8715568671	 0.118994
60.1652	175.4377	181.9133	206.3593	212.6071	217.3262	249.9989	268.2638	335.47	387.0578	428.9329	488.6412	560.4187	575.9139	661.3535	823.4452	850.1604	894.4141	910.9201	931.9088	945.9279	976.2842	1000.7442	1065.9053	1083.7667	1110.2468	1130.984	1156.0336	1166.1149	1193.3329	1232.783	1286.9719	1296.1449	1382.6945	1397.123	1405.0014	1412.2143	1447.3526	1471.7564	1477.8444	1484.4234	1492.8285	1497.538	1500.4177	1543.8491	3000.9048	3034.1763	3035.2847	3042.3138	3083.9205	3104.1344	3106.8368	3114.8648	3115.5155	3117.7581	3124.4285	3169.7584
CC1OC(C)(C)C11CO1	C[C@H]1OC(C)(C)[C@]21CO2	
InChI=1S/C7H12O2/c1-5-7(4-8-7)6(2,3)9-5/h5H,4H2,1-3H3	InChI=1S/C7H12O2/c1-5-7(4-8-7)6(2,3)9-5/h5H,4H2,1-3H3/t5-,7-/m1/s1
