14
gdb 62466	3.9126	1.23677	1.21147	3.3439	62.93	-0.2592	-0.0043	0.2548	1024.091	0.1004	-473.789638	-473.781835	-473.780891	-473.822088	28.377	
O	-0.2149925473	 1.3508512601	 0.0715123877	-0.439334
C	-0.0525537747	-0.0255888723	 0.0241169468	 0.171571
C	 1.0481977343	-0.5269143037	-0.7624033958	 0.249244
N	 1.9340052097	-0.9536804754	-1.3732518525	-0.332131
C	-0.4688679887	-0.881714688	 1.2470274146	-0.025364
O	-1.1633424539	-0.2002732321	 2.2421655002	-0.263527
C	-2.3735058745	 0.3062571556	 1.6779179461	 0.032357
O	-2.519323398	-0.2485140749	 0.3771226906	-0.252107
C	-1.3333227182	-0.8861563052	 0.0391032976	 0.018446
H	 0.4091715448	 1.7086266532	 0.7148512671	 0.304455
H	 0.1488991364	-1.6954524971	 1.6052173081	 0.142242
H	-3.221638366	-0.0010067467	 2.3013973388	 0.123801
H	-2.3118135001	 1.3969800813	 1.6057511525	 0.1236
H	-1.4511297437	-1.7015425048	-0.6627225218	 0.146749
123.0598	141.253	157.8747	206.5538	245.2671	317.874	454.5844	465.5244	560.4432	602.9649	726.6463	747.496	752.3471	874.172	880.4609	941.7465	1008.4158	1068.2614	1075.1456	1121.106	1137.5745	1143.5725	1195.5176	1207.9251	1256.2391	1289.2559	1346.8789	1399.6141	1444.0597	1543.2753	2337.9509	3027.6329	3078.9272	3198.5763	3208.3305	3784.1977
OC1(C#N)C2OCOC12	O[C@@]1(C#N)[C@H]2OCO[C@@H]12	
InChI=1S/C5H5NO3/c6-1-5(7)3-4(5)9-2-8-3/h3-4,7H,2H2	InChI=1S/C5H5NO3/c6-1-5(7)3-4(5)9-2-8-3/h3-4,7H,2H2/t3-,4+,5-
