21
gdb 104442	2.97543	1.18705	1.08216	1.3375	73.52	-0.2589	0.0614	0.3203	1206.4574	0.18307	-461.358303	-461.349266	-461.348322	-461.391635	34.653	
C	-0.0786775506	 1.5611813722	-0.0066416191	-0.434924
C	-0.0123496089	 0.0259806907	-0.0117344331	 0.206153
C	-1.421143426	-0.5883368232	-0.0038857569	-0.106376
O	-2.1841502826	-0.2716259036	-1.1588776354	-0.423605
C	 0.7681496122	-0.473797645	-1.246190978	-0.097074
O	 2.1373470698	-0.0943852383	-1.1751171186	-0.239774
C	 2.7345850682	-0.5927479299	-0.0100451941	 0.014411
O	 2.1337611865	-0.1006999068	 1.1598516178	-0.240087
C	 0.7635713036	-0.4732563644	 1.2248429572	-0.112268
H	 0.9261153331	 1.9864981088	 0.0125837494	 0.146707
H	-0.5800108341	 1.9399996533	-0.9040435157	 0.104993
H	-0.6215635189	 1.928951289	 0.8719107823	 0.106962
H	-1.3503297178	-1.6821895235	 0.0058452955	 0.108062
H	-1.9482248248	-0.2888638552	 0.9166083142	 0.088933
H	-2.4178135098	 0.6603886584	-1.1152278502	 0.288067
H	 0.6898486911	-1.5726494029	-1.3135468416	 0.084921
H	 0.3670375847	-0.0497658741	-2.1682836962	 0.119093
H	 2.6916456444	-1.7000448846	-0.0118508842	 0.074073
H	 3.7718204682	-0.252573821	-0.0051852638	 0.117256
H	 0.368556485	-0.039723953	 2.1486934331	 0.108742
H	 0.6805425366	-1.5717409471	 1.2993165273	 0.085736
100.9223	152.7575	189.0164	218.6378	239.1102	314.1916	316.3135	352.4512	381.6259	419.4621	449.4142	492.9118	575.918	679.0473	786.6293	902.5605	915.7709	942.7811	956.8756	977.4807	997.2722	1020.1048	1055.7358	1084.1222	1109.2137	1174.4801	1196.412	1202.104	1229.7972	1260.4766	1281.9459	1336.5041	1345.9899	1373.1798	1389.6454	1397.0708	1414.7774	1432.1605	1442.7506	1487.5058	1490.4107	1498.1453	1500.2287	1509.6563	1515.4406	2908.496	2952.0429	2962.9562	2973.1424	3028.9425	3059.4477	3078.6129	3089.2328	3113.8154	3116.514	3136.734	3829.4469
CC1(CO)COCOC1	CC1(CO)COCOC1	
InChI=1S/C6H12O3/c1-6(2-7)3-8-5-9-4-6/h7H,2-5H2,1H3	InChI=1S/C6H12O3/c1-6(2-7)3-8-5-9-4-6/h7H,2-5H2,1H3
