19
gdb 34609	3.0129	1.39775	1.06186	0.7713	90.18	-0.2237	-0.0144	0.2093	1158.8732	0.160272	-348.732167	-348.724258	-348.723314	-348.764573	31.354	
C	 0.0045928501	-1.0371904296	 0.4802549112	-0.426311
C	-0.0647038461	 0.1460292496	 0.2601209938	 0.218687
C	-0.0800314273	 1.5381562855	-0.0019605706	 0.194902
C	-1.1676444083	 2.3246496807	-0.0715502141	-0.173365
C	-0.8390137144	 3.762661763	-0.3853182581	-0.272708
C	 0.6971631105	 3.7987706376	-0.2817732445	-0.006808
C	 1.3048392867	 3.9990117494	 1.1403558958	-0.224434
C	 2.0428690471	 2.6351147773	 1.0196861312	-0.218261
C	 1.1989934306	 2.317586917	-0.2480420235	-0.140643
H	 0.0474424128	-2.0800948867	 0.6740295317	 0.189746
H	-2.1823797195	 1.9684873712	 0.0668217488	 0.096922
H	-1.2024406822	 4.0376448101	-1.3858827121	 0.10813
H	-1.3172241394	 4.4616546631	 0.3138638224	 0.106482
H	 1.1650416269	 4.4304606377	-1.0386058992	 0.066233
H	 1.9372716412	 4.8796602748	 1.2741121608	 0.097836
H	 0.5404464408	 4.0059836134	 1.9225307	 0.102219
H	 3.1049607934	 2.7498745563	 0.7875072934	 0.09933
H	 1.944776437	 1.9386270381	 1.8558864596	 0.105723
H	 1.7526863501	 1.9211151715	-1.1044259165	 0.076321
90.7756	134.7813	170.1402	250.5697	349.8865	386.1665	499.9459	526.4478	584.3781	628.0488	631.4131	685.6703	711.9514	765.1158	807.8691	840.1645	883.433	893.6323	949.7589	958.09	985.0075	996.9369	1059.6683	1066.0573	1099.7855	1159.8419	1192.5004	1199.0531	1229.0116	1250.0391	1265.0647	1268.7346	1283.6324	1315.1199	1330.1589	1344.3695	1476.7749	1481.3516	1494.7569	1662.2531	2218.9544	3002.3975	3032.6873	3053.6543	3056.7809	3064.0077	3089.7282	3103.0954	3119.4607	3197.9463	3504.0567
C#CC1=CCC2CCC12	C#CC1=CC[C@H]2CC[C@@H]12	
InChI=1S/C9H10/c1-2-7-3-4-8-5-6-9(7)8/h1,3,8-9H,4-6H2	InChI=1S/C9H10/c1-2-7-3-4-8-5-6-9(7)8/h1,3,8-9H,4-6H2/t8-,9-/m0/s1
