23
gdb 95795	2.03548	1.66451	1.29038	3.066	80.64	-0.2448	0.054	0.2988	1134.6958	0.207257	-425.453184	-425.444042	-425.443098	-425.486141	36.635	
C	 0.0260009614	 1.5697961449	 0.057705238	-0.402116
C	 0.0939209062	 0.0395660004	 0.0384482941	-0.007713
C	 0.8007537459	-0.4995465804	-1.2188340995	 0.11642
O	 2.1323822634	 0.0483993928	-1.2264792876	-0.439234
C	 0.8339643169	-2.0337594101	-1.2385461412	-0.233732
C	 1.4582135225	-2.6119631314	 0.038952846	-0.192545
C	 0.7488619232	-2.0754556384	 1.2886509868	-0.21207
C	 0.7343544172	-0.5361423334	 1.3239900247	 0.143267
O	 2.0330480408	-0.0086794605	 1.5625937463	-0.455019
H	 1.023948872	 2.0051048563	 0.1336213892	 0.137343
H	-0.4483378989	 1.953790565	-0.8519072513	 0.101402
H	-0.5584575502	 1.9174344993	 0.9156071197	 0.109389
H	-0.9315377483	-0.3528355002	-0.0064066902	 0.071409
H	 0.2655329963	-0.1351168049	-2.1092131925	 0.063417
H	 2.6222816115	-0.3547324331	-1.9502301974	 0.287285
H	-0.1962960547	-2.3966367373	-1.351146385	 0.099043
H	 1.3771503461	-2.3766917938	-2.1299948497	 0.080904
H	 1.419670589	-3.7058849771	 0.0143872528	 0.091555
H	 2.5185751146	-2.3382897026	 0.0834413652	 0.100152
H	-0.2873309565	-2.4409778197	 1.3124938795	 0.0829
H	 1.241285475	-2.4407350659	 2.1953808975	 0.099477
H	 0.1276330939	-0.2152082214	 2.1805952148	 0.067861
H	 2.478869303	 0.0362611715	 0.7056964197	 0.290605
139.2476	162.3005	191.7235	261.2284	265.1736	271.9313	311.4136	345.1051	413.6281	422.0318	424.4716	531.0092	600.4431	609.2272	721.9983	751.5239	832.2026	849.1218	871.2671	937.1368	972.8603	978.2309	998.3428	1005.8532	1061.7246	1073.6184	1105.1131	1112.9554	1149.6115	1172.9121	1219.7138	1224.5381	1271.2864	1305.476	1322.5017	1342.3995	1359.1566	1364.6378	1369.9098	1394.2334	1396.9979	1408.228	1433.0253	1464.0165	1474.9736	1484.1525	1494.2169	1496.9449	1499.3149	2974.1783	3007.5728	3009.2411	3012.7274	3026.9574	3037.7798	3038.8856	3049.2224	3076.6938	3082.4946	3098.0153	3137.3557	3735.9092	3819.357
CC1C(O)CCCC1O	C[C@H]1[C@@H](O)CCC[C@H]1O	
InChI=1S/C7H14O2/c1-5-6(8)3-2-4-7(5)9/h5-9H,2-4H2,1H3	InChI=1S/C7H14O2/c1-5-6(8)3-2-4-7(5)9/h5-9H,2-4H2,1H3/t5-,6-,7+
