22
gdb 80576	2.40023	1.44261	1.26824	2.0425	81.95	-0.213	0.0709	0.2839	1145.1258	0.194093	-404.332161	-404.322884	-404.32194	-404.365564	36.045	
C	 0.0498069739	 1.6140518675	 0.1094214811	-0.34842
N	 0.1590090998	 0.1613022349	 0.1194785056	-0.124076
C	 1.3680980599	-0.5402721726	-0.2934737588	-0.07348
C	 2.6956258226	 0.2001694251	-0.3730647938	-0.276325
C	 3.0436310935	 0.6791042455	 1.0684715282	 0.111959
O	 3.1179686993	 2.0974116464	 1.2027149066	-0.418862
C	 1.9186559312	 0.1585286685	 1.9963773611	-0.290882
C	 0.8982830857	-0.5857291023	 1.1332493556	 0.32005
C	 0.1699787177	-1.7560875854	 1.7524196492	-0.466829
H	 0.9509628527	 2.1646263147	 0.4052857544	 0.135103
H	-0.2328870868	 1.9299418024	-0.900829309	 0.114034
H	-0.7650350656	 1.9035960844	 0.7815901747	 0.116828
H	 1.2060387365	-1.3636485079	-0.9872757375	 0.078026
H	 3.4650840611	-0.4784698082	-0.7566662664	 0.099247
H	 2.6590882968	 1.0580917414	-1.0555238037	 0.100923
H	 4.0072777136	 0.2482088593	 1.3738817669	 0.074481
H	 3.8114616361	 2.4153569934	 0.6158023974	 0.281792
H	 2.3218436557	-0.5251399909	 2.749775371	 0.099008
H	 1.4780810975	 1.0019049029	 2.5384945594	 0.118968
H	-0.4400881137	-1.4333065763	 2.6046566193	 0.115628
H	-0.4973449223	-2.2173012935	 1.0205566995	 0.125122
H	 0.8737228649	-2.5136703694	 2.1162915192	 0.107705
87.9078	171.0197	192.8858	210.0547	237.3026	258.2242	295.7388	321.9879	419.6111	427.6153	461.3713	515.8227	582.9043	668.2524	719.0146	751.9234	812.3232	875.1148	916.8181	954.7894	987.5789	1004.7771	1034.9841	1052.4559	1087.033	1116.4745	1163.7551	1166.8324	1180.5812	1197.4629	1234.569	1249.8271	1262.8046	1282.8225	1319.2674	1328.5153	1363.1719	1406.498	1420.0697	1433.0292	1464.0647	1476.2978	1485.7035	1489.2565	1497.6939	1511.0945	1520.6316	2990.2023	3016.2487	3023.9518	3031.693	3050.1803	3072.0172	3081.129	3083.2033	3088.2114	3089.817	3113.6247	3121.7587	3816.7998
CN1C2CC(O)CC12C	CN1[C@H]2C[C@@H](O)C[C@@]12C	
InChI=1S/C7H13NO/c1-7-4-5(9)3-6(7)8(7)2/h5-6,9H,3-4H2,1-2H3	InChI=1S/C7H13NO/c1-7-4-5(9)3-6(7)8(7)2/h5-6,9H,3-4H2,1-2H3/t5-,6+,7-,8?/m1/s1
