17
gdb 82984	2.66158	2.01277	1.65954	3.0778	66.15	-0.2399	0.062	0.3019	868.8814	0.13776	-458.927964	-458.921121	-458.920177	-458.959135	27.271	
O	 0.1230390745	 1.3674754431	 0.2632403136	-0.431679
C	-0.0139846998	 0.0019646185	 0.0553954744	 0.152904
C	-1.4290653135	-0.6321395925	-0.0022099312	 0.054208
O	-2.3482976841	 0.1641724223	-0.7886003104	-0.320187
C	-2.0429665073	-0.5716569636	-2.0004041158	 0.109518
C	-1.2416182014	 0.2587612897	-2.9833196413	-0.099662
O	 0.0375729853	 0.4462859139	-2.3752969067	-0.279827
C	 0.266759789	-0.5563979746	-1.3822428991	 0.033973
C	-1.0077565537	-1.4394028481	-1.2632112354	-0.15138
H	-0.2202049646	 1.7878931226	-0.5362437885	 0.290055
H	 0.5959584879	-0.5275362682	 0.7965424521	 0.087461
H	-1.8956212026	-1.025636161	 0.9029517836	 0.081119
H	-2.933091699	-1.0437147259	-2.4273833346	 0.08563
H	-1.1430752081	-0.2723592059	-3.9424693115	 0.099691
H	-1.6891978615	 1.2407625557	-3.165920014	 0.121181
H	 1.2355289601	-1.0279332178	-1.5599980833	 0.083846
H	-0.9667897012	-2.5190947483	-1.371326562	 0.083147
143.1301	151.5879	233.9552	339.2098	366.8422	520.8124	566.7891	642.4382	681.1822	769.597	811.5829	833.7111	840.1465	881.6559	904.8519	944.4547	966.5694	993.408	1021.7113	1050.5864	1070.9748	1102.0136	1138.3719	1156.095	1187.0945	1207.0769	1221.9258	1240.9781	1258.2057	1293.5479	1302.6458	1319.8989	1334.7054	1346.4163	1384.2895	1436.5467	1502.4362	2992.6558	3049.54	3065.4978	3082.9445	3085.7304	3093.2801	3160.0741	3772.4996
OC1C2OC3COC1C23	O[C@H]1[C@H]2O[C@H]3CO[C@@H]1[C@@H]23	
InChI=1S/C6H8O3/c7-4-5-3-2(1-8-5)9-6(3)4/h2-7H,1H2	InChI=1S/C6H8O3/c7-4-5-3-2(1-8-5)9-6(3)4/h2-7H,1H2/t2-,3-,4+,5+,6-/m0/s1
