15
gdb 98389	3.12411	1.1459	0.84434	4.058	66.75	-0.2538	-0.0291	0.2247	1294.1335	0.110635	-491.129252	-491.119605	-491.11866	-491.16544	31.58	
C	-0.0622286746	 1.3497488825	 0.0350905845	-0.243633
O	-0.0107942146	-0.0864762932	 0.0578750293	-0.256213
C	 0.6418027529	-0.6097499293	 1.1044361025	 0.56416
O	 1.1723738238	 0.0392509924	 1.9697623134	-0.389411
N	 0.6369123777	-2.0203012363	 1.0719859854	-0.240667
C	 1.3606892367	-2.6525847602	 2.1214985744	 0.089351
N	 1.2867679386	-3.8909686283	 2.3553473365	-0.40886
C	-0.0199114744	-2.7311716892	 0.0271862978	 0.167227
O	 0.0298426378	-3.9155621984	-0.1293461822	-0.25131
H	 0.9459033746	 1.7661778887	-0.0136735613	 0.152536
H	-0.6273219532	 1.6028506572	-0.8611092403	 0.145839
H	-0.5640417266	 1.7279047154	 0.9280817616	 0.152668
H	 1.9477843325	-1.9157390543	 2.6691664288	 0.148927
H	 1.8918440414	-4.11701464	 3.1448933909	 0.238296
H	-0.5762598925	-2.0463859671	-0.6249172414	 0.13109
39.5476	60.9735	98.1319	116.7703	152.3709	208.4326	256.9203	274.2582	355.072	437.6784	486.9344	520.9056	780.7695	804.7601	846.9204	866.3394	984.2709	1026.4356	1091.8674	1128.5467	1165.2025	1181.138	1217.2801	1314.4309	1349.1915	1422.9874	1460.3797	1477.8543	1481.2812	1498.636	1726.6205	1812.1199	1858.7375	3061.5971	3063.7571	3134.5706	3142.4894	3171.3423	3485.5309
COC(=O)N(C=N)C=O	COC(=O)N(C=N)C=O	
InChI=1S/C4H6N2O3/c1-9-4(8)6(2-5)3-7/h2-3,5H,1H3	InChI=1S/C4H6N2O3/c1-9-4(8)6(2-5)3-7/h2-3,5H,1H3
