20
gdb 122505	4.32604	0.57732	0.53423	2.4526	78.	-0.2487	-0.0269	0.2218	2012.6058	0.16917	-440.260049	-440.24989	-440.248946	-440.296558	35.511	
O	-0.153848072	 1.4726504753	-0.1448790141	-0.421079
C	 0.0024726322	 0.0789038669	 0.0705118306	-0.077292
C	-1.3766455967	-0.5623637173	-0.0064551823	-0.163665
C	-1.3422971339	-2.0769726253	 0.2299123687	-0.206088
C	-2.726669637	-2.6830384061	 0.1511145337	-0.004631
N	-3.2321615058	-3.0542488731	-1.1631255241	-0.330788
C	-3.0136910522	-4.1264766549	-0.1669130037	-0.13763
C	-1.9342441519	-5.1000960888	-0.4896950415	 0.174257
O	-1.8644217614	-6.2028541673	-0.0067413119	-0.259428
H	 0.7157821473	 1.8818253051	-0.115853082	 0.286507
H	 0.663585844	-0.3718941956	-0.6877687952	 0.087612
H	 0.4528960899	-0.1251135275	 1.0562647618	 0.084241
H	-2.0251979931	-0.077777608	 0.7342268154	 0.10375
H	-1.8089148112	-0.3524684419	-0.9913367498	 0.119685
H	-0.6929160829	-2.5511809346	-0.5129333664	 0.108014
H	-0.9136019234	-2.2947177874	 1.2170323397	 0.105985
H	-3.4397179986	-2.243470832	 0.8498049471	 0.096748
H	-4.2253981608	-2.8615455253	-1.2547475523	 0.244044
H	-3.868453207	-4.5728742124	 0.3357142681	 0.104492
H	-1.1906830252	-4.7327329899	-1.2293354917	 0.085266
52.1139	65.859	94.9581	122.0869	135.0972	224.8213	262.0392	270.1895	332.12	386.3874	443.1974	499.0576	538.7709	760.0167	810.8922	839.3955	896.3787	917.4403	984.7598	1005.1816	1026.6752	1047.5583	1051.4341	1077.6569	1091.0751	1151.6692	1195.3782	1221.0557	1229.2147	1240.8804	1258.331	1304.4368	1310.5756	1321.0337	1361.5809	1381.5444	1422.0566	1464.5668	1470.4958	1480.2426	1500.8474	1529.4036	1820.7271	2903.1184	2957.8267	2983.7652	3025.2074	3033.5088	3070.2411	3087.5512	3103.0196	3146.3785	3516.7906	3830.4173
OCCCC1NC1C=O	OCCC[C@H]1N[C@H]1C=O	
InChI=1S/C6H11NO2/c8-3-1-2-5-6(4-9)7-5/h4-8H,1-3H2	InChI=1S/C6H11NO2/c8-3-1-2-5-6(4-9)7-5/h4-8H,1-3H2/t5-,6+/m1/s1
