18
gdb 68467	2.45574	1.93884	1.31829	2.5189	71.09	-0.227	-0.0241	0.2029	977.544	0.149315	-439.090023	-439.082423	-439.081479	-439.122113	30.399	
O	-0.0339637984	 1.3889076626	-0.0714441375	-0.491342
C	-0.0071160247	 0.0120022678	 0.0355594135	 0.33863
C	 0.2301272113	-0.6692120511	 1.4231884319	-0.298501
C	-0.6174962806	-1.8505989487	 0.8603136123	-0.002868
C	-1.3271147738	-0.8216183223	-0.0531694893	-0.28237
N	 0.1643240013	-2.7857415861	 0.0484990337	-0.297893
C	 0.9927787836	-2.1350345103	-0.9797458074	-0.275216
C	 0.9679085536	-0.6078586364	-0.9445116334	 0.349016
O	 1.6431016714	 0.0831382801	-1.6754824868	-0.357816
H	 0.6187013578	 1.6120353087	-0.7559838078	 0.290178
H	 1.2557661149	-0.8700519673	 1.746746713	 0.094943
H	-0.2988960948	-0.1042944808	 2.1951504651	 0.117292
H	-1.2297003959	-2.4183518374	 1.5620850463	 0.081284
H	-2.1236127042	-0.2949261715	 0.4759366791	 0.121292
H	-1.683454262	-1.155152672	-1.0308824789	 0.108642
H	 0.7549896615	-3.3362331275	 0.6603757515	 0.223559
H	 2.0387189917	-2.4542234594	-0.919913546	 0.136703
H	 0.6547359972	-2.4176539783	-1.9876568793	 0.144468
66.2067	149.9875	313.9347	357.383	393.0861	399.8419	422.1028	482.0663	524.3233	558.6213	605.1789	674.6708	746.9395	811.7347	840.7162	851.9792	920.8068	943.5649	961.1752	996.2553	1037.3841	1062.2819	1065.6499	1117.8133	1168.4314	1185.1002	1200.9097	1241.6933	1245.2596	1251.1712	1315.4969	1340.1729	1386.1822	1428.1332	1469.4085	1472.2281	1474.0199	1509.4772	1804.0254	3002.2315	3050.9975	3067.8657	3068.875	3099.7951	3114.7991	3132.4614	3538.5443	3670.6506
OC12CC(C1)NCC2=O	O[C@@]12C[C@@H](C1)NCC2=O	
InChI=1S/C6H9NO2/c8-5-3-7-4-1-6(5,9)2-4/h4,7,9H,1-3H2	InChI=1S/C6H9NO2/c8-5-3-7-4-1-6(5,9)2-4/h4,7,9H,1-3H2/t4-,6-
