21
gdb 100541	2.35142	1.16754	0.86011	3.7053	75.88	-0.2602	-0.0286	0.2315	1404.5463	0.178292	-461.372823	-461.361778	-461.360834	-461.409584	38.998	
C	 0.8715426434	 1.082206552	 1.5898866017	-0.239448
O	 1.1118859146	-0.1319432062	 0.9096786881	-0.245525
C	 0.0533455285	-1.0691064378	 0.9748685377	 0.034671
C	-1.1546965167	-0.6931774619	 0.1136040348	-0.402757
C	 0.612151725	-2.4386765648	 0.5744979397	 0.337752
O	-0.1311134823	-3.3277962246	 0.2143168475	-0.339985
C	 2.1130486494	-2.7081109463	 0.6680889408	 0.070422
C	 2.5916835896	-2.6434356833	 2.1300843607	-0.406354
O	 2.3967068378	-3.96520306	 0.1084471126	-0.444502
H	 0.6037865369	 0.907306896	 2.6433463548	 0.10929
H	 1.7994448093	 1.6571488094	 1.5513976543	 0.13551
H	 0.0732540095	 1.6731609184	 1.121525724	 0.117832
H	-0.2745185704	-1.1797920697	 2.0257901186	 0.099442
H	-1.6602107134	 0.1931669971	 0.5039882463	 0.117691
H	-0.8345521536	-0.4916779589	-0.9127544256	 0.131771
H	-1.8627739232	-1.5235492625	 0.1010966062	 0.148852
H	 2.6269342821	-1.9220442274	 0.0983640254	 0.107422
H	 3.6496092532	-2.9149475766	 2.1606915715	 0.133877
H	 2.4726835361	-1.6392077509	 2.5424130958	 0.124246
H	 2.0401503093	-3.3608435919	 2.7459278473	 0.120082
H	 1.532920855	-4.3735347603	-0.0607266722	 0.289711
40.499	71.3143	91.716	159.7087	190.6229	198.0806	225.9621	239.1572	291.7166	343.1021	362.5683	408.6905	414.6673	470.5806	483.0745	595.0222	745.9158	764.7953	867.9549	919.2999	998.8717	1014.0946	1063.865	1086.903	1110.5054	1140.5251	1159.8172	1183.0914	1197.4741	1224.6869	1273.6663	1334.7034	1344.4452	1359.1932	1386.2	1394.8991	1434.8721	1476.9279	1483.4687	1492.8178	1495.185	1495.4309	1501.5587	1511.3137	1788.5143	2931.7801	2984.3136	3021.5119	3042.306	3045.7625	3054.7747	3120.6624	3120.9866	3127.1853	3139.0547	3146.9502	3688.319
COC(C)C(=O)C(C)O	CO[C@@H](C)C(=O)[C@@H](C)O	
InChI=1S/C6H12O3/c1-4(7)6(8)5(2)9-3/h4-5,7H,1-3H3	InChI=1S/C6H12O3/c1-4(7)6(8)5(2)9-3/h4-5,7H,1-3H3/t4-,5+/m1/s1
