17
gdb 77125	2.75288	1.28287	1.00584	3.615	70.93	-0.2392	-0.0295	0.2097	1187.6763	0.132881	-458.922311	-458.913447	-458.912503	-458.956544	32.166	
O	 0.1092452148	 1.1411670682	-0.2780497428	-0.413889
C	-0.0110462277	-0.2382444274	-0.079777384	-0.065528
C	-0.0711607331	-0.7745438773	 1.3981341038	 0.016968
O	-1.3569527099	-1.359153851	 1.1682494948	-0.297164
C	-1.4399651325	-0.7601170412	-0.1268308321	 0.462556
C	-2.6504801387	-0.0325360405	-0.6032775707	-0.326296
C	-2.2275960225	-1.3499343025	-1.2426333536	-0.340583
C	 1.0105060396	-1.7481714894	 1.7810069285	 0.126689
O	 0.8987113225	-2.944382221	 1.8062451955	-0.232398
H	 1.0259065063	 1.3497813974	-0.4807817469	 0.295096
H	 0.6850913174	-0.8057814741	-0.7092093717	 0.095461
H	-0.1019853552	 0.057418213	 2.1169532255	 0.102132
H	-3.5188150984	-0.0489491136	 0.0461530485	 0.128487
H	-2.4990354457	 0.8893261007	-1.1536438595	 0.130659
H	-1.803544459	-1.3351909231	-2.2417128337	 0.117932
H	-2.8163122036	-2.2306169647	-1.0100795204	 0.133389
H	 1.9789044156	-1.2423062835	 2.0170258989	 0.06649
47.7239	89.5411	184.1999	200.4276	232.2949	248.2301	292.5056	369.6713	393.1239	529.8921	570.6371	749.015	762.6913	784.0102	844.8871	880.8558	903.6768	928.7886	984.8765	986.9443	1047.5065	1052.979	1067.9425	1113.0978	1144.4927	1185.5245	1189.4243	1216.7662	1243.6561	1273.0159	1347.9663	1381.7962	1417.8704	1447.0387	1452.6105	1503.6208	1840.9373	2832.4811	3007.9249	3028.8416	3129.2866	3137.9561	3215.9904	3232.8504	3832.6451
OC1C(OC11CC1)C=O	O[C@H]1[C@@H](OC21CC2)C=O	
InChI=1S/C6H8O3/c7-3-4-5(8)6(9-4)1-2-6/h3-5,8H,1-2H2	InChI=1S/C6H8O3/c7-3-4-5(8)6(9-4)1-2-6/h3-5,8H,1-2H2/t4-,5-/m0/s1
