21
gdb 104796	2.63806	1.33325	1.11264	3.3194	77.9	-0.2381	0.0576	0.2957	1178.3598	0.182715	-424.184668	-424.17572	-424.174776	-424.217924	34.928	
O	 0.244554039	 1.3310506437	-0.285355161	-0.432047
C	 0.1094725533	-0.0134926002	 0.1356596929	-0.113287
C	-1.3304166633	-0.5302611122	 0.0381368242	 0.296902
C	-2.2102815457	 0.080920247	 1.1238602075	-0.14189
O	-2.2454760159	 1.5009313644	 0.9517977284	-0.429391
C	-2.0181129517	-0.4448475509	-1.371603211	-0.281587
C	-2.266981393	-1.958017801	-1.328105455	-0.03263
C	-0.9616305508	-2.6895768491	-1.2236222457	-0.297148
C	-1.5373103239	-2.0598076787	 0.0151307413	-0.103125
H	-0.4576088301	 1.8239595279	 0.159562994	 0.288948
H	 0.7645364555	-0.6043610629	-0.5122496535	 0.097963
H	 0.4739813661	-0.1548582567	 1.169791848	 0.069854
H	-3.2254193485	-0.338847038	 1.0609917501	 0.093503
H	-1.7999988243	-0.1768962537	 2.1131075154	 0.091295
H	-2.7026417958	 1.8925115683	 1.7014476662	 0.294391
H	-2.9242684812	 0.1633308842	-1.3513187801	 0.108203
H	-1.3804601068	-0.0879202877	-2.1850214129	 0.108327
H	-3.1763746427	-2.4560891513	-1.6412430902	 0.08281
H	-1.0279044278	-3.7727457756	-1.2500050794	 0.110722
H	-0.0682672247	-2.2917297295	-1.698544352	 0.111056
H	-1.7881013677	-2.6567793881	 0.8855920526	 0.077132
101.9843	142.7365	172.3488	215.4654	241.8468	271.1159	354.0331	375.7985	416.8784	462.4373	499.9532	550.4518	674.4809	764.7429	789.4856	838.576	907.4951	938.6693	953.0885	965.4034	980.7771	986.9027	1017.9416	1048.9918	1062.6608	1080.4364	1089.0993	1106.6622	1137.5677	1161.2514	1191.8785	1224.8104	1239.7098	1243.3977	1283.6817	1306.2564	1314.5755	1365.02	1379.5271	1451.8797	1469.106	1485.4903	1498.1758	1507.4473	1523.9574	2933.2994	2972.3764	3010.1518	3063.3485	3069.9505	3110.3286	3118.2267	3160.4616	3182.2231	3199.4762	3753.1015	3835.3101
OCC1(CO)CC2CC12	OCC1(CO)C[C@H]2C[C@@H]12	
InChI=1S/C7H12O2/c8-3-7(4-9)2-5-1-6(5)7/h5-6,8-9H,1-4H2	InChI=1S/C7H12O2/c8-3-7(4-9)2-5-1-6(5)7/h5-6,8-9H,1-4H2/t5-,6-/m1/s1
