17
gdb 38104	2.68749	2.05139	1.52325	0.6828	71.46	-0.2468	-0.0189	0.2279	894.3409	0.138588	-421.785776	-421.77929	-421.778346	-421.816333	26.829	
C	-0.0577266295	 1.5646639506	-0.0033995578	-0.279462
C	 1.4909777669	 1.4527369643	 0.0187857131	 0.045538
O	 1.3881347685	 0.0656592284	 0.4501946664	-0.291362
C	 0.0055238835	 0.0272608297	 0.0063127871	 0.067724
C	-0.0797537881	-0.6490027162	-1.3561751667	 0.039339
O	-0.5949055227	 0.092697828	-2.4622802604	-0.25433
C	 0.8144601702	-0.2582185811	-2.4584969234	 0.016362
C	 1.8113702027	 0.8468210047	-2.4033161048	-0.067801
C	 2.1178596093	 1.5982279528	-1.3425568725	-0.058509
H	-0.4627517721	 1.9627506483	 0.9279228784	 0.110898
H	-0.5167050443	 2.0407540017	-0.8672256603	 0.132066
H	 2.0212766746	 2.0522902428	 0.7638388175	 0.078542
H	-0.6304988146	-0.4905823815	 0.7307053585	 0.075939
H	-0.4059170712	-1.6898940205	-1.3320929028	 0.091726
H	 1.0457977992	-1.028418983	-3.1942294115	 0.097509
H	 2.3185437609	 1.0438613895	-3.3449040653	 0.098624
H	 2.8426417668	 2.3998945714	-1.4616348752	 0.097199
193.581	220.5764	317.2479	367.6083	416.6509	483.8409	583.1406	604.0888	727.3709	750.4797	799.5071	825.8807	845.6962	872.3955	907.3654	923.3804	969.727	996.2808	999.0566	1017.2875	1059.7453	1078.0559	1120.9869	1128.3657	1156.9872	1220.2281	1244.0696	1261.3256	1291.3064	1321.5044	1358.1855	1374.7879	1393.3467	1425.7433	1467.43	1486.3861	1712.6583	3057.0786	3066.9925	3093.4559	3097.3356	3110.6667	3146.485	3168.6832	3169.9194
C1C2OC1C1OC1C=C2	C1[C@H]2O[C@@H]1[C@H]1O[C@H]1C=C2	
InChI=1S/C7H8O2/c1-2-5-7(9-5)6-3-4(1)8-6/h1-2,4-7H,3H2	InChI=1S/C7H8O2/c1-2-5-7(9-5)6-3-4(1)8-6/h1-2,4-7H,3H2/t4-,5-,6-,7-/m0/s1
