13
gdb 9019	6.25432	0.89055	0.78373	4.3082	64.09	-0.2609	-0.0543	0.2065	1318.0889	0.092923	-394.793521	-394.784758	-394.783813	-394.828434	29.258	
N	-0.1050076523	 1.3654807853	-0.1589341494	-0.554007
C	 0.0215298548	 0.0554672641	 0.2372472666	 0.28942
N	 1.0872886143	-0.5967485085	 0.492358844	-0.285893
C	 2.3560853777	 0.073867381	 0.3233612572	-0.261902
C	 3.5049003206	-0.8683114515	 0.6705439545	 0.148824
O	 4.6622092882	-0.5809530593	 0.525056907	-0.239769
C	-1.2498219416	-0.6240496478	 0.417330525	 0.27511
N	-2.2782397216	-1.1355180736	 0.5422977419	-0.31034
H	 0.7062365974	 1.8414342972	-0.517810954	 0.27528
H	-0.9950301675	 1.6826442593	-0.5068572162	 0.281094
H	 2.5211071377	 0.4308066047	-0.7075170653	 0.133224
H	 2.4476502261	 0.9608207776	 0.9731792147	 0.143151
H	 3.1710097364	-1.8474896385	 1.0761160643	 0.105809
23.3929	79.7568	107.5971	172.1464	216.5947	327.7794	332.5033	378.0783	436.1581	456.4339	562.0947	632.0366	694.0999	733.7891	852.9815	1022.7807	1052.4901	1076.1963	1144.6343	1230.0603	1328.2602	1349.0493	1396.9989	1427.5751	1638.3087	1724.1392	1844.7886	2363.2765	2914.345	2956.9967	2991.2585	3602.1053	3719.9323
NC(=NCC=O)C#N	NC(=NCC=O)C#N	
InChI=1S/C4H5N3O/c5-3-4(6)7-1-2-8/h2H,1H2,(H2,6,7)	InChI=1S/C4H5N3O/c5-3-4(6)7-1-2-8/h2H,1H2,(H2,6,7)
