16
gdb 31557	3.32214	1.13034	0.86187	2.3113	69.26	-0.157	0.0593	0.2163	1294.0273	0.123819	-471.225788	-471.215992	-471.215047	-471.261115	34.08	
C	 0.0953290001	 1.2635025322	 0.3243546795	-0.334302
N	-0.0729100106	-0.018584104	-0.3501999853	-0.37336
C	-1.2333678824	-0.7435268937	-0.1200487747	 0.415815
N	-1.2977186967	-2.0507086779	 0.0113275019	-0.418467
C	-2.6415944806	-2.3427013383	 0.0963976669	 0.207049
O	-3.103634683	-3.6149432203	 0.2539779622	-0.461583
C	-3.3910547512	-1.2108723548	 0.0423121602	 0.268409
O	-4.7210735661	-0.922531206	 0.1067258303	-0.452489
N	-2.4729507661	-0.1700575452	-0.0864633204	-0.353702
H	 1.09285118	 1.6481375084	 0.1007689792	 0.133841
H	-0.6212292872	 1.9953359496	-0.0646096528	 0.123243
H	-0.0278018817	 1.2111840043	 1.4168267815	 0.120077
H	 0.7223923346	-0.6337528137	-0.2429246784	 0.248702
H	-2.3234631262	-4.1774985443	 0.3119374991	 0.298044
H	-5.1696127035	-1.7037987771	 0.4468691703	 0.310894
H	-2.7121986792	 0.7894936109	-0.2662148596	 0.267828
39.177	86.0402	137.3438	190.1771	201.2007	241.777	260.0175	281.771	320.4759	361.7115	419.8846	551.6145	591.0371	653.8446	663.2046	726.4809	739.7098	833.6202	1013.985	1079.3951	1121.4075	1149.8213	1157.9393	1178.1191	1264.6396	1330.3138	1371.6138	1414.683	1455.8948	1491.4412	1500.739	1511.3604	1538.5431	1631.5382	1746.6749	2986.9197	3063.9309	3120.9313	3590.0764	3678.7159	3821.8813	3830.7783
CNC1=NC(O)=C(O)N1	CNc1nc(O)c(O)[nH]1	
InChI=1S/C4H7N3O2/c1-5-4-6-2(8)3(9)7-4/h8-9H,1H3,(H2,5,6,7)	InChI=1S/C4H7N3O2/c1-5-4-6-2(8)3(9)7-4/h8-9H,1H3,(H2,5,6,7)
