18
gdb 18791	3.41089	2.33058	2.07681	1.6964	70.12	-0.2345	0.0796	0.3142	763.4246	0.155445	-347.757902	-347.751479	-347.750535	-347.788097	26.167	
C	-0.1706746126	 1.5699696948	 0.1073701402	-0.417513
C	 0.0614286238	 0.0728063574	-0.010637285	 0.025936
C	 0.7457153109	-0.5434377083	-1.2710484342	-0.076989
C	 2.0899990907	 0.1378288938	-1.6485044859	-0.243142
C	 2.7557881772	-0.5445567983	-0.4335676557	 0.112934
O	 2.4053270171	 0.1088701529	 0.8086986368	-0.305792
C	 1.1443005621	-0.5987877868	 0.8724994648	 0.090833
C	 1.5452347247	-1.5145838188	-0.315893766	-0.096043
H	 0.7791105314	 2.1109509572	 0.0949030296	 0.13142
H	-0.7925985949	 1.942952925	-0.7138969462	 0.110775
H	-0.6781741262	 1.8150861567	 1.0471091861	 0.112953
H	-0.8752997642	-0.4769841414	 0.1510934343	 0.070892
H	 0.0972794015	-0.8694637495	-2.0844401034	 0.064399
H	 2.4814285886	-0.2848333962	-2.5803701577	 0.099738
H	 2.1389978328	 1.2286695929	-1.7018725088	 0.102591
H	 3.8141677623	-0.8111811269	-0.4685700787	 0.074539
H	 0.9014708565	-0.9030560579	 1.8932631191	 0.070462
H	 1.562211438	-2.6005531666	-0.3390046492	 0.072008
171.9844	208.9218	232.0342	399.7337	417.9692	560.2974	629.9936	694.4503	761.9364	828.2368	836.3815	842.369	856.9162	910.5595	941.6586	960.9244	989.5902	997.9469	1025.8439	1081.6698	1104.6872	1115.5548	1137.3194	1148.1682	1160.0485	1186.1752	1193.446	1242.3096	1273.4676	1286.0743	1294.8546	1327.2098	1349.2708	1362.9462	1407.4424	1468.7624	1489.7169	1506.7149	3019.3401	3032.0282	3043.103	3079.227	3085.7121	3091.2679	3100.5496	3104.0702	3118.7032	3154.7019
CC1C2CC3OC1C23	C[C@H]1[C@H]2C[C@H]3O[C@@H]1[C@@H]23	
InChI=1S/C7H10O/c1-3-4-2-5-6(4)7(3)8-5/h3-7H,2H2,1H3	InChI=1S/C7H10O/c1-3-4-2-5-6(4)7(3)8-5/h3-7H,2H2,1H3/t3-,4+,5+,6-,7-/m0/s1
