20
gdb 73837	2.60073	1.76913	1.26567	1.8955	84.22	-0.2017	0.0171	0.2188	1065.8778	0.171812	-365.987153	-365.979055	-365.978111	-366.019431	31.724	
C	 0.0902906016	 1.4902218558	 0.1242112999	-0.509837
C	 0.0015271458	 0.0045810775	-0.0095596495	 0.235592
C	-0.083915809	-0.7606164714	-1.1074946155	 0.216619
C	-0.0781626151	-0.3770408148	-2.5514492353	-0.506188
C	-0.0083748642	-2.2043468838	-0.6610778957	-0.100225
C	 1.4436345656	-2.5100949257	-0.1632352475	-0.247712
C	 0.9408564402	-2.0944548585	 1.208474907	-0.043236
C	 0.0171840852	-0.9029551655	 1.1786794366	-0.122443
N	-0.5028678241	-2.2310364457	 0.7918751771	-0.137652
H	 1.047960776	 1.7940806322	 0.5662198311	 0.129797
H	-0.006324573	 1.9951864795	-0.8401934227	 0.12509
H	-0.695209427	 1.8757383898	 0.7866975743	 0.128171
H	-0.0966976263	 0.7070630982	-2.6898408678	 0.124875
H	 0.8126127441	-0.7619442001	-3.0654441906	 0.127569
H	-0.9454065233	-0.7999541012	-3.0745085984	 0.128468
H	-0.4850553607	-2.9414723887	-1.3081084718	 0.072559
H	 1.6486817908	-3.5829560683	-0.1773049698	 0.111901
H	 2.2767692795	-1.9685135688	-0.6222391723	 0.094795
H	 1.3017330118	-2.4928725678	 2.1527090116	 0.089334
H	-0.3272788681	-0.5367580027	 2.1428713294	 0.082524
145.1928	163.4631	171.6034	179.6945	263.8526	323.7256	394.734	477.5541	588.659	602.781	609.0022	751.5555	788.6891	806.8869	819.5093	866.3628	905.1267	956.9996	970.7737	997.4444	1030.9947	1040.7501	1054.0405	1073.0651	1083.9108	1133.7314	1153.93	1169.0782	1200.5474	1217.7736	1237.615	1261.5391	1339.2761	1345.318	1383.752	1412.3038	1421.1549	1477.2728	1479.6968	1486.1924	1487.5461	1492.6309	1734.1856	3013.4508	3017.0269	3045.9447	3056.6683	3060.3551	3100.5416	3109.1608	3111.7402	3114.1192	3137.0947	3150.5357
CC1=C(C)C2CC3C1N23	CC1=C(C)[C@H]2C[C@H]3[C@@H]1N23	
InChI=1S/C8H11N/c1-4-5(2)8-7-3-6(4)9(7)8/h6-8H,3H2,1-2H3	InChI=1S/C8H11N/c1-4-5(2)8-7-3-6(4)9(7)8/h6-8H,3H2,1-2H3/t6-,7+,8-,9?/m1/s1
