19
gdb 109265	3.14271	1.25799	1.00024	0.7619	76.9	-0.2344	0.0211	0.2555	1208.1958	0.160157	-423.011345	-423.00305	-423.002105	-423.044642	30.998	
O	-0.0590768768	 1.3390635137	-0.3352680622	-0.416796
C	-0.0905809615	-0.0649493603	-0.1498212042	-0.187898
C	-1.4947126094	-0.5172736012	 0.0776468086	 0.311353
C	-2.6014624705	 0.2291786363	 0.0804221519	-0.15526
C	-3.8630475157	-0.5687779664	 0.3244013651	-0.285081
C	-3.3620985444	-2.0243844647	 0.3315776174	-0.072049
C	-3.2019232692	-2.739744184	-1.0297538146	-0.080133
O	-1.7615902659	-2.7730591397	-0.91421556	-0.29568
C	-1.8143909201	-1.9734895675	 0.3003354136	 0.015603
H	 0.8404019484	 1.5896081511	-0.5631680107	 0.289658
H	 0.310467203	-0.5998558789	-1.027445114	 0.113338
H	 0.5329733821	-0.3712629141	 0.709885959	 0.092244
H	-2.606443975	 1.3014036755	-0.0750227421	 0.110849
H	-4.3371732585	-0.2924104149	 1.2755412397	 0.106779
H	-4.6194681384	-0.394316742	-0.4526005966	 0.105633
H	-3.8133636812	-2.6438177316	 1.1066774022	 0.078289
H	-3.6216403187	-3.7498361637	-1.1003059541	 0.100949
H	-3.5339119769	-2.1526957439	-1.8966389489	 0.098401
H	-1.2276375216	-2.4485821937	 1.0964792801	 0.069802
72.2669	119.041	172.0978	208.2007	232.685	273.6475	362.4039	408.4323	570.057	637.3836	710.1829	774.4921	829.3234	867.7064	883.8805	921.3194	943.2952	982.6185	989.1555	1010.3184	1047.7024	1071.7921	1079.6393	1084.4893	1160.5851	1160.7364	1194.292	1214.5443	1234.8094	1249.0967	1265.3578	1294.4536	1313.2137	1334.7259	1354.809	1365.0252	1464.4168	1487.9217	1508.0228	1521.9933	1719.0336	2937.2609	2968.7451	3006.8019	3012.6704	3027.7796	3035.9977	3056.5017	3109.4553	3211.1938	3839.3477
OCC1=CCC2COC12	OCC1=CC[C@H]2CO[C@@H]12	
InChI=1S/C7H10O2/c8-3-5-1-2-6-4-9-7(5)6/h1,6-8H,2-4H2	InChI=1S/C7H10O2/c8-3-5-1-2-6-4-9-7(5)6/h1,6-8H,2-4H2/t6-,7-/m0/s1
