20
gdb 22263	2.72631	1.11818	1.01051	1.9253	77.88	-0.2438	0.0079	0.2517	1278.2679	0.168307	-440.226297	-440.216303	-440.215359	-440.261639	36.131	
C	 0.3518328125	 1.4485758156	 0.0267378894	-0.478541
C	 0.0469877964	-0.0271448064	 0.0400647129	 0.293419
N	-0.1558144121	-0.698578421	 1.1080410844	-0.177176
O	-0.0721043142	 0.1081711959	 2.2544918545	-0.398477
C	-0.0498913397	-0.7695136769	-1.2672713091	 0.210247
C	-1.2781949573	-0.3187250892	-2.0673422821	-0.459841
C	 1.2512898547	-0.8112501088	-2.1217913306	-0.110829
O	 1.2013666272	-2.2453435383	-2.197500774	-0.275334
C	 0.1260051279	-2.3073738562	-1.2341368784	-0.116664
H	 1.1553352204	 1.6723485678	 0.7339191118	 0.15187
H	 0.6416875044	 1.7906484612	-0.9688674593	 0.121717
H	-0.5197941146	 2.0258343757	 0.3538774463	 0.148723
H	-0.2111572499	-0.5307601511	 2.9613894005	 0.306665
H	-1.2605823994	 0.7588657063	-2.2614639637	 0.119174
H	-1.3104328502	-0.8339297056	-3.0324787826	 0.129621
H	-2.1990321801	-0.5502515839	-1.5223442411	 0.127833
H	 1.1980523946	-0.3399399022	-3.1111644966	 0.098231
H	 2.1524558489	-0.4572822371	-1.6024135472	 0.096473
H	 0.4555096006	-2.7044655275	-0.2698074335	 0.115501
H	-0.72227892	-2.8944531382	-1.6041674316	 0.097387
57.7644	74.3802	103.7915	167.988	193.7685	255.3806	289.5094	325.918	346.2664	365.7744	426.8015	471.4469	498.7551	587.3406	720.1766	841.4423	870.4811	925.3579	942.5429	969.3256	976.9387	1009.8912	1033.434	1037.9798	1047.2742	1151.4229	1160.5979	1164.5779	1180.3746	1230.6003	1307.1955	1318.8013	1374.5178	1398.6723	1403.6486	1411.5677	1472.7916	1482.4493	1493.9292	1500.3119	1513.289	1536.9352	1722.4433	2998.3416	3029.7841	3034.6153	3043.9695	3047.5485	3091.3208	3102.3988	3104.1033	3108.0855	3133.4597	3820.8379
CC(=NO)C1(C)COC1	CC(=NO)C1(C)COC1	
InChI=1S/C6H11NO2/c1-5(7-8)6(2)3-9-4-6/h8H,3-4H2,1-2H3	InChI=1S/C6H11NO2/c1-5(7-8)6(2)3-9-4-6/h8H,3-4H2,1-2H3
