15
gdb 44319	3.59621	1.85052	1.4337	2.16	68.51	-0.2231	0.0045	0.2276	869.4873	0.114805	-416.704125	-416.698099	-416.697154	-416.734266	25.098	
O	-0.0980460989	 0.0115763938	-0.1398481615	-0.356511
C	-0.014022768	 1.2082396503	-0.0530509844	 0.349043
N	-1.0657565582	 2.1479599823	-0.0945599653	-0.355976
C	-0.4990412155	 3.4732976675	 0.2572009358	-0.055143
C	 0.7931423651	 3.5149754722	-0.5582434488	 0.006914
N	 1.7556105859	 4.0111797461	 0.5483492141	-0.19421
C	 2.5620353168	 2.7047575086	 0.3891078158	-0.266799
C	 1.1332146882	 2.1865789331	 0.1786036247	 0.099463
C	 0.6410175593	 3.2040873037	 1.2565256829	-0.010995
H	-1.9800550463	 1.8603743253	 0.2204839553	 0.254986
H	-1.2366488342	 4.2728861309	 0.3224415707	 0.093809
H	 0.9573375199	 3.7403341679	-1.6124250016	 0.098502
H	 3.2345932428	 2.7113039222	-0.4725552594	 0.120721
H	 3.0885954736	 2.4030526627	 1.2983258918	 0.120614
H	 0.6340227594	 3.0670516533	 2.3391736799	 0.095582
183.093	310.3935	370.2841	404.6496	469.2398	562.1949	639.8815	703.0879	711.7202	791.5927	819.6839	849.4459	868.9664	876.4301	897.9658	924.2554	978.8837	1004.8238	1040.7278	1073.6879	1093.0786	1108.1489	1127.3988	1180.4568	1183.7964	1188.8281	1249.5272	1281.8228	1283.7961	1304.6101	1380.9342	1513.8743	1858.7868	3058.3032	3104.6063	3113.602	3125.3655	3126.2119	3629.6309
O=C1NC2C3N4CC13C24	O=C1N[C@@H]2[C@H]3N4C[C@]13[C@H]24	
InChI=1S/C6H6N2O/c9-5-6-1-8-3(6)2(7-5)4(6)8/h2-4H,1H2,(H,7,9)	InChI=1S/C6H6N2O/c9-5-6-1-8-3(6)2(7-5)4(6)8/h2-4H,1H2,(H,7,9)/t2-,3-,4+,6+
