21
gdb 79244	2.42729	1.63489	1.38014	1.7642	82.21	-0.2224	0.0868	0.3092	1083.6924	0.18073	-387.044785	-387.035761	-387.034817	-387.077759	34.976	
C	 0.0442429413	 1.5881380691	 0.0015921571	-0.423938
C	 0.0613511515	 0.0671106113	-0.0295904008	-0.004977
C	 0.791956539	-0.6813517945	-1.1461369698	-0.190612
C	 2.2420082632	-0.8135042608	-0.6388546098	 0.041047
O	 2.3383340483	-0.1273805769	 0.6073351559	-0.330478
C	 1.0295970026	-0.6999193218	 0.930017056	 0.35779
C	 0.7908804084	-0.8778603716	 2.3972000788	-0.511171
C	 1.2207026977	-1.8023865425	-0.2002404811	 0.23765
C	 1.096387218	-3.2899228576	-0.2407033651	-0.53017
H	 1.064390051	 1.9786491624	-0.019335191	 0.132597
H	-0.4987299819	 1.9902926633	-0.8607123161	 0.108843
H	-0.4500605467	 1.9630644527	 0.9052045614	 0.107455
H	-0.9466597066	-0.348428129	 0.0845539986	 0.067108
H	 0.5316642428	-0.7586030557	-2.1953232646	 0.080373
H	 3.1198912171	-0.8933733377	-1.2672284054	 0.101258
H	 0.8189405223	 0.0925788174	 2.9048655661	 0.134333
H	-0.1895471734	-1.3299382237	 2.5765942032	 0.12087
H	 1.5587716965	-1.5161580371	 2.8439033972	 0.129271
H	 0.0684857488	-3.6165296235	-0.0444921945	 0.121331
H	 1.3782136559	-3.6715272365	-1.2281763494	 0.125387
H	 1.7480315141	-3.7696898374	 0.4984377934	 0.126033
157.6866	175.3998	180.7979	196.0606	201.2333	209.1533	290.8685	318.5622	387.0612	528.2327	588.7029	623.6447	665.3693	723.1874	754.3294	809.0956	844.9178	871.556	894.2747	922.5397	978.3224	1007.5946	1020.4349	1037.0394	1057.5347	1096.3279	1119.1368	1144.4123	1151.8512	1181.4378	1197.3111	1250.0832	1282.7796	1326.4874	1379.806	1401.0598	1411.3539	1414.8289	1462.0161	1478.777	1486.2153	1489.4311	1492.8747	1497.2482	1503.7252	3020.9503	3029.5877	3035.163	3043.0949	3080.5578	3088.5316	3091.1834	3104.2393	3114.1063	3126.757	3183.9276	3202.5914
CC1C2C3OC1(C)C23C	C[C@H]1[C@H]2[C@H]3O[C@]1(C)[C@@]23C	
InChI=1S/C8H12O/c1-4-5-6-7(5,2)8(4,3)9-6/h4-6H,1-3H3	InChI=1S/C8H12O/c1-4-5-6-7(5,2)8(4,3)9-6/h4-6H,1-3H3/t4-,5-,6+,7-,8-/m0/s1
