17
gdb 75135	2.60309	1.50291	1.19335	1.159	70.83	-0.2428	-0.0643	0.1785	1075.7746	0.135448	-455.183408	-455.17443	-455.173485	-455.216918	33.829	
C	 0.0491000788	 1.5531517024	 0.0365091874	-0.439493
C	-0.0212137024	 0.0230318318	-0.0301556953	 0.280875
O	-1.3653246966	-0.4334008166	-0.0495204862	-0.468739
C	 0.7717835115	-0.5787870766	-1.2107175935	-0.206398
N	 1.976724538	-1.2382828372	-0.6788773369	-0.287485
C	 1.9402496597	-1.2362110235	 0.6042516855	 0.294915
N	 2.8774156175	-1.7396816498	 1.4512961888	-0.571797
C	 0.7139253522	-0.5874914607	 1.1679942708	 0.296902
O	 0.3441484454	-0.5933854633	 2.3182259313	-0.345925
H	 1.0837495313	 1.9091274186	-0.0084452932	 0.126585
H	-0.5054949635	 1.9786909031	-0.8043484679	 0.132552
H	-0.3952256618	 1.9111217969	 0.9712151866	 0.124725
H	-1.712494707	-0.3176646778	 0.8449007714	 0.286567
H	 0.1491649341	-1.3149257574	-1.7300712257	 0.131466
H	 1.0694578883	 0.1750491249	-1.9469979997	 0.110144
H	 3.5496837051	-2.3904628403	 1.0777973185	 0.265203
H	 2.5750093996	-1.8888330846	 2.4015481681	 0.269901
47.1074	187.9343	209.0412	255.9021	269.9487	275.8182	340.8061	362.8454	382.8754	424.4767	457.3326	534.3631	574.4112	591.9195	673.4397	725.8945	806.6166	917.5497	936.8269	961.7436	978.7789	1040.0463	1118.0149	1136.118	1165.0753	1217.2538	1246.8567	1347.3344	1378.1208	1398.2111	1425.8173	1485.4414	1491.4975	1494.1894	1612.6144	1717.7081	1827.3205	3031.8529	3044.6285	3081.1756	3105.2693	3119.6761	3585.4847	3705.4702	3764.1235
CC1(O)CN=C(N)C1=O	C[C@@]1(O)CN=C(N)C1=O	
InChI=1S/C5H8N2O2/c1-5(9)2-7-4(6)3(5)8/h9H,2H2,1H3,(H2,6,7)	InChI=1S/C5H8N2O2/c1-5(9)2-7-4(6)3(5)8/h9H,2H2,1H3,(H2,6,7)/t5-/m1/s1
