17
gdb 91615	2.19886	2.10514	1.49202	4.0558	66.39	-0.2691	0.0024	0.2715	924.6716	0.13849	-459.013099	-459.006028	-459.005084	-459.04452	28.271	
O	 0.1400546838	 1.3878522993	-0.1601515705	-0.442106
C	 0.0436177612	-0.0047278253	 0.0058033167	 0.149362
C	 0.6388581762	-0.5772467201	 1.3397048765	-0.257825
C	-0.5404011316	-1.3864448714	 1.9016190638	 0.092199
C	-1.198923745	-1.9655090606	 0.6401545313	-0.247229
C	-1.4179117341	-0.5677346472	 0.0346181051	-0.19507
C	-2.0624380615	 0.1449822944	 1.217995726	 0.423962
O	-2.814190182	 1.0779949136	 1.2416978733	-0.357215
O	-1.5340483824	-0.415949272	 2.3466154485	-0.235868
H	-0.5042274123	 1.825995923	 0.4095065542	 0.296494
H	 0.563823842	-0.4324696661	-0.8557193892	 0.099381
H	 1.5107822104	-1.211483121	 1.1594694103	 0.111333
H	 0.933324264	 0.2291459556	 2.0146477814	 0.126012
H	-0.3343884408	-2.0556676593	 2.7346106445	 0.096789
H	-0.5275222798	-2.5985392881	 0.0544945913	 0.11464
H	-2.1247752943	-2.505584206	 0.8508923139	 0.123534
H	-1.9699480137	-0.4576619189	-0.8951942273	 0.101609
123.2452	145.1394	294.9482	368.7469	414.1897	424.8213	471.371	517.1545	573.3805	687.437	745.5857	809.1819	833.6143	860.0145	897.8685	935.4224	949.7518	965.5324	987.0466	1006.4409	1068.5519	1081.7115	1121.9859	1158.6448	1178.9916	1202.7465	1207.3128	1273.5713	1295.1553	1313.327	1328.4004	1346.3114	1362.4576	1441.6821	1478.2447	1501.664	1874.2085	3065.3117	3068.8146	3075.168	3124.0227	3126.6582	3142.8107	3160.7374	3780.5261
OC1CC2CC1C(=O)O2	O[C@H]1C[C@@H]2C[C@H]1C(=O)O2	
InChI=1S/C6H8O3/c7-5-2-3-1-4(5)6(8)9-3/h3-5,7H,1-2H2	InChI=1S/C6H8O3/c7-5-2-3-1-4(5)6(8)9-3/h3-5,7H,1-2H2/t3-,4+,5-/m0/s1
