20
gdb 116964	6.31543	0.46786	0.45971	2.266	85.33	-0.2432	0.0517	0.2949	2380.4635	0.169832	-403.085643	-403.075242	-403.074298	-403.123751	35.915	
O	-0.286722457	 1.3787416473	-0.0790124775	-0.41522
C	-0.2727126478	-0.0103145081	-0.3607441162	-0.063258
C	-1.0386102765	-0.7034339792	 0.7714851319	-0.323544
C	-1.0946265881	-2.1502305416	 0.6069691051	 0.052072
C	-1.1252939957	-3.3442987913	 0.4532020078	 0.0763
C	-1.1931857488	-4.7919059763	 0.2660390134	-0.39014
C	-2.4652505382	-5.2490117252	-0.4329539295	 0.051318
C	-3.0509452196	-6.5716272531	-0.108017158	-0.248916
N	-3.7317632846	-5.3292035492	 0.302856708	-0.305554
H	 0.1791771263	 1.8351263659	-0.785308292	 0.288865
H	-0.7580967581	-0.2370938719	-1.3216543081	 0.098089
H	 0.7525489062	-0.4074040279	-0.4046586876	 0.096433
H	-0.557848051	-0.4432118089	 1.7225357909	 0.135529
H	-2.050766201	-0.2827419156	 0.8118709265	 0.138273
H	-0.3238923177	-5.1304360716	-0.3145525942	 0.132092
H	-1.1195738175	-5.2964992555	 1.2398423818	 0.119393
H	-2.5790680418	-4.8623067713	-1.4434063598	 0.100008
H	-3.5679342044	-7.1474894124	-0.8702783806	 0.119463
H	-2.5545363485	-7.1724696842	 0.6507506277	 0.108459
H	-3.5677383363	-5.1514975199	 1.2914486305	 0.230339
14.4386	52.3748	74.6374	102.2976	125.9389	237.1343	274.0758	290.9315	323.4103	385.525	397.514	478.7604	548.5239	780.8355	794.4483	811.6903	830.5391	923.162	937.4486	976.6613	1001.9749	1048.8493	1080.6496	1088.1549	1124.53	1149.4587	1162.1717	1176.3178	1222.0766	1238.2804	1245.6705	1265.9079	1303.9405	1311.2914	1322.5853	1335.1856	1419.6585	1454.472	1461.5295	1478.4318	1513.7566	1528.567	2370.5477	2982.9696	3002.7537	3013.6129	3030.0087	3033.9852	3067.1816	3104.5345	3132.6485	3189.2571	3491.0741	3835.2975
OCCC#CCC1CN1	OCCC#CC[C@H]1CN1	
InChI=1S/C7H11NO/c9-5-3-1-2-4-7-6-8-7/h7-9H,3-6H2	InChI=1S/C7H11NO/c9-5-3-1-2-4-7-6-8-7/h7-9H,3-6H2/t7-/m0/s1
