17
gdb 127761	3.3166	1.56712	1.09199	4.9299	75.66	-0.1951	0.0058	0.2009	1079.8473	0.139485	-414.175485	-414.167889	-414.166945	-414.207736	28.325	
C	-0.1157735718	 1.4539808837	-0.0266224812	-0.341345
N	-0.0333899485	 0.0150494234	 0.0897062073	-0.086405
N	-0.0613921751	-0.7494294856	-1.0330953648	-0.171497
N	 0.0316224173	-2.0174429992	-0.6781551521	-0.308802
C	 0.1001098173	-2.0442119311	 0.6665470291	 0.335446
C	 0.0469109167	-0.7785565399	 1.1803163254	 0.309159
C	 0.2105977599	-0.79281023	 2.6661895628	-0.351119
C	-0.0152698486	-2.3276015354	 2.9259259965	-0.158556
N	 0.3045627043	-3.0258855414	 1.6465873893	-0.394338
H	 0.7790801198	 1.9285706562	 0.3870547411	 0.143268
H	-0.1935718923	 1.687271251	-1.0884828124	 0.17043
H	-0.9972176046	 1.8359626523	 0.4970891722	 0.142204
H	 1.2192898024	-0.4842477639	 2.971043918	 0.125948
H	-0.50227933	-0.1844491565	 3.2303339405	 0.119417
H	 0.6149305329	-2.7030594374	 3.7356992151	 0.116625
H	-1.0655340296	-2.4872611046	 3.2066709469	 0.108086
H	-0.21922617	-3.8817935416	 1.5137562865	 0.241479
107.1027	141.2718	188.1707	221.7176	254.6479	340.7671	514.195	569.0421	614.4604	655.706	707.7745	723.3981	790.3178	845.2333	862.8144	938.8331	1009.9038	1026.5448	1076.1202	1123.6573	1151.3043	1190.7195	1198.9882	1236.307	1255.9261	1281.8019	1304.582	1348.7324	1369.821	1442.1366	1476.1545	1484.1141	1490.7323	1503.538	1519.043	1575.0902	1621.1487	3004.3218	3016.6898	3043.8135	3076.0906	3094.8054	3105.5959	3161.6541	3562.157
CN1N=NC2=C1CCN2	Cn1nnc2c1CCN2	
InChI=1S/C5H8N4/c1-9-4-2-3-6-5(4)7-8-9/h6H,2-3H2,1H3	InChI=1S/C5H8N4/c1-9-4-2-3-6-5(4)7-8-9/h6H,2-3H2,1H3
