20
gdb 79771	2.87877	1.94644	1.72942	1.7556	79.63	-0.2107	0.0588	0.2694	904.6604	0.173998	-365.927613	-365.920697	-365.919753	-365.960504	28.181	
C	-0.2589479041	 1.6136363569	-0.0151810037	-0.444223
C	 0.0748530891	 0.1158048995	-0.001935024	 0.049771
C	 1.0921696328	-0.5666992822	-0.943220883	-0.032649
C	 2.5818885014	-0.0943976374	-0.8025557165	-0.063811
C	 2.7825543725	 0.9566853201	 0.3159706528	-0.249422
C	 2.3424501018	-0.1288795526	 1.3279060692	-0.063815
C	 0.8603669755	-0.6000965089	 1.1193170186	-0.032648
N	 1.2921555481	-1.6698935554	 0.1059582218	-0.170354
C	 2.7246983685	-1.2165516059	 0.2742961585	 0.020883
H	 0.2400399226	 2.1353991658	-0.8375760266	 0.124394
H	-1.3337092057	 1.7788620511	-0.1330675957	 0.114455
H	 0.0436179042	 2.1071220823	 0.9135170631	 0.124398
H	-0.8468566563	-0.4660776138	-0.1149558141	 0.09223
H	 0.7764591145	-0.8646558613	-1.94594295	 0.067229
H	 3.1666316076	-0.0281366737	-1.7196318911	 0.065656
H	 3.8524251621	 1.1567734749	 0.4394527919	 0.100084
H	 2.2523169726	 1.9082561642	 0.2717702534	 0.098441
H	 2.7088660373	-0.0940580624	 2.3535134014	 0.065657
H	 0.3310962998	-0.9288232207	 2.0169327643	 0.067229
H	 3.534437466	-1.9428441305	 0.3535468295	 0.066493
10.5623	219.3672	226.1272	384.8743	485.0725	561.8637	657.4271	677.5868	681.6726	769.1714	785.9116	810.9642	847.0922	900.2245	912.7572	935.0405	937.2646	964.75	986.0416	991.3656	1015.278	1065.4456	1066.1812	1103.4321	1103.7532	1129.7416	1145.9338	1167.4752	1189.2013	1201.5943	1214.886	1231.2471	1251.5242	1267.5357	1286.098	1291.8193	1338.0574	1349.6619	1378.2019	1417.6233	1488.988	1503.608	1508.5727	3034.7246	3038.8678	3048.729	3070.8863	3073.5157	3093.4413	3102.0416	3102.8883	3108.354	3114.3416	3127.4062	10.5735	219.3673	226.1273	384.8743	485.0725	561.8636	657.4271	677.5868	681.6726	769.1715	785.9116	810.9642	847.0923	900.2245	912.7572	935.0405	937.2647	964.75	986.0416	991.3657	1015.278	1065.4456	1066.1811	1103.432	1103.7531	1129.7415	1145.9336	1167.4751	1189.2014	1201.5943	1214.886	1231.2472	1251.5242	1267.5356	1286.0981	1291.8194	1338.0572	1349.6617	1378.2016	1417.6231	1488.9879	1503.6078	1508.5725	3034.7247	3038.8678	3048.729	3070.8863	3073.5158	3093.4413	3102.0416	3102.8883	3108.354	3114.3416	3127.4062
CC1C2C3CC4C1N2C34	C[C@H]1[C@H]2[C@H]3C[C@H]4[C@@H]1N2[C@@H]34	
InChI=1S/C8H11N/c1-3-6-4-2-5-7(3)9(6)8(4)5/h3-8H,2H2,1H3	InChI=1S/C8H11N/c1-3-6-4-2-5-7(3)9(6)8(4)5/h3-8H,2H2,1H3/t3-,4+,5-,6-,7+,8-
