14
gdb 29739	3.4079	1.36361	0.97993	6.3573	73.42	-0.2255	-0.0287	0.1968	1109.1607	0.101813	-432.914111	-432.905737	-432.904793	-432.947692	29.431	
C	 0.014347039	 1.449837213	 0.0208236618	-0.352521
N	 0.0269864882	-0.0034173058	 0.0081289463	-0.108941
C	 0.1243241986	-0.7948411315	-1.0956097436	 0.352459
O	 0.2189420589	-0.1956124716	-2.2989781483	-0.430529
C	 0.0988638342	-2.1053851009	-0.6616294686	-0.22331
N	-0.0131125917	-2.1347643149	 0.6976374047	-0.290471
C	-0.0548631651	-0.8739268717	 1.0831769403	 0.243402
C	-0.1682908395	-0.4038758701	 2.413044848	 0.240383
N	-0.2601690176	 0.028661188	 3.4845966818	-0.359068
H	 0.9391007231	 1.8422776173	-0.4095805963	 0.157613
H	-0.8329121933	 1.8281237291	-0.5566441674	 0.157617
H	-0.0740528983	 1.7857370608	 1.0542343261	 0.175709
H	 0.280214101	-0.8712971775	-2.982047313	 0.32014
H	 0.1548052225	-3.0063685642	-1.2529701817	 0.117518
52.0853	117.2435	150.8562	204.2285	274.7948	277.2959	320.7938	430.0239	519.7693	543.6386	612.7919	685.4069	708.2043	722.6023	756.2283	790.2041	987.9236	1130.7775	1155.4212	1179.4364	1213.5121	1285.373	1319.2745	1394.3977	1455.4202	1483.6796	1491.0447	1508.7974	1548.1814	1607.6242	2335.8439	3056.0017	3123.6495	3159.9711	3249.0199	3839.1046
CN1C(O)=CN=C1C#N	Cn1c(O)cnc1C#N	
InChI=1S/C5H5N3O/c1-8-4(2-6)7-3-5(8)9/h3,9H,1H3	InChI=1S/C5H5N3O/c1-8-4(2-6)7-3-5(8)9/h3,9H,1H3
