25
gdb 59359	2.83839	1.03239	0.85046	1.4389	88.84	-0.2529	0.0697	0.3226	1487.1396	0.227361	-389.491	-389.480275	-389.47933	-389.526257	40.665	
C	-0.0445210242	 1.6040477164	-0.0029840335	-0.40339
C	 0.0338550175	 0.0805232737	 0.1138758176	 0.116608
O	 0.7061764074	-0.3121628782	 1.3131428936	-0.434929
C	-1.3359237759	-0.5785155496	 0.0133361654	 0.027465
C	-2.1166157997	-0.5222687706	-1.3277854895	-0.264525
C	-2.6322055955	-1.9591754087	-1.0445687755	 0.046311
C	-2.8096146295	-2.9280725769	-2.2046070897	-0.413712
C	-1.4612370157	-2.138704675	-0.0164781341	-0.020926
C	-0.2325637471	-2.886944428	-0.5301890366	-0.404963
H	 0.9518791244	 2.0439065091	 0.0933358796	 0.121007
H	-0.4685278781	 1.9080912805	-0.9655494983	 0.11935
H	-0.6807320367	 2.0216021069	 0.7878326573	 0.102464
H	 0.6771085317	-0.3007435047	-0.6878087035	 0.083995
H	 0.1634105008	-0.0253859634	 2.0561923081	 0.273441
H	-1.967555011	-0.1810938592	 0.820816141	 0.052649
H	-2.8558307982	 0.2718810344	-1.4610679753	 0.091867
H	-1.4346245495	-0.5039686118	-2.1860453512	 0.094186
H	-3.5744068155	-1.8934925722	-0.487859496	 0.067154
H	-1.8961719652	-3.0215490125	-2.8007329511	 0.11332
H	-3.0820684386	-3.9298909112	-1.8534022312	 0.112194
H	-3.6061646014	-2.5863847863	-2.8753899201	 0.111108
H	-1.7651302586	-2.5826587724	 0.9366306003	 0.058976
H	 0.1132398478	-2.5121992401	-1.4996489776	 0.108991
H	 0.5942776027	-2.78613046	 0.1784674807	 0.134885
H	-0.4510061917	-3.9528402901	-0.6533553905	 0.106474
78.2927	87.6375	141.9924	208.5533	225.1704	234.9016	255.9792	269.3387	294.3271	320.9214	337.3631	380.4293	461.3915	506.3291	527.6689	648.0897	756.5888	789.3199	880.0528	888.6756	908.1276	951.171	976.3537	999.7113	1022.4367	1040.8635	1051.6223	1095.4423	1105.7961	1133.8291	1176.1491	1178.2162	1191.7397	1231.9674	1258.5025	1276.4371	1285.5747	1293.9169	1335.9391	1370.1711	1370.3621	1399.3653	1400.3041	1410.909	1414.2555	1418.8051	1489.8695	1491.0306	1491.9189	1493.6962	1493.8142	1505.1914	1512.5293	2995.346	3022.8695	3023.7567	3026.5083	3033.635	3037.4971	3047.8833	3049.3572	3086.8023	3092.5778	3093.2106	3094.8259	3100.9911	3113.918	3116.7235	3794.9789
CC(O)C1CC(C)C1C	C[C@@H](O)[C@H]1C[C@@H](C)[C@H]1C	
InChI=1S/C8H16O/c1-5-4-8(6(5)2)7(3)9/h5-9H,4H2,1-3H3	InChI=1S/C8H16O/c1-5-4-8(6(5)2)7(3)9/h5-9H,4H2,1-3H3/t5-,6-,7-,8+/m1/s1
