19
gdb 76906	2.32199	1.81215	1.45878	1.6976	69.65	-0.2424	0.0399	0.2823	979.3126	0.160798	-460.146737	-460.138738	-460.137793	-460.179452	31.207	
O	 0.2664534074	 1.2678581992	-0.422832667	-0.435895
C	 0.0584875611	-0.0840456175	-0.1059324467	 0.083618
C	 0.1746191895	-0.3946489258	 1.4284541738	 0.040985
O	 0.4033176777	 0.754903939	 2.2214743242	-0.415919
C	-1.3181046714	-0.8695105014	 1.4441783181	 0.079394
O	-2.2372298718	-0.0377746519	 2.1075549047	-0.2447
C	-2.5968297467	 1.0397431147	 1.2414410832	-0.088648
C	-2.5111838051	 0.4838079382	-0.1915501689	-0.234329
C	-1.4236214999	-0.5919976441	-0.088599677	-0.080062
H	 0.3120065547	 1.7273093532	 0.4296898211	 0.285215
H	 0.7142640163	-0.6930454609	-0.7375597126	 0.072002
H	 0.8825748003	-1.1948691127	 1.6704473197	 0.069823
H	 1.3451301976	 0.8146173682	 2.4080617711	 0.298053
H	-1.4600864277	-1.8889007169	 1.8112715103	 0.076667
H	-3.6009430173	 1.3666636557	 1.5251163156	 0.105934
H	-1.9070580772	 1.8831975048	 1.3789578629	 0.098515
H	-3.4614386415	 0.0278776237	-0.4829473617	 0.101537
H	-2.2539791373	 1.2588262144	-0.9163254684	 0.120803
H	-1.6094129488	-1.4515378999	-0.7341890223	 0.067007
52.9459	187.7172	210.6765	243.674	268.5887	289.1163	500.2674	528.7968	540.5799	586.0534	637.457	683.4427	779.5718	806.1372	839.1376	878.7243	894.7866	939.5852	953.1678	980.3844	1054.4162	1072.2614	1121.4635	1129.5939	1136.9597	1167.4213	1201.5971	1216.858	1229.1018	1255.7963	1268.5313	1279.432	1289.5009	1331.894	1345.4315	1355.4314	1393.1627	1422.7774	1436.8612	1475.4924	1521.733	3014.2199	3032.221	3047.2205	3061.2427	3076.9574	3089.4726	3101.3276	3123.9299	3698.3122	3830.9072
OC1C(O)C2OCCC12	O[C@H]1[C@@H](O)[C@H]2OCC[C@@H]12	
InChI=1S/C6H10O3/c7-4-3-1-2-9-6(3)5(4)8/h3-8H,1-2H2	InChI=1S/C6H10O3/c7-4-3-1-2-9-6(3)5(4)8/h3-8H,1-2H2/t3-,4+,5+,6-/m0/s1
