18
gdb 12626	2.98034	1.98936	1.3785	2.3801	73.12	-0.2376	-0.016	0.2215	948.8924	0.153067	-347.844726	-347.836513	-347.835569	-347.877553	30.328	
C	-0.2901235422	 1.5823543511	-0.0215577473	-0.391665
C	-0.0073050609	 0.0735847	-0.0384301676	-0.142838
C	 0.7877611525	-0.4439283332	-1.2110457612	-0.081998
C	 1.8461620304	-1.1686029717	-0.8444365079	-0.082003
C	 1.9866788642	-1.2917013143	 0.6522520923	-0.142829
C	 3.3529350818	-0.9121044076	 1.2403905786	-0.391677
C	 0.8550253849	-0.3751513861	 1.158031962	 0.391292
O	 0.6959566097	-0.0295311257	 2.3004685336	-0.321808
H	 0.6349475967	 2.1550093362	-0.1407986712	 0.120504
H	-0.9701367878	 1.8630179162	-0.8313202344	 0.114697
H	-0.7450511182	 1.8638453443	 0.9316219459	 0.139603
H	-0.9709171877	-0.4542763444	 0.0400444314	 0.108512
H	 0.5016138963	-0.2370292759	-2.2367046327	 0.098445
H	 2.5457705858	-1.6366439124	-1.528650386	 0.098445
H	 1.7468526322	-2.315161036	 0.9814330559	 0.108513
H	 3.6592978826	 0.0841669258	 0.9064832274	 0.120501
H	 3.297503003	-0.9039090843	 2.3319999645	 0.13961
H	 4.1238489264	-1.6251703019	 0.9335836866	 0.114698
45.2273	195.8805	199.1929	207.5782	210.146	270.4302	325.8873	509.1456	542.5647	560.6689	656.4653	731.0671	734.8901	802.7095	887.8398	902.814	977.4406	984.0153	1020.3132	1049.4731	1089.7704	1093.9979	1138.6383	1145.6823	1154.1365	1269.4474	1283.2195	1292.4718	1314.7134	1377.7006	1400.885	1408.4598	1492.7187	1494.2278	1499.1687	1500.3421	1676.8291	1843.0888	2983.6801	2985.0133	3040.0084	3040.6084	3109.5779	3110.2139	3124.9266	3125.2014	3178.1527	3201.8518
CC1C=CC(C)C1=O	C[C@H]1C=C[C@@H](C)C1=O	
InChI=1S/C7H10O/c1-5-3-4-6(2)7(5)8/h3-6H,1-2H3	InChI=1S/C7H10O/c1-5-3-4-6(2)7(5)8/h3-6H,1-2H3/t5-,6+
