17
gdb 127045	6.82663	0.79995	0.72298	2.4544	73.53	-0.2139	0.0286	0.2425	1545.9444	0.135676	-455.142297	-455.133413	-455.132468	-455.176275	32.432	
C	 0.0206586458	 1.4940064443	 0.0421188276	-0.392926
C	 0.0112272864	-0.0215713024	 0.0030800103	-0.043497
O	 0.6927407482	-0.4890561137	 1.1801924755	-0.275427
C	 0.7816315445	-1.81355923	 1.3218881267	 0.515149
N	 0.2842540629	-2.657965121	 0.4445257462	-0.267908
O	 0.6001620243	-3.9330545203	 0.9817571404	-0.236135
C	 1.2588762471	-3.7693229155	 2.1372304658	 0.514215
N	 1.5775603279	-4.9248895714	 2.8083337104	-0.592848
C	 1.4186802908	-2.4453358998	 2.4254249581	-0.488447
H	 1.0450745543	 1.8769731789	 0.0500436518	 0.128576
H	-0.4901928686	 1.8911646279	-0.8399727698	 0.121673
H	-0.4924026336	 1.8635873105	 0.9344586019	 0.129262
H	-1.0076788303	-0.4248068585	-0.003019307	 0.123486
H	 0.52290666	-0.4115391678	-0.8840850642	 0.122296
H	 1.624289859	-5.7417601275	 2.2154582775	 0.266314
H	 2.3671160111	-4.8485599307	 3.4313369378	 0.265148
H	 1.8940509102	-1.984757783	 3.2730234911	 0.111069
57.6417	98.7313	144.5109	218.0722	259.0679	265.9413	343.6484	349.7113	403.3379	490.7733	583.2029	676.4791	690.1834	713.3252	758.0745	779.6783	812.7721	906.2323	935.7951	1012.8796	1048.6885	1067.4116	1091.9809	1137.175	1183.1494	1214.8492	1290.3719	1365.9773	1393.3671	1418.0425	1484.8055	1497.9739	1512.0134	1528.7671	1564.5148	1629.5973	1682.4872	3037.2236	3046.2531	3074.726	3121.4925	3124.5618	3290.6064	3571.5583	3677.3425
CCOC1=NOC(N)=C1	CCOc1noc(N)c1	
InChI=1S/C5H8N2O2/c1-2-8-5-3-4(6)9-7-5/h3H,2,6H2,1H3	InChI=1S/C5H8N2O2/c1-2-8-5-3-4(6)9-7-5/h3H,2,6H2,1H3
