18
gdb 15951	2.99649	1.90724	1.35001	0.659	78.08	-0.253	0.0462	0.2992	955.4004	0.153112	-310.611034	-310.603193	-310.602249	-310.643084	30.38	
C	-0.2802138951	-0.9680843465	-0.7219725436	-0.457192
C	-0.1726931357	 0.1546442309	-0.3022040745	 0.320261
C	-0.0117859795	 1.5021457267	 0.2013974959	-0.235122
C	 0.0977591756	 1.7275094402	 1.7486738393	-0.223997
C	 1.2373718794	 2.7547688788	 1.4978413718	-0.305382
C	 1.3688409234	 2.1962679837	 0.0763733558	 0.372811
C	 2.59590242	 1.5645259125	-0.506503943	-0.3171
C	 1.9939644992	 2.8000957146	-1.1410774719	-0.331859
H	-0.3884627764	-1.9588349891	-1.0877945705	 0.193089
H	-0.7932889833	 2.1487190062	-0.2159226328	 0.099421
H	-0.8043856879	 2.0822693338	 2.2500651698	 0.104067
H	 0.4568583258	 0.8269809421	 2.2500347422	 0.116786
H	 0.8772441436	 3.7887754987	 1.5127750396	 0.102387
H	 2.1174632032	 2.6824199467	 2.1415737919	 0.102763
H	 3.5292977255	 1.6706118979	 0.0375070551	 0.108304
H	 2.477377199	 0.6178094054	-1.0234945949	 0.12531
H	 1.480334584	 2.6839407453	-2.0906047931	 0.114995
H	 2.5188454393	 3.7440956321	-1.0305700271	 0.110459
81.989	129.6108	189.7934	272.9165	308.8902	356.3007	482.2537	530.0052	558.6266	612.0606	628.2488	704.7411	770.8256	783.6206	867.2415	894.8311	915.2233	939.774	957.0374	986.7388	1050.8422	1069.2641	1078.2684	1087.3421	1116.3732	1188.7861	1194.6504	1233.132	1238.4864	1266.1602	1273.4561	1345.6284	1373.7467	1461.7521	1479.7687	1496.552	1504.942	2228.9878	3028.477	3046.199	3076.1159	3098.0262	3120.2851	3125.0827	3135.7295	3199.3317	3215.515	3504.8773
C#CC1CCC11CC1	C#C[C@H]1CCC21CC2	
InChI=1S/C8H10/c1-2-7-3-4-8(7)5-6-8/h1,7H,3-6H2	InChI=1S/C8H10/c1-2-7-3-4-8(7)5-6-8/h1,7H,3-6H2/t7-/m0/s1
