20
gdb 19289	3.19941	1.70713	1.34756	1.7157	74.04	-0.2475	0.0848	0.3322	1001.4985	0.176261	-348.97193	-348.963587	-348.962643	-349.004528	31.513	
C	-0.1856727935	 1.5393411489	-0.0424675991	-0.38834
C	-0.171030697	 0.0110668261	 0.0723629971	-0.183925
C	 0.7296559732	-0.51649699	 1.1858352763	-0.020997
C	 0.7519414687	-2.0344539464	 1.4140120352	 0.007788
O	 1.354528877	-2.6419414383	 0.2617733482	-0.251468
C	 2.2121790218	-2.0965349006	 1.2740684266	 0.022894
C	 2.3164979216	-0.5844472469	 1.0168505931	-0.028091
C	 2.9815043999	-0.1690869127	-0.2889812341	-0.409877
H	 0.8083556458	 1.9404454849	-0.2630958428	 0.120393
H	-0.8585952341	 1.868145167	-0.8406539013	 0.113125
H	-0.5269289693	 2.0020913234	 0.8906902794	 0.111151
H	-1.1933204041	-0.340987367	 0.2672721874	 0.093287
H	 0.1241104969	-0.4399918105	-0.8804844822	 0.112257
H	 0.4958337059	-0.0029027558	 2.1259502574	 0.070122
H	 0.0695859	-2.6488487491	 1.9914504113	 0.096701
H	 2.937474097	-2.7693481098	 1.7183346368	 0.09757
H	 2.7922495023	-0.0814905217	 1.8648121289	 0.073673
H	 2.5487657302	-0.7083785676	-1.1350899761	 0.135192
H	 2.8806713561	 0.9045151658	-0.4742039617	 0.116464
H	 4.0529867318	-0.3979267296	-0.2593356703	 0.112081
93.7669	131.9231	179.3499	224.9305	237.9929	267.6081	300.5858	424.1747	533.1933	601.4693	707.2995	724.4209	800.9956	851.157	862.462	875.4889	893.3566	966.3524	992.2799	1026.1542	1043.9538	1053.7855	1070.996	1089.7599	1156.4609	1174.9109	1208.7627	1238.4877	1247.262	1280.289	1283.7798	1330.9432	1363.0116	1379.3591	1397.3689	1410.2831	1414.3344	1486.6922	1491.6939	1500.0836	1506.0546	1511.1067	3017.2795	3031.2351	3034.1016	3035.986	3059.0062	3074.4504	3095.3116	3099.9024	3108.0079	3126.0798	3168.9724	3184.8161
CCC1C2OC2C1C	CC[C@H]1[C@H]2O[C@H]2[C@H]1C	
InChI=1S/C7H12O/c1-3-5-4(2)6-7(5)8-6/h4-7H,3H2,1-2H3	InChI=1S/C7H12O/c1-3-5-4(2)6-7(5)8-6/h4-7H,3H2,1-2H3/t4-,5+,6-,7+/m0/s1
