19
gdb 7954	2.7313	1.90471	1.41924	2.5073	70.94	-0.2107	-0.017	0.1936	959.5851	0.164857	-365.081091	-365.072763	-365.071818	-365.114022	31.09	
C	 0.7112522166	 1.5656492937	-0.0815881932	-0.388133
C	-0.0120625796	 0.2284982903	 0.0995074656	 0.027869
C	 0.279337066	-0.75809955	-1.0512423856	-0.333212
C	 1.4860505576	-1.5508968567	-0.5472274269	 0.395164
O	 2.2163907044	-2.2544111823	-1.1937319413	-0.306331
C	 1.6037670913	-1.2671610213	 0.9609573007	-0.29071
N	 0.4476117713	-0.4534424314	 1.3390972867	-0.06658
C	-0.6031655093	-1.2229890045	 1.9952434726	-0.332746
H	 1.7913180505	 1.42432014	-0.2015635739	 0.118453
H	 0.344935758	 2.0868287658	-0.9722603791	 0.113529
H	 0.55187163	 2.203962993	 0.7910404698	 0.123843
H	-1.0839598731	 0.4209303731	 0.1959421617	 0.077812
H	-0.5480643441	-1.4638766786	-1.1943721689	 0.130826
H	 0.4866045292	-0.2976318845	-2.0197514732	 0.12867
H	 1.6554499474	-2.2027863086	 1.5246275019	 0.129539
H	 2.5505366944	-0.7376016723	 1.1355887864	 0.131654
H	-0.2125594523	-1.6606338803	 2.9188062625	 0.124624
H	-1.4267733068	-0.5563811892	 2.2682060101	 0.122728
H	-1.0213230114	-2.0459998461	 1.3849879741	 0.093001
56.6576	102.3962	210.9563	234.4982	266.8465	320.0243	384.6938	444.8376	458.5435	485.8962	599.1189	679.1461	748.585	785.6404	827.232	894.4509	929.744	1004.6277	1040.2879	1066.5537	1093.5676	1112.5864	1148.7814	1163.9944	1212.9984	1221.4048	1267.8112	1274.9746	1297.0567	1343.9269	1383.7191	1407.0205	1447.6323	1454.7309	1474.2087	1490.2534	1495.4659	1496.2117	1504.8987	1851.2886	2926.146	3013.8777	3033.1082	3043.7773	3063.0531	3067.4851	3091.6439	3099.9671	3107.814	3111.5957	3122.1111
CC1CC(=O)CN1C	C[C@H]1CC(=O)CN1C	
InChI=1S/C6H11NO/c1-5-3-6(8)4-7(5)2/h5H,3-4H2,1-2H3	InChI=1S/C6H11NO/c1-5-3-6(8)4-7(5)2/h5H,3-4H2,1-2H3/t5-/m0/s1
