20
gdb 78472	3.28603	1.50144	1.47732	2.4697	78.44	-0.2214	0.0851	0.3065	1008.3197	0.17357	-403.112347	-403.105325	-403.104381	-403.143325	29.464	
C	-0.0379750483	 1.485564053	 0.0278368379	-0.320391
N	 0.0438882738	 0.0314120412	-0.0197731638	-0.080127
C	 0.6665047006	-0.5207794087	-1.229148016	-0.033816
C	 1.3992826241	-0.5156424512	 0.0729356618	-0.024847
C	 1.4832182526	-2.0213242863	 0.4373797381	 0.065205
C	 1.720095305	-2.6345608982	-0.9582128746	-0.226018
C	 0.3979255088	-2.0190486587	-1.4996393361	-0.090757
C	-0.5745678628	-2.5527915831	-0.433327669	-0.068229
O	 0.1952586896	-2.5222223769	 0.7871092955	-0.263542
H	 0.8116508461	 1.9969874252	-0.456895794	 0.095678
H	-0.9587501557	 1.8092498128	-0.4677398702	 0.123655
H	-0.079817913	 1.8074865793	 1.0730422326	 0.127342
H	 0.9153690002	 0.1513309001	-2.0452450399	 0.081349
H	 2.227046718	 0.1555269997	 0.2851281823	 0.080598
H	 2.1839955255	-2.2703017647	 1.2345347058	 0.072845
H	 2.6076361364	-2.2423088082	-1.4615274995	 0.095515
H	 1.7420727244	-3.7279659671	-0.9513159218	 0.099816
H	 0.1210209294	-2.2608510884	-2.5258149773	 0.066696
H	-1.4614896475	-1.9264234241	-0.315590322	 0.113483
H	-0.8752215772	-3.586951236	-0.6468231896	 0.085545
191.3214	208.4374	267.0944	308.2608	385.3453	433.3675	463.9981	557.1515	632.2235	763.9008	768.7105	826.3306	851.1236	859.6911	895.2713	927.7443	934.9545	944.739	955.162	975.9097	999.2809	1033.5989	1067.5802	1085.7442	1126.3659	1134.6171	1153.7219	1160.023	1177.0071	1216.1341	1230.1174	1265.148	1274.827	1307.8317	1310.0748	1331.159	1384.0124	1392.3056	1453.7955	1486.1203	1491.872	1497.1191	1508.6662	2953.0798	3014.5302	3059.7742	3066.3903	3099.9815	3105.24	3115.7413	3117.8734	3119.8118	3143.3977	3154.7894
CN1C2C1C1CC2CO1	CN1[C@H]2[C@@H]1[C@@H]1C[C@H]2CO1	
InChI=1S/C7H11NO/c1-8-6-4-2-5(7(6)8)9-3-4/h4-7H,2-3H2,1H3	InChI=1S/C7H11NO/c1-8-6-4-2-5(7(6)8)9-3-4/h4-7H,2-3H2,1H3/t4-,5-,6+,7-,8?/m0/s1
