17
gdb 74251	3.26256	1.29916	1.07758	4.5716	78.34	-0.2417	-0.0068	0.2349	1138.7519	0.136615	-380.865899	-380.857894	-380.85695	-380.898471	30.255	
C	-0.0579009249	 1.5063648775	 0.0853695114	-0.499377
C	 0.0021811724	 0.0149440365	 0.012596883	 0.331026
C	 0.0773575085	-0.7578707009	-1.0724253716	-0.202798
C	 0.0687482878	-2.2301526475	-0.6854218709	-0.160666
C	 1.208638948	-2.977993488	-1.2327205036	 0.28981
N	 2.1080279193	-3.5513980834	-1.6771193562	-0.328671
N	 0.0435796916	-2.263326292	 0.8034552739	-0.105011
C	 1.2212262347	-1.6653701646	 1.449644141	-0.239945
C	-0.0046173175	-0.8457908802	 1.2358460695	-0.119801
H	 0.7886020152	 1.9060392989	 0.6565020144	 0.139878
H	-0.0475966351	 1.9589063878	-0.9087628415	 0.135102
H	-0.9678705156	 1.8356300923	 0.6017514476	 0.136896
H	 0.1565431962	-0.4262723219	-2.1000744742	 0.118801
H	-0.8427597186	-2.7279046143	-1.0450905405	 0.138831
H	 1.4383419614	-2.0823191943	 2.4285745451	 0.12828
H	 2.0908454614	-1.4329334128	 0.8402674762	 0.135047
H	-0.6645448649	-0.602486113	 2.0647894063	 0.1026
97.8139	142.008	174.1874	209.7739	306.8611	324.937	383.98	499.1051	555.6652	572.898	607.436	729.2957	784.6523	828.2099	834.8316	868.6813	945.3258	998.4246	1015.4744	1028.2322	1053.4328	1072.5891	1094.5183	1113.9181	1158.2394	1194.7967	1247.4998	1272.0875	1296.357	1331.2098	1378.6789	1414.7971	1478.2155	1486.2919	1494.4053	1712.3314	2359.0346	3005.2607	3026.5259	3075.5789	3110.3405	3123.6396	3142.3669	3202.2532	3214.9284
CC1=CC(C#N)N2CC12	CC1=C[C@@H](C#N)N2C[C@@H]12	
InChI=1S/C7H8N2/c1-5-2-6(3-8)9-4-7(5)9/h2,6-7H,4H2,1H3	InChI=1S/C7H8N2/c1-5-2-6(3-8)9-4-7(5)9/h2,6-7H,4H2,1H3/t6-,7-,9?/m0/s1
