17
gdb 31673	5.59468	0.8356	0.76569	5.119	80.78	-0.2048	-0.026	0.1788	1467.6974	0.137056	-418.048771	-418.04004	-418.039096	-418.082916	31.464	
C	 0.2466503513	 0.9965382855	-0.6086718163	-0.328728
N	-0.4172620797	 0.1602332358	 0.4011489899	-0.387747
C	 0.4281643695	-0.4724708541	 1.3257153251	 0.334705
C	 0.7919329106	-0.1915335601	 2.6197832556	-0.353464
C	 1.6578157095	-1.244748735	 3.0625458116	 0.194432
C	 2.2906930026	-1.3800446715	 4.3667079153	 0.069978
O	 3.0406982584	-2.2780564337	 4.6917567335	-0.294379
C	 1.7993585874	-2.1290820274	 2.0053464967	-0.145231
N	 1.0519017224	-1.6581004343	 0.972163272	-0.268368
H	 0.9210624581	 0.3791500253	-1.2089263097	 0.126825
H	-0.5100169014	 1.4132443252	-1.2789873366	 0.125413
H	 0.835949096	 1.8201661533	-0.1785574498	 0.116077
H	-1.1235256501	 0.6943081355	 0.8911842585	 0.238707
H	 0.4875534391	 0.67235155	 3.1917843156	 0.09943
H	 2.0316737627	-0.5687840884	 5.0855090447	 0.054731
H	 2.3704901317	-3.0399580256	 1.9383243486	 0.149992
H	 0.9008718019	-2.1222666803	 0.0917463454	 0.267626
47.6293	96.6615	159.8194	181.3638	202.2183	263.6675	365.1625	401.3728	485.1106	561.1482	652.9742	668.0946	689.1013	754.4439	773.4313	786.4475	815.693	974.475	1001.318	1041.593	1049.8719	1127.5761	1138.01	1157.4878	1177.3606	1268.4231	1346.3654	1387.6461	1421.6007	1452.7545	1462.4617	1482.0477	1488.6317	1512.248	1554.3114	1626.2965	1779.6106	2863.1036	2991.4599	3081.1015	3118.2504	3243.1596	3280.8087	3564.9658	3663.3489
CNC1=CC(C=O)=CN1	CNc1cc(C=O)c[nH]1	
InChI=1S/C6H8N2O/c1-7-6-2-5(4-9)3-8-6/h2-4,7-8H,1H3	InChI=1S/C6H8N2O/c1-7-6-2-5(4-9)3-8-6/h2-4,7-8H,1H3
