20
gdb 8939	3.48056	1.19658	0.95642	3.0391	72.07	-0.2444	-0.0152	0.2292	1250.2458	0.173746	-386.15582	-386.145729	-386.144785	-386.191081	35.499	
C	 0.0334666389	 1.604259465	-0.1122373279	-0.382322
C	 0.0353047341	 0.0740499498	-0.0594882928	-0.193439
C	-1.3734020383	-0.5188071895	 0.0562895225	 0.134415
O	-2.2081833485	-0.0963799202	-1.0238751259	-0.429128
C	-1.3935413698	-2.0573336498	 0.158977626	-0.095767
C	-0.8369681987	-2.5915020913	 1.491323294	-0.419707
C	-2.8295435302	-2.5331722538	 0.0048788865	 0.171027
O	-3.196199325	-3.3730592234	-0.7745929735	-0.257043
H	 1.0452912183	 1.994468585	-0.2554652416	 0.112224
H	-0.595450483	 1.960770025	-0.9316028866	 0.131735
H	-0.360357708	 2.0289274696	 0.8176988023	 0.115842
H	 0.5094092688	-0.3328228434	-0.9645331349	 0.090459
H	 0.6449927107	-0.2679154483	 0.7845309968	 0.102106
H	-1.8626073753	-0.1027062115	 0.9478612645	 0.088338
H	-1.8584540703	-0.4797791507	-1.8369523937	 0.283745
H	-0.8251027781	-2.4870736485	-0.6760441939	 0.083917
H	-1.4196991138	-2.2150785672	 2.3397895087	 0.124443
H	-0.8737637041	-3.6843225163	 1.5154227952	 0.135714
H	 0.2028136818	-2.2887489619	 1.6383493711	 0.130903
H	-3.5429984695	-2.0544945184	 0.7159565233	 0.07254
54.1957	80.8513	102.1587	169.9005	209.1836	216.4163	255.3305	302.1843	320.2309	335.5519	381.0539	466.4299	499.208	578.7125	779.6678	861.1062	887.5054	940.3155	971.7075	985.966	1045.1499	1070.2749	1100.9973	1116.8283	1152.463	1167.5966	1247.8834	1263.9453	1311.0896	1334.1235	1366.9574	1389.2409	1403.9846	1409.1396	1418.3283	1430.734	1480.2474	1495.286	1497.5008	1504.1216	1509.8126	1837.4237	2859.3686	3005.0614	3019.786	3035.4359	3039.0946	3039.9172	3065.3038	3104.506	3106.8091	3121.479	3127.1083	3790.907
CCC(O)C(C)C=O	CC[C@@H](O)[C@@H](C)C=O	
InChI=1S/C6H12O2/c1-3-6(8)5(2)4-7/h4-6,8H,3H2,1-2H3	InChI=1S/C6H12O2/c1-3-6(8)5(2)4-7/h4-6,8H,3H2,1-2H3/t5-,6+/m0/s1
