16
gdb 17778	6.60884	1.16519	1.12207	3.9491	67.37	-0.2781	0.0083	0.2864	1063.2457	0.13103	-383.709001	-383.702064	-383.701119	-383.741347	25.559	
O	-0.1162510852	-0.0065510604	-0.016260942	-0.276811
C	-0.0637091982	 1.1864085554	-0.0227118309	 0.158849
O	 1.0771643703	 1.866600194	 0.1899746018	-0.207487
C	 1.0394517316	 3.2873623334	 0.1623042549	 0.195213
C	 1.8262312587	 4.0303267179	 1.2699667614	-0.085271
C	 3.1346472497	 3.5493096282	 0.5662710161	-0.222725
C	 2.188034355	 4.0038417678	-0.5894997212	-0.085281
C	 1.8381750622	 5.2401188792	 0.2899558827	-0.224527
H	-0.9332118319	 1.8486775647	-0.2011918481	 0.078234
H	 0.0206441834	 3.6351391234	-0.0408538686	 0.082096
H	 1.6047777167	 4.0409340417	 2.3370681016	 0.083077
H	 4.0199459282	 4.1682185791	 0.7297229014	 0.095797
H	 3.3638598469	 2.4862518614	 0.6260050536	 0.124547
H	 2.3829000995	 3.9842276538	-1.661652535	 0.083074
H	 0.8845243172	 5.7403913442	 0.0972665159	 0.09527
H	 2.645641916	 5.9590540363	 0.4368439465	 0.105944
30.5958	145.8247	170.584	368.515	371.1184	441.6715	564.256	734.7223	766.7154	800.2234	893.037	899.8988	909.2974	935.249	1014.5252	1018.2639	1025.0751	1044.3415	1089.6903	1099.0602	1113.3608	1142.0327	1148.2306	1195.9855	1197.4024	1214.3055	1247.3976	1256.6598	1279.4579	1396.0016	1450.4857	1500.3707	1537.2478	1865.1235	2947.2953	3047.1817	3056.7171	3073.4376	3116.5315	3120.7994	3130.6545	3156.0054
O=COC1C2CC1C2	O=CO[C@H]1[C@H]2C[C@@H]1C2	
InChI=1S/C6H8O2/c7-3-8-6-4-1-5(6)2-4/h3-6H,1-2H2	InChI=1S/C6H8O2/c7-3-8-6-4-1-5(6)2-4/h3-6H,1-2H2/t4-,5+,6-
