18
gdb 83694	2.30276	1.81525	1.48991	1.331	71.39	-0.2249	-0.0596	0.1653	965.7746	0.147888	-439.034368	-439.02635	-439.025405	-439.067629	30.321	
O	 0.794807936	 0.8012403379	 0.4406751998	-0.427645
C	 0.1464811567	-0.3665567243	 0.0455075385	 0.104453
C	-1.4017843681	-0.3896396076	-0.059400391	 0.009387
C	-2.1124763684	 0.9141124048	-0.4713936786	-0.258058
C	-2.0733553704	 0.377920844	-1.9260685769	-0.171037
N	-1.339387193	-0.8688283369	-1.5037435584	-0.161217
C	 0.1785467134	-0.7908327779	-1.4760288167	-0.104605
C	 0.8382986616	 0.1780917064	-2.4180796454	 0.143246
O	 0.8006390685	 1.3831627863	-2.2720159208	-0.269304
H	 0.7373848693	 1.4336666934	-0.2908735209	 0.302625
H	 0.5256721161	-1.1684950507	 0.684978652	 0.100439
H	-1.924765593	-1.0358902096	 0.650768935	 0.07669
H	-3.1084782409	 1.0512131825	-0.0472659127	 0.108864
H	-1.5295948927	 1.8196558142	-0.2892070009	 0.114389
H	-3.0504921001	 0.0987535945	-2.3304096555	 0.112747
H	-1.5648892863	 1.0073497962	-2.6579791138	 0.122625
H	 0.5914786427	-1.7897409855	-1.6476818755	 0.089559
H	 1.3734951785	-0.2565607676	-3.2878112684	 0.106842
40.8636	92.5063	226.1519	240.4367	248.8372	387.6472	420.6506	521.8456	556.1237	645.0525	682.9681	732.4262	770.7791	811.2873	844.9928	887.0879	908.2673	952.1336	984.3925	1026.9469	1035.2796	1080.7963	1104.7136	1160.4404	1175.528	1213.7173	1220.0233	1229.7968	1257.0856	1272.747	1310.4729	1317.6015	1338.4645	1374.2753	1422.67	1457.5028	1488.1323	1505.9616	1777.0806	2914.8679	3051.1184	3058.6644	3060.6803	3073.2452	3078.8568	3114.812	3131.2517	3708.026
OC1C2CCN2C1C=O	O[C@H]1[C@H]2CCN2[C@H]1C=O	
InChI=1S/C6H9NO2/c8-3-5-6(9)4-1-2-7(4)5/h3-6,9H,1-2H2	InChI=1S/C6H9NO2/c8-3-5-6(9)4-1-2-7(4)5/h3-6,9H,1-2H2/t4-,5+,6+/m1/s1
