16
gdb 34445	3.02631	1.78027	1.29593	5.7467	73.19	-0.2433	0.02	0.2633	952.5505	0.127631	-396.864446	-396.857768	-396.856824	-396.895411	26.846	
N	-0.0785689411	-1.1217127688	 0.0291574389	-0.33526
C	-0.0230259976	 0.032156612	 0.0265957217	 0.222364
C	-0.0066311582	 1.4801441855	 0.0353263265	 0.279835
N	-0.822679783	 2.1060695179	 1.0616221596	-0.379585
C	-0.6581441001	 3.5527247604	 0.7459105098	-0.200379
C	 0.3657734549	 3.4666173957	-0.3779822864	-0.072913
C	 1.3327235716	 2.2706239834	-0.0772207009	-0.064376
N	 1.4244889551	 1.8838554619	-1.5284713643	-0.321272
C	-0.0121813616	 2.2820827251	-1.3251759031	-0.091577
H	-1.7893449958	 1.8068842598	 0.99707149	 0.234053
H	-1.5958226727	 4.0192560982	 0.4224589821	 0.110854
H	-0.2878694808	 4.1027747029	 1.6178468862	 0.120243
H	 0.776397323	 4.3790902828	-0.810649903	 0.084382
H	 2.1772535091	 2.2222324482	 0.6099604015	 0.102256
H	 1.9098049716	 2.6240685185	-2.0420786616	 0.216419
H	-0.7564793546	 2.2431141965	-2.121420897	 0.094954
153.9332	162.1103	284.5159	389.3587	414.8003	524.2913	538.0422	589.5624	695.25	704.1277	747.9611	817.082	844.1287	897.8446	915.9052	942.6968	959.8837	997.1145	1036.8944	1054.4898	1073.762	1121.623	1140.284	1147.6786	1189.9035	1219.732	1232.8511	1252.6579	1285.8569	1290.6036	1322.6938	1361.6892	1419.642	1516.3094	2366.3737	3032.2001	3069.8983	3111.8146	3120.7917	3130.1154	3408.4227	3538.7694
N#CC12NCC3C1NC23	N#C[C@@]12NC[C@H]3[C@@H]1N[C@@H]23	
InChI=1S/C6H7N3/c7-2-6-4-3(1-8-6)5(6)9-4/h3-5,8-9H,1H2	InChI=1S/C6H7N3/c7-2-6-4-3(1-8-6)5(6)9-4/h3-5,8-9H,1H2/t3-,4-,5+,6+
