17
gdb 89687	2.6207	1.35844	1.09428	5.3919	72.17	-0.2419	-0.0253	0.2167	1144.1581	0.132555	-458.926871	-458.917839	-458.916894	-458.960568	33.061	
C	-0.090956464	 1.5320463725	-0.0330936059	-0.420682
C	 0.1159018988	 0.0347670219	 0.0265414863	 0.098306
O	 1.20685397	-0.4459071395	-0.8204828307	-0.321423
C	 1.7454375517	-1.2165959465	 0.2368996972	 0.325275
C	 2.1941393875	-0.3060747827	 1.3750002551	-0.415692
C	 0.7423801478	-0.6301748358	 1.2558769685	 0.255639
O	-0.0010457942	-1.2508386784	 2.2299405045	-0.446578
C	 2.2286727808	-2.5856969112	 0.0404906042	 0.065712
O	 2.2550852181	-3.167850423	-1.0158260051	-0.269031
H	 0.8059027187	 2.075404444	 0.2765157154	 0.122332
H	-0.3401141365	 1.8365828621	-1.0540172738	 0.140463
H	-0.9215946841	 1.8210599856	 0.6194309568	 0.126022
H	-0.8017214948	-0.5024527773	-0.2435194869	 0.105591
H	 2.6961156833	-0.8225520021	 2.1891384932	 0.130788
H	 2.5984869305	 0.6685793924	 1.1178529161	 0.133454
H	 0.2024432634	-0.8488020578	 3.0809900362	 0.29896
H	 2.576300473	-3.0595384042	 0.986966639	 0.070865
93.9927	131.2203	153.6706	186.0279	209.4603	243.7015	293.994	360.602	436.3108	442.7476	516.7626	571.4482	665.8691	707.8683	791.4797	820.8163	873.4811	920.2807	955.668	1021.6065	1034.931	1064.0769	1087.6381	1115.3696	1137.6937	1202.7146	1249.4446	1336.4218	1340.7312	1378.0555	1401.761	1417.7575	1437.0338	1481.7364	1489.5531	1493.6733	1807.7964	2867.4296	3037.4617	3041.1832	3112.2854	3114.0031	3121.7999	3207.2749	3810.1199
CC1OC2(CC12O)C=O	C[C@H]1O[C@]2(C[C@@]12O)C=O	
InChI=1S/C6H8O3/c1-4-6(8)2-5(6,3-7)9-4/h3-4,8H,2H2,1H3	InChI=1S/C6H8O3/c1-4-6(8)2-5(6,3-7)9-4/h3-4,8H,2H2,1H3/t4-,5-,6-/m1/s1
