19
gdb 121592	4.09403	0.72016	0.64418	0.4621	75.	-0.2388	-0.0277	0.2111	1759.0621	0.158928	-456.425426	-456.415148	-456.414204	-456.462345	36.046	
C	 0.1895708694	 1.4274549913	 0.1695064564	-0.378513
C	 0.2580283046	-0.0867317133	-0.0420326507	-0.170033
C	 0.2734448566	-0.4630596231	-1.5285997677	-0.149932
N	 0.3224556973	-1.8961673112	-1.7476374755	-0.309484
C	 1.3832482838	-2.5410176909	-2.2630310866	 0.326329
O	 2.4317210176	-2.0403393708	-2.6451799052	-0.401378
C	 1.1378360989	-4.06562214	-2.3354774121	 0.335487
N	 2.1960779751	-4.7068386873	-2.8636922407	-0.516468
O	 0.098915011	-4.5738817701	-1.9486882004	-0.379968
H	 1.0520596138	 1.9296591797	-0.2818260834	 0.123187
H	-0.7143760895	 1.8527949072	-0.280601761	 0.117122
H	 0.1788190359	 1.6765030845	 1.2344238407	 0.119337
H	 1.1568607656	-0.4961928968	 0.4331813059	 0.113227
H	-0.5989448002	-0.5703930578	 0.4443126865	 0.098378
H	-0.6135424237	-0.0514419447	-2.0274796013	 0.110064
H	 1.1552222043	-0.0440439484	-2.0210398853	 0.144198
H	-0.4470137379	-2.4960434761	-1.4787867144	 0.266891
H	 2.9915357608	-4.1508515066	-3.1377350873	 0.282858
H	 2.1861606466	-5.7060052655	-2.9738537281	 0.268697
26.8671	66.1097	81.9143	97.2224	205.9089	233.9501	265.5883	314.7466	345.2191	353.5784	465.5141	512.0676	549.1955	641.7636	666.6755	686.7485	748.2782	834.9311	839.1057	893.1657	932.7721	1033.8615	1075.8291	1103.6171	1126.4572	1187.0659	1233.314	1282.2557	1331.9631	1337.7623	1373.0363	1405.7252	1415.9554	1482.9761	1493.0628	1499.9058	1510.4076	1566.6155	1585.5695	1777.3615	1806.2243	3021.0902	3026.3066	3033.6658	3063.8549	3097.6235	3108.7897	3110.3622	3584.3525	3588.2504	3736.543
CCCNC(=O)C(N)=O	CCCNC(=O)C(=O)N	
InChI=1S/C5H10N2O2/c1-2-3-7-5(9)4(6)8/h2-3H2,1H3,(H2,6,8)(H,7,9)	InChI=1S/C5H10N2O2/c1-2-3-7-5(9)4(6)8/h2-3H2,1H3,(H2,6,8)(H,7,9)
