20
gdb 115680	2.45628	1.23066	1.02456	5.4199	75.32	-0.2551	0.0178	0.2728	1260.2185	0.172085	-440.305164	-440.296266	-440.295322	-440.33908	33.217	
C	 0.2278663958	 1.7111997051	-0.0395104152	-0.389918
C	-0.2993009255	 0.3155800306	-0.3921797608	-0.208399
C	 0.7005357775	-0.4885563142	-1.2072759458	 0.067191
N	 1.9661114905	-0.901437363	-0.5288165012	-0.348414
H	 2.74813736	-0.2566234683	-0.5824474231	 0.229696
H	 0.9855812229	-2.0083778413	 0.7514790452	 0.307459
C	 2.0289592986	-2.1017973612	-1.4031007708	-0.187902
C	 0.484119976	-2.001102603	-1.5488959232	-0.185642
C	-0.2551645835	-2.7829761546	-0.4687137775	 0.428962
O	 0.2409171001	-2.6473384896	 0.7811471355	-0.383154
O	-1.2061926352	-3.4821019237	-0.6923323895	-0.335176
H	 1.134787088	 1.6478663066	 0.5715265241	 0.120008
H	 0.4674734277	 2.2880438985	-0.9399925022	 0.114515
H	-0.5135653822	 2.2775829025	 0.5308222627	 0.124852
H	-0.5563821335	-0.2271195932	 0.522547541	 0.12092
H	-1.2228401388	 0.40251529	-0.9782625464	 0.111239
H	 0.9110033428	 0.0426961342	-2.1496785756	 0.077497
H	 2.5306848403	-1.9249285971	-2.3632360541	 0.109114
H	 2.4464353749	-2.9950101669	-0.9308091348	 0.124874
H	 0.0418433936	-2.2389650613	-2.5133010583	 0.102279
83.0236	96.6383	155.0956	185.4476	237.3888	246.5329	306.1356	387.0613	450.7119	475.8862	604.775	716.9527	758.7044	776.6007	822.2639	835.2832	858.8047	923.0444	957.7811	974.7758	997.0278	1022.2278	1062.3808	1075.6541	1107.5873	1150.8415	1175.8708	1200.6157	1231.9595	1261.7294	1298.249	1312.9662	1338.2238	1362.7059	1364.3007	1410.8851	1419.3155	1433.6983	1485.4534	1501.9749	1509.2639	1520.6589	1862.8599	2968.349	3018.042	3031.51	3036.4119	3080.7791	3093.0115	3103.3959	3111.1994	3150.1293	3467.051	3517.2641
CCC1[NH2+]CC1C([O-])=O	CC[C@H]1NC[C@H]1C(=O)O	
InChI=1S/C6H11NO2/c1-2-5-4(3-7-5)6(8)9/h4-5,7H,2-3H2,1H3,(H,8,9)	InChI=1S/C6H11NO2/c1-2-5-4(3-7-5)6(8)9/h4-5,7H,2-3H2,1H3,(H,8,9)/t4-,5-/m1/s1
