14
gdb 129247	3.50255	1.11197	0.88982	3.2517	65.47	-0.2268	-0.0371	0.1897	1220.6982	0.100174	-470.010485	-470.002367	-470.001423	-470.044909	28.134	
N	-0.0322707379	 1.3293781822	 0.185844542	-0.605683
C	 0.0242838692	 0.0736841958	 0.0656630397	 0.472419
O	 1.1486749713	-0.7490993404	 0.0620432364	-0.20243
C	 0.676875529	-2.0177617139	-0.087441938	 0.087235
N	-0.5951562692	-2.1103125641	-0.1828178942	-0.218232
N	-1.0277533768	-0.8004164052	-0.0953166809	-0.073495
C	-2.4242595971	-0.4606357466	-0.1057133196	-0.244646
C	-3.083334292	-0.7069687974	-1.4602635264	 0.162348
O	-4.2649960119	-0.8660088529	-1.5954393932	-0.225022
H	 0.8868597042	 1.7450199287	 0.2974842625	 0.238265
H	 1.3887942372	-2.8257964696	-0.1144050928	 0.174655
H	-2.9747136612	-1.0046783342	 0.6677128038	 0.153854
H	-2.4802917682	 0.6116950408	 0.1157441543	 0.187445
H	-2.3764654166	-0.7089798232	-2.3197791234	 0.093288
38.5969	67.2396	93.4166	219.9549	260.7522	323.5631	423.5141	516.4432	624.1032	686.3831	700.1457	728.487	750.1464	816.5303	825.0219	943.6129	981.9934	1026.512	1038.4786	1095.4911	1151.6212	1224.6246	1298.1736	1313.1923	1348.5144	1408.5077	1426.5681	1438.1463	1647.7652	1796.6018	1847.5877	2891.7067	3051.8404	3106.6845	3295.8792	3563.4117
N=C1OC=NN1CC=O	[NH][C@@H]1OC=NN1CC=O	
InChI=1S/C4H5N3O2/c5-4-7(1-2-8)6-3-9-4/h2-3,5H,1H2	InChI=1S/C4H6N3O2/c5-4-7(1-2-8)6-3-9-4/h2-5H,1H2/t4-/m0/s1
