15
gdb 61385	3.17716	0.89786	0.78749	1.2754	64.08	-0.2723	-0.0965	0.1758	1415.6909	0.107851	-494.936108	-494.926386	-494.925442	-494.9724	32.12	
C	 0.1248082471	 1.4188392832	 0.1999729875	-0.408722
C	-0.0974437158	-0.06292705	-0.0619462213	 0.024767
O	 0.5136852063	-0.4816099891	-1.3049812464	-0.233389
C	-0.2375767207	-0.3930047964	-2.4047444854	 0.34714
O	-1.3752543272	-0.0003524887	-2.4655262389	-0.335632
C	 0.5092172802	-0.865005751	-3.659252531	 0.090992
O	 1.6386456645	-1.2629955122	-3.6660285401	-0.206181
C	 0.4978257203	-0.9657376615	 1.0112548935	 0.149847
O	 0.5476078524	-0.6645445712	 2.173095556	-0.235938
H	 1.1881348523	 1.6633441205	 0.1324738135	 0.140227
H	-0.4316248677	 2.0219100747	-0.5199686823	 0.141718
H	-0.2197506739	 1.6520007979	 1.2098451238	 0.154217
H	-1.1717517545	-0.2806983464	-0.1254798596	 0.144437
H	-0.130804004	-0.7904751881	-4.5604476031	 0.121917
H	 0.8651887105	-1.9422664918	 0.6292688737	 0.1046
42.0595	71.9452	77.7012	129.2238	148.3739	216.349	238.1858	270.4719	376.3476	429.5632	511.975	572.2845	607.1178	725.3519	848.92	878.4685	921.6583	983.2393	1029.2812	1091.8156	1130.2062	1155.9572	1289.4739	1328.1992	1354.2778	1378.0779	1394.1851	1413.0208	1485.8588	1497.2208	1808.2908	1842.3505	1844.6044	2912.673	2954.2943	3037.3617	3058.5234	3138.2693	3147.8676
CC(OC(=O)C=O)C=O	C[C@@H](OC(=O)C=O)C=O	
InChI=1S/C5H6O4/c1-4(2-6)9-5(8)3-7/h2-4H,1H3	InChI=1S/C5H6O4/c1-4(2-6)9-5(8)3-7/h2-4H,1H3/t4-/m1/s1
