20
gdb 59149	3.2106	1.27099	1.11315	2.0167	78.31	-0.2223	0.06	0.2823	1167.8768	0.170413	-403.043988	-403.035401	-403.034457	-403.077054	33.481	
C	 0.1511618105	 1.0212712572	-1.363614806	-0.403477
C	 0.1175584923	 0.139840668	-0.1126135802	 0.088045
O	 0.4962555082	 0.9009601605	 1.0374579123	-0.423245
C	-1.252053936	-0.5277260923	 0.0327005725	-0.043418
C	-1.5987591758	-1.9880693842	 0.0642036187	-0.114229
C	-0.8197866814	-2.8093236665	 1.1122276314	-0.044722
C	 0.0861612956	-2.067294733	 2.0236961244	-0.264918
N	-1.3685608734	-1.997144806	 2.2545397703	-0.140129
C	-2.0227478559	-1.1071658784	 1.2203306669	-0.05805
H	 1.133109143	 1.4899763056	-1.4656633059	 0.124181
H	-0.0514300173	 0.4313302492	-2.2640061408	 0.115757
H	-0.6019648446	 1.8153046497	-1.298338617	 0.110254
H	 0.8898405765	-0.6295943873	-0.2133254167	 0.096746
H	-0.3062140736	 1.273838883	 1.4171507431	 0.284381
H	-1.9980949429	-0.008238175	-0.5721828725	 0.095087
H	-2.2099788975	-2.4673238113	-0.6898865896	 0.094517
H	-0.8894678427	-3.8922248406	 1.1374095971	 0.0998
H	 0.573914854	-2.6773559431	 2.7807352746	 0.117034
H	 0.6250582676	-1.1690646378	 1.7601721877	 0.164583
H	-3.0004136268	-0.7201370278	 1.4806134298	 0.101802
84.2125	126.0855	188.7847	212.4853	260.0555	308.1145	350.4261	394.7659	466.5857	565.8928	652.3263	686.2514	723.2859	740.4809	764.6093	873.9513	886.6574	898.1944	936.563	950.1642	1003.8488	1018.3549	1044.8626	1057.676	1072.8842	1097.5841	1108.6011	1112.3862	1132.446	1152.7165	1214.7827	1246.5844	1265.3	1279.4727	1333.6004	1344.9964	1368.5918	1400.6208	1424.7506	1444.5391	1488.7189	1494.0387	1517.2996	3028.3239	3050.1799	3086.6611	3098.5632	3121.9954	3124.6744	3157.6396	3179.1699	3192.8675	3253.0897	3814.8303
CC(O)C1C2C3CN3C12	C[C@@H](O)[C@H]1[C@H]2[C@H]3CN3[C@@H]12	
InChI=1S/C7H11NO/c1-3(9)5-6-4-2-8(4)7(5)6/h3-7,9H,2H2,1H3	InChI=1S/C7H11NO/c1-3(9)5-6-4-2-8(4)7(5)6/h3-7,9H,2H2,1H3/t3-,4-,5+,6-,7+,8?/m1/s1
