17
gdb 5829	2.89771	1.68386	1.39455	3.7095	69.13	-0.2889	-0.083	0.2059	964.4658	0.138991	-363.896239	-363.886898	-363.885954	-363.930036	33.21	
C	-0.0273477547	 1.5559972417	 0.0320959522	-0.410304
C	 0.0019413465	 0.0227348224	 0.0029451564	 0.125567
C	 0.7679498304	-0.5346580169	 1.2245125816	-0.42699
C	-1.4326833638	-0.5529224572	-0.0196883203	-0.426921
C	 0.7206897992	-0.4350226364	-1.2625874998	 0.309012
O	 1.1896972571	 0.2860040613	-2.1056651205	-0.282043
C	 0.8329756511	-1.9078245272	-1.4368319216	 0.24182
N	 0.9259759183	-3.0513590508	-1.5824668366	-0.31667
H	 0.983414545	 1.9717293149	 0.0309419874	 0.130552
H	-0.5514711736	 1.958904617	-0.838184388	 0.130627
H	-0.5414852178	 1.8978743211	 0.9351317458	 0.115697
H	 0.2486746559	-0.2401033749	 2.141443671	 0.130101
H	 0.8238179674	-1.6268820101	 1.2057317249	 0.143595
H	 1.7869091182	-0.138105642	 1.2698228914	 0.131119
H	-2.0018614882	-0.168964398	-0.8718479903	 0.131148
H	-1.4316080909	-1.6455752913	-0.0701747522	 0.143577
H	-1.9541119602	-0.2590023937	 0.8962244184	 0.130113
47.6804	144.4053	178.8012	195.1632	252.5488	254.7096	283.3478	312.4172	345.1552	367.9352	377.8538	485.502	590.2226	676.4022	765.5488	824.6562	940.4643	950.8365	970.1115	1014.9124	1039.592	1079.1088	1218.6179	1240.8687	1288.4527	1399.9965	1404.8753	1434.4958	1476.2611	1481.9665	1485.5631	1498.3395	1503.503	1519.2166	1792.2439	2333.5555	3037.8323	3039.7943	3048.808	3111.5441	3112.7437	3116.1068	3119.3524	3121.8841	3126.7144
CC(C)(C)C(=O)C#N	CC(C)(C)C(=O)C#N	
InChI=1S/C6H9NO/c1-6(2,3)5(8)4-7/h1-3H3	InChI=1S/C6H9NO/c1-6(2,3)5(8)4-7/h1-3H3
