21
gdb 84423	2.29561	1.378	1.1006	2.9553	84.12	-0.2375	-0.028	0.2095	1207.4891	0.181776	-387.115404	-387.106087	-387.105143	-387.149693	34.916	
C	 0.8815743337	 1.5134116345	-0.1893872059	-0.398006
C	 0.1429976797	 0.1743238823	-0.0118330724	-0.039875
C	 0.4178868191	-0.7736643951	-1.1571393073	-0.05864
C	 1.1607379993	-1.8199158547	-0.7981905214	-0.104492
C	 1.5365998489	-1.7793657072	 0.6682827533	-0.130151
C	 3.0093811056	-1.4304476035	 0.8306822925	 0.157335
O	 3.8021888846	-2.0849762451	 1.4572554393	-0.252431
C	 0.5581765979	-0.687294893	 1.2258425134	-0.006386
C	 1.0416129338	 0.0685776958	 2.4644622858	-0.421681
H	 1.9659201283	 1.3736741935	-0.2478802897	 0.120319
H	 0.5645203368	 2.0013621063	-1.1170038883	 0.115477
H	 0.669444152	 2.2002237949	 0.6357277567	 0.118432
H	-0.9285449937	 0.4054924851	 0.0525914316	 0.077225
H	 0.0647788937	-0.5798192182	-2.1650806316	 0.097248
H	 1.5079653414	-2.6048911327	-1.4607548589	 0.104671
H	 1.3949475765	-2.7369465638	 1.1799805189	 0.08952
H	 3.3256541171	-0.5026674337	 0.2995762934	 0.074018
H	-0.3386984922	-1.2485514905	 1.5116793498	 0.091429
H	 1.9370775476	 0.6664261874	 2.2704244177	 0.123722
H	 0.2653716969	 0.7475618315	 2.8325056748	 0.115787
H	 1.2818332929	-0.6291739936	 3.273041638	 0.126478
54.2467	85.4844	181.1841	233.5148	242.6341	248.4242	269.8512	341.6725	374.0656	434.665	506.4177	539.2272	668.02	736.7161	773.3948	782.8116	868.0206	933.7395	958.4264	972.7467	983.1101	1011.3916	1040.0771	1060.679	1087.3839	1105.1177	1138.4984	1155.8655	1177.3702	1251.6483	1271.4584	1307.356	1332.3357	1358.8181	1361.2502	1367.3237	1406.5372	1417.0445	1422.5915	1490.6481	1495.2644	1504.5699	1506.9642	1677.8745	1824.7678	2860.8989	3007.8516	3031.7547	3033.8063	3037.0705	3060.3672	3099.5018	3100.7324	3107.5141	3108.9544	3176.7332	3204.2027
CC1C=CC(C=O)C1C	C[C@H]1C=C[C@@H](C=O)[C@H]1C	
InChI=1S/C8H12O/c1-6-3-4-8(5-9)7(6)2/h3-8H,1-2H3	InChI=1S/C8H12O/c1-6-3-4-8(5-9)7(6)2/h3-8H,1-2H3/t6-,7-,8-/m0/s1
