21
gdb 82497	2.6485	1.68571	1.39305	1.438	81.47	-0.2449	0.0682	0.3131	1032.1775	0.184049	-387.061879	-387.054152	-387.053208	-387.093481	32.234	
C	-0.264823167	 1.6134090521	-0.06953225	-0.432051
C	 0.0157506222	 0.1165635041	-0.0179351378	 0.044613
C	 1.1130311431	-0.5756571013	-0.8903019754	-0.062458
C	 2.4027673479	 0.1658104294	-0.4944076799	-0.283207
C	 2.3608990493	-0.2864256654	 0.9835436002	 0.413227
O	 3.1291366295	 0.3787294616	 1.934096094	-0.490601
C	 2.552006928	-1.80900281	 0.8362175901	-0.276947
C	 1.1539689462	-1.7384979017	 0.2019235882	-0.03154
C	 0.7806493242	-0.5490862172	 1.1371834304	-0.116582
H	 0.617006791	 2.2222871648	 0.1495630078	 0.104057
H	-0.637775273	 1.9132239948	-1.0557027511	 0.115469
H	-1.0312625108	 1.8809360847	 0.6663869442	 0.116161
H	-0.9281038738	-0.4258862351	-0.15776334	 0.068182
H	 0.9454724015	-0.7837143811	-1.9474904327	 0.05713
H	 3.2995921385	-0.1958061863	-1.0054118314	 0.095892
H	 2.3428290123	 1.248831677	-0.6360986074	 0.083733
H	 2.9879390458	 1.3258636279	 1.8329539788	 0.275927
H	 3.4112833964	-2.1639266589	 0.2583444877	 0.088221
H	 2.5105056062	-2.3204697785	 1.8021899581	 0.101451
H	 0.5088753003	-2.6019612154	 0.052917152	 0.067238
H	 0.4030287921	-0.6765253356	 2.1520249744	 0.062086
153.7586	179.6259	240.8687	282.0237	345.729	366.4755	449.8885	494.8566	525.0686	603.9183	661.5032	687.2286	755.3803	813.9885	849.1354	870.8438	882.459	939.6876	947.1525	964.165	994.3574	1009.922	1026.366	1048.9222	1066.384	1104.41	1116.2849	1128.4478	1140.5096	1162.7998	1195.5713	1212.7819	1233.8575	1250.9731	1263.9124	1280.8037	1297.1149	1344.0544	1384.5349	1396.3174	1409.6659	1484.5603	1494.1831	1500.5574	1521.4982	3021.0506	3029.8729	3043.0212	3054.0815	3088.9436	3092.9308	3103.9603	3104.9462	3107.7835	3113.2845	3136.5564	3809.1378
CC1C2CC3(O)CC2C13	C[C@H]1[C@H]2C[C@]3(O)C[C@H]2[C@H]13	
InChI=1S/C8H12O/c1-4-5-2-8(9)3-6(5)7(4)8/h4-7,9H,2-3H2,1H3	InChI=1S/C8H12O/c1-4-5-2-8(9)3-6(5)7(4)8/h4-7,9H,2-3H2,1H3/t4-,5+,6+,7-,8-/m0/s1
