15
gdb 54499	2.60064	1.57827	1.16047	4.7401	67.06	-0.2509	-0.0319	0.219	1041.768	0.1123	-453.945248	-453.937177	-453.936233	-453.97826	29.982	
N	-0.0923666952	 1.2368341512	 0.4249150802	-0.534816
C	 0.0890076635	-0.0246004076	-0.0611797424	 0.28214
O	 1.1371266299	-0.4665613471	-0.4807392641	-0.34325
C	-1.1699834626	-0.8424179221	-0.064030094	 0.115862
C	-2.3633244489	-0.4967201656	-0.9056616269	-0.250742
N	-2.5059026689	-0.3854943475	 0.5370183131	-0.168859
C	-2.7681628612	-1.7900351863	 1.0170109219	-0.289281
C	-1.3817638232	-2.2316129817	 0.4922574697	 0.355288
O	-0.6953790614	-3.1931862297	 0.6476318963	-0.27873
H	 0.7228408327	 1.8168242408	 0.5430544558	 0.266191
H	-0.9332294714	 1.4550592056	 0.9358576317	 0.27474
H	-2.3137572197	 0.4547356286	-1.4260687071	 0.148655
H	-2.890340463	-1.2868128482	-1.4366527607	 0.134969
H	-2.8093757944	-1.8305439602	 2.1083758014	 0.150455
H	-3.6650080863	-2.2503114502	 0.5938810053	 0.137378
61.3427	128.6316	166.0956	207.9059	348.0542	381.1729	413.3993	477.1344	515.81	550.9348	600.9009	670.2597	705.2047	752.6918	805.1073	854.0205	877.3736	987.475	1007.7614	1029.5253	1091.3188	1106.3531	1129.9164	1196.1113	1230.8887	1237.8695	1275.6562	1397.8075	1460.8652	1504.2654	1603.7432	1802.9719	1912.5298	3065.1637	3106.4761	3127.375	3204.9999	3581.1133	3717.9128
NC(=O)C12CN1CC2=O	NC(=O)[C@]12CN1CC2=O	
InChI=1S/C5H6N2O2/c6-4(9)5-2-7(5)1-3(5)8/h1-2H2,(H2,6,9)	InChI=1S/C5H6N2O2/c6-4(9)5-2-7(5)1-3(5)8/h1-2H2,(H2,6,9)/t5-,7?/m1/s1
