16
gdb 79104	2.56182	2.14944	1.59482	4.7304	66.53	-0.2555	0.0064	0.2619	870.6872	0.125527	-437.870117	-437.863301	-437.862357	-437.901182	27.089	
C	 0.0866168013	 1.583359952	-0.0109871672	-0.422399
C	 0.0795598925	 0.0664151128	-0.0576264908	 0.031698
C	 0.6830235673	-0.6983901483	-1.2285964666	-0.140513
C	 2.1917559883	-0.8356031808	-1.0352280909	 0.07888
O	 2.8810705838	 0.0717887232	-0.1952553356	-0.227775
C	 2.2105980744	 0.0858936258	 1.0085552327	 0.452486
O	 2.5554787896	 0.7448861784	 1.9364152345	-0.340438
N	 1.0150571967	-0.7238764569	 0.9037171127	-0.239554
C	 1.2867028074	-1.670953561	-0.2229848736	-0.067937
H	 1.0540910551	 2.0066542822	-0.2899631486	 0.148341
H	-0.6636561131	 1.9618902671	-0.7130612243	 0.121914
H	-0.1749179684	 1.9388339184	 0.9901198608	 0.147736
H	-0.9228719545	-0.3098752213	 0.1609869924	 0.10896
H	 0.2207242868	-0.898869331	-2.1879265693	 0.103456
H	 2.8011653687	-1.2207680617	-1.8406886372	 0.130129
H	 1.2515228641	-2.7440557589	-0.0926908691	 0.115017
140.8314	182.6375	232.6104	295.5517	444.9659	479.3046	567.8566	635.5302	716.7215	745.657	772.8554	793.9414	819.1611	843.8745	900.399	922.2632	981.9601	1005.5053	1014.3019	1043.4889	1057.0242	1067.8129	1094.6153	1117.7913	1146.0639	1162.5141	1229.2528	1285.8153	1315.8498	1384.5438	1407.8219	1412.8247	1485.6971	1500.0709	1910.0695	3043.7867	3073.8647	3111.7563	3134.7866	3185.1836	3205.9322	3227.3822
CC1C2C3OC(=O)N1C23	C[C@H]1[C@H]2[C@H]3OC(=O)N1[C@@H]23	
InChI=1S/C6H7NO2/c1-2-3-4-5(3)9-6(8)7(2)4/h2-5H,1H3	InChI=1S/C6H7NO2/c1-2-3-4-5(3)9-6(8)7(2)4/h2-5H,1H3/t2-,3+,4-,5+/m0/s1
