18
gdb 96296	2.2478	1.70492	1.02734	4.1238	69.2	-0.252	0.0348	0.2868	1145.1731	0.148898	-476.270155	-476.261847	-476.260903	-476.303204	31.277	
C	-0.0941893566	 1.4700756225	 0.0041541391	-0.401278
C	 0.0459612859	-0.037266201	-0.0351758883	 0.211796
O	 0.829413129	-0.370836752	-1.1411860969	-0.231447
C	 0.7937033735	-1.740792142	-1.4956038119	-0.068779
C	 1.3817957579	-2.6431992278	-0.4164095818	-0.173184
N	 0.5579415585	-2.6967778546	 0.7901145957	-0.349376
C	 0.474758291	-1.6766753008	 1.7136125242	 0.414751
O	 0.26820188	-1.8537195189	 2.8864745675	-0.368071
O	 0.6533389983	-0.4205711884	 1.210382867	-0.244585
H	 0.8966614912	 1.9242400616	 0.0811312433	 0.141943
H	-0.5760224748	 1.8208564287	-0.9111451993	 0.126619
H	-0.6901877495	 1.7686378961	 0.8683405177	 0.13656
H	-0.9303839341	-0.5415033612	-0.1007149876	 0.082867
H	-0.2390826917	-2.0542693107	-1.7126888014	 0.1017
H	 1.3856884711	-1.8291162524	-2.4110932127	 0.116147
H	 1.4405936956	-3.6619647217	-0.8105078518	 0.117718
H	 2.4034768282	-2.310546074	-0.1902350777	 0.129302
H	 0.4965732665	-3.5955988134	 1.2445332048	 0.257319
78.1495	141.092	195.8358	215.0645	280.5773	339.8557	361.5739	390.0265	469.1439	562.8741	583.57	622.6644	704.8149	766.1663	821.7673	861.7376	899.9821	979.8553	987.7326	1063.1212	1096.3721	1100.6233	1148.7907	1156.668	1174.9004	1277.6201	1287.36	1341.3524	1380.1096	1394.3668	1410.7267	1416.3937	1425.3466	1463.6535	1481.7987	1485.4573	1487.2513	1494.4336	1842.9889	2989.5182	2995.3941	3022.7586	3060.8658	3092.7634	3094.9027	3141.1997	3148.8171	3620.5908
CC1OCCNC(=O)O1	C[C@H]1OCCNC(=O)O1	
InChI=1S/C5H9NO3/c1-4-8-3-2-6-5(7)9-4/h4H,2-3H2,1H3,(H,6,7)	InChI=1S/C5H9NO3/c1-4-8-3-2-6-5(7)9-4/h4H,2-3H2,1H3,(H,6,7)/t4-/m0/s1
