17
gdb 35089	3.08561	1.47519	1.16164	1.6661	78.01	-0.2446	0.0015	0.2461	1059.2813	0.13659	-384.640587	-384.633007	-384.632062	-384.672805	29.458	
C	-0.4441353734	-1.2070901351	-0.6106026478	-0.472018
C	-0.2632723616	-0.0558864184	-0.3145126035	 0.328453
C	-0.048608503	 1.342389732	 0.0484802162	-0.226113
C	-0.4758676778	 1.6801505616	 1.4743555005	-0.067051
C	 0.4429198904	 2.3721043746	 2.1446283888	-0.09424
C	 1.6865316512	 2.5996634095	 1.3281953563	 0.086416
O	 2.7903850829	 1.7362294018	 1.7007996442	-0.295598
C	 2.51200869	 0.8518733748	 0.5893896512	-0.084621
C	 1.4346463201	 1.8031590418	 0.0242286462	-0.096584
H	-0.6056304611	-2.2228429959	-0.8749565048	 0.198517
H	-0.6276183101	 1.9574729135	-0.6561614116	 0.114669
H	-1.4433879393	 1.3716642271	 1.853867009	 0.112526
H	 0.3429543503	 2.7216645719	 3.1658794495	 0.107225
H	 2.0079562414	 3.6459183942	 1.2775714681	 0.080449
H	 3.3981028337	 0.7063764472	-0.037679797	 0.104952
H	 2.1363468458	-0.1247229716	 0.9153498098	 0.115194
H	 1.7096556904	 2.2855554809	-0.9126489552	 0.087825
83.7566	136.3907	178.897	274.1043	340.7736	447.8017	498.0328	547.011	623.8378	639.6337	670.6059	728.7313	773.2557	816.7352	866.0287	899.2783	930.2926	971.8914	985.5749	1007.1441	1015.1119	1037.4093	1067.2554	1095.0378	1141.6728	1162.2469	1213.697	1250.0158	1271.8153	1301.6464	1319.1569	1329.9838	1356.0253	1375.0884	1519.8684	1677.8548	2233.2809	2990.3658	3029.738	3045.2765	3075.9199	3120.4666	3190.0875	3214.4532	3502.9998
C#CC1C=CC2OCC12	C#C[C@H]1C=C[C@H]2OC[C@@H]12	
InChI=1S/C8H8O/c1-2-6-3-4-8-7(6)5-9-8/h1,3-4,6-8H,5H2	InChI=1S/C8H8O/c1-2-6-3-4-8-7(6)5-9-8/h1,3-4,6-8H,5H2/t6-,7-,8+/m0/s1
