16
gdb 53216	3.11637	0.95652	0.86676	3.4754	76.19	-0.264	0.0078	0.2718	1389.6913	0.122302	-437.85074	-437.841288	-437.840344	-437.886608	32.734	
C	 0.0313204546	 1.5013827364	-0.1783607698	-0.500558
C	 0.0205844507	 0.0512698478	-0.0621598046	 0.080386
C	 0.0392503471	-1.1497849682	 0.0353772276	 0.104808
C	 0.0023564868	-2.5906349199	 0.1411359154	-0.14736
O	 0.0510113177	-3.0663167933	 1.5352082941	-0.249262
C	-1.2620445123	-3.4983183435	 1.4999489616	 0.375995
N	-2.0065265994	-3.9265074604	 2.4102934035	-0.535658
C	-1.4289018162	-3.2342928054	 0.0052244331	 0.027135
O	-2.4897183428	-2.4816771486	-0.469634918	-0.406026
H	 1.0374039981	 1.8722414197	-0.4006794264	 0.159292
H	-0.6350131504	 1.8376308142	-0.9798658956	 0.158853
H	-0.3015819832	 1.9722884731	 0.7526634288	 0.159598
H	 0.7934870633	-3.0708285022	-0.4401959838	 0.117871
H	-1.5280626079	-3.9396427626	 3.3131273519	 0.231734
H	-1.4033522756	-4.1581449312	-0.5776264663	 0.131985
H	-2.4934017904	-1.6355803257	-0.0050932515	 0.291207
32.8177	58.7436	84.5098	153.0912	202.916	254.7477	329.3931	341.6021	380.5771	444.7816	480.322	604.4828	653.2431	733.2737	802.1131	873.0558	900.158	919.5651	936.4688	1013.061	1051.6813	1051.9987	1169.4425	1183.1944	1186.2062	1217.4209	1294.7415	1306.5941	1363.5932	1413.015	1445.0814	1474.0086	1476.118	1827.9624	2364.2088	3032.993	3079.0156	3096.7527	3097.1424	3097.97	3471.8014	3784.66
CC#CC1OC(=N)C1O	CC#C[C@H]1O[C]([NH])[C@H]1O	
InChI=1S/C6H7NO2/c1-2-3-4-5(8)6(7)9-4/h4-5,7-8H,1H3	InChI=1S/C6H7NO2/c1-2-3-4-5(8)6(7)9-4/h4-5,7-8H,1H3/t4-,5+/m1/s1
