15
gdb 92777	3.36908	1.18174	0.89898	2.3642	69.9	-0.2515	-0.0903	0.1611	1212.5438	0.111562	-457.802524	-457.794259	-457.793315	-457.835891	29.679	
O	-0.1525224432	 1.4225388725	 0.3558004643	-0.434831
C	-0.0009643471	 0.0646521021	 0.0377484125	 0.05614
C	-1.3304487992	-0.7047865798	-0.0691253627	-0.299472
C	-1.1407670692	-1.5764031982	-1.280176251	-0.121457
C	-0.0372808798	-1.271953368	-1.9926350234	 0.105336
C	 0.3914229686	-1.9022968415	-3.2596238005	 0.078397
O	-0.1720211715	-2.8468127852	-3.7632690362	-0.260795
C	 0.6491219689	-0.1322956402	-1.3423179576	 0.274115
O	 1.5196559925	 0.5834466857	-1.7848209216	-0.339971
H	 0.5838971772	 1.8798745014	-0.0749213349	 0.295982
H	 0.6494182065	-0.4473327017	 0.769555093	 0.1027
H	-1.5838256929	-1.285512692	 0.8231964339	 0.133443
H	-2.1529699947	 0.0035896879	-0.231258195	 0.155419
H	-1.8381120211	-2.3577638093	-1.5639635483	 0.150449
H	 1.285875085	-1.4406861937	-3.7229841626	 0.104544
64.5964	131.1649	162.4872	223.943	241.3343	319.1856	369.7999	386.6114	448.4448	540.3328	634.4113	677.6827	803.7697	824.1336	862.1642	945.2916	948.4917	1025.3021	1034.3715	1052.9553	1134.0489	1180.8432	1218.8823	1245.5127	1303.3133	1316.1364	1364.4464	1411.7025	1432.3614	1459.3447	1645.6247	1794.7669	1812.9813	2942.4869	2944.3123	3039.4093	3084.7249	3202.6164	3740.0132
OC1CC=C(C=O)C1=O	O[C@H]1CC=C(C=O)C1=O	
InChI=1S/C6H6O3/c7-3-4-1-2-5(8)6(4)9/h1,3,5,8H,2H2	InChI=1S/C6H6O3/c7-3-4-1-2-5(8)6(4)9/h1,3,5,8H,2H2/t5-/m0/s1
