21
gdb 98834	3.00173	1.06889	0.92234	3.2318	78.98	-0.2462	-0.0226	0.2235	1370.3609	0.181585	-424.242423	-424.232866	-424.231922	-424.277446	35.355	
C	 0.0463141249	 1.5319397514	 0.1494823688	-0.379541
C	-0.0606009269	 0.0131948034	 0.0434391511	-0.28096
C	-1.475293851	-0.4941438389	-0.1816443599	 0.402314
O	-2.3994164253	 0.274144165	-0.3876068207	-0.343277
C	-1.6772364591	-1.9901860286	-0.1111167203	-0.17371
C	-2.2318490787	-2.4201435476	 1.2966604744	-0.231225
C	-3.6640985214	-2.4436223874	 0.7058677239	-0.252063
C	-3.0380241118	-2.4899280798	-0.7156862058	 0.164865
O	-3.6262030506	-1.7909422336	-1.7669965593	-0.435819
H	 1.0880886984	 1.8374660127	 0.2794070557	 0.112382
H	-0.3481869531	 2.0124854673	-0.7488686887	 0.136271
H	-0.5313084526	 1.9072599384	 0.9985383465	 0.128799
H	 0.5482043192	-0.3693912613	-0.7888266012	 0.130553
H	 0.3415631986	-0.4860752854	 0.9355941975	 0.123946
H	-0.768989054	-2.5063409565	-0.4341447067	 0.0777
H	-1.865419571	-3.4121100869	 1.5701120336	 0.111462
H	-2.0454646078	-1.7388481304	 2.1299366918	 0.108185
H	-4.326146657	-3.261495366	 0.9982858522	 0.099345
H	-4.1767344326	-1.4918583938	 0.8649050474	 0.118039
H	-2.9218322746	-3.525342246	-1.0516823947	 0.088537
H	-3.6129095233	-0.8585192061	-1.5044620458	 0.294197
48.4928	76.3622	135.4082	175.6608	191.3416	237.0461	268.4181	337.2214	418.1859	479.7698	552.4271	605.3874	631.6316	690.9262	756.7728	796.8104	804.3783	877.4519	916.1284	957.7274	967.0563	1006.121	1039.0389	1048.5271	1080.4084	1112.5957	1143.6811	1159.0817	1186.9855	1229.7041	1243.3886	1258.996	1271.1832	1278.7861	1338.8643	1353.344	1391.5971	1413.9807	1447.6778	1462.5215	1480.9453	1493.0952	1496.5464	1498.3062	1764.0805	3014.2319	3042.5123	3052.1312	3055.851	3063.3583	3068.5786	3074.945	3112.4201	3121.6699	3130.1552	3130.7473	3716.0682
CCC(=O)C1CCC1O	CCC(=O)[C@H]1CC[C@H]1O	
InChI=1S/C7H12O2/c1-2-6(8)5-3-4-7(5)9/h5,7,9H,2-4H2,1H3	InChI=1S/C7H12O2/c1-2-6(8)5-3-4-7(5)9/h5,7,9H,2-4H2,1H3/t5-,7-/m1/s1
