15
gdb 54288	2.20232	1.44116	1.13537	4.9175	65.24	-0.2651	-0.0028	0.2623	1104.6759	0.111657	-453.970583	-453.961761	-453.960817	-454.004812	31.669	
N	 0.4244389721	 0.6944820753	 1.0460990539	-0.530671
C	 0.1552761706	 0.0103482769	-0.0933599568	 0.350434
O	 0.9178231794	-0.1280066074	-1.0297833423	-0.363979
C	-1.2168641029	-0.6486913749	-0.1088786657	 0.307962
C	-1.8522031916	-0.7373162323	-1.487775508	-0.41921
C	-2.2759978551	 0.5725665205	-1.9837967468	 0.277548
N	-2.615109948	 1.6080629391	-2.366468879	-0.302619
C	-1.5244225314	-1.6590962844	 0.919202815	-0.213515
O	-2.0832177425	-0.343571004	 0.9841570462	-0.269409
H	 1.2798839196	 1.22371215	 1.0920098621	 0.271638
H	-0.3299348771	 0.908955008	 1.6782666062	 0.280095
H	-1.1110026357	-1.1535194768	-2.1765227707	 0.18601
H	-2.719242617	-1.4032837031	-1.4604922874	 0.153823
H	-2.2320200101	-2.4536965002	 0.6895975264	 0.133145
H	-0.7814453603	-1.8898255967	 1.6793271167	 0.138747
52.7145	72.0882	126.9971	240.1516	283.227	317.1906	359.7507	379.1881	408.6719	472.3164	515.3326	562.9379	629.7211	721.065	772.7023	826.5283	908.846	944.5427	960.606	988.08	1099.8329	1131.8577	1162.5121	1186.6935	1259.3933	1316.0092	1373.1982	1415.4958	1440.5759	1521.6462	1601.8184	1804.3775	2368.958	3066.0785	3095.8042	3116.6079	3190.7018	3591.0956	3726.2808
NC(=O)C1(CC#N)CO1	NC(=O)[C@@]1(CC#N)CO1	
InChI=1S/C5H6N2O2/c6-2-1-5(3-9-5)4(7)8/h1,3H2,(H2,7,8)	InChI=1S/C5H6N2O2/c6-2-1-5(3-9-5)4(7)8/h1,3H2,(H2,7,8)/t5-/m1/s1
