20
gdb 55354	3.08412	1.20223	1.13751	3.1331	78.99	-0.2289	-0.0039	0.225	1176.7696	0.172098	-403.159327	-403.150868	-403.149924	-403.192752	32.363	
C	 0.7503431639	 0.3617381366	 0.6618504651	-0.489021
C	-0.4821625264	 0.1317257506	-0.1931553439	 0.369489
O	-1.5348913606	 0.6809111546	 0.0464532699	-0.314739
C	-0.3740658575	-0.8538444985	-1.3567099298	-0.058206
C	 0.890256054	-0.751258607	-2.2519096599	-0.258794
C	 1.0887944645	-2.1647433907	-2.8522744145	-0.211443
C	 0.5091797713	-3.0958372691	-1.8043048064	-0.030938
N	 0.9620155586	-2.7814259447	-0.4311107426	-0.332696
C	-0.3634088207	-2.3129970594	-0.8957975857	-0.05795
H	 1.3017269281	-0.5703621332	 0.8143462641	 0.159985
H	 1.4258181365	 1.057359873	 0.1491708535	 0.139761
H	 0.4529655038	 0.8091552844	 1.6114880511	 0.132317
H	-1.2813504031	-0.7091987415	-1.9532124594	 0.091492
H	 0.7837832891	 0.0197443271	-3.0187171934	 0.104644
H	 1.7584744362	-0.4937911317	-1.6436236348	 0.124846
H	 0.5200917944	-2.2820325706	-3.78229345	 0.103579
H	 2.1391957267	-2.3730902278	-3.077646921	 0.106757
H	 0.2856794949	-4.1281366156	-2.0540069946	 0.088998
H	 0.8354070214	-3.5983375285	 0.1606124372	 0.23439
H	-1.2575172552	-2.730142998	-0.4446211749	 0.09753
55.0844	121.9492	176.2514	189.4402	263.4124	325.9273	379.3026	424.284	532.2132	586.8205	636.8272	661.1835	789.2488	809.2463	837.5588	861.9702	909.6383	931.4419	942.5191	966.7755	989.6974	1012.5212	1061.5164	1073.4149	1082.7396	1126.6808	1168.8852	1196.8042	1229.9392	1240.3051	1254.4405	1295.5375	1310.235	1331.1741	1346.0788	1375.671	1382.8858	1421.6216	1471.0489	1473.2886	1483.3681	1496.613	1799.5648	3035.8479	3039.7828	3054.5246	3077.614	3085.568	3102.9986	3128.6041	3151.3032	3160.1898	3173.0161	3507.7878
CC(=O)C1CCC2NC12	CC(=O)[C@H]1CC[C@H]2N[C@@H]12	
InChI=1S/C7H11NO/c1-4(9)5-2-3-6-7(5)8-6/h5-8H,2-3H2,1H3	InChI=1S/C7H11NO/c1-4(9)5-2-3-6-7(5)8-6/h5-8H,2-3H2,1H3/t5-,6-,7+/m1/s1
