18
gdb 87532	2.64978	1.51436	1.17301	4.2196	77.03	-0.2402	-0.0095	0.2307	1097.8228	0.147225	-401.918193	-401.909977	-401.909033	-401.950972	31.183	
C	-0.050395248	 1.56922588	 0.009677327	-0.407001
C	-0.0136118316	 0.0582309954	 0.0464002749	-0.058018
C	 1.2620012293	-0.6891724258	-0.2160541615	-0.356247
C	 0.6856800853	-0.6572889405	 1.178921921	 0.220502
C	 1.3043511629	-0.1537768191	 2.4657692508	-0.12945
C	 0.2987069003	-0.1106790621	 3.5383277623	-0.247761
N	 0.8958947417	-1.4390970161	 3.1987409337	-0.184741
C	 0.2412542519	-1.8646801476	 1.9576645313	 0.350009
O	-0.3420088951	-2.8771698633	 1.7222106765	-0.316876
H	 0.8843861868	 1.9984408783	 0.3847865491	 0.118537
H	-0.195194006	 1.9303343283	-1.0138842189	 0.128272
H	-0.8674546834	 1.9633622466	 0.6229053543	 0.124877
H	-0.9210383488	-0.4369219414	-0.2906593551	 0.108652
H	 1.2213591425	-1.6365190203	-0.7426582037	 0.138847
H	 2.1647051259	-0.1097391028	-0.3849102612	 0.123176
H	 2.3146389344	 0.2203013889	 2.5776987961	 0.116894
H	 0.5977703429	 0.2310240088	 4.5242512236	 0.138182
H	-0.744562031	 0.0679926428	 3.2899404799	 0.132147
108.0646	127.4512	171.0445	202.7405	249.1631	291.1516	390.8278	443.6701	555.5447	603.9367	679.3987	725.0921	784.7048	815.8582	819.9713	902.0879	914.1321	927.0193	977.6497	1016.4397	1041.3569	1047.6023	1072.6833	1099.811	1118.1719	1128.5312	1144.6787	1187.4912	1220.532	1230.4429	1286.8761	1365.231	1415.2009	1432.2784	1483.7603	1490.6414	1501.5449	1506.3264	1911.2723	3032.8901	3098.4782	3100.5536	3113.804	3127.0375	3143.9048	3191.947	3207.6966	3217.6969
CC1CC11C2CN2C1=O	C[C@H]1C[C@]21[C@H]1CN1C2=O	
InChI=1S/C7H9NO/c1-4-2-7(4)5-3-8(5)6(7)9/h4-5H,2-3H2,1H3	InChI=1S/C7H9NO/c1-4-2-7(4)5-3-8(5)6(7)9/h4-5H,2-3H2,1H3/t4-,5+,7-,8?/m0/s1
