22
gdb 76805	2.63802	1.59956	1.31991	1.2574	87.93	-0.2021	0.0793	0.2813	1092.7153	0.193866	-367.080711	-367.072312	-367.071368	-367.113021	34.098	
C	-0.2577882027	 1.6440194033	-0.0703421901	-0.416578
C	-0.0557319823	 0.1302487588	-0.0016891876	 0.022231
C	 0.9265338448	-0.5986604174	-1.034207031	-0.107499
C	 1.4530607416	 0.1302206796	-2.2581152528	-0.41363
C	 1.8398593223	-0.7713854862	 0.1965621289	 0.292048
C	 2.5166590631	-1.6214064208	 1.3136048772	-0.2808
C	 1.9341339803	-0.2845527611	 1.9454751889	-0.024939
C	 2.584778301	 0.4839472495	 0.7879568536	-0.254078
N	 0.6781003072	-0.6058930633	 1.1267156024	-0.167968
H	 0.6407861654	 2.22065536	-0.2935229945	 0.121992
H	-0.9934896756	 1.8754982097	-0.8494659746	 0.115589
H	-0.6649836748	 2.006173241	 0.8796591437	 0.125489
H	-1.0550181872	-0.3147173157	-0.0192660315	 0.086445
H	 0.4766299551	-1.5535306637	-1.3216493294	 0.088822
H	 1.9497176669	 1.0682821319	-1.9920479735	 0.118122
H	 2.1805543945	-0.4890374438	-2.7940596845	 0.119444
H	 0.6427211335	 0.366016811	-2.9564316183	 0.116193
H	 1.9839538664	-2.5325243196	 1.5847803103	 0.107927
H	 3.604263945	-1.7296075478	 1.3228959457	 0.090498
H	 1.9028752498	-0.0284798862	 3.0079344237	 0.079439
H	 3.6782191082	 0.4843601672	 0.740132067	 0.086161
H	 2.1855915675	 1.4699242737	 0.5705639462	 0.095093
141.3307	175.6039	199.4378	223.2537	235.69	286.3157	397.6821	490.0766	506.2023	542.8647	578.7885	668.4581	721.2235	748.6962	761.7529	828.2521	850.9338	918.5571	931.6006	953.1875	989.6379	998.6446	1023.3561	1034.1739	1077.9433	1088.2549	1104.1798	1120.7195	1133.8435	1142.073	1164.1514	1189.9461	1199.7346	1217.6306	1235.1938	1256.1574	1295.7117	1359.4165	1383.9643	1403.3493	1412.4698	1470.5796	1485.8875	1489.6352	1498.5337	1503.3611	1528.7864	3030.9042	3033.2891	3045.9294	3051.8622	3061.9285	3066.1434	3077.3111	3091.4291	3094.8994	3106.6145	3128.8239	3157.2093	3183.7571
CC1C(C)C23CC(C2)N13	C[C@H]1[C@@H](C)[C@@]23C[C@@H](C2)N13	
InChI=1S/C8H13N/c1-5-6(2)9-7-3-8(5,9)4-7/h5-7H,3-4H2,1-2H3	InChI=1S/C8H13N/c1-5-6(2)9-7-3-8(5,9)4-7/h5-7H,3-4H2,1-2H3/t5-,6+,7-,8+/m1/s1
