17
gdb 67030	2.19642	2.14486	1.64603	2.0729	72.41	-0.2266	0.0026	0.2292	908.7962	0.134876	-421.78261	-421.774988	-421.774044	-421.814012	30.915	
C	 0.0502543951	 1.5231389893	-0.110706819	-0.492448
C	-0.0236619633	 0.0389402975	 0.1009295775	 0.308479
O	 0.3280817339	-0.7132057802	-1.1591269017	-0.313888
C	-0.7990433683	-1.5157714213	-0.9862769505	 0.043009
C	-0.9094553281	-2.0698153691	 0.5297629233	-0.230982
C	 0.2914970098	-1.8737925377	 1.3629218184	-0.065075
C	 0.7811051182	-0.6360987802	 1.1734678027	-0.151684
C	-1.4165666112	-0.7218695247	 0.0864176394	 0.267265
O	-2.6776230938	-0.1959471469	 0.2192761021	-0.456754
H	 1.0723624181	 1.8198907719	-0.3663330761	 0.13156
H	-0.6154754625	 1.8343105119	-0.9191703554	 0.136494
H	-0.2407954684	 2.0493491047	 0.8043734106	 0.121737
H	-1.1612413766	-2.103964725	-1.8198747207	 0.11997
H	-1.6049879794	-2.8912693138	 0.6551996404	 0.090114
H	 0.7445330779	-2.6553425018	 1.9609770038	 0.102732
H	 1.6929955165	-0.2262179801	 1.5885223939	 0.098515
H	-2.9131362678	-0.2023497444	 1.1547880512	 0.290955
172.0864	198.8717	220.6975	300.0025	332.5476	387.3017	420.254	481.0058	566.574	578.2211	636.7743	687.5799	735.7844	744.7761	785.4009	789.9771	876.4009	917.6574	921.9171	951.5326	1022.038	1027.2557	1054.1802	1093.5823	1116.8951	1145.0825	1203.9345	1215.8107	1261.1984	1308.4329	1314.0388	1377.5148	1412.008	1476.4785	1484.5305	1497.9322	1616.979	3040.6226	3108.3847	3127.374	3188.5542	3199.3116	3205.1438	3221.892	3779.0531
CC12OC3C(C=C1)C23O	C[C@@]12O[C@H]3[C@@H](C=C1)[C@@]23O	
InChI=1S/C7H8O2/c1-6-3-2-4-5(9-6)7(4,6)8/h2-5,8H,1H3	InChI=1S/C7H8O2/c1-6-3-2-4-5(9-6)7(4,6)8/h2-5,8H,1H3/t4-,5+,6-,7+/m1/s1
