23
gdb 121348	3.08019	0.88039	0.73971	2.2999	81.78	-0.239	0.0766	0.3156	1580.2805	0.205712	-425.431135	-425.42107	-425.420126	-425.46682	36.737	
C	 0.2503123738	 1.542465232	-0.3807169291	-0.392603
C	-0.0017323125	 0.1019123717	 0.0618101059	 0.12897
O	 0.253584613	-0.7706158666	-1.0489658259	-0.277063
C	 1.3165987379	-1.6697322661	-0.7519126277	-0.069448
C	 2.0491838323	-1.0782336663	 0.4524586225	-0.239108
C	 0.8884116185	-0.4205446079	 1.2202436429	-0.00796
C	 1.2757439039	 0.6128177126	 2.2791187015	-0.201357
C	 2.0306871782	 0.0106332343	 3.458946965	-0.079231
O	 2.2669362877	 1.0511277385	 4.3954742139	-0.421202
H	 1.3072845786	 1.7144452133	-0.6079601896	 0.112799
H	-0.3239805506	 1.7427888385	-1.2893669471	 0.122592
H	-0.061986568	 2.2578152101	 0.3865306287	 0.113214
H	-1.0619834218	-0.0001135742	 0.3312427407	 0.072426
H	 0.9143022481	-2.6665550702	-0.5101530321	 0.087093
H	 1.9464681005	-1.7705605668	-1.6423891144	 0.101292
H	 2.582298013	-1.8356357514	 1.0325599865	 0.099368
H	 2.7765795744	-0.3220369793	 0.1342195346	 0.104493
H	 0.3257460087	-1.2241173221	 1.7159035335	 0.074085
H	 1.8946717647	 1.4028782537	 1.8397562927	 0.108494
H	 0.3763948273	 1.101504333	 2.6737515621	 0.107131
H	 1.4328383181	-0.8009420698	 3.9068628715	 0.083167
H	 2.9773878827	-0.4350917692	 3.1149159788	 0.087551
H	 2.7635367017	 0.6855104722	 5.1331735152	 0.285298
55.1985	91.2651	100.7019	127.7227	194.3527	257.0084	265.3715	277.8866	337.1156	358.2777	407.5032	529.1074	618.741	702.974	792.7587	802.4913	862.3279	874.1627	933.2503	989.0951	1003.8339	1010.6373	1046.523	1062.4123	1080.4378	1096.6008	1134.5081	1149.9515	1177.8622	1197.6767	1230.6719	1239.2496	1252.0608	1302.5409	1313.3592	1321.6202	1327.5255	1356.6345	1385.6917	1389.8666	1402.6921	1409.3594	1464.0664	1484.2286	1489.0954	1494.3903	1500.4223	1528.4481	1529.8852	2958.0363	2973.3537	2988.8316	2993.2852	3011.9675	3032.3639	3036.9622	3040.1117	3062.2466	3081.2935	3101.3342	3110.0308	3116.8528	3830.8204
CC1OCCC1CCO	C[C@H]1OCC[C@H]1CCO	
InChI=1S/C7H14O2/c1-6-7(2-4-8)3-5-9-6/h6-8H,2-5H2,1H3	InChI=1S/C7H14O2/c1-6-7(2-4-8)3-5-9-6/h6-8H,2-5H2,1H3/t6-,7-/m1/s1
