17
gdb 36635	6.13723	0.76801	0.69582	4.3328	75.72	-0.2672	0.0067	0.2739	1561.4175	0.13704	-418.036347	-418.027835	-418.026891	-418.070751	30.082	
N	 0.022080946	-1.0979040616	-0.0018736525	-0.291387
C	 0.0315332098	 0.0563895501	 0.0053815823	 0.271671
C	-0.0084521913	 1.5180799424	 0.0133634287	-0.202719
O	 1.334973831	 1.9995847844	 0.0411602611	-0.255941
C	 1.4421069636	 3.3407408915	 0.0537194148	 0.435131
N	 0.4538767669	 4.1374367071	 0.0478524643	-0.305197
C	 0.9835066556	 5.5081261093	 0.030623307	-0.157031
C	 2.5070860695	 5.4094533373	 0.3340405177	-0.22146
C	 2.8315734709	 3.9283077879	 0.0457025302	-0.325426
H	-0.5304918541	 1.8894975605	-0.8751576714	 0.169065
H	-0.5625475237	 1.8786619014	 0.8868425922	 0.169824
H	 0.7888316153	 5.9494000365	-0.9552709625	 0.111478
H	 0.4492609343	 6.1233361522	 0.761026965	 0.113262
H	 3.1034230426	 6.1022646002	-0.2628634357	 0.110539
H	 2.6961193283	 5.636682769	 1.3869406447	 0.115848
H	 3.4845144096	 3.4557569305	 0.7838174675	 0.130772
H	 3.2924264957	 3.7716998212	-0.9368745434	 0.13157
38.0689	102.7666	117.53	155.4926	244.1955	272.3708	383.0208	405.6608	539.9762	550.9564	663.0234	742.49	813.3826	890.6417	902.5355	925.517	959.8363	1011.9981	1016.6535	1042.3113	1079.1383	1084.3484	1175.7383	1218.2916	1237.2798	1244.1742	1278.5872	1322.7292	1337.2642	1352.0457	1411.891	1477.4755	1483.9852	1496.018	1512.6228	1724.9155	2376.147	3025.9616	3044.799	3050.4077	3061.6818	3076.521	3086.7916	3098.2133	3118.1236
N#CCOC1=NCCC1	N#CCO[C]1[N]CCC1	
InChI=1S/C6H8N2O/c7-3-5-9-6-2-1-4-8-6/h1-2,4-5H2	InChI=1S/C6H8N2O/c7-3-5-9-6-2-1-4-8-6/h1-2,4-5H2
