15
gdb 49927	4.10224	1.06174	0.94631	3.2889	74.18	-0.243	-0.0355	0.2075	1216.4227	0.110065	-420.587685	-420.579331	-420.578387	-420.621598	30.103	
O	 0.2506789161	-0.1801030996	-0.2711785435	-0.226603
C	-0.0196729085	 0.9825050949	-0.1571377555	 0.150918
C	 1.0049089833	 2.094406146	 0.0920849149	-0.020667
O	 2.2679753638	 1.573611517	 0.4462243806	-0.25225
C	 3.2298754129	 1.8425313564	-0.5843523365	-0.089922
C	 2.4884935326	 2.7184775353	-1.5728314254	-0.080996
C	 1.2337990626	 2.8830457462	-1.1776916034	-0.118126
C	 4.4249053858	 2.4816637462	-0.0301765925	 0.329256
C	 5.4165168941	 3.004882954	 0.4007578177	-0.460289
H	-1.0668568021	 1.3591202596	-0.2432750337	 0.072245
H	 0.6139305819	 2.7250292728	 0.9088999615	 0.109354
H	 3.5256882708	 0.8890488184	-1.0494626875	 0.129716
H	 2.9655809727	 3.134667032	-2.4494066598	 0.129645
H	 0.4594827677	 3.4534702982	-1.6730793487	 0.123692
H	 6.2922827163	 3.4635500825	 0.7892599318	 0.204027
42.933	89.4367	142.2848	182.1584	260.5999	300.9256	417.7838	507.0803	524.06	625.4436	676.734	702.7303	722.6778	773.1647	792.2299	854.7703	914.7665	956.3106	968.4281	984.4852	1034.7102	1051.3948	1121.1198	1150.7755	1252.1465	1287.8511	1324.1593	1339.2337	1361.711	1413.5161	1686.724	1850.9335	2239.5204	2847.8663	2963.9563	2980.4596	3220.0821	3245.5396	3502.4427
O=CC1OC(C=C1)C#C	O=C[C@H]1O[C@@H](C=C1)C#C	
InChI=1S/C7H6O2/c1-2-6-3-4-7(5-8)9-6/h1,3-7H	InChI=1S/C7H6O2/c1-2-6-3-4-7(5-8)9-6/h1,3-7H/t6-,7+/m1/s1
