13
gdb 12168	3.89777	1.49728	1.18713	2.293	61.43	-0.2544	0.0126	0.267	960.0679	0.093539	-398.571677	-398.563615	-398.56267	-398.604505	28.447	
O	 0.024318231	 1.4092028542	 0.180785873	-0.428261
C	 0.0851741986	 0.016623725	 0.0565962663	-0.028481
C	-1.3141840341	-0.7015254117	 0.0059801297	-0.162677
N	-0.9009986427	-1.2182006165	-1.3140136044	-0.323254
C	 0.2708994783	-0.5150179287	-1.3875973068	 0.39858
O	 1.0817961947	-0.3273662975	-2.2552925395	-0.364764
C	-1.6116531837	-1.7020428711	 1.0149340318	 0.320138
C	-1.8619765224	-2.523291401	 1.8556126124	-0.427667
H	 0.6700175293	 1.7798374127	-0.4327629697	 0.305456
H	 0.7602004586	-0.4439346853	 0.7881400063	 0.114088
H	-2.1152090413	 0.0420805552	-0.0613593339	 0.128713
H	-1.4073149761	-1.7620041461	-1.998287225	 0.261182
H	-2.0819870103	-3.2491526493	 2.5993806198	 0.206947
65.9528	125.8531	145.652	217.7154	232.7093	337.1554	429.2667	466.7729	509.8523	569.6698	638.9817	667.9743	726.2915	751.1361	865.4752	953.6872	999.7622	1053.492	1123.9289	1165.8678	1192.7792	1239.3304	1342.1733	1346.2125	1371.1577	1389.9026	1896.9394	2241.2076	3038.3889	3056.7143	3501.1067	3602.2851	3793.2763
OC1C(NC1=O)C#C	O[C@H]1[C@@H](NC1=O)C#C	
InChI=1S/C5H5NO2/c1-2-3-4(7)5(8)6-3/h1,3-4,7H,(H,6,8)	InChI=1S/C5H5NO2/c1-2-3-4(7)5(8)6-3/h1,3-4,7H,(H,6,8)/t3-,4-/m0/s1
