23
gdb 92451	2.24166	1.72282	1.42246	1.4465	84.05	-0.2331	0.0809	0.314	1086.0078	0.208193	-388.315815	-388.307505	-388.30656	-388.34806	33.8	
C	-0.1881261467	 1.5763023895	-0.0487887752	-0.413365
C	 0.0263260203	 0.0707555304	 0.0205068306	 0.15641
O	 0.6840254578	-0.3969840815	-1.1825974081	-0.303274
C	 1.8098013296	-1.1836700383	-0.7562670332	 0.109525
C	 2.8955874578	-0.22416294	-0.2348307939	-0.219734
C	 2.2895445705	 0.2259379083	 1.1361159492	-0.227774
C	 0.9196978669	-0.4907993391	 1.1483028359	-0.056149
C	 1.3032216621	-1.8637544975	 0.5298608796	 0.031189
C	 0.2013842986	-2.9033052995	 0.3440990674	-0.433555
H	 0.7527269186	 2.1221735558	-0.1542554136	 0.120375
H	-0.8121117734	 1.8193431007	-0.913839268	 0.123678
H	-0.7019006095	 1.9336620199	 0.850524502	 0.108998
H	-0.9640268154	-0.4051512096	 0.0765384262	 0.067163
H	 2.1054130896	-1.8280755736	-1.5862878282	 0.065287
H	 3.8599308262	-0.7278114604	-0.1146227684	 0.092324
H	 3.0324528109	 0.6056052814	-0.9321064545	 0.103905
H	 2.9003006011	-0.123205938	 1.9741454328	 0.094948
H	 2.2093716316	 1.3105281836	 1.2312944349	 0.0994
H	 0.4250019683	-0.517454678	 2.121497318	 0.057346
H	 2.134268469	-2.307146225	 1.0903451552	 0.064665
H	-0.5675731955	-2.5616509032	-0.3525886713	 0.135823
H	 0.6173377495	-3.8328507186	-0.0587804924	 0.1127
H	-0.2812162578	-3.1458105572	 1.2970939748	 0.110114
137.0805	182.7386	210.7092	239.8018	267.5098	307.2211	348.9948	412.381	494.5097	548.5203	595.0063	733.2792	758.3356	787.1814	823.3746	843.1273	888.6439	905.6105	934.0784	948.0543	983.4861	990.3264	1027.1385	1039.1654	1076.4007	1088.1113	1106.9244	1118.578	1142.0002	1174.0432	1200.2096	1229.862	1252.6751	1262.4128	1311.3222	1321.4701	1326.3445	1333.9485	1365.7987	1393.7152	1404.0616	1410.0049	1416.1719	1479.2412	1484.9356	1493.0455	1496.2391	1510.6197	1517.0707	2981.625	3035.2299	3038.3125	3041.0304	3048.9689	3060.8203	3092.6622	3094.6145	3097.6652	3103.2887	3106.5008	3114.0074	3123.3421	3126.421
CC1OC2CCC1C2C	C[C@H]1O[C@H]2CC[C@@H]1[C@H]2C	
InChI=1S/C8H14O/c1-5-7-3-4-8(5)9-6(7)2/h5-8H,3-4H2,1-2H3	InChI=1S/C8H14O/c1-5-7-3-4-8(5)9-6(7)2/h5-8H,3-4H2,1-2H3/t5-,6-,7-,8+/m1/s1
