22
gdb 55851	3.54856	0.81975	0.73468	2.1379	83.84	-0.2345	-0.0079	0.2266	1640.8275	0.190634	-404.357947	-404.347087	-404.346142	-404.395039	38.848	
C	-0.4119763352	 1.4484389912	 0.016932518	-0.475587
C	-0.1081802793	-0.0352098409	 0.1147765392	 0.392429
O	-0.1319607102	-0.6253846098	 1.1701011364	-0.295875
C	 0.2461812195	-0.7328568586	-1.1992102833	-0.330725
C	 0.1575241789	-2.2373333452	-1.1066011465	-0.035844
N	-1.0918401539	-2.8589520829	-1.5907566021	-0.373824
C	 0.1834321861	-3.1678123579	-2.2700843212	 0.316409
C	 0.2910978074	-2.662110325	-3.6955096167	-0.436469
C	 0.7903698238	-4.5413263911	-2.0539944543	-0.455808
H	 0.3505687405	 1.9680295865	-0.5733184381	 0.132916
H	-1.3667874484	 1.5898399827	-0.5035014098	 0.146832
H	-0.477942301	 1.8845578943	 1.0144248265	 0.141475
H	-0.3975583797	-0.3481329888	-1.9958013374	 0.123243
H	 1.2695014958	-0.4153812862	-1.4531619725	 0.123801
H	 0.5676221859	-2.6249430656	-0.1771869378	 0.096874
H	-1.36349292	-3.6231252671	-0.9766068173	 0.226078
H	-0.2265157993	-1.7102235499	-3.8256903242	 0.122018
H	 1.339544493	-2.5326459857	-3.9877495155	 0.11125
H	-0.1606093023	-3.3814452842	-4.3880375047	 0.116756
H	 0.2799768569	-5.2926725762	-2.6685247968	 0.118937
H	 1.8503231366	-4.5549908238	-2.3321864782	 0.120449
H	 0.715141975	-4.849698536	-1.0062988336	 0.114666
33.4211	44.3432	113.8328	130.6301	169.0933	196.897	223.1635	258.1404	315.6399	368.2975	420.0968	460.2258	475.8569	490.8492	587.0742	695.0544	800.4314	821.4623	856.4492	909.526	951.331	958.5916	980.7106	997.4387	1032.1815	1076.0705	1078.5189	1133.1934	1156.6045	1175.56	1205.7852	1254.221	1310.0139	1333.4005	1358.6472	1380.8229	1411.4127	1421.9844	1433.9909	1460.8756	1466.4195	1475.8622	1477.8007	1489.8072	1498.0118	1514.8097	1813.7179	3003.5283	3021.3368	3031.5832	3034.8967	3082.5015	3084.8081	3088.5326	3096.521	3099.819	3132.5013	3140.6066	3151.1707	3492.5301
CC(=O)CC1NC1(C)C	CC(=O)C[C@H]1NC1(C)C	
InChI=1S/C7H13NO/c1-5(9)4-6-7(2,3)8-6/h6,8H,4H2,1-3H3	InChI=1S/C7H13NO/c1-5(9)4-6-7(2,3)8-6/h6,8H,4H2,1-3H3/t6-/m1/s1
