25
gdb 96354	2.03932	1.63864	1.18362	1.1078	88.24	-0.2405	0.0782	0.3187	1211.8083	0.229143	-389.517389	-389.507666	-389.506722	-389.550849	38.677	
C	-0.0639515929	 1.5263522626	-0.1429672973	-0.418371
C	 0.0586061458	 0.014418365	 0.0069537928	 0.133195
O	 0.7077555217	-0.446718741	-1.1754456645	-0.263241
C	 0.7027720575	-1.8572366223	-1.3008553788	-0.06568
C	 1.4427327704	-2.5240919191	-0.1423203624	-0.21979
C	 0.8647821028	-2.0307173368	 1.1896024253	-0.219409
C	 0.7972234005	-0.4844515118	 1.2834173132	 0.268862
C	 2.214361224	 0.1129549679	 1.3689230422	-0.420791
C	 0.0006274068	-0.111265587	 2.5441580247	-0.430271
H	 0.9206158269	 1.9943343431	-0.2240075453	 0.125476
H	-0.619963514	 1.7566496494	-1.0555849033	 0.121304
H	-0.5939797912	 1.9694408603	 0.7036902671	 0.114511
H	-0.9591833989	-0.4178515702	 0.0367388544	 0.052647
H	-0.3379155623	-2.2260227141	-1.3408641594	 0.079945
H	 1.1734445099	-2.0813146013	-2.2630231215	 0.100215
H	 1.3530642804	-3.613964407	-0.2210487004	 0.090889
H	 2.5097773047	-2.2849012189	-0.2106829567	 0.104807
H	-0.1534716557	-2.4292411696	 1.3014889234	 0.086892
H	 1.445023811	-2.4239496427	 2.0329557019	 0.088539
H	 2.7553038284	-0.0041607266	 0.4268069319	 0.125515
H	 2.1831761739	 1.1813680267	 1.6032526562	 0.110291
H	 2.7920649544	-0.3780353188	 2.1597630844	 0.103991
H	 0.4531186882	-0.5698550685	 3.4306552556	 0.110076
H	-0.0214859389	 0.9698997329	 2.7111243881	 0.11235
H	-1.0350562937	-0.4653851423	 2.4826652885	 0.10805
115.7418	174.702	200.9652	220.5619	235.659	281.5311	289.8766	324.1927	359.1995	365.6343	415.9834	450.6024	482.5407	550.5196	592.0374	710.5815	821.3367	855.0864	877.4124	914.414	935.2829	943.5836	951.2419	1006.4176	1027.8944	1046.8096	1082.8019	1102.8237	1128.9864	1145.3778	1191.3461	1209.0624	1233.7538	1249.0812	1291.1	1319.661	1357.5254	1369.3984	1377.9316	1382.6311	1398.7486	1408.9206	1414.002	1424.2719	1475.7497	1482.423	1484.2906	1489.3069	1490.7757	1501.798	1505.2449	1507.8259	1517.1202	2921.385	2946.9778	3006.267	3024.4103	3033.1351	3036.4205	3052.2173	3053.654	3073.8493	3081.2692	3086.2303	3096.0287	3103.3751	3120.4125	3123.8942	3131.0298
CC1OCCCC1(C)C	C[C@H]1OCCCC1(C)C	
InChI=1S/C8H16O/c1-7-8(2,3)5-4-6-9-7/h7H,4-6H2,1-3H3	InChI=1S/C8H16O/c1-7-8(2,3)5-4-6-9-7/h7H,4-6H2,1-3H3/t7-/m1/s1
