18
gdb 117109	3.8039	0.8585	0.7346	4.4034	74.2	-0.2604	-0.0021	0.2583	1533.7247	0.146793	-435.277119	-435.266961	-435.266016	-435.313225	35.338	
C	-0.0279961266	 1.2171446997	-0.9729774893	-0.392157
C	 0.0530003857	-0.0533014888	-0.1494796672	-0.035583
O	-1.2731476188	-0.6136863048	-0.0827872263	-0.259902
C	-1.4146776608	-1.751997848	 0.6196263549	 0.411656
N	-0.4489036628	-2.3150030423	 1.2104649095	-0.533134
C	-2.8920291472	-2.1795074289	 0.5213990528	-0.223043
N	-3.3682005284	-2.4173637698	-0.8456872074	-0.50066
C	-3.1377224065	-3.3665356013	 1.3492535662	 0.308777
N	-3.2963907895	-4.3034833638	 2.0054444304	-0.315813
H	 0.9634922227	 1.6735649015	-1.0445534215	 0.128227
H	-0.3827896262	 1.0074540068	-1.986260636	 0.126437
H	-0.7069779791	 1.9402467419	-0.5123571669	 0.130708
H	 0.7262019035	-0.7934390663	-0.5936282097	 0.125318
H	 0.4053413398	 0.1348617891	 0.8694209754	 0.128859
H	-0.7482511834	-3.1611238847	 1.6922038772	 0.248099
H	-3.4906650175	-1.3572641991	 0.9335266198	 0.155211
H	-3.1876728122	-1.5763571914	-1.3862036468	 0.251377
H	-2.8201594225	-3.1610043199	-1.2705579251	 0.245623
36.4645	83.1479	109.4341	122.5604	185.7616	236.0678	248.302	289.5061	301.4373	362.313	418.4864	466.2072	557.0175	648.9262	762.6685	808.0817	850.9593	869.2582	882.6697	914.0948	985.8693	1048.5402	1114.1243	1129.0092	1136.6632	1182.8957	1200.5978	1279.462	1290.8485	1354.322	1401.789	1407.9701	1428.3352	1485.4878	1496.3989	1520.5495	1661.2229	1733.3594	2369.1917	3040.3943	3046.2357	3053.6983	3090.8217	3121.8398	3125.2794	3491.224	3508.2657	3576.7365
CCOC(=N)C(N)C#N	CCO[C]([NH])[C@@H](N)C#N	
InChI=1S/C5H9N3O/c1-2-9-5(8)4(7)3-6/h4,8H,2,7H2,1H3	InChI=1S/C5H9N3O/c1-2-9-5(8)4(7)3-6/h4,8H,2,7H2,1H3/t4-/m0/s1
