25
gdb 114531	3.36219	1.09349	0.98592	0.0861	91.85	-0.2712	0.0796	0.3508	1358.9496	0.232216	-352.365832	-352.357279	-352.356334	-352.398799	34.794	
C	 0.1683116297	 1.5226358313	-0.0662479315	-0.388699
C	 0.0242041683	-0.0026307759	-0.052047928	-0.191679
C	-1.4255181412	-0.5031158654	 0.015895846	 0.066453
C	-2.2827822815	-0.0641982715	-1.2005400383	-0.210684
C	-3.4899741168	-0.9943857044	-1.409018745	-0.009712
C	-3.9810395897	-1.5854907969	-0.0531846915	-0.229654
C	-2.8327522514	-2.6265435141	-0.215328564	-0.006544
C	-2.9859454825	-2.4235554944	-1.7470798942	-0.208432
C	-1.4880884011	-2.0364134961	 0.239745067	-0.224463
H	 1.2219497781	 1.8189233161	-0.0784813364	 0.109739
H	-0.30866973	 1.9667322635	-0.9457189426	 0.118168
H	-0.2919671439	 1.9712444557	 0.8216390834	 0.111308
H	 0.5045511118	-0.425616109	-0.9454734381	 0.090851
H	 0.576213028	-0.4073570816	 0.8068597474	 0.089213
H	-1.8817465463	-0.0400855071	 0.9009875379	 0.071685
H	-2.6192402399	 0.9685803698	-1.0537800875	 0.091199
H	-1.6754779848	-0.0635685893	-2.1166107818	 0.089147
H	-4.2323307959	-0.5442473399	-2.0732502869	 0.053806
H	-3.9927000947	-0.9428891397	 0.8316498577	 0.087271
H	-4.9609157802	-2.0585330317	-0.1606916163	 0.090888
H	-2.9872206043	-3.6316920624	 0.1856846376	 0.053979
H	-3.7803940268	-3.0486721272	-2.1648050438	 0.08813
H	-2.0882885201	-2.516251887	-2.3677820242	 0.080365
H	-0.6786680026	-2.5360052119	-0.3103993218	 0.089466
H	-1.3121701223	-2.2471310709	 1.3018493249	 0.0882
88.0175	119.4455	200.5601	243.1436	294.4048	345.4821	404.2534	419.2601	435.0662	483.6265	555.8638	750.6676	789.3143	826.0742	826.9491	856.1378	865.1063	903.6244	928.084	930.0855	949.6867	975.9353	1011.4776	1031.0876	1057.9044	1061.4395	1099.156	1100.3701	1123.0643	1127.1967	1145.7828	1190.9455	1226.1248	1236.0251	1259.115	1262.4692	1286.3158	1316.2505	1320.2896	1330.3581	1339.739	1348.3679	1374.4709	1388.5021	1394.6017	1412.1916	1481.7849	1484.707	1490.6198	1496.0729	1501.6004	1507.9403	1516.7311	2999.5187	3004.0628	3005.9901	3012.8239	3030.403	3035.7395	3038.1541	3047.5801	3050.6444	3056.3247	3066.729	3071.5579	3094.2215	3095.6283	3103.7114	3104.4134
CCC1CC2CC(C2)C1	CC[C@H]1C[C@@H]2C[C@@H](C2)C1	
InChI=1S/C9H16/c1-2-7-3-8-5-9(4-7)6-8/h7-9H,2-6H2,1H3	InChI=1S/C9H16/c1-2-7-3-8-5-9(4-7)6-8/h7-9H,2-6H2,1H3/t7-,8-,9+
