18
gdb 65050	2.33418	1.53954	1.20741	4.8162	75.88	-0.2625	0.02	0.2826	1091.8968	0.147927	-398.089999	-398.081243	-398.080299	-398.123405	32.907	
C	 0.2670250979	 0.643931825	-1.4097641447	-0.483477
C	 0.0077801134	-0.0411178517	-0.0830853762	 0.209985
C	 1.1448413025	-0.6076496516	 0.685763608	-0.265247
N	 0.4541332278	 0.6103275276	 1.1566963095	-0.357089
C	-1.3654188883	-0.6765884175	 0.0480660201	 0.139072
C	-1.9640217872	-0.9189808093	 1.3937210055	-0.268636
N	-2.4961156719	 0.146731274	 0.5394828749	-0.340398
C	-1.7043333725	-1.5870591151	-1.0277170909	 0.278011
N	-1.9311894245	-2.3267759787	-1.8867263386	-0.348368
H	 1.2780680149	 1.0614593341	-1.4385457979	 0.117337
H	 0.1662053216	-0.05905705	-2.2417711598	 0.159298
H	-0.4471520421	 1.4582998504	-1.5751622607	 0.133859
H	 0.9960544151	-1.4836002093	 1.3098891978	 0.128921
H	 2.1423747711	-0.5084766043	 0.2666963421	 0.123793
H	 1.0037987892	 1.4359325425	 0.9337869798	 0.238364
H	-2.6231348221	-1.7707137935	 1.5271495858	 0.137781
H	-1.353695397	-0.6376320798	 2.2455394358	 0.148918
H	-2.1004134481	 1.032573377	 0.8539351595	 0.247875
60.0722	145.2426	191.7134	220.5317	244.9197	270.8894	337.8565	376.256	424.4345	492.6287	549.2091	593.6035	608.7613	804.1597	855.0983	881.268	907.1488	933.6441	937.9301	979.0312	1000.6058	1004.9419	1047.6309	1093.6729	1125.4602	1143.5813	1155.8446	1241.2087	1263.5624	1286.0649	1341.5595	1358.3512	1386.1969	1422.3049	1484.7243	1486.3201	1501.5056	1512.9807	2356.8173	3034.4917	3102.1374	3115.474	3116.3754	3125.9541	3204.0115	3225.1064	3474.4902	3506.7083
CC1(CN1)C1(CN1)C#N	C[C@]1(CN1)[C@]1(CN1)C#N	
InChI=1S/C6H9N3/c1-5(3-8-5)6(2-7)4-9-6/h8-9H,3-4H2,1H3	InChI=1S/C6H9N3/c1-5(3-8-5)6(2-7)4-9-6/h8-9H,3-4H2,1H3/t5-,6+/m0/s1
