14
gdb 24504	3.99711	1.74916	1.21672	1.4947	76.54	-0.2367	-0.0329	0.2038	932.5797	0.106781	-395.827045	-395.821238	-395.820294	-395.857047	23.694	
N	-0.031118901	 1.3284524501	 0.0097816251	-0.361904
C	 1.2732622932	 1.7576669358	-0.0004659719	 0.019255
N	 2.1513246453	 0.7883114557	-0.0141986607	-0.335396
C	 1.3877550119	-0.3681001433	-0.0130574276	 0.265746
C	 0.0091384659	-0.0507732	 0.0019594132	 0.386554
N	-1.015931798	-0.8898921648	 0.0073255779	-0.361627
C	-0.6508352796	-2.1767269431	-0.0031383854	-0.035972
C	 0.6790864242	-2.6261446533	-0.0183994576	-0.104273
C	 1.7323846074	-1.7172292712	-0.0236611495	-0.210498
H	-0.862812887	 1.8950270205	 0.0208603892	 0.275135
H	 1.514792495	 2.8115926549	 0.0028943412	 0.139761
H	-1.4623454244	-2.8994185713	 0.0007916716	 0.106922
H	 0.8727276331	-3.6927426283	-0.0260264359	 0.100361
H	 2.769011344	-2.0347826618	-0.0353811497	 0.115936
237.8968	257.7813	438.2279	444.9963	508.3331	559.1181	607.5453	645.7214	662.0529	791.9348	803.0185	838.1132	878.2115	904.9067	940.7217	960.8637	983.2262	1053.7248	1090.5716	1129.5675	1204.5881	1281.2778	1301.3522	1329.0161	1379.8367	1416.3689	1433.8144	1519.477	1526.7994	1622.8767	1650.5365	3163.4913	3191.5053	3206.5316	3240.3583	3667.0984
N1C=NC2=C1N=CC=C2	[nH]1cnc2c1nccc2	
InChI=1S/C6H5N3/c1-2-5-6(7-3-1)9-4-8-5/h1-4H,(H,7,8,9)	InChI=1S/C6H5N3/c1-2-5-6(7-3-1)9-4-8-5/h1-4H,(H,7,8,9)
