19
gdb 62476	2.44412	1.51878	1.28193	2.5526	77.96	-0.229	0.0272	0.2562	1086.0091	0.157409	-419.183959	-419.174598	-419.173653	-419.217588	35.589	
C	-0.1873351043	 1.5571615348	 0.0392735819	-0.434053
C	-0.0124798478	 0.0462290516	 0.0139888536	 0.219731
O	-1.2248910265	-0.6036104109	-0.3009239544	-0.476885
C	 1.1771149041	-0.4860950708	-0.7998569582	 0.341369
N	 1.2971788847	-0.6167341232	-2.0523941853	-0.566798
N	 1.8897222589	-0.8042099159	 0.3490849508	-0.406798
C	 0.7393969467	-0.5681605763	 1.2251519066	 0.381263
C	 0.7761051367	-0.1579003705	 2.6569687773	-0.339503
C	 0.1852900769	-1.5025506907	 2.2432110364	-0.321227
H	 0.7371454696	 2.0591669069	 0.3386187064	 0.122159
H	-0.4740484333	 1.9127834354	-0.9544795541	 0.130288
H	-0.9800507966	 1.8273774443	 0.7439205667	 0.121619
H	-1.1614874121	-0.8716721912	-1.2259274144	 0.295796
H	 2.1551656194	-1.1030862875	-2.3173960752	 0.212001
H	 2.5642095697	-1.5529476123	 0.4375429071	 0.237848
H	 1.7350995184	-0.1633174041	 3.1653879122	 0.114675
H	 0.0995502958	 0.6239093183	 2.9873390397	 0.122191
H	-0.8914348673	-1.6308501015	 2.2665921189	 0.136406
H	 0.751951097	-2.3959736865	 2.487226624	 0.109918
74.9326	160.5158	194.454	203.1055	224.436	238.1878	269.3897	313.6559	397.8544	429.3959	510.8912	536.8823	588.6388	694.4022	721.0981	766.1335	807.9433	845.3145	877.7604	894.4924	963.839	982.8094	992.7336	1049.0774	1060.1875	1071.7549	1105.571	1169.4935	1183.8816	1203.8094	1242.9859	1272.3638	1342.3995	1367.3362	1402.8864	1420.5134	1456.6406	1484.2695	1488.307	1510.1944	1799.6091	3039.8028	3114.6793	3121.7005	3124.3627	3127.745	3205.1666	3220.2008	3461.7064	3573.8543	3785.3778
CC1(O)C(=N)NC11CC1	C[C@@]1(O)[C]([NH])NC21CC2	
InChI=1S/C6H10N2O/c1-5(9)4(7)8-6(5)2-3-6/h9H,2-3H2,1H3,(H2,7,8)	InChI=1S/C6H10N2O/c1-5(9)4(7)8-6(5)2-3-6/h9H,2-3H2,1H3,(H2,7,8)/t5-/m1/s1
