15
gdb 16388	2.96725	2.50313	1.77379	4.4278	60.51	-0.2255	-0.0235	0.2021	761.0788	0.120838	-399.772653	-399.766275	-399.765331	-399.803093	25.16	
O	 0.0477739332	 1.3838573515	 0.0795780672	-0.437845
C	 0.0025474664	-0.0192684435	 0.0407207462	 0.07716
C	-1.4035337753	-0.5881468401	-0.2306201027	-0.046816
C	-1.1446908401	-2.0418556819	-0.6952863476	-0.250581
C	-0.5345203936	-1.2781770056	-1.9075098919	-0.121952
N	-1.5378107822	-0.1527982795	-1.6801414617	-0.359155
C	 0.6749458489	-0.6226061295	-1.2376118519	 0.424198
O	 1.8159822703	-0.5651936917	-1.5958800054	-0.319504
H	-0.4237255617	 1.681167139	-0.7115348668	 0.291527
H	 0.4616964845	-0.3919194822	 0.9599360907	 0.105706
H	-2.1953165464	-0.306117327	 0.4621450173	 0.088136
H	-0.5016942234	-2.6945822716	-0.0944626159	 0.11303
H	-2.0664685566	-2.5628952818	-0.9668059644	 0.11333
H	-0.4115651921	-1.6894523059	-2.9070521894	 0.094994
H	-2.4411982019	-0.4762874303	-2.0265207438	 0.227773
117.8657	234.5569	275.1509	436.5703	458.9065	508.5772	533.2299	640.4605	690.783	799.5198	818.7235	851.7134	882.2797	902.654	927.3317	985.8389	1001.381	1054.2711	1060.7128	1107.1326	1144.4614	1161.7561	1182.0176	1235.1558	1251.3331	1266.711	1283.4464	1321.8148	1357.7542	1438.3348	1494.3248	1891.9749	3040.3697	3089.805	3108.778	3130.1934	3151.0866	3458.6252	3746.1951
OC1C2CC(N2)C1=O	O[C@H]1[C@@H]2C[C@@H](N2)C1=O	
InChI=1S/C5H7NO2/c7-4-2-1-3(6-2)5(4)8/h2-4,6-7H,1H2	InChI=1S/C5H7NO2/c7-4-2-1-3(6-2)5(4)8/h2-4,6-7H,1H2/t2-,3+,4-/m0/s1
