18
gdb 47097	2.87946	1.63069	1.21483	4.2729	71.52	-0.2296	-0.0285	0.2011	1032.5279	0.149889	-439.101508	-439.093945	-439.093001	-439.134306	28.822	
O	 0.1746482265	-0.0004625835	-0.1894879209	-0.295963
C	 0.0894929481	 1.1838550449	-0.0149462816	 0.386352
C	-1.1794649543	 1.9620280526	 0.3326316809	-0.27272
N	-0.683225067	 3.2716040088	 0.7369090629	-0.317574
C	 0.5674174897	 3.5761112362	 0.015213995	-0.038127
C	 1.5484540973	 4.3413954855	 0.9109557774	-0.22649
C	 2.0908465801	 3.2113913313	 1.7902341654	-0.065723
O	 2.1726166189	 2.0660760761	 0.9353033913	-0.271013
C	 1.2427684518	 2.204388653	-0.1378293214	 0.038429
H	-1.8203555879	 1.9634208622	-0.5685620671	 0.112044
H	-1.7386859915	 1.4618987043	 1.1300591213	 0.135573
H	-1.3708432828	 4.0065268956	 0.637869761	 0.226354
H	 0.4033002193	 4.0632601493	-0.9566384174	 0.065597
H	 2.3471257392	 4.783076659	 0.3057863058	 0.105141
H	 1.0620394414	 5.1341470285	 1.4846170986	 0.104298
H	 3.0925354494	 3.4008113169	 2.1856163652	 0.10953
H	 1.4088897124	 3.0138914901	 2.6271280795	 0.107922
H	 1.7716020193	 2.0580155593	-1.0857387759	 0.09637
42.3998	130.3632	214.1626	223.2536	343.1322	449.388	521.21	535.4049	602.8995	657.1676	708.9406	805.4299	844.6176	870.5566	904.2608	925.9664	932.5263	986.2781	997.8969	1031.075	1092.8078	1103.5662	1130.0495	1158.7968	1196.2945	1209.2699	1228.2145	1250.5955	1271.317	1306.9872	1328.8828	1343.8225	1371.8849	1392.2156	1441.9962	1477.2955	1487.1295	1513.4176	1865.3499	2935.1869	2991.9846	3023.3452	3050.7461	3055.2767	3067.8898	3091.7445	3112.5261	3568.0003
O=C1CNC2CCOC12	O=C1CN[C@H]2CCO[C@@H]12	
InChI=1S/C6H9NO2/c8-5-3-7-4-1-2-9-6(4)5/h4,6-7H,1-3H2	InChI=1S/C6H9NO2/c8-5-3-7-4-1-2-9-6(4)5/h4,6-7H,1-3H2/t4-,6+/m0/s1
