20
gdb 58055	1.92052	1.44266	0.87785	3.4365	79.45	-0.2765	0.0323	0.3088	1337.1078	0.16922	-403.150171	-403.14015	-403.139206	-403.185635	36.429	
C	-0.0095575677	 1.5528616969	 0.1580184039	-0.429161
C	-0.0491805191	 0.0265851155	 0.1362170507	 0.127027
O	 0.5473028495	-0.5293536848	 1.2946157576	-0.419328
C	-1.4924972345	-0.5372056167	-0.0530769021	-0.197509
C	-2.0898488707	-0.0026190051	-1.2833783064	 0.287501
N	-2.5402066979	 0.4132347655	-2.2636428052	-0.334761
C	-1.5315306996	-2.0594821379	-0.0699400761	 0.048521
C	-1.6950164675	-2.8271243107	 1.2122371482	-0.261285
C	-2.8213470139	-2.7881886052	 0.2115028189	-0.278573
H	 1.0191758677	 1.8924611434	 0.3026828653	 0.132
H	-0.3926857824	 1.9789647471	-0.7724716129	 0.153076
H	-0.619882683	 1.9446156241	 0.9823974519	 0.109646
H	 0.5579338889	-0.3419051267	-0.698915281	 0.108122
H	 0.190100269	-0.0722918677	 2.0641513339	 0.280581
H	-2.1054290461	-0.1781882138	 0.7866654849	 0.107434
H	-0.8830616278	-2.4986584776	-0.8224994317	 0.100116
H	-1.1306100766	-3.744818214	 1.3301932123	 0.121329
H	-1.8094268417	-2.2611089423	 2.1302082751	 0.105504
H	-3.6971431363	-2.1937823963	 0.4511091139	 0.118079
H	-3.0390660502	-3.6794540937	-0.3655041411	 0.12168
47.7029	74.3751	140.5741	154.6412	185.0981	245.5249	276.9775	321.9957	332.5168	382.7852	455.6939	472.7433	526.4912	556.7378	761.2194	827.4905	849.4632	873.8451	927.8287	935.9602	980.4318	1017.6325	1054.6496	1061.9042	1077.1172	1108.5956	1125.1115	1133.8191	1188.0984	1194.127	1226.9854	1237.9517	1286.4786	1322.6721	1369.2402	1405.6618	1410.1962	1423.0875	1472.4092	1493.1635	1494.4123	1507.5103	2351.3753	3004.9885	3024.9667	3051.0792	3104.3011	3133.7767	3134.5025	3140.0942	3151.3176	3213.2763	3228.0517	3800.2364
CC(O)C(C#N)C1CC1	C[C@@H](O)[C@@H](C#N)C1CC1	
InChI=1S/C7H11NO/c1-5(9)7(4-8)6-2-3-6/h5-7,9H,2-3H2,1H3	InChI=1S/C7H11NO/c1-5(9)7(4-8)6-2-3-6/h5-7,9H,2-3H2,1H3/t5-,7-/m1/s1
