17
gdb 22530	1.97215	1.59858	1.12333	1.8132	79.53	-0.2387	-0.0347	0.204	1142.484	0.133165	-417.898931	-417.889523	-417.888578	-417.932926	35.088	
C	 0.1269450539	 1.4567923026	 0.2695521378	-0.465736
C	 0.0220230425	-0.0319301573	-0.0081676569	 0.225569
C	 0.5676735149	-0.5689539685	-1.2800880373	-0.285064
N	 1.2346834203	-0.8663071589	-0.0012507515	-0.32779
C	-1.1838717051	-0.6950446067	 0.6154997707	 0.163195
N	-1.3177202411	-0.9423618494	 1.8724584253	-0.17197
O	-0.2074128159	-0.5383766075	 2.6013226759	-0.378709
C	-2.2825210913	-1.0443647513	-0.2213712018	 0.295281
C	-3.1747559523	-1.3100227774	-0.985098836	-0.425142
H	 1.011234621	 1.8742537844	-0.2237759811	 0.111559
H	-0.7523322435	 1.9877080122	-0.1105411997	 0.131267
H	 0.2031198275	 1.6446110427	 1.343347987	 0.144098
H	 0.0970299271	-1.4232309909	-1.7574873736	 0.12808
H	 1.02537172	 0.1402647132	-1.9654735125	 0.109197
H	 2.0538237606	-0.2761298838	 0.1257191617	 0.229824
H	-0.4447549714	-0.8008009867	 3.4976068753	 0.314465
H	-3.9734445873	-1.5528289266	-1.6416570532	 0.201877
61.2183	139.4434	170.6467	189.9917	227.472	258.9615	330.2202	352.179	403.7455	418.9653	480.9229	539.802	570.6807	608.5918	647.6815	658.0343	701.4063	838.8836	877.6445	932.1672	974.4946	992.0912	1023.613	1058.9082	1121.3942	1148.4587	1191.1573	1261.0199	1331.4756	1375.589	1400.5127	1407.9601	1481.8912	1505.2731	1514.5235	1664.5256	2225.1049	3033.1231	3098.7046	3107.8631	3123.6073	3195.5233	3492.4967	3501.7946	3813.1089
CC1(CN1)C(=NO)C#C	C[C@]1(CN1)C(=NO)C#C	
InChI=1S/C6H8N2O/c1-3-5(8-9)6(2)4-7-6/h1,7,9H,4H2,2H3	InChI=1S/C6H8N2O/c1-3-5(8-9)6(2)4-7-6/h1,7,9H,4H2,2H3/t6-/m0/s1
