23
gdb 116198	2.22359	1.41775	1.10379	1.8461	81.6	-0.2423	0.0779	0.3202	1245.2432	0.20424	-425.431803	-425.421605	-425.420661	-425.466777	37.668	
C	 0.1398410017	 1.5881319398	-0.2933307946	-0.236433
O	-0.2855727802	 0.2546395828	-0.4564920042	-0.247536
C	 0.6454669593	-0.5679198202	-1.1213884705	 0.125124
C	 1.8864368686	-0.9673943716	-0.2913109284	-0.284552
C	 2.1675028144	-2.4148694114	-0.7549779099	-0.080779
O	 1.1520307726	-2.7603253812	-1.6962490256	-0.293567
C	 0.0060583758	-1.9300203493	-1.4821646184	 0.340453
C	-0.8621721696	-2.4783791017	-0.3407909926	-0.418187
C	-0.7743138399	-1.8800565716	-2.7904235927	-0.434101
H	 1.024490547	 1.6655535494	 0.3557835401	 0.108163
H	 0.3800643852	 2.0580873787	-1.2600771816	 0.105402
H	-0.6835262144	 2.136679656	 0.1706731932	 0.127535
H	 0.9661893788	-0.0786882313	-2.0552521733	 0.063556
H	 2.7386506754	-0.3058930006	-0.4609824069	 0.104133
H	 1.6348853686	-0.9238560769	 0.7724327444	 0.113012
H	 3.1311019244	-2.5184397688	-1.2634787601	 0.104486
H	 2.1629578232	-3.1127110353	 0.0940164405	 0.095346
H	-0.3072407067	-2.5303341936	 0.6005372678	 0.109222
H	-1.7338257294	-1.8411666009	-0.1765712827	 0.128697
H	-1.1982693694	-3.4878809087	-0.5940264168	 0.114442
H	-1.1957032931	-2.8605671796	-3.0299527505	 0.117931
H	-1.5937266906	-1.1596366119	-2.7098546237	 0.122617
H	-0.1182623419	-1.5790261721	-3.6121084334	 0.115037
78.1713	91.3787	133.794	182.6302	203.2509	215.4492	234.4222	271.6871	330.8147	346.157	408.0469	491.3192	506.9105	583.3926	690.1234	752.9368	848.2661	863.0332	923.0722	949.0679	984.248	1001.5385	1007.7329	1051.7561	1074.3218	1095.1865	1159.5489	1183.8334	1183.8841	1201.729	1220.21	1242.2726	1261.9306	1278.1532	1290.6273	1350.8266	1384.607	1392.8842	1398.4066	1414.1567	1477.2608	1480.4587	1482.9961	1488.1023	1496.1816	1498.275	1507.7719	1509.9131	1531.8897	2967.2414	2977.5966	3000.7754	3025.5033	3040.292	3047.6688	3063.0252	3065.8286	3110.57	3113.4107	3114.6105	3116.874	3118.9818	3133.8785
COC1CCOC1(C)C	CO[C@H]1CCOC1(C)C	
InChI=1S/C7H14O2/c1-7(2)6(8-3)4-5-9-7/h6H,4-5H2,1-3H3	InChI=1S/C7H14O2/c1-7(2)6(8-3)4-5-9-7/h6H,4-5H2,1-3H3/t6-/m0/s1
