20
gdb 83646	2.37419	1.71917	1.27232	2.821	78.3	-0.2345	0.0633	0.2978	1066.4881	0.171641	-403.082384	-403.07423	-403.073286	-403.115161	31.683	
C	-0.6460818437	 1.3514664619	-0.0403861065	-0.417854
C	-0.0606567009	-0.0535817687	-0.0764880326	-0.082563
C	 1.1497387481	-0.3857920175	-1.0050023406	-0.104185
C	 2.3315963686	 0.6039590937	-1.0108256029	-0.084093
O	 2.9711989265	-0.0523466632	 0.1090831256	-0.286263
C	 1.9065811838	-1.0198444336	 0.2004732901	 0.033328
C	 0.7688415258	-0.5731917978	 1.1202501729	 0.340846
C	 0.8876376046	-0.0124047567	 2.4809539981	-0.296244
N	 0.2911787705	-1.3476121941	 2.2619994852	-0.372049
H	 0.1145333044	 2.1036730904	 0.1888117637	 0.125061
H	-1.1039675357	 1.6127915659	-1.0006057696	 0.118515
H	-1.4261448527	 1.4296583123	 0.7254847826	 0.115305
H	-0.86087055	-0.7725404621	-0.2949898065	 0.079958
H	 0.9352864285	-0.9036947519	-1.9384281092	 0.078716
H	 2.9584508	 0.5507527828	-1.9093147534	 0.1034
H	 2.1030283795	 1.6565010669	-0.8038029727	 0.100141
H	 2.2632212523	-2.0492016699	 0.2828069585	 0.08222
H	 1.8516030684	-0.014750637	 2.9812966115	 0.129252
H	 0.2345064581	 0.8131729521	 2.7534556973	 0.109946
H	-0.7241011461	-1.2884150238	 2.3204590085	 0.226563
62.6841	197.4693	208.2673	214.3865	246.0281	274.5505	400.4244	473.6885	531.956	546.6767	710.1698	773.2893	831.5777	849.8928	877.1538	908.9858	940.7914	948.822	982.634	1002.0901	1007.038	1013.8598	1039.1368	1088.702	1112.2658	1119.6232	1152.6891	1156.868	1179.7284	1199.9395	1253.5121	1265.2609	1266.519	1310.1025	1322.144	1345.4939	1372.0562	1406.8445	1417.2704	1493.4671	1496.2771	1515.1213	1523.7784	3015.8348	3017.7066	3029.793	3056.1048	3087.6026	3090.1311	3105.7723	3108.5751	3121.6796	3195.0432	3474.2851
CC1C2COC2C11CN1	C[C@H]1[C@H]2CO[C@H]2[C@]21CN2	
InChI=1S/C7H11NO/c1-4-5-2-9-6(5)7(4)3-8-7/h4-6,8H,2-3H2,1H3	InChI=1S/C7H11NO/c1-4-5-2-9-6(5)7(4)3-8-7/h4-6,8H,2-3H2,1H3/t4-,5+,6+,7+/m0/s1
