13
gdb 124032	4.81045	1.21192	1.03398	3.3087	66.9	-0.2597	-0.0968	0.1629	1081.1346	0.089633	-448.869148	-448.862169	-448.861224	-448.901321	24.862	
C	 0.3555307484	 1.5227537577	 0.1613392724	-0.169587
O	 1.1335661191	 0.4146937998	-0.2598237753	-0.20824
C	-0.2329260152	 0.1707880538	 0.0716181235	-0.009699
C	-0.4816274541	-0.6332122815	 1.2955137193	 0.419979
N	-1.4790228725	-1.5148093604	 1.2664627127	-0.269047
C	-1.6094157252	-2.1910270424	 2.4029373631	 0.111811
N	-0.8500970339	-2.0427832774	 3.4899776084	-0.167197
N	 0.1129503911	-1.1311329963	 3.4457989937	-0.048226
N	 0.3129052836	-0.4197845759	 2.3599256564	-0.212989
H	 0.6045526969	 1.9174337611	 1.1435324586	 0.147259
H	 0.1043057035	 2.2476511722	-0.6112088429	 0.130759
H	-0.8849272521	-0.0840475158	-0.7604087107	 0.121805
H	-2.3986755997	-2.9356007149	 2.4660777205	 0.153372
68.8983	127.5159	188.8363	301.1605	308.2806	412.2902	584.1506	623.6504	706.7223	817.8742	860.1153	881.3613	916.5052	949.6752	1003.0482	1012.46	1044.1699	1101.3137	1158.6678	1163.2297	1171.2153	1263.8516	1276.761	1319.7988	1408.187	1435.4238	1506.8972	1538.4183	1571.3858	3094.377	3152.5034	3178.8696	3196.5188
C1OC1C1=NC=NN=N1	C1O[C@H]1c1ncnnn1	
InChI=1S/C4H4N4O/c1-3(9-1)4-5-2-6-8-7-4/h2-3H,1H2	InChI=1S/C4H4N4O/c1-3(9-1)4-5-2-6-8-7-4/h2-3H,1H2/t3-/m1/s1
