18
gdb 29719	2.36069	1.63175	0.97854	1.8738	76.05	-0.1667	0.059	0.2257	1187.0499	0.147745	-435.313928	-435.304076	-435.303132	-435.348572	35.049	
C	 0.0002809895	 1.4634033401	 0.0170725315	-0.34705
N	 0.0314031793	 0.0180196888	 0.037316375	-0.10715
C	 0.0685791223	-0.8071162434	-1.031375213	 0.42628
O	 0.0739252031	-0.2970875598	-2.2795573951	-0.434346
N	 0.0907830656	-2.0777649143	-0.7200547319	-0.429125
C	 0.0773980299	-2.0895105019	 0.6641204145	 0.188186
N	 0.1465418266	-3.3093675889	 1.3587270177	-0.601964
C	 0.0513812108	-0.8192647606	 1.1742313851	 0.216012
C	 0.0587197189	-0.3019984191	 2.5693681149	-0.512844
H	 0.8920864496	 1.8858793167	 0.4928324639	 0.136567
H	-0.0332760098	 1.7960092403	-1.0204981064	 0.161365
H	-0.8845331349	 1.8441099788	 0.5381939711	 0.1355
H	 0.0934616652	-1.056713863	-2.8742512387	 0.31122
H	 0.0549580994	-4.0756100243	 0.7029495894	 0.243
H	-0.5702770737	-3.3987590092	 2.0683319246	 0.237864
H	 0.8515399319	 0.4384675549	 2.7389427623	 0.122252
H	-0.8888496716	 0.1670862982	 2.8703774427	 0.117772
H	 0.2465211078	-1.1322464333	 3.2559052222	 0.136462
87.2607	105.4253	125.3748	160.7287	192.0925	246.0637	270.4334	283.0979	319.885	347.7885	391.9563	566.1066	603.5146	633.5241	670.5265	714.5077	733.1753	810.546	883.1182	997.5365	1064.0771	1079.2885	1140.9713	1152.8577	1197.4896	1245.6792	1304.2297	1353.3807	1410.975	1437.0235	1457.0338	1477.8031	1490.3711	1494.6618	1513.109	1593.2376	1603.8083	1642.5994	1679.9515	2996.6539	3031.7045	3037.5879	3084.3717	3108.2834	3154.847	3527.6777	3617.5442	3812.5681
CN1C(O)=NC(N)=C1C	Cn1c(O)nc(N)c1C	
InChI=1S/C5H9N3O/c1-3-4(6)7-5(9)8(3)2/h6H2,1-2H3,(H,7,9)	InChI=1S/C5H9N3O/c1-3-4(6)7-5(9)8(3)2/h6H2,1-2H3,(H,7,9)
