22
gdb 114525	2.4604	1.44858	1.08534	1.4464	82.15	-0.2099	0.0607	0.2706	1215.4824	0.194344	-404.288546	-404.27943	-404.278486	-404.322838	34.17	
C	 0.2566464284	 1.7077087359	-0.3064574367	-0.24114
O	-0.298728396	 0.4299675753	-0.5301720336	-0.235527
C	 0.566962046	-0.4325220219	-1.2203901444	 0.127783
C	 1.7191516084	-1.1180608192	-0.4267608966	-0.217718
N	 1.2057677228	-2.4772616614	-0.7816874841	-0.123735
C	 0.2691255075	-3.0262934003	 0.2531089919	-0.194782
C	-0.9742005857	-2.5811862733	-0.5660251956	 0.034245
C	-2.1162498614	-1.8633224547	 0.1399421281	-0.408969
C	 0.0233112246	-1.8531852552	-1.5090958527	-0.050455
H	 1.1555548043	 1.6619270551	 0.3264455731	 0.110293
H	 0.5268764362	 2.2002264832	-1.2536060362	 0.107578
H	-0.5012468614	 2.3075432698	 0.2026278376	 0.129279
H	 0.9246628426	 0.0619732301	-2.1370341722	 0.067722
H	 2.7275593699	-0.9397368196	-0.8131754147	 0.100444
H	 1.7091127585	-0.9052281562	 0.6485531967	 0.101224
H	 0.387203373	-4.1039605091	 0.403635974	 0.099627
H	 0.3627048096	-2.5309442986	 1.2281184643	 0.0941
H	-1.3809745998	-3.4364945832	-1.1159300135	 0.079621
H	-1.7550633354	-1.0232648281	 0.7340605939	 0.131915
H	-2.8428669542	-1.4718898794	-0.5799870316	 0.113378
H	-2.6450436741	-2.5610487346	 0.7995964859	 0.104891
H	-0.0850741437	-2.0805828146	-2.5739907137	 0.070227
46.8202	107.6793	135.9292	193.9506	227.3195	270.291	322.5836	364.5958	399.1117	438.8582	574.8239	634.2614	736.3264	765.6907	845.3416	868.5092	906.2952	936.0552	956.7111	1013.2566	1018.4375	1029.2723	1057.8319	1115.3119	1124.79	1168.1724	1172.6404	1183.2055	1198.6866	1202.4224	1217.9927	1235.0345	1270.0976	1290.2217	1298.6003	1313.3731	1356.3371	1370.7756	1403.8114	1413.4158	1480.6256	1485.1237	1487.0884	1491.9132	1500.4548	1509.6985	1515.291	2970.1376	2978.8217	3016.573	3023.9557	3029.0672	3032.0323	3038.0389	3056.2262	3073.4694	3081.1522	3090.6555	3117.5665	3144.4001
COC1CN2CC(C)C12	CO[C@H]1CN2C[C@@H](C)[C@@H]12	
InChI=1S/C7H13NO/c1-5-3-8-4-6(9-2)7(5)8/h5-7H,3-4H2,1-2H3	InChI=1S/C7H13NO/c1-5-3-8-4-6(9-2)7(5)8/h5-7H,3-4H2,1-2H3/t5-,6+,7+/m1/s1
