18
gdb 36744	6.40478	0.6304	0.59199	2.9885	82.83	-0.25	0.0227	0.2727	1840.7333	0.146129	-401.90915	-401.899803	-401.898858	-401.94497	33.073	
C	-0.2738908703	-1.1329547658	-0.3668431991	-0.452107
C	 0.5335746786	-0.3316916721	 0.0219829504	 0.298772
C	 1.4896410169	 0.6674068972	 0.4805385718	-0.336199
C	 1.0296662473	 2.1077555378	 0.1804120375	-0.167878
N	 2.0674509696	 3.0408295581	 0.6007075959	-0.328302
C	 1.7407477792	 4.1043608632	 1.1700086022	 0.462594
C	 2.4882818504	 5.2860547407	 1.7510706065	-0.374071
C	 1.0742958191	 5.7920176994	 2.1027472695	-0.07657
O	 0.4867908495	 4.6027852365	 1.4925144267	-0.259687
H	-0.9778057383	-1.8515178792	-0.7060116042	 0.191974
H	 1.6518818234	 0.5627725466	 1.5602984987	 0.129887
H	 2.4654395184	 0.5076089628	 0.0071755006	 0.138147
H	 0.8824065255	 2.2092626461	-0.9015905479	 0.120843
H	 0.0614779579	 2.2969067766	 0.6596399767	 0.122179
H	 3.1397392077	 5.0482384337	 2.593432155	 0.139874
H	 3.0401019946	 5.8805493296	 1.0211433025	 0.140757
H	 0.8303438988	 5.8465623053	 3.1663995409	 0.124797
H	 0.7403150216	 6.6975106432	 1.5908163063	 0.124994
30.0643	60.7466	92.0782	148.6519	196.6366	224.7081	340.438	355.6702	445.5515	559.5031	573.5008	614.6124	639.3819	756.5803	788.6096	790.6424	905.3887	960.2624	972.0646	999.7771	1033.6928	1056.2471	1069.4969	1073.8095	1137.7324	1159.164	1200.0367	1216.3193	1242.9758	1293.7102	1313.6639	1350.8189	1388.759	1467.5458	1473.5827	1497.889	1521.8351	1843.264	2238.4977	3020.5687	3033.1012	3054.1124	3064.6269	3077.0984	3088.6011	3118.1382	3144.4455	3508.401
C#CCCN=C1CCO1	C#CCCN=C1CCO1	
InChI=1S/C7H9NO/c1-2-3-5-8-7-4-6-9-7/h1H,3-6H2	InChI=1S/C7H9NO/c1-2-3-5-8-7-4-6-9-7/h1H,3-6H2
