13
gdb 123516	4.18979	1.74676	1.2328	2.7526	74.97	-0.2293	-0.0826	0.1467	906.3343	0.09303	-411.797278	-411.791484	-411.79054	-411.827384	23.014	
C	-0.0213949014	 1.2924458503	 0.0095372319	 0.029947
N	 1.1855977723	 1.8310220094	 0.0010100559	-0.256457
C	 2.0820262812	 0.8049487176	-0.0134671439	-0.186291
C	 1.4209215388	-0.4101966266	-0.0137618561	 0.389828
C	 1.6774058312	-1.7912890313	-0.0239346461	-0.253394
C	 0.5970889999	-2.6253842519	-0.017869237	 0.026869
N	-0.7090222462	-2.1816777046	-0.0025104118	-0.184339
N	-0.9970357082	-0.9441485997	 0.0071682149	-0.083948
N	 0.0536522856	-0.0650436163	 0.0016467914	-0.04038
H	-0.9658413489	 1.8118700882	 0.021516669	 0.157586
H	 3.1470162777	 0.9785604673	-0.0228890034	 0.1279
H	 2.692791905	-2.1695375215	-0.0360085253	 0.13659
H	 0.6943248929	-3.7030602707	-0.0247558896	 0.136088
204.1526	224.2021	411.8121	412.7599	574.9305	615.6608	626.7423	671.7159	756.2322	764.3921	806.4142	827.6456	849.0311	920.556	924.741	982.411	1029.2506	1138.8456	1180.9977	1204.9004	1240.3095	1285.7721	1291.3087	1391.8856	1403.8096	1450.2132	1486.1209	1554.2331	1641.0767	3204.8994	3225.6161	3254.1038	3278.8427
C1=NC=C2C=CN=NN12	c1ncc2ccnnn12	
InChI=1S/C5H4N4/c1-2-7-8-9-4-6-3-5(1)9/h1-4H	InChI=1S/C5H4N4/c1-2-7-8-9-4-6-3-5(1)9/h1-4H
