17
gdb 16681	4.32753	1.69662	1.59221	3.8278	68.09	-0.2367	0.0234	0.2602	866.6546	0.144271	-363.87433	-363.867546	-363.866602	-363.904934	27.072	
C	-0.1528864407	 1.5578086359	 0.0108873408	-0.436366
C	 0.0057411611	 0.0441388513	 0.0159909356	 0.057085
C	 1.1326345136	-0.602874007	-0.8481967066	-0.020974
C	 2.1319203776	-0.2483497745	 0.2917217101	-0.24152
C	 0.8708585107	-0.5977350692	 1.1655956616	-0.163592
C	 0.7597258151	-2.0873499204	 0.8038815096	 0.411733
O	 0.6781490473	-3.0639968673	 1.5042151481	-0.375543
N	 0.8328524689	-2.0311276454	-0.5930799091	-0.316271
H	 0.7829832155	 2.0962633201	 0.1806792095	 0.120759
H	-0.5611267916	 1.8948578039	-0.9482928029	 0.122159
H	-0.8559010244	 1.8647790647	 0.7922789257	 0.126736
H	-0.9685522802	-0.4302444115	-0.134818309	 0.087338
H	 1.29252224	-0.3667866539	-1.8996106405	 0.079004
H	 3.0135409375	-0.8857240908	 0.3975163051	 0.106034
H	 2.4199292548	 0.8017790156	 0.3404530731	 0.110167
H	 0.7707879368	-0.342218074	 2.2178395914	 0.085938
H	 1.3231479078	-2.7651935974	-1.0840861525	 0.247315
170.0078	191.087	254.7713	325.2465	408.8965	485.5344	490.8483	535.8114	658.6547	734.1609	798.1204	808.5986	849.5476	869.0687	897.8312	969.4622	1000.3958	1019.1313	1059.3191	1079.8137	1099.7557	1102.6488	1117.622	1182.2951	1212.2036	1236.1408	1249.2912	1263.2629	1306.3819	1359.8719	1394.0518	1414.8544	1493.2576	1496.1593	1517.0031	1866.0515	3036.4975	3061.8852	3071.9205	3096.1367	3115.8816	3126.0741	3141.1929	3152.9911	3607.9099
CC1C2CC1C(=O)N2	C[C@H]1[C@H]2C[C@@H]1C(=O)N2	
InChI=1S/C6H9NO/c1-3-4-2-5(3)7-6(4)8/h3-5H,2H2,1H3,(H,7,8)	InChI=1S/C6H9NO/c1-3-4-2-5(3)7-6(4)8/h3-5H,2H2,1H3,(H,7,8)/t3-,4+,5-/m1/s1
