19
gdb 78554	3.20199	1.23309	1.02668	3.0073	76.48	-0.2492	0.0691	0.3183	1205.7537	0.157277	-422.970376	-422.961665	-422.960721	-423.003283	33.686	
C	-0.0606444936	 1.4465326749	-0.0217821181	-0.430126
C	 0.0653001837	-0.0621450598	-0.0537868293	-0.072922
C	 0.7649104388	-0.6778679434	-1.2590654093	-0.232668
C	 1.437085286	-0.6595188468	 0.1131184682	 0.388337
O	 2.5435984486	 0.0833749112	 0.4818829753	-0.458376
C	 1.3678980999	-2.1962270917	 0.2028524262	-0.399744
C	 0.6571915223	-2.183062563	-1.1658148435	 0.478658
C	-0.3104808049	-3.105608941	-1.7605239662	-0.272846
O	 1.0545213516	-3.0443927901	-2.2147291979	-0.281224
H	 0.8357757231	 1.925393429	-0.4242846978	 0.134004
H	-0.9217430337	 1.7813504658	-0.608961939	 0.121283
H	-0.1990818262	 1.8084021538	 1.0035119507	 0.112349
H	-0.7877756947	-0.5971591918	 0.3652890473	 0.07611
H	 0.9796869732	-0.1069838581	-2.1541034499	 0.102311
H	 2.4451219898	 0.3414539327	 1.4054793647	 0.287253
H	 2.3582930745	-2.6480458723	 0.1050377993	 0.128057
H	 0.8417885932	-2.6323202417	 1.0588288049	 0.093104
H	-0.5831232373	-4.0229367854	-1.2399626561	 0.112872
H	-1.0523114443	-2.7343874523	-2.4666888094	 0.113567
109.1998	180.7304	198.1637	211.898	255.3395	272.4248	341.8162	385.6776	422.4363	439.9062	477.2365	584.8279	688.9642	769.4462	829.9284	840.6205	882.4176	926.2864	961.2271	973.5709	988.5322	1037.4634	1073.2021	1099.0648	1122.8335	1127.1026	1139.3124	1161.5432	1170.2643	1210.0777	1222.125	1244.3496	1303.2956	1367.1023	1413.221	1433.3974	1438.9003	1481.5686	1494.0553	1506.7049	1537.9986	3032.2463	3042.1355	3078.4326	3086.5313	3090.855	3113.1982	3121.2771	3164.6463	3195.6126	3787.2912
CC1C2C1(O)CC21CO1	C[C@H]1[C@H]2[C@]1(O)C[C@]12CO1	
InChI=1S/C7H10O2/c1-4-5-6(3-9-6)2-7(4,5)8/h4-5,8H,2-3H2,1H3	InChI=1S/C7H10O2/c1-4-5-6(3-9-6)2-7(4,5)8/h4-5,8H,2-3H2,1H3/t4-,5+,6+,7-/m0/s1
