17
gdb 64686	4.66133	0.86267	0.82013	2.2539	77.96	-0.3023	-0.0012	0.3011	1374.8129	0.135171	-380.895373	-380.886206	-380.885262	-380.929624	33.039	
C	-0.0727380199	 1.6767438355	 0.1847786891	-0.471795
C	-0.0569852892	 0.1669707336	 0.0622532459	 0.330066
C	-1.3740185649	-0.4538415834	-0.4048966487	-0.410914
C	-1.7302444777	-0.0414299286	-1.7641252824	 0.276554
N	-1.9959533312	 0.2932564804	-2.8374646031	-0.303616
C	 1.2126216709	-0.5236561676	-0.3370167868	-0.305347
C	 0.7077385987	-0.6616002169	 1.094908996	-0.240111
C	 1.4066598744	-0.0173785178	 2.1706466467	 0.294836
N	 1.9647584175	 0.5055112761	 3.0388300316	-0.335229
H	 0.8834065354	 2.0557848706	 0.5518547396	 0.14784
H	-0.2727919412	 2.1340164096	-0.7891296858	 0.150045
H	-0.8512298051	 2.0053394448	 0.8817312445	 0.133402
H	-1.3155009868	-1.5476111002	-0.3832686975	 0.152874
H	-2.1879830822	-0.1654436813	 0.2709800491	 0.162283
H	 1.1610047804	-1.411755028	-0.9569899203	 0.137054
H	 2.0936053722	 0.0872723198	-0.4939383036	 0.147837
H	 0.2785737087	-1.6202341165	 1.3687343656	 0.13422
58.668	98.363	144.713	177.0652	213.5261	300.6425	339.3565	358.3963	386.5124	396.3569	480.0292	551.7802	635.9282	725.4361	809.6179	862.1355	909.5343	938.4315	955.7467	975.9584	1004.4375	1085.2359	1088.9013	1111.7265	1135.7164	1211.2721	1259.2761	1332.7173	1354.3684	1402.6162	1428.1375	1459.592	1484.4374	1492.9384	1503.7951	2354.2255	2364.1042	3039.2875	3041.6253	3080.9251	3106.4793	3131.0767	3144.5699	3161.4018	3236.0115
CC1(CC#N)CC1C#N	C[C@@]1(CC#N)C[C@H]1C#N	
InChI=1S/C7H8N2/c1-7(2-3-8)4-6(7)5-9/h6H,2,4H2,1H3	InChI=1S/C7H8N2/c1-7(2-3-8)4-6(7)5-9/h6H,2,4H2,1H3/t6-,7+/m0/s1
