15
gdb 131366	3.43417	1.58127	1.08997	1.9884	74.57	-0.2068	-0.0159	0.1909	1032.4083	0.115781	-416.834228	-416.827328	-416.826384	-416.865243	27.501	
O	 0.0898520043	 1.3490810632	 0.0144073884	-0.431884
C	 0.0726878461	-0.0004050484	 0.062483556	 0.262408
N	 0.0771783743	-0.7278916448	-1.0545691128	-0.341064
N	 0.0560062088	-2.0273240468	-0.6237065203	-0.364009
C	 0.0389600613	-2.0966207567	 0.7224974402	 0.385609
C	 0.0490040078	-0.8030557837	 1.2140118362	 0.143481
C	 0.0301359066	-0.8579268134	 2.7122514117	-0.430408
C	 0.008558831	-2.3602461792	 2.9628450826	-0.074792
C	 0.0138156495	-3.0620495562	 1.8094695807	-0.196689
H	 0.1040495297	 1.5940889963	-0.919509312	 0.300343
H	 0.0552741489	-2.7620817263	-1.307988757	 0.269466
H	 0.9076116382	-0.3923151214	 3.180561714	 0.134045
H	-0.8466806232	-0.370632348	 3.1592486053	 0.134052
H	-0.008718905	-2.7864212852	 3.957890384	 0.1045
H	 0.0017135916	-4.1390839496	 1.7103180331	 0.104942
175.6605	229.4486	280.8377	331.5701	376.4495	419.9262	482.7422	537.5243	627.6782	658.3178	681.1447	691.6179	753.0763	821.4068	861.5299	927.2225	933.1363	941.455	1077.5691	1094.5288	1136.5007	1141.6815	1192.2923	1238.1038	1307.1609	1321.4505	1375.0041	1419.4117	1444.0421	1557.4191	1566.2496	1587.7425	1628.7581	3025.1235	3049.3182	3210.2115	3233.1786	3693.0641	3792.3023
OC1=NNC2=C1CC=C2	Oc1n[nH]c2c1CC=C2	
InChI=1S/C6H6N2O/c9-6-4-2-1-3-5(4)7-8-6/h1,3H,2H2,(H2,7,8,9)	InChI=1S/C6H6N2O/c9-6-4-2-1-3-5(4)7-8-6/h1,3H,2H2,(H2,7,8,9)
