15
gdb 18321	3.56478	2.27491	1.61257	4.1426	61.8	-0.2568	0.004	0.2609	789.0956	0.121157	-399.789203	-399.782756	-399.781812	-399.820257	23.979	
N	-0.0400343768	 1.1711925268	 0.3029555788	-0.530666
C	-0.0140705925	-0.064224386	 0.0534177438	 0.40749
O	 1.1126451797	-0.8420864433	 0.0250107944	-0.241923
C	 0.8609880456	-2.0937675108	-0.6378987896	-0.103995
C	-0.6556829097	-2.3001184099	-0.6299486684	-0.108663
C	-1.2841057228	-2.791040006	 0.6901848037	-0.07785
O	-1.7803451251	-1.4710564664	 1.0018805806	-0.281141
C	-1.2285126108	-0.9261110275	-0.2189386515	 0.04809
H	 0.9028508707	 1.5253599287	 0.4773815269	 0.225009
H	 1.2536201318	-2.0331640269	-1.6599987292	 0.117144
H	 1.4085903229	-2.8730945022	-0.1002943817	 0.123166
H	-1.0288066591	-2.7671012602	-1.5400532543	 0.09712
H	-2.1011800514	-3.5133251701	 0.5808605884	 0.110457
H	-0.5773947691	-3.1580996184	 1.4451674248	 0.10973
H	-1.9801207334	-0.4171088876	-0.8249256966	 0.106032
84.9205	128.0377	252.2798	350.983	424.937	598.9884	689.2412	707.1749	800.9094	853.8032	886.9321	900.4341	910.3494	951.0149	983.9284	999.988	1031.1756	1078.5325	1112.92	1133.4338	1164.8305	1206.8758	1244.9342	1252.8061	1291.0267	1316.4545	1336.9995	1356.0608	1412.7093	1516.7747	1525.6303	1779.4148	3017.2407	3032.2326	3063.5895	3090.4618	3101.3233	3127.6927	3464.627
N=C1OCC2COC12	[NH][C]1OC[C@H]2CO[C@@H]12	
InChI=1S/C5H7NO2/c6-5-4-3(1-7-4)2-8-5/h3-4,6H,1-2H2	InChI=1S/C5H7NO2/c6-5-4-3(1-7-4)2-8-5/h3-4,6H,1-2H2/t3-,4-/m1/s1
