18
gdb 71465	4.1146	1.20695	1.09257	4.7802	82.01	-0.2661	0.0242	0.2903	1140.1645	0.148374	-364.789572	-364.781849	-364.780904	-364.821462	30.583	
C	 0.0283137273	 1.5507821655	 0.0533756515	-0.50512
C	 0.0478234187	 0.0466225552	 0.0659946181	 0.299415
C	-1.2603773844	-0.7846481566	 0.2504780671	-0.274585
C	-0.3740292874	-1.8672787748	 0.8541530546	-0.100848
C	 0.7145051888	-0.8867164882	 1.1718936149	-0.160564
C	 0.9393278365	-1.8674140896	 0.0274426949	 0.23041
C	 0.8214413857	-0.7573694175	-1.0185422774	-0.324737
C	 1.8033440444	-2.9980695888	 0.0070026167	 0.166419
N	 2.5116182655	-3.9138521004	-0.0225260713	-0.35477
H	 1.0423200858	 1.9632392193	 0.0228169046	 0.124291
H	-0.5093208451	 1.9215121362	-0.8273285505	 0.126465
H	-0.4720757826	 1.9507148853	 0.9416241111	 0.12302
H	-1.9071073152	-0.3443615634	 1.0148734153	 0.108404
H	-1.8465639607	-1.0118525713	-0.6466296824	 0.099798
H	-0.6547685909	-2.7520448168	 1.4098644439	 0.110989
H	 1.308333284	-0.7089801565	 2.0566389089	 0.111919
H	 0.3001370424	-0.9776089767	-1.9562103849	 0.104366
H	 1.7997155272	-0.317783011	-1.2292822953	 0.115128
131.6998	148.7432	215.3244	277.3653	298.5493	407.6934	442.3835	502.2773	544.3329	565.1477	615.9924	731.946	746.3755	817.4804	855.1343	896.0486	903.7355	954.6499	972.205	998.2626	1011.0056	1035.7713	1082.7958	1123.5635	1133.4257	1152.8573	1188.1725	1199.3914	1234.623	1248.4785	1272.6287	1352.4986	1376.5564	1418.2622	1486.9838	1491.808	1493.7127	1510.1518	2343.8235	3026.2244	3037.9778	3045.6785	3091.3588	3097.3191	3100.586	3108.6768	3209.0087	3229.9026
CC12CC3C1C3(C2)C#N	C[C@]12C[C@@H]3[C@H]1[C@@]3(C2)C#N	
InChI=1S/C8H9N/c1-7-2-5-6(7)8(5,3-7)4-9/h5-6H,2-3H2,1H3	InChI=1S/C8H9N/c1-7-2-5-6(7)8(5,3-7)4-9/h5-6H,2-3H2,1H3/t5-,6-,7-,8+/m1/s1
