19
gdb 51557	2.90833	1.07968	0.90819	4.0071	77.25	-0.2688	0.0024	0.2711	1323.3032	0.158036	-423.018358	-423.009485	-423.008541	-423.05313	32.172	
O	 0.1624313697	 0.16055524	-0.4063442071	-0.274165
C	 0.25593004	 1.3502931738	-0.4422848591	 0.175533
O	 1.0356732181	 2.0449385457	 0.4118637928	-0.182336
C	 1.0482364203	 3.4519763035	 0.2487969113	 0.044087
C	 2.1835981516	 4.1658479507	 0.9140798705	-0.390069
C	 2.126728885	 4.0797843397	-0.587352095	 0.329504
C	 3.0583741279	 3.3209213961	-1.5410098837	-0.293304
C	 2.5757419747	 4.2631568918	-2.6847637959	-0.201506
C	 1.9106308122	 5.1909347954	-1.6239241354	-0.294409
H	-0.2820965362	 2.0010284765	-1.1588167983	 0.077686
H	 0.0578238892	 3.9012019921	 0.2647731213	 0.107404
H	 1.9761075812	 5.11368739	 1.4003440102	 0.12062
H	 2.9120054836	 3.541146287	 1.4211812879	 0.134905
H	 4.1150039277	 3.4587302273	-1.2935214909	 0.109594
H	 2.8717454272	 2.2511766946	-1.6634153422	 0.116909
H	 3.3516038181	 4.7125306497	-3.3071190369	 0.105101
H	 1.8429007789	 3.7840241204	-3.338343235	 0.107719
H	 0.878066801	 5.5003294879	-1.8102095794	 0.099388
H	 2.5056800299	 6.0843031278	-1.4101449048	 0.10734
43.1382	82.8472	122.4668	132.5459	215.3951	300.9544	315.0516	424.6133	477.3936	568.0894	645.5901	716.4021	781.5492	842.7633	862.0893	884.9164	896.7126	936.9217	953.8764	1034.1255	1049.389	1051.7669	1081.6723	1098.8442	1140.4117	1156.9417	1184.4615	1191.6588	1225.461	1230.8518	1254.6393	1273.4581	1282.5887	1336.3711	1402.4586	1431.0668	1477.9485	1479.6825	1486.703	1507.807	1867.8899	2950.1104	3046.2133	3057.0445	3070.309	3091.7393	3104.1943	3126.0031	3127.1015	3131.6462	3216.1043
O=COC1CC11CCC1	O=CO[C@H]1CC21CCC2	
InChI=1S/C7H10O2/c8-5-9-6-4-7(6)2-1-3-7/h5-6H,1-4H2	InChI=1S/C7H10O2/c8-5-9-6-4-7(6)2-1-3-7/h5-6H,1-4H2/t6-/m0/s1
