17
gdb 112471	3.73241	1.07347	0.86217	2.429	71.41	-0.2568	-0.0303	0.2264	1279.1636	0.137987	-455.193823	-455.18574	-455.184796	-455.226828	30.362	
O	 0.0768280509	 1.3986125578	 0.11744874	-0.423773
C	 0.0625817503	 0.0035448452	-0.0622167447	-0.057897
C	-1.3707175759	-0.542111928	-0.0157198843	 0.007724
C	-1.4277308641	-2.0687052956	-0.1590635727	-0.348799
C	-2.8088531362	-2.6212233617	 0.1400855422	 0.410624
O	-3.2884672437	-3.6197157133	-0.3418550008	-0.34134
N	-3.4843603102	-1.8782440387	 1.1041451701	-0.334521
C	-2.9684950441	-0.71922003	 1.6737302941	 0.091961
N	-1.9826699709	-0.0581494313	 1.2267783583	-0.259469
H	-0.5074422601	 1.5608351388	 0.8711639365	 0.291074
H	 0.516470962	-0.2087847262	-1.0362566808	 0.106259
H	 0.6608329468	-0.514789845	 0.7073888637	 0.082136
H	-1.9263072386	-0.0749534811	-0.84327353	 0.102919
H	-1.1314268474	-2.4028134557	-1.1553765305	 0.141529
H	-0.7378340613	-2.533509177	 0.5599715274	 0.13618
H	-4.3503472463	-2.2706662009	 1.4450755899	 0.26338
H	-3.4931158312	-0.3874569274	 2.5689456816	 0.132011
87.4324	124.3132	150.0083	205.9506	351.457	362.3527	445.1841	494.6536	509.8391	553.0493	568.9105	608.8081	675.0893	783.6588	840.6008	886.3455	939.1354	955.8792	1059.2663	1076.5389	1098.8057	1106.0901	1114.0349	1191.2712	1234.7136	1266.225	1275.6862	1347.1288	1360.9421	1383.9388	1418.2831	1447.8727	1449.6192	1459.7332	1507.1218	1738.7095	1829.0815	2952.9042	2994.8221	3022.155	3070.6799	3117.779	3141.3902	3613.5115	3748.4925
OCC1CC(=O)NC=N1	OC[C@H]1CC(=O)NC=N1	
InChI=1S/C5H8N2O2/c8-2-4-1-5(9)7-3-6-4/h3-4,8H,1-2H2,(H,6,7,9)	InChI=1S/C5H8N2O2/c8-2-4-1-5(9)7-3-6-4/h3-4,8H,1-2H2,(H,6,7,9)/t4-/m1/s1
