14
gdb 34813	4.27012	1.33911	1.2605	4.1195	64.21	-0.2679	0.0139	0.2818	968.9214	0.102011	-436.623357	-436.616951	-436.616007	-436.654207	25.334	
N	-0.029069134	-1.1542796296	-0.0535322957	-0.319288
C	-0.0246370545	 0.0010166175	-0.0268815619	 0.279244
C	-0.0558238216	 1.4512505129	-0.0306841841	-0.169522
C	-0.0477021721	 2.0879926833	 1.3935096707	 0.024764
O	 1.3887339045	 1.800006749	 1.4669693394	-0.290661
C	 1.3546898759	 2.1145860135	 0.0346420275	 0.024753
C	 1.0261260622	 3.6302354385	 0.0782821534	 0.026534
O	-0.3283225304	 3.9621693566	-0.2627687414	-0.235129
C	-0.0234415638	 3.6103319947	 1.0952769648	 0.026538
H	-0.7682176101	 1.8367765428	-0.7583505343	 0.151017
H	-0.6268110405	 1.7019075001	 2.228950328	 0.111556
H	 2.2152530108	 1.7558057879	-0.5249088519	 0.111551
H	 1.7759244503	 4.3997114632	-0.0595058137	 0.129321
H	-0.1996717566	 4.3622486395	 1.8547771491	 0.129322
147.4917	158.7235	348.1239	389.4304	445.8067	538.1105	575.7752	605.6508	707.566	796.0659	856.8668	857.1275	870.5124	891.9586	905.7268	944.2855	958.1216	990.6555	1051.9951	1075.3297	1076.7454	1164.3937	1191.3932	1209.8192	1237.4938	1248.4498	1278.835	1297.9535	1340.9584	1400.0383	2364.2581	3133.3663	3160.0234	3161.1715	3192.8336	3204.5676
N#CC1C2OC1C1OC21	N#C[C@H]1[C@H]2O[C@@H]1[C@H]1O[C@@H]21	
InChI=1S/C6H5NO2/c7-1-2-3-5-6(9-5)4(2)8-3/h2-6H	InChI=1S/C6H5NO2/c7-1-2-3-5-6(9-5)4(2)8-3/h2-6H/t2-,3+,4-,5-,6+
