21
gdb 79468	2.44161	1.81503	1.44687	1.3271	81.43	-0.245	0.0762	0.3212	1015.5481	0.18397	-387.061645	-387.053815	-387.052871	-387.093368	32.301	
C	-0.2212305328	 1.635930745	 0.0742424437	-0.443263
C	 0.0221409005	 0.134876582	 0.0003804978	-0.013845
C	 0.6640216006	-0.5529648672	-1.2147003678	-0.051209
C	 2.2444871029	-0.3107888892	-1.2240648546	-0.039388
C	 2.4236455107	-1.847545037	-1.0789917796	-0.24467
C	 1.0979267341	-1.7495233013	-0.3112438884	-0.06094
C	 1.187290246	-0.5851174136	 0.7606261687	 0.385818
O	 1.1011382048	-0.924073885	 2.1111431828	-0.496196
C	 2.4437966716	 0.1419593042	 0.2383616501	-0.285645
H	 0.6343777122	 2.2203497874	-0.2760979261	 0.116425
H	-1.0794350672	 1.9167723074	-0.5460783694	 0.116989
H	-0.4472584063	 1.9509212181	 1.1003716246	 0.108895
H	-0.9043016783	-0.4021910151	 0.2396425639	 0.072774
H	 0.1666730384	-0.6845435467	-2.1744306178	 0.063693
H	 2.7384173665	 0.2554865081	-2.0133555982	 0.059734
H	 2.2875310973	-2.3804661403	-2.0247199309	 0.094332
H	 3.325139828	-2.2127386493	-0.575933172	 0.089879
H	 0.4464043096	-2.5881599976	-0.0696457939	 0.069633
H	 1.2940915556	-0.1391305023	 2.6349732107	 0.276941
H	 3.3669681107	-0.2519009992	 0.6737244303	 0.094862
H	 2.4173505253	 1.2230963117	 0.3965271261	 0.08518
165.0669	186.1585	200.3589	253.6738	286.7562	363.0662	479.1484	494.5148	532.5735	607.3041	647.0743	714.2797	788.833	809.2125	841.4503	852.9306	890.7086	922.4771	947.0843	974.7804	997.0037	1004.2246	1034.7695	1046.3978	1074.9955	1093.7461	1121.0597	1143.071	1151.9967	1176.5783	1192.8868	1211.8755	1224.5461	1252.807	1261.9456	1274.6034	1300.8243	1330.5677	1369.4673	1402.1772	1412.1391	1489.7187	1493.5212	1501.188	1524.5559	3024.6132	3032.3737	3039.2619	3055.7649	3083.7587	3094.3707	3098.2145	3107.8132	3112.9589	3123.3608	3132.0149	3804.8814
CC1C2C3CC2C1(O)C3	C[C@H]1[C@H]2[C@@H]3C[C@H]2[C@@]1(O)C3	
InChI=1S/C8H12O/c1-4-7-5-2-6(7)8(4,9)3-5/h4-7,9H,2-3H2,1H3	InChI=1S/C8H12O/c1-4-7-5-2-6(7)8(4,9)3-5/h4-7,9H,2-3H2,1H3/t4-,5+,6+,7-,8+/m0/s1
