16
gdb 88359	2.1131	1.35359	0.93213	5.9425	73.9	-0.271	-0.0008	0.2701	1239.9425	0.124702	-396.926881	-396.917941	-396.916997	-396.961255	32.143	
N	 0.0931618581	 2.1796916723	 0.471024497	-0.515117
H	-0.4186221424	 2.4759905958	-0.3534555152	 0.243781
H	 1.435950573	 0.2700166054	 1.0169190348	 0.189425
H	 0.5668541019	 2.9964246654	 0.8443941101	 0.247582
C	-0.7981377569	 1.6093170168	 1.4477951736	-0.016996
C	-1.2893318042	 0.2119180447	 1.1751490919	-0.299061
C	-0.2767268925	 0.4455704378	 2.2667266448	 0.002627
C	 1.1650341928	-0.0102182325	 2.0435758576	-0.314773
C	 2.0872460844	 0.7010832947	 2.9427159458	 0.290609
N	 2.7860654793	 1.2996633182	 3.6400419066	-0.310394
C	 1.3087382313	-1.4661086961	 2.1866487489	 0.308175
N	 1.3938057076	-2.6139267277	 2.2772382669	-0.309613
H	-1.4848026338	 2.272326118	 1.9747194252	 0.095753
H	-2.2973180145	-0.0585380121	 1.4653367564	 0.131448
H	-0.9380603531	-0.2567486642	 0.2619550748	 0.133837
H	-0.6145793611	 0.3657983736	 3.2935907607	 0.122718
45.1721	113.9853	130.9816	164.3832	247.4177	308.2076	317.5171	388.7154	431.2245	481.2451	533.7034	586.2666	589.3396	799.0603	836.9426	856.8251	864.2682	912.5798	994.1933	1023.2591	1068.2407	1076.4531	1134.0218	1141.1349	1164.607	1237.5532	1239.6065	1271.1783	1323.2278	1387.3185	1419.2459	1486.052	1661.0366	2366.8643	2372.3719	3035.8436	3091.8176	3142.8878	3180.19	3232.8413	3501.7253	3578.4715
[NH3+]C1CC1[C-](C#N)C#N	N[C@H]1C[C@H]1C(C#N)C#N	
InChI=1S/C6H6N3/c7-2-4(3-8)5-1-6(5)9/h5-6H,1,9H2/q-1/p+1	InChI=1S/C6H7N3/c7-2-4(3-8)5-1-6(5)9/h4-6H,1,9H2/t5-,6-/m0/s1
