16
gdb 97418	4.00944	0.84301	0.72497	3.1745	70.16	-0.2588	-0.0167	0.2421	1525.6432	0.122457	-475.027534	-475.018523	-475.017579	-475.063087	30.638	
C	-0.0712208892	 1.3707673858	 0.2328587882	-0.318142
N	-0.0662903572	-0.0024259071	-0.2284834497	-0.197441
C	-1.0873517722	-0.693613405	-0.0056553026	 0.129321
O	-1.1303040205	-1.9892542719	-0.4272571346	-0.21052
C	-2.3065519906	-2.6943639508	-0.127417336	-0.06879
C	-2.2605947696	-4.1765871072	-0.5185352729	-0.108531
O	-2.491566847	-4.560285051	 0.8783746884	-0.233116
C	-2.4434689204	-3.2596961216	 1.3067800555	 0.436623
O	-2.4892361798	-2.8407491003	 2.4159307294	-0.310247
H	 0.7652631071	 1.5248634475	 0.9230900356	 0.136333
H	 0.0899760804	 2.0411559391	-0.6185272747	 0.132376
H	-1.0012215065	 1.6699132712	 0.7417964172	 0.103049
H	-1.9929236889	-0.3558809936	 0.5175842012	 0.096687
H	-3.2033115841	-2.1589738714	-0.4604430273	 0.124371
H	-3.0598114518	-4.5461436778	-1.1615785897	 0.136391
H	-1.2808011198	-4.5118121159	-0.860772648	 0.151636
30.0085	68.4018	102.963	175.6428	206.4585	229.3498	313.8348	329.7032	422.54	479.7945	575.9049	733.8719	762.1299	873.981	934.1028	962.6274	965.6994	1048.055	1087.0326	1119.8696	1135.5927	1141.5759	1157.122	1182.8049	1219.6407	1244.5848	1328.6248	1382.0231	1416.1158	1449.9628	1481.0209	1504.3724	1508.885	1786.0552	1945.9342	2977.07	3020.5313	3046.8362	3066.8006	3086.3723	3089.8628	3158.6432
CN=COC1COC1=O	CN=CO[C@H]1COC1=O	
InChI=1S/C5H7NO3/c1-6-3-9-4-2-8-5(4)7/h3-4H,2H2,1H3	InChI=1S/C5H7NO3/c1-6-3-9-4-2-8-5(4)7/h3-4H,2H2,1H3/t4-/m0/s1
