20
gdb 8361	5.20632	1.21135	1.18735	0.9951	76.27	-0.2465	0.0969	0.3434	1124.0716	0.177276	-348.955376	-348.947468	-348.946524	-348.9882	30.072	
C	-0.1142287318	 1.4823142778	 0.011227042	-0.385958
C	-0.007979876	-0.0326794511	 0.0024990365	-0.063793
O	-1.3230150431	-0.571208975	 0.0111645246	-0.297339
C	-1.3820733116	-1.9449493198	 0.0049814149	 0.45511
C	-0.8487298515	-2.9533111775	 1.0793613336	-0.280666
C	-1.5796321866	-3.7974357264	-0.002453099	-0.051455
C	-2.7127169372	-2.7290347602	 0.0115527313	-0.271243
C	-0.8656149802	-2.9428177869	-1.0873031593	-0.280668
H	 0.8823858556	 1.9339741812	 0.0046592135	 0.11379
H	-0.6612165625	 1.8337402543	-0.8682134051	 0.127218
H	-0.6454458075	 1.8246814642	 0.9038073733	 0.127212
H	 0.5345367824	-0.3786826605	-0.8906082505	 0.093936
H	 0.5500016569	-0.3878236862	 0.8823915916	 0.093923
H	 0.2342310917	-3.0852930498	 1.1502265931	 0.087567
H	-1.3179515106	-2.9069214541	 2.0657786003	 0.09092
H	-1.7022588715	-4.8775314583	-0.0067241103	 0.080025
H	-3.313518112	-2.6609264678	 0.9222207656	 0.091468
H	-3.3276462687	-2.6521357943	-0.8889290216	 0.091465
H	-1.3501528129	-2.8869242845	-2.0657923225	 0.090917
H	 0.2161024771	-3.0740076253	-1.176305542	 0.087571
64.3466	73.9518	154.1475	250.3053	343.269	380.6091	406.407	550.7872	553.1889	677.9655	772.5518	802.2766	821.3222	881.3968	911.7809	940.5787	957.5281	963.5696	983.4288	986.774	1082.6962	1092.3198	1096.9453	1130.1665	1132.5941	1140.6273	1159.7026	1187.6246	1187.7433	1227.3737	1231.8086	1239.4687	1296.2665	1311.4731	1400.8694	1429.2861	1484.1405	1494.193	1497.141	1500.4277	1526.2506	1557.2835	2979.8888	3010.221	3044.7843	3047.1516	3049.4141	3058.0037	3113.4674	3118.5314	3119.2887	3121.432	3122.4525	3147.8994
CCOC12CC(C1)C2	CCO[C@@]12C[C@@H](C1)C2	
InChI=1S/C7H12O/c1-2-8-7-3-6(4-7)5-7/h6H,2-5H2,1H3	InChI=1S/C7H12O/c1-2-8-7-3-6(4-7)5-7/h6H,2-5H2,1H3/t6-,7-
