16
gdb 7564	3.2312	1.7784	1.45626	3.0025	60.73	-0.2458	-0.0284	0.2174	901.2483	0.127593	-420.864374	-420.855758	-420.854814	-420.898435	30.144	
C	-0.6888692668	 1.3369943436	 0.030787485	-0.472759
C	 0.1827087424	 0.0968494986	 0.0133027992	 0.313505
O	 0.8572886269	-0.2389446804	 0.9594896215	-0.293433
C	 0.1405555199	-0.7524570015	-1.2622979059	 0.21681
O	-0.1423571234	 0.0078049299	-2.4174469374	-0.465883
C	 1.2375789132	-1.8372041664	-1.374376099	-0.1136
O	 0.2765509531	-2.8977963564	-1.1953714243	-0.265341
C	-0.8160521829	-1.9691528047	-1.1521443641	-0.086572
H	-0.7122297372	 1.7486830719	 1.0401029892	 0.142684
H	-0.2941346114	 2.087739979	-0.6618544518	 0.139129
H	-1.7012278468	 1.1068518131	-0.3161394006	 0.147022
H	 0.6178279645	 0.5668037921	-2.61329665	 0.28637
H	 1.7143214178	-1.8706412598	-2.3616719944	 0.096648
H	 1.984642273	-1.8216086825	-0.5763918709	 0.127167
H	-1.3993750826	-2.0557493509	-0.2281190706	 0.111853
H	-1.4767618796	-2.0437563856	-2.0242688659	 0.116399
34.2391	78.5842	118.741	212.3531	254.0075	282.5409	347.1562	379.304	443.789	544.7404	591.3779	632.4187	801.5771	885.1187	931.4808	966.0825	976.2228	1000.1496	1046.5014	1067.0507	1118.8547	1159.7558	1168.564	1225.1633	1287.5353	1308.6535	1324.6493	1375.1362	1383.1544	1452.9535	1468.8453	1488.14	1515.6711	1807.2802	3016.3957	3027.622	3045.6157	3073.4131	3101.5427	3105.1814	3157.9069	3801.3739
CC(=O)C1(O)COC1	CC(=O)C1(O)COC1	
InChI=1S/C5H8O3/c1-4(6)5(7)2-8-3-5/h7H,2-3H2,1H3	InChI=1S/C5H8O3/c1-4(6)5(7)2-8-3-5/h7H,2-3H2,1H3
