19
gdb 120336	3.29291	1.00084	0.95449	2.0882	70.99	-0.248	0.0791	0.3271	1307.7458	0.159361	-460.124427	-460.115758	-460.114814	-460.158648	31.658	
O	-0.113069836	 1.3833657525	 0.0073763761	-0.421497
C	-0.162424768	-0.0125387931	 0.2641533693	-0.066607
C	-1.4236087422	-0.5591299139	-0.3965513464	-0.203089
C	-1.5378349424	-2.0609451323	-0.269572496	-0.092689
C	-1.8760741727	-2.7456621977	 1.0439621707	 0.033769
O	-2.4299071296	-1.9227180353	 2.0493557529	-0.252024
C	-3.8157172978	-1.8604545672	 1.7579118224	 0.022143
O	-3.9463039752	-1.9510305462	 0.3502064306	-0.25018
C	-2.8716632066	-2.7616745955	-0.0732049729	 0.024326
H	 0.6475239126	 1.7467492641	 0.4696257546	 0.284577
H	 0.7269890355	-0.5227787689	-0.1425716839	 0.07614
H	-0.2003042352	-0.223819797	 1.3432292247	 0.101115
H	-2.2955853873	-0.074457675	 0.047974024	 0.122968
H	-1.4157125235	-0.2816975669	-1.456825633	 0.107307
H	-0.8390688497	-2.6323101187	-0.8788966424	 0.089617
H	-1.3332923584	-3.6120266724	 1.4068322404	 0.102131
H	-4.3475013393	-2.6948330789	 2.2467462079	 0.092727
H	-4.211363506	-0.8986499759	 2.0949733954	 0.124349
H	-3.1559427382	-3.6386395316	-0.6445865846	 0.104917
55.9253	97.0635	122.2226	188.6803	252.0211	257.4042	269.4694	405.382	535.1998	621.7511	729.8699	754.5455	771.384	803.4259	807.5926	922.8171	957.902	1002.659	1016.8899	1051.7902	1066.8839	1079.5697	1088.9282	1098.2325	1115.8101	1150.5084	1176.7708	1205.4162	1225.2386	1237.2354	1248.1274	1303.2384	1309.3757	1320.0612	1366.2919	1424.4292	1426.3996	1460.4614	1494.4724	1527.8367	1536.5611	2956.2621	2958.6914	3006.2461	3050.6396	3097.7493	3110.6031	3125.0227	3158.8591	3169.7233	3831.8548
OCCC1C2OCOC12	OCC[C@H]1[C@H]2OCO[C@@H]12	
InChI=1S/C6H10O3/c7-2-1-4-5-6(4)9-3-8-5/h4-7H,1-3H2	InChI=1S/C6H10O3/c7-2-1-4-5-6(4)9-3-8-5/h4-7H,1-3H2/t4-,5+,6-
