16
gdb 5728	4.79124	2.05247	1.48985	4.2875	69.94	-0.211	0.039	0.25	823.7298	0.135528	-342.834686	-342.828633	-342.827689	-342.864828	23.611	
C	 0.0134683409	 1.529398192	-0.0214550034	-0.211122
C	 1.517480536	 1.9031927292	-0.0061078883	-0.181331
N	 2.1060324802	 0.7337386782	 0.6310983149	-0.003688
C	 3.2901195005	 0.368828184	 1.1929994157	-0.022068
N	 3.266586604	-0.8941082775	 1.5697851034	-0.273752
C	 2.0170087463	-1.3666368587	 1.2256209045	-0.226751
C	 1.2818786935	-0.3684983662	 0.6399461197	 0.315404
C	-0.0253045648	-0.0272123764	-0.0100816215	-0.351251
H	-0.4596085912	 1.9115315482	 0.8876829786	 0.122636
H	-0.5088635955	 1.9639762238	-0.876306859	 0.111681
H	 1.9184219429	 2.0307188199	-1.0190803088	 0.123157
H	 1.724896426	 2.8151445219	 0.5596996343	 0.126707
H	 4.1184958414	 1.0506116445	 1.3133381535	 0.123603
H	 1.7295457984	-2.3868664613	 1.4285752456	 0.103417
H	-0.8948393083	-0.4106486912	 0.5298961459	 0.123436
H	-0.0805370903	-0.4257612804	-1.031286415	 0.119922
143.8623	208.3717	248.1885	429.7635	573.252	643.565	674.4783	719.1118	734.7178	792.3664	831.3433	865.3906	898.2715	919.1189	957.4854	1003.5216	1091.2598	1125.4858	1135.6146	1182.2196	1216.5554	1234.448	1247.3422	1285.4003	1305.6731	1334.3172	1342.2354	1399.759	1415.9631	1488.434	1497.3719	1502.6676	1530.207	1592.9829	3023.4201	3030.2127	3063.5395	3089.6264	3093.0446	3119.3364	3248.2664	3251.6199
C1CN2C=NC=C2C1	C1Cn2cncc2C1	
InChI=1S/C6H8N2/c1-2-6-4-7-5-8(6)3-1/h4-5H,1-3H2	InChI=1S/C6H8N2/c1-2-6-4-7-5-8(6)3-1/h4-5H,1-3H2
