19
gdb 41684	3.77795	1.49848	1.26504	1.1317	79.61	-0.2175	0.02	0.2375	1029.7169	0.162101	-385.89089	-385.884007	-385.883063	-385.921806	28.619	
C	 0.1923716735	 1.259094953	-0.3478139704	-0.101934
C	 1.4649757852	 1.8868072927	 0.2714975018	-0.253264
C	 2.1243949191	 0.7116484526	 0.9794114021	-0.123862
C	 2.3284316843	-0.5667431148	 0.1596676407	-0.184632
C	 3.0334766692	-1.6672991094	 0.8773503158	-0.078799
C	 2.3288009048	-2.1224485882	 1.91880166	-0.078564
C	 0.9904385141	-1.4264910155	 2.0583889146	-0.371513
C	 1.0658153844	-0.353233815	 0.9938258911	 0.48298
O	-0.1290762385	 0.1149959459	 0.4438862224	-0.305411
H	-0.6739584032	 1.9254674922	-0.3457801275	 0.109644
H	 0.3823910519	 0.9498595427	-1.3851842917	 0.100351
H	 2.0906953956	 2.3621015902	-0.4902258058	 0.104531
H	 1.2040170501	 2.6495812272	 1.0127828003	 0.109633
H	 2.774840794	 0.8992587202	 1.8273608155	 0.085994
H	 2.3593444478	-0.5064490141	-0.9238146391	 0.085481
H	 4.0130634118	-2.0274008979	 0.5824692633	 0.093543
H	 2.6532041987	-2.894911495	 2.6062513179	 0.093994
H	 0.152020986	-2.109261911	 1.8638638504	 0.119519
H	 0.8313195212	-1.0091210857	 3.0600320586	 0.112313
181.9778	211.9964	246.7516	315.9313	420.886	442.3436	493.2352	652.9857	701.101	707.6013	756.4951	785.3724	868.899	871.6582	912.577	927.4166	954.569	955.8311	972.6759	992.9428	1016.6061	1036.8091	1060.2644	1067.0063	1112.6659	1142.2398	1163.5407	1209.6125	1220.1393	1227.6824	1266.6436	1268.901	1311.8655	1337.9705	1366.6463	1396.0539	1410.5498	1476.8726	1494.7192	1522.9952	1661.7073	3003.2476	3018.8302	3045.2477	3053.3735	3083.5314	3096.6458	3154.8315	3160.7904	3183.0002	3209.8304
C1CC2C3C=CCC23O1	C1C[C@@H]2[C@H]3C=CC[C@@]23O1	
InChI=1S/C8H10O/c1-2-6-7-3-5-9-8(6,7)4-1/h1-2,6-7H,3-5H2	InChI=1S/C8H10O/c1-2-6-7-3-5-9-8(6,7)4-1/h1-2,6-7H,3-5H2/t6-,7-,8+/m1/s1
