18
gdb 32813	3.6852	1.07885	0.857	3.4151	75.39	-0.1852	0.0408	0.226	1335.147	0.148934	-439.104808	-439.096401	-439.095457	-439.138036	31.542	
C	 0.2901620567	 1.5125230308	 0.0986715591	-0.316093
N	 0.2496321286	 0.0539119983	 0.011707018	-0.303116
H	 1.3969958517	-1.2752940452	 0.8603114081	 0.294507
H	-0.6200484996	-0.2835226845	 0.4156957068	 0.233996
C	 0.3394563747	-0.4579615114	-1.370753703	-0.277279
C	 0.4930990903	-1.9478579444	-1.3458099245	 0.077608
C	 1.1061247588	-2.6349579323	-0.3346320383	 0.368696
O	 1.6437433788	-2.2284881608	 0.816015911	-0.416706
O	 1.1365563373	-3.9573592262	-0.573324968	-0.167717
C	 0.5267562305	-4.1460562359	-1.79490437	-0.025587
C	 0.1160898811	-2.9576439119	-2.2994842089	-0.287645
H	 1.2692637931	 1.8691927469	-0.2364887739	 0.133913
H	-0.4783135593	 2.0097991382	-0.5149791611	 0.107621
H	 0.1553223542	 1.8217756066	 1.1386011178	 0.127205
H	-0.5299738677	-0.1604577224	-1.9808949649	 0.098251
H	 1.2125452149	 0.0293108228	-1.8290756893	 0.117646
H	 0.4781651409	-5.1662179772	-2.132801692	 0.131375
H	-0.3929048049	-2.8058863214	-3.2395725869	 0.103326
78.642	131.1167	169.4209	250.3875	260.5983	297.3795	330.3899	373.3855	477.8433	608.3711	651.0003	697.4689	720.8023	747.2994	776.3083	814.7353	899.8342	909.2223	965.2456	1000.7065	1057.8201	1099.7871	1123.3334	1148.9346	1179.329	1187.7339	1249.3839	1289.1092	1299.5027	1368.6955	1418.1787	1456.8505	1471.4375	1491.7317	1508.8309	1516.032	1530.0919	1563.3303	1670.0588	2959.7372	2977.5055	3003.0295	3073.1754	3115.9407	3244.422	3298.0499	3412.0607	3500.3893
C[NH2+]CC1=C([O-])OC=C1	CNCc1c(O)occ1	
InChI=1S/C6H9NO2/c1-7-4-5-2-3-9-6(5)8/h2-3,7-8H,4H2,1H3	InChI=1S/C6H9NO2/c1-7-4-5-2-3-9-6(5)8/h2-3,7-8H,4H2,1H3
