18
gdb 30166	3.82569	1.35972	1.13528	3.5994	78.21	-0.1732	0.0344	0.2076	1095.937	0.151558	-398.160763	-398.153235	-398.152291	-398.192735	29.571	
C	 0.2124072856	 1.4713170794	 0.074395708	-0.393478
C	-0.0299490055	-0.0361310956	-0.0281069755	 0.051286
C	 0.6776903306	-0.6478405171	-1.3047014025	-0.367744
C	 1.881204492	-1.2407646745	-0.6570093286	 0.271772
C	 1.7579414184	-1.281316947	 0.6969188445	 0.323596
N	 0.5318922899	-0.767772905	 1.1538992691	-0.406928
N	 2.8078315845	-1.9011615794	 1.3065683555	-0.35293
C	 3.5841852948	-2.2553006553	 0.2930527913	-0.013915
N	 3.0638877133	-1.899204024	-0.9241806847	-0.376151
H	 1.2862654319	 1.6866062117	 0.0962557233	 0.12708
H	-0.2268943854	 1.9967844919	-0.7803607855	 0.11483
H	-0.2397953822	 1.8809163317	 0.9843081815	 0.114602
H	-1.1065946202	-0.2246746936	-0.0772210673	 0.081567
H	 0.035763011	-1.3986025343	-1.7856598429	 0.110836
H	 0.8730543603	 0.1332497316	-2.0496608689	 0.102361
H	 0.6063968705	-0.1759373725	 1.9741418006	 0.226968
H	 4.5340106948	-2.7610859054	 0.3791700624	 0.123947
H	 3.4935853957	-2.0604989925	-1.8186790403	 0.262303
79.9207	175.4492	250.539	274.6167	348.5906	400.4355	462.6903	468.1037	624.6126	652.7888	676.3813	734.0187	748.8032	762.0691	807.2343	864.9746	924.3062	939.3081	969.6376	1043.1793	1089.3356	1092.7754	1119.8718	1153.2106	1202.8221	1244.4876	1272.6933	1316.165	1332.0865	1376.895	1381.2092	1402.822	1428.6664	1464.5331	1492.599	1494.0584	1500.2771	1533.5805	1645.7716	2999.8767	3025.9835	3035.3479	3054.1706	3095.6063	3104.7294	3253.6312	3530.0826	3675.3079
CC1CC2=C(N1)N=CN2	C[C@H]1Cc2c(N1)nc[nH]2	
InChI=1S/C6H9N3/c1-4-2-5-6(9-4)8-3-7-5/h3-4,9H,2H2,1H3,(H,7,8)	InChI=1S/C6H9N3/c1-4-2-5-6(9-4)8-3-7-5/h3-4,9H,2H2,1H3,(H,7,8)/t4-/m0/s1
