18
gdb 94918	2.1549	1.71048	1.41029	2.1449	77.08	-0.2259	0.034	0.2599	1018.8267	0.147713	-401.885732	-401.877403	-401.876459	-401.918428	32.28	
O	 0.0031196598	 1.4313226343	 0.0368655571	-0.43114
C	 0.027282244	 0.0172549075	-0.0541722705	 0.118485
C	 0.8307491379	-0.6997015142	 1.0580750381	-0.289739
C	 0.0078809086	-1.9697066898	 1.3704128581	-0.158285
N	-1.3763326068	-1.7743921323	 0.8753435053	-0.127391
C	-2.0599975367	-0.5674314518	 1.4152067567	-0.203344
C	-1.6259686647	 0.1298247687	 2.5917790752	 0.373664
C	-1.3525954971	 0.6763690699	 3.62847935	-0.470993
C	-1.3783236061	-0.5399832699	 0.0812843307	-0.038754
H	 0.8972803688	 1.7550438783	-0.1098962535	 0.285337
H	 0.4037540076	-0.2885244093	-1.0434819062	 0.071689
H	 1.849868371	-0.939173737	 0.7419341512	 0.094607
H	 0.887157545	-0.0372526655	 1.9228912075	 0.13184
H	 0.4029356788	-2.8402969238	 0.8377121543	 0.11063
H	-0.009044015	-2.2115483135	 2.4367228643	 0.120646
H	-3.1415512558	-0.6831166277	 1.3757497665	 0.119439
H	-1.0954092621	 1.1817437676	 4.5262053237	 0.197805
H	-2.0099693872	-0.5275961114	-0.8028443485	 0.095503
88.7378	143.1499	181.6797	237.7941	257.7915	334.3535	386.3164	467.4989	546.9071	563.8355	598.9428	660.607	683.9484	714.7585	716.5786	788.9146	868.9164	875.191	943.0074	959.5175	1013.1187	1039.67	1077.8779	1120.4203	1129.5982	1143.9991	1204.9632	1238.1276	1242.401	1274.6087	1304.449	1339.8666	1354.4897	1367.3716	1409.1899	1439.0439	1486.7406	1502.5811	2228.8878	2967.3469	3051.3916	3068.072	3095.9867	3118.9162	3131.651	3145.0646	3502.857	3821.4326
OC1CCN2C(C#C)C12	O[C@H]1CCN2[C@@H](C#C)[C@@H]12	
InChI=1S/C7H9NO/c1-2-5-7-6(9)3-4-8(5)7/h1,5-7,9H,3-4H2	InChI=1S/C7H9NO/c1-2-5-7-6(9)3-4-8(5)7/h1,5-7,9H,3-4H2/t5-,6-,7-,8?/m0/s1
