20
gdb 53119	2.13289	1.24148	0.88783	2.2933	84.36	-0.2172	0.0336	0.2508	1383.8175	0.168899	-403.096484	-403.086273	-403.085328	-403.132515	36.31	
C	 0.1970871311	 1.5114619941	 0.1313142426	-0.500625
C	 0.1282248667	 0.0574524292	 0.0780546147	 0.041963
C	 0.0775157045	-1.1459874227	-0.002493933	 0.099452
C	 0.0047751366	-2.6046317908	-0.0449472861	-0.230241
C	 0.2927865242	-3.2409356181	 1.368318982	 0.140263
O	 1.0375697005	-2.5234367718	 2.2981281185	-0.425311
C	-1.2480082974	-3.3418157548	 1.5108457663	-0.208944
N	-1.3523076134	-3.2031369794	 0.048237418	-0.061094
C	-2.4960595446	-2.5276549584	-0.5240339837	-0.318669
H	 1.2104715955	 1.8506301635	 0.372082773	 0.154665
H	-0.0808026041	 1.9546576741	-0.8311385358	 0.154536
H	-0.4789800978	 1.9169155644	 0.8917660438	 0.151304
H	 0.5914074444	-2.9878684228	-0.8878498247	 0.09529
H	 0.759228901	-4.2220528179	 1.2637891958	 0.104802
H	 0.8079090756	-1.5903578662	 2.1922586712	 0.279834
H	-1.6783649593	-4.2619879975	 1.919786746	 0.101779
H	-1.6452249269	-2.4780072223	 2.0710040862	 0.082105
H	-2.6399208883	-1.5025564324	-0.1414116486	 0.099096
H	-2.3897921239	-2.4732236923	-1.6126949756	 0.119897
H	-3.3983625645	-3.1076311577	-0.3033947806	 0.119898
40.4027	80.6971	90.1002	127.1393	203.6532	242.5107	258.5331	308.6894	357.6013	379.101	416.925	441.7756	495.5433	586.9596	654.2416	765.8052	803.6761	927.9556	966.8241	992.3111	1050.0119	1051.3868	1054.5843	1120.9825	1139.9531	1146.7281	1173.4098	1180.117	1236.4915	1241.0543	1267.994	1310.2404	1334.7684	1349.1318	1414.1813	1443.7993	1448.8675	1477.1498	1478.0003	1482.7153	1502.152	1515.3566	2345.1461	2956.6493	2961.6059	3029.6286	3032.3171	3058.7475	3061.708	3091.8762	3092.1097	3098.4901	3103.8946	3746.4435
CC#CC1C(O)CN1C	CC#C[C@H]1[C@@H](O)CN1C	
InChI=1S/C7H11NO/c1-3-4-6-7(9)5-8(6)2/h6-7,9H,5H2,1-2H3	InChI=1S/C7H11NO/c1-3-4-6-7(9)5-8(6)2/h6-7,9H,5H2,1-2H3/t6-,7-/m0/s1
