18
gdb 37832	2.91254	1.91408	1.66762	1.9087	74.24	-0.2231	0.0554	0.2785	888.1686	0.149393	-401.826403	-401.819784	-401.81884	-401.857133	27.69	
C	 0.0004720779	 1.4882127147	 0.0959347191	-0.210903
C	 1.4570629686	 2.0076775501	-0.1667744205	-0.356024
C	 2.042856722	 0.8907220779	-0.9921248579	 0.266626
N	 1.8362391765	 0.603608351	-2.4586721157	-0.381673
C	 2.0711794693	-0.7556602882	-1.8596506799	-0.152573
C	 3.1448829808	-0.2022351712	-0.8597739998	 0.032504
O	 2.5535341598	-0.8125462961	 0.3201154479	-0.357331
C	 1.3923339958	-0.4128913714	-0.4904623761	 0.415181
C	 0.0605112944	-0.0846530652	 0.1520501306	-0.357724
H	-0.427717629	 1.9167921914	 1.0060211462	 0.108307
H	-0.6491622072	 1.796658738	-0.7304168543	 0.107678
H	 1.4744968002	 2.9920705233	-0.6407773088	 0.114199
H	 2.0079365219	 2.0736591657	 0.7772979534	 0.127048
H	 0.8455914483	 0.6994530387	-2.7006950406	 0.207101
H	 2.0851623622	-1.678581578	-2.4419694691	 0.087389
H	 4.2303434502	-0.1623645502	-0.9458248885	 0.099809
H	 0.0765758321	-0.4503207177	 1.1824352877	 0.134819
H	-0.799049764	-0.5424193228	-0.3436033037	 0.115568
129.0954	225.5328	275.857	426.5623	462.3379	515.5155	586.3064	659.551	698.4115	762.4398	771.7402	808.1864	830.6186	841.451	875.6369	914.5033	933.407	937.7107	955.189	972.3706	987.9044	1077.6467	1101.2079	1137.2854	1144.968	1165.5556	1192.1526	1224.9434	1234.0317	1260.8439	1272.1524	1293.9256	1304.5399	1315.4376	1348.0957	1380.4791	1465.6152	1470.9129	1499.0723	3047.0384	3056.7115	3067.6737	3093.3903	3103.3932	3109.9661	3117.2404	3129.193	3392.3404
C1CC23NC4C2OC34C1	C1C[C@@]23N[C@H]4[C@@H]2O[C@@]34C1	
InChI=1S/C7H9NO/c1-2-6-5-4(8-6)7(6,3-1)9-5/h4-5,8H,1-3H2	InChI=1S/C7H9NO/c1-2-6-5-4(8-6)7(6,3-1)9-5/h4-5,8H,1-3H2/t4-,5-,6+,7+/m0/s1
