21
gdb 39095	3.26193	1.65623	1.41286	1.354	80.65	-0.238	0.0819	0.3198	999.634	0.186859	-387.079424	-387.072547	-387.071603	-387.110503	29.181	
C	-0.1238657729	 1.5618408074	 0.1710492462	-0.301389
C	 1.4136488446	 1.4652973027	 0.015901451	-0.055844
C	 1.7761408667	 0.6640974925	 1.3013681663	-0.208942
C	 0.652582453	-0.4445769054	 1.2757221266	-0.300417
C	-0.0009262189	 0.0038963661	-0.0241187061	 0.480733
O	-0.9733257777	-0.7350470781	-0.6823376845	-0.325037
C	-0.9247064918	-0.3279113211	-2.0616618383	-0.090975
C	 0.4458443816	 0.3966199546	-2.3204243114	-0.311263
C	 1.1839235484	 0.2872643069	-0.97520144	-0.013708
H	-0.5218188517	 1.9309296836	 1.1202552064	 0.086275
H	-0.6246984852	 2.05991361	-0.6592827447	 0.097219
H	 2.0347416407	 2.3302859548	-0.2163120197	 0.059597
H	 2.7789973469	 0.2303014474	 1.2510124983	 0.097843
H	 1.7242424882	 1.2905385741	 2.1962047883	 0.097523
H	 1.0575296626	-1.4577832638	 1.2076929464	 0.101122
H	-0.0140106663	-0.3952605468	 2.1407675157	 0.100518
H	-1.0485996291	-1.2279272403	-2.6714905169	 0.107376
H	-1.7662180236	 0.3431382954	-2.2758415334	 0.100813
H	 1.0058652325	-0.09742885	-3.1170698253	 0.106683
H	 0.2791903265	 1.4280990425	-2.6404975555	 0.110321
H	 1.9759517054	-0.4672281227	-1.0075580393	 0.061551
97.1011	261.1235	296.1388	349.1124	442.2075	451.0019	541.0372	643.602	692.9703	717.1894	768.7763	832.0575	847.4295	861.1092	879.881	900.1259	915.755	932.5996	962.361	987.9436	1013.1182	1034.4648	1052.9258	1100.6616	1103.4719	1122.1755	1144.6935	1186.8474	1208.9635	1215.4144	1233.9813	1240.8339	1250.9084	1266.3144	1272.9408	1292.2925	1306.6994	1329.2778	1372.1457	1396.659	1488.8154	1494.1418	1505.7965	1524.4746	1528.1821	3019.5817	3050.1825	3051.9493	3060.5664	3064.9256	3070.6459	3073.9832	3092.1093	3110.5702	3112.8886	3114.0692	3134.6246
C1C2CCC11OCCC21	C1[C@H]2CC[C@]31OCC[C@@H]23	
InChI=1S/C8H12O/c1-3-8-5-6(1)7(8)2-4-9-8/h6-7H,1-5H2	InChI=1S/C8H12O/c1-3-8-5-6(1)7(8)2-4-9-8/h6-7H,1-5H2/t6-,7+,8-/m1/s1
