20
gdb 37174	3.78983	1.61648	1.48333	1.5748	82.17	-0.2231	0.079	0.3021	959.2779	0.174501	-365.907996	-365.901653	-365.900709	-365.93811	28.395	
C	 0.0401606769	 1.3960508961	 0.1906172871	-0.259311
C	 1.2838511264	 0.6134694632	-0.0202384843	-0.133408
N	-0.0714433804	-0.0522812752	-0.0842875942	-0.120369
C	-0.1057981597	-0.4744306431	-1.5513942567	-0.034431
C	 0.5517662879	 0.6656943296	-2.3420068173	-0.292198
C	 1.7703713023	 0.2943038968	-1.4276984731	 0.345047
C	 3.0788598253	-0.0411177268	-2.1645209701	-0.335002
C	 2.3503986707	-1.3264974176	-2.7190263019	-0.287423
C	 1.2851147656	-1.182689536	-1.5738973047	 0.029007
H	-0.2393099185	 1.6454557268	 1.2117094815	 0.114413
H	-0.2892068593	 2.1315894556	-0.5340232037	 0.113924
H	 1.915640105	 0.3431116739	 0.8219242898	 0.091962
H	-1.0651863779	-0.9292266983	-1.8002794444	 0.067676
H	 0.7249008959	 0.408314558	-3.3848342985	 0.103095
H	 0.1405386197	 1.6735702816	-2.3037412755	 0.093426
H	 3.4574393835	 0.6867802841	-2.8874657196	 0.098605
H	 3.888520362	-0.3119302741	-1.4797823667	 0.107193
H	 1.9835928751	-1.2233659481	-3.7412794597	 0.112128
H	 2.9290942711	-2.2500110721	-2.660310592	 0.103769
H	 1.4615995084	-1.8680839944	-0.742317936	 0.081896
271.0298	299.747	309.4602	426.7053	518.9269	535.0272	559.1104	627.8599	696.8521	721.7907	740.4198	775.8762	840.5647	858.5676	872.6212	897.0661	903.8624	963.3096	981.7733	1014.7222	1029.5522	1034.6599	1055.6687	1086.4522	1107.6634	1110.3265	1119.0565	1143.3782	1181.3457	1204.8257	1218.3656	1225.3217	1229.7791	1238.9955	1252.4341	1260.0935	1289.2324	1334.2475	1378.9267	1476.4091	1486.2988	1498.1862	1548.0032	3048.633	3079.0792	3087.8482	3099.0218	3100.1447	3109.7524	3120.0204	3131.7815	3140.3866	3154.0908	3201.8411
C1C2N1C1CC22CCC12	C1[C@H]2N1[C@H]1C[C@]32CC[C@H]13	
InChI=1S/C8H11N/c1-2-8-3-6(5(1)8)9-4-7(8)9/h5-7H,1-4H2	InChI=1S/C8H11N/c1-2-8-3-6(5(1)8)9-4-7(8)9/h5-7H,1-4H2/t5-,6+,7-,8-,9?/m1/s1
