25
gdb 104847	1.80346	1.38838	1.16106	1.2489	88.26	-0.2511	0.076	0.3271	1303.0086	0.227556	-389.488416	-389.47773	-389.476785	-389.523543	40.456	
C	 0.5410091728	 1.4299698511	 0.2228287138	-0.400674
C	 0.1539602581	-0.0323922091	-0.0273274504	-0.21392
C	 0.5915885881	-0.5831635734	-1.3981473464	 0.333262
C	 0.0472496541	 0.2237723357	-2.5835430597	-0.25443
C	-1.4834097292	 0.2912734564	-2.655769951	-0.388495
C	 2.1276485482	-0.8869982787	-1.4351435005	-0.274068
C	 1.8319829069	-2.368110135	-1.0749300222	-0.273826
C	 0.3619079183	-2.1243477778	-1.498323493	 0.105304
O	-0.6867422357	-2.6263007753	-0.6986503137	-0.434478
H	 1.6158641718	 1.5942744489	 0.0886132414	 0.113006
H	 0.0168278399	 2.1151453632	-0.45067011	 0.117185
H	 0.2892355842	 1.7233166435	 1.2468655357	 0.110277
H	 0.5914345849	-0.6573697537	 0.7592620442	 0.09348
H	-0.9286161828	-0.1524052092	 0.0801708259	 0.11033
H	 0.462778926	 1.2391539548	-2.5631966329	 0.093566
H	 0.4287497279	-0.2321768886	-3.5067825036	 0.083828
H	-1.9041896358	 0.8698931121	-1.8276870274	 0.118566
H	-1.8098532642	 0.7644326637	-3.587212117	 0.106337
H	-1.9251698693	-0.7096902095	-2.6114618233	 0.126597
H	 2.5454962052	-0.7767900595	-2.4399728821	 0.094282
H	 2.7561900573	-0.3270145181	-0.7387420193	 0.098132
H	 2.3905680462	-3.1442504324	-1.6043894422	 0.088742
H	 1.9027097543	-2.5539675361	 0.0001334408	 0.107076
H	 0.2151221463	-2.4081408154	-2.5518749871	 0.057608
H	-0.7134786634	-3.5828567976	-0.8009712801	 0.282314
94.5453	109.2447	123.9321	179.0979	184.92	227.9045	228.4424	252.1727	318.4739	321.383	378.7507	400.0053	472.2381	551.9767	616.516	696.4994	767.4691	792.4147	801.4703	874.3029	926.8771	932.4781	958.5687	975.4181	1016.2138	1043.2825	1053.9518	1066.9237	1110.533	1142.6095	1160.8829	1179.1904	1198.6453	1218.3088	1243.777	1264.2992	1272.1449	1306.3105	1328.9129	1342.0956	1363.8196	1383.6044	1408.0842	1412.7443	1424.9706	1479.5303	1482.2257	1490.0793	1499.499	1501.2132	1502.0388	1504.8203	1516.5185	2971.9438	3013.3051	3033.8401	3036.286	3043.5587	3046.14	3053.8292	3060.3116	3075.6117	3098.5354	3100.8433	3103.3312	3104.6332	3108.0551	3117.3736	3815.53
CCC1(CC)CCC1O	CCC1(CC)CC[C@H]1O	
InChI=1S/C8H16O/c1-3-8(4-2)6-5-7(8)9/h7,9H,3-6H2,1-2H3	InChI=1S/C8H16O/c1-3-8(4-2)6-5-7(8)9/h7,9H,3-6H2,1-2H3/t7-/m1/s1
