21
gdb 107063	3.93295	1.09549	0.97992	2.2118	78.72	-0.2499	0.0832	0.3331	1304.1134	0.181521	-424.225435	-424.216261	-424.215316	-424.259413	34.397	
C	-0.3807316227	 1.4910159282	 0.2760791395	-0.382066
C	 0.16182771	 0.090192813	-0.0395507095	-0.286417
C	 0.949431213	-0.5005046064	 1.1007067549	 0.41264
C	 2.289192737	 0.0753012671	 1.5324230611	-0.141209
O	 2.878359171	-0.8904244476	 2.3908692477	-0.274545
C	 2.333501863	-2.1878102885	 2.1291367738	 0.122621
C	 2.2860258096	-2.9617981687	 3.4378846465	-0.401298
C	 0.9879720438	-1.9133695432	 1.4855595494	-0.082023
O	 0.1976840399	-0.9796829111	 2.2333810627	-0.296398
H	 0.4286567448	 2.2060211919	 0.4563043185	 0.120063
H	-0.9806574329	 1.8718140359	-0.5553598984	 0.116004
H	-1.0123009139	 1.4648974834	 1.1688915311	 0.137298
H	-0.670013906	-0.5836341416	-0.2698459389	 0.110081
H	 0.8003711543	 0.1263897137	-0.9313718693	 0.102821
H	 2.9110240125	 0.2595489865	 0.6401017007	 0.089494
H	 2.2020157259	 1.0120752587	 2.0928507779	 0.115406
H	 2.9601500218	-2.7229180708	 1.3936550477	 0.066951
H	 1.5952875888	-2.4740984593	 4.1299954643	 0.138396
H	 1.9546278528	-3.9909822517	 3.26648449	 0.110621
H	 3.2790307102	-2.9909450378	 3.8939744281	 0.126691
H	 0.4472864472	-2.6971415015	 0.9605289024	 0.094869
64.0438	115.5301	160.6188	191.1724	229.9464	244.4962	295.3148	357.0878	405.8916	412.7572	563.4842	614.4658	679.4773	769.7885	785.7703	842.1772	883.2824	906.4415	947.5589	960.2491	1028.0393	1033.569	1043.5289	1068.3011	1097.3497	1124.516	1133.0241	1153.3222	1229.1795	1244.6409	1269.3102	1312.1203	1338.3036	1358.8706	1375.9633	1384.7851	1404.6057	1410.3655	1468.4783	1479.0364	1485.8302	1498.7222	1500.0067	1504.7655	1508.9246	2946.156	2966.2053	3029.905	3040.05	3044.759	3068.0492	3074.2351	3109.5129	3116.7141	3118.5702	3133.7803	3145.6563
CCC12COC(C)C1O2	CC[C@]12CO[C@@H](C)[C@H]1O2	
InChI=1S/C7H12O2/c1-3-7-4-8-5(2)6(7)9-7/h5-6H,3-4H2,1-2H3	InChI=1S/C7H12O2/c1-3-7-4-8-5(2)6(7)9-7/h5-6H,3-4H2,1-2H3/t5-,6+,7-/m0/s1
