21
gdb 37024	2.69295	1.73043	1.46194	0.4711	87.01	-0.2212	0.0214	0.2427	1013.0425	0.185492	-349.940891	-349.933475	-349.93253	-349.97236	30.91	
C	 0.0440010133	 1.4355351119	 0.0736503887	-0.373271
C	 1.3660987223	 0.7195059252	-0.0414421842	 0.30007
C	 1.7553161946	 0.1165292948	 1.3181149447	-0.2863
C	 0.4067193186	-0.6814797053	 1.3342037516	-0.283182
C	 0.0604293651	-0.0706950714	-0.0405682091	 0.286176
C	-0.3294753224	-0.7879839709	-1.2685541154	-0.192739
C	 0.5787330866	-0.9786943919	-2.2327918256	-0.043909
C	 2.0207502819	-0.5180623744	-2.1385157026	-0.260928
C	 2.2103718404	 0.7708937398	-1.2961775464	-0.316362
H	-0.2470430342	 1.90484072	 1.0118997144	 0.09811
H	-0.2773588578	 1.9692872873	-0.8144848417	 0.110507
H	 2.621221046	-0.5482292125	 1.2545835743	 0.098863
H	 1.9266069572	 0.8288537452	 2.1328770599	 0.091696
H	 0.5611942658	-1.7617301401	 1.2945292718	 0.103751
H	-0.2921600576	-0.4580515236	 2.1471509239	 0.092662
H	-1.3478416128	-1.1531750599	-1.388011534	 0.080848
H	 0.2952231007	-1.5080786842	-3.1396781345	 0.085427
H	 2.6211808965	-1.3303246721	-1.7019574016	 0.110626
H	 2.4272928728	-0.3651821307	-3.1445570335	 0.099181
H	 1.9247671315	 1.6335473105	-1.9079881841	 0.102449
H	 3.2707660916	 0.9028937521	-1.0514614566	 0.096327
111.4333	175.607	252.7976	319.0327	395.9626	460.3148	495.1511	520.4211	547.6313	680.6679	721.6784	740.5215	774.5989	780.5373	844.1909	877.944	909.0181	935.3245	938.5686	978.9616	982.8128	1002.283	1006.8396	1053.9144	1075.0663	1113.4137	1132.5892	1175.1738	1205.772	1213.5373	1236.8214	1239.3932	1246.5604	1279.404	1317.7414	1338.8987	1375.4112	1389.9279	1435.417	1473.354	1479.6669	1483.1169	1487.3509	1509.3454	1685.9915	2996.1107	3029.7023	3034.2096	3045.8948	3055.7425	3071.6603	3087.1043	3096.6766	3112.3711	3131.7227	3158.947	3201.3166
C1C23CCC12C=CCC3	C1[C@@]23CC[C@@]12C=CCC3	
InChI=1S/C9H12/c1-2-4-9-6-5-8(9,3-1)7-9/h1,3H,2,4-7H2	InChI=1S/C9H12/c1-2-4-9-6-5-8(9,3-1)7-9/h1,3H,2,4-7H2/t8-,9+/m0/s1
