23
gdb 95286	2.03051	1.84618	1.37361	1.6142	84.22	-0.24	0.076	0.3159	1100.2074	0.206582	-388.306136	-388.297299	-388.296354	-388.339	34.995	
C	-0.0476816847	 1.5469987641	 0.0423872612	-0.413236
C	 0.117553065	 0.0288476837	-0.0123767206	 0.006487
C	 1.0360211422	-0.4754455287	-1.1440191554	-0.22796
C	 1.4031561802	-1.9118321647	-0.7239983518	-0.235039
C	 1.5461751326	-1.8393174635	 0.8026343303	-0.109717
C	 2.7691545849	-1.0629217199	 1.3243528168	-0.083804
O	 1.9760733553	 0.1030448584	 1.6223444746	-0.333852
C	 0.7380142974	-0.5838332495	 1.2599289164	 0.446381
C	-0.1909025468	-0.6929459222	 2.4531521357	-0.466972
H	 0.9114284166	 2.0210596935	 0.2686321866	 0.134606
H	-0.4093804474	 1.9359956978	-0.9149274709	 0.107217
H	-0.7644209136	 1.8495220813	 0.8129864749	 0.109755
H	-0.8696807435	-0.4390761138	-0.1403654918	 0.063589
H	 0.5589732366	-0.4272623542	-2.1272038138	 0.091142
H	 1.9343369734	 0.151549927	-1.1893483277	 0.107802
H	 0.5881547976	-2.5979621561	-0.9838341363	 0.096595
H	 2.3075317612	-2.2864502116	-1.2148579041	 0.095089
H	 1.3389857492	-2.782648265	 1.3105242689	 0.067392
H	 3.2359522493	-1.4770895086	 2.2275482858	 0.094977
H	 3.5553587905	-0.8514257373	 0.5876390155	 0.094542
H	-0.5348227801	 0.298162262	 2.766966604	 0.125676
H	-1.0705280219	-1.2981229731	 2.2082345042	 0.112149
H	 0.3210008961	-1.1536533898	 3.3031248876	 0.117179
103.2459	188.7864	209.845	215.2078	244.545	258.4454	297.1053	369.7858	393.5073	515.1824	555.0526	588.1807	635.9544	804.4581	828.7733	868.1761	878.7222	894.636	933.4038	944.063	971.0218	999.6811	1027.8219	1035.1653	1068.6965	1074.8781	1114.0241	1153.9594	1173.425	1182.9242	1196.8688	1217.8192	1237.4186	1276.7296	1306.836	1324.2092	1334.603	1355.7624	1367.8455	1370.3607	1402.506	1407.6965	1481.6313	1485.7588	1489.252	1496.5584	1498.5151	1505.7839	1525.097	2997.5482	3001.8811	3031.8906	3032.2515	3035.9252	3039.9246	3041.196	3075.6573	3090.2549	3095.2152	3096.8791	3102.6412	3108.7779	3119.1697
CC1CCC2COC12C	C[C@H]1CC[C@H]2CO[C@@]12C	
InChI=1S/C8H14O/c1-6-3-4-7-5-9-8(6,7)2/h6-7H,3-5H2,1-2H3	InChI=1S/C8H14O/c1-6-3-4-7-5-9-8(6,7)2/h6-7H,3-5H2,1-2H3/t6-,7-,8-/m0/s1
