16
gdb 103405	2.48794	1.52415	1.3247	3.0484	64.85	-0.2346	-0.03	0.2046	1014.0742	0.123294	-474.973606	-474.96527	-474.964326	-475.006505	31.439	
O	 0.0335019836	 1.3927435213	-0.0861356382	-0.432158
C	 0.0925429528	-0.0334273135	-0.1162518453	-0.147686
C	-1.3293620516	-0.5640499108	-0.0230110374	 0.31975
O	-2.1411914667	-0.0028280788	-1.0268082075	-0.483899
C	-1.6251129667	-2.0643187753	 0.113370384	-0.113878
N	-0.95288925	-2.4941123236	 1.3431239896	-0.343682
C	-2.3306998555	-1.8894717126	 1.4329338244	-0.194872
C	-2.0558341498	-0.403744439	 1.3732324427	 0.401833
O	-2.3810563863	 0.5585087472	 2.0076882989	-0.327606
H	-0.3089483603	 1.649769995	 0.7794336508	 0.302446
H	 0.5359309721	-0.2987074888	-1.0818912305	 0.11639
H	 0.7163838962	-0.4429836149	 0.6857413727	 0.121965
H	-1.8596764697	 0.9218692769	-1.0877921757	 0.294219
H	-1.8800978122	-2.7377503952	-0.6937027629	 0.118351
H	-1.0847234461	-3.5007022907	 1.4395385058	 0.247754
H	-3.1480334495	-2.4406329472	 1.8795779487	 0.121074
94.2837	122.9361	182.9575	209.3541	279.8779	310.9875	414.7002	421.0936	498.8856	516.7134	558.2648	661.8095	699.7303	776.7723	828.4872	841.3815	899.4932	917.4926	964.5499	1030.4805	1038.2319	1051.3366	1077.981	1094.7164	1134.3942	1191.1524	1230.8278	1266.378	1310.1202	1339.5371	1359.7205	1418.2122	1441.7866	1499.8808	1885.6219	3039.1601	3091.3354	3203.2476	3219.0322	3478.2522	3736.602	3781.9706
OCC1(O)C2NC2C1=O	OC[C@@]1(O)[C@H]2N[C@H]2C1=O	
InChI=1S/C5H7NO3/c7-1-5(9)3-2(6-3)4(5)8/h2-3,6-7,9H,1H2	InChI=1S/C5H7NO3/c7-1-5(9)3-2(6-3)4(5)8/h2-3,6-7,9H,1H2/t2-,3+,5-/m1/s1
