16
gdb 124672	3.68143	1.0048	0.984	1.9764	70.92	-0.2594	-0.0407	0.2187	1238.5372	0.123196	-437.89203	-437.883594	-437.88265	-437.926427	29.739	
C	 0.050827861	 1.4806928625	-0.1495111963	-0.400017
C	 0.0202069998	-0.0370612859	 0.0508261078	-0.181387
C	 0.5014683894	-0.7927421808	-1.1885955391	 0.142702
O	 0.8590421671	-0.2664682986	-2.2088111355	-0.234738
C	 0.8153035743	-0.5035562313	 1.2403073813	 0.37353
N	 0.2552199605	-1.2771257055	 2.1422957682	-0.202098
O	 1.2450767815	-1.5461390492	 3.0813609721	-0.16055
C	 2.3733332203	-0.9260743806	 2.7103410882	 0.089593
C	 2.1842219248	-0.2456613522	 1.5529453131	-0.33455
H	 1.0703892075	 1.834172514	-0.3242307119	 0.131564
H	-0.5429525897	 1.7574171422	-1.0234322821	 0.136966
H	-0.3500626626	 1.9920021153	 0.7289391611	 0.126861
H	-1.009469271	-0.3812853731	 0.2223969119	 0.126176
H	 0.4937341207	-1.8992042226	-1.0743754895	 0.09571
H	 3.2207418463	-1.0603867248	 3.3647979011	 0.156822
H	 2.8968083602	 0.3471924807	 1.0046291296	 0.133417
39.0956	69.3777	142.7193	192.1313	235.8565	257.494	374.012	404.1317	609.7147	617.8823	700.2028	733.9579	802.1574	855.7739	877.119	910.3873	938.3184	947.3154	992.3838	1034.1885	1090.694	1101.0175	1136.1217	1159.222	1273.6207	1296.9506	1326.6109	1405.5597	1423.2129	1446.844	1473.233	1490.4454	1495.9142	1602.1082	1832.3435	2893.9185	3023.739	3055.4116	3128.3974	3135.8404	3262.8167	3288.3516
CC(C=O)C1=NOC=C1	C[C@@H](C=O)c1nocc1	
InChI=1S/C6H7NO2/c1-5(4-8)6-2-3-9-7-6/h2-5H,1H3	InChI=1S/C6H7NO2/c1-5(4-8)6-2-3-9-7-6/h2-5H,1H3/t5-/m0/s1
