15
gdb 48744	3.60287	1.3923	1.20748	3.769	66.51	-0.253	-0.0474	0.2055	1013.7108	0.1116	-457.690778	-457.683651	-457.682707	-457.72258	26.949	
O	-0.1686801281	 0.0244290597	 0.1672001788	-0.259438
C	-0.0078039822	 1.2180430259	 0.0914568783	 0.059527
C	 1.3169980116	 1.8501786398	-0.0387932246	 0.317908
O	 1.4484791288	 3.2344080853	 0.3065827351	-0.253698
C	 1.7696748208	 2.8912697887	-1.0238938848	-0.056562
C	 3.1961196779	 2.2904030066	-1.0622621786	-0.129514
C	 4.145450542	 2.7170731088	 0.0818183499	-0.083016
O	 3.6372337826	 1.6681021035	 0.9498745362	-0.281767
C	 2.7341319426	 1.2084486642	-0.0594461391	 0.025043
H	-0.8522400842	 1.94087449	 0.095316525	 0.091399
H	 1.2136097929	 3.3795572475	-1.8169241305	 0.125335
H	 3.6016004669	 2.054703972	-2.043243197	 0.099766
H	 5.2077074693	 2.5639340887	-0.1363276835	 0.10999
H	 3.9831765337	 3.7133916555	 0.501831673	 0.122617
H	 2.7501614953	 0.1326702538	-0.2391751182	 0.11241
108.4223	153.784	202.6189	256.3425	318.4366	465.4003	508.6588	613.4103	665.1887	744.2767	798.8591	836.401	856.2801	882.1022	926.5824	965.8435	997.6844	1017.7696	1026.7008	1044.7008	1072.4148	1159.1	1169.6322	1184.1071	1223.1424	1250.7633	1280.0655	1295.6738	1358.6481	1371.4089	1430.4982	1507.627	1806.6652	2903.0063	3040.1236	3100.4783	3113.5488	3147.9369	3182.3664
O=CC12OC1C1COC21	O=C[C@]12O[C@H]1[C@H]1CO[C@@H]21	
InChI=1S/C6H6O3/c7-2-6-4-3(1-8-4)5(6)9-6/h2-5H,1H2	InChI=1S/C6H6O3/c7-2-6-4-3(1-8-4)5(6)9-6/h2-5H,1H2/t3-,4+,5-,6+/m0/s1
