18
gdb 50409	2.29394	1.70452	1.09501	2.3217	78.63	-0.2377	-0.0286	0.2091	1102.2513	0.147995	-401.939525	-401.931376	-401.930432	-401.973376	30.568	
O	 0.7302315151	-0.2195843479	 0.2123426802	-0.261982
C	 0.3736645196	 0.9111778322	-0.0067659071	 0.146018
C	 1.3033362617	 2.0944678642	-0.1109757605	-0.150394
C	 0.8760332951	 3.1463240084	-1.1697581779	-0.309593
C	 1.0426101868	 4.4703606379	-0.4603967329	-0.084754
C	 1.3058258662	 4.3196486352	 0.8350747931	-0.105645
C	 1.3646920975	 2.8858225659	 1.2257679416	 0.296964
C	 0.8064874223	 2.3703252838	 2.5143179557	-0.296271
N	 2.2591983028	 2.4744437464	 2.3143502665	-0.354877
H	-0.7076381344	 1.1634297025	-0.110993427	 0.078475
H	 2.3055936531	 1.712038993	-0.3279864216	 0.104916
H	 1.4788432348	 3.071922302	-2.0810839969	 0.120223
H	-0.1684109755	 2.9986648515	-1.482325651	 0.112946
H	 0.9294359312	 5.4181128571	-0.9737389673	 0.103777
H	 1.4510468336	 5.1087158216	 1.5628785255	 0.109319
H	 0.3897416802	 3.0679566517	 3.2361549338	 0.118517
H	 0.3526045456	 1.3831934373	 2.5250812045	 0.13127
H	 2.6459411943	 1.553697877	 2.1146078614	 0.24109
29.5222	74.6546	228.4791	257.4194	272.8466	367.9141	410.0195	424.8518	530.45	545.8356	724.7199	758.8367	792.2799	865.981	898.0793	926.3232	935.2237	968.8113	974.4099	991.3867	1010.8989	1055.8084	1068.426	1112.4466	1120.5091	1139.7603	1189.6564	1246.0793	1268.2757	1292.8719	1300.153	1323.2923	1337.6922	1406.1184	1424.9336	1485.2197	1508.0884	1686.9387	1818.5938	2857.8227	3002.0293	3055.025	3069.5334	3107.9402	3194.3296	3195.3101	3220.6169	3485.9537
O=CC1CC=CC11CN1	O=C[C@H]1CC=C[C@]21CN2	
InChI=1S/C7H9NO/c9-4-6-2-1-3-7(6)5-8-7/h1,3-4,6,8H,2,5H2	InChI=1S/C7H9NO/c9-4-6-2-1-3-7(6)5-8-7/h1,3-4,6,8H,2,5H2/t6-,7-/m1/s1
