19
gdb 78384	2.50877	1.83833	1.51316	2.6562	73.86	-0.2391	0.0537	0.2928	962.3124	0.160305	-422.959089	-422.95165	-422.950706	-422.990515	30.554	
C	-0.0380667071	 1.5915007503	-0.1113996751	-0.436101
C	 0.0997574232	 0.0901004331	 0.0107913197	 0.137039
O	 1.1036008419	-0.5274043655	-0.8810517668	-0.351917
C	 1.5456665658	-1.4190301006	 0.2031811938	 0.109345
C	 2.8801183441	-1.07922714	 0.8910431851	-0.150252
C	 3.1479111695	 0.3853009395	 0.9028587251	 0.125631
O	 3.0391713457	 1.2402618186	-0.1891282238	-0.430439
C	 2.0753602287	-0.1129964332	 1.8450839771	-0.139715
C	 0.7445553297	-0.6089288414	 1.2234610455	-0.098811
H	 0.8839157463	 2.1100172671	 0.154015523	 0.157298
H	-0.3110346555	 1.8630801251	-1.1368598559	 0.126093
H	-0.8452713483	 1.9307418614	 0.5473199589	 0.116676
H	-0.8669728568	-0.38705787	-0.2046300398	 0.081998
H	 1.3555211469	-2.4682830559	-0.0292017542	 0.087995
H	 3.6326477696	-1.8243299002	 1.1250887749	 0.087039
H	 4.0440567556	 0.6380150623	 1.4666681426	 0.108804
H	 2.4618719498	 0.7890470931	-0.8251617138	 0.298657
H	 2.197043283	 0.01689812	 2.9150248747	 0.089934
H	 0.0859808278	-1.0930843738	 1.943408999	 0.080725
169.0412	182.259	224.7591	263.3994	349.6398	386.6518	495.9601	571.9042	636.82	646.1789	683.1923	725.6355	743.696	811.928	840.5525	883.7883	895.4835	913.8071	924.9068	988.1448	994.3491	1014.0743	1039.7131	1080.0074	1097.0443	1111.3362	1166.6906	1186.7369	1213.1624	1234.6269	1275.7812	1297.8905	1306.5835	1317.896	1350.507	1388.74	1408.2049	1420.3186	1484.5861	1491.3322	1511.6861	2998.4014	3038.3273	3093.2885	3098.8497	3119.6088	3130.7462	3150.1428	3162.2716	3172.676	3672.4079
CC1OC2C3C(O)C3C12	C[C@H]1O[C@H]2[C@H]3[C@@H](O)[C@H]3[C@@H]12	
InChI=1S/C7H10O2/c1-2-3-4-5(6(4)8)7(3)9-2/h2-8H,1H3	InChI=1S/C7H10O2/c1-2-3-4-5(6(4)8)7(3)9-2/h2-8H,1H3/t2-,3-,4+,5-,6+,7-/m1/s1
