14
gdb 22879	3.41212	1.22912	0.92827	2.5576	71.36	-0.2504	-0.078	0.1724	1170.4195	0.100044	-473.796745	-473.788678	-473.787734	-473.829656	29.701	
O	-0.0402465634	 1.3262204812	 0.2161848588	-0.366526
N	 0.016032092	-0.0381950977	-0.015999888	-0.200102
C	-1.1553711088	-0.5593430793	-0.0619100321	 0.270327
C	-2.4920290083	 0.0237411946	 0.0517926041	-0.150705
C	-3.4337855202	-0.9335516892	 0.012578535	-0.100092
C	-2.8417105662	-2.3178029665	-0.0282173454	 0.005744
O	-3.4008409788	-3.1448181487	-1.0208025826	-0.433921
C	-1.3467746553	-2.0307123858	-0.2838454624	 0.302237
O	-0.5599115145	-2.8586355554	-0.6652131158	-0.314497
H	 0.8905024423	 1.5790303686	 0.2253666774	 0.319841
H	-2.6632974399	 1.0873229295	 0.1378815755	 0.135674
H	-4.5037498238	-0.7679447981	 0.0441748346	 0.128942
H	-2.9297347898	-2.7877012044	 0.9696913916	 0.104769
H	-2.7093150754	-3.7751069288	-1.2650187508	 0.298309
63.2071	173.1141	204.1822	253.0468	266.1445	347.124	373.4404	387.997	493.6186	520.8221	629.7051	669.6915	715.0775	762.0055	792.1585	890.7786	959.0428	986.8543	997.9952	1079.6898	1096.6992	1161.634	1215.772	1246.1246	1329.9103	1353.3176	1411.7392	1420.322	1630.2205	1696.4105	1844.9774	2924.9234	3211.8129	3244.8898	3757.9436	3801.674
ON=C1C=CC(O)C1=O	ON=C1C=C[C@@H](O)C1=O	
InChI=1S/C5H5NO3/c7-4-2-1-3(6-9)5(4)8/h1-2,4,7,9H	InChI=1S/C5H5NO3/c7-4-2-1-3(6-9)5(4)8/h1-2,4,7,9H/t4-/m1/s1
