22
gdb 99515	2.0463	1.28232	0.97647	3.3991	81.91	-0.2793	0.0288	0.3081	1327.2377	0.191612	-404.370647	-404.359737	-404.358793	-404.40623	40.184	
C	-0.05975302	 1.5467495291	 0.0750959177	-0.421985
C	 0.0086418048	 0.007952263	 0.0580130724	 0.23526
C	 0.6851401865	-0.5007821503	 1.3442477224	-0.419172
C	-1.4251273027	-0.5505437299	-0.0184438899	-0.416565
C	 0.7887474865	-0.4568272322	-1.218595305	-0.150001
C	 2.2396567792	 0.0745444723	-1.3684812596	-0.088169
O	 2.8254790801	-0.3298093393	-2.5862065265	-0.416823
C	 0.8430520821	-1.9196800479	-1.319882527	 0.26835
N	 0.9469470694	-3.0687279022	-1.4054305915	-0.347735
H	 0.9206920577	 2.0059803757	 0.2308013645	 0.120822
H	-0.4758235033	 1.9400205911	-0.8591741805	 0.116635
H	-0.707897879	 1.8802177265	 0.8916021241	 0.119841
H	 0.0905901438	-0.2141153649	 2.2174761131	 0.118168
H	 0.7739625576	-1.5915250002	 1.3435140048	 0.137363
H	 1.6856644332	-0.0782741476	 1.477682292	 0.116962
H	-1.944088664	-0.1915251943	-0.9139788014	 0.114318
H	-1.4301345567	-1.6442837272	-0.0407585142	 0.138905
H	-2.0032295911	-0.2294350459	 0.8538084205	 0.116407
H	 0.2376886826	-0.100972814	-2.0986784431	 0.128401
H	 2.2165201205	 1.1658096799	-1.3933638341	 0.122577
H	 2.8428351716	-0.234030998	-0.5038808279	 0.108284
H	 2.931912071	-1.2880073838	-2.5651798709	 0.298156
54.3616	103.2783	144.2767	184.3154	209.2422	226.4508	265.5182	271.1705	320.5247	332.3382	342.5529	388.2859	409.4552	421.2359	463.9013	564.239	591.5602	777.1827	825.0447	926.908	940.3332	946.3063	964.3013	1006.8885	1026.3597	1065.9273	1078.7896	1090.3396	1197.2688	1214.0028	1247.0726	1254.6823	1307.2166	1345.2103	1388.4463	1401.9476	1406.8335	1423.6614	1437.9834	1481.6333	1487.0058	1487.2972	1504.2036	1508.4022	1511.7506	1519.5873	2343.7351	3012.513	3029.9843	3032.2566	3036.737	3040.4154	3097.2866	3101.0951	3102.7269	3107.1864	3111.3239	3113.9106	3118.0227	3795.5589
CC(C)(C)C(CO)C#N	CC(C)(C)[C@@H](CO)C#N	
InChI=1S/C7H13NO/c1-7(2,3)6(4-8)5-9/h6,9H,5H2,1-3H3	InChI=1S/C7H13NO/c1-7(2,3)6(4-8)5-9/h6,9H,5H2,1-3H3/t6-/m1/s1
