20
gdb 52308	4.21013	0.82538	0.76031	3.4958	82.38	-0.2384	0.0197	0.2581	1526.8107	0.17222	-403.188693	-403.179639	-403.178695	-403.2244	32.688	
O	 0.4186963904	 0.9401304502	 1.4230238245	-0.325423
C	 0.1521176174	 1.4479052101	 0.3538495738	 0.15373
N	 0.9858241517	 1.4891454423	-0.718579748	-0.271946
C	 2.3318860608	 0.9355058856	-0.6864651604	-0.180335
C	 3.4059635763	 1.9383692126	-0.2281401256	-0.009942
C	 4.8237035497	 1.3041428662	-0.1784448863	-0.230513
C	 5.8000962327	 2.3939149736	-0.6923799594	-0.253769
C	 4.8867451167	 3.3618587616	-1.405965178	-0.065747
C	 3.6023393163	 3.1218153663	-1.1501688673	-0.071524
H	-0.822600931	 1.9304187681	 0.1383631767	 0.072179
H	 0.6722990444	 1.969993128	-1.5458419474	 0.24839
H	 2.3104638825	 0.0864746853	 0.0020137637	 0.140321
H	 2.5756721888	 0.5601153287	-1.6865188933	 0.103223
H	 3.1003939763	 2.2891892873	 0.767573787	 0.100206
H	 5.0807521414	 0.9373457811	 0.8178941496	 0.106688
H	 4.8543046591	 0.4410903226	-0.8542698597	 0.100037
H	 6.3226326806	 2.8967101247	 0.1334935222	 0.109148
H	 6.5823993726	 1.9849090597	-1.341889474	 0.103253
H	 5.2614174945	 4.1771848053	-2.015675706	 0.091485
H	 2.7726882485	 3.7191060707	-1.5144288321	 0.080539
23.511	59.02	90.4947	159.4708	240.2314	280.0247	310.1937	411.1991	497.1693	521.6596	635.2483	732.1155	758.3068	773.8173	844.2297	860.6034	924.5825	944.2511	958.6449	977.9458	1003.5514	1031.6923	1057.0836	1093.7489	1097.6255	1138.9079	1180.7942	1212.2098	1231.4196	1263.6873	1289.9888	1317.353	1327.9988	1351.602	1386.1579	1398.3068	1429.5972	1468.2796	1483.7317	1501.0757	1527.9162	1686.566	1804.4516	2929.8667	3006.6838	3011.0761	3033.4055	3045.43	3056.3162	3101.9615	3107.8841	3173.3422	3200.2479	3643.1403
O=CNCC1CCC=C1	O=CNC[C@H]1CCC=C1	
InChI=1S/C7H11NO/c9-6-8-5-7-3-1-2-4-7/h1,3,6-7H,2,4-5H2,(H,8,9)	InChI=1S/C7H11NO/c9-6-8-5-7-3-1-2-4-7/h1,3,6-7H,2,4-5H2,(H,8,9)/t7-/m1/s1
