19
gdb 41839	2.85631	2.01093	1.71777	1.8833	71.84	-0.2511	0.0767	0.3278	877.0445	0.16426	-423.055914	-423.049708	-423.048764	-423.086441	26.353	
C	-0.042095055	 1.5664727824	-0.1420169354	-0.230881
C	 1.4213560681	 2.0416418986	 0.0997388536	-0.230953
C	 2.2414647192	 0.7622707438	 0.3038180004	 0.104501
O	 2.2607947978	 0.3546375188	 1.6904199191	-0.289162
C	 1.4477865674	-0.8141647036	 1.739383406	 0.176882
C	-0.0255165997	-0.4073235187	 1.5671563463	-0.247178
C	-0.0182445741	 0.0424541817	 0.0700889455	-0.028516
C	 1.4235167751	-0.4013317226	-0.3190870195	 0.035711
O	 1.7317448516	-1.5001227814	 0.5344718107	-0.24692
H	-0.7605912561	 2.059916158	 0.5178749562	 0.104325
H	-0.3499368264	 1.7962932276	-1.1673802725	 0.099083
H	 1.8011773127	 2.6044790032	-0.7587000334	 0.099539
H	 1.5207234713	 2.6846184851	 0.9772155149	 0.116543
H	 3.2750274238	 0.8401890318	-0.044562804	 0.077884
H	 1.7172791362	-1.4118134159	 2.6093926818	 0.089744
H	-0.680783025	-1.2672176212	 1.7292804905	 0.105245
H	-0.3127329501	 0.3895306403	 2.2566487051	 0.105848
H	-0.7910318948	-0.4723753192	-0.5023724894	 0.072645
H	 1.618839318	-0.6492473187	-1.3606580358	 0.08566
104.4321	318.6376	332.9859	429.0781	556.6817	580.4402	635.1778	702.9596	763.2491	810.3006	815.6749	844.025	864.5402	891.2164	895.5375	929.2868	971.5406	982.6381	995.4898	1027.3362	1044.7892	1068.5374	1085.6253	1103.6784	1157.9643	1174.493	1195.531	1249.2377	1258.8648	1265.4646	1281.0013	1292.9214	1316.311	1330.3562	1342.1151	1345.4794	1363.1643	1378.4691	1478.5799	1480.4951	1504.544	3045.0502	3056.5642	3063.8081	3072.451	3086.3376	3095.7218	3111.3708	3119.9797	3136.488	3145.1372
C1CC2OC3CC1C2O3	C1C[C@H]2O[C@H]3C[C@@H]1[C@@H]2O3	
InChI=1S/C7H10O2/c1-2-5-7-4(1)3-6(8-5)9-7/h4-7H,1-3H2	InChI=1S/C7H10O2/c1-2-5-7-4(1)3-6(8-5)9-7/h4-7H,1-3H2/t4-,5-,6-,7+/m1/s1
