18
gdb 124835	4.35033	0.97522	0.83943	4.5076	73.44	-0.2551	0.0139	0.269	1363.9008	0.148883	-435.289715	-435.280992	-435.280048	-435.324908	31.4	
C	 0.1757599345	 1.4720610757	 0.0207747054	-0.411677
C	 0.0548585548	-0.0295969147	 0.2708697155	 0.118988
O	 0.2034530257	-0.3469898994	 1.6522642384	-0.422575
C	-1.2670026596	-0.5818695735	-0.2820601465	-0.15249
N	-1.3390339526	-2.0324638012	-0.2525087039	 0.03469
C	-1.2665883277	-2.8927908277	 0.7864984772	 0.019674
N	-1.3902142863	-4.139090766	 0.365664472	-0.278477
C	-1.5394498319	-3.9818346029	-0.9772455457	 0.03559
N	-1.5171459661	-2.7304581712	-1.4055758029	-0.252885
H	 1.1031084442	 1.8484835429	 0.4594759267	 0.136766
H	 0.1798962396	 1.699133455	-1.0494960272	 0.131047
H	-0.6636047867	 2.0145741324	 0.4745722176	 0.113833
H	 0.8780079206	-0.5550470189	-0.2257330564	 0.114407
H	-0.3692700747	 0.2439450883	 2.154890575	 0.281643
H	-2.1049840866	-0.1586593921	 0.2872989997	 0.114507
H	-1.3953137054	-0.3014295766	-1.3289201522	 0.143512
H	-1.1037644101	-2.5630990368	 1.799301549	 0.148912
H	-1.6691125318	-4.8094746731	-1.6587014117	 0.124535
14.7198	86.5131	126.2261	232.8108	281.9906	308.046	323.0575	335.687	456.2426	480.7719	661.3888	697.1116	766.6631	850.509	868.413	905.2933	914.4129	944.503	975.4394	1031.6323	1068.27	1089.5406	1156.8009	1168.0239	1187.1844	1230.6623	1296.249	1314.5689	1322.0811	1352.886	1394.6593	1401.4887	1406.3524	1421.7308	1453.3043	1481.0274	1494.1746	1496.5175	1549.133	3023.2753	3027.171	3062.1188	3099.4533	3125.8932	3129.9707	3258.5255	3287.6548	3791.8364
CC(O)CN1C=NC=N1	C[C@@H](O)Cn1cncn1	
InChI=1S/C5H9N3O/c1-5(9)2-8-4-6-3-7-8/h3-5,9H,2H2,1H3	InChI=1S/C5H9N3O/c1-5(9)2-8-4-6-3-7-8/h3-5,9H,2H2,1H3/t5-/m1/s1
