19
gdb 95665	3.02484	1.24449	0.95412	3.1907	80.75	-0.2412	-0.0532	0.1879	1246.7137	0.159451	-423.051073	-423.042545	-423.041601	-423.084663	32.171	
C	 0.5999896328	 1.5675835453	-0.0562333427	-0.396699
C	-0.1252506652	 0.2195335584	-0.1296991753	 0.071655
O	 0.3809477413	-0.4410552049	-1.2667116938	-0.252793
C	-0.1560790666	-1.7260759358	-1.5272272352	-0.110624
C	 0.7148798595	-2.8180600332	-0.9179477543	-0.2974
C	 0.7323956937	-2.9158473865	 0.6024557336	 0.358129
O	 1.052171672	-3.9647339849	 1.1306975288	-0.325703
C	 0.35344965	-1.7737395776	 1.471405119	-0.1746
C	-0.0137552913	-0.5195196352	 1.1769088206	-0.036485
H	 1.6684947077	 1.4122244319	 0.1155449891	 0.134011
H	 0.4724704889	 2.099761919	-1.0016865216	 0.131625
H	 0.1986164828	 2.183620888	 0.7526985302	 0.11898
H	-1.2054245445	 0.4221416796	-0.2755002101	 0.085252
H	-1.1955853333	-1.7954873294	-1.1743989115	 0.100312
H	-0.1711748633	-1.841442229	-2.6163574469	 0.113622
H	 0.4284114262	-3.805519518	-1.2944889021	 0.123819
H	 1.7488596046	-2.6469582485	-1.2440214282	 0.138995
H	 0.365071336	-2.0675398273	 2.5181010482	 0.108438
H	-0.3013775212	 0.1089104582	 2.0201902822	 0.109468
48.699	106.1668	221.0663	247.7701	267.8081	297.5139	379.8455	380.7132	483.7948	493.7887	530.6872	669.9095	691.1621	758.0854	810.8811	828.5826	890.8875	933.6058	976.7905	1026.8724	1047.3545	1071.7631	1102.745	1139.8182	1169.553	1207.4118	1237.2668	1287.6329	1307.2531	1325.2019	1359.6875	1376.3219	1401.7576	1414.5516	1422.5333	1439.3803	1484.1541	1498.2348	1504.8075	1695.3385	1752.8953	2900.5457	3000.3545	3036.3356	3050.6611	3068.996	3088.8543	3123.7781	3130.2913	3134.5292	3166.1765
CC1OCCC(=O)C=C1	C[C@H]1OCCC(=O)C=C1	
InChI=1S/C7H10O2/c1-6-2-3-7(8)4-5-9-6/h2-3,6H,4-5H2,1H3	InChI=1S/C7H10O2/c1-6-2-3-7(8)4-5-9-6/h2-3,6H,4-5H2,1H3/t6-/m1/s1
