22
gdb 112512	2.11014	1.20811	1.08456	4.0023	85.89	-0.2939	0.0315	0.3254	1306.1594	0.193955	-367.230899	-367.221072	-367.220128	-367.265675	36.419	
C	 0.4671410565	 1.3725256805	 0.3687755447	-0.386085
C	 0.4299265684	-0.1468545172	 0.1731360449	-0.19206
C	 0.5660835121	-0.5532638866	-1.2965393025	 0.015157
C	 2.0091180049	-0.4301173558	-1.8681764635	-0.241547
C	 2.1752052661	-1.9840493232	-1.7800154308	-0.178563
C	 2.9612728445	-2.4319908125	-0.6413768159	 0.288702
N	 3.5790713651	-2.7841568455	 0.2715449142	-0.346016
C	 0.6153946764	-2.0898431673	-1.5936264686	 0.009208
C	 0.0381705362	-3.0992413852	-0.6145597893	-0.420582
H	 1.4051785229	 1.8027714033	 0.0018806316	 0.118828
H	-0.3530486397	 1.859944114	-0.1702186426	 0.113923
H	 0.3755136599	 1.6362367074	 1.4265804443	 0.117855
H	 1.2254746981	-0.6121857223	 0.7679763446	 0.118914
H	-0.5157707045	-0.539018929	 0.567468026	 0.099043
H	-0.1939613888	-0.0224691307	-1.879571465	 0.067788
H	 2.0383307138	-0.0916410879	-2.905891862	 0.110805
H	 2.7211747567	 0.1579044371	-1.2863194094	 0.121567
H	 2.5674181727	-2.4687366895	-2.6777015829	 0.117697
H	 0.1916231692	-2.268748659	-2.5870991394	 0.084379
H	 0.4676236026	-2.9946444246	 0.3850803159	 0.141095
H	-1.0473988498	-2.9797514253	-0.53364142	 0.118364
H	 0.2348461066	-4.1221032807	-0.9531016144	 0.121529
58.5147	119.951	142.4319	172.9428	207.9256	226.8068	234.5822	282.7061	351.7217	399.4125	481.3252	510.5005	598.9426	700.415	771.9214	778.4548	817.7452	855.1818	913.5454	951.553	970.4424	986.3944	1024.6669	1059.5635	1072.4456	1118.6261	1138.0295	1156.1914	1165.6074	1219.8164	1256.4169	1264.1787	1272.8394	1305.8241	1345.5815	1349.9036	1367.475	1396.7139	1410.2688	1414.8736	1479.0616	1489.3307	1493.4642	1499.1494	1500.1624	1508.0251	2345.0008	3024.7756	3031.6766	3035.6474	3037.4218	3051.2063	3062.8539	3071.4801	3080.2575	3097.9638	3099.1812	3106.5554	3121.0495	3129.486
CCC1CC(C#N)C1C	CC[C@H]1C[C@@H](C#N)[C@H]1C	
InChI=1S/C8H13N/c1-3-7-4-8(5-9)6(7)2/h6-8H,3-4H2,1-2H3	InChI=1S/C8H13N/c1-3-7-4-8(5-9)6(7)2/h6-8H,3-4H2,1-2H3/t6-,7-,8-/m0/s1
