17
gdb 41652	3.21314	2.088	1.71008	2.0047	68.81	-0.2486	0.0983	0.347	824.3632	0.139912	-421.777896	-421.772139	-421.771195	-421.807687	24.957	
C	-0.0006781275	 1.4139461335	-0.1577826835	 0.018263
O	 1.2853593038	 1.9741567699	-0.0330973275	-0.271039
C	 1.9453409337	 1.5512756146	 1.1423545633	 0.140369
C	 1.2092957028	 1.5331954568	 2.4871149156	-0.127496
C	 0.3623434473	 0.2569365089	 2.4886075194	-0.127492
C	 1.831830986	 0.2013295041	 2.8445410977	-0.108334
C	 2.1060262973	 0.0175670228	 1.3102081447	-0.133109
C	 0.6301843892	-0.4304716731	 1.1446594234	 0.140367
O	-0.0171395619	 0.0114919046	-0.0308135005	-0.271038
H	-0.6765807284	 1.8633681163	 0.5870008918	 0.090037
H	-0.3480513871	 1.6433023238	-1.1670275386	 0.117021
H	 2.8898899771	 2.0953989432	 1.1930374542	 0.087132
H	 0.9756011973	 2.3621473558	 3.1416533716	 0.09158
H	-0.491572788	 0.1512740742	 3.1442426123	 0.09158
H	 2.3385561967	-0.1339023551	 3.7351362775	 0.100885
H	 2.9198420815	-0.5230615711	 0.83468674	 0.074141
H	 0.4958047102	-1.5121323192	 1.1972253285	 0.087131
257.4015	291.9212	403.7649	470.7728	540.1403	580.3986	682.4248	786.7454	787.0972	812.9616	822.6927	838.9711	890.8931	907.3576	956.6816	996.383	998.0477	1005.4397	1012.6134	1034.3915	1037.485	1041.6927	1077.015	1145.6603	1162.9819	1166.8982	1171.2998	1207.3359	1237.2075	1274.1851	1297.7588	1318.8039	1358.8528	1375.1586	1383.8261	1451.2936	1516.0534	2977.809	3102.9117	3103.9629	3113.6745	3155.3205	3200.929	3208.9457	3249.8998
C1OC2C3C4C3C2C4O1	C1O[C@H]2[C@H]3[C@@H]4[C@H]3[C@H]2[C@@H]4O1	
InChI=1S/C7H8O2/c1-8-6-3-2-4(3)7(9-1)5(2)6/h2-7H,1H2	InChI=1S/C7H8O2/c1-8-6-3-2-4(3)7(9-1)5(2)6/h2-7H,1H2/t2-,3+,4-,5+,6-,7+
