19
gdb 121762	4.25933	0.64081	0.57668	2.6017	70.42	-0.2682	0.0092	0.2774	1917.6739	0.155988	-497.307499	-497.296792	-497.295848	-497.345495	35.693	
C	-0.256933669	 1.3721164098	-0.0187088515	-0.225302
O	-0.0664689955	-0.0205413163	 0.0841943008	-0.210419
C	-1.2576723901	-0.7350854622	-0.0340740546	-0.171705
C	-0.9655108068	-2.2231785378	 0.0742793183	 0.418631
O	 0.1106348864	-2.7306548707	 0.2163410071	-0.326506
O	-2.1287912767	-2.9082105006	-0.0131115397	-0.266169
C	-2.0225248488	-4.3464203187	 0.0499479548	-0.075568
C	-3.4400555879	-4.8818274265	-0.032223449	-0.069607
O	-4.072644703	-4.5372125329	-1.2484318783	-0.417347
H	 0.7247429095	 1.8389285288	 0.0841601331	 0.137133
H	-0.6871863796	 1.6546548829	-0.9924828068	 0.107433
H	-0.9195602315	 1.7540612009	 0.7739333352	 0.10728
H	-1.9860282569	-0.4669268113	 0.7505658709	 0.117381
H	-1.7593959629	-0.5513495028	-1.0002318115	 0.114887
H	-1.4165134149	-4.6959429118	-0.79111009	 0.131194
H	-1.5284173216	-4.637637306	 0.9820880925	 0.124012
H	-3.4099540518	-5.9753439118	 0.0119927804	 0.118654
H	-4.0138032887	-4.5271981651	 0.8385802829	 0.096858
H	-4.0296903503	-3.577338838	-1.3183602748	 0.28916
31.9441	58.7096	62.535	90.391	124.93	179.3531	235.547	249.8293	295.2052	355.8792	384.4777	425.9304	507.7274	596.0733	734.6237	851.6961	895.2318	964.8337	1008.575	1038.5653	1049.425	1094.9786	1126.5325	1175.5654	1183.5411	1201.5876	1235.3255	1246.6552	1249.9904	1264.5571	1384.4772	1393.7362	1423.5517	1434.5513	1473.0078	1486.6975	1492.5577	1495.9058	1499.2599	1516.631	1855.2384	2954.3218	2973.3951	2978.8845	2985.8352	3017.2995	3055.0165	3083.9417	3109.3869	3125.1282	3811.7258
COCC(=O)OCCO	COCC(=O)OCCO	
InChI=1S/C5H10O4/c1-8-4-5(7)9-3-2-6/h6H,2-4H2,1H3	InChI=1S/C5H10O4/c1-8-4-5(7)9-3-2-6/h6H,2-4H2,1H3
