19
gdb 111555	2.62448	1.60118	1.20364	2.0555	75.21	-0.2258	0.0773	0.3032	1094.6883	0.157822	-422.94802	-422.939538	-422.938594	-422.981299	31.844	
C	 0.3023962379	 1.2680694699	 0.2465929993	-0.239133
O	-0.2168327253	 0.0187893488	-0.1517132187	-0.249474
C	 0.497460629	-0.5791096936	-1.1903334257	 0.135358
C	 1.8866091703	-1.2400153154	-0.9096350458	-0.002823
O	 1.6298605611	-2.1279786783	 0.2074385791	-0.283834
C	 0.85868417	-2.9069439614	-0.7057833458	 0.059364
C	 1.4857445805	-2.3529483655	-1.9413785571	-0.201911
C	 0.037617187	-1.9659317174	-1.6042604137	 0.224773
C	-1.2422087121	-2.3505677413	-2.2816454816	-0.516319
H	 1.3152834707	 1.1775885505	 0.6650853534	 0.112082
H	 0.3360045358	 1.9809794403	-0.592908044	 0.10022
H	-0.3603985842	 1.664784391	 1.0189545368	 0.128752
H	 0.5732476362	 0.0871943215	-2.0655042127	 0.06172
H	 2.8202994083	-0.6878379012	-0.8308904391	 0.084027
H	 0.550195588	-3.9051193284	-0.4237028945	 0.109
H	 1.9458771042	-2.7781530013	-2.8219603082	 0.100273
H	-1.2545789925	-3.4171324382	-2.5311370699	 0.119105
H	-2.0996278748	-2.1500034109	-1.6307763266	 0.138396
H	-1.3874942002	-1.7909371292	-3.212579985	 0.120424
63.679	157.96	165.9833	201.7384	230.3881	261.973	292.6534	422.254	556.8446	568.2542	694.0635	755.2	784.8323	809.0183	845.9528	887.8214	914.3244	953.2062	971.4195	989.4518	1021.2013	1048.5698	1078.6683	1107.232	1144.3808	1149.5637	1162.5354	1181.9325	1204.6409	1223.8822	1245.7943	1297.3834	1316.6909	1376.2442	1413.0703	1436.6519	1482.4971	1486.1551	1491.0142	1499.2663	1506.83	2969.781	2978.1928	3026.5049	3026.6702	3088.4633	3098.3772	3117.3859	3147.269	3203.5646	3218.3913
COC1C2OC3C2C13C	CO[C@H]1[C@H]2O[C@@H]3[C@H]2[C@]13C	
InChI=1S/C7H10O2/c1-7-3-4(6(7)8-2)9-5(3)7/h3-6H,1-2H3	InChI=1S/C7H10O2/c1-7-3-4(6(7)8-2)9-5(3)7/h3-6H,1-2H3/t3-,4-,5+,6-,7-/m0/s1
