15
gdb 132420	3.15277	1.37536	0.96333	4.3153	75.63	-0.2109	-0.0434	0.1675	1146.9771	0.111906	-461.948447	-461.940623	-461.939679	-461.980867	29.467	
C	 0.0895616111	 1.4788316136	 0.0079650622	-0.472182
C	-0.070396259	-0.0040552235	-0.0161339753	 0.386721
C	-1.2200454658	-0.6953839463	-0.1271183449	-0.239785
C	-1.1801808513	-2.1327500163	-0.1328806302	-0.206355
C	 0.0062254282	-2.7576330692	-0.0267991008	 0.196187
F	 0.1073695078	-4.0796263968	-0.0261724398	-0.049266
C	 1.2611081418	-2.0293661938	 0.0947867709	 0.297146
N	 2.3933902632	-2.5891629089	 0.1971360825	-0.531617
O	 1.1289145855	-0.6451338306	 0.0906135196	-0.276208
H	 0.7298082393	 1.8127096998	-0.8160878872	 0.147076
H	-0.8809292751	 1.9702148321	-0.0788242346	 0.137167
H	 0.567308812	 1.8018732993	 0.9395025783	 0.147065
H	-2.1605311401	-0.1684812107	-0.2106811602	 0.113033
H	-2.0888804365	-2.7163172333	-0.2212510907	 0.12587
H	 3.1341632088	-1.8917036154	 0.2705885304	 0.225147
107.8069	152.1117	165.4367	292.1509	316.6798	361.1418	402.6187	457.5194	514.0673	563.2272	610.2404	732.6025	749.4007	759.4973	817.5421	842.7724	922.8062	966.4175	975.5061	1065.2516	1072.4861	1108.6289	1205.175	1225.6644	1287.4239	1377.8345	1401.3044	1420.2839	1468.0987	1486.6297	1648.3782	1700.6926	1746.802	3036.4544	3090.1041	3140.5598	3206.4187	3228.3784	3495.0091
CC1=CC=C(F)C(=N)O1	C[C@H]1C=CC(=C([NH])O1)F	
InChI=1S/C6H6FNO/c1-4-2-3-5(7)6(8)9-4/h2-3,8H,1H3	InChI=1S/C6H7FNO/c1-4-2-3-5(7)6(8)9-4/h2-4,8H,1H3/t4-/m0/s1
