22
gdb 110266	2.77965	1.2538	0.99933	0.842	84.82	-0.2125	0.0874	0.2999	1297.3385	0.192517	-404.253175	-404.243572	-404.242628	-404.287373	35.967	
C	-0.2670593786	 1.5127359498	-0.4387421394	-0.245661
O	-0.1325027385	 0.2662089117	 0.2124305276	-0.248333
C	-1.2520565617	-0.547065704	 0.0582637541	 0.203858
C	-1.4463491584	-1.5110211394	-1.1685129543	-0.112506
C	-0.3107647086	-2.4386237682	-0.6197321259	 0.05224
C	 1.1823316765	-2.1597189755	-0.747684773	-0.450725
C	-1.2020874607	-2.0001420476	 0.5924737298	-0.117815
N	-2.4549512419	-2.1810957759	-0.2522978422	-0.101457
C	-2.9357924319	-3.521642045	-0.5585065042	-0.329216
H	 0.6185387966	 2.1035603764	-0.1944523124	 0.128195
H	-0.3314563412	 1.400170685	-1.5308054947	 0.110488
H	-1.1628594091	 2.0503710111	-0.0931230914	 0.111807
H	-2.1754070619	-0.0179027263	 0.3238750001	 0.079118
H	-1.6967349174	-1.2655233597	-2.2033135053	 0.069507
H	-0.4800388286	-3.4835708107	-0.8880214631	 0.070355
H	 1.4554812022	-1.1455081759	-0.466468726	 0.14406
H	 1.743560083	-2.857072306	-0.1146302649	 0.110475
H	 1.5050363118	-2.3374926388	-1.7805452865	 0.107733
H	-1.1621188904	-2.3279122922	 1.6337076992	 0.074641
H	-3.4484134031	-3.9110718182	 0.3275020722	 0.121605
H	-3.6782577993	-3.4425906878	-1.3597244979	 0.120997
H	-2.1886536086	-4.2682212228	-0.867676952	 0.100635
77.8231	150.1162	168.7779	174.1769	174.9649	258.5469	261.0482	274.9731	343.5612	397.371	465.1811	555.393	624.2862	717.9118	748.679	801.7059	814.034	902.1848	944.4281	1010.5782	1021.6794	1062.9352	1087.45	1108.3482	1111.2303	1121.1527	1126.7993	1173.0371	1180.9849	1183.6207	1204.4823	1217.4262	1243.4608	1247.3539	1255.6269	1297.1872	1375.4719	1403.9138	1426.717	1452.5526	1482.4403	1487.4225	1491.5407	1500.548	1501.7581	1508.4526	1514.1099	2980.1203	2982.9209	3029.2093	3032.6981	3035.4542	3059.8176	3078.5423	3079.5602	3085.3534	3094.8366	3095.4718	3119.9146	3177.6428
COC1C2C(C)C1N2C	CO[C@H]1[C@H]2[C@@H](C)[C@@H]1N2C	
InChI=1S/C7H13NO/c1-4-5-7(9-3)6(4)8(5)2/h4-7H,1-3H3	InChI=1S/C7H13NO/c1-4-5-7(9-3)6(4)8(5)2/h4-7H,1-3H3/t4-,5-,6+,7+
