16
gdb 32080	3.94549	1.15429	0.90297	2.1705	73.2	-0.2657	-0.0534	0.2123	1245.7645	0.124824	-434.126277	-434.117791	-434.116847	-434.160666	29.736	
C	-0.3838298713	 1.4619093944	 0.1506898933	-0.462595
C	-0.0557657766	 0.0083969809	-0.0080148559	 0.352215
N	-0.1144705471	-0.5251660571	-1.2297832495	-0.300089
C	 0.1893347411	-1.823926628	-1.3020275213	 0.334047
C	 0.1429172126	-2.4915566337	-2.6551040528	-0.118197
O	 0.4792155849	-3.849267717	-2.6094429871	-0.424484
N	 0.5344056372	-2.5889424492	-0.265664153	-0.307123
C	 0.5608626312	-1.9528529126	 0.9080790759	 0.072979
N	 0.2804882361	-0.6726759716	 1.1034150954	-0.277688
H	 0.468964051	 1.9899571505	 0.5887884867	 0.152196
H	-0.6386862924	 1.904390719	-0.8118582302	 0.14455
H	-1.2194682581	 1.5805863186	 0.84758552	 0.152203
H	-0.870000805	-2.347243461	-3.0628142249	 0.125635
H	 0.8207690466	-1.9372217153	-3.3231452991	 0.125635
H	 0.6701459247	-4.0465348126	-1.6802318087	 0.294927
H	 0.837832115	-2.5410292652	 1.7806885412	 0.135792
41.0116	58.1946	172.0332	179.4564	209.8689	342.4225	357.5825	425.3266	462.5706	578.1851	584.0499	665.3177	788.7566	803.2701	927.7038	1003.5773	1009.4614	1020.52	1043.6291	1070.7101	1130.2487	1200.8005	1244.7097	1298.9166	1312.1588	1315.3441	1385.5997	1413.7109	1450.212	1468.1032	1475.612	1478.8751	1498.6074	1578.8174	1614.9068	2986.8166	3002.6215	3051.0112	3109.2439	3160.7347	3163.6193	3707.1675
CC1=NC(CO)=NC=N1	Cc1nc(CO)ncn1	
InChI=1S/C5H7N3O/c1-4-6-3-7-5(2-9)8-4/h3,9H,2H2,1H3	InChI=1S/C5H7N3O/c1-4-6-3-7-5(2-9)8-4/h3,9H,2H2,1H3
