15
gdb 98049	3.91047	0.77563	0.65248	1.3508	74.51	-0.2453	-0.0938	0.1515	1658.2917	0.107766	-457.749933	-457.73941	-457.738466	-457.788325	34.144	
C	 0.0066296265	 1.4507643334	 0.0099792835	-0.507053
C	 0.0102689802	 0.0002279673	 0.0022682014	 0.177126
C	 0.0117174991	-1.2070773219	-0.0041326892	 0.026854
C	 0.0174258825	-2.6431376355	-0.0117901985	 0.084303
O	-0.9840217908	-3.3319972143	-0.0054680186	-0.285526
C	 1.4136702341	-3.3099819977	-0.0292240446	 0.288214
O	 2.4205928578	-2.6528366444	-0.0358857804	-0.258628
C	 1.3752670349	-4.8270940372	-0.0367058872	-0.177765
O	 2.6892810729	-5.3179355301	-0.0524063193	-0.40234
H	 1.0251405608	 1.8512588638	 0.0012299263	 0.168242
H	-0.5237065661	 1.8397551218	-0.866063522	 0.167351
H	-0.5048102265	 1.8303794199	 0.9012409669	 0.167358
H	 0.7982448214	-5.1481329327	 0.8461587742	 0.128299
H	 0.7806305739	-5.1390326959	-0.9110954382	 0.128307
H	 2.6453143391	-6.2783989065	-0.0574970545	 0.295259
16.5149	37.6809	67.4403	96.3541	142.5485	199.0827	239.8627	284.933	318.1506	358.691	396.4114	426.6016	462.8642	634.6235	709.8597	759.1173	868.2912	1004.4897	1042.3205	1051.8806	1071.2776	1147.0417	1231.2469	1233.1907	1278.3946	1407.5199	1444.5979	1466.145	1470.9542	1475.8696	1742.8293	1831.3718	2338.7463	2975.2741	2996.2395	3033.7651	3097.1806	3105.5793	3838.8621
CC#CC(=O)C(=O)CO	CC#CC(=O)C(=O)CO	
InChI=1S/C6H6O3/c1-2-3-5(8)6(9)4-7/h7H,4H2,1H3	InChI=1S/C6H6O3/c1-2-3-5(8)6(9)4-7/h7H,4H2,1H3
