19
gdb 83402	2.65923	1.3368	1.09491	1.8567	77.09	-0.2419	-0.019	0.2229	1182.11	0.157142	-423.007951	-422.998793	-422.997849	-423.042081	33.586	
C	 0.0053274902	 1.4414797502	-0.3624489208	-0.426562
C	 0.1351564195	-0.0361907947	-0.0729658273	-0.07913
C	 1.4334435664	-0.739359693	 0.0370775426	 0.057188
O	 2.4570043773	 0.0790670278	 0.5925455113	-0.276355
C	 1.7263779305	 0.1946897584	 1.8431336559	-0.1643
C	 0.5445448138	-0.6016912923	 1.292478613	 0.137964
C	-0.2516331813	-1.6648690053	 1.94742704	 0.290869
C	 0.0037730723	-1.9093638008	 3.4245055341	-0.495763
O	-1.0639861013	-2.3195354866	 1.3242264748	-0.324465
H	 0.9014277819	 1.9860057381	-0.0561866824	 0.136602
H	-0.125981858	 1.6021799011	-1.4374337775	 0.126666
H	-0.8608021287	 1.8729560563	 0.1489118046	 0.122731
H	-0.6395387555	-0.6758636358	-0.4896280359	 0.124961
H	 1.7324280739	-1.629397312	-0.5058377397	 0.120138
H	 2.2703426644	-0.3188117466	 2.6429195832	 0.113698
H	 1.5503837797	 1.2381726742	 2.1281093353	 0.111439
H	-0.0842898716	-0.9789893193	 3.9969576352	 0.136021
H	-0.7104948937	-2.6438746086	 3.7975355497	 0.144551
H	 1.0215958198	-2.285697251	 3.5790068441	 0.143746
59.5346	137.1792	147.3374	173.799	190.2554	245.2939	266.7495	349.5231	433.1755	490.8601	586.2883	590.9888	636.5562	739.1447	771.5113	888.7322	923.7435	948.4721	977.832	986.2251	1010.0579	1045.0323	1073.2053	1078.1617	1094.9845	1127.4558	1161.9368	1169.7381	1230.0782	1292.1871	1321.8989	1358.146	1380.5077	1411.5125	1456.9277	1463.4421	1475.6652	1492.7729	1502.865	1519.5995	1774.9699	3028.5865	3034.4456	3041.7237	3078.362	3094.0453	3101.6821	3125.5023	3153.8445	3155.3756	3179.5627
CC1C2OCC12C(C)=O	C[C@H]1[C@H]2OC[C@@]12C(=O)C	
InChI=1S/C7H10O2/c1-4-6-7(4,3-9-6)5(2)8/h4,6H,3H2,1-2H3	InChI=1S/C7H10O2/c1-4-6-7(4,3-9-6)5(2)8/h4,6H,3H2,1-2H3/t4-,6+,7-/m0/s1
