18
gdb 45596	2.78382	1.55844	1.2122	4.3819	71.43	-0.2325	0.0219	0.2544	1050.0037	0.15023	-439.108059	-439.100466	-439.099521	-439.140536	29.288	
O	-0.1749805536	 0.0299650337	 0.2510051404	-0.357382
C	-0.0783767293	 1.2147375301	 0.0864029639	 0.363585
N	-1.0023823938	 2.2130775931	-0.1416401564	-0.319115
C	-0.0878957056	 3.3449176558	 0.0657891882	-0.016198
C	-0.2420683123	 4.0650349084	 1.4246861279	-0.223169
C	 1.0731547673	 4.0985604566	 2.2201205603	-0.203127
C	 1.7106015214	 2.7121957394	 2.2537734022	-0.080335
O	 2.1019695078	 2.3086511759	 0.944546236	-0.244198
C	 1.0706900499	 2.278533966	 0.0152484226	-0.017048
H	-2.0119326602	 2.1806594805	-0.1292636427	 0.248317
H	-0.0815773389	 4.0524337295	-0.7682761747	 0.087544
H	-0.6309402982	 5.0777435587	 1.2789914298	 0.103469
H	-0.990434646	 3.5223362592	 2.0133544881	 0.106806
H	 1.7872364793	 4.7949207817	 1.7645601116	 0.110284
H	 0.8827026962	 4.4488991859	 3.2402557386	 0.103758
H	 2.629893644	 2.7078200265	 2.8444945923	 0.114132
H	 1.020494213	 1.9747041728	 2.6938851617	 0.106006
H	 1.5403861789	 2.2428055464	-0.9715463999	 0.116673
77.9309	92.5972	222.5304	334.0333	377.9501	406.6829	452.6031	480.8812	523.0471	630.1827	689.2986	761.3445	785.684	851.1972	866.4863	910.05	939.8609	965.8136	1017.3626	1049.6817	1090.5497	1126.3995	1150.4087	1181.6114	1202.2738	1214.5896	1259.2949	1277.2847	1305.1983	1347.1799	1358.5032	1376.8247	1381.0665	1391.7746	1415.7448	1478.0772	1490.9679	1505.1224	1894.352	2984.4879	3035.919	3036.996	3056.5064	3077.3174	3082.1154	3088.9286	3099.0123	3599.6933
O=C1NC2CCCOC12	O=C1N[C@H]2CCCO[C@@H]12	
InChI=1S/C6H9NO2/c8-6-5-4(7-6)2-1-3-9-5/h4-5H,1-3H2,(H,7,8)	InChI=1S/C6H9NO2/c8-6-5-4(7-6)2-1-3-9-5/h4-5H,1-3H2,(H,7,8)/t4-,5+/m0/s1
