16
gdb 8372	5.13315	1.33216	1.2323	4.1902	65.68	-0.2698	0.0112	0.281	1005.7179	0.129508	-383.75566	-383.748144	-383.7472	-383.787468	28.121	
C	 0.1215217303	 1.584063219	-0.2673934915	-0.409401
C	 0.0302225274	 0.0911896503	-0.0442322735	-0.073587
C	 1.2772560393	-0.7917848954	-0.0964943459	-0.360003
C	 0.5733639703	-0.5387526788	 1.1895257738	 0.445557
C	 1.0444368269	 0.0431545121	 2.5132649473	-0.499067
C	 0.2475391591	-1.1264433525	 3.1014967677	 0.437994
O	-0.0157180866	-1.5711185806	 4.170648306	-0.313831
O	-0.1454817646	-1.6023655659	 1.872268041	-0.259111
H	 1.0386933197	 1.9949021407	 0.1678910826	 0.118104
H	 0.129425069	 1.8205060919	-1.3364681101	 0.128403
H	-0.7271537612	 2.1078686217	 0.1854209094	 0.126772
H	-0.8709372376	-0.3818101557	-0.4260913061	 0.109836
H	 1.1802889664	-1.7791640548	-0.5341597778	 0.134453
H	 2.2404637114	-0.3152264697	-0.2534216147	 0.120864
H	 2.1163592001	-0.0001995458	 2.7145049384	 0.146503
H	 0.6555999704	 1.0276905535	 2.7807910333	 0.146516
94.343	165.8705	192.8294	219.9496	323.9955	411.5862	457.2172	515.0654	525.0701	552.1196	786.2797	798.5844	858.903	888.5671	895.1947	964.6127	1000.5464	1022.8503	1053.0174	1076.3896	1106.0205	1125.9089	1159.3766	1181.5392	1203.4241	1245.6102	1344.0639	1412.1799	1424.0584	1456.251	1490.3768	1493.6363	1511.4138	1945.6259	3030.5475	3083.9432	3096.5968	3098.2942	3127.5952	3139.8498	3148.9115	3219.3414
CC1CC11CC(=O)O1	C[C@H]1C[C@]21CC(=O)O2	
InChI=1S/C6H8O2/c1-4-2-6(4)3-5(7)8-6/h4H,2-3H2,1H3	InChI=1S/C6H8O2/c1-4-2-6(4)3-5(7)8-6/h4H,2-3H2,1H3/t4-,6+/m0/s1
