16
gdb 7998	3.60651	1.60687	1.18988	3.1877	60.64	-0.2523	-0.031	0.2212	971.8946	0.129755	-420.90045	-420.892661	-420.891717	-420.932633	29.233	
O	-0.0548691045	 1.401591477	 0.0740796836	-0.426366
C	 0.0106773828	-0.008722781	-0.0174380924	 0.114238
C	-1.4196206367	-0.5751763473	-0.0819278402	-0.25399
C	-1.2193682028	-1.9744774562	-0.6724198546	 0.065101
O	-2.3611979436	-2.5804041531	-1.2063408425	-0.443125
C	-0.1381717488	-1.7358843993	-1.726858261	 0.368908
O	-0.0653946596	-2.3723601386	-2.7489767125	-0.327931
C	 0.6928379626	-0.5287026944	-1.3079998812	-0.363477
H	 0.8334165235	 1.7381376856	 0.2284796427	 0.285956
H	 0.5240206166	-0.4259182967	 0.8624192449	 0.076373
H	-1.9189876398	-0.5725630153	 0.8881292041	 0.11684
H	-2.0109635601	 0.0318295418	-0.7768456807	 0.126079
H	-0.7575543295	-2.6191660539	 0.1022946915	 0.090277
H	-2.0746925579	-2.9928072361	-2.0351413038	 0.29233
H	 0.6103052527	 0.2301395682	-2.0950307909	 0.149213
H	 1.752429355	-0.7788279205	-1.2017799471	 0.129573
79.5231	127.0545	260.55	284.3488	318.5597	369.8779	390.6978	460.4368	486.628	520.02	590.0879	625.4283	753.7049	855.44	909.5548	948.7853	1011.8899	1043.595	1093.337	1114.1857	1153.4016	1180.5262	1185.5753	1235.2163	1258.8826	1279.0512	1296.2544	1357.0777	1378.6572	1416.9059	1430.5134	1446.092	1500.1924	1838.8439	2904.8854	2979.5617	3050.0633	3057.8701	3100.1406	3125.3414	3718.2972	3818.8841
OC1CC(O)C(=O)C1	O[C@H]1C[C@@H](O)C(=O)C1	
InChI=1S/C5H8O3/c6-3-1-4(7)5(8)2-3/h3-4,6-7H,1-2H2	InChI=1S/C5H8O3/c6-3-1-4(7)5(8)2-3/h3-4,6-7H,1-2H2/t3-,4+/m0/s1
