17
gdb 37390	2.92497	2.20428	1.78889	0.2928	69.09	-0.2405	0.0578	0.2983	816.9167	0.139101	-421.76066	-421.754918	-421.753974	-421.79039	25.258	
C	 0.0020030997	 1.5407430736	 0.087692475	-0.308251
C	 1.3054572849	 0.7859190192	-0.0559110201	-0.02531
C	-0.019231336	 0.0432740468	-0.0725224966	-0.021093
C	-0.1543081561	-0.7108924795	-1.3784510657	 0.016003
O	 0.9948964563	-1.6387957646	-1.3800896781	-0.298227
C	 1.7170449228	-0.6832019155	-2.1449238833	 0.07428
C	 1.931565066	 0.7454790463	-1.4400661042	 0.01459
O	 0.9883222101	 1.3295673591	-2.3945971679	-0.293545
C	 0.4702365363	 0.0255026462	-2.6402218775	 0.056201
H	-0.242369267	 1.9056240003	 1.0793572779	 0.109567
H	-0.3051206703	 2.1794418719	-0.7279999277	 0.13878
H	 1.9700483906	 0.6919266599	 0.794959235	 0.090393
H	-0.2924831612	-0.5463101332	 0.7969840423	 0.096878
H	-1.0939881097	-1.2497516368	-1.5145932279	 0.080455
H	 2.5397640878	-1.0927600003	-2.730680054	 0.093187
H	 2.9151783718	 1.2133901548	-1.5112051395	 0.080914
H	-0.036098426	-0.0876248283	-3.5989834577	 0.095177
265.7129	330.613	398.8087	499.2049	538.5788	615.5089	681.9481	723.877	747.0179	798.4865	812.8804	835.28	843.9664	878.7171	913.1491	951.6515	961.3906	1004.753	1027.7325	1045.6038	1063.7129	1089.4486	1097.9183	1110.8145	1115.8047	1152.2478	1188.455	1201.9716	1237.0478	1243.4515	1298.3926	1317.2911	1327.3641	1349.698	1362.9334	1401.6579	1473.6349	3089.6242	3092.8821	3111.7854	3125.0768	3147.9039	3155.2131	3177.6739	3251.451
C1C2C1C1OC3C2OC13	C1[C@H]2[C@@H]1[C@@H]1O[C@@H]3[C@H]2O[C@H]13	
InChI=1S/C7H8O2/c1-2-3(1)5-7-6(9-5)4(2)8-7/h2-7H,1H2	InChI=1S/C7H8O2/c1-2-3(1)5-7-6(9-5)4(2)8-7/h2-7H,1H2/t2-,3+,4-,5-,6+,7+/m0/s1
