22
gdb 110545	3.27094	1.34324	1.29292	1.5491	84.17	-0.2338	0.0928	0.3267	1124.1928	0.197779	-367.219128	-367.211559	-367.210615	-367.251048	31.093	
C	-0.0277572124	 1.6111067812	-0.1209554752	-0.379267
C	 0.0279632022	 0.0841928329	-0.0034580333	-0.202649
C	-1.3603314111	-0.5470113158	 0.0748064749	 0.088034
C	-1.4555291968	-2.0901492225	 0.161894725	-0.076748
C	-0.9358076151	-2.3478113958	 1.5933042909	-0.239197
C	-1.8159021061	-1.3051948185	 2.2728562238	-0.031509
C	-3.0960138685	-1.2459928694	 1.5104641166	-0.029784
C	-2.9807680614	-2.2426553968	 0.3597573872	-0.242063
N	-2.0761546388	-0.182965232	 1.3313176545	-0.127044
H	 0.9773013824	 2.043123662	-0.148959809	 0.105087
H	-0.5483437781	 1.917727381	-1.0352416963	 0.108937
H	-0.5662466837	 2.0403404253	 0.7280066579	 0.138125
H	 0.5530182435	-0.3391642921	-0.8695607977	 0.090307
H	 0.6137482057	-0.1893358575	 0.880917189	 0.098591
H	-1.9585505281	-0.1783470363	-0.7688867069	 0.066933
H	-1.0013272345	-2.6652294707	-0.6436885422	 0.063772
H	-1.1546901477	-3.3628853757	 1.9407184099	 0.097818
H	 0.1347439612	-2.1666566015	 1.7158835985	 0.102156
H	-1.7335240597	-1.0552903059	 3.3234483021	 0.086204
H	-4.0439479051	-0.9570522305	 1.9482267478	 0.086807
H	-3.5576876166	-1.9480766165	-0.5225909978	 0.098836
H	-3.2797980714	-3.2549580445	 0.6507362803	 0.096654
94.3647	179.6518	192.2808	269.2904	361.0788	439.507	463.2616	519.4097	667.4096	691.3338	765.8173	813.2064	822.8248	853.6514	879.6904	913.5227	924.1376	930.1441	940.0584	942.0919	974.928	1009.2085	1030.231	1052.368	1061.2691	1087.1348	1123.6184	1140.8335	1149.5647	1159.8565	1209.5742	1220.8643	1253.3635	1271.2882	1277.378	1296.778	1302.8299	1332.3156	1344.1883	1384.5632	1405.3154	1411.3769	1481.504	1488.1373	1497.6068	1506.4554	1510.3946	3016.894	3024.8876	3035.0564	3046.3862	3055.0158	3068.8866	3091.1675	3099.3356	3105.0269	3123.1137	3130.3866	3180.8449	3192.3069
CCC1C2CC3C(C2)N13	CC[C@H]1[C@H]2C[C@@H]3[C@H](C2)N13	
InChI=1S/C8H13N/c1-2-6-5-3-7-8(4-5)9(6)7/h5-8H,2-4H2,1H3	InChI=1S/C8H13N/c1-2-6-5-3-7-8(4-5)9(6)7/h5-8H,2-4H2,1H3/t5-,6-,7+,8-,9?/m0/s1
