17
gdb 77718	2.96486	1.63166	1.55448	2.0781	71.77	-0.2293	0.	0.2293	932.6442	0.137089	-421.765041	-421.757993	-421.757048	-421.796041	28.751	
O	 0.0074345727	 1.3647643971	 0.0639348307	-0.438444
C	-0.0344840608	-0.0190242155	 0.022037027	 0.057143
C	-1.3460574136	-0.7945402438	 0.0589962141	 0.100749
C	-2.3801030992	-0.0531638064	-0.792233489	-0.158087
O	-1.4505453124	 0.0995935276	-1.9147978629	-0.341784
C	-0.4978374707	-0.7295244276	-1.2116243557	 0.288521
C	-0.1313130113	-2.1210094398	-1.5522181066	-0.1798
C	-0.587450537	-2.953474958	-0.6032005493	-0.056455
C	-1.3935739253	-2.2540533124	 0.4933522513	-0.360624
H	-0.3758687225	 1.6683082682	-0.7712224889	 0.299221
H	 0.7872075121	-0.4788196983	 0.5625532881	 0.114935
H	-3.2294535404	-0.6804556738	-1.0832605193	 0.11654
H	-2.7371670666	 0.9171473975	-0.4298291406	 0.114837
H	 0.4581258164	-2.4125060994	-2.4134874382	 0.108133
H	-0.3800291845	-4.0195349101	-0.5731536691	 0.102105
H	-0.9501173618	-2.417840627	 1.4837020894	 0.119597
H	-2.4191683251	-2.6423334884	 0.5520599291	 0.113412
193.6293	212.1706	270.7812	282.1067	366.108	450.2031	472.7236	517.2936	600.0468	682.7092	743.5912	757.8357	796.8849	843.1331	864.4774	910.8957	929.8271	956.5191	969.0947	991.0532	1032.9077	1104.9957	1114.1189	1135.0829	1155.1653	1178.7415	1209.5895	1234.7994	1278.8581	1311.164	1324.1288	1364.2765	1378.6483	1456.5341	1477.9997	1511.301	1632.8878	3016.4663	3029.6857	3045.43	3083.1445	3165.4022	3172.9466	3207.4597	3742.4508
OC1C23COC12C=CC3	O[C@H]1[C@@]23CO[C@@]12C=CC3	
InChI=1S/C7H8O2/c8-5-6-2-1-3-7(5,6)9-4-6/h1,3,5,8H,2,4H2	InChI=1S/C7H8O2/c8-5-6-2-1-3-7(5,6)9-4-6/h1,3,5,8H,2,4H2/t5-,6+,7-/m0/s1
