19
gdb 43132	2.46762	1.90828	1.6011	2.8531	78.92	-0.2286	-0.0028	0.2258	944.6527	0.1616	-385.860286	-385.853239	-385.852295	-385.891388	29.053	
O	 0.1345863642	 0.0240139695	 0.0943772798	-0.337425
C	 0.0240002349	 1.2138961258	 0.0952428847	 0.411179
C	-1.089378526	 2.2460789617	-0.0161156608	-0.177965
C	-0.8088714759	 3.0096890137	 1.3303901715	-0.222071
C	 0.7824677892	 3.0736339954	 1.3674632587	-0.331415
C	 1.0148046985	 2.4209761655	 0.0097968705	 0.237278
C	 2.0174051637	 2.3072198611	-1.1461436718	-0.336779
C	 0.7750126643	 2.4118281304	-2.1104455503	-0.274863
C	-0.0755060221	 3.0037620571	-0.9312007224	-0.020124
H	-2.1288549397	 2.0135751384	-0.2456603382	 0.078867
H	-1.2495427433	 4.0096984241	 1.308673121	 0.110613
H	-1.225693549	 2.4731777536	 2.1858754834	 0.116007
H	 1.1456566117	 4.1039240409	 1.4115488522	 0.105316
H	 1.1987093337	 2.5263144454	 2.2180872132	 0.111158
H	 2.6766650395	 3.1758350935	-1.2325611895	 0.106518
H	 2.6170027665	 1.3950743687	-1.1933115095	 0.115252
H	 0.8854703095	 3.0742569602	-2.9700159279	 0.103393
H	 0.4331108359	 1.4362267446	-2.4632296603	 0.128036
H	-0.1971422158	 4.0887552205	-0.9685676444	 0.077025
145.4253	218.8917	248.5222	268.6254	384.0111	464.1355	533.9951	638.717	643.3318	745.0616	768.5299	772.9801	814.9611	843.4939	853.5408	862.5853	906.9826	917.7658	992.1529	1010.4453	1021.5513	1065.5829	1074.9959	1104.9353	1121.1799	1163.2146	1197.8774	1206.6599	1211.7552	1236.6982	1249.15	1253.1656	1278.1706	1291.3378	1313.557	1334.8652	1474.7371	1487.7914	1491.9594	1510.3837	1897.993	3051.2392	3056.962	3065.3823	3075.8711	3082.9083	3093.5565	3109.9675	3117.3121	3124.3382	3134.7351
O=C1C2CCC11CCC21	O=C1[C@H]2CC[C@]31CC[C@@H]23	
InChI=1S/C8H10O/c9-7-5-1-3-8(7)4-2-6(5)8/h5-6H,1-4H2	InChI=1S/C8H10O/c9-7-5-1-3-8(7)4-2-6(5)8/h5-6H,1-4H2/t5-,6-,8-/m0/s1
