19
gdb 85339	1.87037	1.71101	0.91993	5.5634	81.5	-0.2136	-0.0037	0.2099	1259.563	0.161156	-419.271165	-419.262449	-419.261505	-419.304125	33.963	
C	-0.0177689948	 1.5528322788	-0.0100876307	-0.408216
C	 0.0581080001	 0.0280569949	 0.0151605385	 0.049679
C	 0.6417736578	-0.5419465034	-1.2821125911	-0.288756
C	 0.9250582749	-2.0195404012	-1.1557929409	 0.347732
N	 0.8735163652	-2.7403233745	-2.3275218814	-0.567913
C	 1.1918633701	-2.5573971836	 0.0536509892	-0.286162
C	 1.2393247975	-1.7529501016	 1.2774492271	 0.394028
O	 1.5941948928	-2.194151125	 2.3599703621	-0.398863
N	 0.8882467522	-0.4163101839	 1.1271620596	-0.34963
H	 0.9800387735	 1.9883047916	-0.1238388443	 0.126667
H	-0.6465445337	 1.8949109005	-0.837830883	 0.118994
H	-0.4531564908	 1.9365606148	 0.9186257986	 0.119483
H	-0.9665294961	-0.3705900537	 0.1166274226	 0.080338
H	-0.0571779549	-0.3618898891	-2.1066458936	 0.109401
H	 1.577482119	-0.0184809104	-1.5263241936	 0.12235
H	 1.0020259625	-2.2311714139	-3.1877660326	 0.25375
H	 1.3063907294	-3.6515950469	-2.325189708	 0.257916
H	 1.4376308124	-3.6062693148	 0.174906988	 0.085676
H	 0.7488080628	 0.0450630714	 2.0158567235	 0.233526
135.6471	140.7457	172.9288	245.3807	263.4744	327.4387	383.7627	438.199	449.0205	470.9827	505.4675	536.9501	570.2426	580.8854	649.2725	751.2745	861.9122	883.716	911.8721	920.2477	959.0131	1009.826	1080.9378	1109.2265	1119.6328	1203.891	1222.5425	1263.3468	1302.9021	1340.2161	1360.6277	1403.0512	1410.7393	1416.9423	1447.3978	1467.2499	1494.3159	1500.8771	1648.763	1692.7711	1767.5894	2941.6145	3008.357	3034.5351	3066.7304	3103.5271	3113.8381	3195.2244	3576.6738	3591.9903	3685.5978
CC1CC(N)=CC(=O)N1	C[C@H]1CC(=CC(=O)N1)N	
InChI=1S/C6H10N2O/c1-4-2-5(7)3-6(9)8-4/h3-4H,2,7H2,1H3,(H,8,9)	InChI=1S/C6H10N2O/c1-4-2-5(7)3-6(9)8-4/h3-4H,2,7H2,1H3,(H,8,9)/t4-/m0/s1
