12
gdb 27472	2.66689	1.7837	1.19688	3.9964	64.44	-0.2536	-0.1002	0.1534	953.9216	0.078939	-468.837174	-468.830259	-468.829315	-468.868723	25.479	
O	 0.0114001395	 1.1842418585	 0.5370860108	-0.359998
C	-0.0480901848	-0.0596376174	 0.0545484283	 0.453818
N	-1.2123462615	-0.6029680803	-0.0355781708	-0.29248
C	-1.3951042741	-1.9305910256	-0.3430400482	 0.340704
O	-2.2493591088	-2.3787899899	-1.070177012	-0.316231
C	-0.4738466082	-2.8456794897	 0.4258039745	-0.050411
N	 0.8024183581	-2.7957224411	 0.3313969923	-0.176118
C	 1.4617421826	-1.790362883	-0.3326642347	 0.091467
N	 1.1776150672	-0.5317242909	-0.386915774	-0.317683
H	 0.9282838382	 1.4793289757	 0.4518245462	 0.315974
H	-0.921763947	-3.6150960463	 1.0571862791	 0.159943
H	 2.4110131686	-2.0991307601	-0.7677588316	 0.151014
117.8846	155.3827	252.8485	301.1655	411.0861	431.9897	489.5014	555.9369	573.6529	615.1708	718.3004	771.2479	841.3631	880.0066	952.2955	973.2861	1017.6563	1108.2517	1184.3734	1317.5944	1362.5719	1377.1806	1436.1801	1566.73	1668.3408	1707.9728	1800.8327	3123.546	3154.5277	3783.2786
OC1=NC(=O)C=NC=N1	O[C]1[N]C(=O)C=NC=N1	
InChI=1S/C4H3N3O2/c8-3-1-5-2-6-4(9)7-3/h1-2H,(H,7,8,9)	InChI=1S/C4H3N3O2/c8-3-1-5-2-6-4(9)7-3/h1-2H,(H,7,8,9)
