17
gdb 12143	4.80529	1.55449	1.41766	1.2143	68.86	-0.2334	0.076	0.3094	912.3236	0.14233	-363.796453	-363.789231	-363.788286	-363.827498	28.689	
O	-0.2043269925	 1.4107567632	-0.0165617881	-0.460895
C	-0.0937380803	 0.0336269834	 0.0379659417	 0.404361
C	-0.3572337501	-0.8500131697	-1.1460995717	-0.34542
C	-1.2496954356	-0.9602444743	 0.0813697536	-0.210771
C	-0.5197688301	-1.7344864165	 1.1564112513	 0.391439
C	-1.1158877442	-2.4456997437	 2.3023215409	-0.317378
N	-0.367381486	-3.1847567976	 1.2587983452	-0.365927
C	 0.6515530264	-0.7286292546	 1.1482443323	-0.371543
H	 0.5311725326	 1.7523861364	-0.5370257829	 0.286465
H	-0.8234440386	-0.339420247	-1.9829650834	 0.113474
H	 0.317087623	-1.6590502771	-1.4172743948	 0.11279
H	-2.3169027284	-0.7799979158	 0.0288507029	 0.09458
H	-0.633302115	-2.4175346604	 3.2760777957	 0.117768
H	-2.1986001561	-2.5438636592	 2.3376943007	 0.110673
H	-1.0189938794	-3.6474732817	 0.6284320817	 0.22846
H	 1.6409970244	-1.1279107746	 0.9050884432	 0.09943
H	 0.7033667399	-0.1468758608	 2.0721888519	 0.112491
112.5419	241.795	264.8948	282.0915	383.4638	397.2734	417.0458	470.9441	538.9647	667.761	775.8436	822.0204	836.0258	887.8819	919.2939	934.2552	961.0533	981.9376	994.7637	1022.1942	1047.1136	1074.7242	1097.2135	1127.6016	1131.8488	1208.5731	1217.5231	1246.307	1268.6041	1290.9488	1315.0063	1403.3303	1425.7997	1472.7828	1498.7078	1520.2627	3050.1998	3099.2378	3106.4862	3110.3394	3182.3418	3183.4843	3204.3194	3487.2623	3793.4918
OC12CC1C1(CN1)C2	O[C@]12C[C@H]1[C@]1(CN1)C2	
InChI=1S/C6H9NO/c8-6-1-4(6)5(2-6)3-7-5/h4,7-8H,1-3H2	InChI=1S/C6H9NO/c8-6-1-4(6)5(2-6)3-7-5/h4,7-8H,1-3H2/t4-,5+,6-/m0/s1
