18
gdb 84297	2.41186	1.89799	1.17105	5.145	81.22	-0.202	-0.0232	0.1788	1053.2788	0.148041	-401.969732	-401.961435	-401.960491	-402.00266	31.349	
C	 0.1233977096	 1.4216906228	 0.0117174762	-0.347013
N	-0.1283381833	 0.0017326069	 0.0139546377	-0.097611
C	-0.0581262744	-0.7979909878	-1.0871505056	-0.010799
C	 0.0203980555	-2.1298712071	-0.8042238419	-0.322875
C	 0.0537260942	-2.2723193459	 0.639800601	 0.360766
O	 0.1128005432	-3.259276095	 1.3536243981	-0.389874
C	-0.0170534226	-0.8475945844	 1.1710974802	 0.232085
C	 0.7612373271	-0.4896201782	 2.416292116	-0.303298
C	-0.7344245612	-0.5920846891	 2.4743436893	-0.297384
H	 1.1752513259	 1.6675544632	 0.2170718702	 0.131198
H	-0.1384524264	 1.8273586205	-0.9688853148	 0.139368
H	-0.499090523	 1.9240152496	 0.7594545644	 0.137649
H	-0.0813544708	-0.3292363145	-2.0642111745	 0.129409
H	 0.0355897213	-2.9373230407	-1.5184150081	 0.11055
H	 1.3452394521	-1.29977881	 2.8399658225	 0.146174
H	 1.2100321256	 0.4956332991	 2.4760076026	 0.116898
H	-1.3086615703	 0.3230324344	 2.5679922334	 0.117143
H	-1.1676114324	-1.4730846639	 2.9357199132	 0.147614
74.7217	128.8066	186.3582	230.5211	239.6896	300.2294	345.7383	500.8113	533.4369	546.0565	657.976	720.7216	752.0806	780.2293	788.3288	833.3393	908.7304	935.5175	963.6057	987.5833	1033.9415	1063.7081	1085.467	1106.0089	1137.1054	1152.9521	1195.7039	1201.9675	1294.6291	1336.985	1371.4325	1439.5401	1444.5927	1466.472	1477.4988	1484.5532	1522.6008	1597.9322	1774.591	2997.1611	3069.8623	3117.3811	3133.6286	3134.7063	3204.9445	3221.4597	3235.1427	3265.9435
CN1C=CC(=O)C11CC1	CN1C=CC(=O)C21CC2	
InChI=1S/C7H9NO/c1-8-5-2-6(9)7(8)3-4-7/h2,5H,3-4H2,1H3	InChI=1S/C7H9NO/c1-8-5-2-6(9)7(8)3-4-7/h2,5H,3-4H2,1H3
