18
gdb 6439	4.18786	1.39253	1.2656	5.0378	72.34	-0.2426	0.0286	0.2712	1024.0903	0.153386	-343.985094	-343.976612	-343.975668	-344.017803	31.546	
C	 0.5831973626	 1.5730734256	-0.046719937	-0.41298
C	-0.0631845254	 0.194621462	-0.0437151116	 0.090292
C	 0.3121118487	-0.7526141721	-1.2161145215	-0.308041
C	 1.0736509198	-1.6264070039	-0.1652339251	 0.181174
C	 2.6016657117	-1.6061080715	-0.2826043387	-0.450856
N	 0.4942744413	-0.794203043	 0.9194833953	-0.346937
C	 0.6103444751	-3.0236673895	-0.0937625428	 0.271918
N	 0.2540239428	-4.1227527931	-0.0601466524	-0.345807
H	 1.6619059826	 1.5163621586	-0.2292090142	 0.116239
H	 0.1408046155	 2.2040152058	-0.8253873216	 0.126056
H	 0.4271286816	 2.0757313739	 0.9144787399	 0.125693
H	-1.1442799687	 0.3085140812	 0.0960178999	 0.087222
H	-0.5317522304	-1.2549036316	-1.68857085	 0.130326
H	 0.9555253258	-0.3235329905	-1.9869780631	 0.113533
H	 2.9576115649	-0.5775779872	-0.3882610521	 0.123942
H	 3.0616953539	-2.0472694282	 0.6073465108	 0.139036
H	 2.932708617	-2.1802959843	-1.1533275189	 0.14157
H	 1.1781740213	-0.4319779022	 1.576096233	 0.217621
69.3298	153.9785	187.8654	236.8289	245.2692	315.4806	337.801	356.3194	408.2438	545.5909	577.3471	603.4844	700.6001	787.7403	871.9862	892.2564	929.3251	933.4396	961.5767	999.6028	1077.0395	1118.4904	1171.6136	1180.3406	1194.3098	1236.9001	1269.1504	1311.4533	1355.0386	1403.9149	1408.4691	1415.9128	1482.6249	1484.512	1488.7731	1494.1322	1498.2505	2351.9773	3025.4807	3029.8699	3038.1383	3080.7338	3095.7829	3099.3162	3112.9068	3120.7267	3144.9355	3523.6793
CC1CC(C)(N1)C#N	C[C@H]1C[C@@](C)(N1)C#N	
InChI=1S/C6H10N2/c1-5-3-6(2,4-7)8-5/h5,8H,3H2,1-2H3	InChI=1S/C6H10N2/c1-5-3-6(2,4-7)8-5/h5,8H,3H2,1-2H3/t5-,6+/m0/s1
