21
gdb 83352	2.14298	2.00882	1.55741	1.5502	81.55	-0.2363	0.0117	0.2479	997.1063	0.18355	-387.096397	-387.088314	-387.08737	-387.128191	33.03	
C	-0.0953449222	 1.5465754817	-0.0454221988	-0.435237
C	 0.0354258556	 0.0278528492	 0.0019459873	-0.003425
C	 1.07788994	-0.5878790571	-0.951531813	 0.041445
O	 2.3280665349	-0.0418008532	-0.4272185078	-0.278666
C	 2.1891376192	-0.0584074252	 0.994740248	-0.099897
C	 0.7489837147	-0.6150963013	 1.2448751592	 0.242871
C	 0.1837964234	-0.3680514704	 2.6308140508	-0.502754
C	 0.8322579889	-2.05991994	 0.7712421186	-0.113702
C	 1.0248654822	-2.0507582931	-0.5519748063	-0.094583
H	 0.8791789432	 2.0395848725	-0.0707541196	 0.135905
H	-0.6423261532	 1.8506124873	-0.9442682388	 0.115156
H	-0.6538206762	 1.9251840366	 0.8173893443	 0.113434
H	-0.9424442628	-0.442140935	-0.1339028286	 0.072865
H	 1.0316801028	-0.3414321022	-2.0115354854	 0.068647
H	 2.9591366702	-0.6938732973	 1.4486966718	 0.094044
H	 2.299518355	 0.961006438	 1.3873082317	 0.092927
H	 0.1492225442	 0.700830956	 2.8656460428	 0.118951
H	-0.8326907374	-0.7656591929	 2.7193832748	 0.120105
H	 0.7964458056	-0.8533197391	 3.3991195858	 0.117512
H	 0.8393167949	-2.9138286543	 1.4389322368	 0.094331
H	 1.2303720568	-2.88972218	-1.2040257337	 0.10007
169.7848	206.5258	227.8585	246.5668	287.1428	321.7795	368.7578	406.2508	514.6573	550.428	616.2027	692.0574	727.387	765.5381	774.6234	852.1182	877.5194	904.4833	935.2887	954.5327	972.3921	996.1937	1011.9294	1057.9697	1067.7813	1079.7444	1125.8826	1165.447	1182.63	1224.2739	1240.8497	1259.8108	1273.8969	1294.4407	1345.1125	1372.0274	1378.4537	1407.0525	1416.3295	1490.563	1494.6063	1498.0808	1504.0461	1526.2858	1636.7782	3009.7149	3027.8997	3036.8023	3049.378	3071.4605	3090.2618	3093.4099	3099.2508	3126.3678	3130.8271	3189.7731	3222.0321
CC1C2OCC1(C)C=C2	C[C@H]1[C@H]2OC[C@]1(C)C=C2	
InChI=1S/C8H12O/c1-6-7-3-4-8(6,2)5-9-7/h3-4,6-7H,5H2,1-2H3	InChI=1S/C8H12O/c1-6-7-3-4-8(6,2)5-9-7/h3-4,6-7H,5H2,1-2H3/t6-,7-,8-/m0/s1
