20
gdb 104238	2.28142	1.33828	1.0851	1.2351	78.42	-0.2415	0.0241	0.2656	1242.9406	0.168315	-440.269334	-440.259061	-440.258117	-440.304885	35.983	
C	 0.076339861	 1.4146323184	-0.0562790158	-0.261733
O	-0.0397760078	 0.0055885418	 0.0903953662	-0.284627
C	 0.6462337122	-0.5510974996	 1.1891967804	 0.24351
C	 0.1235020776	-0.0810862775	 2.5417142769	-0.461579
C	 0.7867967685	-2.0783141764	 0.9929317728	-0.118474
O	 2.2406891415	-1.9551798795	 0.9229099509	-0.270523
C	 2.1717150095	-0.5782032399	 1.0504694478	 0.432029
N	 3.0711377267	 0.291328139	 1.0370283703	-0.340012
C	 4.4565848304	-0.1186887693	 0.8415630311	-0.342808
H	 1.1234514748	 1.7353314596	-0.0242091597	 0.145748
H	-0.3496229802	 1.6554814688	-1.0329012195	 0.127069
H	-0.4888765245	 1.9565539826	 0.7139837085	 0.108276
H	-0.9601845541	-0.2253468115	 2.594742863	 0.126348
H	 0.5945963066	-0.6446281259	 3.3520850959	 0.127125
H	 0.348144112	 0.9762829108	 2.701952714	 0.140243
H	 0.4862317344	-2.7131595001	 1.8295195637	 0.115124
H	 0.3723860542	-2.4384066288	 0.0497491577	 0.128664
H	 4.5861048366	-1.1947107284	 0.6792548578	 0.129098
H	 4.8697673626	 0.4204419623	-0.017621503	 0.128309
H	 5.044020558	 0.1779444334	 1.7175278312	 0.128211
73.9321	97.2123	105.0001	126.4463	176.823	189.6738	246.9901	256.2997	298.9577	339.8796	386.7033	426.8771	580.9759	682.7532	720.5656	766.4256	896.7392	914.868	951.315	977.3267	1036.7345	1093.6882	1099.8006	1129.8601	1153.1117	1157.837	1183.3644	1190.6075	1219.5258	1246.1312	1255.5787	1358.7799	1404.5322	1438.6435	1474.5135	1482.9035	1488.1909	1493.997	1496.1151	1502.7194	1507.6212	1514.0209	1838.3339	3006.9425	3019.7452	3043.6233	3069.0001	3077.7234	3084.8866	3091.6277	3117.4553	3123.9161	3126.8354	3137.6081
COC1(C)COC1=NC	CO[C@@]1(C)COC1=NC	
InChI=1S/C6H11NO2/c1-6(8-3)4-9-5(6)7-2/h4H2,1-3H3	InChI=1S/C6H11NO2/c1-6(8-3)4-9-5(6)7-2/h4H2,1-3H3/t6-/m0/s1
