20
gdb 51085	4.05307	1.06385	1.01589	3.5986	81.05	-0.253	0.0244	0.2775	1248.7172	0.172861	-403.140208	-403.132255	-403.131311	-403.173187	31.034	
N	-0.0942917556	 1.2727384159	-0.0442789166	-0.445445
C	-0.0828895766	 0.0231461251	 0.1368441929	 0.104991
O	-1.153072852	-0.7173631703	-0.2128382944	-0.245972
C	-1.0384654061	-2.1154821905	-0.0892244826	 0.438596
C	-0.6373470731	-2.8387872406	 1.2338123275	-0.283541
C	-1.384407672	-4.0163395494	 0.5420691456	-0.027692
C	-2.3438818674	-2.9381858046	-0.0434295462	-0.274631
C	-0.4678799518	-4.3209793456	-0.6640251442	-0.209871
C	-0.2041474839	-2.8604936651	-1.1522190212	-0.263556
H	 0.7772547274	 1.6770054727	 0.2924302493	 0.226982
H	 0.7316584765	-0.5617260236	 0.5826452237	 0.087752
H	 0.4244019267	-2.967251695	 1.4641392526	 0.091272
H	-1.1757809689	-2.443432724	 2.0974564028	 0.109964
H	-1.7610902097	-4.8604881695	 1.116678754	 0.071179
H	-3.0471262369	-2.5475503361	 0.6941363443	 0.109317
H	-2.8509088664	-3.1477095287	-0.9891066296	 0.097339
H	 0.449248146	-4.8378447698	-0.3680347512	 0.100302
H	-0.9693543308	-4.9310686295	-1.4201792329	 0.103436
H	-0.5766535962	-2.6646864474	-2.1608786231	 0.112033
H	 0.853020251	-2.581371184	-1.1205731608	 0.097543
66.8896	94.9494	154.3093	287.2206	353.3466	397.4367	432.5552	475.6942	526.3903	631.2384	759.7608	821.361	827.6004	832.7972	837.7707	890.2036	923.2812	943.0802	971.8975	983.2919	1006.9674	1025.662	1045.1707	1072.7937	1086.2693	1118.7423	1141.1586	1177.4485	1203.7584	1233.4848	1245.0585	1247.1653	1267.7704	1270.559	1299.7885	1324.1512	1334.4441	1423.0682	1486.6828	1493.5588	1501.4374	1535.4513	1743.078	3037.0833	3053.3724	3054.583	3061.3105	3066.6525	3093.4497	3111.9119	3124.3571	3130.4554	3134.667	3514.6259
N=COC12CC(C1)CC2	[NH][CH]O[C@@]12C[C@@H](C1)CC2	
InChI=1S/C7H11NO/c8-5-9-7-2-1-6(3-7)4-7/h5-6,8H,1-4H2	InChI=1S/C7H11NO/c8-5-9-7-2-1-6(3-7)4-7/h5-6,8H,1-4H2/t6-,7-
