16
gdb 85090	1.92871	1.62881	1.19451	4.3372	70.25	-0.2619	-0.0479	0.214	1088.092	0.121953	-437.903013	-437.893879	-437.892935	-437.936999	33.011	
C	-0.1010367557	 1.5128878217	-0.0053756497	-0.425573
C	-0.0506203315	-0.0234254891	-0.0585031824	-0.042483
C	-1.3640006183	-0.6212308956	 0.0896658126	 0.242603
N	-2.4021345012	-1.1238915654	 0.1802328815	-0.3346
C	 0.826313752	-0.6012178953	-1.2601980272	 0.084474
O	 1.1738720559	 0.2886446054	-2.2810044599	-0.410826
C	 1.9976506081	-0.877934708	-0.288100207	-0.374658
C	 1.0620908402	-0.5931297741	 0.8867610643	 0.392448
O	 1.1119993185	-0.7593986837	 2.0650342122	-0.274004
H	 0.8988865296	 1.9332950209	-0.1309464992	 0.140008
H	-0.7348538769	 1.9021091945	-0.8061517536	 0.136264
H	-0.5073309824	 1.83885385	 0.9545598512	 0.153835
H	 0.3816243835	-1.5241134617	-1.6477430319	 0.107199
H	 0.447616561	 0.342057041	-2.9109242432	 0.298894
H	 2.4603025047	-1.8661786781	-0.3097697611	 0.149337
H	 2.7806010523	-0.1176663724	-0.3803474968	 0.157082
64.721	117.2689	161.9168	203.8989	212.9078	247.5064	322.2297	328.3278	421.2513	474.5608	488.7442	551.6794	606.8211	626.4672	694.0072	818.2378	862.5274	936.1545	957.7388	1040.3219	1080.0383	1112.1363	1132.7051	1160.5762	1215.0982	1227.1622	1253.7805	1313.1457	1410.1461	1420.7103	1444.6221	1483.6534	1493.7081	1907.795	2344.3212	3048.9041	3055.6853	3065.1345	3131.2044	3132.3677	3142.8012	3818.3343
CC1(C#N)C(O)CC1=O	C[C@@]1(C#N)[C@@H](O)CC1=O	
InChI=1S/C6H7NO2/c1-6(3-7)4(8)2-5(6)9/h4,8H,2H2,1H3	InChI=1S/C6H7NO2/c1-6(3-7)4(8)2-5(6)9/h4,8H,2H2,1H3/t4-,6+/m0/s1
