21
gdb 39459	2.51033	1.67177	1.18394	1.048	83.74	-0.2352	0.019	0.2542	1105.216	0.185002	-387.070407	-387.062463	-387.061519	-387.10272	31.839	
C	 0.1921157633	 1.3548356905	-0.6594937762	-0.304363
C	 1.3091575342	 0.6503886699	 0.0689560929	 0.003426
C	 1.860601485	 1.1354827036	 1.3982674598	-0.107994
O	 0.863506514	 1.4768024672	 2.3516740694	-0.245432
C	 0.7763946135	 0.5963100405	 3.4582455983	-0.133935
C	 0.2740134216	-0.7966217436	 3.1594202469	-0.05608
C	-0.4813069454	-1.1710973318	 2.1268775336	-0.055734
C	-1.0000688604	-0.2558378298	 1.0427332893	-0.273151
C	-0.0218063214	-0.0387549922	-0.1110754482	-3.*^-6
H	-0.310356309	 2.1601420593	-0.1326333277	 0.119987
H	 0.277511569	 1.5041299398	-1.7306757372	 0.104112
H	 2.1082116575	 0.2746970412	-0.5676970261	 0.078417
H	 2.5325472107	 0.3710519836	 1.8121857752	 0.094627
H	 2.4654288148	 2.0370872568	 1.2256014009	 0.101449
H	 1.7584983844	 0.5188813525	 3.9550454746	 0.095628
H	 0.10911601	 1.095685258	 4.1738063043	 0.118697
H	 0.5789773976	-1.5463030369	 3.8878352099	 0.083045
H	-0.7400050704	-2.2248779882	 2.041656385	 0.085401
H	-1.9258680453	-0.6744315908	 0.630824882	 0.091667
H	-1.2551340206	 0.7115157409	 1.4774708235	 0.121354
H	-0.0160752932	-0.8458991307	-0.8393757901	 0.078882
80.6976	175.6849	241.7282	255.6779	299.3364	365.6322	405.201	451.1241	487.9577	630.8693	698.9	736.818	755.5282	807.1095	844.8852	868.6948	905.0326	935.4391	971.5118	1001.4004	1008.1642	1034.9324	1047.1473	1073.1879	1079.8771	1122.5938	1133.2615	1146.8166	1169.499	1237.3287	1241.2908	1286.8962	1290.5575	1322.3434	1329.073	1386.5334	1394.7625	1407.9008	1418.2199	1432.654	1481.8087	1483.4076	1498.067	1501.9702	1725.113	2959.1594	2993.7886	3028.5275	3031.9517	3037.0055	3108.3274	3118.8038	3125.3205	3129.1034	3137.0649	3153.8812	3211.0132
C1C2COCC=CCC12	C1[C@H]2COCC=CC[C@@H]12	
InChI=1S/C8H12O/c1-2-4-9-6-8-5-7(8)3-1/h1-2,7-8H,3-6H2/b2-1-	InChI=1S/C8H12O/c1-2-4-9-6-8-5-7(8)3-1/h1-2,7-8H,3-6H2/b2-1-/t7-,8-/m0/s1
