16
gdb 46129	3.12439	1.13546	0.91696	5.6051	69.2	-0.2607	0.018	0.2787	1229.4863	0.126873	-434.13306	-434.12497	-434.124026	-434.166384	29.724	
O	 0.1677970291	 0.0233699467	 0.1133151117	-0.396108
C	 0.07936698	 1.2257958452	 0.05440299	 0.431921
N	-1.0282993253	 2.0023851447	 0.3929361996	-0.341644
C	-0.8585003601	 3.3694757612	-0.0716782119	-0.189225
C	 0.684595446	 3.4931906227	-0.091134263	 0.018332
C	 1.2272832604	 4.0231481967	 1.2641995049	-0.345197
C	 2.6846154354	 3.9668549984	 1.3163582932	 0.254316
N	 3.8384244658	 3.8999397658	 1.3143546669	-0.300534
N	 1.062018712	 2.1202188059	-0.3606246714	-0.335141
H	-1.9267051196	 1.5485505594	 0.3429760137	 0.25828
H	-1.2622189533	 3.52833241	-1.0810076783	 0.119335
H	-1.321882042	 4.0944193152	 0.6043164842	 0.118918
H	 1.0204984166	 4.1608993239	-0.8890968807	 0.112336
H	 0.9043062026	 5.0594353427	 1.4148639128	 0.154133
H	 0.8135953893	 3.4228333452	 2.0818498603	 0.17067
H	 2.0247517232	 1.8221084962	-0.3200255122	 0.269606
62.805	126.5054	134.8079	201.008	324.1607	395.625	408.4597	480.7638	532.1573	538.1558	560.9095	706.268	756.8943	768.4987	846.666	932.5517	956.5428	968.745	998.5506	1065.1214	1101.4969	1127.2957	1212.4739	1231.2547	1254.8102	1271.9454	1320.3213	1367.6471	1390.9646	1424.2406	1438.945	1463.5618	1523.8131	1862.8254	2360.8432	3007.4296	3046.2495	3068.1417	3075.3591	3096.1422	3635.9637	3643.8476
O=C1NCC(CC#N)N1	O=C1NC[C@@H](CC#N)N1	
InChI=1S/C5H7N3O/c6-2-1-4-3-7-5(9)8-4/h4H,1,3H2,(H2,7,8,9)	InChI=1S/C5H7N3O/c6-2-1-4-3-7-5(9)8-4/h4H,1,3H2,(H2,7,8,9)/t4-/m1/s1
