20
gdb 119947	2.34255	1.31137	1.10036	3.6108	77.49	-0.2361	-0.0487	0.1873	1206.1289	0.169074	-440.252682	-440.242893	-440.241949	-440.287542	35.441	
C	 1.154953535	 0.4493429226	-2.4033396559	-0.431669
C	 0.6126284864	-0.421595452	-1.2926618216	 0.010999
C	 1.3429427054	-1.6718615346	-0.7960285079	-0.126611
C	 2.6077350429	-2.0989295659	-1.4286778386	 0.15032
O	 3.6049791579	-1.4241969147	-1.5968795625	-0.295647
N	 1.1704265521	-0.4743342607	 0.0326620277	-0.103079
C	 2.2952680082	 0.3820344277	 0.4302860201	-0.171972
C	 3.2767106846	-0.3427392337	 1.3810269488	-0.053121
O	 4.6104879177	-0.3130274042	 0.9203361559	-0.42831
H	 2.2369931899	 0.3665415245	-2.5135170397	 0.15959
H	 0.6900118618	 0.1652712158	-3.352379697	 0.12676
H	 0.9044280463	 1.4985688474	-2.212988549	 0.13312
H	-0.4727408231	-0.5264503795	-1.3068390402	 0.106199
H	 0.7251406648	-2.5148994602	-0.4895407578	 0.103641
H	 2.5904460097	-3.1589291999	-1.7645452795	 0.094455
H	 2.877545915	 0.7682361342	-0.4113764135	 0.118019
H	 1.8375735257	 1.2421495371	 0.9314379186	 0.110423
H	 3.2878558117	 0.1440893613	 2.3606553159	 0.109588
H	 2.9181833745	-1.3723763406	 1.5413967167	 0.088227
H	 4.6076834934	-0.6827706048	 0.0277082195	 0.299068
70.9373	97.3047	121.4437	165.1456	184.2701	233.4812	243.1261	295.492	382.8061	427.3385	445.1894	509.4361	548.7521	675.715	786.1012	808.713	827.5937	885.1779	934.5728	1000.7329	1027.8346	1048.8576	1065.8163	1078.2461	1094.0548	1105.7734	1154.9738	1173.4005	1238.3232	1268.7315	1344.2042	1357.601	1379.8554	1394.8888	1409.2671	1419.8968	1431.4178	1453.1242	1490.6277	1499.1186	1507.0255	1513.9847	1773.1857	2894.5997	2974.7932	3037.3685	3043.8886	3075.2226	3089.1488	3095.3843	3103.3048	3118.4338	3146.7929	3762.5437
CC1C(C=O)N1CCO	C[C@H]1[C@@H](C=O)N1CCO	
InChI=1S/C6H11NO2/c1-5-6(4-9)7(5)2-3-8/h4-6,8H,2-3H2,1H3	InChI=1S/C6H11NO2/c1-5-6(4-9)7(5)2-3-8/h4-6,8H,2-3H2,1H3/t5-,6+,7?/m0/s1
