18
gdb 16485	2.82795	2.5536	1.76447	1.306	71.28	-0.2405	0.08	0.3205	816.0761	0.154254	-347.757943	-347.750719	-347.749774	-347.788803	28.755	
C	 0.0109250304	 1.4719111081	 0.0371662091	-0.515146
C	-0.0025517997	-0.0258750343	-0.0327202778	 0.342183
C	-0.9586207646	-0.8870250413	 0.8073414874	-0.106913
C	-1.0938376287	-2.2483694744	 0.1275314125	-0.226091
C	 0.41260941	-2.1006149864	-0.2102761453	-0.12515
C	 0.5384382161	-1.0433850282	 0.9564360278	-0.134209
C	 0.4573470969	-0.8918093809	-1.1910898968	 0.090024
O	-0.3690838087	-0.8810676568	-2.3352266212	-0.441485
H	 0.9879269639	 1.8755978628	-0.2528732194	 0.114033
H	-0.7411852644	 1.9039882549	-0.6321553058	 0.130242
H	-0.2054438542	 1.8231821625	 1.0517441058	 0.115888
H	-1.6435814393	-0.4110139371	 1.4982174585	 0.079883
H	-1.2649379738	-3.0435297088	 0.8584956402	 0.091573
H	-1.7828538304	-2.3482495165	-0.7166151868	 0.099036
H	 1.0480798223	-2.9704715093	-0.3670524618	 0.061042
H	 1.2097715092	-0.9332292468	 1.7950775214	 0.086516
H	 1.4986897368	-0.6469487077	-1.4482243927	 0.058777
H	 0.0498445683	-1.4122425297	-3.019923955	 0.279799
185.7555	204.9998	228.8	262.5666	285.6881	342.7376	489.1146	592.629	612.0313	723.5352	771.9824	808.0493	834.9441	867.1575	890.1538	918.1131	970.869	985.8978	992.172	1035.9135	1049.5887	1090.2432	1106.4592	1118.4822	1148.7598	1165.0323	1201.0482	1226.5049	1245.8499	1270.6716	1296.7625	1333.5358	1391.7362	1417.0815	1459.9481	1486.0914	1489.9542	1500.5025	2993.2124	3023.7739	3048.312	3084.991	3094.0223	3104.735	3128.4861	3189.3208	3226.2993	3815.2381
CC12C3CC(C13)C2O	C[C@]12[C@H]3C[C@H]([C@@H]13)[C@H]2O	
InChI=1S/C7H10O/c1-7-4-2-3(5(4)7)6(7)8/h3-6,8H,2H2,1H3	InChI=1S/C7H10O/c1-7-4-2-3(5(4)7)6(7)8/h3-6,8H,2H2,1H3/t3-,4+,5-,6-,7+/m1/s1
