14
gdb 130346	2.11442	1.76398	1.05472	4.1235	70.38	-0.2418	-0.0733	0.1684	1075.2486	0.101785	-470.009313	-470.001218	-470.000274	-470.042792	28.707	
N	-0.1099114238	 1.4627939465	-0.2156685762	-0.495449
C	 0.0743956517	 0.0187047296	-0.1117857986	-0.126088
C	-1.2886050177	-0.7102799203	 0.0470885185	-0.077269
O	-1.5927242679	-1.3801080075	-1.1844040198	-0.231175
C	-0.488162789	-1.4927025612	-1.9855919163	 0.414307
C	 0.5752911748	-0.7220499708	-1.3366623579	 0.117773
N	 1.7708658358	-0.6515304598	-1.8261246668	 0.136571
N	 2.8228596751	-0.5845200052	-2.2445966191	-0.229437
O	-0.4828790098	-2.1093078991	-3.0133133604	-0.362694
H	 0.7877041107	 1.9352178935	-0.2665965843	 0.237604
H	-0.6107388819	 1.694581802	-1.0699343883	 0.236758
H	 0.70587504	-0.1614237305	 0.7631550045	 0.111631
H	-1.2512076018	-1.4555712536	 0.8474263273	 0.128603
H	-2.0838361563	 0.0072124663	 0.2566336174	 0.138864
56.5942	122.8995	143.3773	166.5808	278.5319	351.4831	439.0093	454.6058	544.2369	563.9391	639.8757	709.4672	725.0396	754.4729	868.6212	893.3295	1020.2364	1043.7986	1077.238	1119.1089	1189.4581	1213.3943	1256.8152	1277.6424	1377.5061	1419.512	1421.448	1515.1556	1661.2758	1857.2932	2214.5145	3053.5568	3068.1712	3124.6057	3485.9717	3569.8919	56.5946	122.8995	143.3769	166.5806	278.5336	351.4834	439.0093	454.6058	544.2369	563.9389	639.8757	709.4674	725.0398	754.4732	868.6215	893.3295	1020.2362	1043.7976	1077.2371	1119.1087	1189.4581	1213.3941	1256.8151	1277.6419	1377.5062	1419.5114	1421.4478	1515.1557	1661.2748	1857.2947	2214.5137	3053.5567	3068.1712	3124.6056	3485.9721	3569.8922
NC1COC2=C1N=NO2	N[C@H]1COC(=O)[C]1[N][N]	
InChI=1S/C4H5N3O2/c5-2-1-8-4-3(2)6-7-9-4/h2H,1,5H2	InChI=1S/C4H5N3O2/c5-2-1-9-4(8)3(2)7-6/h2H,1,5H2/t2-/m0/s1
