16
gdb 44004	3.60011	1.4701	1.39717	2.7005	67.23	-0.2245	0.0002	0.2247	953.1194	0.125711	-437.857018	-437.850207	-437.849263	-437.888135	27.533	
O	 0.0827325568	 0.0712402223	-0.3991735727	-0.306089
C	 0.0049534117	 1.193110486	-0.0114990592	 0.407005
C	-1.2790339921	 2.057678839	 0.1765563943	-0.447359
C	-0.7784869417	 3.3278981848	 0.7972641276	 0.228275
C	-0.0320942317	 3.3273304136	 2.1040164976	-0.354545
C	 0.7302393807	 3.1892326675	 0.8153157649	 0.298176
C	 0.7976089917	 4.4524253294	-0.0485391283	-0.230416
N	-0.6769142845	 4.6740302381	 0.1694170296	-0.373815
O	 1.1209928328	 1.9206193068	 0.3781576113	-0.250588
H	-1.727747883	 2.2190356554	-0.8087791619	 0.143266
H	-1.997363844	 1.4829967189	 0.7668453384	 0.152767
H	 0.0194524335	 4.2564231698	 2.6615554138	 0.134302
H	-0.0797867911	 2.4224865439	 2.7002239419	 0.134658
H	 1.4316371662	 5.2772086473	 0.2916775636	 0.117061
H	 1.0591267889	 4.1943495509	-1.0797836768	 0.120037
H	-1.1923474841	 4.7371313964	-0.7017239941	 0.227264
102.9661	216.6696	332.678	364.9299	421.437	460.8368	553.0888	592.4564	607.3696	650.3097	734.26	776.1194	794.7323	829.2448	858.3346	936.6721	950.308	961.209	988.3117	1014.8132	1068.5627	1101.7205	1123.5204	1142.6559	1205.7256	1227.7255	1278.7018	1290.2204	1300.0585	1354.3124	1402.8849	1455.97	1469.99	1506.5023	1900.2753	3040.2061	3065.2295	3092.334	3107.5041	3132.9914	3230.3896	3536.4421
O=C1CC23CC2(CN3)O1	O=C1C[C@@]23C[C@@]2(CN3)O1	
InChI=1S/C6H7NO2/c8-4-1-5-2-6(5,9-4)3-7-5/h7H,1-3H2	InChI=1S/C6H7NO2/c8-4-1-5-2-6(5,9-4)3-7-5/h7H,1-3H2/t5-,6+/m1/s1
