18
gdb 123420	4.88308	0.97069	0.88269	3.2631	76.99	-0.2585	0.0112	0.2698	1325.7867	0.150552	-398.139465	-398.131627	-398.130683	-398.1732	28.787	
C	-0.0734946356	 1.6151918622	-0.0694673844	-0.194925
C	-0.2171358612	 0.1240391622	-0.2738121929	 0.022439
C	-0.0562740103	-0.8111138639	 0.8954355235	-0.242105
C	-1.4212188992	-0.5833961698	 0.2988437251	-0.273711
N	 1.313407077	 2.0588462682	-0.021884245	 0.061779
C	 2.0702004701	 2.616348293	-0.9888668035	 0.010989
N	 3.3003080709	 2.827910028	-0.5562028237	-0.277808
C	 3.2402322282	 2.3642685192	 0.7213864494	 0.039136
N	 2.062925273	 1.8879744709	 1.0951680965	-0.247908
H	-0.5593575042	 2.169744116	-0.8788973094	 0.124848
H	-0.5420908705	 1.9172971685	 0.8714820867	 0.132909
H	 0.145016845	-0.2295511088	-1.2351692152	 0.091936
H	 0.4308944458	-1.7632125194	 0.719635095	 0.118299
H	 0.1653831081	-0.3690405475	 1.8599380716	 0.135583
H	-2.133369378	 0.0064247429	 0.867055167	 0.115006
H	-1.8727628992	-1.3757254962	-0.2871260973	 0.118154
H	 1.6854744668	 2.8509430508	-1.9703917391	 0.139763
H	 4.0823519134	 2.3840834536	 1.3971136956	 0.125616
42.4453	76.7004	107.0959	268.6832	301.2507	361.0094	420.0009	665.3562	696.5221	745.4266	773.7656	810.8149	847.3625	852.3247	906.2375	907.9507	956.2128	973.9729	1000.9586	1036.7542	1061.1169	1080.1441	1131.1684	1147.3527	1169.5069	1195.262	1224.405	1231.5844	1248.0213	1309.2187	1340.4297	1365.1355	1389.2937	1421.5551	1468.3713	1471.7646	1479.6319	1509.5	1549.3026	3053.1982	3101.8602	3133.4545	3144.4973	3148.9244	3214.4092	3233.4331	3252.4999	3258.9418
C(C1CC1)N1C=NC=N1	C(C1CC1)n1cncn1	
InChI=1S/C6H9N3/c1-2-6(1)3-9-5-7-4-8-9/h4-6H,1-3H2	InChI=1S/C6H9N3/c1-2-6(1)3-9-5-7-4-8-9/h4-6H,1-3H2
