19
gdb 95938	2.10466	1.56085	1.1963	3.2975	71.38	-0.254	-0.0244	0.2297	1112.5179	0.157703	-460.167868	-460.158527	-460.157583	-460.202795	33.952	
C	 0.0609911873	 1.6494922901	 0.1421021733	-0.442702
C	 0.0136795743	 0.1119359033	 0.0990061476	 0.168679
C	 0.6711909762	-0.4822670944	-1.1653965099	-0.12788
O	 1.3459994278	-1.6617489377	-0.7466416021	-0.242362
C	 1.901450224	-1.3547233231	 0.5130145311	-0.108384
C	 0.8104884501	-0.5634238366	 1.2669660302	 0.02966
O	 1.3194619696	 0.4049295712	 2.1647661334	-0.42141
C	-1.4510867713	-0.2965356701	 0.2121318939	 0.128771
O	-2.1127065409	-0.7971959353	-0.6581835101	-0.25087
H	 1.0937721929	 2.0005547963	 0.1818786239	 0.138208
H	-0.4180315011	 2.0637002677	-0.7506971518	 0.125038
H	-0.4530225317	 2.0403070633	 1.0242738113	 0.130009
H	-0.0666616163	-0.7595728111	-1.9197389032	 0.135856
H	 1.3845850268	 0.2372771433	-1.596536438	 0.086242
H	 2.1881202925	-2.2916774768	 0.9988403988	 0.105887
H	 2.791527933	-0.7081544965	 0.4260593845	 0.093166
H	 0.1502644773	-1.2614589236	 1.80409293	 0.076764
H	 1.6759243406	-0.0529458688	 2.9320075607	 0.291885
H	-1.896883371	-0.0659681812	 1.2087929866	 0.083441
29.2066	73.741	212.2532	222.8119	227.8773	254.0544	294.9735	314.6777	359.7916	393.7251	485.3316	544.575	621.2486	657.3194	796.5703	877.2263	929.1774	969.3741	976.7463	992.7313	1025.9646	1080.3123	1111.1762	1121.9977	1154.92	1180.7887	1212.3965	1240.944	1278.3278	1297.2639	1331.0525	1356.1531	1383.8102	1402.1925	1419.2852	1441.4364	1490.366	1493.205	1502.7421	1517.8291	1833.1824	2853.1545	2961.3096	2978.2967	2984.3031	3045.2463	3089.3606	3116.4029	3124.2124	3134.6193	3827.978
CC1(COCC1O)C=O	C[C@]1(COC[C@H]1O)C=O	
InChI=1S/C6H10O3/c1-6(3-7)4-9-2-5(6)8/h3,5,8H,2,4H2,1H3	InChI=1S/C6H10O3/c1-6(3-7)4-9-2-5(6)8/h3,5,8H,2,4H2,1H3/t5-,6-/m1/s1
