23
gdb 41934	3.08388	1.38931	1.02302	0.2369	90.57	-0.2333	0.0294	0.2626	1227.6174	0.210088	-351.190614	-351.182752	-351.181808	-351.222916	32.027	
C	-0.0433596093	 1.5639429533	-0.0687644111	-0.209422
C	 1.4483955711	 2.0258021735	-0.0436568408	-0.251452
C	 2.1978551095	 0.8178939808	 0.5300511514	 0.073361
C	 3.7002831302	 0.6648344538	 0.323031461	-0.246826
C	 4.1832612517	-0.6304908447	 1.0152453306	-0.258573
C	 3.2067707766	-1.780128102	 0.9067811282	-0.045077
C	 1.969930993	-1.676009529	 0.4160241891	-0.102837
C	 1.4442928541	-0.364956111	-0.0937243809	 0.030425
C	-0.0256142911	 0.0178624966	 0.1455073775	-0.244016
H	-0.6246107875	 2.0581861079	 0.7146218083	 0.098798
H	-0.5168637898	 1.8274178342	-1.0187459027	 0.098124
H	 1.8021696126	 2.2348375857	-1.0607855489	 0.092062
H	 1.5956585437	 2.9395422712	 0.5394740032	 0.089748
H	 2.0018648527	 0.7809435442	 1.6135713734	 0.066289
H	 3.9127417579	 0.6127772823	-0.7532193697	 0.093762
H	 4.2562762473	 1.5255657759	 0.7118901481	 0.088018
H	 5.1553502247	-0.936783815	 0.6069971194	 0.101423
H	 4.3725516685	-0.4324630118	 2.0810774196	 0.106558
H	 3.5626064098	-2.7433937047	 1.267140547	 0.080433
H	 1.3296342325	-2.5536817085	 0.3562021559	 0.078171
H	 1.6116490854	-0.3244025113	-1.1843547273	 0.074188
H	-0.3112412701	-0.2321739911	 1.1738935682	 0.096895
H	-0.7196794935	-0.5068885003	-0.5174053697	 0.089948
95.1016	139.2153	192.8299	275.0232	337.7924	407.2559	446.5463	511.6276	547.1194	616.4773	688.6568	748.049	775.3726	826.6296	859.6558	874.6546	897.9423	929.9458	967.4039	986.0419	1000.0498	1012.4491	1026.2811	1078.0526	1090.0832	1104.4769	1130.7998	1152.6953	1181.059	1207.8268	1231.3867	1246.3625	1272.3221	1275.633	1306.8905	1313.0103	1322.7537	1340.4648	1343.1952	1363.828	1385.6844	1404.3077	1416.7609	1474.6543	1488.8508	1496.6653	1498.577	1515.2576	1709.2227	2943.7812	2977.5657	2995.0746	3015.4668	3029.9861	3034.7824	3036.326	3057.5106	3062.3387	3074.3455	3084.0815	3102.6615	3133.572	3157.6101
C1CC2CCC=CC2C1	C1C[C@@H]2CCC=C[C@H]2C1	
InChI=1S/C9H14/c1-2-5-9-7-3-6-8(9)4-1/h1,4,8-9H,2-3,5-7H2	InChI=1S/C9H14/c1-2-5-9-7-3-6-8(9)4-1/h1,4,8-9H,2-3,5-7H2/t8-,9-/m0/s1
