18
gdb 94138	1.91632	1.57052	1.31979	0.8356	84.74	-0.2236	0.0147	0.2382	1114.6819	0.14444	-364.710139	-364.700654	-364.69971	-364.743928	35.641	
C	-0.0256572046	 1.475286579	-0.1546222893	-0.33241
N	-0.0474180444	 0.0503310222	 0.093644738	-0.07736
C	-1.2944853056	-0.6164392623	 0.5030221259	-0.171289
C	-0.4541036628	-1.6000738493	 1.3449160542	-0.268752
C	 0.6996672077	-0.5330278126	 1.2490665004	-0.045324
C	 2.0377004152	-1.0157609993	 0.9160742883	 0.275449
C	 3.1287207735	-1.4328768441	 0.6344982853	-0.416609
C	 0.7412271142	 0.3241287099	 2.4418637296	 0.321107
C	 0.7338143947	 1.0528519647	 3.3982470733	-0.490171
H	 0.9972783124	 1.7905669571	-0.383414309	 0.130796
H	-0.6479500373	 1.6884763475	-1.0299949101	 0.121382
H	-0.3941697651	 2.0769235513	 0.6927784232	 0.106703
H	-1.9473783882	 0.0124931363	 1.1288607507	 0.095374
H	-1.8812846235	-1.0236892131	-0.3262218589	 0.106184
H	-0.7961518224	-1.8339893096	 2.3512683067	 0.12153
H	-0.1882763721	-2.5092533314	 0.806417274	 0.128124
H	 4.0952514817	-1.7959136768	 0.385700742	 0.194742
H	 0.7469378966	 1.6876963706	 4.2497887158	 0.200525
108.038	124.7119	145.3452	153.9734	217.0962	235.4346	314.3765	328.1705	455.8058	493.719	530.0275	568.068	599.6774	628.4454	634.8308	652.1374	652.5921	696.4377	794.7753	926.9839	953.3366	969.76	992.1224	1091.0331	1130.4984	1170.1311	1189.7605	1203.0228	1229.7075	1257.6844	1269.3882	1328.3	1446.0836	1478.1936	1484.4731	1502.1671	1523.2367	2224.0827	2238.4149	2969.1538	2978.4072	3065.7616	3066.8684	3103.1012	3105.082	3170.6743	3499.2935	3501.4825
CN1CCC1(C#C)C#C	CN1CCC1(C#C)C#C	
InChI=1S/C8H9N/c1-4-8(5-2)6-7-9(8)3/h1-2H,6-7H2,3H3	InChI=1S/C8H9N/c1-4-8(5-2)6-7-9(8)3/h1-2H,6-7H2,3H3
