23
gdb 111414	2.60484	1.13954	0.91296	1.6651	85.41	-0.249	0.0784	0.3274	1410.4738	0.204735	-388.261332	-388.251594	-388.25065	-388.296147	36.345	
C	-0.1027700314	 1.7137826984	-0.1496488624	-0.388141
C	 0.0233455302	 0.1948909555	 0.0137421388	-0.186164
C	-1.3309450349	-0.505926746	 0.0461424103	-0.038528
C	-2.0962720021	-0.6284572143	-1.2834959941	 0.019418
O	-1.322740907	-1.4709062769	-2.1495616884	-0.249309
C	-2.1706796906	-2.0916590512	-1.1729170714	 0.019415
C	-1.4116493722	-2.0899778322	 0.1659576098	-0.038529
C	-0.1353961891	-2.9209274064	 0.2495331811	-0.186163
C	-0.4155848914	-4.4265338316	 0.3149270593	-0.388141
H	 0.8806405797	 2.1931878273	-0.1728753353	 0.113058
H	-0.6176610499	 1.9721032952	-1.0814234204	 0.118757
H	-0.6704232851	 2.1575259542	 0.6762865876	 0.110626
H	 0.6174711428	-0.2166813907	-0.8087206078	 0.113925
H	 0.5695063281	-0.0290318943	 0.9386439597	 0.093301
H	-1.9705829856	-0.0511990904	 0.8114186474	 0.069719
H	-2.7702242515	 0.0749963722	-1.7595271536	 0.098682
H	-2.9157721963	-2.786901578	-1.5432419262	 0.098684
H	-2.0881481214	-2.357756668	 0.9858419766	 0.06973
H	 0.4910366348	-2.6995856831	-0.62076008	 0.11392
H	 0.4375729071	-2.6170936359	 1.1345565732	 0.093299
H	-0.9609817751	-4.7683838992	-0.5714853358	 0.118755
H	 0.5141441797	-5.0008769422	 0.3714864451	 0.113058
H	-1.0189045288	-4.6816673425	 1.1936875667	 0.110626
80.6467	96.5814	130.1363	132.7283	207.6462	228.3167	258.1455	290.1054	304.7279	489.5648	521.2821	601.8397	713.253	765.6328	788.335	819.2644	863.6943	865.7779	892.1257	908.0401	952.3826	987.3794	998.9067	1044.2519	1054.4159	1057.0849	1088.0437	1096.0669	1137.2124	1176.697	1209.9393	1239.1837	1244.9802	1260.7899	1290.8258	1295.8302	1341.0567	1346.3343	1381.455	1382.8678	1402.3709	1412.0368	1413.0094	1484.2898	1493.7959	1501.0388	1501.627	1505.6689	1507.447	3024.1949	3028.5739	3028.9915	3031.4615	3032.4547	3047.2338	3070.5008	3076.4878	3097.8716	3100.5917	3102.7181	3103.1551	3171.7495	3187.2648
CCC1C2OC2C1CC	CC[C@H]1[C@H]2O[C@H]2[C@H]1CC	
InChI=1S/C8H14O/c1-3-5-6(4-2)8-7(5)9-8/h5-8H,3-4H2,1-2H3	InChI=1S/C8H14O/c1-3-5-6(4-2)8-7(5)9-8/h5-8H,3-4H2,1-2H3/t5-,6+,7-,8+
