17
gdb 54016	2.20437	1.63839	0.96885	1.5683	74.29	-0.2428	-0.0241	0.2187	1181.8857	0.135769	-451.365979	-451.35667	-451.355726	-451.401029	33.866	
C	 0.6792369325	-0.8916092627	 1.2690547314	-0.461901
C	 0.6157080348	-0.1214601382	-0.0277224856	 0.438529
O	 1.1416839563	 0.97594812	-0.1039942202	-0.36462
N	-0.0247353618	-0.7034059491	-1.1429603016	-0.177727
C	-0.7932246035	-1.8938101981	-1.0818637976	 0.113833
N	-1.3114894022	-2.3347164318	-0.0139619422	-0.45584
C	-0.0020338785	-0.0980285611	-2.453246695	 0.417937
N	 1.0628662636	 0.72716522	-2.7095354425	-0.554084
N	-0.9220493627	-0.4583074629	-3.2641642924	-0.545141
H	-0.2969276329	-0.9118443711	 1.7544471635	 0.17638
H	 0.9669855579	-1.93293581	 1.1155678791	 0.146017
H	 1.4066677597	-0.3753103197	 1.8959491955	 0.134485
H	-0.8853137975	-2.3397942585	-2.0690643152	 0.149464
H	-1.7840961829	-3.2164135764	-0.2072729586	 0.236793
H	 1.4369186795	 1.2017262996	-1.8942600022	 0.285634
H	 0.9516738594	 1.2969807088	-3.5338764583	 0.24805
H	-0.7922455117	-0.0233440587	-4.1756400982	 0.212194
32.4172	72.3735	110.7693	198.9879	236.5101	312.0751	338.3576	403.1215	441.7454	458.429	484.0898	592.5368	599.2984	649.6623	664.9187	738.2439	741.2143	811.237	832.4369	959.6346	1056.8239	1061.0055	1074.4826	1106.2742	1134.182	1186.5195	1248.7725	1343.4519	1400.5665	1425.8732	1436.122	1448.4168	1468.7576	1616.3476	1718.6533	1728.3372	1763.9962	3072.3016	3150.6039	3160.3731	3167.3734	3489.5183	3497.4074	3503.5694	3657.7616
CC(=O)N(C=N)C(N)=N	CC(=O)N(C=N)C(=N)N	
InChI=1S/C4H8N4O/c1-3(9)8(2-5)4(6)7/h2,5H,1H3,(H3,6,7)	InChI=1S/C4H8N4O/c1-3(9)8(2-5)4(6)7/h2,5H,1H3,(H3,6,7)
