17
gdb 45604	2.82632	1.58141	1.25486	4.5938	67.31	-0.2676	0.0108	0.2783	1015.6945	0.138548	-458.992819	-458.985615	-458.984671	-459.025087	27.422	
O	-0.3792634183	 0.3473593704	 0.725858221	-0.326151
C	-0.1443405546	 1.369518361	 0.1670808938	 0.458897
O	-1.0082091837	 2.1653766364	-0.5368048626	-0.25148
C	 0.0279095156	 3.1809991859	-0.7658533508	 0.106761
C	-0.3051613251	 4.4872430059	-0.065537438	-0.106877
O	-0.0677390451	 4.4235776407	 1.3243543296	-0.236689
C	 1.3085832862	 4.2151687242	 1.5964222001	-0.074604
C	 1.7561286058	 2.7902574124	 1.2359838887	-0.24671
C	 1.0689156972	 2.2799207775	-0.0467659106	-0.223405
H	 0.1708148504	 3.3218706441	-1.8399257076	 0.097806
H	 0.2885259714	 5.2987902995	-0.5204542677	 0.093758
H	-1.3657672473	 4.7172201418	-0.201479588	 0.132601
H	 1.9075914293	 4.9554936945	 1.0403325936	 0.090112
H	 1.4491727284	 4.4057036365	 2.6632133128	 0.119927
H	 2.8445858613	 2.7705754524	 1.1277065337	 0.109423
H	 1.5065422663	 2.1028259076	 2.0502626874	 0.138154
H	 1.779655022	 1.8180124691	-0.7347550255	 0.118477
58.3124	139.9595	216.767	301.6328	394.8642	444.3742	492.6673	549.9678	665.2789	689.7035	787.4449	803.4139	845.8323	876.4957	900.3081	948.7584	1003.4329	1037.8622	1062.248	1093.7813	1119.8109	1143.2313	1149.5309	1192.5699	1246.1392	1260.3735	1304.2145	1323.1894	1336.1012	1362.4144	1374.679	1393.8453	1425.6508	1476.8939	1495.4787	1507.4526	1937.759	2962.4271	2969.0928	3052.3039	3083.1811	3088.2735	3094.3013	3099.3761	3104.0864
O=C1OC2COCCC12	O=C1O[C@H]2COCC[C@@H]12	
InChI=1S/C6H8O3/c7-6-4-1-2-8-3-5(4)9-6/h4-5H,1-3H2	InChI=1S/C6H8O3/c7-6-4-1-2-8-3-5(4)9-6/h4-5H,1-3H2/t4-,5+/m1/s1
