17
gdb 82397	2.52059	1.80016	1.17998	2.9444	70.16	-0.2224	0.0254	0.2477	1028.5534	0.137229	-455.135582	-455.127577	-455.126633	-455.16798	31.061	
N	-0.1029748417	 1.3631507605	 0.4087016673	-0.543713
C	-0.1116305186	 0.0228848206	 0.094361369	 0.356687
N	-1.2109871484	-0.6215748639	 0.0455537214	-0.308722
C	-1.2239953331	-2.0412658917	-0.227262085	-0.190199
C	 0.0114246478	-2.609191371	-0.8929880501	 0.040292
O	 0.5138422434	-1.8868128139	-2.022683292	-0.246305
C	 1.2715852329	-1.8662848012	-0.8144052926	 0.013493
C	 1.2917811326	-0.5652964314	-0.0508193168	 0.014426
O	 2.1215290527	 0.4189181396	-0.6663417233	-0.438022
H	 0.6801743568	 1.8828068601	 0.0435034013	 0.26541
H	-1.0045199098	 1.8095636439	 0.3281045596	 0.250916
H	-1.3930203936	-2.6022502913	 0.7057686484	 0.106158
H	-2.0958576816	-2.2573969025	-0.8595459637	 0.116275
H	 0.0430303374	-3.6941379931	-1.0012664807	 0.09096
H	 2.2237557266	-2.3980963864	-0.8640186171	 0.085126
H	 1.6581314533	-0.7799192925	 0.9680629467	 0.0964
H	 3.0342730734	 0.1176150741	-0.6232547325	 0.290818
75.7822	200.2612	212.6788	268.3702	327.7489	334.7992	420.2096	448.6749	482.9051	517.7703	579.1121	631.3677	686.1644	757.2025	821.9716	842.0558	895.7862	927.1626	962.6759	1030.089	1054.9639	1080.6666	1107.4872	1143.0513	1210.507	1230.6988	1259.7264	1288.6695	1326.6029	1355.705	1367.3112	1378.7119	1427.933	1479.5904	1489.5116	1611.4703	1747.3006	2956.8177	2984.2553	3024.6723	3088.1227	3105.3794	3574.6614	3694.2399	3825.5582
NC1=NCC2OC2C1O	NC1=NC[C@H]2O[C@H]2[C@H]1O	
InChI=1S/C5H8N2O2/c6-5-3(8)4-2(9-4)1-7-5/h2-4,8H,1H2,(H2,6,7)	InChI=1S/C5H8N2O2/c6-5-3(8)4-2(9-4)1-7-5/h2-4,8H,1H2,(H2,6,7)/t2-,3-,4-/m1/s1
