17
gdb 56444	2.43596	1.2975	0.98262	4.3258	76.32	-0.2548	0.0013	0.2561	1226.6853	0.134021	-417.93519	-417.925982	-417.925038	-417.969984	33.66	
O	 1.2316516489	 1.5535584616	-0.3875659558	-0.416961
C	 0.4050278856	 0.5442783248	 0.1266615101	-0.065659
C	 0.1847689497	-0.5411833011	-0.8406621928	 0.351333
C	-0.0039866729	-1.4096273955	-1.6487142632	-0.49102
C	 0.993594034	-0.0128145138	 1.434000315	 0.316349
N	 2.1427065774	 0.414513291	 1.7717147764	-0.529022
N	 0.2437923222	-0.9924973694	 2.0665958812	-0.069567
C	-1.1002729411	-0.7961521963	 2.5804099787	-0.228106
C	 0.0541810209	-1.0546103331	 3.5007130134	-0.236617
H	 2.0437768969	 1.5008621487	 0.1485085853	 0.297271
H	-0.5774825477	 0.9819935051	 0.3692682515	 0.108141
H	-0.1627034528	-2.177621667	-2.3647296437	 0.198942
H	 2.4807429262	 0.0002829229	 2.6397142207	 0.225394
H	-1.509262358	 0.211439903	 2.5722627875	 0.135392
H	-1.8113104832	-1.5851860813	 2.3552117441	 0.138618
H	 0.1815385885	-2.0325745007	 3.955067016	 0.135515
H	 0.4162495555	-0.2163955389	 4.0929557955	 0.129997
32.5004	101.8245	123.9053	194.0845	218.4516	253.5241	343.6327	412.6767	447.4844	452.2798	554.2953	590.5146	627.9117	667.8662	680.646	820.3373	837.6544	870.5066	898.7269	958.8477	988.9964	1043.6859	1065.586	1120.0581	1128.9557	1138.8914	1169.9531	1172.0709	1238.5087	1306.9586	1344.0923	1405.4037	1464.2407	1493.879	1522.3102	1714.3216	2236.5134	2966.6721	3104.5904	3111.2241	3191.9807	3205.9724	3488.7968	3503.7537	3613.4539
OC(C#C)C(=N)N1CC1	O[C@@H](C#C)[C]([NH])N1CC1	
InChI=1S/C6H8N2O/c1-2-5(9)6(7)8-3-4-8/h1,5,7,9H,3-4H2	InChI=1S/C6H8N2O/c1-2-5(9)6(7)8-3-4-8/h1,5,7,9H,3-4H2/t5-/m0/s1
