22
gdb 87721	2.79246	1.15957	0.9806	1.0747	84.05	-0.217	0.0821	0.2991	1338.0173	0.191616	-404.314362	-404.304427	-404.303483	-404.348872	36.89	
C	 0.0242675777	 1.5618790914	-0.1860281983	-0.41629
C	-0.0123982641	 0.0663239145	-0.0158399476	-0.021104
O	 1.2488587426	-0.631306157	-0.115442248	-0.294228
C	 0.5846840159	-0.6211648798	 1.1293090992	 0.400529
C	 1.1570185861	-0.0745155921	 2.4363208743	-0.260878
N	 0.3599789453	-1.098539005	 3.1469006146	-0.090895
C	 0.9725306985	-1.7779466262	 4.2670166826	-0.322859
C	 0.1332605447	-1.8695005712	 1.8966243163	-0.015056
C	-1.2645380121	-2.431390232	 1.7058717554	-0.406633
H	 0.8536903185	 1.9996350429	 0.3752578924	 0.127995
H	 0.147589503	 1.8265875086	-1.2413164473	 0.129882
H	-0.9116777351	 2.0094464114	 0.1658149787	 0.123917
H	-0.8257036884	-0.4423205355	-0.5366940914	 0.090965
H	 2.2458977449	-0.2379564949	 2.493668727	 0.095361
H	 0.9352340437	 0.960757502	 2.7180600635	 0.104773
H	 1.1267076307	-1.0735241861	 5.0914001669	 0.120242
H	 0.3098288371	-2.5715994968	 4.6280292808	 0.120317
H	 1.9505159727	-2.2336789423	 4.0191377625	 0.092037
H	 0.8877632767	-2.6652669079	 1.7610196267	 0.066372
H	-2.0146746452	-1.6435637469	 1.8182313788	 0.119102
H	-1.3685176043	-2.882609154	 0.7130753908	 0.119184
H	-1.4753505289	-3.2103217331	 2.4465542521	 0.117266
76.5391	137.3478	167.7745	181.4697	202.9826	215.9903	225.771	286.7163	304.9402	399.287	453.6777	491.0175	510.7839	545.1388	727.0557	795.7977	806.4799	882.7724	944.9848	982.761	1005.2881	1020.0314	1067.2999	1086.185	1119.1056	1127.7087	1146.5859	1150.7341	1173.8439	1189.6896	1214.1815	1227.6626	1291.8713	1319.8163	1360.8786	1382.4037	1405.3798	1409.8307	1451.6141	1474.7419	1485.4455	1488.4869	1490.6861	1494.5054	1497.9021	1511.4529	1537.9444	2922.0933	2941.6128	2970.3035	3032.2664	3036.5905	3053.4378	3055.9028	3090.764	3096.1684	3098.0225	3100.6534	3115.9166	3125.2709
CC1OC11CN(C)C1C	C[C@H]1O[C@]21CN(C)[C@H]2C	
InChI=1S/C7H13NO/c1-5-7(4-8(5)3)6(2)9-7/h5-6H,4H2,1-3H3	InChI=1S/C7H13NO/c1-5-7(4-8(5)3)6(2)9-7/h5-6H,4H2,1-3H3/t5-,6+,7+/m0/s1
