18
gdb 75294	2.28345	1.9549	1.16632	2.9925	78.56	-0.2125	0.0024	0.215	1062.5801	0.148525	-401.983628	-401.97571	-401.974766	-402.016153	30.232	
C	-0.0616280014	 1.5214379909	 0.0811484136	-0.487357
C	-0.049552145	 0.0386443263	-0.0599784275	 0.297095
C	-0.1122396649	-0.7398939903	-1.14614253	-0.174693
C	 0.044023389	-2.213947725	-0.8120238465	-0.296981
C	 0.0041094934	-2.2069206815	 0.7367364028	 0.033864
C	 1.2723693764	-2.4704368751	 1.5948089166	-0.395948
C	 1.2977083409	-0.9425391037	 1.8194370884	 0.389522
O	 2.0403700936	-0.1488408548	 2.3206748777	-0.328445
N	 0.080852212	-0.7660161004	 1.1162269924	-0.145322
H	 0.841805918	 1.8572813885	 0.6025333552	 0.157912
H	-0.1085796432	 2.0080983151	-0.895484049	 0.126972
H	-0.9165331282	 1.8487476316	 0.6836299589	 0.137789
H	-0.2284830477	-0.3690062201	-2.156167673	 0.096957
H	-0.7603430345	-2.831009196	-1.2253473424	 0.114594
H	 0.9837994412	-2.6188436229	-1.2140237845	 0.110718
H	-0.9021556727	-2.681268751	 1.1207880996	 0.091813
H	 1.1426851953	-3.0821363987	 2.4901588497	 0.133869
H	 2.1458604478	-2.8224370829	 1.0407738178	 0.137641
91.3744	133.0116	182.7533	216.3592	278.6881	366.2899	450.6005	514.3235	566.1167	586.1038	672.8147	722.997	748.2796	789.5765	850.4155	905.8368	945.5776	990.2819	1016.868	1037.7748	1054.4776	1069.3473	1088.6976	1118.1077	1159.4729	1198.079	1214.9533	1229.4019	1273.4483	1294.3026	1322.9184	1371.239	1415.7949	1449.0964	1471.3477	1488.8689	1493.7854	1712.8537	1883.0243	3004.3977	3033.8506	3057.5155	3074.8764	3079.0371	3088.9102	3130.0657	3132.5134	3218.6781
CC1=CCC2CC(=O)N12	CC1=CC[C@H]2CC(=O)N12	
InChI=1S/C7H9NO/c1-5-2-3-6-4-7(9)8(5)6/h2,6H,3-4H2,1H3	InChI=1S/C7H9NO/c1-5-2-3-6-4-7(9)8(5)6/h2,6H,3-4H2,1H3/t6-/m0/s1
