17
gdb 65754	2.96724	1.21372	1.14769	1.1058	70.26	-0.2622	0.0069	0.2691	1130.345	0.135444	-455.168934	-455.160021	-455.159077	-455.202801	32.198	
C	 0.2874971537	 1.6238319268	 0.8536447983	-0.444359
C	 0.1041638552	 0.1398281991	 0.5393811347	 0.190556
C	 0.2878538431	-0.2609326054	-0.9459225055	-0.099229
O	 1.5195968496	-0.9851629903	-0.5948547956	-0.257012
C	 1.3398412811	-0.7255564139	 0.7380069647	 0.40163
N	 1.9573292866	-1.1028054851	 1.7615923446	-0.555876
N	-1.0565302167	-0.4335471397	 1.1988907069	-0.331655
C	-2.322475155	-0.1901861631	 0.7751191009	 0.150465
O	-2.599548871	 0.4719704928	-0.2052633045	-0.333837
H	 1.1747337199	 2.0206699095	 0.3518644379	 0.126867
H	-0.5900172908	 2.179424173	 0.5150442079	 0.154563
H	 0.4109834791	 1.7645021773	 1.9307268932	 0.135731
H	-0.4625472964	-0.9405206612	-1.3476730953	 0.141033
H	 0.4959369445	 0.5530864264	-1.6411131414	 0.129493
H	 2.7420248121	-1.7149758506	 1.5327244072	 0.234177
H	-0.8960365364	-0.9649238998	 2.0415314986	 0.26683
H	-3.0822548885	-0.6766758858	 1.4168410473	 0.090622
73.2916	111.9399	145.1599	195.0267	230.5314	244.2898	279.222	365.9127	413.8741	520.9606	541.5388	649.3049	693.1092	751.0638	839.4067	868.5063	903.1932	948.7191	970.7938	995.2643	1028.3213	1033.583	1142.0881	1152.9817	1182.7427	1221.6542	1248.421	1270.0583	1371.7243	1404.9204	1421.8343	1480.7839	1497.5513	1505.5684	1515.2621	1788.3053	1827.1923	2950.1162	3047.8138	3093.6259	3122.3721	3138.2995	3163.9945	3480.8255	3621.8994
CC1(COC1=N)NC=O	C[C@]1(CO[C]1[NH])NC=O	
InChI=1S/C5H8N2O2/c1-5(7-3-8)2-9-4(5)6/h3,6H,2H2,1H3,(H,7,8)	InChI=1S/C5H8N2O2/c1-5(7-3-8)2-9-4(5)6/h3,6H,2H2,1H3,(H,7,8)/t5-/m1/s1
