19
gdb 106236	2.60905	1.39086	1.20049	1.6602	76.02	-0.2253	0.0052	0.2306	1114.2409	0.159448	-423.009752	-423.001244	-423.0003	-423.042748	33.034	
O	 0.7195410311	 0.1080671694	-0.739743549	-0.409438
C	-0.1424140848	 0.3325048723	 0.3645959037	-0.178644
C	-1.4839523625	-0.3675102287	 0.2445676138	 0.220826
C	-2.5091005992	-0.155843159	 1.3099319939	-0.165353
C	-3.2164847776	-1.2628542631	 1.5649010215	-0.099109
C	-2.7486743391	-2.4387619145	 0.7326830829	-0.282358
C	-1.65849567	-1.8416116196	-0.1574804	-0.135947
C	-2.0750477408	-0.7462881884	-1.105465045	 0.084604
O	-3.3994518043	-0.5067161097	-1.461282389	-0.430486
H	 0.3880763343	 0.6241864446	-1.4809216425	 0.287312
H	 0.394593585	-0.0498137562	 1.2408003484	 0.11527
H	-0.3019676427	 1.4103532871	 0.5306176801	 0.089192
H	-2.6589008839	 0.8066931857	 1.7884604144	 0.096762
H	-4.0412050282	-1.33094535	 2.2660609493	 0.1013
H	-2.368881517	-3.251383554	 1.3641896803	 0.113615
H	-3.5675858879	-2.8641268213	 0.1365822939	 0.121033
H	-0.796250421	-2.4409412206	-0.4269396408	 0.095978
H	-1.4282083627	-0.6080323	-1.965727061	 0.093392
H	-3.8951266887	-0.3524714341	-0.6461089549	 0.282053
68.941	194.7003	195.9231	214.7115	233.7512	334.9133	359.4194	399.8464	426.6971	573.5954	575.4578	636.7938	728.6608	751.6501	775.5885	832.0447	864.7187	930.7176	951.7202	964.5594	1000.9205	1021.6773	1050.0881	1068.1886	1083.7788	1115.4203	1153.3152	1179.7931	1215.583	1223.0162	1237.0824	1309.407	1313.7571	1341.6041	1384.1323	1396.191	1414.9881	1451.9227	1475.5389	1502.1373	1657.4184	2970.5485	3018.5718	3047.634	3052.3881	3163.3157	3175.9402	3177.5929	3202.2466	3746.3548	3824.7195
OCC12C=CCC1C2O	OC[C@]12C=CC[C@H]1[C@H]2O	
InChI=1S/C7H10O2/c8-4-7-3-1-2-5(7)6(7)9/h1,3,5-6,8-9H,2,4H2	InChI=1S/C7H10O2/c8-4-7-3-1-2-5(7)6(7)9/h1,3,5-6,8-9H,2,4H2/t5-,6+,7+/m0/s1
