17
gdb 111045	1.99729	1.82988	1.14147	1.1854	70.14	-0.2507	-0.0469	0.2038	1087.6685	0.133388	-458.883516	-458.87495	-458.874006	-458.917208	30.983	
C	 0.2254056858	 0.9631650958	 0.5870875878	-0.25901
O	-0.189065516	 0.1422272012	-0.4988553048	-0.24806
C	-1.3437812922	-0.5684744353	-0.2400804087	 0.122495
C	-1.6994213483	-1.7209621398	-1.2049972695	-0.008691
C	-0.5224109083	-2.5598817222	-0.6556420016	-0.257866
C	-1.3088667596	-1.9422524174	 0.5403133393	 0.270839
O	-2.5720425899	-2.2779949655	-0.1434848016	-0.336142
C	-1.199028678	-2.2507212188	 1.9953870951	 0.026353
O	-0.351281901	-1.7829334551	 2.7151418477	-0.24747
H	 1.1176119711	 1.498006553	 0.2563904079	 0.131678
H	-0.5536785978	 1.6933637358	 0.8497715633	 0.112233
H	 0.4600594489	 0.3572492723	 1.4703990155	 0.147106
H	-2.1939418226	 0.0594191432	 0.0555047623	 0.089694
H	-2.1099666292	-1.6728470904	-2.2125937781	 0.106137
H	-0.6334240135	-3.6392063265	-0.7616119969	 0.115008
H	 0.4885699376	-2.1936327698	-0.828498897	 0.130615
H	-1.9665041571	-2.9623825506	 2.3697231393	 0.105081
71.1691	105.601	139.9123	204.4818	227.8928	246.9613	338.6551	436.0663	458.2921	559.8644	573.6962	704.6491	791.2939	822.689	911.0606	913.9293	953.9926	992.0806	1029.7125	1042.5942	1064.2478	1113.5886	1143.9477	1184.0588	1192.1717	1218.2139	1228.9243	1241.8243	1250.2421	1283.5278	1370.3976	1404.0535	1471.5405	1486.4542	1494.9114	1515.492	1812.2135	2903.5837	2997.8581	3039.2727	3070.6654	3092.6977	3133.1956	3134.4473	3178.2295
COC1C2CC1(O2)C=O	CO[C@H]1[C@H]2C[C@@]1(O2)C=O	
InChI=1S/C6H8O3/c1-8-5-4-2-6(5,3-7)9-4/h3-5H,2H2,1H3	InChI=1S/C6H8O3/c1-8-5-4-2-6(5,3-7)9-4/h3-5H,2H2,1H3/t4-,5+,6-/m1/s1
