20
gdb 14147	4.05555	1.53871	1.34159	1.3289	75.23	-0.2239	0.0888	0.3126	1009.884	0.177716	-349.002372	-348.994363	-348.993419	-349.035273	30.443	
C	 0.0045824099	 1.5259093523	-0.2432722094	-0.41003
C	 0.006524749	 0.03553306	 0.0096442212	-0.073348
C	 1.2951438993	-0.7736660999	-0.050227978	-0.360129
C	 0.5725518766	-0.562926615	 1.2581994263	 0.463588
C	 1.1881704312	 0.2134639341	 2.429627409	-0.310574
C	 0.7935990714	-0.6352693338	 3.6610468653	-0.21094
C	 0.4583504193	-1.9909179513	 3.0272619726	-0.087377
O	-0.1455396552	-1.6617291561	 1.7846582421	-0.285079
H	 0.9088676	 2.0025805279	 0.1492573658	 0.11353
H	-0.0374813534	 1.7398080543	-1.3169562178	 0.117797
H	-0.8575991625	 2.0124671413	 0.2269164402	 0.117108
H	-0.8703463315	-0.4902041749	-0.3600385095	 0.094258
H	 1.2499173074	-1.763898058	-0.4899384951	 0.113952
H	 2.2255513001	-0.2372221395	-0.2167251799	 0.100874
H	 2.2748971002	 0.2801204658	 2.3249272037	 0.105984
H	 0.8034727922	 1.2342987888	 2.5010215949	 0.109199
H	 1.585353903	-0.6967246068	 4.4116693731	 0.099533
H	-0.0981980954	-0.2225294551	 4.1415703467	 0.109314
H	 1.3717254013	-2.5888212815	 2.8729262881	 0.087297
H	-0.2551214031	-2.5889647825	 3.5998342907	 0.105042
32.906	167.6709	193.5678	202.4435	265.3088	353.9584	424.0055	482.4219	527.8329	615.2028	760.9396	784.2929	848.5789	880.3263	894.123	909.0972	929.3786	940.6056	999.7748	1022.9371	1027.9072	1058.6786	1112.6792	1123.6461	1132.6592	1182.9132	1193.6148	1216.8124	1228.8107	1261.5646	1294.3587	1324.396	1348.0648	1385.0249	1406.396	1422.3474	1482.6912	1487.4429	1492.3966	1501.4245	1506.9715	1520.126	2968.9664	3025.6105	3054.1247	3059.9073	3086.984	3091.4747	3093.8351	3095.0665	3113.9495	3116.7498	3142.6364	3212.8715
CC1CC11CCCO1	C[C@H]1C[C@]21CCCO2	
InChI=1S/C7H12O/c1-6-5-7(6)3-2-4-8-7/h6H,2-5H2,1H3	InChI=1S/C7H12O/c1-6-5-7(6)3-2-4-8-7/h6H,2-5H2,1H3/t6-,7-/m0/s1
