18
gdb 83398	2.65388	1.4056	1.12896	5.0236	72.59	-0.2508	0.004	0.2548	1127.467	0.148516	-439.086025	-439.077712	-439.076768	-439.119014	31.416	
C	-0.0046107054	 1.6272774744	-0.0411595123	-0.429025
C	 0.0960440083	 0.1195585123	 0.0020886871	-0.048257
C	 1.336413489	-0.6809826706	-0.2826716433	-0.138062
C	 2.5880024133	-0.0444996137	 0.3283176024	-0.184689
N	 1.9538244222	-0.0559356137	 1.6858992293	-0.396107
H	 1.5409867961	-1.5772877083	 2.999665412	 0.302587
H	 1.8188177577	 0.8675466114	 2.0920272966	 0.228352
C	 0.7248138604	-0.6483358591	 1.1341579599	 0.15734
C	 0.0603094302	-1.7606776798	 1.870893264	 0.384238
O	 0.7326435128	-2.125065337	 2.9794933505	-0.381289
O	-0.9550422582	-2.2996077124	 1.5154830891	-0.353341
H	 0.8780851037	 2.1197655094	 0.3776959945	 0.109747
H	-0.1150626614	 1.9770888124	-1.0725083168	 0.130889
H	-0.8758239801	 1.9716742864	 0.5248918607	 0.133488
H	-0.7925509607	-0.4018995888	-0.3457971904	 0.128196
H	 1.3360683799	-1.5221636571	-0.9631196165	 0.117423
H	 3.4677936038	-0.692559423	 0.3025554453	 0.125965
H	 2.8665168686	 0.9457657072	-0.0479414219	 0.112545
94.3393	143.8104	166.334	194.948	246.3293	280.3235	382.3536	456.9204	513.8344	575.7839	690.2704	722.1678	739.5348	757.6459	805.6591	878.4839	915.0007	956.1077	977.1978	986.8385	1010.5081	1049.5069	1077.6634	1102.4827	1137.2163	1177.0703	1181.7079	1221.8429	1265.9995	1324.3953	1330.8824	1364.5938	1397.7925	1415.5379	1466.3716	1489.1156	1505.2487	1513.3695	1859.4386	3038.2862	3042.6427	3094.7099	3104.1091	3105.9247	3155.8087	3207.3925	3477.5418	3589.9322
CC1C2C[NH2+]C12C([O-])=O	C[C@H]1[C@H]2CN[C@@]12C(=O)O	
InChI=1S/C6H9NO2/c1-3-4-2-7-6(3,4)5(8)9/h3-4,7H,2H2,1H3,(H,8,9)	InChI=1S/C6H9NO2/c1-3-4-2-7-6(3,4)5(8)9/h3-4,7H,2H2,1H3,(H,8,9)/t3-,4+,6-/m0/s1
