21
gdb 76700	3.24614	0.77684	0.73353	3.4039	83.93	-0.2278	0.0335	0.2613	1619.9028	0.181215	-383.257063	-383.246788	-383.245844	-383.293003	36.628	
C	-0.0294376483	 1.5387515849	 0.7067115529	-0.41689
C	 0.0426504419	 0.0821316651	 0.2969402013	-0.014852
C	 0.3039415466	-0.3698453336	-1.1066158984	-0.01516
C	 0.510510123	 0.5900203447	-2.2609369452	-0.218274
C	 1.3021021755	-0.0772769492	-3.4090545537	-0.337509
C	 1.4655367817	 0.8052178618	-4.5618084153	 0.25609
N	 1.5846224712	 1.519971131	-5.4620397204	-0.303931
N	 1.2901836716	-0.6055773391	-0.0453906407	-0.101377
C	 2.5575490127	 0.1086509672	-0.0188785854	-0.321096
H	 0.5770039071	 2.2011031155	 0.0868948063	 0.121831
H	-1.0655025444	 1.8887187544	 0.6486927001	 0.127607
H	 0.2990490502	 1.660347538	 1.744666336	 0.127627
H	-0.6231410541	-0.5474078251	 0.8883571941	 0.090955
H	-0.1871240459	-1.291937937	-1.4245967015	 0.086821
H	-0.4678011013	 0.903328775	-2.6430468035	 0.126536
H	 1.0287041553	 1.5007722678	-1.955768285	 0.122351
H	 2.2941285085	-0.3829888641	-3.0592338727	 0.158814
H	 0.7916093553	-0.9900985971	-3.7372699273	 0.154689
H	 2.5423503867	 1.1422460596	-0.3932271248	 0.102562
H	 2.918777091	 0.1370222622	 1.0140736438	 0.12933
H	 3.2913317555	-0.452244802	-0.6076751007	 0.123877
60.0267	75.2756	94.669	155.1031	177.5821	203.3857	237.3209	282.7912	294.4318	398.4016	454.4453	492.3342	526.9906	575.8263	719.0805	756.6477	786.1218	853.7712	946.9828	982.2891	1026.5387	1034.9659	1053.4466	1088.981	1137.2334	1148.4366	1167.7999	1170.8182	1194.1943	1221.8793	1279.3576	1313.6588	1352.2956	1362.8511	1397.2528	1416.1301	1437.3627	1461.2282	1467.7856	1482.0282	1487.8336	1499.2866	1507.9327	1511.3925	2362.3718	2992.319	3040.152	3044.0141	3052.219	3064.3695	3072.3954	3083.8755	3091.5053	3094.7547	3097.2928	3118.0814	3136.5448
CC1C(CCC#N)N1C	C[C@H]1[C@@H](CCC#N)N1C	
InChI=1S/C7H12N2/c1-6-7(9(6)2)4-3-5-8/h6-7H,3-4H2,1-2H3	InChI=1S/C7H12N2/c1-6-7(9(6)2)4-3-5-8/h6-7H,3-4H2,1-2H3/t6-,7+,9?/m0/s1
