12
gdb 42153	3.22419	0.73908	0.60348	0.6577	77.36	-0.2849	-0.0949	0.1901	1678.9693	0.074596	-398.297735	-398.288575	-398.28763	-398.333963	30.56	
O	 0.0110562437	-0.0908602663	 0.0014021566	-0.259191
C	-0.0024554145	 1.1233683976	 0.0058506851	 0.16064
C	 1.2025840644	 1.9244877846	 0.0004821891	 0.288494
C	 2.2053576895	 2.589713456	-0.0039711372	-0.464437
C	-1.2333864512	 1.887312064	 0.0170434867	 0.119428
C	-2.2672990012	 2.5054870213	 0.0263205995	 0.014363
C	-3.5316818097	 3.2320776989	 0.0373830466	-0.479204
C	-3.3669269626	 4.6912507904	 0.0430049826	 0.284809
N	-3.2528581889	 5.8396958407	 0.0475241324	-0.28871
H	 3.0944655521	 3.1730106085	-0.0077496476	 0.227352
H	-4.1313994517	 2.9495423777	-0.8376532534	 0.198231
H	-4.1206716498	 2.9415525568	 0.9170740697	 0.198225
20.1666	50.7244	130.0277	134.4271	216.5161	257.4043	349.3852	359.5645	392.0821	448.6772	566.1946	627.2159	660.2857	714.2713	714.4161	772.6027	914.8453	926.5953	1010.605	1220.912	1231.7531	1335.5348	1435.6411	1726.2671	2218.7412	2349.6626	2376.8393	3029.3571	3061.181	3491.9085
O=C(C#C)C#CCC#N	O=C(C#C)C#CCC#N	
InChI=1S/C7H3NO/c1-2-7(9)5-3-4-6-8/h1H,4H2	InChI=1S/C7H3NO/c1-2-7(9)5-3-4-6-8/h1H,4H2
