16
gdb 50637	3.20661	1.20422	0.90862	0.5031	67.35	-0.2638	-0.0493	0.2145	1214.4067	0.123659	-475.027	-475.018715	-475.017771	-475.061019	29.528	
N	-0.1816535142	 1.4271216796	-0.1046423154	-0.495915
C	-0.0485216325	 0.1778956311	-0.2217966689	 0.368017
C	-1.2520124197	-0.7378589709	-0.0962644616	-0.159983
O	-1.1163564058	-1.9638796221	-0.7898723681	-0.239763
C	 0.0843627591	-2.6084171582	-0.4280778831	-0.103211
C	 1.2606481321	-1.7475301105	-0.8794993246	 0.018001
O	 1.1780859506	-0.4145693894	-0.3580242576	-0.268424
C	 2.6001518599	-2.3146032012	-0.4368616474	 0.133379
O	 2.9186635262	-3.4578013186	-0.629758686	-0.240364
H	 0.7273800105	 1.8924513715	-0.1500414059	 0.22529
H	-1.4202342756	-0.9254283949	 0.977971374	 0.122679
H	-2.1263160395	-0.2231458039	-0.4936526416	 0.153855
H	 0.1297999442	-2.778206333	 0.6600506142	 0.105231
H	 0.1214391942	-3.573704118	-0.935374912	 0.144569
H	 1.2523778085	-1.6962453257	-1.9781296786	 0.130094
H	 3.2548602618	-1.5836664558	 0.0848517626	 0.106544
49.8028	88.3706	113.7517	182.4902	296.3836	379.6638	423.754	428.8994	491.9273	510.6611	575.9171	711.1189	835.4809	865.3869	912.9067	929.2023	987.837	1018.0537	1075.9737	1093.462	1126.4397	1147.569	1162.6545	1242.282	1286.3992	1312.481	1319.8373	1359.8819	1371.2933	1399.6737	1410.0946	1475.1104	1491.2346	1764.1419	1836.8045	2911.0085	2967.7579	2979.4391	3010.1148	3127.2295	3142.3161	3465.3113
N=C1COCC(O1)C=O	[NH][C]1COC[C@@H](O1)C=O	
InChI=1S/C5H7NO3/c6-5-3-8-2-4(1-7)9-5/h1,4,6H,2-3H2	InChI=1S/C5H7NO3/c6-5-3-8-2-4(1-7)9-5/h1,4,6H,2-3H2/t4-/m0/s1
