21
gdb 121171	2.44672	1.03844	0.77909	2.2604	83.06	-0.2271	0.0283	0.2554	1537.4028	0.181776	-420.388987	-420.378792	-420.377848	-420.42516	35.606	
C	-0.1837003372	 1.4558208631	 0.1164296888	-0.390083
C	-0.1929755497	-0.066950524	 0.1919513919	-0.112586
N	 0.8831292108	-0.5485947431	 1.0644453533	-0.302134
C	 0.9132564982	-1.9921268851	 1.1943403449	-0.138831
C	 1.907377517	-2.5376574143	 2.2421557607	-0.105082
O	 0.8064978122	-3.0763631929	 3.0333594307	-0.265357
C	-0.1274602822	-2.5721040062	 2.1412111665	 0.500989
N	-1.3767166529	-2.6054138883	 2.1628449972	-0.331542
C	-2.0527825531	-3.24302272	 3.2851534343	-0.340446
H	 0.7559670621	 1.8275405297	-0.3098761162	 0.10662
H	-0.9991661712	 1.815543964	-0.5178392369	 0.116949
H	-0.2972325124	 1.8920407508	 1.1128118737	 0.128635
H	-1.1375119433	-0.4232714021	 0.6143176046	 0.143512
H	-0.1238461657	-0.4942383114	-0.8262222543	 0.074684
H	 1.7767760308	-0.2354620606	 0.6932875252	 0.213626
H	 0.946158512	-2.5334340714	 0.2329016564	 0.081589
H	 2.5817605699	-3.3329998573	 1.9161268453	 0.116249
H	 2.4470932178	-1.7655692516	 2.7959209336	 0.121576
H	-1.3751473184	-3.6346228495	 4.0524295157	 0.127208
H	-2.7309577798	-2.5194210805	 3.7503054814	 0.127714
H	-2.6716596851	-4.0655791392	 2.9099022332	 0.12671
67.7172	78.6296	93.3645	103.4153	165.7128	182.3876	223.0318	253.3178	312.0021	381.2888	445.2866	531.503	696.4117	732.7313	783.7214	821.4393	842.9196	925.5616	949.1974	977.7951	1045.447	1064.3567	1075.459	1110.2905	1131.3829	1146.2806	1161.0738	1172.7757	1181.3366	1199.3046	1257.6539	1303.8939	1331.259	1378.3105	1393.9029	1415.8462	1438.7211	1480.1032	1494.2527	1496.5216	1498.4794	1499.4866	1506.7474	1526.0399	1846.6763	2924.5807	2947.1786	3018.6061	3030.9022	3061.6448	3079.2752	3083.676	3089.6483	3101.7814	3120.8332	3124.3233	3485.1294
CCNC1COC1=NC	CCN[C@H]1COC1=NC	
InChI=1S/C6H12N2O/c1-3-8-5-4-9-6(5)7-2/h5,8H,3-4H2,1-2H3	InChI=1S/C6H12N2O/c1-3-8-5-4-9-6(5)7-2/h5,8H,3-4H2,1-2H3/t5-/m0/s1
