15
gdb 62772	3.81616	1.2597	1.22073	4.4984	60.75	-0.2697	0.0329	0.3027	1031.9211	0.111406	-494.921143	-494.913317	-494.912373	-494.953427	29.438	
C	-0.0800609204	 1.6032497055	 0.0181208844	-0.471522
C	 0.0252012502	 0.0999052248	 0.0364875597	 0.28274
O	-1.103687138	-0.6024893572	-0.4063942306	-0.448826
C	 1.3229138481	-0.656355486	-0.2213325227	-0.024024
O	 2.534724662	 0.0481696262	-0.0570619732	-0.240431
C	 2.6777459246	 0.4222358818	 1.2491150289	 0.497505
O	 3.5953989317	 1.0366921817	 1.6831134974	-0.364225
O	 1.5942532841	 0.0167824555	 1.9756346384	-0.242514
C	 0.6946381491	-0.6800949803	 1.1438613383	 0.023098
H	 0.8070999909	 2.0918562439	 0.4244440564	 0.157418
H	-0.2124824042	 1.9599037207	-1.0095948571	 0.123293
H	-0.9465019635	 1.9172459447	 0.6069036484	 0.142783
H	-1.2011742729	-0.4477214872	-1.3535794945	 0.292669
H	 1.3825197263	-1.4910757242	-0.9077704706	 0.131918
H	 0.2144709819	-1.5282244798	 1.6134037067	 0.140118
114.9834	149.8433	178.9319	270.6495	287.3007	338.5282	388.8919	478.8231	505.7063	547.2214	716.1869	749.0655	769.9428	775.504	879.2685	894.7945	898.2806	983.7651	1055.3908	1062.8586	1067.2655	1110.6788	1126.0208	1142.9776	1204.3545	1294.0937	1306.4152	1335.0712	1426.9248	1437.6465	1481.9741	1501.9308	1934.2103	3040.5582	3107.359	3141.6813	3199.9705	3211.5118	3785.1232
CC1(O)C2OC(=O)OC12	C[C@@]1(O)[C@H]2OC(=O)O[C@@H]12	
InChI=1S/C5H6O4/c1-5(7)2-3(5)9-4(6)8-2/h2-3,7H,1H3	InChI=1S/C5H6O4/c1-5(7)2-3(5)9-4(6)8-2/h2-3,7H,1H3/t2-,3+,5+
