17
gdb 30902	3.628	0.82805	0.68895	9.1141	80.47	-0.2186	-0.0395	0.1791	1600.6566	0.132933	-455.196384	-455.18566	-455.184715	-455.233768	37.37	
N	-0.4444638699	 0.8372854615	-0.7918415509	-0.61689
C	-0.0520086349	-0.3657150663	-0.318246539	 0.264764
C	-0.9938442662	-1.3325296647	 0.2888863384	 0.423216
C	-2.3076980236	-1.2159966739	 0.475884044	-0.456615
N	-3.2658094724	 1.5282047057	-1.778564984	-0.702334
H	-3.8934080635	 2.0109803727	-1.141175453	 0.257848
H	-3.1543254374	 2.1371330813	-2.585046368	 0.25493
H	-3.766439708	 0.7071566328	-2.1081480918	 0.260614
O	-0.289561072	-2.4352857501	 0.6759921475	-0.262065
C	 1.0807064268	-2.2249202507	 0.3781063193	 0.415779
O	 1.8888054712	-3.0690399257	 0.6415435075	-0.350084
C	 1.188864529	-0.9191998245	-0.2404968808	-0.393679
H	 0.2406898786	 1.3869206597	-1.28348868	 0.252828
H	-1.4174633776	 1.0187836972	-1.0404025572	 0.300593
H	-2.8741845783	-2.0087250653	 0.9466325512	 0.128606
H	-2.8262750121	-0.3171713958	 0.1732207725	 0.113472
H	 2.1285641504	-0.510921674	-0.5776921957	 0.109016
21.6284	62.5173	76.7868	147.7439	159.953	182.0739	236.5384	269.6063	316.9397	371.852	412.3082	485.1092	575.0822	603.0598	649.8682	677.5873	726.5934	745.0729	759.2058	801.8656	804.8009	865.7636	881.9145	998.6109	1087.2261	1124.0068	1133.3281	1271.0738	1305.8206	1408.1083	1452.4964	1653.1411	1673.6001	1675.2245	1708.2956	1727.2254	1878.4314	3183.4158	3256.2869	3277.4925	3391.1351	3470.945	3586.3162	3589.0653	3665.7984
NC1=C(C[NH3+])OC([O-])=C1	NC1=C([CH2])OC(=O)[CH]1.N	
InChI=1S/C5H8N2O2/c6-2-4-3(7)1-5(8)9-4/h1,8H,2,6-7H2	InChI=1S/C5H5NO2.H3N/c1-3-4(6)2-5(7)8-3;/h2H,1,6H2;1H3
