15
gdb 127928	6.6856	0.90614	0.80201	1.2102	82.22	-0.1958	-0.0311	0.1647	1371.7737	0.111805	-412.9604	-412.951302	-412.950358	-412.994572	32.043	
C	 0.0268990948	 1.3914031292	-0.0073469687	-0.336499
N	 0.0567141764	-0.0592104804	 0.0068233922	-0.38772
C	-1.0698350987	-0.6487637345	-0.0028593856	 0.483469
N	-2.3813621596	-0.1862884356	-0.0252480257	-0.308199
N	-3.3277270537	-1.178693527	-0.0280462084	-0.262151
C	-2.6312041364	-2.2819147247	-0.0078968137	 0.252835
N	-1.2745474508	-2.0263812904	 0.0076130883	-0.41472
C	-3.1705840816	-3.5865987591	-0.0023569108	 0.269307
C	-3.5851768361	-4.7155659518	 0.0033420958	-0.394444
H	 1.0508036149	 1.7736584863	 0.0036377487	 0.125051
H	-0.4626446911	 1.8027831224	-0.906775746	 0.099031
H	-0.4880381695	 1.8196437305	 0.8697403053	 0.098968
H	-2.6776869239	 0.771885123	-0.0379491811	 0.283063
H	-0.5288432421	-2.6990905573	 0.025388058	 0.283266
H	-3.9683364826	-5.7064144807	 0.0084126818	 0.208742
65.3778	102.6297	129.8432	145.7571	211.5511	216.9238	326.4523	429.3227	435.9151	481.9973	564.2178	599.7757	619.6194	695.142	710.8393	729.8722	732.5556	988.1731	1012.8738	1072.3326	1103.3565	1121.133	1164.8906	1252.2919	1314.8709	1389.1888	1446.7834	1460.0626	1496.1212	1504.4552	1590.833	1781.3968	2244.5786	2943.8913	2981.0666	3095.8444	3499.555	3699.2919	3716.0199
CN=C1NN=C(N1)C#C	CN=c1[nH]nc([nH]1)C#C	
InChI=1S/C5H6N4/c1-3-4-7-5(6-2)9-8-4/h1H,2H3,(H2,6,7,8,9)	InChI=1S/C5H6N4/c1-3-4-7-5(6-2)9-8-4/h1H,2H3,(H2,6,7,8,9)
