22
gdb 78288	2.77768	1.31568	1.07689	1.7338	87.37	-0.1943	0.0802	0.2746	1253.9839	0.192699	-367.145556	-367.136275	-367.135331	-367.17866	36.524	
C	-0.1134482029	 1.4270614028	-0.0274483452	-0.425984
C	 0.0488468411	-0.0770982951	 0.0347077358	-0.01529
C	 1.4360342054	-0.6265676873	-0.1845058585	-0.115662
C	 0.8138262685	-0.6361641111	 1.2079549206	-0.115661
C	 0.9050159001	-2.1940462231	 1.2136138897	 0.279106
C	 1.1549423837	-3.0216011348	 2.4342876504	-0.511516
N	 0.1219026264	-2.7030433927	 0.0492508286	-0.421335
C	 1.5090981895	-2.1847196468	-0.1382454866	 0.279111
C	 2.5893657151	-2.9994963863	-0.775830213	-0.511518
H	 0.7670981853	 1.9444310683	 0.369624217	 0.108962
H	-0.2592773104	 1.7636419214	-1.0596814468	 0.116753
H	-0.981434583	 1.7525004558	 0.5562865578	 0.116754
H	-0.7885668235	-0.6514579864	-0.3434394813	 0.113498
H	 2.2549871771	-0.0140743826	-0.5428325307	 0.078136
H	 1.0901222597	-0.0320460221	 2.0640691756	 0.078137
H	 0.2563298113	-3.0857858228	 3.0602431723	 0.128259
H	 1.4522097524	-4.0423756513	 2.1699191178	 0.11394
H	 1.9538984729	-2.5873107433	 3.0458276825	 0.123853
H	 0.1958482944	-3.7209393458	 0.0752591557	 0.214407
H	 2.4564564356	-3.0519305219	-1.8635023819	 0.128258
H	 3.5757019279	-2.562305872	-0.5836671354	 0.123853
H	 2.5960023635	-4.0247316628	-0.3897125244	 0.113941
170.5546	188.4389	201.0947	205.8063	209.2004	222.8033	256.6371	339.9917	344.2698	418.4463	522.6964	552.1319	560.4047	733.5906	734.6321	791.7472	812.9888	841.7533	861.8151	910.929	950.0485	1000.9639	1005.2146	1040.3348	1049.8364	1061.5241	1092.3579	1101.1342	1121.0488	1155.5584	1163.0162	1199.9284	1201.9843	1245.3376	1318.4751	1333.309	1393.8218	1411.2844	1415.1733	1418.1241	1472.5484	1478.5778	1492.1327	1493.0753	1496.3362	1500.226	1514.4525	3017.2758	3019.9347	3025.2875	3077.7577	3078.6147	3090.0162	3090.9358	3091.1087	3093.9425	3173.3385	3182.0612	3184.8582	3454.0012
CC1C2C1C1(C)NC21C	C[C@H]1[C@H]2[C@@H]1[C@@]1(C)N[C@@]21C	
InChI=1S/C8H13N/c1-4-5-6(4)8(3)7(5,2)9-8/h4-6,9H,1-3H3	InChI=1S/C8H13N/c1-4-5-6(4)8(3)7(5,2)9-8/h4-6,9H,1-3H3/t4-,5-,6+,7-,8+
