25
gdb 122155	4.18863	0.62968	0.60708	1.3634	90.27	-0.2557	0.0808	0.3365	1959.4506	0.226738	-389.482988	-389.471629	-389.470685	-389.519918	41.264	
C	-0.0221339691	 1.3944410232	-0.3422316499	-0.414333
C	 0.0952873681	-0.065509264	 0.0396878286	-0.037275
C	 1.4288199664	-0.7791881533	 0.0335408272	-0.326959
C	 0.6970027192	-0.5609379368	 1.3416632906	 0.366385
C	 1.2696913691	 0.4338371244	 2.3357612311	-0.46657
C	 0.0298269453	-1.778454925	 1.9723654361	-0.265615
C	 0.9782806538	-2.6827754802	 2.7708752824	-0.166755
C	 0.2882286729	-3.932873989	 3.3000473428	-0.073041
O	 1.2421810822	-4.6841883097	 4.0370117692	-0.42257
H	 0.859857444	 1.9721195248	-0.0527178399	 0.115098
H	-0.1327557677	 1.4978877895	-1.4276205739	 0.116149
H	-0.8953645356	 1.8644616773	 0.1247701187	 0.114085
H	-0.7427592501	-0.663405593	-0.3134451306	 0.075053
H	 1.4839324664	-1.7842578516	-0.3733284996	 0.102554
H	 2.3152205539	-0.1804319072	-0.1547916811	 0.102396
H	 1.7254456242	 1.2938596787	 1.8397067104	 0.112894
H	 0.4909597332	 0.8121322107	 3.0094247362	 0.110292
H	 2.0456035455	-0.0274726861	 2.9556451705	 0.120783
H	-0.7891542265	-1.442216527	 2.6250178278	 0.089802
H	-0.4402532431	-2.3725485889	 1.177612337	 0.087923
H	 1.8227756893	-2.9886709472	 2.1418052829	 0.106343
H	 1.4028814037	-2.1438510734	 3.6249686206	 0.107149
H	-0.5673217281	-3.6457495767	 3.9340699547	 0.08148
H	-0.1163197412	-4.5199566048	 2.4586128386	 0.081029
H	 0.8082072442	-5.4740070348	 4.3721766195	 0.283706
52.8059	76.323	101.3159	133.3426	165.1779	179.794	219.9642	264.0549	272.955	280.3713	337.374	369.746	433.9979	478.9391	524.9056	712.5122	757.483	783.4404	866.6331	880.78	903.2247	946.2703	982.477	1014.2291	1023.756	1040.3295	1058.2764	1077.5722	1081.6564	1109.8292	1135.802	1157.7764	1193.7586	1212.2434	1234.0367	1274.5449	1289.7416	1311.4118	1315.6736	1360.683	1390.6108	1409.2691	1420.9903	1425.7686	1462.1684	1476.3833	1487.4314	1493.3572	1497.7589	1500.8441	1501.6655	1517.1267	1528.4958	2953.9501	2978.4212	2997.2791	3025.2735	3029.329	3034.3759	3037.8529	3081.2035	3083.3139	3087.6596	3100.6356	3115.5354	3120.1096	3124.7321	3200.591	3829.3052
CC1CC1(C)CCCO	C[C@H]1C[C@]1(C)CCCO	
InChI=1S/C8H16O/c1-7-6-8(7,2)4-3-5-9/h7,9H,3-6H2,1-2H3	InChI=1S/C8H16O/c1-7-6-8(7,2)4-3-5-9/h7,9H,3-6H2,1-2H3/t7-,8-/m0/s1
