12
gdb 11199	6.57421	1.31737	1.10494	2.0775	57.91	-0.2627	-0.0942	0.1685	968.427	0.083617	-414.706037	-414.6991	-414.698156	-414.737642	24.385	
O	-0.083341099	-0.0115193824	-0.0014197948	-0.207316
C	 0.0076694506	 1.1845759134	 0.0060806903	 0.111133
C	 1.3109544137	 1.9242989897	-0.0018280102	 0.28747
N	 2.4660780872	 1.3712919511	-0.0191400065	-0.254373
C	 3.4340011686	 2.4669641037	-0.0201375127	-0.3028
C	 2.6312706381	 3.7758859288	-0.0011286936	 0.4047
O	 2.9960006549	 4.9221161427	 0.0058124534	-0.346469
N	 1.3117433776	 3.318764666	 0.0101328389	-0.38313
H	-0.8891111243	 1.8441529184	 0.0197399661	 0.086499
H	 4.0943755747	 2.4016700589	 0.8519049639	 0.165486
H	 4.0761668267	 2.4161835439	-0.9066103371	 0.165375
H	 0.5083081012	 3.9267844658	 0.0249318122	 0.273427
80.2917	150.3024	198.2963	239.7267	408.8411	447.2929	504.2087	540.4632	645.4521	684.8983	764.6035	889.8856	963.5246	963.7859	1022.3337	1056.361	1149.3624	1173.4273	1216.8966	1286.3111	1404.0089	1424.5049	1455.4913	1659.9222	1839.7845	1863.6795	2880.9279	3053.3563	3087.6531	3648.1063
O=CC1=NCC(=O)N1	O=CC1=NCC(=O)N1	
InChI=1S/C4H4N2O2/c7-2-3-5-1-4(8)6-3/h2H,1H2,(H,5,6,8)	InChI=1S/C4H4N2O2/c7-2-3-5-1-4(8)6-3/h2H,1H2,(H,5,6,8)
