20
gdb 91075	2.65662	1.68149	1.58217	3.7391	77.11	-0.2288	0.0638	0.2926	966.148	0.174434	-403.114927	-403.107907	-403.106963	-403.14605	29.656	
O	-0.5616916749	 1.1774595838	 0.9808380155	-0.442065
C	-0.0870238576	 0.112749449	 0.190270056	 0.130628
C	 0.8721514172	-0.8452104143	 0.9615426484	-0.257775
C	 0.0319931969	-2.0453580251	 1.4244065913	-0.020605
C	-0.8198187695	-1.9812699035	 2.7088023048	-0.060295
N	-1.6456834402	-0.7498549016	 2.6596911083	-0.337566
C	-2.0835336169	-1.9584796694	 1.9191856029	-0.060296
C	-1.3042599126	-2.0211889963	 0.5894669146	-0.020607
C	-1.2252139892	-0.8072392219	-0.3489075055	-0.257771
H	-1.0335149829	 0.7525606312	 1.7237348698	 0.28535
H	 0.441577568	 0.5886935428	-0.6419676401	 0.070618
H	 1.657881068	-1.2033095636	 0.2863483009	 0.092096
H	 1.3607441327	-0.3033946709	 1.7758034187	 0.106195
H	 0.5666837673	-2.9955005702	 1.3673094599	 0.072685
H	-0.6018057416	-2.4386595019	 3.6664036434	 0.095256
H	-2.1838547455	-0.7022008339	 3.5223525027	 0.23792
H	-3.0513670055	-2.3944877113	 2.1358200473	 0.095256
H	-1.5118917416	-2.9578904553	 0.0685038333	 0.072682
H	-2.1568204485	-0.239719808	-0.421978738	 0.106197
H	-0.9720868436	-1.1556729696	-1.3568826143	 0.092096
134.7476	187.0214	284.5482	388.9318	393.3233	420.0888	566.8718	612.9574	712.4188	730.1376	732.4001	777.7653	785.4194	817.9538	838.5077	863.6366	914.8712	935.0933	961.3074	982.7621	996.5109	1048.3606	1068.3004	1074.3326	1096.2211	1098.0937	1118.0462	1155.7874	1158.9474	1221.3441	1226.1768	1250.8444	1257.5178	1301.1457	1317.828	1333.1289	1349.3486	1353.7929	1364.7851	1380.7717	1467.7512	1476.0335	1518.8808	3034.3593	3036.1186	3060.2888	3081.039	3093.6208	3099.0893	3101.2833	3178.4042	3192.0566	3494.4073	3522.4242
OC1CC2C3NC3C2C1	O[C@H]1C[C@H]2[C@H]3N[C@H]3[C@H]2C1	
InChI=1S/C7H11NO/c9-3-1-4-5(2-3)7-6(4)8-7/h3-9H,1-2H2	InChI=1S/C7H11NO/c9-3-1-4-5(2-3)7-6(4)8-7/h3-9H,1-2H2/t3-,4+,5-,6+,7-
