19
gdb 52851	3.10106	0.96198	0.89437	1.7589	80.31	-0.2471	0.0397	0.2868	1414.677	0.157447	-423.003537	-422.993727	-422.992783	-423.040456	34.297	
C	-0.0543311171	 1.4874727483	-0.039380061	-0.499431
C	-0.0059513649	 0.0327813339	-0.0217868069	 0.020225
C	 0.0233475447	-1.1710907636	-0.0115420655	 0.116846
C	 0.0808951588	-2.6336483827	 0.0017868999	 0.161301
C	 0.8954990406	-3.1769204249	-1.1769896112	-0.421807
C	 0.5835646693	-3.1795890841	 1.37950135	-0.150223
O	-0.2869185871	-4.262506348	 1.6531356355	-0.233328
C	-1.5215944834	-3.8356870464	 1.135738514	 0.014297
O	-1.2459843421	-3.2007907659	-0.0915418329	-0.274713
H	 0.5954217776	 1.8978211858	-0.8200781335	 0.150374
H	-1.0718542036	 1.8436015579	-0.2343319992	 0.153961
H	 0.2673326364	 1.910257199	 0.9186888208	 0.148975
H	 1.9007667049	-2.7460912831	-1.1829700858	 0.120027
H	 0.9673319083	-4.265253005	-1.0973302203	 0.125586
H	 0.4019723692	-2.9243727744	-2.1182184409	 0.134284
H	 1.6079765354	-3.5540378065	 1.338623378	 0.122715
H	 0.5055383623	-2.401521659	 2.1507680266	 0.104608
H	-2.1583639198	-4.7069611711	 0.9592301254	 0.120418
H	-2.0150032095	-3.1346933203	 1.8340474669	 0.085885
15.7458	41.9164	102.9252	118.4214	253.9529	258.8621	289.6444	316.1593	358.9718	370.0354	468.8662	534.5743	581.4483	732.1365	768.975	857.8534	910.6493	954.5444	979.5545	1047.1407	1051.5091	1054.016	1066.4016	1108.0128	1137.1733	1172.1593	1183.6771	1229.5911	1254.5221	1288.5589	1357.0045	1399.6413	1413.6107	1426.2811	1476.7966	1478.1417	1481.931	1491.2357	1509.9096	1540.5516	2367.7471	2933.4709	3013.8136	3027.9409	3044.1752	3089.281	3090.3136	3090.8525	3114.9225	3123.0301	3132.5111
CC#CC1(C)COCO1	CC#C[C@@]1(C)COCO1	
InChI=1S/C7H10O2/c1-3-4-7(2)5-8-6-9-7/h5-6H2,1-2H3	InChI=1S/C7H10O2/c1-3-4-7(2)5-8-6-9-7/h5-6H2,1-2H3/t7-/m0/s1
