17
gdb 33516	2.73075	1.2631	0.95544	4.0889	73.53	-0.2492	0.0032	0.2524	1229.3625	0.13482	-417.953209	-417.944572	-417.943628	-417.987306	31.209	
N	-0.5119674883	-1.0690521504	 0.4962495901	-0.340782
C	-0.3242178183	 0.0563671544	 0.3126819884	 0.276257
C	-0.1286896911	 1.4824988208	 0.0990564308	 0.270804
C	-1.2574593887	 2.2069407709	-0.6122817915	-0.235445
N	-1.4899824464	 1.6477083994	-1.9326670469	-0.063758
C	-2.5242280846	 0.6175854238	-2.0385019443	-0.213266
C	-2.7652551916	 1.9910085286	-2.5557616865	-0.224903
C	 0.7533900522	 2.2012636195	 1.0419998584	-0.212144
O	 1.2017938284	 1.8542886873	-0.2629700693	-0.240954
H	-2.1560616805	 2.1833989401	 0.0320713047	 0.099294
H	-0.9507468767	 3.2520293658	-0.724699888	 0.122473
H	-2.2997105659	-0.1998179194	-2.7158677731	 0.132639
H	-3.0497152857	 0.324770718	-1.1315869583	 0.122674
H	-3.4551728994	 2.6192110185	-1.9940007791	 0.111387
H	-2.7240362517	 2.1996032854	-3.620487011	 0.125476
H	 0.5727942923	 3.2612289782	 1.2144168176	 0.129353
H	 1.2152845362	 1.6565083092	 1.8623790879	 0.140896
55.6769	84.5067	136.8807	188.9507	241.7725	289.0426	349.0561	416.8882	431.3174	578.0079	588.5193	728.1242	768.1725	835.0735	840.1686	898.5333	919.6397	971.2836	1013.7898	1033.5146	1052.0597	1114.4872	1122.8482	1133.1083	1166.83	1172.0228	1185.6403	1237.8428	1295.3424	1325.0999	1352.3499	1407.7876	1470.3199	1492.5241	1520.699	1521.5047	2359.0467	2932.2092	3074.3074	3092.0356	3096.9096	3108.1721	3185.681	3188.1991	3203.2802
N#CC1(CN2CC2)CO1	N#C[C@@]1(CN2CC2)CO1	
InChI=1S/C6H8N2O/c7-3-6(5-9-6)4-8-1-2-8/h1-2,4-5H2	InChI=1S/C6H8N2O/c7-3-6(5-9-6)4-8-1-2-8/h1-2,4-5H2/t6-/m1/s1
