18
gdb 82949	2.20936	1.8194	1.55105	2.876	70.13	-0.2166	0.0587	0.2752	959.675	0.149009	-439.040664	-439.0332	-439.032256	-439.072083	30.706	
O	 0.2718420298	 1.3206275142	-0.1374202279	-0.429519
C	 0.0081106841	-0.0336871853	-0.0272379462	 0.045181
C	-0.4875735666	-0.73336931	 1.2307260463	-0.149012
C	-1.1593371683	 0.0779131634	 2.3447313156	-0.24885
C	-2.4673217108	 0.6122309324	 1.7592122324	-0.025576
N	-2.289415574	 1.5975800572	 0.6693966845	-0.366436
C	-2.5760759995	 0.1723759058	 0.3459331447	-0.114393
C	-1.3647168984	-0.6706747758	-0.017509123	 0.312724
O	-1.6259606343	-1.827579459	-0.7574895613	-0.46476
H	-0.550403354	 1.7791920601	 0.1269184196	 0.302977
H	 0.7484007046	-0.6177853482	-0.5707025209	 0.098666
H	 0.0044865939	-1.662256421	 1.498893894	 0.092706
H	-1.3812057554	-0.5733062783	 3.1956497329	 0.109746
H	-0.5245187844	 0.8933637066	 2.7093322805	 0.120981
H	-3.3347075301	 0.7286903829	 2.4005721361	 0.095346
H	-3.1278511751	 2.1608217421	 0.5599359469	 0.238928
H	-3.5182260234	-0.0799267159	-0.1271878293	 0.09611
H	-1.526939488	-1.6117969111	-1.691238915	 0.285181
146.6407	238.3697	262.1473	303.6978	342.8176	344.8483	421.4646	540.9358	568.3588	632.7513	687.7087	701.2533	718.5776	800.5417	830.294	856.1035	891.4482	910.2064	924.4966	954.1584	1024.3951	1049.4853	1076.5879	1084.5468	1115.499	1136.2367	1171.0493	1200.043	1220.2143	1237.8507	1266.6184	1314.1867	1323.4582	1339.8585	1356.3297	1390.0818	1444.7966	1478.1928	1510.6321	3044.7319	3087.2618	3128.822	3164.8884	3167.4258	3183.8593	3504.9755	3512.4145	3796.2147
OC1C2CC3NC3C12O	O[C@H]1[C@H]2C[C@H]3N[C@H]3[C@@]12O	
InChI=1S/C6H9NO2/c8-5-2-1-3-4(7-3)6(2,5)9/h2-5,7-9H,1H2	InChI=1S/C6H9NO2/c8-5-2-1-3-4(7-3)6(2,5)9/h2-5,7-9H,1H2/t2-,3-,4-,5+,6-/m1/s1
