19
gdb 73522	2.82203	1.7048	1.35859	1.2461	84.79	-0.2155	-0.0172	0.1983	1006.3397	0.161022	-385.91419	-385.906609	-385.905665	-385.945719	30.922	
O	-0.0607735408	 1.3970422853	 0.076650235	-0.488008
C	-0.0305941822	-0.0396319767	 0.0569253498	 0.361975
C	 0.8731256414	-0.5963566144	 1.1716219583	-0.282857
C	 2.2782132817	-0.6658796172	 0.5003595774	-0.261817
C	 1.9516178633	-0.8097933724	-0.9781267027	-0.253656
C	 0.6623952121	-0.5360444757	-1.2058134373	 0.315878
C	-0.3559595154	-0.7136457191	-2.227033158	-0.206145
C	-1.5684958909	-0.6934343695	-1.6447618795	-0.062568
C	-1.4955873951	-0.4762128268	-0.1426364381	-0.327348
H	 0.80122768	 1.7075149695	-0.2215368653	 0.273786
H	 0.8456019303	 0.0267227419	 2.0687353905	 0.1009
H	 0.557061874	-1.6087269164	 1.4443430862	 0.099752
H	 2.8770682957	 0.2328786758	 0.7079188513	 0.103764
H	 2.8713760411	-1.509426681	 0.8707362862	 0.106809
H	 2.6772417326	-1.1501300979	-1.7086269066	 0.092934
H	-0.1633602426	-0.9003419089	-3.2765235073	 0.100035
H	-2.5071973666	-0.8580299493	-2.1626494216	 0.098129
H	-1.7299804308	-1.4055852731	 0.3934055491	 0.107379
H	-2.1869615879	 0.293086846	 0.2132114426	 0.121057
141.3091	191.6367	245.6442	289.6211	333.0784	371.0015	409.2863	487.6463	611.6438	643.5024	675.0113	733.6307	768.3218	810.6027	827.1785	867.4423	910.7969	916.5715	938.9093	962.6772	967.7165	1000.6957	1016.3563	1080.5869	1108.1146	1127.9022	1155.5149	1183.0126	1216.4866	1242.82	1283.9127	1291.0196	1311.9394	1333.3499	1353.4998	1385.0424	1462.7974	1473.2603	1492.991	1620.2653	1712.8764	3001.1755	3023.0051	3047.2175	3060.9909	3087.8581	3109.7075	3187.9622	3190.801	3213.7271	3802.2552
OC12CCC=C1C=CC2	O[C@]12CCC=C1C=CC2	
InChI=1S/C8H10O/c9-8-5-1-3-7(8)4-2-6-8/h1,3-4,9H,2,5-6H2	InChI=1S/C8H10O/c9-8-5-1-3-7(8)4-2-6-8/h1,3-4,9H,2,5-6H2/t8-/m1/s1
