18
gdb 81154	2.49299	1.62603	1.22365	4.6623	76.02	-0.2667	0.0237	0.2904	1050.1912	0.149483	-401.951933	-401.944069	-401.943125	-401.984071	30.81	
O	 0.2072017579	 1.350742779	-0.2098726469	-0.44059
C	 0.0709118316	-0.0275054177	-0.0443496257	 0.159798
C	 0.1365503791	-0.6200010122	 1.3992564623	-0.077073
C	-1.3700330742	-0.2534299407	 1.5347260827	-0.294754
C	-1.3952415448	-0.62439907	 0.0142409884	 0.1809
C	-1.0890277898	-2.1397461401	 0.0514703204	-0.264889
C	 0.0708010242	-2.1290817896	 1.106365833	-0.227478
C	-2.4346637092	-0.1540184443	-0.8683971338	 0.158228
N	-3.2643298729	 0.2397759734	-1.5716180502	-0.342243
H	-0.3369103047	 1.8195908327	 0.4314317884	 0.289923
H	 0.7261332363	-0.4817921743	-0.7925429262	 0.095536
H	 0.8807671952	-0.2678179468	 2.1125380697	 0.078394
H	-1.9921408206	-0.854093272	 2.2026106369	 0.113144
H	-1.5625453024	 0.8046236184	 1.7228581449	 0.106655
H	-1.9563652108	-2.719656271	 0.374107894	 0.120841
H	-0.7758204041	-2.5121414662	-0.9265801849	 0.12189
H	 1.0089731112	-2.5129381174	 0.6972393237	 0.111149
H	-0.1737572719	-2.7134898212	 1.9966782533	 0.110568
123.5363	154.0095	198.81	272.8832	290.4268	345.9177	440.2823	481.9095	545.8245	553.3756	610.0121	643.1861	815.885	830.8473	856.0967	893.2537	914.8861	941.9056	973.3024	986.3574	1038.8007	1077.6285	1093.8792	1138.4992	1171.9015	1188.6054	1204.3605	1232.4806	1236.0173	1247.8325	1269.602	1303.0149	1316.1951	1327.1557	1442.9528	1493.9053	1504.4409	1526.5428	2349.8125	3061.8532	3069.4266	3073.0732	3080.8084	3102.2179	3122.0405	3124.5975	3129.26	3815.9167
OC1C2CC1(CC2)C#N	O[C@H]1[C@H]2C[C@@]1(CC2)C#N	
InChI=1S/C7H9NO/c8-4-7-2-1-5(3-7)6(7)9/h5-6,9H,1-3H2	InChI=1S/C7H9NO/c8-4-7-2-1-5(3-7)6(7)9/h5-6,9H,1-3H2/t5-,6+,7+/m1/s1
