21
gdb 65920	2.80954	1.31847	1.12884	3.122	77.26	-0.2396	0.0676	0.3072	1176.3206	0.182101	-424.188027	-424.179049	-424.178104	-424.222191	33.223	
C	-0.1195022302	 1.6679504693	-0.2923663646	-0.437886
C	-0.0261225496	 0.1614211411	-0.0802267966	 0.396653
C	 1.0147351433	-0.5692994804	-0.9727005444	-0.333688
C	 1.7941403122	-0.7757687807	 0.338278501	-0.066053
O	 0.7571586562	-0.1404864489	 1.1138019872	-0.315985
C	-1.4044250254	-0.4776311508	-0.0051502476	-0.064874
C	-1.525322651	-1.9565897482	 0.4266786887	-0.098233
O	-2.4261620582	-1.6162125987	 1.4982258539	-0.272937
C	-2.2472492808	-0.2054770569	 1.2640814244	-0.088965
H	 0.877805211	 2.1161627894	-0.3142833794	 0.119377
H	-0.6236519366	 1.8968454957	-1.237778927	 0.115408
H	-0.68297572	 2.1378531243	 0.5201799122	 0.128543
H	 0.6516581404	-1.4846464687	-1.4440837004	 0.111288
H	 1.5005499707	 0.0525055716	-1.7264805655	 0.109043
H	 1.9548775426	-1.816111171	 0.644532818	 0.105737
H	 2.7461259401	-0.2358857838	 0.4127200875	 0.102902
H	-1.948267194	-0.263864281	-0.9302248169	 0.078511
H	-1.9860033114	-2.6426294508	-0.2939843733	 0.095422
H	-0.5949264964	-2.3978653627	 0.805475525	 0.104615
H	-1.6874573946	 0.2730852133	 2.0771985876	 0.113599
H	-3.2025658184	 0.3129929279	 1.1226953103	 0.097522
75.7649	90.9748	102.1051	184.5021	229.5338	252.7707	306.8557	358.5097	433.0607	518.6734	609.2525	781.2467	788.9299	861.5776	885.5864	891.9816	899.3333	957.3896	974.0406	990.5088	1014.2801	1032.124	1041.2181	1048.004	1102.5453	1154.9518	1164.2487	1171.2109	1186.2991	1207.2021	1222.7676	1248.207	1262.436	1279.1587	1316.6995	1346.794	1363.5294	1397.6719	1406.2592	1482.5981	1488.5099	1495.3516	1502.1737	1528.9423	1531.4405	3010.4487	3016.8487	3021.458	3033.3131	3050.7135	3055.7344	3060.1279	3072.9167	3075.9887	3104.9885	3113.3702	3129.7783
CC1(CCO1)C1COC1	C[C@]1(CCO1)C1COC1	
InChI=1S/C7H12O2/c1-7(2-3-9-7)6-4-8-5-6/h6H,2-5H2,1H3	InChI=1S/C7H12O2/c1-7(2-3-9-7)6-4-8-5-6/h6H,2-5H2,1H3/t7-/m0/s1
