15
gdb 34000	3.40865	1.38912	1.16918	3.1217	70.3	-0.2687	0.0001	0.2688	1028.3689	0.114502	-416.814439	-416.807127	-416.806183	-416.846431	27.525	
N	-0.0644867029	-1.1458024133	-0.3510947612	-0.337893
C	-0.0314348343	-0.0042401113	-0.1639956735	 0.229091
C	 0.0006527267	 1.41288216	 0.0718146906	 0.082742
C	 0.4687505744	 2.3137675434	-1.0724355081	-0.343086
C	 1.3591792655	 2.0899628969	 0.1065260653	 0.092545
O	 1.5824172803	 3.1265624957	 1.0212039185	-0.220085
C	 0.5207393204	 3.5688631806	 1.7496793798	 0.12886
N	-0.6599301244	 3.1317784484	 1.7997907733	-0.258855
C	-1.0529483762	 1.9570188	 1.0439892759	-0.230361
H	 0.7368975345	 1.8500602069	-2.0138968167	 0.149793
H	-0.028893033	 3.2747999223	-1.1481957679	 0.146942
H	 2.2503245867	 1.4847729914	-0.0022679564	 0.141655
H	 0.8270208263	 4.4254372545	 2.3448405192	 0.13857
H	-1.9796630946	 2.186859666	 0.5050038422	 0.133598
H	-1.3042005495	 1.1695369586	 1.7631768589	 0.146484
94.704	149.2132	173.7936	288.2639	397.5262	444.0109	498.047	530.0465	553.5483	575.1826	683.5808	790.3637	887.1388	897.6686	928.2614	953.4965	978.0282	1017.9626	1035.0983	1056.9236	1072.4328	1132.7474	1197.7581	1237.5406	1282.1361	1297.2942	1357.1923	1401.1593	1427.5864	1472.7245	1487.2817	1751.4598	2348.2286	3033.8292	3067.3753	3142.7618	3178.099	3199.4353	3240.8389
N#CC12CC1OC=NC2	N#C[C@]12C[C@H]1OC=NC2	
InChI=1S/C6H6N2O/c7-2-6-1-5(6)9-4-8-3-6/h4-5H,1,3H2	InChI=1S/C6H6N2O/c7-2-6-1-5(6)9-4-8-3-6/h4-5H,1,3H2/t5-,6+/m1/s1
