20
gdb 105504	2.01421	1.64945	1.10947	6.0469	74.51	-0.2454	0.0293	0.2747	1158.9708	0.172208	-440.311867	-440.302988	-440.302044	-440.345608	33.676	
N	-0.1570729979	 0.9248490169	-0.0883911185	-0.52759
H	 0.0639079549	-0.0634765241	-0.0337293339	 0.249237
H	 1.0709077539	 2.1608700773	-0.1635264409	 0.314296
H	-0.8705298989	 1.0343255926	-0.8022502597	 0.247308
C	-0.6367957618	 1.4328091556	 1.2125484945	-0.251038
C	-0.6791469591	 2.9663653296	 1.2380363985	 0.178206
C	-1.8330751176	 3.5646040716	 0.3484597431	-0.256578
C	-2.7080926003	 3.7173155622	 1.6194475356	-0.213378
C	-1.4386753363	 3.5050681826	 2.4847040831	-0.259818
C	 0.6849501898	 3.630422975	 0.9893199551	 0.365534
O	 1.5014625159	 3.0067554389	 0.1322615649	-0.385251
O	 0.9904117778	 4.6788964174	 1.5009075444	-0.3466
H	-1.6291864403	 1.0402684232	 1.4772986536	 0.105118
H	 0.0615668215	 1.0796240897	 1.9798929089	 0.126529
H	-1.547065536	 4.5286489221	-0.0771866019	 0.129249
H	-2.2197631307	 2.9333466268	-0.4581150262	 0.085286
H	-3.2345335189	 4.6661469733	 1.7396384844	 0.10788
H	-3.4358933379	 2.9084360803	 1.7263207869	 0.099271
H	-1.5170950283	 2.8237316164	 3.3367278791	 0.091989
H	-0.9873852299	 4.4415766827	 2.8130377788	 0.14035
63.4029	110.8393	169.0907	212.381	277.2054	293.2603	321.3871	347.1905	421.7879	449.3067	581.3269	684.3358	735.149	743.4964	806.7873	846.0243	865.2724	892.2682	933.07	950.5979	984.7823	998.3721	1031.5748	1049.6341	1069.2924	1119.8419	1198.0933	1207.0371	1217.5368	1255.0749	1265.8808	1277.6509	1288.1856	1298.2039	1358.5616	1414.2648	1471.5231	1483.1709	1496.6897	1505.5195	1509.794	1645.7803	1838.1474	2996.2015	3044.929	3058.358	3064.4752	3066.6499	3103.8424	3120.0126	3142.3956	3207.9963	3508.4306	3588.5562
[NH3+]CC1(CCC1)C([O-])=O	NCC1(CCC1)C(=O)O	
InChI=1S/C6H11NO2/c7-4-6(5(8)9)2-1-3-6/h1-4,7H2,(H,8,9)	InChI=1S/C6H11NO2/c7-4-6(5(8)9)2-1-3-6/h1-4,7H2,(H,8,9)
