20
gdb 112051	2.41019	1.41886	1.03212	1.1	79.76	-0.2375	0.0116	0.2491	1199.5947	0.171942	-403.123319	-403.114736	-403.113792	-403.156812	33.003	
O	 0.0962996367	 1.4748395662	-0.0216952444	-0.422561
C	 0.0772579699	 0.0625292213	 0.1052616064	-0.068172
C	-1.3501216438	-0.5213874052	 0.0578748745	-0.139714
C	-2.0354258744	-0.2266134757	-1.2594959253	-0.094805
C	-2.1836965073	-1.3167481953	-2.0122216864	-0.06862
C	-1.6615480056	-2.5559039855	-1.3296166458	-0.314443
C	-1.3798926807	-2.0612302959	 0.0949475125	 0.323225
C	-0.6366225626	-2.8605681192	 1.0985150844	-0.295136
N	-2.1076771891	-2.7668479268	 1.1637985325	-0.35098
H	-0.1698588315	 1.6906239791	-0.9209550348	 0.284182
H	 0.695050085	-0.4201829727	-0.66768206	 0.090027
H	 0.5380616563	-0.1520056703	 1.0745837454	 0.106349
H	-1.9041936994	-0.093573142	 0.9048497721	 0.078331
H	-2.3438894743	 0.7742730048	-1.5415855549	 0.09359
H	-2.6215538461	-1.3363428245	-3.0042186386	 0.096443
H	-2.3830880474	-3.3797640773	-1.3117965418	 0.123098
H	-0.7564524652	-2.934096178	-1.8253626538	 0.107595
H	-0.2526257923	-3.8424529568	 0.8326356606	 0.114556
H	-0.0477679617	-2.3412969397	 1.8503840172	 0.110606
H	-2.3742554466	-2.1107840865	 1.8951297502	 0.226427
63.24	102.0645	176.6847	235.3507	292.6148	323.9208	337.9259	391.3599	467.6975	521.1748	554.3041	734.0288	767.4988	810.2437	827.0032	863.1436	917.8677	953.0757	968.19	976.4962	982.2119	1019.4085	1039.1325	1051.3464	1075.4949	1097.4373	1128.9486	1136.4757	1182.4393	1189.8186	1254.1107	1264.6441	1287.3598	1289.2732	1323.2624	1373.1345	1387.1009	1401.7471	1416.7369	1475.9943	1498.0837	1513.5528	1681.0145	2984.7949	3009.1968	3010.0869	3068.0095	3078.346	3101.4613	3178.9343	3182.4992	3204.4491	3483.6	3820.025
OCC1C=CCC11CN1	OC[C@H]1C=CC[C@]21CN2	
InChI=1S/C7H11NO/c9-4-6-2-1-3-7(6)5-8-7/h1-2,6,8-9H,3-5H2	InChI=1S/C7H11NO/c9-4-6-2-1-3-7(6)5-8-7/h1-2,6,8-9H,3-5H2/t6-,7-/m1/s1
