17
gdb 17834	4.21116	1.65175	1.4516	3.282	68.95	-0.2342	0.0295	0.2637	906.0889	0.143356	-363.866652	-363.859045	-363.858101	-363.898862	28.743	
N	-0.0306693749	 1.3086202398	 0.2604588719	-0.532549
C	 0.0829380363	 0.0764260774	-0.3301796463	 0.408713
O	 1.13263714	-0.2907341707	-0.8304793121	-0.376925
C	-1.1712422905	-0.7438383688	-0.272450554	-0.106999
C	-1.685345202	-1.6306227195	-1.3921206433	-0.077527
C	-0.5565747659	-2.3492369892	-2.1464367037	-0.217431
C	-0.088946671	-2.985581211	-0.7977444561	-0.216226
C	-1.2280475322	-2.247306614	-0.0789768216	-0.075547
H	 0.7496579664	 1.9385708437	 0.1673120269	 0.257106
H	-0.9168889803	 1.6873424118	 0.5439769345	 0.255089
H	-1.9904202927	-0.2515030092	 0.2474233278	 0.074444
H	-2.6920796297	-1.4771354474	-1.764328959	 0.084401
H	-0.9506472455	-3.0954251685	-2.8402966386	 0.094669
H	 0.1657323503	-1.7154895407	-2.6605139681	 0.123723
H	-0.240455769	-4.0674072224	-0.7791292634	 0.09412
H	 0.9242406005	-2.7496722669	-0.4743443181	 0.125945
H	-1.82310732	-2.6491256345	 0.7333923833	 0.084997
46.0361	191.1316	200.4584	208.1705	334.0356	344.7801	437.719	563.2337	658.4386	696.2138	762.3893	772.0853	789.9657	824.385	872.3883	953.6636	955.6085	963.547	1003.2076	1025.3041	1076.501	1080.8982	1108.3336	1153.7015	1170.0741	1226.5715	1246.7144	1262.0016	1286.4238	1305.5758	1359.6504	1460.0811	1468.5323	1491.1213	1616.1915	1777.455	3069.0312	3078.1889	3127.2126	3133.1874	3146.3794	3164.5653	3177.6757	3600.3261	3736.7841
NC(=O)C1C2CCC12	NC(=O)[C@H]1[C@H]2CC[C@@H]12	
InChI=1S/C6H9NO/c7-6(8)5-3-1-2-4(3)5/h3-5H,1-2H2,(H2,7,8)	InChI=1S/C6H9NO/c7-6(8)5-3-1-2-4(3)5/h3-5H,1-2H2,(H2,7,8)/t3-,4+,5-
