21
gdb 117264	2.73954	1.01412	0.80308	2.6622	80.53	-0.2401	-0.0129	0.2272	1493.8043	0.18066	-424.219622	-424.209565	-424.208621	-424.256469	35.014	
C	-1.0705478903	 1.0958689936	-0.9597650334	-0.228224
O	-1.3287489435	-0.2488878844	-0.6264965167	-0.230778
C	-0.7474072977	-0.6323135314	 0.5946894046	-0.148776
C	-1.0428445399	-2.0987469057	 0.9172014993	 0.315136
O	-0.5689625838	-2.583219841	 1.9204717442	-0.311219
C	-1.8853688537	-2.8748919578	-0.061184281	-0.046523
C	-1.1400721377	-3.3933209673	-1.3423749189	-0.22062
C	-1.885342751	-4.7443631011	-1.171350495	-0.210142
C	-2.2369796044	-4.3407706841	 0.286344029	-0.242244
H	-1.5581129589	 1.2945951264	-1.9168625018	 0.131267
H	-1.4736144239	 1.7864834317	-0.2027437733	 0.109668
H	 0.0086507666	 1.2890580575	-1.0608514915	 0.109958
H	 0.3474756195	-0.5027188234	 0.5809794164	 0.119068
H	-1.1264676504	-0.0225851228	 1.4325866149	 0.118575
H	-2.7498014473	-2.2756549838	-0.3564322177	 0.094712
H	-1.2976202048	-2.8258124866	-2.2602704774	 0.109755
H	-0.0646326069	-3.4937648119	-1.1694038377	 0.107614
H	-2.7729243349	-4.7993296718	-1.8079639601	 0.102193
H	-1.3014630813	-5.6566137795	-1.3135688196	 0.099775
H	-1.5287265162	-4.7363896563	 1.0179293577	 0.123521
H	-3.2524404594	-4.5390865903	 0.635937918	 0.097284
39.8125	45.1509	93.3366	102.9995	129.9943	219.0374	228.4907	283.8789	335.2483	448.3209	587.6113	611.7929	623.4987	742.3951	783.7057	868.0132	927.4621	935.728	950.0578	974.5565	1009.1114	1020.8464	1047.0538	1121.7829	1143.1705	1182.4896	1187.3	1207.3672	1226.5442	1230.6975	1242.2142	1248.1216	1258.1759	1276.7979	1279.7303	1368.0913	1380.385	1466.2252	1479.6378	1485.2	1487.8962	1488.7327	1508.6195	1513.2566	1801.5254	2960.5321	2976.7727	2991.9858	3021.9762	3058.4035	3061.207	3070.983	3084.8922	3104.6248	3119.1549	3124.9496	3132.8685
COCC(=O)C1CCC1	COCC(=O)C1CCC1	
InChI=1S/C7H12O2/c1-9-5-7(8)6-3-2-4-6/h6H,2-5H2,1H3	InChI=1S/C7H12O2/c1-9-5-7(8)6-3-2-4-6/h6H,2-5H2,1H3
