18
gdb 17829	4.50434	1.25468	1.0947	3.2151	67.97	-0.2382	0.0744	0.3126	1095.2033	0.15365	-384.891849	-384.883795	-384.88285	-384.925207	29.268	
O	-0.0057464985	 1.4631473199	 0.1857024172	-0.417478
C	 0.0035422928	 0.0696985011	 0.0613153339	 0.096615
C	-0.5230483986	-0.7804119929	 1.1896314847	-0.343556
C	-1.3328530682	-0.6024692315	-0.0849119529	-0.034585
C	-2.6021988304	 0.2023334586	-0.0717419046	-0.021447
C	-3.2431359496	 0.5700175548	-1.4315734774	-0.086372
O	-4.496730289	-0.0375033826	-1.0569887169	-0.273842
C	-3.9353479332	-0.5466838025	 0.1690061382	-0.08896
H	 0.6775906926	 1.7099708337	 0.8173063308	 0.289674
H	 0.8297030299	-0.3275173014	-0.528316203	 0.0877
H	-0.0580055601	-1.7392419445	 1.3909275136	 0.112832
H	-0.8758155072	-0.2509080462	 2.0690847277	 0.114859
H	-1.3526446528	-1.4579713431	-0.7565242746	 0.088181
H	-2.4841066603	 1.0733682608	 0.5735834672	 0.089245
H	-3.3503993776	 1.6381069718	-1.6519919501	 0.10439
H	-2.789116386	 0.071866798	-2.2999600141	 0.092465
H	-3.8511194334	-1.6427618075	 0.1589734218	 0.091993
H	-4.5201554102	-0.2453781864	 1.0464132085	 0.098286
58.1566	66.2837	146.1945	211.7648	294.2835	345.1414	368.2258	445.5613	572.0724	724.1342	796.8774	842.7444	865.1333	895.4414	932.7221	980.3939	1001.5161	1021.8687	1037.863	1053.7645	1055.4718	1101.9262	1136.2726	1157.8778	1159.3427	1175.2951	1219.847	1241.5818	1264.0663	1293.5013	1306.5864	1310.0108	1377.1867	1413.2576	1439.0933	1490.1485	1511.694	1537.4501	2992.9655	3004.43	3047.017	3056.2448	3097.7441	3106.6466	3128.6639	3133.3937	3217.9994	3808.618
OC1CC1C1COC1	O[C@H]1C[C@H]1C1COC1	
InChI=1S/C6H10O2/c7-6-1-5(6)4-2-8-3-4/h4-7H,1-3H2	InChI=1S/C6H10O2/c7-6-1-5(6)4-2-8-3-4/h4-7H,1-3H2/t5-,6-/m0/s1
