17
gdb 73001	2.75278	1.44827	1.16491	1.9537	71.03	-0.2387	-0.0315	0.2071	1076.2165	0.134123	-458.93779	-458.929316	-458.928372	-458.970498	32.511	
O	 0.0343074051	 1.4364953698	-0.0438804913	-0.452301
C	-0.0041467134	 0.0536894943	-0.059676218	 0.303869
C	 0.8054284151	-0.8363903413	-1.0144760896	-0.297668
C	-0.4504796078	-1.7556104201	-1.1655201974	-0.228411
C	-1.2282562673	-0.8245477593	-0.2269418251	-0.185137
C	-0.4854495541	-0.781075093	 1.1180290802	 0.286344
O	 0.2343695415	-1.8697736255	 1.5846927505	-0.480763
C	-1.2127456524	-0.0606121433	 2.1825449621	 0.086135
O	-1.1705878026	-0.4414352482	 3.3344725038	-0.304487
H	 0.8306173005	 1.7163297084	 0.4230726191	 0.292647
H	 1.0402334532	-0.3033179752	-1.9379177143	 0.114797
H	 1.7094661167	-1.2902691575	-0.6039478446	 0.117755
H	-0.8515485254	-1.7570221842	-2.1803347109	 0.112097
H	-0.3396512207	-2.7817323578	-0.8124524721	 0.126167
H	-2.2772640709	-0.5615120192	-0.2998486984	 0.103467
H	 0.0165833573	-1.919465222	 2.5302167102	 0.295907
H	-1.7941238947	 0.8275807244	 1.8764853658	 0.109583
98.1668	175.6889	212.4181	240.7853	286.8937	313.6401	335.1566	384.6975	414.9586	461.6223	550.6014	572.4555	664.4263	731.1881	799.6341	842.1663	913.5224	934.7867	961.0702	982.3434	1002.3411	1041.8659	1073.1035	1128.7288	1167.0941	1210.5394	1222.5453	1236.3432	1275.8285	1288.7656	1314.5424	1372.1966	1413.4744	1460.8644	1469.234	1500.8866	1777.8529	2976.5269	3072.7115	3081.9119	3126.234	3142.4351	3179.3614	3676.8374	3784.7181
OC12CCC1C2(O)C=O	O[C@]12CC[C@H]1[C@]2(O)C=O	
InChI=1S/C6H8O3/c7-3-6(9)4-1-2-5(4,6)8/h3-4,8-9H,1-2H2	InChI=1S/C6H8O3/c7-3-6(9)4-1-2-5(4,6)8/h3-4,8-9H,1-2H2/t4-,5-,6-/m1/s1
