17
gdb 83019	2.96771	1.32544	1.14986	1.3788	83.	-0.2251	-0.0283	0.1968	1110.061	0.135431	-384.652382	-384.644281	-384.643337	-384.684778	31.737	
O	 0.0424433395	 1.3864652143	 0.0606678341	-0.426391
C	-0.0360402975	-0.0004753404	-0.0314663827	 0.13085
C	-1.3454034012	-0.7421445965	-0.0031117427	-0.11434
C	-2.6015543522	 0.0794227767	-0.2952768435	-0.265832
C	-2.4003577176	 0.5738291838	-1.7073130201	-0.206952
C	-1.2647815866	 0.1001090454	-2.259231609	 0.181156
C	-0.799327883	 0.3465109224	-3.5745862418	 0.220287
C	-0.3749381014	 0.5228810836	-4.6884094194	-0.422158
C	-0.4915925573	-0.7326210184	-1.2799534995	-0.220968
H	-0.4182600617	 1.7652175255	-0.6986884298	 0.287325
H	 0.7888631849	-0.4571770053	 0.50642849	 0.107568
H	-1.4304272841	-1.6330060469	 0.608252401	 0.089319
H	-3.5157423075	-0.5216167944	-0.211553032	 0.11798
H	-2.7102153795	 0.9133747645	 0.4117231066	 0.126478
H	-3.092655958	 1.2413649611	-2.2065267364	 0.105265
H	-0.0090005854	 0.6886313814	-5.6712774567	 0.195304
H	 0.0701581387	-1.5869936368	-1.6391654381	 0.09511
102.9078	156.1381	202.0513	220.9862	282.5749	355.5077	480.3372	502.4336	538.9532	558.1122	596.5084	638.8698	703.797	725.5221	758.2522	790.043	835.5256	860.033	954.4355	971.3357	983.8772	1030.0472	1057.1024	1068.187	1104.7476	1164.0077	1183.3622	1198.9515	1253.6162	1303.1622	1333.3091	1348.1741	1359.8957	1440.1831	1467.2955	1643.9741	2223.6094	3016.2478	3044.2716	3159.3482	3172.6641	3182.7783	3207.9682	3502.7778	3763.4685
OC1C2CC=C(C#C)C12	O[C@H]1[C@H]2CC=C(C#C)[C@@H]12	
InChI=1S/C8H8O/c1-2-5-3-4-6-7(5)8(6)9/h1,3,6-9H,4H2	InChI=1S/C8H8O/c1-2-5-3-4-6-7(5)8(6)9/h1,3,6-9H,4H2/t6-,7+,8-/m0/s1
