20
gdb 83430	3.0175	1.26684	1.09995	2.0949	79.91	-0.2382	0.0753	0.3135	1188.6184	0.170487	-403.074518	-403.065975	-403.065031	-403.10799	32.481	
C	-0.0150932368	 1.3860403399	-0.5482980189	-0.322246
N	 0.1766573947	-0.0135768618	-0.2000842869	-0.122553
C	 1.4769882716	-0.6224453762	-0.0382434182	-0.106443
C	 2.5009607485	 0.3038648458	 0.644617765	-0.240906
C	 1.5133957828	 0.4840198508	 1.8399101433	-0.308418
C	 0.5222580779	-0.4661267132	 1.1335819217	 0.355807
C	-0.3762086782	-1.4479486515	 1.790219427	-0.031039
C	-0.134871072	-1.9966672865	 3.1310064844	-0.188125
O	-1.1155019941	-0.9793719811	 2.9307563913	-0.237224
H	 0.7035796304	 2.0843363528	-0.0982021227	 0.107254
H	 0.0512352007	 1.4860369042	-1.6361121949	 0.123694
H	-1.0204450069	 1.6878280666	-0.2399565389	 0.130377
H	 1.7115213586	-1.5000118023	-0.6328854828	 0.091938
H	 3.4075894356	-0.2302587385	 0.9364761285	 0.107286
H	 2.7917468788	 1.2007387577	 0.0897794812	 0.10332
H	 1.91128449	 0.0721203731	 2.7686948533	 0.10899
H	 1.1427070325	 1.4920318391	 2.0427525152	 0.108282
H	-0.9631295205	-2.0401081335	 1.0885195094	 0.095835
H	-0.5242577357	-2.9832609669	 3.3805375506	 0.113707
H	 0.7450776219	-1.6941593784	 3.6962204324	 0.110464
55.8507	142.4871	152.2654	196.3201	270.5721	291.0525	351.6229	393.227	507.3404	535.6418	649.8233	741.7374	767.252	799.3381	837.9311	885.1293	919.5452	946.7101	956.9018	980.6728	1017.4535	1059.0116	1094.9313	1101.8551	1116.5391	1152.3187	1160.2668	1171.5121	1182.3673	1214.2274	1222.7339	1231.9531	1269.6079	1277.1782	1309.6893	1371.5324	1442.5339	1470.3486	1472.0892	1486.7738	1503.8995	1506.9143	1532.2914	3010.588	3057.91	3070.5432	3078.5807	3082.3709	3106.7525	3108.9082	3118.0817	3126.5778	3158.1234	3167.2444
CN1C2CCC12C1CO1	CN1[C@H]2CC[C@@]12[C@H]1CO1	
InChI=1S/C7H11NO/c1-8-5-2-3-7(5,8)6-4-9-6/h5-6H,2-4H2,1H3	InChI=1S/C7H11NO/c1-8-5-2-3-7(5,8)6-4-9-6/h5-6H,2-4H2,1H3/t5-,6+,7+,8?/m0/s1
