15
gdb 77849	2.26929	1.56465	1.46616	5.2041	70.32	-0.2543	-0.0183	0.236	987.4269	0.112509	-416.807389	-416.799274	-416.798329	-416.840344	29.231	
C	-0.1166981624	 1.2891626189	-0.3604313025	-0.356985
N	-0.037991126	-0.0596501858	 0.1669808847	-0.092811
C	-1.056275802	-1.1006758941	 0.182050281	-0.022953
C	-1.0005508758	-1.9719751955	-1.0587017114	-0.206077
C	-0.6426918694	-1.4503731119	-2.3522867099	 0.320684
N	-0.37592603	-1.0221660476	-3.3929542723	-0.339819
C	 0.0162020141	-2.1554424519	 0.0809571517	-0.244454
C	 1.0069046582	-0.978525783	 0.0380985164	 0.418984
O	 2.1898110533	-0.84140667	-0.0729590704	-0.340761
H	 0.9037701638	 1.6731825139	-0.4254462442	 0.166002
H	-0.5671732398	 1.3152460135	-1.3593281585	 0.149082
H	-0.6910678601	 1.9324945299	 0.3127118933	 0.132728
H	-1.9174749517	-1.0542748636	 0.8356618637	 0.132995
H	-1.7484578888	-2.7607821235	-1.0970732084	 0.148173
H	 0.1179579966	-3.0977630092	 0.5989772467	 0.135211
102.9966	112.8349	142.6639	200.9862	229.8623	271.2042	409.7673	468.6461	544.7137	647.5978	712.1092	741.582	746.911	834.7822	839.8902	915.9853	937.3622	984.8032	1023.7697	1057.586	1072.6818	1146.2986	1160.9538	1231.2836	1256.6298	1268.8352	1373.656	1392.0198	1450.6869	1485.8309	1510.8937	1901.698	2355.4706	3030.935	3096.5456	3136.7933	3146.9069	3206.5278	3235.2325
CN1C2C(C#N)C2C1=O	CN1[C@H]2[C@@H](C#N)[C@H]2C1=O	
InChI=1S/C6H6N2O/c1-8-5-3(2-7)4(5)6(8)9/h3-5H,1H3	InChI=1S/C6H6N2O/c1-8-5-3(2-7)4(5)6(8)9/h3-5H,1H3/t3-,4+,5-/m0/s1
