19
gdb 91450	2.47416	1.68978	1.3165	2.5136	74.99	-0.2431	-0.0098	0.2333	1043.6287	0.158434	-423.03117	-423.022668	-423.021724	-423.063916	32.602	
C	-0.0713462889	 1.5152584328	 0.0147743362	-0.419278
C	 0.0177602825	-0.0093313283	 0.0064401823	-0.01039
C	 0.9945557811	-0.5751580177	-1.0869980798	-0.25393
C	 1.972475073	-1.3200046743	-0.1644316769	-0.041058
O	 2.1475677446	-0.3766085714	 0.943154306	-0.329421
C	 0.7195697171	-0.6027776179	 1.2597589786	 0.277545
C	 0.2936005395	-0.2355474769	 2.6494069842	-0.507847
C	 1.0280639398	-2.0513530039	 0.8093503623	 0.412744
O	 0.8148548833	-3.158188723	 1.1951212535	-0.321224
H	 0.9129453789	 1.9539696231	 0.2050501484	 0.132745
H	-0.4238028681	 1.8840551666	-0.9540753799	 0.118093
H	-0.7651930131	 1.8780036209	 0.7798975766	 0.116919
H	-0.9840953416	-0.440493058	-0.0983708496	 0.083356
H	 0.5070147336	-1.2344265434	-1.8104200532	 0.113423
H	 1.5022029398	 0.2259670501	-1.6307478908	 0.114357
H	 2.8988384972	-1.7353968678	-0.5557380328	 0.101223
H	 0.3867965911	 0.8406461457	 2.8212664961	 0.135764
H	-0.7533739416	-0.5165197146	 2.800680201	 0.135324
H	 0.9008115518	-0.7614318422	 3.3902649278	 0.141657
116.691	148.2384	176.8825	219.4793	257.4528	264.4453	323.8018	411.4386	478.5502	516.4221	616.3763	690.0077	703.8145	763.3037	816.8752	839.3	884.2332	902.871	932.037	942.4671	1022.3361	1031.1721	1065.1096	1081.7867	1124.0167	1165.3783	1192.9685	1213.5718	1257.1704	1277.3946	1302.9796	1340.8313	1366.2556	1406.0708	1413.728	1476.1523	1485.4669	1488.4355	1501.3198	1505.5534	1916.9545	3034.1748	3043.5099	3046.6268	3061.1403	3099.7906	3109.4502	3114.7046	3116.1683	3126.6127	3152.7753
CC1CC2OC1(C)C2=O	C[C@H]1C[C@H]2O[C@]1(C)C2=O	
InChI=1S/C7H10O2/c1-4-3-5-6(8)7(4,2)9-5/h4-5H,3H2,1-2H3	InChI=1S/C7H10O2/c1-4-3-5-6(8)7(4,2)9-5/h4-5H,3H2,1-2H3/t4-,5+,7-/m0/s1
