15
gdb 22471	3.33939	0.81843	0.67239	8.9533	78.85	-0.2292	-0.0572	0.172	1570.3847	0.112059	-450.082139	-450.072784	-450.07184	-450.117213	32.257	
N	 0.0793120576	 1.3183049888	 0.0024774922	-0.494229
C	-0.0579584972	-0.0296800163	 0.090329031	 0.120188
N	-1.0334270032	-0.6644799361	-0.4309519474	-0.255438
H	-3.0741284571	-0.7907215369	-0.1227323031	 0.271036
C	-1.0184454133	-2.1091590016	-0.344946292	-0.233228
C	-2.4043040204	-2.6206197454	-0.0030215558	 0.111315
N	-3.3960583818	-1.7558109556	 0.069775119	 0.090302
O	-4.602530363	-1.9575814391	 0.3225186457	-0.443717
C	-2.6443393532	-3.9957080113	 0.211799984	 0.261653
N	-2.7634159521	-5.1369554271	 0.379599749	-0.332393
H	 0.7134489862	 1.7936977175	 0.6200179578	 0.270977
H	-0.6912634383	 1.8510202051	-0.3695258674	 0.268187
H	 0.7697004039	-0.52348308	 0.6165748974	 0.10756
H	-0.7209527906	-2.5382224438	-1.3137829034	 0.140037
H	-0.2980569473	-2.4934263382	 0.3970144628	 0.117751
56.9325	77.525	130.0503	162.3067	234.229	270.9491	286.1039	325.6255	347.0387	386.0329	478.0165	578.804	606.1007	611.24	722.4077	834.0904	959.7254	1001.9645	1028.8462	1039.4823	1163.5898	1222.8034	1238.5082	1304.0271	1347.7332	1390.8195	1423.0095	1487.0337	1498.3345	1630.2442	1663.4622	1761.6429	2326.5241	2957.4513	2997.2552	3039.2883	3264.3884	3601.6922	3732.9987
NC=[NH+]CC(=N[O-])C#N	NC=NC[C](N[O])C#N	
InChI=1S/C4H6N4O/c5-1-4(8-9)2-7-3-6/h3,9H,2H2,(H2,6,7)	InChI=1S/C4H6N4O/c5-1-4(8-9)2-7-3-6/h3,8H,2H2,(H2,6,7)
