17
gdb 13206	5.08398	1.24587	1.02649	4.9528	66.57	-0.2465	0.0217	0.2681	1119.7877	0.142183	-401.010644	-401.002265	-401.00132	-401.044717	28.931	
O	 0.1305956601	 1.348970754	-0.3179844761	-0.421699
C	 0.0860749332	-0.0324970229	-0.1221467148	-0.141261
C	-1.3735534756	-0.4882515484	-0.0279325528	 0.354008
O	-2.2775556437	 0.3339836036	-0.1248132439	-0.397363
N	-1.5931235119	-1.8005290589	 0.1613723724	-0.070234
C	-0.7291306166	-2.976315072	 0.306838736	-0.173436
C	-2.0156360063	-3.840795816	 0.4540364763	-0.241555
C	-2.8516399101	-2.5365290577	 0.2894287894	-0.162917
H	-0.8058557011	 1.6154987515	-0.3355741453	 0.293746
H	 0.5783382271	-0.5703523811	-0.9492055704	 0.105809
H	 0.6140939349	-0.3235459233	 0.800971564	 0.10583
H	-0.1155659595	-3.1910782705	-0.5753778864	 0.122568
H	-0.0784170852	-2.9457414619	 1.1880325094	 0.122578
H	-2.158785534	-4.5765253119	-0.3371693938	 0.123726
H	-2.1223206516	-4.3309006425	 1.4216188205	 0.123725
H	-3.4464522072	-2.2364718115	 1.1576273693	 0.128236
H	-3.4820277325	-2.4817220807	-0.6034528739	 0.128238
40.2333	98.3768	125.9193	143.1485	146.7383	330.1044	397.1984	472.7006	543.973	580.5839	763.7187	774.2212	844.4374	881.777	936.1127	953.1917	1033.0618	1036.4495	1139.1444	1141.686	1142.9281	1196.0726	1201.1239	1227.8658	1246.9874	1271.4382	1299.4917	1308.8199	1339.4298	1437.3045	1487.2241	1494.898	1509.9831	1517.4774	1532.683	1749.3577	2967.6736	2983.1987	3026.8129	3047.8038	3067.4118	3089.8247	3098.0754	3153.0487	3631.5987
OCC(=O)N1CCC1	OCC(=O)N1CCC1	
InChI=1S/C5H9NO2/c7-4-5(8)6-2-1-3-6/h7H,1-4H2	InChI=1S/C5H9NO2/c7-4-5(8)6-2-1-3-6/h7H,1-4H2
