18
gdb 22607	3.01493	1.22959	1.04306	1.9263	76.59	-0.2457	0.0003	0.2459	1198.2585	0.144831	-439.01026	-439.001107	-439.000163	-439.043826	34.199	
C	-0.087931556	 1.5876479629	 0.0539208621	-0.41205
C	-0.0007331128	 0.0691925765	-0.0332475387	-0.157179
C	 1.0833703383	-0.5728981886	-0.9145964453	 0.454312
N	 1.3371834119	-0.6675060074	-2.1507605472	-0.267636
O	 0.4450436629	 0.1118045321	-2.9111964673	-0.390332
C	 1.7060279974	-1.266488144	 0.2522502574	-0.167487
O	 2.0177894071	-0.2280740875	 1.2142750071	-0.280586
C	 0.6683714108	-0.6962007417	 1.1492641928	 0.415294
C	 0.0270812045	-1.2227818193	 2.3902985189	-0.50553
H	 0.8742616337	 2.003819026	 0.3623280666	 0.13559
H	-0.3527946045	 2.0097864581	-0.9185917534	 0.138179
H	-0.8484415744	 1.8947392883	 0.7798759793	 0.112593
H	-0.972442269	-0.3703922519	-0.2902937266	 0.098675
H	 0.7510804588	-0.0492237112	-3.8102365673	 0.308465
H	 2.2816754416	-2.1821866638	 0.2992116106	 0.113377
H	-0.2874492475	-0.4001817924	 3.0424439287	 0.136128
H	-0.8592356886	-1.8172524454	 2.1474528938	 0.129591
H	 0.7303151358	-1.8469788104	 2.9476594486	 0.138597
87.306	162.3563	188.1079	197.0767	222.202	234.5698	289.5197	337.0603	373.5741	442.0781	509.7361	572.1175	636.7665	656.9149	712.7544	780.0593	821.8902	853.2479	961.9768	981.0026	1008.8272	1049.5816	1066.003	1096.2412	1127.3722	1151.9068	1195.2483	1236.3152	1248.1032	1336.61	1399.6463	1401.7437	1410.1138	1451.857	1480.8623	1492.3117	1493.5873	1506.1965	1791.249	3035.4539	3039.804	3043.1635	3098.8608	3112.0262	3123.5184	3132.4342	3206.4032	3817.6072
CC1C(=NO)C2OC12C	C[C@H]1C(=NO)[C@H]2O[C@@]12C	
InChI=1S/C6H9NO2/c1-3-4(7-8)5-6(3,2)9-5/h3,5,8H,1-2H3	InChI=1S/C6H9NO2/c1-3-4(7-8)5-6(3,2)9-5/h3,5,8H,1-2H3/t3-,5+,6-/m0/s1
