17
gdb 69883	2.7054	1.68388	1.20811	1.3319	79.97	-0.2017	0.0309	0.2326	1032.898	0.134028	-384.581481	-384.573389	-384.572445	-384.613555	32.655	
O	-0.0844799885	 1.3806213262	 0.0248266159	-0.448814
C	 0.0199730378	 0.0109883363	 0.0289634599	 0.371991
C	-0.8801164658	-0.8209449423	 0.8662091903	-0.347534
C	 0.62658397	-0.9773590229	 1.0203069648	-0.15382
C	 1.2946159054	-1.7418855671	-0.1497236643	-0.097755
C	 0.3656197744	-2.2259875376	-1.2202976438	-0.351944
C	 0.7021021739	-0.7483742186	-1.1667757468	 0.083153
C	 1.3693138369	-0.0263516169	-2.1879427945	 0.187512
C	 1.9281440386	 0.648048676	-3.016886599	-0.419555
H	 0.7139702284	 1.7363721977	-0.3859956037	 0.289876
H	-1.3178732799	-0.2508275338	 1.6808860349	 0.126571
H	-1.5342176932	-1.5986872366	 0.4845052765	 0.112206
H	 1.1194476499	-0.8110641455	 1.9687166116	 0.098153
H	 2.3298044503	-2.0548969306	-0.1154682208	 0.107563
H	 0.8474316135	-2.7527300563	-2.0382494036	 0.129353
H	-0.6369582725	-2.5772382173	-1.006241998	 0.123309
H	 2.4157514209	 1.2203923592	-3.7663752294	 0.189733
119.7287	126.5853	252.6159	298.0523	370.6106	398.1794	429.1006	469.5546	498.6815	525.6905	537.2299	587.7984	630.7894	664.5764	771.7396	773.7223	847.4186	889.3102	913.0814	928.3795	963.5154	979.6613	1005.0924	1037.4444	1056.079	1080.4466	1103.3333	1153.4021	1212.9883	1254.3393	1272.7334	1328.8427	1347.1917	1426.9959	1488.6661	1520.5543	2216.9453	3119.4593	3136.5477	3195.7486	3201.7778	3207.7659	3217.6626	3501.5443	3770.0581
OC12CC1C1CC21C#C	O[C@]12C[C@H]1[C@H]1C[C@@]21C#C	
InChI=1S/C8H8O/c1-2-7-3-5(7)6-4-8(6,7)9/h1,5-6,9H,3-4H2	InChI=1S/C8H8O/c1-2-7-3-5(7)6-4-8(6,7)9/h1,5-6,9H,3-4H2/t5-,6+,7-,8-/m1/s1
