15
gdb 130703	5.67136	0.98301	0.89031	2.0921	68.2	-0.2226	0.0046	0.2272	1249.7706	0.115471	-450.141211	-450.133554	-450.132609	-450.174021	28.192	
O	-0.6791975321	 0.3312258584	-0.9964331314	-0.416933
C	-0.2409587202	 1.2749751923	-0.3787073824	 0.459928
N	-0.6595017678	 1.8372450855	 0.8084026282	-0.293273
N	 0.10539436	 2.9035193817	 1.2287957745	-0.294081
C	 0.9991993841	 3.0464917681	 0.2959158847	 0.431194
N	 0.8486507381	 2.1043358823	-0.6923009528	-0.418229
C	 2.0358153987	 4.09513225	 0.2945474376	-0.12585
C	 1.6174568129	 5.5252539651	 0.427307622	-0.222524
N	 2.2817392917	 4.8376884382	 1.5346710794	-0.30283
H	-1.4032015438	 1.4886559089	 1.3866161188	 0.283282
H	 1.4027183473	 1.9903388416	-1.5233597944	 0.279411
H	 2.9265913067	 3.8558246447	-0.2816573255	 0.103519
H	 2.204995832	 6.3005682905	-0.0565542893	 0.127419
H	 0.5503572625	 5.7159853488	 0.4944739389	 0.131979
H	 1.5911658502	 4.5441039941	 2.2240465119	 0.256989
53.2602	140.11	176.5657	225.2362	351.2937	377.6643	467.9212	504.3563	523.1676	672.9538	724.4114	761.7628	769.6996	834.711	890.467	972.3286	987.9699	1005.9446	1028.2891	1096.9948	1122.072	1137.9858	1188.1612	1216.6411	1263.1129	1273.5793	1312.9494	1379.2336	1390.7543	1496.0928	1513.1136	1635.8009	1861.5474	3112.4328	3134.8971	3206.5793	3490.4794	3685.7213	3699.4478
O=C1NN=C(N1)C1CN1	O=c1[nH]nc([nH]1)[C@H]1CN1	
InChI=1S/C4H6N4O/c9-4-6-3(7-8-4)2-1-5-2/h2,5H,1H2,(H2,6,7,8,9)	InChI=1S/C4H6N4O/c9-4-6-3(7-8-4)2-1-5-2/h2,5H,1H2,(H2,6,7,8,9)/t2-/m1/s1
