17
gdb 46681	3.12813	1.77134	1.38322	2.0258	72.21	-0.2452	0.0187	0.264	936.7014	0.139546	-417.971357	-417.964702	-417.963757	-418.002397	26.83	
N	-0.1108454802	 1.2951685841	-0.3294814103	-0.524611
C	 0.0105741007	 0.0972376698	 0.0653033165	 0.398344
O	 1.190231504	-0.3822770354	 0.5521087311	-0.257687
C	 1.3431379514	-1.7815211599	 0.8477533536	-0.108929
C	 0.0928861677	-2.471189757	 1.358257046	-0.043595
C	-1.2049707849	-1.7807150485	 1.276003672	-0.056564
C	-1.1431110766	-0.8602913769	 0.0491036222	-0.11978
C	-0.9575185226	-2.1736345913	-0.7710676447	-0.182631
N	-0.9549290893	-3.0297441868	 0.4622029062	-0.147895
H	 0.7840201774	 1.7839003761	-0.2509724436	 0.21783
H	 1.7418379639	-2.289378693	-0.0400302527	 0.124059
H	 2.1158072661	-1.8171982045	 1.6194227494	 0.12857
H	 0.2528033507	-3.1229391341	 2.2111528666	 0.112702
H	-1.9276128578	-1.7349819526	 2.082597746	 0.106758
H	-2.0516946747	-0.3131708588	-0.187613002	 0.114059
H	-1.8374391845	-2.4112114783	-1.3701532874	 0.126558
H	-0.0672648712	-2.2673252928	-1.4008289989	 0.112812
112.693	181.3087	318.7625	394.9902	416.8841	467.3703	548.3717	674.7885	724.6543	729.0315	779.2927	801.6176	864.6425	889.399	910.3333	960.2905	963.705	975.1886	1018.1239	1061.7044	1065.6193	1078.8407	1098.053	1160.5106	1181.5973	1224.7527	1236.6502	1276.5227	1293.8051	1299.8255	1314.4414	1348.4719	1420.6421	1433.5537	1497.4049	1519.8909	1748.8681	3023.3585	3057.7274	3096.588	3123.1102	3156.1508	3164.9184	3181.8157	3457.4191
N=C1OCC2C3C1CN23	[NH][C]1OC[C@H]2[C@H]3[C@@H]1CN23	
InChI=1S/C6H8N2O/c7-6-3-1-8-4(2-9-6)5(3)8/h3-5,7H,1-2H2	InChI=1S/C6H8N2O/c7-6-3-1-8-4(2-9-6)5(3)8/h3-5,7H,1-2H2/t3-,4-,5+,8?/m0/s1
