15
gdb 129478	4.41833	1.06028	0.94381	1.6414	67.46	-0.2548	-0.0188	0.236	1197.9731	0.114475	-450.155981	-450.148069	-450.147125	-450.189789	28.56	
N	 0.6024374356	 0.0071471868	-0.6031654008	-0.511138
C	-0.2696787996	 0.2126481366	 0.4103367953	 0.387198
O	-0.2229085482	 1.1385215337	 1.1943810551	-0.350598
C	-1.4221500694	-0.8099721807	 0.5074642116	-0.27132
N	-1.0916457349	-2.1686982711	 0.1128544713	 0.077477
C	-0.900687267	-3.2607988558	 0.8874921109	-0.084385
C	-0.5633250097	-4.2541677035	-0.0018807704	-0.066847
N	-0.5555478279	-3.7309988161	-1.2556433288	-0.184995
N	-0.8790873261	-2.4698112631	-1.1869227138	-0.163949
H	 1.3286783535	 0.6889151867	-0.7490272355	 0.267303
H	 0.4568858771	-0.7299098188	-1.2776563925	 0.285996
H	-1.7603397196	-0.8152913003	 1.5426058868	 0.158023
H	-2.2436434819	-0.4592837258	-0.1241958297	 0.16673
H	-1.021686865	-3.2384234725	 1.957329436	 0.156138
H	-0.3340818768	-5.2908274563	 0.1825961744	 0.134365
46.9046	52.8634	133.7878	302.9323	331.542	388.3475	395.1463	511.224	578.5552	653.3	681.4158	718.4849	791.4702	796.839	864.0985	868.743	955.4796	970.8474	1043.4918	1091.4935	1111.3346	1149.2943	1176.3733	1271.3597	1311.0485	1338.8392	1361.5092	1368.3778	1460.3828	1500.5229	1518.9341	1622.8943	1812.9222	3076.3663	3158.5622	3272.4465	3293.2003	3559.2359	3708.109
NC(=O)CN1C=CN=N1	NC(=O)Cn1ccnn1	
InChI=1S/C4H6N4O/c5-4(9)3-8-2-1-6-7-8/h1-2H,3H2,(H2,5,9)	InChI=1S/C4H6N4O/c5-4(9)3-8-2-1-6-7-8/h1-2H,3H2,(H2,5,9)
