17
gdb 25794	3.70414	1.12587	0.87276	3.837	81.43	-0.2288	-0.0452	0.1836	1304.4666	0.134531	-421.894651	-421.885714	-421.88477	-421.928897	31.818	
C	-0.1870869172	 1.4969526576	 0.0978439295	-0.485785
C	 0.0171382063	-0.0041584343	 0.0086881074	 0.287348
O	 1.1223918053	-0.512054523	-0.0407782216	-0.318303
C	-1.1815244035	-0.8452484954	-0.0169699952	 0.249157
C	-1.3342157244	-2.202634708	-0.0912727519	-0.232815
C	-2.7330910866	-2.453570878	-0.0798222806	-0.254313
C	-3.3485029473	-1.2338043841	 0.0008771761	 0.345021
C	-4.7736896014	-0.8160440289	 0.0505182046	-0.493866
O	-2.4174264867	-0.2495311112	 0.0397799658	-0.206591
H	 0.7871147671	 1.9861889934	 0.1067627731	 0.138517
H	-0.7787200322	 1.8567911892	-0.7503444964	 0.141355
H	-0.7443495625	 1.7569460372	 1.0038692826	 0.141373
H	-0.5270087939	-2.9152065037	-0.1465972199	 0.139131
H	-3.2298568119	-3.4102476873	-0.1249706487	 0.116826
H	-4.9951322867	-0.2631011266	 0.9701569292	 0.145817
H	-5.0273281188	-0.1637315501	-0.7925420933	 0.145819
H	-5.4206957256	-1.6946422968	 0.0127531895	 0.141309
75.3621	105.4452	116.1615	148.5977	153.3636	278.7828	326.4931	374.8848	497.6661	552.0531	624.1808	644.0278	679.932	683.9948	814.5842	885.689	927.2796	970.3971	994.7631	1003.9954	1041.5614	1045.1715	1062.6213	1123.1795	1229.0473	1248.5773	1309.7193	1380.8887	1399.1989	1414.893	1461.8847	1471.7171	1472.5451	1488.6327	1554.7622	1630.5169	1763.2446	3034.7571	3043.9737	3086.9894	3105.7595	3135.2575	3157.8376	3256.0138	3276.0532
CC(=O)C1=CC=C(C)O1	CC(=O)c1ccc(C)o1	
InChI=1S/C7H8O2/c1-5-3-4-7(9-5)6(2)8/h3-4H,1-2H3	InChI=1S/C7H8O2/c1-5-3-4-7(9-5)6(2)8/h3-4H,1-2H3
