16
gdb 52293	3.8709	0.8996	0.76202	1.9526	66.52	-0.2605	-0.0071	0.2534	1410.9538	0.124781	-475.070309	-475.061757	-475.060813	-475.105239	29.655	
O	-0.1125620071	 0.5328283295	 0.940896033	-0.321267
C	 0.0136267277	 1.3178225842	 0.0251735752	 0.156188
N	 1.1615312784	 1.5238566527	-0.6773178885	-0.277286
C	 2.4059043376	 0.8540186441	-0.3505755661	-0.189087
C	 3.4919657276	 1.8800383666	-0.0180098391	-0.194527
C	 4.9747764187	 1.4690278578	-0.0855377242	-0.106866
O	 5.1935491753	 2.4113834441	-1.1915133326	-0.234798
C	 3.8773849842	 2.7819175054	-1.1926118111	 0.466041
O	 3.3189827536	 3.5209126791	-1.9426130193	-0.332806
H	-0.8119371491	 1.9558661615	-0.3444977313	 0.08467
H	 1.1860935301	 2.2459420783	-1.3828709342	 0.268918
H	 2.2003377879	 0.2030721676	 0.5017362255	 0.158585
H	 2.7346119341	 0.2246726508	-1.1881125073	 0.119729
H	 3.2212757654	 2.4490316517	 0.8745510508	 0.131105
H	 5.5947990851	 1.7290551369	 0.7731881041	 0.13686
H	 5.1754756506	 0.4467356496	-0.4134191249	 0.134542
33.4478	72.855	120.1209	157.7689	233.3	284.9127	348.2075	404.1975	513.7779	594.6439	713.1611	747.5403	773.8457	849.5431	893.3056	942.5082	976.5546	1034.0636	1061.4555	1086.9153	1131.0482	1138.2333	1163.3421	1208.3095	1221.7275	1270.9105	1315.3382	1362.6278	1392.0733	1427.9195	1499.3886	1514.9682	1540.461	1804.2157	1919.0469	2952.5455	3019.1934	3078.2645	3094.4168	3120.8355	3143.2989	3612.367
O=CNCC1COC1=O	O=CNC[C@H]1COC1=O	
InChI=1S/C5H7NO3/c7-3-6-1-4-2-9-5(4)8/h3-4H,1-2H2,(H,6,7)	InChI=1S/C5H7NO3/c7-3-6-1-4-2-9-5(4)8/h3-4H,1-2H2,(H,6,7)/t4-/m0/s1
