18
gdb 48892	3.3294	1.50093	1.39795	2.8171	75.45	-0.2435	-0.0333	0.2102	980.9837	0.149522	-401.902907	-401.895965	-401.895021	-401.934518	27.822	
O	-0.5738346852	 0.774168306	 0.7243765321	-0.248231
C	 0.0797313392	 1.1351137149	-0.2230004072	 0.046588
C	 1.3501752373	 1.9170793188	-0.1153332889	 0.258578
C	 2.7179850027	 1.2837430194	-0.5063993978	-0.277161
C	 3.0563015685	 2.7488405273	-0.765272458	 0.002369
C	 2.6566087599	 3.6489848609	 0.4768509699	-0.060007
C	 1.6631194622	 4.303909728	-0.500829899	-0.171108
N	 1.6113750818	 2.9831503375	-1.2171791759	-0.186431
C	 1.7113047553	 2.6594094128	 1.1891221917	-0.269334
H	-0.2182550475	 0.8928535232	-1.2665489049	 0.085982
H	 3.2466952482	 0.7138974664	 0.2595056514	 0.110836
H	 2.6658974173	 0.7298804291	-1.446095425	 0.120259
H	 3.8593526533	 3.0855457731	-1.422014168	 0.082817
H	 3.3749832011	 4.211466165	 1.0741304253	 0.068405
H	 0.7135421346	 4.6859320374	-0.1119597876	 0.104146
H	 2.1107169535	 5.0378937065	-1.177161547	 0.111016
H	 0.8619192201	 3.1477153628	 1.6715995812	 0.113226
H	 2.1952218476	 2.004704851	 1.9166419779	 0.108051
65.8174	194.3273	235.0828	411.7845	414.1017	465.4761	494.8026	636.2658	693.8072	766.9608	772.1918	835.6207	844.135	882.1543	906.8767	944.5726	962.7723	990.4446	1001.1058	1013.9479	1029.7526	1063.1994	1079.5538	1099.8827	1148.3815	1179.9954	1193.4189	1227.2038	1229.805	1247.2608	1264.9403	1287.9118	1315.3359	1328.3835	1411.9938	1477.2215	1500.3573	1519.8035	1818.5836	2898.7186	3044.1277	3072.4241	3076.1721	3103.0778	3105.0045	3114.9272	3123.0266	3139.7044
O=CC12CC3C(CN13)C2	O=C[C@@]12C[C@@H]3[C@@H](CN13)C2	
InChI=1S/C7H9NO/c9-4-7-1-5-3-8(7)6(5)2-7/h4-6H,1-3H2	InChI=1S/C7H9NO/c9-4-7-1-5-3-8(7)6(5)2-7/h4-6H,1-3H2/t5-,6-,7-/m1/s1
