14
gdb 19956	3.87828	1.74052	1.46402	2.0792	58.	-0.26	-0.0348	0.2252	855.6527	0.105793	-419.639074	-419.631978	-419.631034	-419.670991	25.321	
O	-0.1428362767	 0.0336103157	 0.0572740713	-0.267928
C	 0.0068332631	 1.2138999803	 0.070810477	 0.360734
C	-0.8470413524	 2.4462665425	 0.3822225344	-0.187214
O	 0.2476972693	 3.2925443232	-0.0353800616	-0.284596
C	 1.1587253429	 2.1948132069	-0.2539230761	-0.037056
C	 2.3114275935	 2.1703879765	 0.7198416879	 0.053666
C	 2.6977605149	 3.374800681	 1.4638019687	-0.164988
O	 1.9572765258	 2.3230235967	 2.0926644038	-0.235708
H	-1.7459934817	 2.5755900129	-0.231669146	 0.134761
H	-1.0932347044	 2.5688551746	 1.443673754	 0.147649
H	 1.5254169932	 2.1524645944	-1.2885444173	 0.111885
H	 3.0577801671	 1.4012697834	 0.5180482193	 0.110738
H	 3.7264134068	 3.4873350576	 1.8016231496	 0.120666
H	 2.1388461484	 4.2916001244	 1.2971646652	 0.137391
84.021	111.3744	156.0563	251.8636	350.9431	427.6487	546.2604	622.2809	719.3246	761.2954	836.9341	881.7139	932.2016	969.6067	1007.4385	1024.1542	1075.3184	1091.0949	1101.7787	1142.0623	1163.0811	1170.1647	1225.3137	1279.4277	1294.8316	1330.7956	1414.6376	1472.4072	1514.9254	1931.967	3022.6238	3031.0251	3082.4294	3098.3983	3112.8033	3199.535
O=C1COC1C1CO1	O=C1CO[C@H]1[C@H]1CO1	
InChI=1S/C5H6O3/c6-3-1-8-5(3)4-2-7-4/h4-5H,1-2H2	InChI=1S/C5H6O3/c6-3-1-8-5(3)4-2-7-4/h4-5H,1-2H2/t4-,5-/m1/s1
