20
gdb 13146	3.73583	1.28457	1.05	1.4122	71.41	-0.244	0.0702	0.3142	1177.7523	0.175783	-386.109533	-386.100336	-386.099392	-386.144426	32.076	
C	 0.076044186	 1.3540429021	 0.6073818181	-0.224353
O	-0.0139107568	-0.029044915	 0.8535514932	-0.236486
C	 1.0863362104	-0.7513505429	 0.3450270161	-0.074634
C	 0.8564024054	-2.2236031863	 0.638965107	 0.114366
O	 1.9366462763	-3.0284110282	 0.1175403669	-0.297574
C	 2.2125211627	-3.5924192833	 1.417858104	-0.077669
C	 1.082431145	-2.769226408	 2.0770220273	-0.031622
C	 1.4654396851	-1.8052034262	 3.191588224	-0.412469
H	 0.1153010431	 1.5736993164	-0.4711672741	 0.106296
H	-0.8159022654	 1.8218703855	 1.0312609638	 0.126785
H	 0.9680571405	 1.7960622637	 1.0789039685	 0.104683
H	 1.179192254	-0.6205802297	-0.7465579709	 0.095876
H	 2.0310465079	-0.4035040328	 0.7926619308	 0.087139
H	-0.1089458073	-2.5163947846	 0.2051861043	 0.080327
H	 2.0853943827	-4.6818867647	 1.4256306967	 0.099107
H	 3.2287484988	-3.3526727956	 1.7585376386	 0.0963
H	 0.2452829753	-3.3918076326	 2.4023730965	 0.081012
H	 2.3605059581	-1.2275558449	 2.938838966	 0.115936
H	 0.6553325718	-1.0983534176	 3.3914819192	 0.134064
H	 1.6795460963	-2.3528966851	 4.115522414	 0.112914
37.2319	78.3735	103.8318	174.3167	205.9046	225.9362	285.6244	349.2338	368.5004	420.7004	541.7707	744.2287	802.6294	892.1003	918.3222	979.2951	998.3397	1014.5234	1035.4958	1052.672	1130.7206	1151.3791	1158.5678	1173.6596	1186.9839	1197.9085	1226.3513	1234.4161	1277.3711	1281.3835	1345.1298	1369.5765	1386.684	1413.2874	1425.027	1481.3236	1485.5006	1491.49	1499.0758	1506.3832	1526.7825	1528.8221	2960.087	2973.9666	2991.4808	3005.4587	3015.7666	3019.3266	3036.0941	3046.6242	3073.2364	3101.1052	3113.4803	3116.4043
COCC1OCC1C	COC[C@H]1OC[C@H]1C	
InChI=1S/C6H12O2/c1-5-3-8-6(5)4-7-2/h5-6H,3-4H2,1-2H3	InChI=1S/C6H12O2/c1-5-3-8-6(5)4-7-2/h5-6H,3-4H2,1-2H3/t5-,6-/m1/s1
