19
gdb 100444	3.80203	0.61874	0.54872	4.2277	84.	-0.2536	-0.0455	0.208	1984.3412	0.155274	-423.016829	-423.005665	-423.00472	-423.055762	37.689	
C	-0.0871467844	 1.6291029775	 0.3407494308	-0.385992
C	-0.0293111688	 0.1145782208	 0.0559716205	-0.151112
C	 0.7955977744	-0.6367217637	 1.1155952009	-0.068413
O	 2.1162284222	-0.1272569299	 1.0601054436	-0.417041
C	-1.3641006845	-0.4625518584	-0.0563311218	 0.04333
C	-2.4767942266	-0.9250981361	-0.1429175871	 0.048123
C	-3.8137738609	-1.476515788	-0.2571623041	 0.24506
C	-4.0483432349	-2.7762951066	 0.4873210943	-0.476598
O	-4.6778856567	-0.9268307527	-0.9071045047	-0.276743
H	 0.9280284291	 2.0205139798	 0.426441725	 0.140698
H	-0.6097705763	 2.1541856536	-0.4619649024	 0.130708
H	-0.6184062836	 1.8235055354	 1.2775770267	 0.123107
H	 0.4840738969	-0.0349048345	-0.9042956472	 0.127046
H	 0.3394088277	-0.4811170588	 2.1055977573	 0.097155
H	 0.7685413266	-1.7147247694	 0.8993599599	 0.098462
H	 2.6317734139	-0.5404960437	 1.7583243346	 0.292685
H	-3.3565821788	-3.5456629514	 0.1275234593	 0.144269
H	-3.8470459235	-2.640053266	 1.5554187231	 0.143286
H	-5.0791531019	-3.1015730079	 0.339446591	 0.14197
9.8713	62.2102	79.399	120.4762	140.8219	167.2415	220.9004	231.8636	240.8112	320.7392	343.032	443.3564	518.2031	521.2081	600.1043	613.5826	698.7566	846.7478	931.5185	948.9099	993.0918	1042.368	1064.845	1083.7163	1112.8349	1164.8853	1234.9417	1244.8141	1263.2102	1322.4175	1336.783	1380.4614	1398.7632	1452.9874	1461.0454	1468.8548	1493.2518	1500.4989	1522.0898	1766.8186	2326.4523	2978.7583	3008.3291	3024.6662	3038.6182	3050.4825	3102.6612	3123.0101	3145.9442	3151.1017	3838.9201
CC(CO)C#CC(C)=O	C[C@@H](CO)C#CC(=O)C	
InChI=1S/C7H10O2/c1-6(5-8)3-4-7(2)9/h6,8H,5H2,1-2H3	InChI=1S/C7H10O2/c1-6(5-8)3-4-7(2)9/h6,8H,5H2,1-2H3/t6-/m1/s1
