17
gdb 27761	2.26241	1.81532	1.03296	0.4276	77.87	-0.1594	0.0521	0.2115	1120.1801	0.137556	-417.994027	-417.985694	-417.98475	-418.026725	31.571	
N	-0.0464790129	 1.4133951787	-0.2091932638	-0.608587
C	-0.0160719387	 0.0216747033	 0.002662495	 0.145
C	-1.060142665	-0.8521483587	 0.1750818982	 0.166582
C	-2.4520203934	-1.3285234473	-0.213324378	-0.35161
C	-1.7965108605	-2.7520176302	-0.3097009102	-0.166824
N	-0.5498560864	-2.1567439541	 0.2305057595	-0.059634
C	 0.7931434348	-2.1212026253	 0.0460022585	 0.340292
O	 1.5049755825	-3.2773489563	 0.044101597	-0.433598
C	 1.1761133595	-0.7923064374	-0.0165953457	-0.359032
H	 0.7689210937	 1.8769543432	 0.172057743	 0.237588
H	-0.8721606183	 1.8411188034	 0.1896543758	 0.238471
H	-3.2342342178	-1.2382896182	 0.5471590704	 0.109182
H	-2.8407044403	-0.9523056399	-1.163558614	 0.117578
H	-2.2139596662	-3.5421274636	 0.3189523647	 0.119618
H	-1.6852202698	-3.1141994449	-1.3353322597	 0.126642
H	 2.4309017169	-3.059048185	-0.0993613353	 0.303134
H	 2.1941415421	-0.4275221678	-0.0076133254	 0.075198
120.0189	161.4465	180.1433	239.8445	254.3415	265.2828	291.0826	419.3119	596.5704	604.5591	642.378	647.822	671.4984	712.505	741.0438	778.8541	801.3792	918.9029	941.6874	1031.7587	1060.5455	1122.8574	1146.0571	1182.9132	1196.4661	1208.7498	1234.307	1263.1875	1275.6503	1327.0176	1413.1369	1488.2307	1507.6666	1529.8994	1573.5615	1649.568	1666.7071	3042.8038	3058.3413	3087.3393	3114.6512	3218.2985	3530.8629	3618.4513	3842.5138
NC1=C2CCN2C(O)=C1	N[C]1[C]2CCN2C(=C1)O	
InChI=1S/C6H8N2O/c7-4-3-6(9)8-2-1-5(4)8/h3,9H,1-2,7H2	InChI=1S/C6H8N2O/c7-4-3-6(9)8-2-1-5(4)8/h3,9H,1-2,7H2
