17
gdb 43820	2.98954	1.59451	1.20819	3.634	75.09	-0.2398	0.0167	0.2566	1036.642	0.137419	-417.979001	-417.971747	-417.970802	-418.010652	29.032	
N	-0.0808040097	 1.2240102515	 0.4123900601	-0.555923
C	-0.035043372	 0.0212263157	 0.0340750419	 0.446351
O	 1.0944187839	-0.6363056531	-0.3821306597	-0.281608
C	 0.7631283708	-1.8815753497	-0.9978346368	 0.478455
C	 1.4178294613	-2.1903655836	-2.310635294	-0.338113
C	 1.8384596442	-2.9142559832	-1.0412216962	-0.320392
C	-0.6841783053	-2.1405365091	-0.7137084894	-0.163146
N	-0.9618468462	-2.152819954	 0.7331616473	-0.336636
C	-1.19300629	-0.9113587754	-0.058362668	-0.124816
H	 0.8415395871	 1.6577745359	 0.3455452363	 0.223383
H	 0.8477631691	-2.7317934719	-3.0587507617	 0.117642
H	 2.0950966369	-1.4419043449	-2.7055642364	 0.131654
H	 2.7927322347	-2.6411250066	-0.6060275866	 0.134819
H	 1.5568466571	-3.9529800089	-0.9090447175	 0.123757
H	-1.2751759312	-2.7362483387	-1.39967262	 0.106323
H	-1.8676419019	-2.5902444407	 0.8922980401	 0.239588
H	-2.1910104388	-0.5112091333	-0.1744448195	 0.118663
102.4803	177.3455	256.5289	273.5584	376.0032	433.051	494.465	551.6461	632.3378	718.4327	758.4764	818.0146	838.4198	863.4964	876.3608	888.5782	903.9146	930.2195	946.6961	973.6718	984.3091	1048.0243	1055.8715	1075.0712	1094.9719	1126.7906	1145.9334	1186.1512	1234.8205	1252.7503	1301.0578	1353.3694	1381.3386	1432.5032	1452.1331	1503.6399	1786.1932	3132.3424	3140.9256	3181.6987	3216.2438	3220.4051	3235.0466	3474.1979	3490.5977
N=C1OC2(CC2)C2NC12	[NH][C]1OC2(CC2)[C@H]2N[C@@H]12	
InChI=1S/C6H8N2O/c7-5-3-4(8-3)6(9-5)1-2-6/h3-4,7-8H,1-2H2	InChI=1S/C6H8N2O/c7-5-3-4(8-3)6(9-5)1-2-6/h3-4,7-8H,1-2H2/t3-,4+/m1/s1
