18
gdb 90791	2.45303	2.094	1.45271	3.8637	74.49	-0.2389	0.0023	0.2412	941.9897	0.149461	-401.947143	-401.93994	-401.938996	-401.978568	28.877	
C	-0.1172418649	 1.5625544736	 0.094599737	-0.408998
C	 0.0398903517	 0.0521028912	-0.0052192924	 0.049939
C	 0.9060028455	-0.4647998916	-1.1982749461	-0.272262
C	 1.6155822147	-1.6780188718	-0.5978044184	-0.0464
C	 1.1085656859	-1.9194976933	 0.7750869923	-0.041887
C	 2.5501999847	-1.4560924492	 0.6326921454	-0.229398
C	 2.106929503	-0.1763886653	 1.2575405062	 0.434166
O	 2.6221378442	 0.8120573655	 1.6895368021	-0.337363
N	 0.6941069016	-0.5517027392	 1.1975032267	-0.177234
H	 0.851027664	 2.0569054145	 0.2046825554	 0.145509
H	-0.6034003344	 1.9480291718	-0.8071217197	 0.11348
H	-0.7322549317	 1.8281949266	 0.9585268815	 0.1303
H	-0.9510565403	-0.4120362267	-0.0668769919	 0.086321
H	 0.2863222713	-0.7578482737	-2.0511304103	 0.10742
H	 1.61073784	 0.2974636268	-1.5472313822	 0.116772
H	 1.9094801914	-2.511988812	-1.2263376578	 0.104306
H	 0.7078092894	-2.8135811798	 1.2305072485	 0.112901
H	 3.482885304	-1.9937044372	 0.7451511537	 0.112428
125.4892	166.9632	221.9587	310.118	357.5017	430.2735	514.4231	568.7121	659.9129	704.5615	773.3029	803.4122	823.8234	845.3539	858.8406	904.1133	934.6608	958.2468	973.6471	1000.6585	1032.1664	1054.3794	1070.4946	1104.487	1112.4268	1136.4888	1158.1257	1221.5799	1244.8285	1279.2055	1293.2929	1343.005	1372.8804	1381.1888	1415.5696	1488.7988	1495.0883	1500.036	1894.9162	3034.9912	3044.9739	3048.2582	3091.6053	3115.9787	3132.4114	3176.4666	3201.8211	3224.5441
CC1CC2C3C2C(=O)N13	C[C@H]1C[C@@H]2[C@H]3[C@@H]2C(=O)N13	
InChI=1S/C7H9NO/c1-3-2-4-5-6(4)8(3)7(5)9/h3-6H,2H2,1H3	InChI=1S/C7H9NO/c1-3-2-4-5-6(4)8(3)7(5)9/h3-6H,2H2,1H3/t3-,4-,5+,6-/m0/s1
