18
gdb 15944	3.53153	1.85985	1.49754	2.1326	67.33	-0.2398	0.061	0.3008	900.8343	0.153219	-384.891382	-384.883611	-384.882667	-384.923674	28.738	
C	-0.1239187043	 1.3681884182	-0.0204283353	-0.265169
O	-0.0838018449	-0.0459916012	-0.0559985573	-0.287605
C	 0.6725552642	-0.5507877713	-1.1065794322	 0.389098
C	 0.1105521256	-0.4473067626	-2.5568247529	-0.298026
C	 0.3219047277	-1.9867223784	-2.7341678435	-0.231098
C	 0.8863138484	-2.0741393584	-1.2970244383	 0.04731
O	 2.3196790534	-1.9119379876	-1.2543690472	-0.290785
C	 2.2144802319	-0.4910523	-1.0011268568	-0.128917
H	 0.8778781586	 1.8019329778	 0.116062431	 0.111219
H	-0.562400377	 1.7880876985	-0.9370764515	 0.112894
H	-0.7472714356	 1.6503242528	 0.8306109903	 0.131815
H	-0.944056557	-0.1622801628	-2.558544877	 0.111027
H	 0.6552726608	 0.2051068097	-3.2438576299	 0.098602
H	-0.6097765189	-2.5390285664	-2.8790866373	 0.106089
H	 1.0405956189	-2.2904939349	-3.4972780446	 0.113424
H	 0.5255038812	-2.8492752691	-0.6173532997	 0.081561
H	 2.754494344	 0.1065673445	-1.7457693565	 0.096098
H	 2.567997073	-0.2355313886	 0.0062182687	 0.102462
84.6669	107.1876	187.6186	194.96	311.9737	356.0801	402.057	444.1339	641.0482	661.1806	741.0342	845.4686	872.4358	919.1291	941.9653	956.1407	1001.7642	1026.9607	1053.2854	1109.2675	1138.3492	1150.8444	1181.5006	1183.4456	1194.059	1212.3326	1230.6368	1251.4466	1276.0386	1284.2285	1315.4439	1372.6197	1461.2287	1477.3313	1486.0012	1489.605	1506.2841	1512.1965	2985.8114	3006.9154	3036.4955	3057.3901	3060.7803	3068.2038	3089.846	3112.2467	3122.6129	3133.1604
COC12CCC1OC2	CO[C@]12CC[C@H]1OC2	
InChI=1S/C6H10O2/c1-7-6-3-2-5(6)8-4-6/h5H,2-4H2,1H3	InChI=1S/C6H10O2/c1-7-6-3-2-5(6)8-4-6/h5H,2-4H2,1H3/t5-,6+/m1/s1
