20
gdb 120024	2.01488	1.46181	1.03933	3.1006	76.76	-0.2168	-0.0162	0.2007	1243.2994	0.168427	-440.258277	-440.248455	-440.247511	-440.293295	34.898	
C	-0.1855928708	 1.4569347664	-0.1809835649	-0.228888
O	 0.005638811	 0.0656165424	-0.0557742318	-0.232395
C	 0.5648346534	-0.5240622211	-1.2110232446	-0.09364
C	 0.6416314758	-2.0327720183	-1.0119021506	-0.123332
N	 1.3635103272	-2.565584048	 0.1715846731	-0.07978
C	 2.3938090369	-1.7916424691	 0.8321843318	-0.330653
C	 0.1251152273	-2.893891996	 0.9069220146	-0.283184
C	-0.642210484	-2.6348061291	-0.3944165229	 0.413485
O	-1.7520834399	-2.8259392847	-0.7870345076	-0.297267
H	 0.7657500079	 1.9839682396	-0.3525143926	 0.107635
H	-0.8685694533	 1.6973995021	-1.0096609764	 0.113477
H	-0.6236955231	 1.8117253474	 0.754477983	 0.132695
H	-0.0599027548	-0.3211878709	-2.096658613	 0.108694
H	 1.5666626102	-0.1076683368	-1.4120988223	 0.097055
H	 0.9625155307	-2.4881144309	-1.9588697566	 0.098397
H	 2.0357671505	-0.8282635092	 1.2292271049	 0.11224
H	 2.805204621	-2.3762969496	 1.6616852391	 0.122107
H	 3.2151149891	-1.5967368339	 0.134121432	 0.118282
H	 0.0803675179	-3.9053235774	 1.3271809252	 0.120945
H	-0.1605414429	-2.163150463	 1.6806555797	 0.124129
70.7405	108.3448	117.655	139.1993	209.3535	218.1238	246.0381	270.4565	322.7301	369.2894	446.3599	527.82	614.4385	675.5728	746.3026	815.316	917.5439	959.8799	1033.2722	1042.0738	1060.9398	1083.0946	1119.7723	1156.765	1164.4182	1178.8746	1196.0806	1216.8531	1232.1622	1249.1058	1295.266	1316.8051	1322.847	1402.8079	1447.3361	1472.3842	1477.8607	1485.4754	1489.6048	1497.3149	1513.3219	1519.6868	1921.2316	2956.2476	2976.2511	2978.9585	2982.1094	2991.5285	3016.5686	3026.368	3055.5479	3061.3398	3094.3196	3121.2866
COCC1N(C)CC1=O	COC[C@H]1N(C)CC1=O	
InChI=1S/C6H11NO2/c1-7-3-6(8)5(7)4-9-2/h5H,3-4H2,1-2H3	InChI=1S/C6H11NO2/c1-7-3-6(8)5(7)4-9-2/h5H,3-4H2,1-2H3/t5-/m1/s1
