19
gdb 128483	2.02958	1.83362	1.02356	2.7509	79.53	-0.216	0.0324	0.2484	1190.4405	0.158687	-419.221118	-419.211206	-419.210262	-419.25705	33.976	
C	-1.3780947051	 0.2609941052	-0.0749372421	-0.253951
O	 0.0484283792	 0.1712788951	-0.0998248432	-0.273645
C	 0.5571782476	-0.6639296894	-1.0378168891	 0.357536
C	 0.5522849746	-2.0449206977	-1.1411068718	 0.070569
C	-0.0838426249	-3.0329871573	-0.2130096378	-0.515155
C	 1.313054575	-2.2766265503	-2.3074034139	-0.063498
N	 1.7553859658	-1.1546512466	-2.8699839921	-0.2894
N	 1.2761795244	-0.1678623788	-2.0825156142	-0.018287
C	 1.5795945012	 1.2160847718	-2.3684643536	-0.326516
H	-1.7662318538	 0.6267313197	-1.0331324622	 0.12345
H	-1.8343787527	-0.7090074072	 0.1497203285	 0.131913
H	-1.628039491	 0.9706936425	 0.7159353256	 0.135895
H	-1.1071935284	-3.2952312169	-0.5107254922	 0.123357
H	 0.4891347678	-3.9647666721	-0.1827527832	 0.128467
H	-0.1294711545	-2.6411745889	 0.8082337009	 0.127883
H	 1.5667296095	-3.2298090847	-2.7508346937	 0.105089
H	 1.1320782266	 1.5188070705	-3.3197137503	 0.140537
H	 1.1771972473	 1.8284579285	-1.5611976796	 0.148247
H	 2.6618438014	 1.3564610766	-2.4287453461	 0.14751
34.3733	75.2293	118.9935	136.8039	158.8047	186.4076	246.3183	272.9014	295.3365	414.534	516.7722	584.8048	664.9268	691.0056	740.6625	786.9272	872.1706	1001.1171	1013.5682	1044.5902	1065.0316	1096.0499	1153.5251	1176.2959	1207.2308	1227.3883	1251.6977	1325.8757	1388.6855	1421.0121	1436.5374	1448.0388	1462.2047	1483.7352	1487.5189	1488.6758	1500.5626	1505.3498	1511.7195	1544.2266	1628.6545	3017.987	3020.0284	3049.0202	3074.5208	3088.2694	3104.3279	3112.1947	3135.4325	3158.786	3228.912
COC1=C(C)C=NN1C	COc1c(C)cnn1C	
InChI=1S/C6H10N2O/c1-5-4-7-8(2)6(5)9-3/h4H,1-3H3	InChI=1S/C6H10N2O/c1-5-4-7-8(2)6(5)9-3/h4H,1-3H3
