16
gdb 125486	2.98912	1.31673	1.04478	3.1368	75.34	-0.2535	0.0068	0.2603	1146.1317	0.124455	-396.923102	-396.914513	-396.913569	-396.957198	30.585	
C	 0.1768216567	 1.4543223531	 0.1053846293	-0.510049
C	 0.0541769282	-0.0268976527	-0.0072790595	 0.359716
N	-0.0290066245	-0.7256489215	-1.1284745428	-0.312154
C	-0.1214173616	-2.0093155999	-0.6863203571	 0.024561
N	-0.1016076222	-2.1575120611	 0.6256779889	-0.251243
N	 0.007699555	-0.8709376335	 1.053585466	 0.004761
C	 0.0878402777	-0.5814775621	 2.478417734	-0.304685
C	 1.4150684264	-0.150100323	 2.9118782779	 0.317417
C	 2.4990559008	 0.2203493521	 3.2718250341	-0.447194
H	 1.0745238404	 1.7391204547	 0.6632086503	 0.1532
H	 0.2305438414	 1.8770733928	-0.8980805894	 0.161204
H	-0.6858686092	 1.8926706107	 0.620482362	 0.137967
H	-0.209176521	-2.857151033	-1.3493588336	 0.125131
H	-0.6548289672	 0.1841545233	 2.7319983461	 0.153423
H	-0.2038448968	-1.5038383183	 2.9865985479	 0.175622
H	 3.4620544658	 0.5340412983	 3.592509976	 0.212323
44.9483	96.5567	108.0329	229.7252	248.647	277.9063	319.4322	420.6869	471.54	630.9348	664.212	679.3965	694.1431	707.4838	780.5376	905.8633	952.4022	961.5498	981.5303	1008.5901	1067.62	1133.7201	1208.354	1243.6371	1311.8547	1333.4372	1369.5918	1406.2248	1418.4874	1461.2251	1480.6678	1482.4722	1514.0374	1570.7135	2245.3086	3037.6416	3041.3689	3094.3626	3108.5708	3154.9135	3258.2193	3502.8232
CC1=NC=NN1CC#C	Cc1ncnn1CC#C	
InChI=1S/C6H7N3/c1-3-4-9-6(2)7-5-8-9/h1,5H,4H2,2H3	InChI=1S/C6H7N3/c1-3-4-9-6(2)7-5-8-9/h1,5H,4H2,2H3
