14
gdb 124378	5.0852	1.00964	0.84681	4.2306	65.19	-0.2526	-0.0216	0.231	1275.4533	0.099765	-473.83988	-473.831795	-473.83085	-473.874444	28.022	
C	 0.0188637272	 1.4157466821	-2.3540911623	-0.486457
C	 0.0609818469	-0.0788237705	-2.5322422265	 0.4129
O	 0.2478621057	-0.6705913946	-3.5586245822	-0.318886
O	-0.1498335209	-0.6874995663	-1.3248076362	-0.266684
C	-0.1598066057	-2.0528111811	-1.215038539	 0.208565
C	-0.3641037026	-2.6994610833	-0.0364840747	-0.01095
O	-0.3197398921	-4.0229948323	-0.2366669353	-0.159282
N	-0.0798832498	-4.276030036	-1.5817127052	-0.123378
C	 0.0149772939	-3.1048095512	-2.1618353827	-0.061272
H	-0.950409519	 1.7175868675	-1.9474147449	 0.158901
H	 0.7845570598	 1.7296614485	-1.6391556902	 0.158907
H	 0.1864144572	 1.897072036	-3.3163492505	 0.157238
H	-0.5445187972	-2.3583170779	 0.9695617828	 0.159323
H	 0.2017604568	-3.0359564208	-3.219118743	 0.171075
26.4361	70.8255	99.1004	177.7095	349.4217	354.2526	362.5657	589.7467	590.1687	617.438	662.8727	743.5298	820.8417	898.7713	917.1638	917.2337	925.0301	1011.2911	1045.2976	1061.9167	1151.4159	1198.7139	1241.543	1306.3201	1396.2567	1404.9052	1465.3813	1468.192	1474.5127	1652.8005	1845.6267	3059.3938	3124.459	3174.658	3279.9392	3305.835
CC(=O)OC1=CON=C1	CC(=O)Oc1conc1	
InChI=1S/C5H5NO3/c1-4(7)9-5-2-6-8-3-5/h2-3H,1H3	InChI=1S/C5H5NO3/c1-4(7)9-5-2-6-8-3-5/h2-3H,1H3
