21
gdb 106780	2.11149	1.57461	1.15747	1.8071	79.6	-0.2256	0.0832	0.3087	1187.5017	0.179461	-424.184067	-424.174183	-424.173239	-424.218522	36.502	
C	 0.2976774122	 1.3307776862	 0.3134961108	-0.254363
O	-0.1529139335	 0.031767124	-0.0429487691	-0.278802
C	 0.4945918622	-0.5018933997	-1.1321730653	 0.302846
C	 1.929076259	-0.9985590258	-1.1022950295	-0.405714
C	 0.7977985264	-1.9389873169	-1.4558610882	 0.378606
C	 0.500979954	-3.255454267	-0.8185991451	-0.486968
O	 0.4471414931	-1.760268989	-2.8370998335	-0.339515
C	 0.029220175	-0.3802616342	-2.5893803507	 0.070792
C	-1.4622105618	-0.2085030203	-2.7899603552	-0.396993
H	 1.3737874265	 1.3331642952	 0.5323542898	 0.115563
H	 0.1003341483	 2.062514059	-0.4820560163	 0.112653
H	-0.2545333374	 1.6235147292	 1.2090741279	 0.129063
H	 2.6508889761	-0.7023346395	-1.8593256007	 0.10858
H	 2.3251006508	-1.1261776713	-0.0987576688	 0.114599
H	 0.6946687927	-3.2082408725	 0.2565546186	 0.128895
H	-0.5454601849	-3.5347577308	-0.9739053851	 0.129374
H	 1.1324660349	-4.0429275239	-1.2448973879	 0.13063
H	 0.5974269046	 0.3120143986	-3.2244791298	 0.073509
H	-2.0228641316	-0.8704541406	-2.1247792232	 0.127885
H	-1.7620168661	 0.8240904928	-2.5815663488	 0.115224
H	-1.7276633204	-0.4419503636	-3.82527249	 0.124134
85.7163	132.0239	143.0931	171.9181	183.0619	217.8373	229.9061	282.2229	358.0008	428.5612	448.5099	489.064	511.2684	605.7998	733.5691	809.8869	838.7281	885.8536	904.2604	942.0507	980.8215	1037.1156	1046.0617	1052.3377	1074.998	1108.1109	1131.2453	1162.2753	1180.012	1213.8765	1223.6691	1279.4109	1322.5308	1375.9385	1393.8448	1406.8869	1423.5018	1471.2517	1473.3987	1482.8841	1486.3417	1490.3399	1495.6358	1505.2102	1522.113	2997.2995	3018.0428	3035.2157	3039.5176	3053.9514	3099.7696	3106.6346	3109.1345	3120.6196	3124.3732	3125.6847	3202.963
COC12CC1(C)OC2C	CO[C@@]12C[C@]1(C)O[C@H]2C	
InChI=1S/C7H12O2/c1-5-7(8-3)4-6(7,2)9-5/h5H,4H2,1-3H3	InChI=1S/C7H12O2/c1-5-7(8-3)4-6(7,2)9-5/h5H,4H2,1-3H3/t5-,6-,7+/m0/s1
