22
gdb 77249	2.12807	1.33119	1.04758	3.5097	83.64	-0.24	0.028	0.268	1279.4341	0.192031	-404.372243	-404.361589	-404.360645	-404.407823	38.638	
C	-0.2127425586	 1.6739687908	 0.1686925619	-0.428393
C	-0.1188120969	 0.1642991512	 0.0949880103	-0.090544
C	 1.1106276565	-0.5439761131	-0.4394361642	-0.021578
N	 2.2477222255	 0.2341793317	-0.8354015084	-0.283521
C	 3.5260507844	-0.2226374502	-0.7153906788	 0.152014
O	 3.8509006434	-1.2515728581	-0.1645736323	-0.320655
C	 0.7364455651	-0.6766082041	 1.0261614491	 0.326181
C	 1.6029998806	-0.020562784	 2.0829950189	-0.454948
C	 0.1827771385	-2.0250387353	 1.4482500595	-0.450167
H	 0.7408622592	 2.1421256617	 0.4226784486	 0.120531
H	-0.5453603093	 2.0924655343	-0.7887950705	 0.114796
H	-0.940690053	 1.9802699174	 0.9273764539	 0.126268
H	-1.0543439827	-0.3036363482	-0.2035852473	 0.084213
H	 0.9495140697	-1.4283328874	-1.0531116527	 0.096955
H	 2.0994324501	 1.048762816	-1.411876172	 0.246533
H	 4.2543494542	 0.474248239	-1.1791048827	 0.070288
H	 2.0385505472	 0.9216089619	 1.7464239264	 0.113703
H	 1.0197444437	 0.1815217318	 2.9887453209	 0.107893
H	 2.4303461506	-0.684796116	 2.3505594947	 0.139148
H	 0.9965970971	-2.7195364267	 1.6844072087	 0.130515
H	-0.449050474	-1.9293195975	 2.3391285586	 0.112022
H	-0.4245481913	-2.4772469254	 0.6576024574	 0.108744
54.2371	107.5195	152.0472	161.4267	188.0214	197.5394	216.8953	245.0513	294.975	322.3915	356.3325	457.1002	483.6327	532.1331	555.6365	688.9846	766.1853	812.145	875.5159	967.4865	971.7617	988.0061	1008.0302	1032.4601	1046.9412	1072.7373	1127.2879	1150.321	1154.9048	1175.1412	1235.6274	1268.564	1340.6619	1372.1573	1406.8766	1414.5308	1424.0261	1431.216	1452.6573	1481.0611	1485.341	1493.4691	1500.169	1503.1585	1509.8107	1518.5705	1809.6674	2921.6027	3022.6734	3030.0935	3036.4874	3085.5126	3087.0868	3097.3854	3099.7458	3110.2094	3116.583	3129.8001	3135.8444	3608.3358
CC1C(NC=O)C1(C)C	C[C@H]1[C@@H](NC=O)C1(C)C	
InChI=1S/C7H13NO/c1-5-6(8-4-9)7(5,2)3/h4-6H,1-3H3,(H,8,9)	InChI=1S/C7H13NO/c1-5-6(8-4-9)7(5,2)3/h4-6H,1-3H3,(H,8,9)/t5-,6+/m0/s1
