20
gdb 6600	4.95041	1.2998	1.2526	1.226	76.41	-0.2621	0.0758	0.3379	1063.4004	0.176749	-348.959029	-348.95076	-348.949816	-348.991415	31.734	
C	-0.0162973664	 1.4517259223	 0.0215073521	-0.508401
C	-0.0030926387	-0.0535253571	 0.0071136691	 0.334088
C	 0.6194432156	-0.9854566414	-1.0823537502	-0.306611
C	 0.0157918888	-1.94212387	-0.0150422488	 0.370889
C	 0.0321344353	-3.4427600943	-0.0350090561	-0.220105
O	-0.6308613418	-3.9064078299	 1.134127351	-0.42185
C	 0.6331789989	-1.0074232676	 1.0657835011	-0.280433
C	-1.2334230234	-1.0136506024	 0.0045321287	-0.280437
H	 1.002223158	 1.855800775	 0.0183998165	 0.115501
H	-0.5378634357	 1.8506498327	-0.8557032757	 0.115499
H	-0.5245165824	 1.8318498759	 0.9147056595	 0.11744
H	 0.1381375429	-0.9790156045	-2.0657596681	 0.082269
H	 1.7106169534	-0.9737516545	-1.1717001001	 0.082281
H	-0.4685312805	-3.802924251	-0.949236126	 0.083581
H	 1.0756203838	-3.7978033817	-0.0714758712	 0.083566
H	-0.6234545163	-4.8678322909	 1.12051471	 0.287399
H	 1.7256712604	-0.9981974026	 1.1383983338	 0.078786
H	 0.1654730456	-1.0302383313	 2.0534593312	 0.093891
H	-1.8428429375	-1.0369667015	 0.9116331847	 0.093883
H	-1.8545826802	-1.0101047352	-0.8971616715	 0.078764
86.9174	143.9757	202.9751	215.8468	261.7633	293.0098	364.7228	427.787	542.5181	546.9368	612.7006	662.8025	764.5461	788.9296	915.7722	928.8768	961.5654	962.7755	991.8054	1019.9762	1057.8559	1079.7941	1091.3943	1114.0813	1139.2406	1140.1047	1152.6355	1172.8976	1202.4856	1206.2412	1255.5672	1279.468	1312.8365	1351.7788	1409.9205	1466.3886	1489.5269	1489.5788	1496.5892	1497.8264	1512.6836	1562.3487	2955.1726	2982.4854	3023.6689	3031.4696	3037.7465	3047.2747	3090.8399	3091.4379	3095.9459	3107.9802	3112.0079	3830.3575
CC12CC(CO)(C1)C2	C[C@@]12C[C@@](CO)(C1)C2	
InChI=1S/C7H12O/c1-6-2-7(3-6,4-6)5-8/h8H,2-5H2,1H3	InChI=1S/C7H12O/c1-6-2-7(3-6,4-6)5-8/h8H,2-5H2,1H3/t6-,7-
