16
gdb 127329	3.20647	1.48403	1.02124	3.4962	80.34	-0.2009	-0.0169	0.184	1121.3404	0.126684	-430.270694	-430.262411	-430.261467	-430.303522	30.825	
C	 0.0514435851	 1.4279309134	 0.0437069998	-0.311876
N	 0.002212809	-0.020944996	 0.0126916708	 0.006185
C	-1.1364076959	-0.7239316922	-0.0908574286	 0.102658
N	-1.2235194881	-2.0212323272	-0.1287665737	-0.367503
C	-0.039985037	-2.7307941253	-0.0533402326	 0.300996
N	 0.0793254248	-4.0085557833	-0.0977476062	-0.561972
C	 1.2066350412	-1.9322337135	 0.0840186082	 0.411361
N	 2.3473670826	-2.641141579	 0.20134476	-0.545082
N	 1.232112496	-0.6291638341	 0.1029142149	-0.355258
H	 0.6513116693	 1.8011441107	-0.7915095701	 0.147892
H	-0.9626886117	 1.823223873	-0.0326630253	 0.138932
H	 0.5057351464	 1.768589672	 0.9787017863	 0.148541
H	-2.0442087089	-0.1266690104	-0.1471906295	 0.125752
H	-0.8437846809	-4.4327551899	-0.1994137022	 0.217676
H	 2.2593764315	-3.6345679063	 0.0490092382	 0.282004
H	 3.2380830968	-2.1784479818	 0.1538796702	 0.259694
87.0681	134.0508	173.6464	231.0045	313.0031	330.8799	362.1988	453.3617	491.7942	531.3519	542.0776	595.6828	609.7399	706.0024	817.5357	822.0215	883.9486	952.129	981.8665	1054.528	1109.6261	1145.803	1155.4289	1261.0398	1332.5237	1395.3	1413.9611	1460.4026	1468.1493	1483.3554	1522.5048	1582.765	1623.8714	1660.2802	1686.1378	3043.3652	3106.6815	3143.283	3154.0214	3473.6446	3580.7239	3731.0887
CN1C=NC(=N)C(N)=N1	CN1CN=C([NH])C(=N1)N	
InChI=1S/C4H7N5/c1-9-2-7-3(5)4(6)8-9/h2,5H,1H3,(H2,6,8)	InChI=1S/C4H8N5/c1-9-2-7-3(5)4(6)8-9/h5H,2H2,1H3,(H2,6,8)
