18
gdb 37238	4.01767	1.36945	1.21139	3.6589	74.79	-0.2146	0.0612	0.2758	1042.2915	0.148405	-401.825226	-401.818125	-401.817181	-401.856702	28.641	
C	-0.0630923555	 1.5204654014	-0.1375123014	-0.123388
O	 1.3001695254	 1.5373794868	 0.3632773722	-0.285757
C	 1.3516543625	 0.1020643851	 0.4332164707	-0.155708
C	-0.082480365	-0.0027739792	-0.0905049806	 0.302646
C	-1.0686075478	-1.0166117671	 0.401911451	-0.148195
C	-2.4981639134	-0.7926200089	-0.1651927937	-0.058586
N	-2.4891910583	 0.4446445954	-0.9914948438	-0.335293
C	-1.9896305783	-0.8416675086	-1.5478487744	-0.058599
C	-0.5385011717	-1.0678362002	-1.0394342788	-0.14819
H	-0.7575365988	 2.0253274196	 0.5411643539	 0.105774
H	-0.141375643	 1.9657875074	-1.1341560772	 0.105771
H	 2.1300374773	-0.3193926045	-0.2184367987	 0.096731
H	 1.5133111616	-0.2598044402	 1.4584363887	 0.096731
H	-0.8498588893	-1.6826594851	 1.227815742	 0.090487
H	-3.4149362608	-1.1764908598	 0.2621426005	 0.097373
H	-3.4369085171	 0.5757589813	-1.3446901885	 0.230342
H	-2.420403217	-1.2724112357	-2.4419066787	 0.097373
H	 0.1473835492	-1.7790310377	-1.4836782433	 0.090489
109.2986	186.5088	204.6854	307.7483	385.3168	470.5023	483.318	669.3047	736.2136	749.1888	763.7401	848.2958	858.4909	876.6587	907.0182	908.4394	924.5315	973.4094	974.0601	1005.3142	1011.3832	1026.9923	1032.4252	1096.4383	1101.7079	1133.8659	1141.9978	1150.9794	1163.989	1222.3593	1228.3522	1282.423	1302.775	1303.7493	1350.4067	1376.7495	1450.2787	1503.7987	1530.2905	2989.0834	3026.5437	3042.2839	3089.1546	3177.9817	3187.6131	3196.4907	3209.3396	3470.8335
C1OCC11C2C3NC3C12	C1OCC21[C@H]1[C@H]3N[C@H]3[C@@H]21	
InChI=1S/C7H9NO/c1-7(2-9-1)3-4(7)6-5(3)8-6/h3-6,8H,1-2H2	InChI=1S/C7H9NO/c1-7(2-9-1)3-4(7)6-5(3)8-6/h3-6,8H,1-2H2/t3-,4+,5-,6+
