17
gdb 127436	3.1498	1.45947	1.00983	2.9784	82.74	-0.214	-0.0691	0.1449	1159.7101	0.136861	-414.204286	-414.195832	-414.194888	-414.237525	31.039	
C	-0.0769054729	 1.4466186111	-0.0039058547	-0.304046
N	-0.0183457955	-0.0073713293	 0.0155475222	-0.027155
N	-0.0398310721	-0.6242430321	-1.1625922566	-0.233869
C	 0.0117060079	-1.9286120843	-1.1771899199	 0.300534
C	-0.0120019291	-2.6372008354	-2.5000995904	-0.481187
C	 0.0887412808	-2.636752616	 0.0717876474	-0.035703
N	 0.1110110597	-2.0565961946	 1.2257519063	-0.3022
C	 0.0573808484	-0.6615399117	 1.2614409135	 0.43789
N	 0.071950339	 0.0538935186	 2.3209614689	-0.565464
H	 0.8099688812	 1.860375635	 0.483508002	 0.153864
H	-0.1328285251	 1.7578566411	-1.0458072737	 0.140253
H	-0.9499973244	 1.7901522584	 0.5572621766	 0.153996
H	 0.8886375035	-3.245315595	-2.6438345011	 0.136284
H	-0.8724079014	-3.312118463	-2.5765554911	 0.136329
H	-0.0706724911	-1.9070575033	-3.3088729578	 0.146641
H	 0.1313292104	-3.7270640218	 0.0596442509	 0.120485
H	 0.1286157406	-0.5674001378	 3.1261233472	 0.223348
71.5113	125.6607	167.3196	195.2387	282.759	297.9033	350.2396	404.0826	506.6346	518.8428	569.9972	602.4729	689.2408	767.7062	826.0231	842.0533	940.089	980.3735	1024.6256	1050.828	1066.9752	1075.0318	1151.415	1225.1695	1278.8281	1319.8509	1372.9157	1414.9639	1435.4708	1441.3381	1465.7653	1481.0077	1482.5644	1505.188	1555.7981	1663.3836	1702.3132	3030.412	3054.1748	3080.6212	3115.9744	3116.8598	3141.5416	3173.8499	3509.9328
CN1N=C(C)C=NC1=N	Cn1nc(C)cnc1[NH]	
InChI=1S/C5H8N4/c1-4-3-7-5(6)9(2)8-4/h3,6H,1-2H3	InChI=1S/C5H13N4/c1-4-3-7-5(6)9(2)8-4/h4-8H,3H2,1-2H3
