21
gdb 95679	2.7538	1.24586	0.97098	2.9033	79.2	-0.2381	-0.0124	0.2257	1273.1606	0.182751	-424.258399	-424.249463	-424.248519	-424.292509	33.973	
C	 0.6031304861	 1.6580611794	 0.0294113761	-0.395353
C	 0.0172956851	 0.2502959864	 0.0204208248	 0.132383
C	 0.2365567603	-0.4470755155	-1.3292012315	-0.196271
C	-0.3130455451	-1.8880022251	-1.4248445718	-0.317518
C	 0.552841014	-2.8890920523	-0.6718360181	 0.391706
O	 1.2606835067	-3.6716940866	-1.2624831429	-0.306992
C	 0.5207821685	-2.883510874	 0.8572270756	-0.300752
C	-0.040285276	-1.6270875529	 1.5229181987	-0.085832
O	 0.616401846	-0.4424476902	 1.1104203783	-0.259457
H	 1.6855001227	 1.6199246599	-0.1281616335	 0.127376
H	 0.1590260351	 2.2691443453	-0.7617070414	 0.113948
H	 0.4152936536	 2.1398751654	 0.9920692863	 0.123165
H	-1.070554032	 0.3115478838	 0.2019139928	 0.064517
H	-0.2523900853	 0.157731963	-2.1017423078	 0.104597
H	 1.3082853266	-0.4510509899	-1.5627468477	 0.115813
H	-1.3431708985	-1.9157122121	-1.0449971606	 0.104667
H	-0.3269782585	-2.2094376542	-2.4688734766	 0.120672
H	-0.0746404476	-3.7534434606	 1.1691648119	 0.12524
H	 1.543273951	-3.0756429569	 1.1964755917	 0.137446
H	-1.124209155	-1.5424645507	 1.3502582144	 0.090829
H	 0.1059746524	-1.7055240722	 2.6061760112	 0.109818
36.526	119.6669	196.1669	215.3804	256.2646	309.1028	345.9126	356.6844	443.8402	491.7349	495.7296	558.4805	618.4699	704.6906	796.3924	846.9655	885.638	919.4105	949.0052	974.7213	1005.8003	1039.9063	1071.8638	1109.9077	1142.3225	1162.0151	1187.4571	1217.5888	1235.1432	1275.3335	1292.5732	1331.752	1344.5845	1361.3154	1384.0026	1395.2038	1408.1583	1423.4377	1436.8936	1475.185	1478.6895	1485.8131	1496.8576	1502.5958	1807.3902	2942.915	2984.79	3022.9578	3025.5198	3030.3212	3044.8429	3058.1354	3074.3608	3092.5306	3106.1392	3117.3422	3125.7974
CC1CCC(=O)CCO1	C[C@H]1CCC(=O)CCO1	
InChI=1S/C7H12O2/c1-6-2-3-7(8)4-5-9-6/h6H,2-5H2,1H3	InChI=1S/C7H12O2/c1-6-2-3-7(8)4-5-9-6/h6H,2-5H2,1H3/t6-/m0/s1
