16
gdb 43407	2.8442	1.46441	0.99682	5.3639	78.97	-0.2227	-0.0329	0.1899	1133.3372	0.125003	-400.74668	-400.738579	-400.737634	-400.779319	30.886	
O	-0.0840804708	-0.1031629601	 0.145625153	-0.340352
C	-0.0881581509	 1.108818953	 0.0844138351	 0.373875
C	-1.2832565561	 1.9231497386	-0.0739181706	-0.229598
C	-1.224114835	 3.2782367	-0.1082839424	 0.025962
N	-0.0796153994	 3.9902575206	 0.0883447594	-0.30063
C	 1.0437067864	 3.3081244838	 0.7156719769	-0.17886
C	 1.2424653531	 1.9257392974	 0.063445595	-0.324817
C	 2.3558178175	 1.2196155991	 0.6743115233	 0.343202
C	 3.286072317	 0.6776644052	 1.2068242915	-0.435058
H	-2.2230137519	 1.4104395356	-0.2320170387	 0.105024
H	-2.1080858564	 3.8740505985	-0.3169105749	 0.124562
H	-0.1768030868	 4.9743513941	 0.2785587213	 0.254513
H	 1.9450189868	 3.9143953104	 0.6014820902	 0.128532
H	 0.8606833681	 3.1655209074	 1.792221231	 0.123127
H	 1.4565056187	 2.0874381854	-1.0045722622	 0.134576
H	 4.0989252897	 0.172352131	 1.6666167921	 0.195943
86.1026	138.118	175.9687	251.5186	349.7455	382.4097	412.2332	480.0675	493.5025	545.3932	562.1042	630.1284	651.9796	658.9696	760.503	815.5892	850.255	970.8939	978.5872	1012.1794	1061.5078	1088.6255	1096.4707	1203.3615	1217.7355	1271.7324	1278.5872	1314.1435	1377.7307	1426.059	1492.7215	1529.6158	1664.6291	1773.0473	2244.6442	2982.9388	2998.7168	3101.1036	3175.9593	3220.9981	3505.574	3637.6301
O=C1C=CNCC1C#C	O=C1C=CNC[C@H]1C#C	
InChI=1S/C7H7NO/c1-2-6-5-8-4-3-7(6)9/h1,3-4,6,8H,5H2	InChI=1S/C7H7NO/c1-2-6-5-8-4-3-7(6)9/h1,3-4,6,8H,5H2/t6-/m1/s1
