15
gdb 124411	3.2926	1.20801	1.10095	2.711	72.12	-0.2824	-0.0274	0.2549	1131.331	0.112589	-412.935641	-412.927436	-412.926492	-412.969662	29.218	
C	-0.0260558966	 1.565324192	 0.0446557798	-0.393511
C	-0.0229656206	 0.0293020172	 0.0461015546	-0.133542
C	 0.7136135741	-0.5255443029	 1.1801168369	 0.360087
C	 1.3420054476	-0.956990053	 2.1071320463	-0.460431
N	-1.4022262498	-0.4893470091	 0.0122513796	 0.152737
N	-1.8058497034	-1.3912364887	-0.8753745198	-0.237455
C	-3.0718266899	-1.5570611402	-0.5137168461	 0.074704
N	-3.4185231164	-0.7913516577	 0.5453401642	-0.20197
N	-2.3420422954	-0.1178806966	 0.8699252467	-0.118648
H	 1.0047348296	 1.9254318642	 0.0245817204	 0.140734
H	-0.5528547175	 1.9378779095	-0.8373503666	 0.136187
H	-0.5172312522	 1.9443715622	 0.9418918574	 0.164877
H	 0.4140248694	-0.3425336737	-0.8849078783	 0.152998
H	 1.890479092	-1.3473472542	 2.9290574573	 0.213404
H	-3.747808381	-2.228899739	-1.0168286726	 0.149828
27.1613	99.0361	188.523	194.6981	234.628	311.9141	397.9178	469.6438	549.734	639.8096	679.9411	701.8412	723.1732	746.9592	875.9658	900.3792	1005.0936	1027.806	1047.3158	1094.45	1117.752	1156.8094	1201.9743	1259.5227	1319.4139	1326.237	1371.592	1389.9626	1409.3444	1485.9249	1490.9517	1497.4154	2248.1524	3060.0089	3082.8298	3139.1238	3156.7141	3289.2315	3501.9009
CC(C#C)N1N=CN=N1	C[C@@H](C#C)n1ncnn1	
InChI=1S/C5H6N4/c1-3-5(2)9-7-4-6-8-9/h1,4-5H,2H3	InChI=1S/C5H6N4/c1-3-5(2)9-7-4-6-8-9/h1,4-5H,2H3/t5-/m0/s1
