15
gdb 23618	3.25807	0.92522	0.85204	1.7803	57.82	-0.2571	-0.0028	0.2542	1314.007	0.106601	-585.422908	-585.413465	-585.412521	-585.458904	32.853	
C	-0.0113190729	 1.5465316848	-0.0656639464	-0.478829
C	 0.003344686	 0.0430260188	-0.0548469313	 0.353953
C	 0.0315863864	-0.7093164073	 1.2518084429	-0.405683
C	 1.2960292508	-0.4707111886	 2.0629267082	 0.273677
F	 1.4138863045	 0.8146628795	 2.4449054999	-0.082307
F	 1.2899352395	-1.2163746314	 3.1777031485	-0.07395
F	 2.3983814047	-0.7816775437	 1.3698195666	-0.072515
N	-0.0226166791	-0.6997293688	-1.095533849	-0.152221
O	-0.0476886212	 0.0465425396	-2.2768169229	-0.392559
H	 1.0066764746	 1.9393256949	-0.1686011131	 0.155109
H	-0.5912922261	 1.9127238582	-0.9144118655	 0.150894
H	-0.4208201507	 1.9414561608	 0.8658739854	 0.129246
H	-0.8113414996	-0.4181232532	 1.8886755326	 0.136243
H	-0.034893656	-1.7803816556	 1.0526936614	 0.1487
H	-0.1045427409	-0.640208928	-2.9497186375	 0.310238
36.2367	51.7859	77.0003	143.2753	292.7211	295.0937	308.3828	360.9012	403.9737	409.2941	522.4796	534.053	539.9713	644.2788	694.6749	823.0036	851.881	924.6461	997.8329	1036.1858	1047.042	1128.3792	1183.8278	1257.2275	1277.7221	1309.6329	1364.3904	1404.0353	1407.0064	1459.4228	1474.0852	1486.8303	1730.9201	3047.0872	3055.073	3111.5305	3132.0654	3149.7257	3818.8845
CC(CC(F)(F)F)=NO	CC(=NO)CC(F)(F)F	
InChI=1S/C4H6F3NO/c1-3(8-9)2-4(5,6)7/h9H,2H2,1H3	InChI=1S/C4H6F3NO/c1-3(8-9)2-4(5,6)7/h9H,2H2,1H3
