19
gdb 56182	3.9144	0.79386	0.7766	3.8945	73.52	-0.2452	0.0474	0.2926	1533.0273	0.158759	-456.366617	-456.356953	-456.356009	-456.401924	36.077	
N	-0.0153942488	 1.2758866199	-0.391724666	-0.564014
C	-0.0356218525	-0.0069680515	 0.1413096438	 0.451403
O	 0.7756844254	-0.3927341774	 0.9586783515	-0.378246
N	-1.0577413901	-0.7984203047	-0.3625378256	-0.365261
C	-1.0611601576	-2.2379072425	-0.1121705726	-0.215391
C	-2.4811390178	-2.7276724778	 0.0583223237	 0.432574
O	-3.1553413143	-2.1297027552	 1.1291859928	-0.468399
C	-3.2978741562	-3.1053036097	-1.1619249676	-0.33072
C	-2.8205234268	-4.1604811407	-0.1783818945	-0.310593
H	 0.5743767047	 1.9028407329	 0.1344608396	 0.262968
H	-0.893562705	 1.6816653435	-0.6787306828	 0.247154
H	-1.4456913646	-0.5124175291	-1.2500111827	 0.23984
H	-0.5628042171	-2.7886048596	-0.921474561	 0.099693
H	-0.4867505213	-2.3923241762	 0.8035902943	 0.15494
H	-2.9991069805	-1.1803835009	 1.0479796695	 0.279186
H	-4.3511100475	-2.8507792644	-1.1392005506	 0.117952
H	-2.8370744151	-3.0738690753	-2.1445002262	 0.103029
H	-2.0330244683	-4.8397144499	-0.4865675801	 0.115206
H	-3.5604137265	-4.5923446113	 0.4852881244	 0.128679
40.5053	67.9862	101.1624	205.1883	237.615	305.4604	347.5208	383.481	403.6662	438.845	454.7534	503.606	547.9521	601.9335	662.628	745.749	774.7447	779.7945	881.4383	912.0728	934.0312	943.438	991.2294	1043.6208	1059.3941	1079.8438	1096.5586	1138.3288	1189.8445	1221.5787	1263.1889	1304.6766	1325.5231	1372.7335	1428.3246	1452.4085	1492.0117	1509.787	1525.1017	1626.8497	1812.1357	3013.3974	3120.7572	3126.5137	3138.4985	3217.2934	3232.4971	3573.308	3598.4514	3688.1871	3771.7149
NC(=O)NCC1(O)CC1	NC(=O)NCC1(O)CC1	
InChI=1S/C5H10N2O2/c6-4(8)7-3-5(9)1-2-5/h9H,1-3H2,(H3,6,7,8)	InChI=1S/C5H10N2O2/c6-4(8)7-3-5(9)1-2-5/h9H,1-3H2,(H3,6,7,8)
