20
gdb 7500	3.80378	1.28801	1.17513	2.0876	71.82	-0.2494	0.0785	0.3279	1125.7673	0.176037	-386.120743	-386.111931	-386.110987	-386.15409	32.69	
C	-0.1460586331	 1.3367473472	 0.2053977565	-0.227114
O	-0.0508148236	-0.0674978731	 0.143580122	-0.253729
C	-1.304120163	-0.7133543946	 0.0081933863	-0.116039
C	-1.0229700666	-2.2010455873	-0.1593008099	 0.424013
O	-0.1868535064	-2.3994351483	-1.2756691003	-0.48837
C	-0.6173094475	-2.9048714434	 1.1746296865	-0.272487
C	-2.0842336665	-3.3939441527	 1.3190352765	-0.214017
C	-2.3088428977	-3.0601191847	-0.1821102092	-0.270833
H	 0.868735235	 1.7307687357	 0.2992395795	 0.129639
H	-0.6095495287	 1.7536681696	-0.7020158073	 0.108937
H	-0.7365506247	 1.6642728643	 1.0747329811	 0.108509
H	-1.9383658585	-0.5222444802	 0.8885075387	 0.088185
H	-1.8331507398	-0.3372260649	-0.8830653274	 0.091507
H	 0.488261525	-1.7101116202	-1.2295117776	 0.281137
H	 0.0689787895	-3.7273902041	 0.9602631156	 0.105848
H	-0.1957223882	-2.280105996	 1.965386045	 0.097494
H	-2.2341705496	-4.4319188764	 1.621666559	 0.100525
H	-2.6761297006	-2.7560441458	 1.9809284266	 0.100162
H	-3.2412732178	-2.5662903818	-0.4714165599	 0.091288
H	-2.1542240972	-3.9288071335	-0.8264208919	 0.115346
80.1592	120.491	141.7038	175.8943	233.7243	314.1046	326.0256	386.085	432.1177	454.8627	502.2365	657.1001	748.1428	790.4046	868.9143	916.0113	930.9985	943.2891	983.0119	995.8648	1036.6002	1084.2372	1152.719	1161.3264	1186.222	1197.985	1204.4115	1224.2468	1245.5267	1259.1427	1266.5069	1285.3296	1315.7402	1377.2784	1431.4826	1469.9607	1478.6321	1485.2769	1486.1601	1498.3207	1507.782	1519.8078	2962.2512	2978.9129	3003.238	3024.4339	3054.2757	3063.1542	3068.8187	3105.0312	3115.9425	3118.6478	3129.8336	3770.9432
COCC1(O)CCC1	COCC1(O)CCC1	
InChI=1S/C6H12O2/c1-8-5-6(7)3-2-4-6/h7H,2-5H2,1H3	InChI=1S/C6H12O2/c1-8-5-6(7)3-2-4-6/h7H,2-5H2,1H3
