17
gdb 22945	4.15048	0.85139	0.73012	1.2935	79.37	-0.2337	-0.0038	0.2299	1492.3015	0.133988	-417.900682	-417.891429	-417.890485	-417.935254	33.753	
O	-0.1761779076	 1.39726431	-0.0788033381	-0.388729
N	 0.0098024179	 0.007494614	 0.013825485	-0.238098
C	-1.0957007266	-0.6026798283	-0.0051576751	 0.402762
C	-2.5650332358	-0.2762172679	-0.1516351499	-0.260388
N	-2.8054822385	-1.7309588119	-0.378952199	-0.318919
C	-1.4135842438	-2.0838856677	 0.0271651561	-0.064368
C	-0.6625418459	-3.0014238021	-0.9482032384	-0.34187
C	-1.1488193433	-4.3741393253	-0.8984119514	 0.297808
C	-1.5693205882	-5.4979355361	-0.8266625525	-0.446392
H	 0.7291930501	 1.7262536329	-0.0669586635	 0.309706
H	-3.0028891468	 0.1425452663	 0.765147263	 0.119325
H	-2.8422302462	 0.3665707823	-0.9938536017	 0.133328
H	-3.5249530321	-2.1370161118	 0.2070376659	 0.227339
H	-1.3389985971	-2.4985842441	 1.042707496	 0.097218
H	-0.7745585034	-2.5964034725	-1.9599989293	 0.135805
H	 0.4063398517	-2.9681551155	-0.7031329035	 0.140827
H	-1.9308539244	-6.4950775023	-0.7807486838	 0.194647
60.2603	86.1711	121.2097	172.1117	216.7699	297.2804	345.1921	366.0049	408.3965	478.5819	513.6958	573.8346	617.8123	643.6794	710.8856	755.6878	851.6205	923.0566	952.4023	977.9087	1003.8098	1009.3252	1036.4987	1102.1073	1119.5402	1178.5383	1212.3485	1243.3075	1283.2482	1338.2737	1367.4369	1377.5134	1413.3816	1457.9367	1493.3635	1805.484	2238.5826	2998.8842	3009.6187	3033.7471	3066.5858	3076.4794	3507.2763	3551.5724	3816.473
ON=C1CNC1CC#C	ON=C1CN[C@H]1CC#C	
InChI=1S/C6H8N2O/c1-2-3-5-6(8-9)4-7-5/h1,5,7,9H,3-4H2	InChI=1S/C6H8N2O/c1-2-3-5-6(8-9)4-7-5/h1,5,7,9H,3-4H2/t5-/m0/s1
