16
gdb 56566	2.92258	1.04132	0.99525	6.002	65.66	-0.2632	-0.0137	0.2495	1232.1513	0.123655	-471.236352	-471.226613	-471.225668	-471.271627	34.717	
N	-0.2270294358	 1.5685126961	-0.0426471846	-0.499503
C	-0.037383743	 0.1245210336	-0.0420107532	-0.152573
C	-1.3230656306	-0.5450901334	 0.2143970615	 0.31101
N	-2.3144906134	-1.1044682272	 0.4094732519	-0.315525
C	 0.5740854393	-0.4455882001	-1.3728825829	 0.026715
O	-0.1495645198	 0.0326172229	-2.4667322296	-0.424455
C	 2.0339726789	 0.0146212012	-1.5092606537	 0.361164
N	 2.9348879027	-0.5595246128	-0.6756677795	-0.515128
O	 2.3159961943	 0.8896370661	-2.3113553366	-0.367651
H	 0.6766307169	 2.0301519164	-0.0936798316	 0.244742
H	-0.7343965343	 1.8191360272	-0.8877685064	 0.250252
H	 0.6293888837	-0.1357056549	 0.7894443968	 0.125036
H	 0.532013139	-1.543970311	-1.3416474982	 0.105889
H	 0.4607187816	 0.6394939841	-2.9219029551	 0.299555
H	 2.7101335629	-1.3843113533	-0.1452193023	 0.273977
H	 3.9068865076	-0.3144453649	-0.7817562265	 0.276494
43.7992	63.8093	135.6829	179.0952	236.2434	256.1564	295.6648	332.3976	343.1174	422.2734	449.4253	533.2115	552.4801	582.6233	650.6348	679.0205	750.2777	852.8904	869.2081	905.5127	962.7846	1096.2084	1125.4536	1138.4557	1202.4733	1243.8628	1300.3854	1333.6496	1361.2513	1414.4644	1463.1403	1624.6766	1662.224	1786.2597	2365.0287	3006.0818	3042.2499	3488.3794	3571.8029	3593.2254	3639.9352	3722.6183
NC(C#N)C(O)C(N)=O	N[C@@H](C#N)[C@@H](O)C(=O)N	
InChI=1S/C4H7N3O2/c5-1-2(6)3(8)4(7)9/h2-3,8H,6H2,(H2,7,9)	InChI=1S/C4H7N3O2/c5-1-2(6)3(8)4(7)9/h2-3,8H,6H2,(H2,7,9)/t2-,3+/m0/s1
