14
gdb 125823	3.26574	1.12482	0.86383	0.6796	65.53	-0.2705	-0.026	0.2444	1249.6594	0.099416	-473.832729	-473.824505	-473.82356	-473.866645	28.457	
C	-0.1067291521	 1.4673314672	 0.2526904099	-0.494152
C	-0.0220254643	-0.0157355237	 0.1132284862	 0.310354
N	-0.1787344265	-0.6092454782	-1.0455044195	-0.186049
O	-0.0347759805	-1.9772050529	-0.8110378119	-0.162144
C	 0.218619491	-2.1786295558	 0.4887859462	-0.006497
C	 0.2331583318	-0.9822811315	 1.1318459878	 0.123945
O	 0.4809188663	-0.6912352511	 2.447525326	-0.217341
C	-0.2949827855	-1.3047529359	 3.3938221842	 0.155438
O	-0.0975281777	-1.161646312	 4.5564298663	-0.244922
H	 0.8330209137	 1.8743839139	 0.6384192965	 0.153118
H	-0.3190720998	 1.9203719284	-0.7168736983	 0.157328
H	-0.8963030025	 1.7482303591	 0.9567686578	 0.145753
H	 0.3748457849	-3.1977609249	 0.8046067122	 0.16531
H	-1.0907649189	-1.9195942926	 2.9365660867	 0.099858
54.2365	109.4713	134.6982	162.6486	244.4302	262.8902	412.7407	476.7801	488.4353	614.9959	678.5105	705.1688	828.8833	848.182	908.0151	931.7985	1028.0311	1043.3211	1068.1741	1108.7089	1155.5089	1220.8904	1302.9158	1403.5437	1410.3561	1438.1624	1478.3999	1484.4596	1540.8455	1649.9122	1884.7984	2986.2176	3048.3534	3106.2997	3147.7656	3270.0513
CC1=NOC=C1OC=O	Cc1nocc1OC=O	
InChI=1S/C5H5NO3/c1-4-5(8-3-7)2-9-6-4/h2-3H,1H3	InChI=1S/C5H5NO3/c1-4-5(8-3-7)2-9-6-4/h2-3H,1H3
