23
gdb 89488	2.57281	1.5907	1.37053	1.3516	84.55	-0.231	0.0817	0.3127	1097.2091	0.207407	-388.323233	-388.314838	-388.313894	-388.35549	34.391	
C	-0.230996355	 1.5174802413	-0.0800103754	-0.412618
C	 0.0513859579	 0.0253655385	 0.0112400801	 0.163576
O	 0.7523314557	-0.4217082328	-1.1702710448	-0.333951
C	 1.8757321108	-1.2193255103	-0.7291877366	 0.428169
C	 2.3032700503	-2.1248884414	-1.8624517012	-0.471684
C	 2.940730607	-0.2324832473	-0.1944826622	-0.233186
C	 2.3036830376	 0.2558259858	 1.1452001661	-0.22572
C	 0.9445171639	-0.4825377197	 1.163295515	-0.051793
C	 1.3407072365	-1.8497523772	 0.5705306303	-0.262098
H	 0.6883285632	 2.1018491416	-0.1698010897	 0.119709
H	-0.8438742411	 1.7244096159	-0.9622371879	 0.123999
H	-0.7807189942	 1.8607621383	 0.8032927632	 0.108649
H	-0.9150739919	-0.5023812891	 0.0585596274	 0.064076
H	 2.6195981575	-1.5345727435	-2.7281614702	 0.122676
H	 3.1410463246	-2.7586993406	-1.5557723964	 0.111147
H	 1.4745635812	-2.7664702213	-2.1755731893	 0.119425
H	 3.9035087585	-0.7283151073	-0.0335201225	 0.089712
H	 3.0933267641	 0.5755308027	-0.9142068064	 0.101195
H	 2.9057013716	-0.0514358765	 2.0056900792	 0.0946
H	 2.2022102583	 1.3417597884	 1.2000599422	 0.098832
H	 0.4407719663	-0.4891922608	 2.1315678346	 0.059298
H	 0.4952210382	-2.5206913653	 0.3942980137	 0.09564
H	 2.1087170588	-2.3715178594	 1.1488381808	 0.090348
122.1037	203.6837	211.1482	235.8607	292.4174	301.2558	386.1773	424.8492	479.6722	499.0174	558.351	610.7095	747.9879	794.0073	815.6352	829.4175	858.2136	895.5317	911.4205	935.0101	951.0435	969.6312	1000.6998	1009.25	1058.1114	1070.3187	1106.9658	1134.46	1154.5635	1164.9452	1213.8398	1228.0264	1253.7972	1256.6127	1264.462	1310.7775	1337.289	1348.7776	1365.1103	1396.8109	1408.8574	1416.3018	1475.6217	1482.6636	1484.0536	1487.896	1496.1505	1499.2081	1520.409	2960.9054	3037.7153	3038.1775	3045.6538	3054.4022	3060.7906	3093.8229	3099.8966	3106.8338	3107.1969	3108.3578	3111.6668	3115.6125	3120.7918
CC1OC2(C)CCC1C2	C[C@H]1O[C@@]2(C)CC[C@@H]1C2	
InChI=1S/C8H14O/c1-6-7-3-4-8(2,5-7)9-6/h6-7H,3-5H2,1-2H3	InChI=1S/C8H14O/c1-6-7-3-4-8(2,5-7)9-6/h6-7H,3-5H2,1-2H3/t6-,7-,8+/m1/s1
