21
gdb 82818	2.2241	1.94694	1.44679	1.1905	81.02	-0.239	0.0773	0.3164	1013.9133	0.182997	-387.05506	-387.046892	-387.045948	-387.087164	32.991	
C	-0.2569407836	 1.5656767964	-0.0536620938	-0.429976
C	 0.0534309332	 0.0768917447	 0.0019715221	-0.016473
C	 1.12606715	-0.564774671	-0.925209503	-0.063282
C	 2.5156923227	 0.1206838977	-0.8782995606	-0.229639
C	 2.8084213049	-0.5465913476	 0.4872776959	-0.030451
C	 2.0641246585	 0.1272421173	 1.6689682715	-0.304359
C	 0.7490155584	-0.5701046431	 1.2334894999	 0.392418
O	-0.0654191111	-1.1189538528	 2.2326454091	-0.48727
C	 1.5684630305	-1.4899160655	 0.2680363596	-0.089837
H	 0.6380287097	 2.1798621597	 0.0850689258	 0.117287
H	-0.6970176606	 1.8395278107	-1.0191026278	 0.116666
H	-0.9761226894	 1.8492906397	 0.7240712022	 0.106842
H	-0.8705208456	-0.4979298832	-0.1370523322	 0.077616
H	 0.7805386607	-0.9286944588	-1.8934896292	 0.061979
H	 3.165848106	-0.2927285117	-1.6553732622	 0.098601
H	 2.5633205595	 1.2135512194	-0.9375702408	 0.087558
H	 3.8238611031	-0.8959672038	 0.674722735	 0.064473
H	 2.3874885251	-0.3035592424	 2.6214234964	 0.102997
H	 2.0894219409	 1.2200180453	 1.742607443	 0.084368
H	-0.4196183954	-0.3966629233	 2.7638116	 0.273793
H	 1.5635927726	-2.5764026976	 0.2838112389	 0.066692
151.1787	176.5135	187.6579	226.0926	255.3592	330.3962	401.1434	440.4598	537.3666	578.6991	588.5142	703.9963	773.6804	823.3538	842.423	863.9509	877.7088	919.231	929.4251	961.5101	976.301	1008.9116	1041.3161	1064.5857	1091.1607	1118.7209	1122.818	1135.2428	1153.7856	1182.9493	1200.9367	1217.2446	1234.153	1238.4381	1283.8093	1288.1878	1309.9685	1340.4826	1359.5047	1386.3599	1406.9749	1476.5548	1486.001	1498.8881	1500.7516	3024.3212	3031.4986	3035.1684	3038.0172	3083.4562	3084.5412	3091.3031	3094.8843	3100.894	3104.0522	3154.3788	3791.386
CC1C2CC3CC1(O)C23	C[C@H]1[C@H]2C[C@H]3C[C@]1(O)[C@@H]23	
InChI=1S/C8H12O/c1-4-6-2-5-3-8(4,9)7(5)6/h4-7,9H,2-3H2,1H3	InChI=1S/C8H12O/c1-4-6-2-5-3-8(4,9)7(5)6/h4-7,9H,2-3H2,1H3/t4-,5-,6+,7+,8+/m0/s1
