19
gdb 97639	2.99246	0.67688	0.56995	2.4761	82.84	-0.2505	-0.0323	0.2182	1926.8578	0.155604	-423.001607	-422.990549	-422.989605	-423.040262	37.059	
C	-0.1100041091	 1.5412031018	-0.0176388231	-0.394652
C	-0.0678050572	 0.0123740132	 0.0293417819	-0.185454
C	 0.7415346767	-0.538491177	 1.239084974	-0.24007
C	-0.0119136581	-0.2164449465	 2.5332549436	 0.172126
O	 0.3180929242	 0.6308871154	 3.3178682715	-0.245215
C	 0.933328013	-1.9810338352	 1.1464556768	-0.004662
C	 1.0395170709	-3.1806634217	 1.0892739303	 0.115123
C	 1.2311060426	-4.6310509931	 1.0530474408	-0.194087
O	 1.3759042075	-5.2160106843	 2.3387196963	-0.399431
H	 0.8967627421	 1.9597951709	-0.1184230478	 0.12484
H	-0.7018429343	 1.881682916	-0.8721356321	 0.119555
H	-0.5524619193	 1.9649684333	 0.8888559551	 0.136168
H	-1.0825498402	-0.4017806045	 0.0706856061	 0.113743
H	 0.387637407	-0.3849253399	-0.8831072037	 0.119476
H	 1.7059149355	-0.0194901572	 1.2915098151	 0.119358
H	-0.9272693569	-0.8324664909	 2.6798695104	 0.09162
H	 0.3570856632	-5.115167813	 0.6034720525	 0.141893
H	 2.0905022858	-4.8649796328	 0.404234623	 0.120433
H	 2.0771850765	-4.7402128245	 2.7961138192	 0.289236
21.9514	45.8541	80.7577	83.1412	122.8575	170.7224	226.6683	256.6512	293.9029	340.6739	343.4565	453.6241	459.0271	502.8169	587.7484	771.728	815.7801	874.455	949.5679	986.38	1012.8267	1043.0487	1062.8757	1103.3482	1133.3527	1168.1189	1215.3737	1247.3669	1295.4092	1320.135	1358.8997	1359.7167	1414.7293	1417.9484	1419.0761	1488.6301	1491.259	1498.4077	1504.9386	1835.8916	2353.39	2885.9597	2976.124	3035.7659	3040.3923	3047.0701	3063.5593	3079.3133	3109.9961	3116.7523	3814.8015
CCC(C=O)C#CCO	CC[C@@H](C=O)C#CCO	
InChI=1S/C7H10O2/c1-2-7(6-9)4-3-5-8/h6-8H,2,5H2,1H3	InChI=1S/C7H10O2/c1-2-7(6-9)4-3-5-8/h6-8H,2,5H2,1H3/t7-/m1/s1
