18
gdb 98002	2.63192	0.60256	0.50962	3.5555	78.07	-0.2463	-0.0273	0.219	2079.8502	0.144844	-439.035931	-439.025237	-439.024292	-439.074631	35.511	
O	-0.9304589899	 0.6120347419	-1.6990532901	-0.399612
C	-0.4559057406	 0.0256269658	-0.4957583778	-0.191687
C	-1.5032744394	-0.6208498162	 0.2951229231	 0.035953
C	-2.3962949295	-1.1060319556	 0.9444886368	 0.06724
C	-3.4618091449	-1.7673768673	 1.7088713285	-0.318545
N	-3.8438653307	-3.1027456994	 1.2420234149	-0.284649
C	-4.3837798145	-3.1369469391	-0.1106660371	-0.22497
C	-5.0137941382	-4.4899732467	-0.3970873489	 0.150377
O	-5.0769806374	-4.9929088083	-1.4876666223	-0.234406
H	-1.6608867025	 1.1952207118	-1.4677570011	 0.287779
H	 0.2939421744	-0.7125211766	-0.8013347784	 0.14222
H	 0.0669166247	 0.7641908612	 0.1331215838	 0.119922
H	-3.1564436253	-1.8514932919	 2.7587047907	 0.13869
H	-4.3618797749	-1.139047191	 1.702955526	 0.137634
H	-3.0318480321	-3.7103707865	 1.2969784895	 0.228823
H	-5.2004472121	-2.4005066211	-0.1677801259	 0.131897
H	-3.6743023073	-2.8883996379	-0.9134447352	 0.128214
H	-5.4353974996	-4.982747693	 0.5082054235	 0.085121
23.1643	43.9138	67.3798	87.5419	136.3668	142.6473	242.8336	262.0702	324.6736	342.1071	397.2218	507.2705	520.5526	602.6219	723.8471	760.4446	828.9728	941.2294	985.6139	1003.0108	1044.2968	1072.6129	1127.4473	1134.1753	1152.2494	1215.4933	1222.6307	1300.5424	1343.6281	1359.1728	1362.7128	1405.9303	1418.5523	1459.604	1473.9206	1490.5538	1505.0014	1840.3182	2348.6179	2883.4172	2976.1438	2992.4019	3023.8666	3030.8909	3059.1583	3063.0677	3512.0676	3817.0834
OCC#CCNCC=O	OCC#CCNCC=O	
InChI=1S/C6H9NO2/c8-5-2-1-3-7-4-6-9/h6-8H,3-5H2	InChI=1S/C6H9NO2/c8-5-2-1-3-7-4-6-9/h6-8H,3-5H2
