19
gdb 28208	4.54656	1.18065	0.96015	1.4893	85.13	-0.1636	0.0546	0.2182	1244.3735	0.162461	-382.104256	-382.096098	-382.095154	-382.136824	31.319	
C	-0.0780286892	 1.4794465627	 0.0989092893	-0.502411
C	-0.0176662388	-0.0049553851	-0.0392987289	 0.326453
C	-0.0378284284	-0.8100699241	-1.1615785246	-0.427492
C	 0.0321273721	-2.162125162	-0.7156438559	 0.295894
C	 0.0969403901	-2.1278517002	 0.6463690586	 0.317064
N	 0.1357866275	-3.3647600298	 1.3243550177	-0.416858
C	-0.1121980932	-4.3345789548	 0.2058179698	-0.160116
C	 0.1178753645	-3.597360133	-1.1617590083	-0.360762
N	 0.0648491099	-0.8341953829	 1.078836347	-0.424531
H	 0.8031928	 1.8893790357	 0.6103013921	 0.119435
H	-0.1243518278	 1.9385326852	-0.891592873	 0.134956
H	-0.9616899099	 1.816251952	 0.65767254	 0.120321
H	-0.0971008378	-0.4443382107	-2.176320199	 0.084661
H	 1.0477657236	-3.5354946347	 1.7430859763	 0.223375
H	 0.5160610778	-5.2197002075	 0.3321270266	 0.099566
H	-1.1573304436	-4.6541568481	 0.2715380402	 0.116503
H	-0.6455162961	-3.8987731296	-1.8862928806	 0.104152
H	 1.0927948376	-3.8435797063	-1.6075779562	 0.096103
H	 0.0377845518	-0.5244906868	 2.0346765887	 0.253688
116.4685	121.8801	179.0469	246.9028	262.2814	275.2254	414.6198	472.0841	529.028	630.9165	653.7279	684.3432	717.4924	790.4622	795.5848	814.5308	910.6076	930.0457	978.6836	988.6498	1010.3726	1058.7673	1067.0202	1123.233	1163.728	1190.9731	1235.3742	1254.2224	1290.6422	1357.6793	1361.0225	1404.5754	1411.8991	1433.7943	1478.0783	1490.9417	1497.0257	1507.2153	1533.1662	1555.0444	1644.0583	2991.339	3004.5294	3043.3144	3043.509	3064.5468	3102.5342	3117.4654	3235.1609	3452.1149	3676.3272
CC1=CC2=C(NCC2)N1	Cc1cc2c(NCC2)[nH]1	
InChI=1S/C7H10N2/c1-5-4-6-2-3-8-7(6)9-5/h4,8-9H,2-3H2,1H3	InChI=1S/C7H10N2/c1-5-4-6-2-3-8-7(6)9-5/h4,8-9H,2-3H2,1H3
