22
gdb 98259	2.98742	0.93009	0.8456	4.4919	80.12	-0.2455	0.0243	0.2698	1490.2996	0.191917	-441.517243	-441.506288	-441.505344	-441.553728	39.166	
C	-0.0209144583	 1.5242399471	 0.0270708607	-0.392277
C	 0.0508590195	-0.0071754803	 0.0344422709	 0.029636
C	 0.6401494397	-0.570344269	-1.2645318455	-0.390677
N	 0.7761502765	-0.5098520662	 1.2186387769	-0.092537
C	 2.1165476834	-0.0090285929	 1.4851525211	-0.350824
C	 0.1362681688	-1.3469862992	 2.0770008666	 0.393659
O	-1.0082425083	-1.7550947295	 1.9009268066	-0.40859
C	 0.875278615	-1.8153242544	 3.3412263089	-0.155252
O	 0.0266308745	-2.618287849	 4.1033493987	-0.424842
H	 0.9655171388	 1.983303116	-0.0988220768	 0.113868
H	-0.6465239533	 1.860104117	-0.8050819793	 0.124707
H	-0.4599229557	 1.9014130335	 0.9553295804	 0.126175
H	-0.9589642557	-0.4029839201	 0.1514921798	 0.133059
H	 1.6640607423	-0.2224919054	-1.4410004337	 0.113112
H	 0.646580347	-1.6634464351	-1.2445870234	 0.130385
H	 0.0356694208	-0.247778171	-2.1178472326	 0.122801
H	 2.1121040968	 0.8991634828	 2.1013602146	 0.133731
H	 2.7238545376	-0.7639431187	 1.9868288401	 0.145126
H	 2.6115065651	 0.2265890034	 0.5408154068	 0.137904
H	 1.7830983939	-2.3687121475	 3.0480237036	 0.109073
H	 1.2117072491	-0.9389608246	 3.9171935739	 0.10824
H	-0.7882929874	-2.6692662271	 3.5721394917	 0.293523
39.2291	84.9282	114.5197	145.972	180.9505	200.223	234.0171	246.2001	296.483	325.8849	382.6706	421.3805	448.2298	494.2927	532.303	593.233	648.8767	779.9979	849.4491	931.2265	950.0571	954.7971	1031.2495	1084.2298	1119.0991	1142.043	1147.8608	1159.386	1201.5348	1259.1618	1263.5068	1304.6083	1366.2244	1374.2305	1400.7756	1419.4123	1433.5059	1475.3073	1477.8709	1485.3904	1489.2572	1494.5508	1503.028	1508.4419	1514.252	1524.9411	1733.8083	2965.1497	2991.5183	3021.6967	3034.1113	3039.1369	3093.29	3100.2884	3104.3955	3116.0589	3119.7632	3124.2872	3138.8396	3624.7451
CC(C)N(C)C(=O)CO	CC(C)N(C)C(=O)CO	
InChI=1S/C6H13NO2/c1-5(2)7(3)6(9)4-8/h5,8H,4H2,1-3H3	InChI=1S/C6H13NO2/c1-5(2)7(3)6(9)4-8/h5,8H,4H2,1-3H3
