17
gdb 31062	2.42851	1.30438	0.86464	0.5126	72.75	-0.1542	0.062	0.2162	1295.0454	0.135245	-455.152863	-455.143215	-455.142271	-455.187345	35.101	
C	 0.1152461185	 1.4232184287	 0.1192039734	-0.316739
N	-0.2951704806	 0.060495213	-0.1902673305	-0.399948
C	 0.4530817347	-0.6267053301	-1.1604719258	 0.239337
C	 0.6860813784	-1.9762505809	-1.1760958668	 0.187044
O	 0.3756646602	-2.9426742298	-0.2588716258	-0.441892
N	 1.3658490407	-2.2912383497	-2.3553105065	-0.348106
C	 1.5925500146	-1.1363267378	-3.0407264207	 0.391753
O	 2.2919450433	-1.2206031259	-4.2035882389	-0.43911
C	 1.0370553535	-0.081159868	-2.358945106	-0.394165
H	 1.1746291216	 1.5198102867	 0.4087115748	 0.104091
H	-0.0545972323	 2.0692531732	-0.7482739492	 0.12582
H	-0.5052354379	 1.8042039531	 0.9349751401	 0.115518
H	-0.3679572538	-0.5025954105	 0.6480021428	 0.227846
H	-0.5046514959	-3.2925250958	-0.4467514728	 0.297712
H	 1.8111457455	-3.1716872176	-2.5472396869	 0.263082
H	 2.4099942825	-0.3293255423	-4.5451273651	 0.304505
H	 1.0251911772	 0.9488034838	-2.6782193661	 0.083253
51.8818	147.8129	193.1599	208.6623	219.2312	248.9982	262.1537	286.8603	328.4766	370.0942	406.6413	549.0873	583.6678	646.8305	655.1076	659.2235	706.9396	734.4949	836.7183	1035.6218	1061.1094	1114.0988	1152.0216	1168.2301	1200.8157	1203.0623	1229.9169	1279.1202	1347.848	1454.6603	1476.4564	1488.3525	1498.6194	1519.3545	1543.1778	1603.9266	1687.1123	2967.1126	3065.9909	3108.664	3251.2819	3554.3463	3684.417	3725.8922	3848.569
CNC1=C(O)NC(O)=C1	CNc1c(O)[nH]c(O)c1	
InChI=1S/C5H8N2O2/c1-6-3-2-4(8)7-5(3)9/h2,6-9H,1H3	InChI=1S/C5H8N2O2/c1-6-3-2-4(8)7-5(3)9/h2,6-9H,1H3
