21
gdb 99607	2.16407	1.26528	1.02589	3.0747	83.16	-0.2463	0.0308	0.2771	1300.2432	0.181763	-383.263514	-383.253389	-383.252444	-383.298572	37.076	
C	-0.1780981679	 1.5335106442	-0.0837371839	-0.329802
N	-0.1556266612	 0.1226189583	 0.297529335	-0.277639
C	-1.3959909747	-0.5946393691	 0.0258905339	-0.189757
C	-1.7276968609	-0.6337886409	-1.4253587633	 0.276569
N	-1.9293305762	-0.6456592145	-2.5642600479	-0.340823
C	-1.3811712896	-2.0109929168	 0.60044849	 0.388455
C	-0.3177166921	-2.9355377498	 0.0402625615	-0.490333
C	-1.7666818912	-2.1421012005	 2.0507750944	-0.31322
C	-2.7230409082	-2.5946559398	 0.9733443698	-0.304137
H	 0.7984356442	 1.9744239896	 0.1325224307	 0.127302
H	-0.4143004214	 1.7116947828	-1.1447812477	 0.125195
H	-0.9236016815	 2.0600762349	 0.5224432778	 0.125858
H	 0.6132065329	-0.3442616667	-0.1714004299	 0.230659
H	-2.2037327208	-0.0363947746	 0.5154851144	 0.118147
H	 0.691640085	-2.5877416621	 0.2881473588	 0.121536
H	-0.423937059	-3.9395847104	 0.460467565	 0.1222
H	-0.3964407602	-3.0196151881	-1.0492205351	 0.140232
H	-1.2596354851	-2.8990898408	 2.6392265808	 0.116135
H	-2.0008838361	-1.2381926684	 2.6024728506	 0.117921
H	-3.6132070029	-2.000565497	 0.7943542241	 0.117776
H	-2.867228843	-3.6589583904	 0.823745381	 0.117725
64.8604	97.6309	133.1999	172.6085	184.5079	235.0635	257.6731	307.4191	329.9527	348.5922	381.7899	471.2336	528.7085	604.6282	750.8321	778.6142	787.9262	882.529	893.3633	936.8499	957.8929	990.7424	1011.4624	1044.3626	1072.549	1083.4567	1128.4246	1139.2754	1159.5446	1183.1532	1191.029	1267.387	1320.6356	1341.433	1376.8975	1423.3409	1458.7193	1472.2876	1486.2299	1492.647	1496.8856	1504.9877	1512.5344	1522.4216	2337.6716	2982.3013	3028.859	3034.5736	3066.1942	3091.3877	3108.9388	3113.8411	3131.6124	3136.4228	3209.8055	3223.5906	3533.2256
CNC(C#N)C1(C)CC1	CN[C@@H](C#N)C1(C)CC1	
InChI=1S/C7H12N2/c1-7(3-4-7)6(5-8)9-2/h6,9H,3-4H2,1-2H3	InChI=1S/C7H12N2/c1-7(3-4-7)6(5-8)9-2/h6,9H,3-4H2,1-2H3/t6-/m0/s1
