21
gdb 104931	2.15815	1.39394	1.01662	2.4591	80.22	-0.2514	-0.035	0.2163	1276.0822	0.178162	-424.233409	-424.222787	-424.221842	-424.269074	38.295	
C	 0.2256462401	 1.1659249538	 0.5695430524	-0.382485
C	-0.4656724376	 0.0535075736	-0.230573503	-0.276779
C	 0.3854661457	-0.4241540262	-1.3928736236	 0.212105
O	 1.6934701679	-0.961714833	-1.1094558531	-0.319753
C	 0.725160248	-1.8613915285	-1.6513418627	 0.340503
C	 0.2417261287	-2.9426222534	-0.7039116261	-0.452911
C	 1.0022800396	-2.3791077502	-3.0522012207	-0.460781
C	 0.401197572	 0.5226754538	-2.5664123033	 0.116763
O	-0.4892912042	 1.2942071619	-2.8207724128	-0.257601
H	 1.1821848208	 0.8167411589	 0.9688892719	 0.1307
H	 0.4167193879	 2.0432821776	-0.0558875985	 0.129327
H	-0.4012758884	 1.4840390805	 1.4072722256	 0.115196
H	-0.7180565168	-0.7767069238	 0.4312681826	 0.099941
H	-1.4019679642	 0.4281757291	-0.6564588661	 0.127828
H	 0.2419462242	-2.6047211473	 0.3318951453	 0.137442
H	-0.7665129751	-3.2758578948	-0.9711740999	 0.128444
H	 0.9078243793	-3.8094235289	-0.7734808509	 0.127551
H	 1.7287722333	-3.1972033036	-3.0020457541	 0.129828
H	 0.0849442847	-2.7767386757	-3.4987006537	 0.131249
H	 1.4042797396	-1.6134901657	-3.7152331247	 0.128735
H	 1.3286143246	 0.4757092216	-3.1748348647	 0.0947
64.6514	86.4528	127.7352	137.3386	167.5614	216.9076	231.9718	285.1756	322.0886	348.6379	384.5392	408.4463	481.707	532.5202	567.2507	708.8684	724.8928	797.3562	860.5407	912.5221	941.6172	980.4339	1006.899	1034.7165	1054.6446	1101.5274	1135.7162	1163.7331	1208.8179	1256.7638	1307.7379	1359.8388	1379.7661	1405.4574	1407.9692	1416.6325	1433.3171	1472.6976	1474.5813	1489.4797	1499.3032	1501.1302	1507.4145	1516.4003	1816.8398	2913.2904	3039.6894	3043.1653	3045.2777	3066.1299	3098.3072	3104.1986	3104.4406	3117.2113	3126.2737	3151.0982	3154.2565
CCC1(OC1(C)C)C=O	CC[C@]1(OC1(C)C)C=O	
InChI=1S/C7H12O2/c1-4-7(5-8)6(2,3)9-7/h5H,4H2,1-3H3	InChI=1S/C7H12O2/c1-4-7(5-8)6(2,3)9-7/h5H,4H2,1-3H3/t7-/m0/s1
