17
gdb 6513	3.00391	1.84506	1.36357	4.0863	69.41	-0.2891	0.0086	0.2977	951.4057	0.138884	-363.872522	-363.863426	-363.862482	-363.905669	32.752	
C	-0.044614491	 1.5352910001	-0.0635313131	-0.459426
C	-0.0636875221	 0.0265661847	 0.0639700286	 0.343545
C	-1.2427641047	-0.6428085874	-0.6097657049	-0.464905
O	 1.1994058792	-0.632431168	-0.1309819335	-0.302269
C	 0.6439328561	-0.6543383733	 1.1892738427	 0.180066
C	 1.4178952106	 0.0536029735	 2.2835409687	-0.471663
C	 0.1517764647	-1.961284062	 1.6116554436	 0.26742
N	-0.2313385515	-2.9845667154	 1.9892831484	-0.344584
H	 0.870947525	 1.9745204011	 0.331798196	 0.134134
H	-0.1182707472	 1.8099556861	-1.1209148131	 0.136447
H	-0.9022474828	 1.9755413687	 0.455197464	 0.132136
H	-1.2309042133	-0.413114519	-1.6801762288	 0.13158
H	-1.2150730938	-1.7264282246	-0.4881661158	 0.155153
H	-2.1847157636	-0.2686260852	-0.1959036614	 0.130049
H	 1.7875926037	 1.0194559055	 1.9414324582	 0.138042
H	 0.7843736094	 0.2038064888	 3.1627751286	 0.143346
H	 2.2749749911	-0.5562626637	 2.5832766017	 0.150929
125.9786	138.708	151.8371	161.8406	184.2095	259.9869	288.6616	368.9428	399.7048	407.1441	480.1788	570.9691	600.9375	652.378	710.3523	865.1117	899.4009	949.2282	995.5514	1010.9177	1086.5745	1145.9696	1167.6489	1199.4054	1256.0339	1406.3396	1412.6988	1415.9381	1424.5952	1469.7168	1479.7045	1479.7714	1492.233	1502.2534	1516.0661	2352.3927	3042.0844	3047.4932	3054.6038	3103.4499	3109.2409	3118.979	3146.3123	3148.0066	3163.5656
CC1(C)OC1(C)C#N	CC1(C)O[C@]1(C)C#N	
InChI=1S/C6H9NO/c1-5(2)6(3,4-7)8-5/h1-3H3	InChI=1S/C6H9NO/c1-5(2)6(3,4-7)8-5/h1-3H3/t6-/m1/s1
