17
gdb 52501	11.36164	0.38837	0.38061	2.8666	99.25	-0.2337	-0.031	0.2028	2744.9227	0.132241	-384.661408	-384.650686	-384.649742	-384.701851	34.909	
C	-0.0300360583	 1.5079650181	-0.026762963	-0.518442
C	 0.0030547726	 0.0566875114	-0.0158264764	 0.257337
C	 0.0310668479	-1.1532717786	-0.0060193536	-0.215241
C	 0.0615360879	-2.5129048228	 0.0054936131	-0.101218
C	 0.0923299395	-3.7231843774	 0.0152319002	 0.205287
C	 0.1024126826	-5.176673594	 0.0311850763	-0.400489
C	-1.3136023225	-5.7826808113	 0.1885211462	-0.262356
C	-1.2897619165	-7.29162525	 0.0813389386	 0.156715
O	-1.7946988906	-8.0466214169	 0.8697211594	-0.229813
H	 0.9822349381	 1.9272742799	-0.0049009751	 0.157159
H	-0.5278324632	 1.8865900298	-0.9266625395	 0.156731
H	-0.5709808272	 1.8986774945	 0.8425433238	 0.157207
H	 0.5571091803	-5.5525035028	-0.8959572099	 0.139625
H	 0.7422986924	-5.5326222527	 0.8493235207	 0.148553
H	-1.7670833469	-5.4960394395	 1.1398552531	 0.138343
H	-1.9492675944	-5.4006157901	-0.6215355093	 0.137752
H	-0.7540448717	-7.6773847676	-0.8191956847	 0.072851
3.2696	43.893	53.1871	72.5347	111.0477	149.3617	254.8043	273.881	311.7317	384.5889	420.2357	520.9132	559.4685	560.9036	625.4827	753.0413	844.4024	950.885	1003.3709	1048.1318	1048.3938	1073.5442	1090.7761	1197.3541	1259.2686	1290.6861	1302.5564	1364.125	1413.0355	1430.0096	1460.2428	1471.8892	1472.0065	1476.6413	1839.7907	2280.2886	2388.0378	2845.6588	3008.9649	3023.6349	3030.	3043.7865	3085.8368	3085.892	3119.4542
CC#CC#CCCC=O	CC#CC#CCCC=O	
InChI=1S/C8H8O/c1-2-3-4-5-6-7-8-9/h8H,6-7H2,1H3	InChI=1S/C8H8O/c1-2-3-4-5-6-7-8-9/h8H,6-7H2,1H3
