15
gdb 41042	3.6733	1.99042	1.62929	0.7973	67.75	-0.2169	0.0599	0.2768	817.5742	0.113031	-420.463357	-420.457351	-420.456406	-420.493484	25.02	
C	 0.0830146746	 1.3665025585	-0.1378944275	-0.007077
O	 1.4401867023	 1.8201434432	 0.0250264271	-0.298447
C	 2.0111713897	 0.8603318307	 0.8417127926	 0.374779
C	 3.2303331286	-0.0141019878	 0.9976427524	-0.188084
C	 2.4768551423	 0.5554709452	 2.2505379463	-0.200127
C	 1.5327664616	-0.7016562735	 2.2524595517	-0.200127
C	 2.2879770323	-1.2689221431	 0.9995608123	-0.188084
C	 1.1080983685	-0.3421798203	 0.8435509512	 0.374779
O	 0.0259597072	-0.0630093939	 0.0279050801	-0.298447
H	-0.5548967748	 1.8467204478	 0.6166181881	 0.113983
H	-0.2445275343	 1.6109359376	-1.1500206153	 0.132676
H	 4.2701339163	 0.1316935766	 0.733746222	 0.096743
H	 2.8954759676	 1.1698827772	 3.0374271198	 0.095343
H	 1.060575798	-1.2734292644	 3.0411619609	 0.095343
H	 2.4374567948	-2.3086581809	 0.7374765083	 0.096743
160.3687	244.2149	370.6331	445.8819	599.7995	629.7835	677.3861	724.265	776.4709	798.546	798.8366	834.2816	839.9942	872.6498	882.5296	931.2627	937.1017	971.7213	979.6687	1028.1808	1032.2753	1064.6432	1135.6109	1144.8719	1154.9559	1164.4103	1218.7656	1219.833	1284.6985	1359.6355	1438.8266	1451.7238	1532.0639	3009.4591	3120.8751	3184.1108	3194.7225	3196.0394	3203.745
C1OC23C4C2C2C4C32O1	C1O[C@@]23[C@H]4[C@@H]2[C@@H]2[C@H]4[C@]32O1	
InChI=1S/C7H6O2/c1-8-6-2-3(6)5-4(2)7(5,6)9-1/h2-5H,1H2	InChI=1S/C7H6O2/c1-8-6-2-3(6)5-4(2)7(5,6)9-1/h2-5H,1H2/t2-,3+,4-,5+,6-,7+
