17
gdb 68682	2.42713	1.80326	1.40013	2.0922	67.7	-0.2311	-0.029	0.2021	964.3091	0.136233	-458.955458	-458.947672	-458.946728	-458.987461	30.186	
O	 0.223255345	 1.4420909195	-0.1601321205	-0.480609
C	 0.0690812582	 0.0649187398	-0.0730471792	 0.295407
C	-1.3461561796	-0.6343739612	 0.0053173052	-0.335048
C	-0.6419643143	-1.7699739822	 0.8114643987	-0.00246
O	 0.0594590469	-2.6898581999	-0.0148407932	-0.272811
C	 0.4773734372	-2.1324981036	-1.2631025262	-0.080108
C	 0.9037400693	-0.6550661387	-1.1538811366	-0.269675
C	 0.3120038338	-0.6372031285	 1.2649720386	 0.358199
O	 0.7886529297	-0.2593766264	 2.2980644648	-0.327952
H	 0.2817301571	 1.7861283458	 0.7402665367	 0.295049
H	-2.0398768122	-0.0765352538	 0.6387209577	 0.120184
H	-1.8274307919	-0.8997061487	-0.9363171934	 0.121495
H	-1.197668082	-2.3351562126	 1.5588977304	 0.105993
H	 1.3035666231	-2.7581629102	-1.6098791598	 0.121079
H	-0.3351291802	-2.231751117	-1.9953538655	 0.105321
H	 0.7444210065	-0.1473290686	-2.1116215768	 0.121009
H	 1.9644153432	-0.5553740935	-0.9032812409	 0.124926
121.7581	178.4944	219.9342	247.929	307.3062	359.1487	400.8413	430.0097	494.7001	563.1975	670.928	752.5789	795.923	811.5397	838.6077	888.1936	935.6524	940.1468	973.9403	1040.7208	1054.0318	1111.9579	1137.2703	1151.6565	1180.4875	1205.5448	1213.5983	1260.8934	1294.5415	1334.9122	1362.7594	1379.9135	1405.5492	1475.8435	1492.1475	1525.8931	1878.0476	3008.2653	3044.7026	3077.8071	3085.9825	3099.8607	3127.6621	3143.9612	3774.4402
OC12CC(OCC1)C2=O	O[C@@]12C[C@@H](OCC1)C2=O	
InChI=1S/C6H8O3/c7-5-4-3-6(5,8)1-2-9-4/h4,8H,1-3H2	InChI=1S/C6H8O3/c7-5-4-3-6(5,8)1-2-9-4/h4,8H,1-3H2/t4-,6-/m1/s1
