15
gdb 19377	4.37943	1.65604	1.4781	2.9299	60.34	-0.2281	0.0481	0.2762	860.6939	0.117992	-399.680018	-399.673041	-399.672097	-399.711304	26.701	
O	 0.1342107204	 1.3603174669	 0.177618739	-0.410584
C	 0.0728958942	-0.0373434246	-0.0636570989	-0.18756
C	-1.3295031471	-0.5456285075	-0.1245760982	 0.284539
N	-2.1364201725	-0.8753350093	 1.081510684	-0.354804
C	-1.9085403924	-1.8997617204	 0.0335319913	-0.180786
C	-2.9027144337	-1.6075674053	-1.1497147479	 0.025557
O	-3.6794994735	-0.456232128	-0.8302843525	-0.20967
C	-2.3464859956	-0.2634931533	-1.2972182491	-0.019746
H	-0.4139669022	 1.5482996055	 0.9471984646	 0.291014
H	 0.5760571981	-0.1903898198	-1.0254569322	 0.117164
H	 0.636865164	-0.6101999185	 0.6922702387	 0.086322
H	-1.4692295855	-1.0863314171	 1.8266891509	 0.227153
H	-1.4239300588	-2.8436796588	 0.2464514892	 0.103263
H	-3.297304689	-2.3149953299	-1.8681745947	 0.112582
H	-2.1840235366	 0.3698890802	-2.160542594	 0.115557
93.3651	134.5294	276.1252	330.3183	380.6636	429.454	458.1925	623.6856	689.5639	759.9174	794.7418	824.1091	854.1127	875.5807	918.1708	937.9827	990.2668	1003.8611	1026.8261	1048.8452	1066.689	1115.2706	1181.0826	1210.9579	1218.1028	1275.0536	1327.5316	1356.9091	1367.8342	1414.0358	1443.4944	1497.1261	2960.0796	3058.0915	3189.892	3200.7438	3207.6751	3443.1077	3808.6856
OCC12NC1C1OC21	OC[C@]12N[C@H]1[C@H]1O[C@@H]21	
InChI=1S/C5H7NO2/c7-1-5-3(6-5)2-4(5)8-2/h2-4,6-7H,1H2	InChI=1S/C5H7NO2/c7-1-5-3(6-5)2-4(5)8-2/h2-4,6-7H,1H2/t2-,3+,4-,5+/m1/s1
