14
gdb 132922	3.21379	1.41445	0.98306	2.358	69.53	-0.2084	-0.0124	0.196	1095.7407	0.102817	-474.223618	-474.215958	-474.215014	-474.255394	29.838	
N	-0.0373783924	 1.360170062	-0.1140827417	-0.57291
C	-0.0164614049	-0.0024824479	-0.0640288513	 0.2897
N	-1.1709337406	-0.6656316178	-0.0711855283	-0.381264
C	-1.0992060499	-2.007454358	-0.0680709225	 0.423861
N	-2.2924634689	-2.6778102207	-0.1412003279	-0.55643
H	-3.1146064641	-2.1533259593	 0.1066432742	 0.256753
H	-2.2668956791	-3.6472795169	 0.1279453519	 0.25962
N	 0.0100599834	-2.7576828875	-0.0299009904	-0.332888
C	 1.1618437999	-2.0740462205	-0.012344687	-0.099988
C	 1.2016355543	-0.7031774242	-0.0351541087	 0.160654
F	 2.3578507526	-0.0111286071	-0.0092586019	-0.095728
H	 0.7997641024	 1.8535431417	 0.146057458	 0.266268
H	-0.9194038589	 1.8012690093	 0.0893858196	 0.262397
H	 2.0871693164	-2.644094093	 0.0247563461	 0.119955
131.6401	225.4948	277.2541	338.9501	354.7729	388.3417	429.9639	448.419	472.8295	491.0836	499.7285	550.2821	595.9604	735.8511	786.1243	789.5588	815.8389	969.8816	978.6049	1053.5719	1167.1187	1244.0517	1297.5917	1324.2471	1395.8702	1486.4	1516.2036	1606.6798	1618.5394	1650.1465	1659.029	3161.2385	3603.0236	3605.8075	3729.5478	3731.9862
NC1=NC(=[NH2+])[N-]C=C1F	Nc1nc(N)ncc1F	
InChI=1S/C4H4FN4/c5-2-1-8-4(7)9-3(2)6/h1H,(H3-,6,7,8,9)/q-1/p+1	InChI=1S/C4H5FN4/c5-2-1-8-4(7)9-3(2)6/h1H,(H4,6,7,8,9)
