17
gdb 12081	3.81374	1.64036	1.50466	1.0863	63.89	-0.2289	0.0617	0.2905	893.9988	0.141994	-400.940146	-400.932409	-400.931464	-400.971859	29.861	
O	-0.0639369145	 1.4066516834	-0.0592154803	-0.440966
C	 0.032127287	-0.0152784785	 0.0490101536	-0.14286
C	-1.3961720936	-0.5307759749	-0.0170523528	 0.458742
O	-2.1738643581	 0.0727386983	 0.9932170455	-0.501475
C	-2.1102856336	-0.519496097	-1.4296437224	-0.27946
C	-2.2781539654	-2.0366555172	-1.3017560796	-0.038356
N	-0.9076253917	-2.5934747054	-1.1799081372	-0.343322
C	-1.5973351965	-2.0508737057	 0.0191872473	-0.117464
H	 0.8000619233	 1.7878016099	 0.1179968953	 0.293857
H	 0.6289824491	-0.448198195	-0.7610802524	 0.114289
H	 0.4748371483	-0.3062967748	 1.0136508876	 0.087776
H	-1.9167732406	 1.0044236035	 0.9898183512	 0.285581
H	-3.0532830242	 0.0234291595	-1.3520973407	 0.109539
H	-1.5342419475	-0.1732337506	-2.2908758431	 0.100134
H	-3.0915248548	-2.6519687679	-1.6657057289	 0.091923
H	-0.9966884622	-3.6082961522	-1.1324685682	 0.229395
H	-1.7687899949	-2.6515082053	 0.903991105	 0.092666
112.7638	159.52	221.9844	239.6237	312.9307	390.1791	438.6849	442.0976	483.5553	534.8275	672.9837	782.5993	819.8332	844.5967	887.8503	935.5193	949.619	976.6444	1007.0272	1040.19	1066.7976	1088.2857	1095.6626	1137.6988	1162.1918	1203.1367	1218.0523	1258.2583	1268.6023	1292.9249	1318.3229	1374.9071	1422.1585	1451.5811	1467.3108	1515.6947	2989.9656	3068.5895	3071.2699	3139.4837	3185.4368	3199.3826	3471.0523	3764.4526	3843.9237
OCC1(O)CC2NC12	OC[C@@]1(O)C[C@H]2N[C@@H]12	
InChI=1S/C5H9NO2/c7-2-5(8)1-3-4(5)6-3/h3-4,6-8H,1-2H2	InChI=1S/C5H9NO2/c7-2-5(8)1-3-4(5)6-3/h3-4,6-8H,1-2H2/t3-,4-,5+/m1/s1
