21
gdb 118159	3.14782	0.90852	0.82057	1.0252	75.64	-0.2505	0.0706	0.3211	1503.3681	0.181313	-461.328055	-461.31814	-461.317196	-461.363853	35.175	
C	-0.5076969817	 1.2271159851	-0.5993965878	-0.224595
O	-0.5744460991	-0.1778366424	-0.5414935061	-0.236855
C	-0.8155279006	-0.6673636108	 0.7599073689	-0.083908
C	-0.9213205992	-2.1943246824	 0.6914089715	 0.06993
O	-0.9857825974	-2.7369717304	 1.9975080215	-0.442316
C	-2.1288763227	-2.63796964	-0.1270774886	 0.139499
C	-2.4004389199	-4.1514137903	-0.2552584996	-0.295909
C	-3.7501026344	-3.8252443318	 0.4094605331	-0.06508
O	-3.3500400971	-2.4541361581	 0.6517121885	-0.317837
H	-0.3174008068	 1.5042658231	-1.6391943209	 0.126044
H	-1.4500487603	 1.6941292252	-0.2725244907	 0.107143
H	 0.3060362602	 1.6222741736	 0.0287776065	 0.105647
H	 0.0015618302	-0.3956273955	 1.4459982834	 0.095852
H	-1.7507489519	-0.2492798808	 1.1703430176	 0.095189
H	-0.0117306998	-2.5843607079	 0.2186006768	 0.096718
H	-1.9047858251	-2.6085443065	 2.2727564076	 0.286931
H	-2.1723103204	-2.0775130097	-1.0669686214	 0.094878
H	-2.4371319264	-4.5547380297	-1.2675678359	 0.109479
H	-1.7379473697	-4.756319444	 0.3654952657	 0.125558
H	-4.6179945286	-3.8718152213	-0.2597893707	 0.106152
H	-3.9876836694	-4.3519783353	 1.3400280105	 0.10748
57.6734	87.9311	91.9234	115.7095	174.0377	218.9232	239.5477	278.2733	335.4876	431.7096	506.5419	539.2249	652.2664	699.5453	807.7613	865.1945	928.7249	965.0029	987.4546	1000.4883	1024.8034	1051.3916	1069.9765	1119.5865	1140.0694	1164.4589	1174.0048	1185.5667	1220.4334	1223.8813	1237.477	1263.5251	1266.02	1297.7796	1332.0946	1360.5481	1377.046	1413.8828	1439.3026	1480.3753	1481.888	1485.6516	1502.3193	1525.7854	1528.5704	2959.0931	2974.4848	3004.227	3017.7946	3021.5074	3048.2792	3059.4422	3068.0474	3086.6446	3113.0678	3145.938	3738.8924
COCC(O)C1CCO1	COC[C@@H](O)[C@H]1CCO1	
InChI=1S/C6H12O3/c1-8-4-5(7)6-2-3-9-6/h5-7H,2-4H2,1H3	InChI=1S/C6H12O3/c1-8-4-5(7)6-2-3-9-6/h5-7H,2-4H2,1H3/t5-,6-/m1/s1
