21
gdb 61832	2.27971	1.11426	0.81931	4.1672	80.47	-0.2709	0.0122	0.283	1443.7172	0.179978	-424.244565	-424.234299	-424.233355	-424.280985	36.53	
C	 0.0188498835	 1.4838300828	-0.210202034	-0.390652
C	 0.067214656	-0.0236223611	 0.0208995818	 0.089859
O	 0.7979424861	-0.2745299892	 1.2482025662	-0.189546
C	 2.0603316165	-0.71931932	 1.1608413208	 0.169336
O	 2.7475247817	-0.9252203169	 2.1170207529	-0.282603
C	-1.3019380865	-0.6375404968	 0.1680918503	 0.010299
C	-2.0624187781	-1.0992776272	-1.0548190247	-0.30693
C	-1.5719449624	-2.1096044601	-0.0473787133	 0.001414
C	-0.4928305934	-3.111749895	-0.3972068353	-0.415327
H	 1.0266209382	 1.8957687366	-0.3163395948	 0.122253
H	-0.5474552126	 1.7090606097	-1.1183757213	 0.127297
H	-0.4668329966	 1.9812170842	 0.6344745887	 0.135084
H	 0.6070612079	-0.5042290303	-0.8048976273	 0.08206
H	 2.3900772076	-0.8785326689	 0.1140981538	 0.070048
H	-1.8905946596	-0.1623906181	 0.9485305332	 0.093816
H	-3.1221152727	-0.8799613662	-1.1216877908	 0.115908
H	-1.5435959299	-1.0597448938	-2.0087084219	 0.109974
H	-2.3373003416	-2.5132699895	 0.6102520802	 0.091479
H	 0.2430908115	-2.7016203226	-1.0955319688	 0.110198
H	 0.0435017511	-3.4497330434	 0.4957707174	 0.13345
H	-0.9308406367	-3.993911594	-0.876391583	 0.122582
35.3516	49.6871	130.3537	162.3181	192.342	212.9969	226.602	261.6294	333.9859	369.5745	407.3798	457.8959	554.3231	654.8217	777.459	813.38	858.3977	907.3174	916.192	963.82	1023.9209	1034.8514	1046.7239	1067.9009	1084.5578	1111.8702	1125.0831	1149.2722	1192.1521	1196.8025	1220.891	1257.8195	1315.2202	1361.8664	1397.9859	1408.8465	1419.0381	1430.6027	1446.7868	1486.9146	1492.3491	1493.5475	1496.5396	1508.0741	1860.569	2930.1257	3023.0046	3034.1879	3043.053	3094.0988	3101.2505	3118.2132	3122.6884	3124.1429	3137.2399	3147.3245	3209.8295
CC(OC=O)C1CC1C	C[C@@H](OC=O)[C@H]1C[C@H]1C	
InChI=1S/C7H12O2/c1-5-3-7(5)6(2)9-4-8/h4-7H,3H2,1-2H3	InChI=1S/C7H12O2/c1-5-3-7(5)6(2)9-4-8/h4-7H,3H2,1-2H3/t5-,6-,7+/m1/s1
