24
gdb 102612	1.87619	1.01227	0.77045	3.3034	86.24	-0.243	0.0355	0.2786	1628.1435	0.215086	-405.600369	-405.588513	-405.587569	-405.639279	41.522	
C	-0.3008006494	 1.557965628	 0.6293236383	-0.390905
C	-0.1949829076	 0.074728746	 0.2602791218	-0.182326
C	 0.5788319223	-0.2125641911	-1.0429697806	 0.071282
C	 2.0863273668	 0.0659085613	-0.8912362601	-0.1898
C	 2.8704582789	 0.1042516975	-2.207885543	-0.38958
C	 0.3160501104	-1.6544328045	-1.5067767862	-0.330318
C	-1.1078861039	-1.8619070067	-2.0232899668	 0.409482
N	-1.5914304956	-3.1319479941	-1.8814716493	-0.523121
O	-1.7630309585	-0.9766885576	-2.5400101731	-0.363426
H	 0.6772460486	 2.0136699402	 0.8125126815	 0.114466
H	-0.7881006396	 2.1242330731	-0.1716578125	 0.123306
H	-0.8956535187	 1.6906147156	 1.5386381844	 0.109345
H	 0.2748386393	-0.4801562252	 1.085307644	 0.082283
H	-1.210059584	-0.325476032	 0.1584483036	 0.106154
H	 0.1742312879	 0.4447363751	-1.822811707	 0.095914
H	 2.217629539	 1.0294936011	-0.3868919865	 0.096865
H	 2.5262245373	-0.6853693831	-0.2197742421	 0.086132
H	 2.4579124382	 0.8569104254	-2.8886158859	 0.120285
H	 3.9205097395	 0.3569296394	-2.0295263652	 0.111113
H	 2.8549674762	-0.8568346932	-2.7322149422	 0.112979
H	 0.9844919161	-1.9175619261	-2.3360766869	 0.12321
H	 0.5354657467	-2.3634883808	-0.697546357	 0.092579
H	-1.0350043896	-3.8802102198	-1.5081137175	 0.255867
H	-2.4868524504	-3.3487112785	-2.2877599118	 0.258216
23.6962	57.5921	68.6858	88.1964	125.777	157.9182	205.9262	227.4552	249.4435	273.0685	359.4998	391.5849	441.2801	489.7254	521.155	618.6116	663.1008	758.1088	774.7844	834.8976	860.49	895.885	964.332	994.1427	1024.603	1047.	1058.6706	1076.3878	1123.0736	1154.2419	1175.2486	1229.1961	1265.3924	1288.9812	1310.843	1336.8899	1350.0148	1381.7528	1392.5073	1403.9385	1411.9536	1413.7222	1460.1677	1481.5491	1487.4606	1499.8069	1502.7357	1505.0255	1509.1011	1615.0761	1792.596	3003.6627	3008.2698	3018.5283	3032.895	3034.6467	3039.4305	3057.877	3059.7818	3064.3154	3099.7502	3100.2584	3101.5154	3106.1116	3601.7189	3739.8758
CCC(CC)CC(N)=O	CCC(CC)CC(=O)N	
InChI=1S/C7H15NO/c1-3-6(4-2)5-7(8)9/h6H,3-5H2,1-2H3,(H2,8,9)	InChI=1S/C7H15NO/c1-3-6(4-2)5-7(8)9/h6H,3-5H2,1-2H3,(H2,8,9)
