17
gdb 125177	3.26402	1.51465	1.06145	3.9952	75.92	-0.2162	0.0089	0.225	1107.7002	0.138328	-418.010381	-418.002696	-418.001752	-418.04274	29.06	
C	 0.0857235348	 1.5073203217	-0.0707808284	-0.493148
C	-0.0856258563	 0.0339421902	 0.0440915154	 0.265994
C	-1.1508205007	-0.8001595094	 0.0706502596	 0.096806
C	-2.6437009528	-0.9481775254	 0.0397187376	-0.367992
C	-2.787917745	-2.4871676295	-0.2101887168	-0.163709
N	-1.52174831	-3.0783822297	 0.285162436	-0.394765
C	-0.563602936	-2.085284967	 0.2005922212	 0.429903
N	 0.7412810447	-2.0839128753	 0.2422485867	-0.287298
O	 1.0545095107	-0.6968571964	 0.143071287	-0.237624
H	 0.7212582767	 1.7618358876	-0.9251704364	 0.149334
H	-0.8840108417	 1.9922810945	-0.1998110318	 0.133471
H	 0.5622038733	 1.9176750456	 0.8259118121	 0.150298
H	-3.0971354929	-0.6722144847	 0.9992216565	 0.125601
H	-3.1497778311	-0.3717705382	-0.7390026263	 0.119556
H	-3.6434991055	-2.9161435231	 0.3177623784	 0.115462
H	-2.9199487441	-2.6765956936	-1.2849583214	 0.108802
H	-1.2806364641	-3.9966104772	-0.0586646197	 0.249308
86.6177	145.5463	195.2184	245.507	268.0801	368.7166	517.4429	524.8488	588.7267	599.6795	675.9425	716.5855	765.2696	816.7476	869.9685	892.6098	935.0923	992.8262	1038.5599	1059.6731	1077.1845	1101.0757	1183.4781	1198.806	1229.0111	1278.3373	1305.867	1332.3324	1404.922	1414.6832	1472.1089	1473.9295	1486.3139	1495.7497	1521.7385	1621.1381	1727.5133	3000.085	3033.4459	3040.8936	3085.4071	3094.3199	3097.4677	3133.5483	3606.076
CC1=C2CCNC2=NO1	Cc1c2CCNc2no1	
InChI=1S/C6H8N2O/c1-4-5-2-3-7-6(5)8-9-4/h2-3H2,1H3,(H,7,8)	InChI=1S/C6H8N2O/c1-4-5-2-3-7-6(5)8-9-4/h2-3H2,1H3,(H,7,8)
