13
gdb 5499	3.72817	1.91265	1.26412	2.1794	69.78	-0.1998	0.0107	0.2105	885.8047	0.095823	-361.465123	-361.457901	-361.456957	-361.496198	27.788	
O	 0.089352191	 1.3210808808	 0.0642537012	-0.446268
C	 0.0548243401	-0.0333610453	 0.0198601103	 0.211841
C	 0.0269767889	-0.8025733011	-1.115363304	-0.163097
N	-0.0035258736	-2.1239361366	-0.7029700389	-0.237589
C	 0.0045703929	-2.2056179979	 0.6523907076	-0.185752
C	 0.0411183557	-0.9124980433	 1.1551602131	 0.070695
C	 0.0623317686	-0.4691834815	 2.4932144442	 0.201245
C	 0.0821480479	-0.0023454765	 3.6059865285	-0.465876
H	 0.1027781416	 1.5791828561	 0.9946171834	 0.298041
H	 0.0261540859	-0.5285090981	-2.1557972572	 0.128266
H	-0.0279694235	-2.9125850978	-1.3239697015	 0.268707
H	-0.0155284181	-3.1508951066	 1.1682949091	 0.131974
H	 0.0985256226	 0.3787923479	 4.5965508742	 0.187813
126.9848	160.7532	307.6802	369.5167	375.5828	423.8491	473.6492	515.4132	521.2246	610.1899	618.363	639.4274	673.0822	727.8419	729.3465	749.0687	902.866	1074.7116	1114.9754	1181.9763	1242.0106	1286.5495	1354.9381	1428.3076	1487.7122	1553.6457	1656.5497	2218.219	3276.1599	3285.6686	3502.188	3695.8052	3777.282
OC1=CNC=C1C#C	Oc1c[nH]cc1C#C	
InChI=1S/C6H5NO/c1-2-5-3-7-4-6(5)8/h1,3-4,7-8H	InChI=1S/C6H5NO/c1-2-5-3-7-4-6(5)8/h1,3-4,7-8H
