16
gdb 54364	3.90706	1.39999	1.20668	2.3343	73.17	-0.2286	-0.0214	0.2072	1027.7429	0.122714	-400.643086	-400.635472	-400.634528	-400.675769	28.526	
C	 0.0810271646	 1.3912887281	 0.4430133475	-0.495434
C	-0.034969656	-0.0005204063	-0.1468519422	 0.23059
O	 0.8842233592	-0.5495414971	-0.7246263238	-0.327598
C	-1.3308077676	-0.6752676625	-0.0003368523	 0.28099
C	-1.5400746144	-2.1985397811	 0.2573825261	-0.143317
C	-2.9236305054	-1.8624467989	 0.8634082126	-0.048765
C	-2.7358829282	-0.4130407652	 0.5955029864	-0.163462
N	-3.3953910327	-1.2823458868	-0.4439683798	-0.173777
C	-2.0131260056	-1.5926167561	-1.0126251704	-0.042659
H	 1.0844967872	 1.7814452229	 0.2699178468	 0.144294
H	-0.6597203428	 2.0599598693	-0.0108411156	 0.141794
H	-0.1276771606	 1.3682075297	 1.5190097164	 0.139207
H	-0.763195668	-2.9189370265	 0.4669342222	 0.12267
H	-3.58507731	-2.3928336373	 1.536962082	 0.109076
H	-3.2195243186	 0.4647207879	 1.0074021623	 0.102321
H	-1.7722939311	-1.75986492	-2.0540131783	 0.124071
62.4213	128.2924	145.3086	168.9197	337.0807	463.8105	567.7549	609.1547	650.3209	730.19	769.382	782.6512	859.4323	869.9081	873.7065	901.2966	916.8033	950.0742	981.5634	995.1427	1003.4808	1016.0852	1048.285	1095.8813	1116.2391	1146.8105	1213.9341	1250.0654	1300.2935	1318.0819	1375.7433	1415.7871	1462.1973	1474.2235	1766.7885	3032.3435	3091.9421	3153.2207	3180.4917	3195.6583	3208.3732	3236.0187
CC(=O)C12C3C4C1N4C23	CC(=O)[C@@]12[C@H]3[C@H]4[C@@H]1N4[C@@H]23	
InChI=1S/C7H7NO/c1-2(9)7-3-4-6(7)8(4)5(3)7/h3-6H,1H3	InChI=1S/C7H7NO/c1-2(9)7-3-4-6(7)8(4)5(3)7/h3-6H,1H3/t3-,4-,5+,6-,7-,8?/m0/s1
