17
gdb 128827	5.0214	0.82206	0.72473	2.8724	73.42	-0.2151	0.0138	0.2289	1539.723	0.135488	-455.127767	-455.118752	-455.117808	-455.162291	32.214	
C	-0.1220154453	 1.4349694521	-0.1350475098	-0.22094
O	-0.2504346553	 0.0335211742	-0.1837681958	-0.23513
C	 0.7251174993	-0.5701736851	-1.0068502306	-0.174695
C	 0.5433053959	-2.0548188242	-0.95538677	 0.402287
N	 0.6472699134	-2.7570303077	-2.0582570525	-0.230348
O	 0.4688529095	-4.0973466933	-1.6491913361	-0.215591
C	 0.2570662194	-4.1222162129	-0.326486773	 0.487507
N	 0.1139631596	-5.3683126935	 0.2348745854	-0.595223
C	 0.2909435541	-2.8564061432	 0.1882567277	-0.424252
H	 0.8572884526	 1.7421178311	 0.2659292007	 0.104545
H	-0.2425240481	 1.891319933	-1.1300056562	 0.108601
H	-0.9081990248	 1.8109766738	 0.5237732263	 0.128774
H	 0.6460872043	-0.2283723569	-2.0497500003	 0.115555
H	 1.7368242943	-0.3070633111	-0.6508298909	 0.10295
H	-0.1966763599	-6.0782246966	-0.4134886331	 0.26696
H	-0.3991531861	-5.3821897044	 1.1032309792	 0.265833
H	 0.1474362472	-2.5379457854	 1.205569209	 0.113167
54.1172	86.9395	110.4652	215.9454	237.4751	268.0335	318.583	349.0828	399.1506	451.3495	582.7301	642.3115	695.1967	720.2158	755.6245	805.9265	911.3412	989.918	1009.9712	1029.1978	1043.6121	1085.9967	1155.6935	1183.2401	1187.6261	1226.734	1251.208	1371.0207	1402.3923	1478.7045	1485.8082	1495.7309	1500.0712	1520.3928	1549.9663	1625.5437	1672.4665	2949.2939	2971.1651	3010.372	3016.025	3117.2107	3290.7847	3571.3862	3676.5289
COCC1=NOC(N)=C1	COCc1noc(N)c1	
InChI=1S/C5H8N2O2/c1-8-3-4-2-5(6)9-7-4/h2H,3,6H2,1H3	InChI=1S/C5H8N2O2/c1-8-3-4-2-5(6)9-7-4/h2H,3,6H2,1H3
