23
gdb 122646	3.5136	0.67701	0.60975	1.6082	82.52	-0.2535	0.073	0.3264	1866.0655	0.204666	-425.4078	-425.397301	-425.396357	-425.444106	38.051	
O	 0.0229432671	 1.3463127301	-0.1313650235	-0.422786
C	 0.0459835713	-0.0735913606	-0.1766268494	-0.074963
C	-1.3776888531	-0.5766751865	 0.0198835712	-0.172692
C	-1.4756880577	-2.1052456142	-0.0062940037	-0.183776
C	-2.9098694138	-2.605997618	 0.1781816535	-0.020484
C	-3.8055676835	-2.4989662249	-1.0956094993	-0.227099
C	-3.5293977658	-3.9997378448	-1.3881089459	-0.258162
C	-3.0706515433	-4.1485262217	 0.0870702497	 0.129802
O	-1.9007942624	-4.8788494024	 0.3783705759	-0.430934
H	 0.9225179007	 1.6646225458	-0.2490865564	 0.283466
H	 0.4376220586	-0.4344034113	-1.1422848628	 0.081347
H	 0.6978085964	-0.4865575482	 0.6108897912	 0.0834
H	-1.7523816372	-0.1916719287	 0.9766216534	 0.101815
H	-2.0095687943	-0.1353659808	-0.7605238584	 0.104195
H	-1.0659544769	-2.4877518766	-0.95028411	 0.092783
H	-0.8488737905	-2.5327567836	 0.7849933971	 0.10812
H	-3.3298989889	-2.1595185321	 1.0855239966	 0.064001
H	-4.8540701721	-2.3056716264	-0.8553032758	 0.100023
H	-3.4899177996	-1.7817054845	-1.8570176671	 0.100771
H	-4.3612230718	-4.6200144658	-1.7319545596	 0.08905
H	-2.682219766	-4.1341085004	-2.0662048385	 0.106702
H	-3.9074365375	-4.4817107025	 0.7188212879	 0.062803
H	-2.0913996196	-5.8148869216	 0.2627131639	 0.282617
62.2082	77.6411	101.3754	130.1189	151.6712	211.5981	231.3248	262.9556	289.1719	388.9655	416.8273	445.487	562.0693	656.9122	754.2984	762.0464	836.4965	878.7615	900.847	934.2375	955.1577	988.5248	1022.1967	1044.2686	1072.9326	1074.6343	1106.2234	1144.8054	1167.0851	1196.5657	1204.6078	1224.5864	1237.8751	1257.6608	1263.364	1274.4227	1299.2151	1312.5839	1321.1341	1334.686	1362.4654	1399.0631	1420.8645	1461.6508	1479.973	1482.5232	1499.8838	1501.7596	1528.7198	2956.7647	2981.6702	2983.1829	3020.4118	3029.1823	3044.4736	3054.6842	3057.6338	3065.1239	3079.0841	3102.6532	3119.8319	3819.3382	3829.5313
OCCCC1CCC1O	OCCC[C@H]1CC[C@H]1O	
InChI=1S/C7H14O2/c8-5-1-2-6-3-4-7(6)9/h6-9H,1-5H2	InChI=1S/C7H14O2/c8-5-1-2-6-3-4-7(6)9/h6-9H,1-5H2/t6-,7+/m0/s1
