19
gdb 15789	2.68829	1.63009	1.16127	3.6042	72.44	-0.2468	0.0326	0.2794	1079.5425	0.165	-365.081319	-365.072439	-365.071494	-365.115244	32.085	
C	 0.2156314621	 1.732687235	-0.258229473	-0.405647
C	-0.0386082614	 0.2389214716	-0.0385993192	 0.025542
N	-1.4737365019	 0.0031864955	 0.1385355022	-0.273788
C	-1.9794704707	-0.8735927706	 1.0424065044	 0.16071
O	-1.325229895	-1.54501656	 1.8151130507	-0.33258
C	 0.5441621306	-0.6098997023	-1.1545512893	 0.030789
C	 1.9681877035	-1.0978159021	-1.0519699075	-0.269324
C	 0.8231460771	-2.0705746836	-0.9154654696	-0.274813
H	 1.2870834579	 1.9230835448	-0.3617836062	 0.13048
H	-0.2714776161	 2.0833546483	-1.1766724838	 0.10989
H	-0.1660860309	 2.3249054881	 0.5781149911	 0.123143
H	 0.4171286724	-0.0772283604	 0.9048460613	 0.11409
H	-2.1185502661	 0.4736271854	-0.47758119	 0.241157
H	-3.0873271523	-0.9035428112	 1.0114059778	 0.073055
H	 0.1988245077	-0.3352684291	-2.1495565507	 0.070937
H	 2.5691245514	-1.1256505467	-1.9541012542	 0.109832
H	 2.5269318227	-0.8450328582	-0.1562934985	 0.113682
H	 0.5967043876	-2.4588229045	 0.0710994648	 0.145156
H	 0.6427886116	-2.7665167899	-1.7272523204	 0.107688
54.6159	83.1242	163.1065	196.8057	225.6803	233.5593	295.8554	379.3557	451.1424	493.0237	526.4614	740.1048	790.3007	831.8868	839.2305	891.99	945.5432	955.2402	999.7031	1030.1581	1060.9754	1084.5478	1099.5855	1132.2775	1140.0107	1197.5862	1206.9462	1220.2221	1227.4185	1320.1235	1349.0778	1407.1512	1428.5151	1430.9706	1473.5452	1491.6486	1494.8434	1505.9631	1524.7604	1795.4936	2929.4505	3028.3042	3070.9299	3099.9001	3121.7951	3124.0716	3129.7185	3139.7703	3210.0127	3230.0097	3624.2903
CC(NC=O)C1CC1	C[C@@H](NC=O)C1CC1	
InChI=1S/C6H11NO/c1-5(7-4-8)6-2-3-6/h4-6H,2-3H2,1H3,(H,7,8)	InChI=1S/C6H11NO/c1-5(7-4-8)6-2-3-6/h4-6H,2-3H2,1H3,(H,7,8)/t5-/m1/s1
