16
gdb 97025	2.3634	1.51867	0.99641	3.6717	78.79	-0.2356	-0.0132	0.2224	1176.5521	0.123245	-396.904636	-396.895616	-396.894672	-396.939051	32.045	
C	-0.0204672214	 1.4369604023	-0.0109290446	-0.343183
N	-0.0442880759	-0.0170265073	 0.0077222381	-0.300832
C	 0.5366705676	-0.6063280745	 0.9605742619	 0.406338
N	 1.2420472315	-0.0836855287	 2.0487759263	-0.357252
C	 1.7089848207	-1.133356429	 2.8255480189	 0.067472
N	 1.4403804531	-2.3104807999	 2.4157841077	-0.237687
C	 0.6538787287	-2.1316839645	 1.1674569824	-0.256935
C	-0.6389455722	-2.8001612772	 1.2382576157	 0.381999
C	-1.7061674689	-3.3462261	 1.298405718	-0.469388
H	 0.9997168392	 1.8457714262	 0.0660655405	 0.105032
H	-0.4505940972	 1.7959388599	-0.9486608713	 0.133634
H	-0.6155499718	 1.8653186679	 0.8098297972	 0.116515
H	 1.3157606812	 0.8920531278	 2.2779686692	 0.267694
H	 2.2797468145	-0.9198197116	 3.7239900905	 0.140153
H	 1.2321913256	-2.5544665802	 0.3352838797	 0.146047
H	-2.6498826346	-3.830545331	 1.3463148097	 0.200393
63.5428	77.4368	110.8313	177.263	224.1093	234.5549	331.3252	402.2969	439.4467	538.5689	571.448	627.5028	651.4796	674.7249	730.3696	870.7334	880.7587	928.8492	963.9406	1040.0951	1054.1414	1093.2415	1106.3314	1163.8171	1201.1001	1235.0622	1300.2311	1348.3427	1404.9255	1435.3819	1492.8195	1508.1404	1681.8359	1788.6972	2248.0216	2969.0245	3020.3939	3024.0998	3106.8659	3191.4409	3505.361	3679.7539
CN=C1NC=NC1C#C	CN=C1NC=N[C@H]1C#C	
InChI=1S/C6H7N3/c1-3-5-6(7-2)9-4-8-5/h1,4-5H,2H3,(H,7,8,9)	InChI=1S/C6H7N3/c1-3-5-6(7-2)9-4-8-5/h1,4-5H,2H3,(H,7,8,9)/t5-/m0/s1
