23
gdb 96556	2.16442	1.52696	1.16861	2.2062	81.28	-0.2509	0.075	0.3259	1193.7792	0.207451	-425.437149	-425.428113	-425.427169	-425.470476	35.667	
C	-0.1905592895	 1.5836773473	 0.2238935542	-0.398819
C	-0.0638404823	 0.0671349122	 0.1289567249	 0.089014
O	 0.4492323971	-0.2169648107	-1.1776384655	-0.271336
C	 0.1474132614	-1.4983699378	-1.7123419651	-0.068491
C	 0.7898409669	-2.6824520175	-0.9847577326	-0.206809
C	 0.2173209443	-2.9325353319	 0.4198081523	-0.201861
C	 0.7164532461	-1.9923312207	 1.5345417384	-0.220223
C	 0.9125505875	-0.4978037941	 1.1910811719	 0.139468
O	 2.245026972	-0.2340139452	 0.7692339894	-0.450036
H	 0.7998048053	 2.0451098418	 0.1776071327	 0.134855
H	-0.7965699533	 1.968736765	-0.5998808288	 0.117842
H	-0.6601078838	 1.8695864617	 1.169807295	 0.114448
H	-1.0545214405	-0.39772086	 0.241366905	 0.070138
H	-0.9462972614	-1.6356965125	-1.7379746399	 0.090525
H	 0.4995414501	-1.4595066792	-2.7482878254	 0.106805
H	 0.6124093642	-3.5688165771	-1.6074191708	 0.096415
H	 1.8767557193	-2.5427983216	-0.9413807218	 0.108925
H	-0.8779507815	-2.8806929526	 0.354172214	 0.093087
H	 0.4417593004	-3.9617192087	 0.7220026291	 0.097286
H	 0.0215418761	-2.0707018215	 2.3802102077	 0.08939
H	 1.6883185646	-2.3380393588	 1.9023348201	 0.111676
H	 0.7673179039	 0.0707793934	 2.1187055934	 0.073296
H	 2.2061649032	-0.1977999416	-0.1967691982	 0.284406
82.2788	133.9287	215.1409	229.4637	293.6959	307.7887	328.8845	359.0105	380.914	415.274	516.0055	531.525	582.7387	699.6672	758.9119	799.727	827.3088	858.483	926.8613	948.5549	971.7218	1006.6956	1031.7655	1058.0605	1085.0244	1118.3658	1125.9001	1150.2799	1160.7206	1219.1474	1238.4418	1266.1576	1301.3776	1320.5261	1323.9101	1371.3657	1372.0828	1379.4859	1392.3981	1405.0004	1408.7133	1415.2399	1449.6317	1472.6707	1480.9035	1487.5345	1491.8772	1499.8501	1503.3507	2971.8601	2996.073	3010.5153	3015.2197	3022.1222	3033.4285	3046.5545	3055.1981	3067.2964	3075.085	3080.0651	3120.4166	3128.9162	3733.2704
CC1OCCCCC1O	C[C@H]1OCCCC[C@H]1O	
InChI=1S/C7H14O2/c1-6-7(8)4-2-3-5-9-6/h6-8H,2-5H2,1H3	InChI=1S/C7H14O2/c1-6-7(8)4-2-3-5-9-6/h6-8H,2-5H2,1H3/t6-,7-/m1/s1
