19
gdb 58968	2.68825	1.41623	1.20573	1.0983	70.62	-0.2463	0.0516	0.298	1106.5119	0.157708	-460.113716	-460.104853	-460.103909	-460.147333	33.055	
C	-0.0204764987	 1.5408140454	 0.0596282398	-0.424836
C	 0.0330536847	 0.0157423532	 0.1331232053	 0.022393
O	 0.6960691899	-0.4575314477	 1.3000986733	-0.426332
C	-1.3502691958	-0.5958526665	 0.0234966096	 0.414223
C	-2.3717348072	-0.5194843426	 1.1773401275	-0.129052
O	-2.7013774251	-1.922126426	 1.0181722582	-0.290456
C	-1.7277627164	-2.090566802	-0.0267329902	-0.001348
C	-2.2813349586	-1.7734762964	-1.4230102142	-0.105582
O	-1.9676627244	-0.3616967492	-1.2627729868	-0.341946
H	 0.9892832473	 1.9583649311	 0.0919174969	 0.126496
H	-0.5096494223	 1.8606592686	-0.8642628401	 0.147762
H	-0.5904118926	 1.9531610388	 0.9024514908	 0.109872
H	 0.6244785654	-0.3630186594	-0.7088976746	 0.096482
H	 0.3892384027	 0.061488653	 2.0509100553	 0.283181
H	-1.9539792714	-0.3267083465	 2.1741342891	 0.08811
H	-3.2247118176	 0.1422946116	 0.9943795143	 0.112441
H	-1.0703172969	-2.9467014758	 0.1279631777	 0.097181
H	-1.7212961501	-2.2089656209	-2.2599760512	 0.106535
H	-3.3530487529	-1.9566184087	-1.5508546006	 0.114878
67.8345	127.7536	156.6992	231.1983	244.6387	269.1442	288.7587	370.5375	407.2516	469.5043	494.2245	648.1045	718.5555	833.2214	882.1033	900.4003	918.2432	970.7509	987.9123	1002.6006	1041.9292	1050.5547	1075.2611	1089.911	1110.7623	1143.6231	1166.1153	1173.316	1199.4877	1272.6234	1299.3306	1310.6741	1337.317	1366.55	1390.1044	1397.9477	1406.6882	1493.5753	1494.8908	1498.1625	1503.6451	3009.6618	3020.8263	3024.2242	3044.5118	3076.4759	3084.6749	3100.7432	3110.5919	3130.7106	3811.3501
CC(O)C12COC1CO2	C[C@@H](O)[C@]12CO[C@H]1CO2	
InChI=1S/C6H10O3/c1-4(7)6-3-8-5(6)2-9-6/h4-5,7H,2-3H2,1H3	InChI=1S/C6H10O3/c1-4(7)6-3-8-5(6)2-9-6/h4-5,7H,2-3H2,1H3/t4-,5+,6-/m1/s1
