17
gdb 71077	2.62493	1.53948	1.33174	2.6042	73.14	-0.2351	0.0058	0.2409	1025.1418	0.13473	-421.793808	-421.78572	-421.784776	-421.826073	31.364	
C	-0.1276064865	 1.4312455361	-0.0190724731	-0.505739
C	 0.0028885813	-0.0624703889	-0.0467979339	 0.278988
C	 0.9773481862	-0.906259841	-0.8804274583	-0.280327
C	 0.1009205471	-2.1342273023	-0.50365788	-0.264098
C	 0.3039992473	-2.2517942665	 1.0257996162	 0.440865
O	 0.6179631164	-3.1536666144	 1.752009516	-0.34363
C	-0.311776062	-0.9068611473	 1.2313563698	-0.328268
C	-1.0541803226	-1.1013406657	-0.1246063107	 0.345925
O	-2.380669654	-1.0063618185	-0.4223464844	-0.448359
H	 0.7443745881	 1.8965866274	 0.4524516621	 0.129069
H	-0.2139825533	 1.8270051067	-1.036738764	 0.128961
H	-1.0189382154	 1.7407098639	 0.5350237543	 0.131216
H	 0.9080525382	-0.6553111445	-1.9429570101	 0.109053
H	 2.0280357501	-0.9394184322	-0.5695229349	 0.104406
H	 0.0234188536	-3.0161208039	-1.1333755081	 0.09359
H	-0.6790186755	-0.4331134088	 2.1320690136	 0.107487
H	-2.865413409	-1.6828404502	 0.0655655855	 0.300861
117.1424	181.0957	190.2483	246.2226	274.2634	333.6535	374.5683	469.5774	493.627	528.7225	638.7179	651.9783	701.5023	758.6544	808.6514	855.9177	914.8722	925.4135	954.332	972.9866	999.3533	1072.9599	1118.8308	1127.0914	1136.6102	1159.894	1197.6893	1239.3337	1256.3669	1281.9483	1342.7208	1417.4769	1478.9891	1487.2883	1493.4398	1531.4694	1875.8722	3031.8645	3035.3164	3096.1371	3097.6417	3108.024	3165.7657	3213.778	3781.7807
CC12CC3C(=O)C1C23O	C[C@@]12C[C@H]3C(=O)[C@@H]1[C@@]23O	
InChI=1S/C7H8O2/c1-6-2-3-4(8)5(6)7(3,6)9/h3,5,9H,2H2,1H3	InChI=1S/C7H8O2/c1-6-2-3-4(8)5(6)7(3,6)9/h3,5,9H,2H2,1H3/t3-,5-,6+,7+/m0/s1
