15
gdb 44823	3.50439	1.19212	0.9857	1.2823	70.11	-0.2535	-0.0332	0.2203	1152.3427	0.112223	-416.790666	-416.782617	-416.781673	-416.824032	29.237	
O	-1.1179348304	 0.4833684409	-0.8754966408	-0.305471
C	-0.5521229575	 1.3770611165	-0.3183517094	 0.395238
C	-0.9370336151	 2.8353381984	 0.0629864033	-0.342472
C	 0.5638650903	 3.06723378	 0.2945403729	-0.101917
N	 0.9317120931	 2.1689219544	 1.397452065	-0.359149
C	 0.9089507845	 1.6292253795	-0.000717897	 0.200902
C	 2.0911520007	 0.9437459363	-0.6391706601	-0.460601
C	 3.334259445	 1.677505695	-0.4129295737	 0.256153
N	 4.2901562057	 2.2902027644	-0.1974063595	-0.304823
H	-1.3593649327	 3.3562295194	-0.8004158309	 0.138011
H	-1.573490226	 2.9695614284	 0.9393256926	 0.142787
H	 1.1480511492	 3.9442166475	 0.0500167432	 0.133752
H	 1.9166211476	 2.335484251	 1.6167443136	 0.253751
H	 2.1993079434	-0.071147371	-0.2371509668	 0.178474
H	 1.9208240923	 0.8365358492	-1.7164872424	 0.175365
54.3379	101.6042	141.922	226.3234	286.4618	383.392	426.3709	445.5792	549.669	579.8399	658.3251	686.0881	812.005	836.4408	894.3724	933.5618	956.0223	976.1214	1010.37	1024.8539	1054.9658	1107.618	1167.9016	1209.7581	1223.1936	1268.982	1321.1173	1358.1535	1410.6148	1446.5471	1462.8926	1890.7327	2362.0016	3040.4063	3074.8754	3076.8861	3138.2546	3216.8945	3444.7607
O=C1CC2NC12CC#N	O=C1C[C@H]2N[C@@]12CC#N	
InChI=1S/C6H6N2O/c7-2-1-6-4(8-6)3-5(6)9/h4,8H,1,3H2	InChI=1S/C6H6N2O/c7-2-1-6-4(8-6)3-5(6)9/h4,8H,1,3H2/t4-,6-/m1/s1
