20
gdb 100573	3.41402	0.89844	0.76643	3.7894	82.89	-0.2379	0.0282	0.2661	1531.1195	0.167634	-403.142046	-403.131105	-403.13016	-403.179754	37.942	
C	-0.0716325031	 1.6028771714	-0.0426391002	-0.38069
C	-0.0319343485	 0.0720098631	-0.0280930326	-0.149286
N	-1.3601008146	-0.5448575948	 0.0141530938	-0.095398
C	-2.069570259	-0.6703746694	-1.2470325381	-0.342185
C	-1.9183374861	-0.7540071	 1.2505509215	 0.435554
O	-1.321507502	-0.5063628567	 2.2807066649	-0.364674
C	-3.3460189559	-1.3423973825	 1.2643574877	-0.544476
C	-3.8715939887	-1.5255005251	 2.6074171881	 0.346576
C	-4.3441737019	-1.693068746	 3.6978999382	-0.422113
H	 0.9445311901	 2.0069136232	-0.090457819	 0.119167
H	-0.6249969512	 1.9872755885	-0.9058432156	 0.11205
H	-0.5449631303	 1.975143025	 0.8695711729	 0.144468
H	 0.4806503064	-0.3075507559	-0.9191461238	 0.096914
H	 0.5102003077	-0.2733506317	 0.8530232066	 0.143823
H	-2.8599055497	-1.4182101321	-1.1870359939	 0.141491
H	-2.5184768176	 0.2769390241	-1.5779791968	 0.128547
H	-1.3694809128	-0.9968040908	-2.0226088046	 0.131811
H	-4.0139790501	-0.6873817505	 0.6905134313	 0.149703
H	-3.3429696375	-2.3038808637	 0.7342324845	 0.153773
H	-4.742991015	-1.8329129963	 4.6717478352	 0.194944
24.881	48.5412	80.2328	114.86	134.498	163.6268	236.0316	294.4835	336.3985	369.8442	397.6707	421.0358	503.229	577.5518	619.3446	622.3688	645.2538	786.9305	799.4447	889.4695	955.673	989.6604	1023.4348	1091.7712	1105.1213	1141.4315	1159.1279	1228.0276	1261.6551	1300.0404	1342.8133	1393.8012	1410.6242	1425.409	1452.1495	1468.7805	1481.2159	1493.187	1498.9306	1504.1064	1525.6035	1766.7345	2252.6502	3003.3096	3019.0503	3039.6321	3043.268	3051.2468	3075.2662	3101.8717	3122.4164	3134.9514	3145.6183	3508.6228
CCN(C)C(=O)CC#C	CCN(C)C(=O)CC#C	
InChI=1S/C7H11NO/c1-4-6-7(9)8(3)5-2/h1H,5-6H2,2-3H3	InChI=1S/C7H11NO/c1-4-6-7(9)8(3)5-2/h1H,5-6H2,2-3H3
