15
gdb 10458	2.97944	1.53503	1.16565	3.4615	66.19	-0.2611	-0.0365	0.2247	1016.0809	0.11738	-362.672022	-362.663888	-362.662944	-362.705563	28.462	
O	-0.2658811478	 0.8769274859	 1.1395705892	-0.23329
C	 0.0277515397	 1.1355571587	 0.0021003051	 0.161004
C	 1.3922792894	 1.6526119474	-0.4223994418	-0.361464
C	 1.2980946862	 2.8931393092	-1.3089687337	 0.166745
C	 1.0573188141	 4.2474827022	-0.652880236	-0.284356
C	 2.4031116547	 3.9378854653	-1.2333886718	-0.297833
C	 0.6985139569	 2.6738026435	-2.6021209825	 0.239725
N	 0.2176357346	 2.4803962286	-3.6368111387	-0.342203
H	-0.7003360808	 1.0054749233	-0.8288278139	 0.104355
H	 1.9714278393	 1.8711782477	 0.4783836843	 0.130109
H	 1.904878444	 0.8505169906	-0.970757919	 0.143209
H	 0.4217633477	 4.9522028586	-1.1748127662	 0.147473
H	 0.9419458339	 4.2414351769	 0.4253155389	 0.142587
H	 3.2245359577	 3.7198223037	-0.5604929349	 0.135929
H	 2.6888977804	 4.4270895285	-2.1567045491	 0.148012
50.3189	71.5265	152.3856	210.1838	232.3748	324.8731	382.8915	472.0988	569.1237	587.2174	673.1411	783.5438	811.151	877.5389	939.7985	954.5041	963.4637	1055.9244	1071.5876	1081.3623	1100.5977	1194.3859	1199.3989	1276.3762	1306.4517	1342.6476	1428.3133	1455.2013	1470.458	1498.0855	1836.8652	2347.6896	2896.0467	3026.507	3108.094	3145.7195	3148.7944	3231.8706	3245.2049
O=CCC1(CC1)C#N	O=CCC1(CC1)C#N	
InChI=1S/C6H7NO/c7-5-6(1-2-6)3-4-8/h4H,1-3H2	InChI=1S/C6H7NO/c7-5-6(1-2-6)3-4-8/h4H,1-3H2
