20
gdb 83706	2.57148	1.66024	1.20735	2.9889	79.39	-0.253	0.0311	0.2841	1087.6437	0.172706	-403.168709	-403.160614	-403.15967	-403.201427	31.493	
C	-0.2640346023	 1.574962359	 0.0589158386	-0.399284
C	 0.0294290354	 0.0783142013	-0.0150897193	-0.089727
C	 0.8367770601	-0.4325487996	-1.2097498755	-0.035764
C	 2.1979990156	 0.2541531934	-1.5545742931	-0.242332
C	 2.9218403785	-1.1020300019	-1.3124721511	-0.232378
C	 1.6342674087	-1.6451976741	-0.6587046037	 0.091231
O	 1.6407754116	-1.4789993088	 0.7685193151	-0.25543
C	 0.8306176616	-0.4502772143	 1.1659958796	 0.399734
N	 0.7527911164	-0.0220524653	 2.3512798026	-0.540675
H	 0.6526621605	 2.1666609412	-0.0180004978	 0.121216
H	-0.9370999091	 1.8804794677	-0.7479031805	 0.108823
H	-0.7299247189	 1.812263911	 1.0178180826	 0.147818
H	-0.9273333678	-0.4637359314	 0.0006406871	 0.10356
H	 0.227785909	-0.6421555297	-2.0899350117	 0.077053
H	 2.2811132014	 0.6786060032	-2.5565273979	 0.105411
H	 2.4824679809	 1.0240017042	-0.8332560716	 0.116754
H	 3.1530401127	-1.6282067033	-2.2425278889	 0.106846
H	 3.8081761694	-1.0988812768	-0.6751205852	 0.114324
H	 1.323463028	-2.6685972133	-0.8825866946	 0.082607
H	 1.3774304182	-0.5464064025	 2.9661733352	 0.220214
88.3992	117.2869	185.321	218.5586	261.3009	359.3306	450.5626	464.4632	573.6892	622.6708	692.6279	741.6763	758.4616	786.3641	870.9713	888.0117	896.1121	930.9267	951.5374	963.7879	1022.3573	1034.1225	1047.2512	1097.4439	1115.3004	1146.8817	1161.5861	1204.6675	1225.5508	1250.1102	1266.2738	1277.9422	1293.9912	1301.7707	1341.359	1354.7479	1384.802	1410.1572	1468.1531	1489.0335	1495.2477	1499.1374	1769.9651	3003.246	3045.0575	3063.5941	3071.7561	3077.9549	3100.714	3111.8741	3117.745	3131.9895	3132.7807	3472.7273
CC1C2CCC2OC1=N	C[C@H]1[C@H]2CC[C@H]2O[C]1[NH]	
InChI=1S/C7H11NO/c1-4-5-2-3-6(5)9-7(4)8/h4-6,8H,2-3H2,1H3	InChI=1S/C7H11NO/c1-4-5-2-3-6(5)9-7(4)8/h4-6,8H,2-3H2,1H3/t4-,5+,6+/m0/s1
