22
gdb 102661	2.40454	1.01958	0.81628	2.2486	79.88	-0.2316	0.0837	0.3153	1489.6365	0.192508	-441.431288	-441.420894	-441.41995	-441.46761	37.024	
C	 0.4809792872	 1.0445380111	-0.2998129386	-0.23549
O	-0.2349502405	 0.1055891022	 0.4809745841	-0.270564
C	 0.5416162215	-0.748304542	 1.3123488072	 0.081209
C	-0.3979035393	-1.1248287279	 2.4626065914	-0.066671
O	-1.5787965289	-1.7397510559	 1.9830214974	-0.424639
C	 1.0412481993	-1.991141149	 0.5643363851	-0.128792
N	 2.0525999082	-1.6666226236	-0.4363838976	-0.061351
C	 3.4423535197	-1.7085706748	 0.0103856081	-0.224371
C	 2.8952362717	-2.7694924456	-0.8797938605	-0.220909
H	 1.1224421176	 0.5525284382	-1.0372601368	 0.137028
H	-0.2635491469	 1.6626433207	-0.8090277668	 0.118694
H	 1.1018934021	 1.6964891884	 0.3343318049	 0.098026
H	 1.4033852818	-0.1955361582	 1.721780162	 0.063662
H	 0.0850255147	-1.8394414891	 3.1372681274	 0.10177
H	-0.6255806424	-0.2139086938	 3.0370413748	 0.089541
H	-1.9203292635	-1.1439222265	 1.304831556	 0.293015
H	 1.4226289325	-2.7186742527	 1.3053110424	 0.074859
H	 0.1877797658	-2.4551233541	 0.0616531728	 0.118612
H	 4.0950112678	-0.9357819709	-0.3853331489	 0.117206
H	 3.6359444384	-1.9829901048	 1.0466849008	 0.108951
H	 2.7242534484	-3.7490642034	-0.4355841572	 0.111576
H	 3.1396050146	-2.7856531283	-1.937999428	 0.118637
58.1789	76.3213	97.54	108.2217	149.3441	185.1	234.5839	300.9365	354.0286	372.8207	407.7754	478.5569	505.2199	652.036	778.9204	829.1339	871.9345	901.6726	906.4876	940.2153	1028.8814	1040.3561	1066.2302	1098.0982	1114.1749	1117.7785	1123.2574	1151.822	1173.5612	1184.8731	1187.0479	1207.0538	1250.1615	1275.6405	1306.8922	1321.592	1375.3826	1380.995	1413.5518	1433.9238	1476.9875	1479.9835	1481.0032	1491.8274	1499.4919	1520.4239	1521.6554	2924.3333	2969.0876	2983.8894	2991.3719	3074.6797	3075.9601	3089.3045	3091.276	3097.084	3117.3244	3176.4492	3190.6552	3788.3187
COC(CO)CN1CC1	CO[C@@H](CO)CN1CC1	
InChI=1S/C6H13NO2/c1-9-6(5-8)4-7-2-3-7/h6,8H,2-5H2,1H3	InChI=1S/C6H13NO2/c1-9-6(5-8)4-7-2-3-7/h6,8H,2-5H2,1H3/t6-/m1/s1
