15
gdb 49169	3.69353	1.38496	1.26679	3.4015	71.58	-0.2393	-0.072	0.1673	995.183	0.113415	-420.607568	-420.600837	-420.599893	-420.638915	26.458	
O	-0.0209470685	-0.0199801214	 0.082986269	-0.275841
C	 0.0043332457	 1.1897571978	-0.0079966288	 0.048393
C	 1.2291209825	 1.9733061598	-0.0524175496	 0.292115
C	 1.3927196252	 3.3018938239	-0.0252833859	-0.189611
C	 2.9258024315	 3.5112745028	-0.0046290534	-0.032735
O	 3.3310579215	 2.4116168975	-0.8310996117	-0.231458
C	 2.671946831	 1.4032556634	-0.0452014988	-0.106376
C	 3.2696365214	 1.7046270386	 1.3498767313	-0.072074
C	 3.4235768738	 3.0244167861	 1.3807960531	-0.082779
H	-0.9334476985	 1.7844740441	-0.0625202964	 0.074236
H	 0.6431876351	 4.0796581842	 0.0312567235	 0.13268
H	 3.3059902766	 4.4607473622	-0.3764795013	 0.093544
H	 2.8051798007	 0.4066378164	-0.4571083463	 0.105665
H	 3.4472382889	 0.968241024	 2.119576423	 0.12531
H	 3.757605053	 3.6667211406	 2.1821515424	 0.118932
93.8547	169.8473	236.6128	424.88	448.8674	520.1251	560.1517	656.8857	675.9594	732.2261	767.9881	823.294	834.0563	876.3123	887.3203	900.7333	910.0444	921.6496	973.7098	1035.7405	1042.062	1100.1306	1188.8938	1207.0257	1218.6218	1249.8794	1286.1335	1310.0734	1320.6281	1412.7493	1628.1006	1666.6542	1769.4352	2892.4998	3144.8453	3169.5355	3231.3294	3234.1987	3260.2635
O=CC1=CC2OC1C=C2	O=CC1=C[C@@H]2O[C@H]1C=C2	
InChI=1S/C7H6O2/c8-4-5-3-6-1-2-7(5)9-6/h1-4,6-7H	InChI=1S/C7H6O2/c8-4-5-3-6-1-2-7(5)9-6/h1-4,6-7H/t6-,7+/m1/s1
