20
gdb 119933	2.1213	1.22995	0.99199	4.0144	80.76	-0.2566	0.0311	0.2876	1325.6866	0.16909	-403.150016	-403.139925	-403.138981	-403.185673	35.772	
C	 0.1859265836	 1.4712953405	-0.1015500291	-0.3889
C	 0.4919304292	-0.01369532	-0.0485647104	-0.045761
O	 0.2191127054	-0.5694152731	-1.3363279774	-0.238037
C	 0.4676265524	-1.9200644796	-1.4269748475	 0.118974
C	 0.7474396744	-2.4721947752	-2.7826537658	-0.074575
C	 0.742838418	-1.5841840673	-4.0056701151	-0.406727
C	 1.8921805056	-2.4052357682	-1.7582673671	-0.252584
C	 2.9368935801	-1.439121823	-1.9184178674	 0.310179
N	 3.7871753513	-0.6620688439	-2.0362712276	-0.356491
H	 0.8204488384	 1.9642712544	-0.8428133475	 0.140102
H	-0.8601425043	 1.64114721	-0.3715612906	 0.127004
H	 0.3724430539	 1.928946565	 0.8742831129	 0.120273
H	 1.5439549225	-0.1883213173	 0.2139077543	 0.115459
H	-0.1318285799	-0.5189318746	 0.7056071958	 0.09154
H	-0.0759501153	-2.5394304879	-0.7111327499	 0.097634
H	 0.3885990036	-3.4837570448	-2.9503819557	 0.104289
H	 1.083884018	-0.5764378659	-3.7653973474	 0.154393
H	 1.3928108863	-1.9946889724	-4.7840589049	 0.127772
H	-0.2708885223	-1.5096856144	-4.4115412785	 0.125766
H	 2.2160888692	-3.3397076921	-1.3122694711	 0.129692
51.2765	97.9389	115.5123	135.304	163.4966	180.5391	253.1015	268.141	341.113	378.6363	446.0532	540.1964	623.7923	675.4006	726.714	798.5015	822.8358	870.617	913.033	953.13	1007.0543	1024.6633	1075.8274	1097.477	1136.537	1144.6916	1151.4594	1186.8222	1200.3752	1261.357	1299.105	1355.3919	1365.053	1399.3499	1413.6194	1422.3701	1458.0139	1484.2856	1490.8959	1499.1048	1502.1067	1524.0498	2345.7251	2981.5163	3035.6674	3047.8127	3048.1478	3084.6401	3108.8749	3122.7603	3128.0958	3140.6065	3155.6208	3167.5744
CCOC1C(C)C1C#N	CCO[C@H]1[C@@H](C)[C@H]1C#N	
InChI=1S/C7H11NO/c1-3-9-7-5(2)6(7)4-8/h5-7H,3H2,1-2H3	InChI=1S/C7H11NO/c1-3-9-7-5(2)6(7)4-8/h5-7H,3H2,1-2H3/t5-,6+,7-/m0/s1
