19
gdb 70628	2.39943	1.88708	1.34492	1.5518	75.3	-0.2303	0.0699	0.3003	1006.0992	0.159286	-422.997213	-422.989329	-422.988384	-423.029098	32.009	
O	-0.4139602739	 1.2538439807	 0.0606407608	-0.46245
C	-0.099953832	-0.0990631144	 0.0565566598	 0.326231
C	-0.4317561199	-0.9023671875	 1.2741527481	-0.324542
C	 1.0191454336	-0.7288981688	 0.8630931888	-0.14333
C	 1.6038827671	-1.8045592719	-0.0276748044	-0.107318
O	 0.6180433493	-2.0441242417	-1.0416925487	-0.299802
C	-0.1063325108	-0.8551285682	-1.2491537548	 0.398268
C	-1.2494485711	-0.9212338554	-2.2006852476	-0.330533
C	 0.0049135115	-0.1446487202	-2.5760543367	-0.352289
H	 0.2732383932	 1.7191568219	-0.4296856354	 0.28467
H	-0.7507498528	-0.3311747999	 2.1384044645	 0.1205
H	-0.9052913992	-1.8714093482	 1.1523992088	 0.124525
H	 1.674020771	-0.125727973	 1.4805139994	 0.093032
H	 2.550787068	-1.4606682916	-0.4725466847	 0.093012
H	 1.7834271135	-2.7632309131	 0.4698348211	 0.109832
H	-1.4225367697	-1.8672506554	-2.7010711577	 0.123341
H	-2.1428132347	-0.3565509886	-1.9569414223	 0.124317
H	-0.0627824284	 0.9378413296	-2.6124487517	 0.102011
H	 0.6659939453	-0.5901981444	-3.3107371073	 0.120524
113.259	218.7291	226.0443	262.9806	337.0542	369.3247	406.5981	437.0946	478.8146	574.765	624.4471	692.2138	767.708	806.7477	844.9197	883.1738	886.3452	924.0173	952.0421	967.2892	988.5071	1007.929	1046.5835	1058.606	1076.4924	1086.5777	1087.2039	1111.475	1179.3631	1192.309	1231.2063	1253.7911	1284.8106	1315.6498	1380.6614	1397.4199	1409.7416	1441.6714	1478.5322	1498.5783	1516.9181	2981.7253	3068.4738	3128.212	3132.2078	3135.8987	3186.2455	3216.2189	3227.3295	3231.1446	3793.6353
OC12CC1COC21CC1	O[C@]12C[C@H]1COC12CC1	
InChI=1S/C7H10O2/c8-7-3-5(7)4-9-6(7)1-2-6/h5,8H,1-4H2	InChI=1S/C7H10O2/c8-7-3-5(7)4-9-6(7)1-2-6/h5,8H,1-4H2/t5-,7+/m0/s1
