14
gdb 93489	3.14399	1.40985	1.00364	1.3121	59.36	-0.2892	-0.037	0.2522	1081.5246	0.102242	-511.038344	-511.030813	-511.029869	-511.070633	27.982	
O	 0.0795463868	 1.3566524239	 0.2511415248	-0.429024
C	 0.0190356409	-0.0218496412	 0.0339753524	 0.012289
C	-1.4265730498	-0.4976325743	-0.0571303534	-0.10874
O	-1.4672754715	-1.9110139092	-0.3209154792	-0.236369
C	-0.7135531177	-2.4234269175	-1.3122075949	 0.493702
O	-0.8831506617	-3.5287101037	-1.7387521026	-0.353864
N	 0.2928005771	-1.5798641061	-1.8113641218	-0.413526
C	 0.7145812547	-0.3869755042	-1.2696686812	 0.404152
O	 1.5557861513	 0.3218461284	-1.7763878765	-0.358408
H	 0.794397055	 1.682023637	-0.318103309	 0.303476
H	 0.5209572577	-0.5847737023	 0.8407421673	 0.117372
H	-1.9550731368	-0.3576323212	 0.8856576527	 0.150069
H	-1.9560893885	 0.0475740831	-0.8469948267	 0.136205
H	 0.7835470224	-1.9324266927	-2.622890942	 0.282668
97.3848	136.214	218.1306	289.7931	369.7399	384.4561	431.0225	439.7863	500.7075	603.2478	676.5159	716.2213	761.6568	771.4667	798.0467	914.4572	1044.0925	1080.2589	1104.6995	1165.0114	1210.0356	1235.3254	1292.4787	1317.8486	1374.3218	1408.3177	1424.8142	1449.5194	1512.3194	1816.2787	1875.6724	2956.2408	3051.1942	3141.9922	3602.5895	3707.0962
OC1COC(=O)NC1=O	O[C@H]1COC(=O)NC1=O	
InChI=1S/C4H5NO4/c6-2-1-9-4(8)5-3(2)7/h2,6H,1H2,(H,5,7,8)	InChI=1S/C4H5NO4/c6-2-1-9-4(8)5-3(2)7/h2,6H,1H2,(H,5,7,8)/t2-/m0/s1
