19
gdb 87316	2.10726	1.29317	0.93432	2.6571	82.64	-0.2484	-0.0235	0.2249	1307.8203	0.155702	-385.860097	-385.850135	-385.84919	-385.89531	36.113	
C	 0.0149696883	 1.3878023736	-0.1453166879	-0.419552
C	 0.2186996912	-0.1029355787	 0.0022889053	-0.032386
C	 1.5748190621	-0.7192537056	 0.061285742	-0.306644
C	 0.7010325414	-0.7479703256	 1.310473592	 0.233634
C	 1.0749279155	 0.094184207	 2.527388226	-0.472526
C	 2.1141139838	-0.5278861919	 3.3445741174	 0.307023
C	 2.9658605786	-1.0613738259	 4.0036513701	-0.4384
C	 0.0728229949	-2.0631062547	 1.6201881682	 0.10404
O	-0.2576976121	-2.8750642215	 0.7879923078	-0.275429
H	 0.8297008494	 1.9670090457	 0.2985084514	 0.119776
H	-0.0259670083	 1.6523637765	-1.2074296992	 0.129286
H	-0.9241105248	 1.715828554	 0.3130835886	 0.124727
H	-0.5315375382	-0.7145231771	-0.4919705905	 0.115544
H	 1.7325255787	-1.6714391172	-0.4324064401	 0.137694
H	 2.437539173	-0.0613778682	 0.0981000696	 0.119297
H	 1.412492626	 1.0851249404	 2.2087946379	 0.135696
H	 0.1829562504	 0.2669507953	 3.1452255442	 0.135582
H	 3.7200162697	-1.5257481729	 4.5894571519	 0.200325
H	-0.0877123096	-2.2591083932	 2.7033308354	 0.082313
49.959	97.5708	117.7211	174.9288	205.6066	215.3827	261.7031	322.6911	334.7599	391.4499	421.518	510.0074	627.0067	636.2398	655.3659	741.894	763.2946	885.6742	888.2659	922.4976	958.1913	963.0911	1022.1853	1059.952	1080.2322	1100.9492	1135.5419	1191.8285	1205.4296	1283.6112	1305.8468	1341.6373	1401.6398	1425.211	1436.4982	1463.1009	1476.9447	1492.6488	1502.9046	1805.8964	2238.3973	2888.7773	3017.5383	3034.1013	3076.0465	3094.3221	3107.0343	3129.8365	3151.4043	3225.458	3505.5908
CC1CC1(CC#C)C=O	C[C@H]1C[C@]1(CC#C)C=O	
InChI=1S/C8H10O/c1-3-4-8(6-9)5-7(8)2/h1,6-7H,4-5H2,2H3	InChI=1S/C8H10O/c1-3-4-8(6-9)5-7(8)2/h1,6-7H,4-5H2,2H3/t7-,8+/m0/s1
