17
gdb 5252	6.73402	1.04443	0.96049	1.1964	69.87	-0.2386	0.0071	0.2456	1224.0002	0.143294	-363.903602	-363.895877	-363.894933	-363.936431	27.766	
C	-0.056914078	 1.5612831159	 0.0492031911	-0.382052
C	-0.1332554056	 0.0384313571	-0.0769630203	-0.15541
C	 0.774348958	-0.5112566655	-1.192091226	-0.301734
C	 0.7524039174	-2.0022540733	-1.2813206256	 0.259686
C	 0.313774301	-2.8121780399	-2.2756815478	-0.121124
O	 0.4914308309	-4.1141936322	-1.8878545696	-0.139564
C	 1.036998663	-4.0161537744	-0.656540835	 0.075198
N	 1.2178766737	-2.8082749349	-0.2381353756	-0.300652
H	 0.9636402414	 1.8889885392	 0.2766252908	 0.115953
H	-0.3624609204	 2.0549716513	-0.8804114739	 0.111471
H	-0.709067542	 1.9260628314	 0.8486713373	 0.11335
H	 0.1535110094	-0.4334094159	 0.8691622969	 0.121315
H	-1.1674283217	-0.2696563372	-0.2744659994	 0.095931
H	 0.4776007009	-0.0869144015	-2.158561453	 0.099597
H	 1.8048423202	-0.1813748561	-1.0065759657	 0.11531
H	-0.1164481369	-2.6560727527	-3.2497510559	 0.143722
H	 1.2667717587	-4.9421767913	-0.1528909683	 0.149005
65.9512	94.0649	122.3928	245.4681	308.7178	330.8191	382.2859	639.3162	678.9863	742.2209	748.0337	780.9795	847.5139	875.9372	899.2594	936.1505	987.3608	1045.6608	1089.8293	1099.2564	1113.6276	1136.7108	1239.1061	1253.2927	1286.0851	1312.7085	1324.9506	1353.035	1387.3439	1413.2284	1477.8822	1494.18	1499.7285	1510.2626	1559.3028	1631.057	3020.1086	3028.1734	3034.8869	3057.1692	3076.0378	3099.139	3103.3394	3273.4795	3293.618
CCCC1=COC=N1	CCCc1cocn1	
InChI=1S/C6H9NO/c1-2-3-6-4-8-5-7-6/h4-5H,2-3H2,1H3	InChI=1S/C6H9NO/c1-2-3-6-4-8-5-7-6/h4-5H,2-3H2,1H3
