21
gdb 116279	2.00717	1.44892	0.97298	3.3547	79.3	-0.2395	-0.0139	0.2256	1281.3913	0.18205	-424.240488	-424.230901	-424.229956	-424.276465	34.115	
C	 0.394747974	 1.0991616362	 0.4486739709	-0.237682
O	 0.2608049015	-0.2581706164	 0.0918258338	-0.256888
C	 0.4908622176	-0.5298393221	-1.2856819641	 0.110147
C	 1.9885640842	-0.6259268377	-1.6121313323	-0.2305
C	 2.4066198124	-1.9709373096	-0.9903835612	-0.195932
C	 1.1621564734	-2.8898139162	-1.1387227442	-0.233727
C	-0.0136656992	-1.966199285	-1.5666751357	-0.083342
C	-1.3151325665	-2.2745421211	-0.8552765799	 0.158486
O	-2.3828588867	-2.3744682488	-1.4041904759	-0.26491
H	 1.4202771601	 1.4723883677	 0.3143391343	 0.108611
H	-0.2839293271	 1.7378033618	-0.1370583851	 0.110785
H	 0.1316699428	 1.1805643496	 1.5060396649	 0.131126
H	-0.0386645869	 0.2125526018	-1.8997889911	 0.071027
H	 2.1114760971	-0.6416698138	-2.7016726937	 0.102124
H	 2.5610561584	 0.2252767691	-1.233342493	 0.100676
H	 3.2954477961	-2.3929176776	-1.4658584747	 0.098747
H	 2.6411917862	-1.8276894951	 0.0675848115	 0.112922
H	 1.317062414	-3.6724242267	-1.8856626371	 0.110108
H	 0.9366564004	-3.3975197512	-0.1952251975	 0.108419
H	-0.2064672626	-2.0483279179	-2.6398775973	 0.093696
H	-1.2154603493	-2.4139842171	 0.2423435575	 0.086107
29.9018	61.466	95.5771	145.9602	188.3208	215.398	309.7738	325.2467	405.6454	456.4806	475.8622	638.3159	729.2331	817.9076	832.0302	869.257	901.5597	925.2346	966.0426	1009.1852	1015.4252	1036.3608	1086.8859	1113.3066	1148.2723	1178.5909	1181.8521	1204.3174	1218.2026	1249.1818	1280.1259	1296.2928	1311.4006	1330.1578	1338.5495	1360.0132	1386.2286	1426.5018	1476.2744	1480.8182	1486.1016	1494.8604	1507.2198	1510.1905	1827.337	2904.2859	2981.5761	3003.5052	3031.7114	3042.82	3049.7341	3065.705	3073.2867	3089.4072	3095.9247	3114.3421	3115.74
COC1CCCC1C=O	CO[C@H]1CCC[C@H]1C=O	
InChI=1S/C7H12O2/c1-9-7-4-2-3-6(7)5-8/h5-7H,2-4H2,1H3	InChI=1S/C7H12O2/c1-9-7-4-2-3-6(7)5-8/h5-7H,2-4H2,1H3/t6-,7-/m0/s1
