22
gdb 17622	3.11998	1.42558	1.05535	1.7598	77.84	-0.2614	0.0825	0.3439	1181.2234	0.198178	-350.192745	-350.183091	-350.182147	-350.227049	35.533	
C	-0.1963997366	 1.517335897	-0.0640809104	-0.398536
C	-0.0307652303	-0.0094757028	-0.0851945625	 0.040937
C	-1.3859388871	-0.6756210217	-0.3718126009	-0.3936
C	 1.0641104428	-0.4655333547	-1.0817674328	 0.011935
C	 2.4370858805	 0.170793892	-0.8063022355	-0.412026
C	 1.2204093084	-1.9753665536	-1.0727294529	 0.094468
C	 0.6448878659	-2.8569583275	-2.0958079329	-0.181961
O	 2.0360074647	-2.5353936868	-2.1066754149	-0.246684
H	 0.7121881061	 2.0307789155	 0.2599045529	 0.117054
H	-0.4602087476	 1.8961715331	-1.0590840102	 0.111879
H	-0.9996713454	 1.8061592568	 0.6215763455	 0.110176
H	 0.2926356888	-0.3242598767	 0.9188909234	 0.070111
H	-1.7451790497	-0.4151083093	-1.3748423145	 0.110651
H	-1.3326860651	-1.7657418017	-0.3102369039	 0.115624
H	-2.1411255913	-0.3381717565	 0.3454474805	 0.110097
H	 0.7492282083	-0.1763240101	-2.0948449829	 0.070189
H	 3.1861360435	-0.256267484	-1.4783346058	 0.134749
H	 2.424274648	 1.2524395008	-0.9592763871	 0.115646
H	 2.7592426269	-0.0198936373	 0.2246384927	 0.109479
H	 1.412197862	-2.4093555353	-0.0873614927	 0.086727
H	 0.4042028999	-3.8921243897	-1.8553788008	 0.111544
H	 0.0594681274	-2.4233349676	-2.9058329243	 0.11154
57.8436	91.4046	170.8887	210.9582	214.2984	230.4268	273.988	302.3833	355.7042	375.6083	439.6343	471.278	517.4407	790.3143	820.7532	868.5983	917.6905	929.5479	956.9236	964.9489	968.007	998.556	1057.9242	1099.3178	1139.4943	1156.2398	1173.8887	1184.8135	1194.7435	1199.7017	1276.4983	1293.167	1324.2717	1350.4592	1372.2836	1400.0319	1404.3233	1423.1934	1445.4365	1487.4682	1490.6619	1497.5287	1503.7406	1507.1396	1518.328	1529.252	2984.2853	3005.3239	3026.8386	3031.4629	3032.6104	3069.9855	3078.844	3089.1778	3095.3819	3103.4943	3112.2897	3114.6303	3125.9079	3162.8923
CC(C)C(C)C1CO1	CC(C)[C@@H](C)[C@H]1CO1	
InChI=1S/C7H14O/c1-5(2)6(3)7-4-8-7/h5-7H,4H2,1-3H3	InChI=1S/C7H14O/c1-5(2)6(3)7-4-8-7/h5-7H,4H2,1-3H3/t6-,7-/m1/s1
