13
gdb 131042	4.58987	1.16356	0.92824	5.3322	70.65	-0.2381	-0.0787	0.1594	1150.2168	0.090603	-448.948743	-448.941413	-448.940469	-448.982247	25.797	
O	 1.9075074386	 4.1945830124	 0.1446294586	-0.246762
C	 1.0734355267	 3.3340218869	 0.1279476549	 0.158816
N	 1.2824754316	 1.9641384371	 0.0052205237	-0.395699
C	 2.4669689993	 1.2459421727	-0.1269963894	 0.445429
C	 2.4022303595	-0.1582199487	-0.234736865	-0.055766
N	 3.4974319383	-0.8752555165	-0.3611987324	-0.222593
C	 4.6373742147	-0.1652012241	-0.3768453035	 0.096684
N	 4.7438212332	 1.1534745556	-0.2787133667	-0.161915
N	 3.6363641464	 1.8815436988	-0.1505925984	-0.229478
H	-0.0148296618	 3.5303805998	 0.2118943493	 0.088409
H	 0.4410084438	 1.405866954	 0.0138015497	 0.258972
H	 1.4472484853	-0.6837505711	-0.2162335121	 0.122169
H	 5.5678824544	-0.7135858371	-0.4793720188	 0.141735
18.268	152.0341	166.2904	261.8694	336.2268	395.4887	546.8568	554.9862	583.2438	639.8708	790.4558	817.0797	875.1305	926.8478	983.9373	1019.7228	1047.598	1079.8357	1124.6803	1187.0783	1230.6086	1310.3429	1416.0184	1432.5698	1458.4201	1510.1452	1588.0778	1608.8349	1850.4644	2927.6597	3124.3017	3198.4098	3606.7827
O=CNC1=CN=CN=N1	O=CNc1cncnn1	
InChI=1S/C4H4N4O/c9-3-6-4-1-5-2-7-8-4/h1-3H,(H,6,8,9)	InChI=1S/C4H4N4O/c9-3-6-4-1-5-2-7-8-4/h1-3H,(H,6,8,9)
