19
gdb 89138	2.09474	1.69519	1.15149	1.7435	82.8	-0.2272	0.0478	0.275	1142.8937	0.156548	-385.824238	-385.815066	-385.814122	-385.857549	35.054	
C	-0.2695241943	 1.4787437653	-0.0527001566	-0.42239
C	 0.0590848854	 0.0068980389	 0.0722986525	 0.139887
O	 1.150925067	-0.4492355711	-0.7880340077	-0.334699
C	 1.7343964272	-1.1645270567	 0.301254888	 0.451165
C	 2.286584784	-2.5239640304	 0.0216325362	-0.489009
C	 2.2364999128	-0.2056647706	 1.3612000364	-0.287838
C	 2.8141653358	 1.0809518578	 1.0972941403	 0.322339
C	 3.360751996	 2.135777864	 0.9061309211	-0.42508
C	 0.7522660036	-0.5890068082	 1.2967804804	-0.228242
H	 0.5848584661	 2.1045462126	 0.204690826	 0.147855
H	-0.5751256148	 1.7046422349	-1.0796096549	 0.12442
H	-1.1060581132	 1.7263916177	 0.6099351	 0.114688
H	-0.8282434837	-0.5970778685	-0.1628386843	 0.084591
H	 3.1268088423	-2.4557585281	-0.6781341406	 0.140082
H	 2.6477007499	-2.9922507752	 0.9415054971	 0.124809
H	 1.5237504621	-3.1686769266	-0.4259677302	 0.130526
H	 2.7199644579	-0.7375679606	 2.1794396581	 0.115151
H	 3.8295329536	 3.0707270618	 0.7235353	 0.192158
H	 0.2574450322	-1.039321347	 2.1476645482	 0.099587
126.466	140.393	176.7172	197.0062	215.2506	227.8875	311.8174	362.2987	394.0459	456.8113	565.2227	584.3453	618.3318	648.6657	677.7945	732.3192	792.996	858.2162	880.9341	926.714	939.985	981.3649	1027.4644	1053.3097	1087.7608	1107.0696	1122.608	1156.1597	1205.4502	1258.9517	1311.0654	1325.8874	1388.6687	1407.1701	1412.9159	1466.8283	1476.166	1486.1519	1497.5899	1500.8863	2231.0425	3004.6859	3035.4876	3041.7842	3100.5169	3102.4035	3116.766	3121.6801	3158.1868	3193.3233	3502.9044
CC1OC2(C)C(C#C)C12	C[C@H]1O[C@@]2(C)[C@@H](C#C)[C@@H]12	
InChI=1S/C8H10O/c1-4-6-7-5(2)9-8(6,7)3/h1,5-7H,2-3H3	InChI=1S/C8H10O/c1-4-6-7-5(2)9-8(6,7)3/h1,5-7H,2-3H3/t5-,6+,7-,8+/m1/s1
