17
gdb 18255	4.10651	1.75954	1.39749	2.4454	68.51	-0.2276	0.0036	0.2312	894.9391	0.143706	-363.830569	-363.823552	-363.822607	-363.861731	27.393	
O	 0.8329946373	-0.6340212782	-1.0785494963	-0.423562
C	 0.1723841097	-0.0686263764	 0.0367289987	-0.055739
C	-1.3132746474	-0.4320115428	 0.0465411357	-0.023467
C	-2.1402074487	 0.0811402698	 1.2061562869	-0.110802
C	-3.2383578064	 0.6950888481	 0.7653232645	-0.082728
C	-3.2354072144	 0.746772045	-0.7257616971	-0.065133
C	-2.1097237722	 1.5308061635	-1.3085657863	-0.24541
N	-2.0002380917	 0.0662916861	-1.1797809492	-0.125892
H	 0.2761676951	-0.4585008661	-1.8460987757	 0.294291
H	 0.6567447472	-0.4756706779	 0.93111799	 0.106684
H	 0.2943971766	 1.0259441226	 0.0679650418	 0.084585
H	-1.3597785113	-1.5304742939	 0.0055264595	 0.100113
H	-1.8569078003	-0.0554800825	 2.2433474871	 0.103861
H	-4.0246508208	 1.1255251009	 1.3730592293	 0.107395
H	-4.1487062262	 0.5740697772	-1.2887569878	 0.098133
H	-2.1534343535	 1.87422095	-2.3386148958	 0.117846
H	-1.5595682131	 2.1748066246	-0.6279651552	 0.119825
104.9463	157.6829	242.8639	349.5592	386.5719	421.5791	469.8574	569.0106	706.1577	723.9935	753.6376	793.0969	857.368	871.7658	939.6346	962.6923	1010.5806	1032.0084	1054.2958	1079.0093	1087.6421	1105.5035	1112.391	1134.0268	1162.2748	1218.2734	1259.9367	1287.9659	1325.6854	1347.0203	1368.9452	1385.6211	1435.1835	1491.4895	1509.1668	1665.3485	2974.8955	2994.862	3067.4563	3106.6591	3144.5943	3195.0996	3196.8909	3220.9982	3795.5705
OCC1C=CC2CN12	OC[C@H]1C=C[C@H]2CN12	
InChI=1S/C6H9NO/c8-4-6-2-1-5-3-7(5)6/h1-2,5-6,8H,3-4H2	InChI=1S/C6H9NO/c8-4-6-2-1-5-3-7(5)6/h1-2,5-6,8H,3-4H2/t5-,6+,7?/m0/s1
