20
gdb 9546	3.29379	1.5198	1.3356	2.1653	70.59	-0.2405	0.0675	0.3079	1021.5945	0.175193	-386.12215	-386.112876	-386.111931	-386.156017	33.758	
C	-0.257220794	 1.4596751121	-0.0650645486	-0.407082
C	 0.0821944651	-0.0186799812	-0.0019080948	 0.104909
O	 1.2342073929	-0.3490658254	-0.8147358165	-0.297166
C	 1.9967746186	-0.7626227343	 0.3379623037	-0.105667
C	 0.7740930894	-0.600333053	 1.271086863	 0.278263
C	 0.9509964589	 0.2977461357	 2.4898313742	-0.468871
C	 0.1660124926	-1.9450362127	 1.6572743075	-0.129498
O	 1.0470911698	-2.5873565385	 2.5676553018	-0.426111
H	 0.591925067	 2.0819988073	 0.2295166556	 0.120572
H	-0.5316151635	 1.7270539625	-1.0903165383	 0.126153
H	-1.1062814465	 1.6942697481	 0.5863324541	 0.113055
H	-0.7929796804	-0.6039909588	-0.322420738	 0.06481
H	 2.3911102865	-1.7799431547	 0.2376795232	 0.104984
H	 2.8294119699	-0.0771053996	 0.5438951531	 0.091544
H	 1.4382313168	 1.2420972383	 2.233583226	 0.113691
H	-0.0147289956	 0.5303463525	 2.9535514419	 0.110241
H	 1.5633951	-0.2111952516	 3.238752478	 0.139198
H	-0.8276753654	-1.7830269231	 2.1084096206	 0.083225
H	 0.0241363535	-2.55216637	 0.7496919226	 0.093794
H	 0.6861637445	-3.4524355735	 2.7809115708	 0.289957
49.4726	119.0204	184.9846	213.9238	222.2574	241.1351	286.8785	317.7231	351.1082	363.3454	465.0276	524.1808	669.6974	792.1045	875.3883	888.6946	950.4838	961.47	994.0574	1019.6462	1055.6591	1066.2624	1087.4059	1122.5497	1155.9687	1173.8149	1215.0834	1233.1847	1274.1871	1291.0088	1319.6987	1369.1841	1386.2878	1405.5429	1411.7246	1454.7758	1478.7876	1488.9121	1496.6822	1507.6128	1517.8239	1533.9476	2955.1626	2981.1619	2997.0419	3009.5075	3033.1712	3038.3664	3063.3815	3100.8195	3106.0158	3118.9234	3124.9886	3835.5897
CC1OCC1(C)CO	C[C@H]1OC[C@]1(C)CO	
InChI=1S/C6H12O2/c1-5-6(2,3-7)4-8-5/h5,7H,3-4H2,1-2H3	InChI=1S/C6H12O2/c1-5-6(2,3-7)4-8-5/h5,7H,3-4H2,1-2H3/t5-,6+/m1/s1
