15
gdb 25576	4.2087	0.97871	0.84501	4.3428	68.27	-0.213	-0.0404	0.1726	1296.4965	0.112646	-453.967846	-453.959744	-453.9588	-454.001911	28.785	
O	-0.6524610849	 1.2249614569	-1.1693397054	-0.22772
C	 0.0649023798	 1.9798225078	-0.5707940901	 0.139741
C	 1.3894082096	 1.5500005732	 0.0520818751	-0.178317
O	 2.1645823878	 2.6583160096	 0.4765378371	-0.26711
C	 2.7336665299	 3.3523940591	-0.5354246571	 0.397423
C	 2.7577734397	 3.2422562175	-1.9032284759	-0.220941
N	 3.5284642435	 4.263068903	-2.4311808763	-0.244865
C	 3.9521729394	 4.9604239338	-1.4111433709	 0.011408
N	 3.4947180029	 4.4485720981	-0.2213763151	-0.337304
H	-0.1981513423	 3.0451640328	-0.387624167	 0.101739
H	 1.1720437875	 0.9677315296	 0.9533571442	 0.151752
H	 1.9439111653	 0.9104142142	-0.6463049138	 0.147423
H	 2.2790389621	 2.5106714984	-2.5332982366	 0.120679
H	 4.5833385661	 5.8350523744	-1.4510894182	 0.133804
H	 3.6717380236	 4.7853550315	 0.7103232303	 0.272288
48.1831	57.6323	133.9618	222.9482	283.6053	353.5936	412.7187	491.4099	602.2425	650.5933	670.925	681.1098	753.4234	786.5291	791.9755	923.9885	1020.6348	1027.6046	1087.2991	1100.0279	1119.0666	1140.2894	1261.4889	1272.6007	1290.7266	1346.1559	1394.8706	1405.4077	1449.8209	1459.1235	1532.7553	1620.5047	1841.439	2897.951	3033.2881	3095.447	3255.9504	3263.2812	3665.2821
O=CCOC1=CN=CN1	O=CCOc1cnc[nH]1	
InChI=1S/C5H6N2O2/c8-1-2-9-5-3-6-4-7-5/h1,3-4H,2H2,(H,6,7)	InChI=1S/C5H6N2O2/c8-1-2-9-5-3-6-4-7-5/h1,3-4H,2H2,(H,6,7)
