19
gdb 109115	3.14373	1.23297	0.90462	0.3062	79.11	-0.2196	0.0017	0.2213	1280.6071	0.160794	-415.412517	-415.403	-415.402056	-415.447627	33.716	
C	-0.0708664437	 1.4575779711	-0.0121655928	-0.351337
N	 0.0003057136	 0.0114220713	 0.0155911583	-0.105317
C	 0.0173974921	-0.7840467642	-1.1280323887	 0.338853
N	-0.0282732971	-0.3057556069	-2.305817237	-0.555478
C	 0.0971948373	-2.2040731285	-0.5699986262	-0.274848
N	 0.1185428307	-2.0751393946	 0.8895113612	-0.316638
C	 0.0618886953	-0.8180712351	 1.1347327023	 0.351603
C	 0.0595486089	-0.2331985415	 2.5270905232	-0.270792
N	 0.1276352794	-1.2020199528	 3.6102380315	-0.485638
H	 0.8064456096	 1.9122053991	 0.4603487477	 0.132399
H	-0.1034907125	 1.754339809	-1.0616354448	 0.17787
H	-0.9715493458	 1.8254148022	 0.4909696059	 0.132402
H	-0.0050822954	-1.0503009486	-2.9999267412	 0.220181
H	-0.7617167817	-2.8041711333	-0.893502318	 0.136196
H	 0.9975234701	-2.7184399835	-0.9268279557	 0.136192
H	 0.9014962364	 0.4663303235	 2.6168246796	 0.129256
H	-0.8429516287	 0.3806087933	 2.6497458201	 0.129276
H	-0.6437380065	-1.8561016891	 3.5023141403	 0.237934
H	 0.956023818	-1.7760585513	 3.4734015943	 0.237887
47.8707	80.8135	116.4553	174.5218	189.1422	201.4431	273.8177	298.4121	374.7441	509.1084	518.997	621.8693	632.1632	717.2188	760.0207	816.094	916.8978	941.5084	960.5512	988.7162	1019.6733	1047.3837	1125.9024	1154.1814	1169.7683	1180.5765	1200.8486	1239.0163	1287.8382	1327.7096	1390.0177	1399.1713	1417.3077	1453.8301	1464.7736	1471.1635	1498.7645	1508.0273	1679.5178	1692.9046	1738.1392	3018.3951	3029.6675	3035.1994	3048.5175	3065.1597	3085.0294	3145.4748	3489.8128	3503.2791	3552.8388
CN1C(=N)CN=C1CN	CN1[C]([NH])CN=C1CN	
InChI=1S/C5H10N4/c1-9-4(7)3-8-5(9)2-6/h7H,2-3,6H2,1H3	InChI=1S/C5H10N4/c1-9-4(7)3-8-5(9)2-6/h7H,2-3,6H2,1H3
