21
gdb 65803	3.48586	0.84362	0.78744	1.9534	84.76	-0.245	0.0593	0.3043	1535.738	0.180146	-387.047687	-387.037717	-387.036773	-387.08315	36.695	
C	-0.0154147102	 1.7640011312	-0.2384918451	-0.441885
C	-0.010295482	 0.2451109976	-0.1285187237	 0.439032
C	-1.3991994862	-0.3606243981	 0.0928301677	-0.224712
C	-2.0234010971	 0.0274001027	 1.449669977	-0.366168
C	-3.2792931661	-0.6664897514	 1.7041877607	 0.293353
C	-4.313745694	-1.2510139945	 1.8874515364	-0.438262
C	 0.8388413811	-0.497119046	-1.1959037089	-0.343983
C	 1.7015080767	-0.9480627585	-0.0028619243	-0.063771
O	 0.9029862109	-0.1890286034	 0.9269671722	-0.323204
H	 0.9988463498	 2.1352491454	-0.4094570049	 0.118289
H	-0.6493200379	 2.0906331098	-1.0702312838	 0.116481
H	-0.3879132629	 2.22680343	 0.6800091507	 0.128311
H	-2.0644732233	-0.0621458181	-0.7262302082	 0.10586
H	-1.3160478755	-1.4517902006	 0.0528762636	 0.107759
H	-1.2990211095	-0.2058198571	 2.2389076187	 0.151678
H	-2.1957768576	 1.1093814568	 1.494905752	 0.127847
H	-5.2276491091	-1.7612846545	 2.0641680969	 0.190711
H	 0.3196004779	-1.2895934349	-1.7376247114	 0.108749
H	 1.3422064344	 0.1560419264	-1.9109404481	 0.107787
H	 1.6787059726	-2.022399147	 0.2180557544	 0.103022
H	 2.7460146478	-0.6147176858	-0.0104506322	 0.103106
56.0548	79.0265	102.8923	123.11	214.8927	225.7169	321.8613	335.4987	365.5279	391.1621	469.2752	509.477	612.7114	633.1068	700.0832	766.1377	786.1423	862.0692	886.9075	928.9605	960.9898	967.0637	993.7987	1005.5881	1032.2798	1043.2898	1129.4558	1162.7788	1182.2543	1209.4013	1225.0462	1263.7365	1278.5983	1299.2095	1332.2832	1352.159	1383.1	1409.5834	1469.7378	1485.3902	1488.6411	1489.7264	1499.8129	1532.4844	2238.3798	3016.2603	3030.2918	3037.251	3039.7338	3054.3407	3064.256	3076.4132	3087.1744	3108.6878	3115.6591	3131.1607	3508.1975
CC1(CCC#C)CCO1	C[C@@]1(CCC#C)CCO1	
InChI=1S/C8H12O/c1-3-4-5-8(2)6-7-9-8/h1H,4-7H2,2H3	InChI=1S/C8H12O/c1-3-4-5-8(2)6-7-9-8/h1H,4-7H2,2H3/t8-/m1/s1
