21
gdb 95971	2.31667	1.43913	1.0698	3.281	78.09	-0.2484	-0.0207	0.2278	1213.1983	0.182818	-424.264896	-424.255652	-424.254708	-424.299693	34.574	
C	 0.3140893496	 1.1649410405	-0.0489320375	-0.477947
C	 0.1050345652	-0.3269651835	 0.1140144036	 0.39983
O	 1.0475705769	-1.09662622	 0.1263677628	-0.336228
C	-1.3336819303	-0.8031815634	 0.223888391	-0.136508
C	-1.919559044	-0.9913576244	-1.2212177363	-0.224449
C	-2.4553357175	-2.441954858	-1.2700442223	-0.205953
C	-1.585437695	-3.195162839	-0.2601680045	-0.235793
C	-1.480927338	-2.2038838891	 0.9116422135	 0.145891
O	-0.5156055135	-2.5083315847	 1.8863649052	-0.447182
H	 1.3565882778	 1.3761624634	-0.2897422119	 0.143044
H	-0.3442202278	 1.5713986384	-0.8240474458	 0.140777
H	 0.0483773582	 1.6691411137	 0.8880641496	 0.149116
H	-1.9045195794	-0.0434834648	 0.7662409404	 0.081253
H	-2.6888681584	-0.2498791198	-1.4494608598	 0.104779
H	-1.128269137	-0.8674770854	-1.968487259	 0.111724
H	-3.5035379569	-2.4656924045	-0.9490383093	 0.102157
H	-2.4183480879	-2.860452731	-2.2791419763	 0.10105
H	-1.9981094887	-4.1587703926	 0.0490858373	 0.099684
H	-0.5829316459	-3.3707863997	-0.6691806401	 0.108573
H	-2.4387741715	-2.2014621447	 1.4466636556	 0.084712
H	 0.3428322139	-2.4064705617	 1.4513928039	 0.291469
39.2559	67.9746	140.4458	203.2781	233.4577	250.5119	300.6793	398.3848	468.395	530.6144	566.6693	584.6145	622.2183	664.0857	748.5232	827.6062	878.8512	896.7998	921.0606	963.2902	975.4585	1013.7291	1026.0799	1043.884	1105.5213	1123.7891	1160.9521	1187.6909	1198.3076	1227.6011	1277.6835	1288.4439	1314.535	1336.5674	1342.3835	1365.8097	1373.8024	1388.8213	1461.1238	1462.5862	1474.1357	1489.7215	1492.7046	1509.1143	1777.8208	3024.1309	3035.0986	3035.7192	3043.1612	3045.4248	3059.0621	3091.6367	3097.0795	3100.136	3106.5624	3152.2459	3732.6826
CC(=O)C1CCCC1O	CC(=O)[C@H]1CCC[C@H]1O	
InChI=1S/C7H12O2/c1-5(8)6-3-2-4-7(6)9/h6-7,9H,2-4H2,1H3	InChI=1S/C7H12O2/c1-5(8)6-3-2-4-7(6)9/h6-7,9H,2-4H2,1H3/t6-,7-/m1/s1
