15
gdb 49806	2.73402	1.57324	1.00481	4.7916	71.11	-0.2382	-0.0167	0.2215	1101.4968	0.114857	-454.023024	-454.015305	-454.014361	-454.05582	28.157	
O	-0.0701391917	-0.0886698071	-0.0017127794	-0.3194
C	-0.0555556363	 1.118249034	 0.0076344335	 0.164266
N	 1.1249171309	 1.8654722931	 0.000619456	-0.207951
C	 2.3643711365	 1.204184279	-0.0181897865	 0.042263
C	 3.5209682517	 1.8568182243	-0.0256872395	-0.145834
C	 3.5862539227	 3.351645229	-0.0145443763	-0.202346
N	 2.245093186	 3.9214473949	 0.0050614439	-0.381596
C	 1.044358004	 3.2817212229	 0.0127140773	 0.511912
O	-0.0202641639	 3.8649892681	 0.0287173043	-0.396654
H	-0.9408338307	 1.765311399	 0.0225007062	 0.144384
H	 2.2658550611	 0.1269791263	-0.0256668057	 0.157259
H	 4.4540258936	 1.3084430371	-0.0402922656	 0.115681
H	 4.1521680261	 3.7035444961	 0.8618597794	 0.127646
H	 4.1324671264	 3.7175356738	-0.8977011382	 0.127636
H	 2.1480155437	 4.9249657696	 0.0137249205	 0.262733
74.0238	113.5733	172.6709	253.686	281.8436	392.0171	466.3707	537.8767	557.6223	579.3242	617.4404	742.2104	774.727	831.398	880.7657	942.823	989.0199	1037.9307	1047.0361	1065.3558	1155.5725	1242.9704	1252.7029	1301.7968	1318.3156	1389.068	1424.5126	1439.8056	1491.8798	1531.5683	1753.7339	1802.2542	1816.5545	2976.7744	2988.2853	3080.993	3215.0625	3239.9981	3636.9358
O=CN1C=CCNC1=O	O=CN1C=CCNC1=O	
InChI=1S/C5H6N2O2/c8-4-7-3-1-2-6-5(7)9/h1,3-4H,2H2,(H,6,9)	InChI=1S/C5H6N2O2/c8-4-7-3-1-2-6-5(7)9/h1,3-4H,2H2,(H,6,9)
