20
gdb 107133	2.86665	1.26898	1.13111	3.4325	78.95	-0.2132	0.0641	0.2773	1204.6535	0.168796	-403.058632	-403.049695	-403.04875	-403.092159	34.304	
C	-0.2528056181	 1.4834325106	 0.2170251133	-0.38319
C	 0.0897316298	-0.0031294071	 0.0518265887	-0.306189
C	 0.7524567591	-0.3179660496	-1.2525373382	 0.456426
O	 1.5356359834	-1.506889302	-1.3745496946	-0.264486
C	 2.1396746783	-0.2595963268	-1.7237326754	-0.115701
C	 1.6555412991	 0.1772023604	-3.1611813327	 0.316234
C	 2.364478484	 1.1599722144	-4.0365781307	-0.510886
N	 0.7808351436	-0.9054810281	-3.6665708343	-0.350769
C	 0.2529806789	 0.0901000281	-2.6942499635	-0.222415
H	 0.6473419855	 2.1042618412	 0.1648983863	 0.11927
H	-0.9416321607	 1.8276280379	-0.5611201593	 0.11985
H	-0.7316237167	 1.663930841	 1.1836215783	 0.119733
H	 0.7580506445	-0.3322267706	 0.8548459429	 0.115922
H	-0.8241805405	-0.6059155626	 0.1393788837	 0.111666
H	 3.0666372531	 0.0160938907	-1.2324431359	 0.100617
H	 3.2403306141	 0.7066463316	-4.5160457591	 0.132176
H	 1.7028724407	 1.5325728629	-4.8260869072	 0.119709
H	 2.7121960399	 2.0237861938	-3.4584690615	 0.125564
H	 0.4533442689	-0.6015460986	-4.5854753502	 0.223454
H	-0.5970740368	 0.7192165229	-2.9262484207	 0.093015
73.1169	114.628	189.6621	212.5503	234.2701	270.5436	314.5763	406.641	435.4846	508.8766	555.4983	567.1191	696.0543	771.2001	790.5905	813.1526	845.9621	887.7999	910.0926	930.7273	944.7679	991.889	1001.3397	1046.7426	1068.8851	1102.0969	1108.1127	1115.68	1178.1805	1212.1421	1260.5054	1292.3146	1326.7067	1352.4399	1406.4664	1412.5374	1439.0227	1471.1478	1481.3196	1481.7825	1497.9794	1501.424	1510.422	3020.0558	3021.7701	3038.6617	3070.7195	3080.8095	3092.9758	3107.6531	3112.26	3173.7389	3192.8192	3448.7951
CCC12OC1C1(C)NC21	CC[C@]12O[C@H]1[C@@]1(C)N[C@@H]21	
InChI=1S/C7H11NO/c1-3-7-4-6(2,8-4)5(7)9-7/h4-5,8H,3H2,1-2H3	InChI=1S/C7H11NO/c1-3-7-4-6(2,8-4)5(7)9-7/h4-5,8H,3H2,1-2H3/t4-,5+,6+,7-/m1/s1
