24
gdb 113793	2.89695	1.00994	0.96334	1.2385	90.24	-0.2175	0.0857	0.3032	1422.7334	0.216281	-368.370279	-368.360235	-368.35929	-368.405346	38.256	
C	-0.2241222462	 1.6444994083	-0.7978000819	-0.370792
C	 0.0539980069	 0.2729945976	-0.1859397469	-0.117435
N	-1.2018558105	-0.4294893514	 0.0547641104	-0.085272
C	-1.7254152384	-1.2817537849	-1.0055316409	-0.267107
C	-1.2166675005	-1.8845321669	 0.2617122417	-0.078483
C	 0.0160021751	-2.7623700877	 0.3348019037	 0.374376
C	 0.7224885173	-3.1454710534	-0.9548831758	-0.477531
C	 0.8655165713	-2.6243067119	 1.5850920794	-0.288441
C	-0.0175194715	-3.8302689901	 1.4106435354	-0.319058
H	 0.7071377981	 2.2016004195	-0.9410643589	 0.107399
H	-0.712326712	 1.5449128296	-1.7730213301	 0.115494
H	-0.8848179829	 2.2268160503	-0.1494415765	 0.124807
H	 0.7456624274	-0.2847892077	-0.8370963939	 0.084163
H	 0.5588647624	 0.3924519919	 0.7796531095	 0.102029
H	-2.7932646119	-1.2132738625	-1.2007500224	 0.108211
H	-1.1155608741	-1.4119891257	-1.8984540716	 0.103793
H	-1.9668968583	-2.162016121	 1.0013720167	 0.085518
H	 1.1360222701	-2.2811081283	-1.4838382997	 0.121056
H	 1.5554555829	-3.82416174	-0.7442426751	 0.111031
H	 0.0397592182	-3.6593490312	-1.6403890755	 0.119551
H	 1.9386559227	-2.7515024612	 1.4876051085	 0.108756
H	 0.5705402943	-1.8821037417	 2.3187692347	 0.117209
H	-0.905692221	-3.9055481965	 2.0292666884	 0.112467
H	 0.4503657906	-4.7835076554	 1.1891149508	 0.10826
55.4244	72.4627	134.3884	205.7396	231.7317	248.0256	275.3867	322.2639	344.0903	364.8084	402.576	457.2276	593.9286	692.9243	738.8771	788.8448	808.2833	857.6719	860.3957	912.3521	943.0125	955.1365	971.5143	1001.6522	1042.3638	1050.1305	1079.7121	1083.1504	1098.5678	1116.1335	1121.1276	1145.4952	1150.593	1192.9329	1199.3261	1291.2658	1307.8966	1312.524	1361.6985	1381.7583	1405.6695	1408.643	1428.0991	1468.2373	1488.0127	1489.3218	1490.9602	1501.3186	1505.336	1507.6659	1518.0238	2977.0014	3028.6009	3036.9771	3051.9756	3086.6452	3094.346	3097.2507	3101.6437	3105.4502	3118.1706	3127.5485	3131.9171	3166.9759	3206.1659	3220.8319
CCN1CC1C1(C)CC1	CCN1C[C@H]1C1(C)CC1	
InChI=1S/C8H15N/c1-3-9-6-7(9)8(2)4-5-8/h7H,3-6H2,1-2H3	InChI=1S/C8H15N/c1-3-9-6-7(9)8(2)4-5-8/h7H,3-6H2,1-2H3/t7-,9?/m0/s1
