14
gdb 125207	3.40636	1.59048	1.10048	3.6191	65.09	-0.2291	-0.0019	0.2272	1028.2784	0.101382	-473.791759	-473.784335	-473.783391	-473.824316	26.613	
C	 0.0761533796	 1.527375257	 0.0246716037	-0.500508
C	-0.0881825351	 0.053312679	 0.0610504627	 0.291894
C	-1.1105344997	-0.8172405327	-0.0704637933	 0.111989
O	-2.4577925077	-0.9255561527	-0.2643340294	-0.289162
C	-2.6788765706	-2.3453882867	-0.3916036125	 0.000319
O	-1.4769199787	-3.052597221	-0.0079879188	-0.267692
C	-0.5384203194	-2.0855130044	 0.0861590189	 0.424327
N	 0.7411951122	-2.0881848779	 0.3002501101	-0.261478
O	 1.0416689017	-0.6991549795	 0.2868666893	-0.24155
H	 0.7796792252	 1.8247347686	-0.7599077846	 0.153218
H	-0.8863346666	 2.004094199	-0.1721819109	 0.145508
H	 0.463150803	 1.9041868326	 0.9772096385	 0.153419
H	-3.4918902102	-2.6428784482	 0.2748968761	 0.144943
H	-2.9097525437	-2.5847605231	-1.4367763001	 0.134773
78.9549	98.6214	173.4821	245.4668	319.8408	372.3963	547.8357	568.7435	593.6458	677.1668	737.3942	772.4712	791.4009	910.6539	933.2947	980.0927	1054.2916	1064.0832	1121.2918	1130.0722	1184.3978	1203.5334	1265.1859	1413.8365	1437.7136	1472.251	1486.7487	1509.7727	1535.7648	1645.6549	1762.306	3029.8985	3040.7578	3097.4333	3110.0633	3135.0807
CC1=C2OCOC2=NO1	Cc1c2OCOc2no1	
InChI=1S/C5H5NO3/c1-3-4-5(6-9-3)8-2-7-4/h2H2,1H3	InChI=1S/C5H5NO3/c1-3-4-5(6-9-3)8-2-7-4/h2H2,1H3
