19
gdb 71785	3.03171	1.98951	1.77933	0.2713	77.78	-0.1965	0.0612	0.2576	873.7105	0.161582	-381.963558	-381.957039	-381.956095	-381.99391	27.949	
C	 0.0268632327	 1.569933368	 0.0491011317	-0.483218
C	-0.0516836262	 0.0699640671	-0.0512255152	 0.326563
C	 0.3803734092	-0.7020271163	-1.3094496526	-0.214727
N	-0.5509345943	-1.8247383603	-0.9489759368	-0.168985
C	-0.048447293	-2.5283358867	 0.3191551041	-0.016214
C	 1.2030047904	-1.8714339657	 0.9117486356	-0.185153
N	 0.3987473922	-0.6449304531	 1.2442434808	-0.20312
C	-0.8542344326	-1.5252744515	 1.1881371883	-0.002892
C	-1.3262905577	-0.8298449353	-0.0812284675	-0.056877
H	 1.0725492044	 1.8910370802	 0.1196417596	 0.122502
H	-0.4211481715	 2.0481261908	-0.8287687815	 0.11188
H	-0.4886462034	 1.9280789473	 0.9450963622	 0.125387
H	 0.0017298001	-0.2168836278	-2.2161966522	 0.10612
H	 1.428947234	-0.9671880711	-1.4724834912	 0.103333
H	-0.1676753515	-3.6133280266	 0.2767129987	 0.074414
H	 1.4952246176	-2.3568064998	 1.8496605794	 0.109483
H	 2.10093415	-1.7208199858	 0.3061292082	 0.105551
H	-1.3950710776	-1.7286483944	 2.1125057754	 0.074972
H	-2.3341189328	-0.542174759	-0.3830169772	 0.070982
209.6688	227.701	292.2088	419.8818	462.478	469.1526	572.5376	665.1742	706.0147	740.6715	769.0963	829.6185	840.9957	875.8578	889.7487	921.6994	923.7232	951.1575	970.0269	983.5299	1004.8069	1030.0173	1078.296	1142.8402	1152.21	1167.0041	1174.8567	1187.943	1205.5178	1218.4966	1243.7553	1250.8364	1276.5943	1284.5795	1297.7628	1336.3123	1410.363	1478.2351	1481.1619	1488.6346	1523.3013	3027.6712	3035.6709	3042.6292	3075.1886	3084.2573	3094.4526	3094.9032	3097.01	3109.2254	3110.8497
CC12CN3C4CN1C4C23	C[C@@]12CN3[C@H]4CN1[C@H]4[C@@H]23	
InChI=1S/C7H10N2/c1-7-3-8-4-2-9(7)5(4)6(7)8/h4-6H,2-3H2,1H3	InChI=1S/C7H10N2/c1-7-3-8-4-2-9(7)5(4)6(7)8/h4-6H,2-3H2,1H3/t4-,5+,6-,7-/m0/s1
