18
gdb 80257	2.25394	2.00338	1.57149	2.321	75.6	-0.2087	-0.0218	0.1869	939.1744	0.149073	-401.950593	-401.943293	-401.942348	-401.981992	29.559	
C	-0.1893962608	 1.4693353078	-0.0217623654	-0.340803
N	 0.0506513579	 0.0323033218	 0.0040336121	-0.05406
C	 1.0473849446	-0.5010203619	-0.9632254958	-0.0608
C	 2.3996073978	 0.1036846614	-0.4712352151	-0.345522
C	 2.1707266252	 0.0600318432	 1.0576145156	 0.430274
O	 2.9218049642	 0.4075263418	 1.9277348646	-0.325986
C	 0.7204280042	-0.4997881768	 1.2075274136	-0.162876
C	 0.8844021209	-1.9581322	 0.8038811589	-0.083714
C	 1.0662233498	-1.9599310337	-0.5181131581	-0.063522
H	 0.6939738148	 2.1082388687	 0.1456199366	 0.107928
H	-0.6208865193	 1.7358650281	-0.9917608828	 0.124836
H	-0.9260978533	 1.7153090309	 0.7492192185	 0.129455
H	 0.7884076772	-0.2996341981	-2.0030568549	 0.077126
H	 3.2869409807	-0.4589130725	-0.7662227566	 0.128765
H	 2.54055142	 1.1424502441	-0.7855543374	 0.126571
H	 0.23627235	-0.2744732167	 2.156066839	 0.085133
H	 0.9272197561	-2.7854017776	 1.4977083323	 0.117696
H	 1.2833770101	-2.7990669303	-1.1647435352	 0.109501
116.5681	202.0332	257.6857	314.8178	356.1512	418.7977	473.228	544.8885	617.9102	621.7583	673.8528	727.4141	762.6856	837.8664	859.4738	881.4295	928.7471	936.8508	963.3741	1001.0169	1013.5823	1054.8218	1113.0005	1134.9351	1147.1015	1166.1129	1196.7728	1201.6868	1224.1725	1267.0182	1293.3715	1332.1667	1342.0197	1450.6207	1463.5498	1495.4854	1509.0213	1639.7245	1853.8936	2963.4017	3063.7382	3066.685	3105.8283	3111.0849	3120.482	3141.4229	3220.3695	3246.919
CN1C2CC(=O)C1C=C2	CN1[C@H]2CC(=O)[C@@H]1C=C2	
InChI=1S/C7H9NO/c1-8-5-2-3-6(8)7(9)4-5/h2-3,5-6H,4H2,1H3	InChI=1S/C7H9NO/c1-8-5-2-3-6(8)7(9)4-5/h2-3,5-6H,4H2,1H3/t5-,6+/m1/s1
