17
gdb 52963	6.04426	0.7687	0.73215	2.6212	80.24	-0.2379	0.0211	0.259	1561.9763	0.133737	-421.762033	-421.752925	-421.75198	-421.797461	32.736	
C	 0.0078728364	 1.4609968312	 0.1820016005	-0.513468
C	-0.0257445574	 0.0147611511	 0.0354318736	 0.308047
C	-0.0606886286	-1.1845500797	-0.0760210553	-0.216015
C	-0.0580042461	-2.5948484871	-0.2506515062	 0.276402
C	 0.7490556966	-3.4388997083	-1.2498560124	-0.357813
C	-0.409007723	-4.5106229028	-1.2049205189	 0.136566
O	-0.1114343038	-5.7968531499	-0.7440628451	-0.434075
C	-1.1548853842	-3.5937789241	-0.219214831	-0.095332
O	-0.2741455586	-3.4538047633	 0.9009798683	-0.297267
H	 0.7947959041	 1.9026362057	-0.4390006503	 0.154046
H	-0.944775544	 1.9149260683	-0.112429926	 0.153183
H	 0.2057743765	 1.7452883645	 1.2212868664	 0.157442
H	 0.8542843345	-2.968943086	-2.2297657259	 0.118514
H	 1.7238295858	-3.773253823	-0.8878830566	 0.111448
H	-0.9119564468	-4.6168185445	-2.168648307	 0.098603
H	 0.2089438162	-5.6878806627	 0.1608853539	 0.289452
H	-2.2166256475	-3.4733524296	-0.0339709182	 0.110266
22.0105	75.5788	87.2553	161.4864	269.6566	316.1562	362.8547	418.8046	434.6166	489.0386	525.3689	536.3372	652.8285	708.7049	804.2788	870.5845	890.3286	949.7947	957.5612	1008.2312	1051.2947	1053.3959	1058.492	1106.6669	1134.7704	1175.946	1198.4384	1260.7766	1269.068	1315.3566	1410.0647	1424.0105	1443.0675	1474.3678	1475.1101	1476.1133	2369.6462	3028.712	3071.5655	3090.4879	3092.794	3094.5681	3135.1653	3183.4629	3768.9943
CC#CC12CC(O)C1O2	CC#C[C@]12C[C@@H](O)[C@H]1O2	
InChI=1S/C7H8O2/c1-2-3-7-4-5(8)6(7)9-7/h5-6,8H,4H2,1H3	InChI=1S/C7H8O2/c1-2-3-7-4-5(8)6(7)9-7/h5-6,8H,4H2,1H3/t5-,6-,7+/m1/s1
