18
gdb 18536	5.63094	1.07461	1.02627	1.0327	67.71	-0.2347	0.0803	0.315	1173.6052	0.153327	-384.886319	-384.878333	-384.877389	-384.919142	29.517	
O	-0.0324514231	 1.4031213344	 0.0059543029	-0.42296
C	-0.0446628912	-0.0049907042	 0.1918947042	-0.071587
C	-1.4302172264	-0.5113292451	-0.1933030713	-0.198805
C	-1.5495976807	-2.0175286662	-0.0672429063	 0.135044
O	-1.3095473839	-2.5205276893	 1.2874750268	-0.309296
C	-2.5218574006	-3.2761399202	 1.232052739	 0.113097
C	-3.7092128843	-2.3745627496	 1.1386267015	-0.297401
C	-2.9143773973	-2.7077175569	-0.1105137068	-0.15283
H	 0.8133191515	 1.7379553882	 0.3173687198	 0.28522
H	 0.7194377569	-0.4957396128	-0.4341320528	 0.080875
H	 0.1614855623	-0.2778272884	 1.236755142	 0.108489
H	-2.1751637164	-0.0140479777	 0.4357545671	 0.108868
H	-1.6390680952	-0.2270382278	-1.2323261879	 0.106981
H	-0.8434843219	-2.5147217286	-0.746823385	 0.079473
H	-2.5117440518	-4.283119371	 1.6323603745	 0.102917
H	-4.6756993257	-2.8669184094	 1.1886820719	 0.11449
H	-3.672400029	-1.3878443642	 1.5903565678	 0.118878
H	-3.3523145933	-3.1820056214	-0.9779898774	 0.098547
81.7744	97.4326	135.2069	237.241	261.9186	348.2585	374.8502	482.8644	553.3495	722.3306	767.8314	796.3747	817.8912	894.1602	951.0932	974.0243	987.7346	1015.5148	1041.202	1043.531	1051.4738	1080.513	1085.5334	1105.3711	1150.2025	1198.9565	1223.0499	1237.8494	1264.1826	1295.4389	1311.6516	1325.0633	1367.7259	1408.1246	1461.3288	1473.8012	1483.7588	1531.0894	2961.0058	3006.7539	3015.9044	3038.9778	3091.8648	3120.7724	3180.3779	3203.3444	3212.8758	3831.3298
OCCC1OC2CC12	OCC[C@H]1O[C@H]2C[C@@H]12	
InChI=1S/C6H10O2/c7-2-1-5-4-3-6(4)8-5/h4-7H,1-3H2	InChI=1S/C6H10O2/c7-2-1-5-4-3-6(4)8-5/h4-7H,1-3H2/t4-,5+,6-/m0/s1
