17
gdb 65896	3.18659	0.83425	0.73911	2.6785	81.33	-0.2688	-0.0644	0.2044	1536.7872	0.133602	-421.788824	-421.779416	-421.778472	-421.824201	33.187	
O	 0.071732485	 1.6200811262	-0.1820567977	-0.457082
C	-0.0040992366	 0.223454355	 0.0121747849	 0.235649
C	 0.1870657389	-0.3215940107	 1.4749584131	-0.269189
C	-1.086190407	-1.1851315715	 1.2832831289	-0.211048
C	-1.4749773988	-0.2872430557	 0.0805975981	-0.249011
C	 0.810778556	-0.5066833166	-0.9493921609	 0.115708
C	 1.5103753602	-1.111131713	-1.7296873777	-0.040764
C	 2.3436168053	-1.8028625808	-2.6772668025	 0.020107
O	 2.4054646478	-3.0064125853	-2.785821133	-0.229971
H	 0.9968956673	 1.8638278066	-0.2975339192	 0.283705
H	 1.1276939813	-0.8223412931	 1.7097166815	 0.111002
H	 0.0238041821	 0.5067216016	 2.1688640208	 0.11739
H	-0.8451788607	-2.2037774441	 0.9720681819	 0.122916
H	-1.7874803478	-1.2286171905	 2.1174525828	 0.109338
H	-2.1077510993	 0.5519947548	 0.3789377042	 0.124293
H	-1.8839330143	-0.7544059741	-0.8158143501	 0.117154
H	 2.9456821907	-1.1315669487	-3.3232407352	 0.099803
51.1862	67.0347	108.3047	143.3383	210.7706	256.1607	277.5977	342.0475	370.4532	493.0634	562.7571	573.0297	656.1205	716.538	792.8592	831.0531	901.8475	935.6269	975.1882	989.9159	1020.4738	1043.7616	1047.6883	1135.9968	1197.7875	1201.6275	1245.4255	1262.5905	1277.8053	1291.9495	1361.2337	1421.7551	1466.1628	1483.6439	1503.4069	1765.3907	2309.2527	2916.7877	3068.7304	3076.7866	3080.24	3123.9042	3135.9572	3145.2237	3806.0916
OC1(CCC1)C#CC=O	OC1(CCC1)C#CC=O	
InChI=1S/C7H8O2/c8-6-2-5-7(9)3-1-4-7/h6,9H,1,3-4H2	InChI=1S/C7H8O2/c8-6-2-5-7(9)3-1-4-7/h6,9H,1,3-4H2
