20
gdb 75883	2.36078	1.54528	1.19545	3.2016	73.95	-0.2428	0.0108	0.2536	1116.9848	0.171118	-440.333441	-440.324145	-440.323201	-440.366926	35.208	
C	 0.3063845278	 1.4807247283	-0.1495420486	-0.446526
C	-0.0076086818	-0.0202986469	-0.0312687503	 0.268418
C	-1.5184870202	-0.2483233352	 0.0235737	-0.452284
C	 0.6697456949	-0.8002068779	-1.1777369826	-0.108163
O	 2.0333487292	-1.0288234874	-0.7646756509	-0.223879
C	 2.1276736267	-0.9364968466	 0.5870258903	 0.412038
O	 3.1629281419	-1.0511740883	 1.1785679834	-0.349263
C	 0.736511585	-0.6500947651	 1.1708161028	-0.148737
N	 0.706358448	 0.1089619297	 2.4081894185	-0.520157
H	 1.3822829183	 1.6674879203	-0.2396432672	 0.127873
H	-0.177864457	 1.902153588	-1.03614037	 0.118718
H	-0.0645021452	 2.0215497498	 0.7252907034	 0.13483
H	-2.017852261	 0.1728765896	-0.8558930778	 0.11497
H	-1.7598691906	-1.3156834529	 0.0702665875	 0.112274
H	-1.9375738084	 0.2315614118	 0.912873228	 0.139806
H	 0.1871901663	-1.7707545064	-1.3474203084	 0.109636
H	 0.7000852614	-0.2524798901	-2.1225356626	 0.121756
H	 0.2806334905	-1.6305097754	 1.370439047	 0.106973
H	 1.0935777231	-0.462340387	 3.1536140933	 0.244146
H	 1.3325324511	 0.9061257617	 2.3348793644	 0.237571
90.5836	179.307	189.9853	207.4835	237.1648	268.4861	281.6687	305.4234	341.6895	382.0037	487.103	541.6082	558.7905	643.6947	717.2094	791.5075	850.9755	894.2987	945.5059	958.0559	961.1415	1002.5987	1040.1069	1046.7086	1137.9245	1142.8137	1179.8505	1218.9815	1231.8734	1268.1374	1292.4535	1315.0952	1389.295	1400.1982	1412.9619	1434.8555	1484.5099	1494.0374	1506.1626	1514.4981	1520.2654	1670.0401	1877.8844	3011.1678	3027.4976	3031.1492	3035.7712	3094.7777	3099.3708	3102.9723	3111.8918	3118.0727	3497.5749	3566.7249
CC1(C)COC(=O)C1N	CC1(C)COC(=O)[C@H]1N	
InChI=1S/C6H11NO2/c1-6(2)3-9-5(8)4(6)7/h4H,3,7H2,1-2H3	InChI=1S/C6H11NO2/c1-6(2)3-9-5(8)4(6)7/h4H,3,7H2,1-2H3/t4-/m1/s1
