21
gdb 26218	3.09261	1.05886	0.95805	0.1637	87.23	-0.2016	0.0275	0.2292	1375.9089	0.181557	-387.143354	-387.133658	-387.132714	-387.178205	35.711	
C	-0.0768998294	 1.5465917473	 0.1016878605	-0.383222
C	-0.0375711951	 0.0066750889	 0.0605381612	-0.087406
C	 0.6788482373	-0.5617875472	 1.3007551574	-0.383229
C	-1.4065183487	-0.5737069795	-0.0971829207	 0.375461
C	-2.00215145	-1.3316863883	-1.0556321181	-0.286946
C	-3.3486908089	-1.5654348743	-0.6175896424	-0.257318
C	-3.4824825926	-0.9339733041	 0.5785333919	 0.346013
C	-4.6033285443	-0.7872293189	 1.5435801556	-0.492213
O	-2.303550795	-0.3244811446	 0.9074649979	-0.224311
H	 0.934899548	 1.956815782	 0.1830440428	 0.108166
H	-0.5412445144	 1.9532728019	-0.8014763508	 0.116574
H	-0.6548649082	 1.8938650526	 0.9635813711	 0.126326
H	 0.5232679163	-0.2992974748	-0.8309681196	 0.084946
H	 0.1326247861	-0.3030301294	 2.2129957731	 0.126334
H	 0.7511028261	-1.6521138894	 1.2489867503	 0.116574
H	 1.6912786388	-0.1533251847	 1.3830956218	 0.108165
H	-1.5393657962	-1.6825219478	-1.9652573074	 0.101436
H	-4.1148093452	-2.1295796051	-1.1268435027	 0.101858
H	-4.3478637659	-1.2000944711	 2.5265242311	 0.134735
H	-4.8737393368	 0.2646551838	 1.6929361373	 0.134738
H	-5.483669442	-1.3155260573	 1.1706417698	 0.133318
47.0156	114.4932	134.6446	156.684	222.4847	234.8666	256.9219	312.9262	353.9616	399.7985	488.8647	607.9282	635.6017	690.2838	711.0455	795.3989	821.806	877.7909	928.013	958.3242	961.1103	980.7993	1009.2582	1043.309	1064.5047	1080.9343	1119.4719	1176.0962	1220.1024	1242.1984	1258.3767	1332.5699	1339.9069	1392.0742	1396.8433	1414.1631	1419.0336	1472.2794	1485.9442	1491.4384	1492.4886	1500.2124	1511.7745	1602.1828	1657.0283	3026.7243	3033.9038	3035.2487	3037.5513	3074.9814	3104.6101	3108.887	3112.1996	3116.2255	3127.2617	3244.9154	3258.6741
CC(C)C1=CC=C(C)O1	CC(C)c1ccc(C)o1	
InChI=1S/C8H12O/c1-6(2)8-5-4-7(3)9-8/h4-6H,1-3H3	InChI=1S/C8H12O/c1-6(2)8-5-4-7(3)9-8/h4-6H,1-3H3
