20
gdb 59973	3.08704	0.89579	0.74548	4.9978	72.55	-0.2488	0.0098	0.2585	1531.9315	0.168963	-477.4632	-477.452787	-477.451843	-477.499044	38.109	
C	-0.0197447477	 1.6103331197	 0.0312067412	-0.385093
C	 0.0055146837	 0.0889258953	 0.1336627133	 0.158035
O	 0.5702009492	-0.2355950095	 1.3894963691	-0.446539
C	-1.4002555287	-0.519200058	-0.0244166213	-0.224616
C	-1.3786158261	-2.0551483872	-0.1493400433	 0.015538
O	-0.6866222884	-2.6608368814	 0.9231455672	-0.436232
C	-2.8007580067	-2.6391889535	-0.1610583036	 0.394002
N	-3.5705124923	-2.3623834865	-1.2381785434	-0.518599
O	-3.1844103928	-3.308114203	 0.7858640185	-0.377312
H	 0.9828881585	 2.0076206221	 0.2104812467	 0.126327
H	-0.3526271289	 1.9368624454	-0.9590763075	 0.100539
H	-0.6908288018	 2.0325150031	 0.7862524306	 0.119108
H	 0.637568613	-0.3049796974	-0.6851775417	 0.053788
H	 0.3885336831	-1.1749407297	 1.5380983894	 0.292433
H	-2.0042585071	-0.2337509653	 0.8456142457	 0.113924
H	-1.8812860694	-0.0961190237	-0.9155211747	 0.08224
H	-0.8718318598	-2.3292670522	-1.0874375763	 0.092069
H	-1.3809815493	-3.1211179143	 1.4310894142	 0.298711
H	-3.2269260731	-1.832340293	-2.0195203929	 0.269455
H	-4.5115424153	-2.719403751	-1.2681834713	 0.272223
49.8811	70.8919	132.9466	149.7518	206.3345	223.2232	256.6048	311.6634	344.4756	400.156	456.4557	472.7827	509.4591	522.3024	568.7831	588.1592	655.5015	728.9602	834.4611	865.4893	914.2244	951.8326	994.427	1067.2887	1092.3055	1119.9685	1125.5244	1174.6706	1238.0882	1249.9706	1307.0997	1341.1342	1360.9366	1372.4143	1385.2118	1402.8561	1451.7023	1468.14	1475.2546	1487.7499	1500.3721	1622.288	1783.816	2912.7826	2991.0263	3021.8589	3038.1507	3073.5898	3109.9119	3120.0984	3600.2412	3605.9194	3717.7465	3739.2202
CC(O)CC(O)C(N)=O	C[C@@H](O)C[C@@H](O)C(=O)N	
InChI=1S/C5H11NO3/c1-3(7)2-4(8)5(6)9/h3-4,7-8H,2H2,1H3,(H2,6,9)	InChI=1S/C5H11NO3/c1-3(7)2-4(8)5(6)9/h3-4,7-8H,2H2,1H3,(H2,6,9)/t3-,4-/m1/s1
