20
gdb 79203	2.35482	2.03476	1.45126	1.5752	78.38	-0.2115	0.0758	0.2873	989.3666	0.171003	-403.077167	-403.069099	-403.068155	-403.109416	31.838	
C	-0.3369811064	 1.5129025727	-0.0614452454	-0.29802
N	 0.0986755729	 0.1204521783	 0.0630536179	-0.129866
C	 1.3842196117	-0.427636198	-0.3000240401	-0.104376
C	 2.6645831822	 0.4256282185	-0.0761607278	 0.032416
C	 3.2985904807	-0.2707348087	 1.1605822945	-0.224284
C	 2.0234156553	 0.386663934	 1.7611411177	-0.004523
O	 2.2019739341	 1.478153357	 0.8167734658	-0.279298
C	 0.8871198109	-0.4718616039	 1.1197618858	 0.317475
C	 0.3376899331	-1.6502585988	 1.8798322959	-0.477698
H	 0.2748770715	 2.0728860531	-0.7725789924	 0.121343
H	-1.3745026966	 1.5186950386	-0.4175533581	 0.10408
H	-0.2971264743	 2.0425270572	 0.8936763426	 0.119768
H	 1.4114859988	-1.2704560045	-0.9864868528	 0.087595
H	 3.235980927	 0.7821288865	-0.9330800582	 0.083209
H	 3.3824355739	-1.3608536603	 1.1639566474	 0.100263
H	 4.2223825453	 0.207442216	 1.4933151944	 0.107793
H	 1.9356827037	 0.700767593	 2.801631245	 0.079709
H	-0.2910596899	-1.3197580492	 2.715472652	 0.119218
H	-0.2770003326	-2.2715648271	 1.2243090651	 0.131425
H	 1.1410993187	-2.2686566744	 2.2963203308	 0.11377
98.85	185.0615	209.3039	227.268	247.8021	287.7309	417.6218	503.3867	548.4161	577.3436	688.3094	723.5269	755.6485	841.4388	857.6414	870.8748	887.7374	924.7958	948.8987	969.7084	1003.3801	1029.6032	1073.4004	1094.2477	1105.8541	1142.9254	1145.0456	1175.4116	1178.5834	1207.4244	1230.2682	1268.0796	1277.2639	1282.7694	1308.3371	1404.0018	1428.692	1456.3196	1482.1003	1484.311	1489.2543	1497.4006	1508.1878	3018.9718	3025.6917	3058.676	3081.7993	3085.0448	3116.8189	3119.5474	3120.6746	3122.2037	3130.4533	3137.6779
CN1C2C3CC(O3)C12C	CN1[C@H]2[C@@H]3C[C@@H](O3)[C@@]12C	
InChI=1S/C7H11NO/c1-7-5-3-4(9-5)6(7)8(7)2/h4-6H,3H2,1-2H3	InChI=1S/C7H11NO/c1-7-5-3-4(9-5)6(7)8(7)2/h4-6H,3H2,1-2H3/t4-,5+,6-,7+,8?/m0/s1
