19
gdb 119723	3.21888	1.0446	0.93021	2.2746	72.24	-0.2333	0.0572	0.2905	1332.6925	0.157624	-460.094902	-460.085734	-460.08479	-460.1294	33.307	
C	-0.0716722241	 1.3907252673	-0.6230490926	-0.221928
O	-0.0743742279	 0.0432962607	-1.0340780367	-0.23557
C	 0.789345933	-0.7659845201	-0.2711923754	-0.181087
C	 0.6884672357	-2.1668821736	-0.7916430328	 0.370318
O	 1.5214283058	-3.1551177673	-0.1606724902	-0.347524
C	 1.8086386987	-3.7583769831	-1.462809914	-0.107536
C	 0.8357205026	-2.8218051471	-2.1618264888	-0.222172
C	-0.4833306802	-2.8562739041	-1.3973693675	 0.088608
O	-1.0139840477	-4.0180405424	-0.8432409374	-0.440616
H	-0.4031152016	 1.4981000672	 0.4214347741	 0.109434
H	 0.9281477655	 1.8427829156	-0.7150596686	 0.107927
H	-0.7653544412	 1.9296536492	-1.2723463181	 0.13126
H	 1.8317163228	-0.4108825421	-0.3391157955	 0.096789
H	 0.5112063066	-0.7503976869	 0.7978396269	 0.100035
H	 2.8584961516	-3.5964087874	-1.7254897476	 0.115744
H	 1.576382497	-4.8288236911	-1.4780972489	 0.114245
H	 0.9493964435	-2.3909653563	-3.1473728824	 0.104671
H	-1.2434419083	-2.1989978672	-1.8060366494	 0.123509
H	-0.4393111221	-4.2458027612	-0.0996898853	 0.293894
68.4543	74.6769	131.8173	215.1601	225.7284	248.5279	267.0097	341.5211	392.4373	445.4155	531.5831	647.7353	699.283	795.4678	802.6984	896.4592	962.7949	970.4818	980.0742	992.9491	1026.9853	1085.829	1110.7522	1119.5793	1162.9016	1163.8453	1171.2353	1187.3066	1231.0689	1242.6605	1253.2785	1304.3718	1331.1224	1379.1557	1420.7114	1481.9289	1486.2086	1489.3202	1503.4355	1516.2305	1526.8241	2945.0902	2974.017	2976.913	3021.5074	3037.4374	3089.9389	3119.3547	3182.0987	3205.9621	3751.7122
COCC12OCC1C2O	COC[C@]12OC[C@H]1[C@H]2O	
InChI=1S/C6H10O3/c1-8-3-6-4(2-9-6)5(6)7/h4-5,7H,2-3H2,1H3	InChI=1S/C6H10O3/c1-8-3-6-4(2-9-6)5(6)7/h4-5,7H,2-3H2,1H3/t4-,5+,6-/m0/s1
