19
gdb 103351	2.8401	1.40906	1.12168	2.0244	71.41	-0.2487	0.0486	0.2972	1114.0282	0.159538	-460.097267	-460.089111	-460.088167	-460.129621	33.084	
O	 0.7136847713	-0.3179711056	 1.2860755876	-0.416989
C	 0.0840352559	 0.0223392263	 0.0670282105	-0.131875
C	-1.3181601194	-0.5758394996	-0.0116249579	 0.403944
O	-2.0234460432	-0.0559077446	 1.1378409055	-0.507426
C	-2.0995700199	-0.6776691933	-1.3623974484	-0.193924
C	-1.1553289468	-1.864649862	-1.7158532618	-0.245328
C	-1.5356464244	-2.1030813099	-0.2253030868	-0.146174
C	-3.0054471881	-1.7806542258	-0.6890588372	 0.188341
O	-4.0328964079	-1.4873302627	 0.1940555643	-0.4514
H	 0.0444992575	-0.1994314227	 1.9712607189	 0.286004
H	-0.0038501436	 1.1199507108	-0.0474650438	 0.0708
H	 0.7374673985	-0.325842871	-0.7335362754	 0.116909
H	-2.1133431291	 0.897779552	 1.0195574701	 0.289806
H	-2.407038071	 0.1427418493	-2.0136640213	 0.071518
H	-1.5592510022	-2.590256062	-2.4242871128	 0.105521
H	-0.1164882344	-1.6391899054	-1.9437154941	 0.106616
H	-1.1935443248	-2.9063056151	 0.4269706602	 0.084812
H	-3.4061123768	-2.5029579927	-1.4050182215	 0.083185
H	-3.6575753416	-0.9067012159	 0.8704035739	 0.28566
104.8752	138.6562	258.4621	310.4368	351.9263	381.3912	397.9101	437.2861	471.0606	506.1236	530.8097	647.1296	658.2121	698.7106	756.5097	840.8559	853.3405	892.3286	903.879	965.1853	1017.4408	1029.1396	1059.3041	1074.785	1077.8084	1127.3178	1137.5104	1143.0495	1181.4851	1190.3905	1215.9711	1226.5793	1240.8795	1269.5222	1340.2401	1350.6338	1379.3914	1444.2999	1489.2328	1503.7694	1541.4957	2918.0278	3076.7792	3085.4861	3099.7113	3117.1271	3122.9071	3165.9836	3730.152	3781.7818	3785.6572
OCC1(O)C2CC1C2O	OC[C@@]1(O)[C@H]2C[C@@H]1[C@H]2O	
InChI=1S/C6H10O3/c7-2-6(9)3-1-4(6)5(3)8/h3-5,7-9H,1-2H2	InChI=1S/C6H10O3/c7-2-6(9)3-1-4(6)5(3)8/h3-5,7-9H,1-2H2/t3-,4+,5-,6+
