16
gdb 69403	4.28476	1.12544	1.00502	2.3908	74.19	-0.2231	-0.0174	0.2058	1158.4056	0.124543	-437.897077	-437.88942	-437.888476	-437.929137	29.814	
O	 0.0666857464	 1.3872426021	-0.1286487242	-0.459115
C	 0.0406227995	 0.0033009778	-0.0221087889	 0.392126
C	-0.3897014596	-0.7702065512	-1.2347138284	-0.326251
C	-1.2431533108	-0.8459266382	 0.0178930523	-0.119148
N	-0.9791296284	-1.8968623793	 0.9664641945	-0.045335
C	-1.8809926379	-2.8373882864	 1.3935804909	 0.148391
O	-1.6400283213	-3.701523459	 2.2062412779	-0.321603
C	 0.3331862547	-1.774451845	 1.4467216823	 0.006383
C	 0.9483103937	-0.700832517	 0.9300821443	-0.294566
H	-0.0358781216	 1.7539066835	 0.7574357289	 0.28378
H	-0.8313498104	-0.1796063652	-2.0300265283	 0.132003
H	 0.19034228	-1.629654855	-1.5513669628	 0.125881
H	-2.240423241	-0.424411541	 0.0168798828	 0.119542
H	-2.8631399052	-2.7141109531	 0.8995646316	 0.081589
H	 0.6932741454	-2.5330282133	 2.124466834	 0.160517
H	 1.9584125767	-0.3820203197	 1.1425959231	 0.115807
87.0783	206.989	256.8243	280.9634	333.4479	364.1653	391.7344	427.3365	534.4073	598.5373	644.0192	752.3845	756.6423	766.0501	866.2469	889.5541	924.4264	947.2761	967.8646	1022.2983	1025.4564	1054.8585	1073.6285	1107.8901	1212.7578	1250.012	1269.8474	1303.7828	1353.9676	1390.7657	1434.9389	1438.9613	1473.091	1644.497	1795.4646	2958.3251	3135.5887	3194.9898	3232.0129	3239.2325	3272.0606	3787.8419
OC12CC1N(C=O)C=C2	O[C@]12C[C@H]1N(C=O)C=C2	
InChI=1S/C6H7NO2/c8-4-7-2-1-6(9)3-5(6)7/h1-2,4-5,9H,3H2	InChI=1S/C6H7NO2/c8-4-7-2-1-6(9)3-5(6)7/h1-2,4-5,9H,3H2/t5-,6-/m1/s1
