19
gdb 36819	9.14696	0.41992	0.40651	3.8484	81.8	-0.3221	0.0233	0.3454	2483.9709	0.15887	-382.113016	-382.102882	-382.101938	-382.149614	34.606	
N	-0.0774237124	-1.1979650786	-0.0041385409	-0.299562
C	-0.0683498507	-0.0425655805	 0.0024927898	 0.258205
C	-0.0324794314	 1.4181188858	 0.0104263063	-0.342893
C	 1.4047815583	 1.9761055169	-0.0008654888	-0.187476
C	 1.425186767	 3.5076437822	 0.0074094285	-0.191781
C	 2.8473794551	 4.0762714872	-0.003563157	-0.187477
C	 2.8524705916	 5.6180627756	 0.0050113352	-0.342907
C	 4.2030420779	 6.1755176605	-0.0050343927	 0.25824
N	 5.2781244641	 6.5988297752	-0.0136725447	-0.299579
H	-0.5885160511	 1.7837539342	-0.8609848353	 0.153623
H	-0.5708456912	 1.7738037508	 0.8969138572	 0.153618
H	 1.9458296813	 1.5887151711	 0.8695508678	 0.127217
H	 1.9282857901	 1.5984164622	-0.8861472778	 0.127223
H	 0.8726687583	 3.8860506956	-0.8635984781	 0.10593
H	 0.8901197977	 3.8763145973	 0.8933615735	 0.105928
H	 3.4041766009	 3.711836344	 0.8668356021	 0.127217
H	 3.3867337382	 3.7216143765	-0.8888581513	 0.127223
H	 2.3108110937	 6.0043366757	-0.8665595004	 0.153634
H	 2.3281473427	 5.9945060682	 0.8913365467	 0.153615
57.939	65.6324	67.2541	138.2952	143.7792	150.0721	213.2142	331.858	387.0319	398.0293	399.4221	553.7811	562.8879	735.3067	753.2336	829.5376	931.1572	940.8559	952.4415	1002.6134	1039.0673	1063.7784	1076.3401	1123.1047	1162.6705	1245.2234	1261.1868	1302.9501	1310.5047	1336.8136	1337.5135	1355.2077	1390.8347	1406.8408	1468.9417	1469.8638	1487.1651	1496.08	1512.2748	2364.0618	2364.2149	3009.0896	3035.758	3036.8337	3039.6137	3045.9499	3050.5736	3067.9726	3071.2016	3091.3896	3098.6602
N#CCCCCCC#N	N#CCCCCCC#N	
InChI=1S/C7H10N2/c8-6-4-2-1-3-5-7-9/h1-5H2	InChI=1S/C7H10N2/c8-6-4-2-1-3-5-7-9/h1-5H2
