18
gdb 54462	3.4036	1.36805	1.12445	3.4185	76.24	-0.2175	0.0222	0.2397	1098.9964	0.148238	-401.914128	-401.906199	-401.905255	-401.94653	31.641	
N	 0.0877727023	 1.155878739	-0.5106532136	-0.541447
C	-0.0234844273	-0.0128233795	 0.2035007623	 0.305054
O	 0.8984708124	-0.4573531438	 0.8667745834	-0.377372
C	-1.3244190221	-0.7137207541	 0.0740800512	 0.231497
C	-1.7728168001	-1.6327408842	 1.1937346017	-0.343123
C	-1.4725282842	-2.2313664897	-0.1340945889	-0.08075
C	-2.5443424514	-1.9730722755	-1.2243229539	-0.051142
C	-3.7209564453	-1.1545541994	-0.7631244148	-0.307209
C	-2.4054088031	-0.4736957605	-1.0235270962	-0.13729
H	 0.9044218771	 1.713946674	-0.3151910003	 0.257399
H	-0.7380724001	 1.6450560638	-0.8130492039	 0.254938
H	-0.989010812	-1.7766223847	 1.9295239374	 0.147016
H	-2.775261651	-1.5758540766	 1.6009941703	 0.113938
H	-0.6459966975	-2.9147148325	-0.2770126158	 0.11303
H	-2.5565317247	-2.5172603351	-2.1592232477	 0.095767
H	-4.4639396673	-0.9836759673	-1.5368151028	 0.116596
H	-4.1508302168	-1.244804263	 0.227850399	 0.11627
H	-2.2930003588	 0.2771321292	-1.7955849176	 0.086828
70.6324	148.9968	195.3902	317.7245	366.2789	399.5106	429.0053	470.3261	526.856	565.9536	638.5767	701.9085	728.9708	778.6931	802.7805	831.293	889.9423	912.5816	918.6526	959.8208	992.754	1025.3319	1035.9479	1063.9702	1071.0418	1088.9766	1097.7519	1107.4381	1169.1366	1195.2641	1236.2067	1292.9972	1320.8081	1341.9395	1409.1992	1470.8817	1507.7507	1615.9992	1772.579	3127.3344	3142.8546	3182.7714	3196.6945	3208.1354	3210.2655	3228.7228	3586.7999	3715.4694
NC(=O)C12CC1C1CC21	NC(=O)[C@]12C[C@H]1[C@H]1C[C@@H]21	
InChI=1S/C7H9NO/c8-6(9)7-2-5(7)3-1-4(3)7/h3-5H,1-2H2,(H2,8,9)	InChI=1S/C7H9NO/c8-6(9)7-2-5(7)3-1-4(3)7/h3-5H,1-2H2,(H2,8,9)/t3-,4+,5-,7-/m0/s1
