19
gdb 83894	2.60687	1.42374	1.20035	1.0847	82.68	-0.2404	0.0446	0.285	1119.1848	0.158995	-385.851895	-385.843291	-385.842347	-385.884695	33.192	
C	-0.1722367049	 1.5535906634	-0.0185743308	-0.432658
C	 0.0341144143	 0.0533924564	 0.0226984503	-0.053698
C	 1.3439226847	-0.6461515041	-0.2284845726	-0.130707
C	 2.6302579316	 0.1421813961	-0.0777921832	-0.098683
O	 2.5220037786	 0.8581989851	 1.1503709663	-0.258062
C	 1.6827256183	 0.1327259618	 2.0401006999	-0.155786
C	 0.7252094158	-0.6833931587	 1.1700023335	 0.13595
C	 0.1357420317	-1.856938481	 1.7364689026	 0.179494
C	-0.3575056013	-2.8338033024	 2.2375129785	-0.392424
H	 0.690547294	 2.0975143162	 0.3674912907	 0.147988
H	-0.3495444643	 1.8805943085	-1.0492088063	 0.118066
H	-1.0515445032	 1.8357296884	 0.570215981	 0.121073
H	-0.8158310305	-0.5088152772	-0.3556171654	 0.097346
H	 1.3591816988	-1.5400720087	-0.8407384944	 0.102662
H	 3.4896168418	-0.5465692689	-0.0633310687	 0.100623
H	 2.7984193906	 0.882830741	-0.8673505481	 0.112212
H	 2.2629198109	-0.5527893479	 2.6754315435	 0.105535
H	 1.1812875571	 0.8618617801	 2.6848154594	 0.115075
H	-0.7948998641	-3.697324218	 2.6733873937	 0.185994
130.9207	151.8961	182.8785	200.8706	233.2228	239.9224	379.7075	466.8896	505.9607	527.8049	543.0833	578.9011	647.7038	685.6523	720.6959	812.4329	862.765	936.3235	938.3064	994.344	1018.0936	1061.2507	1072.6183	1088.7379	1116.8479	1122.7949	1145.0105	1219.2549	1241.8438	1249.0751	1262.2743	1348.6626	1363.5015	1377.4837	1416.3478	1454.6519	1499.8084	1505.5522	1515.6837	1524.0413	2233.6235	2981.529	2996.2815	3036.2302	3062.077	3071.7516	3090.4541	3134.2322	3151.4333	3185.6076	3503.6248
CC1C2COCC12C#C	C[C@H]1[C@H]2COC[C@@]12C#C	
InChI=1S/C8H10O/c1-3-8-5-9-4-7(8)6(8)2/h1,6-7H,4-5H2,2H3	InChI=1S/C8H10O/c1-3-8-5-9-4-7(8)6(8)2/h1,6-7H,4-5H2,2H3/t6-,7+,8-/m0/s1
