19
gdb 97294	2.52773	1.14377	0.83061	4.8686	84.45	-0.2394	-0.0156	0.2238	1421.6937	0.157676	-419.234963	-419.225396	-419.224452	-419.269871	34.02	
C	 0.0363060368	 1.4823467387	-0.0725462788	-0.309221
N	 0.0405314932	 0.0452177779	 0.089391733	-0.183902
C	 0.5388030547	-0.6435310753	-0.8452361639	 0.085531
N	 0.6025682902	-2.0265956236	-0.8289757072	-0.131182
C	 1.1394150993	-2.9577125328	-1.8475275658	 0.049356
C	 2.6339605447	-2.8438353271	-2.1078553841	-0.402764
C	 0.6653234966	-4.1243296771	-0.9347060056	-0.400431
C	 0.1445159673	-3.0396045961	 0.0280845331	 0.431445
O	-0.4288519796	-3.0187368338	 1.0760545004	-0.327546
H	 0.5815181395	 1.9461296644	 0.7576792207	 0.131124
H	 0.4836948668	 1.8272424315	-1.020089777	 0.092258
H	-0.9936312695	 1.8539100758	-0.0201437065	 0.131731
H	 0.9703864758	-0.218665105	-1.7655455488	 0.081212
H	 0.5780013234	-2.8947341465	-2.7867984877	 0.094294
H	 3.1985096806	-2.9216700822	-1.1733915554	 0.130708
H	 2.9608644554	-3.6439756128	-2.7795477508	 0.1296
H	 2.8855713721	-1.8890055654	-2.5808427306	 0.125831
H	-0.1148162619	-4.7668058067	-1.3466569195	 0.137
H	 1.4654330845	-4.741225864	-0.5198474056	 0.134958
79.3825	101.8286	109.2395	125.0599	205.0957	235.797	278.7593	331.3937	351.2824	431.3983	472.1244	524.6224	559.9271	715.6964	796.7205	889.8397	909.949	971.4114	980.9666	1040.853	1055.1751	1068.768	1108.1661	1138.8796	1139.8099	1172.888	1188.6744	1235.9969	1279.4296	1381.7819	1389.5441	1407.7113	1414.1093	1446.7863	1461.6674	1476.5151	1489.3675	1496.7235	1502.6268	1750.6526	1896.9971	2960.0778	2985.4787	3035.4068	3038.4841	3057.6551	3076.7863	3083.4501	3105.7154	3114.8188	3140.3784
CN=CN1C(C)CC1=O	CN=CN1[C@@H](C)CC1=O	
InChI=1S/C6H10N2O/c1-5-3-6(9)8(5)4-7-2/h4-5H,3H2,1-2H3	InChI=1S/C6H10N2O/c1-5-3-6(9)8(5)4-7-2/h4-5H,3H2,1-2H3/t5-/m0/s1
