15
gdb 132265	2.02531	1.73278	0.93925	2.9705	75.03	-0.2139	-0.0398	0.1741	1169.6518	0.111823	-461.955077	-461.947248	-461.946304	-461.987573	29.475	
C	-0.0133953891	 1.5305162175	-0.0069867176	-0.485423
C	-0.0182357802	 0.028388705	 0.0017322795	 0.33023
C	-1.1592738579	-0.6934342702	-0.1075600731	-0.258312
C	-1.1659831468	-2.1376792014	-0.0993434514	 0.392688
N	-2.1934541691	-2.8711602205	-0.1976424168	-0.533104
O	 0.1126461729	-2.7456113422	 0.0325948383	-0.249628
C	 1.2080839045	-2.0042737377	 0.1369527482	 0.413703
F	 2.2718126525	-2.7680668368	 0.2480552858	-0.038907
C	 1.2435330559	-0.6638269769	 0.1319002229	-0.45625
H	 0.5995767632	 1.9106285312	-0.8325708557	 0.140997
H	-1.022092646	 1.935079127	-0.1101739849	 0.136121
H	 0.4246238366	 1.9213200781	 0.9188850784	 0.141007
H	-2.1298500062	-0.2254661661	-0.2072825523	 0.11975
H	-1.9495530851	-3.8601889076	-0.1671247753	 0.226844
H	 2.1867378749	-0.1450229594	 0.2225902942	 0.120284
129.1377	149.6689	179.9839	217.2045	285.6278	343.1478	471.1863	523.5196	554.7131	555.8733	613.7964	659.17	709.0867	794.4156	824.7615	872.7832	875.1065	982.3914	990.4839	1051.4172	1061.861	1078.5509	1163.032	1235.9106	1269.5126	1384.2779	1410.5773	1439.5912	1477.6525	1485.808	1620.9808	1702.3451	1760.1506	3031.1031	3083.2209	3131.4325	3221.6867	3237.377	3506.1838
CC1=CC(=N)OC(F)=C1	C[C@@H]1C=C([NH])OC(=C1)F	
InChI=1S/C6H6FNO/c1-4-2-5(7)9-6(8)3-4/h2-3,8H,1H3	InChI=1S/C6H7FNO/c1-4-2-5(7)9-6(8)3-4/h2-4,8H,1H3/t4-/m0/s1
