21
gdb 54147	2.34786	1.34689	1.19074	2.2598	79.08	-0.236	0.0216	0.2576	1188.7766	0.180417	-420.428426	-420.417881	-420.416937	-420.463554	39.111	
C	-0.038264366	 1.4731028862	-0.1270260361	-0.444748
C	 0.0496109028	-0.0284826049	 0.0632752416	 0.302264
C	-1.0662224799	-0.7868857963	-0.6329294091	-0.463319
N	 1.4211529556	-0.5964467829	 0.0105293675	-0.42889
C	 0.6737797495	-0.6211604551	 1.2879168331	 0.179258
C	 1.2347575408	 0.221179953	 2.4205852973	-0.446468
C	 0.0875926213	-1.9162530738	 1.8257017819	 0.313512
N	 0.748712678	-3.0625821793	 1.4573496543	-0.524304
O	-0.8941093948	-1.9283574804	 2.5408606123	-0.362154
H	 0.8340237304	 1.9892412305	 0.2746074279	 0.127686
H	-0.0978887699	 1.709092551	-1.1954737988	 0.117833
H	-0.9369527059	 1.874074254	 0.3541046622	 0.121765
H	-1.0667545993	-0.5570690366	-1.7046177278	 0.114937
H	-0.9659350618	-1.8692108161	-0.5173065303	 0.127246
H	-2.0417744398	-0.4990603396	-0.2277945573	 0.135977
H	 1.3772218292	-1.5057578748	-0.4462831869	 0.219495
H	 1.660411429	 1.1538531441	 2.0506117794	 0.127363
H	 0.4474343875	 0.4421687239	 3.1461674988	 0.142722
H	 2.0311630513	-0.3228283998	 2.9412312126	 0.115032
H	 1.7018758133	-3.0121452758	 1.1359811374	 0.263692
H	 0.4705212087	-3.9085762272	 1.93199999	 0.261101
54.1999	130.5015	149.4906	157.8865	173.2005	217.7603	266.9082	289.4862	334.9639	378.9636	402.1201	431.7128	473.7485	520.9927	546.5133	592.252	664.1823	716.5324	786.3483	831.6908	908.6304	960.8646	990.0219	1012.1882	1055.107	1081.273	1086.7042	1118.1281	1158.0708	1170.8831	1245.5526	1318.0649	1362.1097	1402.5696	1409.9692	1417.9841	1426.5344	1474.6883	1483.1425	1486.0999	1497.5585	1505.0953	1517.2098	1615.2816	1793.6069	3030.9152	3037.1953	3041.3201	3092.1683	3097.2974	3107.7614	3117.5837	3141.0135	3155.1013	3475.091	3576.4482	3705.2354
CC1(C)NC1(C)C(N)=O	CC1(C)N[C@]1(C)C(=O)N	
InChI=1S/C6H12N2O/c1-5(2)6(3,8-5)4(7)9/h8H,1-3H3,(H2,7,9)	InChI=1S/C6H12N2O/c1-5(2)6(3,8-5)4(7)9/h8H,1-3H3,(H2,7,9)/t6-/m1/s1
