17
gdb 33957	3.261	1.429	1.23955	3.4151	76.79	-0.2585	0.0121	0.2706	1035.309	0.138677	-380.855344	-380.848257	-380.847313	-380.886696	28.537	
N	 0.048869657	-1.1384771368	-0.105197849	-0.342486
C	 0.0496820961	 0.0142981577	-0.0028614112	 0.181963
C	 0.0410411063	 1.4440458166	 0.1176202913	 0.219517
N	 0.2953201548	 2.2662922431	-1.0963178471	-0.361886
C	 1.3001054708	 2.2530876177	-0.0273369554	-0.079343
C	 1.2291158959	 3.4310916073	 0.9387143787	-0.238143
C	-0.1371487532	 3.3493760952	 1.6299337351	-0.043922
C	-1.4029074183	 3.4637881849	 0.8185900373	-0.28883
C	-0.8560932274	 2.0992896736	 1.1539078693	-0.098722
H	 0.5914881402	 1.6645034219	-1.8619928402	 0.249392
H	 2.2543578892	 1.7732442982	-0.2206950126	 0.112659
H	 2.0244694728	 3.3243594314	 1.6836677296	 0.114161
H	 1.3899271694	 4.3812810776	 0.4188346368	 0.121977
H	-0.1812934098	 3.6391603985	 2.6737680866	 0.093602
H	-2.297214664	 3.774615741	 1.3477040287	 0.112593
H	-1.3386062154	 3.7882524274	-0.2122300076	 0.145084
H	-1.3909697542	 1.4422997948	 1.8275579498	 0.102384
137.564	157.5411	265.0484	315.3817	410.2598	457.7739	511.5458	552.8978	613.6982	687.4953	700.6315	795.6342	800.925	842.2058	855.3893	906.3721	929.8656	988.5481	1008.5612	1021.7628	1063.42	1084.754	1092.3175	1107.3588	1114.7219	1160.065	1200.6192	1221.4278	1252.1862	1274.4225	1322.2754	1351.2939	1394.1661	1418.4386	1472.4497	1482.8521	2348.6508	3048.7312	3088.9405	3142.8476	3165.3146	3170.8647	3197.5703	3238.5712	3498.9622
N#CC12NC1CC1CC21	N#C[C@]12N[C@H]1C[C@H]1C[C@@H]21	
InChI=1S/C7H8N2/c8-3-7-5-1-4(5)2-6(7)9-7/h4-6,9H,1-2H2	InChI=1S/C7H8N2/c8-3-7-5-1-4(5)2-6(7)9-7/h4-6,9H,1-2H2/t4-,5-,6+,7-/m1/s1
