14
gdb 132883	3.05819	1.36715	0.94479	3.8942	71.29	-0.1839	-0.0332	0.1507	1128.2155	0.101633	-478.002453	-477.994869	-477.993925	-478.034368	29.387	
O	-0.083346693	 1.3902728312	 0.010960469	-0.446435
C	 0.0320199341	 0.0261884557	 0.0027145593	 0.304969
C	 1.2004254605	-0.6615845097	-0.0075490417	-0.113007
N	 1.1918960562	-2.039471819	-0.0151565994	-0.358919
C	 0.0617613564	-2.8472577531	-0.0134462965	 0.297872
N	 0.1872013201	-4.1263833859	-0.0213098071	-0.58074
C	-1.1651222913	-2.0594638163	-0.0022439765	 0.205321
F	-2.2913997833	-2.7738998876	 0.0000177788	-0.072873
C	-1.196955003	-0.7105882746	 0.0054182341	-0.269056
H	 0.7941152943	 1.7858123739	 0.0078186726	 0.298496
H	 2.1755379732	-0.1913231156	-0.0102886342	 0.118446
H	 2.063858529	-2.5472427727	-0.0228545401	 0.264851
H	-0.7330311812	-4.5603212474	-0.0186194092	 0.2193
H	-2.139698282	-0.176384079	 0.013594651	 0.131774
114.9599	224.7546	273.6028	314.0469	331.4859	339.8764	414.4503	463.3732	511.9592	581.5531	591.782	609.5109	712.7663	740.8768	782.61	793.6176	825.5914	907.0192	983.3109	1069.1097	1162.1844	1220.274	1235.9358	1296.3454	1316.5907	1414.7778	1455.0599	1505.4426	1621.7992	1673.3489	1729.0075	3208.6067	3209.2344	3521.7831	3626.2487	3828.9801
OC1=CNC(=N)C(F)=C1	OC1=CC(=C(NC1)[NH])F	
InChI=1S/C5H5FN2O/c6-4-1-3(9)2-8-5(4)7/h1-2,9H,(H2,7,8)	InChI=1S/C5H6FN2O/c6-4-1-3(9)2-8-5(4)7/h1,7-9H,2H2
