18
gdb 80243	2.42432	1.60331	1.27974	4.1636	71.77	-0.2408	0.0206	0.2614	1044.5973	0.148423	-439.091529	-439.083466	-439.082522	-439.123638	31.764	
C	-0.0776799665	 1.6327191699	-0.0029511687	-0.441469
C	 0.0189735106	 0.1179930059	 0.0034984343	 0.038005
C	 1.1662084917	-0.6273785309	-0.7555414872	-0.09081
N	 2.4015952245	-0.1194211343	-0.132060928	-0.312698
C	 2.0672125453	-0.0142443179	 1.2177641238	 0.405773
O	 2.7085800273	 0.4849774117	 2.1075892487	-0.380558
C	 0.6710336441	-0.656054409	 1.2200092371	-0.194016
C	 0.9066264274	-1.8290049253	 0.2162024232	 0.146328
O	-0.2626970729	-2.5784842296	 0.0152015212	-0.43455
H	 0.8780103771	 2.1143090928	 0.2246347642	 0.126614
H	-0.4146828781	 1.9938051085	-0.9809413114	 0.116181
H	-0.8038489654	 1.9749667538	 0.7416576191	 0.128444
H	-0.9426207081	-0.338181343	-0.2352162728	 0.102195
H	 1.2209156983	-0.7301839241	-1.8392935175	 0.075216
H	 2.9978882192	 0.5665758783	-0.5694417211	 0.251166
H	 0.1902515182	-0.7903782683	 2.1855885134	 0.090702
H	 1.7814997519	-2.4638252469	 0.4018843707	 0.084303
H	-0.0891156546	-3.2243723714	-0.6771295989	 0.289174
143.9571	200.2095	219.6491	257.7869	295.8736	307.6431	353.9165	401.1964	484.0485	518.5763	605.4207	664.99	735.4518	748.5085	835.7126	848.7878	891.2433	949.0803	979.3556	1006.7332	1050.5737	1058.1898	1101.0226	1107.763	1143.6773	1174.4505	1186.5351	1207.7246	1235.9474	1249.4343	1300.0519	1319.6521	1364.5245	1387.643	1417.6278	1431.3036	1495.9524	1497.4832	1863.687	3033.6071	3035.5875	3096.6876	3100.2263	3116.8468	3122.0149	3160.9608	3626.2208	3816.5602
CC1C2NC(=O)C1C2O	C[C@H]1[C@H]2NC(=O)[C@@H]1[C@H]2O	
InChI=1S/C6H9NO2/c1-2-3-5(8)4(2)7-6(3)9/h2-5,8H,1H3,(H,7,9)	InChI=1S/C6H9NO2/c1-2-3-5(8)4(2)7-6(3)9/h2-5,8H,1H3,(H,7,9)/t2-,3+,4-,5-/m1/s1
