14
gdb 46828	2.65045	1.67553	1.19092	6.2903	67.43	-0.259	-0.0169	0.2421	997.9384	0.103178	-432.888523	-432.881134	-432.88019	-432.920515	27.573	
O	-0.0232280292	-0.0388547045	-0.0562423212	-0.355515
C	-0.0186694311	 1.1658009039	-0.0077319697	 0.41061
N	-1.0940179649	 1.9986986702	 0.1355931505	-0.330728
C	-0.8309527804	 3.426605892	 0.0601363285	-0.161633
C	 0.6885143236	 3.4928893338	-0.0216476338	-0.102575
N	 1.3420603583	 2.9018743409	 1.1453242059	-0.345448
C	 1.1959659403	 2.0900238251	-0.102194304	 0.090806
C	 2.3524979258	 1.7028015049	-0.8508419374	 0.210472
N	 3.2997107006	 1.4060338045	-1.4437293485	-0.332039
H	-2.0072123065	 1.6148666527	 0.3175135332	 0.265441
H	-1.286713052	 3.875345378	-0.8312514673	 0.126056
H	-1.1987867159	 3.95561557	 0.9465907426	 0.135248
H	 1.1654052127	 4.3002623108	-0.5640720606	 0.13067
H	 2.3047197086	 3.2317697076	 1.2029339918	 0.258635
115.4475	143.5739	178.5831	261.873	385.5443	402.3105	481.9025	512.2054	570.6814	602.6703	662.6302	719.2388	781.8302	852.3764	872.99	923.6549	1010.325	1038.9185	1072.4766	1093.9675	1147.3072	1224.7617	1228.1954	1285.4207	1341.6232	1346.998	1422.889	1454.7153	1515.6044	1849.299	2360.3529	3024.3646	3066.5509	3195.8666	3489.1204	3653.4548
O=C1NCC2NC12C#N	O=C1NC[C@H]2N[C@@]12C#N	
InChI=1S/C5H5N3O/c6-2-5-3(8-5)1-7-4(5)9/h3,8H,1H2,(H,7,9)	InChI=1S/C5H5N3O/c6-2-5-3(8-5)1-7-4(5)9/h3,8H,1H2,(H,7,9)/t3-,5-/m1/s1
