18
gdb 31148	1.99293	1.76414	0.99071	1.5059	75.45	-0.1628	0.0657	0.2286	1184.8908	0.148463	-435.276795	-435.26718	-435.266236	-435.310802	35.585	
C	 0.4482208288	 1.3724874391	 0.4182563211	-0.323245
N	-0.2068920798	 0.2584989062	-0.2800516305	-0.418216
C	 0.5832493495	-0.395873056	-1.2647347298	 0.037441
C	 0.2335156489	-0.3768158177	-2.5964370319	 0.381983
O	-0.8459763435	 0.1838844272	-3.1812708897	-0.440897
N	 1.1670027191	-1.0371921884	-3.3202124082	-0.32396
C	 2.1555974197	-1.5192459661	-2.4532282897	-0.188004
C	 1.8190674986	-1.1300986965	-1.1800506052	 0.185143
N	 2.5550708445	-1.3200571398	 0.0087883661	-0.609842
H	 1.3832379946	 1.0916492281	 0.9236320431	 0.119871
H	 0.6857671025	 2.1566303582	-0.3068049438	 0.125389
H	-0.2422186522	 1.7897455028	 1.1587483223	 0.106254
H	-0.5912818567	-0.3934869751	 0.3961952429	 0.217988
H	-1.3370901837	 0.5794147424	-2.4445980821	 0.298693
H	 1.1336995753	-1.1717788278	-4.3141169707	 0.26239
H	 2.9975005991	-2.0752023737	-2.8294180913	 0.100433
H	 3.254292268	-2.0461617414	-0.0892019981	 0.236406
H	 1.9536979072	-1.5637508318	 0.7874796553	 0.232172
98.2601	140.0416	164.1707	184.9258	207.6079	223.3192	264.9781	290.9391	388.4921	421.6573	510.4206	556.1599	563.5252	574.9114	642.5078	690.0889	703.9992	763.4258	808.6023	820.8328	1033.2393	1053.1468	1079.1041	1130.4391	1151.8117	1173.3885	1210.0424	1268.288	1308.9738	1386.021	1432.3087	1452.5791	1466.3545	1488.2006	1521.7598	1586.1839	1602.4921	1646.2582	1673.9025	2999.5916	3070.2268	3105.7559	3271.702	3495.2316	3513.8908	3602.4504	3701.9352	3723.5245
CNC1=C(O)NC=C1N	CNc1c(O)[nH]cc1N	
InChI=1S/C5H9N3O/c1-7-4-3(6)2-8-5(4)9/h2,7-9H,6H2,1H3	InChI=1S/C5H9N3O/c1-7-4-3(6)2-8-5(4)9/h2,7-9H,6H2,1H3
