20
gdb 63237	2.5315	1.62843	1.36253	2.4463	80.14	-0.2243	0.0064	0.2307	1047.3062	0.170888	-403.127452	-403.118927	-403.117983	-403.16009	33.773	
C	 0.2202063382	 1.5368265123	-0.0307694881	-0.42011
C	-0.0093250156	 0.0202932551	-0.0236684384	 0.326552
O	-1.4194962442	-0.2464139742	 0.1281553107	-0.472443
C	 0.5004283333	-0.6216471341	-1.2932525127	-0.125003
C	 1.0081591679	-1.851018565	-1.3190126342	-0.067581
C	 1.1635006189	-2.6902503589	-0.0785143183	-0.209996
N	 1.1757207252	-1.9619797709	 1.1920917496	-0.109658
C	 2.0858167952	-0.8206418794	 1.2989767448	-0.266468
C	 0.6167746191	-0.6101273938	 1.2119212133	-0.007546
H	 1.2843374551	 1.7778306568	-0.1139706063	 0.120123
H	-0.2984743878	 1.9965244581	-0.880802166	 0.101425
H	-0.1714800649	 1.9836532012	 0.8873822392	 0.123792
H	-1.8570864932	 0.0232346166	-0.6865902531	 0.273169
H	 0.4039016954	-0.0407350303	-2.2086427877	 0.08263
H	 1.3255394361	-2.2965483435	-2.2592502597	 0.094061
H	 0.3414255745	-3.4187239369	-0.0309131609	 0.126197
H	 2.0866882036	-3.2805066085	-0.1357323761	 0.111491
H	 2.6003333405	-0.7238761971	 2.2512079579	 0.111567
H	 2.6792811296	-0.5507795671	 0.4276922134	 0.110355
H	 0.0600024731	-0.3747682204	 2.1171318326	 0.097444
74.7243	210.5994	231.1894	242.2337	273.9263	319.7503	349.6314	391.2896	414.0966	535.2805	543.6368	549.5513	696.874	723.7476	734.4008	855.4758	887.4194	914.7079	928.9246	940.724	988.016	1010.3737	1048.3291	1069.8837	1093.0671	1121.2068	1125.0803	1134.895	1164.7454	1200.7571	1218.0536	1276.5959	1319.7531	1349.268	1380.851	1398.5828	1399.661	1424.5215	1474.3712	1487.2117	1490.9686	1506.311	1720.1497	3005.2806	3026.2894	3043.5327	3095.0049	3098.5665	3117.4841	3122.7944	3133.1353	3159.0428	3183.0818	3806.2153
CC1(O)C=CCN2CC12	C[C@@]1(O)C=CCN2C[C@@H]12	
InChI=1S/C7H11NO/c1-7(9)3-2-4-8-5-6(7)8/h2-3,6,9H,4-5H2,1H3	InChI=1S/C7H11NO/c1-7(9)3-2-4-8-5-6(7)8/h2-3,6,9H,4-5H2,1H3/t6-,7+,8?/m0/s1
