14
gdb 25458	2.69572	1.4081	0.92495	1.6186	76.01	-0.2501	-0.0776	0.1725	1158.6691	0.101497	-436.751331	-436.743721	-436.742777	-436.783874	27.338	
O	-0.029729344	-0.0574591449	-0.0018702661	-0.278924
C	-0.0196794149	 1.1439946497	 0.0074137732	 0.174129
N	 1.1583193317	 1.9000711607	 0.0002128646	-0.133779
C	 2.4175045695	 1.3351606955	-0.0182333213	-0.053693
C	 3.3472605721	 2.3420646461	-0.0204229966	-0.165663
C	 2.644156645	 3.5752498532	-0.0027451512	-0.193794
C	 1.2936383523	 3.3024663743	 0.0099168549	 0.213207
C	 0.1975006544	 4.2620297443	 0.0294791616	 0.079804
O	 0.370382825	 5.4625625461	 0.037452633	-0.272761
H	-0.9275890524	 1.7645242989	 0.0226939962	 0.118519
H	 2.513174279	 0.2623297657	-0.0278460588	 0.167991
H	 4.4179219507	 2.2089872719	-0.03332222	 0.126699
H	 3.0591848033	 4.5710913984	 0.0006356705	 0.145753
H	-0.8307682717	 3.8429697802	 0.03724115	 0.072511
114.0366	155.069	176.7909	190.4746	258.5106	294.4178	439.765	553.0215	613.3941	641.7532	764.3079	791.6087	838.7588	872.2628	917.4874	917.6206	1014.8569	1025.8948	1037.2405	1085.8956	1162.3586	1262.6886	1319.7668	1340.9735	1410.8985	1452.4613	1477.1002	1488.1552	1592.1807	1771.4277	1821.9725	2895.8671	3035.294	3254.9981	3270.6595	3292.2263
O=CN1C=CC=C1C=O	O=Cn1cccc1C=O	
InChI=1S/C6H5NO2/c8-4-6-2-1-3-7(6)5-9/h1-5H	InChI=1S/C6H5NO2/c8-4-6-2-1-3-7(6)5-9/h1-5H
