20
gdb 6981	2.39508	2.26759	1.60708	2.0809	70.15	-0.2421	0.0673	0.3094	913.1488	0.176085	-386.15232	-386.143442	-386.142498	-386.185343	33.272	
C	 0.2249007848	 1.5040057269	-0.0120705769	-0.418508
C	-0.0007250731	-0.0138241809	 0.0378927941	 0.36887
C	-1.4882213216	-0.3465579394	 0.0455375747	-0.432488
O	 0.5766981398	-0.6536837481	-1.105796871	-0.2949
C	 1.9682720895	-0.8786310927	-0.8770802557	-0.074712
C	 2.1911370004	-0.8263735314	 0.6506462485	-0.290677
C	 0.7618656143	-0.6756103349	 1.208890605	 0.104553
O	 0.6536834254	 0.1133996641	 2.3797463433	-0.435488
H	 1.289463781	 1.7546792991	-0.0348800014	 0.109147
H	-0.2392367621	 1.9096334182	-0.9155044475	 0.114428
H	-0.2117558571	 1.9905309844	 0.8630241608	 0.129997
H	-1.9946453912	 0.1145282618	-0.8072971872	 0.117703
H	-1.6349464306	-1.4288266443	-0.0131766538	 0.114057
H	-1.950105512	 0.0234208916	 0.9657290431	 0.123891
H	 2.2169486402	-1.8534701282	-1.308967511	 0.103801
H	 2.5730215746	-0.1217198902	-1.3954890454	 0.095747
H	 2.6989111662	-1.7166357036	 1.0306439693	 0.098635
H	 2.7797585149	 0.0468921467	 0.9457946264	 0.1124
H	 0.3220510184	-1.6700502595	 1.3757101779	 0.066762
H	 1.0620850581	-0.3657730197	 3.1065067967	 0.286782
70.7671	131.2243	197.2749	227.4649	252.8342	266.6087	281.2753	348.6569	402.7142	450.9121	542.3481	572.8656	685.5039	730.901	845.5371	858.4801	923.6371	949.6089	979.5439	1001.4742	1014.0279	1067.2805	1089.0932	1130.0382	1166.5761	1197.7714	1214.4532	1240.6208	1269.3874	1286.1081	1296.8145	1357.2109	1389.3912	1395.324	1407.4531	1435.6652	1477.9168	1482.5724	1497.0639	1499.0208	1509.7445	1531.7676	2986.6859	3002.3364	3040.0927	3047.6754	3059.4035	3061.9033	3106.3863	3114.0003	3116.652	3118.7284	3132.881	3830.5393
CC1(C)OCCC1O	CC1(C)OCC[C@H]1O	
InChI=1S/C6H12O2/c1-6(2)5(7)3-4-8-6/h5,7H,3-4H2,1-2H3	InChI=1S/C6H12O2/c1-6(2)5(7)3-4-8-6/h5,7H,3-4H2,1-2H3/t5-/m1/s1
