14
gdb 42869	3.19599	1.47077	1.46323	4.0371	63.63	-0.2599	-0.0594	0.2004	932.9333	0.101398	-473.815214	-473.808305	-473.80736	-473.846884	26.412	
N	-0.0762532073	 1.1887210152	-0.43902583	-0.543353
C	-0.0084328342	 0.0154063957	 0.0053283874	 0.482315
O	 1.1723555826	-0.6363864706	 0.255500599	-0.284784
C	 1.0959796351	-1.9663575352	 0.8030967868	-0.005899
C	 0.0322642605	-1.9809111459	 1.9314491266	-0.288552
C	-1.0280667816	-1.9933606179	 0.7984700117	 0.002736
O	-1.1555626856	-0.6710122825	 0.2567121323	-0.253806
C	 0.0468721299	-2.7545974241	-0.0252713312	 0.411468
O	 0.0616590005	-3.6601197285	-0.7979759751	-0.284198
H	 0.8588769407	 1.5638121763	-0.5796798958	 0.235901
H	 2.1157728521	-2.3163813971	 0.9476992111	 0.120577
H	 0.0426611197	-2.9166009075	 2.4950868164	 0.139558
H	 0.0189333454	-1.1181627402	 2.5991706189	 0.144382
H	-2.0346581576	-2.3798323976	 0.9415537318	 0.123654
76.8659	157.9131	240.1949	406.7742	432.2585	434.4976	501.3502	543.179	675.5447	707.238	797.5081	813.3112	827.8722	839.6008	894.0048	950.7337	970.4733	1015.0579	1043.8733	1091.638	1121.1851	1137.7502	1153.6983	1235.8024	1237.0018	1252.6267	1344.4684	1375.2736	1462.1134	1779.9744	1917.1166	3078.9404	3148.7869	3151.5172	3154.4155	3537.8598
N=C1OC2CC(O1)C2=O	[NH][C]1O[C@H]2C[C@@H](O1)C2=O	
InChI=1S/C5H5NO3/c6-5-8-2-1-3(9-5)4(2)7/h2-3,6H,1H2	InChI=1S/C5H5NO3/c6-5-8-2-1-3(9-5)4(2)7/h2-3,6H,1H2/t2-,3+
