15
gdb 29423	3.80837	1.07132	0.83699	2.6678	73.28	-0.1876	-0.0035	0.1841	1290.5985	0.113586	-453.98937	-453.98115	-453.980206	-454.02244	30.484	
N	 0.103141046	 1.3098998516	-0.4644607393	-0.606487
C	-0.0139610749	-0.0047314512	-0.0021400145	 0.256908
C	-0.801286792	-0.4835626724	 1.0009779279	-0.113272
O	-0.5444145159	-1.8305007838	 1.1953266885	-0.202022
C	 0.3998669622	-2.1697961243	 0.2962778878	 0.489024
N	 0.7765361198	-3.5047310057	 0.3464398866	-0.40783
C	 1.7017990716	-4.0973855039	-0.469933296	 0.143916
O	 2.3160906531	-3.5349219054	-1.3481348613	-0.302378
C	 0.7781258313	-1.1128028042	-0.4708132737	-0.364038
H	 0.3124433472	 1.3600966078	-1.4526285023	 0.248915
H	-0.705344694	 1.8814798616	-0.2589873224	 0.244059
H	-1.53849234	-0.0502223888	 1.6530211611	 0.12146
H	 0.3192626953	-4.0655375488	 1.0497184717	 0.264948
H	 1.821955684	-5.1694611677	-0.2262828053	 0.088209
H	 1.5205472864	-1.1259175648	-1.2488596686	 0.138588
74.068	147.8954	164.1932	231.1618	302.5458	307.201	392.7735	428.5479	535.405	565.7588	594.4416	640.2025	680.2926	717.6627	743.8529	791.2576	854.3721	985.3433	1002.0677	1004.1456	1095.8001	1125.8214	1148.2242	1206.8443	1261.6533	1323.4747	1430.2342	1438.6924	1556.5756	1608.3774	1654.8891	1681.2793	1801.7084	2960.532	3295.6064	3298.7341	3544.8463	3626.5011	3635.5729
NC1=COC(NC=O)=C1	Nc1coc(NC=O)c1	
InChI=1S/C5H6N2O2/c6-4-1-5(7-3-8)9-2-4/h1-3H,6H2,(H,7,8)	InChI=1S/C5H6N2O2/c6-4-1-5(7-3-8)9-2-4/h1-3H,6H2,(H,7,8)
