14
gdb 25101	3.59159	1.40824	1.0116	2.2152	78.72	-0.2576	-0.0855	0.1721	1085.2252	0.104615	-429.066778	-429.059499	-429.058555	-429.100558	26.704	
N	-0.0909291766	 0.892207911	 1.2193536524	-0.500622
C	-0.0013782808	 0.1327816086	 0.199989389	 0.439194
N	-1.2095010794	-0.4664041224	-0.2041804652	-0.32607
C	-1.5244850418	-1.3184137474	-1.2174254937	 0.114112
N	-0.828110298	-1.8618911364	-2.1444714425	-0.347444
C	 0.5383515675	-1.6710935747	-2.3229072594	 0.317237
N	 1.1747418973	-2.2482889823	-3.2750799423	-0.465549
C	 1.420125829	-0.8112788569	-1.4768557247	 0.035939
N	 1.2131452313	-0.0774817736	-0.454544808	-0.302089
H	 0.8336426086	 1.2694212538	 1.4223859792	 0.243735
H	-1.9722086415	-0.1871644903	 0.3989139564	 0.273795
H	-2.5877912581	-1.5620990077	-1.202807895	 0.133596
H	 0.5114225314	-2.8169409631	-3.8095237048	 0.233386
H	 2.4471122311	-0.8456532185	-1.8430826513	 0.15078
11.5611	98.2275	304.6146	355.9238	398.4791	405.9543	421.9263	543.3378	637.47	676.7983	713.5008	782.3831	809.1379	864.2726	906.8137	908.3721	958.7647	1000.3841	1011.0548	1040.7267	1118.5266	1238.1732	1344.1988	1386.6035	1413.7305	1475.7589	1502.1519	1651.522	1693.6487	1707.2442	1735.7064	3125.1016	3130.1686	3444.6133	3515.0869	3588.6147
N=C1NC=NC(=N)C=N1	[NH]C1=NC=C(N=CN1)[NH]	
InChI=1S/C4H5N5/c5-3-1-7-4(6)9-2-8-3/h1-2H,(H3,5,6,8,9)	InChI=1S/C4H5N5/c5-3-1-7-4(6)9-2-8-3/h1-2H,(H3,5,6,8,9)
