17
gdb 28065	4.91419	0.80768	0.75401	4.4912	78.19	-0.1916	-0.0079	0.1838	1485.1676	0.136097	-418.047763	-418.038665	-418.037721	-418.083306	32.473	
N	 0.1313859242	 1.4389810117	-0.0803159035	-0.607504
C	-0.0154531263	 0.0389249604	-0.0103870118	 0.302578
C	-1.1089563918	-0.7980922168	-0.0571521287	-0.320529
C	-0.6287143412	-2.1432190768	 0.0019498937	 0.256047
C	-1.4513655467	-3.4003662287	-0.0624192497	-0.386179
C	-1.4799014873	-3.9503711992	-1.4794849782	 0.16668
O	-1.1981936581	-5.0799437035	-1.7863203494	-0.24579
C	 0.7446793834	-2.0776107441	 0.0825504176	-0.175909
N	 1.1034717593	-0.7498719209	 0.0725883958	-0.262677
H	-0.7094702819	 1.8672181336	-0.4473344868	 0.248476
H	 0.3164228996	 1.855224412	 0.8281805413	 0.244975
H	-2.1420997164	-0.4858014749	-0.0989391362	 0.083029
H	-1.0731974731	-4.1851221265	 0.5987853815	 0.120537
H	-2.4870176343	-3.1823489067	 0.2313358461	 0.118161
H	-1.7721671516	-3.1974780255	-2.2472455517	 0.073459
H	 1.48531198	-2.8576211678	 0.1545560434	 0.123805
H	 2.0422072323	-0.3905147764	 0.0486868866	 0.26084
22.9232	58.2905	123.0689	143.1662	251.4632	256.8766	372.0026	417.591	450.3753	503.343	616.5273	648.7417	680.4382	707.7163	732.6269	780.7771	818.2242	825.7893	984.1872	1004.2168	1016.0088	1059.9758	1125.9762	1151.5136	1186.5109	1189.1623	1281.0754	1294.1612	1337.4177	1421.0764	1429.3751	1456.3663	1473.0779	1551.0505	1625.7111	1657.3092	1829.0672	2869.3456	3023.685	3096.4541	3237.3347	3264.7439	3489.8753	3597.235	3677.9622
NC1=CC(CC=O)=CN1	Nc1cc(CC=O)c[nH]1	
InChI=1S/C6H8N2O/c7-6-3-5(1-2-9)4-8-6/h2-4,8H,1,7H2	InChI=1S/C6H8N2O/c7-6-3-5(1-2-9)4-8-6/h2-4,8H,1,7H2
