20
gdb 61208	2.34307	1.03255	0.76318	4.4174	80.16	-0.2634	-0.0389	0.2245	1483.2999	0.168046	-403.181981	-403.171422	-403.170478	-403.218854	36.911	
C	 0.0438381641	 1.5472391505	-0.1367385607	-0.421126
C	-0.0229974002	 0.0227158397	 0.0188316623	 0.014291
C	 0.6800291491	-0.4201956085	 1.3295751417	-0.354501
C	 2.11241852	-0.1339819977	 1.3199472518	 0.264567
N	 3.244137768	 0.0987939587	 1.2903436192	-0.3128
C	-1.4801615242	-0.5256845376	-0.0019481535	-0.058259
C	-2.318110208	 0.0103643651	-1.1727491759	-0.433639
C	-1.4265930763	-2.0415742646	-0.0868029171	 0.155817
O	-1.5354926	-2.7941176839	 0.8472856461	-0.250021
H	 1.0767640033	 1.8932728142	-0.0390237578	 0.148727
H	-0.321543861	 1.8706387007	-1.1135706407	 0.128013
H	-0.5545564499	 2.0471611856	 0.6338347706	 0.121236
H	 0.5219310297	-0.4310399266	-0.8206495637	 0.099907
H	 0.2266907871	 0.0986923863	 2.1831077925	 0.151711
H	 0.5397219384	-1.4904575322	 1.5091562397	 0.172598
H	-1.961564761	-0.2735234717	 0.9507992195	 0.097773
H	-3.2994808711	-0.4737434173	-1.1985972487	 0.131276
H	-2.4835766842	 1.0857241954	-1.0845769646	 0.13631
H	-1.8265663699	-0.1789203513	-2.133714322	 0.127522
H	-1.2499761739	-2.432302665	-1.1175644087	 0.080598
29.1583	67.0712	78.6553	139.1392	200.1051	218.188	260.1661	307.3574	322.2662	355.2929	367.8211	396.7255	447.6423	514.1462	591.2808	824.2404	872.2813	888.0507	920.2596	964.1801	965.7285	995.2143	1062.677	1112.4572	1135.3538	1150.5401	1167.3109	1234.4471	1279.3836	1311.4849	1345.9365	1360.6534	1378.36	1408.0508	1417.6423	1428.7994	1466.8003	1493.1004	1494.882	1500.374	1514.2032	1827.548	2360.5577	2849.1395	3011.4759	3036.188	3038.09	3041.4959	3048.3007	3095.651	3102.4176	3108.4933	3124.5487	3132.182
CC(CC#N)C(C)C=O	C[C@@H](CC#N)[C@@H](C)C=O	
InChI=1S/C7H11NO/c1-6(3-4-8)7(2)5-9/h5-7H,3H2,1-2H3	InChI=1S/C7H11NO/c1-6(3-4-8)7(2)5-9/h5-7H,3H2,1-2H3/t6-,7-/m0/s1
