19
gdb 68204	3.07729	1.40389	1.22925	3.3189	75.96	-0.2408	-0.0258	0.2149	1084.2937	0.158595	-423.018729	-423.010661	-423.009717	-423.051291	31.338	
C	-0.1094869664	 1.5101218994	 0.0266444243	-0.49382
C	 0.0721511073	 0.0202231963	 0.0338810998	 0.44763
C	 0.977923111	-0.7765561457	-0.942406612	-0.275495
C	 0.6779243861	-1.9130758376	 0.0852463385	-0.098125
C	 0.7234837587	-0.8036477054	 1.179318193	-0.269087
C	-0.8599912668	-2.0251406429	-0.0880098377	 0.036595
O	-1.2111062806	-0.6434674355	-0.1246343722	-0.3045
C	-1.2587267371	-2.7844297775	-1.3375643996	 0.139181
O	-1.5575292982	-2.2892521881	-2.391703012	-0.237577
H	 0.8533675535	 2.0143817602	 0.1464221461	 0.118007
H	-0.5584935387	 1.8338224599	-0.9170900751	 0.137103
H	-0.7698212792	 1.8207479176	 0.8421291812	 0.129207
H	 0.6214762479	-0.8878920435	-1.9674958905	 0.127141
H	 2.0224206084	-0.4620128095	-0.9145242363	 0.101267
H	 1.2524928987	-2.8360710601	 0.1460185874	 0.081171
H	 1.7427841473	-0.4893748458	 1.4111733126	 0.104104
H	 0.1381117564	-0.9458639122	 2.0914515973	 0.099995
H	-1.3278625791	-2.5246825124	 0.7743667713	 0.086284
H	-1.2284031993	-3.8923983972	-1.2021885661	 0.07092
89.9062	133.3338	206.948	234.5855	295.3826	320.6674	375.6737	489.7249	520.0866	592.0514	663.5017	775.1212	802.7117	823.7458	854.4324	871.8219	896.6479	931.8486	956.8109	976.5466	1009.3239	1031.7705	1044.2186	1073.492	1112.2305	1130.0001	1190.1403	1193.8721	1219.6333	1232.9345	1271.6394	1282.7074	1340.5877	1368.8684	1419.1145	1420.7619	1471.9778	1481.173	1493.8153	1509.3631	1838.4462	2844.7696	2989.2888	3042.9038	3063.3333	3080.7911	3114.0354	3120.6904	3130.2124	3133.0207	3148.6693
CC12CC(C1)C(O2)C=O	C[C@@]12C[C@@H](C1)[C@@H](O2)C=O	
InChI=1S/C7H10O2/c1-7-2-5(3-7)6(4-8)9-7/h4-6H,2-3H2,1H3	InChI=1S/C7H10O2/c1-7-2-5(3-7)6(4-8)9-7/h4-6H,2-3H2,1H3/t5-,6-,7+/m0/s1
