21
gdb 84906	2.53196	1.28817	0.99596	2.7337	84.51	-0.2439	-0.021	0.2229	1254.9799	0.182952	-387.119984	-387.111009	-387.110065	-387.154044	33.838	
C	-0.1854779229	 1.5357806075	 0.0219406472	-0.405719
C	 0.0339449739	 0.0082808613	 0.0541398318	-0.033417
C	 0.6905141001	-0.462210488	-1.2211717368	-0.062396
C	 1.9285433347	-0.9470994408	-1.3021734618	-0.050356
C	 2.8510189388	-1.0802911804	-0.1202418778	-0.261722
C	 2.3449897156	-0.2929409352	 1.0955338991	-0.227455
C	 0.8328757356	-0.5056925814	 1.2888986905	-0.075172
C	 0.3450381424	 0.1396627351	 2.568818445	 0.145368
O	-0.4493879724	-0.3559969023	 3.3272982276	-0.260951
H	 0.7628081701	 2.0817788697	 0.0448221406	 0.121416
H	-0.7018700746	 1.8203924361	-0.9001747558	 0.119735
H	-0.8000144153	 1.8751448248	 0.8618223259	 0.12441
H	-0.9618443391	-0.4513376928	 0.1109524916	 0.095032
H	 0.0856731903	-0.3765058412	-2.122022267	 0.086423
H	 2.313592829	-1.2757000868	-2.2646807344	 0.08713
H	 2.9624449803	-2.1434779776	 0.1396732604	 0.113699
H	 3.8581035413	-0.7414275504	-0.3935942284	 0.106764
H	 2.8908600937	-0.5960100362	 1.9959135442	 0.103002
H	 2.5490661856	 0.7752956162	 0.9511592728	 0.107052
H	 0.6275002783	-1.5779741594	 1.3864506355	 0.096653
H	 0.7816770546	 1.1440093617	 2.7821171797	 0.070503
54.1098	90.4918	159.0937	226.9691	278.978	283.5013	289.692	377.4958	433.485	493.6481	511.9294	587.2926	713.4875	752.083	773.9418	875.6783	890.3373	923.3416	971.6169	1000.9642	1008.5444	1018.0616	1052.0436	1091.2477	1095.4008	1123.9185	1136.9705	1184.5333	1218.7419	1261.4573	1287.9183	1318.8069	1337.6163	1349.97	1369.6725	1383.9879	1404.5604	1421.9202	1434.0886	1476.7516	1492.5849	1496.5901	1504.4829	1725.5086	1828.2335	2849.9099	3000.7308	3011.4088	3026.9026	3034.9111	3044.1372	3046.8766	3071.8845	3103.165	3107.9268	3135.5946	3161.5318
CC1C=CCCC1C=O	C[C@H]1C=CCC[C@H]1C=O	
InChI=1S/C8H12O/c1-7-4-2-3-5-8(7)6-9/h2,4,6-8H,3,5H2,1H3	InChI=1S/C8H12O/c1-7-4-2-3-5-8(7)6-9/h2,4,6-8H,3,5H2,1H3/t7-,8-/m0/s1
