13
gdb 75863	3.5098	1.25794	0.95689	4.7808	68.81	-0.2517	-0.064	0.1877	1120.3782	0.089823	-452.794832	-452.786896	-452.785951	-452.827674	28.604	
O	 0.0222743296	 1.4181451504	-0.1368890216	-0.411891
C	-0.0235846965	 0.0166615198	-0.0499806036	-0.105263
C	 0.5981505977	-0.4812615247	 1.2765195117	 0.416215
O	 1.6681692898	-0.1646590301	 1.7300362826	-0.352085
N	-0.3444162143	-1.3200846767	 1.853907195	-0.333706
C	-1.5302258942	-1.3007660748	 1.1294117631	-0.08186
C	-1.4337137361	-0.5335161026	 0.0249771471	 0.124136
C	-2.4378110827	-0.3274889509	-0.943302888	 0.212859
N	-3.2513677755	-0.1493924827	-1.7498259665	-0.337851
H	 0.9106541697	 1.6842694887	 0.1355284445	 0.302249
H	 0.5221677905	-0.4596245764	-0.8826451666	 0.121724
H	-0.2371519328	-1.7136950035	 2.7757528217	 0.278621
H	-2.3793218351	-1.8764938264	 1.4683629205	 0.166853
75.2847	132.1985	176.9293	222.8186	303.699	342.206	442.394	472.0274	515.9109	538.1646	575.3228	642.756	710.0958	754.9828	870.2445	898.5394	916.9059	1091.8539	1132.4192	1184.9637	1213.0134	1248.256	1318.2716	1344.9585	1403.4248	1417.859	1664.9895	1856.7021	2336.3158	2960.9691	3249.8979	3643.2772	3770.2415
OC1C(=O)NC=C1C#N	O[C@H]1C(=O)NC=C1C#N	
InChI=1S/C5H4N2O2/c6-1-3-2-7-5(9)4(3)8/h2,4,8H,(H,7,9)	InChI=1S/C5H4N2O2/c6-1-3-2-7-5(9)4(3)8/h2,4,8H,(H,7,9)/t4-/m1/s1
