23
gdb 108252	2.43753	1.31968	1.28891	1.6455	85.14	-0.2351	0.074	0.3091	1199.4727	0.204686	-388.275301	-388.265727	-388.264783	-388.309498	36.433	
C	-0.1209032011	 1.6233099876	-0.1729536669	-0.382457
C	-0.1607670449	 0.0895617721	-0.1457031988	-0.268241
C	 0.7794023791	-0.5232069011	-1.156435674	 0.435084
C	 2.315082033	-0.4321410032	-0.9571447064	-0.268146
C	 2.4485551371	-1.936451566	-1.3488560511	-0.283568
C	 0.9061405163	-2.0446167018	-1.5274427099	 0.232605
C	 0.175966459	-3.1860104944	-0.8572508476	-0.499654
C	 0.4364394799	-1.5851235453	-2.9200137874	-0.11895
O	 0.4134707074	-0.1963726322	-2.5237480239	-0.339144
H	 0.8756974052	 1.9995491762	 0.0811936925	 0.11642
H	-0.3751902318	 1.9923995673	-1.1702716747	 0.138627
H	-0.8312690839	 2.0479841003	 0.5423727482	 0.109341
H	 0.1034763948	-0.2782911099	 0.8540452442	 0.09202
H	-1.180217172	-0.257129698	-0.3543892453	 0.097259
H	 2.7987323546	 0.2856795543	-1.6225139099	 0.108087
H	 2.6172908844	-0.2208945641	 0.0726244066	 0.095931
H	 3.038316945	-2.1503236086	-2.2447114111	 0.097692
H	 2.8270169886	-2.5620463424	-0.536087102	 0.098376
H	 0.4604416457	-3.2806534435	 0.196413857	 0.115891
H	-0.9104605926	-3.0526414639	-0.9021095837	 0.118451
H	 0.412320672	-4.1396657124	-1.3456730679	 0.119129
H	 1.1230371294	-1.7699163978	-3.7568256473	 0.09313
H	-0.5661555652	-1.9366702229	-3.2012085006	 0.092118
79.901	96.7429	136.8972	197.4776	218.8666	239.7959	304.921	332.7844	354.2876	391.0852	493.9704	580.6535	663.2545	703.3376	745.4543	786.0767	850.501	889.2857	937.8633	948.1844	964.7172	986.2358	989.7256	1008.1077	1014.6101	1057.587	1114.2585	1152.2943	1175.3147	1184.7836	1211.6027	1229.4176	1239.1447	1261.1487	1287.8111	1290.539	1322.7671	1361.781	1380.8106	1406.0551	1412.0201	1462.7603	1475.5736	1486.8191	1492.4221	1493.547	1498.7432	1509.3764	1526.355	2992.4698	3019.2364	3021.937	3036.1405	3039.2953	3050.649	3057.5604	3060.0266	3080.8632	3093.591	3098.2379	3105.4276	3120.9804	3122.732
CCC12CCC1(C)CO2	CC[C@@]12CC[C@]1(C)CO2	
InChI=1S/C8H14O/c1-3-8-5-4-7(8,2)6-9-8/h3-6H2,1-2H3	InChI=1S/C8H14O/c1-3-8-5-4-7(8,2)6-9-8/h3-6H2,1-2H3/t7-,8-/m1/s1
