16
gdb 34133	2.96094	1.71406	1.37321	1.4094	79.46	-0.2261	-0.0181	0.208	956.0232	0.125012	-363.493372	-363.486533	-363.485589	-363.524378	28.154	
C	-0.0164354261	-1.221582184	 0.0497314114	-0.344602
C	-0.0237214522	-0.0182670498	 0.0393017706	 0.024037
C	-0.0295838334	 1.419278116	 0.0230177699	 0.249291
C	-0.6872486164	 2.4124600594	 0.9957009216	-0.223647
N	-0.0391336332	 3.3746876848	 0.0032172202	-0.162843
C	 1.1902330385	 2.4199960987	-0.0130180737	-0.077604
C	 1.7217605487	 2.4848862655	-1.4260871106	-0.087521
C	 0.6102397035	 2.4719829718	-2.1644642844	-0.087527
C	-0.4851925588	 2.4005459844	-1.1259934984	-0.077603
H	-0.0099868711	-2.2836559447	 0.0592170186	 0.1843
H	-1.7792471284	 2.4615311807	 1.0087323985	 0.105621
H	-0.2768624445	 2.4789764485	 2.0067389934	 0.105621
H	 1.8594809331	 2.4977460478	 0.8441437379	 0.080656
H	 2.7588467653	 2.5458239017	-1.7215339661	 0.115584
H	 0.4796866685	 2.5193657418	-3.2355669919	 0.115584
H	-1.5358555536	 2.4583253375	-1.4113576668	 0.080654
128.2253	158.0054	361.0235	399.9986	467.8873	505.5939	544.5947	570.5134	644.4348	650.5785	709.1467	739.9404	758.3952	814.3774	826.2076	912.6286	918.0887	919.2283	952.5173	974.4269	1006.4422	1048.5748	1077.3876	1121.2131	1130.6022	1140.2583	1176.1889	1242.5675	1262.746	1265.9359	1321.6753	1335.7162	1527.9361	1632.5788	2224.8807	3054.1658	3117.1461	3120.4211	3123.5105	3231.5544	3257.6124	3498.9966
C#CC12CN3C1C=CC23	C#C[C@@]12CN3[C@@H]1C=C[C@@H]23	
InChI=1S/C8H7N/c1-2-8-5-9-6(8)3-4-7(8)9/h1,3-4,6-7H,5H2	InChI=1S/C8H7N/c1-2-8-5-9-6(8)3-4-7(8)9/h1,3-4,6-7H,5H2/t6-,7+,8-
