16
gdb 51391	3.71192	1.07542	1.02604	1.3515	70.39	-0.2524	-0.0246	0.2277	1177.4994	0.123984	-437.894737	-437.886616	-437.885672	-437.928905	29.603	
O	 0.2779402088	 0.8244587931	-1.3224014708	-0.311705
C	 0.1744534829	 1.4874825129	-0.315027485	 0.148469
N	 1.2011794373	 1.7521077335	 0.5445557117	-0.292872
C	 2.4958913022	 1.1541812636	 0.3741050475	 0.048619
C	 3.5473327716	 1.7272532439	-0.5089328145	-0.057515
C	 3.4430381656	 3.256677248	-0.5602520415	-0.355084
C	 3.645375388	 3.2532514142	 0.9746871074	 0.408272
O	 3.8429734014	 4.1178909594	 1.7794279117	-0.309949
C	 3.7152030159	 1.7491684942	 1.0454133037	-0.253732
H	-0.7720734181	 1.9611683993	 0.0134521601	 0.081904
H	 0.9933696655	 2.2158221985	 1.4157049706	 0.261852
H	 2.4823726661	 0.0667225027	 0.3937146702	 0.127654
H	 4.0928981255	 1.1127078059	-1.2115221261	 0.116267
H	 4.2992748977	 3.7360063787	-1.043159403	 0.137934
H	 2.5171724851	 3.6811166334	-0.9546308305	 0.132553
H	 4.3330557245	 1.1633969587	 1.7149668684	 0.117333
24.403	80.8542	171.0465	204.3662	300.1271	358.6247	451.1742	479.9393	552.2038	611.0368	639.901	738.9802	780.8143	827.1974	890.9632	932.9472	963.0549	977.1946	1008.7653	1028.7015	1034.3778	1088.0005	1104.852	1143.921	1148.7483	1220.0517	1241.9661	1283.7954	1331.1578	1418.2206	1429.141	1456.5574	1498.4805	1811.1746	1884.9344	2938.5613	3069.1422	3124.055	3135.8907	3195.7574	3219.698	3621.7454
O=CNC1C2CC(=O)C12	O=CN[C@H]1[C@H]2CC(=O)[C@@H]12	
InChI=1S/C6H7NO2/c8-2-7-6-3-1-4(9)5(3)6/h2-3,5-6H,1H2,(H,7,8)	InChI=1S/C6H7NO2/c8-2-7-6-3-1-4(9)5(3)6/h2-3,5-6H,1H2,(H,7,8)/t3-,5-,6-/m0/s1
