18
gdb 110270	2.51192	1.36077	1.22232	3.6835	71.46	-0.2488	-0.0204	0.2284	1110.8562	0.14714	-439.058227	-439.049522	-439.048578	-439.091738	32.296	
C	 0.0893981025	 1.5270210923	 0.3491484189	-0.423719
C	 0.1154374757	 0.0532717514	 0.0176533929	 0.013956
C	 0.506400817	-0.599395115	-1.2487383702	-0.100399
C	 1.6692439328	 0.0493225704	-2.0086066022	-0.132995
C	 1.6111764048	 1.3507526436	-2.808046899	-0.098988
O	 2.9214575888	 1.7586607844	-3.1506616769	-0.41789
C	 2.3753703788	 0.0512476356	-0.6518011743	 0.386294
O	 3.3995552584	 0.5106729916	-0.2377740987	-0.322167
N	 1.3780820481	-0.7562609058	 0.0221263007	-0.192166
H	-0.8600885966	 1.964450141	 0.0239325358	 0.13217
H	 0.1688301308	 1.6600331847	 1.4326388013	 0.142506
H	 0.9025582069	 2.0895906972	-0.1108391049	 0.139884
H	-0.6513536235	-0.5046982464	 0.5527255117	 0.116499
H	-0.0344463807	-1.4624872798	-1.6204631933	 0.113716
H	 2.1612788298	-0.7092334326	-2.6294342603	 0.132091
H	 1.0714863678	 1.1975181572	-3.7485919131	 0.115696
H	 1.0740304905	 2.1323475338	-2.2522514595	 0.096041
H	 3.4397103879	 1.7795314864	-2.3358655591	 0.299473
87.6257	112.6576	142.6058	178.1122	242.7692	298.0681	357.9408	395.5307	455.3739	503.5551	570.4511	646.6042	694.7955	759.2329	798.971	834.3919	896.3416	971.1072	993.3624	1049.6168	1053.448	1072.9671	1083.3694	1106.5926	1142.5446	1176.878	1183.8077	1242.2934	1269.5621	1324.8169	1362.9766	1386.3167	1419.929	1436.2822	1440.9276	1487.4772	1499.6696	1521.1399	1885.6866	3002.68	3046.6667	3050.1406	3071.5918	3107.9136	3122.2377	3147.2911	3180.7968	3771.9911
CC1C2C(CO)C(=O)N12	C[C@H]1[C@H]2[C@@H](CO)C(=O)N12	
InChI=1S/C6H9NO2/c1-3-5-4(2-8)6(9)7(3)5/h3-5,8H,2H2,1H3	InChI=1S/C6H9NO2/c1-3-5-4(2-8)6(9)7(3)5/h3-5,8H,2H2,1H3/t3-,4+,5-,7?/m0/s1
