17
gdb 126969	6.57772	0.80016	0.72178	2.4932	72.91	-0.2123	0.0282	0.2405	1550.3469	0.136982	-451.340998	-451.332074	-451.33113	-451.375093	32.521	
C	 0.0556656235	 1.5104015526	 0.0161996508	-0.40114
C	-0.111883241	-0.0000172474	-0.1070757085	-0.111284
N	 0.727501711	-0.5225022704	-1.1759402265	-0.394278
C	 0.8464535307	-1.8651530314	-1.369842164	 0.469112
N	 0.4582991525	-2.7593567014	-0.4836090765	-0.249367
O	 0.8511767766	-3.9891361219	-1.1142722684	-0.220857
C	 1.3917930923	-3.6433959073	-2.2807245473	 0.509444
N	 1.8901570866	-4.6382546163	-3.0616978907	-0.595018
N	 1.4231943834	-2.3621230199	-2.519592988	-0.4196
H	 1.0964730365	 1.7729311471	 0.2267764377	 0.130872
H	-0.243836073	 2.018867426	-0.9078063327	 0.115274
H	-0.5707459668	 1.8980137269	 0.8240914333	 0.125195
H	 0.1886485122	-0.4970314517	 0.8204946227	 0.138595
H	-1.1703409484	-0.2565908276	-0.2679405079	 0.105223
H	 0.7703613719	 0.0143420932	-2.0290120457	 0.247056
H	 1.5149578786	-5.5601772142	-2.9053065357	 0.273875
H	 2.0471285934	-4.3872460162	-4.0244080829	 0.276895
52.4773	96.5246	127.9245	232.5932	270.6572	332.5062	339.4897	370.342	387.6311	471.8329	485.2353	516.8352	718.4082	733.1643	785.0942	800.5847	813.143	906.9828	930.5214	1033.8587	1042.6243	1091.4532	1136.4754	1158.1417	1184.8096	1286.4352	1322.4113	1393.829	1415.4095	1437.106	1492.9285	1499.3499	1525.5791	1540.8645	1605.2877	1634.6792	1693.2999	2987.5171	3034.5094	3075.1659	3105.1239	3123.6411	3600.3016	3620.0741	3715.5393
CCNC1=NOC(N)=N1	CCNc1noc(N)n1	
InChI=1S/C4H8N4O/c1-2-6-4-7-3(5)9-8-4/h2H2,1H3,(H3,5,6,7,8)	InChI=1S/C4H8N4O/c1-2-6-4-7-3(5)9-8-4/h2H2,1H3,(H3,5,6,7,8)
