21
gdb 109209	3.84501	1.02031	0.91227	1.4345	84.93	-0.2144	0.0329	0.2473	1357.4489	0.182166	-387.090112	-387.080993	-387.080048	-387.123752	34.897	
C	-0.0359890985	 1.4957772432	 0.0543116051	-0.481155
C	 0.0618118635	-0.0101637622	 0.0009473907	 0.357948
C	-0.7781865885	-0.8422555943	 0.9374694113	-0.321876
C	 0.7330210982	-0.8270565762	 1.0965027219	-0.183284
C	 1.450647269	-1.9370093491	 0.3983078198	 0.326468
C	 2.2147238819	-2.9691135265	 1.1615066112	-0.18409
O	 2.8039444303	-3.8947571028	 0.2662938434	-0.413807
C	 1.2675789966	-1.8761915127	-0.9239335379	-0.178074
C	 0.4505501199	-0.6695372996	-1.330062711	-0.332427
H	 0.8929357495	 1.9668388189	-0.2879367023	 0.114972
H	-0.8478019098	 1.8638278807	-0.5848650678	 0.115941
H	-0.2340368004	 1.848132125	 1.0718144636	 0.11121
H	-1.364911634	-0.3033902147	 1.6756985215	 0.101989
H	-1.2365463412	-1.7571622435	 0.5741671658	 0.107075
H	 1.1632003919	-0.3650217251	 1.9806556388	 0.074581
H	 2.9802149936	-2.4656727279	 1.7798640498	 0.091635
H	 1.5339958212	-3.4723478745	 1.8714891811	 0.096602
H	 3.2744233483	-4.5529658046	 0.7850570281	 0.28841
H	 1.6423622446	-2.6064451301	-1.6292603913	 0.103894
H	-0.4291201456	-0.941456487	-1.9286185327	 0.104426
H	 1.0391359097	 0.020802643	-1.9521071188	 0.09956
74.4897	146.247	177.9183	209.6597	231.271	242.8593	300.741	359.4878	376.0263	434.0583	568.5884	580.8234	664.2482	745.889	813.2636	825.1696	863.6152	920.1405	943.3465	961.9399	984.255	1013.1024	1041.8799	1046.0642	1066.352	1080.3028	1100.484	1105.6089	1170.8945	1186.6588	1212.5156	1246.6968	1249.1021	1269.4981	1322.8784	1338.0273	1400.7795	1421.7476	1467.4573	1473.4342	1485.3742	1492.2018	1501.5565	1507.7763	1711.6768	2935.1354	2947.7883	2997.7595	3019.1253	3031.7281	3076.8786	3094.0928	3114.0993	3146.3059	3202.1514	3221.7182	3838.6195
CC12CC1C(CO)=CC2	C[C@]12C[C@H]1C(=CC2)CO	
InChI=1S/C8H12O/c1-8-3-2-6(5-9)7(8)4-8/h2,7,9H,3-5H2,1H3	InChI=1S/C8H12O/c1-8-3-2-6(5-9)7(8)4-8/h2,7,9H,3-5H2,1H3/t7-,8-/m0/s1
