16
gdb 47978	5.25211	0.71661	0.67214	4.3757	86.54	-0.2607	-0.0622	0.1985	1630.9996	0.123676	-400.683139	-400.674704	-400.673759	-400.717422	30.04	
O	-0.2248672361	 0.1443980349	 0.4985797012	-0.236366
C	 0.0578609801	 1.0653898602	-0.2356272123	 0.004699
C	 1.2583047394	 1.8478763311	-0.139852084	 0.153829
C	 2.2567428359	 2.5308228076	-0.1001024228	 0.000187
C	 3.4447020376	 3.2974934147	 0.0095091492	 0.110151
C	 4.5979217885	 3.0574209269	 1.0079004405	-0.299636
C	 4.7898477865	 4.6038400086	 1.1302090661	-0.23943
C	 3.6480410659	 4.806650739	 0.1269808781	-0.08196
N	 3.8896644303	 4.1211521416	-1.1233722623	-0.336138
H	-0.6161473671	 1.3754015542	-1.0602728497	 0.099509
H	 4.2587847225	 2.6047247067	 1.9407238102	 0.131386
H	 5.4333729177	 2.4719481401	 0.6122394778	 0.109017
H	 4.5554578356	 4.9709578705	 2.1312676535	 0.12231
H	 5.755536303	 5.0162533057	 0.8214885663	 0.109737
H	 2.8961041603	 5.5869810788	 0.1403145336	 0.117971
H	 4.8809917298	 3.9845476294	-1.3183042753	 0.234736
54.4821	76.2787	107.6997	202.0254	221.4993	314.1573	381.3186	471.6113	514.7569	556.0855	690.8899	752.8363	779.2887	801.9909	887.0078	934.6689	946.2067	995.1758	1019.37	1050.0353	1053.7675	1081.0539	1142.3347	1153.4801	1208.2931	1227.8372	1255.1047	1287.4955	1300.3688	1417.231	1429.9667	1479.3513	1497.9483	1759.2504	2313.62	2916.7904	3053.7397	3061.7325	3113.4347	3132.834	3189.7021	3454.9642
O=CC#CC12CCC1N2	O=CC#C[C@]12CC[C@H]1N2	
InChI=1S/C7H7NO/c9-5-1-3-7-4-2-6(7)8-7/h5-6,8H,2,4H2	InChI=1S/C7H7NO/c9-5-1-3-7-4-2-6(7)8-7/h5-6,8H,2,4H2/t6-,7+/m1/s1
