19
gdb 127302	5.13608	0.95809	0.86732	1.9027	84.67	-0.2184	0.0287	0.2471	1382.2456	0.160789	-382.083254	-382.074669	-382.073724	-382.117858	31.417	
C	-0.4411588254	 1.3517770468	 0.0440424309	-0.315483
N	-0.0460214297	-0.0365355079	-0.0248635613	 0.060274
C	 0.4820533793	-0.7059878698	-1.076952154	-0.018439
C	 0.6931299068	-2.0034555599	-0.6637644556	-0.338397
C	 0.2533265624	-2.0273394194	 0.6829874281	 0.377705
N	-0.1933403447	-0.8270052574	 1.059577014	-0.353846
C	 0.2363963965	-3.1493206192	 1.6421144559	-0.079111
C	-0.0469193261	-4.5639181128	 1.1782454763	-0.267564
C	 1.3348373568	-4.1932982742	 1.6361450113	-0.267558
H	-0.2484781708	 1.8231489089	-0.9212532964	 0.134873
H	-1.5062625412	 1.4335762752	 0.27852381	 0.147046
H	 0.1286874084	 1.8721889113	 0.8190190736	 0.147019
H	 0.6634826591	-0.2159925056	-2.0209926316	 0.12566
H	 1.1035157348	-2.809977588	-1.2497740592	 0.100117
H	-0.1601369542	-2.8684415444	 2.6113797364	 0.092792
H	-0.6541794947	-5.1946620206	 1.8181212281	 0.112942
H	-0.2118523627	-4.7143778676	 0.1167839115	 0.114515
H	 2.1125867047	-4.0907812628	 0.8870503992	 0.114513
H	 1.6828507406	-4.5678858326	 2.5924966928	 0.112943
34.7614	54.3608	147.4621	161.5954	219.475	310.2486	416.1627	450.3472	613.2448	624.9487	713.4011	723.541	762.9001	790.2184	821.8147	824.4446	911.8005	915.0126	1006.7641	1018.4696	1050.235	1060.3659	1074.4243	1074.8678	1095.873	1136.3096	1152.5936	1201.6292	1217.1713	1249.0254	1316.8914	1349.3895	1416.9553	1447.9769	1459.2105	1467.4861	1473.1895	1499.7494	1508.1718	1534.8047	1576.877	3046.3016	3110.2141	3131.0756	3135.0066	3143.2153	3174.0392	3210.432	3226.6271	3248.8907	3268.1756
CN1C=CC(=N1)C1CC1	Cn1ccc(n1)C1CC1	
InChI=1S/C7H10N2/c1-9-5-4-7(8-9)6-2-3-6/h4-6H,2-3H2,1H3	InChI=1S/C7H10N2/c1-9-5-4-7(8-9)6-2-3-6/h4-6H,2-3H2,1H3
