21
gdb 74753	2.79657	1.47277	1.29927	1.4684	83.95	-0.2255	0.0118	0.2373	1103.7238	0.182268	-387.070697	-387.062162	-387.061218	-387.103084	34.618	
C	-0.226039168	 1.3132927109	-0.0602975723	-0.521863
C	-0.0715415328	-0.1674329866	-0.1169477648	 0.325997
C	 0.1696751625	-0.9989804086	-1.144516189	-0.227447
C	 0.2116615636	-2.3865053167	-0.4939440178	-0.121965
C	-1.0232760188	-2.2618610284	 0.4576303054	-0.227169
C	-0.1527000391	-1.123647675	 1.084946931	-0.17505
C	 1.1039102994	-2.0585175908	 0.7839842024	 0.457177
C	 1.3767192349	-3.1891106908	 1.7662737578	-0.445023
O	 2.3509490251	-1.4555249186	 0.5815738282	-0.485776
H	 0.5188823514	 1.7679538753	 0.6052648626	 0.130879
H	-0.1194012931	 1.7653294365	-1.0508602879	 0.124968
H	-1.2088234622	 1.5961001906	 0.3381247482	 0.130447
H	 0.3074178419	-0.7689827561	-2.1925678357	 0.096086
H	 0.3903702294	-3.2593405996	-1.1224790816	 0.057447
H	-1.9551336539	-1.944214388	-0.0131969709	 0.094977
H	-1.2007867778	-3.1207756096	 1.1069261206	 0.096728
H	-0.3458372644	-0.7031029908	 2.0731127336	 0.055228
H	 0.4866495033	-3.7540738498	 2.0411195161	 0.115639
H	 2.1064979439	-3.8779664492	 1.3301242235	 0.125029
H	 1.8201367767	-2.7742115925	 2.6766969139	 0.125298
H	 2.2162672081	-0.7669928924	-0.0834518532	 0.268393
143.9538	175.321	184.7584	194.4223	305.0962	333.2686	398.2851	410.6081	505.1103	520.7074	547.7916	594.2357	631.4648	658.0696	788.1102	796.7609	828.6626	865.1341	877.4612	933.9905	965.6682	990.1986	996.947	1034.2239	1058.081	1075.891	1078.9207	1106.2892	1144.1978	1173.7966	1209.2319	1220.9464	1222.9199	1249.7108	1258.2464	1309.0787	1383.3752	1412.6973	1421.1061	1476.6675	1481.9446	1487.1842	1491.6932	1514.7972	1672.2159	3014.672	3049.3506	3060.3377	3075.5153	3103.7357	3105.4495	3109.0575	3114.1403	3132.7712	3154.9145	3218.8562	3738.4416
CC1=CC2CC1C2(C)O	CC1=C[C@@H]2C[C@H]1[C@]2(C)O	
InChI=1S/C8H12O/c1-5-3-6-4-7(5)8(6,2)9/h3,6-7,9H,4H2,1-2H3	InChI=1S/C8H12O/c1-5-3-6-4-7(5)8(6,2)9/h3,6-7,9H,4H2,1-2H3/t6-,7-,8-/m1/s1
