19
gdb 97745	5.20158	0.70341	0.68003	1.2185	87.23	-0.2404	0.0289	0.2693	1697.6955	0.159329	-385.798178	-385.789375	-385.788431	-385.83416	32.156	
O	 0.2219047263	 0.8916709647	-0.982043561	-0.409639
C	-0.0455873222	 0.2108811324	 0.2395540315	-0.222012
C	-1.3605634196	-0.41306813	 0.1779401112	 0.17963
C	-2.4446680348	-0.9384497597	 0.1465604934	-0.000849
C	-3.7578470049	-1.5489292596	 0.1272385077	-0.167772
C	-4.5627210979	-1.6336493605	-1.2201632011	-0.03203
C	-3.5683409335	-2.7383921867	-1.6805689748	-0.224227
C	-3.9174129911	-3.0775294005	-0.2025460257	-0.03699
C	-5.3986924426	-2.762821321	-0.5542646751	-0.228305
H	 1.0957294112	 1.2877733968	-0.9023087904	 0.288265
H	 0.7135179676	-0.5644989338	 0.4353986567	 0.114204
H	-0.0167588067	 0.9052513759	 1.0955279589	 0.114677
H	-4.3568047199	-1.2132828742	 0.9806842607	 0.087535
H	-4.9289898335	-0.784829029	-1.7984629319	 0.078691
H	-3.9389145269	-3.4361642838	-2.4358487012	 0.088907
H	-2.5443054649	-2.4235681186	-1.8859339566	 0.114304
H	-3.5369931641	-3.9044168803	 0.3984959206	 0.074847
H	-6.0543818088	-2.4733459475	 0.2719888805	 0.089105
H	-5.8926358238	-3.4616947546	-1.2332661433	 0.091661
9.6809	75.2224	100.0756	205.5874	227.7273	284.6203	398.6258	431.6821	496.6742	554.1445	607.3603	767.6708	806.8511	836.3729	872.4007	900.5288	907.007	908.5883	1014.5073	1025.3442	1026.5796	1031.0913	1051.7797	1087.2611	1103.7768	1114.3306	1137.9599	1188.7847	1194.5138	1210.2674	1240.8948	1245.3143	1245.6751	1254.9422	1261.3041	1377.0969	1459.384	1498.3466	1503.6464	1535.3705	2361.4326	2958.6347	2975.7592	3044.3437	3050.9197	3062.9749	3103.5372	3110.1762	3118.2656	3135.9686	3816.1581	9.6833	75.2225	100.0757	205.5876	227.729	284.6197	398.6257	431.6815	496.6739	554.1445	607.3603	767.6708	806.8511	836.3728	872.4008	900.5287	907.007	908.5883	1014.5071	1025.3443	1026.5795	1031.0913	1051.7798	1087.2612	1103.7766	1114.3307	1137.9599	1188.7845	1194.5137	1210.2675	1240.8948	1245.3143	1245.6751	1254.9421	1261.304	1377.0978	1459.384	1498.3464	1503.6466	1535.3704	2361.4323	2958.6348	2975.7592	3044.3438	3050.9197	3062.9748	3103.5371	3110.1762	3118.2656	3135.9686	3816.1584
OCC#CC1C2CC1C2	OCC#C[C@H]1[C@H]2C[C@@H]1C2	
InChI=1S/C8H10O/c9-3-1-2-8-6-4-7(8)5-6/h6-9H,3-5H2	InChI=1S/C8H10O/c9-3-1-2-8-6-4-7(8)5-6/h6-9H,3-5H2/t6-,7+,8-
