19
gdb 111358	2.29405	1.45084	1.07193	2.4968	78.88	-0.2538	0.0189	0.2727	1183.5131	0.159723	-382.041955	-382.033263	-382.032319	-382.075619	32.32	
C	 0.1237098914	 1.6886010576	 0.0659412169	-0.385094
C	 0.0221736731	 0.1593848776	 0.0840693755	-0.205315
C	 0.5832386403	-0.4605734008	-1.1837407232	 0.057063
C	 0.4419284584	-2.0053087257	-1.4649720758	-0.221842
C	-0.3096353087	-2.8312418481	-0.5312888448	 0.287787
N	-0.9210741853	-3.4597621879	 0.2229883614	-0.337485
C	-0.2621117639	-1.590842811	-2.7639076719	-0.028274
C	-1.4232520724	-0.7289274601	-2.4906273303	-0.250896
N	-0.08174377	-0.1123531471	-2.4951513662	-0.131637
H	 1.1660091662	 2.0150839562	-0.0163413394	 0.118772
H	-0.4218591654	 2.1075777624	-0.7845927038	 0.137689
H	-0.2909832669	 2.1177901123	 0.982256979	 0.118914
H	 0.5811360464	-0.24894548	 0.9354461639	 0.114263
H	-1.0176414487	-0.1477203129	 0.2382651202	 0.115497
H	 1.635702934	-0.182164359	-1.287080526	 0.097928
H	 1.4168821151	-2.4637978082	-1.6409580582	 0.131156
H	-0.0558193558	-2.0331686373	-3.7320163165	 0.112328
H	-2.0210252847	-0.4179879775	-3.3410581533	 0.132865
H	-1.9794518229	-0.8409096303	-1.5644471576	 0.136281
86.4093	105.6313	118.163	198.3452	223.8119	272.9397	362.2109	392.9867	505.3944	545.9008	600.169	719.6742	764.3818	774.1856	801.6798	815.1918	931.1676	941.3299	978.1921	1005.6349	1033.6727	1064.7551	1104.6346	1110.8387	1122.9951	1123.1196	1156.0015	1204.9753	1230.919	1277.2149	1295.7903	1331.5649	1338.9125	1370.227	1402.7543	1414.0416	1480.236	1497.6764	1500.8559	1509.2314	2349.0337	3036.2713	3039.3582	3059.5007	3076.9951	3097.5607	3108.2971	3118.627	3123.0178	3176.2369	3211.3791
CCC1C(C#N)C2CN12	CC[C@H]1[C@@H](C#N)[C@H]2CN12	
InChI=1S/C7H10N2/c1-2-6-5(3-8)7-4-9(6)7/h5-7H,2,4H2,1H3	InChI=1S/C7H10N2/c1-2-6-5(3-8)7-4-9(6)7/h5-7H,2,4H2,1H3/t5-,6+,7-,9?/m1/s1
