16
gdb 42657	2.6696	1.98355	1.80996	3.702	71.95	-0.2198	-0.0281	0.1917	841.9671	0.128136	-400.760809	-400.754717	-400.753773	-400.790982	25.855	
O	-0.0056771903	 0.0300816766	 0.0223292064	-0.339375
C	-0.0348430393	 1.2323294529	 0.0196862632	 0.487694
C	-1.2211099341	 2.1370272325	 0.0778991811	-0.210716
C	-0.6803850513	 3.4238807451	 0.6468491572	-0.027409
N	 0.7202193024	 3.2384839355	 0.9535076318	-0.291793
C	 1.1725074606	 2.1921474573	-0.0104533869	-0.194432
C	 1.208161915	 2.776052494	-1.411052703	-0.121483
C	 0.0721085539	 3.37458279	-1.7937848754	-0.05338
C	-1.0597078128	 3.3655603459	-0.8412080685	-0.096343
H	-2.2046603759	 1.7408683991	 0.2855607068	 0.112459
H	-1.2479246012	 4.0516902587	 1.3222479922	 0.111949
H	 1.2341474303	 4.1023744288	 0.788820926	 0.223024
H	 2.0962814077	 1.7148071898	 0.3102654755	 0.095116
H	 2.1099584619	 2.7449876318	-2.0106483092	 0.103688
H	-0.030554848	 3.9024790795	-2.7355687959	 0.102928
H	-1.9894962788	 3.8399502126	-1.1311841214	 0.098073
154.7356	337.9087	395.3814	446.859	533.9688	538.1345	590.4044	668.5036	737.6039	753.2922	779.2882	790.854	818.3931	849.3358	886.2891	944.3161	949.7999	953.4605	984.5388	1013.5159	1053.686	1078.7002	1081.7597	1138.8865	1154.5871	1181.1505	1210.2085	1280.4753	1293.7631	1337.7288	1365.0212	1395.2447	1424.0322	1660.0468	1858.0652	3137.849	3178.2852	3188.878	3196.5844	3207.8975	3225.1912	3470.4967
O=C1C2C3NC1C=CC23	O=C1[C@H]2[C@H]3N[C@@H]1C=C[C@@H]23	
InChI=1S/C7H7NO/c9-7-4-2-1-3-5(7)6(3)8-4/h1-6,8H	InChI=1S/C7H7NO/c9-7-4-2-1-3-5(7)6(3)8-4/h1-6,8H/t3-,4+,5+,6-/m0/s1
