17
gdb 14898	3.02685	1.85752	1.64499	3.9013	72.45	-0.2524	0.0145	0.2669	874.5221	0.144755	-326.763926	-326.756771	-326.755827	-326.795317	27.262	
N	-0.0964844695	-1.1768557506	-0.2201887999	-0.333744
C	-0.0498411504	-0.0264363451	-0.1157763605	 0.281561
C	-0.0053666241	 1.4340031342	 0.0181291693	-0.158346
C	-0.7284996472	 1.8861868863	 1.3084485818	-0.215558
C	-0.0253066637	 1.3518530858	 2.5624943665	-0.252014
C	 1.4703082946	 1.5094267032	 2.4816110087	-0.035117
C	 2.123738731	 1.7848797052	 1.3538255043	-0.046163
C	 1.4544308797	 1.9496583141	 0.0141044881	-0.258901
H	-0.5299385969	 1.8449455617	-0.8518671925	 0.122705
H	-0.7185296264	 2.9819770657	 1.3171765773	 0.110141
H	-1.775088586	 1.5698381746	 1.2854340358	 0.115532
H	-0.408621844	 1.8737513092	 3.4475096082	 0.108948
H	-0.2749634825	 0.2920379251	 2.7126990283	 0.134112
H	 2.0277251828	 1.37884258	 3.4056715924	 0.09161
H	 3.2046328941	 1.8976023797	 1.3680550645	 0.092096
H	 2.0285877571	 1.4312120281	-0.7617069321	 0.126671
H	 1.4456245213	 3.009111933	-0.2771320104	 0.116464
100.2328	140.2217	216.7411	296.3353	397.3852	408.1951	472.3857	599.9814	611.5413	667.0399	760.7173	800.3937	862.0118	898.2992	917.3167	975.129	996.7625	1007.5769	1050.613	1077.6506	1092.0452	1152.3522	1201.5333	1225.7084	1258.4171	1298.367	1341.0811	1354.3572	1382.5924	1386.048	1419.1636	1472.6921	1477.705	1490.6684	1727.723	2353.2401	3013.4683	3014.5358	3037.9648	3048.8399	3056.0437	3062.8935	3094.3016	3149.6327	3172.3294
N#CC1CCC=CC1	N#C[C@H]1CCC=CC1	
InChI=1S/C7H9N/c8-6-7-4-2-1-3-5-7/h1-2,7H,3-5H2	InChI=1S/C7H9N/c8-6-7-4-2-1-3-5-7/h1-2,7H,3-5H2/t7-/m1/s1
