14
gdb 26888	3.1391	1.44882	0.99742	5.0528	69.58	-0.2394	-0.0623	0.1771	1105.5929	0.100134	-473.895053	-473.886948	-473.886004	-473.928248	29.219	
C	-0.0292274456	 1.5631561813	 0.0093898992	-0.496765
C	-0.0113174199	 0.0593271436	 0.0012693228	 0.04951
C	-1.1576604706	-0.6994569102	 0.0038491297	 0.45535
O	-2.3674918888	-0.1476526816	 0.013742604	-0.380143
O	-1.1510647367	-2.0089884169	-0.0031541614	-0.271619
C	 0.1431597502	-2.7793514821	-0.0146460573	 0.448735
O	-0.0058616727	-3.9580940694	-0.0199127379	-0.317172
N	 1.2613510119	-2.0242324508	-0.0171472755	-0.351349
C	 1.1657230587	-0.7126663985	-0.009640074	 0.000439
H	 0.9932541981	 1.9500523396	 0.0034063052	 0.132515
H	-0.5467355994	 1.9705324487	-0.8654870667	 0.141289
H	-0.5328762006	 1.9612752147	 0.896552907	 0.141276
H	-3.024039802	-0.8597203364	 0.0136546877	 0.320614
H	 2.1176947874	-0.1796929221	-0.0124306026	 0.127319
66.6359	91.8934	186.7675	258.7323	276.0234	312.7736	438.9726	473.0352	481.2847	521.5653	597.3466	656.4247	742.8742	749.1112	784.6718	844.431	984.8242	1005.3368	1033.2626	1075.4861	1187.604	1267.5233	1343.8688	1416.3611	1424.2521	1445.2743	1480.3183	1496.2166	1554.5388	1707.672	1919.302	3035.9953	3090.3891	3116.3235	3123.9706	3762.8043
CC1=C(O)OC(=O)N=C1	Cc1c(O)oc(=O)nc1	
InChI=1S/C5H5NO3/c1-3-2-6-5(8)9-4(3)7/h2,7H,1H3	InChI=1S/C5H5NO3/c1-3-2-6-5(8)9-4(3)7/h2,7H,1H3
