17
gdb 38574	2.83479	2.20564	2.04175	1.0183	68.17	-0.2344	0.0747	0.3091	787.3176	0.140356	-421.807917	-421.802417	-421.801473	-421.837441	24.343	
C	-0.0048066893	 1.4923024686	-0.0352340662	-0.227277
C	 1.4399376782	 1.971733286	 0.0661377656	-0.104524
C	 2.2342014969	 1.4171363618	 1.2111995313	 0.082543
O	 1.5882416462	 0.404145104	 1.9551886278	-0.252572
C	 1.1082228342	-0.5178861061	 1.0097533907	 0.052496
C	-0.0000706801	-0.0367307172	 0.0262713712	 0.05559
O	 0.7692735437	-0.5558221912	-1.0930510603	-0.305513
C	 1.9671884927	-0.4734166731	-0.2817757205	 0.061443
C	 2.5357236986	 0.9325961861	-0.192649879	-0.118301
H	-0.6036776545	 1.9040660261	 0.7863876014	 0.10739
H	-0.4627365728	 1.8082083689	-0.9777943158	 0.113082
H	 1.649561057	 2.9908048111	-0.2412226481	 0.091218
H	 2.9055522752	 2.0147275182	 1.8153240328	 0.101882
H	 0.9313147001	-1.479517472	 1.4887000714	 0.096518
H	-0.9981892951	-0.4795732533	 0.0773209846	 0.074903
H	 2.6932914987	-1.2495685649	-0.5277622244	 0.080735
H	 3.4422519002	 1.2042120971	-0.7172892824	 0.090388
277.3708	398.5377	428.7308	521.778	590.8985	658.0319	688.5646	697.6417	771.8511	787.0709	836.3765	861.3535	907.1983	912.3452	936.4016	962.2566	974.409	993.6332	1042.2537	1058.0519	1066.376	1078.9281	1094.2302	1126.9849	1158.4827	1163.5494	1214.6783	1229.8895	1271.4662	1298.7016	1302.8088	1323.2276	1341.018	1372.8389	1382.8144	1420.367	1475.3698	3032.6721	3076.4111	3082.5822	3102.5056	3134.3693	3162.8464	3190.4309	3200.9547
C1C2C3OC4C1OC4C23	C1[C@H]2[C@H]3O[C@H]4[C@@H]1O[C@H]4[C@@H]23	
InChI=1S/C7H8O2/c1-2-4-5(2)9-6-3(1)8-7(4)6/h2-7H,1H2	InChI=1S/C7H8O2/c1-2-4-5(2)9-6-3(1)8-7(4)6/h2-7H,1H2/t2-,3-,4+,5-,6+,7+/m1/s1
