13
gdb 46342	4.28067	0.75179	0.66979	6.3182	79.94	-0.2687	-0.0592	0.2095	1564.5509	0.088568	-415.575756	-415.567554	-415.56661	-415.609685	28.721	
O	-0.0848955696	-0.0102950761	-0.105734555	-0.248994
C	-0.0736101164	 1.1678940837	 0.0261870556	 0.399267
C	-1.10422662	 2.2738199189	 0.2719043126	-0.283664
N	 0.0161059817	 3.2133065916	 0.5332022667	-0.300742
C	 1.0530345167	 2.2688588762	 0.0347032854	-0.349636
C	 2.206336027	 2.0719154967	 0.882030373	 0.15405
C	 3.164396396	 1.8759978986	 1.5919832751	 0.082418
C	 4.248414276	 1.6652332219	 2.3937016222	 0.209908
N	 5.1730651382	 1.48817178	 3.0744506125	-0.332851
H	-1.7057430946	 2.4736949519	-0.625885708	 0.137631
H	-1.7775783071	 2.1213870477	 1.1215804447	 0.15407
H	-0.0259098089	 4.0834620116	 0.0168713868	 0.240056
H	 1.3780505111	 2.4459536572	-1.0027807415	 0.138487
67.5704	74.2833	135.785	186.7364	254.5191	375.6645	417.9476	462.0276	553.9834	571.0015	595.311	611.4588	697.3663	781.1952	881.0368	977.1893	999.4202	1017.4784	1051.6666	1091.9428	1182.6976	1196.0654	1269.6324	1334.243	1376.6557	1474.884	1938.3408	2264.0678	2396.4422	2984.2574	3015.36	3080.2806	3560.3152
O=C1CNC1C#CC#N	O=C1CN[C@H]1C#CC#N	
InChI=1S/C6H4N2O/c7-3-1-2-5-6(9)4-8-5/h5,8H,4H2	InChI=1S/C6H4N2O/c7-3-1-2-5-6(9)4-8-5/h5,8H,4H2/t5-/m0/s1
