16
gdb 97785	2.9995	0.78078	0.66096	1.9933	81.47	-0.247	0.0089	0.256	1659.0792	0.12204	-400.640187	-400.630542	-400.629598	-400.676755	33.871	
O	 0.0940503932	 1.4130504151	-0.4251346338	-0.401665
C	 0.0122797468	 0.1801813527	 0.2763513645	-0.196527
C	-1.3253405484	-0.4093746566	 0.2664076293	 0.134886
C	-2.4288744541	-0.8872501669	 0.191499304	 0.099487
C	-3.7486927214	-1.4461661632	 0.1560373775	-0.267767
N	-4.239214202	-1.9797189405	-1.1308899216	-0.315419
C	-3.9929582624	-2.9269409274	-0.0283555398	-0.243864
C	-2.9226622882	-3.8708476179	-0.1776342895	 0.386802
C	-2.0417815192	-4.6830765214	-0.2677876324	-0.425272
H	-0.2772042694	 1.2688422642	-1.3019755802	 0.289672
H	 0.7316203509	-0.5555801256	-0.1174170229	 0.12268
H	 0.318626426	 0.4013405694	 1.3048873961	 0.14069
H	-4.4759393851	-0.947105804	 0.7940494957	 0.115957
H	-5.2384725881	-1.805822175	-1.21133532	 0.242176
H	-4.8617895006	-3.3110048364	 0.5031102766	 0.117783
H	-1.257990088	-5.3936938365	-0.3587420135	 0.200381
17.3644	59.846	99.8627	156.1276	206.09	237.296	285.6807	347.6409	421.3241	465.7406	539.7819	600.1229	610.6846	629.939	661.0995	733.4569	818.8626	866.738	916.0064	973.4457	986.5897	1040.355	1072.9034	1141.318	1192.3878	1201.9158	1215.3413	1255.7276	1358.0856	1400.9829	1418.6697	1437.9873	1489.5079	2245.4269	2362.4894	2978.6359	3062.5004	3116.81	3125.7955	3498.9061	3504.7444	3815.2966
OCC#CC1NC1C#C	OCC#C[C@H]1N[C@H]1C#C	
InChI=1S/C7H7NO/c1-2-6-7(8-6)4-3-5-9/h1,6-9H,5H2	InChI=1S/C7H7NO/c1-2-6-7(8-6)4-3-5-9/h1,6-9H,5H2/t6-,7+/m0/s1
