18
gdb 93882	2.14819	1.57335	1.14332	2.6474	70.36	-0.2723	0.0161	0.2884	1109.3487	0.148169	-439.10774	-439.098799	-439.097855	-439.141774	33.048	
O	 0.393071554	 0.977792534	-0.7698025653	-0.431477
C	 0.0283593112	-0.1455803362	-0.0122894733	 0.137977
C	 0.4910846217	-0.1309663219	 1.4658806497	-0.247225
C	-0.5303985608	-0.9926037527	 2.250900256	-0.247194
C	-1.5686900166	-1.4899997346	 1.2144202689	 0.137971
O	-2.8502615196	-1.7517677872	 1.7222336385	-0.431481
C	-1.500483009	-0.4328789572	 0.072090456	-0.23
C	-2.2290330429	 0.7749751573	 0.4473684874	 0.255271
N	-2.7756061125	 1.7359326533	 0.7892436119	-0.333523
H	 0.0219107579	 1.7630645658	-0.348815672	 0.292419
H	 0.4761913885	-0.9976147585	-0.53473026	 0.106399
H	 1.519271832	-0.487470029	 1.5565374688	 0.116566
H	 0.4820999261	 0.9033988823	 1.825415822	 0.113991
H	-0.0737278821	-1.8320743043	 2.7793233063	 0.116582
H	-1.0483534068	-0.3891145031	 3.0037094532	 0.114011
H	-1.2365355132	-2.4388233288	 0.7798583608	 0.106408
H	-3.1921383731	-0.9414035647	 2.1198296354	 0.292423
H	-1.9054440646	-0.8110791545	-0.8696005645	 0.130881
62.1733	100.9132	118.8658	164.8194	290.1199	336.7475	386.2068	405.6429	429.0819	438.3431	476.3936	573.0153	655.1746	669.5931	799.591	845.5504	846.0399	944.7207	990.7458	1001.4605	1047.9111	1093.7328	1101.159	1138.2433	1161.2283	1185.8657	1244.7315	1245.8616	1296.6116	1303.5566	1304.2861	1350.0291	1350.9125	1376.5239	1432.0611	1444.9867	1483.5396	1504.0168	2342.0139	3045.5198	3055.0676	3056.3822	3063.0219	3093.2533	3099.5215	3117.9616	3782.1567	3783.2593
OC1CCC(O)C1C#N	O[C@H]1CC[C@@H](O)[C@H]1C#N	
InChI=1S/C6H9NO2/c7-3-4-5(8)1-2-6(4)9/h4-6,8-9H,1-2H2	InChI=1S/C6H9NO2/c7-3-4-5(8)1-2-6(4)9/h4-6,8-9H,1-2H2/t4-,5-,6+
