13
gdb 28407	3.29656	1.42487	0.99486	2.2589	66.8	-0.2058	-0.0449	0.1609	1076.1776	0.089413	-493.769629	-493.762296	-493.761352	-493.80128	28.203	
O	 0.0586475701	 1.3262499173	 0.0071185547	-0.401902
C	-0.0616933446	-0.0070058466	 0.0010223053	 0.479385
C	-1.2363830908	-0.6753588917	 0.0042370394	-0.289981
C	-1.1949329447	-2.1011685787	-0.0031039614	-0.155736
C	-0.0046264579	-2.757625523	-0.0130690099	 0.186007
O	 0.1136858632	-4.1063777244	-0.020374835	-0.429575
C	 1.2421434776	-2.0257695838	-0.0166039255	 0.362425
O	 2.3433525425	-2.5271148085	-0.0249094618	-0.378
O	 1.1290016427	-0.6379083059	-0.0088452807	-0.251311
H	 0.9993610067	 1.5453147048	 0.0027375826	 0.316128
H	-2.1658863688	-0.1258719809	 0.0122012615	 0.124971
H	-2.1175005459	-2.6703935716	-0.0007319737	 0.127986
H	 1.0672763901	-4.2872193071	-0.0268054255	 0.309602
131.6413	191.4426	303.909	336.4913	351.3224	383.2054	415.0402	472.2109	519.2835	534.7968	615.1342	671.5735	753.8593	767.7043	785.019	809.5886	933.1683	1007.5867	1068.0456	1103.398	1202.4696	1250.7997	1284.2717	1332.254	1426.8825	1470.7347	1642.1044	1724.6217	1803.5198	3202.5721	3245.8928	3707.6374	3799.4917
OC1=CC=C(O)C(=O)O1	Oc1ccc(O)c(=O)o1	
InChI=1S/C5H4O4/c6-3-1-2-4(7)9-5(3)8/h1-2,6-7H	InChI=1S/C5H4O4/c6-3-1-2-4(7)9-5(3)8/h1-2,6-7H
