19
gdb 66388	2.753	1.24979	1.20907	2.4243	71.59	-0.2497	-0.0383	0.2114	1131.9596	0.159511	-460.179787	-460.171412	-460.170468	-460.212578	32.352	
O	-0.0146708261	 1.4046351676	-0.1027180054	-0.473363
C	 0.0294628858	 0.0038600866	 0.0067881862	 0.262807
C	-1.4085588498	-0.5664785985	 0.084720831	-0.25173
C	-1.4622373976	-2.0855947955	-0.1379781649	-0.222159
C	-0.6533343012	-2.4729527766	-1.3755812614	-0.064342
O	 0.6789066751	-1.9855074859	-1.2937557702	-0.245093
C	 0.7278190051	-0.5748834385	-1.2502171392	-0.130306
C	 0.8329947618	-0.3711971655	 1.2394608012	 0.127851
O	 1.276781497	 0.4726013928	 1.9836924768	-0.278656
H	 0.4718062039	 1.7425450911	 0.6668787858	 0.292585
H	-1.8705587547	-0.2818528661	 1.0360879755	 0.109327
H	-1.9718537147	-0.0525771618	-0.7034303343	 0.11908
H	-1.0619020027	-2.6203646445	 0.7311182685	 0.108122
H	-2.5020827906	-2.4105014628	-0.2569562078	 0.106141
H	-0.5743495856	-3.5586264799	-1.4775919063	 0.111095
H	-1.1393759591	-2.0788499356	-2.2843574101	 0.091984
H	 0.2361838702	-0.1271441936	-2.1288053213	 0.106781
H	 1.7831783723	-0.2879119559	-1.2699477968	 0.11734
H	 1.0064827409	-1.4482695575	 1.4166603529	 0.112535
101.2108	126.5343	213.9111	275.3387	284.9336	352.9382	385.2294	398.9716	440.6376	457.486	506.4845	570.9832	650.6084	814.8644	849.6591	875.0905	894.6723	926.4082	972.3739	993.4775	1038.6577	1048.7284	1125.3838	1152.8447	1172.3229	1188.9458	1215.2855	1254.1861	1285.7797	1320.1174	1340.3575	1370.1474	1384.0654	1388.9968	1412.9233	1445.0149	1482.5174	1488.8563	1493.5438	1507.2648	1802.0827	2965.2871	2972.2972	2982.8664	3034.8564	3036.3782	3072.6695	3083.3207	3088.4965	3093.8867	3677.1757
OC1(CCCOC1)C=O	O[C@]1(CCCOC1)C=O	
InChI=1S/C6H10O3/c7-4-6(8)2-1-3-9-5-6/h4,8H,1-3,5H2	InChI=1S/C6H10O3/c7-4-6(8)2-1-3-9-5-6/h4,8H,1-3,5H2/t6-/m1/s1
