16
gdb 72866	3.13719	1.24905	1.05959	3.1844	69.24	-0.2667	0.0133	0.28	1125.5987	0.124077	-437.858764	-437.850814	-437.849869	-437.891665	29.881	
O	 0.5505233893	 1.3226379206	-0.5882784702	-0.462608
C	 0.1424828871	 0.0833600701	-0.1237929391	 0.366563
C	 0.311647881	-1.0374895432	-1.1614928382	-0.113629
O	-1.0424103801	-1.5108225962	-0.9405128087	-0.281101
C	-1.3211609654	-0.4727679884	 0.0003306226	 0.023969
C	-1.0101557999	-0.9381036954	 1.4674448226	-0.162279
C	 0.4328602549	-0.3257561555	 1.3427829466	-0.332289
C	-1.8370073245	-0.3407811911	 2.4993011732	 0.262189
N	-2.4964984259	 0.1719054739	 3.2994676606	-0.323106
H	 0.4007839984	 1.9845762768	 0.0954549736	 0.290709
H	 0.4400473896	-0.6522532349	-2.1785202891	 0.125445
H	 1.0648631855	-1.8057139026	-0.9535016082	 0.109566
H	-2.2561529863	 0.0584740436	-0.1863080597	 0.106742
H	-1.0360463384	-2.0266129987	 1.546254855	 0.138688
H	 1.2641727954	-1.0137999685	 1.5100215277	 0.125185
H	 0.5611181192	 0.5429357796	 1.9937961113	 0.125955
54.2767	154.7223	184.8129	278.1764	329.6699	361.4605	386.6845	415.2	480.7558	552.9278	640.1947	683.595	798.4033	871.0989	907.3823	926.253	978.8884	998.5383	1021.6815	1037.7536	1066.9783	1119.5513	1122.129	1151.018	1163.2979	1202.5452	1236.2873	1272.9239	1311.3767	1320.8074	1356.7782	1410.9658	1477.2664	1515.9835	2350.6456	3031.5689	3066.4491	3087.9571	3099.0271	3103.5697	3125.8718	3808.0687
OC12COC1C(C2)C#N	O[C@]12CO[C@H]1[C@@H](C2)C#N	
InChI=1S/C6H7NO2/c7-2-4-1-6(8)3-9-5(4)6/h4-5,8H,1,3H2	InChI=1S/C6H7NO2/c7-2-4-1-6(8)3-9-5(4)6/h4-5,8H,1,3H2/t4-,5-,6+/m0/s1
