16
gdb 49866	3.04183	1.33776	0.99857	4.1439	71.27	-0.2443	-0.0341	0.2102	1137.3295	0.124678	-437.919049	-437.911303	-437.910359	-437.952161	28.664	
O	-0.053565645	 0.0230739996	-0.294087557	-0.333227
C	 0.0256181127	 1.2304893618	-0.2111615987	 0.141512
N	 1.1745306243	 1.9067553445	 0.0498789766	-0.051402
C	 2.4520279392	 1.2370541288	 0.2492637907	-0.293012
C	 3.4108638433	 2.3581305899	 0.6843335533	 0.400576
O	 4.5134301752	 2.1849117431	 1.131911393	-0.310356
C	 2.7039456827	 3.6697605274	 0.5202422327	-0.174597
C	 2.1870087603	 3.9875354241	-0.8859401591	-0.309652
C	 1.285334554	 3.3455690305	 0.1208893229	 0.007021
H	-0.8409742144	 1.9116847627	-0.3264123422	 0.075445
H	 2.3842414618	 0.4692466004	 1.0256509289	 0.166
H	 2.8146646152	 0.7431847775	-0.6606116103	 0.152848
H	 2.9767346192	 4.4848148125	 1.1771671098	 0.126006
H	 2.0466647714	 5.0409272795	-1.0998064825	 0.139042
H	 2.5394852326	 3.3937717858	-1.7221773067	 0.138027
H	 0.4296933377	 3.8703640819	 0.5283355885	 0.125768
44.594	125.6481	194.1442	211.7573	328.5892	412.2702	451.9421	482.4009	551.0673	625.8065	702.036	774.0104	818.5996	867.385	897.7624	925.8786	990.9458	1020.9761	1031.2976	1053.0704	1059.3674	1097.2351	1176.6944	1183.4012	1200.5916	1228.8166	1300.6381	1320.8002	1342.7261	1418.3679	1447.3787	1480.5362	1483.8739	1794.1416	1850.9974	2935.9405	3039.3206	3089.4495	3138.6023	3187.6246	3209.4262	3231.3824
O=CN1CC(=O)C2CC12	O=CN1CC(=O)[C@H]2C[C@@H]12	
InChI=1S/C6H7NO2/c8-3-7-2-6(9)4-1-5(4)7/h3-5H,1-2H2	InChI=1S/C6H7NO2/c8-3-7-2-6(9)4-1-5(4)7/h3-5H,1-2H2/t4-,5+/m0/s1
