23
gdb 120134	2.60981	1.04239	0.87998	1.441	85.69	-0.2481	0.0766	0.3247	1428.6406	0.205542	-388.254671	-388.244951	-388.244007	-388.289634	36.596	
C	 0.922237771	 2.091640173	 3.1414549899	-0.418123
C	 0.4608060687	 0.7152417872	 2.6714766616	 0.050387
C	-0.1576273453	 0.5095013578	 1.2455586008	-0.265072
C	 0.7857478035	-0.682937288	 1.0252461764	-0.089579
C	 2.2303894573	-0.2771593694	 1.0779275382	 0.006855
C	 2.8362626177	 0.9699800811	 0.4648447116	-0.220969
C	 4.1316292926	 1.387333193	 1.1519033692	-0.06173
O	 4.6291520383	 2.5382834562	 0.4841374638	-0.42347
C	 1.4680237258	-0.4111784423	 2.3772930089	-0.096917
H	 1.6142123464	 2.5678214581	 2.4423649785	 0.126913
H	 0.065662458	 2.7639214725	 3.2673553129	 0.110629
H	 1.42808429	 2.0196540781	 4.1112524764	 0.110088
H	-0.2582974297	 0.3304069854	 3.4029944542	 0.074982
H	-1.2122465424	 0.2283153678	 1.2805990149	 0.098854
H	-0.0512014662	 1.3407043375	 0.5410549234	 0.097298
H	 0.4799429354	-1.6338185291	 0.6045963586	 0.080251
H	 2.8768236412	-1.1456924033	 0.9443886913	 0.08123
H	 3.0536875264	 0.7817572543	-0.5941559909	 0.102049
H	 2.1441903678	 1.8153862264	 0.4865891487	 0.109068
H	 3.9358259764	 1.594278235	 2.2156727703	 0.089616
H	 4.8574673752	 0.5580890263	 1.1116828855	 0.079333
H	 5.4421988168	 2.8102063338	 0.9193852241	 0.283861
H	 1.7890382151	-1.1326358312	 3.1215793817	 0.074445
54.4961	92.0807	121.7528	194.8436	211.7981	251.4124	265.8013	291.223	364.2559	421.779	469.928	599.7621	653.9966	750.1786	788.1142	804.739	829.9433	863.6679	919.1972	960.6998	990.2983	998.7277	1012.967	1030.0873	1070.5557	1074.3841	1089.7854	1104.2789	1122.8365	1139.7725	1192.7895	1205.8851	1234.6375	1241.9763	1246.672	1275.7136	1304.7586	1308.5589	1326.5244	1360.8592	1381.2782	1407.2158	1456.3636	1461.0386	1485.9977	1492.411	1498.0456	1503.1503	1526.698	2961.0564	2992.1772	3027.6328	3035.4447	3036.7744	3047.9886	3085.4823	3090.1598	3104.176	3105.8458	3119.1485	3156.1972	3176.0984	3830.3481
CC1CC2C(CCO)C12	C[C@H]1C[C@H]2[C@@H](CCO)[C@@H]12	
InChI=1S/C8H14O/c1-5-4-7-6(2-3-9)8(5)7/h5-9H,2-4H2,1H3	InChI=1S/C8H14O/c1-5-4-7-6(2-3-9)8(5)7/h5-9H,2-4H2,1H3/t5-,6+,7-,8+/m0/s1
