18
gdb 34665	3.29517	1.1375	0.88758	3.9932	80.92	-0.2652	-0.0461	0.2191	1276.9637	0.149367	-401.967848	-401.959611	-401.958666	-402.001429	30.653	
N	-0.0580678562	-1.0966832365	-0.5830739409	-0.337284
C	-0.0525565304	 0.030115473	-0.3128828288	 0.224559
C	 0.0000469845	 1.4224098207	 0.0259808129	 0.144958
C	-1.1493927029	 2.1160965972	-0.0096293185	-0.122651
C	-1.3579886022	 3.5877821537	 0.2560500878	-0.140808
O	-0.666645791	 4.1454287072	 1.3475180009	-0.23034
C	 0.7309828442	 4.2995118958	 1.1813933463	-0.072539
C	 1.5064403998	 3.0073663821	 1.4299956244	-0.203004
C	 1.3935352203	 1.9563172733	 0.3198953953	-0.303545
H	-2.0467142151	 1.5770281272	-0.3032102979	 0.120514
H	-1.1296283745	 4.1465721143	-0.6716052718	 0.110663
H	-2.4186673731	 3.7536270654	 0.4678768362	 0.126626
H	 0.9562467273	 4.7017258232	 0.1787351245	 0.086682
H	 1.0309929283	 5.0544517558	 1.9150557835	 0.113546
H	 2.5673898028	 3.2595169207	 1.5487905139	 0.104102
H	 1.1674411082	 2.5846691201	 2.3822136559	 0.119802
H	 2.0403749064	 1.1095333187	 0.5667377008	 0.130972
H	 1.7972691938	 2.3723325078	-0.6150465743	 0.127747
36.9058	151.9765	169.1097	209.9682	308.1379	356.9313	381.4336	409.5495	490.2308	567.9221	588.8859	645.5021	737.2445	847.6394	864.5362	888.3862	914.872	958.3491	1032.9557	1053.2897	1070.3902	1110.9528	1124.4949	1196.5437	1217.2273	1280.3019	1289.3712	1333.2858	1354.3304	1384.4609	1401.0544	1405.1317	1423.5096	1470.7557	1472.7227	1477.451	1497.1188	1695.3139	2331.2362	2927.4922	2963.6625	3006.307	3032.8247	3075.2938	3078.9881	3080.6742	3086.0518	3163.6397
N#CC1=CCOCCC1	N#CC1=CCOCCC1	
InChI=1S/C7H9NO/c8-6-7-2-1-4-9-5-3-7/h3H,1-2,4-5H2	InChI=1S/C7H9NO/c8-6-7-2-1-4-9-5-3-7/h3H,1-2,4-5H2
