15
gdb 129279	3.33062	1.6761	1.13708	5.2601	68.5	-0.2119	0.0352	0.2472	1004.2964	0.116146	-450.117299	-450.110263	-450.109319	-450.148945	26.74	
N	-0.1607820354	 1.2997273643	 0.0977779331	-0.613492
C	-0.0538433344	 0.0392902842	 0.0680799981	 0.475037
O	 1.0822962897	-0.7319098626	 0.103643726	-0.262979
N	 0.752659192	-2.1516665831	 0.0010224381	-0.291475
C	-0.5364875936	-2.1196010897	-0.0675665378	 0.520047
N	-1.5240428012	-3.0566409578	-0.2530884629	-0.408658
C	-2.8108879148	-2.402481375	 0.0731990027	-0.1814
C	-2.5221032341	-0.8916816389	-0.1696581312	-0.173632
N	-1.0854749485	-0.8754699912	 0.005341593	-0.114886
H	 0.7558103021	 1.7373116104	 0.1526513493	 0.231979
H	-1.3580306806	-3.9883581447	 0.0959400338	 0.267547
H	-3.6096951819	-2.7768329727	-0.5701020746	 0.134646
H	-3.0952679193	-2.5717367027	 1.1197576986	 0.127232
H	-2.8012725451	-0.5772277198	-1.1815806076	 0.140166
H	-3.0282571648	-0.2461738606	 0.5503212414	 0.149869
112.567	168.3772	185.9098	291.8928	339.0525	512.1078	574.0167	631.4423	676.2794	682.0204	727.2831	762.5057	781.0874	800.2379	878.4318	896.3186	944.6007	1022.3305	1049.7315	1125.2446	1143.6069	1206.863	1225.3583	1254.5347	1314.2377	1332.7295	1392.1709	1417.5128	1501.1137	1528.812	1544.9245	1720.8615	1783.4155	3021.605	3044.8601	3105.5976	3118.5951	3535.1535	3628.8358
N=C1ON=C2NCCN12	[NH][C@H]1ON=C2NCCN12	
InChI=1S/C4H6N4O/c5-3-8-2-1-6-4(8)7-9-3/h5H,1-2H2,(H,6,7)	InChI=1S/C4H7N4O/c5-3-8-2-1-6-4(8)7-9-3/h3,5H,1-2H2,(H,6,7)/t3-/m1/s1
