23
gdb 89715	2.84901	1.12165	1.07252	1.4837	86.84	-0.2183	0.0887	0.307	1319.0044	0.203343	-388.275889	-388.265884	-388.26494	-388.310592	38.058	
C	 0.5136646853	 1.4497931959	 0.0758936802	-0.396703
C	-0.0127162604	 0.0338139104	-0.0350911781	 0.159233
C	 0.4083221374	-0.809406205	-1.2624837113	-0.385365
C	 1.0388438659	-1.7289158845	-0.2234509773	 0.436507
C	 0.9933120438	-3.2208222458	-0.0982494008	-0.40754
C	 2.3308519035	-2.4904318914	-0.2332522164	 0.253762
C	 3.0772493288	-2.6210217428	-1.5463973678	-0.45235
C	 3.2077029126	-2.3975726223	 1.0003756017	-0.448615
O	 0.6691417168	-0.8802682549	 0.8672156582	-0.323734
H	 1.5871582316	 1.4819127282	-0.1350386438	 0.11937
H	-0.0023096967	 2.1065442667	-0.6334424199	 0.114387
H	 0.3501621184	 1.8406378937	 1.0850869908	 0.12684
H	-1.0933504605	 0.0106341867	 0.1572939502	 0.077109
H	-0.4074657496	-1.2370572434	-1.8483529643	 0.10891
H	 1.1139016643	-0.3112632314	-1.9327716562	 0.107129
H	 0.7363539358	-3.6214462717	 0.8774676454	 0.115142
H	 0.6307611875	-3.8048218604	-0.9395305542	 0.103324
H	 2.3936901824	-2.6571502052	-2.4006141655	 0.111938
H	 3.7598505125	-1.7764765702	-1.7001682712	 0.112494
H	 3.677021436	-3.5388179995	-1.564947247	 0.115848
H	 3.7791037415	-3.3218928625	 1.1446590003	 0.109531
H	 3.9250196121	-1.5735026019	 0.9076927671	 0.110587
H	 2.612737751	-2.2148309886	 1.8981412301	 0.132195
44.7472	137.2818	169.1148	186.9731	213.6253	242.3816	264.3022	322.727	352.4487	382.3143	420.0237	433.5558	509.3562	563.6327	700.4738	777.8063	860.7282	880.9664	907.6026	910.3481	920.4135	939.2698	973.9202	993.446	1031.3383	1037.8262	1078.7942	1100.9525	1127.2843	1158.3458	1167.4228	1205.0224	1218.1662	1255.8376	1289.2052	1323.5808	1378.3635	1401.8333	1408.4012	1415.2943	1423.9263	1477.4772	1482.1224	1483.1129	1490.4469	1494.0953	1497.675	1501.2412	1518.1178	3014.0405	3018.4447	3025.4492	3032.0777	3062.811	3077.362	3080.7861	3095.9312	3104.3941	3111.7518	3114.6456	3118.5315	3122.7334	3204.8188
CC1CC2(CC2(C)C)O1	C[C@H]1C[C@]2(CC2(C)C)O1	
InChI=1S/C8H14O/c1-6-4-8(9-6)5-7(8,2)3/h6H,4-5H2,1-3H3	InChI=1S/C8H14O/c1-6-4-8(9-6)5-7(8,2)3/h6H,4-5H2,1-3H3/t6-,8+/m0/s1
