14
gdb 132269	2.01011	1.74886	0.94064	4.6747	69.25	-0.2361	-0.0535	0.1826	1149.3321	0.099625	-481.860509	-481.852807	-481.851863	-481.89299	28.519	
C	-0.0193858172	 1.5324301517	 0.0275685804	-0.485269
C	 0.0010164965	 0.0298531955	 0.0006321453	 0.354123
C	-0.0229441164	-0.6650289877	-1.1722935873	-0.36594
C	-0.0041005273	-2.1013416847	-1.2275785405	 0.44367
O	-0.0207351799	-2.838096897	-2.1684318499	-0.325986
O	 0.0425123959	-2.7339141514	 0.0755915293	-0.240693
C	 0.064273985	-2.0249065894	 1.1806081183	 0.43547
F	 0.1059277508	-2.7938442447	 2.2449003266	-0.034864
C	 0.0469544429	-0.6778014111	 1.2446625285	-0.460017
H	 0.8713828153	 1.9191773877	 0.5352927866	 0.146928
H	-0.0559811806	 1.9535199837	-0.9786993699	 0.1393
H	-0.8880118034	 1.8944384512	 0.5890206996	 0.146863
H	-0.0577531824	-0.1652510554	-2.1317539218	 0.122526
H	 0.0674314506	-0.1777648284	 2.2019624848	 0.123889
117.875	157.0807	181.2173	218.1873	292.3479	351.5279	459.7485	522.9208	566.3572	573.8246	617.9833	686.5451	742.1344	803.1219	822.3257	855.111	989.1749	1005.5743	1030.2938	1060.015	1121.1417	1173.9909	1277.1591	1387.7457	1411.8466	1461.2577	1478.3985	1485.1474	1586.122	1701.0671	1873.5152	3036.2357	3090.7785	3135.886	3217.8896	3238.7138
CC1=CC(=O)OC(F)=C1	Cc1cc(=O)oc(F)c1	
InChI=1S/C6H5FO2/c1-4-2-5(7)9-6(8)3-4/h2-3H,1H3	InChI=1S/C6H5FO2/c1-4-2-5(7)9-6(8)3-4/h2-3H,1H3
