20
gdb 39223	2.45775	2.16929	1.55083	1.4717	81.94	-0.2048	0.0142	0.2191	930.2428	0.175226	-365.974694	-365.96805	-365.967106	-366.005078	29.216	
C	 0.0023823739	 1.5339290132	-0.0359029998	-0.242181
C	 1.5332893038	 1.7263737277	-0.0190516276	-0.050063
C	 2.0153471409	 1.4243183933	 1.4533757645	-0.206402
C	 0.9824445355	 0.5828036221	 2.2869788897	-0.242953
C	 0.4645800345	-0.5062273732	 1.3674038972	-0.009412
N	-0.9283700968	-0.6795240988	 0.8770535496	-0.43919
C	 0.0420491187	 0.0101644754	 0.0351559291	 0.28663
C	 1.0240358059	-0.3427598511	-1.0546914315	-0.176029
C	 1.927416932	 0.6453466454	-1.0481924949	-0.079771
H	-0.5317635006	 2.0025830049	 0.7908030063	 0.099171
H	-0.436582485	 1.8708721895	-0.9794939857	 0.091843
H	 1.8687344628	 2.7214789476	-0.3206445328	 0.062414
H	 2.9740667398	 0.8953377498	 1.4247109818	 0.099399
H	 2.200641552	 2.3712085971	 1.971195651	 0.097222
H	 1.4675255398	 0.1762695233	 3.180402142	 0.090931
H	 0.1643596417	 1.2163769122	 2.6394400607	 0.116078
H	 1.0803769895	-1.4033250208	 1.3329326857	 0.081909
H	-1.0611620609	-1.6507916345	 0.6039017481	 0.230878
H	 1.0442334296	-1.2592134757	-1.6310985694	 0.096949
H	 2.828462043	 0.6931583325	-1.6479140639	 0.092579
224.0978	276.9657	349.6704	402.2215	426.7739	474.2202	536.789	579.6876	588.8905	713.4423	746.4959	780.3488	796.8454	839.6346	851.3208	879.0506	923.0396	927.1818	942.6575	973.7797	997.8337	1029.0463	1043.1693	1065.624	1079.4836	1114.3668	1135.724	1156.7579	1207.8692	1219.9008	1250.0449	1261.5312	1302.6762	1315.3317	1320.3621	1336.4622	1355.7538	1366.3047	1463.7522	1481.6992	1487.8817	1516.3195	1626.5484	3036.6904	3050.5229	3060.7921	3070.6885	3080.4591	3095.0432	3116.1836	3132.7389	3192.4363	3218.6381	3493.4743
C1C2CCC3NC13C=C2	C1[C@H]2CC[C@H]3N[C@@]13C=C2	
InChI=1S/C8H11N/c1-2-7-8(9-7)4-3-6(1)5-8/h3-4,6-7,9H,1-2,5H2	InChI=1S/C8H11N/c1-2-7-8(9-7)4-3-6(1)5-8/h3-4,6-7,9H,1-2,5H2/t6-,7+,8-/m0/s1
