24
gdb 59999	2.43559	1.05695	0.85581	1.3622	86.28	-0.226	0.0707	0.2968	1487.1054	0.215461	-405.522733	-405.512093	-405.511149	-405.558149	39.856	
C	-0.1045171244	 1.5186148112	 0.086239323	-0.399985
C	 0.0563675839	-0.001930024	 0.1004538253	 0.127681
O	-1.1992585443	-0.6462862192	 0.3312526325	-0.429599
C	 0.7393647507	-0.5163342269	-1.1734686829	-0.201651
C	 0.8868587694	-2.0417841828	-1.2812305263	 0.06166
C	 1.5004948024	-2.4295502191	-2.6291803529	-0.391498
N	 1.7497820973	-2.5443414677	-0.2065330292	-0.071851
C	 1.0921539429	-2.9430390646	 1.0394570642	-0.228486
C	 1.6197086016	-3.9663236116	 0.0999580254	-0.230903
H	 0.8665141173	 2.0187044458	 0.0105629032	 0.117488
H	-0.7106260115	 1.8385580948	-0.7711678097	 0.103098
H	-0.6005227995	 1.8570704963	 0.9999455881	 0.121842
H	 0.6635826258	-0.2822613562	 0.9668423501	 0.104463
H	-1.7845813003	-0.4168618533	-0.3994800331	 0.274876
H	 0.1664453797	-0.1639270122	-2.0441953688	 0.076891
H	 1.7345397577	-0.0608433156	-1.2479776678	 0.102964
H	-0.1208483665	-2.4887041299	-1.2088369309	 0.058476
H	 2.5049441369	-2.0055164283	-2.7276122655	 0.121792
H	 1.5829976605	-3.5163429197	-2.7247380497	 0.112714
H	 0.8861989011	-2.062819669	-3.4574784613	 0.106483
H	 1.635158409	-2.7064562655	 1.9507603309	 0.109423
H	 0.0138184873	-2.8204712744	 1.101781622	 0.136999
H	 0.8881907645	-4.5450336183	-0.4627156179	 0.106171
H	 2.5452332786	-4.49335005	 0.3144053711	 0.110951
76.0738	96.1051	123.9635	165.5391	224.3423	237.7578	245.2176	285.4282	296.7596	317.0192	331.3063	450.6684	458.6045	501.351	558.4375	718.7497	824.6607	836.4726	882.4955	901.4908	910.1341	954.5663	990.2912	1017.4128	1028.2797	1065.4632	1082.9288	1112.6779	1122.9046	1126.8628	1152.8677	1160.2167	1183.2358	1195.3389	1237.5984	1303.4523	1312.6002	1330.9638	1359.3837	1388.8481	1396.8644	1404.1154	1407.8184	1425.3439	1465.1238	1488.8233	1492.2473	1494.1186	1494.9417	1501.4891	1521.1702	2939.7501	2999.5466	3022.464	3036.4495	3056.3517	3069.6814	3091.0729	3096.2123	3105.3372	3108.4819	3110.0729	3117.5781	3175.0732	3195.0363	3792.9165
CC(O)CC(C)N1CC1	C[C@@H](O)C[C@@H](C)N1CC1	
InChI=1S/C7H15NO/c1-6(5-7(2)9)8-3-4-8/h6-7,9H,3-5H2,1-2H3	InChI=1S/C7H15NO/c1-6(5-7(2)9)8-3-4-8/h6-7,9H,3-5H2,1-2H3/t6-,7-/m1/s1
