18
gdb 17410	4.22721	1.62397	1.57278	2.0674	72.63	-0.2225	0.0794	0.3019	903.6532	0.154337	-343.89858	-343.891308	-343.890364	-343.929788	28.514	
C	-0.2022123903	 1.4040165431	-0.0137728013	-0.313982
N	 0.0322521608	-0.0306131072	 0.0545400759	-0.122788
C	 1.4080737627	-0.4956915397	-0.1405113119	-0.332616
C	 0.7586277096	-0.5439779612	 1.1927430351	 0.422681
C	 1.2667319809	 0.1745030998	 2.4787707649	-0.320445
C	 0.8685380856	-1.093930647	 3.2486656737	-0.038872
N	-0.5908039512	-1.2504766636	 3.0449717605	-0.336359
C	 0.3583415261	-1.7510430508	 2.0118375244	-0.151664
H	 0.6316770245	 2.0106197876	 0.3768068924	 0.097488
H	-0.3722235812	 1.6906447726	-1.0564915243	 0.11987
H	-1.10136658	 1.6474951112	 0.560254229	 0.131694
H	 1.5243223502	-1.3923196698	-0.7452959378	 0.111452
H	 2.190641089	 0.2510725341	-0.279565368	 0.101951
H	 2.3424404151	 0.3644576949	 2.4635655787	 0.105842
H	 0.7326607172	 1.0781914968	 2.782982015	 0.11163
H	 1.367733023	-1.5273951433	 4.1054568869	 0.094549
H	-0.8833703292	-2.0639794804	 3.5873424263	 0.226897
H	 0.3588006372	-2.7915771771	 1.7114839205	 0.092671
117.064	181.8393	229.358	246.7196	379.5789	409.9222	451.9215	502.0034	584.2295	759.9193	797.6045	823.7379	836.0809	882.044	903.6272	920.1061	968.2109	994.6351	1040.099	1055.0292	1094.0745	1099.7906	1113.3938	1137.6527	1158.0819	1176.1672	1199.2722	1210.4361	1226.3001	1293.9301	1317.4511	1357.8615	1432.646	1449.6793	1472.9389	1494.5129	1496.1556	1516.7039	2966.1501	3062.4532	3068.1892	3076.5508	3106.554	3118.9955	3163.0581	3188.2352	3203.461	3461.8511
CN1CC11CC2NC12	CN1C[C@]21C[C@H]1N[C@@H]21	
InChI=1S/C6H10N2/c1-8-3-6(8)2-4-5(6)7-4/h4-5,7H,2-3H2,1H3	InChI=1S/C6H10N2/c1-8-3-6(8)2-4-5(6)7-4/h4-5,7H,2-3H2,1H3/t4-,5-,6-,8?/m1/s1
