19
gdb 68832	2.73345	1.44158	1.21411	1.4044	76.05	-0.2476	0.0745	0.3221	1095.7935	0.157214	-422.975046	-422.966264	-422.96532	-423.007983	33.934	
C	 0.0347829758	 1.605667096	 0.0266221126	-0.507985
C	-0.048971189	 0.1081992303	 0.0761481774	 0.206741
C	 1.0874153722	-0.8029892281	-0.3688863024	-0.395092
C	 0.5768533606	-0.9059778632	 1.0392470216	 0.353273
O	 1.348457004	-0.6053817659	 2.1462025849	-0.463453
C	-0.7136491928	-1.739966087	 1.0845596393	-0.399212
C	-1.3152988475	-0.7220247335	 0.0935640599	 0.424218
C	-2.705677028	-0.2948470514	-0.0443961901	-0.272397
O	-2.0593483012	-1.0719697561	-1.0651580372	-0.280728
H	 1.0372271027	 1.9456833423	 0.3040705572	 0.127818
H	-0.1808057657	 1.9849357544	-0.9788869643	 0.12671
H	-0.6766696018	 2.0665742961	 0.7204248077	 0.119874
H	 0.9205388253	-1.5938020198	-1.0962658687	 0.116155
H	 2.0404777448	-0.2906856847	-0.4622178388	 0.112119
H	 2.0448193616	-1.2669684692	 2.2215184767	 0.287954
H	-0.652584168	-2.7777061451	 0.7408390703	 0.10297
H	-1.1961699662	-1.703365195	 2.064802403	 0.113647
H	-3.4871525459	-0.810434635	 0.5135378625	 0.113036
H	-2.9379958408	 0.733109695	-0.3211165317	 0.114353
103.7478	164.1962	186.3544	221.5074	254.9721	267.455	340.1654	393.2741	424.8436	481.6556	485.7489	586.9116	634.0741	730.208	775.3184	817.3723	842.0478	911.0395	937.5084	966.96	990.6491	1029.2418	1056.7689	1099.0809	1116.7165	1123.5625	1141.6666	1160.132	1187.5314	1216.5246	1236.2033	1297.9975	1346.8854	1404.0152	1420.4548	1436.3067	1473.5309	1484.9334	1500.3597	1510.1411	1541.9164	3026.8268	3045.9109	3075.4691	3086.7972	3104.6597	3106.7742	3107.5127	3160.1199	3199.6569	3795.2367
CC12CC1(O)CC21CO1	C[C@@]12C[C@]1(O)C[C@]12CO1	
InChI=1S/C7H10O2/c1-5-2-6(5,8)3-7(5)4-9-7/h8H,2-4H2,1H3	InChI=1S/C7H10O2/c1-5-2-6(5,8)3-7(5)4-9-7/h8H,2-4H2,1H3/t5-,6+,7-/m1/s1
