17
gdb 28217	4.73317	1.22336	0.99215	1.6367	76.01	-0.2123	0.0088	0.2211	1179.084	0.138362	-418.031589	-418.023668	-418.022724	-418.064736	28.768	
C	 0.0310493065	 1.4310201683	 0.093769617	-0.493315
C	 0.0068570413	-0.0456869942	-0.0613307788	 0.340895
N	-0.0659414502	-0.7443570421	-1.1562660805	-0.380331
C	-0.0374426495	-2.0552976581	-0.7063767565	 0.238819
C	 0.0478297919	-2.0753521456	 0.6300023541	 0.286099
C	 0.0322316609	-3.4333614056	 1.229761833	-0.289274
N	-0.1478232081	-4.266439718	 0.0012166731	-0.316968
C	-0.1160704681	-3.4431879081	-1.2512141946	-0.290367
O	 0.0745539862	-0.7977864973	 1.0927054928	-0.225651
H	 0.9596550818	 1.7648567749	 0.5688989523	 0.144862
H	-0.0476348655	 1.8887729386	-0.8925371304	 0.157974
H	-0.8003678949	 1.7771121418	 0.7166337274	 0.145585
H	 0.9587290646	-3.6826911137	 1.7680505183	 0.10902
H	-0.7981464117	-3.5881148369	 1.933494078	 0.120354
H	 0.5629920279	-4.9830599417	-0.0358455991	 0.224854
H	-1.0212129202	-3.6175843703	-1.8481777162	 0.119812
H	 0.7422273972	-3.7025420821	-1.8869471599	 0.107633
61.5272	98.5124	134.8005	250.1787	268.867	286.1863	480.2322	522.7776	649.43	658.8166	692.9783	721.9833	758.6801	857.2374	910.9052	933.4883	1025.9509	1038.7971	1044.2355	1062.9725	1066.264	1134.1366	1175.4093	1193.7959	1238.718	1288.4976	1313.2001	1399.5928	1403.5662	1420.4234	1461.5226	1474.28	1481.8199	1520.4468	1526.5374	1603.3546	1687.3225	2985.3661	2998.4174	3003.2243	3020.9829	3042.2556	3095.5584	3157.1322	3583.521
CC1=NC2=C(CNC2)O1	Cc1nc2c(CNC2)o1	
InChI=1S/C6H8N2O/c1-4-8-5-2-7-3-6(5)9-4/h7H,2-3H2,1H3	InChI=1S/C6H8N2O/c1-4-8-5-2-7-3-6(5)9-4/h7H,2-3H2,1H3
