20
gdb 16246	2.78558	2.21854	1.4722	1.4537	74.49	-0.2369	0.0873	0.3242	924.5642	0.177879	-349.001486	-348.993615	-348.99267	-349.033743	30.368	
C	-0.318848765	 1.404321662	-0.0789382998	-0.409829
C	 0.0080049649	-0.0795540883	-0.0119959337	 0.097983
O	 0.876639076	-0.4170898742	-1.1048136489	-0.282605
C	 1.9345613886	-1.2661344177	-0.6623120557	-0.062418
C	 1.5270085857	-1.7695706698	 0.7266991266	-0.309423
C	 0.7205341217	-0.58814903	 1.2404705219	 0.344409
C	 1.2880346308	 0.3295766176	 2.2951807033	-0.307167
C	 0.1007510738	-0.5554509131	 2.6042280646	-0.335616
H	 0.5905876769	 2.0066586412	-0.0033810507	 0.121865
H	-0.8015068864	 1.6335434215	-1.0327933153	 0.125215
H	-1.005322969	 1.6935625307	 0.7244453555	 0.110589
H	-0.9277824514	-0.6512670004	-0.1339642799	 0.067012
H	 2.0689402656	-2.0719943261	-1.3922808003	 0.098946
H	 2.8731967598	-0.6940518439	-0.6116795516	 0.09128
H	 0.8918766766	-2.659604407	 0.6404626561	 0.104258
H	 2.3818855387	-2.0228398211	 1.3590581369	 0.099622
H	 2.2474810592	 0.0681488235	 2.7300534468	 0.108509
H	 1.1155857981	 1.396613392	 2.2141296391	 0.114521
H	-0.8681988583	-0.0777574063	 2.7148772773	 0.112006
H	 0.2478001537	-1.4104191004	 3.2563498377	 0.110843
58.6585	142.0886	228.0926	265.8197	275.4527	367.2944	370.9908	477.433	536.5404	653.4246	723.3632	781.6701	823.5014	870.1024	902.9442	917.1896	936.6701	976.4444	983.8969	1031.5891	1056.2405	1075.8019	1082.9276	1113.9711	1118.483	1142.6991	1188.2377	1199.7007	1230.6479	1273.5764	1317.4897	1344.8334	1371.8359	1391.9101	1397.552	1411.3559	1466.5197	1484.5434	1489.8131	1499.2044	1510.3639	1529.276	2947.7587	2987.3166	3030.8262	3037.2986	3058.3127	3097.0931	3108.3027	3120.4602	3122.1871	3131.7971	3199.5743	3218.7937
CC1OCCC11CC1	C[C@H]1OCCC21CC2	
InChI=1S/C7H12O/c1-6-7(2-3-7)4-5-8-6/h6H,2-5H2,1H3	InChI=1S/C7H12O/c1-6-7(2-3-7)4-5-8-6/h6H,2-5H2,1H3/t6-/m1/s1
