18
gdb 86866	3.35885	1.10072	0.86393	3.8679	74.31	-0.25	-0.035	0.2151	1309.4988	0.147331	-439.143235	-439.13442	-439.133475	-439.177438	31.761	
C	-0.3056403894	 1.4908791335	 0.0033057309	-0.405931
C	 0.1049193597	 0.0232949581	-0.0357398093	-0.09483
C	 0.9575428881	-0.4292333304	-1.2331797	-0.200736
N	 1.6942827173	-1.5859552518	-0.7239911369	-0.052695
C	 1.9362932596	-1.4890464094	 0.7050384824	-0.277607
C	 0.9584378783	-0.4050978693	 1.1679608712	 0.382301
O	 0.8894725391	 0.0452389496	 2.27952353	-0.303902
C	 1.9345815772	-2.7271729296	-1.4208628185	 0.141598
O	 2.4648009697	-3.7165501597	-0.9609075455	-0.332617
H	 0.5662363108	 2.1442804123	-0.1051941343	 0.125719
H	-1.0115786759	 1.7287801928	-0.7973000609	 0.121152
H	-0.7749721536	 1.7196117633	 0.9631048826	 0.147483
H	-0.7904685589	-0.6150831908	 0.0067119199	 0.119244
H	 0.3683919487	-0.7114581259	-2.1089731951	 0.127686
H	 1.6436229495	 0.3765128917	-1.5332417947	 0.11602
H	 1.7533603145	-2.449033764	 1.1975831519	 0.165901
H	 2.963779882	-1.187925669	 0.9486878986	 0.146782
H	 1.5852966633	-2.6534111813	-2.4702010423	 0.074432
51.3116	87.5331	188.552	194.9513	225.3616	250.128	329.7351	348.8822	441.1541	508.9892	582.1377	591.7855	712.5304	749.4367	901.5144	904.4502	924.2398	947.931	1032.1158	1044.0951	1110.0619	1145.4975	1159.0756	1172.5332	1200.2074	1224.2588	1295.561	1308.0242	1316.6282	1376.2303	1410.1758	1420.5982	1444.0717	1477.8666	1495.2093	1496.8331	1515.8529	1793.1587	1859.2275	2933.7957	2993.379	3007.4304	3026.1918	3043.6601	3088.3579	3098.6481	3111.5718	3129.859
CC1CN(CC1=O)C=O	C[C@H]1CN(CC1=O)C=O	
InChI=1S/C6H9NO2/c1-5-2-7(4-8)3-6(5)9/h4-5H,2-3H2,1H3	InChI=1S/C6H9NO2/c1-5-2-7(4-8)3-6(5)9/h4-5H,2-3H2,1H3/t5-/m0/s1
