16
gdb 132521	3.10616	1.28551	0.91442	2.8411	75.46	-0.2206	0.0012	0.2218	1196.2634	0.123929	-445.927967	-445.92001	-445.919066	-445.960208	30.76	
C	 0.0235948261	 1.5122887745	 0.0487005554	-0.538945
C	 0.0254250451	 0.0042094926	 0.0146111772	 0.181261
C	-0.0401112146	-0.7044215348	-1.1851207979	-0.166335
C	-0.0389269328	-2.0955542213	-1.226268951	-0.271182
C	 0.0302913667	-2.7822327547	-0.0228672991	 0.319029
F	 0.0330554149	-4.1202042246	-0.0326220603	-0.083313
C	 0.0970388131	-2.1275596618	 1.1956209261	-0.354002
C	 0.0943221744	-0.7339547771	 1.2083491622	 0.332968
O	 0.1614443036	-0.1329683402	 2.4296543243	-0.437786
H	 0.9358713349	 1.9190104923	 0.5064910299	 0.131525
H	-0.0363670969	 1.9226747537	-0.9618424495	 0.136608
H	-0.8314651821	 1.9144859029	 0.6093782991	 0.131444
H	-0.093805307	-0.1482501641	-2.1161505319	 0.097413
H	-0.0899452785	-2.6419993259	-2.1594744879	 0.106086
H	 0.1505282537	-2.681873882	 2.1239810891	 0.116407
H	 0.1531055195	 0.8224299805	 2.3157326742	 0.298824
140.7166	155.7326	233.9789	297.9763	312.1574	335.9849	357.0853	448.0334	469.3555	510.1465	572.0342	636.5299	717.4955	737.3045	766.0019	813.4515	872.9782	924.7843	971.6459	1011.8546	1058.5595	1125.2185	1161.1307	1195.0697	1257.7714	1300.8336	1328.4423	1358.6492	1410.5507	1473.6762	1487.7686	1510.9918	1541.0942	1634.3776	1666.6528	3003.332	3046.5145	3116.6841	3172.1811	3214.2804	3216.9283	3832.4559
CC1=CC=C(F)C=C1O	Cc1ccc(F)cc1O	
InChI=1S/C7H7FO/c1-5-2-3-6(8)4-7(5)9/h2-4,9H,1H3	InChI=1S/C7H7FO/c1-5-2-3-6(8)4-7(5)9/h2-4,9H,1H3
