16
gdb 49882	2.56724	1.4246	0.92669	1.7836	74.65	-0.2407	-0.043	0.1977	1191.6642	0.125177	-434.109906	-434.101741	-434.100797	-434.14348	29.84	
N	 0.9123704779	-0.1321137934	 0.3005169468	-0.466503
C	-0.234836222	 0.3447721149	 0.018690183	 0.077067
N	-1.3446154071	-0.4761379881	 0.0184513508	-0.083226
C	-1.2408268254	-1.8908529541	 0.335187821	-0.266884
C	-2.673705818	-2.4025384018	 0.2178003108	 0.388153
O	-3.024274993	-3.53572172	 0.4027747331	-0.292376
C	-3.5662367927	-1.2260941242	-0.1722418753	-0.459515
C	-2.6361744478	-0.0331683546	-0.2788004224	 0.385821
N	-2.8844301247	 1.1781946775	-0.5747968324	-0.537686
H	 1.6165933751	 0.6019484314	 0.2553162401	 0.231707
H	-0.4844861638	 1.3750200883	-0.2394808734	 0.146757
H	-0.5744300994	-2.4168500988	-0.3580500978	 0.160381
H	-0.8429159308	-2.0556810123	 1.3430937141	 0.160353
H	-4.0755570475	-1.4309556533	-1.1195668683	 0.165328
H	-4.3435953373	-1.0699136038	 0.5828236342	 0.165328
H	-3.8765558336	 1.3093678022	-0.7589072243	 0.225293
53.7608	97.1764	151.5822	206.9588	286.8999	358.3401	451.56	461.8557	547.4524	558.3055	625.9592	648.5783	803.1995	816.4198	822.3276	837.6967	841.5526	1014.1495	1022.1655	1082.7834	1144.0627	1151.1864	1166.0237	1197.66	1205.175	1247.0432	1298.9209	1372.5964	1390.9618	1421.5147	1436.7099	1491.6191	1704.3348	1736.0045	1867.8458	3043.3147	3059.6618	3073.9945	3099.2341	3130.3601	3507.0796	3512.269
N=CN1CC(=O)CC1=N	[NH][CH]N1CC(=O)C[C]1[NH]	
InChI=1S/C5H7N3O/c6-3-8-2-4(9)1-5(8)7/h3,6-7H,1-2H2	InChI=1S/C5H7N3O/c6-3-8-2-4(9)1-5(8)7/h3,6-7H,1-2H2
