22
gdb 109789	2.758	1.08872	0.92708	2.7053	83.77	-0.2256	0.0775	0.3031	1383.4074	0.193362	-404.296896	-404.287216	-404.286272	-404.331954	36.153	
C	-0.01795437	 1.481828269	-0.2952563455	-0.372946
C	-0.0904517343	 0.073233077	 0.3058285515	-0.191643
C	-1.4660833466	-0.5408048645	 0.1437866811	-0.076464
C	-1.8707513144	-1.2169601319	-1.1502634057	 0.100757
O	-0.934253637	-1.3808402573	-2.1705566042	-0.432642
C	-1.6990812747	-2.0448544746	 0.1031183583	-0.055669
N	-0.5515709149	-2.9139263764	 0.0730918242	-0.083283
C	-0.1360175926	-3.5386902432	 1.3265277384	-0.216567
C	-0.7942289861	-4.3425169734	 0.2601979847	-0.224632
H	 0.9725094569	 1.9243446196	-0.1483080483	 0.105167
H	-0.2210532038	 1.4475987714	-1.3696070106	 0.134079
H	-0.75347776	 2.1506332281	 0.1659784739	 0.106416
H	 0.6557436473	-0.5659380491	-0.1729657869	 0.104011
H	 0.1704519675	 0.1073166353	 1.3714410009	 0.088506
H	-2.2620634641	 0.0126453009	 0.6388984453	 0.07885
H	-2.8704388915	-1.0502028533	-1.5407801241	 0.093244
H	-0.304706232	-2.0402981747	-1.8417837098	 0.289684
H	-2.5845619078	-2.4328084991	 0.6113677839	 0.073181
H	 0.9357846692	-3.6089226625	 1.4876654384	 0.121916
H	-0.7199818942	-3.3137691885	 2.216088539	 0.117944
H	-1.8208695307	-4.6599015675	 0.4313045511	 0.118105
H	-0.2098061262	-5.0088106555	-0.3673767756	 0.121986
56.0694	78.1897	115.8139	156.2169	208.7444	263.5519	279.147	322.0675	343.2674	468.5504	568.0858	576.3954	640.4277	749.395	758.759	799.3465	813.2319	853.4452	896.9004	928.533	992.5596	1003.5969	1032.9593	1052.4356	1079.2002	1105.2817	1114.6763	1121.8153	1123.303	1137.5969	1166.765	1177.1761	1208.4693	1236.0224	1291.8926	1315.5856	1325.774	1354.7013	1383.3454	1401.7301	1410.4365	1463.742	1488.1874	1492.7043	1499.1041	1508.8995	1519.4378	3024.866	3031.7782	3065.1563	3085.1394	3102.123	3102.497	3107.3971	3114.7973	3122.8939	3149.4039	3184.9868	3199.6672	3701.9188
CCC1C(O)C1N1CC1	CC[C@H]1[C@@H](O)[C@H]1N1CC1	
InChI=1S/C7H13NO/c1-2-5-6(7(5)9)8-3-4-8/h5-7,9H,2-4H2,1H3	InChI=1S/C7H13NO/c1-2-5-6(7(5)9)8-3-4-8/h5-7,9H,2-4H2,1H3/t5-,6+,7-/m1/s1
