23
gdb 121736	6.0932	0.5249	0.49206	1.7547	84.35	-0.2642	0.0216	0.2859	2324.8653	0.20302	-425.481011	-425.469598	-425.468654	-425.519682	39.05	
C	-0.0984386655	 1.4790738309	 0.169863121	-0.380982
C	-0.000158208	-0.0412981714	 0.01925653	-0.169202
C	 0.7299595826	-0.4670288671	-1.2583093674	-0.149891
C	 0.8272208621	-1.985008426	-1.4072458712	-0.332546
C	 1.5483941985	-2.4153836839	-2.6687013151	 0.445267
O	 2.014880748	-1.6755108676	-3.4991294097	-0.35719
O	 1.6063953408	-3.7608537161	-2.7515166837	-0.247725
C	 2.2722955082	-4.2905507084	-3.9143922746	-0.04107
C	 2.2301435527	-5.8035249683	-3.819247685	-0.390846
H	 0.8959058707	 1.9379412014	 0.2016302176	 0.115907
H	-0.6397807113	 1.9251846343	-0.671697073	 0.115905
H	-0.6234979215	 1.7567822215	 1.0890862447	 0.110734
H	 0.5153827744	-0.4638164777	 0.8922904659	 0.093328
H	-1.0086582701	-0.4764763297	 0.0255352081	 0.093327
H	 0.2210510162	-0.0514651026	-2.1358205338	 0.109195
H	 1.7390276017	-0.0389157066	-1.2725084203	 0.109207
H	 1.348209237	-2.436001593	-0.5531777662	 0.127803
H	-0.167430265	-2.4485323017	-1.4153771418	 0.1278
H	 1.7662128607	-3.9217124381	-4.8123208098	 0.120482
H	 3.2982696648	-3.9095848143	-3.9405370884	 0.120473
H	 2.7280020867	-6.2446750093	-4.687891261	 0.122409
H	 2.7389559977	-6.1528034544	-2.9162914353	 0.128808
H	 1.1982274186	-6.1650256717	-3.793143941	 0.128807
26.9459	54.5739	70.1651	86.228	122.2986	150.695	193.8033	242.2874	260.5548	290.4527	322.0041	383.8283	490.2989	583.9829	712.1757	734.1585	803.4052	809.1675	875.5171	913.6393	938.1806	946.1095	1028.0685	1057.7296	1075.6522	1126.0796	1128.8929	1138.7384	1183.3066	1200.5381	1235.2028	1290.2914	1298.1717	1311.6983	1328.8226	1371.3829	1396.7811	1406.5168	1414.2124	1425.177	1458.1723	1485.2994	1486.3043	1496.0993	1496.2914	1498.845	1512.3015	1520.5745	1815.1231	3010.7202	3029.3916	3031.3345	3036.8504	3042.2738	3045.705	3049.6954	3057.5535	3082.9724	3086.6318	3098.1954	3102.5597	3119.8891	3124.8301
CCCCC(=O)OCC	CCCCC(=O)OCC	
InChI=1S/C7H14O2/c1-3-5-6-7(8)9-4-2/h3-6H2,1-2H3	InChI=1S/C7H14O2/c1-3-5-6-7(8)9-4-2/h3-6H2,1-2H3
