18
gdb 112298	2.85294	1.37334	1.02997	3.3167	73.8	-0.2632	0.0037	0.2669	1181.4531	0.147929	-439.086889	-439.078722	-439.077778	-439.119897	30.758	
C	 0.0971957772	 1.4896476953	 0.1193129129	-0.387381
C	 0.1149553125	-0.0381439675	 0.0305628341	-0.187997
C	 0.5773141313	-0.5561276453	-1.326500895	 0.089796
O	 1.9187633282	-0.0752875962	-1.6020352621	-0.263867
C	 2.726161538	-1.0654286583	-2.0896056457	 0.433981
N	 3.8624293544	-0.9005237594	-2.612800637	-0.545533
C	 2.0345262575	-2.3755272325	-1.9158346704	-0.059678
O	 1.6605417238	-2.601678682	-0.5415824364	-0.243609
C	 0.6856552859	-2.0671819795	-1.433030443	 0.006159
H	 1.0945898171	 1.8997059354	-0.0578762163	 0.138565
H	-0.582172922	 1.9237459696	-0.6227820004	 0.113649
H	-0.2357747891	 1.8168422604	 1.1083280851	 0.117834
H	 0.7740702558	-0.4637135156	 0.7938719668	 0.126911
H	-0.8901835054	-0.4389093296	 0.2144329132	 0.100919
H	-0.077356161	-0.180246741	-2.1256185206	 0.092213
H	 4.1016454026	 0.0922336725	-2.6505720222	 0.226258
H	 2.3264016196	-3.2419960601	-2.4960145044	 0.127865
H	-0.1885325864	-2.6799999662	-1.6314828086	 0.113915
96.9125	117.5305	150.614	214.8328	250.6528	329.8651	393.8315	471.7972	498.356	630.4937	701.8408	747.192	811.8617	837.3358	872.1539	880.8083	907.0775	922.9026	955.9088	984.1288	1033.1691	1059.1447	1085.0163	1112.8137	1127.1223	1159.2813	1240.1675	1274.6646	1288.7099	1319.2151	1326.3528	1381.9891	1401.3048	1411.5324	1420.7629	1480.2878	1498.5649	1508.8149	1782.9964	3010.9786	3031.5733	3038.8798	3085.0364	3108.0957	3126.8849	3165.0767	3207.738	3470.9066
CCC1OC(=N)C2OC12	CC[C@H]1O[C]([NH])[C@H]2O[C@@H]12	
InChI=1S/C6H9NO2/c1-2-3-4-5(9-4)6(7)8-3/h3-5,7H,2H2,1H3	InChI=1S/C6H9NO2/c1-2-3-4-5(9-4)6(7)8-3/h3-5,7H,2H2,1H3/t3-,4+,5+/m1/s1
