21
gdb 70089	2.13789	1.84911	1.44061	1.0985	83.13	-0.2293	0.0137	0.243	1042.9447	0.181428	-387.092862	-387.083833	-387.082889	-387.125552	36.019	
C	-0.08267571	 1.4810050134	-0.0122152373	-0.477642
C	 0.0511838578	-0.0243983925	 0.0116670114	 0.329768
C	-0.7619448487	-0.8121060346	 1.0084495764	-0.330659
C	 0.7527268747	-0.7592215188	 1.141103235	-0.12734
C	 1.451016354	-1.9073810848	 0.5006979221	-0.082327
C	 1.2325387606	-1.943053514	-0.8149996469	-0.144009
C	 0.4297283975	-0.7462723356	-1.3009277621	 0.282843
C	-0.7712401887	-1.1209162623	-2.1770687862	-0.430091
O	 1.272891598	 0.1633053192	-2.0300876796	-0.472183
H	 0.8251627963	 1.9506513838	-0.3960207612	 0.138603
H	-0.9170578295	 1.7967346606	-0.6495187853	 0.113145
H	-0.2748787782	 1.8640321422	 0.9949343853	 0.104051
H	-1.3525858646	-0.2313102933	 1.710744651	 0.105926
H	-1.2017863698	-1.7634604709	 0.7289843775	 0.108634
H	 1.1943776378	-0.2408885159	 1.9852771512	 0.084861
H	 2.0170775273	-2.6410051377	 1.0645570442	 0.09729
H	 1.5718777368	-2.7173135756	-1.4960389812	 0.084567
H	-1.4662394897	-1.7830551853	-1.6544092171	 0.119153
H	-1.3072900961	-0.2179112388	-2.4842392618	 0.123425
H	-0.436683307	-1.6394405337	-3.0839991723	 0.099495
H	 1.5941351715	-0.3007611754	-2.8102120931	 0.27249
128.9054	194.2438	209.3334	236.8205	242.1144	275.9775	302.3677	364.6521	398.6894	429.6685	464.6118	575.6825	604.3001	644.6579	755.822	779.8131	815.3455	850.9497	898.9344	930.1302	939.8141	956.3508	972.8497	1020.2038	1054.0643	1065.8952	1076.521	1096.7094	1110.1129	1133.2194	1146.7171	1197.8274	1245.5578	1269.9105	1359.3023	1372.72	1397.1684	1403.7012	1415.6813	1481.7702	1485.5302	1490.8851	1495.0102	1504.2113	1667.3839	3027.6587	3032.019	3090.6624	3093.9497	3119.4509	3122.7819	3129.0717	3166.1146	3173.0306	3199.3607	3208.6644	3812.6863
CC12CC1C=CC2(C)O	C[C@]12C[C@H]1C=C[C@]2(C)O	
InChI=1S/C8H12O/c1-7-5-6(7)3-4-8(7,2)9/h3-4,6,9H,5H2,1-2H3	InChI=1S/C8H12O/c1-7-5-6(7)3-4-8(7,2)9/h3-4,6,9H,5H2,1-2H3/t6-,7+,8+/m1/s1
