18
gdb 46738	2.7371	1.7534	1.39497	3.8448	74.14	-0.2194	-0.0109	0.2084	968.6521	0.14983	-401.928152	-401.921063	-401.920118	-401.959774	28.438	
O	 0.0077273992	 0.0297300434	 0.2459868362	-0.328111
C	-0.0409671776	 1.2158347568	 0.0395933504	 0.420814
C	-1.3141858282	 2.0324274351	-0.2050584704	-0.311398
C	-0.8806850505	 3.359331332	-0.868176084	-0.236157
C	 0.6255491174	 3.5295465839	-0.561387467	-0.030147
C	 1.0624498363	 4.1684280551	 0.7741054199	-0.057879
N	 0.3456655386	 3.4557851063	 1.8591980025	-0.338337
C	 1.5751973457	 2.8656335992	 1.273927526	-0.050995
C	 1.1604056812	 2.1572885992	-0.0376253619	-0.14645
H	-2.0335367385	 1.452126602	-0.7888487757	 0.113802
H	-1.7504657314	 2.2135704367	 0.7827638171	 0.151341
H	-1.0239583835	 3.3001584721	-1.9521571775	 0.102708
H	-1.4678176507	 4.2101666359	-0.5122883278	 0.107597
H	 1.1918362807	 3.9352579751	-1.4013123477	 0.078828
H	 1.4369224204	 5.1729024443	 0.9300577454	 0.094809
H	 0.6165183203	 3.8936380105	 2.7386746459	 0.23391
H	 2.4262206654	 2.6272115235	 1.8987192506	 0.101483
H	 1.9982608454	 1.7112963988	-0.574184572	 0.094182
90.337	148.0249	230.408	330.9767	432.1475	484.0521	565.8481	612.6298	660.207	721.1516	745.2538	777.7931	829.2536	832.5905	901.3042	921.442	926.4054	963.3025	967.9099	1022.7348	1049.0991	1066.2835	1091.6066	1103.6367	1150.8109	1163.7626	1179.3214	1204.5286	1226.6886	1256.7618	1287.6147	1298.0812	1311.1355	1329.9736	1354.558	1380.4486	1437.8179	1489.8131	1837.5155	3046.607	3059.1875	3089.5539	3096.1999	3111.3737	3115.4887	3183.1932	3201.4532	3481.5466
O=C1CCC2C3NC3C12	O=C1CC[C@H]2[C@H]3N[C@H]3[C@@H]12	
InChI=1S/C7H9NO/c9-4-2-1-3-5(4)7-6(3)8-7/h3,5-8H,1-2H2	InChI=1S/C7H9NO/c9-4-2-1-3-5(4)7-6(3)8-7/h3,5-8H,1-2H2/t3-,5-,6-,7+/m1/s1
