17
gdb 97891	6.2251	0.51084	0.49047	2.4684	75.32	-0.2409	-0.0137	0.2271	2169.2333	0.131311	-458.922747	-458.911769	-458.910825	-458.96192	36.088	
O	-0.1071104128	 1.3271439917	 0.7673400689	-0.410914
C	-0.032457965	 0.1683860348	-0.0558833326	-0.218054
C	-1.3524560633	-0.4369380705	-0.1719046528	 0.158512
C	-2.4295981954	-0.9596308164	-0.2804181053	 0.056002
C	-3.7323562072	-1.5904885912	-0.3932821611	-0.492632
C	-3.735359284	-3.1013577406	-0.0885216816	 0.386401
O	-2.7478011449	-3.782254446	-0.1103455341	-0.25825
C	-5.1218215644	-3.6549791417	 0.2288727995	-0.17331
O	-5.0738177142	-5.0543992165	 0.2757008614	-0.393584
H	 0.7840426881	 1.6841436501	 0.838315552	 0.289547
H	 0.3392073839	 0.4189464328	-1.0629891473	 0.115801
H	 0.6633912312	-0.5759280666	 0.3638409686	 0.122883
H	-4.4624134117	-1.0902858898	 0.2573669158	 0.144876
H	-4.1312084109	-1.4790639328	-1.4130484433	 0.156754
H	-5.4309248863	-3.2050452282	 1.1897463445	 0.115243
H	-5.8264279402	-3.2733787192	-0.5313396693	 0.106135
H	-5.9447201531	-5.3759584699	 0.5261925767	 0.294591
14.3962	30.336	65.3757	100.8597	139.2937	210.9777	224.6017	237.0435	247.1809	335.4314	358.0976	416.7792	457.5438	547.4521	678.4098	783.9447	794.8321	873.9821	1011.6961	1027.8682	1041.9444	1052.2262	1147.7454	1161.9269	1206.2602	1235.5848	1245.5172	1257.4266	1269.1317	1337.2563	1438.9101	1444.3867	1460.7044	1493.4718	1503.5417	1850.4948	2384.2521	2943.8871	2964.1072	2965.3288	2983.8963	3002.1946	3038.1236	3818.2595	3836.0816
OCC#CCC(=O)CO	OCC#CCC(=O)CO	
InChI=1S/C6H8O3/c7-4-2-1-3-6(9)5-8/h7-8H,3-5H2	InChI=1S/C6H8O3/c7-4-2-1-3-6(9)5-8/h7-8H,3-5H2
