21
gdb 86430	1.69398	1.61048	0.87295	2.6676	81.49	-0.2388	0.0152	0.254	1348.2905	0.182299	-424.24538	-424.235992	-424.235048	-424.279106	36.163	
C	-0.0304227627	 1.5418868888	 0.052626624	-0.474636
C	-0.0283313361	 0.0399805124	-0.0307120756	 0.307287
C	-0.0748886729	-0.6147150694	-1.1947528593	-0.188647
C	-0.0497960615	-2.115633766	-1.3415368165	 0.088231
O	 0.7705846405	-2.5139551838	-2.4397142269	-0.436154
C	 0.3696528995	-2.8031443437	-0.036867769	-0.222019
C	-0.3475275279	-2.1827549214	 1.1555326884	 0.107216
O	 0.0099000843	-2.929740583	 2.3111868933	-0.43634
C	 0.0312289566	-0.7020262483	 1.2876418968	-0.320216
H	 0.8501064369	 1.9067135555	 0.5975705384	 0.123961
H	-0.034271266	 2.0032472895	-0.9381962005	 0.123376
H	-0.9070203711	 1.9060126035	 0.604053383	 0.123385
H	-0.1273897837	-0.0624961519	-2.1310347054	 0.084235
H	-1.0504978432	-2.4672182699	-1.6291131937	 0.095079
H	 1.6558764496	-2.1717194017	-2.2712824047	 0.272972
H	 0.1668115879	-3.8762532915	-0.0866185987	 0.109936
H	 1.4522597048	-2.6811734331	 0.1036356754	 0.091255
H	-1.435362803	-2.2512446604	 0.9830948093	 0.068048
H	-0.4528976781	-2.5507981912	 3.0655974803	 0.278957
H	 1.0458804622	-0.640760385	 1.7079583088	 0.115005
H	-0.624777136	-0.2068903197	 2.0184711927	 0.089068
108.7567	148.6314	161.274	206.1912	269.2614	292.3834	292.8423	333.8507	414.1439	428.544	443.3113	470.2467	487.4233	543.2901	618.2265	843.7312	878.2672	890.8744	919.6475	933.6644	1010.5415	1040.6142	1048.3837	1071.7191	1081.4348	1093.4415	1131.9079	1156.4856	1189.4911	1225.8608	1252.4985	1281.2672	1309.0166	1328.564	1358.8829	1367.3111	1388.165	1412.4272	1423.0675	1443.5203	1476.154	1479.4272	1488.6236	1497.9893	1731.7259	2951.2275	2995.6818	3007.7436	3014.6018	3023.426	3028.3261	3059.8438	3097.8326	3113.2167	3148.4862	3794.5594	3811.7715
CC1=CC(O)CC(O)C1	CC1=C[C@@H](O)C[C@@H](O)C1	
InChI=1S/C7H12O2/c1-5-2-6(8)4-7(9)3-5/h2,6-9H,3-4H2,1H3	InChI=1S/C7H12O2/c1-5-2-6(8)4-7(9)3-5/h2,6-9H,3-4H2,1H3/t6-,7+/m1/s1
