19
gdb 61852	2.50495	1.1558	0.92004	3.7837	72.96	-0.255	0.0048	0.2598	1313.0316	0.157517	-460.167734	-460.158284	-460.157339	-460.203398	32.941	
C	-0.1057747153	 1.605569722	 0.1672072513	-0.395776
C	-0.0098011801	 0.0899080026	 0.0341499934	 0.080469
O	 0.599941047	-0.4565558972	 1.2225530091	-0.190326
C	 1.9181419776	-0.7185284027	 1.1957145515	 0.171641
O	 2.5146307851	-1.145710747	 2.1382449111	-0.276545
C	-1.3812984866	-0.5566818619	-0.1311370415	 0.150882
C	-1.5109166387	-2.0719554706	 0.1390295269	-0.302469
C	-2.3807167614	-1.6344757618	 1.3343685704	-0.055197
O	-2.266471798	-0.2409244609	 0.9615888194	-0.290197
H	 0.8849574312	 2.047309472	 0.304688876	 0.122197
H	-0.554813833	 2.0393007419	-0.7316296189	 0.12288
H	-0.7304233606	 1.8565572357	 1.0271932893	 0.1594
H	 0.6040035843	-0.1852057678	-0.8363532604	 0.085362
H	 2.3798646257	-0.5041266513	 0.2110574619	 0.075405
H	-1.7969682235	-0.2159166974	-1.0899908059	 0.079717
H	-2.0386039025	-2.6248564347	-0.6388126103	 0.113144
H	-0.5847162261	-2.5868342608	 0.3929723219	 0.123368
H	-3.4231693088	-1.9712314324	 1.3213554794	 0.105227
H	-1.9476734762	-1.8232232278	 2.3223356555	 0.120818
44.0888	64.7162	98.27	142.635	203.8057	221.8491	237.6864	322.3018	360.9251	477.3768	574.5252	674.7302	768.1527	798.2382	869.2773	919.5915	940.5249	979.2722	1017.2015	1022.4332	1045.6166	1051.0496	1103.9266	1133.1327	1161.1325	1169.3411	1200.752	1220.8397	1263.8926	1276.5715	1333.383	1359.9431	1378.9455	1386.9271	1408.4848	1442.9154	1484.6547	1486.8812	1498.4664	1526.4734	1863.9052	2937.8526	2998.0793	3009.8423	3032.7407	3047.6997	3078.6345	3092.1511	3117.629	3142.2739	3150.4013
CC(OC=O)C1CCO1	C[C@@H](OC=O)[C@H]1CCO1	
InChI=1S/C6H10O3/c1-5(9-4-7)6-2-3-8-6/h4-6H,2-3H2,1H3	InChI=1S/C6H10O3/c1-5(9-4-7)6-2-3-8-6/h4-6H,2-3H2,1H3/t5-,6-/m1/s1
