20
gdb 85542	2.42795	1.60493	1.05438	2.8569	79.77	-0.2166	-0.01	0.2065	1159.6852	0.171547	-403.151298	-403.143012	-403.142068	-403.184067	32.308	
C	 0.2998464803	 1.2297362742	-0.2947783911	-0.32304
N	 0.0054646368	-0.1405628339	 0.0793609417	-0.069434
C	-1.3831627698	-0.5309001204	-0.1109793751	-0.250053
C	-1.5820236086	-2.0351841123	 0.1148083761	 0.379334
O	-2.6562324797	-2.5587596154	-0.0524228415	-0.306785
C	-0.3333345351	-2.7834416239	 0.5716899359	-0.326825
C	 0.366603976	-1.982787697	 1.6635335793	-0.052803
C	 1.7279774318	-1.3607582834	 1.4561826294	-0.308298
C	 0.4873998133	-0.5061862263	 1.3825964763	 0.030297
H	 1.3760053114	 1.4080863414	-0.2090904662	 0.125091
H	 0.0049412844	 1.4046344893	-1.3345849892	 0.119229
H	-0.2202517833	 1.9754009249	 0.3354478512	 0.096149
H	-2.0943999872	 0.0057392464	 0.5468693124	 0.106328
H	-1.6891747093	-0.3092961529	-1.1401645049	 0.129506
H	-0.6237232196	-3.7828663701	 0.9013233879	 0.121383
H	 0.3206970769	-2.89287959	-0.3014763773	 0.129561
H	 0.1074724484	-2.2650780175	 2.6783140553	 0.099259
H	 2.3733881392	-1.2579784186	 2.3216422119	 0.1123
H	 2.238098405	-1.5613938842	 0.520333476	 0.117839
H	 0.2929154693	 0.1963406897	 2.1989451218	 0.070962
83.6291	142.6847	215.1725	236.7268	307.6535	314.6779	387.5296	451.6948	475.8416	503.4043	537.0911	635.8429	762.8039	781.7514	829.2794	857.9758	901.5562	953.032	988.6378	1015.6275	1052.2536	1069.1761	1085.6183	1115.8609	1133.3787	1158.7373	1167.1159	1190.3484	1220.8678	1249.0444	1261.7489	1286.4166	1308.4856	1347.254	1375.7803	1408.0823	1452.4266	1452.7385	1469.9822	1482.7921	1496.3961	1508.3035	1825.8864	2918.1585	2933.8696	3041.7932	3043.308	3057.5059	3060.1337	3106.3488	3116.1294	3133.006	3164.5655	3224.4992
CN1CC(=O)CC2CC12	CN1CC(=O)C[C@H]2C[C@@H]12	
InChI=1S/C7H11NO/c1-8-4-6(9)2-5-3-7(5)8/h5,7H,2-4H2,1H3	InChI=1S/C7H11NO/c1-8-4-6(9)2-5-3-7(5)8/h5,7H,2-4H2,1H3/t5-,7+/m0/s1
