21
gdb 111334	2.37941	1.54888	1.13251	1.1849	83.53	-0.2397	0.0861	0.3258	1171.7444	0.182111	-387.034345	-387.025648	-387.024704	-387.067683	33.523	
C	 0.2531695035	 1.3233133973	 0.177672138	-0.236172
O	-0.2364831761	 0.0535206864	-0.1892843829	-0.240436
C	 0.5239864412	-0.5614619827	-1.1992043464	 0.040311
C	 1.917661514	-1.1145528782	-0.8462683902	-0.077965
C	 1.8097234343	-2.2060958455	 0.1848935961	-0.285691
C	 1.453665669	-2.5246504817	-1.2398034934	-0.145404
C	 0.0692266579	-1.9889253451	-1.5442116778	 0.361675
C	-1.2631723951	-2.6029557442	-1.2379948723	-0.31375
C	-0.8402846164	-2.3670168979	-2.6720630096	-0.353289
H	 1.27247537	 1.2663905928	 0.5874532225	 0.110422
H	 0.2642924225	 2.0174687359	-0.6781265521	 0.100539
H	-0.4138539735	 1.7218093392	 0.9459514005	 0.125003
H	 0.5670902887	 0.0875326763	-2.0885482881	 0.063219
H	 2.8593192781	-0.6319480374	-1.0763975382	 0.08272
H	 2.7586717692	-2.6005703685	 0.5340410817	 0.107388
H	 1.0305693352	-2.1603438784	 0.9402187707	 0.121505
H	 1.9875353175	-3.2609286106	-1.8282287155	 0.086986
H	-1.2837527062	-3.6241208477	-0.8710246832	 0.108466
H	-2.0200847798	-1.9520486041	-0.8145930092	 0.124187
H	-1.3250352145	-1.5699845863	-3.227709392	 0.111067
H	-0.5734916095	-3.2303547295	-3.2737041187	 0.109219
84.1568	122.5303	163.8052	198.0737	248.3665	260.0631	299.1201	449.2017	477.3693	553.4506	609.6584	754.202	774.0513	802.423	818.7372	899.509	914.4634	935.473	951.4672	978.7451	1000.4259	1012.3675	1050.6967	1052.458	1062.4374	1073.1749	1082.1923	1090.3007	1147.477	1182.63	1186.6913	1191.924	1221.7007	1235.038	1259.7118	1289.496	1336.6918	1371.3299	1412.2321	1463.264	1478.5447	1484.9291	1488.6086	1506.0215	1509.3999	2968.3254	2976.1437	3023.166	3113.3132	3119.4597	3120.657	3131.0137	3180.6144	3189.0507	3200.0884	3209.4879	3221.6141
COC1C2CC2C11CC1	CO[C@H]1[C@H]2C[C@H]2C21CC2	
InChI=1S/C8H12O/c1-9-7-5-4-6(5)8(7)2-3-8/h5-7H,2-4H2,1H3	InChI=1S/C8H12O/c1-9-7-5-4-6(5)8(7)2-3-8/h5-7H,2-4H2,1H3/t5-,6+,7-/m0/s1
