25
gdb 100938	1.76305	1.0113	0.78928	2.0313	84.96	-0.2592	0.0688	0.328	1618.8193	0.226315	-426.6202	-426.608163	-426.607219	-426.658032	42.87	
C	 0.6527951472	 1.6548390507	 0.2042660134	-0.389801
C	 0.186681921	 0.1937291413	 0.17910854	-0.188295
C	 0.7108103011	-0.6560770741	 1.3575571706	 0.01528
C	-0.0412456016	-0.2981026598	 2.6532754823	-0.084678
O	 0.5308934883	-0.8627603356	 3.8230325952	-0.426189
C	 0.6868376431	-2.1824878545	 1.0872716916	 0.017949
C	-0.6771409549	-2.7283996846	 0.6381882407	-0.402219
C	 1.7870335755	-2.597255335	 0.1056769556	-0.090885
O	 1.859708808	-4.017583519	 0.1008022744	-0.42436
H	 1.7462621928	 1.7188498825	 0.1819395251	 0.11619
H	 0.2699436702	 2.2014486629	-0.6633424973	 0.111827
H	 0.3108917214	 2.1843501144	 1.0987854434	 0.121659
H	-0.910625299	 0.1619828767	 0.1634863013	 0.097867
H	 0.5085080313	-0.2548003406	-0.7674071235	 0.096369
H	 1.7608256051	-0.3815104367	 1.5345326237	 0.072129
H	-0.0041030457	 0.7840107268	 2.8090902604	 0.106967
H	-1.1046016641	-0.5691210045	 2.5588496452	 0.088655
H	 0.3407222041	-1.8051202845	 3.8265597129	 0.286214
H	 0.9586932594	-2.6803110239	 2.0290447751	 0.066719
H	-0.9922252338	-2.2822855445	-0.3111710989	 0.112205
H	-0.6129824345	-3.8088381254	 0.4936232649	 0.134959
H	-1.4627897013	-2.529737107	 1.3739218395	 0.1055
H	 1.5658074381	-2.2162522796	-0.9040552511	 0.08422
H	 2.7457288088	-2.1568789527	 0.4225995771	 0.085414
H	 2.4929156098	-4.2845561633	-0.5713442317	 0.286303
46.7772	66.1078	96.7395	111.2514	183.3753	205.1452	219.6205	227.3193	246.2229	258.6797	280.9437	301.8538	330.7367	433.1508	439.3749	507.5171	595.5166	763.8501	789.7306	894.7781	916.1179	926.4141	971.6256	984.0241	1034.9884	1052.9514	1067.0046	1077.5904	1105.1706	1142.9466	1165.1006	1186.0419	1207.3019	1255.4702	1271.8473	1278.3982	1318.7424	1333.5215	1362.7871	1371.4396	1389.0861	1399.8287	1411.9017	1413.6334	1426.1445	1457.8914	1487.5581	1493.4774	1499.4234	1503.192	1506.3554	1513.1495	1520.2515	2963.6239	2979.973	2988.7152	2999.9865	3011.0772	3023.56	3034.5394	3041.3149	3057.713	3083.5286	3099.83	3101.3884	3108.177	3129.7153	3832.6363	3834.777
CCC(CO)C(C)CO	CC[C@@H](CO)[C@@H](C)CO	
InChI=1S/C7H16O2/c1-3-7(5-9)6(2)4-8/h6-9H,3-5H2,1-2H3	InChI=1S/C7H16O2/c1-3-7(5-9)6(2)4-8/h6-9H,3-5H2,1-2H3/t6-,7-/m0/s1
