25
gdb 122667	4.87655	0.60671	0.56181	1.7783	89.63	-0.2373	0.0823	0.3196	2062.7185	0.229393	-389.507712	-389.497287	-389.496343	-389.544731	37.282	
C	 0.0516953908	 1.6054438772	-0.0697591174	-0.380754
C	 0.026169415	 0.0747110293	-0.0808503924	-0.162991
C	-1.3852331863	-0.506780227	 0.055714901	-0.165717
C	-1.4131062948	-2.040466913	 0.0438745393	-0.210539
C	-2.8172737252	-2.6412432057	 0.1298300074	 0.00873
C	-2.8678946988	-4.1786830895	 0.094139553	-0.248515
C	-4.2411334826	-4.4741313815	 0.7043933621	-0.067222
O	-4.5229699123	-3.403601724	 1.6071140941	-0.265282
C	-3.5651039902	-2.3619558812	 1.4438932954	-0.061775
H	 1.0716630302	 1.989575343	-0.1699008267	 0.111292
H	-0.5414719096	 2.0173430302	-0.8939125676	 0.113386
H	-0.36285268	 2.0017200015	 0.8639421822	 0.114019
H	 0.4793775479	-0.2935486057	-1.0109374294	 0.093946
H	 0.6552261737	-0.3086478794	 0.7335471931	 0.094684
H	-1.8383933652	-0.1349252087	 0.9846960426	 0.09857
H	-2.0147816565	-0.1258832519	-0.7608633417	 0.092013
H	-0.9260362529	-2.4000033367	-0.8725111689	 0.093023
H	-0.8095276029	-2.4235584927	 0.8791699576	 0.092848
H	-3.4228368667	-2.2541692193	-0.7015118678	 0.074077
H	-2.7516913598	-4.5925862825	-0.9109491325	 0.100111
H	-2.069655745	-4.5914846618	 0.7227922238	 0.101766
H	-5.0205097453	-4.5112463497	-0.071585337	 0.090882
H	-4.2720323346	-5.4216579148	 1.2546458841	 0.099309
H	-2.8606061821	-2.3626137986	 2.2927653639	 0.083155
H	-4.0915623267	-1.4013536476	 1.4472177019	 0.100986
46.3873	60.1364	78.8637	94.6969	136.1373	186.58	244.703	263.8556	296.4848	410.8357	463.5089	599.0932	676.8276	735.0559	787.9668	848.0605	879.5244	902.6056	923.2792	925.8535	966.0487	978.2553	1016.1453	1032.9129	1065.6884	1080.7593	1089.8425	1130.6507	1149.5354	1183.9617	1190.249	1232.0443	1236.0207	1269.4745	1274.3914	1308.3736	1312.6868	1332.2303	1345.3634	1351.5485	1377.1306	1384.5119	1400.3965	1413.1875	1415.114	1480.7855	1485.7429	1491.3502	1499.3099	1499.9021	1512.2089	1522.8034	1535.377	2958.7353	2987.518	3000.0532	3003.3241	3008.3653	3016.3683	3025.0367	3028.6614	3033.7462	3040.0265	3052.8868	3057.9499	3060.14	3094.8219	3099.2644	3100.6969
CCCCC1CCOC1	CCCC[C@H]1CCOC1	
InChI=1S/C8H16O/c1-2-3-4-8-5-6-9-7-8/h8H,2-7H2,1H3	InChI=1S/C8H16O/c1-2-3-4-8-5-6-9-7-8/h8H,2-7H2,1H3/t8-/m0/s1
