18
gdb 120186	2.82149	1.23666	1.11699	3.1493	74.02	-0.2426	0.0085	0.2511	1164.0377	0.146755	-439.014823	-439.006324	-439.00538	-439.048422	31.661	
O	-0.0321272451	 1.430376307	 0.1185614551	-0.413576
C	 0.0776493318	 0.0324419563	-0.11476646	-0.072464
C	-1.3146463574	-0.5722941621	-0.02566379	-0.157575
N	-2.1290192513	-0.1518258987	-1.1733739956	-0.097693
C	-2.8343008793	 1.2019515345	-1.114679654	-0.129095
C	-3.7783851741	 0.6272882684	-2.20382782	-0.22602
C	-3.601712346	-0.5334885877	-1.1891336042	-0.143338
C	-3.7701428128	 0.5333379916	-0.0712355357	 0.419693
O	-4.1829801043	 0.6653996134	 1.0373993053	-0.320418
H	 0.8297089244	 1.8308638181	-0.0262324719	 0.290271
H	 0.4963945199	-0.175385625	-1.1102639414	 0.097522
H	 0.723480309	-0.4467265034	 0.6374245195	 0.089389
H	-1.2248631548	-1.6636265076	-0.0762537214	 0.106405
H	-1.7539642558	-0.3168445106	 0.9513066689	 0.122317
H	-2.2757044344	 2.1323209289	-1.0925129662	 0.113783
H	-4.7709518271	 1.0685055825	-2.3024977756	 0.111133
H	-3.2795868429	 0.4469616728	-3.1569210188	 0.113885
H	-3.9291635596	-1.5696113284	-1.2615938942	 0.09578
59.6238	119.4241	141.8915	207.1204	252.9078	294.5494	358.6829	434.3812	488.7898	529.9919	642.8986	726.4545	784.7924	809.3668	853.6465	898.2091	913.3191	941.9901	970.5013	1017.3518	1025.9372	1086.4619	1096.5783	1120.1011	1127.224	1155.6314	1175.04	1208.9002	1215.2867	1241.3416	1242.1608	1268.3905	1322.327	1397.4475	1459.5687	1478.2626	1484.6303	1511.1014	1903.3708	2978.3996	2987.399	3021.493	3065.9069	3081.3758	3136.5349	3161.7554	3183.0267	3836.3056
OCCN1C2CC1C2=O	OCCN1[C@H]2C[C@@H]1C2=O	
InChI=1S/C6H9NO2/c8-2-1-7-4-3-5(7)6(4)9/h4-5,8H,1-3H2	InChI=1S/C6H9NO2/c8-2-1-7-4-3-5(7)6(4)9/h4-5,8H,1-3H2/t4-,5+
