17
gdb 60932	2.75053	1.14665	0.93809	3.8282	65.29	-0.2448	-0.0294	0.2154	1241.5953	0.133216	-496.069766	-496.06044	-496.059496	-496.104282	34.043	
O	 0.9480008589	-0.0973039313	-1.0807940346	-0.438734
C	 0.0357558483	-0.0265914061	-0.0173862396	 0.035079
C	-1.2344275994	-0.7873741509	-0.3586536755	 0.132891
O	-1.3570462554	-1.3685617736	-1.4110379514	-0.270419
C	 0.6338487648	-0.5981388291	 1.2625309948	-0.120163
C	 1.2468322824	 0.3034147509	 2.3077701347	 0.008189
O	 1.1210555967	 1.6839605746	 2.0736595639	-0.417098
C	-0.0474053952	-0.4113681907	 2.609970032	 0.069884
O	-1.2042728117	 0.3687876937	 2.6900896091	-0.428648
H	 0.508239333	-0.6397638306	-1.7555484464	 0.291823
H	-0.2572801214	 1.0187191482	 0.1629153326	 0.106642
H	-2.0261831454	-0.7762265351	 0.4129033831	 0.122117
H	 1.1435452821	-1.5435961254	 1.1020888593	 0.106822
H	 2.1790099201	-0.0025207612	 2.7758112068	 0.104176
H	 1.3643234171	 2.1455387495	 2.8833715627	 0.302415
H	-0.0640678161	-1.2431969294	 3.3075993203	 0.108154
H	-0.9168808688	 1.2856657764	 2.5697836981	 0.28687
59.3744	94.3101	140.2555	176.3053	257.7896	275.3473	300.0172	320.3162	381.5315	469.4657	498.6967	545.7084	590.1191	664.2249	765.4238	776.3057	798.0582	849.8319	952.6422	1004.5071	1054.0666	1057.9291	1116.9649	1133.0809	1148.5292	1153.5605	1227.1376	1240.7628	1266.9605	1302.1119	1326.9696	1372.9682	1390.4719	1408.6977	1440.0683	1466.2424	1808.8279	2976.2304	3001.6261	3133.0538	3151.1403	3161.9854	3679.2509	3723.8611	3812.4946
OC(C=O)C1C(O)C1O	O[C@@H](C=O)[C@H]1[C@@H](O)[C@H]1O	
InChI=1S/C5H8O4/c6-1-2(7)3-4(8)5(3)9/h1-5,7-9H	InChI=1S/C5H8O4/c6-1-2(7)3-4(8)5(3)9/h1-5,7-9H/t2-,3-,4+,5-/m0/s1
