22
gdb 12849	2.70825	2.21158	1.65166	0.1109	80.6	-0.2719	0.0795	0.3513	920.4599	0.202464	-313.083178	-313.075487	-313.074543	-313.114878	30.947	
C	-0.034730029	 1.4803033218	-0.0385180348	-0.473768
C	-0.0103011013	-0.042940412	-0.0209519766	 0.387304
C	-1.3188872207	-0.7529122605	 0.4374172243	-0.28585
C	-0.4843731629	-1.6579347456	 1.3850017655	-0.233229
C	 0.76169804	-0.7510307791	 1.1492279433	-0.011824
C	 2.0468628268	-1.3822865323	 0.5686053495	-0.229871
C	 2.124316813	-0.8476363251	-0.8806030944	-0.193741
C	 0.6535100694	-0.6388833531	-1.2848224217	-0.267294
H	 0.9582704302	 1.897916514	-0.2431557024	 0.110312
H	-0.7161933656	 1.8547741213	-0.8121188908	 0.110727
H	-0.3709710727	 1.8829848514	 0.9233903158	 0.106961
H	-1.9829635802	-0.0774936473	 0.985123319	 0.091831
H	-1.906352084	-1.2496575552	-0.3403628722	 0.089879
H	-0.8413993096	-1.7369731646	 2.4146591052	 0.094667
H	-0.341328414	-2.6718316354	 0.9992880234	 0.094764
H	 0.9634648492	-0.094583748	 2.0000389895	 0.056843
H	 2.9422074757	-1.1343251105	 1.146310674	 0.09206
H	 1.9667738059	-2.4757095259	 0.565987642	 0.093723
H	 2.6526267279	 0.113461297	-0.8956053508	 0.096869
H	 2.6644652471	-1.51726328	-1.5567591319	 0.089988
H	 0.2012020477	-1.6076848405	-1.5306903651	 0.090442
H	 0.5361775068	 0.0020395294	-2.1647497608	 0.089205
74.7854	190.8345	225.8036	262.2956	344.4372	355.3588	406.2161	543.8328	577.6539	636.5375	728.5764	783.7615	828.5899	843.4584	889.2258	900.8206	924.3803	948.5062	952.7083	974.0593	1001.8846	1023.1904	1049.7264	1071.6671	1148.2641	1155.0391	1183.4602	1212.4597	1224.7086	1235.7284	1254.1372	1263.6766	1272.4798	1315.4525	1318.2737	1329.242	1338.971	1355.6416	1409.0057	1478.9976	1485.9227	1488.4801	1493.9719	1496.6683	1499.6885	1509.6472	3014.8121	3025.0719	3030.8636	3033.0773	3043.9561	3052.5529	3057.8048	3074.1345	3078.8535	3079.2265	3085.8036	3087.8712	3090.395	3108.7114
CC12CCC1CCC2	C[C@]12CC[C@H]1CCC2	
InChI=1S/C8H14/c1-8-5-2-3-7(8)4-6-8/h7H,2-6H2,1H3	InChI=1S/C8H14/c1-8-5-2-3-7(8)4-6-8/h7H,2-6H2,1H3/t7-,8+/m1/s1
