14
gdb 46460	3.87189	1.20026	1.0944	2.3004	66.91	-0.2857	-0.0242	0.2615	1074.215	0.102376	-436.728389	-436.72117	-436.720226	-436.760308	26.917	
O	-0.0051468266	 0.0239576452	 0.2451390161	-0.327693
C	 0.0240110581	 1.1957033004	 0.0228091704	 0.468997
O	-1.1116193859	 1.939945705	-0.1631896093	-0.230062
C	-0.8271205049	 3.2434184596	-0.6798299006	-0.145568
C	 0.6821047015	 3.4479925251	-0.5190328646	 0.160389
C	 1.2131877258	 3.2608785251	 0.8807729701	-0.316893
C	 1.2204306382	 2.0949079199	-0.0778623826	-0.239282
C	 1.3659707102	 4.290755453	-1.4540324128	 0.211
N	 1.9037330061	 4.9801981156	-2.2110143833	-0.327302
H	-1.116129929	 3.2820149681	-1.7346280035	 0.145723
H	-1.4160497446	 3.9732438535	-0.1180678352	 0.142008
H	 2.1748731454	 3.7059096652	 1.1044023819	 0.157902
H	 0.4972190969	 3.2647019737	 1.6960327738	 0.151255
H	 2.153662489	 1.6780747505	-0.4289246806	 0.149525
108.8264	155.5474	177.8614	273.2804	354.2344	444.7621	491.348	558.1789	582.9158	659.4708	718.6078	769.5578	814.7905	890.2106	943.1242	974.4381	1000.626	1051.1828	1068.2808	1083.2844	1098.7589	1170.2826	1224.142	1253.5071	1263.4174	1362.3351	1411.1484	1486.5272	1519.1364	1895.1893	2358.6315	3055.9776	3106.994	3141.4897	3228.4475	3241.2248
O=C1OCC2(CC12)C#N	O=C1OC[C@]2(C[C@@H]12)C#N	
InChI=1S/C6H5NO2/c7-2-6-1-4(6)5(8)9-3-6/h4H,1,3H2	InChI=1S/C6H5NO2/c7-2-6-1-4(6)5(8)9-3-6/h4H,1,3H2/t4-,6-/m0/s1
