22
gdb 7134	6.63774	0.72193	0.66705	2.3505	79.61	-0.2397	-0.0054	0.2343	1771.776	0.197375	-350.243428	-350.232881	-350.231937	-350.280524	36.263	
C	 0.0110543178	 1.6211409133	-0.0486732277	-0.386662
C	-0.0097873312	 0.0922606529	 0.018797333	-0.157542
C	 0.672954102	-0.5610792999	-1.1827996426	-0.278172
C	 0.6689999601	-2.0853252948	-1.1475089901	 0.360191
O	 0.1596447596	-2.702673091	-0.2389938144	-0.2982
C	 1.3425665913	-2.7883286632	-2.3208292592	-0.278172
C	 1.3059351247	-4.3143030938	-2.2378639123	-0.157542
C	 1.990764428	-4.9876626937	-3.4295253953	-0.386662
H	 1.0367774173	 2.0062616822	-0.0779829483	 0.111684
H	-0.5035061925	 1.9890226741	-0.9437589796	 0.111699
H	-0.4834898429	 2.0618001996	 0.8223862265	 0.115088
H	 0.4786387799	-0.2525742928	 0.9364316851	 0.111211
H	-1.0415151617	-0.2696843231	 0.0818427454	 0.111425
H	 0.1987880401	-0.2432214086	-2.1229567433	 0.115243
H	 1.7171044397	-0.2266544381	-1.2697266076	 0.115032
H	 0.8658124868	-2.4348247695	-3.2467909944	 0.115046
H	 2.3786304325	-2.4245201443	-2.3837532775	 0.115229
H	 1.7778806171	-4.6310262132	-1.3017004635	 0.111411
H	 0.2632746671	-4.6417763862	-2.1661856676	 0.111225
H	 1.5113810236	-4.7104293889	-4.3753684167	 0.111685
H	 3.045988746	-4.6997441918	-3.4994668054	 0.111698
H	 1.9497828548	-6.0778819591	-3.3444283448	 0.115088
31.5101	53.8017	79.9114	105.7186	108.526	222.8785	240.6779	243.3148	299.4643	356.4053	404.867	473.1897	683.6044	697.0681	747.9143	820.3696	865.4429	882.219	898.4693	929.6469	1030.9609	1033.5173	1050.44	1055.7767	1136.617	1143.8868	1153.9886	1238.0313	1264.8883	1302.4225	1317.848	1331.6197	1332.3361	1390.1207	1396.7403	1413.9085	1414.0273	1446.2247	1459.1784	1487.0058	1487.4859	1499.9532	1500.1132	1508.222	1508.3805	1803.3517	3002.2258	3011.8708	3026.6844	3027.1042	3027.4499	3037.8525	3049.4473	3050.1829	3074.3187	3074.7133	3099.2798	3099.7721	3102.3439	3102.5074
CCCC(=O)CCC	CCCC(=O)CCC	
InChI=1S/C7H14O/c1-3-5-7(8)6-4-2/h3-6H2,1-2H3	InChI=1S/C7H14O/c1-3-5-7(8)6-4-2/h3-6H2,1-2H3
