18
gdb 15532	2.85421	1.88149	1.27796	2.6272	74.71	-0.2313	-0.0252	0.206	983.1857	0.153257	-347.836434	-347.828181	-347.827237	-347.869772	29.676	
C	-0.3487413658	 1.4947652766	 0.0922871318	-0.493192
C	-0.0892575512	 0.0226149967	 0.0360920013	 0.311326
C	 0.1344351698	-0.7359200325	-1.0393741265	-0.161502
C	 0.35981796	-2.1899976209	-0.7124713509	-0.249094
C	 0.001182836	-2.2720451139	 0.7967662767	-0.24843
C	-0.0123605214	-0.8105698032	 1.3150002932	-0.14756
C	 1.2692942398	-0.4328768536	 2.0392522026	 0.157582
O	 1.3402103194	 0.3391387482	 2.9604641173	-0.255735
H	 0.3626958798	 1.9994908803	 0.7563603695	 0.143469
H	-0.2829271341	 1.9516910314	-0.8985523855	 0.123687
H	-1.3471502332	 1.701235577	 0.4985023128	 0.130129
H	 0.1570764622	-0.3569784019	-2.0562427341	 0.091327
H	-0.2593256994	-2.859197849	-1.3212971331	 0.106785
H	 1.400419971	-2.483934568	-0.9054346479	 0.109523
H	-0.994983989	-2.7032857373	 0.924723006	 0.114628
H	 0.6954602027	-2.9049470836	 1.3583202182	 0.103745
H	-0.8432401258	-0.5935655414	 1.9951314172	 0.090186
H	 2.1857037193	-0.9084298447	 1.6145588312	 0.073129
52.8524	76.353	171.7821	221.3944	245.7711	283.0465	343.1029	443.4928	534.3714	608.6739	702.8921	798.0314	848.342	873.481	907.6411	941.029	973.7608	1021.079	1033.7179	1052.0453	1076.9941	1097.5696	1165.0466	1184.6012	1243.6098	1262.4987	1279.4748	1297.7219	1328.2134	1349.3314	1417.1826	1424.0119	1476.5326	1484.6528	1489.5683	1503.6832	1720.5339	1825.0234	2846.9365	3015.1843	3022.7988	3046.7237	3049.9135	3059.6738	3072.6831	3100.2998	3115.4588	3183.467
CC1=CCCC1C=O	CC1=CCC[C@H]1C=O	
InChI=1S/C7H10O/c1-6-3-2-4-7(6)5-8/h3,5,7H,2,4H2,1H3	InChI=1S/C7H10O/c1-6-3-2-4-7(6)5-8/h3,5,7H,2,4H2,1H3/t7-/m0/s1
