17
gdb 11544	3.97121	1.29035	1.02537	3.042	65.99	-0.2409	0.0316	0.2725	1136.9056	0.141561	-401.009747	-401.001025	-401.000081	-401.043988	30.131	
C	 0.9438636665	 1.0067246806	-0.109483051	-0.331622
N	 0.854316431	-0.339030604	 0.4199984749	-0.297661
C	-0.090934991	-0.7069256894	 1.3282645067	 0.381013
O	-0.9485049926	 0.0418109	 1.7619402155	-0.374604
C	-0.0127240651	-2.1833844481	 1.7460556547	-0.332218
C	 1.3615641773	-2.6254540359	 2.1933777752	 0.082634
C	 1.9245226084	-3.9280012545	 1.8157895037	-0.178502
O	 2.3647215701	-2.7300009464	 1.1684596637	-0.239945
H	 0.8362190433	 1.0134953072	-1.200040428	 0.123287
H	 0.1330821038	 1.5872691154	 0.3319891312	 0.167595
H	 1.9009257019	 1.4747332435	 0.1477701642	 0.124867
H	 1.5425762697	-1.0264848432	 0.1516691563	 0.265552
H	-0.7334841737	-2.3194262363	 2.5556566721	 0.134365
H	-0.3333265125	-2.8020441647	 0.8995837818	 0.120733
H	 1.729246023	-2.1600233606	 3.1082231719	 0.109562
H	 2.6669493172	-4.4061821953	 2.4520488786	 0.123815
H	 1.3358684129	-4.6039188685	 1.1974073584	 0.121128
61.6676	85.3622	97.672	127.5562	204.12	276.3219	351.3557	372.6065	466.9503	575.5309	643.3322	735.9107	792.4834	863.4395	877.2242	926.8805	964.3544	1078.0119	1098.6742	1118.9297	1154.3614	1158.2126	1171.9984	1178.8598	1229.3513	1288.2277	1293.5852	1307.2262	1436.2626	1439.2473	1460.5638	1498.3209	1500.8926	1526.8909	1580.1138	1785.7408	3026.0017	3044.9282	3076.0551	3089.2026	3108.0252	3121.7515	3152.8902	3178.7725	3612.0975
CNC(=O)CC1CO1	CNC(=O)C[C@H]1CO1	
InChI=1S/C5H9NO2/c1-6-5(7)2-4-3-8-4/h4H,2-3H2,1H3,(H,6,7)	InChI=1S/C5H9NO2/c1-6-5(7)2-4-3-8-4/h4H,2-3H2,1H3,(H,6,7)/t4-/m0/s1
