20
gdb 115684	2.36518	1.32624	0.93336	5.627	75.84	-0.2487	0.0234	0.2721	1286.3141	0.171665	-440.304075	-440.29495	-440.294006	-440.339327	33.411	
C	-0.3525907733	 1.7097958472	 0.438433993	-0.333973
N	-0.1182639837	 0.2852399228	 0.1925586995	-0.317301
H	 0.6317034615	 0.1790845504	-0.4838153039	 0.23703
H	 0.5171973009	-1.0756795287	 1.2350105014	 0.299271
C	-1.2846273087	-0.4784795011	-0.2483802488	 0.058119
C	-1.4421456587	-0.9284168717	-1.7284127379	-0.245687
C	-1.9767003423	-2.2977735797	-1.2218201112	-0.2229
C	-1.3960526397	-1.9819720491	 0.1799476493	-0.186416
C	-0.0973501651	-2.720324622	 0.5026273745	 0.394383
O	 0.1149841904	-3.8539175812	 0.1600827405	-0.333143
O	 0.7759915336	-2.0300261031	 1.2541204871	-0.380073
H	 0.5886528091	 2.1867913195	 0.7242961692	 0.132344
H	-0.7630516549	 2.2456418323	-0.4305367622	 0.115297
H	-1.0523844157	 1.8246002322	 1.2713835316	 0.137085
H	-2.1782247224	 0.0539195427	 0.0899295088	 0.089333
H	-2.0842489187	-0.3275992059	-2.3764223216	 0.103796
H	-0.4643380206	-1.0374894217	-2.211224632	 0.107615
H	-3.0676906258	-2.3472810097	-1.2199249763	 0.103976
H	-1.5764695952	-3.1962498633	-1.6912486147	 0.134128
H	-2.0602929809	-2.1595789299	 1.0326284437	 0.107117
23.3395	88.7524	115.8272	193.2805	223.2368	265.6795	331.4147	367.5958	407.6426	536.0967	587.4167	643.5012	734.1187	745.64	784.5965	827.2803	912.4883	941.4877	957.9161	972.4137	1009.4411	1051.2917	1059.1849	1103.3873	1146.9022	1158.8067	1173.4745	1219.9565	1234.8294	1248.2823	1256.4284	1265.4296	1276.471	1331.7264	1386.796	1456.9277	1468.3746	1477.5605	1487.7068	1496.2544	1498.5583	1517.2507	1851.3768	2992.0144	3042.1748	3051.0513	3067.0484	3079.8864	3080.7922	3107.5114	3119.1348	3144.4578	3318.4977	3513.4498
C[NH2+]C1CCC1C([O-])=O	CN[C@H]1CC[C@H]1C(=O)O	
InChI=1S/C6H11NO2/c1-7-5-3-2-4(5)6(8)9/h4-5,7H,2-3H2,1H3,(H,8,9)	InChI=1S/C6H11NO2/c1-7-5-3-2-4(5)6(8)9/h4-5,7H,2-3H2,1H3,(H,8,9)/t4-,5+/m1/s1
