16
gdb 123487	5.07421	0.97289	0.90725	2.6905	70.63	-0.2517	-0.0278	0.2239	1278.6201	0.125516	-434.029348	-434.021689	-434.020745	-434.063356	27.325	
C	 0.2242991139	 1.017164188	-0.7426704704	-0.277138
N	-0.0189690128	-0.0591012637	 0.2165060943	-0.069765
C	-0.7619704061	 0.3206354783	 1.4178252769	-0.21691
C	-1.4125135733	-0.4802701248	 0.3451236933	-0.222374
C	 1.4612306057	 1.7680898694	-0.3688403406	 0.450633
N	 1.5523247318	 2.8632124525	 0.3284642763	-0.309852
C	 2.9113090821	 3.0519388621	 0.3749606869	 0.039468
N	 3.6206494424	 2.1512871054	-0.247500136	-0.11051
O	 2.6477058563	 1.2824565787	-0.7515384137	-0.18636
H	 0.356443895	 0.572387577	-1.7338690052	 0.137865
H	-0.5999790946	 1.7460350792	-0.7927556389	 0.120386
H	-0.4328206554	-0.1535338236	 2.3371444495	 0.126384
H	-1.0625566578	 1.3610719653	 1.5218415635	 0.12899
H	-2.1568946568	 0.0223763544	-0.2702143008	 0.114986
H	-1.5675480843	-1.5480623062	 0.4659694692	 0.126405
H	 3.3810393841	 3.8825626778	 0.8812608357	 0.14779
28.0276	68.2191	118.8449	289.5337	315.2443	371.4338	415.6797	659.4319	695.8482	767.0589	801.7409	842.9552	905.2949	924.8323	931.0382	981.86	985.1212	1021.5773	1032.4668	1051.0008	1114.5071	1122.383	1166.2403	1175.5978	1193.9396	1240.9942	1274.9906	1313.4826	1343.3615	1385.0669	1478.5467	1493.4796	1512.6369	1521.9761	1621.8408	2982.879	3084.0428	3099.9384	3109.7375	3187.0567	3202.4557	3262.7007
C(N1CC1)C1=NC=NO1	C(N1CC1)c1ncno1	
InChI=1S/C5H7N3O/c1-2-8(1)3-5-6-4-7-9-5/h4H,1-3H2	InChI=1S/C5H7N3O/c1-2-8(1)3-5-6-4-7-9-5/h4H,1-3H2
