23
gdb 92131	2.67175	1.66479	1.47708	0.1024	87.2	-0.2528	0.0789	0.3318	1045.048	0.210409	-351.182934	-351.175494	-351.17455	-351.214573	31.452	
C	 0.3449349098	 1.5698927853	 0.0207247832	-0.394582
C	-0.0196221594	 0.0788919905	 0.0042146097	 0.024749
C	 0.4337863109	-0.6174002327	-1.3154873444	-0.225867
C	 1.2564386498	-1.8882370674	-1.0380889726	-0.026211
C	 0.4626900271	-2.82250823	-0.0958267689	-0.220853
C	 0.6311907861	-2.1460906061	 1.2583736969	-0.073515
C	 1.8997672398	-1.3117433637	 1.1918080982	-0.051318
C	 2.4955038139	-1.5110868515	-0.1943345946	-0.220422
C	 0.5453521323	-0.6381914378	 1.2279738346	-0.018227
H	 1.4314065007	 1.707273121	-0.0208676415	 0.115354
H	-0.0919950281	 2.0923427889	-0.8373176599	 0.107323
H	-0.0181662322	 2.0596058461	 0.9312469072	 0.105953
H	-1.1135690998	 0.0109058762	 0.0711896717	 0.069793
H	-0.4392903934	-0.8691168785	-1.9278197752	 0.089289
H	 1.0392940158	 0.0752374509	-1.9126701389	 0.088271
H	 1.5250159788	-2.3734968993	-1.9804040185	 0.058422
H	-0.5837064968	-2.9286016774	-0.4060114234	 0.088318
H	 0.9029138319	-3.8266761973	-0.073786153	 0.091017
H	 0.3471450768	-2.6756340803	 2.1609947703	 0.071861
H	 2.5577589401	-1.2181624092	 2.0485565783	 0.071713
H	 3.2246871832	-2.3304093502	-0.1744310777	 0.090117
H	 3.0076183068	-0.6253456162	-0.5876628101	 0.088774
H	 0.2878963962	-0.1683277812	 2.1741888585	 0.070041
75.2171	240.0037	277.2822	329.5257	377.2517	382.6738	488.1804	500.238	594.7209	665.5686	733.3899	786.4007	815.6013	821.4382	865.5639	895.2951	906.2005	910.796	966.6463	978.5076	997.491	1009.3933	1037.6467	1055.57	1075.8198	1093.6193	1104.5054	1117.0194	1130.3226	1178.7951	1182.7624	1194.9989	1215.504	1286.9931	1293.0451	1314.7052	1333.3708	1335.4152	1349.1638	1359.2106	1362.6065	1389.4956	1407.498	1436.4278	1489.9733	1492.4925	1496.0436	1498.6264	1511.0335	3000.9434	3020.5666	3022.4903	3024.263	3026.4453	3057.7557	3062.5407	3064.6059	3069.796	3091.1142	3093.9049	3129.63	3161.7899	3173.1073
CC1CC2CC3C(C2)C13	C[C@H]1C[C@@H]2C[C@H]3[C@@H](C2)[C@@H]13	
InChI=1S/C9H14/c1-5-2-6-3-7-8(4-6)9(5)7/h5-9H,2-4H2,1H3	InChI=1S/C9H14/c1-5-2-6-3-7-8(4-6)9(5)7/h5-9H,2-4H2,1H3/t5-,6-,7+,8-,9+/m0/s1
