19
gdb 88214	3.38087	1.21223	1.04282	2.4355	71.28	-0.2576	0.0649	0.3224	1173.6622	0.160315	-460.13634	-460.128266	-460.127322	-460.168836	31.448	
O	 0.0410245498	 1.4072347339	 0.1799046149	-0.418114
C	 0.0057444178	 0.0122428108	 0.0571910072	 0.036668
C	-0.4332651534	-0.7463469809	 1.2720919596	-0.333897
C	-1.3198055902	-0.7072920258	 0.0447253518	 0.284799
C	-2.6147574131	 0.078978075	 0.1061599892	-0.158736
O	-3.6807756344	-0.771037823	 0.5188384056	-0.234246
C	-3.7877232903	-1.8911488085	-0.3182309585	 0.021716
O	-2.6354790509	-2.693968772	-0.3160046592	-0.233387
C	-1.5074804933	-1.9620572084	-0.7835636022	-0.166357
H	-0.0996257204	 1.788800451	-0.6931745743	 0.288825
H	 0.8148197667	-0.4136666876	-0.5384985928	 0.084318
H	 0.0779825223	-1.6703462708	 1.5201188096	 0.117014
H	-0.7421678016	-0.1531659936	 2.126116426	 0.129054
H	-2.5612107702	 0.8999330239	 0.8222188362	 0.123263
H	-2.8487814565	 0.5022290036	-0.8875869763	 0.077994
H	-4.6050724563	-2.5034311354	 0.0671271565	 0.11845
H	-4.008958128	-1.5629438439	-1.3539524214	 0.069527
H	-1.6549696643	-1.6963387291	-1.8458970975	 0.084687
H	-0.6464073437	-2.6326963691	-0.716316264	 0.108422
104.6645	156.0725	198.2202	287.2176	319.0504	326.4534	383.56	439.0847	447.6873	498.2496	563.7632	651.3423	765.6785	864.5451	919.5281	933.3457	957.3172	970.9787	989.6275	998.1357	1047.211	1053.9637	1073.2885	1101.4604	1141.9017	1184.1329	1196.7054	1236.7459	1269.9296	1282.4533	1312.8726	1335.2678	1354.4708	1372.4991	1412.7079	1436.7187	1443.8965	1486.0574	1490.9621	1498.4266	1511.0275	2900.5031	2938.6149	2949.4524	3082.0251	3087.9069	3115.6277	3120.205	3133.2747	3221.6256	3803.8378
OC1CC11COCOC1	O[C@H]1CC21COCOC2	
InChI=1S/C6H10O3/c7-5-1-6(5)2-8-4-9-3-6/h5,7H,1-4H2	InChI=1S/C6H10O3/c7-5-1-6(5)2-8-4-9-3-6/h5,7H,1-4H2/t5-/m0/s1
