19
gdb 65741	3.38306	1.05223	0.98114	3.376	76.39	-0.2415	-0.0172	0.2243	1260.5633	0.157678	-423.046267	-423.037304	-423.03636	-423.080795	33.416	
O	 0.091935192	 1.3466372698	-0.0017423618	-0.474438
C	 0.0381725628	-0.0821381836	 0.0318950413	 0.359951
C	 0.8520731849	-0.5482218368	-1.1820026773	-0.315022
C	 2.300967566	-0.1114818559	-1.1144910319	 0.15731
O	 3.2374638532	-0.8699306785	-1.1556498636	-0.250473
C	 0.5698374896	-0.5997643713	 1.4005184318	-0.296933
C	-0.6855961647	-0.7052335451	 2.2333408513	-0.080537
C	-1.7831847232	-0.6777506159	 1.4756908203	-0.077018
C	-1.4451856913	-0.5493100555	 0.0092014799	-0.297958
H	-0.3845818063	 1.6711592588	 0.7710812011	 0.283117
H	 0.8198597757	-1.6362441975	-1.277046982	 0.11579
H	 0.4049643094	-0.0985386931	-2.0788512614	 0.12434
H	 2.4489064201	 0.9843601606	-1.0187488161	 0.09648
H	 1.0589056675	-1.5782866096	 1.3006591485	 0.122341
H	 1.3210119678	 0.0876200489	 1.8047383646	 0.113601
H	-0.6687137201	-0.8235961155	 3.310858567	 0.098973
H	-2.8003355555	-0.7698626307	 1.8395370272	 0.098052
H	-2.0590410467	 0.1770979544	-0.5339703307	 0.111981
H	-1.5593771311	-1.5141645435	-0.503804098	 0.110443
38.8965	78.807	118.4928	187.2894	305.9967	362.1364	365.8979	392.9663	400.2866	465.9408	494.5971	636.3367	698.6496	783.5943	784.2771	847.7059	910.7075	923.5021	950.6602	976.2799	977.9088	982.21	1030.8577	1063.4073	1112.6987	1124.8821	1131.9962	1176.2255	1199.6069	1273.6483	1285.3987	1301.5345	1313.5732	1367.2542	1398.4494	1422.2359	1453.1996	1469.8751	1478.5742	1675.8347	1826.1008	2920.4758	3014.8941	3019.9136	3028.2594	3067.4407	3070.4284	3112.8686	3185.3566	3209.9661	3794.355
OC1(CC=O)CC=CC1	O[C@@]1(CC=O)CC=CC1	
InChI=1S/C7H10O2/c8-6-5-7(9)3-1-2-4-7/h1-2,6,9H,3-5H2	InChI=1S/C7H10O2/c8-6-5-7(9)3-1-2-4-7/h1-2,6,9H,3-5H2
