17
gdb 44720	2.33212	1.70675	1.1829	3.0473	77.89	-0.2394	-0.0246	0.2148	1060.9222	0.134707	-384.646027	-384.637921	-384.636977	-384.679432	30.941	
O	 0.1742605056	 0.1157493337	-0.6964570551	-0.293171
C	 0.0827911466	 1.1925010842	-0.1859864401	 0.424824
C	-1.061200286	 1.9414020803	 0.5296245508	-0.359496
C	-0.1159530002	 3.1645452449	 0.6858979241	-0.027276
C	 0.7315786161	 3.15827936	 1.9825106468	-0.247411
C	 1.9033540208	 2.4269208006	 1.2347705882	-0.17812
C	 2.3886211816	 1.1738328853	 1.77347185	 0.331965
C	 2.7670787635	 0.1286550822	 2.2321319925	-0.454713
C	 1.0303857479	 2.3952624873	-0.077337788	-0.177208
H	-1.9036292779	 2.112944625	-0.1493111918	 0.133942
H	-1.4450949088	 1.480892789	 1.4447374615	 0.129686
H	-0.5008861559	 4.123265046	 0.3430054528	 0.080069
H	 1.0160472012	 4.1476312743	 2.3455044155	 0.112579
H	 0.3005709403	 2.5940674691	 2.8123272583	 0.113607
H	 2.7433437842	 3.1114166802	 1.0856960498	 0.115529
H	 3.1053791541	-0.7978159527	 2.6254806957	 0.200451
H	 1.5241491769	 2.7202090105	-0.9937098811	 0.094745
38.0763	90.4942	178.8804	242.4126	347.1436	424.7305	458.4858	497.9865	553.6551	592.0496	629.9422	637.809	688.0301	763.0064	807.7107	846.1009	899.6867	906.0073	957.9882	1008.4337	1039.7945	1045.2851	1077.6571	1084.9679	1129.3912	1169.4369	1178.1658	1215.0646	1231.7613	1271.8515	1280.8063	1303.6895	1338.6207	1432.2977	1485.8802	1890.8845	2234.1817	3049.4035	3058.6329	3071.3813	3102.0289	3110.8759	3121.6001	3132.6824	3504.5367
O=C1CC2CC(C#C)C12	O=C1C[C@H]2C[C@@H](C#C)[C@@H]12	
InChI=1S/C8H8O/c1-2-5-3-6-4-7(9)8(5)6/h1,5-6,8H,3-4H2	InChI=1S/C8H8O/c1-2-5-3-6-4-7(9)8(5)6/h1,5-6,8H,3-4H2/t5-,6-,8-/m1/s1
