22
gdb 57470	2.40042	1.38388	1.10572	3.5183	83.41	-0.2362	0.037	0.2732	1224.8937	0.19252	-404.385742	-404.375726	-404.374782	-404.420837	37.445	
C	 0.2775235957	 1.5229899396	 0.224365311	-0.401485
C	 0.0276608018	 0.0184711636	 0.0200782873	 0.23791
C	 0.5038146069	-0.7648979232	 1.2515642397	-0.406615
C	-1.4696989387	-0.2423378074	-0.2375388665	-0.403131
N	 0.8053726022	-0.4306528885	-1.1433456439	-0.084663
C	 1.4054622314	-1.734823381	-1.4714033753	-0.173805
C	 1.6679922099	-1.1846577433	-2.8991266696	-0.371153
C	 0.9303507273	 0.0822843443	-2.4154827928	 0.413001
O	 0.5646799435	 1.116696062	-2.9167542149	-0.386337
H	 1.334793419	 1.7121245504	 0.4337007301	 0.112017
H	 0.0012071824	 2.08451684	-0.6695372347	 0.155682
H	-0.3121109668	 1.8861948454	 1.0719677385	 0.106895
H	-0.0484767209	-0.4341358776	 2.1358822738	 0.120958
H	 0.3354736419	-1.840564614	 1.1370223254	 0.115664
H	 1.5697855429	-0.5998368233	 1.4357564398	 0.119606
H	-1.8037746745	 0.308303803	-1.1211713449	 0.138722
H	-1.6595769394	-1.3081862863	-0.4020838607	 0.108411
H	-2.0722767198	 0.0797217076	 0.6179276825	 0.11354
H	 2.2931704702	-1.9800803264	-0.8807171249	 0.112409
H	 0.7027744063	-2.5750065063	-1.4328423585	 0.110331
H	 2.7165649486	-1.0280267018	-3.1578035193	 0.131327
H	 1.1646336201	-1.7129811368	-3.710564412	 0.130715
30.9561	105.9755	176.3763	191.2566	224.0438	272.6125	284.7912	304.2272	335.6544	340.0865	417.1637	446.3978	518.5172	573.0326	635.7285	781.5165	817.5542	824.7489	919.7048	933.3629	942.9651	965.0252	1018.2853	1044.0261	1049.6618	1054.6073	1137.1152	1149.9097	1188.2802	1209.9073	1217.1827	1245.3647	1273.6776	1291.6007	1385.3992	1396.5224	1400.1862	1429.1255	1461.798	1474.1024	1485.5582	1490.4896	1499.8095	1502.7224	1521.5862	1528.7563	1856.0947	3031.6856	3032.2713	3037.0874	3043.8656	3079.5602	3087.7467	3100.4496	3107.3004	3108.3204	3115.8268	3119.5311	3144.046	3145.1806
CC(C)(C)N1CCC1=O	CC(C)(C)N1CCC1=O	
InChI=1S/C7H13NO/c1-7(2,3)8-5-4-6(8)9/h4-5H2,1-3H3	InChI=1S/C7H13NO/c1-7(2,3)8-5-4-6(8)9/h4-5H2,1-3H3
