20
gdb 102847	2.97924	0.85487	0.74158	2.4609	82.14	-0.2264	-0.0282	0.1981	1552.8084	0.166715	-403.100282	-403.089621	-403.088676	-403.137108	37.497	
C	-1.6099468491	-0.4644224991	 0.0227621508	-0.393879
C	-0.1245863217	-0.0703166759	-0.0150536043	-0.155097
N	 0.6903205109	-0.6583036628	-1.0858928535	-0.07613
C	 0.9241611553	-2.0816225377	-0.9325862997	-0.237278
C	 1.8549318425	-2.3616549011	 0.239302895	 0.153775
O	 1.8239418776	-3.3598590437	 0.9089367346	-0.239556
C	 0.2768609536	-0.2921515858	-2.4417309158	-0.31164
C	 0.258245463	 1.1525609922	-2.6605573155	 0.296455
C	 0.2255974701	 2.3365914941	-2.8620965121	-0.42062
H	-2.1402547446	-0.1331134292	-0.8753244696	 0.125538
H	-1.7498703884	-1.5450767522	 0.1235992578	 0.124189
H	-2.0929733301	 0.0113443997	 0.8819068481	 0.121708
H	-0.0399169016	 1.0170999784	-0.1013640612	 0.124319
H	 0.3466163077	-0.3445025028	 0.9363539107	 0.108569
H	 0.0230285667	-2.7081362347	-0.8264003445	 0.112039
H	 1.4541439974	-2.4446990108	-1.8255217961	 0.126148
H	 2.6033629332	-1.5543983373	 0.4083291537	 0.08921
H	 0.9936178828	-0.7440631234	-3.1389627168	 0.134339
H	-0.7128762425	-0.701715587	-2.7171969817	 0.117512
H	 0.2058970673	 3.3833550692	-3.0405051698	 0.200398
44.0811	53.0434	82.7384	140.5954	151.2743	221.9988	241.4562	267.9564	336.5633	346.3359	398.1951	460.6128	481.1537	609.9013	614.964	666.6517	749.2604	789.2065	816.0262	944.0898	975.2948	1006.8616	1047.2637	1067.2156	1085.6743	1102.7541	1180.7721	1208.3415	1253.4566	1296.2395	1319.4233	1375.4936	1385.9176	1395.9087	1406.6116	1411.0517	1462.6638	1479.5081	1488.6463	1499.8016	1505.8695	1839.9216	2240.8961	2882.2894	2925.9981	2970.0808	3024.0746	3033.9866	3036.4878	3041.7363	3083.0588	3109.1787	3116.0335	3504.5983
CCN(CC=O)CC#C	CCN(CC=O)CC#C	
InChI=1S/C7H11NO/c1-3-5-8(4-2)6-7-9/h1,7H,4-6H2,2H3	InChI=1S/C7H11NO/c1-3-5-8(4-2)6-7-9/h1,7H,4-6H2,2H3
