15
gdb 84418	3.31697	1.29221	0.97446	1.9076	71.87	-0.236	-0.0379	0.1981	1151.1832	0.113195	-453.978711	-453.970606	-453.969662	-454.01167	29.723	
O	 0.1513213107	 1.4057817503	-0.2047608295	-0.407411
C	 0.0642363694	 0.01041535	-0.0132569104	-0.023438
C	 0.6569470861	-0.5383126594	 1.2617273174	-0.212046
C	-0.2510636242	-1.2832457947	 1.8947027247	 0.002708
N	-1.4815445923	-1.3084501747	 1.1986906368	-0.107729
C	-2.6353310451	-1.9551914454	 1.613660384	 0.08796
N	-2.6548741338	-2.6376050264	 2.684933127	-0.462327
C	-1.3993050507	-0.511561312	 0.0452893791	 0.374006
O	-2.3067977784	-0.284112917	-0.7118052831	-0.342812
H	-0.2266137888	 1.8376240383	 0.5698177846	 0.2879
H	 0.5371199326	-0.4306654166	-0.8999520593	 0.134595
H	 1.6735844126	-0.3650396266	 1.5808202707	 0.124923
H	-0.1894739179	-1.8469634367	 2.813050296	 0.16931
H	-3.455488646	-1.7895965777	 0.911114198	 0.137429
H	-3.5776220943	-3.0425236513	 2.8294751139	 0.236933
71.3481	139.5671	204.2536	232.1844	265.605	310.8746	334.8035	407.407	548.3347	571.6029	649.3041	733.0979	737.3918	785.3572	829.8234	879.4827	951.6152	977.0503	1010.705	1076.3464	1087.8504	1152.3091	1156.5663	1234.1248	1259.7711	1279.4573	1337.4545	1398.1271	1415.8529	1430.9153	1671.0089	1716.8753	1847.8622	3039.4895	3112.0983	3246.8349	3271.988	3511.9971	3800.3088
OC1C=CN(C=N)C1=O	O[C@H]1C=CN([CH][NH])C1=O	
InChI=1S/C5H6N2O2/c6-3-7-2-1-4(8)5(7)9/h1-4,6,8H	InChI=1S/C5H6N2O2/c6-3-7-2-1-4(8)5(7)9/h1-4,6,8H/t4-/m0/s1
