15
gdb 32350	4.97347	1.04789	0.88029	4.5426	75.16	-0.2089	-0.0787	0.1302	1258.5001	0.113005	-453.976199	-453.968107	-453.967163	-454.009505	29.3	
C	-0.0043074421	 1.4493549033	 0.1124052043	-0.327438
N	-0.0420252802	 0.0583164263	-0.3294216986	-0.365904
C	-1.1929933776	-0.6937828387	-0.1143968978	 0.308782
C	-1.1844036984	-2.020510917	 0.1748335882	-0.031598
O	-2.3276315224	-2.7464130455	 0.2485994246	-0.195884
C	-3.5642494024	-2.155049039	 0.0788567529	 0.389714
O	-4.5640316613	-2.8198063021	 0.146236075	-0.339725
C	-3.4884722306	-0.7108222646	-0.1681147323	-0.113342
N	-2.3958747115	-0.0338267378	-0.2650202152	-0.241422
H	 0.9200970443	 1.903377989	-0.2520106544	 0.12667
H	-0.8490325244	 1.9859274861	-0.319859032	 0.161667
H	-0.0467963487	 1.5642836003	 1.206262876	 0.112485
H	 0.8018524139	-0.4517505912	-0.109777842	 0.237389
H	-0.3013326186	-2.6222442464	 0.3486537894	 0.132662
H	-4.44157044	-0.1984340127	-0.2747944282	 0.145944
63.5836	88.081	156.7243	214.8682	339.1762	366.7298	403.9055	431.0369	533.3217	569.3439	616.6993	668.6764	775.1419	799.6715	807.8647	813.4127	939.1854	947.5561	1053.6729	1134.1667	1149.7195	1155.224	1233.8409	1314.7468	1337.5711	1411.7242	1457.476	1488.8696	1495.2315	1522.2787	1586.2424	1684.98	1831.0587	2988.7213	3099.3675	3153.3943	3166.9696	3211.2932	3591.9029
CNC1=COC(=O)C=N1	CNc1coc(=O)cn1	
InChI=1S/C5H6N2O2/c1-6-4-3-9-5(8)2-7-4/h2-3,6H,1H3	InChI=1S/C5H6N2O2/c1-6-4-3-9-5(8)2-7-4/h2-3,6H,1H3
