17
gdb 14396	4.16056	1.87702	1.60267	1.8498	68.04	-0.2062	0.0667	0.2729	837.9686	0.141136	-363.759509	-363.752219	-363.751275	-363.790335	29.393	
C	-0.1517136631	 1.6278741097	-0.0557051273	-0.476952
C	 0.1153438916	 0.1406504499	-0.0102255211	 0.392889
O	-0.9593775305	-0.5892613543	-0.5799333165	-0.467019
C	 1.4144279938	-0.6186093856	-0.2445229652	-0.131319
C	 2.6730317687	-0.139719955	 0.5292378403	-0.068423
N	 2.3774574542	 1.1035473702	 1.2898082784	-0.339964
C	 1.9512562637	-0.2218584822	 1.8140437463	-0.06997
C	 0.6660108849	-0.7151137839	 1.0984281035	-0.094971
H	-0.2463037641	 1.9487166209	-1.1024735645	 0.0932
H	-1.1046544024	 1.8344333034	 0.4432104597	 0.115977
H	 0.6435247742	 2.1987715351	 0.4136691803	 0.161544
H	-1.0730144677	-0.266481454	-1.4809099444	 0.27808
H	 1.4595364759	-1.376594199	-1.0161981214	 0.089507
H	 3.6915219337	-0.4057350095	 0.2761128789	 0.094496
H	 3.2337334571	 1.346847865	 1.7885615524	 0.229008
H	 2.2806016498	-0.5652740233	 2.7862699537	 0.095357
H	 0.0852059304	-1.5523603177	 1.463551197	 0.098562
171.1408	199.1331	266.8219	292.0416	362.4522	370.6862	424.635	470.0354	593.233	682.4941	723.4465	749.4282	767.2514	840.0305	896.5841	903.1105	927.8096	933.0631	980.7076	1004.8705	1009.5661	1036.6531	1095.9108	1112.4848	1121.6663	1143.4046	1218.6565	1237.6504	1265.5678	1299.4975	1319.5242	1370.2935	1401.7461	1440.3742	1488.7866	1510.7291	3013.1871	3080.6614	3182.4233	3193.0441	3194.6325	3195.5869	3204.3849	3461.2037	3794.9531
CC1(O)C2C3NC3C12	C[C@@]1(O)[C@H]2[C@H]3N[C@H]3[C@@H]12	
InChI=1S/C6H9NO/c1-6(8)2-3(6)5-4(2)7-5/h2-5,7-8H,1H3	InChI=1S/C6H9NO/c1-6(8)2-3(6)5-4(2)7-5/h2-5,7-8H,1H3/t2-,3+,4-,5+,6-
