13
gdb 124235	5.10677	1.05047	0.87598	1.9986	61.92	-0.2949	-0.0829	0.212	1227.4087	0.087511	-486.006685	-485.998828	-485.997884	-486.040487	27.343	
C	-0.181827121	 1.3843787215	-0.1457896695	-0.447805
C	 0.1521376265	-0.0680588063	-0.0201716208	 0.399994
N	 1.3092255883	-0.5450627332	-0.0180699848	-0.47478
O	-1.0751669257	-0.7772311721	 0.0936131216	-0.261006
C	-1.1398898564	-2.0916741267	 0.2229540425	 0.538574
N	-0.1746584578	-2.9690163352	 0.2681303563	-0.190238
O	-0.8296317288	-4.1570575303	 0.409004448	-0.151755
N	-2.1933178515	-3.9199120235	 0.4413565068	 0.069144
N	-2.3868139028	-2.6840358957	 0.3306314207	-0.220304
H	 0.7405621098	 1.954822572	-0.2396677259	 0.161338
H	-0.8157070442	 1.5542699606	-1.0213060419	 0.15378
H	-0.7408258699	 1.7227786803	 0.7319050216	 0.153878
H	 1.3538128335	-1.5577546214	 0.0768330152	 0.269182
37.6883	77.9033	154.6571	180.2951	349.3728	358.6442	392.4157	540.3288	571.4427	652.4226	734.6695	759.3278	772.522	884.3989	917.386	950.1866	1013.5049	1058.7999	1077.8632	1082.7218	1113.3753	1264.375	1324.5608	1409.993	1472.7642	1475.1937	1517.1246	1614.4086	1791.6374	3055.1279	3114.6728	3176.2668	3516.757
CC(=N)OC1=NON=N1	C[C]([NH])Oc1nonn1	
InChI=1S/C3H4N4O2/c1-2(4)8-3-5-7-9-6-3/h4H,1H3	InChI=1S/C3H4N4O2/c1-2(4)8-3-5-7-9-6-3/h4H,1H3
