23
gdb 61213	3.14536	0.94495	0.83907	0.7042	91.67	-0.2538	0.0565	0.3103	1479.9928	0.203318	-351.116031	-351.105666	-351.104722	-351.151085	39.72	
C	 0.4217571736	 1.336528388	 0.5178600482	-0.421184
C	 0.0345478793	-0.063055013	 0.025833214	-0.039711
C	-1.5076282993	-0.1645814034	-0.1522766403	-0.357779
C	-2.2542854631	 0.0007034997	 1.0888325122	 0.30459
C	-2.8516319727	 0.1302174688	 2.1245865806	-0.447821
C	 0.7395730756	-0.525615862	-1.2588853933	 0.379332
C	 0.7404002021	-2.0341767221	-1.4506388955	-0.464656
C	 0.6381944198	 0.3184530412	-2.5103454096	-0.298291
C	 1.9569018445	 0.2002529602	-1.7858338113	-0.32462
H	 1.4778864616	 1.3855469125	 0.7948896075	 0.117509
H	 0.2330374385	 2.1040879385	-0.2418748909	 0.113614
H	-0.1691855273	 1.5963827321	 1.4001039758	 0.132084
H	 0.3099412837	-0.7741638238	 0.8159153495	 0.08137
H	-1.8304295848	 0.5930725436	-0.8782773687	 0.126822
H	-1.7665876366	-1.1337501411	-0.59307217	 0.127344
H	-3.3903378209	 0.2444782558	 3.0322170171	 0.191465
H	-0.2729266132	-2.4501858625	-1.4797901116	 0.116019
H	 1.2307769589	-2.3108537815	-2.3890725558	 0.11261
H	 1.2780185113	-2.5320810609	-0.6349744256	 0.11676
H	 0.5187075946	-0.1884765935	-3.4622667312	 0.107891
H	 0.1226810032	 1.271547628	-2.4533740054	 0.109321
H	 2.3221761775	 1.0754428972	-1.2632117106	 0.112143
H	 2.7396693338	-0.4000191917	-2.2379479355	 0.105189
67.1511	71.0593	140.6724	210.159	233.1975	254.9494	289.0831	337.7376	347.4574	350.4512	376.7141	442.5209	494.5432	514.3801	612.3321	635.2735	710.2862	788.8895	847.115	868.6052	885.0371	907.9657	946.156	949.7498	979.639	1030.5831	1058.4307	1070.5406	1083.813	1110.3686	1121.6543	1126.1604	1189.9565	1238.8296	1271.6577	1305.1645	1341.8283	1355.495	1382.1325	1413.9698	1420.9401	1466.4011	1467.7741	1494.1931	1496.8271	1502.6369	1509.652	1515.2541	2234.0116	3012.2189	3023.9549	3026.6488	3038.0164	3063.5253	3083.1761	3098.8989	3105.1096	3120.7065	3128.0231	3137.5567	3206.1739	3225.8806	3507.1124
CC(CC#C)C1(C)CC1	C[C@@H](CC#C)C1(C)CC1	
InChI=1S/C9H14/c1-4-5-8(2)9(3)6-7-9/h1,8H,5-7H2,2-3H3	InChI=1S/C9H14/c1-4-5-8(2)9(3)6-7-9/h1,8H,5-7H2,2-3H3/t8-/m0/s1
