23
gdb 100022	2.46619	1.19925	1.1378	0.4373	81.05	-0.253	0.0637	0.3167	1267.0574	0.202754	-425.415448	-425.404814	-425.40387	-425.450326	40.832	
C	-0.1571449685	 1.4261119106	 0.1405195674	-0.397267
C	-0.2638224334	-0.0513097435	-0.2487220279	-0.204905
C	 0.7527021417	-0.5261276627	-1.3143538395	 0.296139
C	 0.5697418181	 0.1870376857	-2.6522262026	-0.428297
O	 2.0882042612	-0.2032892273	-0.8959634771	-0.478683
C	 0.6592381776	-2.0603330058	-1.4243666815	 0.411077
O	 1.1978241382	-2.6941118348	-0.2814717401	-0.479819
C	-0.5401852625	-2.7561371765	-1.9895880781	-0.300388
C	 0.7900256493	-2.8219894819	-2.7167798096	-0.346763
H	 0.8675018569	 1.6826497393	 0.4232845755	 0.121337
H	-0.4510879803	 2.0898482948	-0.6784480013	 0.115243
H	-0.8114408134	 1.6466827655	 0.9895128148	 0.108764
H	-0.1174867903	-0.677560436	 0.6402183168	 0.104537
H	-1.2750467296	-0.2733740868	-0.6090231509	 0.094612
H	 0.613590602	 1.2686235927	-2.5096861947	 0.126615
H	 1.3728411919	-0.0883942468	-3.3396959164	 0.126818
H	-0.3916085742	-0.0584288922	-3.112361428	 0.113418
H	 2.1776269693	-0.5465263659	 0.0005571743	 0.272463
H	 2.1521711826	-2.7274802143	-0.4122028786	 0.281687
H	-0.873051547	-3.6447236207	-1.4660838834	 0.122378
H	-1.3336423377	-2.1597487382	-2.4264584577	 0.113696
H	 0.8951276201	-2.2812412345	-3.6490756137	 0.116493
H	 1.331295638	-3.7608570607	-2.6721249078	 0.110846
76.6473	106.647	152.8317	181.7507	217.8326	230.6855	276.631	321.541	327.7787	354.0258	354.5163	406.3714	484.6534	493.2529	530.7299	582.0201	676.6918	774.5708	791.0675	827.8251	901.3831	918.6811	930.9775	945.5286	982.881	1005.4081	1014.6383	1051.1514	1067.715	1081.5475	1137.3176	1158.0568	1188.0556	1202.951	1253.6408	1290.8058	1317.6114	1353.4167	1368.6581	1384.0959	1409.4988	1422.654	1452.981	1481.269	1490.2787	1496.0239	1499.4192	1509.9087	1514.7588	3029.7861	3042.1175	3052.7639	3065.257	3104.9119	3119.135	3125.1032	3132.8053	3137.9097	3141.5837	3221.7294	3235.5236	3795.2343	3795.3947
CCC(C)(O)C1(O)CC1	CC[C@@](C)(O)C1(O)CC1	
InChI=1S/C7H14O2/c1-3-6(2,8)7(9)4-5-7/h8-9H,3-5H2,1-2H3	InChI=1S/C7H14O2/c1-3-6(2,8)7(9)4-5-7/h8-9H,3-5H2,1-2H3/t6-/m1/s1
