23
gdb 123169	7.75904	0.43441	0.4258	1.234	84.52	-0.2512	0.0907	0.342	2571.7822	0.203528	-425.395167	-425.384317	-425.383373	-425.432911	37.324	
C	-0.0319905759	 1.3709789197	 0.1931249366	-0.2268
O	-0.009060777	-0.0221462248	 0.0052431956	-0.230574
C	-1.29249704	-0.6057688197	 0.0648768789	-0.050576
C	-1.1572731216	-2.1080448436	-0.1429909852	-0.199708
C	-2.5038799987	-2.8348939241	-0.0928989306	-0.177502
C	-2.3756369626	-4.3502720282	-0.2990939149	-0.222817
C	-3.7086111394	-5.0538214689	-0.2330842419	 0.09936
C	-3.872975497	-6.3880523004	 0.3553226324	-0.181288
O	-4.2791471304	-5.2194113332	 1.0699945928	-0.237115
H	 0.9991693627	 1.7282236695	 0.1333648581	 0.125013
H	-0.6290550358	 1.8801654151	-0.5808638395	 0.100877
H	-0.4461700902	 1.6458373695	 1.1767529227	 0.101847
H	-1.7651890622	-0.3943007586	 1.0404856569	 0.084149
H	-1.9489852198	-0.1680004143	-0.7083756051	 0.081047
H	-0.6666397421	-2.284205325	-1.1082960882	 0.103222
H	-0.4845803482	-2.5068561626	 0.6260767321	 0.106663
H	-2.9912615545	-2.653907184	 0.8732574738	 0.115588
H	-3.1749058908	-2.4211474279	-0.8585278503	 0.093709
H	-1.9129283217	-4.5563276497	-1.273975495	 0.099723
H	-1.713207597	-4.7743501419	 0.4650365587	 0.103308
H	-4.4354315401	-4.7460376339	-0.9886402268	 0.087858
H	-4.6809475611	-7.0368368133	 0.0192869593	 0.112557
H	-3.0035397664	-6.9047736798	 0.7606401195	 0.111458
43.2269	58.7179	80.5254	96.4782	131.1063	140.4666	196.9081	233.3621	264.2137	345.8038	419.0853	474.2359	515.9811	741.051	781.4639	814.4577	868.105	928.7992	944.1606	981.0355	1034.112	1039.583	1062.4471	1078.0526	1113.1302	1157.2986	1162.0468	1167.0207	1176.1102	1190.8228	1220.6768	1223.9031	1263.0005	1283.9924	1295.531	1314.0064	1329.5516	1335.4242	1393.4891	1427.01	1449.5855	1471.5943	1481.5479	1484.8432	1489.3446	1501.7763	1509.1297	1530.7218	1533.0727	2938.0715	2963.3089	2966.2371	3006.447	3010.3568	3017.3471	3029.7431	3046.15	3062.169	3077.2742	3079.6307	3087.9337	3110.8262	3164.8133
COCCCCC1CO1	COCCCC[C@H]1CO1	
InChI=1S/C7H14O2/c1-8-5-3-2-4-7-6-9-7/h7H,2-6H2,1H3	InChI=1S/C7H14O2/c1-8-5-3-2-4-7-6-9-7/h7H,2-6H2,1H3/t7-/m0/s1
