22
gdb 101184	3.43077	1.03895	0.93802	1.4183	83.58	-0.2279	0.0849	0.3128	1364.9826	0.193935	-404.252743	-404.243529	-404.242585	-404.287394	34.372	
C	 0.2754531324	 1.0185135691	-0.8693748633	-0.233357
O	-0.0023905006	-0.2856931883	-0.4181343399	-0.249891
C	-1.3493918986	-0.5010203763	-0.0061658392	 0.062895
C	-2.3220321715	-0.6021711177	-1.1847940539	-0.402506
C	-1.298791845	-1.8142355458	 0.7632273482	 0.102531
C	-0.8934367558	-1.9372885106	 2.2524688973	-0.082851
C	-2.2916970415	-1.3620881854	 2.5622165269	-0.178135
N	-2.6002543574	-2.3445425208	 1.4126802707	-0.168015
C	-1.6446969092	-3.284285255	 2.1761681979	-0.166826
H	 1.3509493063	 1.0703893787	-1.0578388016	 0.126436
H	-0.2520672458	 1.2676467416	-1.801439334	 0.107756
H	 0.0131005759	 1.7762518112	-0.1136676164	 0.101306
H	-1.655462776	 0.3348862084	 0.6404727784	 0.062036
H	-3.3185110873	-0.8654199166	-0.8195004654	 0.140823
H	-2.3938482383	 0.3412726818	-1.7330017345	 0.110991
H	-1.9924742233	-1.3814947211	-1.8793991177	 0.121103
H	-0.8536201443	-2.5640074794	 0.0990037283	 0.076458
H	 0.068936582	-1.7100859762	 2.7225742029	 0.068306
H	-2.7614409816	-1.6506685579	 3.5067003434	 0.098674
H	-2.5068861511	-0.3177692643	 2.3338887699	 0.102473
H	-1.2240786099	-4.0786315376	 1.5534947623	 0.10111
H	-2.0801526092	-3.683404118	 3.0960198599	 0.098682
51.0684	71.9574	140.5364	190.1719	207.5788	251.5152	297.4576	374.1847	416.0314	483.5185	601.6685	620.7089	766.3558	787.1608	848.0906	866.2482	881.4162	904.2585	921.5077	1004.3528	1013.552	1045.8114	1074.3257	1080.9767	1114.0174	1129.503	1149.9282	1161.054	1179.9723	1181.5611	1193.0462	1200.7998	1224.5657	1231.2249	1250.6233	1286.5801	1341.7265	1367.1825	1399.6162	1444.086	1476.8541	1482.1917	1494.8659	1501.2397	1512.5826	1518.1323	1554.2824	2972.6725	2985.3654	3024.2306	3040.9079	3043.9089	3045.2099	3054.8349	3068.0173	3108.3072	3114.6513	3118.5185	3124.2487	3130.5478
COC(C)C1C2CN1C2	CO[C@@H](C)[C@H]1[C@H]2CN1C2	
InChI=1S/C7H13NO/c1-5(9-2)7-6-3-8(7)4-6/h5-7H,3-4H2,1-2H3	InChI=1S/C7H13NO/c1-5(9-2)7-6-3-8(7)4-6/h5-7H,3-4H2,1-2H3/t5-,7-/m0/s1
