18
gdb 78048	2.71885	1.35229	1.22042	2.9226	73.54	-0.2322	0.0154	0.2476	1103.5482	0.145561	-439.074751	-439.065653	-439.064709	-439.108108	33.946	
C	-0.1083479868	 1.2866540421	 0.2850783701	-0.348619
N	-0.0492449691	-0.0757818461	-0.1961906666	-0.087677
C	-1.0747822744	-1.1116798604	-0.1849755443	-0.064094
C	 0.0232993916	-2.1652810106	-0.0813093297	-0.310644
C	 0.9959694479	-0.9926716518	-0.0589952941	 0.395838
O	 2.1790920702	-0.8299551815	 0.0786238548	-0.372439
C	-1.0195594325	-1.9655063625	 1.0471695497	 0.382337
C	-0.6597912427	-1.4851341843	 2.4329720112	-0.467619
O	-2.0375021825	-2.9252282165	 1.0202840395	-0.45819
H	 0.9186573409	 1.6537300297	 0.3561477475	 0.158195
H	-0.66006949	 1.9248380815	-0.4125325321	 0.130878
H	-0.580425312	 1.3615138848	 1.2739045381	 0.121038
H	-1.9216721273	-1.093081734	-0.8590895932	 0.119278
H	 0.1125309276	-3.1060807838	-0.6043957404	 0.117109
H	 0.1277269039	-0.7297791501	 2.4173383715	 0.146314
H	-1.5431737341	-1.0720084886	 2.9300103152	 0.129988
H	-0.2913871914	-2.3237875053	 3.0362218965	 0.119026
H	-1.7516630592	-3.6827609927	 1.5434875764	 0.289282
132.9236	143.1687	151.4584	204.7303	224.2703	249.2137	283.63	315.1627	396.8367	427.8563	513.8274	534.0631	662.1889	729.9459	747.0528	815.4958	840.544	862.7618	962.87	983.4531	1001.9644	1022.7426	1078.8096	1098.6072	1139.109	1166.008	1182.6679	1256.9976	1267.9251	1279.2856	1369.0898	1415.3396	1424.4585	1446.146	1483.7582	1484.9564	1498.0891	1517.2371	1873.3796	3011.1063	3031.8332	3076.987	3093.8804	3127.4053	3138.9739	3199.3357	3232.0687	3794.1897
CN1C2C(C1=O)C2(C)O	CN1[C@H]2[C@@H](C1=O)[C@]2(C)O	
InChI=1S/C6H9NO2/c1-6(9)3-4(6)7(2)5(3)8/h3-4,9H,1-2H3	InChI=1S/C6H9NO2/c1-6(9)3-4(6)7(2)5(3)8/h3-4,9H,1-2H3/t3-,4-,6-/m0/s1
