20
gdb 115402	2.45227	1.23153	0.90175	1.9113	78.04	-0.2472	0.0261	0.2733	1334.424	0.170994	-440.30405	-440.294607	-440.293663	-440.339154	34.029	
C	-0.1918797237	 1.4655537329	-0.2508881238	-0.332556
N	-0.1684949687	 0.0823216254	 0.1972913921	-0.322216
C	-1.2259967649	-0.5977288145	 0.176601287	 0.438207
C	-1.360167377	-2.0375212726	 0.6210290226	-0.318599
C	-2.6697094864	-2.4958834002	-0.0390503035	-0.255791
C	-3.4518289265	-1.1809105496	-0.2006716044	 0.088345
C	-4.3959211857	-0.8612241593	 0.9566019354	-0.060143
O	-4.9432096382	 0.433003035	 0.8382968977	-0.420205
O	-2.4492576351	-0.1395684702	-0.2621729586	-0.273462
H	 0.7340627983	 1.6772789173	-0.794638896	 0.123211
H	-1.0456996522	 1.7143053591	-0.8919504367	 0.118399
H	-0.2101947787	 2.13489244	 0.6186977039	 0.123593
H	-0.4837328619	-2.6172081108	 0.3311712068	 0.137193
H	-1.427258149	-2.0709658569	 1.7140181484	 0.132657
H	-2.4733698603	-2.9391760376	-1.0188829848	 0.119761
H	-3.2210557653	-3.2290759883	 0.5547430668	 0.114425
H	-4.0092352889	-1.1256946496	-1.1403027896	 0.097498
H	-5.2334640882	-1.5675041572	 0.9479168961	 0.11243
H	-3.8609201091	-0.9919102505	 1.9130596815	 0.085887
H	-4.1982546183	 1.0278591775	 0.690259329	 0.291366
65.2476	72.3904	102.3346	136.504	207.8192	250.314	256.9447	377.4354	434.4229	481.5944	492.321	576.9128	665.5869	706.1338	800.8993	828.7419	910.0347	955.3028	978.6098	1024.811	1041.3381	1066.4331	1093.9153	1097.0038	1128.8752	1147.7254	1179.008	1204.6827	1223.1788	1237.0312	1297.1648	1324.1084	1340.0572	1370.7774	1401.3338	1437.8429	1438.8293	1476.2985	1491.2784	1497.6337	1500.0763	1501.9577	1804.7321	2960.2104	3012.6724	3054.5496	3061.4485	3065.6845	3070.1782	3079.6697	3091.9939	3110.1097	3133.3883	3792.1981
CN=C1CCC(CO)O1	CN=C1CC[C@@H](CO)O1	
InChI=1S/C6H11NO2/c1-7-6-3-2-5(4-8)9-6/h5,8H,2-4H2,1H3	InChI=1S/C6H11NO2/c1-7-6-3-2-5(4-8)9-6/h5,8H,2-4H2,1H3/t5-/m0/s1
