21
gdb 91766	2.40125	1.75082	1.56645	1.4825	76.52	-0.244	0.08	0.324	1001.7748	0.185594	-424.254553	-424.246951	-424.246007	-424.286149	31.065	
C	-0.1355788313	 1.5327097293	-0.0854770498	-0.41743
C	-0.0104543994	 0.0229003229	 0.024278475	 0.145124
O	 0.6919449198	-0.5196477495	-1.1066875729	-0.300588
C	 1.521756466	-1.5761404401	-0.6193783727	 0.199918
C	 2.9781149492	-1.1136803757	-0.5343236309	-0.214799
C	 3.0557625121	 0.1687019242	 0.3166416813	-0.211808
C	 2.1142959795	 0.1116839019	 1.5409565298	-0.215652
C	 0.7778429029	-0.5689564529	 1.2074112583	 0.046032
O	 1.0534539532	-1.8756889988	 0.6817454296	-0.25997
H	 0.8365089246	 2.0304642254	-0.0882584091	 0.124952
H	-0.6547807872	 1.7968117245	-1.0109319623	 0.131284
H	-0.7234511187	 1.9219486467	 0.7526282396	 0.116402
H	-1.0197384203	-0.4152978416	 0.0473249871	 0.077788
H	 1.3886289108	-2.4644608654	-1.245263118	 0.081075
H	 3.5559994651	-1.9291804106	-0.0846144907	 0.102692
H	 3.3805569534	-0.9365450156	-1.5370151586	 0.100778
H	 4.0844570423	 0.3481983838	 0.6449601823	 0.095614
H	 2.7811426882	 1.0161207035	-0.317395473	 0.114131
H	 2.5752648601	-0.4788282206	 2.340819889	 0.106615
H	 1.9474663599	 1.1164801941	 1.9454760001	 0.097137
H	 0.1582782699	-0.6921634355	 2.0990679958	 0.080706
153.494	205.0952	215.664	268.5029	351.7069	357.1163	437.7291	474.0794	515.9601	619.3488	716.3391	770.1651	798.6961	838.3364	849.1404	883.6936	899.4423	930.1151	945.3992	976.7505	1042.2378	1053.308	1071.3185	1096.1445	1129.1176	1130.1012	1156.4116	1182.8875	1222.3619	1264.6619	1300.218	1327.151	1343.8708	1357.9376	1363.789	1380.6981	1391.2251	1393.0756	1403.7373	1412.0464	1474.1442	1475.6827	1489.1475	1495.7393	1502.4089	2984.0332	3035.2947	3038.6463	3044.599	3052.925	3062.9361	3071.1897	3082.2272	3086.8992	3098.9524	3111.4342	3130.877
CC1OC2CCCC1O2	C[C@H]1O[C@H]2CCC[C@@H]1O2	
InChI=1S/C7H12O2/c1-5-6-3-2-4-7(8-5)9-6/h5-7H,2-4H2,1H3	InChI=1S/C7H12O2/c1-5-6-3-2-4-7(8-5)9-6/h5-7H,2-4H2,1H3/t5-,6+,7-/m1/s1
