17
gdb 85222	2.65562	1.10689	0.86311	5.1997	70.1	-0.2442	-0.0325	0.2117	1314.5429	0.132839	-458.970845	-458.961573	-458.960629	-459.006062	32.723	
O	-0.0299229803	 1.4747420783	-0.0141895478	-0.422822
C	 0.036968259	 0.0659151542	 0.0167986362	 0.07844
C	 0.2929250952	-0.5038544906	 1.4477806356	-0.364462
C	-1.2307177205	-0.6751233917	 1.5697968598	 0.392096
O	-1.9889983597	-0.7832956257	 2.4887043337	-0.291115
C	-1.4189701371	-0.5030869116	 0.0498325334	-0.121725
C	-2.5777465642	 0.3383312914	-0.4882828257	-0.294809
C	-3.923762374	-0.2916644918	-0.183930366	 0.142178
O	-4.75238699	-0.5451323846	-1.021208709	-0.243476
H	 0.8556906525	 1.8259529269	 0.1218800413	 0.292834
H	 0.6771993098	-0.3283593951	-0.779961102	 0.079269
H	 0.8104217475	-1.4688023924	 1.4483376761	 0.133534
H	 0.7694136776	 0.1644160905	 2.1689311232	 0.129694
H	-1.4199139344	-1.5015773696	-0.4064511336	 0.117355
H	-2.5437216706	 1.324603446	-0.0101479615	 0.140857
H	-2.4941471231	 0.4804352078	-1.5693556748	 0.125217
H	-4.0992996076	-0.5084732821	 0.8909916813	 0.106933
58.5223	72.3089	78.5314	149.3733	202.3406	287.2346	294.429	389.302	418.5783	458.1322	540.7996	545.8694	726.1902	731.5996	820.1228	849.0427	893.2009	938.5824	997.907	1039.5475	1051.0088	1091.7073	1126.2128	1138.4913	1192.0243	1198.3669	1213.167	1253.7562	1295.2908	1312.3246	1344.858	1409.6365	1426.8626	1429.4598	1464.7943	1829.3225	1889.5677	2920.0932	3030.7681	3042.4202	3046.3483	3060.2477	3106.5104	3122.2006	3822.5066
OC1CC(=O)C1CC=O	O[C@H]1CC(=O)[C@H]1CC=O	
InChI=1S/C6H8O3/c7-2-1-4-5(8)3-6(4)9/h2,4-5,8H,1,3H2	InChI=1S/C6H8O3/c7-2-1-4-5(8)3-6(4)9/h2,4-5,8H,1,3H2/t4-,5-/m0/s1
