13
gdb 131680	2.74058	1.49336	0.97243	4.5881	64.08	-0.278	-0.1031	0.1749	1099.3157	0.087317	-489.853049	-489.845006	-489.844062	-489.886066	28.458	
O	-0.0111488248	 1.435105978	 0.0062320611	-0.417607
C	-0.0029098929	 0.025291585	 0.0025539451	-0.155033
C	-1.4119134372	-0.4735469397	 0.0122681843	 0.063582
C	-2.4961878099	 0.3209334413	 0.0241462907	-0.040413
N	-3.7886209682	-0.1996726137	 0.0330369873	-0.103668
N	-4.0349655357	-1.4012901461	 0.030618344	 0.05671
O	-2.9047330079	-2.3419599907	 0.0176305741	-0.266153
C	-1.6036942767	-1.9267895287	 0.0085525183	 0.449429
O	-0.7105009661	-2.7351299174	-0.0017148903	-0.335257
H	 0.8984487747	 1.7454767333	-0.0001105852	 0.303708
H	 0.5036936517	-0.3936847193	-0.8817111653	 0.137511
H	 0.517230305	-0.3980299421	 0.8768851348	 0.137477
H	-2.4351113121	 1.4000023701	 0.0274920611	 0.169713
90.5724	124.5063	192.3381	203.7884	224.0005	311.0567	369.8336	433.483	517.4245	579.5513	607.5472	685.8501	779.6074	819.9345	916.1763	934.5824	1032.0423	1044.8547	1095.7166	1133.8867	1223.3311	1239.1215	1253.469	1386.4167	1465.1445	1485.368	1604.1069	1681.5202	1819.7543	2979.7704	2999.8151	3246.0013	3847.2349
OCC1=CN=NOC1=O	OCc1cnnoc1=O	
InChI=1S/C4H4N2O3/c7-2-3-1-5-6-9-4(3)8/h1,7H,2H2	InChI=1S/C4H4N2O3/c7-2-3-1-5-6-9-4(3)8/h1,7H,2H2
