13
gdb 25191	2.44945	1.91876	1.29861	5.2099	69.21	-0.2658	-0.0793	0.1865	940.4164	0.090156	-452.769237	-452.762047	-452.761103	-452.801304	26.326	
N	-0.0043550058	 0.9574574141	-0.8017698509	-0.465975
C	-0.0254014217	-0.0311658935	-0.0086073909	 0.209835
N	 1.0707316902	-0.5743741323	 0.6635270681	-0.240967
C	 1.3784107371	-1.8100368143	 0.4971361426	-0.013536
C	 0.671799059	-2.7911725931	-0.301841969	-0.164736
C	-0.642390584	-2.7734498153	-0.5868925942	 0.086179
O	-1.5930458368	-1.9209582762	-0.1513553708	-0.201294
C	-1.3782652474	-0.6285314385	 0.3299715234	 0.420757
O	-2.250152808	-0.0946437636	 0.9327756352	-0.270577
H	 0.9591129062	 1.2860416268	-0.9162430462	 0.233463
H	 2.2841833178	-2.1543186231	 0.9994438137	 0.133627
H	 1.2300347218	-3.6514031186	-0.6544581251	 0.123619
H	-1.0969591085	-3.5583518024	-1.1817268561	 0.149605
84.5686	110.235	250.9817	305.6376	325.204	413.9763	462.8281	555.3615	631.3425	695.3089	765.1361	790.5658	810.8791	890.5488	942.2326	952.42	974.8769	989.5446	1006.7961	1093.0129	1128.9623	1308.7396	1335.6404	1413.255	1447.3316	1625.2126	1695.6987	1718.8593	1895.9628	3116.9805	3189.6614	3208.5843	3437.4322
N=C1N=CC=COC1=O	[NH][C]1N=CC=COC1=O	
InChI=1S/C5H4N2O2/c6-4-5(8)9-3-1-2-7-4/h1-3,6H	InChI=1S/C5H4N2O2/c6-4-5(8)9-3-1-2-7-4/h1-3,6H
