21
gdb 117784	1.87726	1.17426	1.07637	3.1347	79.6	-0.2455	0.021	0.2665	1344.7684	0.180335	-420.413612	-420.402636	-420.401692	-420.449758	39.151	
C	 0.0594424781	 1.5545756308	 0.3217731011	-0.384429
C	 0.1069887762	 0.0643955508	 0.0317906277	-0.061388
O	 0.765251008	-0.5684617197	 1.1276916647	-0.27661
C	 0.7592011296	-1.9856386715	 1.1706776941	 0.1973
C	 1.5021684553	-2.6249586507	-0.0126299296	-0.427665
C	 1.4550705014	-2.3419770525	 2.5167770087	-0.167239
N	 0.8540423699	-1.7825902619	 3.7113131955	-0.507549
C	-0.6387231186	-2.4876308461	 1.2193316884	 0.256637
N	-1.7236014673	-2.8824167701	 1.2824743676	-0.349958
H	 1.0691220361	 1.9556492742	 0.4476543151	 0.129056
H	-0.4226952488	 2.0832153231	-0.5056865601	 0.122477
H	-0.5065377519	 1.7513400997	 1.2364147405	 0.130344
H	-0.907962183	-0.3416355633	-0.0823145401	 0.117594
H	 0.6521081257	-0.1267391069	-0.9029760098	 0.098998
H	 2.5158443838	-2.2170516273	-0.056155774	 0.133932
H	 1.5616123254	-3.7088313	 0.1181788218	 0.138108
H	 1.001828145	-2.4290276647	-0.9632457862	 0.137107
H	 1.4994556481	-3.4318670917	 2.607568687	 0.117432
H	 2.483420585	-1.973321196	 2.428720898	 0.117503
H	 0.7304110973	-0.7829139283	 3.5811997275	 0.238357
H	-0.0719111655	-2.175285228	 3.8564890024	 0.239994
61.4235	97.0514	109.1621	132.548	181.8809	203.6371	220.2795	255.7888	263.2995	338.1625	352.0783	410.748	426.7695	452.5358	603.2041	636.613	689.4951	822.4036	826.7451	880.9068	918.6042	935.4068	966.02	1070.9598	1111.6358	1124.8355	1127.8886	1161.772	1187.3668	1198.5722	1254.907	1305.151	1371.2791	1398.9758	1402.6382	1406.8463	1427.1708	1468.2387	1484.0578	1484.4474	1496.9423	1500.6842	1528.3424	1670.8452	2343.8915	2998.6998	3035.4732	3040.8622	3046.7887	3051.7457	3093.5017	3121.9841	3124.787	3127.7802	3134.6387	3494.5876	3574.9812
CCOC(C)(CN)C#N	CCO[C@@](C)(CN)C#N	
InChI=1S/C6H12N2O/c1-3-9-6(2,4-7)5-8/h3-4,7H2,1-2H3	InChI=1S/C6H12N2O/c1-3-9-6(2,4-7)5-8/h3-4,7H2,1-2H3/t6-/m0/s1
