18
gdb 41033	3.29041	1.8906	1.56327	0.4573	76.71	-0.2045	0.0588	0.2633	893.7541	0.149182	-401.788025	-401.781525	-401.780581	-401.818418	27.775	
C	 0.1589732128	 1.5222420824	-0.2517298182	-0.092154
O	 1.5156244434	 1.4616842197	 0.2403058891	-0.321671
C	 1.3618229165	 0.1075626275	 0.6704297783	 0.419767
C	 2.5059897313	-0.669442495	 1.3558924193	-0.172232
C	 1.7550033036	-1.9565375239	 0.9304141973	-0.23844
C	 1.6727157414	-1.0077033213	-0.2944704518	 0.270027
C	 3.1884975612	-0.688597464	-0.1034055667	-0.307067
N	 0.3911327898	-0.9054329148	-1.0435650255	-0.43173
C	-0.1105610627	 0.0449952701	 0.0297553686	-0.148756
H	-0.4434406147	 2.2125058945	 0.3529989456	 0.106722
H	 0.1084249855	 1.8221864344	-1.305166835	 0.101577
H	 3.0247310967	-0.4867579878	 2.2988211173	 0.08307
H	 2.3636719798	-2.855175093	 0.8108802451	 0.095962
H	 0.8156194942	-2.1665529729	 1.4466174418	 0.099061
H	 3.5306138383	 0.2753418339	-0.4783403503	 0.125045
H	 3.9161000259	-1.4875802205	-0.2743735941	 0.09819
H	 0.4658678604	-0.4422387167	-1.945933623	 0.221329
H	-1.0589034434	-0.2500894324	 0.4768272524	 0.0913
182.495	269.3102	325.0199	391.7358	454.6421	500.7755	547.9316	592.0509	663.0769	746.189	773.1677	812.9006	863.6123	888.5485	932.2916	949.4979	965.3031	979.696	994.9771	1006.279	1052.4654	1059.3362	1072.943	1085.6509	1112.5338	1130.2719	1150.9011	1170.2668	1178.4905	1195.1958	1216.793	1247.6745	1279.3299	1284.7861	1337.705	1349.4606	1484.5463	1512.6693	1525.0516	3010.7216	3057.262	3060.8471	3063.5344	3097.0941	3121.5791	3131.3274	3153.8396	3501.5056
C1OC23C4CC2(C4)NC13	C1O[C@]23[C@H]4C[C@@]2(C4)N[C@H]13	
InChI=1S/C7H9NO/c1-4-2-6(1)7(4)5(8-6)3-9-7/h4-5,8H,1-3H2	InChI=1S/C7H9NO/c1-4-2-6(1)7(4)5(8-6)3-9-7/h4-5,8H,1-3H2/t4-,5-,6-,7+/m1/s1
