20
gdb 78397	3.78207	1.27897	1.1221	3.1375	79.93	-0.2094	0.0602	0.2696	1162.058	0.1696	-403.057798	-403.049493	-403.048548	-403.089874	33.731	
C	-0.2332176603	 1.243954703	-0.0632880647	-0.333535
N	 0.0297365229	-0.1892838122	 0.0358354206	-0.131942
C	 1.4708754721	-0.5247315383	-0.1069833517	-0.041674
C	 0.8379587831	-0.5483867737	 1.2306788482	-0.041716
C	 1.012278254	-2.0848317883	 1.326366678	-0.175743
C	 1.6762481786	-2.0600328793	-0.0774611308	-0.175774
C	 0.4174141357	-2.8699224625	 0.1720036738	 0.415197
C	 0.6547906916	-4.3644047938	 0.2578980324	-0.427817
O	-0.8182869074	-2.6336256942	-0.4082269087	-0.468415
H	 0.5863875259	 1.8633146467	 0.3354175942	 0.104833
H	-0.3860041002	 1.5097143779	-1.1135772257	 0.132391
H	-1.1456010152	 1.4813709403	 0.491930644	 0.132385
H	 2.143471769	 0.1968072632	-0.5534141976	 0.099508
H	 0.9095950297	 0.1506982261	 2.0543619567	 0.099508
H	 1.3774912998	-2.5580368121	 2.2306844072	 0.084388
H	 2.6132919417	-2.51189593	-0.3821931706	 0.084383
H	 1.6219744192	-4.5977331984	 0.7110920607	 0.109187
H	-0.1354793113	-4.8282671134	 0.8554425669	 0.125625
H	 0.6212595724	-4.8000293677	-0.7450267276	 0.125625
H	-0.8955622811	-1.6590654933	-0.4274572153	 0.283584
178.4748	192.0053	208.4848	242.3095	280.6694	317.4867	361.6656	382.7089	433.7772	565.6125	598.4981	683.0502	729.2841	737.721	786.1344	790.915	837.1729	858.6015	861.8456	948.226	964.2861	1004.1601	1016.7489	1024.1936	1034.702	1096.1517	1109.6562	1137.4358	1141.2127	1157.0813	1235.1379	1242.3002	1281.8128	1292.679	1312.0671	1389.1792	1413.3007	1453.7208	1478.7163	1482.0107	1495.4294	1499.7134	1512.2524	2974.8933	3042.7308	3074.2554	3110.9317	3113.7811	3122.0238	3166.8284	3176.151	3187.9057	3201.0913	3506.4209
CN1C2C1C1C2C1(C)O	CN1[C@H]2[C@@H]1[C@@H]1[C@H]2[C@]1(C)O	
InChI=1S/C7H11NO/c1-7(9)3-4(7)6-5(3)8(6)2/h3-6,9H,1-2H3	InChI=1S/C7H11NO/c1-7(9)3-4(7)6-5(3)8(6)2/h3-6,9H,1-2H3/t3-,4+,5-,6+,7+,8?
