23
gdb 115953	2.95009	1.28633	1.04125	1.0551	85.	-0.2438	0.0759	0.3197	1254.7246	0.207463	-388.286661	-388.277911	-388.276967	-388.320404	33.726	
C	-0.2413770725	 1.3133708296	 0.1123719832	-0.235134
O	 0.2360012725	 0.0017822109	-0.0704897384	-0.245237
C	 0.722104116	-0.6092069349	 1.1073120094	 0.149852
C	-0.3550555455	-0.9866428977	 2.1502007762	-0.248969
C	 0.3304928252	-2.0774789507	 2.991557943	-0.225029
C	 1.1518392357	-2.8906079182	 1.9760848311	 0.000259
C	 0.3370693289	-3.8306846573	 1.037522111	-0.22492
C	 0.6249746911	-2.8918042784	-0.1681136056	-0.216976
C	 1.4217977853	-1.9337748718	 0.7630752804	-0.041733
H	 0.5267039902	 1.9680756416	 0.5549528914	 0.10021
H	-0.5071441957	 1.7023111978	-0.8740358615	 0.123918
H	-1.1334028604	 1.3501485117	 0.7550382543	 0.105347
H	 1.4532298759	 0.0654644692	 1.5875225348	 0.056691
H	-0.6949641945	-0.1380282628	 2.7499396808	 0.092377
H	-1.2293613675	-1.3882656204	 1.6235233453	 0.106766
H	 1.0005595658	-1.6131089912	 3.7254936173	 0.094054
H	-0.3802007369	-2.6942958665	 3.5515615145	 0.094954
H	 2.0251273311	-3.3631991635	 2.4303534887	 0.059086
H	 0.7497989287	-4.8378025858	 0.9400787621	 0.094554
H	-0.719691712	-3.9270556781	 1.3064533033	 0.092366
H	 1.2346160147	-3.346040797	-0.9523585551	 0.095091
H	-0.2479685232	-2.4367255091	-0.6393842778	 0.110915
H	 2.4611003469	-1.7749072673	 0.4703434114	 0.061558
65.4582	94.4292	153.6892	200.2427	221.3544	314.2969	345.814	403.3906	498.6588	580.3838	600.0656	736.4009	751.2421	818.6986	825.3536	869.5885	892.9276	943.5191	959.5789	962.8913	988.6509	1016.5874	1025.4041	1067.9486	1112.3021	1137.929	1159.5759	1177.7755	1182.4175	1190.215	1215.8043	1229.7347	1237.409	1258.0971	1270.032	1277.7552	1301.269	1318.2635	1340.9739	1342.9653	1364.1427	1389.9798	1478.5324	1481.4079	1484.7792	1489.7467	1493.7321	1505.5168	1510.8583	2936.8409	2971.9796	3021.2883	3027.5723	3038.3098	3046.8221	3069.4505	3073.3403	3075.6046	3089.1865	3094.1689	3098.6058	3108.2798	3126.4671
COC1CCC2CCC12	CO[C@H]1CC[C@H]2CC[C@@H]12	
InChI=1S/C8H14O/c1-9-8-5-3-6-2-4-7(6)8/h6-8H,2-5H2,1H3	InChI=1S/C8H14O/c1-9-8-5-3-6-2-4-7(6)8/h6-8H,2-5H2,1H3/t6-,7-,8+/m1/s1
