19
gdb 65715	3.65262	1.07543	0.98917	4.1553	76.22	-0.2683	0.0072	0.2755	1247.8489	0.157897	-423.02032	-423.011741	-423.010796	-423.053411	32.717	
C	-0.0543504365	 1.6606578325	 0.1001403474	-0.445057
C	 0.0427326395	 0.144731515	 0.0243794444	 0.397955
C	 1.0862436104	-0.5291618768	-0.9387338863	-0.298968
C	 1.6668743345	-1.2960850297	 0.256851489	-0.037892
C	 2.1531559368	-0.3288577645	 1.2939587548	-0.294045
C	 0.6779908295	-0.6076605058	 1.1980261008	-0.075872
O	-1.283775983	-0.4218054266	-0.1331232215	-0.236216
C	-1.9178802774	-0.2577196265	-1.3053539064	 0.15447
O	-3.0313245726	-0.6519084082	-1.4961297735	-0.280251
H	 0.9187999854	 2.0994547547	 0.3340242158	 0.126335
H	-0.3941462432	 2.0921317892	-0.8469171424	 0.12247
H	-0.7623178308	 1.950612963	 0.8824400566	 0.136865
H	 0.5976568886	-1.1758800824	-1.6687918783	 0.121152
H	 1.7730165445	 0.1440828526	-1.4624253925	 0.100373
H	 1.9781663597	-2.3323907875	 0.2391262278	 0.095134
H	 2.6360528503	-0.7720871306	 2.1587337205	 0.121438
H	 2.5695623588	 0.6328340039	 1.0036597872	 0.108481
H	 0.1024710465	-1.0127945939	 2.020532146	 0.10252
H	-1.311993011	 0.2637236017	-2.0692427394	 0.081108
93.0098	154.9684	188.4737	196.3419	236.0118	288.6071	367.7645	377.1156	429.8774	471.3912	582.9095	699.7978	770.5953	795.048	843.0164	867.263	936.1827	957.739	967.5726	989.6793	993.585	1044.4041	1054.6006	1067.1671	1088.526	1136.7477	1159.9332	1166.8299	1194.2403	1216.3961	1251.9454	1265.0252	1313.6852	1362.4156	1412.445	1434.2189	1473.9295	1487.2965	1490.5718	1501.9435	1855.8006	2964.0963	3041.6046	3048.9965	3109.9173	3112.3248	3123.575	3126.546	3192.1891	3196.1667	3208.2145
CC1(CC2CC12)OC=O	C[C@]1(C[C@H]2C[C@@H]12)OC=O	
InChI=1S/C7H10O2/c1-7(9-4-8)3-5-2-6(5)7/h4-6H,2-3H2,1H3	InChI=1S/C7H10O2/c1-7(9-4-8)3-5-2-6(5)7/h4-6H,2-3H2,1H3/t5-,6-,7-/m1/s1
