21
gdb 52837	2.18967	1.1187	1.01317	1.7909	87.71	-0.242	0.0492	0.2912	1371.3547	0.180266	-387.064573	-387.054161	-387.053217	-387.100637	37.797	
C	-0.1440025741	 1.4186321946	 0.0147742224	-0.500527
C	-0.0705904563	-0.03673041	 0.0028437854	 0.039333
C	 0.0287716955	-1.2395770426	 0.000018365	 0.057111
C	 0.085972447	-2.6963602437	-0.0199564388	 0.081848
C	 1.0374855361	-3.2114298366	-1.1013335399	-0.45942
C	 0.2271360577	-3.2910635386	 1.4262440774	-0.252818
C	-1.3173608058	-3.365918211	 1.5323122143	-0.259663
C	-1.3830891132	-3.2833148891	-0.014467381	 0.140824
O	-2.406151651	-2.5794862771	-0.6502438339	-0.43246
H	 0.8432089858	 1.8617795908	 0.1861473286	 0.151531
H	-0.5206272399	 1.8081778584	-0.9373506315	 0.150443
H	-0.8093316276	 1.7788460276	 0.8071731828	 0.148597
H	 2.0568020259	-2.8474819102	-0.9381006153	 0.121601
H	 1.0595478959	-4.3061600922	-1.0975237111	 0.110451
H	 0.7140123846	-2.8768136958	-2.0918384776	 0.129405
H	 0.6886677816	-4.2819089267	 1.3887048509	 0.10102
H	 0.7573278423	-2.6782852625	 2.1559637227	 0.106402
H	-1.7631307074	-4.2387346957	 2.0136443795	 0.098081
H	-1.7315969539	-2.4596706492	 1.9833100863	 0.105061
H	-1.3690152934	-4.2836829734	-0.4594118444	 0.086155
H	-2.2703446498	-1.6438319769	-0.4480814917	 0.277025
34.0088	89.4423	91.6592	146.2388	203.4233	241.6952	262.3978	295.5403	316.6086	378.2507	421.8338	458.1578	501.9836	584.7311	615.3797	645.5907	769.7445	829.958	878.6281	940.4751	954.0082	998.8928	1051.7014	1054.8857	1068.6481	1094.0996	1122.4623	1147.4671	1172.2806	1199.983	1226.5175	1251.8535	1261.9719	1322.7776	1346.2613	1404.0356	1415.001	1442.2959	1476.7027	1478.3776	1479.4534	1488.1961	1490.2884	1496.5585	2350.4008	3027.4549	3030.9385	3057.072	3063.7325	3064.4062	3088.2945	3088.9794	3102.8645	3108.6647	3116.8534	3131.5999	3745.9603
CC#CC1(C)CCC1O	CC#C[C@@]1(C)CC[C@H]1O	
InChI=1S/C8H12O/c1-3-5-8(2)6-4-7(8)9/h7,9H,4,6H2,1-2H3	InChI=1S/C8H12O/c1-3-5-8(2)6-4-7(8)9/h7,9H,4,6H2,1-2H3/t7-,8+/m1/s1
