21
gdb 82295	2.31157	1.68752	1.34264	1.3625	77.13	-0.237	0.0711	0.3081	1070.4235	0.181192	-424.218382	-424.209247	-424.208303	-424.251688	35.745	
C	 0.144850013	 1.529822513	-0.1207320214	-0.405155
C	 0.0096411156	 0.020411951	 0.0157206682	 0.328478
C	-1.4595424498	-0.4192328657	 0.0068849257	-0.413575
O	 0.6701819317	-0.5807508457	-1.1292555933	-0.298778
C	 1.213792152	-1.815707395	-0.7546466206	 0.100271
C	 2.5879336976	-1.7404261209	-0.1554491225	-0.332614
C	 1.3591028035	-1.8576589836	 0.7381312722	-0.096101
C	 0.7378992551	-0.5715562702	 1.275160427	 0.068359
O	 1.6451726247	 0.309092023	 1.9151690469	-0.430512
H	 1.1949645206	 1.8256039632	-0.1458748224	 0.110139
H	-0.3358178371	 1.8660526769	-1.0440111522	 0.116269
H	-0.3284725027	 2.0357149347	 0.7251686027	 0.119874
H	-1.925248236	-0.1481963494	-0.9445187664	 0.121962
H	-1.5415213043	-1.5045299069	 0.1295383953	 0.113741
H	-2.0190504301	 0.0577720662	 0.8182008614	 0.114197
H	 0.8980981975	-2.6631661246	-1.3556499279	 0.094978
H	 3.2350636601	-2.6095670538	-0.204380877	 0.116466
H	 3.1026562599	-0.7894193169	-0.2573827606	 0.11292
H	 1.2355299447	-2.7740307994	 1.3016323466	 0.095497
H	-0.008493933	-0.8064246402	 2.0399371901	 0.083072
H	 2.4956477871	 0.2365632344	 1.4705303081	 0.280514
68.7912	175.7363	201.0458	245.6669	252.7247	262.9083	314.7458	327.3543	375.6483	441.0348	497.3845	537.0271	649.2486	682.6798	768.4077	788.691	819.8565	877.4603	916.3282	935.5811	962.8581	989.9448	1008.411	1034.5878	1045.3836	1062.31	1099.3921	1109.0756	1146.2795	1177.2167	1198.3052	1208.9061	1257.569	1275.7632	1307.1614	1342.5232	1380.6722	1396.5086	1418.3672	1436.2139	1471.5526	1474.87	1482.1954	1494.4091	1501.7183	3032.8034	3050.8498	3064.0251	3101.8066	3114.9384	3121.897	3122.9593	3137.2332	3149.9568	3184.8974	3211.958	3820.1891
CC1(C)OC2CC2C1O	CC1(C)O[C@H]2C[C@H]2[C@H]1O	
InChI=1S/C7H12O2/c1-7(2)6(8)4-3-5(4)9-7/h4-6,8H,3H2,1-2H3	InChI=1S/C7H12O2/c1-7(2)6(8)4-3-5(4)9-7/h4-6,8H,3H2,1-2H3/t4-,5+,6-/m1/s1
