18
gdb 107837	3.34008	1.49785	1.29062	1.8765	69.94	-0.237	0.076	0.313	1009.2451	0.149225	-439.028959	-439.021608	-439.020663	-439.060698	29.279	
O	-0.0013400892	 1.407334068	 0.0020092145	-0.419437
C	 0.0149394001	-0.00474761	-0.0906769585	-0.156162
C	-1.3754100648	-0.571717664	 0.052202323	 0.370962
C	-2.1473549815	-0.4614911193	 1.3920063019	-0.202926
N	-2.6571132102	-1.8723250637	 1.2567087545	-0.155147
C	-3.1211481138	-2.027894208	-0.1548148363	-0.050195
C	-3.4110834069	-0.7840819651	-0.982379304	-0.116247
O	-2.1755172604	-0.060229107	-1.0174628266	-0.312886
C	-1.6781743602	-2.0879542466	 0.1281378263	-0.118639
H	-0.6636426831	 1.7092141621	-0.6308431111	 0.293783
H	 0.4435795869	-0.346525178	-1.0465904053	 0.095587
H	 0.6549441645	-0.3719920469	 0.7175441125	 0.112897
H	-1.491468541	-0.4135342695	 2.2640256585	 0.118782
H	-2.9141704859	 0.3154146048	 1.4668106566	 0.106517
H	-3.7059419717	-2.9265603379	-0.3136275334	 0.108901
H	-3.6996703382	-1.0437639064	-2.0068090999	 0.116075
H	-4.208892187	-0.1672355733	-0.5471852526	 0.109649
H	-1.0181020575	-2.9431650694	 0.0521022499	 0.098487
98.4657	161.9496	248.6456	329.4646	363.9785	423.6389	436.5932	464.4991	647.2594	685.6577	718.4491	779.357	792.1663	853.9492	893.5554	929.1254	952.1422	981.4246	991.4557	1039.035	1051.4194	1062.4092	1084.1469	1099.7638	1126.8553	1167.319	1199.2673	1223.2052	1246.5091	1253.7674	1272.1477	1335.538	1363.4011	1380.6189	1395.7512	1445.3471	1491.2711	1499.3143	1524.5279	2979.3469	3013.1819	3055.6536	3064.6336	3083.7024	3117.636	3182.5956	3194.3431	3797.7002
OCC12CN3C(CO1)C23	OC[C@@]12CN3[C@@H](CO1)[C@@H]23	
InChI=1S/C6H9NO2/c8-3-6-2-7-4(1-9-6)5(6)7/h4-5,8H,1-3H2	InChI=1S/C6H9NO2/c8-3-6-2-7-4(1-9-6)5(6)7/h4-5,8H,1-3H2/t4-,5-,6+,7?/m0/s1
