20
gdb 8210	2.69402	2.36638	1.55676	1.7564	74.37	-0.2459	0.0874	0.3333	910.1	0.176735	-349.024781	-349.01662	-349.015676	-349.056604	31.699	
C	-0.1132099349	 1.506456806	-0.0169704895	-0.486326
C	 0.1358290645	 0.0229853156	-0.0171255453	 0.362822
C	 0.3527753888	-0.7020981093	-1.3384083093	-0.27285
C	 0.7500523259	-2.1378865962	-0.9282572549	-0.214169
C	 1.4302585823	-1.9892816395	 0.4511548258	-0.27285
C	 0.7846893639	-0.7521574131	 1.0605484411	 0.362821
C	 1.3150927056	-0.1998314165	 2.3552751362	-0.486326
O	-0.6507389186	-0.7620248487	 0.9047665287	-0.343012
H	 0.7030395389	 2.0371037065	-0.5192144704	 0.118182
H	-1.0396947016	 1.736772806	-0.5548838312	 0.126379
H	-0.211563577	 1.8965298741	 0.9982856512	 0.126714
H	-0.536758716	-0.6764983891	-1.9768899707	 0.101644
H	 1.1615410981	-0.2026168438	-1.8874124241	 0.096311
H	-0.1497061679	-2.7477339472	-0.8251654495	 0.118045
H	 1.3951030715	-2.6224824828	-1.665194506	 0.093383
H	 1.3045887729	-2.8762093347	 1.0813542926	 0.101644
H	 2.5089056657	-1.8122056133	 0.350389938	 0.096311
H	 2.3827498334	 0.0304629671	 2.2705918157	 0.118181
H	 0.7840684133	 0.7071499362	 2.6518779478	 0.126714
H	 1.1965959812	-0.9347764574	 3.1593799938	 0.12638
168.6531	168.6617	191.5969	203.8974	250.7954	320.6602	338.5918	461.085	466.4355	546.2123	616.0779	685.4254	690.7819	805.8662	871.4103	895.6017	909.5404	928.9447	971.8256	1015.1003	1016.5623	1047.3335	1099.9193	1152.7532	1175.8421	1215.0593	1223.8058	1249.1019	1261.7894	1326.4614	1340.8167	1352.7741	1410.4147	1416.2926	1453.1938	1476.3396	1477.205	1478.5453	1487.6104	1495.6325	1499.8785	1518.3334	3025.3276	3026.8047	3033.6701	3036.7033	3066.6664	3072.6956	3077.3221	3092.5409	3093.3231	3117.9335	3122.6414	3129.2823
CC12CCCC1(C)O2	C[C@@]12CCC[C@]1(C)O2	
InChI=1S/C7H12O/c1-6-4-3-5-7(6,2)8-6/h3-5H2,1-2H3	InChI=1S/C7H12O/c1-6-4-3-5-7(6,2)8-6/h3-5H2,1-2H3/t6-,7+
