19
gdb 98282	2.83	0.95065	0.83444	1.4219	72.24	-0.2648	-0.0335	0.2313	1426.772	0.156342	-460.15314	-460.143236	-460.142292	-460.189466	34.92	
C	 0.6392010598	 2.0077288597	 0.3125515948	-0.400854
C	 0.2570576696	 0.5303632022	 0.1054617414	-0.129337
C	 0.8746098842	-0.0057553395	-1.176994785	 0.104075
C	 0.1698406942	-0.9473412675	-2.0551265444	-0.18533
O	 0.2743270506	 0.4401923504	-2.3892561587	-0.237074
C	 0.7439457936	-0.312147152	 1.2741183914	 0.36656
O	 1.920978212	-0.4045116543	 1.5586089316	-0.341626
C	-0.2818667002	-1.0657201748	 2.1021819285	-0.139933
O	 0.3153761901	-1.7863161568	 3.1339040884	-0.417787
H	 1.7199538538	 2.1023243351	 0.4470929713	 0.142638
H	 0.3368030136	 2.5909914987	-0.5606870405	 0.14139
H	 0.1468246738	 2.4251040347	 1.1958650682	 0.122047
H	-0.8325854773	 0.4422520251	 0.0225330696	 0.088702
H	 1.9647286043	-0.0097913949	-1.1814868184	 0.115445
H	 0.7371129747	-1.6257765097	-2.6898620843	 0.124701
H	-0.8307966581	-1.2870569014	-1.7898593463	 0.115405
H	-1.0124182824	-0.3328281356	 2.487255849	 0.119326
H	-0.8472162973	-1.7245225298	 1.4194562452	 0.116289
H	 1.2665958712	-1.6122396499	 3.0436185183	 0.295363
20.5278	75.2762	115.8971	172.0263	197.2648	227.8534	239.4265	316.5703	351.292	392.3566	429.6661	482.1717	565.1194	711.2021	808.6595	844.4253	875.6435	938.1364	967.7988	987.44	1040.009	1069.9449	1103.9804	1114.9763	1150.2181	1162.2519	1175.5919	1184.8298	1244.0967	1288.2319	1295.4195	1311.7356	1354.1953	1399.702	1434.5212	1449.4811	1486.2577	1497.5745	1499.0255	1530.376	1789.391	2959.0517	2972.2921	3042.9087	3045.8729	3085.0773	3116.8656	3119.6576	3133.253	3173.3337	3677.4126
CC(C1CO1)C(=O)CO	C[C@@H]([C@H]1CO1)C(=O)CO	
InChI=1S/C6H10O3/c1-4(5(8)2-7)6-3-9-6/h4,6-7H,2-3H2,1H3	InChI=1S/C6H10O3/c1-4(5(8)2-7)6-3-9-6/h4,6-7H,2-3H2,1H3/t4-,6-/m1/s1
