21
gdb 83366	2.09742	1.89791	1.5345	1.6099	76.4	-0.2378	0.0623	0.3001	1006.112	0.184145	-424.23909	-424.230881	-424.229937	-424.271117	33.174	
C	-0.1469132609	 1.5341243878	 0.0298434414	-0.441456
C	 0.0580793731	 0.0232382854	 0.0119751176	-0.000911
C	 1.0733504338	-0.5754520843	-0.9767753159	 0.093359
C	 2.4317668282	-0.0258351321	-0.4917715384	-0.222232
C	 2.2416334028	-0.0251599885	 1.0568209074	-0.281362
C	 0.8084204534	-0.5917009904	 1.2179311738	 0.372554
O	 0.1811475555	-0.3597595747	 2.4533661579	-0.501601
C	 0.8419824611	-2.065456035	 0.7581986725	-0.121708
O	 1.0322986403	-1.9809308647	-0.6635859904	-0.280856
H	 0.7924380865	 2.0914111996	 0.0794161254	 0.116365
H	-0.679881621	 1.8634564972	-0.8679199648	 0.114889
H	-0.7460210411	 1.8174808187	 0.900399666	 0.134637
H	-0.9107440059	-0.4720007475	-0.1130570534	 0.08083
H	 0.8719920356	-0.4622961572	-2.0427418471	 0.071884
H	 3.2406587385	-0.6789430494	-0.8252914689	 0.108159
H	 2.6291769735	 0.9775171071	-0.880139578	 0.100057
H	 2.9803422067	-0.6458048432	 1.5747452076	 0.091201
H	 2.2971195283	 0.9804138487	 1.4820142445	 0.104022
H	 0.7657271191	-0.6658302162	 3.1545428676	 0.279793
H	 1.6628951296	-2.6375802599	 1.2119623718	 0.083825
H	-0.106354367	-2.5684606415	 0.9885249135	 0.098551
164.908	196.4729	233.6515	240.4109	248.095	327.321	380.8145	410.8361	434.9624	546.4912	586.2987	610.6209	737.0232	759.3768	815.9429	859.2543	899.8029	920.0122	963.5964	977.1045	999.8879	1032.8052	1046.2526	1063.6938	1103.92	1129.1895	1146.7243	1169.0855	1200.4532	1217.7183	1238.2466	1260.408	1274.0857	1295.1623	1317.8505	1340.9984	1359.5473	1377.2604	1411.3833	1421.2711	1474.8987	1494.8672	1504.1397	1510.402	1531.828	2999.1592	3038.921	3041.5355	3046.7147	3053.971	3060.8015	3091.6701	3105.7745	3112.363	3114.1736	3119.5731	3810.6656
CC1C2CCC1(O)CO2	C[C@H]1[C@H]2CC[C@]1(O)CO2	
InChI=1S/C7H12O2/c1-5-6-2-3-7(5,8)4-9-6/h5-6,8H,2-4H2,1H3	InChI=1S/C7H12O2/c1-5-6-2-3-7(5,8)4-9-6/h5-6,8H,2-4H2,1H3/t5-,6+,7-/m0/s1
