16
gdb 124912	3.92792	1.5386	1.29427	3.6396	73.66	-0.2515	-0.0134	0.2381	980.8995	0.126506	-396.885628	-396.87868	-396.877735	-396.916848	26.934	
C	 0.0608055931	 1.5829711095	 0.0806932407	-0.496984
C	 0.0891827573	 0.0872324913	-0.0124122089	 0.196258
C	-0.8880395309	-0.8549580518	 0.692675758	-0.31108
C	 0.5854913458	-0.9667170992	 0.9883766107	-0.049272
N	 1.2748381118	-1.6279948079	-0.1372904391	 0.042882
N	 1.4573443767	-2.8666399395	-0.6815472423	-0.261222
C	 1.1801173161	-2.6055581513	-1.9564803679	 0.030899
N	 0.6909960646	-1.3456740652	-2.2493233287	-0.343217
C	 0.7663436408	-0.7841678438	-1.0622968757	 0.249517
H	 1.0597833882	 2.0075967784	-0.0562940739	 0.137588
H	-0.5942460019	 2.0060833202	-0.6879294314	 0.143711
H	-0.3184695758	 1.9046108684	 1.0552331091	 0.126609
H	-1.4943253711	-0.4015504306	 1.4735979671	 0.128238
H	-1.3823856753	-1.6469763405	 0.1396254142	 0.147921
H	 1.0569556275	-0.8500286966	 1.9544837791	 0.12922
H	 1.3470863931	-3.3460147015	-2.7263138508	 0.12893
151.6173	192.8914	197.3234	258.5864	361.5463	489.7461	505.3537	602.6038	664.6471	732.7937	755.5405	833.016	844.7676	905.5382	935.8165	971.1506	992.5088	1000.1824	1041.814	1079.2216	1108.0104	1113.1748	1149.2932	1206.7059	1226.7041	1265.4924	1276.2039	1347.0293	1393.6157	1413.5602	1431.8304	1483.8942	1485.7475	1497.9105	1565.7453	3038.3611	3104.3292	3112.9055	3118.4605	3208.6361	3217.5767	3247.8372
CC12CC1N1N=CN=C21	C[C@]12C[C@H]1N1N=C[N][C]21	
InChI=1S/C6H7N3/c1-6-2-4(6)9-5(6)7-3-8-9/h3-4H,2H2,1H3	InChI=1S/C6H7N3/c1-6-2-4(6)9-5(6)7-3-8-9/h3-4H,2H2,1H3/t4-,6+/m1/s1
