14
gdb 24045	4.12838	1.04446	0.94026	3.5702	69.92	-0.2253	0.0097	0.235	1223.5562	0.099673	-436.649749	-436.641729	-436.640785	-436.68353	29.001	
C	 0.0770898133	-0.9887975158	-0.6374057296	-0.474116
C	 0.1232932579	 0.125450311	-0.1902205382	 0.336994
C	 0.1849869356	 1.4821466083	 0.355953408	-0.314338
N	 1.5173053213	 2.0800718387	 0.2508452438	-0.35975
C	 1.8368646514	 2.5899373404	-0.8485366105	 0.542755
O	 1.0858259549	 2.6772124711	-1.997541116	-0.219383
C	 1.8637884309	 3.3388413387	-2.9305300395	-0.05516
C	 3.0332705778	 3.6358609067	-2.3774307734	-0.043768
O	 3.0486006703	 3.1780533583	-1.0756129328	-0.214165
H	 0.0361187926	-1.9739873545	-1.030821219	 0.196279
H	-0.5792995821	 2.0999206464	-0.1382940094	 0.132254
H	-0.0737946946	 1.4490644163	 1.4196713542	 0.139251
H	 1.4370923343	 3.5009754981	-3.9038992036	 0.165837
H	 3.9176650464	 4.1336484363	-2.7320150239	 0.167311
30.2522	96.6617	183.5002	209.7977	291.4008	325.3182	452.0922	566.6597	606.6997	621.4655	653.8963	712.167	718.6511	754.8508	799.0843	863.5724	910.7072	939.5578	1009.5429	1044.6616	1092.0871	1118.0315	1132.5475	1201.8739	1277.7386	1361.2405	1367.3338	1484.1852	1680.2413	1819.2273	2237.9305	2996.0285	3059.6327	3299.4487	3325.4937	3507.7139
C#CCN=C1OC=CO1	C#CCN=c1occo1	
InChI=1S/C6H5NO2/c1-2-3-7-6-8-4-5-9-6/h1,4-5H,3H2	InChI=1S/C6H5NO2/c1-2-3-7-6-8-4-5-9-6/h1,4-5H,3H2
