16
gdb 127660	2.56092	1.82777	1.08075	1.0054	75.7	-0.2424	-0.0698	0.1726	1074.7086	0.124631	-434.109761	-434.101366	-434.100422	-434.143129	30.046	
C	-0.0176515659	 1.4457476919	 0.0002937505	-0.319887
N	-0.0051862898	-0.0126825711	 0.0055189088	-0.046473
N	-0.0346971954	-0.6253655165	-1.1914675661	-0.206087
C	-0.0228965339	-1.9258405691	-1.1689099909	 0.064771
N	 0.0158560135	-2.7262023974	-0.0609926008	-0.298086
C	 0.0445842637	-2.1359703989	 1.097702533	 0.228741
C	 0.0881783899	-2.9277397753	 2.3634062059	-0.464785
C	 0.0362976065	-0.6672568043	 1.231112634	 0.383069
O	 0.0622743872	-0.0544701013	 2.2874989262	-0.391708
H	 0.8797113129	 1.8270460062	 0.4940769079	 0.15662
H	-0.0548715879	 1.7680564589	-1.0382739816	 0.152828
H	-0.8864937784	 1.8117293852	 0.5530223386	 0.156795
H	-0.0470843967	-2.4186041528	-2.1335173973	 0.136264
H	 0.0870778811	-3.9946393904	 2.1404147881	 0.14037
H	 0.9792508178	-2.6631832317	 2.9431755791	 0.153769
H	-0.7674954647	-2.6721639134	 2.9978248946	 0.1538
80.1005	108.1628	120.6044	222.6912	268.7121	280.5439	322.0316	472.9526	511.3387	540.532	558.8464	616.9027	709.5958	791.9863	901.3183	924.8479	934.5318	1002.4062	1045.7387	1060.6218	1148.8277	1217.3638	1285.9691	1298.8427	1333.539	1403.447	1407.0919	1438.0989	1456.9787	1462.5552	1471.6296	1500.4248	1546.1884	1633.893	1752.3411	3043.0881	3059.5858	3095.2003	3123.3912	3159.1391	3183.5783	3211.2146
CN1N=CN=C(C)C1=O	Cn1ncnc(C)c1=O	
InChI=1S/C5H7N3O/c1-4-5(9)8(2)7-3-6-4/h3H,1-2H3	InChI=1S/C5H7N3O/c1-4-5(9)8(2)7-3-6-4/h3H,1-2H3
