16
gdb 23425	2.72159	1.28679	1.06463	1.1778	79.18	-0.2334	0.0075	0.2409	1151.3144	0.122637	-400.638697	-400.630424	-400.629479	-400.671605	31.767	
O	-0.1468612244	 1.314163241	-0.0148633328	-0.392311
N	 0.0218447249	-0.0821743446	 0.0525982549	-0.263277
C	-1.0928794883	-0.674658341	-0.043497564	 0.456406
C	-2.5617540184	-0.2587908553	-0.0751550368	-0.341399
C	-2.9063208314	-1.753905781	 0.0722386993	-0.073886
C	-2.3354544855	-2.5489287946	-1.0752039242	-0.213351
C	-2.2239035308	-2.0474244258	-2.4161910069	 0.331666
C	-2.1394233124	-1.6325296768	-3.5417993826	-0.443118
C	-1.4107338566	-2.1231406485	 0.0706527342	-0.169331
H	 0.7579510743	 1.6302670267	 0.0781452784	 0.30692
H	-2.81994878	 0.3383949274	 0.8033644733	 0.131852
H	-2.9227818024	 0.2425100678	-0.9760210773	 0.134678
H	-3.6913349541	-2.1583851424	 0.6976611956	 0.104903
H	-2.5755440637	-3.6081312698	-1.0139313589	 0.122549
H	-2.055112	-1.2660944737	-4.5347542624	 0.198498
H	-0.8623948412	-2.8627938595	 0.6395315403	 0.109199
70.4442	151.1564	186.2388	215.7379	310.0427	360.7571	386.2334	477.1477	519.1562	556.7143	602.3771	625.948	657.8892	709.1713	757.2076	804.3663	851.9918	920.2756	939.822	966.1507	979.1349	1013.779	1040.9271	1068.01	1132.7336	1160.3362	1171.8464	1231.608	1291.3077	1311.556	1398.9053	1414.2453	1464.3961	1790.0973	2237.0855	3069.0778	3121.1421	3136.0138	3197.2363	3207.1004	3504.2965	3821.5673
ON=C1CC2C(C#C)C12	ON=C1C[C@H]2[C@@H](C#C)[C@@H]12	
InChI=1S/C7H7NO/c1-2-4-5-3-6(8-9)7(4)5/h1,4-5,7,9H,3H2	InChI=1S/C7H7NO/c1-2-4-5-3-6(8-9)7(4)5/h1,4-5,7,9H,3H2/t4-,5+,7-/m1/s1
