15
gdb 128152	2.40025	1.49719	0.93003	3.4247	80.96	-0.2012	-0.0261	0.175	1199.4831	0.112953	-412.951768	-412.943142	-412.942198	-412.985308	31.199	
C	-0.0914058803	 1.4723400696	 0.0891897849	-0.324686
N	-0.0309351074	 0.0455613799	-0.1903189793	-0.410337
C	-1.1643722515	-0.7146378936	-0.0724129781	 0.250797
C	-1.2781130742	-2.1044439044	-0.0055221965	 0.182892
N	-2.6375306082	-2.288406163	 0.0428312412	-0.281992
N	-3.2990897631	-1.1381297379	 0.0149849271	-0.109156
N	-2.4126796201	-0.1735937221	-0.051321128	-0.257123
C	-0.3212123142	-3.1256681354	 0.0153077392	 0.267056
C	 0.5218364863	-3.9884350317	 0.0389405866	-0.450199
H	 0.8769550283	 1.9159692545	-0.1524885215	 0.12215
H	-0.854763014	 1.9331603453	-0.5406068666	 0.159578
H	-0.3377826809	 1.6993194382	 1.1362809621	 0.121485
H	 0.8121836747	-0.4226062056	 0.1045054513	 0.24703
H	-3.1419178084	-3.1591301912	 0.0987934722	 0.284495
H	 1.2616898031	-4.7499851324	 0.0495397353	 0.198008
86.8114	115.7619	138.9838	172.4466	228.0234	322.6529	391.8289	467.2403	486.2879	509.718	537.3566	573.0118	620.5976	693.9645	701.9721	760.2608	766.4073	1004.4955	1081.6618	1135.551	1139.9325	1156.8419	1218.1746	1232.8119	1331.129	1373.0247	1448.6866	1473.099	1484.5362	1515.899	1541.8708	1637.0072	2220.0944	3003.1648	3096.7195	3140.3557	3500.4142	3616.9097	3654.7168
CNC1=C(NN=N1)C#C	CNc1c([nH]nn1)C#C	
InChI=1S/C5H6N4/c1-3-4-5(6-2)8-9-7-4/h1H,2H3,(H2,6,7,8,9)	InChI=1S/C5H6N4/c1-3-4-5(6-2)8-9-7-4/h1H,2H3,(H2,6,7,8,9)
