19
gdb 32206	2.70106	1.4398	1.01355	2.0708	86.65	-0.2076	-0.0073	0.2004	1201.4058	0.16195	-382.146965	-382.138579	-382.137634	-382.179767	32.561	
C	-0.044728847	 1.5541597243	 0.1119147582	-0.373042
C	-0.0524737102	 0.0187771538	-0.0190817147	-0.317035
C	 0.6753804925	-0.4880051082	-1.2416508659	 0.24108
C	-0.0008648018	-0.8319070839	-2.4036835109	-0.149738
C	 0.6906284919	-1.2995804675	-3.5210901075	-0.143249
C	 2.0696339194	-1.4071552921	-3.4210795094	-0.007057
N	 2.7595469222	-1.0823590232	-2.3251792482	-0.333936
C	 2.083292202	-0.6363506049	-1.2618720847	 0.295197
N	 2.8494507185	-0.3812427529	-0.1333116237	-0.567463
H	 0.9735026377	 1.9569867723	 0.1480098172	 0.11238
H	-0.5425463366	 2.0174048912	-0.7453119209	 0.125564
H	-0.563064318	 1.8731292884	 1.0216270857	 0.116836
H	 0.385194919	-0.4294457576	 0.8816746996	 0.110868
H	-1.0916786199	-0.3259079857	-0.0562495162	 0.105451
H	-1.0836707607	-0.7404315422	-2.4302387104	 0.092206
H	 0.174672955	-1.5739743177	-4.4333283831	 0.09032
H	 2.6594083565	-1.7696415293	-4.2601795527	 0.100778
H	 3.8369201709	-0.3360204688	-0.3398753525	 0.251392
H	 2.5303685485	 0.3471431943	 0.48478572	 0.249449
98.8965	121.8379	201.4929	219.9605	317.1956	348.4841	370.8588	441.0921	485.5589	531.5227	584.1321	601.3385	618.4246	736.504	793.6451	798.3	825.5322	887.124	965.223	970.5089	974.837	1044.3241	1058.3039	1079.9815	1110.3094	1162.8542	1214.791	1271.4376	1326.3271	1327.4123	1346.5885	1358.7568	1412.3037	1475.5156	1491.4213	1494.4398	1500.6947	1509.2913	1616.4895	1625.6773	1649.3705	3027.0726	3033.5863	3064.756	3100.0339	3111.5905	3149.437	3160.7539	3204.1374	3576.6672	3691.0445
CCC1=CC=CN=C1N	CCc1cccnc1N	
InChI=1S/C7H10N2/c1-2-6-4-3-5-9-7(6)8/h3-5H,2H2,1H3,(H2,8,9)	InChI=1S/C7H10N2/c1-2-6-4-3-5-9-7(6)8/h3-5H,2H2,1H3,(H2,8,9)
