19
gdb 37320	2.30708	2.30707	1.48338	2.3836	77.49	-0.2273	0.0581	0.2854	932.4964	0.163697	-382.008781	-382.002196	-382.001252	-382.039346	28.37	
C	-0.0145305593	 1.5486951568	 0.0554619088	-0.309095
C	 1.2879940834	 0.7976570361	-0.0255551551	-0.0249
C	-0.0456448554	 0.0458964295	-0.0329807525	-0.024899
C	-0.4805601426	-0.6640143429	-1.2817862727	-0.048009
N	-0.8851529905	 0.1360365474	-2.4463042439	-0.324616
C	 0.3661468313	-0.6303750905	-2.5202187775	-0.031183
C	 1.6743774073	 0.1070811792	-2.5129420593	-0.031179
N	 1.6658676922	 1.5740537454	-2.4321024114	-0.32462
C	 2.1310374591	 0.8081361558	-1.2672515761	-0.04801
H	-0.2795597051	 2.0095460026	 1.0004869507	 0.100375
H	-0.3130356203	 2.0870538619	-0.8358645326	 0.158964
H	 1.8656517206	 0.7147689429	 0.8893133196	 0.075266
H	-0.2815396405	-0.4955647584	 0.8773575222	 0.075265
H	-1.0229642747	-1.5889369603	-1.0996562885	 0.075856
H	-1.6169427311	-0.3377071661	-2.9676247437	 0.229057
H	 0.3707457941	-1.5294978756	-3.1323219851	 0.073407
H	 2.4463856388	-0.3594515172	-3.1207762524	 0.073408
H	 2.4544151155	 1.9573183579	-2.9449616569	 0.229058
H	 3.2015902673	 0.7923952055	-1.0761457438	 0.075856
186.1488	209.2657	325.251	449.6613	460.6294	478.2488	586.7771	603.7794	722.354	740.5018	744.0218	821.6847	830.9842	856.6418	870.5462	889.3593	909.7074	915.1643	952.6166	1016.0008	1033.0205	1053.8273	1075.8787	1082.5246	1094.9363	1122.7663	1130.5798	1149.2329	1180.1419	1184.7025	1208.9467	1222.474	1245.0737	1276.5448	1361.2279	1410.3407	1410.5515	1425.0534	1451.8405	1465.6725	1488.4365	3113.9059	3121.3441	3124.579	3136.2927	3139.1727	3151.8823	3162.0242	3240.0915	3510.6704	3511.5427
C1C2C1C1NC1C1NC21	C1[C@H]2[C@@H]1[C@H]1N[C@H]1[C@H]1N[C@@H]21	
InChI=1S/C7H10N2/c1-2-3(1)5-7(9-5)6-4(2)8-6/h2-9H,1H2	InChI=1S/C7H10N2/c1-2-3(1)5-7(9-5)6-4(2)8-6/h2-9H,1H2/t2-,3+,4-,5+,6-,7+
