22
gdb 106551	1.99681	1.48656	1.13413	2.8683	83.01	-0.2179	0.0684	0.2863	1226.886	0.193314	-404.265832	-404.256087	-404.255143	-404.300335	36.529	
C	-0.1170968658	 1.6097240347	 0.1785788116	-0.444704
C	 0.0418897295	 0.0987424273	 0.1692986084	 0.02836
N	 1.18044686	-0.5190399028	-0.6843591289	-0.184379
C	 2.0985814426	-0.1436904473	 0.4947625044	-0.214292
C	 0.8560557079	-0.6997661584	 1.2251725296	 0.30868
C	 0.6133545772	-0.848561553	 2.7042253843	-0.233226
O	 1.6350536935	-1.6886750158	 3.2250726688	-0.42126
C	 0.9302461017	-1.8117321391	 0.1384908396	 0.069668
C	-0.2185848253	-2.7264097148	-0.2455441875	-0.453045
H	-0.3368453325	 1.9584750295	-0.8362224752	 0.131829
H	-0.9662828569	 1.8867159722	 0.8131051298	 0.115822
H	 0.7563041843	 2.1573576188	 0.5378976712	 0.119465
H	-0.9231153242	-0.3366372736	-0.098651039	 0.065168
H	 3.014636919	-0.7373087928	 0.5367641963	 0.104949
H	 2.3262130677	 0.9195867596	 0.5639922468	 0.094672
H	 0.6240845177	 0.1442387676	 3.1838314843	 0.0878
H	-0.3875668656	-1.2808313118	 2.8714003306	 0.085819
H	 1.4941328085	-1.7833663446	 4.17155017	 0.289574
H	 1.8493052979	-2.4045245874	 0.1821765412	 0.076466
H	-0.0631229108	-3.103762935	-1.2618641768	 0.131567
H	-0.2334869049	-3.5886871461	 0.429612526	 0.122942
H	-1.2064466517	-2.2620814173	-0.2101395156	 0.118125
64.9625	140.6893	150.4655	154.8262	191.1479	237.2809	268.0543	276.8293	376.9221	426.9516	448.0147	579.2375	603.0353	653.7812	741.9067	766.7283	790.1178	861.9334	892.815	927.8231	1008.03	1030.9032	1061.3828	1067.5402	1084.9089	1105.2896	1133.7051	1151.2496	1160.0442	1171.8992	1194.404	1203.2329	1238.4433	1269.1265	1271.471	1325.7519	1399.618	1407.5203	1431.4933	1437.4532	1462.332	1492.5677	1494.9007	1497.05	1501.7035	1512.4096	1550.8546	2955.2199	2982.8985	3037.7164	3038.8996	3052.5984	3072.5476	3077.7919	3096.2528	3099.9552	3120.7946	3127.4207	3144.1639	3829.9302
CC1N2CC1(CO)C2C	C[C@H]1N2C[C@]1(CO)[C@H]2C	
InChI=1S/C7H13NO/c1-5-7(4-9)3-8(5)6(7)2/h5-6,9H,3-4H2,1-2H3	InChI=1S/C7H13NO/c1-5-7(4-9)3-8(5)6(7)2/h5-6,9H,3-4H2,1-2H3/t5-,6-/m1/s1
