20
gdb 16227	2.8798	2.14333	1.51493	0.0681	79.57	-0.2342	0.0291	0.2632	922.1917	0.17794	-311.871633	-311.863965	-311.863021	-311.903401	30.372	
C	-0.1542249784	 1.5540210761	-0.0204430737	-0.384261
C	-0.003617598	 0.0216785805	 0.0093862098	-0.113841
C	 0.8516695753	-0.4739336753	-1.1373560073	-0.060781
C	 2.026455178	-0.9538804307	-0.7342517009	-0.069682
C	 2.1764768258	-0.9020414475	 0.7665591673	-0.333788
C	 0.7611134994	-0.5280778392	 1.2335184958	 0.377028
C	 0.5040084097	-0.0482944175	 2.6359520668	-0.319
C	 0.0541791755	-1.4272052136	 2.2176806393	-0.308152
H	 0.821086368	 2.0451442415	 0.0570069076	 0.11649
H	-0.6201891409	 1.8794524461	-0.956854864	 0.108457
H	-0.7810289259	 1.9108055983	 0.8031028332	 0.11
H	-1.0111672007	-0.4140336727	-0.0360674412	 0.071694
H	 0.5316329333	-0.3844439076	-2.1704576141	 0.086684
H	 2.8111555028	-1.3214517051	-1.3866446802	 0.088842
H	 2.5145419259	-1.8546198333	 1.1935415753	 0.10096
H	 2.9264051362	-0.1524482964	 1.0602180011	 0.103421
H	 1.3514465721	 0.0322949341	 3.3098274168	 0.106316
H	-0.256725176	 0.7086706321	 2.796317544	 0.107654
H	-1.010509916	-1.5942081793	 2.0847473426	 0.106446
H	 0.5932234539	-2.2848670605	 2.6081495819	 0.105515
66.1547	212.1018	239.1345	257.7261	308.4096	329.8181	436.9853	520.2884	533.9706	727.9606	741.9394	768.1268	780.4791	859.3647	883.8823	923.977	951.8803	961.9725	976.8847	983.4	1021.8211	1038.8639	1055.9952	1079.2497	1093.2338	1105.5128	1135.0329	1184.189	1189.0075	1264.1742	1269.5953	1290.2865	1332.3355	1371.1368	1378.4888	1406.3319	1467.3269	1487.7329	1493.2992	1496.2848	1506.1411	1688.4501	2993.7643	3004.1872	3030.2344	3035.4683	3096.7454	3106.1761	3116.9012	3123.4509	3174.9425	3194.5408	3201.3215	3210.1336
CC1C=CCC11CC1	C[C@H]1C=CCC21CC2	
InChI=1S/C8H12/c1-7-3-2-4-8(7)5-6-8/h2-3,7H,4-6H2,1H3	InChI=1S/C8H12/c1-7-3-2-4-8(7)5-6-8/h2-3,7H,4-6H2,1H3/t7-/m0/s1
