13
gdb 133463	3.49797	1.17707	1.04033	4.3244	56.48	-0.2289	0.0242	0.2531	1087.631	0.087572	-547.155236	-547.147838	-547.146894	-547.188855	27.25	
F	 0.4703260655	 0.1574823465	 0.1664373371	-0.080588
C	-0.0289190273	 1.4002016234	 0.0235254812	 0.217202
F	 1.0114841395	 2.1835427345	-0.3199690121	-0.080605
F	-0.8711878155	 1.3734939019	-1.0246246656	-0.08152
C	-0.7090079817	 1.8773265735	 1.2533291964	 0.107252
C	-2.0305739223	 2.2507706389	 1.3394550887	-0.173369
N	-2.2637936549	 2.6245381358	 2.6320646465	-0.245375
C	-1.1143240393	 2.4973707378	 3.3747196296	-0.060982
C	-0.1259713827	 2.033287667	 2.5439017433	-0.261954
H	-2.8031923015	 2.2756458467	 0.589808737	 0.14399
H	-3.1476344624	 2.9468052229	 2.9856987456	 0.269749
H	-1.0994566463	 2.7461287077	 4.4232448209	 0.130937
H	 0.8964643289	 1.8262170033	 2.8169638114	 0.115263
17.4133	142.7839	177.5882	374.9347	389.7106	411.096	511.3779	550.5418	582.4485	641.4221	691.0579	706.1773	737.6525	801.3965	837.0854	907.4931	939.8566	1061.1687	1100.0773	1157.4651	1160.5595	1161.5569	1181.1249	1277.4164	1382.0695	1423.9852	1462.8064	1531.3386	1616.1767	3258.4595	3277.8797	3282.6216	3684.8938
FC(F)(F)C1=CNC=C1	FC(F)(F)c1c[nH]cc1	
InChI=1S/C5H4F3N/c6-5(7,8)4-1-2-9-3-4/h1-3,9H	InChI=1S/C5H4F3N/c6-5(7,8)4-1-2-9-3-4/h1-3,9H
