18
gdb 112056	2.81564	1.21826	0.89239	4.8368	76.62	-0.232	-0.0141	0.2179	1292.8593	0.147969	-435.280749	-435.271505	-435.27056	-435.315382	32.844	
C	-0.0311528484	 1.4415509157	-0.0128912639	-0.341845
N	-0.0001303336	-0.0115671359	 0.0377866795	-0.319724
C	 0.5424128065	-0.625986462	-0.9269999743	 0.412127
N	 1.1487186331	-0.118969179	-2.0851988661	-0.360129
C	 1.6426892744	-1.1829385565	-2.8239060391	 0.064097
N	 1.4264109822	-2.345191389	-2.3436317012	-0.269867
C	 0.6964110111	-2.1347038011	-1.0770638539	-0.103678
C	 1.4699978205	-2.792115972	 0.0756946425	-0.046149
O	 1.6234853485	-4.1748641265	-0.1459152374	-0.422833
H	 0.9783019261	 1.8807838417	-0.0525493491	 0.107962
H	-0.5912774362	 1.815409762	-0.8842320473	 0.110544
H	-0.5215928856	 1.8277780446	 0.8834932367	 0.132501
H	 1.2701465255	 0.8540538168	-2.3059189699	 0.266391
H	 2.1743732109	-0.989965844	-3.7506453878	 0.138328
H	-0.2843458725	-2.6193508725	-1.1463412062	 0.124403
H	 2.4410724726	-2.2831605084	 0.1884693122	 0.083771
H	 0.911589202	-2.6591659338	 1.0061625053	 0.129426
H	 1.9625215228	-4.2647427802	-1.0454441201	 0.294676
76.2311	92.0326	120.0478	121.1711	216.2236	252.8687	273.0421	343.2099	416.9317	462.7112	531.0445	615.0702	663.0928	721.5837	840.2926	894.2127	916.7729	945.2573	1034.8753	1056.8684	1081.4632	1092.2564	1093.8315	1109.3271	1162.5008	1203.5725	1211.8454	1277.2117	1299.5389	1349.0738	1381.5972	1403.0598	1428.0806	1436.537	1493.6075	1506.8365	1507.5032	1678.8868	1781.7397	2967.8163	2973.0158	3015.0613	3049.9415	3099.5503	3106.6897	3188.9347	3678.8699	3778.8936
CN=C1NC=NC1CO	CN=C1NC=N[C@H]1CO	
InChI=1S/C5H9N3O/c1-6-5-4(2-9)7-3-8-5/h3-4,9H,2H2,1H3,(H,6,7,8)	InChI=1S/C5H9N3O/c1-6-5-4(2-9)7-3-8-5/h3-4,9H,2H2,1H3,(H,6,7,8)/t4-/m0/s1
