17
gdb 45221	3.02428	1.94418	1.51143	4.5592	70.49	-0.2333	0.0315	0.2649	888.525	0.140094	-418.013121	-418.006727	-418.005782	-418.043822	26.277	
O	-0.0665542696	 0.0120201371	 0.3261390436	-0.375964
C	-0.0439538387	 1.1805078587	 0.0295194799	 0.394848
N	-1.1448901726	 1.9929390922	-0.222467841	-0.326556
C	-0.8021758284	 3.3850963922	-0.0134370326	-0.01401
C	-0.4510391061	 3.8440912669	 1.4524664191	-0.25847
C	 1.0750342616	 3.7810896495	 1.1253935663	-0.03977
C	 1.70723867	 2.377344199	 1.2524575255	-0.192976
N	 1.1276344395	 1.9850921951	-0.0852207131	-0.151752
C	 0.7074229167	 3.3938023426	-0.3387544317	 0.000467
H	-2.0445424894	 1.6201641921	 0.0409417271	 0.251363
H	-1.4572429	 4.0557166528	-0.5707083954	 0.091681
H	-0.7843296912	 4.866005482	 1.6502744188	 0.111057
H	-0.8090670111	 3.196979417	 2.2584181148	 0.106375
H	 1.6805338069	 4.6443616039	 1.3989500913	 0.078366
H	 2.8000741751	 2.3838092156	 1.2129624158	 0.118208
H	 1.3831570683	 1.7377435779	 2.0787767822	 0.125348
H	 1.0943153688	 3.8427349655	-1.2538593906	 0.081786
112.214	241.6052	341.97	402.7952	471.8116	527.0797	629.2476	642.051	724.077	766.2863	793.3894	809.6697	834.8082	882.0941	920.6994	934.2426	967.2581	994.7223	1033.5437	1051.0348	1078.4088	1110.3186	1138.0252	1164.4301	1189.4727	1218.6844	1228.2089	1234.6547	1263.2089	1284.0668	1315.4773	1325.8942	1360.1272	1400.7897	1470.7255	1512.7832	1848.3371	3050.1312	3054.7709	3095.9974	3101.5678	3106.3563	3110.9655	3122.6505	3627.6742
O=C1NC2CC3CN1C23	O=C1N[C@H]2C[C@H]3CN1[C@@H]23	
InChI=1S/C6H8N2O/c9-6-7-4-1-3-2-8(6)5(3)4/h3-5H,1-2H2,(H,7,9)	InChI=1S/C6H8N2O/c9-6-7-4-1-3-2-8(6)5(3)4/h3-5H,1-2H2,(H,7,9)/t3-,4-,5+/m0/s1
