15
gdb 70983	3.67871	1.31681	1.1429	2.742	65.39	-0.2352	-0.0449	0.1903	1043.5671	0.110239	-457.688009	-457.680322	-457.679378	-457.720464	29.153	
O	-0.1308379336	 1.3597498379	-0.0640600416	-0.452352
C	 0.0733413766	 0.0015472497	-0.0528729526	 0.33389
C	 1.0999713993	-0.8205077441	-0.8320643652	-0.331905
C	 0.2223960537	-2.0334765317	-0.4095699944	 0.32577
O	 0.3931009414	-2.1272067976	 1.0339058143	-0.329619
C	-0.3660856249	-0.921420879	 1.1130989979	 0.013529
C	-1.0086331308	-1.0459485298	-0.2301181787	-0.230447
C	 0.2291966071	-3.3426612979	-1.1285453655	 0.048313
O	 0.1943724619	-3.4380763808	-2.3288073471	-0.251334
H	 0.4787051197	 1.7697519396	 0.560360874	 0.294074
H	 1.0229757531	-0.6466127187	-1.9068055553	 0.136053
H	 2.1426886706	-0.8473930886	-0.5011910438	 0.103785
H	-0.7409587181	-0.5810616534	 2.0694687036	 0.118244
H	-2.0217969892	-1.0327821559	-0.6054547721	 0.122203
H	 0.2563025432	-4.2266724597	-0.4553828233	 0.099796
65.0048	146.7741	206.2663	278.6342	342.2594	364.2649	437.0238	492.772	530.0415	612.2261	689.0429	747.4901	791.7692	829.3368	837.7093	914.4289	948.9643	975.5045	1016.0276	1025.6748	1061.798	1080.1085	1096.4141	1125.4397	1189.6359	1216.8063	1295.0586	1296.7917	1304.421	1402.9817	1428.8598	1493.7955	1823.021	2906.5252	3055.6226	3136.6162	3207.9165	3225.2387	3791.1204
OC12CC3(OC1C23)C=O	O[C@@]12C[C@]3(O[C@@H]1[C@@H]23)C=O	
InChI=1S/C6H6O3/c7-2-5-1-6(8)3(5)4(6)9-5/h2-4,8H,1H2	InChI=1S/C6H6O3/c7-2-5-1-6(8)3(5)4(6)9-5/h2-4,8H,1H2/t3-,4-,5+,6-/m1/s1
