14
gdb 51309	3.44562	1.1076	0.84866	4.8873	66.11	-0.2611	-0.0829	0.1783	1266.7802	0.100009	-473.872328	-473.864158	-473.863214	-473.906534	27.988	
O	 0.0694989092	-0.0308866853	 0.0929082666	-0.238698
C	-0.0072879846	 1.1469794055	-0.0335180338	 0.169997
O	 1.1083882042	 1.9454879953	 0.1415412953	-0.218389
C	 0.9642213206	 3.2898874455	 0.0963223447	 0.325399
N	-0.1284440659	 3.9330957242	 0.1480697301	-0.274578
C	 0.1574238597	 5.3777117807	 0.0713964774	-0.174145
C	 1.6868871507	 5.5608182244	-0.0059914939	-0.351729
C	 2.2172631012	 4.1317331242	-0.0104662601	 0.329802
O	 3.3467127395	 3.7342588888	-0.083017451	-0.286154
H	-0.8996006517	 1.7287123572	-0.2984171783	 0.142074
H	-0.3608275346	 5.7839467826	-0.8029643607	 0.134969
H	-0.2843218008	 5.8593650248	 0.9489964542	 0.135631
H	 2.0211388952	 6.0824369968	-0.9068975852	 0.152272
H	 2.1005787673	 6.1008760153	 0.850595565	 0.153549
52.2693	79.4402	107.8943	160.7277	248.8948	311.2436	414.3085	484.7183	564.4538	645.1294	669.5944	739.2321	822.6759	835.9164	968.4459	1021.1003	1027.7234	1045.0835	1071.58	1095.992	1178.4614	1236.7397	1256.6226	1335.7783	1343.6109	1401.0816	1444.5023	1493.6412	1702.0956	1857.5283	1884.547	3055.0143	3070.2496	3073.2182	3085.7036	3113.6247
O=COC1=NCCC1=O	O=COC1=NCCC1=O	
InChI=1S/C5H5NO3/c7-3-9-5-4(8)1-2-6-5/h3H,1-2H2	InChI=1S/C5H5NO3/c7-3-9-5-4(8)1-2-6-5/h3H,1-2H2
