18
gdb 89670	2.80231	1.33023	1.09618	5.0234	78.37	-0.2529	-0.0019	0.251	1161.1375	0.145904	-401.931612	-401.922667	-401.921722	-401.964996	33.315	
C	-0.0776161356	 1.527948383	-0.0535334276	-0.416538
C	 0.1186286875	 0.030996242	 0.0339345196	 0.10597
O	 1.2110982625	-0.4665383005	-0.8064857662	-0.336932
C	 1.7489667468	-1.1925629344	 0.2956941183	 0.327487
C	 2.1912106603	-0.2464813464	 1.381258774	-0.385305
C	 0.7311506058	-0.622810474	 1.282863562	 0.174985
C	-0.0437708002	-1.2716231545	 2.3899372421	-0.492686
C	 2.2405229785	-2.517512584	 0.0997305454	 0.213132
N	 2.6365166086	-3.5968408658	-0.0340103082	-0.350936
H	 0.8116260651	 2.0725269219	 0.2736399825	 0.126034
H	-0.2964801134	 1.8173603339	-1.0859392868	 0.139495
H	-0.9246905608	 1.8323968285	 0.5702284322	 0.125771
H	-0.8010727304	-0.496606318	-0.2508116474	 0.095203
H	 2.7143312659	-0.7015578278	 2.2162505963	 0.138606
H	 2.5604845617	 0.7278520551	 1.0764737985	 0.13055
H	-0.4418758141	-0.5188670496	 3.0802930248	 0.132759
H	-0.8859683462	-1.8513988946	 1.9986844453	 0.133712
H	 0.590044678	-1.9488067349	 2.9700504752	 0.138694
109.7604	126.4742	170.1868	189.8961	209.2456	261.3109	311.3301	354.6086	456.8693	474.6685	565.8002	571.309	600.4404	694.478	726.4492	841.4834	868.9393	905.4941	956.934	973.5716	1055.7675	1063.3854	1083.0614	1101.1696	1131.4905	1148.5587	1228.2259	1262.3361	1320.1933	1367.7616	1399.4556	1414.1371	1428.9546	1483.4759	1485.5736	1487.3716	1493.2925	1496.5162	2345.6728	3022.1157	3030.5372	3041.9146	3092.9733	3110.6705	3111.217	3123.485	3126.9632	3218.9528
CC1OC2(CC12C)C#N	C[C@H]1O[C@]2(C[C@@]12C)C#N	
InChI=1S/C7H9NO/c1-5-6(2)3-7(6,4-8)9-5/h5H,3H2,1-2H3	InChI=1S/C7H9NO/c1-5-6(2)3-7(6,4-8)9-5/h5H,3H2,1-2H3/t5-,6+,7-/m1/s1
