20
gdb 83385	2.69747	1.7265	1.55535	1.875	78.66	-0.2097	0.0727	0.2824	970.5841	0.173073	-403.08054	-403.073152	-403.072208	-403.111733	30.842	
O	-0.0736301559	 1.5257746192	-0.0523126995	-0.448338
C	-0.0368850391	 0.1193818418	 0.0193863225	 0.111199
C	 0.0497608651	-0.6064915814	 1.3802201554	-0.071891
C	-1.078487736	 0.1221906799	 2.1698125476	-0.18594
C	-2.2162032105	 0.1542824758	 1.0699074177	-0.293179
C	-1.4217477758	-0.610378752	 0.0174880149	 0.318639
C	-1.6644793334	-1.5736512989	-1.1523721122	-0.341781
C	-0.5599264018	-2.4542167611	-0.4785854426	-0.188271
N	-0.7927329867	-1.7250367277	 0.8252805557	-0.143389
H	 0.8291556155	 1.8559413087	-0.0910683239	 0.283429
H	 0.6453067978	-0.2919566254	-0.728674686	 0.066674
H	 0.9786419017	-0.8228625555	 1.9128778765	 0.056968
H	-1.3713009644	-0.4499580494	 3.0512830193	 0.102593
H	-0.7704644444	 1.1255728754	 2.4685930806	 0.100111
H	-3.1085166227	-0.3926400998	 1.3799940254	 0.098765
H	-2.4855686275	 1.170752767	 0.7789631717	 0.109518
H	-2.6472790936	-2.0500554759	-1.1197678586	 0.114343
H	-1.4748629544	-1.1950857365	-2.1587608845	 0.103393
H	-0.781323446	-3.5189411851	-0.3739115985	 0.106037
H	 0.4305811322	-2.3536376889	-0.9354529716	 0.101119
199.6066	239.9365	247.0502	275.1419	301.576	359.4277	445.6658	523.3601	594.9225	684.9077	734.4933	767.527	817.3313	828.2018	842.9099	863.4618	868.3019	923.6649	931.289	965.1901	998.0895	1031.0891	1072.2527	1112.1597	1119.6636	1135.9922	1163.523	1174.8613	1200.1845	1215.9104	1220.2361	1252.1545	1256.602	1262.624	1273.8743	1299.313	1319.8651	1331.7191	1439.5388	1464.4043	1480.3331	1493.179	1511.7955	3029.741	3067.0092	3071.2309	3075.8104	3081.4478	3091.7141	3093.2576	3125.599	3126.802	3142.6804	3821.7769
OC1C2CCC11CCN21	O[C@H]1[C@H]2CC[C@]31CCN23	
InChI=1S/C7H11NO/c9-6-5-1-2-7(6)3-4-8(5)7/h5-6,9H,1-4H2	InChI=1S/C7H11NO/c9-6-5-1-2-7(6)3-4-8(5)7/h5-6,9H,1-4H2/t5-,6+,7-/m1/s1
