17
gdb 55788	4.65326	0.91847	0.77517	4.0259	73.33	-0.2105	0.018	0.2285	1410.9471	0.136706	-455.184762	-455.175919	-455.174975	-455.219057	31.936	
N	-0.2190145611	 1.4134738049	 0.0791240133	-0.570545
C	 0.0899965022	 0.0594918432	 0.0309644984	 0.455776
O	 1.2278658947	-0.3604725404	 0.0165030102	-0.366123
N	-1.0321244784	-0.7553993572	 0.0470547137	-0.449428
C	-1.0109432178	-2.1471193855	 0.0509645596	 0.370282
C	-0.0019118234	-3.0167914479	-0.000304795	-0.222232
C	-0.5618785713	-4.4090514728	 0.0100036193	-0.101488
O	-1.9841827652	-4.2569417646	 0.0927096626	-0.262089
C	-2.3262696381	-2.8862159497	 0.0993931524	-0.159646
H	 0.582064576	 1.9939466806	-0.1188269188	 0.266264
H	-1.0682595633	 1.7259422305	-0.3675605467	 0.249787
H	-1.9234665034	-0.3182110745	 0.2185280818	 0.249541
H	 1.0476592874	-2.7782289238	-0.0422374993	 0.134867
H	-0.3088358425	-4.9775358309	-0.8993282171	 0.102704
H	-0.2120860369	-5.0035315861	 0.8685540349	 0.104724
H	-2.9051145064	-2.6412745011	 1.0072105383	 0.098745
H	-2.9662893125	-2.6426895347	-0.7667546174	 0.098861
69.8875	80.0724	100.5661	164.5986	266.8784	332.9453	342.8271	388.3199	444.3169	499.6094	551.5835	604.6104	757.2572	770.156	785.1813	824.9729	920.9428	938.5883	982.9275	1003.3999	1029.5713	1067.3851	1103.6001	1133.7937	1166.7149	1222.9193	1253.7164	1269.075	1330.5033	1373.3738	1399.9477	1521.4376	1534.6397	1556.0203	1630.8951	1736.3441	1815.4346	2944.1482	2956.1883	2971.5655	2986.7151	3281.7819	3573.9439	3630.3212	3687.4365
NC(=O)NC1=CCOC1	NC(=O)NC1=CCOC1	
InChI=1S/C5H8N2O2/c6-5(8)7-4-1-2-9-3-4/h1H,2-3H2,(H3,6,7,8)	InChI=1S/C5H8N2O2/c6-5(8)7-4-1-2-9-3-4/h1H,2-3H2,(H3,6,7,8)
