19
gdb 105707	2.4751	1.1008	0.91631	4.5469	73.08	-0.2647	-0.0018	0.2628	1328.7184	0.15774	-460.164312	-460.154786	-460.153841	-460.199672	34.212	
O	 0.3897054121	 1.2175939859	-0.3275210677	-0.422061
C	 0.1199053716	-0.0980496576	 0.1147822908	-0.133332
C	-1.3628340618	-0.4391013303	 0.152881105	 0.33225
C	-2.130834282	 0.1770883962	 1.2960543013	-0.176407
O	-1.9999450889	 1.6161760501	 1.2898530736	-0.193382
C	-3.0485483886	 2.3551146518	 0.871762723	 0.181965
O	-2.9916691922	 3.5397064206	 0.7471889151	-0.270173
C	-2.0716235188	-0.6309623328	-1.1647010644	-0.28998
C	-1.7927241331	-1.8212267535	-0.2830353574	-0.319826
H	-0.0901382709	 1.8221847727	 0.250080165	 0.296947
H	 0.6265795263	-0.7626181232	-0.5929395191	 0.104565
H	 0.5605812429	-0.2883002715	 1.108582942	 0.085425
H	-3.1928802431	-0.0952109442	 1.2555955033	 0.110363
H	-1.7301010333	-0.1456063898	 2.2622355404	 0.128609
H	-3.9506513532	 1.7426343692	 0.678974409	 0.08255
H	-3.0999278679	-0.2959238698	-1.2556580628	 0.11092
H	-1.483935611	-0.502216009	-2.0663693108	 0.133926
H	-1.0171126687	-2.5179752166	-0.5819190482	 0.123479
H	-2.6281576694	-2.287387858	 0.2296415219	 0.114164
44.9237	66.4516	119.5568	154.6397	224.2253	257.9243	305.2339	320.492	400.4447	416.7735	459.5237	511.0301	673.0473	765.7039	783.5733	905.9128	928.8385	952.4364	966.4807	993.8238	1016.8373	1043.2607	1053.6787	1065.9946	1082.2473	1087.357	1144.0941	1185.7409	1212.212	1291.3544	1340.0765	1365.7197	1381.1805	1403.0968	1433.1257	1445.8217	1472.9719	1492.0611	1498.2533	1515.409	1869.8584	2951.556	2956.9462	3026.7476	3068.7755	3085.2042	3129.9582	3134.8636	3208.9944	3223.6891	3801.5602
OCC1(COC=O)CC1	OCC1(COC=O)CC1	
InChI=1S/C6H10O3/c7-3-6(1-2-6)4-9-5-8/h5,7H,1-4H2	InChI=1S/C6H10O3/c7-3-6(1-2-6)4-9-5-8/h5,7H,1-4H2
