17
gdb 65947	2.24019	1.54273	1.3661	1.8403	74.27	-0.2599	0.0215	0.2815	1051.6302	0.13252	-421.745155	-421.736277	-421.735333	-421.778638	33.151	
C	-0.2205404708	 1.5912663011	 0.1142317301	-0.436672
C	 0.0063313947	 0.0845724456	 0.0676546093	 0.096494
O	 1.1596170794	-0.2466682235	-0.768963039	-0.313175
C	 1.8294775255	-0.9675425334	 0.288843855	-0.155687
C	 0.7454467908	-0.5541688834	 1.2712044883	 0.343905
C	 0.7908500074	-0.1569765497	 2.6750574355	-0.258302
O	 0.1665843966	-1.3803749966	 2.2424119505	-0.251902
C	-1.1918155104	-0.6381319622	-0.3425418634	 0.358454
C	-2.1855336202	-1.2271615762	-0.6731964319	-0.462379
H	 0.6878274246	 2.0966940786	 0.4522680303	 0.120606
H	-0.4764208837	 1.956306758	-0.8839951415	 0.142044
H	-1.0445729472	 1.8352576212	 0.7910785438	 0.130925
H	 1.8665155675	-2.047679491	 0.1009377606	 0.123148
H	 2.8414555127	-0.5887039737	 0.4702602295	 0.112396
H	 1.7127993533	-0.2785908227	 3.2419862435	 0.12338
H	 0.10829563	 0.6044586845	 3.048591384	 0.125291
H	-3.0588691103	-1.7560572667	-0.9659993347	 0.201474
68.2211	120.3317	186.4657	210.128	222.9719	296.7441	317.243	381.437	450.5297	500.425	550.4098	623.2264	629.395	646.0562	670.725	862.4961	879.1625	884.0915	920.1684	949.6431	1011.3538	1071.7221	1109.8732	1123.5333	1138.098	1150.5788	1172.127	1206.7673	1235.0767	1322.1576	1399.0381	1449.422	1479.9246	1485.7462	1513.6122	1543.4657	2235.0426	3022.681	3044.3805	3071.9022	3085.7679	3123.5281	3128.2423	3174.417	3501.2611
CC1(OCC11CO1)C#C	C[C@]1(OC[C@]21CO2)C#C	
InChI=1S/C7H8O2/c1-3-6(2)7(4-8-6)5-9-7/h1H,4-5H2,2H3	InChI=1S/C7H8O2/c1-3-6(2)7(4-8-6)5-9-7/h1H,4-5H2,2H3/t6-,7+/m0/s1
