21
gdb 114527	2.44879	1.37007	1.04338	2.1587	77.99	-0.2503	0.0645	0.3149	1210.4524	0.182636	-424.184873	-424.175805	-424.17486	-424.218991	34.509	
O	-0.353274091	 1.5980586905	 0.4542684292	-0.428962
C	-0.0662409519	 0.2047434337	 0.5553898925	-0.10508
C	-1.3188142936	-0.5219464581	 0.0989001795	 0.049225
C	-1.671659957	-0.4765244907	-1.4209058074	-0.242239
C	-1.6651225629	-2.0220910795	-1.4705532479	-0.007713
C	-0.2620738307	-2.6425974886	-1.7334855233	-0.285069
C	-0.1158966002	-2.9091326996	-0.204839728	 0.134632
O	 1.0546704997	-2.5006485259	 0.4702434354	-0.426375
C	-1.3845656162	-2.0835299821	 0.0818066383	-0.090794
H	 0.4506963631	 2.0816082043	 0.6641033832	 0.282494
H	 0.7946400365	-0.0704407639	-0.0666131989	 0.090083
H	 0.1795364255	-0.0818776917	 1.5892083413	 0.08909
H	-2.145413124	-0.1292838474	 0.698802142	 0.082622
H	-2.647022985	-0.027463802	-1.6229503222	 0.097878
H	-0.9337252838	 0.0140205524	-2.0632889891	 0.095168
H	-2.511192197	-2.5275960814	-1.9359589257	 0.061684
H	-0.2372470431	-3.5340581269	-2.365462596	 0.093246
H	 0.4646001675	-1.9208075013	-2.1187675202	 0.098507
H	-0.33012263	-3.9668925147	 0.009662291	 0.068573
H	 1.7725667587	-3.0884335369	 0.2139996734	 0.282591
H	-2.0749606646	-2.5160203102	 0.8075702129	 0.06044
46.0658	118.0393	160.9042	216.2021	250.4041	261.2149	335.2314	355.1394	402.7353	425.5101	576.6043	604.0307	727.2093	767.0517	816.8878	862.6944	877.8322	906.9987	938.7725	973.9982	1011.4802	1048.1886	1062.7676	1074.3123	1096.757	1130.4386	1139.5894	1148.3639	1177.9536	1197.5429	1219.8451	1239.2011	1246.7813	1272.6969	1279.835	1286.6795	1300.7684	1334.4646	1342.3007	1363.3747	1425.4485	1456.0853	1476.4284	1488.493	1514.9039	2978.8936	2988.9111	3037.1682	3049.0984	3050.6406	3059.197	3089.0803	3096.861	3101.7483	3114.4813	3813.2744	3830.5259
OCC1CC2CC(O)C12	OC[C@H]1C[C@H]2C[C@@H](O)[C@@H]12	
InChI=1S/C7H12O2/c8-3-5-1-4-2-6(9)7(4)5/h4-9H,1-3H2	InChI=1S/C7H12O2/c8-3-5-1-4-2-6(9)7(4)5/h4-9H,1-3H2/t4-,5+,6+,7+/m0/s1
