18
gdb 77279	2.46002	1.11463	0.9628	4.1765	74.97	-0.2442	-0.0468	0.1974	1290.6278	0.143993	-439.066458	-439.056796	-439.055851	-439.102072	33.724	
C	 1.3965941146	 0.0326071838	-2.391160595	-0.431946
C	 0.9456250552	-0.7091852673	-1.1547320346	 0.012233
C	 1.7234092414	-1.8726296911	-0.5473881156	-0.130738
C	 2.9865224829	-2.3407301639	-1.1692659203	 0.148881
O	 3.8737043689	-1.6434876807	-1.6125586569	-0.270517
N	 1.5714650018	-0.5712493365	 0.1333407932	-0.114319
C	 2.7120133991	 0.3129191387	 0.3470095069	-0.2516
C	 3.1719255244	 0.2110427133	 1.7949579041	 0.155803
O	 4.195171912	 0.6908503893	 2.2044100138	-0.238023
H	 2.4764335352	-0.0149406759	-2.5325887548	 0.16382
H	 0.9114486131	-0.3932601232	-3.2748234541	 0.127905
H	 1.0940911474	 1.0836047786	-2.3251256809	 0.129698
H	-0.1360761555	-0.8266343993	-1.0818173777	 0.108075
H	 1.1503320426	-2.6749062311	-0.0870379147	 0.103705
H	 3.0728630481	-3.4490741102	-1.2024230947	 0.091361
H	 3.5691898106	 0.1420925485	-0.3121873573	 0.170007
H	 2.3721867991	 1.3456850454	 0.191872173	 0.139125
H	 2.4642858091	-0.3370943985	 2.4571347857	 0.086529
38.115	69.9393	126.1709	177.9708	196.0025	210.9721	226.752	297.305	367.8026	418.4552	487.453	546.0663	674.4788	743.1247	781.2869	827.4428	857.9867	957.0277	997.2863	1043.5156	1051.6876	1065.0109	1109.6366	1117.0182	1160.8932	1177.1032	1257.7294	1331.4379	1349.7437	1381.7558	1400.4553	1404.8478	1423.2566	1433.6813	1452.3122	1496.6633	1501.0511	1787.3011	1841.3727	2884.536	2890.8031	3027.9942	3042.4573	3087.7249	3096.8344	3101.3257	3130.603	3155.2245
CC1C(C=O)N1CC=O	C[C@H]1[C@@H](C=O)N1CC=O	
InChI=1S/C6H9NO2/c1-5-6(4-9)7(5)2-3-8/h3-6H,2H2,1H3	InChI=1S/C6H9NO2/c1-5-6(4-9)7(5)2-3-8/h3-6H,2H2,1H3/t5-,6+,7?/m0/s1
