20
gdb 111635	2.51981	1.45933	1.17772	1.3545	78.5	-0.2378	0.0175	0.2553	1156.4613	0.170918	-403.15503	-403.146221	-403.145276	-403.188779	33.125	
C	 0.2608873639	 1.422117193	 0.2349778466	-0.372352
C	-0.2500121161	 0.033374045	-0.1679237688	-0.211697
C	 0.5500973976	-0.5715563473	-1.3021740202	-0.086928
C	 1.928903139	-1.1558823043	-1.1379458713	 0.005869
O	 2.2943127607	-1.5728417586	 0.1743964093	-0.208871
C	 1.4228066307	-2.5696465186	 0.4799109438	 0.080756
N	 0.5625444147	-2.9235581665	-0.3859224144	-0.291583
C	 0.7675631169	-2.0635268908	-1.538689457	 0.283165
C	 0.5394999622	-2.6974751583	-2.885065348	-0.472312
H	 1.2956853441	 1.3686476483	 0.5877004427	 0.125686
H	 0.2314950358	 2.1193897802	-0.6095750335	 0.111105
H	-0.3486626567	 1.8472130948	 1.0384460107	 0.111978
H	-0.2362392991	-0.6295775948	 0.7017507707	 0.113858
H	-1.3002220829	 0.0975945752	-0.478317396	 0.10186
H	 0.4625004315	-0.0254888776	-2.2403318017	 0.08948
H	 2.7845021039	-0.8654801422	-1.7351690086	 0.107155
H	 1.5440132149	-2.9898183303	 1.4711253543	 0.141853
H	-0.5122126541	-2.9778277818	-3.0026178552	 0.132402
H	 0.800218904	-2.0063394877	-3.6920713578	 0.113107
H	 1.143886099	-3.6032056178	-2.9972125655	 0.12547
47.0325	146.7436	180.799	195.6434	235.5005	263.617	299.2629	340.6109	445.4654	590.8344	612.7842	686.0598	713.6873	766.6081	801.1437	876.3197	902.3322	917.3594	943.8448	957.5704	991.5745	1012.3388	1055.21	1095.2648	1106.6751	1123.8146	1144.4434	1168.6268	1251.8654	1258.457	1301.5034	1314.2762	1341.781	1374.7821	1409.6172	1412.9107	1448.7792	1480.1256	1488.8397	1497.9676	1499.0732	1508.3733	1667.5248	3032.7417	3034.3835	3035.7575	3081.17	3102.8462	3103.7308	3109.2527	3110.9731	3122.9112	3186.7109	3226.6349
CCC1C2OC=NC12C	CC[C@H]1[C@H]2OC=N[C@@]12C	
InChI=1S/C7H11NO/c1-3-5-6-7(5,2)8-4-9-6/h4-6H,3H2,1-2H3	InChI=1S/C7H11NO/c1-3-5-6-7(5,2)8-4-9-6/h4-6H,3H2,1-2H3/t5-,6+,7-/m0/s1
