23
gdb 59677	2.09004	1.34124	0.97769	0.6001	91.43	-0.2527	0.05	0.3027	1338.3209	0.204068	-351.122349	-351.112209	-351.111264	-351.157143	38.527	
C	-0.0418383831	 1.5633809058	-0.0635231989	-0.394315
C	 0.0551677532	 0.0381621005	 0.082452601	 0.01593
C	 0.7717716292	-0.3502016414	 1.3831724041	-0.394735
C	-1.329563036	-0.5976893146	 0.0038754967	 0.066171
C	-2.1724200132	-0.4620707872	-1.2932062257	-0.239453
C	-2.6867736482	-1.906950235	-1.0801866425	-0.226405
C	-1.488944777	-2.1662046125	-0.1030573573	-0.216726
C	-0.3745465694	-2.8639308903	-0.7177424364	 0.359917
C	 0.5415644187	-3.446396019	-1.2376841295	-0.498606
H	 0.9522884319	 2.022287943	-0.0516185218	 0.109742
H	-0.5300503453	 1.8492055202	-1.0008051003	 0.113883
H	-0.6184603656	 2.0017270365	 0.7603082207	 0.108396
H	 0.6457216492	-0.3503883047	-0.7578566213	 0.081331
H	 0.8832549751	-1.4352297895	 1.4674621527	 0.12271
H	 1.7727211285	 0.0918204043	 1.4264997515	 0.108223
H	 0.2150908696	 0.0044912327	 2.2593795063	 0.105178
H	-1.9270242573	-0.2679472402	 0.8635479655	 0.068927
H	-2.912948382	 0.3395701591	-1.337165907	 0.097011
H	-1.5288783949	-0.3932374674	-2.1759472227	 0.108563
H	-3.6374840944	-1.9329262119	-0.5415717456	 0.102916
H	-2.752207303	-2.5595016769	-1.9518647521	 0.109548
H	-1.7542092004	-2.66372632	 0.8344619335	 0.097361
H	 1.3492961747	-3.9661938316	-1.6900855708	 0.194434
74.4467	103.3582	121.6828	188.3288	211.8541	231.5103	251.5249	309.7981	334.9785	393.1103	449.729	489.3948	579.9453	618.3158	620.1438	684.8055	752.2606	800.9842	878.091	901.8433	928.978	942.2767	952.5433	973.3063	995.5948	1019.0949	1074.8955	1101.2687	1141.775	1168.859	1194.8478	1215.3922	1239.7933	1260.474	1269.0033	1273.1444	1315.7363	1347.8005	1352.0651	1396.6316	1397.4042	1419.7302	1480.2892	1488.029	1493.1069	1496.4265	1504.8282	1512.2722	2225.1049	3014.0408	3022.3417	3023.3378	3031.077	3054.2288	3055.8129	3069.4342	3086.3915	3092.5935	3100.1568	3107.3039	3107.676	3130.4267	3504.0169
CC(C)C1CCC1C#C	CC(C)[C@H]1CC[C@H]1C#C	
InChI=1S/C9H14/c1-4-8-5-6-9(8)7(2)3/h1,7-9H,5-6H2,2-3H3	InChI=1S/C9H14/c1-4-8-5-6-9(8)7(2)3/h1,7-9H,5-6H2,2-3H3/t8-,9-/m1/s1
