19
gdb 40512	3.30335	1.36479	1.18525	1.4685	74.91	-0.2433	0.0587	0.302	1099.0688	0.159627	-422.966559	-422.95874	-422.957795	-422.999188	30.211	
C	-0.1572387619	 1.3377872343	-0.3243209022	-0.271119
C	 1.2140071644	 1.0617235943	 0.2321532473	-0.264634
C	 0.2345465076	-0.0743153255	 0.0321461639	-0.102427
C	-0.3568578739	-0.7472429524	 1.2231936737	 0.396851
C	 0.1770091002	-2.1116952492	 1.7060485888	-0.12341
O	-1.1708066796	-2.6131184398	 1.8992477205	-0.293836
C	-1.7558989259	-1.3984486914	 1.4039169683	 0.007531
C	-1.967022378	-0.3444195562	 2.4953189487	-0.103041
O	-0.6101201702	 0.1492496715	 2.3320635101	-0.33156
H	-0.8603642592	 1.8371253694	 0.3320218659	 0.12328
H	-0.252630851	 1.587418218	-1.3749693178	 0.110352
H	 2.0691203861	 1.1160844193	-0.4317853603	 0.112139
H	 1.4042914073	 1.3753472841	 1.2517052204	 0.134249
H	 0.4374977789	-0.7498822974	-0.7939453638	 0.088
H	 0.7122079294	-2.6976553445	 0.9475974566	 0.099329
H	 0.7570988991	-2.0787985429	 2.6342135988	 0.112396
H	-2.5213680023	-1.5640827538	 0.6437703284	 0.087483
H	-2.701293999	 0.4347178095	 2.2548380658	 0.103701
H	-2.1523032821	-0.7428837073	 3.4979299169	 0.114717
73.8029	132.2005	168.4411	231.6296	331.9485	360.898	419.878	467.4047	632.0311	714.1057	791.0283	822.0877	834.9327	874.1697	905.6666	917.5189	936.4435	990.6562	996.0641	1022.856	1046.4669	1067.1344	1072.8438	1087.5892	1107.3097	1126.2322	1132.4329	1149.5526	1168.4756	1193.8561	1203.6293	1221.2713	1273.2334	1305.6682	1340.2452	1358.6595	1433.442	1456.9934	1500.6152	1503.1841	1504.0497	3013.7222	3019.3139	3079.5224	3084.7599	3098.601	3139.6842	3143.1769	3150.0593	3224.2327	3238.4796
C1CC1C12COC1CO2	C1CC1[C@]12CO[C@H]1CO2	
InChI=1S/C7H10O2/c1-2-5(1)7-4-8-6(7)3-9-7/h5-6H,1-4H2	InChI=1S/C7H10O2/c1-2-5(1)7-4-8-6(7)3-9-7/h5-6H,1-4H2/t6-,7+/m0/s1
