18
gdb 29796	2.35144	1.36146	0.87163	4.9266	84.42	-0.2191	-0.0254	0.1936	1313.7629	0.14721	-402.007732	-401.998414	-401.99747	-402.043109	32.746	
C	-0.0381202483	 1.4654447222	 0.0052710774	-0.336979
N	-0.0076108854	 0.016021621	 0.0061193806	 0.011905
C	 0.008613979	-0.7775599342	-1.1279165018	-0.178523
C	 0.0363295675	-2.096027011	-0.7501683406	 0.163555
C	 0.060848461	-3.2807373069	-1.669285484	-0.504777
C	 0.0367323906	-2.1034171428	 0.6879038782	 0.074839
C	 0.0607907294	-3.2499801653	 1.581147762	 0.068455
O	 0.0597564992	-3.1904347621	 2.7955886389	-0.299229
C	 0.0094434495	-0.7788654374	 1.1032066569	-0.152868
H	 0.8422886737	 1.8723171889	-0.5019531842	 0.1462
H	-0.9362488394	 1.8349951848	-0.4994667302	 0.146206
H	-0.0441638139	 1.8226346397	 1.0359731104	 0.150006
H	-0.0010634024	-0.3282844195	-2.1090905852	 0.12094
H	 0.9543601247	-3.8967647551	-1.5179645251	 0.132589
H	-0.8067719845	-3.9328402184	-1.5184258644	 0.132592
H	 0.0545595403	-2.9605588099	-2.7150563075	 0.121331
H	 0.0811198592	-4.2376747286	 1.0672790723	 0.052695
H	 0.0013257	-0.3721894154	 2.1016506362	 0.151064
22.547	123.7677	142.0668	161.6981	171.83	225.5486	253.6193	326.9404	387.6249	533.415	599.5006	623.4876	653.8114	668.1022	726.6273	812.4239	859.6789	1011.1952	1035.3222	1037.0629	1066.323	1087.2743	1150.4036	1166.469	1184.3488	1242.0012	1365.4532	1386.5541	1419.5488	1445.3539	1450.1889	1468.1556	1482.0587	1483.9909	1496.9717	1519.0186	1563.1561	1599.6263	1772.9265	2869.4366	3029.4502	3040.0492	3079.984	3099.8802	3107.2902	3145.0844	3250.8319	3269.5568
CN1C=C(C)C(C=O)=C1	Cn1cc(C)c(C=O)c1	
InChI=1S/C7H9NO/c1-6-3-8(2)4-7(6)5-9/h3-5H,1-2H3	InChI=1S/C7H9NO/c1-6-3-8(2)4-7(6)5-9/h3-5H,1-2H3
