17
gdb 81282	2.80689	1.58676	1.27468	4.3804	74.44	-0.2374	-0.0499	0.1874	1007.0694	0.137713	-421.837093	-421.829845	-421.8289	-421.868478	29.105	
O	-0.0611673327	 1.3807379793	-0.0331585356	-0.440291
C	 0.0391694011	-0.0199897289	 0.0151598808	 0.144736
C	 0.1689805296	-0.6198013409	 1.4665756764	-0.118371
C	-1.3796912901	-0.4519407435	 1.567097328	-0.235976
C	-1.3923944836	-0.634776349	 0.0163286283	-0.14157
C	-1.287105111	-2.1203728798	-0.3273756973	 0.39537
O	-1.991916204	-2.6669285475	-1.1489716044	-0.346925
C	-0.2221459987	-2.8131132905	 0.4417171939	-0.175627
C	 0.4881217079	-2.0827302451	 1.3159172098	-0.057204
H	 0.8254778196	 1.750557978	 0.0300798065	 0.287155
H	 0.751557608	-0.4044436424	-0.7261809239	 0.077172
H	 0.8105028453	-0.1042867506	 2.1835280209	 0.066142
H	-1.9212014247	-1.1791027679	 2.1753157107	 0.107039
H	-1.6615281458	 0.5646640079	 1.842124205	 0.123405
H	-2.1571428911	-0.146352966	-0.5868948638	 0.092077
H	-0.0668009508	-3.8716688218	 0.266792382	 0.111348
H	 1.2925047708	-2.5171445811	 1.9019163426	 0.111519
136.3449	221.5995	291.8099	299.771	347.3073	406.7503	439.5452	473.8978	499.5031	669.7023	711.3877	769.8399	824.6751	859.6772	901.6273	907.7405	927.0384	961.9976	999.3438	1008.8202	1076.4829	1084.9671	1112.4108	1138.5844	1154.8232	1194.199	1219.1415	1246.4214	1254.4127	1280.9329	1314.3659	1320.3686	1387.567	1422.7361	1489.1508	1650.2737	1790.5478	3018.9935	3077.1628	3094.1662	3125.4576	3144.5674	3172.8955	3205.8111	3814.4168
OC1C2CC1C(=O)C=C2	O[C@H]1[C@H]2C[C@@H]1C(=O)C=C2	
InChI=1S/C7H8O2/c8-6-2-1-4-3-5(6)7(4)9/h1-2,4-5,7,9H,3H2	InChI=1S/C7H8O2/c8-6-2-1-4-3-5(6)7(4)9/h1-2,4-5,7,9H,3H2/t4-,5-,7+/m1/s1
