20
gdb 57209	2.421	1.20756	1.17569	4.2874	75.	-0.2289	0.0425	0.2714	1201.3635	0.168848	-440.306702	-440.296492	-440.295548	-440.342263	37.777	
C	 0.3403738478	 1.1462092849	 0.741783548	-0.406056
C	 0.0640659286	-0.2501607819	 0.1538058166	-0.112232
C	-1.4253854808	-0.6088984946	 0.3136197393	 0.373813
N	-2.2563329749	-0.1054582705	-0.6387609404	-0.513628
O	-1.819624054	-1.2606149355	 1.2636175774	-0.377639
C	 0.5912772115	-0.3870064338	-1.2651660127	 0.412922
O	 0.0562145149	 0.6269886242	-2.0975139872	-0.473929
C	 2.0100812468	-0.8325032015	-1.4884990743	-0.327536
C	 0.8475650953	-1.7504701372	-1.8414879951	-0.336533
H	 1.4147077301	 1.3546706396	 0.7416478678	 0.115194
H	-0.1559172527	 1.9242730624	 0.1574694685	 0.133033
H	-0.0220244594	 1.1978660516	 1.7717226666	 0.131401
H	 0.5806041824	-0.9939269475	 0.7661356863	 0.100947
H	-1.8820051954	 0.3549201433	-1.4539404192	 0.264618
H	-3.2356177029	-0.3300747015	-0.5779920515	 0.251591
H	 0.3285651585	 0.461203362	-3.0051887923	 0.287188
H	 2.5561042413	-0.376562781	-2.3087571795	 0.110713
H	 2.6254342653	-1.0774327036	-0.6294258081	 0.124611
H	 0.6619494143	-2.6206375448	-1.2210364299	 0.133933
H	 0.632508233	-1.9064866546	-2.8946939203	 0.10759
28.4358	82.782	177.3082	186.4754	223.7439	228.8594	238.9168	330.7429	334.5596	363.2279	381.4833	483.0659	515.8308	586.5758	650.9123	746.2382	759.4663	785.551	812.9376	892.3758	916.258	961.8129	973.3028	1006.983	1053.1445	1070.1232	1078.0533	1097.8925	1137.7418	1180.269	1184.3417	1264.8387	1308.4474	1340.453	1362.4253	1404.7738	1434.6782	1463.0293	1495.6955	1498.0319	1504.574	1618.4038	1791.8306	3045.7421	3079.6387	3116.1102	3122.3905	3127.3503	3134.3192	3203.6435	3217.8594	3567.8556	3715.5538	3828.6314
CC(C(N)=O)C1(O)CC1	C[C@@H](C(=O)N)C1(O)CC1	
InChI=1S/C6H11NO2/c1-4(5(7)8)6(9)2-3-6/h4,9H,2-3H2,1H3,(H2,7,8)	InChI=1S/C6H11NO2/c1-4(5(7)8)6(9)2-3-6/h4,9H,2-3H2,1H3,(H2,7,8)/t4-/m0/s1
