25
gdb 119081	2.06272	1.17805	0.89858	0.96	88.96	-0.2413	0.0791	0.3204	1472.8555	0.227545	-389.481116	-389.470543	-389.469599	-389.516802	39.309	
C	 1.0287455233	 1.3643181927	-0.1447355462	-0.382175
C	 0.727447748	-0.1342791253	-0.0573847818	-0.167029
C	 0.9579493299	-0.7070259464	 1.3455458826	-0.237236
C	 0.666149763	-2.2087203106	 1.4672686445	 0.435051
C	 1.7356052005	-3.1133410171	 0.7995545738	-0.270014
C	 2.3885288909	-3.3285319323	 2.1907306801	-0.218184
C	 1.085875655	-2.8023728246	 2.8514904141	-0.27731
O	-0.633170881	-2.5481145881	 1.0101780156	-0.288549
C	-1.7009063901	-2.0285409152	 1.7716614181	-0.253791
H	 2.0725642837	 1.5769767223	 0.1129887493	 0.111096
H	 0.8513689561	 1.7483237781	-1.1543114095	 0.110781
H	 0.3979214867	 1.937996604	 0.5439291394	 0.110745
H	-0.3083972784	-0.3257162917	-0.3576905137	 0.108756
H	 1.3517041086	-0.6746192041	-0.7798278553	 0.097973
H	 1.9985080455	-0.5345376677	 1.6504134454	 0.094
H	 0.3446014328	-0.1578479812	 2.0728314064	 0.090233
H	 1.2627301257	-4.0219170309	 0.4201626909	 0.110051
H	 2.3474367838	-2.6730835141	 0.0087579809	 0.094182
H	 2.6943764163	-4.3458220513	 2.4423505438	 0.099579
H	 3.2394046807	-2.6638100799	 2.3609257504	 0.10271
H	 1.1834089206	-2.1110217624	 3.6929241487	 0.089993
H	 0.4177473677	-3.6201989456	 3.1343917823	 0.103941
H	-2.6157639322	-2.4892868928	 1.3900603495	 0.124083
H	-1.6046318775	-2.2752735864	 2.8394218311	 0.10567
H	-1.7984361696	-0.9374425794	 1.6780835994	 0.105443
64.9843	101.6232	122.4477	144.0004	164.3197	206.7194	239.4589	262.9762	315.2489	345.3904	374.8476	442.099	514.8992	648.493	729.3898	747.3275	794.5907	849.88	865.9358	890.7262	934.5159	938.2083	958.0816	1018.4927	1034.4146	1046.454	1060.6576	1110.7668	1140.7328	1182.0444	1188.5115	1195.4083	1209.8465	1231.8702	1251.0761	1259.9467	1274.1822	1291.7258	1305.635	1319.552	1341.0163	1393.335	1411.341	1465.3649	1472.8181	1481.011	1485.0283	1491.5681	1498.9016	1500.2543	1505.3361	1507.1968	1513.6121	2984.2358	3013.0321	3026.2591	3032.3034	3033.2381	3043.6631	3053.6932	3062.837	3068.3675	3070.0104	3095.3959	3099.4896	3102.3545	3107.6926	3115.4083	3128.5522
CCCC1(CCC1)OC	CCCC1(CCC1)OC	
InChI=1S/C8H16O/c1-3-5-8(9-2)6-4-7-8/h3-7H2,1-2H3	InChI=1S/C8H16O/c1-3-5-8(9-2)6-4-7-8/h3-7H2,1-2H3
