18
gdb 40553	3.74608	1.20466	1.02755	2.7717	79.07	-0.2289	0.0049	0.2338	1180.9963	0.149022	-401.903448	-401.895927	-401.894983	-401.935869	29.209	
C	 0.2099359311	 1.4388294898	-0.0310174646	-0.190982
O	 1.2142578421	 0.4449651761	-0.1898317668	-0.228695
C	-0.1414074198	 0.0055991428	 0.0021728982	-0.038456
C	-0.4500390011	-0.7117134187	 1.2507006899	 0.40944
C	-1.3633078144	-1.6796118171	 1.401703059	-0.204867
C	-1.460325768	-2.1758670475	 2.8291607555	-0.254589
C	-0.3548881095	-1.3981360075	 3.5365177677	-0.042988
N	 0.993963562	-1.6861675676	 3.007893083	-0.326621
C	 0.2630740841	-0.4738054744	 2.5460983747	-0.167352
H	 0.2508921504	 2.0087301362	 0.8964407404	 0.11129
H	-0.0253266041	 2.0224124172	-0.920726861	 0.117014
H	-0.6050068158	-0.406656374	-0.8943947021	 0.091679
H	-1.9618715109	-2.0952420372	 0.5980999047	 0.092431
H	-2.4454445079	-1.9625648549	 3.2654259761	 0.106012
H	-1.30547857	-3.2590706416	 2.9007262161	 0.12213
H	-0.4616758826	-1.1315183281	 4.582380982	 0.086984
H	 1.6796109708	-1.4017901189	 3.7058240796	 0.227986
H	 0.6575879737	 0.5013422357	 2.8082972775	 0.089585
70.1255	133.9344	177.3069	303.3189	346.2224	406.8176	424.5068	582.4924	680.3918	728.2759	811.2599	818.2535	828.5971	853.2636	858.2918	902.6051	916.2514	938.3649	972.5207	993.0607	1003.9269	1072.3114	1094.9722	1130.7089	1146.5717	1167.1456	1167.5915	1186.641	1208.8954	1245.3122	1268.9942	1293.4651	1332.6307	1385.222	1419.2556	1420.7866	1464.9303	1524.5072	1696.4876	3018.3755	3058.7144	3077.5195	3108.1732	3162.8338	3166.1855	3177.9922	3189.7133	3477.1742
C1OC1C1=CCC2NC12	C1O[C@H]1C1=CC[C@H]2N[C@@H]12	
InChI=1S/C7H9NO/c1-2-5-7(8-5)4(1)6-3-9-6/h1,5-8H,2-3H2	InChI=1S/C7H9NO/c1-2-5-7(8-5)4(1)6-3-9-6/h1,5-8H,2-3H2/t5-,6-,7+/m1/s1
