16
gdb 48184	4.97985	0.66883	0.61929	1.8384	73.77	-0.2563	-0.0814	0.1749	1718.3284	0.121782	-437.887519	-437.877784	-437.87684	-437.923779	33.5	
O	-0.5124860876	 1.1623704466	 0.7814532271	-0.246439
C	 0.2271400671	 1.0823634154	-0.1655246332	 0.10451
C	 1.4193613712	 2.0176074938	-0.3885833614	 0.297103
O	 2.1126757703	 1.9081553547	-1.3847643697	-0.360129
N	 1.5836049743	 2.9138490513	 0.6087979282	-0.301971
C	 2.6408767541	 3.9055822049	 0.6063168601	-0.16315
C	 2.2416087369	 5.1957724052	-0.1483690002	-0.345587
C	 3.3000078901	 6.1948486081	-0.1091925853	 0.2928
C	 4.1953830127	 6.9942858823	-0.0510468713	-0.433426
H	 0.1152472131	 0.330192263	-0.9707833898	 0.120049
H	 0.8965440827	 2.8880995953	 1.3487788607	 0.267753
H	 2.9031769859	 4.1441489809	 1.6399769908	 0.126911
H	 3.5155758854	 3.4641322766	 0.1231846997	 0.154709
H	 2.008158074	 4.9309493631	-1.1858994777	 0.156047
H	 1.3224736027	 5.6034097128	 0.2904654653	 0.130564
H	 4.9783967972	 7.7105794861	-0.0142327934	 0.200255
39.4981	61.1512	63.5941	153.2593	176.1755	209.0772	282.2582	352.711	404.1982	489.8955	519.6632	554.1024	626.035	641.1783	653.5402	713.7697	770.4407	890.9466	972.868	1017.4863	1026.8517	1090.5929	1109.8171	1229.0979	1267.0906	1306.8434	1337.9895	1362.5606	1400.299	1470.0345	1482.5172	1553.5021	1784.5101	1822.7319	2241.0133	2959.6068	3030.9857	3068.7903	3074.4809	3128.7827	3506.6796	3609.4096
O=CC(=O)NCCC#C	O=CC(=O)NCCC#C	
InChI=1S/C6H7NO2/c1-2-3-4-7-6(9)5-8/h1,5H,3-4H2,(H,7,9)	InChI=1S/C6H7NO2/c1-2-3-4-7-6(9)5-8/h1,5H,3-4H2,(H,7,9)
