22
gdb 60566	2.46743	1.20461	0.89188	1.0096	82.33	-0.227	0.081	0.308	1359.3778	0.192557	-404.290813	-404.280992	-404.280048	-404.325863	36.23	
C	 0.7512926532	 1.9422636684	 0.2211906292	-0.397846
C	 0.2504619176	 0.4941674182	 0.0828207529	-0.048106
C	 0.8301070405	-0.1327217975	-1.1721051315	 0.106875
C	 0.0414184883	-0.935135575	-2.1148700336	-0.185894
O	 0.3937807404	 0.4166143866	-2.4176533163	-0.245764
C	 0.6396503814	-0.3126339642	 1.313032786	 0.024275
C	-0.1748159511	-0.2660199358	 2.561744218	-0.263676
N	-0.0576841396	-1.5038631902	 1.8008973791	-0.087484
C	-1.2502114006	-1.9991858802	 1.1324491274	-0.315928
H	 1.8382048005	 1.9694288856	 0.3607049776	 0.114896
H	 0.5116779634	 2.5140084209	-0.6791009812	 0.134797
H	 0.2912279914	 2.4337548567	 1.0831105352	 0.116406
H	-0.839156814	 0.5178742177	-0.0239059791	 0.077354
H	 1.9063140303	-0.3203226061	-1.1303117302	 0.090796
H	 0.5289353986	-1.6941273416	-2.7255122488	 0.115375
H	-1.0162216687	-1.1075324299	-1.9209440441	 0.112512
H	 1.7215087093	-0.3972175934	 1.4311126486	 0.086977
H	 0.2942175102	-0.2529036256	 3.5424984112	 0.113286
H	-1.1212116884	 0.2735863572	 2.5063857477	 0.103177
H	-1.9375409761	-1.2180541813	 0.7700170811	 0.099149
H	-0.9588742831	-2.624868533	 0.2829552468	 0.124162
H	-1.8057369334	-2.6258460177	 1.8377628439	 0.124662
52.0859	85.8086	140.7624	206.4434	223.0045	227.8855	243.1661	282.9848	352.6209	399.8631	446.6244	466.3251	563.9308	753.5269	806.4102	832.3395	868.7072	919.7135	948.1801	960.7573	989.0659	1037.5687	1074.6876	1080.9175	1111.8289	1127.2615	1134.7221	1152.7757	1164.5561	1173.5781	1188.6599	1202.1011	1206.7778	1267.273	1294.4358	1323.0817	1345.0534	1399.9846	1426.9647	1446.3546	1450.9586	1490.5375	1495.6667	1500.6078	1503.5252	1514.0225	1530.0725	2973.4394	3033.4702	3052.1452	3065.7665	3074.2564	3077.5583	3082.8016	3086.3947	3101.4558	3103.6222	3123.4555	3165.8168	3168.2758
CC(C1CO1)C1CN1C	C[C@@H]([C@H]1CO1)[C@H]1CN1C	
InChI=1S/C7H13NO/c1-5(7-4-9-7)6-3-8(6)2/h5-7H,3-4H2,1-2H3	InChI=1S/C7H13NO/c1-5(7-4-9-7)6-3-8(6)2/h5-7H,3-4H2,1-2H3/t5-,6-,7-,8?/m1/s1
