21
gdb 53045	3.25325	0.97259	0.87014	0.1901	93.08	-0.2282	0.0487	0.2769	1458.7581	0.182099	-349.912438	-349.902916	-349.901972	-349.950084	34.378	
C	 0.0132224558	 1.5015910512	-0.1911507469	-0.503608
C	 0.0112198283	 0.0495220595	-0.0859800608	 0.170484
C	 0.0108621639	-1.1537156042	 0.0011828192	-0.134428
C	 0.0019653131	-2.5891732356	 0.1034903328	 0.224365
C	 0.5709722154	-3.4128273967	-1.0958466389	-0.281528
C	-0.7072293784	-4.3010517625	-1.1126929964	-0.220125
C	-1.3155205751	-3.4837225558	 0.0553734245	-0.066956
C	-0.9959996983	-4.030928488	 1.4661897217	-0.215454
C	 0.3311418184	-3.2182157979	 1.4993818838	-0.282604
H	 0.6401620424	 1.8417227487	-1.0232780846	 0.145025
H	-0.9971787486	 1.8913854242	-0.3602711079	 0.144881
H	 0.3970752061	 1.9688182467	 0.7229153447	 0.144877
H	 0.687137212	-2.8084016558	-1.9972967218	 0.109762
H	 1.5191744689	-3.9195443414	-0.8946713636	 0.09569
H	-1.2727343588	-4.2263844908	-2.0443455806	 0.102996
H	-0.5534493822	-5.362277613	-0.8956430566	 0.095347
H	-2.3039540433	-3.0524555835	-0.1044736145	 0.067489
H	-1.7095600697	-3.7034159539	 2.2262218133	 0.102806
H	-0.9019241504	-5.1187235903	 1.5358670836	 0.094409
H	 1.254066843	-3.8047642532	 1.5177192664	 0.09616
H	 0.3768267772	-2.4790402476	 2.3007703426	 0.110413
11.8688	16.9006	97.5451	106.5939	253.5742	290.1281	329.902	343.9823	469.0258	515.4042	517.0388	624.2493	742.2467	752.4815	811.7456	860.1075	892.5408	911.0499	938.8196	941.0104	984.5175	1020.5695	1039.7858	1052.6671	1053.3231	1095.3664	1144.1168	1148.0757	1180.9051	1227.1181	1236.773	1244.0821	1264.8143	1266.0594	1285.0558	1314.5391	1338.0389	1415.021	1471.2735	1478.722	1479.0036	1481.9716	1485.4063	1500.7697	2356.2275	3021.5768	3049.5073	3051.0626	3057.1033	3060.1303	3080.0385	3081.1365	3093.1544	3096.0589	3108.1492	3119.4583	3124.6132
CC#CC12CCC1CC2	CC#C[C@]12CC[C@H]1CC2	
InChI=1S/C9H12/c1-2-5-9-6-3-8(9)4-7-9/h8H,3-4,6-7H2,1H3	InChI=1S/C9H12/c1-2-5-9-6-3-8(9)4-7-9/h8H,3-4,6-7H2,1H3/t8-,9+
