17
gdb 50470	4.30316	1.01129	0.84667	1.5246	69.35	-0.2302	-0.0431	0.1871	1288.933	0.137427	-455.180216	-455.171858	-455.170914	-455.213825	30.454	
O	-0.7786384522	 0.8759091524	 0.6868746606	-0.237178
C	 0.1300800692	 0.8953850711	-0.1022382379	 0.138096
C	 1.3414195836	 1.8064333036	 0.0102942888	-0.067453
C	 1.4333830786	 2.4978311654	 1.3709353632	-0.157871
N	 2.700651597	 3.210037753	 1.4683852478	-0.323137
C	 3.835097821	 2.9811141479	 0.7404729895	 0.388298
O	 4.8742327264	 3.5793901822	 0.9455466938	-0.372383
C	 3.7097223424	 1.9561332071	-0.3922027592	-0.286505
N	 2.5494693892	 1.0635649583	-0.3380942455	-0.311158
H	 0.1577132374	 0.2321983913	-0.9934664095	 0.103364
H	 1.211606461	 2.5719060681	-0.77313261	 0.118893
H	 0.6033732012	 3.2003656084	 1.4976382242	 0.129576
H	 1.3351952842	 1.7452902991	 2.16653335	 0.11694
H	 2.8256733155	 3.8660762798	 2.2263725069	 0.250079
H	 3.6841468091	 2.5205780198	-1.33375405	 0.140694
H	 4.630495508	 1.3690969212	-0.407058816	 0.141645
H	 2.7128409384	 0.3463624313	 0.3640454434	 0.228101
65.2058	101.4047	149.3016	182.422	242.2475	361.1224	418.4156	443.6734	491.5242	533.7218	618.3025	648.48	741.7004	762.1062	844.2982	857.9708	917.0823	993.0251	1041.5964	1087.8345	1117.4473	1128.4892	1164.4877	1227.0175	1268.5055	1288.3614	1340.3926	1345.3007	1356.0388	1394.4912	1404.4557	1458.1175	1485.1911	1492.0929	1517.5242	1793.7405	1831.5838	2911.3761	2979.7097	3004.946	3031.3107	3070.7718	3115.5696	3492.7341	3602.2632
O=CC1CNC(=O)CN1	O=C[C@H]1CNC(=O)CN1	
InChI=1S/C5H8N2O2/c8-3-4-1-7-5(9)2-6-4/h3-4,6H,1-2H2,(H,7,9)	InChI=1S/C5H8N2O2/c8-3-4-1-7-5(9)2-6-4/h3-4,6H,1-2H2,(H,7,9)/t4-/m1/s1
