22
gdb 96014	2.61992	1.38895	1.00249	1.8941	81.9	-0.2357	0.0761	0.3117	1241.6374	0.195969	-404.328393	-404.319684	-404.31874	-404.362391	33.787	
O	 0.2832164147	 0.6471964311	-0.9966771973	-0.442854
C	 0.0345818062	-0.390127578	-0.0749164832	 0.139232
C	 0.497521498	-0.113829918	 1.365603911	-0.229581
C	-0.2311668096	-1.1951920894	 2.1701092278	-0.210542
C	-1.6442036125	-1.2285883302	 1.5413358622	-0.217606
C	-1.4765021611	-0.7654633546	 0.069597547	 0.019262
N	-2.2805811894	 0.431066234	-0.1949745596	-0.093504
C	-2.820554435	 0.5700093878	-1.5470059471	-0.218874
C	-3.7102906755	 0.2196738363	-0.4087055918	-0.223887
H	-0.339385459	 1.3502812328	-0.772377672	 0.285615
H	 0.575904991	-1.2628580523	-0.4590029745	 0.081847
H	 1.5854222143	-0.1354118908	 1.4677127305	 0.096297
H	 0.1505115078	 0.8834588113	 1.6652736456	 0.098135
H	 0.2696423022	-2.1614102173	 2.0334603509	 0.097914
H	-0.2561053002	-0.9976602236	 3.2449384012	 0.096839
H	-2.113678464	-2.2127733221	 1.617544406	 0.093746
H	-2.2986513768	-0.5161579418	 2.0528018576	 0.11075
H	-1.7433593384	-1.5699399536	-0.6345326285	 0.050755
H	-2.8231886091	 1.575642909	-1.9574999855	 0.116286
H	-2.5887950158	-0.2122062353	-2.2665260995	 0.120073
H	-4.0831765333	-0.801917053	-0.3632691957	 0.112947
H	-4.3707523645	 0.9636832975	 0.027095815	 0.117149
40.4373	87.4455	182.2846	212.2641	287.4765	308.0732	374.918	436.1201	467.624	547.0298	568.1593	646.6674	734.4746	818.5724	830.2771	880.7558	894.4175	919.5504	925.9055	951.1794	1014.0366	1016.8821	1035.5659	1069.6834	1109.5413	1117.3926	1121.6559	1126.3602	1150.5744	1173.9594	1188.806	1200.6899	1240.0512	1278.5063	1301.5611	1310.6666	1321.4521	1336.2735	1346.5017	1367.5151	1379.1721	1442.0733	1482.9702	1489.0872	1492.1547	1507.5448	1519.3811	2955.3301	3028.6879	3033.2856	3043.3059	3055.4927	3089.3065	3099.8014	3099.9801	3105.3368	3106.0695	3180.6134	3195.2416	3774.2026
OC1CCCC1N1CC1	O[C@H]1CCC[C@H]1N1CC1	
InChI=1S/C7H13NO/c9-7-3-1-2-6(7)8-4-5-8/h6-7,9H,1-5H2	InChI=1S/C7H13NO/c9-7-3-1-2-6(7)8-4-5-8/h6-7,9H,1-5H2/t6-,7+/m1/s1
