19
gdb 94663	3.61465	0.82671	0.74029	5.2512	73.07	-0.2713	0.0121	0.2834	1523.3405	0.157894	-460.166988	-460.157497	-460.156552	-460.202842	33.489	
O	 0.3604029341	 1.0747447319	-0.6383301326	-0.430791
C	 0.0543649085	-0.1021815833	 0.0751746932	 0.12727
C	-0.3700753162	 0.0008510796	 1.5659694534	-0.259428
C	-1.5268509952	-0.9895166402	 1.2542395387	-0.231439
C	-1.3389994554	-0.6980739536	-0.2634413581	-0.032929
C	-2.3052927509	 0.3330122665	-0.8285538278	-0.085614
O	-3.5979021834	-0.2723008692	-0.9910029398	-0.180317
C	-4.6465754455	 0.2652948468	-0.3463771975	 0.170437
O	-5.7537755463	-0.1762671287	-0.4248288619	-0.279013
H	 1.2230085539	 1.3923868963	-0.353816658	 0.288457
H	 0.8380299674	-0.8608956791	-0.0584889147	 0.075756
H	 0.3608553211	-0.2868535202	 2.3251273612	 0.099293
H	-0.7364771022	 1.0064315584	 1.7909693878	 0.108759
H	-1.2761012983	-2.0215474469	 1.5085320104	 0.112093
H	-2.5067649626	-0.7629502636	 1.6803663108	 0.108807
H	-1.335496007	-1.5677238101	-0.9250775146	 0.087961
H	-2.3832720216	 1.2136346762	-0.1796474598	 0.112318
H	-1.976274277	 0.6725476853	-1.8135099219	 0.135722
H	-4.3698865833	 1.1538465538	 0.2559363813	 0.072658
35.6619	59.3511	118.2063	136.1418	191.6797	235.7494	258.2754	377.9358	393.6373	429.0745	517.5724	640.3763	697.6128	764.1051	850.1313	896.852	929.3161	948.7976	954.4517	1033.0064	1046.3829	1062.6489	1101.6357	1125.7474	1152.1761	1177.9422	1197.4458	1230.9318	1257.41	1264.9816	1270.4468	1308.0333	1332.3959	1360.4965	1402.3335	1421.0221	1436.7736	1482.1604	1494.1802	1506.1293	1863.8836	2935.5498	3000.3359	3035.5897	3060.4626	3069.6603	3079.7122	3106.5826	3109.1638	3126.0562	3821.3832
OC1CCC1COC=O	O[C@H]1CC[C@H]1COC=O	
InChI=1S/C6H10O3/c7-4-9-3-5-1-2-6(5)8/h4-6,8H,1-3H2	InChI=1S/C6H10O3/c7-4-9-3-5-1-2-6(5)8/h4-6,8H,1-3H2/t5-,6-/m0/s1
