21
gdb 103683	3.65976	0.83968	0.78705	3.444	80.41	-0.2449	-0.0209	0.224	1520.5577	0.179905	-424.231623	-424.221682	-424.220738	-424.266793	36.701	
C	-0.0290127215	 1.6533981141	 0.0785752066	-0.411791
C	-0.0289869342	 0.1248201935	 0.1869832346	-0.221947
C	-1.4087741163	-0.5186830134	 0.0080772227	 0.428934
O	-2.3289734103	-0.0740703947	 0.9846237076	-0.482698
C	-1.9207095303	-0.5298336132	-1.4690706835	-0.313936
C	-1.4290047341	-2.0056940774	-1.6017144899	-0.058597
C	-1.3595661459	-2.0634341827	-0.0441250431	-0.295022
C	-2.3791600179	-2.960743253	-2.2645962709	 0.161251
O	-2.1120564281	-3.6850847926	-3.1887151235	-0.255198
H	 0.985917629	 2.0487798776	 0.1761817976	 0.126025
H	-0.4240765559	 1.9937069028	-0.8847380918	 0.123138
H	-0.6252844373	 2.1175818996	 0.8727732206	 0.113206
H	 0.6552912002	-0.2935058867	-0.5611110736	 0.102701
H	 0.3562403529	-0.1751795385	 1.1691962275	 0.107061
H	-2.3633791464	 0.8881019215	 0.9596902423	 0.277502
H	-3.0130068953	-0.4696245623	-1.4855242462	 0.110083
H	-1.507259435	 0.1924123264	-2.1767242977	 0.106059
H	-0.4507134488	-2.0875194859	-2.0784561677	 0.089736
H	-0.4951884356	-2.5625036824	 0.3993531451	 0.109388
H	-2.2765010809	-2.478286702	 0.3846003949	 0.117284
H	-3.4047288882	-2.9493264408	-1.8203349116	 0.066819
62.0903	73.7166	115.4341	191.1093	230.1363	261.3882	293.4867	309.09	333.8493	359.2796	427.0511	461.6794	520.5021	656.8903	738.8506	785.0065	830.4005	879.9238	899.5156	925.106	977.4568	1004.7582	1028.7012	1042.7062	1064.1563	1082.9198	1111.2535	1177.8073	1190.8172	1231.5311	1257.5193	1263.5567	1278.7529	1315.1199	1326.0379	1337.3436	1391.478	1413.2831	1429.7586	1462.423	1478.7096	1487.434	1500.9946	1510.1878	1829.9307	2834.9617	3026.892	3030.7576	3054.596	3060.7795	3062.9534	3094.7381	3096.4068	3109.6603	3117.5924	3122.8281	3807.9779
CCC1(O)CC(C1)C=O	CC[C@@]1(O)C[C@@H](C1)C=O	
InChI=1S/C7H12O2/c1-2-7(9)3-6(4-7)5-8/h5-6,9H,2-4H2,1H3	InChI=1S/C7H12O2/c1-2-7(9)3-6(4-7)5-8/h5-6,9H,2-4H2,1H3/t6-,7+
