16
gdb 46618	3.08716	1.71371	1.12529	1.7065	73.66	-0.2264	0.0068	0.2331	1030.5855	0.127942	-434.098245	-434.090936	-434.089992	-434.130793	26.85	
N	-0.0958301569	 1.3072164467	-0.0113082159	-0.54482
C	-0.029769895	 0.0381549253	-0.0193036912	 0.316642
C	 1.1753215389	-0.9162713982	-0.033466147	-0.195729
O	 0.6347146933	-2.2544183813	-0.0381358032	-0.261122
C	-0.7050096528	-2.151080291	-0.0284037707	 0.519892
N	-1.5980611804	-3.0460015221	-0.0284516753	-0.379887
C	-2.8776962478	-2.3012793258	-0.0147059923	-0.172297
C	-2.5422693434	-0.7578686003	-0.007705641	-0.203721
N	-1.0913155209	-0.8202275011	-0.0169209338	-0.108918
H	 0.8353686444	 1.7206432621	-0.015379683	 0.221087
H	 1.7897686701	-0.7769589282	-0.9283469827	 0.148711
H	 1.8020084052	-0.7881477439	 0.854565567	 0.148716
H	-3.4722938974	-2.5723329426	-0.8927175938	 0.121376
H	-3.4594896262	-2.5830131004	 0.868523838	 0.121367
H	-2.9190509113	-0.2302606326	-0.8885985546	 0.134339
H	-2.9083650597	-0.2406245067	 0.8837523095	 0.134362
61.6734	116.2316	157.3552	264.7407	292.501	544.8259	555.7187	636.0542	663.6064	716.4454	723.7988	809.9829	812.6409	828.5172	907.239	991.6753	1004.117	1025.6682	1066.439	1106.5233	1145.3271	1204.2346	1212.8028	1223.3259	1239.4181	1276.8641	1321.6737	1358.3897	1406.344	1473.6226	1500.6987	1507.2214	1532.1495	1754.9854	1791.4433	3046.5173	3052.9788	3056.7208	3074.4109	3098.5681	3100.0225	3496.3607
N=C1COC2=NCCN12	[NH][C]1COC2=NCCN12	
InChI=1S/C5H7N3O/c6-4-3-9-5-7-1-2-8(4)5/h6H,1-3H2	InChI=1S/C5H7N3O/c6-4-3-9-5-7-1-2-8(4)5/h6H,1-3H2
