17
gdb 94357	2.94212	1.09875	0.99791	1.2215	70.26	-0.2635	-0.0491	0.2144	1236.7373	0.13283	-458.92791	-458.919058	-458.918114	-458.962117	31.573	
C	-0.1243409453	 1.6279161786	 0.525246614	-0.398507
C	 0.0819136199	 0.1870501701	 0.1030817567	 0.055101
O	 1.2290331427	 0.0088459069	-0.7714818202	-0.292449
C	 1.8911445532	-0.8934021047	 0.1392124567	-0.151375
C	 0.7344757595	-0.757674305	 1.1208740412	 0.340782
O	 0.8691797942	-0.4910347476	 2.4900385867	-0.258895
C	 0.1912004837	-1.7083238978	 2.108836382	-0.148874
C	-1.2748566034	-1.7297489502	 2.3885432575	 0.154147
O	-1.911441062	-2.740636349	 2.5356129738	-0.244641
H	 0.7507872743	 2.0099808199	 1.0570291042	 0.132585
H	-0.2974198662	 2.248110236	-0.3589446816	 0.134939
H	-0.9953159099	 1.7159621549	 1.1825258293	 0.126276
H	-0.8225420811	-0.2171944315	-0.3709569693	 0.093369
H	 2.0416516532	-1.8891681034	-0.2942718086	 0.117842
H	 2.8478848868	-0.5012997911	 0.5047775669	 0.124357
H	 0.7273740171	-2.6349378578	 2.3069724017	 0.123951
H	-1.7336386967	-0.7179046183	 2.4477621491	 0.091393
66.7503	88.5837	144.3589	187.9711	205.0516	233.7049	356.9373	389.8849	425.9513	473.6158	550.9415	580.1372	793.0352	857.7482	878.0236	924.758	975.4011	1001.177	1026.1479	1070.7114	1083.6599	1089.4277	1118.4085	1139.5037	1157.0396	1181.6038	1269.2948	1291.3742	1334.782	1370.5568	1399.7195	1406.4603	1476.5886	1486.7633	1498.8906	1513.3445	1828.218	2894.1026	3014.1143	3023.2983	3043.7191	3069.4937	3115.8987	3128.8737	3139.4584
CC1OCC11OC1C=O	C[C@H]1OC[C@]21O[C@H]2C=O	
InChI=1S/C6H8O3/c1-4-6(3-8-4)5(2-7)9-6/h2,4-5H,3H2,1H3	InChI=1S/C6H8O3/c1-4-6(3-8-4)5(2-7)9-6/h2,4-5H,3H2,1H3/t4-,5+,6-/m1/s1
