17
gdb 7059	6.07081	0.90964	0.85	3.6033	74.58	-0.2741	0.0194	0.2934	1313.4602	0.140144	-326.717261	-326.708171	-326.707227	-326.751188	32.459	
C	-0.0580098189	 1.5859361676	 0.027888196	-0.400163
C	-0.0129573086	 0.0557772166	 0.0097620598	 0.0239
C	 0.67523555	-0.4887554831	-1.2656623201	-0.367008
C	-0.0227110471	-0.1318700061	-2.4939540392	 0.292391
C	-0.6161305033	 0.1635884255	-3.496478212	-0.42591
C	 0.7224720541	-0.5105591604	 1.2480007691	-0.347803
C	 0.0762415418	-0.1526540765	 2.5084354826	 0.263097
N	-0.4491385109	 0.1351249598	 3.496740945	-0.309313
H	 0.9551356022	 2.0059371034	 0.0221475963	 0.115202
H	-0.5835501421	 1.9629026225	-0.8526347117	 0.139579
H	-0.5709714617	 1.9535445585	 0.9206670639	 0.143312
H	-1.0391511087	-0.3284685972	 0.0253073556	 0.11037
H	 1.7067082429	-0.1114796839	-1.3069293976	 0.131818
H	 0.7517139819	-1.5821322479	-1.2011371223	 0.130903
H	-1.1321680948	 0.420285332	-4.3884020848	 0.200084
H	 0.7784174298	-1.6039474945	 1.1908050324	 0.14943
H	 1.7556822635	-0.1414068465	 1.270932357	 0.150111
61.7022	99.2261	110.4428	185.8771	247.2939	303.0629	346.6917	348.914	398.3849	410.4362	468.9198	597.337	623.8017	647.9063	837.963	877.7592	899.6508	909.8906	972.2443	994.6561	1099.0164	1118.54	1135.1204	1217.3313	1273.0284	1287.8849	1346.2027	1373.0781	1377.131	1419.4132	1462.3358	1473.3663	1498.1379	1504.3804	2239.8116	2361.423	3009.4096	3031.5678	3033.2044	3040.0918	3054.1408	3076.0665	3107.2152	3130.4497	3505.3816
CC(CC#C)CC#N	C[C@@H](CC#C)CC#N	
InChI=1S/C7H9N/c1-3-4-7(2)5-6-8/h1,7H,4-5H2,2H3	InChI=1S/C7H9N/c1-3-4-7(2)5-6-8/h1,7H,4-5H2,2H3/t7-/m0/s1
