14
gdb 131592	4.58169	1.00156	0.82609	2.0372	64.98	-0.2634	-0.0637	0.1997	1286.3444	0.099965	-473.81738	-473.809219	-473.808275	-473.85109	28.509	
O	 0.0235202574	 1.3912776781	 0.0091739589	-0.398697
C	-0.0130503306	-0.0107879498	 0.0029274609	-0.182306
C	-1.4624506392	-0.4706340589	 0.0126086368	 0.30335
O	-2.4043076963	 0.2842866439	 0.0237536423	-0.283255
C	-1.6870406113	-1.9470520895	 0.0076406904	 0.283781
N	-0.6842570113	-2.7992011873	-0.004466704	-0.187978
O	-1.2583367899	-4.0532579114	-0.0055773151	-0.161712
C	-2.5992792844	-3.9216714503	 0.005980514	 0.083803
C	-2.946137116	-2.612958318	 0.0148290155	-0.321738
H	 0.9460361508	 1.6620097289	 0.0024242853	 0.29539
H	 0.4695211529	-0.4547739194	-0.8834263712	 0.127737
H	 0.4839023108	-0.4629845832	 0.8771023058	 0.127736
H	-3.1568454949	-4.8449634759	 0.0062762924	 0.163508
H	-3.923198908	-2.1627760772	 0.0248675679	 0.15038
65.6398	82.7056	148.8494	193.1715	229.4713	288.2609	364.959	489.9544	538.4906	621.6884	716.2631	757.5393	819.4841	889.2411	921.6026	948.0695	968.379	1014.7761	1027.313	1071.7835	1141.1335	1149.0657	1233.433	1248.3741	1306.1924	1438.2105	1459.5264	1469.487	1492.7495	1588.3271	1810.1059	2973.3141	2996.2313	3272.1915	3304.416	3839.1728
OCC(=O)C1=NOC=C1	OCC(=O)c1nocc1	
InChI=1S/C5H5NO3/c7-3-5(8)4-1-2-9-6-4/h1-2,7H,3H2	InChI=1S/C5H5NO3/c7-3-5(8)4-1-2-9-6-4/h1-2,7H,3H2
