19
gdb 100895	1.85035	1.12227	1.00336	3.3294	72.66	-0.2561	0.0249	0.2809	1345.1485	0.158194	-456.332241	-456.321755	-456.320811	-456.368357	36.884	
C	 0.0452139412	 1.498824326	-0.2093504077	-0.329178
N	 0.0459587302	 0.0524422951	 0.0157809429	-0.303247
C	 0.5620549184	-0.733141005	-1.1037098354	-0.122242
C	 2.0322603579	-0.6627986507	-1.2178701372	 0.263236
N	 3.1851089761	-0.5885918663	-1.2721470884	-0.328682
C	 0.0610909906	-2.1994641616	-0.9750147485	 0.081898
O	 0.1491361337	-2.6652903133	 0.3549066288	-0.428439
C	-1.3781950307	-2.3090427551	-1.5009569074	-0.111102
O	-1.4935634156	-1.9212770622	-2.859940909	-0.408993
H	 1.0347687537	 1.9089259309	-0.4628458073	 0.126749
H	-0.6449024512	 1.7388151253	-1.0242471586	 0.135947
H	-0.3147141748	 1.9983511938	 0.6939103073	 0.129119
H	 0.6050812254	-0.1588253229	 0.8362359689	 0.236544
H	 0.1362427056	-0.3383770919	-2.0331364838	 0.144975
H	 0.7133134446	-2.8511579226	-1.5672502459	 0.1033
H	-0.4555649902	-2.1204846914	 0.8747647902	 0.288899
H	-1.7365847063	-3.3321338308	-1.3263256201	 0.107493
H	-2.0168826457	-1.6230961774	-0.9332818378	 0.121728
H	-1.0827978729	-2.6016815699	-3.4034483408	 0.291996
50.7751	72.4174	122.3237	145.7652	185.8812	197.5983	243.3263	271.9192	330.518	340.3548	380.1481	456.7268	484.5848	508.9842	594.7668	660.1194	803.2391	867.5447	954.5099	993.9219	1028.8741	1053.0158	1086.4609	1099.4517	1133.9536	1161.4254	1179.5712	1198.827	1272.956	1308.7469	1344.7699	1364.9333	1384.2917	1411.6334	1427.9572	1460.1213	1487.5467	1493.4295	1502.8077	1517.9518	2343.1707	2989.9926	3018.901	3052.4998	3062.0044	3077.6357	3083.5316	3117.6952	3521.6414	3773.6775	3814.1544
CNC(C#N)C(O)CO	CN[C@@H](C#N)[C@@H](O)CO	
InChI=1S/C5H10N2O2/c1-7-4(2-6)5(9)3-8/h4-5,7-9H,3H2,1H3	InChI=1S/C5H10N2O2/c1-7-4(2-6)5(9)3-8/h4-5,7-9H,3H2,1H3/t4-,5-/m0/s1
