21
gdb 119404	4.15584	1.01569	0.94914	0.6861	79.37	-0.2356	0.0862	0.3218	1333.4648	0.182901	-424.193686	-424.185129	-424.184185	-424.227368	32.531	
C	-0.110214998	 1.453077508	-0.7075779291	-0.218158
O	-0.1643551949	 0.0837483258	-1.0268879381	-0.241853
C	 0.7870908028	-0.6817515128	-0.3200215348	-0.186162
C	 0.6367049592	-2.117860049	-0.7406376685	 0.451942
C	-0.6740882152	-2.939290202	-0.6331373151	-0.263374
C	 0.1573588968	-3.9100802705	-1.5291752229	-0.081894
C	 0.7433207427	-2.628630704	-2.20084986	-0.263403
C	 1.2994818915	-4.2508764389	-0.5641403433	-0.074296
O	 1.5930253147	-2.9351498052	-0.0379711823	-0.329931
H	-0.3099410322	 1.6319107565	 0.3608802499	 0.105083
H	 0.8714243061	 1.8906792844	-0.9491628546	 0.10508
H	-0.8774752818	 1.9577622429	-1.2997763372	 0.126309
H	 1.8124725359	-0.3379261797	-0.5357367991	 0.095997
H	 0.6349920203	-0.5968053328	 0.7689267945	 0.096027
H	-0.9689344597	-3.2753377854	 0.3646616799	 0.092679
H	-1.5092396166	-2.4775654001	-1.1595519279	 0.112926
H	-0.2910999113	-4.724764095	-2.0960769624	 0.071337
H	 0.0417435876	-2.1376526922	-2.8750308634	 0.112906
H	 1.7447051188	-2.6805772992	-2.636737619	 0.092676
H	 1.0012696821	-4.9223232413	 0.2497565959	 0.098055
H	 2.1860919713	-4.6625875193	-1.0607470125	 0.098053
71.73	83.1316	128.5033	218.9571	279.7552	341.3849	375.3912	376.5809	482.5304	529.9187	661.6369	716.9201	810.2144	860.5479	867.3282	905.8944	941.5676	943.3179	965.7843	990.8466	1002.0806	1009.3256	1075.6737	1095.3501	1120.1987	1149.8443	1158.3212	1174.943	1185.7824	1191.0697	1207.7912	1232.7374	1238.1028	1276.2243	1290.9303	1331.4835	1365.4417	1430.2826	1476.4401	1480.2037	1483.9065	1502.4794	1510.1276	1522.5267	1534.0788	2957.3638	2972.526	2990.9696	3013.8813	3021.7099	3060.9304	3065.3877	3069.1937	3113.4075	3127.886	3143.0515	3150.4667
COCC12CC(C1)CO2	COC[C@@]12C[C@@H](C1)CO2	
InChI=1S/C7H12O2/c1-8-5-7-2-6(3-7)4-9-7/h6H,2-5H2,1H3	InChI=1S/C7H12O2/c1-8-5-7-2-6(3-7)4-9-7/h6H,2-5H2,1H3/t6-,7+
