16
gdb 108734	3.20493	1.24137	0.95267	6.1379	72.59	-0.2469	-0.0461	0.2007	1190.4761	0.124381	-437.886104	-437.878107	-437.877163	-437.919028	29.548	
O	 0.0064231796	 1.4004890352	 0.0264896171	-0.407199
C	-0.0185359628	-0.0097488527	 0.0061528651	-0.182905
C	-1.4309965037	-0.4855934851	 0.0173997684	 0.318408
C	-2.5557230652	 0.2444349636	 0.0531745253	-0.305379
C	-3.7330727752	-0.6554908133	 0.0333087581	 0.376552
O	-4.8994999237	-0.3750622696	-0.0382319173	-0.325125
N	-3.2424446479	-2.0293016784	 0.0973863743	-0.131542
C	-2.578939192	-2.450699712	-1.1496190534	-0.238985
C	-1.7845303382	-1.9355358634	 0.0091944957	-0.142341
H	 0.9234541812	 1.6885754894	 0.0453923818	 0.296742
H	 0.4858864485	-0.41865492	-0.8873960448	 0.112658
H	 0.5046639624	-0.4434439062	 0.8770030772	 0.111879
H	-2.6337252352	 1.3208701886	 0.0240647172	 0.139112
H	-2.6104063972	-3.5180052761	-1.350369975	 0.133729
H	-2.6775664272	-1.8061166751	-2.0196734008	 0.134653
H	-1.2095450835	-2.6317014749	 0.6144182011	 0.109743
80.4713	148.7151	171.662	202.8269	241.6872	318.3521	406.6139	479.0309	552.278	628.366	673.6533	768.1321	781.3647	837.182	881.4988	903.7895	948.6686	1003.0156	1032.1531	1072.5073	1086.1194	1099.0686	1135.7712	1153.3581	1166.571	1213.3837	1251.1074	1259.5484	1289.3158	1374.1925	1467.5333	1495.7668	1499.2874	1676.7884	1842.0495	2945.47	2959.7766	3107.0508	3144.8422	3201.45	3257.2271	3839.3777
OCC1=CC(=O)N2CC12	OCC1=CC(=O)N2C[C@@H]12	
InChI=1S/C6H7NO2/c8-3-4-1-6(9)7-2-5(4)7/h1,5,8H,2-3H2	InChI=1S/C6H7NO2/c8-3-4-1-6(9)7-2-5(4)7/h1,5,8H,2-3H2/t5-,7?/m0/s1
