18
gdb 45320	3.025	1.53937	1.13253	3.7557	78.33	-0.2402	0.0119	0.2521	1076.5275	0.15034	-401.986895	-401.979503	-401.978559	-402.01895	28.784	
O	 0.0780208046	 0.014212316	 0.2773905225	-0.368291
C	-0.0180339414	 1.189926412	 0.0432713774	 0.405153
C	-1.1633047869	 2.2249693235	-0.102057998	-0.410751
C	-0.0290055306	 3.2850904796	-0.2054994443	 0.036651
C	 0.1971747531	 4.237050373	 0.972213297	-0.274926
C	 1.6758504913	 4.4184231388	 1.2366641555	-0.064651
C	 2.6150670321	 3.5468202057	 0.8683614877	-0.047777
C	 2.3333541249	 2.2647014751	 0.1287330473	-0.223552
N	 0.926334392	 2.1679021633	-0.174696771	-0.079375
H	-1.7810427641	 2.0990266425	-0.9929779552	 0.130399
H	-1.8026742083	 2.3075210642	 0.7792828934	 0.128678
H	-0.0011486903	 3.8352356936	-1.1528062961	 0.083629
H	-0.2761461413	 5.2061432254	 0.7773940899	 0.110754
H	-0.2864518333	 3.8393744553	 1.8760001567	 0.116994
H	 1.9684239959	 5.3151473765	 1.7764134281	 0.09501
H	 3.6602485348	 3.7428603854	 1.0903910422	 0.097221
H	 2.9461485891	 2.2195019016	-0.7850685117	 0.120001
H	 2.6146670282	 1.3912834187	 0.7311770486	 0.144833
87.8027	135.4653	202.0259	306.7356	394.0921	432.2522	501.3143	521.9724	555.8334	667.074	688.1216	748.3626	802.7477	881.2326	911.8325	962.5459	968.0641	989.4335	1007.3046	1034.8018	1045.6837	1079.4972	1123.1854	1131.6889	1201.1946	1215.049	1237.8009	1247.0239	1291.2232	1334.3874	1365.5777	1389.6169	1400.9874	1414.6406	1462.0934	1478.7067	1490.7012	1718.7832	1877.1798	2982.6419	3005.7607	3035.6751	3043.3401	3061.8469	3083.698	3141.2029	3155.0673	3178.2328
O=C1CC2CC=CCN12	O=C1C[C@H]2CC=CCN12	
InChI=1S/C7H9NO/c9-7-5-6-3-1-2-4-8(6)7/h1-2,6H,3-5H2	InChI=1S/C7H9NO/c9-7-5-6-3-1-2-4-8(6)7/h1-2,6H,3-5H2/t6-/m1/s1
