20
gdb 78323	2.90136	1.42057	1.2074	2.2256	78.54	-0.2135	0.0667	0.2803	1120.0434	0.170345	-403.078839	-403.070571	-403.069627	-403.110982	33.289	
C	-0.0163625917	 1.4806313233	-0.056137754	-0.414959
C	 0.0082397692	-0.0290590543	-0.1058871808	 0.009674
C	 0.7926988483	-0.7095299948	-1.1500331465	-0.081411
N	 1.3095153507	-0.6153772161	 0.2839748133	-0.166083
C	 1.1970905694	-2.1299397859	 0.3799472816	-0.050225
C	-0.1298964525	-2.783890446	 0.8507390051	-0.24156
C	-0.6002562445	-2.9145140814	-0.636694004	-0.309483
C	 0.728122487	-2.2429997058	-1.0996271081	 0.416724
O	 1.4558713245	-2.7971623531	-2.1509769023	-0.483873
H	 0.929073335	 1.8933503326	-0.418082713	 0.130131
H	-0.8294500903	 1.8753564208	-0.6745931707	 0.115411
H	-0.1652681006	 1.8294084256	 0.9707250035	 0.122764
H	-0.9042559551	-0.4971473028	 0.2541764184	 0.082935
H	 1.283244596	-0.1830481513	-1.9639806124	 0.095834
H	 2.1344076566	-2.5473812386	 0.7487221011	 0.08105
H	 0.0349000852	-3.7491384997	 1.3356198373	 0.101875
H	-0.7577341283	-2.1818888689	 1.5108261744	 0.112638
H	-0.6695465761	-3.9542682001	-0.9727553353	 0.092925
H	-1.5268212582	-2.4057323497	-0.916269818	 0.105778
H	 1.5053645953	-3.7499971236	-2.0209282397	 0.279854
169.0262	189.4523	222.7595	246.0734	262.1556	310.6781	350.305	395.7576	447.4441	498.5534	619.3241	688.3178	723.3186	733.095	786.0445	865.9525	893.1327	921.4668	935.5351	970.1857	1000.7792	1022.1633	1034.2097	1074.1202	1087.1416	1116.8258	1138.6338	1144.9856	1156.6172	1201.9085	1210.0313	1223.2772	1262.6824	1272.7881	1296.7438	1326.7624	1390.8433	1410.7822	1437.0588	1469.719	1488.3701	1490.2444	1496.4985	3036.6401	3044.743	3067.2852	3095.2729	3102.9495	3105.8202	3116.0448	3119.5859	3140.6523	3151.5502	3810.5173
CC1C2N1C1CCC21O	C[C@H]1[C@H]2N1[C@H]1CC[C@@]21O	
InChI=1S/C7H11NO/c1-4-6-7(9)3-2-5(7)8(4)6/h4-6,9H,2-3H2,1H3	InChI=1S/C7H11NO/c1-4-6-7(9)3-2-5(7)8(4)6/h4-6,9H,2-3H2,1H3/t4-,5-,6+,7-,8?/m0/s1
