12
gdb 131280	6.12791	1.06781	0.90935	3.666	75.08	-0.245	-0.0817	0.1633	1165.4772	0.077793	-431.649992	-431.642869	-431.641925	-431.681733	26.727	
O	 0.0655346807	 1.3067021369	 0.0959940692	-0.379066
C	 0.0598943672	-0.0250195527	 0.0424991517	 0.496777
N	 0.0947192059	-0.6014022799	-1.1642206291	-0.317943
C	 0.0865302934	-1.9222474235	-1.145583312	-0.05495
C	 0.044091677	-2.6291293005	 0.067326715	 0.151323
N	 0.0109131305	-1.9606526537	 1.2358929509	-0.231153
N	 0.0186884252	-0.643034498	 1.229212472	-0.222045
C	 0.0349741224	-4.0507767413	 0.0991249982	 0.261377
C	 0.0285475053	-5.2536252591	 0.0850957408	-0.370569
H	 0.0961845221	 1.62434821	-0.8173265882	 0.314115
H	 0.1137104602	-2.4447821288	-2.0978782408	 0.144258
H	 0.0223216202	-6.3158569195	 0.0899660424	 0.207876
86.7825	146.2371	235.1308	400.5245	430.2457	469.7473	484.5315	544.1883	547.297	600.5723	627.9015	670.0187	678.2059	758.7989	842.6435	892.5766	987.809	1059.9717	1114.0534	1208.4985	1272.9449	1355.9136	1393.7764	1491.1166	1546.1772	1613.6303	2236.3689	3173.4699	3501.5119	3776.7019
OC1=NC=C(N=N1)C#C	Oc1ncc(nn1)C#C	
InChI=1S/C5H3N3O/c1-2-4-3-6-5(9)8-7-4/h1,3H,(H,6,8,9)	InChI=1S/C5H3N3O/c1-2-4-3-6-5(9)8-7-4/h1,3H,(H,6,8,9)
