16
gdb 51023	2.29155	1.3458	0.98853	3.3661	73.18	-0.2656	0.0081	0.2737	1204.2943	0.121581	-437.811218	-437.802109	-437.801165	-437.846277	31.948	
N	-0.083669424	 1.3149968407	 0.0390864238	-0.434373
C	-0.0116297007	 0.0578749079	-0.0114707099	 0.113934
O	-1.1543618245	-0.6663005603	-0.101510446	-0.22369
C	-1.0392958869	-2.0850475247	-0.0168146564	 0.148059
C	-0.8954117446	-2.6433786504	 1.4320183219	-0.107817
O	-2.2035183896	-3.233347622	 1.3820800962	-0.26329
C	-2.4524240609	-2.7155256122	 0.0635593961	-0.108405
C	-0.137986745	-2.6395739263	-1.0144737478	 0.310379
C	 0.6030240603	-3.1135255817	-1.833524545	-0.472937
H	 0.8512319667	 1.7149867807	 0.089215259	 0.233159
H	 0.899406759	-0.5513028644	-0.005503327	 0.104576
H	-0.1059295221	-3.3879714026	 1.5768735051	 0.117247
H	-0.8171989089	-1.8531118055	 2.1880502873	 0.119692
H	-3.2438707183	-1.9589189559	 0.0460911414	 0.130302
H	-2.658923574	-3.5053968944	-0.6645434364	 0.120929
H	 1.2537937635	-3.5299516189	-2.5631395923	 0.212236
52.5329	78.4902	84.622	147.7352	178.93	223.8167	380.9538	400.6822	493.6721	515.1064	549.333	641.4987	679.7144	733.993	821.9694	846.8845	912.1093	958.7937	982.4794	1043.0251	1051.3613	1068.6597	1074.4929	1152.5293	1160.5202	1174.7833	1244.6641	1287.9389	1306.9705	1374.3391	1422.1373	1496.1668	1521.7012	1745.4912	2234.5821	3024.8984	3042.482	3057.9332	3085.6585	3100.8497	3497.0115	3516.3447
N=COC1(COC1)C#C	[NH][CH]OC1(COC1)C#C	
InChI=1S/C6H7NO2/c1-2-6(9-5-7)3-8-4-6/h1,5,7H,3-4H2	InChI=1S/C6H7NO2/c1-2-6(9-5-7)3-8-4-6/h1,5,7H,3-4H2
