21
gdb 115750	3.73401	0.85517	0.74249	1.3181	84.96	-0.2439	0.0499	0.2938	1569.2982	0.180669	-387.042504	-387.032514	-387.031569	-387.07823	36.125	
C	-0.0624970761	 1.6343644841	-0.206269441	-0.393729
C	-0.0510454648	 0.2123196157	 0.3655647656	-0.183006
C	-1.3224914923	-0.5420651746	 0.0172232674	 0.139568
O	-1.4836513192	-0.7372046985	-1.4095575749	-0.293746
C	-1.8321561963	-2.1248435821	-1.2250904817	-0.074756
C	-1.4640279066	-2.0696819482	 0.2716992293	-0.061911
C	-0.1987647244	-2.8470674492	 0.6647923501	-0.384931
C	-0.422418139	-4.2885301446	 0.6514293392	 0.28805
C	-0.6383784444	-5.4708360089	 0.6277372159	-0.424607
H	 0.8696422209	 2.1595071903	 0.0213804475	 0.111445
H	-0.1841004295	 1.6060051541	-1.2925964331	 0.140718
H	-0.8892545609	 2.2209112754	 0.2092668315	 0.113976
H	 0.8176482078	-0.3308825146	-0.0222597331	 0.099516
H	 0.0490300588	 0.2440938085	 1.4587361752	 0.095263
H	-2.1873132653	 0.0093641967	 0.4199744574	 0.067447
H	-2.893352071	-2.3121530881	-1.4331839761	 0.099812
H	-1.2249729885	-2.7910051096	-1.849226286	 0.108342
H	-2.2748042702	-2.3362211269	 0.9525505096	 0.087031
H	 0.6190675069	-2.6024232765	-0.0239907045	 0.137949
H	 0.13544068	-2.5362424954	 1.6627961701	 0.132046
H	-0.8143812758	-6.5177594376	 0.6120095115	 0.195525
62.9286	65.1785	97.9566	112.7331	175.5977	224.7874	273.008	338.3752	360.902	428.7209	478.0934	525.478	622.3119	640.6427	746.6404	820.0742	834.1931	874.0179	905.5089	945.6408	967.2777	978.97	1021.635	1044.1583	1083.5638	1114.458	1140.0487	1163.9325	1170.56	1231.6374	1246.7688	1282.406	1300.3095	1318.1348	1336.0168	1367.5142	1386.0461	1406.3033	1414.8797	1468.0141	1478.6063	1498.6947	1509.1852	1528.8038	2237.9927	2967.186	3013.8305	3020.0935	3026.4074	3037.6548	3054.9459	3059.5608	3070.3128	3091.965	3105.5289	3121.5557	3506.8373
CCC1OCC1CC#C	CC[C@H]1OC[C@H]1CC#C	
InChI=1S/C8H12O/c1-3-5-7-6-9-8(7)4-2/h1,7-8H,4-6H2,2H3	InChI=1S/C8H12O/c1-3-5-7-6-9-8(7)4-2/h1,7-8H,4-6H2,2H3/t7-,8-/m1/s1
