19
gdb 71651	3.05174	1.88785	1.62458	1.2246	76.86	-0.2398	0.0788	0.3186	897.0016	0.161622	-385.852846	-385.846205	-385.845261	-385.883268	28.833	
O	-0.0164614888	 1.4218176524	 0.0738039668	-0.496871
C	 0.0309813451	 0.0194017597	-0.0031925889	 0.399832
C	 0.3416160088	-0.6435775232	-1.3802631039	-0.303964
C	-0.7785920565	-1.6577556275	-1.0624593469	-0.032354
C	-0.5172903846	-2.6667687392	 0.0814416777	-0.085853
C	 0.1282180193	-1.9984596434	 1.2873262525	-0.047677
C	 0.8450254384	-0.6728957858	 1.1045147554	-0.29514
C	-1.3475310238	-1.8379396204	 1.0634089279	-0.087473
C	-1.3761419853	-0.7025731705	 0.0131735894	-0.076761
H	 0.8842768265	 1.7575867306	 0.0086439012	 0.273961
H	 0.0392319778	 0.0183497875	-2.1976458383	 0.098648
H	 1.3597204251	-1.0066742729	-1.5545296084	 0.08369
H	-1.3930721512	-2.0539345724	-1.8713206565	 0.067238
H	-0.4764446569	-3.7437603881	-0.0332880974	 0.079636
H	 0.4570051937	-2.677074677	 2.0676046176	 0.08237
H	 1.9019930321	-0.7764184539	 0.8314484708	 0.087893
H	 0.7830707609	-0.0841944278	 2.0280196689	 0.097894
H	-2.1268605037	-2.1343177043	 1.7532855312	 0.082404
H	-2.2555966868	-0.0887297437	-0.1629621591	 0.072527
213.5131	256.1761	291.4995	401.0493	420.6011	467.3475	574.2077	623.2943	692.7883	718.647	751.6217	780.419	839.0513	868.9882	879.2279	914.1741	922.0103	939.1799	963.4036	979.8901	994.9249	1028.2039	1033.2359	1068.185	1083.7384	1105.9296	1124.4215	1152.0981	1168.2843	1209.4683	1223.3233	1242.6488	1249.6181	1267.6276	1298.3191	1306.9741	1325.7381	1369.6378	1407.5805	1478.5448	1495.9129	3021.5963	3037.9736	3065.5132	3096.4443	3103.6794	3151.3183	3164.8791	3174.7635	3196.9229	3799.2481
OC12CC3C4C(C1)C4C23	O[C@@]12C[C@H]3[C@H]4[C@@H](C1)[C@H]4[C@@H]23	
InChI=1S/C8H10O/c9-8-1-3-5-4(2-8)7(8)6(3)5/h3-7,9H,1-2H2	InChI=1S/C8H10O/c9-8-1-3-5-4(2-8)7(8)6(3)5/h3-7,9H,1-2H2/t3-,4+,5-,6-,7+,8-/m1/s1
