21
gdb 38285	3.57305	1.52247	1.32642	0.5529	88.48	-0.2177	0.0317	0.2494	1041.9723	0.187016	-349.945272	-349.93862	-349.937676	-349.975927	28.883	
C	-0.1117838816	 1.5247703554	-0.0396076804	-0.216465
C	 1.442987187	 1.4569694237	 0.0537295946	-0.068037
C	 1.2085645622	 0.2104333957	 0.9728462614	-0.225679
C	 0.0032624541	-0.0496775302	 0.0088714826	-0.144905
C	 0.6781999741	-0.2317860061	-1.3179295348	 0.393863
C	 0.421755312	-0.6135069456	-2.5653300163	-0.277519
C	 1.3945202687	 0.0730903263	-3.5203815435	-0.239315
C	 1.9016776107	 1.2860748621	-2.6767804328	-0.265286
C	 1.8637911846	 0.7253590289	-1.2459138216	-0.000102
H	-0.5641325022	 1.9308937932	 0.8688607899	 0.095877
H	-0.5699955001	 1.9687950138	-0.9265944809	 0.096321
H	 2.0354743795	 2.306725522	 0.3925958286	 0.060295
H	 1.9977885327	-0.5453630097	 1.0247549907	 0.092426
H	 0.8798594159	 0.4833088051	 1.9783727702	 0.094918
H	-0.8435124845	-0.6778162152	 0.2805757966	 0.065427
H	-0.3916228249	-1.2466129502	-2.900688282	 0.084658
H	 2.229282841	-0.5830380628	-3.8094160263	 0.099334
H	 0.9110279987	 0.3847599687	-4.4528870945	 0.097431
H	 2.888513075	 1.6431246333	-2.9870114944	 0.086737
H	 1.1931869415	 2.1162087213	-2.7835140666	 0.098169
H	 2.8009366956	 0.1811230804	-1.0542475406	 0.071854
162.6531	226.864	309.9054	391.5784	467.015	516.381	594.2411	636.1555	663.0698	792.7171	815.7644	828.9734	848.8784	852.6264	880.4369	886.2767	903.7318	917.0825	967.9524	991.6125	1011.6727	1035.3705	1040.897	1069.1263	1077.7634	1095.1641	1110.554	1152.0666	1169.3246	1200.726	1220.3359	1227.2362	1227.7801	1248.852	1270.4395	1287.0673	1302.9297	1317.271	1345.2978	1373.2822	1478.9553	1485.7942	1496.6187	1516.9559	1738.0087	2980.8587	2994.7183	3032.986	3051.7184	3057.6629	3060.1089	3087.4166	3112.986	3115.2079	3119.263	3130.6821	3193.6702
C1C2CC1C1=CCCC21	C1[C@H]2C[C@@H]1[C]1[CH]CC[C@@H]21	
InChI=1S/C9H12/c1-2-8-6-4-7(5-6)9(8)3-1/h2,6-7,9H,1,3-5H2	InChI=1S/C9H12/c1-2-8-6-4-7(5-6)9(8)3-1/h2,6-7,9H,1,3-5H2/t6-,7+,9-/m0/s1
