19
gdb 43670	5.2804	0.7564	0.72701	4.0843	76.51	-0.2725	0.0131	0.2856	1578.153	0.159239	-423.045043	-423.03652	-423.035576	-423.079271	31.586	
O	 0.3490657588	 0.5373082329	-1.1361967223	-0.315768
C	 0.059850805	 1.3630047911	-0.3322736615	 0.449607
C	-1.2035387912	 1.9080520588	 0.3351954626	-0.442542
C	-0.2201021795	 2.8415931933	 1.0652378313	 0.146421
C	-0.064861831	 2.697113843	 2.5672910042	-0.238812
C	 1.1466338895	 3.4302513594	 3.1024600631	 0.034504
C	 1.0592266996	 4.897421436	 3.4481397347	-0.259252
C	 1.1998554223	 3.8673893128	 4.5426024524	-0.277509
O	 0.9024311105	 2.2122303363	 0.3381354142	-0.25249
H	-1.9084145993	 2.3770132114	-0.3529195256	 0.143706
H	-1.7276393122	 1.1831832673	 0.961490599	 0.141638
H	-0.2829629989	 3.8921825756	 0.768893767	 0.101528
H	-0.9764785894	 3.0832414802	 3.0428408255	 0.102681
H	-0.0051360399	 1.6289151635	 2.81464057	 0.107331
H	 2.0839086199	 3.0987421854	 2.6656851185	 0.106071
H	 1.9086193753	 5.5327265833	 3.2240313861	 0.117591
H	 0.0979536907	 5.3905320188	 3.3405646245	 0.107824
H	 0.3330091598	 3.6695956113	 5.1650646234	 0.110578
H	 2.1460461701	 3.7977973696	 5.0672613428	 0.116892
64.9151	65.6706	120.571	147.6204	294.9315	322.0319	410.4771	460.8874	522.0171	531.8515	723.3752	774.8453	802.7758	830.7553	845.7998	866.6657	923.802	930.5184	956.4433	997.1795	1049.8745	1058.2756	1080.767	1091.1283	1113.8476	1142.0578	1150.4224	1179.413	1199.6243	1223.8913	1226.8116	1264.243	1295.74	1335.6029	1398.6542	1421.5472	1456.9563	1465.9238	1473.1737	1507.5206	1939.3472	3014.512	3052.1132	3081.5927	3087.1852	3128.2737	3133.6777	3145.0801	3156.9567	3207.5639	3222.7542
O=C1CC(CC2CC2)O1	O=C1C[C@@H](CC2CC2)O1	
InChI=1S/C7H10O2/c8-7-4-6(9-7)3-5-1-2-5/h5-6H,1-4H2	InChI=1S/C7H10O2/c8-7-4-6(9-7)3-5-1-2-5/h5-6H,1-4H2/t6-/m1/s1
