21
gdb 103764	3.14665	1.07048	0.9553	1.7573	79.02	-0.2407	0.0641	0.3048	1308.1248	0.180793	-424.181986	-424.172274	-424.171329	-424.216553	35.738	
C	-0.0698585388	 1.5797094197	 0.0390745818	-0.467016
C	-0.0686493712	 0.0632978842	 0.0277498968	 0.296727
C	-1.3207379747	-0.5624112623	-0.5420110794	-0.145138
O	-1.4331507546	-0.1777840033	-1.9065844259	-0.42058
C	 1.2391377263	-0.6616807784	-0.2226254062	-0.38384
C	 0.6234901746	-0.6716426255	 1.1435563352	 0.235039
C	 1.1812806729	-0.1139014632	 2.4500724353	-0.138814
O	 0.6958535578	-1.2662441625	 3.1742644935	-0.277037
C	 0.1502368657	-1.8613179877	 1.9776849742	-0.141216
H	 0.8751827578	 1.9798786472	 0.418288658	 0.111646
H	-0.2220915043	 1.9639346741	-0.9731402904	 0.139197
H	-0.8759768897	 1.9701676344	 0.6721177828	 0.11201
H	-1.2700612531	-1.6586750589	-0.4449188502	 0.081882
H	-2.1974828005	-0.2230761167	 0.0341768845	 0.086209
H	-2.2895639626	-0.4710846226	-2.2310962276	 0.287304
H	 1.2114141389	-1.5794308924	-0.8026094264	 0.114116
H	 2.1333305176	-0.0647719488	-0.375767145	 0.11075
H	 2.2743447361	-0.0244458935	 2.5069506533	 0.100496
H	 0.7268422654	 0.817978319	 2.8121425292	 0.100287
H	-0.936014015	-2.0062818416	 2.0534187796	 0.097348
H	 0.6225504814	-2.8255082912	 1.7461101768	 0.100631
79.0625	107.6296	136.8371	170.7857	202.1353	233.5257	250.1637	310.9507	361.5305	402.4439	416.7063	461.0802	633.2242	714.7972	856.1123	881.8618	889.9085	933.3	963.2616	977.3823	993.4662	1012.2991	1031.9682	1046.0155	1065.6891	1107.1988	1130.2002	1156.3625	1160.5956	1190.9466	1198.7565	1243.6583	1276.566	1307.6346	1323.2683	1362.0403	1409.2833	1433.1934	1465.2194	1485.6247	1493.4468	1509.5383	1514.4705	1517.7385	1535.4733	2958.0673	2987.5735	2993.6875	3004.9132	3027.6387	3035.2727	3040.2622	3092.2682	3116.4298	3118.34	3201.3997	3829.6643
CC1(CO)CC11COC1	C[C@@]1(CO)CC21COC2	
InChI=1S/C7H12O2/c1-6(3-8)2-7(6)4-9-5-7/h8H,2-5H2,1H3	InChI=1S/C7H12O2/c1-6(3-8)2-7(6)4-9-5-7/h8H,2-5H2,1H3/t6-/m0/s1
