18
gdb 32754	2.69762	1.33032	1.01332	3.8213	75.17	-0.1768	0.0395	0.2163	1205.4349	0.148363	-435.28891	-435.27974	-435.278795	-435.323342	33.546	
C	-0.1744088818	 0.9325712389	-1.0860750855	-0.387488
C	 0.0820542196	 0.0625149536	 0.1363042685	-0.064768
O	 1.217314897	-0.8082735758	-0.0310805898	-0.28223
C	 1.023007948	-1.8799845209	-0.8388459413	 0.266253
C	 1.3774036594	-2.1413031263	-2.1408421699	 0.20797
N	 2.0867161506	-1.3373588138	-3.0391707854	-0.599917
N	 1.0060834444	-3.4183812085	-2.4845166966	-0.308025
C	 0.4433121625	-3.9333752216	-1.4115696259	 0.004288
N	 0.4207704917	-3.0507709943	-0.381054744	-0.301866
H	 0.6962882876	 1.5598206287	-1.30067025	 0.126284
H	-0.3916947242	 0.3151072521	-1.962692971	 0.134798
H	-1.0339662786	 1.5878145086	-0.9110778408	 0.119608
H	 0.3265022738	 0.6761598637	 1.0080749415	 0.112427
H	-0.8067626801	-0.5350819823	 0.3794035168	 0.09584
H	 1.9645217567	-0.3484000298	-2.8691605521	 0.239646
H	 1.8504471479	-1.5675322249	-3.9957802929	 0.246835
H	 0.0361795355	-4.9299486882	-1.3323924371	 0.125999
H	 0.1114585502	-3.2162752393	 0.5616853855	 0.264344
47.4898	88.6992	146.6965	182.8894	260.5041	270.2271	291.8412	356.588	437.3564	487.1028	499.4656	623.3633	673.2956	701.7809	737.6371	766.6084	785.6924	816.3953	887.4392	949.8111	1034.8931	1060.0333	1105.4326	1116.4008	1187.9161	1200.8407	1280.0981	1318.1478	1331.0882	1383.0462	1397.9094	1415.6184	1482.4692	1486.5627	1492.8161	1512.6936	1519.0763	1628.2877	1680.7702	3016.108	3037.8023	3087.0123	3109.9834	3121.2469	3251.4163	3543.7117	3643.3778	3668.3896
CCOC1=C(N)N=CN1	CCOc1c(N)nc[nH]1	
InChI=1S/C5H9N3O/c1-2-9-5-4(6)7-3-8-5/h3H,2,6H2,1H3,(H,7,8)	InChI=1S/C5H9N3O/c1-2-9-5-4(6)7-3-8-5/h3H,2,6H2,1H3,(H,7,8)
