17
gdb 25641	6.33223	0.72425	0.65313	1.6931	94.44	-0.1727	0.0119	0.1846	1697.8562	0.136379	-380.88587	-380.876361	-380.875417	-380.921989	33.978	
C	-0.0928719547	 1.4689903321	 0.0240195684	-0.508757
C	-0.0145909448	 0.0169375234	 0.0061833732	 0.177768
C	 0.0604494986	-1.1888459274	-0.0111646694	-0.070511
C	 0.1372290416	-2.5949653483	-0.0294270466	 0.207529
C	 1.233812033	-3.447784651	-0.0713069221	-0.351398
C	 0.7499862492	-4.7808015691	-0.0698698222	 0.282672
N	 1.5377650792	-5.9431373101	-0.1794553658	-0.613194
C	-0.6313374531	-4.714478988	-0.0272764598	-0.175443
N	-0.9869663535	-3.3868255334	-0.0080492743	-0.324803
H	 0.9087129334	 1.9133421696	 0.0170216732	 0.151383
H	-0.6300137355	 1.8561271782	-0.8498734516	 0.146377
H	-0.6085875166	 1.835591101	 0.9194009975	 0.145697
H	 2.2654732471	-3.1335637985	-0.1064389747	 0.089265
H	 2.4315578362	-5.8405647426	 0.284373671	 0.24008
H	 1.0734689348	-6.7613589099	 0.1939268011	 0.236372
H	-1.3742213275	-5.495464904	-0.0183227938	 0.106102
H	-1.9251294773	-3.030783032	 0.0310824759	 0.26086
11.9565	87.3427	90.335	177.7496	232.6485	287.6418	310.9818	375.1044	408.0127	451.7012	486.0943	547.9736	625.4091	670.4288	680.702	691.4458	767.1641	804.65	930.9655	997.456	1043.8786	1051.2908	1051.6572	1103.5189	1131.2875	1221.777	1288.7298	1347.9601	1412.457	1442.939	1465.0277	1474.2785	1479.0803	1538.5502	1631.1152	1658.4506	2347.8428	3019.7601	3074.4582	3084.9027	3252.3785	3262.5038	3531.7255	3619.2275	3693.0246
CC#CC1=CC(N)=CN1	CC#Cc1cc(N)c[nH]1	
InChI=1S/C7H8N2/c1-2-3-7-4-6(8)5-9-7/h4-5,9H,8H2,1H3	InChI=1S/C7H8N2/c1-2-3-7-4-6(8)5-9-7/h4-5,9H,8H2,1H3
