22
gdb 98279	3.02282	0.97459	0.88654	2.1721	80.49	-0.2325	0.0637	0.2962	1461.8421	0.191684	-441.530925	-441.519561	-441.518617	-441.56826	39.224	
C	-0.032547306	 1.3661167196	 0.0364627088	-0.231482
O	-0.0188802806	-0.0603207409	-0.032251954	-0.263996
C	 0.6582793249	-0.5659959526	-1.0981898613	 0.525117
O	 1.1871633335	 0.1342204804	-1.9388044167	-0.433132
N	 0.6590509227	-1.9311502598	-1.0809032624	-0.152049
C	-0.0350557819	-2.6851773197	-0.0463005377	-0.337219
C	 1.2632613574	-2.6398185037	-2.2200553359	 0.033256
C	 2.4915472743	-3.4536681669	-1.7926996564	-0.387969
C	 0.2315878345	-3.4987742586	-2.9626455424	-0.387725
H	 0.9818478031	 1.7638902278	 0.1252999262	 0.136142
H	-0.497783597	 1.7954942127	-0.8543685405	 0.137642
H	-0.614940807	 1.6120247559	 0.9254425222	 0.125241
H	-1.1088739046	-2.7870790919	-0.2492851063	 0.124085
H	 0.3960158213	-3.6865758237	 0.018668656	 0.125027
H	 0.083631627	-2.1975177499	 0.9207691145	 0.146733
H	 1.5971040281	-1.8437015029	-2.8873118111	 0.129289
H	 2.9689399573	-3.8995196157	-2.6709067022	 0.118069
H	 3.223830824	-2.8141798836	-1.2923824647	 0.12581
H	 2.2290548862	-4.2724529229	-1.1137003168	 0.112163
H	-0.6227368082	-2.8948254474	-3.2821392986	 0.123018
H	 0.6869250929	-3.9429191702	-3.8529585591	 0.119415
H	-0.1415818819	-4.3191169061	-2.3400221916	 0.112565
36.2559	81.621	96.4539	111.2665	155.7718	177.4224	198.0063	229.6885	248.0681	299.5037	312.9686	376.3023	432.5303	464.218	543.0156	648.3221	777.2725	794.6842	871.3134	929.2958	946.3678	971.6799	1071.089	1106.114	1142.5117	1151.2874	1166.3983	1183.7296	1207.7685	1219.5084	1275.9328	1357.5039	1368.0427	1398.8395	1417.4159	1431.4008	1459.5924	1480.8391	1483.7124	1484.8873	1490.1288	1496.3894	1502.3918	1504.3821	1510.0555	1525.3079	1788.2031	3020.5057	3033.4553	3038.1335	3049.0488	3091.6945	3099.1036	3103.9581	3114.3016	3117.7776	3122.6808	3123.0396	3149.3857	3151.1275
COC(=O)N(C)C(C)C	COC(=O)N(C)C(C)C	
InChI=1S/C6H13NO2/c1-5(2)7(3)6(8)9-4/h5H,1-4H3	InChI=1S/C6H13NO2/c1-5(2)7(3)6(8)9-4/h5H,1-4H3
