15
gdb 9869	5.4125	0.9158	0.83613	4.228	75.47	-0.2615	-0.0606	0.2009	1335.8548	0.117025	-362.61266	-362.604125	-362.603181	-362.646661	29.399	
C	-0.3218484951	 1.4191716528	-0.2793101975	-0.462498
C	 0.0130934527	-0.0404772327	-0.0249164869	 0.076212
C	 0.9749256048	-0.7374309042	-0.9412852034	-0.255018
N	 1.3844377451	-0.4034283972	 0.4225270665	-0.319884
C	-1.03880054	-0.815918179	 0.5769876766	 0.146506
C	-1.9618703643	-1.4316229393	 1.0568867971	 0.030844
C	-3.0216841748	-2.2025878934	 1.6486424214	 0.015864
O	-4.1862101663	-1.8719065959	 1.6653663091	-0.233664
H	 0.5098640603	 1.9200500258	-0.7850012192	 0.117354
H	-1.2117001558	 1.5102526713	-0.908794137	 0.145189
H	-0.5214139227	 1.9404025373	 0.6618841714	 0.141839
H	 0.8544695671	-1.7981969039	-1.1363910165	 0.135732
H	 1.3611520817	-0.1556774754	-1.7746549605	 0.123522
H	 1.9558272994	 0.4392202187	 0.4197411104	 0.238015
H	-2.6847571822	-3.1555353349	 2.1052619085	 0.099986
48.3917	83.4177	126.2661	205.5995	216.8374	286.0149	323.5931	361.0969	522.9209	540.2551	576.8431	710.694	809.2013	846.607	934.3658	976.8152	1001.1836	1021.083	1057.7309	1084.9559	1128.427	1152.3763	1259.7246	1313.6173	1371.5242	1417.6194	1421.6884	1480.9815	1501.2569	1507.9195	1762.9446	2322.5465	2918.7121	3037.6638	3110.9574	3113.2644	3115.5356	3206.0764	3491.2933
CC1(CN1)C#CC=O	C[C@]1(CN1)C#CC=O	
InChI=1S/C6H7NO/c1-6(5-7-6)3-2-4-8/h4,7H,5H2,1H3	InChI=1S/C6H7NO/c1-6(5-7-6)3-2-4-8/h4,7H,5H2,1H3/t6-/m1/s1
