19
gdb 82341	2.26526	1.6963	1.32857	5.443	78.37	-0.2478	0.0437	0.2915	1047.1257	0.161438	-382.07813	-382.070001	-382.069056	-382.110693	31.438	
C	 0.070402028	 1.587465945	-0.0969247829	-0.411774
C	 0.1001658537	 0.0616976074	-0.0149557052	 0.014195
C	 0.7032869696	-0.6314423597	-1.226677327	-0.033108
N	 2.1790229115	-0.5923027696	-1.2317415679	-0.325876
C	 1.4780805562	-1.8161996527	-0.7935408392	-0.028426
C	 1.4028395325	-1.9376625682	 0.7159113708	-0.229763
C	 0.9118639293	-0.5333538949	 1.1924918577	-0.188444
C	 2.0215282669	 0.3153499933	 1.6277455387	 0.312994
N	 2.874007793	 0.9823242585	 2.033913127	-0.355088
H	 1.0757239119	 1.9858451443	-0.2546855574	 0.15586
H	-0.5639956364	 1.9111681917	-0.9284121209	 0.110176
H	-0.3303905709	 2.0297872588	 0.8203311952	 0.121466
H	-0.9272927595	-0.310661814	 0.09132487	 0.082946
H	 0.168203705	-0.6073567454	-2.1710485018	 0.087463
H	 2.5266356517	-0.7137197629	-2.1788661446	 0.235796
H	 1.5458018673	-2.7124332642	-1.4015216584	 0.090051
H	 0.6595981114	-2.6955551723	 0.9859046004	 0.108143
H	 2.35310089	-2.2163696839	 1.1777436389	 0.13009
H	 0.2537208085	-0.6360653113	 2.0608380166	 0.1233
88.203	152.5678	186.406	242.9257	269.8234	329.805	372.4444	472.1589	502.6417	568.3295	650.073	726.7943	793.6372	806.2456	855.5864	880.2094	897.3517	920.8763	960.6271	993.1159	1032.2355	1059.7238	1082.7919	1108.3842	1134.9929	1143.4635	1164.0729	1219.7932	1224.5678	1251.9982	1310.6302	1325.7091	1350.1537	1361.9042	1378.8583	1413.4698	1434.7343	1486.0496	1495.7992	1502.2432	2355.0928	3019.517	3040.4394	3050.0608	3066.5196	3104.3423	3107.3232	3128.6197	3155.965	3168.6346	3515.0249
CC1C2NC2CC1C#N	C[C@H]1[C@H]2N[C@H]2C[C@H]1C#N	
InChI=1S/C7H10N2/c1-4-5(3-8)2-6-7(4)9-6/h4-7,9H,2H2,1H3	InChI=1S/C7H10N2/c1-4-5(3-8)2-6-7(4)9-6/h4-7,9H,2H2,1H3/t4-,5+,6+,7-/m1/s1
