15
gdb 14822	3.32775	1.58225	1.15417	3.9615	69.53	-0.2452	0.0173	0.2625	1005.6162	0.117907	-362.633275	-362.625204	-362.624259	-362.667445	28.051	
O	 0.0435188986	-0.045923255	 0.3633588988	-0.327686
C	 0.0666418035	 1.1670051192	 0.3255873878	 0.131371
N	 1.148235756	 1.8951764964	-0.0321700782	-0.026013
C	 2.5046480152	 1.4774228624	-0.3800948025	-0.164787
C	 2.8864847788	 2.9791632147	-0.5106437407	-0.257905
C	 1.4288454606	 3.3417477359	-0.0501109406	-0.167447
C	 0.6213371546	 4.1437080885	-0.9555365559	 0.333134
C	-0.0381973595	 4.8161399469	-1.7020583754	-0.440256
H	-0.8019172177	 1.8098732376	 0.5741820265	 0.076635
H	 3.0093929138	 0.9307370648	 0.4228684956	 0.127283
H	 2.561603295	 0.8856058052	-1.2981732652	 0.132282
H	 3.6679404247	 3.32842125	 0.1633143537	 0.124986
H	 3.1050622527	 3.3028796396	-1.5271076138	 0.132834
H	 1.4017071012	 3.7844624061	 0.9539685153	 0.117622
H	-0.6255439475	 5.4055004076	-2.3624991954	 0.207948
18.7852	82.4993	147.0892	215.5943	238.3447	308.7832	439.1764	499.8697	610.8746	632.2946	667.3052	736.6496	800.3155	854.7078	923.4812	952.356	1033.5108	1046.6344	1085.4797	1155.1167	1171.5583	1210.7111	1252.2584	1262.9596	1315.0714	1357.8465	1396.418	1441.4989	1488.9151	1523.2713	1790.3151	2237.1125	2933.0283	3015.8943	3048.1866	3091.3985	3103.7269	3164.9317	3501.2165
O=CN1CCC1C#C	O=CN1CC[C@H]1C#C	
InChI=1S/C6H7NO/c1-2-6-3-4-7(6)5-8/h1,5-6H,3-4H2	InChI=1S/C6H7NO/c1-2-6-3-4-7(6)5-8/h1,5-6H,3-4H2/t6-/m1/s1
