18
gdb 106205	3.40304	1.40477	1.34642	0.8589	73.52	-0.2256	0.0543	0.2799	1017.3335	0.149302	-401.882972	-401.875716	-401.874772	-401.914899	28.787	
O	 0.1773988022	 1.3909439424	 0.3355691466	-0.41084
C	-0.00040072	 0.0621244955	-0.1458269954	-0.213208
C	-1.4150626784	-0.4172798584	-0.0693514713	 0.31457
C	-2.1465341762	-0.8437596653	 1.1996063335	-0.121504
C	-3.5612759885	-0.3029957714	 1.2205665364	-0.246277
C	-3.8243135489	-0.3411695713	-0.268308569	-0.046161
C	-2.5768063488	-0.0972971277	-1.0349166935	-0.126273
N	-3.1232528518	-1.4893089258	-0.9288863758	-0.156235
C	-2.0058260145	-1.8001623829	 0.0445339516	-0.089606
H	-0.3427296239	 1.9773391741	-0.2229296374	 0.28305
H	 0.375765547	-0.0353315012	-1.1768140602	 0.093687
H	 0.63442347	-0.567105728	 0.4870718474	 0.112771
H	-1.5670580553	-1.0027443075	 2.100310933	 0.096777
H	-4.2480207884	-0.9457578002	 1.7813797142	 0.111078
H	-3.6247556887	 0.7144129033	 1.6208358173	 0.110647
H	-4.7960658409	-0.1069744216	-0.6882357997	 0.097182
H	-2.503575904	 0.4109275598	-1.9908122081	 0.09146
H	-1.5612230711	-2.7862227038	 0.0650980303	 0.098883
78.1413	128.8365	237.7798	316.5236	376.3866	403.1078	541.5195	640.0146	726.278	735.0258	758.7861	805.9202	825.2267	862.7451	885.7073	926.2632	955.5176	963.423	988.2725	1004.3829	1017.1429	1034.746	1050.0401	1059.6535	1073.5322	1136.8209	1164.2944	1186.7611	1206.472	1247.0508	1250.1438	1296.6663	1315.5885	1366.7239	1380.4591	1408.3891	1449.4283	1487.3822	1494.908	2976.1253	3046.3704	3070.5088	3090.2358	3160.9987	3184.3449	3197.3183	3206.729	3817.4051
OCC12C3CC4C1N4C23	OC[C@@]12[C@H]3C[C@H]4[C@@H]1N4[C@@H]23	
InChI=1S/C7H9NO/c9-2-7-3-1-4-6(7)8(4)5(3)7/h3-6,9H,1-2H2	InChI=1S/C7H9NO/c9-2-7-3-1-4-6(7)8(4)5(3)7/h3-6,9H,1-2H2/t3-,4-,5+,6-,7-,8?/m0/s1
