17
gdb 13195	3.99939	1.42776	1.17738	2.7284	65.44	-0.2346	0.032	0.2666	1047.4786	0.142486	-401.012502	-401.004074	-401.00313	-401.046404	29.073	
C	-0.3429715511	 1.3585570231	 0.983643346	-0.331971
N	 0.0359297805	-0.0372214284	 0.9331328957	-0.302239
C	 0.8199197914	-0.5513623528	-0.0441313396	 0.357474
O	 1.3134303981	 0.0790119655	-0.9645846149	-0.391086
C	 1.0697796373	-2.0506399392	 0.0877439657	 0.051676
C	 2.4975560346	-2.4571168792	 0.5191741682	-0.277472
C	 1.7998173563	-3.0572655579	 1.7561498623	-0.067648
O	 0.4941617541	-2.6504076581	 1.2746326018	-0.301858
H	 0.1158134001	 1.8529142965	 0.1258226949	 0.167772
H	-1.4305604846	 1.4788294988	 0.9268401852	 0.126932
H	 0.0124075826	 1.8367045926	 1.9034517333	 0.124539
H	-0.2957783432	-0.6933178057	 1.6245712729	 0.259602
H	 0.7061187206	-2.5335627192	-0.8261636888	 0.110731
H	 2.9890717787	-3.1761924456	-0.1359029948	 0.121844
H	 3.171795301	-1.6213065839	 0.7068445628	 0.129913
H	 1.8639546092	-4.1457511722	 1.8601938283	 0.112435
H	 2.0409783543	-2.5916081344	 2.7185966811	 0.109355
63.8394	82.8692	101.4276	136.4959	205.9037	276.0035	331.2616	469.3079	578.105	638.3793	744.6372	790.2908	816.0569	866.4846	951.4108	957.1844	1019.305	1038.1197	1092.8804	1118.7632	1154.5422	1167.1745	1180.6302	1211.1096	1249.678	1254.2355	1268.6213	1341.5663	1356.3575	1441.0163	1494.8965	1496.7542	1500.1496	1530.0262	1572.5722	1782.6282	3026.6061	3028.7473	3048.9337	3073.0269	3078.2763	3095.2791	3146.6565	3150.9725	3614.8587
CNC(=O)C1CCO1	CNC(=O)[C@H]1CCO1	
InChI=1S/C5H9NO2/c1-6-5(7)4-2-3-8-4/h4H,2-3H2,1H3,(H,6,7)	InChI=1S/C5H9NO2/c1-6-5(7)4-2-3-8-4/h4H,2-3H2,1H3,(H,6,7)/t4-/m1/s1
