19
gdb 50465	4.01701	0.93734	0.81405	0.2599	76.55	-0.2457	-0.0299	0.2158	1376.9786	0.159341	-423.07569	-423.067032	-423.066088	-423.109942	31.802	
O	-0.1731586599	-0.014426899	 0.0053790628	-0.245382
C	-0.0445352574	 1.1817270378	 0.0079412481	 0.147811
C	 1.2790473408	 1.918887182	-0.0002893323	-0.057271
C	 1.3812184978	 2.7965043171	-1.2644775889	-0.227383
C	 2.6872233625	 3.6147307095	-1.2884137459	-0.305603
C	 2.8854020856	 4.4111345654	-0.0055968026	 0.396195
O	 3.1666396535	 5.5861020408	-0.0043511657	-0.301797
C	 2.7074051931	 3.6071814124	 1.2754689153	-0.305603
C	 1.4011479655	 2.7890482458	 1.2672766295	-0.227386
H	-0.9357497481	 1.8551645188	 0.017051131	 0.072456
H	 2.0703183055	 1.1600985426	-0.0087573995	 0.09405
H	 1.3192338909	 2.1743188392	-2.1633021322	 0.119294
H	 0.52392544	 3.4822447432	-1.2970608995	 0.113593
H	 3.5381287274	 2.925851038	-1.3865164606	 0.122316
H	 2.7166276994	 4.3029334831	-2.1362922284	 0.124753
H	 3.5597179689	 2.9177759977	 1.3561068652	 0.122316
H	 2.7501843771	 4.2903806171	 2.1268173871	 0.124754
H	 0.5445058667	 3.4745452232	 1.3173888805	 0.113594
H	 1.3532919506	 2.1615809752	 2.163288786	 0.119293
52.5554	65.4735	159.6662	172.0484	279.3524	335.6014	367.8512	419.9177	457.8555	496.0244	554.072	680.9126	752.6557	762.2469	868.6531	899.3853	917.825	942.0653	1014.6262	1017.9705	1070.3122	1077.1425	1117.2752	1137.4226	1176.9324	1216.2902	1257.7577	1271.1271	1286.57	1310.4178	1347.1761	1351.4846	1371.3835	1385.8115	1427.59	1460.3437	1470.4279	1488.2796	1502.6311	1821.9248	1836.8646	2839.7012	3013.7335	3019.4069	3022.6716	3025.9183	3048.3835	3074.4453	3078.6691	3108.1553	3109.5172
O=CC1CCC(=O)CC1	O=CC1CCC(=O)CC1	
InChI=1S/C7H10O2/c8-5-6-1-3-7(9)4-2-6/h5-6H,1-4H2	InChI=1S/C7H10O2/c8-5-6-1-3-7(9)4-2-6/h5-6H,1-4H2
