15
gdb 45774	3.50508	1.21416	0.93988	6.9757	70.87	-0.2348	-0.0236	0.2112	1172.2164	0.113461	-416.863593	-416.855503	-416.854559	-416.897028	29.358	
O	-0.0968674502	 0.0081510508	 0.0642675717	-0.34752
C	-0.06892786	 1.2129167721	 0.009777871	 0.416103
N	-1.1625398943	 2.0573639782	-0.0823049422	-0.324425
C	-0.7749746572	 3.4024898312	-0.0291660805	-0.017709
C	 0.5535610197	 3.5248797284	 0.0535550394	-0.169401
C	 1.1661247327	 2.1453675347	 0.0520265391	-0.165813
C	 2.0716517721	 1.850436456	 1.271214711	-0.347999
C	 2.7964470314	 0.5837614386	 1.1780733104	 0.282262
N	 3.4147394157	-0.3895247785	 1.1109528665	-0.304538
H	-2.1096050266	 1.7166126439	-0.0686666409	 0.267607
H	-1.5311723134	 4.1732889125	-0.0729594225	 0.139572
H	 1.1086148206	 4.4500603874	 0.0836947549	 0.115609
H	 1.748048301	 1.966578887	-0.8612132407	 0.141095
H	 2.8111160719	 2.6530415014	 1.367736588	 0.155224
H	 1.4762531465	 1.8572593964	 2.1902312147	 0.159935
53.9336	91.0764	154.3733	227.66	273.0073	385.1168	440.0303	486.0424	500.7048	553.8751	676.7743	696.2628	732.0831	784.6146	842.2844	915.8377	946.4648	972.1497	1016.6957	1067.0217	1091.7337	1143.12	1191.5436	1198.867	1240.3086	1312.0837	1347.0158	1375.642	1412.9055	1464.5775	1668.0125	1844.	2367.34	3034.8794	3049.877	3089.9953	3234.8038	3257.8151	3663.2215
O=C1NC=CC1CC#N	O=C1NC=C[C@H]1CC#N	
InChI=1S/C6H6N2O/c7-3-1-5-2-4-8-6(5)9/h2,4-5H,1H2,(H,8,9)	InChI=1S/C6H6N2O/c7-3-1-5-2-4-8-6(5)9/h2,4-5H,1H2,(H,8,9)/t5-/m1/s1
