20
gdb 82593	2.20331	2.11824	1.59078	0.4547	77.71	-0.207	0.0706	0.2777	959.6913	0.171606	-403.077162	-403.069365	-403.068421	-403.109072	31.063	
C	-0.1638030978	 1.5509947084	 0.6837120817	-0.426502
C	-0.0902428552	 0.0435468223	 0.5309283224	 0.066875
C	 0.047593794	-0.6076264907	-0.8533110643	 0.064662
O	 1.1831106779	-0.0726363149	-1.5807752467	-0.309566
C	 2.1063171779	-0.9344880244	-0.8668333098	 0.064667
C	 2.4567821238	-0.3608307663	 0.5141869121	 0.066878
C	 2.9955746513	 1.0493872688	 0.6629558742	-0.426498
N	 1.090663532	-0.7641877314	 1.0599609261	-0.216541
C	 0.9391420942	-1.6673271049	-0.1769706253	-0.039612
H	 0.4772188041	 2.063759021	-0.0342619496	 0.135115
H	-1.1929559378	 1.8851496707	 0.5141566927	 0.115141
H	 0.1226848925	 1.8557096988	 1.6950640996	 0.12586
H	-0.9579588265	-0.4099481199	 1.029655427	 0.085342
H	-0.8193942785	-0.765639099	-1.4999164237	 0.075138
H	 2.8733747929	-1.3519375298	-1.5241719238	 0.075137
H	 3.1477003591	-1.0617923466	 1.0026568329	 0.085341
H	 2.5355763818	 1.7370082145	-0.0476055879	 0.135111
H	 2.8307753955	 1.4256889906	 1.6773514612	 0.125858
H	 4.075311928	 1.0487246044	 0.4792899494	 0.115142
H	 0.7703544106	-2.7352508917	-0.0605547284	 0.082452
126.703	181.0216	184.3339	248.9839	278.3423	308.73	473.3878	518.6709	602.1242	657.687	689.2538	714.4055	815.6514	839.654	866.551	870.7682	907.6309	914.4113	945.9572	979.946	1008.9477	1069.0671	1078.5164	1110.7658	1117.0791	1145.3413	1174.6173	1182.4696	1183.0164	1220.1421	1260.07	1286.1261	1296.006	1298.2552	1348.0112	1374.0582	1388.6775	1398.2377	1407.0609	1477.8056	1488.8808	1494.71	1517.8445	3005.9065	3006.6421	3040.5944	3044.0917	3071.7713	3075.4559	3100.7937	3104.2948	3135.338	3141.9787	3149.4906
CC1C2OC3C(C)N1C23	C[C@H]1[C@H]2O[C@H]3[C@@H](C)N1[C@@H]23	
InChI=1S/C7H11NO/c1-3-6-5-7(9-6)4(2)8(3)5/h3-7H,1-2H3	InChI=1S/C7H11NO/c1-3-6-5-7(9-6)4(2)8(3)5/h3-7H,1-2H3/t3-,4+,5-,6+,7-
