19
gdb 65236	2.78171	1.22054	1.08753	1.3326	75.67	-0.2434	-0.025	0.2183	1197.173	0.157099	-423.016447	-423.007457	-423.006513	-423.050969	33.233	
C	 0.121521971	 1.5237032612	-0.3067444885	-0.487854
C	 0.0794592103	 0.0236279939	-0.1183736236	 0.434044
C	 1.2599477635	-0.7805921575	-0.4717321687	-0.223577
O	 0.9645000931	-0.4869534469	 0.895117961	-0.285348
C	-1.276835997	-0.643883131	-0.1515647123	-0.1602
C	-2.4729072408	-0.1477057656	 0.7292993562	-0.262675
C	-3.438882959	-0.2878459315	-0.486294164	-0.338513
C	-2.1942508016	-0.4244314342	-1.3761555015	 0.389678
O	-1.9843745126	-0.2816300858	-2.5456793392	-0.301624
H	 1.1536036354	 1.879652162	-0.2748454002	 0.130421
H	-0.3155031026	 1.8010756216	-1.271328987	 0.141589
H	-0.4340927971	 2.0387333122	 0.4835140935	 0.126688
H	 1.1412471112	-1.8227101771	-0.7658768067	 0.112105
H	 2.1407783651	-0.2854719098	-0.878170511	 0.114534
H	-1.1399912282	-1.72199732	-0.0074760251	 0.107865
H	-2.697320561	-0.7578950537	 1.6038437695	 0.117751
H	-2.3593844548	 0.8913218419	 1.0436000498	 0.119345
H	-4.0256331392	-1.2121028836	-0.4702064131	 0.134541
H	-4.107279006	 0.5439852441	-0.7207251593	 0.131232
37.3447	87.5808	128.6325	190.9869	237.8898	311.7422	354.8233	378.2075	436.3078	463.2086	572.8838	645.3157	696.8621	762.8187	805.058	864.3214	901.2316	925.7589	929.4109	991.5036	1000.0328	1043.5245	1067.7168	1084.8266	1111.6305	1134.9597	1162.243	1193.5624	1217.5934	1228.9864	1257.9956	1286.4593	1307.4871	1401.2961	1420.4099	1443.6551	1483.6969	1492.052	1502.1346	1531.1686	1884.1137	3041.4905	3046.9764	3060.1203	3080.8351	3087.4197	3107.6377	3116.0365	3128.7224	3145.3528	3166.3457
CC1(CO1)C1CCC1=O	C[C@]1(CO1)[C@H]1CCC1=O	
InChI=1S/C7H10O2/c1-7(4-9-7)5-2-3-6(5)8/h5H,2-4H2,1H3	InChI=1S/C7H10O2/c1-7(4-9-7)5-2-3-6(5)8/h5H,2-4H2,1H3/t5-,7-/m0/s1
