21
gdb 113798	2.93985	1.11431	0.93611	2.7758	79.34	-0.2458	0.0807	0.3266	1344.9287	0.179976	-424.176875	-424.167058	-424.166114	-424.212482	35.947	
C	-0.2772508659	 1.4253869652	-0.5324762371	-0.235092
O	-0.2993987969	 0.3392715484	 0.3726237692	-0.233808
C	-1.3385342977	-0.5503337283	 0.1210736986	 0.117364
C	-1.162521875	-1.6088464022	-0.9399856908	-0.332221
C	-1.2125922214	-1.9888756541	 0.5312516391	-0.119652
C	-0.0419706685	-2.6407000671	 1.2156744572	 0.387931
C	 0.2399237466	-4.0564075962	 0.7541152925	-0.445498
C	 1.0234806664	-1.8713403279	 1.8802724778	-0.2265
O	-0.0213959576	-2.4805777241	 2.6441220059	-0.281849
H	 0.5607148149	 2.0650878748	-0.246841563	 0.129037
H	-0.1382653309	 1.0855820308	-1.5685526883	 0.11116
H	-1.2071737649	 2.0113451373	-0.4810227573	 0.10946
H	-2.3287720971	-0.1031317058	 0.2271020847	 0.087732
H	-1.987159849	-1.8749916114	-1.5919940236	 0.11156
H	-0.1825023191	-1.6383772641	-1.4060573781	 0.119359
H	-2.1531385538	-2.4297028974	 0.8565286211	 0.100371
H	 0.5384792446	-4.0750624773	-0.2988363064	 0.11888
H	 1.0365862372	-4.5016042582	 1.3552608001	 0.124004
H	-0.6554149857	-4.6796469582	 0.8582763208	 0.120273
H	 2.0062543691	-2.3307911751	 1.9925982378	 0.097272
H	 1.0078108248	-0.7880197092	 1.8458455299	 0.140217
22.6074	98.5013	145.8105	191.1499	200.7821	209.803	288.6406	301.0638	365.3535	385.2779	438.7939	502.1892	636.9765	678.4483	788.7133	816.0345	850.7955	884.1923	929.2178	992.2344	998.1106	1037.422	1054.6169	1063.9538	1103.968	1131.7704	1138.9063	1143.422	1169.0328	1173.4527	1183.6384	1218.5431	1240.1156	1275.0622	1382.2739	1404.8142	1413.5785	1418.2858	1473.0567	1482.5254	1485.4548	1494.7628	1496.2796	1509.7616	1530.0222	2985.9905	3034.3869	3038.4588	3080.0466	3085.0604	3097.9513	3121.8079	3123.3317	3124.4975	3128.5507	3213.4188	3217.2856
COC1CC1C1(C)CO1	CO[C@H]1C[C@H]1[C@@]1(C)CO1	
InChI=1S/C7H12O2/c1-7(4-9-7)5-3-6(5)8-2/h5-6H,3-4H2,1-2H3	InChI=1S/C7H12O2/c1-7(4-9-7)5-3-6(5)8-2/h5-6H,3-4H2,1-2H3/t5-,6+,7-/m1/s1
