12
gdb 131335	3.68708	1.74463	1.18427	5.0936	60.48	-0.2253	-0.0116	0.2137	919.3804	0.080058	-468.807328	-468.801086	-468.800142	-468.837897	24.213	
O	 0.0969620615	 1.3538832346	 0.1226498519	-0.422632
C	 0.0750289088	 0.0185417236	 0.0300345071	 0.440417
N	 0.0756259876	-0.7136703758	-1.0506521331	-0.332156
N	 0.0477152762	-2.0712945469	-0.6778074345	-0.357828
C	 0.0323890544	-2.0379594593	 0.6151551434	 0.511601
O	 0.004135393	-2.9486017722	 1.6163838661	-0.220291
C	 0.0024621661	-2.2069430657	 2.7847573788	-0.034346
C	 0.0291214551	-0.8834371997	 2.540632651	-0.136217
N	 0.0480818004	-0.7701358409	 1.1462771499	-0.117509
H	 0.1138007287	 1.6923078823	-0.7826818348	 0.323032
H	-0.0189237296	-2.7712887936	 3.7005587619	 0.168706
H	 0.0357918079	-0.0423287766	 3.2102290523	 0.177222
187.3506	227.8664	292.9998	375.9858	436.2601	573.6162	581.2809	658.7304	660.6696	721.7864	725.5743	745.9315	802.6191	816.5563	930.8653	1034.0684	1046.3704	1106.7314	1180.7982	1196.3563	1261.5888	1337.523	1435.3282	1509.6107	1590.7797	1630.6027	1669.7722	3295.4428	3316.6551	3791.7209
OC1=NN=C2OC=CN12	Oc1nnc2occn12	
InChI=1S/C4H3N3O2/c8-3-5-6-4-7(3)1-2-9-4/h1-2H,(H,5,8)	InChI=1S/C4H3N3O2/c8-3-5-6-4-7(3)1-2-9-4/h1-2H,(H,5,8)
