19
gdb 36872	4.44427	0.93124	0.88204	0.3848	77.48	-0.2349	0.0219	0.2568	1385.3538	0.16061	-419.1871	-419.178574	-419.17763	-419.221997	30.414	
C	-0.0743892708	 1.6484397536	 0.4272530244	-0.248914
N	-0.3732742761	 0.4768760096	-0.394962433	-0.065404
C	-0.0909561347	-0.814786776	 0.2272891735	-0.217731
C	-1.4926065037	-0.3405682535	 0.0628589035	-0.22065
C	 1.3655000713	 2.0398342656	 0.2783117431	 0.423059
N	 2.2591040732	 1.9079166603	 1.1723717077	-0.310417
C	 3.5099352185	 2.4155833404	 0.5865963437	-0.184774
C	 3.1298979139	 2.8141489632	-0.863495499	-0.109528
O	 1.7073168652	 2.56962719	-0.9253064583	-0.246511
H	-0.7088949911	 2.4735689396	 0.0849830461	 0.123519
H	-0.2604399231	 1.4825150506	 1.4991313538	 0.11224
H	 0.3152560597	-1.5742450943	-0.4341810221	 0.118195
H	 0.3256418046	-0.8135596514	 1.232631235	 0.125621
H	-2.0200136007	-0.0271783597	 0.9625804464	 0.11094
H	-2.1282796472	-0.7464470049	-0.7187442728	 0.119419
H	 3.8774246116	 3.2636183736	 1.1748787975	 0.115993
H	 4.2818903992	 1.6401036808	 0.620135588	 0.117063
H	 3.3069536705	 3.8680416349	-1.0938455883	 0.118389
H	 3.6165100498	 2.1989086277	-1.6261361891	 0.11949
38.6792	64.2837	89.2804	126.3808	260.8551	318.5649	376.2478	410.2872	629.2464	751.6743	762.5854	782.2544	830.521	844.385	908.1018	918.4304	956.5144	981.9039	1009.1399	1026.7008	1035.1488	1069.612	1113.5962	1119.1514	1121.0719	1173.3413	1178.5959	1214.1541	1241.5231	1247.4612	1290.142	1317.6936	1334.5105	1378.1779	1408.007	1480.1598	1494.9238	1502.2125	1523.5683	1526.5406	1736.8282	2992.8703	3039.7172	3054.0385	3069.5564	3069.7013	3096.4318	3102.932	3105.0746	3180.7552	3196.0888
C(N1CC1)C1=NCCO1	C(N1CC1)C1=NCCO1	
InChI=1S/C6H10N2O/c1-4-9-6(7-1)5-8-2-3-8/h1-5H2	InChI=1S/C6H10N2O/c1-4-9-6(7-1)5-8-2-3-8/h1-5H2
