23
gdb 120149	2.89403	0.96625	0.86404	0.8973	86.91	-0.2485	0.0836	0.3322	1486.4677	0.205328	-388.246889	-388.237234	-388.236289	-388.281765	35.986	
C	-0.5952361605	 1.4702594195	-0.133942615	-0.223558
O	-0.51763096	 0.0718735167	-0.2513860268	-0.231851
C	 0.4585965766	-0.3462071052	-1.1876213068	-0.098154
C	 0.4657421779	-1.8551116705	-1.1937823663	 0.001885
C	-0.3679457161	-2.7416194981	-2.073014736	-0.059851
C	-0.4445470068	-2.2135432806	-3.5125891331	-0.268038
C	 1.1130066309	-2.3542807777	-3.6320616049	 0.047255
C	 1.9749366776	-1.2090077993	-4.1532986231	-0.414198
C	 1.1685010124	-2.7796397061	-2.1547186478	-0.116888
H	 0.359153956	 1.9089603863	 0.2007428152	 0.100109
H	-0.8717054914	 1.9488989945	-1.0876867852	 0.099796
H	-1.3652119871	 1.6960799235	 0.6081967505	 0.124618
H	 0.2306203193	 0.0738575428	-2.1782354704	 0.086452
H	 1.4516164609	 0.039692513	-0.8962567777	 0.08226
H	 0.5226352753	-2.2361809354	-0.1752590067	 0.093178
H	-1.0401488444	-3.4802770554	-1.65334883	 0.082998
H	-0.9786509452	-2.8815434256	-4.1914360235	 0.100495
H	-0.8595127286	-1.2073032511	-3.6334555013	 0.096994
H	 1.3206025581	-3.2414816405	-4.2402541805	 0.076162
H	 1.8156949187	-0.2789791787	-3.6013717002	 0.117498
H	 3.0390726471	-1.4595833572	-4.0762744052	 0.11344
H	 1.758837181	-1.0094272164	-5.2091780648	 0.111774
H	 1.8459085384	-3.5369888685	-1.7744348404	 0.077621
67.5105	88.5019	116.5383	194.6016	206.9506	222.2078	258.167	321.4913	371.2507	393.1425	488.5142	598.4769	672.0467	754.8123	783.4639	837.0604	864.8538	929.8013	965.9158	977.0365	997.6787	1003.988	1014.5102	1060.0204	1080.6556	1111.6165	1123.228	1135.1181	1155.9174	1181.4494	1194.2585	1210.3293	1235.0746	1244.1445	1270.8583	1279.3811	1306.3327	1342.0716	1380.0592	1400.0264	1412.9314	1465.3212	1483.4728	1484.8948	1491.4778	1497.4529	1499.4749	1506.3488	1532.0125	2945.5079	2963.8018	3001.2836	3004.5442	3029.0768	3037.8836	3047.1874	3087.8631	3104.6935	3109.5037	3116.7907	3124.897	3159.8734	3183.1164
COCC1C2CC(C)C12	COC[C@H]1[C@H]2C[C@@H](C)[C@@H]12	
InChI=1S/C8H14O/c1-5-3-6-7(4-9-2)8(5)6/h5-8H,3-4H2,1-2H3	InChI=1S/C8H14O/c1-5-3-6-7(4-9-2)8(5)6/h5-8H,3-4H2,1-2H3/t5-,6-,7+,8-/m1/s1
