17
gdb 89387	2.96389	1.42102	1.09638	3.381	68.57	-0.2463	-0.0394	0.2069	1107.6743	0.134528	-458.969603	-458.961223	-458.960279	-459.002656	31.603	
C	-0.1511643098	 1.5775127152	 0.0653434022	-0.485922
C	-0.0254677167	 0.080009974	 0.1133445294	 0.398961
C	-0.9870285122	-0.8176955101	-0.6708510378	-0.310322
C	-1.1332881411	-2.0921631069	 0.1847655489	 0.063474
O	-1.1814494516	-3.285520343	-0.5461880679	-0.433741
C	 0.0044035043	-2.0653428448	 1.2112759663	 0.38123
O	 0.3835759224	-3.0370157614	 1.8161045789	-0.331894
C	 0.5425625311	-0.6588658098	 1.2640460701	-0.170499
O	 1.3068161506	-0.4502055011	 0.0587144492	-0.271659
H	 0.6331527964	 2.0497051324	 0.6616856515	 0.136802
H	-0.061156442	 1.9354759302	-0.9657352527	 0.137858
H	-1.1261658264	 1.8956431977	 0.4478892832	 0.12948
H	-1.9496817049	-0.3296007834	-0.8412005871	 0.110438
H	-0.5501470561	-1.0670936975	-1.6416205211	 0.138334
H	-2.0441352783	-1.9747341383	 0.8059740627	 0.096637
H	-0.7921465022	-3.9636475673	 0.0242704592	 0.295044
H	 0.9354611866	-0.212188746	 2.1727628651	 0.115778
65.3142	137.4124	205.2373	239.2773	284.5184	343.56	373.561	408.4677	439.4027	489.2205	549.8284	613.2815	679.9959	741.7584	824.0325	830.9122	915.0474	963.0116	1003.9229	1026.0528	1065.0601	1090.4579	1139.2114	1173.2541	1191.9226	1236.9579	1256.5615	1270.1201	1306.0362	1363.5805	1408.991	1412.1448	1435.7231	1482.6938	1484.1329	1496.3857	1842.1068	2901.3691	3039.7018	3067.4878	3104.3943	3116.9511	3128.7042	3162.1389	3741.2484
CC12CC(O)C(=O)C1O2	C[C@]12C[C@@H](O)C(=O)[C@H]1O2	
InChI=1S/C6H8O3/c1-6-2-3(7)4(8)5(6)9-6/h3,5,7H,2H2,1H3	InChI=1S/C6H8O3/c1-6-2-3(7)4(8)5(6)9-6/h3,5,7H,2H2,1H3/t3-,5-,6+/m1/s1
