15
gdb 34191	4.37943	1.39897	1.24124	4.8686	74.85	-0.2403	-0.03	0.2103	980.8646	0.115049	-379.641854	-379.635319	-379.634375	-379.672673	26.137	
N	 0.0471552543	-1.1366180889	-0.0733242415	-0.338697
C	 0.0157572077	 0.019846946	-0.0374603464	 0.200597
C	-0.0200637023	 1.4473922613	 0.0569183133	 0.186675
C	-1.2577173091	 2.2573284606	 0.4199431919	-0.296085
C	-0.6354490868	 3.3976123198	-0.4536427632	-0.063182
C	 0.2249461453	 4.2607794601	 0.4324507487	-0.082122
C	 1.3057731497	 3.5565092179	 0.7720757555	-0.070563
C	 1.2664951738	 2.2674948679	 0.031161323	-0.1066
N	 0.3249765101	 2.3772447635	-1.0926753338	-0.146442
H	-2.1355685531	 1.8242048833	-0.0617829091	 0.139011
H	-1.4654341464	 2.461158122	 1.4728351781	 0.118278
H	-1.2872710747	 3.8946443309	-1.1686450098	 0.099324
H	-0.0844625144	 5.2210356292	 0.8239200773	 0.118857
H	 2.0861758102	 3.8262793974	 1.4700227013	 0.120931
H	 2.1703046756	 1.7031646791	-0.1740383153	 0.120016
144.7182	160.9604	338.7304	371.3471	488.6366	510.4576	567.5633	587.8011	725.9965	734.8093	763.2079	816.4369	822.5768	867.3593	876.1678	942.9547	952.484	982.4777	1013.2756	1051.9273	1092.6835	1105.6367	1147.1	1199.801	1215.6564	1244.9866	1281.6144	1294.7688	1351.1848	1380.9296	1487.0631	1655.0892	2343.2878	3071.0182	3133.5735	3142.053	3174.4752	3216.8613	3242.8836
N#CC12CC3C=CC1N23	N#C[C@@]12C[C@H]3C=C[C@@H]1N23	
InChI=1S/C7H6N2/c8-4-7-3-5-1-2-6(7)9(5)7/h1-2,5-6H,3H2	InChI=1S/C7H6N2/c8-4-7-3-5-1-2-6(7)9(5)7/h1-2,5-6H,3H2/t5-,6+,7+,9?/m1/s1
