18
gdb 88308	4.27868	0.85191	0.80402	1.6123	80.83	-0.2328	-0.0301	0.2027	1462.1569	0.144399	-401.894292	-401.884649	-401.883705	-401.929476	34.781	
C	-0.7540039773	 1.0943511031	 0.1886443096	-0.327603
N	 0.0111726524	-0.1493033387	 0.1181728537	-0.080466
C	 1.3169343662	-0.1228564411	-0.4889513483	-0.237184
C	 1.1865337835	-0.3548591159	 0.9900458278	-0.102935
C	 1.6834254554	 0.7106281383	 1.9201451037	 0.385318
O	 1.7711040692	 1.8768322993	 1.6130591984	-0.304822
C	 2.0594910963	 0.1896559837	 3.3183827083	-0.498138
C	 2.5842975985	 1.1958754271	 4.2228696572	 0.323071
C	 3.0192634398	 2.0231592968	 4.9761990004	-0.420185
H	-0.1445900724	 1.9914223543	 0.3423150237	 0.148391
H	-1.3076596549	 1.1908128302	-0.7502056371	 0.126108
H	-1.480627686	 1.0155950817	 1.003149535	 0.12244
H	 1.5696788958	-0.9630996522	-1.1308404629	 0.121501
H	 1.7344875022	 0.8407970487	-0.7759453632	 0.136065
H	 1.2583584103	-1.3706573716	 1.3723375572	 0.094072
H	 1.1637284848	-0.2878893636	 3.7413736358	 0.15947
H	 2.7797953607	-0.6303395888	 3.184888295	 0.155603
H	 3.4034737356	 2.7602334388	 5.6369085556	 0.199294
39.3715	77.6497	116.8416	185.2936	233.0889	247.5128	306.9508	325.2272	379.9448	396.6226	423.1077	576.6096	628.37	646.596	704.3122	734.863	827.9876	870.6688	945.0209	959.8093	1011.3207	1033.4655	1062.8315	1099.2902	1127.8648	1139.4215	1169.747	1211.7382	1217.7798	1321.2049	1333.115	1400.3854	1436.7018	1445.6037	1487.1604	1496.4808	1511.4018	1799.6317	2250.6785	3008.6983	3028.7848	3034.6731	3094.6114	3102.2595	3107.8977	3130.4421	3187.5068	3507.1101
CN1CC1C(=O)CC#C	CN1C[C@H]1C(=O)CC#C	
InChI=1S/C7H9NO/c1-3-4-7(9)6-5-8(6)2/h1,6H,4-5H2,2H3	InChI=1S/C7H9NO/c1-3-4-7(9)6-5-8(6)2/h1,6H,4-5H2,2H3/t6-,8?/m0/s1
