18
gdb 54337	1.93315	1.76325	1.15393	2.4531	76.52	-0.2639	-0.0352	0.2287	1119.2998	0.14622	-401.975838	-401.966589	-401.965645	-402.010382	33.292	
C	-0.0323162412	 1.517791792	 0.1301630166	-0.49215
C	 0.0403277076	 0.0196422485	-0.0614354943	 0.34357
O	 1.0705838222	-0.5610891108	-0.3017360933	-0.292107
C	-1.2904857749	-0.7627397887	-0.0041618188	 0.060345
C	-1.8549277404	-0.9230925955	-1.4764358104	-0.255737
C	-1.2648375708	-2.354966844	-1.5153604454	-0.21138
C	-1.0809876003	-2.3121316506	 0.0232503688	-0.25088
C	-2.2169014454	-0.207620194	 0.9673283426	 0.223072
N	-2.9605423807	 0.2255739545	 1.7406225327	-0.350551
H	 0.9265345828	 1.9662782795	-0.1302324279	 0.147477
H	-0.8343944145	 1.9533724405	-0.4747359239	 0.148183
H	-0.273453907	 1.7429136544	 1.1746674416	 0.172516
H	-2.9459891374	-0.9049891073	-1.474386441	 0.133421
H	-1.4892876687	-0.1978439339	-2.2067859917	 0.121222
H	-1.91825307	-3.1334124644	-1.9116576088	 0.112123
H	-0.3074503229	-2.3926459045	-2.0369940173	 0.131608
H	-0.1128568523	-2.623489783	 0.4138264665	 0.136206
H	-1.8846626862	-2.8117623327	 0.566157574	 0.123064
48.8424	107.3348	141.8448	152.6843	182.7058	217.8016	281.9686	370.2663	494.3023	534.5591	552.866	575.848	616.5845	688.2983	790.714	817.2134	874.2316	944.9055	955.4192	960.4293	988.3097	1054.0345	1088.1656	1105.646	1196.8845	1207.1083	1222.6247	1260.3598	1268.7454	1284.1487	1301.6795	1387.6688	1457.4566	1463.0156	1472.3123	1479.4972	1498.2254	1813.7361	2343.6711	3044.7987	3071.4981	3084.393	3089.7454	3106.6209	3124.855	3141.6914	3158.0927	3159.1749
CC(=O)C1(CCC1)C#N	CC(=O)C1(CCC1)C#N	
InChI=1S/C7H9NO/c1-6(9)7(5-8)3-2-4-7/h2-4H2,1H3	InChI=1S/C7H9NO/c1-6(9)7(5-8)3-2-4-7/h2-4H2,1H3
