17
gdb 25598	6.16662	0.67679	0.63449	2.0411	75.39	-0.2286	-0.0239	0.2047	1673.4299	0.135524	-421.861866	-421.853327	-421.852382	-421.896863	30.123	
O	-0.211759089	-0.0806663572	-0.3700183049	-0.233677
C	-0.0133754416	 1.0798714233	-0.1199096532	 0.156908
C	 1.326216083	 1.7731736361	-0.2124539471	-0.259627
C	 1.2735689379	 2.9964224177	-1.157447465	-0.344708
C	 2.5623276534	 3.7616402522	-1.1940292883	 0.255437
C	 2.7867330081	 5.0191385855	-0.7253909918	-0.101452
O	 4.0813999602	 5.3887109564	-0.9165307802	-0.139886
C	 4.7007529335	 4.3423441966	-1.5218682096	 0.009248
C	 3.8295104918	 3.320853065	-1.717462248	-0.280816
H	-0.8495421503	 1.7451058911	 0.2045374757	 0.069176
H	 1.5974293339	 2.1197838608	 0.7942283666	 0.124603
H	 2.0767789947	 1.0474336311	-0.5364635288	 0.125192
H	 1.0144936277	 2.6513584375	-2.166046873	 0.124581
H	 0.463099492	 3.6635346282	-0.8407448104	 0.109891
H	 2.1534133223	 5.7532374658	-0.2542231908	 0.134175
H	 5.7452782115	 4.4828562874	-1.7458757876	 0.138096
H	 4.0483669712	 2.3705525025	-2.1799506833	 0.112858
48.684	61.0811	78.0807	118.5572	283.1315	313.5469	347.2724	517.1656	622.8971	641.0945	712.671	739.3668	766.5416	788.228	835.1881	858.7824	892.8035	971.0319	1003.4709	1059.2976	1071.6345	1079.6418	1103.3311	1184.9545	1209.5159	1258.133	1273.1538	1281.2129	1312.8722	1369.0882	1412.8747	1431.5147	1463.3991	1492.4726	1537.9733	1636.0061	1837.2223	2844.2879	3020.776	3030.2548	3064.1075	3108.3752	3249.9519	3271.3714	3285.1957
O=CCCC1=COC=C1	O=CCCc1cocc1	
InChI=1S/C7H8O2/c8-4-1-2-7-3-5-9-6-7/h3-6H,1-2H2	InChI=1S/C7H8O2/c8-4-1-2-7-3-5-9-6-7/h3-6H,1-2H2
