14
gdb 25328	4.04726	1.18542	0.91687	2.6822	78.48	-0.2286	-0.0904	0.1382	1172.3647	0.103352	-432.918125	-432.910836	-432.909892	-432.950212	27.099	
N	-0.0772918638	 1.3234200343	 0.0085830231	-0.527032
C	-0.0131801505	 0.0435304739	 0.0011723112	 0.347325
C	-1.2438272749	-0.7467073183	 0.0035517952	-0.197898
C	-1.1823318113	-2.0951596475	-0.0041284674	 0.275741
N	 0.0495847	-2.720314761	-0.0142093224	-0.372447
C	 1.1802870025	-1.957109872	-0.0163096518	 0.095918
N	 1.2088110372	-0.6724568089	-0.009469803	-0.322257
C	-2.3553529814	-2.9831745394	-0.0026426843	 0.105879
O	-2.2517285884	-4.1903444694	-0.0102330605	-0.285369
H	 0.8737899977	 1.6990744355	 0.005445897	 0.219979
H	-2.1961334511	-0.2302805158	 0.0115323336	 0.133277
H	 0.0633322485	-3.7302187288	-0.0199558228	 0.279444
H	 2.1139063984	-2.5168950253	-0.0245030282	 0.138537
H	-3.3350909128	-2.4687239174	 0.0050864802	 0.108902
105.6508	127.1243	196.8135	281.6986	395.401	433.9853	457.479	558.7809	558.8983	598.3827	695.2414	749.7796	821.5664	885.2103	895.4611	920.736	978.0451	1015.5623	1022.7296	1080.225	1169.3227	1191.9205	1316.4063	1374.416	1403.6603	1423.7732	1511.7222	1643.2566	1668.8783	1706.6394	1779.0849	2958.8654	3152.3135	3215.1316	3457.8854	3614.1485
N=C1C=C(NC=N1)C=O	[NH]C1=NCNC(=C1)C=O	
InChI=1S/C5H5N3O/c6-5-1-4(2-9)7-3-8-5/h1-3H,(H2,6,7,8)	InChI=1S/C5H6N3O/c6-5-1-4(2-9)7-3-8-5/h1-2,6-7H,3H2
