19
gdb 47200	2.57712	1.68036	1.14032	2.4892	82.84	-0.2342	-0.0129	0.2214	1097.3811	0.160629	-385.920669	-385.912806	-385.911861	-385.953084	31.068	
O	 0.0261012041	 0.0494413976	-0.4307243693	-0.334412
C	-0.0085291724	 1.2142419463	-0.0940769273	 0.313712
C	-1.3151044337	 1.9309359057	 0.2099221163	-0.314644
C	-1.2203175355	 2.9098430334	 1.3922985798	-0.279051
C	 0.010610437	 3.7733674556	 1.2952299743	-0.093903
C	 1.1041910936	 3.3817713414	 0.6409225422	-0.119304
C	 1.2307478099	 2.059834781	-0.0151212724	 0.232604
C	 2.5475869226	 1.292795091	 0.1156023879	-0.290314
C	 2.1982855205	 1.895314224	-1.1960407897	-0.291481
H	-1.5613040382	 2.5040339146	-0.6957596434	 0.128783
H	-2.0969029145	 1.1803379574	 0.3458346997	 0.120456
H	-2.1217870983	 3.5315800985	 1.4233658467	 0.110474
H	-1.2120902885	 2.3538229457	 2.3412929069	 0.120597
H	-0.0058373721	 4.7388150123	 1.7924956173	 0.090968
H	 1.9785583534	 4.0277268154	 0.5988623025	 0.085672
H	 3.3201884557	 1.7578565757	 0.7174180532	 0.118279
H	 2.4454455041	 0.2189006582	 0.2188058423	 0.144026
H	 1.8692232704	 1.230234015	-1.9860619574	 0.137955
H	 2.718244652	 2.7894491411	-1.5225569796	 0.119584
67.9374	153.2316	258.504	267.54	280.8507	383.3798	425.5356	519.0888	523.6898	609.7227	668.4422	716.3212	765.4236	792.6613	832.2177	861.1456	891.561	939.1297	966.3492	992.6545	1000.7094	1031.7605	1041.9688	1061.1852	1092.6159	1137.8889	1176.7805	1183.5438	1206.6939	1260.0424	1281.6869	1327.1587	1351.887	1374.0976	1426.9674	1451.2826	1458.3159	1482.0651	1486.4312	1717.9038	1793.1585	3002.1183	3016.8142	3059.6168	3109.142	3136.1188	3139.553	3143.7324	3173.8125	3226.0057	3241.3203
O=C1CCC=CC11CC1	O=C1CCC=CC21CC2	
InChI=1S/C8H10O/c9-7-3-1-2-4-8(7)5-6-8/h2,4H,1,3,5-6H2	InChI=1S/C8H10O/c9-7-3-1-2-4-8(7)5-6-8/h2,4H,1,3,5-6H2
