13
gdb 25448	7.17427	0.90318	0.80219	2.8618	78.48	-0.2388	-0.0641	0.1747	1310.4692	0.089292	-415.628129	-415.620522	-415.619578	-415.660464	27.76	
O	-0.0641341957	-0.0583493612	-0.0023210485	-0.270489
C	-0.0401966985	 1.1409390524	 0.0078121493	 0.187006
N	 1.1404130333	 1.8922396604	 0.0012316012	-0.049221
C	 2.4350562797	 1.3949268483	-0.0176713403	 0.021376
N	 3.3210257614	 2.3434020677	-0.0190175738	-0.308293
C	 2.5942339171	 3.5409797031	-0.0004540298	 0.139181
C	 1.2519041864	 3.2743650192	 0.011991191	-0.20031
C	 3.2216718286	 4.8083733466	 0.0037641927	 0.255863
C	 3.7494014274	 5.8897464805	 0.0074420413	-0.413535
H	-0.9369641579	 1.7843972086	 0.0235275694	 0.11367
H	 2.618921933	 0.332410345	-0.0290654608	 0.170081
H	 0.3891846995	 3.9183897532	 0.0271910644	 0.157899
H	 4.2209647357	 6.8412035762	 0.0105950139	 0.196773
89.3947	131.9446	204.2552	239.7933	250.6689	447.4711	462.3331	549.5843	585.4267	627.5168	648.4266	668.7218	706.7202	772.0931	801.6031	870.5186	973.6453	1034.3506	1039.3794	1176.724	1234.321	1264.8597	1303.9816	1413.0269	1440.7082	1543.3718	1579.242	1835.0077	2240.8282	2991.7213	3278.4085	3285.016	3503.4531
O=CN1C=NC(=C1)C#C	O=Cn1cnc(c1)C#C	
InChI=1S/C6H4N2O/c1-2-6-3-8(5-9)4-7-6/h1,3-5H	InChI=1S/C6H4N2O/c1-2-6-3-8(5-9)4-7-6/h1,3-5H
