13
gdb 131581	7.37386	0.64389	0.59438	5.4301	73.26	-0.2637	-0.0592	0.2045	1730.7536	0.088254	-452.660062	-452.651779	-452.650835	-452.695231	27.992	
O	-0.025982949	 1.4506186737	 0.0101593408	-0.401588
C	-0.0133521276	 0.0333727212	 0.0022886652	-0.223878
C	-1.3834868267	-0.4645392286	 0.0124806888	 0.243473
C	-2.5079081658	-0.8960224208	 0.0206730527	-0.032607
C	-3.8130812745	-1.4344939825	 0.0300963838	 0.230158
N	-4.9081564843	-0.7033669881	 0.0411100329	-0.164471
O	-5.941471614	-1.5893635381	 0.0473678146	-0.146284
N	-5.5023158425	-2.8845129254	 0.0402987982	-0.052587
C	-4.2038674652	-2.8104434807	 0.0297160715	-0.160755
H	 0.889414799	 1.7486444391	 0.0030979957	 0.29684
H	 0.497912845	-0.3650414377	-0.8897173653	 0.128385
H	 0.5146186891	-0.3747266506	 0.8800675285	 0.12837
H	-3.5865459735	-3.6944877716	 0.0222517924	 0.154943
18.5985	75.3097	106.8375	202.5759	211.7663	298.9714	418.7318	488.3616	512.0001	621.5735	642.3507	730.3187	886.9582	898.4135	937.6744	945.3375	1021.4158	1030.9683	1068.2351	1085.8561	1214.0112	1245.1615	1255.3753	1383.2763	1450.4596	1481.1533	1497.9037	1591.8117	2371.839	2963.2234	2982.1307	3278.774	3821.8214
OCC#CC1=NON=C1	OCC#Cc1nonc1	
InChI=1S/C5H4N2O2/c8-3-1-2-5-4-6-9-7-5/h4,8H,3H2	InChI=1S/C5H4N2O2/c8-3-1-2-5-4-6-9-7-5/h4,8H,3H2
