19
gdb 111259	2.97951	1.25174	0.9766	2.4372	76.85	-0.2389	-0.0124	0.2265	1242.2177	0.157776	-423.017757	-423.008622	-423.007677	-423.051838	34.025	
C	 0.0855036155	 1.5240729584	-0.1355994718	-0.37964
C	-0.1269921561	 0.0113754377	-0.0034058872	-0.206816
C	 0.6256219809	-0.5715093569	 1.1931058796	-0.090257
C	 0.6683090337	-2.0882846527	 1.4351963659	-0.172042
C	 1.3263046152	-2.7965112709	 0.2936368752	-0.328356
C	 2.2539785436	-2.1064192032	 1.2498671501	 0.327428
O	 3.2628221355	-2.8086849839	 1.8495086951	-0.446906
C	 2.1817501126	-0.6223917933	 1.1883226004	 0.304673
O	 3.0219974498	 0.2065022773	 1.4345905333	-0.347625
H	 1.1483691842	 1.7651885421	-0.2314816492	 0.140263
H	-0.436048586	 1.9196123219	-1.0122007628	 0.111896
H	-0.2924498378	 2.053569648	 0.7457586295	 0.116403
H	-1.1964941745	-0.2078172745	 0.1085124234	 0.100505
H	 0.1905445592	-0.4840948639	-0.928075667	 0.098556
H	 0.3292338358	-0.0354958865	 2.1039739223	 0.09753
H	 0.1113784379	-2.6102693935	 2.201951816	 0.112678
H	 1.3826619351	-3.8765616603	 0.3976123099	 0.136249
H	 1.2109945056	-2.4601209027	-0.7326035385	 0.123968
H	 3.6977432396	-2.2108989831	 2.4714873156	 0.301491
71.9831	89.4292	141.7713	177.8276	243.2494	287.1782	329.7459	380.353	389.9964	475.2498	503.5144	612.3555	649.814	734.3031	758.0151	827.775	863.2449	902.5518	934.79	942.5188	985.0139	1018.5934	1030.4446	1096.3625	1109.231	1119.8262	1154.8407	1176.2736	1231.0807	1277.4386	1297.2215	1335.8118	1371.0184	1390.3634	1416.5051	1421.273	1488.1909	1499.3348	1504.2717	1508.9761	1836.3612	3023.9365	3031.2407	3037.0821	3061.2657	3104.1523	3116.2785	3116.8715	3197.0956	3210.7284	3773.0712
CCC1C2CC2(O)C1=O	CC[C@H]1[C@H]2C[C@@]2(O)C1=O	
InChI=1S/C7H10O2/c1-2-4-5-3-7(5,9)6(4)8/h4-5,9H,2-3H2,1H3	InChI=1S/C7H10O2/c1-2-4-5-3-7(5,9)6(4)8/h4-5,9H,2-3H2,1H3/t4-,5+,7-/m0/s1
