18
gdb 66787	2.97278	2.23482	1.80599	1.9556	75.95	-0.2164	0.0703	0.2867	835.7157	0.14998	-364.744634	-364.738466	-364.737522	-364.774669	26.796	
C	-0.0392451706	 1.5150750582	-0.0144758133	-0.523308
C	-0.0325811028	 0.0100638547	-0.0486004995	 0.341364
C	 0.6567245977	-0.7506433558	-1.2207549452	-0.14242
C	 0.2758249548	-2.1823476477	-0.9244226481	-0.07187
C	 1.4789260569	-1.5754062377	-0.236831303	-0.081286
C	 0.787679489	-0.871620241	 0.9430398498	-0.069772
N	-0.45524147	-1.6420772706	 1.3771483661	-0.159526
C	-0.8801633363	-2.1988944478	 0.059944682	-0.062972
C	-1.2652161827	-0.8143591893	 0.4069040291	-0.110371
H	 0.9666006928	 1.9167165115	-0.1783587085	 0.120829
H	-0.6920659972	 1.9253304261	-0.7942463692	 0.119696
H	-0.3974989192	 1.8870591933	 0.9513952853	 0.124006
H	 0.9171663812	-0.3693515665	-2.2016583707	 0.083532
H	 0.4044721001	-2.9571120557	-1.6684026497	 0.090161
H	 2.4882670473	-1.9613141834	-0.3046291033	 0.088682
H	 1.36476269	-0.4581903126	 1.7676080284	 0.07444
H	-1.5762241427	-3.0275661046	 0.1084849553	 0.091809
H	-2.2630065884	-0.4562702312	 0.6419031045	 0.087005
228.5427	249.6835	258.8588	550.0798	562.2277	573.5979	695.5348	732.7039	749.6442	772.0801	785.321	822.0708	827.5276	853.2784	890.3472	900.2316	916.4755	937.8631	940.6181	1001.6565	1013.6028	1027.2587	1048.8775	1052.4123	1056.3168	1144.7951	1159.6945	1178.6585	1190.8803	1220.298	1241.7249	1250.7122	1276.5579	1320.5674	1371.9942	1376.7224	1413.7108	1491.688	1493.1617	3022.8805	3085.3563	3096.454	3137.8435	3152.0641	3170.3873	3188.5737	3189.7353	3212.1795
CC12C3C4C3C1N1C4C21	C[C@@]12[C@@H]3[C@H]4[C@@H]3[C@@H]1N1[C@H]4[C@H]21	
InChI=1S/C8H9N/c1-8-4-2-3(4)6(8)9-5(2)7(8)9/h2-7H,1H3	InChI=1S/C8H9N/c1-8-4-2-3(4)6(8)9-5(2)7(8)9/h2-7H,1H3/t2-,3+,4-,5-,6+,7-,8-,9?/m1/s1
