21
gdb 117941	2.92409	0.77271	0.64493	1.8214	76.63	-0.274	-0.0391	0.2348	1763.7392	0.17929	-461.381978	-461.371123	-461.370179	-461.419106	38.289	
C	-0.0832112831	 1.5568156063	 0.0218277905	-0.38647
C	 0.0854776217	 0.0366410374	-0.032192093	-0.16568
C	 0.6211485926	-0.54570777	 1.2802954509	-0.19337
C	 0.8279195439	-2.0707952484	 1.1986287461	 0.035515
O	 1.6844981685	-2.4021072592	 0.1366615688	-0.43553
C	 1.3746240467	-2.6463021466	 2.4995738026	 0.329161
O	 2.4205496053	-3.2688547953	 2.4935682184	-0.345512
C	 0.6237090548	-2.4714003345	 3.8077779837	-0.128733
O	 1.2237263428	-3.190066649	 4.8442913984	-0.419826
H	 0.8721347764	 2.0547106642	 0.2214566609	 0.117296
H	-0.4677357927	 1.9450742304	-0.9261832852	 0.117028
H	-0.7823146132	 1.854849337	 0.8114601102	 0.112152
H	-0.8781614065	-0.434920481	-0.266886425	 0.094663
H	 0.7694607205	-0.2394329777	-0.8402806843	 0.127678
H	 1.581773786	-0.0768413592	 1.530189136	 0.106613
H	-0.074749255	-0.3155605506	 2.0972103661	 0.098828
H	-0.1598786339	-2.5408387316	 1.039001978	 0.093751
H	 2.4078674298	-2.9141309355	 0.5303312661	 0.295757
H	 0.5862715582	-1.3934087464	 4.0376532517	 0.126107
H	-0.4202138378	-2.7897202261	 3.6597450193	 0.123554
H	 2.0386514351	-3.5571175843	 4.4686817099	 0.297016
37.2461	75.6041	100.1812	104.8217	123.6969	227.2971	254.36	291.3471	322.8349	354.9313	384.2712	409.2412	421.491	491.4215	578.8577	726.8768	751.8241	839.6042	879.4232	897.5621	975.746	998.5193	1048.222	1060.9592	1105.2302	1132.1812	1147.2347	1188.5975	1244.1072	1261.2866	1273.9886	1305.6474	1315.0131	1331.0544	1367.4769	1387.7349	1413.294	1436.9501	1450.9175	1472.3631	1488.8811	1493.6919	1501.1299	1509.9057	1772.8939	2941.156	2974.2069	3000.9973	3016.1667	3024.1862	3029.9267	3060.384	3081.1093	3103.0964	3105.2924	3697.8899	3709.0066
CCCC(O)C(=O)CO	CCC[C@@H](O)C(=O)CO	
InChI=1S/C6H12O3/c1-2-3-5(8)6(9)4-7/h5,7-8H,2-4H2,1H3	InChI=1S/C6H12O3/c1-2-3-5(8)6(9)4-7/h5,7-8H,2-4H2,1H3/t5-/m1/s1
