17
gdb 6850	3.45752	1.92276	1.66108	3.2359	64.32	-0.2446	0.0281	0.2727	843.8949	0.142443	-401.011472	-401.003742	-401.002798	-401.043005	29.347	
C	-0.019634663	 1.5414408784	-0.0008138812	-0.43201
C	-0.0061632435	 0.0120394682	-0.0095206439	 0.291986
O	-1.3346865427	-0.5071450862	 0.0355505312	-0.457158
C	 0.7223898656	-0.5230443836	-1.2471038147	-0.097657
O	 0.8021666367	-1.9488691131	-1.241881676	-0.222447
C	 1.0340691061	-2.513893761	-0.029432846	 0.135951
N	 1.0421722411	-1.9809347628	 1.1141811236	-0.272298
C	 0.6982456661	-0.5681104452	 1.2252893643	-0.149757
H	 0.9929543306	 1.9571434399	-0.0148598121	 0.118942
H	-0.5560672411	 1.9310091852	-0.8744924888	 0.106987
H	-0.5311892804	 1.9021152514	 0.8959289001	 0.133964
H	-1.783225684	-0.2662711502	-0.7824315124	 0.277826
H	 0.1937542475	-0.2531276487	-2.1676726269	 0.104631
H	 1.7368423676	-0.1057767988	-1.3013313048	 0.109799
H	 1.229124226	-3.5773388199	-0.1532382307	 0.122572
H	 1.6088910109	 0.0038841161	 1.4425381619	 0.105611
H	 0.0350264465	-0.4466222997	 2.0884113063	 0.123057
138.9457	172.3981	221.0466	263.508	281.0193	345.8312	399.3626	417.1216	490.7144	543.8147	561.1761	749.4751	879.1824	893.8255	933.473	946.6779	962.0739	972.301	1006.8109	1041.7353	1133.5654	1167.8721	1169.9325	1205.3576	1252.7645	1314.9644	1352.0977	1383.1298	1402.3256	1406.9144	1422.8187	1469.0474	1490.0165	1494.4187	1502.058	1745.8064	3014.8597	3025.334	3032.1093	3069.6444	3073.2513	3094.322	3118.4256	3162.1241	3801.7662
CC1(O)COC=NC1	C[C@@]1(O)COC=NC1	
InChI=1S/C5H9NO2/c1-5(7)2-6-4-8-3-5/h4,7H,2-3H2,1H3	InChI=1S/C5H9NO2/c1-5(7)2-6-4-8-3-5/h4,7H,2-3H2,1H3/t5-/m0/s1
