17
gdb 82333	2.64916	1.73602	1.27237	1.9512	66.43	-0.2504	0.0639	0.3143	990.8207	0.136116	-458.925827	-458.918315	-458.91737	-458.957958	29.472	
O	 0.4751527538	 0.878671026	-0.6810258737	-0.427164
C	 0.0924139363	-0.3109547087	-0.0199388157	 0.02806
C	 0.5437308981	-0.3598504518	 1.4266757627	-0.004203
O	-0.1761873247	 0.6032104476	 2.2209549713	-0.270595
C	-0.5680204294	-0.7781031887	 2.2878938881	 0.044432
C	-1.7855879565	-1.1010634866	 1.4488009275	-0.344627
C	-1.4363789229	-0.5360755686	 0.0701376133	 0.408174
C	-2.3688633481	 0.2476598022	-0.7470069252	-0.241122
O	-2.0727652305	-1.1176795915	-1.0642049548	-0.283804
H	 0.2056967305	 1.6064517157	-0.1065294627	 0.289997
H	 0.5381670626	-1.1307837365	-0.5944469039	 0.106719
H	 1.5912813861	-0.4910337982	 1.6820913403	 0.106729
H	-0.4102365961	-1.2548745502	 3.2513685265	 0.104336
H	-1.9168065038	-2.1876222234	 1.3824872962	 0.124588
H	-2.7063850085	-0.6783064261	 1.8610647065	 0.120029
H	-3.3766348493	 0.4340268391	-0.3770890417	 0.111449
H	-1.9735707577	 0.9798918596	-1.4469818747	 0.127004
63.4751	187.2718	271.6619	299.2837	361.8742	380.6937	436.7167	452.8639	542.253	629.0102	663.1709	788.9764	810.7322	862.5193	872.8707	907.2722	925.3336	944.3018	996.3969	1053.9098	1063.0711	1093.6004	1114.0684	1133.9441	1168.3755	1186.6423	1218.5364	1256.8484	1281.4535	1292.0906	1302.7294	1337.1023	1413.4215	1435.2962	1438.1629	1476.1815	1521.6251	3044.7051	3059.2108	3086.9748	3092.2128	3151.8587	3164.7593	3184.2511	3780.3278
OC1C2OC2CC11CO1	O[C@H]1[C@H]2O[C@H]2C[C@]21CO2	
InChI=1S/C6H8O3/c7-5-4-3(9-4)1-6(5)2-8-6/h3-5,7H,1-2H2	InChI=1S/C6H8O3/c7-5-4-3(9-4)1-6(5)2-8-6/h3-5,7H,1-2H2/t3-,4-,5-,6+/m0/s1
