15
gdb 43230	3.54337	1.25219	0.98342	3.6889	83.93	-0.2425	-0.0741	0.1684	1149.2058	0.1126	-383.480502	-383.473035	-383.472091	-383.512444	29.038	
O	 0.1126324886	-0.0434019049	-0.0733132017	-0.339593
C	 0.036013653	 1.1619046897	-0.0081377133	 0.422876
C	-1.2045027126	 1.9757935381	 0.0837013808	-0.335753
C	-0.9098504462	 3.2938946449	 0.0247927721	 0.204215
C	-1.820820184	 4.371585168	 0.0637618877	 0.221469
C	-2.5682598645	 5.3168320697	 0.0813869596	-0.391978
C	 0.578615171	 3.5161252613	-0.0422195669	-0.154836
C	 1.328443722	 3.0419475263	 1.1818177987	-0.278702
C	 1.1908195644	 2.1426028993	-0.0372307518	-0.165665
H	-2.1885812813	 1.5413795524	 0.192622975	 0.122864
H	-3.2395373508	 6.139898321	 0.1013130952	 0.205555
H	 0.9679860905	 4.3365665807	-0.6313626641	 0.111517
H	 2.3134600358	 3.458257629	 1.3650678618	 0.128652
H	 0.756314249	 2.8068227711	 2.0728337806	 0.133625
H	 2.078022365	 1.8845960933	-0.6002209237	 0.115756
114.6466	143.5803	191.8292	308.5709	364.0142	427.548	501.5381	538.2785	608.6194	635.6054	639.3862	681.8039	743.7582	795.3492	820.6449	844.8872	887.6584	919.6373	962.7759	985.795	1063.1451	1075.7574	1095.9972	1142.8471	1175.9195	1191.2095	1275.1287	1317.5804	1349.823	1480.8371	1617.4663	1807.366	2219.9899	3131.4479	3196.4201	3207.306	3224.6736	3237.447	3499.5772
O=C1C=C(C#C)C2CC12	O=C1C=C(C#C)[C@H]2C[C@@H]12	
InChI=1S/C8H6O/c1-2-5-3-8(9)7-4-6(5)7/h1,3,6-7H,4H2	InChI=1S/C8H6O/c1-2-5-3-8(9)7-4-6(5)7/h1,3,6-7H,4H2/t6-,7-/m1/s1
