16
gdb 77025	2.9212	1.08204	0.98159	2.5373	73.93	-0.2673	-0.0084	0.259	1225.2211	0.123448	-396.920441	-396.911337	-396.910393	-396.955062	31.884	
C	-1.800805545	 0.7942490602	-0.8074845019	-0.340374
N	-0.8315847067	-0.2643882654	-0.5350726465	-0.081063
C	 0.3802794395	-0.3977905069	-1.314031158	-0.000781
C	 0.7737368618	 0.5570932715	-2.4373086948	-0.387113
C	 0.0243622241	 0.2870404689	-3.6646143815	 0.27235
N	-0.576896903	 0.063882827	-4.6254462445	-0.297968
C	 0.4411798928	 0.0457258437	 0.126442013	-0.186993
C	 0.8073198195	 1.4109040979	 0.4181533918	 0.29523
N	 1.0846586273	 2.5088426422	 0.6561689291	-0.33485
H	-1.3650970421	 1.7837844135	-0.9965128019	 0.131182
H	-2.3941037118	 0.4961920735	-1.6753231525	 0.157471
H	-2.4657252867	 0.8772062954	 0.0558761117	 0.146291
H	 0.654981324	-1.4316187649	-1.5150207658	 0.130129
H	 0.6305331839	 1.6027865138	-2.1522503775	 0.179165
H	 1.8429200648	 0.4359666702	-2.6455034719	 0.170973
H	 0.7487578578	-0.6623212207	 0.8915212713	 0.146352
48.244	92.2498	138.6941	165.5623	183.1508	252.0367	340.6383	371.9462	386.4593	444.5422	562.944	600.9095	620.0324	733.8374	812.8623	851.1834	953.601	970.7403	1018.2286	1075.2597	1115.8823	1137.9954	1164.6059	1174.7281	1231.9305	1318.4042	1335.4571	1362.659	1416.9188	1451.9386	1462.3081	1488.7984	1506.6361	2346.6401	2365.7221	3018.1862	3056.257	3097.608	3104.5829	3128.8165	3132.3339	3146.0114
CN1C(CC#N)C1C#N	CN1[C@@H](CC#N)[C@H]1C#N	
InChI=1S/C6H7N3/c1-9-5(2-3-7)6(9)4-8/h5-6H,2H2,1H3	InChI=1S/C6H7N3/c1-9-5(2-3-7)6(9)4-8/h5-6H,2H2,1H3/t5-,6+,9?/m0/s1
