15
gdb 22000	2.54692	1.56655	0.96995	4.8745	77.57	-0.1648	0.0059	0.1707	1130.0992	0.113475	-453.926963	-453.91879	-453.917846	-453.95933	31.337	
O	-0.0913304349	 1.3255454904	 0.136655328	-0.410849
N	 0.0589679457	-0.0833744218	 0.139629995	-0.276654
C	-1.0941874933	-0.6545085416	-0.0172430995	 0.307838
C	-2.3798623044	 0.0029134419	-0.1768865972	-0.226246
C	-3.520146679	-0.7069228376	-0.3337988502	 0.012732
N	-3.5125039451	-2.0728566473	-0.349025262	-0.340543
C	-2.3196198226	-2.7651412524	-0.2017393999	-0.128375
C	-1.1429992845	-2.114379296	-0.040805383	 0.273649
O	 0.0478347765	-2.7523324158	 0.1068073198	-0.418764
H	 0.8178228365	 1.6143886017	 0.2584370085	 0.299308
H	-2.4091000932	 1.0815519714	-0.1679282829	 0.122504
H	-4.4904032741	-0.2407856144	-0.4546394071	 0.124592
H	-4.3682898282	-2.5840430321	-0.4662508681	 0.261494
H	-2.3901286206	-3.8458793128	-0.2236594802	 0.1066
H	-0.0963089088	-3.7043468735	 0.0765940089	 0.292713
114.2115	223.4031	225.9003	250.6571	297.2153	348.1805	354.2587	366.7551	484.3915	497.954	557.6184	567.0558	602.3978	718.6701	783.6646	796.4689	808.1983	875.8708	932.8825	986.1123	1040.7484	1132.0956	1191.552	1254.0903	1271.0008	1306.0029	1360.4674	1427.1461	1486.8694	1541.8567	1636.6883	1658.9947	1707.6025	3199.557	3206.935	3258.7612	3690.2915	3811.7546	3835.4615
ON=C1C=CNC=C1O	ON=c1cc[nH]cc1O	
InChI=1S/C5H6N2O2/c8-5-3-6-2-1-4(5)7-9/h1-3,8-9H,(H,6,7)	InChI=1S/C5H6N2O2/c8-5-3-6-2-1-4(5)7-9/h1-3,8-9H,(H,6,7)
