13
gdb 131454	3.40396	1.15067	0.86451	3.1045	63.36	-0.2726	-0.0189	0.2537	1209.8923	0.089718	-452.752217	-452.744502	-452.743558	-452.785602	27.551	
O	 0.9916660101	 1.1905257126	-0.0233296952	-0.416808
C	 0.4250707528	-0.0250323487	-0.0330057532	 0.390518
N	 0.3988543345	-0.7894863989	-1.0953587814	-0.245772
O	-0.2708259541	-1.9457794477	-0.6861765104	-0.175026
C	-0.6132986161	-1.8172833973	 0.6022172713	 0.029456
C	-0.2075092291	-0.6206888719	 1.0978063841	 0.058208
C	-0.3534703417	-0.0199720186	 2.4658031018	-0.459808
C	-1.0586132343	-0.9037900273	 3.3931709721	 0.26913
N	-1.6171057424	-1.6148262168	 4.1117374494	-0.302507
H	 1.3479007607	 1.3633692096	-0.9053879187	 0.31901
H	-1.1410014254	-2.6486827866	 1.0440567526	 0.179656
H	 0.6305399992	 0.2172778009	 2.8892060193	 0.176974
H	-0.894241464	 0.9331815507	 2.4121498884	 0.176969
36.1962	107.9273	228.4149	233.9216	331.4165	378.8402	429.5656	455.5656	535.1725	592.8467	666.2449	725.8527	797.9563	863.9798	924.1164	945.0508	959.9302	960.071	1161.5553	1188.9534	1228.1617	1235.6777	1306.7932	1362.8972	1462.4485	1498.9695	1569.0666	1681.9912	2370.3229	3033.4542	3060.0966	3267.3301	3780.6451
OC1=NOC=C1CC#N	Oc1nocc1CC#N	
InChI=1S/C5H4N2O2/c6-2-1-4-3-9-7-5(4)8/h3H,1H2,(H,7,8)	InChI=1S/C5H4N2O2/c6-2-1-4-3-9-7-5(4)8/h3H,1H2,(H,7,8)
