17
gdb 73079	2.32436	1.97796	1.41106	4.3481	74.23	-0.2317	-0.0554	0.1763	963.5345	0.1362	-421.842925	-421.835209	-421.834265	-421.874967	29.553	
C	-0.296342859	 1.4211503944	 0.0250204346	-0.460653
C	 0.0654629053	-0.0428504059	 0.0118943562	 0.313726
O	-1.0862491369	-0.9166925994	 0.2387869844	-0.315399
C	-0.4852530828	-1.492630303	 1.4107602025	-0.080104
C	 0.8374895844	-0.7167800986	 1.1710003047	-0.182029
C	 1.9227372498	-1.5023374866	 0.4919160659	-0.071964
C	 1.885993302	-1.4038363871	-0.8448520781	-0.177902
C	 0.7946247415	-0.498378841	-1.2736795335	 0.362234
O	 0.4967608912	-0.1704897284	-2.3977602221	-0.334538
H	 0.6056998589	 2.041600784	-0.0075336535	 0.122826
H	-0.8950552534	 1.6499964875	-0.8613955903	 0.152503
H	-0.8690158829	 1.6757353991	 0.9208332155	 0.119025
H	-1.0171481355	-1.2004359218	 2.3244506273	 0.107895
H	-0.425611439	-2.5853671165	 1.3566079953	 0.108852
H	 1.1866887852	-0.1003412084	 2.0013254144	 0.093477
H	 2.6313962378	-2.1047646788	 1.0513643711	 0.119862
H	 2.5464094032	-1.8922834195	-1.5500697544	 0.122188
101.0649	204.6072	212.7538	237.1278	269.5741	301.6698	399.8417	499.051	583.0846	654.1253	716.2254	736.5634	828.3424	840.5846	863.1441	892.2714	906.9484	998.1551	1004.2288	1041.6365	1066.9495	1078.4834	1116.4169	1137.1911	1166.8498	1181.8362	1233.3074	1261.7276	1331.4804	1344.5703	1369.69	1402.5509	1479.0817	1484.5223	1518.5117	1636.6084	1816.4956	3018.7918	3038.867	3068.5728	3095.4503	3111.1171	3125.3671	3184.4112	3224.8416
CC12OCC1C=CC2=O	C[C@]12OC[C@H]1C=CC2=O	
InChI=1S/C7H8O2/c1-7-5(4-9-7)2-3-6(7)8/h2-3,5H,4H2,1H3	InChI=1S/C7H8O2/c1-7-5(4-9-7)2-3-6(7)8/h2-3,5H,4H2,1H3/t5-,7+/m1/s1
