15
gdb 76023	2.63969	1.23342	1.0775	2.9432	74.52	-0.2543	-0.002	0.2523	1144.3598	0.110887	-416.7593	-416.750206	-416.749262	-416.792909	33.618	
N	-0.0599906232	 1.407872479	 0.1965401404	-0.566561
C	-0.001839595	-0.0233483045	 0.0561649501	 0.064954
C	 1.0361171601	-0.5903241097	-0.7663788594	 0.241343
N	 1.8851840189	-1.0326020133	-1.4176847212	-0.339836
C	-0.4789754829	-0.7667931351	 1.3069907125	 0.132315
O	-0.773648808	-0.0188779282	 2.4168007081	-0.417216
C	-1.3719526324	-0.7509229024	 0.0755569083	-0.33977
C	-2.569129174	 0.0275615277	 0.0234413951	 0.330314
C	-3.5773956715	 0.6811567809	-0.0274867328	-0.408008
H	 0.8693631678	 1.8022659517	 0.2923938217	 0.258388
H	-0.5223929754	 1.845434427	-0.593737417	 0.259489
H	-0.006334223	-1.7118907743	 1.5498212951	 0.137233
H	-0.8444315026	 0.9009909533	 2.1087100175	 0.299347
H	-1.384777745	-1.6738647878	-0.4962958975	 0.141972
H	-4.4758906439	 1.2464740357	-0.063751741	 0.206035
97.5752	123.2933	157.0476	176.042	220.7197	276.8343	335.6034	368.1436	468.1557	481.1488	546.717	577.5488	607.4812	632.4176	658.3666	664.0994	717.0352	805.7396	837.3746	865.5305	1010.9957	1049.9634	1097.0806	1129.802	1207.9938	1256.3976	1293.7115	1347.8584	1367.4669	1459.8261	1649.6984	2238.0779	2336.7714	3158.0301	3186.1596	3500.5891	3509.9836	3595.8414	3660.7554
NC1(C#N)C(O)C1C#C	N[C@@]1(C#N)[C@@H](O)[C@H]1C#C	
InChI=1S/C6H6N2O/c1-2-4-5(9)6(4,8)3-7/h1,4-5,9H,8H2	InChI=1S/C6H6N2O/c1-2-4-5(9)6(4,8)3-7/h1,4-5,9H,8H2/t4-,5+,6-/m1/s1
