16
gdb 27946	3.69781	1.13678	0.87419	4.2514	81.75	-0.2525	-0.0704	0.182	1272.5923	0.125134	-400.826734	-400.818651	-400.817707	-400.860298	29.008	
C	-0.0075125667	 1.5218618691	 0.0034029628	-0.4966
C	-0.0072183476	 0.0153591858	-0.004849104	 0.266222
C	 0.0460250316	-0.719910793	-1.1883936523	-0.243999
C	 0.0438371993	-2.1118925335	-1.1405714954	 0.153149
C	 0.0998135312	-2.9106541435	-2.3848677915	 0.099996
O	 0.1017846829	-4.1179875896	-2.4295270207	-0.264661
C	-0.0126497116	-2.7335020264	 0.1140673547	-0.042615
N	-0.0641024986	-2.0580276266	 1.2576390438	-0.27317
C	-0.060662911	-0.7216019115	 1.1818126991	-0.044871
H	 0.896159866	 1.9229644273	-0.4682184491	 0.140111
H	-0.8649854948	 1.9230490037	-0.5477020259	 0.140107
H	-0.053524482	 1.911186831	 1.0236549482	 0.13393
H	 0.0893509547	-0.2137739561	-2.1507718907	 0.108054
H	 0.1417486039	-2.3004336992	-3.3161369847	 0.072353
H	-0.0151790339	-3.8181990416	 0.1697969116	 0.140007
H	-0.1034939036	-0.1949155059	 2.1337514642	 0.111988
42.5989	104.6379	188.8775	220.4067	237.5856	329.3635	445.7406	450.4135	497.2135	541.8456	663.1736	733.953	772.6254	910.0192	949.9802	969.4268	994.9846	1013.9112	1045.3468	1047.2029	1071.3997	1171.2033	1199.7916	1282.3354	1300.1597	1345.405	1416.5974	1419.2253	1452.028	1481.379	1484.5343	1502.069	1607.5128	1639.5798	1802.9123	2869.1618	3035.3524	3090.9295	3119.0974	3144.5555	3151.7856	3181.204
CC1=CC(C=O)=CN=C1	Cc1cc(C=O)cnc1	
InChI=1S/C7H7NO/c1-6-2-7(5-9)4-8-3-6/h2-5H,1H3	InChI=1S/C7H7NO/c1-6-2-7(5-9)4-8-3-6/h2-5H,1H3
