20
gdb 26179	3.9227	0.90321	0.87392	1.8836	82.76	-0.1796	0.051	0.2306	1428.9433	0.170532	-403.188911	-403.179202	-403.178257	-403.223603	36.309	
C	 0.0324525716	 1.4404337222	-0.3026889463	-0.379749
C	 0.0016979095	-0.0501865043	 0.0875541729	-0.085522
C	 0.6944862886	-0.2790064787	 1.4450819899	-0.37974
C	-1.390552165	-0.6145564721	 0.0597157847	 0.360005
C	-1.9325090945	-1.6176191946	-0.7213968287	-0.404291
C	-3.2980614864	-1.7624217866	-0.3466153492	 0.330369
O	-4.2203371409	-2.6342062307	-0.8545913176	-0.45131
C	-3.5641771049	-0.8529415044	 0.6484905898	-0.181342
N	-2.3887628775	-0.1629929732	 0.8817347147	-0.311138
H	 1.0617964619	 1.8127428525	-0.3373367357	 0.110785
H	-0.4263587912	 1.5999545495	-1.2823598713	 0.122994
H	-0.5133320242	 2.0535517468	 0.4240539121	 0.102897
H	 0.5655363814	-0.6049017685	-0.6717492969	 0.085832
H	 0.7058981266	-1.3406759074	 1.7066844936	 0.122993
H	 1.7277719595	 0.0830710541	 1.4208879947	 0.110781
H	 0.1785031411	 0.2565598567	 2.2506134473	 0.1029
H	-1.4039860185	-2.1819292723	-1.476502405	 0.081027
H	-3.7921724843	-3.1609016509	-1.5348911069	 0.293942
H	-4.468925855	-0.646752527	 1.1938402151	 0.113137
H	-2.2869601078	 0.5681830789	 1.5623457529	 0.25543
37.7856	121.3009	183.1319	202.6986	225.782	255.7356	291.4758	291.9596	361.3273	397.6673	464.1069	490.7261	612.1034	629.6329	686.5161	702.8943	710.549	765.1061	875.9942	927.2197	957.865	981.5476	1004.232	1061.5897	1120.0079	1134.196	1151.318	1177.1324	1206.7525	1308.258	1328.2906	1335.8334	1348.8314	1396.9309	1418.4456	1464.2719	1480.5491	1484.3306	1490.8376	1502.55	1504.3057	1552.0414	1661.2406	3025.7423	3029.0911	3037.0317	3087.1175	3095.5964	3112.396	3114.4668	3227.8547	3280.7437	3691.9436	3848.0488
CC(C)C1=CC(O)=CN1	CC(C)c1cc(O)c[nH]1	
InChI=1S/C7H11NO/c1-5(2)7-3-6(9)4-8-7/h3-5,8-9H,1-2H3	InChI=1S/C7H11NO/c1-5(2)7-3-6(9)4-8-7/h3-5,8-9H,1-2H3
