17
gdb 102362	1.86221	1.35371	1.31163	4.3212	69.19	-0.2671	-0.0471	0.22	1141.5972	0.132915	-455.138033	-455.127696	-455.126752	-455.173771	35.478	
C	-0.1237866264	 1.3512345518	 0.3056775713	-0.34301
N	-0.033440379	-0.0931780175	 0.0776062028	-0.312006
C	 0.5950342373	-0.4988569447	-1.1680959752	-0.041233
C	 0.7349192617	-2.0518491734	-1.1639428894	-0.103905
O	 1.2716958375	-2.5551724229	-2.3560766462	-0.405759
C	-0.3575407821	-0.1351173383	-2.324266736	 0.182644
O	-0.0563753975	 0.4761326876	-3.3074635056	-0.225809
C	 1.9393141996	 0.0804916472	-1.3916232285	 0.278948
N	 3.0162900507	 0.4873300294	-1.4970554038	-0.342791
H	 0.8494859053	 1.8635419987	 0.3026922404	 0.136112
H	-0.7487969366	 1.80893049	-0.4674001591	 0.144116
H	-0.6086432482	 1.5210707953	 1.2698109681	 0.1349
H	 0.4361011729	-0.5408538911	 0.8577924684	 0.236046
H	 1.3227763849	-2.337544547	-0.2777485002	 0.110405
H	-0.2676662362	-2.4749321038	-1.0541538855	 0.138625
H	 2.1784214326	-2.2386763434	-2.447410996	 0.30639
H	-1.3847918665	-0.512151958	-2.1305337554	 0.106326
63.4485	91.5717	106.5126	136.7855	156.4285	192.4899	208.7284	283.148	317.8623	390.8718	402.1665	431.6364	460.5432	633.0292	646.827	708.6954	743.6435	892.1358	969.6896	1040.15	1059.3295	1096.5247	1134.9891	1155.1928	1174.1662	1226.3484	1260.9961	1374.8024	1393.7639	1409.9399	1464.3293	1484.9958	1493.113	1500.0294	1521.9478	1853.2605	2344.4356	2911.255	2985.923	3000.5111	3082.6883	3096.07	3124.2449	3524.2617	3793.2556
CNC(CO)(C=O)C#N	CN[C@@](CO)(C=O)C#N	
InChI=1S/C5H8N2O2/c1-7-5(2-6,3-8)4-9/h3,7,9H,4H2,1H3	InChI=1S/C5H8N2O2/c1-7-5(2-6,3-8)4-9/h3,7,9H,4H2,1H3/t5-/m1/s1
