18
gdb 98676	4.45745	0.82856	0.73422	5.1915	70.9	-0.2482	0.0199	0.2681	1504.0796	0.146343	-476.224767	-476.21525	-476.214306	-476.260482	33.344	
O	 0.1655637762	 1.35968852	-0.494626638	-0.422059
C	 0.1090921005	-0.0061463872	-0.2115211042	-0.140793
C	-1.3532535847	-0.4395630208	-0.0724360285	 0.358428
O	-2.2502200026	 0.3854566228	-0.1996518787	-0.396402
N	-1.5843543369	-1.7403509012	 0.1800397081	-0.085288
C	-0.7285950832	-2.8999218161	 0.444267541	-0.191389
C	-2.0135686282	-3.7518569285	 0.6131839054	 0.102812
O	-2.0613076501	-4.3572503889	 1.8774901033	-0.422211
C	-2.8450151259	-2.4403198097	 0.4190861251	-0.199257
H	-0.7673936628	 1.6375852357	-0.5107786707	 0.293774
H	 0.5870235997	-0.5998814237	-1.00793253	 0.106276
H	 0.6439448072	-0.2443264061	 0.7228641406	 0.108204
H	-0.0647994763	-3.1782183571	-0.3805267204	 0.123245
H	-0.1530200004	-2.8322372807	 1.3741620749	 0.134201
H	-2.1627189643	-4.4778639939	-0.1943398757	 0.087801
H	-2.8719834941	-4.872117063	 1.9429237697	 0.292797
H	-3.3608047979	-2.1143463843	 1.3286842126	 0.126364
H	-3.5380027561	-2.4131253474	-0.4272444843	 0.123499
32.7706	90.8564	110.8488	119.8452	143.2201	272.3504	323.2656	364.7041	390.571	461.913	467.8638	550.5771	580.2544	748.3455	809.3366	873.2955	915.6715	977.532	1013.6185	1033.1935	1063.3453	1137.15	1140.9388	1155.5455	1193.1324	1197.2559	1242.7163	1246.1607	1289.7859	1305.541	1314.3633	1325.1004	1425.4921	1448.8019	1490.6719	1495.782	1515.1056	1517.4803	1751.035	2967.9711	2984.3374	3032.8444	3035.2846	3043.5976	3086.6007	3095.7397	3634.7785	3820.644
OCC(=O)N1CC(O)C1	OCC(=O)N1CC(O)C1	
InChI=1S/C5H9NO3/c7-3-5(9)6-1-4(8)2-6/h4,7-8H,1-3H2	InChI=1S/C5H9NO3/c7-3-5(9)6-1-4(8)2-6/h4,7-8H,1-3H2
