15
gdb 19853	4.72934	2.07461	1.74861	2.2412	67.23	-0.2272	-0.0025	0.2247	758.423	0.120501	-362.572684	-362.566709	-362.565765	-362.602649	23.717	
C	 0.0085472661	 1.451100959	 0.1509994449	-0.105939
O	 1.3523823397	 1.949851276	-0.0206136516	-0.278272
C	 2.0567353972	 0.937584217	-0.7007085839	 0.119016
C	 3.3502412496	 0.1927516078	-0.253829731	-0.114715
N	 3.1077987679	-0.5560474312	 0.9953396551	-0.313633
C	 2.5901577573	-1.1068427965	-0.2972106306	-0.166831
C	 1.3014692709	-0.3357463306	-0.4680246098	 0.24307
C	 0.1059981056	-0.0698444164	 0.0373010403	-0.224622
H	-0.3506595488	 1.7535829316	 1.142461171	 0.120117
H	-0.6600236209	 1.9043302526	-0.5994288842	 0.102076
H	 2.1881463126	 1.184623389	-1.7682468496	 0.077499
H	 4.3577830353	 0.4075355539	-0.5880152314	 0.094604
H	 3.9754643861	-1.054871268	 1.2014832867	 0.231066
H	 2.8923658433	-2.0799430126	-0.6586859589	 0.106439
H	-0.642676982	-0.7392656518	 0.4404499129	 0.110124
144.2233	217.6464	295.028	436.3207	565.1916	677.9091	686.7847	731.7462	802.3192	822.1458	845.1955	870.6437	901.6899	925.2067	965.6978	974.6721	1009.2058	1023.6598	1082.0554	1108.7803	1113.7076	1124.6831	1186.6224	1207.4929	1245.8838	1272.9762	1294.538	1343.8396	1359.2089	1383.6054	1508.5804	1730.66	2954.7725	2967.5873	3044.1819	3190.2135	3214.3733	3218.4134	3446.4571
C1OC2C3NC3C2=C1	C1O[C@H]2[C@H]3N[C@H]3[C]2[CH]1	
InChI=1S/C6H7NO/c1-2-8-6-3(1)4-5(6)7-4/h1,4-7H,2H2	InChI=1S/C6H7NO/c1-2-8-6-3(1)4-5(6)7-4/h1,4-7H,2H2/t4-,5-,6+/m0/s1
