14
gdb 5458	3.54222	1.94902	1.25926	1.3853	76.4	-0.1777	0.0111	0.1888	906.8864	0.10809	-341.589486	-341.581897	-341.580953	-341.620859	29.05	
N	 0.0283980395	 1.4189104979	 0.166151316	-0.620291
C	 0.0375135907	 0.0280138353	 0.0489750636	 0.165507
C	-1.0895197903	-0.7934051934	 0.0176703928	 0.131649
N	-0.6294051182	-2.1068014754	-0.0202298438	-0.322178
C	 0.7287199918	-2.1188023301	-0.0250231311	-0.084159
C	 1.1792072907	-0.814680218	 0.0189425725	-0.199044
C	-2.448113749	-0.4493660216	 0.020066042	 0.230198
C	-3.6137566761	-0.1309807928	 0.0098988427	-0.453739
H	 0.7751691686	 1.8706489469	-0.3441323151	 0.243192
H	-0.8638295058	 1.8254346753	-0.0849883437	 0.247444
H	-1.2300940454	-2.9109506464	-0.049313451	 0.265452
H	 1.2780769607	-3.0460636258	-0.0571912786	 0.120837
H	 2.2107406565	-0.4983281463	 0.0385453366	 0.092311
H	-4.6380351937	 0.1463680443	 0.0230469969	 0.182821
131.6679	152.2975	258.9818	294.1761	354.2362	387.1788	399.0459	481.1987	523.8218	603.3265	631.5156	671.3021	692.2798	709.4324	728.45	765.0722	810.2512	912.3938	1051.0964	1090.6282	1139.762	1238.3571	1260.3525	1338.0602	1452.4819	1489.7805	1523.3129	1608.1155	1654.94	2206.6165	3246.4028	3269.5947	3503.6921	3538.3522	3633.103	3694.6331
NC1=C(NC=C1)C#C	Nc1c([nH]cc1)C#C	
InChI=1S/C6H6N2/c1-2-6-5(7)3-4-8-6/h1,3-4,8H,7H2	InChI=1S/C6H6N2/c1-2-6-5(7)3-4-8-6/h1,3-4,8H,7H2
