12
gdb 21710	8.58585	1.21462	1.06416	2.4706	63.09	-0.2257	-0.0116	0.2141	1014.7019	0.085974	-407.013706	-407.006506	-407.005562	-407.046051	24.46	
N	 0.0136719099	 1.3268699194	 0.0524573951	-0.496566
C	 0.0659948689	-0.0208989418	 0.0143028419	 0.137456
N	 1.1882365417	-0.6475391433	-0.0019517075	-0.34492
C	 1.1475570007	-2.0203390596	-0.0124842745	 0.474056
N	 2.2604080817	-2.7573920192	-0.046826576	-0.297165
N	 1.7503598293	-3.9834901469	-0.0451174088	-0.066009
N	 0.4286666001	-4.0442162343	-0.0120624108	-0.111109
N	 0.0230058433	-2.8043793767	 0.0093829623	-0.27723
H	 0.8721316038	 1.8508731564	-0.0040835121	 0.271679
H	-0.8591286259	 1.8133116931	-0.0368746749	 0.270974
H	-0.9073231159	-0.5189318541	 0.0134056855	 0.141421
H	 2.3247253326	-4.8118930031	-0.0656562701	 0.297412
49.5116	124.5139	165.544	173.8882	395.0484	437.3745	502.0338	547.5124	619.8693	730.4238	797.7099	800.8533	1015.3254	1040.8369	1053.607	1113.2156	1133.0479	1205.7314	1262.8535	1318.9672	1348.0571	1376.4384	1489.4471	1558.4321	1629.3272	1725.7756	3101.3028	3610.5774	3658.0036	3753.1377
NC=NC1=NNN=N1	NC=Nc1n[nH]nn1	
InChI=1S/C2H4N6/c3-1-4-2-5-7-8-6-2/h1H,(H3,3,4,5,6,7,8)	InChI=1S/C2H4N6/c3-1-4-2-5-7-8-6-2/h1H,(H3,3,4,5,6,7,8)
