16
gdb 25083	3.29531	1.65556	1.12484	4.4532	72.6	-0.1752	0.0536	0.2289	1026.8266	0.127765	-434.080435	-434.073205	-434.072261	-434.112188	27.962	
N	-0.1372537384	 1.2858229805	 0.1177300628	-0.6188
C	-0.0533535174	 0.0200088829	 0.0703571908	 0.457373
O	 1.0798036041	-0.7619470178	 0.0936414717	-0.242622
C	 0.7067075664	-2.1189372695	-0.03755308	-0.203672
C	-0.6299167996	-2.1640132033	-0.107641294	 0.353663
N	-1.7068477655	-3.0187958469	-0.3214058072	-0.418404
C	-2.9273261634	-2.2634115912	 0.0506707384	-0.183612
C	-2.5320085091	-0.7842506046	-0.1981429201	-0.164083
N	-1.1031052958	-0.8658454552	-0.0024617152	-0.101025
H	 0.7885308515	 1.7013253486	 0.1789628926	 0.221793
H	 1.4986854496	-2.8421794609	-0.0520937297	 0.135562
H	-1.6301114011	-3.9398066196	 0.0855601452	 0.250079
H	-3.7751617096	-2.575364024	-0.5633250458	 0.125107
H	-3.1892305254	-2.4079913909	 1.1078332804	 0.11633
H	-2.7794870142	-0.4599268676	-1.2165783452	 0.129979
H	-3.0017578122	-0.0979393406	 0.5093469954	 0.142333
105.5968	161.8839	195.66	296.3041	336.0942	533.8563	557.7185	570.8813	623.4503	646.128	684.3056	711.977	741.5864	790.1205	819.6829	899.1502	945.9484	985.8533	1045.3471	1049.6833	1114.0063	1125.6894	1193.9975	1212.7008	1250.6995	1268.1097	1304.3433	1337.9461	1397.8782	1421.2516	1468.8084	1520.0239	1529.6872	1741.9758	1783.6799	3007.7393	3029.3893	3098.8602	3110.3403	3323.2671	3539.2426	3601.5381
N=C1OC=C2NCCN12	[NH][C@H]1OC=C2NCCN12	
InChI=1S/C5H7N3O/c6-5-8-2-1-7-4(8)3-9-5/h3,6-7H,1-2H2	InChI=1S/C5H8N3O/c6-5-8-2-1-7-4(8)3-9-5/h3,5-7H,1-2H2/t5-/m1/s1
