20
gdb 46905	3.18398	1.32036	1.02107	3.729	79.15	-0.2339	0.0324	0.2664	1181.7696	0.174204	-403.17995	-403.172007	-403.171062	-403.21255	31.502	
O	 0.035269598	-0.0309652378	 0.6274233668	-0.371949
C	-0.0058951273	 1.1116407493	 0.2030854508	 0.370133
C	-1.3657424121	 1.7024790713	-0.1956324391	-0.272113
C	-1.5219136493	 3.2025567022	-0.485988594	-0.256552
C	-0.7362076654	 3.6353554427	-1.7074982453	 0.017282
C	 0.0304134883	 4.9323559639	-1.7461294974	-0.323963
C	 0.7694926689	 3.6208690846	-1.6171942855	 0.005147
C	 1.3790544109	 3.2268300459	-0.2888075091	-0.202856
N	 1.157149577	 1.8242464815	 0.0524070249	-0.297818
H	-1.6766697401	 1.1274869489	-1.0776926421	 0.130058
H	-2.0459335792	 1.3935517824	 0.6040600212	 0.128626
H	-2.5868996497	 3.4149663077	-0.6366452385	 0.102776
H	-1.2269885442	 3.7909946122	 0.3895874327	 0.101774
H	-1.1564624565	 3.2972703774	-2.6512298431	 0.086861
H	 0.0965487231	 5.4678187859	-2.6864431138	 0.115391
H	-0.0146045991	 5.5761470765	-0.8726271653	 0.111861
H	 1.3127683319	 3.2664247079	-2.4879390777	 0.08935
H	 2.4632685286	 3.37064101	-0.3182423684	 0.113417
H	 1.0092779317	 3.8878378829	 0.5056087132	 0.110297
H	 1.9526763344	 1.2964085546	 0.3811672698	 0.242281
60.1392	159.3543	256.2029	269.5913	330.3169	358.0452	424.0843	473.7944	491.8935	584.9694	647.8424	694.6574	716.4526	780.0825	820.9464	855.9632	899.4574	928.7382	974.2647	989.2587	1026.7503	1060.4202	1076.4685	1115.6451	1124.5925	1137.5746	1171.1341	1220.4071	1244.1142	1253.1998	1296.0644	1318.1727	1352.0467	1366.1881	1388.8154	1410.1512	1430.5245	1458.9315	1474.387	1491.7725	1494.4426	1517.0828	1764.3038	3014.6147	3033.916	3036.3101	3069.2105	3077.3495	3087.5416	3127.4599	3136.7808	3153.1091	3213.6946	3607.3942
O=C1CCC2CC2CN1	O=C1CC[C@H]2C[C@H]2CN1	
InChI=1S/C7H11NO/c9-7-2-1-5-3-6(5)4-8-7/h5-6H,1-4H2,(H,8,9)	InChI=1S/C7H11NO/c9-7-2-1-5-3-6(5)4-8-7/h5-6H,1-4H2,(H,8,9)/t5-,6-/m0/s1
