19
gdb 106787	2.54479	1.53171	1.11616	2.1975	75.97	-0.245	0.0028	0.2478	1132.593	0.158084	-423.019455	-423.010687	-423.009743	-423.052801	33.533	
C	-0.2022373839	 1.4480154239	 0.0454331513	-0.486306
C	 0.1773851872	-0.0083678463	 0.0452256077	 0.331482
C	 0.3523172487	-0.7437890917	-1.2887654112	-0.33289
C	 1.2858062191	-1.8856929732	-0.9489635927	-0.083858
C	 1.669654952	-1.8556978939	 0.3282144564	-0.123316
C	 1.0221089483	-0.7096047149	 1.0401689815	 0.294306
C	 1.599373315	-0.1485005143	 2.3097868289	-0.164236
O	 1.5025623449	-1.0899246647	 3.3683492709	-0.419426
O	-0.4359341551	-0.8310814649	 1.0506515393	-0.34822
H	 0.5290789018	 2.0415189491	-0.5129769748	 0.123688
H	-1.178630201	 1.584067116	-0.4330684257	 0.129524
H	-0.2712342308	 1.8396733066	 1.0622017733	 0.130941
H	-0.6126349971	-1.0960227765	-1.6736580252	 0.124555
H	 0.7764192625	-0.0807721746	-2.0543071231	 0.110506
H	 1.564836635	-2.6420435484	-1.6738102711	 0.101927
H	 2.3271357181	-2.5572519112	 0.8254718656	 0.112189
H	 2.6675492143	 0.0564755408	 2.1810037945	 0.112692
H	 1.1008671771	 0.7963939812	 2.5665879302	 0.092248
H	 0.5707824637	-1.3283409028	 3.4374162943	 0.294195
66.1157	144.2777	173.8183	213.0076	265.0515	295.5057	355.2102	399.2142	431.5377	497.7819	525.4508	593.5037	700.9011	727.0211	742.9304	830.1871	869.2019	929.6942	941.711	953.8061	959.4269	977.5559	1036.6199	1075.7612	1093.2703	1140.815	1188.8105	1192.886	1213.3216	1261.5793	1315.2457	1362.9394	1380.798	1408.9845	1426.8589	1447.6119	1460.8106	1486.0287	1490.9435	1500.3133	1666.6296	3008.6168	3023.3678	3036.9085	3059.7932	3075.9785	3096.6124	3130.9126	3193.3381	3224.6109	3797.4495
CC12CC=CC1(CO)O2	C[C@@]12CC=C[C@]1(CO)O2	
InChI=1S/C7H10O2/c1-6-3-2-4-7(6,5-8)9-6/h2,4,8H,3,5H2,1H3	InChI=1S/C7H10O2/c1-6-3-2-4-7(6,5-8)9-6/h2,4,8H,3,5H2,1H3/t6-,7-/m1/s1
