20
gdb 114747	2.38383	1.56676	1.19336	2.5813	74.6	-0.2276	0.0702	0.2977	1117.9751	0.171835	-440.253013	-440.244386	-440.243442	-440.286264	32.988	
C	 0.2813609332	 0.821017242	 0.5917318027	-0.235631
O	 0.2825613317	-0.472761621	 0.0370658561	-0.241435
C	 0.5907567961	-0.520557495	-1.3457535765	 0.053066
C	 2.1139661532	-0.5235557678	-1.6305031157	-0.231591
C	 2.4910460786	-1.9911841088	-1.7541402254	-0.035014
N	 2.003045124	-2.8078768323	-0.6223178494	-0.32883
C	 1.2634489406	-2.8056464071	-1.9029058143	-0.072333
C	 0.0507505828	-1.8863763884	-1.8907632892	 0.139625
O	-1.0637824799	-2.3578330071	-1.1788537029	-0.439087
H	 1.2760750551	 1.2890636697	 0.5551050465	 0.108051
H	-0.4308467698	 1.4826302186	 0.0742810474	 0.107241
H	-0.0183384688	 0.7239893427	 1.6379712347	 0.130101
H	 0.0899562595	 0.3192688858	-1.8475496515	 0.066949
H	 2.3255347201	-0.008604657	-2.5749795569	 0.098661
H	 2.6677554242	-0.0078188547	-0.8398290917	 0.110512
H	 3.422489508	-2.2671072398	-2.2385666914	 0.082628
H	 2.5544591942	-3.6608046961	-0.5653774149	 0.229417
H	 1.2334732434	-3.7123296436	-2.4984350202	 0.083693
H	-0.2727248956	-1.7440158439	-2.9299862308	 0.080311
H	-0.8977295805	-2.1107044464	-0.2589096166	 0.293665
83.863	116.7665	184.0636	202.1793	248.8954	333.1025	357.8772	385.4051	428.3051	507.264	548.9917	644.4862	774.33	795.4357	833.8064	871.2937	901.6449	906.7241	956.4996	998.3279	1029.6292	1077.4734	1080.1519	1122.5171	1131.1992	1150.0145	1164.9707	1183.9254	1205.9205	1227.7657	1257.7532	1269.5122	1296.9949	1328.6255	1357.9339	1382.6413	1393.5766	1430.747	1454.0318	1469.1997	1480.6746	1489.3929	1510.6821	2976.541	2996.0166	3026.7331	3029.0515	3042.5285	3087.2377	3115.8255	3154.3645	3167.125	3497.7638	3759.1333
COC1CC2NC2C1O	CO[C@H]1C[C@H]2N[C@H]2[C@H]1O	
InChI=1S/C6H11NO2/c1-9-4-2-3-5(7-3)6(4)8/h3-8H,2H2,1H3	InChI=1S/C6H11NO2/c1-9-4-2-3-5(7-3)6(4)8/h3-8H,2H2,1H3/t3-,4+,5-,6+/m1/s1
