14
gdb 133139	2.35954	1.87731	1.05229	1.0349	71.05	-0.2366	-0.0661	0.1704	1049.6556	0.10062	-474.131326	-474.123479	-474.122535	-474.164027	28.708	
C	 0.0067265053	 1.4816503047	 0.019370096	-0.468284
C	-0.0346532179	-0.0148310321	 0.0431212305	 0.219948
C	-1.1644249745	-0.7383396504	-0.1247278956	 0.181379
F	-2.3374903031	-0.1620655876	-0.3260109931	-0.037137
C	-1.153038573	-2.1883693393	-0.093388249	 0.335392
N	-2.1948789891	-2.9094851875	-0.2470648136	-0.544507
N	 0.1607378871	-2.6344339164	 0.1279725486	-0.315465
N	 1.2810331621	-1.9012029517	 0.2941045375	-0.046429
N	 1.1966828512	-0.6398496902	 0.2548216962	-0.258598
H	 0.6824234824	 1.8252371857	-0.7703181633	 0.152117
H	-0.9843535706	 1.9029992368	-0.1493295663	 0.144154
H	 0.4016893088	 1.8605866197	 0.9673362824	 0.152118
H	-1.9830551236	-3.9062925538	-0.1925659676	 0.211391
H	 0.3359138448	-3.628765788	 0.1765045673	 0.273923
90.5461	116.0229	166.0785	284.0724	291.2108	314.6887	500.1198	508.5633	521.7459	566.5435	593.3033	675.29	686.1182	762.2311	807.367	910.7141	970.3666	1029.708	1062.9329	1115.8677	1136.0863	1252.4524	1279.3766	1360.4091	1411.6254	1451.9399	1478.8152	1480.1224	1550.9805	1673.1602	1732.4604	3047.5395	3103.7912	3155.6808	3474.8022	3604.5486
CC1=C(F)C(=N)NN=N1	Cc1c(F)c([NH])[nH]nn1	
InChI=1S/C4H5FN4/c1-2-3(5)4(6)8-9-7-2/h1H3,(H2,6,7,8)	InChI=1S/C4H10FN4/c1-2-3(5)4(6)8-9-7-2/h2-4,6-9H,1H3
