19
gdb 28442	2.98708	1.30138	0.9167	1.0049	87.38	-0.2077	0.0074	0.2151	1272.6053	0.159608	-385.973638	-385.964923	-385.963979	-386.006501	33.74	
C	-0.0234967349	 1.5222949095	-0.0288171706	-0.495797
C	 0.014053003	 0.0142972174	-0.0005403345	 0.212344
C	 0.0301572438	-0.7152870829	-1.1876427928	-0.165193
C	 0.0647582736	-2.1075694215	-1.1978399115	-0.278369
C	 0.0839763466	-2.7963591458	 0.0111534126	 0.389159
O	 0.1179927976	-4.1594616991	 0.0893851817	-0.445648
C	 0.0683020065	-2.0832789049	 1.210303653	-0.283673
C	 0.0336968112	-0.6914963603	 1.2200846936	 0.261704
C	 0.0176540315	 0.0466046639	 2.5357641712	-0.495016
H	 0.845311288	 1.9642958141	 0.4744059354	 0.124656
H	-0.0339706635	 1.8937848038	-1.0569043967	 0.117965
H	-0.9120224819	 1.920573226	 0.4764921118	 0.124667
H	 0.0153023955	-0.1831390988	-2.1344910696	 0.086947
H	 0.0766233303	-2.650228215	-2.1395358116	 0.079947
H	 0.125637552	-4.5219181395	-0.8023902026	 0.294157
H	 0.0837572989	-2.6407569989	 2.1410262448	 0.093666
H	 0.8805929365	 0.7161895757	 2.6338117614	 0.128313
H	-0.8762986946	 0.6737817896	 2.6362213233	 0.128296
H	 0.0355941108	-0.6479733136	 3.3790597811	 0.121875
135.1745	145.8297	173.4483	218.9285	298.8556	321.061	339.8295	364.4634	453.9019	457.3115	492.7412	560.4279	594.0118	723.2228	737.6718	757.6519	807.7333	883.8533	915.8268	963.8199	1015.1775	1024.4895	1043.9017	1071.664	1133.4034	1179.6674	1210.1208	1226.9293	1297.0345	1321.9083	1351.4718	1410.6934	1423.4213	1468.21	1477.5014	1493.5245	1496.1409	1506.1603	1536.2944	1625.4142	1664.0785	3019.5587	3024.7507	3064.5438	3072.3777	3109.4703	3116.7126	3151.5574	3171.2076	3183.5754	3822.9159
CC1=CC=C(O)C=C1C	Cc1ccc(O)cc1C	
InChI=1S/C8H10O/c1-6-3-4-8(9)5-7(6)2/h3-5,9H,1-2H3	InChI=1S/C8H10O/c1-6-3-4-8(9)5-7(6)2/h3-5,9H,1-2H3
