17
gdb 20789	3.00861	1.85412	1.24377	3.3016	70.97	-0.241	-0.0025	0.2386	999.1241	0.141947	-363.875559	-363.867333	-363.866388	-363.909097	29.051	
C	 0.0136275703	 1.6305679228	 0.3146741367	-0.372851
C	-0.0231747779	 0.1450768816	-0.0864133287	-0.295876
C	-1.4075965161	-0.405119104	-0.1655675225	 0.360458
C	-2.1902803372	-0.8570087441	-1.1891791609	 0.059824
C	-1.8803052988	-0.9636683188	-2.6493959636	-0.513814
C	-3.4013975632	-1.2109597886	-0.5255012527	-0.026991
N	-3.3575584829	-0.9953822908	 0.7638833002	-0.145394
O	-2.086396961	-0.4808285559	 0.9990614035	-0.219524
H	 1.0464983355	 1.9846638344	 0.3784760845	 0.117718
H	-0.5156112563	 2.24718884	-0.4178891206	 0.123927
H	-0.4617703603	 1.7797004769	 1.2874606859	 0.141546
H	 0.4616818187	 0.0043446142	-1.0572037956	 0.11559
H	 0.5504912622	-0.4427696512	 0.6403526363	 0.12898
H	-2.0015455921	-1.9902668122	-3.0122092892	 0.135793
H	-2.5414012165	-0.32875271	-3.2499373335	 0.135922
H	-0.8520301596	-0.6595053886	-2.8619305709	 0.129232
H	-4.3053729348	-1.6201456859	-0.9568744289	 0.125459
42.0144	84.2327	153.4088	203.0368	258.6589	271.9963	354.4101	429.9654	622.0458	651.0178	678.1335	728.6815	787.0947	909.3593	930.631	949.2745	980.9413	1003.6805	1057.2678	1066.4631	1085.9414	1184.4755	1205.477	1245.2217	1309.5421	1350.8156	1397.5738	1410.5456	1428.725	1475.7465	1484.6055	1495.4351	1496.5684	1504.4469	1521.63	1675.1408	3032.4643	3037.3589	3045.1576	3082.999	3084.5324	3113.467	3116.6458	3128.5423	3231.9657
CCC1=C(C)C=NO1	CCc1c(C)cno1	
InChI=1S/C6H9NO/c1-3-6-5(2)4-7-8-6/h4H,3H2,1-2H3	InChI=1S/C6H9NO/c1-3-6-5(2)4-7-8-6/h4H,3H2,1-2H3
