16
gdb 10256	2.17774	2.04875	1.10851	4.5407	69.23	-0.3347	-0.0092	0.3255	1044.5112	0.129246	-342.815671	-342.806819	-342.805875	-342.849124	31.187	
C	-0.0268859758	 1.5519960744	 0.0004338892	-0.413701
C	 0.0094638109	 0.0207139697	-0.0332452744	 0.025144
C	 0.7207887898	-0.5014259098	-1.2857110959	-0.413696
C	 0.7074761134	-0.5333001938	 1.2570996135	-0.284828
C	 0.0543709495	-0.0545561833	 2.4837746295	 0.30275
N	-0.4647996256	 0.3494024873	 3.4325998455	-0.309767
C	 0.7631466972	-2.0020835509	 1.2642103629	 0.302749
N	 0.810731099	-3.1553545688	 1.2379118387	-0.309764
H	 0.9868994926	 1.9692063615	 0.0008278084	 0.123148
H	-0.5402912372	 1.9299181057	-0.8879337961	 0.131125
H	-0.5523690937	 1.9298526657	 0.8811127159	 0.151126
H	-1.0176627236	-0.3611419662	-0.0206704772	 0.116938
H	 1.7576401438	-0.1475641054	-1.325039753	 0.123149
H	 0.7305922223	-1.5935811757	-1.3257472712	 0.151117
H	 0.2113870007	-0.1346056705	-2.1810099081	 0.131131
H	 1.7425599567	-0.1638651597	 1.2687194221	 0.173379
67.985	141.1172	151.4355	185.4009	224.7209	255.9149	343.2369	353.5241	390.4207	419.1657	511.0811	544.744	592.9066	816.4086	895.1869	940.2848	966.63	976.2105	1025.8064	1119.9846	1149.1313	1187.0569	1258.809	1312.5535	1354.404	1358.2143	1409.3183	1430.1162	1487.0943	1492.2649	1503.6391	1511.9842	2366.3007	2371.8279	3022.8096	3035.1724	3037.4633	3053.3738	3104.716	3111.3045	3125.7854	3126.9117
CC(C)C(C#N)C#N	CC(C)C(C#N)C#N	
InChI=1S/C6H8N2/c1-5(2)6(3-7)4-8/h5-6H,1-2H3	InChI=1S/C6H8N2/c1-5(2)6(3-7)4-8/h5-6H,1-2H3
