16
gdb 99015	5.2573	0.73791	0.65232	1.5305	63.93	-0.2741	-0.0432	0.2308	1621.8221	0.121188	-512.183583	-512.173723	-512.172779	-512.219652	33.609	
O	 0.5033908426	 1.0285109341	-0.4371427189	-0.417373
C	 0.0480182235	-0.258236663	-0.1450743599	-0.103446
C	-1.4540201963	-0.3540160672	-0.2546619502	 0.388501
N	-2.1515880905	 0.6386669132	-0.573851306	-0.518025
O	-1.8542141907	-1.659926438	 0.047335767	-0.252304
C	-3.1479397202	-2.0617832524	 0.0371625332	 0.417645
O	-4.1026956456	-1.37482314	-0.2262274701	-0.348041
C	-3.2646298154	-3.5262872605	 0.4077858901	-0.142202
O	-4.5961177516	-3.9461716721	 0.3984887744	-0.414072
H	-0.2881529977	 1.5498290993	-0.6429888449	 0.301065
H	 0.488299348	-1.0032411316	-0.827039128	 0.121532
H	 0.3362295388	-0.5633841336	 0.8736308063	 0.121528
H	-3.1489636826	 0.4472858472	-0.6136977332	 0.269485
H	-2.6533033355	-4.1043138119	-0.3019283063	 0.137029
H	-2.8048115874	-3.6617606886	 1.3986277773	 0.137014
H	-5.1266448494	-3.1757352147	 0.1509391093	 0.301663
53.7144	63.0864	82.9079	129.7132	135.2611	271.3126	299.4355	321.4935	353.0326	375.0865	418.6004	516.5147	566.0884	659.2026	729.9228	891.0492	912.6226	933.3628	1017.3166	1033.9451	1049.5006	1132.583	1137.462	1213.234	1244.9254	1246.8942	1257.9663	1311.1988	1355.7398	1456.8009	1472.4494	1491.1836	1500.651	1750.6056	1830.1306	2982.1777	2995.9988	2998.5583	3016.6456	3547.2855	3697.2939	3742.3117
OCC(=N)OC(=O)CO	OC[C]([NH])OC(=O)CO	
InChI=1S/C4H7NO4/c5-3(1-6)9-4(8)2-7/h5-7H,1-2H2	InChI=1S/C4H7NO4/c5-3(1-6)9-4(8)2-7/h5-7H,1-2H2
