16
gdb 30629	4.47997	0.97401	0.80409	6.233	73.83	-0.2254	-0.0218	0.2035	1347.1263	0.124765	-437.928476	-437.919965	-437.91902	-437.962378	30.762	
O	-0.0028805343	 1.4107843464	 0.0102965471	-0.396123
C	-0.0149922518	 0.0070167539	 0.0032659422	-0.186413
C	-1.4641327055	-0.4911503001	 0.011816886	 0.286509
O	-2.3971590245	 0.282275665	 0.0227773529	-0.310688
C	-1.6574832584	-1.9497108344	 0.0075454742	 0.180155
C	-0.6970574965	-2.9497763453	-0.0035080744	-0.17171
N	-1.3442304726	-4.1483251303	-0.003541788	-0.245397
C	-2.709084573	-3.94794356	 0.007462851	-0.064964
C	-2.9322822504	-2.5984773333	 0.0144883121	-0.232997
H	 0.9146411287	 1.6979307094	 0.0034012935	 0.288637
H	 0.4805853621	-0.4146152626	-0.8883526368	 0.101748
H	 0.4943020499	-0.423572085	 0.8828024521	 0.101751
H	 0.3800500632	-2.9029658432	-0.011285888	 0.128612
H	-0.8925399941	-5.0465943643	-0.0104662903	 0.267303
H	-3.3889258777	-4.7843988402	 0.0091900018	 0.129313
H	-3.8836323051	-2.0921864459	 0.0235717444	 0.124265
66.9925	75.079	150.9056	184.0297	231.4642	292.473	367.3458	495.0075	515.3709	551.8885	643.0508	681.2045	709.1004	747.8949	786.2855	877.4362	902.4773	915.4291	1010.1929	1022.8225	1079.3461	1099.9621	1148.2401	1163.5301	1227.0296	1252.7467	1270.7433	1338.9061	1406.9167	1442.7306	1456.254	1502.4732	1532.7548	1586.3478	1785.2968	2950.187	2973.9061	3262.5475	3264.4153	3282.927	3676.2072	3835.6777
OCC(=O)C1=CNC=C1	OCC(=O)c1c[nH]cc1	
InChI=1S/C6H7NO2/c8-4-6(9)5-1-2-7-3-5/h1-3,7-8H,4H2	InChI=1S/C6H7NO2/c8-4-6(9)5-1-2-7-3-5/h1-3,7-8H,4H2
