16
gdb 48693	2.98411	1.18533	0.98074	3.9276	77.51	-0.2409	-0.0236	0.2173	1205.0322	0.122647	-400.672187	-400.663946	-400.663002	-400.70525	31.083	
O	-0.1744336582	-0.0432759553	 0.1413150849	-0.260453
C	-0.037946558	 1.1346952915	-0.0732367362	 0.084921
C	 1.2526746156	 1.8416154885	-0.1138489096	 0.281857
C	 1.3564531142	 3.30763307	 0.2942510538	-0.341687
C	 1.7429045679	 2.9252601799	-1.0919756032	-0.126856
C	 3.1060799137	 2.2015613185	-1.071707257	-0.19942
N	 2.5344044806	 1.1535079401	-0.1619181969	-0.351618
C	 3.5642293517	 1.6800689938	-2.3493455791	 0.354176
C	 3.9438550465	 1.2805454934	-3.4168529461	-0.416478
H	-0.9122936847	 1.8058750607	-0.2470260326	 0.063981
H	 0.4130619111	 3.837397342	 0.3871259464	 0.130389
H	 2.1105929914	 3.5863592166	 1.0261879654	 0.119694
H	 1.2491234963	 3.2925713348	-1.9811051953	 0.12562
H	 3.9011050736	 2.8064788738	-0.6158425796	 0.108536
H	 3.0090564525	 1.0609605844	 0.7320961759	 0.225863
H	 4.2787922059	 0.9111533473	-4.3546049608	 0.201477
70.8795	140.3044	170.3086	204.7596	273.6309	371.6076	414.0153	470.2687	485.638	538.0037	634.7643	658.3947	712.8285	771.9649	776.0227	857.4271	915.9789	928.4798	957.8537	992.856	1010.9033	1048.6808	1057.0812	1072.0742	1094.5892	1207.6994	1238.2624	1291.2776	1339.0406	1360.3763	1394.4326	1438.9912	1477.4641	1819.3465	2242.3036	2850.7524	3012.8254	3110.9974	3202.2841	3218.3281	3498.9188	3503.2607
O=CC12CC1C(N2)C#C	O=C[C@]12C[C@H]1[C@@H](N2)C#C	
InChI=1S/C7H7NO/c1-2-6-5-3-7(5,4-9)8-6/h1,4-6,8H,3H2	InChI=1S/C7H7NO/c1-2-6-5-3-7(5,4-9)8-6/h1,4-6,8H,3H2/t5-,6-,7+/m0/s1
