20
gdb 92957	2.75368	1.51897	1.19965	1.5999	79.09	-0.2392	0.0266	0.2658	1103.8717	0.172111	-403.161791	-403.153581	-403.152637	-403.194915	31.685	
C	-0.3083634774	 1.4743494873	-0.0417696391	-0.403595
C	 0.0960870318	 0.0104556212	-0.0706938181	 0.026727
O	 1.1340394816	-0.1690855654	-1.0798965386	-0.236821
C	 2.1455827316	-0.7999111038	-0.4452463651	 0.103186
N	 2.0499239908	-1.0765725967	 0.7871616782	-0.302709
C	 0.7323533648	-0.5785884367	 1.2201491957	 0.311371
C	 0.8594748546	 0.2478456013	 2.5380950651	-0.255707
C	 0.5274704011	-1.0405431725	 3.3358305483	-0.21257
C	-0.041099332	-1.6570252061	 2.0315814364	-0.253738
H	 0.5190209563	 2.1031383766	 0.2997805	 0.129462
H	-0.6052989723	 1.8036139764	-1.0411935994	 0.129049
H	-1.1580026773	 1.6237802389	 0.6313189859	 0.122988
H	-0.7525402807	-0.6074072021	-0.3888882678	 0.089574
H	 2.9999561931	-1.0245691479	-1.0749319134	 0.136251
H	 1.8269626715	 0.7231770149	 2.7101674541	 0.106374
H	 0.0686250147	 0.9973312833	 2.6274517834	 0.096254
H	 1.4325080315	-1.5564499825	 3.6619265085	 0.120624
H	-0.1525808924	-0.9438203937	 4.1846614829	 0.093803
H	-1.1235436118	-1.5126811922	 1.9455866598	 0.093529
H	 0.2028946207	-2.6960656201	 1.8009461932	 0.105948
48.311	124.3498	213.7438	255.6917	286.2036	298.2313	382.282	463.9076	499.3998	589.867	679.5208	736.0685	786.585	841.58	847.3612	879.2224	924.8157	941.3809	960.6571	967.3193	986.2963	1054.5212	1069.6569	1087.4226	1140.4498	1152.0521	1173.4543	1202.2525	1211.9147	1257.1604	1259.8992	1276.0373	1296.3738	1323.9359	1353.0238	1378.9151	1408.8521	1463.9199	1475.7006	1486.1963	1493.2702	1500.6559	1703.5906	3027.8686	3042.9092	3046.3765	3064.1118	3073.4765	3109.6555	3116.4117	3119.8479	3122.4459	3134.3553	3208.2924
CC1OC=NC11CCC1	C[C@H]1OC=NC21CCC2	
InChI=1S/C7H11NO/c1-6-7(3-2-4-7)8-5-9-6/h5-6H,2-4H2,1H3	InChI=1S/C7H11NO/c1-6-7(3-2-4-7)8-5-9-6/h5-6H,2-4H2,1H3/t6-/m1/s1
