14
gdb 7400	3.46291	1.5234	1.25019	1.685	59.27	-0.2403	-0.0977	0.1426	992.0609	0.102075	-419.716513	-419.707206	-419.706262	-419.75184	30.445	
C	 0.3699904935	 1.2717714288	 0.33406505	-0.491359
C	-0.2122786842	-0.1057455047	 0.1713125173	 0.325636
O	-0.8985621809	-0.678568428	 0.9827867141	-0.272524
C	-0.0025918264	-0.7954563614	-1.1921470191	 0.207234
O	-0.0359911477	-0.177632295	-2.229398238	-0.277135
C	 0.2520547422	-2.3162570047	-1.160277863	 0.325621
C	-0.3602327192	-3.1322983613	-2.2658351975	-0.491354
O	 0.9918659372	-2.7368022853	-0.303877839	-0.272516
H	 0.1269060753	 1.8832401789	-0.5396624526	 0.165326
H	-0.0018338865	 1.7311978672	 1.2502890462	 0.150083
H	 1.4636248711	 1.1982322675	 0.3762954352	 0.157788
H	-0.1761023648	-2.6491330565	-3.2296975833	 0.165328
H	 0.0415961225	-4.1457720738	-2.2517901423	 0.150082
H	-1.4481421821	-3.1653554016	-2.129497788	 0.157787
32.5007	59.7738	131.3525	133.0505	156.1884	193.531	295.6132	304.5989	420.2689	465.1922	543.3827	619.3775	650.5676	719.8764	868.3112	952.4519	1026.8091	1040.5398	1060.2628	1202.6875	1294.4763	1378.8963	1381.9709	1459.1031	1459.6783	1461.2536	1461.6459	1794.1519	1797.9224	1820.7598	3040.2019	3040.3521	3108.3944	3108.5026	3161.1127	3161.1837
CC(=O)C(=O)C(C)=O	CC(=O)C(=O)C(=O)C	
InChI=1S/C5H6O3/c1-3(6)5(8)4(2)7/h1-2H3	InChI=1S/C5H6O3/c1-3(6)5(8)4(2)7/h1-2H3
