20
gdb 91859	3.11299	1.22356	1.05692	3.0805	79.35	-0.2406	-0.0237	0.2169	1207.238	0.171195	-403.147071	-403.138481	-403.137537	-403.180339	32.669	
C	 0.6161939486	 1.4682310169	 0.0563767669	-0.404738
C	 0.0216433276	 0.0539276137	 0.09304764	 0.010716
C	 0.3765144943	-0.8189404907	-1.1499774067	-0.177909
N	 1.3037610029	-1.9006386707	-0.761788003	-0.127134
C	 2.5334048014	-1.4570739651	-0.1282209574	-0.28813
C	 1.3787803198	-1.8836177036	 0.7280415379	 0.238735
C	 0.4893706195	-0.7979263432	 1.306878273	-0.315501
C	 1.4269799549	-3.2204887593	 1.376010405	 0.097205
O	 0.9339483569	-3.4748322776	 2.4471730718	-0.263833
H	 1.7107707876	 1.461193718	 0.0285370547	 0.11865
H	 0.2691316646	 2.0143121786	-0.8272678852	 0.11792
H	 0.3141871339	 2.0406457363	 0.9397137784	 0.12095
H	-1.0662325812	 0.165935235	 0.1364891385	 0.085615
H	-0.5198886173	-1.3016722353	-1.5507360585	 0.113879
H	 0.8214840729	-0.2308354406	-1.9598075499	 0.109419
H	 3.3818547848	-2.123666033	-0.2644390887	 0.122854
H	 2.7875138919	-0.4006008729	-0.1148631522	 0.123002
H	 1.0121278721	-0.191922128	 2.0530877909	 0.111917
H	-0.3498461655	-1.2746853727	 1.8201613848	 0.125963
H	 1.9633177303	-3.9897756558	 0.7772996097	 0.080421
87.4796	109.0189	172.5474	210.7138	243.4798	347.1597	359.933	388.3546	417.2966	476.7163	648.1767	686.1501	740.9786	778.7971	815.4239	890.1491	909.1176	926.0244	947.4377	961.0437	1021.6495	1040.8552	1062.1271	1097.2085	1113.4677	1148.0895	1179.7505	1217.5089	1244.7969	1278.7076	1293.0745	1312.5291	1359.5443	1367.2826	1374.3604	1414.9393	1427.8261	1490.9242	1491.881	1499.0013	1505.616	1515.508	1817.1712	2891.6018	3031.336	3040.5415	3049.1747	3060.9846	3086.8491	3097.4251	3100.0215	3102.1785	3106.5829	3189.5837
CC1CN2CC2(C1)C=O	C[C@H]1CN2C[C@]2(C1)C=O	
InChI=1S/C7H11NO/c1-6-2-7(5-9)4-8(7)3-6/h5-6H,2-4H2,1H3	InChI=1S/C7H11NO/c1-6-2-7(5-9)4-8(7)3-6/h5-6H,2-4H2,1H3/t6-,7-,8?/m1/s1
