14
gdb 26843	3.66381	1.11633	0.85951	4.8618	73.22	-0.2174	-0.0496	0.1677	1242.1075	0.101777	-470.04608	-470.037884	-470.03694	-470.078951	29.843	
N	-0.2268277217	 1.4211525674	-0.0178986784	-0.622618
C	-0.0528231302	 0.0157143282	-0.024758604	 0.109177
C	-1.1271036485	-0.8580959649	-0.0906140956	 0.394391
O	-2.4431422638	-0.6245584773	-0.156513496	-0.423631
N	-0.608774298	-2.1069283971	-0.0778502203	-0.352038
C	 0.7741371634	-1.9647816827	-0.0037100501	 0.229375
C	 1.6389642158	-3.1331926911	 0.0285211702	 0.084571
O	 2.8465309175	-3.1226365433	 0.0918221858	-0.269297
N	 1.1090806623	-0.6836635581	 0.0278560099	-0.298479
H	 0.2554104236	 1.8504991463	-0.80294381	 0.252241
H	 0.1718599477	 1.8321984248	 0.8219054115	 0.252252
H	-2.5340074724	 0.3407869671	-0.1500226375	 0.315514
H	-1.1325369872	-2.9669552673	-0.1149824093	 0.280585
H	 1.0685202815	-4.0936187219	-0.0119403163	 0.047955
107.3502	157.9279	174.4609	216.0521	245.1872	298.1454	371.4527	436.1382	518.8783	528.3205	535.5444	668.4234	696.0957	714.1052	753.0462	851.6984	901.9427	1010.6227	1020.6296	1161.0401	1206.7435	1217.6068	1249.0101	1329.5744	1404.9286	1456.8771	1518.098	1569.119	1633.5703	1678.1781	1797.1542	2825.1161	3487.629	3548.9993	3649.9066	3735.4952
NC1=C(O)NC(C=O)=N1	Nc1c(O)[nH]c(C=O)n1	
InChI=1S/C4H5N3O2/c5-3-4(9)7-2(1-8)6-3/h1,9H,5H2,(H,6,7)	InChI=1S/C4H5N3O2/c5-3-4(9)7-2(1-8)6-3/h1,9H,5H2,(H,6,7)
