21
gdb 104914	2.08237	1.48839	1.00778	1.7132	85.82	-0.2549	0.0286	0.2835	1278.5039	0.177803	-387.054462	-387.043721	-387.042777	-387.089822	39.621	
C	 0.4591206343	 1.3966214337	 0.3356942456	-0.378501
C	-0.2731385523	 0.1586826636	-0.1956753791	-0.272821
C	 0.4571871367	-0.4781653696	-1.37215174	 0.113292
O	 1.7259897568	-1.096669608	-1.0636303134	-0.319644
C	 0.6668261261	-1.9513107558	-1.5185843301	 0.343411
C	 0.1330915244	-2.9357688908	-0.4969070208	-0.459829
C	 0.8785876582	-2.5518960628	-2.893106756	-0.465177
C	 0.4506781822	 0.3526846321	-2.5606484681	 0.325748
C	 0.401415992	 1.0787775365	-3.5183319499	-0.43644
H	 1.4660210696	 1.1297119919	 0.6694841978	 0.1329
H	 0.5505830065	 2.1633738074	-0.4389400802	 0.129814
H	-0.080031948	 1.8302058228	 1.1828866303	 0.111287
H	-0.3833716046	-0.573469942	 0.6064362199	 0.103588
H	-1.2829429324	 0.4288125179	-0.5260008641	 0.108226
H	 0.143356134	-2.529491677	 0.5142557532	 0.132692
H	-0.8886557112	-3.2403038385	-0.7471461593	 0.124621
H	 0.7572585224	-3.8359948421	-0.4995436208	 0.126443
H	 1.6097916594	-3.3649880602	-2.8308627441	 0.123051
H	-0.0573369477	-2.9715470298	-3.2773983742	 0.119958
H	 1.2432297589	-1.807282926	-3.6008328334	 0.141264
H	 0.3713726646	 1.7115568768	-4.3708563732	 0.196116
66.3052	115.922	135.1178	147.1402	174.0114	206.4339	220.3189	278.6612	331.9307	377.583	390.783	402.7724	493.7519	559.1147	586.8754	622.1405	654.888	662.765	725.6319	784.3474	897.7853	916.5032	948.0939	966.4366	1005.8684	1044.6546	1097.3891	1127.9956	1160.262	1197.9761	1251.5204	1300.8152	1354.7085	1403.7144	1407.8777	1414.1078	1419.9996	1470.1372	1476.9957	1485.497	1496.7228	1500.4692	1507.2324	1512.9801	2228.7863	3037.3157	3042.3773	3043.9531	3047.0584	3096.1361	3101.8654	3104.1492	3116.1333	3125.8051	3150.2054	3150.5985	3499.9472
CCC1(OC1(C)C)C#C	CC[C@]1(OC1(C)C)C#C	
InChI=1S/C8H12O/c1-5-8(6-2)7(3,4)9-8/h1H,6H2,2-4H3	InChI=1S/C8H12O/c1-5-8(6-2)7(3,4)9-8/h1H,6H2,2-4H3/t8-/m1/s1
