21
gdb 88373	2.08904	1.50918	1.15794	3.8379	83.17	-0.2363	0.0342	0.2705	1189.1176	0.180109	-383.254662	-383.244453	-383.243509	-383.289594	37.912	
C	-0.9802583561	 1.2772697672	-0.1549910938	-0.434267
C	-0.4782789243	-0.11502461	 0.1669506321	 0.035757
C	 0.8514106878	-0.5989754152	-0.31000654	-0.261531
N	 0.5891622688	-0.4368870215	 1.1147151236	-0.110622
C	 1.3185103879	 0.5225180503	 1.9695516446	 0.107448
C	 2.2076248707	-0.332039715	 2.9024674235	-0.380762
C	 2.2026597377	 1.5767363914	 1.263424884	-0.427719
C	 0.3196131021	 1.2249519148	 2.8021560149	 0.304847
N	-0.4476801999	 1.7848314666	 3.4604092192	-0.354921
H	-0.1761831538	 1.9754633176	-0.3971785738	 0.120868
H	-1.6408150987	 1.2237214902	-1.0270126471	 0.124815
H	-1.5569328972	 1.6936670773	 0.6755845475	 0.154544
H	-1.2827969819	-0.8477549562	 0.2239798261	 0.09824
H	 1.0016494777	-1.6219589345	-0.6476273815	 0.117366
H	 1.4709556724	 0.1357395193	-0.8206043321	 0.112066
H	 2.9313258999	-0.8808639865	 2.2931405031	 0.123714
H	 2.7492417015	 0.2950176267	 3.6158467354	 0.124578
H	 1.595491091	-1.0529597898	 3.4459791371	 0.142082
H	 1.6307391826	 2.2350477245	 0.6088042853	 0.136596
H	 2.6990383655	 2.1988010407	 2.0128210072	 0.137791
H	 2.9750904966	 1.0740160418	 0.6754487949	 0.129111
40.1256	134.0357	183.668	186.5069	213.2408	217.8983	265.8022	292.251	309.8308	368.2426	376.9834	449.6187	493.329	562.3091	601.6369	642.9123	788.0877	798.387	900.5369	915.6991	927.3808	971.2202	1021.6179	1035.2437	1050.9525	1120.5796	1129.9727	1152.047	1178.2341	1183.4654	1192.7419	1249.0491	1345.5033	1391.0204	1405.9331	1414.8373	1421.3684	1477.1328	1478.6294	1488.4515	1497.3382	1500.4169	1506.291	1517.1832	2355.0656	3045.055	3047.6072	3055.7317	3094.8439	3100.566	3110.0914	3120.6336	3127.7124	3131.2078	3147.2949	3149.9168	3175.202
CC1CN1C(C)(C)C#N	C[C@H]1CN1C(C)(C)C#N	
InChI=1S/C7H12N2/c1-6-4-9(6)7(2,3)5-8/h6H,4H2,1-3H3	InChI=1S/C7H12N2/c1-6-4-9(6)7(2,3)5-8/h6H,4H2,1-3H3/t6-,9?/m0/s1
