18
gdb 127414	3.12802	1.69067	1.13385	3.5564	79.32	-0.1928	0.0391	0.232	1060.704	0.151397	-398.143939	-398.136426	-398.135482	-398.175888	28.679	
C	-0.1414494804	 1.5035303629	-0.0866800898	-0.336232
N	 0.1138617211	 0.0798079561	 0.0156312456	-0.182039
C	 0.7830675722	-0.5599312115	-1.1372398952	-0.176464
C	 1.3546636516	-1.8823734757	-0.5658251771	-0.183531
N	 1.506156641	-1.4956539796	 0.8209585864	 0.021643
N	 2.0516356223	-2.1211066059	 1.8910273505	-0.30656
C	 1.6711646754	-1.3479028888	 2.9069287111	 0.017515
C	 0.8556413309	-0.2521832283	 2.5122156529	-0.398179
C	 0.763499566	-0.4143364053	 1.1435959344	 0.474203
H	 0.7810155618	 2.0977820236	-0.2004035536	 0.112111
H	-0.7865099161	 1.6963446885	-0.9488822745	 0.127701
H	-0.6656401541	 1.8451808485	 0.8093073149	 0.139954
H	 0.0790423232	-0.721500768	-1.9573356973	 0.120166
H	 1.6052259477	 0.0752620085	-1.5050714018	 0.106355
H	 0.6480941134	-2.7155573382	-0.667658681	 0.126831
H	 2.3049339612	-2.167288349	-1.0217821179	 0.134457
H	 1.9985600218	-1.5916283534	 3.9079430614	 0.105235
H	 0.4171599409	 0.5105672957	 3.1325187909	 0.096834
133.8451	151.1814	196.1302	225.7537	264.6565	361.3719	490.8781	591.4191	641.9974	648.4757	705.4694	741.0052	766.8298	855.2124	880.0548	946.8558	961.6254	1008.0806	1045.448	1088.5089	1117.5081	1157.9466	1170.6558	1206.2368	1225.5976	1242.4993	1275.4373	1316.0078	1347.1366	1355.4691	1373.1498	1449.6041	1460.4103	1489.6935	1500.2768	1503.4266	1523.1597	1542.1212	1616.4534	2963.5643	2972.0897	3028.033	3077.6275	3092.0965	3108.9371	3121.7248	3236.0088	3277.9858
CN1CCN2N=CC=C12	CN1CCn2nccc12	
InChI=1S/C6H9N3/c1-8-4-5-9-6(8)2-3-7-9/h2-3H,4-5H2,1H3	InChI=1S/C6H9N3/c1-8-4-5-9-6(8)2-3-7-9/h2-3H,4-5H2,1H3
