16
gdb 26737	3.33375	1.27975	0.93046	4.781	76.88	-0.1935	-0.0215	0.172	1189.8653	0.12568	-434.110906	-434.102304	-434.10136	-434.143816	32.201	
N	-0.001902822	 1.4229106975	 0.2052674974	-0.607677
C	 0.0095094322	 0.0295151698	 0.071708383	 0.215851
C	-1.0874869022	-0.7922947446	 0.019056591	 0.187787
N	-2.4708124608	-0.5311001221	 0.0311167953	-0.620366
N	-0.6105879256	-2.1214216229	-0.0277555399	-0.068043
C	-1.3875423624	-3.2702841595	-0.0776994736	 0.170732
O	-0.9309253502	-4.3870601654	-0.1285361991	-0.316393
C	 0.7715718005	-2.1012167663	-0.0133414621	-0.065232
C	 1.1823910734	-0.8031592299	 0.0524750958	-0.237267
H	 0.7828657735	 1.8720639502	-0.247896821	 0.247322
H	-0.8657279015	 1.8394157526	-0.1187445296	 0.231907
H	-2.8094790919	-0.0663797928	-0.8043097186	 0.242461
H	-2.7732615345	-0.0087455013	 0.8451706353	 0.248831
H	-2.4612006204	-3.030971452	-0.0642609466	 0.115927
H	 1.3139860496	-3.0303704989	-0.0521525832	 0.151287
H	 2.2061269522	-0.4612242643	 0.0876746159	 0.102873
108.5002	173.5852	206.1483	210.8986	263.4149	282.5464	304.9216	322.1976	409.0726	538.3856	607.9777	650.8037	664.8824	698.4993	736.106	759.2427	775.6283	843.2939	860.478	1020.2995	1051.6167	1066.59	1117.1931	1197.7298	1242.9034	1283.1491	1339.3985	1404.8985	1431.7713	1477.9493	1531.7491	1641.7267	1653.3603	1680.6026	1803.2179	3037.5742	3242.6515	3292.6391	3500.8789	3533.8223	3571.675	3627.0635
NC1=C(N)N(C=O)C=C1	Nc1c(N)n(C=O)cc1	
InChI=1S/C5H7N3O/c6-4-1-2-8(3-9)5(4)7/h1-3H,6-7H2	InChI=1S/C5H7N3O/c6-4-1-2-8(3-9)5(4)7/h1-3H,6-7H2
