21
gdb 26385	4.14698	0.91175	0.81864	2.2071	86.87	-0.1663	0.0612	0.2274	1478.3684	0.183319	-383.304401	-383.294954	-383.29401	-383.338757	36.018	
C	-0.0776175913	 1.5789628845	 0.0708188144	-0.393428
C	-0.0222745578	 0.0510465058	 0.0023263715	 0.067009
C	 0.7434951809	-0.5396886223	 1.1974452025	-0.389099
N	-1.3895045328	-0.4626874644	-0.1255305086	-0.4075
C	-1.564400246	-1.7872185477	-0.5418035237	 0.375111
C	-0.693839114	-2.7399610627	-1.0310723315	-0.22611
C	-1.4765523095	-3.880851967	-1.393631191	-0.13974
C	-2.7854734831	-3.5999610546	-1.1122964867	-0.102932
N	-2.830108109	-2.3194018791	-0.5869021683	-0.319431
H	 0.9297119126	 2.0029408093	 0.1207480631	 0.115374
H	-0.589893643	 1.9886070928	-0.8033784602	 0.12319
H	-0.6180996466	 1.9082359132	 0.9672178902	 0.10661
H	 0.4919218006	-0.2348463022	-0.9227774425	 0.098134
H	 0.2831657779	-0.2233826382	 2.1415661341	 0.103988
H	 0.7380430341	-1.6318011405	 1.1656653475	 0.132797
H	 1.7842847514	-0.1991372179	 1.2042433707	 0.112234
H	-1.9359598749	-0.2463805245	 0.7019261262	 0.217149
H	 0.3764965056	-2.6437413329	-1.1127467045	 0.083454
H	-1.1017297086	-4.8086322815	-1.798146507	 0.085584
H	-3.6847146213	-4.1835383225	-1.2196280791	 0.107547
H	-3.6685164152	-1.7978817174	-0.4002791272	 0.250057
54.4239	91.1733	148.0123	222.5986	255.8826	268.7312	315.4432	342.1446	402.9614	436.2481	481.3988	601.1162	618.4407	649.0407	694.3277	751.149	772.8825	832.2082	852.5542	892.8326	930.3277	945.2398	963.4705	1016.4487	1053.9009	1111.4124	1142.962	1145.8798	1170.1314	1194.7394	1265.0038	1287.4633	1352.7813	1356.659	1396.5053	1415.471	1416.8553	1447.6447	1485.2798	1486.9928	1497.0116	1509.9567	1523.7114	1534.746	1625.8938	3025.3963	3028.3758	3043.2234	3090.0608	3099.8049	3122.5876	3124.291	3243.7843	3262.5891	3276.3788	3511.5618	3679.6145
CC(C)NC1=CC=CN1	CC(C)Nc1ccc[nH]1	
InChI=1S/C7H12N2/c1-6(2)9-7-4-3-5-8-7/h3-6,8-9H,1-2H3	InChI=1S/C7H12N2/c1-6(2)9-7-4-3-5-8-7/h3-6,8-9H,1-2H3
