21
gdb 45555	3.07842	1.29995	1.11094	2.97	81.02	-0.234	-0.0131	0.2209	1169.5137	0.185492	-387.145654	-387.137873	-387.136929	-387.178802	30.856	
O	-0.2109371118	 0.4717113273	 1.0545623245	-0.307279
C	-0.1165886206	 1.3588200603	 0.2463869654	 0.391172
C	-1.2558567835	 1.9343475473	-0.5986526523	-0.342451
C	-0.8405686306	 3.3761620883	-0.9410556788	 0.002838
C	-1.5083472672	 4.4705619304	-0.0752191589	-0.214541
C	-0.405604977	 5.5153869752	 0.1494169379	-0.20091
C	 0.8356464792	 4.6439460792	 0.390231803	-0.21452
C	 0.7094129515	 3.4911204284	-0.6336245235	 0.002832
C	 1.163916537	 2.1136507359	-0.1193762111	-0.342465
H	-1.3280319009	 1.3109181812	-1.4998037781	 0.12366
H	-2.2106163355	 1.8471640975	-0.0745336132	 0.124703
H	-1.0266164512	 3.5904635392	-1.9964231299	 0.071953
H	-2.4113083986	 4.8780349237	-0.5388855222	 0.096002
H	-1.8080975701	 4.0475226458	 0.8925146416	 0.099805
H	-0.2715608172	 6.1256176917	-0.7528697265	 0.09686
H	-0.6203162661	 6.1989346718	 0.9760029858	 0.096243
H	 1.7795640956	 5.1880453168	 0.2935900958	 0.095999
H	 0.8015469771	 4.2402845713	 1.4106394706	 0.099805
H	 1.2496957724	 3.7598486718	-1.5447927642	 0.071948
H	 1.8507349819	 2.1478581739	 0.7297249176	 0.124698
H	 1.6598495457	 1.5325233431	-0.9082337733	 0.123647
46.2215	66.6485	245.5256	338.8325	361.8834	424.8145	458.8657	530.2452	565.8395	661.9766	671.3267	739.2436	766.9691	797.1859	856.2083	903.554	913.808	916.3651	962.207	1006.5444	1023.9583	1058.1722	1059.0154	1078.5545	1109.2045	1160.6691	1191.8572	1199.034	1220.7547	1222.5312	1256.0438	1266.8225	1310.1081	1316.7961	1324.4022	1334.4554	1348.1541	1360.3463	1371.0596	1449.6766	1458.5627	1489.1529	1493.3406	1508.8884	1843.8725	3022.03	3022.9116	3026.4008	3030.5763	3032.3553	3053.1103	3068.2747	3086.3207	3087.3244	3094.4725	3103.5359	3104.6313
O=C1CC2CCCC2C1	O=C1C[C@H]2CCC[C@H]2C1	
InChI=1S/C8H12O/c9-8-4-6-2-1-3-7(6)5-8/h6-7H,1-5H2	InChI=1S/C8H12O/c9-8-4-6-2-1-3-7(6)5-8/h6-7H,1-5H2/t6-,7+
