18
gdb 12761	3.23312	1.64719	1.34904	3.01	72.53	-0.2358	-0.0222	0.2136	973.2992	0.152855	-347.788145	-347.78017	-347.779226	-347.820795	29.675	
C	-0.0636272778	 1.5239484174	 0.0081488548	-0.49481
C	 0.0372317881	 0.025512193	 0.0244737128	 0.341546
C	-0.8322531505	-0.8474160855	 0.8965316646	-0.331783
C	 0.6598887159	-0.9279896131	 1.0502165985	-0.086629
C	 1.2407139449	-1.7958240333	-0.0706258699	-0.260848
C	 0.6554600309	-0.7961325047	-1.1346451277	-0.126264
C	-0.2717721259	-1.3316942942	-2.1915049473	 0.151755
O	-0.1235638262	-1.1721471748	-3.3779435868	-0.255651
H	 0.8830654742	 1.9845638958	-0.2961252862	 0.121158
H	-0.8372168661	 1.8643090856	-0.6906483146	 0.127531
H	-0.3216874927	 1.9099912368	 0.9997528621	 0.120358
H	-1.3522853938	-0.3081939535	 1.6824485138	 0.114564
H	-1.3937332812	-1.6913602252	 0.5042007847	 0.109128
H	 1.1556177625	-0.6941477501	 1.9847345349	 0.089611
H	 2.3309343567	-1.8171094333	-0.1075044411	 0.117347
H	 0.8707678923	-2.8262997146	-0.1132533596	 0.103422
H	 1.451854095	-0.2410091347	-1.635928028	 0.091216
H	-1.1436752761	-1.9073990217	-1.8039172751	 0.068347
51.2411	140.9248	197.9485	225.3643	283.7661	324.9699	416.5873	427.9844	484.9147	608.8382	729.4024	805.3001	844.1507	871.6301	900.0117	961.237	972.1027	1007.8206	1037.5781	1044.4792	1064.9906	1087.8237	1107.8472	1151.9402	1172.8409	1217.6376	1239.5132	1263.4607	1287.7952	1314.8476	1389.6937	1423.0257	1440.2012	1482.6999	1484.3903	1498.2938	1507.2154	1820.172	2864.0736	3021.9045	3043.3831	3081.4136	3084.9011	3096.9989	3113.838	3118.4096	3181.5827	3198.3757
CC12CC1CC2C=O	C[C@]12C[C@H]1C[C@H]2C=O	
InChI=1S/C7H10O/c1-7-3-5(7)2-6(7)4-8/h4-6H,2-3H2,1H3	InChI=1S/C7H10O/c1-7-3-5(7)2-6(7)4-8/h4-6H,2-3H2,1H3/t5-,6+,7+/m1/s1
