22
gdb 74810	3.45346	1.2049	1.03929	1.2683	89.21	-0.2144	0.0221	0.2364	1263.6401	0.195295	-367.22061	-367.211833	-367.210889	-367.253353	34.942	
C	 0.0530901427	 1.5329181751	-0.0119039337	-0.479344
C	-0.0240426549	 0.0329376349	-0.0263688525	 0.296173
C	 0.0228267347	-0.6861071888	-1.152608815	-0.110553
C	-0.0207504539	-2.1682173881	-1.1401259345	-0.115282
N	 0.9386729967	-2.8704745742	-0.2290772913	-0.374309
C	-0.5000443342	-2.8749194363	 0.0819884371	 0.327257
C	-1.2725336516	-4.1680983856	-0.054604457	-0.474436
C	-0.9059491373	-1.9889589584	 1.2480338074	-0.253921
C	-0.1198733593	-0.6670703073	 1.3127673227	-0.305041
H	 0.9095573035	 1.8784506478	 0.5822271839	 0.123955
H	 0.1524240074	 1.9451301146	-1.0198706323	 0.117137
H	-0.8402651629	 1.9712346724	 0.4524296133	 0.119205
H	 0.1046593919	-0.1926674052	-2.1177449434	 0.073477
H	-0.2138247925	-2.6487310963	-2.0961223173	 0.072386
H	 1.1983835139	-3.7634355153	-0.6439242693	 0.22031
H	-0.978463745	-4.71257988	-0.9583853255	 0.109594
H	-1.0950822407	-4.8229821878	 0.807235435	 0.11978
H	-2.3510339302	-3.9826129592	-0.1103529618	 0.122217
H	-1.976823769	-1.7699452173	 1.1421963052	 0.096671
H	-0.7889410718	-2.5353757144	 2.1919653819	 0.094897
H	 0.89385125	-0.8695803534	 1.6784220212	 0.130456
H	-0.5874334477	-0.0041705371	 2.0506286057	 0.089371
115.5245	179.8479	199.8792	219.9539	264.5336	315.457	345.5681	384.8224	393.5193	455.6965	493.3546	597.675	687.2619	688.4064	758.5529	817.5456	830.9198	881.7735	919.6538	955.8833	972.2661	1008.113	1029.4266	1039.8465	1050.417	1080.4627	1106.542	1127.5762	1152.7011	1203.7015	1227.1988	1242.7303	1304.7119	1319.8614	1351.8622	1374.0447	1404.0772	1411.947	1416.6242	1450.7891	1471.2926	1479.1284	1485.2297	1486.912	1490.4977	1504.4633	1728.5478	3009.9645	3014.4604	3020.9814	3029.4643	3050.8134	3054.6744	3065.8413	3082.2914	3094.5854	3107.2138	3131.7357	3157.3675	3478.451
CC1=CC2NC2(C)CC1	CC1=C[C@H]2N[C@@]2(C)CC1	
InChI=1S/C8H13N/c1-6-3-4-8(2)7(5-6)9-8/h5,7,9H,3-4H2,1-2H3	InChI=1S/C8H13N/c1-6-3-4-8(2)7(5-6)9-8/h5,7,9H,3-4H2,1-2H3/t7-,8+/m1/s1
