15
gdb 44247	3.2164	1.50248	1.22347	1.3846	66.35	-0.246	-0.0498	0.1961	995.0147	0.114162	-453.946421	-453.9392	-453.938256	-453.978518	27.241	
N	-0.0564793083	 1.2484067121	-0.447314902	-0.54233
C	-0.0186856977	 0.0497531941	-0.0924641864	 0.429202
O	 1.0380734505	-0.7311338183	 0.3525984295	-0.270731
C	 0.1507686278	-1.8839684859	 0.566905338	 0.003767
C	-1.0548785072	-1.0619917442	 0.0757933204	-0.142204
N	-1.9766336448	-0.96759288	 1.2056396546	-0.308869
C	-1.2143735635	-1.103826976	 2.4511687083	-0.292472
C	-0.0825520949	-2.0620281626	 2.0728346497	 0.422033
O	 0.5114336798	-2.8096018605	 2.7990094225	-0.290291
H	 0.8587119297	 1.6982916889	-0.3846043333	 0.236324
H	 0.5007179402	-2.7715270506	 0.0429966731	 0.118154
H	-1.5655160263	-1.3624553409	-0.8400908967	 0.118156
H	-2.5262333174	-0.1170114462	 1.1685461862	 0.244993
H	-0.7592387408	-0.1678380316	 2.8192855626	 0.132194
H	-1.8228905971	-1.5214932483	 3.2568663733	 0.142074
80.7423	123.5311	231.2111	240.7058	422.3307	432.8185	533.0825	551.5009	647.037	696.0736	746.6782	795.6913	822.4164	869.2222	892.531	948.7326	960.9576	984.8642	1004.2788	1048.5322	1126.6074	1172.5427	1193.9133	1208.3152	1217.7815	1264.864	1277.5842	1307.9852	1354.4182	1439.0549	1487.063	1828.595	1868.4922	2959.0466	3096.7268	3106.4688	3143.0439	3474.1557	3551.5378
N=C1OC2C1NCC2=O	[NH][C]1O[C@@H]2[C@H]1NCC2=O	
InChI=1S/C5H6N2O2/c6-5-3-4(9-5)2(8)1-7-3/h3-4,6-7H,1H2	InChI=1S/C5H6N2O2/c6-5-3-4(9-5)2(8)1-7-3/h3-4,6-7H,1H2/t3-,4+/m1/s1
