15
gdb 33304	5.87939	0.73482	0.69904	5.7417	89.07	-0.2566	-0.0548	0.2018	1557.1569	0.113367	-379.611311	-379.603434	-379.60249	-379.644369	28.985	
N	 0.1124339518	-3.7130042305	-0.0068016281	-0.335675
C	 0.0758959368	-2.5511704975	-0.0117239669	 0.171662
C	 0.0303062637	-1.1887817829	-0.0175772027	 0.271453
C	-0.0056768701	 0.0213802664	-0.028735347	-0.09955
C	-0.094120749	 1.436477325	-0.0215969073	 0.097076
C	 0.2868735478	 2.2834552277	-1.1853313871	-0.2607
N	 1.137854573	 2.3714675198	 0.0000723184	-0.145734
C	 0.385808103	 3.2435272879	 0.9750629923	-0.152261
C	-0.8222020243	 2.2760769987	 1.0373019839	-0.313434
H	 0.7673173213	 1.7840445952	-2.0201737762	 0.143519
H	-0.3527823027	 3.1234170239	-1.4526150726	 0.123332
H	 0.9411024228	 3.3139475757	 1.9106886328	 0.128449
H	 0.1990741922	 4.2502651563	 0.5890389644	 0.117341
H	-1.8067742304	 2.6519052979	 0.7483153019	 0.118693
H	-0.9021390258	 1.7627664462	 1.995693614	 0.135827
78.5513	83.124	199.1319	226.5616	293.9838	394.1776	470.3748	514.8033	525.5703	578.3892	589.8938	736.1544	755.5555	789.227	825.1379	933.2335	946.7213	986.7695	1043.488	1091.0536	1108.2314	1139.8839	1196.3424	1220.5783	1242.8965	1261.3682	1310.4802	1377.4529	1488.2812	1490.9346	1516.2892	2258.0521	2384.0982	3059.8314	3072.8694	3099.2929	3124.0892	3142.9158	3206.7606
N#CC#CC12CN1CC2	N#CC#C[C@]12CN1CC2	
InChI=1S/C7H6N2/c8-4-1-2-7-3-5-9(7)6-7/h3,5-6H2	InChI=1S/C7H6N2/c8-4-1-2-7-3-5-9(7)6-7/h3,5-6H2/t7-,9?/m0/s1
