16
gdb 15573	3.48413	1.9073	1.26842	2.8247	69.28	-0.2199	-0.0659	0.1541	931.8041	0.131191	-379.938689	-379.930901	-379.929956	-379.971033	27.483	
C	 0.1860658454	 1.3053049489	-0.3736682361	-0.352926
N	 0.0956422133	-0.0580510114	 0.1122212709	-0.11547
C	-1.1411755257	-0.8160628885	-0.10476627	-0.186468
C	-0.6808807308	-2.259287675	 0.2203498946	-0.17493
N	 0.7900384014	-2.2288406742	 0.1765395408	-0.290973
C	 1.1168723006	-0.9833719592	 0.1192333118	 0.277025
C	 2.5722182714	-0.6588288967	 0.1375861988	 0.120201
O	 3.0556054269	 0.4474632726	 0.1512362694	-0.267445
H	 1.1803313319	 1.6985767418	-0.172074643	 0.176311
H	-0.0125282333	 1.3670805353	-1.4557648334	 0.1119
H	-0.5556043339	 1.9261348804	 0.1397944359	 0.125816
H	-1.9475138596	-0.4557248432	 0.5414472916	 0.115143
H	-1.4730987423	-0.7095750093	-1.1502146655	 0.101773
H	-0.9914813174	-2.5647279269	 1.2280675404	 0.122523
H	-1.0723195604	-3.0057702928	-0.4760408069	 0.121277
H	 3.1853030725	-1.5801640816	 0.1460267806	 0.116241
94.9927	135.9276	153.5179	219.6962	245.367	290.933	349.6388	474.2578	603.9319	651.4162	750.5113	784.0295	860.6187	957.542	1006.0113	1018.5906	1031.3089	1100.7476	1156.6407	1184.3101	1207.3187	1252.528	1265.9803	1309.7947	1351.5005	1394.2213	1441.4644	1465.6011	1486.9936	1498.1867	1512.7137	1539.3083	1649.0157	1806.3149	2963.3739	2971.1898	2978.3867	3023.0975	3067.8999	3068.6295	3087.0493	3175.6858
CN1CCN=C1C=O	CN1CC[N][C]1C=O	
InChI=1S/C5H8N2O/c1-7-3-2-6-5(7)4-8/h4H,2-3H2,1H3	InChI=1S/C5H8N2O/c1-7-3-2-6-5(7)4-8/h4H,2-3H2,1H3
