21
gdb 103203	2.87922	1.61647	1.32759	1.1179	81.33	-0.2367	0.0853	0.322	1054.9324	0.182092	-387.033002	-387.024579	-387.023635	-387.06565	33.289	
C	-0.1890794918	 1.337930874	-0.0166741423	-0.253233
O	 0.0410237407	-0.0543576445	-0.0168004059	-0.294995
C	 0.6757014553	-0.57384394	-1.1720695427	 0.464282
C	 2.0943369105	-0.0295911186	-1.3419621597	-0.459706
C	 0.6128479914	-2.0916058196	-1.2515722382	-0.118214
C	-0.7428375758	-2.4766429369	-1.8547532041	-0.078476
C	-1.5165613484	-1.1854286661	-2.1183150871	-0.239029
C	-0.1441322826	-0.5757725863	-2.5109213208	-0.133735
C	 0.3935957831	-2.0433015846	-2.7468467177	-0.085373
H	 0.7376216113	 1.9215679257	 0.076329795	 0.107051
H	-0.7161741272	 1.6696266888	-0.9238109164	 0.104598
H	-0.8202546442	 1.5553669668	 0.8489275965	 0.12419
H	 2.6815444068	-0.2170237529	-0.4371725256	 0.119042
H	 2.5944641175	-0.5123033736	-2.1852203641	 0.122397
H	 2.0933720622	 1.0485600695	-1.5290218244	 0.112332
H	 1.2047000816	-2.8023752373	-0.6883560181	 0.081344
H	-1.1335448972	-3.4775210492	-1.7216118946	 0.08381
H	-2.1687842327	-1.2887084386	-2.9900218523	 0.091798
H	-2.0573193053	-0.7182806088	-1.2906622405	 0.101317
H	-0.0682228316	 0.2555372146	-3.2098446458	 0.062903
H	 0.9139817064	-2.522190712	-3.562391021	 0.087698
87.5082	165.5151	187.7967	211.3473	257.6769	314.1061	368.4021	401.8653	508.644	552.6053	618.6096	758.4636	784.7367	797.1121	815.3424	849.4928	895.0562	918.2277	944.4171	979.2515	991.4033	1003.971	1027.7707	1039.5501	1055.3483	1093.5222	1124.654	1153.6649	1158.2873	1174.0715	1180.3878	1193.2612	1211.7151	1222.0496	1239.7818	1282.322	1345.3057	1368.5554	1401.1804	1474.3565	1483.4469	1487.9208	1490.4419	1504.8741	1510.1401	2984.3779	3032.3736	3041.4008	3052.6179	3104.1774	3107.3452	3107.8369	3121.248	3126.5389	3189.4245	3197.4164	3230.2989
COC1(C)C2C3CC1C23	CO[C@@]1(C)[C@H]2[C@H]3C[C@@H]1[C@@H]23	
InChI=1S/C8H12O/c1-8(9-2)5-3-4-6(5)7(4)8/h4-7H,3H2,1-2H3	InChI=1S/C8H12O/c1-8(9-2)5-3-4-6(5)7(4)8/h4-7H,3H2,1-2H3/t4-,5+,6-,7-,8+/m0/s1
