20
gdb 100411	3.20774	0.8783	0.77344	2.4924	79.36	-0.2398	0.0201	0.2599	1527.4585	0.169143	-440.26419	-440.254157	-440.253213	-440.301088	34.52	
C	-0.0218263097	 1.2928881623	 0.1023839078	-0.226388
O	-0.0478363323	-0.1278756847	-0.0355854223	-0.240578
C	 0.5984611011	-0.642469717	-1.1031830746	 0.409874
C	 0.4804497094	-2.1503308165	-1.1091753258	-0.491332
N	 1.1903181621	 0.1214972041	-1.9258796858	-0.308148
C	 1.8809137974	-0.4106089192	-3.0643723475	-0.013201
C	 1.5800814108	 0.2779064039	-4.4197601391	-0.076445
O	 2.9773556135	 0.5494400225	-4.6456234428	-0.272818
C	 3.3101086588	 0.1381338969	-3.3050182521	-0.076445
H	 1.0053049272	 1.656788589	 0.1933883687	 0.133598
H	-0.4807664404	 1.7769709974	-0.7640703307	 0.133598
H	-0.588383446	 1.5099923992	 1.0089825355	 0.124853
H	-0.0122375846	-2.4991603449	-2.0211416614	 0.147052
H	 1.4678120535	-2.6187619806	-1.066706453	 0.147055
H	-0.1013628264	-2.4781003025	-0.248000985	 0.144708
H	 1.8463641383	-1.5035559775	-3.1477778379	 0.068023
H	 1.1468930711	-0.3438858218	-5.211794568	 0.097141
H	 0.9898443296	 1.1957705166	-4.3039111818	 0.101157
H	 3.5495032444	 0.9889711043	-2.6546014755	 0.101157
H	 4.1335719321	-0.5851861515	-3.2873295585	 0.097141
28.6411	60.5363	78.4441	119.2912	175.4065	180.5502	211.3399	273.6041	398.4667	445.862	467.6832	585.3035	587.0935	750.1681	845.6247	882.5779	901.6533	973.1428	1019.0806	1021.11	1035.4175	1057.0694	1072.2179	1124.4689	1158.0474	1161.8323	1179.4105	1186.4915	1230.025	1258.8371	1299.8612	1301.3493	1354.142	1396.3961	1409.4197	1469.1573	1475.8805	1487.8303	1489.3647	1498.887	1503.1118	1531.1451	1736.9885	3008.7641	3018.3637	3023.1943	3045.1353	3055.4415	3064.6676	3069.7874	3115.9164	3116.7743	3148.2511	3156.1794
COC(C)=NC1COC1	COC(=NC1COC1)C	
InChI=1S/C6H11NO2/c1-5(8-2)7-6-3-9-4-6/h6H,3-4H2,1-2H3	InChI=1S/C6H11NO2/c1-5(8-2)7-6-3-9-4-6/h6H,3-4H2,1-2H3
