18
gdb 6601	4.77014	1.42082	1.34734	2.3296	68.67	-0.2391	0.0798	0.3189	983.3928	0.152453	-384.879977	-384.871993	-384.871049	-384.912024	30.572	
C	-0.2119323438	 1.3278297833	 0.0989120326	-0.50794
C	 0.0714489518	-0.1394556019	 0.031789964	 0.405528
C	 0.660072901	-0.9865659512	-1.1316054714	-0.307405
C	 0.1248608712	-1.9393260331	-0.0376244419	 0.389598
C	-0.1467432616	-3.4142312966	-0.0415415679	-0.186045
O	-0.8582217583	-3.7961362262	 1.1202899085	-0.416781
C	 0.7936229707	-1.0615180977	 1.048170173	-0.283868
O	-1.0903631206	-1.0774992218	 0.0673074959	-0.390239
H	 0.7231917	 1.8953392387	 0.0602980547	 0.127604
H	-0.8403379995	 1.6374683804	-0.7415689121	 0.133589
H	-0.7291737586	 1.5764527749	 1.0305483977	 0.133793
H	 0.0803031955	-0.9678955718	-2.0558842389	 0.104348
H	 1.7395376608	-0.9493138148	-1.2998520612	 0.093736
H	-0.695113855	-3.6746498374	-0.9613650365	 0.096887
H	 0.79637365	-3.9714178674	-0.0442379454	 0.113999
H	-1.5793476344	-3.161725849	 1.2141277696	 0.294908
H	 1.885929553	-1.0332049014	 1.0830964417	 0.091495
H	 0.334557368	-1.1158134669	 2.0355920177	 0.106791
99.2782	143.0065	195.8075	231.1388	294.4472	360.8545	411.0583	438.8883	521.2196	594.8882	621.3691	674.7106	696.9007	788.9095	868.1402	950.4331	953.6557	983.2531	994.6697	1059.0977	1066.8758	1108.6457	1113.5881	1132.6482	1155.8522	1171.1883	1206.2751	1239.6234	1282.2105	1358.9978	1375.4911	1414.5131	1441.9163	1466.033	1477.2398	1489.1497	1493.434	1524.6202	2977.2976	3039.8028	3056.1173	3066.3377	3072.6873	3114.0884	3115.7062	3140.5391	3149.1411	3787.2513
CC12CC(CO)(C1)O2	C[C@@]12C[C@@](CO)(C1)O2	
InChI=1S/C6H10O2/c1-5-2-6(3-5,4-7)8-5/h7H,2-4H2,1H3	InChI=1S/C6H10O2/c1-5-2-6(3-5,4-7)8-5/h7H,2-4H2,1H3/t5-,6+
