15
gdb 15648	3.39667	1.76555	1.22347	2.625	62.64	-0.2164	-0.0021	0.2144	939.9165	0.119321	-399.83509	-399.82743	-399.826486	-399.867336	27.867	
O	-0.0395893737	 1.452533323	 0.0096878863	-0.425934
C	 0.0426483212	 0.0362772125	 0.0315179812	-0.076711
C	-1.3851629269	-0.5044743663	-0.0521661223	-0.159647
C	-2.1003737195	-0.2719474661	-1.359285959	-0.138954
C	-2.4919907893	-1.4526905197	-1.8465026765	-0.030113
N	-2.1099952757	-2.505170869	-0.9966340699	-0.323858
C	-1.406388729	-2.0390793585	 0.0975290907	 0.403204
O	-0.9064726166	-2.712805425	 0.9699645235	-0.37827
H	 0.8540564729	 1.8052844571	 0.0515269575	 0.289211
H	 0.6317524772	-0.3452047205	-0.8166777753	 0.092454
H	 0.5007903976	-0.3374480138	 0.9581771186	 0.1128
H	-1.9417237826	-0.0733792964	 0.7911657817	 0.126578
H	-2.2652725099	 0.6959368418	-1.8048334347	 0.11888
H	-3.0358448632	-1.6788943894	-2.752616473	 0.128833
H	-2.2527982724	-3.4857587498	-1.171664529	 0.261528
89.989	119.4194	171.5695	241.5729	280.9555	342.1962	459.0458	519.7574	578.4634	642.5738	694.8889	736.5486	812.695	864.2125	911.8557	944.496	1054.9285	1060.1663	1086.923	1095.168	1136.7075	1195.8601	1216.1007	1230.1659	1281.967	1322.1586	1374.7806	1406.7245	1449.2453	1522.7536	1665.1779	1829.5443	2980.5469	3020.1682	3034.3475	3235.846	3270.0685	3665.8116	3830.6021
OCC1C=CNC1=O	OC[C@H]1C=CNC1=O	
InChI=1S/C5H7NO2/c7-3-4-1-2-6-5(4)8/h1-2,4,7H,3H2,(H,6,8)	InChI=1S/C5H7NO2/c7-3-4-1-2-6-5(4)8/h1-2,4,7H,3H2,(H,6,8)/t4-/m1/s1
