18
gdb 15090	2.72115	1.56491	1.13356	3.0927	64.24	-0.254	0.069	0.3229	1082.7839	0.151824	-422.030194	-422.021167	-422.020223	-422.064541	31.535	
C	-0.3046995484	 1.3190620062	 0.0195185775	-0.240356
O	-0.1930642349	-0.0905042661	 0.020692024	-0.261271
C	 0.6555982338	-0.6163070647	 1.0424485415	 0.054493
C	-0.1517401709	-0.7973913918	 2.3340379341	-0.073123
O	-1.3181317676	-1.5595314791	 2.0915927811	-0.423915
C	 1.184903061	-1.9385735295	 0.5316053091	 0.092879
C	 2.4718263405	-2.0319257113	-0.1603090187	-0.182624
O	 2.3443766875	-2.4246416224	 1.2102627895	-0.240408
H	 0.6738418156	 1.7964220027	-0.1361570359	 0.113516
H	-0.964620045	 1.5869722617	-0.8090222857	 0.133328
H	-0.7356641975	 1.710160803	 0.9518848407	 0.115182
H	 1.5075690163	 0.0556526423	 1.2246010636	 0.072598
H	 0.4527310912	-1.3382001325	 3.068952122	 0.128136
H	-0.3967548984	 0.1876689872	 2.7632005181	 0.084821
H	-1.708000516	-1.1891139525	 1.2894594364	 0.286423
H	 0.4221251764	-2.6904381917	 0.3363369828	 0.109221
H	 2.6497819807	-2.8435818847	-0.8637025219	 0.119108
H	 3.0560994657	-1.1292245768	-0.3350581682	 0.111993
61.1157	76.7444	129.653	165.5407	199.959	230.0914	313.3322	330.2346	442.5271	461.6294	489.0589	676.5678	834.7701	862.5661	885.0677	940.8537	977.0785	1032.0227	1088.7076	1108.6757	1122.7559	1153.7358	1159.6203	1176.4592	1184.8101	1224.6591	1228.253	1287.0144	1295.3835	1346.4538	1376.7347	1428.696	1460.466	1480.1224	1487.6194	1507.6449	1512.2031	1532.3251	2972.5173	2987.3991	3003.8732	3040.303	3084.9027	3085.7903	3117.8687	3133.5705	3172.6469	3772.999
COC(CO)C1CO1	CO[C@@H](CO)[C@H]1CO1	
InChI=1S/C5H10O3/c1-7-4(2-6)5-3-8-5/h4-6H,2-3H2,1H3	InChI=1S/C5H10O3/c1-7-4(2-6)5-3-8-5/h4-6H,2-3H2,1H3/t4-,5+/m0/s1
