16
gdb 56664	2.12844	1.47173	1.14239	5.3905	65.24	-0.271	0.0165	0.2875	1109.977	0.121329	-474.995631	-474.986	-474.985056	-475.030192	34.76	
O	-0.2044689351	 1.2837652448	 0.1005414975	-0.423427
C	 0.0358646247	-0.1084151073	-0.0106110865	-0.056361
C	 0.7563176156	-0.4100049815	-1.2665398964	 0.275533
N	 1.3265887385	-0.6042233933	-2.252010005	-0.327514
C	 0.8085883752	-0.628489449	 1.1973070096	 0.368512
O	 2.0021832177	 0.0674391754	 1.4195045013	-0.471432
C	 0.0456558096	-1.1547659784	 2.3934239869	-0.408076
C	 0.8239543763	-2.0924463056	 1.4870792357	 0.066991
O	 0.1342108897	-2.9043250096	 0.5870035435	-0.415507
H	 0.6496806513	 1.7234931143	 0.0106309804	 0.29206
H	-0.9411580538	-0.5940390771	-0.0571913773	 0.146717
H	 1.7963765259	 0.8277700153	 1.9748659272	 0.291437
H	 0.4546440427	-0.9461994497	 3.3761443924	 0.122804
H	-1.0370433747	-1.1793225177	 2.3318793534	 0.128247
H	 1.7642862365	-2.4870728344	 1.8687152315	 0.112941
H	-0.23846771	-3.6480392363	 1.0721025757	 0.297075
53.1478	117.0485	159.9768	181.7661	208.8265	257.3469	279.7545	299.9512	376.1777	405.8356	463.8993	500.0225	520.6692	571.0598	636.9362	814.1374	829.0269	888.3467	940.2185	978.7415	990.5339	1030.1316	1066.1163	1087.2887	1170.5694	1225.5321	1244.9676	1277.4581	1309.4482	1340.1841	1354.3062	1411.3655	1422.8188	1493.5101	2360.5248	3104.2082	3123.0062	3133.0351	3227.8622	3793.6666	3798.441	3809.2573
OC(C#N)C1(O)CC1O	O[C@@H](C#N)[C@@]1(O)C[C@H]1O	
InChI=1S/C5H7NO3/c6-2-4(8)5(9)1-3(5)7/h3-4,7-9H,1H2	InChI=1S/C5H7NO3/c6-2-4(8)5(9)1-3(5)7/h3-4,7-9H,1H2/t3-,4+,5-/m1/s1
