19
gdb 66849	2.58264	2.04639	1.80382	1.9022	76.87	-0.233	0.0768	0.3098	889.5168	0.161421	-385.85412	-385.847447	-385.846503	-385.884654	28.391	
C	-0.001518441	 1.5406456045	-0.0063790183	-0.526549
C	 0.0369597039	 0.0360949952	-0.0355700232	 0.317767
C	 0.6376709961	-0.7600792286	-1.225643962	-0.15401
C	 0.9130829809	-2.0973836404	-0.6058037146	-0.062652
C	 1.2285232287	-1.949588185	 0.877832982	-0.232893
C	 0.3252974927	-0.788439422	 1.2827249042	 0.037366
O	-1.051158495	-1.2652256352	 1.3291949688	-0.315134
C	-1.2079648731	-0.8756615808	-0.0472656267	 0.065738
C	-0.4984583811	-1.779910511	-1.0788681996	-0.096578
H	 1.0055384269	 1.9608472096	 0.1018128582	 0.11904
H	-0.4303473558	 1.9442631239	-0.9302384503	 0.119832
H	-0.607863854	 1.9013224929	 0.8312401978	 0.127571
H	 1.1059018908	-0.3559668989	-2.1137724138	 0.085231
H	 1.4370652866	-2.8431367434	-1.1946354142	 0.085469
H	 0.9967768827	-2.8381880012	 1.4722703605	 0.110604
H	 2.2887027696	-1.7027936577	 1.0167577284	 0.092811
H	 0.601539541	-0.2626230628	 2.2003033277	 0.070487
H	-2.2171276415	-0.5411680496	-0.2988765577	 0.073786
H	-0.9790140085	-2.3826935495	-1.8398912872	 0.082113
217.9837	223.5732	255.3485	346.3416	422.0896	516.4781	576.6393	648.5967	694.9409	727.3031	759.4555	824.2723	858.4384	872.7926	882.2297	903.7663	926.8422	943.3287	957.9262	997.4441	1011.7037	1030.1163	1051.8047	1065.3282	1086.1287	1148.1059	1166.1213	1181.119	1194.7911	1215.7911	1234.7974	1267.4543	1299.0359	1320.4063	1343.5973	1378.9147	1399.3468	1412.7196	1476.3356	1491.5766	1493.8083	3022.6553	3028.123	3076.8893	3084.5494	3086.0141	3091.1488	3096.9475	3165.5014	3180.9102	3198.2699
CC12C3C4CC1OC2C34	C[C@@]12[C@H]3[C@H]4C[C@@H]1O[C@@H]2[C@@H]34	
InChI=1S/C8H10O/c1-8-4-2-3-5(6(3)8)7(8)9-4/h3-7H,2H2,1H3	InChI=1S/C8H10O/c1-8-4-2-3-5(6(3)8)7(8)9-4/h3-7H,2H2,1H3/t3-,4-,5+,6-,7+,8-/m0/s1
