18
gdb 98543	3.39945	1.20373	0.98077	2.5783	74.84	-0.2407	0.0185	0.2592	1232.4601	0.147368	-439.076119	-439.067303	-439.066359	-439.110176	32.015	
C	 0.5347767715	 1.349423618	-0.153211288	-0.33363
N	 0.6066128004	-0.0827909504	 0.0425626578	-0.326372
C	 0.2072498789	-0.6871980642	 1.1913448533	 0.308465
O	-0.2393315741	-0.1130289236	 2.1722506805	-0.40025
C	 0.3739014245	-2.1674087445	 1.1604976868	 0.38026
C	-0.385671783	-3.1359498894	 2.011916158	-0.323425
C	 1.1177120164	-3.0972523769	 2.1090787776	-0.163302
C	 1.7305175577	-3.6735097303	 0.8372733474	-0.098607
O	 0.9105665036	-2.8110010705	-0.0058461151	-0.341516
H	 1.5300947155	 1.7853553346	-0.2972902427	 0.125229
H	-0.0851477448	 1.6013783566	-1.0206743049	 0.126855
H	 0.0864855728	 1.7791502797	 0.7437575922	 0.169099
H	 0.9814560953	-0.6812080947	-0.6774219968	 0.26133
H	-0.9039586788	-2.6742685386	 2.8446522109	 0.149695
H	-0.8905225261	-3.9679041037	 1.5288104023	 0.117224
H	 1.6475634393	-2.8499919464	 3.0180403955	 0.11953
H	 2.7915708563	-3.4342374952	 0.7109707895	 0.116279
H	 1.5582054545	-4.7344148004	 0.6238481956	 0.113136
73.7609	92.5253	118.1602	157.0623	208.6368	300.3613	360.6757	380.1621	463.0992	504.8231	578.8603	723.6893	762.3111	791.2013	863.7338	881.25	933.6669	965.2008	975.5237	1005.8189	1010.6904	1065.4305	1076.8168	1131.7094	1153.5723	1156.6238	1172.0519	1191.6487	1228.0153	1293.9553	1343.0294	1385.5433	1440.1723	1468.072	1497.4559	1499.3473	1515.9806	1577.0293	1771.9726	3026.3172	3032.29	3077.8948	3084.3986	3122.2481	3149.1845	3216.6414	3231.0689	3627.6061
CNC(=O)C12CC1CO2	CNC(=O)[C@]12C[C@H]1CO2	
InChI=1S/C6H9NO2/c1-7-5(8)6-2-4(6)3-9-6/h4H,2-3H2,1H3,(H,7,8)	InChI=1S/C6H9NO2/c1-7-5(8)6-2-4(6)3-9-6/h4H,2-3H2,1H3,(H,7,8)/t4-,6-/m0/s1
