14
gdb 49777	2.27746	1.81446	1.1494	4.5465	66.44	-0.2542	-0.0429	0.2113	1013.3863	0.101484	-432.885134	-432.877211	-432.876266	-432.918286	27.994	
O	-1.0243487248	 1.3589415119	 0.0292849617	-0.231482
C	 0.0880878608	 0.978504708	 0.2799445089	 0.143886
C	 1.3388983271	 1.781999491	-0.0315091414	-0.066408
N	 2.5150831385	 0.9330047891	-0.2510894728	-0.250943
C	 3.1614296172	 1.4749820459	-1.2075140654	 0.072647
N	 2.6500528504	 2.6521338265	-1.7393589187	-0.295918
C	 1.2561648084	 2.7450284521	-1.2689930842	-0.150814
C	 0.3235908161	 2.3327147553	-2.3328363962	 0.292915
N	-0.328079064	 2.0440737677	-3.2423378795	-0.320121
H	 0.2943835641	 0.0164935701	 0.7924439331	 0.114389
H	 1.521559542	 2.3967908685	 0.8652044728	 0.134391
H	 4.1014144	 1.0909773905	-1.5915988807	 0.145541
H	 2.8293929911	 2.8603661499	-2.7123461258	 0.26344
H	 1.003427773	 3.7632452133	-0.9673938616	 0.148477
69.6761	113.9652	136.3558	209.7887	220.0991	367.3076	428.1789	514.9518	557.2952	625.7213	660.8275	719.2355	824.7913	887.9172	912.5397	954.3522	1021.7889	1035.0773	1061.3406	1095.4434	1130.541	1229.1546	1263.0213	1303.9951	1341.809	1355.9081	1395.0846	1430.8094	1690.7306	1834.9753	2355.1867	2932.3929	2977.9452	3095.2969	3197.6153	3595.04
O=CC1N=CNC1C#N	O=C[C@H]1[N][CH]N[C@H]1C#N	
InChI=1S/C5H5N3O/c6-1-4-5(2-9)8-3-7-4/h2-5H,(H,7,8)	InChI=1S/C5H5N3O/c6-1-4-5(2-9)8-3-7-4/h2-5H,(H,7,8)/t4-,5+/m0/s1
