22
gdb 102177	2.39154	1.16845	0.84376	0.9267	88.46	-0.232	0.0524	0.2844	1423.4641	0.191985	-367.149891	-367.139691	-367.138746	-367.185193	37.962	
C	-0.1112165153	 1.2847911978	 0.3634310565	-0.398882
C	 0.1151227968	-0.1944440572	 0.0413883807	-0.162345
C	 0.741259997	-0.4854722001	-1.3328037378	 0.039426
C	 0.9427630131	-2.014567878	-1.4794986812	-0.358619
C	 1.8203686985	-2.4297832857	-2.5674236094	 0.303749
C	 2.5650940095	-2.7901062883	-3.4402237919	-0.444472
N	-0.1394982634	-0.0135463452	-2.3998899227	-0.065153
C	 0.041104968	 1.3573552232	-2.8728850619	-0.227289
C	 0.454582921	 0.2084391246	-3.7178141723	-0.220758
H	 0.8192397455	 1.8588496034	 0.2871300059	 0.110236
H	-0.8439032744	 1.7370879787	-0.3091625299	 0.13218
H	-0.4850901354	 1.3989039269	 1.3857874928	 0.112
H	 0.7706146351	-0.6303741171	 0.8056920132	 0.092272
H	-0.8391804872	-0.7323556433	 0.1016461673	 0.10487
H	 1.7330876702	 0.0014299905	-1.3854967081	 0.062817
H	 1.3488959789	-2.4038920594	-0.5379246368	 0.1259
H	-0.0468468564	-2.4700846928	-1.6073075709	 0.139232
H	 3.213920731	-3.1092501202	-4.2176175115	 0.192547
H	-0.8716978938	 1.9068931424	-3.08545049	 0.113835
H	 0.8359594871	 1.9534007129	-2.4280943518	 0.110345
H	 1.5202954704	 0.0317259339	-3.832162532	 0.123564
H	-0.1514256263	-0.1061448467	-4.5623575883	 0.114547
55.3317	91.2289	123.5929	153.3952	203.2858	254.8519	266.5062	306.0907	344.1242	358.4273	423.7011	459.3464	580.3815	609.8374	633.4498	703.7849	793.3888	826.8968	896.3776	904.0172	937.8427	957.3386	1012.6628	1020.8343	1050.7994	1082.1581	1114.7945	1119.4071	1127.1586	1138.2482	1175.6196	1191.8397	1243.4061	1283.9893	1306.5031	1320.5116	1357.3042	1382.7208	1391.0728	1414.5257	1457.7936	1479.1316	1493.7384	1500.3866	1510.6759	1522.7336	2234.2716	2922.8826	3020.0587	3028.801	3035.319	3058.5355	3067.2816	3096.0867	3098.6995	3116.3586	3123.5748	3179.4755	3203.5329	3505.51
CCC(CC#C)N1CC1	CC[C@@H](CC#C)N1CC1	
InChI=1S/C8H13N/c1-3-5-8(4-2)9-6-7-9/h1,8H,4-7H2,2H3	InChI=1S/C8H13N/c1-3-5-8(4-2)9-6-7-9/h1,8H,4-7H2,2H3/t8-/m0/s1
