17
gdb 15523	3.06038	1.8051	1.16419	5.5144	76.78	-0.2029	-0.0253	0.1776	1009.2036	0.142827	-363.900517	-363.892472	-363.891528	-363.933003	29.137	
C	 0.0885141555	 1.5171098173	 0.0023531974	-0.503215
C	-0.0284642737	 0.0271622789	 0.0263453287	 0.28657
C	-1.1402062801	-0.7618570145	 0.0257004464	 0.107957
C	-0.7128076344	-2.2161400131	 0.1091610236	-0.306741
C	 0.8088368601	-2.1378409341	-0.1639152558	-0.175003
N	 1.1220139781	-0.723080121	 0.1046124346	-0.326011
C	-2.5141687729	-0.342537707	 0.0231977318	 0.04769
O	-3.4681085688	-1.1038013128	 0.0516163355	-0.315314
H	 0.6215221134	 1.8709569783	 0.8918824243	 0.147045
H	 0.6619678561	 1.8464910554	-0.8726905412	 0.135157
H	-0.8885034536	 1.99832137	-0.0297878285	 0.152929
H	-0.9191779105	-2.6246674962	 1.1059901083	 0.119658
H	-1.2377294687	-2.8529041944	-0.6065317317	 0.12632
H	 1.3994848718	-2.795215096	 0.4792183121	 0.115764
H	 1.0371527535	-2.3889628812	-1.2090998357	 0.107488
H	 1.9825849763	-0.3360221432	-0.2534542043	 0.240631
H	-2.6791157019	 0.7585408435	-0.0166037754	 0.039073
114.7941	127.1317	172.9432	195.6318	212.4426	320.3184	345.5115	492.6376	531.1997	591.8581	617.8044	708.3492	789.2637	876.2953	942.3279	983.9187	1009.6896	1049.7861	1059.5602	1078.2474	1089.9534	1189.5317	1230.846	1281.9649	1308.1969	1327.7091	1361.3585	1411.2583	1434.7037	1471.8327	1478.1166	1492.5114	1499.6126	1528.8634	1667.3794	1745.6871	2856.3225	3003.667	3032.227	3032.483	3083.9516	3085.478	3099.8233	3154.2323	3606.2486
CC1=C(CCN1)C=O	CC1=C(CCN1)C=O	
InChI=1S/C6H9NO/c1-5-6(4-8)2-3-7-5/h4,7H,2-3H2,1H3	InChI=1S/C6H9NO/c1-5-6(4-8)2-3-7-5/h4,7H,2-3H2,1H3
