20
gdb 116710	2.81161	0.87727	0.75069	4.6966	80.07	-0.2424	0.005	0.2474	1579.2243	0.169319	-440.25329	-440.243186	-440.242242	-440.289765	35.453	
C	 0.0541465802	 0.8973242726	 0.2085596804	-0.250158
O	-0.3517781464	 0.2473013255	-0.9922400616	-0.189532
C	 0.4492642696	-0.7410109813	-1.4206156557	 0.140004
N	 0.1521808535	-1.3987270124	-2.4546240596	-0.246313
C	 1.0517462702	-2.4342429125	-2.8931248113	 0.017572
C	 1.7235841772	-3.4299149042	-1.9710818083	-0.334255
C	 0.5747913489	-3.8605855043	-2.8649736772	-0.025002
C	-0.7911171521	-4.1301872275	-2.2639037085	-0.071565
O	-1.833262472	-3.612542948	-3.069679245	-0.427666
H	 0.0537956441	 0.2040314519	 1.057806682	 0.131484
H	 1.049463012	 1.345200563	 0.1046420997	 0.131174
H	-0.6759561185	 1.6863121217	 0.3905152227	 0.151339
H	 1.3486206323	-0.9082798268	-0.8115756471	 0.088473
H	 1.6066236157	-2.1402575651	-3.7807215098	 0.100695
H	 2.7293619716	-3.7596322756	-2.2079523701	 0.113166
H	 1.5177010484	-3.367923344	-0.9070330379	 0.107681
H	 0.8160027094	-4.4622425659	-3.7360807241	 0.089122
H	-0.9662687233	-5.2081207536	-2.1803499845	 0.103487
H	-0.833967639	-3.7172195312	-1.2436071085	 0.075756
H	-1.6701867119	-2.660653122	-3.1221600055	 0.294537
42.4539	59.2678	91.1184	143.5839	148.2739	193.1906	246.2027	293.5687	363.0573	404.7651	510.5124	531.9882	541.9654	641.0969	791.7864	832.9184	864.3363	935.1776	995.4018	1003.3136	1016.4585	1063.0075	1068.2751	1081.7274	1129.3979	1135.3541	1157.7406	1177.2247	1179.708	1225.4874	1247.3995	1283.7171	1354.9929	1382.5279	1406.0389	1411.7437	1447.0823	1480.0774	1486.3691	1495.0476	1500.1387	1503.4475	1761.3901	2976.4122	3014.3929	3028.0418	3066.8858	3084.6497	3128.4779	3131.2533	3149.6105	3155.0839	3212.5996	3746.4936
COC=NC1CC1CO	COC=N[C@H]1C[C@H]1CO	
InChI=1S/C6H11NO2/c1-9-4-7-6-2-5(6)3-8/h4-6,8H,2-3H2,1H3	InChI=1S/C6H11NO2/c1-9-4-7-6-2-5(6)3-8/h4-6,8H,2-3H2,1H3/t5-,6-/m0/s1
