17
gdb 16301	3.64478	1.68284	1.41525	2.6242	70.59	-0.2389	-0.0345	0.2045	927.1478	0.141943	-363.835307	-363.82768	-363.826736	-363.867053	28.587	
C	-0.0711676852	 1.6067645627	-0.1470034255	-0.408529
C	 0.0270542753	 0.0910530194	-0.0522787694	-0.048654
C	 1.1601648583	-0.642762212	-0.8634646307	-0.236542
C	 1.6886381074	-1.2305649452	 0.4468526945	-0.073645
N	 2.0394744292	-0.1233481866	 1.3210415604	-0.358895
C	 0.6106016477	-0.5063329467	 1.2395219466	 0.246044
C	-0.0582754514	-1.0708796799	 2.4148288818	 0.046681
O	 0.5329177554	-1.4640202896	 3.3988742585	-0.28771
H	 0.8824796675	 2.0674698195	 0.1234162467	 0.141545
H	-0.328783207	 1.9181038351	-1.1648440796	 0.114993
H	-0.8426830767	 1.995808933	 0.5265355235	 0.11489
H	-0.939572702	-0.3764206528	-0.2677938432	 0.080084
H	 0.7711927742	-1.3927856983	-1.5542778569	 0.109354
H	 1.8706627317	 0.0042373193	-1.3841993879	 0.115691
H	 2.0614721231	-2.2313802623	 0.6306152627	 0.115712
H	 2.3705980547	-0.5139601759	 2.205973095	 0.251851
H	-1.1650550222	-1.1412464098	 2.3389335735	 0.077129
119.5842	167.4802	202.8417	237.0479	247.8219	316.2711	432.1248	461.6753	586.4204	670.7134	740.3803	812.187	838.7175	863.8365	924.4874	942.8196	973.0273	1032.2353	1070.4316	1086.5847	1106.4246	1111.869	1164.8486	1188.7551	1235.8083	1242.0328	1302.1784	1318.5477	1376.2294	1394.3613	1410.7932	1435.8045	1477.2094	1491.0682	1504.2249	1775.6737	2897.0863	3033.5618	3051.3726	3068.6902	3096.1846	3122.963	3129.5313	3190.0596	3453.6922
CC1CC2NC12C=O	C[C@H]1C[C@H]2N[C@@]12C=O	
InChI=1S/C6H9NO/c1-4-2-5-6(4,3-8)7-5/h3-5,7H,2H2,1H3	InChI=1S/C6H9NO/c1-4-2-5-6(4,3-8)7-5/h3-5,7H,2H2,1H3/t4-,5+,6-/m0/s1
