20
gdb 22117	3.75336	0.71624	0.65182	2.6261	75.97	-0.2352	0.0204	0.2556	1718.7129	0.16756	-477.378229	-477.367246	-477.366302	-477.415549	38.789	
C	-0.1298874163	 1.5763905881	-0.0984807973	-0.489356
C	 0.0366011775	 0.0828058961	-0.0875727532	 0.352967
C	 0.0384814206	-0.6522287508	 1.2326866036	-0.277525
C	 1.3199653018	-0.4647434327	 2.053785129	 0.140234
O	 1.3741156329	 0.8685806061	 2.5371944519	-0.439192
C	 1.3735696409	-1.4302623161	 3.2367481491	-0.10179
O	 2.5450940891	-1.0897011754	 3.9741435351	-0.433622
N	 0.1728337106	-0.6658831431	-1.1161879129	-0.171841
O	 0.1678088224	 0.0546972381	-2.3232878734	-0.399662
H	 0.0374875089	 1.9877938456	-1.0923211784	 0.14589
H	-1.1465418073	 1.83663507	 0.2223381439	 0.128142
H	 0.554492709	 2.0278054012	 0.6235837381	 0.161919
H	-0.8074741797	-0.315926216	 1.8459177491	 0.106785
H	-0.0894929017	-1.7183547425	 1.0235046961	 0.113344
H	 2.1904185396	-0.6725015817	 1.4098902705	 0.083961
H	 2.0700097862	 0.8703906569	 3.2071880995	 0.289797
H	 0.4693446084	-1.3038399657	 3.8501327765	 0.095376
H	 1.4139685747	-2.4700443369	 2.8808812762	 0.096578
H	 2.4864628265	-1.4825027163	 4.849030132	 0.295531
H	 0.2863413259	-0.6472759051	-2.9709472653	 0.302463
33.4007	60.9426	70.368	134.0557	152.2598	243.4019	259.4481	303.2191	317.4236	335.1998	379.4291	386.4097	464.4433	472.012	510.4305	588.9277	651.3473	822.3969	869.7224	902.9559	981.3901	1001.9177	1033.913	1054.3106	1078.7113	1086.9531	1124.005	1205.0626	1227.5196	1265.2062	1277.7831	1303.1992	1333.8965	1386.5131	1401.0282	1402.7894	1428.309	1451.8235	1458.4483	1485.7133	1488.8942	1507.5347	1731.065	2970.693	2986.3479	3027.5441	3032.7186	3037.4423	3096.7329	3110.498	3172.1991	3770.0785	3826.9467	3845.4793
CC(CC(O)CO)=NO	CC(=NO)C[C@@H](O)CO	
InChI=1S/C5H11NO3/c1-4(6-9)2-5(8)3-7/h5,7-9H,2-3H2,1H3	InChI=1S/C5H11NO3/c1-4(6-9)2-5(8)3-7/h5,7-9H,2-3H2,1H3/t5-/m1/s1
