16
gdb 124417	3.28917	1.0886	0.98308	5.2764	74.41	-0.2559	0.0057	0.2617	1223.4263	0.126285	-396.966184	-396.957902	-396.956958	-397.000334	29.821	
C	 0.0443420792	 1.547882313	-0.063037461	-0.382144
C	 0.0096872528	 0.0059292621	 0.0621054591	-0.270182
C	 0.7370098963	-0.4171452479	 1.2688788193	 0.275952
N	 1.3117375104	-0.7293893384	 2.2216320304	-0.327417
C	-1.3938547977	-0.546676225	 0.0513457356	 0.228565
C	-2.0085210861	-1.243095496	-0.9699975641	-0.142061
N	-3.2713788465	-1.4968062306	-0.5535093505	-0.177079
N	-3.5302497726	-1.0192640954	 0.677602767	-0.215175
C	-2.3936560648	-0.4408682177	 1.0486047023	-0.074032
H	 1.0740982965	 1.9143469449	-0.0753764526	 0.135631
H	-0.4521929302	 1.8468378378	-0.989325838	 0.129346
H	-0.4796607896	 2.013607535	 0.7750692807	 0.142547
H	 0.5515808412	-0.4178318723	-0.7920414147	 0.128593
H	-1.6471400563	-1.5679254217	-1.9332247782	 0.140664
H	-3.9949802963	-1.9928666556	-1.0457133777	 0.280102
H	-2.3192556063	 0.0224138578	 2.0216491125	 0.126689
25.7565	107.6342	171.0025	204.1578	229.3365	337.5784	390.6833	475.2362	528.4985	570.3447	670.568	697.2856	716.4811	796.3934	857.5023	892.6039	951.7811	980.1296	1017.3312	1063.6071	1078.6938	1112.2066	1172.5165	1241.4986	1264.4861	1315.0973	1350.7977	1394.5011	1409.1023	1426.2302	1489.3671	1494.2037	1496.9431	1609.2888	2357.6192	3039.8075	3050.5401	3130.9377	3134.6836	3246.8918	3258.1102	3675.1023
CC(C#N)C1=CNN=C1	C[C@@H](C#N)c1c[nH]nc1	
InChI=1S/C6H7N3/c1-5(2-7)6-3-8-9-4-6/h3-5H,1H3,(H,8,9)	InChI=1S/C6H7N3/c1-5(2-7)6-3-8-9-4-6/h3-5H,1H3,(H,8,9)/t5-/m0/s1
