21
gdb 107973	2.6831	1.37926	1.317	1.6437	82.69	-0.2255	0.0885	0.314	1136.5224	0.180957	-387.01675	-387.007939	-387.006995	-387.050022	34.088	
C	-0.0824731637	 1.5485735734	-0.0667269333	-0.378333
C	 0.0215416627	 0.0184456586	-0.0682643901	-0.331395
C	 0.7720136911	-0.5086459045	-1.2528245788	 0.45719
O	 0.2648101407	-0.2078335354	-2.5989111741	-0.369597
C	 1.4644488007	-1.0020508989	-2.8251994952	 0.046567
C	 2.2783136835	-0.370517879	-1.6625077237	-0.139357
C	 2.6341941479	-1.7516250824	-1.0724647167	-0.327847
C	 1.2076777767	-1.9763001904	-1.6279396084	 0.253193
C	 0.3374425223	-3.1997299068	-1.6264605408	-0.526691
H	 0.9073270324	 2.0109540928	 0.0031166314	 0.117343
H	-0.5516339784	 1.9008334521	-0.9891341875	 0.14109
H	-0.6794164993	 1.8989005368	 0.7802440421	 0.110889
H	 0.5211177158	-0.3352488325	 0.8425536812	 0.106268
H	-0.9816871857	-0.4259366868	-0.0696448572	 0.112274
H	 1.7623477998	-1.2181130438	-3.8515765618	 0.087185
H	 2.8639614539	 0.5477747295	-1.7024321386	 0.078383
H	 3.4413726897	-2.3000716585	-1.5676002277	 0.09441
H	 2.7527584041	-1.8073432007	 0.0140115798	 0.0952
H	 0.1244500374	-3.5376092681	-0.6062170172	 0.119391
H	-0.6153385195	-2.9804490626	-2.1200373256	 0.133427
H	 0.8147564279	-4.0295754028	-2.1589404377	 0.12041
76.2136	135.0687	186.9065	220.8473	234.251	252.8	285.3728	397.2448	479.5966	532.4785	623.8646	694.1506	726.0556	768.0221	782.6934	825.7457	848.4623	886.6892	914.4347	939.2514	968.302	990.9177	1014.2995	1030.1973	1085.93	1112.0341	1140.3897	1142.3284	1153.1129	1171.6375	1204.3595	1233.8007	1263.912	1299.1332	1329.8108	1341.0818	1396.1114	1406.8011	1411.5974	1468.3968	1489.382	1490.9372	1496.4045	1507.5283	1517.2572	3024.3224	3026.8892	3041.7573	3043.5548	3060.0798	3091.3046	3096.8484	3100.3196	3109.1936	3111.5725	3124.0935	3124.9757
CCC12OC3C1CC23C	CC[C@@]12O[C@H]3[C@@H]1C[C@@]23C	
InChI=1S/C8H12O/c1-3-8-5-4-7(8,2)6(5)9-8/h5-6H,3-4H2,1-2H3	InChI=1S/C8H12O/c1-3-8-5-4-7(8,2)6(5)9-8/h5-6H,3-4H2,1-2H3/t5-,6-,7+,8+/m0/s1
