21
gdb 13450	3.46738	1.10805	1.00939	0.6038	75.42	-0.213	0.0769	0.2899	1262.151	0.186992	-366.223587	-366.213739	-366.212794	-366.258363	35.136	
C	-0.0250464034	 1.551503395	 0.6650646459	-0.413859
C	 0.0563448257	 0.0873525282	 0.2853522914	-0.010843
C	 0.31678421	-0.3866068128	-1.1110087135	-0.014294
C	 0.5115830959	 0.5518484304	-2.2847940768	-0.204097
C	 1.2620516184	-0.1117675092	-3.436548943	-0.069013
O	 1.3259770131	 0.8219809572	-4.5037416605	-0.422539
N	 1.3076811595	-0.5988857075	-0.0472222605	-0.103591
C	 2.5680229644	 0.1266640973	-0.0396682091	-0.314647
H	 0.5630535107	 2.2048795268	 0.0186784046	 0.121557
H	-1.0660349331	 1.8884980217	 0.6145025766	 0.122709
H	 0.3173295325	 1.7024825736	 1.6950184095	 0.121516
H	-0.6022294617	-0.5341527513	 0.8936932892	 0.083453
H	-0.16959272	-1.3187844141	-1.4056777125	 0.080416
H	-0.4710582422	 0.8683442694	-2.6566173258	 0.109608
H	 1.0441926838	 1.4643887371	-2.006591509	 0.107045
H	 2.2691445947	-0.4106815832	-3.1051074402	 0.091446
H	 0.7345208151	-1.0310769718	-3.7395428473	 0.086393
H	 1.8022484715	 0.4140200642	-5.2325734107	 0.285753
H	 2.5378160629	 1.1560469648	-0.4238186977	 0.101359
H	 2.941417093	 0.1672397817	 0.989070004	 0.121182
H	 3.2990848092	-0.4309652075	-0.6348815246	 0.120449
76.4194	90.8734	118.7198	158.0698	172.2417	241.6545	262.31	270.8852	296.0965	390.9113	459.5449	530.5779	548.7316	722.2359	765.1185	807.9661	868.041	975.8317	1027.6535	1048.1175	1067.3673	1071.9954	1094.0564	1139.0801	1159.4366	1171.9426	1184.4229	1201.2214	1233.6876	1243.4213	1313.5951	1322.3034	1353.0382	1395.1454	1414.5991	1438.1426	1460.0504	1462.3242	1479.3203	1487.5882	1499.6021	1509.022	1511.1033	1527.222	2964.1465	2991.9193	2996.284	3036.8172	3039.7917	3062.7511	3071.061	3087.1197	3090.1982	3092.9366	3106.5933	3137.7288	3831.0774
CC1C(CCO)N1C	C[C@H]1[C@@H](CCO)N1C	
InChI=1S/C6H13NO/c1-5-6(3-4-8)7(5)2/h5-6,8H,3-4H2,1-2H3	InChI=1S/C6H13NO/c1-5-6(3-4-8)7(5)2/h5-6,8H,3-4H2,1-2H3/t5-,6+,7?/m0/s1
