22
gdb 98197	2.49827	1.13582	0.98771	2.2294	79.23	-0.2186	0.0165	0.2351	1358.663	0.191042	-441.509868	-441.498549	-441.497604	-441.546506	40.05	
C	 0.1620323444	 1.3964448236	 0.0538127784	-0.32363
N	-0.0370982185	-0.0468179637	 0.0980846719	-0.311879
C	-1.4253768459	-0.5348262287	 0.019754856	 0.129985
C	-2.2412847249	-0.0149995373	 1.2084465146	-0.401649
C	-2.1391999053	-0.1962715355	-1.3145239021	-0.426411
C	-1.3423541356	-2.0670132388	 0.1182880206	 0.479407
O	-1.987076027	-2.7666714025	 0.8556622741	-0.373039
O	-0.4558886008	-2.5588349438	-0.7759558013	-0.249433
C	-0.2985946354	-3.9828609082	-0.768435295	-0.240895
H	 1.2379608006	 1.5939215809	 0.0391739484	 0.120235
H	-0.2824729909	 1.9089371019	-0.8161288135	 0.095844
H	-0.2396261066	 1.8644706558	 0.9574149061	 0.126493
H	 0.5001229854	-0.4922875297	-0.6361538816	 0.224978
H	-2.4296558664	 1.0572156783	 1.1092172905	 0.108646
H	-3.2014781553	-0.530672749	 1.2598048056	 0.131634
H	-1.7065306539	-0.1934243247	 2.1442503191	 0.12855
H	-1.5734571818	-0.5836778965	-2.1662341717	 0.120284
H	-3.1435600323	-0.6317537064	-1.3434345353	 0.123796
H	-2.2452722696	 0.8860962743	-1.4290686681	 0.1206
H	 0.4364510804	-4.2056143313	-1.5420368617	 0.131467
H	 0.0565443988	-4.3245847465	 0.206923345	 0.143701
H	-1.2486567595	-4.4760703722	-0.9882156401	 0.141313
45.1306	92.0943	114.666	125.8999	180.9139	189.4782	233.1606	235.7039	273.7493	301.9598	335.6349	350.9221	389.3332	410.0838	499.6507	629.0412	749.7014	775.8547	805.857	863.7752	925.0383	955.9701	1005.5056	1031.1157	1098.495	1124.234	1153.9443	1177.6755	1179.813	1189.138	1213.5523	1256.0057	1314.819	1388.5661	1410.9241	1456.8829	1469.3102	1471.568	1480.1756	1480.8256	1491.5766	1497.3549	1498.1834	1503.74	1512.535	1525.0931	1825.3003	2959.8404	3037.7629	3052.6461	3055.6261	3069.7645	3106.4127	3107.5336	3120.1291	3127.8185	3128.2452	3144.4834	3158.1543	3549.3592
CNC(C)(C)C(=O)OC	CNC(C)(C)C(=O)OC	
InChI=1S/C6H13NO2/c1-6(2,7-3)5(8)9-4/h7H,1-4H3	InChI=1S/C6H13NO2/c1-6(2,7-3)5(8)9-4/h7H,1-4H3
