18
gdb 38087	2.67969	2.3844	1.57112	1.3968	79.65	-0.2076	0.0009	0.2085	874.4529	0.151798	-364.805594	-364.799452	-364.798508	-364.835765	26.259	
C	-0.0845207585	 1.5734470817	-0.0881582819	-0.280791
C	 1.4732703222	 1.5501506019	 0.0322085559	-0.00873
C	 2.1117744193	 1.9734843852	 1.3247099422	-0.086713
C	 2.3851039025	 0.9158741299	 2.0843777817	-0.070576
C	 1.8958355366	-0.3701496555	 1.4367447684	-0.108702
C	 0.6169045619	-0.8999431277	 2.066290185	-0.070576
C	-0.439985637	-0.6470275591	 1.2985923239	-0.086713
C	-0.0209477502	 0.0156726281	 0.0169153827	-0.00873
N	 1.4757798115	 0.0524909514	 0.0717039665	-0.110911
H	-0.6039290309	 2.071044887	 0.7327304659	 0.105313
H	-0.4646319236	 1.9530622019	-1.038864475	 0.101544
H	 1.9893595935	 1.9631019105	-0.8433603567	 0.077448
H	 2.3268330755	 3.0071500135	 1.5700188391	 0.097911
H	 2.8594693586	 0.9332113704	 3.0587857604	 0.097826
H	 2.683831569	-1.1372370324	 1.4126990514	 0.079218
H	 0.6024980061	-1.3845400056	 3.0356983418	 0.097826
H	-1.4699508788	-0.8919306038	 1.5311562665	 0.097911
H	-0.4112637276	-0.5022104075	-0.867928088	 0.077448
186.6604	232.0796	339.9757	479.7699	520.3257	634.6644	660.7845	706.8866	737.8603	758.9407	793.6526	802.205	860.6725	884.3499	908.084	934.6035	959.5101	972.8841	989.2013	1015.8576	1052.031	1061.5917	1065.5978	1109.6052	1130.3582	1135.843	1137.3562	1223.4944	1256.4839	1273.4129	1286.7556	1290.9059	1322.518	1329.51	1351.0209	1369.8982	1479.5926	1667.3084	1686.2317	2983.7969	3016.8543	3020.1619	3069.5744	3128.059	3187.948	3189.3456	3212.9288	3214.5935
C1C2C=CC3C=CC1N23	C1[C@H]2C=C[C@H]3C=C[C@@H]1N23	
InChI=1S/C8H9N/c1-3-7-5-8-4-2-6(1)9(7)8/h1-4,6-8H,5H2	InChI=1S/C8H9N/c1-3-7-5-8-4-2-6(1)9(7)8/h1-4,6-8H,5H2/t6-,7+,8-
