20
gdb 121588	4.12562	0.69895	0.61272	1.7055	79.42	-0.2255	-0.0231	0.2024	1834.7686	0.170572	-436.513607	-436.503018	-436.502074	-436.550709	37.507	
C	-0.1180002543	 1.4659901153	 0.0800599978	-0.379167
C	-0.1171852291	-0.05150071	-0.1173098072	-0.19654
C	 0.824532718	-0.4910298106	-1.2370637392	-0.097152
N	 0.8031190516	-1.9315200025	-1.3990773722	-0.306543
C	 1.4228504465	-2.5560633637	-2.4294893186	 0.264398
N	 1.9433133962	-1.9178435427	-3.4158860839	-0.549004
C	 1.3917957937	-4.0749079918	-2.2345916114	 0.364662
N	 1.5596549634	-4.8080531348	-3.3678896425	-0.530967
O	 1.2395256708	-4.5689431276	-1.1316501591	-0.367521
H	 0.8825436134	 1.8343735234	 0.3310295569	 0.119973
H	-0.4427526708	 1.9826885777	-0.8294291718	 0.120574
H	-0.793526181	 1.7582120031	 0.889181923	 0.116211
H	 0.1793229844	-0.543752119	 0.8189407987	 0.099895
H	-1.1311310791	-0.4023347108	-0.3447868317	 0.106759
H	 0.5320578173	-0.0379192004	-2.1905801008	 0.128578
H	 1.8484360953	-0.1393917382	-1.0361951256	 0.106959
H	 0.6214092942	-2.5221658809	-0.5999718793	 0.257875
H	 2.3895196945	-2.5546283887	-4.0711165085	 0.207005
H	 1.4240097691	-4.3867989064	-4.271002631	 0.265238
H	 1.4541695357	-5.8069871113	-3.2897724536	 0.268769
27.2543	67.6562	88.0842	96.2778	174.0293	236.2383	244.0455	313.3183	337.0585	379.1657	424.4655	452.5861	538.0542	572.2708	604.9984	648.296	752.5392	797.4814	831.984	860.4929	892.2658	930.2615	1033.4632	1072.2873	1098.4126	1150.1875	1176.5083	1179.8723	1262.5195	1287.7692	1316.0245	1335.366	1375.1868	1408.4608	1416.0024	1492.4954	1499.5025	1505.4971	1523.3175	1558.3612	1607.9316	1698.7428	1787.2614	2988.0629	3015.9077	3034.4657	3051.4317	3070.618	3101.7964	3109.4106	3515.7515	3597.9431	3605.3618	3727.5139
CCCNC(=N)C(N)=O	CCCNC(=N)C(=O)N	
InChI=1S/C5H11N3O/c1-2-3-8-4(6)5(7)9/h2-3H2,1H3,(H2,6,8)(H2,7,9)	InChI=1S/C5H11N3O/c1-2-3-8-4(6)5(7)9/h2-3H2,1H3,(H2,6,8)(H2,7,9)
