18
gdb 109628	2.13326	1.26568	1.01423	5.1957	74.96	-0.2302	0.0236	0.2538	1252.9243	0.146621	-435.234762	-435.224699	-435.223755	-435.269794	36.141	
C	 0.0529589821	 1.301211184	 0.2270245108	-0.325876
N	-0.0803955289	-0.032599434	-0.3460804839	-0.282065
C	-1.3898289958	-0.5878711717	-0.2863492712	-0.058741
C	-1.6593396422	-1.8774282845	-0.9839925488	 0.020103
O	-0.603542859	-2.4053867042	-1.7152928254	-0.418612
C	-1.5566672874	-1.8840150627	 0.561722109	 0.089735
N	-0.3805082392	-2.3797983589	 1.2087228667	-0.561832
C	-2.7978694652	-2.0407681292	 1.2764538285	 0.274126
N	-3.821423321	-2.1636394816	 1.8037583617	-0.352573
H	 1.0871082939	 1.638117471	 0.1191624415	 0.127938
H	-0.607648682	 2.051608212	-0.2372367396	 0.110059
H	-0.1783396107	 1.2652265523	 1.2960846824	 0.142808
H	 0.3011684402	-0.0943866196	-1.281454639	 0.244125
H	-2.2237304112	 0.1115875895	-0.2328159181	 0.109884
H	-2.6510520992	-2.0134050004	-1.4125459013	 0.111906
H	-0.7513934261	-3.3496178123	-1.8341511032	 0.298855
H	-0.1399260842	-3.3064856975	 0.871834149	 0.22607
H	 0.3866519659	-1.7568128521	 0.9583560009	 0.24409
62.3431	106.1361	159.1668	172.4581	192.1327	214.2537	240.7995	277.6141	316.8135	341.5968	477.1967	480.1404	569.4165	593.1402	615.8093	662.4215	760.6683	808.5825	880.3698	893.0069	1028.0252	1039.4374	1083.9787	1139.0976	1149.6137	1169.2873	1226.5311	1238.2729	1277.3603	1293.7426	1322.9379	1375.0733	1460.2001	1469.7697	1482.1673	1497.0466	1518.6323	1657.6171	2338.9288	2973.4389	3074.4676	3103.0534	3119.1265	3120.3749	3456.8009	3549.8785	3560.0985	3810.2783
CNC1C(O)C1(N)C#N	CN[C@H]1[C@@H](O)[C@]1(N)C#N	
InChI=1S/C5H9N3O/c1-8-3-4(9)5(3,7)2-6/h3-4,8-9H,7H2,1H3	InChI=1S/C5H9N3O/c1-8-3-4(9)5(3,7)2-6/h3-4,8-9H,7H2,1H3/t3-,4+,5-/m0/s1
