18
gdb 31792	3.36843	1.27973	0.94233	1.9997	75.76	-0.1848	0.0569	0.2417	1235.0645	0.148325	-435.293691	-435.284101	-435.283157	-435.328406	33.615	
C	-0.0547505948	 1.3396480489	 0.0008405092	-0.2331
O	 0.0003054021	-0.0859571692	 0.0354256812	-0.276034
C	 0.6455004678	-0.5937606258	 1.097677126	 0.477866
N	 1.2024149459	 0.0566445134	 2.084000065	-0.381447
C	 1.7023335476	-0.9382626862	 2.9114829384	-0.15837
C	 1.4430525062	-2.1771214789	 2.3987732757	 0.215743
N	 1.774958774	-3.4948337067	 2.7720637809	-0.609596
N	 0.753486313	-1.9464600992	 1.2014172261	-0.111424
C	 0.2774343762	-2.9380584929	 0.2608904589	-0.344253
H	 0.9522187037	 1.7668312301	-0.0238524593	 0.137815
H	-0.5997577193	 1.594231983	-0.9090021806	 0.125527
H	-0.5754777944	 1.729029138	 0.8807486284	 0.137865
H	 2.2253184284	-0.6969429741	 3.8246475546	 0.094063
H	 2.6677205615	-3.5232181827	 3.2487021938	 0.249295
H	 1.082729692	-3.9172720759	 3.3840555394	 0.244148
H	-0.8012654747	-3.1042014783	 0.3589878527	 0.131923
H	 0.4845979202	-2.6106198774	-0.7602531209	 0.145658
H	 0.8029607746	-3.8724059962	 0.4642573205	 0.154322
77.0743	92.7325	133.8442	158.5541	177.7301	203.1756	243.6717	283.2285	360.3117	379.0111	557.3543	629.6318	641.8452	723.775	745.8183	781.47	797.2258	809.5184	963.3291	1072.6723	1154.3938	1161.2871	1180.6466	1184.124	1210.1519	1229.3866	1263.8486	1298.8052	1391.5187	1430.7379	1457.9427	1475.6984	1491.0833	1503.1171	1514.1806	1537.4027	1602.6817	1612.845	1658.9828	3036.2445	3039.8647	3106.3189	3109.412	3148.0183	3150.0785	3244.3184	3490.8319	3591.1692
COC1=NC=C(N)N1C	COc1ncc(N)n1C	
InChI=1S/C5H9N3O/c1-8-4(6)3-7-5(8)9-2/h3H,6H2,1-2H3	InChI=1S/C5H9N3O/c1-8-4(6)3-7-5(8)9-2/h3H,6H2,1-2H3
