18
gdb 35429	3.20577	1.37398	1.31813	2.3196	73.98	-0.2546	0.0301	0.2847	1026.1272	0.150735	-401.957133	-401.949902	-401.948958	-401.98882	28.628	
N	-0.2675943421	-1.1263549353	-0.4711790894	-0.340697
C	-0.1419852974	-0.0006028878	-0.2375379138	 0.277066
C	 0.0147335491	 1.4267886844	 0.0545705488	-0.156605
C	-0.687785093	 1.791967411	 1.4071935532	-0.224435
C	 0.3383470029	 1.8429455166	 2.5375099395	 0.099377
C	 1.4490012155	 0.7813530638	 2.3923595276	-0.271463
C	 2.06375636	 1.8686810336	 1.486051592	 0.099377
C	 1.5306030289	 1.8250562597	 0.055315598	-0.224435
O	 1.3014444663	 2.882929152	 2.201662278	-0.298653
H	-0.4895993412	 1.955618503	-0.7600793963	 0.132541
H	-1.1418331047	 2.7834868367	 1.3223230962	 0.121616
H	-1.4868435152	 1.0760077779	 1.6210837854	 0.123257
H	-0.1224864184	 2.0036216161	 3.5154079915	 0.083929
H	 2.0145382188	 0.6664318533	 3.317573485	 0.11768
H	 1.2068136752	-0.1950738158	 1.9710374963	 0.132645
H	 3.1403606663	 2.0522886441	 1.5270417422	 0.083929
H	 2.1023382877	 1.1295435212	-0.5661521092	 0.123256
H	 1.6416503211	 2.8250049056	-0.3739216749	 0.121616
99.4387	161.3972	254.3245	308.9328	380.4475	390.6235	516.8939	517.1726	604.4001	687.0166	765.2033	825.9743	843.2589	870.9742	874.2682	940.214	945.0597	948.3002	977.0321	1042.0168	1069.0428	1085.6977	1104.206	1112.6157	1186.8386	1210.7934	1223.8011	1259.7087	1268.8392	1323.096	1341.5272	1346.2714	1353.7418	1365.7369	1385.678	1470.3531	1477.4947	1497.7396	2349.6988	3051.3391	3054.6249	3063.4661	3079.1702	3079.9757	3092.5948	3103.5102	3104.8368	3149.5408
N#CC1CC2CC(C1)O2	N#C[C@H]1C[C@H]2C[C@@H](C1)O2	
InChI=1S/C7H9NO/c8-4-5-1-6-3-7(2-5)9-6/h5-7H,1-3H2	InChI=1S/C7H9NO/c8-4-5-1-6-3-7(2-5)9-6/h5-7H,1-3H2/t5-,6-,7+
