18
gdb 77096	3.17592	1.11607	0.92378	4.2102	77.22	-0.2761	0.0262	0.3023	1266.9935	0.146864	-401.936906	-401.928242	-401.927297	-401.970443	32.224	
C	-0.5612828565	 1.1661777211	-0.0820883838	-0.427005
C	 0.00946234	-0.2217085387	 0.1481023704	-0.058379
C	 1.3051410343	-0.6492832167	-0.6355351696	-0.163537
C	 1.8268425574	-1.3583981088	 0.6594218394	-0.334939
C	 0.7851680453	-0.548444428	 1.4317295333	 0.440076
C	 0.9733458781	 0.2776068087	 2.6257905187	-0.267024
O	 0.199789384	-0.9342665356	 2.6524213463	-0.268626
C	 1.1379817269	-1.449319453	-1.834184554	 0.272785
N	 0.9885949098	-2.0948293605	-2.7820763398	-0.325956
H	 0.2047029078	 1.9383452309	 0.0464334481	 0.118266
H	-0.9708578576	 1.2590784471	-1.0928838602	 0.135893
H	-1.371961766	 1.372064955	 0.6245542385	 0.134298
H	-0.760624211	-0.9868553324	 0.0027103596	 0.112183
H	 1.9139861838	 0.228607871	-0.8698848292	 0.123256
H	 1.5875333198	-2.4244819849	 0.65979868	 0.140547
H	 2.880875814	-1.2214458784	 0.905243456	 0.124642
H	 1.9184259908	 0.2386005855	 3.165951284	 0.121233
H	 0.4014946891	 1.1954923076	 2.7519132621	 0.122288
63.8728	135.2768	197.5039	206.7529	216.3077	278.4909	341.3065	384.3001	462.3803	498.5028	562.7912	576.7096	704.5242	808.3521	861.4763	872.1794	914.824	921.1948	993.435	1047.8883	1049.3886	1092.7431	1124.4511	1136.3259	1144.8336	1162.5589	1201.4871	1230.5715	1237.5293	1258.2994	1341.9492	1377.6122	1408.348	1438.2628	1484.7641	1493.9232	1497.5222	1538.768	2354.1133	3032.653	3056.3133	3073.4657	3077.8102	3084.2845	3103.739	3106.4968	3137.1484	3172.5935
CC1C(CC11CO1)C#N	C[C@H]1[C@@H](C[C@]21CO2)C#N	
InChI=1S/C7H9NO/c1-5-6(3-8)2-7(5)4-9-7/h5-6H,2,4H2,1H3	InChI=1S/C7H9NO/c1-5-6(3-8)2-7(5)4-9-7/h5-6H,2,4H2,1H3/t5-,6-,7+/m0/s1
