18
gdb 5125	3.32703	1.98352	1.27222	3.7207	75.35	-0.2027	0.0408	0.2435	975.7154	0.153966	-344.038598	-344.029862	-344.028918	-344.071997	30.752	
C	 0.0068054647	 1.4460217613	 0.0234853603	-0.339268
N	 0.0363270562	 0.0001218478	 0.037876946	-0.031619
C	 0.082833875	-0.8209735029	-1.0498840473	-0.016901
N	 0.1000153795	-2.0881925322	-0.7172092102	-0.328992
C	 0.0629447345	-2.1064350422	 0.6625781205	 0.211114
C	 0.0694219323	-3.4010033856	 1.4108454401	-0.489393
C	 0.022960445	-0.8216492091	 1.1566411888	 0.19641
C	-0.0259930261	-0.2743217868	 2.5431895048	-0.507623
H	 0.8728399502	 1.8669523335	 0.5450939722	 0.140214
H	 0.027829912	 1.7889749526	-1.0127577798	 0.143994
H	-0.9028869262	 1.8302164031	 0.4969070894	 0.140214
H	 0.1019485092	-0.4253886401	-2.0556861668	 0.117816
H	 0.9689035577	-3.9829197489	 1.1814329286	 0.130778
H	 0.0362996927	-3.2445195248	 2.4925064535	 0.110685
H	-0.7909233612	-4.0197529061	 1.1328662818	 0.130791
H	 0.8381187148	 0.3623785591	 2.7729937256	 0.126214
H	-0.9268016893	 0.3259743921	 2.7250505472	 0.126212
H	-0.028776471	-1.0921221806	 3.2666865652	 0.139355
73.0212	107.4474	144.7462	148.7465	246.3424	264.4089	279.0334	300.9863	468.6462	581.92	639.3925	693.2365	706.9629	761.066	800.3251	957.5463	984.2695	1058.0214	1065.3888	1077.4678	1131.8949	1151.2218	1207.7471	1265.8246	1313.391	1401.2527	1416.1221	1425.7234	1431.3304	1460.4662	1473.9407	1476.442	1488.1147	1488.1978	1492.556	1519.3599	1543.2018	1630.7263	3012.0449	3031.5087	3032.8754	3053.2648	3083.4969	3088.6698	3111.5705	3125.6334	3133.0682	3234.4458
CN1C=NC(C)=C1C	Cn1cnc(C)c1C	
InChI=1S/C6H10N2/c1-5-6(2)8(3)4-7-5/h4H,1-3H3	InChI=1S/C6H10N2/c1-5-6(2)8(3)4-7-5/h4H,1-3H3
