18
gdb 65985	2.79772	1.27866	1.16312	0.7813	72.49	-0.2675	0.0216	0.289	1130.7635	0.147045	-439.058181	-439.049558	-439.048614	-439.091896	31.773	
C	-0.0693871612	 1.537727449	 0.1701451914	-0.480983
C	 0.0149540975	 0.0176714429	 0.0538460018	 0.147961
C	 0.9912278713	-0.5291129326	-1.0258769397	-0.120994
O	 1.8336432146	-1.1144184149	 0.0167536349	-0.25829
C	 1.004222346	-0.6425649365	 1.0096332033	 0.40352
N	 1.0737815165	-0.7396956036	 2.2568930524	-0.545984
C	-1.3322236453	-0.6783237754	 0.0443425689	 0.051783
C	-2.5454489521	-0.1334818527	 0.6604956109	-0.184185
O	-2.3606210988	-0.0966785812	-0.7594376511	-0.243843
H	 0.9109794325	 1.9929461443	 0.0062296961	 0.123878
H	-0.7715787168	 1.9344098068	-0.5678574835	 0.142429
H	-0.403000007	 1.8270542124	 1.1699916496	 0.143189
H	 0.5984481231	-1.3019741645	-1.6909987524	 0.125428
H	 1.5405173929	 0.2236108344	-1.5959246169	 0.122169
H	 1.9025500721	-1.2607123316	 2.5487771009	 0.22967
H	-1.2661169099	-1.7642871176	-0.0459358308	 0.098967
H	-3.3141411719	-0.81873645	 1.0132760318	 0.122727
H	-2.5211755036	 0.8323697108	 1.1584435927	 0.122557
60.2027	104.3105	153.0733	217.7127	241.5307	278.4705	323.5356	402.7997	420.9013	564.6733	654.6408	690.5791	769.7615	854.961	861.9951	879.9661	901.9795	958.244	976.647	981.1433	1011.6037	1033.2498	1100.3684	1154.2398	1158.0817	1160.4381	1177.6927	1207.5938	1241.1035	1256.9666	1316.1172	1367.0204	1406.1018	1439.6977	1492.0706	1506.3305	1520.166	1533.0391	1821.4163	3049.0113	3063.5051	3089.8068	3100.58	3120.4173	3125.5325	3130.8661	3189.1694	3476.0851
CC1(COC1=N)C1CO1	C[C@]1(CO[C]1[NH])[C@H]1CO1	
InChI=1S/C6H9NO2/c1-6(4-2-8-4)3-9-5(6)7/h4,7H,2-3H2,1H3	InChI=1S/C6H9NO2/c1-6(4-2-8-4)3-9-5(6)7/h4,7H,2-3H2,1H3/t4-,6+/m1/s1
