19
gdb 42824	2.47785	1.81359	1.63202	2.9689	77.68	-0.2338	-0.0105	0.2233	942.9265	0.162174	-385.893588	-385.886636	-385.885692	-385.92463	28.862	
O	-0.0098378572	 0.0201506179	 0.0840900671	-0.333698
C	-0.031699468	 1.2150317555	 0.0062078241	 0.423792
C	-1.1258758424	 2.2860919417	 0.081132474	-0.127644
C	-0.025942497	 3.1704113006	 0.7586718585	-0.243798
C	 1.0420378882	 2.3192485085	-0.0090611602	-0.148804
C	 1.1741854927	 2.8800302859	-1.4237934011	-0.02388
C	 0.7907219748	 2.0368908262	-2.6143320465	-0.308676
C	-0.1468227224	 3.120716566	-2.126206693	-0.024057
C	-1.4254355561	 2.8047136546	-1.3476915143	-0.240447
H	-2.0413386918	 2.051801586	 0.6273186494	 0.08344
H	-0.0463208683	 4.2370510541	 0.5254000228	 0.10328
H	 0.0124440021	 3.0202273971	 1.8396391853	 0.110901
H	 2.0048120523	 2.098198728	 0.4545763007	 0.085069
H	 1.9671650185	 3.6107803829	-1.551982392	 0.089132
H	 1.3071814156	 2.2123788164	-3.5517850334	 0.108865
H	 0.5279735218	 0.9978979461	-2.443455073	 0.136423
H	-0.2097247263	 3.9984463512	-2.7610386258	 0.087914
H	-2.0447007799	 2.0737538008	-1.8811409068	 0.114826
H	-2.0248079563	 3.7177320704	-1.255064286	 0.107363
135.6139	200.4262	273.9876	377.0943	414.424	451.6266	484.125	537.0756	689.9001	747.9344	779.603	796.9058	829.2736	835.0517	869.747	900.4483	936.6265	959.349	989.8888	1034.0599	1060.534	1067.3759	1076.6016	1101.7533	1113.7242	1126.8283	1133.8032	1146.9615	1201.6109	1218.0932	1240.5398	1261.7654	1275.3095	1295.7957	1353.9173	1368.5298	1401.7825	1482.8155	1492.0654	1499.1957	1883.9882	3028.1511	3065.1372	3067.4402	3098.9258	3100.4033	3129.3305	3131.0447	3145.3699	3158.1384	3215.8891
O=C1C2CC1C1CC1C2	O=C1[C@H]2C[C@@H]1[C@H]1C[C@H]1C2	
InChI=1S/C8H10O/c9-8-5-1-4-2-6(4)7(8)3-5/h4-7H,1-3H2	InChI=1S/C8H10O/c9-8-5-1-4-2-6(4)7(8)3-5/h4-7H,1-3H2/t4-,5-,6+,7-/m1/s1
