15
gdb 45115	2.88153	1.72017	1.17617	4.9877	67.79	-0.2356	-0.0466	0.189	998.8858	0.114504	-453.962565	-453.955234	-453.95429	-453.995005	27.949	
N	-0.0989142414	 1.1986991786	 0.5649227489	-0.505143
C	-0.0498641011	 0.0114971502	 0.1045633292	 0.220567
N	-1.1913845386	-0.6854856519	-0.1982529001	-0.329875
C	-1.1975799154	-1.9270327937	-0.890189599	-0.017092
C	-0.6678140218	-2.0305955701	-2.3179854818	-0.334862
C	 0.1361518811	-2.5428232829	-1.1528617812	 0.10019
O	 1.315674883	-1.8852719847	-0.7460053665	-0.223117
C	 1.289349485	-0.687101263	-0.1210199321	 0.379622
O	 2.3188774647	-0.1775154191	 0.2233620875	-0.313689
H	 0.8535062723	 1.5148666065	 0.7484248759	 0.245001
H	-2.0383993936	-0.1354426044	-0.1764053881	 0.258049
H	-2.006149514	-2.5883527971	-0.5944092363	 0.119981
H	-1.1045035358	-2.7565570259	-2.9946755728	 0.130683
H	-0.3350523845	-1.105681463	-2.7765486063	 0.1399
H	 0.26424729	-3.6112432394	-1.0290962372	 0.129783
54.0959	93.3102	313.4064	358.718	401.5526	430.3004	489.1158	525.7596	548.4291	574.0784	704.7339	736.8474	790.1625	818.5067	848.4279	894.8809	926.8821	1017.6986	1038.5377	1067.6774	1081.7943	1135.9392	1147.4272	1194.9354	1224.0482	1275.1416	1391.8701	1418.7968	1444.7924	1458.1553	1493.7224	1718.964	1840.7228	3136.9695	3151.6191	3186.8778	3233.3146	3494.6858	3598.672
N=C1NC2CC2OC1=O	[NH][C]1N[C@H]2C[C@H]2OC1=O	
InChI=1S/C5H6N2O2/c6-4-5(8)9-3-1-2(3)7-4/h2-3H,1H2,(H2,6,7)	InChI=1S/C5H6N2O2/c6-4-5(8)9-3-1-2(3)7-4/h2-3H,1H2,(H2,6,7)/t2-,3+/m0/s1
