22
gdb 120460	3.1693	0.84864	0.75799	3.5389	85.24	-0.2372	0.0395	0.2767	1634.0648	0.193426	-404.385591	-404.375284	-404.37434	-404.421959	36.436	
C	-0.0498609998	 1.6243481391	-0.0364925997	-0.377136
C	 0.0199281357	 0.1002927198	-0.1591186033	-0.175751
C	-1.3251548653	-0.5681433475	 0.1551434974	-0.160401
N	-1.2957625979	-2.0078529065	 0.0545263261	-0.072985
C	-1.1436823379	-2.9231377677	-1.0806605868	-0.193703
C	-1.3078627734	-4.101589577	-0.070092352	-0.131762
C	-0.1433512261	-5.066999444	 0.1027302131	-0.401751
C	-1.4418553151	-2.9914352018	 1.0022210284	 0.399138
O	-1.6018730855	-2.9457424044	 2.1957786346	-0.383944
H	 0.9154100233	 2.0845369959	-0.2664112709	 0.117805
H	-0.7914307255	 2.0453726036	-0.7246113891	 0.116386
H	-0.3305432931	 1.9274246898	 0.9780424982	 0.122494
H	 0.3335500384	-0.1753294728	-1.1739068559	 0.09881
H	 0.7791181359	-0.3009910459	 0.5222552621	 0.111065
H	-1.6292336956	-0.3429412764	 1.183113159	 0.137353
H	-2.1034178177	-0.1669783494	-0.5106287908	 0.10287
H	-1.93212313	-2.830680632	-1.8368044848	 0.105348
H	-0.1642418524	-2.8734913915	-1.5701027068	 0.107447
H	-2.24902184	-4.6425250696	-0.2061573231	 0.100438
H	 0.803438473	-4.5276182376	 0.213155501	 0.121264
H	-0.2865277458	-5.6761876138	 1.0000278809	 0.138945
H	-0.052874215	-5.7406680004	-0.7553895575	 0.118069
49.7888	64.5229	82.3203	130.7533	205.1238	223.1038	232.6544	249.4372	287.1537	348.7683	383.8556	531.4012	681.0555	733.7458	752.6228	779.9103	842.1798	882.3131	893.8865	933.2556	970.6326	1041.1329	1064.5008	1090.0332	1115.8108	1123.3732	1146.9689	1175.1556	1205.8379	1237.5522	1265.9173	1300.7473	1331.5667	1337.6325	1362.4392	1403.2263	1406.1487	1414.2882	1431.6395	1476.7994	1492.1967	1495.8437	1497.5125	1499.9113	1510.225	1527.7977	1868.8958	2997.4918	3022.4155	3027.7054	3032.8491	3034.7698	3060.7401	3062.7458	3074.4152	3082.9652	3100.9426	3103.5592	3108.7916	3113.2224
CCCN1CC(C)C1=O	CCCN1C[C@@H](C)C1=O	
InChI=1S/C7H13NO/c1-3-4-8-5-6(2)7(8)9/h6H,3-5H2,1-2H3	InChI=1S/C7H13NO/c1-3-4-8-5-6(2)7(8)9/h6H,3-5H2,1-2H3/t6-/m1/s1
