19
gdb 30664	3.60963	1.02794	0.91757	0.6502	78.1	-0.2222	0.0078	0.23	1343.9199	0.159865	-419.229155	-419.220067	-419.219123	-419.264192	32.72	
C	-0.1262916478	 1.4900779443	 0.0629008726	-0.317411
N	-0.1534800305	 0.0497009228	 0.2779357631	-0.289137
C	-1.4200349104	-0.6110382752	-0.0648771299	-0.077204
C	-1.7686043892	-0.6386457295	-1.5626321732	-0.398063
C	-1.368653101	-2.004158422	 0.4899391877	 0.422099
N	-0.9015776829	-3.0745888756	-0.07309097	-0.313035
C	-1.0281701335	-4.0642288649	 0.8941470291	-0.114637
C	-1.5787601534	-3.5250388407	 2.0052808159	-0.045585
O	-1.8041299602	-2.2001803467	 1.7602539754	-0.173226
H	 0.8506464708	 1.8769584138	 0.3674940931	 0.12223
H	-0.310184981	 1.8182186183	-0.9739245514	 0.099144
H	-0.881884839	 1.9643414071	 0.699780575	 0.12282
H	 0.6008884644	-0.4017455717	-0.2298251463	 0.222657
H	-2.2053740047	-0.0753756821	 0.4824963543	 0.099568
H	-1.7807648398	 0.3735702764	-1.9752456223	 0.114887
H	-1.0362042138	-1.2378937672	-2.1104794361	 0.137884
H	-2.7546402525	-1.0837631064	-1.7273642494	 0.121208
H	-0.7186970842	-5.0813241571	 0.7139110383	 0.122162
H	-1.8667483613	-3.8930062537	 2.9746958741	 0.14364
26.3776	95.2475	117.7594	196.4562	219.964	249.7517	304.2565	356.343	392.38	496.7451	633.4093	694.5846	757.4439	768.6775	784.9777	862.9073	885.2869	933.876	950.4176	1012.6539	1063.502	1078.5414	1112.6112	1128.8015	1149.2229	1163.0377	1175.4162	1194.8636	1229.5493	1336.4975	1349.3959	1402.2636	1418.425	1456.1286	1478.1196	1485.4489	1494.9135	1504.4933	1520.5065	1552.449	1612.4185	2960.8395	3039.981	3044.4924	3055.5167	3102.0903	3113.9181	3127.2146	3263.7938	3300.5965	3518.1855
CNC(C)C1=NC=CO1	CN[C@@H](C)c1ncco1	
InChI=1S/C6H10N2O/c1-5(7-2)6-8-3-4-9-6/h3-5,7H,1-2H3	InChI=1S/C6H10N2O/c1-5(7-2)6-8-3-4-9-6/h3-5,7H,1-2H3/t5-/m0/s1
