20
gdb 57806	3.87263	0.61153	0.58259	2.08	84.95	-0.2485	0.0349	0.2833	1975.179	0.169408	-403.088425	-403.078089	-403.077145	-403.125913	36.532	
C	 0.2286992936	 0.0146204933	 1.0230333678	-0.383607
C	-0.3593288873	 0.2130408745	-0.3816062903	-0.015381
O	-0.0758189171	 1.5164154944	-0.8875793378	-0.415065
C	 0.0859286006	-0.8357863617	-1.3057736908	 0.097208
C	 0.4943357731	-1.6759269282	-2.0668172157	 0.02596
C	 1.0078253795	-2.6847705924	-2.9904195203	-0.391131
C	 2.5077052073	-2.5707118184	-3.2201925249	 0.0496
C	 3.0867383985	-2.9557585138	-4.5292226706	-0.248619
N	 3.0468336348	-1.5403805936	-4.1149561981	-0.307867
H	-0.076733507	-0.9490475974	 1.4412076561	 0.12286
H	 1.3226250022	 0.0379518226	 0.9858248758	 0.117498
H	-0.1188057623	 0.8166901097	 1.679440219	 0.124427
H	-1.4535644272	 0.1824005629	-0.3102628697	 0.116128
H	 0.8597174237	 1.536064521	-1.1186601586	 0.283418
H	 0.7776690092	-3.6866805925	-2.6029739183	 0.136718
H	 0.4887642825	-2.606352851	-3.9559626878	 0.122987
H	 3.1051655688	-2.7164347853	-2.3228449376	 0.101416
H	 4.0806718476	-3.3902234026	-4.5845424975	 0.121463
H	 2.4035904691	-3.2929675539	-5.3053932913	 0.110541
H	 2.2842296203	-1.0610861275	-4.5889974291	 0.231448
19.3335	47.0498	75.8594	124.3763	193.9899	253.5489	281.1453	319.1572	335.6446	353.1583	396.6495	472.0925	550.8333	596.7158	733.8161	787.0174	830.0348	894.6029	924.0294	936.3312	977.3447	1014.7639	1050.8492	1066.4226	1095.8386	1125.1954	1149.7393	1173.6891	1178.0237	1247.1071	1266.1303	1282.515	1311.5263	1321.0162	1339.3408	1398.2342	1417.5577	1419.7521	1462.7246	1487.4632	1491.5014	1515.0838	2360.6847	3006.3954	3035.018	3038.4464	3039.4502	3106.6096	3114.0644	3126.2389	3133.0343	3191.631	3490.0918	3802.7632
CC(O)C#CCC1CN1	C[C@@H](O)C#CC[C@H]1CN1	
InChI=1S/C7H11NO/c1-6(9)3-2-4-7-5-8-7/h6-9H,4-5H2,1H3	InChI=1S/C7H11NO/c1-6(9)3-2-4-7-5-8-7/h6-9H,4-5H2,1H3/t6-,7+/m1/s1
