20
gdb 76427	2.90734	1.02538	0.95042	5.0366	79.69	-0.2611	0.0327	0.2938	1333.0059	0.168712	-403.152779	-403.142502	-403.141558	-403.187906	37.266	
C	-0.047951081	 1.4954765445	-0.2151348957	-0.425656
C	 0.0672832548	 0.0090414957	 0.0457902114	-0.112305
C	 1.4139331787	-0.6928474904	 0.0053955663	 0.058763
O	 2.5820835777	 0.057814542	-0.1440673718	-0.417011
C	 0.6893868864	-0.5533738737	 1.3196919773	 0.28956
C	 1.2410528889	 0.3719130023	 2.3866826733	-0.470618
C	 0.023507196	-1.8167684599	 1.8672684	-0.410407
C	 0.9430390611	-2.6721503579	 2.6218656662	 0.27506
N	 1.6765657748	-3.3391914835	 3.2155209056	-0.314136
H	 0.8824110501	 2.0181729057	 0.0152282279	 0.132376
H	-0.2804552431	 1.6807076195	-1.2697427132	 0.117464
H	-0.8481268089	 1.947062727	 0.3804986048	 0.122909
H	-0.763937777	-0.5718132165	-0.3492370436	 0.079948
H	 1.4583516381	-1.6876200012	-0.4397591151	 0.088781
H	 2.660593516	 0.310160668	-1.0701583475	 0.292513
H	 1.8453384068	 1.1669723378	 1.9512790737	 0.14256
H	 0.4307212431	 0.8254030413	 2.9688826062	 0.1131
H	 1.8817864451	-0.184783355	 3.0782868956	 0.143137
H	-0.8127718433	-1.5463581422	 2.5244608625	 0.149321
H	-0.401315614	-2.4121727535	 1.0516376961	 0.144639
60.4046	112.2905	150.3319	157.6262	198.9177	223.8319	267.1399	278.2478	300.7482	338.5303	392.9271	416.4624	493.3544	576.3055	595.1673	718.31	811.3441	839.7605	917.3375	940.5439	972.9018	996.6553	1045.3413	1064.1646	1100.2686	1126.6887	1157.1072	1179.0572	1225.2203	1251.629	1277.476	1331.0591	1356.1414	1383.9228	1414.0366	1420.7514	1457.4764	1469.2736	1488.0693	1495.6617	1505.8516	1518.2167	2360.111	3032.8159	3034.863	3037.7156	3074.5962	3088.3208	3090.2104	3095.6123	3118.8004	3135.085	3154.7458	3806.4158
CC1C(O)C1(C)CC#N	C[C@H]1[C@@H](O)[C@]1(C)CC#N	
InChI=1S/C7H11NO/c1-5-6(9)7(5,2)3-4-8/h5-6,9H,3H2,1-2H3	InChI=1S/C7H11NO/c1-5-6(9)7(5,2)3-4-8/h5-6,9H,3H2,1-2H3/t5-,6+,7+/m0/s1
