19
gdb 88571	3.5103	1.21996	1.01372	1.7445	78.39	-0.2195	0.0469	0.2664	1221.5298	0.160314	-419.20141	-419.19276	-419.191816	-419.235682	31.177	
C	 0.0912333117	 1.3529767056	 0.6565590363	-0.398413
C	 0.1262172183	-0.0204788294	 0.031716965	 0.019878
C	 1.4015249964	-0.8036442968	-0.0369189382	-0.249498
N	 0.3150642197	-1.2218380152	 0.8376376228	-0.142887
C	 0.4168981819	-1.2071737677	 2.2095759918	 0.465984
N	-0.411046688	-0.6915201217	 3.0301612951	-0.346168
C	 0.0661817646	-1.0477919172	 4.369202477	-0.178811
C	 1.358105223	-1.8770823732	 4.1252996297	-0.107033
O	 1.4871040551	-1.9055835696	 2.689076414	-0.256071
H	 0.8990228715	 1.4848203815	 1.3809110566	 0.121447
H	 0.1988226682	 2.1136456165	-0.1236103671	 0.117549
H	-0.8532439311	 1.517422174	 1.1813267448	 0.150952
H	-0.5930274241	-0.1733141303	-0.7708930827	 0.101447
H	 1.607152478	-1.4661280914	-0.8728595062	 0.123733
H	 2.2804176727	-0.3643933673	 0.4283766848	 0.127556
H	 0.2601749918	-0.1448277225	 4.9598346501	 0.107631
H	-0.6961964813	-1.6237107005	 4.9064539385	 0.111114
H	 2.2592580899	-1.417870299	 4.542311676	 0.113811
H	 1.2896373416	-2.9079371757	 4.4845783516	 0.117779
56.4618	70.7775	126.8862	159.4069	214.5535	263.6194	385.3089	394.236	526.8402	583.844	738.604	755.1752	815.6886	834.7121	879.9978	909.4251	924.7348	967.2479	1006.676	1038.9845	1043.1873	1075.3789	1123.4682	1125.7095	1142.4001	1161.6511	1197.4202	1219.5699	1230.8181	1243.0087	1322.1384	1367.8583	1398.5721	1418.5962	1445.8664	1482.817	1492.3699	1510.5379	1514.9368	1530.7183	1725.0042	3026.8236	3044.4586	3050.3032	3051.0811	3096.6927	3109.3717	3111.5715	3121.934	3134.3208	3197.8343
CC1CN1C1=NCCO1	C[C@H]1CN1C1=NCCO1	
InChI=1S/C6H10N2O/c1-5-4-8(5)6-7-2-3-9-6/h5H,2-4H2,1H3	InChI=1S/C6H10N2O/c1-5-4-8(5)6-7-2-3-9-6/h5H,2-4H2,1H3/t5-,8?/m0/s1
