18
gdb 30926	1.98574	1.88604	1.03097	3.0249	75.93	-0.1791	0.0476	0.2266	1157.5273	0.146482	-439.095453	-439.085807	-439.084863	-439.130274	34.238	
C	-0.0400992774	 1.4487603584	 0.0963719251	-0.253288
O	 0.024153714	 0.0197375969	 0.0215680848	-0.281486
C	 0.6904745171	-0.5730568174	 1.0507524942	 0.187385
C	 2.0181918141	-0.9262306911	 1.136243212	 0.24457
O	 2.9878711004	-0.7054802342	 0.1982165801	-0.459544
C	 2.2070563149	-1.578974908	 2.3809378174	-0.257741
C	 0.9794570736	-1.6082924107	 3.0077953312	-0.10094
N	 0.0495775093	-1.0056099818	 2.1998817773	-0.038525
C	-1.3527397834	-0.8151551299	 2.4933516475	-0.342614
H	 0.9638082238	 1.8828648729	 0.1655547302	 0.128327
H	-0.5277381626	 1.7889486242	-0.8200819229	 0.129557
H	-0.6281221557	 1.7761807752	 0.962390027	 0.118099
H	 2.5444697858	-0.4500427801	-0.6185439375	 0.293944
H	 3.1315636266	-1.9889664553	 2.7546203505	 0.100754
H	 0.6896005068	-2.0182684058	 3.9620186151	 0.112711
H	-1.5394311452	 0.1193450997	 3.037605384	 0.129311
H	-1.9149809749	-0.7911906493	 1.5574363448	 0.150639
H	-1.7160285174	-1.6483974737	 3.0995548592	 0.138842
64.9616	98.8094	122.5228	144.2857	164.5161	265.5131	274.4384	298.5395	340.1335	430.8382	538.6364	577.2057	614.9048	646.0285	703.3023	743.1529	765.4002	782.0853	1014.3162	1025.7967	1078.6247	1106.736	1149.8334	1161.1674	1174.0336	1209.5829	1259.7287	1298.6797	1404.8995	1408.9146	1450.7378	1468.5891	1486.0257	1490.5068	1499.3008	1511.8807	1519.9748	1548.365	1653.9295	3013.3276	3019.3934	3081.0522	3095.4589	3126.5199	3136.7536	3252.0438	3270.2676	3806.2557
COC1=C(O)C=CN1C	COc1c(O)ccn1C	
InChI=1S/C6H9NO2/c1-7-4-3-5(8)6(7)9-2/h3-4,8H,1-2H3	InChI=1S/C6H9NO2/c1-7-4-3-5(8)6(7)9-2/h3-4,8H,1-2H3
