17
gdb 54357	2.04336	1.6049	1.27037	2.8654	68.96	-0.243	-0.0487	0.1944	1080.829	0.132233	-458.966158	-458.956677	-458.955733	-459.001445	32.717	
C	 0.1568236953	 1.5556143984	 0.0740269133	-0.49668
C	 0.0205365468	 0.0546442598	 0.1596132268	 0.355667
O	-0.0418077462	-0.5564916367	 1.1980762883	-0.295388
C	-0.0647811394	-0.6825625971	-1.1920662087	 0.226222
C	-0.7008217401	-2.0930702429	-1.137433916	-0.337636
C	-1.8473484716	-1.4546884175	-1.9447074316	-0.072692
O	-1.1579911245	-0.1770775857	-1.9976641726	-0.326374
C	 1.242157263	-0.621642368	-1.9677500869	 0.114026
O	 2.320028633	-0.4122331322	-1.4766404662	-0.241126
H	 1.167732023	 1.7973712616	-0.2729368486	 0.16526
H	-0.5504908715	 1.9596017621	-0.6557899871	 0.156436
H	-0.0041993464	 2.000191448	 1.0565008167	 0.143518
H	-0.145281763	-2.8756310872	-1.6566682718	 0.122868
H	-0.925190645	-2.4098049011	-0.1199550155	 0.15419
H	-2.010889319	-1.8591540412	-2.9486830386	 0.117197
H	-2.8089608431	-1.3713537211	-1.4271476828	 0.120508
H	 1.1044040888	-0.7999707793	-3.0581877889	 0.094006
50.9878	77.9325	94.0506	144.1132	161.6156	216.3282	280.8048	312.9877	404.913	460.4222	523.12	586.7583	681.0214	787.6892	849.4452	912.4143	927.7823	959.786	977.2212	1012.4146	1030.6881	1083.1918	1124.0414	1158.5458	1192.4215	1212.6459	1254.8068	1265.5599	1345.8773	1375.4294	1399.2368	1467.6621	1472.3237	1487.3491	1528.3278	1814.2972	1831.3799	2884.7219	3038.012	3046.3759	3083.4184	3092.1577	3116.098	3158.4428	3158.7649
CC(=O)C1(CCO1)C=O	CC(=O)[C@]1(CCO1)C=O	
InChI=1S/C6H8O3/c1-5(8)6(4-7)2-3-9-6/h4H,2-3H2,1H3	InChI=1S/C6H8O3/c1-5(8)6(4-7)2-3-9-6/h4H,2-3H2,1H3/t6-/m0/s1
