14
gdb 123974	3.86196	1.61007	1.14425	1.0188	68.71	-0.2271	-0.0148	0.2123	972.4902	0.104538	-432.872602	-432.865939	-432.864995	-432.904796	25.191	
C	 0.0266893131	 1.5242088541	-0.061095354	-0.284489
N	 1.3762400921	 2.0754704462	 0.1093481848	-0.255265
C	 2.3753413699	 1.3080752317	 0.2692594147	 0.090103
N	 2.3813997869	-0.0815391832	 0.3099570158	-0.422957
C	 1.1798515062	-0.7315591671	 0.1629664418	 0.461309
N	 0.9975400504	-2.0279997417	 0.1751914406	-0.263227
O	-0.3850939173	-2.1749739399	-0.0113003216	-0.177583
C	-0.9475570433	-0.9566455441	-0.123955155	-0.027473
C	-0.0143191434	 0.0201036365	-0.0234039348	 0.070239
H	-0.6100404655	 1.9593438784	 0.7207402043	 0.131021
H	-0.3711549159	 1.9094755325	-1.0094246711	 0.131022
H	 3.3650267527	 1.7459449047	 0.3932783064	 0.123907
H	 3.2347795679	-0.5976607108	 0.4427421783	 0.270429
H	-2.016729244	-0.9522581273	-0.2715413301	 0.152966
24.162	236.4026	330.7875	354.0737	416.6569	495.2957	538.2213	582.5695	626.5074	732.6398	750.4522	838.8735	889.7575	932.1339	940.6076	942.154	970.6053	1023.3292	1102.7293	1140.2318	1227.2563	1255.404	1283.3676	1336.9566	1406.7311	1430.3184	1484.1009	1492.6606	1577.6932	1684.1211	1742.2952	3009.1718	3023.9688	3142.3203	3261.0739	3661.4126
C1N=CNC2=NOC=C12	C1N=CNc2nocc12	
InChI=1S/C5H5N3O/c1-4-2-9-8-5(4)7-3-6-1/h2-3H,1H2,(H,6,7,8)	InChI=1S/C5H5N3O/c1-4-2-9-8-5(4)7-3-6-1/h2-3H,1H2,(H,6,7,8)
