18
gdb 108361	2.66414	1.64948	1.30194	1.4183	70.14	-0.2323	0.0444	0.2768	1015.2446	0.147776	-438.992154	-438.98439	-438.983446	-439.024356	30.391	
O	 0.171565869	 1.3171658508	 0.0547933732	-0.407723
C	-0.0196705893	-0.0865292664	 0.093039435	-0.169211
C	-1.4758019482	-0.4794296676	-0.0086065274	 0.405859
O	-1.666194162	-1.9188570768	 0.0472850143	-0.337738
C	-2.4357505255	-1.9030973997	-1.1873753802	-0.112345
C	-2.3838563668	-0.371248507	-1.242136802	-0.088715
N	-3.4087169252	 0.4584130043	-0.4874861665	-0.157159
C	-3.8461685254	-0.2728800051	 0.7209839665	-0.256963
C	-2.519592667	 0.3572917836	 0.7572432515	-0.068962
H	-0.1164691452	 1.635831	-0.8069489883	 0.291109
H	 0.5554978918	-0.6074398813	-0.6867665578	 0.098778
H	 0.3666535092	-0.4239385571	 1.0619270744	 0.126769
H	-1.8860280826	-2.3915707717	-2.0014723319	 0.108991
H	-3.4170615293	-2.3783039786	-1.081398225	 0.11313
H	-2.1157421351	 0.1145432634	-2.180136741	 0.086772
H	-4.6557603053	 0.2430657487	 1.228070587	 0.125269
H	-3.9275902709	-1.3542017853	 0.7242989859	 0.135123
H	-2.2782463924	 1.2341695457	 1.3475158224	 0.107015
92.9093	146.8169	239.455	257.2051	329.8424	342.45	426.3794	447.0799	566.1695	615.4681	689.1314	729.0168	768.9493	859.9258	896.1195	904.7112	938.4036	977.8093	1005.459	1056.8791	1058.4794	1073.9791	1084.8725	1106.6742	1117.8524	1136.9443	1159.5763	1164.6432	1213.1549	1248.3225	1285.3199	1301.211	1340.0392	1375.1897	1379.351	1412.6267	1495.806	1497.2466	1518.8381	2997.2703	3020.4863	3067.3047	3069.7766	3111.4467	3131.1161	3178.056	3216.5695	3813.6547
OCC12OCC1N1CC21	OC[C@]12OC[C@H]1N1C[C@@H]21	
InChI=1S/C6H9NO2/c8-3-6-4-1-7(4)5(6)2-9-6/h4-5,8H,1-3H2	InChI=1S/C6H9NO2/c8-3-6-4-1-7(4)5(6)2-9-6/h4-5,8H,1-3H2/t4-,5+,6+,7?/m0/s1
