16
gdb 91261	3.94706	1.22732	1.02873	4.0784	75.41	-0.2403	-0.0355	0.2049	1130.9916	0.125177	-437.868246	-437.86076	-437.859816	-437.900255	28.946	
O	 0.0824655803	 1.4164335963	-0.2553075035	-0.411931
C	 0.0526835621	 0.0340649282	-0.0540924922	 0.056463
C	-1.3800917288	-0.612257178	-0.1290890111	-0.280951
C	-0.7415406482	-1.8367157385	-0.8755903484	 0.064787
O	-1.2086533272	-2.3605110821	-2.1074487139	-0.261221
C	-0.403406003	-1.8554068068	-3.1272891069	 0.408418
N	-0.520885991	-2.1633334779	-4.3477694689	-0.543527
C	 0.5163848324	-0.8547358915	-2.5421835658	-0.278293
C	 0.3650416507	-0.8940323294	-1.2177767361	 0.149982
H	 0.9644241163	 1.7424532551	-0.0507884989	 0.294175
H	 0.5602412447	-0.2601329923	 0.8741700126	 0.090146
H	-1.887711249	-0.8094660135	 0.816954484	 0.115042
H	-2.0078325487	-0.0205420792	-0.7968954379	 0.141719
H	-0.5244614649	-2.6646734916	-0.1942966996	 0.102264
H	-1.2889232699	-2.8225433635	-4.4807171218	 0.224558
H	 1.0483114842	-0.1453621053	-3.1583399116	 0.128369
111.3262	154.5431	220.7469	228.5514	343.8326	408.2751	455.8876	520.8357	634.4734	679.1078	692.1271	708.7534	827.3476	851.5375	866.8253	891.2469	896.1589	952.3325	994.973	1015.569	1035.9597	1087.3741	1112.5812	1154.8923	1196.5493	1219.0574	1238.0108	1273.3631	1282.2978	1306.5206	1369.9407	1433.7857	1464.4998	1690.5098	1755.7127	3012.5714	3064.9881	3077.2968	3154.4047	3252.527	3483.4087	3825.4326
OC1CC2OC(=N)C=C12	O[C@H]1C[C@H]2OC(=C[C]12)[NH]	
InChI=1S/C6H7NO2/c7-6-1-3-4(8)2-5(3)9-6/h1,4-5,7-8H,2H2	InChI=1S/C6H7NO2/c7-6-1-3-4(8)2-5(3)9-6/h1,4-5,7-8H,2H2/t4-,5+/m0/s1
