21
gdb 74356	3.11703	0.90264	0.73583	2.9954	86.93	-0.2348	-0.0186	0.2162	1564.73	0.181419	-387.124157	-387.114625	-387.113681	-387.159534	34.556	
C	-0.0729629086	 1.5702725706	 0.204314592	-0.490223
C	 0.0223398282	 0.0836300126	 0.072111818	 0.325202
C	 0.0178074632	-0.6334384516	-1.0533937409	-0.166475
C	 0.0808878956	-2.12434254	-0.8021931735	-0.031169
C	 1.0510603715	-2.8888212944	-1.7274504225	-0.280822
C	 0.5570985457	-2.9316401288	-3.15393222	 0.160934
O	 1.1549803518	-2.5123463479	-4.1116885028	-0.243453
C	 0.4761071131	-2.1943858477	 0.6975743755	-0.232529
C	 0.0887301871	-0.8193938344	 1.2888884398	-0.299932
H	 0.7933664927	 1.9754663086	 0.7426583816	 0.125645
H	-0.1294475707	 2.0617183159	-0.7705602541	 0.125642
H	-0.9594491659	 1.8594743814	 0.7837043466	 0.125187
H	-0.0554962227	-0.2155436948	-2.0526777289	 0.096631
H	-0.9210231275	-2.5621197418	-0.9433453139	 0.07862
H	 2.0494296186	-2.4418872756	-1.7092056679	 0.11769
H	 1.1270995537	-3.9282852677	-1.3756725072	 0.114086
H	-0.4537746828	-3.392171487	-3.2702555465	 0.067686
H	 0.009628954	-3.035877195	 1.2169397773	 0.097227
H	 1.560976803	-2.3285273164	 0.7719438481	 0.104815
H	 0.8053393093	-0.4653054919	 2.0396063635	 0.101082
H	-0.8886716794	-0.8497613938	 1.7924771555	 0.104157
49.3644	71.3856	110.4501	166.2561	185.3104	201.3276	304.6828	362.116	396.7977	469.0957	526.86	591.796	620.2873	796.2747	832.8138	854.2877	889.8274	898.3928	953.1181	976.6351	1010.6458	1019.6005	1040.891	1058.2316	1103.0147	1118.1469	1173.5542	1190.454	1202.0736	1245.8372	1265.2214	1285.3941	1323.6002	1329.5374	1352.344	1375.8056	1415.099	1430.6928	1461.8394	1479.3258	1483.4223	1488.486	1499.8623	1722.7936	1833.4239	2840.9901	2962.2001	3001.2571	3009.0399	3016.7073	3038.7079	3052.8203	3061.5457	3094.1882	3097.3721	3112.168	3180.3771
CC1=CC(CC=O)CC1	CC1=C[C@@H](CC=O)CC1	
InChI=1S/C8H12O/c1-7-2-3-8(6-7)4-5-9/h5-6,8H,2-4H2,1H3	InChI=1S/C8H12O/c1-7-2-3-8(6-7)4-5-9/h5-6,8H,2-4H2,1H3/t8-/m1/s1
