19
gdb 41046	3.14585	2.08087	1.86692	0.1479	81.21	-0.2104	0.0753	0.2857	843.5424	0.161748	-348.63731	-348.631192	-348.630248	-348.667191	27.28	
C	-0.0005487883	 1.5236991969	-0.1573114044	-0.311789
C	 1.5329533859	 1.5820228058	 0.185887345	-0.335749
C	 1.4611780749	 0.1241460889	 0.6898560547	 0.270376
C	 0.9064301339	-0.4449656183	 2.0253989471	-0.167727
C	 0.8526282091	-1.7667573144	 1.2976985398	-0.054605
C	-0.3572093566	-0.8145889228	 1.2589508038	-0.135385
C	 0.0474632638	-0.0133644862	 0.0234906535	 0.252063
C	 0.650393329	-0.9729058983	-1.0457515027	-0.301173
C	 1.6867110223	-1.2974763669	 0.0626288441	-0.123991
H	-0.6203150314	 2.0142574225	 0.5978669869	 0.108396
H	-0.3001274232	 1.8952716814	-1.1407431888	 0.100067
H	 2.1675994147	 1.691564262	-0.6982426569	 0.110654
H	 1.8477017843	 2.3289120019	 0.9190981734	 0.104893
H	 1.0877485525	-0.2305262823	 3.0712071793	 0.08035
H	 0.7927697626	-2.7577258535	 1.7257567327	 0.085818
H	-1.3324130913	-1.1148033128	 1.6283277487	 0.07433
H	 0.0294940939	-1.7843408949	-1.4375564411	 0.091273
H	 1.0971272981	-0.4223116171	-1.8798619473	 0.096053
H	 2.6436059657	-1.7895358619	-0.1252775276	 0.056145
212.0017	296.6157	378.0395	454.9759	549.4006	590.8015	654.07	713.978	746.5312	790.9731	804.9902	805.7501	823.1289	846.0422	878.2441	892.0653	916.0785	946.495	974.3422	986.333	994.5273	1002.0516	1032.4796	1046.9572	1086.9891	1133.1389	1150.1593	1174.22	1190.7929	1217.6963	1219.9729	1238.6971	1245.7618	1261.6515	1277.322	1287.542	1311.4704	1334.6472	1464.5576	1475.6886	1489.0257	3042.0449	3053.4271	3057.8595	3084.1602	3096.5114	3098.14	3115.4734	3154.8271	3185.7852	3214.5793
C1CC23C4C5C4C12CC35	C1C[C@@]23[C@@H]4[C@H]5[C@@H]4[C@@]12C[C@@H]35	
InChI=1S/C9H10/c1-2-9-4-3-8(1,9)6-5(4)7(6)9/h4-7H,1-3H2	InChI=1S/C9H10/c1-2-9-4-3-8(1,9)6-5(4)7(6)9/h4-7H,1-3H2/t4-,5-,6+,7-,8+,9-/m1/s1
