19
gdb 80760	4.75703	0.8378	0.81325	4.3612	79.08	-0.2345	0.0213	0.2557	1467.239	0.158596	-419.14987	-419.14092	-419.139976	-419.185757	32.405	
C	-0.057417146	 1.5522426829	-0.0232769693	-0.427475
C	 0.0891728521	 0.0484943374	-0.0904365451	 0.019444
C	 0.6673068047	-0.728611585	-1.2081969046	-0.086815
C	 1.830321669	 0.0013265383	-1.8713163326	 0.11876
C	 2.4729056039	 0.064660369	-0.4660527487	-0.199685
N	 1.3380916192	-0.7046588259	 0.1622901581	-0.148039
O	 2.5291324381	-0.8551647655	-2.7616874004	-0.1911
C	 3.1207358792	-0.3005655509	-3.8384326155	 0.119369
N	 3.8392989306	-1.0060960197	-4.5975626532	-0.440104
H	 0.6955927522	 2.0949894031	-0.5985197797	 0.121922
H	-1.0389382011	 1.8414191163	-0.4130072593	 0.129554
H	 0.0016554761	 1.8955182228	 1.0149968752	 0.133003
H	-0.7309406494	-0.4697623734	 0.404441771	 0.104279
H	 0.2177298231	-1.6265885956	-1.61952771	 0.110025
H	 1.596838327	 0.9471958545	-2.3757281594	 0.082257
H	 3.3794518453	-0.5412474196	-0.4277088295	 0.135762
H	 2.6679013885	 1.0473915991	-0.026400769	 0.104003
H	 2.8946229066	 0.768636317	-3.9579274415	 0.084728
H	 4.187853991	-0.4410697948	-5.3689162363	 0.230111
9.5709	100.969	106.1493	158.8126	251.7822	272.7018	349.8878	384.3113	441.4938	535.2854	634.4142	710.3576	782.6172	791.5523	816.7222	876.6104	922.9996	941.9276	980.7598	1033.8115	1041.6392	1056.4298	1071.6574	1095.8714	1117.9087	1137.217	1164.2395	1203.291	1239.44	1258.7768	1285.3632	1296.1633	1337.1916	1397.919	1414.5755	1429.5415	1439.1466	1482.1269	1497.553	1503.5824	1746.0893	3009.5387	3022.2946	3041.361	3057.1201	3100.2482	3113.8612	3128.5385	3133.1681	3170.4725	3520.5617
CC1C2C(CN12)OC=N	C[C@H]1[C@H]2[C@@H](CN12)O[CH][NH]	
InChI=1S/C6H10N2O/c1-4-6-5(9-3-7)2-8(4)6/h3-7H,2H2,1H3	InChI=1S/C6H10N2O/c1-4-6-5(9-3-7)2-8(4)6/h3-7H,2H2,1H3/t4-,5+,6-,8?/m0/s1
