17
gdb 124153	5.83616	0.76363	0.68105	1.9459	91.02	-0.2133	0.0042	0.2175	1656.5399	0.135875	-380.876006	-380.86658	-380.865636	-380.913783	31.974	
C	 0.0553853623	 1.4205965492	 0.0598362599	-0.509131
C	 0.0331399233	-0.0330944945	 0.0288295878	 0.208756
C	 0.0257950887	-1.2386323265	 0.0034904265	-0.077836
C	-0.0231704696	-2.6550075158	-0.0274919195	 0.210053
N	 1.0937292818	-3.4008258404	 0.0005923245	-0.332378
N	 0.6614653201	-4.6706803111	-0.0493044722	 0.051117
C	 1.623099913	-5.7509530451	-0.0020066659	-0.317967
C	-0.6919988172	-4.7615167039	-0.1043200367	-0.033797
C	-1.1788383957	-3.4750866719	-0.0934997222	-0.328154
H	 1.0801047324	 1.7965410077	 0.1535307567	 0.152052
H	-0.3718146789	 1.8470090176	-0.8550527518	 0.147901
H	-0.5199131959	 1.8113526634	 0.9069501516	 0.147853
H	 2.1011366959	-5.7997989042	 0.980900722	 0.149344
H	 1.1084880492	-6.6926920432	-0.199791052	 0.137414
H	 2.3930240459	-5.5914508055	-0.7601081391	 0.15513
H	-1.1893050668	-5.7177313062	-0.1474091118	 0.130358
H	-2.2071545986	-3.1573216296	-0.1327629879	 0.109283
8.2695	27.565	86.622	95.8873	198.7061	284.2027	296.7006	374.5234	460.987	480.9296	548.6285	627.763	710.0785	727.736	770.3771	835.5071	944.4591	1018.4487	1044.2035	1051.7394	1052.6006	1087.6166	1100.3891	1151.3217	1243.0976	1334.6321	1363.9194	1411.7593	1437.6626	1454.655	1474.7254	1475.7519	1477.3109	1498.7484	1526.3921	1548.9899	2365.1662	3023.2877	3049.03	3080.688	3087.7468	3118.189	3147.5672	3255.638	3281.8621
CC#CC1=NN(C)C=C1	CC#Cc1nn(C)cc1	
InChI=1S/C7H8N2/c1-3-4-7-5-6-9(2)8-7/h5-6H,1-2H3	InChI=1S/C7H8N2/c1-3-4-7-5-6-9(2)8-7/h5-6H,1-2H3
