17
gdb 72297	2.73777	2.38238	1.62231	0.4529	77.59	-0.1972	-0.0334	0.1638	841.4614	0.136083	-384.561088	-384.554582	-384.553638	-384.591249	28.282	
O	-0.1023310901	 1.3191353711	 0.1453829112	-0.491068
C	 0.0940185435	-0.0530995381	-0.0332389257	 0.424776
C	 1.3348681003	-0.6804120639	 0.7147276361	-0.322165
C	 1.1910157374	-2.1165090702	 0.231848151	-0.126632
C	 0.3965978378	-2.079543421	-0.8599053001	 0.063955
C	-1.1202241461	-2.1527572721	-0.7994942691	-0.122666
C	-1.3032541385	-0.8856471836	-1.5748162639	-0.088567
C	-1.3078090204	-0.7639940807	-0.0624533614	-0.094411
C	 0.2346394287	-0.6671412305	-1.4622191383	-0.168597
H	 0.7474136525	 1.7590570866	 0.0271734501	 0.278224
H	 2.23330655	-0.1169412891	 0.4133064944	 0.093685
H	 1.2909431313	-0.6410500665	 1.8094515344	 0.111509
H	 1.16090285	-2.932462807	 0.9480173288	 0.093576
H	-1.8161216842	-2.9625736838	-0.6158704583	 0.094629
H	-2.0342877359	-0.587860171	-2.3116722732	 0.093132
H	-2.1455594002	-0.572616686	 0.597856556	 0.090132
H	 0.9059580438	-0.2664155743	-2.2191303519	 0.070488
261.1213	289.8978	359.0194	369.1529	382.3787	498.9289	534.3037	622.1528	655.0858	728.879	767.1648	780.4221	797.7411	819.9398	863.5553	869.2533	885.5942	943.8171	988.7947	1005.8619	1017.1721	1028.4227	1032.2224	1071.8101	1082.5279	1094.0097	1149.3836	1170.1727	1194.6392	1208.6603	1227.8296	1270.4319	1292.6066	1338.6884	1372.2016	1465.9527	1581.6302	2965.5605	3060.3554	3134.7664	3162.6837	3183.0812	3189.6302	3226.8996	3789.0988
OC12CC=C3C4C(C14)C23	O[C@@]12C[CH][C]3[C@@H]4[C@@H]([C@H]14)[C@@H]23	
InChI=1S/C8H8O/c9-8-2-1-3-4-5(6(3)8)7(4)8/h1,4-7,9H,2H2	InChI=1S/C8H8O/c9-8-2-1-3-4-5(6(3)8)7(4)8/h1,4-7,9H,2H2/t4-,5-,6+,7-,8-/m1/s1
