15
gdb 69881	2.77247	1.66159	1.20505	3.2437	70.38	-0.2513	-0.0128	0.2385	1000.9162	0.112271	-416.730191	-416.722572	-416.721628	-416.762063	29.767	
N	-0.1655595132	 1.4493040072	-0.201340621	-0.588143
C	-0.0676876264	 0.0485340032	-0.0555780812	 0.235525
C	-0.2734872909	-0.90748137	-1.1934504881	-0.308626
C	-1.1928946245	-0.9768525859	 0.0047346962	-0.131851
C	-0.4907653503	-1.665173908	 1.2073326543	-0.056179
O	 0.826444457	-2.0937937399	 0.8452314919	-0.269113
C	 0.6239025255	-0.7094449147	 1.1654660832	 0.25062
C	 1.3907353805	-0.0891039564	 2.1946367333	 0.198555
N	 1.9925512669	 0.4847818377	 2.9995267283	-0.340266
H	-0.4241087151	 1.9096613216	 0.6656432464	 0.243378
H	 0.7069702198	 1.8572797737	-0.5233587992	 0.244944
H	-0.7236217659	-0.4382588787	-2.0613847383	 0.132065
H	 0.4288992566	-1.7054529963	-1.395836921	 0.14301
H	-2.2593472509	-0.8098672015	-0.0511288348	 0.111011
H	-0.9572179489	-2.1493246321	 2.0562197699	 0.135073
125.9846	131.1049	248.3621	322.1666	323.9791	407.2867	446.8352	493.7528	530.0402	582.3755	588.8533	659.4655	764.263	801.5856	826.5379	860.7062	906.4712	913.9653	939.8971	997.7475	1018.9203	1039.3537	1099.4471	1112.4258	1182.6817	1231.7831	1252.0581	1291.4139	1389.4153	1416.5484	1481.7581	1662.7999	2346.5529	3150.134	3202.8644	3221.281	3244.6693	3494.6493	3570.9433
NC12CC1C1OC21C#N	N[C@]12C[C@H]1[C@H]1O[C@@]21C#N	
InChI=1S/C6H6N2O/c7-2-6-4(9-6)3-1-5(3,6)8/h3-4H,1,8H2	InChI=1S/C6H6N2O/c7-2-6-4(9-6)3-1-5(3,6)8/h3-4H,1,8H2/t3-,4+,5+,6+/m0/s1
