19
gdb 76121	3.13146	1.29451	1.09582	2.0937	81.71	-0.2447	0.0455	0.2901	1170.9154	0.15631	-385.829166	-385.819895	-385.818951	-385.862749	35.077	
C	-0.1701662475	 1.5594473141	 0.1331264554	-0.412938
C	-0.0158692327	 0.0535824672	 0.0002673547	-0.066039
C	 1.1369658997	-0.5197824893	-0.9426552537	-0.235777
C	 1.9781125693	 0.4023452657	-1.6771858236	 0.355697
C	 2.6681344436	 1.1720255386	-2.291769242	-0.468778
C	 1.7325142164	-1.1986829263	 0.3090674775	-0.056717
O	 1.9865379919	-0.1810109318	 1.2783162487	-0.278815
C	 0.6496820637	-0.700847588	 1.1728670925	 0.417169
C	 0.0048218293	-1.2505576313	 2.4030343474	-0.504922
H	 0.7670639414	 2.0095356444	 0.4681212324	 0.142972
H	-0.4405162308	 2.0115458113	-0.825848222	 0.122278
H	-0.9550529921	 1.8068637805	 0.856294288	 0.109437
H	-0.9651419145	-0.4166693552	-0.2756249486	 0.077539
H	 0.7170092369	-1.2701625203	-1.6205305241	 0.104146
H	 3.2861171789	 1.8495469806	-2.8269114452	 0.194816
H	 2.3386928261	-2.0968853509	 0.3548557917	 0.105416
H	-0.3370960705	-0.4414269578	 3.0582298973	 0.133889
H	-0.8649566767	-1.8633681331	 2.1447391139	 0.124429
H	 0.7137669876	-1.8645110786	 2.9647327796	 0.136198
91.4396	128.6318	183.6904	197.9335	207.9564	229.7284	292.4707	339.427	395.4954	509.1091	539.4172	611.2779	618.0235	634.8261	678.7984	724.0549	773.6987	851.4448	870.4278	920.372	977.2472	1013.3289	1028.723	1059.6848	1093.1443	1109.4403	1128.2439	1184.9243	1206.3685	1257.0772	1271.3249	1328.84	1353.7368	1404.7597	1406.49	1467.9516	1482.621	1490.6529	1496.3399	1501.8594	2233.7	3034.2551	3037.6587	3048.5385	3063.5362	3096.1567	3102.4787	3120.989	3131.5817	3178.0545	3504.3505
CC1C(C#C)C2OC12C	C[C@H]1[C@@H](C#C)[C@H]2O[C@@]12C	
InChI=1S/C8H10O/c1-4-6-5(2)8(3)7(6)9-8/h1,5-7H,2-3H3	InChI=1S/C8H10O/c1-4-6-5(2)8(3)7(6)9-8/h1,5-7H,2-3H3/t5-,6+,7+,8-/m0/s1
