17
gdb 20809	6.03533	1.21776	1.0954	2.936	71.77	-0.2468	0.0008	0.2476	1127.9045	0.141889	-363.880074	-363.871913	-363.870969	-363.913195	29.157	
C	 0.1219883559	 1.5390267253	-0.1739266196	-0.374578
C	-0.0612260538	 0.0295297538	 0.0612534601	-0.294907
C	 0.5728569485	-0.4461107401	 1.3251739466	 0.456121
C	 0.0887841725	-0.9864365988	 2.475120844	-0.428709
C	 1.2476966885	-1.1974539484	 3.2793219516	 0.395341
C	 1.3368122013	-1.7721978022	 4.6566947466	-0.493569
N	 2.3359008448	-0.8109578885	 2.6558162038	-0.203582
O	 1.9117907426	-0.3333924644	 1.4138610184	-0.219184
H	 1.1829158267	 1.7979282045	-0.2167053763	 0.141832
H	-0.3437677865	 1.8380715398	-1.1171613121	 0.11794
H	-0.3351800169	 2.1188916766	 0.6333117187	 0.125225
H	-1.1249957643	-0.2237897389	 0.0983652344	 0.1179
H	 0.3683047807	-0.525072363	-0.7820178352	 0.128421
H	-0.9380506569	-1.2057947151	 2.718007487	 0.110369
H	 0.9353012505	-2.7905510846	 4.6830173439	 0.136115
H	 2.3774414067	-1.7982435684	 4.9852764035	 0.149301
H	 0.7591457698	-1.1739923878	 5.3690446048	 0.135964
47.594	127.2153	137.6036	196.9097	256.1825	284.7804	380.3217	427.5827	583.7562	665.5833	704.8564	734.4692	787.5197	812.47	938.8727	959.4688	985.1512	1030.5045	1047.0871	1066.9436	1073.026	1091.0817	1158.3284	1258.8004	1320.1969	1349.6166	1404.8838	1409.7448	1452.0352	1475.5582	1482.7019	1483.0022	1496.6276	1505.7284	1536.5352	1646.9509	3036.0996	3041.8677	3045.8947	3086.0357	3097.3834	3117.3968	3129.0975	3139.2914	3269.2025
CCC1=CC(C)=NO1	CCc1cc(C)no1	
InChI=1S/C6H9NO/c1-3-6-4-5(2)7-8-6/h4H,3H2,1-2H3	InChI=1S/C6H9NO/c1-3-6-4-5(2)7-8-6/h4H,3H2,1-2H3
