21
gdb 38376	2.12052	2.0249	1.29654	2.3593	77.51	-0.2374	0.0689	0.3063	1049.193	0.185299	-424.20485	-424.19713	-424.196186	-424.236775	30.933	
C	-0.0931537823	 1.6348702314	-0.0634712256	-0.313044
C	 1.4476821175	 1.5583887284	-0.0270581827	 0.144551
C	 2.1445373996	 2.0665088102	 1.236473597	-0.231454
C	 2.0273145915	 1.1872964026	 2.4957754374	-0.184536
C	 0.6440802954	 0.6785211741	 2.9407966596	-0.079409
O	 0.3090234669	-0.5761311216	 2.3668587769	-0.23286
C	-0.5329350212	-0.6243504846	 1.2426226067	-0.098144
C	-0.0337877467	 0.094661691	-0.02037559	 0.119367
O	 1.4066115395	 0.1103830092	-0.1359655257	-0.289052
H	-0.5806115662	 2.1359768423	 0.7742433019	 0.104567
H	-0.4969132571	 2.0360125751	-0.9945229628	 0.106675
H	 1.9309669431	 1.9918124832	-0.9110897747	 0.074498
H	 3.2137255875	 2.1960859207	 1.029622486	 0.103226
H	 1.7543470629	 3.0744296816	 1.4362229587	 0.096568
H	 2.6476189878	 0.2944691781	 2.3708229316	 0.126339
H	 2.4609404352	 1.7558906114	 3.3278853934	 0.089369
H	 0.6848958933	 0.493508628	 4.0208966244	 0.104558
H	-0.149933644	 1.4214069138	 2.7785361701	 0.087777
H	-0.6355671093	-1.6937050617	 1.0293645455	 0.112505
H	-1.5429241097	-0.2372382069	 1.4715553472	 0.082815
H	-0.4992081437	-0.3915769364	-0.888413715	 0.075685
132.4217	162.0657	249.5957	276.8269	305.3313	336.2848	376.2193	444.9989	571.3625	647.1493	707.0986	770.3806	791.4728	840.6137	891.4304	902.8879	926.8445	943.1637	982.4308	1012.8306	1052.8496	1058.9058	1087.3513	1108.4567	1126.1696	1164.1786	1189.8099	1209.17	1256.3947	1263.1536	1274.749	1292.1512	1331.2219	1351.3817	1363.6214	1381.0958	1390.915	1403.5935	1411.3451	1421.4004	1468.5524	1482.7592	1484.1577	1490.5906	1511.1545	2941.4285	3001.406	3007.5418	3008.9129	3024.5185	3029.4666	3050.9652	3054.4532	3068.1901	3080.676	3091.5912	3131.0685
C1C2CCCOCC1O2	C1[C@H]2CCCOC[C@@H]1O2	
InChI=1S/C7H12O2/c1-2-6-4-7(9-6)5-8-3-1/h6-7H,1-5H2	InChI=1S/C7H12O2/c1-2-6-4-7(9-6)5-8-3-1/h6-7H,1-5H2/t6-,7-/m1/s1
