16
gdb 30806	2.43001	1.32687	0.90981	1.865	69.68	-0.2152	-0.0008	0.2144	1257.7912	0.123467	-475.06006	-475.051	-475.050056	-475.094429	32.102	
C	 0.093621451	 1.3786769042	 0.053398018	-0.488667
C	 0.0262604792	-0.1008876965	-0.0607774403	 0.386916
N	-0.0992888135	-0.8155315513	-1.1429428854	-0.383003
C	-0.1058176441	-2.1166040874	-0.6886135088	 0.243276
O	-0.2209241211	-3.1581620531	-1.5349433792	-0.43045
C	 0.0136404088	-2.1543255207	 0.6657160652	 0.186688
C	 0.0879316155	-3.2320075581	 1.6787982984	-0.183081
O	 1.3804135837	-3.405568345	 2.2572022092	-0.412213
O	 0.100933595	-0.8281339734	 1.0675800235	-0.2007
H	 1.0347160493	 1.6931516587	 0.5161060488	 0.150814
H	 0.0201716339	 1.8177748169	-0.9416098506	 0.155618
H	-0.7220579388	 1.7612076752	 0.6755221819	 0.149824
H	-0.3090210686	-2.7865433233	-2.4209401359	 0.307247
H	-0.5734684557	-3.0131841297	 2.52363135	 0.124027
H	-0.2727185875	-4.1564315706	 1.2048526442	 0.113886
H	 1.999066103	-3.5481041861	 1.5328530008	 0.279817
69.572	89.922	119.2926	210.1154	225.4451	276.6935	308.737	339.4943	361.5098	442.1849	531.0612	629.5562	653.3607	702.9472	741.8811	827.4215	926.6597	1008.2294	1029.7829	1043.6287	1064.7751	1119.9353	1172.6381	1234.343	1311.9354	1337.302	1379.0568	1409.1075	1412.0947	1440.2998	1474.9943	1480.3942	1485.9391	1608.6332	1724.3473	3006.9389	3045.7088	3074.9525	3100.4943	3158.6802	3806.9361	3808.6363
CC1=NC(O)=C(CO)O1	Cc1nc(O)c(CO)o1	
InChI=1S/C5H7NO3/c1-3-6-5(8)4(2-7)9-3/h7-8H,2H2,1H3	InChI=1S/C5H7NO3/c1-3-6-5(8)4(2-7)9-3/h7-8H,2H2,1H3
