19
gdb 121699	6.84968	0.61055	0.56649	4.1761	77.21	-0.2526	0.0011	0.2537	1956.7621	0.158177	-456.389674	-456.37931	-456.378366	-456.426687	35.147	
C	 0.2376766227	 1.4174460646	 0.0068248916	-0.383655
C	 0.0097602145	-0.0967329744	 0.000687032	-0.191584
C	-1.4697963077	-0.444753811	 0.0138662627	-0.036701
O	-1.5833843131	-1.8784395258	 0.0069795744	-0.28547
C	-2.8562237593	-2.3528915135	 0.0164673072	 0.537653
O	-3.8472710373	-1.6778619232	 0.029823	-0.358787
N	-2.7782215263	-3.7390637825	 0.0080692883	-0.374353
C	-3.8158265227	-4.6631326463	 0.0133480633	 0.084324
N	-5.0463901654	-4.363901428	 0.0272052106	-0.400663
H	 1.3058136167	 1.6511842818	-0.0026582937	 0.120272
H	-0.2152953715	 1.8926082712	-0.8699332084	 0.122264
H	-0.1974239782	 1.8827470617	 0.8978108701	 0.122259
H	 0.4726731298	-0.5456977386	-0.8857517328	 0.107419
H	 0.4906903798	-0.5555220602	 0.8723797043	 0.107418
H	-1.971589716	-0.0493719273	 0.903682786	 0.122301
H	-1.9896598132	-0.0394487991	-0.8609753274	 0.122336
H	-1.8408527207	-4.1073220114	-0.003013702	 0.261671
H	-3.4071309565	-5.681748623	 0.0036696632	 0.094863
H	-5.6037229857	-5.2166219951	 0.0280340307	 0.228433
35.7591	66.1782	80.0467	99.134	157.0786	207.2591	212.1954	230.3002	294.1435	335.9943	480.3758	570.9209	588.3612	760.0532	776.4917	815.5401	821.9883	892.8567	909.1518	975.9938	1012.1403	1055.5102	1061.8329	1147.4935	1152.9149	1191.3846	1209.9104	1264.6393	1271.2276	1313.1467	1335.9362	1411.6806	1420.4391	1432.53	1492.5781	1499.9133	1506.0558	1521.3748	1548.282	1739.7157	1861.9639	3033.0023	3034.6623	3035.4598	3045.7214	3064.2334	3089.1694	3106.2483	3112.7172	3500.0299	3649.7381
CCCOC(=O)NC=N	CCCOC(=O)NC=N	
InChI=1S/C5H10N2O2/c1-2-3-9-5(8)7-4-6/h4H,2-3H2,1H3,(H2,6,7,8)	InChI=1S/C5H10N2O2/c1-2-3-9-5(8)7-4-6/h4H,2-3H2,1H3,(H2,6,7,8)
