16
gdb 5102	3.39132	2.1029	1.31949	3.7868	67.28	-0.1845	0.0461	0.2306	904.5677	0.131122	-379.99001	-379.981892	-379.980948	-380.022261	29.338	
C	-0.0204664364	 1.431593799	 0.0268130952	-0.348417
N	-0.0000429984	-0.0126546144	 0.047153472	-0.14556
C	-0.0188201422	-0.7618420707	-1.1288112338	 0.451512
O	-0.0534460283	-0.3489490542	-2.2750792166	-0.448736
N	 0.0116162385	-2.0704419732	-0.6808244672	-0.358258
C	 0.0477204778	-2.1216111596	 0.7120024093	-0.183869
C	 0.0407794987	-0.8505681648	 1.1687843806	 0.297721
C	 0.068198785	-0.3279186709	 2.5621266683	-0.496653
H	 0.8773107141	 1.8541768416	 0.4910911643	 0.128387
H	-0.0536155188	 1.7288424607	-1.0229595841	 0.17204
H	-0.9024438097	 1.8295050003	 0.5404680925	 0.128375
H	 0.0077612077	-2.8481869849	-1.3153526511	 0.265974
H	 0.0748302423	-3.0508577037	 1.2541058712	 0.134675
H	 0.0994468757	-1.1602894993	 3.2691377589	 0.135465
H	 0.9458782275	 0.3031546532	 2.7481438879	 0.133663
H	-0.8183096633	 0.275283511	 2.7933171926	 0.133683
118.7845	145.7937	173.3139	199.5569	257.4302	262.5005	322.9677	444.5226	551.3725	589.2389	609.1956	673.6407	739.7806	754.6302	792.7727	966.336	1014.9955	1065.6035	1079.8681	1157.4999	1159.6306	1196.114	1295.1841	1344.1144	1390.8897	1415.3786	1427.3288	1464.0797	1473.5082	1498.5091	1499.1915	1512.9446	1689.14	1820.837	3020.1275	3027.9298	3065.7723	3081.887	3121.5786	3142.7236	3285.398	3703.7188
CN1C(=O)NC=C1C	Cn1c(=O)[nH]cc1C	
InChI=1S/C5H8N2O/c1-4-3-6-5(8)7(4)2/h3H,1-2H3,(H,6,8)	InChI=1S/C5H8N2O/c1-4-3-6-5(8)7(4)2/h3H,1-2H3,(H,6,8)
