15
gdb 67146	2.16259	1.86041	1.49522	2.4427	65.56	-0.2335	0.0008	0.2344	938.0921	0.110989	-457.710934	-457.702962	-457.702018	-457.7432	30.249	
O	-0.2227535006	 1.3722745303	 0.1768091765	-0.445857
C	-0.0526820574	 0.0318761558	 0.0189688645	 0.348492
C	-1.0286510148	-1.0946835723	-0.0443602761	-0.184956
C	-0.3713434653	-1.6963890982	-1.287917761	-0.239119
C	 0.8876212007	-0.8732218705	-0.8909406217	-0.25606
C	 1.3368483905	-1.5174390116	 0.4512096404	 0.36085
O	 2.3810722498	-1.9407680191	 0.8590022981	-0.340072
C	 0.0460203648	-1.0899638418	 1.0885622333	 0.178589
O	-0.2818362697	-0.9505905285	 2.4105113921	-0.453742
H	 0.4225526365	 1.7029004778	 0.813211024	 0.306258
H	-2.0689576208	-1.0876120313	 0.2589570712	 0.105371
H	-0.2494309123	-2.7847362353	-1.3280105981	 0.104948
H	-0.835050245	-1.3366096341	-2.2100215737	 0.116557
H	 1.6280459153	-0.5361205422	-1.6102738066	 0.099145
H	-0.7472778616	-1.740004409	 2.7084099071	 0.299596
111.2769	151.8786	231.405	243.4086	264.8331	315.6672	378.1678	436.0729	541.1306	589.7997	633.4909	681.137	709.8632	779.4003	801.6351	879.438	931.8865	945.7815	985.0556	1008.5582	1083.4957	1103.9688	1120.9373	1143.1563	1189.2294	1234.4206	1257.6474	1286.0749	1292.7739	1425.6532	1488.6046	1509.4224	1878.0552	3039.3698	3104.061	3170.9163	3191.7219	3782.7351	3796.2393
OC12C3CC1C(=O)C23O	O[C@@]12[C@H]3C[C@@H]1C(=O)[C@@]23O	
InChI=1S/C6H6O3/c7-4-2-1-3-5(2,8)6(3,4)9/h2-3,8-9H,1H2	InChI=1S/C6H6O3/c7-4-2-1-3-5(2,8)6(3,4)9/h2-3,8-9H,1H2/t2-,3-,5-,6-/m1/s1
