20
gdb 88176	2.3165	1.56897	1.19437	2.7851	75.1	-0.2428	0.0776	0.3204	1116.6584	0.171267	-440.250984	-440.242362	-440.241418	-440.284395	32.962	
C	-0.3814692959	 1.3310264148	 0.115570805	-0.325525
N	-0.0668583029	-0.0857924736	 0.2197568575	-0.129664
C	 1.2691146694	-0.5195760291	-0.1964732305	-0.311427
C	 0.8811230705	-0.5664225861	 1.2325213174	 0.257163
C	 1.4665508498	 0.3005248898	 2.3426471547	-0.147374
O	 1.170397874	-0.3668573459	 3.5686793688	-0.259075
C	 0.13133177	-1.3108653256	 3.3355960983	-0.108771
C	 0.4138083124	-1.856979437	 1.9273224262	 0.066168
O	-0.667284951	-2.4690057695	 1.2841505851	-0.442676
H	 0.4841423206	 1.99242702	 0.2741748381	 0.109711
H	-0.7789887936	 1.5281314726	-0.8845378381	 0.13224
H	-1.1527502055	 1.5922418478	 0.8466970155	 0.13234
H	 1.3098754483	-1.4347066374	-0.7825098882	 0.127271
H	 1.9704618519	 0.2549905604	-0.5061008241	 0.112934
H	 2.5547246383	 0.4004299076	 2.2681429569	 0.114037
H	 1.0341668902	 1.3116491167	 2.3404999738	 0.100541
H	 0.1798350217	-2.0633815703	 4.1256273468	 0.112884
H	-0.8662366155	-0.8411583321	 3.3521668751	 0.087251
H	 1.2458908143	-2.5717978099	 1.9788652328	 0.087761
H	-1.030960977	-1.778319423	 0.7015003788	 0.284211
52.5058	162.3949	186.6889	216.6629	241.9763	280.7324	380.5208	436.7791	469.5184	512.3945	551.0762	585.7474	619.965	742.9248	785.5671	867.068	927.6953	949.8539	998.1513	1046.9558	1065.4136	1083.7118	1105.3032	1130.49	1138.4623	1156.1093	1172.3303	1212.9613	1213.8967	1229.3407	1257.3739	1274.2325	1324.6629	1353.5891	1389.4486	1416.1761	1447.3915	1459.8127	1491.4782	1499.6593	1508.6794	1513.0588	1519.8294	2970.6584	2982.8729	3000.9871	3021.1324	3058.908	3074.6731	3086.2223	3106.745	3108.8922	3174.5427	3613.2527
CN1CC11COCC1O	CN1C[C@]21COC[C@H]2O	
InChI=1S/C6H11NO2/c1-7-3-6(7)4-9-2-5(6)8/h5,8H,2-4H2,1H3	InChI=1S/C6H11NO2/c1-7-3-6(7)4-9-2-5(6)8/h5,8H,2-4H2,1H3/t5-,6+,7?/m1/s1
