19
gdb 122321	4.18374	0.8487	0.78157	1.7813	72.32	-0.2393	0.067	0.3064	1478.2512	0.15778	-460.092154	-460.083224	-460.082279	-460.12694	32.837	
O	-0.0779448808	 1.3783393873	 0.2187417608	-0.419881
C	 0.0610914401	 0.0287355228	-0.1763490278	-0.062167
C	-1.2757373733	-0.6929354005	-0.1823587634	-0.096479
O	-2.1011648925	-0.0032278369	-1.1255571876	-0.30043
C	-3.3927052865	-0.465487395	-1.1963114802	 0.362124
C	-3.7896456975	-1.7561335186	-1.8861533694	-0.353332
C	-4.3626013369	-0.438392944	-2.3425030551	 0.014108
O	-5.4529115039	-0.0484322657	-1.5029702615	-0.282748
C	-4.5631981958	 0.051045171	-0.3559453905	-0.139774
H	-0.7682098896	 1.7490413378	-0.3432644907	 0.290479
H	 0.5171624615	-0.0559758102	-1.1756817414	 0.095327
H	 0.7338157166	-0.4512185156	 0.541872915	 0.111536
H	-1.1596894934	-1.7463774023	-0.474600892	 0.098625
H	-1.7304624535	-0.6525923682	 0.8172813658	 0.104946
H	-3.0144279022	-2.1542003691	-2.5344193805	 0.121132
H	-4.4313821648	-2.4911891714	-1.4076835423	 0.11722
H	-4.318266272	-0.0432871033	-3.3499730921	 0.11731
H	-4.9065232115	-0.549698923	 0.493647943	 0.107564
H	-4.434644774	 1.0970432351	-0.05519787	 0.114439
44.1289	63.4946	123.986	172.8556	282.1858	304.8483	372.8166	400.26	433.6204	456.5649	494.7968	696.5936	743.5523	846.7258	886.4271	906.221	920.9168	952.8351	985.1672	993.5253	1014.5318	1048.0753	1074.3977	1080.9301	1096.374	1109.2863	1133.3978	1155.6895	1219.9463	1237.5142	1259.9772	1286.1596	1301.0463	1381.2189	1391.6913	1418.4615	1438.6416	1480.6812	1498.5209	1505.7619	1514.4333	2982.1424	2996.3218	3027.4073	3044.1141	3081.3454	3082.4427	3112.1961	3193.1562	3210.2728	3799.8944
OCCOC12CC1OC2	OCCO[C@]12C[C@H]1OC2	
InChI=1S/C6H10O3/c7-1-2-9-6-3-5(6)8-4-6/h5,7H,1-4H2	InChI=1S/C6H10O3/c7-1-2-9-6-3-5(6)8-4-6/h5,7H,1-4H2/t5-,6+/m1/s1
