20
gdb 118800	2.26976	1.0409	0.81161	4.6559	80.59	-0.2801	0.0274	0.3075	1475.3707	0.16904	-403.157152	-403.147091	-403.146147	-403.192491	36.626	
C	 0.0112942366	 1.5924394814	-0.0576545562	-0.384366
C	 0.1864065393	 0.0718169401	-0.081109335	-0.18413
C	 0.5023884424	-0.5092844307	 1.3042574562	-0.234978
C	 0.6760767898	-2.0143605089	 1.290676905	 0.40639
O	-0.4688678687	-2.7457118072	 0.9443299463	-0.469011
C	 2.0022044452	-2.6330228881	 0.948947099	-0.33972
C	 1.4681366502	-2.7135628155	 2.3810728783	-0.230868
C	 2.103099793	-1.9678941674	 3.4289593611	 0.295824
N	 2.6153285535	-1.3597368248	 4.2698524719	-0.34795
H	 0.9214767882	 2.089031241	 0.295352948	 0.122336
H	-0.2168179544	 1.9811772059	-1.0546065387	 0.115393
H	-0.8052885644	 1.8854142703	 0.610767613	 0.122058
H	-0.7323499864	-0.3885967681	-0.4681573063	 0.091977
H	 0.9889245693	-0.197068097	-0.7805079334	 0.099427
H	 1.4109068995	-0.0436897268	 1.7015682808	 0.118568
H	-0.3080572867	-0.2630404744	 2.0013826057	 0.116458
H	-0.6253584169	-2.6241169601	 0.0014060539	 0.290484
H	 2.0008937018	-3.5635897137	 0.3937403818	 0.129618
H	 2.8513261993	-1.982648179	 0.773109051	 0.137447
H	 1.0636158094	-3.6726143971	 2.6843589979	 0.145045
75.7632	85.6365	100.2618	153.9851	198.238	246.8121	266.0598	306.9981	342.7223	368.7974	441.3649	449.1101	552.2892	618.836	736.2399	756.0219	814.9776	872.8725	888.6307	914.7118	938.3814	961.2869	1036.2113	1052.0925	1070.6425	1109.7629	1111.9131	1127.9399	1222.0919	1282.3482	1293.9047	1315.1258	1333.4463	1341.3522	1391.3597	1409.0923	1415.5361	1475.0777	1479.6551	1493.2124	1499.9287	1509.3931	2351.7284	3012.005	3033.05	3036.0946	3043.6336	3083.6339	3103.3598	3107.5897	3143.1291	3182.2055	3239.5596	3804.0372
CCCC1(O)CC1C#N	CCC[C@@]1(O)C[C@H]1C#N	
InChI=1S/C7H11NO/c1-2-3-7(9)4-6(7)5-8/h6,9H,2-4H2,1H3	InChI=1S/C7H11NO/c1-2-3-7(9)4-6(7)5-8/h6,9H,2-4H2,1H3/t6-,7+/m0/s1
