12
gdb 20334	6.03442	1.37003	1.2825	2.6169	60.84	-0.2904	-0.0308	0.2596	917.6343	0.084639	-373.643687	-373.63691	-373.635965	-373.675689	23.607	
C	-0.0102277516	-1.2205857283	 0.0764860055	-0.436151
C	 0.0165342683	-0.022171195	 0.0274450298	 0.327434
C	 0.0233944317	 1.4335254221	-0.0334710622	-0.29762
N	 1.3695182231	 2.0005762043	 0.0052624225	 0.159934
N	 2.1249973099	 2.0235887155	 1.0955879266	-0.237859
C	 3.2235101283	 2.6047943706	 0.6316663062	 0.082947
N	 3.1358315579	 2.9206944131	-0.6812061803	-0.204636
N	 1.9489110282	 2.527921182	-1.0676390716	-0.115072
H	-0.0282069029	-2.2819697361	 0.1202648059	 0.216389
H	-0.4199248902	 1.7914367366	-0.9663196716	 0.181243
H	-0.5389590622	 1.8597688786	 0.802661212	 0.172445
H	 4.0891171894	 2.8062473765	 1.2413136172	 0.150947
41.9753	101.722	254.1424	317.0569	339.563	467.0034	634.5054	685.5039	698.1422	726.9692	790.1012	904.5743	956.8926	968.7564	1026.7673	1045.5814	1151.6354	1166.0363	1254.8065	1319.1157	1344.8405	1381.0184	1392.708	1458.9141	1495.3653	2253.4623	3066.1443	3116.7055	3289.6259	3502.6459
C#CCN1N=CN=N1	C#CCn1ncnn1	
InChI=1S/C4H4N4/c1-2-3-8-6-4-5-7-8/h1,4H,3H2	InChI=1S/C4H4N4/c1-2-3-8-6-4-5-7-8/h1,4H,3H2
