25
gdb 121393	3.86354	0.77778	0.6835	1.2834	89.63	-0.2412	0.0865	0.3277	1753.1486	0.230514	-389.51257	-389.50288	-389.501936	-389.547485	36.807	
C	 0.0471449147	 1.6249912999	-0.0307561274	-0.379109
C	-0.018532239	 0.0949281736	-0.0144441327	-0.177335
C	 0.6628648681	-0.5139821963	 1.2185185995	-0.178458
C	 0.7178107354	-2.0487674936	 1.246422944	 0.016499
C	 1.6116435785	-2.5632851234	 2.3886505264	-0.209873
C	 1.5782081378	-4.0950945822	 2.4696695429	-0.212387
C	 0.1301211058	-4.584257092	 2.5208976939	-0.062661
O	-0.6229365339	-4.1008047652	 1.4223805248	-0.247394
C	-0.6743311492	-2.6852743321	 1.3829288006	-0.073108
H	 1.0851486502	 1.9760914975	-0.0264280863	 0.113309
H	-0.4406048257	 2.0371943489	-0.9196059	 0.111259
H	-0.4480637729	 2.051942577	 0.8485940677	 0.113572
H	-1.0683078939	-0.2190856185	-0.0602314743	 0.100585
H	 0.4570182912	-0.3019596541	-0.9211960603	 0.096108
H	 1.6910749244	-0.1303744555	 1.2755017039	 0.089547
H	 0.1606993598	-0.1527197471	 2.1280975949	 0.089702
H	 1.1422968185	-2.4020078449	 0.2952384218	 0.072985
H	 2.6386505184	-2.2032621446	 2.2572997762	 0.091192
H	 1.25251614	-2.1413213155	 3.3389816616	 0.090678
H	 2.065180549	-4.5259014232	 1.5861613073	 0.101734
H	 2.1235985342	-4.4541046357	 3.3503207605	 0.090888
H	 0.0735935856	-5.6758635052	 2.4725949653	 0.102059
H	-0.3384156831	-4.2635067956	 3.4688542546	 0.079485
H	-1.1625790368	-2.2975788303	 2.2966886671	 0.076999
H	-1.3138418075	-2.435532442	 0.5322219777	 0.103725
66.5884	80.7905	119.184	190.0233	237.3166	249.1088	291.8392	333.2223	362.1342	438.1989	454.822	493.1106	597.4644	740.5781	811.6124	852.6487	863.5216	880.6885	896.5333	931.262	965.6372	988.3893	1024.9721	1044.1485	1056.8325	1084.481	1120.3498	1121.7795	1161.6921	1187.4747	1203.0544	1237.533	1258.2751	1297.7871	1303.9813	1324.6815	1333.7038	1343.2916	1356.1847	1375.3577	1379.9416	1400.4085	1402.7742	1411.7234	1421.23	1477.2494	1481.4116	1488.8943	1490.3731	1494.3644	1499.7742	1504.7201	1510.6097	2932.7502	2947.1267	2995.6191	2997.1654	3008.2569	3021.0562	3026.5193	3028.4995	3029.1121	3055.304	3060.0692	3071.9754	3080.3964	3088.2964	3096.3659	3101.5827
CCCC1CCCOC1	CCC[C@H]1CCCOC1	
InChI=1S/C8H16O/c1-2-4-8-5-3-6-9-7-8/h8H,2-7H2,1H3	InChI=1S/C8H16O/c1-2-4-8-5-3-6-9-7-8/h8H,2-7H2,1H3/t8-/m0/s1
