17
gdb 133063	3.13884	1.12705	0.88916	3.5134	77.56	-0.255	-0.0267	0.2283	1288.8003	0.136805	-426.049873	-426.041884	-426.04094	-426.083675	29.689	
C	-0.0574717566	 1.5591064194	 0.0344730501	-0.368434
C	 0.0143442465	 0.0215646372	 0.0096769542	-0.291925
C	 0.7146950012	-0.5000259393	-1.2216418793	 0.334222
C	 0.0196105539	-0.7269408496	-2.4168266625	-0.204062
C	 0.71490577	-1.1724282592	-3.5307851272	 0.006832
N	 2.034839389	-1.4053765467	-3.5386041992	-0.323094
C	 2.6663017087	-1.1872786728	-2.4089090229	 0.35736
F	 3.9773385613	-1.4215080352	-2.4144730275	-0.075007
C	 2.085605476	-0.7421381007	-1.224929818	-0.356414
H	 0.9448026739	 1.9979899136	 0.02085815	 0.126999
H	-0.6004060329	 1.9413595537	-0.8354029691	 0.125876
H	-0.5703694198	 1.9069523106	 0.9360492289	 0.120328
H	 0.537713842	-0.3322189543	 0.9045192779	 0.111597
H	-1.0002596014	-0.3896816001	 0.0515052488	 0.111869
H	-1.0510767765	-0.5624202908	-2.473296707	 0.097266
H	 0.196091145	-1.3588820643	-4.467417301	 0.116818
H	 2.6975223696	-0.5986072714	-0.3418891562	 0.10977
24.5151	130.9756	212.8877	226.2228	308.5544	318.2237	465.6134	477.0772	525.8915	572.2883	671.3891	759.2521	767.8012	791.57	859.5593	894.9367	932.9874	985.0099	998.8899	1008.269	1075.2677	1083.6575	1138.0154	1177.8323	1263.0453	1313.6959	1323.7218	1334.3951	1351.1427	1407.3185	1451.1447	1487.269	1495.6505	1508.1739	1516.7484	1610.7961	1645.7991	3038.0825	3039.8768	3076.2428	3113.6853	3115.5753	3162.2271	3190.8866	3198.1895
CCC1=CC=NC(F)=C1	CCc1ccnc(F)c1	
InChI=1S/C7H8FN/c1-2-6-3-4-9-7(8)5-6/h3-5H,2H2,1H3	InChI=1S/C7H8FN/c1-2-6-3-4-9-7(8)5-6/h3-5H,2H2,1H3
