21
gdb 116787	2.95978	0.81056	0.7237	4.0087	82.54	-0.2364	0.0243	0.2607	1650.0693	0.1808	-420.368925	-420.358364	-420.357419	-420.406112	36.506	
C	 0.9985986029	 1.1529937372	-0.6755185988	-0.25006
O	 0.1365883516	 0.0251769168	-0.7283817162	-0.195935
C	 0.7391521858	-1.1530677375	-1.0064434202	 0.141617
N	 0.0566946249	-2.2066137936	-1.0650261796	-0.239436
C	 0.687371402	-3.4784029388	-1.3746815029	-0.136221
C	 2.2012563131	-3.5274406663	-1.4690125956	-0.05281
N	 2.7595222815	-4.6480106387	-2.2460384491	-0.346063
C	 2.9831611991	-3.2705438301	-2.7150073234	 0.013059
C	 2.3765474813	-2.8832499309	-4.0426553458	-0.390683
H	 1.7454977801	 1.0546453464	 0.1224345187	 0.123189
H	 1.5135412413	 1.3144127997	-1.6310398053	 0.123312
H	 0.3652566798	 2.015501037	-0.4641269224	 0.145249
H	 1.8224431896	-1.0727204975	-1.1666438972	 0.075105
H	 0.3678317283	-4.1960367946	-0.6067685794	 0.113206
H	 0.2564196357	-3.8553275026	-2.3088970346	 0.121569
H	 2.7107058657	-3.2756009223	-0.5380457223	 0.080867
H	 3.5924548898	-5.0162477696	-1.7954769257	 0.230275
H	 3.9806185485	-2.8609212658	-2.5514364231	 0.077129
H	 1.3855146547	-3.3223539814	-4.1726793991	 0.133444
H	 2.2873700567	-1.7948847945	-4.1293741696	 0.112239
H	 3.0063564276	-3.2357881227	-4.8664837086	 0.120945
36.1291	51.4997	101.0457	115.8239	152.077	167.6266	224.8747	268.0472	306.6329	352.2231	416.2038	454.5921	519.3774	632.9934	758.9522	809.8365	922.6189	948.8723	971.5185	1000.3877	1026.873	1032.7639	1041.5483	1073.3453	1099.6213	1158.8884	1176.7924	1177.7856	1195.5548	1248.7817	1265.0841	1274.1138	1293.0737	1349.3474	1401.5661	1411.8165	1429.4959	1465.3884	1477.1067	1485.9663	1491.9862	1494.4744	1501.7257	1505.0193	1778.6202	3006.1805	3019.1319	3032.7496	3037.1512	3061.0135	3068.9037	3088.8536	3095.6664	3100.3549	3135.1016	3141.6218	3507.1349
COC=NCC1NC1C	COC=NC[C@H]1N[C@H]1C	
InChI=1S/C6H12N2O/c1-5-6(8-5)3-7-4-9-2/h4-6,8H,3H2,1-2H3	InChI=1S/C6H12N2O/c1-5-6(8-5)3-7-4-9-2/h4-6,8H,3H2,1-2H3/t5-,6+/m0/s1
