17
gdb 126826	2.88974	1.52549	1.08179	0.1609	80.12	-0.2198	-0.072	0.1479	1110.6177	0.138036	-414.195325	-414.187332	-414.186388	-414.228218	29.849	
C	 0.2180303353	 1.3859239698	-0.1467236692	-0.38497
C	-0.0641966134	-0.0954867394	 0.1078108275	-0.126682
N	-1.4937632727	-0.4095741437	 0.0526637553	-0.028596
N	-2.1353310392	-0.4473781576	 1.2277963077	-0.191274
C	-3.405912303	-0.7135202307	 1.2143061991	 0.062351
N	-4.1659909388	-0.9714493906	 0.0955312147	-0.242191
C	-3.5393088828	-0.9260718777	-1.0313667872	-0.027437
C	-2.1184432592	-0.6108531452	-1.1815094194	 0.351074
N	-1.4418653975	-0.5107849168	-2.2693652751	-0.565209
H	 1.2942433099	 1.5717041613	-0.0813609124	 0.122069
H	-0.1214582946	 1.6722898852	-1.1441971754	 0.151365
H	-0.2845978868	 2.0096124937	 0.5983290224	 0.12676
H	 0.4252483925	-0.7100748568	-0.6511026017	 0.146179
H	 0.2714628136	-0.3982800425	 1.100900541	 0.125881
H	-3.9065053191	-0.7416680808	 2.1736731859	 0.136213
H	-4.0967026895	-1.1284394983	-1.9463372848	 0.128308
H	-2.0390066847	-0.7064693499	-3.0712799185	 0.216158
80.7166	98.5453	165.1705	227.6359	331.5739	361.2864	435.0288	471.1461	550.8998	567.5033	639.9573	738.7772	752.8039	779.5832	796.6533	874.5342	894.0532	965.6741	982.0974	1050.7824	1096.5249	1105.8304	1137.126	1228.7722	1247.6334	1350.9841	1378.9285	1389.1533	1390.8249	1405.1595	1426.1396	1462.9155	1491.4523	1507.3227	1537.9536	1623.6949	1680.025	3047.3431	3078.3125	3116.804	3130.3543	3130.8475	3148.7277	3220.6641	3492.926
CCN1N=CN=CC1=N	CCn1ncncc1[NH]	
InChI=1S/C5H8N4/c1-2-9-5(6)3-7-4-8-9/h3-4,6H,2H2,1H3	InChI=1S/C5H13N4/c1-2-9-5(6)3-7-4-8-9/h5-8H,2-4H2,1H3
