13
gdb 45606	3.69284	1.28126	0.95123	6.1779	79.84	-0.2233	-0.088	0.1353	1136.7077	0.088658	-415.607046	-415.598965	-415.598021	-415.639857	29.614	
N	-0.0749954585	 1.2982772477	 0.0119692274	-0.482414
C	 0.0119558955	 0.0358033284	 0.0038696531	 0.326854
N	 1.1322397135	-0.797100578	-0.0080025025	-0.355042
C	 0.7504780776	-2.1229369366	-0.0134643132	-0.106433
C	-0.6013133247	-2.2881862767	-0.0061290819	 0.006008
C	-1.3165482252	-3.5006641298	-0.0088172838	 0.240543
C	-1.9561730921	-4.5211796404	-0.0108756165	-0.419426
C	-1.1972817858	-0.9294371545	 0.005372339	 0.234195
O	-2.3521210306	-0.5922625135	 0.0146193916	-0.283932
H	 0.8430057883	 1.7503780804	 0.0090797705	 0.222489
H	 2.0860186336	-0.4793686115	-0.0118672803	 0.268141
H	 1.5067088742	-2.8957396174	-0.0226215734	 0.156343
H	-2.5221852059	-5.419306138	-0.01270706	 0.192676
77.372	131.2473	155.0929	239.1326	321.683	371.8253	421.5122	483.4891	497.7698	541.5088	573.1178	616.2695	656.2135	698.6789	780.721	824.0015	898.7687	925.1838	941.9891	1040.4843	1139.0657	1202.6799	1297.8499	1347.3512	1431.1571	1636.5567	1755.695	1825.3906	2232.2026	3237.4533	3440.267	3504.0002	3670.5227
N=C1NC=C(C#C)C1=O	[NH][C]1NC=C(C#C)C1=O	
InChI=1S/C6H4N2O/c1-2-4-3-8-6(7)5(4)9/h1,3H,(H2,7,8,9)	InChI=1S/C6H4N2O/c1-2-4-3-8-6(7)5(4)9/h1,3H,(H2,7,8,9)
