17
gdb 69073	2.56502	1.64665	1.24188	1.4568	80.5	-0.2243	0.0059	0.2301	1037.2698	0.134674	-384.651405	-384.643197	-384.642253	-384.683649	32.62	
O	 0.036747753	 1.3913108316	-0.236050217	-0.454697
C	 0.0088855902	 0.0177433673	-0.063722648	 0.352162
C	-0.3954758742	-0.8072851833	-1.2425377698	-0.343392
C	-1.3056012372	-0.8131816877	-0.0141550772	 0.062106
C	-1.0796965768	-1.9258343336	 1.0186414581	-0.340852
C	 0.3402992917	-1.7062722465	 1.4944741973	-0.075466
C	 0.9109631155	-0.6425748732	 0.9270441317	-0.161262
C	-2.5790948741	-0.1736502186	-0.0907274798	 0.2013
C	-3.6539648572	 0.3682351599	-0.1181719474	-0.411649
H	-0.2785733813	 1.8035287242	 0.5767854085	 0.28802
H	-0.7810399037	-0.2588990408	-2.0945354899	 0.133847
H	 0.1681212773	-1.7055591321	-1.473679105	 0.115826
H	-1.8006708726	-1.8508110348	 1.8414925487	 0.121527
H	-1.213334627	-2.9216060337	 0.5773126063	 0.119428
H	 0.823584265	-2.3788887189	 2.1937616487	 0.101993
H	 1.9165752242	-0.2790956387	 1.104464289	 0.105135
H	-4.6042030828	 0.8393108292	-0.1611574342	 0.185974
109.5409	140.4493	236.9268	271.8538	312.4038	363.3733	415.1967	483.1863	498.448	538.7523	561.737	595.4594	648.3936	674.7166	720.2877	749.8125	775.8824	907.6349	920.9013	951.3753	959.9252	972.949	989.0006	1073.0709	1080.8383	1139.0273	1174.512	1221.1244	1259.9158	1276.2665	1344.528	1381.6784	1388.4029	1462.1848	1477.2773	1669.8353	2230.2792	3027.6865	3058.8837	3127.7191	3189.7423	3213.7038	3228.127	3504.1742	3787.8667
OC12CC1(CC=C2)C#C	O[C@]12C[C@]1(CC=C2)C#C	
InChI=1S/C8H8O/c1-2-7-4-3-5-8(7,9)6-7/h1,3,5,9H,4,6H2	InChI=1S/C8H8O/c1-2-7-4-3-5-8(7,9)6-7/h1,3,5,9H,4,6H2/t7-,8-/m1/s1
