19
gdb 89598	4.76126	0.96414	0.89145	1.2564	80.93	-0.2334	0.0491	0.2824	1346.2258	0.156949	-385.820684	-385.811687	-385.810742	-385.854435	34.247	
C	-0.4455840348	 1.3047398269	 0.6933453166	-0.40736
C	 0.0907475663	-0.1062663313	 0.5748512524	 0.146754
O	 0.3770797967	-0.5082634239	-0.8041231449	-0.348227
C	 1.6788040193	-0.9626338498	-0.4132213478	 0.482809
C	 2.1326635162	-2.2631997962	-1.0260789994	-0.468376
C	 3.3948029575	-2.7487358497	-0.4832034886	 0.299257
C	 4.4331292268	-3.1402815414	-0.0220667078	-0.446298
C	 2.5153357794	 0.1868377967	 0.0430765195	-0.341163
C	 1.5191228354	-0.4532154576	 0.9985165453	-0.195117
H	 0.2724361661	 2.0405724327	 0.3223409825	 0.122782
H	-1.3708648339	 1.407194808	 0.1174571002	 0.128079
H	-0.6697833759	 1.5337000012	 1.7407854947	 0.118465
H	-0.623871381	-0.8216330822	 1.0028598945	 0.081884
H	 1.3462681471	-3.0143775759	-0.8785476902	 0.140615
H	 2.2225654704	-2.124241168	-2.112645635	 0.14406
H	 5.3507456983	-3.496026275	 0.3765021228	 0.198559
H	 3.5491713931	-0.0531126659	 0.2680425906	 0.128905
H	 2.3461350291	 1.1749377446	-0.3746796501	 0.111318
H	 1.8132265637	-0.892970383	 1.9418005048	 0.103054
56.7188	111.4478	163.6327	216.3774	234.562	319.3995	344.7977	354.0954	446.6719	489.6513	551.5354	622.172	647.1831	679.3651	700.3518	821.2351	848.314	866.6293	954.8446	965.3137	976.1697	991.4975	1021.2987	1027.0765	1061.2013	1085.7526	1110.74	1143.3067	1159.2604	1229.326	1275.4597	1301.1402	1350.5816	1384.3134	1393.7139	1413.9264	1470.4936	1484.1561	1490.3211	1495.1142	2242.0112	3012.1253	3015.3899	3038.5581	3046.0777	3106.6024	3120.3108	3124.0251	3204.0456	3218.097	3506.2921
CC1OC2(CC#C)CC12	C[C@H]1O[C@@]2(CC#C)C[C@@H]12	
InChI=1S/C8H10O/c1-3-4-8-5-7(8)6(2)9-8/h1,6-7H,4-5H2,2H3	InChI=1S/C8H10O/c1-3-4-8-5-7(8)6(2)9-8/h1,6-7H,4-5H2,2H3/t6-,7+,8+/m1/s1
