13
gdb 131663	3.82181	1.13918	0.91109	3.4469	64.26	-0.2825	-0.1127	0.1698	1183.562	0.087709	-489.850941	-489.843093	-489.842149	-489.883996	28.053	
O	 0.0694436695	 1.391530551	 0.1470445585	-0.401158
C	 0.0543526167	 0.004469623	-0.1061441424	-0.143881
C	-1.3521977029	-0.538227124	-0.1370011671	 0.369758
C	-1.8979799706	-1.2940370574	-1.1036240864	-0.342102
C	-3.2724916392	-1.7506790134	-0.9786656371	 0.495794
O	-3.8841309533	-2.4296900097	-1.7531641155	-0.320802
O	-3.907267657	-1.3254009642	 0.1860535546	-0.259586
N	-3.2708570868	-0.5150326326	 1.1681539998	 0.06947
N	-2.0982731645	-0.1698523904	 0.9927279808	-0.181106
H	-0.3723854525	 1.534765551	 0.992748411	 0.304485
H	 0.5351031288	-0.1547930272	-1.0746598252	 0.134935
H	 0.6289626054	-0.5572172294	 0.6486254646	 0.123146
H	-1.3557801636	-1.5889503966	-1.9941631556	 0.151046
66.347	131.4301	139.8705	234.6388	324.5172	384.4611	412.0296	423.7814	524.3616	565.4301	698.6486	747.5048	760.4531	785.1928	876.3857	916.998	973.0291	1013.164	1079.3659	1165.831	1207.2502	1208.8755	1344.8092	1374.431	1428.0532	1491.0015	1587.9184	1687.2641	1859.6722	2975.1501	3102.5897	3213.7976	3795.563
OCC1=CC(=O)ON=N1	OCC1=N[N]OC(=O)[CH]1	
InChI=1S/C4H4N2O3/c7-2-3-1-4(8)9-6-5-3/h1,7H,2H2	InChI=1S/C4H4N2O3/c7-2-3-1-4(8)9-6-5-3/h1,7H,2H2
