12
gdb 130232	3.14404	1.54784	1.03911	4.2504	61.65	-0.2506	-0.0736	0.177	1035.3978	0.07696	-505.93341	-505.925753	-505.924809	-505.966377	27.785	
N	 0.0635724834	 1.3687514485	 0.0750381343	-0.550683
C	-0.059069694	 0.0090124748	-0.0085207228	 0.513101
N	-1.1914606869	-0.5389363262	-0.2485579929	-0.224733
O	-1.1654986354	-1.9377359225	-0.4828163722	-0.266932
C	-0.0547032121	-2.6888689964	-0.2467326891	 0.292187
N	-0.0493656516	-3.9464110004	-0.359608703	-0.467478
C	 1.2214609215	-1.9865754139	 0.13395729	 0.379006
O	 2.2556600574	-2.5100993987	 0.3861140707	-0.258466
O	 1.1433524354	-0.6058968833	 0.1577457995	-0.220578
H	 0.7605397004	 1.6972173404	 0.7275196669	 0.277306
H	-0.8168574839	 1.861010063	 0.1080724263	 0.282119
H	-0.9757026843	-4.2857327854	-0.6294710775	 0.245151
49.1113	87.2727	247.3211	326.2884	356.1336	398.4149	429.9216	477.1693	516.5719	580.6279	591.8145	682.7359	693.9087	788.161	819.9385	909.9221	930.6648	1030.8918	1065.6742	1133.8522	1191.4238	1338.7776	1413.0218	1621.1227	1715.4714	1743.5039	1905.9856	3470.5255	3575.6162	3689.7795
NC1=NOC(=N)C(=O)O1	NC1=NO[C]([NH])C(=O)O1	
InChI=1S/C3H3N3O3/c4-1-2(7)8-3(5)6-9-1/h4H,(H2,5,6)	InChI=1S/C3H3N3O3/c4-1-2(7)8-3(5)6-9-1/h4H,(H2,5,6)
