16
gdb 132531	3.13942	1.37787	0.96903	1.6864	74.93	-0.2575	-0.0333	0.2243	1176.6619	0.123701	-442.112859	-442.104421	-442.103477	-442.146779	30.054	
C	-0.0137694897	 1.4948565846	 0.0242604378	-0.460711
C	 0.0000407708	-0.006205062	-0.0119588345	 0.349375
N	-0.1233184574	-0.611384693	-1.1929964913	-0.287432
C	-0.1064952	-1.9498994786	-1.1841507469	-0.048759
C	 0.0295111808	-2.7183939265	-0.0359789683	 0.091769
C	 0.0494865058	-4.218919275	-0.0158095777	-0.502841
C	 0.1485012719	-1.9466325634	 1.1231388779	 0.289772
F	 0.2843189842	-2.5799578535	 2.2846056961	-0.061314
N	 0.13789871	-0.6405860647	 1.1673886506	-0.334604
H	 0.9151534745	 1.8716314543	 0.4640500577	 0.143146
H	-0.1304661916	 1.8952200394	-0.9826131184	 0.139258
H	-0.8319919875	 1.850856731	 0.6583305829	 0.143143
H	-0.2075634975	-2.4396000718	-2.1513543809	 0.117063
H	 0.9854314908	-4.5993364904	 0.4064225217	 0.145749
H	-0.7626649211	-4.6200134015	 0.5994352402	 0.145749
H	-0.0573820742	-4.6205653891	-1.0266892969	 0.130636
44.2931	104.7045	124.0107	223.9641	261.2486	311.3519	325.8614	458.0454	485.8506	542.2457	571.0889	670.1003	757.208	779.7172	801.3453	953.2482	969.2058	1021.1165	1044.3953	1065.1668	1071.397	1199.4241	1267.459	1302.0421	1336.154	1392.4176	1416.4155	1441.2854	1468.0885	1475.9155	1478.1485	1479.3496	1501.0008	1593.3146	1650.7846	3038.6078	3047.9947	3095.1985	3104.5588	3120.2702	3145.0293	3159.3636
CC1=NC=C(C)C(F)=N1	Cc1ncc(C)c(F)n1	
InChI=1S/C6H7FN2/c1-4-3-8-5(2)9-6(4)7/h3H,1-2H3	InChI=1S/C6H7FN2/c1-4-3-8-5(2)9-6(4)7/h3H,1-2H3
