19
gdb 90523	4.56312	1.02339	0.94028	3.3454	80.46	-0.2464	0.0146	0.261	1277.3159	0.160504	-382.048237	-382.039906	-382.038962	-382.081274	31.731	
C	 0.2649150257	 1.6397301441	-0.0905626686	-0.410645
C	 0.0656815097	 0.1353746927	-0.0265977142	 0.05592
C	 0.9812161563	-0.793754018	-0.8928592093	-0.272613
C	 1.2028311288	-1.7232172361	 0.3357170594	-0.036862
C	 2.5191722656	-1.4445757603	 1.1137184105	-0.113645
N	 1.8929904891	-0.2263673836	 1.6923054097	-0.321455
C	 0.5348463912	-0.6371850369	 1.233746697	-0.012505
C	 2.847009245	-2.4802768821	 2.0957175014	 0.258502
N	 3.0942381673	-3.2806096452	 2.8934238981	-0.323309
H	 1.2909145699	 1.8985468157	 0.1859136255	 0.131925
H	 0.0707250684	 2.0188725138	-1.0996644298	 0.113593
H	-0.4125049278	 2.1605670817	 0.5956099169	 0.11166
H	-0.9838365963	-0.1198292476	-0.2146877492	 0.074368
H	 0.4968973438	-1.2644979817	-1.7506136415	 0.106752
H	 1.8995323816	-0.3101306518	-1.2387340197	 0.107776
H	 0.8683580068	-2.7552105449	 0.2632229719	 0.097435
H	 3.409652282	-1.2405096528	 0.5069823378	 0.120334
H	 2.0073347652	-0.1241430592	 2.693224435	 0.238085
H	-0.1854761523	-0.8485448378	 2.027704809	 0.074683
76.4449	131.3254	164.5344	209.0571	266.5223	332.3489	344.6396	459.5701	506.7508	561.1278	668.5965	689.8911	776.5546	812.0765	867.0683	871.9722	896.7559	940.286	960.7758	1007.8296	1009.0164	1060.4141	1080.9207	1106.9342	1127.1345	1152.0357	1192.7341	1210.9582	1226.094	1266.8408	1280.8679	1286.0364	1328.7135	1329.4655	1358.0481	1403.0959	1405.1425	1482.8486	1489.4006	1503.173	2344.6647	3029.6401	3034.2667	3036.7946	3059.035	3077.2207	3092.1259	3113.5882	3116.7121	3144.8138	3560.294
CC1CC2C(NC12)C#N	C[C@H]1C[C@H]2[C@@H](N[C@@H]12)C#N	
InChI=1S/C7H10N2/c1-4-2-5-6(3-8)9-7(4)5/h4-7,9H,2H2,1H3	InChI=1S/C7H10N2/c1-4-2-5-6(3-8)9-7(4)5/h4-7,9H,2H2,1H3/t4-,5-,6-,7-/m0/s1
