19
gdb 105271	2.27287	1.43849	1.04295	3.5237	71.4	-0.2383	0.0685	0.3068	1189.4028	0.156524	-460.100412	-460.090966	-460.090022	-460.134748	34.644	
C	 0.9045167147	 1.1101130426	 0.3065842939	-0.249762
O	 0.0642394598	 0.0741178059	-0.1795178858	-0.300909
C	 0.5391302432	-0.5986350505	-1.3144779808	 0.328055
C	 1.6931570026	-1.5675859319	-1.1411179514	-0.39624
C	 0.269234134	-2.0780902975	-1.2438409508	 0.097895
O	-0.3851573227	-2.5803580134	-0.1257258818	-0.436806
C	 0.3470252046	 0.155863921	-2.5964340376	-0.000276
C	 1.4527168494	 0.8130446061	-3.3112655035	-0.177666
O	 0.9189301274	-0.4343013146	-3.7620453828	-0.228526
H	 1.9079850252	 0.7344585599	 0.5449824057	 0.117104
H	 0.9971533082	 1.928017604	-0.4189815988	 0.119506
H	 0.4372547925	 1.4939791777	 1.2159888812	 0.133145
H	 2.3541871309	-1.7256456122	-1.9859221039	 0.12969
H	 2.1538671853	-1.6121803532	-0.1600762473	 0.116425
H	-0.0152620784	-2.585612089	-2.1602409031	 0.11643
H	-0.5581502349	-1.8203684244	 0.4468976269	 0.291885
H	-0.6608970663	 0.5514120599	-2.733166479	 0.102728
H	 1.2479890845	 1.6659083137	-3.9561947216	 0.120103
H	 2.4591674201	 0.7634506759	-2.8993716894	 0.117218
80.6579	102.2342	158.3679	169.4784	192.0295	219.7829	306.4573	355.274	359.7305	418.5719	470.6094	522.3478	642.7606	664.6207	827.6459	876.0608	882.823	902.5933	955.7581	993.8391	1023.8943	1054.3302	1090.7455	1105.6968	1111.5292	1153.7986	1161.8751	1175.1475	1183.1302	1221.1172	1249.0794	1260.9373	1299.5018	1358.0531	1415.7843	1431.9335	1472.2236	1479.2334	1488.5005	1508.9245	1520.4111	3007.3537	3066.0874	3087.6435	3098.9765	3125.7802	3133.5107	3163.1463	3178.222	3230.6595	3747.3715
COC1(CC1O)C1CO1	CO[C@]1(C[C@H]1O)[C@H]1CO1	
InChI=1S/C6H10O3/c1-8-6(2-4(6)7)5-3-9-5/h4-5,7H,2-3H2,1H3	InChI=1S/C6H10O3/c1-8-6(2-4(6)7)5-3-9-5/h4-5,7H,2-3H2,1H3/t4-,5-,6+/m1/s1
