23
gdb 117693	1.97265	1.15301	0.89408	1.4565	87.99	-0.2477	0.0544	0.3021	1462.2969	0.200897	-388.261349	-388.249921	-388.248977	-388.298031	41.834	
C	-0.174292651	 1.5488059999	 0.0427884562	-0.37875
C	 0.0108676539	 0.048373228	-0.1258775977	-0.045111
O	-1.2620595405	-0.5543073096	 0.0124797855	-0.282594
C	-1.348480777	-1.9814419256	 0.0088989119	 0.356399
C	-0.6676461594	-2.6054254352	-1.2170345738	-0.425496
C	-0.7720908302	-2.5612851619	 1.3112073464	-0.418016
C	-2.8761675877	-2.2476454363	-0.0161934051	-0.372356
C	-3.5503454625	-1.7987637323	-1.2276866758	 0.323918
C	-4.1205670216	-1.4481932772	-2.2260323274	-0.455595
H	 0.7821223739	 2.0674473512	-0.0746637072	 0.110249
H	-0.8737277087	 1.9316083543	-0.7056265285	 0.129414
H	-0.5764456883	 1.7774178819	 1.0338211689	 0.122582
H	 0.4433321829	-0.1674824861	-1.1139407528	 0.090979
H	 0.7169622866	-0.3303735246	 0.6289567346	 0.083816
H	 0.4185661594	-2.4851042535	-1.1777944551	 0.113198
H	-0.8779280359	-3.6788126598	-1.2576239217	 0.113964
H	-1.0418498957	-2.1489232259	-2.1364267296	 0.13775
H	-1.2514773706	-2.0985931587	 2.1790127412	 0.119409
H	-0.9327101862	-3.6428432516	 1.3600786852	 0.113716
H	 0.3051322015	-2.3875116216	 1.3809300366	 0.116182
H	-3.0488280915	-3.3217077553	 0.1228870932	 0.122082
H	-3.3124529574	-1.7394331895	 0.8516925535	 0.133557
H	-4.6240289039	-1.1285776907	-3.1042882585	 0.190704
49.5375	68.763	97.0318	143.8054	195.0087	225.157	250.687	261.8168	312.4946	329.5403	333.6394	353.6016	394.9169	438.8513	479.9522	590.3063	607.8972	638.7886	753.2182	825.1004	848.6575	880.3439	923.1542	953.2649	975.433	1006.4489	1018.2293	1098.7571	1144.2344	1164.7108	1182.6918	1193.5823	1252.1009	1291.8847	1302.6798	1345.6347	1393.8937	1398.4201	1411.2765	1426.8961	1455.8391	1480.876	1482.4084	1489.0782	1497.9814	1501.7754	1507.6009	1532.3989	2238.317	2980.0294	3010.8499	3029.8513	3039.7677	3043.8887	3045.9254	3069.0282	3107.1462	3113.1255	3117.2308	3118.0723	3122.718	3130.0902	3507.3486
CCOC(C)(C)CC#C	CCOC(C)(C)CC#C	
InChI=1S/C8H14O/c1-5-7-8(3,4)9-6-2/h1H,6-7H2,2-4H3	InChI=1S/C8H14O/c1-5-7-8(3,4)9-6-2/h1H,6-7H2,2-4H3
