20
gdb 68854	2.41565	1.79487	1.38892	2.4098	78.3	-0.2374	0.0806	0.318	1018.0319	0.171677	-403.12274	-403.114527	-403.113582	-403.154764	33.24	
C	-0.0506151238	 1.5028259609	-0.0252848509	-0.482999
C	-0.0059687409	-0.0044028881	 0.0000272827	 0.327179
C	 1.3025740483	-0.756265946	-0.191230228	-0.409286
C	 0.6015608763	-0.7776134601	 1.1503376932	 0.376091
O	 1.1624477609	-0.0605372144	 2.2087159137	-0.473085
C	-0.2536954696	-2.0031775228	 1.486204897	-0.295084
C	-1.3642812002	-1.9765335739	 0.4419992957	-0.024919
N	-2.2717318758	-0.8156518806	 0.591897665	-0.336708
C	-1.2120399138	-0.7888922767	-0.437570211	-0.128632
H	 0.8005470713	 1.9228982533	 0.5164562512	 0.125981
H	-0.0309984589	 1.8876467711	-1.0514796713	 0.105322
H	-0.9666840604	 1.8591388556	 0.4564912333	 0.13215
H	 1.317717342	-1.654155037	-0.8028522258	 0.10097
H	 2.2004649349	-0.1494042588	-0.2488102492	 0.108429
H	 1.9682102963	-0.5115901412	 2.4817966113	 0.281606
H	 0.3175826047	-2.9386566969	 1.4388238974	 0.087664
H	-0.6578433988	-1.8994036684	 2.4979747578	 0.115307
H	-1.775365702	-2.9081265018	 0.0665962928	 0.082336
H	-3.1621811295	-1.0334587878	 0.1497916393	 0.227245
H	-1.493128941	-0.8134711463	-1.4876082942	 0.080434
155.4604	202.0618	206.6791	226.0077	272.6284	364.3526	388.9566	432.6663	472.6055	497.1547	551.029	649.8583	724.4196	752.3521	814.2955	857.1526	896.5847	907.1612	932.6814	939.8209	970.2293	980.4745	1013.2933	1044.7231	1068.7016	1109.9123	1145.3735	1151.9527	1173.797	1190.9563	1237.7855	1264.9639	1272.7299	1303.4573	1334.4155	1378.325	1401.6085	1412.123	1428.659	1477.066	1489.3937	1491.427	1504.9474	3025.6617	3030.3124	3083.9461	3094.0394	3114.6275	3120.7604	3136.0219	3161.5022	3206.5441	3491.9846	3802.016
CC12CC1(O)CC1NC21	C[C@@]12C[C@]1(O)C[C@H]1N[C@@H]21	
InChI=1S/C7H11NO/c1-6-3-7(6,9)2-4-5(6)8-4/h4-5,8-9H,2-3H2,1H3	InChI=1S/C7H11NO/c1-6-3-7(6,9)2-4-5(6)8-4/h4-5,8-9H,2-3H2,1H3/t4-,5-,6+,7-/m1/s1
