17
gdb 126200	1.85525	1.76892	0.97038	2.7198	83.64	-0.2204	0.0041	0.2246	1210.214	0.136511	-380.873688	-380.864892	-380.863948	-380.90818	32.279	
C	-0.1832873878	 1.5627200561	-0.0258280813	-0.371033
C	-0.0273541832	 0.0304505699	-0.0214967242	-0.31652
C	 0.7514489725	-0.4842893072	-1.188648292	 0.267625
C	 2.1220728805	-0.6708289341	-1.3634570198	 0.017988
C	 2.2498685607	-1.1432524878	-2.6985290517	-0.108228
N	 1.0768140732	-1.244484568	-3.303620547	-0.220341
N	 0.1897377956	-0.8366658262	-2.3686579169	-0.247868
C	 3.1371831718	-0.4374681514	-0.410368872	 0.237404
C	 4.003549327	-0.238789642	 0.4034924425	-0.456686
H	 0.7957435347	 2.0484945114	 0.0018290674	 0.140702
H	-0.704083947	 1.9054594124	-0.9252705495	 0.118619
H	-0.7557022498	 1.8925884202	 0.8462532319	 0.119122
H	 0.4871588742	-0.2793616717	 0.8934359835	 0.135125
H	-1.0163167235	-0.4436328676	-0.0022315804	 0.10677
H	 3.1575629064	-1.4106274711	-3.2182568466	 0.119195
H	-0.7905207469	-0.8374337456	-2.597623765	 0.273356
H	 4.7703120017	-0.0656779074	 1.1167641809	 0.184769
24.6903	126.535	151.3567	172.0263	222.0988	325.4697	365.5671	485.4959	517.5143	535.1026	546.429	593.0313	656.5726	674.6757	693.1332	740.4878	785.1184	889.643	952.5487	971.464	1062.6136	1080.6697	1128.8397	1168.4752	1229.3324	1263.5956	1336.0475	1352.4196	1369.9491	1408.079	1444.8485	1480.4307	1496.7909	1504.2356	1516.3234	1600.5222	2230.4041	3033.6302	3041.2823	3082.2132	3113.4941	3124.362	3255.421	3503.9907	3664.6432
CCC1=C(C=NN1)C#C	CCc1c(cn[nH]1)C#C	
InChI=1S/C7H8N2/c1-3-6-5-8-9-7(6)4-2/h1,5H,4H2,2H3,(H,8,9)	InChI=1S/C7H8N2/c1-3-6-5-8-9-7(6)4-2/h1,5H,4H2,2H3,(H,8,9)
