15
gdb 18632	3.23667	2.07573	1.79221	3.6652	60.59	-0.2437	0.0141	0.2578	782.13	0.121106	-399.822083	-399.815438	-399.814494	-399.852752	25.912	
O	 0.0475796901	 1.3951167532	 0.0676320541	-0.42301
C	-0.0475249996	 0.0103889746	-0.0079598508	 0.133018
C	-1.3449072661	-0.7346335664	 0.0115140733	-0.111779
C	-2.5868423719	 0.0874824832	-0.3253089057	-0.196583
N	-2.2539151048	 0.690736938	-1.6137599526	-0.345912
C	-1.217272086	 0.0483664749	-2.2816883112	 0.40827
O	-0.9743108887	 0.1562007443	-3.4607417365	-0.369516
C	-0.4760746464	-0.7543225047	-1.2522400273	-0.223996
H	-0.5980775859	 1.7794198199	-0.5399542586	 0.29649
H	 0.7750831856	-0.4399831415	 0.5373851159	 0.119939
H	-1.4678520304	-1.6067363169	 0.6422138032	 0.101751
H	-3.4732366652	-0.555635785	-0.3969491069	 0.119252
H	-2.7835806736	 0.8560626959	 0.4318125282	 0.124928
H	-2.9548755196	 1.1568395292	-2.1702984351	 0.254247
H	 0.0935486225	-1.6058726485	-1.5990510201	 0.112902
135.1768	201.1248	220.1159	414.4965	452.4625	454.936	536.1919	588.3697	645.3734	729.2224	771.828	785.5229	808.0922	874.7775	966.6201	992.89	1003.5507	1034.4885	1081.6613	1095.8444	1107.0938	1191.543	1218.0222	1242.385	1295.4678	1318.452	1335.8835	1383.1197	1432.836	1462.3923	1526.6394	1835.1854	3016.5901	3052.454	3173.2064	3185.1836	3211.0036	3624.0812	3755.1265
OC1C2CNC(=O)C12	O[C@H]1[C@H]2CNC(=O)[C@@H]12	
InChI=1S/C5H7NO2/c7-4-2-1-6-5(8)3(2)4/h2-4,7H,1H2,(H,6,8)	InChI=1S/C5H7NO2/c7-4-2-1-6-5(8)3(2)4/h2-4,7H,1H2,(H,6,8)/t2-,3+,4-/m0/s1
