13
gdb 46168	1.89386	1.67025	1.33225	6.6401	69.36	-0.2757	-0.0218	0.2539	1017.2613	0.089374	-411.787678	-411.779397	-411.778453	-411.820847	29.325	
N	-0.0394575499	 1.1728609445	-0.4587689478	-0.515516
C	 0.0420584391	-0.0066113573	-0.0436735435	 0.383059
N	 0.9593018973	-0.8640860735	 0.531321876	-0.328686
C	 0.1244641466	-2.0637704459	 0.4728348368	-0.19233
C	-1.0516057993	-1.1330281856	-0.0287369033	-0.088918
C	-2.1116756076	-0.9221108843	 0.9506860483	 0.284124
N	-2.9261950631	-0.7642408556	 1.7536225746	-0.313916
C	-1.5749155956	-1.4733193306	-1.3461199273	 0.282582
N	-1.9521279995	-1.765181603	-2.3975569726	-0.314404
H	 0.8338238533	 1.6930149829	-0.3755602322	 0.234594
H	 1.9658676516	-0.8039905322	 0.5096244559	 0.264278
H	 0.4199848972	-2.8035468127	-0.2759299214	 0.151241
H	-0.0570453001	-2.5424463268	 1.4372038564	 0.15389
96.7867	129.2084	132.2271	166.6043	226.5938	362.0363	381.2569	432.1065	503.3574	558.0836	590.4855	618.8579	675.7239	770.5891	817.7983	927.2561	946.9936	1016.2915	1031.5909	1142.8258	1157.8445	1222.9467	1223.1871	1321.8558	1384.0212	1522.7705	1824.4311	2368.2707	2372.6379	3062.2189	3124.4382	3493.2359	3626.1997
N=C1NCC1(C#N)C#N	[NH][C]1NCC1(C#N)C#N	
InChI=1S/C5H4N4/c6-1-5(2-7)3-9-4(5)8/h3H2,(H2,8,9)	InChI=1S/C5H4N4/c6-1-5(2-7)3-9-4(5)8/h3H2,(H2,8,9)
