16
gdb 8352	4.73656	1.53437	1.4083	3.7478	66.3	-0.2398	0.0198	0.2596	903.8514	0.132017	-379.863591	-379.856572	-379.855628	-379.896114	26.152	
O	-0.1046635493	 0.371741998	-1.0083024245	-0.310875
C	-0.0210092041	 1.2603571357	-0.1903659624	 0.132851
N	 1.1238857264	 1.6617955531	 0.4377880193	-0.435143
C	 2.4177894582	 1.0862409475	 0.2230190924	 0.372914
C	 2.7894922229	-0.0640433997	-0.7229262835	-0.176881
N	 4.1467947055	 0.2968339969	-0.0821061005	-0.139397
C	 3.7124639611	 1.7547260402	-0.2990560169	-0.210004
C	 3.3550338101	 0.3800142968	 1.2321806263	-0.210013
H	-0.8939119188	 1.857521469	 0.1423689291	 0.078897
H	 1.0478049083	 2.4190351471	 1.1004950866	 0.245161
H	 2.4364823246	-1.065216082	-0.4731928789	 0.117287
H	 2.745356372	 0.1227910705	-1.7964554636	 0.117307
H	 3.740592706	 2.0695758569	-1.345049803	 0.1099
H	 4.2296476675	 2.4647842364	 0.3524962865	 0.099051
H	 3.8454517515	 0.9871541373	 1.9983759472	 0.099052
H	 3.0481184681	-0.5937575138	 1.621536666	 0.109893
20.5242	165.6079	188.3247	339.3157	394.8717	529.7856	570.4679	586.6195	595.9317	761.5811	793.0608	844.7833	884.8194	947.594	975.3444	1003.8853	1019.0847	1032.427	1034.1813	1143.9543	1153.7609	1169.0977	1170.1291	1184.6277	1193.2406	1194.9893	1264.8396	1313.177	1437.2014	1506.1149	1508.7407	1512.0742	1565.7253	1809.8901	2929.4799	3049.3704	3055.9306	3084.7064	3121.5104	3125.622	3155.2783	3611.172
O=CNC12CN(C1)C2	O=CN[C@@]12CN(C1)C2	
InChI=1S/C5H8N2O/c8-4-6-5-1-7(2-5)3-5/h4H,1-3H2,(H,6,8)	InChI=1S/C5H8N2O/c8-4-6-5-1-7(2-5)3-5/h4H,1-3H2,(H,6,8)
