19
gdb 74943	3.44879	1.59223	1.42956	1.573	80.07	-0.2318	0.0143	0.2461	987.7074	0.161589	-385.876751	-385.869902	-385.868957	-385.907658	28.696	
C	 0.0192366531	 1.5184086646	 0.0235929255	-0.504912
C	-0.0665052835	 0.0273384632	-0.0262620192	 0.340848
C	-0.1120546158	-0.7764786189	-1.1026375719	-0.195595
C	 0.0444551128	-2.1926942013	-0.6095757185	 0.05254
O	 1.4397795818	-2.2623852047	-0.113783581	-0.280644
C	 1.2347478281	-1.8939476019	 1.2380733521	 0.086442
C	 0.2333793573	-2.9615517537	 1.7254719434	-0.24851
C	-0.6980704959	-2.2019441533	 0.7554644161	-0.061768
C	-0.0128644541	-0.8623605532	 1.1761085537	-0.147552
H	 0.9732003261	 1.8448227384	 0.4573853962	 0.130798
H	-0.064087535	 1.958707852	-0.9738051241	 0.125401
H	-0.7716182639	 1.9447613143	 0.6533396746	 0.124093
H	-0.0699725675	-0.4752420874	-2.1421799364	 0.092901
H	-0.1250379136	-3.0111904013	-1.3078454727	 0.071924
H	 2.1795735937	-1.6551063627	 1.7235648341	 0.079956
H	 0.4896471835	-4.0017137644	 1.5130618309	 0.098456
H	-0.0731422071	-2.8344091598	 2.7665501631	 0.096574
H	-1.782511666	-2.3061864351	 0.7307686273	 0.073156
H	-0.283370754	-0.449086635	 2.1475868168	 0.065892
162.6837	175.4122	266.7087	385.2125	442.1303	504.6845	515.0276	598.4824	656.1656	740.0308	774.0293	805.5969	838.4586	866.7722	883.5023	920.3436	928.9234	946.8739	970.4534	977.7147	1011.5581	1025.351	1057.58	1065.9317	1086.9202	1111.5583	1167.8851	1185.0302	1210.7121	1227.2827	1245.6353	1271.3311	1271.6162	1302.9867	1333.8797	1355.671	1413.3655	1479.1358	1486.722	1489.1121	1673.5558	3017.3831	3063.8023	3064.3539	3109.7613	3117.2391	3122.0084	3128.0698	3129.8598	3138.3873	3206.5499
CC1=CC2OC3CC2C13	CC1=C[C@H]2O[C@@H]3C[C@H]2[C@H]13	
InChI=1S/C8H10O/c1-4-2-6-5-3-7(9-6)8(4)5/h2,5-8H,3H2,1H3	InChI=1S/C8H10O/c1-4-2-6-5-3-7(9-6)8(4)5/h2,5-8H,3H2,1H3/t5-,6-,7-,8+/m1/s1
