12
gdb 21587	3.50254	2.10556	1.31891	6.6687	59.48	-0.2457	-0.0625	0.1832	838.3447	0.084768	-410.839977	-410.833116	-410.832172	-410.871129	24.567	
N	 0.080101843	 1.4114131921	 0.112953101	-0.601771
C	-0.0295864844	 0.0333335619	 0.0124130133	 0.357813
C	-1.1004209182	-0.8203353	 0.0240193643	-0.137562
N	-0.6328693349	-2.1103205397	-0.0245036399	-0.152643
N	 0.6475205497	-2.1258175214	-0.0745933359	-0.113333
N	 1.0656286548	-0.8010988798	-0.038189379	-0.068428
C	 2.4225024149	-0.443414764	 0.0362149294	 0.188427
O	 3.3339582979	-1.2122924461	-0.0449367611	-0.244571
H	 0.6617181244	 1.8463082809	-0.5923727411	 0.266602
H	-0.8221146606	 1.8663242375	 0.1449604822	 0.26974
H	-2.1539917066	-0.596615069	 0.0569283168	 0.127214
H	 2.5357478501	 0.6440960177	 0.1929685101	 0.108511
134.7971	176.1286	225.8476	247.4344	315.3461	359.4773	572.781	649.1798	673.8174	707.7619	733.0847	785.7201	811.1092	975.2423	1030.4171	1075.9625	1105.782	1155.8732	1282.9067	1298.8178	1402.1439	1439.621	1480.6229	1614.6882	1667.0745	1852.1295	2981.524	3273.8229	3543.6711	3636.1933
NC1=CN=NN1C=O	Nc1cnnn1C=O	
InChI=1S/C3H4N4O/c4-3-1-5-6-7(3)2-8/h1-2H,4H2	InChI=1S/C3H4N4O/c4-3-1-5-6-7(3)2-8/h1-2H,4H2
