21
gdb 90899	2.48949	1.95639	1.43054	1.4854	81.01	-0.2036	0.0779	0.2814	1000.7517	0.18395	-383.220669	-383.212783	-383.211839	-383.25232	32.258	
C	-0.1066440933	 1.4761444647	-0.0091474877	-0.335006
N	 0.0518041625	 0.0341654717	 0.0217822382	-0.081137
C	 0.7584152065	-0.5068142976	-1.1522128291	-0.198935
C	 1.4097604518	-1.7750558255	-0.6304854477	-0.035102
C	 1.0212686676	-1.9914684293	 0.7697844135	-0.086977
N	 2.4573151932	-1.6826153891	 0.4361396518	-0.157611
C	 2.2946898938	-0.3443682938	 1.0977800941	-0.202913
C	 0.7430291708	-0.5291025267	 1.1931081003	 0.304248
C	 0.0576728978	-0.2453174721	 2.5112986613	-0.496769
H	 0.8503249023	 2.0322121757	-0.0120233787	 0.093038
H	-0.6538921763	 1.7579738683	-0.9144784596	 0.121643
H	-0.6946723107	 1.8140602947	 0.8483180663	 0.121098
H	 0.0553815681	-0.7247482968	-1.9660101873	 0.105581
H	 1.5100627865	 0.1951082202	-1.5539190686	 0.089515
H	 1.5795404133	-2.6069312241	-1.3040468317	 0.099526
H	 0.6937934743	-2.9111477798	 1.2398582817	 0.089835
H	 2.797550476	-0.377778419	 2.0678182421	 0.105135
H	 2.6780375908	 0.5087311661	 0.5264867919	 0.09499
H	 0.1198663392	 0.8140751733	 2.780670753	 0.120913
H	-1.0000098728	-0.5232150513	 2.4614557595	 0.126729
H	 0.5302706187	-0.8165772395	 3.3155985965	 0.122198
149.2545	222.3285	233.4608	293.2012	309.3616	320.1783	367.0331	442.8517	490.2682	562.6624	619.4452	714.1003	757.7201	787.4223	812.4563	868.6661	883.4609	938.4912	973.0385	983.6585	988.7113	1033.512	1045.3541	1089.2811	1140.6163	1149.5683	1162.3793	1166.1688	1198.4198	1218.7719	1233.8076	1237.7761	1263.0402	1275.7258	1347.6643	1365.1576	1393.857	1414.535	1457.4523	1486.1863	1492.0761	1494.8893	1502.3611	1503.9561	1525.9976	2924.6373	2945.5974	3031.524	3034.6089	3038.0099	3065.2052	3095.5963	3102.4312	3110.9745	3113.1765	3177.5092	3189.1406
CN1CC2C3N2CC13C	CN1C[C@@H]2[C@H]3N2C[C@@]13C	
InChI=1S/C7H12N2/c1-7-4-9-5(6(7)9)3-8(7)2/h5-6H,3-4H2,1-2H3	InChI=1S/C7H12N2/c1-7-4-9-5(6(7)9)3-8(7)2/h5-6H,3-4H2,1-2H3/t5-,6-,7-,9?/m1/s1
