15
gdb 123381	3.61515	1.01351	0.95272	2.9799	72.14	-0.228	-0.0004	0.2275	1246.5802	0.112646	-416.753991	-416.745847	-416.744903	-416.788074	29.734	
C	 0.3035373849	-0.1177434426	-1.2369885087	-0.451011
C	 0.1285120353	 0.5402224658	-0.2467724469	 0.315855
C	-0.0449464986	 1.3489631635	 0.9643887392	-0.334537
N	 1.0885106966	 2.2033323496	 1.3091317151	-0.364459
C	 1.423620652	 3.257364015	 0.4782497159	 0.453281
N	 2.6751376261	 3.6619180772	 0.3961906081	-0.242568
O	 2.6482645064	 4.7832982243	-0.4413390019	-0.166136
C	 1.3905035112	 4.9926214595	-0.8393702946	 0.091634
C	 0.5494695653	 4.073722375	-0.3062698942	-0.325132
H	 0.4558023464	-0.6973462303	-2.1139289398	 0.205686
H	-0.9365172808	 1.9783276674	 0.8675827946	 0.148417
H	-0.2335172643	 0.6937381301	 1.8214730648	 0.146351
H	 1.9083286555	 1.6873268585	 1.6022403348	 0.253975
H	 1.2382964183	 5.8322486859	-1.5005741544	 0.14859
H	-0.5142063043	 3.9896136213	-0.4470539619	 0.120056
36.3865	55.0905	190.6124	213.7008	323.3732	334.4918	422.871	588.6754	594.1474	608.4961	631.0213	668.0572	719.0555	737.0388	772.1257	866.1978	911.7599	926.771	940.7003	981.5503	1009.1481	1094.4305	1128.4098	1174.8972	1263.6369	1333.6254	1372.3712	1421.7797	1469.1658	1499.9193	1530.0431	1638.3971	2234.9527	3044.8932	3077.4797	3258.0265	3290.6454	3504.0478	3577.7357
C#CCNC1=NOC=C1	C#CCNc1nocc1	
InChI=1S/C6H6N2O/c1-2-4-7-6-3-5-9-8-6/h1,3,5H,4H2,(H,7,8)	InChI=1S/C6H6N2O/c1-2-4-7-6-3-5-9-8-6/h1,3,5H,4H2,(H,7,8)
