17
gdb 112207	2.58247	1.25698	0.92975	4.1817	69.89	-0.2441	-0.0392	0.2048	1234.2438	0.133596	-458.933349	-458.924474	-458.92353	-458.967514	32.074	
O	-0.0544231552	 1.4075050891	-0.2085697414	-0.417787
C	 0.062336518	 0.0060744917	-0.0255067557	-0.099486
C	-1.3364397377	-0.5488402188	 0.158164124	-0.085126
C	-2.2899006093	-0.4961450576	-1.0791547655	-0.367756
C	-2.5775781092	-1.9999506328	-0.8883205817	 0.336192
O	-3.3524410864	-2.7814456496	-1.3550687692	-0.296737
C	-1.4952792529	-2.0822887698	 0.1833384565	 0.317321
C	-0.4948744134	-3.1524454396	 0.3545646857	-0.250195
O	-1.5126792815	-2.9156111122	 1.3223231324	-0.255429
H	 0.8271054978	 1.773382092	-0.3277684376	 0.290396
H	 0.5377539212	-0.474646262	-0.8968713301	 0.084723
H	 0.6750728938	-0.2336620182	 0.8585952027	 0.095756
H	-1.7992645817	-0.0950861706	 1.039004552	 0.106808
H	-3.1629220188	 0.1545519606	-0.9997041511	 0.14237
H	-1.7805822153	-0.2803467531	-2.0236215115	 0.137167
H	-0.5985428375	-4.0706787516	-0.2209879728	 0.137064
H	 0.5166466979	-2.8903007175	 0.6610821535	 0.124719
59.0773	102.2415	143.0225	205.2864	229.9814	258.9811	299.1912	360.4773	428.2756	502.8134	559.4409	619.9838	722.8886	810.019	836.813	890.865	917.5893	973.0553	1027.6321	1050.4892	1074.5212	1085.2	1127.6105	1148.2513	1155.6689	1169.4714	1203.6149	1234.3682	1264.2299	1271.3845	1358.9355	1401.8365	1440.1082	1460.6497	1518.967	1522.9947	1894.822	2957.8781	2988.203	3065.3083	3078.8105	3086.1882	3126.1264	3180.2824	3828.1158
OCC1CC(=O)C11CO1	OC[C@H]1CC(=O)[C@]21CO2	
InChI=1S/C6H8O3/c7-2-4-1-5(8)6(4)3-9-6/h4,7H,1-3H2	InChI=1S/C6H8O3/c7-2-4-1-5(8)6(4)3-9-6/h4,7H,1-3H2/t4-,6-/m1/s1
