18
gdb 58076	1.77944	1.6599	1.11908	4.6862	77.79	-0.2839	0.0148	0.2987	1166.9938	0.143499	-401.924366	-401.913778	-401.912834	-401.959398	38.224	
C	-0.0936393953	 1.5772328298	-0.0754390311	-0.425104
C	 0.0225106061	 0.0553729616	-0.0257180837	 0.119954
O	 0.7499569395	-0.453493235	-1.1314867273	-0.430611
C	 0.7753869877	-0.4790312515	 1.2427210041	-0.102083
C	 2.2571557001	-0.0177786053	 1.2715098123	-0.417815
C	 0.0768539791	-0.0475080492	 2.4590530956	 0.314912
C	-0.4833257979	 0.3237581471	 3.4541384513	-0.434909
C	 0.7428295589	-1.9570985784	 1.1894411959	 0.303139
N	 0.7229906541	-3.1115192061	 1.1634823863	-0.346511
H	 0.8904553218	 2.0441513345	-0.1650800324	 0.132624
H	-0.6833666308	 1.8675219866	-0.9514102024	 0.115118
H	-0.5965526726	 1.9665595773	 0.8129793627	 0.139674
H	-0.9853420897	-0.382309976	 0.0080754543	 0.096942
H	 0.2416569669	-0.2908961891	-1.9315423896	 0.293673
H	 2.3063431666	 1.0644980111	 1.4037333958	 0.132519
H	 2.7780313334	-0.4909798713	 2.1055581551	 0.143667
H	 2.7426274653	-0.294316383	 0.3351467674	 0.158135
H	-0.9812288933	 0.6393976668	 4.338025066	 0.206676
81.2117	133.9383	136.1234	159.2402	179.198	219.1198	223.5287	263.6414	283.9623	340.5628	383.3758	475.1865	505.8312	512.6792	577.3225	582.3685	650.0161	661.6698	685.5559	882.3693	927.7889	938.9005	1010.2715	1083.9047	1113.6161	1130.4347	1177.0526	1212.6964	1271.4121	1376.3781	1394.1726	1408.3244	1415.0035	1485.8032	1492.5251	1495.6358	1505.061	2242.1023	2362.4443	3002.135	3044.7229	3067.5462	3111.8847	3137.2242	3146.7269	3163.1807	3498.9285	3835.8183
CC(O)C(C)(C#C)C#N	C[C@@H](O)[C@@](C)(C#C)C#N	
InChI=1S/C7H9NO/c1-4-7(3,5-8)6(2)9/h1,6,9H,2-3H3	InChI=1S/C7H9NO/c1-4-7(3,5-8)6(2)9/h1,6,9H,2-3H3/t6-,7+/m1/s1
