19
gdb 109089	4.08129	1.11335	0.97512	3.7296	76.45	-0.2243	0.0233	0.2476	1240.9699	0.161139	-419.208594	-419.200374	-419.19943	-419.241897	31.21	
O	 0.0609784774	 1.4033537731	 0.5565947788	-0.420294
C	 0.0466928174	 0.079472529	 0.0985016759	-0.124172
C	-1.3597776548	-0.444118028	-0.0135355932	 0.339753
N	-2.3682191636	 0.3187711768	 0.1946767612	-0.317789
C	-3.5646393413	-0.4963225374	-0.0018318878	 0.012153
C	-4.189197585	-0.4578178086	-1.4307350642	-0.223905
C	-3.8469974896	-1.9678049314	-1.6204874429	-0.221867
C	-3.0671217977	-1.9631801172	-0.2803095797	-0.018273
N	-1.6202849932	-1.7491490905	-0.3970897882	-0.348165
H	-0.8730639185	 1.6640598042	 0.6051103509	 0.294406
H	 0.5308731778	-0.0066473125	-0.8883499089	 0.113232
H	 0.6197335949	-0.569460887	 0.7819058724	 0.099994
H	-4.2803588081	-0.3458032532	 0.8098192323	 0.076994
H	-5.2509840658	-0.2051748093	-1.4744637135	 0.102691
H	-3.6438000965	 0.214086553	-2.0964370258	 0.112401
H	-4.7265577616	-2.6167336787	-1.590362002	 0.102363
H	-3.2510044171	-2.2247221614	-2.4989129612	 0.103941
H	-3.3012816425	-2.7626481317	 0.4285998497	 0.074764
H	-0.9846365921	-2.4783797592	-0.1100342639	 0.241774
67.5189	89.7419	149.2287	207.2203	345.0717	383.5928	402.9608	457.7284	475.8202	619.4175	662.9043	704.2316	746.2042	781.984	834.3623	910.18	922.1447	954.1104	975.4391	1028.575	1047.9867	1085.6578	1097.1087	1118.7403	1124.9248	1195.9348	1219.9906	1238.397	1250.2743	1252.6004	1266.8221	1286.4094	1317.1777	1332.7146	1342.2176	1447.9806	1469.2368	1485.5398	1498.4552	1509.8547	1690.3531	2967.3325	2980.3702	3053.6592	3062.4687	3068.9212	3078.9655	3110.7084	3130.8896	3607.7671	3673.7424
OCC1=NC2CCC2N1	OCC1=N[C@H]2CC[C@H]2N1	
InChI=1S/C6H10N2O/c9-3-6-7-4-1-2-5(4)8-6/h4-5,9H,1-3H2,(H,7,8)	InChI=1S/C6H10N2O/c9-3-6-7-4-1-2-5(4)8-6/h4-5,9H,1-3H2,(H,7,8)/t4-,5+
