18
gdb 66852	2.70175	2.09104	1.86918	0.8798	73.21	-0.203	0.0766	0.2796	853.4791	0.149487	-401.881906	-401.875357	-401.874413	-401.912335	27.671	
C	-0.0786514489	 1.488347897	 0.0063318521	-0.513982
C	 0.0639078883	-0.0073765624	-0.0118792402	 0.352518
C	 0.7420071895	-0.764674264	-1.1609412752	-0.209685
C	 0.9678353399	-2.0686918083	-0.4682268227	 0.09471
O	 1.2048554064	-1.9151176468	 0.9097964752	-0.260584
C	 0.3881592263	-0.8249820645	 1.3148609243	 0.01977
C	-1.0894572073	-1.2596760576	 1.3023367206	-0.191209
N	-1.1969363212	-0.859006423	-0.1454967475	-0.179398
C	-0.4124178796	-1.7618728688	-1.0267523301	-0.079659
H	 0.9008529762	 1.967947604	 0.1133206748	 0.123025
H	-0.5378172314	 1.8419610993	-0.9216240311	 0.132305
H	-0.7094732297	 1.814765865	 0.8396347121	 0.124056
H	 1.274959509	-0.3626637281	-2.0116500692	 0.095758
H	 1.5542713707	-2.8617638119	-0.9151487965	 0.109587
H	 0.8324044393	-0.3541654958	 2.1948362437	 0.075652
H	-1.2772435305	-2.3136190268	 1.5212498961	 0.110006
H	-1.7511063301	-0.6299131992	 1.9043778761	 0.10491
H	-0.904828277	-2.3828230781	-1.7681105825	 0.092221
209.4893	240.4384	255.5311	363.245	435.1342	541.1218	603.1734	635.7053	706.4646	731.6794	766.1063	810.7424	839.3642	857.9171	901.5674	909.7072	938.0056	954.2475	987.1192	1017.7805	1039.7986	1052.1887	1091.5761	1099.182	1122.6399	1130.9897	1185.8174	1192.7933	1206.9997	1225.148	1274.5937	1296.6715	1314.5625	1348.6642	1401.7783	1412.8933	1481.5214	1486.625	1490.2065	3031.6122	3051.4577	3085.1629	3099.451	3109.1882	3114.8443	3157.8546	3198.6675	3209.7554
CC12C3C4OC1CN2C34	C[C@@]12[C@H]3[C@H]4O[C@@H]1CN2[C@@H]34	
InChI=1S/C7H9NO/c1-7-3-2-8(7)5-4(7)6(5)9-3/h3-6H,2H2,1H3	InChI=1S/C7H9NO/c1-7-3-2-8(7)5-4(7)6(5)9-3/h3-6H,2H2,1H3/t3-,4-,5+,6-,7+/m1/s1
