16
gdb 13584	4.22926	1.39443	1.1608	3.3842	68.65	-0.247	-0.0728	0.1742	1029.6828	0.129371	-379.903512	-379.89533	-379.894386	-379.936362	29.179	
C	 0.2271473642	 1.3513516807	 0.3163246104	-0.398641
C	 0.027691959	-0.0889616743	-0.0916298364	 0.022932
C	 0.887603131	-0.7159728564	-1.1526083294	-0.264726
N	 0.9891781138	-1.1222870686	 0.2436526481	-0.085038
C	 2.1130462184	-0.9677328876	 1.0370752572	 0.238394
N	 2.1189923841	-0.3279914046	 2.1396306409	-0.486133
C	 3.3139964164	-1.7528818038	 0.5426860186	 0.117166
O	 4.3667345809	-1.749224961	 1.1263523578	-0.239708
H	 1.2570243828	 1.677499613	 0.1538333397	 0.125556
H	-0.4366148028	 1.9909468005	-0.2746962007	 0.119782
H	 0.0003555413	 1.4917690552	 1.3756065281	 0.154104
H	-1.0008417131	-0.4413219467	-0.0313765333	 0.106085
H	 0.4794901299	-1.4571606186	-1.8343374486	 0.128226
H	 1.6837323786	-0.0982927471	-1.5644465129	 0.127061
H	 3.0408394184	-0.4514761126	 2.5685897814	 0.238803
H	 3.1592089072	-2.3371053879	-0.3879524308	 0.096137
71.5062	137.2748	153.1638	207.8238	223.8187	306.6576	365.4522	391.6837	502.7827	571.8419	622.2732	800.3161	846.906	889.2462	911.9523	917.9765	1017.5071	1036.8941	1052.6601	1087.3376	1123.2446	1155.7544	1162.9712	1193.0454	1302.8932	1380.844	1404.0297	1421.5352	1456.4036	1484.9441	1491.2571	1513.6024	1688.4236	1825.1142	2922.7545	3047.2698	3097.2899	3112.6558	3123.5532	3138.0893	3188.4919	3438.2553
CC1CN1C(=N)C=O	C[C@H]1CN1[C]([NH])C=O	
InChI=1S/C5H8N2O/c1-4-2-7(4)5(6)3-8/h3-4,6H,2H2,1H3	InChI=1S/C5H8N2O/c1-4-2-7(4)5(6)3-8/h3-4,6H,2H2,1H3/t4-,7?/m0/s1
