14
gdb 50193	5.29882	1.08237	0.98295	3.2932	64.59	-0.2639	-0.0484	0.2155	1140.2493	0.09979	-473.783407	-473.775941	-473.774997	-473.816153	26.873	
N	-0.1626217588	 1.1405980861	-0.6404625634	-0.533134
C	-0.0799776431	 0.0105655944	-0.1170333774	 0.442295
O	 1.0314988947	-0.7161707746	 0.3233213251	-0.267786
C	 0.2095376803	-1.8548932367	 0.6793899169	 0.030291
C	-0.3622569381	-1.7565647707	 2.1151449348	 0.002787
O	-1.476096949	-0.9741131307	 1.6555112697	-0.273545
C	-1.0625684339	-1.0816560993	 0.2769305734	-0.013151
C	-0.7599603748	-3.0991127247	 2.6972723326	 0.134736
O	-1.8687856199	-3.5565519642	 2.6700051818	-0.217985
H	 0.7487001837	 1.5939562072	-0.7259607404	 0.239341
H	 0.5886483363	-2.7915643237	 0.2771459304	 0.122631
H	 0.2888751199	-1.2198243167	 2.8174795122	 0.121974
H	-1.8604463087	-1.3806818756	-0.4003679883	 0.127215
H	 0.1023740416	-3.6528575308	 3.1376925325	 0.08433
63.4397	112.6421	150.2344	263.2736	312.2984	352.9259	428.9636	637.6902	731.3303	758.1253	803.0878	826.4643	872.5587	907.2892	914.5904	948.1094	983.0597	1001.9204	1033.6159	1059.8506	1086.9499	1168.2248	1190.8759	1235.8449	1239.6702	1282.5213	1325.1585	1349.8383	1410.8895	1836.8326	1846.0467	2861.0006	3036.1515	3140.2727	3150.5086	3480.6598
N=C1OC2C(OC12)C=O	[NH][C]1O[C@H]2[C@@H](O[C@@H]12)C=O	
InChI=1S/C5H5NO3/c6-5-4-3(9-5)2(1-7)8-4/h1-4,6H	InChI=1S/C5H5NO3/c6-5-4-3(9-5)2(1-7)8-4/h1-4,6H/t2-,3-,4+/m0/s1
