15
gdb 66713	2.87487	1.69773	1.2824	3.6023	74.33	-0.2357	-0.0002	0.2355	973.5713	0.112303	-379.566661	-379.559364	-379.55842	-379.598381	27.922	
C	-0.0906610736	 1.5016811762	 0.0164009807	-0.525364
C	 0.0243128321	 0.0164731745	-0.0062220182	 0.267062
C	 0.8989211136	-0.9856525925	-0.8121572395	-0.110366
C	-0.1825314023	-2.0014929537	-0.8078011886	-0.131601
N	 0.8334692817	-2.0013698479	 0.2989305353	-0.168134
C	-0.0490555929	-1.025997515	 1.0673439072	-0.115285
C	-1.118202421	-1.0476909616	-0.0219090849	 0.237153
C	-2.5134221644	-0.8484475627	 0.0394039597	 0.121064
N	-3.6593293028	-0.6781477637	 0.0862606401	-0.35894
H	 0.8516279444	 1.9615333436	 0.3339695689	 0.138097
H	-0.3471260775	 1.8961682894	-0.9723377329	 0.140957
H	-0.8725836234	 1.8156238346	 0.7150373667	 0.146644
H	 1.7722373381	-0.8640757675	-1.4408848699	 0.113649
H	-0.3791845957	-2.8647331199	-1.4305371754	 0.119277
H	-0.1506033063	-0.9817645839	 2.1444496008	 0.125788
113.4176	156.9329	209.1042	259.6907	287.3818	501.6775	518.7049	545.2321	622.2856	682.0866	728.7341	770.8428	787.6146	858.9667	883.3644	914.4917	959.1366	970.2896	988.7888	999.9084	1065.4327	1094.1925	1122.1826	1181.3604	1194.3393	1232.8973	1313.5909	1340.5398	1410.3822	1446.5052	1478.2552	1495.1889	2331.5897	3031.5162	3096.3642	3108.2032	3189.6933	3199.4363	3204.7937
CC12C3C4N3C1C24C#N	C[C@@]12[C@@H]3[C@H]4N3[C@@H]1[C@@]24C#N	
InChI=1S/C7H6N2/c1-6-3-4-7(6,2-8)5(6)9(3)4/h3-5H,1H3	InChI=1S/C7H6N2/c1-6-3-4-7(6,2-8)5(6)9(3)4/h3-5H,1H3/t3-,4+,5-,6+,7-,9?/m0/s1
