16
gdb 27211	3.2945	1.63078	1.09831	1.4376	81.36	-0.1721	-0.0035	0.1685	1044.3786	0.126607	-400.786877	-400.779642	-400.778698	-400.818315	28.54	
O	 0.0876979756	 1.4019679072	-0.0720883239	-0.445889
C	 0.0697914574	 0.0368810464	-0.035109991	 0.154728
C	 0.0384952957	-0.7738093521	-1.1542299467	 0.303085
C	 0.0118429282	-0.8047324462	-2.5972278363	-0.211647
C	-0.0130711773	-2.0847090228	-3.014562984	-0.113188
C	-0.0043168749	-3.0267417193	-1.8233713634	-0.241914
N	 0.0286733035	-2.0877292894	-0.7097891969	-0.026868
C	 0.0526734679	-2.1268882292	 0.6479613187	-0.112475
C	 0.0788281671	-0.8167094924	 1.1033888988	-0.284697
H	 0.1084721701	 1.7279291687	 0.831867648	 0.295462
H	 0.0124327295	 0.0755538061	-3.2243255215	 0.115442
H	-0.0363713393	-2.4401229382	-4.0344344562	 0.103443
H	-0.89767789	-3.664172694	-1.7852422504	 0.129553
H	 0.8721673934	-3.6882620145	-1.8173510002	 0.129549
H	 0.049939947	-3.0553041564	 1.1964689515	 0.117377
H	 0.1018071762	-0.5081564737	 2.1387279035	 0.08804
147.3422	191.3359	217.8806	274.8195	328.1859	451.5801	523.506	610.9684	612.9984	666.6678	683.1589	684.9684	738.2349	756.6663	788.8079	873.1159	936.7851	943.929	993.6576	1029.2972	1077.7125	1104.577	1159.8887	1183.8729	1254.1541	1272.7147	1291.7341	1353.7547	1369.4325	1435.9179	1470.6163	1484.3134	1515.9948	1606.7011	1670.2844	3011.0822	3036.5007	3229.7095	3230.4934	3251.1685	3262.5697	3846.8315
OC1=C2C=CCN2C=C1	Oc1c2C=CCn2cc1	
InChI=1S/C7H7NO/c9-7-3-5-8-4-1-2-6(7)8/h1-3,5,9H,4H2	InChI=1S/C7H7NO/c9-7-3-5-8-4-1-2-6(7)8/h1-3,5,9H,4H2
