20
gdb 69847	2.23474	2.09315	1.51207	1.0091	77.53	-0.217	0.0622	0.2791	967.7148	0.171958	-403.080275	-403.072519	-403.071575	-403.111739	32.303	
C	 0.0020116354	 1.4663070099	-0.0613882226	-0.477801
C	-0.0122098197	-0.0398203636	-0.0316691929	 0.324405
C	-0.8856412661	-0.8218500004	 0.9256184589	-0.371237
C	 0.6138876322	-0.9424331673	 1.0104507785	-0.040083
N	 1.3648228408	-1.9689563489	 0.2150337027	-0.144471
C	 0.3952569322	-2.2883729614	-0.9060675599	-0.250799
C	 0.5295083188	-0.7928166439	-1.2723235832	 0.317699
O	 0.1400442889	-0.2214466368	-2.479060697	-0.483724
C	 2.0128259182	-1.0223736294	-0.7887700201	-0.230251
H	 0.9675895491	 1.8526173888	-0.4068887676	 0.115147
H	-0.7653335251	 1.8532087087	-0.7404050983	 0.129888
H	-0.188688829	 1.8802331635	 0.9337599458	 0.110348
H	-1.3223329001	-0.2267100586	 1.7231617417	 0.109619
H	-1.527835386	-1.6352065048	 0.6118948932	 0.115508
H	 1.1430621241	-0.5891904122	 1.88801725	 0.093189
H	 0.8916633004	-2.9480375608	-1.6228080501	 0.096488
H	-0.560234252	-2.7256861723	-0.6212630774	 0.106926
H	 0.5493984846	-0.7128736122	-3.1984578108	 0.282673
H	 2.5601340581	-0.1878222194	-0.3442705427	 0.10405
H	 2.6461562352	-1.5744168887	-1.4902997183	 0.092424
179.653	194.6553	244.9433	283.2955	332.4717	380.7291	419.0519	475.4499	536.9546	573.016	611.9848	621.2771	723.2237	787.6749	819.7376	857.4176	883.3654	920.0817	946.4497	965.6621	982.5109	995.3799	1050.3507	1061.0721	1074.5412	1094.9925	1114.633	1121.5251	1138.4808	1200.6598	1213.3427	1222.602	1248.7526	1272.3861	1303.2766	1366.761	1397.7768	1418.762	1480.7204	1483.6324	1500.929	1505.9743	1549.6124	3027.422	3049.4666	3070.6771	3088.6038	3100.5163	3119.5936	3127.2344	3142.739	3174.4839	3208.4171	3815.9846
CC12CC1N1CC2(O)C1	C[C@]12C[C@H]1N1C[C@]2(O)C1	
InChI=1S/C7H11NO/c1-6-2-5(6)8-3-7(6,9)4-8/h5,9H,2-4H2,1H3	InChI=1S/C7H11NO/c1-6-2-5(6)8-3-7(6,9)4-8/h5,9H,2-4H2,1H3/t5-,6+/m1/s1
