18
gdb 118619	2.82455	0.76014	0.62587	3.0433	73.5	-0.264	-0.0384	0.2255	1713.9021	0.144824	-439.100227	-439.089772	-439.088828	-439.137361	35.072	
O	-0.1234105585	 1.5040536805	 0.0027260412	-0.417814
C	 0.0423144944	 0.0991465589	-0.075128156	-0.091708
C	-1.3489855095	-0.5163941425	 0.0301272369	-0.176647
C	-1.3464403116	-2.0597106236	 0.0375169747	-0.168997
C	-2.7766727041	-2.6218700622	 0.2384310518	-0.288641
C	-2.8229167016	-4.1339997917	 0.3545359675	 0.146332
O	-3.3705356087	-4.7187696428	 1.2523021851	-0.232432
C	-0.7481507356	-2.5899683623	-1.1947354265	 0.285895
N	-0.2868826536	-2.9995643037	-2.1725529329	-0.330561
H	 0.7309169739	 1.918770713	-0.14813565	 0.292707
H	 0.5147700827	-0.2012347626	-1.0219632184	 0.116119
H	 0.6781864023	-0.2768240498	 0.7439932265	 0.090404
H	-1.8162567116	-0.1702131362	 0.95776222	 0.123851
H	-1.9655412696	-0.1518201232	-0.7982392032	 0.128231
H	-0.7198016898	-2.4032584406	 0.8715552302	 0.139043
H	-3.2178082137	-2.1929236129	 1.1414573698	 0.135398
H	-3.3944482741	-2.327886117	-0.6207326916	 0.142179
H	-2.3112881014	-4.6837211315	-0.4657447851	 0.10664
48.9531	63.8884	87.6912	101.6233	128.2827	166.8053	249.9875	256.3194	289.4627	326.2706	430.124	488.5129	565.0208	616.3762	778.8041	816.2122	840.3446	978.9739	994.332	1031.4275	1066.8898	1097.6098	1109.1135	1120.7908	1207.55	1224.8284	1242.8542	1286.9253	1311.8811	1330.1704	1351.5279	1364.3175	1430.9084	1459.0716	1468.9854	1490.8964	1529.1469	1835.5852	2352.3544	2899.5327	2962.1165	3011.126	3022.2258	3034.6366	3051.7924	3099.5836	3114.7014	3833.9118
OCCC(CC=O)C#N	OCC[C@@H](CC=O)C#N	
InChI=1S/C6H9NO2/c7-5-6(1-3-8)2-4-9/h3,6,9H,1-2,4H2	InChI=1S/C6H9NO2/c7-5-6(1-3-8)2-4-9/h3,6,9H,1-2,4H2/t6-/m1/s1
