14
gdb 132823	2.95209	1.50113	0.99511	1.4859	82.15	-0.2349	-0.0357	0.1992	1099.8901	0.101056	-407.553046	-407.545763	-407.544819	-407.584756	28.298	
F	-0.0046025239	 0.0321315851	 0.0043462927	-0.05792
C	-0.0218938003	 1.3648446359	 0.0108639727	 0.210928
C	-1.2415075629	 2.0212829796	 0.0296782369	-0.227764
C	-1.262524588	 3.4134243825	 0.0365207777	-0.108515
C	-0.0679841962	 4.1320996512	 0.0245200427	-0.104722
C	 1.1469631502	 3.4596663984	 0.0056925825	-0.187647
C	 1.1974236604	 2.0559253121	-0.0015846577	 0.011214
C	 2.4338432266	 1.3542598259	-0.0208333791	 0.235297
C	 3.4914106172	 0.7796049898	-0.0371203618	-0.410809
H	-2.1519309787	 1.4338622683	 0.0386373602	 0.115862
H	-2.2139464876	 3.9335821602	 0.0512365314	 0.11018
H	-0.0834923248	 5.2160254607	 0.0298350507	 0.10423
H	 2.0817787201	 4.0078212915	-0.0037672561	 0.113553
H	 4.4191868179	 0.2635473087	-0.0513506228	 0.196114
127.6418	139.1123	243.159	366.4261	381.9304	455.0183	492.1826	559.5848	564.1365	591.6773	592.5246	647.9367	740.0433	751.2187	780.4565	851.619	886.3983	946.7662	973.2693	1054.3003	1121.3693	1176.4794	1214.7371	1277.0512	1299.0309	1331.1851	1480.3823	1523.2814	1610.8944	1647.0665	2231.0835	3183.2513	3195.5511	3206.6308	3211.9045	3503.077
FC1=CC=CC=C1C#C	Fc1ccccc1C#C	
InChI=1S/C8H5F/c1-2-7-5-3-4-6-8(7)9/h1,3-6H	InChI=1S/C8H5F/c1-2-7-5-3-4-6-8(7)9/h1,3-6H
