22
gdb 11569	5.51655	0.92751	0.84587	1.3037	78.72	-0.2546	0.0699	0.3245	1433.7794	0.198776	-350.196575	-350.186822	-350.185878	-350.231726	35.498	
C	 0.0157899112	 1.5350147427	-0.2043298638	-0.380781
C	-0.0135841232	 0.0269181567	 0.0535547865	-0.184412
C	-1.4290606315	-0.5656960032	 0.009885314	 0.140253
O	-2.0665608543	-0.2968570283	-1.2375263969	-0.424688
C	-1.4395021745	-2.0634157361	 0.3512785235	-0.231736
C	-2.8233314711	-2.6755436913	 0.3898667846	 0.049629
C	-3.4494226293	-3.258817189	-0.8483472376	-0.240567
C	-3.0064614486	-4.1686024276	 0.2711098463	-0.284334
H	 1.0416084504	 1.9148169045	-0.2298622718	 0.106845
H	-0.4653054001	 1.7697613323	-1.1572629268	 0.127516
H	-0.5224810217	 2.0782047435	 0.5804362359	 0.112643
H	 0.6042661123	-0.4926372872	-0.6941671349	 0.082253
H	 0.4362167701	-0.1993822077	 1.0285780192	 0.093796
H	-2.0523848715	-0.0367048439	 0.7443580425	 0.082498
H	-1.5865346891	-0.7804131207	-1.9192128706	 0.273828
H	-0.8188186433	-2.602186298	-0.3811373742	 0.079095
H	-0.9451793614	-2.1990810003	 1.3229558898	 0.096361
H	-3.508663901	-2.1709860911	 1.0671970925	 0.079699
H	-4.5114007513	-3.1127550972	-1.0105329243	 0.111215
H	-2.8626047688	-3.2576236554	-1.7610363493	 0.096638
H	-2.1213514386	-4.7765927734	 0.1118648081	 0.105533
H	-3.7654263046	-4.6468232893	 0.8805416574	 0.108717
38.6545	76.4424	117.7909	139.9737	221.7445	253.2425	270.7655	309.1334	334.0379	410.5246	468.4888	539.4797	767.5916	776.6628	802.5056	835.5037	853.9016	907.2093	936.8867	958.7458	999.5752	1039.3747	1051.3612	1063.3828	1072.977	1109.8193	1119.6559	1136.9473	1158.7727	1195.1408	1228.8516	1245.5651	1266.9753	1294.7005	1351.3636	1357.2808	1387.8506	1405.894	1418.6979	1424.4017	1467.4926	1473.046	1484.8421	1495.7742	1507.9258	1510.1225	2990.5577	2997.9587	3018.2531	3034.1926	3037.1552	3052.3779	3100.5516	3123.0679	3126.8027	3130.1333	3134.3859	3204.3906	3220.0429	3795.4551
CCC(O)CC1CC1	CC[C@@H](O)CC1CC1	
InChI=1S/C7H14O/c1-2-7(8)5-6-3-4-6/h6-8H,2-5H2,1H3	InChI=1S/C7H14O/c1-2-7(8)5-6-3-4-6/h6-8H,2-5H2,1H3/t7-/m1/s1
