20
gdb 59238	2.46082	1.46077	1.07321	2.2613	74.29	-0.2423	0.0481	0.2904	1167.668	0.169951	-440.229088	-440.219796	-440.218852	-440.263044	35.094	
C	 0.8901746705	-0.5143660105	-1.3116255741	-0.391876
C	 0.0438557598	 0.1315028255	-0.2211424038	 0.141455
O	-0.1149820774	 1.505112148	-0.5594696655	-0.448377
C	-1.3323686791	-0.5079508646	-0.1000265626	-0.018286
C	-1.5584610694	-1.9019945077	 0.571937115	 0.064109
O	-0.4760698584	-2.5558700041	 1.202151693	-0.427121
C	-2.4774205161	-1.1853567192	 1.5474947772	-0.033341
C	-1.7525519589	-0.1054028704	 2.2373740726	-0.247195
N	-2.2705750766	 0.1691470169	 0.8787391064	-0.169514
H	 1.8310829638	 0.0310688226	-1.4226816953	 0.130429
H	 1.1245501045	-1.5525530691	-1.0567447268	 0.097689
H	 0.3678273611	-0.4925646419	-2.2733125972	 0.121115
H	 0.5837260327	 0.0391554771	 0.7331644536	 0.072364
H	-0.8475976203	 1.8445842497	-0.0310446686	 0.294252
H	-1.8177680473	-0.4647356359	-1.080378302	 0.084978
H	-2.0998428372	-2.5859381762	-0.0914205205	 0.080242
H	-0.0244919437	-3.0983853642	 0.5482325097	 0.288993
H	-3.4602126463	-1.5264529351	 1.8535249592	 0.098778
H	-2.2957231097	 0.4445078325	 2.9991583747	 0.124305
H	-0.686839402	-0.2004958032	 2.416289775	 0.137001
67.8336	133.975	141.6732	221.496	227.24	260.3975	309.0333	318.1843	380.7755	460.0179	499.0766	532.7206	590.5892	752.8198	766.7191	788.7214	847.5452	911.4618	953.6157	962.8284	989.6355	1018.8096	1064.0026	1081.8783	1106.0093	1120.1282	1138.5192	1150.4005	1188.0195	1196.9514	1238.0522	1262.4258	1298.6509	1310.7312	1314.0819	1371.3801	1378.8915	1405.5274	1432.2065	1438.9737	1483.8794	1499.2917	1502.3521	2987.4135	3034.1554	3039.7926	3060.3926	3112.8138	3120.5328	3130.0917	3174.0498	3217.1132	3783.3809	3822.6453
CC(O)C1C(O)C2CN12	C[C@@H](O)[C@H]1[C@@H](O)[C@H]2CN12	
InChI=1S/C6H11NO2/c1-3(8)5-6(9)4-2-7(4)5/h3-6,8-9H,2H2,1H3	InChI=1S/C6H11NO2/c1-3(8)5-6(9)4-2-7(4)5/h3-6,8-9H,2H2,1H3/t3-,4-,5+,6+,7?/m1/s1
