17
gdb 69291	3.90611	1.12287	0.98847	1.7117	83.92	-0.2218	-0.0199	0.2019	1204.198	0.134882	-384.654632	-384.646457	-384.645512	-384.686937	32.387	
O	-0.1829985076	 1.3867906823	 0.0366447551	-0.468347
C	-0.084061773	-0.0043977829	 0.0451446864	 0.39523
C	-0.4752155487	-0.7800424327	-1.1844611693	-0.340799
C	-1.3447276106	-0.8355625891	 0.0668420025	-0.209266
C	-1.0592196519	-1.9786327795	 0.9966849039	 0.21967
C	 0.1896480069	-1.8905978438	 1.4923701464	-0.191536
C	 0.9071794405	-0.6512749381	 1.0179554305	-0.331637
C	-2.0060391591	-2.9959257857	 1.2668628937	 0.208844
C	-2.8440704022	-3.8363662549	 1.4761466792	-0.423863
H	 0.5036550042	 1.7318206318	-0.5443683282	 0.283069
H	-0.8651637682	-0.1900390781	-2.0074268792	 0.114493
H	 0.0821038539	-1.6676771728	-1.4672584874	 0.113782
H	-2.3292773877	-0.3854810189	 0.0359419386	 0.10514
H	 0.6401719166	-2.618810241	 2.1554746178	 0.102287
H	 1.8744805818	-0.8805963924	 0.5521607499	 0.109192
H	 1.1116248887	 0.0384231935	 1.8484713324	 0.122647
H	-3.5720364036	-4.5848049177	 1.6683672076	 0.191095
113.2481	143.1844	228.5311	276.5805	320.8129	374.3797	397.7516	425.118	518.6726	528.4713	583.4285	622.3868	634.9402	644.9214	747.4509	818.042	834.2217	893.1417	919.2649	963.8378	980.6322	1006.3549	1014.1626	1061.4331	1082.1117	1147.8474	1169.4979	1238.2366	1243.6696	1289.5026	1316.2961	1348.1728	1399.4682	1463.2126	1482.006	1650.8497	2222.3166	3013.5251	3043.5964	3122.0302	3193.6562	3211.5577	3217.3932	3504.0405	3796.2461
OC12CC1C(=CC2)C#C	O[C@]12C[C@H]1C(=CC2)C#C	
InChI=1S/C8H8O/c1-2-6-3-4-8(9)5-7(6)8/h1,3,7,9H,4-5H2	InChI=1S/C8H8O/c1-2-6-3-4-8(9)5-7(6)8/h1,3,7,9H,4-5H2/t7-,8+/m0/s1
