21
gdb 113538	2.26837	1.21322	1.1426	0.5347	78.77	-0.2228	0.0662	0.289	1246.9807	0.181026	-424.187678	-424.17802	-424.177076	-424.222537	35.609	
C	-0.4380970863	 1.2166864707	-0.0566176123	-0.407438
C	-0.0402411845	-0.249612931	 0.0349864683	-0.123491
C	 1.2484419246	-0.6737131499	-0.7097346641	-0.08976
O	 1.8928883657	-1.0694471385	 0.5245918055	-0.315202
C	 0.734926854	-0.7073100402	 1.2741759788	 0.468972
C	 0.8369093496	-0.1186785824	 2.6435940839	-0.379538
C	 0.2715465756	-1.5231050663	 2.4362573572	-0.1287
C	-1.2023970172	-1.7933043612	 2.6249818501	-0.077409
O	-1.7211870961	-2.7394800409	 1.6956823673	-0.415018
H	 0.409880184	 1.8716307396	 0.1696829006	 0.121855
H	-0.7964715343	 1.4605013191	-1.0625904001	 0.11756
H	-1.2438852808	 1.4558907742	 0.6457577997	 0.11759
H	-0.8922902385	-0.899970203	-0.1768038528	 0.104263
H	 1.1500578277	-1.5159072421	-1.4039683048	 0.103077
H	 1.7903243991	 0.1420955949	-1.2042904485	 0.099115
H	 1.8287551621	-0.0374085615	 3.0750930635	 0.122641
H	 0.152018769	 0.6755562912	 2.9267404143	 0.112572
H	 0.9363879158	-2.3369707499	 2.7209685818	 0.089034
H	-1.4033746914	-2.1065201448	 3.6617212342	 0.092208
H	-1.7758068135	-0.875950569	 2.4530460791	 0.105126
H	-1.2023341044	-3.5460655392	 1.7782775983	 0.28254
61.1171	85.8366	133.1171	152.0648	213.7897	225.2765	290.2024	344.6436	366.4837	407.3549	476.0175	523.5426	599.4444	761.8732	810.4391	870.571	890.5376	901.7235	927.6716	969.7275	993.5494	1013.5016	1028.471	1059.612	1077.0373	1101.2137	1121.77	1122.6966	1150.6513	1182.2001	1196.7989	1241.6772	1264.4413	1319.8474	1344.6873	1368.9678	1389.3861	1408.6123	1413.0917	1430.2612	1482.9953	1494.982	1497.7177	1506.4134	1528.0596	2979.4573	3016.8149	3029.2176	3061.6013	3065.6274	3081.7444	3095.0547	3106.2476	3121.3815	3124.891	3212.6166	3816.4109
CC1COC11CC1CO	C[C@H]1CO[C@]21C[C@H]2CO	
InChI=1S/C7H12O2/c1-5-4-9-7(5)2-6(7)3-8/h5-6,8H,2-4H2,1H3	InChI=1S/C7H12O2/c1-5-4-9-7(5)2-6(7)3-8/h5-6,8H,2-4H2,1H3/t5-,6-,7-/m0/s1
