14
gdb 33820	2.31268	1.5537	1.14283	4.4371	73.7	-0.2624	-0.0392	0.2232	1058.137	0.102073	-395.704231	-395.696526	-395.695582	-395.736685	28.469	
N	 0.0144238722	-1.1792206033	-0.0848432468	-0.336153
C	 0.0065945752	-0.0221006839	-0.0505800106	 0.222721
C	-0.0116077066	 1.3984635313	 0.0126609973	 0.094072
C	 0.2727601373	 2.2834993235	-1.1831930568	-0.331674
C	 1.1545898472	 2.4375899324	 0.0159841006	 0.199753
N	 0.4568008859	 3.2739675547	 1.0080987624	-0.358838
C	-0.6090686388	 2.2280756002	 1.1612803045	-0.216466
C	 2.5653960315	 2.238152773	 0.0228355208	 0.215315
N	 3.7129294786	 2.0924456447	 0.0553233067	-0.32962
H	 0.7094360426	 1.7635909735	-2.0280735157	 0.166137
H	-0.4052316695	 3.0982760383	-1.4180057572	 0.148339
H	 1.0007101727	 3.3678610188	 1.8593817023	 0.249985
H	-1.6246641821	 2.6036961638	 1.0097092384	 0.133761
H	-0.5490340362	 1.693551933	 2.111936854	 0.142668
89.3704	147.2038	178.4191	218.5469	315.9832	418.9417	438.551	510.113	560.4708	570.0758	634.1392	665.5377	764.557	795.6469	816.0943	951.7094	973.6315	1009.0649	1023.4097	1101.1792	1141.8942	1155.0751	1220.2834	1262.0163	1287.6247	1361.4829	1416.6566	1479.6523	1511.0339	2346.4757	2349.1246	3061.661	3119.3118	3132.3213	3237.435	3540.0867
N#CC12CC1(NC2)C#N	N#C[C@]12C[C@]1(NC2)C#N	
InChI=1S/C6H5N3/c7-2-5-1-6(5,3-8)9-4-5/h9H,1,4H2	InChI=1S/C6H5N3/c7-2-5-1-6(5,3-8)9-4-5/h9H,1,4H2/t5-,6-/m0/s1
