23
gdb 84841	2.15046	1.78594	1.19289	0.2618	90.64	-0.2342	0.0297	0.2639	1155.7015	0.206883	-351.170131	-351.161315	-351.16037	-351.202914	35.475	
C	-0.959884827	 0.9959198257	 0.0681989766	-0.394314
C	 0.1066876619	-0.1033565848	-0.1010770502	-0.100366
C	 1.0419300618	 0.2370490803	-1.2348536969	-0.03692
C	 2.3527756559	 0.0060644883	-1.2481831013	-0.088731
C	 3.1017454441	-0.63929848	-0.1166792707	-0.280456
C	 2.3249644721	-0.6559192922	 1.1864681529	-0.077468
C	 1.7796423393	 0.6296785828	 1.7634516783	-0.327046
C	 0.8305137586	-0.4125276079	 1.2135654122	 0.362563
C	 0.0161181763	-1.2162207143	 2.2102043392	-0.472606
H	-0.4981259211	 1.9467124967	 0.3529674124	 0.119143
H	-1.5051858238	 1.153549244	-0.8684304074	 0.108162
H	-1.6915436789	 0.7323796795	 0.8372153208	 0.112414
H	-0.4283516876	-1.0229184025	-0.3914713591	 0.078694
H	 0.5735206058	 0.6923379731	-2.105665527	 0.078529
H	 2.9340513549	 0.2746962719	-2.127174586	 0.082495
H	 3.355312377	-1.6715864198	-0.4016730821	 0.108862
H	 4.0681701166	-0.1347498471	 0.0255376137	 0.103043
H	 2.692278459	-1.3772285671	 1.9120451156	 0.073704
H	 1.8205860893	 0.7738824579	 2.8381828339	 0.101065
H	 1.9285953308	 1.536545955	 1.1855525942	 0.111114
H	-0.9031400856	-0.6958174791	 2.5019175669	 0.115353
H	-0.2720539592	-2.1884519249	 1.7920585007	 0.112101
H	 0.5881500498	-1.4046598655	 3.1242877132	 0.110665
91.2797	193.5547	223.51	240.6417	256.2362	284.1242	340.4369	378.983	401.1022	488.3548	505.9841	575.3403	654.9786	735.6237	772.8433	801.21	857.1836	892.7744	918.8672	928.1936	952.857	994.5927	1004.0668	1025.1169	1048.8501	1063.5671	1091.7328	1107.4038	1119.5639	1132.9484	1160.1687	1211.9416	1231.0648	1240.7027	1315.8987	1324.344	1356.0106	1370.9575	1401.2725	1411.2234	1421.7481	1429.416	1478.6913	1488.5068	1490.5029	1499.192	1502.4262	1505.6368	1729.2456	2959.5993	2992.0067	3013.6257	3020.3759	3034.654	3079.5697	3095.2746	3100.8246	3111.6986	3121.7235	3132.6008	3132.8121	3159.7715	3205.7317
CC1C=CCC2CC12C	C[C@H]1C=CC[C@H]2C[C@@]12C	
InChI=1S/C9H14/c1-7-4-3-5-8-6-9(7,8)2/h3-4,7-8H,5-6H2,1-2H3	InChI=1S/C9H14/c1-7-4-3-5-8-6-9(7,8)2/h3-4,7-8H,5-6H2,1-2H3/t7-,8-,9-/m0/s1
