15
gdb 10586	2.96974	1.74695	1.33761	2.886	67.62	-0.2766	-0.0508	0.2258	936.9028	0.117332	-362.680634	-362.672508	-362.671564	-362.712981	29.116	
C	 0.0880886201	 1.5305993435	 0.0427658902	-0.428362
C	 0.1084404706	 0.0208583855	 0.0314788999	-0.019856
C	 1.3413054336	-0.7650772145	-0.2016843149	-0.303507
C	 0.7312649301	-0.80073834	 1.2075449306	 0.057546
C	 1.4663589063	-0.0842471431	 2.2973947518	 0.099193
O	 2.2740457807	 0.7898311879	 2.1010288162	-0.260173
C	 0.015987699	-1.9766199797	 1.6212048702	 0.217875
N	-0.5575454819	-2.9183787185	 1.972108571	-0.331969
H	 1.0133655963	 1.9447016445	 0.4450936075	 0.162297
H	-0.0347593554	 1.8937470712	-0.9831466667	 0.133126
H	-0.7513176026	 1.9092248199	 0.6338700325	 0.13207
H	-0.8097670688	-0.4418340234	-0.319295229	 0.127834
H	 1.2922500049	-1.6852930025	-0.771137443	 0.148107
H	 2.281878351	-0.2258286545	-0.2441228887	 0.156335
H	 1.2091459061	-0.4205754562	 3.3220135524	 0.109484
141.2747	148.0262	162.7914	197.3766	215.9951	266.434	349.5159	425.4656	520.9893	552.2904	568.1403	716.1586	737.4092	875.3389	913.3371	939.5027	1021.8666	1052.3748	1077.5082	1107.013	1125.4667	1203.6276	1247.9136	1292.7839	1393.4989	1421.3527	1433.4564	1471.6864	1496.6684	1502.0399	1807.1174	2349.3545	2932.8089	3044.1907	3104.1892	3142.0718	3143.2623	3161.2338	3241.3976
CC1CC1(C=O)C#N	C[C@H]1C[C@]1(C=O)C#N	
InChI=1S/C6H7NO/c1-5-2-6(5,3-7)4-8/h4-5H,2H2,1H3	InChI=1S/C6H7NO/c1-5-2-6(5,3-7)4-8/h4-5H,2H2,1H3/t5-,6+/m0/s1
