20
gdb 63111	2.27742	1.6532	1.18583	1.6252	87.27	-0.2254	0.0204	0.2458	1128.2239	0.169036	-365.942504	-365.933317	-365.932372	-365.975591	35.895	
C	-0.0521440948	 1.5671429865	 0.0186911586	-0.472714
C	 0.0113903488	 0.0524597981	 0.0832455325	 0.293066
C	-1.2542829705	-0.6110634371	-0.4290918853	-0.452485
N	 1.2056264056	-0.7194423758	-0.3237048844	-0.209076
C	 2.4314917552	 0.0475063381	 0.0915932767	-0.156554
C	 2.033978964	 0.0393686419	 1.5847279881	-0.321585
C	 0.7471668756	-0.6837180415	 1.1599278096	 0.119283
C	 0.2134044647	-1.7998107654	 1.8690547559	 0.218915
C	-0.2222064584	-2.71665198	 2.5165336356	-0.408059
H	 0.7846296349	 2.0714271491	 0.5031822606	 0.122213
H	-0.0862605255	 1.8954568833	-1.0265265726	 0.126608
H	-0.9704304259	 1.9151068673	 0.5024118258	 0.126515
H	-1.4687090157	-0.2673154112	-1.4465117435	 0.116503
H	-1.1444916396	-1.6959866733	-0.4502637815	 0.140351
H	-2.1098198462	-0.3584910087	 0.205860371	 0.11656
H	 3.316900291	-0.55259819	-0.1246553969	 0.114739
H	 2.5387373987	 1.0183529479	-0.4005288517	 0.106249
H	 2.6776434795	-0.601480078	 2.1880955895	 0.124192
H	 1.9071491735	 0.9949069539	 2.1009909745	 0.106494
H	-0.6092686548	-3.5314098551	 3.0767219274	 0.188786
126.1876	146.305	170.818	201.4791	265.7878	283.1191	323.4201	368.1111	392.8529	465.319	512.3729	554.381	589.6875	605.0144	655.9537	661.261	743.2081	797.1618	846.2186	928.4362	963.7127	970.96	975.7711	1032.8696	1055.6388	1122.4909	1145.192	1155.9099	1196.2188	1221.0673	1259.7368	1287.3239	1309.3852	1390.7816	1411.9725	1422.3656	1476.2849	1481.4359	1489.9991	1507.6052	1509.7245	1520.6784	2225.7406	3036.4797	3041.3358	3059.3115	3065.9758	3095.7981	3102.3212	3110.0476	3132.0903	3139.0304	3144.0371	3501.9679
CC1(C)N2CCC12C#C	CC1(C)N2CC[C@@]12C#C	
InChI=1S/C8H11N/c1-4-8-5-6-9(8)7(8,2)3/h1H,5-6H2,2-3H3	InChI=1S/C8H11N/c1-4-8-5-6-9(8)7(8,2)3/h1H,5-6H2,2-3H3/t8-,9?/m0/s1
