20
gdb 111076	3.651	1.09736	1.07169	2.2748	79.07	-0.2165	-0.0104	0.2061	1230.5943	0.172377	-403.132056	-403.123981	-403.123037	-403.164815	31.533	
C	-0.4949594513	 1.4954000435	-0.2672902655	-0.378422
C	-0.0254810147	 0.0605983989	-0.0007602714	-0.228399
C	 0.6229858879	-0.5580408504	-1.2312758354	 0.06668
C	 0.8570647915	-2.1068608505	-1.2763436982	-0.159585
C	-0.6134251297	-2.1410401313	-1.7819639769	-0.204149
N	-0.3222974209	-0.790855885	-2.4119525788	-0.130259
C	 0.6648358345	-1.2068419703	-3.4472733337	-0.289819
C	 1.5574288776	-2.1799773131	-2.6291880488	 0.416706
O	 2.5252606218	-2.800727827	-2.9724536217	-0.329501
H	 0.345607699	 2.1418476055	-0.5429258254	 0.114121
H	-1.2152642127	 1.5147065107	-1.0894097067	 0.141348
H	-0.9684966261	 1.9245652515	 0.6203542459	 0.113592
H	 0.7165637109	 0.0500175903	 0.8075068096	 0.104816
H	-0.8677425255	-0.5435684226	 0.3508332927	 0.103019
H	 1.4866685838	 0.0565261777	-1.5143348712	 0.07958
H	 1.2641571465	-2.7068923974	-0.4641778262	 0.083183
H	-0.9074495262	-2.9229325063	-2.4877780921	 0.113368
H	-1.3638206802	-2.056818235	-0.9974103612	 0.122319
H	 0.1744047433	-1.7044000005	-4.2887250947	 0.130051
H	 1.2296249104	-0.3516401389	-3.8285132104	 0.131352
81.5215	145.4305	157.348	213.8002	324.4577	363.8405	458.0096	475.1498	518.7174	610.4977	617.2752	741.9761	766.2094	830.6256	847.2099	864.4473	869.0718	944.6307	977.5114	993.7571	1009.2255	1029.4743	1076.4826	1097.365	1102.807	1158.8717	1167.83	1187.1024	1212.1002	1231.6998	1249.8074	1266.0113	1288.8509	1301.7117	1352.0971	1407.2304	1426.3765	1471.0106	1483.2277	1496.4601	1509.5213	1532.783	1875.8456	3025.2334	3034.1471	3038.4272	3062.3377	3069.1954	3076.573	3106.0862	3114.2457	3124.3765	3134.6286	3144.1909
CCC1C2CN1CC2=O	CC[C@H]1[C@H]2CN1CC2=O	
InChI=1S/C7H11NO/c1-2-6-5-3-8(6)4-7(5)9/h5-6H,2-4H2,1H3	InChI=1S/C7H11NO/c1-2-6-5-3-8(6)4-7(5)9/h5-6H,2-4H2,1H3/t5-,6+/m1/s1
