23
gdb 116165	3.02331	1.0988	0.8556	1.5573	82.94	-0.2551	0.0941	0.3492	1440.9834	0.205726	-425.451516	-425.442005	-425.441061	-425.485683	36.145	
C	-0.0471325766	 1.4992835386	 0.0443783008	-0.384301
C	 0.0142899997	-0.0271918256	-0.0323638417	-0.206263
C	 0.7436575127	-0.5295005635	-1.2659753492	 0.225453
O	 2.0790455371	-0.0810016932	-1.2135723693	-0.248631
C	 2.8247278382	-0.5199407164	-2.33879675	-0.091535
C	 2.7833884816	-2.0451785413	-2.4448586848	-0.203843
C	 1.3227558963	-2.5109548553	-2.4147378415	 0.140242
C	 1.1616896772	-4.0187234691	-2.3143060742	-0.40342
O	 0.6649118357	-1.9354900891	-1.2850855478	-0.268027
H	 0.9584094861	 1.9268925651	 0.0549687568	 0.134175
H	-0.5821922803	 1.9203383399	-0.814353017	 0.110276
H	-0.5682404377	 1.8221121086	 0.9502706366	 0.111612
H	 0.528908049	-0.4390029029	 0.8423740738	 0.11268
H	-0.9916914848	-0.4589052374	-0.0479669003	 0.104844
H	 0.2775724466	-0.1351993059	-2.1932209154	 0.045605
H	 2.4168409726	-0.0666447717	-3.2589483275	 0.086239
H	 3.8437556254	-0.1478294752	-2.203387754	 0.108612
H	 3.2737441781	-2.3784014386	-3.366678005	 0.094655
H	 3.3168986186	-2.4849821594	-1.5946919745	 0.10856
H	 0.8221426064	-2.1490179141	-3.3314803104	 0.06107
H	 1.6455566268	-4.393697106	-1.4072602828	 0.125449
H	 0.1026085175	-4.2873854101	-2.2738003351	 0.12369
H	 1.6146717941	-4.5114974477	-3.1800644575	 0.11286
80.1547	131.158	159.3308	186.7569	217.1711	247.4316	288.9553	301.6168	393.448	442.4986	469.8877	506.6179	546.7782	667.3274	769.9678	822.7787	893.2386	899.3166	909.7033	956.1456	973.0954	990.3579	1045.5921	1060.6784	1097.2593	1121.4098	1144.9584	1154.9136	1193.7859	1202.5128	1243.585	1269.4082	1295.4959	1333.1793	1338.8696	1361.9023	1391.7557	1399.6923	1407.0939	1408.7956	1421.6118	1437.6668	1468.2427	1479.2028	1482.958	1497.7682	1499.2855	1502.7231	1511.2203	2883.3933	2935.0998	2960.1161	3035.7825	3037.8477	3042.4432	3050.4013	3084.6049	3088.1283	3091.2781	3105.2969	3115.8879	3120.4527	3127.345
CCC1OCCC(C)O1	CC[C@H]1OCC[C@@H](C)O1	
InChI=1S/C7H14O2/c1-3-7-8-5-4-6(2)9-7/h6-7H,3-5H2,1-2H3	InChI=1S/C7H14O2/c1-3-7-8-5-4-6(2)9-7/h6-7H,3-5H2,1-2H3/t6-,7+/m1/s1
