20
gdb 70194	3.30052	1.30143	1.12139	3.244	80.81	-0.24	0.0271	0.267	1158.1485	0.172306	-403.160753	-403.152552	-403.151608	-403.193286	32.532	
C	-0.1351134229	 1.5478147784	 0.0415924056	-0.463291
C	-0.0293445211	 0.0371729965	 0.0045574799	 0.287515
C	-0.8208536973	-0.7656965613	 1.0295739208	-0.363435
C	 0.6787268904	-0.6626548122	 1.1271865871	 0.091255
O	 1.5213908458	-1.7744905483	 0.9018775912	-0.251179
C	 1.5726096264	-2.4015297044	-0.3116167682	 0.396152
N	 2.467963345	-3.2618145303	-0.562476516	-0.512264
C	 0.5014996342	-2.0630425016	-1.3181406744	-0.311347
C	 0.1902011275	-0.5615170043	-1.3748094941	-0.267776
H	 0.7512543877	 2.0170000228	-0.4006672437	 0.12132
H	-1.0111334398	 1.8914229929	-0.5210613506	 0.120892
H	-0.2346871232	 1.9180116938	 1.0666668529	 0.11591
H	-1.4118656703	-0.2216354667	 1.7589454436	 0.114586
H	-1.2452712806	-1.7197777253	 0.7393266772	 0.120763
H	 1.1025002782	-0.0760083412	 1.9348671939	 0.105417
H	 3.0872821217	-3.3655761781	 0.2446278848	 0.215827
H	 0.8340683609	-2.4399150869	-2.2858686805	 0.136157
H	-0.4050489804	-2.6223991214	-1.0572581309	 0.126959
H	-0.684363475	-0.3865556758	-2.0126058687	 0.105288
H	 1.0312384727	-0.0372451066	-1.8471583895	 0.111252
74.4708	203.6377	216.7875	236.9749	308.6064	353.4281	369.7443	440.9344	482.1113	510.0341	585.69	668.9019	709.3939	743.4835	841.6708	887.8253	908.159	914.1349	924.7506	949.7896	1022.6274	1035.6307	1044.9033	1065.8932	1081.0354	1119.6613	1123.0795	1189.0297	1205.6356	1239.7213	1271.1399	1306.2724	1351.6305	1356.4212	1393.4711	1416.7654	1426.7119	1475.7072	1488.4121	1491.0939	1496.6117	1510.7678	1747.1108	3018.6222	3024.1285	3040.4227	3060.1417	3085.2734	3100.092	3128.596	3136.1623	3169.6189	3222.9189	3457.7508
CC12CC1OC(=N)CC2	C[C@]12C[C@H]1O[C]([NH])CC2	
InChI=1S/C7H11NO/c1-7-3-2-6(8)9-5(7)4-7/h5,8H,2-4H2,1H3	InChI=1S/C7H11NO/c1-7-3-2-6(8)9-5(7)4-7/h5,8H,2-4H2,1H3/t5-,7+/m1/s1
