18
gdb 31117	2.19424	1.58013	0.96973	1.3925	76.12	-0.1881	0.0257	0.2138	1205.903	0.147893	-439.111349	-439.102187	-439.101243	-439.145087	34.168	
C	 0.217083339	 1.5310574712	 0.1397030974	-0.493592
C	-0.0144862784	 0.0629168207	 0.0742031089	 0.263824
C	-1.1406471837	-0.7063730504	 0.0025919471	 0.091133
C	-2.5744451786	-0.2956870728	-0.054824616	-0.202735
O	-3.2570287549	-0.875847587	-1.1766954021	-0.415217
C	-0.6917659115	-2.0802806296	-0.0228303431	 0.149526
N	-1.5626379299	-3.1735389341	-0.0391889113	-0.613513
C	 0.6660607039	-2.0324317672	 0.0404092387	-0.115807
O	 1.0883728569	-0.7239047694	 0.1069801508	-0.191182
H	 0.9271277044	 1.8525358677	-0.6301498619	 0.138493
H	-0.7193869978	 2.073531531	-0.0083528481	 0.131562
H	 0.6302589166	 1.8313317371	 1.1098610237	 0.141245
H	-3.12395436	-0.6658566424	 0.8180036837	 0.125993
H	-2.6705996051	 0.799312082	-0.0606053935	 0.097198
H	-2.7533209866	-0.6381672502	-1.963091274	 0.282104
H	-2.3926298921	-2.9708773156	-0.5846123391	 0.254361
H	-1.1317322896	-4.0343619301	-0.3477186644	 0.238927
H	 1.4414827074	-2.7789877408	 0.0502124432	 0.11768
99.0418	118.9315	142.4656	194.7526	236.1532	274.1101	330.5275	365.6052	397.5037	442.6418	496.2273	583.0411	610.8515	651.5272	687.9681	735.836	769.9988	789.394	931.9316	960.5693	1013.9498	1058.1754	1082.1647	1134.5167	1147.2738	1208.2477	1218.058	1290.4444	1331.3464	1358.202	1412.885	1420.5139	1461.689	1471.1807	1488.4528	1501.7252	1611.4836	1653.3836	1693.6075	3003.0483	3029.8935	3062.2249	3080.581	3126.2682	3282.2455	3525.8267	3627.9189	3802.943
CC1=C(CO)C(N)=CO1	Cc1c(CO)c(N)co1	
InChI=1S/C6H9NO2/c1-4-5(2-8)6(7)3-9-4/h3,8H,2,7H2,1H3	InChI=1S/C6H9NO2/c1-4-5(2-8)6(7)3-9-4/h3,8H,2,7H2,1H3
