20
gdb 119590	4.27886	0.94308	0.86429	1.253	78.96	-0.2427	0.0171	0.2598	1407.128	0.171313	-403.153238	-403.144669	-403.143725	-403.18689	32.419	
C	 0.0181771564	 1.5636804735	-0.0714736284	-0.384785
C	-0.0293718724	 0.0360490937	-0.1483228682	-0.153757
C	-1.4214507784	-0.5333997067	 0.15719406	-0.280574
C	-1.4581188522	-2.0406866398	 0.1196587501	 0.344288
C	-1.5886599139	-2.8172241933	-1.1802839128	-0.350875
C	-2.6663947948	-2.9289020716	-0.1401166441	 0.002364
O	-2.5485476609	-4.0131927416	 0.7724719339	-0.21467
C	-1.3767712422	-3.7892595011	 1.4240319762	 0.093473
N	-0.7134768436	-2.7387108076	 1.1565395885	-0.30183
H	 1.0215700192	 1.941828355	-0.2904987406	 0.111845
H	-0.6733389403	 2.0218918933	-0.7879930453	 0.109319
H	-0.2597873554	 1.9189018043	 0.927227354	 0.11476
H	 0.2824506845	-0.2963893853	-1.1466738577	 0.09398
H	 0.6873517584	-0.3982620941	 0.5570858597	 0.122507
H	-1.7474755993	-0.1944148607	 1.1490039292	 0.102612
H	-2.1507916752	-0.1413184233	-0.5635790855	 0.090327
H	-1.8478902372	-2.2434597349	-2.0641012385	 0.119893
H	-0.933273648	-3.6645320931	-1.3523229085	 0.123744
H	-3.6922005477	-2.6259278479	-0.3058975004	 0.114184
H	-1.105023857	-4.5520124686	 2.1434463984	 0.143195
73.5052	92.5251	124.071	246.4386	280.6719	306.0113	333.8426	382.9223	445.5497	613.5124	704.76	743.2497	764.2358	808.3769	859.8835	879.2261	895.2064	916.6466	934.2261	968.8509	994.7727	1008.818	1047.668	1052.1795	1086.4233	1116.6268	1132.3505	1143.7556	1225.1546	1270.9604	1281.4401	1306.5472	1329.9755	1343.0668	1381.6778	1403.484	1413.9847	1465.1836	1479.0554	1494.5403	1500.4042	1511.2604	1668.5061	3015.1957	3026.7381	3029.9575	3050.7113	3072.7152	3097.2088	3101.5039	3127.1029	3195.8639	3220.4607	3228.8078
CCCC12CC1OC=N2	CCC[C@]12C[C@H]1OC=N2	
InChI=1S/C7H11NO/c1-2-3-7-4-6(7)9-5-8-7/h5-6H,2-4H2,1H3	InChI=1S/C7H11NO/c1-2-3-7-4-6(7)9-5-8-7/h5-6H,2-4H2,1H3/t6-,7+/m1/s1
