21
gdb 38875	2.61707	2.07185	1.85798	1.5469	78.6	-0.2428	0.0842	0.327	886.5676	0.188972	-387.107983	-387.10198	-387.101036	-387.137828	27.428	
C	-0.0351087425	 1.5382743219	-0.0025096939	-0.204221
C	 1.4970139618	 1.7829532817	-0.0331193656	-0.039178
C	 1.8873596087	 1.8188189158	-1.5258047817	-0.21617
C	 1.197343028	 0.6076906083	-2.2216204875	-0.21617
C	 0.9948218391	-0.489081095	-1.1549245093	-0.039179
C	 2.3438554186	-0.5941849381	-0.3951423394	-0.204221
C	 2.0173708204	 0.4551081845	 0.6770803023	 0.077274
O	 0.8279034906	-0.1516555463	 1.2105269357	-0.268649
C	 0.0379518476	 0.0048271857	 0.0192903763	 0.077274
H	-0.5126248197	 1.882929608	 0.9167588351	 0.100382
H	-0.5507376597	 1.9848640337	-0.8556820481	 0.090212
H	 1.8167678447	 2.6816085033	 0.4967748312	 0.063954
H	 1.5617531483	 2.7623905977	-1.9753682398	 0.094364
H	 2.9742161178	 1.7769834753	-1.6492527995	 0.097285
H	 0.2427431925	 0.9021937947	-2.6691176137	 0.097285
H	 1.8164993835	 0.2249278624	-3.0392956871	 0.094364
H	 0.653516955	-1.4289145459	-1.5917718639	 0.063954
H	 2.4960646804	-1.5603180492	 0.0899173394	 0.100382
H	 3.204814155	-0.3810426021	-1.03274629	 0.090213
H	 2.7479465556	 0.6032541363	 1.4724000244	 0.070423
H	-0.9004557658	-0.5403650227	 0.1211652449	 0.070422
308.4893	319.4359	414.7566	451.2156	508.5053	575.2646	600.0695	629.037	745.5563	755.4138	812.6927	831.5385	863.9961	886.8333	900.831	928.9434	944.5561	957.4205	975.8698	980.9599	1009.506	1047.976	1052.2022	1058.6152	1092.3347	1100.5189	1128.4901	1156.6331	1212.5822	1230.329	1242.6446	1257.8102	1293.3913	1302.7416	1304.3125	1313.2492	1317.1848	1330.8167	1337.6218	1361.2004	1370.361	1487.1152	1487.5593	1501.4686	1518.7784	3038.9599	3046.6048	3068.132	3068.5257	3071.4839	3086.0293	3092.4029	3092.5132	3116.93	3118.5745	3119.6618	3122.5875
C1C2CCC3CC2OC13	C1[C@@H]2CC[C@H]3C[C@@H]2O[C@@H]13	
InChI=1S/C8H12O/c1-2-6-4-7-5(1)3-8(6)9-7/h5-8H,1-4H2	InChI=1S/C8H12O/c1-2-6-4-7-5(1)3-8(6)9-7/h5-8H,1-4H2/t5-,6-,7-,8-/m0/s1
