15
gdb 26538	2.38087	1.88653	1.06025	6.5127	71.07	-0.2274	-0.0295	0.1979	1058.6771	0.113122	-454.00513	-453.996897	-453.995953	-454.038057	30.32	
C	-0.0000241796	 1.5414619206	 0.0317045446	-0.5239
C	-0.0019014007	 0.0372582859	 0.0158961102	 0.042018
C	-1.1540339333	-0.6775473166	 0.0565724416	 0.359964
N	-2.4247562111	-0.1789672278	 0.1626305422	-0.573406
O	-1.1654086771	-2.0391873113	 0.0452467865	-0.209141
C	 0.0492822055	-2.6594083339	 0.0000658068	 0.116534
N	 1.186198268	-2.1123047285	-0.0379541368	-0.297407
C	 1.2667279138	-0.6822592704	-0.0367400562	 0.336815
O	 2.352491479	-0.140631958	-0.0804456504	-0.354574
H	 1.0354112471	 1.8822888124	-0.0153459513	 0.16963
H	-0.5362911953	 1.9685852884	-0.8264223478	 0.116008
H	-0.4556496987	 1.9464658546	 0.9435190616	 0.127795
H	-2.5457616275	 0.7827212992	-0.1123616264	 0.273286
H	-3.1638968874	-0.7993881158	-0.1313016899	 0.26798
H	-0.0917017127	-3.7366728588	 0.0006602253	 0.148399
88.3732	104.4633	183.2437	254.6983	278.9534	351.5478	376.6235	475.6099	491.0997	517.5632	531.2352	567.9109	687.1582	693.7513	804.6657	882.3167	914.2226	958.6112	992.0891	1047.4995	1060.5725	1184.0707	1221.4334	1291.0212	1391.6566	1411.2392	1431.5515	1491.2384	1500.4707	1622.0077	1659.6761	1729.2585	1777.0685	3009.6747	3059.1983	3140.5082	3183.7248	3587.3676	3701.6437
CC1=C(N)OC=NC1=O	Cc1c(N)ocnc1=O	
InChI=1S/C5H6N2O2/c1-3-4(6)9-2-7-5(3)8/h2H,6H2,1H3	InChI=1S/C5H6N2O2/c1-3-4(6)9-2-7-5(3)8/h2H,6H2,1H3
