16
gdb 113286	2.23351	1.32988	1.11211	2.6957	72.7	-0.2665	-0.0465	0.22	1155.4236	0.12164	-437.881018	-437.87178	-437.870836	-437.915292	32.404	
C	 0.2494651455	 0.9632448439	-0.2605853966	-0.245292
O	-0.3851687938	-0.1033401498	 0.4326478663	-0.202099
C	 0.3890860658	-0.6841689848	 1.3899522372	 0.116759
C	 0.0736788315	-2.0554386827	 1.8075411859	-0.348052
C	 1.3661488846	-1.8812716185	 0.9963658718	 0.001089
C	 1.3506432823	-2.3375761802	-0.4262470954	 0.095579
O	 0.3420618241	-2.5873735359	-1.0364647635	-0.255495
C	 2.632313093	-1.9106518794	 1.6660430787	 0.22211
N	 3.6607690662	-1.9226988928	 2.1976046398	-0.332209
H	 1.1074418345	 0.6014041061	-0.8418832691	 0.124554
H	-0.4951865235	 1.3827393916	-0.9377970099	 0.148601
H	 0.5918517782	 1.7409777908	 0.4353427719	 0.123657
H	 0.8469661371	-0.004960581	 2.1102379223	 0.126077
H	 0.1776967884	-2.3295282706	 2.850019309	 0.151379
H	-0.7064042893	-2.5553594827	 1.2431385429	 0.171223
H	 2.3549665154	-2.4130605842	-0.8908834913	 0.102119
89.4141	110.2445	150.6523	152.2289	179.0215	211.6112	272.0805	302.0509	448.7383	485.4774	523.36	546.8811	568.8625	704.5335	752.2522	865.4519	940.721	1011.9951	1039.1815	1047.3731	1108.0522	1138.6421	1179.7745	1187.1305	1239.7339	1274.3611	1293.5635	1402.2619	1427.9286	1460.7968	1487.6917	1493.3192	1505.6074	1808.1392	2343.7679	2924.2537	3003.5834	3063.6621	3105.9394	3146.8787	3147.0534	3249.3377
COC1CC1(C=O)C#N	CO[C@H]1C[C@]1(C=O)C#N	
InChI=1S/C6H7NO2/c1-9-5-2-6(5,3-7)4-8/h4-5H,2H2,1H3	InChI=1S/C6H7NO2/c1-9-5-2-6(5,3-7)4-8/h4-5H,2H2,1H3/t5-,6+/m0/s1
