16
gdb 44281	3.47021	1.83233	1.44739	4.2225	71.02	-0.2218	0.0354	0.2572	886.4631	0.127283	-400.728061	-400.721786	-400.720841	-400.758627	26.272	
O	 0.0118890176	-0.0756392798	 0.0703444836	-0.398674
C	-0.0267246504	 1.1409781956	 0.0217649931	 0.442945
N	-1.1820315247	 1.8661580803	-0.0030299603	-0.35589
C	-1.1519495124	 3.2915603479	-0.0604311937	 0.041527
C	-0.1100500716	 4.1024805525	 0.6697827569	-0.116804
C	-0.1155209933	 4.0409983185	-0.8607908504	-0.116821
C	 1.2468544846	 3.3100309501	-0.8226392649	-0.09277
C	 1.2522088614	 3.3703802449	 0.6806850685	-0.092768
C	 1.1808610974	 2.0155641119	-0.0175429754	-0.179103
H	-2.0551685142	 1.3637933613	 0.0198961881	 0.248146
H	-2.1429427109	 3.7321720675	-0.0745600994	 0.110142
H	-0.3593751232	 4.9227098644	 1.3302165215	 0.096065
H	-0.3698040247	 4.8056812703	-1.5830873833	 0.096063
H	 2.05062153	 3.4876826079	-1.5236026747	 0.102223
H	 2.060891235	 3.6034360219	 1.3594115012	 0.102221
H	 2.1075216197	 1.4531320647	 0.0017280992	 0.113498
95.5426	335.3718	395.0238	426.2263	499.0682	537.7964	574.8969	704.3253	712.3517	734.5582	759.0336	796.7194	826.4815	878.5108	899.2174	917.8741	929.4652	975.3896	984.8548	1007.6262	1041.3135	1046.2676	1066.605	1095.205	1113.4599	1158.6381	1232.1447	1275.6906	1285.4123	1294.4049	1369.958	1374.5294	1435.5952	1482.5019	1799.3506	3173.0435	3187.1707	3188.9108	3199.6923	3205.5011	3216.9595	3638.0648
O=C1NC2C3C2C2C3C12	O=C1N[C@H]2[C@@H]3[C@H]2[C@H]2[C@@H]3[C@@H]12	
InChI=1S/C7H7NO/c9-7-5-1-2(5)4-3(1)6(4)8-7/h1-6H,(H,8,9)	InChI=1S/C7H7NO/c9-7-5-1-2(5)4-3(1)6(4)8-7/h1-6H,(H,8,9)/t1-,2+,3-,4+,5+,6-
