16
gdb 125305	3.08053	1.65285	1.09013	3.4526	77.7	-0.2386	-0.0245	0.2141	1062.9918	0.126003	-400.758858	-400.751725	-400.750781	-400.790328	27.682	
C	-0.0197785701	 1.5114770577	 0.0618961837	-0.499937
C	-0.007222653	 0.0181608484	 0.0094843739	 0.222352
C	-0.0277782494	-0.7869336947	-1.0735214524	-0.172331
C	-0.0051257726	-2.2727150232	-0.7323612542	-0.428617
C	 0.0332242022	-2.2203743064	 0.7666058822	 0.139253
C	 0.0697777307	-2.8979881309	 1.9334445473	-0.07969
O	 0.0885350104	-2.024417883	 2.9701887129	-0.181327
N	 0.0634745078	-0.7058280227	 2.4814988859	-0.26905
C	 0.0313229045	-0.8581735709	 1.1829655483	 0.335782
H	 0.8687414647	 1.8906969335	 0.5790814247	 0.143688
H	-0.0498088843	 1.945138337	-0.9406250122	 0.124731
H	-0.8872152528	 1.8743375553	 0.6246053135	 0.14369
H	-0.0576081126	-0.4362914065	-2.0988590568	 0.102932
H	-0.8893311473	-2.7907188879	-1.1253712469	 0.134626
H	 0.8670244836	-2.7743797012	-1.1708692535	 0.134624
H	 0.0867963683	-3.9391353144	 2.2154374637	 0.149274
152.7345	183.4507	234.0983	245.8477	289.9866	512.4996	512.7149	581.7536	589.4495	658.0849	755.6777	756.1412	807.058	828.3511	880.2377	941.8521	963.476	966.9009	1019.7543	1068.7486	1096.2137	1105.4537	1153.6532	1184.3878	1248.7109	1292.1505	1333.0372	1411.3478	1422.5418	1461.9296	1475.9431	1487.6139	1561.	1654.0538	1682.8742	3027.0462	3033.7472	3052.4635	3086.485	3121.9196	3202.1639	3265.2258
CC1=CCC2=CON=C12	CC1=CCc2conc12	
InChI=1S/C7H7NO/c1-5-2-3-6-4-9-8-7(5)6/h2,4H,3H2,1H3	InChI=1S/C7H7NO/c1-5-2-3-6-4-9-8-7(5)6/h2,4H,3H2,1H3
