20
gdb 75522	2.06375	1.64133	0.96169	3.1096	83.92	-0.2129	0.0038	0.2167	1244.6064	0.172935	-403.208148	-403.199488	-403.198544	-403.241545	33.086	
C	 0.0373228833	 1.5329268949	 0.2226134621	-0.477917
C	-0.049918292	 0.0422843203	-0.0005357615	 0.339455
C	-1.2234572008	-0.5998553042	 0.0788093335	-0.116465
C	-1.5790851475	-2.0449656299	-0.1261336706	-0.259641
C	-0.4852267469	-2.9512156518	-0.6914358097	-0.220627
C	 0.811237669	-2.9131418188	 0.1360718397	-0.299798
C	 1.7411009978	-1.7779629999	-0.238934891	 0.374995
O	 2.91677775	-1.9506916638	-0.5006715022	-0.361085
N	 1.2171308274	-0.4999715851	-0.2866359012	-0.380361
H	 0.6886409124	 1.7675398437	 1.0733247287	 0.132928
H	 0.460574282	 2.036935423	-0.6561760534	 0.128844
H	-0.9476685488	 1.9609866181	 0.4115695479	 0.134153
H	-2.0670017323	 0.0290304097	 0.3497576605	 0.080841
H	-1.9199881373	-2.4630498313	 0.8341953234	 0.107913
H	-2.4599825411	-2.0933828447	-0.7813852164	 0.106266
H	-0.8624059354	-3.9787751572	-0.7139291761	 0.104925
H	-0.2656937452	-2.6814891618	-1.7310878415	 0.1126
H	 0.5655662162	-2.8329623224	 1.2034074693	 0.120061
H	 1.3980995	-3.8235429339	 0.003174791	 0.128002
H	 1.9388379293	 0.172086225	-0.5093471326	 0.244911
76.0177	116.5569	177.0436	224.0642	289.0176	295.0596	341.2871	373.7823	511.4702	519.2807	576.1492	615.7727	628.4914	710.9406	800.899	811.9552	856.7969	884.0006	938.1433	962.8734	1042.8417	1064.8562	1067.9061	1074.9302	1120.6758	1162.1206	1171.7164	1239.2288	1276.8268	1337.2375	1361.0783	1367.9815	1396.5336	1401.8486	1417.9033	1469.0455	1477.6645	1479.0448	1486.6898	1499.2557	1507.5411	1750.2555	1782.5551	2982.3829	3016.8442	3019.0521	3028.3849	3042.0856	3067.9055	3078.1245	3118.8999	3138.759	3160.4408	3591.5753
CC1=CCCCC(=O)N1	CC1=CCCCC(=O)N1	
InChI=1S/C7H11NO/c1-6-4-2-3-5-7(9)8-6/h4H,2-3,5H2,1H3,(H,8,9)	InChI=1S/C7H11NO/c1-6-4-2-3-5-7(9)8-6/h4H,2-3,5H2,1H3,(H,8,9)
