16
gdb 5323	4.48979	1.49059	1.17033	1.5424	65.84	-0.2236	0.0178	0.2415	996.9563	0.130772	-383.764862	-383.757279	-383.756334	-383.797051	28.355	
C	 0.1862670686	 1.35574183	-0.4285870616	-0.397976
C	 0.0190620824	-0.0380889239	 0.1851234146	 0.011667
O	 0.4793231142	-0.0691063768	 1.5336536554	-0.422138
C	-1.3929205384	-0.5547232148	 0.0862779701	 0.225389
C	-2.0715610808	-1.2113615261	 1.0669742381	-0.104422
O	-3.3237323482	-1.545465153	 0.6522573833	-0.144656
C	-3.4461383971	-1.0973376772	-0.6232595146	 0.007363
C	-2.3044204063	-0.4834689692	-1.0257653369	-0.302031
H	 1.2207618912	 1.6887432364	-0.3109774668	 0.124606
H	-0.0593916396	 1.3543559853	-1.4950463523	 0.118631
H	-0.4740903528	 2.0776568583	 0.065557301	 0.112832
H	 0.6922840952	-0.7285813163	-0.3397483283	 0.105889
H	-0.0774244565	 0.5367687834	 2.0367295588	 0.276005
H	-1.8044624166	-1.5155888021	 2.0641750639	 0.142769
H	-4.3947244904	-1.2867661228	-1.098171197	 0.136099
H	-2.1273820849	-0.035334101	-1.9910262879	 0.109972
54.6303	172.6538	196.1335	263.0706	328.5934	354.5215	456.0139	478.4458	619.918	624.1917	703.0973	740.6168	799.3671	829.4689	889.5891	896.7732	974.1849	1035.0654	1055.4686	1082.2764	1106.4778	1114.9954	1204.6022	1245.5535	1260.3523	1303.4869	1348.287	1395.9359	1401.9519	1421.7821	1491.9351	1493.189	1532.9825	1626.9092	3022.4784	3033.2178	3103.6898	3122.8796	3253.4547	3282.0757	3292.5845	3789.3959
CC(O)C1=COC=C1	C[C@@H](O)c1cocc1	
InChI=1S/C6H8O2/c1-5(7)6-2-3-8-4-6/h2-5,7H,1H3	InChI=1S/C6H8O2/c1-5(7)6-2-3-8-4-6/h2-5,7H,1H3/t5-/m1/s1
