23
gdb 63589	2.826	1.24036	1.07942	1.1865	85.86	-0.2462	0.0745	0.3207	1254.8751	0.205907	-388.297923	-388.288652	-388.287707	-388.331659	36.589	
C	-0.1747253805	 1.514484519	 0.1571027654	-0.444393
C	-0.0205451503	 0.0115412724	 0.0874117369	 0.347564
O	-1.2107919169	-0.6531183067	-0.2631512436	-0.460737
C	 1.2788963352	-0.6026270391	-0.3769103651	-0.41852
C	 0.845725027	-0.7354123468	 1.0728685172	 0.3375
C	 1.5815450265	 0.0027396575	 2.2057058023	-0.283352
C	 1.8092275032	-1.0717231919	 3.2876282882	-0.203317
C	 0.5823016764	-1.9854873229	 3.1429508834	-0.200692
C	 0.4058174785	-2.1038356241	 1.6185626748	-0.277752
H	 0.7580734428	 2.0062998895	 0.4448199073	 0.118867
H	-0.4714950754	 1.9146059566	-0.8204372956	 0.103906
H	-0.9496223537	 1.7911550419	 0.8800645292	 0.122856
H	-1.3841682201	-0.475324791	-1.1940357446	 0.27921
H	 1.2088532388	-1.4919248639	-0.9966662569	 0.103884
H	 2.1120554127	 0.0539731898	-0.6127550059	 0.100528
H	 2.5134026552	 0.4697737268	 1.8719119094	 0.091989
H	 0.9506495092	 0.8027880494	 2.6120643688	 0.099415
H	 2.7203601414	-1.6409971195	 3.0653015096	 0.096326
H	 1.9252777528	-0.6479934795	 4.2894088586	 0.089811
H	 0.7024160096	-2.954984035	 3.6349495874	 0.089647
H	-0.2951616655	-1.4992976669	 3.587208535	 0.097396
H	-0.6115331171	-2.356651282	 1.3158165458	 0.118024
H	 1.0670529503	-2.8887037636	 1.2306361723	 0.091842
53.8846	155.175	190.4326	229.9718	254.8117	270.3335	298.5139	391.9199	411.5866	449.5668	454.9737	541.0776	572.6289	701.7029	715.6392	846.1915	859.3938	876.4523	904.7522	914.2075	920.3331	957.2377	979.2292	982.7447	1027.0751	1041.513	1064.9447	1083.744	1139.7062	1183.1469	1189.7208	1197.2141	1247.3983	1257.4495	1282.9997	1295.4361	1317.2223	1339.82	1343.7039	1353.0151	1399.9681	1418.0535	1477.4248	1485.0744	1489.2138	1491.4952	1496.8812	1504.3526	1513.5556	3023.2854	3024.3154	3027.1209	3028.9322	3034.6814	3072.9307	3084.1756	3085.407	3092.2113	3108.3488	3116.4723	3118.1389	3198.37	3795.4957
CC1(O)CC11CCCC1	C[C@@]1(O)CC21CCCC2	
InChI=1S/C8H14O/c1-7(9)6-8(7)4-2-3-5-8/h9H,2-6H2,1H3	InChI=1S/C8H14O/c1-7(9)6-8(7)4-2-3-5-8/h9H,2-6H2,1H3/t7-/m1/s1
