23
gdb 57562	3.61693	0.64013	0.63298	4.3339	83.94	-0.2756	0.0105	0.2861	1878.9355	0.202278	-425.461228	-425.450068	-425.449124	-425.49861	39.864	
C	 0.0682566359	 1.54673934	 0.1033846258	-0.404724
C	 0.0876853644	 0.0070799877	 0.0470681731	 0.252963
C	 0.4927261565	-0.5565258621	 1.4227905377	-0.404173
C	-1.3255988245	-0.4978132005	-0.2999029204	-0.401825
C	 1.0470786887	-0.4951143715	-1.0604880339	-0.190013
C	 2.506519651	-0.064852138	-0.9369785773	-0.111708
O	 3.2899690352	-0.704177987	-1.9586066353	-0.170899
C	 3.675134469	 0.0340015981	-3.0134870221	 0.170201
O	 4.2935427911	-0.415978187	-3.9308170785	-0.276158
H	 1.0311816927	 1.9605215636	 0.4206872242	 0.1106
H	-0.1783186834	 1.9771154875	-0.8737675038	 0.111256
H	-0.684279103	 1.8957944036	 0.8183138878	 0.115378
H	-0.2367913076	-0.2658219572	 2.1862233136	 0.11457
H	 0.5371926926	-1.6510018671	 1.4054894206	 0.114745
H	 1.4689081382	-0.1852905989	 1.7510495817	 0.111326
H	-1.6591244995	-0.109596832	-1.2684359229	 0.111852
H	-1.3540355645	-1.5916855158	-0.3504158271	 0.113374
H	-2.0505766417	-0.1786939386	 0.4564109834	 0.111137
H	 1.0245486906	-1.5911728654	-1.0872161846	 0.112685
H	 0.6743047184	-0.1551761921	-2.0355694889	 0.098342
H	 2.6176432605	 1.0230311535	-1.0185317369	 0.111312
H	 2.9455761972	-0.378723935	 0.0129417244	 0.127041
H	 3.3644079023	 1.0951298242	-2.9303131505	 0.072718
38.0183	44.027	92.1243	143.0734	195.6421	216.8296	259.9749	267.3925	294.939	324.751	337.9985	374.8373	415.1908	440.9725	476.185	672.3126	758.2635	779.3249	919.4309	931.7821	941.8143	959.2502	982.3599	1018.6011	1040.3621	1049.264	1082.446	1093.4224	1154.9972	1224.7187	1247.223	1269.4646	1307.2104	1337.7684	1347.0789	1401.0503	1402.5364	1411.4625	1432.1659	1435.9303	1479.1583	1480.8789	1486.3219	1488.6027	1507.9617	1509.3285	1511.4191	1518.9746	1866.008	2933.3103	3019.6422	3023.5637	3024.9272	3032.9847	3036.6384	3063.5918	3092.2219	3092.4132	3093.5463	3096.781	3099.014	3100.8003	3109.4842
CC(C)(C)CCOC=O	CC(C)(C)CCOC=O	
InChI=1S/C7H14O2/c1-7(2,3)4-5-9-6-8/h6H,4-5H2,1-3H3	InChI=1S/C7H14O2/c1-7(2,3)4-5-9-6-8/h6H,4-5H2,1-3H3
