18
gdb 79267	2.52447	1.64161	1.30193	2.898	75.5	-0.2538	-0.0388	0.215	1030.9058	0.147333	-401.900285	-401.892278	-401.891334	-401.933142	30.249	
C	 0.0092252308	 1.5850015555	 0.1267025104	-0.429429
C	 0.1550034518	 0.0727175699	 0.0538700851	-0.016733
C	 0.8423283653	-0.6265881103	-1.1061888451	-0.059387
C	 2.3032034381	-0.7542920013	-0.8095300152	-0.038514
C	 2.596961953	-0.1273275557	 0.5412421602	-0.295299
C	 1.2151463086	-0.6873335508	 0.9149320208	 0.243423
C	 0.8699622289	-1.122365195	 2.2987747513	 0.04485
O	 1.4261688656	-0.7207205051	 3.2905871772	-0.244693
N	 1.331469893	-1.7519626735	-0.2349034383	-0.197867
H	 0.9523752694	 2.1000938362	-0.0731869743	 0.125566
H	-0.7202321404	 1.931342845	-0.6132422748	 0.124718
H	-0.3464007727	 1.8981845605	 1.1140131923	 0.129359
H	-0.8141950926	-0.4134991279	 0.2172926777	 0.092232
H	 0.438597984	-0.8232628351	-2.0935967952	 0.097906
H	 3.0134180265	-1.0589773794	-1.5699402445	 0.102488
H	 3.3845628331	-0.6712276958	 1.0671987067	 0.127546
H	 2.7756281945	 0.9475486751	 0.621740809	 0.108699
H	 0.029488283	-1.8502286922	 2.3531721867	 0.085136
57.1485	160.7366	182.5774	218.726	258.8266	298.7964	432.7199	475.8317	551.1331	688.7213	714.7626	765.9452	800.8896	814.7562	824.1956	912.8891	962.6059	992.3895	1012.5669	1028.5651	1038.2679	1074.1824	1095.0609	1104.2211	1122.2853	1146.2588	1188.47	1228.9784	1243.3506	1301.1371	1344.8454	1372.303	1391.1083	1414.125	1417.2392	1489.0436	1493.8602	1508.6202	1816.598	2884.5337	3036.6855	3040.4736	3067.277	3100.1176	3117.5869	3123.9497	3171.359	3184.951
CC1C2C3CC1(C=O)N23	C[C@H]1[C@H]2[C@H]3C[C@]1(C=O)N23	
InChI=1S/C7H9NO/c1-4-6-5-2-7(4,3-9)8(5)6/h3-6H,2H2,1H3	InChI=1S/C7H9NO/c1-4-6-5-2-7(4,3-9)8(5)6/h3-6H,2H2,1H3/t4-,5+,6-,7+,8?/m0/s1
