19
gdb 40069	4.49515	1.17629	1.05207	1.5222	83.46	-0.2241	0.0038	0.2279	1175.0878	0.160427	-385.839905	-385.832467	-385.831523	-385.871706	29.954	
C	 0.0126835813	 1.5192433316	-0.0145678102	-0.316362
C	 1.3168973155	 0.7655362102	-0.0394908697	-0.305222
C	 0.0003214824	 0.0117699874	-0.0001217941	 0.347555
C	-0.450381177	-0.7879731867	 1.2531401256	-0.337635
C	-0.5266124888	-2.2211904816	 0.7048115837	 0.103018
O	-1.7705256624	-3.0083397203	 0.737274663	-0.308482
C	-1.7469615529	-3.1494957913	-0.7181939142	-0.15472
C	-0.7355455469	-2.0327449316	-0.7633952178	 0.173775
C	-0.5154299372	-0.7860710041	-1.1687221003	-0.275937
H	-0.2656556138	 2.0304852632	 0.9016484336	 0.113455
H	-0.3075277021	 2.026254268	-0.9193684333	 0.11215
H	 1.8841949767	 0.7503437659	-0.9638953102	 0.113811
H	 1.9271075481	 0.7677321393	 0.8578812429	 0.113544
H	 0.2203677475	-0.6673194545	 2.1084319333	 0.09657
H	-1.4551409223	-0.4683086764	 1.5514118356	 0.118996
H	 0.3087594741	-2.857442651	 1.0260603817	 0.07913
H	-1.3863036225	-4.1450051284	-1.0097867983	 0.106072
H	-2.7229152982	-2.9628472235	-1.1784250592	 0.119029
H	-0.7684136513	-0.3381052165	-2.1229920921	 0.101254
90.9375	188.5277	259.811	295.9391	300.4785	414.4973	451.5906	500.2179	633.4916	747.9799	765.2881	777.7581	832.9897	866.1725	873.7755	898.5818	919.0806	943.9444	957.6281	972.8379	1002.4893	1042.9513	1054.9074	1060.0681	1078.8356	1106.6621	1139.0915	1181.1283	1190.1273	1214.5991	1253.6428	1264.6886	1292.5359	1324.8844	1356.4314	1376.6023	1465.0754	1479.0519	1498.5216	1510.6476	1733.1192	3006.6552	3013.966	3044.9099	3072.8428	3098.9728	3122.0201	3128.5227	3194.6009	3201.1194	3218.0709
C1CC11CC2OCC2=C1	C1CC21C[C@H]1OC[C]1[CH]2	
InChI=1S/C8H10O/c1-2-8(1)3-6-5-9-7(6)4-8/h3,7H,1-2,4-5H2	InChI=1S/C8H10O/c1-2-8(1)3-6-5-9-7(6)4-8/h3,7H,1-2,4-5H2/t7-/m1/s1
