13
gdb 42333	4.31866	0.765	0.66279	4.9225	81.14	-0.2821	-0.0938	0.1884	1569.4412	0.088614	-415.57941	-415.570958	-415.570014	-415.613723	28.824	
O	-0.1385613252	 0.0293305344	-0.2290304225	-0.301899
C	-0.1204514028	 1.1983442638	 0.0857866333	 0.197563
C	 1.1108190375	 1.9791727168	 0.0598991728	 0.071813
C	 2.1593331038	 2.5775044814	-0.0038170989	 0.074186
C	 3.3369531168	 3.2638898896	-0.0742328489	 0.215621
N	 4.3357283483	 3.8536886972	-0.13472872	-0.321372
N	-1.2061145824	 1.902755403	 0.5707709775	-0.071782
C	-1.8043833505	 3.075707162	-0.0452015878	-0.228312
C	-2.5424954943	 1.7701131628	 0.0391392057	-0.221538
H	-2.0550966187	 3.8863839364	 0.6318397318	 0.144263
H	-1.4261746599	 3.3815203167	-1.0169674481	 0.146169
H	-2.6532893978	 1.1814750317	-0.8670887324	 0.151643
H	-3.3311436148	 1.6475179641	 0.7750069075	 0.143646
58.3146	80.3698	125.8473	191.6503	207.8926	277.0352	335.0788	427.658	525.9373	581.1201	586.9194	676.4362	769.8684	812.6565	869.4726	975.0368	1037.1068	1048.8969	1128.4158	1138.4595	1165.3279	1173.8914	1210.3531	1402.1755	1494.8122	1521.8739	1759.8422	2257.3096	2391.0201	3117.7994	3123.6023	3205.7334	3219.035
O=C(C#CC#N)N1CC1	O=C(C#CC#N)N1CC1	
InChI=1S/C6H4N2O/c7-3-1-2-6(9)8-4-5-8/h4-5H2	InChI=1S/C6H4N2O/c7-3-1-2-6(9)8-4-5-8/h4-5H2
