17
gdb 102792	2.01096	1.33494	0.94277	1.8713	67.68	-0.2491	0.0053	0.2544	1260.4461	0.135371	-492.303426	-492.29384	-492.292896	-492.338737	33.991	
N	 0.4757319274	 0.6101150032	-0.7840593438	-0.518023
C	-0.0846384086	 0.0932583865	 0.3340172051	 0.389205
O	 0.3940575588	 0.1852337563	 1.4510145013	-0.36902
C	-1.4075151621	-0.6803624851	 0.1278018796	 0.001396
C	-2.2575780874	-0.2833869975	-1.0770508885	-0.112596
O	-1.5987966793	-0.5525647462	-2.3080124555	-0.413766
O	-1.1206622894	-2.0733804609	-0.0708797265	-0.223708
C	-0.6473473862	-2.7744510935	 0.9927571857	 0.113241
N	-0.3820856869	-3.9971768076	 0.8425766262	-0.43994
H	 1.3815688426	 1.043661507	-0.7034815167	 0.262153
H	 0.0839054871	 0.3942813707	-1.6911932808	 0.276903
H	-1.9854378513	-0.5401439473	 1.0485924342	 0.111996
H	-3.2135219352	-0.8211894478	-1.0222525739	 0.11997
H	-2.4639661679	 0.7900877643	-1.0530315729	 0.130582
H	-1.3793746267	-1.4933972444	-2.2964327133	 0.307374
H	-0.535913147	-2.1685459353	 1.8968590788	 0.129635
H	-0.0486592778	-4.3882379325	 1.721418141	 0.234597
49.332	79.1323	120.7411	136.6505	204.4088	253.3434	288.5167	336.368	381.6219	434.0554	496.9798	546.4275	588.8243	694.2307	716.2673	794.0278	826.5211	845.9031	929.1175	990.6076	1045.6712	1051.0863	1085.5749	1125.2785	1146.1882	1225.2627	1285.4557	1324.7321	1352.186	1367.6485	1405.7911	1423.4591	1432.7454	1493.9981	1620.2619	1742.3863	1792.2116	3019.5709	3052.1128	3089.7997	3103.7286	3518.2732	3530.7133	3692.645	3781.1719
NC(=O)C(CO)OC=N	NC(=O)[C@@H](CO)O[CH][NH]	
InChI=1S/C4H8N2O3/c5-2-9-3(1-7)4(6)8/h2-3,5,7H,1H2,(H2,6,8)	InChI=1S/C4H8N2O3/c5-2-9-3(1-7)4(6)8/h2-3,5,7H,1H2,(H2,6,8)/t3-/m1/s1
