20
gdb 65230	2.75751	1.22386	1.08719	1.8466	79.39	-0.238	-0.0187	0.2193	1214.7328	0.170083	-403.13297	-403.123963	-403.123019	-403.167288	33.855	
C	 0.1042928207	 1.528704076	-0.3091553742	-0.495111
C	 0.0683939178	 0.0290926269	-0.0908132054	 0.331586
C	 1.2446436461	-0.769941211	-0.5255711691	-0.270881
N	 0.9807936056	-0.5637560902	 0.9111527763	-0.356561
C	-1.2944826736	-0.6251039013	-0.1289867217	-0.123449
C	-2.4844768729	-0.1339745715	 0.7634869581	-0.26365
C	-3.45745671	-0.2676812363	-0.4470831896	-0.337494
C	-2.2151482736	-0.3891695821	-1.3446824432	 0.387241
O	-2.0133728607	-0.2211520923	-2.5130641296	-0.30554
H	 1.13604426	 1.8935757108	-0.3254059711	 0.113909
H	-0.3600487113	 1.7945727977	-1.2642871643	 0.145315
H	-0.4257008317	 2.0647936988	 0.48623087	 0.121698
H	 1.1155232948	-1.790891644	-0.8740746646	 0.117667
H	 2.072524002	-0.239555916	-0.9885908841	 0.111847
H	 1.6040000824	 0.1543305654	 1.2736860978	 0.226314
H	-1.167682571	-1.7055252763	 0.0067629223	 0.107879
H	-2.7033827181	-0.7472695255	 1.637309631	 0.115501
H	-2.3691006351	 0.9044359178	 1.0804623657	 0.113838
H	-4.0381070751	-1.1958325843	-0.4349473599	 0.132132
H	-4.1321995366	 0.5621764473	-0.6701119345	 0.127759
42.31	92.244	131.0633	217.1295	235.6377	309.1932	345.622	379.9385	431.0189	460.611	573.6903	641.7424	698.064	764.0442	816.2937	849.8034	901.492	925.5953	933.7003	965.9527	982.7718	1004.5322	1049.174	1056.2686	1071.1296	1088.2447	1118.039	1156.4415	1191.8806	1217.8626	1228.984	1254.4704	1266.7132	1291.2781	1352.772	1394.7874	1417.466	1444.3128	1485.6523	1496.7355	1505.6423	1516.7117	1881.7603	3029.9903	3046.764	3059.6417	3083.5763	3094.7944	3106.4907	3108.2367	3115.4991	3142.9035	3191.7044	3489.5603
CC1(CN1)C1CCC1=O	C[C@]1(CN1)[C@H]1CCC1=O	
InChI=1S/C7H11NO/c1-7(4-8-7)5-2-3-6(5)9/h5,8H,2-4H2,1H3	InChI=1S/C7H11NO/c1-7(4-8-7)5-2-3-6(5)9/h5,8H,2-4H2,1H3/t5-,7-/m0/s1
