20
gdb 82325	2.55037	1.73691	1.29975	1.2459	77.78	-0.2277	0.0618	0.2895	1035.1959	0.172289	-403.108965	-403.100945	-403.100001	-403.141185	32.103	
O	 0.3541413237	 0.7751536887	 0.7779988529	-0.434203
C	 0.1694184821	-0.3624004069	-0.0514090661	 0.04441
C	-1.3197538466	-0.6735143303	-0.2145589663	 0.319454
C	-2.1716230394	-1.0863362584	 0.9503499643	-0.343836
C	-2.3631534019	 0.2731063957	 0.3271451272	-0.293443
C	-1.4464039889	-1.3110986185	-1.5952726595	-0.238804
N	-0.3239551168	-0.8164818586	-2.4236267429	-0.102765
C	-0.1723409759	 0.6452090635	-2.3856512847	-0.248719
C	 0.6489024425	-0.2081187904	-1.4913414412	-0.055131
H	 1.2950437982	 0.8667861154	 0.9547061825	 0.286238
H	 0.6790826692	-1.2314987974	 0.3957084902	 0.069555
H	-2.9292748841	-1.8463162611	 0.7859472955	 0.108231
H	-1.7008149988	-1.1259578024	 1.9276780987	 0.115645
H	-2.0163156658	 1.1352849921	 0.8830133757	 0.135287
H	-3.250428247	 0.4404300722	-0.2755814379	 0.105169
H	-1.3437298822	-2.4018050823	-1.5359306459	 0.105909
H	-2.4031151217	-1.0938745431	-2.0820438583	 0.106108
H	 0.2756084522	 1.0709945476	-3.2785330956	 0.112565
H	-0.9569534024	 1.2453847423	-1.9341193135	 0.128071
H	 1.7003563036	-0.3805322681	-1.7081541552	 0.080261
90.9197	197.1814	230.0727	245.6495	275.3977	360.3989	378.4043	430.6704	524.1497	586.0238	644.5183	758.0937	780.6066	785.9321	848.9396	890.3843	914.0339	940.5546	950.6548	991.9449	997.0936	1040.5091	1059.5852	1069.9331	1087.4626	1106.9743	1113.8125	1120.1441	1165.8354	1194.1705	1227.1193	1234.1407	1262.7497	1277.5385	1318.1925	1332.4998	1372.7238	1396.1589	1434.8425	1458.4419	1493.6309	1502.5976	1503.3145	2963.2965	3024.5408	3071.7169	3116.1445	3120.7082	3132.8567	3134.401	3203.2889	3203.7354	3231.1122	3830.525
OC1C2(CC2)CN2CC12	O[C@H]1C2(CC2)CN2C[C@@H]12	
InChI=1S/C7H11NO/c9-6-5-3-8(5)4-7(6)1-2-7/h5-6,9H,1-4H2	InChI=1S/C7H11NO/c9-6-5-3-8(5)4-7(6)1-2-7/h5-6,9H,1-4H2/t5-,6+,8?/m0/s1
