21
gdb 62650	2.58721	1.56688	1.45	1.3546	82.39	-0.2493	0.0702	0.3195	1053.8405	0.181122	-387.023377	-387.014672	-387.013728	-387.055778	34.854	
C	-0.1312172478	 1.5721808042	-0.0155267155	-0.46913
C	-0.0750361445	 0.0449506983	-0.0077082037	 0.2467
C	-1.4350373856	-0.5534565868	-0.3601024123	-0.457372
C	 1.1783454139	-0.6162140369	-0.6486102886	-0.075341
C	 2.1192831665	-0.2643918004	 0.5537845809	-0.126387
C	 2.6143982247	-1.7161828978	 0.6913114159	-0.291053
C	 1.1297182585	-1.8617611132	 0.3073785853	-0.089514
C	 0.7046458801	-0.6264348998	 1.1587190591	 0.381661
O	 0.3560936834	-0.7275645366	 2.4939421695	-0.478713
H	 0.8312470137	 2.0264548852	 0.2375816193	 0.110937
H	-0.4249116077	 1.9473272571	-1.0025636784	 0.115929
H	-0.8761078593	 1.9404567159	 0.7006815994	 0.108692
H	-1.7670165207	-0.2151693072	-1.3485377299	 0.109459
H	-1.4173140072	-1.6464288112	-0.3694667171	 0.116101
H	-2.1955349461	-0.2407319188	 0.3645559594	 0.114276
H	 1.4753618037	-0.6348362313	-1.696459999	 0.069879
H	 2.6761094955	 0.6634092048	 0.6894831647	 0.067061
H	 3.3478211263	-2.0564638568	-0.0463465312	 0.088003
H	 2.8934003626	-2.0468687642	 1.6956276126	 0.100803
H	 0.5486051971	-2.770983028	 0.1558150337	 0.073934
H	 0.3443322429	 0.1575142135	 2.8743454159	 0.284078
181.579	184.8421	194.8496	231.373	242.4498	279.765	305.0777	360.0231	376.5466	526.4298	540.2511	608.3113	656.011	752.5262	814.551	880.6051	889.3397	900.8683	909.4187	925.7329	948.3173	977.463	998.4328	1016.8728	1049.2645	1074.8872	1083.5643	1143.9704	1151.7829	1153.3264	1177.2658	1202.3127	1227.5568	1234.8887	1254.4273	1286.4233	1339.1976	1383.9998	1402.7475	1419.6658	1481.1692	1488.5244	1504.9985	1507.0234	1509.1609	3021.9627	3029.0296	3044.4536	3078.1434	3085.2659	3097.69	3103.207	3107.9549	3108.1795	3117.1302	3128.3256	3804.1341
CC1(C)C2C3CC2C13O	CC1(C)[C@H]2[C@@H]3C[C@H]2[C@]13O	
InChI=1S/C8H12O/c1-7(2)6-4-3-5(6)8(4,7)9/h4-6,9H,3H2,1-2H3	InChI=1S/C8H12O/c1-7(2)6-4-3-5(6)8(4,7)9/h4-6,9H,3H2,1-2H3/t4-,5+,6-,8-
