16
gdb 15594	2.70259	2.12541	1.49251	1.2625	65.28	-0.2563	0.026	0.2823	875.8988	0.129986	-383.702137	-383.694221	-383.693277	-383.735026	29.096	
O	 0.468886684	 1.0122936826	 0.6597764758	-0.432911
C	-0.0015552191	-0.1393448404	 0.0141555297	 0.121853
C	-1.4733762648	-0.1136464985	-0.4376736148	-0.271331
C	-1.5185886935	-1.1972853743	-1.5215391606	-0.071095
O	-0.1643660487	-1.4046772693	-1.9716956987	-0.255545
C	 0.7084676921	-0.4935162323	-1.3253629882	-0.095851
C	 0.9498063091	 0.7203510671	-2.1183332577	 0.310054
C	 1.1221979701	 1.7439949905	-2.7273841664	-0.455407
H	 0.5190894918	 1.7148250116	-0.0022019387	 0.282288
H	 0.1662265289	-0.9678402637	 0.7094264876	 0.101501
H	-2.1680895263	-0.2993053439	 0.3834579491	 0.11378
H	-1.6959713968	 0.8737845303	-0.8555097136	 0.111642
H	-1.8877943099	-2.1540010504	-1.1340238856	 0.109079
H	-2.1436022947	-0.9136876901	-2.3755264627	 0.110318
H	 1.6598100929	-1.0081854701	-1.155195259	 0.115518
H	 1.2930704648	 2.6263013009	-3.294361226	 0.206107
38.6565	129.0063	146.3238	232.8103	333.3888	396.4557	414.417	488.5277	576.7017	636.5922	641.1261	671.8439	714.5192	820.4345	877.5348	918.497	927.4732	997.8635	1065.5986	1089.7938	1108.0396	1135.5078	1193.2759	1218.8606	1250.7386	1289.2408	1304.0965	1356.7874	1363.7744	1390.7972	1441.1504	1488.2051	1530.0625	2219.5137	3029.047	3050.8269	3056.6961	3066.4801	3071.2362	3121.3773	3497.7611	3756.0702
OC1CCOC1C#C	O[C@H]1CCO[C@H]1C#C	
InChI=1S/C6H8O2/c1-2-6-5(7)3-4-8-6/h1,5-7H,3-4H2	InChI=1S/C6H8O2/c1-2-6-5(7)3-4-8-6/h1,5-7H,3-4H2/t5-,6-/m0/s1
