19
gdb 107135	2.85125	1.28122	1.13919	0.7708	74.87	-0.2267	0.0655	0.2921	1170.7535	0.156926	-422.947647	-422.938946	-422.938002	-422.980841	33.837	
C	-0.2036051866	 1.5091071609	 0.182382966	-0.382451
C	 0.1014624899	 0.0142647517	 0.0197347024	-0.30413
C	 0.7618195372	-0.3170043351	-1.2818052854	 0.440759
O	 1.5307005875	-1.5338468251	-1.3758497613	-0.290255
C	 2.1497767533	-0.2901093989	-1.7399644991	-0.148883
C	 1.6876932409	 0.1039192804	-3.1890642327	 0.360986
O	 2.2980731425	 1.1140190941	-3.9054304843	-0.454305
C	 0.75041239	-0.9176145711	-3.7683747855	-0.352014
C	 0.2525744332	 0.0624094479	-2.7183780434	-0.198472
H	 0.7122004253	 2.1062146764	 0.1316198845	 0.124045
H	-0.879502049	 1.8686131076	-0.5996802911	 0.12343
H	-0.6811362895	 1.7017025183	 1.1472915531	 0.118119
H	 0.7589727637	-0.3316304904	 0.8246728144	 0.114846
H	-0.827959316	-0.5650727046	 0.1032665268	 0.109232
H	 3.0780843374	-0.0123369791	-1.2522658899	 0.104022
H	 2.9818795225	 0.7194277771	-4.4590084922	 0.288403
H	 0.4154284934	-0.6732860163	-4.7719799888	 0.112573
H	 0.8468360925	-1.9721773376	-3.5427051529	 0.133464
H	-0.5405541682	 0.7707742936	-2.9157091803	 0.100631
75.6177	118.769	198.5148	243.9845	291.0727	302.375	350.2031	418.0661	431.7953	502.7864	537.7222	570.9496	652.948	776.0015	796.7975	815.652	853.3342	904.4034	911.939	943.9051	967.8386	993.1814	1001.9781	1041.4336	1073.6655	1090.2041	1105.2568	1167.7323	1171.8127	1216.0066	1265.5733	1284.0084	1310.178	1352.2315	1397.3377	1411.9949	1465.6141	1481.4384	1485.758	1500.7521	1510.8462	3020.5025	3040.835	3070.8169	3111.5522	3113.5531	3135.8237	3175.7036	3209.2598	3232.2748	3780.3513
CCC12OC1C1(O)CC21	CC[C@]12O[C@H]1[C@@]1(O)C[C@@H]21	
InChI=1S/C7H10O2/c1-2-7-4-3-6(4,8)5(7)9-7/h4-5,8H,2-3H2,1H3	InChI=1S/C7H10O2/c1-2-7-4-3-6(4,8)5(7)9-7/h4-5,8H,2-3H2,1H3/t4-,5+,6-,7-/m1/s1
