13
gdb 133241	3.28215	1.46442	1.01914	5.6154	64.59	-0.2548	-0.0631	0.1917	1058.9886	0.089212	-494.057139	-494.049537	-494.048593	-494.090035	26.858	
C	-0.0307564764	 1.4983669649	 0.0012947392	-0.336447
N	-0.0070084684	 0.0375245987	 0.0237142804	-0.080918
N	-0.0461763325	-0.6007823307	-1.1771128739	-0.1676
C	-0.0248242905	-1.8892468167	-1.1467745865	-0.076115
C	 0.0384115385	-2.7082353039	 0.0869167184	 0.367038
O	 0.0563838507	-3.9176554019	 0.0628459682	-0.341195
N	 0.0754180531	-1.9606184473	 1.2762136458	-0.398717
C	 0.0510396729	-0.6928254967	 1.1636621441	 0.443625
F	 0.0834438567	 0.0686807728	 2.2472740862	-0.053719
H	 0.8725434008	 1.9059137206	 0.4612494503	 0.159631
H	-0.0781149187	 1.7900349506	-1.0462368743	 0.170496
H	-0.905805519	 1.8781250871	 0.533909075	 0.15963
H	-0.0560041071	-2.3987841677	-2.1040232928	 0.154291
73.8072	82.9257	210.6633	219.5525	315.4774	386.0223	459.1915	497.6057	552.6929	596.0573	725.7733	736.4515	778.3817	810.402	942.1994	983.9874	1014.1862	1153.2665	1203.6485	1241.4265	1284.3549	1336.4891	1416.3818	1472.0958	1485.8608	1507.8345	1616.1527	1685.1718	1801.1879	3060.2526	3129.3474	3180.4129	3200.1838
CN1N=CC(=O)N=C1F	Cn1ncc(=O)nc1F	
InChI=1S/C4H4FN3O/c1-8-4(5)7-3(9)2-6-8/h2H,1H3	InChI=1S/C4H4FN3O/c1-8-4(5)7-3(9)2-6-8/h2H,1H3
