19
gdb 17819	4.40466	1.33467	1.13623	2.8131	72.03	-0.2311	0.0768	0.3079	1085.9663	0.16516	-365.003936	-364.995729	-364.994785	-365.037365	29.74	
C	-0.0447195449	 1.5267200139	-0.3866808995	-0.416809
C	-0.018928801	 0.0537999005	-0.0382292621	 0.03124
C	 1.2391804121	-0.7410084279	-0.1064634293	-0.257202
N	 0.5966448819	-0.4832956342	 1.1831357098	-0.089131
C	 1.2729199502	 0.4033021781	 2.1044892193	 0.009917
C	 0.4128433269	 0.9231142745	 3.2763394111	-0.081752
O	 1.3122715714	 0.3522399725	 4.24796654	-0.273172
C	 2.074544014	-0.3090342735	 3.2165034002	-0.081337
H	 0.918242458	 2.0159443346	-0.2224740599	 0.123345
H	-0.2990199512	 1.6494109644	-1.4447507133	 0.126031
H	-0.8031718781	 2.0600100481	 0.1973394531	 0.126133
H	-0.9454239594	-0.4643601873	-0.2821842394	 0.093504
H	 1.237658067	-1.7744789314	-0.4426498239	 0.115753
H	 2.1529149235	-0.1923816236	-0.3356175228	 0.106063
H	 1.8535584735	 1.1972105919	 1.61544414	 0.064073
H	 0.3258672961	 2.0105716197	 3.3849662036	 0.097055
H	-0.5845211024	 0.4671057155	 3.3147098979	 0.103738
H	 1.9275494265	-1.396047433	 3.2228888732	 0.105533
H	 3.143988216	-0.0783331529	 3.284945992	 0.097018
54.6579	74.316	145.8181	212.835	222.7355	350.7212	378.1277	415.5421	533.2473	680.0587	780.4348	833.989	887.7941	900.414	912.5952	965.1021	1014.1979	1019.6401	1036.9948	1072.5287	1091.849	1114.1006	1118.7108	1148.8342	1161.5863	1167.4856	1189.895	1206.167	1268.9576	1306.5585	1331.024	1355.7108	1398.0784	1405.3987	1422.5891	1494.4675	1500.0698	1501.1385	1509.3727	1528.3731	2996.0373	3010.4557	3022.0662	3036.6443	3063.4649	3068.92	3084.9665	3093.9132	3105.5234	3128.7138	3173.8693
CC1CN1C1COC1	C[C@H]1CN1C1COC1	
InChI=1S/C6H11NO/c1-5-2-7(5)6-3-8-4-6/h5-6H,2-4H2,1H3	InChI=1S/C6H11NO/c1-5-2-7(5)6-3-8-4-6/h5-6H,2-4H2,1H3/t5-,7?/m0/s1
