16
gdb 6448	3.90249	1.43491	1.25936	2.8292	66.42	-0.2313	0.0116	0.2429	995.516	0.129227	-379.898416	-379.890199	-379.889255	-379.930904	29.91	
C	-0.0413958361	 1.5205251981	 0.1103175367	-0.32594
N	-0.014829441	 0.0757297944	 0.1238580699	-0.067758
C	-1.2411218326	-0.6496680903	 0.4949984635	-0.193772
C	-0.3730215911	-1.6788642951	 1.2662998506	 0.264962
O	-0.1787124533	-2.8274889816	 0.4771514822	-0.457866
C	 0.75719044	-0.6046371387	 1.1746431908	-0.217675
C	-0.8068518801	-2.033981093	 2.6220248536	 0.2278
N	-1.1205511261	-2.3330225434	 3.6937541598	-0.336894
H	 0.9595236641	 1.905981235	-0.1089005336	 0.128026
H	-0.7143600424	 1.8697701854	-0.6793679098	 0.129221
H	-0.3777104569	 1.9595466019	 1.0691110849	 0.096457
H	-1.9116784206	-0.0901776157	 1.1644157809	 0.108109
H	-1.8102767915	-1.0708997061	-0.3386467865	 0.130908
H	 0.479832074	-3.3877383352	 0.9040888864	 0.293933
H	 1.740220986	-0.9778141115	 0.8673896557	 0.114342
H	 0.8545664775	-0.0288120343	 2.1083646148	 0.106146
78.9583	170.2787	197.1667	231.0303	278.8725	295.5179	328.0828	395.561	400.0546	507.3684	577.892	615.9251	743.9224	915.4815	937.3571	939.6884	996.3313	1026.5561	1102.4635	1113.0975	1130.7624	1183.3657	1232.4967	1248.4797	1260.8272	1299.5911	1336.6984	1374.9058	1453.1563	1484.0089	1485.3848	1498.7896	1513.1732	2351.0653	2926.2504	2980.2023	2994.7152	3062.4856	3063.6513	3086.89	3105.0146	3800.549
CN1CC(O)(C1)C#N	CN1CC(O)(C1)C#N	
InChI=1S/C5H8N2O/c1-7-3-5(8,2-6)4-7/h8H,3-4H2,1H3	InChI=1S/C5H8N2O/c1-7-3-5(8,2-6)4-7/h8H,3-4H2,1H3
