16
gdb 26312	3.98475	1.12987	0.90443	5.6958	68.54	-0.2079	0.0343	0.2423	1246.1673	0.123507	-475.058065	-475.049509	-475.048564	-475.091553	30.774	
C	-0.2709157635	 1.3875006157	-0.0829408173	-0.350374
N	-0.3236518422	-0.0701294715	 0.0076318092	-0.166687
C	 0.2642059885	-0.6455890271	 1.2047823465	-0.3388
C	-0.1015545886	-0.7831857413	-1.1402862938	 0.409328
C	 0.5168910154	-1.9378680532	-1.4219702286	-0.179043
O	 0.2998560042	-2.2289293615	-2.7737415229	-0.213422
C	-0.419054884	-1.2129328348	-3.3026587709	 0.497066
O	-0.7724976805	-1.0990715666	-4.4319997962	-0.374469
O	-0.6834798666	-0.3057919151	-2.2982588618	-0.25021
H	 0.7617727074	 1.7692914233	-0.1115542995	 0.119282
H	-0.7916504339	 1.7171543914	-0.9817297083	 0.164305
H	-0.7751388521	 1.811694936	 0.7891838956	 0.132646
H	-0.1211774356	-0.1162822144	 2.079343254	 0.136851
H	-0.0235657048	-1.6980393724	 1.282105026	 0.141127
H	 1.3645366183	-0.5804496821	 1.2148017421	 0.119291
H	 1.090670538	-2.6423734962	-0.8522930041	 0.153109
73.8644	129.0245	176.0474	196.796	227.0692	250.9079	348.8643	372.9391	430.8535	594.8131	603.328	613.2921	666.9118	760.1264	776.3411	915.5951	937.3418	1005.578	1079.4143	1082.4163	1121.5117	1128.8363	1179.0032	1212.5834	1241.8967	1341.4792	1402.0992	1445.3454	1472.7577	1484.014	1495.1454	1503.3144	1520.8456	1740.8247	1939.4338	2974.8224	2985.1667	3078.6679	3092.8488	3125.2164	3156.5014	3329.6152
CN(C)C1=COC(=O)O1	CN(C)c1coc(=O)o1	
InChI=1S/C5H7NO3/c1-6(2)4-3-8-5(7)9-4/h3H,1-2H3	InChI=1S/C5H7NO3/c1-6(2)4-3-8-5(7)9-4/h3H,1-2H3
