17
gdb 89354	2.55794	1.5326	1.17377	3.1521	71.05	-0.2319	-0.0253	0.2066	1061.5059	0.133855	-458.940183	-458.931573	-458.930629	-458.973212	32.683	
O	 0.1082195644	 1.5336221216	 0.0609017982	-0.428825
C	 0.0455940746	 0.1253688781	 0.0372880687	 0.023112
C	 0.2638082752	-0.6419009915	 1.3967690307	-0.316121
C	-1.1659154763	-1.1603033514	 1.3353614023	 0.405872
O	-1.4592631463	-2.4727361885	 1.5580855177	-0.448425
C	-2.1587509761	-0.0847393345	 1.2137576279	-0.38478
C	-1.3770054432	-0.3988289594	-0.0644598784	 0.156885
C	-1.9848157375	-1.1601078028	-1.1344672029	 0.048797
O	-2.9476463216	-1.8939046816	-0.9594959664	-0.32296
H	 1.025002245	 1.7950647838	 0.1963805804	 0.28798
H	 0.6838524442	-0.2905282135	-0.7542455902	 0.082199
H	 0.9947491156	-1.4473454526	 1.3084223233	 0.121709
H	 0.5015042831	-0.0160178791	 2.2622185963	 0.109329
H	-2.2658871247	-2.6786756312	 1.0572750731	 0.308072
H	-3.1931326768	-0.4087428643	 1.1688222661	 0.141265
H	-1.9904325724	 0.8927880272	 1.6559883643	 0.135703
H	-1.4770475771	-1.1146688003	-2.1215038011	 0.080189
87.3332	132.2802	195.129	243.8455	260.254	312.8744	372.7656	404.9422	430.7136	479.528	488.5281	601.107	645.9419	683.7782	729.7531	830.9606	855.4788	955.9063	960.5572	997.3929	1029.2016	1075.938	1100.4845	1134.1887	1152.524	1192.6472	1223.1365	1238.5307	1298.0024	1331.9843	1390.5126	1410.5412	1432.9462	1452.3299	1462.7113	1489.1289	1731.6205	2900.7814	3007.2855	3056.3314	3123.188	3129.3568	3221.1556	3688.7268	3813.2672
OC1CC2(O)CC12C=O	O[C@H]1C[C@@]2(O)C[C@@]12C=O	
InChI=1S/C6H8O3/c7-3-5-2-6(5,9)1-4(5)8/h3-4,8-9H,1-2H2	InChI=1S/C6H8O3/c7-3-5-2-6(5,9)1-4(5)8/h3-4,8-9H,1-2H2/t4-,5+,6+/m0/s1
