18
gdb 38266	3.19205	1.73969	1.42545	1.4732	71.44	-0.2409	0.0782	0.3191	936.1829	0.150918	-438.997197	-438.990704	-438.98976	-439.027759	27.183	
C	-0.045806501	 1.6082587327	 0.1071332418	-0.227374
C	 1.4346665698	 1.1989276453	-0.0143887997	-0.089331
N	 1.1250395076	 0.0839334499	 1.0004020639	-0.384071
C	 0.0007583814	 0.0585409676	-0.021633693	 0.321926
C	-1.1577581296	-0.8423236257	-0.3426315166	-0.241775
O	-1.5961396787	-0.3959255443	-1.6385315957	-0.247364
C	-0.5862192764	-0.3643427185	-2.6204634861	 0.021008
O	 0.4511195823	 0.576985536	-2.3723992853	-0.263488
C	 1.0358930935	 0.2068515015	-1.142814287	 0.102263
H	-0.3468442774	 1.9805016566	 1.0864362141	 0.103737
H	-0.4781159667	 2.1538983784	-0.7277516574	 0.12244
H	 2.3300884345	 1.8127451847	 0.0842874848	 0.087492
H	 1.7550356213	-0.7098137586	 0.8295883403	 0.205118
H	-0.8501589117	-1.8995756819	-0.3800087804	 0.09764
H	-2.0181354497	-0.7452868149	 0.3237620333	 0.124186
H	-0.1416500904	-1.3708055383	-2.7303348652	 0.080883
H	-1.0705211929	-0.0583923166	-3.5485212002	 0.125105
H	 1.7244343242	-0.6428020339	-1.2736703317	 0.061605
189.8749	260.42	342.9413	374.6704	411.259	444.3202	557.1683	578.8477	640.9381	724.5531	767.0103	873.0441	906.0939	921.2724	924.8308	958.8751	976.9355	984.365	1047.4468	1052.0414	1069.1268	1087.1056	1125.5899	1161.8438	1177.8136	1192.811	1206.0687	1213.5164	1236.7789	1286.4976	1303.3387	1322.2553	1337.1277	1381.9875	1390.1357	1437.4603	1491.6569	1495.4885	1504.5136	2933.0467	2981.2791	2988.5135	3098.1177	3100.6111	3117.9686	3128.3526	3188.061	3351.195
C1C2NC11COCOC21	C1[C@H]2N[C@]31COCO[C@@H]23	
InChI=1S/C6H9NO2/c1-4-5-6(1,7-4)2-8-3-9-5/h4-5,7H,1-3H2	InChI=1S/C6H9NO2/c1-4-5-6(1,7-4)2-8-3-9-5/h4-5,7H,1-3H2/t4-,5+,6-/m1/s1
