19
gdb 78208	2.26408	1.54851	1.3537	2.4844	76.12	-0.2321	-0.0161	0.216	1073.9983	0.157059	-423.015712	-423.006523	-423.005578	-423.049074	34.898	
C	-0.5011071147	 1.2820385233	 0.2587446727	-0.423294
C	-0.1724708829	-0.1826588652	 0.4847295454	-0.024505
C	 1.0382429072	-0.8928223227	-0.1033886839	-0.203147
C	 0.8034406738	-0.7871887819	 1.4392808246	-0.093298
C	 2.0886010371	 0.0278008081	 1.6310847678	 0.295723
C	 2.1043635087	 1.3328912334	 2.4068791132	-0.465738
O	 3.0730002541	-0.8672589229	 2.1519032824	-0.472055
C	 2.2606284927	-0.0488835628	 0.073887195	 0.350618
O	 3.1908199485	 0.2490928815	-0.6249494612	-0.338559
H	 0.3881783734	 1.9051758732	 0.1466209144	 0.135804
H	-1.0858799221	 1.3882886578	-0.6608354036	 0.124197
H	-1.1011518286	 1.684473677	 1.0821384558	 0.124091
H	-1.0537887811	-0.815766789	 0.3908017937	 0.103922
H	 0.9399952139	-1.7351855128	-0.7770107835	 0.110446
H	 0.5399946561	-1.6052206912	 2.0977281879	 0.109622
H	 2.0186274522	 1.1208033399	 3.4770487002	 0.12915
H	 3.0545772725	 1.8528463444	 2.2392044131	 0.123714
H	 1.2962266145	 2.0070313231	 2.1195807891	 0.122805
H	 3.9342564448	-0.5377640534	 1.8676546767	 0.290503
102.0531	157.5105	171.0804	189.1258	242.2292	268.7682	295.2199	343.5319	369.9785	393.7026	497.7011	587.0407	651.5617	665.1431	718.0235	769.2285	850.8644	885.4573	924.3361	933.6982	960.3377	981.587	1047.5923	1058.9555	1093.9401	1114.4146	1142.0064	1168.3928	1194.4335	1217.2	1286.9784	1331.8453	1375.3666	1405.381	1418.1945	1438.281	1484.5056	1490.335	1498.8644	1504.5523	1867.5838	3037.0365	3038.6468	3096.4644	3102.8239	3113.6826	3130.8609	3142.2228	3191.4344	3202.6599	3788.3125
CC1C2C1C(C)(O)C2=O	C[C@H]1[C@@H]2[C@H]1[C@@](C)(O)C2=O	
InChI=1S/C7H10O2/c1-3-4-5(3)7(2,9)6(4)8/h3-5,9H,1-2H3	InChI=1S/C7H10O2/c1-3-4-5(3)7(2,9)6(4)8/h3-5,9H,1-2H3/t3-,4+,5-,7+/m0/s1
