14
gdb 21011	6.35448	1.36996	1.1351	2.9346	74.71	-0.226	-0.0039	0.2221	1006.8475	0.107555	-341.57542	-341.567912	-341.566967	-341.60798	26.977	
C	 0.0199444132	 1.392961285	 0.0939759156	-0.318618
N	-0.0186208811	-0.0505018298	-0.0135932858	 0.055357
C	-0.0925038623	-0.7996791981	-1.1438717923	-0.028205
C	-0.0545310104	-2.1177623786	-0.7522832929	-0.322547
C	 0.0468653546	-2.0657210232	 0.6607132421	 0.216429
N	 0.0697251599	-0.7960272152	 1.0971589698	-0.328226
C	 0.1139066959	-3.1605786016	 1.5587394109	 0.26758
C	 0.1696604424	-4.1138665625	 2.2911437126	-0.429505
H	 1.0218626685	 1.7336740902	 0.3715935787	 0.151209
H	-0.2555968038	 1.8279766353	-0.8680511216	 0.139526
H	-0.6882961304	 1.7197335087	 0.8578514457	 0.158559
H	-0.1666198055	-0.3416235845	-2.117497561	 0.134262
H	-0.0993917408	-2.9948044999	-1.3756207885	 0.115154
H	 0.2189000496	-4.9474026559	 2.9466816668	 0.189024
34.8828	140.4098	150.0712	231.517	357.1921	466.8825	549.7712	562.8185	575.0113	630.0115	660.2258	721.233	726.32	772.3929	839.9322	1012.5088	1019.8169	1071.7151	1092.0395	1151.0965	1224.2911	1334.5587	1366.885	1422.2536	1453.6705	1475.9869	1489.3563	1523.5058	1544.9113	2239.3193	3050.6487	3121.9406	3150.6688	3257.8706	3283.9407	3505.6308
CN1C=CC(=N1)C#C	Cn1ccc(n1)C#C	
InChI=1S/C6H6N2/c1-3-6-4-5-8(2)7-6/h1,4-5H,2H3	InChI=1S/C6H6N2/c1-3-6-4-5-8(2)7-6/h1,4-5H,2H3
