17
gdb 33258	5.43788	0.78227	0.7161	1.0602	70.85	-0.2154	0.0194	0.2348	1533.0859	0.136074	-458.967788	-458.95935	-458.958406	-459.001941	30.813	
O	-0.0219645017	 1.4452562008	-0.0581456841	-0.418192
C	 0.0180314306	 0.0341103515	-0.0090040616	-0.065686
C	-1.3752160225	-0.5687852748	 0.0313803994	-0.08853
O	-2.0229381192	-0.1790284773	-1.1776648475	-0.283901
C	-3.3178998698	-0.5515229353	-1.3002910057	 0.327719
C	-4.1090724517	-1.273607208	-0.4539054798	-0.148506
O	-5.3560675057	-1.4060868129	-1.0023427302	-0.148499
C	-5.3401644751	-0.7647233243	-2.1940015296	 0.024702
C	-4.1220276795	-0.2187018779	-2.4393516389	-0.310378
H	-0.5959191621	 1.6740787193	-0.7980518232	 0.292359
H	 0.5657496318	-0.3873158388	-0.8667204964	 0.098845
H	 0.5582289161	-0.2416636043	 0.902405808	 0.113876
H	-1.3335813822	-1.6655147777	 0.1010632985	 0.10401
H	-1.9373538445	-0.178416001	 0.8911846941	 0.113385
H	-3.9601599902	-1.7364091776	 0.5046634244	 0.133495
H	-6.2634409484	-0.7829451293	-2.7493382144	 0.13871
H	-3.814033586	 0.3464961374	-3.303912853	 0.11659
53.5635	69.7353	134.767	176.0822	292.9323	339.1552	402.1873	450.4456	495.4026	609.8935	645.2295	694.3529	721.4818	766.2072	823.1715	878.4624	891.3198	914.2728	1008.5787	1048.4902	1074.4235	1089.9904	1106.7309	1134.8679	1216.3676	1235.2546	1260.2199	1269.4798	1318.9085	1387.9533	1395.337	1427.523	1442.3991	1496.544	1504.1353	1546.9104	1646.4538	2985.2423	2995.1176	3044.0814	3083.4161	3262.8001	3285.5206	3299.8732	3804.1582
OCCOC1=COC=C1	OCCOc1cocc1	
InChI=1S/C6H8O3/c7-2-4-9-6-1-3-8-5-6/h1,3,5,7H,2,4H2	InChI=1S/C6H8O3/c7-2-4-9-6-1-3-8-5-6/h1,3,5,7H,2,4H2
