15
gdb 34360	3.04049	1.63094	1.33216	4.8553	69.23	-0.2563	-0.0102	0.246	952.2465	0.113695	-416.730471	-416.723572	-416.722627	-416.761746	27.051	
N	-0.0164496351	-1.1344360814	-0.0274814792	-0.331911
C	 0.0007649383	 0.0214780861	-0.0276639955	 0.223001
C	 0.03619093	 1.4715500869	 0.0081784038	 0.350568
O	-0.420789951	 2.1148879222	-1.1851892676	-0.319245
C	 0.7827163597	 2.9346023451	-1.2627487071	-0.092172
C	 1.3505810575	 2.3030031009	 0.0287554466	-0.156221
C	 0.909641856	 2.9064186139	 1.3832950126	-0.052236
N	-0.3857482894	 3.5761115755	 1.1593540818	-0.323755
C	-0.3591159922	 2.1184958686	 1.3752325244	-0.123721
H	 1.351321656	 2.699429669	-2.168068695	 0.114646
H	 0.5461035827	 3.9989970167	-1.2146707438	 0.13148
H	 2.3260787675	 1.8240876865	 0.0029801476	 0.112855
H	 1.5537110125	 3.1805270667	 2.2083119431	 0.109287
H	-0.6750928976	 4.0029344022	 2.0381526039	 0.243548
H	-0.9200284548	 1.6488021511	 2.1730982644	 0.113876
138.4534	154.9231	250.52	309.1272	420.8061	480.751	532.3835	546.0976	633.9586	711.7716	793.2931	814.8721	841.9212	900.7919	923.8306	966.281	977.1147	1006.8091	1012.3472	1052.967	1059.0824	1085.6556	1117.8428	1139.1268	1165.6138	1224.5557	1235.1528	1302.6904	1325.5408	1337.3729	1370.9638	1498.8962	2353.1318	3049.4928	3122.3454	3153.8058	3196.3558	3209.6125	3490.1218
N#CC12OCC1C1NC21	N#C[C@]12OC[C@H]1[C@H]1N[C@@H]21	
InChI=1S/C6H6N2O/c7-2-6-3(1-9-6)4-5(6)8-4/h3-5,8H,1H2	InChI=1S/C6H6N2O/c7-2-6-3(1-9-6)4-5(6)8-4/h3-5,8H,1H2/t3-,4+,5+,6-/m0/s1
