21
gdb 79060	4.94933	1.13131	1.04553	0.2645	88.71	-0.2071	0.017	0.2242	1240.8635	0.183099	-349.910111	-349.902079	-349.901135	-349.942175	32.343	
C	-0.1995632927	 1.5649077209	 0.0105003641	-0.431297
C	 0.0115574459	 0.057783639	 0.0221432605	 0.020776
C	 1.2393344986	-0.5820409336	-0.679518984	-0.048001
C	 2.1823920459	-0.1545082551	 0.5104652389	-0.059553
C	 3.1830298636	-1.2796987478	 0.7107827897	-0.227022
C	 2.4707522431	-2.3950143126	 0.5219768031	 0.313413
C	 2.8556128587	-3.8338125266	 0.5747110097	-0.506309
C	 1.0725678044	-1.8640620175	 0.216960334	-0.111231
C	 0.8222844783	-0.6263006087	 1.1552364748	-0.048005
H	 0.7157398299	 2.1208149112	 0.2322555408	 0.115265
H	-0.5603791269	 1.8991331018	-0.9688515999	 0.113732
H	-0.9519574907	 1.8575650931	 0.7516323427	 0.11373
H	-0.9318630965	-0.4546094987	-0.2046644755	 0.057097
H	 1.492764464	-0.5673393001	-1.7441893816	 0.060166
H	 2.5111498571	 0.8789682003	 0.6101217596	 0.059241
H	 4.2320481701	-1.172333243	 0.9518419253	 0.092312
H	 3.9160215206	-3.9555450957	 0.8132772583	 0.123724
H	 2.2739398071	-4.3780769325	 1.3302885206	 0.124719
H	 2.6640504476	-4.3364966015	-0.3824131878	 0.124729
H	 0.2552509169	-2.5596253815	 0.0144023528	 0.052345
H	 0.590704335	-0.6630759314	 2.2243404541	 0.060168
147.7737	173.3545	188.0545	197.9815	287.4376	309.4917	432.9703	502.4742	547.8339	586.3369	708.9346	742.8255	788.8542	806.6304	822.0458	867.9148	877.2246	910.989	957.4354	970.253	1008.6531	1015.2199	1050.1512	1051.7605	1063.5187	1100.2648	1117.7631	1129.8396	1153.0285	1171.2715	1188.612	1200.336	1237.7018	1250.8229	1271.8335	1316.3238	1323.3987	1409.5381	1413.268	1422.7572	1477.4926	1487.6112	1495.0981	1501.5921	1698.1467	3011.5632	3020.6674	3030.3004	3054.0232	3061.1167	3065.7915	3086.0505	3096.2913	3105.6374	3107.0446	3128.6763	3221.3575
CC1C2C3C=C(C)C2C13	C[C@H]1[C@H]2[C@@H]3C=C(C)[C@H]2[C@H]13	
InChI=1S/C9H12/c1-4-3-6-8-5(2)9(6)7(4)8/h3,5-9H,1-2H3	InChI=1S/C9H12/c1-4-3-6-8-5(2)9(6)7(4)8/h3,5-9H,1-2H3/t5-,6-,7+,8-,9+
