20
gdb 55866	3.58518	0.8229	0.75635	4.4879	76.33	-0.2354	0.0371	0.2725	1536.7307	0.168338	-440.307624	-440.297192	-440.296248	-440.34384	38.071	
C	-0.4151791289	 1.5005528891	 0.0636432659	-0.448291
C	 0.1923276622	 0.1187854358	-0.0195842479	 0.385792
O	-0.4802592009	-0.7399685893	-0.9074383339	-0.46597
C	 1.6864595591	-0.0805071612	 0.1109335546	-0.365988
C	 0.7278486746	-0.6062142386	 1.1796906686	-0.056572
C	 0.6961802253	-0.0355631353	 2.5814353629	-0.325694
C	 1.6645792112	-0.6636390612	 3.5908527605	 0.391194
N	 2.799335492	-1.2032086598	 3.0612480318	-0.512446
O	 1.442167071	-0.6466844923	 4.7854147383	-0.367178
H	 0.112388847	 2.1421586875	 0.7734954627	 0.121363
H	-0.3729078308	 1.9938849001	-0.9153447969	 0.109724
H	-1.465758004	 1.4391352241	 0.3645780242	 0.132297
H	-0.3933863647	-0.3731775507	-1.7947893349	 0.280005
H	 2.1490634504	-0.799157028	-0.5570478665	 0.114302
H	 2.2990867711	 0.782405821	 0.3561140932	 0.113577
H	 0.5462616086	-1.6763248837	 1.1261648802	 0.10965
H	 0.9201218292	 1.0380046524	 2.5679533956	 0.123261
H	-0.2990507081	-0.1334589594	 3.0249328027	 0.136189
H	 2.9643430274	-1.2305831276	 2.0706049853	 0.266883
H	 3.4688525083	-1.6146748329	 3.6898972133	 0.257898
30.3248	66.8336	121.4284	183.9145	201.7925	212.8962	249.7735	317.9734	349.034	382.1363	424.2393	448.4435	497.9802	551.5968	573.0446	678.3407	705.8909	846.9577	859.912	880.1163	909.1964	930.5367	983.3776	1019.4939	1042.2697	1082.6355	1099.5237	1118.8349	1154.0042	1225.0508	1255.6839	1288.4628	1309.0036	1352.6318	1366.8858	1415.1918	1422.0825	1459.873	1479.0656	1486.8472	1509.8549	1606.5574	1800.89	3027.265	3042.9016	3090.3409	3092.8425	3118.536	3123.1641	3150.2412	3212.5826	3602.9841	3741.7385	3788.674
CC1(O)CC1CC(N)=O	C[C@@]1(O)C[C@H]1CC(=O)N	
InChI=1S/C6H11NO2/c1-6(9)3-4(6)2-5(7)8/h4,9H,2-3H2,1H3,(H2,7,8)	InChI=1S/C6H11NO2/c1-6(9)3-4(6)2-5(7)8/h4,9H,2-3H2,1H3,(H2,7,8)/t4-,6-/m1/s1
