18
gdb 14108	3.70711	1.7408	1.36482	2.7936	73.14	-0.2365	-0.0109	0.2256	946.8624	0.153245	-347.803218	-347.795342	-347.794398	-347.835608	29.542	
C	 0.4843902381	 1.3496234634	 0.1071169052	-0.49069
C	-0.2376149863	 0.0200213923	-0.0259135993	 0.279093
O	-0.8953810754	-0.4405220954	 0.8868754647	-0.326157
C	-0.0898889546	-0.7034659494	-1.3121000602	 0.263053
C	-1.1283575868	-1.7313942771	-1.7162260182	-0.308833
C	 0.2488893134	-2.2176201746	-1.4520198524	-0.069677
C	 1.1773408399	-1.9066702136	-2.6304403432	-0.222041
C	 0.8264422058	-0.3869877272	-2.5043705184	-0.314818
H	 1.5695743872	 1.2008739473	 0.0630973238	 0.138693
H	 0.222559674	 2.0202556857	-0.7188686942	 0.135817
H	 0.2227927675	 1.8106238528	 1.0600295211	 0.140194
H	-1.8557513717	-1.9339284362	-0.9385796692	 0.142515
H	-1.5169400596	-1.7045544576	-2.7319764184	 0.107501
H	 0.4631381471	-2.8920806575	-0.6320624739	 0.106463
H	 2.2285768826	-2.1069789156	-2.4149449364	 0.10901
H	 0.915857758	-2.3936590779	-3.5753103635	 0.103114
H	 0.3374655148	 0.0776039423	-3.3669847369	 0.09978
H	 1.697779476	 0.2141649083	-2.2370618105	 0.106984
62.6984	146.3018	166.2826	203.8242	293.9811	373.0722	410.156	501.7147	589.3276	621.5967	719.2914	784.6444	802.4906	852.8886	920.7083	932.5932	953.7313	972.4299	1016.1817	1023.8724	1049.5054	1086.2085	1105.7557	1128.2508	1175.1685	1221.7453	1230.482	1247.329	1288.6681	1317.7972	1372.7953	1397.2246	1462.0539	1471.4178	1475.0424	1483.9246	1505.403	1774.4952	3034.3152	3044.9473	3054.1681	3093.7988	3101.9517	3108.8596	3120.0093	3152.8305	3192.489	3222.4538
CC(=O)C12CC1CC2	CC(=O)[C@]12C[C@H]1CC2	
InChI=1S/C7H10O/c1-5(8)7-3-2-6(7)4-7/h6H,2-4H2,1H3	InChI=1S/C7H10O/c1-5(8)7-3-2-6(7)4-7/h6H,2-4H2,1H3/t6-,7+/m1/s1
