21
gdb 78032	2.39726	1.43496	1.26866	1.9923	77.81	-0.2339	0.0635	0.2975	1128.9366	0.182349	-424.221017	-424.211879	-424.210935	-424.254067	35.786	
C	-0.073019667	 1.5672001673	-0.0368823872	-0.403467
C	-0.0000915059	 0.0383051286	 0.0085419412	 0.036949
C	 0.6686499951	-0.5943583304	-1.2405552687	-0.224216
C	 1.286162673	-1.9263316117	-0.7599554835	-0.287995
C	 1.5455636777	-1.7456769666	 0.7316400826	 0.324782
O	 1.5719570407	-2.88883172	 1.5390185055	-0.466815
C	 2.2815278861	-0.5100895734	 1.1987980423	 0.008165
O	 2.970600377	 0.3609978811	 0.3427697916	-0.410745
C	 0.7706219424	-0.5331752999	 1.1968619271	-0.12679
H	 0.9309721981	 1.9974996071	-0.0876161894	 0.136849
H	-0.6379861899	 1.906165586	-0.9124806738	 0.10462
H	-0.5701498385	 1.9682094723	 0.8529677213	 0.105689
H	-1.0231368727	-0.3548627022	 0.0889956741	 0.071368
H	-0.047493861	-0.7426834537	-2.0541492815	 0.089879
H	 1.4525117616	 0.0713496556	-1.6066953297	 0.112571
H	 0.5770912946	-2.7556241089	-0.8627537557	 0.107992
H	 2.18518104	-2.1977859162	-1.3273070482	 0.080058
H	 2.398280203	-3.3555498561	 1.3722087593	 0.277223
H	 2.72341853	-0.6126210252	 2.1910569192	 0.087635
H	 3.7981224463	-0.0599097248	 0.0872553751	 0.286213
H	 0.2903861694	-0.533070199	 2.1699068585	 0.090036
122.6771	183.8205	211.1851	231.6586	246.845	271.0699	283.2188	298.0985	384.6591	403.4217	500.1341	536.728	580.5587	661.491	713.7985	785.0295	824.1791	899.3052	922.0832	959.3758	981.6093	983.9043	1017.3438	1047.7804	1075.2555	1111.4063	1129.389	1164.5014	1195.6444	1222.0358	1244.7642	1263.6647	1282.3103	1319.8211	1328.8009	1336.819	1346.9403	1359.2883	1381.0976	1406.8107	1465.5039	1487.8005	1497.2656	1505.3778	1508.8061	3002.3637	3023.7991	3030.1329	3062.2493	3064.0876	3090.6479	3090.9808	3114.4891	3119.2389	3165.3005	3792.0404	3803.5207
CC1CCC2(O)C(O)C12	C[C@H]1CC[C@@]2(O)[C@@H](O)[C@@H]12	
InChI=1S/C7H12O2/c1-4-2-3-7(9)5(4)6(7)8/h4-6,8-9H,2-3H2,1H3	InChI=1S/C7H12O2/c1-4-2-3-7(9)5(4)6(7)8/h4-6,8-9H,2-3H2,1H3/t4-,5+,6-,7-/m0/s1
