18
gdb 47396	2.78767	1.62885	1.25097	1.6053	72.61	-0.2644	0.02	0.2843	1035.9372	0.149091	-439.092063	-439.084284	-439.08334	-439.124649	29.592	
N	-0.0357690198	 1.3046412548	 0.1197264299	-0.536129
C	-0.0042516492	 0.0461375587	 0.1878365426	 0.34472
O	 1.1176497053	-0.729514241	 0.2199962827	-0.245311
C	 0.7078455639	-2.097449167	 0.2181235256	 0.001372
O	-0.6347737796	-2.1220220723	 0.6134137974	-0.291768
C	-1.204964692	-0.8729906286	 0.2480151518	 0.334171
C	-2.3913627481	-0.3930383492	 1.1105172346	-0.271874
C	-3.1016120453	 0.0760207959	-0.1891400144	-0.210815
C	-2.1296888192	-0.8146962174	-1.0093376852	-0.276942
H	 0.9051917078	 1.6966208876	 0.0719109876	 0.226904
H	 0.8480392597	-2.5033190532	-0.7961477512	 0.106715
H	 1.3138718378	-2.6546236472	 0.9381787942	 0.129281
H	-2.8839051203	-1.2546832177	 1.5678984641	 0.114126
H	-2.1668220806	 0.3548723428	 1.8719856739	 0.119225
H	-4.1669406359	-0.1415525572	-0.2793073375	 0.100462
H	-2.9291490017	 1.1365744557	-0.3763422045	 0.134417
H	-1.7071146712	-0.4038685894	-1.9281782272	 0.10984
H	-2.5396118215	-1.8092145353	-1.2040056645	 0.111606
80.8027	126.546	172.1535	219.4197	289.1211	382.5724	458.2968	498.8095	679.3818	692.1351	711.9429	755.757	791.9057	843.5592	881.8156	911.661	935.8831	965.7538	995.5338	1026.8265	1048.9075	1066.5497	1123.0408	1161.2263	1180.5898	1188.4361	1213.0985	1221.4942	1249.7804	1252.066	1280.0024	1292.2313	1347.0012	1445.3185	1463.1161	1476.8381	1497.8646	1547.8564	1788.1681	2979.9889	3065.1503	3073.3982	3083.4168	3088.1676	3122.5903	3133.8538	3147.9961	3485.3834
N=C1OCOC11CCC1	[NH][C]1OCOC21CCC2	
InChI=1S/C6H9NO2/c7-5-6(2-1-3-6)9-4-8-5/h7H,1-4H2	InChI=1S/C6H9NO2/c7-5-6(2-1-3-6)9-4-8-5/h7H,1-4H2
