22
gdb 105224	1.82053	1.46649	1.25965	2.0276	78.3	-0.2344	0.0701	0.3044	1200.6286	0.192642	-441.449559	-441.439255	-441.438311	-441.484559	38.548	
C	-0.5276384384	-2.8783728092	-1.4456689387	-0.408165
C	-0.3428417	-1.8637153081	-0.3109576872	 0.084034
O	 0.5427577296	-0.8158317677	-0.6953042111	-0.454884
C	-1.6619599372	-1.2911529462	 0.2057406131	 0.278895
C	-2.4795256965	-0.4969892001	-0.7990177317	-0.135956
O	-1.8067430989	 0.713378092	-1.157733099	-0.422112
C	-2.3721005073	-1.9423319075	 1.3438938726	-0.30539
N	-1.7226399354	-0.6488526216	 1.5306888835	-0.132372
C	-0.5356621686	-0.5952795207	 2.3800650372	-0.319159
H	 0.4490660348	-3.273155003	-1.7375261341	 0.125001
H	-1.163813549	-3.7137462149	-1.1338322488	 0.10995
H	-0.9749004639	-2.4158692806	-2.3309264027	 0.118792
H	 0.157673293	-2.3813068771	 0.5145607607	 0.076288
H	 0.0088824196	-0.1527888575	-1.15783909	 0.285775
H	-2.6279020598	-1.0464279734	-1.732604755	 0.116323
H	-3.4665176445	-0.2765795958	-0.3730892482	 0.101555
H	-1.7028655063	 1.2034642415	-0.3318437481	 0.296489
H	-3.4588620422	-1.9543157205	 1.3899318671	 0.111434
H	-1.8936555231	-2.8131743002	 1.7917533082	 0.108399
H	-0.0319942516	-1.5627508868	 2.5182653282	 0.107125
H	 0.1867729043	 0.1026075355	 1.949554034	 0.137868
H	-0.8357037486	-0.2319888681	 3.3679783	 0.120109
62.3364	98.9898	137.2354	194.0911	213.0933	237.795	246.7698	293.1738	342.7599	380.5836	425.7519	437.8986	503.4618	520.7166	561.7988	635.852	724.8083	828.1097	873.1186	918.612	921.4266	974.6855	1032.3509	1041.9899	1058.633	1100.9366	1114.5295	1128.8996	1144.904	1159.0004	1195.5347	1213.4004	1291.8634	1313.5869	1349.9118	1371.2131	1403.4796	1409.5054	1429.6769	1450.0976	1460.9984	1484.2806	1489.177	1496.7117	1506.7569	1507.596	1515.5115	2994.4636	3024.3341	3036.6626	3047.7513	3074.3757	3082.9662	3096.9337	3109.4726	3120.0197	3120.7965	3165.1033	3705.5928	3777.9778
CC(O)C1(CO)CN1C	C[C@@H](O)[C@@]1(CO)CN1C	
InChI=1S/C6H13NO2/c1-5(9)6(4-8)3-7(6)2/h5,8-9H,3-4H2,1-2H3	InChI=1S/C6H13NO2/c1-5(9)6(4-8)3-7(6)2/h5,8-9H,3-4H2,1-2H3/t5-,6+,7?/m1/s1
