23
gdb 70353	2.57042	1.64964	1.32094	0.2503	87.88	-0.2498	0.0797	0.3296	1097.0969	0.208284	-351.151069	-351.14309	-351.142145	-351.182972	33.153	
C	-0.2662250607	 1.4170128862	 0.1513284296	-0.488617
C	 0.0550013259	-0.0539958918	 0.0116186555	 0.369321
C	-0.4094463718	-1.0065844729	 1.09207208	-0.341951
C	 1.0666458981	-0.7537099265	 0.9065152991	-0.064544
C	 1.870294596	-1.7622150568	 0.0922545396	-0.253671
C	 1.22047411	-1.7996177889	-1.3088158263	 0.007322
C	 0.0656474523	-2.8020611463	-1.6161958308	-0.234338
C	-0.8832743967	-1.6082075395	-1.9291236008	-0.230302
C	 0.2001697187	-0.6176905484	-1.4023475029	-0.078282
H	 0.4619913665	 2.0366237546	-0.3857705806	 0.111606
H	-1.2586807926	 1.6495684267	-0.2535734568	 0.115167
H	-0.2591926049	 1.7285388901	 1.2009971635	 0.110127
H	-0.8836182194	-0.5611951637	 1.9612983801	 0.10259
H	-0.8198734814	-1.9746847186	 0.826488276	 0.108214
H	 1.5835033272	-0.2003845433	 1.6848569791	 0.07377
H	 2.9097197378	-1.4222800907	 0.019098892	 0.094592
H	 1.8965422729	-2.7558084165	 0.5567096141	 0.095598
H	 1.976238885	-1.8030759199	-2.097832119	 0.065327
H	 0.2503998314	-3.4878856379	-2.4469539313	 0.092144
H	-0.2371227014	-3.4020230993	-0.7532624297	 0.098204
H	-1.0807552557	-1.4928768273	-2.9979859138	 0.094604
H	-1.8407711239	-1.5929038571	-1.4022809335	 0.097035
H	 0.4562896768	 0.1912117779	-2.0929057931	 0.056083
137.6395	184.1315	218.7413	251.5376	299.8357	343.0307	408.3459	445.893	569.2864	654.4916	671.9611	711.6855	766.1457	813.8474	837.1418	853.2742	878.672	900.7029	945.0214	956.353	966.4103	995.6218	1023.841	1051.3951	1062.6543	1074.5116	1078.2752	1106.4587	1113.2588	1137.7366	1189.9412	1213.507	1230.0637	1237.0718	1260.6592	1271.8371	1273.6716	1303.5029	1311.9889	1343.3885	1349.1839	1407.5426	1419.7463	1478.0069	1487.6024	1491.1178	1492.3362	1501.4202	1508.995	3017.1212	3024.8256	3049.9957	3052.9081	3056.2821	3061.6674	3074.1356	3075.0586	3093.2059	3094.9467	3113.3246	3126.1622	3150.0164	3206.8854
CC12CC1CC1CCC21	C[C@]12C[C@H]1C[C@H]1CC[C@@H]21	
InChI=1S/C9H14/c1-9-5-7(9)4-6-2-3-8(6)9/h6-8H,2-5H2,1H3	InChI=1S/C9H14/c1-9-5-7(9)4-6-2-3-8(6)9/h6-8H,2-5H2,1H3/t6-,7-,8-,9+/m1/s1
