21
gdb 101450	2.27191	1.40432	1.06681	2.0788	74.92	-0.245	0.0699	0.3149	1226.9735	0.181006	-461.331636	-461.321839	-461.320895	-461.366551	35.722	
C	-0.2640941718	 1.2807477703	-0.0738443439	-0.242557
O	 0.2543114174	-0.0329512522	-0.1525542263	-0.269491
C	 0.779835244	-0.5561815766	 1.0745290692	 0.109416
C	-0.3102816162	-0.7688296864	 2.1265400741	-0.408923
C	 1.4777121005	-1.8772242341	 0.7549504709	 0.074072
O	 0.5701011556	-2.8831387939	 0.2575466089	-0.293948
C	 1.1751915146	-2.8678715483	-1.0553739555	-0.10364
C	 2.3257594447	-1.9632533809	-0.5512404239	 0.076955
O	 2.6547100941	-0.8000357229	-1.2464305779	-0.434623
H	 0.4613281119	 1.9754011455	 0.3755322741	 0.112662
H	-0.4747936283	 1.6018316595	-1.0967276389	 0.133069
H	-1.1957770979	 1.3241418746	 0.5034188219	 0.122744
H	 1.5426130538	 0.1431777931	 1.4571501623	 0.076226
H	-1.0491651204	-1.478529125	 1.7468209733	 0.14847
H	 0.1287116881	-1.1795750165	 3.040907509	 0.121184
H	-0.8105368633	 0.1653617393	 2.3930459114	 0.114698
H	 1.9844851388	-2.2181203423	 1.6680552923	 0.07533
H	 1.4375952327	-3.8752846002	-1.3972949913	 0.100159
H	 0.5321961483	-2.3799614875	-1.7985140835	 0.102221
H	 3.2567537305	-2.5150433278	-0.400137659	 0.096658
H	 1.8458350428	-0.2669904478	-1.2566302072	 0.289317
70.5953	92.4414	112.2539	177.7417	205.1274	214.0622	262.2025	297.3734	335.2753	422.9988	436.6616	549.7981	625.2413	646.5772	768.8134	774.8559	868.215	901.311	957.437	1002.7743	1023.4963	1035.8166	1064.6735	1098.3317	1110.7378	1152.8198	1165.9993	1178.7634	1183.5252	1215.6256	1250.3694	1267.3156	1322.4981	1336.4816	1363.8756	1379.0185	1382.3446	1401.1113	1471.5414	1481.841	1485.6098	1495.5903	1505.1971	1512.0788	1514.4745	2964.7481	2991.245	3011.518	3020.2565	3048.1972	3057.1252	3067.288	3088.6315	3115.5698	3118.3729	3137.9529	3710.7398
COC(C)C1OCC1O	CO[C@@H](C)[C@H]1OC[C@H]1O	
InChI=1S/C6H12O3/c1-4(8-2)6-5(7)3-9-6/h4-7H,3H2,1-2H3	InChI=1S/C6H12O3/c1-4(8-2)6-5(7)3-9-6/h4-7H,3H2,1-2H3/t4-,5+,6+/m0/s1
