23
gdb 68877	2.24531	1.74072	1.35051	0.2051	89.39	-0.2362	0.0862	0.3225	1105.6091	0.20614	-351.129752	-351.120951	-351.120007	-351.162565	35.123	
C	 0.0550689854	 1.5595795225	 0.0003878673	-0.502888
C	-0.0256566384	 0.0601886738	 0.0697003876	 0.324628
C	 1.1233488086	-0.8324279239	-0.3263024679	-0.39391
C	 0.5864591762	-0.9394107904	 1.0786978688	 0.324653
C	 1.444713258	-0.709836955	 2.2912135118	-0.502903
C	-0.6795294942	-1.7920527576	 1.0326303419	-0.08504
C	-1.7722097588	-1.3979305404	 2.0622946564	-0.232384
C	-2.3877630706	-0.392618659	 1.047937196	-0.232379
C	-1.3075443201	-0.7665671978	-0.0022102382	-0.085051
H	 1.0478963551	 1.9175078528	 0.2931934538	 0.114982
H	-0.1341361707	 1.9200073644	-1.0185243696	 0.117843
H	-0.6763275018	 2.0396245334	 0.6600507439	 0.116163
H	 0.9792382281	-1.6416798443	-1.0406063157	 0.095572
H	 2.0845438682	-0.3340139641	-0.415517813	 0.100919
H	 2.1582436593	 0.1040955657	 2.1240435082	 0.114986
H	 0.847310345	-0.4489867572	 3.171901204	 0.116169
H	 2.0255457606	-1.6065131496	 2.5411951218	 0.117843
H	-0.5551724212	-2.8598790197	 0.8307583495	 0.05454
H	-2.4440346525	-2.2234808564	 2.3095662534	 0.097145
H	-1.4054616215	-0.9754773955	 3.0019780394	 0.093708
H	-3.3992573002	-0.6634598677	 0.7356094182	 0.097154
H	-2.4049005682	 0.6568839099	 1.3548996282	 0.093713
H	-1.6644299963	-1.048694764	-0.9969455257	 0.054535
107.8536	180.6554	188.2569	196.8259	229.0603	244.6907	388.7095	404.3937	458.1194	481.1588	539.5075	659.8349	701.6688	737.3843	817.9339	822.6283	828.0579	858.9123	950.8241	959.1831	976.1917	987.0797	995.7278	1030.2356	1040.2922	1064.6514	1080.9151	1119.5081	1132.8376	1155.0064	1188.1027	1196.8593	1237.0668	1260.9625	1264.5797	1274.3655	1292.7697	1327.8924	1340.122	1388.0627	1413.491	1427.1844	1475.1835	1486.6601	1488.9738	1496.3311	1497.2153	1501.3385	1506.7239	3017.942	3020.0161	3050.4449	3055.6172	3056.5505	3067.9228	3075.3289	3076.5209	3089.7215	3091.1373	3092.8891	3093.6118	3112.5938	3182.7161
CC12CC1(C)C1CCC21	C[C@@]12C[C@]1(C)[C@H]1CC[C@@H]21	
InChI=1S/C9H14/c1-8-5-9(8,2)7-4-3-6(7)8/h6-7H,3-5H2,1-2H3	InChI=1S/C9H14/c1-8-5-9(8,2)7-4-3-6(7)8/h6-7H,3-5H2,1-2H3/t6-,7+,8+,9-
