17
gdb 75073	2.16018	1.65814	1.06403	2.4733	75.62	-0.2436	-0.0431	0.2005	1134.0325	0.133821	-421.873629	-421.864892	-421.863948	-421.907574	31.594	
C	-0.146797642	 1.4847885481	 0.2292634371	-0.500565
C	-0.0462009969	-0.0003127236	 0.0879547566	 0.343518
C	 0.0082401586	-0.700925162	-1.0499364825	-0.179423
C	 0.0912990084	-2.1874799977	-0.8461694104	-0.370107
C	 0.0371840261	-2.3375330091	 0.6770999721	 0.384331
O	 0.0407156832	-3.3603062118	 1.3074646967	-0.302704
C	-0.0052215244	-0.9144919074	 1.289603446	-0.319962
C	 1.1704510245	-0.7407839663	 2.2455806388	 0.151744
O	 1.9970807414	 0.1294898754	 2.1695312252	-0.236888
H	 0.7155123525	 1.8745701405	 0.7787392936	 0.159823
H	-0.194351033	 1.9732145991	-0.7477553926	 0.123469
H	-1.0435029247	 1.7676637311	 0.7957446238	 0.122593
H	-0.0124913226	-0.2527334503	-2.0371644658	 0.100554
H	-0.7312636922	-2.7508586466	-1.3056793551	 0.140563
H	 1.0175075332	-2.6395583794	-1.2261812298	 0.144777
H	-0.9062080798	-0.8552025802	 1.9213824827	 0.12875
H	 1.2072478279	-1.51867002	 3.0374662137	 0.109525
52.7417	105.2614	174.289	185.5716	234.0411	242.9891	292.6935	431.3333	481.2909	526.9187	570.996	677.1353	705.0061	749.109	808.2941	882.0193	912.776	964.6489	992.1862	1037.4279	1048.9365	1072.0955	1117.9658	1142.8918	1177.1985	1212.6311	1275.8039	1292.4999	1343.1493	1409.2472	1418.0146	1444.2996	1474.7321	1496.0119	1714.073	1817.3078	1853.5847	2914.4176	2990.4818	3022.5904	3024.1411	3049.9024	3087.2705	3120.8401	3193.6241
CC1=CCC(=O)C1C=O	CC1=CCC(=O)[C@H]1C=O	
InChI=1S/C7H8O2/c1-5-2-3-7(9)6(5)4-8/h2,4,6H,3H2,1H3	InChI=1S/C7H8O2/c1-5-2-3-7(9)6(5)4-8/h2,4,6H,3H2,1H3/t6-/m0/s1
