17
gdb 46921	3.18399	1.4698	1.10921	2.128	68.68	-0.2424	-0.0274	0.215	1070.8854	0.13575	-458.941609	-458.933959	-458.933015	-458.974461	29.31	
O	-0.0200725051	 0.5471659694	-1.1008083566	-0.28694
C	-0.0194351888	 1.3764357868	-0.2216343952	 0.292193
C	-1.3753024072	 1.8529598264	 0.3276795964	-0.166638
O	-1.3786217471	 2.7911036253	 1.3784573699	-0.230966
C	-0.797001203	 4.0052539911	 1.024243504	 0.071471
C	-0.0327509084	 4.6945245407	 2.1172733763	-0.346028
C	 0.7201368203	 4.025734887	 1.0038251509	 0.071471
O	 1.343635613	 2.8278535999	 1.3418201559	-0.230966
C	 1.3373660423	 1.8895811558	 0.2911707872	-0.166638
H	-1.9426563648	 2.2186540703	-0.5437227905	 0.124295
H	-1.8970793533	 0.9641751879	 0.6966976385	 0.146604
H	-1.3568968104	 4.595507208	 0.2980795288	 0.092498
H	-0.0467687429	 5.7770264377	 2.1614915529	 0.122046
H	-0.0129860725	 4.1826070901	 3.0723981461	 0.144202
H	 1.244155791	 4.6306206299	 0.2630732042	 0.092498
H	 1.8926825521	 1.0153374789	 0.6456917678	 0.146604
H	 1.8709898721	 2.2701398049	-0.5950490868	 0.124295
33.4128	172.0451	258.3476	292.8384	322.8603	374.1087	458.8803	475.788	483.6507	636.3682	691.7943	750.4769	773.5489	800.1779	858.423	875.2781	1008.0976	1027.7456	1069.928	1085.6113	1105.2264	1117.6127	1131.6023	1163.5005	1164.0346	1217.0357	1240.5784	1279.9118	1309.1863	1340.7502	1374.4438	1390.7702	1400.9558	1451.3841	1452.844	1473.5135	1801.9757	2981.2904	2984.2024	3085.5607	3087.0307	3092.7393	3102.5763	3147.1734	3242.236
O=C1COC2CC2OC1	O=C1CO[C@H]2C[C@H]2OC1	
InChI=1S/C6H8O3/c7-4-2-8-5-1-6(5)9-3-4/h5-6H,1-3H2	InChI=1S/C6H8O3/c7-4-2-8-5-1-6(5)9-3-4/h5-6H,1-3H2/t5-,6+
