16
gdb 84341	3.02813	1.36775	1.05468	4.1247	77.96	-0.2335	-0.0115	0.222	1137.9202	0.123985	-396.907947	-396.899235	-396.898291	-396.941754	31.411	
C	 0.0023862363	 1.4772182503	 0.0056009383	-0.357874
N	 0.0190212328	 0.0342350264	 0.010244824	-0.083464
C	-0.0377191178	-0.8083782651	-1.0922453112	 0.06177
N	 0.0019070097	-2.0628288722	-0.8687204357	-0.255638
C	 0.1054409191	-2.1964969645	 0.6065956894	-0.229026
C	 1.2795465731	-2.9613620056	 1.0050870077	 0.380288
C	 2.2494679865	-3.5879545457	 1.3326055385	-0.470549
C	 0.1073695858	-0.7552124885	 1.1576155168	 0.356167
N	 0.1584639599	-0.4203627129	 2.3783859914	-0.53952
H	 0.9146749999	 1.8826840599	 0.4586285918	 0.147503
H	-0.0593978088	 1.8324672152	-1.0247598794	 0.146551
H	-0.8616022677	 1.8648354173	 0.5584303634	 0.144764
H	-0.1182406205	-0.3695976704	-2.0827629232	 0.136325
H	-0.7962823182	-2.7067399955	 0.9700098069	 0.147731
H	 3.1045577933	-4.1441551682	 1.6274049645	 0.200666
H	 0.1356206867	 0.5925334895	 2.5034845568	 0.214307
65.5399	105.1952	128.7992	162.6845	220.4061	285.712	388.5565	410.5584	504.4368	549.5697	623.1454	632.5665	651.0684	706.7692	740.3578	849.7597	886.0835	933.9832	964.5224	971.4823	1053.7445	1083.945	1154.1036	1223.9579	1234.3609	1287.264	1312.4957	1321.2856	1413.2106	1464.2226	1477.7727	1521.6709	1683.3654	1752.4758	2248.4275	3021.1496	3026.117	3074.1938	3132.9986	3182.7023	3467.4584	3505.1305
CN1C=NC(C#C)C1=N	CN1C=N[C@@H](C#C)[C]1[NH]	
InChI=1S/C6H7N3/c1-3-5-6(7)9(2)4-8-5/h1,4-5,7H,2H3	InChI=1S/C6H7N3/c1-3-5-6(7)9(2)4-8-5/h1,4-5,7H,2H3/t5-/m0/s1
