15
gdb 16657	2.91547	2.37909	1.7219	1.0079	61.05	-0.2423	-0.0361	0.2062	781.4147	0.119883	-399.78706	-399.780252	-399.779308	-399.817984	26.071	
O	 0.1738657833	 1.3246786043	 0.2714242508	-0.423928
C	-0.0299209439	-0.0704736545	 0.0597349184	-0.01983
C	-1.5172827253	-0.374977352	-0.1453727073	-0.173472
N	-1.7894489859	-0.5386823998	-1.6008320822	-0.101409
C	-1.3556202988	 0.6056567242	-2.3843030552	-0.241314
C	-0.4809512519	-0.612928991	-2.2865980781	-0.15197
C	 0.61729446	-0.4940782292	-1.2846246748	 0.402676
O	 1.7963594234	-0.6847886223	-1.4527663849	-0.333492
H	 1.1259364504	 1.4812665628	 0.2554054539	 0.296787
H	 0.4047057426	-0.6584760546	 0.8779520164	 0.098906
H	-1.7772955814	-1.32107723	 0.3376617139	 0.120901
H	-2.1509857502	 0.4128519313	 0.2687796664	 0.130415
H	-1.8949382442	 0.7617023551	-3.3139822474	 0.130585
H	-1.0365877752	 1.5052234273	-1.8657729371	 0.147367
H	-0.3639654329	-1.2830946716	-3.1306114028	 0.117779
100.5211	213.8592	246.5509	375.6737	383.6726	394.2138	460.617	592.9642	679.3163	713.4749	778.5895	809.6602	880.541	904.9772	967.3883	988.9344	1022.3887	1056.7922	1108.2649	1121.159	1166.3887	1193.1062	1214.6414	1248.2119	1267.2702	1316.726	1321.2064	1361.8365	1406.81	1482.8222	1502.9453	1835.4154	3024.9322	3064.9244	3114.9258	3117.4964	3182.9748	3210.4895	3789.7121
OC1CN2CC2C1=O	O[C@H]1CN2C[C@H]2C1=O	
InChI=1S/C5H7NO2/c7-4-2-6-1-3(6)5(4)8/h3-4,7H,1-2H2	InChI=1S/C5H7NO2/c7-4-2-6-1-3(6)5(4)8/h3-4,7H,1-2H2/t3-,4-,6?/m0/s1
