16
gdb 74589	2.63446	1.88748	1.32909	2.762	73.51	-0.22	-0.0298	0.1903	966.343	0.124875	-400.72985	-400.722712	-400.721768	-400.761341	27.953	
C	-0.0273054448	 1.5070103075	 0.0840228242	-0.500637
C	-0.0463264914	 0.0177409921	-0.0012130442	 0.335583
C	 0.0594372078	-0.7830838586	-1.0643771103	-0.211665
C	 0.0508356599	-2.2049956884	-0.5989702846	-0.046268
C	 0.9836012383	-2.6390318747	 0.5109714806	-0.204145
N	-0.4918310019	-2.2627382439	 0.7607671017	-0.124132
C	-0.0341611359	-0.8729047064	 1.2249696754	-0.246791
C	 1.3829461943	-1.4883182554	 1.3728407505	 0.462895
O	 2.3143370464	-1.2682352947	 2.092166461	-0.323504
H	 0.8404896457	 1.8573229474	 0.656165366	 0.147793
H	 0.0125605014	 1.962872977	-0.9082595026	 0.132813
H	-0.9179848713	 1.8827208648	 0.602335478	 0.135707
H	 0.151873224	-0.4897799976	-2.1014416315	 0.111883
H	-0.270199982	-3.0036583206	-1.2628298155	 0.10598
H	 1.361535858	-3.6520588677	 0.5898358283	 0.123114
H	-0.5146492986	-0.5062999207	 2.1317572429	 0.101375
129.3324	161.7961	191.9366	300.0842	416.6309	444.2431	512.1468	565.9099	637.1182	689.8035	746.8435	785.5387	795.6232	833.0645	868.4116	918.385	941.5471	979.7437	1027.9592	1036.1654	1045.4697	1063.4345	1107.9795	1155.5043	1167.9181	1186.4683	1254.9682	1299.4266	1310.4012	1368.5902	1414.4559	1476.6776	1486.456	1707.3143	1882.7246	3024.0856	3073.3656	3119.7521	3126.7927	3145.918	3187.9083	3225.8314
CC1=CC2C3N2C1C3=O	CC1=C[C@H]2[C@@H]3N2[C@H]1C3=O	
InChI=1S/C7H7NO/c1-3-2-4-6-7(9)5(3)8(4)6/h2,4-6H,1H3	InChI=1S/C7H7NO/c1-3-2-4-6-7(9)5(3)8(4)6/h2,4-6H,1H3/t4-,5+,6-,8?/m0/s1
