15
gdb 74507	3.59361	1.27747	1.07038	6.5328	72.14	-0.2372	0.0195	0.2567	1097.7823	0.1149	-413.003484	-412.99593	-412.994986	-413.035273	29.623	
N	 0.0459520788	 1.3375527089	 0.0666340058	-0.581033
C	-0.0135757133	-0.0341467447	 0.0039951377	 0.397668
N	-1.0992327457	-0.7278979357	 0.0349867432	-0.352918
C	-0.7090252549	-2.1128190124	 0.0437229976	 0.195069
C	 0.0140678008	-2.6353743694	-1.1950868239	-0.314217
C	 0.8378241777	-2.1377750917	-0.0493335772	-0.062275
N	 1.1942105842	-0.7394297834	-0.0777682191	-0.339799
C	-1.4722459503	-3.0243107881	 0.8516618043	 0.230694
N	-2.0602989252	-3.7817086816	 1.4987803398	-0.353585
H	 0.755611392	 1.7653430178	-0.5098330925	 0.260845
H	-0.8599811752	 1.7744374329	-0.0249390089	 0.271309
H	 0.0021481839	-3.708289949	-1.349928896	 0.138849
H	-0.0666131844	-2.0285456	-2.0907426996	 0.130181
H	 1.4773516177	-2.8046093326	 0.5138309001	 0.125839
H	 1.9230897041	-0.442457511	 0.5580041987	 0.253374
128.216	158.0209	220.7094	359.4344	372.5742	395.5635	459.7595	494.3271	526.4455	555.4273	607.1069	647.4702	701.4457	719.9963	766.0536	835.5661	892.843	944.9927	985.3689	994.0256	1063.5445	1082.4358	1118.171	1153.549	1221.113	1277.5855	1353.7556	1382.3376	1460.7197	1487.8303	1617.1713	1704.28	2352.7142	3133.9646	3203.5295	3232.5797	3571.3824	3575.8516	3677.3914
NC1=NC2(CC2N1)C#N	NC1=N[C@]2(C[C@H]2N1)C#N	
InChI=1S/C5H6N4/c6-2-5-1-3(5)8-4(7)9-5/h3H,1H2,(H3,7,8,9)	InChI=1S/C5H6N4/c6-2-5-1-3(5)8-4(7)9-5/h3H,1H2,(H3,7,8,9)/t3-,5-/m1/s1
