19
gdb 53741	4.82874	0.62768	0.58885	3.6634	89.54	-0.2505	-0.0443	0.2062	1918.3346	0.157706	-385.874903	-385.865161	-385.864217	-385.912232	33.979	
C	-0.1786022719	 1.6821489525	-0.0920879643	-0.476348
C	-0.153259066	 0.1800113948	 0.1138013668	 0.241761
O	-0.2433322385	-0.3336396119	 1.2095272529	-0.278561
C	-0.0135119426	-0.6114029144	-1.0925978022	 0.080833
C	 0.0990809873	-1.2701090969	-2.1002674966	 0.026141
C	 0.2627047246	-2.0849986694	-3.2824319971	-0.155366
C	 1.6979403601	-2.2397462925	-3.893310829	-0.216393
C	 1.3647226305	-3.7247068365	-4.1923368848	-0.216886
C	 0.211779534	-3.6434303332	-3.1578593029	-0.214917
H	 0.7427201071	 2.0098462579	-0.585684788	 0.143766
H	-1.0087260315	 1.9570679091	-0.7517515586	 0.144204
H	-0.2850970832	 2.1821527468	 0.8717669129	 0.140611
H	-0.431137315	-1.7499038147	-4.0614539416	 0.107861
H	 1.9508027789	-1.5831977014	-4.7280044148	 0.108442
H	 2.4608578887	-2.1401434586	-3.1177298665	 0.119602
H	 0.9886811944	-3.8583790436	-5.2106320192	 0.107631
H	 2.1503899518	-4.4606272777	-4.0127644542	 0.106807
H	 0.5305334837	-3.9612718552	-2.1625478669	 0.122289
H	-0.7370668224	-4.1263917252	-3.3987909859	 0.108523
11.3579	70.4057	79.2696	120.4623	150.0255	198.8854	253.8438	374.88	461.6923	518.6102	568.1514	607.0396	618.6632	702.8314	787.8838	798.5661	899.7874	936.471	941.0733	961.3473	986.7897	1019.072	1042.2227	1096.8301	1123.2879	1205.4936	1234.4435	1240.2423	1251.5901	1257.0473	1277.5809	1278.2308	1357.063	1380.7581	1460.9804	1469.0115	1479.6596	1488.9533	1509.8374	1764.5064	2320.3667	3038.7771	3043.8366	3063.3676	3069.9654	3074.0277	3103.0188	3113.0389	3127.2921	3136.3047	3150.2611
CC(=O)C#CC1CCC1	CC(=O)C#CC1CCC1	
InChI=1S/C8H10O/c1-7(9)5-6-8-3-2-4-8/h8H,2-4H2,1H3	InChI=1S/C8H10O/c1-7(9)5-6-8-3-2-4-8/h8H,2-4H2,1H3
