19
gdb 72253	2.37084	1.76505	1.48385	2.2837	74.67	-0.2202	0.07	0.2901	1000.853	0.159327	-422.998218	-422.990164	-422.98922	-423.030235	31.931	
C	-0.0463990845	 1.4579769935	-0.0405603746	-0.50266
C	-0.0533697126	-0.0327860782	-0.0065930477	 0.41802
O	 0.8514193218	-0.7374920931	-0.8668146909	-0.342134
C	-0.0340383858	-1.9081200061	-0.8361552742	 0.03009
C	 0.5442988689	-2.9063035229	 0.1595441931	-0.216003
C	 0.6018992977	-2.0831947822	 1.4810777368	-0.228687
C	-0.3452644714	-0.9090766204	 1.2271266317	-0.210032
C	-1.10550158	-1.0859205835	-0.0726421134	 0.25793
O	-2.4617139368	-1.0113315443	-0.2997285963	-0.460965
H	 0.9052273797	 1.8523263447	 0.3322488132	 0.129282
H	-0.1910543352	 1.8202252072	-1.0630700138	 0.13319
H	-0.850512948	 1.8553212536	 0.5851398118	 0.128273
H	-0.2618584535	-2.2687768929	-1.8407529378	 0.082464
H	-0.1290544641	-3.7678035769	 0.2532076189	 0.092173
H	 1.5242135431	-3.2773611246	-0.1525952195	 0.108645
H	 0.2841605164	-2.6743289524	 2.3449980242	 0.095456
H	 1.6197887968	-1.7364904304	 1.6811325854	 0.112739
H	-0.8416396716	-0.4004673917	 2.0474195668	 0.085601
H	-2.906089661	-1.6355863294	 0.2849197862	 0.286618
166.8216	182.1635	209.6777	223.5512	275.1725	303.0252	346.8871	438.9193	543.3792	587.2022	628.4688	700.7419	740.7597	774.9442	851.128	870.0669	895.6437	911.7247	941.6005	953.2764	982.4141	1028.0825	1056.6101	1099.1362	1114.8911	1156.1305	1172.2464	1210.1285	1252.5959	1258.7169	1283.0641	1302.2438	1324.1519	1333.9873	1341.1026	1412.3684	1472.0881	1475.2672	1492.4828	1498.6869	1535.9782	3030.1626	3035.2412	3054.6034	3086.1491	3100.2294	3101.7301	3105.5327	3118.744	3171.4149	3785.2239
CC12OC3CCC1C23O	C[C@@]12O[C@H]3CC[C@@H]1[C@@]23O	
InChI=1S/C7H10O2/c1-6-4-2-3-5(9-6)7(4,6)8/h4-5,8H,2-3H2,1H3	InChI=1S/C7H10O2/c1-6-4-2-3-5(9-6)7(4,6)8/h4-5,8H,2-3H2,1H3/t4-,5-,6+,7-/m0/s1
