16
gdb 46845	2.85469	1.86933	1.4983	3.8872	68.3	-0.2295	-0.012	0.2175	897.5352	0.127561	-437.917488	-437.91079	-437.909846	-437.948472	26.861	
O	 0.0102988294	-0.0599090898	 0.0235392133	-0.376094
C	-0.0014019548	 1.1538099278	-0.0007280114	 0.41526
N	-1.1492156612	 1.9000924568	 0.0388125306	-0.318601
C	-1.2352457487	 3.3565239011	-0.0493812591	-0.157723
C	 0.1777644858	 3.9634787396	 0.0547850536	 0.022641
O	 1.0173228563	 3.1864062281	-0.8019183147	-0.244604
C	 1.2711197524	 2.0232484721	-0.0131943371	-0.0946
C	 1.4480430229	 2.5855860782	 1.3927022515	-0.082392
C	 0.7901167857	 3.7398473804	 1.4317700892	-0.085326
H	-2.0042314083	 1.363582858	 0.0524154492	 0.248742
H	-1.676436559	 3.6525044037	-1.0102803762	 0.119098
H	-1.8804033024	 3.7431137597	 0.7508609741	 0.110292
H	 0.1746327594	 5.00076047	-0.2888601402	 0.093385
H	 2.1070649762	 1.4623105819	-0.4300149648	 0.109352
H	 1.9464073465	 2.0632172893	 2.1972332413	 0.126679
H	 0.6354876396	 4.3928048933	 2.2800373708	 0.113892
118.8307	204.2487	305.0154	395.2507	428.6923	449.7928	537.4915	578.9104	680.2928	711.7978	755.5863	787.7899	841.782	862.1303	912.6366	924.6921	938.1827	956.0872	1003.4601	1044.0156	1078.3865	1101.9727	1132.7512	1233.883	1243.3359	1278.3983	1292.9817	1303.9142	1340.0519	1355.5312	1390.9897	1475.6422	1514.9723	1662.1768	1805.3214	3006.7755	3042.5831	3087.0087	3130.3603	3221.1787	3247.3235	3610.6484
O=C1NCC2OC1C=C2	O=C1NC[C@@H]2O[C@H]1C=C2	
InChI=1S/C6H7NO2/c8-6-5-2-1-4(9-5)3-7-6/h1-2,4-5H,3H2,(H,7,8)	InChI=1S/C6H7NO2/c8-6-5-2-1-4(9-5)3-7-6/h1-2,4-5H,3H2,(H,7,8)/t4-,5+/m1/s1
