14
gdb 131597	4.55986	1.08525	0.88138	0.3134	65.39	-0.2783	-0.065	0.2133	1217.6019	0.100741	-470.00955	-470.001506	-470.000561	-470.042919	28.105	
O	 0.0473329873	 1.3628403583	 0.0093138905	-0.397224
C	-0.0137162468	-0.0378663472	 0.0026701987	-0.19419
C	-1.4789200128	-0.4342849955	 0.0124559117	 0.443706
O	-2.413645961	 0.3144580236	 0.0234740462	-0.279525
N	-1.6978301861	-1.8449181632	 0.0066016519	-0.024444
C	-2.8966527746	-2.4959012732	 0.0127071155	-0.069137
C	-2.5556235802	-3.8174854387	 0.0026291602	-0.069457
N	-1.1859254941	-3.9232051723	-0.0088932901	-0.177274
N	-0.6686535375	-2.7412672705	-0.0063832901	-0.135859
H	 0.9749001419	 1.6160377164	 0.0013973242	 0.299724
H	 0.4536556993	-0.4938928427	-0.8832170606	 0.142254
H	 0.4677803954	-0.5028152581	 0.8762851176	 0.142215
H	-3.8284496835	-1.9587862031	 0.0231242539	 0.178029
H	-3.1864863772	-4.6909011839	 0.0028288902	 0.141183
80.708	95.8565	163.5825	171.6763	207.5908	301.8165	386.8726	499.6052	554.2556	648.2571	714.1639	759.3748	821.4309	889.4605	948.779	974.7412	1024.0409	1037.1736	1082.5138	1118.1314	1149.2514	1197.7995	1244.2592	1250.9895	1302.4784	1360.3021	1440.1992	1466.3606	1484.0495	1538.0271	1856.248	2995.4087	3021.6792	3279.4115	3312.7968	3841.0363
OCC(=O)N1C=CN=N1	OCC(=O)n1ccnn1	
InChI=1S/C4H5N3O2/c8-3-4(9)7-2-1-5-6-7/h1-2,8H,3H2	InChI=1S/C4H5N3O2/c8-3-4(9)7-2-1-5-6-7/h1-2,8H,3H2
