17
gdb 81399	2.8753	1.55533	1.32666	3.9137	71.78	-0.2515	0.0354	0.2869	989.8642	0.138445	-417.992489	-417.984927	-417.983982	-418.024441	29.378	
O	 0.2991910584	 1.4521451183	 0.1051932204	-0.424447
C	 0.1058617198	 0.0683222025	 0.0480329058	 0.140077
C	 0.0940996392	-0.6762929308	 1.4013737536	-0.041107
C	-0.961574746	 0.093197299	 2.2126167486	-0.219205
C	-2.0874827171	 0.1407846652	 1.1141958872	-0.111959
C	-2.5630510096	 1.4692898188	 0.7484785983	 0.264283
N	-2.9710546909	 2.5045925835	 0.4339637784	-0.343733
C	-1.3107585066	-0.5774118034	-0.0201309118	-0.09122
N	-0.7657079863	-1.7444937098	 0.7590896583	-0.329855
H	-0.0403800323	 1.86408085	-0.6965357913	 0.298673
H	 0.7789703911	-0.423033583	-0.6687389223	 0.076204
H	 1.0029699815	-0.9866520366	 1.9149522758	 0.082291
H	-1.2842814803	-0.4608009067	 3.09432302	 0.118262
H	-0.6188036343	 1.0868074151	 2.499214757	 0.139505
H	-2.9477693502	-0.4659721591	 1.4053676455	 0.133463
H	-1.8473882021	-0.7738058425	-0.9479870551	 0.085116
H	-0.1741720944	-2.2884728706	 0.1292739515	 0.223651
111.1384	153.4674	218.1749	256.9613	300.1571	387.723	489.6758	499.4072	549.2766	610.1661	724.2001	814.6331	829.3168	845.9347	859.964	902.9184	959.2029	972.747	984.5757	1033.325	1050.4668	1108.2573	1119.6638	1153.8415	1157.7005	1177.4602	1204.0546	1242.3458	1284.1123	1289.8984	1303.2395	1330.6063	1349.4335	1363.4037	1412.8941	1482.1134	2353.8233	3009.8188	3089.3015	3098.1943	3126.3866	3133.9996	3158.9912	3451.0825	3816.1675
OC1C2CC(C#N)C1N2	O[C@H]1[C@H]2C[C@@H](C#N)[C@@H]1N2	
InChI=1S/C6H8N2O/c7-2-3-1-4-6(9)5(3)8-4/h3-6,8-9H,1H2	InChI=1S/C6H8N2O/c7-2-3-1-4-6(9)5(3)8-4/h3-6,8-9H,1H2/t3-,4+,5-,6-/m0/s1
