21
gdb 65117	3.28615	1.12841	0.97376	1.7851	84.99	-0.2276	0.0243	0.2519	1303.5196	0.182542	-387.092486	-387.083618	-387.082674	-387.126266	33.676	
C	 0.0801143468	 1.4654324203	-0.4072970035	-0.472726
C	-0.0018604516	-0.0123806908	-0.0803211188	 0.311859
C	 1.1584632296	-0.8809154023	-0.3736112765	-0.215933
O	 0.8861977922	-0.4474130306	 0.9590351287	-0.269307
C	-1.3623279421	-0.6143149668	-0.0414421924	 0.275066
C	-1.841832477	-1.4030654326	 0.9223671813	-0.170526
C	-3.272650189	-1.8110355423	 0.6737782793	-0.247883
C	-3.5025324714	-1.398869091	-0.8031648674	-0.208243
C	-2.4047195395	-0.3492489527	-1.1129924342	-0.31606
H	 1.1197063187	 1.8010046088	-0.3884966726	 0.126167
H	-0.3368023661	 1.6726266769	-1.3980012247	 0.124606
H	-0.484273412	 2.0513966555	 0.3255504759	 0.129378
H	 0.9948976003	-1.9408502981	-0.5609227798	 0.111295
H	 2.0513175603	-0.454167671	-0.8311444603	 0.107388
H	-1.2828859351	-1.6841593674	 1.8067194106	 0.1024
H	-3.449695612	-2.8795466021	 0.8420455276	 0.101431
H	-3.9500426363	-1.2797390134	 1.3581463194	 0.104953
H	-3.3594607239	-2.2712708152	-1.4486259603	 0.104658
H	-4.5114587072	-1.0224785709	-0.9897736735	 0.096504
H	-2.7883662029	 0.6779073801	-1.0335111855	 0.10564
H	-2.0068906517	-0.4475797542	-2.1301925432	 0.099331
60.8247	121.6809	164.1987	186.7184	208.8231	312.7745	322.5681	369.6395	458.6672	539.7716	554.5513	650.025	787.7689	818.6442	839.5397	875.0214	891.6738	912.682	921.3688	922.1369	963.0162	1022.6656	1033.8715	1065.849	1080.6369	1103.2286	1137.3654	1153.2483	1165.642	1218.6278	1231.0304	1265.63	1293.162	1322.6693	1328.3676	1349.1809	1386.3693	1410.5465	1481.4353	1484.9098	1489.9897	1497.77	1507.7866	1520.3819	1713.958	3002.409	3004.8692	3039.2167	3039.8868	3048.0013	3061.0032	3074.9989	3101.2445	3104.7338	3126.0422	3167.4142	3210.6442
CC1(CO1)C1=CCCC1	C[C@]1(CO1)C1=CCCC1	
InChI=1S/C8H12O/c1-8(6-9-8)7-4-2-3-5-7/h4H,2-3,5-6H2,1H3	InChI=1S/C8H12O/c1-8(6-9-8)7-4-2-3-5-7/h4H,2-3,5-6H2,1H3/t8-/m0/s1
