19
gdb 36484	4.12273	1.04803	0.91695	2.1172	81.	-0.247	0.0597	0.3067	1292.9368	0.159332	-385.849132	-385.840836	-385.839892	-385.882253	32.087	
C	-0.0056728969	-1.2233814158	-0.073499589	-0.446044
C	-0.014403381	-0.021841721	-0.0719838359	 0.31269
C	-0.0213542201	 1.4354475832	-0.0488397302	-0.369391
C	 1.3822024363	 2.052862759	 0.0261883716	 0.122653
O	 2.0816224614	 1.7349492887	-1.1751805232	-0.262467
C	 3.1050964561	 2.7064317632	-1.371682563	-0.091809
C	 2.5566653993	 3.9975827778	-0.7883262561	-0.0573
C	 1.1340619843	 4.3277925303	-1.1565915835	-0.291156
C	 1.4264234813	 3.5713087909	 0.116898682	-0.0665
H	 0.0037009289	-2.2847739139	-0.0865333201	 0.192449
H	-0.5259329743	 1.82484472	-0.9404388984	 0.134207
H	-0.5952820718	 1.7858855837	 0.8184756201	 0.127152
H	 1.9075353478	 1.6273520631	 0.8975399275	 0.076846
H	 4.0320814095	 2.4185248443	-0.8498036531	 0.093446
H	 3.3120784068	 2.7451147684	-2.4463217602	 0.109382
H	 3.2460220848	 4.7862787134	-0.5118168064	 0.090476
H	 0.8187868609	 5.3600619339	-1.0561119902	 0.112421
H	 0.6833407632	 3.7937151107	-1.9871978395	 0.123597
H	 1.2528755234	 4.0403678801	 1.0781511978	 0.089348
68.2393	105.964	170.9561	246.3629	320.6032	346.084	369.5519	438.0208	531.5954	613.4282	636.9417	654.2365	720.6216	786.1623	828.5011	841.6165	907.3753	931.5192	966.1229	983.0385	1002.6012	1040.2335	1074.1212	1079.8981	1091.5264	1096.7221	1118.5421	1133.6141	1194.8717	1226.3156	1251.7235	1298.1893	1329.9113	1346.6607	1359.235	1394.8021	1406.7826	1456.2945	1480.0736	1516.6038	2241.8691	2962.7451	2975.6896	3027.6461	3068.3913	3068.6324	3132.4092	3178.8411	3187.3765	3220.9141	3508.5283
C#CCC1OCC2CC12	C#CC[C@H]1OC[C@H]2C[C@@H]12	
InChI=1S/C8H10O/c1-2-3-8-7-4-6(7)5-9-8/h1,6-8H,3-5H2	InChI=1S/C8H10O/c1-2-3-8-7-4-6(7)5-9-8/h1,6-8H,3-5H2/t6-,7-,8-/m1/s1
