21
gdb 69827	3.11258	1.51877	1.22723	1.7626	81.37	-0.2493	0.0838	0.3331	1094.2532	0.184117	-387.086051	-387.078135	-387.077191	-387.117893	32.341	
C	-0.0165224999	 1.5279086077	 0.0504114128	-0.47189
C	-0.0377970712	 0.0191218059	 0.0780898396	 0.403125
C	-1.2605556566	-0.653935628	-0.5262243331	-0.271322
C	-1.0893940722	-2.1771983654	-0.6616724505	-0.232704
C	-0.679057578	-2.8424054185	 0.6503467296	-0.030533
C	 0.732887863	-3.3324310921	 0.8591041948	-0.298101
C	 0.2636051524	-2.0795694926	 1.5565099733	-0.032221
C	 0.7220292935	-0.7272762816	 1.098556404	-0.020578
O	 1.2187381261	-0.6142180566	-0.243265147	-0.296294
H	 0.8889024329	 1.9129187984	 0.5268306253	 0.124957
H	-0.0430076298	 1.8961731585	-0.9813388686	 0.123446
H	-0.8875023533	 1.9379506217	 0.5734283968	 0.11913
H	-2.1267586754	-0.4177942242	 0.1071084359	 0.099373
H	-1.4676082666	-0.2156760142	-1.5107053183	 0.098119
H	-2.0279754934	-2.6127777315	-1.0181648765	 0.093676
H	-0.3396720089	-2.372964448	-1.4332044216	 0.116341
H	-1.4607924882	-3.4053930309	 1.1506566858	 0.080364
H	 0.8930169145	-4.22025053	 1.460752071	 0.105949
H	 1.4282176604	-3.2022745752	 0.0370697836	 0.128798
H	 0.0944952175	-2.1416054774	 2.6274718632	 0.079632
H	 1.3003303933	-0.156900796	 1.8272386999	 0.080735
153.8636	188.4087	196.3174	261.8498	327.4439	367.4926	394.5997	456.3687	496.1532	568.8936	668.7177	687.4809	769.9279	781.7	818.7484	866.7488	888.5415	916.0254	948.5975	971.5617	1008.9664	1019.1036	1056.1955	1071.0597	1094.9427	1108.516	1115.5526	1126.3867	1153.2353	1218.7721	1227.0321	1238.8849	1265.4505	1332.2157	1359.1977	1372.038	1394.507	1410.1664	1411.8569	1458.8632	1472.6867	1481.3823	1488.9537	1493.7379	1506.4282	3013.9162	3031.6036	3046.282	3056.6699	3090.0747	3093.0702	3094.2328	3117.8099	3133.8149	3145.3043	3155.2263	3224.5893
CC12CCC3CC3C1O2	C[C@]12CC[C@H]3C[C@H]3[C@H]1O2	
InChI=1S/C8H12O/c1-8-3-2-5-4-6(5)7(8)9-8/h5-7H,2-4H2,1H3	InChI=1S/C8H12O/c1-8-3-2-5-4-6(5)7(8)9-8/h5-7H,2-4H2,1H3/t5-,6+,7+,8-/m0/s1
