13
gdb 25262	3.39191	1.68538	1.13396	5.4637	66.04	-0.2545	-0.0438	0.2107	971.656	0.091942	-456.619188	-456.612921	-456.611977	-456.649997	24.02	
O	 0.0024097463	-0.0302410954	 0.0040515713	-0.348744
C	 0.0564694871	 1.1642278364	 0.0091211562	 0.402754
O	-1.0748743984	 1.9677662028	 0.0287482167	-0.25358
C	-0.7499217986	 3.3763737002	 0.0310168759	-0.192652
C	 0.7438358017	 3.4017615889	 0.0102887396	 0.225499
C	 1.1640044683	 2.11576116	-0.001773124	 0.133131
O	 2.509466129	 2.0167545832	-0.0210710895	-0.182967
C	 2.9519051259	 3.3065991927	-0.0209509606	 0.009766
C	 1.9200497895	 4.2062895956	-0.0022693797	-0.368531
H	-1.2126529383	 3.8367508353	-0.8487195527	 0.143109
H	-1.1878580808	 3.828175996	 0.9277283544	 0.143107
H	 4.0233354428	 3.425689291	-0.0353018429	 0.155551
H	 2.0167824954	 5.2802963133	 0.0015403051	 0.133556
155.9168	214.662	264.5028	305.3951	548.0732	609.8739	620.8502	631.3673	662.7031	759.6063	777.109	781.9274	840.8418	923.4626	1012.5905	1022.0271	1028.5662	1064.447	1095.2336	1171.1042	1195.6588	1281.0323	1329.3564	1402.9283	1469.6366	1496.631	1506.2909	1633.4329	1886.2303	3042.5349	3079.8462	3260.1102	3283.9215
O=C1OCC2=C1OC=C2	O=C1OCc2c1occ2	
InChI=1S/C6H4O3/c7-6-5-4(3-9-6)1-2-8-5/h1-2H,3H2	InChI=1S/C6H4O3/c7-6-5-4(3-9-6)1-2-8-5/h1-2H,3H2
