17
gdb 50437	2.61499	1.57059	0.99296	2.0092	77.36	-0.251	-0.0166	0.2344	1147.2622	0.138036	-418.059173	-418.051177	-418.050233	-418.092321	29.68	
N	 0.9481867626	-0.0937309867	 0.2767791603	-0.472316
C	-0.2069130571	 0.3871532717	 0.0461368986	 0.08519
N	-1.3165454787	-0.4510394102	-0.0467629691	-0.134475
C	-1.0669627422	-1.8842753322	 0.134691668	-0.177531
C	-2.2889518348	-2.7326239739	 0.0251308519	-0.08237
C	-3.5027693379	-2.2541034238	-0.2146653645	-0.061711
C	-3.7645194078	-0.7934965729	-0.4009025122	-0.377469
C	-2.5587619857	 0.1276050542	-0.3008226838	 0.419854
O	-2.6889337897	 1.3271828526	-0.4400694002	-0.364882
H	 1.6352351053	 0.6572508862	 0.3112966551	 0.231414
H	-0.4724384515	 1.4333163078	-0.0995074624	 0.147828
H	-0.3108872085	-2.195004364	-0.5982140775	 0.142397
H	-0.5813021143	-2.0259247497	 1.1090739424	 0.142403
H	-2.1231558497	-3.797637437	 0.1569451612	 0.104523
H	-4.3564543576	-2.9223484496	-0.2837506613	 0.100546
H	-4.2246613225	-0.5913838179	-1.3772481743	 0.148301
H	-4.4955139999	-0.4222730748	 0.3296194278	 0.148297
65.0809	90.4763	170.224	258.3384	302.656	382.0278	392.3087	511.9596	534.7423	580.6868	599.6977	691.8249	750.3464	842.549	854.0742	962.8688	968.5222	997.6423	1002.1684	1020.9344	1090.5733	1106.5491	1157.062	1184.5899	1215.8785	1261.2859	1297.621	1355.6066	1361.8725	1394.9141	1418.4248	1430.0316	1450.9438	1510.3188	1705.3717	1758.7487	1779.0254	3023.043	3026.5584	3037.7523	3046.763	3149.3706	3161.3699	3184.5688	3503.291
N=CN1CC=CCC1=O	[NH][CH]N1CC=CCC1=O	
InChI=1S/C6H8N2O/c7-5-8-4-2-1-3-6(8)9/h1-2,5,7H,3-4H2	InChI=1S/C6H8N2O/c7-5-8-4-2-1-3-6(8)9/h1-2,5,7H,3-4H2
