21
gdb 105955	2.93913	1.46191	1.16075	0.3877	85.84	-0.2104	0.0835	0.2938	1156.0735	0.181192	-349.856421	-349.847786	-349.846842	-349.889444	33.774	
C	-0.0211684838	 1.5841637589	 0.0321907734	-0.380532
C	 0.01255691	 0.0520170235	-0.0234899452	-0.323498
C	 0.7056007369	-0.4854723739	-1.2382999311	 0.319714
C	 0.6584123902	-0.0435108736	-2.6976654266	-0.15074
C	 0.9229046763	-1.5058650552	-3.1578633883	-0.148045
C	 2.2485031762	-1.5038042055	-2.4026219333	-0.148035
C	 1.9840598687	-0.0414579907	-1.9423677267	-0.15075
C	 0.9743568174	-1.9633445619	-1.7059546993	 0.282842
C	 0.6286426217	-3.2822285656	-1.0954072665	-0.523167
H	 0.9904437568	 2.0028349228	 0.0435516543	 0.119406
H	-0.5472986433	 2.0008415737	-0.832877656	 0.119404
H	-0.5354489424	 1.929571787	 0.9337272849	 0.113318
H	 0.50924438	-0.3324841805	 0.8783439028	 0.098474
H	-1.0157496968	-0.3344559705	 0.0092209271	 0.098475
H	 0.1279490042	 0.7821235374	-3.1543255586	 0.079445
H	 0.633229757	-2.0608199994	-4.0411227455	 0.078414
H	 3.1573198704	-2.0568870285	-2.6030758917	 0.078417
H	 2.6454505406	 0.786014999	-1.7199882217	 0.079446
H	 1.0854648353	-3.4049525242	-0.1059720325	 0.11857
H	-0.454991565	-3.4060012453	-0.9807560113	 0.118575
H	 0.9881891496	-4.1022263275	-1.7276208982	 0.120267
84.3387	140.117	182.4832	216.0245	236.1693	246.8175	309.8963	420.406	547.8732	632.8974	650.5354	758.9869	787.0253	792.5123	809.7628	847.5129	855.3954	871.0743	880.6739	886.0115	931.3453	961.6369	973.7808	1011.9939	1014.0764	1060.7721	1099.4971	1114.5927	1131.037	1166.9726	1186.1705	1209.1974	1244.9387	1253.9559	1297.0682	1360.9202	1404.0119	1405.554	1424.2379	1433.6499	1482.0379	1489.5964	1498.5467	1499.429	1509.5515	3000.9405	3015.2575	3026.9989	3036.273	3072.4633	3084.8365	3103.6826	3108.6133	3178.4584	3192.0142	3192.0511	3201.6372
CCC12C3C4C(C13)C24C	CC[C@@]12[C@@H]3[C@H]4[C@@H]([C@H]13)[C@@]24C	
InChI=1S/C9H12/c1-3-9-6-4-5(7(6)9)8(4,9)2/h4-7H,3H2,1-2H3	InChI=1S/C9H12/c1-3-9-6-4-5(7(6)9)8(4,9)2/h4-7H,3H2,1-2H3/t4-,5+,6-,7+,8+,9-
