14
gdb 15224	2.73721	1.52974	1.17353	3.9121	61.02	-0.2531	-0.0435	0.2096	1005.1124	0.104527	-419.667744	-419.65964	-419.658696	-419.70085	28.295	
O	-0.0795744544	 1.3727839779	-0.0445959522	-0.40734
C	-0.0612270235	-0.0175772873	 0.039383256	 0.066405
C	-0.5328362316	-0.6983939773	 1.3100968557	-0.173144
C	-0.9123907667	 0.0997815709	 2.5028167037	 0.152553
O	-0.7705411757	-0.303348159	 3.6318297176	-0.260741
C	-1.3971456412	-0.6900947863	 0.0140632492	-0.156823
C	-2.6578667426	 0.100580581	-0.0771960434	 0.164241
O	-3.6588660883	-0.3409947723	-0.5848518628	-0.259889
H	 0.7147407333	 1.7160005052	 0.3790155935	 0.303768
H	 0.7462454727	-0.5085612473	-0.5024772075	 0.119029
H	-0.0945467307	-1.6591837772	 1.5583511705	 0.126158
H	-1.3159715281	 1.1124061237	 2.3013734676	 0.09329
H	-1.4666096728	-1.6503594574	-0.4847558758	 0.129887
H	-2.6218209204	 1.1283941154	 0.330872538	 0.102606
68.152	104.6072	177.3807	207.1871	233.6941	347.8267	357.0105	429.9967	444.7283	558.6795	570.7888	782.5552	856.6266	941.8471	971.9535	979.3532	1046.2116	1047.5239	1134.0217	1156.0967	1180.8065	1225.2268	1279.2642	1319.5448	1342.9812	1425.8743	1440.6714	1465.0784	1806.7868	1816.799	2925.1568	2956.0178	3112.4972	3175.4878	3186.1212	3807.5806
OC1C(C=O)C1C=O	O[C@H]1[C@@H](C=O)[C@H]1C=O	
InChI=1S/C5H6O3/c6-1-3-4(2-7)5(3)8/h1-5,8H	InChI=1S/C5H6O3/c6-1-3-4(2-7)5(3)8/h1-5,8H/t3-,4+,5-
