19
gdb 58832	3.39241	1.2789	1.10379	2.3932	74.87	-0.1977	0.0605	0.2582	1145.7305	0.158152	-419.089158	-419.080454	-419.07951	-419.122586	33.429	
C	 0.0062450406	 1.5027759495	-0.1214469504	-0.422743
C	-0.1069162369	-0.0143815879	 0.0320012806	-0.011383
O	 0.403624316	-0.7014344604	-1.1117469543	-0.430095
C	 0.5800798972	-0.5078349613	 1.2794241688	 0.380663
N	 2.0290334302	-0.8075251013	 1.3320404512	-0.364464
C	 1.0299541218	-1.8594437708	 1.6689197202	-0.135464
C	 0.512773577	-1.6223313543	 3.1233907492	-0.05747
N	 1.194221097	-0.4323167653	 3.6897643585	-0.307741
C	 0.0641269725	-0.2650988949	 2.7437588451	-0.137649
H	 1.058775712	 1.8047284751	-0.1809085884	 0.127415
H	-0.5130497921	 1.8367951839	-1.024725562	 0.121866
H	-0.4329568441	 2.0173716983	 0.7382213518	 0.130451
H	-1.1702382364	-0.2859657064	 0.0937220643	 0.089579
H	 1.0460832101	-0.1263134321	-1.5389045523	 0.28703
H	 2.2824844178	-1.0090273223	 0.3620194299	 0.218784
H	 0.9826405923	-2.789619422	 1.1185606515	 0.101845
H	 0.0398021602	-2.3637961171	 3.7536627944	 0.093909
H	 0.8013902315	-0.3012215813	 4.6233511913	 0.22665
H	-0.8334877365	 0.2777203705	 3.0123169906	 0.088817
58.517	139.033	158.2818	201.3274	256.6942	311.1086	347.466	417.3831	461.9654	495.3013	620.8043	676.9657	744.0185	803.3342	811.8054	840.6614	882.0568	893.4561	908.975	926.8759	950.5645	981.4848	1005.5464	1058.6111	1069.5601	1087.6494	1108.5775	1136.4883	1159.0636	1228.2909	1241.3676	1289.8414	1302.7481	1309.3138	1359.5728	1378.5852	1396.7167	1405.9954	1439.6472	1489.9384	1495.9762	3005.7617	3030.4822	3102.4388	3116.544	3186.3656	3199.9625	3208.8892	3442.9578	3454.5975	3821.1662
CC(O)C12NC1C1NC21	C[C@@H](O)[C@]12N[C@H]1[C@H]1N[C@@H]21	
InChI=1S/C6H10N2O/c1-2(9)6-4-3(7-4)5(6)8-6/h2-5,7-9H,1H3	InChI=1S/C6H10N2O/c1-2(9)6-4-3(7-4)5(6)8-6/h2-5,7-9H,1H3/t2-,3+,4-,5+,6-/m1/s1
