14
gdb 53868	4.19591	0.84113	0.70373	2.0094	66.11	-0.2542	-0.0498	0.2045	1495.0469	0.098122	-473.839844	-473.83038	-473.829436	-473.875599	32.686	
N	-0.0536365259	 1.2773548002	 0.0074650589	-0.513158
C	 0.068183717	-0.0705745278	 0.0000746343	 0.298357
O	 1.1012793449	-0.6989994609	-0.0126020975	-0.329719
C	-1.3296315945	-0.7339164835	 0.0105854092	 0.392293
O	-2.3621653062	-0.1046110795	 0.0235089208	-0.372061
O	-1.2389591897	-2.0594481395	 0.0026976485	-0.210528
C	-2.5106530159	-2.7511802394	 0.0113331677	-0.234602
C	-2.2664195188	-4.1809445908	 0.0011771572	 0.290575
C	-2.1023077344	-5.3696956955	-0.0069000389	-0.402943
H	 0.7737965093	 1.8488806406	 0.0029139138	 0.27277
H	-0.9707973477	 1.6918345126	 0.0189235718	 0.282353
H	-3.0732852051	-2.4455917299	 0.8998761273	 0.158274
H	-3.0904873558	-2.4360001857	-0.8626802379	 0.158286
H	-1.9498623872	-6.4209123009	-0.0141743052	 0.210104
28.4178	70.1636	99.9717	147.1465	221.8838	302.4884	308.7132	326.2505	376.4286	475.4603	497.0369	570.0699	624.2357	635.9956	653.305	692.5273	837.6295	878.8333	974.9572	1011.9253	1024.1867	1095.3361	1250.7982	1256.1781	1362.2469	1408.4377	1483.8609	1591.4279	1795.2903	1831.044	2254.6698	3047.7233	3084.0758	3504.6339	3602.8363	3744.4734
NC(=O)C(=O)OCC#C	NC(=O)C(=O)OCC#C	
InChI=1S/C5H5NO3/c1-2-3-9-5(8)4(6)7/h1H,3H2,(H2,6,7)	InChI=1S/C5H5NO3/c1-2-3-9-5(8)4(6)7/h1H,3H2,(H2,6,7)
