19
gdb 65084	3.10886	1.40893	1.24973	2.6715	75.24	-0.2383	0.0867	0.325	1077.7988	0.157716	-422.937795	-422.929577	-422.928633	-422.970848	31.792	
C	 0.1619270735	 1.1649404286	 0.7654931195	-0.482573
C	-0.024297561	-0.0660801564	-0.0921132239	 0.220004
C	 0.7490732726	-0.263284003	-1.3272176185	-0.219673
O	 1.0863613704	-0.9709810451	-0.1293200659	-0.272412
C	-1.3532832338	-0.7400621765	 0.0276549756	 0.429082
C	-1.8766563884	-1.6939703868	 1.1400119313	-0.258238
C	-2.8711756039	-1.6871750319	-0.0414220444	 0.040836
C	-2.783326084	-0.1457467132	-0.1135371332	-0.266541
O	-1.7233143805	-1.7705972446	-0.9761303737	-0.34276
H	 1.1783139812	 1.5483848798	 0.6512687787	 0.133204
H	-0.5457149911	 1.9514756031	 0.4841826385	 0.127448
H	 0.0035480708	 0.9287837013	 1.8232405759	 0.129399
H	 0.3297205544	-0.8740214726	-2.1228155015	 0.135318
H	 1.4619396647	 0.5009955449	-1.6354331299	 0.108558
H	-1.2984825946	-2.6100646069	 1.2583677173	 0.120823
H	-2.1977166667	-1.2556298942	 2.0882157163	 0.094337
H	-3.7194558588	-2.3415229337	-0.2380534127	 0.099246
H	-3.1861859022	 0.4354150325	 0.7198749447	 0.096042
H	-3.0087711026	 0.2865767148	-1.0892721842	 0.1079
48.7595	164.6347	175.9045	198.4599	305.4995	351.3171	402.1296	470.3196	528.8158	548.5903	608.1881	742.5385	799.1006	805.3318	868.472	907.1977	924.6739	931.6236	947.7988	981.4708	987.5355	1020.9036	1081.0601	1093.8315	1113.1555	1123.7622	1138.66	1158.9707	1163.5056	1180.2765	1216.8253	1241.0864	1241.5845	1347.6471	1405.2537	1416.7899	1466.4999	1481.0766	1495.6943	1512.9666	1525.9569	3037.8029	3059.6245	3069.2405	3087.5569	3102.0181	3128.8855	3129.0291	3145.8591	3158.1431	3187.4062
CC1(CO1)C12CC(C1)O2	C[C@]1(CO1)[C@@]12C[C@@H](C1)O2	
InChI=1S/C7H10O2/c1-6(4-8-6)7-2-5(3-7)9-7/h5H,2-4H2,1H3	InChI=1S/C7H10O2/c1-6(4-8-6)7-2-5(3-7)9-7/h5H,2-4H2,1H3/t5-,6-,7+/m0/s1
