20
gdb 82057	2.70315	1.56169	1.31318	1.8332	78.5	-0.2354	0.0641	0.2995	1057.503	0.171436	-403.087735	-403.079549	-403.078605	-403.120313	32.2	
O	 0.00591738	 1.4689699611	 0.0370156592	-0.429034
C	 0.0162624911	 0.0580307034	 0.0635157671	 0.025685
C	 0.2244766961	-0.6525031654	 1.3985689625	-0.076169
C	-0.8759631905	-0.3442239793	 2.3306579371	-0.24561
N	-1.1201552429	-1.3629737481	 1.2926243438	-0.168689
C	-1.3913621097	-0.5940774618	 0.0297019718	 0.362856
C	-2.6543588923	 0.2809041222	-0.1367312885	-0.276809
C	-2.7778811122	-0.2478500296	-1.5931272988	-0.2184
C	-1.8043519691	-1.3988149662	-1.218536224	-0.298364
H	 0.9078405209	 1.7849499245	 0.15489684	 0.284
H	 0.6659347515	-0.3492524473	-0.7229570279	 0.071992
H	 1.1212679815	-1.1842106443	 1.7013505351	 0.088309
H	-0.815013649	-0.7647590594	 3.3295626084	 0.1181
H	-1.3818565933	 0.6152118004	 2.2645598216	 0.127334
H	-3.4614218306	-0.0833711337	 0.5064630661	 0.105817
H	-2.5314064298	 1.3556989769	 0.0039964247	 0.116899
H	-3.7738579074	-0.5300801156	-1.9400514085	 0.098121
H	-2.3402279576	 0.4457689419	-2.3153046514	 0.108537
H	-1.0177401436	-1.6655342658	-1.9301944915	 0.092842
H	-2.3334662434	-2.3079424739	-0.9197379466	 0.112584
99.4523	120.9337	220.3803	230.4467	267.0079	291.0439	431.3533	438.7755	530.949	599.1153	690.0903	759.2592	772.1819	785.6573	818.181	869.2117	904.4935	933.9613	962.2507	965.7808	998.9081	1044.3683	1054.1593	1070.0939	1107.3895	1132.6447	1142.6339	1179.0342	1189.9782	1197.0635	1216.4147	1238.8878	1251.4988	1273.7674	1280.4309	1300.3465	1322.2447	1368.2341	1414.5318	1465.9678	1481.3279	1498.8913	1503.2184	3007.2596	3052.0799	3059.2783	3067.6356	3102.2928	3116.868	3118.7304	3130.8305	3156.6994	3206.485	3811.1957
OC1C2CN2C11CCC1	O[C@H]1[C@H]2CN2C21CCC2	
InChI=1S/C7H11NO/c9-6-5-4-8(5)7(6)2-1-3-7/h5-6,9H,1-4H2	InChI=1S/C7H11NO/c9-6-5-4-8(5)7(6)2-1-3-7/h5-6,9H,1-4H2/t5-,6+,8?/m1/s1
