17
gdb 12712	2.91003	2.20125	1.74054	1.9027	68.08	-0.2314	-0.0273	0.204	831.7888	0.141509	-363.840189	-363.832635	-363.831691	-363.872116	28.327	
C	-0.1556691985	 1.4933925823	 0.0386643249	-0.466416
C	-0.0045687128	-0.0087668816	-0.0300617012	 0.232452
C	-1.2451393412	-0.9088282933	 0.2152320059	-0.302087
C	-0.3809476066	-1.6820725358	 1.2433077979	-0.163357
N	 0.7804926382	-0.7485330867	 1.0584952496	-0.159829
C	 1.7637121182	-1.2638757544	 0.0577170336	-0.307987
C	 0.9865437515	-0.5637604656	-1.0729542513	 0.351216
O	 1.1074804204	-0.4557685627	-2.2569040068	-0.289819
H	 0.8191450911	 1.9902554009	 0.0619655723	 0.1269
H	-0.6997626875	 1.852611133	-0.8415952081	 0.135368
H	-0.7110917526	 1.7856860441	 0.9351744163	 0.124716
H	-2.083062235	-0.361079995	 0.6526121553	 0.11559
H	-1.6099116266	-1.4703378859	-0.6472818725	 0.120286
H	-0.7555004219	-1.6674671819	 2.2701169958	 0.113258
H	-0.1552532468	-2.7203752779	 0.9759534538	 0.104167
H	 2.7692311335	-0.8550491324	 0.2092858521	 0.137503
H	 1.8418494465	-2.3546858971	-0.0151664674	 0.128039
66.9258	153.4867	191.211	259.8244	280.2124	400.7573	470.7781	499.2996	617.4011	667.5511	727.0274	788.51	799.2297	886.5608	901.6588	949.7896	963.81	1008.8735	1043.6796	1045.7524	1127.5148	1156.5256	1185.535	1205.5289	1217.7449	1248.5612	1252.852	1293.7966	1312.8071	1401.5923	1449.6824	1478.8683	1483.206	1490.0409	1513.1352	1895.9209	3031.7627	3033.0539	3038.8802	3068.011	3080.6227	3088.1311	3107.3865	3109.272	3122.4558
CC12CCN1CC2=O	C[C@]12CCN1CC2=O	
InChI=1S/C6H9NO/c1-6-2-3-7(6)4-5(6)8/h2-4H2,1H3	InChI=1S/C6H9NO/c1-6-2-3-7(6)4-5(6)8/h2-4H2,1H3/t6-/m1/s1
