17
gdb 99469	2.14283	1.18323	0.96946	0.8933	75.6	-0.251	-0.0987	0.1523	1303.2781	0.131352	-421.811013	-421.800798	-421.799854	-421.847134	35.216	
C	-0.1012645026	 1.6639616362	 0.0825068999	-0.396559
C	-0.3065415208	 0.1498507237	 0.0324826445	-0.178542
C	 0.6405180957	-0.6155699789	 0.9782654586	-0.240551
C	 0.4381416435	-0.2878086567	 2.3891427736	 0.331179
C	 0.2358785806	-0.0572143658	 3.5516753115	-0.469666
C	 0.4654404166	-2.1341864807	 0.8513942747	 0.280589
O	-0.4949048606	-2.6763294725	 0.3650266019	-0.271145
C	 1.61992127	-3.010426492	 1.3614605354	 0.099992
O	 2.7065433501	-2.5785672428	 1.6384722555	-0.215527
H	 0.9181179307	 1.9387097825	-0.2104329569	 0.116774
H	-0.7915151464	 2.1686972706	-0.5995392471	 0.119519
H	-0.2757463984	 2.0519640797	 1.0902270134	 0.133508
H	-1.3376897296	-0.1087627022	 0.2895878043	 0.12522
H	-0.138258832	-0.2239285025	-0.9834039802	 0.108176
H	 1.6880534957	-0.3975445218	 0.7287876569	 0.137145
H	 0.0752443377	 0.164016217	 4.5780873125	 0.207231
H	 1.35880716	-4.0888641737	 1.3925980217	 0.112655
42.2171	83.3941	117.0067	124.0397	147.759	175.8133	244.5947	261.4607	340.7086	392.5203	516.2335	521.9385	586.745	627.9689	632.3349	656.5051	761.0814	827.643	904.6392	955.6814	1015.7169	1058.4193	1106.6328	1123.0677	1171.0818	1268.061	1295.1864	1333.8606	1364.9953	1368.558	1414.6253	1483.2121	1498.3581	1507.1216	1812.7079	1825.6674	2228.8548	2929.0771	3024.462	3037.0623	3050.1814	3089.4739	3109.6263	3118.63	3502.0367
CCC(C#C)C(=O)C=O	CC[C@@H](C#C)C(=O)C=O	
InChI=1S/C7H8O2/c1-3-6(4-2)7(9)5-8/h1,5-6H,4H2,2H3	InChI=1S/C7H8O2/c1-3-6(4-2)7(9)5-8/h1,5-6H,4H2,2H3/t6-/m1/s1
