19
gdb 116881	3.57051	0.55338	0.49355	1.6248	83.05	-0.2445	-0.0272	0.2173	2175.4042	0.15555	-423.005224	-422.994123	-422.993179	-423.044237	37.114	
C	 0.0319410883	 1.5314937115	-0.0049873071	-0.397152
C	-0.0137304472	-0.015326953	-0.0197817819	-0.212299
C	 0.7212924956	-0.5409042674	 1.2168750441	 0.17326
O	 1.7994776428	-1.0690582428	 1.1908965815	-0.24322
C	-1.3816736531	-0.524019541	-0.0187928425	 0.085314
C	-2.5097203596	-0.9453220712	 0.0302911155	 0.017302
C	-3.8630694246	-1.4838683553	 0.0663370563	-0.324963
C	-3.8911338567	-3.0150022502	-0.0073538533	-0.063084
O	-5.2531528096	-3.4022323398	 0.0361508368	-0.414702
H	 1.0675023219	 1.8805959719	-0.0457704441	 0.132296
H	-0.5099654062	 1.9295853908	-0.8659183419	 0.138178
H	-0.4374202982	 1.9247869713	 0.9016830854	 0.131764
H	 0.5353659445	-0.3858053789	-0.8926217494	 0.122084
H	 0.1692042425	-0.3732807992	 2.1690726619	 0.08532
H	-4.3749674569	-1.1717240564	 0.9847180247	 0.139171
H	-4.4546914834	-1.0861160757	-0.7672216473	 0.140106
H	-3.4012724916	-3.3446553727	-0.9355807055	 0.100254
H	-3.320095797	-3.431766731	 0.8355855668	 0.099835
H	-5.2967750914	-4.3616019711	-0.0088823501	 0.290538
16.5821	43.1992	77.8849	87.9313	139.1667	168.1371	225.6164	237.2702	289.911	330.7952	357.9861	407.4851	472.3992	527.9656	552.6961	792.5325	793.6335	887.751	932.5923	999.1805	1050.7673	1082.1763	1084.9728	1087.715	1126.6011	1177.978	1222.1194	1238.1242	1270.1131	1304.3108	1324.2194	1334.9045	1398.5306	1417.3596	1454.8133	1476.6817	1492.1447	1497.7439	1528.247	1839.1068	2362.0051	2882.2587	2984.7732	3015.7704	3031.9598	3044.4279	3051.8785	3069.4384	3121.1287	3130.3124	3835.3007
CC(C=O)C#CCCO	C[C@@H](C=O)C#CCCO	
InChI=1S/C7H10O2/c1-7(6-9)4-2-3-5-8/h6-8H,3,5H2,1H3	InChI=1S/C7H10O2/c1-7(6-9)4-2-3-5-8/h6-8H,3,5H2,1H3/t7-/m1/s1
