15
gdb 83084	2.65264	1.76708	1.58934	3.252	65.	-0.2202	-0.0345	0.1857	886.2492	0.114248	-453.932486	-453.925276	-453.924332	-453.963824	28.175	
O	 0.1039175994	 1.4089355996	 0.1197217418	-0.449275
C	 0.0248662321	 0.0221906854	 0.0142739634	 0.151955
C	-1.4050528855	-0.6484696197	-0.0818917002	-0.192729
N	-2.2247012281	 0.1179136721	-1.0301667787	-0.256829
C	-1.5342802946	 0.5359503332	-2.1397491093	 0.046576
N	-0.3356110748	 0.1745261856	-2.4266054051	-0.263994
C	 0.3210519818	-0.6488021097	-1.3748322747	-0.188294
C	-0.6687783745	-1.720894092	-0.9181565062	 0.465906
O	-0.7655672541	-2.906728747	-1.0339056276	-0.309282
H	 0.1275406518	 1.767046702	-0.7769355205	 0.29783
H	 0.6103573138	-0.4390479934	 0.813504903	 0.110086
H	-1.9708563587	-0.9265123749	 0.804814596	 0.101425
H	-2.940140461	 0.7263787538	-0.6585990976	 0.257413
H	-2.0753927403	 1.1955722033	-2.816906212	 0.131686
H	 1.3366561525	-0.9079417982	-1.6684350724	 0.097528
140.385	214.9664	227.7051	297.7149	356.9846	412.255	469.5805	508.3261	575.5159	595.495	654.4214	737.9585	780.7117	847.7995	868.332	902.5059	956.277	992.82	1070.9808	1085.9584	1112.9897	1130.9165	1171.8668	1212.9957	1222.8048	1261.4104	1305.3471	1325.7246	1377.9678	1418.1241	1471.0617	1669.4753	1901.6554	3084.0051	3133.6118	3144.603	3148.5188	3594.6973	3764.5257
OC1C2NC=NC1C2=O	O[C@H]1[C@H]2N[CH][N][C@@H]1C2=O	
InChI=1S/C5H6N2O2/c8-4-2-5(9)3(4)7-1-6-2/h1-4,8H,(H,6,7)	InChI=1S/C5H6N2O2/c8-4-2-5(9)3(4)7-1-6-2/h1-4,8H,(H,6,7)/t2-,3+,4+
