22
gdb 32784	2.95395	0.97916	0.78432	1.8544	90.49	-0.1894	0.0501	0.2395	1537.7728	0.194262	-367.266801	-367.256724	-367.25578	-367.303152	36.592	
C	 0.0518214625	 1.6193332339	-0.1420392673	-0.378162
C	 0.0448033334	 0.088872953	-0.1346320886	-0.144987
C	-1.3577690635	-0.5071670005	 0.0946720615	-0.313177
C	-1.3881484802	-2.008748538	 0.0691988897	 0.210521
C	-1.3755850987	-2.8648271132	 1.1556726699	 0.211037
C	-1.3558160859	-2.6014359965	 2.6261568281	-0.508665
N	-1.3780860439	-4.1517767788	 0.6639213511	-0.286157
C	-1.3931279351	-4.1375642449	-0.7083595268	-0.091542
C	-1.398470856	-2.8242555503	-1.105243595	-0.232136
H	 1.0588769069	 2.0150313184	-0.308356894	 0.108022
H	-0.5956877688	 2.0147393599	-0.9330724957	 0.111328
H	-0.3107149626	 2.0232227454	 0.8103181239	 0.109248
H	 0.4410918997	-0.2904749396	-1.0845529166	 0.098026
H	 0.7214026866	-0.2848675711	 0.6440185715	 0.092335
H	-1.7477826915	-0.1355838438	 1.0510198786	 0.089076
H	-2.0351832266	-0.1146793937	-0.6756703275	 0.095304
H	-2.1630096986	-3.1297281883	 3.1495045504	 0.120859
H	-0.4107039266	-2.9072492223	 3.0938048649	 0.125107
H	-1.4838375606	-1.5346994636	 2.8227670894	 0.136762
H	-1.384923522	-4.9800478146	 1.2330781555	 0.252452
H	-1.4072907717	-5.0547111359	-1.2749792153	 0.11097
H	-1.4159664465	-2.4709494455	-2.1258121277	 0.083781
28.1222	71.0727	83.2532	115.4145	224.4207	236.5351	267.0108	311.244	358.2932	412.9026	455.2043	635.0754	640.0846	676.126	708.343	741.5711	760.4147	821.3941	867.496	893.83	919.2105	973.4702	1040.6066	1051.7803	1058.3777	1089.7792	1110.2804	1127.6213	1188.2727	1251.1237	1271.5828	1294.0465	1314.9614	1328.2284	1380.0691	1409.2871	1411.3802	1439.2469	1477.5824	1480.0701	1481.7574	1491.3207	1496.0242	1498.2834	1509.157	1523.0347	1630.6703	3008.7199	3011.7237	3024.5892	3027.2835	3037.7672	3053.1643	3061.9348	3092.4118	3097.9793	3120.5542	3235.3893	3266.6174	3677.8757
CCCC1=C(C)NC=C1	CCCc1c(C)[nH]cc1	
InChI=1S/C8H13N/c1-3-4-8-5-6-9-7(8)2/h5-6,9H,3-4H2,1-2H3	InChI=1S/C8H13N/c1-3-4-8-5-6-9-7(8)2/h5-6,9H,3-4H2,1-2H3
