17
gdb 62460	3.88061	1.18659	1.16967	2.1273	75.27	-0.2304	0.0327	0.2631	1108.2363	0.135089	-421.770076	-421.761897	-421.760953	-421.802588	31.719	
O	-0.0393716003	 1.3728897132	-0.024206119	-0.467797
C	-0.0032885404	-0.0212654261	 0.0095563096	 0.180641
C	 1.0899728299	-0.58546859	 0.750016141	 0.275572
C	 1.991562921	-1.0879172023	 1.367482943	-0.388475
C	-1.3372274312	-0.7903347988	 0.0129309303	-0.149038
C	-2.5785379132	 0.0461198484	-0.2865802298	-0.263921
C	-2.4889576354	 0.2616338931	-1.8118624461	-0.078319
O	-1.0979256125	 0.1097311772	-2.1640762613	-0.274295
C	-0.5011252407	-0.7531488551	-1.232016746	-0.007691
H	-0.1362907322	 1.6101983858	-0.95814918	 0.294441
H	 2.7939376314	-1.5172327895	 1.914465255	 0.191664
H	-1.4077747135	-1.681503655	 0.6232288183	 0.109559
H	-3.4920257492	-0.4825659279	-0.0056578598	 0.108897
H	-2.5466926196	 0.9971959287	 0.250970171	 0.130595
H	-3.079257814	-0.4888448794	-2.3548913009	 0.108043
H	-2.8021775869	 1.2562654924	-2.1383918817	 0.117195
H	 0.0399912168	-1.5933696646	-1.6528524934	 0.112929
113.4409	129.7566	167.2816	229.9662	276.9823	409.9245	419.9929	453.8427	539.8446	573.359	593.2423	660.1941	678.2763	717.1757	756.6206	829.685	862.0811	869.7343	938.0429	957.4441	1013.6928	1043.2276	1069.8849	1109.3843	1124.9814	1153.9199	1224.8058	1240.9977	1252.5703	1282.9506	1312.2356	1356.394	1391.4959	1405.2523	1484.4156	1517.3631	2235.2562	3013.8688	3068.637	3099.5457	3120.0531	3171.7867	3197.4255	3503.5172	3726.5961
OC1(C#C)C2CCOC12	O[C@@]1(C#C)[C@H]2CCO[C@@H]12	
InChI=1S/C7H8O2/c1-2-7(8)5-3-4-9-6(5)7/h1,5-6,8H,3-4H2	InChI=1S/C7H8O2/c1-2-7(8)5-3-4-9-6(5)7/h1,5-6,8H,3-4H2/t5-,6+,7-/m0/s1
