16
gdb 49264	2.90028	1.23121	0.88068	6.0219	76.77	-0.221	-0.0354	0.1857	1240.2394	0.124496	-437.932406	-437.924058	-437.923114	-437.966396	30.064	
O	-0.1348886198	-0.0446931339	 0.0806308463	-0.309957
C	-0.065412363	 1.1701023722	 0.0914400884	 0.0889
C	 1.1653622552	 1.925810855	-0.0124663016	 0.118368
C	 1.116320822	 3.2797934932	 0.017102579	-0.021542
N	 2.201125245	 4.0886063629	-0.0736672056	-0.310728
C	 3.5503838245	 3.5627902681	 0.0584749131	-0.258304
C	 3.6784053187	 2.0905627104	-0.3602004816	 0.375925
O	 4.7411446174	 1.6832218154	-0.7594423083	-0.295368
C	 2.4688915707	 1.189943766	-0.1811928664	-0.422278
H	-0.9843307209	 1.7954249927	 0.1886888087	 0.047199
H	 0.1611758622	 3.7916703074	 0.0963086764	 0.124413
H	 2.0753011074	 5.075028169	 0.0798592021	 0.259693
H	 4.249031213	 4.1437715598	-0.5477274285	 0.147967
H	 3.8966325956	 3.6172906549	 1.1044735335	 0.140253
H	 2.6658489901	 0.539069575	 0.683434128	 0.155727
H	 2.4316411918	 0.5039628717	-1.0346311636	 0.159731
50.3804	70.7199	158.1073	181.4021	344.7086	371.519	403.9501	432.3512	475.0909	523.8243	543.3674	614.3382	698.9005	791.3882	865.1603	923.7703	954.0129	1009.3471	1023.5011	1034.5611	1162.5027	1194.5352	1230.9547	1256.3387	1276.3409	1302.4142	1346.0576	1403.2108	1434.564	1439.3207	1472.9749	1540.4508	1701.6775	1767.2387	1824.7839	2845.7394	2968.8801	3014.2643	3069.8328	3103.2887	3175.0268	3646.6888
O=CC1=CNCC(=O)C1	O=CC1=CNCC(=O)C1	
InChI=1S/C6H7NO2/c8-4-5-1-6(9)3-7-2-5/h2,4,7H,1,3H2	InChI=1S/C6H7NO2/c8-4-5-1-6(9)3-7-2-5/h2,4,7H,1,3H2
