23
gdb 103546	2.02908	1.55138	1.27939	0.9521	87.15	-0.2428	0.0158	0.2586	1182.3522	0.204387	-388.299601	-388.289678	-388.288734	-388.333896	37.73	
C	-0.5005983471	 1.32047544	 0.3499172251	-0.244275
O	-0.2138496357	-0.0571727019	 0.2933066185	-0.285459
C	 0.7952408278	-0.5557907747	 1.1936718547	 0.356133
C	 2.1838555203	-0.1269510444	 0.7105312954	-0.448497
C	 0.4949293553	-0.1704126745	 2.6342361634	-0.108407
C	-0.1384939089	-1.143691562	 3.2855204608	-0.081297
C	-0.340057	-2.3628965329	 2.4219841289	-0.276525
C	 0.6172591095	-2.1055151663	 1.2318526946	 0.002899
C	 0.1898490009	-2.7486480935	-0.085296048	-0.403254
H	 0.3745684876	 1.9497407333	 0.1307283738	 0.10024
H	-1.2576003684	 1.5128740657	-0.4153057875	 0.122915
H	-0.9078316601	 1.6223936464	 1.3251194138	 0.105384
H	 2.2901501229	 0.9621838979	 0.6983358855	 0.112103
H	 2.9594127119	-0.5254498309	 1.3714763956	 0.116404
H	 2.365994069	-0.4953668058	-0.3038276017	 0.121383
H	 0.7470471515	 0.8013148579	 3.0447324735	 0.090172
H	-0.4906303181	-1.0829273528	 4.3102840209	 0.093869
H	-0.1114973157	-3.2996480195	 2.9431638942	 0.099147
H	-1.3855213587	-2.4380917629	 2.0913317736	 0.11148
H	 1.5956722151	-2.5098854755	 1.5194187972	 0.071902
H	-0.7759035495	-2.3587222438	-0.4134432378	 0.131535
H	 0.915873352	-2.5554234257	-0.8816975488	 0.110003
H	 0.1063469681	-3.8345843441	 0.0311710144	 0.102145
80.0671	96.654	196.035	212.7497	219.3086	232.632	254.6576	282.8759	342.2475	358.7511	419.9816	521.9558	531.8321	597.1167	678.9615	741.0724	791.5861	861.616	893.5364	921.0709	948.1594	973.6545	981.2747	1021.845	1073.6456	1105.9516	1118.8091	1125.3303	1154.9431	1181.8094	1190.1025	1207.0183	1216.4198	1245.9689	1304.2399	1337.2081	1365.9964	1378.8803	1400.3006	1409.6193	1474.7896	1482.2769	1484.5143	1491.1611	1494.6009	1500.2567	1502.3579	1514.1299	1683.0513	2985.9838	3012.1645	3025.2421	3033.3676	3036.6179	3039.7901	3058.4654	3094.8936	3103.2213	3106.5185	3112.2822	3130.2478	3173.8833	3199.9211
COC1(C)C=CCC1C	CO[C@@]1(C)C=CC[C@H]1C	
InChI=1S/C8H14O/c1-7-5-4-6-8(7,2)9-3/h4,6-7H,5H2,1-3H3	InChI=1S/C8H14O/c1-7-5-4-6-8(7,2)9-3/h4,6-7H,5H2,1-3H3/t7-,8+/m1/s1
