19
gdb 52795	2.86249	0.98323	0.84384	2.7118	82.36	-0.2272	0.0335	0.2606	1446.0241	0.154748	-422.987058	-422.97637	-422.975426	-423.023796	38.554	
C	 0.1313194816	 1.4922690126	 0.0074864085	-0.502911
C	 0.0570282679	 0.0389602182	 0.023528411	 0.08487
C	-0.0050505081	-1.1651342765	 0.0269690725	 0.069834
C	-0.0584135337	-2.6003119922	 0.0360638859	 0.062223
O	 0.9352327784	-3.2487021717	-0.7298946217	-0.459275
C	-0.5540848213	-3.3518942927	 1.2752175942	-0.399848
C	-1.3745711724	-3.3735316857	 0.0057767242	 0.416127
C	-2.6989503654	-2.6602506263	-0.0624117977	-0.438965
O	-1.3758705838	-4.5380549933	-0.7606790638	-0.47676
H	 0.9835031555	 1.8326829686	-0.5911344955	 0.152471
H	-0.772713746	 1.9343023725	-0.4260047687	 0.151005
H	 0.2520209694	 1.9007800793	 1.0170308948	 0.148014
H	 1.7691049286	-3.1954208136	-0.2504048659	 0.292
H	-0.0135366335	-4.2595784271	 1.5234919097	 0.11264
H	-0.8949049858	-2.7610666766	 2.1182519623	 0.119431
H	-2.679533018	-1.7364210411	 0.5192026672	 0.122416
H	-2.9438748778	-2.416276022	-1.1003336449	 0.127521
H	-3.4885039895	-3.3075058082	 0.3325997616	 0.126141
H	-0.4702065063	-4.6569992941	-1.0794601839	 0.293066
17.4495	83.1057	94.7794	193.0938	204.3529	234.6881	270.9543	299.8662	331.3622	366.334	379.1429	428.1217	440.6657	476.7022	553.5427	576.479	643.5039	749.8613	834.6498	900.4488	921.8566	982.0466	1013.9763	1040.7458	1051.5325	1054.1365	1104.545	1119.4197	1242.439	1249.099	1314.5678	1357.6772	1399.5817	1414.1286	1437.5289	1466.0145	1475.312	1478.7304	1479.2289	1502.359	2359.2493	3025.5057	3043.3663	3085.2456	3088.1394	3109.4466	3126.4402	3134.6647	3224.8603	3741.9691	3803.4284
CC#CC1(O)CC1(C)O	CC#C[C@@]1(O)C[C@]1(C)O	
InChI=1S/C7H10O2/c1-3-4-7(9)5-6(7,2)8/h8-9H,5H2,1-2H3	InChI=1S/C7H10O2/c1-3-4-7(9)5-6(7,2)8/h8-9H,5H2,1-2H3/t6-,7+/m0/s1
