17
gdb 70882	2.56068	1.61308	1.38654	0.7204	68.03	-0.215	0.06	0.2749	1000.9472	0.133506	-458.885166	-458.876759	-458.875815	-458.917459	32.819	
C	 0.0655947563	 1.5757308887	 0.0700034339	-0.502588
C	-0.0573050988	 0.0897027931	-0.0502331342	 0.329508
C	 0.4012764039	-0.7183574338	-1.3002489731	-0.329876
C	-0.5335338368	-1.8064999797	-0.7780806105	 0.292808
O	-0.9911403985	-2.9399303389	-1.4081126379	-0.456767
C	-0.418148893	-1.6905908119	 0.7824516883	-0.089181
O	 0.5211110568	-0.6612585486	 1.0655315333	-0.320814
C	-1.3712920294	-0.8316242873	 0.010861699	 0.226587
O	-2.716127783	-0.5958080896	-0.0090858168	-0.440195
H	 1.1206598357	 1.8706991528	 0.0627811424	 0.134679
H	-0.4356492454	 2.0697262386	-0.7673176549	 0.130325
H	-0.3805815851	 1.9299804248	 1.0039582221	 0.125682
H	 0.0228502218	-0.2818435485	-2.2281949329	 0.110235
H	 1.4758054521	-0.9178026319	-1.3680458483	 0.093854
H	-0.3094875489	-3.6190144873	-1.3498116676	 0.289845
H	-0.5403630812	-2.5270904395	 1.4586089362	 0.110039
H	-2.9889796965	-0.2939636008	 0.865264461	 0.295859
170.2774	176.9803	199.4046	215.593	288.6787	314.622	348.4023	390.8665	438.0347	487.1755	558.071	579.3366	649.8018	684.1752	769.5069	817.6484	836.8831	877.1803	933.9535	981.0165	1001.5144	1030.2946	1081.4302	1121.7741	1148.3577	1178.332	1191.2648	1238.5264	1286.8196	1305.5191	1342.7505	1367.4913	1414.8964	1471.7472	1477.6594	1489.4257	1535.5775	3036.7387	3045.6405	3105.3169	3113.8297	3119.5631	3205.4095	3784.9926	3789.7158
CC12CC3(O)C(O1)C23O	C[C@@]12C[C@@]3(O)[C@@H](O1)[C@@]23O	
InChI=1S/C6H8O3/c1-4-2-5(7)3(9-4)6(4,5)8/h3,7-8H,2H2,1H3	InChI=1S/C6H8O3/c1-4-2-5(7)3(9-4)6(4,5)8/h3,7-8H,2H2,1H3/t3-,4+,5-,6-/m1/s1
