15
gdb 13526	3.01238	2.01082	1.36305	5.7577	57.67	-0.2353	0.0251	0.2604	884.4145	0.118462	-436.933805	-436.92585	-436.924906	-436.96682	28.676	
N	-0.0636631826	 1.3411783128	-0.0237561701	-0.522565
C	 0.0859044585	-0.022005613	-0.0487186099	 0.356116
O	 1.1294160528	-0.5882842819	-0.2829122128	-0.341412
C	-1.2348181687	-0.7982060426	 0.1063966258	-0.001369
O	-1.0245767654	-2.1560120949	 0.5223964446	-0.256361
C	-1.5813899834	-1.8976948634	 1.8275538142	-0.097511
C	-2.1265146251	-0.5365559569	 1.3473409008	 0.044881
O	-1.8196136694	 0.6251202052	 2.0861373919	-0.422186
H	 0.8015732328	 1.8619582461	-0.0460528552	 0.254714
H	-0.7937516775	 1.7113641699	 0.5689525853	 0.263381
H	-1.7555126322	-0.7479435403	-0.8585909148	 0.113194
H	-2.3060830524	-2.6618885164	 2.1274943925	 0.106125
H	-0.8046479402	-1.7931673572	 2.5966915123	 0.11357
H	-3.1920630603	-0.5727787046	 1.09513561	 0.091602
H	-2.523320167	 0.7864962172	 2.7215472253	 0.29782
49.397	77.3926	217.4337	228.6044	279.9671	369.8246	414.3005	488.3158	544.8594	582.224	594.4226	681.6784	732.0404	846.0329	908.6595	983.4972	1022.3565	1055.5333	1079.6906	1126.0408	1155.0758	1173.911	1192.1731	1264.5266	1300.8409	1306.0385	1337.9946	1368.961	1439.1713	1514.639	1630.4346	1821.026	3014.7741	3024.903	3042.4753	3079.3523	3547.3944	3671.6472	3831.4007
NC(=O)C1OCC1O	NC(=O)[C@H]1OC[C@H]1O	
InChI=1S/C4H7NO3/c5-4(7)3-2(6)1-8-3/h2-3,6H,1H2,(H2,5,7)	InChI=1S/C4H7NO3/c5-4(7)3-2(6)1-8-3/h2-3,6H,1H2,(H2,5,7)/t2-,3+/m1/s1
