21
gdb 86448	1.88513	1.58666	0.90832	4.4791	79.58	-0.2547	0.0169	0.2716	1320.2346	0.18242	-424.289462	-424.280273	-424.279328	-424.323437	34.673	
C	-0.0256886993	 1.5926461493	 0.0336826829	-0.407167
C	-0.0074886075	 0.0645789534	-0.0446633834	 0.001938
C	 0.7746354238	-0.4600313503	-1.2506272138	-0.208018
C	 0.6948447986	-1.9801943303	-1.3162132853	 0.137511
C	 1.5720455157	-2.5954859648	-2.3959863258	-0.397518
O	 1.0851499264	-2.6148396036	-0.0742204179	-0.24219
C	 0.8967969367	-2.0522759845	 1.1442058756	 0.394467
O	 1.0396856101	-2.7299788713	 2.1258008388	-0.324723
C	 0.6004985968	-0.560206831	 1.2160761208	-0.329819
H	 0.9922107158	 1.9930225355	 0.1079709218	 0.117281
H	-0.4930987822	 2.0282305862	-0.8554148259	 0.115505
H	-0.5835205488	 1.9378757435	 0.9103005602	 0.119705
H	-1.0452594527	-0.2868666766	-0.1390692856	 0.081361
H	 0.3765825658	-0.0507350255	-2.1860569469	 0.104066
H	 1.8254502966	-0.1461333378	-1.1816957501	 0.101425
H	-0.3516732924	-2.2678708846	-1.4935412371	 0.089632
H	 2.620918907	-2.3264463555	-2.2378921575	 0.12684
H	 1.4905147883	-3.6850170208	-2.3784945643	 0.135214
H	 1.2647511814	-2.2378195039	-3.3834021361	 0.117701
H	 1.5662926209	-0.07906508	 1.4281218217	 0.133181
H	-0.0190429209	-0.4008312271	 2.1020795179	 0.133608
88.2594	96.8995	154.7415	235.9503	239.1886	248.4879	300.4481	403.419	418.5429	443.215	466.1577	520.6735	575.4222	633.1687	801.9544	863.5873	885.2355	891.32	945.136	976.1012	995.5477	1021.3223	1061.3303	1115.5929	1137.8849	1155.962	1185.2239	1202.3083	1254.3251	1283.921	1300.046	1308.3911	1375.1685	1382.4316	1392.3799	1404.8571	1411.3507	1414.0217	1457.3524	1480.7444	1486.7793	1496.6444	1498.6577	1499.6807	1839.1201	2995.8965	2998.9472	3016.8424	3022.4883	3028.5816	3044.0521	3071.8477	3094.5753	3102.1648	3103.3561	3117.5931	3127.772
CC1CC(C)OC(=O)C1	C[C@H]1C[C@@H](C)OC(=O)C1	
InChI=1S/C7H12O2/c1-5-3-6(2)9-7(8)4-5/h5-6H,3-4H2,1-2H3	InChI=1S/C7H12O2/c1-5-3-6(2)9-7(8)4-5/h5-6H,3-4H2,1-2H3/t5-,6+/m0/s1
