27
gdb 93847	2.09359	1.49314	1.12068	0.1101	94.55	-0.2847	0.0714	0.3562	1290.5653	0.251797	-353.589735	-353.579141	-353.578197	-353.624208	41.501	
C	-0.8776517947	 1.1211702105	-0.0430116244	-0.426995
C	 0.0901399473	-0.0618847855	-0.0714382101	 0.045993
C	 1.198022061	 0.0654201431	-1.1443531422	-0.23264
C	 2.3832950908	-0.7941981654	-0.6331259351	-0.232639
C	 1.9211557296	-1.3899014221	 0.7182832187	 0.045995
C	 3.0719348775	-1.7434795424	 1.6604808729	-0.426996
C	 0.8526325081	-0.3866244004	 1.2487224165	 0.282395
C	 1.5019447625	 0.8705085872	 1.857281728	-0.429794
C	-0.0668318233	-1.0343726328	 2.2912770226	-0.446161
H	-0.3549219571	 2.068551415	 0.1249773421	 0.114256
H	-1.4070608928	 1.2072973182	-0.9982050279	 0.11028
H	-1.6350464116	 1.0112790945	 0.7406869612	 0.110376
H	-0.4965261656	-0.9621081023	-0.3050039797	 0.061321
H	 0.8380935488	-0.2555781721	-2.1264386293	 0.092399
H	 1.497038582	 1.1137662739	-1.2547088732	 0.093182
H	 2.6667595229	-1.5817495466	-1.3377469617	 0.092397
H	 3.2767870536	-0.1769938691	-0.4870079381	 0.093183
H	 1.3747613547	-2.3193274441	 0.502055147	 0.06132
H	 3.7021039778	-0.8740223496	 1.8747932126	 0.114256
H	 2.7113182065	-2.1411451105	 2.615323122	 0.110377
H	 3.7151798013	-2.507917105	 1.2110844955	 0.11028
H	 2.171731223	 1.3760307834	 1.1542982439	 0.109896
H	 0.7413656459	 1.5937903297	 2.1665637415	 0.111485
H	 2.0869175525	 0.6179195283	 2.7468196786	 0.111485
H	 0.4885013589	-1.3237410059	 3.1903200216	 0.109289
H	-0.8583933938	-0.3468765568	 2.6093757514	 0.109289
H	-0.5474038057	-1.9346217431	 1.8916845658	 0.105772
92.6374	116.4034	196.0274	222.7106	224.3836	245.3915	257.0905	265.2881	302.9171	315.1515	359.5323	406.7292	471.0318	505.1763	540.7976	609.6775	674.9973	790.8005	813.9101	872.996	911.7112	934.3643	945.0992	952.4769	1002.1134	1003.324	1019.2906	1059.5789	1079.465	1106.7145	1120.217	1148.9044	1161.0521	1215.9227	1249.5173	1260.8168	1264.6712	1305.4411	1312.3627	1333.2367	1360.7572	1372.2471	1384.5059	1402.0134	1405.6006	1408.7495	1426.6625	1481.0632	1484.5308	1489.6691	1496.3103	1497.9753	1499.4884	1506.3461	1509.842	1511.7053	1515.9085	2986.8874	2995.3762	3023.1237	3028.455	3028.9364	3032.7056	3037.3589	3046.0182	3067.6253	3087.4502	3087.9219	3089.0625	3091.0344	3092.3176	3097.8321	3100.7859	3104.3864	3105.5742
CC1CCC(C)C1(C)C	C[C@H]1CC[C@@H](C)C1(C)C	
InChI=1S/C9H18/c1-7-5-6-8(2)9(7,3)4/h7-8H,5-6H2,1-4H3	InChI=1S/C9H18/c1-7-5-6-8(2)9(7,3)4/h7-8H,5-6H2,1-4H3/t7-,8+
