19
gdb 82781	3.03936	1.88654	1.74936	1.3784	76.38	-0.2241	0.0834	0.3075	887.6364	0.161651	-385.844526	-385.837932	-385.836988	-385.875155	27.933	
C	-0.2162321722	 1.5826617351	-0.0536165534	-0.412756
C	 0.0398216643	 0.0870477235	 0.0170176436	 0.012112
C	 1.146993256	-0.5408905092	-0.8854290683	 0.052789
O	 2.2684315491	 0.3269675605	-0.9824312328	-0.255749
C	 2.9584512349	 0.202512183	 0.2358855426	 0.099388
C	 2.1831176941	 0.0291912316	 1.5267580262	-0.125613
C	 2.8694466576	-1.1636349926	 0.820428018	-0.130162
C	 1.4872748015	-1.5692856972	 0.277955733	-0.072262
C	 0.7785595225	-0.5500449748	 1.2204581695	-0.064414
H	 0.7143676487	 2.1437889652	 0.0628282244	 0.128492
H	-0.654174529	 1.8652520225	-1.0173106751	 0.112833
H	-0.9100656719	 1.8988208565	 0.7332828539	 0.107436
H	-0.8898383321	-0.4738866262	-0.1429760565	 0.067664
H	 0.8847190385	-0.8827839325	-1.8885008837	 0.070796
H	 3.8784484245	 0.7735343659	 0.2547017683	 0.103995
H	 2.4711689476	 0.5492388707	 2.4335872771	 0.08339
H	 3.6981371604	-1.7978326521	 1.1058052005	 0.08941
H	 1.1846673725	-2.6077622282	 0.1774000209	 0.069908
H	 0.2256425532	-0.8730725216	 2.1039793617	 0.062744
170.3372	186.1622	235.5835	431.5564	513.3838	576.4999	645.9914	654.826	709.689	755.947	776.2871	811.8212	814.6505	867.1415	884.531	913.9023	944.4449	945.5482	973.8222	997.3104	1020.5101	1031.1747	1060.2097	1092.2281	1096.3127	1114.7997	1134.2211	1150.2514	1186.4534	1211.7912	1219.5716	1241.8029	1269.3639	1288.3605	1320.9989	1346.2578	1370.6249	1408.058	1415.7682	1490.5529	1498.8979	3025.3168	3033.7233	3090.5235	3091.0245	3093.1338	3122.0493	3155.2377	3167.8151	3194.4603	3205.7501
CC1C2OC3C4C3C2C14	C[C@H]1[C@H]2O[C@H]3[C@@H]4[C@H]3[C@H]2[C@H]14	
InChI=1S/C8H10O/c1-2-3-4-6-5(3)8(6)9-7(2)4/h2-8H,1H3	InChI=1S/C8H10O/c1-2-3-4-6-5(3)8(6)9-7(2)4/h2-8H,1H3/t2-,3+,4-,5+,6-,7-,8+/m1/s1
