18
gdb 92997	3.19208	1.12253	0.93528	3.6147	75.05	-0.2463	0.0047	0.251	1258.9574	0.148564	-439.118449	-439.109986	-439.109042	-439.152486	31.646	
O	-0.0083474792	 1.4159316718	 0.0308146052	-0.43925
C	-0.0338604476	-0.0109809613	 0.0116737743	 0.090136
C	 0.6549019591	-0.6008769746	 1.2607194031	-0.28632
C	-0.4965089858	-0.7377303609	 2.2362631744	-0.08936
C	-1.6739781396	-0.6907292911	 1.6134941063	-0.085091
C	-1.4966645221	-0.5350168462	 0.1128673722	-0.004737
N	-2.4243982802	 0.3566766239	-0.5530457617	-0.284225
C	-3.5326086591	-0.082433419	-1.2011267934	 0.149764
O	-3.9219330668	-1.2324436987	-1.2174640521	-0.330374
H	-0.2383657088	 1.6923058468	 0.9265831287	 0.286255
H	 0.443588852	-0.2942408692	-0.9283961166	 0.096564
H	 1.1029534279	-1.5793286995	 1.0405022681	 0.120778
H	 1.4667877678	 0.0487200659	 1.6050580344	 0.112396
H	-0.3508321031	-0.8980738209	 3.2985026868	 0.102383
H	-2.6509890224	-0.8003973801	 2.068293079	 0.113299
H	-1.5960779847	-1.5157530108	-0.368390924	 0.122936
H	-2.1191921955	 1.313174818	-0.6590043534	 0.251359
H	-4.0607345219	 0.7423530761	-1.7197856613	 0.073486
30.9908	117.4041	166.4182	212.9935	265.1259	345.4465	399.0016	412.2088	480.4046	536.4106	616.1651	689.2657	767.3302	772.9415	829.1201	870.4719	899.6696	951.4256	976.3105	987.0762	1028.9231	1037.1517	1074.9965	1093.7774	1126.4011	1173.6157	1211.7751	1245.763	1255.4866	1306.7606	1316.6295	1348.7846	1380.0294	1426.281	1430.6199	1479.7428	1508.2761	1671.4343	1798.6169	2935.0632	3020.4366	3040.8393	3069.866	3101.6294	3191.2868	3219.2096	3610.4249	3781.9643
OC1CC=CC1NC=O	O[C@H]1CC=C[C@H]1NC=O	
InChI=1S/C6H9NO2/c8-4-7-5-2-1-3-6(5)9/h1-2,4-6,9H,3H2,(H,7,8)	InChI=1S/C6H9NO2/c8-4-7-5-2-1-3-6(5)9/h1-2,4-6,9H,3H2,(H,7,8)/t5-,6+/m1/s1
