25
gdb 119905	2.6641	0.85945	0.80589	1.2837	90.21	-0.2414	0.0615	0.3029	1647.7292	0.226092	-389.488202	-389.476753	-389.475809	-389.52484	41.981	
C	 0.0609017526	 1.5425181327	 0.1388644315	-0.381052
C	-0.0548284731	 0.0196234466	 0.2400067802	-0.156139
C	-1.4332129287	-0.5094340515	-0.1841134122	-0.205716
C	-1.5249577877	-2.0201495136	-0.108853835	-0.092144
C	-2.0210877043	-2.71417461	 1.1480610578	 0.049936
O	-2.5379463056	-1.9498247945	 2.202637084	-0.422487
C	-2.8438119619	-2.7869625884	-0.1129306248	 0.272636
C	-4.1618263586	-2.0375051807	-0.1752706396	-0.450135
C	-2.8576288414	-4.1141076989	-0.8501565462	-0.449051
H	 1.0516841965	 1.8914142737	 0.4465395845	 0.110065
H	-0.107638061	 1.8829934829	-0.8889143722	 0.114997
H	-0.6801980939	 2.0396955287	 0.7747424599	 0.113835
H	 0.7206439409	-0.4504959185	-0.3790529129	 0.095054
H	 0.1538601862	-0.298398786	 1.270875655	 0.08141
H	-2.2000015027	-0.0549362601	 0.4511965186	 0.104274
H	-1.6440638139	-0.1755282186	-1.2092938613	 0.092707
H	-0.7071661831	-2.5278600234	-0.6189052063	 0.070213
H	-1.5115648818	-3.6247352462	 1.4665925	 0.074707
H	-1.7984940644	-1.536597224	 2.6606540024	 0.287919
H	-4.1752806286	-1.1708184699	 0.4856145934	 0.133668
H	-4.3725798434	-1.7017022359	-1.197284853	 0.107873
H	-4.9837802695	-2.6947475084	 0.1312163164	 0.111722
H	-3.6391359397	-4.7751570202	-0.4567489351	 0.113944
H	-3.0534857548	-3.9671358694	-1.9191631744	 0.113049
H	-1.9003492583	-4.6373799162	-0.7588654507	 0.108714
53.1767	79.5409	108.1307	165.0906	196.2565	204.5108	229.314	246.0704	270.3101	290.1613	296.7562	330.5607	390.2938	479.7383	511.4	605.5676	697.2718	745.2234	820.2373	848.7259	892.8942	901.896	971.6922	993.0898	1006.1773	1016.2396	1049.6221	1082.6148	1094.9802	1128.2078	1152.7085	1177.4908	1182.6949	1248.009	1268.0531	1284.5728	1306.2824	1328.7201	1335.6448	1376.4464	1400.7431	1409.4241	1413.1568	1422.197	1460.0177	1479.9011	1485.0782	1490.4096	1492.5074	1499.3117	1503.1472	1509.4943	1514.6863	3004.9379	3016.1918	3017.4572	3028.3009	3029.306	3037.3045	3076.7929	3077.4524	3080.5119	3081.3563	3093.4122	3095.0502	3100.1787	3110.9844	3144.779	3802.3441
CCCC1C(O)C1(C)C	CCC[C@H]1[C@@H](O)C1(C)C	
InChI=1S/C8H16O/c1-4-5-6-7(9)8(6,2)3/h6-7,9H,4-5H2,1-3H3	InChI=1S/C8H16O/c1-4-5-6-7(9)8(6,2)3/h6-7,9H,4-5H2,1-3H3/t6-,7+/m0/s1
