21
gdb 121420	4.1327	0.83498	0.73044	2.5512	75.44	-0.2598	0.0811	0.3409	1567.8512	0.183276	-461.36434	-461.355225	-461.354281	-461.398731	33.91	
O	 0.0873597654	 1.4008908233	-0.1387800268	-0.419441
C	 0.0615080508	-0.0136540113	-0.0200900099	-0.06305
C	-1.3643374702	-0.5688811207	-0.0058945486	-0.24136
C	-1.4128271294	-2.0849710102	 0.0252517824	 0.209458
O	-0.7886735687	-2.5296142098	 1.2099046427	-0.253116
C	-0.7939868802	-3.9478788054	 1.3111052785	-0.076825
C	-2.225901009	-4.4809483945	 1.2337312098	-0.206106
C	-2.8914270642	-3.9025973993	-0.0169619448	-0.080428
O	-2.7607501198	-2.4869695871	-0.0396924261	-0.249769
H	-0.3134872188	 1.7674279128	 0.6557590419	 0.280778
H	 0.6025821192	-0.3909639724	-0.8955298462	 0.106637
H	 0.6046812461	-0.3568688535	 0.8706117712	 0.107062
H	-1.9060864068	-0.2004435991	 0.8737526719	 0.104376
H	-1.9015537413	-0.2237375576	-0.8941755273	 0.11658
H	-0.8717874863	-2.5209333401	-0.8404296587	 0.051131
H	-0.1846181661	-4.3822969236	 0.5000023522	 0.088964
H	-0.3149217187	-4.1939405047	 2.2622560422	 0.111361
H	-2.2295987783	-5.5761956818	 1.2022846831	 0.098544
H	-2.7808698091	-4.1603208055	 2.1214711995	 0.115072
H	-2.4320581841	-4.3347399811	-0.9228249542	 0.088332
H	-3.9628855605	-4.1163115084	-0.0472065828	 0.1118
76.7559	83.1682	116.1634	193.8147	261.3897	297.8997	329.8377	338.929	373.4831	481.7486	502.7791	584.7954	649.1365	778.9801	858.91	898.0979	900.8776	935.1456	957.7791	1007.0418	1046.191	1065.6322	1079.4019	1096.7147	1110.3862	1152.5419	1173.8169	1216.6996	1239.4725	1259.3693	1291.3087	1303.3944	1319.3094	1370.5848	1376.8913	1389.5276	1412.6966	1416.4542	1425.1165	1434.0771	1468.137	1478.8603	1497.6317	1506.7038	1516.1402	2885.7496	2958.4005	2966.0532	3015.1673	3041.5689	3043.2808	3064.493	3089.4029	3092.265	3098.6205	3103.7694	3816.1969
OCCC1OCCCO1	OCCC1OCCCO1	
InChI=1S/C6H12O3/c7-3-2-6-8-4-1-5-9-6/h6-7H,1-5H2	InChI=1S/C6H12O3/c7-3-2-6-8-4-1-5-9-6/h6-7H,1-5H2
