17
gdb 66436	2.60833	1.70688	1.36135	1.7034	72.03	-0.2131	0.0579	0.271	994.6122	0.133192	-421.706769	-421.698455	-421.697511	-421.738998	32.57	
C	 0.0248802293	 1.5219355628	-0.0087450564	-0.522781
C	-0.0055962363	 0.0274743313	-0.0079964361	 0.26949
C	 0.8402268813	-0.9915373248	-0.7620883377	-0.132836
C	 0.861003656	-0.9675601353	 0.7630472382	-0.235018
C	-0.3285189075	-1.9919400857	 0.7775211844	 0.341894
O	-0.6610617256	-3.0204577317	 1.6151792814	-0.454628
C	-0.3256124857	-2.0189188115	-0.7504754759	-0.247336
C	-1.1949542346	-1.0082101662	 0.0163762679	 0.222916
O	-2.5542569841	-0.857578581	 0.0973066227	-0.450108
H	 1.0587988164	 1.8845173066	-0.0054276798	 0.123413
H	-0.4680685896	 1.9386273096	-0.8951074919	 0.116564
H	-0.4746258131	 1.9340442595	 0.8755510015	 0.124846
H	 1.6477374553	-0.8278798675	-1.4657325549	 0.081876
H	 1.6793205894	-0.7685285655	 1.4447148341	 0.084218
H	-1.1976386761	-2.6674476303	 2.3346864275	 0.294121
H	-0.6139667434	-2.8249607648	-1.4117622036	 0.092177
H	-2.9009657516	-0.6741992454	-0.7835180113	 0.291191
161.925	179.8895	190.9789	195.0484	306.0712	312.2788	341.7943	389.777	453.1874	535.2473	630.1756	658.3007	728.8266	769.8643	792.4982	829.2631	840.0809	861.4348	877.524	924.5059	940.0175	976.4229	1039.1991	1082.6023	1097.077	1138.273	1178.6611	1209.5142	1229.8451	1281.0378	1297.1857	1390.0243	1403.0442	1425.9478	1481.4556	1495.5616	1504.9359	3019.1412	3077.8194	3090.4696	3173.685	3186.7768	3209.872	3778.1549	3779.201
CC12C3C1C1(O)C3C21O	C[C@@]12[C@H]3[C@@H]1[C@]1(O)[C@H]3[C@]21O	
InChI=1S/C7H8O2/c1-5-2-3(5)6(8)4(2)7(5,6)9/h2-4,8-9H,1H3	InChI=1S/C7H8O2/c1-5-2-3(5)6(8)4(2)7(5,6)9/h2-4,8-9H,1H3/t2-,3-,4-,5+,6-,7-/m0/s1
