15
gdb 33890	3.56649	1.51307	1.32837	3.4535	69.01	-0.2584	-0.0112	0.2472	949.595	0.115014	-416.747824	-416.741331	-416.740387	-416.778711	26.07	
N	 0.0440531492	-1.1006341237	-0.039540897	-0.332209
C	 0.055858175	 0.055166958	-0.0070986802	 0.222732
C	 0.0241200549	 1.4870536792	 0.0746936356	 0.287508
O	 0.3444503464	 2.2327782562	-1.1134605117	-0.270517
C	 1.1862016436	 2.3890674853	 0.0370027205	-0.031199
C	 0.7264271065	 3.4485361515	 1.0779380874	-0.059176
C	-0.7491695575	 3.7045434618	 0.6777933629	-0.208461
C	-0.852702189	 2.2295310257	 1.1376494426	-0.103792
N	 0.1583291564	 2.5994037181	 2.1898686594	-0.300671
H	 2.2162597192	 2.0673231145	-0.0741759625	 0.131924
H	 1.4289075259	 4.2359090118	 1.3462964449	 0.089339
H	-1.2374318921	 4.3651602709	 1.3911708469	 0.127381
H	-0.9804198828	 3.9519315962	-0.3539227825	 0.133292
H	-1.7751718374	 1.746499917	 1.4540621815	 0.095513
H	 0.7656843016	 1.8201187274	 2.4535587622	 0.218336
136.887	156.8247	378.7613	404.4406	478.1507	532.218	568.941	590.9119	615.3614	713.8675	809.3259	841.9129	863.3791	886.1156	903.4382	937.6161	939.817	1011.4698	1022.7913	1058.0628	1110.4219	1123.4811	1138.3214	1153.6813	1229.4366	1254.0311	1256.5795	1282.7731	1293.2342	1338.9159	1407.9747	1480.1223	2356.957	3122.0888	3136.1612	3144.5109	3182.7037	3200.9707	3422.5111
N#CC12OC1C1CC2N1	N#C[C@]12O[C@H]1[C@H]1C[C@@H]2N1	
InChI=1S/C6H6N2O/c7-2-6-4-1-3(8-4)5(6)9-6/h3-5,8H,1H2	InChI=1S/C6H6N2O/c7-2-6-4-1-3(8-4)5(6)9-6/h3-5,8H,1H2/t3-,4+,5+,6-/m1/s1
