18
gdb 126762	2.59328	1.34348	0.94382	3.0716	75.79	-0.2112	0.0231	0.2343	1268.1012	0.148154	-435.329801	-435.320659	-435.319714	-435.364276	32.834	
C	-0.0975908855	 1.5773116837	 0.2404920311	-0.376488
C	-0.1087889693	 0.0826840915	-0.0813234844	-0.143637
N	-1.4411364555	-0.4839320381	-0.0768292227	-0.069495
N	-2.1645950331	-0.6091710378	 1.0922702785	-0.295731
C	-3.2977857592	-1.1331564522	 0.7345654784	 0.399229
C	-4.4125399559	-1.4622645315	 1.6624242189	-0.496478
N	-3.3356600649	-1.3494672594	-0.6234709113	-0.410926
C	-2.1245626863	-0.9304704695	-1.1881310605	 0.467417
O	-1.777848489	-0.9598236464	-2.3517750641	-0.440223
H	 0.9302849045	 1.9525271507	 0.2495240082	 0.117852
H	-0.6634987815	 2.1405851327	-0.5072751871	 0.128366
H	-0.5413543394	 1.7615314525	 1.2224909042	 0.137398
H	 0.2843844932	-0.108426607	-1.083213623	 0.146146
H	 0.5052235086	-0.4692208725	 0.638733675	 0.119297
H	-4.1194675858	-1.191483546	 2.6775974058	 0.161566
H	-5.324600831	-0.9137241723	 1.401618939	 0.141025
H	-4.6499683893	-2.5317542188	 1.6384316472	 0.141081
H	-4.0837183006	-1.7461552096	-1.1648553731	 0.273601
51.6157	91.3476	152.2855	186.934	203.0982	277.6429	306.6832	312.967	399.2455	479.1494	564.0791	615.1929	672.2713	678.0965	750.1615	792.5357	834.5155	972.7406	994.4042	1036.8351	1066.6705	1069.6068	1103.8946	1154.4357	1230.354	1264.1792	1342.4978	1392.7397	1407.8155	1409.9512	1419.5891	1458.0704	1477.8001	1479.1223	1490.0274	1499.2883	1505.8357	1649.9398	1833.4262	3034.9269	3043.5255	3047.4426	3087.0984	3106.3124	3117.4715	3131.3942	3149.7791	3687.2194
CCN1N=C(C)NC1=O	CCn1nc(C)[nH]c1=O	
InChI=1S/C5H9N3O/c1-3-8-5(9)6-4(2)7-8/h3H2,1-2H3,(H,6,7,9)	InChI=1S/C5H9N3O/c1-3-8-5(9)6-4(2)7-8/h3H2,1-2H3,(H,6,7,9)
