22
gdb 78519	2.30051	1.8036	1.17259	1.0225	88.08	-0.2029	0.0948	0.2978	1147.0833	0.192484	-367.126433	-367.117338	-367.116394	-367.159402	35.633	
C	-0.6951958681	 1.3914339746	-0.4295364755	-0.332293
N	-0.4662203113	-0.0081721505	-0.0947319635	-0.111915
C	-1.2299777798	-0.6120794375	 1.0375357686	-0.103394
C	-0.1297407121	-1.711516561	 1.2269336944	 0.352197
C	 0.006830733	-2.9727903375	 0.4237127046	-0.520627
C	-0.0668067578	-1.4889534631	 2.7460710178	-0.353297
C	-0.3128566481	-0.0613306455	 2.2072973494	 0.325479
C	-0.4412909421	 1.170163248	 3.0681760791	-0.525514
C	 0.5730334045	-0.3443061985	 0.9236098575	-0.10337
H	 0.1072414967	 1.732299609	-1.093184843	 0.116888
H	-1.636585661	 1.4731063308	-0.9841907952	 0.116889
H	-0.7447925921	 2.0837843092	 0.4235771734	 0.09812
H	-2.3152133653	-0.7427885105	 1.0269854034	 0.06892
H	-0.0943760376	-2.7472865202	-0.642117082	 0.136056
H	 0.9830804228	-3.4428329603	 0.5869567184	 0.114418
H	-0.7632090023	-3.7025406401	 0.6978540477	 0.114416
H	-0.8735218784	-1.9311620733	 3.3416762227	 0.085889
H	 0.9003125799	-1.6677320736	 3.2296014415	 0.085889
H	 0.4689917	 1.3156040587	 3.6619684997	 0.119928
H	-0.613125091	 2.0827430404	 2.4937071712	 0.126479
H	-1.2742387487	 1.0567491923	 3.7722284497	 0.119928
H	 1.6397039487	-0.1554247615	 0.77707121	 0.068913
142.628	177.7455	198.7919	198.8191	228.1038	256.2853	257.7884	320.7518	384.0369	440.2844	546.2994	580.5129	669.9889	706.2524	753.7503	816.1992	845.7222	846.1162	889.8078	925.7325	999.2704	1020.2606	1042.4142	1056.5517	1069.9226	1116.5312	1139.4214	1148.9604	1150.8823	1158.7151	1173.4831	1183.1804	1206.7528	1261.3143	1287.1737	1309.4843	1375.4395	1405.6529	1410.6949	1446.4378	1481.4641	1484.7113	1491.8236	1493.5578	1499.0662	1501.3422	1519.5222	2992.914	3024.4246	3027.3448	3029.0306	3059.7419	3077.6937	3077.7876	3081.3944	3085.6023	3088.6236	3089.3466	3110.9551	3126.1842
CN1C2C3(C)CC2(C)C13	CN1[C@H]2[C@]3(C)C[C@@]2(C)[C@H]13	
InChI=1S/C8H13N/c1-7-4-8(2)5(7)9(3)6(7)8/h5-6H,4H2,1-3H3	InChI=1S/C8H13N/c1-7-4-8(2)5(7)9(3)6(7)8/h5-6H,4H2,1-3H3/t5-,6+,7-,8+
