18
gdb 56309	4.15188	0.61578	0.60193	4.9817	74.69	-0.253	0.0168	0.2698	1835.6825	0.146248	-439.077736	-439.067962	-439.067018	-439.113931	34.536	
O	-0.8860221653	 0.2647895709	 1.2585583991	-0.36139
C	-0.4954498319	 1.4721212488	 0.8221344641	 0.424326
O	 0.3480315828	 2.1307276198	 1.3644136058	-0.327814
C	-1.2109066436	 1.910320664	-0.4667285106	-0.314446
N	-2.423769628	 1.1250215161	-0.6981937388	-0.321183
H	-2.5680814173	 0.9802281981	-1.6911470228	 0.23442
H	-1.5804485398	-0.0202863445	 0.6267242989	 0.301172
C	-3.6310311969	 1.6985756974	-0.0975793933	-0.136812
C	-4.8354113798	 0.7690349232	-0.3192600111	-0.364923
C	-6.0625797871	 1.3086277282	 0.2503450568	 0.29409
C	-7.0594147054	 1.7766446107	 0.7305716983	-0.431231
H	-1.3823903616	 2.9930687341	-0.40960612	 0.13407
H	-0.5078966553	 1.7386353907	-1.2886016862	 0.142094
H	-3.4566813817	 1.8137799282	 0.9773927992	 0.139153
H	-3.859477091	 2.7000028466	-0.4942327974	 0.114169
H	-4.9731236732	 0.6036347381	-1.3969648759	 0.129353
H	-4.6144371572	-0.2130623659	 0.1158171129	 0.142704
H	-7.9465513776	 2.1792653855	 1.1532845809	 0.202247
44.8767	70.6621	75.4241	130.0092	134.7691	284.0475	307.3338	348.254	353.2337	508.5105	541.265	563.126	629.8365	654.5059	660.5703	764.5878	796.7702	848.1768	878.5271	945.8006	969.9661	1035.4079	1069.8137	1102.9248	1136.4541	1200.3967	1222.9584	1264.0649	1308.1945	1317.1561	1355.8766	1394.4526	1418.0521	1468.2296	1474.2939	1483.6947	1516.1443	1881.597	2244.2574	2987.8433	3012.9544	3027.3249	3054.7273	3079.4719	3085.4194	3502.983	3505.7532	3534.5778
[O-]C(=O)C[NH2+]CCC#C	OC(=O)CNCCC#C	
InChI=1S/C6H9NO2/c1-2-3-4-7-5-6(8)9/h1,7H,3-5H2,(H,8,9)	InChI=1S/C6H9NO2/c1-2-3-4-7-5-6(8)9/h1,7H,3-5H2,(H,8,9)
