13
gdb 20994	3.55375	2.17164	1.35951	3.4588	55.05	-0.2159	0.0546	0.2706	830.6612	0.096215	-431.938783	-431.931235	-431.930291	-431.971179	26.69	
C	-0.019748339	 1.5255384923	 0.0106214333	-0.344142
N	 0.0334660703	 0.0761955106	 0.0023520686	-0.134146
C	 0.0733443992	-0.7784480001	-1.069132423	 0.449643
O	 0.0400167116	-0.2785887366	-2.3136723553	-0.427602
N	 0.1353270518	-2.023244695	-0.7138034764	-0.337942
N	 0.1438299742	-2.0309743523	 0.6941368241	-0.337944
C	 0.0862249697	-0.7901562346	 1.0638328703	 0.449644
O	 0.0679608025	-0.3039947473	 2.3140976629	-0.427602
H	 0.9839192608	 1.962333499	 0.0067661525	 0.149029
H	-0.5583285888	 1.8659522378	-0.8750196443	 0.160307
H	-0.547235935	 1.8561797556	 0.9065762548	 0.160312
H	 0.052516999	-1.0364331408	-2.9129364858	 0.320221
H	 0.0876259538	-1.0683723486	 2.9048093884	 0.320221
40.8771	149.5944	227.2823	249.6709	325.5831	372.2428	410.2482	431.1556	556.2278	620.3004	684.8528	730.2325	751.9174	792.0359	1000.6386	1045.0937	1155.7669	1180.0387	1200.7361	1267.7292	1316.6097	1445.8979	1481.5092	1490.4942	1515.706	1598.3252	1605.1586	1668.3507	3048.8909	3122.7263	3156.4511	3795.0368	3796.1963
CN1C(O)=NN=C1O	Cn1c(O)nnc1O	
InChI=1S/C3H5N3O2/c1-6-2(7)4-5-3(6)8/h1H3,(H,4,7)(H,5,8)	InChI=1S/C3H5N3O2/c1-6-2(7)4-5-3(6)8/h1H3,(H,4,7)(H,5,8)
