16
gdb 17748	4.00345	2.55234	2.13993	1.6095	66.22	-0.2412	0.0903	0.3315	699.5839	0.13115	-346.526423	-346.520523	-346.519579	-346.555965	24.657	
C	-0.0108716728	 1.4568180511	-0.0760631599	-0.518238
C	-0.0581545231	-0.0386960665	-0.013418078	 0.457107
O	 0.2734246876	-0.7252410321	-1.2498127626	-0.327059
C	-0.4017678421	-1.8629338812	-0.6773911782	 0.075001
C	 0.345625338	-2.251739054	 0.6311236289	-0.094297
C	-0.6608670565	-1.5584206209	 1.5222663574	-0.111919
C	 0.6152329618	-0.840936797	 1.1446357851	-0.133408
C	-1.3010312549	-0.9676022581	 0.2303808143	-0.156389
H	 1.012731325	 1.7986749195	-0.2651411229	 0.131214
H	-0.6525900912	 1.8337801533	-0.877302844	 0.128706
H	-0.3440420931	 1.8870266046	 0.8735412161	 0.125535
H	-0.7189738794	-2.6130356099	-1.3996363064	 0.0781
H	 0.9920279581	-3.0930704355	 0.8390994496	 0.091194
H	-1.0638409097	-1.8318899919	 2.4859029898	 0.091394
H	 1.4718076549	-0.5817279991	 1.7524057775	 0.08796
H	-2.3349262028	-0.6965687921	 0.0307674133	 0.075097
206.0135	260.8444	278.1859	549.7477	577.2237	594.8426	744.7933	776.0353	797.1936	806.0928	828.0735	846.3861	862.4028	864.3605	866.9303	921.0761	960.0012	997.0491	999.0838	1034.801	1044.225	1105.476	1126.1074	1148.8231	1169.5148	1183.6253	1226.0062	1256.6865	1284.4814	1311.9098	1369.8578	1416.1427	1478.2411	1490.8309	3035.793	3104.2021	3117.2124	3135.3363	3149.6089	3202.0873	3210.7826	3230.0509
CC12OC3C4C(C14)C23	C[C@@]12O[C@H]3[C@@H]4[C@@H]([C@H]14)[C@@H]23	
InChI=1S/C7H8O/c1-7-4-2-3(4)6(8-7)5(2)7/h2-6H,1H3	InChI=1S/C7H8O/c1-7-4-2-3(4)6(8-7)5(2)7/h2-6H,1H3/t2-,3+,4-,5+,6-,7+/m0/s1
