17
gdb 79599	2.76876	1.56491	1.20976	2.788	72.92	-0.2479	-0.0341	0.2138	1032.4665	0.135087	-421.78339	-421.775314	-421.77437	-421.816135	30.53	
O	-0.1379671096	 1.4203896464	-0.1061363024	-0.430913
C	-0.0936063477	 0.0381256186	 0.0720577044	 0.126335
C	-0.465942997	-0.6900738077	 1.3289292374	-0.121309
C	-1.678352801	-0.0837652319	 1.9893350389	-0.112953
C	-2.8625692137	-0.9847854801	 1.9455545076	-0.320971
C	-2.4948433163	-0.2765855212	 0.6574293758	 0.226083
C	-3.3875538477	 0.7399153423	 0.0658535898	 0.051046
O	-4.2890792792	 1.287603131	 0.6594061345	-0.271668
C	-1.2792262162	-0.8872604345	 0.0046324822	-0.212221
H	-0.7859238431	 1.7904336473	 0.5019258293	 0.292368
H	 0.7923947398	-0.3522800746	-0.4209837589	 0.115093
H	 0.2001213196	-1.3980382155	 1.8103978356	 0.100101
H	-1.6898159213	 0.8181206681	 2.5931155241	 0.112131
H	-2.7267223491	-2.0611522126	 1.9946336728	 0.119323
H	-3.7621146047	-0.6011748256	 2.4156058063	 0.146464
H	-3.158863132	 0.9903896924	-0.9934482345	 0.085276
H	-1.2958421108	-1.7638175724	-0.634158083	 0.095814
84.0667	139.5743	176.9697	207.1954	244.6138	324.2709	389.8383	505.9443	547.7061	663.3142	715.9486	739.9146	757.9168	776.3786	844.5551	921.3817	945.454	970.2885	990.5073	1009.7639	1052.1869	1062.7028	1070.8619	1090.0824	1095.5508	1116.1392	1177.0906	1207.2004	1269.9024	1290.6255	1322.5035	1338.3517	1362.2573	1430.464	1457.1775	1476.2803	1794.4696	2891.669	3123.5943	3157.852	3162.5871	3167.2362	3176.3323	3222.2037	3825.2529
OC1C2C3CC3(C=O)C12	O[C@H]1[C@H]2[C@@H]3C[C@]3(C=O)[C@@H]12	
InChI=1S/C7H8O2/c8-2-7-1-3(7)4-5(7)6(4)9/h2-6,9H,1H2	InChI=1S/C7H8O2/c8-2-7-1-3(7)4-5(7)6(4)9/h2-6,9H,1H2/t3-,4-,5+,6-,7+/m0/s1
