14
gdb 128494	2.35011	1.55713	0.94226	6.4428	71.71	-0.2396	-0.0012	0.2384	1161.425	0.102641	-432.889725	-432.881703	-432.880759	-432.922864	28.491	
C	-0.0383428085	 1.413656349	 0.0095881952	-0.273326
O	-0.0020763263	-0.0102741852	 0.0050163337	-0.245862
C	-1.1657870689	-0.6569813942	 0.012166291	 0.444537
C	-1.3693245396	-2.035016038	 0.01022584	-0.050356
C	-2.7850536635	-2.1701032631	 0.0206740521	-0.060014
N	-3.4037565449	-1.0056225325	 0.0278629402	-0.233975
N	-2.3917465109	-0.0874738632	 0.0226561442	-0.293642
C	-0.381370889	-3.0418635218	 0.0003435493	 0.199874
N	 0.420416369	-3.8783592831	-0.0076779989	-0.35673
H	 1.0006249049	 1.7410588919	 0.0028454631	 0.166583
H	-0.5453068123	 1.7983369787	-0.8839290651	 0.138515
H	-0.5319594859	 1.7929067321	 0.912842721	 0.138527
H	-3.3511752604	-3.0892950573	 0.0227231859	 0.141311
H	-2.6241576135	 0.8902062566	 0.0268962383	 0.284558
73.7236	122.7734	172.1385	211.0935	250.2941	311.5666	429.9604	458.9357	539.585	541.3784	635.9858	667.4688	718.0501	728.695	902.677	943.0022	1049.369	1094.7151	1174.2178	1204.1317	1229.5334	1237.1876	1317.8347	1362.9866	1456.1703	1477.6763	1494.6023	1504.4303	1560.7902	1636.6032	2346.3451	3013.1515	3079.4061	3160.3385	3258.7437	3688.7869
COC1=C(C=NN1)C#N	COc1c(cn[nH]1)C#N	
InChI=1S/C5H5N3O/c1-9-5-4(2-6)3-7-8-5/h3H,1H3,(H,7,8)	InChI=1S/C5H5N3O/c1-9-5-4(2-6)3-7-8-5/h3H,1H3,(H,7,8)
