17
gdb 106995	3.00367	1.33172	1.05342	1.4704	69.68	-0.2254	-0.0209	0.2045	1147.3635	0.13363	-458.92813	-458.919102	-458.918158	-458.962158	32.583	
C	 0.051036768	 1.3421735455	 0.2944800892	-0.264592
O	 0.0122998678	-0.0060984323	-0.167733209	-0.278097
C	-1.2447042545	-0.5437449196	-0.1665213632	 0.325993
C	-1.8967597733	-1.0946876619	 1.10459551	-0.340847
C	-1.6522348153	-2.0357629217	-0.0285842675	-0.152245
C	-2.7552308613	-1.8606366921	-1.0704229576	-0.008611
O	-4.056374092	-2.1394956852	-0.6114141366	-0.42769
C	-2.3002089838	-0.3709268361	-1.216842828	 0.310555
O	-2.5807674606	 0.494012524	-2.0006914448	-0.333338
H	 1.0944885885	 1.6585554153	 0.2454146548	 0.133178
H	-0.5589522839	 1.9936775364	-0.3414297328	 0.142275
H	-0.3033842665	 1.4155783169	 1.3315954492	 0.114319
H	-1.1881447883	-1.1608873326	 1.9240389293	 0.130471
H	-2.9112961869	-0.8369913893	 1.3866421671	 0.13748
H	-0.9809851144	-2.8810467314	 0.0352671391	 0.117449
H	-2.5246884051	-2.3915102662	-2.0073224396	 0.096776
H	-4.6761851884	-1.7528582596	-1.2398838596	 0.296925
70.999	94.7207	170.9416	172.458	228.5709	239.1762	297.8807	334.604	394.7082	485.3934	555.3396	615.9227	662.2503	805.4455	834.7164	864.2338	901.9296	961.3481	985.8803	1019.881	1040.6526	1083.2623	1088.6991	1139.692	1162.0873	1179.2899	1217.7894	1245.5267	1291.4866	1302.8089	1371.3372	1406.7788	1474.6097	1486.5254	1497.2475	1507.4881	1872.5814	2988.5686	3007.6656	3077.3428	3133.74	3134.9881	3215.7329	3226.0576	3808.5105
COC12CC1C(O)C2=O	CO[C@]12C[C@H]1[C@@H](O)C2=O	
InChI=1S/C6H8O3/c1-9-6-2-3(6)4(7)5(6)8/h3-4,7H,2H2,1H3	InChI=1S/C6H8O3/c1-9-6-2-3(6)4(7)5(6)8/h3-4,7H,2H2,1H3/t3-,4+,6+/m0/s1
