18
gdb 30236	4.60065	1.07248	0.91299	1.3872	82.2	-0.2034	0.0346	0.2379	1286.1301	0.148468	-401.950706	-401.942301	-401.941357	-401.984007	31.415	
C	-0.3540179063	 1.5152164021	 0.1282791909	-0.492207
C	 0.0012640712	 0.0600925124	 0.0258825863	 0.298637
C	 0.0439901049	-0.6796144474	-1.1531775081	-0.243825
N	 0.4888228186	-1.9211381472	-0.8066700195	 0.021576
C	 0.6090776538	-3.3651394692	-1.0675010222	-0.210468
C	 0.8683845363	-3.5218810166	 0.4940084131	-0.00465
O	 2.0923728382	-4.0701748694	 0.9057632326	-0.421272
C	 0.6706475513	-2.0131477655	 0.5426612803	 0.287517
C	 0.3777254629	-0.7935663738	 1.1146175917	-0.448834
H	 0.503638887	 2.12677459	 0.4335613926	 0.12403
H	-0.7079131615	 1.9030503544	-0.8315540632	 0.117155
H	-1.1464226553	 1.6858701613	 0.8660068634	 0.123482
H	-0.1605025245	-0.3836309288	-2.1698890473	 0.116931
H	-0.3083218972	-3.8301281219	-1.4413135066	 0.124788
H	 1.4561522639	-3.6400175049	-1.7030153474	 0.118215
H	 0.09348327	-4.1131720353	 0.98949955	 0.109516
H	 2.784467209	-3.4360282617	 0.6868446351	 0.283245
H	 0.4197067979	-0.5156347785	 2.1566816884	 0.096165
77.3277	98.815	141.1535	230.0692	247.5664	326.2547	378.7815	446.4452	511.4141	585.1125	628.9112	681.1625	721.9698	768.7309	790.7708	838.5015	854.7847	975.679	1000.1588	1014.0135	1056.8417	1059.9191	1129.887	1136.3232	1149.2222	1201.1941	1215.0392	1257.9552	1292.3943	1352.4731	1401.0816	1409.432	1419.3922	1455.2487	1483.3104	1487.4043	1501.4209	1530.3309	1586.0206	3022.9931	3044.7176	3071.6191	3078.1669	3103.0569	3103.1651	3246.9891	3256.7621	3799.7172
CC1=CN2CC(O)C2=C1	Cc1cn2C[C@@H](O)c2c1	
InChI=1S/C7H9NO/c1-5-2-6-7(9)4-8(6)3-5/h2-3,7,9H,4H2,1H3	InChI=1S/C7H9NO/c1-5-2-6-7(9)4-8(6)3-5/h2-3,7,9H,4H2,1H3/t7-/m1/s1
