17
gdb 29522	3.11938	1.51821	1.03613	2.882	76.05	-0.1799	0.0489	0.2288	1108.1692	0.138687	-418.021465	-418.013372	-418.012428	-418.054132	30.367	
N	 0.018335512	 1.4469953432	-0.1491319046	-0.607446
C	 0.0295442199	 0.041430312	-0.0353827704	 0.051839
C	-1.0609796939	-0.8103602727	-0.0404131144	-0.152284
N	-0.5978694515	-2.1235213536	-0.0077115645	-0.387449
C	 0.7594629291	-2.0907466565	 0.033833726	 0.257959
C	 1.1824463307	-0.7926536513	 0.0132530371	 0.227853
C	 2.6769510245	-0.7794672244	 0.0215605055	-0.190377
O	 3.0464868368	-2.1736887198	 0.0918662164	-0.28106
C	 1.9074446875	-3.0419564972	 0.0603917697	-0.170309
H	 0.7014593063	 1.883687796	 0.4581473843	 0.239695
H	-0.8910751794	 1.83926084	 0.0615570344	 0.236483
H	-2.1171266847	-0.5952670776	-0.0697098884	 0.104779
H	-1.1834975165	-2.9387588978	-0.0000338828	 0.259073
H	 3.118069704	-0.337822722	-0.8848548592	 0.106601
H	 3.1194862106	-0.2620560322	 0.8862511215	 0.09804
H	 1.9271587928	-3.695841291	 0.9463664669	 0.103483
H	 1.9607976617	-3.6922039752	-0.8279234874	 0.103119
92.2571	149.1548	189.499	207.993	255.6654	304.1618	383.1467	498.1106	599.0902	609.7361	620.4474	637.9774	674.0347	776.8572	806.7391	854.1416	895.3596	1023.2313	1037.5061	1068.3217	1079.0995	1084.1296	1127.6184	1155.9343	1212.3004	1222.9499	1291.8597	1329.1454	1349.484	1399.136	1479.8788	1524.8308	1533.6007	1545.4662	1566.5836	1631.9635	1659.0666	2962.7567	2978.08	2980.9279	2994.6852	3257.8349	3522.3388	3610.1332	3693.3663
NC1=CNC2=C1COC2	Nc1c[nH]c2c1COC2	
InChI=1S/C6H8N2O/c7-5-1-8-6-3-9-2-4(5)6/h1,8H,2-3,7H2	InChI=1S/C6H8N2O/c7-5-1-8-6-3-9-2-4(5)6/h1,8H,2-3,7H2
