16
gdb 15568	3.51403	1.6884	1.25678	1.8618	76.11	-0.2339	-0.0232	0.2107	966.1721	0.130043	-346.586137	-346.578259	-346.577315	-346.618375	29.54	
O	-0.2977182077	 1.507567472	-0.3107993535	-0.42453
C	 0.0386275462	 0.1514777503	-0.0399645545	 0.029982
C	-1.1807021289	-0.7715012531	 0.2149112562	-0.245717
C	-1.3795534008	-1.5978286689	-1.0798746364	-0.258366
C	-0.0741859463	-1.4217983629	-1.807820867	-0.167027
C	 0.725254831	-0.5071793317	-1.2350846234	 0.130907
C	 2.0059663207	-0.0976216964	-1.676478388	 0.235411
C	 3.1039058301	 0.2687152989	-2.0117133108	-0.417133
H	-0.722111671	 1.5373621909	-1.1755810224	 0.277532
H	 0.6952860477	 0.2072771585	 0.8326917293	 0.09392
H	-0.95980273	-1.4433455042	 1.0494823934	 0.110746
H	-2.0526484782	-0.1759663178	 0.4945457442	 0.109791
H	-1.5932558856	-2.6521949169	-0.8701720187	 0.115382
H	-2.2198369319	-1.2406580006	-1.6916945127	 0.11338
H	 0.1767566292	-1.9720686354	-2.707830069	 0.103922
H	 4.0684200555	 0.5906685773	-2.3170175067	 0.191799
76.3126	141.1919	160.7188	260.7109	315.1651	370.8665	406.0896	524.1695	549.5856	593.3149	628.8956	664.2289	720.9337	778.0435	853.0106	873.255	931.0552	944.6537	1008.8785	1043.4921	1077.7455	1147.2663	1164.5575	1230.02	1263.6478	1277.7752	1299.1625	1325.7355	1343.192	1431.1769	1474.5428	1492.5736	1669.7964	2222.7463	3012.0049	3049.8509	3062.457	3078.5552	3114.1976	3198.0848	3504.0404	3798.4818
OC1CCC=C1C#C	O[C@H]1CCC=C1C#C	
InChI=1S/C7H8O/c1-2-6-4-3-5-7(6)8/h1,4,7-8H,3,5H2	InChI=1S/C7H8O/c1-2-6-4-3-5-7(6)8/h1,4,7-8H,3,5H2/t7-/m0/s1
