21
gdb 6544	2.66934	1.85441	1.61641	2.7424	73.82	-0.2318	0.0592	0.291	953.1646	0.186556	-366.246793	-366.237271	-366.236327	-366.280058	36.455	
C	-0.2821367606	 1.4816054251	-0.1398467315	-0.422251
C	 0.0287900392	-0.0184518728	-0.0127129077	 0.270696
C	 0.8186751417	-0.3103559822	 1.271967343	-0.412864
O	-1.2093757584	-0.7446691462	 0.0220093478	-0.470209
C	 0.7775146424	-0.537088984	-1.2552688334	 0.357767
C	 2.0873510856	 0.1487321464	-1.5929449708	-0.468493
C	 0.6101702377	-1.9647615272	-1.628899221	-0.282368
N	-0.0231078847	-0.8996957787	-2.4377811936	-0.373469
H	 0.6251988117	 2.0908007955	-0.1235256266	 0.122799
H	-0.8210404145	 1.6844288249	-1.0695098134	 0.130087
H	-0.9080949525	 1.8076829433	 0.6994343151	 0.099561
H	 0.2513835943	 0.0209370055	 2.1499914532	 0.10009
H	 1.0037695424	-1.3833682538	 1.3675538385	 0.126384
H	 1.7789399684	 0.2126661267	 1.287645623	 0.120621
H	-1.7335812577	-0.395753092	 0.7491200105	 0.280303
H	 2.8223667797	 0.0458240782	-0.7880351479	 0.112181
H	 2.5067197409	-0.3000944543	-2.4961645514	 0.129064
H	 1.9468599498	 1.2153545423	-1.7938015036	 0.118393
H	 1.4284920206	-2.4871190982	-2.1180499826	 0.103095
H	-0.0353446362	-2.5842423063	-1.0161160417	 0.12141
H	-1.0061669497	-0.8651195722	-2.1753975559	 0.237204
62.829	193.5258	202.9772	230.8993	255.3391	272.6433	287.8515	320.0405	367.6073	374.4897	411.6561	433.2989	507.6479	531.0834	635.0489	815.7185	853.5091	902.4958	918.55	932.3004	964.364	994.2544	1013.9246	1030.8222	1090.0271	1113.9363	1125.0278	1145.9937	1202.0499	1211.3686	1295.2675	1306.9122	1355.3704	1393.4427	1397.1176	1413.7221	1425.2643	1477.4717	1480.4351	1490.6076	1497.8231	1503.0556	1506.8842	1513.8297	3027.8594	3033.5162	3041.5946	3094.7976	3102.145	3105.2525	3112.7187	3123.9033	3125.3983	3129.2535	3207.8267	3497.0531	3828.8144
CC(C)(O)C1(C)CN1	CC(C)(O)[C@@]1(C)CN1	
InChI=1S/C6H13NO/c1-5(2,8)6(3)4-7-6/h7-8H,4H2,1-3H3	InChI=1S/C6H13NO/c1-5(2,8)6(3)4-7-6/h7-8H,4H2,1-3H3/t6-/m1/s1
