18
gdb 60787	2.66279	1.1946	1.03224	4.4051	72.67	-0.2916	-0.0608	0.2308	1205.6832	0.144254	-439.108518	-439.098508	-439.097564	-439.143276	36.103	
C	-0.0534162341	 1.584976589	 0.0791811437	-0.417027
C	-0.001630484	 0.0439097824	 0.032558625	 0.042273
C	 0.7355841541	-0.531274682	 1.2627919182	-0.428209
C	-1.3780184165	-0.4809750779	 0.0431125665	 0.295424
N	-2.4531060165	-0.9016105831	 0.0919613177	-0.338555
C	 0.6561594716	-0.4389684751	-1.3083420156	 0.044609
O	-0.0741441104	 0.0139886943	-2.4069070343	-0.425963
C	 2.1069375537	 0.0035889176	-1.4330751025	 0.124835
O	 2.4746886703	 0.6683106603	-2.3711199327	-0.255015
H	 0.9607230309	 1.994126671	 0.1312278608	 0.124531
H	-0.5435834402	 1.9727694621	-0.8149590589	 0.155902
H	-0.6051314072	 1.9248870188	 0.9587006382	 0.138633
H	 0.1710431208	-0.3128415706	 2.1722185	 0.148691
H	 0.848119583	-1.6169848442	 1.1905028203	 0.13801
H	 1.7260164769	-0.0806579535	 1.3692194234	 0.125566
H	 0.6705950552	-1.5432447851	-1.2806434473	 0.112728
H	 0.5535860084	 0.5056873932	-2.9610253406	 0.300695
H	 2.812023544	-0.3314157371	-0.6496923618	 0.112871
66.6818	100.0165	153.1123	185.7288	227.4247	249.6887	266.2373	289.9889	330.2428	345.849	401.1058	427.2477	487.8537	572.3556	612.3531	699.2303	775.1455	838.7716	915.5184	941.2539	953.3615	1014.9939	1049.0464	1148.139	1179.5168	1211.8335	1227.2995	1285.696	1338.0294	1394.8945	1402.0632	1425.6041	1436.3109	1483.1967	1487.6852	1503.0688	1510.759	1809.6807	2356.921	2949.6711	2967.7277	3046.2073	3048.9931	3120.4493	3121.6201	3129.2514	3149.5334	3682.9403
CC(C)(C#N)C(O)C=O	CC(C)(C#N)[C@@H](O)C=O	
InChI=1S/C6H9NO2/c1-6(2,4-7)5(9)3-8/h3,5,9H,1-2H3	InChI=1S/C6H9NO2/c1-6(2,4-7)5(9)3-8/h3,5,9H,1-2H3/t5-/m0/s1
