13
gdb 44841	2.61753	1.89403	1.4512	3.5331	56.98	-0.2628	-0.0624	0.2004	877.6948	0.09024	-493.747478	-493.741113	-493.740169	-493.778486	24.61	
O	 0.0019242448	 0.0104348568	 0.0441074478	-0.286125
C	-0.0315463633	 1.2043908317	 0.020820489	 0.431003
C	-1.2507672115	 2.1489320253	 0.0230375707	-0.366308
C	-0.508936036	 3.4940769396	 0.0339903715	 0.18805
O	 0.5987952187	 3.2594789309	-0.8135767066	-0.236717
C	 1.1644867216	 2.1974512925	-0.0281276657	-0.21873
C	 1.1807040197	 2.8583420286	 1.3630625702	 0.463516
O	 1.907996155	 2.7183978079	 2.2939096953	-0.317805
O	 0.0851288615	 3.6841972746	 1.3402650031	-0.241366
H	-1.8350401469	 2.0266154114	-0.892873343	 0.155485
H	-1.893772682	 1.9772024744	 0.8878485501	 0.159018
H	-1.049030317	 4.3934046549	-0.2500734592	 0.128254
H	 2.1107951355	 1.8303997915	-0.4096857931	 0.141725
120.3798	153.9784	389.9663	424.9946	449.1556	485.6764	600.5324	623.8477	664.7273	729.0348	793.482	850.3858	856.4304	906.3122	928.751	976.6428	983.8064	1053.9714	1075.4496	1129.4617	1179.6563	1191.4639	1243.2581	1262.7119	1338.4012	1356.9927	1442.7673	1880.632	1925.0446	3079.6189	3139.316	3169.8864	3203.8934
O=C1CC2OC1C(=O)O2	O=C1C[C@@H]2O[C@H]1C(=O)O2	
InChI=1S/C5H4O4/c6-2-1-3-8-4(2)5(7)9-3/h3-4H,1H2	InChI=1S/C5H4O4/c6-2-1-3-8-4(2)5(7)9-3/h3-4H,1H2/t3-,4-/m1/s1
