22
gdb 59570	2.87975	1.22403	1.0727	2.3782	81.25	-0.2343	0.0729	0.3071	1234.7167	0.195523	-404.337609	-404.328736	-404.327792	-404.371104	34.854	
C	 0.1824583282	 1.3044876399	-0.3505304739	-0.408154
C	-0.1530715451	-0.1793653382	-0.1912612142	 0.131089
O	 0.7592187743	-0.784394687	 0.7287834251	-0.432565
C	-1.6143497831	-0.4292224588	 0.2451354648	-0.013406
C	-2.6758995695	 0.0104895453	-0.8116145287	-0.235991
C	-3.1144845118	-1.2663934248	-1.5025879327	-0.023739
N	-1.9761030283	-2.0778200819	-1.990744886	-0.332577
C	-2.6450133588	-2.4306438576	-0.7165783904	-0.022638
C	-1.9004891791	-1.9384337125	 0.5081224466	-0.233798
H	 1.2390390316	 1.4182535884	-0.6078417448	 0.122146
H	-0.4131153679	 1.7857395751	-1.131194004	 0.117086
H	 0.0000316172	 1.8462660651	 0.5873833625	 0.097942
H	 0.018782558	-0.7040772872	-1.1352728484	 0.116411
H	 0.6700441746	-0.3231294193	 1.570779941	 0.270074
H	-1.7636063615	 0.1411742241	 1.1718864973	 0.052168
H	-3.5426840222	 0.4656146609	-0.318691353	 0.095225
H	-2.285468951	 0.7475175443	-1.5194432548	 0.103093
H	-4.0449493946	-1.2843653726	-2.061620352	 0.079131
H	-2.3028801844	-2.7041498025	-2.7223405736	 0.227431
H	-3.2128349291	-3.3547125515	-0.6688507442	 0.079021
H	-0.9731323797	-2.4828772835	 0.7007575708	 0.124695
H	-2.5466167877	-2.0615954958	 1.3854420328	 0.087354
65.6172	106.5868	213.6843	232.1338	303.6859	315.862	330.672	370.2894	401.4668	451.8669	481.3469	647.1521	751.6674	775.136	793.6335	853.3511	889.225	897.9791	914.0001	944.9857	956.8354	965.4644	1014.5834	1046.4419	1074.2556	1083.7771	1112.9232	1119.6631	1141.3014	1166.9418	1192.8975	1221.2224	1248.2499	1258.6411	1295.1891	1318.918	1327.9506	1344.4705	1377.165	1390.044	1404.0292	1427.3299	1436.3811	1480.2529	1492.0958	1493.561	1497.3698	3001.8791	3018.4845	3038.2786	3044.771	3079.7652	3085.6123	3101.19	3106.2549	3119.9529	3151.6194	3162.8899	3498.3877	3787.1942
CC(O)C1CC2NC2C1	C[C@@H](O)[C@H]1C[C@H]2N[C@H]2C1	
InChI=1S/C7H13NO/c1-4(9)5-2-6-7(3-5)8-6/h4-9H,2-3H2,1H3	InChI=1S/C7H13NO/c1-4(9)5-2-6-7(3-5)8-6/h4-9H,2-3H2,1H3/t4-,5-,6+,7-/m1/s1
