19
gdb 120617	3.46803	0.77468	0.70642	2.0274	73.95	-0.2482	-0.0271	0.2211	1603.1937	0.156002	-460.149603	-460.139438	-460.138494	-460.185297	36.148	
O	-0.00105985	 1.3217430018	 0.024511524	-0.420133
C	-0.0291715337	-0.0762219368	 0.2635719122	-0.066484
C	-1.364134398	-0.603458108	-0.254946787	-0.220838
C	-1.4963037375	-2.0990872256	-0.0798242908	-0.062182
C	-1.9527891552	-2.6943739189	 1.2173722754	-0.305556
C	-2.8846529787	-2.7320382452	 0.0205990539	 0.258648
O	-4.0211603604	-1.9233342838	 0.098506005	-0.462065
C	-3.086294419	-4.0514684351	-0.6394733937	 0.10228
O	-2.2200704899	-4.8786659092	-0.7962243842	-0.270228
H	 0.8372676096	 1.6661516848	 0.3455308958	 0.287609
H	 0.7990290768	-0.588101469	-0.2529603405	 0.08827
H	 0.0654628785	-0.3048836687	 1.336850528	 0.091865
H	-2.1739794893	-0.0881685698	 0.2709621992	 0.118687
H	-1.447365577	-0.3342090098	-1.315514156	 0.106452
H	-0.7966034698	-2.7105434979	-0.6443955335	 0.112794
H	-1.5308268759	-3.6412252915	 1.5337817797	 0.136789
H	-2.2612559303	-2.0175302019	 2.0069288229	 0.131072
H	-4.1337254333	-1.46673821	-0.7425517287	 0.292815
H	-4.132369587	-4.2176225855	-0.9822390815	 0.080205
65.257	88.6189	106.4419	130.1879	199.1833	233.191	258.5127	274.1284	308.2181	354.3647	408.9978	480.1887	515.8523	629.099	726.4885	797.6391	818.642	898.5703	942.6558	961.9809	1011.315	1047.538	1073.3698	1082.2125	1092.4392	1112.0762	1180.3678	1229.9691	1238.8847	1258.514	1266.2934	1309.862	1328.2869	1346.4588	1411.5978	1414.7447	1460.8259	1466.8393	1498.9634	1528.3917	1809.1427	2885.1627	2965.4222	2993.8121	3031.5599	3087.8985	3136.5533	3145.7283	3235.1793	3797.4267	3831.7931
OCCC1CC1(O)C=O	OCC[C@H]1C[C@]1(O)C=O	
InChI=1S/C6H10O3/c7-2-1-5-3-6(5,9)4-8/h4-5,7,9H,1-3H2	InChI=1S/C6H10O3/c7-2-1-5-3-6(5,9)4-8/h4-5,7,9H,1-3H2/t5-,6-/m0/s1
