17
gdb 16647	2.92785	2.25035	1.59033	2.1951	67.62	-0.2385	-0.0232	0.2153	848.8056	0.143106	-363.863656	-363.856404	-363.85546	-363.895244	27.542	
C	 0.4938950351	 1.5441111088	-0.0154255505	-0.405373
C	 0.0705195298	 0.0694416875	-0.0121592894	-0.105166
C	 0.5118910543	-0.7959305817	-1.2171305513	-0.190046
N	 1.3644391559	-1.9215579947	-0.7356008715	-0.093067
C	 2.5891543064	-1.4620336747	-0.1026700098	-0.241693
C	 1.4126928157	-1.8489818659	 0.7378736993	-0.141161
C	 0.5957397168	-0.6914782045	 1.2217882391	 0.407404
O	 0.3486003739	-0.4186645639	 2.3695029818	-0.331807
H	 1.5763843049	 1.6552781478	-0.1375027363	 0.120202
H	 0.0092440735	 2.0873814669	-0.8321947213	 0.121004
H	 0.2098352305	 2.0161723432	 0.9292747066	 0.143053
H	-1.0212177836	 0.0345033439	 0.0783380561	 0.115899
H	-0.3519756357	-1.2399871488	-1.718463457	 0.117352
H	 1.0690193534	-0.2240290821	-1.966008344	 0.112373
H	 3.4306818777	-2.146421647	-0.1563391951	 0.131999
H	 2.8548746563	-0.4089490765	-0.1676714325	 0.122631
H	 1.4196506649	-2.7682715883	 1.3130826758	 0.116397
69.5471	203.8575	215.2062	239.7752	361.2754	387.6878	459.488	596.8236	628.4465	692.2613	765.7455	783.7336	867.4903	901.9193	931.6216	939.3919	980.1434	1045.7029	1063.31	1101.3031	1116.7857	1139.3092	1162.4689	1194.9299	1238.6243	1261.8422	1272.5142	1321.9567	1330.4323	1364.7368	1406.831	1493.7207	1496.4522	1503.3409	1514.3887	1834.5006	3037.0479	3041.7626	3053.4534	3095.9362	3102.5223	3107.62	3119.4277	3177.2258	3193.4996
CC1CN2CC2C1=O	C[C@H]1CN2C[C@H]2C1=O	
InChI=1S/C6H9NO/c1-4-2-7-3-5(7)6(4)8/h4-5H,2-3H2,1H3	InChI=1S/C6H9NO/c1-4-2-7-3-5(7)6(4)8/h4-5H,2-3H2,1H3/t4-,5-,7?/m0/s1
