20
gdb 108623	2.39059	1.39388	1.02887	2.5971	81.99	-0.2257	0.0122	0.2379	1222.6664	0.171517	-403.131709	-403.122838	-403.121893	-403.165354	33.688	
C	 0.2040665419	 1.5183979391	 0.1132170464	-0.512124
C	 0.0502515947	 0.0349182099	-0.0103957551	 0.258468
C	-0.1894905902	-0.711734192	-1.102556172	 0.156189
C	-0.2854604309	-0.2599923265	-2.5272879689	-0.160271
O	 0.7443696228	-0.8287425505	-3.3384295129	-0.415977
C	-0.2753295115	-2.1956157592	-0.7732091172	-0.292382
C	 0.0430013161	-2.2491108103	 0.7132916966	-0.043133
N	 1.3970118197	-1.7567666611	 1.0500959562	-0.339352
C	 0.2149802725	-0.8516385023	 1.185393634	-0.136662
H	 1.1972887474	 1.7745220185	 0.5033210021	 0.13376
H	 0.0675976897	 2.0387888687	-0.8374774491	 0.126491
H	-0.5248469581	 1.9289738976	 0.8238624273	 0.126056
H	-1.2227383298	-0.6088242516	-2.9787140701	 0.107803
H	-0.2822922504	 0.8372785754	-2.5953237125	 0.08801
H	 1.5817377961	-0.6363748042	-2.9024090937	 0.283356
H	-1.2796653308	-2.5900451326	-0.9819335065	 0.100299
H	 0.4284198276	-2.7824681913	-1.3728855065	 0.125469
H	-0.3992704278	-3.0168707311	 1.3388032799	 0.08609
H	 1.6370735203	-2.1101565893	 1.9756579132	 0.225053
H	-0.0700881692	-0.5146886872	 2.177369799	 0.082858
74.9237	110.9068	170.6416	189.5394	267.1777	278.0244	340.9983	386.5688	403.5702	477.2591	588.6802	622.3303	675.8356	773.3289	811.288	848.6733	871.2839	914.872	947.7021	971.984	1002.0499	1029.758	1047.4503	1079.5951	1100.8548	1132.0951	1161.9351	1176.0819	1188.5088	1215.3543	1245.8892	1266.2415	1337.3527	1360.124	1375.6267	1410.1596	1415.992	1424.5923	1472.0207	1480.0536	1486.31	1507.9151	1717.3413	2998.7782	3013.7292	3018.2349	3046.1337	3062.0121	3073.5014	3118.1148	3155.0935	3169.9916	3468.4477	3804.5267
CC1=C(CO)CC2NC12	CC1=C(CO)C[C@H]2N[C@@H]12	
InChI=1S/C7H11NO/c1-4-5(3-9)2-6-7(4)8-6/h6-9H,2-3H2,1H3	InChI=1S/C7H11NO/c1-4-5(3-9)2-6-7(4)8-6/h6-9H,2-3H2,1H3/t6-,7+/m1/s1
