19
gdb 38204	3.25379	1.77862	1.44165	1.8972	79.27	-0.2332	0.006	0.2392	946.0005	0.162579	-385.866025	-385.859578	-385.858634	-385.89642	27.895	
C	 0.0435837621	 1.7042215059	-0.0528230629	-0.271356
C	 1.5179025635	 1.276703247	-0.0621171022	 0.065325
C	 1.7233034583	 0.796601878	 1.4119009435	-0.295758
C	 0.5375030358	-0.2035392589	 1.425977859	 0.036849
C	-0.7030166652	-0.2931163573	 2.3281109879	-0.332092
C	-1.7400961294	-0.7745515488	 1.3083551153	-0.052688
C	-1.3612673413	-0.5781716847	 0.0362866945	-0.251276
C	-0.0698329438	 0.160557677	 0.059864323	 0.466976
O	 1.1105405491	 0.0672388469	-0.8030867485	-0.357408
H	-0.3345425093	 2.33143451	 0.7590907184	 0.092776
H	-0.2955553295	 2.0560677221	-1.0275868146	 0.107168
H	 2.310834111	 1.8382553544	-0.5551875174	 0.078402
H	 2.687429268	 0.3107381426	 1.5739175448	 0.103796
H	 1.6343228554	 1.6321106899	 2.1125721367	 0.101307
H	 0.9295922621	-1.2190195015	 1.3151153146	 0.090324
H	-0.5954424376	-0.9745086748	 3.177896802	 0.105776
H	-0.99958627	 0.6829012461	 2.7383214284	 0.108538
H	-2.6999329986	-1.1818826964	 1.6091045312	 0.098857
H	-1.9512384208	-0.7899668975	-0.8464255539	 0.104485
188.2549	249.5682	372.5485	406.0337	472.765	530.8481	552.9577	618.9223	655.9868	731.4619	799.3599	812.0815	834.3809	845.7302	896.5961	911.7737	932.8647	949.6139	966.016	999.181	1023.7583	1032.7455	1077.573	1100.5252	1110.4285	1138.8292	1177.52	1191.479	1203.7214	1231.5116	1253.8917	1271.3694	1281.628	1305.1252	1324.9535	1374.3793	1393.3781	1478.3974	1484.8102	1499.7328	1631.6563	3009.6569	3055.3892	3059.1993	3065.3464	3074.2509	3115.1735	3127.5753	3141.7054	3182.9355	3218.4027
C1C2CC3CC=CC13O2	C1[C@H]2C[C@H]3CC=C[C@@]13O2	
InChI=1S/C8H10O/c1-2-6-4-7-5-8(6,3-1)9-7/h1,3,6-7H,2,4-5H2	InChI=1S/C8H10O/c1-2-6-4-7-5-8(6,3-1)9-7/h1,3,6-7H,2,4-5H2/t6-,7-,8-/m1/s1
