16
gdb 22569	2.6914	1.30908	1.04618	3.4449	64.71	-0.2512	-0.0297	0.2215	1136.4695	0.121284	-512.078779	-512.069097	-512.068153	-512.113889	34.562	
O	-0.1412005755	 1.3196117898	 0.5670494158	-0.396238
N	 0.0076334669	-0.0793401564	 0.5242447797	-0.232469
C	-1.0678241201	-0.632304641	 0.147958669	 0.362289
C	-2.4531578272	-0.1641003985	-0.2809646643	-0.041709
O	-2.4799563122	 0.4104245157	-1.5718119745	-0.424984
C	-2.8585896412	-1.6840746753	-0.3439649982	 0.155507
O	-3.4957059827	-2.142925452	-1.4845252701	-0.422636
C	-1.3521450983	-2.0960075776	-0.1442698453	-0.045065
O	-0.8296466986	-2.5205291782	-1.3923577212	-0.425569
H	 0.7193759466	 1.6125444252	 0.8870719827	 0.312074
H	-2.9952649146	 0.4465636674	 0.4523687254	 0.084503
H	-1.9437808728	 1.2104996281	-1.5383504672	 0.298903
H	-3.4683214579	-1.9626146322	 0.5189672914	 0.100286
H	-2.8965344032	-1.96884867	-2.2213835803	 0.29758
H	-1.1318786115	-2.8167154215	 0.6526971974	 0.081503
H	 0.1104180325	-2.3121969033	-1.4050303205	 0.296026
32.0863	125.5249	135.4771	158.4767	239.6386	245.1889	263.1597	334.5252	376.6745	380.3315	433.3496	496.4439	557.2882	626.4666	639.8946	771.2546	797.8667	873.6622	954.1621	992.6073	1047.2809	1117.2091	1132.5325	1165.7543	1187.0273	1192.9036	1271.3243	1291.5846	1300.8243	1345.0195	1361.9976	1396.5624	1402.1874	1450.4101	1770.1045	3018.7672	3027.8909	3089.6499	3791.778	3810.3608	3812.6562	3819.5083
ON=C1C(O)C(O)C1O	ON=C1[C@@H](O)[C@@H](O)[C@H]1O	
InChI=1S/C4H7NO4/c6-2-1(5-9)3(7)4(2)8/h2-4,6-9H	InChI=1S/C4H7NO4/c6-2-1(5-9)3(7)4(2)8/h2-4,6-9H/t2-,3+,4-
