20
gdb 56504	2.51264	1.23293	1.04084	3.4554	84.85	-0.2765	0.0216	0.2981	1240.027	0.167516	-366.005604	-365.995039	-365.994094	-366.040464	39.125	
C	 0.0804315237	 1.5747640685	 0.0018401102	-0.412699
C	-0.0098195274	 0.0368441244	 0.0324948963	-0.137095
C	 0.7522738397	-0.4856373554	 1.1721176785	 0.276287
N	 1.3511420963	-0.8844961902	 2.0771749682	-0.339008
C	-1.478914119	-0.535270888	 0.0404407431	 0.043332
C	-1.4265876323	-2.0802446401	-0.0035891685	-0.420405
C	-2.2548377263	-0.0776802962	 1.2956131898	-0.418291
C	-2.1571545248	-0.0520630028	-1.1665445488	 0.330395
C	-2.7181821928	 0.3275504007	-2.1599988358	-0.471186
H	 1.1208835203	 1.8890729566	-0.109766024	 0.136499
H	-0.4957540197	 1.9578355008	-0.8427912962	 0.143181
H	-0.3063251686	 2.0156220026	 0.9233417214	 0.139093
H	 0.4684967475	-0.3519022285	-0.874553515	 0.13292
H	-0.9318035256	-2.4709728272	 0.8898345117	 0.14365
H	-2.4390263264	-2.4890059174	-0.0480717519	 0.128914
H	-0.8818317286	-2.4294582199	-0.8854603008	 0.125442
H	-2.3748281193	 1.0075390147	 1.3230281013	 0.128856
H	-3.2525235334	-0.5236346343	 1.2974940111	 0.129962
H	-1.7312533948	-0.3972624872	 2.2016121604	 0.140404
H	-3.2208543687	 0.6606498189	-3.0344683208	 0.19975
65.3966	131.5363	172.1623	182.4821	208.0003	227.9825	249.4804	273.096	278.5748	348.9268	374.2533	402.0986	496.576	546.093	572.7954	588.5474	631.4348	650.3478	714.9599	828.2158	893.021	947.598	949.9176	1015.9509	1044.0619	1079.3829	1109.2412	1177.4165	1211.7075	1237.2366	1322.3944	1336.3855	1398.9565	1408.4288	1422.3782	1482.7119	1486.1283	1496.2785	1498.8596	1501.6063	1513.2988	2230.5439	2351.3864	3040.9232	3044.4968	3049.8148	3058.1819	3120.529	3123.3624	3128.2835	3129.4874	3134.3769	3144.0269	3499.7003
CC(C#N)C(C)(C)C#C	C[C@@H](C#N)C(C)(C)C#C	
InChI=1S/C8H11N/c1-5-8(3,4)7(2)6-9/h1,7H,2-4H3	InChI=1S/C8H11N/c1-5-8(3,4)7(2)6-9/h1,7H,2-4H3/t7-/m0/s1
