23
gdb 103773	3.09043	1.11047	0.97072	1.6683	86.33	-0.2508	0.0788	0.3296	1359.2628	0.203781	-388.279274	-388.269311	-388.268367	-388.314177	37.471	
C	 0.132314642	 1.349094624	-0.3593646596	-0.380491
C	-0.0459846821	 0.033723296	 0.4108379279	-0.241999
C	-1.454535493	-0.5284686459	 0.3182303527	 0.276239
C	-2.5436070913	 0.2676795722	 1.0057490353	-0.462647
O	-1.8085343617	-1.0188751841	-0.9972008438	-0.330785
C	-1.660159754	-1.9634610226	 0.0499590463	 0.408664
C	-0.6492453406	-3.1174827886	 0.0419947115	-0.310758
C	-1.6767583293	-3.950843609	 0.8645601314	-0.216621
C	-2.7760071286	-2.8961243616	 0.5392374199	-0.310692
H	 1.1760384	 1.6758340368	-0.3309642305	 0.111329
H	-0.1552051819	 1.2165525692	-1.4065514423	 0.134465
H	-0.4764914814	 2.1564854491	 0.0593143604	 0.115445
H	 0.6552321301	-0.7071522765	 0.0151498755	 0.103866
H	 0.2095909664	 0.1790320381	 1.4686801363	 0.093162
H	-2.5983901907	 1.2839345518	 0.6031517218	 0.127599
H	-3.5191450386	-0.2010352223	 0.8626306683	 0.127549
H	-2.3466345226	 0.3441285687	 2.0810784801	 0.115695
H	-0.5036688106	-3.5073608103	-0.9698483876	 0.113557
H	 0.3305693269	-2.9401963143	 0.4922169209	 0.102853
H	-1.8629811061	-4.9697621834	 0.521446683	 0.103824
H	-1.4308091895	-3.981021278	 1.9284866486	 0.105071
H	-3.4015810211	-2.5490409811	 1.3652718458	 0.10147
H	-3.4245732722	-3.2037399881	-0.2863963119	 0.113205
59.8728	91.3301	144.7121	169.1878	183.4574	222.9878	269.2953	301.2479	361.7358	443.2145	461.2667	498.1278	588.6364	683.5867	719.9602	779.7944	785.1768	840.2495	898.2842	899.8322	931.2873	961.9881	1001.2772	1005.3887	1030.0251	1046.2669	1116.3206	1118.9891	1145.0648	1159.9853	1200.925	1234.9914	1239.0644	1243.312	1269.2897	1277.1688	1310.1605	1365.3276	1406.4871	1410.5051	1464.1554	1466.2484	1474.1153	1478.9913	1491.0549	1499.0429	1505.4282	1508.5218	1519.4795	3025.4179	3037.8771	3041.5041	3054.4108	3058.1504	3072.7128	3078.4348	3099.9787	3102.2305	3107.434	3109.5014	3117.6241	3129.8145	3131.5606
CCC1(C)OC11CCC1	CC[C@@]1(C)OC21CCC2	
InChI=1S/C8H14O/c1-3-7(2)8(9-7)5-4-6-8/h3-6H2,1-2H3	InChI=1S/C8H14O/c1-3-7(2)8(9-7)5-4-6-8/h3-6H2,1-2H3/t7-/m1/s1
