16
gdb 9935	3.23321	1.54099	1.41362	1.5453	68.57	-0.233	0.0185	0.2514	956.7258	0.12717	-383.681767	-383.672873	-383.671929	-383.714674	32.895	
C	-0.0354583436	 1.5627715865	 0.03876596	-0.401607
C	 0.0368805143	 0.0537757107	-0.0089675704	-0.110613
C	 1.3313561304	-0.6735909572	-0.2982458633	 0.060703
O	 2.523611966	 0.0269572688	-0.4214521135	-0.428555
C	 0.7180744459	-0.7364649628	 1.1033776219	 0.136539
O	 1.405324752	 0.0630841393	 2.0484246099	-0.470999
C	 0.1413988875	-1.9419710469	 1.6167538868	 0.281458
C	-0.3121626197	-2.9670054428	 2.0558117866	-0.438614
H	 0.9206355919	 2.00311814	 0.3243208569	 0.127432
H	-0.3005590526	 1.9529167057	-0.9489906349	 0.123249
H	-0.7923127913	 1.9002360692	 0.7530569431	 0.124819
H	-0.8530730965	-0.4378930035	-0.3915445535	 0.101555
H	 1.3067897242	-1.5638280671	-0.918459873	 0.110706
H	 2.710675604	 0.3925611407	 0.4558068113	 0.288718
H	 1.8990671786	-0.5358646525	 2.6205575991	 0.2966
H	-0.7257746012	-3.866164028	 2.440813113	 0.198607
118.7169	130.3993	150.8774	189.3268	231.3947	272.6988	304.325	408.4013	458.1736	508.8412	544.9418	566.5277	587.7997	634.3827	683.4663	705.2296	800.1071	855.3543	986.7319	1011.3225	1063.8921	1086.7038	1134.5767	1149.8655	1214.1166	1246.3614	1315.2046	1338.0134	1400.4304	1419.3657	1456.3552	1489.057	1500.8719	2226.9902	3046.4802	3105.7169	3138.7536	3153.389	3165.6549	3501.1013	3719.7383	3799.5409
CC1C(O)C1(O)C#C	C[C@H]1[C@@H](O)[C@]1(O)C#C	
InChI=1S/C6H8O2/c1-3-6(8)4(2)5(6)7/h1,4-5,7-8H,2H3	InChI=1S/C6H8O2/c1-3-6(8)4(2)5(6)7/h1,4-5,7-8H,2H3/t4-,5+,6-/m0/s1
