20
gdb 33404	1.99647	1.50542	0.91501	1.1674	85.46	-0.2372	0.0467	0.2839	1302.436	0.169328	-365.923841	-365.914624	-365.91368	-365.958104	34.812	
C	-0.4008653163	-1.1633740659	-0.0383684946	-0.446476
C	-0.1919361858	 0.0194611445	-0.0109871922	 0.372655
C	 0.0703583771	 1.4614888122	 0.0329852123	-0.214806
C	 1.5626774473	 1.7505994997	-0.0078592953	 0.045843
C	 2.1206081034	 2.9805506141	 0.6619864164	-0.279542
C	 2.391823761	 1.6133213887	 1.2395387882	-0.267714
N	-0.5923721565	 2.1137780389	-1.1054464962	-0.056631
C	-2.0294052694	 2.3283374233	-0.979257494	-0.216097
C	-1.0797229542	 3.4706589612	-0.8767292326	-0.221736
H	-0.586291015	-2.2086349242	-0.0632897814	 0.194071
H	-0.3263485117	 1.8465370064	 0.9934755456	 0.076077
H	 2.0237407292	 1.4481439025	-0.942208992	 0.10094
H	 2.9298125932	 3.5073513282	 0.1689521653	 0.114524
H	 1.4357129039	 3.6271112669	 1.2007491662	 0.108743
H	 1.8833525473	 1.3428029013	 2.1593455355	 0.114467
H	 3.3883890365	 1.197010433	 1.1475340585	 0.115295
H	-2.6097911457	 2.1659050935	-1.8825013037	 0.118871
H	-2.5153224449	 2.0014383132	-0.0615726758	 0.114731
H	-0.936556739	 3.908383299	 0.1096606715	 0.108785
H	-0.9487947902	 4.1631499433	-1.7029450717	 0.118001
78.2057	88.1644	136.0797	158.9018	183.0991	322.9788	334.2896	363.1234	444.423	510.6102	528.7981	625.2039	649.9275	760.2463	781.8044	828.2198	866.2849	871.7214	910.7465	924.8333	961.2024	1001.007	1032.4601	1058.905	1070.1216	1081.6204	1113.2872	1119.2583	1136.8085	1158.6369	1174.4777	1195.0604	1203.8457	1224.2221	1295.7958	1311.9285	1334.0768	1410.4111	1470.9599	1493.0371	1506.606	1520.7541	2239.1628	2893.0751	3098.2464	3102.5465	3132.3304	3136.6106	3167.4637	3180.9542	3194.979	3210.0245	3224.9287	3504.0256
C#CC(C1CC1)N1CC1	C#C[C@@H](C1CC1)N1CC1	
InChI=1S/C8H11N/c1-2-8(7-3-4-7)9-5-6-9/h1,7-8H,3-6H2	InChI=1S/C8H11N/c1-2-8(7-3-4-7)9-5-6-9/h1,7-8H,3-6H2/t8-/m0/s1
