16
gdb 123458	5.08333	0.92758	0.82032	4.5002	70.32	-0.2563	-0.0099	0.2464	1340.9254	0.124862	-437.852098	-437.844425	-437.843481	-437.885595	27.792	
C	-0.0120247035	 1.4312036737	 0.4951985326	-0.367731
C	-0.099987799	-0.0518647541	 0.1960156975	 0.102963
C	-1.3037371978	-0.6583657099	-0.382887326	-0.181807
O	-0.1492121822	-0.4058858183	-1.1884957116	-0.231494
C	 1.3484349595	 1.9901832828	 0.2017347409	 0.150755
C	 2.2050995223	 2.6621043261	 1.0151425553	-0.018019
O	 3.3290488791	 2.9932098359	 0.3628046319	-0.164191
N	 3.240694621	 2.5278685975	-0.9468702255	-0.130324
C	 2.0740143236	 1.9413438377	-1.0277964228	-0.034636
H	-0.7713762698	 1.9479868145	-0.1039156982	 0.12183
H	-0.2647588547	 1.6017388555	 1.5480936439	 0.113591
H	 0.5618942506	-0.6853183489	 0.7883743922	 0.102187
H	-1.5247986675	-1.7086389572	-0.2004612699	 0.120551
H	-2.1688638017	-0.0321482897	-0.5975246979	 0.116893
H	 2.1523282635	 2.9710716757	 2.048113704	 0.148317
H	 1.7695826167	 1.484995979	-1.9588918964	 0.151116
52.3224	73.4808	122.2293	283.365	310.0169	359.2913	456.4764	617.0964	658.2688	729.6264	793.2162	841.1349	865.245	894.5395	925.5205	935.7628	938.3203	955.477	1026.04	1095.342	1101.425	1151.7396	1158.6161	1168.6551	1199.2698	1238.2208	1280.808	1293.994	1332.9871	1397.0088	1442.1225	1466.8772	1482.5203	1528.1221	1654.1779	3030.93	3071.9368	3085.1063	3105.8797	3172.8423	3252.2084	3259.8265
C(C1CO1)C1=CON=C1	C([C@H]1CO1)c1conc1	
InChI=1S/C6H7NO2/c1(6-4-8-6)5-2-7-9-3-5/h2-3,6H,1,4H2	InChI=1S/C6H7NO2/c1(6-4-8-6)5-2-7-9-3-5/h2-3,6H,1,4H2/t6-/m0/s1
