16
gdb 93324	2.08445	1.00175	0.74348	1.8867	75.42	-0.2689	-0.0577	0.2112	1479.853	0.120444	-434.100822	-434.089193	-434.088249	-434.139852	37.319	
N	-1.5391462879	-0.2826293097	-0.1322448428	-0.722609
H	-2.017497637	-1.1377868723	 0.1372653266	 0.249336
H	-0.6017671648	-0.5435316248	-0.4294809092	 0.265397
H	-2.0187458775	 0.0628848711	-0.9587454475	 0.243168
C	 0.5273437109	 1.4116171519	 3.0678968131	 0.002638
C	-0.7193359053	 1.7852094555	 2.3154837564	-0.242708
N	-1.8835685838	 1.2171308317	 2.9693685195	-0.381109
C	-2.6075988922	 0.2895705272	 2.6950617856	 0.563045
O	-3.3905116465	-0.5738401547	 2.571279146	-0.312148
C	 1.6115048437	 0.8286505596	 2.5432865945	-0.187757
C	 1.7224918216	 0.4417080918	 1.1754865503	 0.28535
N	 1.8265945333	 0.1013979629	 0.0726746598	-0.348995
H	 0.5271997979	 1.639225987	 4.1306248348	 0.129421
H	-0.8230154116	 2.8776485004	 2.3324877713	 0.134755
H	-0.6801862726	 1.4483052945	 1.2760991066	 0.177945
H	 2.4747968919	 0.6069656179	 3.1628459548	 0.144272
31.8408	49.0364	71.3254	88.8043	116.9531	127.7853	161.1769	220.9821	236.0909	253.3121	308.3694	377.1102	396.6867	569.854	611.7741	649.5171	687.0924	771.3649	902.8252	933.3739	970.3899	1017.199	1088.927	1104.6159	1236.676	1280.3057	1362.9155	1418.5919	1473.9115	1494.8895	1675.3577	1681.3081	1690.6912	2334.4627	2356.5087	3023.2026	3097.9671	3170.1865	3188.7928	3464.2963	3582.991	3589.5015
[NH3+]C1C[N-]C(=O)C1C#N	N.C(=CC#N)CN=C=O	
InChI=1S/C5H7N3O/c6-1-3-4(7)2-8-5(3)9/h3-4H,2,7H2,(H,8,9)	InChI=1S/C5H4N2O.H3N/c6-3-1-2-4-7-5-8;/h1-2H,4H2;1H3
