20
gdb 112121	2.80703	1.27662	1.0278	1.3221	75.85	-0.2476	0.0143	0.2619	1228.4373	0.171413	-440.299448	-440.290293	-440.289349	-440.333625	33.782	
C	 0.0203833049	 1.544928162	 0.0164768098	-0.386804
C	 0.022066518	 0.0154273897	 0.0335123956	-0.166511
C	-1.3867590526	-0.5845065979	-0.0577257307	 0.019413
N	-2.0172040904	-0.1858384579	-1.3259542819	-0.276556
C	-2.8614744876	-0.9653155717	-1.854234973	 0.109541
O	-3.3167035809	-2.1655476565	-1.4230039342	-0.230234
C	-2.8234112421	-2.6107791455	-0.1457837531	-0.088627
C	-1.4007807192	-2.1147070502	 0.1020313506	 0.076085
O	-0.4761766766	-2.7669805927	-0.7569423059	-0.437622
H	 1.0410825071	 1.9384822464	 0.0406990757	 0.107811
H	-0.4730719725	 1.9168001093	-0.8847620095	 0.139058
H	-0.5135610797	 1.9511635414	 0.8834637969	 0.105525
H	 0.6214931572	-0.3724945576	-0.7964119071	 0.100394
H	 0.4940197608	-0.3537142246	 0.9528593773	 0.090497
H	-1.9875577288	-0.1575237339	 0.7594195673	 0.08459
H	-3.3309156197	-0.7183206931	-2.8054835012	 0.128197
H	-3.5045795552	-2.2545183563	 0.6367740955	 0.111443
H	-2.8538008933	-3.7016972445	-0.1780241671	 0.127243
H	-1.1031422937	-2.3940453346	 1.1183917518	 0.093711
H	-0.6233634058	-2.4454328418	-1.653705077	 0.292844
63.787	98.2233	166.1081	179.4204	212.4809	264.212	312.0001	349.0721	389.3171	420.9536	528.2494	624.3055	706.3749	761.3639	828.9711	857.3607	892.0751	933.3111	943.7934	971.129	1004.1636	1031.5057	1072.3851	1090.6855	1145.7287	1159.9945	1195.1849	1240.4901	1267.378	1280.8179	1312.1445	1332.6089	1355.0037	1381.8114	1397.0474	1408.1097	1412.842	1425.1114	1479.8257	1494.7322	1496.4443	1511.0243	1722.759	2987.727	3031.2724	3033.3092	3034.2705	3061.0371	3076.9244	3100.1491	3114.9749	3127.2709	3151.9966	3802.4395
CCC1N=COCC1O	CC[C@H]1N=COC[C@H]1O	
InChI=1S/C6H11NO2/c1-2-5-6(8)3-9-4-7-5/h4-6,8H,2-3H2,1H3	InChI=1S/C6H11NO2/c1-2-5-6(8)3-9-4-7-5/h4-6,8H,2-3H2,1H3/t5-,6-/m1/s1
