21
gdb 87858	3.1368	1.29946	1.18762	1.2753	81.65	-0.2293	0.0763	0.3056	1148.4553	0.184395	-383.231409	-383.22327	-383.222326	-383.263884	32.442	
C	-0.2971303545	 1.4843151764	 0.4840457193	-0.399184
C	-0.1451933715	-0.0135397069	 0.3838718524	-0.051141
N	 1.0462352349	-0.5153469669	-0.3286759387	-0.398948
C	 0.8958557851	-0.8046104623	 1.1007987309	 0.322526
C	 1.9013794555	-0.2253825156	 2.0961644176	-0.295472
C	 1.6597652788	-1.0436912592	 3.3532002697	-0.011142
C	 0.253228052	-1.2168167946	 3.7999003283	-0.248142
N	 0.9135557849	-2.2836109298	 3.0317149795	-0.098322
C	 0.6152869615	-2.231334661	 1.592371945	-0.244808
H	 0.6752209071	 1.9707131685	 0.5920786679	 0.129945
H	-0.7677246461	 1.8828861364	-0.4211310782	 0.12156
H	-0.9246210943	 1.7622692894	 1.3385980015	 0.114208
H	-1.0797935681	-0.5459477007	 0.2028306241	 0.078277
H	 0.8177958657	-1.339502644	-0.8809193839	 0.227404
H	 2.9215112585	-0.3832455597	 1.7283462615	 0.113867
H	 1.7750856881	 0.8483607502	 2.2583975228	 0.10913
H	 2.4686063457	-1.1450143437	 4.0709267043	 0.090051
H	 0.0388269856	-1.4745305863	 4.8328638151	 0.114263
H	-0.5166313001	-0.6219427128	 3.3126610299	 0.113577
H	-0.4125248406	-2.5565346493	 1.3972483138	 0.105217
H	 1.2909407917	-2.9378007783	 1.0916906072	 0.107134
90.8293	159.7275	198.461	234.1989	315.0403	366.3595	397.6625	444.6174	471.1053	535.2265	657.7818	747.3361	761.4968	806.9529	836.6665	876.3602	907.8404	934.4063	962.4518	991.4349	1022.6937	1030.7718	1059.8362	1069.6481	1093.8536	1110.9615	1124.472	1130.6736	1170.1276	1192.6698	1228.6141	1234.7286	1270.4055	1285.4731	1302.4548	1328.3708	1352.8468	1398.3748	1409.3803	1462.2012	1485.3608	1490.0745	1496.7689	1499.6098	1507.5418	3013.6236	3032.4483	3046.3687	3066.6513	3091.8325	3092.89	3093.6857	3103.4117	3125.8225	3149.2278	3189.7603	3480.5435
CC1NC11CC2CN2C1	C[C@H]1N[C@]21C[C@H]1CN1C2	
InChI=1S/C7H12N2/c1-5-7(8-5)2-6-3-9(6)4-7/h5-6,8H,2-4H2,1H3	InChI=1S/C7H12N2/c1-5-7(8-5)2-6-3-9(6)4-7/h5-6,8H,2-4H2,1H3/t5-,6+,7-,9?/m1/s1
