19
gdb 31620	2.49947	1.34723	0.88651	1.3076	81.15	-0.1598	0.0671	0.2269	1311.5065	0.15905	-419.222042	-419.212122	-419.211178	-419.257147	35.492	
C	-0.7786063279	 0.4519819005	 0.4324620538	-0.243103
O	 0.1978562007	 0.8390723174	-0.5167896795	-0.267165
C	 0.5549468486	-0.1262520296	-1.3955113047	 0.435128
C	 0.1895987195	-1.4490801195	-1.5279695752	-0.395828
C	 0.9243311366	-1.9555762325	-2.6476442067	 0.25031
N	 0.7757044415	-3.2526818459	-3.1814763964	-0.605059
C	 1.6981631757	-0.933413475	-3.1380956716	-0.195406
N	 1.4522588326	 0.2040637153	-2.3669412242	-0.081813
C	 2.1301466348	 1.4728455553	-2.4986320623	-0.34358
H	-1.7083550139	 0.1412422425	-0.0608423728	 0.126701
H	-0.4156293824	-0.3739735581	 1.0575524867	 0.124458
H	-0.9691918718	 1.3260194392	 1.0570689394	 0.131663
H	-0.5300472114	-1.9870002322	-0.9330400663	 0.087485
H	 0.703753585	-3.9534258178	-2.4533359959	 0.235313
H	 1.5478953068	-3.5030086056	-3.7869219989	 0.233469
H	 2.3826405051	-0.8930850837	-3.9694526968	 0.095715
H	 2.178045836	 1.7621873933	-3.5528391769	 0.131398
H	 1.5729996794	 2.2331711045	-1.9507535111	 0.152638
H	 3.152441395	 1.4345004519	-2.1012511706	 0.127676
66.7253	77.91	138.4938	179.4403	187.4027	200.7372	248.4039	276.2481	344.0384	382.5497	541.1485	572.3562	596.9747	633.142	638.8771	662.7042	701.8691	795.1549	840.8917	1005.5978	1062.5783	1085.2454	1110.6985	1152.3096	1182.9725	1184.5364	1209.113	1233.5311	1262.9268	1363.2296	1434.3358	1455.0125	1463.0733	1481.0924	1491.5935	1506.0886	1512.5767	1552.5253	1581.0471	1632.0002	1658.8347	3006.7451	3018.8308	3065.0753	3082.4578	3136.6595	3150.0423	3259.6575	3261.7012	3520.0601	3607.733
COC1=CC(N)=CN1C	COc1cc(N)cn1C	
InChI=1S/C6H10N2O/c1-8-4-5(7)3-6(8)9-2/h3-4H,7H2,1-2H3	InChI=1S/C6H10N2O/c1-8-4-5(7)3-6(8)9-2/h3-4H,7H2,1-2H3
