13
gdb 132056	2.38909	1.86712	1.05485	1.3153	63.66	-0.2598	-0.0666	0.1932	1020.3302	0.088555	-497.918807	-497.911252	-497.910308	-497.951282	27.151	
C	-0.0268876952	 1.5447601313	 0.0059136225	-0.488972
C	-0.003433407	 0.0455112225	-0.0232329891	-0.078696
C	-0.1586083428	-0.7123145874	-1.1389492205	 0.294082
F	-0.3476077646	-0.137715868	-2.3144845	-0.046433
N	-0.1419713611	-2.0725643375	-1.1957989605	-0.320009
C	 0.0396077191	-2.6632781435	-0.0711630894	 0.143343
O	 0.2080484634	-2.0800165622	 1.1105796555	-0.194384
C	 0.1991373324	-0.6553479154	 1.2263032531	 0.40485
O	 0.3562436234	-0.1929945769	 2.3185592142	-0.322313
H	 0.9145387124	 1.9359383312	 0.4047274748	 0.151991
H	-0.1859292375	 1.9510868982	-0.9931819018	 0.140991
H	-0.8214196442	 1.9036840985	 0.6679234965	 0.15199
H	 0.0698428316	-3.7464257208	-0.0044437953	 0.16356
101.3143	117.8724	181.6951	267.9994	273.7493	378.6556	497.5872	504.1544	515.7694	581.8263	679.7666	721.1063	782.0181	859.3827	890.6746	967.0962	1006.437	1063.134	1130.3982	1211.4541	1297.674	1366.1588	1413.6637	1433.8974	1479.6838	1482.8665	1625.0243	1681.3024	1864.2731	3046.1562	3098.7224	3151.9609	3197.7885
CC1=C(F)N=COC1=O	Cc1c(F)ncoc1=O	
InChI=1S/C5H4FNO2/c1-3-4(6)7-2-9-5(3)8/h2H,1H3	InChI=1S/C5H4FNO2/c1-3-4(6)7-2-9-5(3)8/h2H,1H3
