17
gdb 126665	6.65451	0.72487	0.66174	4.3859	73.34	-0.242	-0.022	0.22	1660.9713	0.134122	-455.122157	-455.113084	-455.11214	-455.157207	31.516	
C	 0.0230221281	 1.5186261935	 0.008840533	-0.3873
C	-0.0475141556	-0.0110238447	 0.0028528946	-0.191632
C	-1.4830683234	-0.5054735599	 0.0132322449	-0.065314
O	-1.4453777158	-1.9524869294	 0.0064526743	-0.264025
C	-2.5996855557	-2.5920054673	 0.014405654	 0.50306
C	-2.820033636	-3.9516642272	 0.0108600855	-0.247827
N	-4.171206982	-4.1116201285	 0.0225278207	-0.0717
N	-4.800538015	-3.0401358744	 0.0326778185	-0.034766
O	-3.7386428198	-1.9399170618	 0.0274896292	-0.250708
H	 1.0621161419	 1.8578098192	 0.0013276873	 0.126983
H	-0.472898111	 1.9454808466	-0.8694262804	 0.124691
H	-0.4576139847	 1.9378573821	 0.8991952739	 0.124691
H	 0.4574174506	-0.4125987286	-0.8827325763	 0.117207
H	 0.472771402	-0.4201937638	 0.8759860104	 0.117202
H	-2.0219329785	-0.1696470709	 0.9058787359	 0.130448
H	-2.0374386935	-0.1617603908	-0.866835641	 0.130434
H	-2.1239735716	-4.7701549641	 0.0011680156	 0.138556
50.8949	67.5236	103.0104	143.0454	234.1361	240.2309	306.6929	334.8109	368.5808	551.456	668.0211	741.9332	750.7729	755.4114	765.7404	895.6099	915.717	950.6195	996.5888	1051.9239	1069.5751	1144.6337	1147.1964	1185.6624	1268.5857	1318.3471	1323.5377	1335.276	1409.016	1411.7872	1421.8366	1489.6428	1493.4497	1502.1233	1505.0364	1518.7386	1618.4039	3036.5708	3038.0198	3047.027	3070.779	3091.705	3109.51	3117.2868	3306.3478
CCCOC1=CN=NO1	CCCOc1cnno1	
InChI=1S/C5H8N2O2/c1-2-3-8-5-4-6-7-9-5/h4H,2-3H2,1H3	InChI=1S/C5H8N2O2/c1-2-3-8-5-4-6-7-9-5/h4H,2-3H2,1H3
