21
gdb 75201	2.47887	1.60089	1.18087	1.1327	84.46	-0.217	0.0291	0.2461	1133.1894	0.181207	-387.099199	-387.089957	-387.089013	-387.132232	36.195	
C	-0.0015969547	 1.4899651371	 0.0469525689	-0.499674
C	-0.0203619625	-0.0055544894	-0.0130506799	 0.280118
C	 0.0119389521	-0.7702403322	-1.1107017872	-0.183006
C	-0.029672304	-2.2481786297	-0.7961551781	-0.33807
C	 0.0164396383	-2.2801883415	 0.7315858356	 0.359941
O	-0.7215401448	-3.2648072767	 1.3940987513	-0.471739
C	 1.2200585651	-1.6881905798	 1.4205811325	-0.390346
C	-0.0471421836	-0.8513229135	 1.2320007177	 0.213071
C	-0.8612295842	-0.4370618547	 2.4338509409	-0.488315
H	 0.870500343	 1.8548881397	 0.6048375237	 0.125129
H	 0.0257042019	 1.9291539266	-0.9539584819	 0.12164
H	-0.8863250537	 1.8811231982	 0.5642763741	 0.127368
H	 0.0734333013	-0.3911245523	-2.1252777031	 0.083715
H	-0.9587074616	-2.7184023424	-1.1466690184	 0.111521
H	 0.7991077561	-2.8015374624	-1.2575837482	 0.098462
H	-0.1772464761	-4.0570165152	 1.4535497561	 0.281868
H	 1.4074720572	-2.0522458143	 2.4267642553	 0.104448
H	 2.1051556505	-1.4373358253	 0.8440639406	 0.105014
H	-0.4225566007	 0.429058547	 2.9418787453	 0.112411
H	-1.8854351841	-0.174646622	 2.1460244473	 0.118052
H	-0.9220913955	-1.259653287	 3.1510064676	 0.128393
133.5482	183.7025	194.9762	218.4666	245.6873	263.8618	274.6223	288.5378	395.8817	432.6341	480.5708	534.5717	589.8075	648.8437	685.7354	744.7918	811.1875	829.7301	911.5564	949.4417	958.2691	964.2957	997.4461	1031.6029	1044.2679	1064.366	1102.4472	1127.796	1152.3004	1174.4973	1237.8644	1260.8268	1290.57	1329.7517	1366.0407	1393.5812	1412.0922	1417.2166	1469.2192	1478.3962	1483.9957	1487.1988	1495.0523	1502.455	1705.2107	3010.0192	3017.5656	3028.6713	3039.2784	3064.0218	3085.7922	3110.1815	3111.9755	3117.4015	3186.2428	3205.3848	3799.2961
CC1=CCC2(O)CC12C	CC1=CC[C@@]2(O)C[C@@]12C	
InChI=1S/C8H12O/c1-6-3-4-8(9)5-7(6,8)2/h3,9H,4-5H2,1-2H3	InChI=1S/C8H12O/c1-6-3-4-8(9)5-7(6,8)2/h3,9H,4-5H2,1-2H3/t7-,8+/m0/s1
