19
gdb 97740	2.88382	0.84726	0.82143	1.9226	81.97	-0.2259	0.0406	0.2665	1538.23	0.156993	-422.979518	-422.969408	-422.968464	-423.016444	36.209	
C	-0.8151915412	 0.2270549	-0.0970854142	-0.364763
C	 0.6230312499	 0.6468203316	 0.2586543469	-0.317632
C	 1.2405842275	-0.2210624314	 1.2569956402	 0.124691
C	 1.7560181465	-0.9799349259	 2.0426884846	 0.027629
C	 2.3194664325	-1.8464694104	 3.0305213273	-0.319442
C	 1.5658842725	-1.9738085126	 4.3603703841	 0.036895
O	 0.3142571242	-1.3586216348	 4.4504792294	-0.428798
C	 1.606129858	-3.1534399565	 3.4358825072	 0.112934
O	 0.4270125899	-3.5331012025	 2.8262648867	-0.420585
H	-1.4615716975	 0.2638308634	 0.7843793429	 0.123076
H	-1.2306867047	 0.897518438	-0.8550518049	 0.116561
H	-0.8356135495	-0.7937999347	-0.4871021581	 0.136421
H	 1.24044439	 0.6402005276	-0.6488243036	 0.134448
H	 0.6254654995	 1.6849969513	 0.6153769828	 0.126996
H	 3.4036623224	-1.8630093447	 3.0969187647	 0.113443
H	 2.1336402804	-1.961174623	 5.2869727024	 0.104911
H	 0.3189887176	-0.5933980972	 3.8570425566	 0.293744
H	 2.2528684755	-3.9932581633	 3.6713076105	 0.108782
H	-0.2515211834	-2.9360146149	 3.1768700144	 0.290689
14.5823	63.7742	88.2553	166.6412	195.5498	257.7225	280.7131	300.7249	340.0919	397.3526	480.8553	520.7534	598.2823	605.5616	677.9035	732.0402	761.5606	785.5932	831.9323	940.3851	995.7839	1009.6949	1036.5807	1082.0445	1103.0605	1104.0124	1159.5226	1179.0719	1229.8336	1284.4766	1335.4358	1345.5537	1356.3265	1372.2886	1379.3148	1409.3113	1452.2253	1476.249	1494.5645	1505.4463	2347.1409	3018.0024	3044.1118	3045.7129	3116.8296	3125.4725	3135.6565	3144.1381	3159.594	3707.1623	3716.9008
CCC#CC1C(O)C1O	CCC#C[C@H]1[C@@H](O)[C@H]1O	
InChI=1S/C7H10O2/c1-2-3-4-5-6(8)7(5)9/h5-9H,2H2,1H3	InChI=1S/C7H10O2/c1-2-3-4-5-6(8)7(5)9/h5-9H,2H2,1H3/t5-,6+,7-
