17
gdb 38673	2.98503	1.89628	1.34697	1.5528	73.23	-0.2215	0.0043	0.2258	944.022	0.137135	-421.777117	-421.770276	-421.769332	-421.808177	27.736	
C	 0.0270493805	 1.453581806	 0.0659050408	-0.363578
C	 1.3348374725	 0.6950871441	-0.0135336089	 0.006523
O	 1.6741300464	 0.116039049	 1.2486954996	-0.304305
C	 0.4582285573	-0.7142608735	 1.2182303324	 0.004244
C	 0.775244706	-2.1501787279	 0.9606534458	-0.073684
C	 0.5040563402	-2.7008865326	-0.221840869	-0.075517
C	-0.1424404358	-1.9721778964	-1.3669400597	-0.132636
O	-0.7031329415	-0.7038057636	-1.0338908591	-0.287256
C	 0.0040817199	-0.034910726	-0.0654865986	 0.35578
H	-0.273333135	 1.9494353018	 0.9858124157	 0.113257
H	-0.2356323795	 1.9711427888	-0.852474678	 0.122954
H	 2.1299358699	 0.8910736644	-0.7222231213	 0.108241
H	-0.1385478085	-0.5602566271	 2.1252173678	 0.084871
H	 1.2583624798	-2.7166581742	 1.7511788182	 0.10235
H	 0.7684004956	-3.7357420727	-0.4270492491	 0.101771
H	 0.5971801979	-1.8477173523	-2.1764398361	 0.113241
H	-0.9676125557	-2.5638217177	-1.7796210804	 0.123743
138.6831	165.8064	304.8484	385.2362	422.9756	466.4435	491.2762	535.9665	633.7202	714.9081	778.1515	823.7278	869.9733	898.3766	904.4396	943.9154	972.5637	985.0599	1001.8316	1014.0921	1034.6516	1045.7937	1081.7812	1094.3538	1119.4116	1188.3512	1208.5159	1258.0651	1272.8861	1290.4737	1359.6048	1366.2043	1411.8053	1423.5834	1477.4405	1500.3058	1717.9909	2962.9023	3035.9679	3057.6093	3106.8677	3152.9641	3179.7834	3191.1	3204.7619
C1C2OC3C=CCOC123	C1[C@H]2O[C@@H]3C=CCO[C@]123	
InChI=1S/C7H8O2/c1-2-5-7(8-3-1)4-6(7)9-5/h1-2,5-6H,3-4H2	InChI=1S/C7H8O2/c1-2-5-7(8-3-1)4-6(7)9-5/h1-2,5-6H,3-4H2/t5-,6-,7+/m1/s1
