17
gdb 84141	2.49704	1.42836	1.06902	4.0122	74.35	-0.2314	0.0121	0.2434	1145.195	0.137966	-414.22451	-414.215897	-414.214952	-414.257874	32.254	
C	-0.2298095502	 1.5587510768	-0.060745519	-0.397416
C	 0.0705355441	 0.0644539532	-0.0698237617	 0.03728
N	 0.9579758308	-0.3261054813	-1.1651131708	-0.308015
C	 1.8174716955	-1.1417430683	-0.6881078259	 0.415649
N	 2.8614917734	-1.7026384074	-1.387535255	-0.581183
N	 1.6918796881	-1.4892486988	 0.6693740628	-0.348235
C	 0.766034028	-0.4983955107	 1.238526491	-0.148942
C	 1.4814389045	 0.5169580382	 2.0260158086	 0.275414
N	 2.0622901648	 1.290165073	 2.6597317071	-0.32897
H	 0.687262685	 2.1437380552	 0.0476589825	 0.140067
H	-0.7023347785	 1.8346433485	-1.0066480104	 0.129908
H	-0.9092436369	 1.8234537641	 0.7559641799	 0.115723
H	-0.8782388007	-0.4803391279	-0.1778066328	 0.091454
H	 2.7684028211	-1.5829778766	-2.386142947	 0.267832
H	 3.0961746061	-2.6490664251	-1.1244085587	 0.257676
H	 2.5630488869	-1.6104915397	 1.1713287688	 0.251844
H	 0.035151728	-0.9752012132	 1.8977393707	 0.129916
61.7651	149.3691	155.0981	238.3725	263.4106	311.658	373.9108	402.6307	459.8666	473.7758	577.9711	588.3846	666.879	698.725	733.403	756.2226	828.1687	909.0386	944.7859	1004.9023	1061.7332	1087.533	1120.2906	1133.3298	1175.7824	1249.8227	1304.944	1338.9141	1359.4992	1376.7638	1411.7208	1474.3927	1485.4423	1497.8257	1628.5097	1748.3183	2348.4707	2994.3224	3044.0955	3068.6543	3117.2484	3130.5296	3564.6596	3567.4315	3671.5202
CC1N=C(N)NC1C#N	C[C@H]1[N][C](N)N[C@H]1C#N	
InChI=1S/C5H8N4/c1-3-4(2-6)9-5(7)8-3/h3-4H,1H3,(H3,7,8,9)	InChI=1S/C5H8N4/c1-3-4(2-6)9-5(7)8-3/h3-4H,1H3,(H3,7,8,9)/t3-,4+/m1/s1
