18
gdb 35754	3.4125	1.39003	1.20482	0.4046	77.09	-0.2182	0.034	0.2522	1059.7535	0.148869	-401.863719	-401.856221	-401.855276	-401.895507	30.101	
C	-0.3824796893	-1.141558507	-0.6544176618	-0.422079
C	-0.1741320187	-0.0073013225	-0.3161893512	 0.324299
C	 0.0504827193	 1.3590668406	 0.1468999893	-0.198394
C	-0.5613508004	 1.5402023958	 1.5783174081	-0.092409
O	 0.0985519678	 2.5522868037	 2.3318809499	-0.275955
C	 1.476081013	 2.6907169684	 2.0062079489	 0.120152
C	 1.5994917432	 3.1583559526	 0.5440283162	-0.182485
N	 1.4970406056	 1.7087801952	 0.1211190453	-0.125682
C	 2.0772330761	 1.3678037984	 1.4767359628	-0.214438
H	-0.5590215784	-2.1389798767	-0.9735951066	 0.196847
H	-0.4387815956	 2.0487110151	-0.5512433431	 0.114248
H	-1.6157807536	 1.8215672514	 1.5148847329	 0.119494
H	-0.5058657093	 0.582621678	 2.110671975	 0.110409
H	 1.9425980466	 3.2451414775	 2.8242451315	 0.07903
H	 0.8148072084	 3.8185063545	 0.1648788414	 0.106291
H	 2.5854562818	 3.5484740618	 0.2751282338	 0.10687
H	 3.1683701382	 1.3940604778	 1.4223556219	 0.113925
H	 1.7591275951	 0.4171140355	 1.9088238457	 0.119877
105.8605	150.6523	237.103	318.8932	423.6367	437.4975	452.6945	514.3391	528.9201	609.4709	631.6763	658.1687	791.1126	823.2972	829.2656	889.655	927.058	933.9686	977.4004	1000.2311	1019.0779	1042.8216	1063.9002	1113.8186	1125.8502	1170.1875	1241.8086	1245.7695	1250.9585	1261.4705	1298.8364	1305.7368	1353.6008	1362.9173	1406.2964	1482.8614	1503.805	1526.3916	2237.6613	3020.9306	3035.538	3048.5679	3067.2955	3083.2517	3092.7218	3112.1579	3127.2588	3503.6675
C#CC1COC2CN1C2	C#C[C@H]1CO[C@@H]2CN1C2	
InChI=1S/C7H9NO/c1-2-6-5-9-7-3-8(6)4-7/h1,6-7H,3-5H2	InChI=1S/C7H9NO/c1-2-6-5-9-7-3-8(6)4-7/h1,6-7H,3-5H2/t6-/m0/s1
