17
gdb 11841	6.60732	1.12446	1.09546	4.2439	73.84	-0.2848	0.0306	0.3154	1099.5174	0.142931	-326.719074	-326.711612	-326.710668	-326.751114	28.221	
N	-0.9682996314	-0.5881483257	-1.121926918	-0.328652
C	-0.5025335269	 0.3216004203	-0.5805016357	 0.265657
C	 0.095727796	 1.4473347582	 0.1144754508	-0.130783
C	 0.0026494744	 1.4790165188	 1.6780560227	-0.305473
C	 1.4735788503	 1.913106986	 1.7007391857	 0.375924
C	 1.9949156313	 3.1837212494	 2.3083910693	-0.317147
C	 2.454202627	 1.8379576034	 2.8270956404	-0.331011
C	 1.6569539377	 1.488731047	 0.2382572326	-0.305489
H	-0.2848779443	 2.3765597613	-0.3165925441	 0.125832
H	-0.7387400986	 2.161541313	 2.0992351508	 0.116026
H	-0.1538816226	 0.4794452332	 2.0924593908	 0.125347
H	 2.6987952613	 3.7761092024	 1.7321536449	 0.116418
H	 1.3230630428	 3.7680738029	 2.9293290779	 0.116418
H	 2.0930203296	 1.5139535156	 3.7980384644	 0.117776
H	 3.4678904097	 1.5220503978	 2.6017016923	 0.117777
H	 2.0956971531	 0.4926786548	 0.1345658023	 0.125351
H	 2.1717871707	 2.1786694016	-0.4339226472	 0.116028
54.4706	150.6425	226.6138	274.6595	316.7279	367.7672	469.8016	556.0915	567.0664	694.4284	773.3161	826.1409	853.1209	902.613	903.8783	923.815	987.5571	995.1377	1049.1622	1055.258	1078.2731	1078.6832	1109.6379	1187.4489	1204.1924	1234.5338	1242.2423	1252.5562	1261.0588	1345.3245	1392.5199	1463.7268	1477.8361	1498.0221	1505.4984	2352.5105	3060.2687	3064.1663	3080.5584	3117.7409	3120.6233	3121.905	3126.2713	3200.5018	3215.1627
N#CC1CC2(CC2)C1	N#CC1CC2(CC2)C1	
InChI=1S/C7H9N/c8-5-6-3-7(4-6)1-2-7/h6H,1-4H2	InChI=1S/C7H9N/c8-5-6-3-7(4-6)1-2-7/h6H,1-4H2
