19
gdb 71137	2.91936	1.62457	1.304	3.4305	78.86	-0.23	-0.0073	0.2227	1023.9966	0.160209	-385.90109	-385.893644	-385.8927	-385.932604	30.439	
C	 0.0126606669	 1.5124631739	-0.0014850952	-0.486207
C	 0.0281556412	-0.0025253996	-0.0022603449	 0.30757
C	-1.3121986748	-0.7311577417	 0.373564209	-0.279127
C	-0.5150363456	-1.616176677	 1.32509953	-0.062286
C	 0.7737841473	-2.1502463859	 0.6725540166	-0.153172
C	 0.701310786	-0.7417370097	 1.2115051791	-0.125746
C	 0.8942315563	-2.1137563016	-0.8193457018	 0.405088
O	 1.2051711861	-3.0292688252	-1.539968804	-0.33343
C	 0.6212379498	-0.6650026657	-1.2520042866	-0.368808
H	 1.0219478947	 1.9178440803	-0.1373749397	 0.117265
H	-0.6131069849	 1.8990557793	-0.813697533	 0.120872
H	-0.3830322256	 1.9050205607	 0.9413435578	 0.116712
H	-1.981591851	-0.0666148658	 0.9268864292	 0.104472
H	-1.8714872888	-1.2066518801	-0.4400476483	 0.099015
H	-0.8982675218	-2.1397492257	 2.1927297441	 0.096781
H	 1.2800448168	-2.9371569266	 1.2177718379	 0.104751
H	 1.3607218094	-0.328343711	 1.9634070195	 0.092906
H	-0.0239127435	-0.6262553191	-2.1344366116	 0.121403
H	 1.5834292715	-0.2087055696	-1.5215015681	 0.121942
115.7738	228.8797	251.9639	277.0362	349.36	389.5329	461.9728	526.1824	595.0381	626.4844	651.2616	767.6773	781.503	816.1837	842.7801	877.1617	928.5236	950.3987	961.0535	983.725	1001.5082	1015.6824	1049.4479	1065.1573	1099.6596	1141.2754	1168.851	1195.6989	1219.7343	1220.4212	1252.6863	1265.5667	1314.6342	1337.5659	1367.3766	1414.3095	1451.9452	1491.1421	1494.0608	1498.5698	1834.9403	3022.416	3026.8411	3036.3697	3088.5242	3092.5475	3094.9144	3097.3029	3180.4717	3195.2953	3206.3192
CC12CC3C(C13)C(=O)C2	C[C@]12C[C@H]3[C@H]([C@@H]13)C(=O)C2	
InChI=1S/C8H10O/c1-8-2-4-6(7(4)8)5(9)3-8/h4,6-7H,2-3H2,1H3	InChI=1S/C8H10O/c1-8-2-4-6(7(4)8)5(9)3-8/h4,6-7H,2-3H2,1H3/t4-,6-,7-,8+/m0/s1
