18
gdb 38080	2.77421	1.72382	1.15296	2.0248	86.06	-0.2186	-0.0316	0.187	1062.1693	0.150313	-364.806244	-364.798968	-364.798024	-364.838157	28.687	
C	 0.4823283729	 1.8402935491	 1.0114032797	-0.173655
C	 1.4998490446	 1.4433177109	-0.11592105	-0.176602
C	 1.425282113	 2.14365572	-1.4300825412	-0.09283
C	 1.1907078812	 1.5716688325	-2.6211125538	-0.073259
C	 0.9857431746	 0.1656722535	-2.983125363	-0.064808
C	 0.8554387718	-0.9514805139	-2.2495476945	-0.08109
C	 0.8569562521	-1.1310491527	-0.75264366	-0.374987
C	 0.7498123459	 0.1398302881	 0.0118115393	 0.333594
N	-0.0789487546	 0.4549681639	 0.9454396321	-0.25398
H	 0.9131242111	 2.089808804	 1.9857394928	 0.109334
H	-0.2533258963	 2.5997607027	 0.7313090146	 0.115079
H	 2.5356773798	 1.4081983649	 0.2484240988	 0.09844
H	 1.5773535364	 3.2210960404	-1.4017008377	 0.095491
H	 1.1744656696	 2.2402927025	-3.4792326004	 0.088164
H	 0.9369822778	 0.0149562683	-4.0598274749	 0.087947
H	 0.7288815533	-1.8825787347	-2.7975642693	 0.097099
H	 0.0364608029	-1.7933361707	-0.4513793197	 0.136212
H	 1.7844670539	-1.6534516689	-0.4658611129	 0.129851
66.4178	169.7461	272.4818	332.0765	371.1624	385.7159	465.9338	534.0249	629.3606	689.6314	757.2487	809.7548	819.4825	862.559	877.3707	914.8421	941.3995	981.1298	996.215	1005.9957	1017.6759	1046.8207	1093.7854	1125.1732	1154.5428	1202.4416	1239.6262	1253.4584	1273.623	1278.5756	1353.8152	1379.6039	1427.5487	1448.1153	1456.593	1483.5061	1677.2297	1693.5237	1705.3773	2980.2444	3011.3132	3050.398	3056.697	3106.2354	3127.8826	3137.02	3153.2254	3162.9965
C1C2C=CC3C4CC23N14	C1[C@@H]2C=CC=CC[C]2[N]1	
InChI=1S/C8H9N/c1-2-6-7-3-8(6)5(1)4-9(7)8/h1-2,5-7H,3-4H2	InChI=1S/C8H9N/c1-2-4-7-6-9-8(7)5-3-1/h1-4,7H,5-6H2/t7-/m0/s1
