16
gdb 9011	6.80992	0.824	0.75989	1.1489	76.37	-0.2444	0.0287	0.2731	1469.6658	0.126636	-346.539988	-346.530136	-346.529192	-346.576199	33.519	
C	 0.0094350014	 1.5018568092	-0.0020385927	-0.497934
C	 0.0066417009	 0.0468772606	 0.0429891155	 0.098985
C	 0.0058034659	-1.1563199634	 0.0752196725	 0.046837
C	-0.0145543079	-2.6114256463	 0.1243082227	-0.371144
C	-1.4329430182	-3.2022427777	-0.1066920981	-0.047779
O	-1.9813817351	-2.8126059503	-1.355155264	-0.405023
C	-1.4049965779	-4.6607307117	 0.0468880364	 0.300334
C	-1.3454611331	-5.8582868422	 0.1348035384	-0.445339
H	 0.8300018507	 1.8795329407	-0.6221850894	 0.146743
H	-0.9263062031	 1.8859416456	-0.4230319421	 0.150766
H	 0.1247508484	 1.9336891198	 0.998312773	 0.145934
H	 0.6591673446	-3.0350954515	-0.6324845449	 0.124565
H	 0.3523164455	-2.9706985442	 1.0937827451	 0.137308
H	-2.1057366372	-2.7699733868	 0.6421579865	 0.129429
H	-1.4939326597	-3.27512145	-2.0462944134	 0.285267
H	-1.3153977552	-6.9163512818	 0.2238717744	 0.201052
21.0555	53.8069	78.4892	163.5608	208.6018	218.5709	274.9991	305.446	378.25	386.1588	467.7598	537.3073	570.2042	642.4658	672.6197	777.7702	853.4258	945.2106	1028.747	1052.8255	1055.4393	1081.5767	1171.3544	1192.565	1274.376	1314.465	1355.7566	1414.71	1422.5385	1464.9117	1478.3897	1479.0979	2231.7516	2376.9286	3016.9687	3026.6058	3049.1256	3063.6242	3086.4504	3088.0462	3502.7043	3802.0267
CC#CCC(O)C#C	CC#CC[C@@H](O)C#C	
InChI=1S/C7H8O/c1-3-5-6-7(8)4-2/h2,7-8H,6H2,1H3	InChI=1S/C7H8O/c1-3-5-6-7(8)4-2/h2,7-8H,6H2,1H3/t7-/m0/s1
