20
gdb 91218	2.00384	1.69861	1.55058	2.3024	80.31	-0.2039	-0.0218	0.1821	1045.6078	0.169237	-403.132474	-403.123375	-403.122431	-403.166037	34.046	
C	 0.1128134608	 1.5242495169	-0.083022381	-0.335574
N	 0.1395350761	 0.0824646852	 0.0543457477	-0.09391
C	 0.9023016358	-0.7569201265	-0.8910874526	-0.17977
C	 1.4434709858	-1.6036253457	 0.2842930089	-0.105547
C	 2.8312468952	-1.1295396231	 0.7824930016	-0.358434
C	 2.1230925416	-0.0316889242	 1.5986628474	 0.370187
O	 2.5004549095	 0.9272325271	 2.2111373607	-0.312822
C	 0.7150502648	-0.5828203625	 1.245446985	 0.231019
C	-0.2469795734	-0.882630705	 2.3697344727	-0.481873
H	 1.110698697	 1.9938012661	-0.1130028581	 0.109099
H	-0.4169665948	 1.7869627868	-1.0052431985	 0.121183
H	-0.437983529	 1.9619786813	 0.7552529871	 0.129608
H	 0.2605064788	-1.2745878925	-1.6134832968	 0.104723
H	 1.6913446044	-0.2299341128	-1.4498710641	 0.09088
H	 1.2335081978	-2.6711415985	 0.2903512816	 0.079913
H	 3.3118949807	-1.8491174774	 1.4555147865	 0.131425
H	 3.5655084495	-0.805858802	 0.038582265	 0.123253
H	-0.5479219899	 0.0452195799	 2.8687721282	 0.134628
H	-1.1448954779	-1.3734578521	 1.9836800017	 0.124194
H	 0.2154241671	-1.526995481	 3.1250291769	 0.11782
86.9324	116.573	181.2602	191.2413	214.488	227.6815	326.5647	338.4004	390.5685	479.0481	522.5556	589.6572	660.3856	728.1557	811.7518	828.1575	858.5455	896.1576	973.6815	1013.1468	1022.2642	1043.6178	1099.0404	1110.1083	1141.0864	1145.1549	1165.0205	1182.943	1218.6524	1237.7551	1253.0487	1293.4985	1311.4852	1329.9488	1400.3562	1433.9411	1451.0978	1480.5568	1484.832	1487.8795	1501.4675	1523.2993	1870.9661	2960.1684	2979.9657	3031.5521	3041.6579	3042.6298	3058.9997	3097.2452	3098.1658	3103.1257	3114.1204	3135.8976
CN1CC2CC(=O)C12C	CN1C[C@H]2CC(=O)[C@@]12C	
InChI=1S/C7H11NO/c1-7-5(3-6(7)9)4-8(7)2/h5H,3-4H2,1-2H3	InChI=1S/C7H11NO/c1-7-5(3-6(7)9)4-8(7)2/h5H,3-4H2,1-2H3/t5-,7+/m1/s1
