19
gdb 45748	2.97231	1.30831	0.96396	2.3925	81.28	-0.2336	-0.0167	0.217	1232.5013	0.159379	-385.906317	-385.89803	-385.897086	-385.940175	31.354	
O	 0.2302663759	 0.0936450479	 0.0094931801	-0.306431
C	 0.0616723738	 1.2841935166	 0.0227234756	 0.388607
C	-1.2974616705	 2.0026835025	-0.016845788	-0.368397
C	-0.917869645	 3.4568163426	 0.0527894805	-0.082817
C	 0.4025883679	 3.6417006255	 0.0984910324	-0.076243
C	 1.1825495228	 2.3503780573	 0.0884334002	-0.172903
C	 2.1050436866	 2.1528089675	 1.279454346	 0.040832
C	 3.2102035205	 1.132835145	 1.2192423614	-0.255862
C	 3.5449816959	 2.6036470907	 1.2139160832	-0.284797
H	-1.8346228476	 1.730125361	-0.9349034351	 0.136455
H	-1.9301670295	 1.665403228	 0.814297576	 0.136257
H	-1.655504743	 4.2512419383	 0.0587929212	 0.101089
H	 0.8943304546	 4.6064264924	 0.1543885268	 0.102353
H	 1.7877469506	 2.251045209	-0.8255031758	 0.099036
H	 1.6111037988	 2.2716853977	 2.240285112	 0.084016
H	 3.4234724838	 0.557002465	 2.1124254204	 0.114108
H	 3.3287332942	 0.576144925	 0.2967211134	 0.122671
H	 3.8980071693	 3.0417104896	 0.2856932162	 0.109608
H	 3.9876835909	 3.0376522982	 2.1034990933	 0.112419
47.7466	66.7879	149.0112	204.911	294.5817	357.0714	442.4226	494.1379	563.7592	627.7396	713.9906	754.7769	768.2203	795.1018	831.245	865.7204	928.0829	953.9926	967.9399	978.5239	988.1058	1049.1856	1057.1984	1074.6653	1111.077	1128.3614	1136.5869	1153.3793	1176.3501	1194.6714	1227.6495	1254.6516	1272.6064	1284.2775	1378.3891	1403.2637	1442.8675	1471.4544	1505.5396	1679.0922	1849.667	2992.9108	3025.7013	3052.556	3129.6381	3138.4772	3143.8891	3184.4036	3207.8369	3210.0931	3228.8535
O=C1CC=CC1C1CC1	O=C1CC=C[C@H]1C1CC1	
InChI=1S/C8H10O/c9-8-3-1-2-7(8)6-4-5-6/h1-2,6-7H,3-5H2	InChI=1S/C8H10O/c9-8-3-1-2-7(8)6-4-5-6/h1-2,6-7H,3-5H2/t7-/m0/s1
