23
gdb 59873	3.24265	0.82627	0.72887	3.4449	82.91	-0.2484	-0.0229	0.2256	1673.9763	0.202508	-425.462338	-425.451196	-425.450251	-425.499407	40.241	
C	 0.0172354921	 1.6209425361	-0.1015259899	-0.384596
C	 0.1002720985	 0.1043802786	 0.0182384165	 0.140991
O	-1.1807790239	-0.3632555782	 0.397726049	-0.443068
C	 0.5586296599	-0.5501142237	-1.2960540615	-0.314555
C	 0.6672973953	-2.065597745	-1.2270834302	 0.387212
O	 0.1148694497	-2.7082937464	-0.3541541069	-0.336901
C	 1.5143830693	-2.7523336389	-2.2971091155	-0.05957
C	 2.9780499022	-2.7883774366	-1.8047698994	-0.390495
C	 0.994043982	-4.1577063377	-2.6115195428	-0.388061
H	 0.9910779457	 2.0523718163	-0.3530973145	 0.10579
H	-0.7024562633	 1.9032379428	-0.8769389286	 0.119168
H	-0.320524473	 2.0494078191	 0.8457071472	 0.126398
H	 0.8430662614	-0.148784483	 0.7946499369	 0.065371
H	-1.0940870271	-1.325012258	 0.461852831	 0.292954
H	-0.1710208678	-0.3211780647	-2.0876038927	 0.134095
H	 1.514528426	-0.1322917124	-1.6356339691	 0.111676
H	 1.4783395393	-2.1299203235	-3.2006187621	 0.084108
H	 3.6211309768	-3.2318511384	-2.5705635335	 0.125042
H	 3.3633819024	-1.788421569	-1.5819270876	 0.119608
H	 3.0601808402	-3.3944178823	-0.8970258884	 0.136148
H	-0.0227693412	-4.1247897355	-3.0137820518	 0.119146
H	 1.6372509267	-4.6480315847	-3.348343067	 0.110666
H	 0.9719343088	-4.7669238349	-1.704755459	 0.138872
31.8748	53.6097	119.0951	152.472	199.4094	223.7015	228.6769	237.845	278.7755	309.8959	349.2937	396.2249	456.242	462.8917	602.5513	607.8708	659.5777	807.7362	850.5649	885.9018	912.6292	934.538	952.3674	972.6921	1046.3419	1060.1101	1072.1076	1122.2553	1134.199	1168.6839	1199.4495	1224.6539	1309.9135	1317.7044	1337.2015	1379.3807	1384.6629	1398.1945	1402.2516	1418.7065	1428.3214	1459.4776	1483.4806	1486.1203	1488.3108	1501.0416	1502.1405	1511.3099	1778.37	2947.7713	3009.5789	3025.8877	3035.9939	3038.7855	3045.073	3059.2764	3106.8148	3110.2922	3111.7984	3113.8956	3121.703	3129.9134	3733.1618
CC(O)CC(=O)C(C)C	C[C@@H](O)CC(=O)C(C)C	
InChI=1S/C7H14O2/c1-5(2)7(9)4-6(3)8/h5-6,8H,4H2,1-3H3	InChI=1S/C7H14O2/c1-5(2)7(9)4-6(3)8/h5-6,8H,4H2,1-3H3/t6-/m1/s1
