20
gdb 61831	2.61861	0.97611	0.78749	2.4842	78.39	-0.2612	0.0212	0.2823	1493.0814	0.167978	-440.265963	-440.255677	-440.254732	-440.302746	36.003	
C	 0.1899407944	 1.3712175222	 0.1973572637	-0.397933
C	-0.2393927622	-0.0814200682	 0.0127612447	 0.08064
O	-1.671879301	-0.1857774752	-0.0144844494	-0.194607
C	-2.3024949926	-0.3712849705	 1.1596905732	 0.129515
N	-3.5635572681	-0.3698843447	 1.2099631157	-0.442275
C	 0.2349104258	-0.637538049	-1.3125842351	 0.052874
O	 1.6381802095	-0.8758019236	-1.4265421034	-0.265756
C	 0.7478704484	-2.0002327778	-1.5187453043	 0.07922
C	 0.8536991631	-3.0675508273	-0.4612118558	-0.425606
H	 1.2802250843	 1.4421345203	 0.1509229012	 0.141934
H	-0.2386647774	 1.9971520772	-0.590922993	 0.134582
H	-0.1459946419	 1.7576210958	 1.1640739769	 0.12038
H	 0.1560119443	-0.6905518674	 0.833970382	 0.084367
H	-1.6167466434	-0.5276014426	 2.0051117203	 0.083785
H	-3.8721915671	-0.5459103056	 2.1637138115	 0.228615
H	-0.211782707	-0.1296274218	-2.1699963235	 0.101834
H	 0.6566764545	-2.3884182779	-2.5352240103	 0.095769
H	 0.9745656659	-2.6462040685	 0.5387791705	 0.12545
H	-0.0400131025	-3.7003596123	-0.4711339243	 0.13316
H	 1.7198544631	-3.7068658731	-0.6603416905	 0.13405
29.635	52.7782	111.4625	137.5847	182.8773	189.2693	233.3439	260.509	369.3565	376.8591	430.0438	452.3024	562.4213	645.1718	784.4248	815.9013	827.8467	893.7945	943.6537	993.2661	1006.1248	1042.4781	1052.3273	1099.7888	1125.7998	1135.0276	1147.9442	1174.6068	1208.1468	1289.6247	1299.4548	1322.6057	1356.5352	1403.1517	1405.023	1420.0342	1427.0089	1470.207	1488.5049	1490.3608	1495.9829	1517.5782	1744.316	3010.5983	3038.6694	3043.1216	3044.365	3083.8119	3096.2819	3104.5496	3118.6206	3127.4968	3132.1645	3518.8639
CC(OC=N)C1OC1C	C[C@@H](O[CH][NH])[C@H]1O[C@H]1C	
InChI=1S/C6H11NO2/c1-4(8-3-7)6-5(2)9-6/h3-7H,1-2H3	InChI=1S/C6H11NO2/c1-4(8-3-7)6-5(2)9-6/h3-7H,1-2H3/t4-,5+,6-/m1/s1
