16
gdb 125847	3.14794	1.50608	1.11567	3.8256	71.28	-0.2585	-0.0003	0.2582	1059.4135	0.125468	-434.025718	-434.017946	-434.017002	-434.058189	28.828	
C	-0.3088016041	 1.6353564881	-0.1839811605	-0.397827
C	 0.002729423	 0.1629603597	-0.0241438775	 0.000557
C	 0.7507898051	-0.57573424	-1.2355258816	-0.040339
O	 0.9886703026	 0.1497017548	-2.4038643414	-0.404064
C	 1.8964215397	-0.7898565387	-0.2422295738	 0.248768
C	 3.0541316766	-1.2352772899	 0.3620408007	-0.21261
N	 2.9928291137	-0.8413311932	 1.6712773484	-0.181261
N	 1.8687917188	-0.1980885546	 1.921593073	-0.182735
N	 1.235415686	-0.1650663846	 0.745603173	 0.095511
H	 0.5624737674	 2.1944033544	-0.5361528962	 0.11935
H	-1.1157749342	 1.7619712047	-0.9113243194	 0.143119
H	-0.6281786147	 2.0682752998	 0.7678336316	 0.147085
H	-0.8583980086	-0.3941251419	 0.355006662	 0.117981
H	 0.240312029	-1.4919952162	-1.5399009058	 0.124199
H	 1.6341117327	 0.8392227625	-2.213942212	 0.293474
H	 3.9025408269	-1.7794483247	-0.0167827705	 0.128791
102.1285	124.5468	186.0939	235.5268	263.9224	347.899	416.1821	475.8412	571.3794	679.3569	700.2348	719.375	776.0176	821.6939	842.8016	998.5603	1008.9449	1033.0034	1071.1926	1110.8747	1130.8783	1155.7721	1194.7914	1202.6441	1240.2771	1274.7302	1294.1731	1324.3081	1365.0419	1412.792	1431.4275	1480.7053	1484.7259	1496.5221	1528.6817	3048.4387	3077.6123	3098.0939	3124.5185	3126.615	3283.9636	3811.6669
CC1C(O)C2=CN=NN12	C[C@H]1[C@@H](O)c2cnnn12	
InChI=1S/C5H7N3O/c1-3-5(9)4-2-6-7-8(3)4/h2-3,5,9H,1H3	InChI=1S/C5H7N3O/c1-3-5(9)4-2-6-7-8(3)4/h2-3,5,9H,1H3/t3-,5+/m0/s1
