20
gdb 98242	3.06709	1.12731	0.8473	2.3612	80.43	-0.2356	0.0158	0.2514	1382.7212	0.170097	-436.510796	-436.500148	-436.499204	-436.54745	37.184	
C	 0.018652108	 1.2705964706	-0.7292169398	-0.316253
N	-0.1074752566	 0.0157898806	-0.0086371252	-0.356022
C	-1.2019752656	-0.7822346694	-0.2424544236	 0.498898
O	-2.1131621445	-0.4137882348	-0.9629211408	-0.411769
N	-1.1814036854	-2.0091335047	 0.4435321339	-0.1817
C	-0.2270839745	-2.2114872136	 1.5369053763	-0.358782
C	-2.0282376515	-3.0912063564	 0.1246223304	 0.369021
C	-3.0139292056	-2.9439142136	-1.0116000528	-0.440258
N	-1.8946833503	-4.1585984482	 0.8165279264	-0.520906
H	 0.3151567433	 1.1293660065	-1.7765550336	 0.126797
H	-0.9439100072	 1.7827998094	-0.7207767732	 0.160565
H	 0.764169843	 1.8938118612	-0.2295684534	 0.120776
H	 0.7401271969	-0.4056520164	 0.3302512894	 0.248855
H	-0.1330146627	-1.2922873272	 2.1173425467	 0.132488
H	-0.6036505868	-3.0142999503	 2.1660929555	 0.18037
H	 0.76164137	-2.5161481774	 1.1677894021	 0.12022
H	-2.5244304867	-2.634222609	-1.9367720943	 0.147063
H	-3.5040085543	-3.9081335871	-1.1665247164	 0.103088
H	-3.7603115922	-2.1792672055	-0.7952836184	 0.160786
H	-2.5550893271	-4.8625697146	 0.4967269808	 0.216763
47.3638	52.2745	79.5608	134.184	172.9909	212.5293	229.2503	246.2022	345.9165	366.5529	416.8602	453.795	475.2949	562.2524	583.2144	652.2664	769.9067	818.1888	843.9625	946.5582	996.1452	1070.1942	1091.4347	1103.3803	1148.5787	1152.8717	1171.5983	1206.035	1230.8068	1328.355	1391.9758	1418.4019	1444.8184	1453.6229	1464.1415	1470.7797	1483.013	1500.0425	1506.8801	1522.6373	1545.7028	1686.9454	1773.5148	3013.306	3022.2646	3059.5134	3099.8578	3109.9343	3136.1438	3150.3348	3151.6553	3177.9312	3514.8606	3657.3081
CNC(=O)N(C)C(C)=N	CNC(=O)N(C)C(=N)C	
InChI=1S/C5H11N3O/c1-4(6)8(3)5(9)7-2/h6H,1-3H3,(H,7,9)	InChI=1S/C5H11N3O/c1-4(6)8(3)5(9)7-2/h6H,1-3H3,(H,7,9)
