14
gdb 28396	3.30915	1.45127	1.00992	1.6614	71.47	-0.1955	-0.0293	0.1662	1084.4137	0.102872	-470.050653	-470.04314	-470.042196	-470.08245	29.189	
N	 0.0235267409	 1.4026047171	 0.1453694752	-0.588634
C	-0.0515508797	 0.0217197844	 0.0436114707	 0.223443
C	-1.1847522511	-0.7234212747	 0.0130398463	-0.108039
N	-1.1818075697	-2.1121236871	-0.0192952277	-0.397094
C	-0.0375470699	-2.673247728	-0.0186154958	 0.486537
O	 0.1363404061	-3.9969095095	-0.036702124	-0.387326
O	 1.1607078676	-2.0636500845	-0.0036039329	-0.224629
C	 1.229987114	-0.6731652178	 0.0108758699	 0.375301
N	 2.345904142	-0.071578755	-0.0129326935	-0.553928
H	 0.9281578057	 1.7608632109	-0.1314657949	 0.268932
H	-0.7524404917	 1.9118434562	-0.2501808598	 0.248625
H	-2.1653337491	-0.2595928064	 0.0190776001	 0.105571
H	-0.7508820147	-4.3810880239	-0.0434583889	 0.319225
H	 3.1281899297	-0.7232342618	-0.0444805447	 0.232014
123.8111	159.5752	308.7028	332.9416	360.5957	395.4653	404.2363	486.9847	520.6428	540.1831	589.1374	622.4264	724.5965	753.8598	766.4292	803.775	836.563	898.1757	982.4803	1052.1088	1121.2649	1177.595	1251.3097	1295.9979	1322.9943	1436.2638	1465.8078	1619.7174	1662.9698	1683.4658	1750.7491	3184.3104	3512.9619	3550.9658	3664.3963	3791.9911
NC1=CN=C(O)OC1=N	NC1=C(OC(=NC1)O)[NH]	
InChI=1S/C4H5N3O2/c5-2-1-7-4(8)9-3(2)6/h1,6H,5H2,(H,7,8)	InChI=1S/C4H6N3O2/c5-2-1-7-4(8)9-3(2)6/h6H,1,5H2,(H,7,8)
