14
gdb 25038	4.22592	1.12764	0.95099	3.5018	65.36	-0.2394	-0.0037	0.2357	1171.4334	0.102064	-473.839507	-473.832318	-473.831374	-473.871827	26.511	
O	 0.1017725463	 0.0623769871	 0.262886072	-0.364303
C	 0.0150310771	 1.2392303271	 0.137345873	 0.503003
O	-1.1039179247	 1.9379026982	-0.2119553314	-0.207382
C	-0.7617236524	 3.2787365847	-0.2474477014	-0.156479
C	 0.5237688907	 3.4115726187	 0.0792593637	 0.343851
O	 1.0330666874	 2.1426978714	 0.3210860782	-0.255871
C	 1.4271405257	 4.5539245953	 0.2031364069	-0.109686
C	 2.5649068315	 4.513920865	 1.1664808107	-0.23921
N	 2.8207756691	 4.4575441939	-0.2770493802	-0.317455
H	-1.5326201705	 3.9787092124	-0.5143555539	 0.171272
H	 0.9473849366	 5.5051577511	-0.008901838	 0.110422
H	 2.873002658	 5.4341563903	 1.6537820222	 0.132495
H	 2.6915989237	 3.6106452953	 1.7553493724	 0.138727
H	 3.0183373016	 3.4971552795	-0.5509955241	 0.250616
83.4121	135.4252	154.8176	254.2278	404.6697	428.0089	532.0517	640.9791	664.8992	743.0349	764.447	780.2392	820.3766	879.2508	926.9414	952.9228	966.5979	1002.8188	1064.7601	1103.7542	1131.9699	1143.4054	1174.0946	1245.8033	1274.5108	1297.966	1340.1362	1410.2799	1505.9628	1733.5412	1944.4266	3119.7947	3154.2924	3211.7432	3308.9866	3500.3393
O=C1OC=C(O1)C1CN1	O=c1occ(o1)[C@H]1CN1	
InChI=1S/C5H5NO3/c7-5-8-2-4(9-5)3-1-6-3/h2-3,6H,1H2	InChI=1S/C5H5NO3/c7-5-8-2-4(9-5)3-1-6-3/h2-3,6H,1H2/t3-/m1/s1
