19
gdb 60786	2.64844	1.1891	1.02606	2.2372	78.18	-0.2606	-0.046	0.2147	1232.6386	0.154484	-423.000913	-422.99056	-422.989616	-423.035822	38.179	
C	-0.0580863466	 1.5847809965	 0.0752846551	-0.414599
C	-0.0169355272	 0.0423986531	 0.0282778256	 0.016283
C	 0.7448567065	-0.5223308568	 1.2497774929	-0.425703
C	-1.3838101636	-0.4873269706	 0.0465804122	 0.364011
C	-2.4992012865	-0.9318940363	 0.0955541173	-0.48141
C	 0.6509335346	-0.4306132925	-1.3141127374	 0.045744
O	-0.0674066865	 0.0280773716	-2.4214793012	-0.430335
C	 2.1027233012	 0.0014449909	-1.4327064363	 0.123424
O	 2.4844236585	 0.6700758619	-2.3640593165	-0.263172
H	 0.9561193369	 1.9973032911	 0.1160521988	 0.114183
H	-0.5592825975	 1.9736060355	-0.8124776288	 0.145694
H	-0.6011007021	 1.9239723756	 0.9607466829	 0.126618
H	 0.181879409	-0.3126457353	 2.162384959	 0.136629
H	 0.8671932352	-1.607293526	 1.1759425444	 0.12628
H	 1.7325211402	-0.063288185	 1.3540648415	 0.114995
H	-3.4877348546	-1.3189895724	 0.1219245608	 0.196338
H	 0.6593838538	-1.535164923	-1.2903795124	 0.101936
H	 0.5710417984	 0.5194726989	-2.9630787436	 0.295758
H	 2.8014388002	-0.3430115871	-0.6473819042	 0.107325
67.4822	100.6449	146.9688	177.099	223.7091	249.9059	266.8258	291.264	332.5266	346.0606	401.9892	417.4741	487.7894	541.7369	594.5761	629.883	641.3494	699.1776	777.5385	839.6809	919.3313	938.6203	947.1497	1011.6281	1045.3465	1145.7327	1176.6557	1208.0414	1227.5747	1283.9773	1334.8714	1391.1514	1399.7604	1418.5824	1439.4381	1482.5163	1486.8478	1500.7675	1508.8261	1804.5448	2234.7433	2945.6746	2964.1025	3038.5347	3042.3541	3111.4192	3113.7082	3123.9071	3144.8679	3502.5532	3683.6104
CC(C)(C#C)C(O)C=O	CC(C)(C#C)[C@@H](O)C=O	
InChI=1S/C7H10O2/c1-4-7(2,3)6(9)5-8/h1,5-6,9H,2-3H3	InChI=1S/C7H10O2/c1-4-7(2,3)6(9)5-8/h1,5-6,9H,2-3H3/t6-/m0/s1
