17
gdb 72037	2.45949	2.02693	1.54402	1.8023	66.06	-0.2261	0.0646	0.2907	911.9654	0.136341	-458.946972	-458.939645	-458.938701	-458.978267	29.551	
C	 0.0182900532	 1.4606106243	-0.0085359255	-0.503244
C	 0.0231540833	-0.0307734275	 0.0206772231	 0.377964
O	 0.1454011804	-0.6987981265	-1.2299201656	-0.279807
C	 0.0517200456	-2.0380363603	-0.7611573783	 0.146972
C	 1.1781794988	-2.1311664167	 0.2872940377	-0.310538
C	 0.671809746	-0.9235187733	 1.0704672749	 0.246367
O	 1.2976832937	-0.3682169605	 2.1720735455	-0.466284
C	-0.8447612856	-0.9572990744	 0.8569718047	-0.088558
O	-1.1406824535	-2.065191983	 0.0250101996	-0.253855
H	 0.9360466816	 1.8413518363	-0.4676139028	 0.134396
H	-0.8366212149	 1.839432131	-0.576635646	 0.131713
H	-0.0347367577	 1.8492685281	 1.0114620996	 0.136485
H	-0.0016808864	-2.7460623222	-1.5835849461	 0.100571
H	 1.144278596	-3.0685133542	 0.8482913598	 0.105695
H	 2.1667494672	-1.9764066084	-0.1493251953	 0.118342
H	 1.1377203927	-0.9379513612	 2.9331109689	 0.28952
H	-1.6118792203	-0.6689941215	 1.5613733958	 0.114261
175.2057	197.4071	229.2713	297.5946	359.7175	377.4987	445.9427	551.3023	579.2112	633.2337	654.6944	716.8217	736.1014	835.875	870.4444	913.0963	928.4894	934.1989	960.8062	1008.5038	1036.3483	1064.4163	1115.6094	1119.7852	1142.7879	1195.0615	1216.07	1237.5805	1284.0368	1321.1416	1336.7686	1356.9549	1418.5067	1459.5116	1477.5979	1485.4523	1506.465	3042.534	3070.477	3107.6555	3127.6509	3132.7028	3174.3113	3226.2945	3785.847
CC12OC3CC1(O)C2O3	C[C@@]12O[C@H]3C[C@]1(O)[C@@H]2O3	
InChI=1S/C6H8O3/c1-5-4-6(5,7)2-3(8-4)9-5/h3-4,7H,2H2,1H3	InChI=1S/C6H8O3/c1-5-4-6(5,7)2-3(8-4)9-5/h3-4,7H,2H2,1H3/t3-,4+,5-,6-/m0/s1
