16
gdb 23452	3.12171	1.28335	1.16277	1.5075	76.53	-0.2184	-0.0435	0.1749	1087.5746	0.124441	-437.833833	-437.826042	-437.825098	-437.86598	30.408	
O	-0.1178117196	 1.3298927687	-0.0274891946	-0.391419
N	 0.0218010819	-0.0645608843	 0.0352737425	-0.24382
C	-1.1166912673	-0.6506572563	-0.0059091715	 0.402015
C	-2.4707905098	-0.0838709092	-0.0774206618	-0.205438
C	-3.3802079165	-1.0747787079	-0.0104548253	-0.078552
C	-2.7467613499	-2.419472905	 0.0471613476	-0.162258
C	-1.9127473335	-2.7931582823	-1.1714987936	 0.128435
O	-2.0455291731	-2.2105081005	-2.4193214057	-0.41443
C	-1.2360946576	-2.1406159069	 0.0214814415	-0.200454
H	 0.7967111509	 1.6271987346	 0.0197605855	 0.309092
H	-2.6665607388	 0.9739479465	-0.1747597424	 0.126128
H	-4.4550962315	-0.9376904379	-0.0398889377	 0.116178
H	-3.1944951611	-3.2065078801	 0.6436847926	 0.098185
H	-1.711730313	-3.8530561039	-1.2887332007	 0.119212
H	-2.3087650788	-1.2891934911	-2.3011791414	 0.290064
H	-0.5181505323	-2.7166957844	 0.591216985	 0.107062
97.8313	196.1974	234.7212	265.9751	293.6763	331.5464	412.9925	474.4884	544.8147	575.3846	696.206	737.9138	754.7837	769.0669	796.4108	837.7233	884.4279	944.1456	969.1874	977.9663	1009.7997	1022.7066	1056.5233	1094.8577	1123.737	1192.2892	1224.9899	1303.8823	1320.4472	1329.2201	1371.223	1413.4106	1450.1254	1614.8593	1715.3056	3166.5614	3174.184	3196.465	3201.0236	3251.4501	3771.2512	3823.5852
ON=C1C=CC2C(O)C12	ON=C1C=C[C@H]2[C@@H](O)[C@@H]12	
InChI=1S/C6H7NO2/c8-6-3-1-2-4(7-9)5(3)6/h1-3,5-6,8-9H	InChI=1S/C6H7NO2/c8-6-3-1-2-4(7-9)5(3)6/h1-3,5-6,8-9H/t3-,5-,6-/m1/s1
