16
gdb 76081	2.20793	1.43004	1.23631	6.3144	71.7	-0.249	0.0092	0.2582	1084.9201	0.12384	-437.869552	-437.860929	-437.859984	-437.90295	32.322	
N	-0.0889612846	 1.1016334794	 0.019946796	-0.527794
H	-0.7250408056	 0.7113448058	-0.6677686043	 0.257241
H	 1.1619320255	 0.0841708752	 0.8032306967	 0.3186
H	 0.3691639368	 1.9113703025	-0.3839803044	 0.256035
C	-0.7807414764	 1.4467737234	 1.2404014992	-0.049304
C	-1.3683600285	 0.2981315947	 2.0315566102	-0.219882
C	-1.295571058	-1.0428377559	 1.5327002623	 0.333544
C	-1.2768129754	-2.165135717	 1.1017203262	-0.449943
C	-0.1335235968	 1.0525262142	 2.5539722504	-0.189285
C	 1.2183201586	 0.3889157981	 2.6796358944	 0.422001
O	 1.7886746711	 0.3587684062	 3.7395748673	-0.344763
O	 1.7351128722	-0.1537741593	 1.5733946263	-0.380092
H	-1.356025096	 2.3710037005	 1.2473922873	 0.107255
H	-2.2828042532	 0.526429238	 2.5708553268	 0.13285
H	-1.2380007488	-3.1640240865	 0.7429259088	 0.206963
H	-0.332676681	 1.6922810709	 3.4046449969	 0.126575
80.0303	107.0271	136.4708	248.881	280.3008	301.1898	369.3938	401.8675	486.7233	524.6715	602.7118	622.123	664.5912	703.8757	760.5195	786.3126	812.7084	847.9651	892.6223	915.4466	981.125	1027.6416	1039.0786	1124.9728	1130.6558	1227.462	1255.7874	1289.3241	1351.1944	1373.9526	1422.6417	1485.1498	1644.1099	1849.1789	2240.1745	3112.0982	3153.1208	3198.0955	3307.1557	3502.0001	3507.8792	3591.055
[NH3+]C1C(C#C)C1C([O-])=O	N[C@H]1[C@@H](C#C)[C@H]1C(=O)O	
InChI=1S/C6H7NO2/c1-2-3-4(5(3)7)6(8)9/h1,3-5H,7H2,(H,8,9)	InChI=1S/C6H7NO2/c1-2-3-4(5(3)7)6(8)9/h1,3-5H,7H2,(H,8,9)/t3-,4+,5-/m0/s1
