18
gdb 68464	2.46859	1.98238	1.33681	4.1131	71.47	-0.2508	0.0252	0.276	969.1132	0.150631	-439.125944	-439.118687	-439.117743	-439.157233	29.801	
O	 0.0839996058	 1.4009125701	 0.0192547382	-0.492964
C	 0.0095529442	 0.0225806897	 0.0627680989	 0.338272
C	 0.2474384491	-0.745875653	 1.3968723544	-0.280312
C	-0.6869543067	-1.8334897419	 0.7977656131	-0.035092
C	-1.3658849347	-0.7036491381	-0.0252853466	-0.2803
C	 0.1075578572	-2.7565840137	-0.1310414822	-0.167245
N	 0.923059462	-1.9453279694	-1.0321025825	-0.308378
C	 0.9299012677	-0.5886525034	-0.9993152464	 0.359766
O	 1.5970391056	 0.1206234558	-1.7361642289	-0.412454
H	 0.7176690116	 1.5962845371	-0.6937001421	 0.289797
H	 1.270669685	-1.0202511147	 1.6679147339	 0.101284
H	-0.2292935726	-0.2163532226	 2.224835108	 0.113741
H	-1.3032195129	-2.4204420766	 1.4794412575	 0.078661
H	-2.1118089452	-0.1671009795	 0.5653958993	 0.113757
H	-1.7706849361	-0.9406446674	-1.0130704363	 0.101295
H	 0.7521408607	-3.4230198011	 0.4576545104	 0.114009
H	-0.576569376	-3.3881760638	-0.7134950598	 0.114021
H	 1.5162456053	-2.3868628274	-1.718656339	 0.252142
129.3857	213.8555	326.1154	359.1003	390.7811	410.4784	445.478	522.5473	525.5741	554.1848	631.2313	698.4334	752.1337	817.3619	838.5859	869.9348	888.0465	953.8255	999.548	1013.2959	1028.65	1064.4585	1102.5556	1115.2249	1174.27	1180.2348	1226.9684	1240.3825	1277.8808	1285.5093	1324.2575	1351.5714	1397.4538	1451.9489	1476.8559	1478.3693	1518.1056	1529.2927	1786.7665	3005.9881	3036.4186	3056.892	3061.1588	3105.6022	3120.7264	3123.5663	3618.9353	3639.6319
OC12CC(C1)CNC2=O	O[C@@]12C[C@@H](C1)CNC2=O	
InChI=1S/C6H9NO2/c8-5-6(9)1-4(2-6)3-7-5/h4,9H,1-3H2,(H,7,8)	InChI=1S/C6H9NO2/c8-5-6(9)1-4(2-6)3-7-5/h4,9H,1-3H2,(H,7,8)/t4-,6-
