17
gdb 20911	3.17726	1.96167	1.32963	3.3676	69.75	-0.2485	0.0142	0.2627	947.1078	0.143685	-360.085153	-360.077131	-360.076187	-360.118276	28.309	
C	 0.17634949	 1.611450629	-0.0742899967	-0.375473
C	-0.0383122924	 0.1058670095	 0.0831317001	-0.147718
N	 0.632046568	-0.4308988788	 1.2566837432	 0.002703
N	 1.9869846515	-0.5383741329	 1.2706229826	-0.257543
C	 2.216730443	-1.0213028271	 2.4787856335	 0.023443
N	 1.1104207552	-1.2296934803	 3.2402276883	-0.31667
C	 0.1236261651	-0.8455921932	 2.4423682948	 0.355061
C	-1.3282771512	-0.8680749412	 2.7864732666	-0.505311
H	 1.2440256689	 1.8330409134	-0.1399804001	 0.15252
H	-0.3125141639	 1.9673347377	-0.9859956439	 0.122211
H	-0.2385537485	 2.1599026427	 0.7766596104	 0.12551
H	-1.1012386064	-0.1317609888	 0.1748456389	 0.12277
H	 0.3483880133	-0.4286026947	-0.7892567151	 0.137212
H	 3.2183752048	-1.2348221614	 2.8217500606	 0.121121
H	-1.7742656308	 0.131596824	 2.7500898369	 0.138738
H	-1.8987769519	-1.5117017446	 2.1079734573	 0.139782
H	-1.4340837947	-1.2563525133	 3.7998588728	 0.161644
45.14	116.0127	137.7717	208.2159	257.7711	287.0542	382.9693	451.2465	646.0149	686.9382	705.9251	723.7279	795.8841	906.6551	975.9215	982.2746	1008.9529	1062.3628	1066.0461	1104.8376	1193.4011	1216.4598	1275.9356	1314.182	1339.4369	1392.1732	1406.1991	1409.0896	1431.2294	1477.163	1483.2365	1486.0675	1488.9244	1507.8829	1519.0616	1565.2685	3038.259	3046.1382	3064.591	3090.8509	3106.0269	3120.4065	3138.5987	3152.0704	3256.1447
CCN1N=CN=C1C	CCn1ncnc1C	
InChI=1S/C5H9N3/c1-3-8-5(2)6-4-7-8/h4H,3H2,1-2H3	InChI=1S/C5H9N3/c1-3-8-5(2)6-4-7-8/h4H,3H2,1-2H3
