19
gdb 94287	2.92948	1.46523	1.19583	1.4471	74.84	-0.215	0.058	0.273	1090.9601	0.158639	-422.951411	-422.943234	-422.94229	-422.984457	31.063	
C	-0.2990414545	 1.4684604137	 0.0218665735	-0.408501
C	-0.0261262552	-0.0305337878	-0.0149312778	-0.130268
C	 1.2794667907	-0.4562122066	-0.7318258659	-0.088489
O	 1.8763993348	-0.9072666266	 0.510402555	-0.324924
C	 0.6552321611	-0.6568323016	 1.2029761139	 0.457663
C	 0.7520212609	-0.3253189196	 2.6697765453	-0.232834
C	-0.6432055587	-0.1237451401	 3.245709595	-0.089647
O	-1.1212152649	-1.3655638971	 2.6554866872	-0.285811
C	 0.1961260694	-1.6706082516	 2.1907661105	-0.007435
H	 0.5691423532	 2.0169706728	 0.4020079797	 0.123569
H	-0.5220865832	 1.8437020768	-0.9828582169	 0.117908
H	-1.1559689317	 1.7047679142	 0.6595309671	 0.125264
H	-0.9143773476	-0.5785591145	-0.3377117844	 0.092708
H	 1.179772678	-1.2771035143	-1.4511848877	 0.105975
H	 1.8597911832	 0.3565068789	-1.1830168876	 0.104083
H	 1.6947564755	-0.0760350161	 3.1382935863	 0.108705
H	-0.6740475721	-0.1857753144	 4.3399419402	 0.112666
H	-1.2217138951	 0.7451332323	 2.9126136954	 0.108073
H	 0.5587581763	-2.6902477784	 2.2606857611	 0.111294
59.6269	151.054	155.2662	235.3702	257.8578	325.0828	355.6858	454.8877	530.3269	580.2024	765.4899	774.1827	821.3208	876.7224	912.1531	928.3115	933.2221	960.9866	990.8473	1006.6789	1014.6313	1043.8226	1088.7605	1101.3502	1109.5901	1146.9846	1152.5076	1156.1661	1187.573	1228.2777	1232.541	1264.3736	1331.9398	1340.4899	1372.2739	1411.1055	1447.3873	1493.8347	1498.799	1518.9823	1523.2883	3023.0163	3024.1046	3033.2465	3068.3978	3071.4907	3081.8997	3100.6691	3111.4132	3175.1964	3205.2903
CC1COC11C2COC12	C[C@H]1CO[C@]21[C@H]1CO[C@@H]21	
InChI=1S/C7H10O2/c1-4-2-9-7(4)5-3-8-6(5)7/h4-6H,2-3H2,1H3	InChI=1S/C7H10O2/c1-4-2-9-7(4)5-3-8-6(5)7/h4-6H,2-3H2,1H3/t4-,5-,6+,7+/m0/s1
