19
gdb 55039	3.19534	1.13255	0.92009	3.0467	77.43	-0.2415	0.0446	0.2861	1296.9816	0.159519	-419.203871	-419.194892	-419.193948	-419.238328	33.527	
N	-0.5834974668	 1.4704593166	-0.3246662473	-0.536503
C	-0.1667717328	 0.1544231208	-0.2546027164	 0.404635
O	 0.8504726856	-0.2511643538	-0.7747303616	-0.373728
N	-1.0233951413	-0.6486306061	 0.511725511	-0.125814
C	-2.4497301718	-0.805140617	 0.2572921079	-0.276523
C	-1.4985678588	-1.9543694133	 0.0879501244	 0.00124
C	-1.193711763	-2.5047068055	-1.2657865124	 0.036339
C	-0.1529176751	-3.5813027391	-1.4169066913	-0.250387
C	-1.6101020774	-3.9215908354	-1.5916015661	-0.290501
H	 0.138145916	 2.1152619768	-0.6073886232	 0.261031
H	-1.2117743373	 1.8048250387	 0.3890056409	 0.257082
H	-3.1013812423	-0.7442296652	 1.1257297381	 0.1176
H	-2.8502388697	-0.3584025091	-0.6504319945	 0.128201
H	-1.4692506634	-2.6976409861	 0.8848223484	 0.092975
H	-1.2552127323	-1.7806151271	-2.071836608	 0.092572
H	 0.4848317646	-3.5462394192	-2.2921141452	 0.121187
H	 0.3469268489	-3.9258227879	-0.5179882192	 0.116722
H	-2.0959720446	-4.4995013532	-0.81163528	 0.110388
H	-1.9827423984	-4.125354135	-2.5891602055	 0.113486
54.4303	66.5927	117.4555	195.5896	256.401	284.0424	360.2718	445.0673	463.3551	504.2515	538.2444	637.2783	726.2681	753.2031	785.4771	810.1206	835.3756	928.8936	933.2225	951.3883	997.7621	1036.9755	1063.3733	1076.9465	1098.7761	1112.5277	1120.3462	1128.2248	1167.3759	1195.6465	1222.3489	1233.4051	1280.5664	1324.3738	1399.6555	1458.5508	1470.9542	1506.1939	1516.3973	1616.9979	1804.3118	3095.7998	3104.7634	3130.2004	3140.9417	3160.2415	3183.5512	3210.4532	3229.1057	3582.9527	3704.1467
NC(=O)N1CC1C1CC1	NC(=O)N1C[C@H]1C1CC1	
InChI=1S/C6H10N2O/c7-6(9)8-3-5(8)4-1-2-4/h4-5H,1-3H2,(H2,7,9)	InChI=1S/C6H10N2O/c7-6(9)8-3-5(8)4-1-2-4/h4-5H,1-3H2,(H2,7,9)/t5-,8?/m0/s1
