23
gdb 116045	2.94529	1.10105	0.86652	0.6238	95.51	-0.2101	-0.0181	0.1919	1427.3176	0.207479	-351.176659	-351.167564	-351.16662	-351.210771	35.178	
C	-0.0575904885	 1.6322355151	-0.0976935846	-0.388756
C	-0.0185101793	 0.1012614776	-0.0678302691	-0.18579
C	-1.4003785999	-0.562926878	 0.1019986827	-0.018125
C	-1.3291770083	-2.0859377652	-0.1614673982	-0.214301
C	-2.6549586622	-2.7255122301	-0.585863839	-0.261184
C	-3.8322277178	-2.5853768001	 0.3364221841	-0.063108
C	-3.986088689	-1.8074655108	 1.4189322443	-0.069572
C	-3.0786701876	-0.8232852822	 2.0025426446	-0.093364
C	-1.9859608611	-0.2663342274	 1.4619248496	-0.054648
H	 0.9466480076	 2.0481998479	-0.2258377488	 0.111954
H	-0.6758999654	 1.9913624481	-0.9281435092	 0.114466
H	-0.4723883681	 2.0526214743	 0.8238852095	 0.119541
H	 0.4289824738	-0.2586412885	-1.0019967915	 0.089738
H	 0.6443274451	-0.2397791947	 0.7390660848	 0.095729
H	-2.0657147889	-0.1299021023	-0.662516935	 0.083196
H	-0.5997996343	-2.2774324979	-0.9577655285	 0.088646
H	-0.9477962733	-2.585244133	 0.7363653847	 0.104534
H	-2.9454444599	-2.343919453	-1.5769967321	 0.108663
H	-2.4817688596	-3.7994924932	-0.7479298302	 0.104626
H	-4.6711579414	-3.2296396149	 0.0769274308	 0.085156
H	-4.927800699	-1.911648382	 1.9550400234	 0.079721
H	-3.3621103854	-0.4876225347	 2.9981531525	 0.080901
H	-1.4470882374	 0.4588170952	 2.0676710453	 0.081975
47.0407	104.7982	185.5487	207.7258	243.3241	292.9722	328.1333	394.8248	422.3796	427.8825	547.7447	611.1196	704.8298	754.7555	792.4364	816.3695	842.3887	891.3163	904.8173	926.0448	958.5252	997.9053	1015.8443	1019.3117	1042.4245	1076.3592	1089.7643	1122.3912	1142.0427	1190.8967	1246.246	1270.0668	1284.5068	1290.1313	1306.1387	1353.0122	1369.6172	1373.8094	1390.8724	1414.2159	1431.7422	1458.585	1466.9125	1482.9423	1493.704	1500.344	1506.0866	1681.8688	1712.5671	2968.3686	2988.8842	3010.8265	3016.086	3030.552	3032.6511	3052.5144	3071.3034	3098.236	3104.8716	3121.7848	3133.3456	3147.5601	3160.3104
CCC1CCC=CC=C1	CC[C@H]1CCC=CC=C1	
InChI=1S/C9H14/c1-2-9-7-5-3-4-6-8-9/h3-5,7,9H,2,6,8H2,1H3	InChI=1S/C9H14/c1-2-9-7-5-3-4-6-8-9/h3-5,7,9H,2,6,8H2,1H3/t9-/m1/s1
