21
gdb 116959	6.4836	0.4747	0.46633	0.9237	90.21	-0.2415	0.0418	0.2833	2422.3374	0.180374	-387.032957	-387.022415	-387.021471	-387.07114	36.435	
C	-0.139753898	 1.359808495	-0.5361701031	-0.217257
O	-0.2570126716	-0.0414746695	-0.6017344074	-0.227552
C	 0.9965799017	-0.6850321569	-0.4625323674	-0.201907
C	 0.8339491015	-2.1301831903	-0.5327799474	 0.00829
C	 0.7253126234	-3.3279842698	-0.5810175311	 0.145386
C	 0.5794029008	-4.7785506548	-0.6685029601	-0.381584
C	 0.8848226815	-5.3355517403	-2.0517550248	 0.045816
C	 2.300271057	-5.6698705779	-2.4377775533	-0.247356
C	 1.2981933064	-6.7759362253	-2.2040645263	-0.278293
H	 0.2742189982	 1.6928761021	 0.4294572759	 0.103042
H	 0.504054136	 1.7565036203	-1.3379965853	 0.102954
H	-1.1435942823	 1.7746060407	-0.6517686538	 0.129584
H	 1.6885722247	-0.3460641909	-1.2539937883	 0.111221
H	 1.4632753029	-0.4056289219	 0.4988947292	 0.110987
H	 1.2389032192	-5.258209761	 0.0675535007	 0.122329
H	-0.4435004703	-5.053540547	-0.3771732191	 0.132356
H	 0.2567086667	-4.9252900456	-2.8367616597	 0.094433
H	 2.6206207682	-5.4684548183	-3.4537893141	 0.112522
H	 3.0754165377	-5.5232132678	-1.6924662488	 0.112599
H	 1.4035933688	-7.3720552502	-1.3030903119	 0.109825
H	 0.9301538175	-7.3308712306	-3.0598108638	 0.112606
16.0547	52.066	68.7708	102.7482	116.3293	233.4567	259.4791	302.7699	308.3663	352.2749	386.2755	469.4326	546.5555	765.0394	793.3926	820.145	845.2005	891.1564	954.5665	977.6789	997.2346	1028.2122	1057.5886	1078.283	1134.6363	1135.8781	1146.9166	1175.7746	1182.8859	1196.4843	1220.1689	1226.7611	1254.6059	1263.5849	1323.1315	1407.6442	1412.591	1461.8848	1471.8912	1477.5051	1484.5396	1496.3354	1507.8889	1517.0499	2373.2811	2939.6419	2955.7524	2965.8118	3006.9575	3009.0196	3038.6475	3118.5882	3128.8961	3133.9718	3154.0033	3207.077	3222.2899
COCC#CCC1CC1	COCC#CCC1CC1	
InChI=1S/C8H12O/c1-9-7-3-2-4-8-5-6-8/h8H,4-7H2,1H3	InChI=1S/C8H12O/c1-9-7-3-2-4-8-5-6-8/h8H,4-7H2,1H3
