14
gdb 8474	3.0031	2.13473	1.60507	4.1646	58.31	-0.2616	0.0001	0.2618	820.361	0.105323	-419.672324	-419.664826	-419.663882	-419.703803	27.805	
C	-0.0749678389	 1.4766312352	 0.0732276727	-0.48856
C	 0.0630602036	-0.0055876502	 0.0698456548	 0.4086
C	 1.1998611048	-0.8670034133	-0.3694088895	-0.392578
C	 0.6227071894	-1.002337879	 1.0551781122	 0.135022
O	 1.3493600901	-0.797211597	 2.1975156872	-0.440182
C	-0.7317887585	-1.6718621043	 0.9362756787	 0.403182
O	-1.3431281879	-2.5506698091	 1.4475499403	-0.329084
O	-1.159316102	-0.8053378104	-0.0648250906	-0.295602
H	 0.8789079472	 1.9385920144	 0.3420914239	 0.140513
H	-0.367617586	 1.8428764704	-0.91597207	 0.142591
H	-0.8322941457	 1.7898721654	 0.7971992936	 0.146219
H	 1.047282808	-1.6394523762	-1.1164985139	 0.134911
H	 2.1760952421	-0.3891135592	-0.3722213297	 0.131691
H	 1.9619563639	-1.5324559967	 2.3136309505	 0.303276
143.9253	174.442	194.2493	253.0065	280.4295	364.7711	395.9986	478.1035	555.7415	626.3534	673.9263	746.1205	792.2546	833.7689	897.6724	957.283	980.6802	1017.612	1068.5839	1100.7311	1134.0283	1211.0992	1285.4907	1359.3686	1419.6966	1434.319	1473.4946	1493.0887	1529.6929	1946.1067	3043.4566	3112.1663	3117.8802	3126.7008	3214.3315	3794.8385
CC12CC1(O)C(=O)O2	C[C@@]12C[C@]1(O)C(=O)O2	
InChI=1S/C5H6O3/c1-4-2-5(4,7)3(6)8-4/h7H,2H2,1H3	InChI=1S/C5H6O3/c1-4-2-5(4,7)3(6)8-4/h7H,2H2,1H3/t4-,5+/m1/s1
