20
gdb 13074	3.93809	1.26314	1.04723	0.8461	80.65	-0.2562	0.0583	0.3145	1170.6428	0.175946	-311.830506	-311.821716	-311.820772	-311.86377	33.064	
C	-0.5357984739	 1.4324352242	-0.0881966798	-0.412859
C	 0.0796650418	 0.0401912349	-0.0704325189	 0.038089
C	 1.4943246499	-0.1774748541	-0.6765448612	-0.227462
C	 1.7933747642	-1.1854244757	 0.4657137342	-0.218213
C	 0.5937955417	-0.5999360285	 1.2647169544	 0.004719
C	 1.0109215731	 0.406484866	 2.3525774708	-0.376724
C	 1.6550722936	-0.2413697786	 3.4896151271	 0.296978
C	 2.1827289906	-0.8001203191	 4.4142620871	-0.432526
H	 0.1303977434	 2.1792473396	 0.3564127747	 0.113469
H	-0.739389833	 1.7491507382	-1.1171767757	 0.113007
H	-1.4851533293	 1.4625449296	 0.4587566074	 0.114121
H	-0.6197870636	-0.6647805859	-0.5340864182	 0.072366
H	 1.5508260513	-0.5424156444	-1.7051051052	 0.094238
H	 2.1104149604	 0.7247053092	-0.601888429	 0.09693
H	 1.6156212653	-2.2198551738	 0.1604242661	 0.099978
H	 2.7725662544	-1.1323530258	 0.9477624641	 0.104951
H	-0.0776450222	-1.3352352852	 1.7164786783	 0.073159
H	 1.694430867	 1.1555883486	 1.9317444391	 0.126318
H	 0.1303234941	 0.9613583433	 2.7007901188	 0.127977
H	 2.6488823214	-1.2822940824	 5.2371491661	 0.191483
78.7357	117.2945	125.2499	210.7303	231.5134	329.7246	335.6666	359.1737	473.2641	510.366	615.4922	631.4953	637.7853	750.7662	833.6964	874.5075	892.5552	910.7159	941.269	954.0881	977.3003	1017.7921	1075.8549	1129.6306	1139.6335	1162.8683	1210.5143	1231.1085	1258.7564	1263.7687	1274.5033	1304.295	1322.8058	1372.3262	1378.2861	1408.7263	1470.0907	1482.3809	1495.1312	1498.514	1501.3405	2236.3307	3016.4638	3025.7019	3032.9131	3045.4264	3048.5235	3059.8792	3070.6246	3088.4774	3094.5418	3099.0521	3115.7431	3507.8925
CC1CCC1CC#C	C[C@H]1CC[C@H]1CC#C	
InChI=1S/C8H12/c1-3-4-8-6-5-7(8)2/h1,7-8H,4-6H2,2H3	InChI=1S/C8H12/c1-3-4-8-6-5-7(8)2/h1,7-8H,4-6H2,2H3/t7-,8+/m0/s1
