22
gdb 118506	2.41977	0.938	0.72369	3.2027	79.53	-0.2348	0.0674	0.3022	1611.3991	0.192869	-441.4339	-441.423288	-441.422344	-441.470565	37.427	
C	 0.3017693495	 1.1767761139	 0.2733575052	-0.229812
O	 0.0454175381	-0.1904801619	 0.0571721623	-0.237158
C	 0.625982349	-0.679279494	-1.1334644672	-0.075643
C	 0.259263287	-2.1556354833	-1.2938714613	-0.054073
C	-1.2607104285	-2.3386501632	-1.4555871234	-0.070669
O	-1.6662786919	-3.6894300153	-1.2445472556	-0.418121
C	 1.0358109846	-2.7611936635	-2.4511238217	 0.01868
C	 2.1825499049	-3.6738150075	-2.2053555578	-0.249703
N	 0.9255152959	-4.191621969	-2.7645028086	-0.319007
H	 1.3809601089	 1.3815117518	 0.3547487841	 0.106051
H	-0.104596238	 1.8021828719	-0.5372462209	 0.106077
H	-0.1823893944	 1.4567717751	 1.2120301834	 0.128175
H	 0.2656505314	-0.099330932	-2.0021519307	 0.088058
H	 1.7223858798	-0.5652222044	-1.1037752823	 0.093998
H	 0.548573439	-2.6631079048	-0.3626551319	 0.070467
H	-1.7865633693	-1.6571825988	-0.7763158489	 0.108387
H	-1.5614445814	-2.0918533704	-2.4800802375	 0.113494
H	-1.6664107767	-3.845262356	-0.2949115232	 0.284156
H	 1.0648427278	-2.1329540836	-3.3424428696	 0.083291
H	 3.0287424265	-3.692580287	-2.8869364843	 0.113728
H	 2.4342577667	-3.8986319478	-1.1709483846	 0.104989
H	 0.356834521	-4.6411681701	-2.0516610456	 0.234633
44.9366	87.9925	96.9729	107.1043	158.6	222.0498	227.0747	252.3869	320.4001	335.5997	376.1506	389.0173	478.1455	596.1084	791.9867	850.9576	883.4119	925.0141	953.1123	957.016	991.5963	1050.7903	1070.8832	1100.7981	1107.8291	1135.6049	1155.7015	1162.0196	1181.636	1184.4299	1220.3347	1243.8291	1247.9082	1264.26	1292.5156	1324.993	1340.5429	1399.9688	1404.956	1419.319	1435.5597	1480.5292	1485.6667	1503.2632	1506.5042	1513.4122	1527.9132	2942.8996	2971.6475	2979.3997	3009.9913	3015.6553	3029.3407	3079.5064	3093.6873	3098.5926	3114.8981	3181.6986	3515.5509	3820.1054
COCC(CO)C1CN1	COC[C@@H](CO)[C@H]1CN1	
InChI=1S/C6H13NO2/c1-9-4-5(3-8)6-2-7-6/h5-8H,2-4H2,1H3	InChI=1S/C6H13NO2/c1-9-4-5(3-8)6-2-7-6/h5-8H,2-4H2,1H3/t5-,6-/m1/s1
