17
gdb 9263	3.85581	1.09085	1.03598	2.4695	64.9	-0.2732	0.0045	0.2777	1176.4227	0.140359	-400.99653	-400.987328	-400.986384	-401.031581	31.925	
C	 0.3990703847	 0.9809238845	-0.5379784921	-0.398427
C	-0.2714166519	-0.2309588862	 0.1043800878	 0.097701
C	 0.3935794084	-0.6447138559	 1.4185433951	-0.066465
O	 0.3415158427	 0.3845556985	 2.3869755968	-0.418359
O	-1.6366005714	 0.0543690933	 0.4741200135	-0.261746
C	-2.568160676	 0.0800041808	-0.5726558382	-0.193309
C	-2.7930446349	-1.2504627445	-1.1757113606	 0.253025
N	-2.9550708786	-2.2932135036	-1.6460226252	-0.302348
H	 1.4150282656	 0.7203005832	-0.8504919196	 0.126575
H	-0.1361655238	 1.3259722009	-1.4273265733	 0.114229
H	 0.4573871088	 1.7984688449	 0.1839270816	 0.141435
H	-0.2578886528	-1.0910156028	-0.58086801	 0.094835
H	-0.0867287877	-1.5650256087	 1.7819762155	 0.101297
H	 1.4517617735	-0.8609284632	 1.2408799098	 0.112814
H	-0.5911828613	 0.598065119	 2.504656696	 0.292451
H	-3.5131478547	 0.4349491455	-0.1498492574	 0.16217
H	-2.2848693407	 0.7747399244	-1.3760015896	 0.144123
24.3775	85.8149	116.814	199.1155	224.6348	239.1875	328.4547	343.8499	371.5177	428.9489	441.6363	582.8146	678.3642	795.2736	895.661	903.8606	920.5671	1000.2372	1038.8673	1078.8521	1120.1803	1139.2451	1152.2512	1238.0504	1292.0322	1353.1488	1370.8114	1389.9286	1395.5897	1416.1438	1431.773	1472.165	1487.1658	1496.463	1500.8177	2357.5762	2996.8106	3011.1436	3015.4099	3048.1039	3086.2341	3087.5146	3111.3004	3137.6285	3804.1213
CC(CO)OCC#N	C[C@@H](CO)OCC#N	
InChI=1S/C5H9NO2/c1-5(4-7)8-3-2-6/h5,7H,3-4H2,1H3	InChI=1S/C5H9NO2/c1-5(4-7)8-3-2-6/h5,7H,3-4H2,1H3/t5-/m0/s1
