21
gdb 100898	2.35361	1.02456	0.82935	1.5142	81.09	-0.2582	0.0336	0.2918	1467.648	0.178551	-424.174755	-424.163561	-424.162617	-424.211174	39.766	
C	 0.6001050283	 0.6006644098	 1.0183643106	-0.237547
O	-0.2200950718	 0.2251156717	-0.0686063984	-0.236773
C	 0.4738375956	-0.418499231	-1.1278834777	-0.085975
C	 1.0182613515	-1.7226749056	-0.7225098414	 0.341012
C	 1.4683976259	-2.787654381	-0.3922263638	-0.452693
C	-0.4973399817	-0.5381107616	-2.3216826113	-0.001649
C	-1.7427875956	-1.360213428	-1.9725964429	-0.411277
C	-0.8559277796	 0.866318942	-2.8381365358	-0.084113
O	-1.6131419099	 0.8333807766	-4.0384817336	-0.425515
H	 1.0644407712	-0.2709942722	 1.4982448326	 0.122151
H	 1.3967344955	 1.2916843644	 0.7014969104	 0.10496
H	-0.0431114919	 1.1083196415	 1.7406117348	 0.128615
H	 1.3237334631	 0.2163667756	-1.4371479858	 0.089433
H	 1.8671229957	-3.7288647481	-0.1032239266	 0.198772
H	 0.0523697922	-1.0490261725	-3.1214043274	 0.091899
H	-2.3156631144	-0.8799224927	-1.1738974405	 0.129507
H	-2.3852616437	-1.4730444483	-2.8511332897	 0.105825
H	-1.46824553	-2.3629280973	-1.634488539	 0.130238
H	-1.3720489585	 1.4293302917	-2.0490730404	 0.106035
H	 0.0628810852	 1.4118616548	-3.0830741562	 0.101839
H	-2.513417577	 0.5821767202	-3.8135841281	 0.285255
69.6364	90.7266	102.4898	131.8362	174.4856	190.6385	214.2235	244.1324	278.0108	307.3656	341.2496	353.0608	413.0229	484.2374	584.8873	624.044	672.1632	672.984	838.8786	891.7185	913.9515	953.5677	1000.3014	1070.8407	1099.2187	1115.7295	1129.0877	1147.1718	1184.9692	1215.1199	1245.5303	1294.4574	1329.415	1365.0746	1374.2871	1390.9405	1405.3397	1423.2393	1478.7286	1484.9619	1498.5605	1500.2116	1509.1783	1511.6551	2227.0969	2937.3205	2983.4371	3014.2838	3040.5221	3042.8942	3046.9658	3068.3016	3111.1694	3121.3037	3121.558	3501.4208	3837.3717
COC(C#C)C(C)CO	CO[C@@H](C#C)[C@@H](C)CO	
InChI=1S/C7H12O2/c1-4-7(9-3)6(2)5-8/h1,6-8H,5H2,2-3H3	InChI=1S/C7H12O2/c1-4-7(9-3)6(2)5-8/h1,6-8H,5H2,2-3H3/t6-,7-/m0/s1
