15
gdb 29850	3.87121	1.12603	0.87716	4.4554	76.1	-0.2167	-0.0556	0.1611	1243.9473	0.113262	-454.024052	-454.015744	-454.0148	-454.057388	29.615	
C	-0.0099962856	 1.4695766083	 0.0094510847	-0.349652
N	-0.0409637455	 0.0215775623	 0.0009791235	-0.091254
C	-1.1391814415	-0.7947705737	 0.0035497988	-0.171305
C	-0.7094904872	-2.0900104357	-0.0062889289	 0.232614
N	 0.6823471626	-2.048456812	-0.0150758128	-0.430108
C	 1.1457423636	-0.7514740318	-0.0116233076	 0.480622
O	 2.2811829388	-0.3278170568	-0.0161381094	-0.423996
C	-1.4570009593	-3.3228415268	-0.0079339444	 0.07818
O	-0.938623035	-4.4236181848	-0.0168769121	-0.311729
H	 1.0410862032	 1.7623317085	 0.0019182245	 0.18106
H	-0.5066815152	 1.8784268136	-0.8757698418	 0.142247
H	-0.4908180157	 1.8678673553	 0.9081683993	 0.142292
H	-2.1459701655	-0.4092054848	 0.0124098939	 0.159537
H	 1.2716443626	-2.863695376	-0.0229794042	 0.286238
H	-2.5591168104	-3.1904122156	 0.0003777166	 0.075255
95.8548	103.0247	153.7786	187.8962	226.9728	292.4423	380.8871	446.348	506.4714	549.3644	625.5316	673.9862	743.9164	747.7864	783.7824	833.0953	1004.0389	1010.7769	1072.9171	1156.7508	1166.3256	1188.1265	1289.5822	1304.4749	1392.4629	1430.7632	1452.8152	1487.2144	1497.3753	1506.3587	1642.6624	1759.1183	1844.5055	2912.1848	3040.0544	3102.5009	3151.5585	3269.1814	3683.3429
CN1C=C(NC1=O)C=O	Cn1cc([nH]c1=O)C=O	
InChI=1S/C5H6N2O2/c1-7-2-4(3-8)6-5(7)9/h2-3H,1H3,(H,6,9)	InChI=1S/C5H6N2O2/c1-7-2-4(3-8)6-5(7)9/h2-3H,1H3,(H,6,9)
