13
gdb 129292	3.21222	1.48542	1.01572	3.136	80.3	-0.2402	-0.0927	0.1475	1071.1177	0.088706	-415.554476	-415.546985	-415.546041	-415.586683	28.065	
N	-0.0217593963	 1.2302962593	 0.4194485053	-0.521793
C	-0.0455585255	 0.035377248	 0.0030713733	 0.370161
O	 1.110113642	-0.5555321613	-0.4971211097	-0.284343
N	 1.1833839248	-1.8583352521	-0.976152197	-0.061573
C	 0.092781647	-2.5426397905	-0.9431307991	 0.036993
C	-1.1693141947	-2.0649175646	-0.4560804363	-0.222003
C	-1.2573505714	-0.7968196795	 0.0143869261	 0.041923
C	-2.460356645	-0.2431090679	 0.5133981147	 0.288288
C	-3.4997056412	 0.1972482316	 0.9310952571	-0.365754
H	 0.913683346	 1.6285426397	 0.3244038854	 0.232522
H	 0.1952804462	-3.5530466049	-1.3261637701	 0.14422
H	-2.0331247663	-2.7177591188	-0.4690935793	 0.132877
H	-4.4060568354	 0.6066102511	 1.3043524295	 0.208483
84.6452	147.7524	163.0209	304.7978	377.2246	463.5799	470.1991	540.5393	573.4191	590.792	646.1106	651.402	724.5413	775.5261	868.416	877.4303	888.6588	942.4675	959.5411	1003.0163	1068.5566	1185.4352	1277.1008	1350.7495	1385.7427	1604.0426	1662.0071	1729.4603	2229.8626	3188.9388	3216.4472	3484.8237	3501.3942
N=C1ON=CC=C1C#C	[NH]C1=C([CH]C=NO1)C#C	
InChI=1S/C6H4N2O/c1-2-5-3-4-8-9-6(5)7/h1,3-4,7H	InChI=1S/C6H4N2O/c1-2-5-3-4-8-9-6(5)7/h1,3-4,7H
