17
gdb 97478	6.39791	0.43269	0.41865	1.595	94.06	-0.2432	-0.0236	0.2196	2541.3504	0.132968	-421.767312	-421.756622	-421.755677	-421.805266	36.478	
C	-0.2444058465	 1.4783481995	 0.0492495027	-0.387076
C	-0.005269647	-0.037567898	-0.0231461527	-0.05934
O	 0.6617340306	-0.4111585623	-1.2257566788	-0.408204
C	 0.7008671698	-0.5252183406	 1.1642196592	 0.365636
C	 1.3161916249	-0.9093623301	 2.1347083958	-0.292495
C	 2.0027599866	-1.3457180206	 3.2232546894	-0.243359
C	 2.6128117747	-1.7257575801	 4.1984685847	 0.287662
C	 3.3563638505	-2.2407934867	 5.3447403067	-0.224296
O	 2.9508901892	-3.5395699056	 5.7494658571	-0.396502
H	 0.7080802643	 2.0137934556	 0.1156645763	 0.120687
H	-0.7697326807	 1.8024430808	-0.8527200851	 0.129797
H	-0.8428521777	 1.7377702045	 0.927103651	 0.13069
H	-0.9769206133	-0.5436205217	-0.0829745443	 0.126692
H	 1.5683229118	-0.0888118413	-1.1671971555	 0.284916
H	 4.4344654206	-2.2053670859	 5.1175808513	 0.12575
H	 3.1977397964	-1.5935523949	 6.2149665764	 0.14822
H	 2.9830015657	-4.1096523626	 4.9738282059	 0.29122
16.4007	58.4901	68.7154	131.4266	166.5182	242.4103	262.1786	278.1069	308.4197	344.3543	352.3592	452.231	506.3991	556.0805	567.2223	605.5647	669.0198	843.6248	926.8023	983.0342	1028.3844	1051.2907	1082.0672	1110.8852	1212.3915	1261.5469	1283.7867	1334.0325	1356.6249	1399.1784	1411.7356	1419.8557	1484.4696	1487.7302	1491.0007	2265.9844	2372.8355	2972.2903	3035.5149	3041.5295	3059.4827	3117.0455	3130.0119	3802.0117	3815.0161
CC(O)C#CC#CCO	C[C@@H](O)C#CC#CCO	
InChI=1S/C7H8O2/c1-7(9)5-3-2-4-6-8/h7-9H,6H2,1H3	InChI=1S/C7H8O2/c1-7(9)5-3-2-4-6-8/h7-9H,6H2,1H3/t7-/m1/s1
