20
gdb 113236	4.2616	0.79648	0.75842	1.9301	81.38	-0.2481	0.0388	0.2868	1540.9491	0.16861	-403.086785	-403.076598	-403.075654	-403.122347	37.413	
C	 0.0058651933	 1.7513565925	 0.11621465	-0.453029
C	-0.1417459218	 0.2476345076	 0.2237631256	 0.320391
C	-1.4410476363	-0.2970003688	-0.3809913966	-0.436635
C	-1.527090426	-0.1128332822	-1.8273023114	 0.314466
C	-1.5799634209	 0.0380258638	-3.0185543205	-0.447544
N	 1.0864885654	-0.5370418441	 0.0093379551	-0.373229
C	 0.4417781126	-0.549138634	 1.3416208799	-0.083003
C	 1.2994842469	-0.0022960966	 2.4609699158	-0.074016
O	 2.4163164684	-0.8448855818	 2.6906317239	-0.419722
H	 0.9971423988	 2.0759398885	 0.4339087099	 0.13163
H	-0.1322934542	 2.063453211	-0.9237770948	 0.136203
H	-0.7457318437	 2.2644455966	 0.7266661056	 0.114882
H	-1.5336399802	-1.3647176407	-0.1453579746	 0.127296
H	-2.2955529124	 0.1965718591	 0.1010231842	 0.137085
H	-1.6329335555	 0.1695721248	-4.0709223204	 0.199993
H	 0.8831466354	-1.3923860345	-0.5019994472	 0.233277
H	-0.095904727	-1.4574570712	 1.6122311015	 0.084915
H	 1.617019468	 1.0252557063	 2.2380854148	 0.090066
H	 0.7310221067	 0.0212629732	 3.3968593457	 0.106929
H	 2.8600637426	-0.9252743495	 1.8374468937	 0.290045
49.6871	64.7738	123.5179	156.2841	203.6133	233.5932	304.7813	340.5369	368.0294	390.7014	428.8116	442.958	484.7117	625.8244	639.4152	646.9672	723.238	835.5575	870.8249	917.9883	935.4522	974.4299	982.8052	1034.0626	1055.382	1091.5829	1104.4732	1126.6999	1190.8007	1211.0968	1260.7431	1277.1431	1335.946	1356.9714	1377.9743	1418.2647	1427.8058	1462.4926	1464.1544	1492.2398	1497.6498	1508.2033	2237.4781	3011.705	3015.6085	3039.2808	3050.4496	3072.8806	3101.8768	3111.8642	3143.8994	3497.5256	3505.3286	3785.0307
CC1(CC#C)NC1CO	C[C@@]1(CC#C)N[C@H]1CO	
InChI=1S/C7H11NO/c1-3-4-7(2)6(5-9)8-7/h1,6,8-9H,4-5H2,2H3	InChI=1S/C7H11NO/c1-3-4-7(2)6(5-9)8-7/h1,6,8-9H,4-5H2,2H3/t6-,7-/m0/s1
