18
gdb 87701	3.06301	1.17234	0.98207	3.0874	75.98	-0.2382	0.0343	0.2725	1245.8673	0.146577	-439.084346	-439.075104	-439.07416	-439.118622	33.113	
C	-0.0304741783	 1.4248888541	-0.1223846647	-0.341486
N	-0.0213641711	-0.0099638169	-0.0408516739	-0.09828
C	-1.1013531581	-1.0076238374	 0.011743636	-0.24541
C	 0.0098264687	-2.0673314653	-0.000940857	 0.164906
C	 0.1200396518	-3.3806174392	 0.7285611792	-0.38722
C	 0.0557320264	-3.3432718416	-0.7773328055	 0.041855
O	-1.1314712564	-3.6920168528	-1.4255748762	-0.421188
C	 1.0083104163	-0.9237260198	-0.0549753989	 0.374095
O	 2.2068707113	-0.804264108	-0.1011024631	-0.392842
H	 1.008859592	 1.7591673324	-0.1721727101	 0.160724
H	-0.5571383045	 1.7766195691	-1.018666317	 0.127367
H	-0.5044648523	 1.8782375229	 0.7571961998	 0.126503
H	-1.7044539066	-0.9612857303	 0.9256054096	 0.109637
H	-1.7550864162	-1.0107494364	-0.8665904331	 0.126048
H	 1.0671672018	-3.6118667054	 1.2052124503	 0.133635
H	-0.7665827796	-3.7284698665	 1.2489624763	 0.120681
H	 0.9727055816	-3.5470303344	-1.3300630286	 0.108407
H	-1.2006623168	-4.6526777347	-1.4254144931	 0.292566
75.0547	118.0161	146.2221	170.0155	172.8661	243.0829	262.9994	302.8603	390.4029	461.4038	531.7994	592.2321	718.6301	795.0746	800.4187	842.9152	911.8387	945.9866	1017.5548	1025.8076	1053.0505	1082.4982	1105.2567	1122.8794	1167.3723	1170.2316	1189.2666	1231.2836	1275.2641	1294.7216	1367.006	1414.1204	1427.2741	1448.0953	1481.8955	1499.7702	1512.4667	1533.0465	1873.0292	3010.149	3031.5771	3059.2006	3080.9505	3107.9349	3125.945	3126.1792	3219.8625	3804.3176
CN1CC2(CC2O)C1=O	CN1C[C@]2(C[C@H]2O)C1=O	
InChI=1S/C6H9NO2/c1-7-3-6(5(7)9)2-4(6)8/h4,8H,2-3H2,1H3	InChI=1S/C6H9NO2/c1-7-3-6(5(7)9)2-4(6)8/h4,8H,2-3H2,1H3/t4-,6+/m1/s1
