24
gdb 10727	2.6386	1.4621	1.32694	0.1594	84.62	-0.261	0.0855	0.3465	1144.8625	0.222002	-314.269834	-314.259812	-314.258868	-314.305713	37.561	
C	 0.4817631189	-0.759311314	 1.3499515942	-0.400956
C	 0.2418487892	 0.1135566571	 0.1130613043	-0.256029
C	 0.8882699762	-0.3334444474	-1.1984261565	 0.401562
C	 2.2404008337	-1.0080443663	-1.1834924098	-0.316239
C	 1.0011596286	-1.8054651042	-1.5207189207	-0.316465
C	 0.6262510822	 0.5832861326	-2.4031182313	-0.014971
C	-0.8618564496	 0.6560597209	-2.7801960666	-0.398064
C	 1.2194795203	 1.9890143191	-2.2187617944	-0.397942
H	 0.10228875	-1.777202993	 1.2178652045	 0.118593
H	 1.5427761257	-0.8254895725	 1.6094621209	 0.118693
H	-0.0364523983	-0.3302655004	 2.2131568676	 0.113041
H	-0.8414019624	 0.1937464532	-0.0430294205	 0.098468
H	 0.5858012976	 1.1302125942	 0.3416652994	 0.098318
H	 2.9322294554	-0.7738686299	-1.9865285074	 0.103617
H	 2.7251423189	-1.2055814851	-0.2342614392	 0.106612
H	 0.6578079494	-2.5354745127	-0.7965965838	 0.106578
H	 0.8542632921	-2.111103255	-2.5518988877	 0.103695
H	 1.1505609944	 0.1222266009	-3.2516343904	 0.064282
H	-0.9957883768	 1.1992579596	-3.7216172917	 0.107097
H	-1.2891061301	-0.3442839249	-2.9038050756	 0.112381
H	-1.4481186962	 1.1797852493	-2.0177029285	 0.114126
H	 2.2776211815	 1.9398416659	-1.9423558397	 0.11239
H	 1.1389168582	 2.5669040135	-3.1454973877	 0.107094
H	 0.694630581	 2.5517562193	-1.4395103793	 0.114118
10.6823	72.5321	196.9772	213.2875	243.6796	253.1302	269.7634	290.1675	315.6828	333.5284	439.0887	496.4742	509.0161	644.4717	778.0179	780.3796	837.9113	898.1153	914.1546	925.5918	939.6517	953.1532	968.0958	1031.5053	1048.296	1064.4716	1080.6668	1111.3457	1125.4056	1154.7494	1186.9814	1188.1575	1268.47	1297.0768	1315.8526	1348.4815	1385.0962	1394.5458	1396.9892	1414.8355	1418.289	1463.7983	1487.0022	1489.176	1496.8462	1501.4304	1506.0103	1507.4476	1511.4576	1515.4264	2998.6691	3018.3296	3028.0506	3033.7597	3039.0223	3048.0674	3093.769	3099.4107	3100.8278	3102.189	3103.6716	3108.2348	3127.8236	3131.1175	3203.8054	3217.6316
CCC1(CC1)C(C)C	CCC1(CC1)C(C)C	
InChI=1S/C8H16/c1-4-8(5-6-8)7(2)3/h7H,4-6H2,1-3H3	InChI=1S/C8H16/c1-4-8(5-6-8)7(2)3/h7H,4-6H2,1-3H3
