16
gdb 52644	3.84232	0.81003	0.70691	3.9685	80.07	-0.2655	-0.0865	0.1791	1574.7439	0.120569	-400.746094	-400.735613	-400.734669	-400.783868	34.637	
C	-0.1265656308	 1.5276749383	 0.0234699872	-0.500514
C	-0.0246769772	 0.0766238024	-0.0092677533	 0.11367
C	 0.0690819202	-1.1222442325	-0.0418198592	 0.061993
C	 0.1574463558	-2.5741257748	-0.0745247547	-0.299051
C	-1.2175651845	-3.2580228557	 0.1520020993	-0.404466
C	 0.7675132021	-3.0756201273	-1.385237577	 0.313302
O	 0.9933112679	-2.4154095257	-2.3623192763	-0.251234
C	 1.0816746662	-4.5254819879	-1.3822161399	 0.226997
N	 1.334884017	-5.6538377967	-1.372478162	-0.30496
H	 0.5231349845	 1.953705903	 0.7955005256	 0.153107
H	 0.1681304689	 1.9618604614	-0.9378077969	 0.159454
H	-1.1519818906	 1.8492967981	 0.2349117106	 0.152439
H	 0.8324051117	-2.9279392951	 0.7198279527	 0.140265
H	-1.1209101012	-4.3469298092	 0.138482846	 0.147183
H	-1.6130389525	-2.9550388443	 1.1232057688	 0.145945
H	-1.9261453575	-2.9519590141	-0.6214240709	 0.145872
21.3197	35.6606	75.2894	128.9861	154.4301	207.8333	241.5325	275.7341	301.1708	332.5677	399.4308	458.5308	509.4046	591.4095	716.5361	759.6161	786.8182	978.094	1032.1048	1050.354	1051.8086	1063.4124	1100.9279	1192.582	1276.1841	1352.9411	1405.4398	1413.8288	1476.3631	1476.5255	1492.0872	1499.1519	1808.5771	2334.8667	2379.9711	2995.4326	3031.0264	3052.7986	3093.3466	3095.5451	3132.8952	3141.1968
CC#CC(C)C(=O)C#N	CC#C[C@@H](C)C(=O)C#N	
InChI=1S/C7H7NO/c1-3-4-6(2)7(9)5-8/h6H,1-2H3	InChI=1S/C7H7NO/c1-3-4-6(2)7(9)5-8/h6H,1-2H3/t6-/m1/s1
