17
gdb 18148	3.1032	2.11077	1.61398	3.1919	68.03	-0.2337	-0.0267	0.207	844.9537	0.141471	-363.81775	-363.810179	-363.809235	-363.849478	28.265	
C	-0.3457162797	 1.4312882824	 0.1009945084	-0.417556
C	 0.0055380495	-0.0374216657	 0.0442769541	 0.032999
C	 0.5790157221	-0.7513354225	-1.1129755329	-0.037507
C	 1.5995273078	 0.0932510851	-1.8790161292	-0.298942
C	 2.3689923073	 0.174311763	-0.5256258508	-0.037755
C	 2.8155944955	 1.4981644238	 0.0359611545	 0.155206
O	 2.5038722544	 1.9568943955	 1.1040107359	-0.243061
N	 1.3502925477	-0.6438651911	 0.2066691805	-0.156458
H	 0.2240641804	 2.0438366591	-0.6004014881	 0.115698
H	-1.4065496808	 1.5511322347	-0.1449575445	 0.115802
H	-0.1732586413	 1.8303267538	 1.1031530657	 0.151027
H	-0.692255807	-0.6492985885	 0.6137860207	 0.101552
H	 0.1991787231	-1.704995866	-1.4657126916	 0.098179
H	 2.1440862555	-0.4599282031	-2.6445627694	 0.119348
H	 1.2298176232	 1.0253582145	-2.3164022828	 0.113289
H	 3.2864857629	-0.4266863351	-0.5966130292	 0.114979
H	 3.5247727795	 2.0359475503	-0.6397135914	 0.0732
104.8071	159.2889	193.8812	228.5415	270.0221	333.7204	405.6039	531.0146	657.7737	710.0989	725.4718	777.5335	820.262	890.4594	914.6629	977.1424	992.304	1025.0535	1074.2948	1094.9397	1104.3015	1120.4808	1150.668	1163.6466	1244.6704	1251.0872	1276.5065	1344.4067	1355.847	1414.2182	1420.8921	1441.2615	1485.9141	1496.6011	1501.0275	1831.5165	2835.6619	3012.9162	3044.563	3057.0267	3109.7777	3122.3717	3126.622	3137.9906	3161.6001
CC1C2CC(C=O)N12	C[C@H]1[C@H]2C[C@@H](C=O)N12	
InChI=1S/C6H9NO/c1-4-6-2-5(3-8)7(4)6/h3-6H,2H2,1H3	InChI=1S/C6H9NO/c1-4-6-2-5(3-8)7(4)6/h3-6H,2H2,1H3/t4-,5-,6+,7?/m0/s1
