16
gdb 33688	4.03831	1.45394	1.34901	1.5936	79.08	-0.2206	0.0316	0.2522	969.509	0.125377	-363.522788	-363.516143	-363.515199	-363.553587	27.532	
C	-0.016149801	-1.1941171621	-0.0543475779	-0.357335
C	-0.0062585552	 0.0090091883	-0.0057292347	 0.044744
C	 0.0248069012	 1.4228902651	 0.0498621855	 0.259535
C	-1.0520670195	 2.3268197054	 0.6769797315	-0.133724
C	-0.4055471483	 3.4359243095	 1.4788904214	-0.248199
C	 0.8239787095	 3.6306623608	 0.6207350454	-0.048001
C	 1.2565763165	 2.3538580184	 0.0035906332	-0.123135
N	 0.5361226464	 3.3686174904	-0.8287691403	-0.157403
C	-0.6896723457	 2.4900015005	-0.7675697098	-0.078693
H	-0.0274216689	-2.2546045422	-0.0993828684	 0.178582
H	-1.9964807007	 1.8724947955	 0.9459492614	 0.109441
H	-1.0309875197	 4.3339914668	 1.5197383635	 0.11586
H	-0.1511130665	 3.1353458379	 2.5002735412	 0.11634
H	 1.5310137605	 4.4324140628	 0.8004051822	 0.102957
H	 2.2722669782	 2.0461984445	-0.2123341678	 0.105414
H	-1.3481484867	 2.4057796384	-1.6209054664	 0.113616
139.8061	154.3396	378.3251	451.8613	490.6268	513.6668	558.9292	588.4919	661.4769	702.8098	728.6985	757.2216	800.4062	820.3592	870.343	895.9197	931.9255	957.6276	975.4219	996.158	1012.4795	1038.6908	1047.5028	1066.812	1143.0382	1164.5075	1188.096	1209.3111	1249.4847	1278.6966	1304.6378	1368.9515	1416.0536	1485.6291	2232.8713	3049.1193	3094.3658	3183.2399	3194.5816	3209.3689	3218.7374	3503.611
C#CC12C3CC4C1N4C23	C#C[C@@]12[C@H]3C[C@H]4[C@@H]1N4[C@@H]23	
InChI=1S/C8H7N/c1-2-8-4-3-5-7(8)9(5)6(4)8/h1,4-7H,3H2	InChI=1S/C8H7N/c1-2-8-4-3-5-7(8)9(5)6(4)8/h1,4-7H,3H2/t4-,5-,6+,7-,8-,9?/m0/s1
