14
gdb 132364	1.99569	1.83081	0.9605	2.519	67.08	-0.2636	-0.0325	0.2311	1129.5625	0.101391	-478.058412	-478.050869	-478.049925	-478.090955	27.863	
C	-0.0612373312	 1.5061920738	 0.0626041479	-0.467594
C	 0.0166951991	 0.0094576443	-0.0241138654	 0.339433
C	-0.0595606201	-0.6660434971	-1.2325324937	-0.272369
C	 0.0263617082	-2.0594681685	-1.1718992265	 0.453881
O	-0.0398075055	-2.7761832023	-2.2997155663	-0.403904
N	 0.1733170157	-2.7224897548	-0.0281116739	-0.41265
C	 0.2317785584	-1.9555076688	 1.0497839596	 0.338488
F	 0.3775639118	-2.6099959376	 2.1867499082	-0.056851
N	 0.1657268628	-0.6482401507	 1.1451692759	-0.373043
H	 0.8445030176	 1.8996634861	 0.5344946386	 0.151708
H	-0.1799627121	 1.9652066691	-0.9207894506	 0.126243
H	-0.9026464939	 1.7992763173	 0.6982702904	 0.151709
H	-0.1789313183	-0.1578484965	-2.1793382437	 0.117001
H	 0.0381790673	-3.7063381442	-2.0418375904	 0.307948
70.2724	184.1532	213.4108	236.5559	296.7836	357.8819	529.7467	561.8502	561.9668	592.1471	616.0869	630.1019	733.8133	811.8417	866.9763	990.5604	1006.2697	1017.3602	1059.8191	1097.3329	1192.8054	1227.8636	1324.1519	1402.5926	1454.9364	1461.5706	1471.5091	1480.6461	1501.5207	1616.6685	1658.4264	3046.9106	3108.4533	3137.6216	3227.8752	3756.8154
CC1=CC(O)=NC(F)=N1	Cc1cc(O)nc(F)n1	
InChI=1S/C5H5FN2O/c1-3-2-4(9)8-5(6)7-3/h2H,1H3,(H,7,8,9)	InChI=1S/C5H5FN2O/c1-3-2-4(9)8-5(6)7-3/h2H,1H3,(H,7,8,9)
