20
gdb 97899	5.38564	0.5487	0.51475	4.4426	90.04	-0.2586	0.027	0.2856	2142.0221	0.168912	-366.016049	-366.005167	-366.004223	-366.055246	37.358	
C	-0.0160549974	 1.5883306612	 0.0613125933	-0.364436
C	 0.0099832387	 0.0498453784	 0.0002350544	-0.316313
C	 0.6753796178	-0.461234493	-1.1945567448	 0.129404
C	 1.232188163	-0.8453322301	-2.1917518353	 0.006485
C	 1.908513121	-1.3430993187	-3.3829230847	-0.355357
C	 1.9166030486	-2.8989825949	-3.4531659603	-0.131959
C	 0.5006473145	-3.4933492977	-3.5523717741	-0.388244
C	 2.7448267017	-3.3342896281	-4.5821630594	 0.264751
N	 3.3937441511	-3.6661438058	-5.4792940551	-0.322071
H	 0.9989749244	 1.994368032	 0.0628650471	 0.130227
H	-0.5438678391	 2.0025537914	-0.8018286715	 0.129908
H	-0.5237211525	 1.9238435728	 0.9703229408	 0.117342
H	 0.5126252025	-0.3436740506	 0.8929662549	 0.130841
H	-1.016963439	-0.3354185664	 0.0385523669	 0.130071
H	 1.4260758687	-0.9543972823	-4.2884028313	 0.143166
H	 2.9433729079	-0.9828778904	-3.406812447	 0.14676
H	 2.3934147706	-3.2704648446	-2.5384544182	 0.136906
H	 0.5350649917	-4.5852368131	-3.5578767607	 0.136398
H	-0.0910130375	-3.1610094477	-2.6965416597	 0.140995
H	 0.0056626135	-3.1612948926	-4.4696288552	 0.135127
4.684	53.7595	66.9228	158.3769	168.4542	181.0306	222.0101	255.9442	272.7527	334.4367	392.3507	464.1603	498.4665	548.8457	566.7576	749.9974	786.5043	822.5211	892.5063	915.9927	967.9887	1063.3192	1078.6014	1094.9929	1105.5058	1130.249	1166.3455	1243.1164	1286.0781	1296.5007	1334.559	1349.8989	1366.3149	1408.8049	1409.3529	1472.6822	1476.8876	1494.4479	1495.955	1498.0984	1505.5903	2356.1034	2365.927	3021.1536	3028.697	3045.4555	3045.9676	3048.5114	3051.7129	3067.8932	3119.9601	3125.4178	3126.6916	3138.3442
CCC#CCC(C)C#N	CCC#CC[C@@H](C)C#N	
InChI=1S/C8H11N/c1-3-4-5-6-8(2)7-9/h8H,3,6H2,1-2H3	InChI=1S/C8H11N/c1-3-4-5-6-8(2)7-9/h8H,3,6H2,1-2H3/t8-/m1/s1
