23
gdb 101887	5.46294	0.4809	0.45991	3.356	84.17	-0.248	-0.0192	0.2288	2335.2173	0.202466	-425.437861	-425.426376	-425.425432	-425.476199	39.614	
C	 0.0878734016	 1.6390411711	-0.1026761964	-0.392006
C	 0.0316025986	 0.1060734384	-0.0602390739	 0.033712
C	 0.7069242563	-0.4930057972	-1.2962685531	-0.078452
O	 0.0112202999	-0.0478768803	-2.4515985919	-0.423122
C	 0.6577082083	-0.4860870209	 1.2141897762	-0.185532
C	-0.0680742679	-0.1123302719	 2.5122667419	-0.202555
C	 0.5522230028	-0.7858013232	 3.7496018195	-0.27236
C	-0.2299421813	-0.484178527	 5.0065634426	 0.159602
O	 0.223631435	 0.0132239066	 6.0046790704	-0.237607
H	 1.1200629523	 1.9934605671	 0.012081049	 0.106035
H	-0.2886115183	 2.0014243761	-1.0614915232	 0.136284
H	-0.5113463623	 2.0928741042	 0.6915718007	 0.111592
H	-1.0226953737	-0.2028889525	-0.1024716603	 0.081206
H	 1.7647570227	-0.1810491032	-1.3242495821	 0.08242
H	 0.6909815258	-1.5928005106	-1.2280482262	 0.081192
H	 0.4842076639	-0.359491187	-3.2281958486	 0.287148
H	 0.6764046715	-1.5814460199	 1.1285293335	 0.090781
H	 1.7077275219	-0.16828356	 1.2842494641	 0.097142
H	-0.0526716882	 0.9738825189	 2.6547890493	 0.11748
H	-1.1255786105	-0.399054393	 2.433547155	 0.102147
H	 0.5410840845	-1.8768677872	 3.6076635484	 0.115983
H	 1.5902905839	-0.474912433	 3.9009338563	 0.120778
H	-1.310756107	-0.7582462554	 4.9462426588	 0.068134
43.5189	46.3511	78.4804	109.555	120.6459	138.2608	238.6965	242.5178	246.6663	273.1147	316.7608	399.3751	447.7124	500.1604	548.6515	745.0176	792.3627	852.7071	897.4593	924.4892	943.8473	993.7659	1023.639	1045.1246	1064.1179	1084.4693	1119.8961	1164.0332	1171.176	1203.856	1231.0853	1267.2063	1270.5715	1296.247	1318.5512	1333.336	1362.4993	1383.4196	1396.1994	1409.3338	1431.2123	1457.6664	1463.9433	1481.9427	1496.7415	1504.0055	1509.374	1521.5388	1836.6545	2843.9181	2954.5546	2982.4948	3001.3181	3007.5816	3009.6735	3019.9249	3030.1552	3038.2351	3070.718	3097.2087	3100.5115	3131.8178	3836.3417
CC(CO)CCCC=O	C[C@@H](CO)CCCC=O	
InChI=1S/C7H14O2/c1-7(6-9)4-2-3-5-8/h5,7,9H,2-4,6H2,1H3	InChI=1S/C7H14O2/c1-7(6-9)4-2-3-5-8/h5,7,9H,2-4,6H2,1H3/t7-/m1/s1
