16
gdb 20807	3.22418	1.77644	1.24711	2.7935	66.47	-0.211	0.0405	0.2515	971.743	0.131515	-379.944698	-379.936662	-379.935717	-379.977825	28.999	
C	-0.1059001321	 1.560133237	 0.0797042124	-0.359275
C	 0.040916262	 0.0287033362	 0.0310325008	-0.326268
C	 0.7232463596	-0.4789798223	-1.2048134272	 0.076031
C	 2.063984224	-0.7783069127	-1.3688028888	 0.358712
O	 3.1285459391	-0.7516646946	-0.5351730297	-0.428818
N	 2.2452059492	-1.1739661321	-2.6473118072	-0.248041
N	 1.0905844356	-1.1601080843	-3.363488361	-0.241424
C	 0.1843623804	-0.7403066635	-2.4908967879	-0.06758
H	 0.8719285803	 2.0514040479	 0.0427762771	 0.113325
H	-0.6848849322	 1.9202962208	-0.7759935289	 0.126043
H	-0.6147601935	 1.8801056948	 0.9949893642	 0.110267
H	 0.586959214	-0.3093124004	 0.9243999629	 0.080436
H	-0.9510802778	-0.4308869413	 0.1133068528	 0.115342
H	 2.8281677181	-0.4670864733	 0.3342074405	 0.310732
H	 3.1049695961	-1.4715003158	-3.0753971089	 0.275404
H	-0.8461839327	-0.6380171366	-2.8027714312	 0.105114
31.8898	145.8985	193.7692	233.8542	277.078	286.0261	401.006	458.4201	468.8281	632.3024	681.5023	714.9273	734.2108	782.1312	884.0114	940.3839	974.5726	1050.0327	1083.227	1112.2265	1159.9042	1221.2712	1241.1696	1297.1728	1351.321	1367.7007	1391.7442	1410.7494	1456.2514	1483.7647	1495.8721	1506.3806	1585.4676	1642.7398	2993.5883	3033.3344	3049.5829	3103.3976	3111.0795	3229.1771	3680.6353	3829.9913
CCC1=C(O)NN=C1	CCc1c(O)[nH]nc1	
InChI=1S/C5H8N2O/c1-2-4-3-6-7-5(4)8/h3H,2H2,1H3,(H2,6,7,8)	InChI=1S/C5H8N2O/c1-2-4-3-6-7-5(4)8/h3H,2H2,1H3,(H2,6,7,8)
