17
gdb 52524	2.97865	1.03633	0.82255	2.8055	79.8	-0.254	-0.0552	0.1988	1420.2526	0.131956	-421.800275	-421.790147	-421.789203	-421.837266	34.5	
C	-0.2272358778	 1.2051567033	-0.9656895067	-0.506229
C	-0.0078926282	-0.0868352828	-0.3403245911	 0.122958
C	 0.1765613006	-1.1588659873	 0.182594824	 0.01841
C	 0.3509763192	-2.4312466144	 0.8488907519	 0.160138
O	-0.3495398513	-2.7797415059	 1.7777654166	-0.298173
C	 1.4600661372	-3.3244114547	 0.3363092657	 0.307544
C	 1.8325422388	-4.4788613821	 1.232156884	-0.464215
C	 1.6651560904	-3.3962018573	-1.1279589367	-0.224908
O	 2.5370746625	-2.6301333384	-0.3111337007	-0.256999
H	 0.7056787391	 1.6148522108	-1.3665424967	 0.163221
H	-0.9380715896	 1.1159054817	-1.7947417207	 0.162416
H	-0.6394572069	 1.924024129	-0.2499683051	 0.164048
H	 0.9654062554	-5.1202883716	 1.4061832783	 0.142727
H	 2.6329541575	-5.0651436874	 0.7754200692	 0.122349
H	 2.1736609797	-4.1143525526	 2.2052042587	 0.139133
H	 2.0835404087	-4.3139484378	-1.5396046512	 0.122597
H	 1.0270791547	-2.8218046025	-1.7966979895	 0.124984
23.9642	44.6145	77.8758	136.3419	168.848	236.8399	282.4975	311.523	368.4938	371.1599	405.8796	433.4897	556.3424	639.7591	758.6215	803.0738	859.8627	934.7224	950.6315	1034.3472	1045.6691	1052.964	1099.1761	1137.8117	1164.1762	1178.6503	1325.9301	1367.5261	1409.5321	1415.2029	1468.6446	1473.6054	1475.8989	1491.3502	1515.0866	1749.5706	2340.0266	3032.6052	3054.0509	3085.3917	3095.7059	3101.6838	3124.9282	3139.211	3178.7084
CC#CC(=O)C1(C)CO1	CC#CC(=O)[C@@]1(C)CO1	
InChI=1S/C7H8O2/c1-3-4-6(8)7(2)5-9-7/h5H2,1-2H3	InChI=1S/C7H8O2/c1-3-4-6(8)7(2)5-9-7/h5H2,1-2H3/t7-/m1/s1
