17
gdb 109285	3.41726	1.19222	0.91214	2.4403	71.67	-0.2471	-0.0044	0.2426	1248.1861	0.137487	-455.205182	-455.196816	-455.195872	-455.238446	30.614	
C	 0.0522462531	 1.3715816885	 0.0599753152	-0.231023
O	-0.0554171894	-0.0532520823	 0.0001494378	-0.262871
C	-1.3060141592	-0.5412356718	-0.0297161055	 0.511618
N	-2.3479285854	 0.1796145403	-0.0481008109	-0.358192
C	-3.6152125527	-0.5438508226	 0.0104672646	-0.17192
C	-3.5854181985	-1.8907949055	-0.7272674274	-0.333422
C	-2.3713625965	-2.718270625	-0.3452881939	 0.408243
O	-2.3119723416	-3.9256872688	-0.3471026	-0.34877
N	-1.2721273335	-1.9343173786	-0.0246592653	-0.393906
H	 1.1213075985	 1.5811704186	 0.1038394575	 0.132285
H	-0.394332527	 1.8288706564	-0.8264785976	 0.142273
H	-0.4551170126	 1.7599456128	 0.9466409235	 0.141422
H	-3.8836489962	-0.7062553705	 1.0653331495	 0.113359
H	-4.3984106192	 0.0918071779	-0.4119783643	 0.115465
H	-4.481135108	-2.4872474888	-0.543184314	 0.134402
H	-3.5221723857	-1.7189412931	-1.8102474416	 0.136756
H	-0.387477476	-2.4015087174	 0.1152850023	 0.264279
86.1382	140.412	153.6265	189.1399	229.323	280.6816	395.6039	461.3057	493.9055	549.6308	578.574	644.7889	713.1107	735.0026	798.7904	911.1284	937.9756	1002.1167	1057.9354	1067.7063	1137.7548	1183.0249	1195.4586	1221.7797	1237.1281	1275.162	1305.4328	1339.3024	1389.1157	1448.1093	1459.1327	1476.4242	1492.5004	1499.694	1506.5447	1755.3147	1826.5335	2995.5997	3031.8296	3051.4143	3077.9637	3119.0694	3126.5203	3156.884	3615.1699
COC1=NCCC(=O)N1	COC1=NCCC(=O)N1	
InChI=1S/C5H8N2O2/c1-9-5-6-3-2-4(8)7-5/h2-3H2,1H3,(H,6,7,8)	InChI=1S/C5H8N2O2/c1-9-5-6-3-2-4(8)7-5/h2-3H2,1H3,(H,6,7,8)
