19
gdb 32986	4.65615	0.88223	0.78859	0.6746	85.3	-0.2427	-0.0461	0.1966	1489.1418	0.161154	-382.130167	-382.121701	-382.120757	-382.164411	30.91	
C	-0.0954808467	 1.5637542931	-0.0069534425	-0.381556
C	-0.1459646925	 0.0389704871	-0.1208583115	-0.156772
C	 0.8328200447	-0.5116311038	-1.175228274	-0.277561
C	 0.8107811372	-2.0156583264	-1.2484452143	 0.310771
C	 0.2428954677	-2.7011730658	-2.3288898551	-0.060387
N	 0.194102346	-4.0310551153	-2.399201642	-0.232233
C	 0.7238835501	-4.6918895556	-1.3686222953	-0.013603
C	 1.293935277	-4.0234823114	-0.2882795319	-0.020737
N	 1.3409411575	-2.6936097521	-0.2213067501	-0.287895
H	 0.9057295101	 1.9066481863	 0.2764813165	 0.117513
H	-0.3520746946	 2.0433876429	-0.9582325905	 0.113917
H	-0.7985401526	 1.9271540733	 0.7488154326	 0.114999
H	 0.0934560999	-0.4211587522	 0.8441805701	 0.119401
H	-1.1643282302	-0.2823233065	-0.3736916721	 0.097548
H	 0.5948196123	-0.0905897156	-2.1589147659	 0.100802
H	 1.8492171899	-0.1893859814	-0.9200777976	 0.117894
H	-0.1832972065	-2.1508155039	-3.1648890871	 0.109279
H	 0.6959464253	-5.7777364671	-1.4053270654	 0.114781
H	 1.7264107952	-4.5753543456	 0.5430574861	 0.113839
40.3063	87.1614	105.1516	240.9175	253.9801	310.6419	351.6585	422.6036	520.0664	616.5677	669.3333	747.1821	794.0713	841.749	874.111	882.1883	907.4225	971.7954	993.9699	1031.6527	1045.442	1078.7452	1090.6641	1109.3162	1205.4615	1228.7294	1253.9547	1263.6633	1315.1623	1318.6875	1346.5166	1380.4519	1411.8171	1436.1898	1477.7464	1492.7829	1498.0062	1506.9864	1509.074	1579.4565	1615.9232	3024.9127	3028.8374	3035.4512	3062.1716	3080.5839	3100.4378	3103.8905	3150.8202	3151.6975	3172.3549
CCCC1=CN=CC=N1	CCCc1cnccn1	
InChI=1S/C7H10N2/c1-2-3-7-6-8-4-5-9-7/h4-6H,2-3H2,1H3	InChI=1S/C7H10N2/c1-2-3-7-6-8-4-5-9-7/h4-6H,2-3H2,1H3
