20
gdb 22235	2.11428	1.05985	0.83402	0.9433	74.3	-0.2495	-0.0045	0.245	1441.8266	0.167983	-477.370106	-477.359363	-477.358419	-477.406397	38.673	
C	 0.8813176362	-0.7632348915	 1.1213874994	-0.416803
C	-0.0614537815	 0.0744274088	 0.2707273546	 0.074964
O	 0.6509095749	 0.4634229135	-0.9040831214	-0.443157
C	-1.3681986273	-0.6102231367	-0.1319582293	 0.310593
C	-1.5755040226	-2.0984522165	-0.0303656116	-0.266603
C	-0.9223690596	-2.8346665705	-1.2067707637	-0.071096
O	-1.0392619834	-4.2247146586	-0.9510043207	-0.420143
N	-2.3329783051	 0.0411587989	-0.6647074746	-0.169011
O	-2.0151609234	 1.4122387034	-0.8192505177	-0.413904
H	 1.7719857115	-0.1713375474	 1.3471575056	 0.128392
H	 0.4087984707	-1.0489859307	 2.0655325608	 0.120738
H	 1.2022238306	-1.6694297348	 0.6011060795	 0.131626
H	-0.3448077279	 0.9686910008	 0.8441741564	 0.094814
H	 0.073649103	 1.0821998988	-1.3683567832	 0.295177
H	-1.1508054347	-2.489966859	 0.8985287015	 0.117366
H	-2.646060139	-2.3171863891	-0.0302234402	 0.124812
H	-1.4391972811	-2.5449738291	-2.134159459	 0.098597
H	 0.1292131604	-2.5282697163	-1.3121380884	 0.105342
H	-0.6494824735	-4.6995540893	-1.6907913542	 0.287648
H	-2.8254531582	 1.7656107652	-1.2002017036	 0.310647
50.8149	68.8259	98.9506	150.6407	219.9131	246.9598	250.409	299.8266	309.5872	341.8647	387.0236	403.168	435.2681	471.1807	497.8086	655.4468	659.0405	788.7659	815.1683	911.6664	959.7672	999.7935	1029.515	1066.8587	1078.6229	1097.0581	1128.4691	1208.8931	1237.5704	1267.4621	1304.3989	1307.902	1326.8934	1353.4099	1392.956	1398.3394	1438.8586	1451.4205	1479.717	1490.0084	1502.0491	1528.9706	1708.764	2982.7593	2997.9059	3013.0839	3048.6616	3065.0624	3115.9429	3123.7387	3126.4557	3783.1523	3828.3271	3830.6821
CC(O)C(CCO)=NO	C[C@@H](O)C(=NO)CCO	
InChI=1S/C5H11NO3/c1-4(8)5(6-9)2-3-7/h4,7-9H,2-3H2,1H3	InChI=1S/C5H11NO3/c1-4(8)5(6-9)2-3-7/h4,7-9H,2-3H2,1H3/t4-/m1/s1
