21
gdb 117188	3.47498	0.8591	0.73782	1.2438	79.93	-0.2424	-0.0099	0.2324	1574.9637	0.18005	-424.234092	-424.223795	-424.222851	-424.270184	37.309	
C	 0.1027199444	 1.4959085503	-0.2595941644	-0.486256
C	 0.0590961451	-0.0133013008	-0.1150164432	 0.247723
C	 1.3844697366	-0.7673877551	-0.0372406255	-0.274051
C	 0.5551779218	-0.625589939	 1.1927516185	-0.274067
C	-1.0487983797	-0.7893813246	-0.7723622096	 0.31335
O	-1.1113663049	-2.0008047204	-0.6739486377	-0.338164
C	-2.0898577462	-0.0198374191	-1.5655458237	-0.300372
C	-3.1531177612	-0.9189592601	-2.177823595	-0.076767
O	-4.0539075266	-0.0780976755	-2.8857933999	-0.427473
H	 0.9668764078	 1.9006229545	 0.275275849	 0.116701
H	 0.192928939	 1.8065223414	-1.3060452008	 0.123599
H	-0.7905553619	 1.9748935285	 0.1555309287	 0.123594
H	 1.4068188269	-1.7409464227	-0.5120308813	 0.135675
H	 2.2869625773	-0.1736417929	-0.1334979987	 0.113304
H	 0.8728718568	 0.0681004808	 1.9635660684	 0.113278
H	 0.0243886282	-1.5045411509	 1.5383690262	 0.1357
H	-2.5635428468	 0.7284269456	-0.9170745611	 0.131922
H	-1.5926305285	 0.558843087	-2.3547622353	 0.132035
H	-2.6766058662	-1.6556020442	-2.8395740604	 0.101873
H	-3.6606339113	-1.4837040068	-1.3833852925	 0.101792
H	-4.7342395007	-0.634323256	-3.2758077718	 0.286603
34.4552	83.8043	102.2326	134.2062	216.2601	274.5793	283.9509	288.0437	294.837	352.1438	374.8267	433.6526	571.2973	582.3183	761.2799	797.4663	802.2857	834.5602	875.2212	948.3325	959.3252	1003.3021	1049.9614	1068.7047	1074.5212	1078.2086	1090.833	1108.0645	1119.1672	1204.6496	1208.181	1247.2961	1301.3182	1305.0935	1314.7667	1370.207	1423.6171	1444.187	1450.4843	1467.2283	1482.7399	1494.924	1502.1522	1521.8107	1765.2867	3000.0129	3027.9679	3028.5173	3033.8646	3065.9864	3092.2808	3103.2963	3137.8758	3139.8374	3228.0327	3241.4522	3831.8603
CC1(CC1)C(=O)CCO	CC1(CC1)C(=O)CCO	
InChI=1S/C7H12O2/c1-7(3-4-7)6(9)2-5-8/h8H,2-5H2,1H3	InChI=1S/C7H12O2/c1-7(3-4-7)6(9)2-5-8/h8H,2-5H2,1H3
