22
gdb 59093	2.00657	1.51802	0.95196	2.6559	83.5	-0.2583	0.03	0.2883	1305.687	0.193014	-404.36555	-404.35563	-404.354685	-404.400224	37.087	
C	 0.1316423743	 1.4649528632	 0.5320795986	-0.396729
C	 0.1328788588	-0.0232828073	 0.1540715698	 0.01152
C	 1.0096838396	-0.8304511839	 1.1240129467	-0.396872
C	-1.292983347	-0.5885064275	 0.1335306639	-0.139004
C	-2.3218023021	-0.2119178395	-0.9798228333	 0.112872
C	-1.8977832197	 0.5706399065	-2.2045823098	-0.40673
O	-2.46983994	-1.6399957606	-1.3038953557	-0.267464
C	-1.5160663411	-1.999312691	-0.3807981862	 0.428033
N	-1.0368897998	-3.1288654297	-0.1119182119	-0.54948
H	 1.1511759761	 1.8635864239	 0.5308045072	 0.11701
H	-0.4622998247	 2.0706332762	-0.1585481959	 0.112377
H	-0.2778597263	 1.6077256026	 1.5392011863	 0.114752
H	 0.5610255986	-0.1274412886	-0.8511401504	 0.077642
H	 0.6469398341	-0.7234256794	 2.153514631	 0.108541
H	 0.9998798421	-1.893614254	 0.8748440324	 0.15751
H	 2.0426039012	-0.4684382525	 1.0970149478	 0.105425
H	-1.7341085705	-0.4709512093	 1.1302943646	 0.101839
H	-3.2720963429	 0.1646410163	-0.5887740806	 0.092241
H	-0.9356142936	 0.2252052613	-2.591523102	 0.130904
H	-2.6462655889	 0.4434366425	-2.9926749248	 0.13336
H	-1.8237536802	 1.6387380045	-1.9802888933	 0.127672
H	-1.4548283279	-3.8545919738	-0.6973615745	 0.224583
75.5803	85.9635	162.5446	202.3293	223.3396	245.0041	252.7545	306.5928	326.4281	351.5112	436.3142	462.4171	532.0617	627.3302	728.5412	806.4187	865.2368	867.001	886.7916	909.2414	938.1432	971.3677	1024.9337	1033.1672	1039.5438	1072.009	1120.6762	1156.8378	1178.5857	1202.428	1232.1213	1240.8523	1294.7658	1343.3883	1345.6098	1381.0904	1392.8292	1401.2315	1414.0587	1423.7655	1483.1189	1489.8811	1491.4017	1497.1139	1504.789	1514.0303	1811.3875	3019.4354	3027.3172	3031.5104	3044.2885	3045.5388	3062.0014	3090.1736	3097.9151	3107.2539	3115.6684	3126.9958	3133.458	3469.0813
CC(C)C1C(C)OC1=N	CC(C)[C@H]1[C@@H](C)O[C]1[NH]	
InChI=1S/C7H13NO/c1-4(2)6-5(3)9-7(6)8/h4-6,8H,1-3H3	InChI=1S/C7H13NO/c1-4(2)6-5(3)9-7(6)8/h4-6,8H,1-3H3/t5-,6+/m1/s1
