17
gdb 115327	2.98164	1.20453	0.95553	1.347	64.48	-0.2599	-0.0473	0.2125	1208.4481	0.135052	-496.104385	-496.095649	-496.094705	-496.138222	31.991	
O	-0.1753935514	 1.5137603104	 0.0432713492	-0.418088
C	-0.0009815614	 0.120262135	-0.0622559704	-0.056362
C	-1.3291063349	-0.6063047155	 0.1908635488	-0.026862
O	-2.3302275379	-0.1502101356	-0.7270914067	-0.282171
C	-2.4720815627	-1.1125255418	-1.7836211502	-0.129726
C	-2.3042641594	-2.4638364009	-1.0810497238	 0.046772
O	-1.9207542868	-3.5266859883	-1.9019677259	-0.434463
C	-1.234828549	-2.1036751891	-0.0522271433	 0.336869
O	-0.4131314615	-2.8781921032	 0.369111764	-0.327229
H	-0.9277670763	 1.7344813863	-0.5196641036	 0.291823
H	 0.3960868075	-0.1687431	-1.0489037513	 0.092849
H	 0.7289981549	-0.1870545729	 0.6920138568	 0.132341
H	-1.6721821179	-0.3778852455	 1.206616501	 0.12521
H	-3.4525272786	-0.9575099575	-2.2356550915	 0.129596
H	-1.6978569531	-0.9985300937	-2.5558757981	 0.114672
H	-3.2321129373	-2.687941464	-0.5246872441	 0.107614
H	-1.2428801342	-4.0155975639	-1.4118099909	 0.297154
64.272	111.0292	156.2322	181.6204	260.5121	313.0399	361.2507	389.7893	453.779	459.0376	508.1647	625.9393	653.3983	673.9209	829.2508	859.7169	981.1668	1013.0962	1027.6524	1065.6219	1081.8165	1096.6513	1125.3381	1180.3347	1214.2676	1219.2804	1252.8956	1276.5074	1312.3962	1341.3881	1387.9364	1390.0733	1410.0208	1423.9825	1499.0875	1520.1124	1846.9459	2949.1656	2975.1151	3011.1641	3051.4598	3096.5248	3124.6684	3720.9438	3784.4968
OCC1OCC(O)C1=O	OC[C@H]1OC[C@@H](O)C1=O	
InChI=1S/C5H8O4/c6-1-4-5(8)3(7)2-9-4/h3-4,6-7H,1-2H2	InChI=1S/C5H8O4/c6-1-4-5(8)3(7)2-9-4/h3-4,6-7H,1-2H2/t3-,4-/m1/s1
