22
gdb 111679	2.34094	1.33396	1.14386	0.3472	81.47	-0.2216	0.0696	0.2912	1211.6557	0.195398	-404.324006	-404.314898	-404.313954	-404.357897	34.827	
C	-0.3306752673	 1.4553830923	-0.1708755465	-0.402849
C	-0.0879303903	-0.0486852425	-0.0916030458	 0.080557
C	 0.6743243532	-0.6591010044	-1.2979266691	-0.25125
C	 1.5122505271	-1.8128055429	-0.6956778072	-0.235974
C	 1.5456240214	-1.538725032	 0.8052789047	-0.032221
C	 2.0524632254	-0.2295941832	 1.2955328957	-0.029146
C	 2.9530198438	 0.7053224377	 0.5074770519	-0.098414
O	 4.3199359339	 0.3634341775	 0.7027440742	-0.416859
N	 0.5994283495	-0.4614076376	 1.1520980549	-0.133767
H	 0.6054012698	 2.0122869162	-0.2794532506	 0.117597
H	-0.9613814867	 1.6943255698	-1.0333296269	 0.115103
H	-0.8368158225	 1.8118137287	 0.7307246146	 0.12557
H	-1.0665506616	-0.5419412887	-0.0249130823	 0.082367
H	-0.0180148814	-1.0149579438	-2.0662564232	 0.09974
H	 1.3081996586	 0.0908763787	-1.7797005391	 0.106464
H	 1.0287345254	-2.7791883855	-0.8695781832	 0.105328
H	 2.5142920994	-1.8745502943	-1.1317959068	 0.116253
H	 1.5691197568	-2.399758469	 1.4692829768	 0.083472
H	 2.3143421174	-0.1940356822	 2.3562801023	 0.077119
H	 2.792640348	 0.6425001196	-0.5685311287	 0.114602
H	 2.7614153168	 1.747756412	 0.8070259696	 0.093457
H	 4.5141522732	 0.4485220338	 1.6419499247	 0.28285
60.7764	121.795	177.3135	215.3462	239.9624	248.7602	290.663	335.3354	407.4146	484.6873	546.1266	652.5554	703.7128	723.6853	800.9773	827.4601	855.5384	898.634	948.9665	959.513	982.2623	1027.5381	1035.2196	1060.2047	1088.1504	1113.9228	1122.246	1148.8003	1158.9559	1205.132	1220.9887	1233.4824	1295.4152	1311.0586	1323.442	1354.252	1359.6323	1377.0053	1392.5172	1410.475	1418.3101	1446.8011	1491.038	1493.3214	1498.0938	1508.2625	1518.8168	2979.2231	3010.2535	3039.3746	3047.726	3058.0843	3061.7489	3079.7302	3098.2828	3107.3991	3116.4222	3129.2671	3137.0279	3810.8953
CC1CCC2C(CO)N12	C[C@H]1CC[C@H]2[C@@H](CO)N12	
InChI=1S/C7H13NO/c1-5-2-3-6-7(4-9)8(5)6/h5-7,9H,2-4H2,1H3	InChI=1S/C7H13NO/c1-5-2-3-6-7(4-9)8(5)6/h5-7,9H,2-4H2,1H3/t5-,6-,7+,8?/m0/s1
