18
gdb 19085	4.17952	2.00942	1.58151	1.289	70.3	-0.2188	0.0718	0.2906	834.278	0.157548	-343.931426	-343.925135	-343.92419	-343.961526	26.066	
C	 0.008205636	 1.4911805662	-0.0197656185	-0.250868
C	 1.2844019914	 0.7292172468	 0.0123963817	 0.012259
C	 2.1467925335	 0.6562086872	 1.2707039856	-0.258324
C	 2.1416556492	-0.7727929377	 1.8052984286	-0.015454
N	 1.445815111	-0.9950555959	 3.0865371863	-0.335533
C	 0.815068431	-1.4416156574	 1.8265015763	-0.018113
C	-0.3488940148	-0.5998647343	 1.3260100398	-0.179767
N	-0.0106649895	 0.0295753162	 0.0321255571	-0.0898
H	-0.2670281418	 2.0354782435	 0.8836770125	 0.10697
H	-0.3561702653	 1.9370578007	-0.9420089125	 0.110363
H	 1.8260166385	 0.5928871801	-0.9222888251	 0.085491
H	 3.1639196376	 0.9894301894	 1.0462400481	 0.101733
H	 1.7578203255	 1.3154388677	 2.0518294926	 0.118313
H	 3.0155213015	-1.382507485	 1.5915968602	 0.0843
H	 1.8540965531	-1.7939180537	 3.5659252169	 0.229316
H	 0.7733387874	-2.5090835959	 1.6297559361	 0.08679
H	-1.2401961363	-1.215723979	 1.1716233939	 0.104885
H	-0.5909750082	 0.1417252813	 2.0992928204	 0.107437
148.1147	302.0596	326.398	418.6013	467.2776	472.7478	498.7911	637.7683	774.6285	801.1774	823.0225	847.4844	896.3893	919.2249	943.0237	966.8387	982.5111	1022.4256	1036.1826	1081.7967	1107.7202	1121.9196	1132.3097	1162.7638	1184.2574	1205.1675	1238.4029	1258.8426	1270.2811	1310.1318	1318.8538	1354.3879	1395.6168	1406.4579	1447.3842	1481.8291	1497.8982	1518.0893	3008.1062	3056.2509	3069.2953	3082.8615	3094.6733	3113.9901	3136.5787	3148.8193	3169.4735	3496.5994
C1C2CC3NC3CN12	C1[C@H]2C[C@H]3N[C@H]3CN12	
InChI=1S/C6H10N2/c1-4-2-8(4)3-6-5(1)7-6/h4-7H,1-3H2	InChI=1S/C6H10N2/c1-4-2-8(4)3-6-5(1)7-6/h4-7H,1-3H2/t4-,5-,6+,8?/m1/s1
