19
gdb 70812	2.4271	1.9904	1.41617	1.4897	79.68	-0.2221	-0.0008	0.2214	991.9679	0.157969	-385.836344	-385.828377	-385.827433	-385.868098	32.189	
C	 0.0621634171	 1.436510432	-0.148406927	-0.525999
C	-0.008456049	-0.0475594738	 0.0172637817	 0.44079
O	 0.5382158874	-0.9015173017	-1.048841115	-0.387955
C	 0.0382786995	-1.8523483399	-0.0435151	 0.440789
C	 0.1852447907	-3.3162781794	-0.308484435	-0.525999
C	 0.6072283852	-0.9732423859	 1.1338206757	-0.174238
C	-0.3880281449	-1.0372486179	 2.2694609816	-0.116065
C	-1.5833418526	-1.0478718126	 1.66502094	-0.116062
C	-1.2594756159	-0.9897943838	 0.1898760659	-0.174235
H	 1.1026625472	 1.7618792956	-0.2441577039	 0.132922
H	-0.4812503966	 1.7477102805	-1.0459186071	 0.132931
H	-0.3822881926	 1.9307594453	 0.7209082821	 0.131601
H	 1.2409368321	-3.5799552465	-0.4253598444	 0.132936
H	-0.2303601174	-3.8901736076	 0.5254489723	 0.131601
H	-0.3439782424	-3.5943902516	-1.2251346451	 0.132917
H	 1.6827967068	-0.9512117717	 1.3070727512	 0.06832
H	-0.1576513278	-1.0668336897	 3.3254406951	 0.103712
H	-2.5698868683	-1.0882647937	 2.1056333493	 0.103713
H	-2.0367267486	-0.9842165977	-0.5737984574	 0.068319
199.427	209.0811	211.7338	217.0496	221.2352	312.5132	478.3967	508.8495	536.6734	585.4611	594.2133	687.5788	710.9354	764.5719	770.7582	806.8842	871.6475	919.7309	924.2869	948.6379	962.2783	990.9515	1037.6815	1065.1143	1088.4185	1131.636	1142.9492	1168.8666	1183.2401	1234.7387	1241.1022	1267.2101	1341.8327	1376.4927	1401.4063	1433.2633	1474.4243	1475.7041	1485.3481	1487.8665	1624.1682	3038.2183	3038.4726	3111.6362	3111.769	3116.4291	3116.5383	3127.3941	3130.5089	3214.7365	3240.4452
CC12OC3(C)C1C=CC23	C[C@@]12O[C@@]3(C)[C@@H]1C=C[C@@H]23	
InChI=1S/C8H10O/c1-7-5-3-4-6(7)8(5,2)9-7/h3-6H,1-2H3	InChI=1S/C8H10O/c1-7-5-3-4-6(7)8(5,2)9-7/h3-6H,1-2H3/t5-,6+,7-,8+
