23
gdb 110217	2.11042	1.28647	1.17316	1.6449	86.62	-0.2228	0.0832	0.306	1285.1503	0.203763	-388.266898	-388.256734	-388.255789	-388.301695	37.888	
C	-0.2726204295	 1.4564608037	-0.0789201733	-0.373067
C	 0.1360153765	-0.0110914608	 0.0996379423	-0.212556
C	 0.7814288908	-0.5836954827	-1.1456891749	-0.110724
C	 1.0241138547	-2.0625429639	-1.4325152519	 0.175351
C	 2.3668974187	-2.6511863793	-1.7547131756	-0.498472
C	-0.1971782019	-2.856137301	-0.9779740194	-0.137473
O	-1.0970649186	-1.9855494998	-1.7106079151	-0.324922
C	 0.0228235665	-1.2629484802	-2.2555406537	 0.416872
C	-0.0705720051	-0.8448906592	-3.6871292026	-0.490024
H	 0.5920002835	 2.0851283693	-0.3204124356	 0.10881
H	-0.9987405083	 1.5642950981	-0.8913392597	 0.120545
H	-0.7285319061	 1.8546220273	 0.8330055821	 0.109566
H	 0.8278015612	-0.0999749436	 0.9474226975	 0.090315
H	-0.7509997438	-0.6010020001	 0.3493734479	 0.114216
H	 1.6055743498	 0.017650183	-1.5319853105	 0.07567
H	 2.9321057469	-2.8857203145	-0.8441771208	 0.121672
H	 2.2712297084	-3.577549171	-2.3330961485	 0.117427
H	 2.9730588895	-1.9533748832	-2.3416583071	 0.119313
H	-0.2245602344	-3.8715872635	-1.3930669203	 0.101051
H	-0.4280937698	-2.8949063417	 0.0935298845	 0.098924
H	-0.8687271759	-0.1055927964	-3.8214132958	 0.131507
H	 0.8676055631	-0.3879030049	-4.0153625779	 0.121129
H	-0.2903313963	-1.6997438657	-4.3348066817	 0.124872
65.3751	139.2277	162.7009	172.4909	195.2632	199.9429	246.7852	273.1286	289.3582	359.5304	382.1898	502.7311	579.6153	599.1682	699.0413	745.2741	797.0055	836.8843	911.389	923.2505	972.7563	983.7069	993.0046	1017.5749	1065.2173	1098.4106	1110.203	1124.8348	1150.8034	1161.6756	1194.0334	1238.2641	1267.6407	1299.7457	1318.1633	1348.9465	1375.2754	1409.6228	1410.8982	1418.1841	1474.4746	1480.2671	1485.5731	1492.0793	1496.7796	1499.7725	1504.9055	1512.2025	1526.685	3012.1952	3018.4777	3022.1097	3029.5995	3030.4035	3057.8238	3074.6556	3076.1456	3091.8852	3092.8273	3097.9418	3104.3405	3107.2195	3114.1251
CCC1C2(C)COC12C	CC[C@H]1[C@@]2(C)CO[C@@]12C	
InChI=1S/C8H14O/c1-4-6-7(2)5-9-8(6,7)3/h6H,4-5H2,1-3H3	InChI=1S/C8H14O/c1-4-6-7(2)5-9-8(6,7)3/h6H,4-5H2,1-3H3/t6-,7+,8-/m0/s1
