25
gdb 59194	2.66698	1.06371	1.02551	0.058	93.63	-0.2848	0.0906	0.3755	1401.023	0.228792	-352.313261	-352.303552	-352.302608	-352.347651	37.821	
C	 0.198523637	 1.3482135068	 0.2235531444	-0.384194
C	 0.182398546	-0.1882865271	 0.2205904892	-0.02404
C	 0.8322238814	-0.7454523731	 1.496677353	-0.384195
C	-1.253177215	-0.7011635044	 0.0917227968	 0.091881
C	-2.060041645	-0.6229611417	-1.2484831392	-0.087277
C	-1.2115535623	-1.8201165508	-1.768656901	-0.233455
C	-1.5889336499	-2.1795902761	-0.3016661999	-0.087194
C	-3.0361328435	-1.6985682959	-0.6609093459	 0.067091
C	-4.0864219249	-1.3760411987	 0.3920745883	-0.446996
H	 1.2191378992	 1.732475409	 0.32413093	 0.107021
H	-0.2245482361	 1.7557195217	-0.7002170645	 0.112388
H	-0.3884947465	 1.7442078069	 1.0612363213	 0.109064
H	 0.7832056697	-0.5246703941	-0.6316472105	 0.070439
H	 0.2718347999	-0.4374492331	 2.3878638747	 0.109069
H	 0.8636880345	-1.839664254	 1.4860697446	 0.112389
H	 1.8587147084	-0.38060611	 1.609063051	 0.10702
H	-1.8097439295	-0.3399867599	 0.9625742507	 0.053107
H	-2.33687753	 0.2767528	-1.8029424	 0.060895
H	-1.6708277106	-2.4338275345	-2.5491302847	 0.0848
H	-0.1605893561	-1.6374101613	-1.9912068552	 0.091802
H	-1.3188392255	-3.0871979253	 0.2431767059	 0.060878
H	-3.4946779762	-2.3139261147	-1.4443097713	 0.058576
H	-3.7178447517	-0.7595002925	 1.2150854051	 0.119705
H	-4.9290996989	-0.844978162	-0.0649187951	 0.1156
H	-4.4833077943	-2.3008480652	 0.8259155623	 0.115629
53.8973	144.0619	166.693	175.5544	222.6511	248.2231	289.6545	293.3877	381.0341	421.9315	448.0277	544.6411	574.9014	753.3638	776.7358	824.1628	850.131	871.0574	887.4162	896.8761	926.7874	966.3257	1006.0015	1011.8255	1024.2778	1035.9384	1061.6442	1066.1511	1128.4857	1130.8927	1136.3981	1147.2959	1178.8575	1192.5618	1203.8455	1207.4815	1247.5544	1247.5777	1270.2581	1328.4083	1342.2297	1396.9748	1402.7419	1417.0971	1427.2577	1442.0944	1487.721	1491.2169	1495.2998	1500.8229	1505.9301	1509.9099	1528.3007	3021.4433	3025.2885	3025.9257	3032.5374	3035.9118	3051.6501	3058.8323	3079.3343	3085.2964	3086.7111	3087.715	3094.0476	3098.6544	3100.9567	3119.5187	3133.891
CC(C)C1C2CC1C2C	CC(C)[C@H]1[C@H]2C[C@@H]1[C@H]2C	
InChI=1S/C9H16/c1-5(2)9-7-4-8(9)6(7)3/h5-9H,4H2,1-3H3	InChI=1S/C9H16/c1-5(2)9-7-4-8(9)6(7)3/h5-9H,4H2,1-3H3/t6-,7-,8+,9-
