18
gdb 122482	3.70174	0.66713	0.6019	3.2263	73.76	-0.2727	-0.0035	0.2692	1794.5286	0.145813	-439.066816	-439.057034	-439.056089	-439.102893	33.84	
O	-0.1132481393	 1.3942179156	-0.4485596655	-0.420004
C	-0.0012763379	 0.0582830453	 0.0128240518	-0.076451
C	-1.3834459291	-0.5767762725	-0.0684161802	-0.167726
C	-1.3935067486	-2.0264080987	 0.433336756	-0.246139
C	-2.7682927365	-2.6369642787	 0.3471526142	 0.076414
O	-3.22638987	-3.0481891176	-0.9425001823	-0.230377
C	-3.0128168456	-4.0641495841	 0.0378865016	-0.108414
C	-1.9158323074	-4.9788206121	-0.1984953276	 0.30395
N	-1.049753294	-5.7258597682	-0.3655738162	-0.327563
H	 0.7619889172	 1.7921471331	-0.4376937122	 0.288101
H	 0.7089209177	-0.5207435221	-0.5996687083	 0.092693
H	 0.3637565847	 0.0229218643	 1.0531364149	 0.084983
H	-2.0811378106	 0.0334617661	 0.5180787058	 0.108766
H	-1.7285053598	-0.5428375027	-1.1074473707	 0.127939
H	-0.6922354794	-2.636051789	-0.1463488922	 0.130467
H	-1.0644818704	-2.0667938681	 1.4802887979	 0.113169
H	-3.5405434615	-2.1491345003	 0.9453572333	 0.110284
H	-3.9150168896	-4.5430138003	 0.4144111998	 0.139911
50.3921	73.479	91.0256	129.9948	161.0429	226.1317	259.2409	296.6096	331.9463	455.8449	470.7929	579.4762	624.582	756.0324	812.6519	814.6837	889.0336	960.6337	1005.1226	1032.9737	1048.533	1079.4371	1092.0577	1144.2357	1167.5477	1219.9259	1236.0826	1280.3966	1301.6856	1306.0556	1317.9145	1368.8569	1391.5618	1460.7235	1466.0376	1476.1502	1500.6356	1528.8767	2360.024	2957.1971	2984.7893	3025.7594	3038.1222	3073.0989	3089.7677	3101.7564	3132.635	3832.7451
OCCCC1OC1C#N	OCCC[C@H]1O[C@H]1C#N	
InChI=1S/C6H9NO2/c7-4-6-5(9-6)2-1-3-8/h5-6,8H,1-3H2	InChI=1S/C6H9NO2/c7-4-6-5(9-6)2-1-3-8/h5-6,8H,1-3H2/t5-,6+/m1/s1
