16
gdb 16735	5.48958	1.42987	1.25316	3.6081	73.9	-0.2435	-0.0534	0.1901	960.3548	0.131672	-346.61975	-346.613011	-346.612067	-346.650706	25.956	
O	-0.0543871335	-0.0052931608	 0.1083428485	-0.278432
C	 0.0199496071	 1.2046544157	 0.0606990212	 0.070013
C	 1.2718648923	 1.9512073065	-0.010846992	 0.220582
C	 1.3596549195	 3.2948518472	-0.0408992927	-0.151359
C	 2.7643842604	 3.7599340501	-0.0375674168	-0.072464
C	 3.5624294369	 3.3574363659	 1.1972763044	-0.272697
C	 3.6046329101	 2.4810256818	-0.0187422117	-0.044356
C	 2.6392720633	 1.296954535	-0.0775046121	-0.324578
H	-0.8965817958	 1.8373979861	 0.0601767522	 0.062532
H	 0.5075891934	 3.967211715	-0.0393063749	 0.11105
H	 3.050850929	 4.6572754198	-0.5733617953	 0.096834
H	 4.4469361267	 3.9461172429	 1.416098142	 0.118472
H	 3.0086083246	 3.0272882571	 2.0704074196	 0.119896
H	 4.5325122657	 2.4290547444	-0.5753437328	 0.093946
H	 2.7896323878	 0.5838414117	 0.740427248	 0.128486
H	 2.7476753325	 0.7252334016	-1.0068119678	 0.122073
105.0615	190.8677	218.6982	348.4149	399.602	461.3977	517.9194	670.634	724.3126	786.6114	815.4932	854.2248	874.6271	904.5411	936.2924	977.3271	1002.0422	1043.3707	1055.0564	1070.0343	1092.2061	1103.4509	1178.5858	1194.9236	1228.7138	1277.2881	1331.4868	1365.4203	1376.8503	1420.7304	1471.9736	1484.0664	1660.1858	1777.5518	2871.5493	3039.5955	3072.7745	3126.1575	3176.0002	3183.3265	3191.0618	3216.9853
O=CC1=CC2CC2C1	O=CC1=C[C@H]2C[C@H]2C1	
InChI=1S/C7H8O/c8-4-5-1-6-3-7(6)2-5/h1,4,6-7H,2-3H2	InChI=1S/C7H8O/c8-4-5-1-6-3-7(6)2-5/h1,4,6-7H,2-3H2/t6-,7+/m0/s1
