23
gdb 120947	4.31177	0.8571	0.83355	1.6375	85.33	-0.2417	0.0911	0.3329	1522.0526	0.207241	-388.278954	-388.27026	-388.269315	-388.312693	33.785	
C	-0.0145618361	 1.5605579523	 0.0402188375	-0.378428
C	-0.0324993548	 0.0309669457	-0.0307693848	-0.169005
C	 0.7591164095	-0.5211771885	-1.2218905035	-0.187368
C	 0.764033376	-2.0478074176	-1.3126849111	 0.029791
C	-0.6173141155	-2.6966141137	-1.6786774452	-0.236584
C	-0.1784745109	-3.3870311748	-2.9859819622	 0.083803
C	 1.1496919773	-4.079303791	-2.610595057	-0.235861
C	 1.5407443622	-2.588285301	-2.5392702854	 0.060495
O	 0.6047760075	-2.3352132569	-3.6371124855	-0.299514
H	 1.0091873516	 1.9403565628	 0.1318958265	 0.112476
H	-0.4492955009	 2.0028318514	-0.8630270466	 0.115176
H	-0.5843445421	 1.9289462977	 0.8991673018	 0.109085
H	 0.3776198014	-0.3840879203	 0.8999583077	 0.090317
H	-1.0712023108	-0.3193140821	-0.0846026885	 0.097147
H	 0.3557083885	-0.1181209536	-2.1591432045	 0.108153
H	 1.7967866087	-0.1641457557	-1.153222335	 0.08449
H	 1.170397622	-2.4693006373	-0.3855442833	 0.06423
H	-0.9891252668	-3.3982323004	-0.9271015405	 0.095703
H	-1.3917174951	-1.9493719143	-1.8694827882	 0.106151
H	-0.9347076769	-3.8397931489	-3.6274347259	 0.076192
H	 1.1991118736	-4.6912194195	-1.7056428961	 0.090755
H	 1.6052539493	-4.5822300365	-3.4640159811	 0.109092
H	 2.5505522522	-2.2184778075	-2.7219954193	 0.073706
80.9746	93.6541	123.9077	211.5675	246.6839	310.1782	335.8725	423.9064	506.1588	579.1409	700.467	748.5049	829.424	830.0793	846.0043	866.7807	872.3256	888.2883	913.6924	947.4216	966.8994	973.4223	1027.4153	1037.0396	1057.8656	1082.7981	1091.224	1119.955	1133.53	1197.0506	1201.9222	1225.9119	1243.2926	1256.4115	1266.544	1283.8955	1304.7604	1318.398	1329.9393	1340.4861	1378.996	1397.6977	1412.914	1480.1097	1486.2876	1494.7071	1498.8696	1499.7102	1511.1259	3003.7501	3014.1047	3028.8887	3030.4137	3041.7991	3060.579	3064.435	3064.7908	3095.9138	3100.4444	3110.7545	3114.0996	3121.0694	3142.862
CCCC1CC2CC1O2	CCC[C@H]1C[C@@H]2C[C@H]1O2	
InChI=1S/C8H14O/c1-2-3-6-4-7-5-8(6)9-7/h6-8H,2-5H2,1H3	InChI=1S/C8H14O/c1-2-3-6-4-7-5-8(6)9-7/h6-8H,2-5H2,1H3/t6-,7+,8+/m0/s1
