25
gdb 114060	2.67407	1.12312	0.94323	0.296	93.72	-0.2329	0.0832	0.3161	1426.6829	0.227605	-352.348742	-352.338393	-352.337449	-352.383502	39.456	
C	-0.0875830608	 1.5684928017	 0.0072198829	-0.378076
C	 0.1456798045	 0.0566824051	-0.0864243788	-0.196341
C	 0.7035354907	-0.5421874923	 1.2027724119	-0.006817
C	-0.2076950467	-0.6284297239	 2.4766020218	-0.310117
C	 0.0889754317	-2.1326025655	 2.5724378955	 0.322651
C	 0.3120130821	-2.8798990953	 3.856241682	-0.497756
C	-0.3812473069	-2.7921655411	 1.302802541	-0.382023
C	 0.9399711978	-2.0614620262	 1.2930077979	 0.298554
C	 2.2370425149	-2.7356853735	 0.9427172291	-0.500125
H	 0.8454689366	 2.1000179936	 0.2264412652	 0.111048
H	-0.48700924	 1.970258424	-0.9293405397	 0.109057
H	-0.7995209641	 1.8121576547	 0.8034320244	 0.117297
H	-0.7954912935	-0.4415672039	-0.3501661459	 0.092565
H	 0.8421155305	-0.1551779875	-0.908886541	 0.091823
H	 1.6325296601	-0.0180742148	 1.4605137961	 0.061387
H	 0.1836923558	-0.0512050767	 3.318524862	 0.094616
H	-1.2628640721	-0.3635693142	 2.3378811991	 0.086974
H	-0.6256153577	-3.0056464293	 4.4123150125	 0.117543
H	 0.7173463519	-3.8804204948	 3.6705041703	 0.113901
H	 1.0142710108	-2.3515127588	 4.5119945794	 0.111607
H	-0.2970545184	-3.8754436894	 1.2874035654	 0.100958
H	-1.2496902779	-2.4159608636	 0.7655612046	 0.097551
H	 2.3950854157	-2.763278846	-0.1427656213	 0.118119
H	 3.0924060715	-2.21191133	 1.3863051805	 0.111409
H	 2.2593506435	-3.7710465622	 1.2995492352	 0.114197
87.2806	126.3197	153.0151	173.1154	183.7849	202.0439	239.6138	284.2544	326.6422	335.9928	433.4988	448.0209	526.5618	565.6563	699.0846	709.9139	774.5539	807.2123	846.1651	928.6407	948.9157	951.4883	968.0811	980.8161	1002.1419	1052.5257	1062.7518	1067.7874	1093.8111	1122.4183	1137.5571	1179.7199	1210.6811	1235.7097	1246.4179	1266.1262	1290.6144	1332.6881	1345.5069	1381.492	1407.6788	1410.8099	1412.2677	1432.5941	1481.0744	1483.0802	1486.1983	1488.8504	1496.0611	1499.5425	1500.7397	1506.7407	1517.8402	3013.4133	3014.8554	3016.2842	3018.1776	3027.4664	3029.2918	3050.6117	3070.0105	3071.1218	3087.4189	3089.9003	3091.2977	3094.8272	3098.0245	3099.9925	3182.08
CCC1CC2(C)CC12C	CC[C@H]1C[C@@]2(C)C[C@@]12C	
InChI=1S/C9H16/c1-4-7-5-8(2)6-9(7,8)3/h7H,4-6H2,1-3H3	InChI=1S/C9H16/c1-4-7-5-8(2)6-9(7,8)3/h7H,4-6H2,1-3H3/t7-,8-,9-/m0/s1
