20
gdb 62732	2.39478	1.53064	1.26321	3.7357	80.02	-0.2368	0.0124	0.2493	1109.7361	0.169355	-403.156609	-403.147189	-403.146245	-403.190095	35.656	
C	 0.0569514978	 1.5168673834	 0.0497816894	-0.466643
C	 0.0729247263	-0.0003944053	 0.0321408796	 0.263125
C	-1.1759322204	-0.6032942996	-0.5899611569	-0.459056
C	 1.3347032077	-0.7992745162	-0.1912340463	-0.105223
N	 2.5269184651	-0.1739639494	 0.382994663	-0.341033
C	 1.9364430604	-0.0904346071	 1.6577111841	 0.359292
O	 2.3197050543	 0.3938346616	 2.6860996763	-0.350765
C	 0.6846355011	-0.8300664417	 1.1906260561	 0.122473
C	-0.0073345407	-1.8942094407	 1.9930853634	-0.504314
H	 0.9613498427	 1.9437340169	 0.4880211222	 0.129996
H	-0.047616318	 1.911998791	-0.9674369695	 0.115396
H	-0.7940228565	 1.8820287896	 0.634932985	 0.126502
H	-1.3468249347	-0.1678656224	-1.5805556283	 0.122421
H	-1.096509616	-1.6868756901	-0.7140885373	 0.121593
H	-2.0632252492	-0.398384568	 0.0192490279	 0.126265
H	 1.4300473294	-1.6045805181	-0.9099438846	 0.105621
H	 3.0279522065	 0.5980481201	-0.0434381845	 0.239101
H	-0.3775591376	-1.4691951539	 2.9323044329	 0.140746
H	-0.8594327426	-2.3275521026	 1.4646865903	 0.122554
H	 0.6811692442	-2.7060085174	 2.2501095174	 0.13195
133.6433	136.1154	178.9768	187.6492	209.5987	246.6255	277.454	303.9865	355.4154	403.8298	500.7313	533.9973	619.4852	643.5669	695.0371	737.1176	776.2284	857.6449	904.5427	954.4403	967.9767	991.9723	1020.1776	1042.9814	1100.3258	1128.3381	1142.494	1170.6598	1218.2075	1281.4886	1303.6886	1327.3692	1402.8061	1414.6436	1424.7564	1428.4379	1481.121	1485.6734	1491.624	1495.2884	1505.0199	1512.5396	1886.9449	3029.0675	3033.0391	3038.3476	3088.4515	3092.7833	3095.0111	3108.0218	3123.6126	3125.8114	3184.9591	3538.4934
CC1(C)C2NC(=O)C12C	CC1(C)[C@H]2NC(=O)[C@@]12C	
InChI=1S/C7H11NO/c1-6(2)4-7(6,3)5(9)8-4/h4H,1-3H3,(H,8,9)	InChI=1S/C7H11NO/c1-6(2)4-7(6,3)5(9)8-4/h4H,1-3H3,(H,8,9)/t4-,7+/m1/s1
