16
gdb 30358	3.11326	1.58932	1.14397	1.8886	71.83	-0.189	0.0342	0.2232	1032.9293	0.126608	-437.900513	-437.893068	-437.892124	-437.932405	28.969	
O	-0.1829588077	 1.4955828344	 0.3359876452	-0.428443
C	-0.0283369008	 0.1164256757	 0.001825736	-0.094745
C	 0.6633189036	-0.723214896	 1.1312469401	-0.11067
O	-0.3516125688	-1.4321586425	 1.8790136439	-0.290993
C	-1.4660741874	-1.3955872398	 1.098102563	 0.330735
C	-2.7070052779	-1.9742020254	 1.1295747062	-0.244755
N	-3.3636814337	-1.469277762	 0.0104856131	-0.239297
C	-2.5609399626	-0.6123800721	-0.696650963	-0.230262
C	-1.3607104166	-0.5544273066	-0.0280126327	 0.233589
H	 0.6864646055	 1.9079098096	 0.2886012887	 0.277792
H	 0.543036771	 0.0232073761	-0.9324635688	 0.073453
H	 1.3466773416	-1.4633455005	 0.6962154121	 0.105032
H	 1.2140713804	-0.0833247353	 1.8260540014	 0.108404
H	-3.1841049295	-2.6647803749	 1.8022258161	 0.122705
H	-4.2983198652	-1.7231290966	-0.2552559041	 0.261268
H	-2.917997642	-0.1254221241	-1.5893575172	 0.126188
95.4529	151.1024	286.8196	288.874	337.2549	400.9862	449.5511	505.6248	615.2184	640.5219	660.2791	706.149	732.1699	748.9772	797.0185	872.1943	937.4922	981.8668	1018.7619	1055.2323	1080.062	1109.9829	1173.1123	1206.9069	1237.4308	1252.7689	1296.7483	1339.801	1369.2547	1415.8872	1456.7244	1471.797	1488.7446	1570.1963	1660.3861	2994.6241	3027.2792	3098.4413	3265.4984	3285.6529	3691.9205	3799.7441
OC1COC2=CNC=C12	O[C@H]1COc2c[nH]cc12	
InChI=1S/C6H7NO2/c8-5-3-9-6-2-7-1-4(5)6/h1-2,5,7-8H,3H2	InChI=1S/C6H7NO2/c8-5-3-9-6-2-7-1-4(5)6/h1-2,5,7-8H,3H2/t5-/m0/s1
