16
gdb 5080	3.36684	1.93561	1.24666	0.6467	67.9	-0.1784	0.0582	0.2366	947.4946	0.130515	-379.950545	-379.941701	-379.940757	-379.983819	31.552	
C	 0.0101272495	 1.5057262123	 0.0600574592	-0.530952
C	 0.0210192377	 0.0081492986	 0.0175704436	 0.165329
C	-0.0051531632	-0.804331256	-1.0998387905	-0.172613
N	 0.0189041239	-2.1060546694	-0.6880880033	-0.260005
C	 0.0593517839	-2.1709882915	 0.6913827321	 0.173837
N	 0.0887940748	-3.424757147	 1.3419484142	-0.61387
C	 0.0612789222	-0.8682405799	 1.1410354621	 0.18266
O	 0.0969138427	-0.5301405875	 2.4693653447	-0.456962
H	 0.909872266	 1.916883782	 0.5379262363	 0.118653
H	-0.0344622276	 1.9237394574	-0.9495514439	 0.126987
H	-0.8553799742	 1.9012221121	 0.6090786951	 0.118241
H	-0.0384233707	-0.5434178295	-2.1456539262	 0.111622
H	 0.00891342	-2.9240218902	-1.2712139459	 0.257681
H	-0.7062491195	-3.5354352525	 1.9643859231	 0.243005
H	 0.9199818799	-3.52139256	 1.9177515336	 0.24299
H	 0.0923324046	 0.4291267913	 2.535199886	 0.293394
82.0895	98.4872	157.3695	193.0592	234.8155	268.2743	294.7845	316.4767	452.1473	520.0333	565.6241	637.9172	691.1996	698.758	733.3646	769.3639	833.2451	983.9615	1024.9012	1061.8644	1104.5355	1216.9362	1225.5128	1252.1519	1297.4237	1359.6855	1417.2224	1435.5662	1483.4169	1491.961	1515.7316	1561.9509	1659.1267	1683.7109	3002.1176	3040.9864	3102.5086	3257.5801	3488.388	3545.0099	3689.8273	3840.44
CC1=CNC(N)=C1O	Cc1c[nH]c(N)c1O	
InChI=1S/C5H8N2O/c1-3-2-7-5(6)4(3)8/h2,7-8H,6H2,1H3	InChI=1S/C5H8N2O/c1-3-2-7-5(6)4(3)8/h2,7-8H,6H2,1H3
