18
gdb 6289	4.17028	1.06955	1.02683	5.6293	69.75	-0.2493	0.0193	0.2686	1206.349	0.152676	-381.112239	-381.103066	-381.102122	-381.146296	32.598	
C	 0.1430350392	 1.4472395769	 0.0270140456	-0.332114
N	-0.0859409522	 0.0053517124	-0.0052158436	-0.077925
C	 0.6579416828	-0.6769255051	 1.049107443	-0.325896
C	-1.5022447579	-0.3453036092	-0.0145085188	-0.177656
C	-2.0581237202	-0.172644026	-1.4516852655	-0.014101
O	-1.196605588	-0.7821342149	-2.3815738338	-0.421098
C	-3.3975822567	-0.774064147	-1.5436550742	 0.287434
N	-4.4607490779	-1.2238356443	-1.580385213	-0.317542
H	 1.2142610967	 1.6490807109	-0.0590763903	 0.13082
H	-0.3561704665	 1.9338620965	-0.81495566	 0.132436
H	-0.2226789442	 1.9120234979	 0.9596749152	 0.109014
H	 0.3451556605	-0.3705715388	 2.0625586557	 0.107505
H	 0.5230551842	-1.7580725918	 0.9593179439	 0.132296
H	 1.7240929458	-0.4553238249	 0.9432699052	 0.12846
H	-1.5970001595	-1.4003272924	 0.2556338563	 0.129914
H	-2.104203824	 0.2420311663	 0.6984241076	 0.108406
H	-2.17806272	 0.9012091007	-1.6716970123	 0.113381
H	-0.3218400721	-0.7051270173	-1.961662581	 0.286667
59.7925	98.9562	129.5891	213.2445	234.4714	246.7096	289.1843	364.8504	401.3048	404.769	497.0782	538.4663	584.3665	604.4936	839.7711	887.259	972.8029	1035.6622	1057.6592	1065.1218	1120.7024	1123.3911	1179.416	1203.862	1300.2446	1309.6345	1312.4689	1352.4193	1387.7133	1445.3482	1453.0506	1469.2428	1484.6775	1491.2011	1500.5648	1504.2212	1512.9111	2365.0579	2954.6662	2960.0865	2965.1331	2976.923	3073.0765	3079.0955	3094.922	3117.3895	3120.1465	3633.8643
CN(C)CC(O)C#N	CN(C)C[C@@H](O)C#N	
InChI=1S/C5H10N2O/c1-7(2)4-5(8)3-6/h5,8H,4H2,1-2H3	InChI=1S/C5H10N2O/c1-7(2)4-5(8)3-6/h5,8H,4H2,1-2H3/t5-/m0/s1
