21
gdb 86881	3.20268	1.06124	0.89833	1.3372	84.88	-0.2506	0.054	0.3046	1354.6859	0.181931	-387.07452	-387.064973	-387.064029	-387.108979	36.447	
C	-0.1910462726	 1.6967768868	 0.0445473481	-0.410951
C	-0.0464289944	 0.1958346676	 0.2896998481	 0.046324
C	 0.4041210947	-0.618587468	-0.9527597719	-0.234033
C	 1.3382671002	-1.7576974909	-0.4172911462	-0.142553
C	 1.1956591733	-1.6804497531	 1.1278802773	-0.248733
C	 0.9637445994	-0.1886387871	 1.3850971967	 0.09293
O	 2.153279514	 0.5677973256	 1.1668269112	-0.434382
C	 1.0575216878	-3.0752053166	-0.9662946834	 0.302981
C	 0.8117748426	-4.1656586531	-1.4106662282	-0.457163
H	 0.7675122923	 2.134589105	-0.2445257917	 0.134622
H	-0.9145963451	 1.8910751924	-0.7539450649	 0.109159
H	-0.5399732615	 2.2147609922	 0.9443137347	 0.108289
H	-1.0144713059	-0.1985848874	 0.6238286233	 0.072845
H	-0.4519598733	-1.0326578005	-1.4896547471	 0.109515
H	 0.9531652499	 0.0128663815	-1.6562559802	 0.108887
H	 2.370724401	-1.4909789617	-0.6653031016	 0.108921
H	 0.3232443675	-2.2551282915	 1.4570346501	 0.10993
H	 2.0706488551	-2.0797612033	 1.6508243805	 0.092691
H	 0.5670169271	 0.0069596488	 2.3921656462	 0.058826
H	 2.8135105284	 0.273825285	 1.8019096249	 0.28305
H	 0.6009587696	-5.1263141716	-1.810108056	 0.188843
40.5228	137.4765	145.2757	232.0368	236.4421	252.6653	286.0704	328.0164	392.6363	460.6237	520.2269	534.1163	592.0668	619.6827	626.0655	686.807	811.4516	850.9826	874.8586	905.0259	941.2101	982.8319	1016.449	1040.7088	1050.0628	1069.3363	1116.375	1156.7523	1182.3036	1202.8266	1248.2044	1281.977	1299.6621	1311.8493	1328.6151	1347.5897	1356.2657	1384.4831	1404.7516	1423.8119	1484.9953	1495.0277	1499.1635	1502.4597	2233.232	2990.9979	3022.522	3036.2887	3046.5912	3048.1268	3065.7449	3092.1759	3096.9671	3112.5802	3125.0984	3505.6553	3821.5227
CC1CC(CC1O)C#C	C[C@H]1C[C@@H](C[C@H]1O)C#C	
InChI=1S/C8H12O/c1-3-7-4-6(2)8(9)5-7/h1,6-9H,4-5H2,2H3	InChI=1S/C8H12O/c1-3-7-4-6(2)8(9)5-7/h1,6-9H,4-5H2,2H3/t6-,7-,8+/m0/s1
