14
gdb 47275	2.25922	1.80385	1.05757	4.338	64.99	-0.2458	-0.1201	0.1257	1053.6594	0.100416	-473.838698	-473.830701	-473.829757	-473.87242	28.569	
O	-0.0178803668	-0.0276941984	 0.2181238722	-0.259911
C	-0.0454392786	 1.1681032569	 0.0908160857	 0.288219
C	-1.3278822791	 2.0016291804	 0.0317869526	-0.28536
N	-1.2639609171	 3.0434731379	-0.9866395006	-0.2867
C	-0.2011912039	 4.0157364414	-0.7589998681	-0.285476
C	 1.1872185043	 3.3716847348	-0.7757897392	 0.288374
O	 2.1537986427	 3.8546695264	-1.3043403359	-0.259932
C	 1.2758403377	 1.9662084653	-0.1120397873	 0.220047
O	 2.3279255162	 1.5268276439	 0.2673213457	-0.240467
H	-2.1709433767	 1.3312248077	-0.1529332787	 0.148221
H	-1.4921078748	 2.4782869882	 1.0083771174	 0.141065
H	-1.1956974969	 2.640559944	-1.9157393655	 0.242475
H	-0.228910354	 4.8036814592	-1.515758227	 0.148255
H	-0.3659818028	 4.4900076924	 0.2186650487	 0.141189
42.4759	57.314	227.4915	296.5063	322.4275	344.4715	366.1178	413.2648	534.9854	556.9728	599.6974	654.798	755.103	799.0492	877.4068	966.6943	976.9124	1042.2712	1113.1616	1160.7423	1169.4504	1206.3741	1314.7819	1326.555	1339.4947	1448.457	1458.3454	1487.7622	1801.1966	1802.8788	1830.9481	3019.3497	3019.8334	3108.2524	3109.3121	3526.6135
O=C1CNCC(=O)C1=O	O=C1CNCC(=O)C1=O	
InChI=1S/C5H5NO3/c7-3-1-6-2-4(8)5(3)9/h6H,1-2H2	InChI=1S/C5H5NO3/c7-3-1-6-2-4(8)5(3)9/h6H,1-2H2
