17
gdb 35381	4.22469	1.32708	1.21439	1.6678	77.66	-0.245	0.0355	0.2805	1044.7965	0.136833	-384.605729	-384.598805	-384.59786	-384.637034	28.184	
C	-0.0915519285	-1.2111014001	-0.0501296753	-0.445958
C	-0.0537569339	-0.0110653379	 0.0001877411	 0.335593
C	 0.0126591203	 1.4457815386	 0.0338829585	-0.104632
O	-0.4649565012	 1.974210352	 1.2928739363	-0.281986
C	 0.6615528708	 2.6880217119	 1.7670399945	 0.147812
C	 1.3484745133	 3.4633920692	 0.6050278495	-0.100624
C	 2.7126300016	 3.2489576879	 1.2993569213	-0.258238
C	 1.9758247524	 1.9030120969	 1.4883514517	-0.082211
C	 1.4385879657	 2.0136122271	 0.021572772	-0.046263
H	-0.1350889353	-2.2715979178	-0.087499691	 0.198544
H	-0.5997269525	 1.8617135727	-0.7772430357	 0.107337
H	 0.4503501374	 3.1482809109	 2.7312756136	 0.089543
H	 0.9766507219	 4.3510740906	 0.0921812591	 0.075804
H	 3.5906632177	 3.2338720215	 0.6495154798	 0.099969
H	 2.9042774746	 3.8377837471	 2.2009822057	 0.09605
H	 2.3235535114	 0.9982515129	 1.9857214233	 0.084844
H	 2.0820669044	 1.7870618866	-0.8276733044	 0.084417
102.3134	151.2057	304.0364	388.0471	416.5686	482.3826	550.8385	625.4042	663.7585	690.5261	737.8265	797.3723	816.195	886.2693	895.4995	913.6434	926.2497	965.3369	979.8475	993.0089	1034.2239	1046.9389	1072.1821	1084.4647	1119.1067	1123.8704	1164.5056	1183.079	1231.5728	1239.4616	1259.482	1271.8866	1279.5079	1346.817	1367.6267	1521.5971	2238.206	3016.5521	3053.4685	3108.2501	3114.5626	3120.9894	3132.5991	3142.8438	3502.6936
C#CC1OC2C3CC2C13	C#C[C@H]1O[C@@H]2[C@H]3C[C@@H]2[C@@H]13	
InChI=1S/C8H8O/c1-2-6-7-4-3-5(7)8(4)9-6/h1,4-8H,3H2	InChI=1S/C8H8O/c1-2-6-7-4-3-5(7)8(4)9-6/h1,4-8H,3H2/t4-,5+,6-,7-,8+/m1/s1
