14
gdb 128890	4.17777	1.28026	1.059	4.4098	73.26	-0.2563	-0.0098	0.2464	1074.3091	0.103659	-395.71802	-395.711063	-395.710119	-395.750099	25.615	
N	-0.7514298796	-1.1894675453	-0.2144389243	-0.305674
C	-0.3800755075	-0.0999334248	-0.1197711244	 0.305581
C	 0.0542156286	 1.2875423505	 0.0152941506	-0.127862
C	-0.169460219	 1.9798743519	 1.4371578035	-0.39168
C	 1.3433002352	 2.1551498121	 1.4411027364	 0.373021
C	 2.5931922083	 2.6311714023	 1.7766508397	-0.379741
C	 3.3947848217	 2.1748394707	 0.6887787127	 0.019515
N	 2.7143329492	 1.5003124012	-0.2519357201	-0.295645
N	 1.4839196205	 1.4993073605	 0.2768080047	 0.100774
H	-0.3241114461	 1.8786569812	-0.8235634986	 0.15777
H	-0.7622184561	 2.8946647106	 1.3832308263	 0.148049
H	-0.5849842243	 1.3116873672	 2.1928973831	 0.155583
H	 2.9116672062	 3.1981497353	 2.6346894609	 0.117495
H	 4.4591023928	 2.3136372666	 0.5631481995	 0.122815
59.9015	139.9904	204.1812	278.2421	413.9337	505.6253	564.7984	645.8266	663.4889	734.4387	770.3629	790.776	858.9674	885.1629	944.6324	994.178	1029.6561	1040.6611	1094.7527	1115.9467	1180.5533	1207.4492	1235.2494	1299.5958	1332.5034	1347.0237	1410.6717	1468.5522	1506.218	1575.167	2366.1621	3079.3075	3085.4739	3142.196	3244.996	3284.2167
N#CC1CC2=CC=NN12	N#C[C@H]1Cc2ccnn12	
InChI=1S/C6H5N3/c7-4-6-3-5-1-2-8-9(5)6/h1-2,6H,3H2	InChI=1S/C6H5N3/c7-4-6-3-5-1-2-8-9(5)6/h1-2,6H,3H2/t6-/m1/s1
