19
gdb 32724	3.0542	0.9892	0.79365	3.3552	78.73	-0.2088	0.0357	0.2445	1438.6051	0.159751	-419.249535	-419.239998	-419.239054	-419.284998	33.877	
C	-0.1956046354	 1.5413400775	 0.2787803138	-0.491932
C	-0.042376756	 0.067758532	 0.0773543644	 0.208834
C	 0.0521593758	-0.6349874434	-1.1027611053	 0.21075
C	 0.0624228805	-0.2219216394	-2.5375507854	-0.311634
C	 1.4675498924	-0.1756154003	-3.1475304834	-0.059745
O	 1.3291507189	 0.18589934	-4.5112152902	-0.416956
N	 0.1837475275	-1.9589843198	-0.7139061912	-0.295322
C	 0.1546986084	-1.9925024929	 0.6468698145	-0.001337
N	 0.0217059888	-0.7924679451	 1.1569056252	-0.307654
H	 0.6829432345	 1.9682922151	 0.7757473217	 0.130072
H	-0.3314395889	 2.0658459159	-0.6710472935	 0.114956
H	-1.0596418445	 1.7581589216	 0.9154496038	 0.133903
H	-0.5512480073	-0.899167075	-3.1454900327	 0.110178
H	-0.3873000525	 0.7703873664	-2.6360396712	 0.126513
H	 2.0807430211	 0.5501180088	-2.5921248072	 0.09741
H	 1.9528057814	-1.1598737061	-3.0398219858	 0.079024
H	 2.2075907815	 0.2797209673	-4.8907425691	 0.288127
H	 0.2513948293	-2.7506169754	-1.3315340904	 0.260404
H	 0.2311499744	-2.9151792572	 1.203223062	 0.124409
44.237	89.0814	92.7802	116.6986	248.6111	254.9215	263.3111	344.2808	357.8574	424.8525	504.0235	655.6095	676.9219	702.9574	781.6618	791.012	807.8433	958.6036	984.6536	1001.8216	1026.1723	1063.3878	1079.4034	1116.3616	1167.262	1214.0174	1241.0583	1258.0319	1287.2131	1315.208	1334.7738	1385.5761	1415.3055	1453.0383	1462.6728	1476.3301	1482.8234	1496.5611	1524.8002	1526.1743	1634.5049	2963.462	3001.32	3030.1052	3033.0503	3086.1268	3092.7146	3114.2385	3246.5962	3660.2578	3832.1602
CC1=C(CCO)NC=N1	Cc1c(CCO)[nH]cn1	
InChI=1S/C6H10N2O/c1-5-6(2-3-9)8-4-7-5/h4,9H,2-3H2,1H3,(H,7,8)	InChI=1S/C6H10N2O/c1-5-6(2-3-9)8-4-7-5/h4,9H,2-3H2,1H3,(H,7,8)
