15
gdb 66891	2.68653	2.09743	1.46213	1.6232	70.46	-0.2228	-0.0116	0.2112	882.2411	0.113297	-416.749076	-416.742191	-416.741246	-416.780031	27.846	
O	-0.0047300975	 1.401109327	-0.091000351	-0.454274
C	 0.0401819046	 0.0397265893	 0.0041537733	 0.345253
C	-0.1724525728	-0.8274263608	-1.2592912162	-0.144907
C	 0.6750173291	-2.0598522225	-1.4017518156	-0.086591
C	 0.6337379665	-2.7076324997	-0.2387630026	-0.091693
N	-0.1617243275	-1.9734458271	 0.7515407344	-0.20202
C	-1.0430437633	-1.0589678953	-0.0687688099	-0.116562
C	 0.6376823216	-0.7628304827	 1.0864065766	 0.312372
N	 1.3606103901	-0.4592744201	 2.0687214077	-0.566135
H	 0.058969238	 1.7547433732	 0.8055925553	 0.305945
H	-0.5471817753	-0.2711895701	-2.1107704136	 0.113374
H	 1.2073100735	-2.3454417624	-2.2978034831	 0.117415
H	 1.1374037239	-3.6123355622	 0.0695730778	 0.120933
H	-2.1189559597	-1.0350151018	 0.0456554111	 0.117668
H	 1.4602023889	-1.2493309449	 2.7091022458	 0.229222
139.0852	216.788	267.0863	346.6337	396.3962	455.8352	493.6891	640.2857	668.834	707.2494	745.2551	788.9614	821.2453	841.0934	867.5578	874.9721	898.5085	904.0398	945.0813	967.914	998.2139	1009.2548	1033.8158	1126.3818	1140.3921	1204.2756	1223.0181	1292.5019	1336.1957	1369.1837	1447.1118	1640.3589	1804.3059	3191.3019	3202.9155	3228.9311	3254.7622	3465.1999	3776.9157
OC12C3C=CN(C13)C2=N	O[C@]12[C@H]3C=CN([C@@H]13)[C]2[NH]	
InChI=1S/C6H6N2O/c7-5-6(9)3-1-2-8(5)4(3)6/h1-4,7,9H	InChI=1S/C6H6N2O/c7-5-6(9)3-1-2-8(5)4(3)6/h1-4,7,9H/t3-,4+,6+/m0/s1
