19
gdb 53417	2.65048	1.05283	0.83651	1.8087	87.04	-0.2332	0.0201	0.2533	1450.3228	0.15728	-385.873595	-385.86368	-385.862736	-385.910245	34.383	
C	 0.0413438219	 1.4419128521	 0.2370405639	-0.498154
C	 0.009667863	-0.0042837161	 0.0745199598	 0.023568
C	-0.0039098828	-1.2017234686	-0.054131258	 0.121203
C	-0.033362954	-2.6600064663	-0.218895076	-0.145851
O	 0.7842524515	-3.3218372138	 0.7518937999	-0.264255
C	-0.0240615561	-4.1413775406	 1.5946610579	-0.114696
C	-1.4008277661	-4.0760328528	 1.0032250158	-0.210928
C	-1.4281863866	-3.2430117418	-0.0315878506	 0.325905
C	-2.5642700094	-2.8552970208	-0.9179799299	-0.495024
H	 0.9489726553	 1.7573820343	 0.7633795344	 0.152981
H	 0.0282467151	 1.9515962292	-0.7327084054	 0.148146
H	-0.8182089357	 1.800673687	 0.8138381983	 0.14724
H	 0.3614167624	-2.9044990145	-1.2190054676	 0.102604
H	 0.3887810761	-5.1612920367	 1.6051234758	 0.106107
H	 0.0049014561	-3.7690874184	 2.6317549869	 0.105439
H	-2.2407831947	-4.6371260949	 1.3947452104	 0.100013
H	-3.4930135445	-3.3449237848	-0.615036479	 0.126059
H	-2.718782108	-1.77043265	-0.8970900983	 0.14104
H	-2.3610662135	-3.1245652824	-1.9623463385	 0.128603
24.7014	51.8967	84.5768	152.9831	166.7262	228.7396	254.6111	312.7255	336.2803	417.7058	468.9868	559.7287	616.9637	773.0277	783.7979	840.9041	924.9874	933.325	947.0723	1031.2188	1045.8827	1051.2485	1054.5581	1067.6135	1089.4584	1164.8063	1192.7253	1204.591	1275.0174	1322.3741	1345.4787	1376.7671	1413.3104	1414.8834	1476.6541	1477.0168	1478.9357	1490.2421	1521.6388	1740.3289	2365.5515	2958.7836	2970.2777	2998.6817	3023.6851	3027.3477	3075.2954	3087.9645	3089.3765	3118.9308	3207.7026
CC#CC1OCC=C1C	CC#C[C@H]1OCC=C1C	
InChI=1S/C8H10O/c1-3-4-8-7(2)5-6-9-8/h5,8H,6H2,1-2H3	InChI=1S/C8H10O/c1-3-4-8-7(2)5-6-9-8/h5,8H,6H2,1-2H3/t8-/m1/s1
