17
gdb 34206	3.94773	1.41578	1.24353	4.0264	76.28	-0.2302	0.0119	0.2421	1008.6645	0.138632	-380.82245	-380.815625	-380.814681	-380.853561	27.395	
N	-0.0128434268	-1.1787699587	 0.047560195	-0.342687
C	-0.0167286847	-0.0219544321	 0.019452563	 0.173313
C	-0.017392239	 1.4192698506	-0.0231946807	 0.191901
C	-1.1448924906	 2.184379314	 0.7386476239	-0.283235
C	-1.2164156238	 3.2378407313	-0.396919841	-0.051458
C	-0.0100628683	 4.1975816531	-0.3931332349	-0.17554
N	 0.8902232247	 3.1651264252	-1.0175256078	-0.141294
C	 1.3385145972	 2.1760485994	 0.012719743	-0.217854
C	-0.3357146783	 2.3064459438	-1.2864889829	-0.038346
H	-2.0537754906	 1.5792703803	 0.7697982802	 0.130472
H	-0.9094906395	 2.5282376675	 1.7499080287	 0.11078
H	-2.1994208716	 3.6203248994	-0.6691335429	 0.084074
H	-0.1322467273	 5.0359718197	-1.085484596	 0.117162
H	 0.3345672049	 4.5859593595	 0.5715774116	 0.104841
H	 1.6422969674	 2.6043071454	 0.9733985522	 0.113115
H	 2.1569396004	 1.569184113	-0.3839314725	 0.130987
H	-0.5413751442	 1.9376412684	-2.289610679	 0.093772
145.0415	148.8679	294.766	330.7747	442.4501	469.6154	555.6955	558.9574	609.3472	729.4426	809.1309	814.173	882.5311	905.7449	914.8262	941.2771	949.0366	976.286	986.7007	1036.5923	1075.4088	1125.1043	1159.9102	1173.5927	1179.0972	1199.7528	1205.6322	1229.1724	1246.2507	1264.0424	1303.223	1323.2348	1337.8181	1482.7884	1493.2302	1510.2183	2344.3293	3036.4668	3045.7861	3058.2454	3088.4206	3101.6316	3111.5949	3119.8835	3136.2094
N#CC12CC3CN(C1)C23	N#C[C@@]12C[C@H]3CN(C1)[C@@H]23	
InChI=1S/C7H8N2/c8-3-7-1-5-2-9(4-7)6(5)7/h5-6H,1-2,4H2	InChI=1S/C7H8N2/c8-3-7-1-5-2-9(4-7)6(5)7/h5-6H,1-2,4H2/t5-,6+,7-/m0/s1
