20
gdb 105350	2.12503	1.55727	1.13107	3.3073	78.53	-0.2402	-0.0278	0.2124	1166.8162	0.169743	-403.107686	-403.098658	-403.097714	-403.141939	33.508	
C	 0.1106838399	 1.6332244185	-0.3627162488	-0.395065
C	 0.0617367433	 0.1471577424	 0.0177857982	-0.256321
C	-1.3491335458	-0.4752986087	 0.0264865816	 0.208756
C	-2.1357658872	-0.5802256051	-1.3205209734	-0.22815
N	-2.3534001894	-2.0577245473	-1.1454791502	-0.122212
C	-1.0076871599	-2.6573900991	-1.140848974	-0.256686
C	-1.4681147635	-1.9991925517	 0.0950064229	-0.069207
C	-2.2038904263	 0.1934857661	 1.0842328482	 0.11577
O	-2.5641452826	-0.3292923433	 2.1078463968	-0.249547
H	 1.148028644	 1.9710586557	-0.442196368	 0.123935
H	-0.3701517503	 1.8138729896	-1.3302624973	 0.122498
H	-0.3831062253	 2.2692003186	 0.3777530379	 0.125785
H	 0.6775833727	-0.4210132293	-0.6875610703	 0.106169
H	 0.5153621505	-0.0002191926	 1.0060184589	 0.115175
H	-3.0926900431	-0.0513622753	-1.3288821566	 0.117565
H	-1.578819835	-0.3186084144	-2.2273850573	 0.105251
H	-1.0309906489	-3.7427931112	-1.1601119606	 0.126891
H	-0.2285926485	-2.2141731811	-1.7578355428	 0.109749
H	-1.7227546961	-2.5397888643	 0.998882214	 0.116988
H	-2.4911978786	 1.2439378524	 0.8508605908	 0.082657
51.1851	83.4478	169.0233	188.4292	222.8821	265.9872	326.4476	348.9897	418.0382	501.2403	570.9716	667.4283	743.1961	773.2049	780.7188	861.3008	900.5581	942.8947	959.2241	979.3097	1004.8339	1040.9544	1061.185	1071.3333	1111.5154	1121.0457	1162.4461	1177.6072	1199.8238	1231.5229	1236.4467	1283.6952	1310.0937	1358.2747	1379.1157	1413.595	1428.0831	1484.426	1491.7038	1502.2261	1506.8454	1512.593	1821.599	2871.8781	3029.8464	3034.2789	3038.6722	3068.9894	3094.1076	3103.6173	3104.6523	3113.3511	3186.1504	3197.5013
CCC1(CN2CC12)C=O	CC[C@]1(CN2C[C@@H]12)C=O	
InChI=1S/C7H11NO/c1-2-7(5-9)4-8-3-6(7)8/h5-6H,2-4H2,1H3	InChI=1S/C7H11NO/c1-2-7(5-9)4-8-3-6(7)8/h5-6H,2-4H2,1H3/t6-,7-,8?/m0/s1
