13
gdb 27142	3.26697	1.1808	0.90303	2.5702	62.13	-0.2217	-0.0164	0.2053	1191.439	0.088086	-493.73056	-493.72265	-493.721706	-493.763996	28.123	
O	-0.1727771463	 1.2766397668	-0.099845159	-0.439688
C	-0.0039724695	-0.0666140433	-0.0471967075	 0.208572
C	 0.3246284028	-0.9338356693	-1.0426278018	 0.254552
O	 0.6619914116	-0.7118621889	-2.3417934539	-0.225075
C	-0.2632734662	-1.0804416704	-3.2949150508	 0.161524
O	-0.0441698562	-0.957205044	-4.4543374173	-0.240235
O	 0.4121928091	-2.208362929	-0.5703739326	-0.16329
C	 0.1130313464	-2.1422944341	 0.755819458	 0.002457
C	-0.1470576366	-0.8641967628	 1.1346823018	-0.253525
H	 0.0842494185	 1.5885255316	-0.9752517732	 0.307566
H	-1.1847779321	-1.4792318273	-2.8364396551	 0.109613
H	 0.1227287912	-3.0816173563	 1.2821171595	 0.147674
H	-0.4074265426	-0.5120365729	 2.1196108319	 0.129855
47.0401	121.9827	142.0197	268.6143	292.1527	341.5978	401.1965	465.2615	536.4831	616.9664	666.2033	689.265	741.1937	827.3701	851.4536	909.1822	1037.746	1064.1084	1068.7217	1117.5119	1170.1791	1231.6098	1296.6762	1346.961	1401.6234	1495.03	1549.2633	1710.1624	1892.061	2997.2725	3267.0288	3293.2454	3807.9428
OC1=C(OC=O)OC=C1	Oc1c(OC=O)occ1	
InChI=1S/C5H4O4/c6-3-9-5-4(7)1-2-8-5/h1-3,7H	InChI=1S/C5H4O4/c6-3-9-5-4(7)1-2-8-5/h1-3,7H
