27
gdb 100932	2.27658	0.9445	0.7942	0.9775	92.84	-0.2417	0.0808	0.3225	1663.9523	0.249021	-390.695142	-390.682818	-390.681874	-390.733237	43.823	
C	 0.3652784313	 1.0143119077	-1.4080655871	-0.394096
C	 0.3999231135	-0.4032630738	-0.8268335397	-0.176203
C	 0.8865214069	-0.4918303113	 0.6338147759	 0.042118
C	-0.0815780761	 0.2004791251	 1.6050110597	-0.39623
C	 1.1473977518	-1.9635696538	 1.0298046952	 0.121208
C	 1.8388606894	-2.1235817409	 2.3894813667	-0.181958
C	 2.2434619167	-3.5683116617	 2.6935937133	-0.390393
O	-0.0880058174	-2.6876476878	 1.0576836686	-0.257014
C	-0.2173955358	-3.7128690889	 0.0993595284	-0.234824
H	 1.3472075515	 1.4961509923	-1.3359471254	 0.110736
H	 0.0840307084	 0.993958965	-2.4658490325	 0.110034
H	-0.3565254231	 1.6546199814	-0.8926128921	 0.119414
H	-0.5980390942	-0.8533853183	-0.8961564013	 0.104585
H	 1.0597367683	-1.0186096872	-1.4529856424	 0.084386
H	 1.8603860918	 0.017579819	 0.6890615247	 0.061758
H	-1.0331078239	-0.3383127816	 1.6375706049	 0.12934
H	 0.320707163	 0.2357001907	 2.6211916866	 0.110729
H	-0.2798284503	 1.2317105419	 1.3014023023	 0.108389
H	 1.8026396927	-2.4042044403	 0.2616829493	 0.057443
H	 2.7231012145	-1.4740380233	 2.4108825526	 0.089047
H	 1.1632841365	-1.7656072285	 3.1736045507	 0.107429
H	 2.7223569538	-3.6459850526	 3.6745114778	 0.109439
H	 1.366067102	-4.2212722927	 2.6965140954	 0.127901
H	 2.9499234406	-3.9519517843	 1.9483566201	 0.106876
H	 0.5618598188	-4.4818391791	 0.208035167	 0.103844
H	-1.1922206564	-4.182019613	 0.2615859741	 0.121985
H	-0.1821512444	-3.330490504	-0.9310431031	 0.104058
57.852	66.6991	83.7466	96.2745	152.155	163.2421	205.9966	208.8606	241.604	266.0996	301.6495	317.5325	329.22	356.0085	448.9032	494.1729	641.1482	760.9731	779.6507	821.6922	877.9134	922.5146	950.2841	972.5272	1009.034	1034.7225	1040.2844	1077.3409	1105.4259	1134.0419	1144.3425	1180.3643	1182.0009	1198.8927	1225.6645	1288.1768	1298.3459	1302.442	1323.7781	1360.4061	1380.9234	1386.8479	1396.8739	1406.4566	1411.0475	1415.2701	1475.2745	1483.0212	1486.1081	1491.3127	1494.5759	1499.1823	1502.9257	1506.4463	1508.7041	1513.0336	1516.0907	2970.1183	2984.4869	2993.5394	3012.2157	3028.853	3030.557	3030.9159	3032.7831	3047.671	3054.9824	3073.2086	3095.4892	3098.7348	3101.2997	3105.1696	3114.564	3115.5716	3121.5635
CCC(C)C(CC)OC	CC[C@@H](C)[C@@H](CC)OC	
InChI=1S/C8H18O/c1-5-7(3)8(6-2)9-4/h7-8H,5-6H2,1-4H3	InChI=1S/C8H18O/c1-5-7(3)8(6-2)9-4/h7-8H,5-6H2,1-4H3/t7-,8-/m1/s1
