18
gdb 53540	2.65799	0.94572	0.8002	3.9462	84.86	-0.2543	0.0321	0.2864	1502.6675	0.145899	-364.794609	-364.784673	-364.783729	-364.831269	34.608	
C	 0.1120579719	 1.4564072653	-0.397594489	-0.496721
C	 0.0771122645	 0.0185263126	-0.1743861557	 0.079873
C	 0.0492519927	-1.169261732	 0.0172674911	 0.076508
C	-0.014610602	-2.6072365645	 0.2534173629	-0.443338
C	-1.4305057923	-3.1823958798	 0.1311385029	 0.186972
C	-1.9718449198	-3.5045516405	-1.2507055869	-0.276602
C	-1.5939126807	-4.6240166059	-0.32645476	-0.305427
C	-2.3732353534	-2.6988466937	 1.1091508218	 0.251394
N	-3.1275555328	-2.3208799405	 1.9006568851	-0.346264
H	 0.5983547569	 1.9755794891	 0.4353903713	 0.151719
H	 0.6614679836	 1.7058006966	-1.3119737191	 0.147182
H	-0.9000029419	 1.8637720471	-0.4958194621	 0.154776
H	 0.6241708421	-3.1362497428	-0.4649915817	 0.128697
H	 0.3823433822	-2.8443091355	 1.2485045201	 0.144465
H	-3.0236106491	-3.3222873473	-1.4338748264	 0.141967
H	-1.3190458229	-3.2732016956	-2.085019	 0.133444
H	-0.680157256	-5.1746770731	-0.5214151984	 0.12852
H	-2.386222463	-5.2071622694	 0.1268760141	 0.142836
26.8398	44.681	77.1937	168.2948	205.9987	223.7634	264.3507	314.0508	348.8059	382.2315	462.422	569.8312	581.0478	698.6101	767.7218	788.305	876.2124	929.6529	937.5104	969.2478	1010.3907	1052.5556	1054.8306	1070.4805	1093.7888	1170.5408	1192.3016	1205.7083	1280.1679	1331.306	1358.6611	1414.9593	1464.1632	1473.2968	1477.5361	1478.1119	1499.0222	2351.7487	2377.6322	3021.2696	3029.345	3054.7471	3090.4316	3092.3461	3142.902	3146.6339	3228.4525	3242.0233
CC#CCC1(CC1)C#N	CC#CCC1(CC1)C#N	
InChI=1S/C8H9N/c1-2-3-4-8(7-9)5-6-8/h4-6H2,1H3	InChI=1S/C8H9N/c1-2-3-4-8(7-9)5-6-8/h4-6H2,1H3
