17
gdb 68887	2.38989	1.86936	1.42768	2.6328	67.8	-0.2311	0.0662	0.2973	954.1229	0.135605	-458.89844	-458.890669	-458.889725	-458.930318	30.596	
O	-0.1435272339	 1.4391220296	 0.002261466	-0.465659
C	-0.0314099895	 0.0628729116	-0.0304674266	 0.305666
C	-0.2573312402	-0.8135214981	 1.1863594611	-0.414121
C	-1.1585491255	-0.9961527292	 0.0040374945	 0.364275
O	-2.5223755075	-0.8860989003	 0.1153007377	-0.454193
C	-0.4624009496	-1.7737628989	-1.0915284578	 0.027918
O	-0.9413829172	-1.3504892793	-2.3886341278	-0.306397
C	 0.1465355463	-0.4008445822	-2.5306601113	-0.090837
C	 0.6908935042	-0.7132552033	-1.1243468714	-0.156435
H	 0.5381542115	 1.7940113652	 0.5834517267	 0.288348
H	 0.4545172994	-1.5747695339	 1.5021488775	 0.104946
H	-0.7486974847	-0.2853570482	 1.9983687329	 0.128693
H	-2.8524411683	-0.7220354547	-0.7782338318	 0.295744
H	-0.3441299686	-2.8586357578	-1.0200094031	 0.078226
H	 0.8123754227	-0.6953866551	-3.3502962038	 0.102349
H	-0.2051986238	 0.6233278574	-2.6935478743	 0.118931
H	 1.7514663247	-0.9475546127	-1.0174439982	 0.072545
148.4297	188.1299	190.6916	247.384	272.2483	413.1281	439.2153	477.1303	535.1715	550.0368	576.4833	726.0706	755.9517	821.7117	850.4185	873.2626	920.0837	973.1013	985.0105	1006.1971	1016.0034	1072.2209	1078.9433	1143.5838	1153.8717	1179.4111	1191.0382	1225.3046	1268.0372	1278.1725	1296.8499	1349.0801	1361.8514	1386.5628	1423.8168	1513.8522	1521.9721	3025.4644	3071.3101	3078.2881	3091.9739	3094.9402	3196.5298	3764.3361	3790.4463
OC12CC1(O)C1OCC21	O[C@@]12C[C@]1(O)[C@H]1OC[C@@H]21	
InChI=1S/C6H8O3/c7-5-2-6(5,8)4-3(5)1-9-4/h3-4,7-8H,1-2H2	InChI=1S/C6H8O3/c7-5-2-6(5,8)4-3(5)1-9-4/h3-4,7-8H,1-2H2/t3-,4+,5-,6+/m1/s1
