18
gdb 62093	3.63017	0.73653	0.63151	2.4187	69.77	-0.2598	-0.0471	0.2127	1677.4894	0.145336	-476.255953	-476.246002	-476.245058	-476.292431	34.277	
C	 0.3625852952	 1.577111696	 0.1993881291	-0.395403
C	 0.0096350964	 0.1011317883	 0.0062889296	-0.107737
N	-1.4298924431	-0.213527408	 0.0266074617	-0.33733
H	-1.9255579651	 0.4775332123	-0.531330841	 0.237685
H	-0.9168881272	-1.4699379572	-1.3435712674	 0.295474
C	-2.048939533	-0.3059724774	 1.34540038	-0.233547
C	-3.4267033947	-0.9464498755	 1.2521459585	 0.149123
O	-4.3418926667	-0.6840600094	 1.9844359156	-0.223286
C	 0.637942707	-0.4591327559	-1.2906909783	 0.425004
O	 1.7021283678	-0.0971399637	-1.713170227	-0.33419
O	-0.0969095855	-1.4135424666	-1.8781046641	-0.366338
H	 1.441652949	 1.7136426042	 0.1124640889	 0.159782
H	-0.11311047	 2.1928186158	-0.5719979547	 0.123829
H	 0.0352533771	 1.9347031146	 1.1795788607	 0.119626
H	 0.466158898	-0.4847752726	 0.8156992302	 0.124342
H	-1.434991619	-0.976993571	 1.9633221205	 0.145082
H	-2.1381488601	 0.6451732392	 1.8879668306	 0.130504
H	-3.5131458161	-1.7050457831	 0.4412349372	 0.087379
49.6482	64.2756	73.384	101.9291	192.0396	212.6303	255.1786	308.5419	340.4531	417.2144	486.1645	563.6595	588.6335	727.4275	741.2325	792.0109	839.015	893.7897	920.5011	1028.3897	1072.0954	1082.1104	1092.5253	1151.5428	1175.634	1208.0404	1252.9568	1302.2627	1323.1742	1369.275	1401.9118	1409.0231	1414.9664	1471.9318	1486.8162	1491.3797	1504.978	1844.6247	1871.7808	2881.4206	3005.0723	3026.9584	3042.2762	3048.6455	3110.684	3146.0861	3494.0042	3516.9742
CC([NH2+]CC=O)C([O-])=O	C[C@@H](NCC=O)C(=O)O	
InChI=1S/C5H9NO3/c1-4(5(8)9)6-2-3-7/h3-4,6H,2H2,1H3,(H,8,9)	InChI=1S/C5H9NO3/c1-4(5(8)9)6-2-3-7/h3-4,6H,2H2,1H3,(H,8,9)/t4-/m1/s1
