16
gdb 25843	3.82641	1.2176	0.93445	3.3886	79.9	-0.247	-0.0357	0.2113	1194.7745	0.127468	-400.854736	-400.847246	-400.846302	-400.886953	29.08	
N	-0.0092600507	 1.3538458044	 0.074321448	-0.540101
C	 0.0271921206	 0.0001181098	-0.1612160848	 0.329501
O	 1.0636874963	-0.5744170882	-0.4407503379	-0.353713
C	-1.2876308562	-0.7202588755	-0.0804776375	 0.200899
C	-2.5267347746	-0.0737665825	-0.1357906639	-0.218694
C	-3.7068670252	-0.8079638263	-0.0600190588	-0.091629
C	-3.6588264449	-2.1935120723	 0.0742970878	-0.111541
C	-2.4270268574	-2.8452012785	 0.1195306227	-0.102639
C	-1.2491224148	-2.113019621	 0.0355261252	-0.15836
H	 0.8918239671	 1.8001419056	 0.1504485135	 0.259543
H	-0.7559064322	 1.7515921184	 0.6187810227	 0.256357
H	-2.5786291371	 1.0010574823	-0.274142874	 0.097084
H	-4.6632946774	-0.2986115431	-0.1127959032	 0.100223
H	-4.5792604935	-2.7647484575	 0.1360665538	 0.10238
H	-2.3865462795	-3.9249722479	 0.2169750888	 0.103241
H	-0.2794009104	-2.5959947576	 0.0558746378	 0.12745
68.3376	155.4559	217.7318	375.1532	403.0726	416.7799	423.0309	503.3793	558.6999	617.0309	628.6302	710.4301	734.1372	760.5744	827.1833	874.887	949.5168	973.6983	1004.9543	1015.1036	1048.3114	1083.1265	1112.0878	1141.5049	1183.4046	1202.2035	1332.702	1349.1111	1364.2343	1476.6862	1523.2672	1616.0596	1620.9347	1641.9502	1780.0845	3171.3609	3179.4126	3188.9503	3198.9778	3213.1667	3590.0398	3716.7375
NC(=O)C1=CC=CC=C1	NC(=O)c1ccccc1	
InChI=1S/C7H7NO/c8-7(9)6-4-2-1-3-5-6/h1-5H,(H2,8,9)	InChI=1S/C7H7NO/c8-7(9)6-4-2-1-3-5-6/h1-5H,(H2,8,9)
