15
gdb 16638	3.20313	2.40731	1.60701	2.3182	61.16	-0.2608	0.0104	0.2712	789.3741	0.120194	-399.795329	-399.788647	-399.787703	-399.82621	25.96	
O	-0.0993111221	 1.4654883877	-0.116134881	-0.432575
C	-0.0220313694	 0.0625920229	-0.0226519995	 0.039271
C	-1.3609406883	-0.6409396425	-0.0662188888	-0.074701
C	-2.1409208635	-0.5383316979	-1.3633019729	-0.311185
C	-1.2182474115	-1.6950787544	-1.1281218563	 0.077888
O	 0.0689292766	-1.6027499137	-1.7303387661	-0.227982
C	 0.7220210941	-0.5224208762	-1.2256755901	 0.372434
N	 1.7776143519	-0.0036863455	-1.6806405302	-0.552532
H	 0.7265825612	 1.742897911	-0.5379763807	 0.296419
H	 0.5129420181	-0.2371483268	 0.8932981848	 0.095763
H	-1.8861348794	-0.8367325433	 0.8592740343	 0.104284
H	-3.2072377851	-0.7273345834	-1.3152797767	 0.125284
H	-1.8402521405	 0.2185800122	-2.0798925932	 0.139752
H	-1.5550656212	-2.7194021033	-1.0424024352	 0.115939
H	 2.109794639	-0.4780066769	-2.5200727684	 0.231941
87.7399	201.2969	269.1968	407.2653	419.2625	461.0729	512.2656	603.9346	687.8203	714.4227	791.8749	823.8055	863.1612	885.6482	941.5894	989.7618	1022.2669	1032.6767	1060.2721	1076.2888	1102.4411	1140.6724	1155.6375	1201.0504	1252.637	1268.1366	1341.1161	1376.8508	1390.9764	1433.3086	1482.2177	1780.5272	2969.9572	3138.9785	3197.28	3208.7091	3230.7762	3495.0767	3741.2979
OC1C2CC2OC1=N	O[C@H]1[C@H]2C[C@H]2O[C]1[NH]	
InChI=1S/C5H7NO2/c6-5-4(7)2-1-3(2)8-5/h2-4,6-7H,1H2	InChI=1S/C5H7NO2/c6-5-4(7)2-1-3(2)8-5/h2-4,6-7H,1H2/t2-,3+,4-/m0/s1
