20
gdb 92782	2.73976	1.3197	0.98305	5.2966	86.04	-0.2067	-0.0271	0.1796	1233.7531	0.171377	-403.183882	-403.174875	-403.173931	-403.217455	34.209	
C	 0.1986960072	 1.5611237065	-0.226901912	-0.395442
C	-0.0276505698	 0.0709834116	 0.0448976421	 0.015292
N	 0.5123780866	-0.7470939922	-1.0676811028	-0.285399
C	 1.7139710988	-1.2749072951	-0.6929597909	-0.080796
C	 1.9403888036	-1.1862049636	 0.6413925737	 0.175118
C	 3.0773373367	-1.7657662398	 1.305546198	 0.054349
O	 3.2803924947	-1.7724685285	 2.5087909395	-0.316611
C	 0.7339466267	-0.5144185505	 1.2876998423	-0.098764
C	 1.0538100164	 0.4772562759	 2.4100857083	-0.41261
H	 1.2641759434	 1.7884766872	-0.3302179903	 0.130086
H	-0.3064831971	 1.8594227762	-1.1524896807	 0.108236
H	-0.2069918861	 2.1741289552	 0.5821751009	 0.130911
H	-1.102684269	-0.1129712844	 0.1358643606	 0.088813
H	 0.3806761874	-0.4254503897	-2.0153888943	 0.244246
H	 2.3523876821	-1.741119865	-1.4349677047	 0.131458
H	 3.8094609247	-2.239867493	 0.6090653836	 0.04526
H	 0.1007122229	-1.3034543818	 1.7175631321	 0.093589
H	 1.6921614896	 1.2946015654	 2.0624767647	 0.112296
H	 0.139059107	 0.9106351102	 2.8287373865	 0.103235
H	 1.5907670242	-0.0457995946	 3.2027777233	 0.156732
63.5623	145.8641	184.7213	252.1445	271.4452	281.8881	294.9151	337.2703	403.7959	436.3641	510.9495	541.7742	588.1455	703.5053	734.3496	810.6982	821.5222	916.2809	923.432	999.8119	1023.4523	1039.56	1063.6605	1101.142	1136.3638	1142.0179	1172.3693	1262.5808	1297.2425	1322.0425	1346.2599	1363.9925	1378.8654	1404.3362	1410.9052	1431.9312	1459.7155	1486.3144	1493.1323	1501.5095	1517.4315	1652.3506	1751.1256	2838.6156	2993.8644	3033.654	3040.1783	3052.232	3100.2635	3107.8682	3123.1053	3144.3137	3205.0014	3605.9989
CC1NC=C(C=O)C1C	C[C@H]1NC=C(C=O)[C@H]1C	
InChI=1S/C7H11NO/c1-5-6(2)8-3-7(5)4-9/h3-6,8H,1-2H3	InChI=1S/C7H11NO/c1-5-6(2)8-3-7(5)4-9/h3-6,8H,1-2H3/t5-,6+/m0/s1
