22
gdb 79248	2.27643	1.6703	1.39926	1.7416	85.83	-0.2251	0.0822	0.3073	1097.2192	0.193346	-367.167931	-367.158827	-367.157883	-367.200933	35.488	
C	-0.0742595704	 1.5250296764	-0.037236242	-0.428395
C	 0.1003362957	 0.0206583537	 0.0812276978	 0.060875
N	 1.1323601005	-0.6222802644	-0.8000833175	-0.202129
C	 2.4000714229	-0.6342460947	 0.0289148399	-0.093797
C	 2.1439056663	-0.0017278069	 1.392577268	-0.294154
C	 0.7393920611	-0.6627017091	 1.3159186247	 0.238968
C	-0.045240981	-0.9934484456	 2.5583539391	-0.51206
C	 1.3575344913	-1.6660535254	 0.2386785985	 0.317294
C	 1.2790202504	-3.1380459148	 0.0164586793	-0.532455
H	 0.8577154546	 2.0685945303	 0.1361753706	 0.120964
H	-0.4222266561	 1.779149569	-1.0438053633	 0.125999
H	-0.8212292474	 1.8870346352	 0.6782716388	 0.112714
H	-0.8497549824	-0.4750927332	-0.1541609141	 0.07062
H	 3.3249103528	-0.6995165313	-0.529978364	 0.091139
H	 2.7607120829	-0.4848205112	 2.1564123903	 0.099267
H	 2.2055098795	 1.0844991492	 1.513111414	 0.091006
H	-0.3352229855	-0.0803939695	 3.0922089681	 0.121632
H	-0.9631338217	-1.5416383464	 2.3177850248	 0.116709
H	 0.5390825987	-1.6073624005	 3.2526798585	 0.116878
H	 0.2399607912	-3.4772192135	-0.0650868393	 0.122968
H	 1.7918309357	-3.4025155104	-0.9136217643	 0.135401
H	 1.7493953808	-3.6918799167	 0.836586532	 0.120555
152.9054	178.9322	182.8962	191.2361	202.8368	212.1098	311.0606	321.4183	367.4706	501.8102	560.8966	604.2615	651.5795	700.6139	722.241	796.0828	837.7141	870.8086	897.4629	956.8756	967.6244	986.7009	1031.9145	1056.353	1092.3556	1106.5604	1114.8353	1120.8023	1159.4379	1175.4778	1212.1304	1222.992	1246.0538	1275.3331	1335.7214	1392.367	1400.3109	1410.3535	1414.8326	1449.2449	1480.2076	1486.3625	1489.6752	1490.4968	1493.1719	1495.3988	1514.3317	3020.3892	3024.117	3026.5485	3035.8613	3045.3637	3083.5049	3084.7802	3088.8154	3093.6089	3099.624	3105.1146	3121.7044	3197.2865
CC1N2C3CC1(C)C23C	C[C@H]1N2[C@H]3C[C@]1(C)[C@@]23C	
InChI=1S/C8H13N/c1-5-7(2)4-6-8(7,3)9(5)6/h5-6H,4H2,1-3H3	InChI=1S/C8H13N/c1-5-7(2)4-6-8(7,3)9(5)6/h5-6H,4H2,1-3H3/t5-,6+,7+,8+,9?/m1/s1
