21
gdb 61217	3.04735	0.92449	0.88267	3.15	82.74	-0.2547	0.0322	0.2869	1420.3398	0.181615	-383.269662	-383.259647	-383.258703	-383.304747	36.836	
C	 0.4194572331	 1.6958816869	-0.1220464311	-0.412505
C	 0.1254173382	 0.1985388782	 0.0398451821	-0.051061
C	 0.5243687182	-0.5978067275	-1.232273861	-0.356751
C	-0.2612113941	-0.215986284	-2.4028975079	 0.265559
N	-0.8976294386	 0.09851426	-3.3150731659	-0.31193
C	 0.7818446665	-0.4103408878	 1.2781544849	 0.355608
C	 2.2962689369	-0.3750058508	 1.3586807885	-0.463527
C	 0.000991195	-0.3730472792	 2.5418250684	-0.291436
N	 0.1891667087	-1.6496833467	 1.8229281683	-0.359596
H	 1.4854422208	 1.8791922337	-0.2915565566	 0.123767
H	-0.1286992367	 2.1088070373	-0.9735644763	 0.143623
H	 0.1213714349	 2.2462529997	 0.7748382219	 0.124766
H	-0.9588480667	 0.0786582726	 0.1633427061	 0.088011
H	 1.583964239	-0.441337169	-1.4630594877	 0.154163
H	 0.3937133079	-1.672273741	-1.0614701029	 0.155746
H	 2.6740738239	 0.652027231	 1.3796192911	 0.122272
H	 2.6273643484	-0.8819299478	 2.2676120627	 0.135206
H	 2.7602861265	-0.890999062	 0.5111105423	 0.119683
H	 0.5164161191	-0.305700575	 3.4960093795	 0.119672
H	-0.9822341503	 0.0909395139	 2.5278579992	 0.112334
H	-0.6670933607	-1.8809087326	 1.3227066346	 0.226396
64.848	76.8704	130.6336	198.4458	207.0424	240.1602	268.5413	295.9018	358.261	397.6989	402.7505	465.7283	496.1952	542.6849	725.1945	835.4008	849.0812	888.4223	906.9162	930.2018	959.0693	981.459	1004.004	1051.0032	1092.3401	1100.4773	1115.8528	1133.138	1150.6966	1237.6386	1263.2206	1282.6082	1329.9825	1345.6678	1357.1301	1399.857	1413.5323	1428.715	1467.0656	1487.9714	1497.6982	1499.8119	1502.6192	1515.4792	2359.644	3018.6074	3037.1154	3040.9037	3046.7603	3085.6618	3099.6248	3104.7787	3110.9071	3118.8399	3128.1181	3189.1963	3481.3894
CC(CC#N)C1(C)CN1	C[C@@H](CC#N)[C@@]1(C)CN1	
InChI=1S/C7H12N2/c1-6(3-4-8)7(2)5-9-7/h6,9H,3,5H2,1-2H3	InChI=1S/C7H12N2/c1-6(3-4-8)7(2)5-9-7/h6,9H,3,5H2,1-2H3/t6-,7+/m0/s1
