15
gdb 24972	4.71149	1.299	1.03579	3.3596	69.23	-0.1811	0.0396	0.2207	1089.6977	0.11496	-453.945909	-453.938742	-453.937798	-453.97754	27.494	
N	-0.0855381852	 1.2534293551	-0.0953319201	-0.587405
C	-0.0046007489	-0.0066249781	-0.0492208426	 0.442492
N	-1.1008802154	-0.8840436031	-0.1102594097	-0.454342
C	-0.6033259713	-2.145303601	 0.1338360134	 0.429837
C	 0.7181413177	-2.0928840345	 0.2544399236	 0.123342
C	 1.3013809985	-3.4479195518	 0.0340140169	-0.347325
C	-0.0261508467	-4.2627754793	 0.2334874789	-0.091943
O	-1.1698358528	-3.3600246227	 0.0110070214	-0.280596
O	 1.1433322436	-0.7720004881	 0.0871411056	-0.251859
H	 0.8353221711	 1.6777477899	-0.0237697533	 0.229532
H	-2.0307862396	-0.5432957285	 0.0673675812	 0.280871
H	 1.7244994576	-3.5787659964	-0.9725944333	 0.119937
H	 2.0556985206	-3.7748955133	 0.7569608006	 0.123581
H	-0.1425918313	-5.0967426081	-0.4583964113	 0.132987
H	-0.098255488	-4.6238532501	 1.2632137887	 0.130894
110.7098	173.0528	226.9672	315.8634	322.4232	402.2234	530.4907	554.7456	635.4722	711.0024	715.7481	747.0442	757.6241	836.8036	863.668	910.1759	924.6083	960.8323	1015.9744	1076.2273	1121.5586	1183.3512	1231.0989	1249.5827	1282.8987	1301.2482	1348.5423	1378.3069	1489.6011	1509.4818	1531.32	1762.8342	1798.4456	2995.5459	3057.1723	3072.421	3142.7624	3543.8417	3670.0251
N=C1NC2=C(CCO2)O1	[NH][C@@H]1NC2=C(CCO2)O1	
InChI=1S/C5H6N2O2/c6-5-7-4-3(9-5)1-2-8-4/h1-2H2,(H2,6,7)	InChI=1S/C5H7N2O2/c6-5-7-4-3(9-5)1-2-8-4/h5-7H,1-2H2/t5-/m1/s1
