12
gdb 132722	6.10213	1.01756	0.87213	3.1747	72.92	-0.2602	-0.0603	0.1999	1185.3633	0.077925	-439.66042	-439.653459	-439.652515	-439.692076	25.965	
F	 0.0010823729	 0.0648425673	 0.0030967948	-0.047771
C	-0.0167208562	 1.3809673807	 0.0108957704	 0.363987
N	-1.2167472418	 1.9355685465	 0.029646411	-0.297519
C	-1.2267140793	 3.2657556143	 0.0368142419	-0.047657
C	-0.0526173104	 4.0334745276	 0.0252962386	 0.0619
C	 1.141820627	 3.2979798092	 0.0054436279	-0.04766
N	 1.1678521288	 1.9680116801	-0.0019369464	-0.297516
C	-0.0718139292	 5.4522479906	 0.0330889966	 0.21844
C	-0.0881591518	 6.655837127	 0.0396894279	-0.390811
H	-2.1992062332	 3.7496469934	 0.0523073547	 0.139701
H	 2.1008599226	 3.8081501525	-0.0046458883	 0.139701
H	-0.1029828994	 7.7179433809	 0.0455082912	 0.205207
97.9525	142.1428	239.2536	424.4652	452.6927	453.4055	476.5197	541.8851	563.1578	609.9684	662.8939	668.5171	741.4139	825.9964	898.4683	979.3258	1000.0985	1054.1735	1250.0231	1253.7454	1303.9241	1376.3416	1400.8639	1489.6286	1578.2811	1630.6852	2232.6178	3177.7044	3178.3468	3500.8107
FC1=NC=C(C=N1)C#C	Fc1ncc(cn1)C#C	
InChI=1S/C6H3FN2/c1-2-5-3-8-6(7)9-4-5/h1,3-4H	InChI=1S/C6H3FN2/c1-2-5-3-8-6(7)9-4-5/h1,3-4H
