21
gdb 86417	2.1272	1.96889	1.42068	1.247	77.62	-0.236	0.0813	0.3173	1034.4142	0.183153	-424.218097	-424.20983	-424.208886	-424.250525	32.843	
C	-0.7358756139	 1.4739604959	-0.4874722969	-0.404686
C	-0.266737655	 0.020608613	-0.5057377429	 0.142261
O	 0.6965083068	-0.1993986957	-1.5483114473	-0.313967
C	 2.0841577883	-0.2985847897	-1.1908297163	 0.142263
C	 2.8327423825	 0.9894352453	-1.527420187	-0.404691
C	 2.2162561527	-0.6883908646	 0.2783695328	 0.072177
C	 1.134822067	-1.7158737979	 0.6623246192	-0.265416
C	 0.3060602089	-0.4290301855	 0.8350332944	 0.072178
O	 1.5311222447	 0.3271468101	 1.0703391939	-0.301315
H	 0.0584246289	 2.1295571137	-0.1223667382	 0.135322
H	-1.0183004254	 1.7864952032	-1.4958223991	 0.121979
H	-1.6078560456	 1.588100869	 0.1664061274	 0.106482
H	-1.1168375907	-0.6311563589	-0.7545975567	 0.07803
H	 2.4831270627	-1.1199406469	-1.8036880421	 0.078029
H	 2.5415797575	 1.7923840209	-0.8458627907	 0.135322
H	 3.9148528211	 0.8382135457	-1.4431561399	 0.106482
H	 2.6063917756	 1.2944197613	-2.5520969373	 0.12198
H	 3.2544889462	-0.8359094427	 0.5878123583	 0.078614
H	 0.8171475964	-2.4394021594	-0.0906720189	 0.111338
H	 1.3460318883	-2.2037457801	 1.6144098282	 0.109004
H	-0.410501087	-0.3382867465	 1.6558552688	 0.078614
93.0906	174.4599	237.1707	243.2988	264.6819	339.6715	367.9489	433.9513	434.4528	483.4517	621.7991	705.6086	743.322	801.8297	858.7256	895.1162	917.6799	924.6481	924.9109	983.8327	1002.7342	1029.0056	1041.8705	1050.298	1111.9444	1124.1251	1130.6204	1138.8696	1189.9866	1215.9192	1252.9895	1299.6105	1318.3391	1343.2181	1345.0472	1375.3983	1377.7387	1390.1355	1396.1334	1400.8289	1482.4973	1483.8068	1490.284	1495.973	1505.5635	2999.3609	3002.8602	3038.4816	3039.4879	3073.3484	3077.1827	3085.7429	3110.0771	3111.9403	3133.1302	3135.9066	3144.5688
CC1OC(C)C2CC1O2	C[C@H]1O[C@@H](C)[C@@H]2C[C@H]1O2	
InChI=1S/C7H12O2/c1-4-6-3-7(9-6)5(2)8-4/h4-7H,3H2,1-2H3	InChI=1S/C7H12O2/c1-4-6-3-7(9-6)5(2)8-4/h4-7H,3H2,1-2H3/t4-,5+,6-,7+
