12
gdb 25299	4.60902	1.10061	0.88845	5.3272	66.43	-0.2556	-0.1129	0.1426	1180.9254	0.077004	-472.657229	-472.64976	-472.648816	-472.690344	25.575	
O	-0.0373570243	 0.0110294046	 0.0021464327	-0.210416
C	-0.0203786101	 1.2107070608	 0.0090885249	 0.086483
C	 1.3239694418	 1.9783727485	-0.001170419	 0.18748
O	 2.3842213833	 1.4018299219	-0.0161781331	-0.271987
C	 1.2034755002	 3.4470382804	 0.00896243	 0.318934
N	 0.1054293898	 4.154396982	 0.0252622867	-0.283538
C	 0.5309567183	 5.4627873825	 0.0283480074	-0.108646
C	 1.892946123	 5.4779762705	 0.0136213645	-0.020435
O	 2.3331672559	 4.1997976853	 0.0011022755	-0.142337
H	-0.9353777274	 1.8313740993	 0.0228759618	 0.128011
H	-0.157903918	 6.2920227329	 0.0408147655	 0.146096
H	 2.6436995275	 6.2499445814	 0.0100490632	 0.170355
61.3054	90.9813	157.2565	191.3958	291.7556	389.6792	499.6613	550.7093	637.2403	745.1409	807.8914	837.2384	882.0743	926.8677	947.6956	996.7092	1012.8376	1125.338	1149.3733	1171.4797	1293.2869	1383.7451	1419.7522	1501.2327	1568.1629	1787.7847	1834.3765	2971.127	3269.6807	3299.2375
O=CC(=O)C1=NC=CO1	O=CC(=O)c1ncco1	
InChI=1S/C5H3NO3/c7-3-4(8)5-6-1-2-9-5/h1-3H	InChI=1S/C5H3NO3/c7-3-4(8)5-6-1-2-9-5/h1-3H
