15
gdb 19392	3.29834	2.25767	1.62528	4.0395	65.94	-0.2433	-0.0111	0.2322	804.5481	0.119267	-362.626051	-362.619355	-362.618411	-362.656834	25.659	
O	 0.0114719701	 0.0551795297	-0.0599035008	-0.312222
C	 0.0055450539	 1.2445814427	 0.0127955591	 0.351279
N	-1.1288826755	 2.1709071018	-0.0268182037	-0.184167
C	-1.0149774489	 3.0020453223	 1.2131215926	-0.247459
C	-0.1137713111	 3.3167720444	 0.0952488812	-0.124791
C	 1.0393823758	 2.3391579181	 0.051722812	 0.232104
C	 2.3928263089	 2.3415520825	 0.7138642705	-0.317238
C	 2.2932443398	 2.3692303053	-0.7836310879	-0.324669
H	-1.8921826933	 3.6218053249	 1.369559118	 0.139009
H	-0.6149815791	 2.5403893255	 2.1125161931	 0.133833
H	-0.2215076539	 4.191918615	-0.5340435804	 0.118096
H	 2.6938775947	 3.2486806959	 1.226671046	 0.126381
H	 2.704274482	 1.4186526177	 1.19120117	 0.138319
H	 2.5333672581	 1.4678900061	-1.3368106734	 0.142955
H	 2.5234339286	 3.2969454281	-1.2965431064	 0.128572
134.9893	185.7281	213.1148	258.7265	438.2697	488.6449	607.274	675.3333	741.6591	761.2318	787.1363	816.6475	880.179	929.4162	956.0005	983.0876	1007.0725	1040.3853	1049.8795	1066.689	1086.0434	1117.0075	1142.8129	1196.3144	1228.1153	1249.5471	1298.6052	1406.7051	1458.9947	1495.3137	1503.2165	1913.2295	3114.3412	3134.1776	3136.2976	3192.0615	3208.6891	3217.501	3231.6875
O=C1N2CC2C11CC1	O=C1N2C[C@H]2C21CC2	
InChI=1S/C6H7NO/c8-5-6(1-2-6)4-3-7(4)5/h4H,1-3H2	InChI=1S/C6H7NO/c8-5-6(1-2-6)4-3-7(4)5/h4H,1-3H2/t4-,7?/m0/s1
