21
gdb 104724	2.69774	1.04824	0.92895	2.5652	74.22	-0.2563	0.0527	0.309	1339.0737	0.181828	-461.339428	-461.329807	-461.328862	-461.373664	36.765	
O	-0.0031452764	 1.6784463399	 0.435472712	-0.420897
C	 0.0879017175	 0.2512125935	 0.5138630472	-0.141251
C	-1.186365711	-0.4614389884	 0.0680186672	 0.268798
C	-2.3873069385	-0.04178942	 0.9312919039	-0.102358
O	-2.7694360235	 1.3053104964	 0.7416262751	-0.432503
C	-1.5089664173	-0.4040215869	-1.4585464384	-0.324326
C	-1.8117720983	-1.9268220945	-1.4119999074	 0.179572
O	-1.4166211417	-2.7528756444	-2.4755264149	-0.431818
C	-1.0662803598	-2.0113038349	-0.0513833059	-0.331447
H	-0.0861703269	 1.9132343163	-0.4956924442	 0.294022
H	 0.9473039156	-0.1075702407	-0.0723229114	 0.087451
H	 0.2952502663	 0.0331045502	 1.5678933778	 0.11712
H	-3.2637110456	-0.6486907711	 0.6770748714	 0.103615
H	-2.1497277983	-0.252454267	 1.9893056524	 0.081711
H	-1.9647685744	 1.829022346	 0.8598426461	 0.284846
H	-2.3055990643	 0.2722880877	-1.7743635552	 0.121694
H	-0.6123143707	-0.2076855648	-2.0608754618	 0.076369
H	-2.8818642504	-2.1120896281	-1.2887726021	 0.100861
H	-0.4739275396	-2.6216167256	-2.6230147304	 0.27501
H	-0.0255532622	-2.3270550325	-0.1926479061	 0.08825
H	-1.5076546106	-2.6214060113	 0.7416715246	 0.105282
79.4215	117.2364	141.2993	226.5888	240.6243	304.1956	313.5251	323.0293	374.0113	391.0405	430.6622	460.7064	483.9749	628.1121	661.408	754.7889	831.7854	875.2836	930.6856	947.4616	962.2909	998.9322	1026.5244	1050.346	1075.128	1090.9868	1108.2939	1113.6861	1162.6314	1200.2325	1216.7629	1250.0278	1278.7011	1302.8178	1322.0089	1340.4848	1367.9871	1395.0713	1416.0082	1439.2979	1467.2416	1471.0044	1488.5469	1497.0013	1512.0181	2945.7552	2988.2993	3022.5404	3033.7032	3056.4775	3065.7161	3077.2956	3097.6018	3115.2488	3732.4937	3803.2949	3805.0687
OCC1(CO)CC(O)C1	OCC1(CO)CC(O)C1	
InChI=1S/C6H12O3/c7-3-6(4-8)1-5(9)2-6/h5,7-9H,1-4H2	InChI=1S/C6H12O3/c7-3-6(4-8)1-5(9)2-6/h5,7-9H,1-4H2
