20
gdb 117224	4.07262	0.83124	0.77988	4.4637	78.84	-0.2326	0.0204	0.253	1545.9853	0.170331	-440.310703	-440.301023	-440.300079	-440.347064	35.425	
C	-0.0034382996	 1.2010140907	-0.4502660799	-0.371947
C	-0.0778656974	 0.0269281753	 0.5287694409	-0.147253
N	-1.3785413888	-0.6268040872	 0.5381726519	-0.333406
C	-1.6232884873	-1.7994778173	-0.1039237698	 0.480721
O	-0.7413073915	-2.407779662	-0.7168541146	-0.433916
C	-3.0079299157	-2.3269382664	 0.0028457663	-0.219539
C	-3.5748900427	-3.0560560807	-1.2203497442	-0.324969
C	-3.1566435602	-3.857989418	-0.0358122325	 0.157569
O	-2.0500670287	-4.6815781567	-0.0490493769	-0.425415
H	 0.9870822951	 1.6653018749	-0.4128854583	 0.121624
H	-0.185700154	 0.8598024575	-1.4731042868	 0.137057
H	-0.7445215633	 1.9706129787	-0.2084878035	 0.111275
H	 0.648122988	-0.7417337329	 0.2574050152	 0.151709
H	 0.1518986373	 0.3629543321	 1.5464914063	 0.107622
H	-2.1533426877	-0.1479687006	 0.9676267087	 0.245762
H	-3.7024040148	-1.7675189585	 0.6216564771	 0.079738
H	-4.6298314513	-2.9206219189	-1.4322790539	 0.114771
H	-2.9223209982	-3.0857670689	-2.0863600788	 0.136845
H	-3.9381398481	-4.2642602414	 0.5991773918	 0.107605
H	-1.3200486511	-4.1524230296	-0.4229034689	 0.304146
14.9803	57.8793	104.3168	182.7248	226.0598	252.0852	320.2011	364.0641	422.5976	445.0156	478.5371	521.3681	625.8541	690.1416	758.0674	775.5714	790.7331	823.477	888.9143	901.0462	952.7905	1021.591	1057.34	1070.4725	1093.7326	1111.923	1123.336	1146.0094	1171.9267	1222.3706	1245.8229	1322.175	1366.213	1384.2297	1406.8188	1413.0396	1453.273	1478.223	1493.2003	1498.7009	1501.979	1556.6606	1713.3015	3036.0145	3040.8622	3099.8164	3119.2021	3131.4761	3132.544	3149.4813	3161.4208	3228.9037	3576.1064	3642.1219
CCNC(=O)C1CC1O	CCNC(=O)[C@H]1C[C@H]1O	
InChI=1S/C6H11NO2/c1-2-7-6(9)4-3-5(4)8/h4-5,8H,2-3H2,1H3,(H,7,9)	InChI=1S/C6H11NO2/c1-2-7-6(9)4-3-5(4)8/h4-5,8H,2-3H2,1H3,(H,7,9)/t4-,5+/m0/s1
