19
gdb 77990	2.8467	1.27803	1.03688	4.7597	82.94	-0.2232	0.0177	0.2409	1206.2092	0.1589	-382.039904	-382.030886	-382.029941	-382.073385	33.475	
C	-0.0597716818	 1.7725146233	 0.788464426	-0.429873
C	 0.0754549586	 0.2742102738	 0.629465081	-0.060198
C	 1.1997274583	-0.4935753761	-0.01291491	-0.07432
N	 2.5451031666	-0.0051963886	 0.2222924925	-0.058096
C	 3.0884052395	 1.1271027594	-0.5018135407	-0.334187
C	 2.3557941837	 0.0127661089	 1.688364775	-0.243207
C	 0.9549916083	-0.6053470517	 1.5092865105	 0.144615
C	 0.451398817	-1.6997643842	 2.2660778437	 0.192925
N	 0.0408759809	-2.5805873063	 2.8962898336	-0.352959
H	-0.3864971834	 2.2303340861	-0.150982659	 0.128891
H	-0.8089313768	 2.0046769179	 1.5525755946	 0.132029
H	 0.8735228964	 2.2539957644	 1.0847462996	 0.128724
H	-0.8738028868	-0.2248843601	 0.4384907042	 0.112487
H	 1.0164479466	-1.2409726758	-0.7791914786	 0.115316
H	 2.5640687873	 2.0819031715	-0.3376079596	 0.103167
H	 4.1382641966	 1.2631831111	-0.2217965108	 0.128435
H	 3.0591385176	 0.9069608553	-1.5738786328	 0.129934
H	 3.0571930523	-0.6474113987	 2.2074013635	 0.129681
H	 2.3751829289	 1.00102014	 2.1658706373	 0.106635
117.0878	138.1871	152.8441	176.8046	223.6067	242.475	274.7751	350.4165	411.4395	492.0727	552.8083	584.1627	621.7468	680.2235	755.7034	851.7457	903.0171	976.7176	981.3736	1002.659	1037.9172	1081.5364	1100.0121	1118.2599	1132.4689	1166.1919	1215.5246	1239.5123	1248.0354	1292.1627	1304.9301	1359.3065	1415.4298	1451.8547	1452.6245	1479.4969	1494.7113	1502.9055	1509.9018	1518.2333	2342.5649	2979.7299	3015.8753	3041.3174	3063.7551	3076.3036	3099.3954	3102.3146	3120.045	3138.2752	3158.6475
CC1C2N(C)CC12C#N	C[C@H]1[C@H]2N(C)C[C@@]12C#N	
InChI=1S/C7H10N2/c1-5-6-7(5,3-8)4-9(6)2/h5-6H,4H2,1-2H3	InChI=1S/C7H10N2/c1-5-6-7(5,3-8)4-9(6)2/h5-6H,4H2,1-2H3/t5-,6+,7-/m0/s1
