17
gdb 127936	3.69678	1.2061	0.91985	2.9876	83.3	-0.2178	-0.0666	0.1512	1263.2084	0.13619	-414.194344	-414.185693	-414.184748	-414.227846	31.452	
C	 0.0202795649	 1.4178871637	 0.0306949991	-0.341006
N	 0.0571363039	-0.0292926675	 0.0421092546	-0.296139
C	-1.0513023807	-0.6591278746	 0.0244406977	 0.451734
N	-2.3178900543	-0.0347451717	-0.0057606727	-0.293043
N	-3.5029870906	-0.6499923087	-0.0254649264	-0.147364
C	-3.4675812859	-1.9451004721	-0.0154803409	-0.050698
C	-2.2098521721	-2.6666029345	 0.0152489785	 0.314257
C	-2.2320954343	-4.1686593903	 0.0256044746	-0.484077
N	-1.0715116122	-2.052131249	 0.0339965193	-0.333453
H	 1.0418739584	 1.8052921972	 0.0481125946	 0.130993
H	-0.466164622	 1.8297049397	-0.8710915218	 0.105126
H	-0.5014296676	 1.842753108	 0.9063286801	 0.10515
H	-2.376870891	 0.9707851861	-0.0141901216	 0.276095
H	-4.4222553004	-2.4582328389	-0.0311930582	 0.124468
H	-2.7463469961	-4.5524653293	-0.8632625856	 0.141175
H	-1.2132666485	-4.5548720565	 0.0500019866	 0.155646
H	-2.7838376514	-4.5398625214	 0.8971625621	 0.141136
77.7847	124.8155	152.1231	184.7408	219.2271	301.3591	325.1085	382.4248	494.8834	548.6527	566.7569	602.0315	668.0874	723.6514	774.0995	875.3686	899.8946	986.0623	1012.9221	1052.6173	1097.4514	1105.3697	1144.7489	1155.9581	1236.2478	1295.9977	1397.3266	1416.8947	1424.6451	1450.7383	1470.4429	1477.9475	1500.24	1507.1697	1593.6958	1673.9365	1728.3251	2936.7626	2976.7635	3033.7449	3087.1475	3098.6748	3158.1153	3197.6723	3641.7427
CN=C1NN=CC(C)=N1	C[N]c1[nH]ncc(C)n1	
InChI=1S/C5H8N4/c1-4-3-7-9-5(6-2)8-4/h3H,1-2H3,(H,6,8,9)	InChI=1S/C5H13N4/c1-4-3-7-9-5(6-2)8-4/h4-5,7-9H,3H2,1-2H3
