18
gdb 8689	2.18154	1.83143	1.57748	4.1724	68.4	-0.2441	0.0272	0.2712	971.4218	0.15193	-381.116487	-381.106796	-381.105852	-381.150488	34.26	
C	-0.1379829122	 1.3766274425	 0.0357783241	-0.257597
O	 0.0281335467	-0.0307136766	-0.0297837317	-0.270934
C	 0.6910047316	-0.5563655378	-1.172994722	 0.21296
C	 2.1679519084	-0.1309814699	-1.2370840666	-0.431242
C	 0.569514396	-2.084313464	-1.0223604126	-0.169765
N	-0.8300126514	-2.4771017779	-0.9842691278	-0.504248
C	 0.0036808646	-0.118154439	-2.4154816616	 0.286311
N	-0.4867815339	 0.2742419701	-3.3853181243	-0.349356
H	 0.8193669341	 1.9020671652	 0.1456182729	 0.115165
H	-0.6600498452	 1.7644259527	-0.847910306	 0.14034
H	-0.7455893222	 1.5687863491	 0.9223638643	 0.135667
H	 2.6600123941	-0.4074498398	-0.3007876918	 0.131823
H	 2.6717033942	-0.6322299026	-2.0676559929	 0.13821
H	 2.2695332418	 0.9456648648	-1.3861700762	 0.138164
H	 1.0497595124	-2.5576030066	-1.8848326187	 0.11755
H	 1.1548207551	-2.3499472155	-0.125739149	 0.093686
H	-0.9138688946	-3.485604723	-0.9255830458	 0.232694
H	-1.2655900296	-2.0825136219	-0.1576400742	 0.240572
86.9802	123.3442	150.4429	181.5792	191.5125	223.9831	242.2881	291.9377	299.7367	386.2434	426.0865	454.9681	597.7857	636.1297	677.4648	831.8593	866.51	914.0502	999.8901	1058.2138	1098.1825	1122.4435	1157.4235	1183.0099	1201.2812	1229.6115	1257.462	1338.0403	1399.1388	1428.2686	1475.61	1482.246	1488.1609	1495.9376	1504.644	1509.4817	1646.1551	2352.6569	2958.3159	3008.6534	3053.2249	3070.4383	3076.773	3127.4676	3131.1769	3138.4498	3515.57	3598.8407
COC(C)(CN)C#N	CO[C@@](C)(CN)C#N	
InChI=1S/C5H10N2O/c1-5(3-6,4-7)8-2/h3,6H2,1-2H3	InChI=1S/C5H10N2O/c1-5(3-6,4-7)8-2/h3,6H2,1-2H3/t5-/m0/s1
