17
gdb 53001	3.39877	0.94396	0.8439	2.1565	80.33	-0.2376	0.021	0.2586	1424.1242	0.133796	-421.762655	-421.753546	-421.752602	-421.798252	32.723	
C	 0.0192252009	 1.4688943911	-0.1045597193	-0.51404
C	-0.0230226853	 0.0188193822	-0.0079245562	 0.315401
C	-0.062425443	-1.1837136365	 0.0625770529	-0.2543
C	-0.0628517202	-2.5966185784	 0.1988396789	 0.282462
O	-0.2747664063	-3.4344908279	-0.9670771511	-0.304184
C	-1.1376862769	-3.6186298229	 0.1619563731	-0.060739
C	-0.4074742384	-4.5358241616	 1.1391075021	-0.289821
C	 0.7775398642	-3.4923326804	 1.1495096992	 0.060579
O	 2.0238736896	-3.8936896966	 0.668835998	-0.432198
H	 0.7638187633	 1.887771421	 0.5810718246	 0.155072
H	 0.2847223968	 1.7876272314	-1.1184965357	 0.15695
H	-0.9507534519	 1.9144525352	 0.1422902311	 0.152419
H	-2.1998276563	-3.4825707408	-0.0040363779	 0.116454
H	-0.896637167	-4.6235258417	 2.1122008232	 0.111851
H	-0.1612575112	-5.5290666963	 0.7561224436	 0.1116
H	 0.9314625761	-3.0420089497	 2.1320863757	 0.102236
H	 1.8834395358	-4.157468258	-0.2500713325	 0.290258
17.9359	82.1439	98.925	164.7254	253.8841	298.8287	359.8068	406.9576	475.4571	485.5788	489.0198	548.412	663.99	712.3486	819.9535	872.0094	901.382	926.32	955.6043	1024.312	1044.0013	1051.5934	1053.5984	1121.9875	1151.4932	1167.9767	1196.9682	1255.2868	1269.3823	1318.1236	1409.2846	1420.7863	1448.0942	1474.2243	1475.8663	1477.3949	2366.7808	3028.4746	3066.6492	3090.1174	3092.5739	3101.6352	3127.0767	3194.2914	3768.2795
CC#CC12OC1CC2O	CC#C[C@]12O[C@H]1C[C@H]2O	
InChI=1S/C7H8O2/c1-2-3-7-5(8)4-6(7)9-7/h5-6,8H,4H2,1H3	InChI=1S/C7H8O2/c1-2-3-7-5(8)4-6(7)9-7/h5-6,8H,4H2,1H3/t5-,6+,7-/m1/s1
