15
gdb 34784	2.35977	1.58524	1.11323	4.2054	77.12	-0.2683	-0.0077	0.2606	1077.4486	0.11277	-379.56348	-379.555864	-379.55492	-379.595688	29.191	
C	 0.0218257492	-1.1812032218	-0.0212232341	-0.323594
C	 0.0223591329	 0.0209061541	-0.0002196798	 0.014875
C	 0.0226437389	 1.4566889269	 0.0245995891	 0.245771
C	-0.686459641	 2.4345179462	 0.9988957246	-0.205798
N	 0.0033590306	 3.4119820075	 0.0309750083	-0.155577
C	 1.2068715036	 2.4557067995	 0.1454132196	-0.224393
C	-0.5071388172	 2.4498048434	-1.0655328479	-0.153626
C	 0.148335715	 2.5281070369	-2.3616528389	 0.293772
N	 0.6497545604	 2.5725845434	-3.4021519076	-0.325084
H	 0.0240886236	-2.2434559534	-0.0431139216	 0.195167
H	-1.7776954222	 2.481349184	 0.9752474367	 0.119005
H	-0.2987375706	 2.4923431852	 2.0168983497	 0.123092
H	 1.7130707885	 2.5143006625	 1.1103309224	 0.121107
H	 1.9089516546	 2.5227572668	-0.6867302822	 0.145475
H	-1.5914946065	 2.4931229187	-1.1933022584	 0.129809
94.9126	165.3985	181.7451	210.5229	433.7511	440.0011	493.8606	513.6806	543.3881	599.0823	650.6441	658.3089	668.5281	778.8061	817.1518	896.5051	910.4698	970.1049	989.799	1047.1451	1059.356	1094.768	1134.5951	1152.7729	1175.0057	1199.4736	1257.2849	1292.5489	1379.2611	1513.9295	1551.8349	2236.0788	2355.9916	3068.9728	3079.7396	3089.1506	3144.9245	3153.1537	3497.8524
C#CC12CN(C1)C2C#N	C#C[C@@]12CN(C1)[C@H]2C#N	
InChI=1S/C7H6N2/c1-2-7-4-9(5-7)6(7)3-8/h1,6H,4-5H2	InChI=1S/C7H6N2/c1-2-7-4-9(5-7)6(7)3-8/h1,6H,4-5H2/t6-/m0/s1
