19
gdb 102920	2.59232	0.81526	0.64802	2.0118	79.88	-0.2473	-0.0362	0.2111	1697.2086	0.154627	-422.988724	-422.978013	-422.977069	-423.025793	36.798	
C	-0.2541558757	 1.3969414353	 0.2585374094	-0.243779
O	 0.0812447358	 0.0229096006	 0.2814262357	-0.243276
C	 0.5454612056	-0.4700826064	-0.9580902705	 0.028411
C	 1.222618888	-1.8240541861	-0.7123438632	-0.205352
C	 2.4286933385	-1.7011960769	 0.2408319093	-0.36188
C	 3.0660373004	-2.9853006502	 0.4995299385	 0.290775
C	 3.5713173787	-4.0578876247	 0.6969070815	-0.433589
C	-0.6176595366	-0.6683068161	-1.9292176206	 0.133527
O	-0.5080746174	-0.6872839874	-3.1263331477	-0.242098
H	 0.6164984943	 2.0188281279	 0.0026001318	 0.115788
H	-1.0570705705	 1.6175183977	-0.4604658792	 0.115955
H	-0.5989303397	 1.6601289007	 1.2606899023	 0.136934
H	 1.264839162	 0.2259220894	-1.419211309	 0.089385
H	 0.4922373292	-2.5198394271	-0.28503777	 0.123169
H	 1.540832381	-2.2327445028	-1.6757408134	 0.13296
H	 3.1621005353	-1.0061934555	-0.1891727739	 0.128463
H	 2.0909749956	-1.2524285449	 1.1808108576	 0.150571
H	 4.0276328395	-4.9988430979	 0.8800808469	 0.195339
H	-1.593436574	-0.8338166954	-1.4151886656	 0.088699
51.3587	65.0376	84.5549	104.8028	147.6185	176.9471	239.1818	260.913	279.7333	347.4847	412.4706	459.9904	531.9747	572.5411	618.0435	642.1632	763.6091	901.9782	928.2398	953.1697	1025.8411	1069.3222	1077.5529	1101.1856	1149.9419	1181.7991	1188.6402	1242.677	1258.2734	1315.1315	1318.8677	1349.4429	1381.3438	1399.8486	1473.2892	1481.6556	1487.3596	1489.1033	1507.3284	1837.8964	2239.909	2865.6543	2978.998	2986.2618	3023.1084	3033.3304	3053.2268	3074.0405	3108.0737	3125.1935	3507.1285
COC(CCC#C)C=O	CO[C@@H](CCC#C)C=O	
InChI=1S/C7H10O2/c1-3-4-5-7(6-8)9-2/h1,6-7H,4-5H2,2H3	InChI=1S/C7H10O2/c1-3-4-5-7(6-8)9-2/h1,6-7H,4-5H2,2H3/t7-/m0/s1
