16
gdb 126356	4.225	0.97966	0.82521	3.2898	80.73	-0.2402	-0.0121	0.228	1374.9576	0.124834	-396.933089	-396.924524	-396.923579	-396.967381	30.997	
C	-0.2142598248	 1.5247772437	 0.0446370541	-0.369862
C	-0.0111007465	 0.0027816075	 0.0145834156	-0.318154
C	 0.7810146645	-0.4918930681	 1.1826770404	 0.356898
N	 1.9546317922	-0.0436795708	 1.5871530318	-0.341137
C	 2.2373014726	-0.8272926508	 2.6756041797	 0.15912
N	 1.3032674105	-1.7321654116	 2.9644437443	-0.271756
N	 0.3880149014	-1.4965389921	 2.0004917056	-0.235639
C	 3.4247547283	-0.6947225743	 3.4414379088	 0.293084
C	 4.4335920993	-0.5751586864	 4.0839082482	-0.387298
H	 0.7513639681	 2.0331735953	 0.0883618925	 0.154069
H	-0.7464011469	 1.8572271738	-0.8508583811	 0.117656
H	-0.7944711599	 1.8271748914	 0.9213719409	 0.125067
H	-0.9773972582	-0.5140733259	-0.0108835835	 0.104716
H	 0.5162106723	-0.2771861493	-0.9052172836	 0.138715
H	-0.4534978229	-2.0495260143	 1.9692692451	 0.280372
H	 5.3245988999	-0.4699193382	 4.6518842612	 0.19415
28.3216	112.195	141.3295	203.0775	218.5515	326.2925	395.8181	480.7699	538.1751	567.4944	585.3637	607.3184	668.2717	697.2444	745.9991	775.7012	799.2849	979.31	1016.6971	1062.4299	1094.3361	1096.6263	1174.6981	1243.9564	1292.4005	1342.6403	1384.5128	1409.9248	1447.7464	1474.6468	1483.7535	1495.8788	1507.7223	1579.4886	2250.1443	3033.9937	3048.5413	3069.2233	3118.8018	3137.3508	3504.9379	3654.987
CCC1=NC(=NN1)C#C	CCc1nc(n[nH]1)C#C	
InChI=1S/C6H7N3/c1-3-5-7-6(4-2)9-8-5/h1H,4H2,2H3,(H,7,8,9)	InChI=1S/C6H7N3/c1-3-5-7-6(4-2)9-8-5/h1H,4H2,2H3,(H,7,8,9)
