16
gdb 23558	2.44656	1.57233	1.08207	2.0497	74.3	-0.2411	-0.004	0.2371	1101.5293	0.123176	-437.77949	-437.771649	-437.770705	-437.811855	30.066	
O	-0.1217069479	 1.3315534377	 0.111927643	-0.392115
N	 0.0161178991	-0.0554328743	-0.064021545	-0.26148
C	-1.112775508	-0.6277753388	-0.1048889968	 0.353479
C	-2.5492878082	-0.2420049271	 0.0519123362	-0.152167
C	-3.3641217432	-0.8624835789	-1.0651142315	-0.292978
C	-2.9196983807	-1.748988648	 0.0559882385	-0.149876
C	-1.4475271536	-2.0998060216	-0.1326955424	 0.394005
C	-0.7925634432	-3.2529351467	-0.7528087982	-0.265332
O	-0.7763714147	-3.0483430923	 0.6700952433	-0.273806
H	 0.795646447	 1.6223761734	 0.1547547178	 0.3091
H	-2.9245405097	 0.5657721811	 0.6640097857	 0.117636
H	-4.4146160765	-0.5887893145	-1.0578916455	 0.126817
H	-2.9376779416	-0.971702609	-2.0582143019	 0.123766
H	-3.5937614101	-2.272640246	 0.7199000028	 0.115556
H	-1.3953684992	-4.0923591773	-1.0969148787	 0.118195
H	 0.1673296005	-3.121270018	-1.2486754173	 0.1292
121.2432	147.7908	170.0343	270.7307	289.0002	332.9375	416.1017	481.9216	542.404	598.5718	663.54	725.1701	794.5161	829.0853	884.7264	905.1769	928.1851	962.1476	976.3684	993.9472	1025.7045	1054.8681	1094.9088	1117.8782	1123.9113	1152.327	1172.9115	1225.5208	1271.063	1299.5173	1398.5037	1449.884	1488.4585	1530.5342	1786.4652	3085.1485	3118.2871	3178.036	3204.0868	3214.389	3224.919	3816.918
ON=C1C2CC2C11CO1	ON=C1[C@H]2C[C@H]2[C@]21CO2	
InChI=1S/C6H7NO2/c8-7-5-3-1-4(3)6(5)2-9-6/h3-4,8H,1-2H2	InChI=1S/C6H7NO2/c8-7-5-3-1-4(3)6(5)2-9-6/h3-4,8H,1-2H2/t3-,4+,6-/m0/s1
