15
gdb 133030	2.46208	1.64788	0.99325	3.3367	76.01	-0.2103	-0.0442	0.1661	1123.4024	0.111761	-461.932101	-461.924108	-461.923164	-461.965193	29.115	
C	-0.0263914299	 1.4468224299	 0.0076494187	-0.320191
N	 0.0271364717	-0.0038326923	 0.00233225	-0.314667
C	-1.0560623017	-0.6539801768	 0.0087405393	 0.315999
O	-2.2953214588	-0.0110782877	 0.0207904042	-0.251333
C	-3.4631680648	-0.6990738453	 0.0276082243	 0.068338
C	-3.5218314014	-2.0389775057	 0.0234941314	-0.182634
C	-2.2891093533	-2.7839089271	 0.0112389898	-0.2106
C	-1.1246056267	-2.1099778418	 0.0043221153	 0.193964
F	 0.0430983137	-2.7357208722	-0.0070544379	-0.046375
H	 0.9919250546	 1.8413638003	-0.0003993648	 0.12274
H	-0.5591556715	 1.842042819	-0.8682346864	 0.120923
H	-0.5427491823	 1.8359901706	 0.8959900295	 0.120953
H	-4.3151962933	-0.0318339612	 0.036579604	 0.137353
H	-4.479852525	-2.5403373097	 0.0293166845	 0.119375
H	-2.2842002013	-3.86716816	 0.0075235981	 0.126156
67.9487	116.1463	193.4663	201.4009	262.8979	324.2667	487.226	503.2925	533.8551	558.773	579.4879	738.7484	744.0644	776.3401	886.5724	908.1144	917.7528	1031.6242	1048.6887	1076.1051	1107.2933	1109.1342	1174.0351	1267.7089	1291.3017	1395.3396	1431.1402	1438.5231	1484.9172	1498.228	1628.6239	1701.5891	1750.935	2997.8227	3045.8825	3111.0191	3208.8256	3219.3153	3238.9677
CN=C1OC=CC=C1F	C[N]C1=C(CC=CO1)F	
InChI=1S/C6H6FNO/c1-8-6-5(7)3-2-4-9-6/h2-4H,1H3	InChI=1S/C6H7FNO/c1-8-6-5(7)3-2-4-9-6/h2,4H,3H2,1H3
