16
gdb 48093	3.14488	1.28493	0.97057	2.7732	73.01	-0.2485	-0.0773	0.1712	1180.6185	0.123116	-437.863146	-437.854971	-437.854027	-437.896622	29.421	
O	-0.7986945691	 1.4162404014	 0.4879934019	-0.234936
C	 0.2835838427	 1.0656357118	 0.0992597843	 0.099385
C	 1.4972052455	 1.9856751135	-0.0751089759	 0.263146
O	 2.4741431124	 1.5681805621	-0.6658084941	-0.33645
N	 1.3994205233	 3.2005155275	 0.5456335158	-0.07573
C	 0.4134488993	 4.2444948821	 0.3156825837	-0.033696
C	 0.4809275397	 5.1988323601	 1.5142896746	-0.236729
C	 2.0056110784	 5.4276710232	 1.2071545781	-0.242237
C	 1.8832225066	 4.4616882475	 0.0199249163	-0.041649
H	 0.5122697405	 0.0285236718	-0.2218072016	 0.112609
H	-0.4124291481	 4.064249114	-0.3594630926	 0.125681
H	-0.1110350998	 6.1030440135	 1.3614741443	 0.116028
H	 0.2263692713	 4.7540015971	 2.4779969396	 0.122439
H	 2.2131633508	 6.4518715625	 0.8920710506	 0.116482
H	 2.7195502834	 5.1318816993	 1.9783680796	 0.120167
H	 2.413501373	 4.4688948028	-0.9241161545	 0.125491
74.5428	112.4513	137.2673	146.9437	248.739	300.5387	401.612	494.9751	589.4235	664.0489	681.7555	760.6215	783.4439	857.1938	897.9615	930.3425	957.3787	991.8267	1024.0926	1033.2679	1061.919	1084.9023	1139.8629	1189.2164	1219.3802	1239.413	1252.6536	1294.1955	1319.3938	1371.8116	1449.0243	1469.3943	1490.2116	1763.9964	1826.097	2936.385	3074.7612	3081.3729	3126.6471	3142.5593	3202.9642	3216.9682
O=CC(=O)N1C2CCC12	O=CC(=O)N1[C@H]2CC[C@@H]12	
InChI=1S/C6H7NO2/c8-3-6(9)7-4-1-2-5(4)7/h3-5H,1-2H2	InChI=1S/C6H7NO2/c8-3-6(9)7-4-1-2-5(4)7/h3-5H,1-2H2/t4-,5+,7?
