23
gdb 59938	2.58641	0.95161	0.86521	2.9252	86.75	-0.2643	0.0354	0.2998	1493.7472	0.204046	-384.492053	-384.48095	-384.480006	-384.528067	41.118	
C	-0.0578799483	 1.5012299387	-0.4627406877	-0.391119
C	 0.0771588028	 0.0603786648	 0.0565564134	 0.02225
C	 1.1279223404	-0.0042222889	 1.1750365856	-0.388533
C	-1.3152269799	-0.4491618435	 0.4840805802	-0.176201
C	-1.5141995892	-1.9765720341	 0.6955220175	 0.065076
C	-1.0897738316	-2.8026236385	-0.5322028286	-0.396613
N	-0.7504166837	-2.4481948011	 1.8592946132	-0.503294
C	-2.9721906682	-2.1889168376	 0.9113582443	 0.250455
N	-4.095249147	-2.368221793	 1.1232270407	-0.344591
H	 0.9130387452	 1.8909920057	-0.7846383616	 0.113005
H	-0.7448481952	 1.5629634882	-1.3132429436	 0.111065
H	-0.4375132919	 2.166907609	 0.3216618189	 0.114855
H	 0.4300244046	-0.5548675471	-0.7808554454	 0.076996
H	 0.8171654499	 0.6092013021	 2.0304044417	 0.103472
H	 1.2759106022	-1.0244990897	 1.5309422378	 0.140549
H	 2.086844036	 0.3898623497	 0.8218629346	 0.105345
H	-1.6177335672	 0.062573491	 1.4078723773	 0.103205
H	-2.0445830599	-0.1457574359	-0.2756635729	 0.113476
H	-0.0076208653	-2.74019177	-0.6592462416	 0.139965
H	-1.3601349026	-3.8541598568	-0.398184362	 0.128181
H	-1.5835504999	-2.4396806	-1.437045632	 0.133526
H	-1.0485242071	-1.9541039097	 2.6959274537	 0.240153
H	-0.9400200841	-3.4334764734	 2.0218956263	 0.238778
40.1038	109.8061	126.9904	188.606	218.517	243.1236	250.3744	264.2809	295.8871	314.9041	344.5025	365.3571	400.7905	426.7583	467.6559	590.0092	594.7435	740.7792	818.2293	864.9145	885.8597	912.5331	934.8108	962.5574	968.0065	1004.3066	1053.6849	1091.9247	1120.8116	1180.3746	1193.2023	1211.5939	1290.5101	1328.4723	1342.8877	1378.3523	1389.8081	1400.1162	1409.0065	1424.4496	1473.3384	1486.7764	1489.9033	1493.9073	1499.9093	1504.3305	1516.9534	1659.7722	2336.9712	3015.7071	3022.1065	3024.1555	3031.4455	3051.1403	3065.4986	3084.5241	3094.0261	3102.3961	3121.4265	3143.7806	3144.3401	3486.9687	3566.7486
CC(C)CC(C)(N)C#N	CC(C)C[C@@](C)(N)C#N	
InChI=1S/C7H14N2/c1-6(2)4-7(3,9)5-8/h6H,4,9H2,1-3H3	InChI=1S/C7H14N2/c1-6(2)4-7(3,9)5-8/h6H,4,9H2,1-3H3/t7-/m1/s1
