18
gdb 8665	2.18021	1.79297	1.42158	3.5558	68.24	-0.2521	-0.0396	0.2125	1003.3729	0.149653	-384.961748	-384.952085	-384.95114	-384.996558	33.361	
C	-0.4785035287	 1.5330587438	 0.00936971	-0.412206
C	-0.1787487078	 0.0368789921	-0.133445239	-0.197198
C	 0.7620835189	-0.3614374916	-1.2996551306	 0.052677
C	 0.2444624468	 0.124575055	-2.6721884733	-0.446968
C	 2.151876809	 0.2194360962	-1.0649722685	 0.146257
O	 3.0914511162	-0.4164610634	-0.6598656234	-0.248236
C	 0.8985071337	-1.8854357957	-1.3681942848	 0.157673
O	 0.2252306666	-2.6619052956	-0.7456321396	-0.251585
H	 0.4229189762	 2.1237794246	 0.2013539403	 0.120939
H	-0.9634506054	 1.9423786411	-0.881869211	 0.121438
H	-1.1567338485	 1.6950109679	 0.8522417531	 0.127642
H	 0.2550953975	-0.3456703509	 0.7965283851	 0.123581
H	-1.1106212719	-0.5199970138	-0.2746232852	 0.123345
H	 0.3217113696	 1.2124069582	-2.7581507826	 0.134097
H	 0.8223969335	-0.3135188165	-3.4930978691	 0.130916
H	-0.8044226843	-0.1548000542	-2.8072192721	 0.140148
H	 2.2503605986	 1.3050368488	-1.2935526309	 0.084673
H	 1.66838563	-2.2364026761	-2.0889971583	 0.092808
63.2269	70.9597	95.834	194.365	206.6622	232.1316	260.4507	306.8797	316.3369	346.4506	404.3911	577.9867	623.0618	730.2642	776.9975	921.0646	927.8089	938.3492	996.1807	1022.0068	1051.0409	1085.166	1179.3368	1216.6634	1224.6535	1316.3442	1366.6304	1400.9888	1415.5037	1420.7536	1434.1627	1478.2674	1493.1677	1500.1453	1506.2063	1509.9653	1815.5404	1839.8813	2871.991	2900.123	3035.0157	3041.8196	3050.219	3082.8054	3102.6574	3108.9809	3113.1664	3117.4834
CCC(C)(C=O)C=O	CCC(C)(C=O)C=O	
InChI=1S/C6H10O2/c1-3-6(2,4-7)5-8/h4-5H,3H2,1-2H3	InChI=1S/C6H10O2/c1-3-6(2,4-7)5-8/h4-5H,3H2,1-2H3
