21
gdb 65274	3.39415	1.10551	1.05174	2.6466	77.74	-0.2344	0.059	0.2933	1245.9543	0.18274	-424.209518	-424.200402	-424.199458	-424.244292	34.07	
O	 0.2764705419	 0.1764912486	-1.3539369829	-0.47425
C	-0.0491511967	 0.0159864459	 0.0067699684	 0.421677
C	 1.0410999491	-0.2856533812	 1.0004695296	-0.339424
C	 0.3609608603	 1.0770787712	 0.992574975	-0.332847
C	-1.3963902925	-0.6604182406	 0.1311207424	-0.024711
C	-2.5369013778	 0.0571076653	-0.6497138184	-0.24434
C	-2.9828927092	-0.9977547266	-1.6772659375	-0.073562
O	-2.679388651	-2.2528365868	-1.0859054342	-0.246548
C	-1.4134396679	-2.0934616179	-0.4674286023	-0.099609
H	 1.1796481494	 0.4985289837	-1.4252045331	 0.282138
H	 0.834719685	-0.9642352029	 1.8214943634	 0.118234
H	 2.0616100061	-0.3404382987	 0.632593727	 0.106848
H	 0.9318818133	 1.9189931334	 0.6133298253	 0.107923
H	-0.3082400153	 1.3276605789	 1.8088486834	 0.117042
H	-1.647957068	-0.7041623099	 1.1941204269	 0.072429
H	-3.3598019846	 0.310794863	 0.0231710898	 0.099006
H	-2.1890832209	 0.9744793457	-1.1278100054	 0.113233
H	-4.0534847349	-0.9807010879	-1.8973503046	 0.100883
H	-2.4286709522	-0.8716588326	-2.620795961	 0.096076
H	-0.6036611248	-2.1964030269	-1.2046486581	 0.100944
H	-1.3075536894	-2.8795251138	 0.2846999162	 0.098856
35.1763	75.2861	127.2763	186.1384	242.4134	279.1447	301.6066	355.4481	457.9216	533.0629	616.4617	659.0621	754.0693	765.6589	848.8355	878.5328	881.363	941.537	948.7808	964.179	974.7027	990.3552	1039.0933	1051.5092	1065.322	1076.2345	1084.2257	1125.2477	1177.282	1184.8881	1214.74	1240.6528	1266.292	1278.2443	1305.7615	1320.942	1348.1725	1367.7579	1404.2332	1445.2598	1463.0983	1486.9264	1503.5755	1505.4471	1522.1196	2980.6592	3000.6267	3058.9838	3070.7871	3090.5926	3094.7892	3120.6085	3124.7012	3126.3146	3200.4151	3215.7544	3835.505
OC1(CC1)C1CCOC1	OC1(CC1)[C@H]1CCOC1	
InChI=1S/C7H12O2/c8-7(2-3-7)6-1-4-9-5-6/h6,8H,1-5H2	InChI=1S/C7H12O2/c8-7(2-3-7)6-1-4-9-5-6/h6,8H,1-5H2/t6-/m0/s1
