14
gdb 132199	1.96653	1.87158	0.96094	6.2424	70.43	-0.2084	-0.0011	0.2072	1117.0144	0.102857	-474.19488	-474.18732	-474.186376	-474.226881	29.056	
N	 0.116759709	 1.3861346958	 0.1412421565	-0.592304
C	-0.0267106853	 0.0079949252	 0.0242656162	 0.391037
C	-1.1737474549	-0.6987963429	 0.0161335837	-0.20984
C	-1.1577004493	-2.1575334156	-0.0105590081	 0.339155
N	-2.2456813792	-2.830738139	-0.0211044201	-0.545024
N	 0.1203921905	-2.7846097338	-0.0378497081	-0.393406
C	 1.1426216656	-2.046695154	-0.0278874716	 0.394625
F	 2.361465016	-2.5695922229	-0.0157588704	-0.069017
N	 1.1874446623	-0.6794264508	-0.0397931385	-0.427321
H	 0.7548138348	 1.7925009149	-0.5335797782	 0.255607
H	-0.7696696617	 1.8718472276	 0.1244881585	 0.265687
H	-2.1343328026	-0.2015084296	 0.0158727139	 0.105017
H	-2.0164483839	-3.8255727238	-0.0515181567	 0.213742
H	 2.0415139488	-0.218371181	 0.2351769929	 0.272042
131.8967	182.6672	231.5505	307.2022	329.8331	362.0003	431.0862	503.905	531.2989	592.0638	612.5238	632.2826	679.6546	741.8286	746.9551	852.7608	897.9408	932.6385	1016.7171	1044.2234	1139.9892	1159.3421	1224.7858	1280.3834	1356.652	1424.2423	1512.1639	1639.1014	1682.5743	1712.6973	1769.8381	3224.683	3469.2071	3529.0669	3627.3651	3636.0135
NC1=CC(=N)N=C(F)N1	N[C@@H]1C=C([NH])N=C(F)N1	
InChI=1S/C4H5FN4/c5-4-8-2(6)1-3(7)9-4/h1H,(H4,6,7,8,9)	InChI=1S/C4H6FN4/c5-4-8-2(6)1-3(7)9-4/h1-2,7H,6H2,(H,8,9)/t2-/m0/s1
