20
gdb 38917	3.0637	1.65853	1.20714	1.7061	85.61	-0.2234	0.0144	0.2378	1056.8509	0.174472	-365.992053	-365.984952	-365.984008	-366.023236	29.666	
C	-0.0068029406	 1.5665316938	-0.0586188126	-0.275258
C	 1.5257315608	 1.5817564692	 0.0541257012	-0.096911
N	 2.1584109472	 0.8126531707	-1.0090266627	-0.385448
C	 1.5629757654	 0.0632556187	 0.0912325211	 0.37477
C	 2.3024550816	-0.934397022	 0.8666146829	-0.151329
C	 1.6455143229	-1.8956477604	 1.5235077443	-0.073211
C	 0.1356289794	-1.9934688107	 1.5501119821	-0.2688
C	-0.5445118671	-0.6407183554	 1.2603097784	-0.224148
C	 0.0305316106	 0.0016793195	-0.0038297392	-0.063647
H	-0.512540094	 1.9985101646	 0.8091806547	 0.10639
H	-0.4151683024	 2.0275877366	-0.9648316684	 0.094822
H	 2.133247446	 2.3083197387	 0.582221303	 0.094402
H	 1.5980502265	 0.7749362351	-1.8600668769	 0.221143
H	 3.3866296316	-0.8760857802	 0.8704028764	 0.093376
H	 2.2014809213	-2.6509049781	 2.072869837	 0.088446
H	-0.1987497398	-2.7494804462	 0.8238736086	 0.109793
H	-0.1905751291	-2.3668397512	 2.5283016206	 0.102564
H	-1.6306726149	-0.7615210372	 1.1818136432	 0.092694
H	-0.3583984613	 0.0248050773	 2.1127220536	 0.100616
H	-0.3395728439	-0.5153072927	-0.8984284575	 0.059734
137.43	197.3194	269.3171	371.2046	414.1989	452.3338	470.7772	500.4197	626.0167	704.8733	748.5286	750.8713	821.0937	838.8803	872.3744	890.6068	938.2209	973.6753	993.0509	999.3116	1003.8307	1038.2751	1059.1745	1078.135	1118.2033	1122.3467	1139.6767	1193.7573	1221.516	1230.9282	1237.6342	1270.6743	1284.301	1302.905	1335.5703	1354.8995	1368.3789	1387.3488	1462.4995	1477.6171	1485.8967	1491.8839	1697.987	2997.2008	3015.7929	3024.6872	3039.9342	3048.1299	3070.5387	3098.6735	3155.7963	3174.1291	3182.6429	3442.8497
C1C2NC22C=CCCC12	C1[C@@H]2N[C@]32C=CCC[C@@H]13	
InChI=1S/C8H11N/c1-2-4-8-6(3-1)5-7(8)9-8/h2,4,6-7,9H,1,3,5H2	InChI=1S/C8H11N/c1-2-4-8-6(3-1)5-7(8)9-8/h2,4,6-7,9H,1,3,5H2/t6-,7-,8+/m0/s1
