20
gdb 69260	2.53423	1.51619	1.14139	3.5137	79.65	-0.2405	-0.0196	0.2209	1135.004	0.172523	-403.166155	-403.157912	-403.156968	-403.198735	32.403	
C	 0.0776925316	 1.5230638149	-0.0384516135	-0.450321
C	-0.0154449085	 0.0125878027	 0.017901106	 0.32264
C	-1.2793870206	-0.5973023383	-0.6000598329	-0.286564
C	-1.9181165858	-1.7249382464	 0.2256621561	-0.207077
C	-0.8744170434	-2.7137411431	 0.7725317363	-0.3279
C	 0.085786459	-1.9724830462	 1.6944635429	 0.401963
O	 0.3340603571	-2.3512894123	 2.8184621818	-0.323744
C	 0.6627951512	-0.7010701761	 1.1623557298	-0.15275
N	 1.2589213797	-0.6708073022	-0.1986775237	-0.359331
H	 1.0380862543	 1.8652035617	 0.3538966689	 0.132921
H	-0.0082645512	 1.8722147013	-1.073826461	 0.122706
H	-0.7271282945	 1.9859944471	 0.5425245202	 0.119306
H	-2.0184036815	 0.1958039997	-0.7527091243	 0.110182
H	-1.0262480254	-0.9667983568	-1.603348905	 0.10742
H	-2.4585438253	-1.289449158	 1.0751531562	 0.115589
H	-2.6624162703	-2.2543410006	-0.3781656233	 0.106218
H	-1.3348757337	-3.5161990454	 1.3528115744	 0.126836
H	-0.3259001518	-3.1838287862	-0.0552383245	 0.112522
H	 1.2149488654	-0.1309172725	 1.9041365416	 0.10226
H	 1.1148594736	-1.5650767034	-0.663552936	 0.227124
94.9301	153.2502	206.2852	236.2364	315.2677	364.0315	384.9174	424.9297	478.9681	502.3275	543.7068	656.2851	726.5092	751.5288	819.0445	874.2805	879.4704	915.3508	952.6483	1025.3567	1030.7897	1038.8418	1068.2696	1101.4572	1112.1898	1157.1343	1175.8905	1202.566	1244.3407	1274.609	1300.4603	1330.6984	1342.0437	1364.6193	1381.9401	1407.9754	1423.4336	1475.1022	1487.4963	1488.5489	1495.3514	1500.62	1796.1841	3013.9647	3019.6138	3031.3646	3032.9083	3070.9691	3079.264	3094.3388	3110.5052	3126.522	3154.7002	3488.6691
CC12CCCC(=O)C1N2	C[C@]12CCCC(=O)[C@H]1N2	
InChI=1S/C7H11NO/c1-7-4-2-3-5(9)6(7)8-7/h6,8H,2-4H2,1H3	InChI=1S/C7H11NO/c1-7-4-2-3-5(9)6(7)8-7/h6,8H,2-4H2,1H3/t6-,7+/m1/s1
