20
gdb 87040	2.417	1.38151	1.11048	0.562	86.73	-0.2382	0.0414	0.2796	1204.9724	0.168624	-365.934986	-365.925559	-365.924615	-365.968904	35.911	
C	-0.3181801048	 1.5111521517	 0.2733150821	-0.415283
C	-0.0645096455	 0.0346025776	 0.0826165042	-0.031388
C	 1.2214206307	-0.4726149024	-0.5055999572	-0.328641
C	 0.9132636209	-0.7402863704	 0.9609697426	 0.180298
C	 1.6733560315	-0.0329869777	 1.9607760855	 0.332747
C	 2.3029074372	 0.5122218989	 2.8311589503	-0.528646
N	 0.5027248949	-2.1031814671	 1.2405294601	-0.121234
C	 1.403113559	-2.9750611793	 1.990496712	-0.236041
C	 0.1450244408	-2.4690519608	 2.6082922283	-0.237812
H	 0.5923417925	 2.0372617084	 0.5726202865	 0.126562
H	-0.6792409421	 1.9621394383	-0.6574228747	 0.11783
H	-1.0730842753	 1.6871768026	 1.0469999507	 0.120542
H	-0.9398896464	-0.5602166634	-0.1604372803	 0.102044
H	 1.188524435	-1.3387232035	-1.1559508452	 0.124406
H	 2.0040004302	 0.2462295746	-0.7217575362	 0.119963
H	 2.8624033103	 1.0085281001	 3.5850839558	 0.195753
H	 1.4709832968	-3.9955674021	 1.6246978074	 0.114382
H	 2.3324956749	-2.5505848376	 2.3621370659	 0.125033
H	 0.2538664383	-1.7143903795	 3.3833382046	 0.125213
H	-0.7250690789	-3.1122202084	 2.7038839577	 0.114271
75.9473	140.1374	153.1792	179.6284	189.2853	236.1543	336.5097	365.669	374.4124	469.2015	561.9244	573.172	604.2435	614.8354	670.5749	800.6088	812.2831	840.025	886.9582	906.3868	920.8871	971.114	1013.1358	1050.6245	1065.9529	1086.7851	1117.8034	1124.9777	1127.6681	1176.6803	1177.4951	1191.2029	1211.675	1293.8959	1329.0578	1393.8838	1419.8305	1472.4711	1484.666	1491.6288	1499.8175	1511.7104	2215.4181	3033.4389	3093.9316	3106.5347	3108.847	3112.8187	3138.7144	3159.4304	3188.5229	3202.0352	3233.4601	3499.9206
CC1CC1(C#C)N1CC1	C[C@H]1C[C@]1(C#C)N1CC1	
InChI=1S/C8H11N/c1-3-8(6-7(8)2)9-4-5-9/h1,7H,4-6H2,2H3	InChI=1S/C8H11N/c1-3-8(6-7(8)2)9-4-5-9/h1,7H,4-6H2,2H3/t7-,8-/m0/s1
