14
gdb 97788	3.19652	0.77796	0.65917	2.5627	72.45	-0.2766	-0.024	0.2526	1614.1722	0.098797	-436.624808	-436.61562	-436.614675	-436.660882	31.098	
O	 0.0639790389	 1.4894881726	-0.1992203852	-0.39546
C	 0.0444693073	 0.1111343817	 0.1316256385	-0.20456
C	-1.3032969635	-0.4578546659	 0.1777793323	 0.160336
C	-2.4195738859	-0.9107165519	 0.1677592198	 0.055528
C	-3.751212958	-1.437969995	 0.1942169453	-0.167631
O	-4.3135175764	-1.9231356388	-1.0358214084	-0.212944
C	-4.0346797972	-2.8834454047	-0.0266489992	-0.095268
C	-2.9633446053	-3.8208874081	-0.2850124533	 0.314112
N	-2.1258382337	-4.5954714428	-0.4677813284	-0.317565
H	-0.3698190425	 1.5922659129	-1.0529732511	 0.293018
H	 0.6588098359	-0.4861448125	-0.5597822633	 0.135597
H	 0.5114704912	 0.0311638517	 1.1192867001	 0.151819
H	-4.4671237371	-0.9050549583	 0.8188550357	 0.13576
H	-4.9062856136	-3.3197359409	 0.4585138772	 0.147257
23.9824	57.9663	107.4155	150.1249	219.5394	243.9232	290.2686	361.2405	439.7068	476.5008	557.6081	599.9036	623.0158	744.5434	837.4515	882.1703	962.7972	980.8897	1050.1854	1073.0786	1118.9879	1169.9087	1215.2054	1271.739	1365.2713	1370.3823	1414.4518	1417.6883	1483.7499	2361.7904	2365.4922	2990.6372	3070.4266	3119.7678	3133.7353	3815.3311
OCC#CC1OC1C#N	OCC#C[C@H]1O[C@H]1C#N	
InChI=1S/C6H5NO2/c7-4-6-5(9-6)2-1-3-8/h5-6,8H,3H2	InChI=1S/C6H5NO2/c7-4-6-5(9-6)2-1-3-8/h5-6,8H,3H2/t5-,6+/m1/s1
