20
gdb 51573	3.84467	0.78255	0.70196	3.1015	81.37	-0.2354	-0.0214	0.2141	1619.4179	0.169073	-403.104647	-403.095277	-403.094332	-403.140314	33.73	
O	-0.6436913838	 0.6229829241	 0.7642799304	-0.241281
C	-0.1447848219	 1.1868062664	-0.1739959135	 0.157962
C	 1.2976099219	 1.6689566659	-0.2122627424	-0.228833
N	 1.4164398548	 2.7958824644	-1.1216019433	-0.105919
C	 1.4627705547	 4.1397696929	-0.5456768314	-0.273587
C	 2.6739441588	 3.5483721255	-1.1833145682	 0.013372
C	 3.8787429313	 3.1777042909	-0.3783688248	 0.017589
C	 4.9833920239	 2.3647778912	-1.0169492279	-0.26912
C	 5.2058120486	 3.8206914979	-0.7048935013	-0.283641
H	-0.7064339142	 1.3905768089	-1.1125345238	 0.088586
H	 1.6281434638	 1.8506588958	 0.8209313416	 0.113049
H	 1.9002562927	 0.8365386671	-0.6045463876	 0.135962
H	 0.8728161113	 4.8988789088	-1.0523597383	 0.118649
H	 1.4723357683	 4.2237445306	 0.540972586	 0.11277
H	 2.9158047434	 3.866469594	-2.1979961067	 0.088634
H	 3.6941460363	 2.9882971431	 0.6741944631	 0.087292
H	 5.4891724967	 1.6219089378	-0.4105086147	 0.116812
H	 4.8630864058	 2.0829711303	-2.0578466148	 0.117799
H	 5.2367152489	 4.5189955999	-1.5348747348	 0.116926
H	 5.8620586786	 4.0807937648	 0.1177029323	 0.116979
45.3405	71.7481	75.5246	115.8363	203.0443	271.0724	302.3136	353.9366	438.1875	502.3814	575.1222	721.0499	747.3898	793.7641	825.0602	848.9196	892.8278	927.2483	954.7635	990.2045	1033.2491	1059.3924	1062.3273	1080.4063	1100.4734	1119.7444	1126.42	1137.323	1171.5913	1199.5691	1219.9712	1226.2901	1256.1447	1319.5782	1328.4111	1337.8726	1403.5817	1451.6395	1455.718	1470.2511	1503.9928	1512.5163	1838.5398	2895.6927	2990.1153	3035.933	3086.779	3095.6778	3132.0195	3136.191	3157.5431	3176.3608	3211.0694	3226.1394
O=CCN1CC1C1CC1	O=CCN1C[C@H]1C1CC1	
InChI=1S/C7H11NO/c9-4-3-8-5-7(8)6-1-2-6/h4,6-7H,1-3,5H2	InChI=1S/C7H11NO/c9-4-3-8-5-7(8)6-1-2-6/h4,6-7H,1-3,5H2/t7-,8?/m0/s1
