17
gdb 13497	3.23132	1.66049	1.42604	3.4165	64.24	-0.2214	0.005	0.2264	943.3889	0.141648	-401.002689	-400.994436	-400.993492	-401.035632	29.406	
C	 0.012052775	 1.5020558611	-0.1175204808	-0.331617
N	 0.0386354643	 0.0522409622	 0.0492013823	-0.056105
C	 0.8309923624	-0.3471855017	 1.2075015227	-0.342664
C	-1.2676946591	-0.5437183274	-0.0145617916	-0.132873
C	-1.4193447891	-2.0805236678	-0.1068168561	-0.113136
O	-2.2934641752	-2.0805941332	 1.0640129734	-0.239123
C	-2.1359526663	-0.7279094253	 1.264027359	 0.423798
O	-2.5526776416	-0.0733743319	 2.1645350834	-0.324249
H	 1.0382751933	 1.8725085397	-0.2032823043	 0.122605
H	-0.5180016753	 1.757933311	-1.0401986564	 0.121653
H	-0.4741248402	 2.0307289579	 0.7193127728	 0.123653
H	 0.418709087	 0.0203651515	 2.1621934498	 0.125555
H	 0.9043538927	-1.4368533219	 1.2641226419	 0.124628
H	 1.8459617726	 0.0455008148	 1.0982850048	 0.12589
H	-1.8480582859	-0.0353531736	-0.7897845133	 0.116115
H	-1.9417417587	-2.4655667821	-0.9843864502	 0.126546
H	-0.512927446	-2.6576976232	 0.0822490127	 0.129323
70.3724	127.6413	137.3935	223.9522	241.952	298.216	352.6835	394.6152	456.302	513.5575	679.1771	746.1795	812.9909	919.7239	942.2972	968.2509	1062.9745	1068.4435	1106.5255	1120.8367	1123.5596	1155.7179	1187.3672	1207.4019	1234.4166	1322.5974	1333.4724	1402.0058	1445.0478	1476.6963	1481.0045	1495.9345	1503.2255	1517.5679	1525.4674	1926.4717	2968.1023	2973.0605	3065.1929	3073.8127	3074.3354	3081.2419	3105.7005	3113.0288	3139.8943
CN(C)C1COC1=O	CN(C)[C@H]1COC1=O	
InChI=1S/C5H9NO2/c1-6(2)4-3-8-5(4)7/h4H,3H2,1-2H3	InChI=1S/C5H9NO2/c1-6(2)4-3-8-5(4)7/h4H,3H2,1-2H3/t4-/m0/s1
