19
gdb 115461	4.24099	0.89331	0.82535	1.4982	71.11	-0.2482	-0.0345	0.2137	1394.8045	0.158409	-460.16676	-460.157499	-460.156555	-460.202064	32.857	
O	 0.2704315523	 1.2461532757	-0.3836569037	-0.422847
C	-0.0040818938	-0.120686455	-0.1250331887	-0.077854
C	-1.4824283559	-0.3918642319	 0.1881796763	 0.004522
C	-2.3833876103	-0.1838746688	-1.0382588792	-0.108797
O	-2.3321876896	-1.4179696368	-1.7522553575	-0.258851
C	-2.3714613721	-2.4488981716	-0.769536542	 0.022758
C	-1.7209658651	-1.8879721459	 0.5142169568	-0.286798
C	-3.8197136785	-2.9032593589	-0.5743982224	 0.130295
O	-4.2869054021	-3.2891887743	 0.4647830082	-0.231084
H	 0.014510644	 1.4415344723	-1.2892871611	 0.286378
H	 0.3185698102	-0.7622762154	-0.9593719835	 0.098935
H	 0.60160622	-0.3903217566	 0.746984374	 0.112098
H	-1.7832721202	 0.2611164958	 1.0119253736	 0.088448
H	-3.4154722556	 0.0509007986	-0.7344824288	 0.099468
H	-2.0468093595	 0.605164616	-1.7170196114	 0.096302
H	-1.8305244188	-3.3100881972	-1.1847051395	 0.109464
H	-0.7841502931	-2.4017213258	 0.7456300046	 0.109586
H	-2.3938965053	-2.0336801991	 1.3617323215	 0.134418
H	-4.4201121765	-2.8487296509	-1.5100308871	 0.09356
37.469	76.7449	104.2895	153.1592	208.515	243.1424	270.7307	366.2382	398.7015	473.4581	592.6768	703.5118	718.5657	822.5579	834.3598	889.0628	931.0932	954.9649	974.1726	1015.3005	1053.4958	1077.1973	1091.1983	1108.1356	1127.012	1187.5486	1223.111	1232.354	1265.5769	1301.876	1307.9352	1339.0412	1363.6435	1376.2556	1396.2517	1403.0204	1412.561	1498.6069	1504.517	1519.4961	1833.7714	2891.18	2983.3752	2991.1005	3020.9696	3066.4518	3068.6472	3082.5266	3083.4232	3117.5356	3837.003
OCC1COC(C1)C=O	OC[C@H]1CO[C@@H](C1)C=O	
InChI=1S/C6H10O3/c7-2-5-1-6(3-8)9-4-5/h3,5-7H,1-2,4H2	InChI=1S/C6H10O3/c7-2-5-1-6(3-8)9-4-5/h3,5-7H,1-2,4H2/t5-,6-/m0/s1
