16
gdb 53759	7.4747	0.49572	0.46756	3.6902	83.29	-0.2536	-0.0205	0.2331	2204.4054	0.121167	-400.721382	-400.710698	-400.709754	-400.760387	35.522	
N	-0.0246453197	 1.35329488	 0.0085161502	-0.520455
C	 0.0680748646	-0.008407099	 0.0013359758	 0.263261
O	 1.126317241	-0.6071466029	-0.0111427687	-0.334588
C	-1.221204285	-0.6854323546	 0.0099436615	 0.093631
C	-2.2603017467	-1.2971143751	 0.0165921244	 0.005923
C	-3.4900905482	-2.0753450913	 0.0241968148	-0.357498
C	-3.2236530587	-3.6046942663	 0.0132885328	-0.339327
C	-4.4610005227	-4.3729974492	 0.0209517266	 0.291648
C	-5.500043074	-4.976850323	 0.0278451707	-0.434051
H	 0.8266085253	 1.8906310002	 0.0034282395	 0.266172
H	-0.9124669709	 1.8231731016	 0.0190570355	 0.265803
H	-4.0864495405	-1.8203881317	 0.907991134	 0.149823
H	-4.1033789594	-1.8108300239	-0.8450808562	 0.149814
H	-2.6272867383	-3.8568277384	-0.8706493084	 0.150207
H	-2.6104206957	-3.8663855074	 0.8827927084	 0.150222
H	-6.4079267813	-5.5275340191	 0.0340385492	 0.199414
20.2658	30.3585	53.0723	57.5692	146.5404	161.159	192.4688	340.5456	390.4731	400.6163	475.4016	516.2094	569.4562	611.1119	623.6947	654.9904	724.3478	763.4071	773.6507	965.1994	1004.6841	1030.0998	1082.7565	1088.2631	1194.8704	1284.5534	1306.9013	1349.5503	1369.1736	1465.9266	1478.7093	1606.9228	1774.0949	2241.0187	2348.4035	3035.4221	3046.0351	3064.3157	3086.0763	3506.2221	3604.3223	3747.5078
NC(=O)C#CCCC#C	NC(=O)C#CCCC#C	
InChI=1S/C7H7NO/c1-2-3-4-5-6-7(8)9/h1H,3-4H2,(H2,8,9)	InChI=1S/C7H7NO/c1-2-3-4-5-6-7(8)9/h1H,3-4H2,(H2,8,9)
