21
gdb 64328	2.35027	1.4572	1.14597	4.4529	78.83	-0.253	0.0193	0.2723	1176.6677	0.182139	-424.289843	-424.280728	-424.279783	-424.323609	35.036	
C	 0.0797898083	 1.4467640896	 0.1443122053	-0.409214
C	-0.1169591987	-0.055713293	-0.0595457903	 0.360467
C	-1.6100526626	-0.3920405626	-0.1630618105	-0.407057
C	 0.6780469596	-0.5524972743	-1.2757115132	-0.222367
C	 0.8311919504	-2.0724809311	-1.2742760883	-0.238365
C	 1.53250773	-2.4969419148	 0.0163068942	-0.32119
C	 0.9831657148	-1.8565093127	 1.282927664	 0.393609
O	 1.1412523749	-2.3391158011	 2.372411925	-0.326161
O	 0.3606693339	-0.6582892714	 1.18260661	-0.26518
H	 1.1387681838	 1.6780263851	 0.2884987844	 0.122764
H	-0.2820246416	 2.0006191174	-0.7274342317	 0.115756
H	-0.4689303155	 1.7880367934	 1.0260010886	 0.130141
H	-2.061362735	 0.1258994366	-1.0150765302	 0.117162
H	-1.7759844531	-1.4655157846	-0.2871694509	 0.121285
H	-2.1246404279	-0.0769026587	 0.7480404021	 0.134564
H	 0.1763714548	-0.203692264	-2.1842253819	 0.105033
H	 1.672910507	-0.0897017533	-1.2640635985	 0.101644
H	-0.1483949339	-2.5571955826	-1.3506273581	 0.111864
H	 1.4076739899	-2.4025564987	-2.144032785	 0.105359
H	 1.5178359396	-3.5774147365	 0.1736067332	 0.134101
H	 2.5907023415	-2.2050664629	-0.0265447881	 0.135785
65.4484	90.6348	207.6994	240.2265	265.8641	300.1883	330.4953	373.5042	433.2593	449.2174	470.2795	525.2907	550.5614	634.6697	717.9996	806.3873	859.8269	900.2048	933.6559	937.6054	970.3901	1005.7992	1015.2302	1064.7608	1067.2778	1125.1759	1157.3779	1227.8467	1237.35	1251.2044	1292.7655	1308.1111	1353.533	1374.1427	1385.0042	1400.9024	1419.8314	1460.1327	1472.0488	1481.268	1491.4723	1495.025	1501.1894	1512.8666	1834.8379	3027.6657	3029.1879	3040.6697	3044.4855	3047.5578	3078.3297	3085.1982	3112.6312	3115.2311	3119.2898	3123.1027	3127.8983
CC1(C)CCCC(=O)O1	CC1(C)CCCC(=O)O1	
InChI=1S/C7H12O2/c1-7(2)5-3-4-6(8)9-7/h3-5H2,1-2H3	InChI=1S/C7H12O2/c1-7(2)5-3-4-6(8)9-7/h3-5H2,1-2H3
