19
gdb 72636	2.32415	1.31618	1.17667	3.0489	78.35	-0.2408	-0.0176	0.2232	1167.0845	0.157108	-423.009886	-423.000716	-422.999772	-423.043519	34.381	
C	 0.1494241349	 1.6108366545	 0.0221598583	-0.499705
C	 0.1333937724	 0.1082594374	 0.0414132605	 0.261118
C	 0.5851974887	-0.7816670725	-1.1314583368	-0.27318
C	 1.189956922	-1.8040678399	-0.1120112271	-0.296264
C	 0.6746483363	-0.904280296	 1.0139359846	 0.340902
O	 1.3353964974	-0.6466330744	 2.1986860407	-0.456554
C	-0.8469966934	-0.7433647643	 0.8765543809	-0.223042
C	-1.5615283962	-0.1055505413	 2.001770764	 0.135233
O	-2.6959530306	-0.3833082343	 2.3175725582	-0.279717
H	 1.0941771809	 1.9726842543	-0.3981681189	 0.124392
H	-0.6641351904	 2.0056467523	-0.5967308975	 0.13022
H	 0.0484860963	 2.0395182015	 1.0221341647	 0.134963
H	-0.2127657864	-1.1518205095	-1.781432213	 0.106595
H	 1.3510988581	-0.3035270883	-1.747029804	 0.110497
H	 0.8112741328	-2.8303309857	-0.1370852472	 0.101277
H	 2.2816410543	-1.8208931716	-0.1467167107	 0.116102
H	 1.1715734738	-1.372820822	 2.8119576126	 0.292657
H	-1.4316378573	-1.5137298237	 0.3771850302	 0.092071
H	-0.9813403736	 0.6499792334	 2.5722079604	 0.082435
88.3973	143.2785	172.6794	203.8138	225.1613	261.2267	294.8756	325.3862	387.9049	465.108	490.0572	516.673	612.0168	671.2255	720.3328	798.1188	894.9234	937.8631	952.4687	989.632	1029.642	1045.696	1065.4549	1106.4615	1140.4151	1161.0875	1201.1464	1207.2976	1230.7237	1234.0822	1283.1621	1309.2016	1323.7865	1415.2178	1438.633	1455.0168	1476.9896	1488.7838	1495.6156	1514.1641	1801.876	2904.2748	3031.8025	3051.3061	3058.635	3089.8405	3102.2191	3117.2791	3120.3886	3127.3888	3783.7382
CC12CCC1(O)C2C=O	C[C@@]12CC[C@]1(O)[C@H]2C=O	
InChI=1S/C7H10O2/c1-6-2-3-7(6,9)5(6)4-8/h4-5,9H,2-3H2,1H3	InChI=1S/C7H10O2/c1-6-2-3-7(6,9)5(6)4-8/h4-5,9H,2-3H2,1H3/t5-,6-,7-/m0/s1
