15
gdb 51054	5.41267	1.09234	1.06923	1.3869	70.13	-0.2261	0.0084	0.2345	1122.5121	0.111902	-416.662315	-416.655197	-416.654253	-416.694537	26.912	
N	-0.1323912814	 1.2817426901	-0.0161235471	-0.430936
C	-0.1063163786	 0.0394481681	 0.1771658919	 0.104963
O	-1.1081526828	-0.7341446532	-0.3323784015	-0.225321
C	-0.9670391647	-2.0899472046	-0.1880850707	 0.41146
C	-2.0798527673	-3.0934565997	 0.0822737005	-0.187172
C	-1.2794872052	-4.1525391455	-0.7147991808	-0.040351
C	-0.1910555113	-3.1779955461	-0.9925110268	-0.143564
N	-0.112095952	-4.0513725273	 0.2334122883	-0.168607
C	-0.8878930913	-2.9952181481	 1.0182681324	-0.104167
H	 0.6665325557	 1.7225688303	 0.4353814408	 0.236904
H	 0.637760365	-0.5403581796	 0.7357744209	 0.105476
H	-3.1297589884	-2.9046126174	 0.2506861233	 0.114914
H	-1.5563032149	-5.0796625481	-1.2025242724	 0.105136
H	 0.5935345759	-3.1534215023	-1.7393877548	 0.109011
H	-0.8082274689	-2.8271435865	 2.0845858959	 0.112254
72.4031	110.6359	144.8417	345.6411	390.1232	445.4008	658.1667	712.3676	766.9756	774.5776	798.7123	829.8443	854.1587	866.7809	879.9254	906.6956	958.9966	975.1124	994.934	1018.6972	1034.5503	1042.5553	1052.0373	1109.9849	1130.9988	1191.2593	1235.3897	1268.2151	1278.5548	1306.6802	1404.8126	1434.9742	1751.2748	3055.933	3176.8901	3190.6967	3196.7985	3233.0562	3519.5119
N=COC12C3C4C1N4C23	[NH][CH]O[C@@]12[C@H]3[C@H]4[C@@H]1N4[C@@H]23	
InChI=1S/C6H6N2O/c7-1-9-6-2-3-5(6)8(3)4(2)6/h1-5,7H	InChI=1S/C6H6N2O/c7-1-9-6-2-3-5(6)8(3)4(2)6/h1-5,7H/t2-,3-,4+,5-,6+,8?/m0/s1
