16
gdb 93416	3.03323	1.35485	0.96428	6.4458	70.52	-0.2246	-0.0199	0.2047	1149.7929	0.125411	-475.068337	-475.060156	-475.059211	-475.100918	31.309	
N	 0.011208799	 1.3993942366	 0.0584351343	-0.570394
C	-0.0625683717	 0.0438645251	-0.0316252103	 0.378648
C	-1.1966227857	-0.6944975006	-0.0645786916	-0.369142
C	-1.1892661911	-2.1519217121	-0.013245307	 0.430697
O	-2.1607812618	-2.8393278025	 0.1747361392	-0.356139
O	 0.033000648	-2.7787118832	-0.1621898587	-0.24672
C	 1.1009610574	-2.0179481723	-0.7086274925	-0.099635
C	 1.2682699141	-0.6756628131	 0.0006892644	-0.004188
O	 2.2375058445	 0.1362698715	-0.6537625234	-0.433449
H	 0.8829930475	 1.8111939341	-0.2378217609	 0.272349
H	-0.8219394763	 1.9380564175	-0.1160618769	 0.262596
H	-2.177453868	-0.2350140655	-0.0340915418	 0.098533
H	 2.0000479942	-2.6318408534	-0.6013596243	 0.108901
H	 0.9359653402	-1.8249110272	-1.7770615474	 0.117288
H	 1.5471209501	-0.837899055	 1.0532226162	 0.110163
H	 3.1126946695	-0.15804215	-0.3853265194	 0.300493
95.6237	170.9886	222.2148	248.0442	314.9582	357.4743	375.8158	423.5462	482.4062	499.0256	523.6814	569.2446	661.6566	731.692	746.4214	784.6831	853.3471	872.0266	1035.1039	1085.0577	1093.0328	1107.1488	1128.7623	1214.0317	1231.8342	1255.9277	1304.7717	1342.8404	1374.6384	1413.982	1460.1822	1504.7938	1623.9964	1693.87	1821.3901	2989.5175	3023.434	3089.8566	3200.5518	3581.8198	3699.8068	3839.7793
NC1=CC(=O)OCC1O	NC1=CC(=O)OC[C@H]1O	
InChI=1S/C5H7NO3/c6-3-1-5(8)9-2-4(3)7/h1,4,7H,2,6H2	InChI=1S/C5H7NO3/c6-3-1-5(8)9-2-4(3)7/h1,4,7H,2,6H2/t4-/m1/s1
