15
gdb 32267	2.67927	1.64307	1.02505	3.1697	71.16	-0.2328	-0.0225	0.2103	1095.4004	0.114312	-453.999789	-453.992007	-453.991063	-454.032246	28.609	
C	-0.077407353	 1.3466899825	-0.0176170876	-0.239541
O	-0.0297042272	-0.0812880257	 0.0575854388	-0.289125
C	 0.6279909496	-0.6210332152	 1.1037456957	 0.358489
N	 1.204361611	 0.1282791862	 2.019669859	-0.348994
C	 1.8289957936	-0.5256137298	 3.012824005	 0.050342
N	 1.920942194	-1.8374365303	 3.15960274	-0.258251
C	 1.326551113	-2.5867248276	 2.2147907337	-0.052833
C	 0.6536193734	-2.0290017658	 1.1447267203	 0.237377
O	 0.0559267402	-2.7863152615	 0.194608824	-0.435998
H	 0.9303407893	 1.7642102528	-0.0861928688	 0.145646
H	-0.647247539	 1.57318845	-0.9190696347	 0.134804
H	-0.5715165174	 1.7640792323	 0.86336818	 0.145775
H	 2.3040703543	 0.0939383742	 3.7681489531	 0.116969
H	 1.3874888615	-3.6672793107	 2.3120931835	 0.124998
H	-0.3464903033	-2.1842743514	-0.4447173321	 0.310342
106.6746	144.1793	190.3537	210.0373	322.6586	330.9043	431.5732	476.9829	535.9904	549.5498	623.1823	634.7501	794.0151	799.0426	884.6514	938.5493	980.117	1049.3562	1159.9078	1178.9907	1198.2077	1209.6945	1273.2087	1287.3957	1337.5084	1380.5184	1449.48	1474.7165	1478.7116	1498.3725	1525.9902	1622.7154	1634.4848	3050.5911	3126.3057	3157.0327	3171.0082	3176.0082	3783.5845
COC1=NC=NC=C1O	COc1ncncc1O	
InChI=1S/C5H6N2O2/c1-9-5-4(8)2-6-3-7-5/h2-3,8H,1H3	InChI=1S/C5H6N2O2/c1-9-5-4(8)2-6-3-7-5/h2-3,8H,1H3
