17
gdb 74387	3.0864	1.62438	1.2474	0.6216	73.09	-0.2146	0.005	0.2196	1016.6553	0.135099	-421.77529	-421.767696	-421.766752	-421.806868	30.462	
C	-0.0076526701	 1.5190837069	 0.1107487531	-0.501715
C	-0.1061852849	 0.0335103501	-0.0108844953	 0.331331
C	-0.0615012392	-0.7338735978	-1.1121591196	-0.258146
C	-0.052428791	-2.1691222354	-0.7304328989	 0.323403
O	-0.411291475	-3.1856984689	-1.6072736412	-0.470504
C	 0.9109423837	-2.5584566027	 0.4630965072	 0.02995
O	 1.3789897205	-1.4284237274	 1.1603397141	-0.299834
C	-0.0225684043	-0.9020419714	 1.1766630024	-0.036018
C	-0.5362044126	-2.2859692628	 0.6899585436	-0.189536
H	 0.9230081264	 1.8153958359	 0.6109223529	 0.137889
H	-0.0300035161	 2.0014834572	-0.8701988127	 0.125597
H	-0.8314127469	 1.9282033041	 0.7094456622	 0.123601
H	 0.0564236237	-0.3885221506	-2.1329830991	 0.095862
H	 0.3338253556	-3.358363258	-2.1923767577	 0.28916
H	 1.5200391721	-3.454985697	 0.4484779686	 0.11087
H	-0.2738988003	-0.5218701879	 2.1664285578	 0.08092
H	-1.3717603518	-2.8826726242	 1.0322879427	 0.107172
158.1907	178.8785	257.3994	269.602	325.2352	369.8614	418.5263	489.0683	546.2806	597.3715	626.0229	723.2639	794.0468	821.872	846.2206	863.8796	872.1615	906.5956	938.9588	977.9378	1009.344	1047.6244	1061.1797	1093.7787	1129.9406	1168.231	1200.5075	1212.7933	1252.4752	1302.1473	1323.6179	1347.5919	1410.5751	1413.7591	1479.5806	1490.3963	1681.1866	3017.0138	3063.3911	3110.4996	3121.0085	3182.8997	3196.3382	3199.9504	3804.4141
CC1=CC2(O)C3OC1C23	CC1=C[C@@]2(O)[C@H]3O[C@@H]1[C@@H]23	
InChI=1S/C7H8O2/c1-3-2-7(8)4-5(3)9-6(4)7/h2,4-6,8H,1H3	InChI=1S/C7H8O2/c1-3-2-7(8)4-5(3)9-6(4)7/h2,4-6,8H,1H3/t4-,5+,6+,7+/m1/s1
