15
gdb 11220	4.43461	1.44699	1.14325	3.8348	63.2	-0.2511	-0.036	0.215	988.368	0.119315	-399.851389	-399.844054	-399.84311	-399.883793	26.181	
O	 0.0371051833	-0.0097845563	 0.2493100433	-0.331406
C	 0.0693159612	 1.2020607617	 0.209846292	 0.142508
N	 1.1614341257	 1.9345471157	-0.1321638424	-0.05232
C	 1.2382201837	 3.3963542023	-0.0857575963	-0.187608
C	 2.6581860146	 3.6676960059	 0.4290355767	-0.322225
C	 3.4575993433	 2.4394596249	-0.022616761	 0.385143
O	 4.6513672374	 2.3540974346	-0.10984573	-0.291945
C	 2.4594815178	 1.3258774163	-0.361173803	-0.27307
H	-0.8000361768	 1.8444496581	 0.4552384123	 0.074789
H	 1.1018123831	 3.8289677189	-1.0863195046	 0.122652
H	 0.4528705492	 3.7941554352	 0.5609778319	 0.129955
H	 3.1105003556	 4.5897775023	 0.0613055875	 0.142047
H	 2.6811350631	 3.6927280972	 1.5252878201	 0.147323
H	 2.5949900373	 0.4459024488	 0.2747289588	 0.167284
H	 2.6065216016	 1.0036887345	-1.4009006853	 0.146874
55.228	105.2438	200.9927	243.9539	330.6022	456.3141	471.7087	505.0217	599.2855	695.2467	765.6388	825.3267	891.0809	918.5525	990.0241	1031.6103	1077.768	1139.4766	1158.3956	1192.2547	1217.3556	1230.5292	1283.8132	1314.84	1364.7481	1418.6695	1443.8681	1450.4944	1478.9958	1517.0423	1793.3925	1865.7627	2934.0781	3009.5188	3023.3533	3049.2399	3091.5139	3101.0186	3131.1418
O=CN1CCC(=O)C1	O=CN1CCC(=O)C1	
InChI=1S/C5H7NO2/c7-4-6-2-1-5(8)3-6/h4H,1-3H2	InChI=1S/C5H7NO2/c7-4-6-2-1-5(8)3-6/h4H,1-3H2
