12
gdb 133162	2.36568	1.88496	1.05586	3.1233	60.99	-0.2899	-0.111	0.1789	1005.7573	0.074701	-513.891718	-513.88406	-513.883116	-513.924327	27.218	
C	-0.0250545537	 1.5403611574	 0.0113336948	-0.491934
C	-0.002322991	 0.0469719796	-0.0201461559	-0.089133
C	-0.1554539705	-0.7136773173	-1.1203819149	 0.34483
F	-0.3471188249	-0.1965274299	-2.3168710043	-0.037398
N	-0.1324951878	-2.090654472	-1.1393874099	-0.173964
N	 0.0368933826	-2.7522076348	-0.1030178932	 0.075863
O	 0.2090812871	-2.067615301	 1.1180519969	-0.252026
C	 0.201390672	-0.6778689978	 1.2291115716	 0.460343
O	 0.3579499468	-0.188548093	 2.3122286568	-0.318729
H	 0.9168134761	 1.9204654648	 0.4196233023	 0.166859
H	-0.1838155607	 1.9555977947	-0.9837561301	 0.148464
H	-0.8165131162	 1.8885634493	 0.6826541558	 0.166826
108.013	110.0491	162.828	257.9654	278.5946	358.2466	479.55	506.2604	527.8028	538.5624	659.7695	709.775	772.5302	794.3373	903.5531	922.9702	1054.1383	1062.0584	1148.8539	1276.8381	1361.01	1414.0058	1472.8597	1474.1414	1571.7502	1701.4084	1849.4653	3049.8622	3104.3452	3158.449
CC1=C(F)N=NOC1=O	C[C]1C(=N[N]OC1=O)F	
InChI=1S/C4H3FN2O2/c1-2-3(5)6-7-9-4(2)8/h1H3	InChI=1S/C4H3FN2O2/c1-2-3(5)6-7-9-4(2)8/h1H3
