17
gdb 125587	4.16762	1.07897	0.91795	1.7087	76.05	-0.237	0.0068	0.2439	1275.0255	0.138645	-414.199732	-414.19159	-414.190646	-414.233181	29.555	
C	 0.0300569436	 1.4533466619	-0.0094135864	-0.483091
C	 0.0126291132	-0.0374307534	 0.0198045172	 0.342782
N	-0.140467707	-0.7697091645	-1.0733194525	-0.262694
N	-0.0977876198	-2.0361334478	-0.5789743246	-0.268774
C	 0.0788211629	-2.0183780771	 0.757480296	 0.405888
N	 0.1491401566	-0.7639451911	 1.170915436	-0.372831
C	 0.1608459727	-3.2125228774	 1.6134225794	-0.130374
C	 1.1414690528	-3.2166423131	 2.739523649	-0.225817
N	-0.2910789726	-3.0942326825	 3.0112023304	-0.308844
H	 0.9776038137	 1.8372344158	 0.3814410934	 0.138733
H	-0.1029867213	 1.8104602024	-1.0317703263	 0.141081
H	-0.7687639027	 1.861462617	 0.6176143605	 0.139422
H	-0.1938251038	-2.8214282493	-1.2013255724	 0.277687
H	-0.0951239622	-4.1527527252	 1.1314847741	 0.09348
H	 1.5925754953	-4.156448763	 3.0453700341	 0.123797
H	 1.7676600832	-2.3354853813	 2.8415269751	 0.136474
H	-0.5122664445	-2.1129923313	 3.177619397	 0.253078
63.9068	107.5403	144.5489	154.5245	280.5947	343.1427	426.8482	440.5014	540.7545	636.6261	710.7162	748.4872	765.4229	833.6462	892.2343	976.6338	999.36	1011.2334	1025.2705	1070.633	1076.4482	1120.4582	1137.4693	1156.109	1190.7711	1237.6377	1285.3978	1314.7941	1363.0701	1405.9405	1415.0212	1472.9089	1478.3405	1481.2157	1501.2096	1552.454	1588.8975	3047.2732	3103.2214	3114.0134	3139.1345	3146.1688	3209.3085	3483.0687	3665.2929
CC1=NNC(=N1)C1CN1	Cc1n[nH]c(n1)[C@H]1CN1	
InChI=1S/C5H8N4/c1-3-7-5(9-8-3)4-2-6-4/h4,6H,2H2,1H3,(H,7,8,9)	InChI=1S/C5H8N4/c1-3-7-5(9-8-3)4-2-6-4/h4,6H,2H2,1H3,(H,7,8,9)/t4-/m1/s1
