21
gdb 40617	3.93168	1.1043	1.085	0.3201	87.48	-0.2209	0.0194	0.2403	1228.9226	0.184654	-349.903101	-349.895587	-349.894642	-349.935279	30.984	
C	-0.244584906	 1.3934408899	-0.1693829353	-0.271946
C	 1.2027500583	 1.2241476278	 0.2130729297	-0.271909
C	 0.3216174322	 0.0076748306	 0.0417933819	-0.010092
C	-0.0914368315	-0.7768408531	 1.2579786847	 0.054359
C	-1.2437608804	-1.8542517982	 1.1153671336	-0.084344
C	-0.1420831593	-2.816444827	 0.5535514936	-0.21957
C	 0.7217018771	-2.0827318213	 1.6355130934	-0.084314
C	-0.0310675152	-2.4967974076	 2.904808934	-0.090503
C	-1.3159312308	-2.3472299208	 2.5648512361	-0.090513
H	-0.9254115933	 1.7795246831	 0.5823043813	 0.110726
H	-0.4789765983	 1.7049419385	-1.1813245772	 0.109689
H	 1.9618713403	 1.4194479915	-0.5363192943	 0.109688
H	 1.4953227339	 1.4963493088	 1.2219964067	 0.110725
H	 0.4942490671	-0.5637349041	-0.8645822755	 0.08082
H	-0.2342312954	-0.0901024442	 2.0992304507	 0.058495
H	-2.1705306112	-1.6455641595	 0.5806832836	 0.056409
H	-0.3032657404	-3.8879546772	 0.6919460354	 0.090496
H	 0.1551068759	-2.6060095061	-0.4769023107	 0.094333
H	 1.8115071202	-2.1084350427	 1.6344847163	 0.056409
H	 0.411471316	-2.8116645891	 3.8392212289	 0.09552
H	-2.214213839	-2.5060559091	 3.144480683	 0.095522
69.2416	153.6298	182.5442	325.0156	412.1174	451.7681	509.2448	551.2616	693.6388	721.4694	777.5909	821.5013	826.7482	840.3452	880.3349	889.8412	890.2021	906.5263	909.3782	943.6554	964.0555	980.5744	1008.1283	1053.6965	1057.5478	1072.8615	1081.795	1108.2626	1130.3807	1134.0985	1171.7494	1195.0074	1204.9046	1226.0602	1226.9964	1239.69	1246.4179	1259.2519	1322.2821	1324.3396	1433.2472	1468.7871	1499.7456	1503.7368	1619.9262	3046.7342	3061.1735	3113.3896	3115.9118	3121.2203	3128.3489	3132.7755	3154.5905	3206.25	3217.3994	3221.5883	3244.5757
C1CC1C1C2CC1C=C2	C1CC1[C@H]1[C@H]2C[C@@H]1C=C2	
InChI=1S/C9H12/c1-2-6(1)9-7-3-4-8(9)5-7/h3-4,6-9H,1-2,5H2	InChI=1S/C9H12/c1-2-6(1)9-7-3-4-8(9)5-7/h3-4,6-9H,1-2,5H2/t7-,8+,9+
