13
gdb 25012	5.19329	1.35208	1.0801	2.7119	64.58	-0.2304	-0.0317	0.1987	1006.4737	0.092258	-452.803931	-452.797638	-452.796694	-452.834854	23.961	
O	 0.0017742315	 0.0308365388	 0.0036481954	-0.292949
C	-0.0448212783	 1.2168739754	 0.0101362065	 0.400732
C	-1.2934670808	 2.126844375	 0.0329920485	-0.32868
N	-0.6831496871	 3.4324781174	 0.0315588348	-0.063096
C	-0.963951832	 4.7765397807	 0.0429126709	-0.00243
N	 0.1421615906	 5.480060683	 0.0311532785	-0.261638
C	 1.2013057156	 4.5851888926	 0.0113919292	-0.209694
C	 0.6809252167	 3.3277182364	 0.0117591111	 0.370637
O	 1.0837420634	 2.0185624922	-0.0010873848	-0.231743
H	-1.9094901161	 1.9294650509	-0.8494568805	 0.172974
H	-1.8842019517	 1.9196008939	 0.930344984	 0.17301
H	-1.9699875684	 5.1647988306	 0.0592398436	 0.142874
H	 2.2285272165	 4.9066266129	-0.0012616872	 0.130004
111.5583	183.2716	321.2801	355.4635	562.3163	562.6191	567.8683	661.9713	674.7267	751.8137	779.4855	812.2047	822.9551	863.1741	956.9542	1013.2529	1069.1661	1109.7606	1194.0406	1217.8501	1248.1753	1259.4971	1301.6966	1399.6215	1433.7798	1479.2798	1521.6621	1624.478	1927.6522	3059.3795	3102.8339	3265.211	3281.5272
O=C1CN2C=NC=C2O1	O=C1Cn2cncc2O1	
InChI=1S/C5H4N2O2/c8-5-2-7-3-6-1-4(7)9-5/h1,3H,2H2	InChI=1S/C5H4N2O2/c8-5-2-7-3-6-1-4(7)9-5/h1,3H,2H2
