18
gdb 112126	2.81536	1.31589	1.04275	2.75	68.46	-0.2482	0.0037	0.252	1156.7191	0.148609	-476.223563	-476.214901	-476.213957	-476.257212	31.992	
O	 0.0391428298	 1.3943960787	-0.0725834279	-0.426413
C	 0.0768490489	-0.0083940496	 0.0662087002	-0.05875
C	-1.3406214763	-0.5941074489	 0.0058595221	-0.006362
N	-1.9522475482	-0.1247471118	-1.2461207252	-0.295182
C	-2.7882053116	-0.8710303755	-1.8332089562	 0.111305
O	-3.2546430386	-2.0850314387	-1.4640452255	-0.230213
C	-2.8262676778	-2.5671485809	-0.1745896301	-0.090513
C	-1.3967014596	-2.1235540014	 0.1281928705	 0.073337
O	-0.4658512113	-2.7879712162	-0.7145433552	-0.434495
H	-0.5439906973	 1.5571536596	-0.8266362284	 0.290218
H	 0.6970506279	-0.48281771	-0.7080448228	 0.089149
H	 0.5311042183	-0.2317301832	 1.0377051745	 0.102294
H	-1.9062049338	-0.1530049924	 0.8379958251	 0.097031
H	-3.2327899645	-0.5769855454	-2.7825434417	 0.134744
H	-3.5224245184	-2.1960163874	 0.5869301771	 0.117466
H	-2.8951628094	-3.6550604682	-0.2281800431	 0.131355
H	-1.1382192133	-2.4322593486	 1.1464478077	 0.101307
H	-0.6259942249	-2.50891628	-1.623077301	 0.293722
67.4999	119.5891	161.1166	181.9813	249.5497	308.0543	353.05	396.0318	431.3402	490.619	558.4807	621.5221	709.0598	808.4067	852.3743	897.4149	920.0773	965.6406	974.3831	1021.1807	1061.9464	1095.01	1114.1172	1143.6634	1193.6415	1225.8123	1242.3273	1261.3152	1312.2553	1327.3652	1350.734	1379.6336	1394.9207	1412.5025	1423.9763	1444.1534	1494.7108	1509.3064	1726.4808	2998.7862	3015.4367	3039.3775	3065.9336	3073.5688	3121.4561	3157.749	3752.0959	3805.9537
OCC1N=COCC1O	OC[C@H]1N=COC[C@H]1O	
InChI=1S/C5H9NO3/c7-1-4-5(8)2-9-3-6-4/h3-5,7-8H,1-2H2	InChI=1S/C5H9NO3/c7-1-4-5(8)2-9-3-6-4/h3-5,7-8H,1-2H2/t4-,5-/m1/s1
