21
gdb 37215	3.23032	1.48566	1.2005	0.4143	88.56	-0.2178	0.028	0.2458	1102.8508	0.185611	-349.931621	-349.924154	-349.92321	-349.963455	30.678	
C	-0.0778438879	 1.4335867165	-0.1878270487	-0.273637
C	 1.2715160176	 0.8388213144	 0.0717852208	-0.085382
C	 0.0108918809	-0.0566266782	 0.0932979324	-0.185981
C	 0.4873838287	-0.7158168819	-1.1610418723	 0.399728
C	 0.1177064625	-1.5166386886	-2.1503485303	-0.275255
C	 1.052737165	-1.5442865309	-3.3459315998	-0.241738
C	 1.5323416959	-0.1098072339	-3.6915833516	-0.184342
C	 2.1989667071	 0.6601417223	-2.5100566421	-0.237069
C	 1.7949293233	 0.0528403009	-1.1528398354	-0.058381
H	-0.4864970414	 2.027518213	 0.624330921	 0.11128
H	-0.3589469554	 1.7805540255	-1.1787169048	 0.110877
H	 1.8788272935	 1.1543766026	 0.9112768035	 0.085092
H	-0.5059462837	-0.506397834	 0.9319520196	 0.09175
H	-0.8088120279	-2.0829245341	-2.1604185351	 0.081531
H	 1.9211712306	-2.1909596529	-3.1504171179	 0.101532
H	 0.5488704244	-1.9732488938	-4.2182159489	 0.095754
H	 2.2189488473	-0.1462019987	-4.5442819358	 0.089191
H	 0.6511185702	 0.4490910044	-4.0252689003	 0.098488
H	 3.2888332267	 0.6408879689	-2.6152786479	 0.091992
H	 1.9048794876	 1.7140484525	-2.5563781474	 0.098775
H	 2.5849005549	-0.6278790742	-0.8100614092	 0.085794
84.8613	172.7607	213.7298	304.6401	382.7683	447.8091	489.0616	553.4109	634.0718	669.6892	730.7468	785.7613	802.9328	829.7433	860.5984	881.8051	918.5875	939.0919	947.4701	981.6207	1012.967	1021.3511	1052.1271	1061.0938	1083.3698	1087.4829	1109.442	1118.8592	1170.7307	1179.7089	1202.2469	1245.8792	1258.1641	1285.1524	1303.9157	1335.2352	1347.327	1352.0414	1364.6062	1373.0567	1483.1314	1485.2372	1486.9532	1504.9697	1770.844	2994.1748	3012.6485	3029.8557	3041.5765	3063.7138	3068.9306	3085.7388	3111.1906	3167.704	3181.7798	3188.0841	3201.5095
C1C2C1C1=CCCCC21	C1[C@H]2[C@@H]1C1=CCCC[C@@H]21	
InChI=1S/C9H12/c1-2-4-7-6(3-1)8-5-9(7)8/h3,7-9H,1-2,4-5H2	InChI=1S/C9H12/c1-2-4-7-6(3-1)8-5-9(7)8/h3,7-9H,1-2,4-5H2/t7-,8+,9-/m1/s1
