19
gdb 10917	3.12196	1.94079	1.50127	2.8444	71.01	-0.2318	0.0713	0.3031	918.4061	0.165158	-365.027475	-365.019204	-365.01826	-365.059626	31.679	
C	-0.2054396154	 1.5356563371	 0.0030429377	-0.410462
C	-0.0227549837	 0.0264549138	-0.0352702951	-0.070763
C	 1.1027973811	-0.578057825	-0.9812287734	 0.139545
O	 1.9622110042	 0.3109402026	-1.6384418747	-0.434091
C	 1.6822991269	-1.2919804403	 0.246185132	-0.15038
N	 2.0686699359	-0.1676425186	 1.145398365	-0.396008
C	 0.6692449002	-0.6757987792	 1.14786284	 0.348984
C	 0.0234243842	-1.1900199442	 2.3970359622	-0.511313
H	 0.717063141	 2.0340799128	 0.3109288315	 0.124703
H	-0.4828607158	 1.9179534489	-0.9841378187	 0.122277
H	-0.9944136763	 1.8196955457	 0.7081758406	 0.106387
H	-0.9736752583	-0.4729160872	-0.2524324186	 0.067509
H	 0.6921906633	-1.2514600314	-1.7366265148	 0.082795
H	 2.4630555003	 0.7451977214	-0.9337388352	 0.291241
H	 2.196073887	-2.2448239678	 0.3050738384	 0.088763
H	 2.5461571739	-0.5708817948	 1.950241358	 0.227018
H	-0.273352403	-0.3682066594	 3.0591431684	 0.130629
H	-0.8769738315	-1.7672852436	 2.1608815894	 0.126877
H	 0.7028292159	-1.8421137609	 2.9575404074	 0.11629
120.6008	159.3759	199.3326	214.776	240.4053	264.0094	349.7995	466.4799	518.6787	558.9983	603.5832	669.8787	689.9523	780.6866	841.2933	873.4332	921.9982	971.6942	993.6709	1003.7148	1038.3602	1091.1873	1105.5126	1113.5387	1139.8453	1152.6562	1206.3316	1237.8697	1276.1307	1307.1605	1338.8124	1364.8783	1406.0318	1409.1641	1442.0021	1455.8479	1482.2355	1487.972	1498.0988	1502.9761	3022.4312	3035.4603	3043.6423	3085.0925	3091.5181	3093.9103	3099.48	3121.6811	3177.9374	3480.1659	3745.4879
CC1C(O)C2NC12C	C[C@H]1[C@@H](O)[C@H]2N[C@@]12C	
InChI=1S/C6H11NO/c1-3-4(8)5-6(3,2)7-5/h3-5,7-8H,1-2H3	InChI=1S/C6H11NO/c1-3-4(8)5-6(3,2)7-5/h3-5,7-8H,1-2H3/t3-,4+,5+,6-/m0/s1
