18
gdb 128325	3.13691	1.22587	0.89256	2.4558	75.86	-0.187	0.048	0.235	1284.8946	0.147493	-435.284425	-435.274527	-435.273583	-435.319204	35.08	
C	 0.0457341131	 1.434624846	 0.0684305676	-0.3103
N	-0.1154807077	-0.0113649526	 0.0925245239	-0.375092
C	 0.5792566546	-0.7231834936	 1.0613789558	 0.363854
N	 1.1841889931	-0.1132662275	 2.0733858071	-0.334125
N	 1.6729116765	-1.1484712911	 2.8291746872	-0.282968
C	 1.3921385897	-2.3501777079	 2.2892112385	 0.395933
O	 1.8140588344	-3.4669172354	 2.9250586252	-0.434241
C	 0.67330227	-2.1459850162	 1.1287670269	-0.028727
C	 0.099198332	-3.1592768177	 0.1906654838	-0.534537
H	 1.0877642992	 1.7564455578	-0.0749397834	 0.113805
H	-0.5709298333	 1.8453336786	-0.7350534588	 0.109352
H	-0.2956076564	 1.8502077261	 1.0195575278	 0.145741
H	-0.0568101127	-0.4378601872	-0.8209567118	 0.231389
H	 2.1858979337	-0.9615860159	 3.6714970136	 0.270611
H	 1.5466201937	-4.2322946886	 2.4061003057	 0.307065
H	-0.9485392163	-2.9365420827	-0.0434920945	 0.137815
H	 0.6395732394	-3.2180254069	-0.7640733827	 0.123574
H	 0.1154242068	-4.1678020552	 0.622358448	 0.100851
71.6588	105.7855	154.1664	175.6266	190.2102	232.1566	244.5298	258.6087	295.9409	352.8435	443.494	530.4514	543.7912	645.5691	669.4916	740.1572	756.7523	797.9911	950.8617	1060.1583	1061.8056	1102.2977	1150.7869	1158.151	1184.873	1209.3678	1255.1057	1361.8734	1401.9062	1423.2319	1450.0763	1475.8922	1478.7994	1494.2385	1505.9163	1517.0271	1567.622	1601.1817	1664.2019	2996.0734	3002.2631	3049.8174	3072.8763	3085.1305	3127.7632	3589.2426	3700.8861	3833.0745
CNC1=NNC(O)=C1C	CNc1n[nH]c(O)c1C	
InChI=1S/C5H9N3O/c1-3-4(6-2)7-8-5(3)9/h1-2H3,(H3,6,7,8,9)	InChI=1S/C5H9N3O/c1-3-4(6-2)7-8-5(3)9/h1-2H3,(H3,6,7,8,9)
