22
gdb 120732	3.55384	0.82736	0.7223	2.7044	79.64	-0.2319	0.0669	0.2988	1615.0955	0.192245	-441.443307	-441.432767	-441.431823	-441.479689	38.364	
C	 0.0606168937	-3.3027598633	 1.1423781044	-0.404706
C	-0.0613907611	-1.8148023618	 1.4748880469	 0.118704
O	 0.8015430096	-1.0254176835	 0.6537772326	-0.430472
C	-1.4986275573	-1.3413566255	 1.3669439844	-0.007587
C	-2.3972794312	-1.3193985301	 2.5541385659	-0.261167
N	-1.9516285941	-0.073953842	 1.9347351834	-0.111977
C	-1.0046105187	 0.7729776144	 2.6695630204	-0.141403
C	-1.7216215573	 2.052993013	 3.0925187182	-0.066894
O	-2.8705501015	 1.7858647788	 3.8781730265	-0.42411
H	 1.1085969289	-3.6109715929	 1.1804350457	 0.127191
H	-0.5133755342	-3.9134526515	 1.8462249336	 0.122099
H	-0.3196861114	-3.5079898059	 0.1340681935	 0.109018
H	 0.3045982905	-1.6444871462	 2.4923162936	 0.09112
H	 0.4986552248	-1.10940463	-0.2575991789	 0.278091
H	-1.9452571866	-1.5562164153	 0.392857605	 0.079654
H	-3.4529596397	-1.5608955226	 2.4573154247	 0.112961
H	-1.9590227219	-1.5883946476	 3.514956391	 0.114296
H	-0.6018077664	 0.2719557362	 3.5633304299	 0.09091
H	-0.1642218204	 1.0120513171	 2.0099078231	 0.121805
H	-1.0555905553	 2.6661256357	 3.708974835	 0.102629
H	-1.9820354257	 2.6339630201	 2.194571143	 0.0896
H	-3.4608071448	 1.2721661529	 3.3157493182	 0.290238
31.9547	81.535	101.5166	135.1577	214.4982	239.619	254.9268	276.6989	330.4586	372.8544	399.4306	422.2341	488.5672	501.8721	614.2822	741.4375	801.541	878.0871	909.9047	918.8142	940.738	989.9698	1041.6328	1067.4873	1084.0797	1087.7626	1101.5156	1120.5424	1129.8578	1164.0584	1190.8388	1228.757	1269.3591	1284.8002	1323.7832	1337.9034	1385.8646	1395.9571	1401.9127	1415.3017	1425.0217	1433.8419	1483.2335	1490.5518	1495.2602	1498.1075	1511.9873	2978.8774	2991.6199	3027.8084	3059.2058	3073.8632	3075.7427	3084.7363	3085.6305	3100.1411	3122.9765	3170.2838	3795.5645	3804.0205
CC(O)C1CN1CCO	C[C@@H](O)[C@H]1CN1CCO	
InChI=1S/C6H13NO2/c1-5(9)6-4-7(6)2-3-8/h5-6,8-9H,2-4H2,1H3	InChI=1S/C6H13NO2/c1-5(9)6-4-7(6)2-3-8/h5-6,8-9H,2-4H2,1H3/t5-,6-,7?/m1/s1
