17
gdb 100229	2.64909	1.15437	0.98317	4.9523	74.	-0.2722	0.0179	0.2901	1238.6882	0.133835	-417.970795	-417.960872	-417.959928	-418.005471	36.132	
N	-0.1041346226	 1.4307286259	 0.1226758236	-0.529067
C	-0.0173666512	-0.0334117368	 0.0260280808	 0.007867
C	-1.4749968872	-0.5606356555	 0.0764636857	-0.04576
O	-2.1454593244	-0.1101434197	 1.2180663695	-0.414498
C	 0.6893408012	-0.5532618831	-1.2653805808	-0.398093
C	 2.0131199745	 0.0199497695	-1.4562995637	 0.294796
C	 3.0967990888	 0.5218696223	-1.5887878784	-0.417532
C	 0.717803636	-0.5229618462	 1.2068099327	 0.330032
N	 1.3120984915	-0.9284929897	 2.1099572538	-0.329893
H	 0.8205367179	 1.8300278215	 0.2539999622	 0.258473
H	-0.460329336	 1.7994235206	-0.7563505504	 0.240935
H	-1.9680326913	-0.2301210131	-0.8558966326	 0.085544
H	-1.4819807706	-1.654602838	 0.0897741239	 0.125556
H	-1.8926987713	 0.8190044169	 1.321585534	 0.295707
H	 0.7497205101	-1.6475793275	-1.2306376749	 0.153301
H	 0.0455918428	-0.2999534168	-2.11789341	 0.134387
H	 4.0649577218	 0.9415558497	-1.7111038054	 0.208245
68.2893	111.2955	132.3785	177.5345	195.3957	262.7668	278.0221	336.7862	348.0019	395.662	413.918	474.699	530.2443	596.1618	635.266	663.3144	691.9113	721.5431	874.5826	901.5101	954.2755	979.0563	1044.8688	1066.646	1112.4384	1154.1548	1223.7911	1243.5279	1330.5704	1351.0607	1392.0736	1445.9668	1465.6293	1506.4843	1654.0262	2241.4481	2365.8134	2940.8892	3022.7849	3064.269	3087.5459	3484.5107	3503.6792	3570.8063	3731.2953
NC(CO)(CC#C)C#N	N[C@@](CO)(CC#C)C#N	
InChI=1S/C6H8N2O/c1-2-3-6(8,4-7)5-9/h1,9H,3,5,8H2	InChI=1S/C6H8N2O/c1-2-3-6(8,4-7)5-9/h1,9H,3,5,8H2/t6-/m0/s1
