15
gdb 128081	4.55244	1.12334	0.90617	3.0722	69.26	-0.2721	-0.0329	0.2392	1223.8128	0.115013	-450.188624	-450.180558	-450.179613	-450.222158	28.028	
C	-0.0190271539	 1.4147408707	-0.1120360829	-0.33499
N	 0.092786436	-0.02330204	 0.0284590132	-0.358878
C	 0.6168697594	-0.5957881977	 1.1278808953	 0.544468
O	 1.0539613356	-0.0514906081	 2.1171252523	-0.385719
N	 0.6241735399	-2.0295916623	 1.0411631362	-0.066133
C	 1.0817538542	-2.9014726785	 1.9736638041	 0.054526
N	 0.9292289085	-4.1386718618	 1.5539182897	-0.285352
C	 0.3581262635	-3.9709698269	 0.3236778925	 0.049774
N	 0.1520161102	-2.7192941145	-0.0350904288	-0.261622
H	 0.5519575483	 1.7702819785	-0.9760006897	 0.13728
H	-1.064463445	 1.7173746176	-0.2317977467	 0.13728
H	 0.3826399139	 1.8717188223	 0.7928342688	 0.173978
H	-0.2223518916	-0.6461472848	-0.7012617689	 0.277197
H	 1.5010500844	-2.5687634441	 2.9091951427	 0.178741
H	 0.0901667668	-4.7963848104	-0.3191341378	 0.139449
80.0313	91.0371	117.3123	175.5328	204.4967	317.1259	413.131	518.8116	586.2812	646.6206	689.3332	762.4567	819.5139	899.5167	921.9645	969.2653	998.7207	1056.314	1151.3425	1156.83	1181.6282	1211.9655	1236.1359	1271.2233	1315.8074	1412.6707	1419.9073	1449.2826	1498.0529	1498.1707	1553.5743	1580.329	1835.249	3036.7831	3092.292	3157.1284	3260.612	3289.4334	3609.0129
CNC(=O)N1C=NC=N1	CNC(=O)n1cncn1	
InChI=1S/C4H6N4O/c1-5-4(9)8-3-6-2-7-8/h2-3H,1H3,(H,5,9)	InChI=1S/C4H6N4O/c1-5-4(9)8-3-6-2-7-8/h2-3H,1H3,(H,5,9)
