19
gdb 26677	2.23791	1.55099	0.9312	0.5708	79.71	-0.168	0.0587	0.2267	1253.3988	0.157831	-419.246348	-419.235746	-419.234801	-419.281968	37.578	
C	 0.0526049657	 1.5137697309	 0.0144925084	-0.509219
C	 0.0362823808	 0.0167589927	 0.0048874872	 0.186227
C	-0.0181946264	-0.7883108844	-1.1090783332	 0.136718
N	-0.0733814887	-0.5439000986	-2.5017231143	-0.615149
N	-0.0140417567	-2.106217482	-0.6717590981	-0.314885
C	 0.0418267945	-2.1285748841	 0.6877583002	 0.301374
O	 0.0542277498	-3.3439132662	 1.3013231159	-0.440732
C	 0.0750892647	-0.8381383017	 1.1645832356	 0.046977
C	 0.1388067785	-0.4061991003	 2.5978575628	-0.512955
H	 0.9586392912	 1.9144808563	 0.4868826626	 0.118875
H	 0.012362807	 1.9090493689	-1.0054790704	 0.102312
H	-0.8002175212	 1.9330575695	 0.5635573105	 0.118872
H	-0.896836519	-0.0146225923	-2.7679801237	 0.239541
H	 0.7369268134	-0.0332831912	-2.836076448	 0.239529
H	-0.047744133	-2.9091420174	-1.2753518041	 0.260811
H	 0.096084031	-3.1971121696	 2.2511480741	 0.301172
H	 1.0379232419	 0.1842635915	 2.8154700768	 0.124662
H	-0.7233704879	 0.2085865396	 2.8860282813	 0.124715
H	 0.1543677244	-1.2622934415	 3.2841298565	 0.091155
57.4903	93.7342	133.7264	162.2828	189.3139	192.6955	231.0517	269.3093	272.7726	309.2547	343.6888	458.9221	533.4027	588.5814	618.8694	650.9144	678.1498	721.9988	776.1755	854.3653	964.2999	1049.0515	1068.7026	1100.2491	1147.9217	1172.7762	1200.8826	1227.4205	1250.5488	1372.3312	1412.8438	1422.5689	1455.7576	1472.1157	1487.2557	1492.6691	1506.0558	1553.2431	1594.2426	1652.2438	1671.4272	3005.341	3011.6584	3053.0179	3054.0578	3063.1232	3093.355	3498.8194	3561.213	3687.0118	3841.1098
CC1=C(N)NC(O)=C1C	Cc1c(N)[nH]c(O)c1C	
InChI=1S/C6H10N2O/c1-3-4(2)6(9)8-5(3)7/h8-9H,7H2,1-2H3	InChI=1S/C6H10N2O/c1-3-4(2)6(9)8-5(3)7/h8-9H,7H2,1-2H3
