14
gdb 128962	4.01322	1.68877	1.1886	4.0898	82.87	-0.2034	-0.0489	0.1545	949.3204	0.104791	-395.736155	-395.730125	-395.729181	-395.766353	24.69	
N	 0.0395118101	 1.340997081	 0.0095419048	-0.221444
C	 1.146243759	 2.11192968	 0.0026161151	-0.074611
C	 2.3532299495	 1.4708751205	-0.0128011232	 0.232815
C	 3.7154638189	 1.8194526229	-0.0244607902	-0.293488
C	 4.4354132619	 0.6215223291	-0.0380687817	-0.075926
C	 3.5670459127	-0.4987016281	-0.0354478524	-0.249512
C	 2.2711437664	-0.0040751571	-0.0198197193	 0.326906
N	 1.0958646887	-0.6716476199	-0.0116703064	-0.269376
N	-0.0178089495	-0.0340790475	 0.0028043569	-0.108759
H	-0.8818539361	 1.7498811895	 0.0209028457	 0.283579
H	 0.9912756498	 3.1860226142	 0.0098903781	 0.147906
H	 4.1258896458	 2.8188125565	-0.0231833211	 0.095993
H	 5.5164291514	 0.5564661239	-0.0491892593	 0.100663
H	 3.8532737613	-1.5396490552	-0.0439041971	 0.105253
205.9484	240.2495	392.1003	425.3744	580.7856	590.8005	601.8967	607.6298	655.0097	746.4201	760.9688	778.3583	829.9463	842.7365	903.4493	910.4756	931.64	944.499	1045.9334	1078.5691	1174.8549	1235.508	1265.5111	1324.2628	1371.6934	1398.912	1403.596	1459.1722	1548.2472	1556.8491	1661.5094	3183.7371	3210.2632	3237.5516	3250.373	3642.9868
N1C=C2C=CC=C2N=N1	[nH]1cc2cccc2nn1	
InChI=1S/C6H5N3/c1-2-5-4-7-9-8-6(5)3-1/h1-4H,(H,7,8)	InChI=1S/C6H5N3/c1-2-5-4-7-9-8-6(5)3-1/h1-4H,(H,7,8)
