13
gdb 125351	3.40155	1.78841	1.18077	3.3254	66.36	-0.2422	-0.0668	0.1754	952.8362	0.090437	-448.889095	-448.882358	-448.881413	-448.920343	25.016	
C	-0.0174382599	 1.5227374249	 0.0812227011	-0.495334
C	-0.0101676707	 0.0394719351	-0.0121454376	 0.252083
C	-0.0371619384	-0.8524072205	-1.0603436984	-0.143411
N	-0.0155673116	-2.1970679503	-0.6729295869	-0.392068
C	 0.0245549781	-2.0995193777	 0.6173650218	 0.537838
O	 0.0639050638	-2.9014985376	 1.68786974	-0.236648
N	 0.0938693851	-2.019359946	 2.8236451429	 0.007288
N	 0.0734055462	-0.8236409845	 2.4327819263	-0.063388
N	 0.0306730614	-0.8163935417	 1.0877180565	-0.040168
H	 0.8802618085	 1.9055240088	 0.5796296847	 0.147222
H	-0.0527909766	 1.9478150058	-0.9242001639	 0.148504
H	-0.886400761	 1.8932627393	 0.6365673693	 0.147222
H	-0.072162105	-0.5951298556	-2.1088631658	 0.13086
141.1259	188.791	226.317	235.9311	372.4852	528.2205	609.8954	616.588	639.0504	713.3838	723.0964	740.3844	823.5423	859.344	1006.3362	1025.074	1069.1742	1116.2085	1176.1835	1255.2619	1277.3385	1352.7409	1415.7167	1425.5976	1454.2121	1475.6328	1496.1333	1592.8112	1645.5342	3032.2944	3083.3306	3130.7763	3248.9514
CC1=CN=C2ON=NN12	Cc1cnc2onnn12	
InChI=1S/C4H4N4O/c1-3-2-5-4-8(3)6-7-9-4/h2H,1H3	InChI=1S/C4H4N4O/c1-3-2-5-4-8(3)6-7-9-4/h2H,1H3
