16
gdb 16525	3.63767	2.38122	1.84562	0.7694	62.55	-0.2175	0.0687	0.2863	745.8248	0.131668	-383.697878	-383.691577	-383.690633	-383.727858	25.78	
O	-0.0508782048	 1.3423046256	-0.0171161052	-0.474345
C	 0.0291775804	-0.0474204461	-0.0474918588	 0.36183
C	 1.0619608816	-0.7431801007	-0.9386750028	-0.287112
C	 0.4034126953	-2.1088539541	-1.2831992904	-0.207002
C	-0.7149670661	-2.2204463974	-0.2497725076	 0.085529
O	-0.0973403064	-2.1887291059	 1.0870088371	-0.311384
C	-0.4417053829	-0.8081326714	 1.1852065692	 0.02915
C	-1.2843001942	-0.7997387402	-0.055132953	-0.193353
H	 0.6790564022	 1.6733801387	 0.517655789	 0.286379
H	 1.2423728032	-0.1328671534	-1.8279032983	 0.106878
H	 2.018846821	-0.8777138858	-0.4242561859	 0.103761
H	-0.0237591853	-2.1012903302	-2.2925314226	 0.101825
H	 1.0986038087	-2.9497186788	-1.2142060813	 0.109262
H	-1.3973389137	-3.0659556537	-0.3504933681	 0.08269
H	-0.5788858342	-0.3670654911	 2.1665673325	 0.102296
H	-2.2616920346	-0.3980725954	-0.2813542738	 0.103596
190.6286	281.0657	334.1566	366.4464	379.7046	468.3773	574.9743	667.4637	744.8496	768.636	822.9698	848.2411	871.6056	897.267	918.3563	946.9427	1010.448	1017.7641	1023.9336	1053.7226	1086.4737	1137.8553	1170.5103	1204.7107	1217.4266	1262.5827	1271.4031	1288.4218	1311.8351	1331.0879	1346.1628	1429.705	1472.5061	1498.7596	3041.6516	3051.2253	3090.4846	3102.6194	3106.9816	3173.4808	3216.5905	3795.6208
OC12CCC3OC1C23	O[C@@]12CC[C@H]3O[C@@H]1[C@@H]23	
InChI=1S/C6H8O2/c7-6-2-1-3-4(6)5(6)8-3/h3-5,7H,1-2H2	InChI=1S/C6H8O2/c7-6-2-1-3-4(6)5(6)8-3/h3-5,7H,1-2H2/t3-,4+,5-,6-/m1/s1
