19
gdb 50158	5.50128	0.82161	0.8136	3.0604	77.73	-0.2486	-0.023	0.2256	1436.3246	0.1583	-423.009114	-423.000558	-422.999613	-423.043361	31.424	
O	 1.4029468164	-0.3126559698	-0.1033407097	-0.252728
C	 0.6998210894	 0.661006243	-0.0192212654	 0.162272
C	 1.1810384962	 2.0760193598	 0.1194741209	-0.062787
C	 0.5766913873	 3.1187423825	-0.8746548667	-0.322293
C	 0.4489829357	 4.1092730885	 0.3022414977	 0.471858
C	 1.4089278931	 5.3128788274	 0.4263410027	-0.346658
C	 0.1168944829	 6.1497400487	 0.4900516362	-0.079259
O	-0.6993042706	 4.9638530536	 0.3694470089	-0.312809
C	 0.552103363	 2.9165027516	 1.2765019882	-0.322315
H	-0.4141757196	 0.5708807552	-0.0398922528	 0.066315
H	 2.2723034562	 2.0881427808	 0.1330450524	 0.092475
H	 1.1777715193	 3.4069794817	-1.7400448987	 0.110752
H	-0.4189998918	 2.8114833564	-1.2123174625	 0.119608
H	 2.0227201213	 5.3257726774	 1.3289661501	 0.114913
H	 2.0432303312	 5.4922826354	-0.4437824572	 0.114912
H	-0.0668293487	 6.6763304154	 1.4334435329	 0.107702
H	-0.046457798	 6.8429532542	-0.342905309	 0.107698
H	-0.4503277448	 2.5538185992	 1.5283376821	 0.119605
H	 1.1327813914	 3.0371687888	 2.1938530801	 0.110741
59.0536	67.1141	87.4487	251.6249	280.6764	293.4016	371.9217	408.8898	431.6389	572.6223	727.2934	781.5562	821.1883	865.2806	884.8751	885.8483	931.3874	940.33	973.3136	1025.8457	1033.6014	1038.1222	1076.2568	1156.2883	1157.4405	1186.0484	1189.9116	1224.9258	1227.5584	1238.0176	1259.542	1260.6993	1306.6	1325.4738	1360.0745	1429.8103	1460.2693	1481.6518	1489.0638	1530.899	1830.3253	2833.79	3025.9501	3047.2353	3053.1339	3067.2902	3075.2625	3097.5212	3112.5667	3118.5913	3130.4722
O=CC1CC2(CCO2)C1	O=C[C@H]1C[C@]2(CCO2)C1	
InChI=1S/C7H10O2/c8-5-6-3-7(4-6)1-2-9-7/h5-6H,1-4H2	InChI=1S/C7H10O2/c8-5-6-3-7(4-6)1-2-9-7/h5-6H,1-4H2/t6-,7+
