15
gdb 124022	3.76349	1.65179	1.15619	4.9552	74.04	-0.1942	0.0089	0.2031	982.078	0.117899	-413.021604	-413.014807	-413.013863	-413.053194	26.069	
C	 0.0113099465	 1.534373516	 0.1927052313	-0.292021
N	 1.3336815478	 1.9838193918	-0.2495813698	-0.299134
C	 2.3402779669	 1.1652959854	-0.6773136743	 0.086704
N	 2.3277668067	-0.1179440128	-0.7739914602	-0.343887
C	 1.120722984	-0.6836524635	-0.3828797167	 0.339673
N	 0.893137139	-1.995796806	-0.4046232217	-0.311865
N	-0.3749657676	-2.1081067612	 0.043813565	-0.184297
C	-0.956228776	-0.9174912356	 0.3481463245	-0.169917
C	-0.0086550365	 0.0409812529	 0.0820744267	 0.177652
H	-0.1702484911	 1.8725089182	 1.2250387864	 0.115851
H	-0.7677670724	 2.0029739933	-0.4289445008	 0.115866
H	 1.5158133431	 2.9726144789	-0.2373827185	 0.249619
H	 3.2436676447	 1.704381966	-0.9610004452	 0.111447
H	-0.7808253081	-3.0242774834	 0.1195446196	 0.274241
H	-1.968622367	-0.8600653999	 0.7177359239	 0.130068
57.151	225.3731	250.5218	403.2378	441.6875	457.2149	511.2916	570.5944	623.5343	654.9291	750.5797	770.8909	775.0225	931.4096	948.4703	957.3941	959.2064	1049.5138	1072.5388	1149.3701	1190.984	1231.183	1266.3647	1292.9464	1333.4815	1409.654	1428.9325	1476.2022	1511.6764	1523.1387	1552.3774	1628.449	1679.8798	2962.447	2970.692	3138.5487	3250.3514	3657.5537	3686.7816
C1NC=NC2=NNC=C12	C1NC=Nc2n[nH]cc12	
InChI=1S/C5H6N4/c1-4-2-8-9-5(4)7-3-6-1/h2-3H,1H2,(H2,6,7,8,9)	InChI=1S/C5H6N4/c1-4-2-8-9-5(4)7-3-6-1/h2-3H,1H2,(H2,6,7,8,9)
