17
gdb 27050	3.01965	1.21025	0.93687	2.2517	76.35	-0.218	-0.0221	0.1959	1228.0687	0.134756	-421.872116	-421.86331	-421.862365	-421.9067	31.2	
C	-0.0644710979	 1.4598541111	-0.1955340258	-0.501653
C	-0.0810386655	-0.0243923262	-0.1033622385	 0.287953
C	-1.0828506892	-0.9446603389	 0.0435857049	 0.138748
C	-2.5598919674	-0.6552564802	 0.1190266938	-0.39013
C	-3.0522979207	-0.1783468742	-1.2364852447	 0.164224
O	-3.4355549203	 0.9401613951	-1.467610645	-0.244553
C	-0.4408465709	-2.2304611464	 0.0775697537	-0.282746
C	 0.88889879	-1.9951147759	-0.0394715538	-0.01495
O	 1.1240900888	-0.6596359473	-0.1494528031	-0.174722
H	 0.3962543278	 1.9140114631	 0.6899522575	 0.138017
H	 0.5071214935	 1.7926979268	-1.0684240304	 0.142994
H	-1.0826386537	 1.8423073122	-0.2909360721	 0.156969
H	-3.0982098747	-1.5717667985	 0.3871801061	 0.121649
H	-2.7962651426	 0.1128504848	 0.8608279056	 0.127737
H	-2.9935789263	-0.9459345644	-2.0407553543	 0.083156
H	-0.9198842958	-3.1917651683	 0.184155294	 0.111151
H	 1.7604915647	-2.6278482727	-0.0603934781	 0.136155
55.0854	64.6578	115.7606	161.7542	236.7879	240.9706	359.4941	389.3513	479.6655	622.2684	636.7639	688.066	705.4715	744.9013	822.0767	854.77	911.0614	968.0248	996.5667	1054.0687	1067.6458	1074.2683	1136.999	1176.6231	1223.121	1254.3515	1262.879	1305.5819	1416.3246	1421.1669	1441.1021	1465.131	1481.2667	1487.6016	1548.0002	1647.7608	1823.6988	2880.9575	3030.3782	3041.8967	3084.3967	3100.5317	3137.4697	3248.8401	3285.4592
CC1=C(CC=O)C=CO1	Cc1c(CC=O)cco1	
InChI=1S/C7H8O2/c1-6-7(2-4-8)3-5-9-6/h3-5H,2H2,1H3	InChI=1S/C7H8O2/c1-6-7(2-4-8)3-5-9-6/h3-5H,2H2,1H3
