21
gdb 94867	2.7023	1.73687	1.34667	1.5902	82.5	-0.2555	0.0698	0.3253	1027.2506	0.185218	-387.025973	-387.018538	-387.017594	-387.057469	31.138	
O	 0.2670457515	 1.400521034	-0.2796258055	-0.42296
C	 0.0851219671	 0.004682582	-0.0639389276	 0.048605
C	 0.6330226831	-0.4798266791	 1.3430447424	-0.23883
C	-0.5218926745	-1.1996834323	 2.1218454654	-0.357698
C	-1.7283229969	-0.581422303	 1.4552636126	 0.34478
C	-3.2072799255	-0.8302783543	 1.0349585108	-0.311789
C	-2.7111421251	 0.4105332873	 0.1994999157	-0.079814
C	-2.088874774	 0.9439155953	 1.5134019256	-0.258232
C	-1.3980495934	-0.406168389	-0.0388782065	 0.033977
H	 1.2122921484	 1.5808357945	-0.2540009307	 0.280395
H	 0.5945628732	-0.5480081918	-0.8656038489	 0.064769
H	 1.5098073408	-1.1257287868	 1.2362666212	 0.094223
H	 0.9530289578	 0.4111182173	 1.8933910567	 0.10558
H	-0.4923955867	-2.2814354468	 1.9462745072	 0.099704
H	-0.4498569396	-1.0353686659	 3.2011485165	 0.098519
H	-3.4126748502	-1.749575197	 0.4781670002	 0.087272
H	-3.9832433518	-0.626821371	 1.7780509411	 0.088026
H	-3.2941891484	 0.9692774359	-0.5339069103	 0.069887
H	-2.7909352249	 1.2326993927	 2.3016467781	 0.077002
H	-1.2784767574	 1.6619290091	 1.4083394488	 0.11938
H	-1.5457193135	-1.3089690013	-0.6419258028	 0.057205
110.4577	221.0714	272.0583	291.9282	344.0546	428.2598	464.8979	533.4645	567.2688	668.2364	687.3282	781.2586	812.8279	832.5583	849.4988	886.4869	897.5111	941.969	954.1434	964.7161	1007.9617	1018.9671	1028.434	1072.2569	1088.691	1113.1235	1136.6783	1147.5162	1153.3022	1199.4337	1209.3186	1221.2432	1226.7579	1236.84	1262.9806	1281.1835	1291.7907	1333.3982	1343.5402	1397.9204	1434.0665	1477.3724	1493.9182	1499.866	1542.4446	2987.9459	3035.0812	3038.1034	3044.1325	3046.9069	3054.0984	3081.2471	3097.6928	3101.2128	3110.6998	3164.3323	3810.7075
OC1CCC23CC(C2)C13	O[C@H]1CC[C@@]23C[C@@H](C2)[C@@H]13	
InChI=1S/C8H12O/c9-6-1-2-8-3-5(4-8)7(6)8/h5-7,9H,1-4H2	InChI=1S/C8H12O/c9-6-1-2-8-3-5(4-8)7(6)8/h5-7,9H,1-4H2/t5-,6-,7-,8+/m0/s1
