22
gdb 63739	3.22824	1.14292	1.11883	1.6758	88.72	-0.2249	0.0204	0.2454	1245.6759	0.194366	-367.206338	-367.197413	-367.196469	-367.239535	35.543	
C	 0.0607963414	 1.558651973	-0.0415845146	-0.43063
C	-0.0198675443	 0.0246355564	 0.0038382046	 0.262455
C	-1.4965463443	-0.415559805	 0.0845259603	-0.416539
C	 0.7013210104	-0.6379798891	-1.2122769431	-0.357928
C	 1.4820537555	-1.8226570728	-0.6335055546	 0.33131
C	 1.4065364763	-3.1986431795	-1.2035103373	-0.290709
N	 2.644944405	-2.4089148969	-1.3237424341	-0.3663
C	 1.5627696704	-1.5538388572	 0.8275417219	-0.134136
C	 0.758126915	-0.5524161681	 1.1774080026	-0.104022
H	 1.1010337319	 1.898745118	-0.0629180361	 0.115109
H	-0.4438906587	 1.9522403414	-0.9313009637	 0.110687
H	-0.4206950036	 2.0042347402	 0.836231248	 0.110004
H	-2.0714766506	-0.009955615	-0.7559693525	 0.108719
H	-1.5817337812	-1.5063722164	 0.0646424547	 0.116806
H	-1.9626809981	-0.0602145761	 1.0100848014	 0.110307
H	 0.0048495384	-0.9286774896	-2.0045497647	 0.094842
H	 1.412321125	 0.0765673754	-1.6450973969	 0.10026
H	 1.4802929067	-4.0672017628	-0.5537923121	 0.114418
H	 0.7876709584	-3.3462606458	-2.0856929895	 0.107949
H	 2.7141140207	-2.0186253513	-2.2613578574	 0.227112
H	 2.1922147761	-2.1412261703	 1.4857679419	 0.100902
H	 0.6117173296	-0.1846668786	 2.1882659414	 0.089385
59.6878	175.0303	238.1482	254.6966	291.6885	300.2764	322.567	335.6396	406.6166	416.2443	494.4811	578.4837	643.5992	774.8658	790.2463	822.8603	850.1464	899.2064	911.5032	930.8075	954.3004	959.3672	968.8869	971.2118	985.427	1030.258	1060.9452	1103.1448	1127.5232	1155.1403	1201.1645	1244.6056	1255.0317	1266.2569	1304.2085	1321.8543	1335.6732	1394.0292	1407.8026	1428.3776	1480.7714	1485.8323	1491.0758	1501.2034	1508.5558	1509.5098	1679.6028	3021.0845	3023.5601	3028.8283	3080.1512	3087.6059	3092.5758	3096.9457	3100.1671	3104.3428	3176.0093	3182.1516	3209.6404	3485.2333
CC1(C)CC2(CN2)C=C1	CC1(C)C[C@]2(CN2)C=C1	
InChI=1S/C8H13N/c1-7(2)3-4-8(5-7)6-9-8/h3-4,9H,5-6H2,1-2H3	InChI=1S/C8H13N/c1-7(2)3-4-8(5-7)6-9-8/h3-4,9H,5-6H2,1-2H3/t8-/m0/s1
