21
gdb 80747	3.23207	1.05315	1.01514	2.9742	82.51	-0.2463	-0.0181	0.2282	1282.2202	0.183	-387.102704	-387.093756	-387.092812	-387.137276	33.141	
C	-0.4141621856	 1.3742590289	-0.1594883323	-0.421667
C	 0.0057070241	-0.0826273509	-0.0039887183	-0.007119
C	 1.3894062496	-0.6275049853	-0.299920606	-0.057288
C	 2.5637063533	 0.335619542	-0.3798871863	-0.250277
C	 2.5128962375	 1.1929110504	 0.9182994663	-0.063561
C	 1.7100697687	 0.3363691023	 1.9403324025	-0.250233
C	 0.8673789151	-0.6267792366	 1.1187179142	-0.057175
C	 3.8998608266	 1.505209534	 1.4285246449	 0.148227
O	 4.3548458209	 2.6064167269	 1.5958915968	-0.25088
H	 0.2221140367	 1.922265378	-0.861864365	 0.124064
H	-1.4354994593	 1.4314680037	-0.5455931544	 0.117727
H	-0.4023879257	 1.9181517448	 0.7906106971	 0.123924
H	-0.7758654104	-0.7808527857	-0.2908057892	 0.087864
H	 1.460553176	-1.5454756915	-0.8738301271	 0.081795
H	 3.4944749561	-0.2461286296	-0.412940573	 0.102636
H	 2.5579463995	 0.9707396115	-1.2720400996	 0.112694
H	 2.015205534	 2.1455792224	 0.7349912269	 0.095623
H	 2.3973059994	-0.2452908747	 2.5690167325	 0.102649
H	 1.127632542	 0.9719955585	 2.6156614165	 0.112707
H	 0.5489278323	-1.5442372557	 1.6024265029	 0.081787
H	 4.5069160791	 0.5929562665	 1.6519193007	 0.066502
57.2339	71.9641	88.2368	178.6879	223.5136	313.5346	358.5487	404.8028	428.7234	530.3487	665.0637	695.9341	757.9257	765.4882	851.7121	890.3317	893.1384	944.585	974.4087	997.7139	1002.1343	1052.3751	1070.4903	1084.2342	1088.6284	1112.3343	1127.5505	1141.529	1185.3844	1226.1969	1245.1099	1292.0298	1304.5507	1320.8609	1345.572	1346.533	1370.9476	1423.772	1426.7726	1435.2723	1482.3498	1495.6809	1502.6263	1505.8657	1834.7455	2825.8492	3019.0696	3021.8564	3035.8338	3067.7905	3068.3098	3093.7754	3102.8583	3117.1107	3138.128	3154.6982	3167.0842
CC1C2CC(CC12)C=O	C[C@H]1[C@H]2C[C@@H](C[C@@H]12)C=O	
InChI=1S/C8H12O/c1-5-7-2-6(4-9)3-8(5)7/h4-8H,2-3H2,1H3	InChI=1S/C8H12O/c1-5-7-2-6(4-9)3-8(5)7/h4-8H,2-3H2,1H3/t5-,6-,7+,8-
