23
gdb 101453	3.41724	0.92629	0.76758	1.2884	87.75	-0.2355	0.027	0.2626	1530.6588	0.205849	-388.30116	-388.291338	-388.290394	-388.336145	36.758	
C	-0.0415441123	 1.5420926907	-0.0274519464	-0.397206
C	 0.0217909776	 0.0079574939	-0.0634589368	 0.025545
C	 0.7231134743	-0.4572378248	-1.3427490257	-0.084886
O	-0.0111398691	 0.0292131043	-2.4592581702	-0.423121
C	 0.7058046227	-0.5653887837	 1.1965222592	-0.011664
C	 0.0256465459	-0.1353630594	 2.5283060017	-0.226066
C	 0.1831534834	-1.3332451446	 3.4962996412	-0.2631
C	 0.4263763626	-2.4892749996	 2.5569506867	-0.0745
C	 0.7102206179	-2.0783384407	 1.322792356	-0.071155
H	 0.9652943127	 1.9685026808	 0.0668792601	 0.102828
H	-0.4841009246	 1.9249759826	-0.9490161078	 0.132946
H	-0.6357005101	 1.9019811203	 0.8168365726	 0.110401
H	-1.0046219695	-0.3835844306	-0.1009841161	 0.078511
H	 1.7578308556	-0.0732146015	-1.3510704492	 0.079955
H	 0.7799633261	-1.5549152747	-1.3712207699	 0.083568
H	 0.444442267	-0.2445376381	-3.2601577026	 0.285302
H	 1.7504767379	-0.2095290771	 1.1860664552	 0.06956
H	 0.4329306565	 0.7942614456	 2.9325577733	 0.096947
H	-1.0407586999	 0.0327900032	 2.3391600474	 0.103721
H	 1.0390387388	-1.2011468912	 4.1740013338	 0.103673
H	-0.6942327781	-1.474572438	 4.1376044078	 0.100976
H	 0.410698464	-3.5240475334	 2.8822944599	 0.088692
H	 0.9638958408	-2.7377503339	 0.50052388	 0.089072
61.8167	88.848	124.3015	167.8424	228.9174	240.0603	272.1413	295.9565	362.117	398.496	425.7464	531.3046	628.8932	743.8065	773.792	847.8476	860.4343	881.6214	926.9544	932.0141	966.775	971.236	992.3154	1024.1139	1055.1889	1075.2743	1105.8143	1126.1235	1153.476	1171.7562	1173.9214	1227.4668	1236.5292	1270.7608	1290.8488	1299.7948	1320.3429	1329.1494	1359.0031	1368.3098	1391.2703	1401.6848	1459.1133	1483.0697	1494.0368	1499.6033	1507.0479	1519.8503	1686.1456	2947.8794	2956.2501	3001.8511	3003.7736	3017.2216	3030.3521	3037.5823	3056.2866	3100.1864	3101.048	3133.8819	3178.8999	3205.0001	3833.9828
CC(CO)C1CCC=C1	C[C@@H](CO)[C@H]1CCC=C1	
InChI=1S/C8H14O/c1-7(6-9)8-4-2-3-5-8/h2,4,7-9H,3,5-6H2,1H3	InChI=1S/C8H14O/c1-7(6-9)8-4-2-3-5-8/h2,4,7-9H,3,5-6H2,1H3/t7-,8+/m0/s1
