17
gdb 107773	2.67763	1.68284	1.22524	2.2336	72.53	-0.2299	-0.0075	0.2224	1034.0557	0.135777	-417.941561	-417.933574	-417.93263	-417.974216	30.226	
C	-0.5879574562	 1.2078616526	 0.1029832498	-0.329953
N	 0.5702113889	 0.3302364153	 0.0760729229	-0.42258
C	 0.889123142	-0.3593944395	-1.0984180875	 0.230135
C	 0.4614310547	-0.0419056011	-2.548289308	-0.206621
N	 0.7339074025	-1.4775904154	-2.9293353159	-0.132029
C	 1.9921556014	-1.8682227014	-2.214936747	-0.178725
C	 0.6399021307	-1.9032495368	-1.5356328463	-0.106159
C	 2.3656050741	-0.7510679079	-1.2981183925	 0.413874
O	 3.3531327816	-0.4170582868	-0.7022830675	-0.351824
H	-0.5390336367	 2.0480703038	-0.6081651434	 0.108974
H	-1.4963687773	 0.6358333826	-0.1146690773	 0.12779
H	-0.6965888714	 1.6222280077	 1.1087984744	 0.128491
H	 1.3979920525	 0.7257627945	 0.5053383454	 0.240129
H	-0.609713004	 0.1328475317	-2.6727272851	 0.120464
H	 1.0330581414	 0.7098018992	-3.1056537908	 0.112006
H	 2.5827565057	-2.6729584686	-2.6285854432	 0.124157
H	 0.0951965803	-2.7509163998	-1.143132108	 0.12187
79.528	155.7353	174.3726	178.9793	296.1631	345.9403	421.0534	491.4595	596.2563	621.6969	659.054	750.7113	767.2356	807.3512	832.1703	851.2695	882.5378	959.866	977.0562	1028.4671	1065.7301	1076.5883	1100.8161	1145.2912	1149.3976	1161.0767	1217.8769	1222.6873	1248.4416	1300.304	1386.6859	1466.5163	1487.8955	1499.5155	1507.9693	1526.3115	1870.4281	2973.5826	3035.6387	3063.6223	3108.1206	3111.7777	3215.4787	3230.5905	3549.7688
CNC12CN3C(C13)C2=O	CN[C@]12CN3[C@H]([C@@H]13)C2=O	
InChI=1S/C6H8N2O/c1-7-6-2-8-3(4(6)8)5(6)9/h3-4,7H,2H2,1H3	InChI=1S/C6H8N2O/c1-7-6-2-8-3(4(6)8)5(6)9/h3-4,7H,2H2,1H3/t3-,4+,6-,8?/m1/s1
