15
gdb 55598	5.19623	0.79071	0.68746	1.8254	69.4	-0.2386	-0.0221	0.2165	1540.2338	0.112713	-487.317451	-487.308316	-487.307372	-487.352184	32.305	
N	 1.2641381185	-0.4513676249	-0.194524808	-0.525399
C	 0.0215662038	 0.0795611721	-0.0180767614	 0.44924
N	-0.169861357	 1.3320610653	 0.1320152207	-0.553868
N	-1.0407759722	-0.8654951489	-0.0677648749	-0.437656
C	-0.9663379968	-2.2259845402	-0.064495141	 0.576354
O	 0.0301037066	-2.9106335781	-0.0263989423	-0.404082
O	-2.2470077836	-2.7187648356	-0.1064292361	-0.231301
C	-2.4043385974	-4.0848767655	-0.1078832869	 0.123386
N	-3.5764654071	-4.5349750587	-0.136943205	-0.420561
H	 2.0204106984	 0.1765019397	 0.020130452	 0.266033
H	 1.389755923	-1.4416309882	-0.050052161	 0.283769
H	-1.1557075744	 1.5671609878	 0.2094911202	 0.207483
H	-1.9726572668	-0.4804189498	-0.0635772275	 0.272023
H	-1.4540626508	-4.6176041118	-0.0831488233	 0.150485
H	-3.5561821541	-5.5535547235	-0.1356813656	 0.244094
65.0155	83.0967	121.1051	147.6296	151.0583	304.6523	363.481	424.7919	450.607	467.3859	538.8058	579.1056	597.3883	717.9675	766.4495	768.9952	814.2717	847.938	931.7891	992.2984	1067.3649	1108.6825	1138.3956	1160.6477	1226.4831	1266.2959	1388.3367	1419.128	1503.686	1610.4724	1749.8579	1763.136	1825.4609	3145.5955	3513.5599	3523.4646	3575.4992	3638.922	3716.265
NC(=N)NC(=O)OC=N	NC(=N)NC(=O)O[CH][NH]	
InChI=1S/C3H6N4O2/c4-1-9-3(8)7-2(5)6/h1,4H,(H4,5,6,7,8)	InChI=1S/C3H6N4O2/c4-1-9-3(8)7-2(5)6/h1,4H,(H4,5,6,7,8)
