16
gdb 48307	3.83895	0.76368	0.66993	5.2274	74.04	-0.2574	-0.0421	0.2153	1596.1132	0.121274	-437.886095	-437.876437	-437.875493	-437.921795	33.079	
O	-0.2419502303	-0.0091512628	-0.000586701	-0.256769
C	-0.0835792331	 1.1779792611	-0.0123275053	 0.161173
N	 1.1440627695	 1.8590233621	-0.0115444497	-0.081116
C	 1.1246501639	 3.320852197	 0.0316879641	-0.20982
C	 1.1303686942	 3.8729399774	 1.4740216273	-0.34496
C	 1.1108297706	 5.3285749167	 1.4942028331	 0.288938
C	 1.0942463109	 6.5295675211	 1.4644219678	-0.424569
C	 2.3894775494	 1.2114811278	-0.0351355045	 0.161175
O	 2.580130238	 0.0290777868	-0.0266999278	-0.256771
H	-0.9230932276	 1.90241084	-0.0341406841	 0.088452
H	 1.9918829414	 3.7024209298	-0.5127705146	 0.143827
H	 0.2375924252	 3.6786708044	-0.4967213661	 0.143829
H	 0.2629658381	 3.4735566291	 2.0143575835	 0.145686
H	 2.0180139315	 3.4973276096	 1.9982963922	 0.145684
H	 1.0796557663	 7.5915399785	 1.4586412151	 0.206789
H	 3.208513422	 1.9583804315	-0.0723035501	 0.088453
55.8685	69.3605	90.7994	148.5455	168.1865	231.0038	261.5872	339.9669	393.7623	404.8021	468.324	527.9013	637.3947	664.3805	735.7512	763.955	959.0677	975.4822	1017.9315	1026.9906	1037.6843	1042.3547	1175.5731	1204.6435	1303.3895	1311.8073	1375.9713	1399.4899	1447.2849	1459.0086	1475.8141	1504.1236	1801.5087	1879.9186	2242.9681	2917.3974	2928.1729	3027.3543	3060.6054	3073.0538	3119.0605	3504.821
O=CN(CCC#C)C=O	O=CN(CCC#C)C=O	
InChI=1S/C6H7NO2/c1-2-3-4-7(5-8)6-9/h1,5-6H,3-4H2	InChI=1S/C6H7NO2/c1-2-3-4-7(5-8)6-9/h1,5-6H,3-4H2
