20
gdb 10734	2.88476	1.6123	1.3813	0.5832	80.29	-0.2555	0.0616	0.317	1023.9549	0.174629	-311.825712	-311.816495	-311.815551	-311.859115	35.132	
C	 0.1136835829	 1.4528935408	 0.0108388947	-0.398515
C	-0.0257803174	-0.0883057714	 0.0464989129	 0.04048
C	 0.5919033647	-0.6216933685	 1.3582477251	-0.422595
C	-1.4525173188	-0.4410706653	 0.0207887119	 0.367389
C	-2.6208839826	-0.7246674806	-0.0030422877	-0.513966
C	 0.6287925807	-0.6649661282	-1.2204879576	 0.042273
C	 2.1061391686	-0.9425275635	-1.3400966491	-0.290437
C	 1.1142637494	-2.0824973629	-1.3474453713	-0.275513
H	 1.1721440894	 1.7314847951	 0.0216971094	 0.114691
H	-0.3418358573	 1.8640839407	-0.8942958846	 0.120298
H	-0.3777244456	 1.9084090287	 0.8751391535	 0.118366
H	 0.0709412331	-0.1846054624	 2.2140926728	 0.125681
H	 0.5017104368	-1.7077369653	 1.4358894409	 0.126477
H	 1.6485089951	-0.3481966468	 1.4318684283	 0.115532
H	-3.6517485302	-0.9781357242	-0.0252024243	 0.191632
H	 0.1662875223	-0.2632898819	-2.1182485214	 0.089352
H	 2.6005428116	-0.6743035137	-2.2674062951	 0.110578
H	 2.7326896924	-0.8327123479	-0.4621344954	 0.112183
H	 1.0837018248	-2.7233810776	-0.4737102504	 0.114611
H	 0.9247356303	-2.603131055	-2.2795362325	 0.11148
52.346	142.0302	175.7489	229.8968	252.4262	270.4315	286.4307	360.293	405.3429	438.3749	530.7863	565.6585	622.5628	628.0562	664.9508	782.4247	832.0565	837.9058	920.2366	940.2059	948.2659	972.7207	1028.7738	1059.2827	1079.8842	1084.4489	1146.6217	1170.4476	1197.0891	1218.576	1235.9365	1265.3934	1389.7106	1395.474	1422.9908	1465.1998	1482.421	1489.2499	1501.3523	1508.403	1511.9118	2229.3203	3037.4295	3046.9547	3112.3178	3116.3797	3119.2555	3125.3224	3134.8251	3137.2678	3142.1722	3210.9897	3226.1114	3502.4458
CC(C)(C#C)C1CC1	CC(C)(C#C)C1CC1	
InChI=1S/C8H12/c1-4-8(2,3)7-5-6-7/h1,7H,5-6H2,2-3H3	InChI=1S/C8H12/c1-4-8(2,3)7-5-6-7/h1,7H,5-6H2,2-3H3
