16
gdb 54720	4.53499	1.23383	1.1339	4.0082	69.4	-0.2339	0.0418	0.2757	1069.8236	0.125552	-433.980898	-433.97366	-433.972716	-434.012935	28.304	
N	-0.0943776897	 1.3419042126	-0.1984673092	-0.545153
C	-0.0466887859	-0.0355527006	-0.0892085375	 0.405021
O	 0.846089692	-0.71525868	-0.5548908312	-0.378475
N	-1.1202883301	-0.5683198052	 0.6382680888	-0.162774
C	-2.5444882439	-0.3950433556	 0.1988161759	-0.056878
C	-2.4890074763	-1.5639682226	-0.8547561575	-0.028628
N	-3.6323403887	-2.3343835948	-0.2711304414	-0.346762
C	-2.9704430723	-1.7139509094	 0.9203067451	-0.03313
C	-1.5505140644	-1.9614148794	 0.333588878	 0.007839
H	 0.7770833494	 1.7574684021	-0.4901469868	 0.260986
H	-0.5898818156	 1.8472583401	 0.5196224923	 0.254961
H	-3.0524482616	 0.5691507429	 0.1527702871	 0.090383
H	-2.2632796789	-1.5245397061	-1.9202481022	 0.105228
H	-4.5182804934	-1.8630199364	-0.470855376	 0.212443
H	-3.3066110794	-1.8460641935	 1.9482054218	 0.095675
H	-0.9029495513	-2.827248274	 0.4340691728	 0.119264
74.3914	128.4407	180.9411	397.4366	441.0566	457.071	511.2175	556.6137	640.0091	686.5006	753.4954	789.0191	812.9872	823.1889	833.4256	899.896	909.6186	965.1268	986.5732	1042.683	1061.2147	1099.7231	1102.4605	1120.0984	1157.4323	1163.0097	1170.1533	1171.994	1215.3349	1293.22	1296.7163	1341.8299	1384.451	1617.558	1797.4807	3109.4525	3125.0945	3131.1831	3177.857	3407.177	3579.8821	3698.0694
NC(=O)N1C2C3NC2C13	NC(=O)N1[C@H]2[C@@H]3N[C@H]2[C@H]13	
InChI=1S/C5H7N3O/c6-5(9)8-3-1-4(8)2(3)7-1/h1-4,7H,(H2,6,9)	InChI=1S/C5H7N3O/c6-5(9)8-3-1-4(8)2(3)7-1/h1-4,7H,(H2,6,9)/t1-,2+,3-,4+
