18
gdb 128819	3.23626	1.10032	0.8628	1.2221	74.9	-0.2501	0.0027	0.2529	1342.2243	0.148048	-435.266782	-435.25754	-435.256595	-435.301737	32.091	
C	 0.1946680301	 1.3569988685	-0.0988702692	-0.222004
O	 0.2931610744	-0.0478411638	-0.1244297515	-0.233961
C	 0.3646582274	-0.6094163043	 1.1744140124	-0.187967
C	 0.522119221	-2.088402631	 1.0534912003	 0.248588
N	-0.3143421935	-2.9366296642	 1.6536477768	-0.269539
N	 0.1628584404	-4.1236372168	 1.3115379652	-0.086891
N	 1.2361789838	-4.129208768	 0.5278709632	-0.258308
C	 1.4957176094	-2.83286563	 0.3471309926	 0.25753
C	 2.6402349218	-2.3512089721	-0.4820510684	-0.507473
H	 1.0652292083	 1.8196004954	 0.3932631377	 0.103987
H	 0.1504270508	 1.6992497887	-1.1353427003	 0.129675
H	-0.713329817	 1.6924842956	 0.426246516	 0.107914
H	 1.2183778408	-0.1715776959	 1.7214022636	 0.095585
H	-0.5436037832	-0.3883328671	 1.7546170197	 0.112527
H	-0.2735011562	-4.9778112452	 1.6168660476	 0.290219
H	 2.3118203057	-1.5600921748	-1.1603924891	 0.150371
H	 3.437877954	-1.934308438	 0.1444522516	 0.12978
H	 3.0614685819	-3.1755005271	-1.0608219784	 0.139967
57.9175	93.95	95.5106	127.6681	226.9236	252.5551	272.6741	339.8101	391.8904	432.2543	492.9085	679.1878	719.3882	732.1822	795.4477	977.7284	986.738	1024.1078	1026.6837	1073.6365	1146.8741	1181.3636	1189.4678	1193.899	1224.3621	1250.4131	1262.1466	1371.2714	1407.599	1412.0765	1458.4228	1478.6847	1480.9774	1485.1395	1493.5722	1501.4874	1521.2742	1534.7793	1573.3853	2946.4753	2970.8421	3010.9582	3016.148	3037.0041	3102.5615	3117.8988	3142.9308	3674.4234
COCC1=NNN=C1C	COCc1n[nH]nc1C	
InChI=1S/C5H9N3O/c1-4-5(3-9-2)7-8-6-4/h3H2,1-2H3,(H,6,7,8)	InChI=1S/C5H9N3O/c1-4-5(3-9-2)7-8-6-4/h3H2,1-2H3,(H,6,7,8)
