18
gdb 17944	3.19594	2.24149	2.05891	1.664	70.57	-0.2326	0.0933	0.3259	786.4631	0.155689	-347.781485	-347.774824	-347.77388	-347.811888	26.751	
C	 0.002648869	 1.528346638	-0.0414299933	-0.524276
C	 0.0029616202	 0.0313353375	 0.0120414866	 0.350353
C	 0.4563863585	-1.0462971821	-0.9684025263	-0.124858
C	 1.2325016943	-1.7799054647	 0.1263792254	-0.24946
C	 0.4661823007	-0.9011579185	 1.1684448357	 0.033396
O	-0.687800831	-1.5549487727	 1.6739483234	-0.264613
C	-1.5340906011	-1.8156587139	 0.5461398835	-0.10368
C	-1.0088899562	-0.9135882694	-0.5642325709	-0.12225
H	 1.0056561176	 1.9403006851	 0.1190381897	 0.118727
H	-0.3487156576	 1.8868120725	-1.0148385772	 0.119532
H	-0.6566720843	 1.9520909652	 0.7253490209	 0.125861
H	 0.7589594614	-0.9292519047	-2.0032720804	 0.080604
H	 1.1130253909	-2.8637559857	 0.2290604827	 0.095186
H	 2.2984332762	-1.53616774	 0.0963882473	 0.099163
H	 1.0277398408	-0.4916998305	 2.0078982443	 0.079844
H	-1.4952778661	-2.8814754911	 0.2809265305	 0.096442
H	-2.5671522588	-1.5717307876	 0.8206604541	 0.10312
H	-1.6927985445	-0.5524891375	-1.3240349461	 0.086906
195.8264	199.4942	235.0137	274.2165	423.5503	453.2015	592.23	666.3711	716.4609	749.3133	827.5439	863.2864	874.9399	910.2146	932.7836	961.9377	980.8991	1009.9673	1052.6134	1072.6558	1081.7199	1092.4141	1133.2744	1156.7643	1184.0858	1212.0541	1223.8503	1232.8206	1278.3544	1306.1467	1335.7024	1375.9691	1414.9276	1460.2492	1487.4916	1493.2699	1499.4707	1527.0918	3001.4418	3020.9103	3040.3242	3049.1685	3079.5719	3092.293	3093.9359	3121.8409	3168.2251	3183.857
CC12C3CC1OCC23	C[C@@]12[C@H]3C[C@@H]1OC[C@@H]23	
InChI=1S/C7H10O/c1-7-4-2-6(7)8-3-5(4)7/h4-6H,2-3H2,1H3	InChI=1S/C7H10O/c1-7-4-2-6(7)8-3-5(4)7/h4-6H,2-3H2,1H3/t4-,5+,6-,7-/m0/s1
