18
gdb 64979	3.5649	1.03718	0.8619	5.7646	75.73	-0.2468	-0.029	0.2179	1339.8091	0.146346	-439.127791	-439.11855	-439.117606	-439.162491	33.53	
C	 0.0110008088	 1.4425164365	-0.1788833319	-0.51131
C	 0.1151104665	-0.069309502	-0.1089496853	 0.203187
C	 1.5043724124	-0.6962255765	-0.1122798659	-0.273111
C	 0.7072490889	-0.6927933865	 1.1494991999	-0.273113
C	-0.9316597511	-0.9321757663	-0.7678001303	 0.402607
O	-0.8931545265	-2.1389242655	-0.7399962933	-0.32988
N	-1.9556858112	-0.222160907	-1.4168305188	-0.374801
C	-3.0493845697	-0.7402120354	-2.1068733017	 0.165513
O	-3.3175781674	-1.8964698484	-2.273266503	-0.249881
H	 0.8499325039	 1.9029635903	 0.349633779	 0.13085
H	 0.0461846697	 1.8124776831	-1.2111051094	 0.126041
H	-0.9050083349	 1.8166165631	 0.2949606822	 0.12605
H	 1.6017524483	-1.6394281021	-0.6357665249	 0.145613
H	 2.3440126729	-0.0162810823	-0.2054061697	 0.115073
H	 0.9853612952	-0.0105580885	 1.9452357739	 0.115074
H	 0.2740303984	-1.6337507806	 1.465872707	 0.14562
H	-1.907617719	 0.7843760982	-1.3892946124	 0.254694
H	-3.6700131949	 0.0916444498	-2.5014959956	 0.081776
48.231	63.5291	161.9401	214.7215	261.2773	267.9682	301.9803	319.6554	353.7926	401.7211	529.9797	617.841	637.5124	762.811	793.7959	844.6559	848.1733	937.1152	960.9421	963.7104	1028.3989	1044.4543	1078.978	1090.0823	1093.6398	1120.1881	1169.6448	1204.7315	1316.923	1324.4903	1417.3342	1449.1244	1450.7379	1482.8613	1500.6716	1502.2182	1515.9365	1791.869	1867.6091	2910.6408	3016.4397	3073.7995	3106.323	3139.4648	3141.7626	3231.4058	3244.2798	3633.0753
CC1(CC1)C(=O)NC=O	CC1(CC1)C(=O)NC=O	
InChI=1S/C6H9NO2/c1-6(2-3-6)5(9)7-4-8/h4H,2-3H2,1H3,(H,7,8,9)	InChI=1S/C6H9NO2/c1-6(2-3-6)5(9)7-4-8/h4H,2-3H2,1H3,(H,7,8,9)
