16
gdb 69124	2.89354	1.4665	1.1293	4.1519	71.06	-0.2391	-0.0907	0.1484	1075.5291	0.123817	-437.901408	-437.893468	-437.892523	-437.933929	30.025	
C	-0.0514871178	 1.5161138222	-0.0078667361	-0.464835
C	-0.0303088351	 0.0104341241	 0.0536435721	 0.309116
C	-1.2296020465	-0.7775342186	-0.4640186175	-0.402506
C	-1.1588323515	-2.1297804852	 0.2437732725	 0.279179
O	-1.8054372582	-3.112842019	 0.0120208017	-0.269263
C	-0.1311857464	-2.0007723976	 1.4179030824	 0.325819
O	-0.0477232798	-2.7758249392	 2.3336969237	-0.293909
C	 0.618359869	-0.7348599373	 1.1965572985	-0.183487
N	 1.2621942023	-0.631665645	-0.1382531577	-0.349478
H	 0.8770309593	 1.9281557284	 0.3940541989	 0.140141
H	-0.1526328025	 1.8560804205	-1.0444230112	 0.13166
H	-0.8938688815	 1.9174215512	 0.5643984933	 0.127407
H	-2.1776386088	-0.2950850084	-0.1936117342	 0.145239
H	-1.2277776993	-0.8927567185	-1.5531792787	 0.141325
H	 1.1390865576	-0.2546543895	 2.0170595749	 0.120062
H	 1.1969158692	-1.5066541879	-0.6586408626	 0.24353
83.6509	137.3601	216.6119	274.7769	311.4822	356.2964	378.626	433.3558	520.5846	533.9245	633.58	683.6973	698.8715	749.2367	828.1169	921.3473	938.4487	1003.6588	1031.1771	1059.163	1083.176	1112.2804	1140.2041	1181.8077	1196.2461	1250.0544	1279.7946	1330.4894	1397.8987	1427.5765	1454.3	1485.814	1494.63	1833.8693	1858.4949	3034.6946	3038.6985	3081.501	3102.1527	3129.5339	3185.1247	3457.229
CC12CC(=O)C(=O)C1N2	C[C@]12CC(=O)C(=O)[C@H]1N2	
InChI=1S/C6H7NO2/c1-6-2-3(8)4(9)5(6)7-6/h5,7H,2H2,1H3	InChI=1S/C6H7NO2/c1-6-2-3(8)4(9)5(6)7-6/h5,7H,2H2,1H3/t5-,6+/m1/s1
