17
gdb 52172	3.80301	0.889	0.75896	2.2481	72.81	-0.264	0.0144	0.2783	1455.6172	0.135467	-455.135757	-455.126985	-455.126041	-455.170652	31.044	
N	-0.3955445989	 1.0945350509	 0.4652883313	-0.436816
C	-0.4039550401	-0.1630577094	 0.3884004596	 0.134533
O	-0.8916138758	-0.7588523384	-0.7263595184	-0.184564
C	-0.973804775	-2.1759837396	-0.7178367907	-0.107897
C	-2.2681033381	-2.666185908	-0.1023666965	 0.121373
C	-2.4205168619	-4.1902092234	 0.0858792228	-0.385941
C	-2.4300161663	-3.8482694934	 1.5613665603	 0.444053
N	-2.5324831706	-4.5062798078	 2.620736574	-0.532772
O	-2.2850394926	-2.4864489528	 1.3554102529	-0.266023
H	 0.0189441771	 1.3848240494	 1.3483813159	 0.231739
H	-0.0417106966	-0.8738316361	 1.1408330788	 0.097322
H	-0.9305373617	-2.4900078546	-1.7656617269	 0.132068
H	-0.1182658244	-2.618862334	-0.1897113446	 0.115509
H	-3.1246032186	-2.1528460652	-0.5465353497	 0.11662
H	-3.3433692137	-4.6316655196	-0.291471495	 0.148021
H	-1.5697456609	-4.7957266692	-0.2351012723	 0.14
H	-2.5006549619	-3.9016594088	 3.4432354785	 0.232772
55.5265	72.6866	92.0302	121.4665	214.7858	346.7034	354.5961	430.9651	485.1178	501.5129	646.2478	721.524	817.0404	828.846	867.7663	886.7924	943.9449	971.7726	1005.9867	1024.1316	1036.0198	1062.5939	1090.0245	1144.6875	1170.7225	1218.5299	1242.9632	1253.0832	1308.3912	1322.7787	1376.8072	1411.1195	1427.9	1465.0137	1485.4252	1748.0245	1832.3312	3017.6261	3050.3542	3083.4604	3084.3833	3096.6138	3143.6865	3480.4608	3520.5214
N=COCC1CC(=N)O1	[NH][CH]OC[C@H]1C[C]([NH])O1	
InChI=1S/C5H8N2O2/c6-3-8-2-4-1-5(7)9-4/h3-4,6-7H,1-2H2	InChI=1S/C5H8N2O2/c6-3-8-2-4-1-5(7)9-4/h3-4,6-7H,1-2H2/t4-/m1/s1
