15
gdb 30560	6.50094	0.78922	0.72906	2.5716	72.88	-0.2386	-0.0057	0.2329	1512.6032	0.112193	-453.957821	-453.949582	-453.948638	-453.992116	28.638	
C	-0.0592845727	 1.3854170281	 0.0584895453	-0.318774
N	 0.5017306436	 0.0608821495	-0.1169341854	-0.184971
C	 0.6343908968	-0.6539854082	 0.8992775019	 0.108448
O	 1.1418335139	-1.9270197454	 0.7577895893	-0.228752
C	 1.3980001224	-2.6251225846	 1.873536259	 0.388414
C	 1.1324060943	-3.8996108305	 2.2412287182	-0.206922
N	 1.7267178473	-4.1318050978	 3.4785082686	-0.247912
C	 2.2954872578	-3.0155941809	 3.7826264231	 0.081885
O	 2.1505073584	-2.033766375	 2.8488909129	-0.179268
H	 0.6508747788	 2.1296478277	-0.3169906203	 0.138889
H	-0.9672839609	 1.4753144877	-0.5471394035	 0.138719
H	-0.3085678377	 1.6334088595	 1.1019136596	 0.105322
H	 0.3837197513	-0.3915530745	 1.9333525934	 0.109298
H	 0.5706647015	-4.6511091683	 1.7131681214	 0.138689
H	 2.8544438252	-2.7575404274	 4.6676482865	 0.156933
37.6411	76.4219	112.6155	209.0069	284.9646	291.2766	385.1167	409.754	522.2368	666.4249	686.2393	788.265	811.592	838.4656	931.103	963.5826	986.8436	1053.8887	1110.2659	1118.3489	1130.6103	1141.3915	1179.9194	1250.0432	1286.8763	1358.6301	1396.3677	1449.2818	1481.1421	1504.0733	1558.1629	1659.2797	1793.0669	2982.5633	3060.6146	3072.5221	3092.2965	3281.166	3284.94
CN=COC1=CN=CO1	CN=COc1cnco1	
InChI=1S/C5H6N2O2/c1-6-3-8-5-2-7-4-9-5/h2-4H,1H3	InChI=1S/C5H6N2O2/c1-6-3-8-5-2-7-4-9-5/h2-4H,1H3
