13
gdb 21890	5.67225	1.60779	1.25271	2.3207	65.61	-0.2022	-0.0526	0.1497	888.9849	0.097983	-394.796642	-394.790152	-394.789208	-394.82716	25.192	
O	-0.0105830741	 1.3304085317	 0.0100065626	-0.417916
C	 0.0305699513	-0.0213612266	 0.0024440757	 0.436388
N	 1.1747596166	-0.6179671748	-0.0076607467	-0.3033
N	 1.1451474462	-1.9799193179	-0.0148132705	-0.322427
C	 0.0265499025	-2.8095919061	-0.0126980554	 0.387902
N	 0.0336858233	-4.0960104133	-0.0198116176	-0.564603
C	-1.2240718525	-2.0605578599	-0.0010882877	-0.072549
C	-1.2317958362	-0.7141592088	 0.0062828797	-0.16961
H	 0.9048011175	 1.6420612083	 0.0062071685	 0.304599
H	 2.0620078547	-2.3984085337	-0.0226940732	 0.261708
H	 0.9851502246	-4.4681625799	-0.0275809057	 0.195273
H	-2.1311141255	-2.6519778628	 0.001138568	 0.135919
H	-2.1462691885	-0.1332709964	 0.0149421123	 0.128614
105.0823	316.5616	347.9095	357.4769	464.2797	465.2688	493.3477	516.7699	592.9953	640.1869	747.0189	789.0561	808.0284	829.7487	868.0434	994.8034	1020.5473	1087.2444	1161.6175	1179.3365	1266.6525	1331.1175	1388.4203	1455.4609	1490.788	1615.2065	1668.3994	1716.4446	3204.9434	3226.1272	3452.4519	3631.8927	3776.2979
OC1=NNC(=N)C=C1	OC1=NNC(=CC1)[NH]	
InChI=1S/C4H5N3O/c5-3-1-2-4(8)7-6-3/h1-2H,(H2,5,6)(H,7,8)	InChI=1S/C4H6N3O/c5-3-1-2-4(8)7-6-3/h1,5-6H,2H2,(H,7,8)
