17
gdb 77196	3.6906	1.04736	0.8802	2.0178	81.99	-0.2559	0.0014	0.2574	1304.2267	0.132596	-384.599189	-384.589826	-384.588882	-384.633843	34.337	
C	-0.3097652844	 1.3582214858	-0.1541126597	-0.421311
C	-0.094171767	-0.1178341134	 0.1203177989	-0.060767
C	 1.1741164281	-0.7961500915	-0.4704795527	-0.030964
O	 1.5431121091	-1.322475669	 0.8313967841	-0.294593
C	 0.4855184858	-0.5821141618	 1.4952065779	-0.064397
C	 0.9872608982	 0.4464506957	 2.3928046909	 0.356173
C	 1.3938944034	 1.2972430189	 3.1388284057	-0.468565
C	 0.9889316064	-1.8184055242	-1.483236078	 0.308323
C	 0.8196292461	-2.6531064325	-2.3316141424	-0.438037
H	 0.5737991214	 1.9463302896	 0.1089640977	 0.133586
H	-0.5305032896	 1.5191847494	-1.2144746818	 0.124821
H	-1.1530133673	 1.7452601681	 0.4263604156	 0.127354
H	-0.9886317613	-0.694352091	-0.1230598572	 0.101945
H	 1.9212253096	-0.0650001499	-0.8101378711	 0.106596
H	-0.1683756054	-1.2654593794	 2.0497358541	 0.11246
H	 1.757478506	 2.0416065401	 3.8037241182	 0.204317
H	 0.6776090809	-3.3943712751	-3.0789688301	 0.203059
33.7854	114.2817	149.9025	181.4562	217.2367	236.435	296.0212	369.0056	453.5794	471.9587	582.203	605.6161	619.4181	629.0175	671.8253	674.5405	732.6193	808.4909	883.0275	950.9413	973.569	1005.6067	1052.3016	1101.7644	1117.1575	1142.1041	1235.5017	1245.8244	1285.3376	1336.167	1369.3023	1390.7013	1415.9229	1492.247	1495.1272	2230.9719	2235.2976	3003.0307	3032.8042	3039.1435	3090.8266	3106.0997	3120.8235	3501.5165	3502.2048
CC1C(OC1C#C)C#C	C[C@H]1[C@@H](O[C@H]1C#C)C#C	
InChI=1S/C8H8O/c1-4-7-6(3)8(5-2)9-7/h1-2,6-8H,3H3	InChI=1S/C8H8O/c1-4-7-6(3)8(5-2)9-7/h1-2,6-8H,3H3/t7-,8-/m0/s1
