15
gdb 55575	2.57364	1.12122	0.79068	5.8494	69.52	-0.2494	-0.0097	0.2397	1357.1465	0.110601	-453.976624	-453.967073	-453.966129	-454.012488	33.693	
N	-0.3917181106	 0.4901465734	-1.3937063484	-0.566782
C	-0.2193666475	-0.0491766517	-0.1292206814	 0.469071
O	 0.3155352539	 0.5289213276	 0.7805079637	-0.329229
N	-0.8124478337	-1.327108657	-0.034620934	-0.414441
C	-0.6885429608	-2.2157480396	 1.0175213132	 0.44123
O	 0.028799034	-2.0829830164	 1.9739507272	-0.312201
C	-1.5771808272	-3.4797770669	 0.8887324431	-0.485183
C	-2.3446677067	-3.6328756092	-0.3370768552	 0.278976
C	-2.9673740351	-3.7276646154	-1.3622390654	-0.4219
H	 0.1354405875	 1.3386024472	-1.5347925779	 0.268921
H	-0.4125695725	-0.1303636508	-2.1886209134	 0.255416
H	-1.4480590802	-1.6059744265	-0.7697480978	 0.259394
H	-0.9086379367	-4.3341104328	 1.0387216836	 0.172545
H	-2.2445233671	-3.4640117476	 1.7583581101	 0.174969
H	-3.5296338875	-3.8366286345	-2.2570288976	 0.209211
34.2447	54.2141	111.2674	112.9479	203.2327	327.5311	330.3159	402.4906	413.3997	499.7287	537.5256	552.5676	567.9081	628.5832	638.6314	660.0762	690.1481	773.9977	929.1918	944.2383	979.9168	997.2669	1111.8735	1202.2602	1218.4439	1298.9277	1324.231	1440.9743	1528.2057	1627.8499	1812.3032	1876.557	2230.9682	3048.8606	3085.6415	3500.6768	3574.5687	3582.554	3693.9885
NC(=O)NC(=O)CC#C	NC(=O)NC(=O)CC#C	
InChI=1S/C5H6N2O2/c1-2-3-4(8)7-5(6)9/h1H,3H2,(H3,6,7,8,9)	InChI=1S/C5H6N2O2/c1-2-3-4(8)7-5(6)9/h1H,3H2,(H3,6,7,8,9)
