19
gdb 30114	3.69469	1.11253	1.07801	2.184	83.38	-0.2004	0.0344	0.2348	1207.8114	0.161003	-382.072417	-382.064104	-382.06316	-382.106267	31.675	
C	-0.4256966136	 1.4085000786	-0.0477846596	-0.312509
N	-0.1091987918	-0.0099290108	 0.0486116052	-0.079184
C	 1.2424277791	-0.403832939	-0.3143462785	-0.267112
C	 0.8240543533	-0.4407787569	 1.1185557174	-0.106579
C	 1.3739124113	 0.4796796694	 2.1356878479	 0.3005
C	 0.9279349675	 0.7324246857	 3.4186701435	-0.229865
C	 1.7949956976	 1.6923446787	 4.0048705695	-0.136141
C	 2.7537891866	 2.0021703978	 3.0681956202	-0.099478
N	 2.4873952481	 1.2685089503	 1.9410126876	-0.288735
H	 0.42035513	 2.0775961183	 0.1731573744	 0.102949
H	-0.7771051905	 1.6184657104	-1.0629795805	 0.119653
H	-1.2330825184	 1.6446338387	 0.6516812685	 0.128254
H	 1.3459351412	-1.3269180945	-0.8793976766	 0.11711
H	 1.9292316649	 0.3836345264	-0.6282466758	 0.091639
H	 0.536620188	-1.4077253305	 1.525306946	 0.100764
H	 0.0640212446	 0.2749783291	 3.8771216287	 0.093995
H	 1.7239953424	 2.1080076377	 4.9982014317	 0.093652
H	 3.5970541079	 2.672785903	 3.1077542329	 0.115715
H	 3.0623655319	 1.2456786376	 1.1174694875	 0.255373
26.0625	109.4971	181.6648	218.9627	277.6842	366.9301	432.9009	480.815	508.8633	622.9796	636.6811	704.8348	720.0232	763.942	808.2872	853.1014	859.7467	895.5489	952.1598	989.0555	1033.6894	1058.4362	1085.9965	1124.1096	1132.222	1136.2061	1149.118	1167.0193	1207.2006	1255.5153	1283.2752	1332.0116	1374.0317	1442.58	1449.6539	1459.4641	1488.1602	1491.7796	1494.6321	1511.3393	1608.7371	2983.9255	3072.1846	3075.3527	3107.9868	3125.7921	3162.5636	3240.1596	3252.653	3270.9289	3685.6409
CN1CC1C1=CC=CN1	CN1C[C@H]1c1ccc[nH]1	
InChI=1S/C7H10N2/c1-9-5-7(9)6-3-2-4-8-6/h2-4,7-8H,5H2,1H3	InChI=1S/C7H10N2/c1-9-5-7(9)6-3-2-4-8-6/h2-4,7-8H,5H2,1H3/t7-,9?/m0/s1
