17
gdb 124885	3.69672	1.26219	1.03595	1.8533	73.91	-0.2432	-0.0004	0.2429	1146.4591	0.13849	-414.170168	-414.162294	-414.16135	-414.203073	29.547	
C	-0.3625969388	 1.284848784	-0.846925758	-0.470993
C	-0.0499644773	 0.0295163207	-0.0592790811	 0.192643
C	 1.1233973597	-0.8004422994	-0.4719403655	-0.26371
N	 1.1687046639	-0.0229056053	 0.774372287	-0.342713
C	-1.2142395778	-0.6453435193	 0.5664607311	 0.316188
N	-2.452938958	-0.5463598185	 0.0750334558	-0.303566
N	-3.1699069345	-1.2942568229	 0.9055935136	-0.071602
N	-2.514745641	-1.8723106101	 1.9025200647	-0.196848
C	-1.2592352738	-1.4708733159	 1.7076662992	-0.136767
H	 0.5458369409	 1.6883673026	-1.305440967	 0.106061
H	-1.0870734058	 1.0755085265	-1.6384753886	 0.145964
H	-0.7962354551	 2.0536183038	-0.198869112	 0.128918
H	 1.0971628752	-1.878046644	-0.3376865231	 0.121927
H	 1.7032357533	-0.4614544881	-1.3269811279	 0.114163
H	 1.7115978447	 0.8263205339	 0.6385142138	 0.23194
H	-4.1640751337	-1.4048800697	 0.7907759415	 0.290854
H	-0.4613873919	-1.7620810684	 2.3696457566	 0.13754
48.1797	160.2012	189.7855	221.6788	317.8064	350.2383	432.6365	487.3639	508.6198	553.1035	721.7662	744.2014	830.3109	842.409	900.6888	934.1489	972.9776	992.9812	997.4084	1024.0732	1055.6364	1116.8073	1136.874	1150.8596	1190.6505	1231.6147	1264.3454	1291.2524	1332.2141	1387.5712	1404.7155	1418.4534	1480.4249	1490.1047	1506.8156	1509.7664	1572.8266	3035.8865	3103.0415	3105.6304	3118.5681	3193.8426	3289.3487	3500.6753	3671.605
CC1(CN1)C1=NNN=C1	C[C@]1(CN1)c1n[nH]nc1	
InChI=1S/C5H8N4/c1-5(3-6-5)4-2-7-9-8-4/h2,6H,3H2,1H3,(H,7,8,9)	InChI=1S/C5H8N4/c1-5(3-6-5)4-2-7-9-8-4/h2,6H,3H2,1H3,(H,7,8,9)/t5-/m0/s1
