21
gdb 74847	2.20657	1.72123	1.33372	1.9798	83.08	-0.2342	0.0082	0.2424	1086.8114	0.181106	-387.092746	-387.083656	-387.082712	-387.12574	35.426	
C	 0.0696289991	 1.4937061191	-0.0026122438	-0.496971
C	-0.0218119234	-0.0004397212	-0.0241074799	 0.297512
C	-0.1222964775	-0.7693709498	-1.1158698352	-0.213067
C	-0.0696593991	-2.2121227392	-0.7552052272	-0.003564
O	 1.1753156467	-2.5926622221	-0.1085689387	-0.270462
C	 0.0505926175	-2.2721377746	 0.7078741969	 0.019899
C	 0.0305506439	-0.8409873278	 1.2629733193	 0.159125
C	 1.2877677895	-0.5503162731	 2.1009878742	-0.427283
C	-1.2436707793	-0.6388094651	 2.1034778202	-0.432991
H	 1.0397956363	 1.8292949276	 0.3842597474	 0.134444
H	-0.0508186865	 1.9095610364	-1.0064321911	 0.125483
H	-0.6958827563	 1.9394524418	 0.6439843255	 0.126163
H	-0.1828309754	-0.4058959962	-2.1352231673	 0.093164
H	-0.5221392513	-2.9896180178	-1.3628151791	 0.093882
H	-0.3372772843	-3.0885200005	 1.3144301595	 0.085276
H	 2.1884359845	-0.7550745313	 1.5172801477	 0.136683
H	 1.3134202461	 0.492394071	 2.4334783165	 0.110151
H	 1.307718313	-1.1824325407	 2.9953328464	 0.11244
H	-1.2302633186	-1.2918708776	 2.9836126394	 0.113803
H	-1.3249256629	 0.392705742	 2.4598124982	 0.117137
H	-2.1424952921	-0.8679151309	 1.5222055213	 0.119176
117.5862	177.0538	200.9008	226.4259	237.5031	253.9213	271.1913	314.8259	405.998	468.7338	483.4177	573.8843	621.7504	675.0071	739.4887	810.6958	856.7397	862.2601	889.5678	948.3972	952.8742	980.9303	1004.3039	1033.1548	1036.5822	1064.7425	1110.521	1158.0809	1181.2076	1229.4774	1241.9683	1267.1338	1299.2011	1347.9802	1391.2536	1403.2912	1411.5274	1423.8533	1474.3319	1485.2576	1486.6898	1492.4489	1502.6412	1510.2139	1691.5191	3022.779	3027.2352	3035.1034	3070.2941	3093.6809	3097.8886	3106.3387	3112.3553	3125.0095	3127.22	3164.1696	3197.7732
CC1=CC2OC2C1(C)C	CC1=C[C@H]2O[C@H]2C1(C)C	
InChI=1S/C8H12O/c1-5-4-6-7(9-6)8(5,2)3/h4,6-7H,1-3H3	InChI=1S/C8H12O/c1-5-4-6-7(9-6)8(5,2)3/h4,6-7H,1-3H3/t6-,7-/m1/s1
