21
gdb 10768	2.81817	1.62716	1.4842	2.6495	74.42	-0.2341	0.077	0.311	1011.6347	0.187005	-366.230217	-366.220706	-366.219762	-366.264174	35.04	
C	-0.0064512224	 1.3712006644	 0.1564595119	-0.244965
O	 0.1344990764	-0.0260977035	 0.0329802282	-0.284329
C	 0.7224435487	-0.5425786228	-1.1680255339	 0.325921
C	-0.1386677834	-0.20259007	-2.3960306647	-0.42079
C	 2.164725658	-0.0443818812	-1.3467976925	-0.418768
C	 0.7363257826	-2.0595779311	-0.9740974422	 0.018838
C	 0.9814324307	-2.6709729988	 0.3515557524	-0.248858
N	-0.3586360157	-2.7353283581	-0.2698256468	-0.338653
H	 0.9580020871	 1.8956342798	 0.126540749	 0.110386
H	-0.660480584	 1.7999877002	-0.6145426652	 0.110624
H	-0.4642762661	 1.5492458207	 1.1328874807	 0.129171
H	-0.1425063115	 0.8701757431	-2.6094335794	 0.112114
H	 0.2539772094	-0.7109234419	-3.2817816567	 0.119197
H	-1.169357268	-0.534042336	-2.2418195467	 0.128319
H	 2.7415124044	-0.2166587861	-0.4340233954	 0.124941
H	 2.6496318481	-0.5853519866	-2.1652953309	 0.11935
H	 2.2037891826	 1.0212334047	-1.5921558848	 0.112476
H	 1.081400836	-2.5906146816	-1.8596133812	 0.082124
H	 1.5017402757	-3.6220333966	 0.4233110528	 0.108759
H	 1.1160158091	-2.0003288419	 1.1937518263	 0.117815
H	-0.9316956777	-2.0140840865	 0.1651487391	 0.236327
59.9354	93.8411	187.133	201.6059	207.4658	263.2464	280.2713	318.9498	346.5813	387.2902	435.3308	510.6134	562.0802	696.2414	815.9451	867.7678	907.4105	920.4588	946.087	972.504	998.8281	1028.5944	1102.9028	1124.1996	1153.2512	1175.0533	1184.7967	1192.5154	1205.791	1238.4908	1268.6457	1287.1861	1314.3925	1393.0443	1408.793	1419.6086	1477.6649	1478.4098	1482.3169	1495.3622	1501.593	1505.3881	1512.6158	1516.441	3001.1957	3038.2307	3044.536	3054.665	3106.5929	3109.6267	3111.9957	3115.0783	3119.342	3120.0837	3123.9505	3206.9514	3486.9275
COC(C)(C)C1CN1	COC(C)(C)[C@H]1CN1	
InChI=1S/C6H13NO/c1-6(2,8-3)5-4-7-5/h5,7H,4H2,1-3H3	InChI=1S/C6H13NO/c1-6(2,8-3)5-4-7-5/h5,7H,4H2,1-3H3/t5-/m1/s1
