19
gdb 77772	2.3593	1.53209	1.3072	3.7313	82.01	-0.2341	-0.0501	0.184	1088.9661	0.158966	-385.918431	-385.909946	-385.909002	-385.951072	32.802	
C	-0.1042564134	 1.5677365196	 0.0266386918	-0.424326
C	 0.0551913242	 0.0652304489	 0.0783749572	-0.036581
C	 1.3583403746	-0.6850015922	-0.201458216	-0.231082
C	 2.6620365697	 0.0738651749	-0.0641056612	 0.39232
O	 3.4778607862	 0.2689536048	-0.936067443	-0.337771
C	 2.7481640667	 0.5041076973	 1.3617141338	-0.206143
C	 1.6864420113	 0.0453031782	 2.0382026473	-0.120796
C	 0.7402743846	-0.7370463132	 1.1784769149	 0.27404
C	 0.0759835131	-1.9635152337	 1.7618920691	-0.485376
H	 0.7324621843	 2.0951218436	 0.4887044573	 0.12943
H	-0.1795480943	 1.9048588239	-1.0124353306	 0.129987
H	-1.0215106113	 1.8727932406	 0.5422241785	 0.118494
H	-0.8052613864	-0.4607024302	-0.3336099347	 0.094322
H	 1.3298990333	-1.51874122	-0.892776332	 0.104099
H	 3.5534060727	 1.1217624043	 1.7378845252	 0.115833
H	 1.4817049449	 0.2245456396	 3.0891668551	 0.112417
H	-0.5657097807	-1.6986857124	 2.6105216391	 0.121488
H	-0.5497303344	-2.4632203272	 1.0164556241	 0.12275
H	 0.8177025952	-2.6870460868	 2.117253614	 0.126895
113.5983	189.9794	200.584	212.3649	228.209	278.0449	319.5124	431.3591	472.4991	512.4052	570.6295	651.4082	714.5806	773.326	778.1972	838.6536	863.2229	893.3864	955.0482	969.3884	985.5372	1025.8862	1070.2812	1088.6621	1100.2719	1125.7545	1147.1666	1175.7211	1223.1893	1290.2811	1332.7778	1363.856	1411.4184	1417.4551	1436.6597	1488.009	1496.3785	1498.3985	1500.5287	1634.477	1808.0123	3025.9339	3037.4552	3086.9447	3094.628	3104.8527	3112.0657	3133.6301	3179.9692	3188.4041	3227.0635
CC1C2C(=O)C=CC12C	C[C@H]1[C@H]2C(=O)C=C[C@@]12C	
InChI=1S/C8H10O/c1-5-7-6(9)3-4-8(5,7)2/h3-5,7H,1-2H3	InChI=1S/C8H10O/c1-5-7-6(9)3-4-8(5,7)2/h3-5,7H,1-2H3/t5-,7-,8-/m0/s1
