14
gdb 8246	6.07433	1.13465	1.0147	3.6129	63.78	-0.2799	0.0096	0.2895	1093.4651	0.10746	-378.735432	-378.728057	-378.727113	-378.767855	26.286	
N	 0.0359565131	 1.2332589651	 0.6990406462	-0.530187
C	-0.001453588	 0.1238775305	 0.1236115138	 0.445765
C	-1.0842134728	-0.8931249237	-0.1747807248	-0.388709
C	 0.0704257955	-1.687431488	-0.8217640881	 0.134321
C	-0.0077887081	-1.9117429345	-2.3304776997	-0.355667
C	 1.2267291099	-2.465927504	-2.8828513368	 0.267809
N	 2.2011745849	-2.9155304412	-3.3096227962	-0.292083
O	 1.0029968154	-0.6173561771	-0.4791729306	-0.254595
H	 0.9794652522	 1.6237346762	 0.7059752242	 0.237019
H	-1.5453475088	-1.3469056689	 0.7030435813	 0.149259
H	-1.8626930508	-0.5450629272	-0.8569996916	 0.141681
H	 0.3522739782	-2.6077424583	-0.3041810172	 0.119744
H	-0.8325071277	-2.6013227842	-2.5470012597	 0.162377
H	-0.232556733	-0.9634446646	-2.8310514807	 0.163266
62.8504	97.8448	149.6809	306.2878	383.3226	394.9072	458.0725	495.4728	544.662	720.5793	827.9378	866.6084	876.8939	926.9801	966.8035	992.1078	1018.4396	1043.9382	1089.9502	1145.0968	1215.9637	1239.8611	1246.8052	1291.8167	1351.8102	1396.7354	1451.5442	1466.1578	1836.9521	2369.2055	3043.4992	3079.0199	3087.0263	3095.5396	3145.1582	3484.1088
N=C1CC(CC#N)O1	[NH][C]1C[C@@H](CC#N)O1	
InChI=1S/C5H6N2O/c6-2-1-4-3-5(7)8-4/h4,7H,1,3H2	InChI=1S/C5H6N2O/c6-2-1-4-3-5(7)8-4/h4,7H,1,3H2/t4-/m1/s1
