18
gdb 62095	3.95058	0.80256	0.70253	2.9301	69.49	-0.2474	-0.0385	0.2089	1545.2882	0.143982	-476.253485	-476.243128	-476.242183	-476.290497	35.899	
C	-1.3792889604	 0.9763406971	-0.7552877741	-0.409242
C	-0.2253969217	 0.1528029847	-0.1842640992	 0.030385
O	-0.61620818	-1.1482606927	 0.2577994587	-0.265944
C	-1.2868896376	-1.1993221955	 1.495774077	-0.166124
C	-2.8016706507	-1.0689083826	 1.3651431948	 0.136743
O	-3.525444103	-0.7768199018	 2.2791552087	-0.229229
C	 0.8973275245	 0.0122916182	-1.2287456602	 0.374263
N	 1.3663669212	-1.2458852663	-1.4032009665	-0.514553
O	 1.3169954719	 0.9912666226	-1.8160198969	-0.372591
H	-0.9749819508	 1.8996671658	-1.1743005466	 0.158762
H	-1.8853015353	 0.4227522988	-1.5517318176	 0.128005
H	-2.1108333153	 1.2328702517	 0.0166683517	 0.123607
H	 0.2224065058	 0.6955621366	 0.6629093452	 0.108253
H	-1.0887147247	-2.1894699061	 1.9290418684	 0.140016
H	-0.9170704098	-0.4489105871	 2.2078890525	 0.130147
H	-3.1854100052	-1.3022243963	 0.3464800085	 0.092809
H	 0.9443018288	-2.0135048284	-0.9108022144	 0.271866
H	 2.0912660124	-1.4024675689	-2.0829111002	 0.262827
35.9785	48.5169	52.5673	143.2215	215.8912	247.063	272.5194	289.4541	296.1221	364.2587	418.4837	472.4253	533.2005	587.3519	628.6211	714.6742	738.0216	819.4582	883.6399	1030.4232	1052.6579	1084.9958	1101.4734	1117.5955	1123.3341	1158.7034	1272.5453	1321.0152	1345.2908	1364.2956	1383.6896	1398.4683	1403.4767	1452.5393	1492.4495	1496.7469	1592.2256	1801.874	1839.602	2888.0226	2988.4524	3007.7466	3046.1707	3055.4944	3117.3017	3145.5253	3607.6354	3749.3844
CC(OCC=O)C(N)=O	C[C@@H](OCC=O)C(=O)N	
InChI=1S/C5H9NO3/c1-4(5(6)8)9-3-2-7/h2,4H,3H2,1H3,(H2,6,8)	InChI=1S/C5H9NO3/c1-4(5(6)8)9-3-2-7/h2,4H,3H2,1H3,(H2,6,8)/t4-/m1/s1
