16
gdb 91841	3.42606	1.28483	1.0854	3.4811	70.24	-0.2692	0.0059	0.2751	1117.3629	0.123528	-437.879419	-437.87147	-437.870526	-437.911968	29.919	
C	 0.2242755143	 1.5546944228	 0.021024042	-0.409529
C	 0.1030965975	 0.0532167681	-0.016369175	 0.213555
O	 0.8392131615	-0.488806803	-1.1130914718	-0.267194
C	 1.2210489589	-1.7791115112	-0.7291233337	 0.028591
C	 2.4586163837	-1.8950672169	 0.1162909622	-0.349254
C	 1.0896865542	-1.8156543233	 0.7783322831	 0.252418
O	 0.6859714842	-0.5242746821	 1.1553695657	-0.295064
C	 0.5256677091	-2.9114049746	 1.5146016106	 0.242179
N	 0.0856708639	-3.8058811364	 2.1011624828	-0.34309
H	 1.2751211558	 1.8409504625	 0.1032448693	 0.136701
H	-0.1953265117	 1.9808060507	-0.8933959413	 0.139263
H	-0.3262550202	 1.9488554926	 0.8784707468	 0.140884
H	-0.9465892832	-0.2754147608	-0.0917993922	 0.089177
H	 0.8900639192	-2.5882312212	-1.3703347188	 0.133471
H	 2.9652219695	-2.8539396818	 0.1364710341	 0.143564
H	 3.0802480834	-1.0148733154	 0.2279787361	 0.144328
97.8008	149.1695	171.4749	210.7505	319.2479	324.7762	440.9844	484.0923	510.7364	573.7903	603.8188	688.1146	783.1541	823.7843	862.119	889.8286	909.3486	971.5722	1034.8327	1037.7958	1078.7645	1111.2609	1121.675	1145.9749	1163.3511	1225.4314	1265.8265	1344.5317	1387.5034	1396.1231	1434.814	1452.1775	1483.1744	1484.936	2353.6915	2973.314	3058.9606	3140.2877	3141.5009	3144.7448	3181.3997	3245.6851
CC1OC2CC2(O1)C#N	C[C@H]1O[C@H]2C[C@]2(O1)C#N	
InChI=1S/C6H7NO2/c1-4-8-5-2-6(5,3-7)9-4/h4-5H,2H2,1H3	InChI=1S/C6H7NO2/c1-4-8-5-2-6(5,3-7)9-4/h4-5H,2H2,1H3/t4-,5-,6-/m0/s1
