19
gdb 18249	4.2111	1.57611	1.30443	1.4465	76.14	-0.2295	0.0143	0.2438	995.3698	0.16712	-327.909466	-327.901987	-327.901042	-327.941233	29.052	
C	-0.0385700028	 1.5688714876	-0.0806187959	-0.387148
C	 0.0617858529	 0.0413184591	-0.0455186441	-0.169646
C	 0.7132761012	-0.5170329645	 1.2345786534	-0.021445
C	-0.0567064507	-0.2508969383	 2.5204776708	-0.081974
C	-0.3063779135	-1.3635972092	 3.2143802842	-0.057613
C	 0.2078790571	-2.5610522811	 2.4869506824	-0.087426
N	-0.4673437522	-2.7514510178	 1.1673037799	-0.330402
C	 0.8314125703	-2.0440672396	 1.2411291114	-0.066949
H	 0.9460243645	 2.0373542546	 0.0330611678	 0.109469
H	-0.4596317771	 1.9111266519	-1.0312021111	 0.111932
H	-0.6814389373	 1.9520831827	 0.7184166968	 0.116972
H	-0.9296928721	-0.4101307895	-0.1505380704	 0.120294
H	 0.6518850603	-0.2994781442	-0.9061691118	 0.088153
H	 1.7215287382	-0.0814661727	 1.3169655156	 0.073421
H	-0.3770331108	 0.7442807598	 2.8074367965	 0.09505
H	-0.8386434216	-1.4193814653	 4.1565189627	 0.094696
H	 0.5732242396	-3.4359612026	 3.0140043684	 0.085819
H	-0.287200544	-3.7023046615	 0.8477706951	 0.224716
H	 1.7010907681	-2.5140491994	 0.7937803883	 0.082082
86.086	147.0323	192.4925	248.7475	328.5876	412.2358	467.9251	557.044	698.8408	751.3853	759.6309	794.9383	824.4791	860.8733	874.0639	916.9702	942.4216	966.1988	973.2061	985.0561	1058.9015	1076.902	1106.335	1123.3504	1136.8886	1154.2925	1170.0338	1245.8963	1269.1944	1299.9406	1319.9378	1341.1788	1371.0719	1396.1228	1410.7931	1413.0418	1490.1775	1500.7098	1507.8809	1664.6867	2979.3584	3023.2919	3029.524	3077.26	3099.4453	3103.0652	3157.4918	3169.6361	3188.3734	3213.5564	3470.7644
CCC1C=CC2NC12	CC[C@H]1C=C[C@H]2N[C@@H]12	
InChI=1S/C7H11N/c1-2-5-3-4-6-7(5)8-6/h3-8H,2H2,1H3	InChI=1S/C7H11N/c1-2-5-3-4-6-7(5)8-6/h3-8H,2H2,1H3/t5-,6+,7-/m0/s1
