23
gdb 100773	2.32868	1.0566	0.77512	2.0154	81.79	-0.2637	0.0737	0.3374	1510.8897	0.203254	-425.401295	-425.390493	-425.389549	-425.43743	39.186	
C	-0.1505366322	 1.5456053345	 0.0132391799	-0.410816
C	 0.0159144347	 0.0190599102	-0.0120902504	 0.036057
C	-1.3483295007	-0.6528006985	-0.2058928994	-0.086105
O	-2.1931910584	-0.2608673371	 0.8681602339	-0.421305
C	 1.0376952466	-0.4501625734	-1.0770348554	-0.011217
C	 2.4162727273	 0.2099466947	-0.9069731332	-0.41094
C	 1.2163407218	-1.9582964736	-1.0563415521	 0.091563
C	 0.5939169366	-2.8630659109	-2.0319383119	-0.182846
O	 1.975550057	-2.5198679662	-2.1313030712	-0.246139
H	 0.7602305532	 2.0508469333	 0.3427723051	 0.114204
H	-0.4054047237	 1.9267845312	-0.9836129383	 0.105476
H	-0.9575013888	 1.818922704	 0.6955410714	 0.136959
H	 0.3834674164	-0.3006663983	 0.9742616542	 0.079801
H	-1.7721932444	-0.3452705729	-1.1774564528	 0.080304
H	-1.2356855597	-1.7456020773	-0.2272707373	 0.087999
H	-3.0565038151	-0.6614572827	 0.7335890578	 0.286453
H	 0.6524951741	-0.1807977852	-2.071051851	 0.0715
H	 2.3721020174	 1.2892419719	-1.0685558368	 0.118255
H	 2.8138536253	 0.0355649346	 0.1000456174	 0.111436
H	 3.1211536821	-0.2128583077	-1.6275153906	 0.134708
H	 1.4743793611	-2.3755262755	-0.0791552713	 0.091015
H	 0.3850082185	-3.8984388157	-1.764160888	 0.112708
H	-0.0459306789	-2.4498264795	-2.8113311499	 0.11093
58.1153	81.0637	112.1813	152.5991	203.2392	223.2359	237.2888	249.07	289.8035	329.9621	353.4463	370.9006	438.9985	507.4661	550.7845	805.0997	834.8222	868.8915	912.9251	930.3175	958.8949	964.4219	991.6779	1047.505	1073.8047	1095.6993	1123.4157	1151.8797	1160.1093	1170.5279	1174.8457	1198.5228	1241.9327	1269.3602	1288.0089	1292.5001	1327.368	1356.9133	1376.5941	1400.6466	1408.9798	1444.7408	1457.7165	1492.9011	1496.9741	1503.9304	1514.7875	1521.9478	1528.9163	2954.3278	2996.5116	3008.3327	3020.2182	3032.6592	3035.0769	3072.5303	3077.6041	3105.0162	3108.3656	3127.0821	3137.7571	3160.8079	3835.9597
CC(CO)C(C)C1CO1	C[C@@H](CO)[C@@H](C)[C@H]1CO1	
InChI=1S/C7H14O2/c1-5(3-8)6(2)7-4-9-7/h5-8H,3-4H2,1-2H3	InChI=1S/C7H14O2/c1-5(3-8)6(2)7-4-9-7/h5-8H,3-4H2,1-2H3/t5-,6+,7+/m0/s1
