18
gdb 101542	2.61002	0.96573	0.87937	2.9099	75.41	-0.2705	-0.0909	0.1796	1396.6177	0.144014	-439.096234	-439.085926	-439.084981	-439.132968	35.37	
C	 0.5033297919	 0.6823437265	 0.5990619276	-0.243376
O	-0.1210117174	 0.0587451501	-0.5004147103	-0.241013
C	-1.3898153272	-0.5104692256	-0.2385574228	 0.131829
C	-1.9966855716	-0.8554393982	-1.5934798397	-0.406413
C	-1.2709679852	-1.7631358445	 0.6628608202	-0.321187
C	-1.2655742769	-1.4638142716	 2.1457567235	 0.275914
O	-1.883816756	-0.5720860532	 2.6723625226	-0.270906
C	-0.4587765076	-2.3899519897	 2.9728061595	 0.23107
N	 0.1724843417	-3.1240292484	 3.6055352406	-0.29861
H	 1.3784730084	 1.209514671	 0.2122826678	 0.13412
H	-0.163756838	 1.4007344753	 1.0966046547	 0.122628
H	 0.8497346152	-0.0429331799	 1.3530535653	 0.10744
H	-2.0258566976	 0.2203126628	 0.283150677	 0.098993
H	-1.3965125791	-1.6155989731	-2.1032528584	 0.128849
H	-3.0164263918	-1.2336186013	-1.477517005	 0.119086
H	-2.0229971182	 0.0366502579	-2.2233970353	 0.133345
H	-2.1436088632	-2.4107217359	 0.4998105271	 0.15574
H	-0.3889526374	-2.3470328223	 0.3821412555	 0.142492
21.1426	75.7054	110.0306	139.2822	198.8969	224.7841	237.5421	264.2323	302.3183	328.1649	404.5759	476.9122	505.0048	595.0158	620.9404	818.9975	845.8189	898.6205	918.3874	1057.4794	1072.2943	1128.7378	1136.0734	1152.0656	1179.971	1207.641	1243.4979	1310.385	1375.9177	1389.8764	1412.3454	1438.6277	1477.713	1482.9596	1494.9483	1502.1089	1505.0221	1788.8043	2334.0774	2970.3926	3001.6064	3029.267	3029.7234	3045.3249	3094.5583	3118.0425	3118.2525	3130.8506
COC(C)CC(=O)C#N	CO[C@@H](C)CC(=O)C#N	
InChI=1S/C6H9NO2/c1-5(9-2)3-6(8)4-7/h5H,3H2,1-2H3	InChI=1S/C6H9NO2/c1-5(9-2)3-6(8)4-7/h5H,3H2,1-2H3/t5-/m0/s1
