12
gdb 127217	2.42385	2.0467	1.11746	1.9591	58.98	-0.3041	-0.1171	0.187	967.6443	0.075663	-505.945366	-505.937361	-505.936417	-505.979268	27.316	
C	-0.0193003824	 1.4640581427	-0.0031934429	-0.34768
N	 0.0038483417	-0.0060208625	 0.0072876252	-0.245983
C	 0.1121275182	-0.6414917196	-1.2284371478	 0.532995
O	 0.1843699864	-0.045838025	-2.2632182678	-0.339746
O	 0.1316762346	-1.9975202148	-1.1953101901	-0.271573
N	 0.0427224975	-2.744248465	 0.0810071325	 0.085674
N	-0.0497032342	-2.1247188895	 1.1190015306	-0.121383
C	-0.0806830055	-0.6731725845	 1.21025422	 0.511216
O	-0.174586656	-0.1574095227	 2.2876200186	-0.315759
H	 0.8996901367	 1.8409265252	-0.4548299436	 0.166964
H	-0.8683186846	 1.8121539052	-0.5935902287	 0.166941
H	-0.1057404724	 1.7969336607	 1.0282627738	 0.178334
38.0276	77.6707	118.041	222.1506	313.944	358.3718	429.102	467.8302	515.3897	541.788	621.0642	763.8265	782.4734	787.8795	874.3206	967.6928	1096.8696	1115.3427	1157.5457	1320.4325	1368.785	1452.0898	1489.0715	1504.145	1698.1539	1836.9181	1872.9219	3076.0211	3147.8123	3196.471
CN1C(=O)ON=NC1=O	Cn1c(=O)onnc1=O	
InChI=1S/C3H3N3O3/c1-6-2(7)4-5-9-3(6)8/h1H3	InChI=1S/C3H3N3O3/c1-6-2(7)4-5-9-3(6)8/h1H3
