17
gdb 98204	2.16866	0.96869	0.73085	2.2524	74.	-0.2597	-0.0426	0.217	1556.3233	0.131646	-458.943727	-458.93298	-458.932036	-458.982289	36.04	
C	 0.1241833577	 1.4406617612	 0.0165385078	-0.498733
C	 0.0844321804	-0.0138237938	 0.0167711618	 0.025135
C	 0.0416598763	-1.2173316889	 0.0266691699	 0.102026
C	-0.0251792742	-2.6844358102	 0.0221470456	-0.123086
O	-1.3384002219	-3.1812791843	 0.0445469317	-0.409184
C	 0.7128289852	-3.2058718418	-1.2266467067	 0.335559
O	 0.0881299012	-3.7852735477	-2.0894892261	-0.333998
C	 2.2065579807	-3.000918461	-1.3635605938	-0.129452
O	 2.6903495153	-3.5000264055	-2.5757782368	-0.418062
H	 0.7630135228	 1.8204283281	 0.8209979856	 0.154512
H	 0.5113345857	 1.8287304372	-0.9316457742	 0.154601
H	-0.8783553718	 1.8568402602	 0.1624627171	 0.160002
H	 0.5077124463	-3.0680681383	 0.9064520742	 0.123589
H	-1.510631045	-3.5010196102	-0.8549954085	 0.297043
H	 2.4207451843	-1.9275164958	-1.2603323349	 0.140602
H	 2.6871040113	-3.4966577673	-0.5018243256	 0.121649
H	 1.9326015356	-3.915857142	-3.013113747	 0.297797
17.6994	33.0301	63.6118	104.281	143.9983	213.9198	259.5011	323.4361	345.0063	352.9805	381.6938	405.8563	424.5889	517.6376	574.4641	722.7127	787.6477	882.3659	1009.0986	1033.894	1050.6275	1054.1519	1118.8198	1149.1022	1165.5771	1232.0613	1268.6854	1315.3578	1330.156	1413.2602	1431.0426	1447.1138	1475.188	1476.4931	1488.4805	1792.7279	2364.428	2962.6386	2986.0399	3024.1544	3031.2613	3094.2859	3095.6554	3700.7535	3720.479
CC#CC(O)C(=O)CO	CC#C[C@@H](O)C(=O)CO	
InChI=1S/C6H8O3/c1-2-3-5(8)6(9)4-7/h5,7-8H,4H2,1H3	InChI=1S/C6H8O3/c1-2-3-5(8)6(9)4-7/h5,7-8H,4H2,1H3/t5-/m1/s1
