17
gdb 23117	1.96113	1.74936	0.95004	2.278	77.53	-0.2405	-0.0395	0.201	1210.8802	0.135369	-455.111166	-455.102221	-455.101276	-455.145874	31.762	
C	-0.0740989763	 1.4879993975	 0.1059732433	-0.330025
N	 0.0182502571	 0.0377164598	 0.1289154402	-0.310075
C	-1.0386120576	-0.6391686221	 0.0018910337	 0.392764
O	-2.2983676795	-0.0973632437	-0.1316290104	-0.260981
C	-3.2543857074	-1.1172425135	-0.4645831565	-0.09389
C	-2.6497039502	-2.4330010302	 0.042379605	-0.302881
C	-1.1738244362	-2.1193631816	-0.0040838318	 0.28352
N	-0.3067820929	-3.0548922698	-0.0598169982	-0.222064
O	 1.0029176764	-2.6163878073	-0.0991900836	-0.350998
H	 0.8674950067	 1.8956830968	-0.2723186249	 0.123728
H	-0.905594484	 1.8673445973	-0.4998096456	 0.12234
H	-0.2056171536	 1.8678440751	 1.1278130295	 0.128716
H	-4.2010942095	-0.8523535949	 0.0100990754	 0.123693
H	-3.3961537414	-1.1307173657	-1.5523137277	 0.118277
H	-2.9629093008	-2.6256342855	 1.075243926	 0.1332
H	-2.9195800461	-3.299923384	-0.56191024	 0.133885
H	 1.4911340753	-3.4461201483	-0.1556222944	 0.310791
38.3342	81.0527	156.616	173.6709	205.5589	266.2886	297.5548	407.5775	438.7128	520.8746	543.4759	660.6508	675.2976	745.3491	767.987	869.1427	968.9307	1011.281	1035.8574	1056.3604	1075.4098	1094.8446	1124.586	1165.6125	1206.3492	1240.3971	1264.9308	1310.9441	1390.7824	1427.3417	1434.2612	1478.0027	1484.3928	1497.0396	1524.2724	1732.6132	1763.4834	3010.6648	3030.0334	3042.2595	3066.7106	3100.3869	3110.2427	3126.8974	3797.2529
CN=C1OCCC1=NO	CN=C1OCCC1=NO	
InChI=1S/C5H8N2O2/c1-6-5-4(7-8)2-3-9-5/h8H,2-3H2,1H3	InChI=1S/C5H8N2O2/c1-6-5-4(7-8)2-3-9-5/h8H,2-3H2,1H3
