15
gdb 66843	2.78724	1.94227	1.46991	1.8483	63.38	-0.2345	0.0638	0.2983	881.114	0.111857	-457.655878	-457.649003	-457.648059	-457.686682	28.178	
O	-0.1254632615	 1.2768493879	-0.0080410139	-0.465285
C	-0.0133711812	-0.0867487015	 0.0578549973	 0.353561
C	 0.2102173235	-1.0049610019	-1.1898711764	-0.287445
C	 0.9662296455	-2.1435684179	-0.4719686861	 0.083186
O	 1.8838702849	-1.5368814597	 0.4765352066	-0.299576
C	 0.7040890068	-0.9851008102	 1.1039177188	-0.002586
C	-0.2101529192	-2.1384996986	 0.5628489677	-0.187749
C	-1.0280830418	-1.1221421166	-0.3081403828	 0.316723
O	-2.3637874602	-0.9778174322	-0.5546330749	-0.448637
H	 0.7243934002	 1.6411266917	-0.2828065494	 0.292091
H	 0.3301400848	-0.5661974254	-2.1717848704	 0.096372
H	 1.3871227469	-2.9921199337	-1.0097300287	 0.082247
H	 0.8398890626	-0.6666973792	 2.136347236	 0.088071
H	-0.566344021	-2.9838118131	 1.1456392176	 0.086815
H	-2.6365281503	-1.6546228295	-1.1846855913	 0.292212
203.0165	255.3864	299.2954	315.2329	332.4825	381.6418	549.0296	582.0082	648.5624	685.8795	711.9152	776.275	803.821	828.1932	852.9198	880.6276	920.5601	927.5085	948.9569	1011.6292	1015.3481	1080.829	1110.8875	1149.289	1164.8317	1191.1512	1213.466	1246.812	1269.241	1305.4007	1316.043	1377.416	1543.6374	3127.1553	3137.351	3158.1893	3207.0559	3780.5525	3789.858
OC12C3C4OC1C4C23O	O[C@@]12[C@H]3[C@H]4O[C@@H]1[C@H]4[C@@]23O	
InChI=1S/C6H6O3/c7-5-1-2-3(5)6(5,8)4(1)9-2/h1-4,7-8H	InChI=1S/C6H6O3/c7-5-1-2-3(5)6(5,8)4(1)9-2/h1-4,7-8H/t1-,2-,3-,4+,5-,6-/m0/s1
