16
gdb 32300	2.79545	1.5583	1.00682	0.1096	79.49	-0.1985	-0.0347	0.1638	1133.9215	0.125757	-434.099702	-434.091386	-434.090442	-434.133344	30.222	
C	 0.0423971849	 1.4039929856	 0.0914507669	-0.314482
N	 0.1203115533	-0.0340064915	-0.0301842619	-0.32569
C	 0.6409620133	-0.645798843	-1.1102337533	 0.359102
N	 1.1108601435	 0.0259383382	-2.1215870849	-0.373375
C	 1.6181665229	-0.7201043043	-3.1689544753	-0.074165
C	 1.6402670563	-2.0589413022	-3.1751277455	-0.003365
O	 1.147116567	-2.7814714559	-2.1130957407	-0.22081
C	 0.6284592106	-2.131374904	-1.0388167778	 0.358349
N	 0.1558347157	-2.7336008644	-0.0236139521	-0.557829
H	 1.037730657	 1.8591930609	 0.0401162552	 0.141064
H	-0.5588475183	 1.8366615866	-0.7159192537	 0.141052
H	-0.4153191995	 1.6513280791	 1.0506339242	 0.126617
H	-0.2149430647	-0.647858098	 0.6960540007	 0.272565
H	 2.0109612485	-0.1671138035	-4.0141486835	 0.112307
H	 2.0201494422	-2.6994542666	-3.9569367139	 0.130781
H	 0.2190349772	-3.7461639967	-0.1262426343	 0.22788
50.6607	103.9092	132.2107	200.9939	253.0918	365.3739	456.5431	496.6974	518.4446	547.5617	571.1443	587.5732	760.2063	786.6771	801.8124	853.2833	903.8501	920.5962	996.3292	1068.1332	1094.6741	1146.7725	1160.0335	1221.5886	1271.7667	1307.8966	1351.1886	1424.9527	1456.6025	1472.9709	1512.8186	1558.1282	1641.6542	1658.6412	1721.9772	3030.1043	3080.0902	3137.3311	3197.3998	3252.231	3495.9739	3631.0988
CNC1=NC=COC1=N	CNC1=C(OC=C[N]1)[NH]	
InChI=1S/C5H7N3O/c1-7-5-4(6)9-3-2-8-5/h2-3,6H,1H3,(H,7,8)	InChI=1S/C5H7N3O/c1-7-5-4(6)9-3-2-8-5/h2-3,6H,1H3,(H,7,8)
