21
gdb 91824	3.32848	1.29396	1.0902	1.1782	85.11	-0.2308	0.0146	0.2453	1205.0016	0.18213	-387.088008	-387.07929	-387.078345	-387.120897	34.363	
C	 0.1958978062	 1.5567211107	-0.0932798074	-0.395301
C	-0.0241409879	 0.0511207262	 0.0025818653	 0.089501
O	 0.5653001381	-0.5148824236	-1.1708221447	-0.273416
C	 0.6448563688	-1.9102741833	-1.1997060883	 0.063075
C	 2.013870308	-2.5180596087	-1.0218131061	-0.341637
C	 0.9592126863	-2.6481301229	 0.0725428569	 0.26782
C	 0.3416641366	-4.0144558834	 0.3068273243	-0.461415
C	 1.0593358406	-1.7781851893	 1.2751839077	-0.154461
C	 0.5690333824	-0.5410252815	 1.2619683856	-0.072523
H	 1.2653802586	 1.7857834118	-0.0707685902	 0.125696
H	-0.2206945097	 1.9398480596	-1.0282330423	 0.124001
H	-0.2904493888	 2.0681491773	 0.7429848734	 0.112391
H	-1.1109809026	-0.1479455836	-0.0084900666	 0.076658
H	-0.041093368	-2.3715731172	-1.9096252164	 0.082355
H	 2.270358227	-3.4064082564	-1.5903934687	 0.105328
H	 2.8247937067	-1.817235552	-0.8609917636	 0.11929
H	 0.2550459004	-4.5751102817	-0.6292431437	 0.115235
H	 0.9560293624	-4.6091877401	 0.9932114444	 0.117766
H	-0.6594168861	-3.9279817977	 0.7434306764	 0.120325
H	 1.5076174315	-2.1998241461	 2.1722731435	 0.088163
H	 0.5909475095	 0.0890857919	 2.1467714205	 0.09115
83.6848	177.5572	211.0749	238.9756	242.8693	284.6387	346.3145	413.6484	417.8476	474.9041	537.9934	592.4437	672.3546	730.9348	787.6376	820.5222	866.8231	906.3074	924.0964	942.1228	979.013	998.1084	1035.8138	1054.7674	1056.5472	1097.8938	1109.1689	1132.9903	1162.1502	1180.2841	1200.2524	1254.0405	1316.1581	1343.6035	1348.2724	1399.1696	1404.8016	1414.4146	1423.1335	1474.8819	1483.9546	1490.8139	1498.672	1502.0486	1710.7186	2934.5554	3023.3042	3043.1539	3085.4997	3098.407	3103.0617	3117.8071	3125.7149	3128.7304	3142.517	3172.3386	3226.2501
CC1OC2CC2(C)C=C1	C[C@H]1O[C@H]2C[C@@]2(C)C=C1	
InChI=1S/C8H12O/c1-6-3-4-8(2)5-7(8)9-6/h3-4,6-7H,5H2,1-2H3	InChI=1S/C8H12O/c1-6-3-4-8(2)5-7(8)9-6/h3-4,6-7H,5H2,1-2H3/t6-,7+,8-/m1/s1
