17
gdb 22398	7.46458	0.65677	0.62435	2.9608	76.98	-0.2515	-0.0045	0.2471	1710.6538	0.133935	-455.083133	-455.073969	-455.073025	-455.118568	32.544	
O	-0.1492754582	 1.3041232618	 0.1241599754	-0.392335
N	-0.004288612	-0.0947613528	 0.1465483364	-0.227869
C	-1.1191292479	-0.6664180667	-0.0288949031	 0.410409
C	-2.536414309	-0.2254769356	-0.3378832873	-0.345467
C	-2.8132841165	-1.6873496349	-0.7780730791	 0.128087
C	-1.4545531185	-2.1374339985	-0.1494886671	-0.338647
O	-3.983261851	-2.237237328	-0.2051937121	-0.18517
C	-4.5913794128	-3.2454020208	-0.8638982053	 0.120415
N	-5.5614744663	-3.8511169353	-0.3329008496	-0.438016
H	 0.7569015216	 1.6044657028	 0.2528526771	 0.308566
H	-3.1047550089	 0.0310942697	 0.5619885374	 0.147859
H	-2.6633249341	 0.56706001	-1.0778177327	 0.13365
H	-2.8286973215	-1.8040552332	-1.8670772196	 0.094764
H	-0.7930110029	-2.7634043106	-0.75230216	 0.124627
H	-1.6190155904	-2.6144784718	 0.8224543723	 0.141631
H	-4.1629583322	-3.4381655626	-1.8577867039	 0.08638
H	-5.9185866795	-4.5604304934	-0.9694596587	 0.231116
33.1211	50.6938	106.1903	181.329	236.2825	267.5004	341.759	382.6279	411.0323	474.098	531.0715	578.1705	725.8605	783.6972	813.2869	826.0767	935.1336	967.7755	970.755	1021.8078	1041.5561	1048.4574	1082.3185	1149.2874	1173.5997	1203.6398	1205.2961	1253.5925	1271.7826	1292.8244	1385.5141	1406.6151	1428.2544	1443.4285	1465.9557	1747.0598	1792.8454	3015.1308	3048.2742	3054.6145	3063.7218	3116.9748	3123.5183	3520.3943	3817.7146
ON=C1CC(C1)OC=N	ON=C1C[C@@H](C1)O[CH][NH]	
InChI=1S/C5H8N2O2/c6-3-9-5-1-4(2-5)7-8/h3,5-6,8H,1-2H2	InChI=1S/C5H8N2O2/c6-3-9-5-1-4(2-5)7-8/h3,5-6,8H,1-2H2/t5-
