22
gdb 107265	2.82361	1.61118	1.31581	1.4136	84.91	-0.2239	0.0949	0.3188	1077.4239	0.19678	-367.160806	-367.153112	-367.152168	-367.192792	32.046	
C	 0.3159455583	 1.4839975435	-0.2482606468	-0.388789
C	-0.1173645763	 0.0917747205	 0.2252831325	-0.262591
C	 0.7194707342	-0.5590107163	 1.3113082248	 0.35116
C	 0.0601662181	-1.4997397197	 2.26024696	-0.307835
N	 0.5305618991	-0.1882078151	 2.7487973425	-0.148834
C	 1.9704202748	-0.1643282985	 3.1819438788	 0.016913
C	 2.7156619024	-1.3346677666	 2.4776588986	-0.251239
C	 2.261243681	-0.5631086057	 1.2113452533	-0.101301
C	 2.5701524747	 0.7293116343	 2.0596123306	-0.209382
H	 1.3458158378	 1.4899148194	-0.6187080318	 0.116875
H	-0.3294370291	 1.8212513924	-1.065439525	 0.10954
H	 0.2414222976	 2.218941436	 0.5584084058	 0.130565
H	-1.1521321363	 0.142434983	 0.5818323585	 0.103309
H	-0.1269317847	-0.5918757186	-0.6354361549	 0.096847
H	-1.0240442381	-1.5693538532	 2.2180261857	 0.108462
H	 0.5344475614	-2.4133585212	 2.5962825283	 0.111915
H	 2.0808955949	 0.0535758837	 4.2437772412	 0.070599
H	 3.7934081919	-1.2547520586	 2.6289212774	 0.099402
H	 2.4150964881	-2.3710518919	 2.6294889819	 0.094261
H	 2.7043066127	-0.7416630948	 0.2314018416	 0.062464
H	 2.029517182	 1.646048329	 1.8269445236	 0.104776
H	 3.6388200353	 0.9231715086	 2.1737928034	 0.092885
72.5072	200.3411	229.3787	290.5914	341.1712	441.2363	492.6903	534.3034	572.2315	587.2377	706.3045	741.1414	781.3658	813.9794	836.673	844.9442	886.2867	907.468	922.4884	984.1778	996.099	1013.7571	1038.636	1043.6966	1071.3001	1080.0848	1099.5029	1110.2682	1117.7081	1124.9473	1153.4981	1212.5287	1222.4162	1244.7515	1250.7156	1274.0556	1288.2794	1335.1967	1341.5113	1394.9788	1409.9618	1473.6869	1480.7053	1500.0395	1504.6465	1512.5235	1549.6481	3010.8965	3038.3609	3061.6247	3079.0298	3084.9312	3103.2274	3112.3543	3115.1778	3119.1134	3124.2572	3133.0421	3154.0351	3208.6751
CCC12CN1C1CC2C1	CC[C@]12CN1[C@H]1C[C@@H]2C1	
InChI=1S/C8H13N/c1-2-8-5-9(8)7-3-6(8)4-7/h6-7H,2-5H2,1H3	InChI=1S/C8H13N/c1-2-8-5-9(8)7-3-6(8)4-7/h6-7H,2-5H2,1H3/t6-,7+,8-,9?/m1/s1
