20
gdb 116600	4.00907	0.8504	0.80051	3.8394	79.43	-0.2409	0.0314	0.2723	1529.6418	0.170259	-440.303172	-440.293696	-440.292752	-440.339188	34.298	
C	 0.1670090682	 1.7684365595	-0.1833287813	-0.372548
C	 0.687361665	 0.3590702971	 0.0841738486	-0.116368
N	 1.1719859922	-0.2481079801	-1.153057876	-0.344887
C	 1.7923311815	-1.3392740611	-1.0871957567	 0.453348
C	 2.3540112613	-2.1258946555	-2.2514360046	-0.322946
C	 3.3888394752	-3.0363364505	-1.5908077076	 0.094203
O	 4.612646359	-2.3203530367	-1.5553291175	-0.429189
C	 2.7768199176	-3.2167382253	-0.1906040758	-0.0973
O	 2.0565188814	-2.0124337507	 0.0835619162	-0.250936
H	 0.9627114898	 2.4035070704	-0.5845795633	 0.117376
H	-0.6438634049	 1.7466943651	-0.9176372429	 0.117081
H	-0.2097468991	 2.2269243865	 0.7368780338	 0.100454
H	 1.4834508016	 0.3841092672	 0.8417691696	 0.102206
H	-0.1143518657	-0.2607343575	 0.5115607042	 0.098999
H	 1.5577586277	-2.7170151175	-2.7168315198	 0.1256
H	 2.7920696806	-1.4769824189	-3.0087961234	 0.147924
H	 3.5051172953	-3.9994950756	-2.1049504725	 0.074854
H	 5.2573037775	-2.8409318368	-1.0654545016	 0.285602
H	 2.08790019	-4.0716707823	-0.162814914	 0.107776
H	 3.5347648758	-3.3499825272	 0.5874972448	 0.108752
14.0409	80.2722	145.5765	169.8378	188.4496	280.4238	301.0946	338.5481	393.2017	404.6575	484.8199	587.9335	723.1425	783.8137	790.5695	840.2771	864.0742	892.466	921.1852	977.0527	1012.9401	1055.7093	1088.6234	1100.9082	1118.0175	1138.3837	1177.9358	1198.2645	1205.3558	1254.555	1297.0387	1310.4375	1344.3573	1381.9753	1386.6749	1411.325	1425.8905	1459.1037	1476.3607	1488.4508	1505.28	1505.9853	1802.5319	2991.8787	3008.3153	3021.2564	3023.4249	3036.4503	3059.6795	3082.2987	3107.6874	3112.6484	3147.4339	3816.4386
CCN=C1CC(O)CO1	CCN=C1C[C@@H](O)CO1	
InChI=1S/C6H11NO2/c1-2-7-6-3-5(8)4-9-6/h5,8H,2-4H2,1H3	InChI=1S/C6H11NO2/c1-2-7-6-3-5(8)4-9-6/h5,8H,2-4H2,1H3/t5-/m1/s1
