18
gdb 111934	4.0152	1.22405	1.13787	1.6152	78.98	-0.2086	-0.0348	0.1738	1107.6314	0.147855	-401.811497	-401.80389	-401.802945	-401.843629	29.88	
O	-0.0427279603	 1.4291327222	-0.1285751587	-0.416366
C	 0.0110176586	 0.0137667437	-0.0774951838	-0.094451
C	-1.4188294918	-0.5036208512	 0.0584033263	-0.02766
C	-2.1834809191	-0.3069577007	-1.24529154	-0.109536
C	-2.8665072625	-1.4342948879	-1.543049668	 0.004565
C	-2.0801781805	-2.4580420787	-2.3644318857	-0.166061
N	-1.6591857631	-3.0476114361	-1.0068459899	-0.156701
C	-1.5500440383	-2.0377066265	 0.1805642897	-0.044107
C	-2.8492773211	-2.4227389092	-0.3716067177	-0.085219
H	 0.8466718321	 1.7616780578	-0.2804733454	 0.28989
H	 0.4723157748	-0.4069967399	-0.985097233	 0.092413
H	 0.60039056	-0.3371896739	 0.7849550778	 0.091949
H	-1.8468712235	-0.0511065904	 0.9649494926	 0.097817
H	-1.7328439863	 0.3093476035	-2.0185676709	 0.102995
H	-2.6403725725	-3.2527777719	-2.8669496818	 0.116681
H	-1.2785126711	-2.0839880492	-3.0073707674	 0.108826
H	-1.1039490554	-2.563267779	 1.0207975301	 0.099072
H	-3.6591633699	-2.9926201326	 0.0696436355	 0.095892
92.8214	133.3445	210.5128	266.4185	366.6892	376.1222	458.1199	517.7036	576.8314	679.1773	727.6939	745.1965	805.806	861.7244	889.1872	900.3616	919.8055	975.9917	1011.5087	1013.6615	1035.9718	1065.7884	1069.0076	1080.166	1116.0592	1120.2657	1184.4284	1220.8014	1224.6737	1245.8416	1258.7971	1280.4808	1296.5315	1325.6007	1366.5779	1451.6826	1507.0314	1518.7546	1574.2976	2965.7944	2987.9808	3006.4462	3041.2296	3105.332	3154.6504	3163.0498	3174.5423	3830.5526
OCC1C=C2CN3C1C23	OC[C@H]1[CH][C]2CN3[C@@H]1[C@@H]23	
InChI=1S/C7H9NO/c9-3-5-1-4-2-8-6(4)7(5)8/h1,5-7,9H,2-3H2	InChI=1S/C7H9NO/c9-3-5-1-4-2-8-6(4)7(5)8/h1,5-7,9H,2-3H2/t5-,6-,7+,8?/m1/s1
