20
gdb 92109	2.64152	1.65685	1.36028	0.2351	77.34	-0.2155	0.0726	0.2881	1030.8778	0.172364	-403.103705	-403.095927	-403.094983	-403.135435	31.761	
C	-0.2662988385	 1.5686075427	-0.0009565708	-0.401867
C	 0.0224365989	 0.0626250836	 0.0057494561	-0.005205
C	 0.7633508446	-0.4887885175	-1.2601468612	-0.187311
N	 2.1117438521	-0.9291613327	-0.8369102645	-0.11757
C	 2.8822658394	 0.26400399	-0.3163788816	-0.250969
C	 2.4316411822	-0.0825228874	 1.0916924538	 0.367611
O	 3.0607580594	 0.2584959864	 2.2718554422	-0.4612
C	 0.9508862845	-0.4194789845	 1.1181027653	-0.08617
C	 1.936346187	-1.4179956171	 0.5670889316	-0.147386
H	 0.6497825566	 2.1614471141	-0.0797544408	 0.120882
H	-0.9150877883	 1.8396735737	-0.8409462668	 0.111948
H	-0.7750377396	 1.8729402898	 0.9200378877	 0.115716
H	-0.9367150693	-0.4592150496	 0.1151273544	 0.070199
H	 0.2337812076	-1.3578838341	-1.6635872604	 0.101828
H	 0.8499961442	 0.2501673078	-2.06239954	 0.101761
H	 3.9575525642	 0.1031945474	-0.4621318958	 0.0963
H	 2.6076087975	 1.2310985037	-0.7512865459	 0.09992
H	 3.971618582	-0.0552516485	 2.2298437334	 0.285557
H	 0.5671481028	-0.5784413969	 2.1204366089	 0.093516
H	 2.0827509727	-2.4507458608	 0.8563813645	 0.092443
151.3435	189.5261	204.3197	305.5562	333.8407	362.4298	411.335	441.705	505.3418	584.4586	652.9994	725.2364	750.6619	831.3475	850.2496	871.0865	914.9633	930.0023	945.0329	973.7231	1000.3375	1006.7147	1028.9415	1065.8441	1083.8639	1126.6864	1164.5288	1170.9325	1183.3553	1224.1551	1247.4204	1258.7514	1282.9808	1320.1144	1330.848	1347.6108	1374.4987	1411.7571	1448.5185	1492.1574	1496.9492	1498.8526	1521.6125	3015.1575	3018.8744	3032.206	3046.7154	3068.9991	3091.5268	3095.6939	3110.9005	3176.1687	3194.6619	3785.3767
CC1CN2CC3(O)C1C23	C[C@H]1CN2C[C@@]3(O)[C@@H]1[C@@H]23	
InChI=1S/C7H11NO/c1-4-2-8-3-7(9)5(4)6(7)8/h4-6,9H,2-3H2,1H3	InChI=1S/C7H11NO/c1-4-2-8-3-7(9)5(4)6(7)8/h4-6,9H,2-3H2,1H3/t4-,5-,6+,7+/m0/s1
