13
gdb 18664	3.55673	2.41197	1.587	3.5319	60.15	-0.2304	-0.0243	0.2061	757.2199	0.097699	-398.62208	-398.616035	-398.615091	-398.652197	23.451	
O	 0.023754612	-0.0186160892	-0.1514937683	-0.360162
C	 0.0105219964	 1.1852688315	 0.0002305492	 0.453946
N	-1.1695821002	 1.893597053	 0.1532092264	-0.360276
C	-1.2886835848	 3.2757823689	 0.0789775183	 0.027408
C	-0.2307616862	 4.0869063942	-0.050421297	-0.142572
C	 1.1246305926	 3.5108369637	-0.0107697347	 0.011437
O	 1.4783183719	 2.799745892	 1.1922509639	-0.244386
C	 1.2543624148	 2.0281093324	 0.0138549075	-0.110117
H	-2.0024757896	 1.3233821783	 0.1481988012	 0.261168
H	-2.3076933915	 3.6417130892	 0.1149249935	 0.131204
H	-0.3656692797	 5.1565398319	-0.135902052	 0.108723
H	 1.9451678467	 4.0879421547	-0.4311528659	 0.104536
H	 2.1275796078	 1.5240105195	-0.393489182	 0.119091
133.4751	259.8377	325.6658	433.9934	517.2455	541.0567	590.6611	634.196	720.674	745.1149	790.9716	833.1005	873.4674	937.289	967.8522	994.1988	1044.6259	1102.8255	1130.5579	1213.2094	1258.4579	1300.6524	1366.3657	1410.9393	1427.4863	1481.2324	1703.3647	1800.9766	3138.4379	3151.7246	3204.4649	3228.9295	3621.8195
O=C1NC=CC2OC12	O=C1NC=C[C@H]2O[C@@H]12	
InChI=1S/C5H5NO2/c7-5-4-3(8-4)1-2-6-5/h1-4H,(H,6,7)	InChI=1S/C5H5NO2/c7-5-4-3(8-4)1-2-6-5/h1-4H,(H,6,7)/t3-,4-/m1/s1
