22
gdb 7641	4.26932	1.10708	0.95635	1.3334	78.63	-0.2525	0.0782	0.3307	1285.7702	0.199032	-350.202828	-350.193472	-350.192528	-350.236651	35.175	
C	 0.1067210983	 1.4746071414	 0.1178321705	-0.389374
C	-0.0628407256	-0.0466153855	 0.0044032433	 0.025194
C	-1.5468188583	-0.4366529657	-0.0302595388	-0.389096
C	 0.6814066207	-0.5951372119	-1.211904199	 0.069015
C	 2.2349873738	-0.4987042687	-1.254640738	-0.262951
C	 2.2649828058	-1.8937474583	-1.905663459	 0.142333
O	 3.3121074651	-2.7188369079	-1.4482872419	-0.432775
C	 0.8228321829	-2.1364704195	-1.3821959858	-0.290607
H	 1.1627383871	 1.7577612141	 0.1721700119	 0.11576
H	-0.3303852291	 1.9822399179	-0.7507056853	 0.108987
H	-0.3907598413	 1.8630924329	 1.0127236884	 0.108254
H	 0.3876551041	-0.5053675864	 0.8972423082	 0.066036
H	-2.045297705	 0.0001578359	-0.9042475978	 0.108935
H	-1.6753910889	-1.5225855638	-0.0821245169	 0.113979
H	-2.0714337792	-0.0794357425	 0.8621599417	 0.10843
H	 0.2540674902	-0.1562716455	-2.122846268	 0.061559
H	 2.700578835	 0.3306556901	-1.7913083832	 0.095569
H	 2.6607547368	-0.5589060709	-0.2473754983	 0.108277
H	 2.2726282941	-1.8154235658	-3.0028391312	 0.062865
H	 3.2484126614	-3.5662531303	-1.9002625251	 0.27967
H	 0.8643854295	-2.6372647351	-0.4088228621	 0.10135
H	 0.1146843726	-2.6609520445	-2.0289757939	 0.088592
82.009	83.2142	169.8921	218.4496	234.806	267.8022	303.3038	329.6425	352.7575	449.6535	458.8483	459.6253	600.1018	763.9054	810.6321	879.5865	923.053	930.1263	944.2666	965.1308	993.2007	1022.0457	1023.944	1062.6203	1115.6816	1145.6719	1176.8585	1194.6711	1215.1974	1229.8927	1254.0489	1266.5769	1277.0462	1319.2173	1331.0693	1352.4974	1390.8418	1399.8259	1420.8911	1431.5451	1469.2473	1487.06	1490.8662	1499.8362	1503.6045	1509.9512	2987.7524	2990.7264	3020.0115	3022.0702	3028.0808	3043.1669	3053.1524	3085.9542	3091.9678	3098.9982	3101.2787	3103.5161	3112.9407	3814.4338
CC(C)C1CC(O)C1	CC(C)[C@H]1C[C@@H](O)C1	
InChI=1S/C7H14O/c1-5(2)6-3-7(8)4-6/h5-8H,3-4H2,1-2H3	InChI=1S/C7H14O/c1-5(2)6-3-7(8)4-6/h5-8H,3-4H2,1-2H3/t6-,7+
