16
gdb 27054	3.09067	1.35998	0.9582	1.4173	75.48	-0.2041	0.0037	0.2078	1171.4349	0.125951	-434.106448	-434.098182	-434.097238	-434.140453	29.999	
C	-0.4960629322	 0.8454720017	-1.1178142232	-0.512012
C	-0.2316848902	-0.3141051426	-0.2314746747	 0.278962
C	-0.9365780329	-1.2511668089	 0.4695809082	 0.240302
N	-2.288970034	-1.5434607997	 0.6503293451	-0.383489
C	-3.3939557993	-1.1847791111	-0.0699907128	 0.079061
N	-3.384766887	-0.3969190239	-1.0729959932	-0.454786
N	-0.0629233613	-2.0690378343	 1.1806314093	-0.323015
C	 1.1079095769	-1.6135725792	 0.8842091501	 0.079141
O	 1.1033260219	-0.5694851244	 0.043681251	-0.175307
H	 0.1200186819	 0.7839778582	-2.0219115856	 0.128521
H	-1.5491569214	 0.8469971226	-1.3971587887	 0.187522
H	-0.249292113	 1.7898597893	-0.6169026631	 0.125409
H	-2.422804375	-2.2493825087	 1.3569591214	 0.261822
H	-4.2906023847	-1.6655415969	 0.3385234295	 0.093471
H	-4.3275973321	-0.2804552996	-1.4345466171	 0.224569
H	 2.0665460726	-1.9713426825	 1.2256155838	 0.149831
22.1196	148.4633	204.2857	216.8776	247.666	279.1878	370.7676	421.6228	524.6205	597.0651	637.0618	692.6179	725.1518	794.2516	822.5423	833.8887	959.5067	970.0181	1036.77	1074.6392	1117.3241	1144.4642	1164.24	1207.1091	1271.7876	1321.789	1352.5283	1416.4649	1426.3983	1485.8518	1493.69	1549.8894	1594.112	1688.6483	1729.9231	3022.1095	3050.1921	3073.9557	3157.1005	3274.9674	3523.3087	3641.1389
CC1=C(NC=N)N=CO1	Cc1c(NC=N)nco1	
InChI=1S/C5H7N3O/c1-4-5(7-2-6)8-3-9-4/h2-3H,1H3,(H2,6,7)	InChI=1S/C5H7N3O/c1-4-5(7-2-6)8-3-9-4/h2-3H,1H3,(H2,6,7)
