18
gdb 126214	1.7876	1.68489	0.96757	3.8259	74.29	-0.2442	-0.0012	0.243	1237.1445	0.148626	-435.269704	-435.260633	-435.259689	-435.304575	32.348	
C	-0.3049788268	 1.4734342039	 0.0235045795	-0.371447
C	 0.0925906683	-0.0133495686	 0.0700355568	-0.314815
C	 0.81533497	-0.4757123706	-1.1551106812	 0.270073
C	 2.1550651393	-0.6864148749	-1.4258307332	 0.180454
C	 3.339674439	-0.5396099888	-0.5207140255	-0.179023
O	 3.1736332155	-1.2082579976	 0.7286243205	-0.410901
N	 2.2805142514	-1.1045956726	-2.7197760549	-0.249426
N	 1.1058079553	-1.1596576015	-3.2751908159	-0.127007
N	 0.2172642903	-0.7802898366	-2.3335880557	-0.229581
H	 0.5765942177	 2.1105658684	-0.0913102811	 0.132381
H	-0.9779012938	 1.6826975892	-0.8142450632	 0.116314
H	-0.8160592647	 1.7612441072	 0.9467665007	 0.1236
H	 0.7503104846	-0.1999900373	 0.9229835456	 0.148135
H	-0.8039352372	-0.6271497926	 0.2240821504	 0.11002
H	 4.2285041288	-0.890222511	-1.0619768291	 0.120541
H	 3.5098677938	 0.5096982614	-0.2566923134	 0.119417
H	 3.0292845484	-2.1408808082	 0.5355548409	 0.284906
H	-0.7646333201	-0.77284075	-2.5621847312	 0.276359
44.3776	66.5007	154.571	162.5204	202.506	257.0543	349.108	361.3446	423.7617	442.8411	594.1501	665.5514	696.6903	730.3705	784.5983	800.3933	967.9107	972.4585	1020.2089	1048.0724	1060.352	1079.8711	1087.7694	1181.8285	1220.174	1242.4476	1298.4377	1308.9731	1356.4898	1377.6192	1384.8674	1412.5848	1421.4779	1487.6745	1496.8747	1501.6603	1502.6243	1507.7887	1616.7125	3021.5163	3029.7903	3039.9757	3070.464	3095.4224	3115.5697	3119.9837	3646.6011	3808.5693
CCC1=C(CO)N=NN1	CCc1c(CO)nn[nH]1	
InChI=1S/C5H9N3O/c1-2-4-5(3-9)7-8-6-4/h9H,2-3H2,1H3,(H,6,7,8)	InChI=1S/C5H9N3O/c1-2-4-5(3-9)7-8-6-4/h9H,2-3H2,1H3,(H,6,7,8)
