13
gdb 129034	2.64087	1.817	1.11388	4.1334	71.83	-0.2785	-0.1029	0.1756	999.5425	0.089501	-452.720185	-452.712904	-452.71196	-452.752739	26.565	
N	-0.1139921912	 1.2656086834	-0.1919669953	-0.439294
C	-0.0074270189	 0.0084276983	-0.0012741218	 0.133594
C	-1.2127730716	-0.8126909716	-0.0369249152	-0.076446
C	-1.3692283604	-2.0274363689	 0.5090496096	-0.112147
C	-0.3817597392	-2.7430584999	 1.292396611	 0.058485
N	 0.8980181954	-2.7077693666	 1.3358207266	-0.092927
O	 1.609571764	-1.9113758673	 0.4053608323	-0.24306
C	 1.39173365	-0.599230417	 0.0886902014	 0.382371
O	 2.343579627	 0.0556704353	-0.2299860142	-0.287658
H	 0.8238231651	 1.6819093398	-0.1918922938	 0.256145
H	-2.0553014349	-0.3293187706	-0.5211461441	 0.142872
H	-2.3455281704	-2.4999361081	 0.4598199829	 0.129047
H	-0.7676861548	-3.4666955269	 2.0104733807	 0.149018
57.9842	85.7079	265.9627	331.7426	361.5304	431.6377	435.1235	536.7609	584.5189	663.3916	700.3144	754.1303	849.556	899.1492	922.3628	957.5851	971.3106	1004.4143	1027.4976	1082.7261	1152.0256	1236.2508	1360.3869	1388.1537	1441.3253	1658.3939	1665.4541	1704.5616	1819.6551	3140.2122	3177.3098	3197.0622	3422.0821
N=C1C=CC=NOC1=O	[NH][C]1C=CC=NOC1=O	
InChI=1S/C5H4N2O2/c6-4-2-1-3-7-9-5(4)8/h1-3,6H	InChI=1S/C5H4N2O2/c6-4-2-1-3-7-9-5(4)8/h1-3,6H
