20
gdb 105245	2.36581	1.29051	1.03951	2.5044	75.7	-0.2518	0.0637	0.3154	1241.7682	0.17024	-440.23111	-440.221758	-440.220814	-440.265289	34.861	
C	 1.999792463	 0.5896988791	-0.7605356538	-0.407515
C	 1.1371314902	-0.5371324378	-0.245398675	-0.038807
N	 1.797874788	-1.6077081469	 0.5222283082	-0.38664
C	 0.7712980001	-0.7689167832	 1.1851445987	 0.289437
C	 1.3251685073	 0.0772456573	 2.3195153341	-0.162914
O	 1.9444824431	-0.7333683099	 3.3067741994	-0.421073
C	-0.5542400617	-1.4323265524	 1.4397774642	 0.006535
C	-0.996017146	-1.8493294043	 2.778129443	-0.197956
O	-1.5436083263	-0.6846109356	 2.1439352703	-0.235482
H	 2.8219195064	 0.8116617924	-0.0778605485	 0.131955
H	 2.4376835545	 0.3136303097	-1.7256650658	 0.123286
H	 1.4080008776	 1.4993727038	-0.9071287949	 0.125035
H	 0.3746663433	-0.8601299091	-0.9552274691	 0.085781
H	 1.4150096331	-2.5202986328	 0.2841675195	 0.232234
H	 2.027133958	 0.824766216	 1.9299723974	 0.09331
H	 0.5045947207	 0.6082239647	 2.8091501976	 0.131244
H	 2.5494752134	-1.3087841438	 2.8208765109	 0.289563
H	-0.9423889967	-1.9870518806	 0.5810332464	 0.082422
H	-1.6858963308	-2.6861733083	 2.87688538	 0.113563
H	-0.3454032271	-1.6602673883	 3.6276086676	 0.146022
76.5614	107.6999	161.004	188.9554	210.5253	232.9219	299.4461	351.6699	389.7613	463.4794	474.5681	514.7291	582.7119	730.6592	817.9697	864.3485	874.4642	888.5962	954.4885	984.8783	1012.7998	1034.18	1059.3186	1077.9251	1100.7679	1117.5704	1129.3314	1158.4686	1178.1916	1212.5983	1242.6525	1288.2362	1301.6457	1364.5221	1378.4404	1406.5578	1422.6829	1448.9869	1468.3451	1491.8782	1499.4007	1518.1744	1530.3999	3027.3453	3040.1506	3066.3642	3094.1947	3095.5468	3100.4311	3103.4439	3136.3159	3197.3524	3484.9677	3768.1808
CC1NC1(CO)C1CO1	C[C@H]1N[C@]1(CO)[C@H]1CO1	
InChI=1S/C6H11NO2/c1-4-6(3-8,7-4)5-2-9-5/h4-5,7-8H,2-3H2,1H3	InChI=1S/C6H11NO2/c1-4-6(3-8,7-4)5-2-9-5/h4-5,7-8H,2-3H2,1H3/t4-,5-,6+/m1/s1
