19
gdb 58618	2.3458	1.46927	1.0978	2.0896	71.54	-0.2369	0.0277	0.2646	1152.0196	0.158719	-456.356944	-456.347258	-456.346314	-456.391203	36.276	
C	 0.3131387034	 1.4316694907	 0.058320006	-0.421891
C	 0.003541188	-0.0567208964	-0.1116392843	 0.046606
O	 0.7030787208	-0.8410247135	 0.8561672823	-0.452725
C	-1.4784228208	-0.3667897543	 0.0766561139	 0.222194
C	-1.8842807495	-1.7204534977	 0.554873807	-0.262173
N	-2.0101214055	-0.5510309491	 1.4397366897	-0.376719
C	-2.3941579187	 0.3446913161	-0.8968275042	 0.355644
N	-3.6504034869	 0.5506678211	-0.4245074818	-0.53472
O	-2.0182957714	 0.6632434451	-2.0130490447	-0.384334
H	 1.389269442	 1.6102055164	-0.0501789095	 0.103245
H	-0.2012672144	 2.0155263995	-0.7076453746	 0.153897
H	 0.0056045814	 1.7829792396	 1.0486156833	 0.118638
H	 0.2783239176	-0.3661490128	-1.1284970256	 0.100835
H	 1.6271027705	-0.5766045985	 0.8378296012	 0.289409
H	-2.825482854	-2.1410937591	 0.2143362949	 0.122607
H	-1.0897714063	-2.4292225745	 0.7587504264	 0.140395
H	-1.2214946371	-0.5491174236	 2.0841281496	 0.24613
H	-3.8192885652	 0.4208125335	 0.561541636	 0.274755
H	-4.296846784	 1.0696961875	-0.9944105357	 0.258207
76.9616	83.1145	189.3438	216.191	239.8084	272.6974	295.4571	317.6716	365.4507	379.3484	417.4325	485.1945	511.1795	603.6088	659.0789	687.2606	763.3815	868.3383	897.3021	907.5726	960.4995	1005.4482	1028.3658	1066.9712	1097.6345	1124.7995	1129.9803	1151.8604	1219.4695	1264.8451	1286.9781	1342.8002	1366.9267	1403.4935	1409.7648	1428.8124	1491.6454	1495.6909	1508.7293	1590.4712	1782.7678	3023.2263	3032.0312	3097.6398	3125.9326	3139.2412	3225.1537	3494.2067	3575.2754	3722.6929	3839.8822
CC(O)C1(CN1)C(N)=O	C[C@@H](O)[C@]1(CN1)C(=O)N	
InChI=1S/C5H10N2O2/c1-3(8)5(2-7-5)4(6)9/h3,7-8H,2H2,1H3,(H2,6,9)	InChI=1S/C5H10N2O2/c1-3(8)5(2-7-5)4(6)9/h3,7-8H,2H2,1H3,(H2,6,9)/t3-,5-/m1/s1
