14
gdb 128978	4.02614	1.68103	1.18589	5.7491	81.73	-0.1934	-0.0672	0.1263	949.2347	0.105721	-395.756403	-395.750448	-395.749504	-395.786547	24.348	
N	-0.0031733259	 1.2722878237	 0.009378149	-0.212623
C	 1.1139503567	 2.0691547048	 0.0024569773	 0.005891
C	 2.3635218147	 1.5126937933	-0.0127980866	-0.271392
C	 2.4470976177	 0.1079219023	-0.0209143783	 0.267477
C	 3.4033377182	-0.8799999012	-0.0354825839	-0.192284
N	 2.8269428857	-2.1370982864	-0.0363365445	-0.225128
C	 1.5101279593	-2.0042635981	-0.0226505222	-0.123909
C	 1.157099561	-0.6235163339	-0.0119442837	 0.274736
N	-0.0262566253	-0.0556155323	 0.0027130313	-0.278161
H	-0.9191534582	 1.69447249	 0.0206327569	 0.284884
H	 0.9163316327	 3.1322490717	 0.0099341042	 0.137507
H	 3.2365001045	 2.1549952824	-0.0180937659	 0.122705
H	 4.479118136	-0.7764025136	-0.0455707093	 0.099344
H	 0.8384518929	-2.8515477427	-0.0204330544	 0.110951
217.4643	237.0052	424.5604	432.6909	561.0158	562.877	608.0719	644.5255	656.3573	759.8392	760.7069	787.8393	813.7974	847.2481	874.9521	922.1617	936.1966	1023.4066	1089.8867	1134.7007	1214.0088	1249.6015	1272.0379	1326.6795	1366.8162	1393.6111	1456.3176	1497.5506	1585.6647	1602.4647	1627.5013	3199.1326	3227.1118	3230.8072	3232.4448	3628.9719
N1C=CC2=CN=CC2=N1	[nH]1ccc2cncc2n1	
InChI=1S/C6H5N3/c1-2-8-9-6-4-7-3-5(1)6/h1-4,8H	InChI=1S/C6H5N3/c1-2-8-9-6-4-7-3-5(1)6/h1-4,8H
