20
gdb 80630	2.64179	1.57404	1.24458	4.1224	82.15	-0.3024	0.0372	0.3395	1073.675	0.17344	-366.026026	-366.01816	-366.017216	-366.058193	31.236	
C	-0.1505582057	 1.5456642769	-0.072919925	-0.41577
C	 0.0623258079	 0.0344398379	-0.0469887944	 0.012302
C	 0.9755055493	-0.5317828325	-1.1588305596	-0.010899
C	 1.1922351212	-1.9963947398	-0.68404386	-0.246296
C	 1.987034946	-1.298245928	 0.4542585372	-0.012592
C	 2.409797849	-0.2567120728	-0.6179851309	-0.235422
C	 0.8494001001	-0.5519191117	 1.2043522193	-0.166819
C	 1.3402600897	 0.4464333419	 2.1471382655	 0.277577
N	 1.7363228087	 1.2334399843	 2.8963905957	-0.34322
H	 0.7929078235	 2.0980014236	-0.0534523034	 0.13442
H	-0.6908216866	 1.8312788206	-0.9814197344	 0.114042
H	-0.7404443483	 1.8783814469	 0.786350308	 0.130754
H	-0.9174590839	-0.4531597885	-0.0912437598	 0.081694
H	 0.6892829974	-0.2936743519	-2.1836863958	 0.06612
H	 0.3123463258	-2.5901620108	-0.4163263243	 0.091569
H	 1.8436944782	-2.5674295792	-1.3486410342	 0.104865
H	 2.7094788586	-1.8249786313	 1.0767967424	 0.080353
H	 3.1847779879	-0.644277673	-1.282126815	 0.105338
H	 2.6722196208	 0.7511232908	-0.2880312482	 0.113457
H	 0.2232552805	-1.2532944833	 1.7645898569	 0.118526
111.1081	149.4405	210.9691	225.771	299.0133	387.0014	462.2067	477.1719	516.1501	589.5381	681.8081	775.4813	809.7897	833.6545	856.2855	878.3119	899.7945	952.7685	987.5778	996.3697	1033.498	1040.0004	1063.1941	1078.3864	1111.9471	1116.5052	1122.1196	1152.	1200.1746	1226.8108	1250.8767	1262.7831	1288.3926	1300.9682	1324.4713	1341.5959	1375.3926	1418.9964	1487.4034	1493.8082	1499.2011	1524.2842	2350.1063	3038.9062	3040.8535	3048.8405	3062.6236	3069.7123	3106.3372	3111.4696	3116.7751	3118.7487	3124.1998	3129.6393
CC1C2CC(C2)C1C#N	C[C@H]1[C@@H]2C[C@@H](C2)[C@H]1C#N	
InChI=1S/C8H11N/c1-5-6-2-7(3-6)8(5)4-9/h5-8H,2-3H2,1H3	InChI=1S/C8H11N/c1-5-6-2-7(3-6)8(5)4-9/h5-8H,2-3H2,1H3/t5-,6-,7+,8-/m0/s1
