23
gdb 114949	3.95467	0.82609	0.73284	0.8374	89.37	-0.2276	0.0302	0.2578	1651.4703	0.205128	-388.303398	-388.293391	-388.292446	-388.338992	36.6	
C	-0.0554984152	 1.5500629233	 0.2842357925	-0.373183
C	-0.0741254805	 0.0680134196	-0.1304944603	-0.289826
C	-1.4389726072	-0.5510382244	-0.0751108551	 0.340945
C	-2.1401049749	-1.0438604574	-1.0998375843	-0.179259
C	-3.4964275928	-1.5591208327	-0.6893679878	-0.282024
C	-3.3829656622	-1.6153139085	 0.8615465383	 0.147189
C	-2.2266198476	-0.658702062	 1.2149834964	-0.340115
O	-4.5466726878	-1.2286883272	 1.5626101887	-0.242775
C	-5.596706883	-2.1626929016	 1.479283634	-0.235359
H	 0.9592015632	 1.9560891074	 0.2294193521	 0.112314
H	-0.6967564378	 2.1470355641	-0.3719426628	 0.120111
H	-0.4125057094	 1.6826250286	 1.3103870351	 0.12181
H	 0.3293989431	-0.0341653383	-1.1443328885	 0.099391
H	 0.6035794714	-0.4885911312	 0.5329739442	 0.100474
H	-1.7974370973	-1.0536471071	-2.1299218993	 0.081454
H	-4.2972522567	-0.8622434011	-0.9770106504	 0.109837
H	-3.7436367458	-2.5291229222	-1.1353925114	 0.096899
H	-3.1084197688	-2.6421539796	 1.1548140153	 0.06461
H	-1.6267400443	-1.0195347452	 2.0585559889	 0.097799
H	-2.6432041421	 0.3115314732	 1.5170923149	 0.118653
H	-6.4145167587	-1.7891249026	 2.1007785969	 0.124234
H	-5.9667680627	-2.2862152709	 0.4503728354	 0.10576
H	-5.2907006126	-3.1529921244	 1.8538607072	 0.10106
52.5558	70.423	111.1151	155.7351	194.9861	212.2607	260.5394	294.3798	359.4508	427.1312	454.9669	491.8002	613.6615	636.7875	787.6167	843.4051	852.7499	867.4737	923.4714	965.7746	986.1008	1006.9742	1040.5383	1063.8742	1091.5098	1098.1242	1145.899	1159.2838	1182.693	1195.4459	1197.3555	1249.7259	1264.5927	1294.8515	1297.6378	1333.0242	1355.3596	1369.8817	1391.2621	1407.6017	1479.0066	1480.1052	1481.5576	1486.3803	1494.5122	1498.6949	1507.7855	1510.4624	1717.6647	2956.83	2970.9366	3002.241	3002.9488	3018.2964	3019.6304	3036.2684	3052.9981	3056.6218	3057.8991	3107.3628	3108.7636	3109.3288	3176.2492
CCC1=CCC(C1)OC	CCC1=CC[C@@H](C1)OC	
InChI=1S/C8H14O/c1-3-7-4-5-8(6-7)9-2/h4,8H,3,5-6H2,1-2H3	InChI=1S/C8H14O/c1-3-7-4-5-8(6-7)9-2/h4,8H,3,5-6H2,1-2H3/t8-/m0/s1
