17
gdb 108098	2.71638	1.5462	1.32783	1.846	67.41	-0.2303	0.0525	0.2828	1007.0871	0.135644	-458.876125	-458.868295	-458.867351	-458.908297	30.652	
O	 0.5332820181	-0.1035217843	-0.697535437	-0.422583
C	-0.3187876145	 0.43244364	 0.3077990771	-0.199035
C	-1.6619386922	-0.240067334	 0.2893309207	 0.221565
C	-2.8156140887	-0.2141423246	 1.29276121	-0.299365
C	-3.4022790974	-1.3932366833	 0.4730954709	-0.007051
O	-3.7433154211	-0.7934045779	-0.802535066	-0.286459
C	-2.3474636253	-0.6588202756	-1.0526644666	-0.033744
C	-1.9211425171	-1.6896624827	-0.0600435577	 0.25454
O	-1.0326773076	-2.736319681	-0.0405265359	-0.458418
H	 0.6273071865	-1.0459730021	-0.5132313928	 0.293846
H	 0.1349244482	 0.3417836663	 1.3082764176	 0.094271
H	-0.409397976	 1.503096133	 0.091568891	 0.116046
H	-2.4882326031	-0.5307824858	 2.2869417714	 0.107266
H	-3.4455292004	 0.6782650689	 1.357319296	 0.104453
H	-4.1611082935	-2.0714570073	 0.8576454085	 0.08939
H	-1.9918694368	-0.3658742049	-2.0302726412	 0.125694
H	-1.301845699	-3.3852207848	-0.7023272661	 0.299583
105.6581	145.916	219.2146	259.988	351.6037	404.5123	418.8293	457.6214	475.4211	565.5594	648.0354	653.7933	741.4631	808.1959	841.6486	921.3568	928.7353	958.6059	979.6966	1028.7029	1040.1309	1048.5784	1075.7255	1131.2748	1137.3414	1170.1184	1201.8322	1226.9298	1236.3086	1281.397	1306.7549	1337.723	1390.3121	1434.1012	1468.3267	1502.3747	1513.025	2969.1721	3050.0218	3057.2648	3111.8411	3145.5947	3228.559	3773.7882	3787.7508
OCC12CC3OC1C23O	OC[C@@]12C[C@H]3O[C@@H]1[C@@]23O	
InChI=1S/C6H8O3/c7-2-5-1-3-6(5,8)4(5)9-3/h3-4,7-8H,1-2H2	InChI=1S/C6H8O3/c7-2-5-1-3-6(5,8)4(5)9-3/h3-4,7-8H,1-2H2/t3-,4+,5+,6-/m1/s1
