15
gdb 79317	4.09602	1.24087	1.15822	5.0085	71.12	-0.2661	-0.0028	0.2633	1049.4315	0.113727	-416.746784	-416.739536	-416.738592	-416.778456	27.879	
O	-0.171393008	 1.5016048633	-0.1381653174	-0.432614
C	-0.0068801146	 0.1114396582	-0.0868888539	 0.144532
C	-1.2889481695	-0.7073540902	-0.0758758674	-0.125382
N	-1.7577044936	-0.9591491354	-1.4705278674	-0.172296
C	-0.7572882745	-0.2470925669	-2.3462877138	-0.151373
C	 0.3668540311	-0.6651319283	-1.3904517277	-0.204424
C	-0.63966663	-1.7762418874	-0.8974028148	 0.306383
C	-0.587554489	-3.1865727106	-0.7801998318	 0.123446
N	-0.5027500087	-4.3370789267	-0.6844279448	-0.352415
H	 0.6791626796	 1.9235537554	 0.0190051961	 0.2928
H	 0.635649462	-0.2035536899	 0.7448213475	 0.094557
H	-2.0238483612	-0.8172221955	 0.7099106552	 0.127848
H	-0.7266869547	-0.7575626623	-3.3101609923	 0.125489
H	-0.941559351	 0.8226662705	-2.4697666549	 0.127255
H	 1.4016899422	-0.8019843742	-1.6944779828	 0.096195
119.5089	151.9611	252.0701	269.2139	322.2205	454.7377	475.4142	539.6266	582.0412	636.8791	720.567	754.1538	834.6288	866.9043	935.569	955.4343	983.0717	993.7522	1028.1694	1046.4322	1085.686	1133.7335	1160.6689	1185.0612	1193.9632	1232.4398	1253.0412	1308.0208	1319.4337	1391.0845	1438.8289	1499.966	2348.4667	3034.4795	3074.2119	3139.8244	3153.4509	3221.4981	3824.3299
OC1C2N3CC1C23C#N	O[C@H]1[C@H]2N3C[C@@H]1[C@@]23C#N	
InChI=1S/C6H6N2O/c7-2-6-3-1-8(6)5(6)4(3)9/h3-5,9H,1H2	InChI=1S/C6H6N2O/c7-2-6-3-1-8(6)5(6)4(3)9/h3-5,9H,1H2/t3-,4+,5+,6-,8?/m0/s1
