19
gdb 30275	2.99333	1.56072	1.13372	1.5145	82.03	-0.17	0.0546	0.2246	1100.4588	0.162795	-382.099207	-382.091315	-382.090371	-382.131458	31.107	
C	 0.0861166397	 1.5892892715	-0.0546623829	-0.384258
C	-0.0287141308	 0.0578705431	 0.0235896223	-0.136797
C	 0.7452247493	-0.69462402	-1.1250286993	-0.179527
N	 2.0205803928	-1.256435874	-0.5692884007	-0.417023
C	 1.7898119528	-1.180903085	 0.8191069388	 0.322001
C	 0.6563064124	-0.5376233394	 1.2282204149	 0.285901
C	 0.6098383542	-0.6370946908	 2.6488580613	-0.337344
C	 1.727101664	-1.3470850164	 3.0346552799	-0.081227
N	 2.4526855243	-1.6842429439	 1.8972986117	-0.368582
H	 1.1363998623	 1.9014093475	-0.0539009757	 0.107977
H	-0.3863817087	 1.9784071687	-0.9639086255	 0.103475
H	-0.3983351017	 2.0617120796	 0.8058291418	 0.116331
H	-1.0892527251	-0.2123735393	-0.0384288155	 0.074248
H	 0.1408506488	-1.5343933004	-1.4827355587	 0.114344
H	 0.9618314424	-0.0491883615	-1.9809810388	 0.09773
H	 2.8176592547	-0.6932313668	-0.8555844157	 0.225614
H	-0.1392637315	-0.2454949539	 3.3206257433	 0.087727
H	 2.0702848891	-1.6494407343	 4.0105912486	 0.111168
H	 3.2827016609	-2.2497905847	 1.8789895401	 0.258244
93.5421	142.3012	232.8399	252.4056	294.1446	396.3102	423.6319	462.9591	618.1005	620.8663	644.0049	683.5447	712.2391	733.9344	812.5025	830.8097	853.4423	921.9685	941.1289	973.8154	1020.52	1074.0252	1075.984	1093.8773	1132.4541	1158.098	1233.0052	1258.2976	1279.7718	1334.8229	1354.2774	1365.1734	1401.0603	1402.8974	1433.9548	1490.5465	1492.8684	1496.6318	1501.3646	1540.7554	1629.0669	3023.0004	3026.0585	3047.6691	3091.8417	3093.5878	3101.4206	3239.3797	3270.1631	3466.1215	3685.7323
CC1CNC2=C1C=CN2	C[C@H]1CNc2c1cc[nH]2	
InChI=1S/C7H10N2/c1-5-4-9-7-6(5)2-3-8-7/h2-3,5,8-9H,4H2,1H3	InChI=1S/C7H10N2/c1-5-4-9-7-6(5)2-3-8-7/h2-3,5,8-9H,4H2,1H3/t5-/m0/s1
