21
gdb 88211	3.29557	1.17218	1.01401	2.3654	78.58	-0.2374	0.0782	0.3156	1230.7905	0.183867	-424.21617	-424.207788	-424.206844	-424.248783	33.355	
O	-0.0092065792	 1.4007497981	-0.0425219605	-0.421674
C	 0.0062711632	 0.0026553215	 0.011046285	 0.026586
C	-0.4730413375	-0.7066137742	 1.2578098868	-0.373991
C	-1.3168733691	-0.6973193106	-0.0099464165	 0.347777
C	-2.6021965864	 0.1151049898	-0.01768647	-0.264521
C	-3.7720721411	-0.7717324862	 0.4195731386	-0.076633
O	-3.8755239679	-1.940431362	-0.3791248012	-0.246689
C	-2.7121933249	-2.7459738704	-0.303081551	-0.068333
C	-1.4699434712	-1.9918121422	-0.7920969501	-0.282031
H	 0.6923058276	 1.7275478278	 0.5300824654	 0.287905
H	 0.8209469474	-0.4623949488	-0.5466744425	 0.081149
H	 0.0229172191	-1.624013298	 1.5594410332	 0.106209
H	-0.8025472718	-0.0778557911	 2.0789530632	 0.109912
H	-2.5203474566	 0.9906399152	 0.6315352103	 0.102187
H	-2.7968156143	 0.4823723355	-1.0331809115	 0.105387
H	-3.6523913621	-1.0512215942	 1.480748398	 0.082734
H	-4.7259609486	-0.2467371921	 0.3139726686	 0.103267
H	-2.5547211194	-3.086740086	 0.7350964069	 0.083785
H	-2.908749743	-3.6266795566	-0.92155535	 0.102993
H	-1.5907026478	-1.7663974846	-1.8595997122	 0.105486
H	-0.5828546667	-2.6275426708	-0.6883734706	 0.088495
111.6612	165.8718	194.3189	267.7095	303.5765	309.9225	369.2579	416.1672	452.853	487.2954	520.0918	632.6543	684.0186	819.0477	830.5738	859.5659	895.3521	914.7499	955.3948	983.1274	1016.3358	1030.0767	1038.0551	1064.1186	1094.3147	1130.5316	1138.8381	1166.2144	1203.1479	1219.067	1256.2864	1269.2334	1309.2742	1317.9291	1340.9957	1361.0145	1382.401	1388.3676	1419.5644	1430.4638	1469.6208	1482.0158	1490.1921	1493.3592	1502.8169	2953.8647	2959.8968	3020.8514	3033.4977	3067.5657	3081.4031	3082.5237	3084.1598	3099.405	3120.9811	3209.0707	3807.8107
OC1CC11CCOCC1	O[C@H]1CC21CCOCC2	
InChI=1S/C7H12O2/c8-6-5-7(6)1-3-9-4-2-7/h6,8H,1-5H2	InChI=1S/C7H12O2/c8-6-5-7(6)1-3-9-4-2-7/h6,8H,1-5H2/t6-/m0/s1
