20
gdb 113881	3.99445	0.71625	0.65858	1.5465	76.27	-0.2441	-0.0141	0.23	1721.7046	0.168884	-440.273897	-440.263649	-440.262704	-440.310899	36.004	
C	-0.0175814793	 1.4246420465	 0.4538429617	-0.475774
C	 0.0842895996	-0.0619864731	 0.1695279461	 0.3893
O	 1.1262291037	-0.666311892	 0.2759095067	-0.293347
C	-1.2087979452	-0.747935584	-0.275408932	-0.326371
C	-1.1136781034	-2.2541631158	-0.2238756671	-0.000784
N	-1.6608383864	-2.915094467	 0.9747186829	-0.352388
C	-2.2689181314	-3.1814494518	-0.3465144168	-0.054522
C	-3.7145267443	-2.7544267959	-0.4638267302	-0.06225
O	-4.5448202219	-3.5562302913	 0.3584324612	-0.421507
H	 0.9775876312	 1.8476155978	 0.5956578861	 0.14396
H	-0.537382619	 1.9455144658	-0.357453898	 0.134977
H	-0.6102249497	 1.5818558457	 1.3629448412	 0.147378
H	-2.0384401988	-0.383931025	 0.3382128831	 0.127178
H	-1.4122475582	-0.4030443991	-1.3005187996	 0.127458
H	-0.1619287864	-2.6282624282	-0.591415681	 0.107693
H	-1.0624746378	-3.6854544266	 1.2583585481	 0.238294
H	-2.0598634122	-4.1522467677	-0.793451707	 0.090916
H	-3.8209697067	-1.6887313184	-0.2146751562	 0.083317
H	-4.0694651478	-2.8912403113	-1.4909704137	 0.107706
H	-4.1615150258	-3.5041443685	 1.2424841845	 0.288764
35.7983	50.7767	79.9183	118.2864	126.6361	195.7066	257.6657	327.194	425.7326	441.0524	458.1156	480.3713	548.2006	599.6346	787.8469	809.5152	853.4798	864.5626	917.7072	953.244	983.9715	988.9049	1044.895	1062.9049	1072.3124	1144.8858	1168.1573	1184.5038	1213.0903	1255.15	1275.3723	1281.2838	1329.4172	1365.4124	1382.5225	1404.9302	1433.441	1444.2125	1463.0044	1476.8474	1485.7768	1501.4638	1814.6462	2999.9278	3010.5337	3035.9434	3071.3973	3084.7069	3097.5507	3119.8724	3151.2977	3152.7777	3513.4208	3785.318
CC(=O)CC1NC1CO	CC(=O)C[C@H]1N[C@H]1CO	
InChI=1S/C6H11NO2/c1-4(9)2-5-6(3-8)7-5/h5-8H,2-3H2,1H3	InChI=1S/C6H11NO2/c1-4(9)2-5-6(3-8)7-5/h5-8H,2-3H2,1H3/t5-,6+/m1/s1
