23
gdb 115204	3.6718	0.92001	0.78747	3.1032	86.08	-0.2326	-0.0092	0.2234	1513.6336	0.206739	-388.341634	-388.332306	-388.331362	-388.375968	35.532	
C	-0.1358687079	 1.5702379885	 0.1194533223	-0.393211
C	-0.0017754386	 0.0471455236	 0.0202983834	-0.183831
C	 0.7291018154	-0.4588202012	-1.2349709537	 0.053997
C	 2.2096145232	-0.0411960365	-1.2738169867	-0.20742
C	 2.9294658277	-0.5524475805	-2.5375873348	-0.304829
C	 2.7493018025	-2.0518107286	-2.7308130389	 0.395886
O	 3.6738453479	-2.7974931324	-2.9572961886	-0.309037
C	 1.3100691357	-2.5354233423	-2.6159619041	-0.307856
C	 0.6219112878	-1.9889119383	-1.3508067896	-0.21353
H	 0.8360416858	 2.0649273497	 0.2091122913	 0.11996
H	-0.6377111633	 1.9809351731	-0.7640634071	 0.113875
H	-0.7267551729	 1.8523756212	 0.9963206026	 0.115017
H	 0.512649547	-0.3365105116	 0.9121532698	 0.095327
H	-1.0050224377	-0.3978732978	 0.0375377434	 0.093229
H	 0.2314567386	-0.0190914127	-2.1144287796	 0.064934
H	 2.3086696261	 1.0474437546	-1.2222514708	 0.102161
H	 2.7142903688	-0.4419480596	-0.3835535517	 0.103228
H	 2.5009393377	-0.0530450679	-3.4188069433	 0.113737
H	 3.9988748897	-0.3289485859	-2.5186035779	 0.116262
H	 0.7688708633	-2.1731642372	-3.5021205372	 0.113354
H	 1.3049016566	-3.6275945413	-2.6482157344	 0.116309
H	 1.0809587577	-2.4470620526	-0.4638242476	 0.104075
H	-0.4304065212	-2.2950082343	-1.3459165167	 0.098362
64.8398	92.5724	161.8047	176.1523	220.4889	258.5349	344.1375	389.1772	421.1871	450.2134	480.6943	507.2229	684.0085	747.2499	761.3917	768.3858	841.5415	909.9729	916.41	938.8866	978.1726	1020.7885	1028.2885	1057.8375	1071.1719	1102.5352	1135.858	1149.1365	1186.5396	1233.846	1261.783	1267.6771	1292.7943	1306.3502	1328.7809	1347.9795	1355.4252	1373.9329	1388.1931	1396.8047	1414.5626	1461.6014	1471.9482	1483.21	1490.9157	1499.8707	1503.9038	1509.598	1818.6221	2973.6127	3006.5602	3009.6069	3013.8492	3015.3279	3022.9523	3033.5212	3044.399	3062.8534	3076.9492	3099.081	3103.1375	3104.6743	3108.4124
CCC1CCC(=O)CC1	CCC1CCC(=O)CC1	
InChI=1S/C8H14O/c1-2-7-3-5-8(9)6-4-7/h7H,2-6H2,1H3	InChI=1S/C8H14O/c1-2-7-3-5-8(9)6-4-7/h7H,2-6H2,1H3
