17
gdb 91882	2.42491	1.69962	1.09168	4.8702	68.55	-0.2653	-0.0152	0.2501	1093.7075	0.136066	-458.984243	-458.976345	-458.9754	-459.016922	29.763	
C	 0.0205932329	 1.5295992733	 0.0704978728	-0.399768
C	-0.0194532939	 0.0174079665	-0.0688049547	 0.123477
C	 0.7870770613	-0.5093259946	-1.2555519504	-0.242899
C	 0.9272883387	-2.0194901489	-1.1930359917	 0.027855
O	 2.0655983051	-2.4959768242	-0.4806908426	-0.232693
C	 0.7725923981	-2.6801373048	 0.1155144235	-0.107277
C	 0.5685383272	-1.8520171781	 1.3601358045	 0.433787
O	 0.5601837059	-2.3346932559	 2.4584813357	-0.323488
O	 0.463552252	-0.5135621387	 1.1919511618	-0.244613
H	 1.050342147	 1.8725719601	 0.2076495067	 0.135695
H	-0.3888921591	 2.0031300716	-0.826755208	 0.121938
H	-0.5673631857	 1.8493241119	 0.933986078	 0.138172
H	-1.0619443616	-0.3134111388	-0.176195592	 0.093388
H	 0.284932367	-0.2104241295	-2.1811533429	 0.114401
H	 1.7873342658	-0.0630504896	-1.2612643062	 0.13117
H	 0.6920438772	-2.5914077504	-2.0892967867	 0.106605
H	 0.445424132	-3.7123141796	 0.207134072	 0.12425
78.9552	129.3521	225.4469	232.2737	280.4088	388.4382	430.1819	444.301	468.9951	547.2292	663.0595	768.3554	808.3216	824.0279	880.7235	890.0907	932.6963	992.563	1004.563	1064.5457	1086.0794	1131.1501	1144.4196	1166.4147	1240.1321	1266.7672	1274.4814	1324.3983	1363.3555	1387.3983	1397.8279	1413.9838	1442.6923	1466.5345	1484.4453	1499.3451	1849.4332	3007.7247	3045.5552	3050.0044	3095.3745	3121.172	3124.0098	3131.1743	3157.785
CC1CC2OC2C(=O)O1	C[C@H]1C[C@H]2O[C@H]2C(=O)O1	
InChI=1S/C6H8O3/c1-3-2-4-5(9-4)6(7)8-3/h3-5H,2H2,1H3	InChI=1S/C6H8O3/c1-3-2-4-5(9-4)6(7)8-3/h3-5H,2H2,1H3/t3-,4+,5+/m0/s1
