21
gdb 82592	2.1893	1.99057	1.53075	1.6625	80.99	-0.2337	0.0761	0.3098	1001.3939	0.183428	-387.04666	-387.038708	-387.037764	-387.078737	31.828	
C	 0.0895497324	 1.5469457515	-0.3750286206	-0.426532
C	 0.1968793689	 0.0331006282	-0.266184457	 0.036709
C	 1.1643693966	-0.7435977428	-1.1869462925	 0.085327
O	 2.5187066015	-0.2374375907	-1.0943143759	-0.309784
C	 2.7825773362	-1.0324977165	 0.0877520352	 0.085337
C	 2.2760754055	-0.3381489991	 1.3716518715	 0.036718
C	 2.729626809	 1.0754914728	 1.7047743936	-0.426523
C	 0.8141061904	-0.7132706843	 0.9618218703	-0.120542
C	 1.4227624509	-1.7666161861	-0.0496038092	-0.095004
H	 1.073198803	 2.0058371336	-0.4908001202	 0.134874
H	-0.5113132052	 1.8271182506	-1.2476187912	 0.110369
H	-0.3902925666	 1.9804372502	 0.5090680824	 0.111928
H	-0.7947074461	-0.4179209126	-0.4127564866	 0.073165
H	 0.8828433461	-0.9589821612	-2.220636887	 0.069575
H	 3.7808244477	-1.4763577917	 0.062149871	 0.069574
H	 2.5269517164	-1.0110771403	 2.2037494404	 0.073168
H	 2.7314939415	 1.7099494781	 0.8165194399	 0.134857
H	 2.0818500141	 1.5386470898	 2.4568828809	 0.111923
H	 3.7488549414	 1.0664064858	 2.1073229114	 0.110376
H	 0.129740908	-0.9612838629	 1.7743827412	 0.061892
H	 1.2457479782	-2.8381142124	-0.0677227377	 0.072594
131.3827	157.2013	191.1702	247.3429	274.158	274.2795	465.9322	517.5178	594.154	611.7864	673.8548	750.1926	827.0073	836.8593	838.627	855.5174	899.5565	915.4237	952.4056	980.5206	1005.866	1045.7845	1073.7947	1097.0316	1099.307	1132.5197	1144.5373	1151.249	1162.5551	1180.3273	1194.8008	1218.4443	1274.4396	1288.2852	1293.8643	1334.5516	1351.3963	1361.9363	1384.0923	1398.7352	1407.9914	1482.8274	1495.0183	1495.0917	1517.8369	3006.3998	3007.7227	3032.7282	3035.4658	3074.3255	3078.1306	3089.4471	3091.5657	3092.9054	3125.8276	3138.2911	3155.7477
CC1C2OC3C(C)C1C23	C[C@H]1[C@H]2O[C@H]3[C@@H](C)[C@@H]1[C@@H]23	
InChI=1S/C8H12O/c1-3-5-4(2)8-6(5)7(3)9-8/h3-8H,1-2H3	InChI=1S/C8H12O/c1-3-5-4(2)8-6(5)7(3)9-8/h3-8H,1-2H3/t3-,4+,5-,6+,7-,8+
