22
gdb 118270	5.18816	0.53755	0.50585	4.1338	84.33	-0.2817	0.0402	0.3219	2174.295	0.19231	-404.376507	-404.365535	-404.364591	-404.413597	38.695	
C	-0.1306924554	 1.5833176106	 0.0094337858	-0.383452
C	-0.0479959754	 0.0550768183	-0.0042252009	-0.165179
C	 0.7415378602	-0.4909744688	-1.1990147832	-0.195077
C	 0.780108728	-2.0214962555	-1.2601853762	 0.11624
O	-0.5304395313	-2.5849858492	-1.3223506567	-0.427974
C	 1.6520817929	-2.5315860067	-2.4155357207	-0.203163
C	 1.7069077208	-4.0709903312	-2.4486660009	-0.340201
C	 2.4551522854	-4.5840292455	-3.5924403344	 0.25437
N	 3.0498572165	-4.9716375758	-4.5045291691	-0.308376
H	 0.8661400215	 2.0364316824	 0.05108689	 0.1147
H	-0.6266556957	 1.962490051	-0.891224874	 0.113427
H	-0.695536795	 1.9425408466	 0.8750202422	 0.116002
H	 0.4205339103	-0.2969691992	 0.9242065657	 0.097294
H	-1.0542099333	-0.3772585615	-0.0169350063	 0.108688
H	 0.3059297171	-0.1123616898	-2.1370137248	 0.086809
H	 1.7710777938	-0.1105583881	-1.1712223711	 0.100272
H	 1.1895382934	-2.4040502838	-0.3150875236	 0.090389
H	-0.9824779812	-2.1928845302	-2.0788472357	 0.280773
H	 1.2500722491	-2.1615606114	-3.3673281998	 0.111011
H	 2.6649121754	-2.1254127707	-2.3231264484	 0.120132
H	 2.167753815	-4.4533137043	-1.5301436409	 0.14937
H	 0.6873704379	-4.4679536773	-2.4751799369	 0.163946
51.6084	74.7603	80.4791	106.5669	141.9032	181.0907	252.4814	257.7512	311.5541	329.5515	365.2073	397.9134	466.7496	529.0963	588.6338	745.8417	771.7127	850.9972	893.6991	908.3339	951.5659	995.1686	1024.8538	1042.0158	1069.2936	1095.3609	1112.5131	1146.2573	1178.2555	1241.9702	1259.5497	1290.1404	1307.3322	1317.1826	1356.4324	1363.6565	1389.7341	1398.8674	1415.5993	1419.0854	1468.8895	1477.0908	1489.5389	1494.432	1501.2641	1511.1886	2361.4454	2990.3394	3017.7096	3025.2429	3029.8416	3033.7241	3042.9356	3048.6631	3071.1408	3079.4081	3097.8497	3100.4041	3104.4789	3787.9952
CCCC(O)CCC#N	CCC[C@@H](O)CCC#N	
InChI=1S/C7H13NO/c1-2-4-7(9)5-3-6-8/h7,9H,2-5H2,1H3	InChI=1S/C7H13NO/c1-2-4-7(9)5-3-6-8/h7,9H,2-5H2,1H3/t7-/m1/s1
