17
gdb 38542	3.14206	1.78088	1.27939	2.8534	73.52	-0.2235	0.0219	0.2454	972.5417	0.138818	-417.955834	-417.949016	-417.948071	-417.986788	27.738	
C	-0.04888433	 1.4204413971	 0.2184686833	-0.332138
C	 1.272500805	 0.7692705128	-0.0203747683	-0.011454
O	 1.6864327991	 0.0418463448	 1.1827739172	-0.28904
C	 0.6126328203	-0.8162310647	 0.9896836689	 0.460753
N	 0.399473749	-1.967158721	 1.4357541356	-0.345901
C	-0.7379250554	-2.6190326728	 0.7507392733	-0.163342
C	-1.5692292171	-1.7423524314	-0.2296231611	-0.195767
N	-0.7836512219	-0.7968397054	-1.067299514	-0.397476
C	 0.0106302493	-0.0644865562	-0.1297817224	 0.198473
H	-0.3112125002	 1.7635401096	 1.2151623177	 0.129207
H	-0.4143849535	 2.0287167052	-0.6045467429	 0.131195
H	 2.0522007196	 1.0464955691	-0.7164450928	 0.132105
H	-0.3213833273	-3.4839930972	 0.2164530273	 0.110292
H	-1.4135490678	-3.0305976697	 1.5097152785	 0.115777
H	-2.152437665	-2.3916060614	-0.8892424582	 0.107998
H	-2.2823038081	-1.1341391084	 0.3382510464	 0.121198
H	-0.1765408159	-1.3311889506	-1.6849311985	 0.228119
153.5167	222.0263	259.3172	364.381	418.6768	457.9178	480.9184	564.8068	645.4233	710.0416	764.6678	800.3783	843.1396	867.6717	878.5894	910.5451	941.8527	955.2854	1018.2214	1035.9229	1045.3285	1078.0239	1093.2215	1120.3005	1145.3871	1251.0879	1255.2268	1264.158	1284.37	1359.6149	1365.9757	1411.9893	1448.6799	1476.43	1488.1579	1489.8463	1831.1194	3013.314	3039.7091	3057.7069	3094.8871	3114.7696	3209.591	3221.0383	3480.9838
C1C2OC3=NCCNC123	C1[C@H]2O[C]3[N]CCN[C@]123	
InChI=1S/C6H8N2O/c1-2-8-6-3-4(6)9-5(6)7-1/h4,8H,1-3H2	InChI=1S/C6H8N2O/c1-2-8-6-3-4(6)9-5(6)7-1/h4,8H,1-3H2/t4-,6-/m1/s1
