19
gdb 110039	2.06159	1.7128	1.06769	3.4836	71.82	-0.2472	0.0019	0.2491	1165.0472	0.158862	-460.198974	-460.189808	-460.188864	-460.233093	32.986	
C	-0.6024806676	 1.1474925239	-0.0906913529	-0.245751
O	-0.256430097	-0.229141043	-0.105697222	-0.256263
C	 0.7685846471	-0.5588910569	-1.0248956118	-0.023976
C	 1.1751537241	-2.0222144508	-0.8350143143	-0.036247
C	 1.258850633	-2.5186691791	 0.6048345408	-0.41511
C	 0.125445579	-2.7389769971	-1.7016964272	-0.084415
O	-0.1797752224	-1.8310403199	-2.7764877271	-0.220401
C	 0.17699082	-0.563234967	-2.4491880864	 0.430523
O	-0.0138906166	 0.3724728478	-3.173141855	-0.346032
H	 0.2645246461	 1.7677585184	 0.181152962	 0.110202
H	-0.9828791998	 1.4848689262	-1.0612967487	 0.144643
H	-1.3786831788	 1.2647812002	 0.6684943556	 0.129158
H	 1.6024096055	 0.1512902435	-0.9538045026	 0.087812
H	 2.1490649755	-2.1429793912	-1.3257361461	 0.094014
H	 0.3166279288	-2.349274467	 1.1297638843	 0.142766
H	 1.4865883763	-3.5893324193	 0.6307800325	 0.11712
H	 2.0489939421	-1.9971051562	 1.1530769604	 0.123283
H	 0.4840949955	-3.6706300597	-2.1443457357	 0.12324
H	-0.7939882308	-2.9391213229	-1.1403240158	 0.125434
74.9024	114.6234	175.9672	191.594	204.0737	212.3389	248.3804	298.1708	386.732	450.4362	537.0866	622.0229	688.4481	738.8639	873.5899	889.181	935.9941	960.7043	971.4821	1053.198	1079.7055	1124.0792	1139.1867	1177.9077	1187.4659	1200.1713	1217.7713	1245.2326	1272.6342	1346.9521	1356.4786	1366.8461	1406.7634	1416.7652	1478.4759	1485.7828	1494.4671	1502.371	1513.9192	1518.5786	1869.8745	2995.4897	3022.9673	3035.5804	3044.2589	3049.4274	3072.501	3106.616	3112.2947	3127.9206	3135.9869
COC1C(C)COC1=O	CO[C@H]1[C@@H](C)COC1=O	
InChI=1S/C6H10O3/c1-4-3-9-6(7)5(4)8-2/h4-5H,3H2,1-2H3	InChI=1S/C6H10O3/c1-4-3-9-6(7)5(4)8-2/h4-5H,3H2,1-2H3/t4-,5-/m0/s1
