22
gdb 59462	2.89077	0.95923	0.9072	3.7526	79.08	-0.249	0.0636	0.3126	1443.5045	0.192481	-441.459665	-441.44926	-441.448316	-441.495235	38.792	
C	 0.0150243837	 1.4304879133	-0.3555467164	-0.409914
C	 0.0784448486	 0.0174775893	 0.2212727982	 0.123604
O	 0.5872667677	 0.0106122261	 1.5546362136	-0.433366
C	-1.2804607252	-0.6621130109	 0.1908687248	-0.031755
N	-1.7606609922	-1.2157794472	-1.0890557292	-0.365884
C	-1.4830932536	-2.1246130099	 0.041244085	-0.04699
C	-0.3596908678	-3.1351583643	-0.2076199125	 0.12648
C	-0.9324599645	-4.5328170687	-0.4661221942	-0.395021
O	 0.4604002963	-2.7238737861	-1.2887545955	-0.432925
H	 0.9993650942	 1.9040442591	-0.3097603626	 0.125279
H	-0.317400738	 1.4081228508	-1.3978005235	 0.12821
H	-0.6914273273	 2.0538042573	 0.209335287	 0.09687
H	 0.7825685461	-0.5867981558	-0.3542758026	 0.119898
H	 0.0545628126	 0.6211301079	 2.076571017	 0.273499
H	-2.0277398916	-0.1476709981	 0.7998815602	 0.071862
H	-2.7549471063	-1.0617483275	-1.2207658595	 0.237954
H	-2.3421522642	-2.5399127837	 0.5652341108	 0.084864
H	 0.2823626542	-3.1689238853	 0.6820739538	 0.099117
H	-1.6125749191	-4.5173192593	-1.3251825744	 0.111787
H	-0.1205182703	-5.2302310327	-0.686733806	 0.124464
H	-1.4837372268	-4.9054305949	 0.4047501009	 0.10475
H	-0.1229296565	-2.2037769995	-1.8643140647	 0.287216
47.1834	75.4658	132.1546	191.4371	241.0383	253.1918	272.4398	279.109	301.3014	362.1967	384.8764	438.7717	489.1496	548.9809	592.9952	649.4013	762.4616	829.4668	887.473	897.1216	935.0967	962.3531	972.7359	1027.3698	1059.2227	1073.4717	1093.8765	1109.4015	1126.3157	1151.0844	1188.9714	1231.2095	1266.6271	1295.4126	1306.841	1341.7772	1353.5447	1398.9731	1399.5422	1414.9716	1429.8991	1450.2822	1471.7801	1493.4994	1494.6264	1495.1693	1497.0771	3018.0525	3026.6384	3028.4137	3072.151	3087.2611	3096.5811	3112.673	3120.779	3122.5426	3125.025	3525.5993	3681.7368	3794.6285
CC(O)C1NC1C(C)O	C[C@@H](O)[C@H]1N[C@H]1[C@@H](C)O	
InChI=1S/C6H13NO2/c1-3(8)5-6(7-5)4(2)9/h3-9H,1-2H3	InChI=1S/C6H13NO2/c1-3(8)5-6(7-5)4(2)9/h3-9H,1-2H3/t3-,4-,5-,6+/m1/s1
