18
gdb 126480	2.00232	1.60501	0.95198	3.5857	74.71	-0.2295	-0.0011	0.2284	1249.5568	0.146935	-439.072747	-439.063737	-439.062793	-439.10707	32.307	
C	-0.3250974026	 1.4758820068	 0.1719014115	-0.383271
C	 0.1107466783	 0.0106970161	 0.0026354075	-0.293097
C	 0.7869862965	-0.5357864487	 1.2210217632	 0.297291
N	 2.0624363743	-0.8399852313	 1.2248638589	-0.199588
O	 2.3578992237	-1.3000232757	 2.5007953855	-0.176245
C	 1.237404302	-1.2645562822	 3.2543566327	-0.055393
C	 0.2066057678	-0.7903582878	 2.5038699866	 0.164088
O	-1.0958825653	-0.5722521339	 2.7866485825	-0.2606
C	-1.485180653	-0.8977250823	 4.1109997384	-0.255849
H	 0.5395650321	 2.1201810848	 0.3564655485	 0.127894
H	-0.829397133	 1.831816861	-0.7312557223	 0.116429
H	-1.0158993306	 1.58225189	 1.0128758109	 0.133277
H	-0.7682720676	-0.6060786193	-0.2191979646	 0.11754
H	 0.7998034223	-0.0888997376	-0.8408254587	 0.127801
H	 1.3356559553	-1.6016163604	 4.2723240064	 0.144125
H	-0.9311876618	-0.2954002368	 4.8433180966	 0.126754
H	-2.5503906697	-0.6774453092	 4.1893879538	 0.141964
H	-1.3141554987	-1.9620839235	 4.3201678925	 0.126878
62.65	95.75	144.5486	180.6178	212.6757	238.0649	303.4412	326.2496	438.8759	512.3222	602.7807	614.7845	724.7402	748.2546	772.9772	796.8731	915.8775	940.421	979.3423	1067.4414	1078.7266	1097.1059	1142.5747	1181.7606	1215.2092	1236.2465	1285.1119	1301.8826	1355.6316	1407.7319	1453.4437	1472.5261	1477.795	1485.8277	1497.6086	1506.0507	1508.754	1544.4296	1668.6745	3002.0893	3039.3907	3043.6462	3060.4429	3092.4783	3115.1894	3124.5837	3143.07	3280.5151
CCC1=NOC=C1OC	CCc1nocc1OC	
InChI=1S/C6H9NO2/c1-3-5-6(8-2)4-9-7-5/h4H,3H2,1-2H3	InChI=1S/C6H9NO2/c1-3-5-6(8-2)4-9-7-5/h4H,3H2,1-2H3
