18
gdb 40613	3.58978	1.41053	1.22277	2.0047	74.9	-0.2188	0.0566	0.2754	1049.6505	0.147703	-401.812973	-401.805529	-401.804585	-401.845382	29.167	
C	-0.2263577985	 1.6113801868	 0.1114190425	-0.171726
O	 0.9989738836	 0.9390970635	-0.168846593	-0.221219
C	-0.1892529983	 0.1523127949	-0.0692299317	 0.01231
C	-0.3544197595	-0.7620886292	 1.1182445044	-0.019636
C	-0.2261353578	-2.2349971118	 1.2234996492	-0.067037
C	 0.9474849031	-2.9293137859	 0.5120414885	-0.083861
C	 1.8349680867	-1.9912835511	-0.2594936004	-0.300004
C	 1.8510939997	-1.9609758771	 1.2407974127	 0.0141
N	 0.6977753237	-1.3244346677	 2.0010251287	-0.166067
H	-0.3114237932	 2.0182347006	 1.1185100444	 0.121992
H	-0.6091698069	 2.2481520985	-0.6850508471	 0.114923
H	-0.5401631119	-0.2435705355	-1.023060056	 0.106842
H	-1.1494906817	-0.4016518574	 1.7727170666	 0.107946
H	-0.9781837439	-2.8184871185	 1.7479648709	 0.094459
H	 1.0129707981	-4.0061766025	 0.4358758771	 0.095163
H	 2.7150531454	-2.4894321198	-0.6590607679	 0.114626
H	 1.4873775099	-1.1832971226	-0.8842380537	 0.142523
H	 2.7475668314	-2.1305876453	 1.8222745847	 0.104667
52.5309	136.939	182.3577	305.3018	344.3525	435.5843	549.4468	642.054	672.0566	701.193	747.783	758.0103	830.2113	877.1709	891.0227	922.5333	941.634	953.1726	988.8514	1019.5827	1040.6569	1058.2055	1066.0694	1076.5593	1089.2831	1105.1274	1149.2188	1160.7336	1175.4373	1192.6108	1261.8729	1275.6602	1289.401	1338.0286	1365.4933	1385.7234	1452.4328	1499.8718	1524.2454	3080.3813	3090.8488	3097.8109	3137.7791	3140.4314	3169.5132	3194.6909	3206.3868	3257.8864
C1OC1C1C2C3CC3N12	C1O[C@H]1[C@H]1[C@H]2[C@H]3C[C@H]3N12	
InChI=1S/C7H9NO/c1-3-4(1)8-6(3)7(8)5-2-9-5/h3-7H,1-2H2	InChI=1S/C7H9NO/c1-3-4(1)8-6(3)7(8)5-2-9-5/h3-7H,1-2H2/t3-,4+,5+,6+,7-,8?/m0/s1
