18
gdb 29553	2.34016	1.75381	1.01489	5.7944	83.32	-0.2071	-0.0061	0.201	1161.2982	0.148622	-402.026151	-402.017412	-402.016468	-402.059343	32.692	
C	-0.0125005586	 1.5115085303	 0.019546289	-0.471682
C	-0.0025289704	 0.0123907196	-0.0246330137	 0.139839
C	-0.0356014793	-0.6832419468	-1.188635996	-0.065161
N	-0.0256960715	-2.0520995558	-1.209055709	-0.334047
C	 0.0179824549	-2.7745330944	-0.046984286	-0.065141
C	 0.0534672061	-2.1703037052	 1.1669257115	 0.139839
C	 0.1018787821	-2.9431941856	 2.4513448162	-0.471686
C	 0.045177969	-0.7046714915	 1.2558770314	 0.241919
O	 0.0763334711	-0.1136056602	 2.3370927404	-0.394063
H	 0.8759528359	 1.8851969215	 0.5394124905	 0.141248
H	-0.0483436746	 1.9493169566	-0.9821133268	 0.102373
H	-0.8709849146	 1.8719367785	 0.596057412	 0.141224
H	-0.0712604236	-0.2031131912	-2.1602457884	 0.122909
H	-0.051929411	-2.5342181776	-2.0909622942	 0.264678
H	 0.022163584	-3.8520810353	-0.168219442	 0.122908
H	 0.1019292251	-4.0231616832	 2.2782598208	 0.102374
H	 0.9946571572	-2.6752879359	 3.0262074696	 0.141177
H	-0.7522153917	-2.6847053538	 3.0861042847	 0.141292
107.6198	130.493	131.3215	258.5437	259.9867	277.4762	300.8329	439.1608	475.2486	475.9546	500.7073	564.637	572.0471	675.6444	796.3844	865.9643	867.8978	896.3505	931.2165	1006.1804	1050.9352	1063.4117	1065.1068	1108.5017	1240.9644	1259.8106	1266.3326	1389.2723	1403.5795	1415.1465	1415.2579	1464.3023	1465.5905	1486.5128	1489.9643	1550.4944	1647.783	1686.3324	1703.9927	3034.5703	3035.1706	3091.3437	3091.5726	3113.8351	3114.1046	3189.6363	3191.8858	3668.2782
CC1=CNC=C(C)C1=O	Cc1c[nH]cc(C)c1=O	
InChI=1S/C7H9NO/c1-5-3-8-4-6(2)7(5)9/h3-4H,1-2H3,(H,8,9)	InChI=1S/C7H9NO/c1-5-3-8-4-6(2)7(5)9/h3-4H,1-2H3,(H,8,9)
