15
gdb 43122	3.9234	1.57825	1.50313	2.2252	63.91	-0.2278	-0.0311	0.1967	880.5815	0.114578	-457.74001	-457.733888	-457.732944	-457.770444	24.835	
O	-0.0066219438	-0.0057775148	-0.0447572861	-0.311539
C	-0.0269930785	 1.1842086743	 0.0335182666	 0.462367
C	-1.0788171322	 2.3159246494	 0.0299051538	-0.092891
O	-0.815418364	 2.914871112	 1.3108570679	-0.28431
C	 0.6119653265	 3.2089057719	 1.1944810043	 0.05964
C	 0.6650611366	 4.6209421702	 0.6273181406	-0.075185
O	 0.0629067119	 4.4622461286	-0.6705554479	-0.27555
C	-0.0532909293	 3.0809719134	-0.89578929	 0.126617
C	 1.00358218	 2.3164453836	-0.0140946083	-0.259152
H	-2.1445454229	 2.2034652578	-0.1478097936	 0.104111
H	 1.1165134204	 3.0358265805	 2.1442026529	 0.103225
H	 0.0630331088	 5.3091134759	 1.2274039679	 0.126883
H	 1.6870932666	 5.0130374696	 0.5250578656	 0.100024
H	-0.1010455098	 2.858244856	-1.9601288218	 0.112957
H	 2.0528614097	 2.1972891916	-0.2677864219	 0.102803
147.6856	250.2046	322.0641	421.5105	511.5387	546.3412	649.4648	708.7803	726.5253	795.662	812.3726	840.2649	908.0773	926.4638	942.6173	973.6675	987.6527	1021.0382	1039.3127	1075.2343	1097.8241	1113.6463	1176.9155	1192.0544	1197.8491	1208.3932	1250.8556	1282.726	1322.0433	1322.6334	1387.4325	1501.2128	1915.2413	3005.0269	3092.4709	3132.2381	3144.2973	3169.9553	3174.8247
O=C1C2OC3COC2C13	O=C1[C@H]2O[C@@H]3CO[C@H]2[C@H]13	
InChI=1S/C6H6O3/c7-4-3-2-1-8-5(3)6(4)9-2/h2-3,5-6H,1H2	InChI=1S/C6H6O3/c7-4-3-2-1-8-5(3)6(4)9-2/h2-3,5-6H,1H2/t2-,3+,5+,6-/m1/s1
