23
gdb 101024	2.18338	1.23056	0.95214	0.3937	81.83	-0.2423	0.0673	0.3097	1375.6444	0.202833	-425.402221	-425.391428	-425.390484	-425.438082	39.728	
C	-1.6337548734	 1.3662496983	-1.6264880096	-0.387045
C	-1.7827063062	-0.1346231467	-1.3674233856	-0.187995
C	-1.6028006595	-0.5150413053	 0.1064969547	 0.052775
O	-2.5762939345	 0.1079887173	 0.9401754319	-0.431756
C	-1.5837150751	-2.035075943	 0.300963712	 0.426532
C	-1.9667077058	-2.6398931669	 1.6252153118	-0.328813
C	-2.8689415646	-2.7991058582	 0.4167316247	-0.323072
O	-0.5953988044	-2.6937967807	-0.4487695466	-0.286823
C	 0.7192131097	-2.5828382461	 0.0666431127	-0.25129
H	-1.8235976615	 1.607252995	-2.676713843	 0.110297
H	-2.3312953125	 1.9418789658	-1.0112819735	 0.121526
H	-0.6217151014	 1.7090004138	-1.3837766678	 0.113851
H	-2.7756872551	-0.4793309553	-1.6927446777	 0.085545
H	-1.0603835616	-0.7047027542	-1.9601944689	 0.116975
H	-0.6460927536	-0.1103203606	 0.4625132126	 0.082072
H	-3.437467005	-0.0197881978	 0.5275574319	 0.281567
H	-1.4163950855	-3.5156898748	 1.9502012274	 0.113142
H	-2.287941387	-1.9678497729	 2.4115066227	 0.128372
H	-3.8093384979	-2.2585201108	 0.4054771318	 0.094305
H	-2.8956941348	-3.7673930726	-0.0687295495	 0.122637
H	 1.3477563201	-3.2468753053	-0.5318012236	 0.125922
H	 1.1183992193	-1.562288789	-0.0127641637	 0.110301
H	 0.7694971301	-2.8937677202	 1.1188745454	 0.110973
57.6039	89.2801	108.5073	163.3235	197.0713	213.9307	250.7551	275.9821	300.9447	324.3553	331.9252	433.5248	464.8844	481.3811	585.5516	725.7244	775.8487	787.5431	858.8053	906.2208	923.5544	979.8107	990.4898	1004.0705	1049.3393	1074.6937	1078.9163	1096.6306	1099.7609	1138.9841	1180.4291	1192.2598	1212.2652	1245.7352	1264.7909	1318.8731	1331.886	1337.4349	1385.3237	1407.8373	1421.4695	1443.7167	1474.2587	1486.1608	1494.4435	1494.625	1497.0177	1508.1281	1508.7896	2995.3029	3000.9725	3023.9781	3036.1605	3050.5263	3079.4605	3101.387	3114.8806	3115.5362	3134.1448	3142.4198	3221.4289	3238.9461	3803.2685
CCC(O)C1(CC1)OC	CC[C@@H](O)C1(CC1)OC	
InChI=1S/C7H14O2/c1-3-6(8)7(9-2)4-5-7/h6,8H,3-5H2,1-2H3	InChI=1S/C7H14O2/c1-3-6(8)7(9-2)4-5-7/h6,8H,3-5H2,1-2H3/t6-/m1/s1
