17
gdb 17428	2.73561	2.5886	1.89648	1.6569	66.73	-0.2497	0.0637	0.3134	783.7258	0.142596	-363.809773	-363.802662	-363.801718	-363.840583	27.966	
C	-0.0606400482	 1.5364271021	 0.001804131	-0.506469
C	-0.0251963282	 0.0374832411	 0.0199300931	 0.306885
C	 0.4431787563	-0.7954664067	-1.1918989112	-0.297346
C	-0.5511890587	-1.8226929457	-0.6822305482	-0.04275
C	-0.5434107854	-1.811188358	 0.8133414686	-0.110635
C	 0.4399002868	-0.7553989003	 1.2717904508	 0.119839
O	 1.7962242559	-1.0427879018	 1.4960614722	-0.440461
N	-1.3600184163	-0.7954694413	 0.0541244212	-0.188169
H	 0.9598023451	 1.9362555313	 0.0188268306	 0.129524
H	-0.5613471798	 1.9125582238	-0.8958521648	 0.124447
H	-0.5926054	 1.9241489261	 0.8764768363	 0.128049
H	 0.0986245919	-0.3496623044	-2.1289143456	 0.113646
H	 1.5063936	-1.0482442985	-1.2828036992	 0.085593
H	-1.0361194054	-2.6169317302	-1.2384687247	 0.098522
H	-1.0224895152	-2.5867170357	 1.4002558362	 0.0951
H	 0.0774116102	-0.2585301854	 2.1764026098	 0.099609
H	 2.098492361	-1.6328677065	 0.7983395839	 0.284614
175.7896	182.2737	248.71	293.626	309.6945	336.113	502.1015	585.8369	627.1874	721.2589	765.7328	789.0246	818.7881	834.0097	929.1677	961.5566	996.521	1007.3307	1032.4357	1039.9087	1097.0083	1113.8633	1126.3668	1138.7045	1206.3106	1239.1378	1242.8671	1271.2697	1338.4066	1348.0173	1370.8856	1413.08	1435.5667	1480.5964	1491.0656	1500.4876	3024.8018	3030.9764	3079.3491	3095.7055	3100.2264	3106.5656	3175.0418	3186.7688	3822.1404
CC12CC3C(C1O)N23	C[C@@]12C[C@H]3[C@@H]([C@H]1O)N23	
InChI=1S/C6H9NO/c1-6-2-3-4(5(6)8)7(3)6/h3-5,8H,2H2,1H3	InChI=1S/C6H9NO/c1-6-2-3-4(5(6)8)7(3)6/h3-5,8H,2H2,1H3/t3-,4-,5+,6+,7?/m0/s1
