21
gdb 23044	3.09261	0.85924	0.82474	1.269	85.54	-0.221	0.0131	0.2341	1533.6296	0.179445	-420.345298	-420.334679	-420.333735	-420.380964	38.394	
C	 0.288568933	 0.8700964333	 1.3745752733	-0.417043
C	 0.6204322758	-0.3326405294	 0.517858544	 0.000602
C	 0.0567553189	-0.4733212667	-0.8676314966	-0.099454
N	 1.4922499223	-0.2817644206	-0.6518401195	-0.10461
C	 2.0832981696	 0.977125091	-1.0811266641	-0.312876
C	-0.4129614281	-1.7601553343	-1.44586057	 0.38091
C	 0.3338695194	-3.0322317323	-1.1638230575	-0.495221
N	-1.4683505853	-1.6685575394	-2.1660346354	-0.192413
O	-1.8843750901	-2.9209918227	-2.6474123028	-0.398555
H	 0.0499724563	 1.7559054291	 0.7818551739	 0.124069
H	-0.5810402452	 0.6478971568	 2.0014879412	 0.128719
H	 1.121671085	 1.1196471898	 2.0413766962	 0.12386
H	 0.7606581279	-1.2486154921	 1.0919445446	 0.088987
H	-0.5128154922	 0.384357596	-1.2244359244	 0.085429
H	 1.4174150621	 1.848965044	-0.9996555574	 0.103859
H	 2.9825279863	 1.1745441722	-0.4884036193	 0.122851
H	 2.3833914498	 0.8814315938	-2.129181473	 0.129234
H	 1.3571944425	-2.8034299939	-0.8613468991	 0.145239
H	-0.1565267971	-3.6013655483	-0.3652824524	 0.136095
H	 0.3402490397	-3.6689907744	-2.0507744031	 0.146049
H	-2.6429515107	-2.683778982	-3.1908216488	 0.304268
63.7223	103.023	130.3112	155.8433	177.9884	181.6132	263.4187	292.1213	307.2908	346.5187	368.4314	415.2958	422.9865	516.5848	571.4434	672.7743	771.3613	801.1906	825.0977	940.6298	1000.9145	1020.3282	1046.1025	1049.0202	1063.3894	1110.3085	1131.5002	1162.4849	1179.9348	1194.0573	1280.504	1294.6866	1359.5569	1392.3163	1397.6334	1411.239	1440.8731	1466.5776	1483.3104	1487.3967	1489.4631	1490.8402	1501.8347	1510.1114	1717.85	2990.3881	3036.7633	3040.5901	3069.787	3095.7783	3097.5944	3103.0613	3109.029	3115.443	3129.1065	3148.2267	3821.5299
CC1C(N1C)C(C)=NO	C[C@H]1[C@@H](N1C)C(=NO)C	
InChI=1S/C6H12N2O/c1-4(7-9)6-5(2)8(6)3/h5-6,9H,1-3H3	InChI=1S/C6H12N2O/c1-4(7-9)6-5(2)8(6)3/h5-6,9H,1-3H3/t5-,6-,8?/m0/s1
