19
gdb 99609	2.18038	1.43174	1.0087	3.2569	75.93	-0.2504	0.0266	0.277	1236.0773	0.157699	-419.189164	-419.179306	-419.178361	-419.224066	35.412	
C	 0.2950198653	 1.2518522802	 0.4459948521	-0.330788
N	 0.0501268924	-0.1311752898	 0.0470547193	-0.2728
C	 0.5470581492	-0.4917017566	-1.2737499756	-0.187705
C	 2.0133069075	-0.3108949834	-1.4067142643	 0.288483
N	 3.154104614	-0.1311696612	-1.4637187743	-0.342293
C	 0.1047380056	-1.928452497	-1.5814095228	 0.393996
C	-1.3832435267	-2.0840678309	-1.8007180747	-0.465323
C	 1.0480001356	-2.9199167601	-2.1157902602	-0.230502
O	 0.7144426379	-2.8965483374	-0.720522394	-0.272555
H	 1.3568615607	 1.5431256336	 0.4338402799	 0.127783
H	-0.2496331536	 1.9257763035	-0.2245139997	 0.126041
H	-0.0940503557	 1.4008889909	 1.4563551473	 0.130778
H	 0.448476466	-0.7764405662	 0.7223032957	 0.244468
H	 0.0775776039	 0.1784125088	-2.0061242639	 0.126554
H	-1.6894533852	-1.6011202973	-2.7350459699	 0.12272
H	-1.64384606	-3.1432018956	-1.8546176543	 0.131891
H	-1.9348397422	-1.6230788848	-0.9778861456	 0.148434
H	 0.6503790614	-3.7685003793	-2.6704150452	 0.116953
H	 2.071708704	-2.6413147874	-2.3527881899	 0.143863
53.6717	118.1161	143.1385	182.108	190.5941	200.4434	264.8797	317.0511	344.4195	363.9974	407.8433	476.5693	560.6205	606.507	767.1294	780.2488	868.3646	890.2198	927.0733	968.1831	998.9406	1033.8489	1098.296	1135.1607	1147.3251	1162.4424	1179.3667	1200.1684	1226.0107	1328.6949	1341.3484	1393.7814	1413.2531	1460.9256	1478.3101	1488.4324	1496.1603	1501.6428	1520.4678	1532.2485	2343.2414	2986.9721	3030.1768	3044.1596	3067.8169	3094.9295	3115.6246	3116.0948	3139.4666	3189.0354	3526.4693
CNC(C#N)C1(C)CO1	CN[C@@H](C#N)[C@@]1(C)CO1	
InChI=1S/C6H10N2O/c1-6(4-9-6)5(3-7)8-2/h5,8H,4H2,1-2H3	InChI=1S/C6H10N2O/c1-6(4-9-6)5(3-7)8-2/h5,8H,4H2,1-2H3/t5-,6+/m0/s1
