17
gdb 69911	2.88488	1.70993	1.39041	1.7979	72.33	-0.2305	-0.0001	0.2304	960.5688	0.137393	-417.949007	-417.941784	-417.94084	-417.980411	28.962	
C	-0.0040556734	 1.4861905942	 0.0137823336	-0.496941
C	 0.0441083905	-0.0149168909	-0.0083623196	 0.344101
N	-0.8252450996	-0.8515808072	 0.8469100169	-0.352475
C	 0.6439113713	-0.8974491776	 1.0318277022	-0.090159
C	 1.3584262765	-1.9422972873	 0.1668786939	-0.148176
N	 0.3365580254	-2.1933689832	-0.9141644637	-0.283586
C	 0.5164012817	-0.7428854581	-1.2814538753	-0.196919
C	 2.0173706686	-1.0146620781	-0.9127204227	 0.403841
O	 3.0869171967	-0.8782008002	-1.4212835143	-0.323856
H	 0.8967627903	 1.9145924298	-0.4397181551	 0.136888
H	-0.8690067317	 1.8645240441	-0.5429939485	 0.131678
H	-0.0734713916	 1.8632436039	 1.0394435479	 0.119788
H	-1.2033608763	-0.249115957	 1.5766998103	 0.229141
H	 1.1071083512	-0.5279070877	 1.9386318064	 0.101741
H	 1.8528249179	-2.7981326186	 0.6205873489	 0.094511
H	 0.769335712	-2.7660606009	-1.6392008166	 0.239636
H	 0.1804054404	-0.4103418352	-2.2614650346	 0.090786
130.4409	190.1168	224.1996	305.1193	363.4663	448.2798	506.2772	524.4939	584.4817	692.3201	711.0112	744.0279	842.867	869.9409	874.8428	893.5412	914.44	951.4109	982.8023	1020.2036	1051.3541	1058.8395	1062.2228	1107.7522	1116.7446	1128.1027	1177.4657	1199.1121	1275.9797	1293.0448	1345.4476	1349.1264	1412.7732	1430.0681	1484.8862	1500.6651	1884.4662	3025.5015	3088.255	3098.8132	3149.088	3154.2554	3190.2673	3467.3804	3482.6889
CC12NC1C1NC2C1=O	C[C@]12N[C@H]1[C@H]1N[C@@H]2C1=O	
InChI=1S/C6H8N2O/c1-6-4(8-6)2-3(9)5(6)7-2/h2,4-5,7-8H,1H3	InChI=1S/C6H8N2O/c1-6-4(8-6)2-3(9)5(6)7-2/h2,4-5,7-8H,1H3/t2-,4-,5+,6-/m0/s1
