18
gdb 109472	2.0402	1.81303	1.0379	3.9489	74.47	-0.2261	0.0073	0.2335	1153.8165	0.148882	-435.331653	-435.322779	-435.321835	-435.365462	32.764	
C	-0.1486784205	 1.5540334475	-0.0274707486	-0.383657
C	 0.0539181957	 0.0357302065	-0.0062806794	-0.173384
N	 0.7109524415	-0.441733113	 1.1984034706	-0.129607
C	 2.0728165577	-0.7258967684	 1.2707236221	 0.387105
O	 2.8693317471	-0.5703601672	 0.3752874851	-0.379764
C	 2.2557480567	-1.2666172762	 2.6909248424	-0.293965
N	 0.93876826	-1.2375342313	 3.3200786818	-0.332387
C	 0.1357373408	-0.7835983965	 2.4289996318	 0.428284
N	-1.2294788697	-0.684184777	 2.5757975166	-0.584532
H	 0.8139390419	 2.0675343154	 0.0413177571	 0.146968
H	-0.6354230539	 1.8569622636	-0.9594674383	 0.127147
H	-0.7736212805	 1.8962569184	 0.8048404146	 0.110809
H	-0.8995989937	-0.4915131296	-0.1156788986	 0.123
H	 0.7004696082	-0.2618669701	-0.8367008215	 0.147907
H	 2.6698353425	-2.2815716157	 2.6520102082	 0.140953
H	 2.9789058363	-0.6515243517	 3.239566703	 0.139596
H	-1.5139992151	-0.8220746812	 3.5358762683	 0.267397
H	-1.667236085	 0.1176007766	 2.1460208949	 0.25813
66.9038	100.3229	149.7112	204.1853	268.7369	299.3388	329.2566	352.7615	424.9541	543.4245	562.1463	600.9639	634.3477	698.2892	743.9525	752.7606	787.506	947.5506	983.9974	986.2441	1030.8633	1091.4615	1118.089	1171.058	1181.4814	1216.7098	1261.4013	1330.8331	1365.6765	1389.3504	1411.257	1453.6847	1464.6298	1485.4203	1494.7042	1502.8524	1624.3639	1726.3216	1833.6491	3036.4477	3037.1478	3051.1109	3067.0291	3094.2342	3112.1275	3127.95	3564.865	3669.4715
CCN1C(=O)CN=C1N	CCN1C(=O)CN=C1N	
InChI=1S/C5H9N3O/c1-2-8-4(9)3-7-5(8)6/h2-3H2,1H3,(H2,6,7)	InChI=1S/C5H9N3O/c1-2-8-4(9)3-7-5(8)6/h2-3H2,1H3,(H2,6,7)
