18
gdb 15792	3.22239	1.41326	1.10597	3.769	70.47	-0.2451	0.0163	0.2614	1105.0555	0.153299	-381.090997	-381.08226	-381.081316	-381.12518	30.841	
C	 0.1513536481	 1.5441627564	-0.0541651398	-0.389483
C	-0.0063639015	 0.0245769682	-0.0219229898	 0.069348
O	 0.6308157136	-0.5551981196	-1.1701807864	-0.197954
C	-0.1038982506	-0.7094674993	-2.2889260285	 0.130111
N	 0.4408099679	-1.12065256	-3.3496359699	-0.44162
C	 0.6256993993	-0.5915994888	 1.2130357686	 0.018973
C	 1.0809602208	-1.9998670715	 1.2343194158	-0.248594
N	 2.0618046811	-0.8953606479	 1.2455912625	-0.321348
H	 1.2105705817	 1.8156344463	-0.0534499866	 0.142405
H	-0.3151157106	 1.966208287	-0.9492679613	 0.120654
H	-0.3225491177	 1.9935270894	 0.8238648939	 0.12487
H	-1.0749824541	-0.2367765268	-0.0385033057	 0.08922
H	-1.1648889646	-0.4580386653	-2.1515792817	 0.088453
H	-0.253894706	-1.2009780349	-4.0890612427	 0.231228
H	 0.2484434945	-0.1530784354	 2.135377376	 0.092745
H	 1.0223037282	-2.5721478199	 2.1556924083	 0.116697
H	 0.9778940222	-2.5782249632	 0.3215897337	 0.127339
H	 2.4347850677	-0.7948559049	 0.3032418434	 0.246954
47.7466	91.1499	107.0258	178.7474	222.2369	235.1959	332.1391	375.2557	484.3067	547.334	653.1359	773.9942	818.7169	856.3582	884.5643	938.7486	962.8298	989.5631	1040.3847	1048.1121	1102.8613	1110.5797	1127.3254	1152.0957	1161.7204	1204.5539	1276.0248	1292.9243	1309.6613	1347.3318	1374.2052	1408.7522	1418.128	1426.9362	1488.2341	1493.6146	1505.0977	1744.1958	2993.1927	3020.5323	3042.2628	3113.7995	3117.023	3122.883	3127.2279	3207.0289	3494.2184	3520.3785
CC(OC=N)C1CN1	C[C@@H](O[CH][NH])[C@H]1CN1	
InChI=1S/C5H10N2O/c1-4(8-3-6)5-2-7-5/h3-7H,2H2,1H3	InChI=1S/C5H10N2O/c1-4(8-3-6)5-2-7-5/h3-7H,2H2,1H3/t4-,5-/m1/s1
