16
gdb 33945	3.40534	1.43564	1.23694	3.1755	75.22	-0.2452	0.0182	0.2634	1025.5174	0.124329	-400.667762	-400.660492	-400.659548	-400.69923	29.216	
C	-0.0112062326	-1.2041197215	-0.0800232777	-0.344361
C	 0.0407969751	-0.0057109509	 0.0010453207	 0.173303
C	 0.0688961632	 1.4202561562	 0.142138875	 0.305913
O	 0.2800163048	 2.2076938075	-1.0409849476	-0.27919
C	 1.2784005747	 2.2691449574	-0.0275770671	-0.041075
C	 1.1959629836	 3.4719441849	 0.9068602294	-0.251176
C	-0.1432149836	 3.3361337334	 1.6331454569	-0.039819
N	-1.3291215484	 3.4126125984	 0.7627249356	-0.310298
C	-0.8242778527	 2.0924900887	 1.1797373017	-0.16772
H	-0.0489249442	-2.2618020512	-0.1677403975	 0.191242
H	 2.2456998325	 1.8558390152	-0.3056676885	 0.104618
H	 2.0191169221	 3.4258188193	 1.6284380607	 0.108969
H	 1.2778351229	 4.4146454904	 0.3571863202	 0.129653
H	-0.2224291243	 3.6893132411	 2.6566366271	 0.091795
H	-2.1444933484	 3.644436408	 1.3260770174	 0.233322
H	-1.4128474548	 1.4619969733	 1.8352372936	 0.094821
134.0698	147.5852	266.3315	315.0373	398.1378	474.2545	492.5545	530.2102	607.2189	620.4799	671.1416	705.0754	734.6069	805.7249	854.1619	862.3604	889.5946	917.0503	947.3026	991.7662	998.2703	1044.5866	1099.7531	1145.9621	1165.4575	1174.6481	1211.6129	1234.4258	1288.5804	1322.9158	1347.8167	1420.1941	1429.1741	1461.7937	2240.9206	3049.5479	3096.4929	3138.011	3155.6427	3188.9684	3492.7021	3501.8677
C#CC12OC1CC1NC21	C#C[C@]12O[C@H]1C[C@H]1N[C@@H]21	
InChI=1S/C7H7NO/c1-2-7-5(9-7)3-4-6(7)8-4/h1,4-6,8H,3H2	InChI=1S/C7H7NO/c1-2-7-5(9-7)3-4-6(7)8-4/h1,4-6,8H,3H2/t4-,5+,6-,7+/m1/s1
