20
gdb 108130	3.0083	1.495	1.35486	2.5009	77.95	-0.2187	0.0668	0.2855	1035.4731	0.173312	-403.080422	-403.072914	-403.07197	-403.112415	30.311	
O	-0.0940677841	 1.4796075567	 0.0240045479	-0.423963
C	 0.0130758944	 0.0615881408	 0.1003974	-0.219101
C	-1.3804981547	-0.4988272251	 0.1032766364	 0.37704
C	-2.3493547565	-0.4541640459	 1.2795585773	-0.233842
N	-3.1402184672	-1.5358446003	 0.5710971194	-0.158218
C	-3.6286635473	-0.7285052164	-0.5945974857	-0.160252
C	-2.2624424764	-0.4172864404	-1.2321136434	-0.093458
C	-1.8113231433	-1.8663679496	-1.5614186778	-0.2473
C	-1.7767845481	-1.9996262631	-0.0398961684	-0.043341
H	 0.7932891994	 1.8496255996	 0.0512169593	 0.288056
H	 0.5859831286	-0.3391528399	-0.7517650071	 0.085156
H	 0.5380482954	-0.2471604355	 1.0193190985	 0.085129
H	-1.9014558576	-0.8564632368	 2.1942183644	 0.097215
H	-2.9119863969	 0.4544625757	 1.513403803	 0.102068
H	-4.2779518468	-1.3228751779	-1.243475733	 0.09644
H	-4.1891782762	 0.1404693565	-0.2423379073	 0.100258
H	-2.1611785754	 0.4036838095	-1.9392466919	 0.075504
H	-2.4822660748	-2.4980361253	-2.151044219	 0.096991
H	-0.798285561	-1.9210707135	-1.9690728979	 0.100946
H	-1.3295053813	-2.825160989	 0.5123150451	 0.074673
80.5786	151.3912	239.5523	298.9856	332.5279	439.5843	471.5682	538.1548	606.1981	686.5511	699.0542	787.7467	839.3919	865.4116	904.8523	915.2903	930.3944	939.8688	964.9994	996.1767	1011.6614	1037.9137	1057.6086	1080.3346	1111.2827	1140.6946	1158.8826	1167.0153	1184.7352	1216.3999	1230.2972	1235.1222	1249.2879	1262.9876	1270.52	1303.4606	1327.6831	1344.4017	1464.1117	1487.671	1503.8223	1515.211	1530.9084	2958.4713	2984.5149	3040.6255	3051.466	3059.4161	3094.9792	3105.8998	3110.302	3124.8793	3138.2805	3826.2497
OCC12CN3CC1CC23	OC[C@@]12CN3C[C@@H]1C[C@@H]23	
InChI=1S/C7H11NO/c9-4-7-3-8-2-5(7)1-6(7)8/h5-6,9H,1-4H2	InChI=1S/C7H11NO/c9-4-7-3-8-2-5(7)1-6(7)8/h5-6,9H,1-4H2/t5-,6-,7-/m0/s1
