17
gdb 51676	3.29362	1.27592	1.08079	5.148	68.75	-0.2591	0.0111	0.2702	1122.543	0.135775	-458.939746	-458.931832	-458.930888	-458.973271	28.744	
O	 0.9228522311	 0.1429668369	-0.1179376723	-0.279469
C	 0.8466486841	 1.3139816386	-0.3362043372	 0.185501
O	 0.8123474444	 2.229496617	 0.6560318783	-0.190639
C	 0.7144253589	 3.5996429805	 0.2827778263	 0.093121
C	 1.2609941207	 4.5258257026	 1.4002522536	-0.266411
C	 2.4064009726	 4.9899406109	 0.4665936295	-0.084483
C	 3.5985793013	 4.0123817051	 0.3685394879	-0.080475
O	 2.9822858	 3.2900010972	-0.7329744892	-0.276663
C	 1.828598684	 4.1297485539	-0.6902037064	 0.081039
H	 0.7819650803	 1.7597142106	-1.3451321491	 0.083279
H	-0.3067759512	 3.8277598052	-0.0406510079	 0.093199
H	 0.564210408	 5.3242929746	 1.663487997	 0.115572
H	 1.5602899533	 4.0016725581	 2.310473272	 0.123906
H	 2.6237427872	 6.053698602	 0.392706079	 0.087158
H	 4.5477884137	 4.4597621732	 0.0547258063	 0.114327
H	 3.7671436522	 3.3699415248	 1.2403475479	 0.118777
H	 1.5182903194	 4.4863596789	-1.6754511855	 0.082259
46.3421	95.4505	152.484	194.0274	287.8009	347.0961	391.7414	529.2674	672.4624	682.3998	767.8129	830.5734	868.5481	889.3598	914.2005	976.2842	992.7799	1022.2088	1041.0079	1051.5987	1077.849	1129.7398	1147.6001	1166.3561	1182.8098	1190.0539	1223.199	1265.737	1285.2801	1301.4402	1325.2349	1354.2886	1364.1592	1433.8833	1472.5373	1517.5395	1867.7806	2975.954	3028.6344	3044.9982	3071.71	3078.8357	3079.8776	3125.1333	3134.22
O=COC1CC2COC12	O=CO[C@H]1C[C@H]2CO[C@@H]12	
InChI=1S/C6H8O3/c7-3-9-5-1-4-2-8-6(4)5/h3-6H,1-2H2	InChI=1S/C6H8O3/c7-3-9-5-1-4-2-8-6(4)5/h3-6H,1-2H2/t4-,5-,6+/m0/s1
