18
gdb 50333	3.7662	1.34885	1.22993	4.3059	76.6	-0.2257	0.0328	0.2585	1047.5779	0.150422	-401.948908	-401.941912	-401.940968	-401.980726	27.761	
O	-0.0454257649	-0.0071952981	 0.0784670623	-0.344725
C	 0.0342385782	 1.2051102482	 0.0436165295	 0.132218
N	 1.193471736	 1.9052171716	 0.0553864717	-0.035779
C	 2.5226928265	 1.2827122854	 0.0199262146	-0.166759
C	 3.3807087045	 2.4254966993	-0.5308213868	-0.072155
C	 2.8549908124	 2.8801796252	-1.9348537273	-0.238095
C	 2.0159087143	 3.9507705428	-1.2375383564	-0.084509
C	 2.7604373458	 3.7216288033	 0.0764519666	-0.105847
C	 1.3227395209	 3.3424219265	-0.023287128	 0.007686
H	-0.8515659771	 1.871460251	 0.0089630224	 0.065344
H	 2.8384988013	 0.9721663021	 1.0249130543	 0.113238
H	 2.5032960234	 0.3981127341	-0.6212618593	 0.135767
H	 4.4535949274	 2.2673954991	-0.4379748846	 0.081894
H	 3.6516036524	 3.3268235936	-2.5340787952	 0.109685
H	 2.3299647258	 2.1287156452	-2.5348071179	 0.1044
H	 1.6704552794	 4.8839857594	-1.6678678017	 0.089881
H	 3.1932001642	 4.4080196573	 0.7916531966	 0.095643
H	 0.5587734796	 3.9277266441	 0.4733960491	 0.112112
55.4893	215.6103	238.884	336.5141	374.4482	467.601	511.44	636.1537	747.2956	752.1946	782.5093	817.0996	863.8169	867.1449	893.3514	939.8515	996.4206	1003.4181	1023.5604	1028.6206	1037.0464	1050.395	1080.7494	1101.0491	1151.4347	1174.4494	1222.0353	1228.4793	1237.8306	1281.3225	1288.7561	1321.0376	1359.0629	1364.8525	1424.7116	1457.359	1494.1546	1511.9894	1787.7033	2925.2188	3017.8469	3043.4787	3103.018	3107.1723	3132.7259	3173.784	3192.8857	3205.8598
O=CN1CC2CC3C2C13	O=CN1C[C@H]2C[C@@H]3[C@H]2[C@H]13	
InChI=1S/C7H9NO/c9-3-8-2-4-1-5-6(4)7(5)8/h3-7H,1-2H2	InChI=1S/C7H9NO/c9-3-8-2-4-1-5-6(4)7(5)8/h3-7H,1-2H2/t4-,5-,6+,7-/m1/s1
