18
gdb 6188	3.51448	1.64148	1.50161	4.3856	67.56	-0.26	0.0186	0.2786	933.7242	0.153329	-385.007801	-384.999822	-384.998878	-385.039856	30.31	
C	 0.1141423019	 1.4159087931	 0.1646138727	-0.414941
C	-0.0629522943	-0.0884966533	-0.0560322635	 0.373949
C	-1.5344368801	-0.4849046805	-0.0711357466	-0.423778
C	 0.7222355218	-0.5998459142	-1.2897600136	-0.259155
C	 2.0845244966	-0.9806966064	-0.7082678624	-0.362452
C	 1.7812229516	-1.274549627	 0.7579821133	 0.419745
O	 2.4677456459	-1.8398974378	 1.5589327224	-0.338402
O	 0.555880308	-0.7774246052	 1.0685518734	-0.247818
H	 1.1716493993	 1.6973168214	 0.151365964	 0.120044
H	-0.3995953058	 1.9806712741	-0.6196301355	 0.119869
H	-0.3023332549	 1.7081288232	 1.1322640064	 0.133997
H	-2.037134186	-0.0361873782	-0.9338514771	 0.119845
H	-1.637756182	-1.571488474	-0.1356745214	 0.126153
H	-2.0394169947	-0.1438559089	 0.8369566173	 0.130277
H	 0.2252104738	-1.4819603147	-1.7047548674	 0.112517
H	 0.7735295695	 0.1551726961	-2.0772138944	 0.111508
H	 2.5583453082	-1.8455798853	-1.1743626027	 0.139226
H	 2.8055379911	-0.1568008023	-0.7458956549	 0.139418
101.6547	133.8463	215.5603	249.5914	307.4732	337.7448	360.7295	461.2183	514.5182	538.9774	593.508	656.7641	767.5155	805.5948	896.1572	929.9913	942.7376	973.8652	995.1833	1018.9622	1044.3243	1121.1799	1154.2573	1177.6085	1246.4208	1267.9845	1288.8898	1312.2679	1344.9709	1404.4607	1420.8784	1464.7759	1475.8779	1485.4931	1495.4701	1499.8539	1507.6687	1879.3335	3038.6165	3043.0631	3058.2743	3060.4027	3109.2021	3110.8013	3115.1084	3121.835	3124.1238	3128.892
CC1(C)CCC(=O)O1	CC1(C)CCC(=O)O1	
InChI=1S/C6H10O2/c1-6(2)4-3-5(7)8-6/h3-4H2,1-2H3	InChI=1S/C6H10O2/c1-6(2)4-3-5(7)8-6/h3-4H2,1-2H3
