18
gdb 57511	2.57379	1.16931	0.98263	4.4978	73.39	-0.2838	-0.0854	0.1983	1259.5792	0.143788	-439.111512	-439.101307	-439.100363	-439.146895	36.664	
C	-0.1293560266	 1.4504690111	-0.1546360219	-0.428617
C	 0.0238544042	-0.0724142611	-0.0864507412	 0.342034
C	 0.0548853994	-0.5583594102	 1.363547722	-0.391585
O	-1.1057104341	-0.7173031279	-0.6779361408	-0.452317
C	 1.3212215094	-0.4995933515	-0.8448535635	-0.346684
C	 1.3678021893	-1.9966638996	-1.0498661035	 0.328283
O	 1.8921870174	-2.7807674589	-0.3000942019	-0.270766
C	 0.6979113391	-2.4814429316	-2.2784246907	 0.226963
N	 0.2076254212	-2.8388570093	-3.2630015062	-0.314101
H	 0.7233044763	 1.9591138078	 0.3057134401	 0.124665
H	-0.2006091552	 1.790920861	-1.1943932918	 0.111548
H	-1.0392572193	 1.7546603388	 0.3699998165	 0.133525
H	-0.8898316123	-0.3032212551	 1.8503488352	 0.129895
H	 0.1862290891	-1.6413932151	 1.4134329477	 0.144755
H	 0.8730839778	-0.0862028392	 1.9140774641	 0.118357
H	-1.2529334485	-0.3512797251	-1.5575095029	 0.287259
H	 1.3503959977	-0.0005834395	-1.8201870252	 0.119072
H	 2.2056728052	-0.2081687647	-0.2721061261	 0.137713
47.6999	73.391	147.9476	178.1041	216.1543	254.7666	280.8915	309.8994	321.9821	360.144	402.1374	434.4727	461.9045	484.7781	617.9316	663.0857	761.7176	829.1214	897.0451	924.1118	944.4314	976.5192	1024.8253	1082.2045	1134.6367	1199.4282	1223.747	1242.7512	1308.1475	1379.331	1406.7704	1427.0039	1468.5313	1479.9052	1487.9478	1498.0709	1506.5297	1797.1599	2335.7642	3029.197	3044.2668	3053.8555	3098.2409	3112.3477	3119.3633	3129.638	3136.9598	3800.583
CC(C)(O)CC(=O)C#N	CC(C)(O)CC(=O)C#N	
InChI=1S/C6H9NO2/c1-6(2,9)3-5(8)4-7/h9H,3H2,1-2H3	InChI=1S/C6H9NO2/c1-6(2,9)3-5(8)4-7/h9H,3H2,1-2H3
