14
gdb 34776	3.96995	1.09883	1.01469	2.1976	70.56	-0.2823	-0.0139	0.2684	1137.53	0.101966	-395.699492	-395.691973	-395.691029	-395.731916	27.511	
N	 0.0479912666	-1.1669158727	 0.1208665708	-0.335822
C	 0.0273432765	-0.0106803572	 0.0974382409	 0.314315
C	 0.0219620247	 1.4295825743	 0.0724373558	-0.170429
C	 0.5317073897	 2.2436031761	 1.2058527529	-0.030397
C	 1.6593801846	 1.5141759046	 1.9538508681	-0.193786
C	 2.3822766926	 1.4727008097	 0.5648377061	-0.184687
N	 1.265043159	 2.2263024493	-0.108303893	-0.12768
C	 2.331575778	 2.3102715778	 2.965812572	 0.272831
N	 2.8663186973	 2.9478234533	 3.7677952455	-0.307402
H	-0.8051261328	 1.8585231391	-0.4852253637	 0.158349
H	-0.0028736537	 3.113953351	 1.569953394	 0.138481
H	 1.3776732268	 0.5468574082	 2.3793329969	 0.157257
H	 3.2870537818	 2.0780446936	 0.5367133656	 0.156318
H	 2.5760522086	 0.4816199029	 0.150108298	 0.152651
84.9714	138.956	174.9055	207.4622	335.2663	390.5642	485.0125	551.2659	581.2063	610.188	736.1337	759.9422	794.8788	869.5943	910.7959	962.2845	1018.5961	1045.489	1063.2139	1084.4716	1101.4194	1182.1882	1217.2482	1221.7764	1284.3455	1307.5749	1360.4082	1394.8408	1493.5026	2353.053	2362.5029	3075.2385	3088.2055	3159.6529	3165.9233	3185.0231
N#CC1C2C(CN12)C#N	N#C[C@H]1[C@H]2[C@@H](CN12)C#N	
InChI=1S/C6H5N3/c7-1-4-3-9-5(2-8)6(4)9/h4-6H,3H2	InChI=1S/C6H5N3/c7-1-4-3-9-5(2-8)6(4)9/h4-6H,3H2/t4-,5+,6-,9?/m1/s1
