15
gdb 29037	2.53417	1.78095	1.25318	3.2312	77.78	-0.2425	-0.0772	0.1653	1003.1366	0.112999	-416.846352	-416.838576	-416.837631	-416.878727	28.556	
C	-0.5928746854	 1.414701606	 0.0738503619	-0.478363
C	-0.0461728987	 0.0252622082	-0.015392483	 0.245039
N	 0.1405801892	-0.5466626331	-1.1505615063	-0.236075
C	 0.4705086887	-1.8602425052	-1.3425645974	-0.000991
C	 0.129076142	-2.9210700337	-0.5567195265	-0.114809
C	-0.486750615	-2.7876928798	 0.7329263206	-0.002577
N	-0.3932224027	-1.786193851	 1.5439959679	-0.225451
C	 0.359984581	-0.6599366239	 1.2716020168	 0.306048
O	 1.2071128231	-0.2005964623	 2.0017045304	-0.323122
H	 0.1071966171	 2.0464197948	 0.6302593486	 0.167885
H	-0.7634090649	 1.8232549753	-0.9226742868	 0.145714
H	-1.5344320798	 1.4144287489	 0.6357542787	 0.152442
H	 0.9337494549	-2.052314003	-2.307478438	 0.125336
H	 0.2379874948	-3.9214478662	-0.9642779141	 0.112269
H	-1.0980818945	-3.624224845	 1.0784287972	 0.126655
100.8826	143.3197	161.7994	266.1108	283.3343	313.304	408.865	484.6865	540.2162	623.404	648.0498	749.4356	776.3295	827.6804	900.9268	948.6187	981.366	991.2032	998.1187	1045.3572	1099.084	1137.7126	1264.8907	1290.2273	1391.8917	1420.4961	1461.8632	1467.5214	1469.5879	1539.2218	1652.7288	1682.9339	1792.0729	3038.3454	3098.1685	3106.1126	3153.8453	3157.5767	3183.4165
CC1=NC=CC=NC1=O	Cc1ncccnc1=O	
InChI=1S/C6H6N2O/c1-5-6(9)8-4-2-3-7-5/h2-4H,1H3	InChI=1S/C6H6N2O/c1-5-6(9)8-4-2-3-7-5/h2-4H,1H3
