21
gdb 111688	2.47888	1.35696	1.17871	1.9347	78.3	-0.2335	0.0652	0.2987	1182.5473	0.182572	-424.207103	-424.198026	-424.197082	-424.241318	34.129	
C	-0.090801061	 1.5749979185	-0.2903086562	-0.380848
C	 0.0513387208	 0.1098339988	 0.138692922	-0.182357
C	-1.2904431054	-0.5930041411	 0.1607127539	-0.022767
C	-1.8679445729	-1.2708371468	-1.0514061485	 0.069565
O	-0.9513179981	-1.5619162788	-2.0800295621	-0.256807
C	-0.340530579	-2.8203186255	-1.8031587977	-0.094759
C	-0.4202876216	-3.0577581713	-0.273710065	 0.063563
O	 0.7891193554	-2.7843089034	 0.42438021	-0.420356
C	-1.5240730221	-2.102539726	 0.1571294904	-0.123498
H	 0.8787647733	 2.082998348	-0.2831287155	 0.106658
H	-0.5015448632	 1.6470445811	-1.3026720521	 0.122516
H	-0.7593916397	 2.126806363	 0.380684346	 0.105913
H	 0.7305270647	-0.4096225428	-0.5387431509	 0.109964
H	 0.506954721	 0.0506100444	 1.1333763595	 0.099332
H	-2.0357059629	-0.0764186032	 0.7649663163	 0.080314
H	-2.8824967127	-1.091335884	-1.3956131083	 0.089398
H	-0.87355926	-3.6201849622	-2.3406319036	 0.090935
H	 0.6948377858	-2.788750885	-2.1593414608	 0.100253
H	-0.7336449836	-4.0928503107	-0.0746793712	 0.072219
H	 1.439628803	-3.4440053792	 0.1633797113	 0.282056
H	-2.2925648317	-2.4895545338	 0.8151140424	 0.088707
58.3404	84.1324	140.8535	195.9795	246.1521	276.6306	283.4663	366.1047	397.7829	545.912	592.8107	707.3401	738.3616	765.3201	788.1239	809.0229	851.6186	897.2698	959.3579	986.8325	1008.1498	1017.7155	1045.2134	1064.7623	1091.6382	1104.3353	1131.2575	1147.2757	1159.5815	1227.0301	1229.375	1245.8906	1295.246	1312.9717	1327.3496	1333.896	1372.773	1387.1703	1408.1758	1427.9329	1445.3406	1475.089	1498.8062	1502.0272	1506.3505	2974.4793	2998.1271	3028.503	3048.7521	3069.4591	3088.2707	3104.473	3106.6502	3127.036	3143.162	3179.4164	3814.8229
CCC1C2OCC(O)C12	CC[C@H]1[C@H]2OC[C@@H](O)[C@@H]12	
InChI=1S/C7H12O2/c1-2-4-6-5(8)3-9-7(4)6/h4-8H,2-3H2,1H3	InChI=1S/C7H12O2/c1-2-4-6-5(8)3-9-7(4)6/h4-8H,2-3H2,1H3/t4-,5-,6-,7-/m1/s1
