16
gdb 109198	2.6956	1.22571	0.96675	2.2247	70.06	-0.2472	-0.0055	0.2417	1211.2042	0.125937	-434.084091	-434.075662	-434.074718	-434.117869	30.417	
O	 0.4981992111	-0.0404034307	 0.8833224655	-0.413616
C	-0.2709563425	 0.3852136881	-0.234465493	-0.166246
C	-1.5966779892	-0.3223949108	-0.2933973613	 0.328363
N	-2.7110226046	 0.2261535481	-0.5889369447	-0.284334
C	-3.7211122755	-0.8371489985	-0.5584025793	-0.179428
C	-3.0214499038	-2.0616544498	 0.1355710381	-0.141893
N	-1.6136848454	-1.6954167186	-0.0449982107	-0.319305
C	-3.3797437255	-2.1947604387	 1.5575799236	 0.263915
N	-3.642311636	-2.2996537022	 2.6785183338	-0.316418
H	 0.1019640493	 0.3361409293	 1.6765528044	 0.298047
H	-0.4483542789	 1.4657326695	-0.2481567556	 0.133186
H	 0.3195736793	 0.1244269642	-1.1195026508	 0.13982
H	-4.6203813715	-0.5161947857	-0.0286430793	 0.136803
H	-4.0094805431	-1.107410522	-1.5810446707	 0.125722
H	-3.2580742282	-3.0043721158	-0.3648922512	 0.135585
H	-0.9270733055	-2.0449002863	 0.6100113113	 0.2598
66.3499	80.5065	157.5473	208.2059	268.9266	283.6243	369.4303	430.7072	475.6001	555.5653	617.8158	661.5228	724.7527	802.9184	816.4219	943.4464	965.7184	998.0734	1012.1271	1043.9333	1067.7965	1089.7233	1193.6106	1215.7841	1240.2397	1262.4298	1327.1709	1360.0516	1374.1654	1404.8956	1443.8397	1484.7983	1492.0899	1721.3637	2350.1688	3039.3905	3045.4826	3075.8482	3093.4996	3108.2445	3596.237	3809.9815
OCC1=NCC(N1)C#N	OC[C]1[N]C[C@@H](N1)C#N	
InChI=1S/C5H7N3O/c6-1-4-2-7-5(3-9)8-4/h4,9H,2-3H2,(H,7,8)	InChI=1S/C5H7N3O/c6-1-4-2-7-5(3-9)8-4/h4,9H,2-3H2,(H,7,8)/t4-/m0/s1
