17
gdb 82261	3.13069	1.4036	1.07453	3.5635	80.96	-0.2423	-0.0518	0.1905	1107.4345	0.137192	-380.871653	-380.863815	-380.862871	-380.903945	30.002	
C	-0.2363307161	 1.5645422945	 0.0682060893	-0.401137
C	 0.0234225723	 0.0608146654	-0.0032712533	-0.071323
N	 0.6718757894	-0.3666383021	-1.2673392546	-0.099844
C	 2.0317409529	 0.1278374313	-1.4910151865	-0.240988
C	 1.8179164342	-1.2319170704	-0.9054659329	-0.064931
C	 1.8881997966	-1.275846872	 0.5752624828	-0.178339
C	 0.9194822607	-0.5118304793	 1.1016972462	 0.17802
C	 0.7060078144	-0.2468815134	 2.4778904715	 0.213879
N	 0.4858748507	-0.0046031019	 3.5899552268	-0.342206
H	 0.6933417774	 2.1396276116	 0.0400482364	 0.122505
H	-0.8612673519	 1.87321074	-0.7736543995	 0.136285
H	-0.7585818684	 1.8126955619	 0.9963622007	 0.142984
H	-0.9477469894	-0.4504333066	 0.0400064461	 0.110537
H	 2.2984134679	 0.2271086322	-2.5393264186	 0.127939
H	 2.446992365	 0.8859867849	-0.8324974433	 0.124153
H	 1.9939510953	-2.1296140261	-1.4906264851	 0.110805
H	 2.6304623591	-1.8318905498	 1.133316484	 0.131662
110.3826	138.6183	199.4063	240.2017	274.3583	377.8141	445.0419	484.2779	546.9361	580.0006	639.7066	713.1941	748.0536	801.7224	831.7167	898.5889	901.0872	967.1206	1049.9761	1053.8395	1075.425	1096.206	1109.8338	1124.6807	1154.2424	1199.2761	1257.7887	1285.1981	1325.0982	1351.6739	1356.912	1409.4288	1487.5171	1495.9781	1496.8861	1662.4447	2331.0601	3009.7202	3048.8681	3108.7089	3122.5934	3128.7012	3155.7882	3200.0246	3224.2957
CC1N2CC2C=C1C#N	C[C@H]1N2C[C@H]2C=C1C#N	
InChI=1S/C7H8N2/c1-5-6(3-8)2-7-4-9(5)7/h2,5,7H,4H2,1H3	InChI=1S/C7H8N2/c1-5-6(3-8)2-7-4-9(5)7/h2,5,7H,4H2,1H3/t5-,7-,9?/m1/s1
