21
gdb 115310	2.76411	1.21995	0.95455	1.5455	78.36	-0.2391	-0.0253	0.2138	1312.0776	0.181491	-424.260071	-424.250479	-424.249535	-424.294879	35.144	
C	-0.054391828	 1.6816832621	-0.3345735686	-0.389933
C	 0.0934718921	 0.1947308113	 0.0037303715	-0.191216
C	-1.2442283927	-0.5258933132	 0.2055402412	-0.102539
C	-1.1819669551	-2.0555710508	 0.3012736246	-0.121102
O	-2.3601285566	-2.4545258797	 1.0028217629	-0.265484
C	-2.6578107525	-1.4745198834	 1.9907297728	 0.02948
C	-2.184995834	-1.8719845207	 3.3913842875	-0.39816
C	-1.9754028696	-0.1871411036	 1.507076053	 0.364156
O	-1.995900821	 0.8686688887	 2.0872870688	-0.318706
H	 0.926060477	 2.1487505824	-0.4681726201	 0.111054
H	-0.6171964867	 1.8178124506	-1.2650944031	 0.110222
H	-0.5836961877	 2.2078833556	 0.4622428049	 0.151788
H	 0.6431475845	-0.3137316839	-0.7987207957	 0.099306
H	 0.6995701462	 0.0792295126	 0.9109649448	 0.103577
H	-1.9351253642	-0.2607760314	-0.609130831	 0.109306
H	-1.1908310222	-2.5572320127	-0.6690945129	 0.116816
H	-0.2736395939	-2.3706793217	 0.8408920735	 0.095002
H	-3.744822195	-1.3251901971	 1.9998712296	 0.109662
H	-1.1053498502	-2.0506641441	 3.4086453273	 0.119618
H	-2.4112396905	-1.0674606957	 4.0966739213	 0.138858
H	-2.6905362899	-2.7856421154	 3.7133806178	 0.128295
47.8746	100.0778	154.1388	179.9189	210.4807	236.0647	249.9014	295.9961	368.0577	425.7551	497.4379	567.326	647.2244	660.6428	751.7211	819.1698	866.4013	913.7735	964.967	985.5432	1017.1839	1024.5484	1067.6752	1094.262	1114.2936	1138.1272	1151.3233	1177.8292	1233.1047	1266.2534	1281.6442	1308.9478	1336.167	1348.7092	1374.5977	1390.8661	1398.4617	1410.638	1485.998	1487.4673	1493.689	1496.9329	1515.5747	1520.9523	1842.5858	2969.5541	3001.3442	3020.5405	3031.9736	3036.3001	3043.7636	3055.5906	3098.1981	3100.1414	3118.0017	3130.9207	3138.7102
CCC1COC(C)C1=O	CC[C@H]1CO[C@@H](C)C1=O	
InChI=1S/C7H12O2/c1-3-6-4-9-5(2)7(6)8/h5-6H,3-4H2,1-2H3	InChI=1S/C7H12O2/c1-3-6-4-9-5(2)7(6)8/h5-6H,3-4H2,1-2H3/t5-,6-/m0/s1
