20
gdb 59107	2.18022	1.55153	1.05601	2.697	76.54	-0.2348	-0.0284	0.2064	1192.086	0.168846	-440.270932	-440.261397	-440.260452	-440.305381	35.375	
C	 0.7944349811	-0.287595324	-1.2526870599	-0.327826
N	 0.0437804054	-0.0905487693	-0.0141353749	-0.091733
C	 0.2095807124	 1.2671227018	 0.5071204337	-0.334104
C	-1.3341861158	-0.5027373291	-0.1619724671	-0.103503
C	-1.5756807245	-2.0533043079	-0.0860868316	 0.114645
O	-0.5573699102	-2.6705589704	 0.6591342825	-0.445347
C	-2.8546147114	-1.8059568972	 0.7675680332	-0.351633
C	-2.3190961485	-0.3944404474	 1.0323449294	 0.375032
O	-2.5016007679	 0.4231596763	 1.8872103095	-0.297145
H	 1.8499146826	-0.0586015324	-1.078450829	 0.126302
H	 0.7193359816	-1.330390712	-1.5729809912	 0.135815
H	 0.4321627235	 0.3582020172	-2.0725483084	 0.103365
H	-0.1060800267	 2.0359718364	-0.2199959034	 0.098431
H	-0.378458159	 1.39245592	 1.4156064863	 0.162926
H	 1.2663421632	 1.4336922191	 0.7371506529	 0.119926
H	-1.8330468772	-0.0760414047	-1.0536529204	 0.084586
H	-1.7261880524	-2.5718559551	-1.0377004313	 0.076589
H	 0.107706881	-1.976239111	 0.8103930772	 0.284854
H	-3.7801032837	-1.786779017	 0.182112201	 0.126971
H	-2.9820380135	-2.4502983333	 1.6388236015	 0.141849
66.8381	76.6564	172.7214	187.974	235.8628	252.476	313.239	346.27	378.8307	396.3177	439.4047	553.3178	557.6265	582.6454	702.2923	757.9243	861.7669	888.4255	925.8998	983.1178	1048.3421	1060.0153	1066.8006	1099.8617	1124.6932	1128.7103	1173.6156	1191.3297	1215.7435	1246.6957	1271.0528	1315.4546	1337.5189	1369.3265	1419.6556	1434.0177	1445.6895	1477.031	1485.9109	1496.0865	1503.0993	1515.5971	1884.5016	2917.3632	2949.9735	2957.7452	3053.1458	3064.219	3073.5217	3076.7159	3117.5661	3135.521	3159.353	3619.2183
CN(C)C1C(O)CC1=O	CN(C)[C@H]1[C@@H](O)CC1=O	
InChI=1S/C6H11NO2/c1-7(2)6-4(8)3-5(6)9/h4,6,8H,3H2,1-2H3	InChI=1S/C6H11NO2/c1-7(2)6-4(8)3-5(6)9/h4,6,8H,3H2,1-2H3/t4-,6-/m0/s1
