14
gdb 23088	3.26344	1.30378	1.17594	2.0093	65.6	-0.2366	0.0078	0.2444	1045.0698	0.099424	-473.684079	-473.676644	-473.6757	-473.715918	28.873	
O	-0.1588789705	 1.3255793047	 0.0558748585	-0.399683
N	-0.0060347588	-0.0785555093	 0.060081891	-0.293537
C	-1.1306188274	-0.6565733729	 0.07162867	 0.522382
C	-1.5178326958	-2.0791547051	-0.0814326206	-0.262133
C	-2.92389163	-2.1318958738	 0.6066285799	-0.004012
O	-3.173365271	-0.8565640614	 1.1851664275	-0.276582
C	-2.6008749154	-0.2558666529	-0.009549155	-0.136865
C	-2.8087997269	-1.6494056781	-0.7948747585	 0.317188
O	-3.2373517712	-2.02110749	-2.0302328048	-0.435181
H	 0.7565330378	 1.6241202899	 0.0499078632	 0.307216
H	-0.9136379215	-2.9586211012	-0.249957043	 0.11772
H	-3.3233490577	-3.0239823149	 1.070194804	 0.126956
H	-2.947934839	 0.7481695641	-0.2288556697	 0.11428
H	-4.1921453226	-1.8881594491	-2.0804573626	 0.302251
102.3053	192.676	264.6742	319.1102	335.0663	377.6711	393.4966	495.1545	566.3705	607.0949	674.4604	721.603	739.592	816.372	873.2693	887.094	929.075	962.1822	978.5419	1009.4979	1055.9812	1095.8792	1116.2769	1165.8943	1195.8652	1220.259	1288.4584	1314.2653	1415.5363	1484.2573	1803.1101	3191.7555	3213.8726	3236.5561	3775.605	3823.1303
ON=C1C2C3OC1C23O	ON=C1[C@H]2[C@H]3O[C@@H]1[C@@]23O	
InChI=1S/C5H5NO3/c7-5-1-2(6-8)4(5)9-3(1)5/h1,3-4,7-8H	InChI=1S/C5H5NO3/c7-5-1-2(6-8)4(5)9-3(1)5/h1,3-4,7-8H/t1-,3+,4-,5+/m0/s1
