23
gdb 72498	2.38789	1.70115	1.40785	1.3965	83.28	-0.253	0.0726	0.3256	1059.0813	0.209547	-388.328675	-388.320839	-388.319895	-388.360194	33.328	
O	-0.0550640274	 1.3938911255	-0.0323776711	-0.498541
C	 0.0292280348	-0.0230786478	 0.017293076	 0.42579
C	 0.6377346908	-0.5610552053	 1.3422544629	-0.262599
C	-0.0960379207	-1.9065721552	 1.6178492474	-0.217274
C	-1.0854203635	-2.0768878565	 0.4317622924	 0.00268
C	-1.3844588085	-0.6180869651	 0.0469449221	-0.234551
C	-0.4304207226	-2.7867145068	-0.7701274241	-0.197905
C	 0.8906721064	-2.1096690421	-1.1806929044	-0.205637
C	 0.7743658279	-0.5738792711	-1.2142205915	-0.247012
H	 0.8395025212	 1.7415923841	-0.1135279274	 0.269059
H	 1.7250943903	-0.6764073552	 1.2802760879	 0.085329
H	 0.4315942814	 0.1715430829	 2.127421322	 0.101261
H	 0.5908698071	-2.7545294254	 1.7016341845	 0.092551
H	-0.6467058732	-1.8535976403	 2.5615620068	 0.096992
H	-1.9844671407	-2.6233364534	 0.7315955478	 0.058486
H	-1.9769421926	-0.1104739794	 0.8160421003	 0.093958
H	-1.9058776227	-0.5138395604	-0.9094842585	 0.089486
H	-0.2449463041	-3.8415821678	-0.5351917002	 0.0885
H	-1.135259768	-2.7724382557	-1.6116743296	 0.091398
H	 1.6732368062	-2.3920756137	-0.4661260229	 0.100331
H	 1.2250816201	-2.4842322374	-2.1541415522	 0.092694
H	 0.2333878901	-0.2444870907	-2.1095329728	 0.099129
H	 1.7777144276	-0.1283903833	-1.2682836753	 0.075875
174.4353	247.9491	265.9543	278.4581	322.799	394.5941	418.5214	420.3072	455.7987	519.7601	595.688	715.0069	755.674	784.2635	817.9318	875.8965	882.5384	887.8658	920.2471	948.5453	985.0018	1002.8921	1006.8642	1033.0954	1054.8752	1065.9273	1120.882	1136.3728	1145.853	1202.2216	1210.3482	1229.6439	1252.1793	1273.3287	1283.9525	1293.7571	1320.4239	1335.8941	1346.2102	1363.0747	1374.2355	1387.9672	1406.8918	1480.0053	1483.1222	1491.1486	1495.0734	1497.3998	1520.1606	3004.8428	3017.5593	3029.1013	3038.8523	3041.7672	3048.8383	3053.3022	3056.4586	3064.9675	3073.8117	3077.3243	3090.6384	3099.6171	3802.5609
OC12CCC(C1)CCC2	O[C@@]12CC[C@@H](C1)CCC2	
InChI=1S/C8H14O/c9-8-4-1-2-7(6-8)3-5-8/h7,9H,1-6H2	InChI=1S/C8H14O/c9-8-4-1-2-7(6-8)3-5-8/h7,9H,1-6H2/t7-,8-/m0/s1
