22
gdb 121457	3.76794	0.73389	0.66126	2.0801	87.19	-0.2455	0.0315	0.277	1811.4216	0.193041	-404.355659	-404.345342	-404.344397	-404.392679	36.349	
C	 0.2464736438	 1.7209457717	-0.5387817792	-0.38022
C	 0.7793326863	 0.4893022024	-1.2741051284	-0.151566
C	 0.2733622423	-0.8228903877	-0.6675896765	-0.155773
N	 0.866595612	-1.9654705394	-1.3563822362	-0.336538
C	 0.1433156794	-2.9239946947	-1.7012614087	 0.461369
O	-1.2200146487	-3.13486749	-1.5351818842	-0.269513
C	-1.1522111552	-4.3888977381	-2.2778673423	-0.090035
C	 0.376422765	-4.2243459425	-2.4487581	-0.145677
C	 0.9505097924	-4.1156449868	-3.8557849434	-0.402385
H	-0.8484813978	 1.7577583335	-0.5629919286	 0.113545
H	 0.5522252909	 1.7187631279	 0.5136762229	 0.112791
H	 0.6192687789	 2.645324881	-0.9904057727	 0.111303
H	 0.4860170994	 0.5263903179	-2.3304581952	 0.09481
H	 1.8751535826	 0.4797126791	-1.2596339719	 0.103868
H	 0.5783456503	-0.8689498559	 0.3872427592	 0.10298
H	-0.8252115081	-0.8470322505	-0.6840883985	 0.105995
H	-1.4947413404	-5.2265320008	-1.6652385647	 0.11775
H	-1.7388858818	-4.3289005902	-3.1994887067	 0.116158
H	 0.9480449388	-4.9416369364	-1.8524492807	 0.106349
H	 0.3681960815	-3.4180317595	-4.4661368719	 0.123775
H	 1.9791970937	-3.7472371565	-3.8157592789	 0.142365
H	 0.9538449948	-5.0892729444	-4.3560538034	 0.118649
22.8875	72.2248	85.3776	123.5984	197.1349	204.093	232.53	240.4966	317.6425	353.5367	414.9063	556.4082	666.605	737.499	754.3539	825.7465	890.1729	893.9526	897.0889	925.5731	974.9586	1025.3267	1056.1288	1077.2016	1112.5181	1123.0921	1137.9266	1154.1064	1172.9891	1189.4467	1252.3472	1270.1485	1316.0132	1328.0962	1333.3755	1370.9899	1400.8406	1411.2499	1412.0792	1486.8453	1494.8955	1496.7283	1497.2058	1498.889	1512.3037	1518.5551	1842.2108	2997.5989	3027.8896	3029.7986	3034.5833	3038.4722	3053.008	3067.6463	3068.0895	3096.5205	3102.4034	3107.5342	3112.6557	3120.495
CCCN=C1OCC1C	CCCN=C1OC[C@H]1C	
InChI=1S/C7H13NO/c1-3-4-8-7-6(2)5-9-7/h6H,3-5H2,1-2H3	InChI=1S/C7H13NO/c1-3-4-8-7-6(2)5-9-7/h6H,3-5H2,1-2H3/t6-/m1/s1
