18
gdb 66864	3.58868	1.82038	1.6096	1.4456	81.83	-0.1932	-0.0127	0.1805	894.3049	0.148604	-364.700206	-364.693328	-364.692383	-364.730835	28.717	
C	 0.1102457782	 1.5378457095	-0.0027470116	-0.521889
C	-0.0006521433	 0.0426083731	-0.0262746388	 0.298451
C	 0.9737362215	-0.9108869754	-0.660446455	-0.129038
C	 0.3326287055	-2.0057461917	-1.3394913015	-0.098218
C	-0.9881795448	-2.0531550305	-0.9654111423	-0.064434
C	-1.1872255182	-2.9305069298	 0.2836982919	-0.194475
N	-0.8558893668	-1.6371182351	 1.0514584378	-0.096521
C	 0.4453997382	-1.0169620397	 0.9458384992	-0.096691
C	-1.2886994208	-0.7946271351	-0.1244828783	-0.071595
H	 1.1341514736	 1.8564192785	 0.2169056416	 0.122815
H	-0.1698804367	 1.963973458	-0.9727178865	 0.128702
H	-0.5462243014	 1.9702889089	 0.7596544014	 0.127832
H	 2.0151485792	-0.6222479294	-0.7565645902	 0.089187
H	 0.8907950666	-2.8984985652	-1.6067235783	 0.090222
H	-2.2081776585	-3.2118031096	 0.5554391824	 0.114716
H	-0.5038638107	-3.7701705577	 0.4305559021	 0.11357
H	 1.2135575465	-1.0719792154	 1.703586129	 0.111064
H	-2.2820547481	-0.3470910336	-0.0847162229	 0.076303
198.7071	222.5381	249.2758	336.442	363.8682	493.9389	543.3178	587.3311	635.597	727.7718	739.7975	785.7023	796.2738	870.9774	876.1415	889.1875	898.4216	946.3339	961.1039	985.4632	1018.6443	1041.0813	1052.8683	1099.078	1122.1109	1166.1522	1178.2799	1184.9213	1216.5597	1240.5911	1251.5875	1279.2284	1330.2009	1412.3858	1457.3851	1488.9881	1494.3183	1499.6385	1513.9032	3029.1887	3055.7921	3093.979	3101.6568	3105.1129	3120.9416	3161.0145	3179.7849	3226.1684
CC12C3C=C4CN(C13)C24	C[C@@]12[C@@H]3[CH][C]4CN([C@H]13)[C@@H]24	
InChI=1S/C8H9N/c1-8-5-2-4-3-9(6(4)8)7(5)8/h2,5-7H,3H2,1H3	InChI=1S/C8H9N/c1-8-5-2-4-3-9(6(4)8)7(5)8/h2,5-7H,3H2,1H3/t5-,6-,7+,8+/m1/s1
