14
gdb 130134	3.25687	1.4794	1.01819	2.4002	69.8	-0.203	-0.0372	0.1658	1076.664	0.104079	-466.243622	-466.235857	-466.234913	-466.275544	29.956	
N	-0.025251092	 1.3652827414	 0.1589835627	-0.555971
C	-0.0215164652	-0.0104684899	 0.0494743996	 0.438792
N	-1.1758640061	-0.623194489	 0.0141036265	-0.313897
N	-1.0800147745	-1.9920983037	-0.0097982213	-0.286001
C	 0.0477706411	-2.7411787178	-0.0203484074	 0.401815
O	 0.0905455393	-3.9679480758	-0.0447852185	-0.421061
C	 1.265477884	-1.8835033383	-0.005650718	 0.317662
N	 2.4113970314	-2.5757360017	-0.0358103183	-0.543978
N	 1.2258163406	-0.5802188514	 0.0298718029	-0.383146
H	 0.804909098	 1.807925935	-0.2027594625	 0.257255
H	-0.8927496454	 1.8062986537	-0.1053973757	 0.258226
H	-1.9668128825	-2.4755127252	-0.0260002136	 0.273288
H	 2.3377483219	-3.5811124925	-0.0508391339	 0.285956
H	 3.2994180393	-2.1064205947	-0.0147707227	 0.271061
118.899	200.4618	260.3248	304.5627	330.8948	361.3932	422.0442	447.4815	505.7457	539.8601	567.1303	596.4399	641.3752	684.8499	732.5206	748.5973	815.2694	828.0896	970.3563	1053.6302	1173.133	1250.7725	1318.6275	1411.8906	1429.084	1476.8902	1558.9705	1607.5666	1648.0886	1675.0526	1766.5566	3585.8404	3594.1912	3613.6591	3702.5263	3742.6221
NC1=NNC(=O)C(N)=N1	Nc1n[nH]c(=O)c(N)n1	
InChI=1S/C3H5N5O/c4-1-2(9)7-8-3(5)6-1/h(H,7,9)(H4,4,5,6,8)	InChI=1S/C3H5N5O/c4-1-2(9)7-8-3(5)6-1/h(H,7,9)(H4,4,5,6,8)
