21
gdb 91757	2.43777	1.74365	1.55664	1.8694	76.32	-0.2493	0.0719	0.3212	995.8112	0.185906	-424.240766	-424.233227	-424.232283	-424.272308	30.901	
C	-0.3835056346	 1.5219454528	 0.0109421921	-0.416932
C	 0.004817892	 0.0442157954	-0.0233506825	 0.021043
C	 0.7485853012	-0.4529715582	-1.3060135431	-0.269598
C	 1.9307977581	-1.3043111609	-0.7768265344	 0.116101
C	 1.429930839	-1.7857485168	 0.5928357598	-0.231484
C	 0.9253318303	-0.4381094189	 1.1271960937	 0.107432
O	 2.0582348078	 0.4094005256	 1.3584461476	-0.27364
C	 2.8611424059	 0.6262910435	 0.2180711387	 0.022069
O	 3.113752866	-0.5278896112	-0.5428800716	-0.268639
H	 0.4861006588	 2.1809441792	-0.0493896957	 0.127898
H	-1.0496473523	 1.7666368429	-0.8228516648	 0.113471
H	-0.9110687238	 1.7636893936	 0.9395053178	 0.116522
H	-0.9184638775	-0.5399808798	 0.0782281747	 0.077055
H	 0.0968104824	-1.0738195781	-1.9272461085	 0.10066
H	 1.1049642034	 0.3663170961	-1.9372177283	 0.111375
H	 2.2364498764	-2.0953335354	-1.4636022758	 0.076725
H	 0.6101233184	-2.5060613721	 0.4967788919	 0.092632
H	 2.2283642677	-2.2161658581	 1.1995685363	 0.108023
H	 0.4078530899	-0.4868588806	 2.0878388866	 0.073606
H	 2.4059567232	 1.4006030792	-0.419989602	 0.078151
H	 3.8283060476	 0.9839719415	 0.5804189273	 0.117531
157.0612	180.3086	232.0648	305.4562	356.4956	384.9804	422.9608	447.5636	536.9755	606.9788	694.2972	794.2573	806.959	832.2092	872.4568	904.7886	925.4956	948.4187	973.1133	994.5035	1021.8804	1041.5121	1061.6344	1089.4865	1109.9971	1162.3115	1182.6906	1197.0563	1233.3972	1237.0024	1262.0165	1292.6123	1307.7276	1328.6961	1335.7704	1370.598	1380.7097	1385.8856	1419.082	1450.6018	1476.7287	1488.5368	1494.2181	1498.372	1534.2595	2972.8425	3017.3645	3039.1733	3050.8258	3056.4608	3089.2377	3093.8931	3095.239	3099.5087	3103.4625	3120.1097	3125.1186
CC1CC2CC1OCO2	C[C@H]1C[C@@H]2C[C@H]1OCO2	
InChI=1S/C7H12O2/c1-5-2-6-3-7(5)9-4-8-6/h5-7H,2-4H2,1H3	InChI=1S/C7H12O2/c1-5-2-6-3-7(5)9-4-8-6/h5-7H,2-4H2,1H3/t5-,6+,7+/m0/s1
