18
gdb 9640	4.00847	1.18902	1.08595	5.2512	73.38	-0.2492	0.0306	0.2798	1153.6325	0.153143	-343.982509	-343.973411	-343.972467	-344.016344	32.782	
C	 0.2422940112	 1.4461439545	 0.2011734841	-0.37269
C	-0.1499904637	-0.0025218233	-0.1144297444	-0.20993
C	 0.5644302428	-0.543225639	-1.3337906984	-0.014546
C	 1.9520395241	-1.1153065075	-1.2435571627	-0.314021
C	 0.7904338008	-2.0545315023	-1.509048255	 0.125283
N	 0.4348444528	-3.0385169362	-0.5180753064	-0.563522
C	 0.6526716829	-2.5454288195	-2.8659342325	 0.285745
N	 0.5183992823	-2.9108454093	-3.9552403849	-0.34781
H	 1.3164253808	 1.5306237225	 0.3954109891	 0.120962
H	 0.0035708783	 2.1111294896	-0.6353468727	 0.12284
H	-0.2911583384	 1.8138131331	 1.0828098962	 0.11774
H	 0.0647895668	-0.6386234851	 0.7519097977	 0.086685
H	-1.2341548516	-0.0610548002	-0.2757886442	 0.107807
H	 0.3410489315	-0.0158567069	-2.2575087756	 0.109504
H	 2.6569375428	-0.9352037067	-2.046096302	 0.141261
H	 2.4052822732	-1.1993054503	-0.2597684516	 0.120704
H	 0.9338244799	-2.8966736267	 0.3497826729	 0.240649
H	-0.5605575465	-3.0381746069	-0.3236649496	 0.243341
63.4622	125.9313	134.2387	152.9886	223.2196	236.0549	290.0247	362.131	425.2274	452.6674	580.9293	603.9849	700.543	758.3599	777.9489	805.7696	876.6476	944.1846	951.3031	980.7813	1055.1257	1062.803	1090.4372	1124.7122	1180.6961	1208.4085	1287.0718	1307.0724	1317.5319	1352.8059	1409.5776	1424.2757	1479.7486	1489.0116	1497.5705	1507.8471	1653.0635	2350.2774	3023.2393	3036.0834	3059.5096	3105.7585	3109.5514	3129.3787	3147.5308	3224.7379	3520.6681	3620.9062
CCC1CC1(N)C#N	CC[C@H]1C[C@]1(N)C#N	
InChI=1S/C6H10N2/c1-2-5-3-6(5,8)4-7/h5H,2-3,8H2,1H3	InChI=1S/C6H10N2/c1-2-5-3-6(5,8)4-7/h5H,2-3,8H2,1H3/t5-,6-/m0/s1
