20
gdb 38387	4.18322	1.23585	1.19294	1.6016	83.12	-0.2226	0.0842	0.3068	1119.3508	0.172796	-365.928266	-365.920929	-365.919984	-365.959874	30.089	
C	 0.0051445243	 1.4676733223	-0.1153809241	-0.235089
C	 1.5698268326	 1.4428134899	-0.089254402	-0.23055
C	 1.532690946	-0.084448791	 0.0573157821	-0.116526
C	-0.0087774253	-0.0584037823	 0.0316194152	-0.147275
C	 0.7740873161	-0.6957873375	-1.073484058	 0.43974
C	 0.7356804384	-0.3895427297	-2.5973607369	-0.323626
C	 0.6675869518	-1.9068203116	-2.8304830684	-0.036113
N	 1.8919801142	-2.487258635	-2.2238950716	-0.336264
C	 0.7107088567	-2.1815613294	-1.3687951246	-0.182861
H	-0.4127752401	 1.9828859	 0.7521607969	 0.10229
H	-0.470105018	 1.8684572728	-1.0173287377	 0.093562
H	 2.0868094518	 1.8251588523	-0.9754133573	 0.097655
H	 1.972838086	 1.9478319652	 0.7912493466	 0.102026
H	 2.2031651679	-0.6771544445	 0.6687978661	 0.08275
H	-0.7175923689	-0.6275131743	 0.6238140991	 0.077956
H	-0.1772832539	 0.1322474022	-2.8971779667	 0.103004
H	 1.6084777492	 0.1075701986	-3.0286064237	 0.10669
H	 0.1377909293	-2.4284561192	-3.6177044058	 0.091171
H	 1.8625170408	-3.4901720045	-2.4122164604	 0.223411
H	 0.2310883713	-2.9574997643	-0.7835234188	 0.08805
124.4626	168.6852	180.611	295.8981	385.0701	424.1547	535.1101	556.2481	717.4194	756.5031	781.0903	811.6458	831.4122	849.8481	863.8962	908.5516	924.7262	953.2351	960.2751	977.8231	993.4486	1005.8376	1021.3377	1060.2895	1068.7269	1094.7768	1113.8929	1126.2314	1162.9249	1178.8758	1222.4633	1224.829	1235.0156	1253.5191	1262.4681	1284.7765	1298.3957	1325.2466	1370.7527	1448.5227	1471.9751	1481.5461	1503.3093	3039.9547	3049.5002	3056.0962	3094.5145	3111.6325	3113.0521	3161.1742	3176.6747	3179.4299	3193.4558	3457.1872
C1CC2C1C21CC2NC12	C1C[C@H]2[C@@H]1[C@]12C[C@H]2N[C@@H]12	
InChI=1S/C8H11N/c1-2-5-4(1)8(5)3-6-7(8)9-6/h4-7,9H,1-3H2	InChI=1S/C8H11N/c1-2-5-4(1)8(5)3-6-7(8)9-6/h4-7,9H,1-3H2/t4-,5+,6-,7-,8+/m1/s1
