18
gdb 125895	4.49521	1.1879	0.97521	3.6581	77.74	-0.2379	-0.0048	0.2332	1200.1979	0.149999	-401.956389	-401.948952	-401.948008	-401.988427	28.908	
C	 0.0315788494	 1.544429567	-0.0112766853	-0.404452
C	 0.087357185	 0.0190378649	 0.0115034482	 0.048114
C	 0.8621977971	-0.6050952523	-1.204440224	-0.37582
C	 1.4660314997	-1.8006596711	-0.5509956467	 0.394059
C	 1.4091049487	-1.8097845654	 0.8020730125	 0.16999
C	 0.730473741	-0.5755196108	 1.3195154594	-0.377125
C	 2.0880553533	-3.0070404782	 1.1395289266	-0.129867
N	 2.5033076512	-3.6518465888	 0.0688580584	-0.146262
O	 2.1044175588	-2.8654663429	-1.0325739029	-0.230518
H	 1.0383172923	 1.9755068724	 0.0330653408	 0.118852
H	-0.4499065797	 1.9126427769	-0.9232761046	 0.118546
H	-0.5344648977	 1.9309865149	 0.842716349	 0.119222
H	-0.9363184355	-0.3692571544	-0.0394752135	 0.090879
H	 0.2010949372	-0.837918072	-2.0444977103	 0.126415
H	 1.6377418532	 0.0744866216	-1.5829308284	 0.123725
H	 1.4507224516	 0.1290514404	 1.756803647	 0.111461
H	-0.0303326896	-0.7627106636	 2.0838610784	 0.113376
H	 2.2952838539	-3.4453991089	 2.1061194755	 0.129404
73.5771	226.6769	240.601	250.5144	283.6114	411.14	443.0341	507.7455	638.2488	663.3264	719.3882	764.1926	803.8477	865.0057	900.43	909.2871	927.6179	951.4837	975.7725	1052.0727	1107.7168	1108.1891	1151.1559	1181.6232	1198.4456	1226.906	1255.538	1276.7496	1341.1569	1361.4831	1369.8779	1413.3942	1418.3779	1485.9558	1495.3693	1497.3056	1501.7762	1508.4398	1655.4274	3014.984	3018.3582	3027.3878	3034.6908	3070.2488	3080.6343	3096.872	3099.4373	3236.8506
CC1CC2=C(C1)C=NO2	C[C@H]1Cc2c(C1)cno2	
InChI=1S/C7H9NO/c1-5-2-6-4-8-9-7(6)3-5/h4-5H,2-3H2,1H3	InChI=1S/C7H9NO/c1-5-2-6-4-8-9-7(6)3-5/h4-5H,2-3H2,1H3/t5-/m1/s1
