17
gdb 109485	2.11313	1.80728	1.05599	0.994	71.6	-0.2575	-0.0074	0.25	1125.2121	0.137019	-455.212295	-455.203821	-455.202877	-455.245963	30.725	
C	 0.0694874731	 1.55941013	-0.080561178	-0.385829
C	-0.0346100961	 0.0411464105	 0.0626066267	-0.151687
N	 0.696116025	-0.4657667184	 1.2194730938	-0.148846
C	 2.0743085372	-0.657511497	 1.2379466811	 0.486498
N	 2.8386872519	-0.4175667066	 0.2637893607	-0.581245
O	 2.4352093398	-1.1408032644	 2.4629644669	-0.24924
C	 1.2741854279	-1.2859551979	 3.2847055543	-0.220436
C	 0.1126705962	-0.8199787127	 2.4145741902	 0.393478
O	-1.0591220259	-0.7734072192	 2.6986255036	-0.367415
H	 1.111809378	 1.8608414021	-0.2071882072	 0.149027
H	-0.4939321589	 1.8867614245	-0.9593627331	 0.123622
H	-0.3444129445	 2.0635562904	 0.7975229093	 0.12933
H	-1.072300772	-0.2701031084	 0.2050552465	 0.139994
H	 0.3703311147	-0.4567870154	-0.8218197162	 0.140827
H	 3.8030948445	-0.6410905034	 0.4998313498	 0.234709
H	 1.1504528987	-2.3320952363	 3.5809817737	 0.153789
H	 1.3691188405	-0.6685703777	 4.1831563479	 0.153424
61.7227	114.8119	148.5638	189.9595	213.3355	301.8666	347.0677	426.9091	567.6255	586.7637	616.1096	687.431	728.4968	745.0181	788.6865	813.1939	958.6051	980.0743	1024.3284	1041.7169	1091.84	1103.3686	1141.0624	1199.8368	1208.1688	1267.5267	1351.3571	1385.9338	1395.572	1410.7981	1451.3016	1479.0773	1492.26	1493.9879	1506.7504	1779.1183	1854.4751	3047.2934	3057.1391	3072.3841	3103.678	3115.0474	3123.6608	3141.6067	3528.8002
CCN1C(=N)OCC1=O	CCN1[C]([NH])OCC1=O	
InChI=1S/C5H8N2O2/c1-2-7-4(8)3-9-5(7)6/h6H,2-3H2,1H3	InChI=1S/C5H8N2O2/c1-2-7-4(8)3-9-5(7)6/h6H,2-3H2,1H3
