20
gdb 32417	2.882	1.22536	0.92616	1.6254	83.9	-0.1796	0.0515	0.2311	1319.8172	0.170059	-403.193933	-403.183805	-403.18286	-403.228925	36.726	
C	-0.0022288431	 1.5917501265	-0.1489343086	-0.365326
C	-0.0227902233	 0.0678010346	 0.0709195305	-0.321063
C	-1.4050427009	-0.5162835771	 0.0572609513	 0.178172
C	-2.1199580827	-1.0222934518	 1.1213302216	-0.185098
N	-3.3526484651	-1.413956703	 0.6692582342	-0.312375
C	-3.4627642732	-1.1872499626	-0.6894012558	 0.241781
C	-4.6818021564	-1.5091268281	-1.4835315833	-0.509832
C	-2.266511486	-0.6284131336	-1.0776395322	 0.152404
O	-2.0014321117	-0.2204791777	-2.3630693086	-0.457757
H	 1.0225939949	 1.9773936598	-0.1656777361	 0.104229
H	-0.4830700192	 1.855420399	-1.0961967472	 0.120786
H	-0.5493395888	 2.1029302509	 0.6489297306	 0.119477
H	 0.6009031941	-0.4106904225	-0.7000629208	 0.085913
H	 0.4616082241	-0.171772751	 1.0242135142	 0.101754
H	-1.8418918058	-1.1327436352	 2.1576112875	 0.111069
H	-4.0720583932	-1.8251180361	 1.2364819684	 0.254195
H	-5.5454221054	-0.8905399212	-1.2054240354	 0.12184
H	-4.4746161338	-1.3287867066	-2.5408499869	 0.148904
H	-4.9834167574	-2.5590221803	-1.3759502238	 0.117434
H	-1.0496286072	-0.2471254037	-2.4987193597	 0.293491
70.2649	107.5488	118.4581	164.8704	189.7315	227.0997	250.1991	286.6023	305.457	360.224	437.2667	492.5067	566.9276	635.8825	689.6647	712.871	718.9664	748.989	794.961	953.5074	973.3128	1024.1996	1063.119	1067.6819	1086.4673	1124.3138	1220.4794	1247.2917	1280.9438	1298.1623	1334.6334	1364.7379	1405.8612	1413.7869	1443.2146	1482.9126	1484.9116	1489.8123	1495.9601	1508.7663	1511.6875	1569.4051	1678.2761	2983.0652	3008.3822	3033.6961	3049.5051	3055.6939	3104.3728	3111.2868	3124.7614	3254.9996	3689.8987	3829.6021
CCC1=CNC(C)=C1O	CCc1c[nH]c(C)c1O	
InChI=1S/C7H11NO/c1-3-6-4-8-5(2)7(6)9/h4,8-9H,3H2,1-2H3	InChI=1S/C7H11NO/c1-3-6-4-8-5(2)7(6)9/h4,8-9H,3H2,1-2H3
