13
gdb 21651	7.55374	1.28097	1.09674	2.8827	65.58	-0.2185	-0.0612	0.1572	996.1112	0.097576	-394.814767	-394.807756	-394.806811	-394.845923	25.739	
N	-0.0802665632	 1.379521792	 0.1529245399	-0.589429
C	 0.0560703418	-0.0002799407	 0.0469116268	 0.395879
N	-1.0264955935	-0.789761884	 0.019661785	-0.280293
N	-0.5375917762	-2.0386519564	-0.0045372061	-0.241305
C	 0.8170054426	-2.079664744	-0.0076290334	 0.316551
C	 1.5329575794	-3.3470437248	-0.0392898366	 0.081678
O	 0.9783914646	-4.4267140935	-0.0645208924	-0.294788
C	 1.2462930297	-0.7584935304	 0.0284901447	-0.383428
H	 0.6106935584	 1.8999295308	-0.3689935257	 0.250456
H	-1.0159505882	 1.6865425234	-0.0783777903	 0.255726
H	-1.152974405	-2.8352193727	-0.0256476579	 0.288618
H	 2.6385661707	-3.2576257795	-0.0392272078	 0.086439
H	 2.2647639289	-0.4053246203	 0.0495815338	 0.113895
116.846	172.0836	253.973	267.8435	346.0317	375.2586	502.0965	543.5224	657.141	679.4645	711.5541	746.7732	797.974	806.2208	999.8954	1027.974	1050.1451	1097.2267	1177.1137	1229.4236	1324.7925	1385.8363	1448.1378	1487.5813	1536.6828	1601.5138	1649.7507	1774.8492	2923.6819	3264.5548	3553.2169	3650.5901	3671.1029
NC1=NNC(C=O)=C1	Nc1n[nH]c(C=O)c1	
InChI=1S/C4H5N3O/c5-4-1-3(2-8)6-7-4/h1-2H,(H3,5,6,7)	InChI=1S/C4H5N3O/c5-4-1-3(2-8)6-7-4/h1-2H,(H3,5,6,7)
