18
gdb 51831	3.42018	1.09866	0.87245	4.4375	75.03	-0.2396	-0.0367	0.2029	1316.1599	0.147497	-439.113021	-439.104379	-439.103434	-439.14719	31.41	
N	 0.1024542919	 1.2364325462	 0.0126645307	-0.445409
C	 0.0483292155	-0.0198900357	-0.0759801444	 0.137452
O	-1.1046839158	-0.6572927162	 0.2397164591	-0.190684
C	-1.1480844075	-2.0536078123	 0.031403089	 0.025285
C	-2.3834602229	-2.683540156	 0.6713686394	-0.252203
C	-2.580783764	-3.9882684263	-0.1313600588	-0.226689
C	-2.2458203263	-3.5996050862	-1.583860135	-0.316672
C	-1.2564991388	-2.442360459	-1.4629325708	 0.390066
O	-0.6649216394	-1.8899167385	-2.3521815463	-0.306103
H	 1.0357952865	 1.5597616988	-0.2328304568	 0.229774
H	 0.8570885762	-0.6954025397	-0.3757040239	 0.096552
H	-0.2339704376	-2.5318470309	 0.4216108373	 0.103865
H	-2.2727153187	-2.8479506742	 1.7447554561	 0.116156
H	-3.2310801361	-2.0055281665	 0.5210024662	 0.129268
H	-1.8832328685	-4.7549008426	 0.2245982595	 0.112152
H	-3.5881666365	-4.3941180841	-0.0205710369	 0.115847
H	-1.8415618486	-4.4058664362	-2.200756894	 0.135365
H	-3.1287402795	-3.2121569107	-2.1082248605	 0.145979
61.0106	81.0608	126.837	166.2968	231.2196	294.0472	386.9564	419.0643	525.9509	553.4089	612.177	673.6441	731.4329	815.0464	827.2902	908.7368	920.1514	954.2114	1008.3892	1018.7745	1032.1172	1066.7515	1134.7102	1172.1119	1178.5645	1193.0925	1227.6833	1285.9714	1297.2908	1307.089	1318.1029	1339.3297	1376.3407	1427.3432	1445.1912	1494.9841	1506.7067	1745.2179	1853.505	2967.6961	3040.5676	3046.8665	3056.4764	3060.0108	3104.3717	3111.2658	3118.9287	3519.6411
N=COC1CCCC1=O	[NH][CH]O[C@H]1CCCC1=O	
InChI=1S/C6H9NO2/c7-4-9-6-3-1-2-5(6)8/h4,6-7H,1-3H2	InChI=1S/C6H9NO2/c7-4-9-6-3-1-2-5(6)8/h4,6-7H,1-3H2/t6-/m0/s1
