17
gdb 13126	3.97023	1.19738	0.98148	3.745	65.16	-0.2489	0.0312	0.2801	1162.7856	0.142211	-401.014699	-401.006169	-401.005225	-401.048378	30.04	
O	 0.168698845	 1.407364677	 0.0991224404	-0.419286
C	 0.0735926357	-0.0049391678	-0.0047754557	-0.071253
C	-1.3681520061	-0.5041955877	 0.1500287828	-0.22146
C	-1.4635685319	-2.0243911987	 0.061847148	-0.145053
C	-2.8805762785	-2.6768049795	 0.0114924867	-0.186559
N	-2.5114074869	-3.2200013428	-1.2985236232	-0.319147
C	-1.27047189	-2.6357653983	-1.3530299544	 0.428351
O	-0.4130933408	-2.606777016	-2.1970103145	-0.365579
H	-0.2095098818	 1.7859914084	-0.7004710023	 0.282273
H	 0.4966544196	-0.377344351	-0.9474369064	 0.125359
H	 0.6906029805	-0.4049859446	 0.8080863566	 0.108736
H	-1.7641272367	-0.1537874123	 1.1105589635	 0.109043
H	-1.9923711381	-0.0525888028	-0.6340263008	 0.091682
H	-0.8090162314	-2.5008379509	 0.7986431653	 0.103722
H	-3.0819651239	-3.4357436604	 0.7736401048	 0.114456
H	-3.7068232021	-1.958481288	-0.0194543401	 0.113508
H	-3.0342401025	-3.7424267148	-1.9856591808	 0.251207
82.693	88.7862	112.6291	172.2703	225.5671	287.2854	335.3032	383.2701	485.1915	497.6822	713.5762	759.8123	786.7778	852.1892	900.6726	976.8997	996.4332	1067.5596	1076.9453	1079.9818	1121.2328	1153.0206	1170.5263	1178.4995	1223.7829	1275.6858	1309.3768	1319.8171	1361.5039	1396.1067	1406.8423	1422.9556	1488.6685	1516.423	1527.9913	1883.2296	3008.7155	3020.1363	3038.4243	3052.924	3065.3159	3079.9087	3088.3285	3611.2636	3821.094
OCCC1CNC1=O	OCC[C@H]1CNC1=O	
InChI=1S/C5H9NO2/c7-2-1-4-3-6-5(4)8/h4,7H,1-3H2,(H,6,8)	InChI=1S/C5H9NO2/c7-2-1-4-3-6-5(4)8/h4,7H,1-3H2,(H,6,8)/t4-/m0/s1
