15
gdb 51991	5.87909	0.65345	0.5902	3.8042	67.04	-0.2601	-0.0405	0.2197	1752.8725	0.110806	-491.13517	-491.125687	-491.124743	-491.172355	31.222	
N	-0.2851256551	 1.2978886439	 0.0107732558	-0.408498
C	-0.0617486964	 0.0631765156	 0.0025421345	 0.117847
O	-1.153778981	-0.7810797732	 0.0091522943	-0.199608
C	-0.930617474	-2.1226393495	 0.0003601712	 0.455535
O	 0.1546609551	-2.6411429904	-0.0126208931	-0.346094
C	-2.246996636	-2.861917279	 0.0091716296	-0.253866
N	-1.9973776779	-4.2811659019	 0.0011444765	-0.288506
C	-3.0124856764	-5.1814645433	 0.0027469963	 0.158471
O	-4.1880018237	-4.8829358756	 0.0124749266	-0.321573
H	 0.5948850725	 1.8116300169	 0.0044762929	 0.246938
H	 0.8870359297	-0.4724374254	-0.0095681408	 0.150379
H	-2.823762452	-2.552664762	 0.8900685952	 0.168297
H	-2.8393232296	-2.5456553321	-0.8588534536	 0.168349
H	-1.0317995363	-4.5745653893	-0.0093980999	 0.267309
H	-2.6442368889	-6.2254668746	-0.0056329554	 0.085021
11.1449	71.1721	107.006	107.1001	136.382	219.2142	285.522	290.9162	397.0289	538.1636	539.2333	568.7796	698.4366	837.2581	852.9667	959.5458	1002.0128	1014.5998	1035.3417	1069.2054	1079.3397	1203.0834	1229.2366	1229.6615	1255.13	1372.8888	1391.4074	1423.207	1480.3148	1522.15	1751.6077	1801.6732	1834.6338	2951.5186	3035.4557	3058.0319	3146.0427	3511.5003	3620.2152
N=COC(=O)CNC=O	[NH][CH]OC(=O)CNC=O	
InChI=1S/C4H6N2O3/c5-2-9-4(8)1-6-3-7/h2-3,5H,1H2,(H,6,7)	InChI=1S/C4H6N2O3/c5-2-9-4(8)1-6-3-7/h2-3,5H,1H2,(H,6,7)
