16
gdb 25930	2.75818	1.63146	1.04546	3.9888	72.51	-0.2304	-0.0187	0.2118	1090.1767	0.1259	-434.148754	-434.140564	-434.13962	-434.181647	30.619	
C	-0.1146366502	 1.4776566812	 0.0200147703	-0.472126
C	-0.0220797861	-0.0095069056	-0.0124883057	 0.364846
N	-0.0927088599	-0.7359372891	-1.099480838	-0.309191
C	 0.0319135595	-2.0523361092	-0.6990633215	-0.096393
C	 0.1660555677	-2.1349093827	 0.6501251185	-0.132504
N	 0.1336270201	-0.817730691	 1.1118146575	-0.133941
C	 0.2152551177	-0.3739525889	 2.4551242573	 0.467757
N	 0.0137920664	-1.3694228692	 3.3767127943	-0.554482
O	 0.4720640488	 0.7713221094	 2.7451175722	-0.360244
H	 0.8081780282	 1.9279428239	 0.3935146027	 0.153085
H	-0.3068697987	 1.8185538346	-0.9982023818	 0.140692
H	-0.9173317476	 1.8214643009	 0.6786335794	 0.139424
H	 0.0244574085	-2.8594934567	-1.4156770885	 0.116052
H	 0.3494993581	-2.965258892	 1.3094773933	 0.135546
H	-0.56395039	-2.1593972828	 3.1404606454	 0.267577
H	-0.0485506224	-1.0393542927	 4.3271381347	 0.273901
73.8127	138.4281	177.2765	224.729	267.2936	351.6895	428.3081	446.7989	520.405	535.4652	628.7076	679.7791	688.0169	712.5173	734.4058	780.6319	869.4548	920.8892	1002.955	1066.1704	1076.0955	1116.5441	1156.2904	1189.7004	1242.3045	1324.9736	1377.2846	1410.6681	1427.25	1468.7365	1474.0243	1542.7567	1590.6076	1620.2536	1825.6509	3055.7114	3115.0516	3152.8107	3250.8274	3290.7632	3593.614	3714.2456
CC1=NC=CN1C(N)=O	Cc1nccn1C(=O)N	
InChI=1S/C5H7N3O/c1-4-7-2-3-8(4)5(6)9/h2-3H,1H3,(H2,6,9)	InChI=1S/C5H7N3O/c1-4-7-2-3-8(4)5(6)9/h2-3H,1H3,(H2,6,9)
