19
gdb 75946	2.26742	1.56748	1.1116	4.3363	77.82	-0.2484	0.0073	0.2557	1154.8339	0.158891	-423.078806	-423.069747	-423.068803	-423.113029	33.146	
C	 0.1422935054	 1.5696232266	-0.0287148072	-0.398392
C	 0.0885521947	 0.0229616657	 0.0342931505	-0.22804
C	 0.6648315333	-0.5353631559	-1.26423446	 0.416669
O	 0.0402065519	-0.5322469545	-2.2912040139	-0.338193
O	 1.9240782583	-1.0253763566	-1.2648647198	-0.228119
C	 2.7415150258	-1.0616474376	-0.0881672911	-0.115309
C	 1.9876289606	-0.9978207148	 1.2011995381	-0.181524
C	 0.748001901	-0.5218239976	 1.2798739758	 0.307232
C	-0.0429350832	-0.4773160755	 2.5565373385	-0.483195
H	 1.1769564962	 1.9258227342	-0.0452715511	 0.124805
H	-0.3637380398	 1.9220369395	-0.9304864628	 0.146281
H	-0.3522928807	 2.0083999381	 0.8420075426	 0.122173
H	-0.9685225781	-0.2658534125	 0.0168303178	 0.111332
H	 3.3054205966	-1.9984434548	-0.1589545007	 0.132029
H	 3.4763612839	-0.2460739408	-0.1630834986	 0.125228
H	 2.5100851974	-1.3656642584	 2.0799578986	 0.095642
H	 0.5367044301	-0.8583105309	 3.4010807004	 0.126397
H	-0.3624223176	 0.5439525328	 2.7965121797	 0.131437
H	-0.9573467759	-1.077680887	 2.4696844932	 0.133547
41.8556	115.6313	170.7426	224.0155	226.6968	254.6244	269.0642	307.9594	444.2622	486.6238	550.9831	573.7138	707.0067	738.3961	787.3064	814.1434	874.3737	929.9357	1000.9521	1032.9951	1045.8451	1065.5775	1076.471	1098.7306	1131.1894	1186.6688	1238.6369	1258.1521	1311.4284	1318.5239	1374.1136	1404.111	1414.0957	1430.9409	1477.9768	1489.5075	1496.531	1500.5848	1508.6226	1759.744	1835.9882	2994.4309	3022.9729	3042.9212	3046.8311	3058.4181	3072.0622	3115.6866	3117.5961	3132.0967	3167.5081
CC1C(=O)OCC=C1C	C[C@H]1C(=O)OCC=C1C	
InChI=1S/C7H10O2/c1-5-3-4-9-7(8)6(5)2/h3,6H,4H2,1-2H3	InChI=1S/C7H10O2/c1-5-3-4-9-7(8)6(5)2/h3,6H,4H2,1-2H3/t6-/m1/s1
