23
gdb 37440	2.34063	1.83411	1.81475	0.1388	86.22	-0.2512	0.0785	0.3298	974.1549	0.211807	-351.170814	-351.163894	-351.16295	-351.201488	30.509	
C	-0.0190154472	 1.5269376017	-0.138825488	-0.332544
C	 1.3013707257	 0.8128902226	 0.021839536	-0.007488
C	 0.0068982074	 0.026766533	 0.0301330057	-0.007607
C	-0.2035682449	-0.6597096642	 1.3799364966	-0.011183
C	 0.9929095396	-1.6232674895	 1.5796291666	-0.194128
C	 2.3263701851	-0.8126218713	 1.5721737149	-0.194274
C	 2.0192693894	 0.6918623277	 1.3661536486	-0.01113
C	 1.1287925734	 1.1641203041	 2.5312230531	-0.215544
C	-0.2027396264	 0.3547348394	 2.5394225501	-0.215549
H	-0.3979717316	 2.1604645113	 0.6537613989	 0.109575
H	-0.2501533975	 1.8968811485	-1.1322643699	 0.103004
H	 1.9423735192	 0.7554222789	-0.8534500289	 0.07442
H	-0.2460535914	-0.5726539845	-0.8399693211	 0.074457
H	-1.1423171651	-1.2238288688	 1.3855508452	 0.053897
H	 0.8747829876	-2.1689436311	 2.5224814646	 0.08644
H	 0.9943290381	-2.3750352245	 0.7832806613	 0.088788
H	 2.8723027126	-0.9532597157	 2.5117326719	 0.086473
H	 2.9870311882	-1.1644393313	 0.7727677647	 0.088774
H	 2.9519278721	 1.2660152524	 1.3605428908	 0.053883
H	 1.6730364272	 1.0213249243	 3.4709444819	 0.089484
H	 0.936053929	 2.238131031	 2.4483762497	 0.09538
H	-1.0679392095	 1.0199353776	 2.4594089924	 0.095412
H	-0.318963231	-0.1882131115	 3.4835149648	 0.089458
182.7165	304.0808	309.5644	311.7714	378.5235	499.1782	510.8272	554.1737	630.1002	728.0552	788.4258	808.7234	817.1739	826.9855	864.2446	870.9854	884.4118	934.9603	958.5221	963.2882	1017.9498	1025.579	1030.6583	1058.3925	1073.6358	1102.6769	1111.7938	1121.1171	1137.7139	1150.2736	1181.6943	1217.2396	1238.0551	1259.4356	1261.3607	1302.0144	1312.4577	1335.2624	1344.7467	1357.8968	1368.6747	1384.3689	1385.3077	1406.5951	1484.9774	1490.3225	1496.7374	1506.2573	1521.6502	3024.8628	3031.5496	3033.9865	3041.8346	3045.4073	3054.8541	3057.6741	3064.9386	3080.7479	3087.6881	3134.6119	3136.6876	3147.1047	3218.9977
C1C2C1C1CCC2CC1	C1[C@@H]2[C@H]1[C@H]1CC[C@@H]2CC1	
InChI=1S/C9H14/c1-2-7-4-3-6(1)8-5-9(7)8/h6-9H,1-5H2	InChI=1S/C9H14/c1-2-7-4-3-6(1)8-5-9(7)8/h6-9H,1-5H2/t6-,7+,8-,9+
