17
gdb 52859	1.83086	1.27311	0.83662	4.7326	82.09	-0.2448	0.0242	0.269	1403.9162	0.134511	-380.836063	-380.826243	-380.825299	-380.872886	33.792	
C	-0.0326905993	 1.5155578915	 0.1483515856	-0.502347
C	 0.000455137	 0.0612766218	 0.1230231948	 0.110401
C	 0.0256613251	-1.1430882929	 0.0966182406	 0.020744
C	 0.0794423737	-2.579863115	 0.0226229012	 0.129013
C	 1.3394899858	-3.1680254466	-0.6152877005	-0.401852
C	 1.5402239118	-2.7185727222	-1.993124124	 0.277694
N	 1.7042098518	-2.3635706117	-3.0799733641	-0.309704
C	-0.6246825678	-3.3770942226	 1.0739355598	-0.274279
N	-1.1537722826	-3.3330824731	-0.2930052826	-0.332682
H	 0.6954220328	 1.9339590172	-0.554601179	 0.162001
H	-1.0213776487	 1.8921750909	-0.135341754	 0.154982
H	 0.2004404466	 1.9051590205	 1.1452702823	 0.151492
H	 2.2193128834	-2.8910342975	-0.024322581	 0.155096
H	 1.260721702	-4.2592549498	-0.6111949455	 0.159626
H	-0.2176701639	-4.3382090313	 1.3778035156	 0.12422
H	-1.1311632393	-2.8235717421	 1.8584408692	 0.129232
H	-1.9386458382	-2.6895488571	-0.3505215184	 0.246364
19.8951	50.9668	90.8325	122.4462	166.1588	300.3101	303.2024	319.978	363.6715	388.7025	474.8891	526.9085	548.8071	669.1875	800.7147	884.3603	906.3362	956.4845	983.3855	993.1812	1037.3027	1050.721	1053.4625	1097.0573	1150.8407	1223.5603	1262.5059	1306.0022	1347.9393	1379.9035	1414.0241	1450.7209	1475.0341	1476.4338	1507.7535	2366.6509	2367.9323	3030.5696	3053.1082	3092.0043	3096.3388	3101.7639	3111.1636	3203.447	3516.929
CC#CC1(CC#N)CN1	CC#C[C@@]1(CC#N)CN1	
InChI=1S/C7H8N2/c1-2-3-7(4-5-8)6-9-7/h9H,4,6H2,1H3	InChI=1S/C7H8N2/c1-2-3-7(4-5-8)6-9-7/h9H,4,6H2,1H3/t7-/m1/s1
