15
gdb 11429	4.03476	1.61917	1.28394	4.2172	57.9	-0.2626	0.0546	0.3171	938.0259	0.119702	-436.983306	-436.975696	-436.974752	-437.015739	26.809	
C	 0.1292353076	 1.3435177239	-0.0779733254	-0.248934
O	 0.1312710973	-0.0768767018	-0.0267986175	-0.232538
C	 0.648977533	-0.5970027289	 1.1496917048	 0.215232
C	 0.5778111239	-2.1345626223	 1.0762031928	-0.203987
N	 1.9435288969	-2.4434543609	 0.721825594	-0.365142
C	 2.8002457778	-1.3996419544	 0.9556392117	 0.474115
O	 3.9965343886	-1.3840714812	 0.8992891212	-0.389651
O	 2.0405116415	-0.2997024811	 1.2918979245	-0.246174
H	 1.1475803987	 1.7450539456	-0.0529169724	 0.142459
H	-0.351081386	 1.6225843089	-1.0171905098	 0.135441
H	-0.4432808477	 1.7674981675	 0.7600895892	 0.111312
H	 0.1462416258	-0.1649779629	 2.0248466693	 0.086988
H	 0.2782482982	-2.5685692561	 2.0386141921	 0.116768
H	-0.1381586637	-2.4323852953	 0.306573069	 0.137468
H	 2.3141453783	-3.3759084709	 0.6651516764	 0.266643
82.2448	133.1078	135.5028	196.9181	265.9775	401.9766	433.2094	489.1631	557.6266	734.8758	763.5195	802.3587	870.4782	929.1752	992.9653	1028.0115	1086.1865	1094.8623	1151.7432	1181.4713	1208.4593	1222.9114	1260.4949	1326.04	1391.4626	1403.4643	1443.9629	1482.3775	1485.8613	1512.0365	1522.7436	1902.4505	2999.8463	3016.6365	3031.1142	3081.3058	3099.9307	3138.3254	3682.4913
COC1CNC(=O)O1	CO[C@H]1CNC(=O)O1	
InChI=1S/C4H7NO3/c1-7-3-2-5-4(6)8-3/h3H,2H2,1H3,(H,5,6)	InChI=1S/C4H7NO3/c1-7-3-2-5-4(6)8-3/h3H,2H2,1H3,(H,5,6)/t3-/m1/s1
