23
gdb 114218	4.46594	0.89608	0.82171	0.1698	93.7	-0.2181	0.0267	0.2448	1514.788	0.206366	-351.162433	-351.153336	-351.152392	-351.196526	35.418	
C	 0.1591723165	 1.5429919241	 0.0090340171	-0.387229
C	 0.0235324913	 0.0175352985	 0.0041202044	-0.175156
C	-1.4297490714	-0.4842801256	 0.0505411826	-0.016581
C	-1.5481132167	-2.0306070021	-0.0841968818	-0.330052
C	-2.6533868023	-2.4496500864	 0.8945862387	 0.353724
C	-3.8491102553	-3.2800557356	 0.4653765653	-0.310504
C	-2.8063843227	-3.8715920257	 1.3777805661	-0.315928
C	-2.8274620445	-1.2776542336	 1.7918108012	-0.140059
C	-2.1664147237	-0.2087541483	 1.3475819459	-0.088373
H	 1.2089659299	 1.8462246477	-0.0540104071	 0.111225
H	-0.3671672905	 1.9893116914	-0.8423277624	 0.113047
H	-0.2555503313	 1.9839431902	 0.9213843362	 0.117055
H	 0.5004662831	-0.3829798196	-0.9001452785	 0.092748
H	 0.5719970166	-0.4079973483	 0.8546901476	 0.0939
H	-1.9714013162	 0.005434196	-0.7746398006	 0.072781
H	-1.7474281153	-2.3472786377	-1.1120392766	 0.095065
H	-0.5981144519	-2.489354335	 0.2171232257	 0.098928
H	-4.8200491044	-3.035402038	 0.8838081357	 0.109488
H	-3.8804868516	-3.6193253499	-0.5651863372	 0.110288
H	-2.1311226654	-4.615985263	 0.9671630995	 0.108988
H	-3.0667839327	-4.0356365598	 2.4187309084	 0.108676
H	-3.4500757867	-1.3144144637	 2.6800851527	 0.088752
H	-2.1735615151	 0.7664354544	 1.8213171168	 0.089215
44.8509	105.6223	174.9506	211.5741	247.594	285.9937	301.5502	385.1333	397.378	517.6846	573.9713	678.94	764.3957	780.2143	785.7834	818.1524	845.3207	862.1701	922.1086	935.4564	958.4319	966.4867	969.705	992.0965	1019.2891	1057.9122	1064.9967	1075.5108	1116.909	1134.3396	1143.895	1191.3805	1203.6603	1269.8023	1278.056	1289.5232	1315.2321	1318.8964	1352.1919	1374.6824	1411.3498	1413.7009	1465.4323	1485.6014	1489.1498	1499.1968	1501.1723	1507.2304	1675.9582	2967.9149	3012.7516	3026.7398	3031.5326	3048.0776	3082.0389	3097.4696	3102.6011	3119.561	3123.9741	3175.0059	3198.1282	3203.6281	3214.3335
CCC1CC2(CC2)C=C1	CC[C@H]1CC2(CC2)C=C1	
InChI=1S/C9H14/c1-2-8-3-4-9(7-8)5-6-9/h3-4,8H,2,5-7H2,1H3	InChI=1S/C9H14/c1-2-8-3-4-9(7-8)5-6-9/h3-4,8H,2,5-7H2,1H3/t8-/m1/s1
