17
gdb 111384	2.23985	1.67517	1.15302	3.0989	71.3	-0.2568	-0.0019	0.255	1070.5757	0.13661	-417.960741	-417.95244	-417.951495	-417.993817	30.862	
O	 0.1072227875	 1.3786975141	 0.089634189	-0.422187
C	 0.0659182232	-0.0089512343	-0.1937650461	-0.101497
C	-1.3406519614	-0.575164307	-0.0132463932	-0.0285
C	-1.5600687702	-2.0874164303	-0.0604859114	-0.045501
C	-0.9610853627	-2.7793106063	 1.096356486	-0.249508
N	-2.2667336745	-2.1186400413	 1.2936635514	-0.132843
C	-1.9836699658	-0.6363433074	 1.416127275	-0.13426
C	-1.1425722727	-0.2266662608	 2.5348663778	 0.298651
N	-0.4303256433	 0.1187220561	 3.3790524235	-0.341434
H	 0.1837467844	 1.4834699686	 1.0442123599	 0.300367
H	 0.364368196	-0.1295774912	-1.2415941901	 0.116939
H	 0.7921577367	-0.5641069818	 0.414328896	 0.104947
H	-2.020735751	-0.043469887	-0.6817953244	 0.107764
H	-1.9662772928	-2.6270914697	-0.9089252106	 0.110581
H	-1.0480511377	-3.8605530707	 1.1237949747	 0.137465
H	-0.0832096698	-2.3860709534	 1.6014776581	 0.13867
H	-2.9329438459	-0.1012004077	 1.4736367543	 0.140346
94.0157	116.5392	150.7658	195.8212	253.9179	358.8626	383.1678	412.0887	466.8421	583.5681	601.979	717.8417	753.0361	784.1435	829.5539	930.4248	974.8786	989.3163	1018.8471	1047.5147	1070.898	1083.9503	1119.2686	1134.4662	1146.0733	1183.477	1214.3106	1247.0154	1273.5342	1342.6877	1351.0096	1367.4456	1406.8236	1417.0982	1495.1502	1507.3714	2340.6145	3017.1264	3065.3304	3091.8951	3104.3116	3123.449	3174.5015	3212.1349	3811.623
OCC1C2CN2C1C#N	OC[C@H]1[C@H]2CN2[C@H]1C#N	
InChI=1S/C6H8N2O/c7-1-5-4(3-9)6-2-8(5)6/h4-6,9H,2-3H2	InChI=1S/C6H8N2O/c7-1-5-4(3-9)6-2-8(5)6/h4-6,9H,2-3H2/t4-,5+,6-,8?/m1/s1
