17
gdb 77656	2.1047	1.57844	1.23825	3.7229	71.04	-0.2371	-0.0248	0.2123	1078.7774	0.133336	-458.926409	-458.917516	-458.916572	-458.959757	32.736	
C	 0.0171193954	 1.5157855816	-0.0011055985	-0.496225
C	 0.015932428	 0.0255049914	 0.057849924	 0.374232
O	 0.4989396278	-0.7042026487	-1.0600998181	-0.312075
C	 1.1795687554	-1.66322139	-0.1945073953	-0.149048
C	 0.6333259099	-1.006306146	 1.0590675602	 0.100708
C	 1.3748546108	-0.7958886691	 2.3049648782	 0.052051
O	 2.5143339166	-1.1772003182	 2.4679695669	-0.281353
C	-0.8728089477	-0.8350586083	 0.8939012929	-0.040745
O	-1.4742133877	-0.2502012259	 2.0086840597	-0.41527
H	 1.0243845774	 1.9058094973	-0.1698816635	 0.144935
H	-0.6188716132	 1.8516697542	-0.8288541976	 0.139235
H	-0.3728623337	 1.9320697198	 0.930746414	 0.135388
H	 0.8717403657	-2.6933515091	-0.4024391611	 0.114113
H	 2.2649774472	-1.5654198034	-0.2809759346	 0.138215
H	 0.8239489325	-0.2515107859	 3.0967429025	 0.093775
H	-1.4287440879	-1.6459753875	 0.4170549795	 0.102101
H	-2.2306430866	 0.2648171078	 1.7077605608	 0.299963
93.5054	166.0654	192.8046	198.4056	228.5987	265.9539	289.8017	311.4677	381.4122	446.0058	533.3644	554.8407	653.5755	711.5974	790.2876	809.3894	939.0198	986.3563	1003.5995	1045.2137	1053.4008	1094.9626	1137.4284	1153.9756	1171.2955	1222.9721	1253.0781	1312.9012	1343.3688	1378.1215	1409.8224	1420.3084	1455.5089	1479.9077	1497.7078	1519.0896	1780.2864	2942.3125	3035.6263	3044.9421	3071.6419	3103.4864	3106.4298	3132.4457	3805.3584
CC12OCC1(C=O)C2O	C[C@@]12OC[C@]1(C=O)[C@H]2O	
InChI=1S/C6H8O3/c1-5-4(8)6(5,2-7)3-9-5/h2,4,8H,3H2,1H3	InChI=1S/C6H8O3/c1-5-4(8)6(5,2-7)3-9-5/h2,4,8H,3H2,1H3/t4-,5-,6+/m0/s1
