18
gdb 85060	2.37711	1.59596	1.21834	0.819	68.73	-0.2658	0.0061	0.2719	1066.6038	0.147713	-476.239886	-476.231041	-476.230097	-476.273268	33.412	
C	 0.8051821197	 1.3088852682	-0.1792768781	-0.405866
C	-0.0017196439	 0.0476474217	 0.0890778541	 0.070375
O	 0.102540044	-0.8696192286	-1.031002813	-0.246971
C	 0.9785958317	-1.8718262282	-0.7648779499	 0.394096
N	 1.3788915262	-2.7455413413	-1.5857146675	-0.552324
C	 1.4680135595	-1.7820473181	 0.6672353665	-0.014893
O	 2.7643030552	-1.1907891824	 0.7174645054	-0.445438
C	 0.4862102654	-0.7885939308	 1.3090093843	 0.117022
O	 1.0288823854	-0.0419536072	 2.3637923438	-0.440386
H	 1.8654734596	 1.0723594228	-0.300902171	 0.131488
H	 0.4462187973	 1.8003711466	-1.0872143947	 0.125208
H	 0.6973567807	 1.9989573685	 0.6614441494	 0.135326
H	-1.063990983	 0.2908343536	 0.1780335836	 0.094892
H	 0.9745462352	-2.5892558566	-2.5111531476	 0.225355
H	 1.4713727794	-2.7655038044	 1.147682245	 0.101745
H	 3.3359294584	-1.6967771236	 0.1287585235	 0.30484
H	-0.3666768014	-1.3472593547	 1.7086748393	 0.102592
H	 1.9701749405	 0.0609005045	 2.170925427	 0.302938
75.0846	111.6775	236.0225	240.7968	261.3281	273.2828	319.9922	366.3547	421.4073	435.9207	516.1827	535.679	650.3684	703.7719	766.165	797.9386	886.0577	904.9819	917.616	973.1389	1038.0156	1071.0883	1115.7547	1120.1735	1143.3988	1149.265	1202.8314	1283.1573	1292.8004	1326.3182	1347.2315	1379.2381	1393.3748	1401.269	1414.4765	1451.0931	1488.9198	1502.8558	1771.5646	3050.2573	3051.8443	3063.0636	3076.0341	3129.8993	3134.9325	3467.5102	3769.1775	3809.3349
CC1OC(=N)C(O)C1O	C[C@H]1O[C]([NH])[C@@H](O)[C@H]1O	
InChI=1S/C5H9NO3/c1-2-3(7)4(8)5(6)9-2/h2-4,6-8H,1H3	InChI=1S/C5H9NO3/c1-2-3(7)4(8)5(6)9-2/h2-4,6-8H,1H3/t2-,3+,4+/m1/s1
