13
gdb 5216	8.31172	1.1951	1.04522	4.8992	70.76	-0.1996	-0.018	0.1816	1046.9521	0.097228	-394.819238	-394.812243	-394.811298	-394.850668	25.282	
N	 0.0047807633	 1.3519587524	 0.1713136435	-0.495064
C	 0.0928341122	-0.0035942286	 0.2222839399	 0.095711
N	 1.0660950993	-0.6342773287	-0.3260422122	-0.352869
C	 1.1694451416	-1.9863366719	-0.2126643449	 0.405292
C	 2.0837025263	-2.8711682221	-0.6995107421	-0.192648
N	 1.7458925019	-4.1602084863	-0.3078649187	-0.256935
C	 0.6670077897	-4.0089273439	 0.3842541272	 0.068229
O	 0.2382127263	-2.727039697	 0.4992607064	-0.193076
H	 0.6314501897	 1.8357605437	-0.4533104575	 0.268175
H	-0.8717229434	 1.7972831496	 0.3794351016	 0.266018
H	-0.7050058896	-0.4874225463	 0.7917965788	 0.125045
H	 2.9527272338	-2.6595509921	-1.3000347276	 0.120414
H	 0.0729340786	-4.7634946588	 0.8759406056	 0.141708
99.8623	156.8252	159.234	316.5234	369.8269	429.8464	477.4469	581.1105	662.2086	706.763	773.8586	806.8518	842.5327	924.4384	963.0687	1002.1449	1076.3787	1117.1759	1129.3531	1239.2964	1277.6942	1306.5416	1343.1455	1394.2235	1550.8552	1615.2748	1658.4956	1730.8085	3096.571	3268.9394	3276.2278	3595.568	3728.8605
NC=NC1=CN=CO1	NC=Nc1cnco1	
InChI=1S/C4H5N3O/c5-2-7-4-1-6-3-8-4/h1-3H,(H2,5,7)	InChI=1S/C4H5N3O/c5-2-7-4-1-6-3-8-4/h1-3H,(H2,5,7)
