23
gdb 63475	3.03607	1.03138	0.90119	0.7797	92.3	-0.2541	0.0557	0.3098	1413.3052	0.202089	-351.119716	-351.10886	-351.107916	-351.155083	40.976	
C	 0.0109018095	 1.4713354555	-0.2216543438	-0.448326
C	 0.0226363037	-0.031250492	 0.0165728327	 0.275845
C	-1.1782359451	-0.7054362748	-0.6310704112	-0.452244
C	 1.3520046587	-0.7590940685	-0.0024179715	-0.360893
C	 0.6221179976	-0.5795502213	 1.3110706296	 0.320217
C	 1.2017234408	 0.3692648842	 2.3480848483	-0.464182
C	-0.0060038765	-1.819314617	 1.9621569863	-0.433241
C	 0.9637076189	-2.6449531425	 2.6789506733	 0.323895
C	 1.7703633135	-3.3199459912	 3.2615032059	-0.456482
H	 0.907255741	 1.9687802783	 0.1521749916	 0.115001
H	-0.0534743348	 1.6798667783	-1.296048742	 0.113891
H	-0.8571916721	 1.9424937986	 0.2551658648	 0.112869
H	-1.2380696448	-0.4198480761	-1.687731336	 0.114123
H	-1.1294834817	-1.7959890694	-0.6002697437	 0.11567
H	-2.1174190923	-0.3958845868	-0.1564400274	 0.113349
H	 1.3842434716	-1.7532322462	-0.4384439832	 0.106759
H	 2.2570283024	-0.18073673	-0.1622712591	 0.103376
H	 1.7828633436	 1.176695017	 1.8999060678	 0.114066
H	 0.4115077147	 0.8231148433	 2.9588651108	 0.110272
H	 1.867714201	-0.1789671383	 3.0222051738	 0.132562
H	-0.7920792575	-1.5020755447	 2.6618597911	 0.125266
H	-0.5032948203	-2.4423732783	 1.2141190449	 0.125599
H	 2.4773128782	-3.921743558	 3.7764222471	 0.192606
54.3034	109.2435	164.4145	171.0902	174.6807	199.2818	276.7567	317.5229	340.6082	351.3864	374.8317	392.7716	425.8219	455.9574	543.9684	612.3867	633.7316	691.203	732.8833	872.8012	902.0857	915.6737	942.1913	961.7341	967.4949	972.3805	1031.8949	1040.142	1066.0476	1108.699	1152.3643	1167.3141	1221.8297	1268.4316	1306.3797	1329.1565	1393.587	1410.757	1415.3947	1428.8255	1461.4135	1481.8364	1489.6689	1491.357	1496.1006	1504.0954	1509.1746	1521.4165	2234.408	3011.6386	3022.5074	3025.9069	3030.4299	3076.1368	3080.0431	3083.2651	3090.4489	3116.0606	3119.1322	3120.346	3135.8197	3200.6514	3506.7165
CC1(C)CC1(C)CC#C	CC1(C)C[C@]1(C)CC#C	
InChI=1S/C9H14/c1-5-6-9(4)7-8(9,2)3/h1H,6-7H2,2-4H3	InChI=1S/C9H14/c1-5-6-9(4)7-8(9,2)3/h1H,6-7H2,2-4H3/t9-/m0/s1
