20
gdb 34858	3.53433	1.23121	1.13142	4.4616	82.42	-0.2901	0.0357	0.3258	1147.0866	0.174814	-366.034359	-366.026825	-366.025881	-366.06621	30.214	
N	-0.0450341563	-1.1210895897	-0.0723809745	-0.334307
C	-0.0183734874	 0.0343101976	-0.0211519263	 0.262887
C	 0.0191622836	 1.4854897876	 0.0476284849	-0.151334
C	-0.1127061742	 2.0618261871	 1.500864592	-0.006887
C	 1.4338724343	 1.9267239187	 1.6141143524	-0.246379
C	 1.4672406026	 2.0889501197	 0.0663575377	-0.006887
C	 1.3733461579	 3.568331844	-0.3412992004	-0.220264
C	 0.5603394854	 4.3774702743	 0.6983578191	-0.200019
C	-0.5372201937	 3.5355311515	 1.3933923524	-0.220264
H	-0.6665071224	 1.8976500575	-0.6997652949	 0.105927
H	-0.7360884666	 1.4995987389	 2.1977565101	 0.085575
H	 1.9756827138	 2.6525894466	 2.2245813958	 0.099817
H	 1.7242995652	 0.9179766154	 1.9149140586	 0.123964
H	 2.2312670705	 1.5505434371	-0.496443891	 0.085575
H	 2.3779368031	 3.9957119078	-0.4311837852	 0.102531
H	 0.9193918539	 3.6338667097	-1.3377594306	 0.102802
H	 1.2511334125	 4.739733473	 1.4660391851	 0.111106
H	 0.1289618286	 5.2720452496	 0.2401594685	 0.100824
H	-1.4865026597	 3.5925623103	 0.8466634894	 0.102802
H	-0.7312502611	 3.9423331732	 2.391790977	 0.102531
128.1316	145.6516	213.6628	292.5083	343.7605	404.593	477.2441	483.4805	553.9366	602.5254	766.8417	817.3254	839.5074	848.012	871.1215	892.3048	920.4042	941.0194	950.1858	1014.0411	1057.4295	1076.6963	1087.9451	1100.2819	1117.129	1124.9899	1168.752	1234.1903	1235.3749	1249.5889	1267.788	1285.8086	1314.0847	1323.9064	1350.2178	1354.3359	1377.8781	1386.8621	1486.7975	1491.828	1494.557	1516.9928	2348.6169	3027.5959	3027.8469	3047.1007	3055.6399	3066.9443	3068.0674	3069.7952	3092.9964	3097.4139	3099.0701	3123.8988
N#CC1C2CC1CCC2	N#C[C@H]1[C@H]2C[C@@H]1CCC2	
InChI=1S/C8H11N/c9-5-8-6-2-1-3-7(8)4-6/h6-8H,1-4H2	InChI=1S/C8H11N/c9-5-8-6-2-1-3-7(8)4-6/h6-8H,1-4H2/t6-,7+,8+
