21
gdb 65183	2.65933	1.14639	0.99866	3.3102	83.89	-0.2421	-0.0147	0.2274	1290.0223	0.181067	-387.079233	-387.069913	-387.068969	-387.113517	35.319	
C	 1.013070805	-0.1179552059	 0.7206992709	-0.45863
C	 0.2178160097	-1.286150313	 1.2785179934	 0.345775
C	 0.9160407274	-2.6270916432	 1.3526833876	-0.305796
C	 0.6452623022	-1.8470707178	 2.6150303958	-0.303416
C	-1.228118968	-1.2873334233	 0.8548429337	-0.074305
C	-2.3614440275	-1.7867045965	 1.6824702735	-0.323778
C	-2.266933676	-0.2920158359	 1.3938290665	-0.108165
C	-1.9321064083	 0.6202581603	 2.5079228565	 0.161757
O	-2.326371265	 1.758825194	 2.5960901784	-0.279711
H	 2.0709472	-0.1955015893	 0.9895548666	 0.114119
H	 0.9486684977	-0.0863062486	-0.3733162153	 0.116732
H	 0.6386437685	 0.8389609873	 1.1012045081	 0.130008
H	 0.3215788818	-3.5177078154	 1.1787423043	 0.11336
H	 1.936971586	-2.6923954219	 0.9917887315	 0.112635
H	 1.4808796721	-1.3648079434	 3.1112765675	 0.115136
H	-0.100700307	-2.2375936395	 3.2974782532	 0.112493
H	-1.3433478686	-1.4428972529	-0.2164342717	 0.101093
H	-3.1658778284	-2.332741653	 1.2032839267	 0.126835
H	-2.1646510593	-2.0926454339	 2.7046581487	 0.124794
H	-2.9585592448	 0.1337063532	 0.6749739109	 0.104711
H	-1.2795867474	 0.1779279687	 3.2936121233	 0.074353
60.2928	84.1384	166.5141	220.0713	227.5142	285.5909	316.3711	334.5176	364.4522	427.8118	493.6577	553.7531	671.2736	785.0506	818.3008	854.6175	868.6863	872.1133	929.9881	938.2324	953.3666	989.3798	1045.5941	1048.3827	1066.7089	1080.2776	1084.5936	1098.1168	1134.2892	1148.5827	1188.4713	1192.8286	1205.0395	1283.8495	1341.3724	1350.7832	1411.6102	1421.3685	1444.0191	1464.8291	1489.4708	1492.6646	1498.2294	1509.6296	1810.166	2881.5533	3025.4614	3086.7392	3103.3879	3119.0151	3129.6301	3136.1201	3138.3689	3176.7264	3209.3819	3221.3642	3224.8898
CC1(CC1)C1CC1C=O	CC1(CC1)[C@H]1C[C@H]1C=O	
InChI=1S/C8H12O/c1-8(2-3-8)7-4-6(7)5-9/h5-7H,2-4H2,1H3	InChI=1S/C8H12O/c1-8(2-3-8)7-4-6(7)5-9/h5-7H,2-4H2,1H3/t6-,7-/m0/s1
