17
gdb 39825	2.83502	1.69073	1.61129	2.4489	67.44	-0.2532	0.0652	0.3184	914.9985	0.137335	-458.905192	-458.898336	-458.897391	-458.936179	27.644	
C	 0.1783175112	 1.3090817676	 0.0074463417	-0.299163
O	 1.288560916	 0.3957376033	-0.0086447881	-0.285084
C	-0.0138178415	-0.1382545113	 0.0015281694	 0.457832
C	-0.6884355688	-1.0256587919	 1.0613482705	 0.011017
C	-1.8333665451	-1.1819826533	 0.0141237223	-0.244547
C	-0.7096598165	-1.0141874313	-1.0541038028	 0.011017
O	-0.0357999845	-2.2642257946	-1.1911469604	-0.282172
C	 0.6954525656	-2.579116757	-0.0188233294	 0.026017
O	-0.0120967518	-2.2770344552	 1.1712825105	-0.282171
H	 0.0509601155	 1.8692703699	 0.9325673232	 0.124539
H	 0.0324832518	 1.8792515594	-0.9088062288	 0.124539
H	-0.8854752861	-0.6566587667	 2.068260125	 0.088887
H	-2.3409435668	-2.1460868268	 0.0139879509	 0.11635
H	-2.5445044512	-0.3528462971	 0.0257549587	 0.105516
H	-0.9268208515	-0.6343138375	-2.0528000152	 0.088887
H	 0.8741923463	-3.6561824879	-0.0264563345	 0.119431
H	 1.6473671274	-2.0315418797	-0.0254049528	 0.119106
162.9341	236.726	262.7737	304.4494	382.2698	425.4559	490.3172	560.0396	631.9726	662.5191	825.7643	830.2348	866.0732	904.218	939.6083	940.2437	996.143	1006.9236	1007.0089	1083.884	1090.5775	1120.466	1147.8209	1150.3175	1168.5874	1176.9384	1194.2265	1246.1734	1250.7644	1270.9656	1339.773	1342.8893	1438.7864	1441.766	1469.6339	1531.8932	1539.3534	3015.3711	3075.3245	3084.9938	3111.5218	3111.9602	3115.2469	3154.5337	3173.5879
C1OC11C2CC1OCO2	C1O[C@]21[C@H]1C[C@@H]2OCO1	
InChI=1S/C6H8O3/c1-4-6(2-9-6)5(1)8-3-7-4/h4-5H,1-3H2	InChI=1S/C6H8O3/c1-4-6(2-9-6)5(1)8-3-7-4/h4-5H,1-3H2/t4-,5+,6-
