21
gdb 104022	2.95282	1.2947	1.19692	2.3757	77.29	-0.2379	0.0776	0.3156	1150.2244	0.182523	-424.21824	-424.209554	-424.20861	-424.251358	34.283	
C	-0.7326689645	 1.7462360562	-0.2055124534	-0.43357
C	-0.0836100793	 0.3710270738	-0.1249335003	 0.362397
C	-1.1220265572	-0.7280951104	 0.1673713874	-0.073697
O	-1.7145523673	-0.5526151945	 1.4358029317	-0.426884
C	 0.7879173829	-0.0011997876	-1.3503630027	-0.309824
C	 2.0219425573	-0.6663426503	-0.7481462233	-0.056496
C	 3.0359600585	 0.2413863682	-0.0752970154	-0.306453
C	 1.94778243	-0.4129572153	 0.7291542765	 0.091278
O	 0.8259510635	 0.3854067511	 1.0136675174	-0.311959
H	 0.0311799791	 2.5262191263	-0.2631516779	 0.115366
H	-1.3686536336	 1.8129503793	-1.0941867586	 0.114533
H	-1.355963106	 1.9225686231	 0.6740843262	 0.135144
H	-1.9260520001	-0.6973730787	-0.5766079872	 0.102878
H	-0.6296222706	-1.7119600866	 0.086184028	 0.079875
H	-0.9769355254	-0.3706902571	 2.0333924555	 0.286266
H	 0.2508812306	-0.6854671417	-2.0150798388	 0.107694
H	 1.0432068219	 0.8878321365	-1.9363487049	 0.104533
H	 2.3559097926	-1.6176994767	-1.1439690042	 0.093246
H	 4.0486422871	-0.1321782282	 0.0355675512	 0.112354
H	 2.9547498032	 1.3112412291	-0.2379329428	 0.117259
H	 2.1731389473	-1.1602264567	 1.4829713557	 0.096061
68.5919	147.7855	198.4018	229.0029	297.249	316.2762	332.2156	388.06	467.5119	497.1753	520.1863	643.5963	712.0876	752.3904	797.9179	814.2168	875.3082	898.1721	920.7726	943.8086	965.4787	990.662	1023.1522	1052.8171	1071.9425	1087.835	1100.6731	1136.126	1153.057	1173.4096	1201.2124	1217.9386	1243.4625	1278.0409	1319.064	1336.122	1375.4176	1383.0785	1408.8975	1437.8536	1470.9542	1479.6356	1495.6908	1500.5562	1504.9784	2962.8376	3040.8085	3044.8449	3064.2569	3082.9706	3114.2428	3125.9819	3133.1684	3158.5035	3181.2575	3218.434	3762.4525
CC1(CO)CC2CC2O1	C[C@@]1(CO)C[C@H]2C[C@H]2O1	
InChI=1S/C7H12O2/c1-7(4-8)3-5-2-6(5)9-7/h5-6,8H,2-4H2,1H3	InChI=1S/C7H12O2/c1-7(4-8)3-5-2-6(5)9-7/h5-6,8H,2-4H2,1H3/t5-,6-,7+/m1/s1
