22
gdb 121293	4.23472	0.80608	0.70676	2.4047	83.03	-0.2427	0.0294	0.2722	1640.146	0.195654	-404.371133	-404.361823	-404.360879	-404.405859	34.244	
C	-0.0294671076	 1.6232736128	-0.0743566803	-0.38024
C	 0.0221371516	 0.0944382674	-0.0015677515	-0.179068
C	-1.3726004128	-0.5412660618	 0.0753957432	-0.180236
C	-1.3920684565	-2.0758697502	 0.0669627571	-0.035389
C	-0.8007773086	-2.6807793346	 1.3390666962	-0.071531
O	-0.8783023947	-4.1143804161	 1.3315280189	-0.227436
C	-1.9915062939	-4.6423130859	 0.7671660319	 0.127434
N	-2.924405063	-4.0689865687	 0.1367483241	-0.274447
C	-2.8159777936	-2.6305390562	-0.0892293504	-0.166858
H	 0.9746250048	 2.0544467795	-0.1319208502	 0.114141
H	-0.5877479851	 1.957523872	-0.9558013708	 0.116399
H	-0.5230843837	 2.0455059161	 0.8080200018	 0.115511
H	 0.5479029629	-0.2973136865	-0.8822177186	 0.099551
H	 0.6214691347	-0.2037083366	 0.8676293301	 0.099604
H	-1.8908682838	-0.1787863876	 0.9750628694	 0.094603
H	-1.9694426452	-0.1857232466	-0.7755911714	 0.098618
H	-0.7921321387	-2.4350301413	-0.7807624181	 0.08593
H	 0.2589683946	-2.448622377	 1.462097336	 0.117766
H	-1.338978032	-2.307907785	 2.2222153636	 0.108129
H	-2.0029822976	-5.7200678488	 0.9212987373	 0.120985
H	-3.4992480429	-2.1153395903	 0.6016918221	 0.106934
H	-3.1929204488	-2.4190007947	-1.0967896303	 0.1096
70.806	82.0591	117.8635	162.3731	205.0218	249.9606	295.7408	338.862	427.7421	486.6614	508.1307	565.3171	741.6809	794.6929	856.8658	888.7966	902.6245	932.4168	960.7351	970.4946	989.9653	1022.1571	1046.5168	1082.0168	1123.3566	1152.502	1173.1881	1176.8536	1235.6717	1252.6148	1295.9263	1309.5528	1329.2079	1343.9338	1361.6332	1374.9912	1400.3127	1407.7388	1413.3711	1423.5904	1479.8643	1487.0807	1493.6111	1500.2427	1508.9001	1512.6996	1738.9425	2999.9992	3001.9381	3004.5134	3019.1678	3023.2309	3030.685	3032.572	3050.3149	3059.9719	3097.7033	3104.0144	3106.8461	3156.0578
CCCC1COC=NC1	CCC[C@H]1COC=NC1	
InChI=1S/C7H13NO/c1-2-3-7-4-8-6-9-5-7/h6-7H,2-5H2,1H3	InChI=1S/C7H13NO/c1-2-3-7-4-8-6-9-5-7/h6-7H,2-5H2,1H3/t7-/m1/s1
