16
gdb 38084	2.95346	1.79115	1.17796	1.0033	80.28	-0.1933	-0.0208	0.1725	1002.8572	0.126957	-400.71337	-400.706524	-400.70558	-400.744561	27.388	
N	 0.6561266589	 1.7283913564	 1.1159045398	-0.332147
C	 1.4639495718	 1.3662592969	-0.1188388163	-0.142935
C	 1.2458077825	 2.2576527961	-1.2908658879	-0.090889
C	 1.0035127017	 1.7906378499	-2.5247099864	-0.079361
C	 0.8879403528	 0.4064365806	-2.9626388275	-0.147766
C	 0.7304928814	-0.7461806222	-2.287049031	 0.024621
O	 0.6016525458	-0.9725437408	-0.9524399562	-0.226222
C	 0.7019703817	 0.0577638846	-0.0844954027	 0.295088
C	 0.0894073976	 0.4008218099	 1.0541319	-0.159492
H	 1.2523467839	 1.8883174971	 1.9275633207	 0.222881
H	 2.5302598071	 1.2558578416	 0.1196194668	 0.104857
H	 1.3043813223	 3.3267316397	-1.1123488078	 0.100666
H	 0.9052942872	 2.51835691	-3.3269065893	 0.091987
H	 0.919870278	 0.2609400652	-4.038756152	 0.096071
H	 0.6682959881	-1.6919631976	-2.811866525	 0.119652
H	-0.662300611	-0.0096906974	 1.7129075648	 0.12299
108.175	203.1697	339.6539	357.8591	385.4506	418.1972	509.5159	578.4945	654.5207	720.6372	772.291	795.3423	820.7694	849.8726	891.8169	900.8455	941.1511	957.4675	982.2182	989.86	1033.2486	1078.5844	1139.2194	1169.1482	1229.0486	1233.4442	1285.3687	1316.3991	1328.4021	1368.5096	1421.0036	1457.6346	1663.0676	1694.4306	1724.4799	3018.0906	3146.9394	3166.665	3183.3982	3212.3907	3234.7702	3446.0299
N1C2C=CC3C4OC23C14	N1[C@@H]2C=CC=COC2=C1	
InChI=1S/C7H7NO/c1-2-4-7-3(1)5(9-7)6(7)8-4/h1-6,8H	InChI=1S/C7H7NO/c1-2-4-9-7-5-8-6(7)3-1/h1-6,8H/t6-/m1/s1
