23
gdb 109260	2.79102	1.28186	1.01954	0.1889	91.46	-0.224	0.0321	0.256	1290.8616	0.207605	-351.169292	-351.160576	-351.159632	-351.202948	33.903	
C	 0.021235289	 1.2686103669	-0.274701322	-0.372231
C	-0.0378462459	-0.2107765438	 0.1467789696	-0.291194
C	 0.7159779123	-0.5028583821	 1.4132915575	 0.338892
C	 0.188994633	-0.8781127834	 2.5838430523	-0.175697
C	 1.2114836017	-1.0680192375	 3.6800245677	-0.274083
C	 2.5472677428	-0.9544380713	 2.9205037465	 0.001903
C	 3.0853407474	-2.2528164611	 2.2465994423	-0.21943
C	 3.0246475474	-1.5623155067	 0.8549590184	-0.223155
C	 2.2227162407	-0.3889106765	 1.4978718492	-0.114988
H	 1.0506553326	 1.5948346268	-0.4532263989	 0.119113
H	-0.5438528009	 1.4326903819	-1.1974969715	 0.111167
H	-0.4022663317	 1.9121741552	 0.5028298907	 0.118782
H	-1.0844219668	-0.5116258038	 0.2696977484	 0.099049
H	 0.367151209	-0.8241405698	-0.6703283071	 0.101544
H	-0.8743831775	-1.022814594	 2.7523391958	 0.078211
H	 1.104555067	-0.302734324	 4.4620214923	 0.097426
H	 1.1116754427	-2.0372281019	 4.1875319929	 0.09731
H	 3.3161298403	-0.413628408	 3.4753983399	 0.060388
H	 4.0717242534	-2.5922330304	 2.5719594077	 0.094442
H	 2.3884131321	-3.0904483666	 2.3412113719	 0.09923
H	 4.007952087	-1.246470208	 0.4953987688	 0.094938
H	 2.527788952	-2.1142956377	 0.052002513	 0.093586
H	 2.5812851525	 0.6139827258	 1.2419026247	 0.064797
62.7641	99.9048	165.9785	196.1063	246.8039	277.3558	364.3217	388.9476	559.8924	592.0439	692.8191	712.4002	763.3371	791.227	807.8986	838.8932	882.3406	892.5309	947.2269	953.3566	959.6392	982.555	1001.1678	1057.5532	1061.6991	1066.2796	1095.9316	1109.3719	1173.7682	1195.2396	1203.7752	1232.608	1251.8986	1263.314	1269.757	1277.6589	1297.5631	1313.9814	1333.8725	1355.9969	1371.4641	1407.4553	1477.6027	1481.2886	1486.5954	1496.6456	1497.7078	1507.324	1706.2236	2999.8211	3009.7491	3026.9778	3034.7747	3039.3684	3050.2404	3057.849	3058.2244	3084.5116	3094.4158	3106.3448	3109.1938	3114.1119	3170.4951
CCC1=CCC2CCC12	CCC1=CC[C@H]2CC[C@@H]12	
InChI=1S/C9H14/c1-2-7-3-4-8-5-6-9(7)8/h3,8-9H,2,4-6H2,1H3	InChI=1S/C9H14/c1-2-7-3-4-8-5-6-9(7)8/h3,8-9H,2,4-6H2,1H3/t8-,9-/m0/s1
