22
gdb 58641	2.59877	1.35983	1.03474	2.551	81.5	-0.2336	0.0654	0.299	1233.3547	0.193682	-404.308951	-404.299315	-404.298371	-404.343196	36.915	
C	-0.8463724662	 0.3341811248	-0.5635480572	-0.408882
C	 0.6437578929	 0.0748164203	-0.3291238626	 0.045861
O	 1.3691936804	 1.3038691417	-0.3117060576	-0.444391
C	 0.9253469696	-0.6413235622	 0.9929331632	 0.330042
C	 2.2303539624	-0.3949806139	 1.6584773039	-0.28028
N	 0.9820241884	 0.1688374233	 2.2187940582	-0.36291
C	 0.2604686497	-1.9849292359	 1.1293351252	-0.066838
C	 0.1427277885	-2.651681718	 2.4736925741	-0.28219
C	-1.0915695686	-2.1218162875	 1.7923460158	-0.258527
H	-1.2606918115	 0.9513816321	 0.2395716661	 0.126366
H	-0.9966121152	 0.8591957508	-1.5147260396	 0.100542
H	-1.4096095565	-0.6005320695	-0.6064630576	 0.134747
H	 1.0234369606	-0.5669781489	-1.1422175535	 0.071258
H	 1.0731697836	 1.8339343701	-1.0570989299	 0.286498
H	 2.6750121908	-1.1884383597	 2.252362908	 0.108756
H	 2.9267120129	 0.2898512663	 1.1882666095	 0.126636
H	 0.9371717799	 1.1495284248	 1.9486349625	 0.235743
H	 0.4456487431	-2.64608815	 0.2853406444	 0.076524
H	 0.2893629713	-3.7248026765	 2.5257733297	 0.102774
H	 0.5002839488	-2.092738203	 3.3307361693	 0.13482
H	-1.5279750013	-1.2216294077	 2.2101880656	 0.120141
H	-1.8051570736	-2.8246231414	 1.3758110526	 0.10331
66.8974	98.1677	178.9962	212.6113	234.9028	248.882	287.2808	298.0829	373.8641	382.581	460.4511	539.7963	573.1865	685.8108	793.7713	822.2829	830.1738	883.6695	892.5502	934.5372	951.4857	964.7269	1003.8965	1022.9854	1062.0511	1064.1887	1091.5141	1113.4622	1122.1968	1135.0288	1139.6232	1152.0102	1204.4617	1222.6177	1235.5057	1276.3482	1287.9697	1364.9011	1374.1431	1408.0771	1415.0691	1429.7539	1455.7155	1489.4089	1495.2454	1499.5696	1504.7172	2955.0691	3029.869	3098.1878	3120.8261	3125.2953	3132.6775	3133.3082	3138.8541	3217.5788	3218.1835	3232.3638	3493.0566	3835.979
CC(O)C1(CN1)C1CC1	C[C@@H](O)[C@]1(CN1)C1CC1	
InChI=1S/C7H13NO/c1-5(9)7(4-8-7)6-2-3-6/h5-6,8-9H,2-4H2,1H3	InChI=1S/C7H13NO/c1-5(9)7(4-8-7)6-2-3-6/h5-6,8-9H,2-4H2,1H3/t5-,7-/m1/s1
