19
gdb 126496	3.29714	1.34979	1.01934	2.8348	82.45	-0.2327	0.0346	0.2673	1191.9173	0.161493	-382.066208	-382.058138	-382.057194	-382.099389	30.278	
C	-0.0587596033	 1.5755485079	 0.1289853511	-0.390578
C	 0.3090539012	 0.090138292	 0.2091222032	-0.192343
C	 0.6353965739	-0.5027522776	-1.1519918207	 0.053267
C	 0.7413997969	-2.0820969359	-1.2784237331	-0.416893
C	-0.4436455593	-1.9688179449	-2.2288222558	 0.380955
C	-1.4284284191	-2.3166538063	-3.1355332747	-0.395704
C	-2.012223132	-1.0572121465	-3.4486112107	 0.015305
N	-1.4450476246	-0.017569087	-2.8098203556	-0.315249
N	-0.5087371082	-0.6391840688	-2.0813602367	 0.09039
H	 0.7741644188	 2.1683769411	-0.2644728359	 0.116674
H	-0.9180266676	 1.7263847611	-0.5311406297	 0.155583
H	-0.3119910659	 1.9692097515	 1.1175112432	 0.116423
H	 1.1817237206	-0.0528312939	 0.8590569285	 0.1047
H	-0.5160219655	-0.4800320295	 0.6529782634	 0.108505
H	 1.4749522622	 0.0242954848	-1.6191755768	 0.102631
H	 1.6745214952	-2.441121097	-1.7186444421	 0.127704
H	 0.5540841418	-2.6144734878	-0.3425109464	 0.125783
H	-1.7047443745	-3.2833139154	-3.5214119009	 0.103983
H	-2.8362576706	-0.8701987375	-4.1225647903	 0.108865
65.5658	104.2095	142.8934	217.5953	261.2777	352.1216	408.2378	516.2838	645.9811	671.4731	692.3761	753.2098	778.6741	814.3168	859.7434	870.9921	942.9114	963.5955	983.0755	1040.4607	1043.9289	1077.9651	1100.8301	1113.8606	1185.5812	1192.2084	1213.7466	1243.4416	1288.7102	1300.9359	1336.5189	1343.5196	1393.4296	1409.1218	1416.1842	1472.3109	1479.7255	1499.6229	1508.0982	1512.3708	1563.9107	3025.7279	3037.3708	3045.5259	3066.5825	3068.4173	3106.3275	3117.7912	3119.919	3239.3936	3279.0328
CCC1CC2=CC=NN12	CC[C@H]1Cc2ccnn12	
InChI=1S/C7H10N2/c1-2-6-5-7-3-4-8-9(6)7/h3-4,6H,2,5H2,1H3	InChI=1S/C7H10N2/c1-2-6-5-7-3-4-8-9(6)7/h3-4,6H,2,5H2,1H3/t6-/m0/s1
