17
gdb 72120	2.55119	2.23182	1.63995	2.6988	70.74	-0.2342	0.0041	0.2383	859.2483	0.13756	-421.79587	-421.789282	-421.788338	-421.826352	27.93	
O	-0.0776319229	 1.3572019288	 0.0241631646	-0.507737
C	 0.030808565	-0.0388830277	 0.040029039	 0.373445
C	 0.6614301106	-0.7332818468	-1.2319179993	-0.278626
C	-0.3612354339	-1.8718096954	-1.306492203	 0.05384
O	-1.5960904713	-1.1017627868	-1.4228680957	-0.293926
C	-1.3526182678	-0.7852131434	-0.0390261888	 0.055284
C	-0.7370547842	-2.1784190814	 0.2162155456	-0.086839
C	 0.2917858355	-1.9757835697	 1.2853581179	-0.098161
C	 0.6909394799	-0.6987617912	 1.2370603891	-0.163845
H	 0.793897752	 1.7330571472	-0.1351940617	 0.279904
H	 0.5639946847	-0.0999059624	-2.1169375147	 0.11419
H	 1.6991768848	-1.0392231115	-1.084792607	 0.094246
H	-0.2506623668	-2.6569727983	-2.0533506596	 0.083869
H	-2.1945752161	-0.3585739821	 0.5064235252	 0.090693
H	-1.4399598253	-3.0044306823	 0.3073019513	 0.082417
H	 0.6457887114	-2.7436699958	 1.9617899871	 0.103704
H	 1.4452878544	-0.2169504814	 1.8489288402	 0.097543
182.4018	269.5087	309.9684	383.8788	420.4415	526.6137	535.7777	604.0491	664.57	718.4647	741.6203	776.0593	800.8651	843.045	890.3789	917.4398	938.0389	955.1339	971.7326	995.3652	1011.9226	1039.5474	1052.658	1083.2509	1124.4913	1165.0347	1196.7582	1209.6869	1234.9438	1251.8173	1269.2286	1308.9185	1330.4518	1353.7897	1380.8894	1466.6406	1638.688	3067.5232	3127.4259	3128.6366	3130.9171	3141.0467	3188.7701	3216.0931	3817.5272
OC12CC3OC1C3C=C2	O[C@]12C[C@@H]3O[C@H]1[C@@H]3C=C2	
InChI=1S/C7H8O2/c8-7-2-1-4-5(3-7)9-6(4)7/h1-2,4-6,8H,3H2	InChI=1S/C7H8O2/c8-7-2-1-4-5(3-7)9-6(4)7/h1-2,4-6,8H,3H2/t4-,5+,6+,7-/m1/s1
