16
gdb 61196	3.65949	0.8485	0.77891	3.2526	70.03	-0.2729	-0.0122	0.2607	1420.881	0.123219	-434.076559	-434.066722	-434.065777	-434.111871	34.389	
N	-0.0327709535	 1.5200006799	 0.103492506	-0.502831
C	 0.0051404625	 0.0745227438	-0.0013672114	 0.011888
C	-1.420447022	-0.4964408342	 0.1511270336	-0.35772
C	-2.0298231289	-0.1614034602	 1.4345587022	 0.280707
N	-2.5207308923	 0.0750206827	 2.4528816895	-0.300724
C	 0.60888128	-0.465002563	-1.3357920341	-0.029328
O	-0.1360475397	-0.0534467733	-2.4667756552	-0.41299
C	 2.0194335682	-0.0500643278	-1.4416103605	 0.247985
N	 3.1082569447	 0.332096215	-1.5056964807	-0.306182
H	 0.8958703312	 1.9275629332	 0.0923664844	 0.255037
H	-0.5869140723	 1.9412023564	-0.6348656527	 0.229737
H	 0.6278077938	-0.3057358356	 0.8162513254	 0.126782
H	-2.0494872759	-0.1186844293	-0.6622316017	 0.163565
H	-1.4007767653	-1.5871253606	 0.0490922565	 0.154916
H	 0.571789706	-1.5603876225	-1.3367166467	 0.143132
H	 0.0528866036	 0.8773768357	-2.6328543947	 0.296024
58.632	78.3759	105.2022	177.0175	212.3932	235.2828	258.4603	326.3661	352.1995	389.5975	395.3454	466.1146	542.6073	605.3919	700.5326	811.9603	847.5294	886.9013	921.6007	983.662	999.0041	1084.4117	1136.708	1160.9528	1244.901	1276.8517	1294.0974	1331.2754	1364.8077	1410.781	1416.9649	1467.8644	1654.9597	2353.9304	2370.1272	3049.2807	3056.4181	3059.6703	3093.0066	3504.5609	3598.2466	3802.9035
NC(CC#N)C(O)C#N	N[C@@H](CC#N)[C@@H](O)C#N	
InChI=1S/C5H7N3O/c6-2-1-4(8)5(9)3-7/h4-5,9H,1,8H2	InChI=1S/C5H7N3O/c6-2-1-4(8)5(9)3-7/h4-5,9H,1,8H2/t4-,5-/m0/s1
