16
gdb 133702	2.6059	1.24506	1.15767	2.6781	57.67	-0.2728	0.0679	0.3407	1097.4151	0.118858	-569.384067	-569.375024	-569.37408	-569.417963	33.281	
C	-0.2133659026	 1.5488537973	 0.1604489094	-0.477291
C	-0.0111599035	 0.0514755412	 0.0418569406	 0.137407
C	 1.3532276372	-0.5002555907	-0.3301188337	-0.372059
C	 0.8140611494	-0.6828877084	 1.0668452231	 0.0709
O	 1.3139351908	 0.0836022182	 2.1197184023	-0.422457
C	-1.2078604094	-0.6800071193	-0.5053059662	 0.255287
F	-1.5250643817	-0.2491410754	-1.7387005506	-0.081487
F	-1.0010734407	-2.0076727564	-0.5915463633	-0.087342
F	-2.2939394113	-0.4983234591	 0.2646956645	-0.079001
H	 0.6420864261	 2.0025831221	 0.6611251679	 0.137727
H	-0.3326190778	 2.0024343377	-0.8275373964	 0.129588
H	-1.1069163853	 1.7704414445	 0.7509302412	 0.136586
H	 1.4078971881	-1.3670310117	-0.9780145193	 0.130816
H	 2.1384395214	 0.2351806587	-0.4675624111	 0.121025
H	 0.4833138364	-1.6830720295	 1.3403427644	 0.106788
H	 2.182681963	-0.2611280992	 2.3507523075	 0.293512
58.4441	156.8714	173.084	216.1523	251.3145	276.8188	288.1641	339.796	395.3709	453.9273	475.6111	567.2309	579.7894	614.9834	738.2111	825.4051	874.3963	933.6274	969.2456	1025.6468	1049.4554	1112.2018	1125.5276	1164.8966	1173.2992	1188.4074	1210.4792	1281.9902	1328.0118	1367.8472	1411.5892	1427.1455	1485.0333	1491.752	1510.5175	3052.3744	3117.0877	3124.2061	3140.0157	3151.3512	3233.5883	3811.778
CC1(CC1O)C(F)(F)F	C[C@]1(C[C@H]1O)C(F)(F)F	
InChI=1S/C5H7F3O/c1-4(2-3(4)9)5(6,7)8/h3,9H,2H2,1H3	InChI=1S/C5H7F3O/c1-4(2-3(4)9)5(6,7)8/h3,9H,2H2,1H3/t3-,4-/m1/s1
