12
gdb 130335	3.51316	1.1463	0.87369	2.819	59.16	-0.2592	-0.0513	0.2079	1195.0453	0.07667	-505.910683	-505.902879	-505.901935	-505.943794	27.468	
N	 0.095416672	 1.3319810923	 0.2230553733	-0.592584
C	 0.0535166363	-0.0242392585	 0.0306350573	 0.298411
N	-1.0200065125	-0.7680615871	 0.084968809	-0.159247
O	-0.577518706	-2.0718353597	-0.0842676107	-0.165611
N	 0.7730234102	-2.1227012216	-0.268267652	-0.156037
C	 1.1722210747	-0.8891608094	-0.1898859405	 0.383441
O	 2.4467851457	-0.4570383858	-0.3338546883	-0.236597
C	 3.4755138912	-1.2913621504	 0.0712625949	 0.166223
O	 4.6061137071	-0.9914746551	-0.1195814874	-0.234079
H	 0.8644986799	 1.8043282676	-0.2281387272	 0.275603
H	-0.7900400375	 1.8053236592	 0.118639968	 0.276248
H	 3.0996106188	-2.1982941915	 0.5663371736	 0.144229
68.3314	115.7745	159.3501	257.7375	295.0809	317.969	437.4327	481.5217	532.635	574.4813	602.311	718.4683	768.2437	880.2932	900.3189	943.5847	1034.2541	1044.7305	1080.5335	1147.5932	1315.1134	1403.9199	1479.9974	1588.7681	1625.7782	1675.0396	1892.1617	3053.57	3576.6497	3682.6481
NC1=NON=C1OC=O	Nc1nonc1OC=O	
InChI=1S/C3H3N3O3/c4-2-3(8-1-7)6-9-5-2/h1H,(H2,4,5)	InChI=1S/C3H3N3O3/c4-2-3(8-1-7)6-9-5-2/h1H,(H2,4,5)
