15
gdb 28143	5.20714	1.25668	1.01236	1.4021	74.84	-0.1559	0.0513	0.2073	1092.9118	0.115111	-416.850293	-416.842655	-416.841711	-416.881933	29.689	
O	 0.076821597	 1.3284137241	 0.1975595008	-0.437015
C	 0.0670600186	-0.0143240146	-0.0042290047	 0.408327
C	 0.0795682751	-0.7759446575	-1.1550065376	-0.491892
C	 0.0580703214	-2.1249888921	-0.6823416058	 0.350402
C	 0.0338251038	-2.1301587169	 0.7088104733	 0.32061
N	 0.0396924997	-0.8050141474	 1.1192206066	-0.453548
C	 0.0124912252	-3.4709190992	 1.1708301762	-0.317793
C	 0.0246189092	-4.2502317737	 0.0302064441	-0.076008
N	 0.0519245741	-3.4357991813	-1.0913402265	-0.403655
H	 0.096234343	 1.7631101725	-0.6599652842	 0.306265
H	 0.1007738568	-0.4016161974	-2.1663505669	 0.084026
H	 0.0270571366	-0.4455215281	 2.0565099832	 0.26118
H	-0.0088894377	-3.8386207192	 2.1846043745	 0.08659
H	 0.0157673385	-5.3229307048	-0.0742439536	 0.108818
H	 0.0663722988	-3.7652296643	-2.0390546895	 0.253692
148.7527	177.7914	229.834	305.5075	323.7791	327.6413	391.0926	522.7733	564.8858	598.5713	643.2613	656.1379	673.2809	734.2608	755.9492	774.2667	821.7203	933.979	1014.7868	1073.6796	1097.9729	1156.0253	1181.5451	1192.2404	1256.0337	1335.4674	1376.4399	1468.6901	1485.9302	1527.1675	1548.9983	1597.6427	1618.5175	3246.6813	3248.615	3271.8414	3696.1395	3697.8383	3851.9311
OC1=CC2=C(N1)C=CN2	Oc1cc2c([nH]1)cc[nH]2	
InChI=1S/C6H6N2O/c9-6-3-5-4(8-6)1-2-7-5/h1-3,7-9H	InChI=1S/C6H6N2O/c9-6-3-5-4(8-6)1-2-7-5/h1-3,7-9H
