15
gdb 45531	2.96359	1.69071	1.33053	5.7931	65.9	-0.2358	0.0046	0.2405	944.9943	0.115868	-453.976924	-453.969996	-453.969052	-454.008645	26.191	
O	-0.0722589685	 0.1885341518	 0.5298063742	-0.312541
C	 0.0160714927	 1.3011186777	 0.1306995014	 0.4551
O	-0.9831332127	 2.0870419972	-0.3951985339	-0.257797
C	-0.0708775683	 3.2107176931	-0.6194029967	 0.119651
C	-0.4499641079	 4.4507303055	 0.1648057387	-0.194865
N	-0.0967136274	 4.2975922453	 1.5729223958	-0.292455
C	 1.079468864	 3.6707586295	 1.9071257543	 0.083261
N	 1.718536919	 2.807523251	 1.2136724628	-0.244306
C	 1.1064241652	 2.3915723132	-0.0254285383	-0.197748
H	-0.0119523369	 3.4274378269	-1.6884669405	 0.101334
H	 0.0796424153	 5.3043315931	-0.286950566	 0.115911
H	-1.5244690548	 4.6367319545	 0.0766769079	 0.135764
H	-0.3789256577	 5.0529780873	 2.1776670087	 0.251747
H	 1.4696926025	 3.9399383181	 2.8891668041	 0.120425
H	 1.8759674053	 2.108112866	-0.7476025724	 0.116518
84.1643	145.9736	222.9844	325.4492	440.9993	451.7121	568.3594	582.8616	592.0917	719.776	758.1946	811.985	872.1474	908.5284	943.9162	977.7823	1007.9467	1023.9382	1038.8495	1110.1233	1133.3871	1204.9753	1213.7178	1255.7129	1303.5192	1322.7497	1365.7011	1383.3805	1421.2221	1487.8554	1524.7258	1719.3834	1946.8358	2982.6867	3079.2947	3081.1911	3092.4238	3129.7188	3623.8664
O=C1OC2CNC=NC12	O=C1O[C@H]2CNC=N[C@@H]12	
InChI=1S/C5H6N2O2/c8-5-4-3(9-5)1-6-2-7-4/h2-4H,1H2,(H,6,7)	InChI=1S/C5H6N2O2/c8-5-4-3(9-5)1-6-2-7-4/h2-4H,1H2,(H,6,7)/t3-,4+/m0/s1
