17
gdb 32105	3.39663	1.21654	0.96106	2.1506	77.75	-0.2493	-0.0277	0.2216	1234.112	0.138105	-414.271229	-414.262582	-414.261638	-414.305592	31.053	
C	 0.1016022893	 1.5292347258	-0.1042733228	-0.377561
C	-0.0862890535	 0.0148469089	 0.0921565561	-0.25333
C	 0.6672118148	-0.4831499659	 1.295501196	 0.347258
N	 2.0064704787	-0.5490004692	 1.1931717548	-0.298363
C	 2.6171993985	-0.9786264228	 2.2958561653	 0.067672
N	 2.0453932795	-1.3313955736	 3.4402443658	-0.310238
C	 0.7039296741	-1.2188721994	 3.4274850599	 0.446786
N	 0.0436135126	-1.5390112006	 4.5601638834	-0.553496
N	-0.0332229035	-0.8029552961	 2.3807777082	-0.337655
H	 1.1621365173	 1.7715741587	-0.211963846	 0.138243
H	-0.4241539813	 1.867560297	-1.0016600317	 0.116126
H	-0.2929087344	 2.086698294	 0.7510743422	 0.122685
H	-1.1441477711	-0.2274525014	 0.2176056332	 0.112645
H	 0.2921301844	-0.5120744364	-0.7900241014	 0.119631
H	 3.7029787566	-1.0524757927	 2.2562754872	 0.119449
H	 0.5551549071	-1.9389325652	 5.3264397484	 0.27046
H	-0.9606064591	-1.5535100212	 4.5519327315	 0.269686
26.1628	128.3793	153.1258	186.6189	217.4702	285.6068	322.4668	452.8513	468.9107	572.1246	574.8331	604.6464	743.6923	797.9654	806.4377	861.3073	950.9962	998.8813	1002.2616	1023.2562	1048.1288	1081.0948	1118.4665	1237.5368	1276.6161	1310.0661	1342.7432	1369.8367	1399.7196	1454.2229	1477.9875	1495.6796	1497.567	1512.013	1579.0655	1612.7177	1646.1258	3041.2164	3053.2334	3104.006	3114.4717	3129.0405	3147.8192	3627.1772	3766.3774
CCC1=NC=NC(N)=N1	CCc1ncnc(N)n1	
InChI=1S/C5H8N4/c1-2-4-7-3-8-5(6)9-4/h3H,2H2,1H3,(H2,6,7,8,9)	InChI=1S/C5H8N4/c1-2-4-7-3-8-5(6)9-4/h3H,2H2,1H3,(H2,6,7,8,9)
