21
gdb 122923	5.01353	0.50565	0.47339	0.3621	82.16	-0.2636	0.0328	0.2963	2254.4281	0.179144	-424.182856	-424.17163	-424.170686	-424.220211	39.528	
O	-0.0552772102	 1.4778211998	 0.0136821459	-0.421889
C	 0.0389740717	 0.0609970406	 0.0224710969	-0.073373
C	-1.3745855893	-0.5048622803	-0.0097554841	-0.173325
C	-1.4031422407	-2.0355876448	 0.000033453	-0.186992
C	-2.8249490204	-2.6027097157	-0.0310933865	-0.193292
C	-2.8515890892	-4.1424712278	 0.027202024	-0.064465
O	-2.1960820522	-4.6472973626	 1.1900958061	-0.415724
C	-4.2211671332	-4.6544116181	-0.0798318822	 0.295015
C	-5.356106925	-5.0488719869	-0.1242741466	-0.438764
H	 0.8357042938	 1.8385063802	 0.0353242592	 0.284748
H	 0.6062837969	-0.3061940081	-0.8488666729	 0.083127
H	 0.5619499137	-0.2987481993	 0.9239348035	 0.084312
H	-1.9244862217	-0.1103933886	 0.8538131117	 0.103898
H	-1.8820866567	-0.1196724156	-0.9028776763	 0.10391
H	-0.8437185315	-2.4202236205	-0.8644399816	 0.093058
H	-0.8906537909	-2.4185838364	 0.8896217424	 0.112176
H	-3.4084148467	-2.2136341545	 0.8140281053	 0.09764
H	-3.3465360218	-2.2811370811	-0.9406522892	 0.10923
H	-2.260044778	-4.5331687399	-0.810846226	 0.116887
H	-2.7839168117	-4.496845827	 1.9390105333	 0.284767
H	-6.352531057	-5.4127169036	-0.1781126261	 0.199055
55.0301	64.3061	79.2277	135.185	145.6815	166.3879	216.1849	258.0054	267.1844	300.967	342.7225	405.6952	505.4036	557.1298	572.3502	631.1055	671.6038	746.5118	797.4694	870.4344	934.1182	990.8453	1011.5827	1042.7997	1062.4214	1082.2567	1097.0102	1128.3491	1200.2686	1220.9952	1260.4954	1273.3494	1296.2411	1316.0339	1325.8368	1337.8512	1368.699	1398.0101	1419.6168	1464.9212	1478.3034	1491.6001	1507.3461	1529.3399	2231.8778	2957.5939	2982.6558	3009.9649	3019.461	3028.8786	3033.4911	3055.7916	3066.1433	3085.4189	3502.8728	3803.0704	3830.9598
OCCCCC(O)C#C	OCCCC[C@@H](O)C#C	
InChI=1S/C7H12O2/c1-2-7(9)5-3-4-6-8/h1,7-9H,3-6H2	InChI=1S/C7H12O2/c1-2-7(9)5-3-4-6-8/h1,7-9H,3-6H2/t7-/m0/s1
