25
gdb 118845	2.40958	0.88595	0.72986	1.5969	90.35	-0.2534	0.0899	0.3433	1730.0142	0.226105	-389.494156	-389.482784	-389.48184	-389.531508	41.036	
C	-0.1281325353	 1.5331536631	 0.4083555548	-0.383011
C	-0.2356742459	 0.0077746933	 0.4787421484	-0.159256
C	-1.2358979668	-0.5612123533	-0.5399006123	-0.254845
C	-1.4093549336	-2.0679441447	-0.4327936008	 0.390883
C	-0.2264723811	-2.8968712194	-0.8973679262	-0.462142
O	-1.9976368548	-2.5299619653	 0.8006850633	-0.306405
C	-2.7386188452	-2.7142151755	-0.4143632383	 0.021957
C	-4.0840161996	-2.0357939769	-0.5162706464	-0.220704
C	-5.137226884	-2.7457534846	 0.3448143263	-0.373662
H	 0.5840507843	 1.9165187055	 1.1457162605	 0.112142
H	 0.2074905321	 1.8639154245	-0.5812202852	 0.111414
H	-1.0962261206	 2.0083281346	 0.6030780294	 0.11399
H	 0.7558846234	-0.4322433334	 0.3188881159	 0.095939
H	-0.5525899037	-0.2998506334	 1.4817856614	 0.115645
H	-2.1984962004	-0.0623552505	-0.3955593821	 0.098958
H	-0.9076590593	-0.3166057507	-1.5592211446	 0.093011
H	 0.6769675629	-2.6473197815	-0.3322751306	 0.127136
H	-0.4257658507	-3.9620840898	-0.7575130132	 0.124593
H	-0.0189234333	-2.7167517688	-1.9579619999	 0.1167
H	-2.7604521121	-3.7574552215	-0.74602834	 0.073861
H	-4.0058889958	-0.9901024634	-0.2069957224	 0.105267
H	-4.3975495546	-2.037653114	-1.5686097476	 0.098265
H	-6.1093678742	-2.2502087026	 0.2670515923	 0.111625
H	-5.2663943608	-3.7883700784	 0.0344514588	 0.114318
H	-4.835199431	-2.7446787835	 1.3963101187	 0.134322
41.7355	64.7023	84.6909	135.5953	160.1623	191.7994	221.1657	244.4546	273.2389	303.9047	321.265	379.5008	460.1214	495.965	568.2164	716.7625	741.3617	767.7888	825.061	868.4679	895.4095	924.8209	941.07	991.7568	1023.7622	1047.4903	1048.3254	1085.2757	1118.39	1136.9285	1156.912	1165.2161	1242.5016	1283.6945	1291.672	1306.9153	1332.6766	1345.4351	1364.0208	1393.6744	1408.5724	1410.7118	1413.5674	1467.4565	1474.9875	1479.5683	1492.1398	1494.719	1498.7182	1499.5169	1504.3148	1510.4121	1512.4548	3020.2464	3026.8934	3027.391	3033.229	3036.2295	3037.8565	3051.1058	3063.6001	3080.8785	3090.3893	3098.8397	3100.9592	3102.533	3109.5824	3116.9632	3122.681
CCCC1(C)OC1CC	CCC[C@@]1(C)O[C@H]1CC	
InChI=1S/C8H16O/c1-4-6-8(3)7(5-2)9-8/h7H,4-6H2,1-3H3	InChI=1S/C8H16O/c1-4-6-8(3)7(5-2)9-8/h7H,4-6H2,1-3H3/t7-,8+/m0/s1
