21
gdb 109535	2.01406	1.28383	1.10221	1.7606	75.67	-0.234	0.0661	0.3001	1252.4959	0.177938	-461.33288	-461.321763	-461.320819	-461.368324	40.906	
C	 1.3379853445	 1.2535281525	-0.5745449549	-0.452037
C	 0.8084348921	-0.1237745382	-0.2341795099	 0.354068
O	-0.1376884586	-0.5855360118	-1.1602382274	-0.453235
C	 1.7046141032	-1.180037509	 0.4086999255	-0.195179
C	 3.16997314	-0.9586018091	 0.6973972474	-0.092979
O	 3.9626107986	-0.8857488866	-0.4865008793	-0.416437
C	 0.5422784984	-0.5520134913	 1.186257436	 0.329881
C	 0.7653608167	 0.375039679	 2.363138519	-0.456746
O	-0.6001651784	-1.3491642121	 1.3410344201	-0.450545
H	 2.0408056969	 1.639274712	 0.1658972698	 0.117474
H	 1.8714977067	 1.2203860101	-1.5312463102	 0.118853
H	 0.507850693	 1.960705415	-0.6663886496	 0.125256
H	 0.3113308272	-0.6715204731	-2.0086826408	 0.27725
H	 1.4530517436	-2.1830471959	 0.067468331	 0.083759
H	 3.3374164601	-0.0074283342	 1.2094239779	 0.104869
H	 3.5443011817	-1.7480613751	 1.3684973038	 0.08816
H	 3.8564850158	-1.718896001	-0.9567648727	 0.278873
H	 1.6305062863	 1.0285668493	 2.2409410684	 0.120293
H	-0.119944242	 1.000720108	 2.5131608248	 0.132585
H	 0.9219135236	-0.2087534151	 3.279010938	 0.107977
H	-0.4460255393	-1.9333942934	 2.091895283	 0.27786
73.1986	120.7517	164.2361	184.6535	205.952	218.239	247.9325	250.6437	278.4105	292.9663	327.8893	349.1722	415.6762	437.5255	452.3043	512.5634	609.2167	692.9893	726.0076	836.558	950.6337	974.54	1002.42	1005.0097	1042.1717	1070.1358	1080.9097	1116.5339	1163.969	1166.6598	1223.0975	1275.5607	1278.3076	1331.0287	1338.7847	1374.7764	1407.5778	1413.8033	1427.2435	1461.2573	1478.6527	1486.9514	1495.307	1505.5832	1528.9241	2975.2485	3027.5084	3037.0122	3087.4229	3091.8091	3099.1531	3125.5643	3126.5895	3140.177	3791.1885	3792.2946	3814.9346
CC1(O)C(CO)C1(C)O	C[C@@]1(O)[C@@H](CO)[C@]1(C)O	
InChI=1S/C6H12O3/c1-5(8)4(3-7)6(5,2)9/h4,7-9H,3H2,1-2H3	InChI=1S/C6H12O3/c1-5(8)4(3-7)6(5,2)9/h4,7-9H,3H2,1-2H3/t4-,5-,6+
