21
gdb 89427	2.54734	1.57024	1.24461	0.8619	84.55	-0.2181	0.0188	0.2369	1120.1306	0.182099	-387.088684	-387.07995	-387.079005	-387.121627	34.486	
C	-0.2034091471	 1.5210358803	-0.0084344944	-0.387394
C	 0.0232237341	 0.0007289879	-0.0100764877	 0.080461
O	 0.5938658418	-0.4111007827	-1.2553387093	-0.327249
C	 1.9528711209	-0.7467664275	-1.3628914034	 0.430596
C	 2.1496856327	-1.5300381544	-2.6377815059	-0.438982
C	 3.0468969893	 0.1748444657	-0.8954624054	-0.35003
C	 2.7256388361	-1.1179794707	-0.1247785973	-0.141877
C	 1.9928268056	-0.9998756601	 1.1530770614	-0.073679
C	 0.7678279031	-0.4794548223	 1.2037816462	-0.092108
H	 0.7441274926	 2.0660110977	 0.011556171	 0.120308
H	-0.7535070713	 1.8105616364	-0.9083039477	 0.122475
H	-0.7875910962	 1.8204983226	 0.8683666567	 0.11061
H	-0.9707184438	-0.4714618164	-0.0005833513	 0.091394
H	 1.8366693867	-0.9344612654	-3.5014734146	 0.124195
H	 3.2003560756	-1.8023182178	-2.7690351069	 0.111617
H	 1.5498388792	-2.4451709433	-2.6203199662	 0.122984
H	 3.9630872422	 0.2130152557	-1.4763564051	 0.109573
H	 2.7836745609	 1.101606922	-0.4000938841	 0.118541
H	 3.447360588	-1.9259408476	-0.1970075816	 0.085319
H	 2.4846313614	-1.343258679	 2.0589218719	 0.091346
H	 0.2404218481	-0.3792379311	 2.1480994139	 0.0919
82.447	141.5621	219.2095	221.6563	278.0565	290.2703	376.2911	386.9218	414.9829	506.3583	558.0441	589.8713	669.5197	734.9092	788.483	810.6394	851.2788	860.816	910.5082	928.1214	985.8099	987.8352	1019.5355	1039.5422	1069.8408	1082.1549	1096.2724	1105.5256	1121.137	1159.2038	1217.325	1259.0994	1280.6185	1344.1116	1384.2977	1392.4964	1403.937	1413.583	1435.6648	1475.1902	1478.4419	1486.801	1492.7419	1505.0179	1718.9534	2986.036	3037.2077	3037.8944	3105.3534	3109.6883	3118.7255	3123.2827	3130.1187	3146.3436	3157.7011	3178.6704	3226.1606
CC1OC2(C)CC2C=C1	C[C@H]1O[C@@]2(C)C[C@H]2C=C1	
InChI=1S/C8H12O/c1-6-3-4-7-5-8(7,2)9-6/h3-4,6-7H,5H2,1-2H3	InChI=1S/C8H12O/c1-6-3-4-7-5-8(7,2)9-6/h3-4,6-7H,5H2,1-2H3/t6-,7-,8+/m1/s1
