20
gdb 64444	2.21525	1.74523	1.27046	1.693	75.64	-0.264	0.0144	0.2784	1076.1778	0.171331	-440.304248	-440.295394	-440.29445	-440.337417	33.836	
C	 0.0280883789	 1.5472894695	-0.060498425	-0.420088
C	 0.0273629668	 0.0165395277	 0.007607085	 0.172533
C	-1.4207166676	-0.522429531	 0.0619654573	-0.412676
C	 0.7395159833	-0.5604326622	-1.231000571	-0.121259
O	 0.9168067471	-1.9659863539	-1.1039326823	-0.224212
C	 1.7376070123	-2.2431593875	-0.0226580686	 0.006028
O	 1.2115119276	-1.7708840565	 1.2190661436	-0.261368
C	 0.7483119961	-0.4779816976	 1.2595306344	 0.364806
N	 0.8153287327	 0.2116629068	 2.3166978323	-0.506887
H	 1.0469485672	 1.9452943388	-0.0813544402	 0.117145
H	-0.4942323197	 1.8838567045	-0.9630060791	 0.105444
H	-0.4716011318	 1.9700469837	 0.8121606273	 0.146035
H	-1.9809828683	-0.1740707522	-0.8125158571	 0.112196
H	-1.4336759182	-1.6146051767	 0.0640871145	 0.133422
H	-1.9277462617	-0.1637623268	 0.9613316593	 0.132267
H	 0.140863686	-0.3980365246	-2.1310412697	 0.116296
H	 1.7187799481	-0.0744424783	-1.3729104736	 0.09604
H	 1.8168817492	-3.3267557291	 0.0759505616	 0.128524
H	 2.7361195951	-1.7947607053	-0.1645929539	 0.095294
H	 1.2924813369	-0.3175338894	 3.0496759252	 0.220461
79.6858	159.6053	197.9367	238.1343	244.6403	295.5193	318.7365	348.0266	412.248	458.2876	469.6282	558.1548	644.2718	714.8564	766.0203	864.2594	919.8006	932.3274	957.6671	962.2104	993.9677	1021.1973	1046.294	1056.4554	1129.4975	1196.7255	1201.3599	1229.9287	1253.2278	1277.593	1328.2024	1336.3366	1388.0673	1401.4802	1426.4941	1453.8785	1478.8528	1487.4196	1495.9231	1499.4337	1511.5719	1520.201	1748.5095	2955.6677	2975.3194	3036.0872	3040.6438	3095.1872	3104.2329	3111.7216	3123.7664	3133.3837	3142.0316	3462.7567
CC1(C)COCOC1=N	CC1(C)COCO[C]1[NH]	
InChI=1S/C6H11NO2/c1-6(2)3-8-4-9-5(6)7/h7H,3-4H2,1-2H3	InChI=1S/C6H11NO2/c1-6(2)3-8-4-9-5(6)7/h7H,3-4H2,1-2H3
