14
gdb 7941	3.92057	1.80642	1.2562	2.4525	59.66	-0.2556	-0.0083	0.2472	903.7057	0.108474	-415.948845	-415.941417	-415.940473	-415.980929	26.202	
C	-0.0521619133	 1.4115882619	-0.0736270932	-0.340918
N	-0.0122876847	-0.0306031701	-0.0406022211	-0.114787
C	-1.1801976984	-0.8823033004	-0.0174348468	-0.310438
C	-0.5856588029	-2.2964681838	 0.0134740176	 0.433279
O	-1.1808324912	-3.3431050593	 0.0394471875	-0.349495
N	 0.7774642132	-2.1040037372	 0.0049385591	-0.401232
C	 1.1571646136	-0.7460909649	-0.0275538216	 0.485399
O	 2.290743043	-0.3290825835	-0.0405450225	-0.402733
H	 0.9779675736	 1.7705737694	-0.0849920825	 0.172098
H	-0.5685828107	 1.7747091949	-0.9705810757	 0.128999
H	-0.5632035979	 1.8156110775	 0.8088027044	 0.128996
H	-1.8086813783	-0.7214678409	 0.8680223225	 0.145927
H	-1.8139261008	-0.7625403703	-0.9056699375	 0.145928
H	 1.4581591548	-2.8466159235	 0.0200349998	 0.278978
89.1159	132.5017	169.6865	199.5424	285.0901	384.8024	547.889	555.6816	590.6216	604.6369	694.2068	759.7796	821.3771	889.2872	1015.0113	1047.505	1129.6042	1154.5976	1200.2736	1255.0762	1313.8624	1328.8279	1348.0909	1435.2474	1453.9348	1491.7434	1494.6338	1533.9946	1843.4723	1877.7393	3015.941	3021.9527	3052.904	3066.8368	3148.657	3660.3095
CN1CC(=O)NC1=O	CN1CC(=O)NC1=O	
InChI=1S/C4H6N2O2/c1-6-2-3(7)5-4(6)8/h2H2,1H3,(H,5,7,8)	InChI=1S/C4H6N2O2/c1-6-2-3(7)5-4(6)8/h2H2,1H3,(H,5,7,8)
