17
gdb 42059	2.72605	1.60946	1.08387	1.1488	85.89	-0.2197	-0.048	0.1717	1089.9221	0.137336	-384.642332	-384.634508	-384.633564	-384.674504	30.036	
C	 0.3270850512	 1.3469643557	-0.2337213119	-0.138351
O	 1.7520946743	 1.2867261436	-0.0875508908	-0.254205
C	 2.2923837678	 1.7812819286	 1.1379633459	-0.176836
C	 1.3990564551	 1.5075481923	 2.2604442332	-0.07126
C	 0.3212688921	 1.2924754827	 2.7674238339	 0.182266
C	-1.0044617156	 0.9111412105	 3.0462577129	-0.237891
C	-1.7033229253	 0.1791165659	 2.1462195589	-0.075583
C	-1.2016298069	-0.419291323	 0.9102292055	-0.075723
C	-0.3200141262	-0.0011193007	-0.0151502273	-0.050986
H	-0.1134630637	 2.1217583342	 0.3970436425	 0.120441
H	 0.1602958004	 1.6364098214	-1.2789440024	 0.108448
H	 3.275689697	 1.3125419688	 1.2516053076	 0.135519
H	 2.4575827822	 2.8686853814	 1.0617507572	 0.12263
H	-1.4722825982	 1.2102468192	 3.9788823958	 0.115586
H	-2.7164474659	-0.1059120588	 2.4224302614	 0.102682
H	-1.6191295778	-1.4123698518	 0.7379321491	 0.095867
H	-0.0642314003	-0.7217575299	-0.7905002614	 0.097394
107.2531	167.907	207.5654	256.9936	302.4836	339.9955	399.8729	453.7996	542.0159	598.1723	620.2652	706.7153	774.0925	792.1028	847.7006	894.4665	911.893	972.2591	986.1316	1007.6505	1016.1168	1068.999	1103.5244	1170.0938	1238.3392	1241.8386	1289.9383	1313.1125	1368.6635	1387.4264	1420.4155	1455.2227	1486.989	1490.665	1614.4586	1688.1791	2302.2923	2969.2137	3027.7892	3061.079	3100.3841	3108.3606	3143.4144	3149.7883	3178.0796
C1OCC#CC=CC=C1	C1OC[C]=C=C[CH]C=C1	
InChI=1S/C8H8O/c1-2-4-6-8-9-7-5-3-1/h1-3,5H,7-8H2/b2-1-,5-3-	InChI=1S/C8H8O/c1-2-4-6-8-9-7-5-3-1/h1-3,5H,7-8H2/b2-1?,5-3-
