14
gdb 11167	3.97153	1.61513	1.41317	3.3138	64.61	-0.2366	0.0221	0.2587	891.3132	0.108362	-378.702343	-378.695205	-378.69426	-378.733917	26.648	
N	-0.2890742311	 1.0759330818	 0.4775699931	-0.588546
C	-0.0933919004	-0.105228455	 0.0765930243	 0.464868
N	-0.9709921873	-0.8372423814	-0.7150118239	-0.318627
C	-0.6423116271	-2.2575697362	-0.6296101912	-0.18225
C	 0.8762941439	-2.1299437745	-0.3460620504	-0.091189
O	 1.0117088745	-0.875382631	 0.3233591968	-0.240214
C	-1.3762576971	-2.9783546744	 0.413820376	 0.342908
C	-1.9953655401	-3.5603172868	 1.263711619	-0.469373
H	 0.5172475902	 1.4126644383	 0.9985142042	 0.225938
H	-1.9386578099	-0.5585312076	-0.6515118216	 0.264515
H	-0.8076422681	-2.7498204423	-1.5938686302	 0.122745
H	 1.2587222472	-2.9205447461	 0.2997094857	 0.136963
H	 1.4396895082	-2.1075162544	-1.2855853603	 0.122322
H	-2.5398496931	-4.0727006305	 2.0185044385	 0.209939
84.854	140.3767	208.5969	260.0589	433.669	463.9134	527.4849	587.7868	645.0736	664.4168	716.3356	731.6688	795.4414	809.5984	835.2918	920.842	994.4587	1013.7126	1076.2321	1110.4539	1128.1822	1232.2248	1243.3762	1313.518	1367.1475	1402.6737	1426.1497	1514.4334	1792.7465	2234.2794	3040.6186	3053.3445	3135.3665	3499.9531	3530.1597	3630.8345
N=C1NC(CO1)C#C	[NH][C]1N[C@@H](CO1)C#C	
InChI=1S/C5H6N2O/c1-2-4-3-8-5(6)7-4/h1,4H,3H2,(H2,6,7)	InChI=1S/C5H6N2O/c1-2-4-3-8-5(6)7-4/h1,4H,3H2,(H2,6,7)/t4-/m1/s1
