16
gdb 38015	3.54888	2.21294	1.83522	2.1982	72.51	-0.2063	-0.0542	0.152	773.3594	0.127001	-396.761668	-396.7561	-396.755156	-396.791122	24.537	
C	-0.0592731835	 1.5404854691	-0.0155334566	-0.181568
C	 1.4808917734	 1.5531165442	 0.0136601665	-0.030524
N	 2.1193326488	 1.3907000726	 1.3142385478	-0.142028
C	 1.6496418298	 0.3485348232	 1.8754853204	 0.082012
N	 2.6164642104	-0.7805132677	 1.8487648903	-0.335052
C	 1.7059043682	-1.0924945198	 0.6373033182	-0.007616
C	 1.3902234717	 0.0154932044	-0.4854757567	-0.022337
N	-0.0598766143	 0.0424689939	-0.0149418642	-0.136739
C	 0.4546117433	-0.4808020332	 1.268986743	-0.064199
H	-0.5704640572	 2.0088189777	 0.8290859293	 0.117524
H	-0.4857134224	 1.9059787691	-0.9539602902	 0.113369
H	 2.0146943878	 2.2927644223	-0.5849136174	 0.089777
H	 2.3548473101	-1.5170548918	 2.5150443645	 0.223344
H	 1.7640373901	-2.1240111089	 0.2865008701	 0.111783
H	 1.5752466292	-0.2083853546	-1.5361626489	 0.091573
H	-0.2212052954	-1.0013831706	 1.9483648837	 0.090681
293.3723	399.1481	429.5992	483.4549	551.5466	633.5175	654.4849	708.421	776.6701	797.1783	808.673	828.5954	841.0028	891.4381	907.3607	943.8075	959.6942	1003.6433	1026.5728	1046.686	1068.8419	1118.668	1124.3809	1148.7891	1173.418	1182.5166	1204.0895	1219.3243	1233.2835	1282.1217	1299.7114	1314.8135	1321.0691	1490.9291	1616.4857	3053.6561	3096.9057	3102.8842	3110.189	3113.8663	3121.7522	3364.4737
C1C2N=C3NC4C2N1C34	C1[C@H]2[N][C]3N[C@@H]4[C@H]2N1[C@H]34	
InChI=1S/C6H7N3/c1-2-4-3-5(9(1)4)6(7-2)8-3/h2-5H,1H2,(H,7,8)	InChI=1S/C6H7N3/c1-2-4-3-5(9(1)4)6(7-2)8-3/h2-5H,1H2,(H,7,8)/t2-,3-,4+,5+/m1/s1
