25
gdb 63693	2.36503	1.50658	1.17252	0.0756	92.38	-0.2542	0.0795	0.3337	1221.3977	0.228	-352.347472	-352.337757	-352.336813	-352.381515	38.593	
C	 0.7604981802	 1.4088909224	-1.087452867	-0.452753
C	 0.3917157936	-0.0460433296	-0.8112972183	 0.357499
C	-0.9198770043	-0.3992987368	-1.5199931432	-0.438386
C	 1.5030622501	-1.1116305449	-1.1019457716	-0.340898
C	 1.3239347194	-1.7175901515	 0.322023404	 0.401394
C	 0.9520895734	-3.1822659531	 0.4112854935	-0.497618
C	 2.3468558806	-1.1701546745	 1.3562783485	-0.278072
C	 1.4073299212	 0.0346417964	 1.6584194844	-0.245619
C	 0.3458721653	-0.528959435	 0.6745811233	-0.097075
H	 1.7246983506	 1.6830282149	-0.6495481925	 0.110227
H	 0.8317456494	 1.5881775475	-2.1669306681	 0.109379
H	 0.0035566461	 2.094534829	-0.6881483452	 0.109118
H	-0.8232759424	-0.2821946775	-2.6058447647	 0.107062
H	-1.2158288283	-1.4349008028	-1.3215780038	 0.111813
H	-1.7360751615	 0.2499098919	-1.181460897	 0.10824
H	 1.2661047807	-1.7938659924	-1.9244968131	 0.089501
H	 2.4974898296	-0.6926464931	-1.2867021997	 0.086102
H	 1.7974688178	-3.8186713682	 0.1190171637	 0.113158
H	 0.6674376489	-3.4604153194	 1.4326689048	 0.10937
H	 0.1128144933	-3.4296420422	-0.2485899774	 0.112473
H	 2.4770994513	-1.8341520375	 2.2161334496	 0.093004
H	 3.3391235553	-0.9313299715	 0.9608979194	 0.089334
H	 1.0593258651	 0.0656303538	 2.6937404498	 0.098044
H	 1.8060061081	 1.0225899809	 1.4163976818	 0.096401
H	-0.6534695034	-0.6844922969	 1.0897834887	 0.048303
41.7393	196.2321	199.8513	220.9775	249.7373	262.5745	308.9982	319.3702	344.6072	382.7716	396.8803	466.5748	562.8552	633.4505	714.125	756.7837	837.34	841.8205	885.1808	890.9213	940.6285	946.3069	954.5702	957.4753	984.1402	1009.9452	1027.7085	1045.0018	1090.2361	1140.0182	1151.3612	1205.1422	1214.3972	1228.5764	1242.193	1245.0214	1257.553	1276.3515	1291.3398	1325.2327	1334.4867	1398.2629	1409.1875	1417.8534	1472.2733	1480.994	1482.579	1486.6625	1489.2968	1491.4482	1497.5724	1504.5732	1511.4677	3012.4073	3016.1851	3022.014	3036.9473	3041.6906	3058.7414	3069.2229	3074.0574	3079.0458	3082.0964	3085.0037	3086.6033	3087.8665	3093.8208	3098.9504	3112.9777
CC1(C)CC2(C)CCC12	CC1(C)C[C@@]2(C)CC[C@@H]12	
InChI=1S/C9H16/c1-8(2)6-9(3)5-4-7(8)9/h7H,4-6H2,1-3H3	InChI=1S/C9H16/c1-8(2)6-9(3)5-4-7(8)9/h7H,4-6H2,1-3H3/t7-,9+/m0/s1
