18
gdb 37488	3.82148	1.99299	1.68505	0.9379	81.56	-0.2004	-0.036	0.1643	841.1612	0.150469	-364.688768	-364.682889	-364.681945	-364.718423	26.204	
C	-0.0908545742	 1.5438703194	-0.0542169027	-0.256632
C	 1.4286273626	 1.4505952344	 0.1082219009	-0.037185
C	 1.3977017343	 0.0321666668	 0.7215610669	-0.014784
C	-0.0619130804	 0.0166417204	-0.2349936777	-0.103298
C	 0.7832574526	-0.3244606722	-1.4078021321	 0.104659
C	 1.216724211	-1.5894233773	-1.5840974397	-0.163518
C	 2.5800194781	-1.6480084099	-0.8873902831	-0.198762
N	 2.5901292093	-0.3711673407	-0.0886577329	-0.110407
C	 1.9988726846	 0.5961179437	-1.0582371418	-0.050859
H	-0.5774912354	 1.8438672557	 0.8791043441	 0.099116
H	-0.4919417834	 2.1372175428	-0.8814059342	 0.099025
H	 2.0564442499	 2.2482404824	 0.5006147534	 0.076231
H	 1.3238022743	-0.2498042125	 1.7712953167	 0.081168
H	-0.8918814271	-0.6301558585	 0.0423304148	 0.075885
H	 0.5484365307	-2.4453488487	-1.5613278135	 0.094945
H	 2.6326250976	-2.5431320803	-0.2578971349	 0.115092
H	 3.4819697176	-1.6300941632	-1.5116129498	 0.117556
H	 2.6266596178	 0.9826752575	-1.8624685645	 0.071768
275.4859	373.7583	400.2198	417.0085	480.2697	596.6042	656.8927	703.589	772.6809	788.4421	822.991	855.5173	865.0885	875.1791	889.5644	920.7237	943.9207	965.1304	982.8553	1004.4226	1023.7458	1034.2388	1061.6944	1093.7376	1112.2827	1132.5547	1165.1199	1190.6971	1217.103	1235.5512	1242.328	1257.7511	1268.9089	1298.9433	1314.1873	1331.8114	1470.9773	1497.4819	1590.3468	3026.2474	3047.0527	3075.5013	3098.2751	3103.077	3123.0762	3137.8159	3144.0259	3163.2293
C1C2C3C1C1=CCN3C21	C1[C@H]2[C@H]3[C@@H]1[C]1[CH]CN3[C@H]21	
InChI=1S/C8H9N/c1-2-9-7-4(1)5-3-6(7)8(5)9/h1,5-8H,2-3H2	InChI=1S/C8H9N/c1-2-9-7-4(1)5-3-6(7)8(5)9/h1,5-8H,2-3H2/t5-,6+,7-,8+/m0/s1
