25
gdb 59586	3.30799	0.94668	0.76819	0.2375	95.32	-0.2238	0.0359	0.2598	1592.7551	0.22843	-352.389552	-352.379355	-352.37841	-352.424386	38.931	
C	 0.0236556329	 1.5311506158	-0.0380051232	-0.390329
C	 0.0282771529	-0.0026304446	 0.0372783083	 0.023571
C	 0.7568641356	-0.468418525	 1.3064721332	-0.390221
C	-1.3947836146	-0.5794685072	-0.0442041893	 0.063742
C	-2.196555038	-0.1773957922	-1.3154119025	-0.278555
C	-3.0610043837	-1.3834864589	-1.5810217791	-0.17015
C	-2.6795741207	-2.4535839341	-0.8810471164	 0.334721
C	-3.2675370311	-3.8283726812	-0.9260282937	-0.491268
C	-1.4787012664	-2.130003673	-0.0160635446	-0.327949
H	 1.0430169166	 1.928793511	 0.0080538795	 0.106472
H	-0.4338964347	 1.8939358942	-0.9629259966	 0.114697
H	-0.5361549764	 1.9607080107	 0.8019486219	 0.109106
H	 0.5861953379	-0.3828221772	-0.832298749	 0.065861
H	 0.2300517167	-0.1260002755	 2.2058043823	 0.109131
H	 0.8307250474	-1.5585835206	 1.3592602039	 0.114059
H	 1.7735968834	-0.063390366	 1.3463707129	 0.106535
H	-1.9557783079	-0.2069439338	 0.8244868889	 0.067064
H	-2.7738617561	 0.7429983817	-1.1711171853	 0.098889
H	-1.5262966912	 0.0150577511	-2.168215494	 0.098124
H	-3.8740340348	-1.3748560519	-2.3004202755	 0.079202
H	-4.1121340294	-3.8850862942	-1.6184659016	 0.120363
H	-2.5207323223	-4.569532609	-1.2400961923	 0.121799
H	-3.6172260882	-4.1447374886	 0.065295602	 0.121398
H	-0.5723068463	-2.5909036332	-0.4404766878	 0.097175
H	-1.5718309116	-2.5296374682	 1.000977618	 0.096563
72.7785	95.2007	161.5156	191.1921	223.2398	237.5447	253.9075	298.9394	331.2653	347.3314	434.9406	451.9353	453.5014	578.8654	651.8106	820.665	827.0363	879.9719	888.3593	920.4843	928.2268	955.6973	968.3012	976.5336	1020.0917	1036.1911	1059.5761	1062.5153	1137.0809	1147.6319	1160.341	1190.7037	1198.9387	1235.5118	1284.0137	1295.1983	1323.4962	1335.0919	1343.1413	1355.4821	1386.3034	1400.5969	1414.1842	1421.2751	1479.5789	1484.2216	1488.6611	1490.0319	1493.2121	1494.566	1505.4921	1510.8621	1727.91	2980.5917	2981.7144	2983.1549	3004.6395	3013.255	3022.6692	3027.8534	3043.0639	3050.8998	3057.0716	3084.7859	3091.53	3105.0883	3106.8195	3107.0093	3177.8784
CC(C)C1CC=C(C)C1	CC(C)[C@H]1CC=C(C)C1	
InChI=1S/C9H16/c1-7(2)9-5-4-8(3)6-9/h4,7,9H,5-6H2,1-3H3	InChI=1S/C9H16/c1-7(2)9-5-4-8(3)6-9/h4,7,9H,5-6H2,1-3H3/t9-/m0/s1
