18
gdb 93366	2.84814	1.58463	1.21015	3.7131	73.3	-0.2665	-0.0022	0.2644	1054.0186	0.148835	-439.08072	-439.07279	-439.071846	-439.113322	30.331	
C	-0.0884588614	 1.5997617526	 0.0376907322	-0.390118
C	 0.0516762801	 0.0717894802	 0.0053277052	-0.033683
C	 0.7380314787	-0.4323424383	-1.2679695076	-0.103074
O	 2.1609696257	-0.2237683752	-1.2649504105	-0.253151
C	 2.8593690935	-0.853182415	-0.2752439129	 0.393585
N	 4.0330074871	-1.2973537163	-0.4347481655	-0.513416
C	 2.1999434239	-0.9297627832	 1.0622422738	-0.029427
O	 1.9142182026	 0.3468367185	 1.6551918137	-0.234922
C	 0.8138871062	-0.4482846335	 1.2229549747	 0.024004
H	 0.893845872	 2.0737280679	-0.0131576154	 0.148662
H	-0.6921158846	 1.9473049345	-0.8063906271	 0.112159
H	-0.5727296635	 1.9306127181	 0.9611929501	 0.121875
H	-0.9486457842	-0.3785263216	 0.0223453259	 0.084148
H	 0.5418303192	-1.5037533051	-1.4078750886	 0.108157
H	 0.3763162266	 0.0986314277	-2.1518517745	 0.120254
H	 4.3329805255	-1.1514623723	-1.4017155487	 0.224652
H	 2.6285600923	-1.6671672765	 1.7343668108	 0.120125
H	 0.2196707703	-0.8587153226	 2.0389941445	 0.100172
65.2693	172.8396	213.2062	222.7081	291.7257	356.113	393.5137	449.9472	513.4295	604.5148	703.523	743.6208	782.1388	833.9812	854.0972	891.51	933.3123	970.976	975.1514	995.3125	1048.3266	1075.6684	1110.2302	1134.475	1166.3783	1170.368	1272.5185	1281.3345	1319.3122	1337.9579	1355.5065	1376.5384	1406.4234	1424.0235	1450.868	1491.4708	1501.0263	1506.8544	1752.8611	3013.6766	3034.505	3045.1064	3102.0602	3110.996	3112.074	3137.6529	3166.9376	3459.132
CC1COC(=N)C2OC12	C[C@H]1CO[C]([NH])[C@H]2O[C@@H]12	
InChI=1S/C6H9NO2/c1-3-2-8-6(7)5-4(3)9-5/h3-5,7H,2H2,1H3	InChI=1S/C6H9NO2/c1-3-2-8-6(7)5-4(3)9-5/h3-5,7H,2H2,1H3/t3-,4-,5-/m0/s1
