21
gdb 79810	2.09641	1.87072	1.63856	1.6812	80.47	-0.245	0.0682	0.3132	998.2926	0.183975	-387.080101	-387.072018	-387.071074	-387.11199	32.945	
C	-0.0354348679	 1.5304840769	 0.0438942732	-0.498891
C	-0.018051509	 0.0144068344	 0.0480056933	 0.281456
C	-1.4015260656	-0.6556933684	-0.0346492337	-0.250365
C	-1.1632286769	-2.1343558296	 0.3772695074	-0.261868
C	 0.2490324266	-2.1355452525	 0.9611639231	-0.038499
C	 1.4183573109	-1.6255801283	 0.1293986313	-0.136486
C	 0.7440013953	-0.7398179718	 1.177650228	-0.118885
C	 0.9691613183	-0.6771913219	-0.9698990684	 0.120107
O	 0.5009998078	-1.1633689814	-2.209571132	-0.443372
H	 0.9750464945	 1.9420570601	 0.1395769445	 0.113408
H	-0.4629981245	 1.912089182	-0.8902169989	 0.122777
H	-0.6369560995	 1.9251594168	 0.8710929427	 0.11108
H	-2.0924509378	-0.1679476684	 0.6617341027	 0.094146
H	-1.8243513485	-0.558877415	-1.0393769938	 0.10252
H	-1.8869740614	-2.4601120259	 1.1311999557	 0.101679
H	-1.268870732	-2.831214313	-0.463807498	 0.086847
H	 0.5178258013	-2.9004472665	 1.6821687016	 0.083591
H	 2.3845685145	-2.1155694775	 0.1825206458	 0.080775
H	 1.1493772137	-0.3273564418	 2.091779489	 0.0838
H	 1.7739717689	 0.0218699898	-1.2184198114	 0.083391
H	-0.0120670888	-1.9601196983	-2.0461046019	 0.28279
165.6026	199.3174	218.1932	254.1804	262.9309	297.3986	330.5904	481.0829	546.7054	581.1852	629.3958	708.9137	761.8377	792.4488	810.642	845.5657	861.7496	909.6319	943.0829	974.1504	980.6807	1003.5226	1006.0674	1042.2554	1061.4027	1096.1542	1117.8217	1140.5622	1181.8177	1200.4983	1218.6499	1232.8938	1249.3731	1271.1935	1279.924	1311.773	1332.263	1370.1948	1400.1912	1411.9642	1436.7598	1482.742	1494.8645	1496.1735	1512.1481	3021.262	3021.7442	3039.8744	3060.8657	3066.0937	3085.7776	3090.6933	3093.065	3162.1598	3171.7234	3204.4565	3831.6916
CC12CCC3C(C13)C2O	C[C@]12CC[C@H]3[C@H]([C@@H]13)[C@H]2O	
InChI=1S/C8H12O/c1-8-3-2-4-5(6(4)8)7(8)9/h4-7,9H,2-3H2,1H3	InChI=1S/C8H12O/c1-8-3-2-4-5(6(4)8)7(8)9/h4-7,9H,2-3H2,1H3/t4-,5+,6-,7+,8-/m0/s1
