21
gdb 96169	2.56807	1.43278	1.00739	0.3939	78.	-0.2432	0.0718	0.3149	1204.3542	0.184651	-424.211244	-424.203048	-424.202104	-424.243591	32.922	
O	-0.0766250616	 1.4487380227	 0.1245659302	-0.431878
C	 0.0084656982	 0.0330744569	-0.0165632779	 0.108412
C	 0.7475782617	-0.5374449494	 1.2114848315	-0.096023
O	 1.0151685926	-1.9230269347	 1.1983705464	-0.241029
C	-0.1316432013	-2.7490514862	 1.3562713295	-0.103878
C	-0.8351160476	-3.0296063688	 0.0455067654	-0.005808
C	-2.3410526554	-2.9628937099	-0.0596971495	-0.321541
C	-1.4937022223	-1.8935154964	-0.7011188377	-0.001647
C	-1.4293551243	-0.4785941162	-0.1542109656	-0.235121
H	 0.817893655	 1.8011698968	 0.1760402931	 0.282938
H	 0.5724727557	-0.2359620405	-0.9243470101	 0.068938
H	 1.7291943877	-0.051563428	 1.2833519944	 0.088677
H	 0.172838402	-0.2564968605	 2.1105591391	 0.091783
H	 0.2314651515	-3.6849192427	 1.7943566592	 0.10558
H	-0.823048073	-2.2954440369	 2.0829079105	 0.087326
H	-0.3386592525	-3.7738432945	-0.5703914104	 0.086448
H	-2.8489946499	-3.6811516524	-0.6937553832	 0.112227
H	-2.8957422372	-2.6930011768	 0.8343192691	 0.111311
H	-1.404228441	-1.9497454145	-1.7826801971	 0.086135
H	-1.9253117462	-0.4071659169	 0.8211717577	 0.09779
H	-1.9676944222	 0.2047145291	-0.8194336649	 0.10936
135.3293	158.0681	256.3702	291.4855	309.9375	323.999	356.085	402.421	437.7272	467.2908	544.4575	588.3166	799.1684	814.9842	850.969	891.929	911.0338	946.6348	961.0908	1009.5818	1033.8107	1052.0983	1067.0284	1073.5604	1086.9301	1121.1255	1140.2278	1174.571	1192.3046	1236.606	1245.6805	1259.8234	1286.5338	1323.5293	1331.1359	1348.4247	1377.2959	1401.5353	1416.4164	1432.0597	1444.3421	1483.9305	1489.2911	1492.6434	1506.3929	2960.7776	2975.1492	2987.8659	3034.3313	3042.9639	3065.8722	3076.2054	3125.5263	3136.3484	3150.0112	3210.5436	3812.6525
OC1COCC2CC2C1	O[C@H]1COC[C@H]2C[C@H]2C1	
InChI=1S/C7H12O2/c8-7-2-5-1-6(5)3-9-4-7/h5-8H,1-4H2	InChI=1S/C7H12O2/c8-7-2-5-1-6(5)3-9-4-7/h5-8H,1-4H2/t5-,6+,7+/m0/s1
