18
gdb 91241	2.5909	1.59832	1.42713	3.3552	70.37	-0.2276	0.0064	0.2339	997.3039	0.149548	-439.117372	-439.109636	-439.108692	-439.149608	29.842	
C	 0.639674016	 1.4307544236	 0.278551612	-0.410085
C	 0.0718757779	 0.0381629735	-0.0364754895	 0.025161
C	 0.6857757231	-0.6178964488	-1.2978061042	-0.234759
C	 1.8162086473	-1.4958896647	-0.7787936282	 0.12242
O	 3.0503199803	-0.7497666829	-0.4756617773	-0.267108
C	 2.8777486705	-0.9065706812	 0.8802379775	 0.445772
O	 3.5776268052	-0.5002638315	 1.7516722045	-0.333324
C	 1.5504487206	-1.6865162065	 0.7280422829	-0.190674
N	 0.3047814791	-0.9915631853	 0.9994767222	-0.303422
H	 1.7295547081	 1.4348506846	 0.3559329682	 0.149965
H	 0.3571673412	 2.1389602516	-0.5081438398	 0.117028
H	 0.2280095167	 1.8068083986	 1.2215804247	 0.114012
H	-1.0120587393	 0.143442461	-0.163452126	 0.084381
H	-0.053276251	-1.260841739	-1.7858198432	 0.116798
H	 1.0375515422	 0.1118721226	-2.0306533666	 0.123246
H	 2.0548956338	-2.3655886749	-1.3901351279	 0.101527
H	 1.5687468138	-2.6915063725	 1.1562101443	 0.107114
H	 0.2520220746	-0.6263954781	 1.9438185963	 0.231947
101.8254	137.9613	209.4542	226.2472	337.5486	359.9814	401.1434	481.7013	584.2346	677.2282	720.0394	760.2262	809.4784	821.6404	853.1013	879.0293	924.3972	949.8573	983.1085	1025.4302	1046.9705	1082.8515	1100.1699	1135.2239	1161.6975	1205.0828	1226.1581	1268.5238	1301.2548	1310.8036	1349.2418	1365.9865	1387.5681	1413.791	1437.0653	1467.9213	1492.0381	1501.8646	1928.7425	3025.2879	3034.7492	3062.5371	3083.4395	3094.5379	3116.2695	3123.8229	3130.5659	3546.1581
CC1CC2OC(=O)C2N1	C[C@H]1C[C@H]2OC(=O)[C@H]2N1	
InChI=1S/C6H9NO2/c1-3-2-4-5(7-3)6(8)9-4/h3-5,7H,2H2,1H3	InChI=1S/C6H9NO2/c1-3-2-4-5(7-3)6(8)9-4/h3-5,7H,2H2,1H3/t3-,4+,5-/m0/s1
