18
gdb 71194	2.53743	1.71157	1.37902	2.5705	74.8	-0.2374	-0.0295	0.2079	996.0375	0.146826	-401.889107	-401.8812	-401.880256	-401.921561	30.323	
C	 0.1770388231	 1.5639603769	-0.0819705763	-0.52036
C	 0.1086069895	 0.0638052145	 0.0074967387	 0.277397
C	-1.220107274	-0.717898897	 0.0948615391	-0.189909
N	-0.5187855801	-1.8364008457	 0.8086493647	-0.142835
C	 0.832473574	-1.9187064166	 0.1574019793	-0.072582
C	 0.5637562538	-0.8928391419	 1.1914993691	-0.10369
C	 0.9527384795	-0.8445475246	-0.9353199811	-0.129052
C	 0.5192440693	-1.11601831	-2.3533238451	 0.13199
O	-0.3220890544	-0.4887653264	-2.9481647112	-0.247441
H	 1.2067308211	 1.9271627566	 0.0075948003	 0.117149
H	-0.2154889315	 1.8995918028	-1.0474385662	 0.145492
H	-0.415393558	 2.0352566317	 0.7095572318	 0.120723
H	-1.9245802872	-0.2612493703	 0.7955371636	 0.107179
H	-1.7341084361	-0.9885839612	-0.8310888714	 0.120238
H	 1.3554471677	-2.8621702883	 0.2390391303	 0.103914
H	 0.9331304744	-0.745975797	 2.1981464079	 0.100153
H	 1.999843779	-0.5113603154	-0.9667903899	 0.102871
H	 1.05973962	-1.9573742981	-2.8487143536	 0.078761
78.8299	154.361	202.3342	226.5698	287.0645	295.4596	421.1652	490.6178	603.4004	664.8714	697.55	775.2238	790.0644	806.299	843.3249	895.7448	948.8071	973.1588	978.7081	1000.4549	1032.8529	1045.6755	1075.794	1129.9613	1146.8185	1151.4811	1179.3354	1201.8199	1238.015	1265.7945	1310.8799	1325.6725	1376.7198	1412.5858	1423.3242	1491.699	1493.9297	1514.3891	1818.8256	2851.1571	3018.3934	3028.9627	3058.2184	3093.738	3104.7983	3117.0024	3195.6548	3211.5728
CC12CN3C(C13)C2C=O	C[C@]12CN3[C@H]([C@@H]13)[C@H]2C=O	
InChI=1S/C7H9NO/c1-7-3-8-5(6(7)8)4(7)2-9/h2,4-6H,3H2,1H3	InChI=1S/C7H9NO/c1-7-3-8-5(6(7)8)4(7)2-9/h2,4-6H,3H2,1H3/t4-,5+,6+,7-,8?/m1/s1
