15
gdb 123387	7.50814	0.77271	0.70369	1.0386	74.08	-0.2154	0.0174	0.2327	1500.9732	0.112782	-416.767163	-416.758936	-416.757992	-416.800903	29.822	
C	 0.0064623955	-1.2066391085	-0.0058339916	-0.391437
C	 0.0292795671	-0.0065302595	 0.0012949803	 0.285
C	 0.0136390571	 1.448117663	 0.0103918781	-0.254515
O	 1.3503236198	 1.9353549231	-0.0009150962	-0.271616
C	 1.4623650228	 3.2891563879	 0.0047077181	 0.297223
C	 2.6677968105	 3.9650588833	-0.0066406385	-0.153634
N	 2.3417897367	 5.2837747625	 0.0045410489	-0.171326
N	 1.0236962414	 5.5139875516	 0.0220478692	-0.233952
C	 0.4711872004	 4.2986502681	 0.0223861913	-0.1087
H	-0.0073302172	-2.2685742209	-0.0122278163	 0.20344
H	-0.5327298609	 1.8251201371	-0.8675810202	 0.135808
H	-0.5137817637	 1.8141554662	 0.9044526964	 0.1358
H	 3.6841524614	 3.6096399432	-0.0211293413	 0.138646
H	 2.9724699063	 6.0668350877	 0.0008843502	 0.277664
H	-0.6029709072	 4.2011494851	 0.0351519316	 0.1116
49.5781	85.355	112.5931	229.3198	320.2681	350.4003	421.2583	496.4718	503.2138	613.4428	649.0836	685.5459	695.5207	743.9972	755.849	842.3615	942.6961	981.6308	1010.624	1034.7705	1054.902	1089.8147	1167.9874	1251.0766	1267.5153	1336.4223	1381.5835	1400.393	1426.9979	1501.2008	1509.1515	1629.6056	2252.0386	2981.5101	3009.1458	3258.0218	3279.5338	3505.916	3678.7561
C#CCOC1=CNN=C1	C#CCOc1c[nH]nc1	
InChI=1S/C6H6N2O/c1-2-3-9-6-4-7-8-5-6/h1,4-5H,3H2,(H,7,8)	InChI=1S/C6H6N2O/c1-2-3-9-6-4-7-8-5-6/h1,4-5H,3H2,(H,7,8)
