22
gdb 12700	3.2689	1.66383	1.3178	1.3701	77.49	-0.2588	0.0644	0.3232	1041.7013	0.200734	-350.22897	-350.219952	-350.219008	-350.26223	34.179	
C	-0.7659304322	 1.2861769834	 0.0114243848	-0.43756
C	 0.0768366744	 0.0119453124	 0.0052544626	 0.039487
C	 1.0807558635	-0.0871273251	-1.1727245571	-0.214063
C	 2.2846619463	-0.9132100376	-0.6419961249	-0.212169
C	 1.920517206	-1.3109853777	 0.8102789116	 0.043309
C	 3.1185187384	-1.5416219961	 1.7285601791	-0.412244
C	 0.9596998894	-0.1973073698	 1.2536066491	 0.101514
O	 1.7442896435	 0.9545329194	 1.5561424052	-0.441435
H	-0.1301131875	 2.1775398971	 0.0607337277	 0.11302
H	-1.362227083	 1.367771177	-0.903101604	 0.118626
H	-1.4612214575	 1.311112481	 0.8590270902	 0.106973
H	-0.6032355928	-0.8498361421	-0.037912123	 0.067792
H	 0.6150659826	-0.540321898	-2.0527503317	 0.091442
H	 1.4063177016	 0.9144734404	-1.4704269877	 0.099746
H	 2.4958730251	-1.7930740488	-1.2567009314	 0.089512
H	 3.1929397389	-0.3030698415	-0.6387396891	 0.105297
H	 1.3210342798	-2.2308364793	 0.7762201415	 0.065868
H	 3.7033174548	-0.6245654952	 1.8350200006	 0.13288
H	 2.8014551956	-1.8564331842	 2.7288492204	 0.104259
H	 3.7723559078	-2.3225846114	 1.3258766657	 0.105227
H	 0.3653309988	-0.4925184224	 2.1321949661	 0.048438
H	 1.1484502164	 1.6568420386	 1.8320268341	 0.284081
65.1648	120.7972	214.7404	219.1186	234.2017	269.7023	295.4518	328.0813	354.6643	470.1365	531.9189	610.8776	658.6684	808.7998	837.1769	848.6332	897.0328	923.7386	960.5069	980.4366	1000.9965	1028.8883	1040.55	1093.1967	1128.2385	1156.3931	1181.0323	1197.6131	1227.1096	1269.5536	1298.7129	1299.4249	1312.9481	1330.3019	1352.7224	1378.428	1387.7269	1404.8426	1405.1632	1426.1882	1484.8241	1493.8771	1497.8538	1502.3127	1508.2111	1511.1496	2977.3446	3004.1181	3017.3327	3022.933	3033.3727	3044.3533	3056.216	3076.8309	3087.491	3092.5078	3095.5982	3100.3559	3122.8657	3832.8058
CC1CCC(C)C1O	C[C@H]1CC[C@@H](C)[C@H]1O	
InChI=1S/C7H14O/c1-5-3-4-6(2)7(5)8/h5-8H,3-4H2,1-2H3	InChI=1S/C7H14O/c1-5-3-4-6(2)7(5)8/h5-8H,3-4H2,1-2H3/t5-,6+,7-
