17
gdb 61043	2.87936	1.16822	0.8732	2.5056	69.8	-0.2536	-0.0415	0.2121	1278.3917	0.133457	-458.975836	-458.966912	-458.965967	-459.010332	32.058	
O	 0.1885716638	 1.5422426438	 0.0161808545	-0.437461
C	 0.0427093154	 0.1499358895	 0.0315547304	 0.03782
C	 0.6136890566	-0.4607505502	-1.2388869781	 0.122341
O	 1.1108399245	 0.2370535176	-2.0911604873	-0.265592
C	 0.7182456262	-0.4631816964	 1.265791179	-0.118245
C	 0.1528426548	-0.1311034314	 2.6836323129	-0.250197
C	 0.1806687824	-1.6443951376	 3.0613944427	-0.335582
C	 0.4354961664	-1.9450425761	 1.5789071605	 0.382326
O	 0.3251956017	-2.9179333569	 0.8872103046	-0.297981
H	 0.6258673344	 1.7441629423	-0.8277569028	 0.295535
H	-1.0282970819	-0.1238366245	 0.0579461008	 0.096034
H	 0.5549742428	-1.5606704353	-1.3256248998	 0.134535
H	 1.7986833928	-0.2808804445	 1.216733126	 0.114563
H	 0.7655289402	 0.5321983647	 3.2927498658	 0.121738
H	-0.8615596984	 0.2701577935	 2.6343557414	 0.125359
H	 1.0380986655	-1.9242264289	 3.6821914561	 0.139044
H	-0.7186442071	-2.0915402294	 3.4916491634	 0.135763
64.0755	80.4551	114.6713	139.0186	260.458	302.5201	342.0978	357.4339	449.7301	484.6604	564.3459	680.3093	706.0892	763.4699	798.8018	874.6888	909.7634	933.623	982.966	1002.9063	1072.5318	1090.3667	1133.2314	1160.5977	1193.1777	1214.0138	1231.9644	1259.3567	1270.1318	1288.1745	1356.8313	1391.9909	1435.7018	1441.9219	1492.7115	1806.9516	1875.0353	2938.8978	2990.0199	3044.4241	3060.0532	3085.952	3116.1362	3148.5181	3670.0832
OC(C=O)C1CCC1=O	O[C@@H](C=O)[C@H]1CCC1=O	
InChI=1S/C6H8O3/c7-3-6(9)4-1-2-5(4)8/h3-4,6,9H,1-2H2	InChI=1S/C6H8O3/c7-3-6(9)4-1-2-5(4)8/h3-4,6,9H,1-2H2/t4-,6-/m0/s1
