21
gdb 84595	2.23666	2.02292	1.34349	1.6244	82.19	-0.2291	0.0088	0.2379	1038.9855	0.183012	-387.088	-387.079809	-387.078865	-387.11999	33.378	
C	-0.089014726	 1.5791757761	-0.0525844306	-0.409896
C	 0.0397688992	 0.048930179	 0.0241758657	-0.053115
C	 0.7307330973	-0.514222856	-1.2061508134	-0.063831
C	 1.7758987113	-1.32630147	-1.058988393	-0.076336
C	 2.1650433756	-1.6335841263	 0.3712694123	 0.039601
C	 2.3227831605	-0.3082241292	 1.1505007478	-0.283748
C	 0.7844678776	-0.460133409	 1.2877812049	 0.396367
C	 0.1201964351	-0.1078657356	 2.5988055698	-0.478789
O	 0.9478043139	-1.908404639	 1.1282560076	-0.327577
H	 0.8918542176	 2.0654559129	-0.0263903036	 0.118903
H	-0.5774357098	 1.8755595442	-0.9867118349	 0.116338
H	-0.6885874367	 1.9756937997	 0.7718886666	 0.11776
H	-0.9763927396	-0.3714807341	 0.0709081901	 0.08731
H	 0.3452863321	-0.2277340547	-2.1814563685	 0.089487
H	 2.3274606451	-1.7488740086	-1.891999673	 0.089945
H	 2.9094128893	-2.4242152958	 0.4830730806	 0.071874
H	 2.8136617236	-0.4485609563	 2.1160069568	 0.100777
H	 2.7368645061	 0.5537150066	 0.6250738689	 0.098543
H	 0.1587389359	 0.9701074518	 2.7826927387	 0.121192
H	-0.9309709997	-0.417610631	 2.5977721014	 0.122244
H	 0.6276895313	-0.6183389646	 3.4215247757	 0.122951
136.2753	200.1157	215.9803	273.3786	297.8378	313.5226	396.6718	440.5858	476.4218	482.5798	591.3019	646.2232	713.5139	738.5149	817.0609	854.6242	869.1805	911.8474	923.6016	943.4546	974.0212	996.2498	1005.4928	1036.2728	1072.5403	1091.1113	1107.6473	1143.3431	1176.155	1218.3262	1235.7758	1250.2981	1282.3626	1310.7943	1338.5825	1360.4961	1386.6374	1405.8684	1412.8577	1479.3157	1484.7437	1492.8786	1499.6506	1503.8746	1696.3078	2988.5252	3033.4743	3035.7994	3067.852	3094.0544	3098.9911	3103.9346	3109.4236	3120.7586	3132.4205	3154.1659	3189.4773
CC1C=CC2CC1(C)O2	C[C@H]1C=C[C@H]2C[C@]1(C)O2	
InChI=1S/C8H12O/c1-6-3-4-7-5-8(6,2)9-7/h3-4,6-7H,5H2,1-2H3	InChI=1S/C8H12O/c1-6-3-4-7-5-8(6,2)9-7/h3-4,6-7H,5H2,1-2H3/t6-,7-,8-/m0/s1
