18
gdb 93938	2.8507	1.36225	1.15852	4.6522	68.43	-0.236	0.0066	0.2425	1105.3637	0.148735	-476.260774	-476.252187	-476.251243	-476.294738	32.133	
N	 0.4832736387	 0.8275500757	 0.1445189803	-0.517696
C	-0.2138235669	-0.0668593284	-0.5963311172	 0.43793
O	 0.1499402719	-0.4140605485	-1.711370533	-0.380537
C	-1.4901716796	-0.6213331661	 0.059770993	 0.011645
C	-2.6864958335	-0.6536267901	-0.9115978418	-0.293273
C	-2.6241907517	-2.0825329862	-1.4950323816	 0.124687
O	-1.8050878049	-2.1897249	-2.630518234	-0.446433
C	-2.0935264256	-2.8636423819	-0.2846411516	-0.091199
O	-1.2181150364	-1.9741468897	 0.4224360509	-0.273997
H	 1.3695493987	 1.1545866119	-0.2067780012	 0.268664
H	 0.2454283259	 1.0203120682	 1.1015474705	 0.269472
H	-1.7207955029	-0.0518233878	 0.9706775221	 0.066828
H	-3.6148551636	-0.5095027198	-0.3513800231	 0.106894
H	-2.6303527985	 0.101650794	-1.6968808909	 0.126991
H	-3.6167210614	-2.4392867849	-1.7873930818	 0.081214
H	-0.9967485448	-1.6712830572	-2.460281703	 0.301529
H	-2.911528811	-3.181373022	 0.3796293906	 0.086343
H	-1.5202161045	-3.7407869273	-0.594272178	 0.120937
38.7317	82.2774	188.5519	239.2809	276.9452	315.1731	377.7696	394.3291	423.5593	596.8357	610.2033	646.1576	742.6971	757.9901	783.8078	817.5207	855.1937	889.0136	943.6171	984.4116	1007.4099	1054.1513	1092.605	1100.7478	1136.1479	1191.1807	1231.9511	1246.3909	1308.5633	1314.7997	1318.4404	1363.0036	1376.3543	1431.5179	1474.7713	1501.1859	1510.446	1622.2672	1773.2	2987.1507	2998.9613	3060.0117	3073.8478	3101.9202	3131.2385	3581.8067	3598.4917	3734.2778
NC(=O)C1CC(O)CO1	NC(=O)[C@H]1C[C@@H](O)CO1	
InChI=1S/C5H9NO3/c6-5(8)4-1-3(7)2-9-4/h3-4,7H,1-2H2,(H2,6,8)	InChI=1S/C5H9NO3/c6-5(8)4-1-3(7)2-9-4/h3-4,7H,1-2H2,(H2,6,8)/t3-,4-/m1/s1
