15
gdb 56720	2.04404	1.4153	1.25951	1.4073	72.62	-0.2672	0.0064	0.2736	1099.115	0.10802	-420.517337	-420.507941	-420.506997	-420.551627	34.283	
O	 0.4772150279	 1.5828326081	-0.054364342	-0.404379
C	 0.1448182894	 0.2081214588	 0.0291906125	-0.162683
C	 0.4865190172	-0.5284434158	-1.190514132	 0.321436
C	 0.7942525324	-1.1135721007	-2.1935394774	-0.44518
C	 0.7968243836	-0.4304252013	 1.2667497922	 0.211909
C	 0.0333560851	-0.488913822	 2.5269486302	-0.218578
O	 0.1917700146	-1.6486768251	 1.7104317494	-0.258387
C	 2.2387423082	-0.3606016107	 1.2947572241	 0.287982
C	 3.4364257997	-0.2589213807	 1.2758588618	-0.422555
H	 1.4199140347	 1.6375523645	-0.2545849627	 0.292761
H	-0.938976429	 0.1705634282	 0.1819567025	 0.130006
H	 1.0565898013	-1.6374217887	-3.0796274642	 0.204622
H	 0.5715786332	-0.5040664237	 3.4720020544	 0.13096
H	-0.9684645978	-0.0628833675	 2.5558941288	 0.126154
H	 4.4965829594	-0.1888087334	 1.2722956225	 0.205932
54.5359	110.9864	136.0222	204.21	218.0005	254.3441	307.6896	347.593	411.5213	461.0029	552.741	578.4365	609.9358	623.896	644.6076	675.2998	682.4459	754.9604	874.341	885.7582	950.3626	1000.8466	1073.4781	1130.9803	1161.198	1226.6129	1262.1027	1294.3017	1391.3248	1414.03	1520.1077	2236.3874	2238.0784	3062.3563	3090.1124	3186.0614	3498.6593	3502.2457	3787.784
OC(C#C)C1(CO1)C#C	O[C@@H](C#C)[C@]1(CO1)C#C	
InChI=1S/C7H6O2/c1-3-6(8)7(4-2)5-9-7/h1-2,6,8H,5H2	InChI=1S/C7H6O2/c1-3-6(8)7(4-2)5-9-7/h1-2,6,8H,5H2/t6-,7+/m0/s1
