13
gdb 132782	2.32995	1.8229	1.02363	2.791	65.07	-0.2256	-0.018	0.2076	1034.5051	0.089379	-502.041852	-502.034573	-502.033629	-502.073459	27.838	
N	-0.0286450502	 1.4087970302	 0.156701661	-0.59801
C	 0.013246124	 0.0264974852	 0.0533066871	 0.16576
C	-1.1674734845	-0.7176169679	 0.0361437055	 0.12567
F	-2.342853471	-0.0819857176	 0.0506891399	-0.067803
C	-1.110387791	-2.1014829568	-0.0059261105	 0.123308
F	-2.2411456438	-2.8039495345	-0.0245613029	-0.058197
C	 0.1277791454	-2.7299901317	-0.0334380634	-0.118738
N	 1.2670535661	-2.0374970993	-0.0250860761	-0.261079
C	 1.2077249253	-0.7096087718	 0.0164557881	-0.059877
H	 0.7812459721	 1.8911199043	-0.2030631992	 0.258795
H	-0.896463937	 1.8296163585	-0.140616059	 0.261679
H	 0.1797163128	-3.813768793	-0.0651386547	 0.124382
H	 2.1561988917	-0.1761591956	 0.0238275741	 0.10411
154.5258	248.1215	275.4326	283.6687	301.269	333.084	483.1526	509.5134	559.396	585.425	596.35	616.9239	696.4086	750.3943	839.5357	882.4166	923.5709	1045.8652	1136.7936	1198.05	1266.7738	1308.0904	1331.5939	1376.7798	1473.4085	1563.9028	1614.3946	1638.366	1665.7424	3144.4589	3180.0827	3572.9281	3676.3615
NC1=C(F)C(F)=CN=C1	Nc1c(F)c(F)cnc1	
InChI=1S/C5H4F2N2/c6-3-1-9-2-4(8)5(3)7/h1-2H,8H2	InChI=1S/C5H4F2N2/c6-3-1-9-2-4(8)5(3)7/h1-2H,8H2
