14
gdb 43036	2.93914	1.66168	1.22189	4.2467	74.02	-0.2308	-0.0059	0.225	981.6913	0.100295	-399.451915	-399.444732	-399.443788	-399.483462	28.12	
O	-0.1080767011	 0.0554774375	-0.009943781	-0.321438
C	-0.07930544	 1.2457568918	 0.0759005643	 0.431949
C	-1.1265890471	 2.3678497758	-0.0724391228	-0.200966
N	-0.9262860098	 3.1264003256	 1.2153413924	-0.323594
C	 0.3673773847	 3.5461138723	 0.6269702874	-0.07731
C	 0.0248520855	 3.1937666162	-0.7732450012	-0.136315
C	 1.0234740593	 2.2766510577	 0.0503511305	 0.087292
C	 2.4212714434	 2.1219270031	-0.1116863198	 0.128808
C	 3.6078845185	 1.9752667884	-0.2452021614	-0.372991
H	-2.1352320656	 2.1762228452	-0.4245935109	 0.107317
H	-1.5384945703	 3.9421813998	 1.1842149744	 0.227959
H	 0.9920624194	 4.3303245398	 1.0349749043	 0.124998
H	 0.2041418006	 3.5955892617	-1.7603793315	 0.133604
H	 4.6540252024	 1.8365097451	-0.3632022146	 0.190688
128.0189	150.2657	181.946	367.5311	430.5122	469.1427	521.3128	594.1535	608.7652	638.3241	653.1926	678.479	775.83	790.6039	838.8566	851.5861	924.4757	939.2538	965.7661	983.2409	1033.1921	1064.9172	1141.8971	1149.5026	1166.8218	1227.6728	1302.3674	1351.9103	1395.7312	1896.3359	2237.66	3181.4986	3205.4195	3225.3604	3451.1723	3501.7267
O=C1C2NC3C2C13C#C	O=C1[C@H]2N[C@@H]3[C@H]2[C@]13C#C	
InChI=1S/C7H5NO/c1-2-7-3-4(6(7)9)8-5(3)7/h1,3-5,8H	InChI=1S/C7H5NO/c1-2-7-3-4(6(7)9)8-5(3)7/h1,3-5,8H/t3-,4-,5+,7-/m0/s1
