19
gdb 95219	2.55687	1.71703	1.22063	2.8226	70.69	-0.2488	0.0707	0.3195	1052.4701	0.159753	-460.14787	-460.139746	-460.138802	-460.180244	31.796	
C	-0.0473203511	 1.556918734	-0.045305826	-0.400745
C	-0.0113132155	 0.0387776632	 0.0048586583	 0.096697
O	 0.6484055811	-0.4154067189	-1.177049919	-0.259809
C	 0.4737893915	-1.7949362215	-1.4044165996	-0.120536
C	 0.87164601	-2.6386426652	-0.2137556524	 0.052314
O	 2.1379795225	-2.3381763558	 0.3762181489	-0.254762
C	 0.9491577713	-2.0131846745	 1.1155531089	-0.012331
C	 0.7124614413	-0.5066745717	 1.2529155074	 0.107319
O	 1.9419607817	 0.1480439013	 1.4978656564	-0.430155
H	 0.9691617526	 1.9537274739	-0.0255671039	 0.139893
H	-0.5482217636	 1.8913898054	-0.9569960745	 0.118145
H	-0.586994751	 1.95461096	 0.8195449171	 0.114017
H	-1.0419838403	-0.3603120574	 0.0156559051	 0.058055
H	-0.5776982695	-2.0260721972	-1.6526585578	 0.09321
H	 1.0885812847	-2.0503403863	-2.273946971	 0.121646
H	 0.6473040944	-3.7029153767	-0.2949700449	 0.097056
H	 0.8071453368	-2.6219543977	 2.0067403721	 0.101169
H	 0.0804458837	-0.3188910377	 2.1285511906	 0.082926
H	 2.5682865192	-0.2399559271	 0.8716754641	 0.295889
95.2896	199.4007	212.7528	273.0613	290.0628	317.8434	358.4968	441.8983	449.1233	480.5555	606.2066	715.8451	747.9598	764.1675	833.0337	854.3631	902.6133	935.5577	988.038	1010.4337	1042.768	1079.3315	1089.1016	1132.7389	1145.1902	1171.4531	1181.8971	1270.3397	1278.9873	1295.5881	1326.718	1355.9785	1371.605	1385.5719	1404.8045	1410.7034	1442.1464	1469.6712	1482.7984	1484.6342	1495.2834	2938.1482	2953.6053	3047.5847	3053.2006	3073.5924	3106.6041	3122.6115	3127.5641	3145.6914	3760.7864
CC1OCC2OC2C1O	C[C@H]1OC[C@H]2O[C@H]2[C@H]1O	
InChI=1S/C6H10O3/c1-3-5(7)6-4(9-6)2-8-3/h3-7H,2H2,1H3	InChI=1S/C6H10O3/c1-3-5(7)6-4(9-6)2-8-3/h3-7H,2H2,1H3/t3-,4-,5+,6-/m1/s1
