21
gdb 40264	2.74991	1.47012	1.11598	1.2001	84.42	-0.2409	0.0226	0.2635	1157.8252	0.184195	-387.074952	-387.066761	-387.065817	-387.10783	32.356	
C	 0.0973387405	 1.5572091782	 0.2273151295	-0.283459
C	 1.3812827308	 0.7801706053	 0.0707151463	-0.323613
C	 0.0491481696	 0.0773801786	-0.0585609359	 0.380387
C	-0.3821702196	-0.8097313618	 1.0914272081	-0.170076
O	-1.7490259518	-0.6446040864	 1.4233873417	-0.232811
C	-2.6606009976	-1.3988677508	 0.6589220741	-0.127045
C	-2.7508618819	-1.1162031763	-0.8212746275	-0.061799
C	-1.8201933003	-0.6948268712	-1.6777431612	-0.051953
C	-0.3628910396	-0.3775790899	-1.4475623735	-0.344237
H	-0.1873563006	 1.8908688432	 1.2190710102	 0.118343
H	-0.1893167012	 2.2374912153	-0.5674995819	 0.109417
H	 1.9653667219	 0.9291218627	-0.8316533698	 0.107546
H	 1.9797783252	 0.5909596236	 0.9560373821	 0.109056
H	-0.1647310302	-1.8685910698	 0.8710603134	 0.083698
H	 0.1749280485	-0.5386248268	 1.9949036775	 0.097636
H	-2.4632222009	-2.4804723497	 0.7942855268	 0.094997
H	-3.6392222618	-1.2073526481	 1.1132048848	 0.112627
H	-3.731690363	-1.3524978837	-1.2328729527	 0.085669
H	-2.1230683215	-0.6150812683	-2.7208425572	 0.085317
H	-0.0535270955	 0.3847219291	-2.1733279334	 0.099447
H	 0.2192758591	-1.2751752632	-1.7165952215	 0.110855
69.6387	96.9137	258.068	284.3703	309.6109	346.6593	393.7541	415.7703	456.0474	548.9986	658.8649	740.8998	781.8724	808.7325	841.6339	891.7897	922.701	939.8255	962.5259	982.1851	984.616	1009.6046	1031.0087	1041.0483	1054.4442	1071.8686	1081.7583	1163.5873	1185.4282	1217.5853	1253.757	1271.0241	1317.5732	1341.5219	1352.5591	1386.5453	1409.4431	1423.7697	1428.5858	1468.1644	1474.9515	1478.2062	1490.9984	1511.1672	1738.1611	2913.7279	2963.4975	2969.9048	3038.7546	3057.0757	3062.2206	3119.0365	3125.6219	3135.3143	3143.87	3203.8588	3221.0333
C1CC11COCC=CC1	C1CC21COCC=CC2	
InChI=1S/C8H12O/c1-2-6-9-7-8(3-1)4-5-8/h1-2H,3-7H2	InChI=1S/C8H12O/c1-2-6-9-7-8(3-1)4-5-8/h1-2H,3-7H2
