16
gdb 97012	3.69868	1.05747	0.83087	3.3562	83.08	-0.2286	-0.0428	0.1857	1336.7093	0.123168	-396.915734	-396.906734	-396.90579	-396.949923	32.144	
C	-0.0230604133	 1.4272303209	 0.009763003	-0.341794
N	 0.0281725889	-0.0256962911	 0.0053412857	-0.332085
C	-1.0708939061	-0.653615761	 0.0109810478	 0.400906
C	-1.2699048364	-2.1658227145	 0.0079917345	-0.269878
N	-2.7177424287	-2.4029842546	 0.0170446884	-0.310042
C	-3.2652181636	-1.2423069493	 0.0240778505	 0.242546
N	-2.3797404456	-0.1627056427	 0.0211937348	-0.402602
C	-4.6679325336	-0.9910789147	 0.034259515	 0.259997
C	-5.8423890092	-0.7356844868	 0.042924894	-0.37092
H	 0.9925793352	 1.8294674355	 0.0020140622	 0.129908
H	-0.5447346465	 1.830509297	-0.8728935673	 0.10838
H	-0.5291279328	 1.8253773636	 0.9037355203	 0.108537
H	-0.8146966117	-2.6267304389	-0.8757157379	 0.148536
H	-0.8028901388	-2.6317744507	 0.8828520811	 0.148532
H	-2.6519077144	 0.8046462109	 0.0260335484	 0.269182
H	-6.8852052032	-0.5309332937	 0.0505521195	 0.210798
77.8887	87.5105	124.1412	168.9294	215.4078	226.4567	342.9162	399.593	460.4914	532.7676	579.5923	597.523	651.3274	677.1593	708.0423	731.4854	895.3022	972.6439	972.8731	1034.9442	1040.7845	1107.7708	1157.6963	1176.1944	1198.055	1246.3574	1303.0369	1418.8315	1436.8927	1451.2418	1494.1897	1507.8292	1655.0353	1781.9091	2245.7488	2964.9721	3010.9442	3046.8947	3076.6435	3104.9036	3497.4915	3684.1238
CN=C1CN=C(N1)C#C	CN=C1CN=C(N1)C#C	
InChI=1S/C6H7N3/c1-3-5-8-4-6(7-2)9-5/h1H,4H2,2H3,(H,7,8,9)	InChI=1S/C6H7N3/c1-3-5-8-4-6(7-2)9-5/h1H,4H2,2H3,(H,7,8,9)
