18
gdb 40582	3.90205	1.39689	1.31955	1.4964	74.27	-0.2265	0.0793	0.3058	1009.9233	0.149075	-401.834832	-401.82786	-401.826915	-401.86647	27.831	
C	 0.2401536045	 1.4972925202	 0.0993922429	-0.187949
O	 1.0550844225	 0.4966076745	-0.5235458499	-0.22744
C	-0.216988248	 0.1063753279	-0.0027624329	 0.061772
C	-0.3379282439	-0.8050900458	 1.1934125433	 0.015948
C	 0.074988821	-2.2723925113	 1.2142374358	-0.11375
C	 1.5161571768	-2.3194018063	 1.7590033912	-0.080809
C	 1.9204002436	-0.8783365905	 1.9933064489	-0.187095
N	 0.4918235828	-0.5867462101	 2.4508154618	-0.204622
C	 0.3550547667	-2.1139345157	 2.6809228242	-0.028476
H	 0.6050613737	 1.8600853482	 1.0582306606	 0.134151
H	-0.1612733158	 2.2541195396	-0.57211017	 0.117888
H	-0.9479434901	-0.1263889426	-0.7809738369	 0.093698
H	-1.3865398375	-0.7298428492	 1.5107618747	 0.088837
H	-0.3649074901	-3.1226775251	 0.7072976994	 0.089865
H	 2.124838351	-3.2063375798	 1.6336846441	 0.090577
H	 2.5750107929	-0.7713482629	 2.8623147691	 0.103016
H	 2.2756789568	-0.2723526488	 1.160200115	 0.135213
H	-0.0192861468	-2.5847580723	 3.5784301688	 0.099177
75.8755	167.2107	212.9402	335.5196	387.2223	498.3516	607.7238	737.9844	771.1699	795.8261	806.7746	813.6663	829.3322	861.4646	900.1211	923.7715	955.9805	973.1555	1006.0521	1016.5513	1029.818	1046.5523	1074.9826	1099.4889	1111.99	1135.1153	1161.6172	1172.8705	1174.4514	1193.4386	1244.2803	1278.2411	1300.5661	1307.2368	1365.598	1399.3443	1435.7787	1509.281	1527.7096	3018.8936	3067.0519	3080.6576	3092.9959	3147.1935	3183.9365	3184.9475	3192.5653	3222.8815
C1OC1C1C2C3CN1C23	C1O[C@H]1[C@H]1[C@H]2[C@H]3CN1[C@@H]23	
InChI=1S/C7H9NO/c1-3-5-6(3)8(1)7(5)4-2-9-4/h3-7H,1-2H2	InChI=1S/C7H9NO/c1-3-5-6(3)8(1)7(5)4-2-9-4/h3-7H,1-2H2/t3-,4-,5+,6-,7+/m1/s1
