16
gdb 19560	4.11318	2.08693	1.88674	1.8245	68.17	-0.2297	0.	0.2297	765.2839	0.131175	-346.527503	-346.521354	-346.52041	-346.557377	25.437	
C	 0.0208053041	 1.4989911659	 0.0102633381	-0.354282
C	 1.3538532463	 0.7535441564	-0.0072719132	-0.354316
C	 0.0651694973	 0.0125392492	 0.0016158152	 0.451946
C	-0.5924915677	-0.994439322	 0.9760836517	-0.07713
O	-1.6962593051	-1.0846695035	 0.0132570444	-0.283258
C	-0.6120742056	-0.9837646213	-0.9704755876	-0.077198
C	 0.1828726759	-2.2723095036	-0.679674674	-0.075231
C	 0.1967953086	-2.2793257378	 0.6552503453	-0.075345
H	-0.2678383017	 2.0043435794	 0.9264978275	 0.117175
H	-0.286194248	 2.0143707012	-0.8943444058	 0.117174
H	 1.9353268241	 0.772329974	-0.9236705517	 0.114522
H	 1.9536619521	 0.7622834426	 0.8973842195	 0.114517
H	-0.8899280368	-0.7595787835	 1.997264481	 0.080779
H	-0.9299600147	-0.7377187947	-1.9828214289	 0.080759
H	 0.6136375355	-2.9529771709	-1.398677211	 0.109946
H	 0.6423083656	-2.9675114714	 1.3579243695	 0.109943
190.6205	243.3879	265.4357	461.9749	535.46	569.0401	640.9485	723.8915	749.1359	767.7749	824.1698	858.7369	859.1043	898.859	904.1691	916.9571	947.6617	954.4833	993.5486	1024.82	1048.6329	1076.4343	1150.3183	1159.6143	1177.9886	1204.7949	1210.6295	1223.5793	1282.646	1300.6009	1400.1161	1459.985	1513.0391	1612.6806	3123.398	3126.6495	3133.2203	3136.4389	3199.9615	3213.898	3233.4302	3260.7308
C1CC11C2OC1C=C2	C1CC21[C@H]1O[C@@H]2C=C1	
InChI=1S/C7H8O/c1-2-6-7(3-4-7)5(1)8-6/h1-2,5-6H,3-4H2	InChI=1S/C7H8O/c1-2-6-7(3-4-7)5(1)8-6/h1-2,5-6H,3-4H2/t5-,6+
