18
gdb 39704	4.30398	1.54602	1.50754	1.7571	78.53	-0.2185	0.0768	0.2952	933.0595	0.149693	-364.697622	-364.691312	-364.690368	-364.728028	26.882	
C	-0.0636035063	 1.5509917674	 0.0033112746	-0.351235
C	 1.2567140163	 0.8014236184	-0.009710879	-0.332179
C	-0.0420002155	 0.0581348195	 0.0057275051	 0.435801
C	-0.4886195816	-0.9731088032	 1.0304698259	-0.114948
C	-1.982222552	-1.2647932626	 0.8025991348	-0.09587
C	-1.9990294551	-1.2675102803	-0.7441102583	-0.095872
C	-1.6561871052	-2.5038359048	 0.0277841476	-0.029371
N	-0.1855145852	-2.1001459266	 0.0111030542	-0.181879
C	-0.5107397708	-0.9767068614	-1.0054156043	-0.114944
H	-0.3503944145	 2.0632286419	 0.9162909738	 0.113129
H	-0.370199164	 2.0599908987	-0.9050314659	 0.113129
H	 1.8366718763	 0.8053552289	-0.9269954629	 0.115536
H	 1.8564739323	 0.8085936236	 0.8947304788	 0.115536
H	-0.0607610949	-1.0443747908	 2.0308819913	 0.074393
H	-2.8523681059	-1.0183021455	 1.3964274786	 0.089513
H	-2.8818831907	-1.0230705869	-1.3197506305	 0.089513
H	-2.036394391	-3.5169141504	 0.0336947986	 0.095354
H	-0.1047173725	-1.0515250559	-2.0146304627	 0.074393
148.5859	239.9636	254.8617	472.3265	560.3509	575.1836	757.2253	771.1649	789.9485	805.6329	807.5063	810.1667	861.9296	906.2408	907.5627	924.9465	926.1524	950.5991	968.8612	980.1839	1007.0847	1019.6686	1038.2806	1051.9293	1061.7152	1076.6318	1095.3449	1146.2457	1176.3908	1182.6151	1206.4377	1217.9376	1250.1409	1251.5288	1274.0524	1350.7354	1422.0237	1464.4864	1511.805	3109.2897	3111.4874	3123.293	3127.1381	3190.1584	3195.8835	3200.2405	3210.7639	3214.772
C1CC11C2C3C4C3N2C14	C1CC21[C@H]1[C@H]3[C@@H]4[C@H]3N1[C@H]24	
InChI=1S/C8H9N/c1-2-8(1)6-3-4-5(3)9(6)7(4)8/h3-7H,1-2H2	InChI=1S/C8H9N/c1-2-8(1)6-3-4-5(3)9(6)7(4)8/h3-7H,1-2H2/t3-,4+,5-,6+,7-
