24
gdb 107467	2.45166	1.34061	1.15891	1.6105	88.54	-0.2238	0.081	0.3048	1249.7102	0.216497	-368.382168	-368.372339	-368.371395	-368.416214	38.282	
C	 1.9026126525	 0.1423309444	 1.035673694	-0.394181
C	 0.7743851098	 0.2726554297	 0.0064341632	-0.288999
C	 1.088598328	-0.3006677657	-1.3550433513	 0.324447
C	 2.0317168281	-1.4185592337	-1.5781119864	-0.297943
N	 2.4161138114	-0.0824110698	-2.0756654104	-0.167533
C	 1.6486161285	 0.072365007	-3.3595459782	-0.206107
C	 0.2681816109	-0.0129338009	-2.6392775397	 0.257336
C	-0.7153551778	-1.0930663769	-3.0923178384	-0.453374
C	-0.4265047551	 1.3512925115	-2.6130048727	-0.4468
H	 2.0720789519	-0.8988702252	 1.3263616684	 0.115733
H	 2.8385512772	 0.5399689755	 0.6319762329	 0.141316
H	 1.6572123238	 0.7007245528	 1.9436658055	 0.110564
H	-0.1333529486	-0.2174317147	 0.386298151	 0.099543
H	 0.5187717626	 1.3327707686	-0.1055459455	 0.102891
H	 2.6347426941	-1.7458661538	-0.7378407893	 0.116436
H	 1.815935293	-2.203448375	-2.2999731761	 0.102651
H	 1.8496354333	 1.0471360852	-3.8105775922	 0.102949
H	 1.8721661762	-0.7108075038	-4.09310383	 0.094671
H	-0.2560409715	-2.0844112342	-3.1277898153	 0.112247
H	-1.5754337248	-1.1474240109	-2.4147699754	 0.113635
H	-1.1002159672	-0.8703754971	-4.0943833084	 0.112842
H	-0.800225137	 1.6006565327	-3.6124480776	 0.111866
H	-1.2824129679	 1.3556557983	-1.9288979608	 0.112894
H	 0.2577837186	 2.147769296	-2.3054228274	 0.122917
69.2394	138.5111	192.1223	205.6047	221.4818	259.2978	280.9437	317.7934	348.2645	372.6017	453.6177	490.9078	513.1242	612.2604	640.9097	741.4882	803.0927	852.0013	868.3246	889.83	933.0881	962.9661	978.5887	994.1557	1016.4023	1039.064	1068.4939	1109.0437	1124.7144	1130.1994	1158.7003	1193.3939	1233.5184	1254.8647	1264.8493	1294.1871	1315.2099	1363.9574	1387.4168	1403.271	1409.7851	1422.0155	1479.8495	1484.1823	1487.5477	1496.2916	1500.6285	1503.3424	1508.7496	1513.4061	1521.9002	3010.3285	3023.1594	3027.4567	3034.7583	3040.762	3051.8091	3084.1355	3091.4726	3097.6935	3103.1304	3105.0938	3108.2218	3111.5614	3117.3618	3198.97
CCC12CN1CC2(C)C	CC[C@]12CN1CC2(C)C	
InChI=1S/C8H15N/c1-4-8-6-9(8)5-7(8,2)3/h4-6H2,1-3H3	InChI=1S/C8H15N/c1-4-8-6-9(8)5-7(8,2)3/h4-6H2,1-3H3/t8-,9?/m1/s1
