20
gdb 61305	1.95711	1.30138	0.86655	4.1482	79.57	-0.2579	0.036	0.2939	1379.4071	0.168952	-403.1457	-403.135829	-403.134885	-403.181745	35.449	
C	 0.0516054146	 1.4875238639	 0.4374131784	-0.406168
C	 0.070752442	 0.0218820375	 0.004073995	 0.136608
C	-1.35526658	-0.5500645724	-0.1063299478	-0.348633
C	-1.3461038882	-1.9837873901	-0.3864824356	 0.275619
N	-1.3203795461	-3.1210321022	-0.5895282283	-0.316876
O	 0.6533556142	-0.1342261514	-1.2824524171	-0.260257
C	 2.041775088	-0.2956278385	-1.2892076657	 0.127979
C	 2.6178652508	-1.6528104977	-0.9751345949	-0.292999
C	 2.5954255692	-1.1291719852	-2.3976895868	-0.282632
H	 1.0691698671	 1.8841033478	 0.4888598376	 0.128235
H	-0.5138708182	 2.0913634385	-0.2791306975	 0.129282
H	-0.4016720618	 1.5996370736	 1.4275504208	 0.119128
H	 0.6327795486	-0.5750931061	 0.7353889959	 0.09434
H	-1.908731326	-0.3712415104	 0.8213268432	 0.148147
H	-1.8835205256	-0.0308966688	-0.9135675984	 0.159084
H	 2.6040819042	 0.5847419216	-0.9791846635	 0.085178
H	 3.5654925738	-1.7071289106	-0.4505896678	 0.113045
H	 1.9126528651	-2.4410316573	-0.7355543628	 0.142198
H	 1.8706195003	-1.5730705021	-3.0700199492	 0.134064
H	 3.5247687581	-0.8205297501	-2.8624976755	 0.114658
33.9291	59.6771	100.8402	157.0178	182.1037	223.8757	288.4139	365.7997	391.3028	394.2176	453.915	497.6305	576.1502	752.867	801.7207	822.3443	866.8767	892.8086	915.9002	964.85	982.7589	1021.1517	1055.3675	1077.9513	1097.0458	1120.9785	1130.9558	1144.1852	1195.5117	1196.1345	1241.1325	1254.907	1308.8707	1362.7639	1381.7481	1406.9639	1412.1399	1452.8233	1454.1301	1487.9322	1493.3916	1498.4026	2363.8817	3013.9154	3039.4151	3052.8117	3096.8128	3101.4223	3113.4564	3120.1924	3135.8234	3143.8095	3222.7234	3237.4388
CC(CC#N)OC1CC1	C[C@@H](CC#N)OC1CC1	
InChI=1S/C7H11NO/c1-6(4-5-8)9-7-2-3-7/h6-7H,2-4H2,1H3	InChI=1S/C7H11NO/c1-6(4-5-8)9-7-2-3-7/h6-7H,2-4H2,1H3/t6-/m0/s1
