23
gdb 75595	2.45333	1.36353	1.0091	0.2124	95.33	-0.2202	-0.0002	0.22	1291.8555	0.207651	-351.177873	-351.168952	-351.168007	-351.210941	35.273	
C	-0.0139402677	 1.5684319	-0.1839122303	-0.478455
C	 0.0102693752	 0.066487956	-0.0264475191	 0.290446
C	-1.1106216767	-0.6683850878	-0.0947790647	-0.137434
C	-1.2147433915	-2.1723966231	-0.0939094302	-0.240598
C	-1.3702265511	-2.8358356454	 1.2971873223	-0.179323
C	-0.0608921056	-3.0683622516	 2.0601111156	-0.180425
C	 0.7868448129	-1.7972971538	 2.3113863004	-0.245042
C	 1.6676113127	-1.3723261989	 1.1644137009	-0.044206
C	 1.3367381984	-0.5383497502	 0.171179289	-0.146492
H	 0.6276227088	 1.882882842	-1.0174803034	 0.121056
H	-1.0247055592	 1.93783597	-0.377193101	 0.117648
H	 0.372563273	 2.0714444066	 0.7108590195	 0.124608
H	-2.0536647558	-0.1351327615	-0.2132894547	 0.073557
H	-2.0861831663	-2.4457541731	-0.7001426519	 0.091962
H	-0.3381344459	-2.6055217146	-0.5893169728	 0.102932
H	-2.0497562978	-2.2305984267	 1.9112206978	 0.092345
H	-1.8609023131	-3.8076293656	 1.1652773078	 0.090255
H	-0.3083485314	-3.5166708245	 3.0296899314	 0.091053
H	 0.5488913275	-3.8090051158	 1.526601108	 0.093066
H	 0.1103284125	-0.9780252465	 2.580960511	 0.104684
H	 1.4292417453	-1.9783531042	 3.1807454943	 0.093085
H	 2.6837576973	-1.7637849273	 1.1802847555	 0.083585
H	 2.1129997584	-0.2380735439	-0.5334607054	 0.081689
120.9092	158.5039	178.1125	195.8169	258.1406	301.0262	339.781	357.1439	396.2509	475.4881	507.0861	592.6581	659.6504	756.3195	774.4568	804.773	844.5418	867.7688	904.6572	934.0604	980.2402	1001.2036	1014.3486	1019.3498	1063.305	1077.3723	1092.9411	1117.3719	1164.546	1198.5116	1226.2459	1259.6621	1287.4388	1296.9443	1348.9429	1359.2883	1367.4411	1382.9944	1385.6136	1409.2884	1443.1947	1477.7695	1480.2917	1481.6204	1486.4666	1488.9678	1494.6936	1692.7826	1711.8826	3014.9518	3016.2826	3019.2793	3024.8498	3026.2976	3054.6069	3062.3302	3064.3871	3068.223	3070.7584	3109.1516	3111.528	3125.9985	3141.8215
CC1=CCCCCC=C1	CC1=CCCCCC=C1	
InChI=1S/C9H14/c1-9-7-5-3-2-4-6-8-9/h5,7-8H,2-4,6H2,1H3/b7-5-,9-8-	InChI=1S/C9H14/c1-9-7-5-3-2-4-6-8-9/h5,7-8H,2-4,6H2,1H3/b7-5-,9-8-
