17
gdb 86479	2.50228	1.39537	1.04408	0.992	80.71	-0.2577	0.0211	0.2788	1160.1046	0.132848	-384.600891	-384.591758	-384.590814	-384.634366	35.087	
O	 0.1902599078	 1.3959675287	-0.1730671938	-0.435254
C	 0.0514388312	 0.0010162287	-0.0347129283	 0.146006
C	 0.2402444509	-0.5378816441	 1.4098308002	-0.275157
C	-1.332619938	-0.5779633516	 1.579543838	-0.050194
C	-1.4139112244	-0.5130573519	 0.0004677261	-0.275159
C	-1.892830662	-1.7598148954	 2.2162372448	 0.219966
C	-2.3327861837	-2.7608212372	 2.7150144692	-0.417587
C	-1.8335626977	 0.6524669469	 2.1891670268	 0.290983
C	-2.2171291098	 1.6921026454	 2.6576601466	-0.460198
H	-0.367989007	 1.8214679728	 0.4895906553	 0.283343
H	 0.695466321	-0.4390434524	-0.7983566387	 0.090492
H	 0.6468034944	-1.5509163551	 1.430810086	 0.120261
H	 0.7865701215	 0.0991398063	 2.1068471332	 0.121019
H	-2.1775975394	 0.1436099174	-0.4186640617	 0.121018
H	-1.5167226453	-1.5184509904	-0.4125512392	 0.120261
H	-2.7290739395	-3.6374003092	 3.1647640008	 0.195389
H	-2.5733981901	 2.5938750709	 3.0916889446	 0.204812
93.2182	128.9324	142.5866	182.851	229.6298	368.0699	379.4952	415.4302	456.7937	472.0981	550.5513	558.5297	575.2746	621.8833	630.2704	644.4756	656.5653	812.6286	823.4803	842.936	941.235	945.176	983.7586	995.1138	1081.566	1124.0596	1153.5791	1214.3327	1253.5452	1259.8637	1281.2266	1335.8939	1447.2519	1454.7123	1477.6392	2226.4568	2238.4347	3074.7178	3077.8387	3096.9782	3144.4085	3145.219	3498.4748	3501.8869	3774.596
OC1CC(C1)(C#C)C#C	OC1CC(C1)(C#C)C#C	
InChI=1S/C8H8O/c1-3-8(4-2)5-7(9)6-8/h1-2,7,9H,5-6H2	InChI=1S/C8H8O/c1-3-8(4-2)5-7(9)6-8/h1-2,7,9H,5-6H2
