19
gdb 55650	2.38982	1.26104	1.12998	2.8495	72.56	-0.2466	-0.0328	0.2138	1205.7865	0.154547	-460.202533	-460.192232	-460.191288	-460.238037	36.878	
C	-0.7956255816	 0.6452948865	-3.2171098245	-0.480883
C	-1.1607475812	-0.4390297808	-2.2350611166	 0.417328
O	-2.2377711236	-1.0054167171	-2.2762304915	-0.334111
C	-0.1267677439	-0.7934087098	-1.1713479885	-0.34641
C	-0.0946585383	-2.2984270455	-0.8481067062	 0.262835
C	 0.9307254392	-2.6267809792	 0.2387336591	-0.423784
O	-1.3496769707	-2.7739037693	-0.3880330828	-0.465118
C	 0.2537108015	-3.095947715	-2.1113721608	 0.141222
O	 0.5625725145	-2.61346998	-3.1721592894	-0.263955
H	-0.4109950667	 1.5293075879	-2.696865813	 0.137562
H	 0.0115613566	 0.267407367	-3.8549314709	 0.169972
H	-1.6573319975	 0.9104432372	-3.8303577476	 0.144344
H	 0.8628927589	-0.4474593185	-1.4792612787	 0.121019
H	-0.3982591483	-0.2493029093	-0.2575191822	 0.136258
H	 0.6412769045	-2.132434141	 1.1702160766	 0.13312
H	 0.9490175398	-3.7051335578	 0.4222080648	 0.132636
H	 1.9349907719	-2.2991063816	-0.0452148941	 0.122855
H	-2.0142262902	-2.3780749006	-0.9793901657	 0.299561
H	 0.161942695	-4.1950516932	-1.9695572379	 0.09555
55.6879	84.331	106.701	168.5199	187.4037	210.8725	275.0612	299.7049	325.3593	364.3956	401.4543	439.0387	497.9453	580.4612	619.2063	686.3721	811.2931	813.9728	878.3174	908.9349	965.6355	985.8007	1002.5893	1028.6521	1112.4983	1151.8154	1201.0466	1223.5877	1272.2487	1346.6108	1382.4279	1386.8757	1404.9604	1439.3723	1454.235	1463.237	1474.5825	1480.063	1496.5956	1779.1712	1819.3481	2902.2096	3036.7525	3039.7669	3042.7566	3102.8152	3106.1678	3118.6903	3124.0051	3156.2996	3622.4413
CC(=O)CC(C)(O)C=O	CC(=O)C[C@@](C)(O)C=O	
InChI=1S/C6H10O3/c1-5(8)3-6(2,9)4-7/h4,9H,3H2,1-2H3	InChI=1S/C6H10O3/c1-5(8)3-6(2,9)4-7/h4,9H,3H2,1-2H3/t6-/m1/s1
