25
gdb 60585	2.80728	1.05098	0.81862	0.1185	92.8	-0.2644	0.0865	0.3509	1504.2981	0.2293	-352.3382	-352.328503	-352.327559	-352.372901	37.319	
C	 0.0745438426	 1.5912984619	-0.0371122619	-0.395791
C	-0.054783648	 0.0608168387	 0.017098191	-0.023016
C	-1.5156328733	-0.3573193017	 0.0557761846	 0.050258
C	-1.9567317305	-1.621879777	 0.7493826235	-0.271316
C	-2.3061701445	-0.2765306493	 1.3373492885	-0.280934
C	 0.6850464571	-0.5906142408	-1.1523544966	 0.083161
C	 2.2278869687	-0.4198410554	-1.2720002849	-0.238249
C	 2.309519881	-1.8813807258	-1.78829225	-0.21789
C	 0.9042357622	-2.1308116291	-1.1792966072	-0.228289
H	 1.1234521312	 1.9043729706	-0.0316599677	 0.112535
H	-0.3860313164	 1.9889639514	-0.9495311072	 0.108644
H	-0.4244772994	 2.0589065907	 0.8171269168	 0.112148
H	 0.4175279946	-0.2891325334	 0.9483138719	 0.056087
H	-2.066006544	-0.1025333511	-0.8484431803	 0.074504
H	-2.7481699311	-2.2123253655	 0.3007237438	 0.107439
H	-1.2010233277	-2.2110013979	 1.2579293798	 0.109002
H	-1.7798150129	 0.0321114881	 2.2352773512	 0.107258
H	-3.3375139043	 0.0560164472	 1.2940237369	 0.107154
H	 0.2128549851	-0.2752212265	-2.0925541129	 0.061437
H	 2.6118569379	 0.3755219105	-1.9157919573	 0.092358
H	 2.6892486237	-0.3181540372	-0.2831836063	 0.094811
H	 2.2903863861	-1.9244440866	-2.8813221681	 0.099162
H	 3.1363930216	-2.5012339431	-1.4334012596	 0.092628
H	 0.9766824177	-2.5379326009	-0.1653897123	 0.094423
H	 0.1966411626	-2.7412359981	-1.7452411956	 0.092476
76.0801	93.2366	128.0878	151.1829	220.5127	237.1959	258.2128	352.8569	366.3703	421.4752	495.3331	639.0339	755.0742	779.6819	786.4418	820.7208	828.3963	895.5375	927.7566	933.2593	936.5449	953.1918	966.3871	987.9978	1016.1908	1033.3731	1059.3146	1077.461	1084.3857	1122.7092	1138.2735	1186.4433	1198.873	1200.5231	1209.1061	1225.8993	1242.8992	1254.9478	1262.8483	1274.1007	1292.9835	1302.2921	1326.6956	1386.3769	1406.0808	1417.8932	1469.6527	1477.7278	1487.2073	1495.9008	1498.2493	1505.9772	1511.1472	2980.9082	3015.3469	3027.326	3040.2778	3049.4704	3055.8063	3092.1171	3092.6958	3099.5498	3105.8913	3114.3461	3117.2213	3126.4637	3133.656	3204.1165	3219.8789
CC(C1CC1)C1CCC1	C[C@@H](C1CC1)C1CCC1	
InChI=1S/C9H16/c1-7(9-5-6-9)8-3-2-4-8/h7-9H,2-6H2,1H3	InChI=1S/C9H16/c1-7(9-5-6-9)8-3-2-4-8/h7-9H,2-6H2,1H3/t7-/m1/s1
