19
gdb 109267	3.21524	1.32276	1.04581	3.7417	76.24	-0.2288	0.0149	0.2438	1167.875	0.161514	-419.197325	-419.189264	-419.18832	-419.230323	30.409	
O	-0.0741938333	 1.3778890592	-0.4220367069	-0.421391
C	-0.0843730798	 0.0000529671	-0.1620166679	-0.12274
C	-1.474437408	-0.5035101646	 0.113441678	 0.309751
N	-2.4505969818	 0.3091447916	 0.2593367657	-0.310478
C	-3.6699074414	-0.478091218	 0.4999103392	-0.195196
C	-3.2230611353	-1.9536640818	 0.377377947	 0.015078
C	-3.2730044825	-2.6814866355	-0.9925267372	-0.246837
C	-1.7228668392	-2.7400416644	-0.9402323013	-0.186409
N	-1.7258486419	-1.8712912458	 0.2857815859	-0.140594
H	-0.967716061	 1.6853046852	-0.2037238836	 0.293611
H	 0.3443184187	-0.5477287962	-1.0157745641	 0.10602
H	 0.5432227879	-0.2532985263	 0.7088089455	 0.116379
H	-4.0630441328	-0.2549949848	 1.4981270787	 0.116089
H	-4.4484478787	-0.201818686	-0.2220174783	 0.11093
H	-3.5550619627	-2.5708580023	 1.2155925607	 0.087386
H	-3.792413557	-3.6411508993	-1.0142620426	 0.111886
H	-3.6559712073	-2.0508265323	-1.7990707065	 0.117086
H	-1.3134184319	-3.7297161882	-0.7224904952	 0.119365
H	-1.1842980818	-2.3125930375	-1.7903722872	 0.120066
76.0526	104.5995	206.8578	210.338	252.7056	344.9537	379.3948	439.5369	601.9172	657.2098	699.6529	735.4899	798.8422	822.2074	899.0786	920.4381	957.1168	1008.2685	1023.8824	1030.2782	1061.1274	1084.2478	1109.0459	1127.799	1164.3845	1211.8694	1222.6735	1245.2228	1248.0561	1264.7367	1281.1357	1314.3825	1320.2273	1355.8175	1363.9321	1481.774	1483.5463	1497.6535	1503.3586	1515.2576	1693.9059	2971.6917	2994.3797	3027.0338	3055.5669	3057.3842	3067.4744	3077.2211	3103.6253	3129.213	3693.8734
OCC1=NCC2CCN12	OCC1=NC[C@H]2CCN12	
InChI=1S/C6H10N2O/c9-4-6-7-3-5-1-2-8(5)6/h5,9H,1-4H2	InChI=1S/C6H10N2O/c9-4-6-7-3-5-1-2-8(5)6/h5,9H,1-4H2/t5-/m1/s1
