19
gdb 58613	1.27314	1.04048	0.71505	1.4233	75.98	-0.2225	0.0295	0.2519	1705.7874	0.150749	-456.349645	-456.33541	-456.334466	-456.394931	42.892	
C	-0.2101155468	 1.6422232218	 1.3751114114	-0.449594
C	-0.4901561161	 0.2385240305	 1.8306053443	-0.214862
N	 1.8247777272	 0.097425961	-1.0695360919	-0.722435
H	 2.4390212666	-0.6402003453	-0.7341641723	 0.234197
H	 0.9033351729	-0.3272199115	-1.1463680897	 0.259731
H	 2.1222293539	 0.2893421371	-2.0228443492	 0.232875
C	-1.5489494288	-0.4672753206	 1.4859256618	 0.373269
C	-2.3898819509	-1.6439606575	 1.5255852517	-0.32645
N	-2.7185989164	-0.4279443189	 0.6966714552	-0.367111
C	-2.2264258875	-0.5709841539	-2.1110784796	 0.593839
O	-1.2734549456	-1.2098263889	-1.9065886785	-0.307199
O	-3.1642205605	 0.0591207778	-2.3803355147	-0.297056
H	 0.6874948194	 1.6598835904	 0.7454752851	 0.16877
H	-1.0434799991	 2.0437166556	 0.7913189666	 0.11057
H	-0.0375022202	 2.3107709024	 2.2271758558	 0.1146
H	 0.2474252693	-0.2396997073	 2.4701413252	 0.0899
H	-2.1537129991	-2.5282024844	 0.9390996895	 0.134235
H	-2.9861730149	-1.8330206827	 2.4160938555	 0.126227
H	-3.4666184032	 0.1291351144	 1.1049274436	 0.246496
20.3203	23.6999	30.4741	48.1495	66.1047	72.3592	92.0514	97.4512	130.5904	143.8678	183.1492	200.5823	227.2663	232.9037	423.5689	520.6218	653.4577	692.373	734.0038	799.9438	879.4952	926.8977	969.1768	1003.7635	1069.0399	1086.3363	1114.1714	1116.6227	1142.1243	1184.3475	1227.753	1361.5691	1374.9682	1411.9227	1484.4237	1493.5619	1506.9466	1679.292	1689.5134	1883.4773	2428.3873	3019.3074	3078.3606	3099.4146	3106.74	3159.6886	3182.7925	3462.6204	3478.2038	3577.9259	3579.3155
CC([NH3+])C1(CN1)C([O-])=O	CC=C1CN1.N.C(=O)=O	
InChI=1S/C5H10N2O2/c1-3(6)5(2-7-5)4(8)9/h3,7H,2,6H2,1H3,(H,8,9)	InChI=1S/C4H7N.CO2.H3N/c1-2-4-3-5-4;2-1-3;/h2,5H,3H2,1H3;;1H3
