18
gdb 86721	3.09411	1.25536	0.98007	3.1528	73.86	-0.23	0.0299	0.2599	1190.3548	0.148528	-439.096713	-439.088452	-439.087508	-439.130147	31.01	
O	-0.1086543684	 1.4703380981	 0.1781444565	-0.427102
C	-0.043875379	 0.0698492237	-0.02611895	 0.091221
C	 0.7684290786	-0.6653282482	 1.0796923846	-0.223181
N	 0.0267393879	-1.8940215892	 1.3359049407	-0.032046
C	 0.5979748053	-3.0151763836	 1.8397338452	 0.138385
O	 1.7638965479	-3.1118224032	 2.1679696777	-0.346559
C	-1.3377610901	-1.7776121501	 0.8882608343	 0.004972
C	-2.1139536435	-0.584659022	 1.3859683563	-0.307535
C	-1.4317766637	-0.542647658	 0.0344212909	-0.060242
H	 0.7654980109	 1.8401645619	 0.0174824733	 0.288026
H	 0.3897092328	-0.1528697098	-1.0118184003	 0.079576
H	 1.7937764479	-0.911809441	 0.796272862	 0.136643
H	 0.8076483249	-0.0248734519	 1.969459042	 0.123067
H	-0.1257491152	-3.8519295062	 1.9100869827	 0.069592
H	-1.8335501665	-2.7107983707	 0.6498383922	 0.110778
H	-3.195528248	-0.6601724677	 1.3839097397	 0.121933
H	-1.7039572591	 0.0057187604	 2.1972918893	 0.13313
H	-2.0404394728	-0.5169768426	-0.860826247	 0.099342
48.2876	115.0457	193.3288	235.6033	284.2103	328.8194	371.9208	428.1782	482.5433	548.9279	622.0534	711.7195	795.8806	812.3892	872.5116	913.5979	971.7544	984.9092	1018.6149	1027.3259	1046.4862	1057.2658	1088.9613	1107.6891	1138.7756	1196.2693	1200.9452	1243.0074	1251.6153	1301.3172	1337.6842	1345.1697	1371.2173	1426.0142	1433.1003	1458.9273	1489.0464	1519.0801	1787.6564	2930.6892	2993.7899	3031.2917	3110.3187	3141.1107	3183.7408	3191.1808	3230.0799	3816.3976
OC1CN(C=O)C2CC12	O[C@H]1CN(C=O)[C@H]2C[C@@H]12	
InChI=1S/C6H9NO2/c8-3-7-2-6(9)4-1-5(4)7/h3-6,9H,1-2H2	InChI=1S/C6H9NO2/c8-3-7-2-6(9)4-1-5(4)7/h3-6,9H,1-2H2/t4-,5+,6+/m1/s1
