17
gdb 31569	3.2862	1.16456	0.86924	0.9639	73.66	-0.1767	0.0451	0.2218	1302.2558	0.133723	-458.982216	-458.972548	-458.971604	-459.0175	33.71	
C	-0.1677470841	 1.4098485456	 0.0062804924	-0.245455
O	-0.0493644444	-0.0112010607	 0.0341259368	-0.270029
C	-1.1853358351	-0.7158850463	 0.0426710767	 0.468686
C	-1.3706983958	-2.0633734316	 0.0669610134	-0.47443
C	-2.7997890441	-2.2299387093	 0.0645263168	 0.241276
O	-3.4954102122	-3.4021697027	 0.0829742617	-0.447827
C	-3.3761990464	-0.9995360982	 0.0395288658	 0.246974
C	-4.7758981285	-0.5153065904	 0.0249434726	-0.497529
O	-2.35462766	-0.0492944388	 0.0257348028	-0.229108
H	 0.8542787959	 1.7895754393	 0.0033036664	 0.136631
H	-0.6930720195	 1.7461023638	-0.8933834859	 0.134742
H	-0.7006183911	 1.780381398	 0.8878547792	 0.134755
H	-0.6049218495	-2.8213652315	 0.0837956338	 0.105794
H	-2.8689201918	-4.130364607	 0.1037789073	 0.299605
H	-5.0116057985	 0.1089220303	 0.8963733797	 0.125349
H	-5.0054174043	 0.0740273293	-0.872073972	 0.125354
H	-5.4446441106	-1.37954861	 0.0396238325	 0.145211
34.3992	112.4817	152.7108	166.8154	192.4447	197.6462	230.4853	254.2111	379.7795	382.1104	543.9579	622.3314	646.0663	647.223	674.5457	709.7236	802.2993	958.1461	1009.3392	1067.2677	1067.5176	1088.884	1177.7359	1197.4204	1216.2796	1223.5688	1305.7607	1356.9263	1416.1364	1453.6294	1472.8805	1480.6772	1484.5961	1499.2213	1502.8617	1652.2647	1730.2202	3011.1819	3033.5451	3052.5055	3100.5389	3122.7876	3150.0189	3262.721	3853.6748
COC1=CC(O)=C(C)O1	COc1cc(O)c(C)o1	
InChI=1S/C6H8O3/c1-4-5(7)3-6(8-2)9-4/h3,7H,1-2H3	InChI=1S/C6H8O3/c1-4-5(7)3-6(8-2)9-4/h3,7H,1-2H3
