23
gdb 96135	2.46417	1.63041	1.22868	1.5562	84.28	-0.2372	0.0802	0.3174	1132.9441	0.208749	-388.298694	-388.290621	-388.289676	-388.33077	33.143	
C	 0.0016506772	 1.5706790417	 0.0272467332	-0.406722
C	-0.0091863221	 0.0355277293	 0.0345315598	 0.01885
C	 0.5825545763	-0.5009708834	-1.2884851172	-0.17289
C	 0.7890202648	-2.0222417359	-1.3855730544	-0.22455
C	 1.9584676382	-2.571888169	-0.5471922459	-0.199136
C	 1.9592649555	-2.1259274317	 0.9116022994	 0.123355
C	 0.5741092446	-2.0099308683	 1.5794817588	-0.296194
C	 0.7272179112	-0.5050835363	 1.2735469003	 0.123552
O	 2.1463484976	-0.6869015879	 1.0198512818	-0.298088
H	 1.0309747245	 1.9465869784	 0.0317234102	 0.128047
H	-0.4959809332	 1.9682896294	-0.8633150469	 0.108345
H	-0.5081761925	 1.9782139718	 0.9065093156	 0.107562
H	-1.0534281785	-0.3022652211	 0.1149117872	 0.067503
H	-0.0810961286	-0.1818301809	-2.1011864792	 0.086036
H	 1.5443613277	-0.0031647467	-1.4594818531	 0.10612
H	-0.1418673583	-2.5379170757	-1.1162599942	 0.093786
H	 0.9741002287	-2.28304346	-2.4341941414	 0.093697
H	 1.954991721	-3.6693767783	-0.5855180884	 0.090257
H	 2.909992202	-2.2455642077	-0.9864400537	 0.106042
H	 2.7309800317	-2.6591839379	 1.4780705957	 0.071174
H	-0.2616535839	-2.5445474736	 1.125078849	 0.101119
H	 0.6013810336	-2.222829998	 2.6495746242	 0.10424
H	 0.5680928327	 0.1628549918	 2.1283353093	 0.067896
113.1914	217.8024	264.2147	273.5368	308.764	321.2023	366.1729	374.8518	479.6495	553.083	573.2909	736.7604	789.2443	824.6431	851.6218	887.5156	908.7316	931.0724	940.9498	959.5031	976.0276	1015.1508	1032.9374	1050.5984	1076.6691	1097.6207	1124.0353	1150.1695	1159.8964	1202.6055	1234.096	1251.807	1264.3607	1292.5485	1322.0576	1327.9789	1341.8209	1367.7581	1376.4589	1383.6794	1397.889	1401.8547	1414.4437	1465.9007	1480.5256	1488.1362	1498.3784	1502.5804	1510.6661	2992.057	3013.3444	3021.7614	3024.7657	3026.7531	3032.4699	3041.5582	3051.9979	3061.9241	3070.5579	3079.9155	3097.9838	3098.9955	3131.6406
CC1CCCC2CC1O2	C[C@H]1CCC[C@@H]2C[C@H]1O2	
InChI=1S/C8H14O/c1-6-3-2-4-7-5-8(6)9-7/h6-8H,2-5H2,1H3	InChI=1S/C8H14O/c1-6-3-2-4-7-5-8(6)9-7/h6-8H,2-5H2,1H3/t6-,7+,8+/m0/s1
