18
gdb 7304	4.22456	1.08412	0.92452	3.4287	69.66	-0.2509	-0.0251	0.2258	1243.9692	0.149751	-384.97548	-384.965829	-384.964885	-385.011087	32.971	
C	 0.2915258627	 1.4485479447	 0.116742206	-0.408034
C	-0.0478858596	-0.0491961827	-0.0113521618	-0.111125
C	-1.5649086603	-0.28587691	-0.1220596204	-0.269563
C	-2.2469187508	-0.0975699912	 1.2098895788	 0.154317
O	-3.1071783053	 0.710896079	 1.4474331387	-0.242107
C	 0.7017577211	-0.7251905536	-1.169739756	 0.38555
C	 2.2014513955	-0.4954680985	-1.2498122515	-0.479712
O	 0.1302661155	-1.4242434292	-1.9737887526	-0.292893
H	 1.352367297	 1.6130681019	 0.3211286062	 0.123792
H	 0.0316511879	 1.9860648402	-0.8013933285	 0.132752
H	-0.2801887923	 1.8989051233	 0.9330722376	 0.142193
H	 0.3220718441	-0.552827261	 0.8974752887	 0.100771
H	-2.0165301057	 0.3858758312	-0.8571656952	 0.123224
H	-1.7312327522	-1.3161064303	-0.4592096699	 0.138948
H	-1.8772685376	-0.7867416391	 2.008138856	 0.068096
H	 2.4036955134	 0.5096190828	-1.6366085469	 0.151728
H	 2.6736708637	-0.5613786632	-0.264539672	 0.13457
H	 2.641474203	-1.2264131442	-1.9290735672	 0.147494
50.2898	56.1494	67.4824	148.7497	199.2191	218.2283	265.6757	323.0221	359.521	409.9243	514.7617	553.6462	618.6793	747.6633	811.0625	921.264	947.805	967.0934	970.8472	1023.8038	1102.2217	1128.3197	1141.0271	1189.8929	1236.9779	1266.7488	1314.6958	1361.7978	1383.9848	1414.237	1429.9822	1462.7606	1464.8115	1476.9005	1501.7541	1503.4278	1807.6538	1833.7999	2834.8172	2974.3169	3040.4742	3042.4974	3046.2644	3104.0728	3108.5415	3110.5997	3122.675	3153.1284
CC(CC=O)C(C)=O	C[C@@H](CC=O)C(=O)C	
InChI=1S/C6H10O2/c1-5(3-4-7)6(2)8/h4-5H,3H2,1-2H3	InChI=1S/C6H10O2/c1-5(3-4-7)6(2)8/h4-5H,3H2,1-2H3/t5-/m0/s1
