17
gdb 85207	2.61065	1.20927	0.9306	4.9896	70.54	-0.258	-0.0462	0.2118	1257.9113	0.133217	-458.989128	-458.97995	-458.979006	-459.024082	32.128	
C	-0.2973706075	 1.5115398914	 0.0611308641	-0.389213
C	 0.0014819324	 0.0211242605	-0.0686944356	-0.057613
C	 1.3273657898	-0.2890556072	-0.8435061398	-0.352929
C	 2.0035821316	-0.4727027183	 0.5221239315	 0.373567
O	 3.1183274766	-0.380675704	 0.9426697834	-0.285343
C	 0.6293297558	-0.6120186903	 1.2123714356	 0.018898
O	 0.4037981453	 0.0775502315	 2.4265329358	-0.193121
C	 1.086227861	-0.3508707928	 3.5174639341	 0.175882
O	 0.9790580663	 0.1841462879	 4.5776952539	-0.267972
H	 0.577909793	 2.0664906644	 0.414511952	 0.132975
H	-0.5902581259	 1.9229243123	-0.9094935177	 0.121667
H	-1.1072195692	 1.6892858832	 0.7728876657	 0.140806
H	-0.8739658531	-0.5183753944	-0.4338484988	 0.09098
H	 1.2978181774	-1.2224898294	-1.4139922177	 0.137671
H	 1.7380245512	 0.5003150609	-1.4771115827	 0.141031
H	 0.3569070586	-1.672038025	 1.3051687297	 0.115821
H	 1.7258268968	-1.2269675709	 3.3120237964	 0.096895
60.554	71.9299	106.0582	140.5068	228.9646	235.4085	294.6155	357.5318	407.0076	449.7014	574.7433	636.1566	716.5964	771.0003	849.8274	885.0767	904.5206	1002.9467	1032.9651	1036.4695	1082.686	1095.752	1139.1246	1148.3325	1180.827	1204.8542	1244.8936	1277.4162	1354.4296	1363.3642	1418.4124	1434.8593	1443.0627	1493.2303	1497.2283	1867.6731	1897.4896	2990.9153	3019.643	3041.8988	3063.2912	3091.0398	3112.7169	3123.0637	3126.6491
CC1CC(=O)C1OC=O	C[C@H]1CC(=O)[C@H]1OC=O	
InChI=1S/C6H8O3/c1-4-2-5(8)6(4)9-3-7/h3-4,6H,2H2,1H3	InChI=1S/C6H8O3/c1-4-2-5(8)6(4)9-3-7/h3-4,6H,2H2,1H3/t4-,6-/m0/s1
