20
gdb 91099	2.66524	1.66674	1.5134	2.9407	76.86	-0.2177	0.0601	0.2778	981.933	0.173668	-403.110413	-403.103011	-403.102067	-403.141924	30.444	
O	-0.2212584822	 1.3992824344	 0.8150039025	-0.414954
C	-0.0203197314	 0.140075257	 0.2006742565	 0.098848
C	 0.5135739543	-1.0068399894	 1.1123764511	-0.275986
C	-0.8670298582	-1.727571665	 1.011464516	-0.025159
C	-1.8368721782	-1.6309319907	 2.1797307799	-0.038648
C	-1.9776087022	-0.3397516175	 2.9053941592	-0.260459
N	-2.9534827982	-0.7084118379	 1.8725322063	-0.098889
C	-2.6848887127	-0.089774535	 0.5541600128	-0.186256
C	-1.3537962374	-0.641798507	-0.0006075728	-0.035806
H	 0.641907259	 1.7787938976	 1.0091497911	 0.285929
H	 0.5513171254	 0.2624918633	-0.7287958183	 0.068695
H	 1.3378005487	-1.5672646444	 0.6631334715	 0.097267
H	 0.8081996979	-0.6953390898	 2.1173415969	 0.101852
H	-0.8177247179	-2.7525439018	 0.6387920498	 0.068188
H	-2.112641421	-2.5540442844	 2.6826245703	 0.083546
H	-2.3710026336	-0.3345329825	 3.9189744306	 0.105132
H	-1.2787181551	 0.4608712965	 2.6807488925	 0.128256
H	-3.5083710137	-0.3697846075	-0.1101248964	 0.100567
H	-2.6781529666	 0.9999687716	 0.6404827413	 0.124822
H	-1.464829897	-0.9837989474	-1.0314785007	 0.073054
117.9684	203.8498	240.7276	287.2333	367.1338	405.3447	459.2434	517.8234	635.2829	671.9416	701.5792	754.2371	792.0774	833.8484	849.3903	878.6201	927.4851	967.1585	993.9931	1013.0923	1032.7228	1046.0728	1079.0302	1089.2098	1120.8666	1133.717	1146.6894	1175.7242	1194.4346	1212.7595	1239.8109	1251.5909	1257.3293	1280.5209	1316.2784	1327.7424	1338.5698	1343.2459	1385.2048	1414.5525	1470.6789	1494.3612	1515.1384	3002.9729	3048.501	3057.963	3077.3127	3089.2043	3102.9748	3104.3381	3114.6932	3138.947	3195.1778	3815.12
OC1CC2C3CN3CC12	O[C@H]1C[C@H]2[C@H]3CN3C[C@@H]12	
InChI=1S/C7H11NO/c9-7-1-4-5(7)2-8-3-6(4)8/h4-7,9H,1-3H2	InChI=1S/C7H11NO/c9-7-1-4-5(7)2-8-3-6(4)8/h4-7,9H,1-3H2/t4-,5-,6-,7+,8?/m1/s1
