22
gdb 9418	6.40451	0.71928	0.67712	0.4214	76.19	-0.2484	0.0702	0.3186	1728.4387	0.197619	-387.334657	-387.324083	-387.323139	-387.37071	36.794	
C	 0.0135300002	 1.5411553481	 0.1223861701	-0.381366
C	-0.0016430841	 0.0160816891	-0.0012170292	-0.185731
C	 0.7106559571	-0.4951381961	-1.2599276702	 0.132834
O	 2.0666375768	-0.044995453	-1.3127575	-0.429877
C	 0.621432663	-2.0185407418	-1.3977650627	-0.220898
C	 1.2615165478	-2.539835325	-2.6776566534	-0.052017
O	 1.1479609128	-3.9476238232	-2.6928570398	-0.232659
C	 1.7239044343	-4.5280054752	-3.8366599241	-0.226469
H	 1.0386368538	 1.9195293575	 0.0941371994	 0.126903
H	-0.5337543546	 2.007739173	-0.7042244649	 0.113762
H	-0.4511659415	 1.8683558034	 1.0572533986	 0.108862
H	 0.4783223732	-0.4371724986	 0.8788657882	 0.085144
H	-1.0346335832	-0.3534669539	-0.0061570068	 0.097486
H	 0.2446473383	-0.0295497552	-2.139388478	 0.085076
H	 2.5259385244	-0.4255790294	-0.5549799375	 0.276207
H	 1.1102055738	-2.4956446066	-0.5368717155	 0.093964
H	-0.4291724969	-2.3302226703	-1.3711260872	 0.105283
H	 0.759328098	-2.1047522368	-3.5600932794	 0.080934
H	 2.3173431839	-2.232135533	-2.7266711752	 0.095815
H	 1.2381842152	-4.179764069	-4.7626813354	 0.101311
H	 2.8000831902	-4.3034735853	-3.9133304724	 0.101666
H	 1.5944815075	-5.6104315986	-3.7575116345	 0.123771
61.8074	74.6159	100.6157	124.1104	143.1846	219.1548	233.9834	248.8458	295.9993	319.3119	336.0621	449.7441	493.761	555.7439	776.6025	801.0228	870.439	953.3498	989.0762	1006.8732	1028.8718	1070.2101	1098.3634	1120.4782	1145.4947	1167.2005	1180.353	1222.906	1229.2506	1264.7221	1285.9849	1299.0819	1347.6746	1360.9399	1392.3894	1406.3439	1418.4943	1428.5517	1476.8543	1480.696	1485.0496	1488.7995	1495.3004	1506.3512	1509.5801	1534.2892	2946.4859	2966.5085	3000.3542	3000.8765	3007.2313	3013.4568	3026.7742	3037.4425	3051.2825	3073.2421	3101.8447	3109.8899	3122.1887	3788.7877
CCC(O)CCOC	CC[C@@H](O)CCOC	
InChI=1S/C6H14O2/c1-3-6(7)4-5-8-2/h6-7H,3-5H2,1-2H3	InChI=1S/C6H14O2/c1-3-6(7)4-5-8-2/h6-7H,3-5H2,1-2H3/t6-/m1/s1
