21
gdb 85936	2.62111	1.23373	1.07408	2.8407	73.47	-0.2466	0.0469	0.2935	1220.5835	0.18164	-461.374155	-461.36474	-461.363796	-461.407817	37.137	
C	 0.0483383376	 1.5147370709	 0.0554771126	-0.44382
C	 0.0805543545	-0.0115375804	-0.0040621427	 0.386625
O	-1.2596232355	-0.5267222646	-0.0410542635	-0.472575
C	 0.8893033469	-0.5871776739	-1.182611909	-0.289839
C	 1.1733523536	-2.0362818593	-0.7447992641	 0.13431
O	 2.1570116753	-2.713963703	-1.4855034415	-0.445576
C	 1.5561171805	-1.8740327659	 0.7492908145	 0.088402
O	 2.9726616115	-1.6691385344	 0.8578220325	-0.449282
C	 0.7261396989	-0.6723019352	 1.2462778685	-0.272163
H	 1.0571274435	 1.93425552	 0.1280924181	 0.107287
H	-0.4194212162	 1.9300872871	-0.8452071808	 0.107417
H	-0.5308930631	 1.8482567872	 0.9218277715	 0.125996
H	-1.6710017313	-0.2140456721	-0.8543695258	 0.275281
H	 0.3551814187	-0.5186922339	-2.1352037115	 0.092366
H	 1.8374518121	-0.0460250682	-1.3045653407	 0.080523
H	 0.2425284744	-2.6089521748	-0.8133350096	 0.094018
H	 2.9844010715	-2.5567597015	-1.0076266875	 0.279103
H	 1.3709772413	-2.7878008758	 1.3176721167	 0.093441
H	 3.1657933463	-0.7529920522	 0.6313349957	 0.2832
H	 1.3723603734	 0.0274963029	 1.7860856514	 0.098061
H	-0.0671836841	-0.9734349729	 1.9334388952	 0.127225
67.4294	133.7102	244.0519	276.5015	288.5818	306.8209	314.7178	335.9781	361.085	397.3205	416.1059	500.0644	532.5432	560.2546	609.7956	667.542	793.9295	822.3696	862.5783	903.1617	933.8895	960.8297	1001.5358	1020.128	1053.8076	1100.1246	1117.2973	1143.2768	1146.9325	1181.2853	1239.6546	1253.6191	1281.944	1288.1965	1314.6377	1327.4392	1373.5182	1385.6775	1408.7972	1425.02	1443.0873	1473.0014	1485.2119	1491.863	1494.5793	3018.521	3026.4075	3056.3383	3057.8879	3084.0607	3091.7812	3092.1685	3110.4406	3117.2647	3723.8365	3802.4488	3809.5723
CC1(O)CC(O)C(O)C1	C[C@@]1(O)C[C@@H](O)[C@@H](O)C1	
InChI=1S/C6H12O3/c1-6(9)2-4(7)5(8)3-6/h4-5,7-9H,2-3H2,1H3	InChI=1S/C6H12O3/c1-6(9)2-4(7)5(8)3-6/h4-5,7-9H,2-3H2,1H3/t4-,5+,6-
