18
gdb 33858	3.95074	1.27409	1.13952	4.4311	79.7	-0.2631	0.027	0.2902	1094.183	0.150114	-364.812571	-364.805286	-364.804342	-364.844113	29.413	
N	-0.0090770501	-1.1141937001	-0.1520743139	-0.352814
C	-0.0150680969	 0.0413348549	-0.0791030927	 0.202968
C	-0.0261827455	 1.4718328223	 0.0200796549	 0.189266
C	 0.4359621637	 2.275255446	-1.1861633775	-0.328322
C	 1.2808869062	 2.2803451479	 0.0529556821	-0.075499
C	 1.1264585503	 3.3710812154	 1.0906642781	-0.033791
C	 0.1334408267	 4.4872708066	 0.869831176	-0.302143
C	-0.2687099721	 3.2818392761	 1.6804278502	-0.028713
C	-1.0103359581	 2.1179340188	 1.0152200977	-0.316386
H	 0.8003424775	 1.7033323894	-2.0319520525	 0.136575
H	-0.1390262791	 3.1518307672	-1.4589746313	 0.126041
H	 2.2302660932	 1.7601048196	 0.0148768178	 0.11252
H	 1.9882175986	 3.565948728	 1.7176801197	 0.094554
H	 0.3044451886	 5.4088380294	 1.4161023257	 0.117532
H	-0.2934907131	 4.644104988	-0.1142199689	 0.115322
H	-0.4317333908	 3.4240813351	 2.7428658589	 0.09525
H	-1.9374333228	 2.4281186763	 0.521449826	 0.118652
H	-1.2837488662	 1.3777149289	 1.7721763297	 0.128987
124.6279	154.8468	247.9754	273.4673	409.0789	445.4087	531.8123	552.7379	586.0731	661.4256	706.552	767.686	803.4233	838.7315	850.1815	893.5684	934.9059	951.1001	970.966	1008.596	1048.6797	1055.9665	1064.9729	1087.8681	1092.0854	1109.8187	1128.1661	1187.9418	1222.3676	1246.931	1262.4354	1323.3747	1345.6056	1375.635	1396.3734	1478.5974	1488.441	1507.6403	2343.8019	3050.5856	3095.7314	3134.2585	3146.2404	3168.2512	3178.0339	3192.4093	3215.0659	3232.1619
N#CC12CC1C1CC1C2	N#C[C@]12C[C@H]1[C@H]1C[C@H]1C2	
InChI=1S/C8H9N/c9-4-8-2-5-1-6(5)7(8)3-8/h5-7H,1-3H2	InChI=1S/C8H9N/c9-4-8-2-5-1-6(5)7(8)3-8/h5-7H,1-3H2/t5-,6-,7-,8-/m0/s1
