20
gdb 97053	3.7237	1.00168	0.96335	3.0912	78.45	-0.242	0.0336	0.2756	1329.7089	0.169395	-440.306087	-440.296367	-440.295423	-440.341125	35.594	
C	 0.0338122134	 1.2344289248	-0.4306957732	-0.334327
N	-0.0819682553	-0.1157764098	 0.0966805918	-0.332383
C	-1.2029996591	-0.6846514029	 0.1259747065	 0.441678
C	-1.4767631624	-2.0703113508	 0.6626749797	-0.353722
C	-2.8225169148	-2.4490284745	 0.0287163356	 0.365792
C	-2.6521013858	-3.1306739877	-1.3298123944	-0.443757
O	-3.5430978879	-3.2743576598	 0.9313470358	-0.475122
C	-3.4621915605	-1.0454520952	-0.1101325548	-0.130515
O	-2.3802936135	-0.1394782241	-0.341867317	-0.249298
H	 0.709813688	 1.2244388515	-1.2938182591	 0.122115
H	-0.9159413874	 1.6880385611	-0.7345362887	 0.121616
H	 0.5024067475	 1.872617541	 0.3271196313	 0.123253
H	-0.6598294074	-2.756165786	 0.4375758732	 0.130152
H	-1.6013886258	-2.0330058255	 1.7505178026	 0.137758
H	-2.1214344317	-4.0799683103	-1.2149523441	 0.131221
H	-3.6278939528	-3.3310694808	-1.7894673261	 0.108398
H	-2.0864859196	-2.497068092	-2.0200089707	 0.138699
H	-4.298135395	-3.646893939	 0.4640143397	 0.279335
H	-4.1619272819	-0.9562067636	-0.9464610793	 0.105692
H	-3.9787566581	-0.7891902065	 0.8229830211	 0.113414
40.5529	72.5045	154.3997	213.266	229.6119	265.11	269.1232	314.6305	341.8283	389.6134	439.8326	509.3053	586.7742	612.2704	684.375	796.3029	831.5926	927.2247	942.6948	974.8566	988.3695	1034.7864	1071.8655	1106.5048	1129.172	1136.5835	1146.7067	1197.9792	1199.5588	1229.6065	1279.5623	1305.225	1357.3168	1404.0635	1411.1042	1438.3923	1468.5617	1492.8061	1495.2974	1497.0546	1497.4468	1522.1504	1808.918	3017.1789	3024.9844	3029.4856	3057.5874	3074.313	3089.1278	3089.544	3095.0352	3119.7735	3132.8278	3810.9297
CN=C1CC(C)(O)CO1	CN=C1C[C@@](C)(O)CO1	
InChI=1S/C6H11NO2/c1-6(8)3-5(7-2)9-4-6/h8H,3-4H2,1-2H3	InChI=1S/C6H11NO2/c1-6(8)3-5(7-2)9-4-6/h8H,3-4H2,1-2H3/t6-/m1/s1
