21
gdb 89514	2.2957	1.73282	1.29558	2.5544	77.43	-0.2367	0.0683	0.305	1074.4282	0.183042	-424.22124	-424.212674	-424.21173	-424.254143	33.673	
C	-0.0131012671	 1.6019913525	-0.1822078729	-0.484597
C	-0.0084784114	 0.0934825518	 0.0146288454	 0.33478
C	-1.3456212256	-0.5232017213	 0.5442014193	-0.334262
C	-0.6235426901	-1.0102682689	 1.8337405134	 0.103065
O	-0.5966035798	-2.3966393382	 2.079796672	-0.420684
C	 0.7360000131	-0.4794088611	 1.2725922733	 0.058643
O	 1.6547344003	-1.4524583692	 0.8407302476	-0.244318
C	 1.233860325	-1.9237435844	-0.4385873317	-0.091009
C	 0.6340469835	-0.6954259835	-1.1403247505	-0.278682
H	 1.0015117205	 1.9809947286	-0.3484821307	 0.117975
H	-0.621882575	 1.8863704347	-1.0484800733	 0.116193
H	-0.4252982572	 2.1197412311	 0.6912120331	 0.111074
H	-2.1518929342	 0.1981061843	 0.7042439242	 0.094162
H	-1.7278382448	-1.3484661039	-0.064168738	 0.093986
H	-0.938677539	-0.4530069998	 2.7277919122	 0.06269
H	-1.4858874825	-2.6701594086	 2.3270366127	 0.283432
H	 1.2655580327	 0.2175502298	 1.9275371907	 0.071206
H	 2.1103127188	-2.3352918538	-0.9460277748	 0.104458
H	 0.4890184213	-2.7222146863	-0.3203859207	 0.104315
H	-0.0840365506	-0.9623474053	-1.9217736515	 0.097583
H	 1.4307794522	-0.1003246088	-1.5997548297	 0.099992
66.5801	200.0228	228.3066	247.6937	269.4678	274.5171	307.1542	377.8332	428.612	535.7785	564.3756	638.345	684.2901	792.2456	829.3633	856.9068	901.2044	913.8369	936.6902	959.1414	979.6637	993.5895	1037.9522	1081.9764	1112.7211	1149.911	1172.3166	1176.4895	1206.9808	1229.0044	1242.426	1251.9764	1257.3437	1278.1958	1320.3084	1340.0881	1357.891	1392.823	1410.493	1418.0276	1470.157	1484.1234	1493.5259	1496.8232	1519.2288	2986.7388	3016.6046	3019.5718	3041.2098	3045.6036	3072.7274	3084.3961	3087.395	3090.8805	3098.2904	3102.7281	3813.6781
CC12CC(O)C1OCC2	C[C@]12C[C@@H](O)[C@H]1OCC2	
InChI=1S/C7H12O2/c1-7-2-3-9-6(7)5(8)4-7/h5-6,8H,2-4H2,1H3	InChI=1S/C7H12O2/c1-7-2-3-9-6(7)5(8)4-7/h5-6,8H,2-4H2,1H3/t5-,6-,7+/m1/s1
