20
gdb 17858	4.058	1.71287	1.49939	0.0963	80.03	-0.2568	0.0958	0.3526	938.748	0.177901	-311.802139	-311.794828	-311.793884	-311.833301	29.404	
C	-0.0563059354	 1.5356055731	-0.0396614849	-0.403545
C	 0.0034178708	 0.0238763277	 0.0219050326	-0.119302
C	 1.3376359168	-0.6947689128	-0.2073105133	-0.406642
C	 0.6909436777	-0.6853841954	 1.1360180973	 0.48444
C	 1.1832904621	-0.2347123214	 2.5278325338	-0.124598
C	-0.2029692408	-0.7015667316	 3.0702586352	-0.213819
C	 0.2557625408	-1.8200710717	 2.0842951273	-0.127193
C	 1.6707513303	-1.7030359657	 2.7299515351	-0.214157
H	 0.8396017805	 1.9819024071	 0.4046693816	 0.112543
H	-0.1249016499	 1.8899536439	-1.07442564	 0.114708
H	-0.9237217071	 1.9264955615	 0.504181445	 0.114979
H	-0.8658061122	-0.4779691278	-0.3997483389	 0.079285
H	 1.3336401964	-1.6106217806	-0.7909823428	 0.106231
H	 2.213259729	-0.0714734781	-0.3683752612	 0.105965
H	 1.720088688	 0.6804465709	 2.7814403372	 0.068807
H	-0.2415647861	-0.974754862	 4.1287270919	 0.084904
H	-1.0723684178	-0.1108069975	 2.7723479061	 0.091944
H	-0.2807703945	-2.7331453364	 1.8214046335	 0.067798
H	 2.5167625344	-2.0270597007	 2.1195909991	 0.093063
H	 1.7609708472	-2.0440608025	 3.7653575351	 0.08459
149.2142	162.8667	190.8399	253.3403	368.8954	409.8168	480.7144	604.8309	613.1005	768.4564	794.72	816.5728	864.9351	890.0191	895.4433	901.1335	951.6852	984.2503	1015.7925	1019.9564	1037.2598	1055.4245	1069.5784	1096.9487	1108.9856	1122.1326	1134.1339	1161.0551	1176.6163	1189.2214	1195.4018	1229.6768	1245.3715	1251.8654	1341.0806	1412.1539	1435.2264	1490.8024	1492.0357	1494.8704	1509.7041	1536.2768	3023.8648	3048.1241	3051.2209	3084.452	3091.2942	3098.3824	3104.4073	3111.7678	3117.2139	3120.613	3121.5341	3194.2298
CC1CC11C2CC1C2	C[C@H]1C[C@]21[C@H]1C[C@@H]2C1	
InChI=1S/C8H12/c1-5-4-8(5)6-2-7(8)3-6/h5-7H,2-4H2,1H3	InChI=1S/C8H12/c1-5-4-8(5)6-2-7(8)3-6/h5-7H,2-4H2,1H3/t5-,6-,7+,8-/m0/s1
