21
gdb 115520	2.34115	1.1294	1.00129	1.434	85.02	-0.253	0.0497	0.3027	1321.6771	0.180245	-387.042912	-387.03283	-387.031886	-387.077665	37.841	
C	-0.06430548	 1.5654255034	-0.0910315535	-0.445416
C	-0.0187856388	 0.0295950936	-0.0086400768	 0.104224
C	 1.1561901727	-0.5598103051	-0.8699786984	-0.253789
C	 2.0272290836	-0.6460424361	 0.4092445125	-0.237464
C	 0.7360992891	-0.5338559155	 1.257557347	 0.03163
C	 0.7478829859	 0.2616101654	 2.5467325947	-0.112778
O	 1.5453968492	-0.4605739728	 3.4766393057	-0.422404
C	-1.3386772795	-0.5309480467	-0.2472797356	 0.269558
C	-2.429004433	-1.0021276416	-0.4405676669	-0.457242
H	 0.9302801133	 1.9982088654	 0.0530232497	 0.115265
H	-0.4271658934	 1.8729278351	-1.0762238073	 0.12538
H	-0.7377799712	 1.9869069568	 0.660815779	 0.124042
H	 0.9023491654	-1.5446271183	-1.267078716	 0.112698
H	 1.5075872666	 0.0726645172	-1.6891202719	 0.099472
H	 2.6317123427	-1.5437278093	 0.5455721973	 0.106944
H	 2.6761162288	 0.226249106	 0.532742543	 0.099898
H	 0.3495270317	-1.5329619608	 1.4780476896	 0.091915
H	 1.1599994247	 1.2679578844	 2.3746871503	 0.081385
H	-0.2837580019	 0.3857998611	 2.9155782911	 0.091356
H	 1.5932198329	 0.0493190433	 4.2905675949	 0.286468
H	-3.3891549689	-1.4212204356	-0.6128408282	 0.188859
72.0828	110.247	150.1525	163.6053	196.1296	254.0155	268.1449	293.6067	341.8551	380.0056	438.7375	524.2981	571.0298	574.445	617.2071	620.8428	739.3999	798.505	893.9763	909.9725	914.1462	939.6585	966.6638	1008.7779	1061.4469	1105.7928	1122.1597	1159.4374	1169.8305	1202.5098	1225.3811	1253.7531	1259.3093	1263.347	1283.3676	1313.258	1373.6804	1405.7799	1462.1421	1481.9031	1492.5087	1496.5755	1500.6722	1521.1254	2226.9927	2962.2966	2995.2977	3037.8792	3058.0954	3065.8531	3072.192	3110.651	3112.2873	3114.975	3130.0701	3502.4371	3828.0901
CC1(CCC1CO)C#C	C[C@]1(CC[C@H]1CO)C#C	
InChI=1S/C8H12O/c1-3-8(2)5-4-7(8)6-9/h1,7,9H,4-6H2,2H3	InChI=1S/C8H12O/c1-3-8(2)5-4-7(8)6-9/h1,7,9H,4-6H2,2H3/t7-,8+/m0/s1
