21
gdb 121276	3.99486	0.86114	0.77415	2.9141	78.06	-0.2556	0.0792	0.3348	1502.5124	0.183167	-424.21743	-424.208517	-424.207573	-424.251591	33.414	
O	-0.1226025964	 1.476124161	-0.0510342808	-0.420493
C	 0.0075431681	 0.0655029268	 0.044400094	-0.076978
C	-1.3918925354	-0.5347869079	-0.0052120655	-0.184555
C	-1.4045050538	-2.0668560181	 0.0105998525	-0.008715
C	-0.8366675332	-2.7129343473	 1.3054313761	-0.227064
C	-1.5674262747	-4.0682436713	 1.4662377096	-0.249733
C	-2.8986876979	-3.8424495365	 0.7779677145	 0.050035
O	-3.5332916581	-2.6081009448	 1.1477130539	-0.264616
C	-2.7999271103	-2.6626826245	-0.0862096715	 0.03697
H	 0.7540184484	 1.8647571005	 0.0193149553	 0.284513
H	 0.6123659103	-0.33548284	-0.786971602	 0.079626
H	 0.5109314278	-0.2232862577	 0.9804479682	 0.087759
H	-1.974687097	-0.1569319288	 0.8426848324	 0.118832
H	-1.8836469004	-0.1680603877	-0.9147025745	 0.101314
H	-0.8405690673	-2.4368953461	-0.8592892425	 0.06941
H	 0.2491840395	-2.8300984443	 1.2724107581	 0.096863
H	-1.0708837403	-2.0688971713	 2.1572995922	 0.117821
H	-1.0356817578	-4.8761449817	 0.9479268946	 0.10127
H	-1.6737485893	-4.3668284902	 2.5138027274	 0.108708
H	-3.5746769606	-4.6693493551	 0.5739843714	 0.090342
H	-3.3961099214	-2.5329071952	-0.9870369035	 0.088691
75.1951	98.2757	114.5778	179.4691	260.0885	267.0347	334.6867	363.5496	396.0738	548.0873	660.2756	674.5275	788.6749	822.5047	839.615	865.5134	879.0863	932.0713	963.3929	997.6813	1008.0754	1029.649	1058.117	1072.8793	1092.0022	1112.4965	1142.8438	1190.2189	1219.8403	1234.5519	1243.0008	1261.7133	1302.1382	1305.1987	1317.6924	1327.5232	1333.9174	1357.2948	1383.9453	1439.0363	1464.0779	1481.1983	1491.7388	1498.405	1527.1518	2953.4757	2988.8104	2991.3897	3032.6794	3033.3345	3063.5502	3079.081	3082.189	3109.9045	3132.7974	3148.1774	3830.7227
OCCC1CCC2OC12	OCC[C@H]1CC[C@H]2O[C@@H]12	
InChI=1S/C7H12O2/c8-4-3-5-1-2-6-7(5)9-6/h5-8H,1-4H2	InChI=1S/C7H12O2/c8-4-3-5-1-2-6-7(5)9-6/h5-8H,1-4H2/t5-,6-,7+/m1/s1
