15
gdb 45987	3.3525	1.3249	1.0045	2.8415	71.2	-0.2413	-0.044	0.1973	1110.3802	0.115524	-454.017481	-454.009936	-454.008992	-454.049797	28.476	
O	-0.1680920093	 0.0191762775	-0.656696614	-0.339756
C	-0.0998037761	 1.1596232427	-0.2574908713	 0.413724
C	-1.2780108487	 1.92720601	 0.3307955814	-0.29462
N	-1.5365904252	 3.1823107057	-0.3490147738	-0.330338
C	-0.810328413	 4.3374317626	-0.1628862497	 0.377494
O	-1.272140762	 5.4327375429	-0.4352978318	-0.37596
C	 0.578012461	 4.1829099599	 0.3201961424	-0.197755
C	 1.3936110656	 3.1214002286	 0.199597818	 0.012641
N	 1.1065446775	 1.8429902012	-0.2542805044	-0.325784
H	-2.1480276571	 1.2800068098	 0.2280486571	 0.149796
H	-1.090884681	 2.0827461225	 1.4036823861	 0.136474
H	-2.4730368219	 3.346255386	-0.6875929963	 0.255539
H	 1.0139255451	 5.1063520931	 0.6800441808	 0.123408
H	 2.4403603763	 3.2384514011	 0.4652498135	 0.130643
H	 1.8862841387	 1.2617051863	-0.529341968	 0.264493
78.892	141.921	212.7209	322.6636	350.5683	390.6902	435.6467	533.5905	547.5242	569.6975	648.9931	711.2163	736.7681	777.5838	825.6603	869.9574	902.1855	985.0785	993.117	1069.4781	1143.9201	1233.1694	1272.7327	1302.4087	1376.3793	1390.5797	1440.8441	1447.4899	1476.8317	1493.3389	1690.1285	1769.0151	1812.2801	2999.7986	3145.6976	3169.8288	3217.9359	3602.7655	3620.2026
O=C1CNC(=O)C=CN1	O=C1CNC(=O)C=CN1	
InChI=1S/C5H6N2O2/c8-4-1-2-6-5(9)3-7-4/h1-2H,3H2,(H,6,9)(H,7,8)	InChI=1S/C5H6N2O2/c8-4-1-2-6-5(9)3-7-4/h1-2H,3H2,(H,6,9)(H,7,8)
