18
gdb 31122	2.25446	1.57521	0.95793	1.373	75.26	-0.1768	0.0554	0.2321	1206.1488	0.148107	-439.122595	-439.113549	-439.112605	-439.156108	34.015	
C	-0.2406409851	 1.574483553	-0.1387784941	-0.505972
C	-0.0796813028	 0.0868709055	-0.0518045273	 0.178858
C	-0.0901180749	-0.7935324172	-1.1035327465	-0.187055
N	 0.0787742453	-2.0759372422	-0.5984096273	-0.319326
C	 0.1923360603	-2.005244888	 0.7550953898	 0.338771
O	 0.3822310513	-3.1302758425	 1.4784844909	-0.440274
C	 0.0991433277	-0.686301729	 1.1484132292	 0.010604
C	 0.1597843015	-0.2585613601	 2.5798253965	-0.203364
O	 1.0367367906	-1.1135389065	 3.3475939467	-0.422367
H	 0.602118163	 2.105754955	 0.3213197314	 0.117158
H	-0.3015738251	 1.8998053635	-1.1814081084	 0.119568
H	-1.1490889408	 1.9236809264	 0.3675654725	 0.12125
H	-0.2054877258	-0.6260886803	-2.1617630178	 0.113077
H	 0.1508198056	-2.9255237489	-1.1299218199	 0.262866
H	 0.5935996592	-2.8185068548	 2.3759055063	 0.303472
H	 0.4709820261	 0.7913279584	 2.6708604767	 0.105059
H	-0.8063005841	-0.3484689287	 3.0921775687	 0.12065
H	 1.920726208	-1.0018412636	 2.9781648827	 0.287025
97.53	139.3116	164.1674	196.523	236.1904	275.0559	309.4685	382.2262	447.0933	449.7449	502.8658	580.3962	622.3713	653.4111	691.9592	694.708	753.3139	780.4519	961.5511	993.9797	1000.9212	1062.7173	1080.5046	1086.9313	1194.9332	1196.9329	1257.8759	1292.0539	1355.1667	1397.4354	1398.6576	1416.2981	1428.8197	1482.3798	1496.5369	1510.2349	1577.4162	1584.959	1643.0346	3005.1075	3016.2229	3040.4701	3059.0776	3102.1335	3266.2014	3646.5841	3687.7434	3791.9409
CC1=CNC(O)=C1CO	Cc1c[nH]c(O)c1CO	
InChI=1S/C6H9NO2/c1-4-2-7-6(9)5(4)3-8/h2,7-9H,3H2,1H3	InChI=1S/C6H9NO2/c1-4-2-7-6(9)5(4)3-8/h2,7-9H,3H2,1H3
