16
gdb 31420	3.99655	1.1729	0.91199	4.1414	79.19	-0.2007	-0.031	0.1697	1232.3343	0.126409	-434.106257	-434.098274	-434.097329	-434.13905	29.638	
C	-0.0218572563	 1.415058875	 0.0083450712	-0.23038
O	-0.0340361843	-0.0119276501	 0.0050361594	-0.262234
C	-1.2209451475	-0.6404759786	 0.0125706194	 0.454086
C	-1.2395283312	-2.0037079024	 0.009505319	-0.264267
C	-2.4869566677	-2.7208392978	 0.017292766	 0.382017
N	-2.5898716833	-3.9991520675	 0.0150528417	-0.565539
N	-3.5984447411	-1.8305257433	 0.0278323328	-0.354559
C	-3.4740492562	-0.4849474726	 0.0300669222	 0.100312
N	-2.3488567579	 0.1513808969	 0.0230181979	-0.360777
H	 1.0335589069	 1.691179272	 0.0007735238	 0.130863
H	-0.5218308729	 1.8208893531	-0.8753069532	 0.133938
H	-0.5079521185	 1.8166388627	 0.9016374231	 0.133925
H	-0.3223614442	-2.5749755588	 0.001193739	 0.119019
H	-3.5635740878	-4.3040939162	 0.0217265782	 0.190448
H	-4.5226868156	-2.2369659483	 0.0338986214	 0.257217
H	-4.4060707224	 0.0758179059	 0.0384749781	 0.135932
81.3417	153.5036	170.8846	207.1954	236.5456	394.393	429.6255	471.398	551.6072	615.314	625.8926	684.1354	747.8126	776.8928	787.8201	868.1256	908.4874	960.3618	984.2705	1048.1851	1118.2398	1176.1008	1180.8905	1209.305	1256.1392	1311.305	1374.1054	1427.449	1465.9405	1483.3814	1491.3986	1499.4081	1606.525	1664.8537	1735.4836	3043.8931	3116.132	3145.7364	3160.3455	3239.8295	3464.9514	3611.9755
COC1=CC(=N)NC=N1	CO[C@H]1C=C([NH])NC=N1	
InChI=1S/C5H7N3O/c1-9-5-2-4(6)7-3-8-5/h2-3H,1H3,(H2,6,7,8)	InChI=1S/C5H8N3O/c1-9-5-2-4(6)7-3-8-5/h2-3,5-6H,1H3,(H,7,8)/t5-/m0/s1
