19
gdb 107270	3.2833	1.46468	1.30717	2.4859	74.29	-0.2384	0.088	0.3265	1043.4883	0.159875	-422.95375	-422.946177	-422.945233	-422.985739	30.196	
C	 0.1724811333	 1.2932326859	-0.1781136733	-0.253558
O	-0.1768431725	-0.019935286	 0.2213557582	-0.28115
C	 0.6146291494	-0.514424769	 1.2440637971	 0.477067
C	 1.9943886053	-1.0532258426	 0.9553279843	-0.376494
C	 0.8815921113	-1.9911125148	 1.3912260827	-0.138371
C	 0.531053145	-2.1276288124	 2.8878696788	 0.066729
C	 1.2250773701	-0.9419000607	 3.59583558	-0.244159
C	 0.1897589566	-0.2204019524	 2.7052210391	-0.015191
O	-0.7182688063	-1.3496150935	 2.9662416887	-0.296459
H	 1.2075566019	 1.3422658456	-0.544929125	 0.108671
H	-0.5079059255	 1.5715952153	-0.9859553666	 0.128762
H	 0.0609181924	 2.0160367308	 0.642938171	 0.107158
H	 2.2320055847	-1.1121506352	-0.1032089111	 0.119448
H	 2.8527785345	-0.8461757068	 1.5833521691	 0.113515
H	 0.4798148583	-2.7077142689	 0.6862171897	 0.108819
H	 0.4560888613	-3.1259362942	 3.3172113397	 0.082019
H	 0.9285798121	-0.8938021993	 4.6431169853	 0.116067
H	 2.2942282353	-0.759117206	 3.485802717	 0.096724
H	-0.2389259373	 0.7551577342	 2.9321075353	 0.080401
98.2221	164.1443	170.6498	304.2788	346.7256	409.8868	469.3809	511.9598	617.0671	640.0243	708.5406	768.5876	846.3939	860.015	862.6433	898.7886	928.6798	957.8623	986.3918	1009.1911	1021.2153	1036.2313	1074.5976	1082.9111	1094.55	1108.5879	1178.3303	1182.3256	1199.1106	1225.3918	1234.6367	1257.7195	1283.3642	1295.5983	1305.1613	1377.7329	1471.2212	1486.5151	1489.168	1505.7359	1514.6462	2988.6769	3040.3661	3087.8082	3121.1499	3128.6297	3129.283	3132.5352	3152.2701	3198.8864	3213.3186
COC12CC1C1CC2O1	CO[C@]12C[C@H]1[C@H]1C[C@@H]2O1	
InChI=1S/C7H10O2/c1-8-7-3-4(7)5-2-6(7)9-5/h4-6H,2-3H2,1H3	InChI=1S/C7H10O2/c1-8-7-3-4(7)5-2-6(7)9-5/h4-6H,2-3H2,1H3/t4-,5+,6-,7+/m0/s1
