16
gdb 69207	2.67814	1.66181	1.1989	2.8836	71.28	-0.2749	-0.0228	0.252	1032.3511	0.124812	-437.937223	-437.929476	-437.928532	-437.969383	29.502	
C	-0.0189807073	 1.5330220354	 0.0049372291	-0.482507
C	 0.0688919332	 0.0290680211	 0.036208942	 0.166023
C	-0.8132718055	-0.8173860291	 0.9307774719	-0.323524
C	 0.6840439455	-0.8215870965	 1.1323609455	-0.166254
C	 1.3930905991	-1.9236484303	 0.4373348912	 0.422594
N	 2.1751561283	-2.7650993915	 0.9466052272	-0.530694
O	 1.0725745306	-1.8761367051	-0.9187581954	-0.232538
C	 0.4281364586	-0.6842157582	-1.232180605	 0.409855
O	 0.2456997363	-0.3490046794	-2.3615263289	-0.324495
H	 0.9359720413	 1.9800153121	-0.2869189174	 0.138184
H	-0.7736724915	 1.8518377916	-0.7194145606	 0.150426
H	-0.2956595534	 1.9255071629	 0.987137	 0.124684
H	-1.3936770019	-0.271953797	 1.6664599646	 0.136467
H	-1.296904971	-1.7031980602	 0.5343727217	 0.144242
H	 1.1171651274	-0.4166403389	 2.0362998456	 0.12963
H	 2.5401395803	-3.4029582371	 0.2375582885	 0.237908
133.6298	147.6615	175.4785	247.7169	295.6627	345.19	392.7949	519.8736	554.8698	633.8847	686.8879	742.7166	782.6571	810.7993	863.795	885.3002	910.8648	954.3688	986.2409	1024.6655	1038.1716	1079.7188	1103.7192	1107.7475	1121.223	1248.4219	1305.748	1336.3089	1394.1696	1422.4557	1484.4911	1491.3656	1499.1263	1793.7857	1907.3523	3045.6146	3115.3988	3123.0972	3138.7169	3220.6013	3230.7734	3483.0321
CC12CC1C(=N)OC2=O	C[C@]12C[C@H]1[C]([NH])OC2=O	
InChI=1S/C6H7NO2/c1-6-2-3(6)4(7)9-5(6)8/h3,7H,2H2,1H3	InChI=1S/C6H7NO2/c1-6-2-3(6)4(7)9-5(6)8/h3,7H,2H2,1H3/t3-,6-/m0/s1
