22
gdb 100725	2.75562	1.00979	0.78444	6.3528	78.81	-0.245	0.0318	0.2768	1493.8976	0.19371	-441.532616	-441.522376	-441.521432	-441.568016	37.986	
C	-0.1039032854	 1.6144772048	 0.0345914415	-0.399539
C	-0.1020355158	 0.0846726883	-0.0534465217	-0.179112
C	 0.7093194495	-0.4697951067	-1.2377115273	 0.012916
N	 2.1221005249	-0.0170144693	-1.2314247405	-0.53057
H	 2.5402406158	-0.1886530449	-0.3198287162	 0.239985
H	 2.6008755752	-1.1412102704	-2.4373011102	 0.314492
H	 2.1864391777	 0.9802957295	-1.4053370722	 0.249039
C	 0.69803357	-2.0207004572	-1.3200893277	-0.139605
C	-0.6926334422	-2.6412768067	-1.1499070756	-0.39993
C	 1.3468527473	-2.5560962757	-2.6245433412	 0.410764
O	 2.4454481912	-1.9195090776	-3.0389860556	-0.381529
O	 0.9062898198	-3.5074914317	-3.2184228406	-0.336008
H	 0.8981180361	 2.0204150717	 0.2087296806	 0.107009
H	-0.4924058691	 2.0640197454	-0.8864720339	 0.121763
H	-0.7370420049	 1.9537834083	 0.8592623062	 0.125804
H	 0.293367766	-0.3425963686	 0.8794444517	 0.094453
H	-1.1355372623	-0.2634444813	-0.1361455357	 0.117656
H	 0.2720646085	-0.076750584	-2.1660262339	 0.100609
H	 1.3418242434	-2.3848290977	-0.5028142149	 0.09522
H	-0.6424426451	-3.7066967475	-1.3745301053	 0.147965
H	-1.0721731849	-2.5104415574	-0.1340738895	 0.107996
H	-1.4105661258	-2.1973641412	-1.847933918	 0.120621
56.6513	91.2823	108.4431	188.6506	214.9046	237.8937	288.7174	333.5715	347.3499	359.6472	385.8038	436.9813	483.4213	537.9025	616.9605	723.5137	784.6535	829.4936	847.0046	902.6094	955.8068	990.7584	1001.0478	1034.0203	1062.0929	1071.8728	1110.6296	1133.467	1151.0531	1212.0111	1247.7441	1271.546	1323.2186	1337.4898	1346.9508	1382.6664	1401.8932	1411.8766	1417.9283	1482.4491	1496.8273	1500.6828	1502.3828	1508.7808	1514.9388	1646.1236	1844.5614	2979.4183	3006.7754	3024.0583	3033.1679	3047.8711	3081.7061	3101.5882	3109.9312	3117.0136	3153.0226	3172.6407	3486.6099	3578.9385
CCC([NH3+])C(C)C([O-])=O	CC[C@@H](N)[C@@H](C)C(=O)O	
InChI=1S/C6H13NO2/c1-3-5(7)4(2)6(8)9/h4-5H,3,7H2,1-2H3,(H,8,9)	InChI=1S/C6H13NO2/c1-3-5(7)4(2)6(8)9/h4-5H,3,7H2,1-2H3,(H,8,9)/t4-,5-/m1/s1
