19
gdb 53077	4.49097	0.85457	0.75834	0.2708	95.86	-0.2085	-0.0083	0.2001	1550.6821	0.159479	-348.739567	-348.730789	-348.729844	-348.774706	32.421	
C	-0.082780755	 1.4553872279	 0.0071392246	-0.507026
C	-0.0217047665	 0.0024359937	-0.004301825	 0.189478
C	 0.0439085848	-1.2034002436	-0.0131007144	-0.130887
C	 0.061405084	-2.6189740663	-0.0311245529	 0.236549
C	 1.1451836698	-3.415917401	-0.0846545956	-0.205718
C	 0.7832653676	-4.8819098361	-0.1301466673	-0.261962
C	-0.7377336191	-4.8845180442	 0.0227811795	-0.042079
C	-1.3266572516	-4.2979279419	 1.2792780313	-0.276153
C	-1.1976849202	-3.4369314589	 0.0403100275	-0.153611
H	 0.5049386936	 1.8718618652	 0.8333574537	 0.149506
H	 0.3123093937	 1.8790210316	-0.9234787775	 0.149097
H	-1.1129477503	 1.8103602646	 0.1217979903	 0.148565
H	 2.1684128709	-3.060101908	-0.0795555752	 0.091544
H	 1.0919845186	-5.3358789672	-1.0823999698	 0.109284
H	 1.2866157302	-5.4576928166	 0.6581780736	 0.109979
H	-1.3118980916	-5.6391634098	-0.5012731407	 0.084287
H	-2.3217015329	-4.6301384283	 1.5568365078	 0.108363
H	-0.6715068102	-4.0789098819	 2.1167817418	 0.112642
H	-2.0899862758	-3.0894441891	-0.466975862	 0.088142
17.2341	86.7969	97.6737	238.628	275.1896	300.668	360.4849	425.608	442.8821	517.4699	642.789	707.5319	780.6129	807.7922	827.3084	832.0375	900.3014	943.1583	960.1387	1005.4541	1008.1757	1048.6218	1052.836	1056.7918	1072.2813	1097.4904	1102.928	1182.4524	1204.7922	1245.6746	1259.5615	1323.0004	1356.6725	1376.3011	1413.56	1472.1909	1476.1453	1476.6426	1483.5835	1657.7323	2348.2397	3005.0225	3022.1245	3031.3662	3079.65	3085.2307	3121.5017	3174.3452	3181.5447	3206.0299	3210.7746
CC#CC1=CCC2CC12	CC#CC1=CC[C@H]2C[C@@H]12	
InChI=1S/C9H10/c1-2-3-7-4-5-8-6-9(7)8/h4,8-9H,5-6H2,1H3	InChI=1S/C9H10/c1-2-3-7-4-5-8-6-9(7)8/h4,8-9H,5-6H2,1H3/t8-,9-/m0/s1
