17
gdb 30800	3.28134	1.17172	0.88888	1.6712	73.45	-0.1947	0.0185	0.2132	1282.7073	0.13553	-458.991828	-458.982989	-458.982045	-459.025485	32.555	
C	 0.0620018804	 1.4867373488	 0.2134050213	-0.491611
C	-0.0519903107	 0.0171232158	 0.0222479966	 0.366269
C	-1.0962510522	-0.8011716034	-0.2881264831	-0.366117
C	-0.5620630601	-2.1285287809	-0.3280749633	 0.260566
O	-1.2730009001	-3.2495658094	-0.6054003093	-0.445604
C	 0.7686356897	-2.0285102951	-0.042260032	 0.147144
C	 1.8136328754	-3.0833035576	 0.0625779252	-0.197725
O	 1.4860252099	-4.1850525271	-0.7980209398	-0.415243
O	 1.0904849318	-0.7098152828	 0.1696873872	-0.219346
H	 0.7690355811	 1.9314207336	-0.496390516	 0.136799
H	-0.9125442301	 1.9568085691	 0.065248886	 0.136459
H	 0.4126830223	 1.7349058647	 1.2217825809	 0.138273
H	-2.1181178701	-0.5087207501	-0.4701447601	 0.112911
H	-0.6329042105	-3.9765010992	-0.6476306365	 0.297589
H	 2.8058272754	-2.6672972255	-0.1627243668	 0.118602
H	 1.8707504802	-3.5278422685	 1.06422362	 0.129513
H	 1.5196008876	-3.8538032124	-1.7032591503	 0.291522
84.8555	112.5154	164.7621	195.3625	222.905	277.3304	348.9336	374.0506	431.9643	478.0093	595.3294	621.4512	644.5365	675.7107	724.9824	796.5508	800.5185	959.0616	987.5105	1014.8097	1035.2435	1062.701	1122.7206	1162.9967	1179.5883	1246.3056	1305.0803	1335.96	1372.6399	1407.3281	1418.5396	1472.3528	1486.9449	1506.4665	1524.0955	1605.0808	1684.4311	3004.6575	3029.3889	3041.038	3078.8853	3130.4733	3261.9013	3711.1434	3793.8968
CC1=CC(O)=C(CO)O1	Cc1cc(O)c(CO)o1	
InChI=1S/C6H8O3/c1-4-2-5(8)6(3-7)9-4/h2,7-8H,3H2,1H3	InChI=1S/C6H8O3/c1-4-2-5(8)6(3-7)9-4/h2,7-8H,3H2,1H3
