16
gdb 131830	2.94293	1.29365	0.96752	4.187	67.71	-0.2193	0.0077	0.2269	1178.9086	0.124728	-471.187626	-471.179172	-471.178227	-471.221808	30.34	
O	-0.2579707714	 1.5238725909	 0.2328865239	-0.417697
C	 0.0494764131	 0.1567924697	-0.0015964397	-0.079953
C	-1.270544953	-0.5899052513	-0.1297506518	-0.167891
N	-2.0315657229	-0.1775833822	-1.2943688066	-0.101901
C	-2.6417552736	 1.0186700693	-1.5429700392	 0.069609
N	-3.2296807167	 1.0736007395	-2.6877745665	-0.149668
O	-2.9843283901	-0.2132902473	-3.2687943645	-0.250301
C	-2.2436159293	-0.9759638589	-2.4117920806	 0.491931
N	-1.8185056047	-2.159902018	-2.563548055	-0.617036
H	 0.5435688537	 2.0441809871	 0.1283105739	 0.29774
H	 0.6351012271	 0.0250043558	-0.9219664407	 0.115965
H	 0.6205865112	-0.2766201046	 0.833366487	 0.102533
H	-1.0928480193	-1.6610882684	-0.2473043272	 0.164515
H	-1.8683160577	-0.4270278677	 0.7734361547	 0.131216
H	-2.6173776342	 1.8410646106	-0.8460432846	 0.177267
H	-2.107222842	-2.5414318846	-3.4600125231	 0.23367
35.3002	105.5073	136.3366	222.042	249.3019	262.8789	342.6727	450.1254	516.9894	600.4722	656.831	726.1505	746.0925	768.0415	866.142	890.7038	898.4308	930.6393	970.7938	1040.8815	1079.0399	1096.1232	1177.2141	1223.6756	1239.301	1262.7169	1291.2398	1381.3892	1401.4125	1434.3943	1452.7916	1475.9314	1514.2042	1652.7822	1771.0343	2989.5696	3031.1573	3058.1237	3129.0894	3285.0975	3546.7183	3839.9192
OCCN1C=NOC1=N	OCCN1C=NO[C@H]1[NH]	
InChI=1S/C4H7N3O2/c5-4-7(1-2-8)3-6-9-4/h3,5,8H,1-2H2	InChI=1S/C4H8N3O2/c5-4-7(1-2-8)3-6-9-4/h3-5,8H,1-2H2/t4-/m0/s1
