19
gdb 99359	6.75753	0.52408	0.49392	4.0823	79.01	-0.247	-0.0123	0.2348	2134.8433	0.154761	-423.001314	-422.990422	-422.989478	-423.039239	37.313	
O	 0.1617770817	 1.3766641045	 0.0822983588	-0.393683
C	 0.0001422123	-0.0012948565	-0.1189453843	-0.167715
C	-1.4523830831	-0.3973323374	 0.1357501036	 0.370198
O	-2.3165422695	 0.4177212184	 0.3367614601	-0.275406
C	-1.7195213034	-1.8995004785	 0.1196240641	-0.317726
C	-3.2045959898	-2.246202963	 0.0181384486	-0.166077
C	-3.4543216685	-3.7648928487	 0.0989465667	-0.362674
C	-4.8659180479	-4.1136498402	-0.0068370473	 0.290877
C	-6.0352782793	-4.3761122205	-0.097283391	-0.429316
H	 1.0752116103	 1.6026294268	-0.1153756237	 0.293476
H	 0.2406363144	-0.312876572	-1.1515461944	 0.109344
H	 0.6405692381	-0.6105558368	 0.542999063	 0.104224
H	-1.1438345884	-2.3609363466	-0.6945958755	 0.112291
H	-1.2916213839	-2.3129171075	 1.0456110281	 0.127043
H	-3.7513924782	-1.7371350961	 0.8158514498	 0.135045
H	-3.6117268419	-1.8599992919	-0.9216580262	 0.121267
H	-2.8937549679	-4.2749876399	-0.6962175935	 0.126385
H	-3.0533851451	-4.1527579882	 1.0452446988	 0.128038
H	-7.06653582	-4.6158755059	-0.1752940156	 0.194409
25.3284	59.9747	75.3288	98.299	109.9468	185.5975	228.4389	281.3761	285.9651	348.0975	398.1169	469.7541	536.8828	617.823	637.1783	672.3459	722.5404	798.2403	849.7332	946.1606	964.743	1001.2035	1044.6265	1086.8798	1097.7087	1149.0944	1165.8154	1234.83	1254.5905	1268.0754	1294.5179	1319.9304	1357.8555	1392.0025	1442.9785	1454.3006	1473.2851	1493.7203	1497.6625	1831.8212	2240.2024	2944.2526	2966.1624	3003.6829	3009.6931	3036.7106	3038.0454	3064.5353	3112.1134	3507.8984	3836.2721
OCC(=O)CCCC#C	OCC(=O)CCCC#C	
InChI=1S/C7H10O2/c1-2-3-4-5-7(9)6-8/h1,8H,3-6H2	InChI=1S/C7H10O2/c1-2-3-4-5-7(9)6-8/h1,8H,3-6H2
