20
gdb 72556	2.35041	1.92589	1.47085	2.973	78.84	-0.2515	0.0361	0.2876	990.8057	0.173738	-403.191178	-403.183569	-403.182625	-403.222765	31.057	
C	-0.0315882936	 1.5101901775	-0.0045940562	-0.475653
C	 0.0117005157	-0.0038956778	 0.0177960546	 0.212017
C	 0.7262272891	-0.6815498288	-1.198091	-0.246184
C	 0.9190339932	-2.1565646747	-0.7305469418	-0.224449
C	 0.3078478019	-2.1158239464	 0.6811691288	 0.087817
C	 0.7076785162	-0.7299709862	 1.1971178465	-0.265452
O	-1.1301354661	-1.9746640019	 0.5144975445	-0.262596
C	-1.3451897691	-0.6840065299	 0.0949324392	 0.418209
N	-2.4666892452	-0.1808223957	-0.1889527548	-0.571181
H	 0.9780468285	 1.9281688675	-0.0755443089	 0.105979
H	-0.6153634234	 1.8620160608	-0.8594901693	 0.139228
H	-0.5073407137	 1.9039267032	 0.8981644517	 0.124211
H	 0.133425166	-0.5948567862	-2.1114120026	 0.118902
H	 1.6857024673	-0.1861950006	-1.3753304388	 0.101767
H	 0.3920378231	-2.8789102966	-1.357411321	 0.115612
H	 1.9733340526	-2.4454238379	-0.6944981745	 0.103788
H	 0.485510777	-2.9821557753	 1.3164998129	 0.084484
H	 1.788948545	-0.5704149616	 1.2264247055	 0.102377
H	 0.27162705	-0.4964122739	 2.1719436091	 0.111701
H	-3.2119912146	-0.8698200056	-0.0709026448	 0.219422
143.8417	198.8868	225.5276	272.9216	307.1908	405.5057	433.3707	486.8738	570.1991	610.5087	709.5558	730.0482	801.2402	826.4096	864.0056	881.8821	891.7299	909.112	950.7744	959.2522	961.8234	1013.5268	1029.6136	1045.753	1093.4505	1148.8767	1178.6563	1188.6887	1224.6441	1245.319	1263.1168	1269.8532	1306.0505	1325.0109	1349.7271	1390.2827	1414.9934	1481.0764	1485.0501	1488.5427	1494.7204	1509.1805	1784.24	3038.9721	3053.5212	3060.9748	3067.3081	3102.3762	3108.0948	3117.2099	3119.3407	3122.2308	3134.9069	3466.4141
CC12CCC(C1)OC2=N	C[C@@]12CC[C@@H](C1)O[C]2[NH]	
InChI=1S/C7H11NO/c1-7-3-2-5(4-7)9-6(7)8/h5,8H,2-4H2,1H3	InChI=1S/C7H11NO/c1-7-3-2-5(4-7)9-6(7)8/h5,8H,2-4H2,1H3/t5-,7+/m0/s1
