16
gdb 67076	2.66957	1.61028	1.35203	4.7398	73.45	-0.2544	-0.0066	0.2479	994.4846	0.123898	-400.695871	-400.688234	-400.68729	-400.727894	29.273	
C	-0.034625279	 1.5798936666	-0.093297959	-0.526561
C	 0.0118513477	 0.0914381439	-0.0213105096	 0.227961
C	 0.5683731675	-1.0158637895	-0.9158038004	-0.178306
C	 1.3785242218	-1.6250725544	 0.2244893384	-0.268196
C	 0.3288252514	-0.9473748049	 1.1514144656	 0.284407
O	-0.9002222555	-1.6702673051	 0.8728532571	-0.324634
C	-0.8875140865	-1.0312845259	-0.4063952031	 0.052043
C	 0.5712497374	-0.662449135	 2.5423466167	 0.185726
N	 0.797160847	-0.3954713233	 3.644101215	-0.335747
H	 0.9499643912	 2.0232282686	 0.0901433282	 0.135891
H	-0.3612864938	 1.8975321358	-1.089116419	 0.134157
H	-0.7355941208	 1.9928403878	 0.6394658749	 0.143513
H	 0.8213359285	-0.957419526	-1.9663088453	 0.104192
H	 1.4498144046	-2.7120423531	 0.3178638683	 0.119322
H	 2.3602988868	-1.1570065225	 0.3197673916	 0.125247
H	-1.7730981084	-1.0839290328	-1.0247099793	 0.120986
116.7799	155.5257	195.0951	222.7076	283.6516	432.6426	513.168	518.2869	538.36	567.9411	657.6635	748.324	761.572	861.5279	885.1893	906.2186	962.8663	979.7826	981.5975	1022.2995	1031.7699	1057.2596	1115.5936	1138.2109	1164.9717	1217.6488	1244.4818	1267.9502	1294.3358	1410.2905	1456.5506	1480.0438	1487.6264	1495.7531	2358.6551	3030.6234	3063.8992	3096.5483	3102.5663	3131.4262	3206.1359	3221.2812
CC12C3CC1(OC23)C#N	C[C@@]12[C@H]3C[C@@]1(O[C@@H]23)C#N	
InChI=1S/C7H7NO/c1-6-4-2-7(6,3-8)9-5(4)6/h4-5H,2H2,1H3	InChI=1S/C7H7NO/c1-6-4-2-7(6,3-8)9-5(4)6/h4-5H,2H2,1H3/t4-,5+,6-,7+/m0/s1
