19
gdb 111232	2.69235	1.39161	1.33153	1.5715	74.3	-0.2387	-0.0039	0.2348	1065.1972	0.160709	-422.999378	-422.991521	-422.990577	-423.031987	30.806	
O	 0.0287699112	 1.5558484284	-0.0287940729	-0.418973
C	 0.0945312104	 0.139413188	-0.1536883565	-0.109142
C	-1.2702578524	-0.506786227	 0.0004710395	-0.002593
C	-1.4857341122	-2.042111026	 0.0305773046	 0.050741
C	-0.4341479002	-2.7889226552	 0.8701591934	-0.268342
C	-0.2897167237	-2.1007642526	 2.2124596448	-0.058115
C	-1.0466537571	-1.0322786918	 2.4666757147	-0.067738
C	-2.008135018	-0.624074798	 1.3712396001	 0.015845
O	-2.6598134871	-1.8309248485	 0.8651052972	-0.295371
H	-0.1799038335	 1.756820301	 0.8890664983	 0.283294
H	 0.4734610844	-0.0507079672	-1.1645680061	 0.109415
H	 0.8185175788	-0.2856771074	 0.553894228	 0.093578
H	-1.9609699647	-0.07085079	-0.7259495249	 0.096179
H	-1.725321478	-2.5571308454	-0.9038258421	 0.076934
H	-0.7495355801	-3.8312961481	 1.0079949661	 0.11964
H	 0.5295066449	-2.8261304505	 0.3435063378	 0.108878
H	 0.4166974278	-2.5013016984	 2.9337785905	 0.097371
H	-0.9977631233	-0.4788622671	 3.3987654927	 0.091174
H	-2.7295301573	 0.1421379658	 1.662031685	 0.077226
57.6632	152.6164	228.3392	273.5612	300.9375	366.6617	437.8476	487.6285	540.6332	589.3958	695.3379	709.4601	814.7829	832.6147	878.5804	915.8017	920.7253	945.8907	966.7576	989.9839	1027.7518	1040.0152	1071.1826	1072.0476	1121.8947	1150.6171	1169.0395	1193.125	1232.3258	1239.2782	1313.3167	1317.4435	1329.6203	1352.7131	1369.0147	1397.2076	1405.7215	1427.5659	1461.829	1500.8431	1692.4972	3012.9426	3017.2325	3045.4656	3062.2882	3070.4306	3083.8961	3094.3258	3162.8084	3188.319	3815.252
OCC1C2CC=CC1O2	OC[C@H]1[C@H]2CC=C[C@@H]1O2	
InChI=1S/C7H10O2/c8-4-5-6-2-1-3-7(5)9-6/h1-2,5-8H,3-4H2	InChI=1S/C7H10O2/c8-4-5-6-2-1-3-7(5)9-6/h1-2,5-8H,3-4H2/t5-,6+,7-/m1/s1
