14
gdb 16090	4.62384	1.74584	1.49039	5.1552	66.83	-0.2574	-0.0193	0.2381	831.5334	0.109304	-341.57998	-341.57361	-341.572666	-341.610371	24.632	
N	-0.0135185065	-1.1243964347	 0.0798494131	-0.341889
C	 0.0151567141	 0.0308552244	 0.0429820994	 0.255759
C	 0.0303018178	 1.4680364004	-0.0519156436	 0.161774
C	-0.9393209436	 2.1457394283	-1.0308967139	-0.336837
C	-0.1939968908	 3.3925405168	-1.4546964536	-0.087218
C	 1.0409008558	 3.4399557894	-0.9476171339	-0.07668
C	 1.2978766713	 2.289793186	-0.0312776038	-0.097957
N	 0.4402551549	 2.1911206699	 1.1622506026	-0.343141
H	-1.1432753439	 1.4884863839	-1.8845019206	 0.142531
H	-1.9086542856	 2.3614662284	-0.5648789463	 0.132266
H	-0.6471690757	 4.1496310584	-2.083570567	 0.11517
H	 1.7742889323	 4.2161903602	-1.1272036449	 0.116399
H	 2.283279682	 1.8494969708	 0.0734612028	 0.122241
H	-0.117001732	 3.0384073077	 1.2616285498	 0.237581
150.4809	167.8965	318.2174	361.0729	482.3727	515.6636	556.8213	599.807	723.7536	745.4787	769.1039	867.5183	907.7114	944.1406	957.5321	990.0222	994.8756	1054.0578	1105.4139	1132.1904	1156.2232	1173.59	1258.9827	1292.8564	1307.4886	1365.3279	1401.8119	1471.3707	1662.0342	2358.9792	3035.6388	3067.5823	3180.0042	3200.1474	3224.4446	3478.5013
N#CC12CC=CC1N2	N#C[C@]12CC=C[C@H]1N2	
InChI=1S/C6H6N2/c7-4-6-3-1-2-5(6)8-6/h1-2,5,8H,3H2	InChI=1S/C6H6N2/c7-4-6-3-1-2-5(6)8-6/h1-2,5,8H,3H2/t5-,6-/m1/s1
