18
gdb 67048	2.15507	2.05596	1.60995	1.5922	70.27	-0.2067	0.0617	0.2684	933.1828	0.147956	-439.032634	-439.024821	-439.023877	-439.064345	31.109	
C	 0.0603899869	 1.5240622547	 0.0418648163	-0.469575
C	 0.0064203036	 0.0175715451	-0.0403127758	 0.212874
C	 0.7729114154	-0.6559570531	-1.1812961845	-0.122235
O	 0.3737468595	-2.033486008	-1.1291889297	-0.268859
C	-0.8592305454	-2.0713496779	-0.4421558604	-0.007958
C	-0.8620314554	-1.5787385341	 1.0176743138	-0.104504
N	 0.2887166733	-0.7056899274	 1.2547596548	-0.344834
C	-1.3755811949	-0.7143376391	-0.1027591484	 0.289316
O	-2.6154346309	-0.1543230831	-0.3077536372	-0.459346
H	 1.0829030709	 1.8655373553	 0.2349572617	 0.119317
H	-0.2825493307	 1.9809751053	-0.8925150888	 0.112567
H	-0.5759434413	 1.8804205279	 0.8549629372	 0.13997
H	 0.5074037859	-0.2101077029	-2.1549623665	 0.085241
H	 1.8615379907	-0.6105312246	-1.0635874521	 0.107588
H	-1.5145811763	-2.8845472943	-0.7310967843	 0.106466
H	-1.3803310958	-2.0913420806	 1.8206909851	 0.098941
H	 1.1733336523	-1.2140853017	 1.2269187187	 0.214726
H	-2.8249120278	-0.2038388014	-1.2470681999	 0.290306
172.7232	199.5065	208.5576	247.9425	311.717	322.1963	380.3102	448.4907	530.7836	597.0739	635.2359	684.0843	736.5873	803.3931	825.0394	902.4524	921.4479	946.2851	976.6621	995.8918	1002.5031	1049.0518	1076.4057	1092.7515	1132.626	1165.8932	1202.0795	1228.802	1247.6066	1262.2994	1291.7902	1326.4929	1368.6164	1384.1845	1413.3043	1474.6138	1488.7433	1495.13	1510.0703	2959.3063	3036.8359	3060.3956	3101.2607	3127.5777	3172.1873	3193.3184	3440.255	3794.6249
CC12COC3C(N1)C23O	C[C@@]12CO[C@H]3[C@@H](N1)[C@@]23O	
InChI=1S/C6H9NO2/c1-5-2-9-4-3(7-5)6(4,5)8/h3-4,7-8H,2H2,1H3	InChI=1S/C6H9NO2/c1-5-2-9-4-3(7-5)6(4,5)8/h3-4,7-8H,2H2,1H3/t3-,4+,5+,6+/m1/s1
