16
gdb 49328	2.12817	1.71417	1.08403	3.3149	71.31	-0.2516	-0.0336	0.218	1098.2137	0.122603	-437.89295	-437.884473	-437.883529	-437.926763	30.814	
O	-0.6748192435	 0.7565937378	 0.621051798	-0.2412
C	 0.1248592887	 1.0397698112	-0.2344414273	 0.151942
C	 1.3021440145	 1.9614096309	-0.0632578344	-0.391312
C	 1.1548450591	 3.3529970839	-0.7948778643	 0.444905
O	 0.9772134627	 3.7116586415	-1.9247238285	-0.354172
N	 1.3165023633	 4.0010450467	 0.3975717447	-0.388261
C	 1.4627305496	 2.8025247134	 1.2103277199	 0.428193
C	 0.9142778158	 2.5985776609	 2.5816452315	-0.313844
C	 2.4181216932	 2.6239081758	 2.347599823	-0.33701
H	 0.0388095992	 0.6284396491	-1.2640606563	 0.099612
H	 2.2128692832	 1.4549602619	-0.400681331	 0.12972
H	 1.3319798847	 4.9854909632	 0.6214222922	 0.257982
H	 0.4698420171	 3.4560159663	 3.0768124803	 0.118556
H	 0.4282770949	 1.6548769298	 2.7929158864	 0.149899
H	 2.9697995049	 1.6919230106	 2.4154116167	 0.125736
H	 2.9701083126	 3.493848217	 2.6886546191	 0.119252
54.0033	82.8265	172.0911	197.1717	257.5263	291.6332	350.0793	449.4037	499.3157	524.8755	656.5346	683.4715	762.2352	789.147	838.8359	891.5999	919.6971	971.7688	973.1485	1036.4023	1048.6335	1065.0988	1076.7294	1131.6749	1156.3544	1183.8876	1266.2244	1296.6418	1327.661	1417.8103	1442.2961	1463.2869	1516.8142	1820.2073	1904.5276	2896.8753	3067.9548	3128.2399	3142.539	3211.7793	3240.1376	3609.5457
O=CC1C(=O)NC11CC1	O=C[C@H]1C(=O)NC21CC2	
InChI=1S/C6H7NO2/c8-3-4-5(9)7-6(4)1-2-6/h3-4H,1-2H2,(H,7,9)	InChI=1S/C6H7NO2/c8-3-4-5(9)7-6(4)1-2-6/h3-4H,1-2H2,(H,7,9)/t4-/m0/s1
