21
gdb 62576	3.42248	1.44618	1.28282	1.6496	82.35	-0.2428	0.0822	0.325	1080.9435	0.183293	-387.043311	-387.035431	-387.034487	-387.075082	32.356	
C	 0.0321625667	 1.4175028887	 0.0207681233	-0.441498
C	-0.0761101078	-0.1036934241	-0.053639854	 0.311136
C	-1.4275082664	-0.5242547987	-0.6131503679	-0.473722
C	 1.2620606543	-0.7601618539	-0.3471850447	-0.096711
C	 0.6844350538	-0.7883663283	 1.0691251371	-0.096721
C	 0.6453679815	-2.3205984805	 1.2498009474	 0.036782
C	 2.0622333041	-2.7446428825	 0.76585831	-0.216911
C	 1.3818025638	-2.2846313686	-0.5558548119	 0.036787
O	 0.1341906082	-2.8189602251	-0.0219760217	-0.283541
H	 0.9972646632	 1.743475697	 0.4207919316	 0.107879
H	-0.0869935183	 1.8612677723	-0.974186199	 0.114996
H	-0.7547053226	 1.8287007027	 0.6632737807	 0.114996
H	-1.5621303152	-0.0917705772	-1.6123110281	 0.104815
H	-1.5416488513	-1.6010755186	-0.6802182577	 0.149252
H	-2.2282952417	-0.1227936693	 0.0201418966	 0.104791
H	 2.1101821732	-0.1422249269	-0.6234011611	 0.082337
H	 1.0890364376	-0.1921069242	 1.8804354269	 0.082336
H	 0.1528173818	-2.7473294529	 2.1234953059	 0.081444
H	 2.9341122054	-2.1962359804	 1.1323773344	 0.093531
H	 2.2099927789	-3.8255658277	 0.8045919958	 0.106577
H	 1.6464658408	-2.6743755118	-1.5387587437	 0.081444
162.9516	173.7958	220.3824	246.455	304.5419	371.3589	381.6314	481.0989	500.9874	641.5116	703.7343	705.3421	800.1371	817.0677	852.379	858.5371	901.0041	931.6081	952.7453	962.0413	973.9588	976.2887	1017.5125	1034.1192	1065.5387	1072.2876	1092.5528	1101.6727	1156.7761	1172.4343	1192.0404	1222.0403	1264.3419	1273.0987	1290.7634	1301.1336	1314.4179	1397.7327	1399.9191	1423.0665	1482.0451	1484.569	1490.1603	1506.5111	1520.4084	3020.6403	3025.7705	3060.4195	3070.2029	3087.173	3099.1316	3119.4391	3121.8185	3136.4432	3156.3944	3165.6139	3198.5004	162.9529	173.7959	220.3803	246.455	304.5415	371.3589	381.6314	481.0988	500.9872	641.5115	703.7342	705.342	800.1369	817.0677	852.3791	858.5372	901.004	931.6082	952.7452	962.0414	973.9587	976.2887	1017.5125	1034.1195	1065.5389	1072.2874	1092.5527	1101.6727	1156.7763	1172.4342	1192.0405	1222.0401	1264.3416	1273.0985	1290.7635	1301.1338	1314.4177	1397.7328	1399.9191	1423.067	1482.0448	1484.5692	1490.1613	1506.5118	1520.4084	3020.6402	3025.7705	3060.4195	3070.2029	3087.1729	3099.1316	3119.4391	3121.8185	3136.4432	3156.3944	3165.6139	3198.5004
CC1(C)C2C1C1CC2O1	CC1(C)[C@H]2[C@@H]1[C@@H]1C[C@H]2O1	
InChI=1S/C8H12O/c1-8(2)6-4-3-5(9-4)7(6)8/h4-7H,3H2,1-2H3	InChI=1S/C8H12O/c1-8(2)6-4-3-5(9-4)7(6)8/h4-7H,3H2,1-2H3/t4-,5+,6-,7+
