17
gdb 50435	2.79768	1.47829	1.07507	5.12	76.92	-0.2414	-0.0149	0.2265	1113.1198	0.13724	-418.038506	-418.030416	-418.029472	-418.071774	29.811	
N	-0.0209023032	 1.3096291103	 0.1671357098	-0.441537
C	 0.0485388533	 0.054059114	 0.0146358865	 0.32697
C	 1.3228690175	-0.7671633134	-0.0999616982	-0.339395
C	 1.1687798722	-2.0101003308	-0.9303301219	-0.059468
C	-0.0132247099	-2.4452386454	-1.3515808558	-0.058659
C	-1.302061081	-1.7559870016	-1.0190085674	-0.221745
N	-1.1434251657	-0.7162837043	-0.0000364768	-0.107318
C	-2.186186921	-0.49290173	 0.8875874514	 0.165099
O	-2.2071874599	 0.2897367831	 1.7998841228	-0.295108
H	 0.9171152265	 1.7108727058	 0.2161950046	 0.222075
H	 2.1170786133	-0.1319112929	-0.5093415899	 0.123683
H	 1.6463557521	-1.0342338818	 0.9178968011	 0.145648
H	 2.0773579987	-2.5464521286	-1.1886366923	 0.102523
H	-0.0956263482	-3.3288970435	-1.9771554437	 0.103495
H	-1.7376380099	-1.3282898441	-1.9367696717	 0.13174
H	-2.0299215033	-2.4878538521	-0.6497709566	 0.130042
H	-3.0255058813	-1.1857395447	 0.6706733179	 0.071955
59.0593	89.4996	192.4399	228.0892	253.906	379.2437	418.7781	470.0997	499.9527	590.5771	636.7892	678.9998	737.1122	891.7988	899.4591	947.0566	977.3024	990.2204	1000.3639	1015.8374	1027.2219	1067.5727	1173.9949	1210.0457	1212.0647	1246.7687	1295.4932	1345.5281	1349.4778	1414.1048	1423.9709	1455.6863	1463.4181	1502.0764	1719.3813	1745.2228	1836.4461	2912.6233	2971.5904	2997.701	3049.0954	3053.8509	3162.6235	3185.2491	3463.7185
N=C1CC=CCN1C=O	[NH][C]1CC=CCN1C=O	
InChI=1S/C6H8N2O/c7-6-3-1-2-4-8(6)5-9/h1-2,5,7H,3-4H2	InChI=1S/C6H8N2O/c7-6-3-1-2-4-8(6)5-9/h1-2,5,7H,3-4H2
