20
gdb 75115	2.74038	1.29238	0.99494	3.4478	82.05	-0.2177	-0.0123	0.2054	1242.5391	0.171811	-403.162241	-403.153455	-403.15251	-403.195805	33.353	
C	-0.1088501184	 1.5458081519	 0.034529043	-0.485697
C	-0.0297804165	 0.0449493957	 0.0207983778	 0.378476
C	-0.0461281912	-0.6626208037	-1.1096499894	-0.167784
C	 0.0545923802	-2.1725952261	-1.1856420394	-0.355084
C	 1.3504378336	-2.7058338962	-0.5745977929	 0.415004
O	 2.2158413212	-3.2052813961	-1.2529898241	-0.296002
C	 1.4743671352	-2.6572207309	 0.9525281973	-0.25668
N	 1.405882839	-1.3101695153	 1.5187759633	-0.284142
C	 0.1095793092	-0.6388724491	 1.372104221	-0.279309
H	 0.7877444347	 1.9768087208	 0.4988043657	 0.132623
H	-0.2043736744	 1.9586417392	-0.9730963696	 0.122076
H	-0.9651235339	 1.8928636455	 0.6277997372	 0.12221
H	-0.1052218587	-0.1417886534	-2.0615064026	 0.09195
H	-0.7898665131	-2.6342210195	-0.6532337318	 0.116784
H	 0.0229545954	-2.5094843452	-2.2230376655	 0.122087
H	 0.6792224925	-3.32450215	 1.3480839038	 0.087075
H	 2.4415246433	-3.0973679704	 1.2052574346	 0.12224
H	 1.635837422	-1.3764536454	 2.5039956807	 0.224301
H	 0.0382929354	 0.1130207095	 2.1632486563	 0.100806
H	-0.7381063555	-1.3366377214	 1.5228887047	 0.089067
70.9642	96.1713	200.5537	230.0008	262.6012	310.394	340.8414	364.7084	430.9235	493.9903	511.523	594.8399	669.499	721.9055	816.0894	843.146	875.774	909.7805	920.2005	986.8282	1016.7859	1037.5258	1068.2331	1101.0906	1137.1575	1152.1507	1219.0718	1230.2327	1263.4646	1301.8603	1309.4805	1322.4387	1359.5482	1411.0028	1417.4297	1467.8672	1478.1068	1479.7414	1488.2102	1490.3099	1504.2367	1736.6124	1817.9084	2877.3438	2902.0517	3005.9062	3012.5674	3059.2645	3077.7783	3104.1058	3112.499	3116.6547	3161.4266	3525.399
CC1=CCC(=O)CNC1	CC1=CCC(=O)CNC1	
InChI=1S/C7H11NO/c1-6-2-3-7(9)5-8-4-6/h2,8H,3-5H2,1H3	InChI=1S/C7H11NO/c1-6-2-3-7(9)5-8-4-6/h2,8H,3-5H2,1H3
