19
gdb 77498	1.92569	1.78958	1.29624	2.2951	72.19	-0.245	0.0604	0.3055	1085.9539	0.156269	-460.109457	-460.100071	-460.099127	-460.142766	35.8	
C	 0.0501554106	 1.4497433181	-0.0315286619	-0.525878
C	-0.0370890689	-0.0352070656	 0.1100639347	 0.299954
O	 0.5820529806	-0.8835128858	-0.9546258478	-0.406343
C	 0.0258207631	-1.8712284185	 0.0264549632	 0.326505
C	 0.2150906418	-3.3275360159	-0.2447408008	-0.525887
C	 0.628764153	-0.9787569003	 1.1552575168	 0.112484
O	 2.0143635028	-0.9360092191	 1.2701291754	-0.454412
C	-1.2511849924	-1.0095435201	 0.0451906707	 0.04845
O	-2.1012961116	-1.1798068379	 1.1466656493	-0.436136
H	 1.0888872581	 1.783090834	 0.0584233231	 0.137
H	-0.3395109184	 1.7759650649	-1.0007239165	 0.132045
H	-0.5304547829	 1.935434289	 0.7598055404	 0.127151
H	 1.2729333339	-3.5971551636	-0.1670957251	 0.133505
H	-0.3441722883	-3.9144452724	 0.4904829163	 0.13937
H	-0.1428767552	-3.5894932127	-1.2449068903	 0.132351
H	 0.1844432978	-1.0403926124	 2.1479051611	 0.100941
H	 2.3378457921	-0.8847337111	 0.3585966244	 0.284095
H	-1.7697985284	-0.9850433865	-0.9199255498	 0.083206
H	-2.8171369277	-0.5404860138	 1.0825092767	 0.2916
182.307	184.4166	187.8459	190.7154	206.6408	224.4159	247.8762	262.1756	351.7048	419.9569	520.3484	583.4948	595.6774	603.5658	663.5912	692.5463	767.6033	823.9764	848.5443	911.7293	919.7647	1047.1004	1061.6475	1130.7128	1135.0666	1163.3856	1168.4704	1173.0576	1195.1388	1250.595	1298.348	1304.5522	1349.8844	1403.1676	1407.4431	1422.9046	1477.4348	1479.8536	1485.7144	1487.0274	1494.0777	3035.693	3039.4481	3051.6239	3107.2478	3111.5555	3113.2723	3116.0836	3134.5968	3732.8174	3827.4671
CC12OC(C)(C1O)C2O	C[C@@]12O[C@@](C)([C@H]1O)[C@H]2O	
InChI=1S/C6H10O3/c1-5-3(7)6(2,9-5)4(5)8/h3-4,7-8H,1-2H3	InChI=1S/C6H10O3/c1-5-3(7)6(2,9-5)4(5)8/h3-4,7-8H,1-2H3/t3-,4-,5-,6+
