20
gdb 81616	4.28657	0.9257	0.84089	3.8804	82.52	-0.2455	0.0306	0.2761	1413.5924	0.171722	-403.12288	-403.114243	-403.113298	-403.157335	32.61	
C	-0.1232991058	 1.654195657	 0.1463076454	-0.445025
C	 0.0295946472	 0.1434190451	 0.0324280212	 0.055432
C	 1.1680421672	-0.5153817854	-0.8217493226	-0.09169
C	 2.1619851235	-0.1389096847	 0.3157782712	-0.228347
C	 0.8979694026	-0.6832971957	 1.0434801653	-0.091774
C	 0.9311385583	-1.8320936148	-0.0148213343	 0.111809
N	-0.2251442627	-2.6561476213	-0.2562764613	-0.325575
C	-0.1558419735	-4.0125345737	-0.3696248466	 0.148378
O	 0.8528191501	-4.6797319695	-0.2852563095	-0.321867
H	 0.8167471515	 2.1789803568	 0.3294111281	 0.122553
H	-0.5551208877	 2.0623488308	-0.7742615343	 0.119616
H	-0.8065335901	 1.9058116221	 0.9650809195	 0.11961
H	-0.9655293483	-0.2781380627	-0.1496557799	 0.043577
H	 1.3271643127	-0.425218228	-1.8976843279	 0.073148
H	 3.0657119487	-0.7487651305	 0.3917349732	 0.100256
H	 2.3934376825	 0.9164994784	 0.444312572	 0.100416
H	 0.7455480709	-0.7867912737	 2.1191891709	 0.07313
H	 1.7854368772	-2.5047652308	 0.0482474709	 0.116561
H	-1.1341013142	-2.2334288482	-0.3486853797	 0.248917
H	-1.15586592	-4.454466161	-0.5538740215	 0.070875
19.8058	150.3025	167.1645	188.0359	246.5709	275.0956	378.2359	415.3732	520.6288	529.0004	597.3186	732.1374	767.6976	786.9546	794.6698	884.5951	895.9941	956.3951	1009.9108	1012.2359	1020.9083	1028.5843	1058.0002	1090.3863	1119.4225	1121.5451	1129.6785	1153.1619	1190.4403	1208.0247	1209.2441	1245.8228	1246.5327	1272.0887	1389.3127	1411.6709	1433.0306	1437.2231	1497.25	1498.5126	1524.2816	1545.6787	1808.0758	2927.8961	3026.7071	3037.1772	3073.4193	3090.2258	3097.4297	3102.597	3121.3305	3134.8898	3156.4817	3641.9657
CC1C2CC1C2NC=O	C[C@H]1[C@H]2C[C@@H]1[C@H]2NC=O	
InChI=1S/C7H11NO/c1-4-5-2-6(4)7(5)8-3-9/h3-7H,2H2,1H3,(H,8,9)	InChI=1S/C7H11NO/c1-4-5-2-6(4)7(5)8-3-9/h3-7H,2H2,1H3,(H,8,9)/t4-,5+,6-,7-
