16
gdb 13996	4.16456	1.47539	1.26334	1.6249	71.53	-0.2443	0.0384	0.2827	973.7019	0.129301	-346.528495	-346.520842	-346.519898	-346.560619	28.499	
C	-0.0239158165	-1.1905505659	 0.0110405546	-0.459208
C	-0.0321350564	 0.0124198967	 0.0407296039	 0.328004
C	-0.0145673293	 1.444432971	 0.0645281867	-0.256205
C	 0.545263848	 2.1886254115	 1.2758601013	-0.352499
C	 1.3097067235	 2.1766619034	-0.0001188501	 0.29171
C	 2.6776637856	 1.5847099705	-0.3121942778	-0.136143
O	 2.9670432128	 2.6851869623	-1.2062615474	-0.275435
C	 1.7022484704	 3.3219193698	-0.9272347061	-0.13682
H	-0.0286546273	-2.2520076844	-0.0117654926	 0.198514
H	-0.8456662433	 1.9275045787	-0.4435456605	 0.115506
H	 0.0390035203	 3.1028559476	 1.5689384955	 0.122305
H	 0.9135658305	 1.5863684154	 2.0994103869	 0.13126
H	 3.3828807292	 1.5435956361	 0.5279260924	 0.102988
H	 2.6686919673	 0.6175902917	-0.8291124811	 0.117353
H	 1.0912286173	 3.4446157969	-1.8309798814	 0.105409
H	 1.8315387779	 4.2994686088	-0.4430933643	 0.10326
86.5271	125.5633	145.8899	283.	316.972	351.2832	489.1065	517.7468	576.9291	619.9973	655.3958	793.0745	842.9982	875.5127	890.1792	943.1483	979.3548	1023.8641	1029.4025	1062.5571	1079.3679	1114.1135	1131.2201	1149.5499	1161.3888	1222.6695	1303.8938	1317.4268	1367.1758	1431.8961	1490.4762	1508.5036	1532.9439	2234.717	2998.373	3013.7111	3042.6333	3059.0647	3128.7841	3135.5828	3219.8699	3504.7518
C#CC1CC11COC1	C#C[C@H]1CC21COC2	
InChI=1S/C7H8O/c1-2-6-3-7(6)4-8-5-7/h1,6H,3-5H2	InChI=1S/C7H8O/c1-2-6-3-7(6)4-8-5-7/h1,6H,3-5H2/t6-/m0/s1
