18
gdb 98299	2.0938	1.48768	0.98677	2.7801	68.69	-0.2579	0.0175	0.2753	1216.4036	0.146532	-476.227641	-476.218153	-476.217209	-476.262608	33.68	
C	-0.4819222728	 1.172932152	 0.7138049004	-0.337806
N	-0.2110339884	-0.2388496431	 0.5099256699	-0.301456
C	 0.751694584	-0.9007924021	 1.184175418	 0.361237
O	 1.5116790826	-0.3930131518	 2.0002065257	-0.402858
C	 0.9270381238	-2.3960341891	 0.8416562639	 0.003888
O	 1.9187417497	-2.9349702105	 1.6720186545	-0.432269
C	-0.3305088859	-3.2464854714	 0.9721649316	 0.057455
C	-1.5096530815	-2.8748268187	 1.7563183871	-0.177243
O	-1.5184823633	-2.7775610927	 0.3191439779	-0.246331
H	-0.5409272806	 1.6944522896	-0.2463119679	 0.133044
H	-1.4219414721	 1.3302784322	 1.2551932769	 0.130662
H	 0.3359841538	 1.5899423421	 1.3016174556	 0.170394
H	-0.8606318519	-0.8052647999	-0.0208152426	 0.267701
H	 1.2431538332	-2.4469569615	-0.2150866714	 0.097824
H	 2.2324629813	-2.1703565189	 2.1891496036	 0.297375
H	-0.1305927609	-4.3075248043	 0.825934343	 0.118171
H	-2.1513095703	-3.6530816642	 2.1632468709	 0.129616
H	-1.5334643006	-1.9240155278	 2.2835292129	 0.130595
79.8915	81.263	103.0259	123.1402	193.5925	247.1652	273.5866	371.1651	378.6698	484.1165	489.1648	548.1076	608.0183	680.1637	790.915	824.8771	865.9697	895.5641	996.6137	1039.1557	1071.274	1108.0466	1151.9738	1153.1965	1158.3346	1178.5309	1182.8995	1268.5928	1277.8208	1291.1291	1356.8312	1428.2531	1443.2602	1457.7631	1497.4221	1503.1426	1526.3102	1592.5296	1765.1887	2952.1297	3032.1493	3089.9364	3102.9141	3122.9508	3158.6848	3193.7608	3566.5645	3614.1554
CNC(=O)C(O)C1CO1	CNC(=O)[C@@H](O)[C@H]1CO1	
InChI=1S/C5H9NO3/c1-6-5(8)4(7)3-2-9-3/h3-4,7H,2H2,1H3,(H,6,8)	InChI=1S/C5H9NO3/c1-6-5(8)4(7)3-2-9-3/h3-4,7H,2H2,1H3,(H,6,8)/t3-,4+/m1/s1
