16
gdb 15611	3.31922	1.83785	1.21442	5.291	69.6	-0.2311	-0.0498	0.1813	977.0137	0.130833	-379.94805	-379.94008	-379.939136	-379.98072	28.367	
C	-0.0153824967	 1.4130106089	-0.0173952582	-0.338451
N	-0.0695724388	-0.0371020749	-0.0003326047	-0.286265
C	 0.5494836875	-0.6261798986	 0.9431291938	 0.291715
N	 1.3091747039	-0.1094645103	 1.9724324352	-0.348307
C	 1.6649549925	-1.082454899	 3.0054146689	-0.17751
C	 1.4862958325	-2.4369404184	 2.2990024973	-0.323065
C	 0.5859407724	-2.1356942881	 1.098975565	 0.344305
O	 0.0163821455	-2.9356162781	 0.4093874663	-0.286081
H	 1.0163499551	 1.7874746714	-0.1153847956	 0.112961
H	-0.5917196701	 1.7932454526	-0.8638935945	 0.130362
H	-0.4375230125	 1.8596161087	 0.8991119004	 0.103507
H	 1.2591845931	 0.869777784	 2.2006649722	 0.252016
H	 2.6893908116	-0.9187191678	 3.3532830265	 0.119227
H	 1.0011948675	-1.0053436131	 3.8775926817	 0.11643
H	 2.4398912563	-2.8153937077	 1.9144719733	 0.147667
H	 1.0542361201	-3.2136687596	 2.9316116023	 0.14149
89.3254	111.5761	155.5595	194.0977	205.4042	346.8472	408.8192	497.2846	570.9301	607.74	663.4592	718.9837	781.7487	850.0949	963.7147	994.6764	1049.3379	1081.8383	1098.6512	1103.551	1177.6073	1192.758	1225.089	1276.1147	1284.7601	1354.6016	1428.3089	1441.4897	1454.5196	1491.2791	1502.5291	1533.9008	1742.5317	1861.7435	2953.5265	3000.4236	3006.1365	3056.7009	3071.1187	3105.0713	3128.5671	3646.6669
CN=C1NCCC1=O	CN=C1NCCC1=O	
InChI=1S/C5H8N2O/c1-6-5-4(8)2-3-7-5/h2-3H2,1H3,(H,6,7)	InChI=1S/C5H8N2O/c1-6-5-4(8)2-3-7-5/h2-3H2,1H3,(H,6,7)
