16
gdb 57154	3.95971	0.69689	0.6384	2.7347	77.65	-0.2568	-0.0723	0.1845	1694.7241	0.12234	-437.819704	-437.810167	-437.809222	-437.855639	32.581	
O	-0.7045080223	 0.9519930337	 0.1379446816	-0.41711
C	-0.3669226929	-0.4198001054	-0.0351845582	-0.08387
C	 0.5198212837	-0.6397433671	-1.1752127931	 0.092131
C	 1.2809703619	-0.825065225	-2.0956980087	 0.025211
C	 2.1815714418	-1.0157143414	-3.2048635194	 0.022471
O	 2.5079600214	-2.0955424749	-3.6394066122	-0.222989
C	 0.235326598	-1.0353529404	 1.2344519947	 0.018984
C	 1.1282027627	-0.2379627846	 2.1047330343	-0.237702
N	-0.2435393573	-0.5718839484	 2.5345040789	-0.322924
H	 0.0802578872	 1.480027529	-0.0440306705	 0.296415
H	-1.3219470683	-0.9248598882	-0.232729443	 0.14059
H	 2.5642293092	-0.0719697206	-3.6435017557	 0.103821
H	 0.3871282855	-2.1092160438	 1.1564693379	 0.113228
H	 1.9220581507	-0.7273210274	 2.6603782216	 0.127749
H	 1.3389144867	 0.7906562597	 1.8240744843	 0.100462
H	-0.8331389679	 0.2459321548	 2.3844715975	 0.243533
46.565	65.5952	78.7226	139.3607	211.6147	235.9116	266.2059	290.2919	351.1104	431.0109	540.3739	615.7947	657.1253	788.1612	831.8117	875.8608	931.9404	970.9118	1000.6612	1019.2295	1055.6176	1114.6972	1145.8523	1153.4486	1196.0157	1257.9162	1274.8856	1307.9684	1311.3732	1396.6949	1418.7613	1421.919	1508.3622	1769.4324	2318.2389	2922.4767	3026.5577	3113.4638	3140.9759	3198.976	3481.9976	3817.1038
OC(C#CC=O)C1CN1	O[C@@H](C#CC=O)[C@H]1CN1	
InChI=1S/C6H7NO2/c8-3-1-2-6(9)5-4-7-5/h3,5-7,9H,4H2	InChI=1S/C6H7NO2/c8-3-1-2-6(9)5-4-7-5/h3,5-7,9H,4H2/t5-,6+/m1/s1
