17
gdb 91085	3.49694	1.43101	1.24486	1.3713	73.37	-0.2425	-0.0094	0.2331	1017.6396	0.137171	-421.778354	-421.771333	-421.770389	-421.809678	28.458	
O	-0.1173766215	 1.3627505297	-0.2017242533	-0.421568
C	 0.0244822978	-0.0183868363	-0.0613200747	 0.077738
C	 0.2744456326	-0.6675809283	 1.3628549612	-0.292255
C	-0.6481693999	-1.8659897607	 0.9539717871	-0.084384
C	-1.9007090369	-2.3090853648	 1.6925357545	 0.012884
O	-2.6563408701	-1.2714593443	 2.3079955456	-0.256812
C	-3.0608999922	-1.7126653756	 0.9819282113	 0.013852
C	-2.5222155701	-0.7919626222	-0.0694709828	-0.244071
C	-1.1901549543	-0.9178160701	-0.0974968589	 0.186341
H	-0.8666188161	 1.6331170504	 0.3421118001	 0.283747
H	 0.8144024287	-0.3212496965	-0.7558746309	 0.105793
H	 1.3101744272	-0.8948350449	 1.6215863471	 0.109721
H	-0.1962381252	-0.0648038248	 2.142632468	 0.123744
H	-0.076016155	-2.7176742654	 0.5754102744	 0.08404
H	-1.9526891011	-3.2772024851	 2.182931277	 0.095457
H	-4.0458456509	-2.1678122187	 0.9433546571	 0.100538
H	-3.1146368331	-0.0201654822	-0.5457722329	 0.105232
117.8168	189.0317	245.727	372.5132	406.562	462.0028	505.742	553.66	667.9509	694.1653	698.061	810.2602	816.1172	847.7173	850.5521	875.957	930.9288	966.9281	981.6544	1030.3284	1045.2853	1059.8109	1088.4412	1111.4198	1151.8493	1171.5733	1220.0522	1237.6777	1244.467	1265.5398	1305.2406	1325.2023	1333.4476	1390.5682	1433.6062	1467.1956	1679.0989	3064.8671	3068.5021	3070.1966	3140.8894	3150.2818	3165.6928	3205.1798	3791.38
OC1CC2C3OC3C=C12	O[C@H]1C[C@H]2[C@H]3O[C@H]3[CH][C]12	
InChI=1S/C7H8O2/c8-5-1-4-3(5)2-6-7(4)9-6/h2,4-8H,1H2	InChI=1S/C7H8O2/c8-5-1-4-3(5)2-6-7(4)9-6/h2,4-8H,1H2/t4-,5+,6+,7-/m1/s1
