19
gdb 106332	2.99772	1.17629	1.04139	2.2822	71.38	-0.2406	0.0544	0.2951	1202.4132	0.158755	-460.119285	-460.110341	-460.109396	-460.152724	34.348	
O	 0.1608580504	 1.3673460419	-0.0570107403	-0.413162
C	 0.0666980095	-0.0374923816	 0.1420238201	-0.174492
C	-1.3524420214	-0.5171837657	 0.1125163659	 0.272977
C	-2.4187359029	-0.1728465751	 1.1595193086	-0.328957
C	-2.9361873227	-1.6466837732	 1.076135757	 0.098656
O	-4.2760998755	-1.8737369013	 0.6403364667	-0.437018
C	-1.9162018849	-1.9654274454	-0.007014711	-0.197001
C	-2.0489570994	-0.9903927916	-1.1375725314	 0.074507
O	-3.2651829098	-0.4753104445	-1.5873014425	-0.441046
H	-0.30867308	 1.572423133	-0.8729085158	 0.286885
H	 0.6614334342	-0.5938189819	-0.6017542144	 0.084848
H	 0.5216284641	-0.2221084454	 1.1223860145	 0.105333
H	-2.0078493754	 0.077948208	 2.1397325426	 0.106151
H	-3.135501532	 0.5943979525	 0.855068619	 0.106789
H	-2.7429123732	-2.1958370273	 2.004787728	 0.08499
H	-4.8776174821	-1.540766719	 1.3149865442	 0.29054
H	-1.3974854038	-2.9116111987	-0.1102006616	 0.088315
H	-1.3689943135	-1.1917129022	-1.9645299788	 0.095458
H	-3.9642163618	-0.9129172925	-1.0809039107	 0.296229
83.9992	119.5709	192.5644	221.9083	267.0405	325.2582	334.8183	370.5337	410.2048	433.1397	486.4951	524.8074	618.7938	718.2584	747.5103	819.6288	858.9383	915.1276	938.7899	980.4961	991.4904	1009.9946	1054.0385	1069.3967	1094.4499	1128.9056	1159.5274	1190.2398	1219.4291	1236.5882	1268.0143	1282.9198	1328.7728	1333.0644	1370.7087	1400.0716	1423.2489	1432.3419	1462.1942	1486.6368	1505.2854	2964.949	3032.6613	3053.3303	3062.7812	3118.7112	3120.4451	3176.1652	3724.5364	3805.8382	3810.6558
OCC12CC(O)C1C2O	OC[C@]12C[C@@H](O)[C@H]1[C@H]2O	
InChI=1S/C6H10O3/c7-2-6-1-3(8)4(6)5(6)9/h3-5,7-9H,1-2H2	InChI=1S/C6H10O3/c7-2-6-1-3(8)4(6)5(6)9/h3-5,7-9H,1-2H2/t3-,4+,5-,6-/m1/s1
