14
gdb 132705	5.12292	0.97722	0.82068	2.3042	75.11	-0.2575	-0.0628	0.1947	1261.4117	0.101543	-444.73468	-444.727603	-444.726659	-444.76647	26.751	
F	-0.0129044836	 0.0198550224	 0.0035934421	-0.07027
C	-0.0223476079	 1.3524561999	 0.0105836629	 0.305033
C	-1.24338288	 2.0152412875	 0.0304114873	-0.239031
C	-1.2400775068	 3.4044859453	 0.0375199898	-0.182425
C	-0.0357680794	 4.1142243836	 0.0249839321	 0.202024
C	-0.0482525584	 5.5909370648	 0.0327552178	 0.090428
O	 0.9386509884	 6.2899688222	 0.0230851559	-0.269678
C	 1.1800627256	 3.4172718022	 0.0050496823	-0.166136
C	 1.1935355571	 2.0320810871	-0.0022635735	-0.236466
H	-2.1621522213	 1.4414055227	 0.0398081487	 0.121173
H	-2.1807282917	 3.9474095389	 0.0529617956	 0.115537
H	-1.0677796497	 6.0389415294	 0.0487697752	 0.070075
H	 2.1018462922	 3.9878984183	-0.0044045344	 0.137091
H	 2.1176557055	 1.4665510057	-0.0175991218	 0.122645
102.9604	197.2903	200.0638	342.2904	387.4203	423.6371	431.1081	526.083	609.7313	644.9726	728.7247	789.6332	844.4242	860.9689	869.2222	954.333	985.4407	1021.849	1046.513	1113.2394	1168.7985	1224.2662	1289.5722	1304.9568	1349.5391	1422.4631	1454.8893	1539.9964	1624.3783	1643.2585	1798.0013	2875.1254	3174.0436	3199.869	3210.1155	3212.8332
FC1=CC=C(C=O)C=C1	Fc1ccc(C=O)cc1	
InChI=1S/C7H5FO/c8-7-3-1-6(5-9)2-4-7/h1-5H	InChI=1S/C7H5FO/c8-7-3-1-6(5-9)2-4-7/h1-5H
