15
gdb 53764	4.00877	0.6065	0.54073	5.7306	74.23	-0.2715	-0.0651	0.2064	1939.5163	0.10849	-457.764125	-457.754048	-457.753104	-457.802292	32.542	
C	-0.1053169216	 1.2709213814	-0.1308489508	-0.480525
C	-0.1495965952	-0.2417069618	-0.1536744394	 0.258591
O	 0.8185364228	-0.9354973598	-0.3714102475	-0.264705
C	-1.4540152308	-0.8328140976	 0.1077616965	 0.019746
C	-2.5328194299	-1.3283122853	 0.3247433032	 0.100303
C	-3.8307836911	-1.9380579866	 0.5748387306	-0.255841
O	-3.7550882994	-3.3529778749	 0.7988263231	-0.164668
C	-3.7176914763	-4.1409436037	-0.3016521432	 0.186928
O	-3.6383655236	-5.3271902602	-0.2318822449	-0.257149
H	 0.9096807946	 1.608202247	-0.3448086316	 0.15002
H	-0.8015356671	 1.6799497912	-0.8710434928	 0.148671
H	-0.4254261735	 1.6412478374	 0.8491321165	 0.150735
H	-4.280189908	-1.5255600672	 1.4822665075	 0.168943
H	-4.5127656334	-1.7184770559	-0.25774663	 0.152062
H	-3.7801477275	-3.5668472538	-1.2462368272	 0.086889
21.3687	31.495	82.3919	116.2422	131.573	143.8546	213.7711	341.7141	360.8393	394.1494	472.3551	600.1032	608.3778	667.2522	703.4873	958.0055	977.1447	1021.7822	1040.0792	1043.4982	1063.0088	1139.6298	1239.2078	1296.105	1382.7291	1386.1303	1430.9035	1459.9334	1468.0263	1472.3842	1775.2366	1879.0174	2330.1326	2954.4314	3023.2968	3039.2317	3095.2771	3103.2903	3154.1183
CC(=O)C#CCOC=O	CC(=O)C#CCOC=O	
InChI=1S/C6H6O3/c1-6(8)3-2-4-9-5-7/h5H,4H2,1H3	InChI=1S/C6H6O3/c1-6(8)3-2-4-9-5-7/h5H,4H2,1H3
