17
gdb 54311	2.77609	1.39938	1.04242	1.5927	68.27	-0.2519	-0.0318	0.2201	1146.9294	0.132631	-458.9309	-458.921771	-458.920827	-458.965766	32.269	
C	-0.3533561991	 1.7830082214	 0.0051441677	-0.485043
C	-0.0127811525	 0.3764527994	-0.4354316837	 0.317559
O	 1.0311149614	 0.0892722433	-0.9778986752	-0.298115
C	-1.0564998078	-0.6985192796	-0.21658872	 0.269674
C	-1.6753527877	-0.8703755494	 1.1148795667	-0.221846
O	-2.3840676054	-0.2279425006	 0.063207576	-0.267698
C	-0.9509231038	-1.8774141135	-1.141025818	 0.011777
C	-0.1654591606	-3.0601907492	-0.7803672342	-0.161849
O	-1.5955097791	-3.0781244603	-0.7264491134	-0.236313
H	 0.5210492011	 2.4201993963	-0.1291642084	 0.142807
H	-1.1878050918	 2.1599630304	-0.5952959884	 0.160883
H	-0.6853383126	 1.8149085178	 1.0469878411	 0.142087
H	-2.0289331787	-1.8654333495	 1.3730643288	 0.149811
H	-1.3729271055	-0.231804208	 1.9431030254	 0.118639
H	-1.0704148945	-1.6391072498	-2.1973875428	 0.112561
H	 0.2824549648	-3.664866829	-1.5658912423	 0.126833
H	 0.3388317218	-3.0932964596	 0.1835252907	 0.118235
51.3159	67.4208	97.7145	171.0318	220.9653	261.2708	293.1838	352.0022	434.1003	516.3214	567.674	615.1788	668.6761	824.2214	868.7855	887.9514	903.2207	946.3252	969.7427	1035.2734	1055.7516	1092.2701	1122.9501	1140.118	1155.5888	1164.2176	1175.7586	1287.9104	1302.045	1376.4286	1387.6613	1433.8373	1452.8378	1467.3744	1509.9468	1528.8544	1798.845	3049.9751	3094.6014	3095.7155	3112.3412	3120.4894	3158.8236	3186.3964	3195.231
CC(=O)C1(CO1)C1CO1	CC(=O)[C@]1(CO1)[C@H]1CO1	
InChI=1S/C6H8O3/c1-4(7)6(3-9-6)5-2-8-5/h5H,2-3H2,1H3	InChI=1S/C6H8O3/c1-4(7)6(3-9-6)5-2-8-5/h5H,2-3H2,1H3/t5-,6-/m1/s1
