23
gdb 82201	2.33982	1.74443	1.30444	0.3483	87.74	-0.2362	0.0801	0.3163	1105.1153	0.207016	-351.145107	-351.136611	-351.135667	-351.177395	34.88	
C	 0.0177935755	 1.5854260788	 0.0064026974	-0.390982
C	 0.0574264249	 0.0524728068	 0.0087272824	-0.062627
C	 0.7222933195	-0.5808903523	-1.2229871194	-0.041897
C	 2.182834444	-0.3497975249	-1.5271691546	-0.303013
C	 1.762308674	-1.5782551409	-0.7567449569	-0.038569
C	 1.7801826295	-1.556100769	 0.7605539965	-0.085282
C	 2.1987516483	-0.2962424061	 1.4862319272	-0.348781
C	 0.7324153769	-0.5739780566	 1.2497165671	 0.360835
C	-0.1532523005	-0.8525514123	 2.4430094517	-0.482058
H	 1.0257491035	 2.0109350655	-0.0186854817	 0.112438
H	-0.5238657132	 1.9632283079	-0.8670328728	 0.109776
H	-0.4838473873	 1.9692857796	 0.9013485783	 0.110159
H	-0.9816808765	-0.3038989273	 0.0156702306	 0.068508
H	 0.075790214	-0.801617125	-2.0663795229	 0.077764
H	 2.4882690214	-0.496988355	-2.5582941301	 0.104549
H	 2.7320266264	 0.4403080837	-1.0288713759	 0.109059
H	 1.8728291753	-2.5451661387	-1.2345453577	 0.07815
H	 1.9316380074	-2.5046535893	 1.2651686748	 0.075876
H	 2.55319236	-0.4125867918	 2.5061960341	 0.101335
H	 2.7076310577	 0.4944576845	 0.9480600771	 0.10675
H	-0.5624199251	 0.0743424024	 2.8641738204	 0.114976
H	-1.0004771161	-1.4939779214	 2.1718031294	 0.11198
H	 0.4033806806	-1.3541433286	 3.2413226251	 0.111054
138.85	200.2952	214.0481	226.017	238.7594	291.2815	379.8558	397.4716	493.3874	534.3541	595.9527	659.7728	675.1476	767.5675	799.2101	814.2889	847.6834	904.8085	922.3196	941.6229	966.047	996.8757	1013.1234	1038.8306	1045.8043	1053.7278	1072.2645	1080.7101	1104.9204	1108.0679	1122.4633	1124.5451	1154.3261	1208.1795	1242.1598	1287.4929	1326.4363	1346.8033	1356.9921	1379.9499	1405.7538	1410.4048	1418.907	1483.5076	1489.0717	1495.0925	1496.6613	1501.291	1512.7982	3005.9397	3015.9784	3031.3278	3071.8272	3092.7079	3095.5848	3104.0404	3127.1063	3134.6427	3151.4335	3155.6481	3173.2482	3207.6135	3216.6451
CC1C2CC2C2CC12C	C[C@H]1[C@H]2C[C@H]2[C@H]2C[C@@]12C	
InChI=1S/C9H14/c1-5-6-3-7(6)8-4-9(5,8)2/h5-8H,3-4H2,1-2H3	InChI=1S/C9H14/c1-5-6-3-7(6)8-4-9(5,8)2/h5-8H,3-4H2,1-2H3/t5-,6+,7+,8+,9-/m0/s1
