15
gdb 48651	2.56826	1.38055	1.12704	3.9009	76.18	-0.2487	-0.0431	0.2056	1099.3605	0.109836	-420.554554	-420.546317	-420.545373	-420.587526	30.616	
O	-0.0313486875	-0.0330114611	 0.0096722307	-0.257455
C	 0.0325717748	 1.1643329891	-0.1086833411	 0.076512
C	 1.2776101967	 1.9460202918	-0.0505271351	 0.327681
C	 1.3616634185	 3.3971139349	 0.3373154894	-0.372477
C	 1.8162675134	 3.0242534016	-1.0514162202	 0.026011
C	 3.1086684397	 2.2045809511	-0.9415231657	-0.128568
O	 2.5398088009	 1.3216931754	 0.0583440912	-0.298923
C	 1.26328604	 3.5524176734	-2.2453450863	 0.209355
C	 0.8211819868	 4.005333551	-3.2690730398	-0.397446
H	-0.8674218567	 1.7972583734	-0.2775968442	 0.082867
H	 0.421326776	 3.9373330857	 0.3682305423	 0.144565
H	 2.0902677629	 3.6708129495	 1.0950862979	 0.135686
H	 3.3357110248	 1.6526740479	-1.8577442322	 0.133684
H	 3.9973858459	 2.731564415	-0.5785071206	 0.119754
H	 0.4264993539	 4.4018173113	-4.1719312762	 0.198754
80.5533	139.6913	155.662	223.7378	253.8988	350.1574	412.8563	498.509	510.6531	525.3177	588.9178	619.0652	669.5586	746.9692	780.2507	806.6632	934.656	961.7662	993.2326	1022.7444	1036.2133	1079.0327	1110.3032	1157.0277	1230.6426	1267.179	1352.3863	1367.5635	1434.4993	1469.22	1514.0089	1812.1423	2233.4442	2881.3559	3042.9168	3105.2925	3122.0436	3222.5601	3499.9425
O=CC12CC1(CO2)C#C	O=C[C@]12C[C@]1(CO2)C#C	
InChI=1S/C7H6O2/c1-2-6-3-7(6,4-8)9-5-6/h1,4H,3,5H2	InChI=1S/C7H6O2/c1-2-6-3-7(6,4-8)9-5-6/h1,4H,3,5H2/t6-,7+/m0/s1
