21
gdb 36500	3.6943	0.96036	0.80855	0.6769	89.64	-0.2377	0.0299	0.2675	1441.5191	0.183079	-349.945079	-349.936197	-349.935253	-349.978743	34.418	
C	-0.101755023	-1.2340801742	 0.0437249768	-0.444541
C	-0.074192994	-0.0322311995	 0.0198111566	 0.301782
C	-0.015379048	 1.4247160909	-0.0180274542	-0.37953
C	 1.4211878087	 1.9917592893	 0.0038829451	 0.028799
C	 1.4134761319	 3.5214799381	-0.1284276608	-0.202928
C	 2.8401339593	 4.0786668861	-0.2420157675	-0.267571
C	 3.776147867	 3.44180295	 0.7523095584	-0.038917
C	 3.4783775364	 2.3365266047	 1.4340270561	-0.062417
C	 2.1869248962	 1.5775667324	 1.2708289798	-0.240299
H	-0.1372800938	-2.2948683854	 0.0657603625	 0.192384
H	-0.5291350272	 1.7817627971	-0.9203037646	 0.125373
H	-0.5766100403	 1.834757464	 0.833320461	 0.125403
H	 1.9547374123	 1.5775278149	-0.862269421	 0.084824
H	 0.8181632113	 3.8283643632	-0.9965148146	 0.08913
H	 0.9250580607	 3.951967615	 0.756557882	 0.097194
H	 3.2253006254	 3.9236988125	-1.261183279	 0.107221
H	 2.829928515	 5.1668683546	-0.0996052106	 0.101694
H	 4.7373694874	 3.9274251028	 0.9042994889	 0.081515
H	 4.1912460465	 1.9381070933	 2.1524142741	 0.082352
H	 1.5509020895	 1.7376183184	 2.1563726864	 0.101973
H	 2.3830511688	 0.4993949419	 1.2488999648	 0.116558
71.1719	104.4105	149.2436	203.4963	289.7639	349.8173	378.52	393.6598	417.1007	505.9272	553.8096	614.3974	634.1686	671.7146	742.6541	812.8505	873.2878	875.1298	928.4972	945.4754	963.8278	989.2712	1005.5747	1054.4216	1075.9532	1089.7706	1104.2987	1161.6607	1194.1594	1207.2831	1257.0426	1289.7714	1301.5752	1331.4894	1355.	1368.4765	1382.3289	1394.1706	1418.3081	1468.8084	1474.0307	1478.6689	1495.8677	1726.7015	2235.6285	2981.7441	2995.3372	3006.7316	3008.9447	3021.0987	3038.0907	3043.4853	3055.7409	3061.769	3139.9012	3163.8672	3506.7125
C#CCC1CCC=CC1	C#CC[C@H]1CCC=CC1	
InChI=1S/C9H12/c1-2-6-9-7-4-3-5-8-9/h1,3-4,9H,5-8H2	InChI=1S/C9H12/c1-2-6-9-7-4-3-5-8-9/h1,3-4,9H,5-8H2/t9-/m1/s1
