19
gdb 78586	2.47259	1.53814	1.21985	2.6644	74.82	-0.24	0.0634	0.3035	1086.1233	0.158495	-422.968654	-422.960167	-422.959223	-423.001178	33.311	
C	-0.0213281896	 1.5927006287	 0.0134525478	-0.526632
C	-0.0800968341	 0.0993590702	-0.0166829204	 0.300105
C	 0.8588086965	-0.9514576725	-0.5803443588	-0.167321
C	 0.4796265495	-0.9665564584	 0.9074408891	-0.167326
C	-0.8764378185	-1.6611660206	 1.0244456417	 0.15311
O	-1.6388178071	-1.2551025163	 2.1399249229	-0.445464
C	-1.2318510121	-0.9703470189	-0.3210877635	-0.196969
C	-0.2724612421	-1.6371925362	-1.3452446513	 0.153108
O	-0.4099442858	-1.2063467576	-2.681609015	-0.445464
H	 0.98730576	 1.9321099461	 0.2741959498	 0.129535
H	-0.2760070782	 2.0340452039	-0.9577617683	 0.118937
H	-0.7122211935	 2.0166895398	 0.7522375394	 0.118939
H	 1.8897279771	-0.827542059	-0.8928470944	 0.089955
H	 1.2346446195	-0.8536345068	 1.6775090925	 0.089955
H	-0.9059877481	-2.7560243747	 1.0352579487	 0.082674
H	-1.5628507016	-0.296643915	 2.2140799799	 0.277125
H	-2.2690425342	-0.7668558219	-0.5833826186	 0.075928
H	-0.2879032499	-2.7314939088	-1.3896666366	 0.082678
H	-0.3124897779	-0.2470215019	-2.6921423948	 0.277125
141.3005	164.4473	200.3058	244.524	288.5236	289.2724	351.0563	352.2265	417.8572	460.8496	549.6973	595.9135	785.7681	816.1509	839.6648	853.8686	858.6899	906.8699	976.0806	983.0077	1002.2174	1011.2075	1053.0399	1062.7352	1086.171	1108.68	1156.756	1159.538	1167.9177	1227.6417	1237.2244	1277.3098	1281.705	1291.1084	1300.3723	1411.7245	1432.4158	1439.191	1449.9548	1481.2711	1497.8278	3014.7836	3049.4739	3060.3821	3068.4866	3087.9047	3135.7126	3174.6923	3184.874	3791.0796	3791.7706
CC12C3C1C(O)C2C3O	C[C@@]12[C@H]3[C@@H]1[C@@H](O)[C@@H]2[C@H]3O	
InChI=1S/C7H10O2/c1-7-2-3(7)6(9)4(7)5(2)8/h2-6,8-9H,1H3	InChI=1S/C7H10O2/c1-7-2-3(7)6(9)4(7)5(2)8/h2-6,8-9H,1H3/t2-,3+,4-,5-,6+,7+
