14
gdb 131881	5.76387	0.81001	0.74379	2.4176	60.25	-0.2898	-0.0728	0.217	1436.2421	0.099836	-507.06699	-507.05892	-507.057976	-507.101035	28.033	
O	-0.0512656279	 1.4463617151	-0.0082035826	-0.412746
C	-0.004210858	 0.0367017325	-0.0207470479	-0.072847
C	-1.3856750854	-0.5859889666	 0.063430768	-0.084514
O	-2.0827105892	-0.1856560766	-1.1413322655	-0.25898
C	-3.3382710481	-0.5678057593	-1.2442392054	 0.52833
N	-4.0181426886	-1.2955907484	-0.3999380975	-0.191304
O	-5.2466655336	-1.3910893471	-0.988396236	-0.152731
N	-5.2317240837	-0.6992116991	-2.1860896999	 0.06285
N	-4.0875133005	-0.2020030084	-2.3461265407	-0.227419
H	-0.5476347063	 1.7240979173	-0.7857225742	 0.296981
H	 0.5129080595	-0.3510401749	-0.9116212375	 0.1088
H	 0.5692656763	-0.2722261527	 0.8589927193	 0.126758
H	-1.3425528586	-1.6798433658	 0.1077362551	 0.132871
H	-1.938871406	-0.2113071459	 0.9302732448	 0.143951
47.0457	75.5122	138.0014	175.7963	288.4416	358.0885	380.0605	475.0641	492.3599	653.6858	757.2585	763.6571	775.6976	895.0167	907.3694	949.1304	1040.6891	1063.4579	1089.9663	1118.4286	1126.7295	1233.515	1269.1696	1329.7487	1392.6062	1401.9043	1431.4696	1489.542	1493.3715	1519.9662	1638.969	2997.2278	3045.7837	3088.4562	3105.4552	3814.1527
OCCOC1=NON=N1	OCCOc1nonn1	
InChI=1S/C3H5N3O3/c7-1-2-8-3-4-6-9-5-3/h7H,1-2H2	InChI=1S/C3H5N3O3/c7-1-2-8-3-4-6-9-5-3/h7H,1-2H2
