15
gdb 80820	2.05707	1.70049	1.23033	2.2502	69.14	-0.2497	0.0021	0.2518	1041.8004	0.110203	-457.648528	-457.640373	-457.639429	-457.680974	31.547	
O	 0.1164927061	 1.4265651134	-0.1167168143	-0.440352
C	 0.1203801345	 0.0470815824	-0.0675847844	 0.154991
C	-0.0174909077	-0.643910248	 1.3195126284	-0.05469
O	-1.4224706473	-0.1552905293	 1.3744110346	-0.364192
C	-1.2699035283	-0.6924779663	-0.0157189314	 0.231521
C	-2.3730232595	-0.6479934172	-0.9176278609	 0.053058
C	-3.2765552838	-0.6293089358	-1.7116041697	-0.354194
C	-0.5479372458	-1.9190876842	 0.6462034923	 0.08875
O	 0.3673116539	-2.6826469468	-0.0739088488	-0.423899
H	-0.5664780382	 1.7091937988	 0.5089347142	 0.29181
H	 0.8622065971	-0.3441046882	-0.761485739	 0.116562
H	 0.5814599641	-0.5331098985	 2.2218959446	 0.106547
H	-4.0772112724	-0.6042461303	-2.409438051	 0.192282
H	-1.2239165109	-2.4975703604	 1.2834033917	 0.102816
H	-0.1112499819	-3.3756758096	-0.5399805664	 0.29899
114.154	143.9846	216.669	265.1622	305.8341	338.1335	352.063	484.9834	530.2872	566.3111	593.3021	614.4127	618.9673	688.9817	711.76	778.5918	819.8473	902.4261	918.0391	949.9196	982.5314	1112.3979	1154.7322	1167.0867	1178.1185	1218.762	1224.6139	1282.006	1292.1875	1315.2978	1418.0225	1458.7973	2231.9636	3072.1016	3141.3319	3149.0888	3497.9589	3739.6233	3823.1554
OC1C2OC1(C#C)C2O	O[C@H]1[C@H]2O[C@]1(C#C)[C@H]2O	
InChI=1S/C6H6O3/c1-2-6-4(7)3(9-6)5(6)8/h1,3-5,7-8H	InChI=1S/C6H6O3/c1-2-6-4(7)3(9-6)5(6)8/h1,3-5,7-8H/t3-,4-,5-,6+/m0/s1
