15
gdb 8804	5.0731	1.14747	0.94684	0.9386	60.3	-0.241	-0.0607	0.1804	1178.8592	0.116584	-436.971554	-436.962326	-436.961381	-437.006136	30.829	
C	-0.0152599257	 1.4404221923	 0.0491307963	-0.334971
N	 0.1521646293	 0.0058640952	-0.0384318988	-0.30206
C	 0.5903951476	-0.6234395904	-1.1472544592	 0.31422
O	 0.9011827519	-0.1005059638	-2.2060437105	-0.376364
C	 0.6707447732	-2.1528460704	-0.9530284732	 0.295167
O	 0.3631612861	-2.669090998	 0.093650404	-0.29358
C	 1.1581923538	-2.9061403333	-2.170454799	-0.168806
O	 1.1926875299	-4.2791848958	-1.885753213	-0.401816
H	 0.6197979527	 1.865734252	 0.833776932	 0.134652
H	 0.2727029598	 1.8661439271	-0.9133096222	 0.16931
H	-1.0568273126	 1.7053519468	 0.2609718471	 0.134653
H	-0.0583482427	-0.5942607285	 0.7468192902	 0.267792
H	 0.4868538535	-2.6446280794	-3.0049062185	 0.132889
H	 2.1409799924	-2.4860848523	-2.4407658915	 0.132881
H	 1.5047586609	-4.7357888715	-2.6721087036	 0.296033
65.8001	93.4404	100.5938	145.3458	157.7534	239.511	273.1642	333.005	367.4539	425.2958	509.1673	630.5536	717.7185	740.9954	844.953	965.6872	1001.4064	1119.5705	1152.319	1163.4968	1182.4877	1227.7895	1230.9176	1273.3717	1443.9265	1444.9001	1473.1068	1494.6948	1497.2451	1573.5015	1779.5755	1820.9586	2978.1193	2998.0979	3031.1219	3085.2055	3148.2981	3603.9129	3840.043
CNC(=O)C(=O)CO	CNC(=O)C(=O)CO	
InChI=1S/C4H7NO3/c1-5-4(8)3(7)2-6/h6H,2H2,1H3,(H,5,8)	InChI=1S/C4H7NO3/c1-5-4(8)3(7)2-6/h6H,2H2,1H3,(H,5,8)
