19
gdb 70462	3.54561	1.02439	0.91205	1.9102	81.18	-0.2452	0.0573	0.3025	1326.4944	0.15679	-385.827122	-385.818014	-385.81707	-385.861088	34.332	
C	-0.1633514628	 1.5121351556	 0.187845382	-0.507319
C	 0.1285789062	 0.0548215407	 0.0376377731	 0.401068
O	-0.7476374299	-0.8850142756	 0.6818384747	-0.290239
C	 0.6607919549	-0.9671956195	 0.9576830354	-0.039406
C	 1.2948235896	-1.7654161279	-0.1855566027	-0.259726
C	 0.7324599538	-0.6863333798	-1.1798479171	-0.049543
C	-0.2603973533	-1.144497236	-2.2558529393	-0.371263
C	 0.3493378219	-2.018590375	-3.2506394516	 0.298186
C	 0.8806797563	-2.7369920457	-4.0550887947	-0.448988
H	 0.7079032712	 2.1139436656	-0.0903128575	 0.125519
H	-0.9984193267	 1.8131844078	-0.4552713799	 0.131189
H	-0.4340845875	 1.7413604567	 1.221926316	 0.13636
H	 0.9606187793	-0.8935190594	 1.9973099034	 0.101303
H	 2.3863946208	-1.7847699248	-0.1579945812	 0.107831
H	 0.915027882	-2.7826624786	-0.3072852572	 0.116549
H	 1.5465338963	-0.1135401468	-1.6330353049	 0.084765
H	-1.0899132817	-1.6619149869	-1.7600273171	 0.14605
H	-0.6919882068	-0.2670622344	-2.7560519656	 0.124942
H	 1.3349647965	-3.374212606	-4.7724171458	 0.192724
62.3242	111.4249	155.3615	191.2722	211.9405	295.0974	341.8282	354.5532	439.6167	509.0495	548.6137	615.8933	631.3981	640.6581	727.3499	830.9507	846.0126	880.1692	904.7447	941.7562	967.269	974.8883	1044.7988	1065.2952	1084.8589	1104.8084	1147.537	1197.4934	1212.909	1241.7613	1263.0482	1278.6172	1317.0057	1363.438	1404.8175	1457.692	1473.0195	1480.0339	1486.2882	1495.9167	2236.8404	3017.9388	3032.56	3059.2963	3069.4829	3077.2283	3094.0796	3120.5104	3126.488	3179.8284	3507.2071
CC12OC1CC2CC#C	C[C@]12O[C@H]1C[C@H]2CC#C	
InChI=1S/C8H10O/c1-3-4-6-5-7-8(6,2)9-7/h1,6-7H,4-5H2,2H3	InChI=1S/C8H10O/c1-3-4-6-5-7-8(6,2)9-7/h1,6-7H,4-5H2,2H3/t6-,7+,8-/m1/s1
