18
gdb 7046	3.05836	0.93507	0.74744	0.2647	85.47	-0.2383	0.0475	0.2858	1565.875	0.150234	-310.626044	-310.615401	-310.614457	-310.664595	34.945	
C	 0.0400622511	 1.5033329031	 0.1178744712	-0.496776
C	 0.0402371608	 0.0489823064	 0.047701521	 0.034786
C	 0.0497622332	-1.1527204541	-0.0158338123	 0.117788
C	 0.033598407	-2.6197935526	-0.0792555183	-0.323688
C	-1.4128603717	-3.1675877486	 0.0165097284	-0.373225
C	 0.7102218841	-3.118293368	-1.2835249291	 0.117785
C	 1.2483329455	-3.5464036043	-2.2711356783	 0.034789
C	 1.9073390639	-4.0538696459	-3.4662294553	-0.496776
H	 0.5817767264	 1.8604248668	 1.0007897453	 0.146357
H	 0.51897579	 1.9426791986	-0.7642026487	 0.148712
H	-0.9797471504	 1.9002119413	 0.1725573441	 0.146248
H	 0.5837153563	-2.9988454509	 0.7950775958	 0.12725
H	-2.0057261152	-2.8193550098	-0.8323188419	 0.132643
H	-1.4003277337	-4.2605751184	 0.0099266071	 0.121394
H	-1.8844822409	-2.8197007736	 0.9392064033	 0.121395
H	 2.7797493401	-4.6658922354	-3.2115983192	 0.146362
H	 1.2298404526	-4.6753755342	-4.0622504597	 0.146245
H	 2.2533792085	-3.2345648734	-4.1061039289	 0.14871
19.5005	19.8961	61.8297	117.3515	140.6453	179.5308	253.9959	288.247	291.4438	322.3743	394.3944	471.9905	487.5425	559.0704	718.1898	766.3758	959.5394	1049.8156	1050.1685	1052.5606	1053.8617	1057.9015	1074.3631	1147.5753	1199.3139	1302.8129	1329.3744	1400.7745	1413.8443	1415.6859	1478.7931	1478.9706	1478.9915	1479.1337	1488.6556	1496.8948	2372.6042	2378.0133	2988.0095	3025.6308	3026.0183	3047.5168	3085.8549	3085.8974	3086.7265	3086.7669	3126.9931	3133.7428
CC#CC(C)C#CC	CC#CC(C)C#CC	
InChI=1S/C8H10/c1-4-6-8(3)7-5-2/h8H,1-3H3	InChI=1S/C8H10/c1-4-6-8(3)7-5-2/h8H,1-3H3
