13
gdb 27865	2.0537	1.99411	1.01206	5.416	63.75	-0.2505	-0.0209	0.2296	1062.7333	0.092203	-486.166153	-486.158782	-486.157838	-486.197998	27.954	
N	-0.0270608413	 1.3429017647	 0.1137713802	-0.569663
C	-0.0384424002	-0.009912452	 0.0390709833	 0.518316
N	-1.1930887026	-0.6379267154	 0.0300321549	-0.366653
C	-1.0818323697	-1.9846991523	-0.0006669986	 0.440037
O	-2.2600639105	-2.6103578169	-0.0035726882	-0.378105
N	-0.0038654202	-2.7341604756	-0.0321904425	-0.429845
C	 1.2097576846	-2.1075327294	-0.0261620293	 0.43186
O	 2.3011114627	-2.6256552177	-0.0458023472	-0.382777
N	 1.1381174779	-0.6736012929	 0.0086030647	-0.391596
H	 0.7948871844	 1.8644979516	-0.1385595399	 0.269682
H	-0.9204234119	 1.7915994265	-0.0105269575	 0.283997
H	-2.0538840076	-3.5562766428	-0.0294088041	 0.310611
H	 2.0293329543	-0.2002480675	 0.0444082643	 0.264136
136.7282	195.2683	198.6201	294.7727	339.8476	391.9891	488.2448	546.4207	564.9596	601.92	620.0489	625.9506	677.3009	745.5469	779.7233	817.1628	946.7714	1007.2159	1058.8763	1146.6849	1204.7481	1280.8352	1329.4408	1478.47	1536.9283	1595.1664	1642.3636	1667.9307	1838.8096	3604.7387	3616.1981	3730.178	3762.5142
NC1=NC(O)=NC(=O)N1	Nc1nc(O)nc(=O)[nH]1	
InChI=1S/C3H4N4O2/c4-1-5-2(8)7-3(9)6-1/h(H4,4,5,6,7,8,9)	InChI=1S/C3H4N4O2/c4-1-5-2(8)7-3(9)6-1/h(H4,4,5,6,7,8,9)
