19
gdb 72264	2.81015	1.8471	1.61487	2.3418	73.66	-0.226	0.0711	0.2971	925.9623	0.160902	-422.989383	-422.982384	-422.98144	-423.020257	29.104	
C	 0.0227467585	 1.5520050606	-0.00255936	-0.511209
C	-0.0094873136	 0.0444992993	-0.0697310949	 0.299761
C	 0.3712392428	-0.7433271404	-1.3402812525	-0.320456
C	-0.5015154161	-1.9041951265	-0.7886990784	 0.06372
O	 0.2541855455	-2.7827343566	 0.024267929	-0.259139
C	 1.0568228029	-2.0589164771	 0.9578954302	-0.090496
C	 0.3695823352	-0.7349179117	 1.2525917695	 0.020811
O	-1.0299910679	-1.0524464778	 1.5099585176	-0.291433
C	-1.2659999154	-0.8385726524	 0.1168934252	 0.071402
H	 1.0535189154	 1.926299646	 0.0104629215	 0.118876
H	-0.4794320206	 1.9955844257	-0.8691446215	 0.117182
H	-0.4769053441	 1.9155140521	 0.9017685197	 0.129723
H	-0.0797820187	-0.2800475973	-2.2240302864	 0.10157
H	 1.4200686378	-0.967893804	-1.5536958818	 0.103095
H	-1.0734247434	-2.5204853847	-1.4825696809	 0.08278
H	 1.1252823338	-2.6700098566	 1.8632872894	 0.1179
H	 2.0750679717	-1.8989380313	 0.569749672	 0.091022
H	 0.8315698236	-0.1669100518	 2.0652072649	 0.079085
H	-2.2951650575	-0.5739216955	-0.1352386225	 0.075807
213.8997	222.4468	269.6349	288.9685	394.6591	402.0776	461.2761	536.8932	642.141	694.6124	749.4135	797.2534	831.4699	857.3337	869.3379	905.2028	936.6724	979.7914	994.4816	1008.7267	1029.2583	1057.7569	1067.3472	1132.4286	1162.4604	1173.2989	1207.8979	1211.5102	1226.5596	1251.9674	1262.9173	1272.6962	1338.1212	1339.6958	1365.2968	1400.1936	1411.1591	1481.1778	1492.3292	1493.6904	1505.6292	2980.9845	3022.5997	3046.7544	3069.2522	3079.5994	3085.742	3090.6943	3098.1639	3099.9711	3114.5103
CC12CC3OCC1OC23	C[C@@]12C[C@H]3OC[C@@H]1O[C@@H]23	
InChI=1S/C7H10O2/c1-7-2-4-6(7)9-5(7)3-8-4/h4-6H,2-3H2,1H3	InChI=1S/C7H10O2/c1-7-2-4-6(7)9-5(7)3-8-4/h4-6H,2-3H2,1H3/t4-,5+,6-,7-/m1/s1
