23
gdb 98257	2.66567	0.95463	0.83051	2.9531	82.37	-0.2607	-0.0233	0.2374	1515.6475	0.202273	-425.454406	-425.443185	-425.44224	-425.491364	40.444	
C	-0.0421730678	 1.4949452314	-0.0798329337	-0.409674
C	 0.0926436259	-0.0324309164	-0.0331002944	 0.058443
C	 0.9344503842	-0.5273024294	-1.2196465395	-0.408401
C	 0.6835015122	-0.5315965018	 1.3100280259	-0.071169
C	-0.0973833922	-0.0452851831	 2.5494718318	-0.410116
C	 0.697407894	-2.0523595454	 1.3550311788	 0.368291
O	-0.2865394069	-2.7252326303	 1.1201444867	-0.349236
C	 1.9907079449	-2.7529706103	 1.7410803046	-0.140027
O	 1.8254545986	-4.1351953111	 1.8169483109	-0.420415
H	 0.9279794222	 1.983513493	 0.0737538126	 0.111577
H	-0.4175896897	 1.811785771	-1.0581516944	 0.116342
H	-0.7344895472	 1.875561639	 0.6752552964	 0.11823
H	-0.907197032	-0.4757706028	-0.1175653803	 0.09771
H	 1.9561944734	-0.1310423572	-1.1701279631	 0.111026
H	 0.9952594286	-1.6194405087	-1.2509556527	 0.125405
H	 0.4994160886	-0.1964649607	-2.1677724171	 0.117158
H	 1.7209488095	-0.1774698256	 1.3915139504	 0.075171
H	-0.0396246535	 1.0405498462	 2.6490055921	 0.126203
H	-1.1489516525	-0.3375105171	 2.4751549481	 0.139118
H	 0.307943304	-0.4824530249	 3.4678893693	 0.120252
H	 2.7541482698	-2.4728291179	 0.9936712492	 0.115985
H	 2.3396032338	-2.3340530014	 2.7003125785	 0.114788
H	 0.9010795722	-4.2869103664	 1.55916977	 0.293339
30.6431	64.1169	113.6151	175.9393	200.6923	208.3159	226.4183	251.3234	283.683	322.9295	339.0325	380.2833	423.4236	440.2069	468.4318	571.205	702.0282	794.0072	842.6724	916.2584	931.8427	962.6417	981.7562	988.0224	1024.7151	1074.6036	1104.2954	1142.8735	1153.1047	1190.111	1200.3436	1242.9184	1299.0392	1308.8454	1341.2002	1357.7635	1381.5791	1399.0511	1406.0748	1421.454	1450.3227	1485.2839	1487.2482	1490.3884	1497.8327	1503.1597	1505.4086	1516.5721	1787.4459	2959.0362	2977.9016	3006.6499	3025.2663	3027.5984	3040.0669	3042.1525	3090.0497	3097.0413	3106.1829	3107.8058	3114.6649	3132.026	3670.0791
CC(C)C(C)C(=O)CO	CC(C)[C@@H](C)C(=O)CO	
InChI=1S/C7H14O2/c1-5(2)6(3)7(9)4-8/h5-6,8H,4H2,1-3H3	InChI=1S/C7H14O2/c1-5(2)6(3)7(9)4-8/h5-6,8H,4H2,1-3H3/t6-/m1/s1
