19
gdb 17274	5.07541	1.06058	0.98443	2.1093	71.95	-0.2302	0.0857	0.3159	1230.8049	0.164359	-365.003957	-364.995467	-364.994523	-365.037661	30.731	
C	-0.0931419772	 1.4415830568	-0.3662795699	-0.411752
C	 0.2668960133	-0.006510405	-0.1144986203	 0.034364
C	 1.6621637222	-0.4155814637	 0.2182724546	-0.2538
N	 0.5981118027	-0.5319761551	 1.2112207991	-0.087977
C	 0.6329242655	 0.357560065	 2.3641309624	-0.180691
C	 1.2727687144	-0.362733537	 3.5300903181	 0.105468
C	 2.6775242258	-0.1518233957	 3.8989139231	-0.16953
O	 1.620963244	 0.4480453777	 4.6520072592	-0.239989
H	 0.5668192488	 2.1359200364	 0.1593435772	 0.122243
H	-0.0188109337	 1.6609494011	-1.4366227345	 0.123779
H	-1.123378985	 1.6527345009	-0.0586023397	 0.124938
H	-0.331925892	-0.7086381166	-0.6941289802	 0.090605
H	 2.0814472882	-1.3481273273	-0.1507291443	 0.113256
H	 2.3888660841	 0.3870953524	 0.3466284473	 0.10308
H	 1.1747083411	 1.3021811205	 2.1966716965	 0.090427
H	-0.3994536122	 0.6162964807	 2.6309060161	 0.111748
H	 0.8140726737	-1.3192184091	 3.7814017588	 0.099627
H	 3.2294940171	-0.9384251638	 4.4112616718	 0.11558
H	 3.2871532792	 0.5409207218	 3.3193937646	 0.108623
57.7495	78.0722	129.044	186.833	255.3524	300.9944	393.3835	398.0516	448.3726	511.1791	755.0888	804.9211	849.2262	880.33	898.16	911.1288	948.1187	1010.3875	1043.585	1050.1594	1110.0557	1114.5815	1135.143	1149.2671	1155.4454	1176.3526	1181.7034	1190.6291	1260.2041	1282.3152	1338.8737	1364.0657	1402.9164	1420.0376	1445.3274	1485.6448	1493.6722	1499.1549	1512.1372	1530.6922	2971.0597	3035.5171	3047.919	3080.2521	3082.603	3093.6447	3099.0203	3114.7482	3124.0565	3167.26	3170.7082
CC1CN1CC1CO1	C[C@H]1CN1C[C@H]1CO1	
InChI=1S/C6H11NO/c1-5-2-7(5)3-6-4-8-6/h5-6H,2-4H2,1H3	InChI=1S/C6H11NO/c1-5-2-7(5)3-6-4-8-6/h5-6H,2-4H2,1H3/t5-,6-,7?/m0/s1
