17
gdb 74187	2.41921	1.6637	1.07918	6.0501	78.72	-0.2165	-0.024	0.1925	1097.2246	0.138345	-418.023733	-418.016015	-418.01507	-418.055958	30.438	
N	 0.0862644749	 1.3496469531	 0.2541408098	-0.577462
C	-0.0121891349	-0.000213462	 0.0193160702	 0.450995
C	-1.1908547889	-0.6540338759	-0.1281612209	-0.309693
C	-1.3008272905	-2.0970290756	-0.2646217187	 0.384135
O	-2.3605030988	-2.6517869405	-0.505737257	-0.369017
C	-0.0441833398	-2.9501181858	-0.0330855687	-0.332354
C	 1.2723542283	-2.2136612599	-0.0780671187	-0.031683
N	 1.5709264592	-1.4471541952	-1.2948883462	-0.326621
C	 1.2836906481	-0.7275741993	-0.0263226339	-0.162236
H	 0.9307614475	 1.8122209158	-0.0451019768	 0.257442
H	-0.7498652757	 1.8994721886	 0.1253908358	 0.26119
H	-2.1274073369	-0.1055715312	-0.1690633595	 0.080763
H	-0.1633460462	-3.4122022903	 0.9553445226	 0.12604
H	-0.0590079501	-3.7674600105	-0.7603871921	 0.133693
H	 2.1075949381	-2.7161692829	 0.4056347365	 0.091288
H	 2.5746969852	-1.4427613908	-1.4625092886	 0.234269
H	 2.1112945106	-0.2344546477	 0.4783685463	 0.089251
76.9847	162.1426	257.0539	331.72	339.2636	410.4055	473.3302	491.1139	505.1717	519.9141	583.3032	642.0076	696.8367	799.5674	841.073	861.2394	879.8194	890.0209	949.2661	984.2236	1003.69	1095.862	1113.9538	1160.0824	1197.2826	1220.1807	1253.4854	1262.4432	1287.3975	1337.3588	1368.5475	1427.8331	1446.2485	1484.695	1642.4717	1682.306	1745.7985	3036.4761	3090.0655	3121.3093	3135.7951	3171.5233	3491.0904	3573.3785	3682.8876
NC1=CC(=O)CC2NC12	NC1=CC(=O)C[C@H]2N[C@@H]12	
InChI=1S/C6H8N2O/c7-4-1-3(9)2-5-6(4)8-5/h1,5-6,8H,2,7H2	InChI=1S/C6H8N2O/c7-4-1-3(9)2-5-6(4)8-5/h1,5-6,8H,2,7H2/t5-,6+/m1/s1
