21
gdb 39329	2.66913	1.7954	1.31252	1.3612	81.24	-0.2233	0.0862	0.3095	1036.8134	0.18591	-387.097314	-387.090037	-387.089092	-387.128797	30.176	
C	-0.1432127827	 1.3899218704	-0.1036866651	-0.373022
C	 1.294847831	 0.8812234265	-0.0288335329	-0.118328
C	 1.9723507991	 0.8361736557	 1.3412396354	-0.233195
C	 1.518997804	-0.5126174699	 1.9586017501	-0.210001
C	 0.114236533	-0.7922133141	 1.3739911528	-0.084061
C	-0.1823356972	-2.2508263969	 0.9565013857	-0.239538
C	 0.1349702148	-2.2432000252	-0.5506912417	-0.099905
O	-0.2526085662	-0.9476985073	-1.0036311325	-0.288083
C	 0.1140607537	-0.0666572768	 0.0166876293	 0.475057
H	-0.5616613644	 1.9296573858	 0.7424018249	 0.104272
H	-0.4741917549	 1.7445983498	-1.0746243197	 0.118452
H	 1.8963427035	 0.9778544962	-0.9254218383	 0.089005
H	 3.0613781152	 0.8974189101	 1.2611967759	 0.099852
H	 1.6550251579	 1.6787277836	 1.9682535319	 0.097501
H	 2.2052961282	-1.301622998	 1.6263192505	 0.094656
H	 1.534627926	-0.5139773655	 3.0530011428	 0.092102
H	-0.6636303239	-0.4094594933	 2.0420315996	 0.071805
H	 0.4118084214	-2.9848367847	 1.5077244897	 0.099242
H	-1.2392625394	-2.4870597188	 1.1102839746	 0.106629
H	 1.2110616588	-2.4031537225	-0.7244126652	 0.090599
H	-0.4232686481	-2.9828953252	-1.1292149378	 0.106959
121.6641	180.1221	212.2416	356.1551	382.752	427.1021	540.672	556.9629	584.2542	646.785	787.6033	800.9421	821.4138	847.8769	873.8571	912.629	920.7044	947.5964	970.618	986.2167	1021.0279	1029.3901	1056.3624	1062.3862	1067.8648	1091.9047	1146.8448	1185.5222	1207.6293	1220.8941	1228.9154	1246.7707	1271.8985	1290.276	1321.7206	1327.0246	1340.0055	1359.4603	1373.7836	1402.2126	1478.197	1488.7239	1489.9933	1502.1285	1517.5883	2977.8321	3024.8724	3027.3426	3045.0251	3059.5388	3080.309	3088.9125	3097.9326	3107.7874	3108.7197	3177.1021	3202.8082
C1C2CCC3CCOC123	C1[C@H]2CC[C@@H]3CCO[C@]123	
InChI=1S/C8H12O/c1-2-7-5-8(7)6(1)3-4-9-8/h6-7H,1-5H2	InChI=1S/C8H12O/c1-2-7-5-8(7)6(1)3-4-9-8/h6-7H,1-5H2/t6-,7-,8+/m1/s1
