20
gdb 87489	2.90869	1.41761	1.15559	2.3928	79.73	-0.2444	0.0758	0.3201	1132.4082	0.171673	-403.068631	-403.060528	-403.059583	-403.100899	32.61	
C	 0.0252034171	 1.5345276813	-0.0990376983	-0.392598
C	 0.0206605577	 0.0325294216	 0.0461866669	-0.148562
N	 1.3529434611	-0.6493345139	-0.0719526392	-0.443635
C	 0.6178884849	-0.6634727153	 1.1908641759	 0.444204
C	 1.1370948881	-0.2339791032	 2.5813247692	-0.181247
C	-0.2074314275	-0.7895797697	 3.1355578393	-0.22818
C	 0.2407727695	-1.851965341	 2.0893705801	-0.203478
C	 1.6837740251	-1.6933598515	 2.7070351087	 0.191223
O	 2.8221941975	-2.0775500446	 2.0018860218	-0.457028
H	 0.8905643183	 1.9669113724	 0.4096568006	 0.127086
H	 0.0726540229	 1.8240580043	-1.1540436108	 0.1226
H	-0.8832422076	 1.969767581	 0.3314699903	 0.117883
H	-0.8053131549	-0.4741675363	-0.4518324082	 0.089728
H	 1.233365008	-1.5391147683	-0.5529795552	 0.233384
H	 1.6426279766	 0.6923910206	 2.8538215019	 0.079445
H	-0.2024577217	-1.1070140797	 4.1813958906	 0.096218
H	-1.1045918154	-0.2202017705	 2.8886870001	 0.101207
H	-0.2743200171	-2.7703093459	 1.8038278585	 0.074002
H	 1.783749808	-2.0759310857	 3.7267210645	 0.079658
H	 2.8598219292	-1.5534964655	 1.1906604633	 0.29809
132.6576	151.1432	188.6499	229.592	333.8137	373.8089	423.2594	450.7833	498.0548	525.8731	595.9411	667.7682	765.2378	814.8153	831.5557	862.5967	895.3618	906.8846	916.5994	1003.0778	1014.3483	1031.1137	1052.0972	1063.23	1075.6253	1098.0519	1117.3559	1130.1371	1159.5755	1184.8374	1202.625	1223.3564	1240.3253	1251.2074	1274.4755	1331.7917	1358.4434	1413.104	1459.2852	1477.9467	1491.7058	1506.6028	1531.7838	3035.0362	3063.8134	3075.9408	3098.1261	3107.0378	3107.1662	3119.746	3127.2798	3135.3733	3477.3577	3752.3073
CC1NC11C2CC1C2O	C[C@H]1N[C@]21[C@H]1C[C@@H]2[C@H]1O	
InChI=1S/C7H11NO/c1-3-7(8-3)4-2-5(7)6(4)9/h3-6,8-9H,2H2,1H3	InChI=1S/C7H11NO/c1-3-7(8-3)4-2-5(7)6(4)9/h3-6,8-9H,2H2,1H3/t3-,4-,5+,6-,7+/m1/s1
