19
gdb 107739	3.49732	1.41768	1.17492	2.179	82.78	-0.2031	-0.0266	0.1765	1079.1134	0.159379	-385.779516	-385.771664	-385.77072	-385.811709	31.053	
O	 0.5712622886	 0.1011515613	-0.7039847327	-0.414679
C	-0.3045280818	 0.4089413523	 0.3726591843	-0.179346
C	-1.5949940543	-0.3510359706	 0.1972778297	 0.302266
C	-2.4994337956	-0.7197773411	 1.4399935388	-0.320655
C	-3.0609844629	-1.7516850652	 0.4551051917	 0.043356
C	-4.131701419	-1.3581043875	-0.2636919675	-0.101285
C	-3.6658685366	-0.7687916673	-1.5916495285	-0.267855
C	-2.1712690133	-0.5848029581	-1.2657308581	-0.081522
C	-1.7740578879	-1.7214097334	-0.3914695768	-0.13586
H	 1.3521471518	 0.6561116089	-0.6222653163	 0.290098
H	 0.145104501	 0.124267287	 1.3391384298	 0.086586
H	-0.5091963226	 1.4914483148	 0.4173661015	 0.090476
H	-1.84831527	-1.0960844884	 2.2395233391	 0.099395
H	-3.202858965	 0.0150593362	 1.8441566447	 0.096441
H	-5.0322832383	-0.9761945082	 0.2102898921	 0.091993
H	-3.7845466626	-1.3821540537	-2.4970190289	 0.106997
H	-4.2168247458	 0.163576992	-1.7678446682	 0.105148
H	-1.48215789	-0.2320636154	-2.027783717	 0.096543
H	-1.0505783957	-2.5082756535	-0.5584340377	 0.091901
84.8966	182.8474	212.4457	249.7871	280.5933	356.5014	420.4392	476.5967	564.7852	645.9401	685.2065	741.4727	797.3666	853.9601	869.9153	914.2567	921.8257	935.3992	970.3869	998.5094	1010.1597	1021.1544	1049.6949	1066.4437	1081.3412	1126.0702	1137.2482	1182.9863	1190.9951	1216.6162	1236.2416	1257.0243	1268.5208	1292.5453	1303.4943	1398.6544	1458.0052	1474.9427	1500.2907	1518.1694	1593.2862	2951.1055	2975.8784	2994.2509	3012.5774	3044.8983	3079.6282	3156.6206	3164.7565	3200.431	3832.1877
OCC12CC3=CCC1C23	OC[C@@]12C[C]3[CH]C[C@@H]1[C@@H]23	
InChI=1S/C8H10O/c9-4-8-3-5-1-2-6(8)7(5)8/h1,6-7,9H,2-4H2	InChI=1S/C8H10O/c9-4-8-3-5-1-2-6(8)7(5)8/h1,6-7,9H,2-4H2/t6-,7+,8+/m1/s1
