23
gdb 118498	1.71611	1.22201	0.76276	1.7894	82.91	-0.2514	0.081	0.3324	1571.516	0.202891	-425.403037	-425.392179	-425.391234	-425.439966	38.319	
C	-0.7944910081	 1.2929326712	-2.5053302837	-0.382706
C	 0.2573624409	 0.4765777358	-1.7729647286	-0.039046
O	-0.084369836	-0.8935123136	-1.8908270423	-0.256586
C	 0.716374278	-1.7887834871	-1.135966994	 0.102511
C	-0.0230197299	-3.1260361497	-1.0716162186	-0.187957
C	-1.3669401834	-3.034947298	-0.3460749121	-0.389877
C	 2.0881959857	-1.9550014771	-1.768038705	 0.071552
C	 3.2837045746	-1.2647532262	-1.2662133832	-0.181773
O	 3.0564705211	-2.643619008	-0.9739115931	-0.237389
H	-0.8297635494	 1.0130236906	-3.5620773751	 0.126933
H	-1.784048069	 1.1203050373	-2.0728279878	 0.126459
H	-0.5648391606	 2.3605505776	-2.436854058	 0.114172
H	 1.2541470373	 0.6700834434	-2.1975604042	 0.091426
H	 0.2977884528	 0.763174049	-0.7087835211	 0.085244
H	 0.8551859645	-1.4010473962	-0.111415194	 0.063592
H	-0.1742408016	-3.4829400777	-2.0981605518	 0.100849
H	 0.6358707352	-3.8466168012	-0.5753250269	 0.115939
H	-1.2327083274	-2.725504569	 0.696677453	 0.110074
H	-2.0181538858	-2.304781646	-0.8327949743	 0.12979
H	-1.8772820338	-4.0026696914	-0.3424660892	 0.11041
H	 2.0664834844	-2.2537655776	-2.8180058334	 0.096621
H	 4.1151541024	-1.0596880668	-1.9392477136	 0.116376
H	 3.1956675382	-0.5883164291	-0.4165780931	 0.113386
59.7724	74.7059	83.7432	99.1159	165.2247	170.8156	232.8089	250.4844	267.565	324.707	370.8967	430.9928	501.8703	546.0503	767.5552	820.7327	851.2902	872.1632	896.2905	908.0572	975.3435	996.1857	1042.8814	1076.4187	1101.3473	1121.7086	1145.6424	1153.2131	1164.7859	1177.4624	1182.1361	1191.7013	1277.3088	1289.5071	1296.2872	1308.1562	1344.0645	1386.4948	1401.1874	1405.6758	1432.4508	1447.2193	1478.7406	1483.6014	1496.7034	1499.9629	1509.6397	1527.3488	1530.7445	2951.2009	2965.7071	3000.357	3032.1186	3037.0889	3044.4354	3078.643	3079.8459	3095.5963	3102.104	3118.6927	3121.5665	3125.9832	3166.7457
CCOC(CC)C1CO1	CCO[C@@H](CC)[C@H]1CO1	
InChI=1S/C7H14O2/c1-3-6(8-4-2)7-5-9-7/h6-7H,3-5H2,1-2H3	InChI=1S/C7H14O2/c1-3-6(8-4-2)7-5-9-7/h6-7H,3-5H2,1-2H3/t6-,7+/m0/s1
