16
gdb 44377	3.494	1.6543	1.38316	4.1727	67.36	-0.2462	0.0071	0.2533	924.2483	0.126562	-437.875006	-437.868506	-437.867561	-437.905981	26.131	
O	 0.0330195212	 0.173919479	-0.9285744882	-0.326968
C	 0.0187246476	 1.1213653105	-0.1926529749	 0.405185
C	-1.2887338841	 1.736713851	 0.3138441254	-0.313784
N	-1.2536045885	 3.1141636442	 0.8155248342	-0.085963
C	-0.6937455069	 3.4306404482	 2.1184333345	-0.040783
C	 0.4255645144	 2.4598135409	 2.5138443507	-0.284448
C	 1.1071571461	 2.7687430003	 1.1423235578	 0.089517
O	 1.1807720291	 1.6936147854	 0.2014189936	-0.222124
C	 0.0184927103	 3.8048483394	 0.8429640947	-0.080609
H	-1.9791332848	 1.6920098492	-0.5326349395	 0.154675
H	-1.697517826	 1.0686596412	 1.0802765163	 0.145816
H	-1.2779662121	 4.0537786969	 2.7847006702	 0.107541
H	 1.027399267	 2.8228047611	 3.3498594172	 0.121347
H	 0.149341199	 1.4185390063	 2.7042706861	 0.114839
H	 2.1236788386	 3.1501116394	 1.2277537397	 0.110111
H	 0.132936509	 4.7500958268	 0.3256354223	 0.105646
92.4242	223.2402	364.8208	406.4251	448.3944	486.315	549.4358	579.8569	732.1386	743.4926	787.9868	850.7222	857.4336	891.4567	913.8231	969.1882	973.9558	1021.0292	1038.4279	1055.6147	1087.9179	1109.2717	1163.602	1193.0399	1210.0351	1237.7883	1263.0737	1273.0771	1281.7192	1334.7794	1376.9845	1403.7816	1462.3738	1487.9837	1851.479	3052.4095	3060.8892	3099.5424	3114.0458	3129.1291	3181.0782	3194.1297
O=C1CN2C3CC(O1)C23	O=C1CN2[C@H]3C[C@@H](O1)[C@@H]23	
InChI=1S/C6H7NO2/c8-5-2-7-3-1-4(9-5)6(3)7/h3-4,6H,1-2H2	InChI=1S/C6H7NO2/c8-5-2-7-3-1-4(9-5)6(3)7/h3-4,6H,1-2H2/t3-,4+,6-,7?/m0/s1
