22
gdb 6840	3.1562	1.41997	1.28023	1.6929	78.21	-0.2395	0.0779	0.3174	1117.4602	0.198587	-350.201683	-350.192184	-350.19124	-350.235803	34.992	
C	-0.0615919737	 1.587258712	-0.2160891481	-0.382758
C	 0.0451910961	 0.0767936167	 0.0230338417	-0.198072
C	-1.3219036778	-0.5747404123	 0.1295256634	 0.139272
O	-2.0854717752	-0.4753339904	-1.0974893771	-0.298622
C	-2.4877760019	-1.8548510036	-1.0087805854	-0.101687
C	-1.5034765994	-2.1269437896	 0.1575230201	 0.253516
C	-0.2824133521	-2.9418529537	-0.2694924274	-0.44507
C	-2.1176999154	-2.6850757955	 1.4379911632	-0.455328
H	 0.9278126456	 2.0417881097	-0.3229815715	 0.109012
H	-0.631472031	 1.7894841913	-1.1273170977	 0.138602
H	-0.5717387802	 2.0853112893	 0.6158606354	 0.112072
H	 0.6098964321	-0.3854897202	-0.7931328345	 0.098673
H	 0.5992236771	-0.1209374342	 0.9505158302	 0.093169
H	-1.8788436222	-0.1003169283	 0.9550659294	 0.057235
H	-3.5493446425	-1.9562555573	-0.7417752792	 0.089049
H	-2.3033320981	-2.3972222989	-1.9443504509	 0.095649
H	 0.1363295706	-2.5844750105	-1.2145107357	 0.123326
H	 0.509215923	-2.9066667541	 0.4868455954	 0.114647
H	-0.5605941258	-3.9928984231	-0.407672453	 0.112063
H	-2.4173699384	-3.7314226237	 1.3086287674	 0.114243
H	-1.4009655587	-2.6490114869	 2.2667519696	 0.115229
H	-3.0043534823	-2.1166900767	 1.7369107647	 0.11578
58.7208	87.9413	164.0182	205.0704	224.1619	252.3426	276.4058	310.2448	345.5418	377.2521	480.623	493.4001	638.5433	758.6272	830.7511	869.2597	926.5315	938.9284	960.4684	964.5605	996.2932	1026.5259	1031.497	1074.1621	1114.4761	1141.9842	1169.0273	1213.8636	1242.0921	1272.8002	1281.7013	1310.6373	1334.6618	1369.6657	1403.7021	1405.2593	1415.318	1424.9857	1472.1996	1486.389	1488.8819	1497.8782	1503.5476	1507.6914	1509.0463	1527.3509	2953.8795	2994.9742	3021.7714	3022.2208	3030.0095	3035.8502	3045.935	3074.0917	3085.4565	3091.6734	3097.482	3103.2513	3108.9355	3118.9204
CCC1OCC1(C)C	CC[C@H]1OCC1(C)C	
InChI=1S/C7H14O/c1-4-6-7(2,3)5-8-6/h6H,4-5H2,1-3H3	InChI=1S/C7H14O/c1-4-6-7(2,3)5-8-6/h6H,4-5H2,1-3H3/t6-/m1/s1
