20
gdb 6737	5.49242	0.70891	0.66843	1.4705	80.7	-0.24	0.0571	0.2971	1738.7783	0.174456	-348.988615	-348.978301	-348.977356	-349.02617	35.926	
C	-0.1029338157	 1.1972570998	-0.196030745	-0.362866
C	 1.2332679092	 0.4785789782	 0.0659530146	-0.31379
C	 1.2836079466	-0.1821011285	 1.3668099847	 0.094336
C	 1.3019229377	-0.7069614768	 2.4516327352	 0.031285
C	 1.3205556599	-1.3811593907	 3.7439436085	-0.364988
C	 1.3186055621	-2.9260885793	 3.6452834916	 0.139921
C	 2.5646868868	-3.4759574977	 2.9566454154	-0.397735
O	 1.1360430415	-3.492197886	 4.9370838809	-0.424149
H	-0.2847563565	 1.9661131792	 0.5598110287	 0.12763
H	-0.093380428	 1.6757980669	-1.1799915799	 0.112761
H	-0.9366014967	 0.4905222885	-0.1640651756	 0.127346
H	 1.4111183499	-0.2607399776	-0.7258379023	 0.126177
H	 2.0571758623	 1.2001983	-0.0088593321	 0.126783
H	 2.2052856679	-1.0687815452	 4.3186366076	 0.10958
H	 0.4473643469	-1.0883793175	 4.3387414173	 0.133254
H	 0.4292043132	-3.226402956	 3.0804260141	 0.099338
H	 2.5173875988	-4.5666998653	 2.9002868276	 0.122981
H	 2.6634335299	-3.0707990028	 1.9461341429	 0.133688
H	 3.4678842536	-3.1995251026	 3.5168833594	 0.102315
H	 1.9539709506	-3.3656145365	 5.4308322066	 0.276133
7.3592	62.9857	87.7824	140.0912	203.7937	245.9887	280.4974	293.3614	313.8764	369.5722	387.9555	456.59	496.8516	523.6715	758.6715	785.3375	832.6889	892.2153	950.108	965.6439	1063.3811	1078.462	1104.2549	1110.4855	1130.6268	1165.5417	1218.292	1279.1998	1286.6987	1340.1741	1351.45	1369.5358	1401.0497	1408.2915	1422.5378	1469.2928	1475.9384	1493.361	1494.3332	1494.554	1505.7127	2363.3986	2997.4686	3016.6883	3021.1741	3042.9257	3043.0933	3049.2909	3061.6866	3099.2679	3116.065	3122.6808	3128.3313	3796.8842
CCC#CCC(C)O	CCC#CC[C@@H](C)O	
InChI=1S/C7H12O/c1-3-4-5-6-7(2)8/h7-8H,3,6H2,1-2H3	InChI=1S/C7H12O/c1-3-4-5-6-7(2)8/h7-8H,3,6H2,1-2H3/t7-/m1/s1
