17
gdb 131511	3.02739	1.54747	1.12212	3.0527	73.81	-0.2352	0.0182	0.2534	1061.9251	0.139836	-418.029829	-418.022417	-418.021473	-418.061861	28.673	
O	-0.2596876938	 1.5128916852	-0.2015014219	-0.428074
C	 0.0605124141	 0.1383243319	 0.0145411947	-0.012552
C	-1.2050196644	-0.7778073645	 0.1798641767	-0.227597
C	-1.4063926433	-1.5870622043	-1.1451963943	-0.364765
C	-0.0616867229	-1.4132138384	-1.7774962025	 0.363906
C	 0.7558299505	-0.5030953863	-1.1501235874	 0.174463
C	 1.9383171498	-0.4853575792	-1.922665746	-0.168644
N	 1.8534950466	-1.3310356839	-2.9486187807	-0.221146
N	 0.6163368116	-1.8868684198	-2.8426203387	-0.328548
H	-0.5132821677	 1.6054269467	-1.126236193	 0.273631
H	 0.6472639343	 0.1426280486	 0.9380465998	 0.090282
H	-1.0349986329	-1.4783397553	 1.0027924001	 0.111698
H	-2.0726037714	-0.1677542908	 0.4408490782	 0.112591
H	-1.668343968	-2.631487146	-0.9470875368	 0.118352
H	-2.2087385159	-1.1744178229	-1.7692795929	 0.119316
H	 2.842794773	 0.0896205099	-1.7880296947	 0.116161
H	 0.3394931402	-2.574122821	-3.5227174207	 0.270928
85.8956	151.0896	227.9486	296.7184	330.7822	431.2238	468.4299	509.7853	613.7694	680.7601	691.5707	714.9287	775.7354	813.9626	891.0689	907.8919	964.8352	981.9388	1010.2289	1063.6067	1093.4906	1123.4612	1166.1249	1203.8283	1222.3384	1260.1185	1275.8524	1290.4756	1329.8304	1339.0749	1400.6332	1433.9676	1450.3681	1476.518	1497.9768	1536.1204	1604.2275	3029.4015	3054.7753	3066.0452	3073.6701	3117.3889	3245.2368	3673.5701	3804.3642
OC1CCC2=C1C=NN2	O[C@H]1CCc2c1cn[nH]2	
InChI=1S/C6H8N2O/c9-6-2-1-5-4(6)3-7-8-5/h3,6,9H,1-2H2,(H,7,8)	InChI=1S/C6H8N2O/c9-6-2-1-5-4(6)3-7-8-5/h3,6,9H,1-2H2,(H,7,8)/t6-/m0/s1
