18
gdb 76781	2.26728	1.61475	1.06708	4.3063	74.76	-0.2448	0.0137	0.2584	1154.0332	0.146001	-439.083833	-439.074613	-439.073669	-439.117913	32.925	
C	-0.0176185161	 1.6206157508	-0.0306538048	-0.410797
C	 0.0560468715	 0.1021328702	 0.0249182485	-0.032372
N	 1.1145832619	-0.5223127148	-0.7926045528	-0.108132
C	 1.3560658156	-0.5317346733	-2.2105920925	-0.348952
C	 1.7544261773	-1.1760441404	 0.2359725089	 0.366654
O	 2.7038566349	-1.9140117329	 0.268581336	-0.382087
C	 0.7670029951	-0.5543897228	 1.2316850898	 0.26456
C	 0.9643450711	-0.107883835	 2.6095905234	-0.256917
O	 0.1321960183	-1.2321635685	 2.287205199	-0.258674
H	 0.95447501	 2.0684134691	 0.1973495975	 0.124558
H	-0.3323721836	 1.9658743607	-1.021028776	 0.125769
H	-0.7507202886	 1.9905059438	 0.6931937932	 0.131048
H	-0.9294406187	-0.3455977292	-0.1588672173	 0.097342
H	 1.5349298985	 0.4779039092	-2.5986227277	 0.131178
H	 2.2466429045	-1.1393032923	-2.3890884423	 0.164735
H	 0.5137435291	-0.9707769901	-2.7600538154	 0.131
H	 1.8960737795	-0.3492828478	 3.1174118475	 0.138748
H	 0.4371213298	 0.773675923	 2.9708127252	 0.122339
88.303	107.9675	151.8823	196.8271	220.7479	227.8365	248.1823	259.4836	341.5376	491.2438	520.509	583.1638	726.6805	747.9483	797.1221	876.3845	909.8283	957.9906	1007.3178	1064.966	1068.9372	1114.8485	1129.9132	1149.7287	1154.8669	1169.4834	1224.0411	1286.8808	1379.7293	1405.2198	1413.7223	1442.116	1455.5954	1482.9383	1490.7593	1497.7709	1517.3169	1535.7054	1882.6814	3014.7271	3022.4541	3035.4856	3067.3069	3089.4063	3103.6409	3115.0734	3127.9395	3182.8111
CC1N(C)C(=O)C11CO1	C[C@H]1N(C)C(=O)[C@]21CO2	
InChI=1S/C6H9NO2/c1-4-6(3-9-6)5(8)7(4)2/h4H,3H2,1-2H3	InChI=1S/C6H9NO2/c1-4-6(3-9-6)5(8)7(4)2/h4H,3H2,1-2H3/t4-,6-/m1/s1
