17
gdb 27879	1.95441	1.77559	0.93633	2.5823	80.76	-0.2192	0.0041	0.2233	1215.6003	0.137534	-418.095185	-418.086828	-418.085883	-418.127961	32.351	
C	-0.0037139059	 1.4708097579	 0.0695202352	-0.46553
C	 0.0259089786	-0.0333766812	-0.001749567	 0.340794
C	 0.1243838497	-0.6973460909	-1.214209709	-0.266805
C	 0.1491470927	-2.1051762386	-1.2314479312	 0.384157
N	 0.3003924672	-2.7929959222	-2.4202990941	-0.589748
C	 0.0692969034	-2.777385513	-0.0121645852	-0.321125
C	-0.0259491126	-2.0068421521	 1.1439725377	 0.439455
O	-0.1047855936	-2.6456575251	 2.333231564	-0.425681
N	-0.0497150975	-0.6797630176	 1.1761468325	-0.444804
H	 0.0567631117	 1.9258735422	-0.9219045973	 0.114187
H	-0.9236574428	 1.8105784203	 0.5563699207	 0.13522
H	 0.8311588969	 1.8383337349	 0.6751304957	 0.136454
H	 0.1871637918	-0.1395645606	-2.1423327248	 0.075924
H	 0.0325911567	-2.3007984608	-3.2582142022	 0.252002
H	 0.0135141753	-3.7595243415	-2.4184866649	 0.252955
H	 0.0831891483	-3.8587312433	 0.0517977733	 0.090255
H	-0.1640366297	-1.9432435984	 2.9957810366	 0.292289
82.8458	193.961	207.5381	239.4514	289.5688	325.6912	375.4757	499.5081	510.1503	528.7752	533.8355	556.2715	599.4995	617.8383	681.3059	759.667	829.5458	848.7391	978.67	999.5995	1003.6716	1057.9317	1071.4999	1109.0357	1192.1767	1211.7261	1284.5615	1347.7151	1401.8278	1432.6319	1466.5486	1475.1782	1508.5481	1531.2551	1619.0286	1653.655	1669.7212	3039.2707	3098.2041	3124.8723	3180.4211	3198.7721	3582.4635	3687.6385	3764.1116
CC1=CC(N)=CC(O)=N1	Cc1cc(N)cc(O)n1	
InChI=1S/C6H8N2O/c1-4-2-5(7)3-6(9)8-4/h2-3H,1H3,(H3,7,8,9)	InChI=1S/C6H8N2O/c1-4-2-5(7)3-6(9)8-4/h2-3H,1H3,(H3,7,8,9)
