18
gdb 62244	3.32668	0.72143	0.6339	3.8288	75.62	-0.2517	0.0264	0.2781	1715.3546	0.145059	-439.069005	-439.05859	-439.057645	-439.105941	36.266	
O	 0.3830356313	 1.5536860959	 0.2025153807	-0.422311
C	 0.0510556603	 0.1913513759	-0.0749638845	-0.054572
C	 0.593658924	-0.2594712469	-1.4433383582	-0.191481
C	 0.0656554763	 0.6282392509	-2.5781848169	-0.16997
N	 0.5859082669	 0.2519306994	-3.8843857944	-0.27287
C	 0.0669964636	-0.7783190461	-4.6008340563	 0.15099
O	-0.8671075454	-1.4664198673	-4.2443732295	-0.326065
C	 0.5019022976	-0.6997902239	 0.9956966035	 0.286464
C	 0.9224118565	-1.4143616706	 1.8662012064	-0.429748
H	 1.2957346229	 1.5693289004	 0.5114077411	 0.285923
H	-1.0458685696	 0.176026069	-0.1127930329	 0.125789
H	 1.6901709972	-0.2320370249	-1.4188358547	 0.092719
H	 0.2957475154	-1.2959084199	-1.6278184865	 0.13981
H	-1.0253543336	 0.5513652845	-2.6225170363	 0.13748
H	 0.3221920462	 1.6721847791	-2.3865618812	 0.122939
H	 1.3876716354	 0.7362430422	-4.2537041506	 0.248717
H	 0.5917658544	-0.9196201384	-5.5670544245	 0.07425
H	 1.2715160807	-2.0497508592	 2.6425575749	 0.201935
33.9143	52.0526	104.3755	109.6939	192.0421	209.7704	253.4164	281.5111	309.0464	379.5675	435.4576	498.5159	568.0619	575.057	632.6181	675.5852	732.3149	807.5515	893.7513	955.0813	1006.776	1031.1213	1047.1372	1082.927	1109.2927	1195.1306	1234.68	1268.1016	1289.3163	1339.0882	1360.7902	1403.4597	1419.5783	1429.1358	1471.0862	1487.8713	1526.4761	1802.3772	2233.7653	2933.3695	3026.9707	3039.6104	3063.2238	3095.5611	3124.4128	3502.7096	3643.7497	3806.3916
OC(CCNC=O)C#C	O[C@@H](CCNC=O)C#C	
InChI=1S/C6H9NO2/c1-2-6(9)3-4-7-5-8/h1,5-6,9H,3-4H2,(H,7,8)	InChI=1S/C6H9NO2/c1-2-6(9)3-4-7-5-8/h1,5-6,9H,3-4H2,(H,7,8)/t6-/m1/s1
