16
gdb 126944	4.24965	1.08542	0.93086	4.662	75.59	-0.2386	-0.0714	0.1672	1250.5762	0.125553	-430.240861	-430.232671	-430.231727	-430.27467	29.227	
C	-0.0873758521	 1.0831934399	 0.5290408473	-0.375263
C	-0.0054581179	 0.1187015881	-0.6565666482	-0.143642
N	-1.2347533822	-0.6359424129	-0.8732428198	-0.344491
C	-1.5598310785	-1.7772912711	-0.2461323904	 0.521119
N	-2.7598662339	-2.3241423467	-0.517077625	-0.30898
C	-2.9626780982	-3.452002972	 0.1347933719	 0.113601
N	-2.1152739531	-4.0492249406	 0.9866511644	-0.20493
N	-0.9589854985	-3.4405644602	 1.2061186688	-0.058387
N	-0.6559245663	-2.3122492062	 0.6162703393	-0.255627
H	 0.8508753673	 1.6377625474	 0.6277362018	 0.124757
H	-0.8989708123	 1.8058385358	 0.3977703905	 0.117528
H	-0.2588157707	 0.5317744029	 1.4571093133	 0.146297
H	 0.2051045192	 0.6626236281	-1.5824453676	 0.113964
H	 0.8024273734	-0.5990764434	-0.5011156425	 0.153822
H	-1.960770758	-0.2500103609	-1.4571975441	 0.261298
H	-3.9098884882	-3.9626229682	-0.0236166097	 0.138935
48.0049	76.9079	146.3266	197.899	274.94	345.2863	384.1715	508.0528	527.4484	579.4637	610.8194	710.0547	789.2529	855.2644	864.0999	935.2906	1002.225	1012.1553	1046.5718	1087.2626	1121.1093	1143.5011	1167.0276	1284.4214	1344.7833	1362.2828	1390.1679	1410.574	1441.88	1473.5561	1492.0376	1501.8395	1507.5548	1586.9911	1623.4745	3041.1272	3060.7886	3106.0032	3120.886	3132.9394	3166.0018	3631.1663	48.0062	76.9082	146.3267	197.8996	274.9404	345.2864	384.1714	508.053	527.4488	579.464	610.8193	710.0546	789.2529	855.2647	864.1	935.2906	1002.2251	1012.1558	1046.5716	1087.2625	1121.1091	1143.5012	1167.0275	1284.4214	1344.783	1362.2831	1390.1676	1410.5737	1441.8799	1473.5556	1492.037	1501.8391	1507.5545	1586.9906	1623.4744	3041.1272	3060.7887	3106.0032	3120.886	3132.9395	3166.0018	3631.1665
CCNC1=NC=NN=N1	CCNc1ncnnn1	
InChI=1S/C4H7N5/c1-2-5-4-6-3-7-9-8-4/h3H,2H2,1H3,(H,5,6,7,8)	InChI=1S/C4H7N5/c1-2-5-4-6-3-7-9-8-4/h3H,2H2,1H3,(H,5,6,7,8)
