19
gdb 63081	2.39606	1.67681	1.3289	1.7704	76.18	-0.2178	0.0121	0.2299	1038.8316	0.158095	-423.016922	-423.008294	-423.00735	-423.04928	34.352	
C	-0.1227676081	 1.5891903457	 0.0589537414	-0.450203
C	 0.0407510592	 0.0941452147	-0.0054777838	 0.38391
O	-1.0749055203	-0.5527750338	 0.5461873937	-0.486804
C	 0.6965831751	-0.643382107	-1.1654773403	-0.176339
C	 1.6578584978	 0.0741776478	-2.1151885741	-0.293163
C	 2.8143728679	 0.4751819708	-1.2216397454	-0.066909
C	 2.6448076405	 0.0670165474	 0.0382350012	-0.161583
C	 1.3531832243	-0.6542242925	 0.2099242151	 0.279006
O	 1.2940078652	-1.817431881	 0.9992915098	-0.477067
H	 0.7614118688	 2.1096434768	-0.3126153001	 0.122465
H	-0.9862599156	 1.897496156	-0.5400936328	 0.125159
H	-0.304198328	 1.9025262877	 1.0919241482	 0.118301
H	-0.7604298055	-1.410411385	 0.8649623976	 0.281498
H	 0.1612610307	-1.5211465403	-1.5102033162	 0.094493
H	 1.9878033269	-0.5773857456	-2.9350748286	 0.11238
H	 1.1924218821	 0.9481449134	-2.5898645395	 0.114842
H	 3.6552066364	 1.0569525458	-1.5826401445	 0.098633
H	 3.3307898161	 0.2402540604	 0.8604573601	 0.09237
H	 1.3943529068	-1.5537984912	 1.9220440683	 0.28901
175.7605	191.4763	207.4659	228.6086	248.9589	286.3631	359.6902	392.4289	413.7578	487.9962	522.7427	540.0781	644.1755	691.3399	716.6922	754.598	833.3438	897.2357	925.2247	947.38	957.601	970.9719	1009.0439	1036.4802	1081.8948	1106.7681	1133.9384	1172.893	1204.3634	1216.3893	1253.1375	1305.9643	1321.4873	1360.1178	1387.3724	1408.7554	1454.6524	1476.1143	1485.8894	1502.9043	1666.5897	3015.8517	3039.8982	3040.9176	3099.5683	3138.9954	3176.271	3181.1654	3206.6832	3737.5187	3780.3602
CC1(O)C2CC=CC12O	C[C@@]1(O)[C@H]2CC=C[C@@]12O	
InChI=1S/C7H10O2/c1-6(8)5-3-2-4-7(5,6)9/h2,4-5,8-9H,3H2,1H3	InChI=1S/C7H10O2/c1-6(8)5-3-2-4-7(5,6)9/h2,4-5,8-9H,3H2,1H3/t5-,6-,7+/m1/s1
