18
gdb 96911	2.94763	1.21465	0.95911	1.943	76.39	-0.2477	0.0123	0.26	1264.7279	0.1457	-439.054909	-439.04568	-439.044736	-439.089191	33.467	
C	-0.1988202263	 1.4203599538	 0.2828463363	-0.340362
N	-0.2776395863	-0.0335481981	 0.328469942	-0.328535
C	 0.6422941656	-0.6793431315	 0.87254486	 0.401249
O	 1.8106687582	-0.2495218082	 1.4986312333	-0.287368
C	 2.0827693356	-1.5889177391	 1.9726510793	 0.416724
C	 3.457159399	-2.0853320618	 2.2238549796	-0.341536
C	 2.4805149746	-1.8694284837	 3.3779381318	-0.334023
C	 0.8971084126	-2.1531458744	 1.1767660249	-0.1
O	-0.0837261995	-2.9068383175	 1.8232109565	-0.414083
H	 0.5899202912	 1.8437550869	 0.9157375682	 0.126988
H	-0.0236318547	 1.738217583	-0.7512626882	 0.133461
H	-1.1643410689	 1.8375878964	 0.5861363762	 0.127964
H	 3.7013858199	-3.1001510208	 1.9271012806	 0.127233
H	 4.2690631975	-1.3730675954	 2.1248934618	 0.132598
H	 2.6614676298	-1.0215786717	 4.0294262594	 0.130896
H	 2.0414868864	-2.7382339555	 3.8578662358	 0.130658
H	 1.2055367398	-2.7235096384	 0.2961448523	 0.125706
H	-0.5371475147	-2.3369047139	 2.4543212403	 0.292429
78.047	95.2859	146.346	174.7155	188.5447	243.3434	273.8143	345.6923	386.3549	502.2063	509.0862	598.7054	709.9534	765.3772	781.2238	859.1213	885.8486	910.851	970.2661	1017.2609	1043.8598	1048.1428	1076.6528	1082.614	1129.3577	1154.3657	1173.4856	1186.1204	1216.4746	1267.2709	1301.2896	1380.2889	1431.1814	1442.4904	1447.688	1491.5133	1497.6072	1501.2573	1849.3019	3017.9578	3082.0037	3083.545	3093.2163	3131.2068	3132.7182	3215.4064	3228.5158	3807.1403
CN=C1OC2(CC2)C1O	CN=C1OC2(CC2)[C@H]1O	
InChI=1S/C6H9NO2/c1-7-5-4(8)6(9-5)2-3-6/h4,8H,2-3H2,1H3	InChI=1S/C6H9NO2/c1-7-5-4(8)6(9-5)2-3-6/h4,8H,2-3H2,1H3/t4-/m0/s1
