17
gdb 52887	1.99826	1.21187	0.85597	5.1501	83.87	-0.2448	0.0134	0.2582	1390.7364	0.134176	-380.838686	-380.828519	-380.827575	-380.875514	35.176	
C	-0.0193742914	 1.4447123076	 0.0282046606	-0.504509
C	-0.0173706432	-0.0105850026	 0.0251156765	 0.140188
C	 0.0066520641	-1.2151419181	 0.0181802354	-0.037361
C	 0.0199837338	-2.6537802662	 0.0021631417	 0.002597
C	-0.4574017301	-3.4097297887	 1.2599999851	-0.323659
C	-1.3226750938	-3.4078985872	 0.0338984995	 0.005819
N	-2.529867391	-2.6495611861	-0.1098857068	-0.523736
C	 1.0876582387	-3.2617423369	-0.7576135123	 0.233934
N	 1.9377606254	-3.7658485815	-1.3581518901	-0.345334
H	 0.9878408907	 1.8325622768	-0.1578736488	 0.162302
H	-0.6799067395	 1.8456477273	-0.7479298547	 0.156778
H	-0.3542972985	 1.8402294529	 0.9931640792	 0.152704
H	 0.0884365261	-4.3090271587	 1.5219383567	 0.142221
H	-0.7425351234	-2.7733015301	 2.0897178982	 0.133074
H	-1.3163224118	-4.3274507793	-0.5450463266	 0.13014
H	-3.2488024713	-3.0010178978	 0.5146319545	 0.236944
H	-2.3672202348	-1.6734456616	 0.1185135316	 0.237898
16.557	80.0324	110.7585	135.6409	159.8286	178.1176	263.6097	297.0731	373.1357	409.516	470.2503	512.7167	531.5508	593.4295	613.8212	788.9689	827.4025	866.8414	890.7101	979.3807	1049.7859	1053.798	1059.7458	1075.254	1089.4184	1164.9886	1245.0646	1281.9086	1334.0171	1413.2015	1416.0862	1469.6146	1474.3062	1477.3885	1647.3338	2354.6823	2368.0998	3031.3844	3093.8971	3096.5288	3141.0414	3150.0967	3240.0791	3493.9532	3575.5219
CC#CC1(CC1N)C#N	CC#C[C@]1(C[C@H]1N)C#N	
InChI=1S/C7H8N2/c1-2-3-7(5-8)4-6(7)9/h6H,4,9H2,1H3	InChI=1S/C7H8N2/c1-2-3-7(5-8)4-6(7)9/h6H,4,9H2,1H3/t6-,7+/m1/s1
