19
gdb 65939	2.22609	1.4797	1.38038	3.1218	79.81	-0.246	0.0206	0.2666	1083.2354	0.159064	-382.049979	-382.041123	-382.040179	-382.083281	33.641	
C	-0.3857890483	 1.5000332797	 0.1955202166	-0.431772
C	 0.0346280309	 0.0395216743	 0.0531804348	 0.09265
N	 1.2938953423	-0.1553194359	-0.7236111392	-0.34514
C	 1.8475168015	-1.090736687	 0.2929009138	-0.242985
C	 0.7373870228	-0.6564099857	 1.249521061	 0.336276
C	 0.8812635285	-0.113022433	 2.6381651123	-0.326355
C	 0.1262863023	-1.3994112428	 2.3911066869	-0.330167
C	-1.083888069	-0.7725077113	-0.4573197455	 0.249824
N	-1.9482500264	-1.4166134757	-0.8774349446	-0.349551
H	 0.4613182004	 2.0791433363	 0.568282103	 0.133579
H	-0.6878176373	 1.9054447304	-0.7744368251	 0.135086
H	-1.229759224	 1.6027875028	 0.8849471871	 0.128006
H	 1.1625567454	-0.5486246522	-1.6492705371	 0.232853
H	 1.789989552	-2.1519242066	 0.0174460796	 0.110618
H	 2.8761048493	-0.8537585589	 0.584913035	 0.111491
H	 1.8626891019	-0.1685351365	 3.0984598922	 0.121115
H	 0.31068048	 0.7686117662	 2.9104924969	 0.121916
H	-0.9549277373	-1.3862485725	 2.4853782978	 0.131017
H	 0.5867936648	-2.3363131215	 2.6875663145	 0.121538
79.5279	130.225	193.6899	207.504	235.3889	266.0907	319.2713	371.0033	444.6187	501.8498	540.7514	623.6529	648.2127	721.006	772.5514	865.0419	895.0912	896.9796	947.6738	967.87	982.2234	1010.4581	1058.0321	1077.6296	1084.4715	1140.9166	1163.7297	1170.2266	1185.6972	1195.6418	1248.0566	1308.959	1375.0395	1396.5916	1404.6555	1464.0311	1482.3096	1485.6116	1506.8034	1520.4465	2338.6476	3012.3854	3043.6148	3064.6506	3115.6197	3126.9641	3129.8282	3138.7135	3205.1027	3219.244	3536.6223
CC1(NCC11CC1)C#N	C[C@]1(NCC21CC2)C#N	
InChI=1S/C7H10N2/c1-6(4-8)7(2-3-7)5-9-6/h9H,2-3,5H2,1H3	InChI=1S/C7H10N2/c1-6(4-8)7(2-3-7)5-9-6/h9H,2-3,5H2,1H3/t6-/m0/s1
