15
gdb 45400	2.22412	1.80198	1.26116	4.3911	73.27	-0.23	0.0029	0.233	1009.4495	0.11254	-416.755148	-416.747279	-416.746335	-416.787459	30.016	
O	-0.043034542	 0.0031487352	 0.04412149	-0.342694
C	-0.041212762	 1.1974661625	-0.0025013132	 0.410746
N	-1.0418489086	 2.149197381	 0.0713064824	-0.333668
C	-0.1814826895	 3.3248016162	 0.0108158624	-0.049629
C	 0.4358429245	 3.8075760987	 1.3455134079	-0.183196
N	 1.4315410096	 2.7037267885	 1.3070474336	-0.349426
C	 1.0400255848	 2.3361416948	-0.0929042686	 0.05327
C	 2.0441401293	 2.3308354564	-1.112437554	 0.198996
C	 2.902361802	 2.3175419973	-1.9551698208	-0.421019
H	-1.9846828271	 2.0522364506	 0.4213786973	 0.253122
H	-0.4456745051	 4.0583691135	-0.749375047	 0.107488
H	 0.8726499708	 4.8078657707	 1.2425732599	 0.111169
H	-0.2166333223	 3.7902744554	 2.2243994927	 0.110169
H	 2.3945325398	 3.0113833911	 1.3702804219	 0.233506
H	 3.6543901457	 2.2951351582	-2.7050811145	 0.201166
119.1246	128.0015	169.4825	237.6599	347.1532	375.8083	461.0456	504.8549	524.744	620.138	637.5833	656.1548	665.3353	706.1066	767.6303	851.5005	882.4249	934.4108	1000.236	1013.309	1049.4743	1092.9532	1114.6675	1171.5438	1200.937	1227.1293	1318.9626	1341.5813	1363.126	1383.0972	1503.9497	1908.8686	2233.5748	3027.9728	3079.4506	3124.9955	3498.8	3555.9206	3599.6664
O=C1NC2CNC12C#C	O=C1N[C@H]2CN[C@@]12C#C	
InChI=1S/C6H6N2O/c1-2-6-4(3-7-6)8-5(6)9/h1,4,7H,3H2,(H,8,9)	InChI=1S/C6H6N2O/c1-2-6-4(3-7-6)8-5(6)9/h1,4,7H,3H2,(H,8,9)/t4-,6+/m0/s1
