15
gdb 62210	3.48425	0.79677	0.66976	1.6316	66.48	-0.3117	-0.0145	0.2972	1555.6094	0.110675	-453.939712	-453.930076	-453.929131	-453.975871	32.409	
O	 0.241085365	 1.6794177197	 0.4404926521	-0.403716
C	-0.0332711985	 0.4127435909	-0.1169896284	-0.020344
C	 0.4309137915	 0.3294104063	-1.5789418934	-0.096328
O	-0.036823949	-0.8993910057	-2.0983076595	-0.226525
C	 0.4302559383	-1.2061001576	-3.3876829545	-0.186984
C	-0.0902260514	-0.2887862459	-4.420470502	 0.25139
N	-0.4958274779	 0.4468952239	-5.2133149055	-0.294579
C	 0.5568182963	-0.6782433711	 0.6838970345	 0.256331
N	 1.0644016295	-1.4980784897	 1.3200856674	-0.311241
H	 1.1908844654	 1.75458915	 0.5890447145	 0.302057
H	-1.1219665421	 0.2987750822	-0.1001144772	 0.160462
H	 0.0108425294	 1.186718368	-2.1206905781	 0.141465
H	 1.5298876034	 0.3859514578	-1.6301164669	 0.105438
H	 1.5298432244	-1.1938300258	-3.43531141	 0.149424
H	 0.0940977258	-2.2223415328	-3.6111227829	 0.173149
32.9252	55.7713	106.2274	151.2545	227.4998	233.2895	244.4815	318.7954	362.7671	381.4901	414.275	580.1786	598.843	633.6807	815.7094	900.9228	976.372	1032.8234	1044.1768	1097.2294	1115.0308	1161.7946	1233.0971	1270.1512	1296.3951	1342.3814	1388.6923	1416.3964	1419.7486	1470.5534	1517.183	2359.7224	2360.0058	2983.6749	3001.4338	3052.3129	3079.2931	3100.5971	3803.7462
OC(COCC#N)C#N	O[C@@H](COCC#N)C#N	
InChI=1S/C5H6N2O2/c6-1-2-9-4-5(8)3-7/h5,8H,2,4H2	InChI=1S/C5H6N2O2/c6-1-2-9-4-5(8)3-7/h5,8H,2,4H2/t5-/m1/s1
