15
gdb 42962	2.6261	2.0065	1.39784	4.2925	63.98	-0.2375	-0.0516	0.186	904.0384	0.113583	-457.731444	-457.724725	-457.723781	-457.762814	25.809	
O	-0.0179247356	 0.0407983424	 0.2130525366	-0.300972
C	-0.0391448946	 1.232069622	 0.0513233556	 0.408989
C	-1.2738949538	 2.0862893533	-0.1302344921	-0.087768
O	-1.2930186545	 3.1882726851	 0.7953324174	-0.229652
C	-0.8386696371	 3.4439892685	-0.5293268077	 0.022035
C	 0.6815981869	 3.5203093099	-0.6192453462	-0.129134
C	 1.4010692716	 4.0609825313	 0.6389432935	-0.075114
O	 1.7174488278	 2.7195647276	 1.083179518	-0.284287
C	 1.1937882159	 2.1471952841	-0.1322891003	 0.013484
H	-2.2328689482	 1.6376984889	-0.3703586795	 0.121007
H	-1.4740270627	 4.0929676183	-1.1263113386	 0.111499
H	 1.0251148725	 3.8835049955	-1.587791503	 0.093433
H	 2.3105005298	 4.6353647972	 0.4298217086	 0.10734
H	 0.7755948427	 4.5936749456	 1.3601370962	 0.126585
H	 1.9635244194	 1.6261273503	-0.7125048586	 0.102556
93.9348	192.5009	235.0683	286.5088	443.4037	499.7028	562.4484	638.8411	704.9628	798.214	846.7426	866.0182	869.946	888.6065	915.3242	988.7802	1011.2188	1028.1113	1062.693	1075.3296	1104.0099	1165.9559	1186.5407	1219.1898	1238.4493	1243.063	1295.9917	1315.8468	1337.9483	1351.0897	1402.8061	1512.0732	1848.9324	3035.2661	3049.7557	3099.7454	3115.6987	3151.7727	3174.4801
O=C1C2OC2C2COC12	O=C1[C@H]2O[C@H]2[C@H]2CO[C@@H]12	
InChI=1S/C6H6O3/c7-3-4-2(1-8-4)5-6(3)9-5/h2,4-6H,1H2	InChI=1S/C6H6O3/c7-3-4-2(1-8-4)5-6(3)9-5/h2,4-6H,1H2/t2-,4+,5-,6+/m0/s1
