13
gdb 11189	5.31069	1.43069	1.19552	4.8037	60.28	-0.2682	0.0098	0.278	943.7013	0.096147	-398.609447	-398.602419	-398.601475	-398.640965	25.717	
O	-0.0824005675	-0.0679183246	 0.0780077716	-0.380039
C	-0.0861381404	 1.1288517522	 0.0556744897	 0.477192
N	-1.1138519428	 1.987389029	 0.3943110371	-0.368301
C	-0.8511297352	 3.3314397762	-0.0775228396	-0.198145
C	 0.6975645621	 3.282345854	-0.1429639142	-0.036019
O	 0.9993688763	 1.8823724705	-0.3127342713	-0.241502
C	 1.2752176338	 4.0766769429	-1.2127285584	 0.310805
C	 1.7370461004	 4.7614190844	-2.0840052936	-0.431449
H	-2.0435311037	 1.5994730971	 0.3993486154	 0.266006
H	-1.2785418189	 3.5309910059	-1.0683074954	 0.127456
H	-1.1969300625	 4.0980615293	 0.6200305342	 0.132612
H	 1.1180995602	 3.5945718632	 0.8215687948	 0.129005
H	 2.1547587282	 5.3590585499	-2.8568011402	 0.21238
87.3742	150.174	199.9005	259.6709	444.5577	497.3074	504.9099	560.9094	634.4319	664.774	688.5621	731.9295	769.6965	876.2673	952.8867	1040.0959	1055.4615	1088.4798	1092.9739	1209.57	1219.5857	1327.5519	1351.4143	1381.7896	1433.5428	1531.4997	1900.5214	2249.5695	3020.4162	3028.9537	3096.7003	3501.6574	3650.5761
O=C1NCC(O1)C#C	O=C1NC[C@@H](O1)C#C	
InChI=1S/C5H5NO2/c1-2-4-3-6-5(7)8-4/h1,4H,3H2,(H,6,7)	InChI=1S/C5H5NO2/c1-2-4-3-6-5(7)8-4/h1,4H,3H2,(H,6,7)/t4-/m0/s1
