17
gdb 43738	4.52846	1.05218	1.0135	2.2001	68.45	-0.2425	-0.0268	0.2158	1183.0568	0.135078	-458.965898	-458.957997	-458.957052	-458.999311	29.454	
O	-0.11724128	 0.400958998	-1.0972674211	-0.288805
C	-0.0701259945	 1.2984859728	-0.3083830007	 0.407712
C	-1.1282369392	 2.1229729324	 0.4390110354	-0.404479
C	 0.0053883267	 3.130137888	 0.8148410218	 0.400646
C	 1.0763821636	 2.1353444388	 0.2840270033	-0.416245
C	-0.0519637873	 4.5173032963	 0.1619266623	-0.168149
O	-0.6588157774	 5.3129455889	 1.1668118028	-0.233564
C	-0.1134274845	 4.8283363723	 2.365597156	 0.013273
O	 0.0909797451	 3.4325752051	 2.2001594964	-0.303242
H	-1.9820143881	 2.4866397293	-0.1383718419	 0.13097
H	-1.4940187191	 1.595379599	 1.3260085514	 0.144816
H	 1.579712811	 1.6141047829	 1.1046088183	 0.148269
H	 1.8292837355	 2.5092898915	-0.4156665626	 0.128551
H	 0.9632011545	 4.8784710658	-0.0693632747	 0.100053
H	-0.6642734017	 4.5653814198	-0.7403406299	 0.127257
H	 0.8529914802	 5.3137348682	 2.5886667463	 0.091325
H	-0.8242426048	 5.0125345609	 3.1773519768	 0.12161
52.1735	57.9837	218.7972	273.0302	348.6999	371.9084	398.7186	446.7309	520.2738	658.9761	703.3872	740.2321	778.4972	852.3871	911.3644	928.7508	981.3944	993.2548	1031.9563	1046.8975	1109.0076	1122.4762	1129.8007	1156.9682	1173.1547	1193.1627	1204.972	1243.0024	1267.6581	1302.5409	1366.355	1416.5577	1433.8484	1437.4456	1508.0109	1547.7991	1899.5506	2948.2404	2977.7296	3054.6106	3060.4976	3075.5931	3113.9725	3114.0075	3120.0762
O=C1CC2(C1)COCO2	O=C1CC2(C1)COCO2	
InChI=1S/C6H8O3/c7-5-1-6(2-5)3-8-4-9-6/h1-4H2	InChI=1S/C6H8O3/c7-5-1-6(2-5)3-8-4-9-6/h1-4H2
