20
gdb 59491	2.47094	1.07659	0.82753	2.3266	79.12	-0.2806	0.0246	0.3052	1422.7016	0.168913	-403.152885	-403.142896	-403.141952	-403.188704	35.833	
C	 0.2428988489	 0.7243323484	 1.7259261818	-0.389998
C	-0.3598921634	-0.6880661452	 1.7620569837	-0.013663
C	-0.8922468371	-1.0480598953	 3.1575774992	-0.400034
C	-1.4713765296	-0.7965703843	 0.7395062152	 0.092114
O	-1.1122834956	-0.8501649114	-0.6523747667	-0.268045
C	-1.7740322339	-1.975579678	-0.0860151751	 0.048125
C	-0.9705708754	-3.2690433404	-0.0534293523	-0.376098
C	-1.5260744862	-4.2286346425	 0.8991578196	 0.26768
N	-1.9804377464	-4.967122667	 1.6629933042	-0.309368
H	 1.0743070487	 0.8098111977	 2.4322583643	 0.116172
H	 0.6143492065	 0.9656061873	 0.7259210129	 0.131529
H	-0.5063706285	 1.4761253182	 2.0001280281	 0.116053
H	 0.4318100069	-1.3968399082	 1.4935938139	 0.075789
H	-1.6994285102	-0.3689858048	 3.4558396493	 0.118273
H	-1.2834516301	-2.0695068379	 3.1902723512	 0.137602
H	-0.0979085181	-0.964436254	 3.9053539773	 0.12046
H	-2.3127513983	-0.1265013769	 0.9362173247	 0.095286
H	-2.8041851934	-2.1126806646	-0.4179089757	 0.111196
H	-0.9700370571	-3.7198744938	-1.0526804225	 0.163046
H	 0.0720334625	-3.0648083473	 0.2026098869	 0.16388
41.4017	52.7212	133.1108	175.7395	224.8651	227.5087	252.7133	324.9279	373.7774	378.8299	392.9899	480.3012	516.5343	563.7484	796.4002	817.1369	885.2305	930.0806	941.1703	954.3247	968.8114	977.7715	1038.9193	1102.3442	1127.2239	1166.2752	1186.2804	1201.8459	1221.3614	1293.9484	1312.825	1324.3571	1340.7323	1399.2462	1407.1142	1423.3345	1465.499	1488.3512	1491.2208	1491.6003	1504.9881	1515.7748	2362.9805	3030.341	3032.8241	3037.3957	3052.7816	3074.5006	3097.048	3097.5554	3103.2387	3112.8051	3113.4295	3115.8314
CC(C)C1OC1CC#N	CC(C)[C@H]1O[C@H]1CC#N	
InChI=1S/C7H11NO/c1-5(2)7-6(9-7)3-4-8/h5-7H,3H2,1-2H3	InChI=1S/C7H11NO/c1-5(2)7-6(9-7)3-4-8/h5-7H,3H2,1-2H3/t6-,7+/m0/s1
