15
gdb 9703	3.37373	1.82109	1.63736	2.3652	60.93	-0.2538	-0.0409	0.2129	838.0946	0.117806	-399.823811	-399.816139	-399.815195	-399.856582	27.135	
C	 0.1182211233	 1.519719346	 0.2489843157	-0.443748
C	-0.0151691918	 0.008656098	 0.0719757147	 0.27071
C	 0.6942475355	-0.5698741411	-1.1842502424	-0.230297
N	 1.5991492917	-1.6077551992	-0.6681630263	-0.253594
C	 1.4994349284	-1.5601137582	 0.5918112696	 0.112099
O	 0.6554453073	-0.6665195555	 1.1741712796	-0.258965
C	-1.4919681763	-0.3773822706	 0.1541317715	 0.120407
O	-2.2309957977	-0.3904809396	-0.7936605054	-0.242534
H	 1.1757942292	 1.7977719404	 0.2574040737	 0.137793
H	-0.3776309814	 2.0327836913	-0.5800146322	 0.146086
H	-0.3352751934	 1.8531508125	 1.1872217837	 0.134702
H	-0.0259557279	-0.9901081474	-1.8912061969	 0.143628
H	 1.2731526367	 0.1944433127	-1.7143139255	 0.119225
H	 2.0437140439	-2.180944997	 1.2945536638	 0.145046
H	-1.8337872775	-0.6280518723	 1.1822499264	 0.099442
43.5602	87.2044	224.0686	245.4759	286.3755	317.165	409.7046	520.4509	538.1961	659.4265	804.7227	862.3334	912.6683	945.94	952.7296	978.8069	986.1089	1001.237	1104.8527	1158.3695	1162.2195	1214.6932	1272.5617	1317.038	1335.8098	1392.1973	1404.2837	1482.8241	1492.8712	1502.2101	1710.6938	1836.3816	2899.7535	3040.9888	3045.5826	3097.4187	3118.6107	3126.0297	3219.3158
CC1(CN=CO1)C=O	C[C@]1(CN=CO1)C=O	
InChI=1S/C5H7NO2/c1-5(3-7)2-6-4-8-5/h3-4H,2H2,1H3	InChI=1S/C5H7NO2/c1-5(3-7)2-6-4-8-5/h3-4H,2H2,1H3/t5-/m0/s1
