19
gdb 83842	2.43945	1.57463	1.03615	3.2703	76.89	-0.2301	0.0189	0.249	1169.779	0.161195	-419.224618	-419.216333	-419.215389	-419.257576	31.599	
C	-0.0047552411	 1.5269314881	-0.0075233971	-0.418623
C	 0.003763586	 0.0203670935	-0.0729716589	 0.023889
C	 0.7455296802	-0.7233466222	-1.1335154343	-0.145987
N	 1.2486949014	-0.6727935431	 0.251690978	-0.124256
C	 1.1339999605	-1.9217594008	 1.02422408	-0.144669
C	 1.319057905	-3.1484385995	 0.1375541143	-0.166833
N	 0.354338775	-3.1039135652	-0.95628246	-0.321261
C	 0.1752934861	-1.9851305564	-1.7256510685	 0.389323
O	-0.3936137913	-1.9991491425	-2.8003309069	-0.376063
H	 0.9471790522	 1.931292574	-0.3612182786	 0.129142
H	-0.8098351043	 1.93559562	-0.626950702	 0.126887
H	-0.1590384728	 1.8701349901	 1.0211808858	 0.121364
H	-0.911081435	-0.4627142615	 0.2745766716	 0.09153
H	 1.3224372221	-0.1483876189	-1.8539096448	 0.114874
H	 1.9020356946	-1.9135729934	 1.8053904164	 0.11187
H	 0.1567059617	-1.9904231277	 1.5201857173	 0.105137
H	 2.3517067805	-3.1890760605	-0.2390374358	 0.118276
H	 1.1472550079	-4.0575537944	 0.7209421639	 0.117754
H	 0.0770582713	-3.9661990495	-1.4031907905	 0.247646
73.8336	156.8815	196.7566	217.7899	250.922	325.2674	405.6246	432.9264	477.6594	535.1055	570.2597	698.2644	717.0967	755.3089	815.6842	863.2102	931.5005	974.0063	992.8193	1035.1387	1053.1858	1091.2181	1111.2577	1125.9731	1151.9735	1181.0035	1248.7104	1267.4789	1281.7382	1311.709	1348.0914	1378.6946	1400.5388	1407.7234	1451.818	1464.7836	1487.12	1493.2134	1505.6581	1513.4452	1796.3914	2996.9324	3013.4466	3035.6546	3064.4208	3085.4574	3090.2388	3100.9296	3124.4133	3140.6792	3606.4854
CC1C2N1CCNC2=O	C[C@H]1[C@H]2N1CCNC2=O	
InChI=1S/C6H10N2O/c1-4-5-6(9)7-2-3-8(4)5/h4-5H,2-3H2,1H3,(H,7,9)	InChI=1S/C6H10N2O/c1-4-5-6(9)7-2-3-8(4)5/h4-5H,2-3H2,1H3,(H,7,9)/t4-,5+,8?/m0/s1
