19
gdb 85631	3.35991	1.05237	0.87439	1.2495	87.72	-0.2373	-0.0292	0.2081	1346.4838	0.158206	-385.876547	-385.867354	-385.86641	-385.910304	35.018	
C	-0.0069880528	 1.5693496812	-0.0260363646	-0.394826
C	 0.1010536277	 0.0472555915	 0.0090079271	-0.009564
C	 0.8889477608	-0.5814009996	-1.1662618115	-0.337048
C	 1.5361634596	-1.8084000445	-0.540690164	 0.189447
C	 1.4277770427	-1.7903342353	 0.7986657375	-0.217042
C	 0.7738943402	-0.5259395862	 1.2938836771	 0.088105
O	 1.7295464058	 0.341882771	 1.9097363904	-0.427436
C	 2.1762384866	-2.7996610532	-1.3232654554	 0.188126
C	 2.7076366436	-3.6174725129	-2.0313006177	-0.394242
H	 0.9797323515	 2.0363753239	 0.0412362855	 0.113928
H	-0.4820512977	 1.9048149624	-0.9536942228	 0.109609
H	-0.6018953066	 1.9431607298	 0.8129875138	 0.11913
H	-0.9085331317	-0.3809285721	-0.0174705612	 0.082291
H	 0.2445071981	-0.8444870516	-2.0108387881	 0.117661
H	 1.6587259529	 0.0932499025	-1.5651285794	 0.111093
H	 1.8379083199	-2.5388302228	 1.4660333832	 0.104323
H	 0.0322804735	-0.7014697714	 2.0797676205	 0.085471
H	 2.518675678	 0.342256918	 1.3564116806	 0.277226
H	 3.1806010976	-4.3471903608	-2.640544611	 0.193749
87.2131	107.7585	142.5013	214.7069	260.1018	282.1488	335.9254	351.0423	459.4149	485.0167	535.0972	546.5782	579.8197	612.5761	632.5881	700.9434	801.8172	868.0592	890.046	915.8445	940.8148	993.4579	1016.9598	1066.6647	1117.2105	1133.9601	1172.3912	1201.8829	1248.6774	1269.5027	1296.741	1314.2546	1345.3104	1366.4067	1412.8794	1428.7148	1488.0592	1492.2962	1496.9333	1661.3391	2221.1132	3017.4716	3027.0278	3038.3651	3060.5399	3077.1514	3104.3279	3113.8109	3208.0252	3503.4586	3799.35
CC1CC(=CC1O)C#C	C[C@H]1CC(=C[C@H]1O)C#C	
InChI=1S/C8H10O/c1-3-7-4-6(2)8(9)5-7/h1,5-6,8-9H,4H2,2H3	InChI=1S/C8H10O/c1-3-7-4-6(2)8(9)5-7/h1,5-6,8-9H,4H2,2H3/t6-,8+/m0/s1
