19
gdb 88735	3.6203	0.87656	0.76189	3.3071	78.5	-0.2473	-0.0266	0.2207	1501.2826	0.158321	-419.160139	-419.15086	-419.149916	-419.195481	33.501	
C	 0.0999784913	 1.5827418125	-0.2207652069	-0.397436
C	 0.0648383865	 0.0875977115	-0.0126034203	 0.001475
N	 1.3453891004	-0.6336887932	-0.0591018892	-0.343913
C	 0.5806056573	-0.6168124314	 1.1984147802	-0.020072
C	 1.2199059747	 0.0893741646	 2.3511139803	-0.003821
N	 0.5219983878	 0.0471932428	 3.6278801298	-0.343239
C	 1.8360283375	-0.6225472557	 3.530684653	-0.130017
C	 1.8164890753	-2.1043108578	 3.6682830585	 0.177659
O	 2.7754212779	-2.7587861816	 3.993035141	-0.259346
H	 1.0012498036	 2.0265670074	 0.2078219077	 0.125704
H	 0.0966373528	 1.8172061803	-1.2904664681	 0.124312
H	-0.7755343762	 2.0604787183	 0.2318765867	 0.120472
H	-0.7883939319	-0.4019365758	-0.4820216419	 0.086958
H	 1.2527764465	-1.5303628418	-0.527152435	 0.236068
H	 0.0397533987	-1.517251498	 1.4797477439	 0.089588
H	 1.7418931764	 1.0043054764	 2.0809048932	 0.101299
H	 0.609063728	 0.9234665506	 4.1341133429	 0.24571
H	 2.71225057	-0.1518552966	 3.9700394924	 0.106733
H	 0.8294382632	-2.5711997726	 3.4583412821	 0.081864
28.761	78.4081	132.7497	175.6614	213.4146	231.1397	312.3141	393.1254	414.9667	446.0106	488.2136	579.4227	779.5394	808.3795	837.2134	890.4496	921.4287	934.8154	977.5596	990.348	1015.5845	1029.0588	1045.5396	1074.1282	1116.3694	1144.8853	1171.8537	1215.2524	1217.7165	1242.0168	1260.6343	1286.8647	1346.2562	1371.9556	1408.8336	1428.5956	1448.778	1484.2725	1494.6639	1514.2576	1822.9979	2895.9583	3037.9595	3098.4466	3101.6464	3127.042	3133.1499	3141.6457	3150.1434	3514.7176	3519.6618
CC1NC1C1NC1C=O	C[C@H]1N[C@H]1[C@H]1N[C@H]1C=O	
InChI=1S/C6H10N2O/c1-3-5(7-3)6-4(2-9)8-6/h2-8H,1H3	InChI=1S/C6H10N2O/c1-3-5(7-3)6-4(2-9)8-6/h2-8H,1H3/t3-,4+,5-,6+/m1/s1
