15
gdb 24020	4.23589	1.21446	1.0305	3.6679	78.41	-0.2233	0.0263	0.2496	1122.3434	0.114279	-379.631027	-379.623705	-379.622761	-379.663199	27.608	
C	-0.1747807158	-1.2637549249	-0.2346876877	-0.454962
C	-0.0902174181	-0.0699069644	-0.1274804672	 0.347473
C	 0.0031660621	 1.3712705048	 0.0062034414	-0.369393
C	-0.2952142813	 1.9689806667	 1.4495138713	-0.18338
N	 1.078449627	 2.511658463	 1.4152636994	-0.003962
C	 2.1544061126	 3.2024689791	 1.8792596717	-0.026602
N	 3.1307390335	 3.1358792012	 0.990074495	-0.260253
C	 2.6789076107	 2.3871231279	-0.0789507631	-0.22754
C	 1.3918437894	 1.9989013378	 0.1916435884	 0.310482
H	-0.2405591947	-2.3191011574	-0.3340789279	 0.205503
H	-0.595248463	 1.8631618285	-0.7676236743	 0.128965
H	-1.0743065594	 2.7334774045	 1.4848523292	 0.137465
H	-0.453113285	 1.2191071661	 2.2260220287	 0.146321
H	 2.1909374279	 3.7176611101	 2.8257800013	 0.135379
H	 3.306484254	 2.191331457	-0.9329608065	 0.114502
84.5645	116.5978	173.3844	274.4808	393.962	479.2205	539.6636	631.2918	646.7401	658.3103	665.0658	749.2213	769.387	785.3968	832.0878	859.5238	939.0785	1014.4696	1052.3672	1098.3267	1122.5589	1146.3309	1182.5076	1225.1677	1244.1901	1288.4315	1324.6168	1374.8787	1416.8954	1460.9578	1510.8277	1557.6272	2241.3632	3053.4585	3074.1784	3140.0119	3264.6667	3267.6903	3503.0568
C#CC1CN2C=NC=C12	C#C[C@H]1Cn2cncc12	
InChI=1S/C7H6N2/c1-2-6-4-9-5-8-3-7(6)9/h1,3,5-6H,4H2	InChI=1S/C7H6N2/c1-2-6-4-9-5-8-3-7(6)9/h1,3,5-6H,4H2/t6-/m0/s1
