17
gdb 27177	2.9781	1.39027	1.02413	3.8127	77.35	-0.1787	0.0423	0.221	1152.1486	0.136795	-417.997351	-417.989129	-417.988184	-418.030363	31.35	
O	 0.2677587901	 1.339965713	 0.0184794804	-0.454946
C	 0.1165432236	-0.0112400743	 0.0572575724	 0.285163
C	-0.1058150196	-0.8298781419	-1.0276281749	 0.201662
N	-0.1986035973	-2.1300537746	-0.5441122658	-0.315236
C	-0.0363658327	-2.118085237	 0.8173278153	-0.084502
C	 0.1613368759	-0.8175258145	 1.2247906667	-0.234767
N	-0.2126631971	-0.3964343506	-2.357718211	-0.183544
C	 0.3196829338	-1.2074378565	-3.4562527068	-0.226918
C	-1.1506676401	-1.0381940029	-3.2830004188	-0.22694
H	 0.1871308842	 1.5921729868	-0.9111994718	 0.292013
H	-0.3592824905	-2.9533575441	-1.0952276749	 0.257139
H	-0.0744081861	-3.0323286624	 1.3869673766	 0.115246
H	 0.3199368617	-0.4755468954	 2.2347816554	 0.099696
H	 0.84762047	-0.6590588624	-4.2313663304	 0.12521
H	 0.753339571	-2.1740434693	-3.2100082377	 0.112774
H	-1.7215750388	-1.8891845636	-2.9184355704	 0.112739
H	-1.7056546682	-0.3651683803	-3.9305079645	 0.125211
62.4122	152.4257	154.7421	254.2002	282.8365	324.4466	434.5368	465.175	512.9753	571.5289	635.3969	664.4934	708.4229	718.2467	807.8787	810.3732	847.3965	891.0328	929.4262	1024.356	1075.8622	1084.2657	1111.6908	1115.5858	1138.6499	1170.4329	1175.3435	1219.4142	1260.7519	1315.8556	1381.9084	1454.4308	1493.4196	1498.7512	1517.9199	1542.7402	1660.2263	3101.3325	3106.1127	3182.0827	3198.1121	3255.9941	3274.42	3693.742	3764.8077
OC1=C(NC=C1)N1CC1	Oc1c([nH]cc1)N1CC1	
InChI=1S/C6H8N2O/c9-5-1-2-7-6(5)8-3-4-8/h1-2,7,9H,3-4H2	InChI=1S/C6H8N2O/c9-5-1-2-7-6(5)8-3-4-8/h1-2,7,9H,3-4H2
