20
gdb 66132	2.54455	1.53754	1.2827	2.8193	77.94	-0.2368	-0.0262	0.2106	1074.752	0.17122	-403.143261	-403.134823	-403.133879	-403.176207	32.572	
C	 0.0702048545	 1.6170322291	 0.2012988145	-0.451202
C	 0.0377804437	 0.0823118164	 0.0829261009	 0.190049
C	 0.7158128082	-0.4775372077	-1.1849983916	-0.290894
C	 1.2614066191	-1.8545461181	-0.7406141822	-0.165159
N	 1.4828899297	-1.8194900773	 0.7218005137	-0.094506
C	 2.2674001482	-0.6571174746	 1.1607963298	-0.263509
C	 0.7833489415	-0.6227230827	 1.2214482643	-0.049693
C	-1.426730931	-0.3469265864	 0.164567411	 0.142813
O	-2.0512490416	-0.8842858287	-0.7118663959	-0.252805
H	 1.1043136633	 1.969839466	 0.2478259786	 0.127183
H	-0.4177813954	 2.0894864044	-0.6571050376	 0.131016
H	-0.4404877402	 1.9595478211	 1.1082292523	 0.121402
H	-0.0014712108	-0.5691349415	-2.0024587685	 0.127831
H	 1.5150527799	 0.1920229843	-1.5138799542	 0.098831
H	 0.5191840924	-2.63526026	-0.932257799	 0.124302
H	 2.1854856112	-2.1371935127	-1.2535506333	 0.106718
H	 2.8369814996	-0.8140495468	 2.0721740163	 0.119527
H	 2.7743419031	-0.0503616432	 0.4142956379	 0.110488
H	 0.2801433654	-0.7138506058	 2.1818445451	 0.088837
H	-1.9094678711	-0.1016628859	 1.1402730079	 0.078773
70.7927	142.3531	203.1897	227.3289	307.7511	319.4093	322.2726	382.7882	433.0187	555.7869	616.0285	670.528	752.2195	798.9998	826.5723	857.2703	915.7863	939.6308	956.3659	992.4369	1007.1775	1026.6598	1049.2762	1089.8203	1112.1303	1147.0601	1160.8973	1185.4694	1230.6095	1252.0025	1256.9849	1278.7547	1320.1535	1345.6626	1384.5695	1403.4758	1428.2576	1483.8317	1492.6281	1496.8066	1500.1851	1516.7456	1832.3747	2852.8933	3031.8305	3054.1313	3065.0529	3097.1174	3098.6039	3108.731	3113.3699	3125.1034	3126.3729	3191.5742
CC1(CCN2CC12)C=O	C[C@]1(CCN2C[C@@H]12)C=O	
InChI=1S/C7H11NO/c1-7(5-9)2-3-8-4-6(7)8/h5-6H,2-4H2,1H3	InChI=1S/C7H11NO/c1-7(5-9)2-3-8-4-6(7)8/h5-6H,2-4H2,1H3/t6-,7-,8?/m0/s1
