14
gdb 24388	3.81872	1.67711	1.17571	1.1228	68.04	-0.2027	-0.0048	0.1979	954.259	0.105021	-432.904238	-432.897711	-432.896767	-432.935334	24.933	
C	-0.0253196454	 1.5020399911	-0.0526502431	-0.272994
N	 1.3451644073	 2.0371849749	 0.0377846198	-0.255049
C	 2.3480323818	 1.2839012663	 0.2605357464	 0.08471
N	 2.3537036767	-0.0892334242	 0.4686149156	-0.424308
C	 1.1365766449	-0.7110986679	 0.2303251773	 0.301548
C	 0.0228948915	 0.0142994581	-0.0037277673	 0.253336
O	-0.9995435036	-0.8808901318	-0.1947660012	-0.184611
C	-0.4092334779	-2.0914166659	-0.0598050486	 0.052256
N	 0.8645191911	-2.0612310073	 0.196240253	-0.339825
H	-0.6240958159	 1.9324405844	 0.7651320279	 0.122509
H	-0.4846044242	 1.8731927742	-0.9800125667	 0.124881
H	 3.3368162505	 1.7377461016	 0.3196421578	 0.120504
H	 3.2110820432	-0.6123143961	 0.3947248487	 0.26339
H	-1.0419186899	-2.9566354476	-0.1743347896	 0.153652
93.0609	220.8126	318.4761	338.293	401.7755	492.5085	554.0076	634.2259	639.2538	732.0781	765.5709	808.8308	884.4173	932.3218	942.6466	959.3155	1043.1535	1096.3425	1123.9211	1169.0949	1229.2888	1241.1046	1309.685	1346.0859	1382.2098	1408.9845	1494.2753	1510.853	1546.6146	1692.5917	1740.7807	2975.1866	3001.0158	3139.045	3284.5584	3646.6244
C1N=CNC2=C1OC=N2	C1N=CNc2c1ocn2	
InChI=1S/C5H5N3O/c1-4-5(7-2-6-1)8-3-9-4/h2-3H,1H2,(H,6,7)	InChI=1S/C5H5N3O/c1-4-5(7-2-6-1)8-3-9-4/h2-3H,1H2,(H,6,7)
