18
gdb 23058	2.27983	1.47797	1.03756	1.8287	77.46	-0.2315	-0.0047	0.2268	1174.5728	0.145934	-439.01362	-439.004777	-439.003833	-439.047092	33.621	
O	-0.0335614111	 1.1535378072	 0.3534351523	-0.389205
N	-0.0281479216	-0.2520748642	 0.4010370876	-0.290603
C	-1.1374134824	-0.7392264265	 0.0157034308	 0.393947
C	-2.487310702	-0.2301673461	-0.4525457842	-0.32363
C	-2.98121416	-1.7203889187	-0.4622216029	-0.325399
C	-1.5777234252	-2.1525972584	 0.0074100528	 0.205232
C	-0.7320527685	-3.3630491715	-0.3493062823	-0.381455
C	-1.1274589004	-3.1318746164	 1.0785893294	 0.091128
O	-0.2129511806	-2.7268880578	 2.0381457092	-0.427625
H	 0.8613739783	 1.3736818654	 0.6334148389	 0.307638
H	-2.9874378069	 0.4367414282	 0.2545223805	 0.133891
H	-2.4646308846	 0.2597125328	-1.4295988002	 0.13238
H	-3.7879699394	-1.933479522	 0.2426735386	 0.113314
H	-3.264758395	-2.09200272	-1.4496853048	 0.110988
H	-1.2223490757	-4.1612167299	-0.8986609273	 0.117148
H	 0.2994201535	-3.1715174276	-0.6287340184	 0.127653
H	-1.8851425107	-3.7836639874	 1.5052367173	 0.10825
H	 0.1770227822	-1.8852247072	 1.7512116925	 0.296348
84.9848	118.1717	154.5514	216.0325	263.3909	325.0896	357.6523	397.3963	439.5082	458.8981	503.5999	542.7488	642.9754	752.8577	762.9334	798.4346	857.7021	893.761	924.4634	978.8962	991.8264	1031.7367	1060.8406	1091.6275	1117.0231	1125.2534	1166.9984	1200.4725	1209.8985	1250.1002	1253.7868	1328.7833	1375.6869	1419.4941	1444.5625	1456.004	1478.0147	1490.2013	1762.3691	3063.4759	3068.7652	3106.8962	3119.0091	3123.5229	3149.9029	3213.8507	3664.7551	3818.7235
ON=C1CCC11CC1O	ON=C1CC[C@]21C[C@H]2O	
InChI=1S/C6H9NO2/c8-5-3-6(5)2-1-4(6)7-9/h5,8-9H,1-3H2	InChI=1S/C6H9NO2/c8-5-3-6(5)2-1-4(6)7-9/h5,8-9H,1-3H2/t5-,6-/m1/s1
