14
gdb 133790	3.08427	0.97492	0.86127	3.0158	52.4	-0.2984	-0.0229	0.2756	1325.171	0.095178	-605.356383	-605.347152	-605.346208	-605.392521	30.99	
C	 0.0630079314	 1.4993861975	-0.1717226038	-0.393678
C	 0.0248249221	-0.0079344233	-0.0286838019	-0.053569
O	 0.676521744	-0.5744770623	-1.1946144859	-0.231846
C	 0.7360134095	-1.9009068747	-1.2387956755	 0.290992
O	 0.3129685225	-2.6739337714	-0.4264124655	-0.338533
C	 1.4573873093	-2.3372774195	-2.5378950638	 0.233123
F	 1.5258175669	-3.6591375143	-2.6016166458	-0.045142
F	 0.7980659364	-1.8884612625	-3.6107429709	-0.069443
F	 2.6979617506	-1.8402151771	-2.5716635745	-0.069512
H	 1.0933535881	 1.8609450099	-0.2243679256	 0.138688
H	-0.4635045066	 1.8197068626	-1.0746580291	 0.13869
H	-0.4216581836	 1.96120022	 0.6932913925	 0.131011
H	 0.5541648195	-0.35539829	 0.8633138938	 0.134611
H	-0.9967352401	-0.3964915749	 0.016397326	 0.134607
24.7442	55.2651	113.3192	125.7235	238.309	273.0647	289.4283	334.759	382.973	437.8755	523.594	584.6041	737.5366	784.7152	810.8082	870.4177	891.4997	1040.7366	1131.9576	1180.18	1180.8384	1201.3108	1257.6805	1294.1695	1355.9059	1404.3949	1428.5085	1485.374	1495.6204	1516.9143	1856.6826	3050.217	3059.5546	3100.944	3125.3508	3133.4514
CCOC(=O)C(F)(F)F	CCOC(=O)C(F)(F)F	
InChI=1S/C4H5F3O2/c1-2-9-3(8)4(5,6)7/h2H2,1H3	InChI=1S/C4H5F3O2/c1-2-9-3(8)4(5,6)7/h2H2,1H3
