19
gdb 102019	2.54086	1.03458	0.85335	2.2117	74.16	-0.2419	-0.0431	0.1988	1430.7826	0.154335	-460.177667	-460.166995	-460.166051	-460.214436	36.296	
C	-0.3074814368	 1.5701972764	 0.5567545176	-0.38563
C	-0.9642601257	 0.2068171266	 0.7517701293	-0.269683
C	-0.875037732	-0.6754720474	-0.4729344803	 0.333275
O	-0.3425750521	-0.3468348825	-1.5078895654	-0.311558
C	-1.5379713881	-2.0669183046	-0.3942531151	-0.060011
O	-2.0117527667	-2.3249546135	 0.8913696354	-0.23634
C	-2.3080248226	-3.68792069	 1.1562316314	-0.245882
C	-2.6208670329	-2.1255303308	-1.4825379762	 0.141618
O	-3.756807434	-2.456855792	-1.2756533208	-0.237183
H	-0.3988238162	 2.1718339088	 1.4649602369	 0.114347
H	 0.7538539593	 1.4641455035	 0.3175917789	 0.131302
H	-0.7727311466	 2.1157948474	-0.2682541439	 0.132139
H	-0.5269209265	-0.3482754781	 1.591043393	 0.138041
H	-2.0265313561	 0.2928789121	 1.0167071519	 0.14104
H	-0.7557501201	-2.7850555182	-0.7040718469	 0.115682
H	-2.5763521358	-3.748629028	 2.2129161212	 0.13405
H	-3.1449186594	-4.0444896854	 0.548642675	 0.143317
H	-1.4276641363	-4.323589842	 0.9767084342	 0.106776
H	-2.2526509015	-1.8227905123	-2.4846917261	 0.114699
39.6477	79.9765	109.9343	130.7206	151.286	185.6335	191.599	238.9834	274.0793	300.4277	351.1531	459.5474	511.079	636.548	712.3119	776.7438	797.2201	837.2423	971.2112	998.8315	1039.559	1079.147	1100.4875	1133.9859	1176.5462	1191.262	1214.4039	1243.6062	1272.7916	1336.7082	1372.5152	1392.6051	1415.2104	1436.8885	1480.0075	1484.0778	1493.1803	1498.0595	1513.5548	1795.5881	1838.6107	2924.7234	2944.7202	2992.5793	3036.5328	3052.0488	3061.5074	3087.1623	3124.4131	3125.9826	3132.5723
CCC(=O)C(OC)C=O	CCC(=O)[C@@H](OC)C=O	
InChI=1S/C6H10O3/c1-3-5(8)6(4-7)9-2/h4,6H,3H2,1-2H3	InChI=1S/C6H10O3/c1-3-5(8)6(4-7)9-2/h4,6H,3H2,1-2H3/t6-/m0/s1
