19
gdb 41732	3.73507	1.40925	1.218	1.9606	74.13	-0.2301	0.0877	0.3178	1053.6127	0.162249	-423.01539	-423.008311	-423.007367	-423.046682	28.403	
C	 0.0066276712	 1.3319966885	-0.1101007805	-0.084594
C	 1.4390196999	 1.8910344749	 0.05268804	-0.348323
C	 2.0906658654	 0.8429085551	 0.9249908511	 0.30002
C	 3.5680615553	 0.6723514523	 1.1873541529	-0.17866
O	 3.6533984242	-0.3224890552	 2.2036509121	-0.258309
C	 2.502551012	-0.2200769125	 3.0432915283	-0.098129
C	 1.3790580822	 0.2987824777	 2.162918203	-0.181087
C	 1.224427442	-0.3810525121	 0.8257262932	 0.08545
O	 0.0852976426	-0.08603676	 0.0603969043	-0.271259
H	-0.6593306239	 1.764704995	 0.6494146249	 0.101044
H	-0.4310399162	 1.528240128	-1.0926170466	 0.112477
H	 1.9563945591	 1.9428994687	-0.9125214046	 0.110954
H	 1.4316443382	 2.8968998252	 0.4840188447	 0.107241
H	 4.1380898563	 0.3062596765	 0.3260414702	 0.109012
H	 4.0162164135	 1.6247515954	 1.5180535405	 0.089143
H	 2.3259160825	-1.2163801335	 3.4626296437	 0.111167
H	 2.6786879952	 0.4788743883	 3.8770487732	 0.093084
H	 0.536686297	 0.8016758145	 2.6248482424	 0.092082
H	 1.5986779337	-1.3846477968	 0.6523314171	 0.108689
179.3165	197.6833	220.5436	278.5722	338.5072	367.0315	462.6528	639.2285	689.3667	711.7757	768.8339	871.1707	886.103	898.9417	927.772	955.0256	971.3333	990.5346	1011.0463	1055.972	1061.7052	1090.5438	1109.4105	1128.645	1141.6106	1202.4771	1215.8122	1229.4353	1241.7143	1248.7105	1268.2816	1283.977	1333.0923	1361.2584	1370.6091	1403.2999	1441.1951	1496.0302	1511.3581	1523.9097	1526.1604	2958.6999	2973.2672	3003.7723	3035.712	3058.3409	3064.4361	3079.6973	3091.3894	3168.5465	3174.5702
C1CC23COCC2C3O1	C1C[C@@]23COC[C@@H]2[C@H]3O1	
InChI=1S/C7H10O2/c1-2-9-6-5-3-8-4-7(1,5)6/h5-6H,1-4H2	InChI=1S/C7H10O2/c1-2-9-6-5-3-8-4-7(1,5)6/h5-6H,1-4H2/t5-,6-,7-/m1/s1
