25
gdb 101727	3.07586	0.79053	0.69646	0.9366	90.45	-0.2471	0.0862	0.3333	1768.5086	0.226605	-389.477344	-389.46615	-389.465206	-389.514443	40.525	
C	 0.1280256771	 1.5487289229	 0.2416721605	-0.233672
O	 0.148917362	 0.1587823875	 0.0245413686	-0.244958
C	 0.6648687458	-0.6113600489	 1.106713933	 0.150949
C	-0.360617362	-0.7564025428	 2.2346440599	-0.403535
C	 1.0700728209	-1.9688296282	 0.5228479891	-0.225157
C	 2.1614362223	-1.8576954556	-0.5210051389	 0.013029
C	 3.6231408041	-1.8896076839	-0.1316263546	-0.297044
C	 3.0298367819	-3.024344338	-0.9340090953	-0.005751
C	 2.8884596764	-4.4107702755	-0.3428818467	-0.403207
H	 1.1271471335	 1.9364218773	 0.4965682538	 0.102456
H	-0.2014971824	 2.015648153	-0.6903891384	 0.1241
H	-0.5678203446	 1.8456477522	 1.0403553545	 0.103603
H	 1.5672301273	-0.1118717608	 1.4995793845	 0.06341
H	-1.2614690292	-1.2576756773	 1.8664025989	 0.121549
H	 0.0541928212	-1.3485271616	 3.0567754312	 0.112637
H	-0.6532007367	 0.215139908	 2.6431328996	 0.113583
H	 1.3854851426	-2.6157990829	 1.3483222463	 0.088862
H	 0.1731207519	-2.427595091	 0.0853100081	 0.101095
H	 1.9044994761	-1.1669427764	-1.317838029	 0.093263
H	 4.3140391568	-1.2050388174	-0.6120635795	 0.104311
H	 3.8575929137	-2.0923945187	 0.9100666056	 0.100146
H	 3.2969813363	-3.0327786573	-1.9882695488	 0.078827
H	 2.6724516694	-4.3803408655	 0.7289800435	 0.113187
H	 2.0821315408	-4.9734941912	-0.8272623671	 0.114627
H	 3.8142889646	-4.9828552879	-0.4708011389	 0.113691
38.4074	76.42	91.7061	122.7523	180.4532	199.5272	208.5894	234.4016	291.8691	310.0904	360.2415	418.2972	449.2914	479.0104	552.7816	759.5076	806.1641	830.1696	868.396	873.9983	909.2845	938.6787	962.842	1025.1221	1046.0751	1071.1364	1112.498	1119.5643	1125.0019	1154.0652	1162.9319	1169.4814	1184.9012	1202.2253	1220.6367	1245.1145	1280.8672	1309.3762	1372.3424	1387.0949	1398.7233	1402.3805	1416.8391	1430.3214	1468.5548	1478.5111	1483.3304	1491.7596	1493.4468	1495.3962	1502.5078	1506.5986	1513.1629	2955.2828	2974.7994	3020.6056	3021.1339	3028.4312	3038.1415	3074.5739	3083.8438	3102.8172	3105.8251	3108.3985	3112.9321	3117.1751	3129.8545	3159.8119	3201.7918
COC(C)CC1CC1C	CO[C@@H](C)C[C@H]1C[C@H]1C	
InChI=1S/C8H16O/c1-6-4-8(6)5-7(2)9-3/h6-8H,4-5H2,1-3H3	InChI=1S/C8H16O/c1-6-4-8(6)5-7(2)9-3/h6-8H,4-5H2,1-3H3/t6-,7+,8-/m1/s1
