16
gdb 125251	3.08941	1.39251	0.96667	4.0618	76.87	-0.2082	-0.047	0.1612	1166.173	0.12612	-434.1213	-434.113118	-434.112174	-434.153829	31.101	
C	-0.0035680287	 1.5304046637	 0.0329773061	-0.475728
C	-0.0509529508	 0.0361920327	 0.0019273917	 0.195
C	-1.1799939411	-0.7031141141	 0.1159149326	-0.243103
C	-1.12359609	-2.1385598553	 0.0698042723	 0.386398
N	-2.2904843573	-2.8760016292	 0.2596158045	-0.566998
N	-0.00623431	-2.7914591917	-0.084179444	-0.286653
N	 1.1131858058	-2.0326291217	-0.1682169984	-0.284743
C	 1.2359545742	-0.6564933735	-0.1532009396	 0.369363
O	 2.3239798824	-0.1055714666	-0.2583553197	-0.396287
H	 0.6454405936	 1.8711967909	 0.8464888195	 0.153871
H	 0.4466188039	 1.9139989478	-0.8887278121	 0.152265
H	-0.9981374646	 1.9644641933	 0.1576320473	 0.116722
H	-2.1455683369	-0.2230800295	 0.2526654988	 0.103275
H	-3.1096923562	-2.4883450059	-0.1870586039	 0.251321
H	-2.1671747314	-3.8545783479	 0.0350979932	 0.256327
H	 1.9702177471	-2.5572416229	-0.2745227185	 0.26897
119.7551	134.591	198.7046	270.8731	308.5881	357.7075	360.2498	404.6318	468.9843	526.3537	580.0314	597.8164	681.6634	722.9389	728.8804	782.5923	819.1289	915.7534	963.1123	1017.4313	1065.5883	1103.868	1171.0396	1246.0037	1270.6709	1355.9871	1411.9336	1442.2705	1451.5829	1464.5817	1490.0592	1599.4901	1640.4296	1686.2764	1762.855	3040.3353	3096.0522	3129.3529	3159.479	3550.804	3608.3808	3653.6564
CC1=CC(N)=NNC1=O	Cc1cc(N)n[nH]c1=O	
InChI=1S/C5H7N3O/c1-3-2-4(6)7-8-5(3)9/h2H,1H3,(H2,6,7)(H,8,9)	InChI=1S/C5H7N3O/c1-3-2-4(6)7-8-5(3)9/h2H,1H3,(H2,6,7)(H,8,9)
