14
gdb 132300	1.97075	1.76241	0.93122	5.7467	70.07	-0.2052	-0.0186	0.1867	1137.4675	0.101925	-478.046469	-478.03893	-478.037986	-478.078352	29.357	
N	 0.033342175	 1.3919703393	 0.1756250856	-0.578227
C	-0.0471194772	 0.0181851547	 0.0597672404	 0.488406
C	-1.2279013132	-0.6839583274	 0.0334615938	-0.406987
C	-1.1368330548	-2.0917585554	-0.0112102842	 0.394226
F	-2.2922269898	-2.7570736133	-0.0331496836	-0.075265
C	 0.0352217288	-2.7868707185	-0.0429351069	-0.449009
C	 1.2867485089	-2.0786468977	-0.0192820611	 0.450922
O	 2.4153436501	-2.5393677364	-0.0315820851	-0.406807
N	 1.1304457319	-0.6620830928	 0.030182313	-0.427075
H	 0.8211476936	 1.8303708477	-0.2800046543	 0.260878
H	-0.8310358501	 1.8795382288	-0.0062324336	 0.267477
H	-2.1880347302	-0.1894231909	 0.0403636527	 0.105489
H	 0.0536075157	-3.8664626786	-0.0783632202	 0.121733
H	 2.0082400112	-0.1660184294	 0.1036335236	 0.254241
166.9286	199.8782	224.4985	290.2939	319.8658	359.7034	491.6095	518.0258	561.594	572.0232	602.1878	623.5868	647.1226	692.7134	741.0377	754.9898	829.7879	941.8751	1014.5032	1051.2066	1116.8015	1185.2218	1196.041	1268.5539	1331.7825	1469.4734	1512.7278	1617.5756	1653.8499	1675.0482	1787.7032	3237.1835	3241.4034	3569.181	3602.1739	3671.8975
NC1=CC(F)=CC(=O)N1	Nc1cc(F)cc(=O)[nH]1	
InChI=1S/C5H5FN2O/c6-3-1-4(7)8-5(9)2-3/h1-2H,(H3,7,8,9)	InChI=1S/C5H5FN2O/c6-3-1-4(7)8-5(9)2-3/h1-2H,(H3,7,8,9)
