17
gdb 16868	3.94447	1.87243	1.415	3.7728	68.21	-0.2336	0.0354	0.2691	881.8382	0.145309	-363.898593	-363.891842	-363.890897	-363.929522	26.691	
O	 0.0133056156	-0.052068051	-0.1280117644	-0.373238
C	-0.0399421615	 1.159220772	-0.0358243907	 0.386262
C	-1.3469804954	 1.9406746033	 0.0459038158	-0.30572
C	-1.2398703671	 3.1187107749	 1.0300051232	-0.243431
C	-0.0968139065	 4.0375133066	 0.6137601698	-0.01556
C	 1.1991071574	 4.088154766	 1.3879791475	-0.304277
C	 1.1303624731	 3.3600008544	 0.0631350941	 0.012262
N	 1.0931786024	 1.9308350377	 0.0381220189	-0.29602
H	-1.5909777871	 2.3156537049	-0.9562807154	 0.121146
H	-2.1262732781	 1.2296899	 0.3269601506	 0.126139
H	-2.1818601788	 3.6743373826	 1.0643695566	 0.106977
H	-1.0725566822	 2.7294183021	 2.0401268596	 0.112911
H	-0.3928394855	 4.9500089101	 0.1068595197	 0.094956
H	 1.744432552	 5.0247404068	 1.4286377833	 0.115304
H	 1.2712119083	 3.4762772172	 2.2810092965	 0.119829
H	 1.6279897688	 3.8193481134	-0.7877690344	 0.098187
H	 1.9598055945	 1.411508029	 0.0349022392	 0.244273
93.5006	176.6438	303.6347	410.0715	448.9888	458.1107	512.1011	556.721	651.2808	709.7106	765.8404	782.5454	835.5676	889.0898	944.4757	953.8739	992.1716	1016.9759	1057.7375	1074.419	1117.4553	1127.8565	1161.3085	1207.5274	1231.6612	1246.0838	1314.5515	1337.7029	1377.2282	1388.0777	1415.0985	1454.5293	1469.8213	1485.2426	1500.774	1797.175	3035.5375	3044.5405	3083.5999	3117.8464	3122.6007	3131.8546	3160.6246	3222.7329	3598.454
O=C1CCC2CC2N1	O=C1CC[C@H]2C[C@H]2N1	
InChI=1S/C6H9NO/c8-6-2-1-4-3-5(4)7-6/h4-5H,1-3H2,(H,7,8)	InChI=1S/C6H9NO/c8-6-2-1-4-3-5(4)7-6/h4-5H,1-3H2,(H,7,8)/t4-,5+/m0/s1
