21
gdb 101064	2.23965	1.22669	1.07632	3.5728	83.96	-0.2357	0.0324	0.2681	1283.6361	0.181234	-383.262355	-383.252295	-383.251351	-383.297352	36.888	
C	-0.2103235862	 1.6005696717	 0.235303836	-0.39657
C	-0.1083474306	 0.0767178758	 0.1878200627	-0.128876
N	-1.3829376728	-0.5729476442	-0.1480341264	-0.110682
C	-1.818462765	-0.3265726761	-1.5216449087	-0.346264
C	-1.4007082648	-1.9697942134	 0.1891331289	 0.208768
C	-1.6892914214	-2.3360310994	 1.6340105829	-0.303119
C	-2.7368337356	-2.5716699197	 0.5872495351	-0.304718
C	-0.4801049364	-2.8292144923	-0.5407785627	 0.250244
N	 0.2727454004	-3.4572571916	-1.1563372149	-0.361741
H	 0.728824115	 2.021853324	 0.6064423219	 0.120402
H	-0.3941793392	 2.036081171	-0.7507829417	 0.123437
H	-1.0182991832	 1.9131437468	 0.9036433876	 0.122405
H	 0.6902719846	-0.2236903733	-0.5135512725	 0.102461
H	 0.1864770105	-0.2923630197	 1.1754806098	 0.107378
H	-1.096576176	-0.6889299165	-2.2731815236	 0.119483
H	-2.7739570381	-0.828996638	-1.6941142269	 0.124652
H	-1.969083228	 0.743709646	-1.6775491488	 0.126324
H	-1.1705315147	-3.18986911	 2.0527329997	 0.13838
H	-1.825397583	-1.4951268885	 2.3033392805	 0.1346
H	-3.5761235111	-1.8876304205	 0.551891437	 0.135148
H	-2.9465187845	-3.588992962	 0.279735764	 0.138288
67.1659	86.1867	132.13	192.3112	215.5481	218.3493	235.5166	291.4203	321.6609	396.4233	423.847	446.0185	578.7212	616.6666	676.635	779.2751	808.3103	818.8334	916.1748	931.8211	956.2959	990.2382	1041.5399	1068.6875	1076.7869	1094.8176	1120.3648	1161.4891	1196.8348	1205.4162	1237.1558	1280.0879	1302.1167	1354.1237	1397.6839	1416.0649	1453.0622	1457.8129	1486.8806	1487.5158	1491.8068	1503.6871	1509.0461	1515.1085	2333.5286	2950.865	2967.7553	3043.2147	3067.1348	3085.4315	3113.4942	3117.4214	3128.3956	3148.1662	3151.4884	3237.5429	3250.5068
CCN(C)C1(CC1)C#N	CCN(C)C1(CC1)C#N	
InChI=1S/C7H12N2/c1-3-9(2)7(6-8)4-5-7/h3-5H2,1-2H3	InChI=1S/C7H12N2/c1-3-9(2)7(6-8)4-5-7/h3-5H2,1-2H3
