18
gdb 41891	2.20526	2.13154	1.86334	2.1417	70.2	-0.2481	0.0217	0.2698	877.8716	0.151912	-439.104439	-439.09757	-439.096626	-439.13579	27.347	
C	 0.0123355173	 1.5253392291	-0.1759466302	-0.241751
C	 1.4154198797	 2.1150963352	 0.117853764	-0.224382
C	 2.3091162146	 1.0523741541	 0.7837196932	-0.013699
C	 1.5120825334	 0.315674113	 1.857729625	-0.071957
O	 0.3825547671	-0.3799210263	 1.3051929721	-0.253359
C	-0.0077735826	 0.0143290888	 0.0329568677	 0.201153
O	 0.7724300414	-0.6658036469	-0.991450961	-0.241484
C	 2.1221354439	-0.574687625	-0.9315218254	 0.131692
N	 2.8799512124	 0.120178693	-0.1963942848	-0.26633
H	-0.7364832568	 1.9498562715	 0.5010145767	 0.114723
H	-0.3168505866	 1.7433220922	-1.1952194847	 0.11907
H	 1.9009060977	 2.4559785651	-0.7999965716	 0.117454
H	 1.3288865425	 2.9853949143	 0.7765798557	 0.10309
H	 3.1514946702	 1.5473126286	 1.2782564846	 0.081173
H	 2.1287406733	-0.4410851743	 2.3512552585	 0.122271
H	 1.1631862642	 1.0283514655	 2.6193109336	 0.098064
H	-1.008344666	-0.3949844017	-0.1207972758	 0.099247
H	 2.5560985842	-1.2414903161	-1.6759962576	 0.125024
74.1259	245.921	283.5579	337.6303	357.9713	444.3062	557.6453	592.5247	624.919	758.5856	792.9268	810.0375	863.9938	883.0945	905.6669	916.9594	978.3556	992.5269	1018.7324	1059.1146	1085.178	1106.6638	1123.0301	1190.8296	1228.3262	1264.312	1279.3761	1294.3826	1354.4845	1364.2589	1365.6928	1389.6066	1396.1602	1419.1684	1424.2813	1475.6786	1496.5975	1512.4571	1735.4163	2999.7256	3040.7717	3050.0827	3058.9025	3083.7938	3089.0098	3097.785	3109.4034	3147.5744
C1CC2COC1OC=N2	C1C[C@H]2CO[C@@H]1OC=N2	
InChI=1S/C6H9NO2/c1-2-6-8-3-5(1)7-4-9-6/h4-6H,1-3H2	InChI=1S/C6H9NO2/c1-2-6-8-3-5(1)7-4-9-6/h4-6H,1-3H2/t5-,6+/m0/s1
