18
gdb 39728	3.28723	1.67337	1.63915	1.931	73.7	-0.2274	0.0825	0.31	907.1098	0.151078	-401.911124	-401.904786	-401.903841	-401.941557	27.013	
C	 0.0201781496	 1.5163211942	-0.0156304151	-0.322321
N	 1.2523315755	 0.6982550856	 0.067555981	-0.388571
C	-0.0492190307	 0.0423402809	 0.0246628774	 0.441911
C	-0.5049290045	-0.8527186425	 1.1467779428	-0.196474
C	-1.7774371505	-1.5441610252	 0.6412528849	-0.125836
C	-2.0395733766	-1.0139990482	-0.7666539333	-0.22745
C	-0.5464402497	-0.8336675573	-1.1288088469	-0.05797
O	 0.0215947454	-2.1154401567	-0.8079538798	-0.260957
C	-0.4384381328	-2.2329165655	 0.5289223572	 0.096377
H	-0.1985821642	 2.1026387215	 0.8726768173	 0.119739
H	-0.2131703568	 2.0180725803	-0.952787504	 0.10837
H	 1.7079857126	 0.6478080592	-0.8409244812	 0.231637
H	-0.29859097	-0.6508987207	 2.187935814	 0.09666
H	-2.5590566243	-1.8862920727	 1.3054343948	 0.091605
H	-2.535176571	-1.7454709779	-1.41091437	 0.105258
H	-2.5892069038	-0.0695310273	-0.7875364298	 0.105245
H	-0.2827630013	-0.5462658053	-2.1451359791	 0.076653
H	-0.1410147069	-3.1408483625	 1.0325962198	 0.106124
157.0424	260.1211	307.368	420.5058	481.642	586.4577	593.3853	711.2143	735.8266	797.7503	815.2972	856.9922	893.5022	902.173	917.9782	934.071	960.1019	968.5025	981.2979	982.4007	1003.7251	1036.8705	1051.2886	1062.858	1080.7574	1083.9904	1136.932	1156.8913	1211.328	1233.7606	1245.124	1261.6178	1281.4808	1299.9724	1324.5566	1378.0932	1441.2599	1485.1517	1521.7105	3061.6479	3097.5906	3114.5769	3141.8757	3182.0923	3209.9782	3221.4787	3233.8698	3491.2938
C1NC11C2C3CC1OC23	C1N[C@]21[C@H]1[C@H]3C[C@@H]2O[C@@H]13	
InChI=1S/C7H9NO/c1-3-5-6(3)9-4(1)7(5)2-8-7/h3-6,8H,1-2H2	InChI=1S/C7H9NO/c1-3-5-6(3)9-4(1)7(5)2-8-7/h3-6,8H,1-2H2/t3-,4+,5+,6-,7+/m1/s1
