18
gdb 56899	2.67346	1.11744	0.98362	3.7863	72.16	-0.2731	0.0157	0.2888	1252.8556	0.146757	-439.075302	-439.06614	-439.065196	-439.109515	33.832	
O	-0.5966166009	 1.0318724467	 0.1518589162	-0.413797
C	-0.0621030231	-0.2783548003	 0.1813253955	-0.020672
C	 0.4843673157	-0.659951931	-1.1400245329	 0.252787
N	 0.939381264	-0.9355738235	-2.1661727997	-0.324505
C	 1.0000395048	-0.4641705353	 1.2736643551	-0.014852
C	 0.397221663	-0.3715742633	 2.7042296738	-0.243659
C	 0.3970393652	-1.9162665388	 2.783798376	 0.124965
O	-0.9093234896	-2.3854721443	 2.4907784678	-0.428061
C	 1.35790072	-1.952066788	 1.5594345447	-0.270005
H	 0.1174719397	 1.6447242469	-0.0593839059	 0.291797
H	-0.9080962925	-0.9367750889	 0.4030672642	 0.154211
H	 1.8480224572	 0.1944780135	 1.0610777215	 0.07562
H	 1.0887247961	 0.0812636385	 3.4178304987	 0.105013
H	-0.5805885117	 0.1044777486	 2.7955926849	 0.130018
H	 0.7749806066	-2.363592562	 3.7116477487	 0.071807
H	-0.8616842382	-3.3378417059	 2.3542754517	 0.286622
H	 1.123743903	-2.6814775701	 0.7783802806	 0.112521
H	 2.4039936308	-2.0738575026	 1.8507556892	 0.110191
65.0469	95.0693	131.8854	221.4589	247.9954	306.0783	337.3841	353.914	393.3408	406.5386	448.7713	531.0523	603.7807	781.4754	805.9347	829.8703	882.7255	934.177	945.4121	978.6065	1012.8208	1051.6402	1067.9757	1099.2314	1150.3505	1172.9235	1199.9989	1242.0857	1260.1647	1273.8973	1287.9838	1307.6819	1329.4722	1379.5804	1414.7365	1428.4117	1462.1814	1483.4743	2351.3466	3017.4693	3049.9287	3059.4875	3078.523	3081.6777	3115.2252	3136.7467	3796.7444	3806.8091
OC(C#N)C1CC(O)C1	O[C@@H](C#N)[C@H]1C[C@@H](O)C1	
InChI=1S/C6H9NO2/c7-3-6(9)4-1-5(8)2-4/h4-6,8-9H,1-2H2	InChI=1S/C6H9NO2/c7-3-6(9)4-1-5(8)2-4/h4-6,8-9H,1-2H2/t4-,5+,6-/m0/s1
