14
gdb 19260	3.06811	2.30219	1.79803	3.9814	57.41	-0.2551	-0.0406	0.2145	756.3043	0.105929	-419.634326	-419.627372	-419.626428	-419.665538	25.782	
O	 0.5158548345	 1.2270840301	 0.0732576672	-0.425269
C	 0.1443479913	-0.1035182395	-0.0375234772	 0.122436
C	-1.3470353379	-0.4861401859	 0.016072576	-0.012212
O	-1.9752104259	 0.0374910266	-1.1626746996	-0.22628
C	-1.265002794	-1.1871882611	-1.2763627301	 0.018032
C	 0.2366189576	-0.828751905	-1.4527712426	-0.214185
C	 0.5197615291	 0.0147941244	-2.6610466352	 0.166254
O	 0.359066793	 1.213498823	-2.6997902549	-0.257847
H	 0.2230966307	 1.6666513996	-0.739902193	 0.305051
H	 0.711204447	-0.6757812639	 0.7042008583	 0.100209
H	-1.9849640466	-0.6590093381	 0.8750419417	 0.114782
H	-1.7922590585	-2.0550207426	-1.6531388481	 0.117631
H	 0.8772309537	-1.7146619696	-1.4391669332	 0.096531
H	 0.8676519161	-0.532690408	-3.5641128192	 0.094867
122.2219	131.9864	218.6977	251.8373	388.2972	427.137	522.4245	625.4387	677.6597	763.5031	780.5862	859.0853	864.9248	901.1637	924.4796	990.6586	1023.6888	1046.9314	1073.0206	1152.8851	1159.4213	1226.4646	1243.0984	1248.08	1321.2303	1345.8887	1385.1863	1426.8105	1464.0039	1797.4524	2891.6917	3061.635	3083.4744	3185.8884	3202.5809	3707.977
OC1C2OC2C1C=O	O[C@H]1[C@H]2O[C@H]2[C@H]1C=O	
InChI=1S/C5H6O3/c6-1-2-3(7)5-4(2)8-5/h1-5,7H	InChI=1S/C5H6O3/c6-1-2-3(7)5-4(2)8-5/h1-5,7H/t2-,3+,4-,5+/m0/s1
