16
gdb 45427	2.66878	1.78383	1.74254	2.1316	65.06	-0.2647	0.0137	0.2784	876.8753	0.127331	-475.030882	-475.024206	-475.023261	-475.061974	26.339	
N	-0.0565708416	 1.2855188328	-0.0478365608	-0.544905
C	-0.0172752247	 0.0269172753	 0.0080690671	 0.449507
O	 1.1333811236	-0.7189842916	 0.0561937115	-0.257517
C	 0.8351440888	-2.1274658432	 0.0271428747	 0.162071
C	-0.0079292497	-2.4535074486	 1.2577343484	-0.096712
O	-1.201993563	-1.6677184304	 1.2078288871	-0.275838
C	-1.2332970722	-0.8732636359	 0.0180177176	-0.032275
C	-1.1360117611	-1.8086119868	-1.1902853119	-0.086562
O	 0.1508656229	-2.4544898175	-1.1481576476	-0.262177
H	 0.8889240232	 1.6750810876	-0.0554105505	 0.225396
H	 1.7931977017	-2.646187318	 0.0094469263	 0.11119
H	-0.2640923504	-3.5199723223	 1.2591545425	 0.117957
H	 0.5474016353	-2.2168635082	 2.172987196	 0.120983
H	-2.1516299624	-0.2897017105	 0.0317953053	 0.120683
H	-1.9282232947	-2.5646463236	-1.1394119933	 0.118314
H	-1.2168950957	-1.260247439	-2.1347055424	 0.129886
111.6887	192.1245	310.8455	389.3326	395.425	425.462	527.9945	601.407	664.8504	750.8172	833.5596	867.4585	877.7629	888.6324	911.1831	930.1641	979.6333	1023.4755	1061.27	1077.3663	1099.3696	1124.5796	1164.077	1221.8517	1235.2483	1285.8509	1308.8461	1328.2314	1345.625	1398.0766	1399.0287	1404.6555	1506.7407	1512.2132	1785.0546	3023.9271	3031.8008	3068.3697	3083.4299	3132.8213	3150.6521	3460.8466
N=C1OC2COC1CO2	[NH][C]1O[C@H]2CO[C@@H]1CO2	
InChI=1S/C5H7NO3/c6-5-3-1-8-4(9-5)2-7-3/h3-4,6H,1-2H2	InChI=1S/C5H7NO3/c6-5-3-1-8-4(9-5)2-7-3/h3-4,6H,1-2H2/t3-,4+/m1/s1
