22
gdb 89071	4.62446	0.65387	0.61662	1.654	83.96	-0.2275	0.0817	0.3092	1854.4182	0.19335	-404.292599	-404.282908	-404.281963	-404.328186	35.867	
O	-0.1202685913	 1.4769351345	 0.0134229249	-0.41589
C	-0.0469978759	 0.0804027197	-0.0247080141	 0.088494
C	-0.5918240003	-0.7290418805	 1.1261494888	-0.327208
C	-1.3383778826	-0.665313389	-0.1962207313	-0.013742
C	-2.6565216726	 0.0730197589	-0.2932381081	-0.203448
C	-3.839117436	-0.7800950939	 0.1702140978	-0.135534
N	-5.0856907893	-0.0254658871	 0.0962777178	-0.057174
C	-5.8013352417	-0.0831268939	-1.1736795159	-0.218135
C	-6.31382224	-0.8061379933	 0.0229753367	-0.22114
H	 0.5057528057	 1.7883015641	 0.6750190179	 0.287602
H	 0.8273139273	-0.3109685259	-0.5454937767	 0.082828
H	-0.0875744899	-1.6451308862	 1.4145555316	 0.107482
H	-1.019013239	-0.1651392896	 1.9498126193	 0.113955
H	-1.2733744766	-1.5576089496	-0.8148844278	 0.082246
H	-2.6157870094	 0.9890981908	 0.3017524725	 0.119296
H	-2.8254448026	 0.3882373102	-1.3311231387	 0.09795
H	-3.8871681518	-1.7111617866	-0.4274648197	 0.069939
H	-3.6910147144	-1.0820635126	 1.214174691	 0.102152
H	-6.2638574058	 0.8427880279	-1.5033689846	 0.115165
H	-5.3754002774	-0.6893534122	-1.9725899906	 0.105588
H	-6.2300271855	-1.8922790336	 0.0186402166	 0.105533
H	-7.1577248409	-0.4180260119	 0.5865684826	 0.114041
52.4983	67.3135	97.7997	129.3936	212.5741	255.3923	297.4861	360.332	387.1992	429.3855	468.7058	583.4531	756.1935	773.5216	790.6661	837.2492	841.0795	886.2198	915.799	955.2837	987.6122	1018.2983	1031.497	1047.5987	1075.4756	1093.8565	1112.498	1116.2241	1136.3878	1149.496	1173.8773	1178.1305	1202.0859	1238.6418	1250.4384	1292.4857	1302.4791	1319.8666	1325.5136	1390.3487	1409.8047	1425.4378	1483.1882	1488.8731	1493.06	1504.1852	1524.1665	2911.7833	3026.2173	3049.0344	3088.9791	3091.0952	3093.7193	3100.2663	3125.338	3132.0883	3172.4687	3186.8846	3214.1796	3809.6651
OC1CC1CCN1CC1	O[C@H]1C[C@H]1CCN1CC1	
InChI=1S/C7H13NO/c9-7-5-6(7)1-2-8-3-4-8/h6-7,9H,1-5H2	InChI=1S/C7H13NO/c9-7-5-6(7)1-2-8-3-4-8/h6-7,9H,1-5H2/t6-,7+/m1/s1
