20
gdb 96504	2.41105	1.55997	1.04755	2.7105	76.48	-0.2601	0.0266	0.2867	1172.2227	0.172627	-440.301583	-440.29312	-440.292175	-440.334737	32.496	
C	-0.1519408885	 1.529558145	 0.0684992384	-0.393532
C	 0.0044638733	 0.0053568806	 0.0433875058	-0.082446
C	 0.6801557232	-0.4639401148	-1.2683065259	-0.201008
C	 0.4346728294	-1.9281974533	-1.6217486103	-0.093275
O	 0.944793772	-2.8485928235	-0.6640513091	-0.223107
C	 0.3311248496	-2.7930530335	 0.578118189	 0.013616
O	 0.8992951358	-1.8340940473	 1.462761068	-0.249361
C	 0.7646356699	-0.4852837255	 1.2643361645	 0.400392
N	 1.2867452631	 0.3258829079	 2.0843472028	-0.504845
H	 0.8214691541	 2.0207307057	-0.003462423	 0.1351
H	-0.7727274475	 1.8529046255	-0.7732365322	 0.099994
H	-0.6144939172	 1.8623685593	 0.9990757053	 0.132018
H	-1.0021819196	-0.4379160619	 0.0771114043	 0.088931
H	 0.286980706	 0.1407312972	-2.0943979767	 0.104795
H	 1.7574337791	-0.2691781401	-1.2158577825	 0.121785
H	-0.6458173655	-2.101927473	-1.7548457929	 0.094108
H	 0.9310456341	-2.1823164262	-2.5623012293	 0.117443
H	-0.752316603	-2.6246526587	 0.4808453603	 0.093918
H	 0.5168963052	-3.7473873673	 1.0739687541	 0.126169
H	 1.7638791063	-0.1892640062	 2.8268011994	 0.219303
65.0647	135.7054	227.3822	250.0385	275.9415	318.7091	348.4251	396.6425	423.3984	503.5992	559.2242	617.8968	691.4622	763.0461	854.1675	867.4331	920.6109	964.8779	981.0132	995.4217	1041.0593	1070.8076	1102.1185	1119.7855	1123.4814	1177.6372	1198.7275	1231.2342	1287.9501	1294.7911	1319.0082	1342.1253	1372.5897	1392.5471	1413.2817	1418.896	1454.859	1475.3114	1486.7593	1494.4534	1495.9308	1510.3572	1740.8056	2973.6456	2981.0523	2997.8684	3033.3985	3046.7654	3079.5254	3093.0154	3117.4646	3120.336	3140.3411	3466.6945
CC1CCOCOC1=N	C[C@H]1CCOCO[C]1[NH]	
InChI=1S/C6H11NO2/c1-5-2-3-8-4-9-6(5)7/h5,7H,2-4H2,1H3	InChI=1S/C6H11NO2/c1-5-2-3-8-4-9-6(5)7/h5,7H,2-4H2,1H3/t5-/m0/s1
