21
gdb 38419	3.69086	1.27819	1.26443	1.1556	81.23	-0.2248	0.084	0.3088	1112.3945	0.184252	-387.073138	-387.065522	-387.064578	-387.105092	31.238	
C	-0.1512438752	 1.3395836396	 0.7686389918	-0.326171
C	 1.1919837438	 1.0782548621	 0.1050683538	-0.072001
C	 2.2198136826	 0.273831443	 0.8806806463	-0.295898
C	 1.4335570836	-0.9686843001	 1.3699160932	 0.427249
C	 2.2411080275	-2.2741555382	 1.5587596671	-0.284158
C	 2.2949024243	-1.9898265949	 3.0845349643	-0.223474
C	 1.1171154212	-0.9966318123	 2.8990111528	-0.265681
O	 0.3186647357	-1.1022319386	 0.4916832441	-0.299176
C	 0.047025564	 0.133529949	-0.1136547252	 0.105191
H	-0.258378298	 1.1949267517	 1.8380365764	 0.1204
H	-0.7426472723	 2.1551376872	 0.3655025266	 0.109671
H	 1.5355497098	 1.7548144333	-0.668428745	 0.088072
H	 3.0261178148	-0.0284816012	 0.2024079209	 0.103366
H	 2.6744883197	 0.8177972947	 1.7143193365	 0.105072
H	 1.6085831544	-3.1351772893	 1.3280322565	 0.113792
H	 3.1829144225	-2.3665937682	 1.0114201335	 0.09317
H	 2.1340515343	-2.8348146189	 3.7564090063	 0.101265
H	 3.2196763011	-1.4857132583	 3.377795179	 0.102598
H	 1.1503048887	-0.0508913429	 3.4473918978	 0.090741
H	 0.1490622492	-1.4756534829	 3.0668401788	 0.109036
H	-0.4920841416	 0.0236725853	-1.0471182055	 0.096937
104.1529	126.2578	222.6888	323.1778	373.5316	399.1482	442.631	494.7978	667.3364	692.5135	761.547	772.8517	791.509	810.0876	860.3948	899.7375	910.7189	927.067	932.7023	958.5002	982.893	1005.545	1035.2114	1040.1398	1077.2513	1089.8353	1126.9949	1137.8983	1166.2931	1188.6338	1194.0815	1208.6318	1233.8394	1246.728	1263.1447	1273.0978	1293.2573	1323.8761	1347.1997	1392.0916	1467.8027	1478.8679	1483.5999	1494.7905	1505.5412	3035.9874	3051.179	3058.2921	3066.7987	3080.6545	3104.275	3113.248	3126.8018	3131.7371	3174.6962	3185.3719	3219.7966
C1C2CC3(CCC3)OC12	C1[C@H]2CC3(CCC3)O[C@@H]12	
InChI=1S/C8H12O/c1-2-8(3-1)5-6-4-7(6)9-8/h6-7H,1-5H2	InChI=1S/C8H12O/c1-2-8(3-1)5-6-4-7(6)9-8/h6-7H,1-5H2/t6-,7-/m0/s1
