23
gdb 109795	2.66755	1.05945	0.89953	1.0734	87.37	-0.2335	0.0799	0.3134	1437.5407	0.204309	-388.250337	-388.240158	-388.239214	-388.28596	37.291	
C	-0.06937703	 1.2242943892	-0.2004576571	-0.231443
O	-0.1490971973	-0.0091183501	 0.485467798	-0.234871
C	-1.3321912603	-0.6987054524	 0.2244768523	 0.089556
C	-1.3846131541	-1.6861081333	-0.9275744504	-0.069081
C	-0.2114182576	-1.8618150091	-1.8680048543	-0.407595
C	-1.3281644592	-2.1721138741	 0.5183546975	-0.090041
C	-0.1196025041	-2.8417394655	 1.0947001811	 0.037145
C	-0.1998178449	-3.4843293387	 2.4582240031	-0.273756
C	-0.0800520006	-4.3459537449	 1.2254103685	-0.273344
H	 0.8788930503	 1.6889720577	 0.0804036299	 0.125237
H	-0.0968556545	 1.0902036513	-1.2907199556	 0.110718
H	-0.892829789	 1.8961940237	 0.0861578669	 0.10601
H	-2.2315700709	-0.122899531	 0.4523050945	 0.076162
H	-2.3567169769	-1.7872848975	-1.4046360278	 0.077143
H	 0.7282111694	-1.5634768512	-1.3978786465	 0.129207
H	-0.1111414142	-2.9050501465	-2.1863689109	 0.117841
H	-0.3398701783	-1.2521093302	-2.7691159479	 0.109576
H	-2.2643740354	-2.5660809603	 0.9083776906	 0.076956
H	 0.8206213965	-2.3547823181	 0.866139163	 0.094628
H	 0.6574292416	-3.400955235	 3.1170756705	 0.109274
H	-1.1555989118	-3.4647942686	 2.9721367428	 0.106982
H	-0.9567825852	-4.9031966929	 0.9112489337	 0.10656
H	 0.8584910365	-4.8567846727	 1.0394156884	 0.107136
50.0417	105.3619	110.6096	141.165	172.5696	193.9858	251.2359	272.0975	309.1065	337.4145	496.3333	600.8875	606.1993	746.8729	773.5162	798.0111	828.0494	836.67	913.5338	939.6615	971.6572	993.059	1030.2212	1059.0508	1068.2799	1077.1439	1108.4703	1124.1714	1134.8041	1146.1321	1170.9063	1184.6142	1198.7769	1202.0312	1223.8662	1244.5179	1267.777	1307.906	1368.2145	1408.9619	1415.4212	1460.7472	1470.3448	1485.8455	1486.8461	1497.8546	1500.6869	1508.714	1509.8127	2983.8061	3033.0901	3037.9274	3072.7473	3087.0444	3115.3769	3115.9168	3123.0025	3126.5926	3131.5712	3136.1431	3183.1283	3204.1485	3220.7884
COC1C(C)C1C1CC1	CO[C@H]1[C@@H](C)[C@H]1C1CC1	
InChI=1S/C8H14O/c1-5-7(6-3-4-6)8(5)9-2/h5-8H,3-4H2,1-2H3	InChI=1S/C8H14O/c1-5-7(6-3-4-6)8(5)9-2/h5-8H,3-4H2,1-2H3/t5-,7-,8-/m0/s1
