21
gdb 87486	2.91578	1.37762	1.12931	1.7557	83.31	-0.249	0.0848	0.3339	1164.2497	0.182575	-387.02074	-387.012379	-387.011435	-387.053175	33.767	
C	-0.0515246131	 1.5365523343	-0.0229425389	-0.405093
C	 0.0366528066	 0.0258978234	 0.0271280725	-0.129482
C	 1.3819451477	-0.6635668007	-0.2058558911	-0.430334
C	 0.7220167084	-0.6786850322	 1.1436706191	 0.442112
C	 1.1813704136	-0.2168620902	 2.5471358593	-0.184321
C	-0.2049935796	-0.7157313413	 3.053849502	-0.223612
C	 0.2788580327	-1.8279124617	 2.0764159571	-0.187156
C	 1.6748263122	-1.6870363226	 2.7738628682	 0.193871
O	 2.83812196	-2.1614976518	 2.1699614275	-0.450185
H	 0.8330498563	 1.9974179119	 0.4285670108	 0.115311
H	-0.1240332468	 1.8960745883	-1.0553595861	 0.117531
H	-0.9292084282	 1.9037573338	 0.520556436	 0.118452
H	-0.8184137432	-0.4895332893	-0.4061642637	 0.085812
H	 1.3907681158	-1.570132766	-0.8048334191	 0.1157
H	 2.2436305722	-0.0190236713	-0.3623797736	 0.115055
H	 1.694594471	 0.7081707851	 2.8128185591	 0.073063
H	-0.2698721994	-0.9880792892	 4.1111244607	 0.090124
H	-1.0706583326	-0.1374928168	 2.729068885	 0.100932
H	-0.2429371634	-2.7448665176	 1.7985716945	 0.072083
H	 1.7087515638	-2.0099439797	 3.817839553	 0.078794
H	 2.8247605657	-1.8824782562	 1.2475293978	 0.291343
132.859	146.135	199.7463	228.5918	307.5139	348.5109	400.6672	410.1491	438.174	492.5637	594.3075	661.765	764.1162	802.6756	824.2976	858.7597	886.6115	892.6106	895.6087	965.6356	989.5447	1013.6313	1021.765	1050.9891	1071.5251	1080.8968	1112.836	1123.3193	1133.9976	1150.2664	1170.6242	1179.9038	1193.5244	1220.1939	1247.9193	1253.2685	1303.7559	1339.1175	1413.0378	1432.5327	1451.9552	1492.5293	1493.2641	1507.357	1521.324	3027.0362	3057.9234	3080.3538	3088.4736	3095.6424	3103.9446	3105.3635	3110.4724	3125.0574	3135.2472	3189.0007	3802.3119
CC1CC11C2CC1C2O	C[C@H]1C[C@]21[C@H]1C[C@@H]2[C@H]1O	
InChI=1S/C8H12O/c1-4-3-8(4)5-2-6(8)7(5)9/h4-7,9H,2-3H2,1H3	InChI=1S/C8H12O/c1-4-3-8(4)5-2-6(8)7(5)9/h4-7,9H,2-3H2,1H3/t4-,5-,6+,7-,8-/m0/s1
