14
gdb 5777	6.20861	1.5013	1.31023	2.4599	64.09	-0.2205	0.0176	0.2381	901.4091	0.109561	-378.735095	-378.728637	-378.727693	-378.766074	24.	
C	 0.8705051512	 0.9599497275	-0.1106311812	-0.17316
O	-0.0284477836	 0.0905990914	-0.8035268404	-0.246195
C	-0.4621043273	 0.653121297	 0.4426732195	-0.023634
C	-0.64822332	-0.3209334632	 1.5348261337	 0.35246
N	-1.2374536294	-0.1038614397	 2.6905493993	-0.318416
C	-1.1493310599	-1.2973478201	 3.3701766078	-0.09005
C	-0.5071471809	-2.2409357558	 2.6114214699	-0.107518
N	-0.1844831883	-1.5994266203	 1.4372013089	-0.274282
H	 1.7474066087	 0.4809119211	 0.3210775166	 0.119833
H	 1.0446802886	 1.9240793991	-0.5853474173	 0.127238
H	-1.2360232092	 1.4145882848	 0.3743258104	 0.122553
H	-1.5559099109	-1.4089623397	 4.3637174456	 0.108317
H	-0.2638964009	-3.2760093701	 2.7832924495	 0.128755
H	 0.2269020222	-1.9930526221	 0.6066987078	 0.274098
86.9729	167.4886	187.4067	401.8845	459.1391	595.7486	657.9681	670.6526	729.9421	748.3792	851.989	858.3717	895.5237	932.5167	981.104	1015.1802	1089.6734	1095.1457	1137.5207	1150.7617	1167.9419	1179.9045	1254.4556	1287.0052	1369.8073	1409.8083	1469.3764	1509.1194	1525.0105	1596.664	3088.9962	3143.3395	3182.4477	3250.0211	3282.2868	3662.092
C1OC1C1=NC=CN1	C1O[C@H]1c1ncc[nH]1	
InChI=1S/C5H6N2O/c1-2-7-5(6-1)4-3-8-4/h1-2,4H,3H2,(H,6,7)	InChI=1S/C5H6N2O/c1-2-7-5(6-1)4-3-8-4/h1-2,4H,3H2,(H,6,7)/t4-/m1/s1
