21
gdb 82468	2.64851	1.64598	1.48279	1.6033	81.17	-0.2341	0.0805	0.3147	1030.1311	0.183678	-387.056806	-387.04901	-387.048065	-387.08851	31.981	
C	-0.0673086776	 1.550308821	-0.008239815	-0.433496
C	 0.091503653	 0.0322685548	 0.0039433033	 0.060636
C	 1.0288427705	-0.6183599134	-1.0435334678	-0.112305
C	 2.4093615961	 0.0151186172	-0.7367856686	-0.304513
C	 2.3200228711	-0.7727334481	 0.5833583014	 0.326653
C	 3.4639779318	-1.0391557843	 1.5257575825	-0.512496
C	 1.4891557401	-1.8629446144	-0.1363537893	 0.065611
O	 0.5872079771	-2.0206110204	 0.9623982468	-0.297003
C	 0.8555823293	-0.6014940439	 1.1881241721	 0.006977
H	 0.8719084275	 2.0817433343	 0.1657739228	 0.118518
H	-0.471288384	 1.8951814511	-0.9659990142	 0.118407
H	-0.7662085021	 1.8627883824	 0.7752564517	 0.115888
H	-0.8984329701	-0.4330190994	-0.0312611948	 0.080895
H	 0.6639963008	-0.7364733605	-2.062826645	 0.062886
H	 3.2007324034	-0.4076155978	-1.3649888311	 0.095927
H	 2.5059698512	 1.1028090255	-0.7307704651	 0.094875
H	 3.7567439213	-0.1305503034	 2.0649361821	 0.116206
H	 3.1824679444	-1.7940981185	 2.2673920566	 0.130949
H	 4.3458084685	-1.4036464156	 0.987681827	 0.114907
H	 1.8583361255	-2.7824236803	-0.5903102018	 0.079542
H	 0.6629649024	-0.2731908962	 2.2103075865	 0.070938
151.1739	194.2506	227.3077	257.8801	300.42	315.736	446.713	519.286	527.2767	591.6398	686.4363	723.7801	779.3378	822.4201	859.309	867.5157	886.395	920.4781	946.9974	959.475	999.1806	1019.0718	1044.3115	1061.7855	1088.8203	1111.7654	1130.6308	1164.594	1165.8122	1195.6924	1209.5939	1227.7248	1242.2069	1259.5236	1307.0994	1322.866	1362.3086	1375.8554	1409.3037	1412.9068	1491.5683	1493.7566	1494.3899	1498.1282	1520.1211	3024.4318	3035.1384	3051.1623	3058.0814	3086.1709	3094.2088	3099.4076	3102.1947	3113.5813	3117.8211	3120.1034	3130.0275
CC1C2CC3(C)C2OC13	C[C@H]1[C@H]2C[C@]3(C)[C@H]2O[C@H]13	
InChI=1S/C8H12O/c1-4-5-3-8(2)6(4)9-7(5)8/h4-7H,3H2,1-2H3	InChI=1S/C8H12O/c1-4-5-3-8(2)6(4)9-7(5)8/h4-7H,3H2,1-2H3/t4-,5+,6+,7-,8-/m0/s1
