19
gdb 133761	1.84905	1.36401	0.95757	2.8306	64.76	-0.2328	0.0701	0.3029	1287.6953	0.154488	-550.714548	-550.704407	-550.703463	-550.750107	36.085	
C	-0.0834771268	 1.5682854957	 0.0690958312	-0.399517
C	 0.0888533149	 0.0476835161	 0.0114460161	-0.212556
C	 0.7809073332	-0.4407589802	-1.2707482722	-0.091449
N	 2.1978077382	-0.1125972389	-1.2779669676	-0.29023
C	 2.7740451633	 0.1942527879	-2.5824368641	-0.325532
C	 0.6114436296	-1.9584531608	-1.4010612072	 0.302603
F	-0.6898269581	-2.2810271397	-1.5364516459	-0.087464
F	 1.2484678612	-2.4417275371	-2.4805120104	-0.082956
F	 1.077806902	-2.6135515708	-0.3322056825	-0.077294
H	 0.8737076001	 2.09861275	 0.0197618224	 0.114244
H	-0.7021766735	 1.9277253279	-0.7599336314	 0.123768
H	-0.5697162277	 1.8649608724	 1.0027543573	 0.124644
H	 0.6711171037	-0.3067089272	 0.8696459212	 0.1199
H	-0.8917598054	-0.4322257666	 0.0782143465	 0.121794
H	 0.2530512908	-0.0151700604	-2.1427330172	 0.079309
H	 2.3769782037	 0.6434472622	-0.631445616	 0.22378
H	 2.2459365823	 0.9987109365	-3.1243664722	 0.09626
H	 3.8163406339	 0.4976147674	-2.4502812108	 0.120614
H	 2.7631580445	-0.6974579242	-3.2128667471	 0.140082
64.6794	95.1238	106.6509	171.7522	188.2594	199.1811	268.0536	284.6223	310.8757	352.6218	427.493	479.9587	548.399	572.7062	663.6032	717.5896	777.5215	852.7391	928.2134	970.3601	1050.2887	1097.4483	1100.8988	1143.8427	1166.8839	1173.3571	1194.51	1225.306	1287.8449	1305.749	1340.5013	1377.0491	1402.9485	1418.85	1463.0948	1484.2458	1489.1502	1497.3788	1504.2601	1509.2495	1527.5567	2947.7263	2951.1474	3035.5483	3049.2175	3082.5803	3085.6952	3108.2474	3111.7879	3128.9909	3570.7919
CCC(NC)C(F)(F)F	CC[C@@H](NC)C(F)(F)F	
InChI=1S/C5H10F3N/c1-3-4(9-2)5(6,7)8/h4,9H,3H2,1-2H3	InChI=1S/C5H10F3N/c1-3-4(9-2)5(6,7)8/h4,9H,3H2,1-2H3/t4-/m1/s1
