23
gdb 100653	2.43341	1.13712	0.9985	1.0223	88.17	-0.2503	0.0565	0.3068	1356.776	0.201158	-388.256215	-388.244736	-388.243792	-388.292261	42.219	
C	 0.022755866	 1.3842894811	-0.084149427	-0.237098
O	-0.0162706202	-0.0125142644	 0.0891858951	-0.255188
C	-1.311846264	-0.593213052	 0.0097513372	 0.1415
C	-1.8099901471	-0.6617851173	-1.4359030156	-0.422672
C	-1.2141485622	-1.9800732558	 0.7231250611	 0.056504
C	-0.2033622037	-2.9056959834	 0.006631347	-0.412738
C	-0.7635567804	-1.7608371525	 2.1870715782	-0.412547
C	-2.5416409966	-2.6034063703	 0.7309671142	 0.329531
C	-3.6271444071	-3.12085386	 0.7599203663	-0.492956
H	 1.0485003239	 1.7038299665	 0.1172396579	 0.12688
H	-0.2420454737	 1.6923765739	-1.105759161	 0.109054
H	-0.6522976209	 1.8994135428	 0.6171149705	 0.104633
H	-2.0157962637	 0.0183880584	 0.5982713414	 0.068997
H	-1.967074622	 0.3420237399	-1.8404012473	 0.113179
H	-1.0823722514	-1.1720581091	-2.0728886385	 0.124553
H	-2.7612907589	-1.1963863826	-1.4874624674	 0.135544
H	 0.7661223605	-2.4069843726	-0.0624054513	 0.132591
H	-0.0841415859	-3.8360261163	 0.5683231413	 0.117574
H	-0.5382564799	-3.1647699708	-1.000456073	 0.120236
H	-1.4720177679	-1.119871423	 2.7204730661	 0.11452
H	-0.7096696483	-2.7167183851	 2.7147821936	 0.116788
H	 0.2187782336	-1.2854758738	 2.2048337698	 0.129897
H	-4.5845204102	-3.5796650436	 0.7828677313	 0.191217
70.5579	74.9098	139.9397	179.4318	185.3986	218.0589	230.7816	244.8525	277.3454	284.0724	341.6676	349.0035	405.4482	431.0727	500.4447	554.6072	585.0153	622.1666	636.1363	724.6951	844.7328	893.4888	946.0269	948.7697	1014.2162	1057.0977	1065.5851	1113.8934	1148.6811	1180.0317	1186.8035	1216.9263	1232.7642	1253.6622	1364.2869	1377.5521	1389.8545	1404.4972	1414.2786	1477.3474	1482.831	1483.9844	1489.2591	1492.7928	1502.2063	1506.0251	1512.8688	1516.1317	2227.8991	2963.6977	2979.1795	3029.1239	3045.5126	3050.0198	3052.9453	3109.1823	3114.4737	3116.9667	3123.4916	3134.461	3136.7619	3140.6379	3501.5266
COC(C)C(C)(C)C#C	CO[C@@H](C)C(C)(C)C#C	
InChI=1S/C8H14O/c1-6-8(3,4)7(2)9-5/h1,7H,2-5H3	InChI=1S/C8H14O/c1-6-8(3,4)7(2)9-5/h1,7H,2-5H3/t7-/m0/s1
