15
gdb 10717	2.6557	2.16361	1.36857	2.6404	57.48	-0.2455	0.0081	0.2535	886.949	0.118488	-436.940248	-436.932282	-436.931338	-436.972746	29.34	
N	 0.184476919	 1.1517549724	-0.5118996871	-0.542368
C	 0.0954174249	-0.0423960422	 0.1321595009	 0.357299
O	 0.9661961154	-0.4962573089	 0.8482431382	-0.359069
C	-1.2101358647	-0.8003206499	-0.122463681	 0.268513
C	-2.0459646413	-0.470982114	-1.3406230781	-0.171327
O	-2.5449561722	 0.865358858	-1.2973344813	-0.412675
C	-1.3463761939	-2.1070053489	 0.5319369763	-0.206415
O	-1.9996006241	-0.9597309747	 1.0772003854	-0.273909
H	 0.9826631528	 1.7305102993	-0.3038651509	 0.259883
H	-0.6436726256	 1.5625836831	-0.9214198822	 0.273487
H	-1.4465876044	-0.5417287367	-2.2530868797	 0.129949
H	-2.8717981935	-1.1903090652	-1.4127489054	 0.111572
H	-3.0694105145	 0.9385580121	-0.4904872784	 0.301853
H	-2.0046931541	-2.8553537283	 0.0933590604	 0.1124
H	-0.5002499137	-2.470039206	 1.107925793	 0.150808
63.6309	120.6997	229.9039	256.7887	307.8939	336.5613	412.956	431.2734	490.9575	521.3613	622.9027	684.6278	702.0439	779.9223	825.3003	919.7588	970.5402	982.8318	1051.7283	1132.4768	1136.8594	1168.5074	1192.0567	1248.1144	1343.1672	1360.9337	1414.8837	1437.8227	1488.2058	1505.7058	1622.2401	1801.8662	3023.9455	3095.679	3097.1536	3206.0692	3538.597	3692.8945	3791.2575
NC(=O)C1(CO)CO1	NC(=O)[C@@]1(CO)CO1	
InChI=1S/C4H7NO3/c5-3(7)4(1-6)2-8-4/h6H,1-2H2,(H2,5,7)	InChI=1S/C4H7NO3/c5-3(7)4(1-6)2-8-4/h6H,1-2H2,(H2,5,7)/t4-/m1/s1
