19
gdb 115242	4.10068	0.98744	0.82982	1.6933	73.88	-0.2463	0.0122	0.2585	1356.2978	0.16158	-456.340898	-456.332367	-456.331423	-456.374433	32.085	
O	-0.0088819608	 1.4429327993	 0.0145135999	-0.421183
C	 0.0580776839	 0.0384576231	-0.0716997874	-0.071933
C	-1.3408500359	-0.5760868204	 0.0116793343	-0.006897
C	-1.3430394913	-2.0966889627	-0.0575091744	-0.088146
O	-2.6503542048	-2.6595383568	 0.1477135047	-0.252705
C	-3.5039106499	-2.0984098388	 1.0560593811	 0.373153
N	-4.443639207	-2.7603578069	 1.5835532408	-0.501553
C	-3.3536621429	-0.6117234052	 1.3281818039	-0.249244
N	-1.9802462121	-0.1113238922	 1.2494949861	-0.315458
H	-0.6992994998	 1.6245222406	 0.6682509344	 0.288273
H	 0.5318090471	-0.2160564454	-1.0260552302	 0.111701
H	 0.6892594141	-0.3875250063	 0.7303224662	 0.07972
H	-1.9381173794	-0.1780297413	-0.8195120326	 0.102557
H	-1.0195631531	-2.4628169975	-1.0362297681	 0.12364
H	-0.6630876971	-2.5090718622	 0.7031006884	 0.103738
H	-4.4212894312	-3.7282814155	 1.2535678264	 0.219868
H	-3.9530814973	-0.0738325859	 0.5818413993	 0.139173
H	-3.7857649859	-0.3958695663	 2.3060420079	 0.142294
H	-1.4506755565	-0.4681535597	 2.0438923393	 0.223
69.3938	120.0964	161.3776	185.9228	246.2014	354.4032	403.3171	440.6012	485.3654	514.6389	542.7279	552.1848	718.6372	778.2853	849.804	889.8398	921.1633	942.1003	997.9889	1000.8356	1079.552	1092.8563	1104.9195	1135.9355	1151.2061	1152.4091	1217.2591	1251.0342	1286.6719	1302.7942	1332.3716	1346.9345	1371.5316	1393.9971	1431.5545	1452.9402	1466.512	1484.3742	1504.2253	1519.2118	1750.9134	2931.8255	2996.1894	3028.6557	3032.3825	3066.2442	3087.9963	3129.2737	3454.6255	3463.3995	3730.5402
OCC1COC(=N)CN1	OC[C@H]1CO[C]([NH])CN1	
InChI=1S/C5H10N2O2/c6-5-1-7-4(2-8)3-9-5/h4,6-8H,1-3H2	InChI=1S/C5H10N2O2/c6-5-1-7-4(2-8)3-9-5/h4,6-8H,1-3H2/t4-/m0/s1
