16
gdb 30390	2.89323	1.39739	0.94781	4.6225	78.54	-0.201	-0.0081	0.1929	1187.7527	0.125778	-434.115691	-434.107383	-434.106439	-434.149317	30.54	
C	 0.019040992	 1.4135115862	 0.0084755125	-0.30329
N	 0.0374403461	-0.0385066941	 0.0049603962	-0.32448
C	-1.0880802191	-0.6473821254	 0.0108878178	 0.347504
C	-1.1230071507	-2.1109980537	 0.0076504182	-0.151494
C	-2.2934464065	-2.7631849003	 0.0137254863	-0.011685
N	-3.482169823	-2.0410996918	 0.0231293668	-0.365081
C	-3.4108130849	-0.6808871374	 0.0258801145	 0.498549
O	-4.6250431224	-0.1030111333	 0.0351758496	-0.410926
N	-2.3361928323	 0.0171786561	 0.0205863745	-0.439157
H	 1.0481766083	 1.7837323316	 0.0000631939	 0.103819
H	-0.5031908719	 1.8265645225	-0.8661531017	 0.107662
H	-0.4869485607	 1.8221497869	 0.8946741233	 0.10766
H	-0.1819369948	-2.6432803473	 0.0002804114	 0.118027
H	-2.3987346304	-3.8398132527	 0.0118893363	 0.13437
H	-4.3825751342	-2.4897352509	 0.0279761089	 0.274792
H	-4.4576089556	 0.8500872035	 0.0363477317	 0.31373
42.6284	106.044	200.2454	204.4094	242.6883	405.4437	406.3386	484.4978	485.2135	539.3784	559.1466	604.2399	708.1463	760.5529	762.3305	822.0224	951.2275	958.1429	1000.0361	1049.691	1074.0258	1103.3702	1166.2931	1207.1879	1229.8875	1273.8226	1377.1284	1425.0197	1434.9039	1480.5948	1495.2491	1550.5041	1646.1159	1709.7201	1725.1563	2990.197	3036.1611	3090.5038	3220.5923	3240.8993	3665.4525	3774.9804
CN=C1C=CNC(O)=N1	C[N]C1=N[C@@H](NC=C1)O	
InChI=1S/C5H7N3O/c1-6-4-2-3-7-5(9)8-4/h2-3H,1H3,(H2,6,7,8,9)	InChI=1S/C5H8N3O/c1-6-4-2-3-7-5(9)8-4/h2-3,5,7,9H,1H3/t5-/m1/s1
