21
gdb 100257	2.09793	1.01592	0.80828	2.8444	83.7	-0.2464	0.0334	0.2798	1540.3805	0.178566	-424.203776	-424.192117	-424.191173	-424.242636	40.643	
C	 0.1523025038	 1.4861810189	-0.1897813282	-0.41134
C	 0.0466026483	-0.0134478216	 0.0913653764	-0.184679
C	-1.4011197331	-0.5550806989	 0.0920145876	 0.125453
O	-2.0466239255	-0.2792842568	-1.1652835602	-0.472683
C	-1.4052297146	-2.1001285161	 0.1592069058	-0.064942
O	-0.7874559311	-2.6669527789	-0.9752334424	-0.426034
C	-2.1787956	-0.0058966599	 1.207478477	 0.07221
C	-2.822279261	 0.4402497832	 2.1236145995	 0.049142
C	-3.6026290663	 0.9752549242	 3.230204939	-0.500935
H	 1.194552109	 1.8151289462	-0.1466235666	 0.118617
H	-0.221468	 1.7306359657	-1.1899653187	 0.110385
H	-0.4147604184	 2.0706270131	 0.542327685	 0.12268
H	 0.5988461915	-0.5850392351	-0.6603821583	 0.11548
H	 0.4919258704	-0.2420925103	 1.0664789002	 0.10025
H	-2.2478837293	 0.6606148654	-1.2000327463	 0.288265
H	-0.8447684421	-2.4321977548	 1.0374527115	 0.111981
H	-2.4471222867	-2.433941158	 0.2653634348	 0.09737
H	-1.2264583952	-2.2716076337	-1.7383979542	 0.293268
H	-4.1343642281	 0.1790200362	 3.76237888	 0.152945
H	-2.9645497826	 1.492586371	 3.95486285	 0.151134
H	-4.3507418492	 1.6925179703	 2.8751273381	 0.151432
8.5955	76.8579	94.4854	112.5814	147.4576	183.589	210.3237	255.2794	266.5843	321.5577	327.2702	368.7259	389.2393	452.7891	485.651	557.3017	589.8213	695.779	788.4689	884.7372	911.1806	997.2456	1020.0317	1052.0256	1053.8691	1075.9619	1088.1944	1103.4425	1137.276	1215.6664	1247.9195	1305.083	1323.2688	1371.6928	1389.5279	1407.5108	1413.8302	1431.9473	1476.4441	1478.303	1481.6354	1495.7775	1501.198	1511.6481	2360.7238	3004.8622	3028.4594	3033.276	3042.0305	3086.5962	3090.0905	3090.803	3096.0698	3104.9171	3110.9448	3789.4175	3835.288	8.5805	76.8578	94.4852	112.5808	147.4572	183.588	210.3233	255.279	266.5839	321.5571	327.2698	368.7257	389.2392	452.7888	485.6508	557.3015	589.821	695.7789	788.4688	884.7371	911.1805	997.2456	1020.0315	1052.0255	1053.869	1075.9619	1088.1944	1103.4426	1137.276	1215.6666	1247.9197	1305.0832	1323.2692	1371.693	1389.5282	1407.5109	1413.8304	1431.9476	1476.4443	1478.3034	1481.6357	1495.7781	1501.1982	1511.6482	2360.7236	3004.8622	3028.4594	3033.2759	3042.0304	3086.5962	3090.0905	3090.803	3096.0698	3104.9171	3110.9447	3789.4175	3835.2878
CCC(O)(CO)C#CC	CC[C@@](O)(CO)C#CC	
InChI=1S/C7H12O2/c1-3-5-7(9,4-2)6-8/h8-9H,4,6H2,1-2H3	InChI=1S/C7H12O2/c1-3-5-7(9,4-2)6-8/h8-9H,4,6H2,1-2H3/t7-/m0/s1
