17
gdb 23460	3.323	1.33798	1.04703	1.3491	80.94	-0.2196	-0.0349	0.1847	1129.6569	0.137377	-417.950192	-417.942606	-417.941661	-417.98217	29.848	
O	-0.0541020529	 1.3320396452	-0.2816462288	-0.393344
N	 0.0105224341	-0.067654321	-0.2557466846	-0.22428
C	-1.1152802182	-0.5991687511	 0.068635884	 0.372468
C	-2.3485185538	 0.1143404367	 0.3832277402	-0.146679
C	-3.3483334429	-0.5077139249	 1.0185847986	-0.073073
C	-3.2627071106	-1.9368544701	 1.4806484659	-0.212478
N	-2.2230631821	-2.76484009	 0.8630079422	-0.108864
C	-2.2063107186	-2.8312391343	-0.5915538867	-0.253597
C	-1.1356707896	-2.084006064	 0.140895867	-0.088592
H	 0.8369091142	 1.5686525749	-0.5588236466	 0.308541
H	-2.4111461963	 1.1587110671	 0.1059506287	 0.121245
H	-4.2621808053	 0.0303873133	 1.2593438275	 0.103801
H	-3.0935372027	-1.947595887	 2.5673801919	 0.129011
H	-4.2252907499	-2.4414673228	 1.3263182828	 0.119751
H	-1.987212841	-3.8092768942	-1.0111797712	 0.120742
H	-2.9282597825	-2.238438105	-1.1490239772	 0.118317
H	-0.1566020319	-2.5419962728	 0.2446770264	 0.107032
91.6917	201.5715	242.7851	307.9616	333.0077	390.9226	425.5296	441.6471	524.8472	613.6497	626.1579	716.0394	776.8673	788.5974	877.28	899.1637	916.4288	967.0657	1001.3366	1013.0795	1042.1025	1064.9572	1096.0729	1113.5972	1163.5094	1186.361	1268.9905	1300.7799	1309.242	1345.8019	1372.0861	1413.6955	1431.1272	1472.7032	1499.8107	1676.0575	1700.4711	3001.3195	3038.8821	3101.6889	3154.38	3156.2669	3190.2785	3220.3914	3825.2622
ON=C1C=CCN2CC12	ON=C1C=CCN2C[C@@H]12	
InChI=1S/C6H8N2O/c9-7-5-2-1-3-8-4-6(5)8/h1-2,6,9H,3-4H2	InChI=1S/C6H8N2O/c9-7-5-2-1-3-8-4-6(5)8/h1-2,6,9H,3-4H2/t6-,8?/m0/s1
