19
gdb 86225	2.18451	1.45568	1.08567	4.4725	75.03	-0.251	0.0189	0.2699	1182.3703	0.160049	-419.222487	-419.213338	-419.212393	-419.257259	33.663	
C	 0.3154316347	 1.3716679858	-0.2026439555	-0.406521
C	 0.180078336	-0.1055518067	 0.1219361885	 0.147391
C	 0.2658247403	-1.0749803964	-1.088338367	-0.284402
C	 1.4376186873	-2.0364080974	-0.7416887757	 0.023777
N	 2.7435126202	-1.6969985178	-1.3050854862	-0.521824
C	 1.5260032013	-1.8524799989	 0.791058641	-0.059935
O	 1.2705323066	-0.4774247512	 0.9924089864	-0.262435
C	 0.5537199461	-2.7031639102	 1.5128112633	 0.28064
N	-0.2148082536	-3.3654364056	 2.0662097208	-0.326602
H	 1.2373356576	 1.564395753	-0.7608982575	 0.116531
H	-0.5321903469	 1.7045831695	-0.8093126605	 0.123863
H	 0.336404001	 1.9663146005	 0.7145951069	 0.135035
H	-0.7596416515	-0.2778393422	 0.6643412662	 0.095671
H	-0.6719339037	-1.6218024542	-1.2156989046	 0.122061
H	 0.4721602084	-0.5451446683	-2.0221057864	 0.103336
H	 1.2096214336	-3.0701052558	-1.011595177	 0.106119
H	 2.7037279269	-1.7410734177	-2.3188780778	 0.232048
H	 2.9743155209	-0.7355877278	-1.0669834221	 0.234593
H	 2.530732255	-2.0727632286	 1.1591201974	 0.140655
27.3293	96.7084	145.7068	218.9397	241.1568	279.9574	321.5643	371.6526	385.0132	429.057	520.7748	581.7683	665.4203	781.1274	809.3102	851.5034	877.9905	896.609	921.007	965.5198	1007.3301	1045.8786	1048.3641	1085.523	1141.0261	1148.4356	1197.7776	1216.3979	1253.1255	1285.9051	1320.3887	1351.9064	1373.0613	1391.0907	1413.3692	1420.0914	1484.4721	1488.435	1496.1169	1651.9349	2352.8146	3006.9817	3039.2515	3061.3722	3088.904	3098.3532	3108.7437	3112.9332	3122.4554	3485.7912	3567.2242
CC1CC(N)C(O1)C#N	C[C@H]1C[C@@H](N)[C@@H](O1)C#N	
InChI=1S/C6H10N2O/c1-4-2-5(8)6(3-7)9-4/h4-6H,2,8H2,1H3	InChI=1S/C6H10N2O/c1-4-2-5(8)6(3-7)9-4/h4-6H,2,8H2,1H3/t4-,5+,6-/m0/s1
