19
gdb 30771	2.93192	1.30089	0.94689	1.8746	80.32	-0.1794	0.0468	0.2262	1245.9686	0.160466	-419.233723	-419.224385	-419.223441	-419.267726	34.672	
C	 0.2256037554	 1.3512612926	 0.1024179062	-0.345434
N	-0.0481334405	-0.0630276748	-0.0316649648	-0.012263
C	-0.4297343737	-0.7106471208	-1.1892753779	-0.110047
C	-0.5488551955	-2.0497932039	-0.9126766734	-0.282545
C	-0.2581849059	-2.2343137388	 0.4712036236	 0.179099
C	-0.2645909438	-3.5001516003	 1.2685740815	-0.189168
O	 0.9112190034	-3.6524063702	 2.0810493036	-0.415793
C	 0.0440664509	-0.983722352	 0.9844188294	 0.197478
N	 0.4991657503	-0.6069144304	 2.2623380928	-0.619009
H	 0.6475300557	 1.7335787851	-0.8301076432	 0.135864
H	-0.6790410692	 1.9263027679	 0.3362766081	 0.127925
H	 0.9479733307	 1.4928645824	 0.9093001442	 0.157225
H	-0.5792790598	-0.1547449537	-2.1008423426	 0.109793
H	-0.8251670578	-2.8205038543	-1.6171815766	 0.089398
H	-1.0908490133	-3.527936633	 1.9898961714	 0.107524
H	-0.3935921107	-4.3648004063	 0.6011359447	 0.095838
H	 1.6658727141	-3.5465610509	 1.4906765949	 0.279489
H	-0.2082154101	-0.127720904	 2.8120972122	 0.238794
H	 0.7861605698	-1.4437177147	 2.7612516458	 0.255832
83.794	117.8564	129.025	188.7176	243.6331	269.5045	294.1276	315.841	390.1378	445.3942	496.7294	606.2192	616.6366	659.249	705.6388	741.1708	775.0443	795.0948	874.737	958.9999	1016.0439	1021.6961	1063.8297	1106.0605	1152.3607	1180.2754	1227.9481	1240.4983	1265.7536	1347.5317	1384.809	1396.1823	1425.2847	1444.9257	1489.2005	1503.1006	1507.0724	1519.1257	1539.3755	1599.9988	1661.2687	2995.7409	3022.8159	3040.1787	3095.4572	3137.6678	3235.9348	3265.445	3479.8563	3566.34	3797.1207
CN1C=CC(CO)=C1N	Cn1ccc(CO)c1N	
InChI=1S/C6H10N2O/c1-8-3-2-5(4-9)6(8)7/h2-3,9H,4,7H2,1H3	InChI=1S/C6H10N2O/c1-8-3-2-5(4-9)6(8)7/h2-3,9H,4,7H2,1H3
