12
gdb 133437	3.28692	1.40027	0.98195	1.6657	62.66	-0.2469	-0.0706	0.1763	1057.7465	0.077144	-513.898079	-513.891166	-513.890222	-513.929592	26.349	
O	 0.065050388	 1.2904346312	-0.1330086725	-0.394706
C	-0.0092488587	-0.0293902558	-0.0620619676	 0.377843
C	-1.1502546878	-0.7505446731	-0.020803166	-0.384835
C	-0.9856226875	-2.1681027473	 0.0548269199	 0.379212
F	-2.0942867906	-2.8913503447	 0.0961108577	-0.052251
N	 0.1022179267	-2.850710956	 0.0889549911	-0.167433
O	 1.2830476558	-2.0818974529	 0.045046567	-0.273103
C	 1.2815483637	-0.7295775099	-0.0274742191	 0.378509
N	 2.3372325269	-0.0186165787	-0.0679064337	-0.576599
H	 1.0273571229	 1.4859028568	-0.1457173953	 0.31998
H	-2.1379845116	-0.3119288551	-0.0420841614	 0.146851
H	 3.1956965523	-0.5645047646	-0.0405511102	 0.246532
116.5696	195.1305	323.1036	352.625	368.5477	418.799	468.7955	510.8161	603.5805	663.2299	702.652	715.9588	770.2169	818.7092	827.9808	859.0038	929.6786	1063.4215	1086.6596	1199.0418	1242.4923	1350.0268	1439.9284	1489.404	1629.6254	1702.0667	1736.0948	3236.2287	3513.6972	3528.2225
OC1=CC(F)=NOC1=N	OC1=C(ON=C([CH]1)F)[NH]	
InChI=1S/C4H3FN2O2/c5-3-1-2(8)4(6)9-7-3/h1,6,8H	InChI=1S/C4H3FN2O2/c5-3-1-2(8)4(6)9-7-3/h1,6,8H
