21
gdb 72116	2.4766	2.13725	1.59803	0.1608	85.78	-0.2276	0.0201	0.2477	946.1056	0.185713	-349.952499	-349.945581	-349.944636	-349.983109	30.233	
C	-0.0178819067	 1.4950913316	 0.0052803094	-0.500509
C	 0.0349409246	-0.0225729489	-0.0059517555	 0.305774
C	-1.3649481934	-0.765121818	 0.0534679635	-0.241471
C	-0.949557972	-1.9305032076	 0.9587819385	-0.043969
C	-0.4287293668	-1.1505636076	 2.1943118432	-0.242074
C	 0.6990487662	-0.7420689723	 1.2242693712	-0.047673
C	 0.5998632011	-2.1509419749	 0.5747854216	-0.050348
C	 1.0084585701	-1.9552265922	-0.8537899988	-0.112984
C	 0.743081521	-0.6851710139	-1.1791518879	-0.12121
H	 0.9884472648	 1.9278056955	-0.0136620739	 0.113962
H	-0.5620182453	 1.8807665127	-0.8645661039	 0.112748
H	-0.5264070925	 1.8669766623	 0.901544167	 0.112217
H	-2.1365966011	-0.1516016158	 0.5312225901	 0.089894
H	-1.7165583936	-1.0554111373	-0.939027532	 0.090575
H	-1.6288115473	-2.777847148	 1.049711498	 0.059659
H	-1.0757368442	-0.3766349516	 2.6187605699	 0.084784
H	-0.0588002851	-1.8026571944	 2.990105174	 0.092669
H	 1.6584558387	-0.3372892963	 1.554010459	 0.054687
H	 1.0492578233	-2.9750842648	 1.1295720015	 0.062803
H	 1.4041647353	-2.7265364626	-1.5032290547	 0.09227
H	 0.8579549028	-0.2180275758	-2.1510758604	 0.088195
213.3892	237.6761	277.2532	378.1825	402.333	462.2262	514.7373	586.7946	630.3701	727.7257	738.4078	769.6894	800.1709	820.0511	867.2731	879.6903	905.1958	930.2366	949.2458	956.6337	973.502	1006.8603	1014.3331	1042.7655	1051.8292	1076.4727	1095.4711	1142.3554	1158.7416	1177.1351	1203.0693	1226.8057	1227.3669	1256.6605	1258.4068	1285.7157	1314.8464	1330.8869	1367.9175	1412.8086	1491.6156	1493.0203	1496.0387	1514.3705	1640.743	3022.9615	3042.7685	3047.4206	3087.0438	3090.1886	3092.5018	3100.4508	3103.6221	3108.7501	3119.2807	3183.761	3212.7628
CC12CC3CC1C3C=C2	C[C@]12C[C@@H]3C[C@H]1[C@@H]3C=C2	
InChI=1S/C9H12/c1-9-3-2-7-6(5-9)4-8(7)9/h2-3,6-8H,4-5H2,1H3	InChI=1S/C9H12/c1-9-3-2-7-6(5-9)4-8(7)9/h2-3,6-8H,4-5H2,1H3/t6-,7+,8-,9-/m0/s1
