18
gdb 50093	4.36716	0.75123	0.69441	2.9679	74.91	-0.2481	-0.0358	0.2123	1587.9084	0.145649	-439.027325	-439.018394	-439.01745	-439.062287	31.761	
O	 0.4744485801	-0.0263301548	-0.9112094985	-0.26173
C	 0.3046647366	 0.8845671485	-0.1390298421	 0.159356
C	 1.2485288252	 2.0249530062	-0.001644012	-0.088512
C	 0.6648394723	 3.39317145	 0.2463350654	-0.25119
N	 1.440117796	 2.7398848763	 1.267610736	-0.079412
C	 0.7727357498	 2.2992665374	 2.4928189972	-0.1947
C	 1.0348049201	 3.3159126919	 3.5822091292	 0.100984
C	 0.0551579988	 4.3548892366	 3.9226427442	-0.16968
O	 0.219951754	 3.1980448399	 4.7456631581	-0.234866
H	-0.5943859048	 0.9263404418	 0.5143533304	 0.077278
H	 2.1435439499	 1.929173695	-0.6107191	 0.117642
H	 1.1154361525	 4.2506774135	-0.2456218105	 0.135541
H	-0.4164709836	 3.4514559769	 0.377511043	 0.119837
H	-0.314941359	 2.1653805396	 2.3946282687	 0.104003
H	 1.2010109321	 1.3344523506	 2.7884025858	 0.127081
H	 2.088509819	 3.5163009081	 3.7761634066	 0.105753
H	 0.390469249	 5.2931464322	 4.3613173341	 0.121364
H	-0.886419448	 4.4071467102	 3.3766966344	 0.111251
55.0945	68.1548	94.3771	150.1575	252.3364	271.7239	355.3119	387.2574	432.5662	447.9086	546.8261	773.0465	839.9022	868.3991	882.5805	899.9984	919.9707	1001.9879	1013.5283	1036.4424	1080.3836	1107.4988	1115.4248	1120.0193	1155.0567	1169.7372	1177.9013	1184.0132	1261.9468	1283.0587	1309.2474	1343.9112	1364.2298	1438.7264	1451.037	1487.9434	1506.9339	1530.6176	1815.5916	2888.4465	2989.5647	3063.6004	3082.3761	3084.2161	3117.8414	3153.0722	3171.0713	3181.5512
O=CC1CN1CC1CO1	O=C[C@H]1CN1C[C@H]1CO1	
InChI=1S/C6H9NO2/c8-3-5-1-7(5)2-6-4-9-6/h3,5-6H,1-2,4H2	InChI=1S/C6H9NO2/c8-3-5-1-7(5)2-6-4-9-6/h3,5-6H,1-2,4H2/t5-,6+,7?/m1/s1
