21
gdb 38487	3.20068	1.6359	1.50203	0.4775	84.23	-0.2092	0.0823	0.2914	990.1439	0.185437	-349.90886	-349.901856	-349.900912	-349.939656	30.328	
C	 0.0265186375	 1.5368330857	-0.0548929237	-0.300055
C	 1.3202518229	 0.7608749988	-0.041361603	-0.025133
C	 2.05970129	 0.5540023105	 1.3022527796	-0.33397
C	 1.1552150673	-0.339511642	 2.146293244	 0.27003
C	-0.1880610124	 0.1189367866	 2.6446057304	-0.387481
C	-0.1185518833	-0.6485709728	 1.3514736678	 0.284273
C	 0.054017599	-2.1546774542	 1.6194496297	-0.287988
C	 1.3513465649	-1.8398578503	 2.4419760328	-0.278003
C	-0.0261876133	 0.0299779171	 0.0090870737	-0.120821
H	-0.2563713241	 2.1240650326	 0.81190648	 0.109424
H	-0.2608232442	 1.9991853537	-0.9941459938	 0.107131
H	 1.9196831846	 0.7792155212	-0.9464140469	 0.079032
H	 3.0112182207	 0.0443126433	 1.1170986732	 0.10138
H	 2.304589162	 1.5078863297	 1.7839610267	 0.101716
H	-0.6184021139	-0.3573168583	 3.5236763829	 0.100979
H	-0.401823943	 1.1789389606	 2.5850640894	 0.113384
H	-0.7676787304	-2.6481369791	 2.1494572241	 0.093225
H	 0.2685948691	-2.7240406086	 0.7116324329	 0.101045
H	 2.2491255783	-2.2522470508	 1.9746598348	 0.09877
H	 1.3512620414	-2.1280357992	 3.4990988811	 0.092816
H	-0.4062940632	-0.5032552643	-0.8555777955	 0.080246
183.2522	212.6395	279.2462	345.1732	419.378	444.1487	541.1068	619.9138	647.8025	734.6398	763.6218	766.6474	781.4674	801.82	823.2447	867.6467	922.0991	928.4279	941.0857	953.5914	960.145	999.7999	1040.2992	1062.8971	1067.4961	1085.7265	1098.3748	1104.5648	1149.941	1197.6457	1201.8284	1211.0672	1244.5746	1248.0609	1262.5899	1279.8608	1314.386	1355.2099	1372.719	1385.3947	1470.6756	1476.3878	1488.0398	1493.2544	1508.3739	3032.6079	3034.5688	3042.0592	3072.1551	3088.3277	3103.8076	3107.4866	3127.1474	3149.9165	3165.5412	3203.6284	3213.9803
C1C2CC34CC3(CC4)C12	C1[C@H]2C[C@@]34C[C@@]3(CC4)[C@@H]12	
InChI=1S/C9H12/c1-2-9-5-8(1,9)4-6-3-7(6)9/h6-7H,1-5H2	InChI=1S/C9H12/c1-2-9-5-8(1,9)4-6-3-7(6)9/h6-7H,1-5H2/t6-,7-,8-,9-/m0/s1
