17
gdb 117523	1.61449	0.54507	0.41513	4.4784	76.59	-0.2617	-0.0419	0.2198	2508.3216	0.128239	-455.162749	-455.15305	-455.152106	-455.198576	33.909	
C	-0.0226328563	 2.0433170417	 0.5455952707	-0.320232
N	 0.1662209773	 0.5523059331	 0.7505667569	-0.485252
H	 0.8327300033	 0.4526859641	 1.5678288324	 0.236547
H	-0.7493485331	 0.1948156161	 1.1457465587	 0.25378
C	 0.7266177636	-1.2375757469	-1.5145670874	-0.309249
C	-0.0905131119	-2.2966560611	-1.6748141084	-0.138977
C	-1.2124266593	-2.5464798434	-0.7699183052	 0.301688
N	-2.1262437681	-2.740271779	-0.0185959767	-0.394538
C	-4.3049232649	-3.2150608075	 1.7537895781	 0.644899
O	-4.6588379753	-4.2072401808	 1.1242807546	-0.325547
O	-3.9949501363	-2.2317471561	 2.4203724746	-0.334429
H	-0.3533051637	 2.580595686	 1.4570221359	 0.121501
H	 0.9342354371	 2.4777834584	 0.208721965	 0.132854
H	-0.7763711171	 2.1968064254	-0.2456077342	 0.139664
H	 0.5799231787	-0.4979245907	-0.6767047426	 0.22346
H	 1.5583844642	-1.0885605428	-2.2183537324	 0.119967
H	 0.0350699017	-3.0299751667	-2.4867147699	 0.133862
-32.2979	76.5753	102.2488	110.4357	174.6569	205.9351	251.5711	269.8027	292.2999	305.3403	339.2794	386.8979	535.756	657.2812	710.2426	786.4169	791.5163	808.1221	842.1392	918.5625	1043.0293	1045.8137	1064.6004	1087.9673	1137.1998	1212.3449	1285.8929	1339.4247	1403.9783	1454.7384	1479.1453	1504.9406	1521.5058	1641.7088	1696.089	1878.9074	2047.4492	2697.266	2924.5925	2996.7421	3031.6022	3033.7275	3034.7538	3071.0919	3090.9541
C[NH2+]CC(C#N)C([O-])=O	CN.C=CC#N.C(=O)=O	
InChI=1S/C5H8N2O2/c1-7-3-4(2-6)5(8)9/h4,7H,3H2,1H3,(H,8,9)	InChI=1S/C3H3N.CH5N.CO2/c1-2-3-4;1-2;2-1-3/h2H,1H2;2H2,1H3;
