22
gdb 57624	2.99503	0.92273	0.88419	4.1845	86.39	-0.2867	0.0442	0.3309	1450.6921	0.193011	-367.224294	-367.214186	-367.213241	-367.259259	37.8	
C	-0.087714501	 1.5465387331	-0.0916897636	-0.402499
C	 0.0063424121	 0.0104488285	 0.037824509	 0.079035
C	 0.8954600923	-0.3684941595	 1.2440320218	-0.407672
C	-1.4018995742	-0.653466078	 0.1386835661	-0.217043
C	-2.238885909	-0.2344197504	 1.3297374768	 0.006087
C	-3.1899946817	 0.9369884536	 1.2479116833	-0.253326
C	-3.729683974	-0.4690811855	 1.2983707193	-0.280768
C	 0.6429993752	-0.5182051849	-1.1816417425	 0.266425
N	 1.1346420063	-0.9367099902	-2.1407615978	-0.345892
H	 0.9069207534	 1.9849237686	-0.2097636263	 0.13003
H	-0.6902900738	 1.8334928997	-0.9577854348	 0.128698
H	-0.5490128017	 1.9663965322	 0.8048296448	 0.131975
H	 0.483588145	 0.0556729751	 2.1634998286	 0.12524
H	 0.9612627251	-1.4539056377	 1.3600788432	 0.131452
H	 1.908226049	 0.0222592291	 1.1152080466	 0.133447
H	-1.953792949	-0.4336192057	-0.7829867217	 0.109648
H	-1.2582613196	-1.740824318	 0.1580831955	 0.115614
H	-1.7718743595	-0.3938566718	 2.2972994208	 0.088366
H	-3.3099067697	 1.5682175794	 2.121609064	 0.114134
H	-3.2591877213	 1.4693766575	 0.305191972	 0.115141
H	-4.1564883023	-0.8802111516	 0.3893335329	 0.116597
H	-4.2159833615	-0.8042884633	 2.2074440819	 0.115311
61.2358	108.175	125.8111	190.5659	210.7263	249.034	268.2425	308.6901	309.9715	367.0765	389.2103	449.1178	580.3791	584.7411	718.6101	780.0687	809.187	834.6988	872.1551	896.2732	931.1797	950.8321	988.8321	998.1778	1042.8606	1059.53	1083.3485	1099.947	1140.434	1199.5649	1200.2099	1222.0328	1227.8476	1235.4883	1305.6976	1349.4671	1398.7132	1417.9586	1423.8005	1469.9038	1480.8725	1483.8799	1488.3997	1502.0601	1507.1505	1511.6384	2350.0889	3026.2098	3045.7036	3049.8669	3065.8222	3120.2206	3122.9789	3123.5108	3131.1908	3133.9834	3135.653	3149.2316	3209.3887	3224.5046
CC(C)(CC1CC1)C#N	CC(C)(CC1CC1)C#N	
InChI=1S/C8H13N/c1-8(2,6-9)5-7-3-4-7/h7H,3-5H2,1-2H3	InChI=1S/C8H13N/c1-8(2,6-9)5-7-3-4-7/h7H,3-5H2,1-2H3
