17
gdb 126704	2.00761	1.8727	1.05271	5.7788	69.86	-0.246	0.0038	0.2498	1135.4609	0.135481	-455.184271	-455.175427	-455.174483	-455.218671	31.522	
C	-0.0185461873	 1.5728504679	 0.0480489831	-0.384699
C	-0.0360316437	 0.0452561901	-0.0227358508	-0.162123
N	-1.3842107984	-0.5061960078	-0.0517356569	-0.179901
C	-2.1142692951	-0.7593686801	 1.1030277277	 0.506199
O	-1.7798778827	-0.6094571037	 2.2468378469	-0.410687
O	-3.3197742033	-1.2287577467	 0.6709489871	-0.238912
N	-3.3447014934	-1.263389339	-0.7484055497	-0.184065
C	-2.1846833088	-0.8262408496	-1.1198582465	 0.39998
C	-1.784627618	-0.7086318491	-2.5475812773	-0.503777
H	 1.0137238936	 1.9325931619	 0.0899009418	 0.129634
H	-0.5013872142	 2.0206330624	-0.8259739498	 0.124034
H	-0.5386448291	 1.9154773956	 0.946180051	 0.155717
H	 0.4994349754	-0.317158273	-0.9045948696	 0.121939
H	 0.4486568783	-0.3777245822	 0.8612958537	 0.152969
H	-2.6187730289	-1.0290370258	-3.1729969998	 0.171109
H	-1.5241592355	 0.3232909601	-2.8033498568	 0.150688
H	-0.9167612488	-1.3393580711	-2.7667091839	 0.151893
34.885	107.0616	164.9832	187.0517	207.2254	280.9221	314.9707	347.6079	411.0986	562.7136	605.2362	640.1444	703.7562	773.3895	778.4385	798.7364	919.2823	966.5203	1019.2348	1032.6322	1068.9631	1101.738	1142.4613	1197.6447	1297.3871	1359.2736	1390.4371	1412.0377	1414.1765	1467.9792	1472.3909	1477.9683	1490.1943	1503.8306	1511.0507	1656.1737	1876.354	3044.4568	3045.5846	3065.175	3103.8512	3105.6118	3120.7003	3134.3979	3153.7085
CCN1C(=O)ON=C1C	CCn1c(=O)onc1C	
InChI=1S/C5H8N2O2/c1-3-7-4(2)6-9-5(7)8/h3H2,1-2H3	InChI=1S/C5H8N2O2/c1-3-7-4(2)6-9-5(7)8/h3H2,1-2H3
