15
gdb 47629	2.94794	1.44544	1.00557	4.7507	77.42	-0.2506	-0.0602	0.1903	1126.9132	0.112497	-420.638561	-420.630674	-420.62973	-420.671091	29.598	
O	-0.012377117	 0.0406738071	 0.3785989931	-0.315148
C	-0.0036197679	 1.1898318196	 0.0334224054	 0.392009
O	-1.1736877904	 1.8158500351	-0.2528305688	-0.232418
C	-1.1408562158	 3.0826226739	-0.9246232861	-0.082442
C	-0.1611231239	 4.0458270221	-0.2700289116	-0.27336
C	 1.1631049131	 3.3644328386	-0.115100871	-0.14138
C	 1.2461627666	 2.0232002077	-0.0313920662	-0.056365
C	 2.4823490634	 1.3334372499	 0.0960809049	 0.251896
C	 3.5363157283	 0.7606821072	 0.1896281948	-0.378166
H	-0.862427301	 2.9206296863	-1.9738936392	 0.120883
H	-2.1673058157	 3.4529488614	-0.8927807676	 0.128631
H	-0.0647952022	 4.9475311699	-0.8848863078	 0.125846
H	-0.535387037	 4.3759450245	 0.7098016238	 0.139678
H	 2.065827716	 3.9646199813	-0.0571250776	 0.120815
H	 4.4579067136	 0.2404778754	 0.2779496139	 0.199521
88.8627	145.6848	166.5927	257.3172	322.5484	387.8007	429.5442	495.128	523.2582	593.8825	612.1158	619.9071	652.202	727.0748	804.7481	887.9498	910.7355	938.1099	1002.0657	1079.5687	1091.9995	1140.8172	1199.9013	1233.5439	1299.4381	1354.9633	1366.9374	1426.1194	1463.9976	1508.1013	1670.1791	1834.4308	2233.8827	3011.0137	3029.3608	3070.8842	3113.9978	3182.62	3503.0369
O=C1OCCC=C1C#C	O=C1OCCC=C1C#C	
InChI=1S/C7H6O2/c1-2-6-4-3-5-9-7(6)8/h1,4H,3,5H2	InChI=1S/C7H6O2/c1-2-6-4-3-5-9-7(6)8/h1,4H,3,5H2
