22
gdb 101855	6.23876	0.52383	0.50159	3.9994	84.86	-0.2463	0.0267	0.273	2220.8171	0.190766	-441.475361	-441.46387	-441.462926	-441.513562	39.245	
C	-0.0258020391	 1.3635450917	 0.0720329948	-0.314098
N	 0.0195822717	-0.0628077856	-0.168458387	-0.205805
C	-1.0441621479	-0.7114106667	 0.0006120133	 0.134956
O	-1.0744217745	-2.0462391911	-0.1801019676	-0.207406
C	-2.3541817054	-2.6716450185	-0.0748394934	-0.084533
C	-2.1438794608	-4.1809342167	 0.0134564904	 0.01647
C	-1.3431239657	-4.5743254594	 1.2593607943	-0.392411
C	-3.4959333755	-4.8945093007	-0.0418887942	-0.079512
O	-3.2518960492	-6.2902939365	-0.106247917	-0.420425
H	 0.6943366615	 1.6286481096	 0.8547967434	 0.127331
H	 0.2797312716	 1.8998232587	-0.8337872064	 0.12702
H	-1.0177993084	 1.7373971265	 0.3763742585	 0.093401
H	-2.0064215735	-0.2708186798	 0.3089438691	 0.069204
H	-2.878475743	-2.302395855	 0.8192715581	 0.101224
H	-2.96066081	-2.4138536601	-0.9546069628	 0.103486
H	-1.5821477135	-4.4854848755	-0.8787625092	 0.102578
H	-0.3656134424	-4.0874416146	 1.260286809	 0.135455
H	-1.8735140561	-4.2744624279	 2.1721852944	 0.101947
H	-1.2023156341	-5.6562804339	 1.2914381462	 0.13473
H	-4.0886739972	-4.6352651534	 0.851964425	 0.083734
H	-4.0633291307	-4.5524315585	-0.9230468138	 0.084072
H	-4.0975433478	-6.7466536327	-0.0803735352	 0.288583
26.5725	60.6285	82.2843	112.598	141.5064	208.142	222.6892	232.3297	243.2726	271.1601	308.6137	332.0129	402.9467	431.5684	553.0667	618.2296	846.4614	926.506	935.067	960.7238	982.6673	1025.9127	1068.6702	1087.2084	1122.0837	1141.5169	1156.3338	1171.8046	1175.7034	1233.9249	1263.5664	1267.8973	1288.2628	1319.5541	1384.1893	1393.2099	1401.0783	1434.8833	1451.2523	1463.7445	1480.8668	1498.1757	1499.777	1505.6129	1512.6184	1524.4229	1780.8374	2952.0347	2962.453	2976.3222	2980.1833	2992.0052	3023.1283	3029.571	3046.8735	3055.978	3075.5301	3110.8357	3143.3466	3836.3597
CN=COCC(C)CO	CN=COC[C@@H](C)CO	
InChI=1S/C6H13NO2/c1-6(3-8)4-9-5-7-2/h5-6,8H,3-4H2,1-2H3	InChI=1S/C6H13NO2/c1-6(3-8)4-9-5-7-2/h5-6,8H,3-4H2,1-2H3/t6-/m0/s1
