19
gdb 84635	2.28174	1.76338	1.26603	2.8912	80.96	-0.2293	-0.014	0.2153	1061.4773	0.160427	-385.91545	-385.907389	-385.906445	-385.948116	31.425	
C	-0.30125271	 1.4871552282	 0.0408057582	-0.3952
C	 0.0121973257	-0.0268495152	-0.0300008663	-0.150846
C	 0.6772780355	-0.4151190305	-1.3256525824	-0.074606
C	 1.909270748	-0.9138934808	-1.4229579835	-0.072619
C	 2.8060641231	-1.0950950651	-0.2559284088	-0.0841
C	 3.2292359535	 0.1359585655	 0.5025205577	-0.292724
C	 2.2155261843	-0.8175300695	 1.1189575194	-0.130177
C	 0.77223351	-0.4641028331	 1.2297319633	 0.399405
O	 0.1896382376	-0.5504181468	 2.290471972	-0.345474
H	 0.6118151061	 2.0883594691	-0.0075411913	 0.120945
H	-0.9409369587	 1.7834239484	-0.796163525	 0.118033
H	-0.8202087331	 1.7148166835	 0.9751383118	 0.141054
H	-0.954345091	-0.5434145703	 0.0406914787	 0.113572
H	 0.0874140857	-0.2577323942	-2.2260221207	 0.092614
H	 2.316523587	-1.1706934542	-2.3971215782	 0.094388
H	 3.5275154678	-1.9033403588	-0.3190100664	 0.098887
H	 4.2067511575	 0.1545654461	 0.9713733232	 0.127288
H	 2.8851674073	 1.0924060355	 0.1271274955	 0.131206
H	 2.5690196438	-1.4006506378	 1.9615987927	 0.108352
61.2011	163.8544	213.9472	235.5803	286.3708	330.8716	438.9438	482.9642	514.1728	573.2001	649.0204	736.7088	768.992	788.0518	828.7059	843.5528	903.4268	942.303	969.3104	981.9597	999.674	1048.2621	1062.819	1079.1084	1096.5978	1123.0249	1131.5644	1191.5396	1204.0631	1256.5717	1298.9054	1340.4737	1364.2166	1383.1068	1397.636	1427.0473	1482.08	1495.2385	1498.4575	1721.1116	1784.8407	3018.8237	3038.881	3108.2216	3127.2595	3140.2003	3143.5755	3157.3087	3172.0545	3180.6281	3232.6885
CC1C=CC2CC2C1=O	C[C@H]1C=C[C@H]2C[C@H]2C1=O	
InChI=1S/C8H10O/c1-5-2-3-6-4-7(6)8(5)9/h2-3,5-7H,4H2,1H3	InChI=1S/C8H10O/c1-5-2-3-6-4-7(6)8(5)9/h2-3,5-7H,4H2,1H3/t5-,6-,7+/m0/s1
