19
gdb 87694	2.64395	1.23767	1.0295	3.4369	77.62	-0.2369	-0.0371	0.1997	1249.621	0.156555	-423.02214	-423.012778	-423.011833	-423.056686	34.086	
C	-0.1836492095	 1.5359991547	 0.2768297619	-0.417824
C	-0.1499249541	 0.0317271529	 0.2547903691	-0.009278
O	 1.011520034	-0.5912077507	-0.2960467728	-0.280584
C	 0.7853671888	-0.7480333897	 1.0927039372	 0.325991
C	 1.714729621	-0.3103693905	 2.2376547004	-0.365681
C	 1.3225657912	-1.6018404837	 3.034737655	-0.107264
C	 0.5223721174	-1.4243980094	 4.3236078308	-0.399159
C	 0.4999388408	-2.0617042117	 1.805615899	 0.327007
O	-0.1189987532	-3.0495237012	 1.5347530932	-0.306969
H	 0.7822259183	 1.946973339	 0.5805838526	 0.131934
H	-0.4244701016	 1.9249958365	-0.7179664702	 0.137641
H	-0.953369789	 1.8910731551	 0.9704771411	 0.126993
H	-1.080691668	-0.4659302781	-0.0225362279	 0.111896
H	 2.765662389	-0.2737173644	 1.9437645778	 0.124128
H	 1.4456569571	 0.6317078074	 2.7217728343	 0.111738
H	 2.1724798925	-2.2711806397	 3.2058076339	 0.108438
H	-0.3264573409	-0.7485632031	 4.1729709543	 0.118868
H	 0.1287207529	-2.3859272363	 4.6659988404	 0.138164
H	 1.1473679332	-1.0066708971	 5.1189365997	 0.123958
44.5163	125.5885	172.1732	180.6674	202.5686	215.116	262.6986	315.2933	372.6331	457.1499	528.1045	557.6872	712.9866	726.5582	790.5484	830.7638	858.1057	910.7341	937.2273	966.1103	1033.3465	1061.5944	1083.5746	1104.919	1133.5863	1140.1626	1181.6014	1187.3896	1221.4305	1250.3932	1316.0938	1346.9338	1407.0894	1408.2847	1459.0266	1480.4723	1484.124	1496.2506	1497.3185	1502.3001	1886.7684	3034.136	3038.2638	3054.4318	3070.2227	3100.4363	3102.3077	3102.6208	3113.6912	3124.2736	3129.2532
CC1OC11CC(C)C1=O	C[C@H]1O[C@]21C[C@@H](C)C2=O	
InChI=1S/C7H10O2/c1-4-3-7(6(4)8)5(2)9-7/h4-5H,3H2,1-2H3	InChI=1S/C7H10O2/c1-4-3-7(6(4)8)5(2)9-7/h4-5H,3H2,1-2H3/t4-,5-,7+/m1/s1
