23
gdb 94683	2.39695	1.59876	1.17906	1.5121	85.62	-0.2455	0.0824	0.3278	1170.4787	0.205046	-388.30411	-388.294624	-388.29368	-388.33743	36.969	
C	 0.0399530103	 1.5487031554	-0.0596105968	-0.404656
C	 0.0426941478	 0.0318581479	 0.0483426036	 0.087392
O	 0.7330528582	-0.5009278715	-1.0831841688	-0.270203
C	 1.1914191371	-1.8033562758	-0.7475765774	-0.138304
C	 1.4963832249	-1.7756121426	 0.743647397	 0.273268
C	 1.6261985777	-3.0929397517	 1.465773456	-0.489314
C	 2.2571768418	-0.5459782739	 1.1835367973	-0.380272
C	 0.7463878841	-0.5647908257	 1.2677037332	 0.288502
C	 0.0308619986	-0.509451612	 2.5943119037	-0.492856
H	 1.059184375	 1.9422804548	-0.0109738746	 0.12105
H	-0.4062070766	 1.8603695036	-1.008167102	 0.124117
H	-0.5443796272	 1.9901046175	 0.753876615	 0.113056
H	-1.0018679293	-0.3317504959	 0.0511407804	 0.056637
H	 0.4187164429	-2.5643817148	-0.9543818006	 0.082437
H	 2.0606577498	-2.0192490282	-1.3794427845	 0.102378
H	 2.4957980049	-3.6558632439	 1.1062432485	 0.120535
H	 1.7551538728	-2.952418009	 2.543053825	 0.118103
H	 0.7404713229	-3.7212720961	 1.3140182164	 0.11567
H	 2.8007840252	-0.6123597832	 2.1209101469	 0.101643
H	 2.7346432116	 0.0693814812	 0.4269656875	 0.116445
H	-0.0688056412	 0.5231561028	 2.9488674909	 0.121459
H	-0.9785432697	-0.9321151294	 2.5218949351	 0.115607
H	 0.5705036383	-1.0656199895	 3.3663025982	 0.117308
131.9942	188.7989	194.0738	207.4695	226.3117	230.1316	247.1917	303.9975	353.3047	414.4108	439.5586	523.1171	555.6039	638.4637	680.5701	745.5577	839.6372	887.9369	916.8004	935.0642	953.3563	988.8894	1033.6104	1046.7027	1066.2737	1068.2565	1095.4679	1118.8954	1137.21	1154.3668	1208.9052	1246.0768	1253.1511	1294.4112	1346.2459	1368.1427	1387.0998	1408.6754	1413.5494	1414.7028	1428.1118	1483.9244	1485.7476	1486.8937	1495.569	1496.7705	1497.3695	1511.1851	1516.4713	2923.693	2952.5136	3021.1662	3024.0244	3042.1912	3055.0267	3077.1645	3078.5577	3099.5008	3104.965	3113.972	3119.6758	3121.0917	3205.3545
CC1OCC2(C)CC12C	C[C@H]1OC[C@@]2(C)C[C@@]12C	
InChI=1S/C8H14O/c1-6-8(3)4-7(8,2)5-9-6/h6H,4-5H2,1-3H3	InChI=1S/C8H14O/c1-6-8(3)4-7(8,2)5-9-6/h6H,4-5H2,1-3H3/t6-,7-,8+/m1/s1
