16
gdb 126121	4.55793	1.00019	0.82846	2.9026	72.58	-0.2513	-0.0434	0.2079	1340.8159	0.124679	-434.093397	-434.084982	-434.084037	-434.127527	29.69	
C	-0.0638167089	 1.5074557985	-0.0794650376	-0.384437
C	 0.0303753199	-0.0102592422	 0.0470122566	-0.281183
C	 0.7735273803	-0.460345379	 1.2904135533	 0.290382
O	 1.2440274965	 0.3144031944	 2.1003079751	-0.327017
C	 0.9153969233	-1.9189506266	 1.4977321779	 0.240661
C	 1.5458774577	-2.5571873464	 2.5470580591	-0.132186
N	 1.3958983552	-3.8630646822	 2.2651855192	-0.158619
N	 0.7128090156	-4.0514234264	 1.1090394101	-0.102186
N	 0.4247048974	-2.8749966824	 0.6499240454	-0.254319
H	 0.9302799037	 1.9603592332	-0.1185614858	 0.129115
H	-0.606127898	 1.783469135	-0.9878836254	 0.110255
H	-0.5830614702	 1.9412366831	 0.7790771263	 0.129119
H	-0.9614817034	-0.480441098	 0.0628156119	 0.136733
H	 0.5283930574	-0.4616483641	-0.8209255383	 0.136741
H	 2.0568188637	-2.182535781	 3.416861851	 0.176367
H	 1.71397711	-4.6670771459	 2.7836923813	 0.290573
51.9685	76.594	140.9178	169.6795	216.6224	279.2628	365.0553	497.1618	546.1427	610.2995	694.7148	716.1332	735.9397	808.9755	855.3121	940.701	971.1552	1007.6858	1026.2435	1062.8179	1090.7979	1114.9091	1131.004	1272.8205	1275.6058	1314.2877	1347.9217	1392.5518	1413.4124	1442.7736	1485.9373	1491.2801	1497.6332	1565.4466	1774.4947	3034.5368	3050.7722	3058.4838	3122.2517	3124.587	3299.54	3653.1121
CCC(=O)C1=CNN=N1	CCC(=O)c1c[nH]nn1	
InChI=1S/C5H7N3O/c1-2-5(9)4-3-6-8-7-4/h3H,2H2,1H3,(H,6,7,8)	InChI=1S/C5H7N3O/c1-2-5(9)4-3-6-8-7-4/h3H,2H2,1H3,(H,6,7,8)
