20
gdb 82115	3.13989	1.15725	0.97819	4.1167	82.24	-0.2689	0.0397	0.3086	1249.6762	0.171459	-366.003459	-365.99472	-365.993776	-366.037019	33.192	
C	-0.3217712525	 1.5527901193	 0.1327636922	-0.422946
C	-0.04319288	 0.055521205	 0.0564551482	 0.007299
C	 0.4589921606	-0.5375203346	-1.2706621191	-0.048661
C	 1.8361222845	-0.0420626798	-1.6042340415	-0.286432
C	 1.6880660788	-1.1303767125	-0.5759136212	-0.078637
C	 1.2193877747	-0.5738787487	 0.7719591808	-0.009951
C	 2.2088437564	 0.3146288163	 1.546819936	-0.357111
C	 1.6501253186	 0.8229051112	 2.7984590869	 0.263792
N	 1.1869672147	 1.2093899102	 3.7845823997	-0.316668
H	 0.516959999	 2.1539831677	-0.2323078737	 0.111111
H	-1.1923210068	 1.8052028724	-0.4822207258	 0.119072
H	-0.5357826777	 1.8647165624	 1.1596771978	 0.141182
H	-0.9315833781	-0.4846715018	 0.3955207319	 0.084275
H	-0.173435449	-0.9977295025	-2.0202632693	 0.088632
H	 2.2254323675	-0.3740615171	-2.5612568449	 0.117083
H	 2.1570857788	 0.9599867618	-1.3319118247	 0.105501
H	 2.1411205206	-2.1050239318	-0.7131817288	 0.089522
H	 0.8977504677	-1.380751473	 1.4350012267	 0.094995
H	 3.1094785757	-0.2652809705	 1.7819308777	 0.150619
H	 2.5361201767	 1.1655113558	 0.9411338712	 0.147321
69.8199	108.0727	176.2588	212.2527	220.8012	275.5061	369.2173	394.0606	465.1907	513.1472	574.8335	661.415	743.6886	787.6058	803.5117	883.0212	929.0868	940.5269	962.6255	985.9849	998.582	1025.5711	1056.6438	1068.7318	1085.2798	1097.8811	1129.9197	1141.3785	1181.2109	1216.4166	1248.1806	1276.0735	1295.4443	1320.5025	1366.3008	1372.3987	1386.6947	1414.4419	1461.255	1490.2353	1499.1807	1504.0023	2357.7797	3035.1274	3043.5745	3056.6279	3074.5507	3090.2515	3100.0666	3109.9274	3118.2419	3175.4185	3184.1528	3203.0283
CC1C2CC2C1CC#N	C[C@H]1[C@H]2C[C@H]2[C@H]1CC#N	
InChI=1S/C8H11N/c1-5-6(2-3-9)8-4-7(5)8/h5-8H,2,4H2,1H3	InChI=1S/C8H11N/c1-5-6(2-3-9)8-4-7(5)8/h5-8H,2,4H2,1H3/t5-,6+,7-,8+/m1/s1
