20
gdb 122863	4.36717	0.64906	0.59126	1.0286	75.06	-0.2519	0.0616	0.3135	1926.3449	0.168418	-477.410883	-477.400249	-477.399304	-477.448173	36.061	
C	-0.1895463044	 1.3073194636	 0.0439901698	-0.224417
O	-0.0012091869	-0.0864808908	 0.0592810469	-0.22563
C	 0.5158358382	-0.5823830944	-1.1521776326	-0.067064
C	 0.6232767078	-2.0881774286	-1.0682466747	-0.055067
O	-0.7030747895	-2.6256036754	-1.1061913291	-0.241441
C	-0.7999722818	-3.9546102355	-1.0115698186	 0.504297
N	 0.2080390309	-4.7196242238	-0.9116305217	-0.610139
O	-2.1187005256	-4.2473873043	-1.051110706	-0.221111
C	-2.471054551	-5.6183968167	-0.9639048966	-0.257015
H	 0.7564432317	 1.8477982113	-0.1234031712	 0.101013
H	-0.9017746354	 1.6155107832	-0.7378321445	 0.105637
H	-0.590581148	 1.5936789	 1.0191248212	 0.128445
H	-0.1298380764	-0.3017799973	-2.00069549	 0.097099
H	 1.5207140728	-0.1696154664	-1.3490172838	 0.087148
H	 1.2041016717	-2.482388976	-1.9085297804	 0.117464
H	 1.1180687109	-2.3914642216	-0.1411409725	 0.132028
H	-0.0485741324	-5.6989553834	-0.8490544305	 0.220917
H	-2.054046758	-6.1932507441	-1.7996364382	 0.130896
H	-2.1349281558	-6.0586196793	-0.0174280469	 0.132365
H	-3.5599549688	-5.6518619606	-1.0106967605	 0.144574
40.0347	58.5244	85.0924	115.4746	166.3489	183.842	207.531	231.9485	283.7632	316.7233	344.5484	507.6215	530.0699	671.8342	748.5088	765.1835	860.4279	894.8937	956.2568	1051.4905	1062.4266	1108.4515	1128.1562	1165.1239	1176.3932	1179.6492	1187.4077	1223.3833	1229.2933	1262.0626	1299.0441	1350.6352	1406.6643	1434.7462	1478.8104	1480.3373	1485.4619	1491.3253	1497.7674	1500.6171	1508.4962	1521.725	1728.3109	2952.6707	2968.7686	2990.4135	3010.2947	3015.9377	3055.6693	3079.4244	3105.4806	3115.6034	3145.8192	3560.5977
COCCOC(=N)OC	COCCO[C]([NH])OC	
InChI=1S/C5H11NO3/c1-7-3-4-9-5(6)8-2/h6H,3-4H2,1-2H3	InChI=1S/C5H11NO3/c1-7-3-4-9-5(6)8-2/h6H,3-4H2,1-2H3
