17
gdb 35823	2.47302	1.70766	1.2786	5.151	70.49	-0.2502	0.0137	0.264	1006.2229	0.138818	-417.990017	-417.98251	-417.981566	-418.022718	28.255	
N	-0.3030681496	-1.1538776764	 0.2465687105	-0.333595
C	-0.2027088611	-0.0097029016	 0.119564237	 0.332259
C	-0.0512429761	 1.4429109558	-0.0692547284	-0.191314
N	-0.765966341	 2.1726721227	 0.9926640233	-0.279407
C	 0.2125517682	 2.4159319477	 2.0659502522	-0.20795
C	 1.5952294895	 2.5445352388	 1.3887854654	 0.125441
O	 2.5574377712	 1.5440648552	 1.7849541283	-0.286165
C	 2.5531535618	 0.9534663447	 0.4664615375	-0.094555
C	 1.4408295061	 1.9118697303	-0.0129208011	-0.096398
H	-0.5012434958	 1.6814661179	-1.0371395028	 0.128028
H	-1.0825214968	 3.0571447639	 0.6108854197	 0.230615
H	-0.0824796057	 3.2943091056	 2.6438658097	 0.112731
H	 0.2456612981	 1.5541215356	 2.7415301224	 0.140953
H	 2.0189021222	 3.5533960165	 1.4460107148	 0.082965
H	 3.5126709371	 1.1002326565	-0.0428855595	 0.105336
H	 2.3110660247	-0.1138519488	 0.487794535	 0.137678
H	 1.6844358673	 2.5269193356	-0.878546474	 0.093379
54.5047	112.9758	170.0845	265.0039	371.5654	399.4907	496.8078	582.4275	648.6381	702.4882	734.3438	756.975	848.3694	878.0374	901.4472	920.2317	974.9716	1009.9026	1031.9441	1059.1075	1087.5865	1090.5064	1112.0161	1170.6812	1203.9124	1214.5077	1253.8058	1272.6233	1314.2694	1332.9625	1335.6745	1360.4594	1373.5003	1467.8125	1493.933	1523.0228	2357.2031	3028.7602	3042.6671	3052.6927	3073.5783	3085.1025	3115.0331	3118.2362	3534.0039
N#CC1NCC2OCC12	N#C[C@H]1NC[C@H]2OC[C@@H]12	
InChI=1S/C6H8N2O/c7-1-5-4-3-9-6(4)2-8-5/h4-6,8H,2-3H2	InChI=1S/C6H8N2O/c7-1-5-4-3-9-6(4)2-8-5/h4-6,8H,2-3H2/t4-,5+,6+/m0/s1
