16
gdb 47830	2.34204	2.0656	1.24913	3.8102	65.03	-0.2652	0.0062	0.2714	970.3534	0.126053	-475.020828	-475.013611	-475.012667	-475.05274	27.427	
O	 0.0048644585	 0.0631902029	 0.6966304647	-0.331204
C	 0.0138846736	 1.150675065	 0.1933697621	 0.400643
O	-1.1352460166	 1.8237957285	-0.1656939956	-0.243363
C	-1.5463959942	 2.8763032921	 0.7006266514	 0.002789
O	-0.7646461266	 4.0301994161	 0.63274132	-0.220615
C	 0.5454236554	 3.8651669359	 1.1615464309	-0.119226
C	 1.4607492696	 3.1916535571	 0.1614594014	-0.017254
C	 2.3257283958	 2.0330873749	 0.5873297622	-0.249924
N	 1.1503895771	 1.830106865	-0.2244172665	-0.084043
H	-2.5441374205	 3.1547092005	 0.3621919943	 0.135607
H	-1.5764313326	 2.491979728	 1.7332196634	 0.104459
H	 0.9146213823	 4.8659525589	 1.4025469285	 0.125116
H	 0.5033740952	 3.2799342989	 2.0942331594	 0.104744
H	 1.7985403137	 3.8226475267	-0.6578385096	 0.115862
H	 3.2787800044	 1.863370249	 0.0952534955	 0.136906
H	 2.277826825	 1.7133569205	 1.6256830078	 0.139501
84.1958	168.5357	222.6558	303.1125	384.0562	394.0192	444.1724	527.6663	601.8966	627.1534	755.3796	812.2172	857.9039	942.4174	958.6156	968.3722	988.189	1030.4991	1086.0052	1100.3596	1137.2847	1140.7318	1161.2522	1187.1429	1207.2872	1286.8108	1334.7723	1363.1728	1385.4017	1436.0704	1447.8727	1483.1366	1503.7219	1514.1019	1842.4231	2974.8194	2982.4938	3091.2674	3112.5876	3136.9268	3141.2812	3202.7328
O=C1OCOCC2CN12	O=C1OCOC[C@H]2CN12	
InChI=1S/C5H7NO3/c7-5-6-1-4(6)2-8-3-9-5/h4H,1-3H2	InChI=1S/C5H7NO3/c7-5-6-1-4(6)2-8-3-9-5/h4H,1-3H2/t4-,6?/m1/s1
