19
gdb 47071	2.90386	1.52753	1.05285	3.2483	83.42	-0.2329	-0.0509	0.182	1137.417	0.16175	-385.938721	-385.93127	-385.930326	-385.970667	29.524	
O	 0.0701583408	 0.0041704818	 0.2493312112	-0.322131
C	 0.0113648379	 1.2005563781	 0.0858252736	 0.303817
C	-1.2736080012	 2.0538382159	 0.0352008075	-0.323559
C	-0.8102782362	 3.5145294623	 0.2612003753	-0.251383
C	 0.6009370064	 3.5443153369	-0.3686095198	-0.056021
C	 1.7207849429	 4.4591539507	 0.1739389623	-0.244754
C	 2.9950091013	 3.5594970804	 0.1442623602	-0.249268
C	 2.4292491749	 2.1567850422	 0.2307041463	-0.209672
C	 1.1276737358	 2.1618859241	-0.0662238091	 0.258977
H	-1.7039648346	 1.935969882	-0.9690197043	 0.128287
H	-2.0179216928	 1.6888460107	 0.7465109101	 0.125396
H	-1.4983988973	 4.2491370446	-0.165201197	 0.101364
H	-0.7342093181	 3.7164567944	 1.3363465704	 0.105326
H	 0.4976038979	 3.6761415134	-1.4569685941	 0.079539
H	 1.8445873655	 5.3864285719	-0.3911370898	 0.099977
H	 1.4990736576	 4.7323141306	 1.2121833791	 0.105325
H	 3.5592613504	 3.690965286	-0.7910258092	 0.117356
H	 3.6955381213	 3.783014151	 0.9559907719	 0.112091
H	 3.0067542675	 1.2877242431	 0.5248480353	 0.119333
107.4806	174.1654	178.6709	289.0678	317.0889	453.9043	523.8118	557.616	576.4086	629.3233	676.9087	787.4201	819.9911	843.6728	888.3019	907.3527	954.3204	958.3172	973.5072	979.6808	1037.56	1063.0101	1078.2494	1127.307	1175.8449	1199.547	1211.5367	1231.0907	1262.1331	1283.3847	1297.4908	1309.674	1318.5372	1352.3483	1359.8871	1453.7598	1476.7238	1492.7674	1500.1333	1698.9442	1814.1031	2978.0755	3002.3388	3025.235	3036.2335	3041.388	3066.7339	3094.0321	3101.1107	3109.9511	3203.8884
O=C1CCC2CCC=C12	O=C1CC[C@H]2CCC=C12	
InChI=1S/C8H10O/c9-8-5-4-6-2-1-3-7(6)8/h3,6H,1-2,4-5H2	InChI=1S/C8H10O/c9-8-5-4-6-2-1-3-7(6)8/h3,6H,1-2,4-5H2/t6-/m1/s1
