15
gdb 125333	5.37564	1.32333	1.069	4.8002	73.81	-0.2179	0.0164	0.2344	1071.821	0.116124	-413.030239	-413.023141	-413.022197	-413.061646	26.959	
C	-0.0168677472	 1.4733151073	 0.0578665081	-0.50086
C	-0.0005345356	-0.0122834309	-0.0471920039	 0.3214
C	-0.0465813238	-0.8187825634	-1.1472394679	-0.217532
N	-0.0025330806	-2.1223821313	-0.6748022317	 0.057086
N	-0.0084525564	-3.4002802166	-1.1451295848	-0.292839
C	 0.061802563	-4.0826270602	-0.0004733322	 0.030354
N	 0.1124445482	-3.3643111667	 1.1625693443	-0.406629
C	 0.0688349055	-2.1335715062	 0.6790305893	 0.500205
N	 0.0711334627	-0.8308870542	 1.08701587	-0.47202
H	 0.8887076905	 1.8563587413	 0.5430794475	 0.140095
H	-0.0752828417	 1.9161170268	-0.9385136595	 0.148471
H	-0.8779441279	 1.8304420297	 0.6351313904	 0.140099
H	-0.105134842	-0.5724756756	-2.1922258377	 0.153281
H	 0.0773806333	-5.16264455	-0.0067385966	 0.120818
H	 0.1162341719	-0.5174048	 2.0399714146	 0.278069
140.2227	146.4985	275.258	283.393	318.5288	375.6282	509.6787	572.3311	622.4858	658.9751	722.93	766.8524	801.0327	852.9986	895.1519	978.0578	991.0197	1023.5713	1065.5738	1141.2687	1190.5022	1218.5271	1261.6706	1273.4721	1384.9953	1402.1993	1425.7427	1443.6235	1475.017	1476.5364	1499.8199	1643.626	1647.4151	3026.4998	3075.1615	3131.2883	3257.1432	3300.9775	3696.8853
CC1=CN2N=CN=C2N1	Cc1cn2ncnc2[nH]1	
InChI=1S/C5H6N4/c1-4-2-9-5(8-4)6-3-7-9/h2-3H,1H3,(H,6,7,8)	InChI=1S/C5H6N4/c1-4-2-9-5(8-4)6-3-7-9/h2-3H,1H3,(H,6,7,8)
