19
gdb 91054	3.92958	1.30842	1.19628	3.1711	80.01	-0.2349	0.0002	0.2351	1100.6165	0.160953	-382.015347	-382.007888	-382.006944	-382.04705	29.945	
C	 0.0430073144	 1.5637207979	 0.0528601604	-0.384606
C	 0.1191362022	 0.0432241526	 0.0280946297	 0.058942
C	 0.7139685526	-0.5456845526	-1.3117749679	-0.278638
C	 1.3177327724	-1.8595039231	-0.7926322653	-0.085995
C	 2.7761016482	-2.3920016955	-0.7277776571	-0.072327
C	 3.7400078013	-1.4794176374	-0.0802070421	-0.232234
N	 2.8002283898	-2.2233212579	 0.8093984159	-0.19173
C	 1.5721974223	-1.4684177602	 0.622543359	 0.334912
N	 1.0255489507	-0.4490320758	 1.1248863899	-0.277703
H	 1.0414816995	 2.000162822	-0.055981302	 0.115241
H	-0.5850819825	 1.9317885112	-0.7654680712	 0.110381
H	-0.3773550068	 1.9158401268	 0.9984975197	 0.128614
H	-0.8868427995	-0.3672528487	 0.1953903089	 0.084521
H	-0.0403002621	-0.6659625122	-2.0934847572	 0.103851
H	 1.4890253186	 0.1330841206	-1.685672525	 0.105805
H	 0.6360770914	-2.710232901	-0.891375307	 0.105515
H	 3.0901351709	-3.331523431	-1.1681918491	 0.108448
H	 4.7657737225	-1.8226235116	 0.0118318815	 0.133688
H	 3.6247784941	-0.4014978241	-0.1513778512	 0.133315
104.0692	198.9029	239.8663	256.8764	305.615	462.7189	471.7859	518.5234	595.7634	651.7119	698.8919	743.7505	804.5506	814.0353	874.1038	895.0378	919.42	934.4899	996.3233	1046.5679	1057.2228	1076.7823	1098.1098	1117.5333	1121.9323	1129.5156	1152.5683	1180.2899	1208.3936	1234.0773	1277.6369	1298.0766	1333.306	1356.3703	1364.0293	1409.3965	1479.9608	1486.1529	1496.4595	1498.079	1753.6169	3003.8149	3034.4858	3044.6704	3063.2986	3102.0119	3107.6589	3119.7524	3120.0899	3181.523	3210.3915
CC1CC2C3CN3C2=N1	C[C@H]1C[C@H]2[C@H]3CN3[C]2[N]1	
InChI=1S/C7H10N2/c1-4-2-5-6-3-9(6)7(5)8-4/h4-6H,2-3H2,1H3	InChI=1S/C7H10N2/c1-4-2-5-6-3-9(6)7(5)8-4/h4-6H,2-3H2,1H3/t4-,5-,6+,9?/m0/s1
