20
gdb 72451	2.31245	2.13075	1.49857	1.7033	76.39	-0.2274	0.0809	0.3083	949.8585	0.174739	-403.136832	-403.129842	-403.128898	-403.167577	30.247	
O	 0.0784388147	 1.3711353289	-0.0787155007	-0.511896
C	 0.0519213594	-0.0319644354	 0.003012099	 0.44028
C	 0.78349654	-0.6793492243	-1.196557156	-0.226692
C	 1.0567144731	-2.1370437938	-0.7003120378	-0.209567
C	 0.4459886537	-2.1458241753	 0.731714227	-0.036641
C	 0.773971195	-0.7124857977	 1.193125135	-0.295119
C	-1.0701923932	-2.0760301462	 0.5215940979	-0.019101
N	-1.7913729882	-1.1088297388	 1.3832348102	-0.362891
C	-1.3287261586	-0.7000992131	 0.0348598137	-0.112919
H	-0.4056044534	 1.7147551492	 0.6799824521	 0.279399
H	 0.179570947	-0.6459302681	-2.107953781	 0.094328
H	 1.7081418122	-0.1302319854	-1.3935190541	 0.105524
H	 0.6000537143	-2.8917967839	-1.3480551396	 0.09164
H	 2.1289113871	-2.3497839286	-0.6615886892	 0.098056
H	 0.7964186182	-2.9601989891	 1.368488325	 0.061036
H	 1.845761397	-0.4989901963	 1.1861069256	 0.088976
H	 0.3467573114	-0.4548337542	 2.1615281218	 0.114908
H	-1.6040170859	-2.9369984179	 0.1320836242	 0.085665
H	-2.7855832956	-1.3175842532	 1.3276687827	 0.229785
H	-2.0506869381	-0.4687740767	-0.7418740356	 0.085229
210.4582	281.6333	303.1692	334.4193	395.9541	418.0184	475.9402	555.106	565.8158	617.6424	756.9366	766.6743	812.8509	851.2199	878.4344	893.5148	904.7128	929.0578	942.6029	957.651	978.2564	1004.9468	1039.7126	1059.2681	1100.5702	1126.1549	1131.4963	1152.1948	1178.6363	1209.7027	1240.8547	1245.8422	1258.2654	1268.9634	1303.4756	1323.3064	1332.5233	1368.7344	1384.8264	1410.5726	1485.8656	1489.3268	1515.1196	3046.7274	3059.5119	3075.7742	3083.0477	3093.3575	3106.7897	3145.4797	3156.4787	3167.702	3499.473	3806.9668
OC12CCC(C1)C1NC21	O[C@@]12CC[C@@H](C1)[C@H]1N[C@@H]21	
InChI=1S/C7H11NO/c9-7-2-1-4(3-7)5-6(7)8-5/h4-6,8-9H,1-3H2	InChI=1S/C7H11NO/c9-7-2-1-4(3-7)5-6(7)8-5/h4-6,8-9H,1-3H2/t4-,5+,6+,7-/m0/s1
