18
gdb 82251	2.53124	1.94367	1.43387	2.564	69.27	-0.2395	0.058	0.2976	939.58	0.150551	-439.037453	-439.030415	-439.029471	-439.068959	28.42	
O	 0.2292571344	 1.1666715819	 0.6391487611	-0.437856
C	 0.0630102617	-0.1369389311	 0.1182483043	 0.120639
C	-1.4129315272	-0.4937224983	-0.0709125381	-0.080277
N	-2.0244310683	 0.4678608001	-1.0072830987	-0.339432
C	-1.6761387241	-0.8896953428	-1.4793339004	-0.065964
C	-0.3591096607	-0.9350387677	-2.2435465283	 0.130703
O	-0.1532569587	 0.1319103254	-3.1894457237	-0.290228
C	 0.7823948829	 0.7903530479	-2.3034647736	-0.075967
C	 0.708940153	-0.3648544412	-1.2805399288	-0.116845
H	-0.406158936	 1.7159754055	 0.1607777989	 0.291801
H	 0.521728576	-0.8110840082	 0.8483795267	 0.08448
H	-1.9947302267	-0.8694657795	 0.7645630035	 0.09257
H	-3.0270238511	 0.5242510428	-0.8522065027	 0.239536
H	-2.4844999102	-1.5650405323	-1.7404132632	 0.089883
H	-0.1933482743	-1.9189343593	-2.6967372001	 0.073317
H	 1.7580219024	 0.9289857463	-2.7825312898	 0.099483
H	 0.4089941969	 1.7585871938	-1.9560088399	 0.102052
H	 1.63462362	-0.9355103734	-1.2051364871	 0.082105
85.8062	204.8255	257.1384	282.9882	452.5748	493.0588	523.9554	556.4276	629.947	708.5207	760.3732	816.6005	866.7647	871.6588	904.6354	911.0486	944.6054	977.2445	1010.5977	1025.5421	1038.3313	1057.1059	1100.7496	1118.7038	1128.1917	1153.8394	1163.1671	1230.0802	1237.7079	1260.6266	1290.0744	1306.3453	1324.4476	1347.8197	1359.7109	1377.5187	1420.4133	1445.6126	1517.6924	3031.1965	3042.36	3059.587	3079.5509	3107.7743	3158.93	3170.0836	3513.6962	3758.6576
OC1C2NC2C2OCC12	O[C@H]1[C@H]2N[C@H]2[C@H]2OC[C@@H]12	
InChI=1S/C6H9NO2/c8-5-2-1-9-6(2)4-3(5)7-4/h2-8H,1H2	InChI=1S/C6H9NO2/c8-5-2-1-9-6(2)4-3(5)7-4/h2-8H,1H2/t2-,3-,4+,5+,6-/m0/s1
