18
gdb 87594	3.38106	1.31336	1.20618	0.8237	77.78	-0.2419	-0.0065	0.2355	1097.7592	0.148068	-401.907572	-401.899872	-401.898927	-401.939611	30.388	
C	-0.1025619704	 1.5095102607	-0.1097954666	-0.398147
C	-0.0080514323	 0.0119008301	 0.0530373696	-0.042663
N	 1.3158389536	-0.5997659977	-0.1164297017	-0.386524
C	 0.6615436013	-0.6501620389	 1.2121276304	 0.312608
C	 1.3152760734	 0.030505685	 2.3694990029	-0.138578
C	 1.2697923509	-0.7266812691	 3.4718253844	-0.105213
C	 0.5318234918	-1.9974110596	 3.1962462507	-0.014429
O	-0.8485554971	-1.7895657337	 2.8019192318	-0.256751
C	 0.1368615196	-1.9494736922	 1.7791106555	-0.074612
H	 0.7987082895	 2.0019460681	 0.262289865	 0.127286
H	-0.2133406205	 1.7721577279	-1.1673122467	 0.12206
H	-0.9681953713	 1.9054633476	 0.43106345	 0.125698
H	-0.8604949743	-0.5374602623	-0.3464420404	 0.088643
H	 1.2438736311	-1.5082157038	-0.5713610097	 0.229677
H	 1.7459957764	 1.0207140415	 2.2945521852	 0.111235
H	 1.6718753073	-0.4657659304	 4.4423578008	 0.106971
H	 0.717545392	-2.9137221478	 3.7476166222	 0.099855
H	 0.0247168591	-2.8245531954	 1.1409616964	 0.092884
113.028	154.4353	207.5336	236.7875	348.8334	402.7183	425.7985	491.5783	536.2831	618.0504	748.4861	756.9687	813.5125	843.1092	849.8932	868.708	890.1865	944.1171	963.275	977.9338	1022.6034	1034.9906	1048.9441	1079.4927	1096.8478	1114.9119	1140.446	1231.9882	1245.4523	1277.1346	1304.652	1323.536	1382.8044	1404.6053	1414.1014	1463.0416	1489.2639	1501.4404	1645.7654	3038.6875	3100.7063	3104.1175	3124.3427	3131.188	3168.0042	3207.1967	3229.7934	3476.8837
CC1NC11C=CC2OC12	C[C@H]1N[C@]21C=C[C@H]1O[C@@H]21	
InChI=1S/C7H9NO/c1-4-7(8-4)3-2-5-6(7)9-5/h2-6,8H,1H3	InChI=1S/C7H9NO/c1-4-7(8-4)3-2-5-6(7)9-5/h2-6,8H,1H3/t4-,5-,6-,7+/m1/s1
