15
gdb 31217	2.21361	1.68658	0.99147	1.6996	76.34	-0.2239	-0.0143	0.2096	1132.4068	0.111797	-420.617277	-420.608888	-420.607944	-420.651024	30.856	
O	 0.1726761741	 1.2225065838	-0.4862309272	-0.409255
C	-0.0484439283	 0.0330998063	 0.2482120566	-0.199365
C	-1.431545068	-0.5149138862	 0.0729924127	 0.25984
C	-2.1891603625	-0.736821409	-1.0497442504	 0.071533
C	-3.4408923813	-1.2811914601	-0.584021509	-0.299435
C	-3.3400405931	-1.3467549278	 0.764419563	-0.013611
O	-2.1255205684	-0.8804943811	 1.1763006372	-0.169667
C	-1.7860429328	-0.4686459453	-2.3783328074	 0.204503
C	-1.4274029878	-0.2345906126	-3.5055980594	-0.446617
H	 0.011879015	 1.0257188862	-1.4169754337	 0.292814
H	 0.6926787966	-0.7395773413	-0.0144365902	 0.111697
H	 0.0986007873	 0.2756803709	 1.3045863395	 0.134755
H	-4.2827149244	-1.5719343083	-1.1911862821	 0.123914
H	-4.0025773178	-1.6778211602	 1.5462627476	 0.144311
H	-1.1237814287	-0.0359846953	-4.5036313172	 0.194583
37.1576	120.9008	166.8113	186.3591	283.8775	387.5556	400.2029	473.2527	520.3824	547.4222	593.7801	623.7154	664.8239	684.2289	737.5526	761.5022	831.0028	912.1118	970.345	1055.2931	1076.7446	1102.9989	1164.6721	1198.7936	1274.885	1283.4797	1374.2902	1412.6506	1448.2022	1492.2758	1540.7193	1617.2778	2224.6212	2967.8953	3091.8307	3266.3539	3292.4369	3500.8578	3783.8135
OCC1=C(C=CO1)C#C	OCc1c(cco1)C#C	
InChI=1S/C7H6O2/c1-2-6-3-4-9-7(6)5-8/h1,3-4,8H,5H2	InChI=1S/C7H6O2/c1-2-6-3-4-9-7(6)5-8/h1,3-4,8H,5H2
