23
gdb 60372	3.1678	0.65948	0.5725	3.48	83.82	-0.2432	-0.0169	0.2264	1961.9171	0.201939	-425.444131	-425.432642	-425.431697	-425.482229	40.382	
C	 0.0792171087	 1.5682556282	 0.1120219514	-0.404077
C	 0.0305654211	 0.0407248114	 0.073201238	 0.137261
O	 0.6925613553	-0.524841963	 1.2029550313	-0.425544
C	-1.4036234719	-0.4922948205	-0.0664849411	-0.204334
C	-1.4603274484	-2.0209735391	-0.1661867026	-0.194636
C	-2.8886456131	-2.608436047	-0.1432530385	-0.063786
C	-3.7308508672	-2.1982648698	-1.3640048205	-0.408993
C	-2.7871055115	-4.1204566285	-0.0988870435	 0.161311
O	-3.1652099123	-4.819922463	 0.8047479814	-0.250724
H	 1.110448785	 1.9118258555	 0.2287360654	 0.126189
H	-0.331867643	 2.003450531	-0.8046331954	 0.116484
H	-0.5078698745	 1.9542212504	 0.9552621581	 0.106933
H	 0.6192728697	-0.3120730276	-0.7835802723	 0.089064
H	 0.2587898916	-0.1863421304	 1.9946174103	 0.276815
H	-1.9882783821	-0.1562737575	 0.8033849537	 0.086784
H	-1.8648732927	-0.0267364836	-0.9454892126	 0.098975
H	-0.9502732444	-2.3446659959	-1.0845060798	 0.095593
H	-0.8846889812	-2.4359722536	 0.6679214764	 0.12434
H	-3.3946621593	-2.3002756271	 0.7788307083	 0.090314
H	-3.2601345046	-2.5317569288	-2.2962847552	 0.120035
H	-4.7329034631	-2.6354501411	-1.3168964008	 0.128676
H	-3.8442802118	-1.1125708363	-1.417590702	 0.127747
H	-2.3097804704	-4.5660998135	-1.0060465202	 0.065573
35.7027	47.8878	78.4356	120.5986	139.4359	207.332	236.1812	245.5288	271.0017	297.0148	351.4397	354.7884	414.2077	471.201	487.4943	574.8772	766.7716	849.1316	876.9032	910.7933	930.5969	937.2877	969.4002	1020.2387	1053.9894	1078.203	1109.1231	1132.9649	1152.5305	1173.7151	1209.4179	1258.7395	1298.9739	1310.9085	1339.9822	1356.7821	1373.0626	1394.1456	1403.9649	1405.6462	1421.7396	1429.0708	1476.3211	1490.5192	1494.6259	1496.8358	1499.6509	1506.1391	1836.0832	2832.1015	2996.905	3014.0292	3022.2386	3032.1876	3033.3859	3050.5584	3056.3028	3081.3159	3093.4692	3101.5968	3117.0111	3119.5029	3792.8049
CC(O)CCC(C)C=O	C[C@@H](O)CC[C@@H](C)C=O	
InChI=1S/C7H14O2/c1-6(5-8)3-4-7(2)9/h5-7,9H,3-4H2,1-2H3	InChI=1S/C7H14O2/c1-6(5-8)3-4-7(2)9/h5-7,9H,3-4H2,1-2H3/t6-,7-/m1/s1
