19
gdb 109195	5.08077	0.81124	0.72713	1.822	84.47	-0.2312	0.0283	0.2595	1534.9214	0.158133	-385.864774	-385.855448	-385.854503	-385.899203	34.509	
O	 0.0184426061	 1.419200334	-0.0228073668	-0.413745
C	-0.0087315119	 0.0038458687	-0.0249488516	-0.179673
C	-1.4223103424	-0.4783421382	-0.0277556322	 0.311303
C	-2.527583933	 0.2668820366	-0.0281653989	-0.15967
C	-3.7819336121	-0.568074838	 0.0281334419	-0.265636
C	-3.2603271283	-1.9967139008	-0.3233585666	-0.159422
C	-1.7423784987	-1.9562309481	 0.0313319943	-0.318846
C	-3.9974926819	-3.0844113822	 0.3014549285	 0.311023
C	-4.6039206798	-3.9785393899	 0.829798495	-0.460409
H	 0.9372974574	 1.7007129045	-0.0363748053	 0.289868
H	 0.5156179265	-0.407338718	-0.9066133047	 0.094163
H	 0.5117934128	-0.4108705302	 0.8575751501	 0.095097
H	-2.5335452836	 1.3492703345	-0.0232130446	 0.108637
H	-4.2291495712	-0.5496923732	 1.0309156064	 0.116937
H	-4.5615986813	-0.2406603393	-0.6676230405	 0.109266
H	-3.3339411158	-2.1073307979	-1.412183696	 0.107834
H	-1.1475337386	-2.5642660469	-0.6598044656	 0.105655
H	-1.5622080095	-2.3586540852	 1.0373562212	 0.116646
H	-5.1417346949	-4.7690588404	 1.2911378254	 0.190972
54.758	105.0531	128.6334	209.2429	216.6084	244.9066	257.1806	379.4893	441.82	509.1055	541.054	564.9843	619.6081	627.5852	668.9744	830.1173	837.8468	886.5512	925.8724	987.5803	1013.0197	1038.3404	1051.8809	1060.4722	1082.3167	1144.3177	1181.9852	1197.1947	1215.4037	1254.4812	1282.0712	1296.2196	1307.8743	1331.8498	1358.0815	1467.9934	1487.9636	1495.8328	1507.8869	1728.0438	2234.6901	2934.747	2945.8116	3016.3889	3019.3759	3026.8542	3058.9106	3068.7493	3220.513	3505.9544	3840.1418
OCC1=CCC(C1)C#C	OCC1=CC[C@@H](C1)C#C	
InChI=1S/C8H10O/c1-2-7-3-4-8(5-7)6-9/h1,4,7,9H,3,5-6H2	InChI=1S/C8H10O/c1-2-7-3-4-8(5-7)6-9/h1,4,7,9H,3,5-6H2/t7-/m0/s1
