17
gdb 34048	3.36355	1.31965	1.10717	4.3102	72.6	-0.2701	0.0165	0.2866	1093.4301	0.138726	-417.997922	-417.990406	-417.989462	-418.029944	28.923	
N	 0.0046639852	-1.1417619866	 0.1240871162	-0.340618
C	 0.0119734316	 0.0139101101	 0.0907526973	 0.26758
C	 0.0103633044	 1.4583779664	-0.0034424786	 0.148165
C	-1.1752280079	 2.0611741377	-0.765238619	-0.308597
C	-0.7530694543	 3.265113568	-1.6151362262	-0.082632
O	 0.1606091705	 4.104217074	-0.9224995925	-0.244888
C	 1.4208886061	 3.478760687	-0.7820950904	-0.125591
C	 1.3255987592	 2.1867720392	 0.0049150831	-0.056787
N	 0.5107190601	 2.1445267119	 1.2132114865	-0.341674
H	-1.6243673677	 1.3002200092	-1.409930053	 0.133288
H	-1.9436501949	 2.3531776655	-0.0401787612	 0.128374
H	-0.2947158687	 2.9212230499	-2.5555736033	 0.103738
H	-1.617615802	 3.884401189	-1.8663429437	 0.121881
H	 1.8686576402	 3.2770766497	-1.7690064917	 0.108181
H	 2.0648763417	 4.1915597384	-0.2563093611	 0.127987
H	 2.2417621454	 1.6032317524	 0.0551028491	 0.118391
H	 0.0029828911	 3.0250954383	 1.3015712085	 0.243202
111.3834	150.2443	194.0846	296.7171	366.5295	387.9629	412.8708	513.5775	556.4926	599.1182	642.3398	727.7237	816.3737	851.133	877.9094	935.1127	965.3288	1000.0496	1039.4798	1070.1132	1105.2068	1141.0559	1154.4206	1187.0596	1224.4152	1272.7308	1306.3028	1319.0365	1334.5794	1363.416	1388.1408	1414.249	1438.8865	1484.608	1491.1226	1505.7077	2356.5871	2978.1301	2986.9878	3042.1414	3074.7301	3093.8756	3101.9052	3144.7718	3469.0331
N#CC12CCOCC1N2	N#C[C@]12CCOC[C@H]1N2	
InChI=1S/C6H8N2O/c7-4-6-1-2-9-3-5(6)8-6/h5,8H,1-3H2	InChI=1S/C6H8N2O/c7-4-6-1-2-9-3-5(6)8-6/h5,8H,1-3H2/t5-,6-/m1/s1
