21
gdb 82936	2.06693	1.75534	1.44445	1.17	80.91	-0.2331	0.0788	0.3119	1058.1971	0.183274	-387.061274	-387.052928	-387.051983	-387.093503	33.869	
C	-0.299968011	 1.5299463764	-0.0861244631	-0.431135
C	 0.0244547102	 0.054679479	 0.0681426089	-0.071989
C	 1.334309182	-0.6185341468	-0.3266645198	-0.112307
C	 2.6465602004	 0.1771196184	-0.3540329149	-0.26008
C	 3.0340570427	 0.4665596459	 1.1069738479	-0.023266
C	 2.2343963283	 1.4421079806	 1.9342435528	-0.311291
C	 1.9125715151	-0.0316353056	 1.9937988668	-0.101354
C	 0.8595278371	-0.6778042386	 1.1045489848	 0.372745
O	 0.345868002	-1.8894798359	 1.5890586312	-0.471482
H	 0.5802372213	 2.1406647965	-0.2978160924	 0.127576
H	-0.9836024125	 1.6620986891	-0.9316042273	 0.113821
H	-0.7933370956	 1.9445789485	 0.7996621651	 0.118837
H	-0.8200793969	-0.5780888663	-0.2001189974	 0.086983
H	 1.263855109	-1.4961008769	-0.9606046965	 0.089524
H	 3.423165854	-0.4395639707	-0.8168338175	 0.106253
H	 2.5806528425	 1.0906770683	-0.9578342282	 0.101439
H	 4.0722821206	 0.3172334758	 1.3836448254	 0.083217
H	 2.7370852966	 1.8596364388	 2.8015355275	 0.105518
H	 1.5512121273	 2.1326237376	 1.462510346	 0.113618
H	 2.1107700876	-0.5745707752	 2.91068739	 0.084083
H	-0.3616329006	-1.6825414288	 2.2093094106	 0.27929
141.0654	173.9398	229.0606	239.0119	273.4824	312.3879	367.3894	381.9211	505.3986	541.4133	593.027	664.5288	678.0547	770.9636	796.0335	808.5464	861.8622	889.841	912.776	978.8626	994.4799	1013.1599	1039.0765	1053.7259	1070.7556	1088.9604	1104.8734	1111.1717	1120.1133	1146.8377	1190.0545	1200.6983	1224.8722	1264.7998	1301.3044	1323.9948	1348.0368	1355.2333	1382.1233	1413.4606	1452.1235	1480.3024	1490.986	1503.5448	1512.0171	3028.2963	3033.1678	3074.1329	3086.56	3107.853	3123.1313	3140.5007	3159.7489	3163.205	3177.6918	3252.0602	3795.3094
CC1C2CC3CC3C12O	C[C@H]1[C@H]2C[C@H]3C[C@H]3[C@@]12O	
InChI=1S/C8H12O/c1-4-6-2-5-3-7(5)8(4,6)9/h4-7,9H,2-3H2,1H3	InChI=1S/C8H12O/c1-4-6-2-5-3-7(5)8(4,6)9/h4-7,9H,2-3H2,1H3/t4-,5-,6+,7+,8+/m0/s1
