19
gdb 111993	4.0663	1.11112	0.98246	1.1168	77.24	-0.2313	0.0067	0.238	1242.0558	0.158243	-422.998342	-422.989596	-422.988652	-423.031712	33.26	
C	 0.0359283638	 1.3750325756	 0.0899013525	-0.23254
O	-0.1752687415	-0.0033658964	-0.1045562105	-0.242368
C	 0.5769473951	-0.5591947836	-1.1772461683	 0.075602
C	 2.0505493385	-0.7815613857	-0.8433557118	-0.10183
C	 2.4021411207	-2.0590851649	-0.9798314306	-0.152468
C	 1.2366851978	-2.9107804063	-1.3892833604	 0.361132
O	 1.4147292579	-3.91876964	-2.3363616882	-0.470396
C	 0.1167631114	-2.9905660613	-0.3750759531	-0.329668
C	 0.0723347608	-1.9622849992	-1.4909979393	-0.117944
H	 1.0633769216	 1.6066146419	 0.408853771	 0.103843
H	-0.1766758154	 1.9529080873	-0.8238953827	 0.10245
H	-0.6505760133	 1.6976464859	 0.8768565879	 0.126592
H	 0.4712461239	 0.100160051	-2.055930973	 0.068694
H	 2.6968129371	 0.0170026533	-0.4987622519	 0.099331
H	 3.3875857171	-2.4749745221	-0.7972805613	 0.095905
H	 1.6921289863	-4.716554933	-1.8738597111	 0.284277
H	-0.5737426745	-3.8209504918	-0.4848618315	 0.109575
H	 0.2944434146	-2.6575086658	 0.6408334515	 0.123429
H	-0.670496682	-2.0969264448	-2.2664114094	 0.096385
74.9563	114.4837	176.578	233.6528	243.7319	304.7054	334.2072	389.6767	403.4419	513.9029	545.8786	627.6987	735.8025	744.7521	795.0768	896.302	910.5223	934.6303	946.1847	951.3115	986.9247	1024.5721	1055.0501	1065.3987	1080.7198	1124.7351	1149.2396	1181.7245	1218.5252	1232.8728	1250.6977	1319.5773	1334.2643	1352.4734	1372.8106	1411.1273	1474.7406	1477.9466	1489.4817	1509.4986	1674.8787	2948.6514	2971.8325	3017.513	3109.8078	3128.9218	3180.5507	3197.4991	3210.5855	3226.4081	3804.1366
COC1C=CC2(O)CC12	CO[C@H]1C=C[C@@]2(O)C[C@@H]12	
InChI=1S/C7H10O2/c1-9-6-2-3-7(8)4-5(6)7/h2-3,5-6,8H,4H2,1H3	InChI=1S/C7H10O2/c1-9-6-2-3-7(8)4-5(6)7/h2-3,5-6,8H,4H2,1H3/t5-,6-,7+/m0/s1
