14
gdb 18660	3.37874	2.41273	1.56744	2.2501	62.68	-0.2342	-0.0362	0.198	778.1274	0.10857	-378.711933	-378.70547	-378.704526	-378.743081	24.128	
O	 0.0474619038	 0.0292006725	 0.3871846507	-0.313452
C	-0.0133493054	 1.1843190329	 0.0347964769	 0.371108
C	-1.3347606291	 1.8420452634	-0.3479241091	-0.271624
N	-1.2945790061	 3.1420331108	-1.0021655768	-0.202233
C	-0.1924288144	 3.7487392156	-1.1361665309	 0.0521
N	 1.1219952681	 3.3234423872	-0.7940063824	-0.12173
C	 1.3975409139	 3.2897019124	 0.6478167487	-0.247405
C	 1.2172979325	 2.0172445826	-0.1197357107	-0.114058
H	-1.8779838017	 1.1334436945	-0.9846934103	 0.154835
H	-1.9499228239	 1.9345164029	 0.5577417412	 0.151054
H	-0.1930349376	 4.7388299807	-1.5926464921	 0.127876
H	 2.4012221141	 3.5773332016	 0.9442968522	 0.144313
H	 0.6021119012	 3.6035733614	 1.3186599585	 0.14011
H	 2.1092027345	 1.4451694816	-0.3592516759	 0.129107
50.2671	203.0265	271.3937	424.3117	474.8357	490.6786	533.0873	596.5568	724.1729	737.1427	860.2481	884.6609	955.9894	963.5812	992.9403	1027.5783	1048.7631	1078.9947	1111.6792	1165.449	1240.2547	1245.7193	1291.1967	1322.6373	1372.879	1402.7075	1436.9334	1503.4346	1730.8505	1811.9542	3024.511	3059.1014	3115.6787	3133.8734	3158.044	3211.4942
O=C1CN=CN2CC12	O=C1CN=CN2C[C@@H]12	
InChI=1S/C5H6N2O/c8-5-1-6-3-7-2-4(5)7/h3-4H,1-2H2	InChI=1S/C5H6N2O/c8-5-1-6-3-7-2-4(5)7/h3-4H,1-2H2/t4-,7?/m0/s1
