20
gdb 63054	2.84096	1.59925	1.58138	2.7172	77.06	-0.2185	0.0721	0.2907	978.8965	0.171621	-403.09273	-403.084945	-403.084001	-403.124301	31.86	
C	-0.1518271554	 1.6115492821	-0.0142509312	-0.465793
C	 0.0323445032	 0.1027094514	 0.006379725	 0.412147
O	-1.2225868755	-0.5545369276	-0.1406206316	-0.477385
C	 1.0923972496	-0.5789050701	-0.8977590796	-0.051273
C	 2.5030457729	 0.0402894205	-0.8830801586	-0.263032
C	 2.7200082443	-0.6653827208	 0.4685523505	 0.016752
C	 2.0458311489	 0.0117023962	 1.6766472284	-0.265243
C	 0.7201469535	-0.6044132202	 1.1946668486	-0.015987
N	 1.4747573931	-1.5398089333	 0.2371300847	-0.157258
H	 0.7824241443	 2.1527287427	 0.1546742928	 0.118063
H	-0.548670151	 1.9344181453	-0.9849775996	 0.107761
H	-0.8694976168	 1.9087143242	 0.7566032867	 0.128959
H	-1.5587769186	-0.3560740225	-1.021953741	 0.27387
H	 0.7189344892	-0.998979001	-1.836294198	 0.0627
H	 3.1293178286	-0.4010942988	-1.6626979361	 0.112392
H	 2.605135845	 1.128501467	-0.9306162835	 0.097314
H	 3.6794142739	-1.1595278031	 0.6338934673	 0.072374
H	 2.3664409663	-0.4471642779	 2.615314704	 0.113938
H	 2.1194986521	 1.0983912179	 1.7790303714	 0.098013
H	 0.0392095325	-1.0397516621	 1.9279490795	 0.081687
177.4655	192.0676	225.0748	271.3066	345.5426	364.7474	372.4637	409.4915	474.1575	616.7652	663.2516	707.208	804.0299	842.4842	876.7985	904.2088	915.3132	934.6502	955.4644	968.2454	988.7231	1013.6638	1031.9505	1050.63	1090.8853	1120.0558	1138.5794	1177.9079	1185.4283	1195.9393	1233.0699	1252.4295	1255.9649	1283.0931	1285.6755	1328.2047	1352.1212	1387.2844	1406.402	1473.0005	1482.3717	1496.288	1496.5397	3026.5467	3049.0973	3052.5725	3061.153	3082.3487	3093.1508	3095.0727	3103.4741	3108.1144	3120.4584	3793.7985
CC1(O)C2CC3CC1N23	C[C@@]1(O)[C@H]2C[C@H]3C[C@@H]1N23	
InChI=1S/C7H11NO/c1-7(9)5-2-4-3-6(7)8(4)5/h4-6,9H,2-3H2,1H3	InChI=1S/C7H11NO/c1-7(9)5-2-4-3-6(7)8(4)5/h4-6,9H,2-3H2,1H3/t4-,5+,6-,7+
