18
gdb 55716	2.31518	1.36742	0.98144	3.1141	78.52	-0.2378	0.026	0.2638	1220.7879	0.145994	-401.9396	-401.930123	-401.929179	-401.974629	35.393	
N	 0.7165509659	 0.3922605227	-0.3671551566	-0.508538
C	-0.3418414828	 0.164656565	 0.467523746	 0.387768
O	-0.4541716542	 0.6985441224	 1.5541066587	-0.35975
C	-1.3990027312	-0.8013208009	-0.0756494224	-0.384769
C	-0.9073686768	-2.2509017758	-0.1406741084	 0.155333
C	-0.7072486333	-2.9823562341	 1.180701503	-0.289041
C	-1.8650008733	-3.3509944321	 0.3020390475	-0.303791
C	-0.0104212424	-2.5562969688	-1.2242427497	 0.280543
C	 0.7345479922	-2.7811815888	-2.1439812162	-0.473068
H	 1.4984658913	 0.8949979084	 0.0231919764	 0.255633
H	 0.8996622899	-0.236904943	-1.1339863405	 0.262304
H	-2.2466047475	-0.7348361761	 0.608599188	 0.126782
H	-1.7322384442	-0.4817490771	-1.0689920631	 0.122757
H	 0.1247180206	-3.6725265481	 1.2494259742	 0.129105
H	-0.897033441	-2.4040106708	 2.0781435516	 0.14333
H	-2.8617281033	-3.0412512731	 0.5960931107	 0.125796
H	-1.8212766309	-4.2910098024	-0.2348679252	 0.130155
H	 1.3822118012	-3.0091348875	-2.9542514841	 0.199451
33.0149	69.6885	137.3695	181.1109	224.5951	303.0372	342.1995	411.8345	434.9873	525.3329	538.6127	545.9549	572.6442	590.8958	653.9382	658.7632	760.3153	792.8847	850.549	895.4343	928.4537	940.0832	970.8989	1006.966	1063.7915	1088.824	1110.2019	1183.5438	1194.1588	1269.5292	1311.5413	1345.0758	1368.717	1466.0033	1471.8896	1497.7617	1628.3287	1800.3276	2222.3665	3051.6785	3123.0996	3140.0983	3145.8927	3226.2851	3241.0952	3499.2074	3566.9712	3698.1089
NC(=O)CC1(CC1)C#C	NC(=O)CC1(CC1)C#C	
InChI=1S/C7H9NO/c1-2-7(3-4-7)5-6(8)9/h1H,3-5H2,(H2,8,9)	InChI=1S/C7H9NO/c1-2-7(3-4-7)5-6(8)9/h1H,3-5H2,(H2,8,9)
