22
gdb 107000	2.8198	1.24319	1.02826	2.6774	81.55	-0.234	0.0769	0.3109	1263.7584	0.193886	-404.307732	-404.298247	-404.297302	-404.341535	36.289	
C	-0.9770521866	 1.2746664954	-0.1009413415	-0.40489
C	-0.2604950074	-0.0632872577	-0.1618988083	 0.060035
C	 0.6727910409	-0.4421126671	-1.3629488953	-0.092057
C	 0.8937121231	 0.5123713781	-2.531306452	-0.412928
C	 1.7804583597	-0.6113672462	-0.3159216729	 0.303152
C	 2.6895560926	-1.8100492741	-0.1754241192	-0.158265
O	 3.094892666	-1.9790119502	 1.1672880133	-0.41748
C	 1.9661832305	 0.6148516885	 0.4796608953	-0.285173
N	 0.848711704	-0.2859267882	 0.8453771011	-0.203501
H	-0.3167009814	 2.1249560688	-0.290745046	 0.117314
H	-1.7815264624	 1.3087976564	-0.8432389461	 0.119592
H	-1.4252175151	 1.4113269932	 0.8887252862	 0.129232
H	-0.9927487324	-0.8574980759	 0.0081626688	 0.084637
H	 0.378191029	-1.4199223482	-1.7576388285	 0.078174
H	 1.2180053247	 1.5048555425	-2.2057460255	 0.116669
H	 1.6608611222	 0.1214549696	-3.2086734049	 0.120082
H	-0.0257359537	 0.638286532	-3.1131272267	 0.117542
H	 2.1646568517	-2.7042345711	-0.5541190313	 0.083001
H	 3.6000419861	-1.6889509722	-0.7749487978	 0.10991
H	 2.2947397938	-1.8435048294	 1.69559307	 0.293614
H	 2.7581696375	 0.5994944981	 1.2204659902	 0.132099
H	 1.7567793972	 1.5926656478	 0.0575936813	 0.109241
103.6883	144.5985	178.4315	188.7667	199.0061	217.2484	267.4321	323.3881	354.6342	488.1203	520.9153	542.9982	576.0803	664.7133	694.214	758.1601	784.2738	835.5042	902.6048	956.7172	1011.7091	1030.6308	1041.6995	1071.9681	1076.5642	1100.6671	1117.0433	1136.6011	1148.1892	1189.3743	1219.6173	1225.5481	1264.081	1307.2859	1347.5414	1375.9976	1387.8949	1401.0355	1407.9009	1418.0675	1448.6571	1485.9409	1490.6805	1493.3466	1502.8945	1509.7008	1512.2827	2952.0816	3032.9475	3038.4172	3043.4651	3048.5276	3063.8547	3094.7384	3103.3478	3108.6129	3115.7445	3131.0637	3217.8271	3730.8598
CC1C(C)C2(CO)CN12	C[C@H]1[C@@H](C)[C@@]2(CO)CN12	
InChI=1S/C7H13NO/c1-5-6(2)8-3-7(5,8)4-9/h5-6,9H,3-4H2,1-2H3	InChI=1S/C7H13NO/c1-5-6(2)8-3-7(5,8)4-9/h5-6,9H,3-4H2,1-2H3/t5-,6+,7+,8?/m1/s1
