16
gdb 10641	2.5078	1.87444	1.31165	3.8512	66.25	-0.2343	0.0237	0.258	965.7176	0.129695	-379.89945	-379.890987	-379.890043	-379.932248	30.832	
C	 0.1361925552	 1.3005236896	-0.3236126385	-0.328147
N	-0.1169309181	 0.0257084407	 0.3414781311	-0.343814
C	-1.4242139653	-0.5185672923	 0.1294998859	 0.126263
C	-1.8477171946	-1.0695267068	-1.2486691929	-0.338462
C	-1.5233544044	-2.0210690849	-0.1497809606	 0.060752
O	-0.3306713498	-2.7302730055	-0.2725192775	-0.413113
C	-2.4658249864	 0.0654282506	 0.9425306686	 0.280213
N	-3.3167943437	 0.5238052076	 1.5786869185	-0.34837
H	 1.1655278786	 1.6079703447	-0.1216603504	 0.12547
H	-0.0147100558	 1.2739683817	-1.4155218265	 0.101946
H	-0.5289767178	 2.0654977548	 0.0891326954	 0.143596
H	 0.5655676879	-0.6746941142	 0.0728861803	 0.23128
H	-2.8798345093	-0.9739644331	-1.5643961795	 0.140479
H	-1.1049760854	-0.9586911525	-2.0311624476	 0.137741
H	-2.3422327359	-2.555948577	 0.325660984	 0.121674
H	-0.0906863953	-3.0682438033	 0.5982050796	 0.302491
91.2276	151.9004	167.9861	194.5814	209.4758	299.8908	370.6658	402.5672	441.454	513.4657	578.0415	630.5275	662.3089	759.1274	820.9412	891.8347	924.6241	992.518	1048.3506	1090.1273	1097.4514	1154.8013	1165.1687	1185.237	1249.8879	1281.9784	1324.6418	1432.2251	1461.6209	1476.9017	1484.0321	1495.8443	1519.0399	2347.0613	2970.0065	3074.2925	3118.1465	3135.1188	3142.3109	3238.2467	3536.5202	3797.3806
CNC1(CC1O)C#N	CN[C@]1(C[C@H]1O)C#N	
InChI=1S/C5H8N2O/c1-7-5(3-6)2-4(5)8/h4,7-8H,2H2,1H3	InChI=1S/C5H8N2O/c1-7-5(3-6)2-4(5)8/h4,7-8H,2H2,1H3/t4-,5-/m1/s1
