18
gdb 64595	3.09032	1.40897	1.27814	3.1771	77.22	-0.2268	-0.034	0.1928	1049.4072	0.146718	-401.935859	-401.927599	-401.926655	-401.968692	31.469	
C	-0.108906496	 1.7240347363	 0.1056708236	-0.433137
C	 0.0265018021	 0.2009529152	 0.0889415406	 0.142489
C	-1.3517661871	-0.4542315126	 0.2779940094	 0.156603
O	-2.3864031838	 0.0026319618	-0.1309819502	-0.260993
C	 0.6037754092	-0.3796235603	-1.1983914866	-0.124295
C	 1.6020630979	-1.2218018707	-0.9298362405	-0.086387
C	 1.8738860069	-1.2483156139	 0.5346948456	-0.072781
C	 2.3079591909	 0.053725139	 1.1172064038	-0.243237
N	 0.8942560321	-0.3337609432	 1.1727157582	-0.128985
H	 0.8230791117	 2.212588046	-0.1874699999	 0.115358
H	-0.8993157152	 2.0245309166	-0.5853858194	 0.143826
H	-0.3850918538	 2.0651744109	 1.1072325534	 0.133601
H	-1.3020145259	-1.4301381801	 0.8080622106	 0.08729
H	 0.2207983225	-0.1149483885	-2.1764645443	 0.116306
H	 2.175547506	-1.7878184095	-1.6536341528	 0.112399
H	 2.0947301739	-2.1846216881	 1.0391564826	 0.10162
H	 2.7925996086	 0.0820766195	 2.0892466257	 0.121043
H	 2.6233063402	 0.8253838115	 0.4202957004	 0.11928
71.5785	138.9788	194.8075	208.2867	285.4264	318.4628	384.0803	417.691	476.5085	569.8684	699.756	728.4567	772.9564	782.7956	804.9064	869.4021	900.338	943.6175	958.6414	993.5792	1001.4275	1052.2685	1068.746	1104.6941	1113.3687	1142.6738	1175.6265	1184.0318	1218.4875	1259.4304	1328.3577	1367.6895	1391.6563	1409.3358	1487.0301	1492.4226	1498.5788	1657.5619	1829.2405	2900.7136	3052.6605	3107.7241	3126.6675	3138.4806	3150.0077	3197.5347	3200.8637	3224.4472
CC1(C=O)C=CC2CN12	C[C@@]1(C=O)C=C[C@H]2CN12	
InChI=1S/C7H9NO/c1-7(5-9)3-2-6-4-8(6)7/h2-3,5-6H,4H2,1H3	InChI=1S/C7H9NO/c1-7(5-9)3-2-6-4-8(6)7/h2-3,5-6H,4H2,1H3/t6-,7-,8?/m0/s1
