13
gdb 24766	3.42667	1.71658	1.14366	3.8659	72.17	-0.2233	-0.093	0.1303	966.7842	0.091423	-419.45871	-419.452394	-419.45145	-419.489483	24.592	
O	 0.0412332654	-0.0255427377	 0.0036509603	-0.305896
C	 0.0274191805	 1.1805162129	 0.0096684065	 0.270807
C	-1.2055831518	 2.087134033	 0.0311991387	-0.186639
C	-0.8321770917	 3.3761401483	 0.0321810286	-0.216821
C	 0.656855314	 3.4400378046	 0.0117806017	 0.237791
C	 1.1351882471	 2.1651323686	-0.0010174992	 0.209767
O	 2.4853981384	 2.1361149535	-0.0199815021	-0.180704
C	 2.8714010143	 3.440019402	-0.0190977059	 0.00244
C	 1.7928659095	 4.2916767893	 0.0000992168	-0.359812
H	-2.2071112075	 1.6818353041	 0.0432098354	 0.126508
H	-1.4863994254	 4.2382717497	 0.0454448633	 0.124687
H	 3.936064908	 3.6081302708	-0.0331445112	 0.150141
H	 1.8414671893	 5.3693345009	 0.0046425072	 0.12773
134.1609	212.3918	290.6179	373.0379	523.9938	606.9595	612.51	647.9091	656.6433	711.3993	732.4941	756.9336	832.9881	837.9872	919.3028	947.9842	1021.7174	1045.358	1071.8367	1118.3243	1172.7067	1256.9388	1310.8702	1363.1772	1457.5802	1486.6676	1579.1186	1625.9991	1818.0321	3215.9554	3249.3486	3256.1302	3282.8529
O=C1C=CC2=C1OC=C2	O=C1C=Cc2c1occ2	
InChI=1S/C7H4O2/c8-6-2-1-5-3-4-9-7(5)6/h1-4H	InChI=1S/C7H4O2/c8-6-2-1-5-3-4-9-7(5)6/h1-4H
