22
gdb 115879	2.46347	1.41804	1.07229	2.8125	82.45	-0.2333	0.0724	0.3056	1235.3661	0.194438	-404.340219	-404.331032	-404.330088	-404.373931	35.036	
C	 0.1126750528	 1.5293274079	 0.1365781846	-0.383651
C	 0.0262975222	 0.0057659796	 0.0144024201	-0.189026
C	 0.6551271303	-0.5296977769	-1.2676477573	 0.114883
O	 2.0312239612	-0.1420230347	-1.3003822099	-0.274853
C	 2.8035116598	-1.12356284	-1.9798449317	-0.077999
C	 2.0241198735	-2.4130544987	-1.8495270972	-0.115946
N	 1.6011909955	-2.670838233	-0.4542705054	-0.364578
C	 0.6572227474	-2.0501573965	-1.4130357141	 0.299743
C	-0.5983872318	-2.763276206	-1.8370470959	-0.500025
H	 1.1549689502	 1.8567084071	 0.1153979621	 0.137419
H	-0.4118037164	 2.0255443586	-0.688243229	 0.105953
H	-0.3373573348	 1.8742331653	 1.0725878083	 0.10592
H	 0.5314241787	-0.4765866679	 0.8573980888	 0.119549
H	-1.0247066229	-0.3113006561	 0.0398597991	 0.084984
H	 0.1279653054	-0.1086216597	-2.1440819495	 0.054318
H	 2.9308901591	-0.8724543067	-3.0460812115	 0.086201
H	 3.7909207615	-1.1540205134	-1.5072496077	 0.111245
H	 2.2194121116	-3.2431875521	-2.5208622113	 0.08836
H	 1.3672151266	-3.6574985397	-0.3600759752	 0.224363
H	-1.370155945	-2.7038825506	-1.0610592568	 0.130643
H	-1.0132088521	-2.3229912512	-2.7504452858	 0.126752
H	-0.4028410828	-3.8224689854	-2.0333332947	 0.115743
91.6053	121.7083	169.0451	203.5169	227.6458	238.4037	282.8508	318.5888	427.4516	454.8412	521.4313	577.5524	688.5226	760.068	791.32	852.0663	865.4061	920.4166	928.6807	952.9653	974.1758	1027.3058	1040.7667	1067.2492	1093.9966	1102.9775	1112.9335	1126.1401	1164.8443	1169.16	1233.9441	1285.4842	1297.4599	1307.8962	1340.998	1362.1738	1388.4851	1404.0535	1408.6385	1418.6494	1454.1411	1479.8111	1486.4967	1496.313	1502.7832	1508.8088	1509.2583	2927.3205	2968.514	3023.3207	3026.5881	3033.8071	3067.7471	3080.0212	3088.0759	3099.2416	3100.382	3125.5344	3164.5298	3484.5105
CCC1OCC2NC12C	CC[C@H]1OC[C@H]2N[C@@]12C	
InChI=1S/C7H13NO/c1-3-6-7(2)5(8-7)4-9-6/h5-6,8H,3-4H2,1-2H3	InChI=1S/C7H13NO/c1-3-6-7(2)5(8-7)4-9-6/h5-6,8H,3-4H2,1-2H3/t5-,6-,7-/m1/s1
