16
gdb 52543	3.88802	0.73398	0.62222	6.6964	79.24	-0.2481	-0.047	0.2011	1757.462	0.120781	-437.920396	-437.909827	-437.908883	-437.959405	34.415	
C	 0.1852365651	 1.4161012716	-0.0909447424	-0.505812
C	 0.0676874549	-0.031857147	-0.0672872329	 0.170684
C	-0.044678303	-1.2322650113	-0.0460766331	-0.087301
C	-0.2406140103	-2.673027794	-0.0212352562	 0.290147
O	-1.3265792863	-3.195654214	-0.0174994429	-0.298109
N	 0.9818367779	-3.3596697057	-0.0024523703	-0.380596
C	 1.1913833109	-4.7484247013	 0.0234456334	 0.414105
C	 2.6692666737	-5.1106738614	 0.038360428	-0.504946
O	 0.3036647986	-5.5598511223	 0.0326723991	-0.292594
H	 0.9699704997	 1.7380005485	-0.7836213257	 0.159578
H	-0.7556903597	 1.8809360481	-0.4025598821	 0.167498
H	 0.4379043116	 1.8010429598	 0.9029738594	 0.163697
H	 1.8023681001	-2.772081381	-0.0081494947	 0.258453
H	 3.1660435953	-4.6884537805	 0.9185427679	 0.14304
H	 2.7599884779	-6.1958557997	 0.0582398806	 0.159101
H	 3.1759363438	-4.7203125996	-0.850836178	 0.143055
10.6493	45.6655	72.9322	83.7047	99.3435	163.8667	198.7429	301.304	368.5414	381.227	396.6128	571.6929	582.7981	585.3996	627.1835	762.827	828.4519	923.3966	1005.1969	1047.4263	1051.3774	1052.6351	1080.2074	1199.0202	1238.8646	1385.4964	1410.6396	1465.486	1470.177	1473.5279	1482.5538	1498.6473	1789.6075	1851.6758	2349.7612	3033.4304	3040.3565	3097.1609	3102.0283	3103.1713	3166.6425	3617.5011
CC#CC(=O)NC(C)=O	CC#CC(=O)NC(=O)C	
InChI=1S/C6H7NO2/c1-3-4-6(9)7-5(2)8/h1-2H3,(H,7,8,9)	InChI=1S/C6H7NO2/c1-3-4-6(9)7-5(2)8/h1-2H3,(H,7,8,9)
