21
gdb 60611	2.69493	1.11456	0.90408	3.8878	79.56	-0.2334	0.0365	0.2699	1358.2863	0.182112	-420.428304	-420.418189	-420.417245	-420.463706	37.268	
C	-0.2497027456	 1.2166632136	-0.2829867003	-0.392056
C	 0.2674514741	-0.0981171858	 0.3038457638	-0.102243
C	 1.0459449672	-0.8936151339	-0.7355292894	-0.015232
N	 1.3605428741	-2.304241433	-0.4307590265	-0.355154
C	 0.4710966704	-1.9907819096	-1.5658008185	-0.001254
C	-0.9551370831	-2.4779935423	-1.4877899487	-0.397734
C	 1.1390183792	 0.1580981993	 1.5494580732	 0.381817
N	 1.500652295	-0.9821563859	 2.2080510947	-0.51959
O	 1.4441671344	 1.2734581777	 1.9268693384	-0.365119
H	 0.5805583106	 1.8539856952	-0.5991863853	 0.129204
H	-0.8933880692	 1.0253693235	-1.1469766654	 0.104072
H	-0.8175156131	 1.775875057	 0.4632999327	 0.130592
H	-0.5778219699	-0.7097184808	 0.6377671362	 0.094137
H	 1.8384032219	-0.3131070128	-1.2079180457	 0.091204
H	 2.2937696881	-2.542345953	-0.7537449776	 0.235332
H	 0.9146464177	-2.09193278	-2.555874222	 0.088382
H	-1.3542682573	-2.4001793788	-0.4743602841	 0.130792
H	-1.5997960521	-1.9029523076	-2.1610309786	 0.122833
H	-1.0123574352	-3.5303989278	-1.7852014051	 0.123642
H	 1.4213719753	-1.8682920923	 1.7268484044	 0.266314
H	 2.1712067075	-0.8873855029	 2.9542856241	 0.250062
55.7275	63.9457	144.2592	178.7795	191.202	210.8826	275.2633	295.9848	370.9491	411.9217	459.9027	466.6993	540.228	605.3644	631.403	720.6935	783.0337	808.6525	845.5619	906.4706	954.7952	1004.1961	1006.1431	1037.3458	1080.7351	1094.6718	1117.0094	1151.4353	1166.6919	1215.7266	1258.2702	1274.0519	1280.4365	1308.1967	1369.1136	1400.4477	1409.2265	1426.1642	1461.9474	1485.3832	1490.2334	1493.2034	1502.4807	1620.8195	1796.9323	3038.5903	3047.0417	3050.3218	3098.8295	3101.6641	3111.7733	3118.1241	3132.2882	3133.8227	3511.1233	3533.8327	3687.724
CC(C1NC1C)C(N)=O	C[C@@H]([C@H]1N[C@H]1C)C(=O)N	
InChI=1S/C6H12N2O/c1-3(6(7)9)5-4(2)8-5/h3-5,8H,1-2H3,(H2,7,9)	InChI=1S/C6H12N2O/c1-3(6(7)9)5-4(2)8-5/h3-5,8H,1-2H3,(H2,7,9)/t3-,4-,5+/m0/s1
