21
gdb 122892	4.32278	0.5549	0.51003	2.6148	82.81	-0.2527	0.04	0.2927	2139.7898	0.178234	-424.173809	-424.162441	-424.161497	-424.212049	39.324	
C	-0.0707902442	 1.5234488255	 0.0097590698	-0.393974
C	 0.0258621616	-0.0110566669	-0.0058387396	-0.036804
O	 0.6432818139	-0.4934812712	-1.1942155385	-0.256763
C	-0.2213706903	-0.5830340764	-2.3106191279	-0.058022
C	 0.5617693976	-1.2005720025	-3.4607664316	-0.182237
C	-0.2772673848	-1.359437388	-4.7219510938	-0.072734
O	 0.5527475218	-1.9287886983	-5.7219565432	-0.418682
C	 0.8007536275	-0.5001912396	 1.1356415552	 0.321423
C	 1.4229103531	-0.873597856	 2.092747811	-0.442716
H	 0.9289306931	 1.95748341	-0.0676658529	 0.136938
H	-0.6784664968	 1.8806669542	-0.8261095626	 0.117632
H	-0.5318576875	 1.8654906219	 0.9403732357	 0.127619
H	-0.9919536239	-0.4309991156	 0.0660702733	 0.093317
H	-1.0986050532	-1.2046595263	-2.0602769898	 0.086798
H	-0.6022754127	 0.4099748264	-2.6002514306	 0.087369
H	 1.4311779065	-0.5737674961	-3.6848865161	 0.118485
H	 0.9426583614	-2.1800595013	-3.1540099932	 0.119761
H	-1.1488683179	-2.0023376003	-4.5143835655	 0.084997
H	-0.6674212318	-0.3780540805	-5.0397019374	 0.084197
H	 0.0295154493	-2.0366301364	-6.5213898407	 0.285771
H	 1.9756369575	-1.2160374626	 2.9323780185	 0.197624
29.6955	50.8878	88.7817	110.494	126.8944	174.9419	207.513	236.2173	264.6751	304.2278	351.7476	390.6258	504.0064	542.7807	578.3713	622.3143	667.9906	778.8705	831.3548	890.632	914.3156	1019.1043	1048.4564	1055.8357	1091.9519	1105.8759	1117.7848	1149.522	1177.6056	1229.4948	1243.9413	1303.4725	1305.5947	1317.1837	1341.983	1359.7918	1397.9877	1440.8479	1467.0912	1487.5521	1490.2137	1498.9382	1522.4744	1534.2562	2243.3538	2947.1852	2956.0651	2959.0871	2976.9223	2983.9372	3048.2259	3054.3276	3101.1804	3122.0696	3134.5926	3504.1809	3830.4234
CC(OCCCO)C#C	C[C@@H](OCCCO)C#C	
InChI=1S/C7H12O2/c1-3-7(2)9-6-4-5-8/h1,7-8H,4-6H2,2H3	InChI=1S/C7H12O2/c1-3-7(2)9-6-4-5-8/h1,7-8H,4-6H2,2H3/t7-/m1/s1
