17
gdb 62186	5.25826	0.62581	0.57747	1.2244	74.69	-0.3034	-0.0066	0.2968	1808.5642	0.134104	-418.021348	-418.011363	-418.010419	-418.057641	33.684	
C	 0.0260350102	 1.5659137125	 0.0074944618	-0.391943
C	 0.012028757	 0.0269319407	 0.064316535	-0.154556
C	 0.7408731305	-0.5205556207	 1.3025682471	-0.055213
O	 2.0926537	-0.117002796	 1.2013485355	-0.242168
C	 2.8677022216	-0.5366502379	 2.2987935754	-0.189219
C	 4.2448479884	-0.0703473126	 2.1171485248	 0.266299
N	 5.3367377399	 0.2849209031	 1.9999630925	-0.284533
C	-1.3568695829	-0.4957536851	 0.0445753891	 0.257593
N	-2.4374428297	-0.9050895182	 0.0464302421	-0.312273
H	 1.0587343463	 1.9176153833	 0.0305259086	 0.15104
H	-0.4516675903	 1.9231994878	-0.9072614634	 0.141849
H	-0.5099415585	 1.9889851734	 0.8620260066	 0.135974
H	 0.5310167057	-0.368434513	-0.8174514291	 0.145438
H	 0.2804304117	-0.1204881036	 2.2197547902	 0.115862
H	 0.6640354152	-1.6175670864	 1.3367823046	 0.119941
H	 2.479033897	-0.1311182636	 3.2467535674	 0.147687
H	 2.875084528	-1.6345370039	 2.392134902	 0.148221
38.8952	79.2978	90.9234	130.1345	156.3355	215.061	231.7396	313.4477	332.052	385.1758	402.4883	537.8223	559.1534	599.8258	827.67	928.9016	936.8942	964.1215	1024.6046	1035.1449	1095.7385	1126.8933	1157.9232	1170.4042	1254.2107	1266.0082	1309.13	1342.5259	1384.9084	1406.4331	1445.4083	1492.165	1495.9817	1500.1207	1522.1948	2361.2657	2376.5446	2975.4708	2982.5735	3004.9383	3019.5076	3048.1474	3056.5138	3130.4993	3149.5732
CC(COCC#N)C#N	C[C@@H](COCC#N)C#N	
InChI=1S/C6H8N2O/c1-6(4-8)5-9-3-2-7/h6H,3,5H2,1H3	InChI=1S/C6H8N2O/c1-6(4-8)5-9-3-2-7/h6H,3,5H2,1H3/t6-/m1/s1
