21
gdb 109076	3.28763	1.1998	1.14124	1.5011	83.24	-0.2199	0.0328	0.2527	1187.8612	0.185158	-387.098827	-387.090788	-387.089844	-387.131479	31.862	
O	 0.0083241616	 1.4120154743	-0.0644383182	-0.413337
C	-0.0184669805	-0.0018252488	 0.0200899879	-0.206412
C	-1.4280399446	-0.4766527108	 0.1000484123	 0.345616
C	-2.5595597049	 0.2369392414	 0.1071162875	-0.18028
C	-3.7213088772	-0.7427192969	 0.0429363304	-0.052425
C	-3.7081477037	-1.3544870012	-1.3997519824	-0.197064
C	-2.3871533922	-2.1850343793	-1.4073402356	-0.203558
C	-1.8202356692	-1.948672687	 0.0341095268	-0.114918
C	-3.1313011086	-1.9212657932	 0.8523560921	-0.208313
H	 0.926742828	 1.6948168063	-0.0434089681	 0.288298
H	 0.471941939	-0.4669353635	-0.8552829033	 0.092235
H	 0.5397957602	-0.3607273857	 0.903771401	 0.093205
H	-2.6407646783	 1.3133913397	 0.0418520846	 0.102461
H	-4.6926134251	-0.3587681243	 0.3571334099	 0.054232
H	-4.5811564199	-1.9964625904	-1.5550195224	 0.091144
H	-3.7262467188	-0.5792007826	-2.169020369	 0.096985
H	-2.5869153581	-3.2487532317	-1.5698708999	 0.092189
H	-1.685079236	-1.8606279333	-2.1796795995	 0.095126
H	-1.0544106044	-2.6656210148	 0.3374445828	 0.049971
H	-2.971461541	-1.6762488561	 1.9052529987	 0.09212
H	-3.7138662865	-2.8458931821	 0.7708206146	 0.082725
75.4876	158.6291	181.6792	237.0602	260.2231	371.337	433.2289	494.4664	535.793	628.1056	736.2378	786.4418	818.0278	834.3047	852.3978	867.7608	887.9414	932.0169	950.0324	956.94	970.0972	1030.8171	1045.3238	1055.0961	1067.3692	1125.198	1141.6023	1153.4344	1190.2155	1207.0814	1218.4198	1239.9097	1247.4219	1270.4304	1283.3504	1306.6755	1309.4451	1332.5435	1348.9157	1465.3523	1486.8992	1489.4858	1504.5234	1512.3629	1698.5468	2928.8279	2941.0632	3040.7691	3044.6371	3056.6616	3088.5717	3090.9866	3103.4436	3107.1594	3109.3997	3227.3855	3837.4907
OCC1=CC2CCC1C2	OCC1=C[C@H]2CC[C@@H]1C2	
InChI=1S/C8H12O/c9-5-8-4-6-1-2-7(8)3-6/h4,6-7,9H,1-3,5H2	InChI=1S/C8H12O/c9-5-8-4-6-1-2-7(8)3-6/h4,6-7,9H,1-3,5H2/t6-,7+/m0/s1
