22
gdb 7458	2.97598	1.34793	1.16793	2.2745	74.45	-0.2551	0.0619	0.3169	1170.0843	0.197571	-387.349822	-387.339471	-387.338527	-387.384699	38.198	
C	-0.0056581108	 1.6019326614	 0.0686141847	-0.391318
C	 0.0392790665	 0.0679108167	 0.0857603735	 0.023289
C	 0.7595479834	-0.4342029981	 1.3462846354	-0.402193
C	-1.3901061021	-0.5064936988	-0.0461684702	 0.150442
O	-2.0657320573	 0.0430496332	-1.1721340859	-0.446355
C	-1.4416922147	-2.0423443584	-0.1459990096	 0.107887
C	-2.8716302346	-2.5745403643	-0.0897802737	-0.414975
O	-0.8185891509	-2.3490026982	-1.4005045244	-0.45201
H	 1.0057732678	 2.0210128628	 0.0675008955	 0.102069
H	-0.5383104399	 1.9668200593	-0.8112060076	 0.127917
H	-0.5228941085	 1.9865153977	 0.9567819522	 0.104086
H	 0.6026249664	-0.2740707293	-0.7923862477	 0.081849
H	 0.9509830322	-1.5105745404	 1.3225358872	 0.115893
H	 1.7274695808	 0.0654453275	 1.4556400154	 0.112407
H	 0.175799336	-0.2147292325	 2.2491117364	 0.10887
H	-1.9713617576	-0.1990288393	 0.833718493	 0.073801
H	-1.7143237622	-0.4374112825	-1.9337173859	 0.283864
H	-0.8601877363	-2.4848105601	 0.6745151214	 0.070319
H	-3.4876752319	-2.0841841611	-0.8472351014	 0.136943
H	-2.8922731048	-3.6581684256	-0.2569402179	 0.10012
H	-3.3148946581	-2.3860604865	 0.8933342292	 0.12017
H	-1.0310121733	-3.2581195834	-1.6305296797	 0.286926
45.1333	98.5735	176.0052	215.3468	223.8569	236.2709	266.6424	274.4016	302.2398	331.1198	397.8699	411.6368	461.1214	491.6232	503.1576	690.9482	807.5541	862.6951	911.6836	931.1686	961.5816	985.5977	1008.7897	1056.0114	1086.8863	1118.0957	1142.8051	1175.5301	1190.5897	1214.3201	1287.4111	1315.7815	1350.0834	1370.3242	1381.8425	1394.6839	1403.5908	1411.7854	1419.7604	1440.8302	1488.0467	1488.2525	1491.5882	1501.7763	1505.2728	1514.5487	3006.4663	3016.551	3023.6253	3025.1181	3029.3364	3036.2621	3085.9462	3092.8503	3094.4993	3105.7246	3131.3663	3134.892	3762.9208	3833.2907
CC(C)C(O)C(C)O	CC(C)[C@@H](O)[C@@H](C)O	
InChI=1S/C6H14O2/c1-4(2)6(8)5(3)7/h4-8H,1-3H3	InChI=1S/C6H14O2/c1-4(2)6(8)5(3)7/h4-8H,1-3H3/t5-,6-/m1/s1
