17
gdb 35581	2.96642	1.49222	1.25805	5.3075	71.77	-0.2539	0.0159	0.2699	1025.0892	0.138593	-418.000259	-417.992833	-417.991889	-418.032499	28.418	
N	 0.1821649364	-1.1559549342	 0.1246091243	-0.329421
C	 0.1216119962	-0.0036369862	 0.0617086448	 0.322698
C	 0.0514304542	 1.4532682311	-0.0267821519	-0.188285
N	-0.2855322139	 2.1447323552	 1.2368849525	-0.314651
C	 0.8298387972	 3.1148495904	 1.0789109001	-0.029582
C	 1.8832538113	 3.0103941742	 2.1811536764	-0.218471
C	 2.5687612903	 1.6798356056	 1.8354535519	-0.091448
O	 2.5545788507	 1.60800324	 0.3998728319	-0.247819
C	 1.4106389071	 2.2509336474	-0.0775581632	 0.107531
H	-0.5843039596	 1.7209325965	-0.8811352821	 0.112734
H	-1.2187896719	 2.5352864067	 1.2765042766	 0.23089
H	 0.5315851524	 4.137838003	 0.8338088196	 0.077377
H	 2.5897164204	 3.843484945	 2.1043199746	 0.108016
H	 1.4401086699	 3.0097967742	 3.1794926111	 0.115845
H	 3.61208892	 1.6188565421	 2.1518000271	 0.117279
H	 2.0170168946	 0.8330008426	 2.2604309533	 0.127288
H	 1.6337833646	 2.6984941564	-1.0464096172	 0.10002
73.7496	132.7787	228.8884	237.73	369.7674	383.4011	519.8791	557.5827	643.6277	670.752	695.0734	783.4407	850.9833	858.4493	901.8846	950.0547	970.5068	988.0121	992.9864	1044.9088	1084.4742	1088.8262	1130.307	1159.7834	1201.4636	1226.9939	1244.2787	1280.8943	1295.9352	1324.3247	1353.6128	1370.3869	1392.107	1400.3768	1471.1243	1518.0195	2357.5527	3015.3936	3039.5742	3053.0328	3071.3476	3109.145	3113.0548	3121.7944	3556.8352
N#CC1NC2CCOC12	N#C[C@H]1N[C@H]2CCO[C@@H]12	
InChI=1S/C6H8N2O/c7-3-5-6-4(8-5)1-2-9-6/h4-6,8H,1-2H2	InChI=1S/C6H8N2O/c7-3-5-6-4(8-5)1-2-9-6/h4-6,8H,1-2H2/t4-,5+,6+/m0/s1
