16
gdb 5735	3.88315	2.07387	1.38217	1.5633	73.47	-0.1696	0.0535	0.2231	875.8369	0.133094	-342.776524	-342.769355	-342.768411	-342.80813	26.939	
N	-0.0327119365	 1.445260035	-0.1356291507	-0.607903
C	-0.0001406591	 0.0384843343	-0.0237259474	 0.064313
C	-1.0487636721	-0.8568545619	-0.0013891386	 0.276151
C	-2.4692195123	-1.3398711649	-0.2459280785	-0.38092
C	-1.8257135956	-2.7791288818	-0.2785536363	-0.165568
N	-0.5403873039	-2.1315438224	 0.0331680777	 0.016327
C	 0.8192214295	-2.1199890195	-0.0039470138	-0.153575
C	 1.179580717	-0.7777801325	 0.0019432578	-0.192804
H	 0.7894221615	 1.8715015802	 0.2738063566	 0.237107
H	-0.8493181648	 1.8444784426	 0.3099694628	 0.236005
H	-3.1929560781	-1.1821650515	 0.5598906863	 0.112342
H	-2.9260943677	-1.0373994007	-1.1926269607	 0.120612
H	-2.1671112482	-3.4848905177	 0.4843596926	 0.118812
H	-1.8478731616	-3.2599469138	-1.2609375986	 0.125365
H	 1.4244976462	-3.0113883216	 0.0282041176	 0.113275
H	 2.1936683256	-0.4058678939	 0.0480894432	 0.08046
72.6201	135.6956	203.7674	276.6636	328.8692	516.2389	604.648	637.0073	644.7517	691.0672	719.5269	762.4118	796.8976	809.1673	841.3453	912.5919	1036.4126	1042.9205	1056.2435	1089.764	1138.201	1180.333	1214.3573	1223.4588	1259.5447	1285.192	1352.837	1430.746	1443.0923	1478.3443	1496.189	1521.3626	1645.6722	1658.82	3044.3987	3049.8911	3084.7298	3103.2077	3226.0637	3265.2666	3527.5059	3613.7603
NC1=C2CCN2C=C1	Nc1c2CCn2cc1	
InChI=1S/C6H8N2/c7-5-1-3-8-4-2-6(5)8/h1,3H,2,4,7H2	InChI=1S/C6H8N2/c7-5-1-3-8-4-2-6(5)8/h1,3H,2,4,7H2
