19
gdb 87804	2.84594	1.47067	1.2275	1.5153	75.36	-0.2255	0.0589	0.2844	1085.7851	0.157884	-422.959404	-422.950984	-422.95004	-422.992206	32.878	
C	-0.1930177775	 1.4596711942	 0.1261767773	-0.415136
C	-0.0267278451	-0.0419069861	 0.0499820751	-0.066153
C	 1.3628867389	-0.6572488605	-0.1018550976	-0.382663
C	 0.6047982744	-0.7907439543	 1.1761427263	 0.458434
O	 1.0656492168	-0.1249879959	 2.3769799618	-0.333137
C	 0.7981883788	-1.3185736092	 3.1365617838	 0.014426
C	-0.6680698873	-1.5846515662	 3.1131687848	 0.124248
O	-1.5974519453	-0.5529388273	 3.0551278567	-0.435883
C	 0.184925452	-2.024807904	 1.9292013175	-0.284352
H	 0.6095489895	 1.9141932759	 0.7139124749	 0.130789
H	-0.1817075399	 1.910292253	-0.8717692193	 0.118752
H	-1.1447903955	 1.7232385569	 0.6010213342	 0.12169
H	-0.8318233269	-0.5673686721	-0.4579351581	 0.094451
H	 1.488474047	-1.5344965689	-0.7284642514	 0.114841
H	 2.2101972509	 0.0213284028	-0.0929107808	 0.123427
H	 1.5266439825	-1.6040371171	 3.8867932904	 0.106411
H	-1.0072457333	-2.4051641655	 3.7394949951	 0.109377
H	-1.0875549708	 0.2567125097	 2.9161994002	 0.297438
H	 0.2667777209	-3.0457398354	 1.5802554193	 0.103041
89.1244	143.8529	185.3394	213.5418	260.0431	343.0382	383.4764	418.9158	463.9168	567.7888	603.047	679.1797	729.5227	793.4991	811.3572	869.5211	884.2923	909.7392	928.5987	969.6985	999.6455	1025.5041	1036.028	1047.5104	1061.3045	1082.6035	1107.8155	1131.2594	1166.0018	1175.0718	1191.9408	1260.4502	1294.0101	1330.9003	1356.3692	1410.7086	1428.9463	1449.756	1491.47	1495.029	1513.2307	3031.1038	3091.03	3110.5506	3123.7509	3139.4368	3157.2165	3176.603	3200.6445	3213.0294	3756.8244
CC1CC11OC2C(O)C12	C[C@H]1C[C@]21O[C@H]1[C@@H](O)[C@@H]21	
InChI=1S/C7H10O2/c1-3-2-7(3)4-5(8)6(4)9-7/h3-6,8H,2H2,1H3	InChI=1S/C7H10O2/c1-3-2-7(3)4-5(8)6(4)9-7/h3-6,8H,2H2,1H3/t3-,4+,5-,6+,7+/m0/s1
