20
gdb 33264	5.18982	0.67367	0.65487	3.1191	82.16	-0.1999	0.0459	0.2458	1743.442	0.171684	-403.17478	-403.165457	-403.164513	-403.210657	33.583	
O	-0.0664843469	 1.4463280015	 0.0100836715	-0.418244
C	 0.0202181265	 0.0306019977	 0.0017632852	-0.070137
C	-1.3996941925	-0.5210195432	 0.0127433898	-0.166444
C	-1.4288868237	-2.054148193	 0.0050214758	-0.18602
N	-2.7731876843	-2.6019858132	 0.0148644124	 0.042857
C	-3.5222027411	-2.8585767384	 1.1380532734	-0.099814
C	-4.7692317359	-3.2828239011	 0.7408801695	-0.166883
C	-4.7808765556	-3.2798592615	-0.6812199113	-0.166939
C	-3.5405083782	-2.8539090541	-1.0969645665	-0.099783
H	 0.8263256723	 1.8035844776	 0.0026909539	 0.287377
H	 0.5555720168	-0.3314978647	-0.8920410655	 0.085671
H	 0.5729292849	-0.340822763	 0.8810681343	 0.085673
H	-1.9218769381	-0.1470230155	 0.8998631672	 0.119705
H	-1.9390923995	-0.1378602561	-0.8600663507	 0.119745
H	-0.9133917204	-2.4393964533	-0.8817741205	 0.117077
H	-0.8964325458	-2.4486280595	 0.8776729294	 0.117082
H	-3.0980362135	-2.7197244989	 2.1204025446	 0.108839
H	-5.5753797544	-3.5751064525	 1.3962425884	 0.090698
H	-5.5976141451	-3.5695112006	-1.3245247907	 0.090697
H	-3.1323834957	-2.7110496182	-2.0855149901	 0.108843
30.8908	72.5082	79.1428	107.47	217.925	267.0954	324.3507	348.6677	459.3159	623.2742	636.1646	679.9797	730.2146	740.806	761.0367	795.4219	846.4552	869.1361	885.2064	985.463	1025.731	1036.9689	1081.7692	1082.6601	1088.4763	1114.8604	1130.8541	1208.8676	1239.128	1283.3671	1307.5119	1310.6238	1313.7856	1316.686	1398.4076	1422.5264	1433.5668	1466.9404	1481.8754	1500.867	1528.6936	1535.9459	1560.8351	2953.7713	2977.953	3034.7814	3051.0653	3071.8039	3101.4888	3237.0906	3246.3629	3257.7398	3267.4931	3829.5026
OCCCN1C=CC=C1	OCCCn1cccc1	
InChI=1S/C7H11NO/c9-7-3-6-8-4-1-2-5-8/h1-2,4-5,9H,3,6-7H2	InChI=1S/C7H11NO/c9-7-3-6-8-4-1-2-5-8/h1-2,4-5,9H,3,6-7H2
