14
gdb 130229	3.15887	1.4901	1.01563	3.7477	70.21	-0.2346	-0.043	0.1915	1083.6142	0.102796	-466.172617	-466.164848	-466.163903	-466.205119	29.391	
N	 0.0082606358	 1.3692176198	 0.2655848894	-0.569936
C	-0.039177063	-0.0044152981	 0.0666949901	 0.490065
N	-1.1474315238	-0.534979459	-0.3242127296	-0.215226
O	-1.1700555129	-1.9631714714	-0.3404165082	-0.286049
C	-0.043834153	-2.7188659921	-0.2462683588	 0.369556
N	-0.05543019	-3.9706133904	-0.4356810395	-0.517278
C	 1.2367312886	-2.0521203111	 0.1544770587	 0.324665
N	 2.345170495	-2.6342483385	 0.3521271761	-0.514659
N	 1.1153179169	-0.6853854612	 0.3434173755	-0.380529
H	 0.7739294376	 1.8260930078	-0.2163671282	 0.261095
H	-0.877979259	 1.7967678846	 0.0268392995	 0.273844
H	-0.9907173919	-4.2948223136	-0.6850631425	 0.238165
H	 2.2199653582	-3.6329760621	 0.1794532592	 0.254211
H	 1.9079943915	-0.2040894047	 0.7427446381	 0.272075
79.0704	103.6549	281.2579	325.3197	346.2433	364.6637	421.3289	475.8773	518.1458	548.7433	591.9	648.4679	689.489	770.1757	774.8562	822.1862	876.8555	919.8561	920.7391	1055.7817	1082.4866	1149.6572	1185.082	1293.1366	1322.7877	1435.2011	1543.5761	1632.4608	1707.2552	1735.7076	1746.3144	3485.9983	3490.229	3529.6407	3617.6829	3630.598
NC1=NOC(=N)C(=N)N1	NC1=NOC(=C([NH])N1)[NH]	
InChI=1S/C3H5N5O/c4-1-2(5)9-8-3(6)7-1/h5H,(H4,4,6,7,8)	InChI=1S/C3H5N5O/c4-1-2(5)9-8-3(6)7-1/h5H,(H4,4,6,7,8)
