21
gdb 108492	2.66407	1.4611	1.17538	1.7214	83.15	-0.2404	0.0193	0.2597	1151.4606	0.183506	-387.089742	-387.081374	-387.08043	-387.122616	32.525	
C	-0.2463240022	 1.5913876204	-0.0451564115	-0.388139
C	 0.0060957696	 0.0795109868	 0.0020978038	-0.266949
C	 0.784004001	-0.45356135	-1.1994751531	 0.26015
C	 0.0422496836	-0.4884758233	-2.5644631872	-0.111737
O	 0.3639718574	-1.8807021513	-2.7498821716	-0.297001
C	 0.9099617612	-1.9925096782	-1.4155578311	 0.07718
C	 2.3993267317	-2.3616490822	-1.4118507127	-0.285698
C	 3.0781486797	-1.010669231	-1.4236135897	-0.066501
C	 2.2193685091	 0.0025253886	-1.3045653822	-0.138234
H	 0.6901747212	 2.1579126405	-0.0371371286	 0.120063
H	-0.798830829	 1.8752263103	-0.9477885872	 0.119376
H	-0.8352795381	 1.9161778829	 0.8177936837	 0.116129
H	 0.5498606533	-0.1738588466	 0.9210625294	 0.099285
H	-0.956323087	-0.4452305405	 0.0569506886	 0.097689
H	-1.0431040645	-0.32777861	-2.4902797711	 0.088616
H	 0.4454434257	 0.1381802184	-3.3682688887	 0.100083
H	 0.2881854465	-2.6398729045	-0.7856927508	 0.065594
H	 2.6833136346	-2.9562454686	-0.5330777465	 0.101909
H	 2.6349518959	-2.9657985129	-2.2960768697	 0.121143
H	 4.1535346036	-0.9014516008	-1.518053595	 0.094134
H	 2.4974661367	 1.051008302	-1.2966331988	 0.092907
95.5135	130.5343	179.609	211.2631	255.8492	310.0757	350.7085	441.1742	472.3139	627.1078	664.8635	752.4204	772.2122	791.861	863.9029	877.337	925.0462	941.5809	973.6079	979.6229	984.1672	1015.6933	1025.7342	1045.7419	1057.2657	1107.0425	1159.9442	1163.1986	1174.1502	1200.9416	1229.0498	1268.1048	1309.1383	1313.4078	1333.8778	1360.6561	1366.0706	1397.8763	1413.9784	1465.8152	1484.8096	1501.5422	1506.8209	1522.053	1677.1213	2991.7791	3013.6002	3017.2022	3035.0485	3036.0532	3051.0927	3055.9794	3061.1217	3101.228	3107.6011	3176.7793	3201.6071
CCC12COC1CC=C2	CC[C@]12CO[C@H]1CC=C2	
InChI=1S/C8H12O/c1-2-8-5-3-4-7(8)9-6-8/h3,5,7H,2,4,6H2,1H3	InChI=1S/C8H12O/c1-2-8-5-3-4-7(8)9-6-8/h3,5,7H,2,4,6H2,1H3/t7-,8-/m0/s1
