20
gdb 40717	4.78941	0.9113	0.90083	1.4978	79.89	-0.2294	0.0726	0.3021	1363.831	0.170645	-403.077015	-403.068736	-403.067792	-403.11032	32.041	
C	-0.3305755885	 1.0586191403	-0.4139537426	-0.231247
C	 1.063450666	 1.0693891054	 0.1136427787	-0.218312
N	 0.2658215412	-0.1489197031	 0.1394930706	-0.076558
C	-0.1793595748	-0.661849105	 1.419710435	 0.061672
C	-0.708451594	 0.2442492845	 2.5929054967	-0.362027
C	-1.801142607	-0.8070136854	 2.7946806531	 0.468796
C	-2.2172542161	-1.4661821064	 4.0326416457	-0.266516
O	-3.0807459886	-0.5510950891	 3.3391890368	-0.272241
C	-1.5345022179	-1.4220152304	 1.4217294786	-0.33292
H	-1.0833294845	 1.5945631994	 0.159964793	 0.114789
H	-0.5151584701	 1.0350443399	-1.4843429515	 0.118328
H	 1.9147811313	 1.0677731076	-0.5615655307	 0.117206
H	 1.226806461	 1.5958908732	 1.0527151325	 0.113729
H	 0.6213185544	-1.3057652568	 1.7963158215	 0.087618
H	-0.030659958	 0.4468631795	 3.425013614	 0.104829
H	-1.1409845763	 1.1881652041	 2.2477527179	 0.117047
H	-2.5328937419	-2.5088791825	 4.0135341608	 0.115154
H	-1.838134735	-1.1126126945	 4.9910777586	 0.113815
H	-2.2142993448	-1.0089487405	 0.6695990441	 0.118206
H	-1.5140477964	-2.5097211403	 1.3299189872	 0.108631
58.7829	97.5636	172.0364	256.2278	315.0302	344.6603	381.3451	448.396	489.4343	539.6998	674.5121	799.4811	818.6277	831.1927	867.7759	873.0813	894.5795	910.7684	974.3122	989.1661	1024.2447	1038.6763	1070.8364	1108.4211	1118.5849	1126.3201	1133.7195	1162.4422	1171.2931	1181.7694	1195.4361	1208.2534	1213.1888	1251.3323	1281.3881	1338.5291	1381.4574	1436.9673	1463.1936	1486.3305	1498.39	1520.5806	1538.9315	3055.147	3057.7956	3063.0445	3076.7351	3095.0663	3104.314	3116.1464	3119.957	3163.2376	3175.7374	3190.3759
C1CN1C1CC2(CO2)C1	C1CN1[C@H]1C[C@]2(CO2)C1	
InChI=1S/C7H11NO/c1-2-8(1)6-3-7(4-6)5-9-7/h6H,1-5H2	InChI=1S/C7H11NO/c1-2-8(1)6-3-7(4-6)5-9-7/h6H,1-5H2/t6-,7+
