12
gdb 130832	4.53029	1.15166	0.91823	2.7854	63.9	-0.2818	-0.1168	0.165	1142.4851	0.07714	-468.81107	-468.803637	-468.802692	-468.844126	25.522	
O	-0.0974193219	 0.0401876015	 0.003296309	-0.195644
C	-0.045189487	 1.2370853916	 0.0088368304	 0.067615
C	 1.3399657599	 1.9275291597	-0.002076225	 0.349099
O	 2.377780871	 1.3279142625	-0.0159419816	-0.272944
N	 1.3137273092	 3.342972909	 0.0055864108	-0.021292
C	 2.3817860914	 4.194999787	-0.0011225948	-0.064096
C	 1.8177002285	 5.4358604392	 0.0113879482	-0.062214
N	 0.4473268428	 5.302878316	 0.0249262884	-0.163215
N	 0.13794429	 4.055776675	 0.0215944634	-0.12856
H	-0.927079158	 1.8966268255	 0.0213795228	 0.155719
H	 3.393419005	 3.829484785	-0.0136318072	 0.185242
H	 2.2861847089	 6.4059797279	 0.0116447356	 0.15029
61.3873	87.3232	172.4391	183.6425	304.3238	405.2513	487.2042	560.1306	650.8141	710.2863	823.1467	832.2723	896.0933	936.9716	964.2657	1018.9812	1022.0661	1089.889	1113.371	1192.3225	1302.1466	1366.3637	1395.6024	1454.9153	1543.9351	1822.0144	1843.4247	3024.9187	3282.3087	3312.5471
O=CC(=O)N1C=CN=N1	O=CC(=O)n1ccnn1	
InChI=1S/C4H3N3O2/c8-3-4(9)7-2-1-5-6-7/h1-3H	InChI=1S/C4H3N3O2/c8-3-4(9)7-2-1-5-6-7/h1-3H
