21
gdb 89900	4.43576	1.00896	0.97137	1.1616	82.53	-0.2431	0.0776	0.3207	1290.9894	0.18288	-387.045507	-387.037252	-387.036308	-387.078276	33.072	
O	-0.0537966939	 1.4455186054	-0.0317979316	-0.433433
C	 0.0378403991	 0.0408493245	 0.0326479529	 0.148685
C	 0.2877845627	-0.6411098745	 1.4061785289	-0.336518
C	-0.8129161379	-1.6733638139	 1.0347497449	 0.384476
C	-0.4266755226	-3.1084925243	 0.5336794055	-0.311009
C	-1.4125532948	-3.7058770542	 1.5439064587	-0.033801
C	-1.0491539618	-3.270472724	 2.9344900454	-0.283396
C	-1.7755822429	-2.303712076	 2.0380911886	-0.120595
C	-1.3238588609	-0.6758580406	-0.0376355059	-0.317009
H	 0.8337833593	 1.8099435383	 0.0449562995	 0.279985
H	 0.7293681198	-0.3468538654	-0.7295417377	 0.065119
H	 1.2919422755	-1.0140192909	 1.6265833462	 0.087274
H	-0.042414888	 0.0175994652	 2.215831735	 0.103042
H	-0.7199032817	-3.2708633754	-0.5069223565	 0.101232
H	 0.6207185699	-3.4095141883	 0.6537127299	 0.089201
H	-2.0633100895	-4.5522034433	 1.3613192285	 0.083068
H	-1.6484930681	-3.7007447815	 3.7307170207	 0.108208
H	-0.0092781936	-3.0981722197	 3.2045074091	 0.103018
H	-2.7452111491	-1.8963756327	 2.3028764104	 0.078596
H	-2.0992683711	-0.0188985126	 0.3700847725	 0.108329
H	-1.6570718504	-1.0708336961	-1.000823745	 0.095525
75.4504	119.0246	233.8771	267.8549	328.3466	332.163	377.4996	425.2234	476.9116	517.2452	683.3284	749.6636	787.2308	821.4872	843.0222	855.7027	900.2226	932.11	946.1857	969.1058	982.8182	990.117	1030.216	1051.9239	1060.6917	1076.2734	1083.5445	1134.3747	1152.7808	1169.8912	1183.8877	1215.3301	1223.474	1236.1992	1251.2959	1263.325	1281.9284	1318.1145	1327.3748	1363.5436	1427.8019	1463.6696	1478.1636	1491.9246	1496.2098	2989.59	3029.1551	3043.6696	3050.6353	3091.6373	3102.0589	3104.4387	3106.5177	3166.4456	3182.0894	3198.3376	3814.0889
OC1CC2(CC3CC23)C1	O[C@H]1C[C@]2(C[C@H]3C[C@@H]23)C1	
InChI=1S/C8H12O/c9-6-3-8(4-6)2-5-1-7(5)8/h5-7,9H,1-4H2	InChI=1S/C8H12O/c9-6-3-8(4-6)2-5-1-7(5)8/h5-7,9H,1-4H2/t5-,6-,7-,8+/m1/s1
