19
gdb 9352	7.62721	0.79667	0.73453	2.4093	70.25	-0.2475	0.0684	0.3159	1578.1656	0.163924	-402.251177	-402.241039	-402.240095	-402.287717	33.665	
C	-0.1082935208	 1.4449290753	 0.0892328497	-0.382917
C	 0.0881543378	-0.0706908322	-0.0031365252	-0.189343
C	 0.7073723275	-0.482236355	-1.3293164182	-0.03353
O	 0.8500154358	-1.9105712135	-1.320380019	-0.281146
C	 1.3991119729	-2.4428296548	-2.4433059794	 0.516772
O	 1.7565330306	-1.7974593686	-3.4048712238	-0.414468
N	 1.4806200924	-3.7945048583	-2.3144298749	-0.357407
C	 2.0259499363	-4.6404476359	-3.3525700434	-0.328388
H	 0.8447739178	 1.9770725153	-0.0024189393	 0.120241
H	-0.7691550814	 1.8106550047	-0.7041318688	 0.12022
H	-0.5539828745	 1.7241115291	 1.0480730068	 0.118134
H	 0.7318864084	-0.4195068025	 0.8127528312	 0.105669
H	-0.8727432811	-0.5849579369	 0.1149361811	 0.105672
H	 0.079104435	-0.185422146	-2.1764563092	 0.116044
H	 1.689846153	-0.0201345614	-1.4759632499	 0.116334
H	 1.1447064956	-4.1959531476	-1.4556007498	 0.250975
H	 2.3223551341	-3.9932207464	-4.1788658656	 0.169712
H	 2.9059261343	-5.1924627894	-3.0022675541	 0.123701
H	 1.2844171064	-5.3613486858	-3.7161277385	 0.123725
39.2952	58.8453	75.534	114.4551	125.2328	173.4121	231.1324	264.2277	333.5206	357.8989	461.6544	547.5635	716.9703	759.6478	780.0969	892.2459	908.8696	949.2136	1023.9941	1058.061	1145.3219	1159.7968	1173.586	1179.8386	1191.6919	1251.3275	1270.235	1311.5993	1335.5491	1410.9651	1419.8268	1446.2318	1492.1615	1498.7446	1499.4688	1499.9426	1507.3224	1523.7691	1570.2672	1815.6766	3022.4416	3033.4646	3033.758	3042.8153	3061.9643	3070.9372	3085.3598	3104.3605	3110.813	3152.017	3661.3361
CCCOC(=O)NC	CCCOC(=O)NC	
InChI=1S/C5H11NO2/c1-3-4-8-5(7)6-2/h3-4H2,1-2H3,(H,6,7)	InChI=1S/C5H11NO2/c1-3-4-8-5(7)6-2/h3-4H2,1-2H3,(H,6,7)
