15
gdb 49037	2.72558	1.39214	1.11883	2.4908	74.27	-0.2449	-0.0474	0.1975	1089.8231	0.109992	-420.552077	-420.543857	-420.542913	-420.585049	30.257	
O	-0.3059731787	 0.3508863651	-0.6167439017	-0.266712
C	 0.0752349221	 1.1401772094	 0.2144266339	 0.080181
C	 1.3032914865	 1.9454281326	 0.0729460783	 0.33218
O	 1.6775547915	 2.8721543082	 1.0775881292	-0.31594
C	 2.0918790924	 3.8315134584	 0.0605075238	-0.111804
C	 1.7799005016	 2.8450239497	-1.0614403912	-0.175504
C	 2.4832287952	 1.5298613089	-0.8055667231	-0.296377
C	 3.8138533591	 1.4374723494	-0.2841687293	 0.342267
C	 4.9326043345	 1.3656295269	 0.1502603728	-0.422818
H	-0.4809621224	 1.3344237976	 1.1561543433	 0.098448
H	 1.4322452291	 4.7040543827	 0.0699656095	 0.124474
H	 3.1361608362	 4.1331288095	 0.1825020351	 0.132237
H	 1.2894198681	 3.0622757366	-2.0003510486	 0.128136
H	 2.185398252	 0.7583342593	-1.5113597588	 0.148952
H	 5.9194225628	 1.2923855256	 0.5357171568	 0.202282
99.2702	132.7706	146.4213	193.4191	224.554	350.9485	360.7227	487.3086	559.7929	605.9297	619.0308	664.1821	712.0076	748.5764	807.0988	885.4848	954.4518	962.9587	991.4468	1002.1743	1057.861	1080.069	1095.7633	1159.879	1172.7257	1232.0758	1312.6997	1333.6968	1406.6323	1431.3559	1506.3366	1803.1954	2239.3082	2912.5001	3050.914	3108.5648	3153.5056	3212.6066	3502.8418
O=CC12OCC1C2C#C	O=C[C@]12OC[C@H]1[C@H]2C#C	
InChI=1S/C7H6O2/c1-2-5-6-3-9-7(5,6)4-8/h1,4-6H,3H2	InChI=1S/C7H6O2/c1-2-5-6-3-9-7(5,6)4-8/h1,4-6H,3H2/t5-,6+,7-/m1/s1
