19
gdb 72849	3.06032	1.22849	1.04476	4.9915	80.13	-0.2437	0.0197	0.2634	1198.8984	0.159929	-382.053098	-382.044676	-382.043732	-382.086233	32.269	
C	-0.6644895842	 1.5454832266	 0.0769835458	-0.467431
C	-0.089677333	 0.1499724467	 0.0284095369	 0.367805
C	-1.0919018863	-1.0530278171	 0.0957317853	-0.279034
C	-0.325351537	-1.6232293771	 1.3283313189	-0.235465
C	 0.7529949867	-0.5316029983	 1.1659345124	-0.092158
C	 1.7983730943	-0.8613014311	 0.054624152	-0.131515
N	 1.0484041409	-0.0177471895	-0.9039599167	-0.348939
C	 3.1732717852	-0.4111737573	 0.2888360023	 0.296518
N	 4.2557009765	-0.0644150828	 0.4988627488	-0.326665
H	 0.1302704362	 2.2871860836	 0.1928087776	 0.132441
H	-1.204314417	 1.7702519654	-0.8511295177	 0.119959
H	-1.3721132186	 1.6502189064	 0.9062730724	 0.115187
H	-2.1283189539	-0.7720698511	 0.2978877472	 0.108135
H	-1.0794405406	-1.6854649101	-0.796787297	 0.096451
H	-0.8879035235	-1.5088831592	 2.2578295834	 0.113701
H	 0.0211049433	-2.6586428879	 1.2660761292	 0.104631
H	 1.1296499829	-0.0094627321	 2.0438226215	 0.095754
H	 1.8321712437	-1.9340189256	-0.1804027043	 0.11096
H	 0.8495625045	-0.4457036893	-1.803049048	 0.219668
62.3553	152.6859	180.6646	220.7596	271.2644	327.261	365.0317	392.9514	485.4818	549.8404	604.5463	654.3502	729.5552	787.387	848.3922	883.6459	903.4856	932.8555	951.5328	973.3886	998.4447	1010.5967	1055.5237	1112.5183	1127.7208	1170.9231	1185.7343	1213.8293	1239.507	1257.3233	1273.3668	1297.1607	1311.2281	1351.5424	1397.4517	1411.7398	1474.1768	1483.763	1490.567	1491.8126	2354.7331	3005.7819	3026.882	3052.2682	3059.5906	3090.5828	3098.2189	3115.927	3119.4331	3130.8912	3514.0011
CC12CCC1C(N2)C#N	C[C@]12CC[C@H]1[C@@H](N2)C#N	
InChI=1S/C7H10N2/c1-7-3-2-5(7)6(4-8)9-7/h5-6,9H,2-3H2,1H3	InChI=1S/C7H10N2/c1-7-3-2-5(7)6(4-8)9-7/h5-6,9H,2-3H2,1H3/t5-,6-,7-/m0/s1
