16
gdb 34414	2.83354	1.54352	1.30511	3.5918	68.59	-0.2744	-0.0005	0.2738	995.8331	0.12569	-437.881484	-437.87412	-437.873175	-437.913429	27.956	
N	-0.1343950017	-1.1832559902	 0.1459793424	-0.335214
C	-0.0787924576	-0.0304329624	 0.0840862373	 0.244291
C	 0.0120866949	 1.4229361476	-0.0035516895	 0.25232
C	-0.7249864105	 2.0506459661	-1.1883559834	-0.275806
C	 0.072700529	 3.3475514808	-1.4008658451	-0.103548
O	 1.4293783455	 3.0071185919	-1.1000064223	-0.254166
C	 1.4314323059	 2.0903256324	-0.0410129583	 0.031546
C	 1.0486130863	 2.6272926044	 1.3550152792	-0.117976
O	-0.2865017653	 2.0694695387	 1.252406462	-0.318811
H	-0.648356572	 1.3955680931	-2.0606587124	 0.134292
H	-1.7784629594	 2.2185660327	-0.9563504153	 0.137048
H	 0.0453679108	 3.7179692154	-2.4271180206	 0.127035
H	-0.288393279	 4.1389869123	-0.7306116837	 0.115965
H	 2.3214268941	 1.4659417072	-0.1106501316	 0.118912
H	 1.6064460545	 2.1831905074	 2.1865915413	 0.123341
H	 1.0365473046	 3.7173650025	 1.4515269	 0.120769
111.2654	152.5697	197.4033	233.5369	361.8724	401.7893	501.202	538.2412	565.9143	652.8571	665.355	829.4201	841.3374	897.8273	926.7927	971.8101	1004.6456	1009.5031	1040.7609	1083.331	1117.4024	1147.5259	1158.5875	1182.4438	1217.1204	1234.0987	1256.8924	1322.2227	1334.902	1359.4962	1395.6543	1466.5556	1509.6224	1521.7606	2354.7402	3019.1477	3038.5106	3071.9246	3094.7357	3117.3061	3128.7903	3134.5153
N#CC12CCOC1CO2	N#C[C@]12CCO[C@H]1CO2	
InChI=1S/C6H7NO2/c7-4-6-1-2-8-5(6)3-9-6/h5H,1-3H2	InChI=1S/C6H7NO2/c7-4-6-1-2-8-5(6)3-9-6/h5H,1-3H2/t5-,6+/m0/s1
