14
gdb 65849	2.71064	1.37459	1.26168	3.3902	62.21	-0.2978	-0.0215	0.2763	1035.0921	0.099435	-473.869848	-473.861758	-473.860813	-473.902767	29.211	
C	 0.0265363254	 1.5413867537	 0.0026415147	-0.425188
C	 0.0582796992	 0.026729068	-0.0081427021	 0.289655
O	 0.7467590133	-0.4400716762	-1.1457519352	-0.254157
C	 1.39802231	-1.6442602275	-0.7697965731	-0.241012
C	 1.5520454068	-1.5274883915	 0.7406132783	 0.408348
O	 2.2027747186	-2.1762173701	 1.495130579	-0.300457
O	 0.7691442966	-0.468957716	 1.1290535885	-0.231359
C	-1.3188535415	-0.552113527	 0.0237555771	 0.282434
N	-2.3842061337	-0.9973489072	 0.0221661498	-0.319372
H	 1.0541867107	 1.909464283	 0.0118767305	 0.149296
H	-0.4831075238	 1.9010662359	-0.8936926795	 0.15876
H	-0.503198248	 1.9007072724	 0.8867786478	 0.159164
H	 0.8042126986	-2.5342674625	-1.0190051478	 0.158873
H	 2.3674566677	-1.704765835	-1.2666267779	 0.165014
84.5238	127.2386	194.7348	206.9736	230.1859	309.944	420.7551	480.5022	517.1894	556.0837	591.5576	638.273	687.2104	806.4103	861.656	902.9648	948.4236	1026.5717	1070.5428	1109.921	1192.3639	1194.1954	1223.3608	1252.3029	1346.3678	1411.5131	1476.3773	1477.9683	1489.374	1922.6073	2360.2393	3027.5267	3064.5796	3128.6011	3152.0884	3155.9054
CC1(OCC(=O)O1)C#N	C[C@]1(OCC(=O)O1)C#N	
InChI=1S/C5H5NO3/c1-5(3-6)8-2-4(7)9-5/h2H2,1H3	InChI=1S/C5H5NO3/c1-5(3-6)8-2-4(7)9-5/h2H2,1H3/t5-/m1/s1
