18
gdb 17529	3.72095	1.83864	1.59629	1.8716	71.81	-0.2572	0.0804	0.3376	878.5673	0.153765	-347.753644	-347.746361	-347.745417	-347.784857	28.573	
C	 0.0100062459	 1.5661097813	 0.099278458	-0.41849
C	 0.1105630587	 0.0543315855	 0.091067818	-0.002932
C	 1.3499981365	-0.7423411982	-0.2060360622	-0.068419
C	 2.6124429815	-0.0683275692	 0.3567249032	-0.336639
C	 1.9566033056	-0.1376038248	 1.7494314754	 0.466715
C	 2.6024250605	-0.3506458546	 3.0425685473	-0.271517
O	 1.9779571334	 0.9008814599	 2.7212525334	-0.276659
C	 0.7076201215	-0.781065324	 1.1997660306	-0.16685
H	 0.874579046	 2.0394025288	 0.5686972488	 0.140656
H	-0.0805108943	 1.9552526962	-0.9211177311	 0.111811
H	-0.8758185587	 1.8856867619	 0.6582099252	 0.119915
H	-0.7752210887	-0.428427675	-0.3193776799	 0.086258
H	 1.3612421821	-1.5337003946	-0.9448426866	 0.087944
H	 3.504445805	-0.6959584438	 0.2855973807	 0.10859
H	 2.8503314567	 0.9298235043	-0.021935731	 0.109355
H	 2.1003472494	-0.9370260379	 3.8121290692	 0.113084
H	 3.6896760197	-0.3274616267	 3.1153841863	 0.111725
H	 0.1537108689	-1.578002379	 1.6821750747	 0.085454
111.5126	186.1939	221.8839	301.1644	327.4108	373.952	468.7689	519.5911	623.3067	718.6355	790.3125	800.872	850.5381	872.8616	911.465	932.2131	975.7361	986.5723	1010.1767	1055.082	1067.1931	1083.5358	1122.4492	1133.9247	1153.6435	1169.728	1188.7648	1211.8981	1245.3492	1292.9586	1324.3279	1417.3015	1436.3171	1445.6148	1481.5887	1498.5105	1505.2933	1538.3303	3035.5509	3055.977	3072.4443	3092.4379	3105.6223	3115.7442	3136.648	3156.9899	3176.1355	3192.3813
CC1C2CC3(CO3)C12	C[C@H]1[C@H]2C[C@]3(CO3)[C@@H]12	
InChI=1S/C7H10O/c1-4-5-2-7(3-8-7)6(4)5/h4-6H,2-3H2,1H3	InChI=1S/C7H10O/c1-4-5-2-7(3-8-7)6(4)5/h4-6H,2-3H2,1H3/t4-,5+,6-,7-/m0/s1
