20
gdb 42338	3.92561	0.96625	0.90399	2.8223	81.66	-0.244	0.0011	0.245	1378.482	0.171418	-403.137027	-403.128173	-403.127229	-403.172468	32.167	
O	-0.5483866178	 0.1563363479	 0.7397445367	-0.351054
C	-0.3626143793	 1.3474113798	 0.6018514551	 0.354309
C	 1.0084266375	 1.9764517502	 0.6967253413	-0.063379
C	 1.8063735804	 1.6926974118	 2.0102850419	-0.215667
C	 3.0791262199	 1.4655261173	 1.1547204213	-0.213216
C	 2.1607448193	 1.2680912743	-0.0788083106	-0.22287
N	-1.4173292761	 2.2496538176	 0.4427408746	-0.080913
C	-1.6664472072	 3.0226074463	-0.7623649702	-0.234041
C	-2.5977156904	 1.9303543661	-0.3213490297	-0.217198
H	 0.9645837313	 3.046399702	 0.4819605957	 0.07156
H	 1.8206172951	 2.48361959	 2.7630880926	 0.100346
H	 1.4537415067	 0.7641617616	 2.4654851359	 0.126107
H	 3.6820231546	 2.3745952516	 1.0728361787	 0.10064
H	 3.7349658317	 0.6380972757	 1.4342578363	 0.101189
H	 1.909055289	 0.2159414629	-0.2316447738	 0.126279
H	 2.4698231052	 1.7097017035	-1.029251877	 0.093891
H	-1.9358145383	 4.0651051405	-0.6158562775	 0.12713
H	-1.041692877	 2.8269539244	-1.6309014959	 0.13083
H	-2.5859387258	 0.9933004479	-0.871286081	 0.138907
H	-3.5473465586	 2.1888986286	 0.1379060856	 0.127151
15.7143	86.9099	116.4077	179.6374	198.3222	265.2946	301.7488	397.6987	568.5916	647.6489	731.9632	755.0769	800.3152	819.044	846.9221	900.4978	937.618	949.4997	955.8192	973.9609	1032.6724	1039.4829	1046.9347	1116.8927	1126.8417	1131.1733	1146.8259	1172.8234	1176.2492	1208.7696	1248.8133	1257.5253	1259.8889	1281.041	1283.8413	1345.7168	1409.9749	1472.7705	1485.5626	1495.3477	1506.5472	1523.0298	1777.8573	3057.1258	3062.7943	3069.0268	3081.6913	3103.4947	3104.661	3117.0386	3123.2334	3132.9624	3188.6687	3207.9982
O=C(C1CCC1)N1CC1	O=C(C1CCC1)N1CC1	
InChI=1S/C7H11NO/c9-7(8-4-5-8)6-2-1-3-6/h6H,1-5H2	InChI=1S/C7H11NO/c9-7(8-4-5-8)6-2-1-3-6/h6H,1-5H2
