17
gdb 11661	3.07381	1.93197	1.53389	3.3975	68.92	-0.2456	0.0012	0.2468	896.1795	0.141861	-363.810838	-363.803195	-363.802251	-363.842987	28.477	
C	-0.0088724277	 1.537477398	-0.0238702974	-0.384072
C	-0.0211734829	 0.0056802137	 0.0606940933	-0.326916
C	-1.4101717067	-0.5574138418	-0.0150588494	 0.200508
C	-1.9066915448	-2.0439699874	 0.0465644458	-0.293659
C	-3.2074211205	-1.1839676822	 0.0377069009	-0.157072
N	-2.5334762641	-0.1791492051	 0.9714054992	-0.353939
C	-2.5182273748	-0.382482651	-1.082176696	 0.494746
O	-2.7025954831	 0.067274907	-2.1660171584	-0.323917
H	 1.0117937178	 1.9227095979	 0.0512196358	 0.112625
H	-0.433815299	 1.8762277053	-0.9732024264	 0.140988
H	-0.6038065985	 1.9744963227	 0.7827265604	 0.136317
H	 0.5657312171	-0.4249625601	-0.7602592898	 0.115496
H	 0.4576428026	-0.3299762689	 0.9897750942	 0.10339
H	-1.6976355253	-2.7145926248	-0.7935044115	 0.113368
H	-1.7118583432	-2.5246464301	 1.0103080926	 0.107258
H	-4.2410540738	-1.4960893606	 0.1679807476	 0.102827
H	-2.3359026733	-0.6739290926	 1.8488664391	 0.21205
71.7937	151.0677	185.8867	191.8989	269.0397	400.3094	467.5863	545.2053	652.6634	690.7531	771.3381	778.8227	803.6757	810.3498	891.2609	919.94	975.2453	993.2696	1036.5512	1048.6695	1093.0761	1100.3945	1134.2803	1173.4151	1199.5425	1244.9313	1283.6226	1302.792	1337.3682	1389.7285	1413.0229	1477.9713	1494.9088	1495.1134	1509.4656	1936.5674	3021.2982	3034.6359	3046.4516	3056.1149	3107.6791	3118.974	3123.3688	3152.6428	3367.0316
CCC12CC(N1)C2=O	CC[C@@]12C[C@@H](N1)C2=O	
InChI=1S/C6H9NO/c1-2-6-3-4(7-6)5(6)8/h4,7H,2-3H2,1H3	InChI=1S/C6H9NO/c1-2-6-3-4(7-6)5(6)8/h4,7H,2-3H2,1H3/t4-,6+/m1/s1
