19
gdb 86862	3.13405	1.02673	0.85101	1.8695	77.01	-0.2457	-0.0308	0.215	1356.3494	0.157931	-423.075061	-423.065968	-423.065024	-423.109854	32.961	
C	-0.0583948077	 1.57842927	 0.0488124594	-0.396495
C	 0.005712255	 0.0430645658	-0.0209266883	-0.093042
C	 0.7868001904	-0.5010373984	-1.2321434597	-0.253811
C	 2.2396139628	-0.7310443539	-0.7205397055	-0.075271
C	 2.0328996354	-1.2159224604	 0.7254298026	-0.347334
C	 0.7650043094	-0.4995777026	 1.2025595011	 0.40278
O	 0.4287646189	-0.3593577178	 2.3487019781	-0.314412
C	 2.9765186864	-1.7367918911	-1.5710587291	 0.157834
O	 3.9667922076	-1.5166332555	-2.2165553461	-0.245591
H	 0.9397120596	 2.0255266749	-0.0126769929	 0.122777
H	-0.6561733146	 1.9762017421	-0.7763491895	 0.122396
H	-0.5106693444	 1.891643337	 0.9932303224	 0.14337
H	-1.0167687462	-0.3470838619	 0.0133602732	 0.10467
H	 0.3637719949	-1.460124309	-1.5564754225	 0.106605
H	 0.7651199361	 0.1705096493	-2.0936973907	 0.119724
H	 2.8056379355	 0.2046066869	-0.7399241893	 0.102748
H	 1.8242737149	-2.2964919399	 0.7422238698	 0.13258
H	 2.8730093516	-1.0384921101	 1.399344759	 0.141876
H	 2.5064548641	-2.7515259755	-1.562331232	 0.068595
51.2532	78.7903	87.7012	216.6012	238.7703	286.0594	307.9708	360.0349	418.7455	484.2059	543.3463	634.6335	649.401	755.1436	843.0857	871.9254	897.8425	951.3104	974.0535	1014.9174	1025.106	1066.5066	1095.3966	1122.2141	1162.7979	1186.9221	1231.0542	1250.9762	1264.6952	1304.789	1322.6533	1333.8314	1351.2568	1403.4558	1426.1739	1447.2216	1490.5568	1497.833	1499.1141	1837.7702	1846.4939	2827.6876	3009.7648	3030.2968	3037.1713	3057.9946	3075.1084	3101.964	3106.2837	3119.1257	3125.631
CC1CC(CC1=O)C=O	C[C@H]1C[C@@H](CC1=O)C=O	
InChI=1S/C7H10O2/c1-5-2-6(4-8)3-7(5)9/h4-6H,2-3H2,1H3	InChI=1S/C7H10O2/c1-5-2-6(4-8)3-7(5)9/h4-6H,2-3H2,1H3/t5-,6-/m0/s1
