14
gdb 77806	2.65332	1.4196	1.09979	4.0047	64.56	-0.2616	-0.0479	0.2137	1068.4836	0.099259	-473.811881	-473.80378	-473.802835	-473.844779	29.486	
O	-0.2262601281	 1.3763833079	-0.0023943591	-0.409196
C	-0.1167354004	-0.0049732983	 0.0319507704	 0.054815
C	-0.4276755142	-0.8240683988	 1.2620803818	-0.363159
C	-1.5851158553	-0.1273807441	 1.9905868125	 0.446884
O	-1.7344578186	 0.3482361019	 3.0771808621	-0.335116
N	-2.4196226124	-0.2157384463	 0.8727946802	-0.371804
C	-1.3907044536	-0.8221248333	 0.0415860979	 0.250871
C	-1.6694539079	-1.9113741755	-0.9109994372	 0.085195
O	-2.772892811	-2.299435658	-1.198316005	-0.255164
H	 0.3794704469	 1.7518521468	 0.6463950291	 0.305989
H	 0.6816016849	-0.4236688972	-0.5852117729	 0.115227
H	 0.2042919641	-1.6231882274	 1.6247638592	 0.135823
H	-3.0271554108	 0.5331622286	 0.5636562327	 0.261492
H	-0.7526190036	-2.3450651862	-1.3705839318	 0.078144
93.5281	131.2409	181.7296	226.4673	232.8239	299.8025	409.6192	464.4216	490.9675	525.287	639.7172	708.1861	725.9031	795.004	849.7825	914.4712	943.7393	974.8314	1052.0598	1066.3433	1095.2382	1134.6254	1215.0043	1257.0218	1303.7437	1317.7878	1353.5131	1420.6672	1451.1626	1819.251	1911.3077	2877.4643	3086.5973	3220.7429	3573.4449	3806.1403
OC1C2C(=O)NC12C=O	O[C@H]1[C@H]2C(=O)N[C@@]12C=O	
InChI=1S/C5H5NO3/c7-1-5-2(3(5)8)4(9)6-5/h1-3,8H,(H,6,9)	InChI=1S/C5H5NO3/c7-1-5-2(3(5)8)4(9)6-5/h1-3,8H,(H,6,9)/t2-,3-,5+/m0/s1
