23
gdb 102549	1.9676	1.3084	0.9788	2.4253	81.3	-0.2446	0.0591	0.3037	1351.3878	0.203428	-425.406061	-425.395305	-425.394361	-425.441862	39.925	
C	-0.2032022264	 1.5100776037	-0.0593299152	-0.394712
C	-0.1240943724	-0.0115333973	-0.225380237	-0.180399
C	 0.833223144	-0.481800417	-1.3367120623	-0.035026
C	 2.2822803902	-0.0127827682	-1.0662778211	-0.067976
O	 3.2495977951	-0.6571200752	-1.8750274238	-0.431515
C	 0.7932923297	-1.9938221107	-1.5006854907	 0.428955
O	 1.4962308275	-2.6026956627	-0.4331960029	-0.486863
C	-0.4196700728	-2.6703256619	-2.0738849631	-0.347905
C	 0.8785579397	-2.6178605828	-2.8660767565	-0.326534
H	 0.750694954	 1.9388630558	 0.2627770938	 0.12239
H	-0.4849687077	 1.9982165247	-0.9996061116	 0.112151
H	-0.952454277	 1.7808121099	 0.691169625	 0.111623
H	 0.1845197987	-0.4749750958	 0.7195296739	 0.108171
H	-1.1262148605	-0.4004880745	-0.4419652034	 0.092009
H	 0.503490663	-0.0521015384	-2.2917877419	 0.071021
H	 2.3709300642	 1.0559064497	-1.281307147	 0.10483
H	 2.5072002119	-0.1524914936	 0.001677548	 0.094198
H	 3.2636498392	-1.5771782554	-1.5879292536	 0.287424
H	 1.3227660347	-3.5487191039	-0.4430327735	 0.283826
H	-0.7168748129	-3.6273821848	-1.6543296366	 0.105449
H	-1.2548856837	-2.0589265805	-2.3996344354	 0.119214
H	 0.9373372911	-1.9707576862	-3.7337824657	 0.125596
H	 1.4422908605	-3.5413226547	-2.9615878996	 0.104072
59.4263	91.0098	110.0789	164.1947	187.1581	204.6677	236.2842	282.0028	308.7417	320.9126	406.4357	459.2357	481.7948	502.8356	556.6155	720.8381	756.7008	784.595	862.5781	884.9935	930.3425	954.7364	972.2745	982.9443	993.0734	1048.8092	1057.0147	1064.9996	1082.6163	1128.4367	1152.2194	1172.8427	1181.7434	1203.2834	1266.5477	1300.8705	1336.6315	1338.0483	1374.4107	1402.1097	1416.1093	1430.0813	1439.0166	1460.7877	1490.0873	1498.9641	1502.2524	1506.6884	1510.3614	2991.3266	3021.9004	3028.7502	3031.5242	3062.2256	3084.8565	3096.8061	3107.5088	3117.9313	3125.8298	3198.4	3217.3986	3801.417	3829.1004
CCC(CO)C1(O)CC1	CC[C@@H](CO)C1(O)CC1	
InChI=1S/C7H14O2/c1-2-6(5-8)7(9)3-4-7/h6,8-9H,2-5H2,1H3	InChI=1S/C7H14O2/c1-2-6(5-8)7(9)3-4-7/h6,8-9H,2-5H2,1H3/t6-/m0/s1
