23
gdb 101127	2.82738	1.12516	1.01711	1.0538	86.52	-0.2435	0.0852	0.3287	1336.961	0.204618	-388.256197	-388.246401	-388.245456	-388.291105	36.58	
C	-0.2634412095	 1.3595311832	 0.0254555296	-0.22951
O	 0.0107382899	-0.0185216011	-0.0411535394	-0.250677
C	 0.7478521958	-0.5403765089	 1.0623328948	 0.001639
C	-0.1065826701	-0.6255784378	 2.3340811004	-0.406093
C	 1.2599428099	-1.8894706307	 0.6463992406	 0.422398
C	 2.5361485904	-2.4753645706	 1.1822221253	-0.342006
C	 2.4045240838	-2.2555388336	-0.3015852578	-0.111137
C	 1.5591776429	-3.3690643593	-0.9277876477	-0.218562
C	 0.3891804504	-3.0067948394	 0.0463316158	-0.294257
H	 0.654785604	 1.9505214701	 0.1748279633	 0.099307
H	-0.7102971929	 1.6452111138	-0.93061242	 0.124427
H	-0.970366843	 1.6187112145	 0.827407639	 0.104575
H	 1.6129857512	 0.1184335922	 1.2558175586	 0.055548
H	 0.4794813694	-1.0538023216	 3.1527647289	 0.119634
H	-0.459209335	 0.3588223743	 2.6543578394	 0.111952
H	-0.9789733895	-1.2634319262	 2.1615519119	 0.125162
H	 3.1913690118	-1.7777648094	 1.6961168094	 0.105394
H	 2.551362491	-3.4827781387	 1.5945336389	 0.099411
H	 3.0773348674	-1.5947059842	-0.8356856972	 0.08259
H	 1.2989206491	-3.1754885447	-1.9704526738	 0.104493
H	 1.9700566395	-4.3815632027	-0.8520520763	 0.091161
H	 0.0602292115	-3.7885423657	 0.7393031264	 0.086452
H	-0.478326908	-2.6104011733	-0.48323102	 0.118099
66.9356	76.1445	121.075	179.3018	200.6956	239.7041	264.5468	316.4477	346.5555	426.7712	482.5683	493.622	666.0737	738.3053	788.5305	839.0766	857.511	879.1638	929.8418	949.2106	970.745	996.8489	1019.5947	1029.7762	1074.0589	1087.202	1106.4482	1115.2771	1147.101	1152.8702	1182.5184	1214.497	1223.8794	1240.3456	1245.4735	1269.7014	1312.9988	1345.2761	1361.7764	1398.6477	1425.8374	1476.4554	1479.7315	1482.5387	1486.7106	1493.545	1503.4319	1511.4732	1514.4564	2943.942	2971.0377	3018.9425	3039.1355	3041.7742	3048.3273	3095.7675	3102.1698	3104.9332	3113.4701	3116.1507	3126.1393	3175.2874	3188.5584
COC(C)C12CC1CC2	CO[C@@H](C)[C@]12C[C@H]1CC2	
InChI=1S/C8H14O/c1-6(9-2)8-4-3-7(8)5-8/h6-7H,3-5H2,1-2H3	InChI=1S/C8H14O/c1-6(9-2)8-4-3-7(8)5-8/h6-7H,3-5H2,1-2H3/t6-,7+,8-/m0/s1
