21
gdb 102110	2.18053	1.21854	0.90321	1.9776	80.5	-0.2393	-0.0295	0.2098	1368.9688	0.179365	-424.208322	-424.197912	-424.196968	-424.244609	36.734	
C	 0.367358163	 1.0209912779	-4.7954538041	-0.245831
O	-0.0276204213	-0.2295494041	-4.2650841019	-0.237257
C	-0.3091056903	-0.1874885245	-2.8804989381	 0.010688
C	-1.6674726502	 0.4815268259	-2.6477153603	 0.133511
O	-1.9899693497	 1.0316781907	-1.628289731	-0.244888
C	-0.3851075082	-1.5939301017	-2.2999104523	-0.034431
C	-0.6829472769	-2.7969392977	-3.1631813041	-0.293035
C	 0.6674575148	-2.6641273897	-2.499967071	-0.008441
C	 1.9347953163	-2.4603257802	-3.3016424583	-0.416732
H	-0.4090027128	 1.7897326926	-4.666747046	 0.117407
H	 1.2921541328	 1.3837613929	-4.3233297796	 0.11739
H	 0.5433273405	 0.8756343087	-5.8633571918	 0.134732
H	 0.4535166738	 0.397603426	-2.3414785733	 0.090087
H	-2.3594559106	 0.3770531249	-3.5156674909	 0.087209
H	-0.841788051	-1.5769366679	-1.3142844461	 0.104574
H	-1.3860176482	-3.5382269113	-2.7994943007	 0.109033
H	-0.7162938417	-2.6252612637	-4.2330253618	 0.129746
H	 0.8071630512	-3.289910477	-1.6211069117	 0.085448
H	 1.7485444906	-1.8588884034	-4.1922929241	 0.136576
H	 2.7034257377	-1.9554451418	-2.7048808132	 0.110872
H	 2.3460882603	-3.4256219068	-3.6171120296	 0.113341
50.7311	56.208	99.8884	169.7066	178.4977	197.3873	226.0483	245.3902	314.4346	352.1786	376.6527	495.909	523.0747	615.5784	760.2536	788.1047	853.5842	923.1342	930.4009	990.32	1005.0241	1060.8725	1075.9383	1085.1655	1107.0036	1135.142	1151.5796	1165.0348	1182.6265	1202.9906	1227.1	1250.7935	1277.2027	1344.6852	1385.0627	1394.4548	1411.7317	1424.0521	1478.9632	1487.739	1490.601	1501.5913	1506.3501	1509.1809	1836.6237	2868.4869	2976.254	2985.9319	3031.1358	3035.0864	3082.8955	3121.5553	3124.3354	3137.258	3145.7684	3151.1831	3227.1326
COC(C=O)C1CC1C	CO[C@@H](C=O)[C@H]1C[C@H]1C	
InChI=1S/C7H12O2/c1-5-3-6(5)7(4-8)9-2/h4-7H,3H2,1-2H3	InChI=1S/C7H12O2/c1-5-3-6(5)7(4-8)9-2/h4-7H,3H2,1-2H3/t5-,6+,7+/m1/s1
