19
gdb 125918	4.23627	1.15966	0.96091	2.583	84.7	-0.2243	0.0379	0.2622	1270.5709	0.160329	-382.073389	-382.064853	-382.063909	-382.107032	31.591	
C	-0.4676437895	 1.5865865399	-0.2104336907	-0.401627
C	 0.0596713667	 0.183785372	 0.024190502	 0.057424
C	 0.8021627698	-0.5552590586	-1.1706901729	-0.401124
C	 2.0102471888	-0.5838887939	-0.244105848	 0.393132
C	 3.2400426267	-0.9325492871	 0.2775792279	-0.476358
C	 3.1906725058	-0.3909019754	 1.5999890944	 0.361768
C	 4.2721067796	-0.4314830678	 2.6356893884	-0.485909
N	 2.0212829723	 0.2185583595	 1.8767304394	-0.369456
N	 1.3621744619	 0.0893248681	 0.7156880393	 0.085081
H	 0.2861928579	 2.2097651663	-0.7006758342	 0.129563
H	-1.3599733774	 1.552238004	-0.8437704019	 0.124767
H	-0.7414233623	 2.0594224848	 0.7373735587	 0.141368
H	-0.6974489849	-0.4483557758	 0.5003609687	 0.105371
H	 0.3797724951	-1.5280323895	-1.433135044	 0.127336
H	 0.9040020239	 0.0503591934	-2.0751371856	 0.123786
H	 4.0558122703	-1.4712068086	-0.1754832678	 0.097953
H	 5.1399538158	 0.1681747083	 2.3378235433	 0.126003
H	 3.8946382823	-0.0368220772	 3.5813970019	 0.137489
H	 4.6270823373	-1.4541683727	 2.8027643112	 0.123431
57.0467	85.3241	169.9258	210.6232	252.8287	285.3812	333.4954	418.1844	512.8625	586.1354	665.7509	675.9824	733.0895	782.654	791.1898	871.3052	915.9206	972.7815	1014.2819	1029.0997	1061.0549	1065.8357	1096.1521	1105.3298	1164.9926	1179.704	1218.4897	1252.6467	1318.1274	1357.8068	1375.789	1401.5615	1410.6047	1457.856	1474.2134	1483.5196	1486.6587	1492.6346	1496.8062	1517.028	1573.9238	3031.9898	3039.4694	3053.3353	3065.2261	3082.6528	3113.703	3115.4991	3120.6578	3130.6937	3268.6327
CC1CC2=CC(C)=NN12	C[C@H]1Cc2cc(C)nn12	
InChI=1S/C7H10N2/c1-5-3-7-4-6(2)9(7)8-5/h3,6H,4H2,1-2H3	InChI=1S/C7H10N2/c1-5-3-7-4-6(2)9(7)8-5/h3,6H,4H2,1-2H3/t6-/m0/s1
