16
gdb 71328	3.70804	1.53605	1.36404	3.7027	68.	-0.2349	-0.0109	0.224	937.5058	0.124854	-437.848313	-437.841171	-437.840226	-437.879698	28.121	
O	 0.0129872561	 1.3981107016	 0.0155434696	-0.476137
C	 0.0071842492	 0.0072336794	 0.0241722313	 0.383634
C	 0.4480275722	-0.7420448318	-1.2703018522	-0.303777
C	-0.7449494626	-1.7529483798	-1.1184765805	-0.198181
C	-1.3160414609	-0.8154644731	-0.0107041206	-0.039638
N	-0.758859584	-1.7340609739	 1.0528826137	-0.171635
C	 0.3602728655	-0.7540233278	 1.3316377299	-0.254158
C	-0.3496155267	-2.6757831738	 0.0321281967	 0.409626
O	 0.1876749635	-3.735702723	 0.1437048022	-0.315685
H	 0.9120881839	 1.7056382798	-0.1460722836	 0.285836
H	 0.2578178058	-0.0855844109	-2.1226329602	 0.125287
H	 1.4583423854	-1.1556405329	-1.3375212855	 0.113924
H	-1.235221044	-2.1208848341	-2.0180686417	 0.097871
H	-2.3305508809	-0.4388896662	 0.086317667	 0.095832
H	 1.3447139933	-1.2194828752	 1.4385685813	 0.121166
H	 0.1288286043	-0.1572223184	 2.2180252227	 0.126034
135.1554	162.6654	229.8249	298.5024	397.5097	410.4445	467.5117	570.8722	603.0836	687.2343	770.2965	798.8746	857.633	875.3545	903.3318	916.5088	948.2641	971.5609	1003.5786	1015.5798	1062.439	1090.6891	1147.7679	1160.2162	1171.2149	1191.6817	1212.1824	1237.9103	1240.4809	1276.5629	1308.8142	1379.6326	1478.1144	1499.1713	1900.1119	3049.6698	3055.923	3111.6109	3119.9329	3128.7358	3160.0641	3797.7065
OC12CC3C1N(C2)C3=O	O[C@]12C[C@@H]3[C@H]1N(C2)C3=O	
InChI=1S/C6H7NO2/c8-5-3-1-6(9)2-7(5)4(3)6/h3-4,9H,1-2H2	InChI=1S/C6H7NO2/c8-5-3-1-6(9)2-7(5)4(3)6/h3-4,9H,1-2H2/t3-,4-,6+/m1/s1
