20
gdb 65519	3.66636	1.1797	1.15433	2.9768	78.42	-0.2341	0.0637	0.2977	1159.4965	0.17156	-403.087381	-403.079024	-403.07808	-403.120186	32.877	
O	-0.0469174992	 1.3749825701	-0.3457662322	-0.490782
C	-0.0755941523	-0.0197565561	-0.1107184917	 0.372392
C	 0.3285696549	-0.5296220551	 1.327829802	-0.310374
C	-1.019497874	-1.2522457385	 1.4188571842	-0.021059
C	-2.1278183133	-0.2493501281	 1.327542529	-0.313149
C	-1.4450885006	-0.690768131	 0.0569280651	-0.089562
C	 0.7477177521	-0.6748178871	-1.2009293172	-0.000706
C	 0.7323932945	-0.1479195055	-2.5858403892	-0.250299
N	 1.9355067801	-0.0028734711	-1.7403195805	-0.342402
H	-0.7462936801	 1.7822095461	 0.1735726441	 0.283433
H	 1.2002786966	-1.1865692298	 1.3073066087	 0.116087
H	 0.4948438615	 0.255632678	 2.0724687259	 0.093847
H	-1.1747939493	-2.2506676857	 1.8064016308	 0.090618
H	-3.1354436412	-0.6321599812	 1.4526893364	 0.119098
H	-1.9926756188	 0.7524647887	 1.7344720921	 0.094682
H	-1.9985183935	-1.1671823502	-0.7440881333	 0.088861
H	 0.8727498293	-1.7458090031	-1.0547393523	 0.087227
H	 0.8406998365	-0.8279355589	-3.4261590145	 0.109549
H	 0.1364310795	 0.7387794649	-2.7754889402	 0.119853
H	 1.9504501773	 0.9482222536	-1.3771037372	 0.242686
83.558	136.7872	187.9558	221.8125	287.0926	334.542	360.0027	424.5475	487.5266	528.2222	688.3877	741.4536	786.9647	832.8293	846.0716	872.0239	912.6124	945.3303	955.3136	969.92	986.1306	1006.203	1019.641	1061.9712	1082.9331	1089.5995	1100.435	1106.8485	1135.5802	1148.2771	1166.7352	1201.4776	1238.2837	1245.9024	1279.4167	1292.221	1308.7324	1340.8704	1363.6651	1441.8979	1481.4527	1500.1361	1501.4473	3048.139	3087.9255	3113.7658	3116.1795	3127.6302	3176.117	3189.2124	3202.3197	3208.5609	3497.7534	3835.8525
OC1(CC2CC12)C1CN1	O[C@]1(C[C@H]2C[C@@H]12)[C@H]1CN1	
InChI=1S/C7H11NO/c9-7(6-3-8-6)2-4-1-5(4)7/h4-6,8-9H,1-3H2	InChI=1S/C7H11NO/c9-7(6-3-8-6)2-4-1-5(4)7/h4-6,8-9H,1-3H2/t4-,5-,6-,7+/m1/s1
