18
gdb 38790	2.71468	2.40528	1.9642	0.469	72.41	-0.2183	0.0601	0.2784	802.0832	0.151967	-401.897453	-401.891784	-401.89084	-401.927111	24.946	
C	-0.0571100874	 1.5562354034	 0.0371458774	-0.25528
C	 1.4981127964	 1.5344223208	-0.0285977263	 0.002069
C	 2.1128789093	 1.785405305	-1.411603842	-0.239727
C	 1.8007659698	 0.5139676454	-2.1904839844	 0.103924
O	 0.3782898224	 0.37606718	-2.4885780665	-0.308131
C	 0.2082416059	-0.6013423986	-1.4437103172	 0.087858
C	 0.0032298388	 0.0208372605	-0.0324728163	-0.001441
N	 1.5059454	 0.0274103948	 0.2031850605	-0.14806
C	 1.7210174576	-0.6150578199	-1.1366245581	-0.069283
H	-0.4381502467	 1.9173232187	 0.9943147604	 0.104901
H	-0.574746442	 2.0605273695	-0.7803291213	 0.11632
H	 2.0092892927	 2.09100595	 0.7601987417	 0.076869
H	 1.7102138998	 2.6777272832	-1.9003826554	 0.115617
H	 3.2007584184	 1.9019852316	-1.3327659451	 0.105982
H	 2.4032356315	 0.3673626081	-3.0914608367	 0.079055
H	-0.4159017564	-1.4412726483	-1.7551600498	 0.078778
H	-0.6061800117	-0.5674384575	 0.6595095788	 0.071278
H	 2.3957249318	-1.4697165266	-1.1687097896	 0.079271
252.8654	323.5278	391.699	490.2516	621.7041	660.7499	677.2524	736.6165	805.5323	823.7341	837.4136	862.8837	891.7728	907.6327	923.4553	950.2608	976.1886	995.3918	1016.8525	1025.4875	1044.4061	1072.6735	1085.9955	1133.0962	1154.7965	1201.4665	1206.121	1215.8794	1242.4108	1258.4612	1267.5977	1291.2462	1298.0911	1323.9603	1330.5255	1353.8472	1363.4386	1461.7564	1473.5092	3035.9688	3060.2278	3068.9361	3072.9753	3080.905	3089.6948	3095.1609	3116.6242	3134.729
C1C2CC3OC4C1N2C34	C1[C@@H]2C[C@@H]3O[C@@H]4[C@H]1N2[C@H]34	
InChI=1S/C7H9NO/c1-3-2-5-6-7(9-5)4(1)8(3)6/h3-7H,1-2H2	InChI=1S/C7H9NO/c1-3-2-5-6-7(9-5)4(1)8(3)6/h3-7H,1-2H2/t3-,4+,5+,6-,7-/m1/s1
