21
gdb 111009	2.59385	1.4806	1.17205	1.9169	78.95	-0.2324	0.0887	0.3211	1150.2238	0.182154	-424.198533	-424.189815	-424.188871	-424.231639	33.655	
C	 0.266589876	 1.3571935072	 0.1530670762	-0.240169
O	-0.2437282484	 0.1004411258	-0.2384415527	-0.261179
C	 0.4981287722	-0.5150374182	-1.2543781758	 0.128178
C	 1.8039971025	-1.2701150917	-0.8108971791	-0.128958
C	 0.8539041913	-2.3766305445	-0.2586070591	-0.278443
C	 0.0327795597	-1.9761358189	-1.5163957792	 0.41672
C	-1.3919546758	-2.3629569021	-1.7808302326	-0.501356
O	 0.8973747698	-2.3619875625	-2.6037518482	-0.319533
C	 2.1892961273	-1.8843103799	-2.1578410901	-0.08205
H	 1.2738872663	 1.2775208494	 0.5867369027	 0.108848
H	 0.3105233997	 2.0558795811	-0.6964017573	 0.108163
H	-0.4120265553	 1.7605940662	 0.9082596622	 0.128855
H	 0.5775171348	 0.1342570551	-2.1395446668	 0.062293
H	 2.5912301189	-0.8064618674	-0.2176070182	 0.069831
H	 1.2260380893	-3.4032719246	-0.2172849681	 0.092494
H	 0.3698191686	-2.0852904537	 0.6718348938	 0.116002
H	-2.0369462838	-1.9657452577	-0.992873128	 0.132468
H	-1.7243294818	-1.9591405066	-2.7422564191	 0.125538
H	-1.4992780267	-3.4515406954	-1.8120630072	 0.124328
H	 2.5879558747	-1.1563138183	-2.875269232	 0.097418
H	 2.8934922908	-2.7208604033	-2.0737473414	 0.100553
91.1835	154.7152	184.1903	205.4927	260.7796	266.8557	331.2904	378.2943	426.5551	504.9953	535.1112	634.5314	663.2276	826.1294	856.1396	892.657	923.1791	924.459	952.1304	983.1922	1010.4774	1021.4319	1050.9655	1084.4783	1114.0008	1151.5304	1174.0544	1182.0909	1193.0387	1193.9422	1222.7576	1235.2216	1259.5845	1268.0249	1339.7472	1358.2426	1387.0401	1418.2789	1477.1768	1481.9602	1486.4378	1489.0343	1491.5014	1508.8009	1529.1291	2980.5711	2992.4321	3016.3811	3032.2826	3042.2622	3054.2621	3074.8171	3110.3366	3117.3031	3124.8907	3126.5217	3160.2373
COC1C2CC1(C)OC2	CO[C@H]1[C@H]2C[C@]1(C)OC2	
InChI=1S/C7H12O2/c1-7-3-5(4-9-7)6(7)8-2/h5-6H,3-4H2,1-2H3	InChI=1S/C7H12O2/c1-7-3-5(4-9-7)6(7)8-2/h5-6H,3-4H2,1-2H3/t5-,6-,7-/m0/s1
