19
gdb 38723	2.5532	2.04904	1.59136	1.7828	73.4	-0.247	0.0687	0.3157	908.0809	0.162048	-422.984947	-422.978251	-422.977307	-423.015564	28.33	
C	-0.0701148979	 1.5890883177	-0.14579914	-0.274435
C	 1.3972945168	 1.9551680728	 0.1092396683	 0.037174
O	 2.4665191372	 1.9171497455	-0.8662004894	-0.302646
C	 2.1738142565	 0.7340894021	-0.1273867734	 0.332573
C	 1.2539295702	-0.253740871	-0.8429950372	-0.274652
C	 0.0041519746	 0.0398243552	 0.0063958516	-0.02739
C	 0.3746094803	-0.4652834099	 1.4343471914	-0.065903
O	 1.6098011287	-0.001709596	 2.0026397986	-0.272011
C	 2.752834434	 0.1457459477	 1.1332204416	-0.16282
H	-0.7121789413	 2.0760570481	 0.593854294	 0.105916
H	-0.4346438296	 1.863578361	-1.1413768388	 0.113071
H	 1.6266611035	 2.593487457	 0.9572847552	 0.104339
H	 1.1282501304	 0.0175643983	-1.8936859217	 0.108777
H	 1.5965438237	-1.2901356718	-0.7779692881	 0.095152
H	-0.9114885287	-0.4778622632	-0.3039419046	 0.063791
H	-0.3857615192	-0.1731313441	 2.1662535069	 0.10977
H	 0.3820915137	-1.5663036264	 1.3855008898	 0.093836
H	 3.2465861544	-0.8229898462	 0.9716702268	 0.094674
H	 3.4424306428	 0.8169146333	 1.6514418689	 0.120784
195.6053	251.5931	334.6505	364.7081	395.7608	448.9093	480.3025	566.7022	635.5891	751.0258	769.3202	782.1746	838.3084	882.0793	920.0918	932.195	947.3274	954.9255	987.5443	998.2084	1016.4245	1042.1559	1079.9825	1107.2159	1149.836	1180.1913	1202.9057	1224.7277	1250.6472	1287.8915	1291.0616	1322.0594	1336.1768	1348.9206	1360.8812	1402.5449	1449.6946	1472.6183	1492.5555	1499.4332	1511.902	2971.704	3003.937	3036.8831	3050.5763	3063.263	3070.6796	3097.7308	3098.8835	3114.9674	3155.1747
C1C2OC22CC1COC2	C1[C@@H]2O[C@@]32C[C@H]1COC3	
InChI=1S/C7H10O2/c1-5-2-7(4-8-3-5)6(1)9-7/h5-6H,1-4H2	InChI=1S/C7H10O2/c1-5-2-7(4-8-3-5)6(1)9-7/h5-6H,1-4H2/t5-,6-,7-/m0/s1
