15
gdb 29461	3.29104	1.69371	1.12066	3.9219	73.82	-0.1701	0.0387	0.2087	1009.5758	0.116493	-413.018895	-413.011462	-413.010518	-413.050299	29.154	
N	 0.0443623668	 1.4009319034	 0.1692919641	-0.614102
C	 0.0209750924	 0.0038772718	 0.0593654996	 0.127673
C	-1.0708970014	-0.8304656105	-0.0085178837	-0.167175
N	-0.6535900233	-2.1861203357	-0.116994056	-0.423076
C	 0.7069993363	-2.1534321321	-0.0023723855	 0.381291
C	 1.1714126605	-0.8562446788	 0.0587807615	 0.243602
N	 2.5529601789	-0.8303089408	 0.0379046324	-0.358394
C	 2.8969534191	-2.0935059294	-0.0279275848	-0.016424
N	 1.8106446225	-2.9635107857	-0.0729790821	-0.401657
H	 0.8996451704	 1.7931564341	-0.2025301835	 0.252745
H	-0.7521385759	 1.8506651448	-0.262074789	 0.238115
H	-2.1231264406	-0.5976054256	-0.0253085082	 0.100111
H	-1.2378378932	-2.9419588789	 0.2002708921	 0.251802
H	 3.9073547499	-2.4745081109	-0.0370478224	 0.122846
H	 1.8553663576	-3.9671534157	-0.0902755843	 0.262645
172.2109	222.2342	235.2722	263.0817	341.2418	362.4278	418.699	541.8113	567.1579	619.1028	637.5592	657.1914	699.6301	735.5927	757.7483	786.196	817.1572	951.726	1050.8371	1071.0498	1089.6803	1146.66	1238.914	1276.8147	1326.9974	1331.2702	1374.8067	1481.2022	1514.7509	1527.3369	1610.1878	1637.8807	1658.1986	3250.4054	3262.4396	3539.677	3632.4216	3646.3914	3680.5252
NC1=CNC2=C1N=CN2	Nc1c[nH]c2c1nc[nH]2	
InChI=1S/C5H6N4/c6-3-1-7-5-4(3)8-2-9-5/h1-2,7H,6H2,(H,8,9)	InChI=1S/C5H6N4/c6-3-1-7-5-4(3)8-2-9-5/h1-2,7H,6H2,(H,8,9)
