19
gdb 68233	3.07397	1.63713	1.39142	2.4369	73.4	-0.2537	0.0749	0.3286	973.0572	0.161044	-423.006951	-422.999833	-422.998888	-423.037878	30.08	
O	-0.0630480147	 1.4267519326	-0.0747571543	-0.487361
C	-0.0140059423	 0.0259424563	 0.0181427635	 0.414173
C	 0.2207718503	-0.6447188009	 1.4109293752	-0.286479
C	-0.7580960259	-1.7497996833	 0.9078774168	-0.070403
C	-1.3952867245	-0.6638209811	-0.0034136746	-0.254978
C	 0.0502565271	-2.7307205075	 0.0668380772	 0.052481
O	-0.2599112408	-2.8160082411	-1.3288354024	-0.253385
C	 0.9326771675	-2.1210320318	-0.9386090029	 0.046483
C	 0.9195513572	-0.6007897562	-1.0347998942	-0.306096
H	 0.8386114832	 1.7645049647	-0.1136133113	 0.273334
H	 1.2370044873	-0.9420364356	 1.6892356296	 0.084509
H	-0.2219468211	-0.0348552895	 2.2015298176	 0.105972
H	-1.3983010333	-2.2505045553	 1.6349384027	 0.068697
H	-2.1206853824	-0.064070871	 0.550810935	 0.103908
H	-1.8047877515	-0.976295166	-0.963340185	 0.116882
H	 0.3223381665	-3.6789577071	 0.528280333	 0.090073
H	 1.8500400211	-2.6238903174	-1.2411054064	 0.093154
H	 0.6179382678	-0.2782740434	-2.0384074891	 0.119599
H	 1.9435785886	-0.2371092463	-0.8684427703	 0.089438
202.5658	254.9653	300.709	326.9129	387.8266	420.0959	442.1228	457.9002	548.8988	617.3061	681.0704	783.1659	814.4538	853.6281	881.7521	898.2216	918.13	934.3495	953.2792	990.8708	1008.5177	1049.1071	1067.8804	1084.9711	1113.5511	1147.3782	1159.5965	1178.5741	1222.6193	1239.1163	1254.6619	1264.5734	1291.6368	1334.5955	1340.2859	1366.6365	1396.7306	1451.2444	1469.7135	1473.4803	1505.8104	3008.783	3046.5467	3063.9519	3078.0634	3097.5311	3113.918	3117.741	3126.8155	3149.2776	3798.5494
OC12CC(C1)C1OC1C2	O[C@@]12C[C@@H](C1)[C@H]1O[C@H]1C2	
InChI=1S/C7H10O2/c8-7-1-4(2-7)6-5(3-7)9-6/h4-6,8H,1-3H2	InChI=1S/C7H10O2/c8-7-1-4(2-7)6-5(3-7)9-6/h4-6,8H,1-3H2/t4-,5-,6+,7-/m0/s1
