14
gdb 32391	4.13236	1.04915	0.84115	4.2222	74.97	-0.2225	-0.0408	0.1817	1278.9982	0.102368	-432.908924	-432.900926	-432.899982	-432.941963	28.556	
C	-0.0279019391	 1.4059533582	 0.0092928155	-0.239274
O	-0.0001443496	-0.0213893744	 0.0051143607	-0.277614
C	-1.1932280949	-0.6307605817	 0.0119052207	 0.374787
C	-1.3807443004	-2.0029833257	 0.0093433854	-0.197783
N	-2.7417333557	-2.1638466821	 0.0182936127	-0.285848
C	-3.3056332673	-0.9228310862	 0.0263998302	 0.258557
N	-2.3774236566	 0.0286028919	 0.0222053951	-0.383983
C	-4.7084131998	-0.7332629487	 0.037053706	 0.242741
N	-5.8612332758	-0.6185457053	 0.0456087833	-0.339785
H	 1.0163451672	 1.7200775241	 0.0025310062	 0.131983
H	-0.5446577409	 1.7920022709	-0.8746546243	 0.138418
H	-0.5316399197	 1.7870425473	 0.90285951	 0.138406
H	-0.6925779202	-2.8293079292	 0.0020486089	 0.151928
H	-3.2410657672	-3.038502789	 0.0191337396	 0.287466
90.4271	135.0717	138.0539	179.3089	255.514	340.22	489.4414	495.6058	543.8529	573.4427	594.1494	671.2132	716.121	737.4592	742.6081	992.5165	1026.2042	1079.9805	1113.9772	1180.456	1209.1857	1255.651	1338.5825	1393.4572	1445.5062	1464.9664	1481.8644	1501.1122	1541.1425	1612.2675	2342.3339	3038.7016	3108.042	3150.0918	3295.8331	3660.0759
COC1=CNC(=N1)C#N	COc1c[nH]c(n1)C#N	
InChI=1S/C5H5N3O/c1-9-5-3-7-4(2-6)8-5/h3H,1H3,(H,7,8)	InChI=1S/C5H5N3O/c1-9-5-3-7-4(2-6)8-5/h3H,1H3,(H,7,8)
