17
gdb 10651	2.23996	2.01305	1.26828	2.3588	65.85	-0.2593	-0.0376	0.2217	995.2621	0.140815	-400.983545	-400.974804	-400.97386	-401.017126	31.068	
C	 0.0016167013	 1.3887793576	-0.1856120209	-0.406695
C	 0.1642310432	-0.0855035879	 0.09133202	-0.022216
N	 1.5123026602	-0.6357733876	 0.1524557991	-0.370051
C	 0.6980866626	-0.6503834187	 1.3872194398	 0.182738
C	 1.2275935666	 0.1830105578	 2.5310932607	-0.142199
O	 2.4265361899	-0.3771153714	 3.0389503889	-0.419877
C	 0.1409406803	-1.9875092258	 1.7594659932	 0.10958
O	 0.0640408103	-2.9123598774	 0.984589432	-0.27389
H	 0.8289244168	 1.9711091489	 0.2237941501	 0.13431
H	-0.0180862523	 1.5568906474	-1.2677100455	 0.131989
H	-0.9386968557	 1.7660211355	 0.2291535063	 0.125397
H	-0.5859429738	-0.7212528238	-0.377570299	 0.107696
H	 1.5031052825	-1.5859213671	-0.2217710742	 0.24877
H	 1.3684518389	 1.225260607	 2.2194429221	 0.097896
H	 0.5120695108	 0.1809913093	 3.3617879622	 0.111303
H	 3.028379893	-0.4446814961	 2.2876375735	 0.294052
H	-0.2078676244	-2.0831843777	 2.8089419118	 0.091196
57.581	124.216	148.7317	211.1514	227.5566	233.4459	298.4664	370.8589	445.9086	464.5401	538.3312	659.4486	756.9814	801.2517	883.2681	932.9617	991.277	1028.8633	1044.23	1065.5689	1088.3315	1138.226	1143.0025	1200.9429	1274.3507	1299.7548	1341.5897	1380.5385	1404.7487	1426.2311	1434.8464	1453.372	1488.0218	1494.2901	1505.2159	1801.2019	2918.6334	3023.3432	3041.621	3068.0766	3101.8702	3116.5039	3140.3192	3453.4313	3787.6425
CC1NC1(CO)C=O	C[C@H]1N[C@]1(CO)C=O	
InChI=1S/C5H9NO2/c1-4-5(2-7,3-8)6-4/h2,4,6,8H,3H2,1H3	InChI=1S/C5H9NO2/c1-4-5(2-7,3-8)6-4/h2,4,6,8H,3H2,1H3/t4-,5+/m1/s1
