19
gdb 83911	2.62837	1.3972	1.20872	1.8314	82.22	-0.2341	0.0512	0.2853	1117.3741	0.159318	-385.855442	-385.84682	-385.845876	-385.888226	33.639	
O	-0.3984423626	 1.4864759467	 0.0141324189	-0.417665
C	-0.197412443	 0.1035010402	 0.038280301	 0.045842
C	-0.4763726567	-0.7425872633	 1.251783088	-0.141008
C	-1.2604030415	-0.149537943	 2.4124240146	-0.225666
C	-2.5056764071	 0.5291367363	 1.7912519817	-0.218291
C	-2.7525198576	-0.1880332493	 0.444585711	-0.271673
C	-1.410994115	-0.8030665592	 0.0270072778	 0.133941
C	-1.4257312854	-1.9208776058	-0.8691245855	 0.185818
C	-1.453284573	-2.8609329698	-1.6203039642	-0.390454
H	 0.3007472711	 1.896808872	 0.5343198369	 0.291248
H	 0.6225040915	-0.2392088961	-0.5923064699	 0.097105
H	 0.2041053529	-1.5637090442	 1.4502133916	 0.093782
H	-1.5525853359	-0.9644593775	 3.0840864577	 0.106706
H	-0.6672810858	 0.5530023651	 3.0093416777	 0.093728
H	-3.3750013112	 0.4649369972	 2.4513863874	 0.093388
H	-2.3014362063	 1.5846716721	 1.6118269348	 0.116767
H	-3.4729103176	-1.0045434045	 0.5566434432	 0.109548
H	-3.1450204056	 0.4905125358	-0.3178991824	 0.114508
H	-1.4759700914	-3.6882336327	-2.2849330203	 0.182376
128.8504	153.6963	174.057	196.1862	240.7206	258.2256	406.0819	477.3226	511.2878	538.938	552.0673	579.5818	639.8043	673.6413	704.6853	783.3085	846.2523	866.821	907.233	930.6881	986.0047	1009.1055	1057.3741	1078.2659	1100.5747	1112.3084	1184.2079	1202.4607	1234.6083	1252.8683	1268.4158	1298.3101	1319.8715	1336.3725	1347.7882	1373.0069	1452.8371	1485.514	1490.1973	1512.031	2232.7232	3032.801	3051.581	3065.2556	3070.9999	3092.9627	3106.3698	3132.161	3169.0439	3504.4962	3802.6609
OC1C2CCCC12C#C	O[C@H]1[C@H]2CCC[C@@]12C#C	
InChI=1S/C8H10O/c1-2-8-5-3-4-6(8)7(8)9/h1,6-7,9H,3-5H2	InChI=1S/C8H10O/c1-2-8-5-3-4-6(8)7(8)9/h1,6-7,9H,3-5H2/t6-,7+,8-/m1/s1
