17
gdb 10088	2.41136	1.91239	1.64882	2.6558	62.03	-0.2496	0.0095	0.259	894.7776	0.142536	-438.128618	-438.120459	-438.119515	-438.161184	29.887	
O	 0.2980170465	 0.9466203245	-0.6112731447	-0.42074
C	 0.150730499	-0.1567998539	 0.2470735003	-0.05829
C	-1.2658251304	-0.7422403584	 0.2721025671	 0.079937
C	-2.3193754371	 0.2247448161	 0.8331649137	-0.106294
O	-2.2610510756	 1.53865642	 0.3196250345	-0.424077
O	-1.5601348997	-1.3505789042	-1.0214425388	-0.224653
C	-2.104646009	-0.7335084193	-2.061759307	 0.173089
N	-2.6183902482	 0.4286197593	-2.0874692574	-0.494446
H	-0.3911351926	 1.574829387	-0.3451102981	 0.288924
H	 0.8469233869	-0.9287048115	-0.0977043651	 0.110844
H	 0.4175964081	 0.0839236008	 1.2915236424	 0.087213
H	-1.2547146706	-1.6182392552	 0.9314803683	 0.099877
H	-3.3192002275	-0.2173128731	 0.7102410071	 0.104272
H	-2.1252005068	 0.2941217397	 1.9099730988	 0.116178
H	-2.5189862886	 1.4285091164	-0.6264115604	 0.307715
H	-2.0742321816	-1.4125870008	-2.9188936012	 0.1204
H	-2.9753100427	 0.6471728626	-3.0125519894	 0.24005
92.8011	123.0872	198.7625	226.8222	270.7391	295.8383	322.7688	362.1643	476.5448	618.295	683.7178	726.6483	797.495	857.89	874.8376	903.7763	932.2824	991.6118	1040.0287	1066.3692	1107.9693	1125.2305	1143.127	1229.8533	1282.153	1319.7849	1337.1321	1392.2408	1400.076	1416.7268	1426.7404	1470.709	1485.992	1498.193	1532.835	1708.1534	2952.1651	2997.6672	3046.3697	3066.162	3071.7931	3094.1783	3359.0309	3542.6494	3696.5143
OCC(CO)OC=N	OCC(CO)O[CH][NH]	
InChI=1S/C4H9NO3/c5-3-8-4(1-6)2-7/h3-7H,1-2H2	InChI=1S/C4H9NO3/c5-3-8-4(1-6)2-7/h3-7H,1-2H2
