17
gdb 43491	2.24999	1.82107	1.14099	2.6248	72.01	-0.2379	-0.0437	0.1942	1055.8237	0.136123	-421.862814	-421.855077	-421.854133	-421.896078	29.104	
O	-0.0409188502	 0.0500897914	 0.2091379208	-0.309898
C	-0.0511020716	 1.2358157424	 0.0028892524	 0.390578
C	-1.2974886875	 2.1007406881	-0.1924610026	-0.439779
C	-0.8090398248	 3.3546744838	-0.9196021837	 0.390574
O	-1.4935437597	 4.1108622726	-1.5585426897	-0.309896
C	 0.6992618751	 3.4778159029	-0.7231210228	-0.13121
C	 1.1118095861	 4.2016704761	 0.6050571754	-0.231725
C	 1.5950137436	 2.8483835044	 1.1949100444	-0.231772
C	 1.1845175461	 2.1210785543	-0.132084575	-0.13116
H	-2.1075902935	 1.5851332454	-0.7112554906	 0.158778
H	-1.6823173935	 2.3929272297	 0.7949325671	 0.16133
H	 1.1730758126	 3.8625326906	-1.626510515	 0.102518
H	 1.9037237035	 4.9382786977	 0.4614043053	 0.123135
H	 0.2926240149	 4.6894195374	 1.139033617	 0.116453
H	 2.6666744366	 2.8009915445	 1.3940004887	 0.123142
H	 1.0718048209	 2.5047515767	 2.0906129104	 0.116437
H	 1.9892498012	 1.5821372419	-0.6326337224	 0.102496
45.0061	74.9649	197.9619	222.1696	387.3497	451.8723	460.0831	552.521	593.0981	631.0136	729.8859	755.8401	778.3912	819.4875	879.1032	907.7004	922.8863	953.8764	977.3064	993.7627	1102.861	1114.9545	1150.4089	1175.7868	1213.9934	1226.7806	1230.2226	1230.8345	1261.2535	1266.7562	1286.1942	1307.1776	1405.4548	1484.2833	1500.1052	1826.4155	1861.1747	3031.397	3068.6054	3073.8223	3105.0137	3115.3962	3117.5146	3126.1202	3134.4915
O=C1CC(=O)C2CCC12	O=C1CC(=O)[C@H]2CC[C@@H]12	
InChI=1S/C7H8O2/c8-6-3-7(9)5-2-1-4(5)6/h4-5H,1-3H2	InChI=1S/C7H8O2/c8-6-3-7(9)5-2-1-4(5)6/h4-5H,1-3H2/t4-,5+
