18
gdb 22674	3.68411	0.96607	0.92651	0.4175	71.89	-0.2467	0.0038	0.2505	1326.6538	0.146459	-476.181377	-476.172338	-476.171394	-476.215671	32.727	
C	-0.0398839531	 1.0652016087	 0.6421656605	-0.243821
O	-0.2293046408	-0.3266797667	 0.455194228	-0.243365
C	-1.358710922	-0.6414078	-0.3119993589	 0.210222
C	-1.4229388329	-2.1669676915	-0.4385164991	-0.336612
C	-2.240777083	-2.5272320168	 0.7748335973	 0.372347
C	-2.932529958	-1.2744081841	 1.2597602671	-0.160722
O	-2.5684092425	-0.261508483	 0.3218190524	-0.265685
N	-2.2865928351	-3.6924428597	 1.2758729894	-0.216948
O	-3.1334086568	-3.710032623	 2.4024028017	-0.398173
H	 0.8653695013	 1.1860529831	 1.2404617711	 0.128484
H	 0.0958943042	 1.5809589978	-0.3206301739	 0.106863
H	-0.8886756492	 1.5199797481	 1.1653902613	 0.127237
H	-1.3370417617	-0.1003833324	-1.2676753477	 0.074462
H	-1.9517329599	-2.4406407755	-1.3579341944	 0.128853
H	-0.4351213286	-2.6271686362	-0.4473807532	 0.14173
H	-4.0224410043	-1.373575342	 1.2679131267	 0.134902
H	-2.6081882051	-1.0249974776	 2.2787512441	 0.131645
H	-3.0690798125	-4.6258939992	 2.6926782875	 0.308582
54.5055	109.1244	142.2519	199.7807	223.5564	250.6667	299.6511	372.8846	381.2829	496.9794	515.661	570.636	673.7197	789.8317	832.4023	863.5593	936.2967	976.6043	980.6134	1001.9947	1059.5745	1070.7941	1134.5039	1174.1667	1182.8549	1203.3035	1230.2511	1234.0313	1293.1292	1330.1174	1369.5795	1393.5274	1409.6167	1460.389	1477.1004	1484.2507	1493.6935	1513.1965	1773.5477	2991.4682	3020.5703	3022.3595	3056.5189	3066.7359	3079.1992	3128.6116	3140.4129	3822.3891
COC1CC(CO1)=NO	CO[C@H]1CC(=NO)CO1	
InChI=1S/C5H9NO3/c1-8-5-2-4(6-7)3-9-5/h5,7H,2-3H2,1H3	InChI=1S/C5H9NO3/c1-8-5-2-4(6-7)3-9-5/h5,7H,2-3H2,1H3/t5-/m1/s1
