14
gdb 12179	3.68358	1.53999	1.19722	1.9779	60.61	-0.2595	-0.0422	0.2173	953.7233	0.104668	-419.684371	-419.676415	-419.675471	-419.717304	27.755	
O	 0.632460794	 1.3013079124	 0.2231234052	-0.417358
C	 0.1358231286	 0.0199761233	 0.069354561	 0.056945
C	-1.4425826845	-0.2865718178	 0.037648747	-0.141296
C	-1.1828422656	-1.3285232828	-1.0889632203	-0.345975
C	 0.1410872431	-0.6104181743	-1.3269676412	 0.333462
O	 0.7794575996	-0.3180899507	-2.2990789268	-0.302822
C	-1.9771641153	-0.8085731356	 1.3405322185	 0.132682
O	-1.8681029085	-1.9583854201	 1.6898986168	-0.246613
H	 0.7643947683	 1.6717728903	-0.6592461576	 0.300888
H	 0.5854925308	-0.6458064682	 0.8163389978	 0.133778
H	-1.9792784922	 0.6014020396	-0.3027569031	 0.10101
H	-1.0589630421	-2.3233602672	-0.6495149872	 0.160272
H	-1.8748070824	-1.3731899021	-1.9302110161	 0.140088
H	-2.4500109437	-0.0510239567	 2.0016596861	 0.09494
69.8948	95.7426	158.8668	219.9816	260.4988	301.2235	342.1133	441.9997	617.3187	673.9034	679.6271	769.3512	813.2415	831.5722	980.153	1007.7935	1040.931	1061.9042	1127.3015	1167.8466	1169.8217	1204.2877	1237.4936	1323.716	1348.2502	1414.5102	1418.0262	1447.4354	1811.5559	1876.0615	2903.6666	3043.19	3069.7471	3099.8345	3144.7	3770.49
OC1C(CC1=O)C=O	O[C@H]1[C@@H](CC1=O)C=O	
InChI=1S/C5H6O3/c6-2-3-1-4(7)5(3)8/h2-3,5,8H,1H2	InChI=1S/C5H6O3/c6-2-3-1-4(7)5(3)8/h2-3,5,8H,1H2/t3-,5-/m0/s1
