15
gdb 35019	3.07289	1.30013	1.10132	4.5053	77.88	-0.2581	-0.0137	0.2444	1100.3346	0.112233	-379.59925	-379.591309	-379.590365	-379.631695	29.971	
C	-0.0167026298	-1.2255286545	-0.0021058284	-0.42785
C	 0.0396732703	-0.0243727435	 0.0008315686	 0.353832
C	 0.0813340604	 1.4093760513	-0.0004618733	-0.2565
N	 0.4685720131	 2.2236565343	 1.1791655733	-0.16773
C	 1.5344039246	 1.4488272242	 1.9207132706	-0.156345
C	 2.4898537809	 1.4541524652	 0.7010626446	-0.312845
C	 1.368056167	 2.1763845724	-0.0504793387	 0.195808
C	 1.5501222112	 3.2821083476	-0.9427062372	 0.21434
N	 1.7229482828	 4.1577056193	-1.6788881776	-0.334168
H	-0.0718185238	-2.2866003157	-0.0118389086	 0.212937
H	-0.7402581126	 1.8868351091	-0.5282875627	 0.145827
H	 1.8858087351	 2.0503468841	 2.7589876516	 0.129737
H	 1.1891056402	 0.4773557021	 2.2792476235	 0.133079
H	 3.3666500437	 2.084986342	 0.8459824066	 0.138017
H	 2.7922189671	 0.4929768521	 0.2816065475	 0.131861
109.0015	137.0237	180.6237	198.9822	310.5527	365.9816	471.9973	514.8758	548.2244	569.7659	620.9994	634.8505	677.6057	772.4612	787.0479	807.1531	867.778	965.2789	970.0793	1014.9342	1080.2447	1100.611	1171.9503	1219.1589	1220.4058	1259.9515	1289.9892	1310.8933	1405.0121	1482.033	1503.7023	2236.2461	2348.6994	3083.2622	3087.2437	3137.5207	3150.4227	3153.7448	3498.1501
C#CC1N2CCC12C#N	C#C[C@H]1N2CC[C@@]12C#N	
InChI=1S/C7H6N2/c1-2-6-7(5-8)3-4-9(6)7/h1,6H,3-4H2	InChI=1S/C7H6N2/c1-2-6-7(5-8)3-4-9(6)7/h1,6H,3-4H2/t6-,7-,9?/m1/s1
