13
gdb 20386	4.89564	2.1174	1.5153	4.7871	60.25	-0.2135	-0.037	0.1765	768.5863	0.097957	-394.740159	-394.73418	-394.733235	-394.770258	22.624	
C	 0.01353917	 1.4293088762	 0.0502425477	-0.167782
C	 1.5063487765	 1.9182232343	-0.0565119341	-0.351363
C	 2.1966972711	 0.6011193033	 0.0669141426	 0.344257
C	 1.3238299588	-0.4239422758	-0.0628008734	 0.293044
N	 0.0007509918	-0.0304591198	-0.2991762985	-0.399288
N	 2.0287968889	-1.5850770313	-0.0427751126	-0.214643
N	 3.2620214952	-1.33595349	 0.0980663143	-0.043028
O	 3.4260361203	 0.1316515457	 0.1549611041	-0.23388
H	-0.3382716291	 1.5801141066	 1.078411039	 0.118388
H	-0.6459264453	 1.9820096533	-0.6217893387	 0.12726
H	 1.7106947865	 2.3833075359	-1.028691819	 0.142292
H	 1.7548745833	 2.6484103175	 0.7177653802	 0.137924
H	-0.6970702779	-0.5482641359	 0.2212259585	 0.24682
136.7073	217.3132	312.5684	424.6271	493.4818	578.9685	644.183	684.4435	716.9821	736.8508	829.1036	859.3521	939.0351	1001.2646	1014.3637	1071.9388	1160.6369	1189.2437	1242.058	1289.3233	1329.7213	1341.1566	1386.875	1430.4182	1483.6659	1502.2027	1518.4764	1652.6175	3024.889	3034.2268	3092.0765	3107.4527	3551.9748
C1CC2=C(N1)N=NO2	C1Cc2c(N1)nno2	
InChI=1S/C4H5N3O/c1-2-5-4-3(1)8-7-6-4/h5H,1-2H2	InChI=1S/C4H5N3O/c1-2-5-4-3(1)8-7-6-4/h5H,1-2H2
