19
gdb 76824	2.73069	1.58624	1.20555	2.6185	76.06	-0.2237	0.0159	0.2396	1074.262	0.160712	-419.190456	-419.18208	-419.181136	-419.223313	31.721	
C	-0.2708761613	 1.5264002762	-0.1601059714	-0.397679
C	-0.0897101072	 0.0247538318	-0.0268416031	-0.02181
C	 1.1551127603	-0.5515622872	-0.8383208461	 0.023695
O	 1.7531804217	 0.2201473544	-1.834728487	-0.418987
C	 1.8059830622	-0.5732015051	 0.5291626992	 0.291977
N	 2.9122287346	-0.3153939151	 1.0979424845	-0.347344
C	 2.5044789987	-0.0344040817	 2.5057456444	-0.169072
C	 0.9571304274	 0.2360666891	 2.4647783283	-0.200188
N	 0.6051415249	-0.4620444533	 1.2196039973	-0.089842
H	 0.6642466747	 2.0681240934	 0.0144680459	 0.116829
H	-0.6076049499	 1.7660691966	-1.1725383279	 0.138396
H	-1.0184003817	 1.8991195613	 0.5469710824	 0.123647
H	-1.0341059584	-0.5009449476	-0.1927129903	 0.086103
H	 0.9371182199	-1.5403110003	-1.2500267032	 0.1178
H	 2.4056958584	 0.7909867967	-1.4136718033	 0.299157
H	 2.7280732741	-0.906683733	 3.1320840035	 0.117191
H	 3.0733807201	 0.810670625	 2.9019620066	 0.111945
H	 0.43087833	-0.1711393587	 3.3312975545	 0.114076
H	 0.7380177717	 1.3104421175	 2.3981388556	 0.104107
98.1708	130.551	205.5588	219.7249	243.5038	262.293	308.4026	447.6513	509.1349	558.536	627.5784	676.8797	787.7952	791.3439	821.6397	858.6817	898.7787	966.2792	991.1603	1022.0663	1056.2961	1089.4418	1101.6114	1136.6837	1166.9632	1194.6923	1212.0496	1225.5776	1249.7942	1288.5056	1311.4382	1321.1867	1363.0433	1370.7874	1410.134	1427.678	1484.8151	1494.5499	1497.3699	1518.0228	1747.5908	3011.3044	3033.2239	3040.2738	3062.6836	3083.7243	3087.5542	3098.2842	3108.9076	3119.3701	3804.9688
CC1C(O)C2=NCCN12	C[C@H]1[C@@H](O)[C]2[N]CCN12	
InChI=1S/C6H10N2O/c1-4-5(9)6-7-2-3-8(4)6/h4-5,9H,2-3H2,1H3	InChI=1S/C6H10N2O/c1-4-5(9)6-7-2-3-8(4)6/h4-5,9H,2-3H2,1H3/t4-,5+/m0/s1
