14
gdb 124973	3.19432	1.26722	0.95311	2.1528	67.71	-0.2791	-0.0494	0.2298	1151.5996	0.099996	-432.868508	-432.860196	-432.859251	-432.902731	28.728	
C	-0.0853365037	 1.4391308965	-0.4116989131	-0.50651
C	-0.0973009593	-0.0082085522	-0.0732161036	 0.341226
C	-1.0647858515	-0.970564488	-0.009113404	 0.167574
C	-2.5488189211	-0.9482074775	-0.2417799861	-0.450427
C	-2.9606082224	-0.0706447055	-1.3377133321	 0.273807
N	-3.2809177134	 0.6385509167	-2.1914989154	-0.308255
N	-0.4433062172	-2.1360174184	 0.3769352679	-0.169006
N	 0.7884465824	-1.9522286522	 0.5459706021	-0.008615
O	 1.0612465912	-0.5813505295	 0.2627251997	-0.204039
H	 0.7270052476	 1.6574013701	-1.1105112749	 0.165352
H	-1.0301588061	 1.7379662603	-0.8668988955	 0.17491
H	 0.079533857	 2.0424029064	 0.4874844035	 0.159976
H	-2.8751197021	-1.9697072483	-0.462531339	 0.188355
H	-3.0886647915	-0.6407912984	 0.6631872704	 0.17565
35.219	85.7808	119.7036	237.3056	247.2481	302.224	376.1349	392.7721	479.3855	662.1482	675.587	684.8369	710.9784	767.4909	941.3821	953.7119	1000.7433	1030.9106	1067.7837	1171.459	1225.5146	1247.0617	1323.3171	1395.9163	1424.6596	1458.7702	1463.682	1479.0859	1483.746	1647.71	2366.8947	3032.7496	3048.6194	3087.419	3110.2474	3154.9824
CC1=C(CC#N)N=NO1	Cc1c(CC#N)nno1	
InChI=1S/C5H5N3O/c1-4-5(2-3-6)7-8-9-4/h2H2,1H3	InChI=1S/C5H5N3O/c1-4-5(2-3-6)7-8-9-4/h2H2,1H3
