16
gdb 133881	3.59483	2.19899	1.90423	1.6637	69.37	-0.2254	0.0588	0.2842	760.7472	0.127406	-400.633868	-400.628599	-400.627654	-400.663098	23.658	
C	 1.2387316143	-0.5095880645	 1.1804370408	-0.370537
C	 1.5631878609	 0.7717117314	 0.3576875877	-0.030264
C	 0.3232770315	 1.5899314666	 0.1031162293	-0.083046
C	-0.8448943322	 0.7641537038	 0.5832909118	-0.07466
C	-1.4700643709	-0.1405654798	-0.5140116681	-0.006483
O	-1.4013627806	-1.3394452636	 0.4066309115	-0.395653
C	-0.1359858891	-0.6158862455	 0.5694010758	 0.409188
C	-0.0000886092	-0.3917672075	-0.9421913342	-0.022019
N	 0.8923932767	 0.7764887508	-0.9997091302	-0.151437
H	 1.260552817	-0.3093649687	 2.2548253079	 0.122699
H	 1.9121032905	-1.336162232	 0.9397839034	 0.124873
H	 2.5523250791	 1.2123052141	 0.3964272765	 0.103488
H	 0.3296999704	 2.668093509	-0.0068521548	 0.098415
H	-1.4354782805	 1.0481387244	 1.4510436825	 0.086989
H	-2.3928316825	-0.0520839786	-1.0873938428	 0.098167
H	 0.2432894946	-1.22096091	-1.6024776172	 0.09028
375.8747	432.1601	459.6122	499.6894	645.2951	694.666	735.6509	751.4789	754.3603	780.3247	828.7542	853.7915	888.8193	916.5596	924.9746	959.1648	997.5366	1005.2141	1014.0954	1028.9494	1053.4696	1079.3393	1102.0033	1143.5425	1166.6844	1182.1738	1199.3914	1216.7771	1238.0566	1247.0783	1256.9161	1315.2951	1338.6912	1370.1409	1483.1167	3066.1322	3118.1864	3121.7292	3152.6179	3155.6274	3177.1937	3193.6875
C1C2C3C4C5OC14C5N23	C1[C@@H]2[C@@H]3[C@H]4[C@@H]5O[C@]14[C@@H]5N23	
InChI=1S/C7H7NO/c1-2-4-3-5-6(8(2)4)7(1,3)9-5/h2-6H,1H2	InChI=1S/C7H7NO/c1-2-4-3-5-6(8(2)4)7(1,3)9-5/h2-6H,1H2/t2-,3+,4-,5+,6-,7-,8?/m1/s1
