20
gdb 120838	4.35637	0.59724	0.56311	4.0197	77.69	-0.2407	-0.0194	0.2213	1938.5432	0.168917	-440.258466	-440.248158	-440.247213	-440.295743	35.542	
O	 0.0594988715	 1.3550966631	 0.3580753715	-0.421382
C	-0.0215588502	-0.0612729248	 0.358802952	-0.067551
C	-1.3156752866	-0.4508462747	-0.3485325205	-0.185804
C	-1.4823756599	-1.9497170516	-0.4278815816	-0.025798
N	-1.9475508025	-2.6449282102	 0.7863300923	-0.336605
C	-2.7895548562	-2.6655300824	-0.4238118864	-0.040678
C	-4.1442720553	-1.9891452712	-0.3281094538	-0.283682
C	-5.1172308816	-2.839772901	 0.4633352151	 0.158735
O	-6.2013679191	-3.1899212543	 0.072980975	-0.240507
H	 0.8443504791	 1.6127007209	 0.8500908132	 0.286574
H	 0.8403125886	-0.5102751742	-0.1634853407	 0.079166
H	-0.0350927734	-0.467047546	 1.3816362776	 0.101748
H	-2.1491508955	 0.0045462486	 0.1932301118	 0.113624
H	-1.3105097415	-0.0237718749	-1.3586937285	 0.109578
H	-0.6987545848	-2.4489891823	-0.9989767616	 0.086004
H	-1.4674758056	-3.531920343	 0.9071375711	 0.234213
H	-2.8095043316	-3.5958662002	-0.9904596113	 0.09559
H	-4.0403213243	-1.0352268917	 0.2016773389	 0.127956
H	-4.5659469678	-1.7963274535	-1.3189528642	 0.120843
H	-4.7409958133	-3.1336898166	 1.4686682301	 0.087977
38.6555	58.2538	76.0491	92.2741	127.0071	196.6703	252.9882	259.5067	342.9836	428.5892	488.2843	493.9364	541.6077	775.3758	798.1981	823.045	872.6854	894.3318	982.2979	997.7231	1020.3103	1041.1259	1069.6423	1084.1214	1091.772	1152.6137	1187.3583	1218.3941	1237.1146	1258.2557	1266.7398	1275.4345	1292.2812	1315.5115	1330.8686	1416.586	1420.6875	1449.068	1460.4997	1476.5597	1483.097	1528.7743	1832.9497	2888.4101	2957.2144	3003.345	3041.5916	3046.2159	3089.4885	3102.28	3105.1873	3117.9593	3512.1915	3831.8393
OCCC1NC1CC=O	OCC[C@H]1N[C@H]1CC=O	
InChI=1S/C6H11NO2/c8-3-1-5-6(7-5)2-4-9/h3,5-7,9H,1-2,4H2	InChI=1S/C6H11NO2/c8-3-1-5-6(7-5)2-4-9/h3,5-7,9H,1-2,4H2/t5-,6+/m0/s1
