21
gdb 38340	3.65996	1.36061	1.15793	1.4729	81.89	-0.245	0.0885	0.3335	1117.0146	0.185463	-387.038252	-387.030932	-387.029988	-387.070236	29.857	
C	-0.0688274073	 1.5967412108	 0.0776733281	-0.229912
C	 1.4503508426	 1.2517066111	 0.0658153694	-0.100363
C	 1.1186403783	 0.1571710395	 1.1229470555	-0.233002
C	 0.010278479	 0.0429828824	 0.0332697887	-0.095189
C	 1.1397560101	 0.1870820898	-1.0388748084	 0.384401
C	 0.7966750099	 0.6325400069	-2.4795499569	-0.324874
C	 1.873077445	-0.060330569	-3.3199883998	-0.088726
O	 2.1288349841	-1.2817375088	-2.6463853419	-0.248484
C	 2.1363937489	-0.9819312777	-1.2591543392	-0.167399
H	-0.4523494997	 2.0311306424	 1.0048630078	 0.088676
H	-0.4811273938	 2.1057368681	-0.7947349891	 0.094322
H	 2.2890936562	 1.9516343586	 0.081774236	 0.066333
H	 1.8177342743	-0.6747237437	 1.2274148119	 0.098034
H	 0.7926670333	 0.5184495107	 2.1019536685	 0.089316
H	-0.8237354893	-0.6620521346	 0.0081968236	 0.068077
H	-0.1941633003	 0.2648085809	-2.7671279476	 0.108162
H	 0.8033843949	 1.7171333088	-2.6105691522	 0.103118
H	 1.562108054	-0.2954960663	-4.3411017723	 0.106496
H	 2.7869189237	 0.5566926274	-3.3703905451	 0.083823
H	 3.1497735869	-0.6886635326	-0.9364082108	 0.088294
H	 1.8633682294	-1.8970206346	-0.7264385262	 0.108895
60.241	197.4133	262.2169	277.9531	355.1654	417.2291	530.6671	589.4164	639.2731	754.8326	763.6481	801.4027	857.6137	891.2996	900.4593	901.7956	960.1661	980.8143	1004.3121	1011.4007	1017.0306	1027.8199	1045.4303	1101.186	1108.1978	1116.3467	1137.9562	1170.7173	1183.3121	1186.0952	1194.258	1222.6243	1240.3602	1248.7818	1254.1185	1277.6208	1290.2075	1318.9423	1362.4928	1404.7587	1484.6761	1505.3579	1509.3952	1522.4474	1545.1684	2952.5193	2959.54	3045.922	3058.2662	3058.884	3079.2733	3082.3913	3091.2912	3093.1966	3104.0981	3123.3098	3127.7169
C1C2CC1C21CCOC1	C1[C@H]2C[C@@H]1[C@]12CCOC1	
InChI=1S/C8H12O/c1-2-9-5-8(1)6-3-7(8)4-6/h6-7H,1-5H2	InChI=1S/C8H12O/c1-2-9-5-8(1)6-3-7(8)4-6/h6-7H,1-5H2/t6-,7+,8-
