15
gdb 9065	5.68997	0.90861	0.81192	3.3728	63.13	-0.2713	-0.0447	0.2266	1318.6587	0.115432	-399.80286	-399.793854	-399.79291	-399.837684	29.935	
C	 0.1244346217	 1.3757485924	 0.1420477421	-0.411013
C	-0.0052475793	-0.1428036134	 0.0511100137	 0.045052
O	-1.3451550485	-0.6185465561	 0.0403903874	-0.254224
C	-2.0042980144	-0.52663628	 1.2804158479	-0.193654
C	-3.2805682976	-1.2430799906	 1.1943075172	 0.269902
N	-4.2917092333	-1.7985372341	 1.1568199398	-0.286887
C	 0.6264189605	-0.6974887584	-1.2254119336	 0.148079
O	 1.626252475	-0.2523681071	-1.7206199232	-0.237516
H	 1.163467245	 1.6505641699	-0.0538879598	 0.155016
H	-0.508552906	 1.8530941914	-0.6113142548	 0.140376
H	-0.1549082878	 1.7517461073	 1.1295789252	 0.121246
H	 0.5418392702	-0.6130741488	 0.8898435829	 0.104108
H	-1.4037043758	-0.9758714606	 2.0881890908	 0.142585
H	-2.2101553133	 0.5153087653	 1.566070278	 0.149986
H	 0.0813422135	-1.5688298072	-1.6463836136	 0.106944
48.9317	77.1543	90.6549	139.1159	212.4788	260.9784	270.812	380.3031	397.0533	431.1501	529.0363	635.9099	834.9994	913.5804	933.9798	956.0124	1034.493	1086.9845	1122.4826	1138.8064	1166.5988	1255.8479	1326.6033	1337.096	1384.8316	1405.0087	1425.1827	1488.9588	1492.5239	1502.3317	1843.9591	2375.2402	2919.1481	2936.1598	2980.1784	3019.24	3050.9245	3125.0786	3138.9285
CC(OCC#N)C=O	C[C@@H](OCC#N)C=O	
InChI=1S/C5H7NO2/c1-5(4-7)8-3-2-6/h4-5H,3H2,1H3	InChI=1S/C5H7NO2/c1-5(4-7)8-3-2-6/h4-5H,3H2,1H3/t5-/m1/s1
