16
gdb 7296	3.93021	1.31748	1.08856	3.6922	67.94	-0.2395	0.0392	0.2787	1081.4549	0.129134	-379.918275	-379.909174	-379.90823	-379.952382	32.292	
C	-0.4507765019	 1.3197325847	 0.0137378118	-0.356767
N	-0.158043568	-0.0961825416	-0.1038961545	-0.098172
C	-0.0851371815	-0.8939037601	 1.1151372569	-0.313749
C	-1.3315573682	-0.8927954469	 1.880750049	 0.309119
C	-2.3475561026	-0.8714289025	 2.5223770253	-0.45782
C	 0.1236220646	-0.726264027	-1.2982384992	 0.461076
N	 0.1302821895	 0.0996179166	-2.4169255646	-0.570673
O	 0.3117186957	-1.9285750462	-1.3905429326	-0.408419
H	 0.4557060077	 1.9373287681	 0.1063279854	 0.116004
H	-1.0293228047	 1.6627658719	-0.847175915	 0.145076
H	-1.0636509774	 1.4801731996	 0.9041851926	 0.150101
H	 0.167730121	-1.9086100522	 0.7977386761	 0.18305
H	 0.7316198251	-0.5323189393	 1.7575443744	 0.126514
H	-3.2489162637	-0.8748160624	 3.0839503579	 0.201565
H	 0.4576816705	 1.04756868	-2.3170899137	 0.251647
H	 0.5037469039	-0.3803951527	-3.2217416698	 0.261448
46.7433	96.2425	132.71	160.4283	229.066	299.1187	333.5355	371.7099	437.9904	444.8758	561.8507	591.0609	608.0897	614.4025	667.5008	774.3743	797.6693	945.9444	970.6514	1055.5951	1104.0176	1150.2104	1193.0523	1277.0775	1311.6271	1379.102	1424.2957	1470.3935	1488.188	1505.5633	1520.643	1623.8322	1778.2942	2237.47	2986.7645	2992.6553	3087.0791	3104.442	3126.0681	3504.9641	3583.1993	3694.6582
CN(CC#C)C(N)=O	CN(CC#C)C(=O)N	
InChI=1S/C5H8N2O/c1-3-4-7(2)5(6)8/h1H,4H2,2H3,(H2,6,8)	InChI=1S/C5H8N2O/c1-3-4-7(2)5(6)8/h1H,4H2,2H3,(H2,6,8)
