14
gdb 45403	2.24888	1.79101	1.26014	4.9719	66.4	-0.2948	-0.0237	0.2712	989.7345	0.101654	-436.705416	-436.698075	-436.697131	-436.737553	27.053	
O	-0.1241326867	 0.1899520137	 0.3702052698	-0.305002
C	-0.0039826798	 1.315003011	 0.0233668712	 0.446575
O	-0.9673520149	 2.1778736207	-0.4352602005	-0.249333
C	-0.0116808628	 3.2614501452	-0.6480787638	 0.075973
C	 0.0746002076	 4.196846021	 0.5694222177	-0.23716
C	 1.1703016978	 3.2828451832	 1.1964100993	-0.285341
C	 1.1283468443	 2.3583457263	-0.0784545086	-0.013127
C	 2.3554339707	 2.0095348843	-0.7408979311	 0.204102
N	 3.3470402715	 1.7489700828	-1.275392298	-0.327528
H	-0.058278113	 3.6390384882	-1.666918881	 0.127555
H	 0.4458675629	 5.1911810628	 0.3143166812	 0.132323
H	-0.8621298656	 4.2937203055	 1.1196631636	 0.13849
H	 2.1376031036	 3.7724436282	 1.3063990798	 0.148352
H	 0.9231475145	 2.770876927	 2.1268259304	 0.14412
116.2938	128.2363	172.358	218.3841	348.4916	412.2691	526.1899	541.4079	640.0848	655.4893	730.6558	760.4629	837.8692	871.3064	912.05	958.4623	981.718	1026.1363	1071.9581	1115.2846	1118.6635	1199.9375	1220.1815	1244.3003	1275.8688	1313.0545	1327.9137	1468.2721	1488.4528	1951.7558	2356.9123	3084.9971	3095.3445	3138.7062	3153.1081	3158.376
O=C1OC2CCC12C#N	O=C1O[C@H]2CC[C@@]12C#N	
InChI=1S/C6H5NO2/c7-3-6-2-1-4(6)9-5(6)8/h4H,1-2H2	InChI=1S/C6H5NO2/c7-3-6-2-1-4(6)9-5(6)8/h4H,1-2H2/t4-,6-/m0/s1
