23
gdb 99632	2.21403	1.11519	0.85499	0.5641	91.82	-0.2557	0.0548	0.3105	1482.8837	0.203323	-351.117778	-351.107094	-351.10615	-351.153627	39.598	
C	 0.103896504	 1.5552532786	-0.0992362807	-0.392861
C	 0.1651517063	 0.0313482191	 0.0140304135	-0.169913
C	 0.6394550961	-0.4746082713	 1.3988289096	-0.184818
C	-0.2718344031	-0.0500463778	 2.4643412187	 0.351855
C	-1.0407786194	 0.280282015	 3.3283631281	-0.483147
C	 0.7972850744	-1.9927025625	 1.3988156958	 0.016194
C	 2.0621994744	-2.6375396908	 0.8826991741	-0.315232
C	 1.7102003363	-2.7295207697	 2.3497583868	 0.0034
C	 2.5443056542	-2.031647749	 3.4027761783	-0.409879
H	 1.0904166395	 2.0045577512	 0.0622597659	 0.110928
H	-0.2414685329	 1.8600988391	-1.0918182804	 0.111401
H	-0.5801143498	 1.976994157	 0.6429556736	 0.131669
H	-0.821480233	-0.3992161706	-0.194755049	 0.102516
H	 0.8515058825	-0.3756574614	-0.7373938592	 0.09991
H	 1.6205708152	-0.0205033337	 1.5931156393	 0.096205
H	-1.708918367	 0.5762855214	 4.0986382642	 0.191928
H	-0.1308393097	-2.5056402489	 1.159003479	 0.086783
H	 1.9854466361	-3.5207988165	 0.2579673966	 0.108225
H	 2.8828955733	-1.9777301469	 0.6141810015	 0.10596
H	 1.3275379629	-3.6942478719	 2.6738082998	 0.082272
H	 2.9834560777	-1.1014101017	 3.0305255133	 0.114358
H	 1.9452907145	-1.7842773506	 4.2854204032	 0.127427
H	 3.3716929577	-2.6730665982	 3.7255407079	 0.114819
53.7179	93.4334	114.7337	151.965	174.4324	195.1855	248.4544	265.9619	306.0864	365.1545	418.7097	459.821	525.6917	577.7032	624.7088	628.3277	762.3397	776.4159	834.7714	855.0273	876.3817	919.5883	955.3466	994.6093	1036.4169	1049.8916	1068.9841	1097.7547	1111.0789	1123.8419	1152.1302	1177.1956	1198.0029	1247.2009	1270.0298	1281.5518	1339.7909	1362.8797	1390.4262	1410.8264	1417.6527	1426.9206	1485.0966	1492.1174	1495.3087	1498.1342	1504.7683	1507.9643	2228.6876	3012.4667	3031.7068	3033.5607	3034.489	3069.6705	3093.5622	3100.1347	3104.6733	3115.4416	3120.0757	3129.8327	3140.667	3204.7247	3504.1356
CCC(C#C)C1CC1C	CC[C@@H](C#C)[C@H]1C[C@H]1C	
InChI=1S/C9H14/c1-4-8(5-2)9-6-7(9)3/h1,7-9H,5-6H2,2-3H3	InChI=1S/C9H14/c1-4-8(5-2)9-6-7(9)3/h1,7-9H,5-6H2,2-3H3/t7-,8-,9+/m1/s1
