16
gdb 30380	3.24268	1.36131	1.04996	1.3641	86.62	-0.2338	-0.0666	0.1672	1136.5804	0.124972	-396.923806	-396.915875	-396.914931	-396.956575	29.189	
C	-0.0323826642	 1.3564290962	 0.410653834	-0.333252
N	-0.0540440913	-0.0648795124	 0.1212790802	-0.259968
C	-1.1366632559	-0.6285332308	-0.2455054405	 0.216203
C	-2.432171249	 0.0214465956	-0.5917044605	-0.05835
N	-3.6158693312	-0.3708419985	-0.2850689266	-0.201626
C	-3.8872910919	-1.5285644558	 0.3980109058	-0.018756
C	-3.1620578005	-2.6810901657	 0.4089706765	-0.009554
N	-1.9943775889	-2.9568221197	-0.2561707794	-0.202291
C	-1.1190234124	-2.0758949112	-0.5779116041	-0.02477
H	 0.4952321904	 1.5084960716	 1.3582957962	 0.140901
H	 0.5590240293	 1.8672556736	-0.3596672681	 0.138
H	-1.0160981547	 1.8390521583	 0.4793117184	 0.114856
H	-2.3621527421	 0.9105776026	-1.2218737438	 0.130948
H	-4.8676010268	-1.5457343041	 0.8675670131	 0.116116
H	-3.6064007375	-3.5470132514	 0.8937179453	 0.117255
H	-0.2566453335	-2.4089124781	-1.1579548365	 0.134289
72.7609	125.6309	188.8291	229.4358	304.3653	336.3318	404.5693	458.367	502.4063	570.3383	665.8307	684.2855	833.7912	867.9814	911.718	931.9924	949.3567	969.226	974.8326	1036.0731	1114.2749	1123.8935	1154.7544	1243.8862	1289.0541	1375.3828	1401.673	1433.4312	1462.916	1475.9803	1501.3091	1550.9082	1644.442	1655.9938	1711.766	3001.8197	3068.7564	3083.9432	3103.4797	3118.5892	3150.8731	3170.9729
CN=C1C=NC=CN=C1	CN=c1cnccnc1	
InChI=1S/C6H7N3/c1-7-6-4-8-2-3-9-5-6/h2-5H,1H3	InChI=1S/C6H7N3/c1-7-6-4-8-2-3-9-5-6/h2-5H,1H3
