19
gdb 105075	2.68692	1.15179	1.07331	2.5917	70.8	-0.2639	0.0695	0.3334	1226.8598	0.156808	-460.114435	-460.10508	-460.104136	-460.149271	34.349	
C	-0.3414800769	-2.3561119035	 3.3192414948	-0.428769
C	-0.0359368842	-2.0157629852	 1.8842685131	 0.089555
O	-0.7450928181	-0.9197966305	 1.2932086129	-0.254044
C	 0.6706278299	-0.7938739919	 1.4602223496	-0.048732
C	 1.1505882947	 0.275685109	 2.4104728356	 0.323979
C	 0.1248570424	 1.3197562251	 2.8413754913	-0.129367
O	 0.7299276809	 2.367224921	 3.5647840753	-0.420219
C	 2.356263908	 0.0553373973	 3.2220840378	-0.213764
O	 2.409956157	 0.8615476639	 2.0333588015	-0.291046
H	-0.3456692712	-1.468946854	 3.9561417792	 0.133103
H	-1.3215620037	-2.8378245592	 3.395081228	 0.135521
H	 0.4058208151	-3.0565042235	 3.7076142692	 0.125827
H	 0.0471285503	-2.8780117813	 1.2196202769	 0.094694
H	 1.2444659366	-0.8229460859	 0.5328948625	 0.109384
H	-0.3948499005	 1.6855207729	 1.942664613	 0.109709
H	-0.6336239291	 0.8679307561	 3.486529609	 0.124495
H	 1.4990872609	 2.6351529521	 3.0447169768	 0.29215
H	 2.4748790137	 0.603466528	 4.1533786431	 0.131484
H	 2.8813351943	-0.8958405404	 3.1534789604	 0.116039
31.8008	110.6836	160.9673	176.1408	198.3128	278.5627	320.6884	364.3168	396.105	417.4508	481.243	517.4544	619.3811	719.7817	787.5304	824.3482	858.7262	925.0655	940.8778	990.6311	1019.7936	1060.3478	1082.3519	1107.8478	1128.5865	1154.2489	1168.7749	1173.6945	1223.1479	1243.7813	1293.1079	1346.9293	1375.2483	1408.2952	1419.9881	1433.692	1462.3354	1484.5661	1496.2579	1504.8688	1512.4269	2995.9034	3041.2966	3086.5926	3092.6791	3094.4808	3103.3285	3104.9405	3133.6178	3190.6431	3766.9854
CC1OC1C1(CO)CO1	C[C@H]1O[C@H]1[C@@]1(CO)CO1	
InChI=1S/C6H10O3/c1-4-5(9-4)6(2-7)3-8-6/h4-5,7H,2-3H2,1H3	InChI=1S/C6H10O3/c1-4-5(9-4)6(2-7)3-8-6/h4-5,7H,2-3H2,1H3/t4-,5-,6-/m1/s1
