16
gdb 97784	2.91348	0.81014	0.68603	2.9271	79.96	-0.2567	0.0058	0.2625	1613.4472	0.122932	-400.709451	-400.699936	-400.698992	-400.745634	32.805	
O	 0.0595132065	 1.2131630271	-0.6870041864	-0.40933
C	-0.0424092108	 0.1279781315	 0.226815521	-0.218298
C	-1.3892269603	-0.4252264259	 0.1859864891	 0.125081
C	-2.492360412	-0.906834338	 0.1628960672	 0.079647
C	-3.801492641	-1.4840206586	 0.1333900249	-0.19208
C	-4.3810820397	-1.9996807708	-1.1630703584	-0.281883
C	-3.9790481157	-2.9960896079	-0.0986698406	-0.169322
C	-2.8295625246	-3.8332624663	-0.2907965371	 0.295896
N	-1.9111948369	-4.5209194173	-0.437311746	-0.333244
H	 0.9684532341	 1.5288950119	-0.6555841783	 0.29132
H	 0.6730773764	-0.673209552	-0.0184903277	 0.129499
H	 0.1806775863	 0.4501174936	 1.2571201928	 0.119447
H	-4.5147779016	-1.0705768789	 0.840571719	 0.128356
H	-5.4420035971	-1.8650834891	-1.336956421	 0.13656
H	-3.7519978679	-1.9343520211	-2.0416026418	 0.157496
H	-4.7773692558	-3.4650598282	 0.4662700731	 0.140855
27.4249	60.2466	96.1726	164.9237	204.503	229.2972	248.0008	310.9238	445.2366	448.9995	540.6396	581.3713	634.9024	724.1973	766.841	835.6308	898.7875	958.3085	1020.2476	1024.923	1059.8036	1086.7477	1117.9362	1132.6323	1168.1106	1228.216	1247.0575	1257.4463	1374.5785	1394.2652	1460.8253	1480.1111	1500.2873	2358.1918	2372.3737	2966.8589	2988.3909	3147.8494	3153.5766	3173.5374	3251.8788	3818.6045
OCC#CC1CC1C#N	OCC#C[C@H]1C[C@H]1C#N	
InChI=1S/C7H7NO/c8-5-7-4-6(7)2-1-3-9/h6-7,9H,3-4H2	InChI=1S/C7H7NO/c8-5-7-4-6(7)2-1-3-9/h6-7,9H,3-4H2/t6-,7-/m0/s1
