19
gdb 46300	3.00524	1.31906	1.20343	2.6514	82.14	-0.2274	-0.0192	0.2081	1123.3021	0.159814	-385.913854	-385.905731	-385.904787	-385.947201	30.906	
O	 0.1001280586	 0.0270875592	 0.0457155903	-0.302354
C	-0.0312638945	 1.2165171991	 0.0628384014	 0.356042
C	-1.2238560085	 2.1610365797	 0.2637713776	-0.339641
C	-0.1950222124	 3.2899939386	 0.5711297142	-0.296654
C	 0.9878935395	 2.3841454119	 0.0603750076	 0.214176
C	 2.2762581547	 2.1832661477	 0.8961737554	-0.305815
C	 3.4449131924	 2.7725480219	 0.0626175884	-0.262936
C	 2.8343366476	 2.9608183603	-1.3019648557	-0.073393
C	 1.5188843181	 2.7539913055	-1.3042950739	-0.110523
H	-1.7779859532	 2.3184247476	-0.6675909506	 0.13152
H	-1.9343733079	 1.8753394709	 1.0433230437	 0.128411
H	-0.3354348495	 4.2275958399	 0.0309575929	 0.107343
H	-0.1144761215	 3.5037002075	 1.6395945081	 0.111079
H	 2.1925875272	 2.6358148704	 1.8875541235	 0.101313
H	 2.4226263663	 1.1079406922	 1.0387783757	 0.12886
H	 3.8024491098	 3.7305252522	 0.4641861065	 0.108166
H	 4.3155326928	 2.1070167393	 0.0451252475	 0.111263
H	 3.414195248	 3.2621303975	-2.1678256694	 0.097473
H	 0.8671407624	 2.8590690387	-2.1653083132	 0.09567
59.8371	75.8164	153.3697	225.2877	290.8789	373.3798	456.2333	501.5641	580.555	668.635	730.6801	750.6804	769.1097	794.9712	836.1052	893.1083	914.1933	931.0081	945.1155	974.1111	996.8981	1038.7223	1059.6952	1079.1772	1111.441	1151.1246	1182.9846	1196.7059	1210.095	1226.4859	1256.7685	1268.8367	1308.2498	1317.7376	1378.5496	1440.7093	1477.937	1487.8092	1496.3805	1681.1392	1883.6606	3015.3398	3049.6865	3055.9609	3059.5805	3070.719	3102.1337	3110.518	3130.7053	3177.0715	3202.6359
O=C1CCC11CCC=C1	O=C1CC[C@]21CCC=C2	
InChI=1S/C8H10O/c9-7-3-6-8(7)4-1-2-5-8/h1,4H,2-3,5-6H2	InChI=1S/C8H10O/c9-7-3-6-8(7)4-1-2-5-8/h1,4H,2-3,5-6H2/t8-/m1/s1
