13
gdb 124168	6.51101	0.78958	0.7073	3.9656	75.76	-0.2485	-0.0537	0.1949	1524.152	0.087733	-452.708545	-452.700227	-452.699282	-452.744063	28.481	
C	-0.1282203597	 1.4211224433	-0.0318069569	-0.513714
C	-0.0421292547	-0.0261028976	 0.0202366906	 0.3141
C	 0.0319325729	-1.2277720411	 0.064425639	-0.098989
C	 0.1097863978	-2.6298374465	 0.1127672629	 0.270324
N	 1.1238344585	-3.3221030956	 0.5047448019	-0.188433
O	 0.7020840391	-4.6650459647	 0.3637662653	-0.23469
C	-0.5792193649	-4.682270221	-0.1194572257	 0.475348
N	-1.3209008508	-5.6541624312	-0.3861636972	-0.58392
O	-0.9618476224	-3.3745823255	-0.2815095357	-0.19858
H	 0.6601376363	 1.8354922743	-0.6689768682	 0.170608
H	-1.0949716067	 1.7383398493	-0.4355616595	 0.170834
H	-0.017611448	 1.8541736441	 0.9679454646	 0.170546
H	-0.8507224274	-6.5355676978	-0.1968389911	 0.246565
10.3412	83.0956	91.2286	191.0131	306.7252	314.9548	431.1229	460.0026	469.8814	567.298	703.5709	736.1681	755.0422	782.5289	905.353	927.9497	969.324	1010.4116	1046.9875	1050.6279	1079.4219	1261.2472	1384.0594	1410.4308	1467.6963	1468.6031	1642.3064	1818.3181	2372.9559	3035.4151	3101.0725	3106.2087	3549.031
CC#CC1=NOC(=N)O1	CC#CC1=NO[C@@H]([NH])O1	
InChI=1S/C5H4N2O2/c1-2-3-4-7-9-5(6)8-4/h6H,1H3	InChI=1S/C5H5N2O2/c1-2-3-4-7-9-5(6)8-4/h5-6H,1H3/t5-/m0/s1
