18
gdb 117010	4.99153	0.55221	0.52174	5.1458	82.24	-0.2503	-0.0159	0.2344	2121.041	0.145046	-439.076857	-439.065875	-439.064931	-439.116525	36.381	
C	 0.379607054	 1.3471949283	 0.145668618	-0.370373
C	-0.3843788287	 0.0855533563	-0.2654042366	-0.151979
N	 0.2092706183	-0.5969087485	-1.4043952656	-0.313679
C	 1.004662679	-1.6990013746	-1.2653801931	 0.262858
O	 1.2429135608	-2.2370748178	-0.1984498469	-0.361555
C	 1.5423120922	-2.1892757413	-2.527174692	-0.051472
C	 2.0133409879	-2.6308915238	-3.544657644	 0.191632
C	 2.5666981675	-3.144846122	-4.7904934277	-0.221591
O	 3.4185417886	-4.2461903164	-4.5198454374	-0.401218
H	 1.4049551514	 1.098036944	 0.4325251684	 0.138478
H	 0.419334383	 2.0739574905	-0.6728768007	 0.110974
H	-0.1101999266	 1.8275853085	 0.998698537	 0.120141
H	-0.3927352004	-0.6368837764	 0.5532731572	 0.151552
H	-1.4246311087	 0.3307686833	-0.5084595279	 0.105481
H	 0.1216250746	-0.1921824773	-2.322748037	 0.24924
H	 1.7324109059	-3.4305207825	-5.4525519275	 0.124391
H	 3.1080219221	-2.3288574728	-5.2975966323	 0.123365
H	 3.759584479	-4.5617914875	-5.3629850119	 0.293755
13.4247	23.292	59.4686	74.6127	157.7368	179.5813	220.2181	230.5026	318.119	363.1481	403.0578	436.1874	467.8786	548.6321	620.5978	756.1548	763.0368	857.7911	902.0416	1010.4347	1019.6156	1065.4954	1096.4939	1139.972	1170.9039	1240.4661	1247.4655	1264.8106	1326.5515	1393.1103	1409.553	1458.5315	1477.2883	1491.8769	1495.8054	1501.5312	1537.4283	1754.7514	2351.0695	2960.9465	2979.194	3035.3594	3040.1902	3098.6913	3117.7629	3128.7996	3638.4139	3819.7207
CCNC(=O)C#CCO	CCNC(=O)C#CCO	
InChI=1S/C6H9NO2/c1-2-7-6(9)4-3-5-8/h8H,2,5H2,1H3,(H,7,9)	InChI=1S/C6H9NO2/c1-2-7-6(9)4-3-5-8/h8H,2,5H2,1H3,(H,7,9)
