19
gdb 93373	3.12122	1.39697	1.07318	3.4999	76.38	-0.2182	-0.0192	0.1989	1140.0262	0.160712	-419.198261	-419.190069	-419.189125	-419.230996	31.752	
C	-0.1068177539	 1.5310638754	 0.0465448538	-0.407677
C	 0.0070582418	 0.0060940194	 0.0293360099	 0.051351
N	 0.6743428064	-0.4168579144	-1.1968041485	-0.299954
C	 0.8211271389	-1.8543987626	-1.3532264341	-0.276539
C	 1.5356600384	-2.5248874967	-0.1821833302	 0.437239
O	 1.9382409863	-3.663022616	-0.2602541579	-0.320232
C	 1.5801644263	-1.7633142254	 1.1074917752	-0.164356
N	 2.2558900833	-0.4351501798	 1.0968243207	-0.31065
C	 0.8028118471	-0.4959462076	 1.2259992198	-0.022382
H	 0.8901494251	 1.9770360373	 0.0006586764	 0.142695
H	-0.6877581176	 1.8894263349	-0.8102556919	 0.109921
H	-0.6102875206	 1.875130119	 0.9553100858	 0.112525
H	-1.0097339144	-0.4282630986	 0.1257605257	 0.053421
H	 0.2061357239	-0.020045795	-2.0023710396	 0.22235
H	-0.1430730184	-2.3984660656	-1.4377434033	 0.105431
H	 1.3834985518	-2.0739369567	-2.2651553436	 0.134289
H	 1.7211553149	-2.3965839948	 1.9786547776	 0.101709
H	 2.6846780638	-0.2986755777	 2.0090902581	 0.24013
H	 0.355683477	-0.280399635	 2.1944481963	 0.090729
68.3737	177.7903	207.2273	238.5851	279.6143	336.9564	396.9246	415.9434	478.8722	583.3644	599.4765	644.9578	730.5194	753.5498	846.767	860.2303	902.4528	918.735	964.8591	1004.193	1033.1622	1069.8509	1105.2523	1126.3158	1158.6165	1160.0316	1201.9494	1239.9902	1254.4372	1276.3097	1310.8371	1353.6987	1388.0385	1400.356	1404.9715	1436.6112	1462.3216	1481.4374	1500.8839	1511.9372	1810.2479	2878.7998	2887.1913	3036.0116	3087.9408	3101.0534	3126.0162	3129.0299	3157.0313	3499.8153	3544.9303
CC1NCC(=O)C2NC12	C[C@H]1NCC(=O)[C@H]2N[C@@H]12	
InChI=1S/C6H10N2O/c1-3-5-6(8-5)4(9)2-7-3/h3,5-8H,2H2,1H3	InChI=1S/C6H10N2O/c1-3-5-6(8-5)4(9)2-7-3/h3,5-8H,2H2,1H3/t3-,5+,6-/m1/s1
