17
gdb 71130	2.93959	1.96518	1.66084	0.4504	65.89	-0.2247	0.07	0.2946	870.7483	0.136763	-458.940513	-458.933564	-458.93262	-458.97157	28.031	
C	-0.0106280408	 1.4843184929	 0.0983688995	-0.460121
C	 0.0177644179	-0.020914377	-0.0098289751	 0.37764
C	 0.6669642399	-0.554958921	-1.2911362941	-0.066474
O	 0.6520338728	-1.9856372435	-1.311544648	-0.278424
C	 0.0628443316	-2.5662149771	-0.1867298271	 0.052266
C	 0.2302661809	-1.9121456576	 1.1689754377	-0.010446
O	 0.7150767953	-0.590523095	 1.1005399676	-0.282386
C	-1.1183358105	-1.8877756768	 0.4753403174	-0.010463
O	-1.3067962748	-0.5539797914	 0.060797326	-0.282373
H	 1.0063247668	 1.8829408633	 0.0815414578	 0.134754
H	-0.5747270842	 1.9118442554	-0.7337356849	 0.134711
H	-0.4895891925	 1.7684666734	 1.0372706511	 0.14174
H	 0.1191539976	-0.184307154	-2.1665230096	 0.106152
H	 1.7076910006	-0.2126277159	-1.3499722836	 0.106161
H	 0.0777331949	-3.6485037531	-0.2538002692	 0.112656
H	 0.4891700902	-2.4247914679	 2.0862820864	 0.1123
H	-2.0294214457	-2.3793842348	 0.7908293882	 0.112305
149.7436	171.1297	276.1488	303.6624	409.6025	434.5249	566.3517	578.5892	657.0765	726.0621	751.9579	762.7952	765.5845	841.9393	858.7532	910.0966	959.2702	999.2273	1010.4287	1055.722	1074.8751	1094.5531	1101.6543	1119.887	1145.6079	1186.6222	1247.5528	1249.2936	1270.03	1318.5394	1321.5524	1391.1184	1412.0231	1447.1122	1481.1632	1485.4117	1505.503	3013.7421	3055.9182	3060.8846	3139.8259	3146.0511	3174.2436	3195.5853	3204.4039
CC12COC3C(O1)C3O2	C[C@@]12CO[C@H]3[C@@H](O1)[C@H]3O2	
InChI=1S/C6H8O3/c1-6-2-7-3-4(8-6)5(3)9-6/h3-5H,2H2,1H3	InChI=1S/C6H8O3/c1-6-2-7-3-4(8-6)5(3)9-6/h3-5H,2H2,1H3/t3-,4+,5-,6+
