20
gdb 78075	1.98331	1.59265	1.52287	2.2315	80.5	-0.2384	-0.0362	0.2021	1065.4285	0.169795	-403.104807	-403.095705	-403.094761	-403.138354	33.961	
C	-0.2042333863	 1.4198701805	 1.1023438316	-0.433353
C	 0.0821282792	-0.0284525405	 0.7210911957	-0.019552
C	 0.3818255246	-0.4218668167	-0.7292834722	-0.069495
C	 1.6771236043	 0.0694019647	-1.2900582341	-0.073669
C	 2.2160136239	 1.4606815599	-1.2284880149	 0.142142
O	 2.7213233914	 2.065430958	-0.3146520092	-0.260861
N	 1.6896785601	-1.0941487801	-0.3793224626	-0.172659
C	 1.4344018737	-0.7382472658	 1.0742160017	 0.061414
C	 2.5422242565	-0.0930215944	 1.8830033085	-0.430961
H	 0.6173367269	 2.092198904	 0.8559838353	 0.150833
H	-1.105427681	 1.7774304032	 0.591525504	 0.114155
H	-0.3865903973	 1.4971910506	 2.1794851105	 0.117571
H	-0.7471890209	-0.6472234552	 1.0780065402	 0.086408
H	-0.3380744307	-0.8899609601	-1.3957111789	 0.101923
H	 1.8206443429	-0.2998484892	-2.3073364652	 0.111262
H	 2.1114303674	 1.9488943365	-2.2255954222	 0.085647
H	 1.2016604576	-1.7052384712	 1.531148499	 0.092365
H	 2.817181745	 0.8912254088	 1.5089646881	 0.166222
H	 2.2267822905	-0.0058748474	 2.9289946999	 0.109745
H	 3.4304408722	-0.7340825657	 1.8583045751	 0.120863
83.8686	161.546	173.6057	203.2207	218.2196	231.9011	249.5696	273.8677	404.3992	517.5375	533.8216	646.7108	698.9969	751.1725	755.2196	810.0053	861.4003	905.0652	936.7233	1022.8311	1031.9822	1045.7138	1054.9778	1088.7311	1107.6221	1111.6679	1185.9491	1202.1689	1257.5158	1266.4354	1300.6711	1354.3211	1378.2639	1386.7001	1414.4324	1417.4681	1423.6681	1441.5466	1487.8545	1498.2338	1511.0539	1521.688	1815.2819	2858.6719	3033.5629	3037.6561	3042.0398	3060.2311	3091.7575	3094.2525	3095.7462	3142.3698	3155.7295	3175.9293
CC1C2C(C=O)N2C1C	C[C@H]1[C@H]2[C@@H](C=O)N2[C@H]1C	
InChI=1S/C7H11NO/c1-4-5(2)8-6(3-9)7(4)8/h3-7H,1-2H3	InChI=1S/C7H11NO/c1-4-5(2)8-6(3-9)7(4)8/h3-7H,1-2H3/t4-,5+,6-,7+,8?/m1/s1
