25
gdb 116033	2.30187	1.27037	0.9366	0.212	94.2	-0.2351	0.0332	0.2683	1391.4386	0.230312	-352.384763	-352.375115	-352.374171	-352.418861	37.591	
C	 0.0408482677	 1.6054762186	 0.1581510283	-0.392756
C	 0.0147035912	 0.0917855224	-0.0832700892	-0.195464
C	-1.398333203	-0.5165684304	-0.1069067007	 0.044995
C	-2.207683606	-0.1241645896	-1.3545770748	-0.207279
C	-3.6739369725	-0.560880334	-1.2243690808	-0.259696
C	-3.8002357317	-1.9545511992	-0.6686807995	-0.051585
C	-2.7906433877	-2.6142898599	-0.1023917579	-0.061326
C	-1.3960649371	-2.0578526568	 0.0663714715	-0.034627
C	-0.408630575	-2.8081656779	-0.8519573012	-0.390473
H	 1.0691033693	 1.9791117152	 0.1936568789	 0.110328
H	-0.4790669751	 2.1562352304	-0.6319297813	 0.118073
H	-0.4386110151	 1.8612834991	 1.1097955509	 0.112925
H	 0.5312316875	-0.1344167557	-1.0246861616	 0.095131
H	 0.5977305649	-0.3992309992	 0.7074094072	 0.08947
H	-1.9375182548	-0.1158568992	 0.7651558928	 0.065995
H	-2.15768255	 0.9558754618	-1.5256844386	 0.089718
H	-1.7631476047	-0.5980558546	-2.2392850868	 0.097215
H	-4.2189919565	 0.141094965	-0.5748404157	 0.104681
H	-4.1768517336	-0.5018018241	-2.1983291705	 0.098387
H	-4.7779041445	-2.4265101079	-0.7404640935	 0.079308
H	-2.9482557927	-3.6292393822	 0.2587617787	 0.07758
H	-1.0791701391	-2.2655328374	 1.0994848492	 0.070123
H	-0.6129800066	-2.6086457213	-1.9086131348	 0.117037
H	 0.628919225	-2.5309818316	-0.6447265764	 0.112655
H	-0.4989398896	-3.8893311518	-0.7030135241	 0.109586
87.4476	118.5207	153.9648	212.6091	224.5638	253.0283	285.4193	307.598	361.6605	439.1523	475.3144	495.1303	578.0749	711.1525	740.8681	770.0574	793.5437	860.8296	882.9142	922.0153	957.5687	978.9699	1004.6986	1010.6519	1027.4766	1047.524	1060.8163	1102.465	1113.7157	1142.2686	1145.9481	1188.6176	1231.1676	1265.4459	1290.6153	1309.0429	1336.3562	1345.144	1348.1604	1370.2327	1387.98	1398.6732	1404.5749	1412.6507	1423.5513	1475.3285	1484.164	1493.8815	1498.9459	1502.3512	1503.5946	1510.1664	1724.5133	2976.3515	2990.5387	2992.6235	3012.2172	3022.939	3031.8945	3035.3279	3039.4208	3048.8913	3074.4513	3097.6462	3099.4191	3104.6745	3112.2132	3129.7283	3155.8552
CCC1CCC=CC1C	CC[C@H]1CCC=C[C@H]1C	
InChI=1S/C9H16/c1-3-9-7-5-4-6-8(9)2/h4,6,8-9H,3,5,7H2,1-2H3	InChI=1S/C9H16/c1-3-9-7-5-4-6-8(9)2/h4,6,8-9H,3,5,7H2,1-2H3/t8-,9+/m1/s1
