15
gdb 127183	4.38045	1.09505	0.88094	2.717	69.85	-0.2352	-0.0222	0.213	1224.4119	0.114668	-450.149926	-450.141857	-450.140912	-450.183666	28.415	
C	 0.0362924225	 1.4498944729	-0.014133504	-0.360663
N	-0.0024330775	-0.0062665045	-0.0110109487	-0.189863
C	-0.0473638424	-0.6849701207	 1.1923423615	 0.15066
O	-0.05747183	-0.1427879083	 2.2743052991	-0.332484
C	 0.0073505307	-0.6736094952	-1.231911634	 0.434018
N	-0.0258714638	-2.0042088226	-1.3401902105	-0.311632
N	-0.0010326984	-2.191598337	-2.6584785395	-0.064079
N	 0.0450010258	-1.1126897844	-3.4136401981	-0.190648
C	 0.051680932	-0.1152319663	-2.5270736283	-0.142931
H	 0.9488444358	 1.8130443291	-0.4985611968	 0.136755
H	-0.8325107032	 1.8602662594	-0.5395449193	 0.136758
H	 0.0210006639	 1.7739254606	 1.0252629456	 0.176662
H	-0.073215098	-1.7751503457	 1.0506460835	 0.127773
H	-0.0169344506	-3.1177155819	-3.0533639762	 0.299211
H	 0.0864629331	 0.9126608745	-2.8449290842	 0.130461
32.1474	129.2672	170.9278	190.6606	292.6114	323.1307	383.4135	453.6299	490.0761	492.7041	709.543	736.245	814.8209	848.0276	967.4022	996.528	1040.2382	1046.7584	1153.0109	1159.6918	1184.4715	1241.7545	1246.4776	1333.6605	1372.5559	1427.8923	1434.071	1441.0503	1499.2527	1502.0594	1532.1675	1593.6129	1796.2902	3033.0432	3041.9165	3090.8718	3170.7245	3287.4631	3673.4367
CN(C=O)C1=NNN=C1	CN(C=O)c1n[nH]nc1	
InChI=1S/C4H6N4O/c1-8(3-9)4-2-5-7-6-4/h2-3H,1H3,(H,5,6,7)	InChI=1S/C4H6N4O/c1-8(3-9)4-2-5-7-6-4/h2-3H,1H3,(H,5,6,7)
