19
gdb 113595	4.44656	0.91235	0.83857	1.7041	71.37	-0.2522	0.0654	0.3176	1386.5063	0.159149	-460.137599	-460.128889	-460.127945	-460.171802	32.098	
O	-0.0023987442	 1.3405705914	-0.5275581476	-0.416067
C	 0.0475935903	 0.1599958482	 0.2547820407	-0.083652
C	-1.3068106492	-0.4991585275	 0.3274186395	-0.059947
O	-1.7240199736	-1.1636221705	-0.8826991038	-0.297498
C	-1.5182459006	-1.9500266135	 0.2962122586	 0.394985
C	-0.439431391	-3.0368497945	 0.2604183709	-0.32632
C	-1.1352857981	-4.2197432275	 0.9611741717	-0.084655
O	-2.5288333469	-4.0120009781	 0.7685852022	-0.242055
C	-2.7438531936	-2.6193644876	 0.9170975606	-0.152985
H	-0.331823678	 1.0830209812	-1.3962373946	 0.293902
H	 0.7876542017	-0.5523296896	-0.1371345478	 0.093083
H	 0.3705798526	 0.4677200567	 1.2556491242	 0.112637
H	-2.0848523345	 0.1263192292	 0.7713086924	 0.095508
H	-0.2140874305	-3.268728533	-0.7838266721	 0.131053
H	 0.4901064238	-2.7463112182	 0.7549779518	 0.112844
H	-0.8789074534	-5.194073146	 0.5399351034	 0.11727
H	-0.8927247493	-4.2305488644	 2.0366406794	 0.091835
H	-2.8296392618	-2.3488790732	 1.9835866701	 0.092291
H	-3.6662874936	-2.3423634131	 0.4021607901	 0.127771
51.1579	81.8835	139.4398	185.2584	260.4185	308.3205	395.715	408.3517	419.9671	486.6201	592.3144	675.9179	763.0797	801.9028	869.3512	895.9671	952.3201	975.3908	990.5311	997.8015	1063.4156	1079.2906	1106.5425	1112.6439	1135.8004	1204.6999	1220.2684	1227.1879	1231.9134	1270.9637	1295.4469	1322.4462	1349.0278	1377.056	1403.1351	1422.9875	1479.4237	1491.0706	1495.6058	1505.0347	1519.0468	2957.6164	2970.4397	3003.2161	3068.4045	3069.873	3090.541	3104.1079	3108.8359	3119.8315	3800.9602
OCC1OC11CCOC1	OC[C@H]1O[C@]21CCOC2	
InChI=1S/C6H10O3/c7-3-5-6(9-5)1-2-8-4-6/h5,7H,1-4H2	InChI=1S/C6H10O3/c7-3-5-6(9-5)1-2-8-4-6/h5,7H,1-4H2/t5-,6-/m1/s1
