17
gdb 17641	3.25939	1.41441	1.23373	3.6389	64.56	-0.2469	0.0258	0.2726	1034.4428	0.140663	-401.012724	-401.003679	-401.002734	-401.047357	31.587	
C	 0.1581618278	 1.5258502361	 0.2044512865	-0.395054
C	-0.1100259695	 0.0181030248	 0.0598366256	-0.128729
C	 0.5383157701	-0.7469173264	 1.1998110474	 0.11343
C	 1.1923361656	-2.0452312635	 1.0048080336	-0.184717
O	 1.9613509889	-0.8480623476	 1.1569545408	-0.244083
C	-1.6177448209	-0.2471711095	 0.0964877587	 0.416809
N	-2.151379504	-0.7888397722	-1.0356136601	-0.52807
O	-2.2875175973	 0.0022203894	 1.0813988621	-0.375134
H	 1.2340226128	 1.7080718811	 0.2672618916	 0.13435
H	-0.240193493	 2.0823260526	-0.6493506126	 0.114416
H	-0.3214067	 1.9041945312	 1.1110185002	 0.14356
H	 0.3241424286	-0.3406662598	-0.8808289196	 0.069381
H	 0.1245148359	-0.5178345231	 2.1812748064	 0.115381
H	 1.2565525156	-2.7515054475	 1.8309583824	 0.119677
H	 1.2188508338	-2.4920433999	 0.0112563657	 0.107179
H	-1.6121230555	-0.9312565246	-1.8707365076	 0.259807
H	-3.1479245692	-0.932160591	-1.0706699812	 0.261796
31.4468	74.6283	163.017	175.1191	228.5065	233.6761	244.5084	365.5087	406.8541	491.5204	591.0261	620.2294	758.5632	805.3687	844.3693	873.8479	949.3344	970.1778	1037.7165	1073.3282	1110.3942	1116.4015	1153.2972	1177.541	1187.9248	1252.622	1285.4551	1312.5297	1385.1794	1406.5086	1438.6261	1495.4373	1501.8505	1529.2339	1616.5725	1790.7092	3037.0362	3044.2994	3081.4884	3116.3475	3124.5975	3132.1265	3168.6325	3600.2696	3740.1749
CC(C1CO1)C(N)=O	C[C@@H]([C@H]1CO1)C(=O)N	
InChI=1S/C5H9NO2/c1-3(5(6)7)4-2-8-4/h3-4H,2H2,1H3,(H2,6,7)	InChI=1S/C5H9NO2/c1-3(5(6)7)4-2-8-4/h3-4H,2H2,1H3,(H2,6,7)/t3-,4+/m0/s1
