18
gdb 51183	3.84472	1.11919	1.05106	2.5971	72.07	-0.2316	0.0251	0.2567	1175.6495	0.148523	-439.093035	-439.084853	-439.083909	-439.126672	30.648	
O	 0.0552001091	 0.117712866	 1.0781488948	-0.314952
C	 0.0246438567	 1.2174783043	 0.5741271161	 0.136785
N	 1.0780292343	 1.8321443144	-0.0404185651	-0.380336
C	 2.3477694429	 1.2046990322	-0.2248333185	 0.357552
C	 3.2264967606	 0.9403041031	 0.9834355054	-0.33026
C	 3.6414997174	 1.9563441448	-0.0505392963	 0.044367
O	 4.5538519988	 1.597151323	-1.0488631852	-0.257421
C	 4.1090040831	 0.364394098	-1.6262451863	-0.096544
C	 2.5783133125	 0.308906602	-1.438719156	-0.288809
H	-0.8781092421	 1.8623496196	 0.5723405111	 0.07349
H	 0.8988123724	 2.7075311397	-0.5100774565	 0.245567
H	 2.8639423785	 1.3280108446	 1.9280028819	 0.127746
H	 3.7459907551	-0.0084503198	 1.0555052716	 0.124033
H	 3.6918535085	 3.0100603491	 0.1991535799	 0.106013
H	 4.4209202347	 0.3569764434	-2.6735431054	 0.115585
H	 4.5955299242	-0.4818239877	-1.1231600332	 0.106993
H	 2.2139118187	-0.7116572312	-1.2979207241	 0.127164
H	 2.0566032045	 0.7427878846	-2.2987498442	 0.103028
31.225	124.2682	198.9208	218.143	255.6907	358.5173	402.7275	454.1749	526.6143	559.2281	681.0174	704.2063	801.5996	842.2842	869.2888	931.031	944.4002	977.1891	1006.3567	1024.2911	1033.3414	1038.178	1072.8755	1107.6431	1157.5281	1171.5149	1210.9459	1239.7801	1265.8126	1276.4154	1315.5443	1375.7429	1411.2529	1432.706	1478.3424	1497.9628	1506.5028	1528.2877	1813.6017	2924.0356	3013.1435	3047.5685	3093.6735	3107.9976	3145.8387	3180.3321	3234.7603	3601.6962
O=CNC12CC1OCC2	O=CN[C@]12C[C@H]1OCC2	
InChI=1S/C6H9NO2/c8-4-7-6-1-2-9-5(6)3-6/h4-5H,1-3H2,(H,7,8)	InChI=1S/C6H9NO2/c8-4-7-6-1-2-9-5(6)3-6/h4-5H,1-3H2,(H,7,8)/t5-,6-/m1/s1
