20
gdb 46507	3.57086	1.19414	1.03368	3.8861	79.37	-0.234	0.0349	0.2689	1200.294	0.1735	-403.188463	-403.180341	-403.179396	-403.221203	31.916	
O	 0.0186917958	-0.0991389144	 0.0351895989	-0.378823
C	-0.0155606157	 1.1179035329	 0.0225924816	 0.392288
C	-1.3301952923	 1.8924094962	 0.0445197099	-0.301741
C	-1.2020642327	 3.3407156608	 0.5352129528	-0.302339
C	-0.0449472927	 4.0133720422	-0.1753443577	 0.383647
C	-0.2804751153	 4.6052752852	-1.5439624403	-0.297171
C	-0.0181903579	 5.5049888521	-0.3572376189	-0.334104
C	 1.2649286523	 3.3073142395	 0.1014063595	-0.222572
N	 1.1296591808	 1.8646023076	-0.068819423	-0.309721
H	-1.7132418226	 1.8817152433	-0.983675123	 0.129906
H	-2.0326517673	 1.3103112459	 0.6454470826	 0.126055
H	-2.1355238031	 3.886247631	 0.3608506927	 0.098714
H	-1.026484713	 3.3550716803	 1.6194741199	 0.103733
H	 0.4982244614	 4.5058417962	-2.2927493439	 0.11532
H	-1.2880530711	 4.5728632456	-1.9456089715	 0.114499
H	-0.8456850043	 6.0807974812	 0.0436125356	 0.114985
H	 0.9397403643	 6.0128828316	-0.305213981	 0.112703
H	 2.0454664046	 3.673820564	-0.5757981153	 0.105594
H	 1.5955366452	 3.5400963888	 1.1266355676	 0.106322
H	 1.9709397934	 1.3058642	-0.0430744565	 0.242704
73.598	137.9401	176.2118	269.3064	336.9285	357.9495	429.2878	442.8616	506.7664	549.3058	659.4389	663.1428	750.2787	777.1341	782.9376	867.1057	913.9343	931.3341	957.5627	997.6172	1017.5726	1024.3059	1056.6388	1076.8878	1086.1479	1098.327	1180.8616	1186.9882	1223.215	1240.305	1295.233	1327.5781	1342.3049	1361.9857	1390.4263	1406.5003	1462.4128	1468.8607	1486.289	1496.4952	1509.9488	1525.3078	1787.4951	2968.2585	3016.5434	3040.1125	3042.2149	3069.5876	3108.4277	3125.8689	3130.4581	3203.8505	3218.0417	3601.8199
O=C1CCC2(CC2)CN1	O=C1CCC2(CC2)CN1	
InChI=1S/C7H11NO/c9-6-1-2-7(3-4-7)5-8-6/h1-5H2,(H,8,9)	InChI=1S/C7H11NO/c9-6-1-2-7(3-4-7)5-8-6/h1-5H2,(H,8,9)
