19
gdb 40516	3.21165	1.35158	1.15869	2.1784	75.15	-0.2205	0.0606	0.2811	1111.8829	0.160993	-419.122888	-419.115041	-419.114097	-419.155587	30.229	
C	 0.1636489233	 1.5531846282	 0.0773039928	-0.245196
N	 1.153976062	 0.534792035	-0.3017635267	-0.314831
C	-0.2074712442	 0.1117584893	 0.0603521703	-0.106478
C	-0.3716022743	-0.6857217373	 1.3167194591	 0.330635
C	 0.6375511546	-0.4976201171	 2.473109073	-0.138095
O	 0.8208531745	-1.9281671186	 2.6100660826	-0.290345
C	-0.0820357894	-2.2036573731	 1.5295377149	 0.04848
C	-1.5418880903	-2.3540261141	 2.0046354505	-0.184099
N	-1.7842308703	-0.9144111031	 1.6998037131	-0.375435
H	 0.3659911717	 2.0520077303	 1.0216792981	 0.117662
H	-0.2554650751	 2.1966819417	-0.6912588042	 0.116676
H	 1.2721624064	 0.5133966065	-1.3104799214	 0.236033
H	-0.876457614	-0.2007736957	-0.7388622378	 0.086882
H	 1.5730615677	-0.0079823795	 2.1821934621	 0.126528
H	 0.2368071227	-0.0351351942	 3.3849708881	 0.08668
H	 0.3298999638	-2.8989042107	 0.7951401849	 0.081724
H	-2.1804931598	-3.0156441943	 1.4076671598	 0.102057
H	-1.6055423635	-2.6459070676	 3.0584199638	 0.106697
H	-2.1216287057	-0.3499273255	 2.4730132669	 0.214425
79.1282	115.9939	166.9677	234.0206	317.3817	369.162	436.8831	478.8598	621.5852	637.6346	787.4392	834.7266	856.5859	891.2078	899.0749	929.4097	940.415	968.3229	980.2764	995.8991	1014.4808	1062.6897	1074.0026	1104.0704	1123.1835	1136.0008	1148.9231	1169.4562	1205.1056	1213.7039	1244.7634	1276.4871	1287.3402	1305.9401	1320.3153	1362.6265	1380.749	1445.865	1500.0673	1506.2151	1515.8944	3007.303	3022.2543	3072.6608	3074.054	3092.7114	3107.8851	3129.1103	3192.1017	3514.732	3516.1867
C1NC1C12COC1CN2	C1N[C@H]1[C@]12CO[C@H]1CN2	
InChI=1S/C6H10N2O/c1-4(7-1)6-3-9-5(6)2-8-6/h4-5,7-8H,1-3H2	InChI=1S/C6H10N2O/c1-4(7-1)6-3-9-5(6)2-8-6/h4-5,7-8H,1-3H2/t4-,5+,6-/m1/s1
