16
gdb 123631	4.16976	1.59047	1.38578	2.4322	74.45	-0.2134	0.0241	0.2374	922.005	0.12989	-396.887264	-396.881201	-396.880257	-396.91749	25.239	
C	-0.0517830359	 1.568723856	-0.0581341408	-0.199091
C	 1.5009989684	 1.3593682501	 0.0353532101	-0.173439
N	 1.1468528721	 0.1956806557	 0.942853465	-0.299302
C	-0.0090315499	 0.00056975	-0.0193268725	-0.139532
C	 0.7157089701	-0.2746211876	-1.3256383898	 0.369491
N	 0.7057896789	-1.0274578296	-2.4031252228	-0.364149
N	 1.7837966293	-0.5551196748	-3.0973771682	-0.199133
C	 2.4532184894	 0.4644762727	-2.4584367406	-0.277849
C	 1.7719275246	 0.6708935618	-1.2927364132	 0.290442
H	-0.4667232018	 1.9889162979	 0.8594339419	 0.113967
H	-0.4512163595	 2.0497384858	-0.9512620867	 0.106297
H	 2.1762176228	 2.1176191856	 0.4272712845	 0.075677
H	 1.8298700666	-0.5607197528	 0.8750699933	 0.209607
H	-0.8477678715	-0.6127797486	 0.3025690249	 0.084147
H	 2.0379731628	-1.0059582804	-3.9592233536	 0.269642
H	 3.3237768036	 0.9174243383	-2.9062234214	 0.133224
156.8426	309.4008	370.6924	430.8271	487.5896	559.378	630.4384	690.3618	700.0499	775.5606	786.9323	800.802	851.7048	899.042	907.0897	967.943	1016.5185	1033.801	1035.5926	1037.2416	1115.5817	1125.3627	1135.8642	1156.1364	1216.3959	1251.201	1261.9953	1267.6711	1289.6333	1338.1339	1402.3301	1447.834	1481.8112	1536.198	1643.4884	3081.5607	3137.8314	3147.7183	3155.7703	3257.4024	3435.7376	3681.7562
C1C2NC1C1=NNC=C21	C1[C@H]2N[C@@H]1c1n[nH]cc21	
InChI=1S/C6H7N3/c1-4-3-2-7-9-6(3)5(1)8-4/h2,4-5,8H,1H2,(H,7,9)	InChI=1S/C6H7N3/c1-4-3-2-7-9-6(3)5(1)8-4/h2,4-5,8H,1H2,(H,7,9)/t4-,5+/m1/s1
