20
gdb 90684	3.57755	1.09316	1.02324	1.8528	81.12	-0.2357	-0.0241	0.2116	1280.3361	0.169612	-403.122394	-403.113292	-403.112347	-403.156653	33.911	
C	 0.1506770096	 1.6238124912	-0.2879832623	-0.416647
C	 0.1417340979	 0.1007064002	-0.2387996282	 0.017722
C	 1.4198504233	-0.5922042324	-0.7799695823	-0.171453
N	 1.8050288102	-1.0974796246	 0.594417542	-0.156722
C	 0.539522562	-0.4856923031	 1.1202240618	-0.054617
C	 0.7147214668	-1.9689967249	 1.1230144566	-0.109539
C	-0.1211195933	-2.9376894426	 0.3399632422	 0.384423
C	-0.4881275881	-4.2044058649	 1.0947632915	-0.482538
O	-0.4917555378	-2.7521332642	-0.8013242396	-0.323909
H	 1.0776209867	 2.0313308358	 0.1311419662	 0.119905
H	 0.0642545346	 1.9779038015	-1.3204868933	 0.120674
H	-0.6871196819	 2.043694368	 0.2795544875	 0.115975
H	-0.7922291258	-0.2924745843	-0.6448784399	 0.098509
H	 1.2897874264	-1.370199197	-1.530253857	 0.132268
H	 2.189687785	 0.1144768104	-1.1000812822	 0.106496
H	 0.5127651532	 0.0532530427	 2.0647793144	 0.094501
H	 1.0221305488	-2.3638306452	 2.0885611011	 0.096257
H	-0.9701589453	-3.9611183172	 2.0485562865	 0.139977
H	-1.1554100679	-4.8150510966	 0.4860467257	 0.141907
H	 0.4176692956	-4.7742317131	 1.3335144495	 0.14681
39.3355	123.9572	150.1287	207.2614	239.3278	254.4242	293.1541	328.0574	415.1893	460.426	610.7963	628.6857	722.6411	755.544	781.2158	848.3393	885.2343	906.3859	939.1489	952.2727	972.9561	1043.9123	1060.869	1071.3883	1095.4778	1126.2306	1154.3776	1175.1018	1207.9048	1244.5699	1273.3659	1288.5787	1312.3625	1376.905	1380.1327	1413.4423	1420.9656	1463.5415	1474.3762	1485.3067	1496.4416	1500.9411	1786.3261	3026.6431	3033.0449	3071.6044	3081.4284	3093.0593	3097.4455	3103.573	3129.6255	3141.5941	3151.2852	3154.9047
CC1CN2C1C2C(C)=O	C[C@H]1CN2[C@@H]1[C@H]2C(=O)C	
InChI=1S/C7H11NO/c1-4-3-8-6(4)7(8)5(2)9/h4,6-7H,3H2,1-2H3	InChI=1S/C7H11NO/c1-4-3-8-6(4)7(8)5(2)9/h4,6-7H,3H2,1-2H3/t4-,6-,7+,8?/m0/s1
