19
gdb 36732	4.3665	0.81775	0.78662	1.0817	78.03	-0.2581	0.0375	0.2956	1506.7133	0.158626	-422.992596	-422.983518	-422.982574	-423.027751	32.836	
C	 0.1442517363	-1.0377089602	-0.4433797357	-0.423504
C	 0.1055885392	 0.1445028158	-0.2362551582	 0.283573
C	 0.0238301633	 1.5763652397	 0.0151368442	-0.218531
O	 1.3313692643	 2.1362875216	 0.0344543715	-0.261921
C	 1.3306449983	 3.5238070537	 0.2905976122	 0.241543
C	 2.8007439308	 3.9889184695	 0.3158434961	-0.263532
C	 2.9260179966	 4.9042247756	-0.9234909056	-0.21107
C	 1.6696885129	 4.5491880761	-1.7274383068	-0.089952
O	 0.6870651217	 4.2518686986	-0.7324482997	-0.251081
H	 0.1832663986	-2.0828933069	-0.6266289577	 0.198695
H	-0.5851951762	 2.0631145629	-0.7583320692	 0.139407
H	-0.4785236514	 1.7576492436	 0.9804435234	 0.11728
H	 0.7660673145	 3.7276543649	 1.2114285127	 0.070665
H	 3.0344805305	 4.5136459412	 1.2441156632	 0.11011
H	 3.4448574785	 3.1101448491	 0.2509521093	 0.127786
H	 2.8967439851	 5.9576338223	-0.6308969623	 0.109787
H	 3.8473553573	 4.7355596727	-1.4854808621	 0.106942
H	 1.2827251451	 5.3657959373	-2.3409741132	 0.108574
H	 1.8417030247	 3.6746225325	-2.3700189119	 0.105229
40.09	59.9359	120.3782	141.631	218.334	272.2341	330.7503	375.1187	510.1474	593.3741	605.4793	623.3098	671.7371	747.7244	838.4001	873.3117	921.5008	932.9234	956.4832	981.6389	1000.5362	1032.6304	1054.6218	1066.1741	1110.1265	1144.435	1212.8855	1233.33	1250.4681	1258.1376	1311.8348	1320.5309	1356.7447	1367.828	1398.4288	1428.9276	1482.4616	1498.1613	1504.1225	1519.0343	2247.9584	2965.0673	3007.6506	3011.3518	3030.5577	3061.1764	3082.6247	3103.1963	3112.1151	3134.0803	3506.9631
C#CCOC1CCCO1	C#CCO[C@H]1CCCO1	
InChI=1S/C7H10O2/c1-2-5-8-7-4-3-6-9-7/h1,7H,3-6H2	InChI=1S/C7H10O2/c1-2-5-8-7-4-3-6-9-7/h1,7H,3-6H2/t7-/m1/s1
