22
gdb 100013	2.48988	1.23335	1.16071	2.6345	77.45	-0.2331	0.0556	0.2887	1216.5121	0.192246	-441.459311	-441.448962	-441.448018	-441.493794	39.56	
C	-0.22434699	 1.6174593593	-0.1474766164	-0.422672
C	-0.0201233385	 0.0962475819	-0.07530787	 0.294224
O	 0.7724047869	-0.2184712137	 1.0703107629	-0.479876
C	-1.3693051992	-0.6318354415	 0.0874417824	-0.125981
O	-1.8529193045	-0.3050100465	 1.3911725937	-0.436918
C	 0.7285280457	-0.4408255568	-1.3064963411	 0.319234
C	 0.0151612874	-0.340815134	-2.6415920719	-0.472044
C	 2.2115741648	-0.3874680427	-1.284102489	-0.280667
N	 1.5077483246	-1.6803101573	-1.1358778535	-0.372651
H	 0.7464670978	 2.1185562118	-0.1673826794	 0.123275
H	-0.7876157686	 1.9107566503	-1.0382944144	 0.11149
H	-0.7780325365	 1.9607471395	 0.7306599951	 0.124985
H	 0.1527556188	-0.2330861292	 1.8119622273	 0.289142
H	-2.0828103712	-0.311653312	-0.6823797548	 0.09998
H	-1.2086721189	-1.7138611982	-0.0109672	 0.105377
H	-2.5510938157	-0.9220222804	 1.625428652	 0.297387
H	-0.1942883214	 0.6976008732	-2.9178041195	 0.11648
H	 0.6440747583	-0.7804562975	-3.4190715717	 0.130338
H	-0.9321982969	-0.8906164112	-2.6418526965	 0.115606
H	 2.7552831677	-0.2630257637	-2.2170862738	 0.10421
H	 2.6942676533	 0.0266073957	-0.4053181406	 0.125191
H	 1.5105398159	-1.9034681772	-0.1418290607	 0.23389
73.9698	132.6367	184.5653	205.2076	233.0277	242.0458	264.0881	308.2623	334.7972	360.0056	375.867	419.2377	447.0334	483.8749	527.3797	541.769	711.4253	811.8766	854.2182	907.5105	932.2367	936.2686	966.6864	1001.0439	1029.3606	1054.8825	1091.8229	1111.816	1121.6323	1149.0604	1160.8354	1192.9979	1253.0676	1285.7372	1300.1449	1329.6059	1359.9784	1395.4627	1412.3605	1425.6929	1440.8519	1485.3712	1491.1419	1497.4655	1500.1463	1507.1914	1515.6448	3005.1536	3035.2133	3045.6109	3051.9186	3096.7593	3112.053	3117.274	3123.7116	3129.3268	3207.859	3487.9965	3758.1612	3847.8119
CC(O)(CO)C1(C)CN1	C[C@@](O)(CO)[C@@]1(C)CN1	
InChI=1S/C6H13NO2/c1-5(3-7-5)6(2,9)4-8/h7-9H,3-4H2,1-2H3	InChI=1S/C6H13NO2/c1-5(3-7-5)6(2,9)4-8/h7-9H,3-4H2,1-2H3/t5-,6-/m1/s1
