15
gdb 129672	3.14874	1.38514	1.04022	3.9295	70.73	-0.2162	-0.0177	0.1985	1110.8077	0.112511	-450.070869	-450.06291	-450.061966	-450.103816	29.584	
N	-0.0199739617	 1.3291619525	 0.4790585053	-0.589875
C	 0.0103029503	 0.0138866283	 0.1314431155	 0.396022
C	-1.0264406368	-0.8298967574	-0.2126826774	 0.208489
N	-0.4676696256	-2.060844384	-0.4019680819	-0.153432
N	 0.7683043967	-2.0691889694	-0.2256148977	-0.053433
O	 1.14253353	-0.6545425978	 0.1483539396	-0.231707
N	-2.3718890955	-0.4654006471	-0.3451034969	-0.203038
C	-3.2075878022	-1.2216047	-1.2862079687	-0.222904
C	-3.3996919946	-1.3790991929	 0.1790906893	-0.223239
H	 0.8289391507	 1.8536697095	 0.3347778635	 0.272488
H	-0.8711448026	 1.802879379	 0.2130938431	 0.274727
H	-3.9024143992	-0.6231931631	-1.8682495261	 0.12109
H	-2.7341352079	-2.0420792371	-1.8174425304	 0.143386
H	-3.0524176099	-2.30409086	 0.6305624097	 0.139117
H	-4.2346571017	-0.8966928405	 0.678505483	 0.12231
52.634	154.0407	177.1661	269.3336	280.4667	356.3169	415.8669	478.0836	541.2813	576.9636	596.9532	673.0808	742.3002	763.6097	823.3181	854.7278	924.1097	979.4905	1041.8796	1083.341	1114.5211	1132.5183	1173.9041	1183.1582	1223.0211	1248.2308	1369.4785	1471.9369	1485.1971	1494.6474	1511.8344	1609.3678	1674.4803	3113.1399	3116.3619	3200.6838	3215.484	3574.367	3689.3407
NC1=C(N=NO1)N1CC1	Nc1c(nno1)N1CC1	
InChI=1S/C4H6N4O/c5-3-4(6-7-9-3)8-1-2-8/h1-2,5H2	InChI=1S/C4H6N4O/c5-3-4(6-7-9-3)8-1-2-8/h1-2,5H2
