18
gdb 35249	2.3126	1.57145	1.15176	1.1104	77.02	-0.2397	0.0312	0.2708	1106.8687	0.147231	-401.856221	-401.847641	-401.846697	-401.890134	31.842	
C	 0.3620048851	-0.7639397808	 1.6029271722	-0.443003
C	 0.3243811629	 0.2338629538	 0.93253194	 0.382692
C	 0.192937109	 1.3922804439	 0.0911162546	-0.231981
N	 0.5302890161	 2.7245271571	 0.6455709239	-0.329949
C	 1.3246576498	 2.1995485715	-0.4672066228	-0.040176
C	 2.7950600843	 1.941167461	-0.2248993993	 0.150019
C	 3.2959003856	 1.4696853114	 1.1551712516	-0.303272
C	 3.8093057015	 0.2362376056	 0.3861551951	-0.05603
O	 3.2583946476	 0.7257637265	-0.8589277903	-0.297931
H	 0.4092191908	-1.6398247956	 2.2014867362	 0.200128
H	-0.6787403048	 1.344423178	-0.5598926758	 0.114207
H	-0.1440408958	 3.413892512	 0.3243042773	 0.240613
H	 1.1219906332	 2.600915075	-1.4601284213	 0.094229
H	 3.3500723739	 2.8088409264	-0.6112854763	 0.072524
H	 4.0618725656	 2.1053563348	 1.6009862451	 0.105089
H	 2.5150579646	 1.2752901087	 1.8872011398	 0.137397
H	 4.8999624473	 0.1309740221	 0.3325442512	 0.095941
H	 3.3652446534	-0.7234248315	 0.6717683589	 0.109503
47.9778	95.9072	143.2726	187.1695	236.8881	255.7435	433.9311	458.486	553.9384	606.9835	659.9311	664.8607	707.8157	792.0154	807.9099	838.8834	894.4378	931.86	958.9299	988.7422	1000.7084	1029.887	1066.5926	1075.1666	1138.3636	1164.8745	1189.9735	1207.3863	1228.3705	1254.2775	1263.7839	1293.2193	1358.9473	1397.5562	1411.9438	1459.2429	1492.2131	1526.0428	2236.686	2985.6589	3019.7109	3068.0199	3096.4533	3104.0295	3117.0529	3165.3748	3502.9416	3506.7591
C#CC1NC1C1CCO1	C#C[C@H]1N[C@H]1[C@H]1CCO1	
InChI=1S/C7H9NO/c1-2-5-7(8-5)6-3-4-9-6/h1,5-8H,3-4H2	InChI=1S/C7H9NO/c1-2-5-7(8-5)6-3-4-9-6/h1,5-8H,3-4H2/t5-,6-,7-/m1/s1
