18
gdb 12501	3.51935	1.93049	1.3692	0.6512	83.82	-0.207	-0.0258	0.1812	936.0425	0.155454	-310.697128	-310.689844	-310.6889	-310.728224	28.644	
C	-0.0626972634	 1.523536534	 0.0287014736	-0.480271
C	 0.015624256	 0.023821689	-0.0037978027	 0.290477
C	 0.0805338803	-0.6751215635	-1.1577941121	-0.139566
C	 0.0182105323	-2.1108245898	-1.2910249083	-0.091456
C	-0.6569150184	-2.9709201218	-0.4806904255	-0.112386
C	-1.4413469993	-2.5956632865	 0.6718510586	-0.049942
C	-1.1967865487	-1.5317214185	 1.4599246634	-0.085876
C	 0.0603931455	-0.7134497079	 1.3187368133	-0.34928
H	 0.7835247183	 1.9527741103	 0.5817277755	 0.12421
H	-0.0726641348	 1.9535665963	-0.9762732592	 0.121648
H	-0.9705538207	 1.8582297386	 0.5466056602	 0.130723
H	 0.169762199	-0.11684765	-2.0883880825	 0.079672
H	 0.4522723514	-2.5235838166	-2.1995329881	 0.086331
H	-0.7153746376	-4.0110132132	-0.7934822468	 0.085701
H	-2.3078418227	-3.2174410539	 0.8883986381	 0.087114
H	-1.9100437161	-1.2567715971	 2.2322594619	 0.089627
H	 0.932984944	-1.3811981426	 1.3316484346	 0.117901
H	 0.1662927748	-0.0116857267	 2.1504067259	 0.095373
137.2198	184.0084	225.8748	331.2652	349.1242	387.3341	397.2447	501.5418	604.3717	642.5348	732.442	795.5625	812.9654	885.011	901.8487	935.9341	951.8598	978.1273	998.8582	1004.1617	1028.1931	1059.641	1105.6621	1164.8121	1220.7894	1251.4192	1277.5112	1326.054	1361.7945	1405.9689	1410.9579	1468.0577	1474.7147	1479.1039	1489.8526	1583.8669	1673.4949	1683.7871	3002.2506	3012.2592	3058.2278	3086.8109	3111.6412	3130.098	3137.2391	3144.6978	3160.1206	3170.1337
CC1=CC=CC=CC1	CC1=CC=CC=CC1	
InChI=1S/C8H10/c1-8-6-4-2-3-5-7-8/h2-6H,7H2,1H3	InChI=1S/C8H10/c1-8-6-4-2-3-5-7-8/h2-6H,7H2,1H3
