23
gdb 118102	2.96652	0.87448	0.81971	0.3991	82.75	-0.2478	0.0723	0.3201	1556.9038	0.202783	-425.402162	-425.391336	-425.390392	-425.438188	39.573	
C	-0.0100351028	 1.2978374266	-0.129643951	-0.226678
O	-0.0137158181	-0.0946847338	 0.0635849293	-0.237346
C	-1.2956415972	-0.668065776	-0.0971226374	-0.053917
C	-1.2006353291	-2.1731372299	 0.1638965755	-0.050241
C	-0.6927857811	-2.464911368	 1.5828374991	-0.415734
C	-2.5425397365	-2.8387756382	-0.1084458468	 0.425219
O	-3.6004937919	-2.3903157163	 0.7070821573	-0.477079
C	-2.9577054212	-3.1530856762	-1.5133336515	-0.303367
C	-2.5926183112	-4.2768117309	-0.560443897	-0.33743
H	 1.0143892611	 1.6487221883	 0.0193648257	 0.123415
H	-0.3339819863	 1.5714179129	-1.1468458897	 0.101677
H	-0.6702176964	 1.8128951312	 0.5865792116	 0.102613
H	-2.0166658432	-0.2116746485	 0.600094926	 0.094621
H	-1.6708154659	-0.4849970418	-1.1179217035	 0.084684
H	-0.4769999694	-2.5825809109	-0.5525009492	 0.078426
H	 0.2711040435	-1.9802057955	 1.7485382901	 0.136681
H	-1.3877358833	-2.0752767415	 2.3366284764	 0.103804
H	-0.577220913	-3.5411368357	 1.7473161248	 0.109273
H	-3.4717655688	-2.7621643679	 1.5863072	 0.282833
H	-4.0071307786	-3.0234440576	-1.7500082431	 0.12221
H	-2.272682884	-2.9182737665	-2.3208072156	 0.113008
H	-1.6605260414	-4.8088993842	-0.7194585282	 0.111283
H	-3.4069345751	-4.8834787093	-0.1799065129	 0.112045
65.7156	86.2465	100.4218	132.0991	218.1224	232.651	237.093	279.0649	297.4185	306.6518	337.4502	385.1661	463.4833	515.4594	543.8393	745.8927	778.1864	871.3412	908.2742	927.7772	936.5881	941.5041	980.7896	998.0209	1039.2578	1054.4813	1077.2146	1129.1434	1155.2789	1170.3114	1189.5607	1193.6913	1219.9789	1246.7526	1267.3302	1297.0135	1319.1891	1354.8982	1391.8856	1395.7538	1423.6057	1453.0708	1480.6731	1484.6722	1491.6233	1498.6424	1504.6957	1510.7554	1529.1576	2957.5495	2970.1935	2994.3972	3008.9539	3027.1319	3034.7264	3092.2227	3109.3362	3129.3467	3133.1604	3137.9712	3215.4663	3231.9313	3801.1058
COCC(C)C1(O)CC1	COC[C@@H](C)C1(O)CC1	
InChI=1S/C7H14O2/c1-6(5-9-2)7(8)3-4-7/h6,8H,3-5H2,1-2H3	InChI=1S/C7H14O2/c1-6(5-9-2)7(8)3-4-7/h6,8H,3-5H2,1-2H3/t6-/m1/s1
