24
gdb 101019	2.50264	1.05169	0.86987	3.0172	84.79	-0.242	0.0625	0.3045	1466.4499	0.21697	-405.525113	-405.514739	-405.513794	-405.56032	39.327	
C	-0.3418019	 1.4366853563	-0.0794858038	-0.391528
C	-0.3875162392	-0.0506584646	 0.2862151252	-0.167135
C	 0.7836282559	-0.5292477342	 1.1779802222	-0.056523
C	 0.6849387218	 0.0525694226	 2.5944671904	-0.415218
C	 0.9058910701	-2.0573537352	 1.1347040951	 0.29372
C	 1.6030074414	-2.5932637719	-0.1185231566	-0.109699
O	 1.4712634434	-3.9892856896	-0.2480622742	-0.425887
C	 0.9916728363	-2.8972845067	 2.356004683	-0.279827
N	-0.2333458604	-2.9152280732	 1.5268969714	-0.374633
H	 0.5889794832	 1.6854300753	-0.6015931118	 0.116825
H	-1.1725301401	 1.6985821112	-0.7420025644	 0.11608
H	-0.4114091186	 2.0831332042	 0.8006177102	 0.118646
H	-1.3358566953	-0.2722189445	 0.7943915989	 0.089656
H	-0.4003794907	-0.63789675	-0.6381026748	 0.107017
H	 1.711573407	-0.1422420808	 0.7309534408	 0.077183
H	 1.568538464	-0.1890159719	 3.1910335079	 0.122207
H	 0.5972992597	 1.1416229939	 2.5626693886	 0.12052
H	-0.1971283301	-0.3261125737	 3.1255374907	 0.108822
H	 1.2078064766	-2.0723628021	-1.0070489645	 0.083486
H	 2.6747765963	-2.3649607686	-0.0619985905	 0.104094
H	 0.5649316657	-4.1805595364	 0.0397226166	 0.291935
H	 1.5642320393	-3.8187593238	 2.3180498128	 0.127872
H	 0.9409480047	-2.4248556212	 3.3306801824	 0.111785
H	-0.9682176313	-2.367258235	 1.9664281944	 0.230603
71.7827	83.7493	120.354	204.5204	222.6991	245.0421	271.8746	313.4873	325.7112	350.1045	354.3983	443.361	484.6987	555.9066	610.1569	704.7523	773.2119	825.9217	832.0227	915.8099	942.0469	965.7373	981.2687	991.5555	1035.4828	1043.3287	1065.0724	1096.5976	1101.7613	1143.687	1160.8264	1181.8244	1233.2135	1258.1363	1264.4719	1297.7244	1324.8366	1348.9058	1371.6721	1392.8474	1398.8826	1413.6659	1421.2632	1455.3924	1481.7976	1494.8866	1499.8723	1507.0665	1508.3852	1512.1867	1515.7643	2959.366	2991.4056	3018.0087	3031.1782	3034.5861	3043.4591	3064.6785	3098.8056	3100.4109	3107.4703	3119.6486	3128.2995	3216.5928	3506.5904	3698.6832
CCC(C)C1(CO)CN1	CC[C@@H](C)[C@@]1(CO)CN1	
InChI=1S/C7H15NO/c1-3-6(2)7(5-9)4-8-7/h6,8-9H,3-5H2,1-2H3	InChI=1S/C7H15NO/c1-3-6(2)7(5-9)4-8-7/h6,8-9H,3-5H2,1-2H3/t6-,7+/m1/s1
