19
gdb 99092	3.40432	0.80921	0.71491	1.8543	73.23	-0.2553	-0.0237	0.2316	1603.4819	0.155548	-460.213086	-460.202531	-460.201587	-460.250322	35.66	
C	 0.1434229491	 1.3003615085	 0.0846418944	-0.240589
O	-0.06051207	-0.1183103058	 0.0492733123	-0.230662
C	-1.3451833123	-0.5189663784	 0.0862973963	 0.450113
O	-2.2802675733	 0.2436636142	 0.1307626364	-0.363829
C	-1.4381287206	-2.0299495456	 0.0848181066	-0.33798
C	-2.8598948397	-2.5314306756	-0.1657847661	-0.068404
C	-3.3143162765	-2.3825292472	-1.6284099548	-0.414782
C	-3.0413707611	-3.9616401536	 0.3003179044	 0.150209
O	-2.2170812329	-4.6146910515	 0.8883100006	-0.248711
H	 1.2228872809	 1.4454852071	 0.0448158713	 0.135271
H	-0.3397746091	 1.780378501	-0.7700273858	 0.140667
H	-0.266527691	 1.7263640418	 1.0038052311	 0.141559
H	-0.7350106926	-2.4294719217	-0.653115024	 0.134056
H	-1.0775508351	-2.3956926882	 1.0529698915	 0.154177
H	-3.5500716571	-1.9309602739	 0.4464031857	 0.125857
H	-3.3163893247	-1.3278408723	-1.9118487335	 0.146872
H	-2.6468703731	-2.9252574271	-2.3066982745	 0.124073
H	-4.3281560552	-2.7709752097	-1.7696745553	 0.122302
H	-4.0420572356	-4.3898418819	 0.0587132134	 0.079801
33.2067	53.0681	115.5394	121.5051	130.9782	170.7388	227.2679	237.1832	284.371	348.4821	395.7746	443.0913	588.2026	622.9962	738.9113	822.7707	897.1922	912.2156	920.4984	945.4462	1027.7124	1100.7271	1111.1413	1167.3838	1178.8497	1199.7191	1217.7577	1245.2783	1301.3565	1317.231	1392.4085	1402.1835	1428.1586	1454.155	1473.8827	1482.1801	1496.9238	1497.8166	1508.1319	1809.2537	1827.7641	2864.6	3006.9367	3036.6401	3052.4263	3056.4417	3091.16	3102.0457	3127.2259	3130.26	3160.3686
COC(=O)CC(C)C=O	COC(=O)C[C@@H](C)C=O	
InChI=1S/C6H10O3/c1-5(4-7)3-6(8)9-2/h4-5H,3H2,1-2H3	InChI=1S/C6H10O3/c1-5(4-7)3-6(8)9-2/h4-5H,3H2,1-2H3/t5-/m1/s1
