23
gdb 120949	4.18936	0.93519	0.90774	0.8588	86.46	-0.2425	0.0926	0.3351	1433.0153	0.207391	-388.280038	-388.271435	-388.270491	-388.313734	33.529	
C	-0.0812503603	 1.4719552516	 0.0097858142	-0.384242
C	-0.0804214823	-0.0395853527	 0.1674027161	-0.038649
O	-1.358605229	-0.5281223996	-0.1855481129	-0.264385
C	-1.4802233383	-1.9335840661	-0.114931847	 0.168233
C	-1.6562699665	-2.4988284062	 1.3397369691	-0.246892
C	-3.0658925315	-3.1039204303	 1.1906481573	-0.014572
C	-2.9470374727	-3.8278779378	-0.1829566522	-0.228194
C	-2.8246143072	-2.3700720335	-0.7130470036	-0.044896
C	-3.8221760759	-1.984446834	 0.4177333478	-0.216808
H	 0.8989452837	 1.8841106466	 0.2679032749	 0.112229
H	-0.3154287354	 1.7492852822	-1.0219532501	 0.125411
H	-0.8318538767	 1.9253456426	 0.6635794108	 0.124572
H	 0.6891456939	-0.4953808489	-0.4791992897	 0.083025
H	 0.1700373956	-0.3159387785	 1.2047075688	 0.086274
H	-0.6308644994	-2.4000037784	-0.6373956244	 0.056083
H	-0.9025631528	-3.2464071804	 1.6043386675	 0.090813
H	-1.6192707575	-1.6920402443	 2.0776413812	 0.100729
H	-3.4961267766	-3.5919800338	 2.0658643557	 0.056362
H	-2.1047328743	-4.5105477654	-0.3370018849	 0.08492
H	-3.8785836744	-4.3045733665	-0.4961158324	 0.096162
H	-2.9947040602	-2.1098838908	-1.7575543434	 0.060887
H	-4.8501126447	-2.2643873269	 0.1763231032	 0.091695
H	-3.7806568975	-0.9640099989	 0.8044700439	 0.101241
63.1568	101.5378	121.2151	229.5165	256.0287	336.0779	361.4101	443.1215	511.3703	539.0597	669.0725	819.1901	826.0778	835.7195	842.6391	861.6744	870.3732	909.2211	946.7682	957.5209	973.8523	1014.7629	1035.3521	1042.2802	1080.6391	1088.2287	1098.1903	1114.1193	1151.1258	1161.1473	1189.01	1197.1845	1228.2429	1237.4781	1248.2509	1274.784	1294.0614	1297.9112	1323.7329	1337.4385	1375.9192	1402.1311	1440.2848	1483.0561	1483.771	1487.0812	1499.8768	1520.4367	1529.7205	2954.1851	2978.5846	2983.3601	3043.6905	3044.1584	3050.9706	3066.0346	3098.0809	3105.7545	3111.8409	3117.9976	3120.2393	3120.5179	3127.8714
CCOC1CC2CC1C2	CCO[C@H]1C[C@@H]2C[C@H]1C2	
InChI=1S/C8H14O/c1-2-9-8-5-6-3-7(8)4-6/h6-8H,2-5H2,1H3	InChI=1S/C8H14O/c1-2-9-8-5-6-3-7(8)4-6/h6-8H,2-5H2,1H3/t6-,7+,8-/m0/s1
