17
gdb 44360	3.39189	1.69811	1.42006	3.0072	72.56	-0.225	0.0247	0.2497	930.5471	0.138905	-417.966796	-417.960148	-417.959203	-417.997889	27.012	
N	-0.0369902854	 1.2924961055	 0.5870770193	-0.52057
C	-0.0178428798	 0.1405185934	 0.0676299845	 0.377292
C	-1.2975516751	-0.6712940377	-0.0919581463	-0.255208
N	-1.235072083	-1.7010850095	-1.1246749677	-0.113423
C	-0.6940134728	-1.2524232999	-2.4544512817	-0.195131
C	 0.5616128631	-2.0885828546	-2.2386112405	-0.122713
C	 1.1534248459	-1.7388947058	-0.8963612767	 0.103061
O	 1.1471105091	-0.4215262394	-0.3818543053	-0.248372
C	-0.070679878	-2.577378688	-0.9268456522	-0.079111
H	 0.908811949	 1.6771883721	 0.6387916719	 0.21819
H	-1.5245864741	-1.1643357057	 0.8608084325	 0.134735
H	-2.1118389451	 0.0294040545	-0.2895486476	 0.143427
H	-1.3313794112	-1.6088013544	-3.2676919078	 0.119759
H	-0.5473845017	-0.1711712859	-2.5594818285	 0.121748
H	 1.1097259395	-2.6424708536	-2.9893901762	 0.099973
H	 2.0925679669	-2.2247982529	-0.6549938624	 0.116246
H	-0.1737917273	-3.5614305779	-0.4820706951	 0.100095
84.025	214.678	347.8782	405.9362	437.8339	493.7231	523.5938	590.7466	716.9181	744.7993	788.7025	815.0499	835.386	887.1484	904.1107	934.0719	960.6219	1005.2418	1019.0102	1053.0666	1055.7578	1081.4485	1099.4918	1113.8339	1145.1496	1202.037	1218.9051	1259.2935	1278.8431	1293.7196	1313.6316	1339.777	1359.8042	1430.0122	1464.1668	1510.1871	1754.0198	3036.1325	3044.6633	3093.3977	3111.254	3163.0616	3177.4106	3204.1583	3459.6871
N=C1CN2CC3C(O1)C23	[NH][C]1CN2C[C@H]3[C@@H](O1)[C@@H]23	
InChI=1S/C6H8N2O/c7-4-2-8-1-3-5(8)6(3)9-4/h3,5-7H,1-2H2	InChI=1S/C6H8N2O/c7-4-2-8-1-3-5(8)6(3)9-4/h3,5-7H,1-2H2/t3-,5+,6-/m1/s1
