17
gdb 30200	2.66557	1.65314	1.07199	2.982	75.47	-0.1926	0.0445	0.2371	1102.4529	0.136959	-418.010061	-418.001953	-418.001009	-418.042859	30.411	
C	-0.1700689764	 1.682329451	-0.7095474737	-0.398636
C	 0.0702375761	 0.2929253961	-0.1532597569	 0.055028
C	 1.1403259585	-0.6325038124	-0.8647645389	-0.38674
C	 1.8202620399	-0.6550769113	 0.4907066635	 0.35487
N	 2.6061258986	-1.2515978198	 1.3424356024	-0.354146
C	 2.2094675686	-0.6985838959	 2.5632404823	-0.229231
C	 1.1522017707	 0.1773711455	 2.4054692701	 0.286712
O	 0.4185644865	 0.9411772217	 3.250082566	-0.434365
N	 0.9487550704	 0.2319089246	 1.052358772	-0.056623
H	 0.7777426423	 2.2002081097	-0.8830798642	 0.131562
H	-0.7105997841	 1.616782316	-1.6594505651	 0.126433
H	-0.7694985757	 2.2816938697	-0.0176592172	 0.136107
H	-0.8724550295	-0.2340076932	 0.0225521497	 0.108691
H	 0.7490700834	-1.5898426626	-1.2166470436	 0.131038
H	 1.6866236777	-0.1450697291	-1.6771117167	 0.12422
H	 2.7217312118	-0.9439267236	 3.4820089077	 0.096144
H	 0.7516974311	 0.8096466936	 4.1435111925	 0.308938
72.5427	149.3586	199.4771	236.8484	251.9176	325.5372	369.1756	419.0278	554.4579	637.33	653.692	687.9856	710.4114	755.1671	761.4552	844.3402	913.0616	1024.5807	1054.8372	1072.51	1100.1733	1120.908	1159.7191	1176.3548	1215.2561	1240.2287	1255.3231	1279.7775	1359.8161	1382.4691	1412.7384	1481.6009	1485.7525	1493.7795	1495.8498	1582.0073	1596.9559	3039.0179	3062.2393	3064.8484	3111.9192	3114.5413	3120.8085	3235.9653	3836.2479
CC1CC2=NC=C(O)N12	C[C@H]1Cc2ncc(O)n12	
InChI=1S/C6H8N2O/c1-4-2-5-7-3-6(9)8(4)5/h3-4,9H,2H2,1H3	InChI=1S/C6H8N2O/c1-4-2-5-7-3-6(9)8(4)5/h3-4,9H,2H2,1H3/t4-/m0/s1
