17
gdb 36060	2.15515	1.42792	1.04751	5.9805	76.38	-0.321	0.006	0.3269	1175.9264	0.136343	-380.89028	-380.8816	-380.880656	-380.92407	31.541	
N	-0.2539911795	-0.95657357	-0.5946197839	-0.296468
C	-0.1081589056	 0.1507785524	-0.2999758753	 0.278198
C	 0.0894164689	 1.5572689382	 0.0456917715	-0.400963
C	 1.5812646874	 1.9498436759	 0.1729972019	 0.145181
C	 2.3561734407	 1.8693834311	-1.1874593443	-0.253118
C	 2.1375782383	 3.3939258383	-1.3771261996	-0.221726
C	 1.7704456177	 3.5067056525	 0.1259929448	-0.261926
C	 2.1969938174	 1.274082695	 1.3083597839	 0.252787
N	 2.7035174754	 0.7649678155	 2.2143792837	-0.333701
H	-0.3734525758	 2.1716262413	-0.7341604383	 0.159037
H	-0.4347712661	 1.7754599107	 0.9820078827	 0.170223
H	 3.4047721793	 1.6133196693	-1.0288330428	 0.136537
H	 1.9370556357	 1.187475247	-1.9298727998	 0.134625
H	 2.9987809747	 3.9728896986	-1.712291351	 0.121343
H	 1.2958743366	 3.6208580008	-2.0359054149	 0.116719
H	 0.8962085512	 4.1008442391	 0.4023508515	 0.11725
H	 2.6158189737	 3.8184593342	 0.7411989399	 0.136
68.3901	115.5883	132.7625	183.3146	207.8415	321.7196	332.7788	393.6012	479.0863	542.2357	559.4183	651.2238	718.722	795.2338	856.036	895.273	903.785	947.0151	965.5383	975.0744	1032.3527	1081.9459	1122.0743	1189.217	1213.0921	1254.7023	1262.7438	1274.5137	1278.1791	1321.3709	1336.2085	1461.2116	1479.8138	1488.8954	1508.5488	2353.2112	2366.5654	3051.5647	3072.0666	3076.1721	3082.3973	3094.3264	3121.7155	3135.3692	3144.7016
N#CCC1(CCC1)C#N	N#CCC1(CCC1)C#N	
InChI=1S/C7H8N2/c8-5-4-7(6-9)2-1-3-7/h1-4H2	InChI=1S/C7H8N2/c8-5-4-7(6-9)2-1-3-7/h1-4H2
