19
gdb 72464	2.55756	1.95837	1.49894	1.8615	74.32	-0.2409	0.0088	0.2498	952.8844	0.161041	-423.04401	-423.036658	-423.035714	-423.075299	30.035	
C	 0.0055499741	 1.5124355236	 0.0513208544	-0.467286
C	-0.0064196094	-0.0038578837	-0.0120247482	 0.338617
C	 0.8239976177	-0.5986670776	-1.1963906573	-0.127404
O	 1.6096345773	-1.6361955895	-0.6083555134	-0.261697
C	 1.0422831216	-1.8228823652	 0.6845594633	 0.130091
O	 0.7138975644	-0.5235332385	 1.1194093167	-0.27158
C	-0.2103986327	-2.6756329297	 0.5955342394	-0.056786
C	-1.3635883793	-2.0886746167	 0.2824932286	-0.080029
C	-1.4273296506	-0.6015301226	 0.0261560138	-0.28739
H	 1.0337692827	 1.8831848452	 0.0759541984	 0.129019
H	-0.4989962902	 1.9376413232	-0.8224137332	 0.118473
H	-0.5109693262	 1.864356865	 0.9489168787	 0.127746
H	 0.1774343351	-0.9970213118	-1.9875686731	 0.100537
H	 1.5038461296	 0.1402247883	-1.6322824508	 0.10637
H	 1.8085058224	-2.239392892	 1.3418218046	 0.090091
H	-0.1225366538	-3.7450844417	 0.7548839776	 0.095824
H	-2.2858976994	-2.6584317712	 0.2068364223	 0.096056
H	-2.0208385075	-0.106616238	 0.807634804	 0.111885
H	-1.942170796	-0.3999368471	-0.9224705458	 0.107465
149.3871	219.4005	267.3346	292.4355	328.814	389.1106	487.5575	494.1676	535.0735	617.6189	704.3221	732.3871	821.3851	864.97	876.2115	898.6967	940.2104	953.8486	961.1109	986.2381	987.9319	1018.799	1027.3587	1093.8103	1133.9121	1190.8992	1194.1933	1209.9996	1256.1635	1262.7877	1316.6911	1355.8753	1365.2904	1386.189	1401.6857	1411.9217	1466.1084	1484.4577	1497.0485	1518.197	1709.6971	3009.379	3025.1013	3040.7663	3043.4781	3075.1509	3100.3496	3112.646	3122.3509	3158.6102	3191.9048
CC12COC(O1)C=CC2	C[C@@]12CO[C@@H](O1)C=CC2	
InChI=1S/C7H10O2/c1-7-4-2-3-6(9-7)8-5-7/h2-3,6H,4-5H2,1H3	InChI=1S/C7H10O2/c1-7-4-2-3-6(9-7)8-5-7/h2-3,6H,4-5H2,1H3/t6-,7+/m0/s1
