20
gdb 70587	2.51074	1.70146	1.38376	1.8504	77.53	-0.2197	0.0788	0.2985	1021.2252	0.172758	-403.10736	-403.099707	-403.098763	-403.138835	31.873	
O	-0.0162695507	 1.3528147773	 0.069610126	-0.472271
C	 0.0152603864	-0.0491498818	-0.0281873783	 0.400267
C	-0.5288302287	-0.6609480209	-1.2955948474	-0.365961
C	-1.3370462463	-0.7075611649	-0.0114532983	-0.052612
C	-1.4796242797	-1.9877685247	 0.7995294792	-0.261845
C	-0.608507676	-1.9471099409	 2.0733566954	-0.139382
N	 0.8042353302	-1.5976470925	 1.8957800006	-0.092599
C	 1.4934436347	-2.118378959	 0.7160147102	-0.271057
C	 1.1184748159	-0.6783479002	 0.7878752347	-0.071876
H	 0.7021230183	 1.70164606	-0.4700506336	 0.280603
H	-0.8601019	 0.0347375784	-2.0585928847	 0.112108
H	-0.0946585785	-1.5816507296	-1.6716675408	 0.108617
H	-2.1667552395	-0.0106145873	 0.0379740084	 0.099471
H	-2.5225182192	-2.126608055	 1.1007780388	 0.105443
H	-1.2277948344	-2.8653048206	 0.1931879179	 0.103023
H	-1.0248847558	-1.2044998727	 2.7647973987	 0.110474
H	-0.6457093421	-2.9168433729	 2.5821043737	 0.103534
H	 2.5270707888	-2.4157344852	 0.8748157027	 0.11216
H	 0.9530353525	-2.7598421162	 0.0249720415	 0.107087
H	 1.900101704	 0.0374939286	 1.0363711352	 0.084817
157.7636	206.5993	288.1572	321.517	341.0647	374.4723	435.6423	446.6937	499.5057	513.6111	603.6926	695.3591	742.1167	795.0725	859.2314	890.9675	908.4937	925.6603	936.2513	960.0497	998.8303	1042.6428	1049.4532	1064.9624	1099.4216	1119.9985	1126.3468	1145.0326	1168.2332	1208.0292	1242.2764	1271.096	1277.7528	1314.4719	1336.3614	1366.6506	1381.1713	1400.0542	1420.5678	1476.3137	1487.7093	1491.1675	1521.3212	3028.874	3034.6575	3070.2473	3080.1068	3105.7788	3115.7287	3125.6748	3166.6726	3184.1924	3217.8314	3790.3118
OC12CC1CCN1CC21	O[C@]12C[C@H]1CCN1C[C@@H]21	
InChI=1S/C7H11NO/c9-7-3-5(7)1-2-8-4-6(7)8/h5-6,9H,1-4H2	InChI=1S/C7H11NO/c9-7-3-5(7)1-2-8-4-6(7)8/h5-6,9H,1-4H2/t5-,6+,7-,8?/m1/s1
