15
gdb 125114	3.47887	1.28076	0.94161	6.0779	71.97	-0.234	-0.0363	0.1977	1178.8243	0.112059	-453.980875	-453.972214	-453.97127	-454.015067	30.291	
C	 0.0427739076	 1.5517561202	 0.0113577628	-0.516794
C	 0.044242953	 0.0551635763	-0.0068390712	 0.020271
C	 0.0333669268	-0.7809451464	-1.092140639	 0.417904
O	 0.0135364905	-0.5644590411	-2.4223078053	-0.427448
N	 0.041981188	-2.0821337978	-0.6355482622	-0.0968
C	 0.0350182463	-3.2403749354	-1.4248083062	 0.18269
O	 0.0422818533	-4.3570742647	-0.9920189621	-0.267828
N	 0.058648568	-2.1216779663	 0.7370373375	-0.247575
C	 0.0605391999	-0.8563197328	 1.093673305	-0.019895
H	 0.9978156651	 1.9622399049	 0.358569941	 0.144209
H	-0.1436120871	 1.9709248288	-0.9846825736	 0.1052
H	-0.7399213866	 1.9445510214	 0.6686090326	 0.145673
H	 0.0301597425	 0.3851833777	-2.5837673399	 0.315962
H	 0.022260859	-2.9802379209	-2.4956507792	 0.119178
H	 0.0711559438	-0.6029587438	 2.1457235599	 0.125252
36.9451	94.4123	200.7089	208.3326	233.8644	263.2683	298.202	335.6456	399.5281	527.0066	659.8027	683.1046	693.0642	741.9144	840.7561	903.4796	985.7013	1008.5098	1031.775	1061.0376	1175.9448	1224.1925	1250.7512	1317.5332	1386.1613	1420.7207	1443.0706	1470.6411	1478.1436	1502.3938	1539.9911	1674.3412	1843.8566	3015.0659	3022.5124	3077.2379	3089.8561	3226.3861	3822.4844
CC1=C(O)N(C=O)N=C1	Cc1c(O)n(C=O)nc1	
InChI=1S/C5H6N2O2/c1-4-2-6-7(3-8)5(4)9/h2-3,9H,1H3	InChI=1S/C5H6N2O2/c1-4-2-6-7(3-8)5(4)9/h2-3,9H,1H3
