20
gdb 57432	2.58199	1.22862	1.06827	3.677	79.39	-0.2922	-0.0037	0.2885	1228.8388	0.168151	-403.146081	-403.136109	-403.135164	-403.181168	36.772	
C	-0.0143037411	 1.5206132849	 0.2225793788	-0.436653
C	-0.0189489588	-0.0125973192	 0.107257358	 0.195631
C	 0.4968849156	-0.658490906	 1.4075722211	-0.409145
C	-1.4597893022	-0.4909363233	-0.175570394	-0.407882
C	 0.8423903739	-0.5284898416	-1.0432466089	 0.083431
O	 0.9995605326	 0.2541985399	-2.2260330322	-0.238395
C	 2.1775657615	-0.0540234781	-1.4778106333	-0.113374
C	 2.9055737288	 1.035895216	-0.8658186134	 0.308209
N	 3.5544543573	 1.8669546996	-0.3914692759	-0.333881
H	 0.9551351213	 1.9115274849	 0.536722382	 0.145646
H	-0.276206986	 1.9858066147	-0.7310386162	 0.131914
H	-0.7532242221	 1.8298366382	 0.9684322384	 0.111732
H	-0.1534800588	-0.3922305148	 2.2466705248	 0.121774
H	 0.5121481668	-1.7518882176	 1.3347551633	 0.111803
H	 1.5096712986	-0.3185853811	 1.6451359677	 0.128722
H	-1.840812041	-0.0632840621	-1.1084865972	 0.12865
H	-1.5120128894	-1.5822856682	-0.2558812273	 0.111447
H	-2.1274704166	-0.1831551378	 0.634961168	 0.11827
H	 0.6731270511	-1.5878028109	-1.2552041744	 0.102262
H	 2.8396769785	-0.7768863974	-1.9543525993	 0.139838
27.9713	124.2721	181.9274	208.6242	248.304	255.7051	259.2163	283.8374	323.4831	354.9938	392.0989	438.355	513.1803	578.0084	632.9005	720.4839	819.6915	855.2687	935.44	942.0578	964.1847	968.4606	976.1397	1046.9511	1050.2098	1098.9384	1159.8824	1228.0494	1242.5208	1264.1977	1320.3563	1388.7123	1398.7055	1403.1193	1424.6807	1455.5067	1481.0915	1485.6378	1490.0694	1505.1307	1509.051	1524.1736	2356.5779	3028.408	3031.9866	3049.5772	3071.8381	3096.4848	3101.1361	3108.3187	3109.5386	3115.5486	3117.9606	3140.6222
CC(C)(C)C1OC1C#N	CC(C)(C)[C@H]1O[C@H]1C#N	
InChI=1S/C7H11NO/c1-7(2,3)6-5(4-8)9-6/h5-6H,1-3H3	InChI=1S/C7H11NO/c1-7(2,3)6-5(4-8)9-6/h5-6H,1-3H3/t5-,6-/m0/s1
