25
gdb 122894	4.46223	0.51069	0.4734	0.7963	96.66	-0.2562	0.0589	0.3152	2392.2244	0.226223	-352.339319	-352.327642	-352.326697	-352.377037	42.047	
C	 0.0382156101	 1.6323736378	 0.0682503932	-0.37981
C	 0.0027077969	 0.1026846434	 0.0121585314	-0.164204
C	 0.7007019173	-0.4714483591	-1.225508018	-0.16271
C	 0.6708741367	-2.0029681383	-1.2889045592	-0.19146
C	 1.3658693939	-2.5586752616	-2.5367442094	-0.176277
C	 1.4518415931	-4.1045631546	-2.5887855545	-0.161793
C	 0.0692102018	-4.7845245932	-2.6620056438	-0.385087
C	 2.2868969974	-4.5257600595	-3.7136888766	 0.31909
C	 2.9589154594	-4.8581286123	-4.6539138656	-0.464448
H	 1.0689258247	 2.0038841676	 0.0832172552	 0.113487
H	-0.4571647711	 2.0720618597	-0.8046843978	 0.113338
H	-0.4652998269	 2.0123740389	 0.9627186006	 0.110588
H	 0.4726799734	-0.3084523718	 0.915557966	 0.093662
H	-1.040090347	-0.2409470641	 0.0313287033	 0.09351
H	 0.2297951166	-0.0613866231	-2.1299868576	 0.09283
H	 1.7438556542	-0.126540771	-1.2469056012	 0.092802
H	 1.1535159388	-2.4126270561	-0.3900666091	 0.091727
H	-0.3725872768	-2.3400320416	-1.2549438015	 0.097907
H	 0.8515588091	-2.2059100115	-3.4399642657	 0.102682
H	 2.3852132811	-2.158755887	-2.5901649829	 0.104993
H	 1.9436816386	-4.4400278318	-1.6638965959	 0.102297
H	-0.4787406121	-4.4456569011	-3.546875936	 0.123531
H	 0.177438642	-5.8701468329	-2.7276598405	 0.125149
H	-0.5281364205	-4.5546039876	-1.7758458761	 0.117514
H	 3.5599800093	-5.1574873693	-5.4762043483	 0.190682
54.6196	58.5155	80.8744	133.9219	139.9155	165.3487	203.0755	246.3728	249.9681	278.7332	344.1539	359.1966	467.1771	532.751	553.7226	623.3892	630.4009	733.9021	757.3305	813.8549	849.4319	899.391	932.9523	950.2872	1009.2302	1029.085	1050.708	1060.2064	1076.4538	1123.7808	1137.2425	1190.9357	1234.2579	1259.6696	1293.4215	1315.2643	1330.5776	1334.7565	1346.6074	1357.1508	1391.6566	1401.7692	1410.0347	1414.4219	1480.3021	1483.4808	1490.5922	1496.6621	1500.6132	1501.6257	1504.8986	1513.9891	2232.8811	2996.137	3002.7364	3006.8742	3016.2738	3026.9812	3028.3256	3029.5261	3041.3463	3045.0632	3056.7776	3075.8755	3095.8381	3100.8637	3116.7289	3123.4152	3506.3066
CCCCCC(C)C#C	CCCCC[C@@H](C)C#C	
InChI=1S/C9H16/c1-4-6-7-8-9(3)5-2/h2,9H,4,6-8H2,1,3H3	InChI=1S/C9H16/c1-4-6-7-8-9(3)5-2/h2,9H,4,6-8H2,1,3H3/t9-/m0/s1
