19
gdb 80013	2.87775	1.7713	1.5911	1.8444	77.44	-0.2454	0.0047	0.2501	928.687	0.162708	-385.868595	-385.862004	-385.861059	-385.898935	29.027	
O	 0.0847630741	 1.4407703934	-0.0565487773	-0.462647
C	 0.0352115825	 0.0389112679	-0.0083453163	 0.160743
C	 0.4230231534	-0.6113177792	 1.3531481325	-0.114441
C	-0.7729265429	-0.1357923477	 2.1864349312	-0.095671
C	-1.8460085458	-0.125506385	 1.3825740319	-0.095661
C	-1.3882834106	-0.5939444714	-0.0037294453	-0.11444
C	-1.0714152785	-2.1000122092	 0.1806795308	-0.015307
C	 0.2348871268	-2.6864229292	-0.3097944112	-0.326375
C	 0.1385084824	-2.1116161195	 1.0870516717	-0.015307
H	-0.4593793955	 1.7625792209	 0.6740154203	 0.27083
H	 0.6561345042	-0.2860527012	-0.8413778486	 0.081912
H	 1.4130416519	-0.3691744964	 1.7404642395	 0.065248
H	-0.7459051668	 0.0689787653	 3.2493167994	 0.09743
H	-2.8710546806	 0.0893550758	 1.6573361681	 0.09743
H	-2.0351922809	-0.3360964941	-0.8426612545	 0.065248
H	-1.9086033527	-2.7686869625	 0.3495088208	 0.085945
H	 0.2657237397	-3.7707096781	-0.3648386295	 0.108782
H	 0.8213908704	-2.2118771018	-1.086649192	 0.120335
H	 0.2035393588	-2.788946868	 1.9317452085	 0.085945
264.7305	305.2183	322.3471	338.0819	469.874	481.1714	495.4643	559.3465	654.5221	726.6108	780.1221	804.9551	827.0085	835.1806	868.0737	895.1839	903.6459	928.7921	946.8744	961.6194	980.0589	997.5988	1052.9228	1064.8974	1076.8533	1115.3349	1120.7824	1140.3978	1189.9508	1196.5129	1229.7754	1232.8696	1267.5227	1270.1029	1303.3173	1314.8476	1349.9196	1362.8248	1459.5558	1505.66	1620.6824	3110.9064	3111.2737	3124.8271	3137.3825	3158.3324	3167.7918	3197.3824	3212.0049	3222.5986	3756.7418
OC1C2C=CC1C1CC21	O[C@H]1[C@H]2C=C[C@@H]1[C@H]1C[C@@H]21	
InChI=1S/C8H10O/c9-8-4-1-2-5(8)7-3-6(4)7/h1-2,4-9H,3H2	InChI=1S/C8H10O/c9-8-4-1-2-5(8)7-3-6(4)7/h1-2,4-9H,3H2/t4-,5+,6-,7+,8-
