19
gdb 133753	2.63933	0.98277	0.86268	2.3564	65.71	-0.2241	0.0787	0.3028	1395.1467	0.154149	-550.706973	-550.696942	-550.695997	-550.743066	35.51	
C	 0.0957115097	 1.5266630896	 0.0872134689	-0.390091
C	 0.0220731623	 0.0417279735	-0.2656964948	-0.125145
N	-1.298267147	-0.5460148784	-0.0154459274	-0.058592
C	-2.3101055329	-0.0995817917	-0.9625223176	-0.328475
C	-1.2567247317	-1.9892915188	 0.1191036587	-0.297908
C	-1.011569981	-2.4318693682	 1.5574829956	 0.291845
F	-1.9806233856	-2.0155080739	 2.3781404912	-0.071979
F	-0.9717376733	-3.7747211189	 1.6200076749	-0.081509
F	 0.1536896015	-1.9767496537	 2.0501287775	-0.081427
H	 1.1220503584	 1.887242095	-0.0324316632	 0.116274
H	-0.5416696954	 2.1408344692	-0.5554362081	 0.11824
H	-0.21017026	 1.6862053249	 1.125028189	 0.13024
H	 0.326246525	-0.1099328671	-1.320203927	 0.075884
H	 0.7431223968	-0.4980440142	 0.3508376825	 0.117079
H	-2.0943220033	-0.3964953974	-2.0064611829	 0.09443
H	-3.2855192548	-0.5078583689	-0.6835702839	 0.124895
H	-2.3923363728	 0.989349176	-0.9357410893	 0.128265
H	-2.2224954963	-2.4192749182	-0.1593528741	 0.127307
H	-0.4933017195	-2.4748444786	-0.51143585	 0.11067
43.2551	61.814	92.3736	167.2534	211.7516	246.2748	266.9749	319.8076	336.812	379.6633	418.5157	492.6961	532.3254	564.5848	668.5608	804.536	819.4304	847.4134	950.3292	990.7478	1071.8712	1089.6797	1114.5794	1130.9478	1165.3778	1183.8846	1248.0969	1277.572	1287.1245	1336.9644	1347.5357	1403.919	1420.7055	1426.444	1458.0662	1481.4996	1487.0242	1493.7619	1503.345	1507.7577	1515.9139	2910.3357	2928.5943	2972.6426	3043.9514	3077.4334	3098.3883	3100.8769	3116.5754	3120.9727	3126.7757
CCN(C)CC(F)(F)F	CCN(C)CC(F)(F)F	
InChI=1S/C5H10F3N/c1-3-9(2)4-5(6,7)8/h3-4H2,1-2H3	InChI=1S/C5H10F3N/c1-3-9(2)4-5(6,7)8/h3-4H2,1-2H3
