23
gdb 115640	2.63933	1.18348	0.97018	1.5144	85.71	-0.2341	0.0754	0.3095	1348.8295	0.20574	-388.272675	-388.263334	-388.262389	-388.307235	35.193	
C	-0.1388972117	 1.7323492726	-0.0692096449	-0.382233
C	-0.1699264823	 0.2697755207	 0.3889762897	-0.210655
C	-1.3846245594	-0.489667619	-0.1253211141	-0.000631
C	-1.4988610791	-0.8573740753	-1.6337377137	-0.242414
C	-2.166099674	-2.1951171877	-1.2145370694	-0.296773
C	-1.584698389	-1.9932280935	 0.202643348	 0.435611
C	-0.4268033731	-2.8871805284	 0.7070452653	-0.349769
C	-1.3831089852	-3.2235097509	 1.8658138275	-0.073848
O	-2.3937263887	-2.3382677824	 1.3423602417	-0.316523
H	 0.7493668366	 2.2491629733	 0.3072796051	 0.110528
H	-0.1280672331	 1.804799651	-1.162082219	 0.118342
H	-1.0196439148	 2.2763776005	 0.2892447631	 0.116073
H	 0.7454904997	-0.2338639863	 0.0508225538	 0.090968
H	-0.1575622239	 0.2295822534	 1.4865356451	 0.097872
H	-2.3030910002	 0.0210912265	 0.1917158984	 0.080515
H	-2.0728898516	-0.1887180479	-2.2778272535	 0.099896
H	-0.5133448709	-1.0134802799	-2.0845955775	 0.09769
H	-3.2565264832	-2.1150928415	-1.1838830057	 0.112991
H	-1.8911252921	-3.106942612	-1.7516356408	 0.09257
H	-0.1645120272	-3.7193702688	 0.0509818275	 0.107252
H	 0.4821853797	-2.3581640962	 0.9971060958	 0.111437
H	-1.7310339114	-4.2628811046	 1.9093564542	 0.100302
H	-1.0517990453	-2.9196989337	 2.8660139133	 0.1008
67.3279	95.5487	106.2789	163.7764	210.8321	258.5549	291.0095	342.1496	435.9016	485.4223	525.7577	698.4018	764.5591	788.0404	808.8772	862.0589	868.0619	912.914	929.0823	947.9501	963.4329	980.7048	1005.755	1030.5917	1059.5848	1093.2584	1151.2645	1156.9733	1171.3218	1179.945	1194.9075	1221.6054	1240.7803	1248.7849	1265.7493	1271.4517	1288.8576	1300.6263	1341.8036	1358.0883	1395.1241	1411.8277	1476.7934	1483.0528	1493.7746	1498.5784	1500.1085	1507.3566	1531.3202	3008.6206	3015.863	3024.8134	3031.3644	3045.2396	3052.2764	3054.9078	3056.1197	3078.5077	3098.7767	3102.0126	3104.0663	3117.8946	3133.0905
CCC1CCC11CCO1	CC[C@H]1CC[C@]21CCO2	
InChI=1S/C8H14O/c1-2-7-3-4-8(7)5-6-9-8/h7H,2-6H2,1H3	InChI=1S/C8H14O/c1-2-7-3-4-8(7)5-6-9-8/h7H,2-6H2,1H3/t7-,8+/m0/s1
