15
gdb 27648	2.97657	1.29608	0.9132	5.4269	76.08	-0.2507	-0.0319	0.2188	1226.6232	0.112266	-416.877712	-416.869113	-416.868169	-416.911325	30.15	
C	 0.034530851	 1.4387303453	 0.0954919946	-0.494307
C	 0.0049067046	-0.0373820386	-0.0553803295	 0.377763
N	-0.1057671404	-0.7384395979	-1.1337337871	-0.341276
C	-0.0763177569	-2.0618286992	-0.6896538684	 0.074433
C	-0.1709974468	-3.179184534	-1.5576512192	 0.209842
N	-0.2451459345	-4.1136825006	-2.2372071422	-0.343333
C	 0.0538932283	-2.0888611385	 0.668345832	 0.271205
C	 0.1401967429	-3.1669511995	 1.6794181573	-0.503948
O	 0.1064452463	-0.7928942602	 1.0820277262	-0.19925
H	 0.9717385574	 1.7668279473	 0.5562877245	 0.153107
H	-0.0592255894	 1.8949811252	-0.8898506277	 0.167058
H	-0.786419775	 1.7841180017	 0.7318909776	 0.153055
H	 1.0822423236	-3.1127834351	 2.2356270472	 0.15455
H	-0.6776930344	-3.0953306945	 2.4044533944	 0.154553
H	 0.0830688033	-4.1381602114	 1.1841478503	 0.166549
97.7243	134.9113	136.7209	144.4963	205.0794	253.75	313.1054	390.1304	524.9829	535.5044	589.4514	642.3654	675.9132	733.7359	789.5369	940.4531	1009.3655	1047.424	1061.8958	1069.4959	1147.2159	1213.7462	1297.1283	1360.5372	1411.9596	1423.7687	1471.8968	1473.7207	1477.6781	1483.1473	1635.5209	1646.3302	2351.074	3038.9242	3048.0724	3094.3606	3104.359	3141.0223	3162.6706
CC1=NC(C#N)=C(C)O1	Cc1nc(C#N)c(C)o1	
InChI=1S/C6H6N2O/c1-4-6(3-7)8-5(2)9-4/h1-2H3	InChI=1S/C6H6N2O/c1-4-6(3-7)8-5(2)9-4/h1-2H3
