23
gdb 93856	1.90308	1.73335	1.21195	1.7121	84.19	-0.2503	0.0706	0.3209	1178.2298	0.20592	-388.294371	-388.285155	-388.284211	-388.328786	35.853	
C	 0.2445505636	 1.6617474623	-0.0957745328	-0.395362
C	 0.0413325235	 0.1462748046	 0.0563072324	-0.056036
C	 0.6557226154	-0.6398744715	-1.1239950241	-0.231232
C	 2.118665757	-0.8564980683	-0.7027793304	-0.22308
C	 2.0343020468	-1.1847784528	 0.8024833781	-0.025305
C	 3.3186378685	-0.898460164	 1.5803891713	-0.417745
C	 0.770986747	-0.4386751697	 1.278075384	 0.421943
C	 0.5827480787	 0.0912656638	 2.635495382	-0.250871
O	-0.0345685178	-1.1355062768	 2.2433379284	-0.282738
H	 1.3045458438	 1.9237293172	-0.182470995	 0.115165
H	-0.2612014236	 2.0265818998	-0.9958639994	 0.114054
H	-0.1609441968	 2.2102601435	 0.7595372166	 0.114417
H	-1.028546459	-0.0564971382	 0.1628402716	 0.081592
H	 0.1545839554	-1.6094270092	-1.2265972279	 0.101171
H	 0.554042112	-0.1161543725	-2.0791151571	 0.09126
H	 2.6191225207	-1.6450985858	-1.2719810055	 0.095976
H	 2.6990459612	 0.0624322485	-0.8542452398	 0.096952
H	 1.796958737	-2.2514705669	 0.9074150089	 0.090233
H	 3.5650131747	 0.1690890937	 1.5618974082	 0.112155
H	 3.2368496637	-1.2089573713	 2.6267450848	 0.12056
H	 4.1626140501	-1.4430740719	 1.1437813019	 0.113435
H	 1.3772311304	 0.0027317296	 3.3749024713	 0.107888
H	-0.0995509321	 0.924738116	 2.8031694427	 0.105569
21.0111	188.1006	196.6746	228.1688	243.8096	276.2622	302.9362	325.7498	419.6227	439.6978	501.8277	529.9391	590.7434	701.6865	814.2144	848.2806	849.5862	875.3526	936.4783	954.7265	958.6149	984.4601	996.8747	1033.2018	1060.5331	1095.7706	1129.5241	1144.2742	1156.7906	1166.4822	1199.7731	1215.5051	1235.5919	1284.6095	1315.8229	1326.8846	1340.8551	1358.4685	1373.077	1394.5479	1409.0019	1419.0113	1487.5786	1494.4999	1496.5763	1501.3252	1503.2538	1506.9973	1532.8944	3018.7141	3026.9549	3029.3509	3034.3429	3037.06	3061.9602	3078.3123	3083.7315	3090.3093	3095.5461	3099.0315	3100.9312	3104.7635	3159.8472
CC1CCC(C)C11CO1	C[C@H]1CC[C@@H](C)[C@]21CO2	
InChI=1S/C8H14O/c1-6-3-4-7(2)8(6)5-9-8/h6-7H,3-5H2,1-2H3	InChI=1S/C8H14O/c1-6-3-4-7(2)8(6)5-9-8/h6-7H,3-5H2,1-2H3/t6-,7+,8+
