16
gdb 14436	4.26476	2.16474	1.8248	1.0338	68.04	-0.2113	0.0163	0.2275	752.6987	0.131955	-346.568449	-346.562282	-346.561338	-346.598177	25.808	
O	-0.1080855444	 1.3945243789	-0.063320556	-0.463135
C	-0.0005299548	 0.0165384999	-0.0586180918	 0.388629
C	 0.7508527593	-0.8118872547	-1.0948265702	-0.295352
C	-0.213852915	-2.0140471801	-0.7372974531	-0.095936
C	 0.4371645789	-2.803592767	 0.3810775213	-0.090807
C	 0.4414831744	-2.060237874	 1.4919222611	-0.082611
C	-0.2990943049	-0.7907097585	 1.2390426113	-0.150879
C	-1.1309405764	-0.9676821017	-0.0135985172	-0.126005
H	 0.6498833886	 1.7598209435	 0.4063554376	 0.285515
H	 0.5332770059	-0.4222470907	-2.0922632042	 0.109358
H	 1.8274410419	-0.9799134566	-0.9814122383	 0.085126
H	-0.6102318239	-2.5773626498	-1.5803543537	 0.071002
H	 0.9454437017	-3.7481171502	 0.2318397204	 0.09439
H	 0.930216122	-2.2969332903	 2.4289066513	 0.093849
H	-0.6944194235	-0.1807581378	 2.0434048756	 0.084143
H	-2.2029053698	-0.835165231	-0.0924800943	 0.092713
223.3537	282.9401	344.1175	376.1608	434.5894	546.0856	594.9817	696.5023	711.7333	754.9278	794.8955	844.7169	859.757	887.9387	912.1031	932.41	953.0272	982.3056	1010.2818	1028.1487	1045.6363	1098.2663	1131.2187	1169.6564	1171.9132	1221.3109	1252.5923	1274.9519	1293.3489	1306.0425	1357.0512	1434.4582	1493.311	1645.3116	3038.0346	3107.0384	3124.1055	3179.8928	3190.6922	3198.0537	3222.818	3794.7218
OC12CC3C=CC1C23	O[C@@]12C[C@H]3C=C[C@@H]1[C@@H]23	
InChI=1S/C7H8O/c8-7-3-4-1-2-5(7)6(4)7/h1-2,4-6,8H,3H2	InChI=1S/C7H8O/c8-7-3-4-1-2-5(7)6(4)7/h1-2,4-6,8H,3H2/t4-,5-,6+,7+/m1/s1
