23
gdb 82953	2.97912	1.3104	1.21588	0.2188	87.93	-0.2571	0.0797	0.3368	1173.3062	0.208665	-351.142289	-351.134151	-351.133207	-351.174657	33.452	
C	-0.3069449817	 1.5189746531	-0.0840523964	-0.410221
C	-0.0182879067	 0.0368397823	 0.0064558549	-0.026399
C	 1.3194266637	-0.5928512881	-0.3264651167	-0.028344
C	 2.5912705745	 0.2211950834	-0.5650293342	-0.272985
C	 3.6405749664	-0.0691200442	 0.5105290311	 0.008071
C	 4.0826215748	 0.9989163887	 1.4804909784	-0.30584
C	 3.1316995919	-0.0812792453	 1.934206327	 0.008071
C	 1.6368140605	 0.1983855715	 2.1052446186	-0.272985
C	 0.8087421577	-0.6050538657	 1.1022733129	-0.028343
H	 0.5357075103	 2.143244492	 0.2225324201	 0.116835
H	-0.5617310776	 1.801966094	-1.1117574513	 0.115063
H	-1.1570110804	 1.7877182688	 0.5533976784	 0.115063
H	-0.8700527959	-0.5653626041	-0.3031405417	 0.07782
H	 1.2790510561	-1.5342531238	-0.8670120567	 0.073897
H	 2.9976648735	-0.0058676666	-1.5550669001	 0.098737
H	 2.3658089574	 1.2925088933	-0.5787495881	 0.099945
H	 4.3775662371	-0.8219369332	 0.247428621	 0.076569
H	 5.1042756856	 0.97913549	 1.8454991182	 0.104325
H	 3.68229324	 2.0006061199	 1.3459546298	 0.101573
H	 3.5390287056	-0.8419719033	 2.5934034914	 0.076569
H	 1.3248317729	-0.045847753	 3.1250020939	 0.098737
H	 1.4479346069	 1.2705738785	 1.9891757342	 0.099945
H	 0.4399758974	-1.5542985682	 1.4804321353	 0.073897
91.577	143.1164	227.8012	282.8257	286.1525	396.5448	429.952	444.9451	501.9662	546.635	625.4286	752.4526	793.1524	794.6861	821.1137	825.8331	877.07	908.1757	914.0783	961.3312	974.4618	985.8403	1016.3295	1052.7099	1065.5815	1083.0963	1106.1459	1112.2939	1130.2295	1147.6176	1162.811	1175.0421	1226.0252	1233.5102	1256.8852	1271.3757	1305.7412	1325.9427	1373.5887	1377.7724	1377.9822	1405.1015	1418.6354	1440.3592	1479.8764	1480.4333	1494.9544	1500.3365	1507.9773	3029.6708	3044.6364	3047.7265	3078.4639	3080.8439	3084.075	3106.6451	3114.0774	3122.7304	3131.9909	3141.4969	3145.4928	3151.9331	3199.9227
CC1C2CC3CC3CC12	C[C@H]1[C@H]2C[C@H]3C[C@H]3C[C@@H]12	
InChI=1S/C9H14/c1-5-8-3-6-2-7(6)4-9(5)8/h5-9H,2-4H2,1H3	InChI=1S/C9H14/c1-5-8-3-6-2-7(6)4-9(5)8/h5-9H,2-4H2,1H3/t5-,6+,7-,8+,9-
