16
gdb 10041	3.34298	1.33854	1.058	4.5038	70.97	-0.2446	0.0215	0.2661	1101.482	0.12909	-342.748953	-342.739896	-342.738952	-342.783029	31.79	
C	-0.0125168597	 1.5223396837	 0.1711920273	-0.330283
N	-0.0528400493	 0.074709892	-0.023323235	-0.259848
C	 0.6815592284	-0.4495839757	-1.1735650911	-0.18616
C	-0.0523728266	-0.1127741193	-2.5003264108	-0.335637
C	-1.4106384736	-0.6484891524	-2.537221824	 0.273534
N	-2.4791628484	-1.0840348019	-2.5910563703	-0.30706
C	 2.0845830834	-0.0114799854	-1.2652192863	 0.328871
C	 3.2240521309	 0.3699963779	-1.3137264842	-0.448508
H	 1.0034598458	 1.9441548791	 0.2075633683	 0.115456
H	-0.5639622953	 2.027524799	-0.6282441118	 0.129033
H	-0.5223890227	 1.7570203376	 1.1088264002	 0.130324
H	 0.2810528932	-0.3895847691	 0.812964743	 0.233108
H	 0.6706616721	-1.5411166356	-1.0720311498	 0.130164
H	-0.0866894433	 0.9713231487	-2.6440097719	 0.159645
H	 0.5177131477	-0.5234145898	-3.3392182108	 0.162993
H	 4.2355569073	 0.6924570511	-1.3548483227	 0.204366
55.3	105.0047	122.6134	158.3312	220.1843	239.4024	328.2497	377.9145	397.3669	495.4583	546.0102	614.5738	648.1702	661.2367	727.1178	841.9244	937.3654	962.1163	994.613	1031.961	1142.072	1156.0387	1183.9198	1239.5539	1290.2056	1353.3054	1369.7391	1454.3883	1469.3749	1488.3476	1497.1525	1522.2469	2224.3566	2367.2089	2991.0395	3041.3755	3064.531	3076.4436	3104.9583	3117.0288	3499.8857	3545.9261
CNC(CC#N)C#C	CN[C@@H](CC#N)C#C	
InChI=1S/C6H8N2/c1-3-6(8-2)4-5-7/h1,6,8H,4H2,2H3	InChI=1S/C6H8N2/c1-3-6(8-2)4-5-7/h1,6,8H,4H2,2H3/t6-/m1/s1
