22
gdb 120763	2.9597	1.05795	0.94031	2.0477	83.32	-0.2089	0.0792	0.2881	1375.7904	0.192996	-404.281107	-404.271504	-404.27056	-404.316261	35.676	
C	-0.1742744175	 0.8084109921	 0.246953553	-0.384703
C	-0.0051368643	-0.2989227253	-0.7899462532	-0.049014
O	-1.1938214898	-1.0338875212	-1.0608913918	-0.247515
C	-1.5637755199	-1.9305968894	-0.0585538052	 0.103784
C	-2.5942745936	-1.5487042983	 0.9869393345	-0.333737
C	-2.9443890322	-2.5480759322	-0.0891262154	-0.010865
N	-4.0072817693	-2.3005289044	-1.0245574982	-0.086234
C	-4.104341612	-1.0634321615	-1.7905350602	-0.227278
C	-3.7327621678	-2.3435830751	-2.4592506749	-0.21532
H	 0.7608978312	 1.3701856199	 0.3434160955	 0.115592
H	-0.962299204	 1.5045845283	-0.0557108346	 0.123795
H	-0.4289497284	 0.4045891726	 1.2301356326	 0.131525
H	 0.2904392698	 0.1277039968	-1.7536658688	 0.108208
H	 0.7908850785	-0.9930514435	-0.4774328582	 0.091583
H	-0.7472434499	-2.5840257454	 0.2565724377	 0.082997
H	-2.4783383967	-1.8757909236	 2.0150064759	 0.109649
H	-3.0346365785	-0.5641115229	 0.8695727263	 0.124113
H	-2.9589142725	-3.5899484475	 0.2225295639	 0.097065
H	-5.1136084791	-0.6700843158	-1.8861820467	 0.106178
H	-3.31955575	-0.3217774008	-1.6938080231	 0.128697
H	-2.6972436319	-2.4390726772	-2.7746239938	 0.123772
H	-4.456935762	-2.8880677755	-3.0599668854	 0.107708
46.4282	79.9161	111.4852	149.3167	223.2825	246.9119	286.6508	336.0616	369.4858	459.1155	505.3954	641.2609	689.2076	773.6289	811.9441	816.0763	837.2822	890.7235	894.4033	919.1104	1011.5053	1020.7671	1051.4039	1061.6921	1088.7687	1106.8328	1116.8034	1133.7102	1136.4775	1148.5438	1166.7142	1181.1834	1188.3549	1205.336	1243.2371	1330.6614	1358.6232	1377.647	1398.1314	1407.5414	1423.8937	1477.6343	1485.4855	1487.895	1489.3159	1509.6373	1516.1398	2983.9289	3041.2826	3071.1827	3074.0266	3104.0503	3109.7868	3111.0985	3126.0532	3127.0695	3129.6686	3192.4065	3214.9445	3218.437
CCOC1CC1N1CC1	CCO[C@H]1C[C@H]1N1CC1	
InChI=1S/C7H13NO/c1-2-9-7-5-6(7)8-3-4-8/h6-7H,2-5H2,1H3	InChI=1S/C7H13NO/c1-2-9-7-5-6(7)8-3-4-8/h6-7H,2-5H2,1H3/t6-,7+/m1/s1
