15
gdb 54171	2.30625	1.48331	1.13539	6.4317	66.99	-0.2581	0.0001	0.2582	1084.92	0.111629	-453.975483	-453.966616	-453.965672	-454.009068	32.749	
N	-0.0243358192	 1.2782651638	 0.3146666921	-0.5395
C	 0.071689156	-0.0049855933	-0.12439217	 0.35082
O	 1.0879330249	-0.515942293	-0.5517373855	-0.35827
C	-1.2372676843	-0.7691990805	-0.060351801	 0.277521
O	-2.3841087215	-0.025702031	 0.2432977721	-0.466164
C	-1.3527111422	-1.9981565002	-0.9151786438	-0.334412
C	-1.2237215671	-2.151510122	 0.588070845	-0.198331
C	-0.050030256	-2.7116545169	 1.197470154	 0.31774
N	 0.8548599174	-3.1971970234	 1.7284782233	-0.339751
H	 0.8288579067	 1.8025005083	 0.420824077	 0.269985
H	-0.8533944283	 1.5738953601	 0.8024603313	 0.269797
H	-2.7012633967	 0.3808769089	-0.57182002	 0.297482
H	-2.3223568041	-2.2262281381	-1.3414985784	 0.131565
H	-0.4798983123	-2.2377420846	-1.5096414005	 0.171558
H	-2.1448840633	-2.3683850081	 1.1188320445	 0.149962
68.2696	115.9666	153.708	246.7416	279.5711	298.0609	350.9262	382.4627	420.7719	480.0848	525.8473	531.9104	568.3354	633.8024	689.129	779.3629	810.0388	894.3139	919.3888	960.1924	1073.1637	1086.7592	1097.5962	1128.3309	1221.788	1255.6721	1328.0032	1383.9882	1395.7142	1457.3429	1596.9657	1801.2587	2362.3717	3150.6634	3174.4308	3257.3651	3596.2766	3732.2774	3790.7068
NC(=O)C1(O)CC1C#N	NC(=O)[C@@]1(O)C[C@H]1C#N	
InChI=1S/C5H6N2O2/c6-2-3-1-5(3,9)4(7)8/h3,9H,1H2,(H2,7,8)	InChI=1S/C5H6N2O2/c6-2-3-1-5(3,9)4(7)8/h3,9H,1H2,(H2,7,8)/t3-,5+/m0/s1
