20
gdb 95661	2.92727	1.22522	0.94176	4.413	83.34	-0.2374	-0.0257	0.2117	1279.4193	0.173067	-403.197141	-403.18848	-403.187536	-403.230675	33.075	
C	 0.4073085153	 1.5854729402	 0.0373764186	-0.399606
C	-0.0183826358	 0.1068892289	-0.0550547637	-0.031315
C	 0.4762823987	-0.5177580803	-1.3642159292	-0.19844
C	 0.1809633197	-2.01566032	-1.4921998181	-0.179629
N	 1.1523834799	-2.851938041	-0.8118032724	-0.320597
C	 1.532457161	-2.8258000258	 0.501234268	 0.367283
O	 2.3121314887	-3.6599462599	 0.9405394421	-0.383851
C	 0.9824597218	-1.7876376511	 1.4186619854	-0.15038
C	 0.3691975439	-0.6183163816	 1.2062595286	-0.046447
H	 1.4978174294	 1.6743866314	 0.0832972905	 0.127159
H	 0.0578723297	 2.1436290856	-0.8369187797	 0.116202
H	-0.006330178	 2.0641010443	 0.9303266959	 0.117867
H	-1.1207181627	 0.096247876	-0.0804268386	 0.092757
H	-0.0034366683	 0.0135523763	-2.1945805776	 0.099403
H	 1.5567296075	-0.3655874828	-1.4725993424	 0.11069
H	-0.8403279996	-2.2245660843	-1.1393777894	 0.110794
H	 0.2117128968	-2.3044341506	-2.54626455	 0.112488
H	 1.5593867445	-3.6228697835	-1.3188467217	 0.244862
H	 1.1799615491	-2.0758084719	 2.4469725706	 0.113023
H	 0.0955013483	-0.0650241296	 2.105417313	 0.097737
55.795	110.8604	224.939	236.4775	268.2802	306.0554	350.5986	385.3127	462.2497	494.582	546.8402	598.4721	679.1773	720.4498	766.0253	838.1416	871.2366	886.93	940.3727	987.5867	1014.307	1033.2102	1058.3255	1111.4544	1140.5126	1179.0604	1227.7977	1268.1953	1288.1762	1311.8909	1346.8968	1380.9794	1389.3027	1403.5241	1414.8053	1436.4069	1469.0841	1482.3379	1497.6406	1501.3046	1508.7491	1701.2891	1755.9131	2965.8142	2991.3177	3029.5389	3034.7833	3073.7771	3086.3354	3106.1412	3106.8959	3117.6662	3178.416	3625.5831
CC1CCNC(=O)C=C1	C[C@H]1CCNC(=O)C=C1	
InChI=1S/C7H11NO/c1-6-2-3-7(9)8-5-4-6/h2-3,6H,4-5H2,1H3,(H,8,9)	InChI=1S/C7H11NO/c1-6-2-3-7(9)8-5-4-6/h2-3,6H,4-5H2,1H3,(H,8,9)/t6-/m1/s1
