16
gdb 68695	2.01736	1.81546	1.14408	2.7307	78.56	-0.2463	-0.027	0.2193	1087.7146	0.122086	-400.696872	-400.688317	-400.687373	-400.729923	32.261	
C	 0.0019124282	 1.5256224624	 0.0536973801	-0.476209
C	-0.0563542301	 0.0302464895	 0.0558153309	 0.256163
C	-1.3126401238	-0.8455950172	-0.0959270025	-0.424103
C	-0.6933409265	-1.7835937714	 0.9770838495	 0.358125
O	-1.1232334695	-2.7021102788	 1.6081107822	-0.290276
C	 0.5704747175	-0.9422314161	 1.0806995429	 0.004526
N	 1.1135024165	-0.7405042465	-0.2888539193	-0.372217
C	 1.3934485762	-0.7340847959	 2.2196770392	 0.238672
C	 2.0524071415	-0.5658298622	 3.2113870792	-0.409752
H	 0.9856308261	 1.8649072321	 0.3860626899	 0.149159
H	-0.1710675995	 1.9146076542	-0.9560252633	 0.133119
H	-0.761902074	 1.9464671479	 0.7143994423	 0.130702
H	-2.2364452283	-0.4046977481	 0.2920424996	 0.139587
H	-1.5007599979	-1.2463345994	-1.096812329	 0.123877
H	 0.9142457756	-1.5329755859	-0.8980200756	 0.24222
H	 2.6413087078	-0.4207641048	 4.0831415339	 0.196408
104.0358	117.1594	148.5536	198.7366	281.3426	347.283	384.4542	424.709	523.7299	534.4838	593.1466	609.2557	620.5887	651.793	657.0762	723.1596	779.522	880.1971	952.9119	987.9874	1043.2449	1073.3323	1106.9619	1126.8481	1159.3194	1205.9363	1218.7721	1336.4172	1404.2314	1438.3995	1467.8055	1482.0796	1491.8088	1887.0452	2240.097	3038.1676	3050.6189	3101.9391	3104.0421	3132.7115	3458.8874	3500.8467
CC12CC(=O)C1(N2)C#C	C[C@]12CC(=O)[C@]1(N2)C#C	
InChI=1S/C7H7NO/c1-3-7-5(9)4-6(7,2)8-7/h1,8H,4H2,2H3	InChI=1S/C7H7NO/c1-3-7-5(9)4-6(7,2)8-7/h1,8H,4H2,2H3/t6-,7+/m0/s1
