23
gdb 41836	2.67939	1.88408	1.63113	0.12	86.43	-0.2831	0.0739	0.357	972.5222	0.212395	-351.2006	-351.193944	-351.193	-351.231407	29.239	
C	-0.0568141217	 1.5584382991	-0.1595853817	-0.222289
C	 1.404630829	 2.0520334261	 0.047690443	-0.222289
C	 2.2267860699	 0.7853681622	 0.363177457	 0.016337
C	 2.2186252576	 0.3674165402	 1.8735247372	-0.22376
C	 1.3005016352	-0.8721791844	 1.9009813851	 0.004087
C	-0.1317499012	-0.4265388177	 1.5399424336	-0.223757
C	-0.0089176497	 0.0302254735	 0.0458963293	 0.016334
C	 1.4491358159	-0.3868035366	-0.3014553218	-0.019097
C	 1.7280305766	-1.5937733339	 0.6060250491	-0.227765
H	-0.7651267451	 2.0360972206	 0.5245500047	 0.09235
H	-0.3969538663	 1.7942210823	-1.1731871861	 0.091781
H	 1.7774122835	 2.5284124595	-0.8648764382	 0.091781
H	 1.4897499575	 2.7978054818	 0.8442357055	 0.092346
H	 3.2528815953	 0.8750448838	-0.0027788367	 0.056387
H	 3.2272895868	 0.1034680937	 2.2079262509	 0.088993
H	 1.8601642172	 1.1696784821	 2.5272205956	 0.086164
H	 1.3660976753	-1.4538036924	 2.8231280076	 0.050004
H	-0.8280942647	-1.2664640246	 1.6322893093	 0.088991
H	-0.4996223316	 0.3725086414	 2.1923455511	 0.086162
H	-0.7539799918	-0.4782846998	-0.57146541	 0.056388
H	 1.6427014291	-0.5112639481	-1.3691779198	 0.049037
H	 2.7789679323	-1.9018310453	 0.6082781741	 0.085908
H	 1.1087713207	-2.4659943134	 0.3712430612	 0.085909
95.9424	304.14	335.5788	413.3564	433.854	525.0826	557.8687	703.354	754.8076	764.3682	790.724	814.7337	829.492	867.0676	892.4213	900.6664	942.5994	954.4419	965.9896	979.8907	987.8736	1007.2333	1008.006	1011.8003	1085.1713	1117.8826	1130.1504	1154.2289	1155.2002	1174.1692	1180.4083	1237.7854	1250.5025	1260.4771	1288.9114	1289.4202	1290.585	1301.0042	1321.8582	1329.4313	1336.4284	1351.758	1357.9062	1371.6711	1484.5651	1489.6404	1494.5148	1507.9228	1517.0661	3035.6061	3036.2276	3036.5471	3041.0636	3046.4881	3061.9505	3065.049	3067.8736	3079.5484	3080.0665	3086.366	3087.6534	3090.5143	3095.687
C1CC2CC3CC1C2C3	C1C[C@H]2C[C@H]3C[C@@H]1[C@@H]2C3	
InChI=1S/C9H14/c1-2-8-4-6-3-7(1)9(8)5-6/h6-9H,1-5H2	InChI=1S/C9H14/c1-2-8-4-6-3-7(1)9(8)5-6/h6-9H,1-5H2/t6-,7-,8+,9+
