14
gdb 127350	3.56496	1.66412	1.14272	6.3367	69.53	-0.2335	-0.0246	0.2089	989.1816	0.103927	-432.863635	-432.856832	-432.855888	-432.895094	25.285	
C	-0.0158365453	 1.494510957	-0.0395433314	-0.351833
N	-0.0084174651	 0.0478112893	 0.0240085394	-0.154841
C	-0.0366130326	-0.8239688754	-1.0404308387	-0.004002
N	-0.0188388625	-2.1070619883	-0.7086857825	-0.368578
C	 0.0224553871	-2.0428702506	 0.6430194154	 0.432127
C	 0.030788569	-0.762000889	 1.1418812109	 0.185761
C	 0.0746454536	-0.9356048159	 2.5409459393	-0.104608
N	 0.0910612985	-2.2218024786	 2.8413988515	-0.139303
O	 0.0576057583	-2.9460909915	 1.6286865111	-0.227914
H	 0.8914506527	 1.9088735673	 0.4107119208	 0.152103
H	-0.0587005894	 1.8014748666	-1.0861131943	 0.152113
H	-0.8877534042	 1.9019481135	 0.4812242042	 0.152126
H	-0.0701884567	-0.4518460014	-2.0547034278	 0.141954
H	 0.0957707268	-0.2228792531	 3.3522787821	 0.134895
109.8673	162.2543	236.7666	257.9324	368.5405	538.623	603.8404	621.1712	625.9041	709.873	773.8965	821.1298	824.5902	871.7308	879.4463	969.7741	1067.854	1128.3897	1153.7562	1205.0722	1254.9201	1300.32	1365.7768	1410.6695	1441.3773	1475.7685	1480.4396	1486.2403	1519.8655	1572.8838	1602.4931	3041.2475	3103.3766	3140.5376	3244.3424	3248.0015
CN1C=NC2=C1C=NO2	Cn1cnc2c1cno2	
InChI=1S/C5H5N3O/c1-8-3-6-5-4(8)2-7-9-5/h2-3H,1H3	InChI=1S/C5H5N3O/c1-8-3-6-5-4(8)2-7-9-5/h2-3H,1H3
