22
gdb 88425	2.79413	1.16644	1.04496	1.2388	83.52	-0.2166	0.0608	0.2774	1287.4698	0.192197	-404.2979	-404.287947	-404.287002	-404.33255	37.636	
C	 0.0577436178	 1.5742466412	-0.0694890638	-0.426274
C	 0.0198707398	 0.0646337078	 0.0151177488	-0.050716
C	 1.2266165227	-0.7611417339	-0.3739934784	-0.335866
C	 0.8098935793	-0.685903753	 1.0734201049	 0.378887
O	 1.6864730452	 0.0540847057	 1.8873996717	-0.46779
C	 0.2013371161	-1.9201609206	 1.6853486328	-0.038213
C	 0.7632252983	-2.5478829762	 2.9139405302	-0.263919
N	-0.5669805269	-1.9466577492	 2.9323473733	-0.09432
C	-0.7799753223	-0.7374613063	 3.7110158145	-0.321994
H	 1.0387219769	 1.9596917972	 0.221024724	 0.12713
H	-0.1460684796	 1.9128367709	-1.0908295381	 0.122442
H	-0.6942484583	 2.0325783016	 0.5840199555	 0.112511
H	-0.9447288243	-0.376142688	-0.2252835983	 0.089053
H	 1.0828287014	-1.6900813182	-0.9148788973	 0.112528
H	 2.1344101762	-0.2225489054	-0.6229283731	 0.120166
H	 1.1673147667	 0.6870617538	 2.3946432077	 0.28399
H	-0.2277808866	-2.5758777204	 0.9279152999	 0.084264
H	 0.8048314363	-3.6291008515	 3.0218447161	 0.108778
H	 1.5719078634	-2.002161234	 3.3961759572	 0.119834
H	 0.1288558832	-0.1480649958	 3.9080125581	 0.092808
H	-1.5118224444	-0.0984532526	 3.2051047602	 0.12083
H	-1.1999573909	-1.0166838733	 4.6832439744	 0.125872
53.4711	114.4687	174.9103	189.1837	202.2575	247.7939	268.3601	341.7084	349.5561	362.6202	404.6159	459.9685	553.5288	569.3522	710.7373	760.2275	798.5405	868.8072	891.3598	925.2139	945.1645	993.6823	1019.1776	1041.1011	1052.1884	1081.3356	1106.1799	1129.488	1134.3911	1146.266	1162.1871	1189.6664	1206.187	1241.0579	1276.7455	1332.8334	1362.4871	1385.2076	1411.9989	1431.6251	1440.5138	1481.8572	1486.9061	1500.0819	1503.8589	1508.927	1513.3387	2978.9941	3027.2088	3059.761	3084.9657	3091.9445	3094.4275	3102.2249	3111.9395	3133.9864	3137.3389	3180.6944	3224.041	3806.2492
CC1CC1(O)C1CN1C	C[C@H]1C[C@]1(O)[C@H]1CN1C	
InChI=1S/C7H13NO/c1-5-3-7(5,9)6-4-8(6)2/h5-6,9H,3-4H2,1-2H3	InChI=1S/C7H13NO/c1-5-3-7(5,9)6-4-8(6)2/h5-6,9H,3-4H2,1-2H3/t5-,6+,7+,8?/m0/s1
