14
gdb 45876	2.09438	1.86772	1.329	1.9752	67.7	-0.2719	-0.0376	0.2343	977.2107	0.100757	-436.687824	-436.680097	-436.679153	-436.720394	28.421	
O	 0.0586647571	-0.0279079083	 0.1971049463	-0.296275
C	 0.0495167354	 1.1448220273	-0.0115123458	 0.440607
O	-1.1459972371	 1.7908270062	-0.232862163	-0.212068
C	-1.1473156186	 3.0800563429	-0.7346382946	 0.142832
N	-0.179891019	 3.7218884922	-1.2142477348	-0.226651
C	 1.1192982302	 3.0698796238	-1.2046054349	-0.181485
C	 1.2727438141	 2.0644789885	-0.0368387281	-0.31654
C	 1.3930345783	 2.7368009485	 1.2537485836	 0.32962
C	 1.4820217996	 3.2968991014	 2.312564601	-0.457522
H	-2.1552876724	 3.4815088926	-0.6965273885	 0.149049
H	 1.2586823629	 2.5478818371	-2.1607340094	 0.133323
H	 1.899235957	 3.8318899982	-1.1358666827	 0.139158
H	 2.1415395529	 1.4197630274	-0.1989300283	 0.144633
H	 1.5686473896	 3.7873117722	 3.2508952491	 0.211318
84.9655	131.8066	142.1371	221.4239	362.4009	432.8412	443.5239	488.7388	562.4402	632.0013	647.0723	652.8005	733.8755	805.4078	856.0603	905.694	949.1066	974.5256	1019.3151	1060.1793	1111.0977	1157.4192	1240.1164	1252.8472	1320.4815	1375.0721	1405.5189	1481.1344	1751.3543	1888.5375	2239.2731	3026.7703	3074.327	3098.1061	3196.3476	3502.4535
O=C1OC=NCC1C#C	O=C1OC=NC[C@H]1C#C	
InChI=1S/C6H5NO2/c1-2-5-3-7-4-9-6(5)8/h1,4-5H,3H2	InChI=1S/C6H5NO2/c1-2-5-3-7-4-9-6(5)8/h1,4-5H,3H2/t5-/m1/s1
