25
gdb 122633	3.7701	0.72024	0.64958	0.8481	90.37	-0.241	0.085	0.3261	1868.3416	0.227592	-389.484925	-389.474172	-389.473228	-389.521744	38.933	
C	-0.1047010837	 1.6356198607	-0.2368087313	-0.382171
C	-0.2256707961	 0.247955996	 0.397240714	-0.182578
C	-1.4426331962	-0.5179115032	-0.1034545678	-0.039962
O	-1.4806904901	-1.7795620186	 0.5333881757	-0.255269
C	-2.5728084542	-2.5731719736	 0.1577701332	 0.170083
C	-2.5695304477	-3.2654980766	-1.2349312256	-0.254471
C	-3.0965970895	-4.5487389785	-0.5339630991	-0.228264
C	-2.6343447401	-3.9680293503	 0.8377199429	-0.033142
C	-1.2847682906	-4.4977416342	 1.3161783384	-0.38097
H	 0.7759548082	 2.1643344738	 0.1391034964	 0.116502
H	-0.0121401596	 1.5707071479	-1.3266906099	 0.115558
H	-0.9818670039	 2.2539958282	-0.0159434378	 0.115632
H	 0.670284015	-0.3467489533	 0.185067701	 0.10527
H	-0.2925559419	 0.3319200261	 1.4880854865	 0.105424
H	-2.3675537847	 0.0451585083	 0.1143147733	 0.080884
H	-1.3925593495	-0.6386489519	-1.1987140115	 0.086397
H	-3.513227219	-2.0187448688	 0.3098057927	 0.057584
H	-3.1796606529	-2.8291976854	-2.0291933118	 0.092229
H	-1.5465190682	-3.3894829196	-1.6012391164	 0.107091
H	-4.1833030491	-4.64360571	-0.6042136604	 0.098578
H	-2.6463440195	-5.4978451563	-0.8351169167	 0.097182
H	-3.3646404416	-4.0436622971	 1.6490246465	 0.064673
H	-0.5314128843	-4.463117351	 0.5230498764	 0.114947
H	-0.904388384	-3.9060091992	 2.1532724641	 0.123461
H	-1.3816499868	-5.5383477935	 1.6440259171	 0.105332
50.119	59.0592	91.6633	125.2156	145.1639	214.016	225.5564	236.8275	311.1656	361.4756	368.5072	440.4801	565.7382	679.5057	763.3569	767.3744	821.7127	883.3652	899.7752	904.8698	924.0199	949.3621	962.5114	1013.7229	1041.9365	1065.6282	1089.1054	1128.183	1147.5577	1175.1196	1188.6506	1195.5339	1214.3146	1246.7603	1261.6104	1267.6232	1283.9907	1301.7052	1313.1269	1331.9087	1366.3175	1379.9427	1410.0162	1412.5143	1443.6596	1478.0692	1491.3905	1492.9652	1497.6037	1498.7478	1501.0737	1507.3009	1526.7196	2944.7034	2964.2696	2975.3687	3031.215	3035.7975	3037.9483	3050.067	3056.9493	3064.4062	3070.4911	3099.1124	3102.0974	3102.9197	3107.5906	3114.204	3120.3949
CCCOC1CCC1C	CCCO[C@H]1CC[C@H]1C	
InChI=1S/C8H16O/c1-3-6-9-8-5-4-7(8)2/h7-8H,3-6H2,1-2H3	InChI=1S/C8H16O/c1-3-6-9-8-5-4-7(8)2/h7-8H,3-6H2,1-2H3/t7-,8+/m1/s1
