17
gdb 8502	3.8875	2.06694	1.62727	2.0135	68.47	-0.2199	0.0746	0.2945	824.7398	0.142108	-363.771548	-363.764436	-363.763491	-363.80222	28.383	
C	-0.0168895134	 1.4493554791	-0.0075382901	-0.517747
C	 0.039024608	-0.0484906581	-0.0770632139	 0.364782
C	 0.5723285349	-0.9647016719	-1.206604761	-0.382135
C	 0.0739639035	-1.945610984	-0.1252688548	 0.378942
O	 0.0005860065	-3.3237931471	-0.1424493028	-0.469298
C	 0.5320282384	-1.0078894226	 1.0566979685	-0.131776
N	-0.8018399127	-0.9789188728	 1.7420503104	-0.354685
C	-1.124410706	-1.0379043788	 0.2783024021	-0.097422
H	 0.9853421113	 1.8866659613	-0.0740957323	 0.116839
H	-0.6151969077	 1.8622175177	-0.8269434189	 0.118217
H	-0.4670171276	 1.7621101255	 0.9394208844	 0.141622
H	 0.0185428189	-0.9501326473	-2.1507938669	 0.096926
H	 1.6518770724	-0.93112835	-1.390991365	 0.086913
H	 0.8892141152	-3.6785197104	-0.2556343275	 0.285925
H	 1.485995312	-0.9798382842	 1.587804418	 0.071954
H	-0.9900772338	-1.8884311948	 2.1720956568	 0.212515
H	-2.14082418	-1.0446140017	-0.119236267	 0.078428
216.7526	230.4054	233.2954	258.8553	322.1688	390.0761	427.6261	537.4054	592.9998	691.4654	711.064	786.9906	864.0723	880.3144	895.0637	909.735	1003.5324	1008.4458	1024.9789	1049.8235	1090.0768	1103.0384	1136.2918	1159.9169	1167.3936	1176.5776	1219.3905	1278.9141	1287.0314	1297.0029	1344.1679	1401.5764	1417.7353	1491.3741	1493.2973	1515.9761	3029.9461	3033.2897	3090.8182	3091.1584	3092.8101	3103.9238	3111.0424	3406.4262	3803.8896
CC12CC3(O)C1NC23	C[C@@]12C[C@@]3(O)[C@@H]1N[C@@H]23	
InChI=1S/C6H9NO/c1-5-2-6(8)3(5)7-4(5)6/h3-4,7-8H,2H2,1H3	InChI=1S/C6H9NO/c1-5-2-6(8)3(5)7-4(5)6/h3-4,7-8H,2H2,1H3/t3-,4+,5-,6-
