15
gdb 10663	2.71993	2.12107	1.32313	1.5905	66.8	-0.2687	-0.0348	0.2339	911.6733	0.117278	-362.691388	-362.683245	-362.682301	-362.724207	29.133	
C	-0.426625753	 1.4185102614	 0.0446007565	-0.50373
C	 0.1132093456	 0.0100655065	-0.006584776	 0.33969
O	 0.5996213948	-0.5458395637	 0.9517107237	-0.306931
C	 0.03282305	-0.7257237305	-1.330459334	 0.07335
C	 1.1715769162	-1.7236497555	-1.6035130271	-0.272325
C	-0.1612922505	-2.2486866343	-1.2309153821	-0.272346
C	-0.5482608254	-0.0500383209	-2.456816976	 0.208991
N	-1.0180364759	 0.504380219	-3.3576618685	-0.346026
H	 0.0940973956	 2.0524237235	-0.6813832932	 0.160971
H	-1.4848514827	 1.4309270738	-0.2384099922	 0.16098
H	-0.3022374759	 1.8191604461	 1.0504443169	 0.147398
H	 1.5012591481	-1.805271507	-2.6318838488	 0.1481
H	 1.9456104052	-1.7256385154	-0.8454508481	 0.156895
H	-0.297550133	-2.6092214497	-0.2183750978	 0.156896
H	-0.7802512891	-2.7040406832	-1.9940939232	 0.148089
57.2876	146.0906	152.113	216.4723	257.6182	265.2616	370.9681	506.3346	550.5769	562.7791	619.1518	633.7719	791.7444	824.3729	874.0357	952.0256	981.9542	1002.2731	1055.0255	1076.376	1110.8969	1164.74	1209.9568	1292.8816	1302.5741	1388.1222	1448.2805	1455.1834	1469.5144	1478.0338	1800.4231	2347.0433	3042.5441	3102.7351	3151.9049	3152.2013	3161.9925	3245.1876	3258.5406
CC(=O)C1(CC1)C#N	CC(=O)C1(CC1)C#N	
InChI=1S/C6H7NO/c1-5(8)6(4-7)2-3-6/h2-3H2,1H3	InChI=1S/C6H7NO/c1-5(8)6(4-7)2-3-6/h2-3H2,1H3
