14
gdb 43495	2.38419	1.94803	1.18649	1.9995	62.37	-0.2579	-0.035	0.223	972.4318	0.10295	-473.872931	-473.866001	-473.865057	-473.904797	25.775	
O	-0.0341553682	 0.0130468192	 0.2658556171	-0.34284
C	-0.0273158548	 1.2014795875	 0.0760814822	 0.421447
N	-1.1602686474	 2.0080088209	-0.0226683629	-0.359804
C	-0.9269917412	 3.3588237509	-0.2761295809	 0.421769
O	-1.7702889553	 4.1998783257	-0.4361021027	-0.332811
C	 0.5982260916	 3.5291224781	-0.2767453767	 0.001815
O	 1.0726902508	 3.9520433216	 1.0210844212	-0.280123
C	 1.7349336476	 2.685191045	 1.2417645811	-0.080712
C	 1.1782161534	 2.1173682766	-0.0872934202	-0.218215
H	-2.0936542654	 1.6303292204	 0.068269554	 0.276713
H	 0.9402648022	 4.1779479485	-1.0866935819	 0.113788
H	 2.8239915599	 2.7993183574	 1.2565438588	 0.123944
H	 1.4060122024	 2.1918907379	 2.1620688389	 0.130958
H	 1.8985559944	 1.7123395902	-0.795110098	 0.124071
92.4277	133.6028	237.5715	252.777	386.6285	490.5389	602.1216	619.8241	675.4025	730.3037	739.2384	808.8357	860.8525	877.4128	937.9475	966.958	1020.2188	1035.7851	1065.255	1154.6663	1182.7254	1217.4681	1249.0137	1282.4855	1309.9764	1328.2471	1354.1829	1360.0952	1525.4165	1840.2809	1881.4307	3037.796	3088.3912	3088.9246	3142.613	3612.5358
O=C1NC(=O)C2OCC12	O=C1NC(=O)[C@H]2OC[C@@H]12	
InChI=1S/C5H5NO3/c7-4-2-1-9-3(2)5(8)6-4/h2-3H,1H2,(H,6,7,8)	InChI=1S/C5H5NO3/c7-4-2-1-9-3(2)5(8)6-4/h2-3H,1H2,(H,6,7,8)/t2-,3+/m1/s1
