21
gdb 107066	3.76118	1.09917	0.97264	1.7288	78.5	-0.2444	0.0746	0.319	1279.1724	0.182452	-424.212023	-424.203002	-424.202058	-424.245499	34.662	
C	 0.2435856386	 1.282758104	-0.3110117633	-0.253359
O	-0.068760599	-0.0582938491	 0.0154771634	-0.291451
C	 0.5028400717	-0.4964507888	 1.2061534225	 0.448918
C	 1.9595025827	-0.8862692383	 1.2211000938	-0.349085
C	 0.8771139691	-1.9461216359	 1.3392171352	-0.104058
C	 0.5009674187	-2.4107447983	 2.7301098999	 0.12646
O	 1.5020112932	-3.2704568078	 3.2586974689	-0.437029
C	 0.3139606933	-1.104162969	 3.5442713688	-0.275992
C	-0.123234983	-0.0365061577	 2.5208253839	-0.28345
H	 1.3294390949	 1.4392340594	-0.3804981455	 0.108057
H	-0.2100786131	 1.4875452012	-1.2835910324	 0.124845
H	-0.1629732332	 1.9925838538	 0.4234011513	 0.108047
H	 2.4674310303	-0.8508075643	 0.2638009666	 0.114635
H	 2.5880938085	-0.6585760144	 2.0750744949	 0.114954
H	 0.74266088	-2.6228441515	 0.5040947862	 0.093045
H	-0.458559347	-2.9488971598	 2.665770853	 0.065856
H	 1.1994397966	-3.5843642879	 4.1168862104	 0.279293
H	-0.4001618107	-1.2193947837	 4.3648597047	 0.093423
H	 1.2800427191	-0.8459465055	 3.9896925096	 0.112491
H	 0.1707708899	 0.9747032764	 2.8223536712	 0.096957
H	-1.2117714705	-0.037292483	 2.3905442071	 0.107443
93.8153	122.1911	175.1633	187.9681	256.6142	276.8768	318.624	380.8932	415.1032	423.6784	543.606	596.2811	610.8111	689.0177	816.1225	860.9699	906.0094	931.321	967.4372	976.1051	986.4231	1011.4596	1042.6558	1051.0959	1091.9857	1111.9296	1131.1734	1182.2361	1186.5561	1205.0528	1226.6187	1243.5335	1260.3562	1278.32	1309.0609	1333.5857	1356.4178	1398.3453	1431.4973	1473.5679	1487.3152	1488.8015	1495.2356	1508.9838	1514.4604	2965.9477	2990.1417	3033.6123	3042.1591	3052.8444	3072.3196	3098.2299	3116.7487	3135.8372	3186.5391	3223.2379	3814.4084
COC12CC1C(O)CC2	CO[C@]12C[C@H]1[C@@H](O)CC2	
InChI=1S/C7H12O2/c1-9-7-3-2-6(8)5(7)4-7/h5-6,8H,2-4H2,1H3	InChI=1S/C7H12O2/c1-9-7-3-2-6(8)5(7)4-7/h5-6,8H,2-4H2,1H3/t5-,6-,7+/m0/s1
