19
gdb 120472	2.5399	1.12763	0.93878	0.7439	75.03	-0.2127	0.0357	0.2484	1311.797	0.15819	-456.319486	-456.30941	-456.308465	-456.356332	35.099	
O	-0.0449919628	 1.2754077197	 0.3607345504	-0.416354
C	-0.0803026228	-0.1365491187	 0.2000521316	-0.078265
C	-1.5326621588	-0.5425138577	-0.0384453525	-0.164204
N	-2.0733621441	-0.0577903105	-1.2827456914	-0.047611
C	-2.4428991403	 1.2895839392	-1.7320533379	-0.174593
C	-2.5915494124	 0.6914297897	-3.1568785472	-0.004536
O	-1.7794064551	 1.335474439	-4.1076741604	-0.421689
C	-2.0400487968	-0.6152455402	-2.5361334693	 0.341229
N	-1.6381867351	-1.7659824464	-2.8968452048	-0.584181
H	 0.8742283369	 1.5566969238	 0.373947921	 0.290781
H	 0.5288509373	-0.4621402963	-0.655039617	 0.111741
H	 0.2921438288	-0.6519338757	 1.1001507883	 0.087198
H	-1.6008745451	-1.634735928	-0.0563417037	 0.135988
H	-2.1469350633	-0.17243079	 0.7913389308	 0.114109
H	-3.3522675814	 1.6870086221	-1.268475013	 0.102633
H	-1.6337902308	 2.020762594	-1.6651876908	 0.130426
H	-3.6337853343	 0.6057068171	-3.4940981213	 0.084796
H	-1.7089374986	 0.7622262721	-4.8781893954	 0.287702
H	-1.7721963711	-1.9025496531	-3.8974192872	 0.20483
17.7224	67.0311	108.1298	124.0967	160.1754	230.1767	253.306	277.8994	335.6377	393.863	471.5966	509.193	630.9996	747.3567	763.7416	782.8386	858.8845	891.6167	927.3524	971.4947	1029.3391	1057.7816	1092.8125	1129.2257	1149.0161	1160.698	1196.7472	1232.975	1257.1405	1261.5066	1282.8009	1301.8438	1358.3006	1393.8417	1416.8624	1440.8267	1450.5814	1462.4252	1516.7426	1520.1705	1771.8584	2972.5433	3007.9094	3020.6026	3039.6295	3043.2128	3099.0418	3108.0028	3492.0471	3813.2031	3834.6656
OCCN1CC(O)C1=N	OCCN1C[C@@H](O)[C]1[NH]	
InChI=1S/C5H10N2O2/c6-5-4(9)3-7(5)1-2-8/h4,6,8-9H,1-3H2	InChI=1S/C5H10N2O2/c6-5-4(9)3-7(5)1-2-8/h4,6,8-9H,1-3H2/t4-/m1/s1
