21
gdb 116346	2.92535	1.30111	1.00415	2.6272	77.87	-0.2509	0.0761	0.327	1224.0301	0.184776	-424.216902	-424.2086	-424.207656	-424.249762	32.677	
O	-0.0232110137	 1.4350123009	-0.0062519448	-0.427916
C	 0.0387252238	 0.0249872516	 0.0642964541	-0.06511
C	-1.3553982488	-0.5952924175	 0.0208377635	 0.071682
O	-1.9429854178	-0.1323883679	-1.1944369774	-0.275138
C	-3.2843109704	-0.5771120643	-1.3386789974	-0.070903
C	-3.3474134768	-2.0830308724	-1.6172138606	-0.231078
C	-2.3863212501	-2.8659354357	-0.7227520798	-0.038456
C	-0.921849172	-2.9290091674	-1.0855814491	-0.285592
C	-1.3606939837	-2.1086096439	 0.0993113167	-0.033757
H	-0.6189517296	 1.6289876034	-0.7399776972	 0.288291
H	 0.6429668378	-0.3976605666	-0.7535864571	 0.090444
H	 0.5266455941	-0.2332843889	 1.0100516955	 0.102879
H	-1.939303305	-0.1880822449	 0.8648932721	 0.069919
H	-3.8489158689	-0.3343708793	-0.4239935507	 0.091739
H	-3.7163689369	-0.0030164519	-2.1633381508	 0.105122
H	-4.375164587	-2.4265947048	-1.4567473992	 0.100534
H	-3.1149340587	-2.2703684521	-2.6717585496	 0.107567
H	-2.8009641173	-3.75780539	-0.2645208985	 0.085829
H	-0.3783898984	-3.849286909	-0.9028062602	 0.108315
H	-0.6167806465	-2.3934948801	-1.9789421317	 0.120006
H	-1.1326876642	-2.5001601789	 1.0865306522	 0.085623
97.2781	127.1687	164.4119	266.3825	295.3184	357.4947	384.9877	442.3088	465.4284	508.6467	589.7278	688.3481	765.075	804.715	834.0665	864.8935	883.0716	937.8025	972.0157	999.6927	1061.2311	1072.7744	1081.5684	1088.6689	1104.4753	1121.1341	1132.4391	1144.7381	1156.771	1222.0279	1234.8255	1261.5433	1298.0144	1314.2619	1357.9891	1360.212	1380.7672	1390.1844	1412.8225	1421.4434	1444.3525	1478.8126	1491.5417	1499.7827	1502.7464	2949.7344	2976.5373	2988.4281	3033.4666	3072.5154	3076.6014	3086.7792	3129.3732	3145.0946	3157.7674	3216.7778	3790.458
OCC1OCCC2CC12	OC[C@H]1OCC[C@H]2C[C@@H]12	
InChI=1S/C7H12O2/c8-4-7-6-3-5(6)1-2-9-7/h5-8H,1-4H2	InChI=1S/C7H12O2/c8-4-7-6-3-5(6)1-2-9-7/h5-8H,1-4H2/t5-,6+,7+/m0/s1
