23
gdb 63171	2.20997	1.58804	1.27248	1.3509	85.28	-0.2378	0.0717	0.3094	1147.6345	0.205435	-388.297924	-388.288331	-388.287387	-388.331381	37.445	
C	 0.0124744289	 1.6002889389	 0.1030654496	-0.464174
C	 0.0820852212	 0.0889047583	 0.0739179311	 0.355946
O	-1.1538438406	-0.4722204948	-0.324350397	-0.466015
C	 1.2927007909	-0.7244473903	-0.3503113001	-0.157397
C	 2.6847006493	-0.1115718236	-0.3963597264	-0.228518
C	 2.9327701556	 0.5135685607	 1.0031046641	-0.224159
C	 1.8742356961	-0.1021018158	 1.9561902897	-0.27326
C	 0.7988139176	-0.769851702	 1.0941137088	 0.288977
C	 0.1020022058	-1.9702245868	 1.6960442911	-0.475171
H	 0.9277625444	 2.0705171785	 0.4613570143	 0.121631
H	-0.184904362	 1.991369836	-0.9035603113	 0.103976
H	-0.8131034268	 1.9181572401	 0.7480771916	 0.125988
H	-1.2797330441	-0.2594641783	-1.2556809982	 0.276781
H	 1.0737096389	-1.5542098688	-1.0161129915	 0.074933
H	 3.4099126479	-0.9089577361	-0.5948242694	 0.100304
H	 2.8069813142	 0.6261707748	-1.1977741518	 0.093762
H	 3.9490047825	 0.3139571724	 1.3545818032	 0.096657
H	 2.8401700656	 1.6018088642	 0.9636091079	 0.106449
H	 2.330977847	-0.8791689478	 2.5798750839	 0.098226
H	 1.4615801119	 0.6431658539	 2.6457983916	 0.095984
H	-0.4083115393	-1.7013576639	 2.6290059523	 0.110738
H	-0.6460044143	-2.3763668415	 1.014724854	 0.134275
H	 0.8273263591	-2.7573823082	 1.9340633324	 0.104068
143.7977	167.9155	172.4874	189.7471	196.9627	251.1173	268.1544	310.0824	354.842	418.2168	430.3306	495.8292	601.2588	665.4426	684.7829	708.6247	808.3717	861.353	898.1615	903.9868	945.1494	963.0024	974.5053	1020.306	1053.4666	1074.2415	1083.713	1117.3705	1139.3077	1170.3981	1203.2336	1228.7947	1256.8186	1263.8865	1287.2441	1293.4506	1328.8928	1341.3252	1343.839	1406.3039	1415.2179	1451.7341	1483.0558	1489.0226	1491.4284	1495.1707	1500.198	1513.1361	1523.5185	3022.0524	3023.8733	3030.1974	3031.7979	3056.1837	3062.7629	3063.7579	3073.4553	3085.7749	3097.9725	3142.937	3150.8348	3152.0879	3792.7506
CC1(O)C2CCCC12C	C[C@@]1(O)[C@H]2CCC[C@@]12C	
InChI=1S/C8H14O/c1-7-5-3-4-6(7)8(7,2)9/h6,9H,3-5H2,1-2H3	InChI=1S/C8H14O/c1-7-5-3-4-6(7)8(7,2)9/h6,9H,3-5H2,1-2H3/t6-,7+,8+/m0/s1
