19
gdb 71478	4.04222	1.20012	1.10128	3.1908	81.56	-0.2419	-0.0207	0.2213	1154.9882	0.158557	-385.861238	-385.853119	-385.852175	-385.893685	31.545	
C	 0.1021029775	 1.545520596	 0.2143702253	-0.504155
C	 0.0554172528	 0.0476725835	 0.0779053497	 0.309351
C	-1.2925298654	-0.7386415952	 0.1719443418	-0.277099
C	-0.4613256917	-1.9111707021	 0.6806784838	-0.089022
C	 0.6556451206	-1.0183788431	 1.0924828818	-0.140555
C	 0.8473607322	-1.9003065637	-0.1528626697	 0.252783
C	 0.801386959	-0.6856234527	-1.0758488689	-0.347998
C	 1.7062192099	-3.0876307377	-0.2034297692	 0.032705
O	 1.7063162087	-3.9737690378	 0.6227966165	-0.278106
H	 1.1338078699	 1.9129936833	 0.23278375	 0.120234
H	-0.4074544298	 2.0256955876	-0.6295290095	 0.123091
H	-0.3907492739	 1.8785771092	 1.134091875	 0.120654
H	-1.9327511044	-0.3388691581	 0.9636884469	 0.104409
H	-1.8721786856	-0.8559180178	-0.7506121922	 0.093561
H	-0.7720358316	-2.8387461132	 1.1416978765	 0.113176
H	 1.2732892082	-0.9710797851	 1.9779145183	 0.107099
H	 0.2793057112	-0.7666718612	-2.0365358736	 0.093624
H	 1.8016052075	-0.2704231957	-1.2352095555	 0.100613
H	 2.3981628948	-3.1204455259	-1.0766569367	 0.065635
99.0279	168.9989	182.122	218.3743	284.5294	309.0261	406.3387	439.1516	488.5208	610.1947	689.0163	722.0359	749.2021	816.6508	846.9443	885.6925	906.3481	949.7866	966.29	985.5638	1021.8407	1035.9396	1042.4473	1089.8872	1130.8922	1136.0773	1154.2889	1182.7357	1201.6694	1231.7088	1252.4171	1284.6616	1347.691	1377.044	1416.1303	1435.6599	1487.1916	1492.544	1494.02	1509.6932	1790.4973	2861.6425	3023.6645	3026.718	3037.363	3086.0069	3089.1363	3095.2992	3097.7345	3214.5627	3227.667
CC12CC3C1C3(C2)C=O	C[C@]12C[C@@H]3[C@H]1[C@@]3(C2)C=O	
InChI=1S/C8H10O/c1-7-2-5-6(7)8(5,3-7)4-9/h4-6H,2-3H2,1H3	InChI=1S/C8H10O/c1-7-2-5-6(7)8(5,3-7)4-9/h4-6H,2-3H2,1H3/t5-,6-,7-,8+/m1/s1
