21
gdb 39086	3.36109	1.67119	1.43303	0.1687	86.45	-0.2361	0.0224	0.2585	989.6097	0.186912	-349.950698	-349.94412	-349.943176	-349.981067	29.043	
C	-0.0753241872	 1.5712588315	 0.2043790683	-0.257856
C	 1.4547425714	 1.4426859212	 0.0307756192	-0.054652
C	 1.8147084506	 0.5959460734	 1.2831405469	-0.205668
C	 0.6479237734	-0.4668681582	 1.2493073409	-0.317372
C	-0.0352791042	 0.0202099321	-0.0296570133	 0.390069
C	-1.1441332908	-0.611154805	-0.8611262098	-0.404327
C	-0.7660170615	-0.1161934466	-2.2537085899	-0.045077
C	 0.4593970432	 0.4211077087	-2.3088471823	-0.143604
C	 1.1730629727	 0.2965255478	-0.9885772411	-0.012158
H	-0.449033746	 1.9227230646	 1.1713307922	 0.079756
H	-0.5646526159	 2.1072211266	-0.6081408063	 0.10127
H	 2.0992009615	 2.2967199212	-0.1840449477	 0.052527
H	 2.8002624518	 0.1275629092	 1.1993285068	 0.09367
H	 1.8062554228	 1.19862643	 2.1959071566	 0.09379
H	 1.0195295883	-1.4927408406	 1.1659777155	 0.092774
H	 0.0071532399	-0.4107779527	 2.1346241395	 0.092836
H	-1.141537206	-1.7101011467	-0.8167667011	 0.102767
H	-2.1476779219	-0.2869163502	-0.5589440398	 0.102184
H	-1.4409284917	-0.2035368333	-3.0996156198	 0.088998
H	 0.9199315671	 0.8090523092	-3.2115315904	 0.086983
H	 1.9686984326	-0.4601741923	-1.0454472941	 0.063091
239.8245	260.7035	317.7095	395.7512	430.2975	456.7035	545.0286	651.6754	701.9849	727.2541	781.4759	831.456	838.2298	862.6629	881.1289	905.5244	922.0541	937.917	961.1082	972.464	990.7588	1004.2036	1044.6233	1065.4259	1078.363	1101.0246	1134.69	1144.9428	1164.009	1191.4849	1223.6113	1236.7001	1246.0653	1255.5793	1274.7394	1295.3838	1304.9322	1334.6573	1348.2677	1374.0617	1479.0501	1492.2347	1496.443	1520.0126	1650.7854	2993.6674	3001.5726	3043.0957	3046.1112	3050.8949	3054.8496	3080.7636	3097.7344	3100.6766	3138.2667	3169.5788	3194.589
C1C2CCC11CC=CC21	C1[C@H]2CC[C@]31CC=C[C@@H]23	
InChI=1S/C9H12/c1-2-8-7-3-5-9(8,4-1)6-7/h1-2,7-8H,3-6H2	InChI=1S/C9H12/c1-2-8-7-3-5-9(8,4-1)6-7/h1-2,7-8H,3-6H2/t7-,8+,9+/m1/s1
