21
gdb 115978	1.88266	1.49968	0.87018	0.6602	94.26	-0.2232	-0.0141	0.209	1369.1021	0.182029	-349.950674	-349.941271	-349.940327	-349.984893	35.626	
C	 0.839855357	-0.342791156	 1.2971360858	-0.384836
C	 0.013195972	 0.0050657046	 0.0558854502	-0.184707
C	 0.7068459756	-0.3694848958	-1.2607049391	-0.090848
C	 0.8992156428	-1.8941899838	-1.4764116195	-0.220379
C	 0.7201956619	-2.1386944063	-2.9945091579	-0.258723
C	-0.0473930944	-0.9259040293	-3.4462722097	-0.183657
C	-0.0596840919	 0.0436179129	-2.51886715	 0.19629
C	-0.6414140929	 1.3269131038	-2.6595724562	 0.232368
C	-1.1204001879	 2.430878779	-2.7355189497	-0.436776
H	 1.036777535	-1.4179985641	 1.3637446042	 0.116174
H	 1.8083682789	 0.1701083053	 1.2821720684	 0.113209
H	 0.3202843701	-0.0447245519	 2.2130023524	 0.112127
H	-0.9594400795	-0.5027917427	 0.1009164326	 0.093509
H	-0.2028341121	 1.0796164973	 0.0477806921	 0.107466
H	 1.6838301764	 0.1386110197	-1.27828148	 0.080166
H	 1.8591181732	-2.2560578725	-1.1005323332	 0.099769
H	 0.1143882968	-2.429251677	-0.9291715593	 0.103743
H	 1.6862892686	-2.1949442261	-3.5175573773	 0.11138
H	 0.2021021827	-3.0789971493	-3.214720561	 0.106571
H	-0.4954452328	-0.8369572971	-4.4292098235	 0.097834
H	-1.5480205896	 3.3990057493	-2.8186149192	 0.189321
91.3921	100.5153	129.9175	168.1032	212.4854	236.6783	325.3519	373.4755	423.4679	506.0025	545.8759	580.1946	612.4585	632.2503	663.9744	769.0533	814.2606	838.5044	880.3895	931.3348	939.0061	961.3594	1001.676	1024.0863	1067.0594	1109.7291	1134.6576	1167.3284	1202.0429	1236.151	1269.1213	1280.5762	1306.0769	1321.911	1340.1575	1356.2944	1381.1639	1411.8729	1480.9586	1488.2058	1497.5462	1501.9856	1508.1445	1669.8377	2217.1014	2978.0107	3000.3688	3020.9308	3030.2667	3038.0326	3056.2845	3061.9141	3097.0076	3100.1686	3103.7502	3201.8452	3502.9671
CCC1CCC=C1C#C	CC[C@H]1CCC=C1C#C	
InChI=1S/C9H12/c1-3-8-6-5-7-9(8)4-2/h1,6,9H,4-5,7H2,2H3	InChI=1S/C9H12/c1-3-8-6-5-7-9(8)4-2/h1,6,9H,4-5,7H2,2H3/t9-/m0/s1
