18
gdb 105157	2.14894	1.32493	0.94562	2.0597	81.43	-0.2574	-0.0473	0.2102	1275.176	0.144852	-401.904476	-401.89485	-401.893906	-401.939088	34.913	
C	 0.5906391525	 1.5108405541	 0.4281566272	-0.383782
C	-0.1283575551	 0.2071308015	 0.060255498	-0.269392
C	 0.3812235445	-0.3839404352	-1.2363712369	 0.227991
N	 1.7226217959	-0.9731311351	-1.2389697204	-0.348498
C	 0.5869505989	-1.8837765035	-1.421028377	-0.304233
C	 0.278191258	-2.8173259618	-0.3762255224	 0.368547
C	-0.009218163	-3.6130006042	 0.4781760171	-0.400169
C	-0.0264140904	 0.2973161763	-2.5051746103	 0.102245
O	 0.5702399344	 0.1677364408	-3.548848394	-0.272982
H	 1.6665834861	 1.3375598407	 0.5188964887	 0.141247
H	 0.4375725039	 2.2873288562	-0.3299252074	 0.114809
H	 0.2238769537	 1.902140247	 1.3813204483	 0.118957
H	 0.0002181937	-0.5298246657	 0.856909703	 0.127533
H	-1.2085214898	 0.3805316982	-0.0346515895	 0.101761
H	 2.1336539517	-0.7975184734	-2.1578482879	 0.251281
H	 0.4087026179	-2.2456398823	-2.4313661387	 0.130775
H	-0.2511841708	-4.3185420709	 1.2343606626	 0.203333
H	-0.9310546323	 0.9373157575	-2.4324139804	 0.090577
75.9277	110.4082	124.1986	158.8306	206.9149	233.6101	264.7634	319.1285	348.6953	408.0264	552.6727	583.0568	622.979	636.5792	661.5725	762.0565	779.4689	802.0466	909.6417	963.0097	997.8379	1006.6462	1040.1975	1091.8648	1113.7441	1126.4588	1236.9372	1244.7018	1316.7685	1328.7658	1379.6526	1409.2602	1421.0094	1437.1103	1482.0971	1497.4513	1507.7113	1797.4053	2239.0708	2912.5615	3028.2715	3035.6913	3090.9598	3109.4804	3121.8574	3134.6485	3449.3123	3501.5751
CCC1(NC1C#C)C=O	CC[C@]1(N[C@H]1C#C)C=O	
InChI=1S/C7H9NO/c1-3-6-7(4-2,5-9)8-6/h1,5-6,8H,4H2,2H3	InChI=1S/C7H9NO/c1-3-6-7(4-2,5-9)8-6/h1,5-6,8H,4H2,2H3/t6-,7-/m0/s1
