17
gdb 7512	4.81673	1.17872	1.10921	4.156	68.57	-0.2708	0.0326	0.3035	1085.5126	0.140674	-363.863447	-363.854763	-363.853819	-363.896567	31.679	
C	-0.0976780239	 1.6698434364	 0.2480832308	-0.460466
C	-0.0734292438	 0.1630197288	 0.0954766657	 0.322312
C	-1.3858378909	-0.4549371474	-0.3831233155	-0.411516
C	-1.7375037666	-0.0469491742	-1.7455807271	 0.275223
N	-2.0009747197	 0.2827687637	-2.8213102417	-0.313899
C	 1.2124747945	-0.5055855387	-0.3557479999	-0.35721
C	 0.730587161	-0.6595182338	 1.0680530913	 0.057713
O	 1.371965915	 0.0244041667	 2.1020052259	-0.419932
H	 0.8431975574	 2.0306050336	 0.6652878281	 0.13508
H	-0.2655549118	 2.1555093162	-0.7185605093	 0.137257
H	-0.9007321306	 1.980002009	 0.9267142396	 0.119319
H	-1.3287280212	-1.5489376402	-0.3606186539	 0.145731
H	-2.2061802914	-0.1675470233	 0.2863477491	 0.152394
H	 1.1595120598	-1.3603494077	-1.0221497344	 0.11838
H	 2.0669167363	 0.1430612588	-0.5164560546	 0.121415
H	 0.3201203846	-1.6290301704	 1.3548818011	 0.085681
H	 2.2398301213	-0.3725477176	 2.2294126849	 0.292518
64.464	119.5704	198.0908	223.2492	258.7745	286.7062	332.789	371.6313	395.2853	435.2259	472.8723	601.3942	716.7205	827.0272	881.9279	906.4649	944.0295	963.4678	986.2401	1037.3906	1049.0422	1109.8326	1118.7152	1183.278	1216.8232	1267.3615	1301.5122	1331.0626	1361.6503	1419.4594	1427.3094	1459.9473	1485.9181	1496.9339	1507.1743	2360.8618	3033.9377	3036.3017	3074.8919	3084.0059	3095.6748	3130.4011	3144.0987	3219.9842	3809.0697
CC1(CC#N)CC1O	C[C@@]1(CC#N)C[C@H]1O	
InChI=1S/C6H9NO/c1-6(2-3-7)4-5(6)8/h5,8H,2,4H2,1H3	InChI=1S/C6H9NO/c1-6(2-3-7)4-5(6)8/h5,8H,2,4H2,1H3/t5-,6-/m1/s1
