19
gdb 17313	2.68688	2.39504	1.68705	1.691	75.07	-0.2002	0.0767	0.277	870.8468	0.164754	-327.837231	-327.829259	-327.828315	-327.869621	30.615	
C	-0.0826663324	 1.628051679	-0.0307940712	-0.391428
C	 0.1427574967	 0.1199802722	 0.0579054236	-0.061275
C	 1.3919440923	-0.7028118234	-0.1981276219	-0.133238
C	 2.6835152617	-0.1748911049	 0.4773345201	-0.049017
N	 2.4004403843	 1.1208561036	 1.1470643727	-0.338668
C	 2.0256746472	-0.1641556244	 1.7955614791	-0.117618
C	 0.705965793	-0.7250852572	 1.1758495273	 0.3271
C	-0.037294	-1.8377588854	 1.8578678972	-0.491762
H	 0.6136456586	 2.1000463243	-0.7271405658	 0.122013
H	-1.101130357	 1.8242317659	-0.3850855628	 0.090223
H	 0.0466595226	 2.1201625267	 0.9326615549	 0.128268
H	-0.6934370609	-0.43013965	-0.3763448363	 0.082969
H	 1.4142300657	-1.4899470782	-0.9430684676	 0.080544
H	 3.6919141987	-0.454531843	 0.2015134985	 0.090627
H	 3.272704227	 1.420905319	 1.5840913134	 0.225155
H	 2.4064542428	-0.4321872944	 2.7732473655	 0.087493
H	-0.5919249965	-1.4725629193	 2.7318794224	 0.117954
H	-0.758976006	-2.3026071117	 1.1784687274	 0.117511
H	 0.6451154023	-2.6230052987	 2.2064656436	 0.113149
43.0896	192.9086	211.6744	220.7255	273.3518	292.842	410.7585	497.1673	571.0908	679.5051	712.3492	731.7272	811.0546	828.3942	864.3271	892.1996	915.9861	936.3972	941.2615	992.7538	1040.1611	1073.2226	1089.7369	1107.4037	1114.1411	1124.845	1157.5654	1216.9821	1233.7999	1284.7151	1312.6384	1349.5956	1366.0258	1413.9536	1419.0923	1465.0231	1483.5676	1486.3651	1491.2738	1499.6402	3011.6006	3035.3542	3064.7093	3089.1855	3095.3191	3112.797	3146.2785	3172.3804	3184.9454	3200.3642	3456.322
CC1C2C3NC3C12C	C[C@H]1[C@H]2[C@H]3N[C@H]3[C@@]12C	
InChI=1S/C7H11N/c1-3-4-5-6(8-5)7(3,4)2/h3-6,8H,1-2H3	InChI=1S/C7H11N/c1-3-4-5-6(8-5)7(3,4)2/h3-6,8H,1-2H3/t3-,4-,5+,6+,7-/m0/s1
