22
gdb 11060	3.10671	2.1314	1.80176	0.0484	80.19	-0.2809	0.0752	0.3561	879.6198	0.203923	-313.105903	-313.098735	-313.097791	-313.13663	29.978	
C	 0.0026754211	 1.4940761806	 0.0169515049	-0.481461
C	 0.0028934032	-0.02605168	 0.0021785536	 0.348789
C	 0.639468531	-0.6554706057	-1.2651306569	-0.23016
C	 0.090122717	-2.1165698073	-1.2733261529	-0.211765
C	-0.7920721155	-2.1636618125	-0.0050092298	 0.000484
C	 0.1324358078	-2.1407541819	 1.2334823338	-0.211772
C	 0.6817594682	-0.6796302341	 1.2348501163	-0.230148
C	-1.3743052142	-0.7361986879	 0.0186027597	-0.24244
H	 1.0237988442	 1.8932965328	 0.0044020316	 0.109823
H	-0.519764528	 1.9007883783	-0.8564232374	 0.107683
H	-0.4912513319	 1.8835298992	 0.9144519417	 0.10769
H	 0.3225815251	-0.1098400045	-2.160446192	 0.088115
H	 1.7328916455	-0.6112021283	-1.2336947006	 0.08904
H	-0.5072209785	-2.3067045785	-2.1705423247	 0.090929
H	 0.883457314	-2.8698977735	-1.249262661	 0.089817
H	-1.5143913858	-2.9828111625	-0.0007230299	 0.050664
H	-0.4343893562	-2.3482537686	 2.1465118857	 0.090928
H	 0.9242094116	-2.8932790456	 1.1681985802	 0.089816
H	 1.7735050854	-0.6344658945	 1.1672112328	 0.089043
H	 0.3956272831	-0.1514382838	 2.1507434109	 0.088116
H	-1.9558678215	-0.5176947978	 0.9209477675	 0.083404
H	-1.9859842955	-0.5005323539	-0.8591759236	 0.083405
148.0317	234.9509	264.1571	314.7958	354.1087	408.2506	456.1003	547.0186	583.4962	757.834	779.7273	799.2739	825.5002	863.5002	897.4289	908.5673	936.3988	957.3888	957.4452	969.2597	987.6682	1023.3774	1059.0445	1082.3506	1134.5861	1134.7724	1169.8985	1200.8176	1230.7158	1239.553	1265.2958	1281.8823	1286.6669	1299.519	1312.8698	1338.157	1342.1181	1367.8655	1416.124	1480.7041	1491.8401	1495.1994	1495.7644	1496.7362	1501.4402	1525.2025	3018.8752	3034.3155	3034.4765	3037.7105	3046.8631	3049.9142	3067.6398	3071.4571	3082.4923	3082.6951	3086.1573	3088.6298	3091.615	3095.6077
CC12CCC(CC1)C2	C[C@@]12CC[C@@H](CC1)C2	
InChI=1S/C8H14/c1-8-4-2-7(6-8)3-5-8/h7H,2-6H2,1H3	InChI=1S/C8H14/c1-8-4-2-7(6-8)3-5-8/h7H,2-6H2,1H3/t7-,8+
