16
gdb 65702	5.05448	0.81892	0.77361	2.0378	71.36	-0.2676	-0.0454	0.2222	1418.8564	0.120759	-437.885719	-437.876304	-437.87536	-437.920943	32.588	
C	-0.2562290765	 1.650642513	 0.2564714662	-0.464566
C	-0.1128998453	 0.1518213803	 0.1323475394	 0.363408
C	-1.2789906165	-0.5864643117	-0.5077651156	-0.341385
C	-1.4293079368	-0.2266791887	-1.9784497949	 0.159668
O	-2.4627638652	 0.1159306045	-2.4885146426	-0.230949
O	 1.1774666164	-0.3207024408	-0.2852384786	-0.26269
C	 0.7698478565	-0.6082589297	 1.0537637073	-0.165548
C	 1.5058529792	 0.0464026471	 2.1135166544	 0.308775
N	 2.0781240329	 0.5540328282	 2.9799177444	-0.323845
H	-1.1287102387	 1.8995491373	 0.8684612644	 0.142651
H	 0.6303925865	 2.0949232405	 0.711430091	 0.15875
H	-0.4019746267	 2.0987406336	-0.7316436902	 0.14557
H	-1.0927916935	-1.6666512821	-0.4561719891	 0.133124
H	-2.2187070354	-0.3673297384	 0.0065532022	 0.135196
H	-0.4906867057	-0.3173496724	-2.5678573385	 0.103305
H	 0.5431810289	-1.6538392906	 1.2560192102	 0.138536
52.1859	58.8046	123.3942	148.2972	193.0322	229.9349	303.3647	352.3056	384.9302	434.4393	483.884	578.3504	621.1505	713.1639	810.9546	836.2137	929.5241	955.342	993.8172	1046.8806	1060.9859	1099.1515	1116.3829	1191.936	1256.7983	1305.6466	1344.4675	1418.0757	1424.0911	1431.2937	1449.9774	1486.6873	1494.9845	1836.8156	2360.9822	2899.1008	3035.9832	3047.3359	3109.2481	3113.0218	3127.6254	3146.3692
CC1(CC=O)OC1C#N	C[C@@]1(CC=O)O[C@H]1C#N	
InChI=1S/C6H7NO2/c1-6(2-3-8)5(4-7)9-6/h3,5H,2H2,1H3	InChI=1S/C6H7NO2/c1-6(2-3-8)5(4-7)9-6/h3,5H,2H2,1H3/t5-,6-/m0/s1
