20
gdb 63079	2.33162	1.76918	1.36328	1.4473	78.6	-0.2334	0.0182	0.2516	1048.4315	0.169938	-403.156171	-403.147157	-403.146213	-403.189216	34.362	
C	-0.0727839768	 1.5325575505	 0.0395667661	-0.457655
C	 0.0260134644	 0.0197428055	 0.0308806905	 0.223129
C	-1.1822808767	-0.6478546211	-0.6088989501	-0.454879
C	 1.3314081035	-0.6907389999	-0.2395456264	-0.020016
O	 2.5366009703	 0.0547160827	-0.1019325847	-0.210594
C	 2.5748699661	 0.4111844981	 1.2078269181	 0.076352
N	 1.6439038088	 0.0230633496	 1.980318615	-0.293644
C	 0.7235363201	-0.7533797047	 1.1616756515	 0.262043
C	 0.1280639043	-1.9445650142	 1.8700239445	-0.474301
H	 0.7433534706	 2.0124096241	 0.5800725295	 0.133185
H	-0.0760626678	 1.9210917143	-0.9849581834	 0.117077
H	-1.0091134468	 1.843308856	 0.5163642184	 0.118464
H	-1.3751197446	-0.205382103	-1.5927598986	 0.12027
H	-1.0428512367	-1.7220625525	-0.7566792686	 0.117494
H	-2.0813717082	-0.5088076574	 0.0017360661	 0.123402
H	 1.4199676499	-1.4927625921	-0.9631783458	 0.104354
H	 3.4275028422	 1.0179538295	 1.4884889693	 0.141359
H	-0.4786650873	-1.6118145061	 2.7184256622	 0.132128
H	-0.5040732277	-2.5445157985	 1.2130071381	 0.116079
H	 0.9222141024	-2.5876885708	 2.261986218	 0.125752
133.3066	152.6435	173.0508	186.8116	238.5247	262.8625	302.7108	350.4622	363.8751	420.6993	547.7561	587.02	629.5741	707.4664	744.4098	867.3692	895.7498	917.9543	945.5892	972.6431	980.0253	989.6999	1026.2066	1056.3474	1101.1238	1120.6125	1162.3603	1169.26	1216.7007	1265.5218	1301.6246	1335.615	1400.027	1412.3124	1421.1448	1430.208	1478.8194	1483.081	1489.3416	1494.9112	1505.6871	1512.22	1669.641	3027.4253	3034.3813	3043.446	3087.039	3089.4966	3102.871	3107.1428	3135.9558	3140.2328	3177.5188	3225.5614
CC1(C)C2OC=NC12C	CC1(C)[C@H]2OC=N[C@@]12C	
InChI=1S/C7H11NO/c1-6(2)5-7(6,3)8-4-9-5/h4-5H,1-3H3	InChI=1S/C7H11NO/c1-6(2)5-7(6,3)8-4-9-5/h4-5H,1-3H3/t5-,7-/m1/s1
