18
gdb 110739	2.47769	1.27377	1.08976	3.055	72.66	-0.2352	-0.0014	0.2338	1199.2036	0.146665	-439.073875	-439.064986	-439.064041	-439.107576	33.244	
C	 0.0262519572	 1.400642205	-0.300214649	-0.373885
C	 0.0047070513	-0.0483456987	 0.2003146267	-0.22134
C	-1.3792555101	-0.660939987	 0.1313580201	-0.044089
C	-1.9919975943	-1.3099491189	-1.0881803541	-0.114492
N	-1.0248625151	-2.1303475216	-1.8248203698	-0.341112
C	-0.6984415406	-2.907432042	-0.6904447212	 0.31876
O	 0.0670229394	-3.8156456	-0.5367474627	-0.339063
C	-1.7065464847	-2.1458402955	 0.1703943201	 0.223399
O	-2.5067934714	-2.6391902921	 1.1677432212	-0.445477
H	 1.0318825362	 1.8258207079	-0.2321337088	 0.118468
H	-0.2964714757	 1.4633037381	-1.3450697892	 0.11564
H	-0.6447205588	 2.0340983963	 0.290030023	 0.119262
H	 0.7116450623	-0.6516428095	-0.3800592485	 0.104595
H	 0.3553690774	-0.0891063124	 1.2383727298	 0.115438
H	-2.1285509132	-0.1229276947	 0.7142676689	 0.105324
H	-2.9448234272	-1.0517687845	-1.530533156	 0.115854
H	-0.3034490805	-1.7384341799	-2.42015274	 0.24337
H	-2.8717356023	-3.4842283705	 0.8804252195	 0.29935
73.4422	109.3667	172.2199	212.2089	263.4812	280.2618	292.7875	341.6441	438.3424	510.7909	551.1594	641.3204	697.6368	742.4361	752.0528	790.7188	830.3087	902.6181	938.3925	947.9843	983.5332	1019.8223	1078.0896	1099.7521	1118.838	1157.487	1213.5012	1273.892	1294.0286	1315.1438	1335.0223	1338.7724	1382.9962	1412.8775	1477.7976	1485.6648	1498.533	1507.2136	1892.8344	3032.8702	3037.5183	3066.417	3100.4668	3108.8846	3112.642	3208.6354	3541.9254	3794.0438
CCC1C2NC(=O)C12O	CC[C@H]1[C@H]2NC(=O)[C@@]12O	
InChI=1S/C6H9NO2/c1-2-3-4-6(3,9)5(8)7-4/h3-4,9H,2H2,1H3,(H,7,8)	InChI=1S/C6H9NO2/c1-2-3-4-6(3,9)5(8)7-4/h3-4,9H,2H2,1H3,(H,7,8)/t3-,4+,6+/m0/s1
