18
gdb 78928	4.46407	1.37867	1.35275	1.2787	74.59	-0.2195	0.0743	0.2938	995.5893	0.148003	-401.850804	-401.843622	-401.842678	-401.881887	29.587	
C	-0.0566669066	 1.557562699	 0.0062148928	-0.32228
N	 0.0324841556	 0.1077848948	 0.0117305168	-0.063843
C	 1.0489419606	-0.5453406815	-0.8361070836	-0.029287
C	 2.4802261793	-0.1529462714	-0.3378091162	-0.140554
C	 2.2061752654	-0.1560502016	 1.189979823	-0.190012
C	 0.6956782783	-0.5595578602	 1.1510477177	-0.033429
C	 1.140262085	-1.7207264455	 0.1963092635	-0.162887
C	 2.6524839402	-1.4030759476	 0.4637980414	 0.375462
O	 3.7653549704	-2.1959120698	 0.5682771219	-0.457085
H	 0.9108607871	 2.0560811425	 0.1852943051	 0.101644
H	-0.4433870734	 1.8955715174	-0.9611294845	 0.117486
H	-0.7595991991	 1.8832060172	 0.7804606973	 0.116581
H	 0.8497053096	-0.6350748549	-1.9039099291	 0.070256
H	 3.2360980482	 0.4801487408	-0.7819398826	 0.092919
H	 2.7512563264	 0.4870391922	 1.8679947603	 0.089971
H	 0.1359353421	-0.6641143081	 2.080918742	 0.066749
H	 0.63784617	-2.6785871364	 0.0978497637	 0.080217
H	 3.7526431011	-2.6284002568	 1.4297106606	 0.288095
189.709	200.2358	219.0169	306.0007	343.955	367.9435	557.3965	615.8722	623.8575	715.9562	753.784	755.6163	811.654	828.9042	851.7857	852.6147	905.9279	910.6774	956.3391	983.6017	1004.5675	1018.9428	1081.7148	1095.5591	1150.7539	1154.5897	1160.899	1170.7955	1196.4844	1213.5492	1221.7514	1248.3955	1257.1515	1290.3479	1316.3639	1442.6375	1483.8887	1486.5418	1502.8816	2966.6805	3060.0641	3096.6827	3110.0965	3116.0927	3163.2805	3202.6424	3213.5964	3787.9347
CN1C2C3C4C1C2C34O	CN1[C@H]2[C@H]3[C@H]4[C@@H]1[C@@H]2[C@@]34O	
InChI=1S/C7H9NO/c1-8-5-2-3-6(8)4(5)7(2,3)9/h2-6,9H,1H3	InChI=1S/C7H9NO/c1-8-5-2-3-6(8)4(5)7(2,3)9/h2-6,9H,1H3/t2-,3+,4-,5+,6-,7-
