17
gdb 85322	2.37705	1.87378	1.22322	3.4664	67.78	-0.2659	0.0017	0.2676	1019.8915	0.13689	-458.992239	-458.984593	-458.983649	-459.02467	28.694	
C	 0.1694601276	 1.5391701723	-0.0828719748	-0.399871
C	 0.0447784339	 0.0321077253	 0.041674649	 0.100254
O	 0.6178830722	-0.5993736161	-1.1289944078	-0.234519
C	 1.3467476552	-1.7050417822	-0.8240283809	 0.437797
O	 1.8182983688	-2.4184882202	-1.6611674153	-0.34328
C	 1.4794429922	-1.835513423	 0.6872179815	-0.239783
C	 2.7670087112	-1.1758619766	 1.2289136576	-0.080116
O	 2.0445506981	 0.0379844871	 1.5390771943	-0.287017
C	 0.7782464287	-0.5870268788	 1.2377390785	 0.095124
H	 1.2210105736	 1.8310616853	-0.0668753681	 0.147454
H	-0.2887586826	 1.8813625353	-1.0136115296	 0.134549
H	-0.339600554	 2.0264692154	 0.7545644645	 0.124006
H	-1.0112260524	-0.26667984	 0.0792216205	 0.093506
H	 1.2294633276	-2.8356871887	 1.0354914906	 0.116937
H	 3.1630762876	-1.6514962167	 2.1335461045	 0.114895
H	 3.5792117964	-1.0141637326	 0.513331833	 0.131665
H	 0.1446907059	-0.6697163758	 2.1262717324	 0.088399
98.6443	114.3771	218.6832	235.322	251.9277	341.9826	489.4899	506.636	608.6786	694.9203	724.7023	783.0557	838.2675	888.6564	910.8113	949.73	960.9524	1005.3436	1028.0783	1067.6589	1069.5631	1126.1506	1153.3149	1160.1823	1189.8714	1214.4436	1258.0836	1289.7781	1334.8012	1353.3396	1370.9735	1383.2444	1411.0208	1486.1396	1495.2251	1526.9723	1877.6653	3020.6613	3030.6767	3052.5477	3063.8741	3087.2132	3124.3814	3140.7111	3148.8258
CC1OC(=O)C2COC12	C[C@H]1OC(=O)[C@H]2CO[C@@H]12	
InChI=1S/C6H8O3/c1-3-5-4(2-8-5)6(7)9-3/h3-5H,2H2,1H3	InChI=1S/C6H8O3/c1-3-5-4(2-8-5)6(7)9-3/h3-5H,2H2,1H3/t3-,4+,5+/m1/s1
