21
gdb 100005	2.97088	1.03666	0.94232	2.5645	75.08	-0.2619	-0.0337	0.2282	1345.0624	0.178055	-461.377224	-461.366302	-461.365358	-461.412957	39.741	
C	 0.1269222293	 1.5581095753	-0.2047111575	-0.418697
C	 0.0090733511	 0.0548410053	 0.066091001	-0.181135
C	-1.4324628913	-0.4950016823	 0.0836046512	 0.315239
C	-2.2789863235	 0.1128170842	 1.2080927264	-0.443888
O	-2.0609154101	-0.3082276222	-1.1905154938	-0.478636
C	-1.3680291813	-2.0409227228	 0.2289009976	 0.043996
O	-0.7171869148	-2.4159476717	 1.4107931159	-0.441313
C	-2.7458432731	-2.6740605772	 0.1706635977	 0.125361
O	-3.1292065378	-3.4118122431	 1.0495036744	-0.274501
H	 1.1792051461	 1.8480644965	-0.2761304561	 0.124066
H	-0.3449489314	 1.8346698687	-1.154622894	 0.107499
H	-0.3227554481	 2.1633181324	 0.5884434331	 0.121393
H	 0.5554409296	-0.4894973695	-0.7132450356	 0.099968
H	 0.483894137	-0.1976319893	 1.0191752271	 0.122365
H	-2.3020515154	 1.2048452109	 1.1426638005	 0.112067
H	-3.3114406383	-0.2457104087	 1.1535352694	 0.123808
H	-1.86748371	-0.1629546843	 2.1821006428	 0.139827
H	-2.2522645276	 0.6287568217	-1.29423037	 0.284818
H	-0.8235958527	-2.4122897018	-0.658363513	 0.099419
H	-1.3333799794	-3.0175389386	 1.8607865727	 0.295247
H	-3.3633249384	-2.4350488535	-0.7118692496	 0.123098
75.7512	81.187	107.1406	184.1756	200.1082	218.8123	247.9319	277.5159	294.4051	324.5333	351.7526	359.7235	432.1498	464.4403	498.4961	594.2137	712.9329	776.2785	785.9258	851.6571	913.4956	951.5998	999.2805	1006.55	1041.324	1064.2678	1109.9194	1167.8552	1186.7969	1210.2792	1273.479	1313.3372	1331.415	1341.3313	1378.0491	1386.3955	1408.4651	1413.1082	1440.9582	1478.2007	1493.5282	1497.8359	1506.1163	1511.409	1800.997	2946.9855	2999.6647	3032.8088	3037.3045	3043.5773	3083.4376	3103.3119	3105.9411	3112.5519	3129.2643	3667.0507	3830.1926
CCC(C)(O)C(O)C=O	CC[C@@](C)(O)[C@@H](O)C=O	
InChI=1S/C6H12O3/c1-3-6(2,9)5(8)4-7/h4-5,8-9H,3H2,1-2H3	InChI=1S/C6H12O3/c1-3-6(2,9)5(8)4-7/h4-5,8-9H,3H2,1-2H3/t5-,6+/m0/s1
