20
gdb 103159	1.9592	1.56489	1.25947	4.3735	75.13	-0.2328	0.0134	0.2461	1150.0174	0.169242	-440.307399	-440.297491	-440.296547	-440.341917	36.041	
C	-0.1481917876	 1.5043054085	-0.0144518835	-0.337671
N	 0.2167768377	 0.0877412069	 0.0624590225	-0.323655
C	 0.8307979098	-0.4721309377	-1.133484087	 0.066828
C	 2.2038763883	 0.097402176	-1.5055890414	-0.461227
C	 0.7229605361	-2.0275328071	-1.2298740605	 0.119361
C	 0.095146415	-2.8102147238	-0.1015511129	-0.412894
O	-0.2006027921	-1.8851185408	-2.3734634843	-0.258962
C	-0.1594118425	-0.5245136917	-2.3145294636	 0.47482
O	-0.7348205906	 0.2549641775	-3.0079809379	-0.342953
H	 0.7023121722	 2.1931331665	-0.1399014136	 0.10106
H	-0.8287533008	 1.6553418957	-0.8550428452	 0.162205
H	-0.6725631137	 1.7786600166	 0.9052046342	 0.121453
H	 0.8374522735	-0.0620855824	 0.8526955346	 0.217656
H	 2.9146436567	-0.065242629	-0.6868803627	 0.115467
H	 2.6070941265	-0.3781827654	-2.4052808787	 0.129381
H	 2.1400655278	 1.171673925	-1.6971097228	 0.141724
H	 1.6437066596	-2.4983498086	-1.5870961268	 0.090231
H	-0.79727957	-2.3045183967	 0.2697606805	 0.147741
H	-0.1700603172	-3.8137804406	-0.4467419855	 0.132662
H	 0.8060890915	-2.9157022789	 0.7254255149	 0.116772
93.7072	98.2709	153.9981	200.2927	206.4538	221.6369	230.73	284.2496	300.843	334.2802	415.7248	492.7273	577.9512	686.8427	732.4107	736.5891	782.9298	860.8204	871.0347	945.9554	1010.9859	1055.9586	1072.472	1112.3584	1119.3688	1158.1504	1159.3008	1184.8698	1228.0414	1281.3084	1331.0303	1383.6201	1404.4847	1411.608	1459.2704	1467.5823	1483.8817	1484.5472	1491.6143	1496.3567	1507.52	1525.7911	1921.1018	2978.1485	3030.1148	3042.9562	3066.66	3081.4919	3098.7809	3108.293	3120.4561	3134.7311	3149.6003	3498.83
CNC1(C)C(C)OC1=O	CN[C@@]1(C)[C@@H](C)OC1=O	
InChI=1S/C6H11NO2/c1-4-6(2,7-3)5(8)9-4/h4,7H,1-3H3	InChI=1S/C6H11NO2/c1-4-6(2,7-3)5(8)9-4/h4,7H,1-3H3/t4-,6+/m1/s1
