18
gdb 67401	2.70566	1.52955	1.28103	4.5896	81.85	-0.2581	0.0232	0.2813	1052.4656	0.148741	-364.790526	-364.78272	-364.781776	-364.822644	30.377	
C	-0.1702834738	 1.5190381854	-0.0437863911	-0.528095
C	 0.0001910875	 0.0381184316	-0.0009259584	 0.305924
C	 0.0341127209	-1.0330213489	-1.0534764092	-0.148945
C	 1.3027679761	-1.6521953115	-0.4786201432	-0.235581
C	 0.9163551363	-0.9473824401	 0.8515054731	-0.124576
C	-0.3619756638	-1.6911791168	 1.3146416297	-0.289315
C	-1.0335019384	-1.0887835721	 0.0788795253	 0.183488
C	-2.4222968299	-1.0047539138	-0.2153467639	 0.165829
N	-3.555280624	-0.9279812917	-0.4448630415	-0.358736
H	 0.748588754	 2.0144826725	-0.376706582	 0.129383
H	-0.9707657745	 1.7922700503	-0.738999497	 0.143341
H	-0.4311777286	 1.9218961584	 0.9408779368	 0.132119
H	-0.2900967554	-0.9635255034	-2.0841223034	 0.107328
H	 1.4046893707	-2.7423751473	-0.4613340026	 0.100663
H	 2.1906708457	-1.2042873968	-0.9326657934	 0.110511
H	 1.6748594595	-0.6484510811	 1.5709576849	 0.083611
H	-0.3111399034	-2.7815809179	 1.4003806814	 0.105531
H	-0.7806277589	-1.2650218869	 2.2292132044	 0.117521
114.5212	156.7452	205.2249	216.5581	278.7065	417.7282	430.4914	523.5625	546.573	562.9151	665.1364	698.5115	739.4483	822.7975	897.6055	909.4922	927.3601	956.4095	991.7482	998.072	1062.5835	1084.847	1101.5617	1124.8994	1134.7761	1158.644	1184.8269	1219.3822	1236.7028	1257.0133	1287.3127	1322.8448	1410.3395	1451.6778	1481.364	1489.9544	1494.7925	1510.0399	2338.7604	3027.6229	3042.6073	3048.7172	3089.5267	3102.41	3104.0595	3113.0691	3147.6773	3202.023
CC12C3CC1CC23C#N	C[C@@]12[C@H]3C[C@@H]1C[C@@]23C#N	
InChI=1S/C8H9N/c1-7-5-2-6(7)8(7,3-5)4-9/h5-6H,2-3H2,1H3	InChI=1S/C8H9N/c1-7-5-2-6(7)8(7,3-5)4-9/h5-6H,2-3H2,1H3/t5-,6-,7+,8+/m1/s1
