23
gdb 101003	2.6113	1.07823	1.0157	2.0212	81.44	-0.2528	0.063	0.3158	1358.2565	0.204357	-425.42152	-425.411398	-425.410454	-425.456263	38.697	
C	-0.1945310874	 1.5845699423	 0.2271782136	-0.382404
C	-0.058007859	 0.0608726015	 0.1691676832	-0.206453
C	-1.4125569204	-0.6405941499	-0.0271323355	 0.106107
O	-2.034229622	-0.2145947779	-1.2332859057	-0.444098
C	-1.3176138736	-2.1761715788	-0.0348108291	 0.38333
O	-0.5758274852	-2.5941216735	-1.1784614426	-0.492249
C	-0.9602318566	-2.8324444683	 1.3310261532	-0.292012
C	-2.4694457398	-3.138709986	 1.53757204	-0.212993
C	-2.7025746961	-2.8641003906	 0.0267495263	-0.261663
H	 0.7831573841	 2.0698949734	 0.3025349266	 0.106913
H	-0.6984277969	 1.9527947816	-0.6697561328	 0.136186
H	-0.7884816995	 1.8923610331	 1.0950258397	 0.112425
H	 0.6044405101	-0.2089065414	-0.6653882573	 0.079351
H	 0.4197155083	-0.3083391175	 1.0852128519	 0.095323
H	-2.085808599	-0.3348571069	 0.7849377815	 0.078071
H	-1.6306541985	-0.7510406502	-1.929131	 0.281507
H	 0.3471514314	-2.3506581431	-1.0450136477	 0.280016
H	-0.3768026786	-3.7428786465	 1.1692800826	 0.105377
H	-0.4573064996	-2.2158609968	 2.0803784717	 0.095689
H	-2.7233728252	-4.1347483564	 1.9042797407	 0.102533
H	-2.9597634887	-2.4016455018	 2.1783638339	 0.106535
H	-3.5586947574	-2.2544508053	-0.2663537053	 0.114173
H	-2.6914859005	-3.7818095008	-0.5657194192	 0.108338
85.911	92.4119	130.1367	176.9338	221.367	255.3434	296.253	314.8367	321.0564	364.4463	469.2519	486.3637	496.5385	522.5472	675.181	763.2538	791.3929	796.7965	835.2592	894.0547	936.1195	942.3925	970.639	991.6465	1017.3759	1041.2898	1062.0694	1109.7578	1117.5674	1141.6002	1196.3496	1200.7406	1249.3805	1260.3246	1263.7382	1278.928	1299.3804	1301.7161	1337.7349	1347.7307	1388.5639	1405.0503	1434.2376	1470.0568	1480.5162	1486.5454	1495.4584	1506.9447	1510.4353	3004.4264	3023.6187	3036.6917	3052.4159	3058.1753	3068.8514	3075.1423	3100.5258	3105.5771	3121.0015	3127.6846	3136.8155	3756.1144	3801.6337
CCC(O)C1(O)CCC1	CC[C@@H](O)C1(O)CCC1	
InChI=1S/C7H14O2/c1-2-6(8)7(9)4-3-5-7/h6,8-9H,2-5H2,1H3	InChI=1S/C7H14O2/c1-2-6(8)7(9)4-3-5-7/h6,8-9H,2-5H2,1H3/t6-/m1/s1
