19
gdb 106329	3.04169	1.24611	1.08221	2.3295	71.53	-0.223	0.0581	0.2811	1175.9752	0.157748	-460.110244	-460.101141	-460.100197	-460.143912	34.384	
C	-0.2725933882	 1.311892345	 0.0505924429	-0.258953
O	 0.1826685986	-0.0247763403	-0.100344484	-0.277804
C	 0.7668427588	-0.5289065302	 1.0391685673	 0.386059
C	 2.2204441378	-0.2730172356	 1.4599564677	-0.35299
C	 2.3290079349	-1.7945154653	 1.8199486377	 0.101726
O	 2.5859602066	-2.1478297703	 3.1779262591	-0.434538
C	 0.8756988186	-2.0185323561	 1.4267330505	-0.220158
C	-0.0153401722	-1.0748690901	 2.1975472426	 0.054202
O	 0.1874319221	-0.7159907145	 3.5314587409	-0.442256
H	 0.557632795	 2.0014932216	 0.2582371738	 0.113177
H	-0.7417682102	 1.5961727024	-0.8937317765	 0.127339
H	-1.0071783954	 1.3948353101	 0.8627240915	 0.121036
H	 2.8654753011	 0.0026173644	 0.6232544128	 0.108314
H	 2.3606356029	 0.423240789	 2.291635577	 0.1039
H	 3.0266535821	-2.3163867936	 1.1551848955	 0.087244
H	 3.4803914648	-1.8703016547	 3.4025121644	 0.290777
H	 0.4942507088	-2.9058613951	 0.9364492291	 0.094597
H	-1.0698462622	-1.2073668146	 1.9625714641	 0.10296
H	 0.9574239759	-1.2114946221	 3.8435330136	 0.295368
75.3819	136.2981	168.0195	197.1226	214.105	299.1781	352.5012	363.0191	404.5606	437.9407	476.9396	525.7916	600.4822	697.2691	739.5188	833.5144	859.6143	915.0566	963.7252	984.8625	1005.8872	1058.8107	1060.6693	1102.998	1132.0796	1155.3456	1180.0407	1203.39	1208.2247	1231.7939	1238.0618	1278.4245	1317.3325	1332.0331	1395.1968	1428.0111	1453.0293	1472.4299	1486.8689	1500.3536	1506.4679	2996.1096	3033.5931	3051.7824	3058.0887	3122.4585	3123.9268	3133.9343	3187.4136	3731.1841	3812.6668
COC12CC(O)C1C2O	CO[C@]12C[C@@H](O)[C@H]1[C@H]2O	
InChI=1S/C6H10O3/c1-9-6-2-3(7)4(6)5(6)8/h3-5,7-8H,2H2,1H3	InChI=1S/C6H10O3/c1-9-6-2-3(7)4(6)5(6)8/h3-5,7-8H,2H2,1H3/t3-,4+,5-,6-/m1/s1
