18
gdb 39324	2.86258	1.83498	1.36431	2.8785	70.84	-0.2383	0.0667	0.305	958.9807	0.150451	-439.032593	-439.025596	-439.024652	-439.064322	27.601	
C	 0.1747705944	 1.5362688429	 0.2236463222	-0.084302
O	 1.4684809515	 1.4912708347	-0.4208572911	-0.29487
C	 1.384235432	 0.0622645602	-0.6014370775	 0.135099
C	 2.4549846642	-0.7491672177	 0.0825111442	-0.076501
N	 2.6255763996	-0.5388533301	 1.5310532071	-0.314013
C	 2.0086868492	-1.7811517917	 1.0589205263	-0.042879
C	 0.5220816467	-1.904154932	 1.3446560672	-0.090085
O	-0.1307920817	-0.6519882045	 1.292730291	-0.249345
C	-0.0167917607	 0.0200860965	 0.0604204607	 0.040167
H	 0.2447004426	 1.8463034438	 1.2710527152	 0.121953
H	-0.5311981583	 2.1767393524	-0.3175521456	 0.096942
H	 1.3721457374	-0.1949843118	-1.6696574011	 0.070151
H	 3.3473645232	-0.9510619816	-0.5049411616	 0.086981
H	 3.5971292795	-0.694842265	 1.7845636557	 0.235164
H	 2.5691309176	-2.7121701153	 1.1175361032	 0.087122
H	 0.0726860671	-2.6254481718	 0.639743704	 0.087477
H	 0.357163223	-2.2803436073	 2.35933889	 0.116692
H	-0.8235778173	-0.2884612818	-0.61820426	 0.074246
65.4587	180.499	258.7526	346.1184	389.6327	443.9482	467.0067	625.8739	717.9007	766.2261	788.8204	823.6191	875.4251	888.7977	918.7544	963.4196	995.3995	1015.2346	1033.0984	1060.5114	1077.6973	1093.3393	1132.3319	1144.1096	1163.9136	1169.7604	1220.218	1246.623	1274.5058	1282.623	1298.1198	1345.8212	1367.1893	1378.9414	1402.3156	1417.1772	1462.5773	1494.2266	1507.6075	2956.432	2996.9606	3011.8006	3031.4255	3074.6969	3089.4686	3125.6273	3137.0147	3513.2203
C1OC2C3NC3COC12	C1O[C@H]2[C@H]3N[C@H]3CO[C@@H]12	
InChI=1S/C6H9NO2/c1-3-5(7-3)6-4(8-1)2-9-6/h3-7H,1-2H2	InChI=1S/C6H9NO2/c1-3-5(7-3)6-4(8-1)2-9-6/h3-7H,1-2H2/t3-,4-,5-,6+/m0/s1
