20
gdb 82826	2.37025	2.02389	1.52378	0.7066	77.81	-0.2076	0.0719	0.2796	973.3738	0.171219	-403.087627	-403.079782	-403.078838	-403.119367	31.57	
C	-0.2505796792	 1.5276224629	 0.0847858699	-0.424783
C	 0.0410594239	 0.0435477559	-0.0094072395	 0.02658
N	 1.0220664409	-0.443244119	-1.063579766	-0.183107
C	 2.3173188405	 0.3291959126	-1.0003399925	-0.192429
C	 2.73960315	-0.4040739709	 0.2799114994	 0.09479
O	 2.0346342514	 0.1068053423	 1.4363909	-0.341973
C	 0.8391358748	-0.6645001285	 1.1143709957	 0.412103
C	 0.1732163517	-1.2270531071	 2.3388931335	-0.494158
C	 1.5999048989	-1.4031472671	-0.0160384972	-0.106092
H	 0.6021688843	 2.0749997113	 0.4930587076	 0.133887
H	-0.4932920952	 1.9340167943	-0.9029661875	 0.124983
H	-1.1095395902	 1.7057002474	 0.7399597356	 0.117519
H	-0.8871193616	-0.5124450533	-0.194537816	 0.077939
H	 2.9326684911	 0.0433151829	-1.8606926208	 0.108254
H	 2.2347702353	 1.417974377	-0.9635299055	 0.110564
H	 3.7884669932	-0.6204747725	 0.4964879674	 0.077814
H	-0.168535382	-0.4136372635	 2.988747369	 0.131886
H	-0.6950677436	-1.8341754187	 2.0641666651	 0.120575
H	 0.8690704988	-1.8462548282	 2.9123755622	 0.126731
H	 1.6541576369	-2.4716017578	-0.2159419104	 0.078917
171.1348	194.2881	217.2889	220.8586	270.4628	311.1316	440.9725	458.7743	564.8976	592.5767	677.0308	745.2964	786.1851	827.9772	848.8607	863.873	887.5627	922.3833	939.4007	976.9975	1003.0384	1013.2614	1054.398	1117.6418	1132.5359	1155.7015	1160.1652	1185.7546	1191.6484	1209.1389	1235.7582	1266.025	1304.378	1321.9898	1336.974	1378.4953	1400.6135	1412.7474	1479.2847	1485.034	1487.8575	1490.984	1516.9799	3017.3491	3034.346	3038.5148	3041.4764	3077.8767	3101.028	3103.3292	3108.9914	3114.9551	3128.2215	3131.9334
CC1N2CC3OC1(C)C23	C[C@H]1N2C[C@H]3O[C@]1(C)[C@@H]23	
InChI=1S/C7H11NO/c1-4-7(2)6-5(9-7)3-8(4)6/h4-6H,3H2,1-2H3	InChI=1S/C7H11NO/c1-4-7(2)6-5(9-7)3-8(4)6/h4-6H,3H2,1-2H3/t4-,5-,6+,7+/m1/s1
