16
gdb 52190	3.7699	0.81542	0.78091	3.1946	72.5	-0.2663	-0.0011	0.2652	1458.1234	0.124231	-434.039038	-434.03011	-434.029166	-434.074226	30.963	
N	-0.4814396478	 1.009837679	-0.6081180834	-0.437173
C	-0.4132306228	-0.2375553108	-0.4399934667	 0.12784
O	-0.720879954	-0.7652956522	 0.7689852148	-0.184573
C	-0.81804622	-2.1823360093	 0.8422315193	-0.112975
C	-2.214341654	-2.6328399325	 0.4856573629	-0.010609
N	-2.4936568415	-2.7874043437	-0.9410252362	-0.310538
C	-2.4915673962	-3.9896573373	-0.084041038	-0.1975
C	-1.4375920136	-4.9497060159	-0.3166614987	 0.328123
N	-0.5985082435	-5.7285942718	-0.4764671216	-0.326944
H	-0.1854077496	 1.2475639438	-1.5526342538	 0.231804
H	-0.1088579622	-0.9887972182	-1.1791179986	 0.105291
H	-0.08740105	-2.6649303854	 0.1826624181	 0.134822
H	-0.5829555692	-2.450539353	 1.8757633655	 0.134074
H	-2.9980166275	-2.2213996546	 1.1184492951	 0.120637
H	-3.4498268959	-2.5255612174	-1.1655407733	 0.255447
H	-3.4434759124	-4.4439733307	 0.1766441346	 0.142274
45.6097	63.1764	109.0682	127.2577	213.4082	270.5484	342.7387	365.765	451.822	570.3669	595.3673	668.4101	804.5523	824.2891	847.7996	894.0955	945.5461	973.9613	1013.2933	1028.8089	1043.2363	1123.219	1142.2861	1194.9573	1220.3503	1246.1935	1270.2685	1334.9073	1376.5567	1409.0051	1424.9173	1465.7544	1489.7141	1745.755	2361.4211	3041.8558	3050.1435	3105.3709	3139.7731	3154.2221	3517.0533	3518.4068
N=COCC1NC1C#N	[NH][CH]OC[C@H]1N[C@H]1C#N	
InChI=1S/C5H7N3O/c6-1-4-5(8-4)2-9-3-7/h3-5,7-8H,2H2	InChI=1S/C5H7N3O/c6-1-4-5(8-4)2-9-3-7/h3-5,7-8H,2H2/t4-,5+/m0/s1
