16
gdb 22189	1.98341	0.98387	0.69072	2.3332	82.27	-0.2361	-0.0429	0.1931	1598.5106	0.120057	-437.828935	-437.818585	-437.81764	-437.866722	34.583	
C	-0.414577537	 1.5847889791	-0.1558360762	-0.505269
C	-0.2600053112	 0.1401530659	-0.1276639766	 0.181218
C	-0.1112029641	-1.0568515127	-0.1043625256	-0.021808
C	-0.0286931225	-2.4751922565	-0.0672453931	 0.159943
C	-1.3109483997	-3.2693142479	 0.0917438782	-0.371634
C	-1.5350896431	-3.6809105866	 1.5428240188	 0.163456
O	-2.5708857027	-3.5226194382	 2.1318323113	-0.230587
N	 1.1434466834	-3.0055468794	-0.1479624945	-0.157122
O	 1.0759725683	-4.4002091975	-0.0811284925	-0.39497
H	 0.2646514279	 2.0672649791	 0.5554148566	 0.159224
H	-0.1930941797	 1.9853942498	-1.1513460106	 0.157841
H	-1.4372414293	 1.8781318089	 0.1036390673	 0.157972
H	-2.1738268683	-2.6959730822	-0.2475225841	 0.133037
H	-1.2218170281	-4.1913982295	-0.495231509	 0.15349
H	-0.6546425618	-4.1563551407	 2.0231918918	 0.099688
H	 1.9991063578	-4.6545377217	-0.1875166618	 0.315519
26.0717	38.6625	85.0103	103.5673	117.7909	212.4394	295.1565	303.1365	317.6196	417.6894	455.6535	476.1448	497.1107	554.027	634.3535	726.6155	859.3922	937.3339	1022.0801	1047.4499	1052.3529	1055.226	1058.8055	1191.8762	1271.6579	1302.9618	1409.8291	1419.7457	1423.4831	1447.8648	1473.2409	1473.7562	1659.5992	1833.5327	2355.0465	2920.3423	3029.7273	3046.3467	3090.962	3096.5005	3141.1075	3817.656
CC#CC(CC=O)=NO	CC#CC(=NO)CC=O	
InChI=1S/C6H7NO2/c1-2-3-6(7-9)4-5-8/h5,9H,4H2,1H3	InChI=1S/C6H7NO2/c1-2-3-6(7-9)4-5-8/h5,9H,4H2,1H3
