19
gdb 111246	2.6436	1.48344	1.39278	2.0896	71.15	-0.2332	0.0705	0.3037	1046.9894	0.159828	-460.122527	-460.114392	-460.113448	-460.155493	30.359	
C	 0.0180129231	 1.4038580454	-0.1657103234	-0.241912
O	 0.0202265489	 0.0714305089	 0.3031903724	-0.238499
C	-1.1973513011	-0.5813613068	 0.1416582074	 0.155061
C	-1.5835618172	-1.3203011357	-1.1721026948	-0.003233
C	-0.3891815573	-2.0230589467	-1.7970782142	-0.057983
O	 0.4936737592	-2.5397323199	-0.8103408513	-0.267861
C	-0.0824676826	-2.8352565784	 0.455714349	-0.057699
C	-1.327890761	-2.0027268613	 0.7159431596	-0.007839
O	-2.2823323993	-2.2989342182	-0.3475336753	-0.300418
H	 0.9986351553	 1.8273259236	 0.0611438409	 0.134487
H	-0.1479098325	 1.4592676497	-1.2516049332	 0.110466
H	-0.7566440836	 2.0058930481	 0.3337747653	 0.109135
H	-2.0383607744	 0.042708249	 0.4739448266	 0.083484
H	-2.2379083635	-0.8469837356	-1.9092057198	 0.079163
H	-0.7669919617	-2.829401722	-2.4452575076	 0.100623
H	 0.1993156778	-1.3321260931	-2.4126535795	 0.105788
H	-0.3639683633	-3.8979650346	 0.5187145334	 0.099673
H	 0.6896357168	-2.6311242919	 1.2057825	 0.114115
H	-1.7427776236	-2.1550528004	 1.7156816645	 0.083449
78.1511	155.7092	164.7829	172.0532	235.2913	313.8774	416.4305	435.4729	518.3213	627.9283	661.2946	828.8316	847.7825	864.3514	893.1482	905.1304	1003.8912	1006.2961	1022.2352	1049.6958	1060.4583	1097.6004	1151.8882	1179.6794	1182.4587	1194.1572	1238.0601	1243.33	1248.5466	1274.9574	1322.1743	1332.3513	1366.5626	1375.3775	1388.0751	1432.1471	1484.2344	1486.08	1491.8342	1496.5214	1508.7644	2979.3382	2981.6773	2989.5013	3012.1698	3029.2236	3054.2798	3067.2179	3078.5724	3084.7684	3123.754
COC1C2COCC1O2	CO[C@H]1[C@H]2COC[C@@H]1O2	
InChI=1S/C6H10O3/c1-7-6-4-2-8-3-5(6)9-4/h4-6H,2-3H2,1H3	InChI=1S/C6H10O3/c1-7-6-4-2-8-3-5(6)9-4/h4-6H,2-3H2,1H3/t4-,5+,6+
