20
gdb 115810	4.09013	1.11443	0.98511	2.7473	76.28	-0.2361	0.0746	0.3107	1271.1259	0.170531	-440.257465	-440.248468	-440.247524	-440.291193	33.351	
C	-0.2526936271	 1.2988866306	 0.0385237233	-0.237197
O	-0.0753892261	-0.1060518416	 0.0226481015	-0.236221
C	 0.7003850839	-0.5833381033	 1.0670037507	 0.271851
O	 0.0435260643	-0.3761281864	 2.3166422135	-0.285924
C	 0.2594365823	-1.4802832627	 3.1857143972	-0.108397
C	 0.6590940438	-2.6554014007	 2.3045173396	 0.312973
C	 1.3956505916	-3.8248044178	 2.899387403	-0.497324
N	-0.3276950092	-2.8371562089	 1.2203129099	-0.348131
C	 0.9155037872	-2.0769446709	 0.9663240066	-0.174202
H	 0.7153343721	 1.8240854063	 0.0410066246	 0.099992
H	-0.7960171652	 1.5607312383	-0.8719359988	 0.125115
H	-0.8301256034	 1.620342634	 0.9125338485	 0.131279
H	 1.6735270028	-0.0529081558	 1.0795671694	 0.049102
H	 1.0656945225	-1.2624084885	 3.904348156	 0.087265
H	-0.6664727207	-1.6603545135	 3.742915232	 0.112644
H	 0.7587183328	-4.3756501868	 3.6011144144	 0.130814
H	 1.7170280075	-4.5241908165	 2.1208441749	 0.119447
H	 2.2862454821	-3.4968658137	 3.4463465702	 0.127242
H	-0.2182382295	-3.7699687868	 0.8263621908	 0.226492
H	 1.6670978084	-2.4646820155	 0.2877209826	 0.09318
82.1717	117.8492	167.1241	189.1739	202.968	232.2388	323.1409	349.7363	405.5378	488.2451	535.5889	600.2263	697.2006	794.0249	867.1597	899.0136	943.2755	951.3185	984.4352	1004.6649	1027.1145	1059.6237	1074.4489	1092.3694	1137.356	1166.6913	1169.5618	1181.7937	1232.6993	1238.1237	1308.1385	1311.7882	1365.0574	1382.0695	1415.6374	1420.9671	1461.0792	1481.4242	1485.5065	1486.1349	1501.6246	1510.3827	1512.7778	2901.3204	2977.2102	2985.2046	3026.8292	3063.4004	3067.6199	3089.171	3100.9472	3124.8174	3177.0253	3483.5722
COC1OCC2(C)NC12	CO[C@H]1OC[C@@]2(C)N[C@@H]12	
InChI=1S/C6H11NO2/c1-6-3-9-5(8-2)4(6)7-6/h4-5,7H,3H2,1-2H3	InChI=1S/C6H11NO2/c1-6-3-9-5(8-2)4(6)7-6/h4-5,7H,3H2,1-2H3/t4-,5-,6+/m0/s1
