20
gdb 77407	2.45233	1.58237	1.33466	0.858	79.27	-0.2288	0.0586	0.2875	1065.6016	0.169253	-403.084585	-403.075115	-403.074171	-403.118971	35.2	
C	-0.0329321736	 1.5376061965	-0.0097513436	-0.497944
C	 0.0127967939	 0.0367796931	-0.0120109383	 0.246162
C	 0.5888864823	-0.8087003626	-1.1174428219	-0.130835
N	 2.0644506505	-0.8566657132	-0.9340200422	-0.343399
C	 1.1917229555	-1.7561100966	-0.1321763391	-0.130887
C	 0.6471617869	-0.9613390391	 1.0254428999	 0.247516
C	 1.3797433356	-0.6900885238	 2.3076052596	-0.497108
C	-0.8564501629	-0.8531921395	 0.8553368668	 0.040532
O	-1.6328860981	-0.2932804893	 1.8700658981	-0.437423
H	 0.954520315	 1.9540784126	-0.2309384249	 0.139295
H	-0.7362188481	 1.9085486365	-0.7650972442	 0.12468
H	-0.3580044972	 1.9470242829	 0.95299186	 0.098815
H	 0.1440255522	-1.0310083096	-2.0811594413	 0.08951
H	 2.4358284191	-1.419025376	-1.7020993575	 0.22124
H	 1.2911303612	-2.8334245826	-0.2070510837	 0.089468
H	 2.3751158631	-0.2825955055	 2.1060022234	 0.138401
H	 0.8505320168	 0.0226766171	 2.9491875875	 0.099153
H	 1.5005626988	-1.6111426732	 2.8905607085	 0.124384
H	-1.4133738445	-1.6730947541	 0.4071714202	 0.093177
H	-1.1622281464	 0.4489199664	 2.2612795926	 0.285265
40.335	142.8018	157.0084	179.0281	216.0951	223.2689	262.9932	274.3707	404.8453	510.4715	514.7718	590.9239	654.5911	669.0594	748.1644	821.8533	839.8584	847.0161	920.9241	921.1379	970.2504	1043.445	1056.1499	1070.5717	1088.3977	1133.7727	1134.29	1140.1875	1186.8481	1198.682	1251.9289	1254.8671	1308.0184	1336.8238	1361.3998	1395.3822	1414.259	1423.5065	1456.3029	1476.6541	1481.2731	1498.7992	1507.6182	3023.1568	3025.4309	3079.3367	3081.9976	3100.5731	3102.1358	3127.8768	3166.3043	3178.7943	3447.9495	3830.897
CC12C3NC3C1(C)C2O	C[C@@]12[C@H]3N[C@H]3[C@]1(C)[C@H]2O	
InChI=1S/C7H11NO/c1-6-3-4(8-3)7(6,2)5(6)9/h3-5,8-9H,1-2H3	InChI=1S/C7H11NO/c1-6-3-4(8-3)7(6,2)5(6)9/h3-5,8-9H,1-2H3/t3-,4+,5-,6-,7+
