14
gdb 47320	3.66614	1.29909	1.00832	1.7044	58.58	-0.2719	-0.0166	0.2553	1084.5114	0.102518	-511.018666	-511.011089	-511.010144	-511.051723	27.166	
O	 0.0489829073	 0.3466139041	-1.0778621438	-0.300897
C	 0.0426437681	 1.2470222874	-0.2875224827	 0.414421
C	-1.2825316612	 1.7726865756	 0.2650233828	-0.302241
N	-1.2960880892	 2.4234706148	 1.5748979366	-0.358146
C	-0.7509393166	 3.6740281982	 1.7756699528	 0.424692
O	-1.2160873098	 4.5354955316	 2.4662101876	-0.344274
O	 0.4380168339	 3.8513985225	 1.1076682456	-0.219897
C	 1.3325502073	 2.7644777795	 1.1127914345	 0.01937
O	 1.201499553	 1.8793206684	 0.0114780893	-0.211893
H	-1.6867869768	 2.4307579964	-0.5188219389	 0.160329
H	-1.9361598593	 0.9021585516	 0.3171198218	 0.162483
H	-2.1737722275	 2.3296165756	 2.0668733615	 0.267911
H	 2.3299547127	 3.1885816631	 1.0019179175	 0.152074
H	 1.2469381279	 2.2042942011	 2.0484856755	 0.136069
47.738	108.7456	170.2859	280.3937	331.562	389.3722	427.691	541.9083	569.1494	635.2489	709.7103	746.756	810.9907	816.3072	860.6392	1000.6501	1048.3005	1054.2981	1123.3708	1166.8111	1226.0378	1277.558	1328.1249	1335.577	1387.2336	1461.8706	1465.8171	1484.4825	1509.7091	1850.6884	1875.2076	3002.9553	3063.0795	3138.1534	3149.7021	3603.9634
O=C1CNC(=O)OCO1	O=C1CNC(=O)OCO1	
InChI=1S/C4H5NO4/c6-3-1-5-4(7)9-2-8-3/h1-2H2,(H,5,7)	InChI=1S/C4H5NO4/c6-3-1-5-4(7)9-2-8-3/h1-2H2,(H,5,7)
