18
gdb 10953	4.68318	1.38576	1.22794	2.6941	68.04	-0.2392	0.0708	0.31	1027.4952	0.153035	-384.898524	-384.890528	-384.889583	-384.930727	30.334	
C	 0.1442501458	 1.4321025487	-0.1310517944	-0.485748
C	 0.0717451432	-0.0497446734	 0.0353900186	 0.480839
C	-0.9529501669	-0.8328672929	 0.7921173274	-0.338143
C	 0.5231949681	-1.0260548606	 1.1043180308	-0.212583
C	 1.2040743157	-1.7724412902	-0.0378930863	 0.122044
C	 0.8694056663	-3.2162539077	-0.3662149218	-0.082462
O	 1.2995142342	-3.5347152046	-1.6774724345	-0.421577
O	 0.6242897129	-0.8584094638	-1.0222620377	-0.356262
H	 1.1720145409	 1.7572854459	-0.319553369	 0.129526
H	-0.4741696489	 1.7527461804	-0.9772694645	 0.133149
H	-0.225266032	 1.9365881638	 0.7662849148	 0.124442
H	-1.4920638971	-0.2788054788	 1.5547150001	 0.114762
H	-1.5350892891	-1.6003050937	 0.2913251074	 0.115191
H	 0.9454086314	-0.8491624643	 2.0842899201	 0.099836
H	 2.2926391187	-1.6362297666	-0.0317601016	 0.088458
H	 1.4007366296	-3.8869499238	 0.3184319559	 0.107774
H	-0.2087761478	-3.3952801374	-0.2410955317	 0.086683
H	 0.9221370052	-2.8571881209	-2.2517441637	 0.294071
94.884	151.7351	181.5195	202.8335	313.0177	338.3628	430.5073	441.9836	494.2476	522.3924	639.9002	727.8774	812.1794	863.7369	904.1821	947.8271	964.9001	981.4671	1007.1727	1036.1822	1065.8529	1073.3337	1106.2621	1112.6332	1126.205	1201.6539	1225.085	1276.2114	1296.3951	1347.8917	1382.5152	1402.3747	1426.4755	1439.8697	1474.1616	1488.7451	1500.0915	1505.4706	2996.1531	3032.0501	3033.3004	3070.8772	3096.9619	3117.1772	3121.5712	3200.5613	3209.8947	3788.005
CC12CC1C(CO)O2	C[C@]12C[C@H]1[C@@H](CO)O2	
InChI=1S/C6H10O2/c1-6-2-4(6)5(3-7)8-6/h4-5,7H,2-3H2,1H3	InChI=1S/C6H10O2/c1-6-2-4(6)5(3-7)8-6/h4-5,7H,2-3H2,1H3/t4-,5+,6-/m0/s1
