18
gdb 124467	3.2087	1.24152	1.11105	3.0336	74.05	-0.2504	-0.0058	0.2447	1154.6155	0.145923	-439.087181	-439.078168	-439.077224	-439.120955	33.583	
C	-0.1777832967	 1.5061827407	-0.1080578773	-0.41674
C	 0.0094694312	-0.0152790929	 0.0279816508	 0.224162
C	 0.8690068068	-0.3622166943	 1.2564804937	-0.416792
O	-1.2563292687	-0.6698616776	 0.1026801612	-0.461055
C	 0.6431368975	-0.5703441793	-1.2182066126	 0.464883
C	 0.2307553334	-1.4766701334	-2.1433940756	-0.34274
C	 1.3204142133	-1.5305143614	-3.0529759806	 0.022614
N	 2.300827626	-0.7320236775	-2.7111143881	-0.143127
O	 1.8682012447	-0.1152600273	-1.5344143012	-0.235649
H	 0.7806051123	 2.007497192	-0.26533229	 0.140153
H	-0.8340454343	 1.7283137029	-0.953104464	 0.132674
H	-0.6308346285	 1.9105902982	 0.8041645183	 0.106347
H	 0.4110836189	 0.0508106304	 2.1623890393	 0.106349
H	 0.9449490452	-1.4468423295	 1.3657895083	 0.132676
H	 1.8754252725	 0.0533830217	 1.1618688264	 0.140174
H	-1.7034561431	-0.3454001596	 0.891081646	 0.281616
H	-0.7009839319	-2.013053301	-2.1634796049	 0.132758
H	 1.4237048614	-2.126771712	-3.9489701995	 0.131697
50.1298	144.3691	189.4652	221.6808	233.8817	275.2762	327.0164	341.9137	346.6343	463.1374	481.7091	606.7305	646.5634	732.2113	827.9425	847.7831	916.2752	919.5151	922.6619	942.4473	977.2555	1004.8025	1019.1049	1047.3987	1125.1458	1187.6813	1198.7125	1213.7404	1252.6174	1361.6508	1378.9465	1391.1997	1411.7919	1477.4713	1481.733	1493.4298	1499.513	1530.2331	1636.9999	3033.1761	3038.2431	3107.9323	3113.244	3132.5292	3135.5814	3242.532	3302.5816	3820.0625
CC(C)(O)C1=CC=NO1	CC(C)(O)c1ccno1	
InChI=1S/C6H9NO2/c1-6(2,8)5-3-4-7-9-5/h3-4,8H,1-2H3	InChI=1S/C6H9NO2/c1-6(2,8)5-3-4-7-9-5/h3-4,8H,1-2H3
