18
gdb 26507	3.6767	1.17974	1.01726	3.2156	78.42	-0.2036	0.0422	0.2458	1193.3474	0.148635	-401.964914	-401.956713	-401.955768	-401.998425	32.067	
O	 0.2743981971	 1.3018253948	 0.4074934275	-0.462531
C	 0.0504269676	-0.0503071035	 0.0749630402	 0.316481
C	-0.7440776094	-0.8695726164	 1.0659036063	-0.334907
C	-1.3990444304	-0.3422858522	-0.1952914747	-0.288511
C	 1.1307860923	-0.6605010812	-0.739917315	 0.204119
C	 1.7029774915	-1.9068146885	-0.5956482569	-0.193086
N	 2.6658027419	-2.0466857598	-1.5625094934	-0.242403
C	 2.733956168	-0.9037509045	-2.3192365539	-0.068958
C	 1.7956987167	-0.0260345786	-1.8353991405	-0.25501
H	 1.1210641884	 1.342657089	 0.8665442049	 0.276102
H	-0.5612917123	-1.9354443657	 1.1474167205	 0.105433
H	-0.9960816449	-0.3760138668	 1.9974462684	 0.111746
H	-2.0850681377	 0.490934529	-0.0918476739	 0.119133
H	-1.6356421766	-1.0443502331	-0.9860803317	 0.114128
H	 1.507669695	-2.6963047352	 0.1116604166	 0.116683
H	 3.2439022861	-2.8586935507	-1.6866477771	 0.260529
H	 3.4392761684	-0.815449545	-3.1299634269	 0.118318
H	 1.5933952284	 0.9662654083	-2.2066895306	 0.102736
25.3353	143.8968	189.6833	305.4398	332.7314	355.585	428.3575	470.2795	520.4108	530.9385	638.4148	677.0652	695.9548	767.6584	780.034	841.329	853.7682	903.5882	909.4014	922.7941	956.0403	989.1731	1051.4945	1070.8678	1074.3894	1094.3064	1162.6642	1182.9084	1190.3636	1238.4141	1268.6048	1332.3674	1391.8813	1405.7554	1447.5382	1465.4781	1491.9586	1528.6614	1610.0181	3134.2763	3139.0935	3219.9307	3235.5144	3252.1619	3265.6916	3271.9281	3687.4769	3791.5237
OC1(CC1)C1=CNC=C1	OC1(CC1)c1c[nH]cc1	
InChI=1S/C7H9NO/c9-7(2-3-7)6-1-4-8-5-6/h1,4-5,8-9H,2-3H2	InChI=1S/C7H9NO/c9-7(2-3-7)6-1-4-8-5-6/h1,4-5,8-9H,2-3H2
