23
gdb 89495	2.89012	1.31652	1.12017	0.3543	92.67	-0.22	0.0229	0.2429	1231.7541	0.20624	-351.151095	-351.142269	-351.141325	-351.183958	35.437	
C	-0.1324546179	 1.5751309388	 0.0322705148	-0.39598
C	 0.0217058422	 0.0517889766	 0.0703947328	 0.006502
C	 0.7369577661	-0.5328425007	-1.1952050589	-0.307846
C	 1.4525640529	-1.7983733031	-0.670338155	 0.312126
C	 0.6992653764	-3.0944365709	-0.9841383387	-0.455669
C	 3.0166732042	-2.0006296868	-0.6938630305	-0.282981
C	 2.9923432485	-2.1416629839	 0.8760422562	-0.326543
C	 1.6387403665	-1.4759479508	 0.7945453128	 0.278871
C	 0.9205844055	-0.439635524	 1.2106695923	-0.250652
H	 0.8459424567	 2.0654757116	-0.0278704458	 0.111499
H	-0.7199529783	 1.889333086	-0.8372545107	 0.110797
H	-0.6397062361	 1.9479205226	 0.9287218002	 0.110195
H	-0.985914921	-0.3829654467	 0.1577439594	 0.074326
H	 0.0424175756	-0.7251321417	-2.0203256958	 0.085497
H	 1.4729908151	 0.2007165125	-1.5469840725	 0.090805
H	 0.753817378	-3.3226126994	-2.0550860232	 0.111894
H	 1.1178931836	-3.9487165143	-0.4414579341	 0.110313
H	-0.3583856753	-3.0135059697	-0.7110875071	 0.116157
H	 3.3953125334	-2.8583249813	-1.2572305173	 0.093573
H	 3.5453955625	-1.0966787348	-1.0055930515	 0.103053
H	 2.9560987524	-3.1920615317	 1.1830469068	 0.110895
H	 3.7708231368	-1.637007886	 1.4528737138	 0.108336
H	 0.9963608823	 0.0801838975	 2.1600791919	 0.084834
93.1694	175.4871	230.2177	240.8635	247.8783	281.0275	327.5354	345.9533	435.3556	481.0206	535.4407	610.694	689.069	755.1744	798.2738	818.1013	846.8199	878.1667	900.5823	908.9383	919.7489	959.9693	967.4555	1024.7908	1030.8792	1071.679	1096.5201	1131.3056	1161.5041	1165.3283	1196.2268	1212.2827	1225.1643	1255.568	1263.1427	1290.191	1303.3709	1322.6997	1358.0952	1406.8042	1409.5795	1469.1193	1481.1893	1486.1328	1494.2636	1496.1607	1497.8936	1500.0245	1733.9322	2976.6011	3021.5217	3023.4943	3026.9945	3047.118	3053.5006	3073.5778	3087.4916	3093.5661	3094.6264	3096.1518	3100.9606	3119.3369	3183.1337
CC1CC2(C)CCC2=C1	C[C@H]1C[C@@]2(C)CC[C]2[CH]1	
InChI=1S/C9H14/c1-7-5-8-3-4-9(8,2)6-7/h5,7H,3-4,6H2,1-2H3	InChI=1S/C9H14/c1-7-5-8-3-4-9(8,2)6-7/h5,7H,3-4,6H2,1-2H3/t7-,9-/m1/s1
