14
gdb 29852	3.93145	1.13774	0.88735	6.6169	71.81	-0.2387	-0.0649	0.1739	1222.7395	0.100524	-473.888055	-473.879946	-473.879002	-473.921359	28.321	
C	-0.0146389436	 1.4767163386	 0.0095990894	-0.35055
N	-0.0393140314	 0.0266675661	 0.0009096962	-0.117506
C	-1.1297484461	-0.8052519895	 0.0035194277	-0.172683
C	-0.6701574973	-2.0788600905	-0.0066523948	 0.23705
O	 0.7100407443	-2.0555887555	-0.0158653823	-0.225828
C	 1.124136378	-0.7473512691	-0.0118121066	 0.488693
O	 2.2624549055	-0.3743205988	-0.0167321825	-0.390419
C	-1.4078540492	-3.3257095308	-0.0084335262	 0.074559
O	-0.9225644	-4.4336176122	-0.0193571262	-0.275263
H	 1.0335429708	 1.7781184893	 0.0019043698	 0.184969
H	-0.5144226511	 1.880271768	-0.8758874101	 0.149114
H	-0.4981261516	 1.8695077957	 0.9088900875	 0.149161
H	-2.1436560773	-0.4391791725	 0.0125624837	 0.173222
H	-2.5082595111	-3.1588999688	-0.0016689157	 0.075481
91.894	99.4762	157.9547	195.271	213.7007	290.8674	367.1736	450.1729	554.406	615.1982	661.9146	743.3754	759.2237	809.258	876.266	961.34	1007.7051	1076.2159	1080.2804	1157.166	1169.2405	1307.9724	1354.404	1402.831	1435.0346	1483.23	1495.34	1507.2726	1656.489	1789.2012	1890.2827	2880.5448	3044.3858	3108.9323	3157.4238	3273.6471
CN1C=C(OC1=O)C=O	Cn1cc(oc1=O)C=O	
InChI=1S/C5H5NO3/c1-6-2-4(3-7)9-5(6)8/h2-3H,1H3	InChI=1S/C5H5NO3/c1-6-2-4(3-7)9-5(6)8/h2-3H,1H3
