16
gdb 98918	3.08822	0.75918	0.61401	1.0357	78.12	-0.2558	-0.0728	0.183	1714.8988	0.121583	-437.896722	-437.886396	-437.885452	-437.934676	33.642	
C	-0.5357999242	 1.1461136965	-0.6360995143	-0.336509
N	-1.0357889672	-0.1277013418	-0.1551362032	-0.318626
C	-0.4814520782	-0.7733742689	 0.896748044	 0.439503
O	 0.4696064395	-0.3730227375	 1.5400649974	-0.371704
C	-1.1342058538	-2.122748405	 1.2832550214	-0.498813
C	-2.2649940877	-2.5610760242	 0.4878781815	 0.060307
C	-3.2027122042	-2.8805094221	-0.2056859047	 0.072578
C	-4.3195457844	-3.2601292231	-1.0323064545	 0.019639
O	-4.7310453203	-2.5951818971	-1.9558804083	-0.22912
H	-0.2001658427	 1.070601719	-1.6758122984	 0.132872
H	-1.3064513574	 1.9215537438	-0.5719043008	 0.132868
H	 0.3087966764	 1.4270096014	-0.0062425897	 0.17211
H	-1.8245107771	-0.5535766663	-0.6167057746	 0.265058
H	-0.3360241342	-2.8736285526	 1.254487485	 0.176664
H	-1.4219213693	-2.0380661886	 2.3376847568	 0.176674
H	-4.7876962551	-4.2262949637	-0.7581545877	 0.106497
34.3495	48.7105	50.6399	80.1284	159.5641	177.6473	183.1622	287.9216	384.8594	395.1815	413.6051	511.311	625.9384	633.615	673.4486	832.1353	877.8603	935.01	1022.95	1086.6717	1153.7458	1157.3081	1177.2011	1210.5487	1255.4972	1302.4825	1420.6074	1429.7921	1441.2737	1495.2581	1499.5539	1573.7686	1763.951	1792.8067	2321.3541	2931.2275	3033.8582	3045.8738	3079.1545	3088.4428	3156.0237	3624.1303
CNC(=O)CC#CC=O	CNC(=O)CC#CC=O	
InChI=1S/C6H7NO2/c1-7-6(9)4-2-3-5-8/h5H,4H2,1H3,(H,7,9)	InChI=1S/C6H7NO2/c1-7-6(9)4-2-3-5-8/h5H,4H2,1H3,(H,7,9)
