18
gdb 49076	3.04754	1.7167	1.3134	2.4702	75.9	-0.2393	-0.0352	0.2042	982.4277	0.149051	-401.893137	-401.885915	-401.884971	-401.925037	28.312	
O	-0.6994675218	 0.8898886232	-0.6699481249	-0.250312
C	 0.0920735927	 1.1585583791	 0.1991708583	 0.056205
C	 1.3597781531	 1.9338471488	-0.0050116852	 0.299101
C	 2.6536322979	 1.2315198051	 0.4195230412	-0.300824
C	 3.6418847803	 2.4113954864	 0.2242196999	-0.244284
C	 2.6546980438	 3.4664586993	-0.2437937363	 0.032399
C	 1.5981914681	 2.8715072604	-1.2162053078	-0.115644
C	 0.6082371211	 3.8414921078	-0.5591300486	-0.186613
N	 1.4000136037	 3.3501362681	 0.6624429614	-0.204024
H	-0.0664716201	 0.8241014653	 1.250119259	 0.084099
H	 2.6007218978	 0.8872076856	 1.4563528945	 0.116649
H	 2.8733966087	 0.3688577175	-0.2154667416	 0.115673
H	 4.1390105932	 2.7046356709	 1.1524193166	 0.116683
H	 4.4110036506	 2.2056309857	-0.5254105652	 0.108969
H	 3.0025696107	 4.4912496271	-0.3869228644	 0.078129
H	 1.711644646	 2.5950288133	-2.2691561502	 0.0725
H	 0.7416079722	 4.910216628	-0.7465566743	 0.100661
H	-0.450022908	 3.5762394686	-0.5462664623	 0.120633
68.167	160.734	243.9487	280.3651	359.4926	428.6108	498.7123	666.2975	685.2939	719.4853	752.8653	793.7431	829.6779	872.8179	913.1865	927.0956	958.8381	969.7262	1016.1259	1034.8775	1065.0833	1081.0734	1115.4518	1127.6282	1175.0718	1175.8427	1199.3514	1217.2323	1248.7609	1252.5558	1272.9859	1314.3687	1323.4957	1358.5799	1421.0226	1476.4042	1498.0425	1537.6697	1820.0831	2871.6472	3052.947	3056.692	3065.1228	3067.5107	3096.9084	3105.6285	3115.3786	3133.317
O=CC12CCC3C1CN23	O=C[C@@]12CC[C@H]3[C@@H]1CN23	
InChI=1S/C7H9NO/c9-4-7-2-1-6-5(7)3-8(6)7/h4-6H,1-3H2	InChI=1S/C7H9NO/c9-4-7-2-1-6-5(7)3-8(6)7/h4-6H,1-3H2/t5-,6-,7-/m0/s1
