20
gdb 6548	3.04666	1.63741	1.4636	2.93	70.59	-0.2482	0.0633	0.3115	979.3098	0.174892	-386.1248	-386.115702	-386.114758	-386.157562	35.337	
C	-0.0096856402	 1.577489984	-0.0204304179	-0.4055
C	 0.0346854299	 0.0482366972	 0.0583358143	 0.370454
C	 0.6563556417	-0.3846702825	 1.3957716179	-0.432018
O	-1.3326404394	-0.3711708043	 0.0055974231	-0.476078
C	 0.7693237337	-0.4939806658	-1.1817677643	-0.045861
C	 2.0716884409	-1.2732533134	-1.134877334	-0.341995
C	 0.7827052279	-1.9582361375	-1.5068496875	 0.080093
O	 0.1440563628	-2.8056707047	-0.5842333125	-0.422501
H	 1.0012371415	 1.9956795106	-0.0355429638	 0.109971
H	-0.5341773399	 1.8928987137	-0.9269310295	 0.117315
H	-0.5456899174	 1.9844917425	 0.8415194631	 0.116189
H	 0.037977619	 0.0023761099	 2.2104871265	 0.116267
H	 0.6915803495	-1.4732274187	 1.4808794199	 0.115507
H	 1.6709240789	 0.0082735241	 1.5171324624	 0.10682
H	-1.3213117025	-1.3362109207	-0.0049103992	 0.290012
H	 0.6411019517	 0.1450530143	-2.0509616937	 0.087505
H	 2.8147251198	-1.1022667321	-1.9066990807	 0.11057
H	 2.4811606642	-1.5036049145	-0.1580122272	 0.118393
H	 0.6340201735	-2.2478096249	-2.5461644726	 0.090765
H	 0.6262112742	-3.6375306273	-0.5402415542	 0.294091
86.0296	181.5734	226.6698	250.9173	275.1541	279.0873	298.7874	350.3823	396.1732	411.8903	433.8397	494.809	512.5234	627.6258	709.5903	807.7603	845.6416	868.8261	926.2457	951.4794	991.7755	1006.9629	1023.2555	1064.2738	1069.3167	1133.8198	1151.9495	1174.0043	1205.3721	1235.905	1264.4443	1291.7909	1361.0476	1382.7253	1405.095	1412.5365	1430.5968	1478.5697	1482.0265	1495.4612	1499.2507	1515.9959	3037.3645	3042.8319	3107.0749	3109.3077	3116.3749	3119.5728	3128.0873	3134.4087	3143.4662	3224.1757	3782.5658	3812.1939
CC(C)(O)C1CC1O	CC(C)(O)[C@H]1C[C@H]1O	
InChI=1S/C6H12O2/c1-6(2,8)4-3-5(4)7/h4-5,7-8H,3H2,1-2H3	InChI=1S/C6H12O2/c1-6(2,8)4-3-5(4)7/h4-5,7-8H,3H2,1-2H3/t4-,5+/m0/s1
