20
gdb 122406	3.93708	0.80175	0.69072	3.5558	78.02	-0.2274	-0.0181	0.2092	1624.1676	0.168532	-440.25822	-440.248548	-440.247604	-440.293782	34.247	
C	 0.0087828779	 1.4901899132	-0.0749440589	-0.227472
O	 0.0265679006	 0.0864443347	 0.0300696733	-0.226449
C	 0.6699145867	-0.5412942305	-1.0589027903	-0.054885
C	 0.5761849436	-2.0494836113	-0.8852503422	-0.164212
N	-0.7806543471	-2.5409816916	-1.0271578559	-0.085079
C	-1.7407368111	-2.3094694396	 0.0834154723	-0.276338
C	-2.1745952842	-3.7721608873	-0.0618596258	 0.388249
O	-3.0687883446	-4.4440918116	 0.3549024187	-0.283145
C	-0.9755167804	-4.0088621706	-0.9942066737	-0.288225
H	 1.0273158179	 1.9085605097	-0.106968732	 0.105095
H	-0.52765707	 1.8254955401	-0.9763265729	 0.107747
H	-0.5044516273	 1.8788436433	 0.8078321734	 0.128963
H	 0.1948769129	-0.2501234145	-2.0095582184	 0.096013
H	 1.7302292012	-0.2390756552	-1.1038152857	 0.085064
H	 1.1896972569	-2.517201964	-1.6640533257	 0.107267
H	 1.021069183	-2.3218858523	 0.0921418446	 0.086526
H	-1.2671918255	-2.1171022231	 1.0582297572	 0.126094
H	-2.4922028061	-1.5355570138	-0.0961065734	 0.131885
H	-1.169468844	-4.4819744437	-1.962897918	 0.129367
H	-0.1758004905	-4.566691752	-0.4778046067	 0.113537
65.7658	73.3374	90.6341	110.1037	218.5803	246.0227	258.3571	329.3798	354.9387	428.9524	476.1422	546.3761	641.2168	752.0922	761.4263	865.2811	931.5779	970.5834	1023.0987	1055.4418	1064.6269	1091.7252	1106.8628	1120.3583	1157.0985	1166.621	1185.5131	1216.0895	1223.9933	1251.9987	1263.6505	1304.8678	1322.051	1395.6262	1425.0212	1455.5641	1470.9806	1478.7525	1485.6984	1491.4503	1499.6023	1523.3649	1919.6421	2915.2161	2955.8186	2967.2298	2973.8113	2998.7994	2999.7122	3017.354	3060.2444	3065.5311	3086.8615	3115.9958
COCCN1CC(=O)C1	COCCN1CC(=O)C1	
InChI=1S/C6H11NO2/c1-9-3-2-7-4-6(8)5-7/h2-5H2,1H3	InChI=1S/C6H11NO2/c1-9-3-2-7-4-6(8)5-7/h2-5H2,1H3
