25
gdb 95767	1.92296	1.62427	0.96044	0.0598	96.46	-0.216	0.0349	0.2509	1348.3253	0.229411	-352.393165	-352.383178	-352.382234	-352.42745	38.658	
C	 0.072361942	 1.5977431311	-0.0742819891	-0.398572
C	 0.0458524647	 0.0601953391	 0.0276448329	-0.04413
C	 0.6189535557	-0.5491929729	-1.2608844026	-0.193878
C	 0.9001958127	-2.0402423102	-1.1016034747	-0.224188
C	 1.9309703244	-2.2463186612	 0.0081676005	-0.267717
C	 1.611844127	-1.4707615769	 1.2713792296	 0.197693
C	 2.3687105749	-1.9764312256	 2.4757152936	-0.480411
C	 0.735666851	-0.4520633121	 1.2904005096	 0.232969
C	 0.3127852121	 0.2546469843	 2.5596041441	-0.488001
H	 1.1036293829	 1.9688099897	-0.0888296261	 0.112907
H	-0.4116111493	 1.9214672521	-1.0019630704	 0.108413
H	-0.4482645484	 2.0822890094	 0.7553776992	 0.111893
H	-1.0148101361	-0.2346498643	 0.0998987468	 0.072215
H	-0.0721134184	-0.3613758687	-2.0909005612	 0.085905
H	 1.5562401568	-0.0337163803	-1.5142387199	 0.089803
H	-0.0289491065	-2.5637862448	-0.8408618806	 0.093628
H	 1.2564495964	-2.475667454	-2.0417634017	 0.086415
H	 2.010478772	-3.3124516546	 0.2609773671	 0.092826
H	 2.9320517471	-1.9623477078	-0.3528785363	 0.099249
H	 3.4355898502	-2.0691572183	 2.2336248339	 0.118703
H	 2.28934383	-1.3326516939	 3.3519848057	 0.117499
H	 2.03269049	-2.9828244489	 2.7606666831	 0.118956
H	 0.5510709422	-0.3115740466	 3.46046022	 0.117382
H	 0.7739426908	 1.2452060575	 2.6579441696	 0.123624
H	-0.7722383541	 0.418231808	 2.557070187	 0.116815
84.8958	136.4731	138.9294	175.613	223.5642	256.4889	312.3631	323.3475	371.173	403.8015	414.8478	449.8207	464.2905	581.2325	585.8458	673.2096	830.0074	850.7996	868.9489	909.4408	966.3111	980.4942	1001.09	1022.7212	1032.6411	1056.8059	1073.3657	1114.2547	1133.9007	1150.9929	1161.8611	1195.1164	1219.9714	1259.3085	1291.6518	1320.0499	1356.1074	1375.0886	1377.1578	1388.4657	1405.8929	1407.9902	1420.1494	1474.9458	1480.3717	1482.6179	1487.9542	1491.1912	1497.9496	1498.8817	1508.241	1511.9749	1728.9139	2953.6206	2983.7267	3008.0615	3011.6701	3015.4794	3021.269	3029.3383	3031.1573	3053.1328	3057.0244	3063.7517	3066.0657	3093.7071	3114.6482	3125.4312	3142.2712
CC1CCCC(C)=C1C	C[C@H]1CCCC(=C1C)C	
InChI=1S/C9H16/c1-7-5-4-6-8(2)9(7)3/h7H,4-6H2,1-3H3	InChI=1S/C9H16/c1-7-5-4-6-8(2)9(7)3/h7H,4-6H2,1-3H3/t7-/m0/s1
