17
gdb 77338	2.95076	1.27682	0.92974	2.5594	74.67	-0.2554	-0.0355	0.2199	1211.391	0.134517	-421.822043	-421.813371	-421.812426	-421.855492	32.707	
O	 0.3208696865	 1.2006182375	 0.5004626995	-0.441202
C	 0.1032167975	-0.1055758912	 0.0634367171	 0.063818
C	-1.3726414801	-0.5650396083	 0.0293128768	-0.201397
C	-1.3075403311	-1.8085386554	-0.9094255441	-0.233824
C	-0.2908387042	-1.4276532145	-2.0056406905	-0.339502
C	 0.5404396466	-0.3109324695	-1.3865989358	 0.362048
O	 1.353702303	 0.3975955709	-1.9264563764	-0.325946
C	-1.9588001128	-0.8382007464	 1.3295637193	 0.303379
C	-2.4364591028	-1.0898788189	 2.4033349748	-0.43074
H	 0.9583310245	 1.5816854662	-0.1229983626	 0.293492
H	 0.6619561699	-0.8347329384	 0.6806566389	 0.10155
H	-1.9439713797	 0.2319281321	-0.4665091353	 0.117105
H	-0.9543007124	-2.6680496056	-0.3323741837	 0.124335
H	-2.2915506393	-2.0650062222	-1.3046413996	 0.12342
H	 0.3435793216	-2.2568336244	-2.331540756	 0.141316
H	-0.7704707185	-1.027627605	-2.905888202	 0.145003
H	-2.8585452388	-1.2976226568	 3.3552918796	 0.197145
74.0015	122.3449	132.5688	226.6076	272.8187	343.5437	387.8605	436.7813	476.0117	538.5616	544.0874	585.7041	628.6881	635.899	637.5619	743.5005	857.0414	890.2544	978.655	990.4059	1031.9368	1054.0511	1112.7461	1157.7977	1177.6605	1210.0037	1250.8384	1273.2551	1291.5731	1311.0143	1340.7945	1378.6882	1418.9822	1446.6638	1500.2805	1839.3983	2240.653	2929.0359	3017.5956	3055.3029	3068.6292	3098.8453	3125.1515	3504.5328	3707.8627
OC1C(CCC1=O)C#C	O[C@H]1[C@@H](CCC1=O)C#C	
InChI=1S/C7H8O2/c1-2-5-3-4-6(8)7(5)9/h1,5,7,9H,3-4H2	InChI=1S/C7H8O2/c1-2-5-3-4-6(8)7(5)9/h1,5,7,9H,3-4H2/t5-,7+/m1/s1
