19
gdb 117319	2.61762	1.03197	0.80516	1.1095	76.14	-0.249	-0.0126	0.2365	1455.2954	0.158005	-456.377137	-456.366982	-456.366038	-456.413236	35.381	
C	-0.5602595799	 0.3400926441	-1.1105947054	-0.247939
O	 0.0342520609	-0.3178725645	-0.0031440973	-0.234139
C	-0.873867597	-0.5951460432	 1.0391876129	-0.176243
C	-1.6840736713	-1.8910194116	 0.8652926066	 0.358278
O	-2.6846777823	-2.0933303937	 1.5231029403	-0.361925
N	-1.1257259265	-2.7509315149	-0.0448882686	-0.321729
C	-1.5338963545	-4.0292622844	-0.4524953702	 0.356441
C	-2.786308628	-4.5953121393	 0.1636962563	-0.445629
N	-0.7859525702	-4.5879663246	-1.3208580381	-0.499165
H	 0.2320679563	 0.5119444452	-1.8419048938	 0.139591
H	-1.3495162535	-0.2674906457	-1.575152342	 0.120606
H	-0.9901751844	 1.3061260749	-0.8110727484	 0.121016
H	-0.2855971552	-0.7025691554	 1.95775421	 0.143547
H	-1.5911411425	 0.220358763	 1.1967138248	 0.126756
H	-0.2739337394	-2.4283186192	-0.4886823418	 0.270254
H	-3.6458555409	-3.9489507008	-0.0291630105	 0.156242
H	-2.9736834879	-5.5890277683	-0.2487226992	 0.113957
H	-2.6955267429	-4.6569614904	 1.2504785376	 0.159142
H	-1.1497709608	-5.5085314611	-1.5607977734	 0.220938
53.998	79.3546	89.4499	149.5723	153.8357	188.0046	204.8055	276.4101	384.0409	407.1022	477.1435	534.2272	553.7578	593.9321	659.8518	783.4323	840.2619	866.2284	952.8093	996.287	1026.0148	1047.2396	1073.2543	1128.2281	1139.7065	1181.9568	1220.1431	1228.2396	1300.727	1363.9684	1388.8624	1429.1717	1460.583	1463.1156	1468.1351	1484.2766	1490.3956	1502.7257	1519.9782	1716.2234	1797.2835	2993.7892	3027.8499	3049.9271	3057.3237	3079.3444	3128.8633	3130.9884	3141.553	3499.7259	3571.9365
COCC(=O)NC(C)=N	COCC(=O)NC(=N)C	
InChI=1S/C5H10N2O2/c1-4(6)7-5(8)3-9-2/h3H2,1-2H3,(H2,6,7,8)	InChI=1S/C5H10N2O2/c1-4(6)7-5(8)3-9-2/h3H2,1-2H3,(H2,6,7,8)
