18
gdb 55036	3.18832	1.01487	0.92347	4.0097	74.3	-0.2507	0.0085	0.2592	1331.6386	0.146621	-439.080265	-439.071117	-439.070172	-439.114988	33.316	
N	 0.4210806701	 0.9914611345	-0.9170742423	-0.531352
C	 0.0980701899	 0.2846417908	 0.2065272052	 0.401666
O	 0.8360027019	 0.2030452546	 1.1679149008	-0.357437
C	-1.2749339396	-0.346025858	 0.1466343551	-0.066432
O	-1.4694613065	-1.5228519143	 0.9221129999	-0.238583
C	-2.1822179162	-0.354724047	 1.3207941851	 0.054386
C	-1.8605255382	 0.2529408782	 2.6396716281	-0.013191
C	-2.7399419914	 1.3696240034	 3.1546650408	-0.270996
C	-2.7999501488	 0.0114689972	 3.7985611385	-0.269397
H	 1.3373096621	 1.4065740249	-0.964098581	 0.265481
H	-0.1290797807	 0.9494909064	-1.7567778212	 0.261148
H	-1.7331436639	-0.3794069858	-0.8445017019	 0.083279
H	-3.2501158159	-0.3921946496	 1.0860050774	 0.088302
H	-0.8012467817	 0.3058345997	 2.8540598764	 0.133199
H	-2.2603610683	 2.1816772341	 3.6888909629	 0.118923
H	-3.5836353376	 1.6779566454	 2.5450391815	 0.10852
H	-3.6819875763	-0.5953306096	 3.62043454	 0.113083
H	-2.361643549	-0.1198572649	 4.7811386246	 0.119402
49.5757	73.3496	138.3862	189.6219	195.437	267.6218	286.9747	383.9047	429.4464	489.948	574.0394	655.7358	749.9721	766.1992	792.7778	839.7912	870.3222	899.7517	913.0681	940.4919	995.4303	1058.7124	1070.2906	1079.5544	1089.6212	1137.2912	1150.1709	1200.4221	1211.2777	1224.8122	1288.7062	1299.732	1331.8467	1438.098	1470.5057	1484.6597	1510.6611	1616.7552	1800.9121	3062.858	3080.785	3130.0203	3135.3005	3207.3765	3209.9678	3226.8424	3602.9608	3737.264
NC(=O)C1OC1C1CC1	NC(=O)[C@H]1O[C@H]1C1CC1	
InChI=1S/C6H9NO2/c7-6(8)5-4(9-5)3-1-2-3/h3-5H,1-2H2,(H2,7,8)	InChI=1S/C6H9NO2/c7-6(8)5-4(9-5)3-1-2-3/h3-5H,1-2H2,(H2,7,8)/t4-,5-/m0/s1
