22
gdb 81430	3.25722	1.42345	1.31277	1.5071	85.55	-0.222	0.0958	0.3178	1102.7423	0.195708	-367.161843	-367.153787	-367.152843	-367.193695	33.275	
C	-0.0334082785	 1.6271226854	 0.0060196758	-0.442581
C	-0.0167669201	 0.1002148794	 0.0067444479	 0.038677
C	 1.0805169884	-0.60901221	-0.8464563584	 0.000882
C	 2.0565306861	-0.321092027	 0.3315703698	-0.225233
C	 0.7490299092	-0.622580844	 1.1543318555	-0.106426
C	 0.6205014433	-2.1212584149	 0.8024832987	 0.337412
C	 1.3166479699	-3.1246505042	 1.6888281117	-0.46624
C	-0.3937018254	-2.5612970562	-0.1944053033	-0.309575
N	 0.9266598348	-2.0941817341	-0.6639653008	-0.148261
H	 0.9412359644	 2.0852934565	 0.1875847062	 0.119517
H	-0.3966671141	 1.9989616448	-0.9586993117	 0.11722
H	-0.7189204223	 1.9979719705	 0.776200801	 0.116323
H	-1.0458001308	-0.2224587807	-0.157625349	 0.061401
H	 1.2898203012	-0.3354579636	-1.8812275253	 0.066489
H	 2.8917166918	-1.0159523384	 0.4381434505	 0.10318
H	 2.4094761817	 0.7065958386	 0.4001760173	 0.097367
H	 0.6333907349	-0.3398710297	 2.2016901375	 0.05808
H	 0.7338312778	-3.3089313216	 2.5988743895	 0.114053
H	 1.4450270382	-4.0770325442	 1.167204202	 0.125841
H	 2.3080124359	-2.7709357602	 1.9925941603	 0.11627
H	-0.5219799045	-3.6329439358	-0.3269519636	 0.109482
H	-1.2953265821	-1.9978389407	-0.4004321915	 0.116124
171.3027	186.4013	204.8131	234.044	291.4384	345.9441	422.4773	464.3743	513.8917	544.6127	596.2136	723.7087	758.9634	787.0007	827.8327	834.3798	878.0646	885.1091	926.3915	954.7864	1015.4882	1023.9018	1029.2648	1048.9271	1077.0096	1087.3255	1102.9406	1112.5711	1120.9254	1133.2986	1157.513	1203.4371	1222.1066	1249.3993	1260.1018	1270.3949	1301.6254	1351.9365	1410.2619	1415.228	1416.8947	1485.0503	1491.423	1494.2489	1499.9629	1517.8284	1522.6167	3027.454	3032.9309	3081.4866	3083.9446	3087.3571	3088.3865	3104.2968	3110.4423	3113.3792	3119.4779	3124.1882	3154.2322	3204.8443
CC1C2CC1C1(C)CN21	C[C@H]1[C@H]2C[C@@H]1[C@@]1(C)CN21	
InChI=1S/C8H13N/c1-5-6-3-7(5)9-4-8(6,9)2/h5-7H,3-4H2,1-2H3	InChI=1S/C8H13N/c1-5-6-3-7(5)9-4-8(6,9)2/h5-7H,3-4H2,1-2H3/t5-,6+,7-,8-,9?/m1/s1
