15
gdb 34336	3.04431	1.60516	1.30862	2.323	70.81	-0.2502	0.0179	0.2681	965.8242	0.11133	-420.509738	-420.502572	-420.501628	-420.541183	28.308	
C	-0.034667503	-1.2261724029	-0.0017171511	-0.37504
C	-0.0095343269	-0.0231998191	-0.0007563983	 0.169124
C	 0.0033267326	 1.4093199773	 0.0213109361	 0.082266
C	-0.3701791529	 2.2266054978	-1.2513168676	-0.116567
O	 0.875890653	 2.9646031622	-1.2034141879	-0.274024
C	 1.3030861704	 2.2774267177	-0.0278044299	 0.029377
C	 0.8948207897	 2.9251083027	 1.3276685064	 0.00909
O	-0.4018363798	 3.504652686	 1.1554902853	-0.221946
C	-0.3307678417	 2.105661333	 1.3832743867	-0.060997
H	-0.0510169194	-2.2879555036	-0.012110507	 0.192884
H	-0.433878871	 1.6144702562	-2.1561262274	 0.114842
H	-1.2409204231	 2.8800508298	-1.1574173744	 0.121967
H	 2.3071206696	 1.8516984907	-0.0848724496	 0.097522
H	 1.5216284454	 3.3387192965	 2.109168419	 0.115423
H	-0.8876397629	 1.6863486057	 2.2128954797	 0.11608
135.1298	151.0261	239.4783	303.4729	410.2808	483.2934	495.0021	530.8211	619.5465	646.4754	675.1456	718.5462	815.2419	844.8424	850.2435	891.1854	909.7659	992.7175	1003.3233	1016.7218	1027.3805	1059.1395	1117.438	1153.087	1167.7228	1202.0418	1235.9753	1281.9499	1293.3609	1353.614	1373.591	1499.809	2233.4371	3047.367	3096.7748	3112.7654	3181.8794	3197.7249	3501.0696
C#CC12COC1C1OC21	C#C[C@]12CO[C@H]1[C@H]1O[C@@H]21	
InChI=1S/C7H6O2/c1-2-7-3-8-5(7)4-6(7)9-4/h1,4-6H,3H2	InChI=1S/C7H6O2/c1-2-7-3-8-5(7)4-6(7)9-4/h1,4-6H,3H2/t4-,5+,6-,7+/m1/s1
