18
gdb 48595	2.1835	1.90692	1.32591	2.5763	77.25	-0.2403	-0.0386	0.2017	1011.9603	0.147966	-401.871448	-401.863623	-401.862679	-401.90404	30.048	
O	-0.5917756782	 0.9651381763	-0.7701711797	-0.258589
C	 0.2622989159	 0.9662104746	 0.0862820516	 0.029135
C	 1.4351870612	 1.8775675897	 0.0609015399	 0.150135
C	 1.7437804959	 3.0524638521	 1.065172904	-0.26654
C	 2.9036386533	 3.0820856614	 0.0212459154	-0.126115
C	 2.9597900286	 1.527368214	 0.158158959	-0.267642
C	 1.8247620182	 2.8598087704	-1.0549042282	 0.421288
C	 1.7902721099	 2.7803728491	-2.5180267536	-0.356452
N	 1.0359452026	 3.8346485185	-1.7663891683	-0.413118
H	 0.19994343	 0.2772435951	 0.9589376794	 0.08105
H	 1.0447352186	 3.8902652465	 1.0488817706	 0.118939
H	 2.0124825124	 2.7560031302	 2.0821548376	 0.099039
H	 3.7453683304	 3.7724856081	-0.0073979915	 0.088462
H	 3.3035502421	 1.1439008584	 1.1216014626	 0.100391
H	 3.3777675093	 0.9672126574	-0.6809471593	 0.108494
H	 2.6148301043	 3.1591565733	-3.1158534045	 0.119434
H	 1.2172866653	 1.9789698603	-2.9755480706	 0.128827
H	 0.0526645703	 3.5724306747	-1.7345812544	 0.243262
67.4891	127.3873	209.6411	227.7465	313.4593	355.8915	442.0841	478.3038	610.6712	623.1536	732.5141	779.846	816.5419	893.5889	903.5375	916.0926	944.0039	977.603	979.4145	1012.5121	1020.4218	1060.4542	1069.4611	1081.4233	1128.3741	1146.7306	1156.7824	1198.4685	1209.7303	1211.7391	1248.7966	1269.9221	1317.5705	1419.4072	1444.9129	1490.1127	1512.5232	1545.8984	1798.7488	2874.9902	3061.7571	3064.6798	3110.6345	3129.3001	3133.6856	3140.1463	3198.7713	3492.4539
O=CC12CC(C1)C21CN1	O=C[C@@]12C[C@@H](C1)[C@]12CN1	
InChI=1S/C7H9NO/c9-4-6-1-5(2-6)7(6)3-8-7/h4-5,8H,1-3H2	InChI=1S/C7H9NO/c9-4-6-1-5(2-6)7(6)3-8-7/h4-5,8H,1-3H2/t5-,6+,7-/m0/s1
