15
gdb 28371	3.29026	1.42548	1.00161	2.1184	75.06	-0.2132	-0.0453	0.1679	1127.615	0.113048	-454.018785	-454.010688	-454.009744	-454.051327	30.313	
C	-0.0141203255	 1.4705662372	 0.1010659075	-0.470127
C	-0.009048288	-0.0106485487	-0.0795509877	 0.399519
N	-0.0918900453	-0.5915224093	-1.2165770965	-0.298565
C	-0.0870754984	-1.9695207108	-1.2388651305	-0.100061
C	-0.006656451	-2.7320029669	-0.113489357	 0.138907
N	-0.0622673353	-4.1069855341	-0.0360387446	-0.581442
C	 0.1145960783	-2.0509899355	 1.1742055026	 0.412726
O	 0.2364677559	-2.5954080091	 2.2430012083	-0.360978
O	 0.0959567617	-0.6734737433	 1.1099315474	-0.227096
H	 0.9011622228	 1.800372642	 0.6036732525	 0.149117
H	-0.0906922295	 1.9507986696	-0.8736873832	 0.153616
H	-0.856459043	 1.7783591652	 0.7295788131	 0.149855
H	-0.1585995074	-2.424838919	-2.2223976548	 0.107335
H	 0.2295526956	-4.6248932581	-0.8499523191	 0.256202
H	 0.275073299	-4.4735568893	 0.8430586721	 0.270994
109.3046	137.5552	169.7944	288.6321	317.0755	345.2675	380.0457	426.2673	483.8062	545.0492	554.8916	577.2542	656.1522	732.6978	779.2147	796.0368	912.5539	971.6559	1022.1812	1062.1126	1099.9794	1119.8303	1243.9447	1254.0563	1348.2651	1409.4263	1444.5462	1473.1067	1473.7166	1606.6939	1647.0568	1685.1296	1822.0758	3044.399	3099.2972	3165.9158	3168.7169	3566.2121	3682.6192
CC1=NC=C(N)C(=O)O1	Cc1ncc(N)c(=O)o1	
InChI=1S/C5H6N2O2/c1-3-7-2-4(6)5(8)9-3/h2H,6H2,1H3	InChI=1S/C5H6N2O2/c1-3-7-2-4(6)5(8)9-3/h2H,6H2,1H3
