19
gdb 70253	3.71623	1.08738	0.95191	2.656	79.7	-0.2572	0.0276	0.2848	1258.2115	0.161146	-382.084915	-382.076645	-382.075701	-382.117642	31.878	
C	-0.0869283658	 1.4951244454	 0.0254336697	-0.467368
C	-0.04312132	-0.0115325296	 0.0598884608	 0.335156
C	-1.2745359775	-0.7818664212	-0.4033074008	-0.284318
C	-1.0546398469	-2.2372949088	 0.1035122078	-0.182467
C	-0.1593631423	-2.0901985001	 1.3709712435	-0.242737
C	 0.628691281	-0.8179780947	 1.1201134277	-0.057916
N	 1.2698080168	-0.6320142898	-0.1911851411	-0.370652
C	-2.2969062623	-2.9589760673	 0.3520254908	 0.267084
N	-3.2846130063	-3.5244534356	 0.5548991576	-0.322749
H	 0.8481655685	 1.9110227787	 0.4074248628	 0.133904
H	-0.221174535	 1.8588880366	-0.9995626714	 0.12284
H	-0.9165305205	 1.8788979857	 0.6292620088	 0.118477
H	-2.1674508037	-0.3517314867	 0.0628829749	 0.127982
H	-1.4262188964	-0.7488322623	-1.4871144304	 0.119403
H	-0.5090098222	-2.8052761392	-0.6573809657	 0.128805
H	-0.7820471004	-1.9658434454	 2.2632233306	 0.130432
H	 0.465056958	-2.9750640279	 1.5280430903	 0.122382
H	 1.151892115	-0.3622412023	 1.9559882031	 0.096565
H	 1.20829221	-1.4657083555	-0.7706552988	 0.225178
97.6192	150.8206	192.1965	221.5748	285.224	312.9439	379.9047	410.548	525.6691	546.1178	568.8276	617.2349	717.9687	815.4287	853.1861	884.8473	902.8241	950.7021	983.9896	1032.1471	1040.4374	1041.6561	1079.7918	1087.7097	1133.2062	1174.0587	1183.6789	1237.1093	1273.5341	1297.5306	1301.9057	1321.945	1334.717	1366.6232	1412.7319	1442.8292	1485.9586	1486.6574	1494.3398	1502.9237	2357.3679	3031.9577	3047.2068	3049.1184	3051.7133	3088.7703	3092.8371	3095.4639	3126.0651	3151.4871	3493.9087
CC12CC(CC1N2)C#N	C[C@]12C[C@@H](C[C@H]1N2)C#N	
InChI=1S/C7H10N2/c1-7-3-5(4-8)2-6(7)9-7/h5-6,9H,2-3H2,1H3	InChI=1S/C7H10N2/c1-7-3-5(4-8)2-6(7)9-7/h5-6,9H,2-3H2,1H3/t5-,6-,7+/m1/s1
