15
gdb 8844	4.77866	1.23173	0.99149	2.1962	60.09	-0.2744	-0.0434	0.231	1103.8107	0.11719	-436.983263	-436.974626	-436.973682	-437.016875	29.652	
C	 0.003828374	 1.4929079082	 0.0175096614	-0.362275
N	-0.0154276739	 0.0314378163	-0.0448059618	-0.145356
C	-0.0331902992	-0.6866654449	 1.1592252255	 0.173119
O	-0.0334626002	-0.1618203461	 2.2440048892	-0.306127
C	-0.0166590029	-0.6649043187	-1.2476443572	 0.404662
O	-0.0329196036	-1.8800035157	-1.3090572865	-0.362983
C	 0.0035529037	 0.1514254984	-2.5377075293	-0.149417
O	-0.0004264826	-0.6974989629	-3.6423697709	-0.418356
H	 0.9038724373	 1.8960553987	-0.4539274367	 0.146891
H	-0.8787603025	 1.9200258509	-0.465681553	 0.146896
H	 0.0004867694	 1.761895937	 1.0730169679	 0.182188
H	-0.0465818125	-1.7695849896	 0.985909909	 0.145912
H	-0.8696875503	 0.8235576752	-2.5491530227	 0.122682
H	 0.895055282	 0.7992465608	-2.5368468245	 0.122693
H	-0.0154568586	-1.5962320077	-3.2745181404	 0.299471
72.0079	91.4144	146.6223	188.5702	204.6331	318.405	339.5108	364.2773	414.7381	417.5532	549.6209	566.5231	759.3105	839.0486	971.2543	1026.2404	1056.462	1108.2955	1153.1974	1159.3398	1260.8693	1280.0254	1308.3588	1341.1788	1419.2642	1452.4479	1465.4787	1497.859	1505.4081	1507.7992	1771.1748	1816.5452	2977.1017	2994.6907	3052.7337	3079.2033	3117.7781	3167.1648	3678.4874
CN(C=O)C(=O)CO	CN(C=O)C(=O)CO	
InChI=1S/C4H7NO3/c1-5(3-7)4(8)2-6/h3,6H,2H2,1H3	InChI=1S/C4H7NO3/c1-5(3-7)4(8)2-6/h3,6H,2H2,1H3
