17
gdb 107525	2.22204	1.5734	1.11889	2.2095	74.39	-0.2357	0.0151	0.2508	1122.6444	0.132903	-421.724568	-421.715725	-421.714781	-421.758274	32.699	
C	 0.167806751	 1.3311137506	-0.2169448773	-0.258074
O	-0.235137967	 0.0150829932	 0.1489970769	-0.278587
C	 0.5391975914	-0.5442202864	 1.1279439794	 0.355889
C	 1.9538748232	-1.0458388228	 0.9281325658	-0.36408
C	 0.8703138204	-1.9795267907	 1.405488718	 0.009975
O	 0.6718700613	-1.8378698307	 2.8163255473	-0.292195
C	 0.2299005587	-0.4535414443	 2.6391217521	-0.123357
C	 0.932927427	 0.5110743039	 3.4633426318	 0.330887
C	 1.5118837276	 1.3258674127	 4.1316004777	-0.448417
H	 1.2036515302	 1.3415049246	-0.5799301773	 0.118538
H	-0.5015881892	 1.6532210632	-1.0168267564	 0.131708
H	 0.0830283103	 2.0264220202	 0.6279256131	 0.125499
H	 2.217419856	-1.1669495333	-0.1185928445	 0.122051
H	 2.7630949316	-0.7638189638	 1.595205787	 0.128226
H	 0.5805158165	-2.9122398962	 0.9385477665	 0.119843
H	-0.8528595529	-0.3974816255	 2.8034807443	 0.118454
H	 2.0227504539	 2.0415737154	 4.7275750152	 0.20364
82.9001	105.8906	135.2885	168.7751	227.9803	312.242	355.2671	408.7641	439.1988	519.0151	554.3381	621.5549	673.8634	692.606	727.5189	874.2072	899.6239	937.5726	992.8835	995.558	1016.0493	1029.794	1061.0449	1075.6148	1112.8701	1180.441	1198.5801	1221.0549	1233.1319	1273.8069	1349.2412	1391.4316	1462.6103	1487.5882	1501.321	1507.2732	2233.153	3007.0405	3039.2663	3067.07	3118.3005	3131.5577	3199.1614	3214.9871	3500.4487
COC12CC1OC2C#C	CO[C@]12C[C@H]1O[C@H]2C#C	
InChI=1S/C7H8O2/c1-3-5-7(8-2)4-6(7)9-5/h1,5-6H,4H2,2H3	InChI=1S/C7H8O2/c1-3-5-7(8-2)4-6(7)9-5/h1,5-6H,4H2,2H3/t5-,6+,7-/m0/s1
