16
gdb 62331	4.13468	1.27747	1.13843	3.8758	73.14	-0.2344	0.0127	0.2471	1064.237	0.123805	-400.67265	-400.664999	-400.664055	-400.704473	30.149	
O	 0.0412300395	 1.4493239737	-0.1387106157	-0.440812
C	-0.0425523258	 0.0641802096	 0.020285765	 0.218507
C	 1.0186933219	-0.6304006305	-0.7027498235	 0.246072
N	 1.8866019854	-1.1480233988	-1.2648434303	-0.336654
C	-0.457773808	-0.7094387503	 1.2628379406	-0.130287
C	-1.6404114625	-0.1262582432	 2.0792907458	-0.079266
C	-2.2317989389	 1.1607356969	 1.5632464561	-0.303584
C	-2.5106366277	-0.1262289665	 0.8344808184	-0.070871
C	-1.3357849077	-0.7085825873	 0.0040791505	-0.092967
H	 0.8260048379	 1.7567503065	 0.3315012258	 0.296294
H	 0.1768645995	-1.49987163	 1.6434855994	 0.114721
H	-1.8766464286	-0.5200728385	 3.0588439299	 0.101984
H	-3.078076259	 1.4965751938	 2.1566997192	 0.113099
H	-1.6375511518	 1.9506732522	 1.1319378778	 0.143518
H	-3.5096921543	-0.5242070412	 0.7177971875	 0.102656
H	-1.48214929	-1.4995271763	-0.7203084967	 0.117593
123.2498	154.1299	230.4551	277.7894	319.7056	363.4149	464.8794	506.7371	579.0343	583.062	681.2275	695.6236	743.388	782.076	841.0304	877.5328	904.5011	943.0935	987.369	1010.2982	1030.7795	1036.5053	1057.2299	1087.7131	1097.6171	1104.7696	1194.2709	1252.0869	1261.6428	1280.9764	1304.9077	1347.5757	1413.2154	1479.8831	2348.9952	3138.4788	3187.122	3196.2812	3198.3442	3208.1739	3263.4823	3785.4425
OC1(C#N)C2C3CC3C12	O[C@@]1(C#N)[C@H]2[C@H]3C[C@H]3[C@@H]12	
InChI=1S/C7H7NO/c8-2-7(9)5-3-1-4(3)6(5)7/h3-6,9H,1H2	InChI=1S/C7H7NO/c8-2-7(9)5-3-1-4(3)6(5)7/h3-6,9H,1H2/t3-,4+,5-,6+,7-
