12
gdb 50801	6.41598	0.59756	0.55632	4.1296	71.49	-0.2763	-0.0994	0.177	1813.7699	0.074675	-472.632275	-472.62303	-472.622086	-472.668622	29.426	
O	-0.4273898002	 0.1653551262	 0.2466372922	-0.239754
C	-0.0885219677	 1.252404504	-0.1221136354	 0.166181
N	 1.2192402651	 1.7486499292	-0.1408758191	-0.35142
C	 2.3842507721	 1.0829833659	 0.248471685	 0.30596
O	 2.4445660637	-0.0526626837	 0.6419601169	-0.2797
C	 3.5664613674	 1.9287438446	 0.1254662231	-0.037901
C	 4.5780861168	 2.5831229161	 0.0316570039	 0.130051
C	 5.7935795256	 3.3651089357	-0.0498343761	 0.020115
O	 6.2807599927	 3.7357762929	-1.0899304256	-0.208391
H	-0.7880442798	 2.0225555973	-0.5028276747	 0.100218
H	 1.3359846231	 2.6937743441	-0.4796466768	 0.272928
H	 6.2464664512	 3.6004334977	 0.9327854068	 0.121713
35.2982	47.9187	81.7916	116.908	199.8097	217.3722	261.7337	292.8138	368.6256	564.6697	598.4328	614.299	735.0656	761.6951	937.9341	979.5055	1017.2087	1026.6594	1136.6278	1192.2406	1416.4254	1442.7659	1503.5926	1773.637	1790.8367	1865.1069	2311.823	2942.0134	2943.5573	3602.1186
O=CNC(=O)C#CC=O	O=CNC(=O)C#CC=O	
InChI=1S/C5H3NO3/c7-3-1-2-5(9)6-4-8/h3-4H,(H,6,8,9)	InChI=1S/C5H3NO3/c7-3-1-2-5(9)6-4-8/h3-4H,(H,6,8,9)
