19
gdb 77191	3.29393	1.04294	0.89362	0.4026	88.93	-0.252	0.035	0.287	1335.3681	0.156749	-348.682846	-348.673323	-348.672379	-348.717041	36.038	
C	-0.1218421968	 1.5596883951	-0.0428724363	-0.421637
C	 0.0875545952	 0.0593937797	 0.022812834	 0.032426
C	 1.1217485342	-0.6067948564	-0.9439565725	-0.160698
C	 1.4863239665	-1.5979198966	 0.2024945526	-0.241423
C	 0.8592856069	-0.597410247	 1.2293464338	-0.221421
C	 1.8329788512	 0.2633848638	 1.8745830996	 0.356967
C	 2.6484219378	 0.9759466643	 2.3991780556	-0.495071
C	 0.6560583653	-1.1284049087	-2.2106958522	 0.297163
C	 0.2446802935	-1.5713070446	-3.2509802451	-0.443796
H	 0.8193302826	 2.0973551791	 0.1041581566	 0.129302
H	-0.5336519073	 1.8437003054	-1.0171829896	 0.123551
H	-0.8226289878	 1.8957187604	 0.7288437622	 0.11907
H	-0.8670650427	-0.4653488923	-0.0814244141	 0.089061
H	 1.9568720249	 0.0846077798	-1.1039121011	 0.109097
H	 0.8971082306	-2.5146367179	 0.1363139212	 0.115546
H	 2.540109438	-1.8456238603	 0.3309430297	 0.118476
H	 0.2138228385	-1.0530111993	 1.9853587729	 0.102315
H	 3.3646299273	 1.5996901354	 2.8739967203	 0.197707
H	-0.109737298	-1.9596595898	-4.1733453176	 0.193365
62.4798	117.3467	150.5426	181.168	225.8014	239.5523	293.1464	376.8702	443.1796	484.8912	536.9215	586.3768	617.4665	622.8429	626.9226	629.7599	657.776	778.9316	812.1666	883.6659	936.6735	975.671	985.6435	1058.303	1077.9659	1117.5996	1140.1355	1162.0267	1196.1697	1237.8813	1256.4961	1262.0362	1328.0647	1359.7193	1381.253	1412.988	1485.8899	1492.6136	1496.988	2228.5761	2231.9581	3033.8079	3042.0394	3059.3947	3067.7354	3082.3868	3099.2491	3114.9509	3145.0771	3502.9839	3504.7463
CC1C(CC1C#C)C#C	C[C@H]1[C@@H](C[C@H]1C#C)C#C	
InChI=1S/C9H10/c1-4-8-6-9(5-2)7(8)3/h1-2,7-9H,6H2,3H3	InChI=1S/C9H10/c1-4-8-6-9(5-2)7(8)3/h1-2,7-9H,6H2,3H3/t8-,9-/m1/s1
