21
gdb 71280	2.59692	1.91671	1.3981	0.2983	86.34	-0.2303	0.0268	0.2571	1011.5081	0.184773	-349.943903	-349.936446	-349.935502	-349.975135	31.473	
C	 0.0333699761	 1.4767041425	-0.0563534483	-0.481569
C	 0.0044571138	-0.0433710263	 0.0304714571	 0.296581
C	 0.3066054963	-0.7693579577	-1.3428015951	-0.275739
C	-1.0579661028	-1.4532028261	-1.2663464793	-0.069839
C	-1.2904348411	-2.1475775332	 0.0593918883	-0.033074
C	-0.2302815278	-2.8169835569	 0.9316224661	-0.298114
C	 0.7254487287	-1.8434193194	 1.5730202329	-0.07502
C	 0.8280867792	-0.576505657	 1.1761845759	-0.091283
C	-1.4208464186	-0.6564062576	-0.0174443768	-0.110333
H	 1.055416437	 1.8408394401	-0.212761114	 0.112573
H	-0.5843074146	 1.8377405425	-0.885118013	 0.111998
H	-0.3457215439	 1.9301487108	 0.8669971446	 0.114706
H	 0.359957209	-0.0510735238	-2.166235751	 0.096474
H	 1.1940602992	-1.4091772535	-1.3744471159	 0.091818
H	-1.6804768564	-1.6893346349	-2.1218271475	 0.077359
H	-2.2482643144	-2.6620386294	 0.0710414818	 0.082975
H	-0.7319693523	-3.39228644	 1.7214397819	 0.104481
H	 0.3306433141	-3.563006309	 0.3493343565	 0.111516
H	 1.3379476344	-2.2192563956	 2.388690065	 0.083399
H	 1.5326052586	 0.0985344519	 1.6569567586	 0.076022
H	-2.3268066745	-0.1170627978	 0.2346038721	 0.075071
147.2827	242.3928	263.2792	299.4163	332.661	400.2504	478.1005	489.3281	574.3414	613.4284	707.1114	726.351	764.3889	816.5632	866.8062	872.7338	900.8208	925.7441	961.8971	975.0452	983.3574	988.7521	1003.9454	1026.7497	1043.3413	1073.9996	1125.5447	1155.5629	1163.2126	1170.5256	1220.6263	1229.9015	1250.0659	1258.7503	1299.6208	1333.5606	1354.5792	1405.663	1415.0291	1428.1192	1473.2416	1491.4622	1492.6309	1499.2789	1713.9952	2997.1031	3020.6921	3024.6999	3041.8202	3085.7343	3091.8849	3097.5156	3136.6698	3140.4001	3165.2234	3166.2807	3178.2715
CC12CC3C(CC=C1)C23	C[C@@]12C[C@H]3[C@@H](CC=C1)[C@@H]23	
InChI=1S/C9H12/c1-9-4-2-3-6-7(5-9)8(6)9/h2,4,6-8H,3,5H2,1H3	InChI=1S/C9H12/c1-9-4-2-3-6-7(5-9)8(6)9/h2,4,6-8H,3,5H2,1H3/t6-,7+,8-,9+/m1/s1
