18
gdb 120589	3.27484	0.90588	0.87246	2.9984	75.08	-0.2577	0.0102	0.2679	1417.3461	0.144823	-439.067816	-439.057991	-439.057047	-439.103047	35.067	
C	 0.0192701375	 1.3751396577	 0.1690535303	-0.387404
C	-0.1473353228	-0.0986233168	 0.4886676341	-0.045921
O	 1.1403454054	-0.6272591994	 0.8181203821	-0.24029
C	 1.1293267875	-1.9721041789	 1.0973124103	 0.097697
C	 2.1993076274	-2.4790932338	 2.0054998368	-0.380006
C	 0.7629903273	-2.4161956168	 2.5211802124	 0.202467
O	 0.403871379	-1.3940080935	 3.3944938075	-0.433685
C	 0.0370754499	-3.6550330972	 2.6816147488	 0.239275
N	-0.5429470484	-4.6481191771	 2.811642266	-0.343995
H	 0.7044174494	 1.5135324959	-0.6720425158	 0.128031
H	-0.9471657658	 1.8151192459	-0.0935043832	 0.120437
H	 0.4212646022	 1.9105127619	 1.0335358464	 0.13234
H	-0.8295428647	-0.2459867524	 1.3353929204	 0.119231
H	-0.5574891043	-0.6438307118	-0.375617166	 0.09443
H	 0.7769261302	-2.6226658917	 0.2956469948	 0.112815
H	 2.6463093267	-3.4475430185	 1.8160279896	 0.141379
H	 2.8531230564	-1.7215543203	 2.4230740626	 0.143569
H	 0.7624444271	-1.5946485932	 4.266645253	 0.299631
57.4331	86.9096	107.196	159.7364	220.1133	237.2725	271.4178	288.3434	355.7408	376.0623	466.4522	526.5027	582.3045	602.5073	726.9042	802.5815	822.6656	862.1425	908.8087	935.6018	1047.872	1063.3426	1078.3123	1125.5997	1149.3944	1185.0384	1210.4238	1239.8125	1260.9013	1300.5212	1350.841	1383.3536	1406.6554	1435.7386	1475.6332	1483.4776	1500.0588	1523.728	2341.0765	2986.8439	3046.7383	3047.6751	3098.3505	3122.7941	3125.3767	3144.874	3244.4269	3794.4111
CCOC1CC1(O)C#N	CCO[C@H]1C[C@]1(O)C#N	
InChI=1S/C6H9NO2/c1-2-9-5-3-6(5,8)4-7/h5,8H,2-3H2,1H3	InChI=1S/C6H9NO2/c1-2-9-5-3-6(5,8)4-7/h5,8H,2-3H2,1H3/t5-,6-/m0/s1
