16
gdb 71872	3.08087	1.60234	1.28869	1.9208	68.86	-0.2221	-0.0162	0.2059	972.0791	0.125136	-437.853903	-437.846899	-437.845955	-437.885119	28.212	
O	-0.1357596395	 1.3913240461	-0.0268491068	-0.452861
C	 0.0389465137	 0.0300902722	-0.0411933069	 0.378023
C	 0.8425781368	-0.7881873218	-1.0372972112	-0.255866
N	-0.1274580015	-1.9327586409	-0.8280042597	-0.1211
C	 0.4226146124	-2.8753646418	 0.1595034553	-0.292056
C	 0.5541768257	-2.06976329	 1.4705762679	 0.393772
O	 1.1473724741	-2.3938706612	 2.4690967423	-0.328605
C	-0.2396759764	-0.8251067443	 1.2353795264	-0.246646
C	-1.021169952	-1.0075605109	-0.0542151603	-0.100801
H	 0.6233594723	 1.7974419256	 0.4071931629	 0.296472
H	 0.7528191187	-0.4021631736	-2.0565046851	 0.125094
H	 1.891309447	-1.0160492111	-0.8159151411	 0.108618
H	-0.2788524414	-3.7040215777	 0.3145446694	 0.132839
H	 1.3765715179	-3.2962617489	-0.1661417833	 0.13316
H	-0.6469840739	-0.2650390979	 2.0674465575	 0.115603
H	-2.0962429337	-0.9813436637	-0.1740938573	 0.114354
127.637	207.4214	297.9187	334.6025	428.1966	437.5307	467.5237	530.5387	601.4574	609.9549	710.6792	732.1836	817.3525	857.1636	891.2026	917.4798	943.6569	997.2181	1015.2745	1016.068	1042.1399	1088.4939	1138.7847	1162.6441	1186.425	1227.1228	1240.787	1256.0501	1269.2572	1295.1755	1320.0317	1454.4773	1462.9315	1511.922	1832.5543	3036.3225	3041.8508	3098.2998	3115.0564	3202.0151	3211.2233	3793.836
OC12CN3CC(=O)C1C23	O[C@@]12CN3CC(=O)[C@@H]1[C@@H]23	
InChI=1S/C6H7NO2/c8-3-1-7-2-6(9)4(3)5(6)7/h4-5,9H,1-2H2	InChI=1S/C6H7NO2/c8-3-1-7-2-6(9)4(3)5(6)7/h4-5,9H,1-2H2/t4-,5+,6+/m1/s1
