12
gdb 19223	3.23168	2.0475	1.45754	6.2164	59.98	-0.2648	-0.0469	0.2179	816.5125	0.084044	-377.493135	-377.486539	-377.485594	-377.524216	24.	
O	-0.077691258	 0.0072005123	-0.1009249119	-0.274861
C	-0.0965521893	 1.1881922497	 0.0221263112	 0.452881
C	-1.1367681735	 2.2719939602	-0.094459787	-0.184486
N	-0.9290814623	 3.1345991933	 1.118482352	-0.307391
C	-0.062322717	 3.3249102072	-0.0378406392	-0.052498
C	 1.0618576209	 2.2818945572	 0.1019104862	-0.286696
C	 1.928146673	 2.3443969752	 1.2617833014	 0.302676
N	 2.6261921793	 2.3896139063	 2.1819140699	-0.322636
H	-2.087725119	 2.2498971719	-0.6094583495	 0.134083
H	-1.6639502875	 3.8413785434	 1.0945083648	 0.253917
H	-0.0083811281	 4.2525459669	-0.5906320214	 0.130755
H	 1.6551072215	 2.1836258364	-0.8135014665	 0.154256
111.1662	143.467	190.5797	383.269	392.6233	527.3414	564.4698	621.4984	701.2247	792.1301	826.1214	861.0606	893.0969	952.1282	971.6687	1036.6198	1059.5195	1097.2604	1103.3925	1151.2068	1237.5076	1310.4188	1334.7501	1353.7965	1922.6659	2359.604	3072.1685	3213.3792	3224.2312	3482.7124
O=C1C2NC2C1C#N	O=C1[C@H]2N[C@H]2[C@H]1C#N	
InChI=1S/C5H4N2O/c6-1-2-3-4(7-3)5(2)8/h2-4,7H	InChI=1S/C5H4N2O/c6-1-2-3-4(7-3)5(2)8/h2-4,7H/t2-,3+,4+/m1/s1
