21
gdb 108795	2.95114	1.15895	1.02696	1.3656	80.34	-0.214	0.0627	0.2767	1289.7644	0.182398	-420.435198	-420.425529	-420.424585	-420.469412	36.022	
C	 0.0176634772	 1.3555486854	-0.0199506412	-0.232753
O	-0.0483794482	-0.060349281	 0.1666590923	-0.265305
C	-1.2774231137	-0.5805284163	 0.1154475395	 0.469385
N	-2.3654437254	 0.0544272963	-0.0920469576	-0.399067
C	-3.4468734194	-0.9570267037	-0.0315776429	 0.308381
C	-4.198326151	-0.7941148543	 1.2995269251	-0.403302
C	-4.4006691933	-0.7817470911	-1.2145906389	-0.414953
C	-2.6956481703	-2.3325103424	-0.0809081913	-0.217435
N	-1.3498047776	-1.9462039835	 0.3508670993	-0.366188
H	 1.075030848	 1.6145711285	 0.0452503391	 0.12685
H	-0.3877965443	 1.6351543235	-0.9961497239	 0.13857
H	-0.5537409437	 1.8722506574	 0.7556971355	 0.140285
H	-4.5931856357	 0.2220303712	 1.3854925181	 0.119942
H	-5.0340426904	-1.4996347977	 1.3698189153	 0.102003
H	-3.5263510043	-0.9702965276	 2.1451489187	 0.118049
H	-3.8558954397	-0.8393332368	-2.1616026289	 0.109051
H	-5.175890427	-1.5565501788	-1.2126825815	 0.104505
H	-4.8915078886	 0.1946279534	-1.166416274	 0.120812
H	-3.1342465526	-3.0763078424	 0.5907662558	 0.106241
H	-2.6924993456	-2.7455607725	-1.0996461606	 0.093275
H	-0.5612328145	-2.5005894377	 0.049457232	 0.241654
97.0527	107.3075	138.1646	199.0015	226.9465	232.2244	269.0549	323.3115	336.9488	397.881	485.411	503.2109	536.0206	604.7251	714.5526	732.839	813.4302	914.9786	925.0487	957.0597	984.1306	1014.0405	1034.6709	1053.152	1101.0325	1180.6611	1184.1235	1201.6398	1225.1409	1226.6916	1266.8748	1306.1175	1348.4882	1393.389	1411.844	1451.2868	1475.8431	1478.176	1485.4353	1492.2504	1496.2115	1504.4776	1506.7975	1532.2342	1711.3525	2996.4683	3027.5836	3033.1397	3046.9111	3073.8541	3098.1032	3102.673	3112.9185	3117.4649	3120.4933	3151.8932	3600.8037
COC1=NC(C)(C)CN1	CO[C]1[N]C(C)(C)CN1	
InChI=1S/C6H12N2O/c1-6(2)4-7-5(8-6)9-3/h4H2,1-3H3,(H,7,8)	InChI=1S/C6H12N2O/c1-6(2)4-7-5(8-6)9-3/h4H2,1-3H3,(H,7,8)
