19
gdb 104467	1.73218	1.56879	1.14833	3.5455	72.75	-0.248	-0.0235	0.2245	1180.4737	0.156416	-460.15234	-460.142197	-460.141252	-460.18732	36.375	
C	-0.1015759885	 1.350550023	-0.1839958739	-0.43274
C	 0.1612067179	-0.1246803038	 0.0158494181	-0.090716
C	 1.5450954334	-0.6818042095	 0.0714525848	 0.052935
O	 2.6531223151	 0.1745104145	 0.1309597695	-0.427814
C	 0.7055958804	-0.6971052058	 1.3429178392	 0.163416
C	 1.1391345268	 0.18929841	 2.4968532132	-0.161556
O	 2.3832273221	-0.2230840211	 3.0380169382	-0.428834
C	 0.1845631107	-2.0403536148	 1.7175646092	 0.094693
O	-0.1723912805	-2.8786714453	 0.9217696418	-0.279529
H	 0.7540531692	 1.9595551973	 0.1148326428	 0.131433
H	-0.2980737889	 1.5508330474	-1.2430759261	 0.123818
H	-0.9772289426	 1.6852813814	 0.3805845838	 0.130177
H	-0.5616124506	-0.7962543104	-0.440498739	 0.115536
H	 1.7291250071	-1.6519952156	-0.3865796139	 0.11628
H	 2.8574973378	 0.4822230038	-0.758385722	 0.300467
H	 1.1613783714	 1.2426808139	 2.1962011979	 0.098466
H	 0.4126437739	 0.1035914864	 3.3134766023	 0.109473
H	 3.0323387958	-0.1059117351	 2.3340122591	 0.296811
H	 0.1433554995	-2.2343561165	 2.8113094551	 0.087684
83.4804	101.3855	143.8479	182.7331	198.3934	211.156	221.1791	241.0617	302.7544	322.4257	438.604	485.2678	514.1419	602.4219	689.1095	747.4688	772.7365	855.177	929.6638	989.9601	1009.2332	1049.652	1063.7948	1082.0015	1121.0743	1134.4604	1172.5949	1203.8871	1257.8083	1288.9995	1306.5546	1371.9381	1391.3061	1418.9808	1425.6372	1434.9688	1443.3723	1497.9587	1499.9899	1511.385	1799.1938	2898.2902	3032.2119	3039.5348	3068.9847	3096.3349	3124.4146	3127.1814	3150.7535	3794.6513	3808.4969
CC1C(O)C1(CO)C=O	C[C@H]1[C@@H](O)[C@]1(CO)C=O	
InChI=1S/C6H10O3/c1-4-5(9)6(4,2-7)3-8/h2,4-5,8-9H,3H2,1H3	InChI=1S/C6H10O3/c1-4-5(9)6(4,2-7)3-8/h2,4-5,8-9H,3H2,1H3/t4-,5+,6-/m0/s1
