18
gdb 30940	2.29833	1.41174	0.92723	4.283	77.25	-0.2092	0.026	0.2351	1282.1896	0.146615	-439.125927	-439.116841	-439.115896	-439.160076	33.029	
C	-0.3291317814	 1.6385427608	-0.1790973783	-0.374879
C	 0.0415244347	 0.1575635249	 0.0138171182	-0.299761
C	 0.8430769232	-0.3954608396	-1.1069256737	 0.248323
C	 2.0696105508	-0.9065809697	-1.2202398319	 0.205077
C	 3.1809575633	-1.164503238	-0.2763750894	-0.495132
O	 2.2778726756	-1.2572796261	-2.5546662074	-0.249087
C	 1.1349752707	-0.9364826717	-3.2413849512	 0.4857
N	 0.893257803	-1.082802385	-4.4665121956	-0.584151
O	 0.2415508898	-0.4057874308	-2.3634929977	-0.232312
H	 0.567893443	 2.2627860632	-0.2299782134	 0.122749
H	-0.8912907996	 1.7781199523	-1.1059073596	 0.145126
H	-0.9460989941	 1.9898425008	 0.6527006267	 0.11873
H	 0.6096669581	 0.0244628952	 0.9398881061	 0.115507
H	-0.8765159028	-0.4349124241	 0.1203537367	 0.127871
H	 3.4399792668	-2.229081416	-0.2535476498	 0.146978
H	 4.0824453182	-0.6132161949	-0.5668547976	 0.146686
H	 2.9000176611	-0.8571061397	 0.7330755314	 0.140201
H	 1.6931212097	-1.4968173415	-4.9378788034	 0.232374
67.9851	119.4948	163.3514	182.3244	192.3689	255.4161	262.4527	320.9973	413.5577	537.2861	606.0357	631.0427	662.6666	735.4771	774.5698	783.0702	811.3103	940.182	969.6274	976.4305	1014.3055	1064.6613	1067.1845	1085.3156	1140.012	1237.173	1267.5991	1301.4349	1343.4253	1370.8048	1409.3734	1422.959	1467.1629	1472.1019	1491.4637	1495.5574	1508.1386	1774.8819	1822.2945	3026.3044	3032.7874	3045.9462	3081.2712	3084.0207	3117.5885	3128.9854	3132.6393	3545.414
CCC1=C(C)OC(=N)O1	CCC1=C(C)O[C@@H]([NH])O1	
InChI=1S/C6H9NO2/c1-3-5-4(2)8-6(7)9-5/h7H,3H2,1-2H3	InChI=1S/C6H10NO2/c1-3-5-4(2)8-6(7)9-5/h6-7H,3H2,1-2H3/t6-/m1/s1
