16
gdb 45062	2.63194	1.88893	1.29329	3.1517	68.69	-0.2603	-0.0058	0.2545	964.0266	0.125974	-437.885553	-437.878535	-437.877591	-437.917008	27.619	
O	 0.041474763	 0.0918017452	-0.5099543175	-0.355347
C	 0.0357912386	 1.2057409432	-0.0671381396	 0.394723
O	-1.0867680191	 1.8160672454	 0.4054486533	-0.225371
C	-0.8040984315	 3.1518965071	 0.8010164941	 0.08643
C	 0.0561232817	 3.328759655	 2.0132708435	-0.325625
C	 0.6657902116	 3.4264339761	 0.6236051827	-0.164989
C	 1.2039185413	 2.1532985672	 0.0527763459	 0.194706
C	 2.5550599554	 1.5606269186	 0.2559354729	-0.271019
N	 2.1937225867	 2.1566876663	-1.0318209892	-0.357247
H	-1.603402747	 3.8323416494	 0.5394087725	 0.122662
H	-0.0534258209	 4.2527071155	 2.5701180077	 0.128728
H	 0.2717080416	 2.4521966891	 2.6161161206	 0.132421
H	 1.042630182	 4.369461794	 0.2502471269	 0.119486
H	 3.2842081063	 2.1206511856	 0.8340673403	 0.129663
H	 2.6139095117	 0.4785031308	 0.3297396169	 0.139196
H	 1.9521263784	 1.4145132215	-1.6881110212	 0.251581
106.7015	196.4349	258.0157	266.8357	385.209	470.759	488.5089	568.3825	699.3226	726.7785	758.2232	802.5292	818.2845	880.0246	909.5405	948.8227	979.5067	994.8121	1008.8207	1044.5174	1065.1918	1088.0802	1108.3458	1113.2895	1144.0118	1164.3776	1194.227	1271.6262	1300.3766	1325.3251	1378.6043	1424.2097	1473.1055	1498.9483	1868.7993	3114.443	3131.8768	3200.8268	3206.7235	3210.5628	3225.503	3475.6329
O=C1OC2CC2C11CN1	O=C1O[C@H]2C[C@H]2[C@]21CN2	
InChI=1S/C6H7NO2/c8-5-6(2-7-6)3-1-4(3)9-5/h3-4,7H,1-2H2	InChI=1S/C6H7NO2/c8-5-6(2-7-6)3-1-4(3)9-5/h3-4,7H,1-2H2/t3-,4+,6+/m1/s1
