15
gdb 47123	3.38743	1.16109	0.87392	3.9931	77.43	-0.2491	-0.036	0.213	1241.4978	0.111726	-420.637535	-420.629246	-420.628302	-420.671866	29.911	
O	 0.0123516483	 0.213199537	 0.8268168645	-0.321025
C	 0.0041222336	 1.2264467998	 0.1845469746	 0.412718
C	-1.2856457175	 1.9789950532	-0.1010144184	-0.458474
C	-1.1569346504	 3.239270584	-0.9204585898	 0.131243
C	 0.0414497886	 3.6405833279	-1.3539092429	-0.168516
C	 1.3014651205	 2.8989853749	-1.0710493476	-0.111802
O	 1.1747373644	 1.7056616211	-0.2943834025	-0.224942
C	-2.3532534172	 3.9558012007	-1.1970584995	 0.221209
C	-3.3986386268	 4.5191172098	-1.3989210949	-0.397108
H	-1.965112274	 1.2699462013	-0.5878785873	 0.161828
H	-1.7478649675	 2.1951497041	 0.8690836235	 0.161832
H	 0.1466626202	 4.5450949358	-1.9438516102	 0.114529
H	 1.7914312936	 2.6118244451	-2.0119570872	 0.138035
H	 2.0114319282	 3.5473310354	-0.5386886662	 0.138035
H	-4.3112679742	 5.0289036899	-1.5865754463	 0.202437
24.4496	95.7498	142.1401	163.3168	345.2966	400.7414	436.5075	505.0007	511.6357	577.81	596.9219	616.8853	652.1754	706.0666	802.806	850.5333	920.2748	971.0596	992.4323	1026.9129	1125.2899	1165.2071	1216.6517	1231.3589	1259.1697	1307.7866	1370.8609	1429.3683	1450.2128	1500.4898	1727.4489	1846.2783	2224.28	3006.9972	3028.291	3047.4792	3074.6171	3190.3065	3501.1348
O=C1CC(=CCO1)C#C	O=C1CC(=CCO1)C#C	
InChI=1S/C7H6O2/c1-2-6-3-4-9-7(8)5-6/h1,3H,4-5H2	InChI=1S/C7H6O2/c1-2-6-3-4-9-7(8)5-6/h1,3H,4-5H2
