21
gdb 95914	2.22894	1.46902	1.18259	1.266	83.7	-0.2461	0.0507	0.2968	1165.8745	0.181326	-387.066449	-387.056835	-387.055891	-387.100358	36.509	
C	-0.6378071624	 1.2449062295	 0.0264072818	-0.427984
C	 0.0755448316	-0.1011750595	-0.0568771097	-0.006169
C	 1.208717819	-0.1686418168	-1.1012601917	-0.099656
O	 2.2059383622	-1.0559022176	-0.591672472	-0.266205
C	 1.7257489725	-1.6558983723	 0.5996429168	-0.096685
C	 0.7927966336	-0.600358684	 1.2415206791	 0.067871
C	 1.6311424562	 0.4982338912	 1.9292079729	-0.436457
C	-0.1454235308	-1.1910022696	 2.1877486923	 0.276852
C	-0.9203308448	-1.6750736415	 2.9699582765	-0.447832
H	 0.0589315171	 2.0640813536	 0.2287560621	 0.120839
H	-1.1455476428	 1.469664582	-0.9173890871	 0.118544
H	-1.3952596575	 1.2353719681	 0.8163737338	 0.12966
H	-0.6678524988	-0.8674007196	-0.3041408183	 0.089603
H	 0.8417297093	-0.5307472143	-2.0706676481	 0.099862
H	 1.6714447162	 0.813708106	-1.2645381718	 0.09951
H	 1.1636467855	-2.5784655794	 0.3892675283	 0.094447
H	 2.5852117215	-1.9062695267	 1.227862437	 0.111543
H	 2.3658591027	 0.9105458593	 1.2322916096	 0.13016
H	 0.9998202128	 1.3096203131	 2.298247959	 0.125566
H	 2.1684223151	 0.0777341355	 2.7836127014	 0.125096
H	-1.6014867182	-2.105673617	 3.6614778582	 0.191434
93.9268	131.5805	145.354	195.0122	227.677	238.1508	282.1888	316.0363	363.1028	454.7601	501.5816	534.3188	556.6778	627.857	632.9196	658.7287	721.0181	880.5406	919.6752	938.7553	956.8843	968.6721	979.5413	1052.0775	1082.9673	1122.7316	1147.27	1185.7655	1191.8548	1209.6743	1237.4794	1264.1255	1330.6062	1364.8851	1370.85	1397.2352	1409.3257	1419.1386	1489.0964	1492.8347	1500.6443	1507.355	1519.5292	1532.8539	2231.7782	2987.0894	3007.0068	3027.6135	3035.8601	3048.4222	3049.4022	3087.2704	3101.0467	3111.1766	3121.0927	3129.9937	3501.7047
CC1COCC1(C)C#C	C[C@H]1COC[C@]1(C)C#C	
InChI=1S/C8H12O/c1-4-8(3)6-9-5-7(8)2/h1,7H,5-6H2,2-3H3	InChI=1S/C8H12O/c1-4-8(3)6-9-5-7(8)2/h1,7H,5-6H2,2-3H3/t7-,8-/m0/s1
