16
gdb 81880	3.29806	1.26821	1.02389	3.5337	72.25	-0.249	-0.0418	0.2072	1151.6162	0.122814	-437.886201	-437.877568	-437.876624	-437.919853	30.517	
C	-0.0887368522	 1.3785633003	-0.3080258189	-0.348822
N	 0.0067880074	 0.030868534	 0.2121001544	-0.094292
C	-1.0231317813	-1.0038209364	 0.2477222891	-0.036074
C	-1.0096316739	-1.8495380782	-0.9677288822	-0.325862
C	 0.0826090762	-2.0710405	 0.0968269931	 0.051183
C	 0.1972760533	-3.3388661237	 0.8390870126	 0.06438
O	-0.6788177656	-4.1710666491	 0.8911270085	-0.271375
C	 1.045473585	-0.8839384908	 0.0349349492	 0.357319
O	 2.2257846898	-0.732917847	-0.1197351787	-0.356001
H	 0.928743633	 1.7603058739	-0.4202216128	 0.163706
H	-0.5894634544	 1.4118214597	-1.2849592284	 0.125655
H	-0.6311496602	 2.0268767683	 0.3867461304	 0.136218
H	-1.7978490087	-1.0044439637	 1.0037463525	 0.13784
H	-1.7241171112	-2.6668043577	-1.0046523498	 0.159715
H	-0.7195893551	-1.4252420719	-1.9237556507	 0.137156
H	 1.1635695378	-3.4792613878	 1.3662977717	 0.099253
89.9329	121.9109	145.2254	154.3934	208.2997	238.968	279.6481	371.1421	494.0889	558.1805	680.6571	729.8232	753.7392	796.6463	868.3295	938.9666	947.2717	970.0359	1026.0206	1050.568	1057.5127	1100.5166	1150.0066	1216.6232	1236.8209	1268.7856	1349.4743	1377.0242	1431.5411	1447.7719	1471.7364	1483.8647	1512.9141	1795.0105	1883.3122	2920.0265	3012.1101	3083.5347	3124.9629	3132.9006	3205.5177	3223.1129
CN1C2CC2(C=O)C1=O	CN1[C@H]2C[C@@]2(C=O)C1=O	
InChI=1S/C6H7NO2/c1-7-4-2-6(4,3-8)5(7)9/h3-4H,2H2,1H3	InChI=1S/C6H7NO2/c1-7-4-2-6(4,3-8)5(7)9/h3-4H,2H2,1H3/t4-,6-/m0/s1
