17
gdb 41450	2.86302	2.18508	1.68625	2.0603	70.96	-0.2366	0.0474	0.2839	840.4672	0.137535	-421.690901	-421.684741	-421.683797	-421.720989	26.332	
C	 0.054796798	 1.5322392326	 0.1785975138	-0.192062
O	 1.4630830416	 1.5327357891	-0.2805327344	-0.343005
C	 1.1790797017	 0.2487709564	-0.8637791573	 0.350647
C	 0.3543355872	 0.0985829249	-2.1609195425	-0.304215
C	-0.158075812	-0.9885695938	-1.211170141	-0.151569
C	 1.3584238446	-1.311451369	-0.7696647834	 0.058466
O	 1.3952067206	-1.744510317	 0.5504239892	-0.264121
C	 0.4707369583	-0.8448596423	 1.202036699	-0.128953
C	-0.0369112355	-0.0153732406	 0.0289466297	 0.115832
H	-0.0235704526	 1.9049327665	 1.2021886649	 0.123401
H	-0.5713598059	 2.1309612928	-0.487276042	 0.123048
H	-0.3398107501	 0.9073158397	-2.3906010653	 0.106585
H	 0.8851427226	-0.232592235	-3.0560828625	 0.100594
H	-0.9109038496	-1.7530215145	-1.4080122111	 0.08633
H	 2.0273979771	-1.8961129436	-1.4023062526	 0.097858
H	-0.3082281744	-1.4315175236	 1.7015662806	 0.106931
H	 1.0071466984	-0.2487787527	 1.949232525	 0.114233
245.1676	271.9266	354.5989	409.8521	466.1765	497.6053	591.1929	667.8425	692.7571	781.7361	809.013	842.4332	881.325	909.0745	945.5681	953.3338	956.1522	985.2829	1001.7466	1018.6897	1086.7064	1098.5902	1116.1847	1135.1209	1146.3562	1169.8441	1179.552	1196.4081	1221.1029	1235.7225	1248.0362	1297.2986	1315.0641	1385.4997	1495.6166	1510.5518	1525.1714	3030.4329	3060.3075	3072.8152	3074.4282	3103.8497	3120.0575	3125.956	3138.6625
C1OC23CC4C2OCC134	C1O[C@@]23C[C@H]4[C@@H]2OC[C@@]134	
InChI=1S/C7H8O2/c1-4-5-7(1)6(4,2-8-5)3-9-7/h4-5H,1-3H2	InChI=1S/C7H8O2/c1-4-5-7(1)6(4,2-8-5)3-9-7/h4-5H,1-3H2/t4-,5-,6-,7-/m0/s1
