22
gdb 11670	3.20169	1.63763	1.36203	0.2477	82.6	-0.2784	0.0924	0.3708	1045.0073	0.200736	-313.03203	-313.023679	-313.022735	-313.064535	32.534	
C	 0.0340311622	 1.8386533347	 0.7571238728	-0.378752
C	-0.0133710436	 0.3153845416	 0.5906080496	-0.313598
C	 0.8146747452	-0.4297915034	 1.6096496235	 0.359888
C	 2.3595719458	-0.3454880758	 1.8328810238	-0.257039
C	 1.8465122536	-1.374473223	 2.8776439865	-0.058913
C	 0.6892499866	-0.3789884784	 3.1694354192	-0.26678
C	 0.9832772415	-1.9875699632	 1.7305696097	 0.01999
C	-0.1970480406	-2.9076538944	 2.0066304875	-0.444647
H	 1.057296695	 2.216049621	 0.6592952731	 0.117839
H	-0.5798121482	 2.3379327378	 0.0012448483	 0.110286
H	-0.3377325397	 2.1402561153	 1.741979121	 0.117932
H	-1.0543621603	-0.0286601199	 0.6572751339	 0.096516
H	 0.333409623	 0.043041244	-0.4154115614	 0.094935
H	 2.9919422259	-0.7326750263	 1.0277329923	 0.082096
H	 2.7471621068	 0.5973075733	 2.2289873954	 0.084064
H	 2.4466202414	-1.9159792768	 3.6109310349	 0.063186
H	 0.9756476368	 0.5630353478	 3.6460387083	 0.085534
H	-0.2241652062	-0.7725191771	 3.618661859	 0.086994
H	 1.5902894091	-2.4090834575	 0.9188800433	 0.054414
H	-0.8466258233	-2.5555767128	 2.8120221575	 0.11579
H	-0.8158264644	-3.0192130692	 1.1088698233	 0.114993
H	 0.1555100534	-3.9080245675	 2.2822035786	 0.115272
83.1269	148.8125	179.7523	211.0561	251.6858	314.2688	354.392	432.8323	545.6052	577.2505	619.6439	755.7991	774.0065	797.4907	821.6086	898.4384	929.0416	943.3659	989.0813	996.7345	1006.1052	1039.434	1054.074	1067.9983	1118.0385	1124.3068	1145.8748	1151.424	1171.9218	1190.6044	1222.5631	1232.8978	1249.5026	1305.6413	1309.4652	1374.4071	1404.5803	1412.0558	1422.1982	1481.892	1490.3404	1495.9778	1500.2575	1507.1345	1510.7419	1544.0183	3010.3854	3015.4594	3031.2686	3034.3013	3040.6964	3041.5402	3056.1819	3085.2234	3096.0057	3102.531	3104.0103	3105.6175	3110.0563	3122.3889
CCC12CC(C1)C2C	CC[C@@]12C[C@@H](C1)[C@H]2C	
InChI=1S/C8H14/c1-3-8-4-7(5-8)6(8)2/h6-7H,3-5H2,1-2H3	InChI=1S/C8H14/c1-3-8-4-7(5-8)6(8)2/h6-7H,3-5H2,1-2H3/t6-,7-,8+/m1/s1
