14
gdb 129913	3.43662	1.61516	1.10055	4.1789	69.66	-0.1913	0.0064	0.1978	1008.3822	0.103661	-432.858523	-432.851317	-432.850373	-432.889883	27.821	
N	 0.0141229818	 1.4401655561	 0.1691375717	-0.604413
C	 0.0228603896	 0.0427740204	 0.0402426219	 0.049805
C	-1.0592055465	-0.8069440301	 0.0079511953	-0.138891
N	-0.6127788702	-2.1494562672	-0.0267152306	-0.423589
C	 0.7327375494	-2.0978709059	-0.0293885537	 0.497203
C	 1.1902702666	-0.7974973683	 0.0156687025	 0.155237
C	 2.5962478526	-0.9941301806	 0.0181568903	-0.128956
N	 2.9318258525	-2.2648765319	-0.0246753184	-0.159056
O	 1.7013018375	-3.0068226151	-0.0560087968	-0.254647
H	 0.7123822192	 1.8875204843	-0.4118250886	 0.245468
H	-0.8910355544	 1.8438038175	-0.0362333276	 0.242066
H	-2.1148713758	-0.5906428633	 0.0160014932	 0.11559
H	-1.1956530312	-2.9661431198	-0.0490818789	 0.274342
H	 3.4011778189	-0.272410926	 0.0520249498	 0.129841
188.1405	219.7655	228.0514	234.2908	279.6638	422.5532	528.3903	574.3069	611.21	620.1637	660.9084	688.2444	743.2997	774.0003	796.7027	833.9514	902.2609	963.5974	1059.2474	1088.4441	1158.9632	1203.7372	1271.0987	1308.05	1351.5562	1458.3451	1512.7974	1557.9108	1616.9837	1632.3794	1661.4651	3234.5751	3266.4283	3529.5572	3619.4398	3701.2434
NC1=CNC2=C1C=NO2	Nc1c[nH]c2c1cno2	
InChI=1S/C5H5N3O/c6-4-2-7-5-3(4)1-8-9-5/h1-2,7H,6H2	InChI=1S/C5H5N3O/c6-4-2-7-5-3(4)1-8-9-5/h1-2,7H,6H2
