25
gdb 121820	3.27041	0.67625	0.65398	2.7092	90.41	-0.2446	-0.0165	0.2281	1886.4185	0.225217	-389.518728	-389.50693	-389.505986	-389.556671	41.983	
C	 0.1798913981	 1.5611824414	-0.0318705237	-0.382158
C	 0.0568263103	 0.0359665589	 0.0194941894	-0.161535
C	-1.3982278227	-0.4495021705	-0.0010080188	-0.182773
C	-1.5049473375	-1.9795150538	 0.0466714161	-0.208365
C	-2.9429524793	-2.5714702914	 0.05762053	 0.152253
C	-3.7196948274	-2.190128404	 1.3228233624	-0.410688
C	-3.7217757584	-2.1712818946	-1.2146881636	-0.424888
C	-2.7618966805	-4.084290218	-0.0048396615	 0.150299
O	-3.1353473251	-4.8739659952	 0.8229381579	-0.254829
H	 1.2272891094	 1.8779851808	-0.0145959907	 0.113236
H	-0.2751012795	 1.96476722	-0.9432924797	 0.113803
H	-0.3231061412	 2.0280482186	 0.822305149	 0.114901
H	 0.5979179586	-0.4048166764	-0.8283065103	 0.095426
H	 0.5519632629	-0.3422966124	 0.923495999	 0.097485
H	-1.9325099074	-0.0090680044	 0.8499411061	 0.10086
H	-1.8877093752	-0.0649748672	-0.9042698513	 0.097498
H	-0.9614707812	-2.3950802312	-0.8139034356	 0.093006
H	-0.9793546106	-2.3411978766	 0.9407052852	 0.103865
H	-3.9144331162	-1.1147166489	 1.3564739046	 0.110391
H	-4.6798708303	-2.7118190555	 1.3563811639	 0.124481
H	-3.1662212274	-2.4711816931	 2.2230854903	 0.122703
H	-3.182525832	-2.4606409346	-2.1236209662	 0.115626
H	-4.7051283232	-2.6521709654	-1.2371092644	 0.124725
H	-3.8815179687	-1.0905634466	-1.2494251997	 0.127532
H	-2.2264533556	-4.4309594098	-0.9220898883	 0.067148
41.8229	58.283	75.7835	125.7683	130.3538	203.3344	238.3414	249.2045	266.4256	282.4566	298.1138	340.1195	372.1003	427.8171	450.1477	643.0494	735.6843	767.0003	790.8966	876.3384	903.1195	921.5487	932.3974	952.3188	1017.3455	1022.6733	1040.921	1067.5645	1089.3179	1117.7555	1204.4296	1216.8438	1246.7206	1274.1454	1301.1131	1328.3314	1345.8531	1372.6177	1395.751	1397.9589	1410.8394	1412.9445	1434.1877	1478.101	1480.6644	1485.8327	1490.3458	1498.3707	1500.4204	1505.3672	1508.0045	1513.1697	1831.4456	2837.1247	3001.2034	3013.2957	3025.2488	3030.3313	3032.8126	3035.1837	3041.3831	3046.9895	3071.3814	3096.5052	3098.7312	3102.6386	3115.5248	3118.5913	3120.2777
CCCCC(C)(C)C=O	CCCCC(C)(C)C=O	
InChI=1S/C8H16O/c1-4-5-6-8(2,3)7-9/h7H,4-6H2,1-3H3	InChI=1S/C8H16O/c1-4-5-6-8(2,3)7-9/h7H,4-6H2,1-3H3
