16
gdb 62281	2.90021	1.7357	1.36966	4.7887	71.45	-0.2507	0.0151	0.2659	943.3957	0.125743	-396.856583	-396.849269	-396.848325	-396.888045	28.92	
N	 0.0019213287	 1.4263799019	 0.1490756979	-0.563398
C	 0.0096390068	-0.0191485352	-0.0297696267	 0.158616
C	 0.8437699269	-0.6144903324	 1.0235334726	 0.272983
N	 1.5222947479	-1.1003730108	 1.8229806249	-0.342266
C	-1.4271155871	-0.5377832108	-0.2092380793	-0.055397
C	-1.3150065278	-0.4553030724	-1.6881170159	-0.080964
C	 0.2472545847	-0.5604894429	-1.4893917542	-0.130427
C	 0.000734924	-2.0680351701	-1.3492697113	-0.170964
N	-1.4444189899	-1.7832060212	-1.0329001897	-0.14096
H	 0.9366044943	 1.8045672472	 0.0255944372	 0.242597
H	-0.6000993497	 1.8515972178	-0.5501372428	 0.239027
H	-2.2664975299	-0.3546018733	 0.4478960701	 0.120591
H	-1.9707242172	-0.0856775062	-2.4641633997	 0.1112
H	 1.0428915434	-0.124015082	-2.0905737573	 0.085546
H	 0.038940937	-2.6060248054	-2.2989256088	 0.119109
H	 0.5524878181	-2.6188984542	-0.581299677	 0.134708
140.7495	159.3536	252.6888	284.6504	321.061	434.9346	473.3771	538.4804	566.7836	637.2384	758.7275	786.6764	806.1355	836.7104	845.8856	920.9936	925.6364	961.9373	985.3556	1004.3707	1014.9079	1038.6798	1088.1672	1144.6047	1159.6883	1183.1536	1192.4616	1203.7086	1246.3122	1297.4481	1325.4168	1340.2483	1510.1565	1643.9467	2355.021	3057.4485	3119.1083	3135.5451	3208.62	3221.8943	3489.0639	3577.5459
NC1(C#N)C2C3C1CN23	N[C@@]1(C#N)[C@H]2[C@H]3[C@@H]1CN23	
InChI=1S/C6H7N3/c7-2-6(8)3-1-9-4(3)5(6)9/h3-5H,1,8H2	InChI=1S/C6H7N3/c7-2-6(8)3-1-9-4(3)5(6)9/h3-5H,1,8H2/t3-,4+,5+,6+,9?/m0/s1
