18
gdb 125955	2.91896	1.74388	1.152	3.718	76.71	-0.2468	0.0209	0.2677	1053.9624	0.15183	-398.17709	-398.169742	-398.168798	-398.209029	28.124	
C	-0.0074795343	 1.5807083571	 0.0430333343	-0.397566
C	 0.0259184	 0.0576699796	 0.0446291684	 0.034081
C	 0.7404687329	-0.5896000503	-1.1818070851	-0.226417
C	 1.5287889288	-1.8285420985	-0.6518198304	-0.359804
C	 1.6404180249	-1.513883719	 0.8058550206	 0.388757
N	 2.2587638919	-1.9685143535	 1.8817955316	-0.368623
C	 1.7543671691	-1.1519292305	 2.8550729359	 0.018329
N	 0.8739185676	-0.2388638191	 2.4517314085	-0.282648
N	 0.8320740531	-0.4922036646	 1.1274392491	 0.06468
H	 1.0030550441	 1.9899396965	-0.0512528621	 0.127552
H	-0.6096360947	 1.9415179791	-0.7961877725	 0.123032
H	-0.4451275715	 1.9560081617	 0.9713574114	 0.148157
H	-0.997777951	-0.3272852929	 0.1416157222	 0.101934
H	 0.0300908925	-0.8491197699	-1.9687684856	 0.116702
H	 1.4434689351	 0.1378616949	-1.5990485987	 0.120647
H	 0.9732873294	-2.7613032716	-0.8026014773	 0.133321
H	 2.4984087987	-1.9487069744	-1.1401719061	 0.13642
H	 2.0474225933	-1.2281414646	 3.8919660958	 0.121444
103.5892	144.2962	222.2409	244.4142	289.164	437.3198	495.408	572.0435	667.833	689.5533	705.0374	748.376	825.1856	900.57	903.8279	957.4235	979.0449	992.5805	1048.6576	1100.8841	1118.2085	1145.0326	1191.4752	1199.8848	1230.4713	1285.6754	1294.3576	1307.9882	1330.3616	1345.6852	1389.3215	1411.6499	1427.9036	1479.0721	1488.014	1497.6149	1501.8924	1506.8886	1570.4672	3016.8026	3043.6101	3046.2517	3063.0838	3102.4184	3116.9857	3122.153	3129.4627	3255.4506
CC1CCC2=NC=NN12	C[C@H]1CCc2ncnn12	
InChI=1S/C6H9N3/c1-5-2-3-6-7-4-8-9(5)6/h4-5H,2-3H2,1H3	InChI=1S/C6H9N3/c1-5-2-3-6-7-4-8-9(5)6/h4-5H,2-3H2,1H3/t5-/m0/s1
