16
gdb 78148	2.17906	1.78978	1.05784	1.4895	72.87	-0.258	-0.0201	0.2379	1108.0359	0.125686	-434.098691	-434.090971	-434.090027	-434.13091	29.459	
C	-0.0353096851	 1.4586838016	 0.049977298	-0.420309
C	 0.0677687995	-0.0390426298	-0.0584349581	 0.012071
C	 0.7702905266	-0.6960212963	-1.2015065834	-0.190384
N	 1.4116711625	-0.6279436778	 0.128560907	-0.121574
C	 1.3577420088	-1.9530812163	 0.6702056378	 0.396265
N	 1.7775385496	-2.2191797599	 1.832069037	-0.522377
N	 0.7912306424	-2.7913672084	-0.2993866186	-0.370879
C	 0.4368295047	-2.136499233	-1.4737417272	 0.436267
O	-0.0021403948	-2.6452491736	-2.4736381113	-0.358552
H	 0.8363746608	 1.9406948116	-0.3990389366	 0.137501
H	-0.9372032845	 1.8170388507	-0.4564447148	 0.131089
H	-0.0886093703	 1.7596643874	 1.1006658852	 0.141981
H	-0.7570430766	-0.599900985	 0.378418681	 0.113856
H	 1.1940798246	-0.1065678879	-2.0068550345	 0.129713
H	 1.6516954295	-3.2044081632	 2.0616333456	 0.218184
H	 0.6451580122	-3.7813874901	-0.174078317	 0.267148
133.3532	160.7777	203.2248	211.6526	277.8523	349.4518	440.5796	533.9143	560.0194	640.3168	653.4447	717.7173	745.024	805.3797	831.7863	854.7624	915.3362	963.7336	1022.0458	1028.4063	1059.7858	1077.7019	1144.9657	1171.3299	1202.0285	1248.9848	1304.6906	1348.2942	1376.0404	1410.0072	1438.9929	1485.5338	1494.8953	1772.3998	1858.6687	3043.6237	3112.2725	3119.7828	3137.0269	3184.101	3493.4876	3636.3543
CC1C2N1C(=N)NC2=O	C[C@H]1[C@H]2N1[C]([NH])NC2=O	
InChI=1S/C5H7N3O/c1-2-3-4(9)7-5(6)8(2)3/h2-3H,1H3,(H2,6,7,9)	InChI=1S/C5H7N3O/c1-2-3-4(9)7-5(6)8(2)3/h2-3H,1H3,(H2,6,7,9)/t2-,3+,8?/m0/s1
