20
gdb 73985	3.10366	1.51173	1.35355	1.3191	87.57	-0.1972	-0.0299	0.1673	1061.4728	0.169942	-365.906725	-365.898353	-365.897409	-365.9391	32.838	
C	-0.1421632536	 1.3517716176	-0.4365691536	-0.467349
C	-0.0158821219	 0.0494997968	 0.2891672214	 0.246351
C	-1.0603820655	-0.7819158751	 0.5439322953	-0.129885
C	-1.7194455746	-1.324848421	-0.7342532168	-0.175347
N	-0.7520394604	-2.5027050594	-0.6142700582	-0.196649
C	 0.6330726657	-2.1813091819	 0.0346883427	-0.063236
C	 1.2567285453	-0.7846095596	 0.1867686423	-0.320249
C	-0.5890225172	-2.2157856728	 0.8422733809	 0.325724
C	-1.0226764147	-3.1370589772	 1.9380019777	-0.51173
H	 0.3430309643	 1.3226625954	-1.4222726879	 0.120427
H	-1.1911534306	 1.6329186612	-0.5679359693	 0.125574
H	 0.3452530995	 2.1627505289	 0.1208460017	 0.129592
H	-2.7239962711	-1.7512958102	-0.6513301025	 0.113328
H	-1.6440448296	-0.7151053538	-1.6399363867	 0.105826
H	 1.2656257444	-3.0569110014	-0.0851006461	 0.093986
H	 1.83373542	-0.4356810097	-0.6779722007	 0.113882
H	 1.9504229567	-0.7952325624	 1.040481913	 0.115348
H	-0.5965115999	-2.8291039372	 2.8992350547	 0.122875
H	-2.1130291123	-3.14023994	 2.0436423639	 0.124351
H	-0.6965245544	-4.1599190482	 1.7272441683	 0.12718
125.9368	172.8298	189.3088	202.825	260.1934	269.9495	383.569	460.2371	497.6879	537.8102	569.0647	637.0729	728.1621	766.1879	840.1849	863.4064	887.0126	921.6578	931.7149	971.7126	992.8181	1028.8418	1046.941	1069.9606	1083.2757	1113.452	1122.5479	1169.6309	1204.6128	1237.9913	1256.1322	1270.3566	1307.0488	1401.0906	1403.2796	1439.3466	1462.4201	1471.7962	1482.2714	1486.3078	1492.3218	1511.8244	1599.153	2996.18	3002.9773	3029.6432	3038.2663	3046.8977	3055.8093	3092.0114	3094.5894	3104.0525	3110.0264	3155.4997
CC1=C2CN3C(C1)C23C	C[C]1[C]2CN3[C@@H](C1)[C@@]23C	
InChI=1S/C8H11N/c1-5-3-7-8(2)6(5)4-9(7)8/h7H,3-4H2,1-2H3	InChI=1S/C8H11N/c1-5-3-7-8(2)6(5)4-9(7)8/h7H,3-4H2,1-2H3/t7-,8+,9?/m0/s1
