17
gdb 28049	5.47895	0.91273	0.78622	3.3965	80.	-0.1889	0.021	0.2098	1412.3255	0.137042	-418.077166	-418.068442	-418.067497	-418.110979	31.913	
C	-0.021062829	 1.5404842562	 0.0200187614	-0.502182
C	 0.0025471815	 0.0489229789	-0.0382502155	 0.351301
C	-0.0301528035	-0.8098730324	-1.1153609649	-0.365815
C	 0.0157763477	-2.1403132363	-0.6051313574	 0.353746
N	 0.0007590482	-3.2964701881	-1.4012568943	-0.398836
C	 0.0438334685	-4.580319149	-0.9517178364	 0.13815
O	 0.1019232493	-4.9177173818	 0.2130815065	-0.32031
C	 0.0753721437	-2.0664638987	 0.7689129321	-0.165318
N	 0.066091531	-0.726885611	 1.0906155952	-0.304113
H	 0.8774164015	 1.9506615431	 0.4979043598	 0.128308
H	-0.0726712402	 1.9519196467	-0.9905337654	 0.137044
H	-0.8879995423	 1.9196896804	 0.5754559985	 0.128322
H	-0.0813420977	-0.516657604	-2.1537079286	 0.085229
H	-0.0463927261	-3.160318362	-2.3986370711	 0.250451
H	 0.0191898636	-5.3024172147	-1.7912874768	 0.072817
H	 0.1218730538	-2.844404152	 1.5073562888	 0.152976
H	 0.1016350901	-0.3705397054	 2.0295805881	 0.25823
63.6234	87.6852	166.0941	183.451	253.8558	270.3446	390.8057	402.2478	465.3892	548.1811	561.6907	637.6521	666.067	705.6233	727.6691	778.8316	869.9037	976.3039	990.9656	1005.8632	1015.4109	1061.7524	1125.9061	1147.3375	1203.7015	1272.0122	1310.034	1407.9325	1419.1167	1431.1654	1453.3827	1480.8869	1506.5722	1535.2173	1582.0079	1642.6479	1793.8301	2939.1461	3017.3209	3061.395	3122.8117	3236.3179	3321.0874	3633.7488	3681.4146
CC1=CC(NC=O)=CN1	Cc1cc(NC=O)c[nH]1	
InChI=1S/C6H8N2O/c1-5-2-6(3-7-5)8-4-9/h2-4,7H,1H3,(H,8,9)	InChI=1S/C6H8N2O/c1-5-2-6(3-7-5)8-4-9/h2-4,7H,1H3,(H,8,9)
