19
gdb 75184	4.40263	0.97195	0.82248	2.9909	78.81	-0.2441	-0.0275	0.2166	1387.4825	0.157856	-423.046123	-423.037134	-423.03619	-423.08027	32.8	
C	 0.1106492783	 1.5396816102	-0.0560890724	-0.478538
C	 0.0084735012	 0.0407839141	-0.0769655236	 0.291381
C	 0.2322083499	-0.7048434417	-1.1598267528	-0.169332
C	 0.1693794455	-2.208259843	-1.1404751535	-0.253206
C	 0.2009971464	-2.7039355717	 0.3068508961	 0.023862
O	-0.7010273841	-1.981365535	 1.1226119263	-0.266376
C	-0.3650707412	-0.6103814374	 1.2338983692	-0.150593
C	-0.1579453547	-4.1731464985	 0.4562775691	 0.137654
O	 0.1322508769	-5.0206314614	-0.3467140569	-0.247525
H	 0.8413779626	 1.8794437398	 0.6895559701	 0.125747
H	 0.4161060864	 1.9311797234	-1.0295919832	 0.127172
H	-0.8475263234	 2.0022480799	 0.2135955392	 0.126578
H	 0.4770467555	-0.2261045796	-2.1051610388	 0.085238
H	-0.7400884	-2.5709737111	-1.637878699	 0.121295
H	 1.0087387508	-2.6464809544	-1.6907574268	 0.123277
H	 1.2311587351	-2.5928454359	 0.6990771185	 0.09353
H	 0.4561777696	-0.4754753271	 1.9629168683	 0.097199
H	-1.2477260508	-0.1199427388	 1.6623134429	 0.118207
H	-0.710879264	-4.4014978818	 1.3938847576	 0.094431
55.1759	103.0633	174.3857	177.42	205.7167	263.6376	316.5045	381.1121	434.5247	445.4884	539.266	584.544	688.1273	792.893	808.0378	893.4242	917.4236	953.516	1004.1571	1044.9192	1066.2866	1071.863	1087.0791	1119.105	1147.5502	1183.6347	1218.438	1265.8671	1302.8592	1341.2286	1356.388	1371.7671	1402.6361	1409.7678	1415.317	1472.4008	1478.9158	1486.3759	1493.3591	1745.6096	1838.9908	2899.9072	2915.9268	2929.9048	3015.1832	3023.0811	3047.5184	3060.6074	3073.1743	3115.3198	3151.1986
CC1=CCC(OC1)C=O	CC1=CC[C@@H](OC1)C=O	
InChI=1S/C7H10O2/c1-6-2-3-7(4-8)9-5-6/h2,4,7H,3,5H2,1H3	InChI=1S/C7H10O2/c1-6-2-3-7(4-8)9-5-6/h2,4,7H,3,5H2,1H3/t7-/m1/s1
