17
gdb 66080	2.58876	1.20998	1.097	3.908	75.67	-0.2444	-0.0246	0.2198	1175.7886	0.132389	-421.781995	-421.772527	-421.771583	-421.816615	34.275	
O	 0.039451647	 1.4163724464	-0.5665140124	-0.46311
C	 0.013143297	 0.0672696852	-0.1407690554	 0.233829
C	 0.0312060544	-0.1870485829	 1.4040557584	-0.279328
C	-1.1854713992	-1.1301207308	 1.2387608758	-0.238443
C	-1.4364025869	-0.5465470596	-0.1898338231	-0.146264
C	-2.5152093769	 0.5106231094	-0.1976698692	 0.178633
O	-3.4242369663	 0.5363886354	-0.9859904948	-0.257856
C	 0.9878726211	-0.7416387948	-0.8602758818	 0.280799
C	 1.8175632655	-1.3834400278	-1.4485586916	-0.459978
H	 0.943867148	 1.645275433	-0.8045889043	 0.289716
H	 0.947542694	-0.5988287951	 1.829439662	 0.111568
H	-0.2263186751	 0.7410012936	 1.9203187784	 0.120007
H	-0.9049223206	-2.1835246397	 1.1923695512	 0.125501
H	-1.9997973524	-1.0160121242	 1.9574574383	 0.11492
H	-1.6276521007	-1.2502581979	-0.9996813567	 0.102935
H	-2.4367182929	 1.2679815572	 0.613281778	 0.080297
H	 2.5423616741	-1.9545436575	-1.9751111326	 0.206775
66.8006	85.5803	128.655	148.6548	197.8839	243.9496	303.2045	370.7283	423.8245	444.7543	506.8775	572.6656	624.6344	653.8019	676.8908	723.1226	869.0816	875.7512	934.576	949.9533	976.0452	1009.5155	1037.1403	1100.7848	1152.5974	1187.2491	1214.2197	1251.1368	1256.0876	1266.7464	1291.3909	1362.4986	1439.5972	1477.214	1494.6192	1830.3468	2229.1784	2886.1087	3070.7145	3076.3009	3118.3601	3125.1119	3139.6296	3498.2691	3819.8422
OC1(CCC1C=O)C#C	O[C@]1(CC[C@H]1C=O)C#C	
InChI=1S/C7H8O2/c1-2-7(9)4-3-6(7)5-8/h1,5-6,9H,3-4H2	InChI=1S/C7H8O2/c1-2-7(9)4-3-6(7)5-8/h1,5-6,9H,3-4H2/t6-,7-/m0/s1
