20
gdb 8583	3.72818	1.79779	1.55937	1.3839	73.65	-0.2539	0.076	0.3299	898.5089	0.180358	-349.002057	-348.995111	-348.994166	-349.032804	28.672	
O	-0.1453256581	 1.4680554798	 0.14824195	-0.444305
C	 0.0166672415	 0.0604442032	 0.0127464359	 0.142747
C	 0.8296995099	-0.5590670662	 1.1754738686	-0.242739
C	 0.4526195761	-2.0341637812	 1.3965055418	-0.004773
C	-0.0048955858	-2.6982569214	 0.0611801906	-0.230093
C	-1.3892096675	-2.0307667654	 0.3283920266	-0.010941
C	-1.0340799408	-2.1147972976	 1.8380625454	-0.209004
C	-1.3879710795	-0.5583221516	-0.1144983713	-0.205981
H	 0.7302314363	 1.8682331267	 0.147934576	 0.276691
H	 0.5587484552	-0.1512513302	-0.9209944979	 0.067466
H	 1.9018766165	-0.4569816795	 0.9635147637	 0.081376
H	 0.6272425435	 0.0136615071	 2.0888047848	 0.101588
H	 1.197869164	-2.5553310019	 2.0024729871	 0.057209
H	 0.5306898948	-2.4620515114	-0.8626241946	 0.088782
H	-0.0661107666	-3.7848797773	 0.1649607353	 0.093979
H	-2.285693445	-2.5516159136	-0.0162765309	 0.058366
H	-1.2795713523	-3.0939653907	 2.2591455523	 0.08989
H	-1.4155083271	-1.3293646431	 2.4985750039	 0.088172
H	-2.0812810143	 0.0184807083	 0.5088656365	 0.107557
H	-1.7323468807	-0.455154224	-1.149227174	 0.094015
118.5016	281.1066	292.4626	359.6793	385.7241	408.5843	470.7218	485.6135	553.4474	777.3944	823.452	825.5847	857.826	878.3228	914.5046	929.8188	935.9051	982.9971	1032.969	1046.6098	1057.6528	1095.3105	1110.9174	1122.1184	1126.4401	1149.9704	1218.9413	1219.6971	1256.4677	1264.098	1279.6404	1310.876	1315.3222	1327.6217	1347.0419	1369.3686	1395.1202	1438.5048	1482.895	1491.3766	1497.8653	1519.0876	2969.0065	3015.1665	3034.3944	3042.0145	3051.9868	3059.3306	3071.0486	3073.5219	3078.4571	3099.0195	3104.6674	3811.8784
OC1CC2CC(C2)C1	O[C@H]1C[C@@H]2C[C@@H](C2)C1	
InChI=1S/C7H12O/c8-7-3-5-1-6(2-5)4-7/h5-8H,1-4H2	InChI=1S/C7H12O/c8-7-3-5-1-6(2-5)4-7/h5-8H,1-4H2/t5-,6+,7-
