13
gdb 132632	3.18826	1.42838	0.98716	4.2493	66.37	-0.214	-0.0366	0.1775	1077.7242	0.090283	-494.092499	-494.08524	-494.084296	-494.124066	28.149	
N	 0.0402335957	 1.3539765928	-0.1853349385	-0.569945
C	-0.0013598729	-0.0219262479	-0.0801948816	 0.354454
C	-1.2021031979	-0.7350151421	 0.0174674698	-0.099335
N	-1.206039337	-2.0702006353	 0.0618366968	-0.273391
C	-0.061470144	-2.6900294923	 0.0085400965	 0.237226
F	-0.0487058207	-4.0199989398	 0.0506680507	-0.060978
C	 1.1532039138	-1.9905194492	-0.0871254357	 0.284435
O	 2.311306176	-2.6696446974	-0.1333098835	-0.403065
N	 1.1740736764	-0.6714674911	-0.1259670592	-0.395133
H	 0.9368461684	 1.760722799	 0.0346010286	 0.258136
H	-0.7441778464	 1.8577856059	 0.1977071398	 0.257676
H	-2.1616260603	-0.2290869076	 0.0576063218	 0.107795
H	 3.013186469	-2.0071338449	-0.2009543153	 0.302125
125.7168	242.7184	297.7051	326.7933	363.0847	395.8773	474.877	501.6661	524.4852	546.437	551.1759	611.6607	697.8962	741.4845	788.0543	811.0955	867.7624	1017.6634	1093.6689	1188.7883	1264.9702	1307.8254	1351.2625	1388.4146	1492.9036	1531.6818	1615.5063	1635.5389	1657.1152	3173.1514	3582.196	3693.6201	3767.0543
NC1=CN=C(F)C(O)=N1	Nc1cnc(F)c(O)n1	
InChI=1S/C4H4FN3O/c5-3-4(9)8-2(6)1-7-3/h1H,(H3,6,8,9)	InChI=1S/C4H4FN3O/c5-3-4(9)8-2(6)1-7-3/h1H,(H3,6,8,9)
