23
gdb 96487	2.44254	1.36175	0.98981	1.5336	87.06	-0.2413	0.0087	0.25	1282.2848	0.207463	-388.289534	-388.280644	-388.2797	-388.322595	35.171	
C	-0.0862339066	 1.6280835987	 0.0077081161	-0.39746
C	-0.0651180641	 0.0921447274	 0.0265225241	 0.041241
C	 0.4991014957	-0.4385679063	-1.3103193427	-0.210845
C	 0.354479415	-1.9479025561	-1.6041563044	-0.066153
O	 1.5078254497	-2.7491768718	-1.3951478136	-0.255641
C	 2.1121648671	-2.6936127296	-0.103906832	-0.108739
C	 1.1353278213	-2.8780127488	 1.0235244362	-0.076016
C	 0.4997449185	-1.8632116076	 1.6113253259	-0.049962
C	 0.6909152645	-0.4007807359	 1.2876186969	-0.246916
H	 0.9306540375	 2.0336422661	-0.0575524547	 0.114093
H	-0.6491166506	 2.0079889222	-0.8510782824	 0.110764
H	-0.5458333152	 2.0314945199	 0.9158614649	 0.110013
H	-1.1042373534	-0.2590854614	 0.1045767054	 0.073278
H	-0.0319888546	 0.0943041045	-2.1087755851	 0.095922
H	 1.5537158114	-0.1526226536	-1.419611477	 0.103111
H	-0.506128682	-2.347248316	-1.0479870343	 0.088348
H	 0.1445202962	-2.0876696715	-2.6689743944	 0.102162
H	 2.8572231444	-3.4946886725	-0.1144729159	 0.105072
H	 2.6553786508	-1.7452594007	 0.017427755	 0.087675
H	 0.8906677999	-3.8994772702	 1.3044239974	 0.088673
H	-0.2460021593	-2.0876776529	 2.3720094694	 0.089288
H	 1.755724642	-0.1666831527	 1.1631031964	 0.106959
H	 0.3496035018	 0.1930077086	 2.142840049	 0.095133
114.22	149.0048	213.851	232.4749	265.2265	290.1461	323.3833	348.1146	396.0432	456.642	509.467	541.2746	622.8271	716.1194	800.6653	843.0805	898.7761	904.1182	936.2694	968.4141	988.6618	1005.3716	1010.252	1038.6076	1056.1973	1102.5049	1112.8752	1136.9504	1169.4059	1201.3604	1251.2903	1283.0339	1293.3296	1309.9616	1328.5472	1337.6544	1372.1127	1383.7984	1386.1875	1411.9999	1424.2987	1428.9648	1470.4168	1482.3599	1497.4622	1498.1342	1502.2532	1510.2387	1717.4836	2992.684	2996.9106	3001.501	3017.8774	3023.0562	3029.3725	3054.8098	3064.0545	3075.2062	3078.4421	3091.3638	3100.6046	3134.542	3163.3462
CC1CCOCC=CC1	C[C@H]1CCOCC=CC1	
InChI=1S/C8H14O/c1-8-4-2-3-6-9-7-5-8/h2-3,8H,4-7H2,1H3/b3-2-	InChI=1S/C8H14O/c1-8-4-2-3-6-9-7-5-8/h2-3,8H,4-7H2,1H3/b3-2-/t8-/m1/s1
