19
gdb 111954	3.15978	1.14	0.89825	2.475	77.14	-0.25	-0.0283	0.2217	1318.669	0.158138	-423.054241	-423.045109	-423.044164	-423.088573	33.723	
C	-0.0300241089	 1.674055074	 0.280704269	-0.393227
C	 0.0587870433	 0.1711283472	 0.0057164713	-0.173881
C	-1.3118985529	-0.5050311867	-0.1618178277	-0.156161
C	-2.0652347401	-0.2144606458	-1.4440483752	-0.076111
C	-2.5398907996	-1.3106442691	-2.0406001886	-0.103274
C	-2.2624018341	-2.5551561687	-1.2391148275	 0.019567
O	-1.7773584231	-3.6471418047	-1.9836614865	-0.440621
C	-1.2191409366	-2.0342752728	-0.2359574966	 0.347588
O	-0.3967155792	-2.7434832484	 0.2863080807	-0.325059
H	 0.967261118	 2.1065214288	 0.4051698029	 0.120186
H	-0.5201920293	 2.2103639737	-0.5387381288	 0.117991
H	-0.5975054954	 1.8767907494	 1.1958562043	 0.1169
H	 0.6553700576	-0.0113155771	-0.8960964624	 0.106271
H	 0.580654002	-0.3326742874	 0.8262400488	 0.121728
H	-1.9301919971	-0.2503637732	 0.7152534159	 0.109406
H	-2.1924742286	 0.7951953113	-1.81815724	 0.107548
H	-3.101759449	-1.3375810718	-2.9662830783	 0.113143
H	-3.1674037025	-2.8500581284	-0.6727095779	 0.094532
H	-1.1172089645	-4.0764210602	-1.4211367435	 0.293473
52.601	86.7017	159.8749	197.784	254.2286	267.7625	312.9497	345.4351	354.2191	496.6876	551.6354	619.5199	678.198	721.0929	746.5072	791.4124	892.9416	904.5408	966.1559	980.765	1002.2103	1042.5755	1063.9473	1110.9809	1127.7421	1158.6916	1170.1399	1215.1977	1247.8109	1268.9818	1319.6311	1339.9084	1369.3442	1379.9214	1411.5518	1417.1543	1487.787	1500.3869	1506.4653	1669.5048	1841.778	2909.1052	2970.1825	3031.875	3038.3424	3074.9882	3101.8505	3106.1321	3190.5052	3217.2126	3741.4237
CCC1C=CC(O)C1=O	CC[C@H]1C=C[C@@H](O)C1=O	
InChI=1S/C7H10O2/c1-2-5-3-4-6(8)7(5)9/h3-6,8H,2H2,1H3	InChI=1S/C7H10O2/c1-2-5-3-4-6(8)7(5)9/h3-6,8H,2H2,1H3/t5-,6+/m0/s1
