18
gdb 91862	3.10915	1.26605	1.01914	2.6009	74.08	-0.2186	-0.0396	0.1789	1188.0744	0.146535	-439.069833	-439.061457	-439.060513	-439.102867	31.097	
C	 0.1555387418	 1.3865608352	 0.139983328	-0.314857
N	-0.004056866	-0.0495579038	 0.1340197103	-0.068256
C	-1.3744677763	-0.5335822081	 0.2588491545	-0.186534
C	-1.2142083847	-1.9832846248	 0.6686786654	-0.024784
O	-0.2445561617	-2.7148779497	-0.0616931097	-0.27559
C	 0.1672100432	-2.131323996	 1.1881398714	 0.302217
C	 0.8437397596	-0.783493414	 1.0717403785	-0.24074
C	 0.4970656614	-3.100382844	 2.2632993701	 0.08627
O	 1.2061540596	-2.8480112687	 3.2052240624	-0.256931
H	 1.2032255427	 1.6432254061	-0.0470302406	 0.125394
H	-0.4456454082	 1.8303747538	-0.6604092248	 0.122479
H	-0.1452364923	 1.8598195613	 1.0948798382	 0.093288
H	-1.9584896067	-0.0235394606	 1.0507789539	 0.08849
H	-1.9175513277	-0.4092564506	-0.6860316462	 0.119684
H	-2.0609729793	-2.5509645224	 1.0459958802	 0.110227
H	 1.8709274104	-0.8465200017	 0.6953550289	 0.122419
H	 0.8847044223	-0.3421250081	 2.0841314645	 0.107307
H	 0.0249697419	-4.0964781338	 2.1180117652	 0.089918
101.3129	121.6892	184.0868	228.0625	255.0635	309.3701	332.3108	384.818	421.3795	484.5748	617.8406	669.3184	772.4285	842.9554	889.5674	906.6158	981.9037	989.1223	1020.5908	1057.9438	1076.953	1102.9191	1151.7796	1191.6943	1201.6374	1228.6398	1251.1368	1274.9123	1304.1327	1367.0276	1375.9612	1402.0798	1442.3345	1463.9756	1485.6724	1497.6808	1506.602	1516.8659	1817.6793	2902.9176	2907.9866	2920.4528	2949.0147	3042.501	3055.5815	3057.5042	3101.2458	3153.7112
CN1CC2OC2(C1)C=O	CN1C[C@H]2O[C@]2(C1)C=O	
InChI=1S/C6H9NO2/c1-7-2-5-6(3-7,4-8)9-5/h4-5H,2-3H2,1H3	InChI=1S/C6H9NO2/c1-7-2-5-6(3-7,4-8)9-5/h4-5H,2-3H2,1H3/t5-,6-/m1/s1
