19
gdb 71635	2.71926	1.6502	1.57925	1.437	74.32	-0.2343	0.0748	0.3091	961.7735	0.16148	-422.985713	-422.978479	-422.977534	-423.01697	29.691	
O	 0.0637139255	 1.3379609766	 0.1027751125	-0.477733
C	 0.0455154404	-0.0423779509	 0.0622913087	 0.377613
C	 0.6283565768	-0.9713570261	 1.1410271624	-0.279482
C	 0.0433950334	-1.9216977144	 0.0573500615	-0.128576
C	-1.2108955985	-0.9854969727	-0.0045599014	-0.054137
C	-2.0109489652	-0.9557960079	-1.3037231722	-0.27433
C	-1.1116388028	-1.4355617079	-2.4448955266	-0.068037
O	 0.2076683361	-0.9161144739	-2.3171692817	-0.285598
C	 0.697498204	-0.974938622	-0.9998297721	 0.077853
H	-0.0247700238	 1.6594397335	-0.8018690761	 0.288891
H	 1.7154615863	-0.9683457851	 1.2605732117	 0.093909
H	 0.1127070452	-0.9763526573	 2.1037724228	 0.099896
H	 0.0579579145	-3.0089964663	 0.0766250149	 0.08205
H	-1.8343091511	-0.9782919233	 0.8943294326	 0.065959
H	-2.8980603732	-1.5960808875	-1.2428893445	 0.101465
H	-2.3685172719	 0.0658508492	-1.4884194665	 0.100119
H	-1.0697393546	-2.535505845	-2.4384538041	 0.095738
H	-1.4758019352	-1.1210877343	-3.4265767586	 0.10573
H	 1.789634094	-0.9680761447	-1.0553975734	 0.078669
164.9889	195.4827	240.5005	280.3439	395.6383	442.8609	464.8641	520.102	565.5206	658.7395	712.3435	774.4354	801.1034	838.2088	880.4265	921.1399	953.089	969.3082	988.5729	1032.1414	1042.6668	1063.6297	1096.1556	1111.1476	1122.8202	1148.8161	1164.5304	1189.8436	1209.4619	1221.3823	1256.5422	1274.3914	1298.2764	1347.1471	1361.9763	1380.4563	1417.4454	1425.602	1487.6552	1511.409	1524.2692	2986.2036	3019.6189	3055.7309	3061.0752	3069.6331	3078.0465	3089.7908	3124.4595	3143.1473	3798.2731
OC12CC3C1CCOC23	O[C@@]12C[C@H]3[C@@H]1CCO[C@@H]23	
InChI=1S/C7H10O2/c8-7-3-4-5(7)1-2-9-6(4)7/h4-6,8H,1-3H2	InChI=1S/C7H10O2/c8-7-3-4-5(7)1-2-9-6(4)7/h4-6,8H,1-3H2/t4-,5-,6+,7-/m0/s1
