21
gdb 89525	2.26076	1.80989	1.30737	0.9266	77.6	-0.2408	0.0848	0.3256	1076.2714	0.182658	-424.231505	-424.222897	-424.221953	-424.264234	33.511	
C	 0.2765490959	 1.5812839769	-0.0064066992	-0.414818
C	 0.1122484747	 0.0815559869	 0.0974631667	 0.125196
O	 0.9453648047	-0.6719140779	-0.8253519075	-0.359492
C	 1.3397512228	-1.6105054451	 0.2201796229	 0.416937
C	 0.7558762193	-2.9892748467	-0.0158899046	-0.467309
C	 2.8414882622	-1.5483551912	 0.4892992351	-0.274334
C	 2.9923464669	-0.2205877552	 1.2411170088	-0.092817
O	 1.7771436327	-0.0464854963	 1.9799993884	-0.26698
C	 0.7171687245	-0.6840001241	 1.2981344253	 0.014633
H	 1.2841112125	 1.8970293546	 0.2705642112	 0.130249
H	 0.0731530133	 1.9085048929	-1.0308246533	 0.125025
H	-0.4333287584	 2.0831848393	 0.6594874684	 0.119303
H	-0.943212331	-0.1925416226	-0.0523751968	 0.067335
H	 1.1743393155	-3.4278580486	-0.9276189182	 0.128244
H	 0.9795495789	-3.6586121965	 0.8212363125	 0.117438
H	-0.330035667	-2.9371409746	-0.1376097624	 0.121794
H	 3.139764861	-2.3918157418	 1.1206113037	 0.104044
H	 3.4199564635	-1.5806021045	-0.4373445501	 0.114455
H	 3.81690687	-0.210445756	 1.9587829837	 0.108942
H	 3.1364505652	 0.6069880981	 0.5344850434	 0.103615
H	 0.0216647627	-1.0874201675	 2.037426432	 0.078542
118.8095	181.8641	199.8363	215.0856	241.1534	248.7995	310.8282	379.5976	422.9572	534.2789	589.8054	646.4946	695.8729	787.6064	832.2354	883.88	901.3135	922.9965	940.3793	963.5342	984.9709	1014.8896	1033.1599	1079.5502	1125.4474	1149.839	1161.9605	1180.1639	1226.257	1233.9786	1245.3432	1269.5431	1317.2106	1329.738	1360.8689	1390.4329	1399.6177	1408.3411	1412.4895	1467.7224	1484.4918	1486.4978	1487.7205	1493.0325	1524.187	2982.1796	3022.0424	3034.5362	3044.1457	3053.0555	3085.9851	3093.2615	3105.2928	3108.7831	3110.3393	3115.1734	3137.8155
CC1OC2(C)CCOC12	C[C@H]1O[C@@]2(C)CCO[C@@H]12	
InChI=1S/C7H12O2/c1-5-6-7(2,9-5)3-4-8-6/h5-6H,3-4H2,1-2H3	InChI=1S/C7H12O2/c1-5-6-7(2,9-5)3-4-8-6/h5-6H,3-4H2,1-2H3/t5-,6+,7+/m1/s1
