19
gdb 90104	3.65202	1.26511	1.18816	3.0099	78.22	-0.2187	0.0507	0.2694	1116.0269	0.159345	-419.034518	-419.026783	-419.025839	-419.066258	31.384	
C	-0.1341534918	 1.5794221972	 0.0290112528	-0.321408
N	 0.002107878	 0.1371095896	 0.0294930762	-0.10876
C	-1.1962645143	-0.6868851499	 0.4867468806	-0.278039
C	-0.1243974182	-1.645724456	 1.0528581449	 0.202868
N	 0.6410290944	-2.3953384819	 2.1723338949	-0.446363
C	 1.7080470705	-1.7901229386	 1.2001732228	-0.140367
C	 0.8566717765	-2.3785650577	 0.0653218949	 0.207477
O	 0.7733890789	-3.7568388879	-0.0702981327	-0.459953
C	 0.804690712	-0.4858259133	 1.1272314139	 0.01845
H	 0.8213909885	 2.0345249274	-0.2502569919	 0.128164
H	-0.8804612042	 1.8814501943	-0.7129283297	 0.12514
H	-0.4401937751	 1.9906871774	 1.0094416933	 0.091411
H	-1.7911994107	-0.1665576036	 1.2516426995	 0.101606
H	-1.8406978711	-1.0464982719	-0.3205544089	 0.121385
H	 0.6083313838	-1.8381271444	 3.0316431004	 0.214688
H	 2.7685656674	-1.9301078627	 1.4308012502	 0.08184
H	 0.9627221205	-1.9242208662	-0.9162237522	 0.107202
H	 0.6842293398	-4.097103906	 0.8322067953	 0.290631
H	 0.7912597649	 0.0997132443	 2.0581466757	 0.064027
146.6416	210.8719	222.0959	285.1467	303.4902	380.3258	384.0777	475.8577	541.3322	584.3896	630.3114	673.4099	740.3189	810.5743	848.6045	878.7411	895.2957	906.6093	963.5719	993.3167	1049.2832	1086.0973	1099.487	1111.6856	1141.7091	1161.7821	1173.8824	1177.8706	1188.7868	1220.147	1241.4504	1251.2417	1271.9472	1278.1771	1332.2282	1357.1642	1447.4935	1460.8981	1482.9082	1496.3808	1499.3252	2928.7947	2989.3248	3000.5441	3061.3275	3068.6035	3090.5869	3104.7672	3165.5707	3399.5294	3730.4964
CN1CC23NC(C2O)C13	CN1C[C@@]23N[C@@H]([C@H]2O)[C@@H]13	
InChI=1S/C6H10N2O/c1-8-2-6-4(8)3(7-6)5(6)9/h3-5,7,9H,2H2,1H3	InChI=1S/C6H10N2O/c1-8-2-6-4(8)3(7-6)5(6)9/h3-5,7,9H,2H2,1H3/t3-,4-,5-,6+/m1/s1
