17
gdb 31065	2.52479	1.3021	0.88029	1.0378	73.88	-0.1602	0.0494	0.2096	1290.5867	0.135755	-455.150727	-455.141344	-455.1404	-455.185026	34.225	
C	 0.0616664508	 1.393838989	-0.234496299	-0.321074
N	-0.0343794176	 0.0868986504	 0.4051920861	-0.400747
C	-1.2234141545	-0.6296521294	 0.2205135489	 0.203735
C	-1.339978443	-1.9669575281	 0.0217600761	 0.226441
O	-0.4178729243	-2.931695729	-0.1973205006	-0.430729
O	-2.6747954872	-2.3331985711	-0.042653054	-0.196653
C	-3.3899064079	-1.1941078476	 0.1069553198	 0.384233
N	-4.7694691558	-1.3653157611	 0.1591527221	-0.593902
C	-2.5744969609	-0.1147311497	 0.2649212697	-0.355497
H	 1.049069612	 1.8162926319	-0.0294821513	 0.119262
H	-0.0914894139	 1.3728162666	-1.3256367957	 0.106617
H	-0.6803881414	 2.0730143871	 0.1961164452	 0.128839
H	 0.7606547935	-0.4967861094	 0.1768892309	 0.231591
H	-0.3438895321	-3.498126496	 0.5820663265	 0.301876
H	-5.0993337521	-2.0471558366	-0.5141129694	 0.252656
H	-5.2639535383	-0.4915265496	 0.0402196346	 0.251531
H	-2.8833265874	 0.9081248125	 0.4060565701	 0.091821
55.0354	147.5065	170.9339	193.3003	217.238	241.0179	279.5197	323.3565	354.3258	389.9841	548.3744	586.1461	636.4682	661.8665	676.7043	713.6928	726.4794	767.8577	843.3084	1012.4024	1041.947	1100.5736	1112.7127	1153.2955	1181.3882	1216.5645	1243.9061	1283.6555	1389.8246	1449.0527	1475.9168	1493.7583	1495.077	1519.6205	1617.1969	1669.0612	1733.0205	2972.0725	3072.926	3112.7764	3262.0159	3530.7251	3558.8406	3635.2877	3722.9441
CNC1=C(O)OC(N)=C1	CNc1c(O)oc(N)c1	
InChI=1S/C5H8N2O2/c1-7-3-2-4(6)9-5(3)8/h2,7-8H,6H2,1H3	InChI=1S/C5H8N2O2/c1-7-3-2-4(6)9-5(3)8/h2,7-8H,6H2,1H3
