21
gdb 104870	2.124	1.58648	1.19107	1.7612	79.1	-0.237	0.0139	0.2509	1155.1013	0.18149	-424.231032	-424.221506	-424.220562	-424.265494	35.531	
C	-0.0855051175	 1.5530342136	-0.1591377034	-0.393738
C	 0.020133346	 0.0282984346	-0.0931515359	-0.203855
C	 0.8318899005	-0.6107082564	-1.2365351499	 0.295022
C	 0.7682207894	-2.149695423	-1.1238855947	-0.08378
O	 1.315981693	-2.788345353	-2.2535425578	-0.425821
O	 0.247281851	-0.2649564038	-2.5165799103	-0.320756
C	 1.16671247	 0.4919621064	-3.3058459025	-0.137404
C	 2.4336825155	 0.5300531492	-2.5001985588	-0.099803
C	 2.2445043604	-0.0902861735	-1.3436082049	-0.087648
H	 0.896647337	 2.0306679282	-0.0957032704	 0.11668
H	-0.5529887991	 1.8633834673	-1.0978094234	 0.128024
H	-0.698439984	 1.9327870806	 0.6636858014	 0.111315
H	 0.4722414373	-0.2794479752	 0.8590670305	 0.09551
H	-0.9857798523	-0.4075809469	-0.1136890441	 0.104314
H	 1.3426457918	-2.482538711	-0.2525738638	 0.104204
H	-0.2816182962	-2.4448348229	-0.9644006581	 0.086372
H	 0.8692073968	-2.3867524789	-3.0087751056	 0.285157
H	 1.3004617506	 0.0061285231	-4.2840175939	 0.1062
H	 0.7614723659	 1.4980382285	-3.496900628	 0.107644
H	 3.3425131669	 1.0043710419	-2.8480510607	 0.10807
H	 2.971322357	-0.2267096789	-0.5526410257	 0.104295
70.6516	87.8983	120.9162	186.6971	214.9699	235.8539	294.1438	366.8919	390.3044	415.2303	468.4439	586.6226	639.6458	736.189	765.1553	787.559	818.5114	888.9979	954.5524	958.8029	967.4169	996.9905	1040.041	1044.8629	1052.3673	1096.9928	1105.0326	1119.6451	1165.2858	1203.2675	1211.9923	1245.7155	1309.142	1349.7941	1363.6156	1378.6746	1400.5171	1408.5313	1428.1987	1473.6599	1494.7803	1498.588	1507.9916	1521.0591	1695.0257	2972.6284	2978.3798	3000.2648	3021.5021	3043.527	3059.2041	3072.778	3110.6999	3119.0093	3204.6132	3229.2739	3785.611
CCC1(CO)OCC=C1	CC[C@@]1(CO)OCC=C1	
InChI=1S/C7H12O2/c1-2-7(6-8)4-3-5-9-7/h3-4,8H,2,5-6H2,1H3	InChI=1S/C7H12O2/c1-2-7(6-8)4-3-5-9-7/h3-4,8H,2,5-6H2,1H3/t7-/m1/s1
