15
gdb 27851	2.06294	1.86342	0.98003	1.0735	73.28	-0.2092	0.0156	0.2247	1127.0203	0.115887	-450.222696	-450.214943	-450.213999	-450.254462	30.866	
N	-0.0511782219	 1.3465736682	 0.15238393	-0.569641
C	 0.0202887902	-0.0183162344	 0.0478320005	 0.40512
N	-1.1546218387	-0.6634575432	 0.0021676318	-0.391652
C	-1.0881240783	-1.9967879453	-0.0529298437	 0.427866
N	-2.277961458	-2.6657178866	-0.1474767591	-0.557189
H	-3.0993824635	-2.1485507467	 0.1178500991	 0.257461
H	-2.2569310204	-3.6471758124	 0.0731536168	 0.256834
N	 0.0221740389	-2.7511989523	-0.060845806	-0.428241
C	 1.1672079321	-2.0726446595	-0.0195897786	 0.439612
O	 2.3005513617	-2.7982869528	-0.0291203435	-0.418758
C	 1.2495065204	-0.689007788	 0.0333598332	-0.317708
H	 0.7562372471	 1.8841734445	-0.1157155436	 0.254658
H	-0.9459586248	 1.746440525	-0.0825531602	 0.255914
H	 2.0180325742	-3.7225790483	-0.0718389536	 0.294562
H	 2.2018538209	-0.179193138	 0.075675127	 0.091162
180.3546	211.5406	230.79	325.7043	340.148	410.8821	427.4174	478.324	486.4746	529.4881	545.0183	564.0845	576.3764	662.112	718.3233	722.307	792.36	825.4179	986.5467	1004.83	1041.4974	1123.2581	1171.2451	1206.8066	1271.3234	1357.522	1484.488	1491.9407	1505.8103	1616.4576	1625.0583	1648.6074	1670.0455	3221.9101	3594.0627	3606.7224	3715.0765	3733.8987	3764.186
NC1=NC(=[NH2+])[N-]C(O)=C1	Nc1nc(N)nc(O)c1	
InChI=1S/C4H5N4O/c5-2-1-3(9)8-4(6)7-2/h1H,(H4-,5,6,7,8,9)/q-1/p+1	InChI=1S/C4H6N4O/c5-2-1-3(9)8-4(6)7-2/h1H,(H5,5,6,7,8,9)
