16
gdb 116742	5.31138	0.64031	0.59779	3.4413	72.17	-0.245	-0.096	0.149	1801.872	0.119765	-475.022247	-475.012004	-475.01106	-475.060705	33.005	
C	 0.1990501592	 1.1119320384	-0.2371739569	-0.251687
O	-0.7520983427	 0.2987747321	 0.4432365579	-0.186509
C	-1.0268308358	-0.8817029765	-0.1298980943	 0.1482
N	-1.8555516967	-1.6707604316	 0.3972601424	-0.196295
C	-2.1297412811	-2.901388946	-0.2941414553	-0.28634
C	-3.3750438983	-2.8062596831	-1.1650109391	 0.293036
O	-3.8470288846	-1.7790991198	-1.5862153222	-0.263911
C	-4.035493983	-4.1328235719	-1.5667903472	 0.086426
O	-3.6339921494	-5.2108208462	-1.2157510889	-0.215071
H	 0.3131599893	 2.0147799703	 0.3631636394	 0.15117
H	 1.1702627118	 0.6095417623	-0.3189772002	 0.129504
H	-0.1547964631	 1.3873171626	-1.2374665707	 0.134437
H	-0.4672564635	-1.0833051812	-1.0575620175	 0.076037
H	-1.3207063691	-3.2324983086	-0.9746129676	 0.121788
H	-2.2695403247	-3.721313986	 0.4178219268	 0.147744
H	-4.9196222481	-3.9887859948	-2.2232250768	 0.111469
12.9406	43.8834	55.7071	127.8257	144.3386	171.0369	211.357	229.5479	337.1664	437.0701	463.9734	500.3718	548.2971	689.6532	802.5992	896.8159	1000.606	1038.4465	1050.3504	1096.5244	1162.4917	1176.7767	1186.3402	1228.857	1295.1175	1359.2765	1366.6766	1415.2464	1459.8115	1487.2795	1495.7963	1499.6781	1775.0518	1812.5462	1822.9526	2923.78	2924.2215	2987.1213	3020.2138	3077.7793	3084.8546	3150.3181
COC=NCC(=O)C=O	COC=NCC(=O)C=O	
InChI=1S/C5H7NO3/c1-9-4-6-2-5(8)3-7/h3-4H,2H2,1H3	InChI=1S/C5H7NO3/c1-9-4-6-2-5(8)3-7/h3-4H,2H2,1H3
