25
gdb 101892	5.00825	0.48247	0.46244	2.8869	91.48	-0.2472	-0.0184	0.2289	2415.8713	0.225929	-389.515834	-389.50413	-389.503186	-389.5544	40.869	
C	 0.1878610091	 1.5168547304	 0.1939865593	-0.39256
C	 0.0035823471	 0.007837334	 0.0035533157	-0.166113
C	-1.4612745392	-0.4684899105	-0.0566525281	 0.040306
C	-2.2019658096	 0.1110804685	-1.2710244465	-0.391479
C	-1.5115354147	-2.0084986111	-0.0332155065	-0.17529
C	-2.9110796177	-2.6127976234	 0.135709456	-0.206737
C	-2.8782518459	-4.147789673	 0.251503217	-0.270874
C	-4.2670868393	-4.7385342758	 0.3119700297	 0.15896
O	-4.6835874992	-5.4470657117	 1.1917856231	-0.237937
H	 1.2475113155	 1.7681411892	 0.3034653229	 0.112973
H	-0.1963530265	 2.0903778397	-0.6548172826	 0.118429
H	-0.330022005	 1.8678047418	 1.0939484687	 0.113482
H	 0.5203481071	-0.3119200662	-0.9123157398	 0.091617
H	 0.5035286984	-0.5144170119	 0.8293423943	 0.091489
H	-1.9639195933	-0.105876533	 0.8533194566	 0.068845
H	-1.7365986139	-0.2255801582	-2.2058584496	 0.11022
H	-3.2517199802	-0.1953677143	-1.2928502173	 0.113552
H	-2.1879661117	 1.2043616411	-1.2684281407	 0.116953
H	-1.0587984503	-2.3986039758	-0.9564953809	 0.091544
H	-0.8771061662	-2.3666302777	 0.7882780236	 0.094072
H	-3.3849804474	-2.1949924006	 1.03348034	 0.109686
H	-3.5510341574	-2.3327886575	-0.7097922652	 0.104778
H	-2.3817950709	-4.5622671781	-0.6386858759	 0.116464
H	-2.3196800999	-4.4750717251	 1.133471766	 0.120445
H	-4.918962899	-4.4561636811	-0.5497386297	 0.067176
44.066	50.078	77.9325	89.8906	117.5529	131.2739	210.2334	242.109	258.6782	269.8697	322.1857	407.5476	441.8983	484.2452	530.6158	741.0824	774.5176	808.4695	824.6102	894.8309	910.3058	972.4154	985.0099	1002.2904	1033.9725	1044.6686	1065.3203	1082.2882	1154.9177	1163.5094	1181.0157	1214.8333	1250.5369	1282.3766	1302.3519	1314.3864	1333.4924	1353.5376	1381.1479	1384.0541	1394.1683	1414.6963	1416.7036	1430.2896	1464.0857	1476.7457	1487.9066	1497.6718	1498.8241	1503.2294	1508.8724	1514.7772	1836.618	2842.7244	2984.2709	3001.3893	3006.5622	3011.403	3024.6726	3030.1874	3033.0427	3035.0367	3046.0032	3065.1078	3096.4875	3097.7541	3098.2517	3105.7993	3114.1329
CCC(C)CCCC=O	CC[C@@H](C)CCCC=O	
InChI=1S/C8H16O/c1-3-8(2)6-4-5-7-9/h7-8H,3-6H2,1-2H3	InChI=1S/C8H16O/c1-3-8(2)6-4-5-7-9/h7-8H,3-6H2,1-2H3/t8-/m1/s1
