21
gdb 65080	3.0048	1.40351	1.2485	1.7337	82.55	-0.2326	0.0922	0.3248	1114.6284	0.181831	-387.0162	-387.007795	-387.006851	-387.049108	33.423	
C	-0.0130060763	 1.4851681151	 0.3034524087	-0.476826
C	-0.0382037675	-0.0063572382	 0.0325920624	 0.178286
C	 0.9472983594	-0.5965806986	-0.9485799273	-0.302345
C	 1.0991751681	-0.8677666063	 0.5292162726	-0.302357
C	-1.4008845695	-0.6095284419	 0.0619872305	 0.414061
C	-2.3950750852	-0.7789460993	 1.250438241	-0.262391
C	-2.9090447391	-1.5838820709	 0.0383231589	 0.044875
C	-2.6150312681	-0.3865193707	-0.8896710131	-0.262405
O	-1.5294167015	-2.0736567033	-0.1932845182	-0.348508
H	 1.0124082057	 1.864739483	 0.269615511	 0.117759
H	-0.597948524	 2.0370803894	-0.4412796932	 0.119431
H	-0.4230361439	 1.7192472309	 1.2926304565	 0.119409
H	 0.6042934738	-1.4154400625	-1.5700057122	 0.12936
H	 1.6483773804	 0.0798608558	-1.425995934	 0.105555
H	 1.9044844813	-0.3774744372	 1.0659632683	 0.105553
H	 0.8557934252	-1.8646030835	 0.8776947159	 0.129364
H	-2.0214982727	-1.3775500764	 2.0820976558	 0.105605
H	-2.9700025597	 0.0932062025	 1.5720692531	 0.092551
H	-3.710718622	-2.3198244747	-0.0142222294	 0.094864
H	-3.2101501376	 0.5216780766	-0.7645841572	 0.092556
H	-2.4343393867	-0.6409927499	-1.9347249201	 0.105602
61.6677	172.7487	172.9622	217.7555	286.5865	315.4877	398.8456	457.3597	516.6697	535.3671	606.482	738.2414	792.6625	797.2351	816.7716	873.7304	901.6579	922.7081	923.5331	956.4125	957.497	983.9995	987.4802	1041.552	1066.4648	1084.5677	1091.8397	1092.4627	1120.5818	1125.3711	1156.3351	1190.9552	1197.4314	1219.5153	1241.6426	1242.2856	1324.2309	1404.7434	1414.8242	1458.2903	1466.6667	1488.6592	1493.4677	1505.2984	1517.5004	3024.6898	3057.6261	3066.4186	3084.7959	3104.482	3124.6649	3132.8188	3136.4941	3143.6806	3148.3348	3219.3736	3232.7153
CC1(CC1)C12CC(C1)O2	CC1(CC1)[C@@]12C[C@@H](C1)O2	
InChI=1S/C8H12O/c1-7(2-3-7)8-4-6(5-8)9-8/h6H,2-5H2,1H3	InChI=1S/C8H12O/c1-7(2-3-7)8-4-6(5-8)9-8/h6H,2-5H2,1H3/t6-,8+
