19
gdb 68354	2.82447	1.73686	1.29268	1.0894	81.74	-0.2111	-0.0316	0.1796	1009.7319	0.161468	-385.888482	-385.881105	-385.880161	-385.91962	30.938	
O	-0.0313930708	 1.4367278111	-0.0020326326	-0.487414
C	 0.0214842463	 0.0270549211	 0.0156432154	 0.372671
C	 0.2236945946	-0.6689589524	 1.40003609	-0.280444
C	-0.8717564265	-1.7044764439	 0.9908030122	-0.067662
C	-1.3841402606	-0.6262145191	-0.0182197536	-0.254185
C	-0.3136613926	-2.9382520962	 0.3385771485	-0.085491
C	 0.5803785207	-2.95956167	-0.6637978255	-0.076495
C	 1.1742849825	-1.801858346	-1.3284708002	-0.080531
C	 0.9437289133	-0.5089787002	-1.0530287056	-0.156159
H	 0.8700950033	 1.7720773297	 0.0576525486	 0.273844
H	 1.216018204	-1.0475051031	 1.6520735457	 0.099738
H	-0.1459750901	-0.0050446411	 2.1843951031	 0.105528
H	-1.5754823678	-1.9766486476	 1.7779459795	 0.068947
H	-2.0968185793	 0.04444882	 0.46593598	 0.112071
H	-1.7694870554	-0.9611054265	-0.9820384478	 0.106679
H	-0.6673513505	-3.8907638029	 0.7246651986	 0.089271
H	 0.9019154154	-3.9283515605	-1.0370853228	 0.08534
H	 1.86429394	-2.0280992502	-2.1372339101	 0.088404
H	 1.4316575536	 0.2526155479	-1.6570498335	 0.085888
186.3345	242.2759	279.7238	307.9206	354.5662	396.4126	437.1616	464.7732	552.0549	619.3117	656.7715	708.2087	784.1333	812.471	832.4698	846.1615	853.1344	942.9206	953.2622	975.5037	987.8044	999.7736	1018.7827	1038.056	1070.7437	1130.6841	1144.6231	1177.2886	1233.0447	1244.5657	1252.2081	1259.4854	1264.9955	1363.5309	1372.5455	1413.8079	1446.2652	1465.6935	1493.5554	1656.9522	1700.186	3065.4251	3074.4064	3095.838	3133.1245	3140.5022	3141.2113	3148.8356	3163.718	3175.2688	3797.8712
OC12CC(C1)C=CC=C2	O[C@@]12C[C@@H](C1)C=CC=C2	
InChI=1S/C8H10O/c9-8-4-2-1-3-7(5-8)6-8/h1-4,7,9H,5-6H2	InChI=1S/C8H10O/c9-8-4-2-1-3-7(5-8)6-8/h1-4,7,9H,5-6H2/t7-,8-
