18
gdb 41542	4.18943	1.56921	1.46274	2.0619	73.59	-0.2133	0.0693	0.2826	928.1416	0.150374	-401.853756	-401.847563	-401.846619	-401.884189	26.125	
C	-0.0411786208	 1.5196988542	 0.4050005548	-0.257813
C	 1.4271883441	 1.6107629523	-0.0864643524	-0.165016
N	 1.4320465263	 0.1553376944	-0.4496142557	-0.115663
C	-0.0265896334	 0.0384776461	-0.0545212932	 0.003682
C	-0.6612344168	-0.3386460772	-1.3788442576	-0.063967
C	 0.0427041635	 0.4405344285	-2.5304818451	 0.032851
O	-0.0189069456	-0.7237340925	-3.4207731941	-0.314279
C	 0.357696649	-1.2732109731	-2.1180044699	 0.044117
C	 1.3614421908	-0.1147811151	-1.8677798767	-0.029808
H	-0.1688266887	 1.6556437395	 1.4802447481	 0.110711
H	-0.7570251536	 2.1604669717	-0.1146992101	 0.106971
H	 1.5921943746	 2.2771882187	-0.9406438243	 0.102186
H	 2.1655717833	 1.8475910717	 0.6843174866	 0.108926
H	-0.2131151696	-0.7013335921	 0.7302847673	 0.08176
H	-1.726574984	-0.5507648589	-1.4549846799	 0.081787
H	-0.1916205044	 1.415755685	-2.957405038	 0.091319
H	 0.5008184695	-2.3502214645	-2.0325345563	 0.095328
H	 2.2948497759	-0.0760314486	-2.4276141935	 0.086907
141.4371	213.9932	338.9109	491.6073	496.2721	651.1061	668.6847	746.4951	774.5365	780.797	807.2595	856.7709	877.0863	896.891	903.946	944.5804	966.5165	977.6042	982.6985	1037.808	1045.7635	1081.4492	1104.4571	1127.5269	1155.1863	1158.4295	1178.5394	1205.5626	1210.848	1227.3672	1240.602	1259.2249	1271.5688	1275.7136	1308.2699	1354.0274	1362.1068	1488.6972	1511.8865	3034.0138	3052.0329	3072.0993	3084.2852	3113.5259	3119.8068	3126.7805	3137.3729	3144.2454
C1CN2C1C1C3OC1C23	C1CN2[C@@H]1[C@H]1[C@@H]3O[C@H]1[C@H]23	
InChI=1S/C7H9NO/c1-2-8-3(1)4-6-5(8)7(4)9-6/h3-7H,1-2H2	InChI=1S/C7H9NO/c1-2-8-3(1)4-6-5(8)7(4)9-6/h3-7H,1-2H2/t3-,4-,5+,6-,7+/m0/s1
