20
gdb 67454	2.27452	1.87938	1.82526	1.2864	77.22	-0.213	0.0781	0.2911	940.2547	0.172752	-403.113459	-403.105959	-403.105015	-403.145144	30.1	
C	-0.0036274544	 1.5050466811	 0.0422844404	-0.50683
C	 0.0043659996	 0.001820145	-0.0209618486	 0.35078
C	 0.6009965397	-0.7864553238	-1.2127879276	-0.10614
C	 1.4415969075	-1.5559097364	-0.15812891	-0.181508
N	 0.8395576326	-0.7915195402	 0.9884228181	-0.18158
C	-0.4185030951	-1.4423113761	 1.4806833048	-0.195503
C	-1.2566130157	-0.8344498847	 0.3298423529	 0.053297
O	-1.5080155747	-1.7478857897	-0.731357414	-0.278034
C	-0.5898518742	-1.5296945259	-1.805275895	-0.091772
H	 1.0063401647	 1.9066443874	-0.0875803431	 0.125436
H	-0.6434728819	 1.921290369	-0.7447226399	 0.119747
H	-0.3819557806	 1.8568713662	 1.0078173139	 0.125074
H	 1.1683836068	-0.2231654718	-1.9561623312	 0.074425
H	 1.2785118266	-2.63865137	-0.1154667856	 0.103195
H	 2.5169821393	-1.3685428324	-0.2256544089	 0.106244
H	-0.3992931567	-2.5351119745	 1.5239132644	 0.106241
H	-0.6815796502	-1.0445260341	 2.4659198574	 0.103866
H	-2.1822307912	-0.3128860051	 0.594572073	 0.07411
H	-1.0655392423	-0.9310527305	-2.5979469401	 0.092385
H	-0.3261043798	-2.5052442533	-2.229453351	 0.106566
103.7134	205.6551	212.7155	249.0008	352.7427	369.543	426.1077	578.3771	614.2931	656.0678	734.6562	810.8564	822.4472	835.8212	877.1025	910.3209	924.4314	960.2407	971.626	996.8021	1024.7786	1073.6552	1089.4639	1129.1676	1138.8605	1156.1299	1186.8756	1210.2861	1217.4269	1221.7927	1237.6941	1290.6877	1299.4441	1319.5508	1323.0018	1351.2006	1395.9209	1409.1755	1478.4682	1481.0616	1490.3536	1500.9396	1519.0186	2980.0071	3026.5877	3035.1811	3040.5983	3052.8492	3057.8606	3082.8786	3094.8167	3096.0795	3101.5369	3103.5091
CC12C3CN1CC2OC3	C[C@@]12[C@H]3CN1C[C@@H]2OC3	
InChI=1S/C7H11NO/c1-7-5-2-8(7)3-6(7)9-4-5/h5-6H,2-4H2,1H3	InChI=1S/C7H11NO/c1-7-5-2-8(7)3-6(7)9-4-5/h5-6H,2-4H2,1H3/t5-,6-,7-/m0/s1
