12
gdb 129535	5.17748	1.07281	1.00117	4.0475	56.57	-0.2864	-0.024	0.2624	1127.7041	0.077708	-505.974252	-505.966502	-505.965558	-506.008066	26.585	
N	-0.0871449088	 1.2768739978	 0.1106431908	-0.557828
C	 0.0478359053	-0.0211314208	-0.2304299727	 0.501988
O	 0.9220947387	-0.5415489188	-0.8585237644	-0.348761
O	-1.0579531884	-0.7209705066	 0.2921704675	-0.294791
C	-1.0551481826	-2.0507799484	 0.1670028776	 0.548798
N	-1.9193633186	-2.7667258109	-0.4780127619	-0.339584
C	-1.4796543808	-4.0314972934	-0.1747159175	 0.062154
N	-0.4278984466	-4.0968002716	 0.5958178123	-0.110046
O	-0.1365817263	-2.7436050714	 0.839115159	-0.187874
H	 0.5636045164	 1.9342094069	-0.2811755688	 0.286969
H	-0.9244307162	 1.6073168017	 0.5569247769	 0.284222
H	-1.9569470821	-4.9284076145	-0.541787219	 0.154754
38.4893	67.5403	126.7776	208.4261	321.2448	395.7983	451.4443	536.8931	623.8209	653.8843	692.7801	756.8709	826.1412	917.9473	924.3404	933.1678	975.8529	1055.073	1114.9721	1207.8685	1275.317	1306.5008	1350.7836	1532.6216	1609.9386	1650.2472	1903.0665	3261.7614	3628.3294	3762.1399
NC(=O)OC1=NC=NO1	NC(=O)Oc1ncno1	
InChI=1S/C3H3N3O3/c4-2(7)8-3-5-1-6-9-3/h1H,(H2,4,7)	InChI=1S/C3H3N3O3/c4-2(7)8-3-5-1-6-9-3/h1H,(H2,4,7)
