20
gdb 113015	4.72618	0.84252	0.77664	3.9692	85.67	-0.2109	-0.0035	0.2074	1512.264	0.171638	-403.190494	-403.181401	-403.180457	-403.225279	33.117	
C	 0.0898868802	 1.5511730138	-0.0079075622	-0.388069
C	-0.0005424978	 0.0235787727	 0.0040726352	-0.173919
C	-1.4473974277	-0.5118780456	-0.0029449172	-0.041007
C	-1.5129502186	-2.0712239524	-0.0302317388	-0.207933
N	-2.1057131543	-2.4405148921	 1.2670462451	-0.055786
C	-2.2569904216	-3.7098953349	 1.7395096498	 0.141864
O	-2.7732106209	-4.0002262671	 2.7990708173	-0.331743
C	-2.5363321088	-1.2838500553	 1.9301129101	 0.009794
C	-2.2271670193	-0.1767487445	 1.255159161	-0.170705
H	 1.1321075879	 1.8819607912	-0.0429555132	 0.117809
H	-0.4217204735	 1.9716471171	-0.8811747321	 0.115602
H	-0.3645426733	 1.9879063237	 0.8867863984	 0.122029
H	 0.5216064632	-0.378579392	-0.8740819205	 0.095663
H	 0.5179317604	-0.3744216023	 0.8856148664	 0.103832
H	-1.9476635557	-0.1070275443	-0.8922403747	 0.085117
H	-2.1440394532	-2.4332715841	-0.8486332661	 0.121937
H	-0.521005351	-2.5199629602	-0.1423336655	 0.120954
H	-1.8469144893	-4.4609002501	 1.0362240595	 0.07128
H	-3.0494883214	-1.4113638668	 2.8714346325	 0.154282
H	-2.4652483151	 0.8282089333	 1.571030625	 0.108998
30.6902	104.7101	142.9057	192.1411	242.0435	248.1235	273.4581	338.0789	372.5954	542.3096	562.8435	733.0977	756.0332	776.2791	815.6065	831.7207	907.6905	947.8587	952.4743	977.4318	1009.4304	1023.6894	1060.526	1112.5344	1122.1916	1147.6841	1233.9249	1243.1779	1274.6013	1303.4759	1316.9279	1328.0024	1361.937	1376.402	1413.6262	1437.8357	1447.7271	1486.832	1500.5865	1508.334	1516.8932	1682.1474	1788.136	2940.592	3010.2101	3016.1732	3034.0986	3039.4238	3055.4741	3080.781	3100.6869	3109.3267	3240.3039	3268.5393
CCC1CN(C=O)C=C1	CC[C@H]1CN(C=O)C=C1	
InChI=1S/C7H11NO/c1-2-7-3-4-8(5-7)6-9/h3-4,6-7H,2,5H2,1H3	InChI=1S/C7H11NO/c1-2-7-3-4-8(5-7)6-9/h3-4,6-7H,2,5H2,1H3/t7-/m1/s1
