20
gdb 99647	2.36064	1.17994	0.89353	3.3121	80.43	-0.2383	0.0241	0.2624	1365.8676	0.170093	-399.290535	-399.280466	-399.279522	-399.326047	35.83	
C	 0.2863185123	 1.4198917031	 0.5673322842	-0.331702
N	-0.0389581466	 0.0448285679	 0.1930292527	-0.275457
C	 0.3754861838	-0.3335247453	-1.1521628992	-0.139457
C	 1.8435385797	-0.2117820621	-1.3614735385	 0.271756
N	 2.9903952282	-0.1080995468	-1.4690217741	-0.333777
C	-0.0781069656	-1.7593421242	-1.4488835103	 0.015716
C	-1.4370035047	-1.9991056545	-2.0066230411	-0.256373
N	-0.2474019206	-2.2860188117	-2.7964802617	-0.078029
C	 0.033681051	-1.457357156	-3.9606109877	-0.324802
H	 1.3566908442	 1.6677132037	 0.4932518801	 0.127866
H	-0.267532813	 2.1104461973	-0.078176356	 0.127635
H	-0.0400993198	 1.5913674153	 1.5961215779	 0.129613
H	 0.3671269901	-0.6009877165	 0.8629651589	 0.230872
H	-0.1054397699	 0.359932675	-1.8504054079	 0.124554
H	 0.3424764489	-2.4839447967	-0.7515368671	 0.102123
H	-2.0259445636	-2.8554143307	-1.6894708375	 0.121939
H	-2.0221850085	-1.1148905386	-2.2608936649	 0.110666
H	-0.3442922749	-0.4244783809	-3.8924553044	 0.100017
H	 1.1138679297	-1.4212080923	-4.1289934374	 0.145804
H	-0.4335196509	-1.9219082461	-4.8340378059	 0.131036
49.3579	95.8139	119.4631	156.3078	182.2449	213.8819	254.6625	282.9141	308.0408	379.6982	441.3441	468.2098	550.1758	618.6166	751.0858	761.2151	859.9856	904.9029	960.5663	995.6585	1031.8803	1078.4815	1113.6316	1130.3035	1131.0784	1158.4807	1163.0278	1164.7166	1201.7383	1212.6152	1279.1973	1338.2422	1342.7413	1420.2857	1452.4796	1458.9215	1487.539	1490.1906	1494.152	1506.0649	1515.6178	1522.1943	2339.4527	2973.6717	2986.0364	3056.8072	3068.3133	3074.6119	3085.3062	3103.7966	3114.3409	3116.4816	3176.073	3519.709
CNC(C#N)C1CN1C	CN[C@@H](C#N)[C@H]1CN1C	
InChI=1S/C6H11N3/c1-8-5(3-7)6-4-9(6)2/h5-6,8H,4H2,1-2H3	InChI=1S/C6H11N3/c1-8-5(3-7)6-4-9(6)2/h5-6,8H,4H2,1-2H3/t5-,6+,9?/m0/s1
