18
gdb 56306	6.95325	0.52603	0.49358	2.197	75.38	-0.2642	0.0532	0.3174	2111.6442	0.145347	-439.09975	-439.089369	-439.088425	-439.136831	36.102	
N	-0.1679392573	 1.3034443578	-0.0995839488	-0.563997
C	 0.0649105817	-0.0416030923	-0.0321367716	 0.49179
O	 1.1541641579	-0.5645747496	-0.0132805064	-0.395862
O	-1.11447618	-0.7128398467	-0.0245721627	-0.26244
C	-0.9978540649	-2.1422308728	-0.0114695087	-0.055728
C	-2.4071278411	-2.7128540899	-0.0032936203	-0.19851
C	-2.3903596895	-4.2542555948	 0.0098449271	-0.357049
C	-3.7285910128	-4.8314847946	 0.0203450957	 0.290469
C	-4.8417687785	-5.2841914457	 0.0289934536	-0.429934
H	 0.6164825684	 1.8994617138	 0.1004487843	 0.268802
H	-1.0892707584	 1.6476725016	 0.1105588666	 0.264343
H	-0.4337503382	-2.4682462619	-0.8923243751	 0.1211
H	-0.4295164053	-2.452561465	 0.8723501849	 0.119937
H	-2.9474600867	-2.3442965909	 0.8745002898	 0.120047
H	-2.9514625974	-2.3590076566	-0.8845522244	 0.121918
H	-1.8408591592	-4.6238118319	-0.8659938515	 0.135194
H	-1.8336009889	-4.6089659882	 0.8872741032	 0.13468
H	-5.8201377798	-5.6962168322	 0.0363904743	 0.19524
26.6041	73.466	79.9241	95.4744	172.1126	174.0856	298.1604	328.3123	341.6929	345.7359	488.6769	526.1046	533.1117	618.12	638.8342	675.3399	752.9337	784.5187	858.3581	911.8257	970.2967	1041.4118	1075.3121	1108.3607	1115.6487	1122.6192	1221.7511	1273.8577	1297.1026	1310.1543	1345.6907	1375.753	1432.2174	1475.5486	1498.5565	1522.7868	1612.3208	1835.2333	2241.4997	3015.4996	3037.6349	3044.108	3055.5368	3074.0841	3105.661	3508.1182	3615.1328	3744.847
NC(=O)OCCCC#C	NC(=O)OCCCC#C	
InChI=1S/C6H9NO2/c1-2-3-4-5-9-6(7)8/h1H,3-5H2,(H2,7,8)	InChI=1S/C6H9NO2/c1-2-3-4-5-9-6(7)8/h1H,3-5H2,(H2,7,8)
