16
gdb 86878	2.85157	1.23863	1.02233	3.6035	66.94	-0.2484	-0.0483	0.2	1158.3403	0.123993	-475.061134	-475.052695	-475.051751	-475.095263	30.245	
O	-0.2234156825	 1.4045042613	-0.2905840651	-0.429643
C	-0.0609490928	 0.030190212	 0.0344789855	 0.036575
C	-1.4325641618	-0.635999679	 0.0060076729	-0.20106
N	-1.6239355614	-1.0085096749	-1.3970953554	-0.057384
C	-0.360795624	-1.2699639904	-2.0656047051	-0.274442
C	 0.6830613655	-0.6395021546	-1.1442542671	 0.356212
O	 1.8715202563	-0.6140236493	-1.3188040344	-0.303804
C	-2.7667026482	-0.7890001737	-2.1026086173	 0.147314
O	-2.8783971666	-0.9566326318	-3.2981707296	-0.331795
H	 0.6547069185	 1.7781289757	-0.4320395899	 0.301013
H	 0.4711849411	-0.1111314231	 0.9824609241	 0.096296
H	-1.434485848	-1.5214089958	 0.6556452829	 0.118947
H	-2.2197381319	 0.0446548582	 0.3371321792	 0.142193
H	-0.1486115927	-2.341506223	-2.1815617509	 0.147059
H	-0.3546876604	-0.825390112	-3.0650509773	 0.173815
H	-3.594611261	-0.4430416597	-1.4532719623	 0.078704
42.7517	66.8423	202.5571	220.7075	239.175	333.3537	373.2144	390.9028	464.4445	519.3628	581.957	637.3561	745.8402	814.1954	887.1623	911.5392	984.5073	1006.0068	1030.9231	1098.1895	1141.295	1160.8312	1207.4319	1218.985	1238.5232	1303.4558	1324.3835	1363.4039	1402.9017	1421.2357	1441.3601	1472.2981	1495.1803	1793.8247	1860.5597	2943.1903	3014.8173	3022.1892	3045.1774	3095.1237	3113.4454	3796.1225
OC1CN(CC1=O)C=O	O[C@H]1CN(CC1=O)C=O	
InChI=1S/C5H7NO3/c7-3-6-1-4(8)5(9)2-6/h3-4,8H,1-2H2	InChI=1S/C5H7NO3/c7-3-6-1-4(8)5(9)2-6/h3-4,8H,1-2H2/t4-/m0/s1
