21
gdb 122388	4.55287	0.67131	0.65839	1.8815	78.99	-0.2334	0.0769	0.3103	1757.6956	0.181991	-424.170278	-424.160902	-424.159958	-424.205669	34.138	
O	-0.1076388885	 1.3929785433	 0.3238597911	-0.422451
C	 0.008700845	 0.0110636032	 0.0177869215	-0.076287
C	-1.3797804825	-0.6080358221	 0.0988402722	-0.159815
C	-1.385141929	-2.1040911354	-0.2392664093	-0.230023
C	-2.7712020904	-2.7052559119	-0.1396177164	-0.024142
C	-3.0912113074	-4.1914690868	-0.1134379829	-0.170172
C	-2.0940364896	-4.9311248537	 0.7714046281	-0.091418
O	-2.2940723662	-3.98881471	 1.8596039453	-0.283509
C	-3.3194156063	-3.3266250429	 1.1097856676	 0.087533
H	 0.7713561895	 1.7815892768	 0.2965504758	 0.284227
H	 0.4247381114	-0.1388180673	-0.9927556718	 0.080593
H	 0.6837786609	-0.4987213183	 0.7247321721	 0.086034
H	-1.7741521609	-0.4525367885	 1.1097241089	 0.112512
H	-2.0421990629	-0.0613444766	-0.5840054092	 0.100609
H	-0.9897057457	-2.2567897608	-1.2525074164	 0.092717
H	-0.7150654865	-2.6319251926	 0.4476020218	 0.114402
H	-3.5385048399	-2.1575208139	-0.6864379433	 0.087891
H	-3.7951657177	-4.6555723483	-0.7911196691	 0.096068
H	-2.4370341263	-5.9289743396	 1.0670775863	 0.109558
H	-1.0480185433	-4.9828033721	 0.4468985887	 0.104357
H	-4.2112430034	-3.0191419124	 1.6443955489	 0.101314
47.8541	74.433	110.5319	125.247	224.8893	248.8572	263.4144	339.0241	396.5422	504.048	602.4502	741.8559	763.6195	788.7395	806.5263	864.12	922.9181	960.8366	974.1265	1000.6009	1021.3072	1041.1549	1042.6492	1057.6607	1080.9856	1083.6871	1092.376	1142.4031	1165.2985	1190.3262	1225.1947	1238.2516	1260.8844	1300.8522	1307.1332	1315.7951	1325.8733	1353.8191	1386.7553	1449.4837	1463.8847	1480.1381	1498.825	1517.8001	1528.3474	2955.2923	2981.4861	3016.0105	3024.1367	3031.0645	3065.2276	3070.8634	3084.9995	3118.6897	3173.7515	3200.9958	3830.8479
OCCCC1C2COC12	OCCC[C@H]1[C@H]2CO[C@@H]12	
InChI=1S/C7H12O2/c8-3-1-2-5-6-4-9-7(5)6/h5-8H,1-4H2	InChI=1S/C7H12O2/c8-3-1-2-5-6-4-9-7(5)6/h5-8H,1-4H2/t5-,6+,7-/m0/s1
