17
gdb 67095	2.7122	2.13221	1.77857	1.3562	76.31	-0.2111	0.0069	0.218	846.5585	0.136617	-384.580634	-384.57403	-384.573086	-384.611019	28.098	
O	 0.2111181057	 1.3716645108	-0.1057161414	-0.471158
C	 0.126787965	 0.0009388324	-0.0584446759	 0.44561
C	 0.4343188948	-0.9620473607	 1.1301250764	-0.186354
C	-1.0624848249	-0.9466721606	 1.6090872957	-0.37434
C	-1.1612142711	-0.9260944491	 0.0656368502	 0.239941
C	-1.860269889	-0.8904919738	-1.2723448663	-0.253935
C	-0.8217947905	-0.8806673544	-2.1259265122	-0.083257
C	 0.4591010075	-0.9171270057	-1.2610577826	-0.195396
C	 0.0751265979	-1.8674745864	-0.0841727276	-0.016628
H	 0.0116117188	 1.7286138901	 0.7671730045	 0.288003
H	 1.3331700291	-1.0104261421	 1.7456031214	 0.071017
H	-1.4163593285	-1.8503586826	 2.1147452305	 0.102358
H	-1.4069107265	-0.0577680236	 2.1489034905	 0.088881
H	-2.9185327959	-0.8521783644	-1.4849417583	 0.106126
H	-0.8471512647	-0.8494861252	-3.2062977079	 0.101207
H	 1.4304024579	-0.9322460251	-1.7581948694	 0.058961
H	 0.0148687345	-2.9553064797	-0.0901611975	 0.078963
204.1419	256.3008	281.1103	371.5059	447.5492	480.4295	578.9728	623.3442	703.5574	711.3978	759.3606	795.2451	830.4816	857.9172	865.9934	884.9046	900.5263	912.0598	950.361	976.3058	1016.4584	1026.7052	1069.4483	1093.0386	1116.7632	1132.3645	1163.5069	1176.0357	1205.7439	1219.3465	1236.1344	1266.4044	1313.8946	1338.4382	1374.9826	1507.3884	1582.7166	3035.516	3093.8082	3100.3428	3106.2018	3128.2878	3222.1459	3248.5084	3802.1684
OC12C3CC11C=CC2C31	O[C@@]12[C@H]3C[C@]41C=C[C@@H]2[C@@H]34	
InChI=1S/C8H8O/c9-8-4-1-2-7(8)3-5(8)6(4)7/h1-2,4-6,9H,3H2	InChI=1S/C8H8O/c9-8-4-1-2-7(8)3-5(8)6(4)7/h1-2,4-6,9H,3H2/t4-,5+,6+,7-,8+/m1/s1
