19
gdb 107387	3.29331	1.15207	0.95413	2.2498	77.51	-0.2369	0.0058	0.2427	1277.2841	0.158395	-423.020161	-423.011404	-423.01046	-423.053635	33.208	
C	 0.0445523037	 1.5355917898	 0.135733235	-0.485766
C	-0.0610567943	 0.049957961	 0.0094894688	 0.311263
C	-0.3381553852	-0.6574991052	-1.0925104178	-0.248441
C	-0.2681695597	-2.1244198511	-0.8201876266	 0.381446
C	-0.9949327641	-3.1417341782	-1.6531489227	-0.161225
O	-0.4756755	-3.1926230443	-2.9731526986	-0.41891
O	 1.0701759635	-2.5473064968	-0.4047230666	-0.313847
C	 0.0931291901	-2.2652388854	 0.6009591419	-0.039988
C	 0.1946464838	-0.8676522899	 1.1983580006	-0.340576
H	 1.0599530135	 1.8355545079	 0.4245747716	 0.131537
H	-0.2021041828	 2.0372571759	-0.8036158455	 0.128235
H	-0.6260193336	 1.9170411551	 0.9163367068	 0.125156
H	-0.554482774	-0.2513290747	-2.0728641566	 0.104468
H	-0.9405556711	-4.122360251	-1.1577323743	 0.093932
H	-2.0507492863	-2.8679240275	-1.7520021487	 0.112459
H	 0.4649406651	-3.3874425503	-2.8910149601	 0.293465
H	-0.2016887869	-3.1132127348	 1.2144957728	 0.092782
H	 1.1785623378	-0.690854821	 1.6502494644	 0.123613
H	-0.5502543894	-0.7190667294	 1.9916028856	 0.110396
72.8502	133.9097	161.8411	186.6575	269.3725	318.3651	358.8662	416.8937	430.3713	452.9275	509.8568	618.5414	705.0348	722.456	820.7963	870.0788	879.7178	911.3334	971.115	976.6565	999.522	1012.3075	1036.9206	1070.5078	1099.0468	1156.6465	1190.9432	1193.79	1252.313	1281.2738	1328.6935	1333.9994	1380.4311	1412.6882	1422.4032	1448.207	1459.7939	1479.0131	1487.0442	1490.5301	1700.1952	2997.1597	3016.884	3022.8071	3058.8108	3064.2259	3076.0369	3114.0316	3141.4932	3211.282	3800.7771
CC1=CC2(CO)OC2C1	CC1=C[C@@]2(CO)O[C@H]2C1	
InChI=1S/C7H10O2/c1-5-2-6-7(3-5,4-8)9-6/h3,6,8H,2,4H2,1H3	InChI=1S/C7H10O2/c1-5-2-6-7(3-5,4-8)9-6/h3,6,8H,2,4H2,1H3/t6-,7-/m0/s1
