16
gdb 6672	7.87176	0.75221	0.69573	4.2802	63.28	-0.2525	-0.0316	0.221	1541.3833	0.125169	-420.884567	-420.874875	-420.873931	-420.921261	31.069	
C	-0.0850984698	 1.4893168186	-0.1281128881	-0.484406
C	 0.0761216775	-0.017588054	-0.0334420523	 0.35975
O	 1.1468529406	-0.5675209273	-0.0611147913	-0.265725
C	-1.2331489001	-0.7962625319	 0.095096103	-0.155106
O	-0.981179603	-2.1700572726	 0.073411463	-0.225123
C	-2.1350000767	-2.9591049737	 0.2115835081	-0.14294
C	-1.7119648033	-4.4190307271	 0.1787721984	 0.137522
O	-2.4871990999	-5.3337171455	 0.2586623718	-0.236525
H	 0.8909375142	 1.9665646359	-0.0361843704	 0.151487
H	-0.5231291872	 1.7554351562	-1.0973827829	 0.147155
H	-0.7613946342	 1.8691366437	 0.645165861	 0.136451
H	-1.7271981695	-0.4865718941	 1.0345313731	 0.112246
H	-1.9115810558	-0.4903576546	-0.7219659257	 0.109646
H	-2.6599032899	-2.7640744734	 1.1624472993	 0.123341
H	-2.8615278277	-2.7813199818	-0.5993928906	 0.123197
H	-0.6146998352	-4.5619034385	 0.0749384437	 0.109027
36.6427	54.0526	80.2289	96.2214	100.2923	135.6421	258.7665	304.0468	442.3723	479.7493	519.6996	627.3023	742.4369	832.7132	866.2955	945.0709	1027.7657	1093.1404	1098.0342	1117.9692	1179.634	1209.9528	1235.1943	1263.803	1342.1383	1381.7695	1395.64	1421.4167	1462.4739	1468.2039	1477.3173	1503.9885	1838.5019	1845.7547	2912.6657	2939.9955	2961.3751	2962.985	2990.9916	3037.2088	3098.0439	3155.536
CC(=O)COCC=O	CC(=O)COCC=O	
InChI=1S/C5H8O3/c1-5(7)4-8-3-2-6/h2H,3-4H2,1H3	InChI=1S/C5H8O3/c1-5(7)4-8-3-2-6/h2H,3-4H2,1H3
