19
gdb 65585	2.82069	1.3583	1.21747	2.7622	78.38	-0.2665	0.0299	0.2964	1105.42	0.161431	-382.077793	-382.069548	-382.068604	-382.110506	32.282	
N	-0.0493496946	 1.4304748398	 0.0451293715	-0.538332
C	-0.007280162	-0.032827447	 0.0076856605	 0.135477
C	 0.6278726186	-0.6243404207	 1.3015991818	-0.265119
C	-0.0255142949	-1.9926774467	 1.4805297571	-0.022113
C	-1.3669194666	-2.0365290043	 2.1667449921	-0.285925
C	-1.3037188127	-2.0084542881	 0.6609565562	-0.022113
C	-1.4376279588	-0.6498338247	-0.0227797291	-0.265119
C	 0.7514860401	-0.5302371997	-1.1661080349	 0.246491
N	 1.3512306666	-0.871407924	-2.0949101648	-0.350271
H	 0.896190342	 1.8041401336	 0.0674623672	 0.240689
H	-0.4706256455	 1.7872693949	-0.8089167111	 0.240689
H	 1.7155356988	-0.6908097878	 1.2227362045	 0.117348
H	 0.3936446238	 0.0606344843	 2.1234288369	 0.117175
H	 0.6111161379	-2.8675625884	 1.5310775066	 0.094919
H	-1.6595064012	-2.9672823851	 2.6409786516	 0.114038
H	-1.7098566682	-1.1448179178	 2.6844231527	 0.112722
H	-1.5999205762	-2.8948523745	 0.113379729	 0.094919
H	-2.0986687052	 0.0298720135	 0.5253832465	 0.117175
H	-1.818531152	-0.7344278973	-1.0432723144	 0.117349
72.5975	160.7762	186.0599	246.2723	304.0694	357.4268	365.6754	422.7273	492.3171	574.1095	640.3175	686.739	719.0027	785.3577	816.5317	879.1431	886.6474	904.9383	908.0212	945.146	974.1037	1027.1139	1042.6247	1072.2934	1085.3503	1109.9878	1149.4682	1166.1229	1211.5252	1211.801	1271.4636	1284.3244	1314.6635	1333.1989	1355.829	1385.5497	1481.8155	1486.819	1500.9784	1661.6586	2335.7425	3048.5438	3051.5713	3105.4314	3106.5287	3118.439	3178.0925	3184.1994	3208.7287	3483.192	3559.0945
NC1(CC2CC2C1)C#N	N[C@]1(C[C@H]2C[C@H]2C1)C#N	
InChI=1S/C7H10N2/c8-4-7(9)2-5-1-6(5)3-7/h5-6H,1-3,9H2	InChI=1S/C7H10N2/c8-4-7(9)2-5-1-6(5)3-7/h5-6H,1-3,9H2/t5-,6+,7+
