16
gdb 131690	1.99106	1.54702	0.91422	2.8284	66.69	-0.2523	-0.0087	0.2436	1220.4245	0.123818	-475.000733	-474.991859	-474.990914	-475.035357	31.192	
O	-0.0121786357	 1.3387964489	-0.0983584354	-0.420415
C	 0.0143553948	-0.0792358519	-0.0876861111	-0.204735
C	-1.3955305606	-0.5661724413	-0.0179921005	 0.094952
C	-2.5389775465	 0.1629252455	 0.0094148332	 0.006893
O	-3.6146363413	-0.6428462823	 0.0589580506	-0.171597
N	-3.1854325403	-1.9619837617	 0.059228501	-0.202835
C	-1.8742537389	-1.9124800976	 0.0221079471	 0.267186
C	-1.067670822	-3.1769991064	-0.0040831646	-0.182658
O	-0.1637799117	-3.2093351738	-1.1031817325	-0.411485
H	 0.8925084371	 1.6544310424	-0.1746300881	 0.294324
H	 0.4994507289	-0.4885490592	-0.9861968119	 0.118505
H	 0.5842631977	-0.4635545014	 0.7751048999	 0.103778
H	-2.7321059942	 1.2228288793	-0.000776221	 0.165501
H	-0.4385329069	-3.2427966697	 0.8902166763	 0.125802
H	-1.7495084652	-4.0368021329	 0.0023011217	 0.125244
H	-0.6900647253	-3.2068073878	-1.9100337545	 0.291541
53.8977	68.9141	137.4775	194.775	221.9119	266.6421	288.0127	378.1469	415.7383	494.1826	614.5436	640.2751	719.507	786.4072	848.8578	919.4352	954.4607	979.8787	1047.7009	1061.9355	1078.3059	1141.0547	1191.0169	1201.6392	1224.7496	1244.0302	1293.2192	1368.1377	1412.2417	1435.6994	1469.8439	1494.8172	1514.4266	1521.5737	1659.796	2960.4853	3003.9715	3027.747	3076.8695	3286.8459	3809.3955	3841.2542
OCC1=CON=C1CO	OCc1conc1CO	
InChI=1S/C5H7NO3/c7-1-4-3-9-6-5(4)2-8/h3,7-8H,1-2H2	InChI=1S/C5H7NO3/c7-1-4-3-9-6-5(4)2-8/h3,7-8H,1-2H2
