16
gdb 133500	2.28565	1.3416	1.11949	2.625	58.03	-0.2602	-0.0298	0.2305	1122.3178	0.117797	-569.424434	-569.414778	-569.413834	-569.460055	33.672	
C	 0.1845127703	 1.7475746019	-0.2355394733	-0.407711
C	-0.1053454658	 0.286633582	 0.1222574677	-0.225572
C	-1.6266885669	 0.0013918662	 0.1445085589	 0.379308
C	-2.1034148544	-1.0726724716	 1.0972104661	-0.487665
O	-2.3772002215	 0.6331965528	-0.5571906503	-0.287305
C	 0.5806769224	-0.655451003	-0.8665283705	 0.287792
F	 1.911386066	-0.4846248208	-0.8540621245	-0.076804
F	 0.3489564625	-1.9484615189	-0.5667334446	-0.085296
F	 0.1585408411	-0.4550461615	-2.1197843221	-0.069022
H	 1.2601613813	 1.9202061303	-0.310174369	 0.130818
H	-0.2900618903	 1.9999703768	-1.1845504403	 0.158299
H	-0.2224174382	 2.4092216643	 0.5325317248	 0.127419
H	 0.3167199488	 0.0320015966	 1.1006627158	 0.110259
H	-1.9230117974	-0.7503403418	 2.1302138719	 0.143549
H	-3.1695500612	-1.2512984091	 0.9547930222	 0.146852
H	-1.5361096567	-1.9951922543	 0.9474002971	 0.155077
31.6225	73.7666	140.1057	169.4294	191.7516	231.4939	264.6248	329.1602	338.8969	435.8247	514.9399	530.2067	580.988	605.6282	683.5922	775.6312	837.7429	952.9862	987.7518	1045.1077	1076.4793	1116.6744	1148.7741	1189.879	1209.7822	1271.4707	1335.4377	1356.9458	1383.8816	1410.1009	1464.8751	1476.9662	1495.3676	1497.5761	1823.6326	3038.6582	3060.5171	3064.306	3111.1849	3135.839	3156.7706	3160.416
CC(C(C)=O)C(F)(F)F	C[C@@H](C(=O)C)C(F)(F)F	
InChI=1S/C5H7F3O/c1-3(4(2)9)5(6,7)8/h3H,1-2H3	InChI=1S/C5H7F3O/c1-3(4(2)9)5(6,7)8/h3H,1-2H3/t3-/m0/s1
