21
gdb 40642	3.34114	1.13298	1.09254	1.3979	82.49	-0.229	0.0847	0.3137	1235.812	0.184398	-387.059648	-387.051584	-387.05064	-387.092923	31.421	
C	-0.0852229733	 1.4498947651	-0.1366678735	-0.271593
C	 1.3071834689	 0.9363895758	 0.1329247379	-0.278137
C	 0.1572236785	-0.0341580436	 0.0135809936	 0.025166
C	-0.327396898	-0.7641705693	 1.2243414075	-0.058511
C	-1.6762690316	-1.4760154325	 1.2970237767	-0.099628
C	-2.4040806042	-1.8009286113	-0.0078722773	-0.25711
C	-1.6189111342	-3.0195655547	-0.5381448133	-0.062664
O	-0.3047685487	-2.9285822388	 0.0245296802	-0.258069
C	-0.399603308	-2.271881692	 1.2643400819	 0.062149
H	-0.6009480973	 1.9605837281	 0.6701325955	 0.108237
H	-0.3106814259	 1.8405961192	-1.123178643	 0.107708
H	 2.0358666116	 0.9702766591	-0.6694300824	 0.111133
H	 1.7277018535	 1.1050818474	 1.1191641202	 0.108551
H	 0.1369369472	-0.6207250801	-0.8980753902	 0.093378
H	-0.0334431829	-0.3028621168	 2.1655844534	 0.078473
H	-2.256658912	-1.3784423979	 2.2068957734	 0.086207
H	-3.4542254311	-2.0452116517	 0.1720356694	 0.102149
H	-2.3753475515	-0.9655716047	-0.714501262	 0.112555
H	-2.0968914596	-3.9583982289	-0.2194891716	 0.094025
H	-1.5124682896	-3.0396132936	-1.6266484163	 0.106255
H	-0.0155740617	-2.8413520489	 2.10585028	 0.08973
52.069	113.1812	152.0042	213.943	292.0708	310.2868	526.3424	568.4572	641.0251	724.0365	751.611	767.2954	802.5424	830.2187	860.2265	883.2643	920.5124	931.2005	955.3135	980.9904	992.8312	1038.4648	1054.828	1063.9021	1076.6157	1082.2078	1110.6138	1137.2503	1144.2509	1161.0847	1199.5259	1221.1287	1225.4844	1240.8371	1245.0479	1300.7643	1310.5451	1319.4692	1372.9262	1396.4166	1458.1441	1470.4399	1499.058	1506.7916	1519.5623	2987.3047	3053.2666	3083.231	3101.0168	3118.7193	3126.6551	3131.6759	3143.8794	3170.3516	3175.7106	3204.2605	3220.4416
C1CC1C1C2CCOC12	C1CC1[C@H]1[C@H]2CCO[C@@H]12	
InChI=1S/C8H12O/c1-2-5(1)7-6-3-4-9-8(6)7/h5-8H,1-4H2	InChI=1S/C8H12O/c1-2-5(1)7-6-3-4-9-8(6)7/h5-8H,1-4H2/t6-,7+,8-/m1/s1
