19
gdb 38639	2.86975	2.07731	1.76077	1.3424	77.13	-0.235	0.0164	0.2514	862.2828	0.164618	-385.916102	-385.910146	-385.909201	-385.946003	26.344	
C	-0.0405873414	 1.5684313716	-0.039027786	-0.225648
C	 1.4750034817	 1.8818151812	 0.0267317676	 0.071023
C	 2.0683462725	 1.514690572	 1.4097397185	-0.225648
C	 1.9460717196	-0.047783276	 1.3881129438	-0.075466
C	 0.7570706437	-0.5716583283	 2.1591981414	-0.085447
C	-0.3423951365	-0.5436415083	 1.4039018443	-0.085447
C	-0.0306917221	 0.0025920552	 0.0301430106	-0.075466
C	 1.5085462379	-0.2470735108	-0.101065343	 0.082815
O	 2.0274048143	 0.8605524923	-0.8152687898	-0.256933
H	-0.6138780631	 2.0251987843	 0.7711425743	 0.097953
H	-0.4440510177	 1.919277289	-0.9927041192	 0.102179
H	 1.7612141573	 2.8633664841	-0.3534876133	 0.072745
H	 3.1147915449	 1.8285880428	 1.4521063785	 0.102179
H	 1.533584785	 1.970472473	 2.2463804081	 0.097953
H	 2.8916713011	-0.5308176599	 1.6423118389	 0.069353
H	 0.809627398	-0.8791136462	 3.1974753636	 0.093252
H	-1.340589304	-0.8243211493	 1.7203472829	 0.093252
H	-0.6232633131	-0.4412489153	-0.7723296978	 0.069353
H	 1.807969582	-1.1827472513	-0.5716398334	 0.077997
240.9551	282.0913	397.1296	495.4886	544.4523	573.9667	624.2067	740.6732	759.8508	775.7061	819.4405	820.4514	838.0348	884.7645	916.4339	921.6332	967.5345	979.546	996.3313	1005.1407	1027.8023	1043.1745	1059.0345	1066.9608	1127.5785	1133.4212	1161.7033	1180.4077	1257.8474	1261.788	1269.2069	1281.9298	1305.7637	1306.4873	1336.4849	1337.3693	1365.4251	1373.9569	1477.3525	1487.1502	1668.9561	3058.8775	3059.4707	3083.4311	3083.8893	3108.7169	3111.5395	3116.231	3131.4931	3183.0722	3208.4351
C1C2CC3C=CC1C3O2	C1[C@H]2C[C@H]3C=C[C@@H]1[C@H]3O2	
InChI=1S/C8H10O/c1-2-6-4-7-3-5(1)8(6)9-7/h1-2,5-8H,3-4H2	InChI=1S/C8H10O/c1-2-6-4-7-3-5(1)8(6)9-7/h1-2,5-8H,3-4H2/t5-,6+,7-,8+
