21
gdb 90119	3.47054	1.52184	1.33342	1.6073	82.07	-0.2388	0.083	0.3218	1049.5539	0.184322	-387.042738	-387.03526	-387.034316	-387.074106	31.179	
C	-0.5304980167	 1.4422659139	 0.0823606019	-0.403919
C	 0.0075459511	 0.0190040722	 0.0241330055	 0.011068
C	 1.1319566022	-0.2948745857	-1.0459665452	-0.357428
C	 2.1020175321	-0.4225514857	 0.1207130186	 0.444482
C	 3.2904265019	-1.2101858238	 0.6602384052	-0.31681
C	 3.1662310737	-0.6453896746	 2.1313895002	-0.21003
C	 1.9900763684	 0.3619926581	 1.9036075762	 0.048857
O	 2.395735062	 0.9369089938	 0.6307160864	-0.337449
C	 0.9639493578	-0.5048945592	 1.1684004363	-0.067028
H	 0.2834987274	 2.1656994672	 0.1542062733	 0.139495
H	-1.1169806931	 1.6698526489	-0.8151829664	 0.107182
H	-1.1889687045	 1.5740796526	 0.9484694389	 0.108013
H	-0.8298014249	-0.6771696711	-0.0790318934	 0.072505
H	 0.9546089553	-1.2394014175	-1.5681496836	 0.10181
H	 1.3691943054	 0.4856982031	-1.7731568634	 0.109515
H	 3.1491215728	-2.2923829344	 0.6018913183	 0.099446
H	 4.2406797023	-0.9480583854	 0.1898642216	 0.107858
H	 2.939370554	-1.4194958091	 2.8699290181	 0.097164
H	 4.0656200158	-0.1127328779	 2.4465801963	 0.108053
H	 1.7845856525	 1.0912485728	 2.6902836704	 0.072671
H	 0.6627727045	-1.4528485982	 1.6196212248	 0.064545
165.9245	203.305	223.9242	282.2668	333.712	392.2676	446.1253	511.0812	612.3819	690.4219	720.7882	772.0454	817.7357	836.047	862.4299	866.4361	881.9248	907.4203	926.2656	948.6871	971.9308	1019.5958	1048.522	1070.3605	1091.9782	1111.3286	1154.7722	1164.2019	1183.9983	1209.6586	1228.3569	1233.092	1252.7177	1274.5079	1282.8462	1299.4834	1322.0032	1346.343	1369.5952	1403.7029	1471.4314	1477.8386	1488.0665	1498.7247	1511.7658	3028.6847	3051.5927	3059.1271	3061.1685	3068.631	3082.8489	3085.9246	3095.3491	3109.4623	3115.3246	3126.3357	3135.6825
CC1CC23CCC(O2)C13	C[C@H]1C[C@@]23CC[C@@H](O2)[C@@H]13	
InChI=1S/C8H12O/c1-5-4-8-3-2-6(9-8)7(5)8/h5-7H,2-4H2,1H3	InChI=1S/C8H12O/c1-5-4-8-3-2-6(9-8)7(5)8/h5-7H,2-4H2,1H3/t5-,6+,7+,8+/m0/s1
