14
gdb 48346	2.57433	1.3405	1.02725	1.629	64.18	-0.2634	-0.0639	0.1995	1118.8535	0.097879	-473.851339	-473.842673	-473.841729	-473.88577	30.015	
O	-0.0123270617	-0.0307882237	 0.3953099257	-0.243479
C	 0.0156340537	 1.0900904773	-0.0398407326	 0.111938
C	 1.2912298059	 1.9172552122	-0.0874334096	 0.130017
C	 1.4478012951	 2.8918345726	 1.1482450791	-0.439066
C	 2.6016600011	 1.946626475	 1.5634761376	 0.447309
O	 3.3143945474	 1.8407768774	 2.5165056954	-0.325303
N	 2.4909069744	 1.2277271141	 0.3826259276	-0.357166
C	 1.456838056	 2.63553982	-1.4199098925	 0.10732
O	 0.5378338194	 3.0197929872	-2.093722236	-0.241388
H	-0.8799370491	 1.6000594163	-0.4425940192	 0.122482
H	 1.7426593857	 3.9144204801	 0.9050409299	 0.153266
H	 0.6001927386	 2.9034233189	 1.8354795055	 0.160619
H	 2.7196581943	 0.2530859509	 0.2363174218	 0.267383
H	 2.5206597591	 2.7925123718	-1.7050667428	 0.106067
51.6996	75.1616	103.1652	206.5502	246.9164	276.2609	337.4265	419.5731	446.8413	503.3998	566.6624	651.1878	711.6413	799.0154	897.705	907.4073	962.3642	994.535	1060.5782	1082.6887	1140.6934	1192.6118	1211.2981	1248.2419	1356.2096	1398.0862	1403.4148	1454.303	1816.1442	1835.4007	1918.9036	2896.6445	2963.6454	3086.5037	3149.0697	3591.9795
O=CC1(CC(=O)N1)C=O	O=CC1(CC(=O)N1)C=O	
InChI=1S/C5H5NO3/c7-2-5(3-8)1-4(9)6-5/h2-3H,1H2,(H,6,9)	InChI=1S/C5H5NO3/c7-2-5(3-8)1-4(9)6-5/h2-3H,1H2,(H,6,9)
