24
gdb 101157	2.40378	1.06249	0.87409	0.6203	85.92	-0.2122	0.073	0.2852	1458.4924	0.214947	-405.513354	-405.502139	-405.501195	-405.549519	40.73	
C	 0.2879048537	 0.8938032981	 1.0010142326	-0.399007
C	 0.3387170131	-0.242196225	-0.0317881499	 0.008723
C	 1.4397817876	-1.2500109009	 0.3141412192	-0.078502
O	 2.6881773224	-0.572376169	 0.2866044216	-0.4257
C	-1.0034797605	-0.9522392102	-0.1074827754	-0.013847
C	-2.1605104465	-0.4503730922	-0.9157855337	-0.009916
C	-2.0994809989	 0.7979388563	-1.7718226927	-0.416387
N	-1.4909045663	-1.7051205259	-1.2697019557	-0.116114
C	-0.7090732557	-1.8015202061	-2.4926591198	-0.316567
H	 1.2761211916	 1.3427016382	 1.1214524573	 0.133216
H	-0.4173726576	 1.6727586051	 0.6975001485	 0.112311
H	-0.0341456742	 0.5147565444	 1.9785557733	 0.108124
H	 0.6029706793	 0.1870163936	-1.0034036877	 0.08082
H	 1.2404529678	-1.6789637407	 1.3106458522	 0.083477
H	 1.4249116261	-2.080226002	-0.4082377057	 0.090758
H	 3.3726059387	-1.1897548817	 0.5593668536	 0.286804
H	-1.2497455597	-1.4498299993	 0.8338178297	 0.078493
H	-3.154917476	-0.6187216046	-0.5000387813	 0.082793
H	-1.0932496935	 1.0401808055	-2.1175659313	 0.12259
H	-2.7403310719	 0.6925347972	-2.6545765813	 0.120664
H	-2.4692695275	 1.656847761	-1.2017181787	 0.122926
H	-0.1011927447	-0.923447878	-2.7526787089	 0.103198
H	-0.036272292	-2.662009816	-2.4140019458	 0.120962
H	-1.3914355353	-1.9925355077	-3.32770435	 0.120181
63.8119	99.9261	123.8523	163.5103	179.8846	197.6714	227.8777	246.7171	250.9343	278.2972	282.5869	406.8581	416.0959	473.1678	549.2648	566.3833	739.4005	782.856	845.5013	892.9831	929.2519	988.6217	1000.2511	1048.3697	1068.4598	1098.3987	1106.4023	1134.6669	1159.714	1165.9421	1172.2844	1192.7312	1207.6887	1238.45	1267.2351	1307.9646	1352.6609	1357.8055	1393.1032	1401.1018	1414.996	1439.4909	1456.3555	1461.8181	1486.6086	1492.4586	1494.4354	1503.935	1505.5762	1509.9818	1519.715	2960.6069	2995.2951	2999.8437	3031.7742	3037.0324	3056.0045	3062.9038	3070.5989	3086.4228	3090.0393	3093.0194	3100.6765	3131.2674	3136.0724	3835.133
CC(CO)C1C(C)N1C	C[C@@H](CO)[C@H]1[C@@H](C)N1C	
InChI=1S/C7H15NO/c1-5(4-9)7-6(2)8(7)3/h5-7,9H,4H2,1-3H3	InChI=1S/C7H15NO/c1-5(4-9)7-6(2)8(7)3/h5-7,9H,4H2,1-3H3/t5-,6+,7-,8?/m0/s1
