15
gdb 29855	5.32951	1.29095	1.04638	3.1116	75.13	-0.2015	-0.0013	0.2002	1085.6674	0.115524	-416.83915	-416.832139	-416.831195	-416.870726	26.666	
C	 0.0059849365	 1.4256397458	-0.0003611614	-0.332095
N	-0.049111179	-0.0225361131	-0.001353624	 0.017844
C	-0.048704187	-0.7919705788	-1.15735547	-0.263614
C	 0.0159392939	-2.0853212079	-0.7102288617	 0.289193
O	 0.0264428756	-3.3765562572	-1.1617684165	-0.22345
C	 0.0767264448	-4.1015273106	 0.0126570228	 0.039019
N	 0.093457741	-3.4423959774	 1.1196679501	-0.346297
C	 0.0563127488	-2.1106522876	 0.697366126	 0.212788
C	 0.0185207679	-0.8018366185	 1.134185187	-0.22539
H	 1.0332862699	 1.7943242379	-0.1021005262	 0.141974
H	-0.5914063167	 1.8184249398	-0.8268452623	 0.142461
H	-0.4113033865	 1.8033162189	 0.935509036	 0.144328
H	-0.0923300827	-0.3365013178	-2.1310554405	 0.12965
H	 0.0997729325	-5.1733648623	-0.1145987656	 0.14445
H	 0.0327362611	-0.3515976412	 2.1123371264	 0.129138
95.6881	143.7068	260.7477	302.7551	350.4234	523.8861	564.9325	596.6925	616.984	632.15	715.7256	757.6124	768.2267	848.1872	848.9527	926.404	1009.4359	1057.7794	1087.9008	1139.3098	1146.2271	1169.2033	1238.9613	1318.6003	1380.1999	1403.5369	1452.706	1485.0686	1489.0771	1512.864	1543.4472	1579.1962	1651.0763	3031.5196	3101.363	3134.3859	3268.9994	3273.4643	3281.7748
CN1C=C2OC=NC2=C1	Cn1cc2ocnc2c1	
InChI=1S/C6H6N2O/c1-8-2-5-6(3-8)9-4-7-5/h2-4H,1H3	InChI=1S/C6H6N2O/c1-8-2-5-6(3-8)9-4-7-5/h2-4H,1H3
