18
gdb 11509	4.83458	1.09112	0.94699	4.4142	72.94	-0.2294	0.0301	0.2595	1222.8012	0.153278	-343.96965	-343.96092	-343.959976	-344.003455	31.684	
C	 0.0674837021	 1.5238675296	 0.3790470867	-0.393057
C	 0.0236946654	 0.0196685248	 0.0315037214	-0.097114
N	 0.7387351682	-0.8855209345	 0.9308105998	-0.293921
C	 2.1740708382	-0.796949249	 0.8912365891	 0.073619
C	 2.9927358193	 0.1946465808	 1.7001949126	-0.273743
C	 2.9735243535	-1.2758035131	 2.0626070423	-0.297439
C	-1.3780021423	-0.4279437767	-0.0628953373	 0.27374
N	-2.4863895685	-0.7483800549	-0.1208403875	-0.319381
H	 1.1027689144	 1.8696545327	 0.3918598614	 0.137595
H	-0.4891517282	 2.1080282061	-0.3593328176	 0.136821
H	-0.3777495201	 1.7037490875	 1.362247176	 0.128157
H	 0.46509362	-0.1165294836	-0.9646400855	 0.132363
H	 0.3833803017	-0.8069019834	 1.8775638202	 0.225778
H	 2.5626709266	-1.0492212029	-0.0927710345	 0.100688
H	 3.8942466511	 0.6113123798	 1.2630889673	 0.114902
H	 2.4590759025	 0.8725469745	 2.3579451897	 0.110484
H	 2.430048174	-1.5648992742	 2.9569074072	 0.117713
H	 3.8569629121	-1.8752841035	 1.8753445287	 0.122795
47.1631	97.7461	133.7532	201.8742	238.1238	293.0729	329.6549	378.8435	459.6514	558.6704	561.2091	678.5452	761.7544	801.2019	827.8057	860.8844	919.0694	947.2831	995.5405	1049.6983	1073.2183	1077.4102	1082.8328	1128.1208	1161.7568	1193.7914	1214.2079	1249.8037	1323.4723	1326.4724	1397.2057	1401.1147	1462.8125	1485.9518	1492.8017	1496.1375	1516.6894	2362.0226	3029.8733	3046.486	3119.1734	3126.662	3132.1054	3134.9267	3140.3565	3207.8768	3223.1041	3533.3734
CC(NC1CC1)C#N	C[C@@H](NC1CC1)C#N	
InChI=1S/C6H10N2/c1-5(4-7)8-6-2-3-6/h5-6,8H,2-3H2,1H3	InChI=1S/C6H10N2/c1-5(4-7)8-6-2-3-6/h5-6,8H,2-3H2,1H3/t5-/m1/s1
