14
gdb 50426	2.2001	1.94802	1.19759	3.4708	62.99	-0.2507	-0.0493	0.2015	984.8091	0.099642	-473.837475	-473.829538	-473.828594	-473.871413	27.42	
O	-0.2075677914	-0.0430610667	-0.2749890331	-0.239808
C	-0.0851458822	 1.106874891	 0.0456324502	 0.152743
C	 1.2322583933	 1.8779899322	-0.0927245043	-0.014463
O	 2.3152603233	 0.9471882502	-0.2884161782	-0.196221
C	 2.9004607888	 1.2842588244	-1.4544779939	 0.136227
N	 2.4948462538	 2.2962820235	-2.1025928917	-0.278075
C	 1.3757716753	 2.8440578093	-1.3199597206	-0.110061
C	 0.1547444084	 2.9955852671	-2.2144545806	 0.160442
O	-0.9624760577	 2.6783058962	-1.8996428648	-0.233153
H	-0.8959611376	 1.6868372558	 0.5273261864	 0.098005
H	 1.4087686797	 2.4112209933	 0.847886306	 0.119036
H	 3.7147725723	 0.6348310584	-1.7539084534	 0.159291
H	 1.6352677876	 3.8623404216	-0.9942774695	 0.124678
H	 0.3853687564	 3.4484285738	-3.1997910426	 0.121362
32.4205	97.121	113.6668	231.9599	250.2883	341.5694	361.4683	526.1595	646.0659	666.1895	743.1529	762.9728	873.5364	905.1483	969.4555	980.4215	1006.1672	1040.6717	1063.066	1098.4154	1153.8009	1242.598	1269.9679	1307.2503	1344.6679	1359.9069	1398.8328	1417.6981	1701.57	1827.4727	1840.5428	2940.0372	2943.0047	2998.0858	3054.3722	3228.2662
O=CC1OC=NC1C=O	O=C[C@H]1OC=N[C@H]1C=O	
InChI=1S/C5H5NO3/c7-1-4-5(2-8)9-3-6-4/h1-5H	InChI=1S/C5H5NO3/c7-1-4-5(2-8)9-3-6-4/h1-5H/t4-,5+/m0/s1
