19
gdb 101951	2.46921	1.34991	1.01976	1.9159	71.38	-0.2471	0.0806	0.3277	1210.592	0.157143	-460.093325	-460.084039	-460.083095	-460.128105	32.998	
C	 0.8743190364	 1.5224732051	-1.2563983759	-0.244374
O	 1.3678304434	 0.2343400838	-0.9244911393	-0.245865
C	 0.7760996454	-0.8252308668	-1.6392268082	 0.021743
C	 1.7875859772	-1.9455483984	-1.8243234309	 0.068926
C	 3.2304739159	-1.7369216014	-1.6790651981	-0.171844
O	 2.4711349678	-2.3944743939	-0.6580146092	-0.233011
C	-0.4569171434	-1.375644867	-0.9305866027	 0.097035
C	-0.6124678114	-1.2675515445	 0.5210853342	-0.16634
O	-1.3659355287	-0.431051352	-0.372343966	-0.248445
H	 1.0437867991	 1.7505736293	-2.3198391836	 0.103253
H	-0.1929063669	 1.6138363965	-1.0329848547	 0.14016
H	 1.4368242208	 2.2373812102	-0.6510334936	 0.126423
H	 0.4771164109	-0.4859454757	-2.6463679734	 0.075045
H	 1.4403750635	-2.7479435533	-2.4789016983	 0.094219
H	 3.9225639765	-2.3734247003	-2.228662941	 0.111055
H	 3.5897192919	-0.74652919	-1.4153200161	 0.129173
H	-0.9348855911	-2.211432386	-1.4461272182	 0.090519
H	-1.1960629611	-2.0132386139	 1.0573130265	 0.115011
H	 0.1580425838	-0.7557417116	 1.0898287485	 0.137317
60.7233	90.0453	119.421	177.3992	185.6385	200.7738	277.7156	340.3475	370.6924	416.9273	592.9029	664.2299	804.6335	821.4296	876.6139	910.747	937.4271	958.265	1003.7962	1023.0537	1079.5258	1105.7401	1113.0128	1151.9464	1156.4763	1166.4627	1173.397	1180.2638	1182.1654	1227.6838	1281.8189	1295.0251	1327.2628	1383.6576	1429.1466	1434.156	1478.8876	1484.1236	1516.5358	1517.5289	1526.223	2956.3152	2989.1344	3081.5617	3082.7745	3090.6489	3097.7938	3105.3174	3125.8986	3198.8012	3205.7887
COC(C1CO1)C1CO1	CO[C@@H]([C@H]1CO1)[C@H]1CO1	
InChI=1S/C6H10O3/c1-7-6(4-2-8-4)5-3-9-5/h4-6H,2-3H2,1H3	InChI=1S/C6H10O3/c1-7-6(4-2-8-4)5-3-9-5/h4-6H,2-3H2,1H3/t4-,5-/m1/s1
