22
gdb 57967	3.658	0.84662	0.73755	3.2702	84.95	-0.2336	0.0361	0.2696	1621.0577	0.192823	-404.364206	-404.353663	-404.352719	-404.400927	37.204	
C	 0.299733068	 1.3907482783	 0.0410377156	-0.342797
N	 0.1150574012	-0.0500751113	 0.0027577389	-0.089185
C	 0.039646758	-0.697443337	 1.2961185888	-0.336544
C	 0.0209085035	-0.6783342906	-1.2166980327	 0.429535
O	 0.0717226138	-0.0560713869	-2.2652160589	-0.377388
C	-0.1700168043	-2.2005518812	-1.2147254146	-0.368054
C	-0.1296329816	-2.7739237009	-2.6124081004	 0.06446
C	 1.1620542895	-3.2910111458	-3.1854631031	-0.247649
C	 0.0624144786	-4.2557823095	-2.8090807567	-0.294239
H	 1.2290282531	 1.6475436122	 0.565894158	 0.11718
H	 0.3449573207	 1.7573756078	-0.9826789362	 0.169698
H	-0.5329291174	 1.8748744621	 0.5678050659	 0.117212
H	-0.7666438323	-0.2578629707	 1.8988012258	 0.12541
H	-0.1571924628	-1.7626112047	 1.1992525804	 0.140726
H	 0.9771167054	-0.5704717575	 1.855418157	 0.124078
H	 0.5998535933	-2.6780539506	-0.5966918608	 0.113237
H	-1.1311101063	-2.4341554038	-0.7352999086	 0.120937
H	-0.785888454	-2.2682439171	-3.3112306715	 0.101779
H	 1.3638184487	-3.1178899089	-4.2363130487	 0.115009
H	 2.045989804	-3.2612505239	-2.5559862175	 0.104105
H	 0.2103465973	-4.8747963073	-1.9294441828	 0.102264
H	-0.4903850765	-4.7458767428	-3.6030323778	 0.110225
46.8727	63.3662	81.7671	130.039	144.9338	153.9374	233.8524	281.5005	331.9338	386.7053	406.9815	470.7395	577.6918	616.0089	773.2206	788.3538	814.5205	853.5637	907.0383	960.4312	980.8927	1014.0446	1058.2893	1077.6222	1081.4349	1126.5054	1131.4426	1132.9213	1166.3309	1181.2413	1195.5262	1233.291	1264.8994	1284.3785	1320.0084	1412.7243	1426.4388	1435.6952	1460.7828	1472.0273	1479.283	1485.2737	1502.9263	1505.0014	1509.8761	1544.2652	1752.7917	3000.9122	3009.7609	3011.4783	3040.3111	3054.5246	3055.0038	3125.5256	3132.3428	3172.2583	3174.1011	3179.2395	3203.8477	3221.0101
CN(C)C(=O)CC1CC1	CN(C)C(=O)CC1CC1	
InChI=1S/C7H13NO/c1-8(2)7(9)5-6-3-4-6/h6H,3-5H2,1-2H3	InChI=1S/C7H13NO/c1-8(2)7(9)5-6-3-4-6/h6H,3-5H2,1-2H3
