18
gdb 122771	3.15642	0.75385	0.63446	3.8771	78.49	-0.2556	-0.0218	0.2338	1738.8667	0.14505	-439.06582	-439.055479	-439.054535	-439.102827	35.501	
C	-0.2546843909	 1.3316672918	-0.4377177615	-0.229052
O	-0.1261234609	-0.0275183345	-0.0884742669	-0.240449
C	 0.7171528017	-0.7504528287	-0.9631812539	-0.061744
C	 0.7074125	-2.2033582448	-0.5130596754	-0.178422
N	-0.6389198168	-2.7411874658	-0.5326867611	-0.316999
C	-0.9632457315	-3.8993373093	-1.1712941932	 0.29166
O	-0.1634207706	-4.6129269708	-1.7513731887	-0.364116
C	-2.3847650812	-4.2206784929	-1.0975754273	 0.218073
C	-3.549371204	-4.5162954806	-1.0559932983	-0.406194
H	 0.7156695343	 1.8507491055	-0.4102058124	 0.109739
H	-0.6823168883	 1.4547114112	-1.4447563933	 0.11009
H	-0.9238174683	 1.7949001213	 0.2911361496	 0.130946
H	 0.3543388552	-0.6706821086	-2.0008708795	 0.099376
H	 1.7453671967	-0.3542701368	-0.9324910854	 0.094801
H	 1.3147700626	-2.8202574741	-1.1781668539	 0.150711
H	 1.1286067098	-2.269402785	 0.4982943442	 0.119817
H	-1.3668588372	-2.1904236794	-0.1055310725	 0.263521
H	-4.5758771206	-4.7895997483	-1.0265398605	 0.208241
33.8694	56.5844	96.1157	107.6853	158.5539	221.3539	245.8461	275.5615	296.5777	360.6789	530.4215	535.5634	547.2066	599.0283	656.1145	675.0701	766.0803	816.8639	908.3644	955.0113	1053.6198	1115.6712	1119.5481	1162.1879	1186.8071	1216.8904	1239.9917	1257.8231	1293.9548	1386.9868	1419.9595	1480.2771	1485.339	1485.8959	1501.4921	1522.699	1531.9102	1755.4635	2227.0077	2963.991	2979.3132	2998.7953	3024.0879	3031.8384	3117.8627	3127.6859	3496.8651	3642.913
COCCNC(=O)C#C	COCCNC(=O)C#C	
InChI=1S/C6H9NO2/c1-3-6(8)7-4-5-9-2/h1H,4-5H2,2H3,(H,7,8)	InChI=1S/C6H9NO2/c1-3-6(8)7-4-5-9-2/h1H,4-5H2,2H3,(H,7,8)
