18
gdb 39484	2.61136	1.83831	1.21314	2.2238	73.76	-0.2254	0.0027	0.2281	1023.0386	0.148766	-439.05	-439.042508	-439.041564	-439.081755	29.534	
C	 0.0127191453	 1.6513134909	 0.0809615656	-0.339756
C	 1.1510835121	 0.7645576609	-0.3350404477	 0.107851
O	 2.2596159543	 0.7387909068	 0.5178161035	-0.250336
C	 3.1307233282	-0.3603413559	 0.3178960019	-0.068028
C	 2.7494063532	-1.5711478953	 1.1679039504	-0.089044
O	 1.4095820699	-1.9722812079	 0.8761285522	-0.224679
C	 0.4507288567	-1.4143638417	 1.6819963096	 0.105221
N	-0.3444911223	-0.4922164924	 1.3619978509	-0.220221
C	-0.1706305408	 0.1517800899	 0.0854106512	-0.003854
H	 0.1143440949	 2.1084782229	 1.0596609826	 0.132542
H	-0.4885336057	 2.2599385152	-0.663268857	 0.112565
H	 1.4150722584	 0.7177300711	-1.3926069026	 0.085311
H	 3.1466066698	-0.6503420863	-0.7422099452	 0.101921
H	 4.1384429942	-0.0292611651	 0.597176134	 0.10755
H	 3.4048201004	-2.416682064	 0.9318261772	 0.11334
H	 2.8517655167	-1.3362748609	 2.2353755402	 0.110729
H	 0.3782977032	-1.8764214919	 2.6698687387	 0.114327
H	-0.7811653885	-0.2813476262	-0.7026832855	 0.104561
123.6634	204.6066	215.6211	272.1363	328.796	342.1815	450.6621	513.6025	532.3754	616.5712	753.1971	778.0984	791.3645	826.7835	875.8709	904.4995	971.5324	1004.6364	1015.0077	1038.1348	1087.1146	1093.4315	1111.0609	1122.3357	1140.4766	1148.658	1184.4414	1231.7533	1294.3511	1314.4906	1349.8665	1384.8416	1390.4789	1415.7927	1421.4338	1473.8686	1485.5849	1490.9921	1737.6471	3004.7241	3019.3186	3064.4309	3082.3442	3086.07	3104.9346	3134.2131	3139.8557	3226.8711
C1C2OCCOC=NC12	C1[C@H]2OCCOC=N[C@@H]12	
InChI=1S/C6H9NO2/c1-2-9-6-3-5(6)7-4-8-1/h4-6H,1-3H2/b7-4-	InChI=1S/C6H9NO2/c1-2-9-6-3-5(6)7-4-8-1/h4-6H,1-3H2/b7-4-/t5-,6+/m0/s1
