18
gdb 17315	2.67664	2.42935	1.68978	1.901	71.36	-0.2218	0.0629	0.2847	855.4741	0.152284	-347.724148	-347.716421	-347.715477	-347.75569	29.841	
C	-0.0495562317	 1.6307534218	-0.0655437292	-0.434317
C	 0.1882857902	 0.1329745278	 0.0350305997	-0.038641
C	 1.4523166995	-0.678500905	-0.1679586548	-0.173137
C	 2.7057916115	-0.1614004758	 0.5955543331	 0.02381
O	 2.4108640689	 1.06532709	 1.2784968932	-0.237626
C	 1.9892024971	-0.1721821216	 1.8644072785	-0.037294
C	 0.6933080639	-0.7213187311	 1.171908733	 0.274369
C	-0.0713186555	-1.8537488	 1.7955941418	-0.490066
H	-0.107691875	 1.9231102336	-1.1205166566	 0.11022
H	-1.0135143974	 1.8805605085	 0.3933085348	 0.107881
H	 0.7286012181	 2.2150534075	 0.4145125678	 0.153304
H	-0.6280720532	-0.4115282044	-0.4456514744	 0.086183
H	 1.5203293315	-1.4642912882	-0.9112433066	 0.086645
H	 3.7422763247	-0.3627635193	 0.353092796	 0.107074
H	 2.3105969706	-0.386683552	 2.8774786591	 0.102568
H	-0.6704978313	-1.5101494738	 2.6484086468	 0.121673
H	-0.7548543325	-2.3113533233	 1.073366282	 0.120613
H	 0.6005869706	-2.6399329346	 2.1614523159	 0.116741
123.8167	190.4246	211.1528	223.8261	287.1517	289.7096	405.263	503.0273	566.4161	673.0578	715.9777	750.5614	818.6098	844.343	864.4389	908.0322	928.2372	936.8482	978.0743	1025.1379	1052.4994	1069.711	1110.9299	1126.0475	1148.9312	1193.8264	1230.6355	1266.7172	1286.4938	1337.2542	1381.2718	1405.3621	1415.8487	1469.2776	1483.8113	1494.698	1500.1498	1512.6273	3014.0224	3030.406	3067.9752	3076.9747	3080.0272	3096.1707	3173.5987	3179.1583	3194.2007	3201.9978
CC1C2C3OC3C12C	C[C@H]1[C@H]2[C@H]3O[C@H]3[C@@]12C	
InChI=1S/C7H10O/c1-3-4-5-6(8-5)7(3,4)2/h3-6H,1-2H3	InChI=1S/C7H10O/c1-3-4-5-6(8-5)7(3,4)2/h3-6H,1-2H3/t3-,4-,5+,6+,7-/m0/s1
