17
gdb 123950	3.4716	1.59018	1.1326	3.2092	73.84	-0.2107	0.027	0.2377	1040.429	0.140521	-418.039152	-418.032262	-418.031317	-418.070338	27.509	
C	-0.0144407112	 1.5395603301	-0.0080902819	-0.220634
C	 1.4231377855	 2.0624377091	 0.0619237356	-0.073272
O	 2.1011099155	 1.6677536004	 1.2607099746	-0.259209
C	 1.9245066295	 0.3621304722	 1.5611333536	 0.391415
N	 2.6790544483	-0.2346273435	 2.4703002241	-0.334641
N	 2.1756252704	-1.4942208312	 2.5017989879	-0.18712
C	 1.1445017975	-1.6874418772	 1.6448178711	-0.16421
C	 0.9389695385	-0.486120729	 0.9976099226	 0.128515
C	-0.0379389032	-0.002039612	-0.0316753024	-0.341212
H	-0.5627452731	 1.9085481625	 0.8662644551	 0.116828
H	-0.4996874836	 1.9524322158	-0.8985279158	 0.101364
H	 1.9966956567	 1.7076053593	-0.807706336	 0.102759
H	 1.4479208696	 3.1546075784	 0.0638432409	 0.115695
H	 2.590060861	-2.1608616425	 3.1281570038	 0.274059
H	 0.6440495624	-2.6403114943	 1.5656354306	 0.131199
H	-1.0509340536	-0.3715874681	 0.1619035524	 0.108755
H	 0.2347113098	-0.3580247899	-1.0345862962	 0.109712
118.8608	216.5325	315.3715	349.349	408.6989	423.2455	459.7417	537.6947	646.4872	676.0946	713.9444	736.9726	776.297	874.8057	883.4916	937.3051	949.8886	1007.8868	1070.7737	1086.6612	1101.3534	1176.5297	1212.2897	1222.942	1240.8283	1296.1108	1309.2451	1359.5483	1369.7013	1401.725	1424.7704	1475.4489	1485.127	1487.9095	1502.8414	1548.2486	1632.6226	2995.434	3008.9373	3040.1533	3060.0684	3089.5414	3102.9278	3252.1377	3694.8319
C1COC2=NNC=C2C1	C1COc2n[nH]cc2C1	
InChI=1S/C6H8N2O/c1-2-5-4-7-8-6(5)9-3-1/h4H,1-3H2,(H,7,8)	InChI=1S/C6H8N2O/c1-2-5-4-7-8-6(5)9-3-1/h4H,1-3H2,(H,7,8)
