24
gdb 118234	3.98399	0.62531	0.58991	0.9925	87.16	-0.2311	0.0805	0.3116	1960.275	0.215918	-405.51269	-405.50186	-405.500916	-405.549363	39.067	
C	-0.215235338	 1.5901508914	 0.0535199985	-0.38786
C	 0.076597668	 0.0827170654	 0.0398499594	 0.015471
C	 0.7535230031	-0.3848574529	-1.2587739265	-0.167392
C	-0.0857505226	-0.1915215637	-2.5162002877	-0.085265
O	 0.6189639014	-0.7881586309	-3.5969404496	-0.421686
C	 0.9410437041	-0.3195891777	 1.2450756973	-0.144953
N	 0.2710552052	-0.0368405013	 2.5105772873	-0.060069
C	-0.5496328761	-1.1107886532	 3.0609774826	-0.22027
C	 0.7602609442	-0.7601763265	 3.6764821761	-0.22065
H	 0.6998220004	 2.1632157902	-0.141181355	 0.107567
H	-0.9515406974	 1.8703459222	-0.705493096	 0.106698
H	-0.5981292931	 1.8914754337	 1.0311365236	 0.133544
H	-0.8794211089	-0.4533850357	 0.1374438121	 0.071061
H	 1.7090088509	 0.1394245968	-1.3927909153	 0.10039
H	 0.9934120057	-1.4530457624	-1.1873086542	 0.100413
H	-1.0736072972	-0.6628368744	-2.3777465942	 0.081289
H	-0.2589215583	 0.8785459709	-2.7042429796	 0.088538
H	 0.1241706173	-0.6232574566	-4.404663862	 0.284071
H	 1.213293736	-1.3882588701	 1.1611542354	 0.073472
H	 1.8794998604	 0.2506374371	 1.2304622045	 0.099152
H	-1.4811811139	-0.807289384	 3.5300715045	 0.115286
H	-0.6017255747	-2.0476636758	 2.5073424492	 0.10776
H	 1.5785618132	-1.4645476617	 3.532677744	 0.107898
H	 0.8043491502	-0.1949060609	 4.6032448757	 0.115535
65.1479	73.2547	93.7327	117.879	126.294	227.9448	229.9256	266.6887	304.6384	323.5068	382.0556	405.6949	457.9005	554.0029	772.4485	795.1324	834.373	862.1732	904.7163	930.4589	945.7628	986.7122	1022.4284	1030.6322	1044.6757	1066.7172	1112.6601	1117.6102	1125.4326	1148.7752	1171.0163	1181.4053	1201.1329	1236.7014	1244.5302	1289.2964	1308.4476	1319.1044	1322.9132	1365.075	1377.3219	1396.18	1411.7837	1461.3224	1483.6367	1491.6744	1494.2882	1499.4798	1508.1379	1525.6701	1530.0418	2927.4629	2957.7471	2992.155	2999.5365	3020.4839	3028.6281	3035.964	3064.5876	3091.185	3095.5399	3095.7606	3126.8962	3173.9279	3188.2526	3830.5194
CC(CCO)CN1CC1	C[C@@H](CCO)CN1CC1	
InChI=1S/C7H15NO/c1-7(2-5-9)6-8-3-4-8/h7,9H,2-6H2,1H3	InChI=1S/C7H15NO/c1-7(2-5-9)6-8-3-4-8/h7,9H,2-6H2,1H3/t7-/m0/s1
