21
gdb 17818	4.19041	1.34072	1.13448	1.1583	79.77	-0.2195	0.0831	0.3027	1130.4494	0.188948	-329.087332	-329.078982	-329.078038	-329.12041	31.566	
C	-0.0091392499	 1.5428663143	-0.4049291019	-0.413964
C	-0.0023816893	 0.0633708361	-0.0838008035	 0.030989
C	 1.2550834021	-0.7354065483	-0.1192775157	-0.257768
N	 0.5641392895	-0.5000973093	 1.1479319259	-0.088521
C	 1.2077525485	 0.361568826	 2.1180860051	 0.096398
C	 0.3062131305	 0.9400143241	 3.2400836554	-0.233834
C	 1.4397289713	 0.6278525566	 4.2547532301	-0.213402
C	 2.0414815998	-0.3555469532	 3.2135657966	-0.231827
H	 0.9480396157	 2.0237539685	-0.1909825082	 0.121423
H	-0.2192048354	 1.6879961618	-1.4700816057	 0.121041
H	-0.7880781613	 2.067682876	 0.1592029109	 0.124255
H	-0.9207651742	-0.4450250137	-0.3759202379	 0.087325
H	 1.2637318256	-1.7615136031	-0.4782960093	 0.109714
H	 2.1788534718	-0.1856384469	-0.3015174071	 0.10224
H	 1.8090794369	 1.162835065	 1.6604020775	 0.05069
H	-0.0337556065	 1.9740913663	 3.1427712691	 0.090018
H	-0.5606652175	 0.2907920227	 3.3910254142	 0.10853
H	 2.0875446176	 1.4926943782	 4.4240876916	 0.099464
H	 1.1499050675	 0.2194945295	 5.2250432677	 0.098284
H	 1.6680386303	-1.3731949259	 3.3559983565	 0.10891
H	 3.1273090072	-0.3849391949	 3.0945523584	 0.090036
59.5791	122.34	141.992	203.7077	226.8135	360.2797	377.7322	415.6556	526.2569	607.6538	732.8433	770.9893	797.3864	852.6152	904.3484	909.2642	929.378	951.1904	958.6119	1004.7807	1028.2718	1072.4365	1086.1854	1113.1144	1130.2467	1146.5506	1184.2608	1194.1124	1201.5816	1245.7843	1249.7224	1260.1709	1276.3127	1297.4465	1337.2044	1379.5792	1403.7771	1420.5096	1473.6579	1485.8695	1493.0992	1498.0438	1507.4215	1510.8028	2965.7999	3035.783	3056.57	3057.4919	3063.6859	3081.5788	3092.371	3100.2491	3102.3147	3112.9595	3124.3978	3127.08	3168.6745
CC1CN1C1CCC1	C[C@H]1CN1C1CCC1	
InChI=1S/C7H13N/c1-6-5-8(6)7-3-2-4-7/h6-7H,2-5H2,1H3	InChI=1S/C7H13N/c1-6-5-8(6)7-3-2-4-7/h6-7H,2-5H2,1H3/t6-,8?/m0/s1
