23
gdb 88678	3.01878	0.94013	0.86035	1.2817	87.41	-0.2409	0.0781	0.319	1490.1616	0.203524	-388.266679	-388.256421	-388.255476	-388.30212	38.919	
C	 0.0882436589	 1.6273084456	-0.1151226685	-0.403189
C	 0.079383331	 0.1177158555	-0.0123648819	-0.000324
C	 1.3427718665	-0.6844394945	-0.2114196295	-0.304999
C	 0.6905120964	-0.6346581021	 1.1538640339	-0.011795
C	 1.3522769828	 0.0612823426	 2.3005356903	-0.03663
C	 0.7557006711	 0.0289123173	 3.7012999334	-0.36867
C	 2.0646600584	-0.6680029711	 3.4058606547	 0.393742
C	 2.1699205754	-2.1751265731	 3.4499740207	-0.445555
O	 3.2388918165	-0.0098884832	 3.8214725414	-0.466565
H	 1.0280275316	 2.056622557	 0.2436085556	 0.11849
H	-0.0357573893	 1.9433697014	-1.1568825133	 0.114019
H	-0.7247745657	 2.0746460036	 0.467753274	 0.116394
H	-0.824517255	-0.3367146101	-0.4112604786	 0.079167
H	 1.3031214642	-1.6079989897	-0.7791105273	 0.104903
H	 2.2675485619	-0.1286308328	-0.3358228517	 0.110776
H	 0.1468658706	-1.5316512718	 1.4387412939	 0.074109
H	 1.8426947091	 0.996736258	 2.0505065766	 0.091623
H	 0.7934083638	 0.9398961657	 4.2884724483	 0.107635
H	-0.1278125464	-0.5823843366	 3.8608319109	 0.103334
H	 1.2549058116	-2.6604752191	 3.1015806501	 0.116704
H	 3.0025525238	-2.5194890388	 2.828338367	 0.127013
H	 2.3513286452	-2.5166337095	 4.4769889398	 0.103376
H	 3.3539247077	-0.1837469943	 4.7628010203	 0.276443
33.8408	109.8084	142.4643	178.0822	211.7385	222.4253	296.8014	324.7757	363.65	382.4432	408.5512	436.6738	445.0042	550.822	712.4482	757.6296	805.0269	856.8633	873.4303	903.2047	912.6992	923.1932	965.2632	999.3579	1021.1269	1047.1677	1065.5277	1067.4567	1084.1483	1107.3058	1114.729	1148.968	1197.2792	1201.2263	1239.2865	1256.1817	1291.3736	1322.5352	1379.1099	1398.1314	1415.4245	1422.142	1447.331	1479.0731	1485.9564	1491.4009	1494.0853	1502.1417	1515.6675	3024.1657	3029.4394	3086.792	3087.1411	3102.2787	3118.2548	3121.4423	3123.146	3127.9832	3137.6788	3162.3222	3207.365	3213.828	3784.0828
CC1CC1C1CC1(C)O	C[C@H]1C[C@H]1[C@H]1C[C@]1(C)O	
InChI=1S/C8H14O/c1-5-3-6(5)7-4-8(7,2)9/h5-7,9H,3-4H2,1-2H3	InChI=1S/C8H14O/c1-5-3-6(5)7-4-8(7,2)9/h5-7,9H,3-4H2,1-2H3/t5-,6+,7+,8-/m0/s1
