23
gdb 109691	2.28572	1.17075	0.98817	1.041	83.35	-0.2308	0.0794	0.3102	1374.0524	0.201922	-425.392609	-425.38143	-425.380486	-425.428511	40.06	
C	 0.2913336492	 1.2075145537	 0.1837066683	-0.232716
O	-0.370225367	 0.0496273571	-0.2896620718	-0.2408
C	 0.3380391505	-0.6067254878	-1.2936914886	 0.043471
C	 1.3527433336	-1.688863706	-0.9344215396	-0.106978
C	 1.710870952	-2.006503125	 0.5009848032	-0.423567
C	 0.0167043642	-2.0576269798	-1.541126219	 0.349619
C	-1.0502957604	-2.7619970677	-0.7336087474	-0.459736
O	 0.1410297743	-2.4857583384	-2.8752863414	-0.279338
C	-0.9399449282	-2.1327493489	-3.7162972856	-0.249488
H	 1.2763892499	 0.9710732286	 0.6087452647	 0.112299
H	 0.4292659675	 1.9466258193	-0.6199013761	 0.107382
H	-0.340307285	 1.6444759643	 0.9608482397	 0.126111
H	 0.5583185478	 0.0087980331	-2.1675945105	 0.085034
H	 2.1707452194	-1.7773704822	-1.6441948075	 0.092578
H	 0.9192825439	-1.7038978162	 1.1904455319	 0.128858
H	 1.8894519756	-3.0782647307	 0.63998273	 0.11969
H	 2.6249584256	-1.4798619369	 0.7953699692	 0.1151
H	-1.1023966131	-2.3649569823	 0.2803555211	 0.135039
H	-2.0389346121	-2.6244311371	-1.1828213257	 0.118218
H	-0.8435918604	-3.8361233787	-0.6871367624	 0.11929
H	-1.8617739714	-2.6752899666	-3.4654470861	 0.109117
H	-1.1512579354	-1.0544769426	-3.6769853303	 0.106966
H	-0.6474665005	-2.4003900794	-4.7347259063	 0.12385
92.9544	114.0841	138.8118	160.5607	164.0849	178.4907	192.7491	209.2982	233.3133	297.0536	317.7593	362.6862	408.8248	488.073	543.7181	599.8287	720.9411	804.4081	888.1364	943.9354	953.3132	1009.4552	1037.6867	1082.5038	1091.3223	1122.6411	1131.0747	1159.1671	1171.9569	1180.8566	1183.2983	1210.7783	1232.5902	1253.9678	1310.2801	1352.9791	1408.4234	1418.7114	1438.9097	1474.1009	1479.534	1483.2138	1486.4498	1490.5792	1497.907	1504.0603	1509.7987	1512.4863	1517.5235	2986.5872	2992.1953	3034.3039	3040.8517	3041.47	3046.9599	3085.8424	3089.2293	3101.7217	3112.7055	3117.1212	3119.0223	3148.7721	3151.5895
COC1C(C)C1(C)OC	CO[C@H]1[C@@H](C)[C@]1(C)OC	
InChI=1S/C7H14O2/c1-5-6(8-3)7(5,2)9-4/h5-6H,1-4H3	InChI=1S/C7H14O2/c1-5-6(8-3)7(5,2)9-4/h5-6H,1-4H3/t5-,6+,7+/m1/s1
