14
gdb 24850	2.39376	1.78671	1.02308	2.5697	76.55	-0.2645	-0.1058	0.1587	1070.9953	0.103589	-432.904282	-432.89692	-432.895976	-432.937549	27.043	
N	-0.0725116807	 1.3273519565	 0.0099071759	-0.494841
C	 0.0138575484	 0.048812212	 0.0012272048	 0.351242
N	-1.1808870026	-0.6560262382	 0.0035841193	-0.403497
C	-1.534288475	-1.9973294473	-0.0017415473	 0.400977
O	-2.7149520325	-2.2935470874	 0.0029566261	-0.354088
C	-0.5032066835	-3.0497436035	-0.0122473244	-0.139981
C	 0.8368537508	-2.9630402679	-0.0193882491	-0.009304
N	 1.6874760681	-1.8620687411	-0.0198496774	-0.256794
C	 1.3337145403	-0.6377912502	-0.0114424265	 0.009778
H	 0.8528582284	 1.7537397176	 0.006821146	 0.23242
H	-1.9925314294	-0.048159902	 0.0115542074	 0.270222
H	-0.9497887765	-4.0382150206	-0.0141880156	 0.135385
H	 1.3914758787	-3.8980152173	-0.0265498802	 0.130421
H	 2.1498646354	 0.0902793994	-0.0135119291	 0.128059
22.8272	113.9921	234.8195	350.2928	376.9938	417.7549	461.6803	527.3363	594.6013	645.9287	746.923	769.8315	806.7589	835.7929	851.6769	874.6414	965.3962	970.9667	1024.6503	1025.5844	1172.6876	1274.0083	1349.3447	1418.2315	1438.9229	1444.9847	1456.9328	1646.6377	1669.726	1699.1889	1764.3695	3088.5689	3160.7793	3201.8777	3498.7526	3566.7367
N=C1NC(=O)C=CN=C1	[NH][C]1NC(=O)C=CN=C1	
InChI=1S/C5H5N3O/c6-4-3-7-2-1-5(9)8-4/h1-3H,(H2,6,8,9)	InChI=1S/C5H5N3O/c6-4-3-7-2-1-5(9)8-4/h1-3H,(H2,6,8,9)
