17
gdb 81520	3.74408	1.26356	1.06744	1.8667	75.11	-0.2485	0.035	0.2834	1116.8353	0.134079	-421.727246	-421.718777	-421.717833	-421.759663	33.379	
O	 0.0381480964	 1.4462766813	-0.0911801995	-0.443713
C	 0.0465262309	 0.0455987936	 0.0181498037	 0.116749
C	-0.0530527009	-0.6065201655	 1.4423292134	-0.166326
C	-1.4976447	-0.0309067898	 1.5094447229	-0.253242
C	-1.3618921373	-0.6067838836	 0.0652240031	-0.112241
C	-0.670197431	-1.8506420408	 0.7026536707	 0.294713
O	 0.157465253	-2.5728581014	-0.1910461054	-0.492268
C	-1.4751801931	-2.7728921318	 1.4927874182	 0.260182
C	-2.0731710542	-3.6013338594	 2.1278434054	-0.448735
H	 0.9498578173	 1.7509262578	-0.0703224974	 0.285628
H	 0.7652700433	-0.4089825753	-0.6649266135	 0.095061
H	 0.6989195406	-0.6316359524	 2.2328705604	 0.070983
H	-2.2004530719	-0.5306621469	 2.1762768464	 0.108949
H	-1.5645804076	 1.0520361165	 1.5698676648	 0.120859
H	-2.1110900901	-0.6279775714	-0.7263073531	 0.082774
H	 0.4654436209	-3.3601442428	 0.2689309994	 0.285404
H	-2.6191194762	-4.3207106182	 2.6869401705	 0.195223
129.8096	152.7735	236.6354	248.5122	276.5621	317.0611	349.8541	390.7378	485.3848	517.4501	540.8589	613.8455	624.6296	670.4384	695.5499	769.1042	830.7533	889.4207	900.7459	941.5444	1009.951	1033.785	1053.4239	1072.042	1099.8379	1152.986	1162.1771	1185.8847	1192.2141	1212.5628	1229.9138	1251.0894	1309.3244	1366.7932	1441.0953	1512.593	2226.839	3093.8152	3101.4579	3105.2428	3121.2256	3181.1111	3500.2489	3823.3478	3833.1167
OC1C2CC1C2(O)C#C	O[C@H]1[C@H]2C[C@@H]1[C@]2(O)C#C	
InChI=1S/C7H8O2/c1-2-7(9)4-3-5(7)6(4)8/h1,4-6,8-9H,3H2	InChI=1S/C7H8O2/c1-2-7(9)4-3-5(7)6(4)8/h1,4-6,8-9H,3H2/t4-,5+,6+,7+
