20
gdb 80891	2.55796	1.75298	1.4607	1.366	77.65	-0.2306	0.0819	0.3125	1006.6313	0.171516	-403.08996	-403.082121	-403.081177	-403.121569	32.185	
C	-0.0944567958	 1.5518854481	-0.0300347587	-0.434787
C	-0.072007798	 0.0312061361	-0.0213810932	-0.021913
C	 1.1587861545	-0.6058541283	-0.71188688	 0.048803
O	 1.9450956694	-0.2983247725	 0.4926344401	-0.34325
C	 0.6740019445	-0.6191705095	 1.1858797896	 0.414944
C	 0.5936269406	-0.148282438	 2.6100147241	-0.515989
C	 0.5991391618	-2.1431092755	 0.8897114744	-0.088587
N	-0.402391458	-2.5398199637	-0.1300554331	-0.340246
C	 0.9645428654	-2.1301956623	-0.5404466975	-0.050338
H	 0.8861562282	 1.9651361339	 0.2175164834	 0.130681
H	-0.3857314497	 1.9233378721	-1.0185911536	 0.111531
H	-0.8255677389	 1.9363897017	 0.6896184656	 0.112109
H	-1.0438657225	-0.3917412084	-0.2722034982	 0.100602
H	 1.6006822325	-0.2268550046	-1.633463568	 0.071657
H	 0.7255277493	 0.9344195566	 2.6776498082	 0.130857
H	-0.3791139229	-0.4089259487	 3.0398068895	 0.127172
H	 1.3724267654	-0.6255359828	 3.2146324656	 0.127174
H	 0.970050821	-2.8637381964	 1.609592907	 0.092325
H	-0.4493458241	-3.5579278794	-0.1526143013	 0.229945
H	 1.6376352674	-2.8416105983	-1.0030662839	 0.09731
198.0042	218.647	233.2881	234.9092	271.3188	338.0794	406.7656	426.1294	585.9222	607.0138	625.3377	694.6641	771.1569	801.0842	829.5735	850.9063	877.158	882.7514	911.4502	918.9946	961.995	1038.6299	1060.0661	1075.5477	1086.9841	1101.1779	1130.3717	1147.1964	1187.904	1213.9059	1249.5608	1250.3798	1288.1164	1300.9042	1335.7958	1373.951	1400.1189	1408.1709	1422.2516	1480.3476	1489.4003	1499.2063	1509.3416	3032.8945	3037.7418	3089.9672	3103.8296	3113.1543	3121.3235	3122.0384	3132.2723	3175.918	3191.0241	3472.0803
CC1C2OC1(C)C1NC21	C[C@H]1[C@H]2O[C@]1(C)[C@H]1N[C@@H]21	
InChI=1S/C7H11NO/c1-3-5-4-6(8-4)7(3,2)9-5/h3-6,8H,1-2H3	InChI=1S/C7H11NO/c1-3-5-4-6(8-4)7(3,2)9-5/h3-6,8H,1-2H3/t3-,4-,5+,6-,7-/m0/s1
