21
gdb 97609	4.41425	0.5428	0.51187	2.9064	90.21	-0.2431	-0.0244	0.2187	2190.5095	0.178813	-387.084258	-387.072981	-387.072037	-387.123811	38.329	
C	 0.1285025071	 1.4466984259	-0.4457620093	-0.363661
C	-0.0581117797	 0.1900203155	 0.424017082	-0.315047
C	-1.4021016828	-0.373198492	 0.3366757343	 0.112942
C	-2.5187112368	-0.8163029547	 0.2420754097	 0.029336
C	-3.8635635926	-1.3824600693	 0.1529617669	-0.178636
C	-3.8326700036	-2.8207914471	-0.4027362362	-0.381682
C	-4.5763750208	-1.3238631282	 1.5288844894	-0.2651
C	-6.0462333974	-1.6640118977	 1.428412086	 0.156222
O	-6.6281359668	-2.4478495962	 2.1320826372	-0.238344
H	 1.1481849427	 1.8308631716	-0.3475535125	 0.114987
H	-0.0547922996	 1.2204126412	-1.4996427223	 0.127706
H	-0.5672282568	 2.2345825431	-0.1445698017	 0.12704
H	 0.6749785301	-0.5716217373	 0.1285849132	 0.129174
H	 0.1674662254	 0.4325275637	 1.470526491	 0.128718
H	-4.4483428597	-0.7638137145	-0.5443738668	 0.105735
H	-3.2680689865	-3.477399413	 0.2658080378	 0.131525
H	-4.8463476571	-3.2231199424	-0.4996999791	 0.123113
H	-3.3560963118	-2.8444783679	-1.38568671	 0.127855
H	-4.0992689711	-1.9907021044	 2.2521610793	 0.128269
H	-4.5069389477	-0.2981466523	 1.91554634	 0.129986
H	-6.5876170745	-1.1042056538	 0.6272554211	 0.069864
8.465	57.1207	60.5499	92.3522	118.7946	183.3211	214.8036	234.2919	275.4385	321.3663	356.1427	442.4255	505.7693	524.9367	555.2934	717.5745	775.0768	785.4419	890.52	940.0165	962.5881	1005.848	1063.8165	1081.8898	1102.1088	1113.2771	1131.9904	1186.8365	1225.6626	1266.8814	1286.1234	1334.9929	1349.2051	1361.7922	1408.4875	1410.9304	1429.3675	1457.8399	1475.9343	1489.0988	1494.6663	1500.5562	1505.6482	1836.5154	2363.7187	2837.1607	2989.7683	3018.779	3027.6909	3039.5325	3043.7352	3045.5504	3105.9018	3111.0261	3117.0955	3122.6997	3125.3238
CCC#CC(C)CC=O	CCC#C[C@@H](C)CC=O	
InChI=1S/C8H12O/c1-3-4-5-8(2)6-7-9/h7-8H,3,6H2,1-2H3	InChI=1S/C8H12O/c1-3-4-5-8(2)6-7-9/h7-8H,3,6H2,1-2H3/t8-/m1/s1
