18
gdb 51788	4.07661	1.01432	0.90029	3.1511	73.78	-0.2425	0.0196	0.2622	1295.3498	0.148308	-439.061198	-439.053033	-439.052089	-439.095072	30.121	
N	-0.2405570634	 1.2612665125	 0.0645271358	-0.441468
C	-0.1932670383	 0.0184186672	-0.148110679	 0.127799
O	-0.8406198115	-0.8313740624	 0.6721882203	-0.18874
C	-0.8650659389	-2.2121403388	 0.2981409627	 0.078802
C	-1.1277705305	-3.0330935814	 1.5852976856	-0.126188
O	-1.9420696693	-4.1382710588	 1.2232779569	-0.254241
C	-2.6295514362	-3.8089775258	 0.0433174953	 0.11948
C	-3.3968759525	-2.5197939001	-0.0229997434	-0.323516
C	-2.0011530543	-2.6147388607	-0.620693229	-0.095918
H	 0.3209153935	 1.7528487383	-0.6276483913	 0.229106
H	 0.3542630059	-0.4841767532	-0.9581290261	 0.082762
H	 0.0971527188	-2.4759079989	-0.1575387032	 0.091115
H	-0.2147188403	-3.4187193103	 2.0454458219	 0.118677
H	-1.6304071641	-2.3791637269	 2.3094126056	 0.124853
H	-2.9652195287	-4.6899519112	-0.4901498026	 0.107833
H	-4.2243824874	-2.4703689741	-0.7218176235	 0.120199
H	-3.5329619273	-1.9308636552	 0.8770526672	 0.136989
H	-1.8614704355	-2.5480912602	-1.6927692331	 0.092459
44.2136	98.0889	110.0351	229.793	241.7598	373.4382	415.0677	466.5982	617.1651	689.1629	717.13	772.8105	813.9865	821.5168	888.2616	953.4468	971.0131	987.8722	1015.7331	1035.314	1045.409	1046.4285	1074.0873	1101.366	1125.3816	1148.0008	1174.6303	1201.7994	1237.5744	1291.8309	1305.1213	1319.9697	1361.1405	1384.8759	1407.3229	1428.7517	1482.2182	1523.3041	1746.3682	3012.5605	3026.8069	3033.0387	3098.7544	3140.8668	3180.9165	3192.1171	3228.7058	3518.132
N=COC1COC2CC12	[NH][CH]O[C@H]1CO[C@H]2C[C@@H]12	
InChI=1S/C6H9NO2/c7-3-9-6-2-8-5-1-4(5)6/h3-7H,1-2H2	InChI=1S/C6H9NO2/c7-3-9-6-2-8-5-1-4(5)6/h3-7H,1-2H2/t4-,5+,6+/m1/s1
