14
gdb 24529	3.91457	1.77711	1.22224	3.5876	81.01	-0.2154	-0.07	0.1454	930.4704	0.106247	-395.788692	-395.78286	-395.781916	-395.818705	23.929	
N	-0.0124514239	 1.3128721463	 0.0095421347	-0.353325
C	 1.1488202986	 2.0230611467	 0.0024016124	-0.040689
C	 2.3540771834	 1.3529686684	-0.0130552386	-0.05548
N	 2.4749166349	 0.0055038427	-0.021921924	-0.338343
C	 1.3450845181	-0.6788922113	-0.0149373717	 0.321577
C	 1.0322493614	-2.0613790454	-0.0198019588	-0.275314
C	-0.3511851005	-2.1112712486	-0.0067635351	-0.0267
N	-0.9896653711	-0.8774257923	 0.0064329276	-0.374024
C	 0.0175366436	-0.0362950306	 0.0015402966	 0.388141
H	-0.9108896179	 1.7801704334	 0.020874967	 0.28173
H	 1.0637501481	 3.1003624616	 0.0093772967	 0.141321
H	 3.2736528949	 1.9276540593	-0.0186391241	 0.117818
H	 1.7256625281	-2.8867120715	-0.0311898138	 0.104669
H	-0.9609177877	-3.0066534088	-0.0059993589	 0.108617
235.5698	252.7424	412.039	457.8467	559.4195	582.3896	614.9855	618.3963	747.4594	757.6511	767.7888	807.0039	822.7428	876.762	920.3924	925.4343	935.8962	1064.1415	1074.0716	1127.7547	1157.6138	1234.1409	1283.6334	1326.1474	1396.3668	1416.5194	1481.8653	1494.8727	1532.8335	1619.6233	1645.2516	3191.0481	3212.7872	3239.1636	3266.7663	3578.0759
N1C=CN=C2C=CN=C12	[nH]1ccnc2ccnc12	
InChI=1S/C6H5N3/c1-2-8-6-5(1)7-3-4-9-6/h1-4H,(H,8,9)	InChI=1S/C6H5N3/c1-2-8-6-5(1)7-3-4-9-6/h1-4H,(H,8,9)
