18
gdb 38454	3.91295	1.3027	1.21193	2.1257	70.96	-0.2368	0.0716	0.3084	1061.8376	0.149165	-439.030617	-439.023215	-439.022271	-439.063128	28.594	
C	 0.0530657874	 1.6397974765	-0.0098600082	-0.290993
C	 1.5713169668	 1.4807600923	-0.1329947486	-0.037838
N	 2.0009375882	 0.7119593895	 1.0630018711	-0.340626
C	 1.4618968506	 0.0004935601	-0.1259070477	-0.143904
C	-0.068422884	 0.0777395086	 0.0411072976	 0.428112
C	-0.6911965734	-0.6443607611	 1.2576133604	-0.162623
O	-1.8246578132	-1.3233573022	 0.7261386877	-0.23677
C	-1.4984023869	-1.5612664482	-0.6145431663	 0.005438
O	-0.8062233244	-0.4167812917	-1.0682179153	-0.296611
H	-0.3086525472	 2.2025112516	 0.8542143958	 0.104056
H	-0.4128794394	 2.0048262184	-0.9270598442	 0.122106
H	 2.2671665602	 2.1237120531	-0.656316508	 0.096675
H	 3.0166453004	 0.6293597568	 1.0242939946	 0.23134
H	 2.0318712733	-0.7598335129	-0.6460804275	 0.094617
H	 0.0292511371	-1.3515378812	 1.6926057026	 0.104724
H	-1.0332675787	 0.0339155279	 2.0404330097	 0.124949
H	-0.8617551615	-2.4613535012	-0.7133231824	 0.077423
H	-2.4148264955	-1.682137486	-1.1985852114	 0.119925
45.7109	136.8922	217.3313	288.4411	391.7453	410.3104	434.5227	529.9191	731.1676	747.7762	807.1009	823.2383	841.5131	880.0304	916.745	934.9034	969.848	979.8262	1001.1456	1034.5136	1074.6571	1088.3552	1109.94	1125.9772	1138.1581	1177.2752	1180.9308	1204.1603	1225.6367	1256.7825	1257.598	1300.4565	1327.2547	1360.6248	1379.0223	1429.8539	1465.9823	1510.2658	1542.1781	2918.7101	3007.5477	3066.3895	3092.2124	3116.3882	3135.0579	3186.6545	3202.778	3472.2055
C1C2NC2C11COCO1	C1[C@H]2N[C@H]2[C@]21COCO2	
InChI=1S/C6H9NO2/c1-4-5(7-4)6(1)2-8-3-9-6/h4-5,7H,1-3H2	InChI=1S/C6H9NO2/c1-4-5(7-4)6(1)2-8-3-9-6/h4-5,7H,1-3H2/t4-,5-,6+/m1/s1
