19
gdb 108339	2.86708	1.52975	1.28877	2.7634	74.16	-0.2409	0.0558	0.2967	1059.4237	0.158524	-422.957441	-422.949467	-422.948523	-422.989885	31.043	
C	-0.0414377671	 1.5482078697	-0.0427657653	-0.383873
C	-0.0060165528	 0.0146319087	-0.0023622175	-0.281997
C	 0.7091355274	-0.562500331	-1.19907123	 0.459242
O	 0.103636052	-0.2352901615	-2.4663632484	-0.326513
C	 0.1303865682	-1.622380587	-2.8928743664	-0.08883
C	 0.7974293025	-2.0663867711	-1.5738128522	-0.211977
C	 2.3404884553	-1.9510785528	-1.5159121588	 0.013282
O	 2.7447747537	-0.9607918231	-2.4611043593	-0.224874
C	 2.276357537	-0.5112755276	-1.1902274475	-0.042344
H	 0.9668412775	 1.9746088662	-0.0132490306	 0.116961
H	-0.5229826426	 1.8908551951	-0.9623863059	 0.144243
H	-0.5986882481	 1.9486019059	 0.8087910401	 0.113646
H	 0.4922602562	-0.334545894	 0.9114838215	 0.098579
H	-1.0281142184	-0.3807890686	 0.0202286929	 0.104622
H	-0.8851430607	-2.0082242739	-3.0381935498	 0.098862
H	 0.7201867032	-1.7583076159	-3.8033119631	 0.116942
H	 0.3352435492	-2.8446200097	-0.9687808568	 0.085835
H	 3.0673808753	-2.7089429725	-1.2473195058	 0.106725
H	 2.9402860221	 0.128571803	-0.617919387	 0.101471
90.8361	157.36	183.9307	236.7505	293.1182	334.7291	350.2026	488.7315	574.5219	656.5718	723.8708	774.233	805.9363	825.254	850.2893	903.8095	934.0876	950.1724	975.7466	985.8282	1007.164	1018.53	1040.9461	1071.8088	1092.4263	1134.9439	1164.5991	1169.8637	1207.9553	1240.1649	1276.9166	1290.3469	1319.0121	1340.6848	1363.8061	1384.7414	1407.3872	1475.8585	1497.4481	1504.9799	1508.8297	3023.6086	3030.985	3040.9982	3063.1868	3094.8686	3107.6326	3125.1458	3130.5365	3165.2336	3187.5725
CCC12OCC1C1OC21	CC[C@]12OC[C@H]1[C@H]1O[C@@H]21	
InChI=1S/C7H10O2/c1-2-7-4(3-8-7)5-6(7)9-5/h4-6H,2-3H2,1H3	InChI=1S/C7H10O2/c1-2-7-4(3-8-7)5-6(7)9-5/h4-6H,2-3H2,1H3/t4-,5+,6+,7-/m0/s1
