13
gdb 46812	2.7832	1.68252	1.1937	5.4483	64.71	-0.2887	-0.0368	0.2519	977.9128	0.089842	-452.739516	-452.732347	-452.731403	-452.771339	26.509	
N	-0.0612518634	 1.2513949374	 0.2833634072	-0.523242
C	-0.0017397487	 0.0300570281	-0.0077119949	 0.386766
O	 1.1266552954	-0.6916498173	-0.2753723479	-0.250078
C	 0.8194386387	-1.9806489761	-0.8350290171	-0.116152
C	-0.6656666446	-2.1735781486	-0.6248048874	-0.053803
O	-1.0421098947	-2.0396995682	 0.7384899813	-0.264379
C	-1.1846959846	-0.8877653888	-0.1178038635	 0.223358
C	-2.5133756773	-0.3843503008	-0.3383591153	 0.251202
N	-3.5827338097	 0.0075100881	-0.5278436567	-0.323121
H	 0.8644229189	 1.6823534635	 0.272524168	 0.240516
H	 1.0726245924	-1.985296092	-1.9010533541	 0.136523
H	 1.4180960133	-2.7323709354	-0.3135217388	 0.148448
H	-1.2513180958	-2.8531371499	-1.2354827008	 0.143963
121.0703	146.399	187.6534	264.2097	383.4809	400.5971	507.9786	565.5122	573.0318	662.6744	711.1373	770.5456	853.122	891.5813	935.5783	948.8335	983.8571	1014.7662	1097.5814	1104.9006	1170.6043	1228.9619	1280.3279	1315.0671	1388.9078	1436.7727	1500.7372	1791.4267	2376.1793	3048.5231	3105.9393	3181.5601	3486.5923
N=C1OCC2OC12C#N	[NH][C]1OC[C@H]2O[C@@]12C#N	
InChI=1S/C5H4N2O2/c6-2-5-3(9-5)1-8-4(5)7/h3,7H,1H2	InChI=1S/C5H4N2O2/c6-2-5-3(9-5)1-8-4(5)7/h3,7H,1H2/t3-,5-/m1/s1
