17
gdb 106742	2.29852	1.51878	1.09809	3.6019	68.9	-0.2696	-0.0001	0.2695	1130.5002	0.134354	-458.9625	-458.953644	-458.952699	-458.99659	32.317	
C	-0.0873770835	 1.4174364146	 0.0480558831	-0.487122
C	 0.1248379421	-0.0572550524	 0.0741303125	 0.401033
C	 1.3185847758	-0.864620503	-0.2847173973	-0.364459
C	 0.6728514826	-1.030363306	 1.1036038393	 0.027759
C	 1.386002407	-0.9326183668	 2.422310119	-0.180077
O	 2.0255089931	-2.1500772919	 2.7670351782	-0.408571
C	-0.6282850797	-1.748902126	 0.8842733762	 0.442312
O	-1.213137901	-2.6626240509	 1.3751318357	-0.344202
O	-1.060337498	-0.9041304703	-0.1248662155	-0.300088
H	 0.8359116603	 1.9372096308	 0.3183186071	 0.135601
H	-0.3781908205	 1.7434295556	-0.9560459329	 0.147016
H	-0.8759832596	 1.7114584841	 0.7463774071	 0.143042
H	 1.2406534637	-1.6514125034	-1.0282090237	 0.137112
H	 2.2760408582	-0.3512459606	-0.2523371663	 0.131912
H	 2.1737603999	-0.1737764273	 2.3713336839	 0.114153
H	 0.6778265538	-0.6199071033	 3.2044657547	 0.105477
H	 1.338404696	-2.821609033	 2.8468402291	 0.299103
43.808	119.6903	148.0514	213.8226	233.1756	267.8507	343.7908	386.6078	417.7482	491.0347	519.3746	629.5242	691.3221	752.665	818.7608	855.9971	885.9597	952.0966	959.3477	989.6751	1031.0957	1054.7804	1086.3348	1115.1384	1136.0698	1213.8186	1250.0144	1344.2079	1382.9811	1400.477	1421.1665	1439.796	1474.6802	1492.0604	1499.2622	1511.8567	1925.264	2991.0692	3041.8479	3073.4153	3109.2885	3119.6945	3125.184	3211.6922	3802.8717
CC12CC1(CO)C(=O)O2	C[C@@]12C[C@]1(CO)C(=O)O2	
InChI=1S/C6H8O3/c1-5-2-6(5,3-7)4(8)9-5/h7H,2-3H2,1H3	InChI=1S/C6H8O3/c1-5-2-6(5,3-7)4(8)9-5/h7H,2-3H2,1H3/t5-,6+/m1/s1
