21
gdb 94460	2.67736	1.42644	1.20636	1.0562	78.06	-0.2448	0.0839	0.3287	1137.0545	0.182977	-424.221623	-424.21295	-424.212006	-424.255365	32.749	
C	-0.6751333491	 1.2081722344	-0.0042364659	-0.427167
C	 0.1476490669	-0.0666178303	-0.1038578491	 0.002989
C	 1.5577491414	-0.0498659537	-0.759045175	-0.24308
C	 2.0176491623	-1.1009756045	 0.2876818487	-0.292809
C	 0.7987970394	-0.7108354438	 1.1585106583	 0.396845
C	 1.0880022343	 0.1981606042	 2.3641848299	-0.166132
O	 0.0213600751	-0.0885214525	 3.2566858068	-0.238062
C	-0.1834195151	-1.4685464172	 3.1024628792	 0.011597
O	 0.0491035613	-1.7743667218	 1.7409054595	-0.30385
H	-0.080230902	 2.0500832485	 0.366793877	 0.110703
H	-1.0680870252	 1.4973183649	-0.9848912535	 0.115079
H	-1.5258516189	 1.0754754565	 0.6726178241	 0.127787
H	-0.4515525851	-0.8580188691	-0.5677100672	 0.085515
H	 1.6266001568	-0.3247730168	-1.8132100627	 0.101417
H	 2.0581090159	 0.9137192823	-0.6182374623	 0.098044
H	 1.9079086358	-2.1239491221	-0.0802007109	 0.116115
H	 3.0103989665	-0.9884199084	 0.7329240607	 0.093726
H	 2.0584592017	-0.0648291946	 2.8162783645	 0.092751
H	 1.0768816082	 1.266357779	 2.1441775347	 0.120347
H	 0.5137074039	-2.043812663	 3.7389727549	 0.082872
H	-1.2179927341	-1.706192672	 3.3705032683	 0.115314
52.8353	100.5344	176.1308	199.2184	241.1583	296.505	323.8779	423.1937	456.5646	501.8294	661.7621	740.56	773.5452	791.3303	878.8672	887.6079	921.0733	942.5086	959.8881	983.8005	1028.9089	1053.5727	1102.9224	1112.3751	1129.6461	1151.4613	1169.4526	1176.4627	1196.9191	1205.4772	1247.2281	1256.6284	1271.0028	1291.7854	1299.7347	1361.0024	1383.3614	1406.64	1432.5838	1480.7025	1490.6923	1493.451	1501.1589	1512.7054	1545.1637	2932.9193	2973.0143	3026.8497	3044.9304	3053.8771	3059.1521	3071.488	3090.7799	3099.2573	3106.9951	3121.5041	3123.0031
CC1CCC11COCO1	C[C@H]1CC[C@]21COCO2	
InChI=1S/C7H12O2/c1-6-2-3-7(6)4-8-5-9-7/h6H,2-5H2,1H3	InChI=1S/C7H12O2/c1-6-2-3-7(6)4-8-5-9-7/h6H,2-5H2,1H3/t6-,7+/m0/s1
