18
gdb 86704	2.15556	1.52215	1.02016	4.3638	74.14	-0.2304	-0.0355	0.1949	1188.3498	0.144742	-439.068871	-439.059491	-439.058547	-439.10417	32.57	
C	-0.4430325198	 1.4848185516	-0.1139538956	-0.330889
N	-0.1976937485	 0.0656653345	 0.0198982595	-0.080809
C	-1.2132276414	-0.7584680424	 0.71506665	-0.173247
C	-0.0956511215	-1.5046283242	 1.4772112069	-0.142375
C	 0.1814821252	-2.9260602834	 1.0272577973	 0.148822
O	-0.4404685741	-3.4844893553	 0.1592912822	-0.242092
C	 0.8594390405	-0.3860288236	 0.943314745	-0.061078
C	 2.132811341	-0.7699242081	 0.2244171793	 0.167956
O	 2.7397557878	-1.7952354937	 0.4005646471	-0.247781
H	 0.422607048	 1.9765620148	-0.5693861338	 0.125062
H	-1.3018619272	 1.6470497089	-0.7727919508	 0.133231
H	-0.6516430507	 1.9811445626	 0.8533810594	 0.094387
H	-1.8596949463	-0.1733000635	 1.3850961234	 0.091567
H	-1.8233967626	-1.3734856238	 0.0492980789	 0.135939
H	-0.1777117465	-1.507506043	 2.5673466182	 0.102377
H	 0.9884025242	-3.4420963261	 1.5829851254	 0.10032
H	 1.109393375	 0.3519621272	 1.7281734671	 0.087276
H	 2.4704430069	-0.0140427726	-0.5202599596	 0.091334
45.7282	68.8388	94.1124	181.643	214.2959	230.2893	272.0657	296.5082	344.6002	415.4723	612.4414	636.5574	703.2517	778.0969	828.8466	918.8705	959.2463	988.6949	1005.6878	1064.4545	1080.1271	1097.7501	1136.4889	1165.7873	1193.1989	1217.9324	1249.3662	1266.0924	1327.2382	1339.2338	1352.6856	1409.7152	1425.6959	1452.8925	1487.2026	1495.784	1508.7387	1817.7471	1829.1676	2881.1322	2923.0434	2928.1853	2943.7461	2996.8784	3063.3344	3079.44	3100.2536	3105.7764
CN1CC(C=O)C1C=O	CN1C[C@@H](C=O)[C@H]1C=O	
InChI=1S/C6H9NO2/c1-7-2-5(3-8)6(7)4-9/h3-6H,2H2,1H3	InChI=1S/C6H9NO2/c1-7-2-5(3-8)6(7)4-9/h3-6H,2H2,1H3/t5-,6+/m0/s1
