17
gdb 126094	3.09202	1.60805	1.12224	2.8765	74.52	-0.2316	0.0129	0.2445	1060.5476	0.138747	-418.023547	-418.016011	-418.015067	-418.055849	28.629	
C	 0.1103497497	 1.559736708	-0.0446599351	-0.385586
C	-0.0148090314	 0.0465371659	 0.091176314	 0.029498
O	 0.5462748862	-0.5922164023	-1.0779448954	-0.299006
C	 1.4517353844	-1.663610862	-0.7559623341	-0.197739
C	 1.6255837315	-1.5612293295	 0.7229552528	 0.198328
C	 2.273622904	-2.041581641	 1.8354870015	-0.217683
N	 1.7706252072	-1.3224990435	 2.8823138977	-0.183189
N	 0.8395565552	-0.4059725946	 2.5232301532	-0.33591
C	 0.7668865829	-0.5677583397	 1.2116114849	 0.298947
H	 1.162267448	 1.8515619506	-0.1068905553	 0.118968
H	-0.4027357787	 1.901503738	-0.947713097	 0.122151
H	-0.3397875566	 2.051845913	 0.8230328367	 0.125781
H	-1.0801794268	-0.2245216301	 0.1594101721	 0.090282
H	 1.0160318693	-2.6241129577	-1.0703092667	 0.108018
H	 2.3774231218	-1.5175236321	-1.3275740609	 0.114072
H	 3.0229335893	-2.8019129251	 1.988540143	 0.138504
H	 2.0252761143	-1.3993382179	 3.8525879585	 0.274564
68.0354	159.1584	226.1799	233.5503	300.9356	448.8621	479.4379	490.6318	612.5012	643.0233	676.844	743.5653	775.8439	788.0724	859.4384	974.5767	1002.2875	1039.3516	1050.0023	1058.6048	1088.0846	1112.9453	1144.4214	1193.6344	1197.641	1303.2361	1313.3275	1355.6122	1374.3673	1401.9715	1454.8154	1471.1903	1482.4376	1493.6819	1519.9056	1524.4115	1634.0915	2973.7624	2984.7749	3026.1175	3042.558	3119.8231	3125.0383	3261.5394	3672.8001
CC1OCC2=CNN=C12	C[C@H]1OCc2c[nH]nc12	
InChI=1S/C6H8N2O/c1-4-6-5(3-9-4)2-7-8-6/h2,4H,3H2,1H3,(H,7,8)	InChI=1S/C6H8N2O/c1-4-6-5(3-9-4)2-7-8-6/h2,4H,3H2,1H3,(H,7,8)/t4-/m1/s1
