16
gdb 37901	3.24035	2.17112	1.74372	2.056	66.46	-0.2392	0.0607	0.3	797.0792	0.127857	-437.78938	-437.783791	-437.782846	-437.819042	24.176	
C	-0.0387880142	 1.4841761919	 0.0533698922	-0.191429
O	 1.3650064709	 1.8838064231	-0.0285335494	-0.284218
C	 2.1903815857	 0.7179948482	-0.1445283834	 0.181004
O	 2.1940055388	-0.0085461313	 1.0874268407	-0.270202
C	 1.0075230188	-0.7612220374	 0.916954725	 0.12027
C	 1.0102619227	-1.5885841616	-0.390631792	-0.116593
N	-0.5052153983	-1.3208780034	-0.4967648518	-0.412325
C	 0.1259421917	-0.0069798576	-0.1126893521	 0.246513
C	 1.3652327642	-0.2118472158	-1.0285631026	-0.101737
H	-0.4410760604	 1.7904292402	 1.0240145499	 0.122069
H	-0.6036918746	 1.9741771667	-0.7475372394	 0.11408
H	 3.1947818853	 1.0534168618	-0.3926038892	 0.097045
H	 0.6063434277	-1.1567772405	 1.8461915482	 0.104063
H	 1.4188880334	-2.5776495241	-0.5984403205	 0.090222
H	-0.757895766	-1.2909111356	-1.4889452154	 0.215428
H	 1.2764469543	-0.0281464544	-2.0983174702	 0.085809
246.5354	377.2655	425.7111	460.4299	545.059	617.3729	704.0992	740.9217	770.2547	802.2423	864.892	877.2858	898.9512	902.7047	940.0262	967.2434	995.6285	1007.8544	1021.5556	1061.3774	1067.899	1109.7749	1125.6448	1155.9366	1173.5834	1204.3732	1235.824	1251.3609	1268.0899	1295.5456	1320.362	1331.4058	1362.8867	1381.2511	1516.9786	3034.0378	3083.7849	3114.4325	3134.8319	3157.9805	3171.0724	3398.1
C1OC2OC3C4NC13C24	C1O[C@H]2O[C@@H]3[C@H]4N[C@@]13[C@@H]24	
InChI=1S/C6H7NO2/c1-6-2-3(7-6)4(6)9-5(2)8-1/h2-5,7H,1H2	InChI=1S/C6H7NO2/c1-6-2-3(7-6)4(6)9-5(2)8-1/h2-5,7H,1H2/t2-,3+,4-,5+,6-/m1/s1
