17
gdb 128836	6.03332	0.69274	0.65778	3.6498	72.2	-0.2684	-0.0377	0.2307	1673.6237	0.134805	-455.113131	-455.104237	-455.103293	-455.148294	30.571	
C	-0.1873427293	 1.3765450414	-0.0247495437	-0.233516
O	 0.021919823	-0.0170293708	 0.0108036509	-0.22999
C	 0.628032329	-0.5094327265	-1.1585530896	-0.051437
C	 0.7866491527	-2.0241531465	-0.9858178163	-0.325872
C	 1.4265457249	-2.6721145131	-2.162660375	 0.404858
C	 2.5863593877	-3.3643325945	-2.3368226702	-0.210589
N	 2.6517202944	-3.7201420338	-3.6622065973	-0.106451
N	 1.6463314516	-3.3040599605	-4.2868466063	-0.009763
O	 0.8084426794	-2.6068906962	-3.3434280726	-0.218378
H	 0.7599471381	 1.9280959292	-0.1295017859	 0.108647
H	-0.8487252023	 1.6678563833	-0.8553028464	 0.110659
H	-0.6587277001	 1.6585818841	 0.9193371836	 0.132533
H	 0.0129222782	-0.2931251551	-2.046451786	 0.111074
H	 1.6132293785	-0.0402637175	-1.3202706646	 0.097202
H	 1.3885681982	-2.2244161135	-0.0954705176	 0.134777
H	-0.2045234395	-2.4588566417	-0.8154086491	 0.145544
H	 3.3555218055	-3.6294399683	-1.632158114	 0.140702
45.7051	81.0964	93.8047	111.0999	233.3309	256.3144	309.9387	336.4495	453.8555	627.43	680.3951	704.0155	765.5845	806.8671	826.6159	988.4195	995.3337	1044.9988	1058.8516	1067.5096	1125.6332	1163.7682	1181.0342	1226.1644	1227.7638	1246.9992	1301.8323	1314.3229	1379.6037	1422.1463	1460.0371	1480.2056	1483.451	1487.1991	1504.6622	1533.4728	1610.2215	2961.1139	2977.8861	2999.9222	3023.0266	3053.352	3108.8928	3120.4398	3291.9268
COCCC1=CN=NO1	COCCc1cnno1	
InChI=1S/C5H8N2O2/c1-8-3-2-5-4-6-7-9-5/h4H,2-3H2,1H3	InChI=1S/C5H8N2O2/c1-8-3-2-5-4-6-7-9-5/h4H,2-3H2,1H3
