19
gdb 68115	4.51994	1.00774	0.99845	0.4703	76.06	-0.2597	0.079	0.3387	1241.1695	0.158971	-422.952608	-422.94449	-422.943546	-422.985466	31.688	
O	 0.0255363462	 1.3237914586	 0.0424747393	-0.467711
C	 0.0310564677	-0.0558201962	 0.0028422632	 0.392786
C	 0.7388022121	-1.054759856	 0.9693126005	-0.330247
C	-0.0801379981	-1.9179212478	-0.0428687064	 0.369894
C	-1.252767025	-0.9020136298	 0.1514766786	-0.300839
C	 0.449341953	-0.9908556081	-1.1766136168	-0.334042
C	-0.1772364448	-3.4005611455	-0.0580609101	-0.081754
C	-0.2804921296	-4.1738996848	-1.3029878673	-0.180231
O	 0.9505205403	-4.1124090738	-0.5817885509	-0.235563
H	 0.9295274052	 1.6367938329	-0.0708033656	 0.283117
H	 1.8271053883	-1.1334045213	 0.8978555286	 0.094943
H	 0.3948217118	-1.0589071723	 2.0070813435	 0.093109
H	-1.7344930779	-0.8905621062	 1.1327197237	 0.094916
H	-1.9802476896	-0.8358933868	-0.6618393757	 0.095121
H	-0.1579140255	-0.9281172296	-2.0837587057	 0.092187
H	 1.5164919685	-1.0655196657	-1.4008534031	 0.097066
H	-0.5952206068	-3.844447245	 0.8476869522	 0.089473
H	-0.7807591812	-5.1415147787	-1.2958809346	 0.114471
H	-0.2874298445	-3.6523190939	-2.2585616134	 0.113304
67.3766	140.5145	161.5711	246.5139	331.8934	353.8393	425.0393	471.8874	549.6086	562.4053	624.3774	652.3564	781.4354	798.5347	853.0738	901.2609	938.5365	958.4385	982.847	986.4589	1036.258	1059.2662	1094.3424	1102.9097	1118.4563	1127.5269	1139.5893	1152.4454	1159.1934	1161.5263	1173.357	1182.2518	1279.5023	1293.3175	1336.4759	1375.7841	1448.8408	1492.75	1495.7361	1525.3789	1566.2739	3047.5498	3049.5407	3058.5284	3083.2064	3090.5517	3116.477	3122.1075	3122.7239	3171.9627	3808.4375
OC12CC(C1)(C2)C1CO1	O[C@@]12C[C@@](C1)(C2)[C@H]1CO1	
InChI=1S/C7H10O2/c8-7-2-6(3-7,4-7)5-1-9-5/h5,8H,1-4H2	InChI=1S/C7H10O2/c8-7-2-6(3-7,4-7)5-1-9-5/h5,8H,1-4H2/t5-,6-,7+/m1/s1
