20
gdb 83964	2.63642	1.71614	1.65655	1.353	78.51	-0.2165	0.0135	0.23	961.784	0.173769	-403.133684	-403.126358	-403.125414	-403.16485	30.204	
C	 0.0135135292	 1.4474011011	-0.0541581391	-0.326552
N	-0.0177379041	-0.0058073449	 0.0516249056	-0.069604
C	-1.3680856225	-0.5526971825	 0.3085954703	-0.070542
C	-1.2635860708	-2.0532249948	-0.0413376733	-0.066686
O	-0.3227759969	-2.7133556931	 0.794210879	-0.253411
C	 0.9131574147	-2.0283608268	 0.9435083325	-0.066687
C	 0.690868337	-0.5291689925	 1.2401226595	-0.070543
C	-0.3320498838	-0.3770376077	 2.3699380162	-0.06385
C	-1.5443710408	-0.3909333107	 1.8214563794	-0.063845
H	 1.0475569008	 1.7745300516	-0.2030065349	 0.115387
H	-0.5633366696	 1.7561176502	-0.9318556801	 0.115387
H	-0.3916900472	 1.9703356134	 0.8282087958	 0.099728
H	-2.125413951	-0.0663031368	-0.3130107452	 0.067201
H	-2.2150140434	-2.5717105714	 0.1149036848	 0.101435
H	-0.9775978849	-2.1387232886	-1.1005237281	 0.093268
H	 1.433563893	-2.5300260962	 1.7656782475	 0.101436
H	 1.5215293582	-2.1101935529	 0.0301841991	 0.093269
H	 1.648325062	-0.0231858593	 1.394320781	 0.0672
H	-0.0883102979	-0.3617311445	 3.4248480829	 0.098704
H	-2.497793832	-0.3893381236	 2.3347415569	 0.098705
198.0065	219.8157	261.1134	278.9246	339.874	377.8035	408.0174	445.0413	642.9672	675.1139	716.8822	784.6339	820.697	830.4548	853.5448	865.9332	909.2781	945.7179	988.2052	1011.582	1016.7205	1058.3442	1061.8837	1120.0638	1123.317	1158.3463	1169.1869	1209.6658	1238.4215	1259.1732	1282.7996	1297.6699	1320.9964	1324.5064	1357.5414	1376.437	1410.3578	1449.3047	1483.1224	1484.6166	1495.0833	1508.0291	1659.4838	2966.7487	2989.013	2994.0061	3063.1132	3070.1065	3072.7402	3077.247	3079.7979	3100.9172	3198.7127	3224.5517
CN1C2COCC1C=C2	CN1[C@H]2COC[C@@H]1C=C2	
InChI=1S/C7H11NO/c1-8-6-2-3-7(8)5-9-4-6/h2-3,6-7H,4-5H2,1H3	InChI=1S/C7H11NO/c1-8-6-2-3-7(8)5-9-4-6/h2-3,6-7H,4-5H2,1H3/t6-,7+
