19
gdb 119693	4.63569	1.03298	0.9556	1.1795	75.79	-0.2267	0.07	0.2967	1290.2087	0.158487	-422.941107	-422.932838	-422.931894	-422.974685	30.902	
C	 0.6120039907	 1.3726925037	 0.3334836611	-0.219366
O	 0.9363431714	 0.0040077977	 0.4019199026	-0.238303
C	-0.1242333242	-0.7867952048	 0.8889538767	-0.202155
C	 0.3427395151	-2.2059449606	 0.9273849305	 0.478474
O	-0.5423253836	-3.2026191079	 1.4420699665	-0.342115
C	 0.6175213002	-4.0885372581	 1.4717465246	 0.061633
C	 0.8984696055	-4.3643744422	-0.0278279875	-0.236207
C	 1.2750670565	-2.8838237882	-0.0917116861	-0.146687
C	 1.5937459025	-2.8543206374	 1.4066210431	-0.188267
H	 0.3578104612	 1.7812046926	 1.3239981755	 0.10769
H	 1.4902229587	 1.8965597939	-0.0509594653	 0.129279
H	-0.2378495214	 1.5567075732	-0.3422516196	 0.107752
H	-0.4274971218	-0.4640462572	 1.899177115	 0.099809
H	-1.013296737	-0.7045901364	 0.2395125413	 0.09971
H	 0.5464077187	-4.8678551167	 2.227239804	 0.085252
H	 1.7745488603	-5.0039493689	-0.1641314723	 0.102991
H	 0.0545515416	-4.7329372742	-0.6198327574	 0.098679
H	 1.7618564202	-2.3278150533	-0.8808906541	 0.101466
H	 2.4477777056	-2.5167278551	 1.9759904713	 0.100364
66.9421	77.2734	127.3495	218.9013	260.2099	341.0736	383.6828	461.2727	555.278	675.7177	763.9496	783.8584	790.2781	839.2868	891.2437	914.2279	929.845	951.4523	986.8933	1002.6288	1042.3245	1071.9152	1090.2314	1096.8186	1127.7966	1158.2679	1163.7707	1171.9617	1185.8007	1230.0236	1233.8424	1253.7589	1273.8475	1298.3011	1410.5394	1470.8415	1482.8051	1484.6363	1486.5949	1504.55	1528.1529	2949.8103	2974.7917	2979.5855	3019.4845	3046.6399	3109.7128	3117.566	3146.4815	3212.9631	3222.6383
COCC12OC3CC1C23	COC[C@@]12O[C@H]3C[C@@H]1[C@@H]23	
InChI=1S/C7H10O2/c1-8-3-7-4-2-5(9-7)6(4)7/h4-6H,2-3H2,1H3	InChI=1S/C7H10O2/c1-8-3-7-4-2-5(9-7)6(4)7/h4-6H,2-3H2,1H3/t4-,5+,6-,7-/m1/s1
