21
gdb 111916	2.3846	1.19629	0.89371	0.8852	81.51	-0.2333	0.0253	0.2585	1364.9467	0.1818	-424.236618	-424.226951	-424.226007	-424.270998	36.289	
C	-0.038755847	 1.5202041752	 0.1270676208	-0.49425
C	 0.0507906389	 0.0297700231	 0.0340327044	 0.304339
C	 0.1263421592	-0.7169293401	-1.0724462518	-0.176039
C	 0.1386477472	-2.1981495101	-0.7653921508	-0.040432
C	 1.0421765081	-3.0428089707	-1.6576589252	-0.084847
O	 0.5057543561	-2.9850584428	-2.9745188602	-0.426505
C	 0.5208911345	-2.2166943711	 0.7416209686	 0.094256
O	 1.9263553473	-2.3448430612	 0.9387440079	-0.433439
C	 0.0046197197	-0.8573295583	 1.2658827834	-0.323439
H	 0.7737986315	 1.9317248876	 0.7396671626	 0.121861
H	 0.0048893679	 1.9899209614	-0.859356012	 0.124145
H	-0.9747846186	 1.8305482463	 0.6095727769	 0.126159
H	 0.1355959984	-0.3377272052	-2.0879889594	 0.09755
H	-0.8790968101	-2.6018953698	-0.8812332308	 0.087875
H	 2.0707335871	-2.6573085773	-1.6306818495	 0.079359
H	 1.0723906754	-4.0771463878	-1.2814171343	 0.089556
H	 1.1032081224	-3.458100357	-3.5607390593	 0.285836
H	 0.0872193787	-3.0699905916	 1.2692338314	 0.081066
H	 2.3389980862	-1.567935666	 0.5432816602	 0.278967
H	 0.6245300032	-0.50186851	 2.0973188049	 0.102594
H	-1.023561966	-0.9357721246	 1.6479225622	 0.105389
93.7453	105.1456	146.5794	177.0459	195.7229	274.0404	296.8692	333.926	375.2149	389.1345	429.3696	490.7573	519.1362	615.148	779.5385	829.3948	857.9611	884.3465	891.4861	936.7441	991.2258	1015.0453	1035.5538	1066.9658	1074.8917	1094.4538	1113.6406	1168.5253	1187.7216	1216.0127	1236.0168	1264.2221	1281.6104	1282.9121	1325.0701	1340.2909	1371.0496	1415.0484	1433.1579	1456.0963	1475.5195	1479.9475	1488.9187	1514.8515	1710.1888	2980.6855	2985.2057	3005.5576	3015.4356	3022.4891	3058.2103	3059.5963	3084.1296	3109.9969	3199.6989	3788.7224	3830.9976
CC1=CC(CO)C(O)C1	CC1=C[C@@H](CO)[C@@H](O)C1	
InChI=1S/C7H12O2/c1-5-2-6(4-8)7(9)3-5/h2,6-9H,3-4H2,1H3	InChI=1S/C7H12O2/c1-5-2-6(4-8)7(9)3-5/h2,6-9H,3-4H2,1H3/t6-,7-/m0/s1
