22
gdb 59595	2.37458	1.39771	1.15101	1.6813	81.31	-0.2422	0.0236	0.2658	1204.6902	0.194168	-404.374583	-404.365036	-404.364091	-404.408745	35.862	
C	-1.559416025	-0.2894234537	-0.1726105303	-0.39956
C	-0.0802307329	 0.1121632888	-0.0601658875	 0.029993
C	 0.0619635438	 1.6404964902	-0.1391554271	-0.400651
C	 0.6071909555	-0.41763223	 1.2116562224	 0.07474
O	-0.235413398	-0.1317066493	 2.3710778542	-0.233121
C	-0.6095940067	-1.3411261843	 2.8518803451	 0.112851
N	-0.1096935102	-2.3999284191	 2.3713843791	-0.275594
C	 0.8735807905	-1.9528154162	 1.3581441087	 0.019832
C	 0.8399045917	-2.8146120125	 0.0982581034	-0.408293
H	-2.1475339496	 0.1980509582	 0.6102215017	 0.125738
H	-1.9625075947	 0.0264907727	-1.1397235909	 0.111371
H	-1.7143668503	-1.3668034262	-0.0795360565	 0.125902
H	 0.4672630181	-0.3218004775	-0.9071162906	 0.080737
H	-0.4180703927	 2.1165784611	 0.7223310308	 0.130255
H	 1.1135988439	 1.9461351934	-0.1500640857	 0.109337
H	-0.4103792495	 2.0311425982	-1.0460194045	 0.1113
H	 1.53503064	 0.1415339479	 1.3627466008	 0.086751
H	-1.3418862954	-1.2960560962	 3.6511336088	 0.135568
H	 1.8665959133	-2.082947575	 1.810078958	 0.090574
H	-0.128392303	-2.7802414806	-0.4051530947	 0.127073
H	 1.6115308982	-2.5019130423	-0.6125829263	 0.114209
H	 1.035153683	-3.8541805774	 0.3740193211	 0.130989
73.5746	101.9525	182.7227	211.961	229.9118	249.7531	259.8693	295.3599	346.4538	372.2827	472.8294	533.6171	604.0325	707.6688	799.8431	838.3406	864.9294	905.3223	935.1764	938.0615	963.2192	967.0449	1001.6016	1065.2356	1098.6403	1118.7635	1122.2635	1152.9266	1164.211	1207.9744	1297.9821	1305.9423	1329.6024	1334.764	1366.6404	1379.1214	1386.2388	1400.939	1409.4997	1426.1991	1486.4986	1488.9667	1495.8528	1500.2217	1505.098	1517.5993	1705.3793	2997.8136	3023.1143	3030.8309	3045.8034	3047.5496	3062.6808	3099.9748	3105.0948	3112.7119	3115.4017	3124.3073	3133.8136	3208.723
CC(C)C1OC=NC1C	CC(C)[C@H]1O[CH][N][C@H]1C	
InChI=1S/C7H13NO/c1-5(2)7-6(3)8-4-9-7/h4-7H,1-3H3	InChI=1S/C7H13NO/c1-5(2)7-6(3)8-4-9-7/h4-7H,1-3H3/t6-,7+/m0/s1
