20
gdb 22456	2.07802	1.25965	0.85943	2.3207	74.35	-0.2491	-0.0098	0.2393	1371.6748	0.168584	-477.375729	-477.365203	-477.364259	-477.411468	38.291	
C	 0.8874483781	 0.6702566421	-0.5448117056	-0.378737
C	 0.0066180309	-0.5743624103	-0.3274674509	-0.253627
C	-1.3148789078	-0.25094869	 0.3234572519	 0.334169
N	-2.3315068745	 0.2281635182	-0.2875724348	-0.18958
O	-2.0951649619	 0.4313482213	-1.6542269177	-0.396511
C	-1.4636215783	-0.4958257108	 1.8175299841	 0.014102
O	-0.3767830317	 0.1104348805	 2.5172775672	-0.420424
C	-2.8061046368	-0.0531695058	 2.4150973874	-0.088158
O	-3.9108385085	-0.7407419216	 1.8752249844	-0.417593
H	 1.8233620617	 0.3908619049	-1.0375502964	 0.118153
H	 0.3753467993	 1.4029204005	-1.1729613413	 0.13498
H	 1.1354311137	 1.1364014438	 0.4121746862	 0.1195
H	-0.1920871063	-1.0502060701	-1.2926476425	 0.126685
H	 0.5397933703	-1.2905769564	 0.3040212783	 0.113977
H	-2.9423367438	 0.7684887971	-1.964763916	 0.307652
H	-1.3442589853	-1.5727759661	 1.9925519784	 0.112117
H	-0.4974716904	 1.0660620317	 2.4662776124	 0.285514
H	-2.7794966021	-0.2670360303	 3.4878913134	 0.113626
H	-2.9025435843	 1.03958855	 2.2947236886	 0.077416
H	-3.9331268924	-0.4891639987	 0.9423918029	 0.28674
45.3886	87.8061	154.8954	177.3586	205.7186	223.4232	235.2379	284.2134	324.1329	349.9354	388.3698	425.2428	472.7673	520.3808	549.2934	597.4583	676.885	777.8269	808.5658	944.6999	983.2497	1010.0252	1044.5427	1070.433	1088.1406	1099.1648	1115.212	1205.5561	1223.7767	1249.5604	1293.3926	1350.9441	1358.1606	1392.6655	1398.8009	1406.6832	1413.7051	1442.1654	1478.125	1498.1967	1499.8811	1509.6815	1722.0434	2959.0317	3037.7104	3047.6852	3053.9025	3085.3051	3099.6366	3118.0439	3135.1842	3752.1494	3789.3569	3818.2435
CCC(=NO)C(O)CO	CCC(=NO)[C@@H](O)CO	
InChI=1S/C5H11NO3/c1-2-4(6-9)5(8)3-7/h5,7-9H,2-3H2,1H3	InChI=1S/C5H11NO3/c1-2-4(6-9)5(8)3-7/h5,7-9H,2-3H2,1H3/t5-/m0/s1
