20
gdb 116922	4.53873	0.57222	0.53719	1.0189	86.99	-0.2214	0.0387	0.2601	2061.0918	0.168895	-403.082246	-403.071751	-403.070807	-403.119892	36.529	
C	-0.3425039531	 1.3690093177	 0.0773693499	-0.308309
N	 0.0353566639	-0.0379272576	 0.0623744795	-0.079199
C	 1.4088738771	-0.3466457515	-0.2889653391	-0.238043
C	 0.9374240898	-0.526597021	 1.125715085	-0.178589
C	 1.4268820334	 0.334662228	 2.1676437045	 0.123505
C	 1.817791938	 1.0340023807	 3.0692059467	 0.019319
C	 2.2722271195	 1.8793614927	 4.1649853201	-0.327299
C	 1.1575183107	 2.2018742969	 5.1668942044	-0.062042
O	 1.7294014984	 3.0252611395	 6.1685160557	-0.415154
H	 0.4579273807	 2.0416311254	 0.4188418226	 0.112182
H	-0.6357935101	 1.6576410291	-0.9366848247	 0.122256
H	-1.2061223186	 1.5021714869	 0.735997288	 0.124253
H	 1.5606234234	-1.2172946225	-0.9218861205	 0.118101
H	 2.0940724218	 0.4806790913	-0.466831356	 0.115563
H	 0.6932677937	-1.5358272641	 1.4505099084	 0.111091
H	 3.0936301269	 1.3936743254	 4.7061677581	 0.139153
H	 2.6743765176	 2.8242519431	 3.7792702132	 0.137377
H	 0.3321588847	 2.7077828156	 4.6439822125	 0.097513
H	 0.7604730675	 1.2649336535	 5.5850133469	 0.098829
H	 1.0472367648	 3.2369847905	 6.8120174347	 0.289494
16.517	65.2534	76.6804	124.1996	168.6884	220.4227	233.8123	277.9918	338.6455	371.18	392.4348	451.8496	523.4754	600.5415	723.2122	775.0562	792.0023	878.0586	972.7933	1004.2163	1030.0033	1069.0569	1080.618	1086.841	1114.2238	1127.7762	1160.1032	1198.3089	1209.6915	1221.0982	1237.7949	1303.4935	1319.9751	1333.3851	1378.7027	1446.7115	1453.782	1474.5136	1489.3802	1494.283	1508.5056	1527.2279	2357.1243	2983.5057	2995.2077	3014.291	3029.353	3066.7879	3077.1231	3092.7249	3108.3441	3123.4075	3181.7056	3834.4726
CN1CC1C#CCCO	CN1C[C@H]1C#CCCO	
InChI=1S/C7H11NO/c1-8-6-7(8)4-2-3-5-9/h7,9H,3,5-6H2,1H3	InChI=1S/C7H11NO/c1-8-6-7(8)4-2-3-5-9/h7,9H,3,5-6H2,1H3/t7-,8?/m1/s1
