20
gdb 87891	3.72274	1.08774	0.99188	1.4828	80.89	-0.227	0.0321	0.2592	1296.886	0.170254	-403.166929	-403.157903	-403.156959	-403.200794	33.75	
C	 0.1037131987	 1.5598401961	-0.2288357578	-0.410459
C	 0.0137245528	 0.0663655322	-0.0110196909	-0.067799
C	 1.2490989852	-0.8207374972	-0.0972230515	-0.358902
C	 0.5744932559	-0.5839500089	 1.2171732394	 0.403975
C	 1.1830889266	 0.1227755047	 2.4341168614	-0.264663
N	 0.7062924606	-0.6553617479	 3.5855493527	-0.3094
C	-0.0100414521	-1.5943565109	 3.1154133084	 0.396579
C	-0.7146847009	-2.6491725865	 3.8972724505	-0.476405
O	-0.1734377035	-1.6773439226	 1.7637044023	-0.278191
H	 1.0427201453	 1.9670315698	 0.1603909307	 0.118838
H	 0.0601621041	 1.8012188504	-1.2961991823	 0.122221
H	-0.7180831357	 2.0877776869	 0.2673867966	 0.122831
H	-0.8982048383	-0.3977169765	-0.3777475678	 0.098117
H	 1.1414885072	-1.8010280905	-0.5481865637	 0.122486
H	 2.2126339809	-0.345447391	-0.2600518961	 0.112831
H	 2.2792697509	 0.1288153149	 2.411983393	 0.114051
H	 0.8556755905	 1.1653653752	 2.5250835593	 0.114939
H	-0.5286695746	-2.5015550874	 4.9604598591	 0.151666
H	-1.7911337694	-2.6108352398	 3.7027341167	 0.143434
H	-0.3647267341	-3.641714611	 3.59650403	 0.14385
57.5857	137.6879	166.3575	196.7513	204.5355	257.171	284.5401	397.4628	424.807	475.4366	520.1249	612.8052	675.152	795.2012	820.4625	872.4083	897.7288	921.0532	964.3022	981.9848	1008.46	1034.1953	1059.8277	1075.5535	1081.4972	1109.8934	1126.7776	1179.9826	1205.4197	1214.7844	1270.7914	1319.8066	1351.8213	1405.6983	1414.7812	1427.8394	1475.6117	1476.7036	1484.8471	1492.8533	1501.2386	1508.494	1741.4463	3024.1031	3030.2027	3050.3575	3052.0787	3093.0754	3097.451	3107.4761	3119.6314	3146.2809	3165.9755	3214.2139
CC1CC11CN=C(C)O1	C[C@H]1C[C@]21CN=C(C)O2	
InChI=1S/C7H11NO/c1-5-3-7(5)4-8-6(2)9-7/h5H,3-4H2,1-2H3	InChI=1S/C7H11NO/c1-5-3-7(5)4-8-6(2)9-7/h5H,3-4H2,1-2H3/t5-,7+/m0/s1
