14
gdb 129103	5.09384	1.30771	1.04829	2.0697	70.07	-0.212	-0.0137	0.1983	1048.1717	0.104475	-429.045011	-429.038164	-429.037219	-429.076367	26.248	
N	-0.0723413268	 1.2587807037	-0.0632696915	-0.535085
C	 0.00262999	-0.0051341588	 0.005130677	 0.391189
C	-1.2628665057	-0.9104638485	 0.0266742977	-0.424864
C	-0.6358419742	-2.2653270361	-0.0158106084	 0.309056
C	 0.7271090462	-2.1663572556	 0.0015651496	 0.390137
N	 1.1344699038	-0.8332139559	 0.078169328	-0.44416
N	 1.3107424128	-3.3769522218	-0.0174889406	-0.308293
N	 0.3374150715	-4.2686912829	-0.0500852572	-0.129724
N	-0.8408464267	-3.5983932893	-0.0406507613	-0.321949
H	 0.8488258915	 1.6990483219	-0.0635297951	 0.212494
H	-1.8405875154	-0.7126001703	 0.9356019337	 0.157057
H	-1.9027932969	-0.6665261889	-0.8261929477	 0.156942
H	 2.0593635621	-0.5064893229	-0.1463259564	 0.263863
H	-1.6951998522	-4.1312902047	-0.0628820177	 0.283337
92.3322	199.067	279.7321	341.3795	355.4593	526.9417	536.0037	554.6553	563.9308	697.4366	736.9086	744.1152	829.0565	851.3316	860.5291	962.0228	1030.7489	1041.322	1071.2519	1156.3673	1175.8766	1200.5268	1253.6036	1295.8801	1321.2966	1377.3386	1450.3082	1465.4889	1567.9776	1622.8162	1754.9472	3056.2729	3094.0981	3466.4026	3662.0905	3663.5816
N=C1CC2=C(N1)N=NN2	[NH][C]1Cc2c(N1)nn[nH]2	
InChI=1S/C4H5N5/c5-3-1-2-4(6-3)8-9-7-2/h1H2,(H3,5,6,7,8,9)	InChI=1S/C4H5N5/c5-3-1-2-4(6-3)8-9-7-2/h1H2,(H3,5,6,7,8,9)
