18
gdb 23325	3.40887	1.28707	1.19941	1.4206	73.98	-0.2449	0.009	0.2539	1087.428	0.149832	-439.059568	-439.052208	-439.051263	-439.091397	29.428	
O	-0.133009153	 1.3434992157	-0.000318839	-0.393972
N	 0.0112760468	-0.058077008	-0.0163675121	-0.259449
C	-1.1188557329	-0.6322596005	 0.002382125	 0.451852
C	-2.5233789364	-0.06315928	 0.0604688441	-0.319997
C	-3.3246790396	-1.3848806344	-0.0027894174	 0.067008
C	-3.2385141883	-1.9900717775	-1.4244991753	-0.219927
C	-1.78226317	-2.5481151664	-1.4304444816	-0.223672
C	-1.3046959413	-2.1363976782	-0.014220225	-0.018869
O	-2.5006095856	-2.2764486894	 0.7698512506	-0.264126
H	 0.7829747295	 1.6417184784	 0.0114431802	 0.305914
H	-2.6850576461	 0.458739971	 1.0090334905	 0.133132
H	-2.7279187698	 0.6412925123	-0.750218004	 0.124885
H	-4.3226941121	-1.3445719353	 0.4320804428	 0.083254
H	-3.9712814058	-2.7906674409	-1.5447581674	 0.109397
H	-3.4180164809	-1.2474476335	-2.2059011948	 0.103971
H	-1.7714595208	-3.6362486589	-1.5257187984	 0.110208
H	-1.1556136703	-2.1267814513	-2.219247939	 0.114703
H	-0.4891942533	-2.7182356431	 0.4099743207	 0.095688
93.2831	187.9688	224.5114	318.5992	381.8014	402.0856	468.5177	537.8618	577.4733	625.3052	751.9808	793.3237	826.9321	841.5156	864.2655	901.5598	927.1022	949.3622	973.4699	985.7731	1007.1179	1027.659	1061.4012	1106.5517	1165.3311	1197.2196	1227.1564	1230.5615	1260.6326	1274.2558	1300.6415	1317.3367	1335.7739	1349.9178	1406.7434	1462.675	1485.9026	1505.8741	1778.9672	3058.6018	3066.0582	3074.8874	3103.8036	3108.7824	3126.5439	3129.8141	3151.1436	3814.4529
ON=C1CC2CCC1O2	ON=C1C[C@H]2CC[C@@H]1O2	
InChI=1S/C6H9NO2/c8-7-5-3-4-1-2-6(5)9-4/h4,6,8H,1-3H2	InChI=1S/C6H9NO2/c8-7-5-3-4-1-2-6(5)9-4/h4,6,8H,1-3H2/t4-,6+/m1/s1
