21
gdb 102594	2.12998	1.29305	0.88206	2.8268	74.96	-0.2394	0.06	0.2995	1362.5558	0.181486	-461.324149	-461.314233	-461.313289	-461.359798	35.236	
C	 0.0252401187	 1.642829344	-0.1817788437	-0.238096
O	-0.1183059549	 0.2532987488	 0.018952778	-0.248954
C	 0.5560651447	-0.5560198956	-0.9308893619	 0.063783
C	 2.0403238814	-0.7665625229	-0.5780342375	-0.078643
O	 2.7614796966	-1.3344081399	-1.6507874262	-0.426919
C	-0.2102999407	-1.8766354893	-0.9376240544	 0.142268
C	-1.4944884421	-1.9617292014	-1.786035956	-0.296439
C	-0.7123384272	-2.9903210828	-2.6281458067	-0.066651
O	 0.4404956324	-2.8893791047	-1.7564683765	-0.304021
H	 1.0700894553	 1.9747869931	-0.1062238124	 0.114485
H	-0.3632278478	 1.9513684752	-1.1643214781	 0.107097
H	-0.5545117674	 2.1402641406	 0.5995935004	 0.129076
H	 0.5124475887	-0.0996860622	-1.9336245117	 0.067419
H	 2.5037174186	 0.2010910032	-0.3586806501	 0.102367
H	 2.1079383196	-1.3727856921	 0.3409154696	 0.088369
H	 2.2707093317	-2.1262792795	-1.9126465288	 0.292235
H	-0.3117078765	-2.2213319464	 0.0987472614	 0.093374
H	-2.3673742608	-2.3569765805	-1.2659758549	 0.118287
H	-1.7692487223	-1.038637642	-2.2987141008	 0.116116
H	-1.1134634292	-4.00944502	-2.6402330464	 0.112215
H	-0.4727562089	-2.6878482155	-3.6537804832	 0.112631
65.6286	83.6345	92.5929	139.9759	157.7789	210.0254	257.2008	268.197	372.9698	431.8119	460.3326	520.5557	558.2388	778.2776	806.7011	864.3299	941.0445	964.9519	990.0256	1002.5495	1027.81	1058.4069	1091.2833	1111.1505	1139.8803	1156.6308	1170.7188	1182.9039	1209.031	1222.8145	1244.7285	1258.8573	1279.6571	1319.1128	1330.6332	1357.5457	1393.4515	1417.5997	1468.9033	1479.9622	1489.315	1490.211	1510.0678	1510.6135	1530.0084	2962.9194	2975.4263	2985.0209	3029.596	3035.8406	3038.0156	3069.7899	3074.4825	3086.1707	3115.0505	3141.5212	3730.9945
COC(CO)C1CCO1	CO[C@@H](CO)[C@H]1CCO1	
InChI=1S/C6H12O3/c1-8-6(4-7)5-2-3-9-5/h5-7H,2-4H2,1H3	InChI=1S/C6H12O3/c1-8-6(4-7)5-2-3-9-5/h5-7H,2-4H2,1H3/t5-,6+/m1/s1
