17
gdb 78646	2.96144	1.5052	1.159	3.5702	72.58	-0.2365	0.0051	0.2416	1064.6868	0.135018	-421.795893	-421.787854	-421.78691	-421.828215	30.942	
C	-0.0107737947	 1.4629839469	 0.0748545351	-0.510169
C	-0.0123306106	-0.0327013419	-0.0206831052	 0.195655
C	-0.9141019246	-0.9430594362	 0.8316109118	-0.158856
C	 0.5743829831	-1.0920754108	 0.9477785805	-0.148185
C	 0.4645245452	-2.1338955143	-0.2432329416	-0.242847
C	-1.0491497745	-2.29296504	 0.1160564893	 0.146812
O	-1.3581703659	-3.3662117253	 0.9674916362	-0.434046
C	 0.4822260506	-0.8908206713	-1.1475769701	 0.393686
O	 0.9319547713	-0.6455750871	-2.232445659	-0.342549
H	 0.9247110113	 1.8718195022	-0.3185050042	 0.142096
H	-0.8334295614	 1.8931501584	-0.5055820513	 0.138456
H	-0.1226300361	 1.7965301942	 1.1112254157	 0.124224
H	-1.6068789437	-0.4948722618	 1.5351598113	 0.102341
H	 1.3019829386	-0.9289386597	 1.7279773799	 0.115508
H	 1.0938026168	-2.9982059957	-0.4362228055	 0.096815
H	-1.74604662	-2.3675095655	-0.7245201943	 0.099468
H	-0.7798433953	-3.3095432521	 1.7381828511	 0.281593
134.4473	155.8564	187.1267	216.0087	268.7229	323.8409	379.261	462.5875	473.6596	607.7385	686.6021	763.2953	775.8197	814.4168	836.4891	864.7763	886.7582	929.3497	931.4511	989.4347	1017.8382	1072.7416	1090.0511	1096.7392	1122.7773	1132.7119	1168.4296	1226.7764	1264.6772	1276.8246	1307.1584	1399.5495	1423.143	1437.0452	1482.6989	1495.9414	1872.7796	3037.2002	3070.6222	3102.2771	3111.2908	3168.7688	3181.4653	3238.6294	3780.0717
CC12C3C1C(C3O)C2=O	C[C@]12[C@@H]3[C@H]1[C@@H]([C@H]3O)C2=O	
InChI=1S/C7H8O2/c1-7-3-2(6(7)9)5(8)4(3)7/h2-5,8H,1H3	InChI=1S/C7H8O2/c1-7-3-2(6(7)9)5(8)4(3)7/h2-5,8H,1H3/t2-,3+,4+,5+,7+/m0/s1
