15
gdb 28610	5.61402	0.94314	0.85088	3.2534	69.	-0.2026	0.0309	0.2335	1292.3774	0.113838	-453.957873	-453.950114	-453.949169	-453.990828	28.701	
O	 0.2341249613	 1.3150371857	 0.149150651	-0.426181
C	 0.1092550727	-0.0157411135	 0.0145986359	 0.445845
N	-0.0035013636	-0.6880843396	-1.0974323099	-0.360301
C	-0.1050879328	-2.0110057782	-0.6941481023	-0.172926
C	-0.0534164575	-2.1151921095	 0.6671238564	 0.300798
N	 0.0925644081	-0.8027848511	 1.1206308739	-0.385277
C	-0.1162665114	-3.2711022924	 1.5772663893	-0.06049
C	-1.287620987	-4.1711056955	 1.6398623973	-0.166946
O	-0.0969574189	-4.5512033438	 0.9509380859	-0.217724
H	 0.2258672092	 1.6770624815	-0.7459936482	 0.315812
H	-0.1917547054	-2.8149130519	-1.4070684894	 0.123969
H	 0.1521478862	-0.484521546	 2.0729363192	 0.271098
H	 0.5028386382	-3.2006140418	 2.4751855497	 0.09408
H	-1.4966483243	-4.7284261433	 2.5526943594	 0.115922
H	-2.1446852048	-3.9554276805	 1.004834812	 0.12232
49.9668	134.3721	158.8659	282.2557	348.2331	405.0624	436.7885	459.361	485.8385	648.6915	671.7146	728.4044	735.8513	847.2458	867.661	890.8972	986.1919	1022.2364	1057.2456	1094.6779	1146.9105	1151.407	1167.7948	1190.2715	1227.5366	1272.4087	1297.4275	1366.8578	1451.0496	1516.366	1549.0645	1601.0459	1643.4558	3071.8666	3081.7611	3178.11	3269.1571	3670.6362	3804.5
OC1=NC=C(N1)C1CO1	Oc1ncc([nH]1)[C@H]1CO1	
InChI=1S/C5H6N2O2/c8-5-6-1-3(7-5)4-2-9-4/h1,4H,2H2,(H2,6,7,8)	InChI=1S/C5H6N2O2/c8-5-6-1-3(7-5)4-2-9-4/h1,4H,2H2,(H2,6,7,8)/t4-/m1/s1
