24
gdb 101829	4.79594	0.5863	0.56516	1.0712	86.99	-0.23	0.0773	0.3074	2029.1565	0.215821	-405.513249	-405.502388	-405.501444	-405.550197	39.115	
C	-0.2614942934	 1.5515470611	-0.1047234916	-0.391132
C	-0.0078655967	 0.0393821622	-0.0285216142	 0.036753
C	 0.8556535319	-0.4218160884	-1.204633378	-0.079219
O	 0.1681798471	-0.1313032456	-2.413887955	-0.424394
C	 0.6413870057	-0.3989261909	 1.2949878604	-0.188115
C	-0.2420739915	-0.2005392609	 2.5280026521	-0.152874
N	 0.4089690119	-0.7427041948	 3.7180377705	-0.058391
C	 1.2709703392	 0.1794658606	 4.4518503093	-0.218863
C	-0.0536208788	-0.2232431137	 4.999193386	-0.220987
H	 0.6678942223	 2.1089275853	 0.0679518412	 0.103337
H	-0.6378645781	 1.8207483302	-1.0939204624	 0.133939
H	-0.9913831875	 1.8814762318	 0.639824059	 0.10962
H	-0.9724040373	-0.478415828	-0.1305940093	 0.080357
H	 1.8303839205	 0.0940114001	-1.1687979763	 0.080474
H	 1.0523229866	-1.5020067842	-1.1144769272	 0.083086
H	 0.7415629674	-0.3634657183	-3.149551352	 0.285917
H	 0.9052162601	-1.4622788759	 1.2442138948	 0.10317
H	 1.5845024559	 0.1465626405	 1.4392334839	 0.091981
H	-0.4936284145	 0.8671897675	 2.6573079619	 0.080696
H	-1.1895299209	-0.7378680135	 2.3930359148	 0.101162
H	 2.1884122184	-0.2416989369	 4.8529262106	 0.114722
H	 1.3622984524	 1.1985887726	 4.077460159	 0.106883
H	-0.8417695847	 0.5285976337	 4.9923442055	 0.106903
H	-0.1227702159	-0.9466219547	 5.806743597	 0.114974
42.8171	61.8124	106.5836	116.4737	146.4097	235.6922	242.9903	254.1901	273.4829	323.8755	392.6854	415.1072	458.472	544.6165	766.347	791.0454	829.4343	859.4757	901.0511	925.5089	948.9643	987.6024	1012.1936	1034.388	1055.7444	1083.4775	1107.6766	1113.0211	1117.2491	1152.9407	1170.0916	1175.203	1200.1988	1231.1253	1258.7096	1273.5353	1301.3033	1318.8469	1328.4223	1356.1114	1381.0508	1402.8147	1410.3447	1457.0363	1483.5786	1490.8136	1495.5527	1501.9942	1509.54	1520.7201	1523.4081	2941.8731	2954.3472	2984.9078	3006.8311	3015.0735	3029.7075	3037.3777	3062.9751	3089.6981	3094.8467	3097.7587	3129.8188	3173.5754	3187.9148	3836.1653
CC(CO)CCN1CC1	C[C@@H](CO)CCN1CC1	
InChI=1S/C7H15NO/c1-7(6-9)2-3-8-4-5-8/h7,9H,2-6H2,1H3	InChI=1S/C7H15NO/c1-7(6-9)2-3-8-4-5-8/h7,9H,2-6H2,1H3/t7-/m1/s1
