22
gdb 99709	2.26775	0.99675	0.72229	0.9949	92.3	-0.2295	0.0536	0.2831	1643.2485	0.191678	-367.159123	-367.148253	-367.147309	-367.196951	38.145	
C	-0.049776734	 1.532510391	-0.0621320795	-0.39592
C	-0.0715486617	 0.0025444553	-0.0705210937	-0.16286
C	-1.4849176217	-0.6133397237	 0.0010152222	-0.179114
C	-1.4170283587	-2.0719680117	-0.1129608699	 0.088302
C	-1.34748112	-3.2696763453	-0.2139351362	 0.1067
C	-1.2661793282	-4.7185924778	-0.3321613954	-0.499885
N	-2.1395156692	-0.2402183719	 1.2676701997	-0.06133
C	-3.0626343632	 0.892896043	 1.2168807229	-0.220884
C	-3.5732991796	-0.4972675054	 1.3442926077	-0.214359
H	 0.9749131639	 1.9006074907	-0.1727652975	 0.11143
H	-0.6397728508	 1.9469713156	-0.887893813	 0.107893
H	-0.4480406247	 1.9340801944	 0.8731833396	 0.131605
H	 0.406185299	-0.3724007139	-0.9823690268	 0.101179
H	 0.5045992313	-0.3881039356	 0.7745889157	 0.113821
H	-2.0703096701	-0.2312242805	-0.8588210523	 0.075733
H	-1.9557561974	-5.0981655314	-1.0943984037	 0.145458
H	-0.2560084677	-5.0396209535	-0.6096015808	 0.147429
H	-1.5187942713	-5.2070169734	 0.6154836842	 0.149501
H	-3.0387967	 1.5590567914	 2.0747261585	 0.115578
H	-3.2104559799	 1.3905147927	 0.2597721058	 0.110256
H	-4.059177024	-0.9324238796	 0.4729390684	 0.114141
H	-3.9330993119	-0.8723571405	 2.2979519243	 0.115325
17.7658	70.87	85.8818	100.4599	129.605	205.6432	252.6105	268.0563	310.2315	331.928	368.9441	443.2218	482.7833	535.2365	718.262	794.5758	819.9248	860.4691	898.5308	920.4833	993.0566	1035.0132	1052.31	1053.7437	1058.1566	1097.9471	1113.1855	1118.5891	1125.2741	1167.995	1178.3423	1198.7162	1285.5636	1304.7663	1320.7282	1358.1292	1381.2406	1408.4692	1414.6074	1477.676	1478.3705	1479.2498	1491.8629	1497.5786	1508.0993	1519.3742	2372.2191	2894.1012	3025.8186	3032.6154	3043.3133	3081.6525	3085.5653	3087.2443	3093.9818	3099.0849	3100.8317	3120.3568	3175.7053	3190.9084
CCC(C#CC)N1CC1	CC[C@@H](C#CC)N1CC1	
InChI=1S/C8H13N/c1-3-5-8(4-2)9-6-7-9/h8H,4,6-7H2,1-2H3	InChI=1S/C8H13N/c1-3-5-8(4-2)9-6-7-9/h8H,4,6-7H2,1-2H3/t8-/m0/s1
