16
gdb 35832	1.96519	1.72716	0.96428	4.6032	83.03	-0.2647	-0.0452	0.2195	1182.0038	0.124467	-363.61023	-363.601908	-363.600963	-363.643488	30.855	
C	-0.0971601662	-1.2496535038	-0.0599927826	-0.448045
C	-0.0395602456	-0.05001782	-0.0309977751	 0.323782
C	 0.0261418578	 1.4040422089	 0.0156566105	-0.276267
C	-0.6362205611	 2.027843348	 1.2828999357	-0.223586
C	 0.205246234	 3.2819258285	 1.615248075	-0.266076
C	 1.5236570365	 3.0013270855	 0.9484575667	-0.154194
C	 1.4463550171	 1.9819652348	 0.0844706925	 0.205207
C	 2.5035477235	 1.5105893269	-0.7388040257	 0.221269
N	 3.3518692028	 1.1161352061	-1.4217497594	-0.337287
H	-0.1391062481	-2.3102982416	-0.0948490289	 0.203961
H	-0.4546170687	 1.7983422774	-0.8915749389	 0.126209
H	-1.6937355966	 2.2449191903	 1.1224514972	 0.118025
H	-0.5637661799	 1.3063630351	 2.100300228	 0.12995
H	-0.2366331898	 4.1985484365	 1.199321275	 0.126569
H	 0.3044836838	 3.4516631337	 2.6923873227	 0.123897
H	 2.4183768504	 3.5874008437	 1.1218425273	 0.126589
79.4047	103.2791	170.7442	194.2577	227.3977	369.1571	456.4499	469.1827	524.1241	565.2836	622.3522	633.7909	653.9284	668.7891	803.8024	837.5694	896.5251	934.282	946.6765	1014.2976	1049.2596	1063.6222	1153.1558	1185.1378	1228.822	1262.9289	1294.4539	1305.6853	1331.6626	1354.3222	1478.9058	1497.0309	1678.1643	2242.1886	2340.2228	2996.7299	3013.6527	3066.7257	3078.8428	3126.8639	3211.732	3503.4858
C#CC1CCC=C1C#N	C#C[C@H]1CCC=C1C#N	
InChI=1S/C8H7N/c1-2-7-4-3-5-8(7)6-9/h1,5,7H,3-4H2	InChI=1S/C8H7N/c1-2-7-4-3-5-8(7)6-9/h1,5,7H,3-4H2/t7-/m0/s1
