21
gdb 89847	2.84485	1.29228	1.13438	2.5285	77.54	-0.247	0.068	0.3151	1170.1392	0.183464	-424.222449	-424.213851	-424.212907	-424.25586	34.302	
O	-0.1787537383	 1.5016634215	-0.3883659207	-0.450894
C	-0.0436343364	 0.1179938831	-0.0446975711	 0.084234
C	-1.3892271911	-0.6064986631	-0.0174689558	-0.3206
C	-1.6989003995	-0.7905886905	-1.5029363978	 0.371251
C	-2.9818438997	-1.4012909069	-1.9782020235	-0.341715
C	-2.7517578534	 0.0808046297	-2.1666184699	-0.321427
C	-0.3524996847	-1.0490896189	-2.1933236833	-0.329341
C	 0.7421917208	-0.6134978556	-1.1652875708	 0.139929
O	 1.7654856788	 0.1907886904	-1.7013416565	-0.445125
H	-0.8861792556	 1.5703057369	-1.0409014887	 0.29328
H	 0.488873048	 0.1063090686	 0.9092358766	 0.082895
H	-1.2671125771	-1.5806955718	 0.4738702863	 0.106161
H	-2.1570491532	-0.0518633552	 0.5301904845	 0.104144
H	-2.9477937413	-2.0336054591	-2.8595338413	 0.115172
H	-3.7109222236	-1.7117447646	-1.2363932703	 0.112466
H	-3.3318121762	 0.7626236902	-1.5514160121	 0.113248
H	-2.5595444932	 0.4391223237	-3.17315556	 0.115924
H	-0.2358071062	-2.1055507286	-2.4557126874	 0.103618
H	-0.2364855846	-0.474254783	-3.1164260005	 0.105879
H	 1.2214490106	-1.5042323033	-0.7428002933	 0.0807
H	 1.4629740859	 1.1010502963	-1.5656691645	 0.280202
41.033	123.3147	255.3168	287.4931	305.5919	351.8198	368.4184	397.9717	422.3288	475.9856	559.3239	591.9824	721.9954	763.1934	790.2195	817.9066	853.8417	869.5322	919.864	941.2485	963.1542	990.537	996.3359	1047.1855	1051.3238	1081.8182	1084.2733	1123.0778	1168.9621	1192.0498	1205.8812	1217.3194	1247.0788	1281.3105	1291.6148	1312.4073	1324.1441	1364.5563	1378.1132	1427.4781	1449.4054	1466.7714	1480.747	1493.7303	1503.6607	3024.5733	3034.4583	3048.8886	3085.332	3089.8318	3093.0974	3116.0184	3124.8846	3196.806	3212.9462	3717.3617	3785.8477
OC1CC2(CC2)CC1O	O[C@H]1CC2(CC2)C[C@H]1O	
InChI=1S/C7H12O2/c8-5-3-7(1-2-7)4-6(5)9/h5-6,8-9H,1-4H2	InChI=1S/C7H12O2/c8-5-3-7(1-2-7)4-6(5)9/h5-6,8-9H,1-4H2/t5-,6+
