18
gdb 47055	3.49965	1.39769	1.1057	4.7219	72.26	-0.2375	0.017	0.2545	1092.3175	0.150235	-439.103343	-439.095953	-439.095009	-439.135393	28.911	
O	 0.0120521096	 0.2335025212	-0.9468387051	-0.325206
C	-0.0068089802	 1.2226244549	-0.2679049988	 0.429378
C	-1.2882526798	 1.9856879178	 0.0469722062	-0.309563
N	-1.1900716355	 2.691734872	 1.3166734522	-0.305136
C	-0.1343836267	 3.6863485961	 1.2624377351	-0.028949
C	 0.4314026253	 4.0032758322	 2.6725355858	-0.242534
C	 1.443433837	 2.8343725769	 2.4941841386	-0.240285
C	 1.1863532864	 2.9344201149	 0.9746060369	 0.16475
O	 1.1503293788	 1.718931859	 0.2293112213	-0.233377
H	-1.4893218258	 2.6460909741	-0.8189937511	 0.111941
H	-2.0897716371	 1.2456389454	 0.0820946964	 0.14173
H	-2.0784313702	 3.1113383585	 1.56737567	 0.22859
H	-0.3623797236	 4.5388273873	 0.6020571822	 0.057857
H	 0.9190657623	 4.9806357158	 2.7036146481	 0.107557
H	-0.2780253619	 3.9282366026	 3.4981712302	 0.109727
H	 2.4678260968	 2.9779818449	 2.8403621038	 0.106523
H	 1.0476424545	 1.8980200311	 2.8890843764	 0.129627
H	 1.9186168601	 3.5795665553	 0.481660042	 0.09737
90.9647	125.1512	235.1357	325.5683	382.4846	410.1346	455.3134	513.8332	612.6325	647.5257	708.2769	747.5151	813.9663	836.7244	889.6914	935.817	957.8009	987.0264	1016.815	1035.7535	1081.255	1108.7988	1150.1256	1169.9311	1201.977	1214.7225	1248.9225	1259.8905	1264.1653	1279.4219	1308.8113	1333.1068	1399.7409	1403.144	1466.0966	1472.62	1481.9748	1492.9277	1851.636	2918.931	2957.46	3069.291	3074.7212	3087.3771	3114.932	3126.5851	3150.3278	3528.4129
O=C1CNC2CCC2O1	O=C1CN[C@H]2CC[C@H]2O1	
InChI=1S/C6H9NO2/c8-6-3-7-4-1-2-5(4)9-6/h4-5,7H,1-3H2	InChI=1S/C6H9NO2/c8-6-3-7-4-1-2-5(4)9-6/h4-5,7H,1-3H2/t4-,5+/m0/s1
