23
gdb 40310	2.87289	1.20317	1.0089	0.16	88.97	-0.2496	0.0969	0.3465	1300.2197	0.206213	-351.113188	-351.104224	-351.103279	-351.147158	35.39	
C	-0.2394477772	 1.2350219156	-0.2729495929	-0.263045
C	 1.2134194023	 0.9093535604	-0.0266237395	-0.29299
C	 0.1645726668	-0.1561538985	 0.155377175	-0.040635
C	-0.2464109777	-0.7148305496	 1.4940822223	 0.340477
C	 0.8242414377	-1.322266752	 2.3709697764	-0.316306
C	 0.1753085878	-0.0189716841	 2.7677149297	-0.316306
C	-1.6216753871	-1.3306407321	 1.4432501466	-0.040635
C	-1.827272251	-2.7579363852	 0.9931129006	-0.263045
C	-2.118762885	-2.363456632	 2.4203403771	-0.29299
H	-0.7383025875	 1.856362432	 0.4636345932	 0.111484
H	-0.5730286113	 1.394140202	-1.2924484072	 0.108137
H	 1.8746798727	 0.8233512146	-0.8820374205	 0.108693
H	 1.6873860202	 1.3404315434	 0.8483855909	 0.111415
H	 0.1343648218	-0.9052892976	-0.6328596552	 0.082841
H	 0.6036162391	-2.207998194	 2.9564058308	 0.109613
H	 1.8414828834	-1.2823538166	 1.9968488788	 0.110555
H	 0.7663952686	 0.8887095564	 2.7161171454	 0.109613
H	-0.5299245468	-0.0403983821	 3.5914423036	 0.110555
H	-2.377469932	-0.6280758957	 1.098850829	 0.082841
H	-2.6581397491	-2.986048476	 0.3346322824	 0.108137
H	-0.9392091351	-3.3562160132	 0.8173806486	 0.111484
H	-1.4496160113	-2.7268050409	 3.1925672272	 0.111415
H	-3.1543678593	-2.2996342648	 2.7363204876	 0.108693
63.7869	69.1666	171.2632	198.3191	272.7988	277.9707	329.2217	440.9763	451.2893	551.9866	619.3862	761.4861	785.7991	797.089	812.0392	829.8711	835.5293	895.1622	909.0154	929.8589	936.357	958.0889	963.2049	996.698	1051.8781	1056.4637	1059.1082	1079.9872	1080.1912	1081.9573	1114.8227	1134.4678	1142.7315	1144.9635	1189.2395	1197.0692	1198.6927	1208.1151	1227.6635	1267.4092	1345.8117	1392.6725	1422.4469	1459.2003	1465.6452	1472.7171	1505.0642	1510.0348	1512.4722	3124.5224	3125.0922	3129.8667	3130.1217	3133.1767	3135.2315	3135.897	3136.5782	3206.5197	3206.6656	3209.6873	3221.1733	3221.8973	3223.3812
C1CC1C1(CC1)C1CC1	C1CC1C1(CC1)C1CC1	
InChI=1S/C9H14/c1-2-7(1)9(5-6-9)8-3-4-8/h7-8H,1-6H2	InChI=1S/C9H14/c1-2-7(1)9(5-6-9)8-3-4-8/h7-8H,1-6H2
