17
gdb 74767	4.14639	1.1397	1.06056	2.0539	80.83	-0.2331	-0.0063	0.2268	1177.9529	0.134562	-384.609313	-384.601268	-384.600323	-384.641699	31.274	
C	 0.040621916	 1.4609523359	 0.060327146	-0.51745
C	-0.0035923205	-0.0235908576	-0.0209681154	 0.348987
C	-0.0152558072	-0.8837871656	-1.0456379023	-0.214546
C	-0.0493147238	-2.2347742621	-0.3201625444	 0.024305
O	-1.0241418472	-1.9846867781	 0.742891585	-0.279363
C	-0.0352381317	-1.0023263586	 1.1737517437	-0.036137
C	 1.0868005234	-2.0312755939	 0.7579054259	-0.202908
C	 1.3156421024	-3.1315318431	 1.6704916648	 0.312202
C	 1.5418726889	-4.0414659047	 2.4234975368	-0.417015
H	 0.9257970166	 1.8050475895	 0.6103807337	 0.131641
H	 0.0636488316	 1.9150696978	-0.9340110411	 0.13154
H	-0.8320606826	 1.8559104488	 0.5954966469	 0.136872
H	 0.0089278637	-0.7119504712	-2.1117006448	 0.109325
H	-0.1918070766	-3.1672553707	-0.8626995125	 0.090848
H	-0.1607545538	-0.6380663426	 2.1926201139	 0.087371
H	 2.0242953793	-1.6045940247	 0.392856775	 0.100601
H	 1.7261541216	-4.8475399691	 3.0896521287	 0.193728
119.6781	138.1497	166.844	207.1569	295.679	396.1551	464.2601	490.8051	554.6313	589.2232	631.6955	634.3103	674.5329	778.8655	805.4043	853.6059	863.5893	907.1028	920.5321	929.8738	1012.2896	1039.1992	1058.7677	1067.0417	1132.5054	1165.9947	1198.1198	1212.4299	1231.6287	1289.9604	1296.152	1342.5242	1414.2248	1478.0292	1484.9934	1685.4661	2232.9664	3017.968	3064.256	3078.4024	3110.6875	3136.5531	3148.5808	3241.0642	3504.207
CC1=CC2OC1C2C#C	CC1=C[C@@H]2O[C@H]1[C@H]2C#C	
InChI=1S/C8H8O/c1-3-6-7-4-5(2)8(6)9-7/h1,4,6-8H,2H3	InChI=1S/C8H8O/c1-3-6-7-4-5(2)8(6)9-7/h1,4,6-8H,2H3/t6-,7-,8+/m0/s1
