16
gdb 19462	5.05126	1.64966	1.60614	2.4093	69.11	-0.2302	-0.0297	0.2006	834.6455	0.131362	-346.572621	-346.566162	-346.565218	-346.603286	25.34	
O	-0.6686516678	 0.8065528448	 0.6270672069	-0.245667
C	 0.1373375689	 1.0254956815	-0.2441145603	 0.119803
C	 1.3123412658	 1.9584446381	-0.1451060216	-0.056597
C	 1.1197997757	 3.4029490641	-0.7853576292	-0.090443
C	 0.3725756511	 3.7653113023	 0.5410318112	-0.215296
C	 1.4764289047	 2.8289555494	 1.1489223178	-0.070533
C	 2.7378589504	 3.6202625493	 0.7724313654	-0.089716
C	 2.5079114362	 3.9907456102	-0.4906631153	-0.087722
H	 0.0588196398	 0.5107276641	-1.2312295546	 0.074474
H	 2.2049924397	 1.4329641395	-0.5032510469	 0.087094
H	 0.6814629242	 3.5446944925	-1.7729201482	 0.069263
H	 0.3928254888	 4.8140742757	 0.8429381094	 0.097121
H	-0.6336195853	 3.3487831127	 0.6166239977	 0.122193
H	 1.3876159748	 2.3948329373	 2.1426155852	 0.076978
H	 3.5901494636	 3.8069485568	 1.4098420651	 0.104488
H	 3.1150384194	 4.5649827218	-1.1756924427	 0.10456
91.7148	185.7694	262.527	388.9377	488.9005	535.9135	666.6859	699.4075	734.2411	800.3953	831.9021	848.6663	900.1969	912.2482	928.1418	935.8946	974.5572	1016.0347	1044.2059	1063.5242	1091.2073	1108.6301	1141.3375	1193.3289	1217.0569	1229.1891	1243.4287	1251.2597	1316.1164	1348.3038	1422.675	1501.1935	1622.8358	1814.8085	2849.7015	3049.2694	3074.0213	3120.6529	3141.9302	3143.3695	3222.132	3249.0365
O=CC1C2CC1C=C2	O=C[C@H]1[C@H]2C[C@@H]1C=C2	
InChI=1S/C7H8O/c8-4-7-5-1-2-6(7)3-5/h1-2,4-7H,3H2	InChI=1S/C7H8O/c8-4-7-5-1-2-6(7)3-5/h1-2,4-7H,3H2/t5-,6+,7+
