17
gdb 117065	4.4212	0.81805	0.69939	0.3164	67.56	-0.2635	-0.0533	0.2102	1608.4288	0.132781	-496.155535	-496.145239	-496.144295	-496.194149	33.845	
C	-0.1583997573	 1.4716147179	 0.0110206799	-0.392322
C	-0.0349419522	-0.0385732021	 0.00163248	-0.046768
O	-1.3725926903	-0.586106025	 0.0115151687	-0.217981
C	-1.4488534878	-1.9158411782	 0.0061389298	 0.348213
O	-0.5191075097	-2.6772340015	-0.0061396338	-0.341843
C	-2.9294700013	-2.3485507018	 0.0182189197	 0.347785
O	-3.862486899	-1.5918877648	 0.0330470872	-0.341115
O	-3.0059803051	-3.6802759951	 0.0097115107	-0.205018
C	-4.3388172078	-4.2116737776	 0.0198353093	-0.241599
H	 0.8383144361	 1.9224860918	 0.0038368253	 0.125561
H	-0.7040850458	 1.824014424	-0.8683618243	 0.136519
H	-0.6869565979	 1.8143794025	 0.9045589117	 0.136531
H	 0.4855862271	-0.407214531	-0.8878558148	 0.128162
H	 0.5025931618	-0.4168468179	 0.876831903	 0.128201
H	-4.8729133505	-3.8861970447	 0.9160204072	 0.146258
H	-4.8907890595	-3.8751826857	-0.8613366658	 0.146225
H	-4.2236774809	-5.294784401	 0.0119310862	 0.143192
5.7616	51.2535	107.7086	117.4522	126.77	177.096	243.1124	258.7226	327.9162	347.4617	401.1766	518.2253	542.7638	791.9489	803.9959	839.209	881.7795	895.0878	1012.3258	1059.1621	1134.9111	1178.5654	1181.0862	1199.1935	1231.2215	1291.9621	1331.8123	1397.1166	1422.6626	1473.5416	1482.7061	1485.0706	1493.8693	1494.8192	1516.7066	1826.0233	1832.8997	3049.1835	3052.5699	3054.228	3092.0756	3123.6943	3129.5043	3131.0005	3168.7148
CCOC(=O)C(=O)OC	CCOC(=O)C(=O)OC	
InChI=1S/C5H8O4/c1-3-9-5(7)4(6)8-2/h3H2,1-2H3	InChI=1S/C5H8O4/c1-3-9-5(7)4(6)8-2/h3H2,1-2H3
