19
gdb 86661	3.18793	1.2149	0.93215	2.8549	80.51	-0.2387	-0.0149	0.2238	1272.2532	0.159359	-419.263775	-419.254618	-419.253674	-419.298247	33.063	
C	-0.1183391565	 1.5267063415	 0.0324027314	-0.388034
C	 0.0641136975	 0.0107205021	-0.0109071402	 0.041635
C	 0.9093766719	-0.4829884927	-1.2218145511	-0.220468
N	 1.9348126029	-1.3042227655	-0.5632098124	-0.116369
C	 2.8868671938	-2.0141313223	-1.2465644189	 0.146775
O	 3.7620134768	-2.6948046868	-0.7593476309	-0.320294
C	 1.7611116514	-1.1829973262	 0.8379251608	 0.374128
C	 2.6924513282	-1.8486367583	 1.7959863961	-0.46475
N	 0.7623605192	-0.4735070303	 1.1898522802	-0.289378
H	 0.8532043814	 2.0312049258	 0.0602831382	 0.120252
H	-0.6657880062	 1.8791970979	-0.8480643045	 0.113455
H	-0.6761283643	 1.8139888309	 0.9270796137	 0.134323
H	-0.9279973068	-0.4580149913	-0.0284800742	 0.092861
H	 0.3295361127	-1.0757108672	-1.9342190711	 0.125409
H	 1.3713682976	 0.3508149172	-1.7628858393	 0.120114
H	 2.7617727595	-1.8951782207	-2.340869066	 0.083441
H	 3.7215647377	-1.518663874	 1.6344393293	 0.152454
H	 2.3715333429	-1.6045742694	 2.8089648253	 0.139379
H	 2.6927988504	-2.9315965209	 1.6504272236	 0.155068
35.9304	119.9136	195.9303	202.0883	224.4672	243.6459	249.0025	306.3353	387.9585	447.3376	499.0781	622.7704	669.0127	745.6309	794.784	852.9943	921.3339	939.4278	1016.3466	1031.4613	1066.6113	1097.9516	1121.393	1146.9237	1163.636	1232.0779	1274.6887	1310.3274	1326.9131	1365.6142	1400.8103	1408.709	1421.2214	1449.6657	1459.5956	1473.6596	1488.4141	1496.8267	1521.0091	1721.3598	1799.6089	2938.654	3017.9369	3032.9119	3037.2414	3063.5953	3087.8238	3105.6781	3125.7847	3127.0477	3161.3253
CC1CN(C=O)C(C)=N1	C[C@H]1CN(C=O)C(=N1)C	
InChI=1S/C6H10N2O/c1-5-3-8(4-9)6(2)7-5/h4-5H,3H2,1-2H3	InChI=1S/C6H10N2O/c1-5-3-8(4-9)6(2)7-5/h4-5H,3H2,1-2H3/t5-/m0/s1
