20
gdb 102728	2.78095	0.9854	0.77342	4.1988	81.06	-0.242	0.0284	0.2703	1490.384	0.170757	-399.291796	-399.282	-399.281056	-399.327232	34.923	
C	-0.2777851934	 1.3729513686	 0.0366718938	-0.328086
N	 0.1172385319	-0.0328564158	 0.0929289428	-0.292032
C	 0.7446876292	-0.5197706549	-1.1315370043	-0.117495
C	 1.2485319001	-1.9661913344	-0.9503335257	-0.154555
N	 2.2263937775	-2.0189167754	 0.1290922733	-0.091156
C	 1.7733496921	-2.5813062626	 1.4062603676	-0.226003
C	 2.6728157582	-3.3555373778	 0.5130431045	-0.221621
C	-0.2168156825	-0.4833664447	-2.2469734576	 0.301074
N	-0.9522918779	-0.4636725963	-3.1377286473	-0.329674
H	 0.5425552051	 2.0574225718	-0.2407274619	 0.101799
H	-1.0827584267	 1.50006097	-0.6933433566	 0.149186
H	-0.6616099793	 1.6735357764	 1.0149796908	 0.125007
H	 0.7963450881	-0.1611838916	 0.8353818535	 0.241668
H	 1.6095541744	 0.0980847252	-1.4380674847	 0.110242
H	 0.3860698445	-2.6303278268	-0.7810651049	 0.111983
H	 1.7375337401	-2.2767193758	-1.8791743395	 0.124709
H	 2.1669086635	-2.1007972184	 2.2975014337	 0.122014
H	 0.7363204852	-2.901872023	 1.4781094756	 0.129445
H	 2.2402891881	-4.2049488878	-0.0125863875	 0.118956
H	 3.7308248916	-3.4499451669	 0.7388211145	 0.124539
62.9319	80.1949	114.3409	125.0034	181.5771	231.484	274.1403	301.2669	342.4002	396.0397	482.1402	564.8267	586.6892	770.3154	794.3338	833.667	838.22	900.3372	989.4196	1023.062	1030.1259	1060.2798	1076.6742	1117.2528	1124.4326	1145.0782	1166.555	1174.4467	1187.2988	1213.0803	1280.2256	1312.0107	1319.8659	1362.4834	1397.4358	1462.4741	1481.0502	1484.997	1494.9574	1496.5603	1518.9725	1523.5393	2360.8003	2927.2913	2958.0669	2982.1355	3077.3202	3079.0058	3100.8172	3105.8231	3120.049	3183.6189	3198.0521	3538.5859
CNC(CN1CC1)C#N	CN[C@@H](CN1CC1)C#N	
InChI=1S/C6H11N3/c1-8-6(4-7)5-9-2-3-9/h6,8H,2-3,5H2,1H3	InChI=1S/C6H11N3/c1-8-6(4-7)5-9-2-3-9/h6,8H,2-3,5H2,1H3/t6-/m1/s1
