18
gdb 6203	3.76411	1.57889	1.47655	1.4112	69.19	-0.2207	0.0607	0.2815	949.9868	0.154155	-381.158464	-381.150152	-381.149207	-381.191084	31.472	
C	 0.0467505203	 1.4998580355	 0.0103560355	-0.41452
C	-0.0143712819	-0.0315132462	 0.002977865	 0.284663
C	-1.473441692	-0.5119009737	-0.0189789626	-0.40859
C	 0.8074242468	-0.6400316773	-1.1788108204	-0.140115
O	 1.6813736404	-1.6031595815	-0.5581605812	-0.255212
C	 1.5184129703	-1.4169610409	 0.7816545709	 0.459437
N	 2.2985235865	-2.2432884465	 1.545884118	-0.579304
N	 0.6621729998	-0.5709815479	 1.1981670348	-0.37242
H	 1.084097624	 1.8445913866	 0.0580421188	 0.110354
H	-0.4169826308	 1.9184267342	-0.8902521519	 0.105272
H	-0.4806278882	 1.8949724995	 0.8831420638	 0.123882
H	-2.0056486695	-0.1182624096	-0.8926316061	 0.103404
H	-1.519838129	-1.6049421737	-0.0498223167	 0.115106
H	-1.9930454625	-0.1777711073	 0.8833057139	 0.12366
H	 0.1924308664	-1.1622466631	-1.9166269571	 0.112488
H	 1.4247897788	 0.1052776636	-1.6923882587	 0.104918
H	 3.1716894807	-2.5201031886	 1.1241634692	 0.260539
H	 2.36568683	-1.9610642933	 2.5111824748	 0.266437
48.0887	177.1555	220.0948	256.4609	309.1773	331.9165	334.1618	394.2259	466.4543	473.9186	560.4582	603.1102	696.9533	741.0961	824.8954	903.481	920.9647	942.4077	962.1012	986.425	1031.5173	1052.8645	1152.7197	1200.0329	1210.0214	1239.5862	1264.665	1351.2591	1394.9389	1410.5405	1431.2122	1476.6107	1485.4161	1495.4712	1504.2965	1523.3329	1617.9822	1756.1356	3027.0556	3030.7044	3038.7246	3093.1438	3097.5167	3102.1261	3114.7033	3118.5891	3588.9914	3702.5708
CC1(C)COC(N)=N1	CC1(C)COC(=N1)N	
InChI=1S/C5H10N2O/c1-5(2)3-8-4(6)7-5/h3H2,1-2H3,(H2,6,7)	InChI=1S/C5H10N2O/c1-5(2)3-8-4(6)7-5/h3H2,1-2H3,(H2,6,7)
