18
gdb 5226	6.61146	1.08499	0.99243	1.4988	75.59	-0.185	0.0539	0.2389	1212.3991	0.15568	-344.013649	-344.005538	-344.004594	-344.04695	29.927	
C	 0.1761248563	 1.5859171992	 0.1110826517	-0.390711
C	 0.5442680057	 0.1071626967	 0.0596271823	-0.116773
N	 0.1511502974	-0.5704132172	 1.3073310046	-0.401485
C	 0.4831686469	-1.9363690038	 1.3944605898	 0.298681
C	-0.2027010049	-3.0956820787	 1.0976410469	-0.216269
C	 0.6458917045	-4.1913931469	 1.4284777444	-0.134888
C	 1.82606324	-3.672175445	 1.904161041	-0.098358
N	 1.7161118292	-2.3026516156	 1.8816115689	-0.25268
H	 0.6528497538	 2.0751572946	 0.9654318429	 0.124483
H	 0.4898599274	 2.094797916	-0.8050988466	 0.117638
H	-0.9077043488	 1.7194639235	 0.2088501652	 0.113155
H	 0.0907612871	-0.3670632715	-0.8265805084	 0.091581
H	 1.6286567467	-0.0053798303	-0.0499572113	 0.104787
H	-0.8434444955	-0.4490348428	 1.4612795299	 0.226591
H	-1.1980171611	-3.146874346	 0.6824258599	 0.079638
H	 0.4172668747	-5.2404968313	 1.3187021972	 0.08804
H	 2.7261071986	-4.1526175783	 2.2518492328	 0.110013
H	 2.3851214219	-1.6452943626	 2.2432672487	 0.256557
52.7559	67.497	121.4969	251.6955	322.0656	368.5045	383.2175	498.2885	632.5881	660.7726	695.0747	706.5006	771.9825	791.874	817.0445	843.247	892.8058	918.1123	990.5718	1050.6414	1065.4138	1109.6295	1134.9911	1143.5565	1159.2376	1269.3497	1281.6032	1303.0533	1373.4316	1410.3074	1423.183	1435.4888	1485.8711	1494.5618	1497.6571	1521.2057	1523.3277	1616.403	2965.3881	3032.7675	3057.029	3100.1976	3119.3018	3236.6444	3250.1224	3271.1825	3537.8174	3680.088
CCNC1=CC=CN1	CCNc1ccc[nH]1	
InChI=1S/C6H10N2/c1-2-7-6-4-3-5-8-6/h3-5,7-8H,2H2,1H3	InChI=1S/C6H10N2/c1-2-7-6-4-3-5-8-6/h3-5,7-8H,2H2,1H3
