17
gdb 73653	2.41313	1.67857	1.45068	2.8069	68.07	-0.2297	0.0232	0.2529	975.2685	0.137944	-455.15962	-455.151665	-455.15072	-455.191994	30.234	
N	-0.0452464885	 1.452057694	-0.2124157206	-0.584733
C	-0.0129447811	 0.0170724229	-0.0591904823	 0.127242
C	 0.7149702512	-0.6895636838	-1.2148363466	-0.122886
O	 0.1069086009	-1.9658424962	-1.3506156006	-0.24861
C	-1.2830065938	-1.7812431856	-1.1168852307	-0.102652
C	-1.3670808426	-0.7781906638	 0.03228047	-0.013031
N	-0.9104570384	-1.2677804258	 1.3384435723	-0.328685
C	 0.3101892205	-0.6333029861	 1.325344027	 0.374519
O	 1.2335571279	-0.6077317553	 2.0944326416	-0.366333
H	-0.4183041431	 1.8899443148	 0.6253920011	 0.239256
H	 0.9024866639	 1.8067708677	-0.3116318972	 0.243423
H	 0.5883120715	-0.0829465608	-2.1262851967	 0.100973
H	 1.7806920824	-0.8445775413	-1.0275573538	 0.128056
H	-1.7847299421	-1.3625441608	-2.0048108381	 0.100793
H	-1.7207978609	-2.7585746086	-0.8952451521	 0.111464
H	-2.2895509829	-0.1945710522	 0.0637638335	 0.091627
H	-1.238842915	-2.0377808492	 1.9038082732	 0.249578
96.406	179.0847	188.6579	238.0999	278.3272	318.4384	381.9861	432.0068	530.9828	599.5393	664.3702	730.6409	753.2707	796.7426	859.1603	883.0938	931.7175	956.7924	1003.1145	1036.6371	1077.6873	1093.8553	1128.1051	1149.1614	1198.1557	1237.5853	1275.9393	1279.4289	1324.6294	1351.2308	1354.3511	1368.2047	1410.2584	1495.9505	1511.4548	1663.9339	1889.0606	2973.9854	2979.2173	3090.7902	3091.7438	3099.0131	3487.2917	3559.9459	3600.5179
NC12COCC1NC2=O	N[C@]12COC[C@H]1NC2=O	
InChI=1S/C5H8N2O2/c6-5-2-9-1-3(5)7-4(5)8/h3H,1-2,6H2,(H,7,8)	InChI=1S/C5H8N2O2/c6-5-2-9-1-3(5)7-4(5)8/h3H,1-2,6H2,(H,7,8)/t3-,5-/m1/s1
