15
gdb 80708	2.3363	1.6	1.38445	3.1649	62.02	-0.2399	-0.0478	0.1921	979.3699	0.109809	-494.839242	-494.830932	-494.829988	-494.872125	30.691	
O	 0.0540856956	 1.4182484533	 0.0373387625	-0.43103
C	-0.0830624763	 0.0433661039	 0.0118295199	 0.048831
C	-0.4644793608	-0.8067648652	 1.1841006163	-0.019289
O	-1.4142438892	-0.1035700152	 1.9985894163	-0.285525
C	-2.4037641841	-0.1350746633	 0.9548554109	-0.036248
C	-3.0178840278	 1.1983382247	 0.6106831011	 0.146692
O	-2.5864615059	 2.2651343203	 0.9717385554	-0.25364
C	-1.3847619646	-0.741735151	-0.0417131207	 0.213411
O	-1.7186721746	-1.6960686505	-0.9717599145	-0.442384
H	-0.5135471671	 1.7719673195	 0.7395542997	 0.309172
H	 0.6758888168	-0.4188107223	-0.6166511179	 0.11903
H	 0.1115518806	-1.5970181139	 1.6510955971	 0.119715
H	-3.195296498	-0.8615292878	 1.1858436812	 0.115041
H	-3.9190065904	 1.1257581389	-0.0384006262	 0.095051
H	-1.6018843543	-1.3246836615	-1.8532738312	 0.301174
91.2221	145.6942	196.508	202.8658	274.6549	295.7701	324.9924	372.2301	515.7189	522.4892	618.0141	658.0076	752.8956	756.1293	815.6883	886.7106	934.4905	957.5964	1007.4834	1043.7201	1066.6493	1114.7303	1126.9055	1183.6862	1218.6767	1253.7867	1295.567	1343.5854	1352.3911	1405.0664	1418.3647	1481.9955	1818.4194	2887.3989	3022.0828	3143.904	3186.7722	3709.5003	3798.0125
OC1C2OC(C=O)C12O	O[C@H]1[C@H]2O[C@@H](C=O)[C@@]12O	
InChI=1S/C5H6O4/c6-1-2-5(8)3(7)4(5)9-2/h1-4,7-8H	InChI=1S/C5H6O4/c6-1-2-5(8)3(7)4(5)9-2/h1-4,7-8H/t2-,3-,4+,5+/m0/s1
