13
gdb 49372	2.39285	1.56173	1.05704	4.2491	65.04	-0.2817	-0.0562	0.2255	1070.3306	0.087734	-452.745645	-452.737482	-452.736538	-452.779439	28.155	
N	 0.0195906523	 1.2908938028	-0.4176834214	-0.527801
C	 0.016551461	 0.0972246552	-0.0551855396	 0.44586
O	 1.0104786694	-0.7078384978	 0.4751282034	-0.247047
C	 0.1006154818	-1.8492014844	 0.6008742477	-0.034836
C	 0.0062136641	-2.3090118517	 1.9822748986	 0.323503
N	 0.0062812764	-2.7018968225	 3.0679695689	-0.3094
C	-1.0406558039	-0.9906590436	-0.0108755145	-0.262522
C	-2.3079677866	-0.6917339543	 0.7694522613	 0.13895
O	-2.7684480913	-1.4173735571	 1.6064419427	-0.212255
H	 0.9271987746	 1.7396164204	-0.2889098504	 0.247968
H	 0.4358288834	-2.6726598395	-0.0343055749	 0.153179
H	-1.334360943	-1.321521398	-1.0128814973	 0.157368
H	-2.787579808	 0.2644245906	 0.4750471455	 0.127033
53.1473	97.1371	133.2564	177.1596	234.6494	285.702	418.6221	471.9224	542.9041	608.2853	672.3715	741.3913	842.0293	862.1762	873.102	952.8389	1001.7502	1003.9024	1058.4872	1111.4375	1179.4088	1200.8059	1288.6695	1295.4339	1360.3985	1410.5578	1829.1041	1850.5919	2369.2372	2929.8037	3068.9002	3091.3264	3494.0665
N=C1OC(C#N)C1C=O	[NH][C]1O[C@@H](C#N)[C@H]1C=O	
InChI=1S/C5H4N2O2/c6-1-4-3(2-8)5(7)9-4/h2-4,7H	InChI=1S/C5H4N2O2/c6-1-4-3(2-8)5(7)9-4/h2-4,7H/t3-,4+/m1/s1
