12
gdb 5057	3.57416	2.37579	1.6242	3.6673	65.06	-0.2496	-0.0864	0.1633	747.5576	0.085428	-377.544267	-377.538161	-377.537217	-377.574558	22.606	
O	-0.1276734137	 0.4300895586	-1.1429650786	-0.310733
C	-0.050140649	 1.2889593743	-0.2976045208	 0.33602
C	-1.2689980697	 1.854050864	 0.3807486718	-0.060638
N	-1.6014068362	 3.0887716076	 0.3212725936	-0.167977
C	-0.8042173297	 4.0915690184	-0.1669722462	 0.004933
C	 0.5567997581	 4.1472486554	-0.1307429014	-0.107663
C	 1.3980930007	 3.0540581264	 0.2743726679	 0.002337
N	 1.1361521455	 1.7910177741	 0.2101794522	-0.22509
H	-1.9292313625	 1.1598066922	 0.9022630946	 0.149233
H	-1.3584227124	 4.9735475631	-0.4776508409	 0.131452
H	 1.0359837041	 5.1030111215	-0.3212777793	 0.117253
H	 2.3789590448	 3.3157998243	 0.6771475571	 0.130873
116.0829	238.1667	290.9387	398.5933	436.4729	503.4207	604.0164	643.8454	760.1851	808.5052	885.2503	896.2645	941.757	973.7655	994.7594	1000.8316	1068.3624	1177.723	1256.4117	1369.8423	1422.9017	1463.1237	1543.0186	1653.3671	1676.5999	1798.8274	3106.0943	3125.3722	3161.7317	3182.1505
O=C1C=NC=CC=N1	O=c1cncccn1	
InChI=1S/C5H4N2O/c8-5-4-6-2-1-3-7-5/h1-4H	InChI=1S/C5H4N2O/c8-5-4-6-2-1-3-7-5/h1-4H
