25
gdb 64270	2.67276	1.34583	1.20785	0.1392	91.09	-0.2575	0.0743	0.3318	1212.0806	0.23077	-352.370282	-352.361318	-352.360374	-352.403023	36.935	
C	-0.0485767984	 1.5556422485	 0.0172591508	-0.420493
C	-0.0440714069	 0.0188663636	-0.0056800889	 0.292955
C	-1.4986420807	-0.4849335728	 0.0579805022	-0.413632
C	 0.6528172843	-0.468130989	-1.2952591882	-0.218349
C	 0.6700918037	-1.9985980039	-1.4387200261	-0.239037
C	 1.1168361568	-2.718972197	-0.1778725062	 0.005666
C	 2.4255737208	-2.3983969292	 0.493968781	-0.294645
C	 1.1276496226	-1.9845556808	 1.1502420461	-0.028502
C	 0.7503520934	-0.5034640617	 1.2171924307	-0.235826
H	 0.96662084	 1.9575604876	-0.076121471	 0.10572
H	-0.6456799121	 1.9612671041	-0.8074005496	 0.105348
H	-0.4728770463	 1.9359503232	 0.9536383086	 0.105579
H	-2.0524203991	-0.213704418	-0.848156822	 0.104993
H	-1.5514713644	-1.5711659791	 0.1720544549	 0.118827
H	-2.0208744605	-0.0386908453	 0.911624666	 0.105378
H	 0.1570402137	-0.0305712284	-2.1705339649	 0.087245
H	 1.6797232764	-0.0783424178	-1.3038714534	 0.089186
H	-0.3395633833	-2.3412732849	-1.695163814	 0.09805
H	 1.3085747452	-2.2837429884	-2.2844521104	 0.091989
H	 0.8201255556	-3.7637154995	-0.1383489535	 0.075655
H	 2.9942205957	-3.2136914263	 0.928365609	 0.102593
H	 3.0407004437	-1.6089727243	 0.0710059124	 0.104495
H	 0.8349697956	-2.5700201201	 2.0162633178	 0.077601
H	 1.6596838619	 0.1016308471	 1.3256646926	 0.089639
H	 0.1604240521	-0.3215383076	 2.1230131862	 0.089568
101.2964	192.5901	239.6347	260.1464	285.3062	295.1528	330.8016	380.7187	398.368	420.711	467.1044	511.7806	637.6758	718.5495	753.3838	799.6592	848.6584	868.0711	900.752	909.4183	937.9464	947.8254	956.1487	1000.2097	1001.0343	1056.3637	1062.1529	1070.8617	1110.7466	1116.8653	1134.0655	1173.1453	1190.4447	1215.0249	1232.4883	1261.5107	1289.2994	1319.6627	1338.7092	1368.3912	1376.8651	1384.7535	1399.268	1416.4177	1423.8761	1480.6132	1482.9455	1483.9475	1490.069	1496.2083	1503.5217	1509.3458	1517.1296	3009.756	3013.9604	3019.7567	3020.532	3029.8038	3044.0941	3052.8563	3058.3377	3084.9006	3089.2598	3090.9538	3110.9122	3119.405	3132.6598	3148.2275	3203.404
CC1(C)CCC2CC2C1	CC1(C)CC[C@H]2C[C@H]2C1	
InChI=1S/C9H16/c1-9(2)4-3-7-5-8(7)6-9/h7-8H,3-6H2,1-2H3	InChI=1S/C9H16/c1-9(2)4-3-7-5-8(7)6-9/h7-8H,3-6H2,1-2H3/t7-,8-/m0/s1
