18
gdb 14505	3.27581	2.10136	1.57155	2.5407	72.36	-0.2437	-0.0216	0.2221	861.554	0.153447	-347.757642	-347.750164	-347.749219	-347.789329	28.629	
C	-0.0221674507	 1.6316039396	-0.2321709005	-0.494949
C	 0.0219108255	 0.1057710227	-0.0875404612	 0.284057
C	-1.3686258347	-0.3908658271	-0.4230536765	 0.087707
O	-2.108476646	-0.9800462939	 0.3242376228	-0.253922
C	 1.2277243368	-0.7069338218	-0.7131519975	-0.092332
C	 2.1120174041	-0.1690577044	 0.4505660738	-0.237276
C	 0.7611098695	-0.5794657657	 1.1101965273	-0.069811
C	 0.8501604156	-1.8752960802	 0.2439114762	-0.228723
H	 0.9599540659	 2.0986899227	-0.1545407051	 0.129883
H	-0.4397925806	 1.9117541027	-1.2063714083	 0.122848
H	-0.6663579332	 2.0717387252	 0.5369369894	 0.133333
H	-1.7019870945	-0.1221949393	-1.4553269154	 0.068147
H	 1.4897607945	-0.7695017352	-1.77098346	 0.073571
H	 2.9707094937	-0.7938852134	 0.7082778773	 0.095742
H	 2.3919085323	 0.8838369965	 0.4501468005	 0.094046
H	 0.4871157399	-0.5104565558	 2.1628781718	 0.080177
H	-0.0747924189	-2.4183599434	 0.056308209	 0.116968
H	 1.6659884409	-2.5563864792	 0.4965347964	 0.090532
88.8057	152.2909	171.4062	276.4349	320.1874	380.2304	457.0421	565.8584	612.2528	696.1574	784.6875	806.0738	864.4631	896.5924	900.5547	923.6262	986.4688	1008.5972	1015.0065	1027.2904	1072.2403	1093.003	1112.8146	1132.9304	1178.1871	1186.4919	1192.9375	1223.8435	1240.0998	1249.8607	1288.396	1407.5378	1427.5673	1489.1272	1495.3338	1518.649	1550.8709	1820.5381	2832.5252	3033.9542	3070.0674	3073.4916	3088.7446	3096.6422	3116.9116	3130.1673	3145.1379	3153.3653
CC1(C=O)C2CC1C2	C[C@@]1(C=O)[C@H]2C[C@@H]1C2	
InChI=1S/C7H10O/c1-7(4-8)5-2-6(7)3-5/h4-6H,2-3H2,1H3	InChI=1S/C7H10O/c1-7(4-8)5-2-6(7)3-5/h4-6H,2-3H2,1H3/t5-,6+,7-
