20
gdb 5875	4.10287	0.97625	0.96245	3.1413	72.32	-0.2532	-0.0238	0.2294	1309.5908	0.17199	-386.149455	-386.139216	-386.138272	-386.185667	35.847	
C	-0.1354858777	 1.563470966	 0.1303810784	-0.415404
C	 0.0275251652	 0.0374208042	 0.063155821	 0.37189
C	 0.7867608175	-0.4906657086	 1.2897578061	-0.415429
C	-1.341614428	-0.639155378	-0.0463808279	-0.398562
O	 0.6901705602	-0.3528566682	-1.1557075481	-0.289956
C	 1.9968690045	 0.1035849266	-1.3858199819	-0.159598
C	 2.4430409067	-0.4541044626	-2.728253023	 0.145131
O	 3.5225461575	-0.2429894376	-3.213217208	-0.241653
H	 0.8240700175	 2.0754142796	 0.2497667573	 0.116107
H	-0.6164588898	 1.9356241335	-0.7791133617	 0.122273
H	-0.7597416645	 1.8388300039	 0.9857023088	 0.11892
H	 0.2054763796	-0.3111252839	 2.1991370806	 0.118933
H	 0.9563879509	-1.5676412269	 1.1982802139	 0.122268
H	 1.7544202026	 0.0031912516	 1.4194341947	 0.116112
H	-1.8677136186	-0.2863634503	-0.9376838368	 0.120606
H	-1.2225687915	-1.7231359096	-0.1268741934	 0.120603
H	-1.9550597274	-0.4190199357	 0.8317877446	 0.112182
H	 2.070860289	 1.2011486946	-1.4333882398	 0.120972
H	 2.7151152033	-0.2346236531	-0.6228548577	 0.120973
H	 1.671534003	-1.0819543454	-3.226143537	 0.09363
29.0527	49.6395	105.1973	144.1099	201.1908	252.628	262.5581	305.0254	326.0655	340.178	408.444	452.0885	497.2277	561.8165	742.7115	756.5272	895.7919	909.4245	921.9661	959.3939	1036.3952	1040.2446	1060.7974	1115.7371	1137.811	1223.5368	1240.1281	1254.6108	1273.7356	1353.7658	1396.0064	1397.8874	1407.9932	1426.6877	1472.7385	1480.1631	1483.1561	1488.782	1501.905	1502.039	1520.91	1843.3918	2898.7155	2981.9197	3012.8496	3038.2202	3040.4136	3047.8354	3106.9847	3112.3205	3113.8656	3115.0765	3122.2893	3124.9224
CC(C)(C)OCC=O	CC(C)(C)OCC=O	
InChI=1S/C6H12O2/c1-6(2,3)8-5-4-7/h4H,5H2,1-3H3	InChI=1S/C6H12O2/c1-6(2,3)8-5-4-7/h4H,5H2,1-3H3
