19
gdb 51823	4.27494	0.87836	0.76928	4.1487	78.88	-0.2542	0.0107	0.2648	1459.6795	0.159955	-423.070954	-423.062417	-423.061473	-423.105626	31.32	
O	 0.047997553	-0.0401888918	 0.1733131833	-0.278763
C	 0.0478213259	 1.1535027374	 0.2190476467	 0.159777
O	 1.0666376819	 1.9028474651	-0.2348738662	-0.188167
C	 0.9709327089	 3.3363624875	-0.1352717819	 0.108601
C	 2.1396094099	 3.8593318205	 0.6954222414	-0.213714
C	 2.0517942914	 5.3863847447	 0.8466751579	-0.264024
C	 1.6956844705	 6.0649351754	-0.4507659946	-0.0408
C	 1.2284751645	 5.4161872432	-1.5167003515	-0.062485
C	 0.9784399501	 3.9294327475	-1.5443248333	-0.256803
H	-0.7803717245	 1.7615668971	 0.635253458	 0.074458
H	 0.0261384545	 3.5929221945	 0.3648048096	 0.088741
H	 2.1488417909	 3.3691398337	 1.6739068493	 0.105392
H	 3.0723577861	 3.5861507894	 0.188870958	 0.118182
H	 1.3097963509	 5.6507968712	 1.6147638826	 0.113048
H	 3.0059822059	 5.7750725179	 1.2222461463	 0.11334
H	 1.8354981631	 7.1421312846	-0.4958363181	 0.09088
H	 1.003186092	 5.9629977123	-2.4285405742	 0.092229
H	 1.7509242699	 3.4183489459	-2.1352452884	 0.129762
H	 0.0270783753	 3.7108565739	-2.0447007748	 0.110347
21.8241	101.1722	144.9944	178.4899	291.4307	347.143	365.2475	401.4033	477.6409	517.1764	653.0851	684.0658	772.5634	842.3949	883.6835	932.7874	946.3147	974.102	1005.5821	1044.9069	1050.3406	1064.8968	1087.0121	1113.5878	1152.0136	1187.2578	1212.5639	1251.9198	1279.7836	1330.7159	1337.3321	1365.759	1377.8673	1394.9176	1415.8033	1441.5451	1476.5847	1480.7483	1500.5556	1725.7884	1863.3006	2934.2265	3000.7539	3003.6062	3019.064	3040.0439	3051.834	3054.0428	3090.5296	3149.3619	3172.4043
O=COC1CCC=CC1	O=CO[C@H]1CCC=CC1	
InChI=1S/C7H10O2/c8-6-9-7-4-2-1-3-5-7/h1-2,6-7H,3-5H2	InChI=1S/C7H10O2/c8-6-9-7-4-2-1-3-5-7/h1-2,6-7H,3-5H2/t7-/m1/s1
