17
gdb 82790	3.09433	1.95106	1.80074	2.2834	68.66	-0.2313	0.0796	0.3109	830.5997	0.138723	-421.772878	-421.766803	-421.765859	-421.803012	26.201	
O	 0.1971760643	 1.4003439054	-0.1462695446	-0.445224
C	 0.0075317819	 0.0225535624	-0.0257585642	 0.158621
C	 0.245301732	-0.6042872172	 1.3786988453	 0.010227
O	-0.2143419113	 0.3340394494	 2.3550967817	-0.276405
C	-1.620915333	 0.2195336053	 2.3726851336	 0.0834
C	-2.3666809471	 0.0217795909	 1.0706175347	-0.12238
C	-2.1001223938	-1.1488173148	 2.0455713226	-0.121232
C	-0.9549208637	-1.6000629717	 1.1180033799	-0.075649
C	-1.4159661789	-0.5917900781	 0.0149642827	-0.105056
H	 0.0382710757	 1.7617551972	 0.7365046607	 0.289076
H	 0.6079593002	-0.4793515327	-0.792556798	 0.082965
H	 1.2384672961	-0.9512998736	 1.666843215	 0.079899
H	-2.0755245738	 0.8160462901	 3.1536107011	 0.110437
H	-3.2913850235	 0.546611134	 0.8608320261	 0.091372
H	-2.759714867	-1.7598525079	 2.6469108581	 0.095095
H	-0.7443544799	-2.6488074523	 0.9316692657	 0.075768
H	-1.905412428	-0.9177166566	-0.9029445904	 0.069085
167.8825	257.642	443.1051	467.8006	561.5851	581.3273	653.4539	686.5756	710.9532	763.071	784.7836	821.3408	833.0452	874.7073	895.7995	921.4288	947.6467	980.6184	1001.5402	1029.0489	1041.5928	1058.2738	1084.4996	1089.5164	1124.1006	1146.6606	1184.2596	1198.831	1218.2146	1236.146	1261.3436	1280.1797	1297.5011	1336.2815	1346.8344	1406.8735	1437.7382	3052.5739	3103.5852	3107.9223	3162.9521	3176.3684	3197.5743	3208.9349	3750.4449
OC1C2OC3C4C3C2C14	O[C@H]1[C@H]2O[C@H]3[C@@H]4[C@H]3[C@H]2[C@H]14	
InChI=1S/C7H8O2/c8-5-1-2-4-3(1)7(5)9-6(2)4/h1-8H	InChI=1S/C7H8O2/c8-5-1-2-4-3(1)7(5)9-6(2)4/h1-8H/t1-,2+,3-,4+,5-,6+,7+/m1/s1
