21
gdb 71397	3.20616	1.40771	1.30791	1.5994	81.93	-0.2233	0.0876	0.3108	1102.9519	0.180662	-387.039484	-387.030747	-387.029803	-387.071961	34.826	
C	-0.0760830928	 1.4184437026	-0.0471909391	-0.506603
C	 0.0060130595	-0.0682079041	 0.0079472037	 0.458534
O	-0.5176059004	-0.834920768	-1.0882190368	-0.324794
C	-0.3954703853	-1.9975981692	-0.2252525233	 0.022972
C	-0.3326423534	-1.0809929668	 1.0487427573	-0.203807
C	 1.1329812377	-0.9027140124	 0.6532451138	-0.193306
C	 1.1496272482	-2.2367366226	-0.1136895496	 0.325868
C	 1.4636420158	-3.4255863458	 0.7952781819	-0.443368
C	 1.9325592297	-2.298710619	-1.4212099257	-0.457584
H	 0.5241736575	 1.8099752146	-0.8754764346	 0.132665
H	-1.1106501116	 1.7472623416	-0.1867323235	 0.131603
H	 0.3030661304	 1.8530122549	 0.882567117	 0.125873
H	-1.0993103986	-2.7948955715	-0.4608615357	 0.075885
H	-0.8575410432	-1.0417526219	 1.9929179869	 0.094821
H	 1.9299034412	-0.4499427938	 1.2323539045	 0.078723
H	 0.8831704784	-3.3912564371	 1.7226589954	 0.11415
H	 1.2395277184	-4.3708241842	 0.2872450078	 0.110847
H	 2.5250292242	-3.4428005347	 1.0660032678	 0.113861
H	 3.0081407864	-2.2040455876	-1.2318562237	 0.106364
H	 1.7724935601	-3.2556120209	-1.932267907	 0.106205
H	 1.6251126479	-1.4954852443	-2.0930697273	 0.131091
160.8678	191.0464	199.0214	214.3174	240.4207	271.6613	323.1782	344.01	382.7695	530.8071	588.524	603.5414	665.162	772.5984	792.3501	806.0725	868.7906	881.583	896.1292	923.9305	949.7453	958.9645	963.7744	1019.2485	1042.2352	1057.3164	1100.9609	1127.3329	1141.2203	1173.7676	1188.0414	1232.1508	1244.2882	1272.2146	1322.9594	1396.1198	1399.4267	1416.9203	1457.5537	1473.8298	1483.557	1485.9553	1500.8027	1503.7004	1509.9223	3022.7582	3028.255	3035.1998	3081.5925	3087.8242	3100.7581	3100.9965	3114.1567	3128.4326	3134.3824	3179.0886	3209.3609
CC12OC3C1C2C3(C)C	C[C@]12O[C@@H]3[C@H]1[C@H]2C3(C)C	
InChI=1S/C8H12O/c1-7(2)5-4-6(7)9-8(4,5)3/h4-6H,1-3H3	InChI=1S/C8H12O/c1-7(2)5-4-6(7)9-8(4,5)3/h4-6H,1-3H3/t4-,5+,6-,8+/m1/s1
