16
gdb 8692	2.73241	1.6621	1.32425	3.8102	60.77	-0.2714	0.0207	0.2921	964.5763	0.12972	-417.05005	-417.041047	-417.040103	-417.083324	32.376	
N	-0.1413102668	 1.4462778859	 0.0697810312	-0.530304
C	-0.0358448428	-0.0186028732	-0.0329793611	 0.008379
C	-1.4683758402	-0.5838030523	 0.1010285991	-0.055414
O	-2.0875587365	-0.1390674443	 1.2771723497	-0.41364
C	 0.6482891632	-0.4952873511	-1.3415896754	-0.094925
O	 1.9350953439	 0.0628683013	-1.4948266769	-0.417163
C	 0.7991387306	-0.4923633923	 1.0882187993	 0.304072
N	 1.5219850032	-0.8912214433	 1.8967476833	-0.337293
H	 0.7905339077	 1.8514281928	 0.0533529548	 0.255098
H	-0.613173102	 1.7904187458	-0.7645007549	 0.240183
H	-2.0249295812	-0.2792569994	-0.8035390988	 0.088355
H	-1.4453020465	-1.6773181573	 0.1255752084	 0.125468
H	-1.8373276187	 0.791515733	 1.37169712	 0.296533
H	 0.6654019715	-1.5940579108	-1.3788645273	 0.112153
H	 0.0516674701	-0.1366646674	-2.1875074537	 0.115998
H	 2.5225301743	-0.3617124372	-0.8584350977	 0.302501
110.9542	117.486	156.9368	184.4817	219.7567	264.1941	312.8837	381.098	400.5766	418.4948	460.8497	523.1749	594.917	682.4431	716.43	878.8426	922.0926	980.0841	1036.5217	1063.7567	1102.5934	1115.039	1153.7345	1223.215	1246.5565	1349.4161	1372.3228	1391.1318	1419.5554	1447.2989	1492.8711	1508.9705	1657.0475	2356.0511	2945.8117	3003.0117	3075.1091	3086.3251	3477.3315	3562.8741	3732.5014	3795.659
NC(CO)(CO)C#N	NC(CO)(CO)C#N	
InChI=1S/C4H8N2O2/c5-1-4(6,2-7)3-8/h7-8H,2-3,6H2	InChI=1S/C4H8N2O2/c5-1-4(6,2-7)3-8/h7-8H,2-3,6H2
