12
gdb 5060	3.4706	2.49921	1.71576	5.6824	63.09	-0.2565	-0.0974	0.1591	728.0411	0.085837	-377.551476	-377.545515	-377.54457	-377.581533	22.28	
O	-0.0192374475	 0.5246226808	-1.058061454	-0.294491
C	-0.0180447588	 1.3170962614	-0.1561814456	 0.364682
N	-1.1982341182	 1.7576368437	 0.4688580042	-0.20625
C	-1.5287699101	 2.9918866505	 0.3476503906	 0.00055
C	-0.7344372558	 4.0676266347	-0.2232266066	-0.088004
C	 0.6210820307	 4.0861121234	-0.2412624694	-0.088002
C	 1.4593422609	 3.0326306374	 0.3078859762	 0.000548
N	 1.165893912	 1.7898792443	 0.4374107008	-0.206248
H	-2.5036343945	 3.2804612102	 0.7479974006	 0.1326
H	-1.273982095	 4.9618900316	-0.5236300585	 0.126008
H	 1.1278658249	 4.9946457486	-0.5555799774	 0.126008
H	 2.4362601213	 3.3478144833	 0.6823193589	 0.132599
136.853	257.3984	307.0431	362.6188	505.2193	510.6329	637.845	662.7025	776.8418	817.6707	896.3648	917.2748	946.5964	973.7888	1005.6258	1008.5057	1020.3069	1149.3207	1223.4493	1409.5257	1409.9508	1447.0088	1572.4353	1663.8626	1681.6484	1829.2059	3102.168	3103.8396	3161.9598	3180.5312
O=C1N=CC=CC=N1	O=c1nccccn1	
InChI=1S/C5H4N2O/c8-5-6-3-1-2-4-7-5/h1-4H	InChI=1S/C5H4N2O/c8-5-6-3-1-2-4-7-5/h1-4H
