19
gdb 46986	2.63627	1.71925	1.41906	2.0086	73.92	-0.2382	-0.0132	0.2249	980.8149	0.162448	-423.067725	-423.060526	-423.059582	-423.099323	28.835	
O	 0.024417648	-0.0559816766	 0.0933741805	-0.325422
C	-0.0337570964	 1.1477377736	 0.0074887949	 0.400066
C	-1.3571904046	 1.9063047015	-0.0961660586	-0.302287
C	-1.302878674	 3.1397622089	-1.0280313754	-0.222423
C	 0.058649466	 3.8423111099	-0.9286528263	 0.112264
C	 1.1815831327	 2.8691014537	-1.3003155538	-0.245872
C	 1.2111096006	 2.0319997343	-0.0014675527	-0.128683
C	 1.1113422299	 3.1634902502	 1.0404620405	-0.096874
O	 0.3302722397	 4.1985177897	 0.4357419961	-0.275909
H	-2.1421238668	 1.2015719798	-0.3781863383	 0.121647
H	-1.5871835517	 2.252158939	 0.9204086274	 0.138407
H	-1.4690020533	 2.8409194322	-2.070222155	 0.103943
H	-2.1020419906	 3.8384139544	-0.7629745216	 0.110645
H	 0.0674571494	 4.7632433772	-1.5185838466	 0.081112
H	 0.9659288158	 2.2807458472	-2.1958153865	 0.113402
H	 2.13310855	 3.3891903907	-1.4461881718	 0.110987
H	 2.0967553514	 1.4079004285	 0.122438523	 0.08964
H	 0.6358942175	 2.8484344274	 1.9769313289	 0.10991
H	 2.1122374764	 3.5474028784	 1.2805017453	 0.105448
103.5517	167.3961	238.9604	343.1241	387.781	417.7175	466.3465	538.7625	630.2662	696.758	744.581	802.37	836.4264	889.3558	889.7335	937.0773	942.2091	949.5918	1003.3775	1036.0724	1045.9977	1075.6259	1098.1977	1112.9933	1170.8977	1188.4598	1226.8881	1240.7748	1250.893	1303.5984	1312.788	1323.2094	1339.104	1360.7414	1374.7278	1391.6613	1458.6025	1484.7633	1498.9222	1529.2888	1819.451	3007.4205	3030.2747	3036.2667	3051.9323	3054.6385	3073.7319	3086.2893	3108.785	3113.063	3114.9782
O=C1CCC2CC1CO2	O=C1CC[C@@H]2C[C@H]1CO2	
InChI=1S/C7H10O2/c8-7-2-1-6-3-5(7)4-9-6/h5-6H,1-4H2	InChI=1S/C7H10O2/c8-7-2-1-6-3-5(7)4-9-6/h5-6H,1-4H2/t5-,6+/m0/s1
