15
gdb 133058	4.93337	0.96484	0.81109	1.8002	70.94	-0.2448	-0.0281	0.2167	1300.4552	0.112897	-461.961221	-461.953393	-461.952449	-461.994286	28.733	
O	 0.0166304075	 1.4260067966	 0.0085284867	-0.419642
C	-0.0041157222	 0.010261248	 0.0032489744	-0.150266
C	-1.4342277265	-0.4765927544	 0.0143448247	 0.291581
N	-1.5823363849	-1.8064803374	 0.0125284499	-0.305415
C	-2.8159659884	-2.305687672	 0.0217079357	-0.118523
C	-3.9436049319	-1.4930445161	 0.0330657899	 0.249438
F	-5.1578613631	-2.0503156419	 0.0419962375	-0.077757
C	-3.8053024009	-0.1155986942	 0.0351056234	-0.219379
C	-2.5150933981	 0.4041868448	 0.0254529381	-0.140269
H	 0.9334239641	 1.7130649752	 0.0008171769	 0.294483
H	 0.4961326633	-0.4024217846	-0.8866111904	 0.11238
H	 0.51217724	-0.4093741031	 0.8805721055	 0.112416
H	-2.9288107912	-3.3867476905	 0.0201642316	 0.119827
H	-4.6833598269	 0.520203745	 0.043980225	 0.120509
H	-2.3370140807	 1.4710695346	 0.0264513411	 0.130618
50.264	132.6176	206.5072	214.6639	351.7067	373.5273	432.9279	438.8067	524.9538	545.1356	646.9902	743.1389	747.2948	863.0487	867.1625	944.8405	984.2192	1035.1566	1044.1406	1095.2743	1134.0439	1195.1803	1241.7405	1248.9742	1278.2143	1305.2163	1324.7119	1415.6342	1451.8294	1503.5164	1524.6253	1623.2231	1640.7081	2978.0767	3003.3594	3165.3331	3200.3337	3231.4765	3847.6421
OCC1=NC=C(F)C=C1	OCc1ncc(F)cc1	
InChI=1S/C6H6FNO/c7-5-1-2-6(4-9)8-3-5/h1-3,9H,4H2	InChI=1S/C6H6FNO/c7-5-1-2-6(4-9)8-3-5/h1-3,9H,4H2
