18
gdb 89137	2.08914	1.67066	1.1417	3.1679	76.53	-0.2634	0.0288	0.2922	1112.7556	0.147002	-401.934436	-401.925728	-401.924784	-401.967403	33.146	
C	-0.2780251652	 1.5422974858	 0.0297714125	-0.426952
C	 0.0389527825	 0.0529496003	 0.0035643377	 0.035164
C	 1.1597274481	-0.5091813151	-0.946286085	-0.345832
C	 1.7608061071	-1.241123488	 0.2630213102	 0.393983
O	 2.2036241995	-2.5445048858	 0.2689170878	-0.454838
C	 2.2208348785	-0.2515663484	 1.3240679925	-0.252739
C	 2.8068223449	 1.0263370367	 1.0270368354	 0.301926
N	 3.3106965955	 2.0363201781	 0.7681937322	-0.359829
C	 0.7414479439	-0.6256501613	 1.1924121588	-0.145725
H	 0.6110965465	 2.1531816938	 0.1983598113	 0.154343
H	-0.7221376841	 1.8523084027	-0.9222753174	 0.117737
H	-1.0005620202	 1.7689144056	 0.8213818411	 0.117184
H	-0.8812596814	-0.506869204	-0.1922363663	 0.091093
H	 0.7721791563	-1.1996486006	-1.6971764931	 0.116552
H	 1.8088958211	 0.2275179273	-1.4276959691	 0.120956
H	 3.0697972285	-2.5783760499	-0.1541042533	 0.294115
H	 2.686181797	-0.7544188058	 2.1671817341	 0.136907
H	 0.2486454816	-1.0601473013	 2.0543625805	 0.105956
131.8598	138.1929	175.0276	209.864	237.3481	285.9	359.5312	391.6738	407.4554	458.734	556.4398	567.7212	651.9913	714.0966	790.8407	837.5502	888.4232	901.7237	957.703	971.341	1015.9445	1035.0164	1093.4871	1097.0169	1125.3837	1182.2526	1199.207	1239.7377	1242.739	1299.2524	1311.3011	1330.8459	1373.4545	1417.3044	1456.6518	1493.2582	1496.4153	1503.1303	2339.8537	3036.5947	3050.6405	3064.512	3095.7308	3127.7217	3135.6746	3158.7214	3184.4957	3786.51
CC1CC2(O)C(C#N)C12	C[C@H]1C[C@@]2(O)[C@@H](C#N)[C@@H]12	
InChI=1S/C7H9NO/c1-4-2-7(9)5(3-8)6(4)7/h4-6,9H,2H2,1H3	InChI=1S/C7H9NO/c1-4-2-7(9)5(3-8)6(4)7/h4-6,9H,2H2,1H3/t4-,5-,6+,7+/m0/s1
