19
gdb 82605	3.8146	1.3221	1.25947	2.3144	74.12	-0.2439	0.0711	0.315	1046.4453	0.161182	-422.983437	-422.976052	-422.975108	-423.014791	30.443	
O	 0.0673786199	 1.4977880998	-0.0325294912	-0.438774
C	-0.005642371	 0.0943451817	 0.024202921	 0.14796
C	 0.1175701978	-0.6599746931	 1.3843008336	-0.117064
C	-0.9173087594	 0.1025532067	 2.2412470675	-0.213077
C	-2.1279397774	-0.3002326315	 1.3764855646	-0.083602
C	-2.120055355	-1.8441228745	 1.5757819476	 0.176235
O	-3.1615093292	-2.5746865549	 0.9661348211	-0.457319
C	-0.8190161805	-1.7733167165	 0.7551160689	-0.082572
C	-1.3943207635	-0.527221658	-0.021593855	-0.096594
H	 0.994354325	 1.7569480865	-0.0317678287	 0.283068
H	 0.634336032	-0.3728049406	-0.7380178466	 0.065909
H	 1.0872423377	-0.899505639	 1.8207895513	 0.058708
H	-0.9983684603	-0.2639530341	 3.2684391781	 0.090585
H	-0.7170210241	 1.1750463209	 2.2544618206	 0.108548
H	-3.0508248664	 0.2723785403	 1.457092529	 0.067043
H	-2.0760148253	-2.2077097105	 2.6070880416	 0.076873
H	-3.1902271518	-2.3449125681	 0.0310683986	 0.279933
H	-0.3627590756	-2.6379874105	 0.2744820885	 0.068441
H	-1.9916555427	-0.5728547545	-0.9316451205	 0.0657
183.6359	202.8688	251.78	266.4715	334.701	364.9454	458.764	486.476	592.0625	695.0945	720.6677	810.7552	821.8539	827.3895	859.1105	908.338	929.1635	953.8236	976.1684	998.781	1003.2359	1023.662	1058.909	1085.7283	1122.9259	1138.0284	1142.154	1176.2484	1184.9879	1203.4635	1221.6216	1246.5316	1262.8374	1275.0309	1282.4003	1295.6313	1326.0408	1334.8645	1434.586	1438.5358	1498.9977	3001.9946	3057.2781	3066.1266	3111.143	3113.6132	3119.6444	3126.0182	3131.7444	3806.9768	3816.9349
OC1C2CC3C(O)C2C13	O[C@H]1[C@H]2C[C@@H]3[C@@H](O)[C@H]2[C@H]13	
InChI=1S/C7H10O2/c8-6-2-1-3-5(6)4(2)7(3)9/h2-9H,1H2	InChI=1S/C7H10O2/c8-6-2-1-3-5(6)4(2)7(3)9/h2-9H,1H2/t2-,3-,4+,5+,6-,7+/m0/s1
