17
gdb 12319	3.12871	2.07788	1.30299	3.498	72.24	-0.2249	-0.0438	0.181	934.2722	0.143242	-363.89086	-363.883235	-363.882291	-363.922718	28.494	
C	 0.049777429	 1.499023903	 0.0491745145	-0.478551
C	 0.0289255241	-0.0017832766	-0.0198584907	 0.211045
C	-0.0629684947	-0.7018853599	-1.1605730098	-0.120974
C	-0.0358549979	-2.1998422865	-1.224583139	-0.213585
N	 0.5464776283	-2.7600293443	-0.0142466835	-0.304311
C	-0.0824680144	-2.2505464748	 1.1971510355	-0.27764
C	 0.0524802759	-0.7321858026	 1.2733633968	 0.346453
O	 0.0995686252	-0.1536790362	 2.340446305	-0.322297
H	 0.9723591307	 1.8506654622	 0.5226729501	 0.141894
H	-0.0238629531	 1.9426766748	-0.9469260752	 0.112638
H	-0.7719108233	 1.8727679456	 0.6684000873	 0.139531
H	-0.1671671413	-0.1807309836	-2.110010109	 0.101064
H	-1.0696544805	-2.5551339735	-1.4270691291	 0.096269
H	 0.5649430282	-2.516165634	-2.086259831	 0.117471
H	 0.5009475992	-3.7721969292	-0.0368305358	 0.226039
H	-1.1664134408	-2.4787435438	 1.2715888946	 0.097283
H	 0.3994563854	-2.6785065007	 2.0794307093	 0.127672
94.4523	144.5874	207.6074	290.0127	291.7076	337.9376	417.3222	476.4965	525.6228	617.44	694.0988	713.1509	827.1065	865.7779	921.9093	975.5199	1000.9078	1036.2981	1063.5062	1073.8297	1134.4918	1180.2899	1203.0157	1248.6426	1275.5645	1302.2961	1383.3037	1411.2905	1418.456	1470.5248	1474.0578	1485.8542	1491.5494	1492.6629	1709.7784	1778.2856	2867.0865	2886.5087	3039.7111	3040.3533	3097.3757	3098.7204	3122.7287	3152.7156	3535.4441
CC1=CCNCC1=O	CC1=CCNCC1=O	
InChI=1S/C6H9NO/c1-5-2-3-7-4-6(5)8/h2,7H,3-4H2,1H3	InChI=1S/C6H9NO/c1-5-2-3-7-4-6(5)8/h2,7H,3-4H2,1H3
