21
gdb 122982	4.56266	0.573	0.56054	2.212	72.72	-0.2636	0.0611	0.3247	2004.3585	0.180345	-498.475374	-498.464525	-498.463581	-498.512604	38.168	
O	-0.0479094614	 1.3673734809	-0.1565615077	-0.41841
C	 0.003710239	-0.0441850852	-0.1903300995	-0.059668
C	-1.3828235553	-0.6553810927	-0.0719002173	-0.07179
O	-2.1345625594	-0.187479363	-1.1814128746	-0.27911
C	-3.5060430998	-0.5469725497	-1.1518424181	-0.082104
C	-4.1073792618	-0.0903636464	-2.4733915279	 0.090974
O	-3.4176533661	-0.6941320008	-3.5616647198	-0.452818
C	-5.5722261701	-0.481777255	-2.637773931	-0.048572
O	-6.0687730653	-0.0664106134	-3.8919788064	-0.42676
H	-0.7174760004	 1.6231842141	-0.8015194122	 0.287963
H	 0.4792766041	-0.4103421175	-1.1147905747	 0.09209
H	 0.6212957689	-0.3673023197	 0.65386198	 0.113312
H	-1.3320388979	-1.7558664281	-0.071931087	 0.094519
H	-1.8567563915	-0.3296159598	 0.8666007528	 0.102214
H	-3.6079315101	-1.6386003833	-1.0489448745	 0.098966
H	-4.0147011844	-0.0691307147	-0.2999406908	 0.098183
H	-4.0265090629	 1.0067622555	-2.536937676	 0.079082
H	-2.4770200783	-0.5605049202	-3.3983624434	 0.292466
H	-5.6666458471	-1.57267005	-2.5074731172	 0.088576
H	-6.1824916025	 0.0059617583	-1.8703989065	 0.106261
H	-5.4179480478	-0.3583244397	-4.5418442682	 0.294627
46.3193	53.2929	94.343	111.5749	146.7006	184.2851	239.6492	300.0529	317.9202	391.3047	399.9201	437.4813	450.3308	479.5058	552.0124	581.8842	854.0903	886.5497	908.9183	931.995	1015.5146	1067.1405	1079.6363	1086.9995	1125.6047	1131.0821	1142.9017	1154.8997	1206.7734	1237.9856	1258.1403	1271.2799	1282.2586	1332.2965	1377.5298	1387.3006	1393.3534	1424.3677	1433.8947	1445.6458	1454.6426	1494.2287	1499.0845	1501.1195	1520.2777	2965.3665	2971.683	2976.092	2979.5922	2983.7902	3018.2234	3021.9908	3075.9819	3082.3408	3790.801	3799.8019	3804.6036
OCCOCC(O)CO	OCCOC[C@@H](O)CO	
InChI=1S/C5H12O4/c6-1-2-9-4-5(8)3-7/h5-8H,1-4H2	InChI=1S/C5H12O4/c6-1-2-9-4-5(8)3-7/h5-8H,1-4H2/t5-/m0/s1
