20
gdb 7818	3.10739	1.73025	1.1912	1.2327	78.17	-0.2345	0.0253	0.2598	1064.146	0.17733	-349.021838	-349.013537	-349.012593	-349.054198	31.474	
C	-0.0225510669	 1.5813793444	-0.0577869791	-0.399629
C	 0.0172144176	 0.0478554511	-0.0029351387	-0.029805
C	 0.7141424216	-0.5342505957	-1.2371792666	-0.084579
O	 0.9259382063	-1.9276552102	-1.104114462	-0.248566
C	 1.8263038798	-2.2388073445	-0.0617197882	-0.147898
C	 1.5735324423	-1.4798300111	 1.2201458965	 0.26523
C	 2.3334373638	-1.9544771327	 2.4263340094	-0.476969
C	 0.723606002	-0.452117211	 1.233898873	-0.141494
H	 0.9895305982	 2.0011154638	-0.0668206793	 0.117425
H	-0.5430595833	 1.9322189851	-0.9554826934	 0.11304
H	-0.5451668012	 1.9910542052	 0.8125581266	 0.115525
H	-1.0204285653	-0.3185740003	 0.0056197985	 0.086629
H	 0.1056368385	-0.4010035731	-2.1368636238	 0.102736
H	 1.6740465653	-0.0121569161	-1.395678032	 0.081536
H	 1.7268085868	-3.3175499801	 0.1138015223	 0.111312
H	 2.8709369659	-2.0685913516	-0.3870393471	 0.09114
H	 3.4168364367	-1.9304821288	 2.2494867649	 0.1238
H	 2.1211853673	-1.3341468802	 3.3010024165	 0.123514
H	 2.0820656321	-2.993775217	 2.6748972164	 0.1241
H	 0.5305557524	 0.0777264829	 2.1657733261	 0.072953
113.496	150.5794	190.352	227.637	268.9707	291.685	361.3945	407.9113	460.5115	468.2521	543.0982	615.3789	842.6147	865.1818	878.3816	931.9178	968.6844	989.0636	1009.9465	1013.0961	1078.0229	1093.6425	1122.6358	1144.8696	1172.231	1202.9933	1252.4342	1311.421	1315.139	1341.0952	1357.0403	1393.9667	1408.2463	1412.197	1424.3769	1477.949	1483.8255	1490.6149	1495.336	1499.4313	1500.6807	1742.2177	2918.6011	2953.7989	2989.7097	3013.3553	3027.9071	3039.4781	3058.5267	3078.6447	3097.1704	3099.816	3111.6829	3131.662
CC1COCC(C)=C1	C[C@H]1COCC(=C1)C	
InChI=1S/C7H12O/c1-6-3-7(2)5-8-4-6/h3,6H,4-5H2,1-2H3	InChI=1S/C7H12O/c1-6-3-7(2)5-8-4-6/h3,6H,4-5H2,1-2H3/t6-/m1/s1
