18
gdb 66486	3.09232	1.72801	1.40711	2.2798	74.85	-0.2166	0.0679	0.2845	968.084	0.147755	-401.865757	-401.858424	-401.85748	-401.896946	30.096	
C	 0.1025087402	 1.5333640861	 0.0704392631	-0.526956
C	-0.0595014178	 0.0605371088	-0.0886037591	 0.369098
C	 0.7016034382	-0.9738606962	-0.83178298	-0.142675
N	 0.7292282632	-0.9633158487	 0.6724636324	-0.192095
C	-0.515576288	-1.806032112	 0.935139994	 0.007385
C	-0.4816470808	-2.9891985776	-0.0463284299	-0.307994
C	-0.5208787713	-1.8636804643	-1.1122965034	 0.390864
O	-0.8229937662	-2.0430734746	-2.4496975708	-0.478958
C	-1.2780787652	-0.9072634286	-0.0806224984	-0.224548
H	 1.1652583768	 1.7909234477	 0.1175413542	 0.134053
H	-0.3449498658	 2.0725883241	-0.7717707457	 0.124192
H	-0.3729111971	 1.8876754103	 0.9920847156	 0.123382
H	 1.6423934678	-0.9302653692	-1.3675712732	 0.093053
H	-0.7486481891	-1.9154110046	 1.9921565157	 0.078197
H	 0.3716256157	-3.6727755181	-0.0245676707	 0.107547
H	-1.4236780585	-3.5494265297	-0.0158445423	 0.09221
H	-1.6360252033	-2.554814192	-2.5143352365	 0.283976
H	-2.3441572387	-0.6928851214	-0.100136905	 0.069269
187.8543	200.4877	250.6767	294.5983	329.2059	372.719	447.13	573.2991	582.9884	595.5692	740.7238	770.8949	780.7578	827.1858	864.6855	877.7901	921.6533	937.3615	951.1785	1003.6396	1024.7309	1041.7494	1057.7796	1067.1388	1090.9624	1111.8157	1149.9687	1192.2365	1198.0414	1238.9856	1257.8526	1260.473	1304.8986	1399.876	1402.5689	1451.645	1479.9163	1481.0164	1491.7109	3027.2166	3037.6628	3089.9792	3104.2191	3107.1541	3134.379	3145.868	3184.8192	3811.8883
CC12C3N1C1CC3(O)C21	C[C@@]12[C@H]3N1[C@@H]1C[C@@]3(O)[C@H]21	
InChI=1S/C7H9NO/c1-6-4-3-2-7(4,9)5(6)8(3)6/h3-5,9H,2H2,1H3	InChI=1S/C7H9NO/c1-6-4-3-2-7(4,9)5(6)8(3)6/h3-5,9H,2H2,1H3/t3-,4+,5-,6-,7-,8?/m1/s1
