18
gdb 10628	2.46305	1.7839	1.26288	1.6709	74.66	-0.2401	0.0496	0.2897	1029.3966	0.150941	-347.756298	-347.747166	-347.746222	-347.789593	33.942	
C	-0.380350344	 1.4839324992	 0.0811716722	-0.380765
C	 0.2255772301	 0.0906466652	-0.1086443006	-0.249166
C	 0.8362053386	-0.475595041	 1.1716948175	 0.12753
C	-0.1051056222	-1.1034718813	 2.2069339296	-0.359246
C	 0.8109699034	-1.9776044745	 1.4000494891	 0.057236
O	 0.2981243882	-2.7643391038	 0.3676368043	-0.419831
C	 1.9854570696	 0.2299969281	 1.6752390959	 0.287185
C	 2.9470927703	 0.8277431424	 2.0830973124	-0.457089
H	 0.3720362473	 2.1950285514	 0.4354523497	 0.128615
H	-0.786876333	 1.8618639889	-0.8618995896	 0.110484
H	-1.1932706327	 1.4656101358	 0.814983376	 0.111751
H	-0.530067153	-0.6128288753	-0.4673345545	 0.11152
H	 1.0060092627	 0.1265757012	-0.8774582218	 0.107295
H	 0.1066386901	-0.9485890714	 3.2582621844	 0.12355
H	-1.1567629432	-1.1144251797	 1.9389680612	 0.118103
H	 1.6802748412	-2.3956615429	 1.9055382511	 0.101578
H	-0.2288471463	-3.4664678632	 0.763335689	 0.291138
H	 3.7964232028	 1.3530108509	 2.4432537843	 0.190114
88.1053	146.3702	154.4751	182.516	223.3552	250.7082	294.438	352.3884	424.1771	489.7017	538.5773	576.3828	601.7306	642.438	655.443	783.476	817.8221	899.6657	916.0524	977.1358	1016.2624	1045.819	1057.1969	1099.7934	1120.6082	1178.9975	1251.0482	1263.8664	1307.9414	1331.2644	1360.2601	1410.9428	1418.5226	1473.4175	1488.3229	1497.0238	1509.005	2230.6678	3035.9113	3043.8907	3092.4082	3105.3672	3113.611	3116.1785	3133.519	3229.3197	3503.688	3805.5857
CCC1(CC1O)C#C	CC[C@]1(C[C@H]1O)C#C	
InChI=1S/C7H10O/c1-3-7(4-2)5-6(7)8/h1,6,8H,4-5H2,2H3	InChI=1S/C7H10O/c1-3-7(4-2)5-6(7)8/h1,6,8H,4-5H2,2H3/t6-,7+/m1/s1
