20
gdb 112642	2.05379	1.48534	0.95306	0.6452	76.05	-0.2431	0.0222	0.2652	1278.9299	0.170514	-440.312443	-440.302938	-440.301994	-440.347167	34.815	
C	-0.0806208017	 1.5537298783	-0.1514076711	-0.396549
C	 0.0528429841	 0.0391615266	 0.0101508237	 0.00578
N	 0.7594839581	-0.5649885269	-1.1353823611	-0.30976
C	 1.6232689874	-1.3647443013	-0.6625680653	 0.399548
C	 2.5547157632	-2.2316132177	-1.4383526704	-0.47492
O	 1.7296718171	-1.4795278492	 0.6960547079	-0.281084
C	 0.8427589924	-0.4682840338	 1.2558840116	 0.053439
C	 1.725604515	 0.5304904071	 1.9975779405	-0.067935
O	 2.4639139974	-0.107617735	 3.0208797075	-0.424916
H	 0.8954746087	 2.0413756731	-0.2197457476	 0.123372
H	-0.6248260018	 1.7694482534	-1.0741669408	 0.131953
H	-0.6345827904	 1.9953445343	 0.6830575629	 0.115024
H	-0.9599132222	-0.3844725735	 0.0315734638	 0.09057
H	 2.3971090263	-2.0772073896	-2.5050649959	 0.153897
H	 3.5935125181	-2.001159761	-1.1816664773	 0.14207
H	 2.3848150179	-3.2842916923	-1.1908465626	 0.146696
H	 0.2023416279	-0.9772468988	 1.9816100654	 0.096246
H	 2.3892628724	 1.0406325217	 1.2822031906	 0.09358
H	 1.1065904436	 1.2926230211	 2.4811791801	 0.114087
H	 2.9204608765	-0.8470287265	 2.6028578981	 0.288903
47.1784	121.1597	143.4704	172.1938	200.9119	247.1368	277.648	334.4439	403.572	434.5912	476.3999	494.7539	619.7624	656.4544	726.6308	831.7036	879.3567	939.9402	951.7883	1005.9803	1031.4933	1033.2789	1066.7542	1088.3962	1113.6957	1145.3042	1151.1235	1222.051	1260.9725	1292.2693	1329.751	1358.1435	1373.7898	1399.6603	1409.841	1415.3848	1435.8149	1475.6416	1477.2018	1488.7384	1496.7539	1507.1086	1746.6211	2986.099	3008.6567	3044.56	3050.2504	3071.8625	3087.0065	3107.137	3116.6429	3126.1105	3166.7983	3796.9597
CC1N=C(C)OC1CO	C[C@H]1N=C(C)O[C@H]1CO	
InChI=1S/C6H11NO2/c1-4-6(3-8)9-5(2)7-4/h4,6,8H,3H2,1-2H3	InChI=1S/C6H11NO2/c1-4-6(3-8)9-5(2)7-4/h4,6,8H,3H2,1-2H3/t4-,6+/m1/s1
