18
gdb 76373	2.63829	1.21241	1.12275	13.2651	70.8	-0.1778	-0.0166	0.1612	1163.6631	0.146399	-476.169941	-476.160528	-476.159584	-476.203994	34.797	
C	-0.1076421071	 1.5554899977	-0.0910690307	-0.511947
C	 0.009899403	 0.0521431662	-0.0074685246	 0.125237
C	 0.6321285122	-0.7753416226	-1.0983130309	-0.130562
N	 1.3749843732	-0.0296235221	-2.1630811661	-0.419685
H	 2.1765578167	 0.4016285351	-1.6543957854	 0.320346
H	 1.7255804403	-0.6482451888	-2.8955894694	 0.318844
H	 0.8052910471	 0.7035503355	-2.5901409988	 0.32146
C	 1.328942736	-0.6429609132	 0.2305516002	 0.032143
O	 2.542248832	 0.0856614116	 0.1240395791	-0.445024
C	-1.206311378	-0.7310581616	 0.674172443	 0.344379
O	-2.0067875339	-0.0043694467	 1.2676100734	-0.455403
O	-1.1265947473	-1.9635421889	 0.5071320064	-0.482052
H	 0.8484594171	 2.0947272252	-0.0483352795	 0.06852
H	-0.6348979403	 1.8761595159	-0.9998459923	 0.105082
H	-0.7401319038	 1.8529933016	 0.7499646577	 0.185208
H	 0.1526829386	-1.6908706454	-1.4181496767	 0.161498
H	 1.3606317043	-1.5095095244	 0.8807778869	 0.148
H	 2.53933398	 0.7811774548	 0.7913444579	 0.313955
70.2335	151.5165	155.1861	188.438	230.4622	262.1286	287.6477	319.2768	361.3023	395.8472	469.5276	485.7642	627.6583	645.6091	743.5677	770.0778	816.4258	859.0127	878.4807	988.075	1009.9021	1026.4993	1073.6148	1094.4191	1123.7124	1127.6246	1167.9606	1245.188	1258.8895	1310.3115	1313.0131	1388.6111	1412.4289	1444.1627	1478.3792	1508.4706	1629.4621	1668.2835	1802.0021	2996.139	3048.6148	3115.0565	3147.3954	3190.103	3219.2491	3445.8616	3506.1342	3803.8514
CC1(C([NH3+])C1O)C([O-])=O	C[C@]1([C@@H]([NH3])[C@H]1O)C(=O)[O]	
InChI=1S/C5H9NO3/c1-5(4(8)9)2(6)3(5)7/h2-3,7H,6H2,1H3,(H,8,9)	InChI=1S/C5H9NO3/c1-5(4(8)9)2(6)3(5)7/h2-3,7H,1,6H3/t2-,3+,5+/m0/s1
