19
gdb 58981	3.73518	1.05641	0.83875	6.2795	82.77	-0.2052	0.0041	0.2093	1359.2144	0.15971	-419.25215	-419.242778	-419.241834	-419.286435	33.822	
C	-0.0190411216	 1.4141636568	 0.0543799267	-0.336069
N	 0.1341895954	-0.028613931	 0.0075796287	-0.13625
C	-0.1485229719	-0.7618885998	 1.2284604696	-0.346338
C	 0.0534614349	-0.6377365729	-1.2114737907	 0.427797
C	-0.0131377223	-0.0818708203	-2.4451524305	-0.40652
C	-0.0063165752	-1.1402730271	-3.4674832415	 0.431864
O	 0.0340664218	-1.0461537621	-4.6775263642	-0.40221
N	-0.0681720691	-2.3451169211	-2.7642347583	-0.35265
C	 0.0695359	-2.1530369058	-1.3411618833	-0.266079
H	 0.6478387508	 1.8815325459	-0.6755955445	 0.14618
H	-1.0481453748	 1.7361437648	-0.1655934845	 0.125997
H	 0.253901396	 1.7749520797	 1.0486091825	 0.126192
H	-1.2265240328	-0.8653356767	 1.4296683428	 0.124037
H	 0.2898835195	-1.7610295296	 1.1867214993	 0.143179
H	 0.3044236983	-0.2385513659	 2.0748800128	 0.132753
H	-0.0565766086	 0.9630379169	-2.7061395663	 0.101042
H	 0.2047883482	-3.1995123329	-3.2203934841	 0.244165
H	 1.0074194255	-2.5690284038	-0.9427060584	 0.122652
H	-0.7558251839	-2.6142343151	-0.7805103161	 0.120259
83.6717	115.5266	147.0856	162.7338	184.4798	224.6229	248.07	371.7772	388.8498	435.4104	530.1835	554.1082	570.2792	707.4621	739.1618	814.7333	863.1877	940.3551	966.3108	1014.9247	1083.9884	1097.3049	1128.1114	1161.7036	1168.9113	1202.086	1209.648	1257.4465	1315.9254	1347.0301	1406.2307	1429.89	1449.9239	1479.3595	1485.4651	1488.6827	1505.3056	1509.6701	1521.6186	1664.4706	1814.6519	2980.0254	2988.067	2994.2388	3014.1259	3080.1617	3082.5727	3123.5832	3128.7567	3262.9938	3659.7415
CN(C)C1=CC(=O)NC1	CN(C)C1=CC(=O)NC1	
InChI=1S/C6H10N2O/c1-8(2)5-3-6(9)7-4-5/h3H,4H2,1-2H3,(H,7,9)	InChI=1S/C6H10N2O/c1-8(2)5-3-6(9)7-4-5/h3H,4H2,1-2H3,(H,7,9)
