16
gdb 28245	4.74231	1.26467	1.01559	2.4014	72.56	-0.1692	0.0425	0.2117	1128.3803	0.127974	-434.083555	-434.07608	-434.075135	-434.11548	28.489	
N	 0.085135902	 1.3057102588	 0.1196972028	-0.589413
C	-0.0600111726	-0.0617156134	 0.0314122748	 0.405534
N	-1.1493547366	-0.7551640641	-0.0786785407	-0.409062
C	-0.6757223898	-2.07251019	-0.0906971214	 0.203897
C	 0.6551356391	-2.06996037	 0.0268977103	 0.327253
N	 1.2974985179	-3.2855959896	 0.255255329	-0.409989
C	 0.1855970117	-4.2617285093	-0.0574885551	-0.166969
C	-1.1795930742	-3.4786552912	 0.0178258649	-0.344131
O	 1.1136179344	-0.7864339141	 0.1209680062	-0.236095
H	 0.9489172419	 1.6529814896	-0.2735254837	 0.260345
H	-0.7256327141	 1.7937644661	-0.2339939931	 0.268219
H	 2.1072103093	-3.4513697855	-0.3349004521	 0.234115
H	 0.3210899349	-4.6616525913	-1.0687220922	 0.110247
H	 0.225887001	-5.0946850114	 0.647213561	 0.118067
H	-1.6864017989	-3.6616276442	 0.9743166223	 0.116519
H	-1.863367896	-3.8008780805	-0.7745902829	 0.111463
112.4048	149.6973	228.8911	277.4693	295.4115	317.4515	508.4122	548.3378	638.5978	667.3908	697.0554	722.973	739.9057	819.6943	834.8497	875.4441	934.0417	945.7377	996.0579	1076.3778	1115.801	1133.866	1188.101	1236.7742	1279.2106	1311.094	1326.5113	1379.3544	1390.4372	1465.8458	1499.7919	1518.5921	1601.3515	1671.5501	1729.7153	3016.1481	3034.3135	3059.4077	3105.293	3496.7124	3560.8297	3667.3684
NC1=NC2=C(NCC2)O1	Nc1nc2c(NCC2)o1	
InChI=1S/C5H7N3O/c6-5-8-3-1-2-7-4(3)9-5/h7H,1-2H2,(H2,6,8)	InChI=1S/C5H7N3O/c6-5-8-3-1-2-7-4(3)9-5/h7H,1-2H2,(H2,6,8)
