18
gdb 132502	3.04164	1.2848	0.91344	1.1463	83.81	-0.2299	-0.0018	0.2281	1263.943	0.146805	-410.00054	-409.991712	-409.990768	-410.035613	32.24	
C	-0.0132966669	 1.5381236067	 0.0211285524	-0.491336
C	 0.0005929951	 0.0295184299	-0.0045032874	 0.317467
C	-0.0892126599	-0.6807617256	-1.2015559719	-0.201247
C	-0.074035435	-2.0748187805	-1.2120443874	-0.173932
C	 0.0305859283	-2.8142352541	-0.0351673248	 0.142683
C	 0.0498355561	-4.3190647762	-0.0053148798	-0.496645
C	 0.1188485815	-2.0803929844	 1.1481193819	 0.250922
F	 0.2208067371	-2.7566702971	 2.3045797913	-0.081915
C	 0.1061431042	-0.6980936125	 1.1862127432	-0.335248
H	 0.9099677769	 1.9390384877	 0.4546258372	 0.132638
H	-0.1160597208	 1.9504350535	-0.985846374	 0.123871
H	-0.8430254698	 1.9201115005	 0.6264619429	 0.132322
H	-0.1721558405	-0.1397794482	-2.1388752368	 0.089304
H	-0.1453629152	-2.6042052771	-2.1576320865	 0.095227
H	 0.9705775021	-4.6985364309	 0.4508408773	 0.137002
H	-0.7808914861	-4.718306884	 0.5866735174	 0.136998
H	-0.0240276086	-4.7286533888	-1.0155905004	 0.121665
H	 0.1788663317	-0.200571989	 2.1475406054	 0.100223
15.0253	92.9538	137.0364	226.1655	269.4259	291.9625	321.2892	441.1919	459.7756	500.75	566.2373	602.097	724.5859	729.968	769.6388	825.6251	886.7605	936.1966	943.8603	1013.0766	1026.7887	1059.2829	1064.1603	1147.9656	1169.0887	1217.8699	1296.2163	1300.4018	1340.3112	1412.8809	1414.6373	1447.4148	1480.3631	1484.7647	1486.8192	1503.2359	1542.0196	1618.6244	1664.5597	3030.5474	3035.2787	3083.0462	3087.8269	3116.1309	3120.1935	3165.3792	3182.9762	3187.6607
CC1=CC=C(C)C(F)=C1	Cc1ccc(C)c(F)c1	
InChI=1S/C8H9F/c1-6-3-4-7(2)8(9)5-6/h3-5H,1-2H3	InChI=1S/C8H9F/c1-6-3-4-7(2)8(9)5-6/h3-5H,1-2H3
