19
gdb 126246	2.16643	1.42528	0.92227	3.9897	80.24	-0.1998	0.0183	0.2181	1305.9358	0.159186	-419.206274	-419.19679	-419.195845	-419.241493	33.715	
C	-0.1037622945	 1.5542118303	 0.0977760923	-0.36422
C	-0.0302926627	 0.0203153613	-0.0121867235	-0.323858
C	 0.6972836733	-0.4665311786	-1.2294956778	 0.037183
C	 2.0549068173	-0.5792511008	-1.4275490544	 0.453487
N	 3.1229126248	-0.2802108434	-0.6263835268	-0.391241
C	 4.4429276754	-0.8220533041	-0.9222649477	-0.329924
O	 2.3237689215	-1.030869601	-2.6588037993	-0.224025
N	 1.1039357326	-1.231873605	-3.350447814	-0.177581
C	 0.1845541148	-0.890251067	-2.4810752814	-0.025956
H	 0.8985270591	 1.9939443728	 0.1216906157	 0.119457
H	-0.6283445991	 1.9804556136	-0.7626500698	 0.12397
H	-0.6322226534	 1.8600465848	 1.006703234	 0.110196
H	 0.4458557744	-0.381971797	 0.8936538581	 0.091373
H	-1.0455029433	-0.3924626979	-0.0134303571	 0.111212
H	 2.8868768718	-0.2240255436	 0.3526311594	 0.251106
H	 4.4876299018	-1.9177866322	-0.8526588497	 0.128463
H	 4.7360916251	-0.5342860951	-1.9337175036	 0.160044
H	 5.1596600153	-0.3925106401	-0.2194342277	 0.129043
H	-0.8544168842	-0.9615596969	-2.7774990666	 0.121268
40.479	85.9621	141.4451	149.6374	174.8935	227.5324	281.3139	299.1272	416.0657	453.4506	552.9143	620.8609	634.9509	736.7106	747.5719	783.3124	898.288	918.1257	942.7552	965.2772	1049.2807	1076.0302	1083.8235	1135.4166	1154.3778	1204.5164	1222.5127	1283.7868	1350.8363	1357.1641	1407.3953	1425.3807	1447.0199	1470.1133	1486.8349	1489.1423	1495.4814	1507.6586	1515.6498	1568.2292	1675.0868	3000.9032	3008.8183	3034.103	3056.9754	3100.7776	3104.6207	3111.1057	3141.8053	3223.1217	3616.0243
CCC1=C(NC)ON=C1	CCc1c(NC)onc1	
InChI=1S/C6H10N2O/c1-3-5-4-8-9-6(5)7-2/h4,7H,3H2,1-2H3	InChI=1S/C6H10N2O/c1-3-5-4-8-9-6(5)7-2/h4,7H,3H2,1-2H3
