13
gdb 19803	4.45363	2.13516	1.92023	3.6187	57.82	-0.2645	0.0168	0.2813	705.6279	0.096144	-398.531715	-398.525995	-398.525051	-398.561478	22.542	
N	-0.0321608338	 1.2239873027	 0.0743395264	-0.548442
C	-0.0408555	-0.0260799603	 0.0545793321	 0.462289
O	 1.0111310606	-0.9397477018	 0.0569358742	-0.261374
C	 0.0927775823	-2.0613363159	-0.0349275982	 0.079313
C	-0.3868729	-2.6381749503	 1.3315187913	-0.007484
O	-0.4706967514	-1.5498367475	 2.2477891205	-0.215477
C	-1.5444484125	-1.7210781155	 1.3289202321	 0.029273
C	-1.113877275	-1.0988938507	-0.033868105	-0.229374
H	 0.9187811095	 1.5928548455	 0.1286647989	 0.232888
H	 0.3368241778	-2.7566995042	-0.8360040207	 0.104287
H	-0.2459777165	-3.6318296798	 1.7398698938	 0.11716
H	-2.5449233475	-1.823258104	 1.7302090615	 0.122663
H	-1.8530456534	-1.0540998582	-0.8293253769	 0.114278
141.6304	266.0847	354.7936	448.7819	586.1196	661.6015	722.5721	785.8341	816.3951	843.7403	867.6264	881.1605	890.1237	924.6755	964.9945	994.9878	1002.9198	1020.5602	1045.9833	1162.3906	1174.4779	1211.1801	1220.1626	1244.0946	1271.8565	1316.8222	1376.4559	1831.5612	3138.023	3161.355	3188.6639	3206.0287	3478.7928
N=C1OC2C3OC3C12	[NH][C]1O[C@H]2[C@H]3O[C@H]3[C@@H]12	
InChI=1S/C5H5NO2/c6-5-1-2-4(7-2)3(1)8-5/h1-4,6H	InChI=1S/C5H5NO2/c6-5-1-2-4(7-2)3(1)8-5/h1-4,6H/t1-,2+,3-,4+/m1/s1
