21
gdb 107635	2.46183	1.55651	1.15418	1.2657	78.43	-0.2476	0.0849	0.3325	1146.3843	0.181841	-424.209577	-424.200487	-424.199543	-424.243224	34.364	
C	-0.3683737193	 1.3052069708	-0.2994846252	-0.255694
O	 0.3284865342	 0.1042272594	-0.0160350517	-0.294852
C	 0.8056716598	-0.5806052748	-1.1258654561	 0.415798
C	-0.1400291248	-1.2927068017	-2.0611781506	-0.354415
C	 0.7667341829	-2.0822510091	-1.1378283423	-0.129431
C	 2.0975191551	-2.522570522	-1.7103704479	-0.096908
O	 2.6178713234	-1.3759396476	-2.3805327009	-0.271163
C	 2.1757393076	-0.1998946905	-1.6999814824	 0.075883
C	 2.2392928578	 0.9553152813	-2.688269719	-0.414011
H	 0.2938732326	 2.0902333075	-0.6878136338	 0.112948
H	-1.1766665587	 1.141723308	-1.0248992202	 0.110941
H	-0.799410623	 1.6479334271	 0.6442085902	 0.127063
H	-1.1905194439	-1.2729289118	-1.7933302978	 0.115346
H	 0.0664126056	-1.2924182634	-3.1269373903	 0.121379
H	 0.3284063192	-2.6214650248	-0.3070030317	 0.09876
H	 2.768715977	-2.8486413128	-0.8994753302	 0.094149
H	 2.0333186739	-3.3277946857	-2.4498762231	 0.106852
H	 2.8297196538	 0.0153507858	-0.8368363796	 0.072049
H	 1.5104255611	 0.8227475943	-3.4930174254	 0.120263
H	 2.0421587902	 1.9079155472	-2.1887184507	 0.117529
H	 3.2370916057	 1.0058257627	-3.1333543311	 0.127514
78.5786	130.7437	167.8746	202.6809	220.3188	256.0062	312.6336	333.9985	403.6831	437.3477	525.6927	612.3889	658.7139	725.1929	837.7166	865.7242	886.3745	923.0368	972.232	999.4239	1027.0005	1059.5631	1079.3905	1089.0539	1106.5281	1119.9272	1123.8033	1148.3674	1179.1916	1219.5865	1239.6527	1257.514	1280.6747	1327.1981	1365.9894	1390.0498	1398.8216	1410.7235	1467.2049	1482.7725	1487.7777	1489.5027	1500.7455	1507.9742	1516.5892	2951.7424	2976.2419	3000.6377	3044.8327	3055.2477	3065.675	3117.1354	3118.9508	3121.5354	3128.5113	3191.6669	3220.7333
COC12CC1COC2C	CO[C@]12C[C@H]1CO[C@H]2C	
InChI=1S/C7H12O2/c1-5-7(8-2)3-6(7)4-9-5/h5-6H,3-4H2,1-2H3	InChI=1S/C7H12O2/c1-5-7(8-2)3-6(7)4-9-5/h5-6H,3-4H2,1-2H3/t5-,6-,7-/m0/s1
