14
gdb 15214	2.37704	2.21736	1.47991	5.5275	63.73	-0.2725	-0.0189	0.2536	873.6771	0.105996	-378.724447	-378.716488	-378.715544	-378.756997	27.63	
C	 0.1525011305	 1.4571600007	 0.20754662	-0.423404
C	-0.0851012615	-0.014496471	-0.029736246	-0.012282
C	 0.5957211526	-0.7579321493	-1.1730751348	-0.178833
C	 1.4933182482	-0.0411068036	-2.0493609836	 0.320945
N	 2.1677522862	 0.5410552485	-2.7857111981	-0.328079
N	 0.9455845778	-0.9982988366	 0.2098205104	-0.076802
C	 2.1956403614	-0.8317338851	 0.7923399766	 0.154725
O	 3.2374336592	-1.1430201661	 0.2784041537	-0.272618
H	 1.1499443114	 1.7630618416	-0.1182926001	 0.158497
H	-0.5846561386	 2.0472024285	-0.3450635004	 0.146733
H	 0.042827402	 1.6950995226	 1.2699833776	 0.139706
H	-1.0870386245	-0.3660242295	 0.2127443863	 0.121884
H	 0.0601811312	-1.5670376819	-1.66314575	 0.150599
H	 2.1065412341	-0.4509550387	 1.8271150884	 0.098929
98.5132	120.8315	152.9114	199.0646	233.3545	279.5558	372.1931	445.2035	541.1556	598.0078	649.1792	762.9452	866.6275	915.9189	993.7473	1026.3644	1048.2628	1086.2419	1126.9666	1157.3658	1178.8002	1349.1224	1378.8948	1415.2454	1418.9128	1435.2057	1483.9458	1499.9302	1810.9032	2360.9549	2961.3663	3046.3201	3114.0227	3116.0442	3135.3593	3147.2928
CC1C(C#N)N1C=O	C[C@H]1[C@@H](C#N)N1C=O	
InChI=1S/C5H6N2O/c1-4-5(2-6)7(4)3-8/h3-5H,1H3	InChI=1S/C5H6N2O/c1-4-5(2-6)7(4)3-8/h3-5H,1H3/t4-,5+,7?/m0/s1
