27
gdb 123144	5.51818	0.45764	0.43632	0.8519	94.99	-0.2474	0.0838	0.3312	2663.6484	0.24926	-390.70117	-390.688914	-390.68797	-390.740202	42.997	
C	-0.1374761197	 1.4921755243	 0.0957447298	-0.381915
C	-0.0694373269	-0.0316438005	-0.0305102537	-0.181549
C	 0.7336629589	-0.4805798438	-1.2439561461	-0.028743
O	 0.7552706513	-1.8902698585	-1.2815209879	-0.247393
C	 1.471449427	-2.4118732507	-2.3810986622	-0.062441
C	 1.4488028763	-3.9331640068	-2.2892203308	-0.182507
C	 2.0557618994	-4.6607405709	-3.5010868124	 0.039952
C	 3.5538011832	-4.3690799712	-3.6769500908	-0.381375
C	 1.8111813717	-6.1718758794	-3.3900372695	-0.387462
H	 0.8620827448	 1.9296546995	 0.1956253606	 0.115372
H	-0.6104204043	 1.9455775864	-0.7825330151	 0.115303
H	-0.717958142	 1.7888456419	 0.9740725573	 0.116235
H	 0.3844101005	-0.4680822025	 0.8666653368	 0.105633
H	-1.0784452994	-0.4529765338	-0.1058645333	 0.105326
H	 0.2850046548	-0.0776918037	-2.1697312019	 0.079004
H	 1.7625669844	-0.0815844555	-1.1908171775	 0.07919
H	 1.0119052195	-2.0792131977	-3.3294007867	 0.079294
H	 2.5043563572	-2.026391134	-2.374251839	 0.083717
H	 1.9696508191	-4.2403869715	-1.3728027959	 0.098001
H	 0.4027769371	-4.2392530885	-2.1678382796	 0.100761
H	 1.5350136969	-4.3032872585	-4.4018282538	 0.070629
H	 4.1172240515	-4.674825052	-2.7868844441	 0.112038
H	 3.9613213658	-4.9200384034	-4.5312167251	 0.10953
H	 3.7518832953	-3.3066616005	-3.847087466	 0.113316
H	 0.7431353805	-6.3980818771	-3.3055618817	 0.110294
H	 2.1999130236	-6.7021968587	-4.2656965751	 0.107664
H	 2.3090036837	-6.5844172731	-2.5042882462	 0.112128
40.4466	43.2157	77.107	104.3787	123.9529	158.5061	197.7702	222.6201	233.4381	244.2327	259.86	337.5207	389.9533	416.9857	494.1893	506.4938	764.7597	795.6053	831.7249	900.9948	908.7326	926.817	949.4521	965.1198	994.7541	1013.8459	1053.5624	1065.9886	1134.6208	1159.4998	1170.397	1183.3183	1194.0748	1202.6779	1251.0818	1270.3049	1302.5915	1313.3566	1314.807	1333.6249	1364.1206	1374.855	1400.9952	1405.4316	1412.6093	1422.9032	1455.1992	1482.9353	1488.532	1491.791	1497.6978	1500.3469	1505.3227	1506.4893	1510.477	1518.0093	1537.78	2932.7663	2945.5901	2960.8125	2976.6705	2993.2594	3022.1412	3024.0516	3029.9623	3031.3421	3038.8126	3066.5138	3071.1889	3087.7141	3094.0087	3098.7384	3099.5121	3104.3696	3107.2594
CCCOCCC(C)C	CCCOCCC(C)C	
InChI=1S/C8H18O/c1-4-6-9-7-5-8(2)3/h8H,4-7H2,1-3H3	InChI=1S/C8H18O/c1-4-6-9-7-5-8(2)3/h8H,4-7H2,1-3H3
