16
gdb 17701	5.02189	2.01677	1.96529	1.2972	67.03	-0.2292	0.0781	0.3073	735.5973	0.132021	-346.522283	-346.516497	-346.515552	-346.551663	24.679	
O	-0.1348946404	 1.4178694344	 0.0173959924	-0.457091
C	 0.0358929419	 0.0580682827	-0.0260842607	 0.377666
C	 0.0902214248	-1.0097618122	 1.0442565927	-0.167897
C	-1.0144563902	-1.0092250149	-0.0509349524	-0.120143
C	-0.315794033	-1.8551301428	-1.138302421	-0.041763
C	 0.4433311008	-2.9958432657	-0.4174386563	-0.239987
C	 1.1702878249	-1.8466462741	 0.3257907326	-0.046816
C	 0.9175399834	-0.8950355769	-0.9094482396	-0.145276
H	 0.6247636485	 1.8062331447	 0.4664027927	 0.28674
H	-0.1609460568	-0.9562879607	 2.0956545469	 0.085271
H	-2.0630924048	-0.9400313452	 0.2057930172	 0.088406
H	-0.8113370361	-1.9902381397	-2.0987826526	 0.065127
H	-0.1290394075	-3.7213559769	 0.1690458287	 0.090702
H	 1.1181979852	-3.5208489823	-1.1012191888	 0.095375
H	 2.1401195619	-1.9774084895	 0.8051060829	 0.060681
H	 1.6575575574	-0.6409024111	-1.6644043749	 0.069005
256.9765	293.0216	353.5099	442.5109	575.5226	582.4255	709.6871	731.7847	771.5986	813.3242	833.1841	866.1806	870.9851	899.4949	934.6532	937.2212	987.7706	1001.3379	1023.9249	1038.7905	1057.918	1091.607	1101.8156	1163.177	1166.0911	1192.3677	1213.3238	1228.1687	1251.5652	1274.0807	1278.6804	1318.8983	1481.4512	1493.6094	3042.119	3097.4191	3115.0446	3122.0889	3148.4326	3196.4515	3207.3578	3784.9904
OC12C3C1C1CC3C21	O[C@@]12[C@H]3[C@@H]1[C@@H]1C[C@H]3[C@H]21	
InChI=1S/C7H8O/c8-7-4-2-1-3(4)6(7)5(2)7/h2-6,8H,1H2	InChI=1S/C7H8O/c8-7-4-2-1-3(4)6(7)5(2)7/h2-6,8H,1H2/t2-,3+,4-,5+,6-,7-
