19
gdb 13185	4.91334	1.14342	1.09518	3.8062	73.86	-0.2376	0.0322	0.2698	1146.2501	0.165855	-365.077413	-365.068929	-365.067985	-365.111268	30.453	
C	-0.1484835374	-0.3706212899	 1.4796831752	-0.356313
N	-0.0507756792	 0.0690325663	 0.097179986	-0.050174
C	 0.1517266537	 1.3974960203	-0.1575468532	 0.149159
O	 0.2630150251	 2.2722467222	 0.6752325305	-0.345704
C	-0.1670224622	-0.8794107409	-0.9853923577	 0.076247
C	 0.7652129981	-2.1227205957	-1.0719164754	-0.247927
C	-0.4288521674	-2.8982930001	-1.6927678414	-0.207866
C	-1.3886532456	-1.8376220348	-1.0871742153	-0.247831
H	-1.1355415565	-0.7930568864	 1.696738891	 0.127718
H	 0.6115333268	-1.1237556308	 1.7120834622	 0.126833
H	 0.0098608188	 0.5048615025	 2.1092323442	 0.17045
H	 0.2060901429	 1.5986635131	-1.2454272625	 0.071271
H	-0.0836658241	-0.3079156349	-1.9149536097	 0.093955
H	 1.6858552955	-2.0231924099	-1.6513211379	 0.10418
H	 1.0153509792	-2.5113031694	-0.0810968065	 0.108982
H	-0.4157530726	-2.8585496396	-2.7852910047	 0.108705
H	-0.5685696384	-3.9353277479	-1.3838844864	 0.105277
H	-1.7423901046	-2.1463138628	-0.0997777855	 0.108977
H	-2.2448098021	-1.5039549911	-1.6778148129	 0.104061
38.114	90.9437	132.4714	176.0074	282.1203	328.3341	332.991	401.7341	426.1454	559.3841	718.5923	784.7984	813.5669	899.5434	915.7799	924.7646	948.1437	1006.716	1026.9654	1032.6656	1100.5709	1132.8789	1155.1095	1196.0161	1235.7587	1250.0857	1254.2542	1270.6756	1284.3495	1287.8717	1344.258	1436.7446	1439.6526	1456.4494	1475.0179	1488.0954	1502.1576	1512.3967	1517.8316	1794.6437	2935.9072	3032.7594	3059.0859	3061.4651	3065.8625	3069.7457	3087.149	3111.2483	3116.1138	3131.2408	3156.8609
CN(C=O)C1CCC1	CN(C=O)C1CCC1	
InChI=1S/C6H11NO/c1-7(5-8)6-3-2-4-6/h5-6H,2-4H2,1H3	InChI=1S/C6H11NO/c1-7(5-8)6-3-2-4-6/h5-6H,2-4H2,1H3
