21
gdb 82621	2.26607	1.99013	1.49658	1.3262	80.17	-0.2372	0.0734	0.3106	992.9667	0.184881	-387.103193	-387.095511	-387.094567	-387.134619	32.131	
C	-0.1697426802	 1.5635872247	 0.0010437095	-0.442004
C	 0.0071504365	 0.0461709047	-0.0213889763	-0.017729
C	 0.9767228353	-0.5455533828	-1.0823212113	-0.059746
C	 2.3738592815	-0.1060093391	-0.5711492415	-0.227843
C	 2.2103245163	-0.6142192004	 0.8563035413	-0.137144
C	 1.3190669223	-1.8551712988	 0.777486023	-0.106432
C	 0.9660650131	-2.0470291037	-0.6942894901	-0.227597
C	 0.7299534848	-0.5345012979	 1.1970378332	 0.416948
O	 0.2511535279	-0.3664454953	 2.4904569687	-0.48798
H	 0.7818413897	 2.0915386668	 0.1197820938	 0.114438
H	-0.6396807993	 1.9229327657	-0.9202748583	 0.114674
H	-0.8177401518	 1.8588885045	 0.8340912378	 0.11343
H	-0.9814019183	-0.4199955231	-0.1248902861	 0.068642
H	 0.7471722482	-0.3128461628	-2.1225863685	 0.058888
H	 3.1834199759	-0.6066678617	-1.1138190893	 0.093202
H	 2.5417926202	 0.9729574375	-0.6359519496	 0.092266
H	 2.9672437802	-0.5209503118	 1.6241303892	 0.079225
H	 1.4226551386	-2.6661844447	 1.485796462	 0.087243
H	-0.0147243149	-2.5115337313	-0.8418438518	 0.09444
H	 1.7122739037	-2.6310673943	-1.2434088897	 0.091268
H	 0.4408865705	 0.5374155141	 2.7642684939	 0.281811
190.1858	215.7345	220.3662	272.8861	324.274	379.7627	430.755	457.865	538.0461	589.0602	654.002	708.1634	752.5835	851.1295	873.0223	890.9146	901.1662	907.6366	924.775	948.537	995.1611	1006.3462	1021.9451	1035.8418	1078.4814	1091.4454	1114.9379	1139.3327	1150.3517	1180.4858	1211.266	1231.6405	1267.5565	1277.0895	1282.7106	1316.8677	1329.991	1334.6069	1390.082	1406.1401	1442.6463	1489.0264	1497.7216	1503.9137	1515.8398	3020.1388	3028.9331	3038.5416	3044.5984	3081.4594	3085.5314	3091.7903	3103.5111	3110.7341	3198.9698	3210.0996	3796.6413
CC1C2CC3C(C2)C13O	C[C@H]1[C@H]2C[C@@H]3[C@H](C2)[C@]13O	
InChI=1S/C8H12O/c1-4-5-2-6-7(3-5)8(4,6)9/h4-7,9H,2-3H2,1H3	InChI=1S/C8H12O/c1-4-5-2-6-7(3-5)8(4,6)9/h4-7,9H,2-3H2,1H3/t4-,5-,6+,7-,8-/m0/s1
