21
gdb 90120	2.96668	1.55521	1.41728	1.7225	82.8	-0.2336	0.057	0.2906	1036.3103	0.184209	-386.984084	-386.97657	-386.975626	-387.015538	31.428	
C	-0.2502168497	 1.5799452518	-0.2525919571	-0.405462
C	-0.0578973102	 0.0912040638	-0.0397553775	 0.051077
O	 0.9181994693	-0.5479135068	-0.9751335964	-0.374377
C	 1.8313626857	-0.694303637	 0.1484455248	 0.421569
C	 2.5131631792	-1.7344101304	 1.1160501108	-0.319718
C	 1.9560732725	-0.6455703335	 2.1746085958	-0.092003
C	 2.8447413986	 0.5663272193	 1.8736171559	-0.20111
C	 2.8083957498	 0.49957562	 0.3206910663	-0.255928
C	 0.7425062741	-0.5755880288	 1.1539417029	-0.055787
H	 0.6351037039	 2.1754279579	-0.030546156	 0.124908
H	-0.5392947022	 1.7687861046	-1.2915605527	 0.131673
H	-1.0636983654	 1.9289384108	 0.3930428887	 0.119402
H	-1.0238551391	-0.4096906382	-0.1607517149	 0.089582
H	 1.9996806733	-2.6922770912	 1.1920921502	 0.112388
H	 3.5994824936	-1.8692495079	 1.0743478132	 0.092513
H	 1.7990654349	-0.9268255717	 3.2164521779	 0.072243
H	 2.4251794491	 1.4963872955	 2.2672870616	 0.100143
H	 3.850273826	 0.4497548631	 2.288110004	 0.098563
H	 3.7832814086	 0.2626933547	-0.115866381	 0.098866
H	 2.4562417461	 1.4146727216	-0.1508688266	 0.10178
H	 0.2519813821	-1.5477391674	 1.2499348001	 0.089678
139.765	195.3849	234.1067	310.1751	364.6852	423.4435	455.847	496.2973	574.6043	612.4772	699.4346	731.7474	782.3237	812.4327	838.9294	868.9199	900.2366	944.6326	951.7951	967.0287	990.607	1022.3977	1054.2828	1058.7751	1071.6406	1101.5487	1131.4175	1141.6535	1149.5543	1189.4064	1214.2468	1229.2301	1249.8495	1256.706	1261.0069	1314.8018	1331.4918	1385.7561	1401.8588	1451.8472	1479.7131	1491.2465	1493.9842	1501.5663	1527.1007	3037.7818	3043.726	3045.176	3051.9883	3059.2029	3064.0085	3094.8359	3103.4247	3111.0962	3137.6331	3146.8086	3156.7925
CC1OC23CC(CC2)C13	C[C@H]1O[C@@]23C[C@@H](CC2)[C@@H]13	
InChI=1S/C8H12O/c1-5-7-6-2-3-8(7,4-6)9-5/h5-7H,2-4H2,1H3	InChI=1S/C8H12O/c1-5-7-6-2-3-8(7,4-6)9-5/h5-7H,2-4H2,1H3/t5-,6-,7-,8-/m1/s1
