16
gdb 67360	2.91885	1.96848	1.3666	1.0886	69.16	-0.2356	-0.0307	0.2049	912.6878	0.125194	-437.840858	-437.834043	-437.833099	-437.871802	27.68	
O	 0.0728151215	 1.4175873403	-0.0417442233	-0.491425
C	 0.0063098863	 0.0493574595	 0.002538813	 0.340368
C	 0.03209595	-0.814123674	 1.3262559581	-0.084095
C	-1.4433709497	-0.4610504014	 1.5908319844	-0.241723
C	-1.3315990687	-0.7877971266	 0.0900293152	-0.084079
N	-0.4401248238	-1.9739601744	 0.4519057402	-0.131024
C	 0.5493459707	-2.1370200657	-0.6432125698	-0.297417
C	 0.8760779709	-0.6885071863	-0.9722850014	 0.341549
O	 1.6134516108	-0.1708220066	-1.7754668916	-0.346734
H	 0.7119045544	 1.6299649897	-0.7419176465	 0.294743
H	 0.8566962985	-0.932017339	 2.0317453088	 0.093045
H	-2.0033288807	-1.1782258778	 2.193268906	 0.110771
H	-1.6556862494	 0.576304317	 1.8471258908	 0.124779
H	-2.1165414888	-0.874616593	-0.6635671542	 0.093049
H	 1.4247488621	-2.6969543851	-0.2998039147	 0.13908
H	 0.1100794158	-2.6712014867	-1.4914384151	 0.139115
127.7032	266.2721	302.2566	346.0472	364.1931	446.6885	547.5012	581.9561	612.9363	659.4144	722.4874	725.891	845.312	863.6687	900.0331	923.2994	953.2761	1006.9182	1022.7873	1058.3738	1075.9499	1121.7682	1124.7811	1142.826	1150.0641	1192.9231	1213.5484	1225.0326	1281.9578	1285.4507	1359.4499	1410.1598	1457.3482	1495.1263	1849.3327	3056.6448	3082.5298	3099.7986	3103.8482	3107.1428	3163.0963	3677.9435
OC12C3CC1N3CC2=O	O[C@@]12[C@H]3C[C@@H]1N3CC2=O	
InChI=1S/C6H7NO2/c8-5-2-7-3-1-4(7)6(3,5)9/h3-4,9H,1-2H2	InChI=1S/C6H7NO2/c8-5-2-7-3-1-4(7)6(3,5)9/h3-4,9H,1-2H2/t3-,4+,6+
