16
gdb 34016	3.581	1.34589	1.11918	4.7781	74.88	-0.2638	-0.031	0.2329	1077.7778	0.125543	-400.757294	-400.749873	-400.748929	-400.789102	28.677	
N	 0.0412225447	-1.1433648562	 0.0652499072	-0.330396
C	 0.0368996703	 0.0121473241	 0.0491691402	 0.236516
C	 0.0121313138	 1.4616240996	 0.0587410911	 0.225984
O	 0.5099690439	 2.0685608325	-1.1600175006	-0.275358
C	 1.3001946874	 2.2003748172	 0.015432327	 0.004955
C	 1.3629732094	 3.555994216	 0.6777885301	-0.254787
C	 0.0144183603	 4.3022839502	 0.6322439041	-0.27318
C	-1.1485012621	 3.4129832842	 0.9818570334	-0.077968
C	-1.1576441496	 2.1063601823	 0.7160739169	-0.094661
H	 2.2202389982	 1.6161181952	 0.0079591493	 0.116144
H	 1.6724452293	 3.3952036538	 1.7183710231	 0.122865
H	 2.1440072258	 4.1611174237	 0.2052949345	 0.122271
H	 0.0494374714	 5.1655468768	 1.3039960639	 0.113296
H	-0.1386307965	 4.7042148591	-0.3770109969	 0.141254
H	-2.0191246161	 3.8706119832	 1.4424793875	 0.109202
H	-2.0052282103	 1.4754156983	 0.957489089	 0.113863
123.218	151.7002	207.2382	274.5923	359.683	410.0644	461.397	554.1586	593.4316	602.3106	670.8301	708.5405	729.7658	833.7646	870.9739	917.0613	943.6935	967.7877	991.196	1039.5277	1077.2193	1099.9884	1193.6789	1202.981	1221.6685	1267.3948	1308.5949	1350.3012	1374.6512	1417.746	1440.4839	1473.1998	1482.251	1705.0305	2361.2079	3032.9377	3035.0271	3075.448	3082.6417	3119.8437	3171.293	3202.6019
N#CC12OC1CCC=C2	N#C[C@]12O[C@H]1CCC=C2	
InChI=1S/C7H7NO/c8-5-7-4-2-1-3-6(7)9-7/h2,4,6H,1,3H2	InChI=1S/C7H7NO/c8-5-7-4-2-1-3-6(7)9-7/h2,4,6H,1,3H2/t6-,7-/m0/s1
