18
gdb 105335	2.49864	1.48871	1.16467	0.9872	77.59	-0.2422	0.0279	0.2701	1104.6355	0.146407	-401.853085	-401.84444	-401.843496	-401.886126	33.344	
O	 0.0973211657	 1.460097439	-0.0123466334	-0.419517
C	 0.089329356	 0.0526131545	 0.1017947399	-0.105765
C	-1.3343472581	-0.5184236037	-0.0272763021	 0.080841
C	-2.0252484601	-0.4816749781	-1.4319294427	-0.305761
C	-2.1043093558	-2.0017512482	-1.3323275586	 0.001602
C	-0.7704873375	-2.5940718582	-1.1504635625	-0.242556
N	-1.4510067847	-2.0383967579	 0.0428711192	-0.164169
C	-2.1610829646	 0.0736992078	 1.0179794387	 0.30022
C	-2.8020939648	 0.6160520166	 1.8795348105	-0.431756
H	-0.4894207967	 1.8028833225	 0.6731683964	 0.287322
H	 0.7243399712	-0.3156536832	-0.7067459581	 0.106057
H	 0.517098665	-0.2951164279	 1.0544570222	 0.106574
H	-2.992491199	 0.0186670905	-1.408582006	 0.126831
H	-1.4292183876	-0.0751889648	-2.2533857769	 0.116295
H	-2.9848104656	-2.5972735103	-1.5476369699	 0.099014
H	-0.6992265137	-3.6758507066	-1.0964751436	 0.12748
H	 0.1056126338	-2.1089716182	-1.5701500795	 0.116776
H	-3.3895794434	 1.066827666	 2.6413191364	 0.200512
96.2861	136.2198	164.4801	191.194	243.4634	373.6736	384.4639	432.2287	486.5137	488.692	539.8484	624.7799	660.4339	663.5052	759.2046	766.6204	845.7193	901.8201	910.5672	955.4272	995.8416	1004.4848	1060.2032	1090.2244	1107.4819	1120.572	1135.7825	1149.0347	1202.5435	1238.7649	1264.9981	1294.9701	1362.1069	1373.4513	1433.8261	1485.2367	1497.5497	1511.3254	2227.5584	2994.0044	3068.0024	3102.6309	3124.1555	3141.8623	3171.3216	3207.8115	3497.5754	3776.822
OCC1(CC2CN12)C#C	OC[C@]1(C[C@H]2CN12)C#C	
InChI=1S/C7H9NO/c1-2-7(5-9)3-6-4-8(6)7/h1,6,9H,3-5H2	InChI=1S/C7H9NO/c1-2-7(5-9)3-6-4-8(6)7/h1,6,9H,3-5H2/t6-,7+,8?/m0/s1
