20
gdb 61559	3.45641	0.89897	0.75479	5.221	75.84	-0.2389	0.0225	0.2615	1506.4826	0.170323	-440.30012	-440.290583	-440.289638	-440.335812	34.875	
C	 0.01760658	 1.7014740315	-0.2165324719	-0.398014
C	-0.1123788488	 0.1851595897	-0.0542327536	-0.104405
N	-1.486769553	-0.3459563527	-0.1195042034	-0.330421
H	-2.03330441	 0.1898428158	-0.7874808616	 0.227209
H	-0.6793304876	-1.6944447722	-1.1483321231	 0.298379
C	-2.1940748064	-0.448151189	 1.1365589232	 0.065923
C	-2.9037473676	 0.7194397527	 1.7885977211	-0.273673
C	-3.6908418962	-0.4073197233	 1.1507830103	-0.298114
C	 0.7729400284	-0.5571245446	-1.0843917248	 0.421846
O	 1.8680808906	-0.1769288125	-1.4033314431	-0.343983
O	 0.2154406646	-1.6765175304	-1.5598748374	-0.368151
H	 1.072883998	 1.9787253976	-0.241886211	 0.156034
H	-0.4346403773	 2.02983556	-1.1594877483	 0.117337
H	-0.473092713	 2.2261935866	 0.6067771869	 0.121445
H	 0.2907801057	-0.1017879952	 0.9252415555	 0.121292
H	-1.7207119577	-1.1618664371	 1.8051527026	 0.107932
H	-2.8905496395	 0.7982091776	 2.8702742209	 0.120614
H	-2.8950172504	 1.6723361958	 1.2706594088	 0.115628
H	-4.1991969601	-0.1953472509	 0.2150450323	 0.117347
H	-4.2211084197	-1.1055811294	 1.7880182466	 0.125774
30.6512	66.5446	101.9139	172.1635	224.4343	248.0836	292.5992	367.5238	398.0395	450.7708	530.0144	589.2003	718.3397	749.604	763.9071	808.9127	831.2552	865.4818	902.1787	924.5233	956.5367	1001.3885	1050.8079	1069.0103	1076.7341	1102.0329	1132.2726	1156.4359	1192.8638	1205.1543	1226.5439	1252.353	1305.8701	1328.6404	1392.3707	1399.2711	1434.4765	1461.9161	1484.1907	1492.3838	1498.5445	1512.829	1866.3915	3036.1937	3042.7245	3112.5478	3130.205	3134.6048	3145.7148	3146.8936	3210.5408	3225.5038	3431.8844	3511.0354
CC([NH2+]C1CC1)C([O-])=O	C[C@@H](NC1CC1)C(=O)O	
InChI=1S/C6H11NO2/c1-4(6(8)9)7-5-2-3-5/h4-5,7H,2-3H2,1H3,(H,8,9)	InChI=1S/C6H11NO2/c1-4(6(8)9)7-5-2-3-5/h4-5,7H,2-3H2,1H3,(H,8,9)/t4-/m1/s1
