27
gdb 117843	1.84708	1.05319	0.79473	1.2811	92.6	-0.2572	0.0662	0.3235	1658.0278	0.249202	-390.707927	-390.695751	-390.694807	-390.745376	44.662	
C	 0.5453909918	 1.3510245824	 0.6045047702	-0.385354
C	 0.4359172656	-0.1196882583	 0.191010578	-0.170946
C	-1.0023419996	-0.6475397464	 0.2753923771	-0.207472
C	-1.1690384822	-2.1781051574	 0.1189009683	 0.340579
O	-0.3824364123	-2.8572417217	 1.1097589017	-0.467946
C	-2.6584339649	-2.5796422852	 0.2557886157	-0.190721
C	-3.3229384053	-2.2499947546	 1.5979198243	-0.412379
C	-0.6040064666	-2.6540610966	-1.2359099456	-0.176203
C	-0.6692323544	-4.1653648944	-1.4844662219	-0.397581
H	 1.576659199	 1.7102006221	 0.5292200847	 0.110512
H	-0.0763619189	 1.9916955907	-0.0313806227	 0.111273
H	 0.2166680306	 1.4994116348	 1.6395907846	 0.109486
H	 0.8203516783	-0.2323649871	-0.8288623551	 0.098117
H	 1.0746768367	-0.7381694762	 0.8312630166	 0.106891
H	-1.4132684634	-0.3582386351	 1.2523675188	 0.081027
H	-1.6296917426	-0.1434567025	-0.4721628473	 0.089364
H	-0.6773061667	-2.5622913001	 1.9771392747	 0.275885
H	-3.2228457065	-2.102981776	-0.5557734669	 0.090767
H	-2.7307246492	-3.6592739593	 0.0955336223	 0.104136
H	-4.345406513	-2.6391030052	 1.6191117879	 0.118032
H	-2.7925645783	-2.7159256565	 2.4369450311	 0.10714
H	-3.3804446097	-1.1744700981	 1.7885000741	 0.121734
H	-1.1277996187	-2.1165428572	-2.0360254522	 0.087239
H	 0.4440411482	-2.3443875168	-1.2846090669	 0.104387
H	-0.1074243645	-4.4244525901	-2.387362741	 0.104935
H	-0.2327267453	-4.7097080207	-0.6433523165	 0.135261
H	-1.693287898	-4.5229450743	-1.6272518241	 0.111837
60.1573	71.6408	101.6732	116.8293	157.5735	211.0627	222.3588	238.4381	253.1299	288.2872	300.6364	324.7765	355.5714	365.9972	409.9832	532.3392	569.8634	723.5516	749.4977	775.8156	785.265	864.2913	899.8637	939.9415	953.9412	988.4016	1028.0437	1039.6181	1052.8797	1065.5859	1087.1805	1109.1055	1146.9814	1190.9909	1207.9911	1259.2172	1301.7702	1308.5107	1326.0604	1332.0917	1345.3	1374.1795	1395.4478	1400.2034	1408.2375	1412.4845	1421.8146	1476.8076	1478.3399	1480.9571	1495.5011	1500.6499	1502.6147	1503.9676	1509.134	1510.9954	1513.4274	3007.2351	3025.718	3028.4084	3031.5021	3034.4677	3038.0323	3042.8809	3043.5353	3071.1448	3078.9758	3083.6816	3095.0735	3097.1674	3099.0726	3105.6184	3113.5772	3127.1912	3816.8394
CCCC(O)(CC)CC	CCCC(O)(CC)CC	
InChI=1S/C8H18O/c1-4-7-8(9,5-2)6-3/h9H,4-7H2,1-3H3	InChI=1S/C8H18O/c1-4-7-8(9,5-2)6-3/h9H,4-7H2,1-3H3
