12
gdb 129866	5.33517	1.33156	1.06646	6.4148	67.28	-0.2135	-0.0378	0.1757	1009.1497	0.078247	-468.775998	-468.769086	-468.768142	-468.807086	26.225	
N	 0.0801491273	 1.3218841117	 0.1813171902	-0.587168
C	-0.075254791	-0.0313752301	 0.0689212553	 0.433653
C	-1.2042390956	-0.8289911581	 0.0273653651	-0.469824
C	-0.6779876699	-2.1513426991	-0.0078756723	 0.405004
C	 0.689975187	-2.0362894117	 0.0121563978	 0.288609
O	 1.0991963952	-0.7344145453	 0.0592909425	-0.213618
N	 1.2645465926	-3.2386138461	-0.0303639872	-0.195405
N	 0.3955918059	-4.1423509405	-0.0733480069	-0.066007
O	-1.0068707752	-3.4152644379	-0.0600652152	-0.274575
H	 0.9690619635	 1.677560135	-0.1396928293	 0.275086
H	-0.7091570303	 1.8756804336	-0.1133721229	 0.273845
H	-2.2256779895	-0.4891578217	 0.026684003	 0.1304
152.9515	250.9417	264.0573	296.8939	335.4775	372.2086	526.9179	556.5043	584.105	628.1417	689.8826	724.9501	756.5931	763.5291	848.1783	955.5643	974.7866	1073.5687	1199.0282	1213.7382	1388.5782	1411.3618	1485.0696	1539.1302	1550.7847	1597.419	1660.5096	3278.1474	3578.9266	3688.6819
NC1=CC2=C(O1)N=NO2	Nc1cc2c(o1)nno2	
InChI=1S/C4H3N3O2/c5-3-1-2-4(8-3)6-7-9-2/h1H,5H2	InChI=1S/C4H3N3O2/c5-3-1-2-4(8-3)6-7-9-2/h1H,5H2
