15
gdb 31905	4.02232	1.04849	0.83616	5.0225	81.69	-0.1969	-0.0071	0.1897	1309.7158	0.112165	-416.796328	-416.787791	-416.786847	-416.830283	30.946	
C	-0.0762269555	 1.4346628986	 0.0114864026	-0.267594
O	-0.0073339095	 0.0185591846	 0.0030564209	-0.260476
C	-1.1689163775	-0.6583155406	 0.0107915971	 0.419241
C	-1.3742566143	-2.0199005759	 0.0103374678	-0.223238
N	-2.7146388033	-2.2928444374	 0.0193185472	-0.298306
C	-3.3331742815	-1.1271100271	 0.025091755	 0.185074
N	-2.4154524014	-0.0874670816	 0.020086943	-0.399426
C	-4.7216417571	-0.882706266	 0.0352506468	 0.270697
C	-5.9009873905	-0.6359074448	 0.0439073317	-0.418981
H	 0.953887322	 1.7918284905	 0.0053339235	 0.153629
H	-0.5918206944	 1.8172986198	-0.8796048831	 0.128369
H	-0.5778792856	 1.8072604574	 0.9146764102	 0.128526
H	-0.6250764013	-2.7948805197	 0.0040877875	 0.115997
H	-2.6436716648	 0.8916375591	 0.0229431018	 0.272477
H	-6.9440864253	-0.438222557	 0.0515513381	 0.194012
35.6541	128.445	137.9141	216.3499	248.2582	317.672	453.1172	464.3597	476.4428	527.7819	541.1205	587.6089	673.7189	688.196	703.3878	719.7121	809.6057	992.2847	1026.576	1090.2601	1170.0504	1175.1882	1196.2236	1232.3439	1308.568	1390.5523	1438.6714	1464.6894	1494.233	1505.6589	1512.7241	1630.1627	2227.6002	2999.0683	3058.6158	3146.0138	3265.0735	3503.2976	3677.4464
COC1=CN=C(N1)C#C	COc1cnc([nH]1)C#C	
InChI=1S/C6H6N2O/c1-3-5-7-4-6(8-5)9-2/h1,4H,2H3,(H,7,8)	InChI=1S/C6H6N2O/c1-3-5-7-4-6(8-5)9-2/h1,4H,2H3,(H,7,8)
