16
gdb 44756	2.76078	1.69365	1.25136	3.0324	76.41	-0.2597	0.0247	0.2844	1000.0017	0.125043	-400.704875	-400.697594	-400.69665	-400.736407	29.253	
N	-0.0305114569	 1.2267103876	-0.0289264826	-0.566974
C	-0.0375009661	-0.0288881063	-0.0115313559	 0.427765
O	 1.0518924518	-0.8748202616	-0.0189719943	-0.263048
C	 0.4165910167	-2.186726582	 0.0102019267	 0.066611
C	-0.6970855173	-2.0351556292	-1.0449548501	-0.266249
C	-1.2195251232	-0.9888795834	 0.0223763382	 0.093022
C	-0.6595363808	-2.0056588297	 1.0991324546	-0.266249
C	-2.5569813033	-0.4709776193	 0.0386741886	 0.095866
C	-3.6904229405	-0.0728150793	 0.053024392	-0.328868
H	 0.9272619549	 1.5818585145	-0.0505852866	 0.227236
H	 1.179060454	-2.9608226985	 0.0074988534	 0.101358
H	-0.4153486614	-1.6559159007	-2.0284673557	 0.12515
H	-1.3560336373	-2.9004779414	-1.1204111928	 0.122262
H	-1.3150211514	-2.868261903	 1.2213803341	 0.122262
H	-0.3437241221	-1.5996495687	 2.061376841	 0.12515
H	-4.6853893473	 0.2973485509	 0.0652711794	 0.184707
136.5471	144.9581	202.4146	381.2359	459.1681	483.4157	502.5507	514.9075	582.6931	642.0488	646.8083	648.2623	706.552	807.9923	857.7065	881.8193	918.0012	923.0804	931.6221	973.5439	995.0813	999.8482	1050.1706	1111.1205	1172.6173	1182.5636	1218.1658	1234.9627	1235.2129	1306.3594	1368.5289	1474.0005	1510.1893	1809.3713	2248.6267	3082.4046	3087.017	3154.5599	3159.2221	3165.0339	3472.2576	3505.0651
N=C1OC2CC1(C2)C#C	[NH][C]1O[C@@H]2C[C@]1(C2)C#C	
InChI=1S/C7H7NO/c1-2-7-3-5(4-7)9-6(7)8/h1,5,8H,3-4H2	InChI=1S/C7H7NO/c1-2-7-3-5(4-7)9-6(7)8/h1,5,8H,3-4H2/t5-,7+
