16
gdb 37306	2.96158	2.25199	1.87692	0.4655	70.13	-0.2167	0.0049	0.2216	789.5115	0.12725	-400.694206	-400.688445	-400.687501	-400.723995	24.708	
O	-0.0298483216	 1.4338719888	-0.0638968188	-0.236278
C	 1.2588148694	 0.8285206723	-0.0099119114	 0.040006
C	 0.039637212	 0.0030183154	 0.0023255781	 0.027511
C	-0.034025965	-0.7063322485	-1.3783307001	-0.129342
C	-0.8470946866	 0.1545883169	-2.3235449746	-0.050137
C	-0.0295706808	 0.9958575212	-2.9545860438	-0.077224
C	 1.3876585303	 0.6210253442	-2.6856933281	-0.077456
C	 1.9831992866	 0.5360207574	-1.2982879988	-0.068045
N	 1.3720354106	-0.6542093315	-1.9397755482	-0.11454
H	 1.8478714008	 1.061647608	 0.8739408375	 0.10157
H	-0.399413866	-0.4461460194	 0.8896048229	 0.101731
H	-0.3634059894	-1.7424058568	-1.2730741408	 0.084512
H	-1.9288357419	 0.1984644511	-2.3028904021	 0.106326
H	-0.3118658946	 1.8088906652	-3.6104476258	 0.105652
H	 2.0979820799	 0.6844170188	-3.5088978051	 0.094462
H	 3.0685167963	 0.5141372971	-1.2251410607	 0.091253
205.4719	280.4576	455.373	491.0044	585.6817	669.9197	700.3142	715.8141	755.3229	779.981	803.3301	821.5489	858.4191	891.6797	922.0992	925.7971	945.123	978.4863	990.8998	1009.8734	1050.1411	1091.128	1107.7577	1125.003	1130.1569	1211.8597	1258.6599	1269.1459	1279.7391	1306.9474	1346.3268	1370.9015	1377.5945	1428.3078	1665.9482	3083.4306	3111.8425	3126.3834	3140.164	3151.7346	3205.2675	3231.0453
O1C2C1C1C=CC3C2N13	O1[C@H]2[C@@H]1[C@H]1C=C[C@H]3[C@@H]2N13	
InChI=1S/C7H7NO/c1-2-4-6-7(9-6)5-3(1)8(4)5/h1-7H	InChI=1S/C7H7NO/c1-2-4-6-7(9-6)5-3(1)8(4)5/h1-7H/t3-,4+,5-,6-,7+,8?/m0/s1
