17
gdb 82014	2.54636	1.44605	1.31497	4.1065	73.16	-0.2349	0.021	0.2559	1040.771	0.13762	-414.139582	-414.131114	-414.13017	-414.172249	32.594	
N	-0.0878160338	 1.4599462766	 0.1941965012	-0.506205
C	-0.0326850596	 0.0415867783	 0.0236801593	-0.011647
C	-1.3753893597	-0.6797684537	-0.0132618322	-0.0326
N	-2.0611166605	-0.1970447729	-1.2402347329	-0.363493
C	-1.0929023305	-1.3122559058	-1.3268059488	-0.101858
C	 0.2842285299	-0.6095568118	-1.4462903559	 0.126367
N	 0.5009761039	 0.3676605963	-2.494239926	-0.557668
C	 1.3903288626	-1.5532266871	-1.3819004704	 0.243807
N	 2.2549593469	-2.3181354817	-1.3103383956	-0.339283
H	 0.8071146913	 1.8879659403	-0.0191361769	 0.24363
H	-0.775709993	 1.8563208421	-0.4383688868	 0.241015
H	 0.6464082854	-0.4029154466	 0.7546825155	 0.109923
H	-1.944652742	-1.0523170423	 0.8281512942	 0.107944
H	-2.9981839969	-0.5947050691	-1.2545058962	 0.241908
H	-1.3760622459	-2.2838141683	-1.7123829364	 0.110918
H	 0.7910022472	-0.084733483	-3.3559550498	 0.239812
H	-0.3882807153	 0.8276373486	-2.6728018621	 0.24743
113.9614	151.1627	190.3519	231.7531	274.0021	289.9834	330.2225	430.8401	484.5945	511.5165	562.8349	616.0157	663.6995	750.3411	821.4203	832.5041	848.9673	889.4692	922.9867	937.046	951.5414	1017.7026	1041.4075	1091.6095	1107.4105	1145.6462	1183.0146	1223.3235	1245.1429	1294.8842	1303.1367	1352.9369	1370.6215	1431.4394	1644.9679	1655.0841	2349.3304	3090.1566	3192.2544	3209.2695	3484.9298	3498.962	3508.8821	3571.8934	3588.8008
NC1C2NC2C1(N)C#N	N[C@H]1[C@H]2N[C@H]2[C@]1(N)C#N	
InChI=1S/C5H8N4/c6-1-5(8)3(7)2-4(5)9-2/h2-4,9H,7-8H2	InChI=1S/C5H8N4/c6-1-5(8)3(7)2-4(5)9-2/h2-4,9H,7-8H2/t2-,3+,4-,5+/m1/s1
