19
gdb 50564	3.15155	1.32599	1.17483	3.686	74.5	-0.2379	-0.0194	0.2185	1101.4277	0.160864	-423.02638	-423.018641	-423.017697	-423.059345	29.704	
O	 0.1964283211	-0.1827651319	 0.1970545883	-0.256488
C	 0.0841413447	 1.0155842312	 0.1322819165	 0.155079
C	 1.2517424907	 1.9760565639	 0.0128098965	-0.072609
C	 1.1168922545	 2.8797649278	-1.255347181	-0.257225
C	 0.4878234397	 4.2658772246	-0.9591449673	-0.204231
C	 0.7420377097	 4.6535456291	 0.4951087911	 0.10289
C	 2.1160372554	 4.1684524069	 1.0057151364	-0.263962
C	 1.3202082279	 2.8730961341	 1.2635341771	 0.073277
O	 0.0908975663	 3.6493821592	 1.3311762343	-0.297356
H	-0.9134659244	 1.5039873367	 0.1527339799	 0.092852
H	 2.1574408735	 1.3642420367	-0.0539768291	 0.090685
H	 2.1215493925	 3.0212175906	-1.6636476732	 0.116778
H	 0.5524102074	 2.3607495801	-2.0366877991	 0.113215
H	 0.8983054762	 5.018043966	-1.6426548416	 0.100377
H	-0.596562731	 4.2501514308	-1.1107654299	 0.115795
H	 0.4119142208	 5.6665140186	 0.738858093	 0.080366
H	 2.9611617557	 4.1443757447	 0.314895288	 0.103846
H	 2.4016856561	 4.6566519457	 1.9383061326	 0.116776
H	 1.5044175033	 2.3062136754	 2.1797075575	 0.089934
44.2186	107.821	216.1466	290.991	342.6723	388.9345	412.6532	464.707	561.8458	673.8181	787.0364	826.6053	842.1111	879.4456	885.9766	911.4867	953.2976	966.2826	983.3016	1016.1214	1047.4351	1063.9339	1101.0523	1125.4824	1133.8432	1190.2849	1221.5294	1232.3418	1265.701	1282.7411	1293.8241	1333.488	1335.5725	1352.7063	1371.04	1381.4258	1422.6629	1475.8553	1488.5895	1508.5653	1825.6315	2908.6326	3036.5369	3050.346	3060.8141	3073.1296	3073.9979	3078.8515	3085.6622	3094.3264	3139.513
O=CC1CCC2CC1O2	O=C[C@H]1CC[C@@H]2C[C@H]1O2	
InChI=1S/C7H10O2/c8-4-5-1-2-6-3-7(5)9-6/h4-7H,1-3H2	InChI=1S/C7H10O2/c8-4-5-1-2-6-3-7(5)9-6/h4-7H,1-3H2/t5-,6-,7-/m1/s1
