20
gdb 109320	1.86507	1.60369	0.96673	3.9919	85.59	-0.2505	0.0083	0.2588	1274.5992	0.171779	-366.053928	-366.044796	-366.043852	-366.088366	33.524	
C	-0.2632987773	 1.4987184773	-0.0712009196	-0.381053
C	 0.1248817546	 0.0137337717	 0.0469434805	-0.299416
C	 0.7980867589	-0.5282468609	-1.1776673691	 0.350511
C	 2.0447653821	-0.9861746485	-1.2966188451	-0.182448
C	 2.3993038171	-1.4122156844	-2.6983854921	-0.261566
C	 1.0228367673	-1.4738012099	-3.4011953715	-0.225114
C	 0.1010520567	-0.5571246677	-2.5438021887	-0.233418
C	-1.2858534737	-1.0207206702	-2.4894752208	 0.273532
N	-2.3812773086	-1.3869674491	-2.4356314398	-0.338168
H	 0.6163683504	 2.1218269358	-0.2614800618	 0.118651
H	-0.9780085175	 1.6626573529	-0.8838377598	 0.127661
H	-0.733159138	 1.8464263505	 0.8532285015	 0.121761
H	 0.7881975767	-0.1273085008	 0.9068702685	 0.105508
H	-0.7827899523	-0.5703779185	 0.2487183989	 0.129014
H	 2.757947764	-1.0165841675	-0.4794314555	 0.096232
H	 3.0662465323	-0.6783337051	-3.1725431134	 0.112276
H	 2.9239334218	-2.372921584	-2.7363363635	 0.113297
H	 1.0493196992	-1.1659843761	-4.4483546423	 0.114325
H	 0.6350325187	-2.4950456824	-3.3656222642	 0.130459
H	 0.0764686276	 0.4598904069	-2.9610708822	 0.127955
57.134	92.7453	136.7154	159.8089	224.0666	240.4839	305.599	362.1135	465.6831	515.5043	565.8285	623.6043	650.1868	794.956	805.5006	842.6582	881.1552	927.3755	936.3034	977.4372	1005.3754	1042.6138	1054.7986	1078.9891	1100.5301	1157.1616	1198.1983	1232.2808	1257.5439	1274.9504	1300.0482	1320.1448	1336.2001	1354.6337	1364.2819	1408.6609	1479.7741	1486.1577	1499.872	1501.7245	1506.0798	1721.3926	2352.7438	3001.6376	3009.1878	3022.3168	3037.8931	3059.135	3069.1865	3073.9363	3109.8313	3112.4437	3120.7682	3186.8816
CCC1=CCCC1C#N	CCC1=CCC[C@H]1C#N	
InChI=1S/C8H11N/c1-2-7-4-3-5-8(7)6-9/h4,8H,2-3,5H2,1H3	InChI=1S/C8H11N/c1-2-7-4-3-5-8(7)6-9/h4,8H,2-3,5H2,1H3/t8-/m0/s1
