19
gdb 74733	2.28651	2.13239	1.49845	2.1195	80.47	-0.2198	0.0003	0.2201	961.3965	0.158957	-385.762725	-385.75527	-385.754326	-385.794069	30.838	
C	 0.1028859239	 1.4336761842	 0.0578416697	-0.519102
C	 0.0174319765	-0.048678156	-0.0562066871	 0.299433
C	 0.0747950071	-0.8760572813	-1.1027132336	-0.179787
C	 0.0001051815	-2.234442399	-0.4186897314	-0.058461
O	 0.9656965157	-2.044240268	 0.7276355278	-0.367084
C	-0.1020575181	-1.055413268	 1.1198267268	 0.302244
C	-1.03644646	-0.6244633069	 2.2795370824	-0.331807
C	-2.2028508425	-1.068001531	 1.2668558374	-0.289348
C	-1.1294020489	-2.0466035599	 0.6712623749	 0.016822
H	 0.9599641058	 1.7331796803	 0.6745279825	 0.135983
H	 0.2165818312	 1.8991137014	-0.92512734	 0.128587
H	-0.788082295	 1.863356601	 0.5319458591	 0.126509
H	 0.1960417818	-0.6784830432	-2.1579044356	 0.105671
H	 0.1743905041	-3.1575376273	-0.9715557555	 0.079914
H	-0.9996510379	-1.2930975462	 3.1413084854	 0.125177
H	-1.0069659977	 0.4160680699	 2.6140245843	 0.104491
H	-3.0954619428	-1.5178442719	 1.7059949987	 0.105835
H	-2.4850891509	-0.2464945133	 0.6064234695	 0.122264
H	-1.0893540136	-2.922768895	 1.3244154247	 0.092658
156.6154	178.1236	236.4228	300.2203	339.8641	441.2381	506.5766	554.1708	583.9354	630.555	667.1863	693.4373	750.6177	793.7922	794.7856	829.0337	855.8208	883.1542	929.9687	993.8301	1015.5278	1041.1869	1063.2196	1071.1051	1088.0752	1131.1812	1177.8105	1179.2834	1201.6361	1209.155	1225.3465	1249.6537	1260.3965	1301.3493	1385.1161	1414.4204	1469.4246	1474.6285	1484.2732	1490.0274	1692.43	3018.0393	3061.7387	3064.2888	3066.8277	3075.0807	3108.4466	3124.6106	3128.6765	3144.3892	3237.5682
CC1=CC2OC11CCC21	CC1=C[C@H]2O[C@]31CC[C@@H]23	
InChI=1S/C8H10O/c1-5-4-7-6-2-3-8(5,6)9-7/h4,6-7H,2-3H2,1H3	InChI=1S/C8H10O/c1-5-4-7-6-2-3-8(5,6)9-7/h4,6-7H,2-3H2,1H3/t6-,7+,8-/m0/s1
