15
gdb 27133	2.7323	1.3586	1.06523	2.1085	70.28	-0.2048	0.0193	0.2242	1128.329	0.112757	-453.957241	-453.948663	-453.947719	-453.991445	30.701	
O	 0.779385184	 1.1029768204	-0.4003637208	-0.442522
C	 0.246219727	-0.1140958251	-0.1184155401	 0.227362
C	-0.4083581099	-0.8954426559	-1.0248265005	 0.343192
N	-0.6969890934	-0.7240328975	-2.3678975544	-0.401242
C	 0.0364970174	-1.2846805073	-3.3951005369	 0.069443
N	 1.0477709519	-2.0273181378	-3.1970264654	-0.444681
O	-0.8353530294	-2.0477483618	-0.4017175873	-0.157644
C	-0.4349855237	-1.9777799311	 0.8823124556	 0.011321
C	 0.2277672979	-0.8151736128	 1.1298401347	-0.309684
H	 1.2685151398	 1.4112351052	 0.3676391823	 0.300755
H	-1.4947972287	-0.1664191325	-2.6277729377	 0.252332
H	-0.3733374109	-1.0026732143	-4.3736210327	 0.086754
H	 1.4425812688	-2.3253233031	-4.0858249035	 0.220433
H	-0.6873160144	-2.8217274899	 1.5033764111	 0.136991
H	 0.6535203736	-0.4983208464	 2.0698769757	 0.10719
33.5805	107.2031	135.0804	207.1355	267.4127	300.6062	343.1675	364.546	491.104	612.334	623.2292	672.2942	710.8574	739.6974	795.9816	806.1914	851.8816	904.6502	1049.2567	1065.0838	1080.768	1096.5925	1186.5646	1213.5097	1248.9569	1320.396	1340.5189	1410.3245	1466.7367	1511.8801	1539.1316	1723.9672	1738.2144	3035.2057	3243.2549	3277.4452	3516.8022	3615.4599	3847.6704
OC1=C(NC=N)OC=C1	Oc1c(NC=N)occ1	
InChI=1S/C5H6N2O2/c6-3-7-5-4(8)1-2-9-5/h1-3,8H,(H2,6,7)	InChI=1S/C5H6N2O2/c6-3-7-5-4(8)1-2-9-5/h1-3,8H,(H2,6,7)
