21
gdb 40757	2.65871	1.32263	0.99701	1.7651	83.03	-0.2599	0.0848	0.3446	1249.296	0.182415	-387.040696	-387.032048	-387.031104	-387.074736	32.96	
C	 0.2575641262	 1.4813951317	 0.0554677558	-0.184202
O	 1.1638007631	 0.4203497708	-0.2479569166	-0.245571
C	-0.205933966	 0.0881894086	 0.0219831416	 0.076939
C	-0.4726677208	-0.7082970824	 1.2654028559	-0.064713
C	-1.9648954328	-0.9791767909	 1.6351035975	-0.243484
C	-1.6224360611	-2.4768708904	 1.8860870989	-0.303909
C	-0.26588944	-2.2363603579	 1.2101150554	 0.366718
C	 0.2883366401	-3.0063010996	 0.0431954172	-0.325588
C	 1.0094252445	-3.0032657439	 1.3722772284	-0.323653
H	 0.4155219008	 1.9700975046	 1.0164308199	 0.111182
H	 0.0270045402	 2.1513040741	-0.7720043181	 0.112314
H	-0.7569187368	-0.2374833088	-0.8628220453	 0.08848
H	 0.0806606509	-0.264436781	 2.1003724791	 0.071089
H	-2.3693611929	-0.4123627926	 2.4759776366	 0.100918
H	-2.6284592795	-0.8438805487	 0.7758282056	 0.102056
H	-1.5313100035	-2.716410746	 2.9504417724	 0.101384
H	-2.2832474606	-3.2139206858	 1.4215822934	 0.098876
H	-0.2279238573	-3.9123874218	-0.2590577802	 0.106461
H	 0.7382206344	-2.4521080442	-0.773910162	 0.127357
H	 1.9347263053	-2.440217994	 1.4423238693	 0.120566
H	 0.9868304458	-3.9084716021	 1.9715124252	 0.10678
56.3051	64.987	151.5923	206.1648	281.6801	299.0462	364.006	396.3817	489.8137	574.8341	715.3118	776.5709	788.1517	845.7391	863.3907	883.7948	901.6	924.4731	938.5635	952.8968	978.4408	1007.8831	1050.9339	1066.6733	1081.7434	1096.0555	1125.6008	1151.8387	1166.4086	1189.6637	1191.7533	1205.1945	1238.2582	1251.9264	1266.9674	1276.5469	1293.584	1315.3234	1372.7021	1451.8574	1462.5593	1478.351	1496.9645	1502.25	1528.1526	3042.0628	3045.8688	3057.4605	3078.7578	3089.3374	3091.8058	3116.8189	3120.6227	3124.6591	3164.9613	3200.4973	3215.0655
C1OC1C1CCC11CC1	C1O[C@H]1[C@H]1CCC21CC2	
InChI=1S/C8H12O/c1-2-8(3-4-8)6(1)7-5-9-7/h6-7H,1-5H2	InChI=1S/C8H12O/c1-2-8(3-4-8)6(1)7-5-9-7/h6-7H,1-5H2/t6-,7-/m1/s1
