20
gdb 16593	2.42364	2.07586	1.85855	1.4156	74.28	-0.2435	0.0728	0.3163	894.0166	0.176915	-348.97344	-348.965146	-348.964202	-349.00534	32.314	
C	-0.4366229759	 1.5590577845	 0.2888403916	-0.413787
C	-0.0692538059	 0.084389565	 0.1504989676	 0.01182
C	 0.3689166589	-0.4595605431	-1.2189844216	-0.108747
C	 1.7106272574	 0.0105015272	-1.6549031393	 0.109232
O	 2.124313765	 1.3405023458	-1.4702197188	-0.416942
C	 1.6704718605	-1.0374693977	-0.5847096615	-0.141109
C	 1.2516325379	-0.4956564935	 0.7917740961	 0.014629
C	 2.2097093643	 0.4057507955	 1.5664901118	-0.415268
H	 0.3624085206	 2.2105448775	-0.0657784147	 0.143484
H	-1.3355556409	 1.7812338914	-0.2978020255	 0.106657
H	-0.6581055603	 1.808684667	 1.3329823231	 0.102698
H	-0.9103721382	-0.5177599614	 0.509632863	 0.069882
H	-0.3078674096	-0.9269180975	-1.9262333518	 0.081588
H	 1.9973651671	-0.3952810385	-2.627271138	 0.085918
H	 3.0832938538	 1.3378649329	-1.3813006459	 0.284526
H	 2.12856177	-2.0088225364	-0.7410118334	 0.077588
H	 0.9788006832	-1.3399828955	 1.4331245004	 0.070818
H	 2.4771167115	 1.2973493423	 0.9972980117	 0.12238
H	 1.7624240925	 0.7287048453	 2.5133178533	 0.109777
H	 3.1323982981	-0.1346496707	 1.8089034816	 0.104857
154.884	187.472	208.1219	228.4603	239.5709	287.7021	326.7942	353.5039	465.791	537.516	651.947	701.0855	724.3538	750.6514	790.1249	883.7111	943.7389	968.1712	982.8857	1008.8969	1034.4372	1042.5945	1082.9942	1085.2889	1123.1271	1170.2088	1175.0525	1222.9338	1232.7028	1284.5094	1300.8472	1310.8092	1359.3936	1367.5116	1382.9971	1401.0362	1411.0717	1465.7852	1486.3025	1499.416	1504.5083	1517.6925	3025.8784	3029.9502	3032.7248	3051.9769	3080.2583	3081.743	3085.2064	3136.8774	3149.3628	3154.4118	3167.1216	3804.4143
CC1C2C(O)C2C1C	C[C@H]1[C@H]2[C@@H](O)[C@H]2[C@H]1C	
InChI=1S/C7H12O/c1-3-4(2)6-5(3)7(6)8/h3-8H,1-2H3	InChI=1S/C7H12O/c1-3-4(2)6-5(3)7(6)8/h3-8H,1-2H3/t3-,4+,5-,6+,7-
