12
gdb 26807	3.72847	1.17644	0.89529	5.6276	71.7	-0.2104	-0.0529	0.1575	1172.8559	0.077852	-468.838657	-468.830611	-468.829666	-468.871295	28.832	
N	 0.2141301278	 1.3721922615	-0.1166114095	-0.605913
C	 0.0100191987	 0.0133146706	-0.0494934305	 0.285194
C	-1.1049267842	-0.7881704821	-0.0788309275	 0.263711
O	-2.3880787519	-0.3652657914	-0.0994044796	-0.442646
N	-0.730367898	-2.0943637047	-0.0868988119	-0.361899
C	 0.5764467054	-2.0707919114	-0.0582139884	 0.265439
O	 1.0907191644	-0.8017446137	-0.0417734268	-0.182562
C	 1.4777977871	-3.152021903	-0.0247189764	 0.255176
N	 2.2230413037	-4.0396129979	 0.0015651134	-0.338327
H	 0.9801442147	 1.70731095	 0.4542154395	 0.271317
H	-0.63322853	 1.8980947812	 0.0490589564	 0.276646
H	-2.9503845077	-1.1489571691	-0.0992829986	 0.313863
125.4333	150.041	175.6962	242.1335	260.5166	277.3091	359.3142	444.9375	499.6163	550.4592	616.6091	640.491	674.5069	703.8423	714.6184	840.022	995.7406	1070.3196	1146.6281	1236.5955	1358.088	1365.6312	1483.8374	1546.3635	1633.1011	1717.8166	2336.4919	3543.7969	3648.4598	3814.6276
NC1=C(O)N=C(O1)C#N	Nc1c(O)nc(o1)C#N	
InChI=1S/C4H3N3O2/c5-1-2-7-4(8)3(6)9-2/h8H,6H2	InChI=1S/C4H3N3O2/c5-1-2-7-4(8)3(6)9-2/h8H,6H2
