17
gdb 26694	2.28575	1.56584	0.93939	1.7464	72.19	-0.1632	0.0477	0.2109	1202.2752	0.134273	-455.167423	-455.156936	-455.155992	-455.202848	36.638	
C	 0.0524574324	 1.5094028579	 0.0479864629	-0.541633
C	 0.0594632906	 0.012045382	 0.0144715273	 0.009921
C	 0.0542086427	-0.8148618818	-1.0912145183	 0.311899
O	 0.0422808078	-0.5569679922	-2.4274093099	-0.43923
N	 0.0479611985	-2.110135511	-0.6922126224	-0.321611
C	 0.0552357769	-2.1742706571	 0.7044898059	 0.152355
N	 0.0509250692	-3.4289086331	 1.3491756758	-0.613947
C	 0.0635449752	-0.8747428395	 1.1427058348	 0.205088
O	 0.0592180333	-0.5206045065	 2.4667230755	-0.456731
H	 1.0085928788	 1.9409208082	 0.3755963208	 0.124692
H	-0.1605640152	 1.9350655731	-0.9397340032	 0.106415
H	-0.7259935828	 1.9019796189	 0.716235613	 0.124324
H	 0.1516595155	 0.390324542	-2.5526726533	 0.301802
H	 0.05917636	-2.9132316923	-1.2959429598	 0.262706
H	-0.7702577235	-3.549515324	 1.9342080618	 0.240908
H	 0.8596481894	-3.5436187954	 1.9521758983	 0.240879
H	 0.1310213814	 0.4361776308	 2.5241849706	 0.292163
63.1361	112.3166	134.4705	167.334	180.5274	192.3935	234.6426	267.3164	276.9631	306.0706	312.5947	444.1077	543.0097	615.0979	619.1743	647.2882	691.937	743.8052	810.7877	876.9385	1017.5749	1056.9565	1146.2984	1170.3316	1215.149	1235.0603	1249.3271	1289.8076	1389.4969	1420.6113	1469.2347	1480.1447	1508.4973	1560.5544	1610.1389	1663.5904	1699.454	2996.6953	3037.7481	3068.2149	3488.6885	3544.9912	3691.2463	3843.5511	3845.7019
CC1=C(O)NC(N)=C1O	Cc1c(O)[nH]c(N)c1O	
InChI=1S/C5H8N2O2/c1-2-3(8)4(6)7-5(2)9/h7-9H,6H2,1H3	InChI=1S/C5H8N2O2/c1-2-3(8)4(6)7-5(2)9/h7-9H,6H2,1H3
