19
gdb 15445	4.19902	1.12257	1.02636	3.8635	69.06	-0.2316	0.0595	0.2911	1189.5668	0.164747	-402.150526	-402.141522	-402.140578	-402.184607	32.359	
O	 0.267488834	 1.301453683	-0.3797907442	-0.425326
C	 0.1224957938	-0.0510306077	 0.0004669285	-0.045784
C	-1.3413281472	-0.394641947	 0.2739449253	-0.158321
N	-2.1101771714	-0.0404077837	-0.9220184845	-0.104509
C	-2.4684281418	-1.091357033	-1.8742141347	-0.25076
C	-3.5134875055	-0.4167494488	-1.0543495927	 0.008693
C	-4.2899085222	-1.1602523064	 0.0134737299	-0.118387
O	-3.6772707959	-2.4049399696	 0.3142723216	-0.405656
H	-0.474577677	 1.4648125936	-0.9788066825	 0.282598
H	 0.5141007793	-0.7311846706	-0.7759919981	 0.080311
H	 0.7205569712	-0.2079569215	 0.9050214269	 0.098049
H	-1.454320506	-1.4458245742	 0.5679120549	 0.107097
H	-1.7019072437	 0.232904675	 1.0982961721	 0.100692
H	-2.3484104745	-0.8465969465	-2.9262084338	 0.112107
H	-2.2315618608	-2.1168069057	-1.6036198107	 0.134665
H	-4.1197607128	 0.3576862843	-1.5239526515	 0.092962
H	-4.3662233173	-0.5292227693	 0.9135750618	 0.099736
H	-5.3145273065	-1.30776167	-0.364289962	 0.099414
H	-4.108704806	-2.7724837616	 1.0911182436	 0.292418
55.4588	113.4047	127.0093	161.3435	222.1784	243.0519	264.6308	405.896	428.0207	505.4512	536.4343	627.2631	727.8633	780.4102	896.0329	918.0765	955.094	974.0912	1034.9144	1043.6847	1093.352	1101.2226	1124.3437	1132.1878	1160.8701	1174.279	1231.5586	1232.2568	1275.1343	1281.4364	1334.8187	1374.5872	1380.8867	1421.1055	1446.7442	1457.8317	1489.0044	1510.1778	1512.4174	1515.4863	2953.3655	2966.8832	2992.3194	3018.5418	3063.4225	3068.9414	3105.7688	3109.4615	3197.7267	3736.998	3832.2874
OCCN1CC1CO	OCCN1C[C@H]1CO	
InChI=1S/C5H11NO2/c7-2-1-6-3-5(6)4-8/h5,7-8H,1-4H2	InChI=1S/C5H11NO2/c7-2-1-6-3-5(6)4-8/h5,7-8H,1-4H2/t5-,6?/m0/s1
