19
gdb 79155	4.5254	1.20843	1.14021	2.4127	74.84	-0.2353	0.0786	0.3139	1122.4123	0.160028	-422.982632	-422.975037	-422.974092	-423.01434	30.54	
C	-0.1214834201	 1.5217694113	-0.0666819318	-0.401385
C	 0.0321324848	 0.0110147068	 0.029585896	 0.118538
O	 0.8726689362	-0.4878555386	-1.0326074346	-0.297976
C	 1.8923427892	-1.1671108302	-0.3296115032	 0.146711
C	 1.2892889904	-1.9501243652	 0.8800652793	-0.117527
C	 2.5721998993	-1.681420171	 1.6748760864	 0.120909
O	 3.669421746	-2.4809268752	 1.2984277057	-0.445118
C	 2.3241804924	-0.3493536224	 0.9274658434	-0.146952
C	 0.7971277409	-0.5085712595	 1.24643792	-0.072278
H	 0.845734386	 2.0217135958	 0.04116114	 0.118333
H	-0.5423496898	 1.7986138201	-1.0374805523	 0.127231
H	-0.7941845757	 1.8913955719	 0.7148349611	 0.110967
H	-0.9540834203	-0.4681455835	-0.0511603478	 0.076222
H	 2.6124834484	-1.6137616986	-1.0086200942	 0.099403
H	 0.6914407533	-2.8614154531	 0.8534202595	 0.075044
H	 2.4554723297	-1.6400198795	 2.7658327075	 0.065213
H	 4.4566242307	-2.1356443631	 1.7306696548	 0.283436
H	 2.9122427429	 0.569008111	 0.9576520213	 0.069521
H	 0.4124984657	-0.2931224271	 2.2439552488	 0.069706
141.4282	197.6272	220.7318	256.8995	295.8025	335.4792	469.0373	484.0736	549.0311	701.4061	727.9059	789.6316	803.3791	851.7525	870.3203	914.2732	925.485	937.0194	980.3388	995.2698	1053.8598	1065.892	1087.0227	1102.4718	1107.9842	1127.9822	1136.1608	1159.325	1178.7911	1202.8088	1215.2139	1265.2325	1278.1413	1305.138	1318.7779	1362.96	1389.2849	1408.8924	1439.017	1487.0707	1495.3437	3000.9026	3015.0705	3037.1664	3101.1486	3108.1847	3110.9032	3118.3114	3119.9863	3177.0885	3821.0219
CC1OC2C3C(O)C2C13	C[C@H]1O[C@@H]2[C@H]3[C@@H](O)[C@@H]2[C@@H]13	
InChI=1S/C7H10O2/c1-2-3-4-6(8)5(3)7(4)9-2/h2-8H,1H3	InChI=1S/C7H10O2/c1-2-3-4-6(8)5(3)7(4)9-2/h2-8H,1H3/t2-,3-,4+,5-,6+,7+/m1/s1
