19
gdb 91819	3.44693	1.2344	1.03691	2.9206	76.51	-0.2447	0.0002	0.2448	1189.1715	0.158667	-423.01872	-423.010172	-423.009228	-423.051635	33.139	
C	-0.2191567596	 1.5243845753	 0.0929727915	-0.475026
C	 0.0627691153	 0.0438437354	-0.001292233	 0.387573
O	-0.7039843072	-0.7788849475	 0.9080096305	-0.293675
C	 0.7163096547	-0.6891158551	 1.0956703444	-0.047461
C	 1.5231868949	-1.94625593	 0.7992284729	-0.231013
C	 2.1514648226	-1.9292351306	-0.5997370017	 0.06533
O	 2.5693700386	-3.2630550601	-0.8705745287	-0.432114
C	 1.1795754308	-1.4163330282	-1.6420697583	-0.092666
C	 0.2320460826	-0.5211973034	-1.3724660281	-0.123269
H	 0.5899522369	 2.1063748039	-0.3610961973	 0.12322
H	-1.146826723	 1.7721366322	-0.4351017196	 0.126329
H	-0.3297485216	 1.8275140936	 1.1370709825	 0.128775
H	 1.0008092491	-0.12850027	 1.9863623517	 0.085841
H	 2.3067437744	-2.0896441741	 1.548643354	 0.104077
H	 0.8550067952	-2.8112325026	 0.8515634369	 0.133237
H	 3.0316020963	-1.2618624607	-0.5883258576	 0.076354
H	 3.070343048	-3.2611232003	-1.6923816542	 0.282181
H	 1.2968620236	-1.8144047629	-2.6481124218	 0.08946
H	-0.4447773717	-0.168484745	-2.1468892641	 0.092847
74.651	179.1859	207.1886	244.2504	257.479	312.405	367.3836	397.5401	419.8812	481.1483	549.0361	610.7305	659.9013	732.6763	770.5225	796.9585	881.9153	934.9401	955.6188	988.3897	1027.8102	1044.0782	1070.9972	1073.12	1109.3145	1123.656	1185.797	1199.8262	1240.3628	1276.8451	1326.9192	1333.5302	1364.6839	1405.9752	1410.6323	1425.3199	1458.4329	1477.8005	1486.0935	1499.5185	1713.9108	2933.1356	3033.1426	3056.2496	3095.9422	3096.5724	3110.5576	3123.0684	3139.9155	3164.5922	3817.1822
CC12OC1CC(O)C=C2	C[C@]12O[C@H]1C[C@@H](O)C=C2	
InChI=1S/C7H10O2/c1-7-3-2-5(8)4-6(7)9-7/h2-3,5-6,8H,4H2,1H3	InChI=1S/C7H10O2/c1-7-3-2-5(8)4-6(7)9-7/h2-3,5-6,8H,4H2,1H3/t5-,6-,7+/m0/s1
