17
gdb 96951	5.35626	1.18091	1.09278	0.9031	75.94	-0.2389	0.015	0.2539	1125.0732	0.137712	-417.943642	-417.93643	-417.935486	-417.975725	27.737	
C	-0.0158144493	 1.4542346319	 0.0777158068	-0.338414
N	-0.0944950482	 0.0012167584	 0.0797923348	-0.343074
C	 0.5159797285	-0.6509632543	 0.9608179913	 0.46687
O	 1.3004880025	-0.1390961195	 1.991566425	-0.272459
C	 1.7309486201	-1.3140130495	 2.6664853828	 0.121752
C	 2.061301805	-2.4357796097	 1.6466282286	-0.058771
N	 1.6171032091	-3.4464504953	 2.6715468512	-0.340232
C	 0.5814857955	-2.3542002223	 2.7324438416	-0.058771
C	 0.5910044537	-2.1308284776	 1.1742661549	-0.176512
H	 0.5980691081	 1.8753531618	 0.8813909068	 0.127225
H	 0.3865051193	 1.7857930301	-0.8860738307	 0.127644
H	-1.0291670787	 1.864033822	 0.1542867652	 0.127652
H	 2.367714633	-1.0915482729	 3.5175942436	 0.113066
H	 2.9537160845	-2.562099614	 1.0330614028	 0.096446
H	 1.2195005736	-4.2572170956	 2.1905836917	 0.217262
H	-0.2771816497	-2.3839856037	 3.4037312868	 0.096446
H	 0.0586580432	-2.7956933598	 0.4987014467	 0.093871
73.6128	111.5929	214.514	288.2276	400.9841	443.4112	494.7346	677.9161	681.6298	730.2256	792.013	832.0277	843.2897	889.956	907.9518	921.6155	974.7844	998.3939	1033.0236	1057.4167	1115.8943	1121.4087	1131.1065	1132.2	1151.1594	1154.8898	1173.5805	1185.8515	1238.3468	1265.0162	1294.0425	1322.4971	1361.2108	1438.3274	1494.45	1495.4362	1828.528	3019.5282	3080.6707	3092.51	3114.6274	3116.528	3163.2081	3179.4908	3410.7804
CN=C1OC2C3NC2C13	CN=C1O[C@@H]2[C@H]3N[C@@H]2[C@@H]13	
InChI=1S/C6H8N2O/c1-7-6-2-3-5(9-6)4(2)8-3/h2-5,8H,1H3	InChI=1S/C6H8N2O/c1-7-6-2-3-5(9-6)4(2)8-3/h2-5,8H,1H3/t2-,3-,4+,5+
