17
gdb 96925	2.50859	1.36148	1.13731	0.5994	72.48	-0.233	0.0118	0.2448	1143.4407	0.13451	-455.091204	-455.082113	-455.081169	-455.124924	33.443	
C	-0.0774996851	 1.3493816494	 0.0628963182	-0.339865
N	-0.0611808542	-0.105697156	 0.0457752767	-0.332002
C	 0.5204161095	-0.704311257	 0.9867966636	 0.325585
N	 1.3132933397	-0.2846491706	 2.1094264833	-0.357912
C	 1.6410307641	-1.6767972192	 2.4480853974	-0.134525
C	 0.4067163135	-2.4918328041	 2.6697822279	 0.051904
O	-0.670381102	-1.9312838136	 3.3569999948	-0.424064
C	 0.7670537016	-2.1569122566	 1.241561308	 0.221102
O	 0.8923790577	-3.1471349731	 0.3042033381	-0.443889
H	 0.6908658959	 1.7903619703	 0.7126690464	 0.118475
H	 0.0679260401	 1.722183389	-0.9559129297	 0.1261
H	-1.0598374508	 1.7069383215	 0.395835241	 0.126399
H	 0.8220730916	 0.2376414455	 2.8298691845	 0.243881
H	 2.6386789686	-1.9515457658	 2.7651784266	 0.115568
H	 0.6089196918	-3.5418110043	 2.8929176577	 0.106159
H	-1.4842737217	-2.2144547776	 2.9265026749	 0.296425
H	 1.2764324397	-2.7546650677	-0.4891382095	 0.300661
78.8445	131.825	175.4467	221.5868	234.2904	248.9724	273.3979	319.2834	345.3875	476.8726	522.116	591.717	644.4856	713.0197	768.0005	792.4711	837.6736	913.2809	963.8081	981.0227	1045.6704	1079.3077	1084.9937	1124.4099	1146.7038	1175.6374	1210.8348	1266.5217	1306.5889	1336.1686	1366.0835	1376.3287	1435.7467	1485.818	1491.0125	1503.7791	1818.11	3001.1063	3064.3695	3087.446	3092.7092	3202.5146	3508.4327	3790.1873	3809.0434
CN=C1NC2C(O)C12O	CN=C1N[C@H]2[C@@H](O)[C@@]12O	
InChI=1S/C5H8N2O2/c1-6-4-5(9)2(7-4)3(5)8/h2-3,8-9H,1H3,(H,6,7)	InChI=1S/C5H8N2O2/c1-6-4-5(9)2(7-4)3(5)8/h2-3,8-9H,1H3,(H,6,7)/t2-,3+,5+/m0/s1
