16
gdb 98654	5.01172	0.84471	0.73366	2.1267	68.15	-0.264	-0.0527	0.2113	1444.7249	0.122185	-475.042239	-475.033279	-475.032335	-475.077653	31.209	
O	 0.1153951004	 1.368656761	-0.2640762196	-0.419036
C	 0.0805691975	-0.0200757906	-0.1382816087	-0.139637
C	-1.3715723848	-0.4935080174	-0.0457838751	 0.366119
O	-2.2869105607	 0.3168707618	-0.0798578377	-0.386971
N	-1.579064843	-1.8224400534	 0.0627325089	-0.10001
C	-0.6898496518	-2.9747327721	 0.259222393	-0.302012
C	-1.9816361827	-3.8054796441	 0.4695578647	 0.385486
O	-2.2076826212	-4.9513573026	 0.6926239998	-0.255085
C	-2.8425128142	-2.539212945	 0.2693228012	-0.286054
H	-0.8192659077	 1.6381058502	-0.2530160995	 0.29619
H	 0.5639479284	-0.5130393418	-0.9975296891	 0.111514
H	 0.6235324999	-0.3535441596	 0.7619819791	 0.108665
H	-0.0950402421	-3.2628118694	-0.6155581304	 0.152404
H	-0.0371730738	-2.9182941144	 1.1389931824	 0.151791
H	-3.4111223806	-2.2172816639	 1.1491902148	 0.158829
H	-3.5087997636	-2.5589601588	-0.6000720237	 0.157807
20.9434	96.7298	122.891	134.2235	170.2225	318.2178	373.8398	439.8535	447.0615	448.6036	558.2312	575.3227	710.0287	773.0641	781.3836	910.8369	1016.6228	1032.2265	1043.8909	1061.274	1103.5777	1142.2203	1160.9317	1168.9408	1249.2313	1265.4776	1284.7189	1311.1877	1430.4169	1463.5359	1484.0668	1492.0901	1512.7599	1755.0454	1940.0911	2967.322	2985.265	3025.1407	3042.2185	3074.4052	3088.381	3650.5966
OCC(=O)N1CC(=O)C1	OCC(=O)N1CC(=O)C1	
InChI=1S/C5H7NO3/c7-3-5(9)6-1-4(8)2-6/h7H,1-3H2	InChI=1S/C5H7NO3/c7-3-5(9)6-1-4(8)2-6/h7H,1-3H2
