22
gdb 117939	2.74965	0.82971	0.68368	3.7947	81.07	-0.2535	0.0207	0.2742	1731.2978	0.192046	-441.496778	-441.485871	-441.484926	-441.53352	38.791	
C	 0.0483097798	 1.3073404652	-0.6889196547	-0.384223
C	-0.0246214889	-0.0580676808	-0.0009831726	-0.165861
C	-1.3931656441	-0.7276192033	-0.1526910815	-0.172482
C	-1.4726337482	-2.0711292616	 0.5966979114	 0.063874
O	-1.2253700447	-1.9004614339	 1.9709588581	-0.440879
C	-2.82618969	-2.7292903005	 0.3877469075	 0.392093
N	-3.6064456872	-2.8761238463	 1.3768287482	-0.564059
O	-3.012773315	-3.074867831	-0.9042108879	-0.222912
C	-4.2518110452	-3.6788929139	-1.2536421698	-0.266521
H	 1.036509772	 1.76190427	-0.5666036793	 0.11083
H	-0.1492410764	 1.2246056576	-1.7638989019	 0.108766
H	-0.6901165534	 2.0009044344	-0.2711548299	 0.113263
H	 0.74846492	-0.7200351901	-0.4142587448	 0.089734
H	 0.1964416056	 0.0454784495	 1.0661857347	 0.120879
H	-2.1757440182	-0.0690879764	 0.2469454428	 0.095197
H	-1.6191756015	-0.8967277281	-1.2121642825	 0.098106
H	-0.7133588794	-2.7486349299	 0.1737241211	 0.088975
H	-2.0577910137	-2.1341533427	 2.4127942756	 0.293031
H	-4.4962398067	-3.3165010386	 1.159695108	 0.224727
H	-4.3972302286	-4.6242022969	-0.7176506057	 0.135146
H	-5.093776032	-3.0086767858	-1.0441711283	 0.134998
H	-4.2018822741	-3.8744161772	-2.3249950187	 0.147319
54.9585	83.7535	91.4483	106.1369	165.0342	211.8933	228.3671	248.8736	305.9076	329.8113	380.4585	414.9178	423.8782	518.8497	646.7147	710.8356	753.1627	839.5986	855.1465	896.0834	923.7944	976.6543	1007.5134	1049.9749	1102.6004	1117.7744	1130.6874	1169.3632	1175.0836	1220.2704	1254.479	1260.7722	1299.9805	1328.3641	1348.013	1373.4433	1388.9805	1411.9652	1457.8351	1476.5048	1480.8558	1492.543	1495.1723	1499.6989	1504.5951	1511.4198	1730.4831	2978.6475	3015.3193	3019.473	3024.0315	3028.1528	3063.3674	3078.0154	3084.8963	3098.7938	3100.3192	3148.98	3532.2336	3671.6669
CCCC(O)C(=N)OC	CCC[C@@H](O)[C]([NH])OC	
InChI=1S/C6H13NO2/c1-3-4-5(8)6(7)9-2/h5,7-8H,3-4H2,1-2H3	InChI=1S/C6H13NO2/c1-3-4-5(8)6(7)9-2/h5,7-8H,3-4H2,1-2H3/t5-/m1/s1
