17
gdb 62250	5.95774	0.56793	0.53439	3.0252	71.41	-0.2719	-0.0467	0.2251	1924.7971	0.133926	-455.139018	-455.129111	-455.128167	-455.175493	33.695	
O	-0.0708302051	 1.3319687257	-0.0977837277	-0.417614
C	 0.0031596964	-0.0672270179	 0.0288320353	-0.016283
C	 0.6879430137	-0.6903422181	-1.2081660532	-0.168116
N	 0.0036444165	-0.1877224787	-2.3967937151	-0.329227
C	 0.7278878452	-0.3540750474	-3.6515005048	-0.229312
C	 0.0815425465	 0.4650642103	-4.7593067385	 0.149145
O	 0.084864836	 0.1516176579	-5.9188356446	-0.223328
C	 0.7494025547	-0.4111903038	 1.2483419784	 0.28715
N	 1.3364993632	-0.7247820165	 2.1919050385	-0.311148
H	-0.2053247534	 1.4737254539	-1.0488957718	 0.290152
H	-1.0042427385	-0.5084260483	 0.1329195585	 0.112572
H	 1.725206989	-0.3424970318	-1.2395141363	 0.139414
H	 0.7019911165	-1.7868739323	-1.1218490421	 0.119585
H	-0.9128181074	-0.6205071424	-2.4717506535	 0.235832
H	 1.7418950811	 0.048886749	-3.5157012435	 0.146975
H	 0.8366682774	-1.3937102195	-3.9935878025	 0.126675
H	-0.3923618018	 1.4060710999	-4.3985328872	 0.08753
43.9766	63.7368	81.9939	108.4739	154.2327	211.3494	257.2998	308.7163	367.4971	445.9854	511.3481	554.9379	575.9734	597.6286	753.6261	828.3838	881.0077	956.9659	1012.4657	1035.0022	1069.706	1124.4971	1138.7278	1155.2878	1210.8729	1296.2466	1303.4899	1314.6159	1350.2674	1382.3363	1410.248	1449.6227	1469.8946	1496.1548	1504.6538	1845.1747	2368.7999	2883.3562	2946.5239	2997.0075	3000.6143	3042.9846	3088.4868	3502.9163	3683.4848
OC(CNCC=O)C#N	O[C@@H](CNCC=O)C#N	
InChI=1S/C5H8N2O2/c6-3-5(9)4-7-1-2-8/h2,5,7,9H,1,4H2	InChI=1S/C5H8N2O2/c6-3-5(9)4-7-1-2-8/h2,5,7,9H,1,4H2/t5-/m1/s1
