17
gdb 46813	2.60212	1.6024	1.15868	3.4245	79.59	-0.2386	-0.0155	0.223	1074.4187	0.135747	-384.680453	-384.672453	-384.671509	-384.712848	31.191	
O	 0.0139475704	 0.007098982	 0.082735007	-0.306788
C	-0.0127165655	 1.2047856618	-0.0166446908	 0.349044
C	-1.2761088646	 2.066570283	-0.1690619066	-0.343261
C	-0.8143935125	 3.3658827923	-0.857470507	-0.229926
C	 0.6766345952	 3.4844143467	-0.5500730111	-0.078901
C	 1.0934663722	 3.329669058	 0.868209705	-0.315024
C	 1.1931474101	 2.1164095135	-0.0768193216	 0.055241
C	 2.4756423268	 1.5866148005	-0.4137604553	 0.186732
C	 3.553428196	 1.1381625079	-0.7015679546	-0.384447
H	-2.0288194551	 1.5114270963	-0.7312475629	 0.136608
H	-1.6980021033	 2.2489936831	 0.8261804079	 0.133812
H	-0.9545561401	 3.2874875692	-1.9402260204	 0.1183
H	-1.3702514457	 4.2464434915	-0.520041806	 0.111107
H	 1.3022314432	 4.0731197834	-1.2102326137	 0.111425
H	 2.0497170485	 3.7418643586	 1.1663078796	 0.141091
H	 0.3461417001	 3.3051169622	 1.654660574	 0.125754
H	 4.5017288142	 0.7333960901	-0.9545757934	 0.189233
103.3821	134.4547	164.6893	241.6579	364.0719	395.3802	457.8001	504.5798	553.7849	585.1934	603.0217	643.0455	652.3899	657.8441	808.9786	816.2871	873.8264	882.2134	948.1622	986.1579	1027.473	1046.5508	1067.6981	1085.0823	1107.9998	1175.9835	1222.3436	1256.5008	1276.9172	1308.8368	1335.6472	1394.8262	1461.1674	1488.9389	1503.1538	1840.5586	2242.0569	3047.1073	3050.5042	3086.6448	3122.0595	3137.839	3187.8173	3231.3907	3503.9541
O=C1CCC2CC12C#C	O=C1CC[C@H]2C[C@@]12C#C	
InChI=1S/C8H8O/c1-2-8-5-6(8)3-4-7(8)9/h1,6H,3-5H2	InChI=1S/C8H8O/c1-2-8-5-6(8)3-4-7(8)9/h1,6H,3-5H2/t6-,8+/m0/s1
