19
gdb 39228	2.53413	2.22495	1.59255	1.1366	78.53	-0.2077	0.0118	0.2195	899.2946	0.162584	-385.851673	-385.845156	-385.844212	-385.881979	28.36	
C	-0.0037741826	 1.4880045195	 0.0791172016	-0.438618
C	 1.3198235038	 0.7665295233	 0.001083374	 0.104837
O	 2.1608558854	 0.4410954157	 1.0685546166	-0.257232
C	 2.3958202323	-0.9868279555	 1.0365081817	-0.079543
C	 1.0712334366	-1.8213504861	 0.8867882332	-0.085
C	-0.054307475	-0.8419800185	 1.2734015565	-0.247295
C	 0.0238640193	-0.0133617903	-0.0133074493	 0.281086
C	 0.0017817367	-1.0757121081	-1.0825916341	-0.178233
C	 0.6612075775	-2.1221168092	-0.5702605776	-0.084865
H	-0.346295208	 1.9009352017	 1.0226329809	 0.122497
H	-0.2538415615	 2.0927860564	-0.787498697	 0.117404
H	 1.8399695857	 0.8601459203	-0.953696346	 0.078664
H	 3.1024308482	-1.2251566087	 0.2286302495	 0.095761
H	 2.8757676474	-1.2122638892	 1.9922506722	 0.109251
H	 1.1411477173	-2.7219823345	 1.5018871994	 0.065883
H	-1.0206675299	-1.3458002144	 1.3588220997	 0.095007
H	 0.1468938162	-0.2717621318	 2.1812776151	 0.106189
H	-0.3919482756	-0.9684340921	-2.0853303893	 0.099913
H	 0.8981030162	-3.0477166084	-1.0805308974	 0.094296
234.8798	267.7165	345.0433	393.0252	446.0333	474.7086	556.7043	596.5612	618.1848	722.7148	784.7039	790.924	821.2302	848.5999	863.5462	895.1583	918.5782	931.0734	966.8182	982.2207	1040.921	1046.9894	1062.6329	1075.3895	1099.952	1121.8317	1164.3434	1172.7209	1208.9361	1242.7769	1279.2298	1303.3078	1306.3751	1318.2039	1371.7277	1376.1965	1427.0586	1475.9214	1492.2453	1496.4986	1626.8953	3000.2169	3064.593	3075.1396	3082.9465	3096.2286	3121.9301	3129.2944	3196.5741	3208.3216	3222.5217
C1C2OCC3CC12C=C3	C1[C@H]2OC[C@H]3C[C@@]12C=C3	
InChI=1S/C8H10O/c1-2-8-3-6(1)5-9-7(8)4-8/h1-2,6-7H,3-5H2	InChI=1S/C8H10O/c1-2-8-3-6(1)5-9-7(8)4-8/h1-2,6-7H,3-5H2/t6-,7-,8+/m1/s1
