20
gdb 8884	3.70708	1.15068	0.93259	2.8175	72.23	-0.2625	-0.0235	0.239	1298.4766	0.174298	-386.171978	-386.162088	-386.161144	-386.207242	34.954	
C	-0.1136691115	 1.6180620202	-0.1178749046	-0.381972
C	-0.237462075	 0.0940667307	-0.1770135473	-0.18984
C	 0.8465036722	-0.5370004923	-1.0733606874	 0.055282
O	 2.1280483472	-0.1679228064	-0.6381019832	-0.439359
C	 0.7419719842	-2.065591901	-1.1178134102	 0.360867
O	 1.6975096255	-2.7249288008	-0.7604171367	-0.328854
C	-0.5422917947	-2.7022259284	-1.6111380633	-0.283467
C	-0.4062559344	-4.1952389561	-1.9079861348	-0.380066
H	 0.8774887925	 1.9048761573	 0.2404390957	 0.144598
H	-0.2567074381	 2.0635435755	-1.1087478075	 0.112486
H	-0.8639032992	 2.0454640504	 0.5540588018	 0.110431
H	-0.1389000936	-0.3283661953	 0.8307729691	 0.105315
H	-1.2283915811	-0.1872116867	-0.5524435031	 0.094963
H	 0.6868288212	-0.1775665135	-2.1067857469	 0.083075
H	 2.5833020426	-1.0077325855	-0.4601469576	 0.291795
H	-1.3058608267	-2.5307560946	-0.8394897542	 0.138112
H	-0.8942823191	-2.1453689533	-2.4888906345	 0.12307
H	 0.3252724372	-4.3721037953	-2.7011958121	 0.130209
H	-0.0653387017	-4.7367884313	-1.0229466547	 0.139028
H	-1.3656174675	-4.6124104337	-2.2253699885	 0.114329
51.2152	69.9489	107.3943	152.7748	197.8234	235.2103	239.4708	309.0982	359.7902	390.7398	448.6315	498.3587	559.4176	689.869	757.5064	784.4384	853.2385	918.6523	989.2537	1002.381	1042.4173	1045.5267	1084.4412	1128.8837	1140.6958	1188.555	1256.1773	1287.4182	1294.5671	1344.6059	1371.3214	1378.4778	1407.1523	1413.4959	1440.7286	1451.2123	1477.124	1493.7988	1494.7304	1500.0333	1509.7116	1786.546	2937.0274	3020.8662	3027.3778	3037.6316	3052.6017	3054.9396	3068.9048	3102.9119	3122.3943	3132.19	3134.2652	3663.9515
CCC(O)C(=O)CC	CC[C@@H](O)C(=O)CC	
InChI=1S/C6H12O2/c1-3-5(7)6(8)4-2/h5,7H,3-4H2,1-2H3	InChI=1S/C6H12O2/c1-3-5(7)6(8)4-2/h5,7H,3-4H2,1-2H3/t5-/m1/s1
