21
gdb 52403	5.43955	0.56806	0.55396	4.3145	81.07	-0.2758	0.0105	0.2864	2003.2087	0.181881	-424.240124	-424.230478	-424.229534	-424.276651	33.949	
O	 0.2275241396	 0.0878416207	 0.1523931786	-0.275676
C	 0.307808148	 1.268852285	 0.3099692198	 0.169918
O	 0.6644463924	 2.1150832181	-0.6715514305	-0.173018
C	 0.7680983225	 3.5117236307	-0.3589318296	-0.086721
C	 2.2271088195	 3.9545010865	-0.340304763	-0.222341
C	 2.3764913021	 5.4506455427	-0.0951042752	 0.054247
C	 2.0354472099	 6.039229307	 1.3070163994	-0.222397
C	 3.2558208576	 6.9872698179	 1.1616612386	-0.209656
C	 3.8050830424	 6.0457272798	 0.0565067436	-0.235833
H	 0.0934071723	 1.7878215333	 1.2660588581	 0.073204
H	 0.2071655302	 4.0425981531	-1.1345947993	 0.124126
H	 0.282400847	 3.7144271582	 0.6047860982	 0.113402
H	 2.7609544698	 3.3948268652	 0.4389042008	 0.100685
H	 2.6881820469	 3.6797197276	-1.2968006838	 0.116682
H	 1.8300675807	 6.0068175926	-0.8672891082	 0.072638
H	 1.0503185322	 6.4899043148	 1.4520403017	 0.096565
H	 2.1972243842	 5.2963817352	 2.0961620081	 0.098008
H	 2.9652465262	 7.9608006739	 0.7567234325	 0.104892
H	 3.8781412058	 7.1520219004	 2.0438536762	 0.100159
H	 4.4992310786	 5.3050156889	 0.4672242965	 0.101756
H	 4.2639443721	 6.4979713383	-0.8259898225	 0.09936
35.5718	50.0792	92.731	114.1061	158.6759	193.6705	304.9412	337.8955	403.9762	440.9957	622.4645	683.8548	766.2697	789.1324	789.7516	896.4904	934.1426	941.6679	971.3658	985.8118	1012.3461	1043.9951	1050.3039	1097.757	1115.0878	1148.0915	1189.0839	1205.1938	1242.7549	1256.9533	1262.8028	1275.136	1279.7546	1298.7793	1319.151	1335.7425	1389.0415	1408.6909	1434.1155	1477.9207	1485.0142	1488.9085	1508.296	1512.041	1866.3165	2933.5429	3018.9133	3020.065	3028.3156	3041.1191	3049.8862	3060.6136	3062.1468	3088.5796	3095.8805	3101.6467	3119.0329
O=COCCC1CCC1	O=COCCC1CCC1	
InChI=1S/C7H12O2/c8-6-9-5-4-7-2-1-3-7/h6-7H,1-5H2	InChI=1S/C7H12O2/c8-6-9-5-4-7-2-1-3-7/h6-7H,1-5H2
