20
gdb 10428	2.55104	1.82418	1.35422	2.6148	75.	-0.2451	-0.0194	0.2256	1016.5496	0.175885	-349.009667	-349.000839	-348.999895	-349.043476	32.169	
C	 0.0572435189	 1.7848948679	-0.2134104186	-0.393494
C	 0.1048128401	 0.2906663962	 0.1330406918	-0.257791
C	-1.2240483027	-0.4712853702	-0.0116195041	 0.245332
C	-1.8265830691	-0.5624428369	-1.4611019491	-0.265032
C	-2.0843056288	-2.0741188198	-1.2233448585	-0.209431
C	-1.1583492162	-2.0235765937	 0.0217398982	-0.267485
C	-2.2791578316	 0.0738517728	 0.9269560444	 0.115761
O	-2.8790393111	-0.5656743007	 1.7549104136	-0.255565
H	 1.0650366552	 2.2106405266	-0.1970058437	 0.119837
H	-0.3537684761	 1.9481293636	-1.2154086733	 0.121819
H	-0.5489220015	 2.3591211635	 0.4930694551	 0.123272
H	 0.8301498588	-0.2021891255	-0.5260515081	 0.101005
H	 0.4847416747	 0.1574390587	 1.1545098492	 0.107663
H	-2.6914025517	 0.0689813821	-1.6868810831	 0.101558
H	-1.0583411877	-0.3741225754	-2.2171116868	 0.103837
H	-3.1231486453	-2.2781525592	-0.9533818052	 0.116595
H	-1.7967513885	-2.750533805	-2.0306982568	 0.099625
H	-0.1494035558	-2.3897260566	-0.1858497504	 0.093433
H	-1.5326516025	-2.4863380894	 0.9356731053	 0.122513
H	-2.5035452192	 1.1555628708	 0.7842718904	 0.076549
53.456	94.9725	112.9707	198.5979	259.8842	273.9718	321.1143	338.9922	401.5787	580.4948	625.6181	729.4651	779.6789	795.8572	867.25	882.9876	919.2851	948.0688	976.8134	1002.6039	1024.1252	1056.1672	1082.1909	1146.5966	1181.808	1204.296	1219.1044	1255.8562	1265.3021	1279.9142	1287.1411	1331.5678	1369.0934	1413.2383	1433.0719	1469.4877	1478.7269	1488.4664	1502.0377	1503.6277	1509.6214	1816.8642	2870.2031	3017.4345	3039.9929	3044.7356	3051.0988	3065.8318	3069.6272	3091.66	3105.1957	3112.3861	3118.9818	3135.4853
CCC1(CCC1)C=O	CCC1(CCC1)C=O	
InChI=1S/C7H12O/c1-2-7(6-8)4-3-5-7/h6H,2-5H2,1H3	InChI=1S/C7H12O/c1-2-7(6-8)4-3-5-7/h6H,2-5H2,1H3
