20
gdb 87690	2.59819	1.2449	1.03334	2.0269	81.95	-0.238	-0.0279	0.21	1261.7832	0.169594	-403.143478	-403.134046	-403.133102	-403.178013	34.663	
C	 0.1385835806	 1.4517209119	-0.4641861474	-0.392777
C	 0.1836662588	-0.029293825	-0.1860487979	-0.060326
N	 1.5040014703	-0.645608635	-0.0731562173	-0.380252
C	 0.6665432401	-0.563365543	 1.1264149848	 0.246364
C	 0.981274863	 0.1323567559	 2.4599670359	-0.353559
C	 0.241468815	-1.0263635559	 3.219733094	-0.102464
C	-1.0396996507	-0.6764930293	 3.9734902203	-0.399906
C	 0.0418995055	-1.7221091656	 1.8532747333	 0.333337
O	-0.3944295695	-2.7838630162	 1.4995331014	-0.327751
H	 0.9634977237	 1.9645324967	 0.0367187889	 0.131873
H	 0.225770569	 1.6419801704	-1.5391471586	 0.128353
H	-0.8065220981	 1.8854448564	-0.1204949038	 0.120109
H	-0.5992892821	-0.6230104148	-0.657014475	 0.104243
H	 1.4842718414	-1.6040157647	-0.4201563716	 0.245694
H	 2.048712917	 0.2010684593	 2.6782420316	 0.11844
H	 0.5267801599	 1.1187483509	 2.5837460554	 0.108045
H	 0.909548267	-1.6112321303	 3.8616531826	 0.103394
H	-1.7172990701	-0.0852698386	 3.348047422	 0.118889
H	-1.568930378	-1.5848397738	 4.2765409027	 0.135586
H	-0.8176803028	-0.0931135394	 4.8725453087	 0.122708
47.1287	123.7559	166.8631	184.0864	204.2589	213.7785	255.1463	314.6159	375.5913	452.8352	521.4409	559.8077	711.4271	731.1849	764.4859	825.6089	862.8035	910.0469	929.7999	965.1819	1027.4143	1048.7881	1070.8362	1078.9347	1097.7185	1119.875	1138.3395	1176.7951	1205.3836	1239.856	1246.3861	1262.7865	1316.2169	1351.6839	1406.8445	1408.3868	1459.4021	1484.4386	1486.9127	1495.8953	1496.8513	1498.591	1868.3545	3033.4987	3036.4958	3050.167	3067.8708	3099.6353	3101.7056	3110.6624	3111.8385	3122.8348	3129.4412	3472.4671
CC1NC11CC(C)C1=O	C[C@H]1N[C@]21C[C@@H](C)C2=O	
InChI=1S/C7H11NO/c1-4-3-7(6(4)9)5(2)8-7/h4-5,8H,3H2,1-2H3	InChI=1S/C7H11NO/c1-4-3-7(6(4)9)5(2)8-7/h4-5,8H,3H2,1-2H3/t4-,5-,7+/m1/s1
