21
gdb 74962	2.35434	1.85665	1.42918	1.2214	83.21	-0.2288	0.0204	0.2491	1033.046	0.183365	-387.106506	-387.098315	-387.097371	-387.138533	33.115	
C	-0.0293768624	 1.508615707	 0.0143709618	-0.516229
C	-0.0956245965	 0.0182653955	-0.031381086	 0.324332
C	-0.0640224816	-0.8009834992	-1.0910580714	-0.197781
C	 0.0328717759	-2.2252595183	-0.5750464293	-0.100343
C	 1.4308865702	-2.3226849064	 0.108582388	-0.069404
O	 1.3261815816	-1.4395607822	 1.2288467353	-0.309218
C	-0.0376659468	-0.8954578259	 1.2024903966	 0.331222
C	-0.3422037219	-0.310214211	 2.5600696595	-0.49113
C	-0.8327087622	-2.1144098324	 0.7042582279	-0.249509
H	 0.8779393307	 1.8447054925	 0.5323565659	 0.135496
H	-0.0200619341	 1.9366329636	-0.9921056897	 0.122346
H	-0.8782624255	 1.9401175086	 0.559061544	 0.123958
H	 0.020773611	-0.5142080967	-2.1328295216	 0.088945
H	-0.1873011427	-3.0281950765	-1.2780882606	 0.064224
H	 1.6397499642	-3.3412011799	 0.4616908338	 0.093107
H	 2.2445899772	-2.003296556	-0.553042371	 0.093244
H	 0.3569916557	 0.4952797962	 2.8035840014	 0.125886
H	-1.3577731988	 0.0965147645	 2.5857361744	 0.116405
H	-0.2539252989	-1.0787916799	 3.3327591441	 0.124136
H	-1.8796551645	-1.894208706	 0.4895393262	 0.097741
H	-0.7511614907	-2.9703261173	 1.3818372107	 0.092571
150.9168	191.4473	205.0831	237.6186	276.3656	310.596	384.8244	444.3378	494.5381	562.0859	587.6395	641.9359	717.3685	801.5688	819.9318	843.2502	869.847	890.9345	931.7845	944.387	979.8933	998.1618	1032.7057	1045.1641	1062.4466	1090.9376	1111.614	1168.377	1198.7545	1210.4665	1234.655	1259.6332	1291.2325	1302.6293	1345.4838	1359.5276	1410.1231	1416.5491	1476.1919	1480.9849	1487.2784	1487.889	1497.5123	1522.0119	1688.9437	3008.9978	3017.5479	3042.1259	3052.9456	3056.2179	3064.7177	3106.0244	3112.6897	3117.9561	3119.8274	3126.9039	3196.2087
CC1=CC2COC1(C)C2	CC1=C[C@H]2CO[C@]1(C)C2	
InChI=1S/C8H12O/c1-6-3-7-4-8(6,2)9-5-7/h3,7H,4-5H2,1-2H3	InChI=1S/C8H12O/c1-6-3-7-4-8(6,2)9-5-7/h3,7H,4-5H2,1-2H3/t7-,8-/m1/s1
