20
gdb 94373	2.9329	1.43203	1.25338	2.5434	77.89	-0.2394	0.0752	0.3146	1088.9081	0.170878	-403.084018	-403.075815	-403.074871	-403.116868	31.773	
C	-0.375129633	 1.4266060296	-0.0365102035	-0.40894
C	 0.1224882696	-0.0048581156	-0.0598653886	 0.115764
O	 1.3778635734	-0.1287536504	-0.7720105033	-0.300544
C	 2.0008437042	-0.7973428141	 0.3428087973	-0.133642
C	 0.7491462491	-0.6265062127	 1.2124004548	 0.275737
C	 0.8213358357	 0.0408341809	 2.6085674334	-0.342045
C	 0.1549819244	-1.2225061886	 3.1417582018	-0.014885
C	-1.0988096192	-1.5050706412	 2.4214901817	-0.241268
N	 0.1733130415	-1.8947282982	 1.7765836651	-0.164467
H	 0.347769109	 2.0871922342	 0.4517656291	 0.120848
H	-0.5224292664	 1.7820618257	-1.0611509515	 0.131516
H	-1.3326688277	 1.5028546918	 0.4901055346	 0.114725
H	-0.6362018088	-0.6719818015	-0.4951072846	 0.079731
H	 2.2375041647	-1.8460874645	 0.1259114785	 0.111713
H	 2.9055713605	-0.2767411924	 0.6816249696	 0.096794
H	 1.8527041591	 0.1660802105	 2.9465701406	 0.114234
H	 0.2845360387	 0.981473141	 2.7643710012	 0.107358
H	 0.4446828373	-1.7594241919	 4.0388333297	 0.098024
H	-1.6849902372	-2.3616406469	 2.7390927285	 0.124301
H	-1.6827649649	-0.6895254857	 1.9993069155	 0.115046
68.498	141.0876	178.0131	237.2514	268.8852	340.9166	403.6725	452.0309	489.6631	517.4002	754.3535	763.489	786.9562	821.7274	869.9575	888.2212	911.9165	948.6153	1000.564	1021.6036	1025.7207	1054.1745	1062.6468	1092.8874	1107.8387	1132.4295	1144.7032	1156.6189	1182.7481	1205.9634	1218.4846	1262.6424	1279.2746	1287.3615	1362.5907	1364.9405	1374.8398	1403.3287	1479.3455	1485.0608	1492.038	1502.8502	1514.574	2993.7923	3011.8664	3033.6656	3050.8407	3061.4835	3103.9144	3105.5992	3107.5153	3113.3283	3167.5075	3199.1906
CC1OCC11CC2CN12	C[C@H]1OC[C@]21C[C@H]1CN21	
InChI=1S/C7H11NO/c1-5-7(4-9-5)2-6-3-8(6)7/h5-6H,2-4H2,1H3	InChI=1S/C7H11NO/c1-5-7(4-9-5)2-6-3-8(6)7/h5-6H,2-4H2,1H3/t5-,6+,7+,8?/m1/s1
