17
gdb 51533	7.30103	0.66851	0.6418	4.7969	75.24	-0.2501	0.0082	0.2583	1678.5426	0.135061	-455.141513	-455.132298	-455.131354	-455.178517	30.908	
N	-0.3616885063	 1.3210982783	 0.2233724802	-0.431968
C	-0.1457333366	 0.0912612388	 0.0607893534	 0.120382
O	-1.1848303008	-0.7733903016	 0.0136369153	-0.183529
C	-0.8986719531	-2.151491906	-0.030886076	 0.105185
C	-1.2756318801	-2.9523686125	 1.2540839397	-0.207457
N	-2.1670495081	-3.7574797887	 0.4174096661	-0.04709
C	-1.964733757	-2.9749973801	-0.8009235186	-0.195611
C	-2.8712569216	-4.8933745113	 0.6139993012	 0.133782
O	-3.5227565048	-5.4510489943	-0.2447772648	-0.326463
H	 0.5161449261	 1.835784943	 0.2111119033	 0.235188
H	 0.8311160928	-0.396040268	-0.0668010048	 0.090704
H	 0.1272430317	-2.3245189577	-0.3691652831	 0.100301
H	-0.4627118626	-3.5075373911	 1.7337856639	 0.122373
H	-1.7911466641	-2.3337949096	 1.9970853817	 0.135846
H	-2.834614199	-2.3788517418	-1.094176048	 0.143232
H	-1.6133457814	-3.5566824677	-1.6575684964	 0.133258
H	-2.7808217253	-5.2621582798	 1.6565247671	 0.07187
18.3852	28.0421	88.8638	111.6816	177.2023	253.1675	314.1817	364.0022	407.4739	546.6464	593.9131	787.1379	819.4723	850.4366	878.8465	955.7501	1008.3341	1019.8157	1033.417	1041.8951	1111.119	1135.7895	1159.8806	1184.6092	1203.1837	1258.6366	1282.3492	1286.6994	1315.0734	1392.4201	1404.6555	1431.7666	1456.8845	1497.9845	1517.087	1750.1661	1793.2909	2923.4011	3019.0289	3032.1232	3052.3217	3062.8342	3086.1816	3105.2772	3523.5437
N=COC1CN(C1)C=O	[NH][CH]OC1CN(C1)C=O	
InChI=1S/C5H8N2O2/c6-3-9-5-1-7(2-5)4-8/h3-6H,1-2H2	InChI=1S/C5H8N2O2/c6-3-9-5-1-7(2-5)4-8/h3-6H,1-2H2
