18
gdb 119812	5.7347	0.79734	0.71136	4.3197	76.1	-0.2263	0.0092	0.2356	1571.322	0.148479	-435.326701	-435.317658	-435.316714	-435.3612	32.751	
C	 0.0999698275	 1.5177101885	 0.0750531356	-0.400831
C	-0.1017065526	 0.0144420277	-0.0768431628	-0.107326
N	 0.6625458537	-0.4929275294	-1.2145858994	-0.398592
C	 0.7712505083	-1.8434846178	-1.392467361	 0.504394
N	 0.4094498487	-2.7466984446	-0.5539833084	-0.340044
C	 0.8007114068	-4.024561464	-1.1426742482	-0.295195
C	 1.461737363	-3.7095266044	-2.4920899742	 0.400248
O	 1.9613966804	-4.4379940298	-3.3122181252	-0.361318
N	 1.363591636	-2.323139638	-2.5682833472	-0.40519
H	 1.1559301586	 1.7595173046	 0.2269844901	 0.130403
H	-0.2498946229	 2.0600468642	-0.8114650591	 0.113668
H	-0.4673065179	 1.8902956591	 0.9322224082	 0.128971
H	 0.2494185125	-0.5208580182	 0.8084347354	 0.144877
H	-1.1698280386	-0.2246406972	-0.1806633447	 0.110106
H	 0.5838528442	 0.051296577	-2.0615615162	 0.237087
H	 1.5045154094	-4.5738714575	-0.5053228276	 0.139353
H	-0.0648084432	-4.6808838198	-1.2945668691	 0.139437
H	 1.816039826	-1.7758711103	-3.2827479062	 0.259951
48.0395	82.7379	135.2995	177.7579	251.6453	286.5018	339.5631	361.0813	415.7807	493.0299	530.9524	563.2859	680.1896	729.3699	763.7343	807.1402	890.5673	918.1352	983.5456	987.7361	1058.3533	1106.0981	1146.092	1169.9614	1182.301	1210.085	1257.9125	1292.1992	1294.3536	1368.2995	1412.667	1427.0815	1455.9293	1493.0016	1497.9566	1523.5517	1547.2442	1715.7543	1856.8172	3005.5375	3033.1878	3034.9032	3063.7878	3091.6545	3113.1356	3123.7549	3598.7473	3648.2443
CCNC1=NCC(=O)N1	CCNC1=NCC(=O)N1	
InChI=1S/C5H9N3O/c1-2-6-5-7-3-4(9)8-5/h2-3H2,1H3,(H2,6,7,8,9)	InChI=1S/C5H9N3O/c1-2-6-5-7-3-4(9)8-5/h2-3H2,1H3,(H2,6,7,8,9)
