19
gdb 95670	3.41392	1.22609	0.94582	5.3081	86.07	-0.196	-0.0063	0.1898	1247.8829	0.161341	-419.217302	-419.208785	-419.207841	-419.250637	31.88	
C	-0.1268967369	 1.0460485701	-1.2474875009	-0.337432
N	-0.1150306362	 0.3565514796	 0.0296954834	-0.069364
C	-1.3260842784	-0.3667571873	 0.3665781392	-0.162324
C	-1.4365125708	-0.6774109458	 1.8558758975	-0.104332
O	-0.7364932833	-1.8469061825	 2.2460441378	-0.258092
C	 0.6370727981	-1.8226934298	 2.3290962824	 0.329586
N	 1.2332622093	-2.6856848949	 3.0558844083	-0.529053
C	 1.4135809442	-0.8512746101	 1.5715394209	-0.175265
C	 1.0875116558	 0.0217029129	 0.590087752	 0.014568
H	 0.7683585866	 1.6644610576	-1.3431063757	 0.13725
H	-0.15860113	 0.3526246961	-2.1023420255	 0.124444
H	-1.00323754	 1.7000727952	-1.310561271	 0.128639
H	-2.1770517847	 0.2598170979	 0.0738332177	 0.109276
H	-1.4075339673	-1.31254202	-0.194424956	 0.116498
H	-1.1177020293	 0.1895318674	 2.4478091098	 0.123206
H	-2.4829695982	-0.887384936	 2.0923618073	 0.120918
H	 0.538863099	-3.2740005422	 3.5196564953	 0.210672
H	 2.4633924796	-0.8899680525	 1.8324233505	 0.109476
H	 1.9071185124	 0.5980753642	 0.1696564071	 0.11133
83.7095	106.5119	154.7345	201.0858	291.3286	328.8856	364.0801	406.9961	430.4598	486.4839	590.9149	696.4311	724.6973	788.8139	811.6887	872.6669	885.8346	917.4635	974.174	997.2345	1068.7952	1093.0515	1096.1412	1152.5012	1165.8014	1210.5948	1245.5954	1277.0374	1331.2552	1339.9379	1393.6962	1418.6825	1421.4408	1455.5637	1474.1067	1482.4196	1492.916	1495.8989	1527.8065	1677.4066	1709.9428	2971.114	2984.2941	3032.7603	3052.5657	3063.7812	3100.3295	3121.5667	3163.7715	3213.9877	3471.5912
CN1CCOC(=N)C=C1	CN1CCOC(=C[CH]1)[NH]	
InChI=1S/C6H10N2O/c1-8-3-2-6(7)9-5-4-8/h2-3,7H,4-5H2,1H3	InChI=1S/C6H10N2O/c1-8-3-2-6(7)9-5-4-8/h2-3,7H,4-5H2,1H3
