18
gdb 50172	4.73026	1.13167	1.08139	4.0589	80.39	-0.2428	0.0219	0.2646	1146.0077	0.148711	-401.843489	-401.8363	-401.835356	-401.875338	28.513	
O	 0.1118423334	-0.0477239328	 0.78446055	-0.32527
C	 0.0315698699	 1.122425555	 0.4788720313	 0.135333
N	 0.9933643729	 1.8203246725	-0.1802201717	-0.081127
C	 2.4352680223	 1.4373367546	-0.3764091818	-0.279912
C	 2.5917053488	 2.8835397959	-0.9153365688	 0.242109
C	 2.9923569145	 4.3939020938	-0.886358011	-0.310065
C	 1.4532918892	 4.3261368225	-1.3266462399	-0.092757
C	 1.853774749	 3.1764793632	-2.2636007263	-0.230884
C	 1.316049663	 3.2718630904	-0.1686042092	 0.014713
H	-0.8565548542	 1.7554330032	 0.6871590072	 0.070795
H	 2.9242508885	 1.2159434426	 0.5780913189	 0.129593
H	 2.6000837052	 0.6221107784	-1.0835264149	 0.134263
H	 3.2070167414	 4.8252074015	 0.0941076745	 0.108562
H	 3.6825415773	 4.7595764249	-1.6507310895	 0.108211
H	 0.8207110969	 5.1881763985	-1.55356534	 0.080141
H	 2.4934997509	 3.4361184431	-3.1101498204	 0.094333
H	 1.0670976072	 2.4766431047	-2.5464084077	 0.111902
H	 1.3993116537	 3.6629531081	 0.8497317892	 0.090059
69.5093	174.7535	264.6818	334.09	359.3913	423.8494	470.4418	560.9801	638.4199	735.1559	776.8716	813.2914	844.135	878.7597	905.2418	924.2936	998.6629	1000.5667	1016.3084	1035.4828	1041.5685	1081.8593	1102.61	1111.5649	1130.111	1157.6425	1187.3667	1194.5127	1206.4853	1229.1463	1247.4893	1276.017	1354.9262	1369.0913	1421.8886	1493.2361	1497.5578	1527.7653	1794.1614	2916.6485	3050.1663	3056.1848	3059.2098	3066.5461	3082.0512	3121.9881	3131.5538	3142.1604
O=CN1CC23CC(C2)C13	O=CN1C[C@@]23C[C@@H](C2)[C@@H]13	
InChI=1S/C7H9NO/c9-4-8-3-7-1-5(2-7)6(7)8/h4-6H,1-3H2	InChI=1S/C7H9NO/c9-4-8-3-7-1-5(2-7)6(7)8/h4-6H,1-3H2/t5-,6-,7+/m1/s1
