16
gdb 96812	2.29292	1.49701	0.93913	1.6283	68.72	-0.2733	-0.0183	0.2549	1201.043	0.123418	-475.07218	-475.063521	-475.062576	-475.106076	30.995	
C	 0.1148689339	 1.387743909	 0.1000984623	-0.341907
N	 0.095499025	-0.0616887215	-0.0113300673	-0.328112
C	 0.4968269817	-0.6419624479	-1.0454946638	 0.402823
O	 0.9978028052	-0.0439773142	-2.1871651976	-0.222575
C	 1.6457163475	-0.9886938391	-2.9823501035	 0.414244
O	 2.1179236209	-0.6891205967	-4.0310467794	-0.297331
C	 1.6251453106	-2.3271386005	-2.2624341949	-0.379561
C	 0.5355869833	-2.1515742614	-1.2022506079	 0.049265
O	 0.8042320349	-2.8057874595	 0.0066568639	-0.433813
H	 0.5838298703	 1.8911390465	-0.7515869295	 0.138228
H	-0.9140728656	 1.7485664239	 0.2031117075	 0.140126
H	 0.6436801118	 1.6632235772	 1.0180134992	 0.137384
H	 1.4714861017	-3.1420313838	-2.9691783733	 0.152099
H	 2.5934868437	-2.4726259152	-1.7705297243	 0.164132
H	-0.434631299	-2.4731222019	-1.6177031019	 0.107309
H	 0.4634838041	-2.2233362947	 0.7011276803	 0.29769
86.1976	95.0927	126.5885	177.3067	209.9304	281.7	388.4958	415.6367	488.8316	526.2401	580.8712	598.8577	628.1594	738.788	800.9011	901.542	955.0332	1023.1742	1064.6629	1092.8786	1129.5096	1134.8567	1158.4262	1187.0988	1243.722	1263.8487	1293.527	1378.0847	1425.2396	1444.6594	1460.6296	1492.4386	1496.0606	1819.5634	1929.2828	2960.2892	3028.6237	3065.9706	3094.4966	3105.5483	3146.1569	3735.3455
CN=C1OC(=O)CC1O	CN=C1OC(=O)C[C@H]1O	
InChI=1S/C5H7NO3/c1-6-5-3(7)2-4(8)9-5/h3,7H,2H2,1H3	InChI=1S/C5H7NO3/c1-6-5-3(7)2-4(8)9-5/h3,7H,2H2,1H3/t3-/m1/s1
