19
gdb 109696	3.29873	1.00504	0.94263	3.1781	67.71	-0.2456	0.0454	0.2909	1301.5847	0.158276	-497.264865	-497.25543	-497.254486	-497.298909	35.748	
O	 0.249231359	 0.7717858725	-0.8953477148	-0.417443
C	-0.0240039878	-0.0171914448	 0.2797044027	-0.127258
C	-1.4345199122	-0.5657369266	 0.3061224354	-0.190585
C	-1.980111867	-1.2050592135	-0.9664352703	 0.009713
O	-1.106455293	-1.3618474408	-2.0502732265	-0.438523
C	-1.6691076072	-2.0750631463	 0.2147799354	 0.362243
O	-0.5580517419	-2.9101215041	 0.0576518887	-0.477141
C	-2.7395896704	-2.7402196827	 1.0430296676	-0.111167
O	-3.1250133514	-3.9814323083	 0.4887922842	-0.418983
H	-0.3358053748	 1.536782198	-0.8772250164	 0.291699
H	 0.6973153024	-0.8363741035	 0.2464344901	 0.136405
H	 0.1791355692	 0.5696851466	 1.1835479121	 0.109328
H	-2.1556389413	-0.0042789005	 0.8945823738	 0.089669
H	-3.0168856379	-1.0249702619	-1.2434388097	 0.101047
H	-0.53842278	-0.5731794274	-2.0671497794	 0.302612
H	-0.30564191	-2.8221072752	-0.8767207934	 0.296846
H	-2.3736483343	-2.8578357933	 2.0767655992	 0.092348
H	-3.6327031823	-2.107291277	 1.0787203198	 0.10154
H	-2.300134129	-4.4443163411	 0.2973862315	 0.287652
86.646	107.4301	160.2069	208.8001	243.3377	277.9228	316.98	338.862	368.463	421.6395	437.4141	546.6422	596.4461	623.0799	696.1186	723.1194	747.6792	848.1756	855.3003	949.7996	981.6693	1009.3908	1032.643	1064.3481	1084.3821	1111.1339	1127.0038	1194.0842	1201.2548	1239.088	1313.4134	1338.2728	1363.4899	1372.7348	1376.8999	1404.1501	1421.1324	1432.5307	1477.4292	1500.4358	1511.9938	2967.8446	3032.1436	3070.9408	3112.5797	3122.7894	3141.4119	3644.4118	3671.2746	3787.9371	3812.0594
OCC1C(O)C1(O)CO	OC[C@H]1[C@@H](O)[C@]1(O)CO	
InChI=1S/C5H10O4/c6-1-3-4(8)5(3,9)2-7/h3-4,6-9H,1-2H2	InChI=1S/C5H10O4/c6-1-3-4(8)5(3,9)2-7/h3-4,6-9H,1-2H2/t3-,4+,5-/m0/s1
