18
gdb 49424	3.47249	1.52192	1.47964	3.3636	73.86	-0.2446	-0.0236	0.2209	951.0777	0.150614	-401.940368	-401.933663	-401.932719	-401.971551	27.194	
O	-0.2568717534	 0.0289106207	-0.0493493923	-0.240263
C	-0.0455257366	 1.2126072607	-0.0951793658	 0.148504
C	 1.2951654024	 1.9018722442	 0.0191095493	-0.076683
C	 1.4818734948	 2.6598138123	 1.3559039126	-0.085816
C	 2.2193556926	 1.6883653654	 2.2503360647	-0.068627
C	 2.4084998566	 0.4219450752	 1.4070790612	-0.19328
N	 2.4958702942	 1.0323144845	 0.0463389032	-0.119097
C	 3.5557405649	 2.0562478228	 0.2733743457	-0.182844
C	 2.9849247374	 2.7636180598	 1.5095482511	-0.078224
H	-0.8834889399	 1.9380515491	-0.2265117966	 0.075654
H	 1.3626390032	 2.5928742979	-0.8327020808	 0.094313
H	 0.7953562657	 3.4090590398	 1.7248862346	 0.092751
H	 2.1012045029	 1.6852648525	 3.3249017141	 0.090006
H	 3.3402541918	-0.1062037646	 1.6284214851	 0.103411
H	 1.5765832081	-0.2788728917	 1.4534199361	 0.137265
H	 4.5168123029	 1.5664996797	 0.4532361016	 0.10787
H	 3.6500644161	 2.7075580691	-0.6006429007	 0.104562
H	 3.4631047864	 3.5986668327	 2.0030725471	 0.090498
91.4913	205.65	234.6385	387.6918	459.0709	481.1318	654.8195	694.4812	719.3929	794.7555	811.3012	830.0212	857.6141	883.5214	930.0356	938.7141	943.9115	957.5693	988.7914	1021.7155	1035.1467	1056.1581	1068.9636	1088.9796	1117.3002	1117.6012	1183.0761	1234.2531	1257.8615	1272.4967	1274.5757	1283.672	1293.5745	1361.7292	1398.3618	1431.966	1498.2728	1521.4673	1836.1282	2849.6098	3018.59	3054.8405	3071.9798	3103.301	3154.7017	3207.4484	3210.5139	3223.0153
O=CC1C2C3CN1CC23	O=C[C@H]1[C@H]2[C@H]3CN1C[C@@H]23	
InChI=1S/C7H9NO/c9-3-6-7-4-1-8(6)2-5(4)7/h3-7H,1-2H2	InChI=1S/C7H9NO/c9-3-6-7-4-1-8(6)2-5(4)7/h3-7H,1-2H2/t4-,5+,6-,7-/m0/s1
