18
gdb 14183	2.7641	2.26847	2.09829	1.7352	71.8	-0.2253	0.088	0.3134	808.1773	0.152441	-347.72824	-347.7208	-347.719856	-347.759309	29.244	
C	-0.0006262615	 1.4886736088	-0.0226538951	-0.527204
C	 0.0480091062	-0.0098335797	-0.0967436922	 0.270186
C	 0.6173852714	-0.946932376	-1.1881783831	-0.32749
C	 0.080232297	-1.9388551088	-0.1345752328	-0.133776
C	 0.4610933749	-0.9987742366	 1.0427599854	 0.049339
O	-0.8557241125	-1.0258086741	 1.6658689085	-0.364364
C	-1.1279474263	-1.0110981904	 0.2241984854	 0.435598
C	-2.5463844961	-1.0281930255	-0.2460640119	-0.527399
H	 1.00474664	 1.9226970034	-0.0533537847	 0.120815
H	-0.5708098007	 1.9120711547	-0.8570761714	 0.11907
H	-0.4786227027	 1.8013109816	 0.9119152181	 0.133581
H	 0.1104748556	-0.9364580407	-2.1580556262	 0.094578
H	 1.7021639131	-0.9264947969	-1.3302277572	 0.094838
H	 0.0872076589	-3.0286984213	-0.1259337833	 0.077703
H	 1.3433913509	-0.9997361809	 1.6828717706	 0.087508
H	-3.085293286	-0.1486242947	 0.1201218755	 0.133746
H	-2.5844385841	-1.0273775718	-1.3401936009	 0.127468
H	-3.0612198681	-1.923078931	 0.1170492452	 0.135803
180.5208	188.8536	215.0898	237.9222	260.1498	367.9265	446.0111	527.6186	639.303	684.3603	714.8367	762.4608	791.6953	836.6004	876.607	909.316	935.7291	955.8862	1002.7502	1014.7147	1080.2082	1125.5733	1128.4248	1144.927	1153.8813	1171.7245	1210.7747	1237.405	1274.236	1331.5657	1369.6839	1403.2166	1417.431	1473.2518	1487.8444	1490.9534	1494.0831	1516.4197	3026.3038	3036.2449	3043.5998	3090.6046	3096.8753	3099.5916	3108.8567	3111.0468	3114.097	3126.5547
CC12CC3C1OC23C	C[C@@]12C[C@H]3[C@@H]1O[C@@]23C	
InChI=1S/C7H10O/c1-6-3-4-5(6)8-7(4,6)2/h4-5H,3H2,1-2H3	InChI=1S/C7H10O/c1-6-3-4-5(6)8-7(4,6)2/h4-5H,3H2,1-2H3/t4-,5-,6+,7+/m0/s1
