20
gdb 126397	2.57736	1.26899	0.92086	0.1181	83.46	-0.2342	0.0084	0.2426	1341.5255	0.170825	-399.357939	-399.347929	-399.346985	-399.394323	34.506	
C	 0.0063528063	 1.5850724559	 0.000484597	-0.371776
C	-0.0225620771	 0.0478423629	 0.0673893424	-0.28993
C	-1.4077894376	-0.5174403857	 0.0051619594	 0.240584
N	-2.1077541955	-0.79986946	 1.1085103243	-0.300758
N	-3.2641734012	-1.2619951808	 0.6469615818	 0.147707
C	-4.3542990856	-1.6267722619	 1.5252265046	-0.309345
N	-3.379717655	-1.298157724	-0.6761766324	-0.296761
C	-2.2075833341	-0.8299657212	-1.1158814927	 0.240441
C	-1.8998433312	-0.7178012069	-2.5740136758	-0.505222
H	 1.0345097833	 1.9577531407	 0.0442277461	 0.112618
H	-0.4459377055	 1.9507613003	-0.9269874231	 0.117884
H	-0.5508154634	 2.0175560849	 0.8366536296	 0.128798
H	 0.5729037159	-0.3629179631	-0.7566706621	 0.103499
H	 0.4486903471	-0.286381049	 0.9968734886	 0.119601
H	-4.9991045248	-0.76533965	 1.728682784	 0.144462
H	-4.9407266048	-2.4085554553	 1.0422001716	 0.155948
H	-3.9336150372	-1.990867731	 2.4625664696	 0.156218
H	-1.7863870201	 0.3265755312	-2.885911268	 0.132527
H	-0.9668590079	-1.2333386399	-2.8273566406	 0.130447
H	-2.7069361317	-1.1609969273	-3.160861514	 0.143059
43.779	46.1385	82.4592	130.0565	187.4807	194.4982	260.4726	279.497	294.6077	416.4307	490.8442	628.1508	641.0194	675.446	762.1373	772.26	819.2646	972.8712	1011.6424	1035.7192	1061.2693	1064.8068	1085.6888	1104.8403	1146.4922	1226.2269	1283.9662	1351.1251	1358.1407	1363.6326	1408.2648	1410.7908	1426.0922	1445.0897	1477.476	1483.9994	1485.3117	1487.2053	1498.1833	1502.7624	1505.4395	1536.5282	1549.5333	3033.178	3036.1797	3037.4303	3047.8409	3081.2707	3082.5693	3108.0194	3116.7125	3128.8844	3132.2014	3171.6327
CCC1=NN(C)N=C1C	CCc1nn(C)nc1C	
InChI=1S/C6H11N3/c1-4-6-5(2)7-9(3)8-6/h4H2,1-3H3	InChI=1S/C6H11N3/c1-4-6-5(2)7-9(3)8-6/h4H2,1-3H3
