16
gdb 66664	4.36428	1.21204	1.15659	4.8343	78.77	-0.2444	0.0124	0.2568	1088.9193	0.1239	-363.525023	-363.517616	-363.516672	-363.556728	28.938	
C	-0.0376477549	 1.5006510578	-0.002323732	-0.523653
C	 0.0070196297	 0.0093221517	 0.0122677053	 0.353874
C	-0.0599587274	-1.0045304053	-1.1248601736	-0.144288
C	 0.8183073924	-1.9899823568	-0.3019863823	-0.140982
C	 0.8910109111	-0.9926589641	 0.8281781969	-0.210922
C	-0.2562600115	-2.0151446255	 0.7973722816	 0.305846
C	-0.5813170858	-3.0340356868	 1.7221476354	 0.124204
N	-0.8587707335	-3.8667080995	 2.4790858485	-0.360591
C	-1.1191698973	-1.0147543842	-0.0295236251	-0.223829
H	 0.9284414948	 1.9273623079	-0.295001372	 0.128455
H	-0.788205102	 1.8539633695	-0.7175415973	 0.129004
H	-0.3002999009	 1.9032095644	 0.9825574923	 0.130806
H	-0.1735078962	-0.8484793737	-2.1885712921	 0.100516
H	 1.4985138844	-2.7848463108	-0.574689685	 0.113975
H	 1.6367727734	-0.8645283838	 1.6011085671	 0.111934
H	-2.1895056162	-0.875594211	-0.0899085475	 0.105652
122.3751	151.3685	221.3269	260.8239	281.7608	485.9451	516.2404	530.1259	603.9201	662.8502	757.3479	785.5192	823.3671	841.0795	855.4894	871.2933	890.2075	910.2871	957.7372	985.9065	993.9145	1051.4049	1098.5697	1106.7469	1127.3955	1153.7588	1220.8053	1242.8679	1266.5489	1379.9931	1408.7808	1440.5483	1481.1872	1498.1939	2335.5554	3024.0023	3085.8201	3096.7717	3205.3051	3210.6363	3219.3587	3222.56
CC12C3C4C1C4(C#N)C23	C[C@@]12[C@H]3[C@H]4[C@@H]1[C@@]4(C#N)[C@@H]23	
InChI=1S/C8H7N/c1-7-3-4-6(7)8(4,2-9)5(3)7/h3-6H,1H3	InChI=1S/C8H7N/c1-7-3-4-6(7)8(4,2-9)5(3)7/h3-6H,1H3/t3-,4-,5+,6-,7-,8+/m0/s1
