21
gdb 71296	2.64445	1.86892	1.41473	1.4976	80.9	-0.2229	0.0856	0.3085	1007.5375	0.184558	-387.075386	-387.067859	-387.066915	-387.106697	31.492	
C	-0.0174650992	 1.4625256438	 0.06823877	-0.455351
C	-0.0286197745	-0.0468722962	-0.0485082326	 0.415361
C	 0.9403762796	-0.6055666936	-1.0942421942	-0.239782
C	 1.1560248199	-2.1113390378	-0.8795100038	-0.203522
C	-0.1643212757	-2.8969661094	-0.7583072441	-0.225106
C	-1.2425682404	-2.1808771455	 0.03818329	-0.055507
C	-1.0358483401	-1.2922962297	 1.2412486018	 0.080553
O	 0.2411395819	-0.660321211	 1.2679677501	-0.333443
C	-1.4320058098	-0.6848895363	-0.0780189247	-0.193673
H	 0.9737413788	 1.8115331365	 0.3745209589	 0.123552
H	-0.2620343555	 1.9233117132	-0.8956214065	 0.113273
H	-0.7474204455	 1.7996510332	 0.8095955289	 0.120976
H	 0.5271752705	-0.3989299184	-2.0905767636	 0.095616
H	 1.9026519077	-0.0830143098	-1.034359489	 0.094541
H	 1.7540099825	-2.5258242195	-1.6981938823	 0.08459
H	 1.7345192353	-2.2385240729	 0.0386444737	 0.119634
H	-0.5715647652	-3.0828683905	-1.7619050718	 0.094935
H	 0.0359641957	-3.8833492832	-0.3228593601	 0.097253
H	-2.1888842623	-2.7168139785	 0.0966782511	 0.082972
H	-1.5607569838	-1.4007299679	 2.1841116228	 0.097103
H	-2.33800708	-0.1891843265	-0.4028026545	 0.086026
170.5328	228.1766	249.6012	283.8476	349.0015	373.8382	394.3881	493.4178	565.5863	641.8839	688.1867	729.7813	794.0981	821.4602	842.6357	867.7187	893.4309	911.0286	933.7098	970.8509	1005.0902	1031.1948	1047.482	1060.2519	1065.1544	1088.1862	1130.317	1157.3683	1164.3036	1210.3106	1228.6834	1250.6177	1284.7966	1326.4526	1329.3491	1372.8239	1379.4127	1386.3656	1407.7707	1437.7122	1474.9841	1483.9797	1485.8127	1490.3201	1497.5609	3007.2224	3017.6973	3032.4125	3044.0193	3051.065	3058.7503	3101.7538	3103.8548	3115.3368	3122.4991	3168.1792	3189.2062
CC12CCCC3C(O1)C23	C[C@@]12CCC[C@H]3[C@@H](O1)[C@@H]23	
InChI=1S/C8H12O/c1-8-4-2-3-5-6(8)7(5)9-8/h5-7H,2-4H2,1H3	InChI=1S/C8H12O/c1-8-4-2-3-5-6(8)7(5)9-8/h5-7H,2-4H2,1H3/t5-,6+,7-,8+/m1/s1
