18
gdb 35841	3.29815	1.18846	0.90884	4.1831	85.33	-0.2337	-0.0413	0.1925	1251.3755	0.149939	-364.84173	-364.833716	-364.832772	-364.874828	30.508	
N	-0.0571478005	-1.1639721779	-0.190778592	-0.324124
C	-0.0035614525	-0.0163105718	-0.0667331872	 0.262447
C	 0.0569766983	 1.4399992393	 0.1032389094	-0.196691
C	-0.7952673351	 1.8717077452	 1.3308093516	-0.213177
C	-1.2622798595	 3.3273938687	 1.2721362783	-0.271301
C	-0.2189936134	 4.3998276993	 1.1446577563	-0.064477
C	 1.0878595203	 4.3026262282	 0.8559617775	-0.071401
C	 1.8950415497	 3.1320772358	 0.5239739246	-0.085813
C	 1.4996753705	 1.8986818201	 0.1863504461	-0.071189
H	-0.4032327155	 1.8771358394	-0.7955868483	 0.141318
H	-1.6786947781	 1.2295046773	 1.3931591188	 0.123731
H	-0.2068025252	 1.6947161972	 2.2356582089	 0.128111
H	-1.9890877812	 3.4499922743	 0.4547395036	 0.12013
H	-1.8418461938	 3.5272930822	 2.1841935448	 0.119367
H	-0.6014086711	 5.4021978022	 1.3295361835	 0.097248
H	 1.649580758	 5.2342798583	 0.8586675487	 0.091273
H	 2.967637775	 3.3118545325	 0.5208778099	 0.098533
H	 2.2517783141	 1.1522105199	-0.0463801944	 0.116014
43.6782	152.657	194.4073	245.7244	309.2448	365.6583	387.8441	497.3392	553.8389	565.1503	594.9652	703.7149	773.7822	817.5809	839.1144	891.9598	908.5821	947.0282	1000.9619	1012.7045	1019.9633	1058.141	1085.0879	1091.4374	1178.0503	1238.3364	1271.9339	1285.031	1303.6189	1310.1992	1366.5869	1393.0937	1427.0828	1457.0175	1465.1967	1491.8228	1685.3295	1713.7071	2359.8578	2994.1463	2999.8945	3025.4654	3059.1857	3102.8274	3131.6808	3147.1784	3160.7096	3187.183
N#CC1CCC=CC=C1	N#C[C@H]1CCC=CC=C1	
InChI=1S/C8H9N/c9-7-8-5-3-1-2-4-6-8/h1-3,5,8H,4,6H2	InChI=1S/C8H9N/c9-7-8-5-3-1-2-4-6-8/h1-3,5,8H,4,6H2/t8-/m1/s1
