20
gdb 12856	2.82536	2.25574	1.75723	1.7561	73.54	-0.2415	0.0801	0.3216	864.4265	0.178737	-349.0122	-349.004833	-349.003889	-349.043399	29.214	
C	-0.1826528223	 1.5329058502	 0.0031384657	-0.486066
C	 0.0313225254	 0.0285314434	-0.0273046543	 0.300631
C	-1.1580761538	-0.8442226905	 0.4416605187	-0.112979
O	-0.3619757615	-1.4872452571	 1.4566278933	-0.301788
C	 0.7866568103	-0.6579441505	 1.1555900139	 0.109549
C	 1.9406211812	-1.4590207455	 0.5633824899	-0.220836
C	 1.4675732783	-1.7768771975	-0.8685796051	-0.21686
C	 0.7277817316	-0.4939069105	-1.3000449169	-0.264039
H	 0.7665751308	 2.0691759963	-0.1078292757	 0.114824
H	-0.8389076791	 1.8551204703	-0.8140852292	 0.116943
H	-0.6426789337	 1.8533217709	 0.9437956292	 0.117655
H	-1.996464914	-0.2827312101	 0.8759325628	 0.091947
H	-1.5535906532	-1.5625651684	-0.2887090052	 0.093612
H	 1.0639525193	-0.0365312371	 2.0152912211	 0.061843
H	 2.8396007123	-0.8290962789	 0.5420791884	 0.093287
H	 2.1686209036	-2.3475699019	 1.159098757	 0.106969
H	 2.2851044025	-2.0422295299	-1.5440265946	 0.093821
H	 0.7756690014	-2.6253762198	-0.8451017281	 0.11316
H	 0.0228909673	-0.6604459998	-2.1216540638	 0.094524
H	 1.4521198735	 0.2546871266	-1.645631087	 0.093803
123.6281	211.2614	223.595	250.3282	337.5022	370.9126	402.6515	555.2266	614.3383	639.0681	821.9954	837.0023	870.6911	894.2274	907.2224	924.4309	948.4755	975.6932	999.9837	1023.714	1043.8955	1059.2757	1119.2682	1144.8689	1161.1923	1194.5426	1235.0636	1249.7173	1266.2217	1289.469	1308.5263	1333.811	1337.9405	1365.6485	1383.742	1413.6775	1471.1017	1486.028	1492.7544	1496.56	1502.0079	1525.7959	2995.7987	3020.291	3023.2005	3025.648	3038.3017	3040.9853	3050.1024	3073.6307	3085.3	3092.4876	3095.1362	3102.3965
CC12COC1CCC2	C[C@]12CO[C@H]1CCC2	
InChI=1S/C7H12O/c1-7-4-2-3-6(7)8-5-7/h6H,2-5H2,1H3	InChI=1S/C7H12O/c1-7-4-2-3-6(7)8-5-7/h6H,2-5H2,1H3/t6-,7-/m0/s1
