15
gdb 50030	3.09959	1.28609	1.05952	5.5685	68.94	-0.2551	-0.0091	0.246	1113.6811	0.112068	-453.949293	-453.941021	-453.940077	-453.98275	29.296	
O	 0.1789326901	 0.2220417884	 0.6496686982	-0.272997
C	 0.130653716	 1.3413763167	 0.2139802037	 0.155039
N	 1.1399496164	 1.9256244498	-0.5552343272	-0.123253
C	 2.5480063519	 1.8118533958	-0.2422371609	-0.296831
C	 1.8396723714	 3.1305518686	-0.2191836203	 0.166671
C	 1.9973000932	 4.408984078	-1.066733653	-0.234329
N	 1.7977467365	 5.1429587672	 0.1919138633	-0.34694
C	 1.6141501169	 4.041680804	 0.9970181689	 0.400295
O	 1.3695074383	 3.8875141712	 2.1616215446	-0.360323
H	-0.7483818015	 2.0043625008	 0.3084661117	 0.097334
H	 2.8067087897	 1.3666173153	 0.7153413094	 0.158628
H	 3.204510963	 1.5720328284	-1.0738396602	 0.135546
H	 2.9808726478	 4.5535347427	-1.5235708296	 0.126452
H	 1.208250216	 4.5615466406	-1.8087590382	 0.131559
H	 1.8150825442	 6.1281571625	 0.4041464096	 0.263149
77.8338	102.415	146.3288	182.8948	241.5049	291.5198	348.7591	436.4881	481.0708	594.7048	673.9645	766.6938	782.0644	858.6021	886.1406	960.6144	991.8427	1031.2278	1081.7611	1113.1335	1117.158	1134.6737	1150.7579	1171.1725	1214.2332	1286.6463	1372.6904	1413.2607	1453.0361	1512.8727	1522.6055	1814.6892	1900.6696	2975.2566	3048.9522	3101.1018	3111.1479	3205.3905	3636.336
O=CN1CC11CNC1=O	O=CN1C[C@]21CNC2=O	
InChI=1S/C5H6N2O2/c8-3-7-2-5(7)1-6-4(5)9/h3H,1-2H2,(H,6,9)	InChI=1S/C5H6N2O2/c8-3-7-2-5(7)1-6-4(5)9/h3H,1-2H2,(H,6,9)/t5-,7?/m1/s1
