18
gdb 13356	6.90876	0.94018	0.8474	0.272	88.59	-0.2113	-0.0047	0.2067	1384.6579	0.154007	-310.672406	-310.66385	-310.662906	-310.707267	30.103	
C	-0.0656935556	 1.4636368387	-0.0092008856	-0.507306
C	-0.0010784327	 0.0107036876	-0.0029223586	 0.207428
C	 0.0701577233	-1.1950383524	-0.0010853078	-0.149532
C	 0.0850959772	-2.6101563715	 0.0149559695	 0.228768
C	 1.1525271307	-3.4100407221	-0.1375582657	-0.175572
C	 0.7860727928	-4.8708105583	-0.1178132801	-0.243874
C	-0.6697619657	-4.8626132544	 0.4157329674	-0.213079
C	-1.1921508412	-3.427713827	 0.1647894857	-0.315102
H	 0.5301891982	 1.8922514781	 0.804944363	 0.149168
H	 0.3178633769	 1.8763875705	-0.9494628426	 0.14884
H	-1.0952926135	 1.8180040736	 0.1125895793	 0.14795
H	 2.1633807672	-3.0544206422	-0.2996203107	 0.08981
H	 0.8493178657	-5.2972872455	-1.1301216717	 0.107664
H	 1.4588388112	-5.4714901019	 0.5051751846	 0.103188
H	-1.2960517604	-5.6274612545	-0.0501174787	 0.097048
H	-0.6610810522	-5.0626804595	 1.4917525566	 0.106757
H	-1.8281769979	-3.0581942384	 0.9752849489	 0.108266
H	-1.7885365442	-3.3582210208	-0.7548083835	 0.109577
15.954	94.1481	96.2989	147.618	258.1099	296.6301	394.1582	439.7119	524.5666	543.4966	647.7947	814.3985	830.0973	862.9032	908.0681	913.6865	962.9155	970.8526	1042.8828	1048.6384	1053.5616	1065.4305	1148.7688	1201.1247	1228.284	1272.0973	1278.231	1322.0286	1325.6597	1349.3886	1413.5831	1476.3318	1476.7577	1482.9073	1487.4909	1506.1287	1676.1299	2347.3194	2995.9292	3018.8747	3021.8833	3043.5359	3056.6512	3072.8187	3079.3343	3084.6035	3102.1046	3201.3402
CC#CC1=CCCC1	CC#CC1=CCCC1	
InChI=1S/C8H10/c1-2-5-8-6-3-4-7-8/h6H,3-4,7H2,1H3	InChI=1S/C8H10/c1-2-5-8-6-3-4-7-8/h6H,3-4,7H2,1H3
