13
gdb 21558	4.00449	1.90143	1.29037	5.2427	67.27	-0.2171	-0.058	0.1592	872.3849	0.096585	-394.764553	-394.757763	-394.756819	-394.795364	26.025	
N	 0.0613633846	 1.3920491682	 0.157926823	-0.587991
C	-0.0410010281	 0.0231712674	 0.0533627997	 0.320559
C	-1.1972590057	-0.6807741509	 0.0343201348	-0.252837
C	-1.1752021715	-2.1203340725	-0.007111421	 0.411191
N	-2.2150870992	-2.8494748642	-0.0207851973	-0.543213
O	 0.0893634011	-2.7321434533	-0.0427814793	-0.289847
N	 1.2717427138	-2.0219721735	-0.0267304642	-0.058165
C	 1.1934395175	-0.742342269	 0.0217467895	 0.00353
H	 0.9018441239	 1.8168403549	-0.2018847142	 0.261804
H	-0.7726748471	 1.924950728	-0.0360082908	 0.264612
H	-2.1743672509	-0.2139656482	 0.0523442153	 0.117141
H	-1.9618605028	-3.8372919427	-0.0560262064	 0.223288
H	 2.1554550244	-0.2362954343	 0.0421627509	 0.129927
129.0203	184.1191	319.879	352.8327	402.2591	459.3274	495.9172	522.3625	570.8752	667.8307	698.1406	732.7663	826.5498	878.7221	884.1205	897.373	950.0128	1004.4595	1076.7839	1124.3221	1273.0089	1287.5087	1362.2475	1433.2278	1626.3676	1655.8692	1702.9158	1741.3417	3166.9989	3211.3561	3489.3535	3581.3257	3686.9185
NC1=CC(=N)ON=C1	N[C]1C=C([NH])ON=C1	
InChI=1S/C4H5N3O/c5-3-1-4(6)8-7-2-3/h1-2,6H,5H2	InChI=1S/C4H5N3O/c5-3-1-4(6)8-7-2-3/h1-2,6H,5H2
