17
gdb 8764	3.30056	1.31082	1.19251	3.6334	72.05	-0.2482	0.0215	0.2697	1078.1888	0.139631	-363.851631	-363.842329	-363.841385	-363.885851	32.712	
C	-0.0521380885	 1.5752252939	-0.0307521251	-0.387233
C	 0.0668056235	 0.0394412184	 0.0163750445	-0.170892
C	 0.7081799312	-0.4788349969	-1.1992663253	 0.351536
C	 1.2405032274	-0.8828017323	-2.1979499249	-0.47212
N	 0.7426590743	-0.4327801597	 1.2243563861	-0.022046
C	 2.1404690941	-0.0959329913	 1.4456994712	-0.352191
C	 0.0923758931	-1.2424821115	 2.1120227885	 0.158593
O	 0.5650350487	-1.6940554806	 3.1324281838	-0.341147
H	 0.9309509595	 2.0461247586	-0.1031722252	 0.135777
H	-0.634116462	 1.875308466	-0.9056846672	 0.135397
H	-0.5530309135	 1.9360986428	 0.8716813177	 0.127642
H	-0.9491619125	-0.3724497009	 0.0627323468	 0.122764
H	 1.7031529218	-1.2540315589	-3.0792410033	 0.206313
H	 2.2681930453	 0.9706606059	 1.6606935806	 0.126752
H	 2.481458861	-0.6731256084	 2.3049064208	 0.169412
H	 2.7361776064	-0.3529859466	 0.5642813582	 0.138144
H	-0.9493742698	-1.4456144187	 1.7931382228	 0.0733
48.1479	107.9754	139.483	188.8533	201.1225	243.726	321.7537	325.5067	348.4628	405.6382	496.0693	559.085	636.4502	666.4823	700.24	835.5522	878.9438	992.955	1026.437	1077.1378	1094.6316	1118.7198	1161.5266	1263.8821	1310.9166	1319.5413	1403.5066	1430.1927	1440.6998	1447.7734	1487.0012	1493.0705	1503.9772	1518.9128	1798.2421	2235.5571	2930.9142	3029.7775	3033.9374	3050.7638	3092.915	3130.2924	3134.178	3159.6307	3500.4645
CC(C#C)N(C)C=O	C[C@@H](C#C)N(C)C=O	
InChI=1S/C6H9NO/c1-4-6(2)7(3)5-8/h1,5-6H,2-3H3	InChI=1S/C6H9NO/c1-4-6(2)7(3)5-8/h1,5-6H,2-3H3/t6-/m0/s1
