16
gdb 34733	3.524	1.52839	1.34854	0.5548	80.75	-0.2169	-0.0525	0.1645	966.5309	0.12371	-363.445406	-363.438339	-363.437395	-363.476647	28.663	
C	 0.5054935677	-1.1217196678	-0.0089162548	-0.436475
C	 0.2738394632	 0.0584530499	-0.0286018696	 0.324351
C	-0.0267463706	 1.4737040237	-0.0465201068	-0.230673
C	-0.2546340747	 2.3018744154	 1.3089348924	-0.055198
C	 0.4017852584	 3.491181344	 0.7374171681	-0.096004
N	 0.8870469444	 3.0156091487	 2.0164371938	-0.115852
C	 2.3084793938	 2.636871952	 1.7612244789	-0.178107
C	 2.2869270653	 2.1364827215	 0.3225629001	-0.111583
C	 1.1112691061	 2.5082997409	-0.2217325913	 0.002241
H	 0.7087238332	-2.1639354994	 0.010792726	 0.200121
H	-0.9192311795	 1.6641776257	-0.6556393179	 0.115948
H	-1.1670822165	 2.2333201634	 1.8911254118	 0.115908
H	 0.0472630255	 4.498734681	 0.5574990187	 0.097525
H	 2.91829643	 3.5181042718	 1.9970347953	 0.121615
H	 2.6361713752	 1.819196904	 2.4130654893	 0.126919
H	 2.7814117283	 1.2070707151	 0.0597960761	 0.119265
116.3644	152.9901	281.2575	380.0818	393.7362	514.0053	530.9227	608.0605	633.14	641.3872	690.696	751.7721	781.1789	803.5941	815.6966	872.6429	890.4724	898.7038	935.2988	969.2246	1006.0775	1042.3244	1066.9864	1084.7813	1136.8373	1193.7963	1198.195	1216.1327	1281.9919	1287.1585	1323.3607	1347.5281	1472.0293	1574.9284	2230.7885	3025.0746	3025.8702	3073.8135	3175.3301	3184.388	3191.3589	3502.5655
C#CC1C2C3N2CC=C13	C#C[C@H]1[C@@H]2[C@H]3N2C[CH][C]13	
InChI=1S/C8H7N/c1-2-5-6-3-4-9-7(5)8(6)9/h1,3,5,7-8H,4H2	InChI=1S/C8H7N/c1-2-5-6-3-4-9-7(5)8(6)9/h1,3,5,7-8H,4H2/t5-,7-,8+,9?/m1/s1
