12
gdb 130002	5.46182	1.344	1.08012	6.9689	65.41	-0.2184	-0.035	0.1834	997.1358	0.079583	-464.968332	-464.961448	-464.960504	-464.99933	26.138	
N	 0.0193039822	 1.330781661	 0.1245468564	-0.586116
C	-0.0087007677	-0.0363366393	 0.0240597588	 0.427831
N	-1.1279664521	-0.7568566229	 0.0413742011	-0.412694
C	-0.6513078232	-2.0318154362	 0.0264200951	 0.419831
C	 0.7190996191	-2.0944074148	-0.0096475064	 0.29221
N	 1.1572704126	-0.7744722847	-0.0390413459	-0.434538
N	 1.110616547	-3.3749220507	-0.0780091933	-0.211619
N	 0.0984219784	-4.1332859077	-0.0640409991	-0.063901
O	-1.149565057	-3.244490229	-0.001874126	-0.257547
H	 0.72563842	 1.8065263505	-0.4183566214	 0.264362
H	-0.8992248123	 1.7384680116	 0.019590641	 0.28024
H	 2.0836112829	-0.4252575677	 0.1377342295	 0.28194
156.9609	258.5825	305.0473	314.1754	349.146	374.6171	394.9099	575.4655	588.2155	623.517	633.7388	737.0833	779.4406	785.8183	869.5063	981.9951	1005.1681	1102.7787	1242.1575	1266.5949	1374.1165	1458.5674	1486.654	1543.9555	1553.6633	1599.1968	1660.155	3566.3419	3670.642	3674.7643
NC1=NC2=C(N1)N=NO2	Nc1nc2c([nH]1)nno2	
InChI=1S/C3H3N5O/c4-3-5-1-2(6-3)9-8-7-1/h(H3,4,5,6)	InChI=1S/C3H3N5O/c4-3-5-1-2(6-3)9-8-7-1/h(H3,4,5,6)
