18
gdb 49526	4.67315	1.13466	1.0586	3.5478	78.32	-0.2417	-0.0333	0.2084	1160.8964	0.147048	-401.847121	-401.839407	-401.838463	-401.879315	30.04	
O	-0.2012561981	 0.0068273302	 0.0724857505	-0.237591
C	-0.0216911068	 1.1720191448	-0.1767556669	 0.120801
C	 1.25962017	 1.9394591899	-0.0038753376	-0.037859
C	 1.6004057002	 2.6380282089	 1.357646655	-0.180099
C	 1.9210087	 1.2103330389	 1.8562370915	-0.179792
N	 2.5375554703	 1.1999459644	 0.4329412601	-0.184929
C	 3.0256837458	 2.5948573762	 0.8102053193	 0.469855
C	 3.880851085	 3.480985588	-0.0147224449	-0.37982
C	 4.3687796933	 2.9340417187	 1.3333069758	-0.382693
H	-0.8465637594	 1.8042228434	-0.5834868815	 0.077282
H	 1.4154909414	 2.5669562893	-0.8893372103	 0.094633
H	 1.0697188929	 3.457080887	 1.8539278556	 0.077018
H	 2.6724951034	 1.1185861038	 2.6420824312	 0.109864
H	 1.1095706252	 0.4959288326	 1.9770973768	 0.135304
H	 4.3303457738	 3.0640020453	-0.910059158	 0.129859
H	 3.6400802961	 4.5375112608	-0.0776538218	 0.118056
H	 4.4509088802	 3.628186697	 2.1635971642	 0.119068
H	 5.1325906467	 2.1637302009	 1.308623201	 0.131043
94.4275	160.5852	191.6139	260.3165	284.1219	333.6879	422.5923	578.3281	606.3506	713.0531	744.436	767.2623	777.0941	823.1204	874.2054	901.0611	915.0732	953.2789	1002.7655	1028.7597	1044.0408	1055.3108	1071.3694	1089.1561	1106.7432	1141.5679	1152.6612	1176.7189	1181.4814	1194.4334	1219.4724	1258.657	1368.9906	1407.5369	1425.5111	1451.3869	1511.1111	1537.9124	1824.325	2850.3392	3045.3344	3053.1032	3090.2584	3126.1336	3128.7615	3174.8152	3207.1819	3220.2082
O=CC1C2CN1C21CC1	O=C[C@H]1[C@H]2CN1C12CC1	
InChI=1S/C7H9NO/c9-4-6-5-3-8(6)7(5)1-2-7/h4-6H,1-3H2	InChI=1S/C7H9NO/c9-4-6-5-3-8(6)7(5)1-2-7/h4-6H,1-3H2/t5-,6+/m1/s1
