17
gdb 124830	4.37135	0.92038	0.87938	1.2533	69.59	-0.2725	-0.021	0.2515	1354.1003	0.135494	-455.146959	-455.138197	-455.137253	-455.182044	31.129	
C	 0.043952895	 1.567807426	 0.027286357	-0.404163
C	-0.0447018032	 0.0429901122	 0.075622371	 0.134666
O	 0.4097930969	-0.5465036914	-1.1370271295	-0.429322
C	 0.8336304308	-0.5437583244	 1.1904137631	-0.301559
C	 0.7147286138	-2.0321309285	 1.2935256467	 0.373928
N	-0.3591906767	-2.6172186032	 1.7587002209	-0.18254
O	-0.0593506434	-3.9828037518	 1.6662195351	-0.151289
C	 1.1718991688	-4.0528510906	 1.1610070524	 0.103098
N	 1.7142144724	-2.9062367509	 0.9083018496	-0.294941
H	 1.0760218245	 1.88615211	-0.1506380828	 0.127438
H	-0.5783655197	 1.9628745736	-0.783361645	 0.108506
H	-0.3066387023	 2.0161375137	 0.9626740131	 0.118482
H	-1.0856324145	-0.2554635195	 0.2754095098	 0.088513
H	-0.1687935685	-0.2526972075	-1.8475084339	 0.283921
H	 1.8798291234	-0.2976834257	 0.9909068316	 0.133777
H	 0.5451850328	-0.0886504389	 2.1423964822	 0.127718
H	 1.5892655299	-5.0386869832	 1.0169672888	 0.163767
22.9503	68.323	112.3754	241.4622	276.5016	287.0631	314.9058	356.3557	456.3581	462.9963	632.6207	702.6804	787.7846	858.8722	896.3473	902.0989	923.8412	948.0865	986.3618	1009.4166	1066.2462	1110.285	1128.3368	1148.9256	1200.6811	1284.963	1304.0002	1317.937	1376.0349	1392.686	1407.5056	1423.369	1464.5916	1492.5068	1498.3657	1515.3567	1597.0862	2984.1181	3030.4419	3064.8861	3098.1443	3111.7148	3120.6758	3266.2192	3822.5489
CC(O)CC1=NOC=N1	C[C@@H](O)Cc1nocn1	
InChI=1S/C5H8N2O2/c1-4(8)2-5-6-3-9-7-5/h3-4,8H,2H2,1H3	InChI=1S/C5H8N2O2/c1-4(8)2-5-6-3-9-7-5/h3-4,8H,2H2,1H3/t4-/m1/s1
