16
gdb 71981	2.84838	1.68746	1.23449	4.2838	74.33	-0.2601	0.0188	0.2789	994.6932	0.124904	-400.711432	-400.703977	-400.703033	-400.743136	29.287	
O	-0.0940026518	 1.3275070471	-0.037133709	-0.447744
C	 0.0468938866	-0.0333180031	-0.0411289919	 0.363005
C	 0.9444111121	-0.9017303513	-0.9187707273	-0.298735
C	 0.0433836184	-2.082835754	-0.4495710596	-0.08251
C	 0.3790141338	-2.2540788682	 1.0563084289	-0.288541
C	-0.2722892598	-0.8828326263	 1.2404893341	 0.145782
C	-0.6525486806	-0.2271744078	 2.4420158235	 0.168081
N	-0.9308284085	 0.3134264598	 3.4281067437	-0.356943
C	-1.0683236361	-1.0242147121	-0.063058127	-0.164483
H	 0.5304955759	 1.7145257352	 0.587913073	 0.301479
H	 0.7839466562	-0.6638973498	-1.9735117662	 0.119385
H	 2.0163734187	-0.9629311239	-0.702877885	 0.098918
H	-0.1121872003	-2.9462952742	-1.0894354935	 0.091849
H	-0.218266287	-3.0383908734	 1.5274156924	 0.121452
H	 1.4323232602	-2.3705341802	 1.3313711701	 0.10668
H	-2.1293683377	-0.9337613579	-0.2416579763	 0.122327
118.8202	152.5012	241.8876	312.0585	355.6522	422.5816	433.5481	514.2575	547.119	593.1435	651.2328	688.592	775.0527	811.5395	883.7889	913.9318	932.7852	980.7438	992.082	1032.9746	1059.6838	1108.256	1117.1759	1131.8103	1146.8122	1217.9336	1239.8203	1253.0647	1264.1078	1300.8226	1353.2023	1433.3903	1494.5324	1508.6619	2339.1958	3042.8508	3049.2329	3110.1083	3112.1374	3163.0387	3237.9249	3788.3495
OC12CC3CC1(C#N)C23	O[C@@]12C[C@H]3C[C@]1(C#N)[C@@H]23	
InChI=1S/C7H7NO/c8-3-6-1-4-2-7(6,9)5(4)6/h4-5,9H,1-2H2	InChI=1S/C7H7NO/c8-3-6-1-4-2-7(6,9)5(4)6/h4-5,9H,1-2H2/t4-,5+,6+,7-/m1/s1
