19
gdb 65490	2.92755	1.22288	1.01601	1.1168	81.92	-0.2551	0.0326	0.2878	1225.8108	0.156863	-385.826104	-385.817062	-385.816117	-385.859737	35.209	
O	 0.3650167967	 1.5135024881	-0.5521686933	-0.464814
C	 0.0176689204	 0.2493482452	-0.0176530582	 0.248256
C	 0.1343715118	 0.0905435198	 1.5441164635	-0.36569
C	-1.3133797993	-0.410472262	 1.5539818671	 0.404831
C	-1.7749128766	-1.7336484451	 2.0906475066	-0.312748
C	-2.287415144	-0.4411407349	 2.6896608513	-0.331857
C	-1.528157406	 0.0923747896	 0.1227756741	-0.348867
C	 0.665238584	-0.8335621926	-0.7501660442	 0.311928
C	 1.2386231722	-1.7023335008	-1.3528399704	-0.508961
H	 1.3106576898	 1.5089024021	-0.7369451481	 0.281787
H	 0.9105779772	-0.5816806482	 1.9168000853	 0.104269
H	 0.2476052845	 1.0800056461	 1.9972751813	 0.107629
H	-2.4570131953	-2.3220409801	 1.484909688	 0.11268
H	-1.0735170848	-2.3234672186	 2.6725118683	 0.112029
H	-1.933087216	-0.1590208718	 3.6762798895	 0.111314
H	-3.3160098477	-0.1571494637	 2.4897712708	 0.112018
H	-1.9898599252	 1.08322429	 0.0818076255	 0.11581
H	-2.0193044588	-0.5732346533	-0.5895706168	 0.110259
H	 1.7314915173	-2.4745452796	-1.8901896403	 0.200128
49.471	155.2673	175.0893	251.807	265.4519	284.1755	330.7778	393.2716	423.9753	437.8041	561.4668	593.7799	616.3139	664.7316	687.1433	774.0623	806.9387	837.2794	883.6534	901.943	930.0502	965.9856	991.6539	1003.0554	1053.4252	1076.5705	1084.4972	1089.9552	1163.1792	1186.6285	1222.6958	1240.4358	1257.3473	1276.6672	1367.4575	1390.3949	1463.7495	1464.4177	1485.9652	1505.9902	2228.0892	3051.4898	3060.2678	3115.3876	3120.217	3122.1605	3124.243	3197.6994	3212.7051	3500.0674	3807.9293
OC1(CC2(CC2)C1)C#C	OC1(CC2(CC2)C1)C#C	
InChI=1S/C8H10O/c1-2-8(9)5-7(6-8)3-4-7/h1,9H,3-6H2	InChI=1S/C8H10O/c1-2-8(9)5-7(6-8)3-4-7/h1,9H,3-6H2
