19
gdb 84846	2.27259	1.82857	1.22164	1.7854	75.98	-0.2472	0.0093	0.2566	1053.0775	0.159994	-423.023258	-423.015143	-423.014199	-423.055353	32.842	
O	 0.4802774376	 0.5904606036	-0.9963065799	-0.447385
C	 0.0739348213	-0.2701899238	 0.0760894358	-0.001041
C	 0.6231685826	 0.1627053001	 1.4068632569	-0.095737
C	-0.0210769316	-0.0087155575	 2.5610869183	-0.07159
C	-1.3847487399	-0.6382071066	 2.6711069705	-0.278649
C	-2.1620273469	-0.6175217396	 1.3656831756	-0.088058
C	-2.3048787699	 0.6870928884	 0.6004888881	-0.363801
C	-1.4322639232	-0.4344900475	 0.0736685465	 0.422029
O	-1.91108474	-1.1651591454	-1.0193388778	-0.484475
H	 0.1262675757	 1.4662003328	-0.8007246159	 0.279147
H	 0.5054679864	-1.2424347423	-0.1979012274	 0.107298
H	 1.6165040489	 0.603144063	 1.3783724617	 0.095989
H	 0.4522936789	 0.2982615961	 3.4905661348	 0.092867
H	-1.2712143747	-1.6772165937	 3.0136159758	 0.120251
H	-1.9618488616	-0.1331647333	 3.4574717693	 0.10956
H	-3.0188332216	-1.2822007018	 1.3191224634	 0.098188
H	-3.2370258232	 0.851463995	 0.072996174	 0.115411
H	-1.8418375911	 1.5752896086	 1.0195194443	 0.105823
H	-1.5461365675	-0.7386870759	-1.805156004	 0.284174
108.5158	213.8692	240.2695	273.9031	340.8986	366.9289	394.8046	413.452	461.8922	510.7758	523.3093	588.1661	684.7218	750.676	788.7655	824.7835	905.4137	926.5969	942.3388	945.8235	1001.9248	1013.2807	1034.6492	1056.3534	1070.4477	1103.9947	1130.7561	1181.9766	1215.3521	1236.8819	1255.4103	1266.9246	1331.9536	1358.6701	1376.9192	1404.9434	1416.7026	1428.0544	1474.0866	1497.6932	1715.8756	3001.9046	3021.4837	3029.4818	3126.8168	3149.0334	3162.2263	3172.6661	3223.7503	3774.0442	3789.2381
OC1C=CCC2CC12O	O[C@H]1C=CC[C@H]2C[C@@]12O	
InChI=1S/C7H10O2/c8-6-3-1-2-5-4-7(5,6)9/h1,3,5-6,8-9H,2,4H2	InChI=1S/C7H10O2/c8-6-3-1-2-5-4-7(5,6)9/h1,3,5-6,8-9H,2,4H2/t5-,6-,7-/m0/s1
