16
gdb 42725	3.07829	1.88634	1.64906	3.2846	72.53	-0.2327	-0.0334	0.1993	858.1596	0.12667	-400.705008	-400.698828	-400.697884	-400.735273	25.914	
O	 0.0120792448	 0.0173384824	 0.0380482585	-0.315324
C	-0.017836382	 1.2098627245	 0.0563019177	 0.47552
C	-1.1179787266	 2.291208298	-0.0139768713	-0.179905
C	-1.2906851998	 2.6629155644	 1.4437478574	-0.072903
C	-0.1952351907	 3.1539233916	 2.0290020163	-0.086231
C	 0.9655378736	 3.415872919	 1.0949944768	-0.093409
C	 0.3803300045	 4.353042586	-0.0038303205	-0.156676
N	-0.0940467274	 3.1597291433	-0.7683506991	-0.154108
C	 1.0002513687	 2.3341808834	-0.0520934806	-0.140907
H	-2.0379219122	 2.1037133352	-0.5658393581	 0.10089
H	-2.2282863105	 2.4678930478	 1.9505564593	 0.110847
H	-0.1491138124	 3.4577253026	 3.0685186905	 0.107145
H	 1.9037395629	 3.6665424097	 1.5904307889	 0.077845
H	-0.376740522	 5.0804607913	 0.2976586553	 0.110788
H	 1.1510197727	 4.838684228	-0.6092565364	 0.11695
H	 1.9547895664	 2.1738260327	-0.5563919345	 0.099478
154.6781	291.8575	388.8935	417.7086	492.5405	549.5118	590.3529	664.6747	705.2304	740.9218	787.9927	815.6135	838.39	872.1691	912.138	945.3424	957.0168	966.4302	1015.9903	1045.5569	1056.7745	1101.1412	1126.0182	1149.8474	1173.3428	1192.1585	1206.91	1239.0017	1259.1112	1282.986	1318.6088	1369.7079	1493.3056	1667.8666	1904.0838	3055.0303	3099.0587	3110.2218	3117.3913	3128.2296	3187.3706	3210.3686
O=C1C2C=CC3CN2C13	O=C1[C@H]2C=C[C@@H]3CN2[C@H]13	
InChI=1S/C7H7NO/c9-7-5-2-1-4-3-8(5)6(4)7/h1-2,4-6H,3H2	InChI=1S/C7H7NO/c9-7-5-2-1-4-3-8(5)6(4)7/h1-2,4-6H,3H2/t4-,5-,6+/m1/s1
