20
gdb 98893	4.24481	0.87548	0.83671	3.3731	76.85	-0.2437	0.0284	0.2721	1455.5439	0.172106	-440.322807	-440.313239	-440.312295	-440.359214	33.325	
C	-0.1922192105	 1.5130592041	-0.0993409167	-0.334821
N	-0.1935027384	 0.0713503371	-0.2529604218	-0.318846
C	 0.8752057299	-0.617858125	-0.7457876121	 0.401496
O	 1.9126761832	-0.0774503146	-1.0939283165	-0.384959
C	 0.7024625983	-2.1310480026	-0.8006992219	-0.094869
C	 1.1553076435	-2.7427727525	-2.1516722723	-0.251974
C	 2.0027757215	-3.9743195409	-1.7383871268	-0.075691
O	 1.8138833578	-4.1463814795	-0.3389313803	-0.241788
C	 1.6377734678	-2.8516702224	 0.198726383	-0.0957
H	 0.7900147334	 1.8698218676	-0.4109995758	 0.173247
H	-0.9589887302	 1.9836072193	-0.7251147505	 0.126103
H	-0.3655703721	 1.8022389003	 0.9430928986	 0.126145
H	-1.0203999839	-0.442177809	 0.0014785986	 0.246046
H	-0.331952041	-2.4164694687	-0.5841864247	 0.063795
H	 0.2973657016	-3.0223537834	-2.7668983762	 0.104791
H	 1.7565252583	-2.0182502845	-2.7034323656	 0.133623
H	 1.6982094264	-4.9018840292	-2.230242922	 0.106263
H	 3.0658587477	-3.7986740843	-1.9603287372	 0.09914
H	 2.5916364488	-2.3050551014	 0.2596824438	 0.111458
H	 1.2171393578	-2.9546053104	 1.2022191464	 0.106542
27.8075	46.5509	81.6006	126.0457	191.1993	238.1521	269.4709	327.3508	372.6348	481.7317	580.4201	693.5078	738.2434	757.6847	819.2913	886.273	942.2367	946.1869	970.5447	1007.0002	1053.9373	1079.3307	1103.9436	1140.0213	1154.0898	1170.8936	1215.2963	1233.4228	1246.365	1279.2756	1301.5902	1305.8094	1353.2133	1379.3494	1402.5256	1437.3162	1489.5514	1492.7968	1500.3572	1507.0217	1526.3727	1559.9077	1770.3588	2989.4759	2995.3545	3027.8195	3047.0663	3074.1267	3079.7131	3088.4937	3098.8527	3131.3419	3154.7129	3652.2874
CNC(=O)C1CCOC1	CNC(=O)[C@H]1CCOC1	
InChI=1S/C6H11NO2/c1-7-6(8)5-2-3-9-4-5/h5H,2-4H2,1H3,(H,7,8)	InChI=1S/C6H11NO2/c1-7-6(8)5-2-3-9-4-5/h5H,2-4H2,1H3,(H,7,8)/t5-/m0/s1
