14
gdb 26799	3.75258	1.15994	0.89102	2.0388	80.67	-0.1947	-0.0228	0.1719	1226.4585	0.100992	-432.85946	-432.850957	-432.850013	-432.892353	31.54	
N	 0.1939755964	 1.3626367962	 0.108456173	-0.605278
C	 0.0083357023	 0.0019336653	 0.0266464795	 0.345877
C	-1.1122208353	-0.7826337241	 0.0071566869	 0.117478
N	-2.4400784544	-0.3042292179	-0.0250686111	-0.621324
N	-0.7189688793	-2.1080615195	 0.0090007336	-0.334425
C	 0.5803245963	-2.0832962316	 0.0226256066	 0.199591
O	 1.0961179287	-0.7977867482	 0.0476729933	-0.200692
C	 1.4963330162	-3.1483535435	 0.004149187	 0.253442
C	 2.2864211646	-4.0570376975	-0.0084585052	-0.372762
H	 0.9877145203	 1.7058215303	-0.4173041345	 0.261804
H	-0.658352191	 1.8578377245	-0.1226468409	 0.268446
H	-2.9023513196	-0.4334568969	 0.8712983392	 0.245229
H	-2.9857503702	-0.82191153	-0.7076661187	 0.246432
H	 2.9770929549	-4.8635677472	-0.0198852685	 0.19618
120.9567	144.4493	152.0548	247.8684	262.166	299.832	321.8452	420.0721	468.4043	548.6479	553.6295	606.4519	651.4552	685.9179	697.4677	722.3922	752.3372	834.0712	872.6001	969.6971	1077.6782	1181.0745	1206.0773	1248.7036	1341.921	1455.6462	1564.8097	1616.0914	1653.6222	1707.2457	2232.6218	3483.7758	3502.6472	3536.1942	3551.2872	3638.4675
NC1=C(N)N=C(O1)C#C	Nc1c(N)nc(o1)C#C	
InChI=1S/C5H5N3O/c1-2-3-8-4(6)5(7)9-3/h1H,6-7H2	InChI=1S/C5H5N3O/c1-2-3-8-4(6)5(7)9-3/h1H,6-7H2
