22
gdb 72035	2.32879	1.96009	1.4915	1.4859	84.91	-0.2283	0.0874	0.3157	1020.1511	0.196174	-367.230955	-367.222896	-367.221952	-367.262828	32.971	
C	 0.0283468614	 1.4802835828	 0.1101977667	-0.497044
C	-0.0106310741	-0.0125977924	-0.0589492207	 0.308077
C	 1.057457983	-0.7526811012	-0.8665259599	-0.278302
C	 0.5856282676	-2.1813917321	-0.53035989	-0.059681
C	 0.4755348881	-2.0709176903	 1.0020344836	-0.156265
N	-0.3656440665	-0.8561040575	 1.1210820745	-0.201125
C	-1.2445720992	-0.8643934081	-0.0861629075	 0.308078
C	-2.6588839904	-0.3747560773	 0.0509708662	-0.497046
C	-0.9068397972	-2.1085653431	-0.9099745081	-0.278308
H	 0.9677722285	 1.7920450592	 0.5808407103	 0.118078
H	-0.0439258903	 1.9870371725	-0.858957867	 0.112916
H	-0.7902758756	 1.8312186162	 0.7426775209	 0.127071
H	 1.0046013211	-0.5227513486	-1.9360927189	 0.094334
H	 2.073771321	-0.5401092892	-0.516304681	 0.093996
H	 1.1652322012	-3.0079731307	-0.9391901175	 0.064035
H	-0.026585053	-2.9244197797	 1.4688853736	 0.097391
H	 1.4371690986	-1.9140119105	 1.5012159291	 0.097392
H	-2.7159498283	 0.5018691317	 0.7002790833	 0.127073
H	-3.0780372814	-0.1074196688	-0.925822651	 0.112915
H	-3.2969818861	-1.1520012204	 0.4867944179	 0.11808
H	-1.0710272761	-1.955423289	-1.9819961254	 0.094342
H	-1.4759219621	-2.9903649136	-0.5948491391	 0.093991
161.9612	162.5624	214.9757	232.5123	315.6861	341.5415	426.5435	429.1869	502.4431	575.361	620.6564	679.5159	684.3137	817.2145	855.3922	889.5972	912.9658	919.9295	935.365	943.0175	948.7284	995.4889	1024.9818	1042.8838	1069.2852	1102.4084	1120.6542	1165.3665	1166.9548	1179.8132	1224.092	1238.6235	1257.0619	1288.7054	1300.5158	1320.9312	1343.276	1414.1352	1415.1186	1432.9681	1481.4423	1484.0736	1487.5896	1490.319	1496.1226	1501.2944	1520.1374	3027.9843	3030.2034	3036.5859	3038.0507	3047.0009	3079.6681	3083.0225	3085.9067	3087.3096	3091.5719	3117.694	3124.0189	3127.801
CC12CC3CN1C2(C)C3	C[C@@]12C[C@H]3CN1[C@]2(C)C3	
InChI=1S/C8H13N/c1-7-3-6-4-8(7,2)9(7)5-6/h6H,3-5H2,1-2H3	InChI=1S/C8H13N/c1-7-3-6-4-8(7,2)9(7)5-6/h6H,3-5H2,1-2H3/t6-,7+,8-,9?
