18
gdb 57950	3.36863	0.96884	0.80366	6.1189	72.45	-0.2389	0.0205	0.2594	1434.8906	0.146436	-472.46934	-472.458809	-472.457865	-472.506015	36.12	
C	 0.0922450088	 1.4477637008	 0.2183359769	-0.341342
N	-0.0114958446	 0.0096875569	 0.0386670002	-0.129893
C	 1.2251267835	-0.7129634676	-0.1875744659	-0.351473
C	-1.2661239453	-0.5614245282	 0.0641351179	 0.512147
O	-2.2949988802	 0.0765153422	 0.0731396937	-0.375619
N	-1.244188031	-1.9696353114	 0.1263739392	-0.449388
C	-2.3042805302	-2.7995442402	-0.2690770788	 0.459108
N	-2.1697605886	-4.0803723717	 0.2597285005	-0.568083
O	-3.1789752593	-2.4814896302	-1.0335441755	-0.336369
H	 0.5071796952	 1.9253779098	-0.678280147	 0.123624
H	-0.9060229872	 1.8418221306	 0.3999555429	 0.174628
H	 0.7438856142	 1.6872313967	 1.0683094133	 0.116902
H	 1.7323646189	-0.9986663813	 0.7469703877	 0.119243
H	 1.0504195212	-1.6091860774	-0.7862706258	 0.143893
H	 1.9138785691	-0.0758147881	-0.7515413794	 0.138293
H	-0.4253945135	-2.4244742219	 0.4942452821	 0.249589
H	-1.8311411572	-4.1577388704	 1.2077375297	 0.24988
H	-2.9786541738	-4.6539826587	 0.0701536784	 0.264859
45.1105	65.1708	96.1454	113.356	135.8099	186.5489	201.9594	302.0366	365.6709	397.6738	420.1208	468.1152	503.2935	574.6037	602.2161	654.7041	743.8001	770.009	900.2897	957.9213	1056.7073	1087.5084	1105.9625	1134.2305	1166.2268	1179.8762	1288.5493	1306.6966	1405.9857	1434.8285	1472.9027	1492.4977	1497.0321	1503.5426	1513.7502	1537.212	1625.8798	1788.1568	1863.3707	2984.6621	3012.3974	3058.0024	3071.5028	3122.2631	3171.575	3566.4534	3645.8683	3679.59
CN(C)C(=O)NC(N)=O	CN(C)C(=O)NC(=O)N	
InChI=1S/C4H9N3O2/c1-7(2)4(9)6-3(5)8/h1-2H3,(H3,5,6,8,9)	InChI=1S/C4H9N3O2/c1-7(2)4(9)6-3(5)8/h1-2H3,(H3,5,6,8,9)
