17
gdb 46732	2.92661	1.78714	1.4151	4.0949	72.09	-0.2357	0.0319	0.2676	939.1618	0.139119	-417.971309	-417.964474	-417.96353	-418.002695	27.203	
N	-0.0565917032	 1.2157520477	 0.4020376676	-0.554067
C	-0.0122452732	 0.0176804194	 0.0039500683	 0.433478
O	 1.1037569878	-0.5955267544	-0.4858115502	-0.244812
C	 0.8730944076	-1.9622273788	-0.880533765	-0.095186
C	-0.6093955926	-2.2642944014	-0.6165155323	-0.060067
C	-0.9858010547	-2.9745714416	 0.7029311551	-0.067427
N	-0.2270900791	-2.2804502598	 1.7684926701	-0.328584
C	-1.5011103396	-1.7054331801	 1.281009216	-0.041404
C	-1.1746026104	-0.9397918388	-0.0203442487	-0.121879
H	 0.8642384505	 1.6510943929	 0.3228204246	 0.217696
H	 1.1365284682	-2.049406446	-1.939397222	 0.108464
H	 1.5370175602	-2.5988826801	-0.2900601889	 0.1244
H	-1.1412072746	-2.6457737201	-1.4877947282	 0.087198
H	-1.3263666443	-3.9946945153	 0.8283178544	 0.098469
H	-0.4258633984	-2.7542017561	 2.6482633694	 0.235625
H	-2.3233208688	-1.514458757	 1.9579089717	 0.102959
H	-2.0519095254	-0.5204434206	-0.510738992	 0.105139
107.5502	139.4608	234.2174	340.9704	448.6362	535.5755	611.5247	663.7872	709.7901	728.2742	809.1403	834.6092	849.122	891.0229	900.7988	923.6766	940.8687	971.2324	1001.7116	1020.2581	1049.3523	1073.5795	1094.4075	1112.7291	1127.6421	1176.6091	1223.7743	1227.7248	1246.1548	1272.2912	1312.334	1323.2914	1345.7831	1374.9287	1415.4019	1509.6199	1772.3774	3047.5602	3097.8553	3115.786	3130.3289	3190.247	3207.4424	3468.4043	3488.126
N=C1OCC2C3NC3C12	[NH][C]1OC[C@H]2[C@H]3N[C@H]3[C@@H]12	
InChI=1S/C6H8N2O/c7-6-3-2(1-9-6)4-5(3)8-4/h2-5,7-8H,1H2	InChI=1S/C6H8N2O/c7-6-3-2(1-9-6)4-5(3)8-4/h2-5,7-8H,1H2/t2-,3+,4-,5+/m1/s1
