21
gdb 68044	2.04224	1.89076	1.28975	1.6317	83.81	-0.2243	0.0877	0.312	1102.2957	0.180023	-387.021534	-387.01246	-387.011516	-387.054527	35.555	
C	 0.0465668012	 1.4511078843	 0.1083797501	-0.517331
C	-0.0227482339	-0.0321328588	-0.0673505212	 0.311999
C	 0.6366224568	-0.9492926452	-1.1333498142	-0.295284
C	 0.0300495479	-1.8482855072	-0.0215118068	 0.311993
C	 0.185105565	-3.3142534297	 0.2286571868	-0.517331
O	 0.5887866223	-0.8972667786	 0.9830011612	-0.378911
C	-1.2360107704	-0.9766676107	-0.0611106774	 0.393975
C	-2.4922141449	-0.9933209838	 0.7253055167	-0.363408
C	-2.5254179636	-1.0328696597	-0.8037598506	-0.366055
H	 1.0877742478	 1.7829372869	 0.1604738483	 0.134297
H	-0.4355594177	 1.9578147763	-0.7338155586	 0.125086
H	-0.4587631025	 1.7515206156	 1.031549949	 0.133042
H	 0.1868617067	-0.987503468	-2.129179125	 0.090395
H	 1.7279396364	-0.9179885692	-1.150115663	 0.094489
H	 1.2437437384	-3.581973215	 0.2961051265	 0.1343
H	-0.3034679791	-3.5966317918	 1.1664247605	 0.133038
H	-0.2653517459	-3.8899035123	-0.5863305269	 0.125086
H	-2.7611546782	-1.8988141205	 1.2605344681	 0.113854
H	-2.8140219498	-0.0791469152	 1.2146330329	 0.113854
H	-2.8687919861	-0.1445385836	-1.3255865623	 0.111456
H	-2.8159199002	-1.964790314	-1.2796515541	 0.111456
161.1485	167.4877	182.221	200.6364	215.2177	220.1225	237.9768	393.9421	435.5237	483.1903	587.8943	600.6397	660.7796	685.7058	687.6644	762.7961	782.4108	858.0065	913.4491	919.786	968.0942	990.7678	1010.8833	1044.3962	1060.7138	1070.6545	1076.7315	1133.5143	1142.9568	1165.9411	1168.8524	1178.1662	1194.942	1294.8894	1339.0617	1401.9038	1408.4477	1438.183	1460.3973	1475.44	1477.4668	1488.381	1488.4426	1491.693	1535.7518	3038.0198	3038.0277	3054.8824	3110.7815	3110.8306	3114.0282	3114.1805	3117.2029	3122.7039	3135.3181	3193.6021	3208.2813
CC12CC(C)(O1)C21CC1	C[C@@]12C[C@@](C)(O1)C12CC1	
InChI=1S/C8H12O/c1-6-5-7(2,9-6)8(6)3-4-8/h3-5H2,1-2H3	InChI=1S/C8H12O/c1-6-5-7(2,9-6)8(6)3-4-8/h3-5H2,1-2H3/t6-,7+
