25
gdb 116136	2.35666	1.13567	0.81527	0.2469	96.69	-0.2251	0.0326	0.2577	1530.4204	0.229892	-352.393024	-352.38319	-352.382246	-352.427582	37.843	
C	 0.0996616195	 1.580246279	-0.1437846861	-0.391227
C	 0.0136952476	 0.0563974917	-0.0133477616	-0.174261
C	-1.4223599823	-0.5079190686	 0.0427993825	-0.005003
C	-1.420009694	-2.0336842177	-0.1484470306	-0.20763
C	-2.7902218122	-2.6400616871	 0.1632509597	-0.220864
C	-3.1821135032	-2.3707419892	 1.6212833157	-0.274779
C	-2.9059295742	-0.9453425573	 2.0459350088	 0.30222
C	-3.5472648026	-0.5068300334	 3.3349776889	-0.473141
C	-2.1360979006	-0.1288601213	 1.3199973486	-0.133336
H	 1.1413097163	 1.9083549414	-0.2180364231	 0.110586
H	-0.422893445	 1.9290847656	-1.0417667279	 0.112691
H	-0.3426424637	 2.0936720532	 0.7156980087	 0.119428
H	 0.5263357025	-0.4009128043	-0.8697381202	 0.089356
H	 0.5593810967	-0.2717660845	 0.8811045707	 0.093657
H	-1.9712349661	-0.0604304462	-0.8035365392	 0.071485
H	-1.1100958042	-2.2778922173	-1.1711537488	 0.086374
H	-0.6684399121	-2.4753425884	 0.5210639399	 0.091352
H	-3.541258152	-2.1949597713	-0.5023641251	 0.096028
H	-2.7925459557	-3.7172087402	-0.0365663303	 0.088102
H	-4.2450502724	-2.5990777831	 1.7780581636	 0.09483
H	-2.6395886528	-3.0559003546	 2.2911526819	 0.102024
H	-3.2425365578	-1.1543191112	 4.1681534048	 0.118626
H	-3.2819006401	 0.5223314595	 3.5921490481	 0.116108
H	-4.6417291796	-0.5739567248	 3.2778553766	 0.118202
H	-1.9951697718	 0.89247501	 1.6690500046	 0.069173
74.5232	109.2114	147.3429	194.6791	204.9569	247.8565	277.725	333.7578	379.5173	415.2414	445.1698	468.5823	541.2081	596.8646	764.257	798.2914	831.8059	852.7679	896.5681	910.1717	937.7068	968.8214	1010.4185	1032.1015	1041.7123	1058.9111	1077.7544	1086.7258	1132.2852	1153.8027	1179.655	1192.7172	1229.1921	1276.0534	1280.4258	1312.865	1333.668	1362.4197	1374.2123	1379.9485	1384.4762	1398.1537	1412.4369	1414.7493	1473.9271	1479.4403	1482.3366	1489.1664	1493.2306	1498.5189	1501.8297	1508.1233	1734.8132	2950.8484	2988.2185	3007.6978	3009.9412	3014.5954	3017.4382	3031.5028	3032.0634	3047.1304	3054.099	3059.6724	3067.444	3097.1607	3103.1681	3107.0219	3139.6669
CCC1CCCC(C)=C1	CC[C@H]1CCCC(=C1)C	
InChI=1S/C9H16/c1-3-9-6-4-5-8(2)7-9/h7,9H,3-6H2,1-2H3	InChI=1S/C9H16/c1-3-9-6-4-5-8(2)7-9/h7,9H,3-6H2,1-2H3/t9-/m0/s1
