15
gdb 44649	2.56222	1.99037	1.22555	5.6757	74.43	-0.2516	-0.0479	0.2036	969.0829	0.114656	-416.835905	-416.829021	-416.828076	-416.867427	26.654	
N	-0.1012153426	 1.3188222302	-0.0211427892	-0.492683
C	 0.041433448	 0.0592830844	-0.0439290698	 0.298844
C	 1.2508508974	-0.8046351313	-0.0832280098	-0.128893
C	 0.9227639639	-2.1008255248	-0.021520589	-0.108399
C	-0.5713672829	-2.2499321239	-0.0273334545	-0.021045
C	-1.3953920534	-2.580187833	 1.2529226668	-0.397855
C	-1.7910196106	-1.0898798093	 1.2393906201	 0.40251
O	-2.4054100777	-0.3546015854	 1.9451724436	-0.293652
N	-1.0535850358	-0.8499730161	 0.0369563811	-0.127007
H	 0.8104269951	 1.7772300348	-0.02233009	 0.223607
H	 2.2495129973	-0.390450808	-0.1421842309	 0.120294
H	 1.6079538873	-2.9391446496	-0.0460896038	 0.125014
H	-0.9187678542	-2.7848366242	-0.9189553962	 0.11194
H	-2.2118531525	-3.2946053223	 1.1350982244	 0.141834
H	-0.8022931492	-2.8412241814	 2.1317899573	 0.145492
93.4889	155.2443	237.9199	342.63	450.9078	497.6048	526.2571	596.1925	681.2257	719.8406	741.926	782.4797	801.3233	866.151	887.7099	973.8849	978.3232	1015.0523	1034.6963	1049.3672	1094.2771	1112.9683	1123.9757	1172.0718	1206.8596	1263.7717	1296.7335	1355.554	1362.3215	1447.1752	1635.085	1728.7567	1915.375	3039.3543	3083.9481	3143.2945	3206.3438	3229.1316	3479.1599
N=C1C=CC2CC(=O)N12	[NH]C1=C[CH][C@H]2CC(=O)N12	
InChI=1S/C6H6N2O/c7-5-2-1-4-3-6(9)8(4)5/h1-2,4,7H,3H2	InChI=1S/C6H6N2O/c7-5-2-1-4-3-6(9)8(4)5/h1-2,4,7H,3H2/t4-/m0/s1
