17
gdb 44844	3.44316	1.65948	1.52255	2.6451	71.71	-0.2493	0.029	0.2783	907.5913	0.140534	-417.997149	-417.990978	-417.990034	-418.027475	26.254	
N	-0.0715113998	 1.251988925	-0.0045325822	-0.564792
C	-0.0421203991	-0.008352341	-0.0027769992	 0.441282
O	 1.0981563668	-0.7856160536	 0.0051795307	-0.265944
C	 0.6418430957	-2.1752749649	 0.0275754841	 0.082483
C	-0.6172119664	-2.1028134362	-0.846438613	-0.250056
C	-1.224855931	-0.9658618044	 0.0089126029	-0.125183
C	-1.1604447201	-1.5635547205	 1.4293148704	-0.029727
N	-1.2325423621	-3.0390184761	 1.4915800824	-0.349837
C	 0.0858029661	-2.3696180001	 1.4416982341	-0.046101
H	 0.8772941337	 1.6324710263	 0.0020152411	 0.220833
H	 1.4691742754	-2.8053763651	-0.2930082203	 0.088057
H	-0.3832241331	-1.7875071234	-1.8645932909	 0.113081
H	-1.2066849826	-3.0161576369	-0.8452288483	 0.140007
H	-2.164554664	-0.5170507896	-0.3025784301	 0.095019
H	-1.475772825	-0.9671852739	 2.277091062	 0.109444
H	-1.4217583249	-3.3129902472	 2.4528941822	 0.238376
H	 0.7575085604	-2.4038945486	 2.2910402742	 0.103059
151.7123	313.7739	376.4746	442.276	482.8305	526.8168	577.9459	701.1123	747.7599	797.6421	821.7379	867.7831	881.5886	892.1051	902.1347	918.9188	937.5553	947.5334	961.4966	977.2032	1017.3021	1069.3302	1078.1381	1102.703	1146.1245	1155.5995	1221.344	1223.651	1256.192	1272.5359	1290.2646	1317.8957	1355.5257	1357.8092	1407.1637	1483.0196	1789.6886	3097.2442	3141.5908	3156.9814	3175.8992	3184.135	3194.0951	3461.8374	3504.921
N=C1OC2CC1C1NC21	[NH][C]1O[C@@H]2C[C@H]1[C@H]1N[C@@H]21	
InChI=1S/C6H8N2O/c7-6-2-1-3(9-6)5-4(2)8-5/h2-5,7-8H,1H2	InChI=1S/C6H8N2O/c7-6-2-1-3(9-6)5-4(2)8-5/h2-5,7-8H,1H2/t2-,3+,4+,5-/m0/s1
