16
gdb 42707	3.27594	1.89262	1.81821	3.042	70.8	-0.2227	-0.0264	0.1962	818.0883	0.126727	-400.668822	-400.662938	-400.661994	-400.69895	24.722	
O	 0.0033499497	 0.032489168	 0.0224711603	-0.321652
C	-0.0115357972	 1.2297164327	 0.0542808121	 0.437185
C	-1.1121993175	 2.2906436136	-0.0079227601	-0.185379
C	-1.0309784099	 3.2147926652	 1.2822983555	-0.064796
C	 0.1346451042	 2.7779258	 2.1852752408	-0.190398
N	 1.1246188162	 3.2324329642	 1.1387537623	-0.163813
C	 0.0175167259	 4.1015824061	 0.5398974298	 0.007082
C	-0.0516666042	 3.2264658691	-0.7193761465	-0.060551
C	 1.0642963644	 2.3161975476	-0.0878338725	-0.132841
H	-2.0982545437	 2.0441296946	-0.3964094394	 0.090958
H	-1.980435136	 3.5595805737	 1.6942317025	 0.078283
H	 0.2427175785	 3.4282428274	 3.0590542509	 0.11505
H	 0.2179386498	 1.7332711474	 2.5000621562	 0.125765
H	 0.1140137863	 5.1845160446	 0.6139856213	 0.081696
H	-0.0988213582	 3.5254417444	-1.7626379691	 0.088673
H	 2.0413857218	 2.0824181015	-0.5101549339	 0.094738
124.9731	326.0017	420.3142	454.316	551.6777	618.8711	691.5036	784.6434	797.0987	801.2515	815.5802	829.8763	883.271	889.1703	906.3731	949.638	971.4775	1005.9938	1014.4471	1024.2849	1080.5238	1112.261	1140.1682	1175.6138	1175.8289	1191.0189	1199.8959	1207.7899	1229.8191	1236.2475	1278.5392	1296.4211	1302.1468	1502.6707	1873.9331	3044.4013	3094.6512	3100.1533	3112.6199	3115.5404	3139.2449	3156.6222
O=C1C2C3CN4C3C2C14	O=C1[C@H]2[C@H]3CN4[C@H]3[C@H]2[C@H]14	
InChI=1S/C7H7NO/c9-7-3-2-1-8-5(2)4(3)6(7)8/h2-6H,1H2	InChI=1S/C7H7NO/c9-7-3-2-1-8-5(2)4(3)6(7)8/h2-6H,1H2/t2-,3+,4+,5-,6-/m1/s1
