15
gdb 112149	2.62334	1.45746	1.20321	4.4817	65.65	-0.2777	-0.0436	0.2341	1054.2595	0.112814	-491.095515	-491.08743	-491.086486	-491.128994	29.412	
O	-0.3413909242	 1.4749241949	 0.2423747369	-0.409033
C	-0.0987115881	 0.0958156517	 0.109728759	-0.099543
C	-1.3945180359	-0.6924536969	-0.0588486803	 0.201358
O	-2.2291877777	-0.5493101604	 1.0791218082	-0.243663
C	-3.3709549209	 0.1219159148	 0.7386535062	 0.353918
N	-4.2988831696	 0.465828963	 1.512966273	-0.499874
C	-3.3137418271	 0.349067483	-0.7364132617	 0.329629
N	-4.1843859129	 0.9079326189	-1.4498159654	-0.496094
O	-2.1241248725	-0.1786409152	-1.1713275995	-0.264134
H	-0.6674312935	 1.7999250498	-0.6037391539	 0.299518
H	 0.5619664121	-0.141588562	-0.7375549046	 0.108929
H	 0.391961566	-0.239138849	 1.0285732583	 0.135405
H	-1.1982070956	-1.7590440083	-0.2237403389	 0.111603
H	-4.0933952561	 0.1932523749	 2.4753077014	 0.237394
H	-3.900958254	 0.9274000507	-2.4306813387	 0.234587
51.9043	85.267	160.6499	263.5603	306.7063	336.812	378.7008	420.854	541.4597	632.3822	641.224	769.544	776.3942	835.4254	878.9542	884.596	910.0789	915.1894	1010.2651	1031.746	1047.7021	1108.8763	1177.9219	1209.4807	1233.3193	1340.5701	1369.8655	1377.3817	1407.556	1417.7382	1484.3884	1769.6405	1815.1629	3000.907	3042.8644	3096.9781	3484.2612	3487.31	3816.0573
OCC1OC(=N)C(=N)O1	OC[C@H]1OC(=C([NH])O1)[NH]	
InChI=1S/C4H6N2O3/c5-3-4(6)9-2(1-7)8-3/h2,5-7H,1H2	InChI=1S/C4H6N2O3/c5-3-4(6)9-2(1-7)8-3/h2,5-7H,1H2
