18
gdb 65059	2.18654	1.7569	1.1488	5.6575	76.1	-0.2558	0.027	0.2827	1087.7727	0.148189	-398.091447	-398.082658	-398.081714	-398.124808	33.548	
N	 0.0239104488	 1.1597806393	-0.9164880974	-0.592316
C	 0.0176458888	-0.0874912089	-0.1864571368	 0.229878
C	 1.237362869	-0.9724579379	-0.263550361	-0.305902
C	 0.8987659293	-0.2696775699	 1.0294873473	-0.303249
C	-1.35991194	-0.7428092272	-0.2003297316	 0.170055
C	-2.5833504425	 0.1157150093	-0.1882343237	-0.261633
N	-2.2021893484	-0.6050933269	-1.4047740218	-0.336978
C	-1.4380882049	-2.0402424169	 0.4388196865	 0.255247
N	-1.475500863	-3.0619847029	 0.9790251371	-0.359849
H	 0.0583762365	 1.9648282702	-0.302705303	 0.242221
H	 0.8014787473	 1.2180033284	-1.5606365253	 0.243965
H	 1.0930453524	-2.0457332692	-0.3085437615	 0.148492
H	 2.0799700152	-0.6066065205	-0.8413281323	 0.112384
H	 1.506609318	 0.5786174431	 1.3254367333	 0.111654
H	 0.5312056154	-0.8746907074	 1.850719452	 0.142589
H	-3.4823385537	-0.242739508	 0.3027523721	 0.136655
H	-2.4176601261	 1.1882143283	-0.1538130972	 0.120776
H	-1.7121695221	 0.053044417	-2.0127425367	 0.246011
56.7482	150.0655	206.3317	218.4601	256.9705	283.1787	348.3452	369.7623	427.8056	497.3026	560.3882	582.3982	609.6902	770.0022	782.8493	843.6792	871.7952	905.2703	914.2642	946.0606	964.1481	996.338	1004.4797	1063.044	1084.6492	1091.7745	1129.5062	1191.2377	1221.8492	1247.3526	1293.2641	1318.9891	1354.4509	1365.4517	1461.7086	1488.3146	1497.6351	1656.2216	2353.8917	3121.3474	3133.7511	3136.8071	3215.4408	3218.9196	3231.2655	3458.0023	3531.5206	3614.8622
NC1(CC1)C1(CN1)C#N	NC1(CC1)[C@]1(CN1)C#N	
InChI=1S/C6H9N3/c7-3-6(4-9-6)5(8)1-2-5/h9H,1-2,4,8H2	InChI=1S/C6H9N3/c7-3-6(4-9-6)5(8)1-2-5/h9H,1-2,4,8H2/t6-/m1/s1
