15
gdb 123954	3.57329	1.68179	1.18341	2.6456	66.65	-0.2082	0.0048	0.2129	971.958	0.117214	-450.119205	-450.112416	-450.111472	-450.15034	26.358	
C	-0.0028953087	 1.4277355799	 0.0292460342	-0.185619
C	 1.4517991888	 1.9285040327	 0.0191254188	-0.092568
O	 2.1718111817	 1.5028833432	 1.1869350313	-0.263526
C	 1.9741251121	 0.1851187344	 1.4018840824	 0.358132
N	 2.755336458	-0.5866614933	 2.1413842168	-0.306342
N	 2.1592993445	-1.7764646617	 2.0250874652	-0.101002
N	 1.0531042991	-1.8350835537	 1.2780612577	-0.308746
C	 0.9155510893	-0.5775338046	 0.8680693237	 0.284493
N	-0.1128512056	-0.0330151286	 0.1018925015	-0.404904
H	-0.5128520198	 1.864836282	 0.8967214732	 0.131008
H	-0.5156040873	 1.7844713497	-0.8676609124	 0.117662
H	 1.9724145102	 1.5632552717	-0.8769044269	 0.109711
H	 1.486351848	 3.0198522287	 0.0291945037	 0.124405
H	 2.5328408449	-2.5936249396	 2.4747271941	 0.291862
H	-0.2604777652	-0.4916624208	-0.7865764236	 0.245433
115.789	241.8135	290.6863	327.7903	403.9915	450.2945	473.5832	538.0662	578.2517	685.7722	715.8058	743.6733	772.4284	882.4204	953.8148	977.2446	1047.4484	1078.1484	1130.676	1181.5477	1210.2104	1259.3527	1277.0414	1285.5533	1384.2969	1390.0997	1398.8485	1454.1149	1466.4023	1485.2414	1496.1577	1597.1888	1615.6999	3013.0224	3034.6139	3104.7423	3115.1234	3575.3669	3698.5975
C1COC2=NNN=C2N1	C1COc2n[nH]nc2N1	
InChI=1S/C4H6N4O/c1-2-9-4-3(5-1)6-8-7-4/h1-2H2,(H2,5,6,7,8)	InChI=1S/C4H6N4O/c1-2-9-4-3(5-1)6-8-7-4/h1-2H2,(H2,5,6,7,8)
