16
gdb 66397	2.31891	1.54235	1.28835	2.3989	77.07	-0.2503	0.0067	0.257	1059.266	0.122199	-400.686144	-400.677631	-400.676686	-400.719185	31.923	
C	-0.0545176489	 1.5910979002	-0.0008948562	-0.497232
C	 0.0468599205	 0.0964366923	-0.0003571521	 0.164122
C	 0.6575342518	-0.9295637668	-0.9244077614	 0.038573
O	 1.1413824245	-1.7177780273	 0.1850288928	-0.269576
C	 0.654533913	-0.7553681536	 1.0746975083	 0.404019
N	 0.7863763726	-0.6477131978	 2.3136065874	-0.553469
C	-0.8415085437	-0.8322676474	-0.8722426929	-0.304999
C	-1.6892956314	-1.8652299837	-0.3532848791	 0.336052
C	-2.4126747731	-2.7232274317	 0.0769543407	-0.422464
H	 0.8937777139	 2.0460550859	 0.3006976084	 0.139891
H	-0.317216749	 1.9677359214	-0.9937745607	 0.124324
H	-0.8244346286	 1.9240534466	 0.7020656658	 0.149056
H	 1.2861327757	-0.8581457765	-1.802063278	 0.129237
H	 1.3170596802	-1.4285380045	 2.7030882339	 0.235005
H	-1.2552462882	-0.2776505231	-1.713416473	 0.126659
H	-3.0445510892	-3.4843975439	 0.462788476	 0.200801
98.3596	127.6157	154.1163	194.6663	246.0809	294.4681	363.0948	455.987	483.6195	603.2299	623.2902	656.824	663.7222	715.1857	739.6382	824.0642	870.1158	876.6879	912.3778	936.0029	981.6181	1012.7426	1037.1665	1104.9789	1106.8029	1179.5438	1253.2719	1270.4854	1340.5202	1416.8042	1455.6899	1482.2746	1496.2622	1836.1289	2241.8163	3040.2178	3108.7394	3113.4089	3124.4052	3210.5847	3482.5991	3504.0986
CC12C(OC1=N)C2C#C	C[C@@]12[C@@H](O[C]1[NH])[C@H]2C#C	
InChI=1S/C7H7NO/c1-3-4-5-7(4,2)6(8)9-5/h1,4-5,8H,2H3	InChI=1S/C7H7NO/c1-3-4-5-7(4,2)6(8)9-5/h1,4-5,8H,2H3/t4-,5+,7-/m1/s1
