21
gdb 63551	3.00735	1.29285	1.10171	1.3157	83.83	-0.2294	0.035	0.2645	1190.0288	0.181695	-387.090731	-387.081743	-387.080799	-387.124395	35.112	
C	-0.1081123396	 1.5310276913	 0.0537417902	-0.447696
C	 0.0000884404	 0.0227372313	 0.0608552453	 0.355037
O	-1.1848587474	-0.6261126387	-0.3331222659	-0.460423
C	 1.3059766794	-0.6529727596	-0.2852689282	-0.408206
C	 0.7636938296	-0.710660992	 1.1326210485	 0.312341
C	 1.4782913528	 0.0279465143	 2.2796519144	-0.342236
C	 1.4460091482	-0.9720634524	 3.4088644135	-0.064894
C	 0.772476032	-2.0756503332	 3.0927610621	-0.063105
C	 0.2214272716	-2.0400543196	 1.6906421303	-0.324622
H	 0.823818564	 2.0064791136	 0.3703112958	 0.120322
H	-0.3356782253	 1.8930438507	-0.9567183354	 0.104724
H	-0.9122449574	 1.8656061059	 0.7176817458	 0.124608
H	-1.3113627093	-0.46382823	-1.2744085311	 0.279854
H	 1.2524272781	-1.5633613664	-0.8746988116	 0.105556
H	 2.1766218781	-0.0321084334	-0.4789096103	 0.101451
H	 2.5037183666	 0.3163294526	 2.0115172378	 0.101553
H	 0.9659299005	 0.9580613611	 2.5633324435	 0.105153
H	 1.9145126813	-0.7749629257	 4.3669907742	 0.087434
H	 0.6089178614	-2.9184742108	 3.7557687692	 0.088174
H	-0.8749356702	-2.06627806	 1.6796384102	 0.123914
H	 0.5489148352	-2.9025761188	 1.0961622418	 0.101061
42.0455	163.1236	184.8129	220.6924	261.653	296.4261	379.258	391.2288	415.4363	450.194	454.6612	573.3829	674.9828	729.7269	778.4333	784.3454	882.9409	905.144	922.1006	958.963	977.2014	977.9514	984.3774	997.3192	1024.7745	1056.6805	1080.5539	1131.0184	1144.2046	1165.6209	1203.4512	1212.4428	1270.8663	1284.1537	1297.7808	1336.7029	1370.9283	1402.9879	1418.3433	1477.4278	1483.0377	1486.7206	1489.8737	1505.2893	1695.8787	3000.8062	3020.7787	3023.4665	3024.9398	3049.1189	3084.419	3109.9655	3117.2799	3178.3625	3201.1955	3204.0918	3795.23
CC1(O)CC11CC=CC1	C[C@@]1(O)C[C@]21CC=CC2	
InChI=1S/C8H12O/c1-7(9)6-8(7)4-2-3-5-8/h2-3,9H,4-6H2,1H3	InChI=1S/C8H12O/c1-7(9)6-8(7)4-2-3-5-8/h2-3,9H,4-6H2,1H3/t7-/m1/s1
