14
gdb 131445	3.28189	1.5843	1.08434	2.2774	64.06	-0.2168	-0.003	0.2137	1029.4171	0.102566	-473.794407	-473.787393	-473.786449	-473.826192	26.383	
O	 0.1354947291	 1.3670701195	 0.1034015761	-0.416686
C	 0.0767449734	 0.0285656244	 0.0805075954	 0.326455
N	 0.0898021867	-0.6514944985	-1.05302309	-0.260614
O	 0.0188498121	-2.0173146581	-0.7053008275	-0.230061
C	-0.0392814786	-2.0742616435	 0.630696823	 0.311973
C	-0.0057725809	-0.8517426723	 1.1875125928	 0.186767
O	-0.0275893069	-0.8226565859	 2.5466011749	-0.294251
C	-0.256745913	-2.2174113809	 2.9311321394	-0.094684
C	-0.0662441283	-3.1427534262	 1.6712160494	-0.377407
H	 0.1869653344	 1.6715734994	-0.8130100691	 0.313377
H	 0.4387581941	-2.4511069207	 3.738708658	 0.131577
H	-1.2811316645	-2.2885103546	 3.3093828488	 0.128929
H	-0.8900955097	-3.8552877294	 1.5718986716	 0.137618
H	 0.867469602	-3.7160563832	 1.7099351273	 0.137008
86.9131	156.4363	271.4436	276.6139	385.2333	460.0991	513.9432	604.5565	615.72	637.2356	713.1204	762.9087	814.131	833.4995	922.9466	949.423	964.9687	1073.2576	1095.907	1189.7285	1202.7646	1235.7236	1270.5098	1295.0582	1371.9342	1402.6174	1490.4274	1512.9508	1519.3125	1604.8163	1715.0939	3034.6727	3055.5854	3082.7177	3124.2373	3774.8043
OC1=NOC2=C1OCC2	Oc1noc2c1OCC2	
InChI=1S/C5H5NO3/c7-5-4-3(9-6-5)1-2-8-4/h1-2H2,(H,6,7)	InChI=1S/C5H5NO3/c7-5-4-3(9-6-5)1-2-8-4/h1-2H2,(H,6,7)
