18
gdb 118948	2.61622	1.06374	0.98186	1.0764	69.13	-0.26	0.0088	0.2688	1285.1254	0.145728	-476.206172	-476.196374	-476.19543	-476.241421	34.595	
O	-0.0243022915	 1.4341508933	 0.071115697	-0.425663
C	 0.0703538134	 0.0159047489	 0.0315114241	-0.089241
C	-1.356420943	-0.522175956	 0.0665244852	-0.214236
C	-1.4296184649	-2.0447715248	 0.0157336361	 0.25848
O	-0.7599963309	-2.567869391	 1.1371018795	-0.470143
C	-2.847864747	-2.6080315131	-0.2985110855	-0.132108
O	-2.3823996255	-3.0369382333	-1.620183217	-0.253991
C	-1.0861492259	-2.6816094684	-1.331446813	 0.360666
N	-0.0138197536	-2.8908005873	-1.9483359045	-0.543326
H	 0.8683935694	 1.7907453222	 0.0594418161	 0.286397
H	 0.5756506162	-0.3304167489	-0.8815034778	 0.113541
H	 0.6280513936	-0.3769847425	 0.892033734	 0.103154
H	-1.8446401129	-0.1846738595	 0.9884029455	 0.118452
H	-1.9192493672	-0.1003398889	-0.773181192	 0.114653
H	-0.3602056002	-3.4095213418	 0.8939572379	 0.295176
H	-3.1336299868	-3.4668687325	 0.3133760188	 0.121253
H	-3.6672444222	-1.891355494	-0.3820117384	 0.124138
H	-0.1707769609	-3.4066668426	-2.8163650659	 0.232799
75.2474	92.6583	103.5657	131.2289	176.6216	231.0423	251.9767	301.1514	339.1268	381.6268	443.4245	535.4136	689.5032	755.5234	768.3135	815.3405	872.2279	918.6248	956.6369	982.1934	1010.6831	1028.4147	1059.4437	1095.4617	1146.9447	1156.1929	1196.8036	1231.5658	1254.573	1261.5248	1320.6215	1335.8179	1355.3514	1401.0133	1463.0945	1479.457	1508.1707	1534.7071	1815.6141	3000.458	3036.1636	3041.2865	3065.7281	3089.724	3133.9735	3471.1531	3817.9084	3833.7276
OCCC1(O)COC1=N	OCC[C@@]1(O)CO[C]1[NH]	
InChI=1S/C5H9NO3/c6-4-5(8,1-2-7)3-9-4/h6-8H,1-3H2	InChI=1S/C5H9NO3/c6-4-5(8,1-2-7)3-9-4/h6-8H,1-3H2/t5-/m1/s1
