16
gdb 33477	2.20717	1.72583	1.17632	1.9817	80.86	-0.2389	0.0298	0.2688	1067.2455	0.122162	-363.485167	-363.47679	-363.475846	-363.517828	32.546	
C	 0.0546044905	-1.2267274361	-0.0612504213	-0.454361
C	 0.0314094144	-0.0262516793	-0.0268228533	 0.308858
C	 0.001284306	 1.4297727903	 0.0186145794	-0.025243
C	-0.235352513	 2.1038654044	 1.4519455277	-0.27268
C	 1.1197663943	 2.7964333786	 1.3102642994	-0.029972
N	 2.1199877182	 1.7084025016	 1.1933306683	-0.3278
C	 1.3814650081	 2.1556744069	-0.0010086871	-0.094117
C	-0.8999812653	 1.9807817813	-0.987657229	 0.247833
C	-1.6283154716	 2.4623390326	-1.8132334919	-0.431119
H	 0.0809420536	-2.2877193274	-0.0920176229	 0.19379
H	-1.0914651762	 2.7773769952	 1.4281042802	 0.126933
H	-0.3166026811	 1.3980847827	 2.2797253101	 0.123341
H	 1.3987170323	 3.7787433706	 1.6686170885	 0.099287
H	 3.0429698081	 2.1393219131	 1.1478987558	 0.23355
H	 1.8818454288	 2.5137944962	-0.8913514209	 0.106206
H	-2.2782569169	 2.8710849293	-2.5468206329	 0.195493
124.2272	125.3151	161.1117	172.777	301.7981	411.9095	466.7881	475.3278	542.1001	566.3432	580.4154	625.9661	627.0248	633.0234	645.1403	762.7157	821.0076	843.1654	893.4424	941.4233	950.0663	976.119	1013.6958	1076.6157	1098.4555	1123.0285	1146.4285	1219.9117	1242.2975	1286.7442	1312.7052	1377.2712	1467.7406	2237.1105	2241.0799	3087.5877	3157.9934	3194.823	3208.1837	3477.973	3502.5781	3503.3776
C#CC1(CC2NC12)C#C	C#CC1(C[C@H]2N[C@@H]12)C#C	
InChI=1S/C8H7N/c1-3-8(4-2)5-6-7(8)9-6/h1-2,6-7,9H,5H2	InChI=1S/C8H7N/c1-3-8(4-2)5-6-7(8)9-6/h1-2,6-7,9H,5H2/t6-,7-/m1/s1
