22
gdb 65505	3.35499	1.22105	1.1863	0.839	86.22	-0.2231	0.0869	0.31	1182.168	0.19408	-367.14687	-367.138281	-367.137337	-367.180051	34.275	
C	 0.1500807932	 1.6855055058	-0.1096074144	-0.47951
C	 0.1055665036	 0.1575229543	-0.0652538095	 0.338263
C	 1.2045014671	-0.6013647444	-0.8970475412	-0.275269
C	 1.6624769083	-1.3143479878	 0.3802348002	-0.024351
C	 2.120662156	-0.3076273837	 1.394870317	-0.300591
C	 0.6455979308	-0.5306172816	 1.2064777335	-0.057178
N	-1.1868471679	-0.4704537115	-0.3710383006	-0.097629
C	-2.4297724093	 0.0644200773	 0.1627116253	-0.233364
C	-2.1328380605	 0.1306388688	-1.2986316753	-0.231895
H	 1.1366537477	 2.0438070932	 0.1942552807	 0.119522
H	-0.0310619207	 2.0666144403	-1.1199201761	 0.11742
H	-0.5804024987	 2.141415881	 0.567000769	 0.115852
H	 0.7416131549	-1.2626902871	-1.6301019283	 0.110716
H	 1.9589330127	 0.0212965154	-1.3904692166	 0.083387
H	 1.9280739017	-2.3616541553	 0.4507594148	 0.081258
H	 2.525127398	-0.7195288124	 2.3143889682	 0.109448
H	 2.6033702548	 0.6153060362	 1.0811712386	 0.10014
H	 0.0085562733	-0.8757610363	 2.0122224097	 0.080916
H	-3.1260192314	-0.6720577014	 0.5558918576	 0.112882
H	-2.4178180755	 1.0064170834	 0.7069111968	 0.10888
H	-1.9279552464	 1.1156836378	-1.7112051203	 0.10854
H	-2.6086690417	-0.557286242	-1.9928819492	 0.112563
48.2961	163.5201	195.4245	224.4394	298.8593	315.879	367.0233	405.3743	458.358	489.3105	613.0662	726.8374	779.8412	797.1008	826.1651	839.4214	872.7923	921.3238	938.1399	956.7273	968.7792	991.0184	996.33	1032.4965	1044.7579	1067.9936	1086.9422	1108.7346	1118.9961	1135.319	1154.7052	1161.4466	1177.9338	1192.947	1199.4459	1243.091	1255.4499	1305.9711	1331.0076	1361.1539	1405.7846	1470.3199	1482.83	1485.7215	1498.0101	1509.0748	1524.7411	3035.806	3040.9555	3094.4417	3101.6465	3103.1889	3104.4742	3116.6098	3126.5176	3172.5543	3176.9032	3184.1809	3187.4945	3197.5853
CC1(CC2CC12)N1CC1	C[C@]1(C[C@H]2C[C@@H]12)N1CC1	
InChI=1S/C8H13N/c1-8(9-2-3-9)5-6-4-7(6)8/h6-7H,2-5H2,1H3	InChI=1S/C8H13N/c1-8(9-2-3-9)5-6-4-7(6)8/h6-7H,2-5H2,1H3/t6-,7-,8-/m1/s1
