19
gdb 70381	2.44081	1.51544	1.31765	1.0997	81.53	-0.2489	0.0337	0.2825	1077.7179	0.156693	-385.828648	-385.819472	-385.818527	-385.86179	35.682	
C	-0.0996262804	 1.5490501026	 0.0781650978	-0.507256
C	 0.0398081433	 0.0549824294	 0.0322434434	 0.349197
C	-0.8496791478	-0.8804481108	 0.8096566544	-0.334704
C	 0.6337577345	-0.9410277523	 1.0364596822	-0.081772
C	 1.2776889012	-1.75334257	-0.0863070297	-0.29605
C	 0.6743035234	-0.7317240268	-1.1346372591	 0.153855
O	-0.3013644871	-1.2317149723	-2.0359364861	-0.470269
C	 1.7134080787	 0.0029765223	-1.8502732724	 0.279205
C	 2.57100195	 0.577685149	-2.4678942717	-0.465489
H	 0.837083599	 2.0469509998	-0.1915750083	 0.126508
H	-0.8743658263	 1.8929727418	-0.6169635309	 0.127628
H	-0.3849045654	 1.8792594977	 1.0821610686	 0.11441
H	-1.4271883244	-0.3927521254	 1.588953677	 0.107445
H	-1.3642672495	-1.6974165185	 0.3127601178	 0.121444
H	 1.086887311	-0.7330651222	 1.9977178078	 0.084188
H	 2.3685166176	-1.7432211154	-0.0834566006	 0.113223
H	 0.9177189185	-2.7800875024	-0.2069192988	 0.099203
H	 0.159322186	-1.5964779276	-2.7994903918	 0.281999
H	 3.3251405276	 1.092047761	-3.0109372398	 0.197235
114.3554	134.261	189.178	200.8923	247.1939	278.1406	314.0576	360.614	431.5797	461.9541	513.5551	528.313	619.8266	651.5197	659.5572	666.5051	783.9239	843.2364	879.2472	891.7736	963.3118	977.3106	982.3263	1028.1731	1049.9821	1084.9321	1086.1988	1115.8499	1164.4349	1207.8676	1232.5978	1266.2723	1280.567	1364.2197	1384.2813	1420.1301	1472.9965	1483.2318	1499.3603	1502.1851	2226.6498	3028.1107	3049.827	3090.4357	3104.1155	3119.7745	3124.4529	3188.0483	3205.986	3499.7814	3807.3154
CC12CC1CC2(O)C#C	C[C@]12C[C@H]1C[C@]2(O)C#C	
InChI=1S/C8H10O/c1-3-8(9)5-6-4-7(6,8)2/h1,6,9H,4-5H2,2H3	InChI=1S/C8H10O/c1-3-8(9)5-6-4-7(6,8)2/h1,6,9H,4-5H2,2H3/t6-,7-,8+/m0/s1
