22
gdb 81798	2.02194	1.76009	1.2833	1.4728	86.09	-0.2375	0.0857	0.3232	1130.4617	0.193866	-367.167276	-367.15827	-367.157326	-367.200308	35.495	
C	-0.0979212145	 1.5392956744	-0.0222952867	-0.398432
C	 0.002468557	 0.0186231152	-0.0102685678	-0.099128
C	 1.1353379711	-0.5540854315	-0.8867949078	-0.092496
N	 1.2928062002	-1.9954629366	-0.7072740649	-0.375532
C	 1.8548503652	-1.1062595555	 0.3137455344	 0.281973
C	 3.309450021	-1.2098713113	 0.658055479	-0.50228
C	 0.7362430655	-0.5929216178	 1.2142450152	 0.317863
C	 0.8955334609	 0.0310790118	 2.5669106533	-0.334058
C	 0.1571910858	-1.2817592739	 2.4184257654	-0.335515
H	 0.8754237749	 2.0004166177	 0.1753174547	 0.118322
H	-0.4498833136	 1.8968265118	-0.9962310005	 0.114253
H	-0.8001636111	 1.9001587924	 0.7365602841	 0.113825
H	-0.9798972571	-0.4238782565	-0.2232269071	 0.064796
H	 1.5265490104	-0.1025586626	-1.7930603868	 0.087526
H	 0.4294542523	-2.4424780833	-0.4008621703	 0.221627
H	 3.8889351386	-1.4657216423	-0.2325976715	 0.133709
H	 3.6892021992	-0.2672166182	 1.0655823905	 0.117649
H	 3.485254343	-1.9942856488	 1.4046972806	 0.117896
H	 1.8794926178	 0.0107563629	 3.025063282	 0.113419
H	 0.319567356	 0.9208342626	 2.8005631314	 0.111803
H	-0.9213473262	-1.27279404	 2.542385267	 0.110892
H	 0.6383118035	-2.1848940706	 2.7814992055	 0.111889
103.899	193.2283	203.9567	208.8094	223.383	243.2551	284.5234	360.3176	408.6389	500.1883	518.3322	573.8959	643.6184	766.5002	789.8265	817.6064	868.6264	890.2078	917.6706	941.6139	973.0853	977.7205	1027.1574	1049.4201	1060.8823	1077.7231	1080.5867	1097.9963	1112.5948	1129.5447	1187.614	1191.405	1211.3585	1245.7817	1257.0113	1297.7164	1350.6568	1379.9415	1399.6786	1408.9511	1448.5932	1464.6415	1485.5275	1493.4884	1495.3675	1497.0483	1506.3788	3010.1819	3026.1208	3028.8334	3086.0545	3094.3103	3101.9576	3119.2542	3120.8348	3124.1835	3161.0762	3196.0414	3210.9148	3451.4935
CC1C2NC2(C)C11CC1	C[C@H]1[C@@H]2N[C@]2(C)C21CC2	
InChI=1S/C8H13N/c1-5-6-7(2,9-6)8(5)3-4-8/h5-6,9H,3-4H2,1-2H3	InChI=1S/C8H13N/c1-5-6-7(2,9-6)8(5)3-4-8/h5-6,9H,3-4H2,1-2H3/t5-,6-,7-/m0/s1
