19
gdb 83239	2.95014	1.34461	1.21038	2.2549	77.89	-0.2179	0.0137	0.2316	1120.5314	0.159569	-423.010536	-423.002283	-423.001339	-423.043134	32.195	
C	 0.0208170377	 1.5081685388	 0.1025619626	-0.481074
C	-0.0429051945	 0.015135348	-0.0334710376	 0.275532
C	-1.1596917331	-0.7056914092	 0.0863732451	-0.147813
C	-1.1406631326	-2.1839529309	-0.0032910703	-0.170362
C	-1.0941868039	-2.9175912818	-1.349767272	 0.108517
O	-1.1307140837	-2.230019646	-2.5512433887	-0.422286
C	 0.1454077368	-2.8050808941	-0.5005334383	 0.003729
O	 1.0920848543	-1.9194348876	-1.0410950433	-0.271601
C	 1.26102267	-0.701875173	-0.3144755902	-0.162816
H	 0.7250772625	 1.8072539027	 0.890281821	 0.125492
H	 0.3720724006	 1.9809515139	-0.8239583981	 0.126591
H	-0.9579707544	 1.9270642944	 0.3502242033	 0.127129
H	-2.1152708812	-0.2182731951	 0.2627757591	 0.088976
H	-1.662858595	-2.7145099682	 0.789016527	 0.094137
H	-1.6060036082	-3.8739112009	-1.4022991444	 0.100964
H	-0.2756047277	-1.7810776405	-2.619749175	 0.289807
H	 0.582093291	-3.6706394573	-0.0070822511	 0.091755
H	 1.9137100793	-0.0830365142	-0.9396637891	 0.114276
H	 1.8027830922	-0.8952129091	 0.6261625101	 0.109049
100.8952	143.1211	186.2751	250.396	297.5616	326.5256	406.7379	425.6602	481.6539	530.7798	579.8004	640.1458	734.7866	771.7377	797.3897	863.6764	902.2287	917.7873	958.8374	999.9453	1032.0281	1053.3574	1058.4469	1085.9861	1111.1489	1135.197	1163.274	1197.4129	1229.7183	1272.1318	1324.3146	1337.6636	1369.8931	1373.7819	1409.0314	1414.6625	1449.3473	1477.8633	1488.9893	1493.6068	1735.1784	2971.0584	3012.283	3056.4096	3065.7174	3113.0544	3119.2564	3134.9273	3155.0028	3158.1136	3728.0874
CC1=CC2C(O)C2OC1	CC1=C[C@H]2[C@@H](O)[C@H]2OC1	
InChI=1S/C7H10O2/c1-4-2-5-6(8)7(5)9-3-4/h2,5-8H,3H2,1H3	InChI=1S/C7H10O2/c1-4-2-5-6(8)7(5)9-3-4/h2,5-8H,3H2,1H3/t5-,6+,7-/m0/s1
