15
gdb 28487	3.12399	1.42386	0.98409	2.3603	71.36	-0.2243	-0.0367	0.1876	1127.7428	0.113267	-454.017233	-454.009224	-454.008279	-454.049686	30.039	
C	-0.0095652118	 1.502437098	 0.0404697608	-0.522895
C	 0.0343806423	-0.0015578002	 0.0190663785	 0.220929
N	 0.0150782086	-0.6078793244	-1.1708832634	-0.333312
C	 0.0545734278	-1.9350888661	-1.1678879292	 0.434127
O	 0.0340244966	-2.5220372257	-2.3783111903	-0.399134
N	 0.1117223452	-2.7369335815	-0.1033230782	-0.347626
C	 0.1307852404	-2.12866028	 1.0815232477	-0.047704
C	 0.0936047294	-0.7450439114	 1.2052134875	 0.269224
O	 0.1165628678	-0.1970654341	 2.4549041074	-0.440128
H	 0.8792858144	 1.9249376073	 0.5268774118	 0.13716
H	-0.0525119906	 1.8777548558	-0.9820509268	 0.161589
H	-0.889968639	 1.8724678105	 0.5818865604	 0.137153
H	 0.0674027814	-3.4733681907	-2.2138758105	 0.303251
H	 0.1771506132	-2.7519741239	 1.9709698097	 0.12592
H	 0.0853848443	 0.7619805662	 2.3857567844	 0.301447
115.9065	137.0887	208.1254	259.0746	286.2531	352.6965	397.7058	460.8847	498.2116	538.6828	539.2253	587.2535	652.9351	762.3547	795.2186	818.3298	964.3023	969.7686	1027.1638	1053.3081	1158.5979	1211.0564	1243.1677	1297.7543	1330.5902	1395.7841	1403.3697	1468.7339	1482.803	1486.9007	1513.6272	1614.1965	1656.7695	3016.2471	3065.4798	3151.4051	3167.3483	3793.2249	3837.0384
CC1=NC(O)=NC=C1O	Cc1nc(O)ncc1O	
InChI=1S/C5H6N2O2/c1-3-4(8)2-6-5(9)7-3/h2,8H,1H3,(H,6,7,9)	InChI=1S/C5H6N2O2/c1-3-4(8)2-6-5(9)7-3/h2,8H,1H3,(H,6,7,9)
