17
gdb 76774	2.11273	1.73782	1.11364	2.1095	69.47	-0.2382	-0.051	0.1871	1097.64	0.133264	-458.934241	-458.92517	-458.924226	-458.968603	32.761	
C	-0.5373302029	 1.3355963692	-0.080688406	-0.408953
C	-0.0115193898	-0.0925980962	-0.05397728	-0.110578
C	 1.24272808	-0.4288376875	-0.9309475228	-0.026562
O	 1.9146185238	 0.7321668386	-1.3748296018	-0.420585
C	 1.9063541666	-1.0623128339	 0.3270177411	 0.310225
O	 2.9277034609	-1.6573261065	 0.5159473146	-0.302912
C	 0.7631753356	-0.5655530279	 1.1948055805	 0.326568
C	 0.867576582	 0.0295539555	 2.5394716101	-0.243178
O	 0.2296295038	-1.2260710519	 2.3248045079	-0.25989
H	 0.2651523993	 2.0522595987	 0.1067171081	 0.133918
H	-0.9748628888	 1.5722024573	-1.0549807317	 0.1276
H	-1.3151842974	 1.4718782837	 0.6774912462	 0.120052
H	-0.8129559567	-0.8044315068	-0.2772158977	 0.098244
H	 1.0520816698	-1.1354414165	-1.75024324	 0.09166
H	 2.8068778582	 0.4735645277	-1.6314851688	 0.299217
H	 1.8195453553	-0.0109137593	 3.065811134	 0.136314
H	 0.20821345	 0.8562882357	 2.7981430963	 0.128858
31.2333	166.1245	185.1475	207.5304	226.0005	240.4543	252.976	301.6514	348.1095	477.0225	560.2073	586.1274	700.7409	770.8893	811.3936	834.4754	919.2629	921.839	979.978	1037.1378	1069.485	1109.9058	1127.2703	1157.1059	1159.0692	1165.0943	1198.5649	1262.5749	1294.2008	1355.691	1376.8662	1403.7595	1425.2281	1493.8735	1498.5887	1518.4796	1888.9217	3008.6515	3043.7557	3060.5419	3088.6915	3108.0989	3132.3967	3184.3629	3806.4826
CC1C(O)C(=O)C11CO1	C[C@H]1[C@@H](O)C(=O)[C@]21CO2	
InChI=1S/C6H8O3/c1-3-4(7)5(8)6(3)2-9-6/h3-4,7H,2H2,1H3	InChI=1S/C6H8O3/c1-3-4(7)5(8)6(3)2-9-6/h3-4,7H,2H2,1H3/t3-,4+,6+/m0/s1
