17
gdb 102425	3.02851	0.75251	0.64846	4.651	83.84	-0.2425	-0.0453	0.1972	1696.5156	0.134866	-417.971942	-417.961874	-417.96093	-418.007923	34.818	
C	 0.0256821169	 1.4788289195	-0.0538118384	-0.32276
N	-0.0112681701	 0.0242498231	 0.060582554	-0.269269
C	-1.3549626933	-0.5491026201	 0.0081075471	-0.207343
C	-1.9499893153	-0.6287096129	-1.4248822765	-0.079528
O	-1.1024820085	-1.3548685673	-2.292005036	-0.41284
C	-1.3389098433	-1.8933113373	 0.5939040262	 0.069143
C	-1.3375458114	-3.023372075	 1.0233697033	 0.105153
C	-1.3336884544	-4.2943213152	 1.5229131521	 0.201514
N	-1.3335980359	-5.3779983579	 1.9414450527	-0.333551
H	 1.0691068095	 1.8044682873	-0.0435103558	 0.132551
H	-0.446865973	 1.8911859299	-0.9607282643	 0.104927
H	-0.468936821	 1.9247792201	 0.816139979	 0.128624
H	 0.5336537359	-0.4025790281	-0.6828589392	 0.233198
H	-2.0178036393	 0.078282368	 0.620332593	 0.121808
H	-2.965988024	-1.0463954915	-1.3885799154	 0.107861
H	-2.0147735425	 0.3832478867	-1.8349783407	 0.12479
H	-1.1423874903	-2.2843453095	-2.0389987311	 0.295721
59.5512	78.5819	86.3376	138.275	192.7447	225.3204	236.9534	290.7878	353.0418	383.142	406.912	504.9697	570.7218	582.3249	649.8286	729.8048	798.5905	885.2578	956.3684	1025.1537	1079.8815	1123.7608	1145.3829	1162.6705	1183.9384	1217.4317	1281.9487	1346.7685	1384.7185	1411.7828	1458.363	1485.3546	1494.4621	1502.7034	1520.6137	2261.2788	2399.2456	2966.7934	3007.2748	3022.3912	3063.139	3093.864	3113.6572	3517.8652	3799.1914
CNC(CO)C#CC#N	CN[C@@H](CO)C#CC#N	
InChI=1S/C6H8N2O/c1-8-6(5-9)3-2-4-7/h6,8-9H,5H2,1H3	InChI=1S/C6H8N2O/c1-8-6(5-9)3-2-4-7/h6,8-9H,5H2,1H3/t6-/m1/s1
