17
gdb 115128	3.08803	1.27325	0.9327	6.0293	70.26	-0.2258	-0.0637	0.1622	1221.4367	0.136803	-455.177523	-455.168824	-455.16788	-455.211384	31.487	
C	-0.0239881724	 1.5225751695	-0.03661296	-0.330081
N	 0.123608129	 0.0713893507	 0.0899399075	-0.289996
C	 0.6098646459	-0.5815159072	-1.1093871436	-0.085016
C	 1.0243733159	-2.047994495	-0.8569668923	-0.206098
N	 0.6447819374	-2.7373095279	-2.0815242471	-0.320841
C	-0.2423470437	-2.084036435	-2.889288211	 0.329894
O	-0.768811154	-2.4920397232	-3.8962054283	-0.349786
C	-0.4331956451	-0.6985995367	-2.2266158294	 0.32276
O	-1.2603444275	 0.10534203	-2.5555128868	-0.284173
H	 0.9055686282	 2.0344110081	-0.3428564688	 0.09464
H	-0.7931276868	 1.7434694955	-0.7777527162	 0.165523
H	-0.3416321881	 1.9315731771	 0.9260726018	 0.120697
H	 0.7625227049	-0.1327849022	 0.8520678307	 0.223165
H	 1.4706697219	-0.0586594066	-1.5784376845	 0.094728
H	 2.096990996	-2.1506928427	-0.6661423107	 0.121934
H	 0.4774895106	-2.4336399233	 0.0133551112	 0.129912
H	 0.8870566777	-3.699583081	-2.2607845725	 0.262739
53.1217	122.0592	157.9756	200.49	234.8696	283.4291	327.295	386.3574	439.7131	540.357	570.3799	611.7119	667.6272	729.2125	770.518	841.5121	940.3134	1013.385	1049.4216	1061.9232	1083.3785	1143.2347	1175.7075	1207.3099	1234.0225	1260.4983	1292.73	1333.0868	1367.9602	1447.0676	1456.5924	1483.9939	1500.6256	1525.7137	1532.406	1845.3067	1865.072	2872.7901	2950.7789	3019.4239	3074.2117	3089.7351	3148.1354	3506.5789	3631.6388
CNC1CNC(=O)C1=O	CN[C@H]1CNC(=O)C1=O	
InChI=1S/C5H8N2O2/c1-6-3-2-7-5(9)4(3)8/h3,6H,2H2,1H3,(H,7,9)	InChI=1S/C5H8N2O2/c1-6-3-2-7-5(9)4(3)8/h3,6H,2H2,1H3,(H,7,9)/t3-/m0/s1
