17
gdb 88712	3.58976	0.97536	0.8376	0.2842	76.12	-0.2631	0.0142	0.2774	1376.1539	0.132689	-421.744623	-421.735524	-421.73458	-421.77924	33.051	
C	-0.3391919496	 1.4346908436	 0.1285634479	-0.422762
C	-0.0712551961	-0.0473711822	 0.1750760998	 0.082077
O	 1.2523485675	-0.4988169539	-0.1341873872	-0.258953
C	 0.7536230587	-0.7314476479	 1.1877635332	 0.012288
C	 1.4614752742	-0.0057662879	 2.2836777342	 0.039228
O	 0.8738822902	-0.0887564064	 3.5807069436	-0.244519
C	 2.1488574968	-0.7242114859	 3.3838689714	-0.162014
C	 2.1972283804	-2.1588037264	 3.4663219347	 0.340611
C	 2.2719973929	-3.3554208538	 3.5515710359	-0.417591
H	 0.4576373066	 2.0120797329	 0.6010568959	 0.127856
H	-0.4264806345	 1.7671243675	-0.9109079418	 0.132418
H	-1.2826982215	 1.6636352179	 0.6350395807	 0.131346
H	-0.8502207472	-0.6590036929	-0.2851534604	 0.094903
H	 0.524995784	-1.7718597242	 1.4168020417	 0.108924
H	 1.8576259034	 0.9735362798	 2.0180911645	 0.10754
H	 2.976077688	-0.2085654726	 3.8711239567	 0.121507
H	 2.3329301063	-4.4133414075	 3.6261674894	 0.207141
38.6826	100.665	145.0347	181.316	215.3492	246.2582	317.9902	397.295	436.7595	522.2475	551.1397	617.9914	634.6968	677.1437	774.3767	805.9106	858.9513	873.0157	972.0503	986.5077	998.9086	1062.1273	1092.2405	1133.5306	1139.8978	1170.7725	1196.3065	1269.134	1296.8596	1324.1656	1395.9567	1412.3963	1437.4551	1478.9075	1491.3704	1517.3101	2240.8675	3043.0993	3085.5563	3104.6723	3110.6558	3120.4444	3126.3059	3139.6684	3501.6285
CC1OC1C1OC1C#C	C[C@H]1O[C@H]1[C@H]1O[C@H]1C#C	
InChI=1S/C7H8O2/c1-3-5-7(9-5)6-4(2)8-6/h1,4-7H,2H3	InChI=1S/C7H8O2/c1-3-5-7(9-5)6-4(2)8-6/h1,4-7H,2H3/t4-,5+,6-,7+/m1/s1
