21
gdb 92614	3.61133	1.23916	1.04722	1.5821	85.2	-0.226	0.0168	0.2427	1224.9105	0.184272	-387.112984	-387.104817	-387.103873	-387.145832	31.964	
C	 0.163657967	 1.5406260114	-0.0955207461	-0.387559
C	-0.0066836197	 0.0334470793	 0.0686488368	 0.105384
O	 0.5226742615	-0.6341881758	-1.0935617054	-0.29742
C	 1.2505117287	-1.7750098109	-0.6766497279	 0.074191
C	 2.6894309286	-1.9461209067	-1.1884335683	-0.238887
C	 3.3181738304	-2.8471646683	-0.0914858591	-0.20925
C	 2.621415708	-2.4494697776	 1.2573681967	-0.329837
C	 1.4706599383	-1.5992534539	 0.8027888967	 0.346436
C	 0.7637962059	-0.5620495443	 1.2318382757	-0.297994
H	 1.224462257	 1.8035506401	-0.1423897851	 0.117073
H	-0.3184152563	 1.8733769562	-1.019207247	 0.125124
H	-0.2958913842	 2.0739149821	 0.7433325028	 0.109322
H	-1.0856392045	-0.1916499259	 0.1453136362	 0.074617
H	 0.6741008324	-2.6910408582	-0.9032261582	 0.068618
H	 2.7626758194	-2.383272221	-2.1875332512	 0.097247
H	 3.1684119588	-0.9611420027	-1.2083393531	 0.105058
H	 3.1118129086	-3.8989868812	-0.315051049	 0.105981
H	 4.404735386	-2.7435757253	-0.0430676572	 0.104129
H	 2.2991111471	-3.3393317335	 1.8095296594	 0.113988
H	 3.2897350266	-1.8942859811	 1.9224338564	 0.116769
H	 0.7512363405	-0.1268686129	 2.2238124669	 0.09701
70.9732	135.9312	172.0431	227.4652	310.8974	325.2049	407.0023	465.2384	561.0742	634.4196	655.9441	709.92	782.5575	837.6923	846.2128	848.3453	891.5716	908.3387	917.7145	991.895	1000.4895	1037.5005	1062.9855	1098.1971	1118.4663	1132.5821	1156.9915	1180.7267	1190.957	1230.1579	1261.4903	1288.9142	1301.5551	1319.5593	1339.6096	1347.974	1368.8921	1386.6628	1401.792	1476.96	1484.5313	1490.8761	1495.9337	1505.1232	1744.7343	2925.4796	2934.4353	3037.3637	3038.6142	3049.686	3053.3745	3076.4831	3099.6286	3109.6972	3111.136	3120.0488	3205.9491
CC1OC2CCCC2=C1	C[C@H]1O[C@H]2CCCC2=C1	
InChI=1S/C8H12O/c1-6-5-7-3-2-4-8(7)9-6/h5-6,8H,2-4H2,1H3	InChI=1S/C8H12O/c1-6-5-7-3-2-4-8(7)9-6/h5-6,8H,2-4H2,1H3/t6-,8+/m1/s1
