17
gdb 23560	2.42731	1.56275	1.0817	2.0505	78.15	-0.2298	0.0048	0.2347	1121.0915	0.135527	-417.891676	-417.883638	-417.882694	-417.924181	31.099	
O	-0.1246217345	 1.3250586047	 0.0851397116	-0.396131
N	 0.0185580893	-0.0732323279	-0.0138383507	-0.280295
C	-1.1079147115	-0.6494351303	-0.0460663079	 0.403219
C	-2.5541826919	-0.2606349131	 0.0626711202	-0.161922
N	-3.2529348194	-0.9194673958	-1.0934160616	-0.335423
C	-2.9248043029	-1.7146944073	 0.1064827966	-0.173882
C	-1.4582735354	-2.1123353979	-0.029886775	 0.329577
C	-0.8388412049	-3.249651864	-0.7862412724	-0.307809
C	-0.7220027517	-3.1921220904	 0.7165656052	-0.333542
H	 0.7919551936	 1.6198058755	 0.1030791451	 0.306118
H	-2.9823547332	 0.5964983477	 0.5620476013	 0.11492
H	-4.233303199	-0.6429882332	-1.0123443986	 0.232281
H	-3.6852979593	-2.20518849	 0.7004971991	 0.104996
H	-1.5056266109	-3.9838886937	-1.2252770872	 0.119459
H	 0.0433444403	-3.0249554189	-1.3753666422	 0.130837
H	 0.2347897972	-2.9243869371	 1.1509788052	 0.13181
H	-1.3110755058	-3.8882730783	 1.3050228013	 0.115787
125.101	145.3981	161.0012	251.6561	267.1524	318.7025	401.4466	472.7207	555.011	589.1758	665.3042	768.6791	776.6806	823.3208	834.6734	846.6226	900.3986	942.7855	951.4282	962.4382	993.8675	1008.4744	1057.8276	1077.691	1082.2371	1110.4409	1120.2852	1191.1001	1201.0642	1288.5194	1295.7925	1333.9034	1382.5844	1430.3368	1459.6693	1499.8642	1791.1726	3130.1318	3135.9883	3198.9551	3214.4646	3226.6338	3229.3963	3448.6817	3820.8327
ON=C1C2NC2C11CC1	ON=C1[C@H]2N[C@H]2C21CC2	
InChI=1S/C6H8N2O/c9-8-5-3-4(7-3)6(5)1-2-6/h3-4,7,9H,1-2H2	InChI=1S/C6H8N2O/c9-8-5-3-4(7-3)6(5)1-2-6/h3-4,7,9H,1-2H2/t3-,4+/m0/s1
