13
gdb 25286	8.08713	0.66514	0.61459	5.0059	89.04	-0.2399	-0.0765	0.1635	1662.3547	0.090466	-415.627057	-415.619263	-415.618319	-415.660543	26.994	
O	-0.1413725604	-0.0010181768	-0.0002750789	-0.236226
C	-0.025489336	 1.2056272154	 0.0082280079	-0.00884
C	 1.2240752826	 1.9058381589	 0.0001019669	 0.174623
C	 2.269803172	 2.5224008774	-0.0064873532	-0.044865
C	 3.4828325403	 3.2117353789	-0.0148649326	 0.158167
C	 4.8015519361	 2.7798148628	-0.0333535303	-0.174124
N	 5.6612300039	 3.8350475042	-0.0346729845	-0.233266
C	 4.8961715738	 4.9113599698	-0.0173956104	 0.01976
N	 3.5795337064	 4.598349983	-0.0051043462	-0.313803
H	-0.912030165	 1.8729818052	 0.023360158	 0.094529
H	 5.14630733	 1.7573022918	-0.0453918562	 0.136726
H	 5.2470880912	 5.9325808619	-0.0132303206	 0.147067
H	 2.8008017351	 5.2366373877	 0.00874611	 0.280252
74.2607	74.92	120.161	203.6146	251.2368	417.3175	498.2693	510.5775	554.6645	672.6713	682.9038	704.4286	839.7735	883.8781	921.4192	971.6879	1012.9723	1044.8368	1130.2865	1170.3652	1255.709	1316.963	1356.0161	1419.4162	1428.845	1477.571	1587.2873	1750.597	2289.7381	2909.8399	3255.1367	3261.1144	3661.4196
O=CC#CC1=CN=CN1	O=CC#Cc1cnc[nH]1	
InChI=1S/C6H4N2O/c9-3-1-2-6-4-7-5-8-6/h3-5H,(H,7,8)	InChI=1S/C6H4N2O/c9-3-1-2-6-4-7-5-8-6/h3-5H,(H,7,8)
