19
gdb 36693	4.67863	0.7915	0.74762	4.3973	79.65	-0.2449	0.0385	0.2834	1517.1928	0.160251	-382.040358	-382.031855	-382.03091	-382.074393	31.538	
N	-0.1711337717	-1.2161472938	 0.2001178855	-0.306583
C	-0.1270449618	-0.0624132554	 0.149212397	 0.254313
C	-0.0430103	 1.3940221254	 0.0843018946	-0.334312
C	 1.4126100383	 1.9010850052	 0.0100417547	-0.212315
C	 1.4541405344	 3.4175289155	-0.0969572148	 0.065861
C	 2.7899369042	 4.1551465	-0.3948518422	-0.29779
C	 2.0723689894	 4.7573118262	-1.6016023826	-0.003779
C	 1.5698937731	 3.6982559674	-2.4916194369	-0.244031
N	 0.7667566894	 4.0373937409	-1.2968354695	-0.148078
H	-0.6011147942	 1.7460068542	-0.7899108914	 0.172753
H	-0.5453949755	 1.8127964765	 0.9640773094	 0.152076
H	 1.9594350474	 1.5887903613	 0.906973443	 0.124033
H	 1.9166432878	 1.4287287721	-0.8390695121	 0.121024
H	 0.970898827	 3.8477863392	 0.7863161964	 0.089529
H	 3.0577759529	 4.8778678367	 0.3771285529	 0.116352
H	 3.6673169743	 3.5413752176	-0.6217652395	 0.107473
H	 2.0856043803	 5.8045381577	-1.884510993	 0.101104
H	 1.0761071	 3.997793785	-3.4105781412	 0.127286
H	 2.0927871947	 2.7469681483	-2.5536704703	 0.115083
56.2085	90.6912	109.8443	215.7422	234.2249	349.063	391.7754	408.0451	510.4516	562.345	704.0186	750.7264	764.0322	790.0863	838.1944	919.073	923.7509	971.1665	979.1202	1012.1675	1052.4276	1065.1115	1095.6407	1104.8774	1114.6456	1130.2374	1166.8603	1215.5166	1234.3752	1269.4949	1269.6245	1296.4455	1317.4938	1363.8863	1367.3463	1404.9712	1467.8103	1486.1816	1492.2971	1508.6182	2361.9982	3042.765	3045.7018	3050.9104	3054.5355	3078.9175	3097.9024	3112.3995	3122.1443	3168.5798	3201.4797
N#CCCC1CC2CN12	N#CCC[C@H]1C[C@H]2CN12	
InChI=1S/C7H10N2/c8-3-1-2-6-4-7-5-9(6)7/h6-7H,1-2,4-5H2	InChI=1S/C7H10N2/c8-3-1-2-6-4-7-5-9(6)7/h6-7H,1-2,4-5H2/t6-,7-,9?/m0/s1
