18
gdb 106359	3.12699	1.33094	1.13409	4.948	72.18	-0.235	0.0243	0.2593	1105.2546	0.148993	-439.0911	-439.08322	-439.082276	-439.123437	30.888	
O	-0.1143996106	 1.4078413211	-0.0807373483	-0.427483
C	 0.014825843	 0.0013649798	 0.0872531501	-0.203956
C	-1.3677893019	-0.5832865219	 0.0176117458	 0.363943
C	-2.2590501314	-0.5965456951	-1.2656030477	-0.260968
C	-3.0684106961	-1.624683186	-0.3930006294	-0.162961
C	-1.6775736341	-2.0992710143	 0.1404588165	-0.2714
C	-3.5062328929	-0.6668620248	 0.7279811949	 0.41933
O	-4.5985265844	-0.4427188546	 1.1823027287	-0.372558
N	-2.2894210605	-0.0585824112	 1.0564353866	-0.352349
H	 0.7488141877	 1.8117133764	 0.0466712748	 0.29565
H	 0.6391743069	-0.4460199007	-0.7009137512	 0.093713
H	 0.4647664253	-0.247082116	 1.0607321527	 0.102084
H	-2.7479066241	 0.3378538144	-1.5491740262	 0.11485
H	-1.7787019463	-1.0625967147	-2.1297574667	 0.102033
H	-3.8264795907	-2.2935952579	-0.7911374686	 0.089705
H	-1.1387076199	-2.7082590064	-0.5889297994	 0.104703
H	-1.6266986803	-2.5368451885	 1.1396310472	 0.112024
H	-2.2761618297	 0.9334799705	 1.2518041301	 0.253642
102.2096	143.3734	210.0122	243.824	307.5896	386.6999	468.3015	505.2493	513.5463	537.0297	628.8744	704.3089	750.5765	794.4506	847.8841	888.976	903.4008	947.7467	965.8945	1020.3344	1043.5047	1064.0119	1079.1081	1091.7372	1140.4631	1148.6701	1199.4704	1222.8668	1231.2548	1236.115	1274.1613	1283.1745	1316.441	1369.3429	1471.1585	1479.7777	1510.1072	1518.0795	1868.0144	2979.6276	3015.0381	3059.918	3068.1718	3128.3414	3133.7467	3161.6755	3600.8802	3835.1903
OCC12CC(C1)C(=O)N2	OC[C@@]12C[C@@H](C1)C(=O)N2	
InChI=1S/C6H9NO2/c8-3-6-1-4(2-6)5(9)7-6/h4,8H,1-3H2,(H,7,9)	InChI=1S/C6H9NO2/c8-3-6-1-4(2-6)5(9)7-6/h4,8H,1-3H2,(H,7,9)/t4-,6+
