14
gdb 25233	3.31684	1.64992	1.11125	3.6312	70.53	-0.2085	-0.017	0.1915	1000.3069	0.103596	-436.729987	-436.723381	-436.722436	-436.760982	25.922	
O	-0.1376483661	-0.0554321074	 0.0028351193	-0.346891
C	-0.0096825709	 1.1483366444	 0.0008559472	 0.257927
C	-1.221556426	 2.1485176827	 0.0115284616	-0.284884
N	-0.6463770665	 3.5072627167	-0.134318352	-0.415864
C	 0.7009294982	 3.3053964101	-0.0396039643	 0.424947
C	 1.1550753461	 2.0118008635	-0.0217074173	 0.111597
C	 2.5917156174	 2.1241217287	-0.0092476564	-0.347489
C	 2.8584431475	 3.4514499919	-0.0070546169	-0.021403
O	 1.6766167282	 4.2094427499	-0.0291949497	-0.206366
H	-1.9032801965	 1.9198510747	-0.8116456942	 0.148582
H	-1.767772882	 2.0443475875	 0.9545749203	 0.14229
H	-1.0601367202	 4.2606336078	 0.3978755548	 0.257798
H	 3.3225596067	 1.3314408114	 0.0036675572	 0.134577
H	 3.760732514	 4.0377592281	 0.0096792404	 0.145177
145.7455	196.5342	295.6072	312.9919	513.6364	539.9142	546.657	603.9911	612.341	654.8762	691.1362	754.3186	776.2533	845.1783	905.5374	962.7923	989.676	1026.2623	1035.5132	1096.0978	1159.5155	1189.5695	1265.7253	1281.4238	1330.3537	1419.0892	1470.6859	1530.9848	1569.6524	1622.3803	1809.8937	3059.2092	3111.2619	3264.9793	3300.0378	3583.4437
O=C1CNC2=C1C=CO2	O=C1CNc2c1cco2	
InChI=1S/C6H5NO2/c8-5-3-7-6-4(5)1-2-9-6/h1-2,7H,3H2	InChI=1S/C6H5NO2/c8-5-3-7-6-4(5)1-2-9-6/h1-2,7H,3H2
