15
gdb 7722	3.50257	1.94714	1.29308	2.1111	64.77	-0.2353	-0.0049	0.2304	895.4193	0.122405	-396.042688	-396.035789	-396.034845	-396.073902	26.285	
N	-0.1026256701	 1.299266395	-0.2141231334	-0.562799
C	-0.0392340562	 0.0398821456	-0.0163867432	 0.434967
N	-1.1856779791	-0.7206201381	 0.0682126557	-0.307077
C	-1.1719909212	-1.9762026895	 0.8034283479	-0.184168
C	-0.0320713147	-2.8407176798	 0.2672385076	-0.303915
C	 1.2815118424	-2.0795011321	 0.2380609401	 0.402345
O	 2.3732860789	-2.5980693211	 0.3064559663	-0.35147
N	 1.1447789874	-0.7063984352	 0.1087755432	-0.369892
H	 0.8195860259	 1.7109639794	-0.3360520168	 0.209109
H	-2.007972141	-0.1412783881	 0.149990727	 0.257112
H	-1.0483316155	-1.8239888576	 1.8877319865	 0.113469
H	-2.1325356067	-2.4747354661	 0.6510742933	 0.122478
H	 0.1165025006	-3.7420908613	 0.8644296032	 0.138448
H	-0.2537213332	-3.1515709507	-0.7606967119	 0.144776
H	 2.0158824023	-0.1968778403	 0.0608667443	 0.256616
115.8821	131.295	244.3051	368.554	442.863	486.7752	533.0797	559.1745	574.8787	667.9771	717.6884	728.8444	775.8821	799.1288	937.1472	954.3086	1002.9447	1079.0044	1104.0952	1165.9314	1204.1741	1242.8748	1300.8466	1347.2727	1385.5572	1412.6994	1440.5347	1455.101	1474.0746	1522.08	1748.0338	1814.5927	2974.9121	3050.6738	3091.4032	3126.5171	3514.6953	3612.2283	3621.4101
N=C1NCCC(=O)N1	[NH][C]1NCCC(=O)N1	
InChI=1S/C4H7N3O/c5-4-6-2-1-3(8)7-4/h1-2H2,(H3,5,6,7,8)	InChI=1S/C4H7N3O/c5-4-6-2-1-3(8)7-4/h1-2H2,(H3,5,6,7,8)
