18
gdb 38430	4.04698	1.32211	1.21924	1.5198	76.01	-0.2438	0.0221	0.2659	1055.013	0.149733	-401.931486	-401.924296	-401.923352	-401.963566	28.225	
C	-0.0305009379	 1.4354588613	 0.1746356337	-0.279048
C	 1.2878506406	 0.7777164457	-0.1122124746	-0.043487
C	 1.8321527042	 0.1295276143	 1.1659154741	-0.292089
C	 0.5299717327	-0.7400059926	 1.2665498368	 0.315828
C	 0.724138723	-2.2766099123	 1.1701992503	-0.180929
O	 0.0341982463	-2.8044190245	 2.3267370623	-0.22158
C	-0.4727798235	-1.7189759636	 2.9575270485	 0.10729
N	-0.2757851645	-0.5608267098	 2.4844927868	-0.299462
C	 0.0082484887	-0.0555258444	-0.0070982539	-0.093103
H	-0.2386613129	 1.8518367258	 1.1557577178	 0.128985
H	-0.468437411	 1.9832050421	-0.6537352683	 0.109214
H	 1.871537907	 1.0129313285	-0.9932238701	 0.08536
H	 2.7187951798	-0.48946771	 1.0027173767	 0.098772
H	 2.013249221	 0.8002078049	 2.0109991478	 0.106547
H	 0.2693285518	-2.7125551973	 0.2753639091	 0.119626
H	 1.770954614	-2.5888508553	 1.2265466207	 0.118209
H	-1.0309976422	-1.9489819392	 3.8587085571	 0.139521
H	-0.558894717	-0.5602433937	-0.7818526249	 0.080347
56.5599	138.4229	239.9309	340.6287	393.3582	412.1818	495.4843	587.2548	732.7623	786.3295	799.058	828.7374	866.7453	904.0126	930.7939	950.1979	967.6833	971.9317	978.3454	989.1305	1029.1467	1059.4731	1084.5555	1109.6812	1123.9807	1143.8845	1158.9942	1198.7709	1226.8139	1228.1462	1251.8491	1303.7807	1324.0463	1361.5354	1379.6974	1475.1994	1492.8851	1513.3477	1699.2844	3046.0753	3048.8391	3093.2119	3103.6285	3122.6163	3164.726	3189.402	3210.7779	3211.4115
C1C2CC3(COC=N3)C12	C1[C@H]2C[C@]3(COC=N3)[C@@H]12	
InChI=1S/C7H9NO/c1-5-2-7(6(1)5)3-9-4-8-7/h4-6H,1-3H2	InChI=1S/C7H9NO/c1-5-2-7(6(1)5)3-9-4-8-7/h4-6H,1-3H2/t5-,6-,7-/m0/s1
