17
gdb 79545	2.55541	1.66224	1.20282	2.1928	78.78	-0.2424	0.0185	0.2609	1052.3958	0.134237	-384.596588	-384.588548	-384.587604	-384.628895	31.491	
C	-0.0909171024	 1.5137618731	-0.0732184247	-0.421736
C	 0.090089987	 0.0122315205	 0.0198937968	-0.006207
C	 1.3848024741	-0.7325057812	-0.2064062963	-0.11785
C	 2.5583401455	 0.0000333188	 0.4002871859	-0.068076
O	 3.0911421828	-0.7691648468	 1.4798699316	-0.287443
C	 1.904308522	 0.0130802109	 1.7395605049	 0.292053
C	 1.941752899	 0.9756572928	 2.7875760044	 0.244528
C	 1.9298261985	 1.779414335	 3.6820474147	-0.422123
C	 0.7036525666	-0.7300450491	 1.1830509566	-0.199925
H	 0.7406590153	 2.0619418489	 0.3736791376	 0.133614
H	-0.1792999502	 1.824704442	-1.1198751576	 0.118471
H	-1.0058392145	 1.8210275748	 0.4442828343	 0.123055
H	-0.7553077258	-0.5390262864	-0.3913526612	 0.094439
H	 1.4652243745	-1.5709525206	-0.8871495425	 0.103825
H	 3.2120096452	 0.7443677098	-0.0387414433	 0.115844
H	 1.9311301299	 2.4888112885	 4.472297591	 0.194107
H	 0.2121635925	-1.5583758009	 1.6779233979	 0.103424
108.3614	149.8109	196.4587	222.6356	267.3383	415.4682	441.3451	508.7383	565.7896	579.0242	613.5113	655.4903	665.0401	734.7618	770.3393	834.8066	865.7465	908.4671	927.7049	959.0682	981.3433	1009.4416	1063.9367	1074.6338	1098.8388	1139.083	1159.9242	1201.8841	1259.0895	1284.8763	1319.2399	1393.395	1413.9207	1436.419	1495.1891	1500.572	2241.3475	3037.2986	3095.2974	3111.9048	3133.9769	3186.4923	3194.1909	3199.222	3501.6105
CC1C2C3OC3(C#C)C12	C[C@H]1[C@H]2[C@@H]3O[C@]3(C#C)[C@@H]12	
InChI=1S/C8H8O/c1-3-8-6-4(2)5(6)7(8)9-8/h1,4-7H,2H3	InChI=1S/C8H8O/c1-3-8-6-4(2)5(6)7(8)9-8/h1,4-7H,2H3/t4-,5+,6-,7-,8+/m0/s1
