17
gdb 77359	3.11038	1.26124	0.93999	1.024	71.52	-0.2364	-0.0474	0.189	1200.6581	0.135663	-455.168243	-455.159383	-455.158439	-455.202587	31.118	
C	 0.1232980089	 1.4204163467	 0.0881563884	-0.339182
N	 0.0769385612	-0.0221552844	 0.2379258824	-0.121613
C	-1.1353293383	-0.7584317792	-0.0469367226	-0.076285
C	-0.5970370309	-2.2068966418	 0.0083862473	-0.121828
O	 0.8025865163	-2.0862090742	-0.2483544154	-0.248408
C	 1.1916138021	-0.7854904562	-0.0747172982	 0.475462
N	 2.3707708423	-0.3422782339	-0.1793954395	-0.596378
C	-2.1991356235	-0.5392941746	 1.020398531	 0.146994
O	-3.3737218471	-0.4318734091	 0.7951657416	-0.231508
H	 1.1361103041	 1.7492655876	 0.3205393091	 0.17594
H	-0.1229694253	 1.7338322509	-0.9368247906	 0.123188
H	-0.5810869924	 1.8950500493	 0.7774605396	 0.128836
H	-1.5694262426	-0.5171101224	-1.0287429222	 0.099909
H	-0.744175674	-2.6539894536	 0.9999255603	 0.121725
H	-1.0472659698	-2.8529435303	-0.7463819113	 0.141482
H	 3.0225329171	-1.0974237454	-0.3753278987	 0.228897
H	-1.7807432382	-0.5076399894	 2.0527642887	 0.092767
69.2274	79.3987	132.0241	169.7535	175.3915	268.5162	318.233	375.2047	421.0502	504.5337	645.4252	709.6177	719.3231	782.2154	827.2534	930.1987	950.0633	1004.2774	1062.57	1066.5885	1094.7737	1124.9526	1159.9118	1207.7317	1242.7321	1279.4586	1296.7812	1316.6924	1379.7284	1403.3857	1424.4383	1458.4261	1492.8214	1509.852	1517.0187	1780.5493	1843.2522	2876.1636	2995.6253	3002.4534	3025.8191	3084.3631	3122.8691	3158.6133	3539.8809
CN1C(COC1=N)C=O	CN1[C@@H](CO[C]1[NH])C=O	
InChI=1S/C5H8N2O2/c1-7-4(2-8)3-9-5(7)6/h2,4,6H,3H2,1H3	InChI=1S/C5H8N2O2/c1-7-4(2-8)3-9-5(7)6/h2,4,6H,3H2,1H3/t4-/m1/s1
