16
gdb 65959	2.30744	1.49687	1.41031	4.3261	69.31	-0.2776	0.0016	0.2792	1020.2952	0.12268	-437.856802	-437.848319	-437.847375	-437.889867	31.519	
O	 0.0375497169	 1.331079098	-0.5188171444	-0.461491
C	-0.0049475001	 0.0060663379	-0.0534271707	 0.182081
C	 0.0458971034	-0.2500603324	 1.4973280478	-0.285957
C	-1.1912299729	-1.1870242371	 1.3725530633	-0.32725
C	-1.4278577196	-0.5896839355	-0.0132025866	 0.428176
C	-2.615417017	 0.0454694407	-0.5810081386	-0.252665
O	-2.0826769455	-1.1878309269	-1.0982912541	-0.263352
C	 0.9424810992	-0.8455393708	-0.7862951429	 0.234198
N	 1.722437303	-1.4876518933	-1.3479767949	-0.331248
H	 0.9560968208	 1.593081074	-0.6485483515	 0.298413
H	 0.9656679883	-0.6787373567	 1.8944450702	 0.127259
H	-0.1856066546	 0.6848661303	 2.0108856488	 0.128159
H	-0.9115793517	-2.241986735	 1.31338062	 0.137496
H	-1.9869374135	-1.0674550945	 2.1089134845	 0.121342
H	-3.5662859199	-0.042224461	-0.0579111365	 0.12332
H	-2.4996653169	 0.9095372624	-1.2302150445	 0.141518
80.9147	125.9474	193.5831	231.2811	253.1974	291.5887	329.1186	402.8614	476.201	496.2516	560.6841	644.0691	669.6075	755.3758	875.4954	890.0797	906.4054	925.8981	953.8004	983.0444	1102.6725	1118.4599	1143.1961	1157.0299	1169.377	1199.7313	1215.9394	1257.1051	1264.9322	1348.8422	1437.0199	1474.142	1492.4355	1531.8982	2350.9018	3075.231	3086.3787	3095.1685	3130.6801	3154.4185	3194.1184	3805.3951
OC1(CCC11CO1)C#N	O[C@]1(CC[C@]21CO2)C#N	
InChI=1S/C6H7NO2/c7-3-5(8)1-2-6(5)4-9-6/h8H,1-2,4H2	InChI=1S/C6H7NO2/c7-3-5(8)1-2-6(5)4-9-6/h8H,1-2,4H2/t5-,6-/m1/s1
