20
gdb 60619	2.90156	1.09858	0.86748	3.9394	75.81	-0.253	0.0203	0.2733	1357.9113	0.169754	-440.310011	-440.300064	-440.29912	-440.345229	36.779	
C	 0.0702019684	 1.5376631498	-0.2460481262	-0.400365
C	 0.0924142317	 0.0380739821	-0.0440643365	-0.004926
C	 1.3836671155	-0.7436425696	-0.0944843477	-0.321592
C	 0.6214071456	-0.6083248915	 1.2119507195	-0.015308
C	 1.1660256098	 0.2227795628	 2.3573884128	 0.030438
O	 0.1223491848	 0.8428588083	 3.06147984	-0.442125
C	 1.9854304352	-0.6198839632	 3.3561990987	 0.368272
N	 2.9731327336	-1.3868893101	 2.8344861469	-0.515413
O	 1.7517866785	-0.5435086239	 4.5517287993	-0.381279
H	 0.9831981933	 2.0147484723	 0.1211747059	 0.116195
H	-0.0208376369	 1.7816204886	-1.3099470957	 0.112333
H	-0.7734305605	 1.9910627414	 0.2832224503	 0.137249
H	-0.7676499751	-0.471585346	-0.4705291918	 0.089618
H	 1.4032313918	-1.7071141755	-0.5925152305	 0.11248
H	 2.298474374	-0.1671094806	-0.2073432696	 0.10977
H	 0.0780261931	-1.4883955935	 1.5464131719	 0.090463
H	 1.8591182654	 0.9808313213	 1.9530468396	 0.083911
H	 0.3072770251	 0.6458882787	 3.996457124	 0.292125
H	 3.02922785	-1.5443588379	 1.8427737908	 0.272593
H	 3.4880476367	-1.9901994434	 3.4551403983	 0.26556
59.0538	66.3586	117.5851	177.6991	201.0454	276.2214	305.8019	335.6968	366.6513	392.6256	451.1037	501.7316	546.573	574.7491	640.8547	704.4891	777.294	855.9154	860.1218	879.3177	926.8437	994.5295	1024.5377	1067.5355	1099.6072	1107.77	1144.6982	1152.195	1166.7525	1197.5602	1244.2573	1266.2425	1325.7488	1349.9179	1397.5727	1418.4975	1424.7437	1462.2176	1490.035	1492.7587	1503.2955	1613.1971	1785.2226	2951.4936	3037.122	3099.3958	3110.0238	3116.1944	3134.8487	3145.4626	3202.8461	3597.1347	3641.5226	3730.9129
CC1CC1C(O)C(N)=O	C[C@H]1C[C@H]1[C@@H](O)C(=O)N	
InChI=1S/C6H11NO2/c1-3-2-4(3)5(8)6(7)9/h3-5,8H,2H2,1H3,(H2,7,9)	InChI=1S/C6H11NO2/c1-3-2-4(3)5(8)6(7)9/h3-5,8H,2H2,1H3,(H2,7,9)/t3-,4+,5+/m0/s1
