18
gdb 33247	5.84661	0.68505	0.65096	1.3189	74.49	-0.2427	0.0032	0.2459	1708.5441	0.147863	-439.104946	-439.096081	-439.095136	-439.140033	30.863	
C	-0.0149119848	 1.3805977963	-0.0297579541	-0.22856
O	 0.0577404607	-0.0243018729	-0.0362489673	-0.230087
C	 0.6441287756	-0.5475437875	 1.1344127357	-0.044993
C	 0.6846661304	-2.0707793424	 1.0031327667	-0.326631
C	 1.3294770005	-2.7230479692	 2.1808768	 0.246354
C	 0.8062290311	-3.5622506835	 3.1077598227	-0.118965
O	 1.7902210773	-3.8916011266	 4.0007317862	-0.138229
C	 2.8736450913	-3.2177890207	 3.5578305695	 0.07614
N	 2.6752171747	-2.5122142961	 2.4949396827	-0.300199
H	 0.9827726872	 1.8419146427	 0.0438762655	 0.105159
H	-0.4779109108	 1.6895724664	-0.9702000504	 0.125881
H	-0.6262564507	 1.7554744532	 0.8069329023	 0.102018
H	 1.6649445922	-0.157424972	 1.2722907231	 0.109038
H	 0.0601564881	-0.2579058436	 2.0250252047	 0.0841
H	-0.3351179168	-2.4476672921	 0.8774444434	 0.112341
H	 1.2381834788	-2.3194740404	 0.0907204926	 0.12817
H	-0.1616810708	-4.0022759317	 3.2744812226	 0.147366
H	 3.7836017658	-3.3357209899	 4.1251872141	 0.151096
47.6717	80.7872	94.9751	112.969	230.4271	260.8891	328.067	340.6957	460.7437	641.1721	688.0494	747.9975	779.3508	806.4594	848.626	936.4522	982.3252	996.2017	1061.5111	1065.0592	1097.7277	1134.9062	1162.9501	1180.9402	1223.0942	1227.7347	1247.9209	1279.8551	1305.0338	1323.9528	1352.8421	1420.4327	1480.3141	1482.7015	1485.4049	1505.2344	1533.3781	1558.7286	1632.8254	2954.4276	2970.3999	2999.2606	3011.668	3045.9354	3094.6303	3112.3093	3275.0353	3294.3459
COCCC1=COC=N1	COCCc1cocn1	
InChI=1S/C6H9NO2/c1-8-3-2-6-4-9-5-7-6/h4-5H,2-3H2,1H3	InChI=1S/C6H9NO2/c1-8-3-2-6-4-9-5-7-6/h4-5H,2-3H2,1H3
