17
gdb 31570	3.39732	1.09611	0.83682	1.6605	72.7	-0.1641	0.0706	0.2346	1335.5819	0.1354	-455.153544	-455.143786	-455.142842	-455.188091	34.94	
C	-0.158339288	 0.5045930421	-0.6967043816	-0.242486
O	 0.1258027319	 0.8448089661	 0.64784387	-0.260227
C	 0.7286811177	-0.1284904977	 1.3674111595	 0.434117
C	 1.134249494	-1.4129874591	 1.0622426576	-0.448513
C	 1.710502701	-1.9329598192	 2.2649011136	 0.277616
O	 2.2553637379	-3.1744594909	 2.46186268	-0.459096
C	 1.6427153199	-0.9762654835	 3.246183207	 0.165319
N	 2.0437993349	-0.9283037989	 4.5973278827	-0.615627
N	 1.0282294911	 0.1364420244	 2.6633405096	-0.355604
H	-0.8379297079	-0.355718064	-0.7523276327	 0.123925
H	-0.6368141903	 1.3771965608	-1.1435878503	 0.133998
H	 0.7608917555	 0.2671568175	-1.2477919295	 0.12393
H	 1.0363045981	-1.9175409377	 0.1145117479	 0.086367
H	 2.1908127089	-3.6656262929	 1.6386452381	 0.292909
H	 3.0433386129	-1.0748433698	 4.6986435744	 0.241393
H	 1.5844631251	-1.6440595649	 5.1518642922	 0.241407
H	 0.8419802774	 0.9984177877	 3.1451810517	 0.260574
74.1027	116.3468	174.1465	183.1487	199.0136	223.0295	261.3617	264.7925	309.0671	393.1821	427.3935	530.0408	638.259	654.6219	662.7144	667.7648	702.3186	787.639	835.244	1014.6016	1082.6616	1115.9137	1183.056	1185.6962	1216.6841	1232.904	1241.4077	1275.7405	1352.1751	1467.0307	1483.0993	1483.2072	1495.9723	1512.9318	1597.5681	1661.6298	1691.1256	3004.9779	3062.1037	3138.3217	3251.837	3490.2706	3546.7712	3689.4412	3852.2402
COC1=CC(O)=C(N)N1	COc1cc(O)c(N)[nH]1	
InChI=1S/C5H8N2O2/c1-9-4-2-3(8)5(6)7-4/h2,7-8H,6H2,1H3	InChI=1S/C5H8N2O2/c1-9-4-2-3(8)5(6)7-4/h2,7-8H,6H2,1H3
