17
gdb 85568	2.74321	1.41074	1.11417	1.8855	68.06	-0.261	-0.0384	0.2226	1098.651	0.135381	-459.022436	-459.01398	-459.013036	-459.055959	30.934	
C	 0.0343628718	 1.5667283152	 0.1431353257	-0.409076
C	 0.0379224199	 0.0319825708	 0.0043066476	-0.142645
C	 0.7600902344	-0.4548145812	-1.2641683859	-0.330145
C	 2.2440141212	-0.1861985665	-1.163846427	 0.358883
O	 2.9518630549	 0.1417298225	-2.0830286893	-0.294694
C	 2.8313008538	-0.3367400674	 0.2394344719	-0.171927
O	 1.9662820884	-0.8986940335	 1.2272654763	-0.225876
C	 0.6328343334	-0.6219623406	 1.2473116933	 0.417216
O	-0.0113509124	-0.9297517617	 2.2103622505	-0.32318
H	 1.0456708449	 1.9853888158	 0.1783493239	 0.128594
H	-0.4798557581	 2.0175437705	-0.7108307801	 0.132566
H	-0.4866373313	 1.8639089323	 1.0565367412	 0.148864
H	-1.0011820351	-0.3051092736	-0.0172218106	 0.121864
H	 0.6288020576	-1.5410252266	-1.3670189117	 0.143598
H	 0.3684801555	 0.0099483601	-2.1725189243	 0.135107
H	 3.7039289923	-0.9926924698	 0.1862916562	 0.160931
H	 3.1851346287	 0.6488879937	 0.5695232122	 0.149921
61.7492	106.072	163.1324	214.8572	239.0751	316.147	393.7058	422.7704	459.084	504.0512	590.9655	692.9889	734.638	744.6449	786.3167	883.4073	935.6077	960.0573	1016.4833	1068.3271	1100.1295	1113.9859	1173.2537	1204.6814	1242.3285	1277.8875	1289.6073	1339.3189	1362.9207	1379.8844	1412.2688	1455.7052	1469.8056	1495.0622	1501.7955	1832.7166	1852.9271	3024.5708	3029.7339	3041.4283	3082.0181	3104.7081	3106.1065	3110.7982	3127.7477
CC1CC(=O)COC1=O	C[C@H]1CC(=O)COC1=O	
InChI=1S/C6H8O3/c1-4-2-5(7)3-9-6(4)8/h4H,2-3H2,1H3	InChI=1S/C6H8O3/c1-4-2-5(7)3-9-6(4)8/h4H,2-3H2,1H3/t4-/m0/s1
