20
gdb 6619	3.44001	1.51977	1.37097	3.3568	70.33	-0.2347	0.0564	0.2911	1006.8246	0.175196	-386.121973	-386.112947	-386.112002	-386.155163	33.639	
C	 0.2842676212	 1.5325326988	 0.173539409	-0.41636
C	 0.0012245118	 0.030233624	 0.0240852867	 0.309028
C	 0.5063139451	-0.7459761987	 1.2495396658	-0.416356
O	-1.4052509594	-0.1842454428	-0.1398421388	-0.455583
C	 0.6566350455	-0.5078605389	-1.2506180555	-0.004827
C	 0.2757506053	-1.9249849437	-1.7375258553	-0.094508
O	-0.0874686312	-1.4255770774	-3.0403798918	-0.275727
C	 0.0938744471	-0.0587642412	-2.6188315615	-0.094507
H	 1.357174481	 1.7300029872	 0.2655093526	 0.115601
H	-0.0984856891	 2.0837989713	-0.6899780887	 0.127099
H	-0.2040021901	 1.9285170992	 1.071788759	 0.103715
H	 0.0210978674	-0.3814481402	 2.1626370348	 0.103715
H	 0.2811296874	-1.8115024962	 1.1495253085	 0.127099
H	 1.5870436815	-0.6287902005	 1.379434347	 0.1156
H	-1.8500308249	 0.1445101454	 0.6480152406	 0.277341
H	 1.7378598394	-0.3668700496	-1.17519096	 0.073891
H	 1.0863265563	-2.6613744059	-1.7922802563	 0.092988
H	-0.5828874727	-2.3618130804	-1.2144759816	 0.109401
H	-0.8596757036	 0.4782778114	-2.5556848804	 0.109401
H	 0.779590872	 0.4860184181	-3.2786082241	 0.092988
95.1885	98.228	193.7539	235.0318	255.9332	270.1394	288.6747	318.0983	370.9084	388.0118	495.5609	541.5031	668.6322	821.0107	880.1289	891.97	922.55	961.1994	973.2937	985.8999	1040.0497	1044.0216	1052.9302	1108.8062	1163.0361	1171.1759	1176.8121	1213.6203	1219.2141	1270.9458	1312.4806	1328.6737	1377.3634	1396.4193	1407.7858	1416.5444	1480.0932	1484.1584	1500.3744	1503.0091	1509.8732	1530.8628	3013.8297	3023.8233	3025.4749	3030.9057	3059.0826	3065.035	3082.0863	3090.6579	3097.9853	3115.3423	3117.9428	3816.0879
CC(C)(O)C1COC1	CC(C)(O)C1COC1	
InChI=1S/C6H12O2/c1-6(2,7)5-3-8-4-5/h5,7H,3-4H2,1-2H3	InChI=1S/C6H12O2/c1-6(2,7)5-3-8-4-5/h5,7H,3-4H2,1-2H3
