18
gdb 34975	4.07641	1.35113	1.29311	4.1842	79.26	-0.2932	0.0278	0.321	1017.3981	0.151392	-364.798449	-364.791877	-364.790932	-364.829361	27.167	
N	-0.211414813	-1.2306683126	-0.1501694015	-0.340307
C	-0.125010782	-0.0795627031	-0.0761085877	 0.266055
C	-0.0042491222	 1.3675594699	 0.024368457	-0.144882
C	-0.1092255712	 2.0729830716	 1.4175743803	-0.058039
C	 0.9753098833	 1.337710898	 2.2289448188	-0.223342
C	 2.1494381252	 1.8199935042	 1.3490313603	-0.039239
C	 2.0905412394	 3.3539812118	 1.5876751339	-0.239542
C	 0.7736054892	 3.2493534556	 0.8067744752	-0.037826
C	 1.3715927618	 2.0654299197	-0.0177057312	-0.040369
H	-0.6736013179	 1.8366397599	-0.7031590118	 0.119079
H	-1.0827238906	 2.247618588	 1.8720336709	 0.079141
H	 1.0607246199	 1.6892544587	 3.2604115232	 0.100059
H	 0.8304907991	 0.2550249339	 2.2401290059	 0.12577
H	 3.0852382009	 1.2652706384	 1.3825881106	 0.075677
H	 2.0886003034	 3.7122661614	 2.6216749957	 0.096137
H	 2.8386485716	 3.901932168	 1.0074308973	 0.103374
H	 0.251631156	 4.0913253892	 0.3540298935	 0.074606
H	 1.9483622468	 2.1874506973	-0.9323380605	 0.083648
128.0522	155.6062	370.0159	395.0355	474.7825	506.0933	558.3002	693.1736	715.4705	773.533	825.0599	830.6911	841.8649	901.0874	921.597	947.8332	967.0888	972.9172	984.9147	1012.6744	1032.2521	1061.1321	1077.8239	1091.5644	1122.8664	1162.3578	1182.8933	1189.3344	1216.2233	1230.1784	1260.3121	1264.0969	1284.9523	1318.0084	1322.0547	1362.7663	1494.8559	1518.9769	2347.9445	3047.9823	3066.5359	3070.9766	3103.5239	3114.4975	3122.7788	3131.9999	3135.1461	3143.3708
N#CC1C2CC3CC2C13	N#C[C@H]1[C@H]2C[C@@H]3C[C@H]2[C@H]13	
InChI=1S/C8H9N/c9-3-7-5-1-4-2-6(5)8(4)7/h4-8H,1-2H2	InChI=1S/C8H9N/c9-3-7-5-1-4-2-6(5)8(4)7/h4-8H,1-2H2/t4-,5+,6-,7+,8-/m1/s1
