19
gdb 66862	3.54452	1.75963	1.57412	1.4351	84.8	-0.1914	-0.0153	0.1761	924.9362	0.160523	-348.659454	-348.652683	-348.651739	-348.689993	29.	
C	 0.1308626806	 1.5596505294	-0.0041758763	-0.519522
C	-0.0042654539	 0.066914974	-0.023657124	 0.348386
C	 1.0039461098	-0.9046545157	-0.5785352126	-0.125058
C	 0.364356198	-1.9926459605	-1.3340644925	-0.105624
C	-0.9510180588	-2.0109578966	-1.00499297	 0.003442
C	-1.2910969807	-2.9707856809	 0.1463749298	-0.274058
C	-0.905105321	-1.6850215952	 0.999982471	-0.018393
C	 0.5024003177	-1.009465979	 0.9245588323	-0.16036
C	-1.2980353208	-0.7529314025	-0.1796856207	-0.124619
H	 1.1549680917	 1.8643498901	 0.2348123786	 0.11905
H	-0.1256717207	 1.9905582573	-0.979217931	 0.12459
H	-0.5328952245	 2.0090439077	 0.7431917292	 0.119453
H	 2.0345127603	-0.5872005906	-0.7020215073	 0.083124
H	 0.9173719107	-2.8966074989	-1.5750503072	 0.090808
H	-2.350381829	-3.2012021437	 0.3099635047	 0.099078
H	-0.6913319954	-3.8794331119	 0.2268992019	 0.103199
H	-1.3823661255	-1.565088614	 1.9756078381	 0.082274
H	 1.2261336739	-0.9364599424	 1.7259712193	 0.088106
H	-2.2845714623	-0.3000377066	-0.2620384731	 0.066124
200.0295	215.5622	250.1526	363.2805	464.6859	538.5838	560.3147	636.5222	662.296	700.0522	746.2205	775.8576	809.9045	861.0707	869.7856	884.8574	898.1222	911.2317	947.4058	971.6202	981.5514	1023.8367	1035.5819	1061.0371	1074.9495	1098.0519	1111.4758	1164.6293	1171.8573	1199.3476	1216.5316	1242.4572	1248.0358	1277.8531	1314.5825	1411.3346	1445.6342	1487.4758	1495.2842	1496.8119	1564.3702	3022.3465	3031.2666	3082.0505	3083.5251	3095.6336	3112.7972	3123.3945	3154.6142	3167.2785	3198.2428
CC12C3C=C4CC(C13)C24	C[C@@]12[C@@H]3[CH][C]4C[C@@H]([C@H]13)[C@@H]24	
InChI=1S/C9H10/c1-9-6-3-4-2-5(7(4)9)8(6)9/h3,5-8H,2H2,1H3	InChI=1S/C9H10/c1-9-6-3-4-2-5(7(4)9)8(6)9/h3,5-8H,2H2,1H3/t5-,6-,7+,8+,9+/m1/s1
