21
gdb 112628	2.99603	0.93948	0.8554	1.7453	74.65	-0.2557	0.0635	0.3192	1422.662	0.180782	-461.339735	-461.329713	-461.328769	-461.374673	37.477	
O	 0.2023220559	 0.9629819655	-0.6317390367	-0.421236
C	-0.0181365232	-0.372704771	-0.2041365633	-0.088526
C	-1.4804575694	-0.4995499936	 0.1822550583	 0.036185
C	-2.4921106426	-0.4220188742	-0.9990635984	-0.299473
C	-2.7840898868	-1.9413647519	-0.8396128713	 0.391135
O	-4.1452316656	-2.3410200047	-0.7447802379	-0.493352
C	-2.2176847443	-2.8222339866	-1.9481205364	-0.078007
O	-2.3259008509	-4.1922974659	-1.6219914287	-0.428851
C	-1.9596888913	-1.9511968729	 0.4813960538	-0.328388
H	 1.1190989317	 1.0441896389	-0.9102938279	 0.287446
H	 0.2289260539	-1.0902111087	-1.0039104674	 0.087054
H	 0.6126964299	-0.6268691304	 0.663690601	 0.08711
H	-1.6802808578	 0.2172706345	 0.9827698385	 0.079319
H	-3.3730448597	 0.1862955858	-0.7770736557	 0.094804
H	-2.0872253764	-0.0972050891	-1.9620451729	 0.108576
H	-4.5230482567	-1.9589010462	 0.0531015423	 0.27984
H	-2.7479845451	-2.5815734256	-2.8844061924	 0.091392
H	-1.1555424886	-2.6099387322	-2.1019529467	 0.102953
H	-3.2393459614	-4.3133719927	-1.3349382206	 0.288106
H	-1.195954772	-2.7305469373	 0.5542567695	 0.11499
H	-2.5949485497	-2.0157281118	 1.3703969531	 0.088921
64.3604	102.2523	141.6322	167.8911	235.3791	260.4997	285.9694	313.3051	343.5936	353.3069	429.2602	460.8277	479.077	520.2002	693.7463	796.3094	829.0909	836.6005	916.4282	931.0859	938.5655	985.2043	1046.4824	1063.2523	1080.981	1090.2683	1111.8337	1132.9956	1157.3272	1177.1489	1211.5385	1236.5571	1255.0871	1280.8395	1283.4499	1302.0979	1364.8244	1368.7563	1397.519	1440.6693	1460.926	1469.6201	1487.8269	1497.6651	1519.1013	2959.3997	2972.9109	2985.2735	3048.0517	3055.1358	3072.4905	3086.0674	3103.1968	3107.8933	3786.7246	3825.3684	3830.2765
OCC1CC(O)(CO)C1	OC[C@H]1C[C@@](O)(CO)C1	
InChI=1S/C6H12O3/c7-3-5-1-6(9,2-5)4-8/h5,7-9H,1-4H2	InChI=1S/C6H12O3/c7-3-5-1-6(9,2-5)4-8/h5,7-9H,1-4H2/t5-,6-
