15
gdb 6948	2.73631	2.38042	1.70113	4.0815	62.52	-0.2253	-0.0202	0.2051	802.9966	0.118169	-399.838232	-399.830426	-399.829482	-399.869998	29.246	
C	-0.0165069092	 1.5862916459	 0.0304366466	-0.410215
C	-0.0208281551	 0.0615718245	-0.0693112147	 0.253778
O	-1.3881236432	-0.3245018073	-0.1254627434	-0.450426
C	 0.8231537168	-0.490170919	-1.1984505835	-0.209775
C	 1.8279721687	-1.2054464029	-0.685023028	-0.034017
N	 1.7908870814	-1.2222424378	 0.7200682948	-0.333354
C	 0.6842318777	-0.5408225169	 1.1931213394	 0.362401
O	 0.3400119913	-0.4416461767	 2.344975491	-0.359887
H	 1.0047233761	 1.9745609878	 0.06335923	 0.122567
H	-0.5312593331	 2.0116669917	-0.835190698	 0.123828
H	-0.541087536	 1.8839648689	 0.9422288237	 0.14681
H	-1.4245507757	-1.2820607093	-0.2258179526	 0.280925
H	 0.6360418298	-0.301934402	-2.2448655381	 0.111085
H	 2.6258025559	-1.7286534486	-1.1938820685	 0.133698
H	 2.3856382945	-1.7762702484	 1.3139842912	 0.262583
86.7324	205.1249	230.4117	256.3604	287.8626	303.6414	365.925	449.9162	535.2299	588.445	617.0232	718.7383	729.2575	767.0091	791.4874	916.3582	948.5244	963.5575	1052.8224	1079.3446	1112.0896	1150.2258	1201.3079	1244.4915	1344.6774	1379.6692	1397.3392	1410.4582	1480.5829	1490.5675	1667.0675	1847.2592	3046.7932	3128.0231	3131.1303	3227.3452	3254.7228	3656.8364	3805.9396
CC1(O)C=CNC1=O	C[C@@]1(O)C=CNC1=O	
InChI=1S/C5H7NO2/c1-5(8)2-3-6-4(5)7/h2-3,8H,1H3,(H,6,7)	InChI=1S/C5H7NO2/c1-5(8)2-3-6-4(5)7/h2-3,8H,1H3,(H,6,7)/t5-/m1/s1
