20
gdb 58451	2.5912	1.31813	1.11009	2.9713	76.36	-0.2622	0.028	0.2902	1191.4799	0.168978	-440.297805	-440.288287	-440.287343	-440.331881	36.247	
C	-0.0193178522	 1.6551773562	 0.0416660119	-0.418573
C	 0.0571658826	 0.1372862841	-0.1407825524	 0.086001
O	 1.0243604306	-0.4286215039	 0.7315966862	-0.436479
C	-1.2980951235	-0.5659859343	 0.0362279109	 0.397106
C	-2.4084988648	-0.0358874286	-0.8517866854	-0.457899
C	-1.2258103673	-2.1089201712	 0.1724604689	-0.409718
C	-1.6747451182	-1.8608852327	 1.5925591834	 0.428363
N	-1.9500041835	-2.5860425068	 2.5772987678	-0.54147
O	-1.6957179568	-0.4829551668	 1.4675111928	-0.308387
H	 0.9914391504	 2.0693893924	 0.0178054769	 0.1296
H	-0.6060579365	 2.1358905576	-0.7457438236	 0.120186
H	-0.474352236	 1.9027525918	 1.0069730069	 0.129111
H	 0.4156906011	-0.0941610156	-1.1518549599	 0.095184
H	 0.7214969929	-0.2585392237	 1.631864628	 0.28917
H	-2.1234935026	-0.1151908729	-1.9065527172	 0.126528
H	-3.3257250528	-0.6118528048	-0.7015768777	 0.130261
H	-2.6272473087	 1.0117807689	-0.632062027	 0.136225
H	-1.9254133666	-2.6756416131	-0.4436258035	 0.128211
H	-0.2228744344	-2.5279432438	 0.0977754575	 0.151843
H	-2.2266075737	-2.0244111226	 3.3847007556	 0.224739
76.11	80.8558	205.5162	216.0865	248.6042	270.118	337.4636	351.752	372.2843	400.537	452.3775	500.1752	512.9598	569.9878	634.4138	784.912	843.6933	867.5117	876.4765	918.8967	946.9575	972.0774	1013.1984	1018.8398	1080.3836	1092.4728	1110.3576	1145.1231	1206.9658	1246.8973	1267.1299	1293.1138	1304.9613	1354.2663	1402.0604	1411.8878	1420.8742	1450.911	1484.1539	1489.4754	1498.1225	1504.4804	1824.5228	3034.8953	3041.5555	3042.5666	3093.9367	3111.5939	3113.5963	3124.9037	3130.333	3157.2199	3471.9741	3790.4046
CC(O)C1(C)CC(=N)O1	C[C@@H](O)[C@@]1(C)C[C]([NH])O1	
InChI=1S/C6H11NO2/c1-4(8)6(2)3-5(7)9-6/h4,7-8H,3H2,1-2H3	InChI=1S/C6H11NO2/c1-4(8)6(2)3-5(7)9-6/h4,7-8H,3H2,1-2H3/t4-,6-/m1/s1
