17
gdb 74587	2.58209	1.87214	1.3235	3.1142	77.09	-0.2137	-0.0091	0.2046	986.1889	0.136524	-384.689231	-384.681991	-384.681046	-384.720765	28.869	
C	 0.0077669713	 1.5132113271	 0.0790739363	-0.498602
C	-0.0625958312	 0.0238556009	-0.0017537793	 0.318512
C	 0.025128215	-0.7693112188	-1.0752763451	-0.203535
C	-0.0036521162	-2.2075100206	-0.6514336962	-0.073738
C	-0.5159757419	-2.2714812489	 0.7453358448	-0.079551
C	 0.9642757365	-2.6571942525	 0.4707983774	-0.204981
C	 1.3424896218	-1.5143402965	 1.348984922	 0.439484
O	 2.2739328003	-1.3012250292	 2.0740726125	-0.336217
C	-0.0752233219	-0.8581665464	 1.2379556844	-0.266944
H	 0.8840800621	 1.8368055421	 0.6543600337	 0.143347
H	 0.0681692452	 1.9650917868	-0.9144635595	 0.127022
H	-0.8716601124	 1.9241263155	 0.5907576931	 0.12732
H	 0.1422195709	-0.4520725101	-2.1035613088	 0.10063
H	-0.2458072401	-2.9968425504	-1.3546707765	 0.097909
H	-1.2936406123	-2.9047324752	 1.1500832355	 0.111691
H	 1.4370140819	-3.6303848098	 0.4458147737	 0.111191
H	-0.475940619	-0.4354858241	 2.1582641621	 0.086461
125.1525	161.8161	193.161	302.6483	419.3064	437.0517	508.9499	573.0575	625.8842	716.0328	742.2433	791.0671	795.7277	829.4719	848.0195	865.68	914.8283	937.6813	958.9745	995.7679	1012.0427	1059.1349	1065.3873	1077.9407	1104.1001	1133.5447	1177.1803	1233.1995	1255.1108	1293.7713	1321.1412	1367.9267	1413.6287	1477.4145	1487.8529	1698.3919	1866.8768	3019.8213	3067.5717	3113.9708	3131.5783	3174.5571	3203.2816	3212.5705	3216.576
CC1=CC2C3C2C(=O)C13	CC1=C[C@@H]2[C@H]3[C@@H]2C(=O)[C@@H]13	
InChI=1S/C8H8O/c1-3-2-4-6-5(3)8(9)7(4)6/h2,4-7H,1H3	InChI=1S/C8H8O/c1-3-2-4-6-5(3)8(9)7(4)6/h2,4-7H,1H3/t4-,5+,6-,7-/m1/s1
