19
gdb 85298	2.60925	1.63007	1.22211	2.9527	74.33	-0.2286	-0.0188	0.2098	1065.5256	0.16029	-423.038361	-423.030546	-423.029602	-423.070737	30.63	
C	-0.6453932516	 1.3863618383	 0.1944808269	-0.414093
C	 0.0601216772	 0.0433067864	-0.0189164691	 0.014636
C	 1.0522659524	 0.1083314487	-1.2180097779	-0.320777
C	 2.3409194338	-0.686622468	-1.0011110104	 0.393239
O	 3.0259811478	-1.1245135598	-1.8922075903	-0.318119
C	 2.6498477159	-0.8840310603	 0.4776419157	-0.009028
C	 1.5208829133	-1.7581947965	 1.0709884265	-0.272506
C	 0.8369791989	-0.3860952215	 1.2345021595	 0.098188
O	 2.1470864308	 0.2640687982	 1.2131764943	-0.29898
H	 0.0808146839	 2.1522552939	 0.4879036861	 0.134079
H	-1.141486973	 1.7234292599	-0.7211342719	 0.118214
H	-1.4033500384	 1.3172278156	 0.98174961	 0.113593
H	-0.6965538526	-0.7258700859	-0.2205419761	 0.080729
H	 0.5978222311	-0.2007281253	-2.1621400721	 0.125809
H	 1.3736128303	 1.149126902	-1.3521483233	 0.141695
H	 3.6985428604	-1.1135378867	 0.6714606909	 0.099078
H	 1.0478270956	-2.507382405	 0.4314015454	 0.113426
H	 1.8114542586	-2.2000706757	 2.0250739296	 0.120604
H	 0.2927310255	-0.1795615781	 2.1604591863	 0.080215
74.7231	145.6177	247.3073	277.1712	302.7411	391.0411	438.5008	462.079	500.0458	567.5758	636.0839	732.4981	794.6273	868.1616	891.042	930.641	936.3605	941.3524	968.4046	1008.6171	1029.3775	1048.274	1082.0371	1117.9616	1148.0822	1197.0158	1212.5487	1239.5469	1253.6051	1281.7344	1295.6235	1307.7446	1321.0685	1354.4955	1376.6314	1408.9242	1452.4539	1491.0248	1497.4301	1502.7323	1831.2814	3020.9456	3030.2897	3038.7814	3066.97	3074.3533	3101.5396	3104.4613	3108.9435	3113.4548	3135.3735
CC1CC(=O)C2CC1O2	C[C@H]1CC(=O)[C@@H]2C[C@H]1O2	
InChI=1S/C7H10O2/c1-4-2-5(8)7-3-6(4)9-7/h4,6-7H,2-3H2,1H3	InChI=1S/C7H10O2/c1-4-2-5(8)7-3-6(4)9-7/h4,6-7H,2-3H2,1H3/t4-,6+,7-/m0/s1
