12
gdb 24521	4.09123	1.84007	1.26922	1.1792	67.76	-0.2642	-0.072	0.1922	874.4741	0.082304	-431.737427	-431.73202	-431.731075	-431.767217	21.351	
O	-0.0727184631	 1.314164572	 0.0098303217	-0.192313
C	 1.241333444	 1.7006631127	-0.0004429372	 0.080176
N	 2.1309932353	 0.7675243814	-0.01423674	-0.31004
C	 1.3670303811	-0.3973674544	-0.0133414367	 0.304441
C	 0.0063651974	-0.0481341222	 0.0015354851	 0.400529
N	-1.0075468505	-0.8742930463	 0.0066077094	-0.324042
C	-0.6020846963	-2.156410272	-0.0043532084	-0.036805
C	 0.7482407736	-2.5335426882	-0.0193060666	-0.033126
N	 1.7655279153	-1.6607177493	-0.0241490471	-0.311893
H	 1.4085689053	 2.767499574	 0.0038517124	 0.16905
H	-1.3805524125	-2.9126716977	-0.0011389578	 0.128717
H	 1.0104108203	-3.5873148599	-0.0276499249	 0.125307
252.2284	259.9803	454.0551	493.702	564.3984	615.4301	647.6542	665.3038	798.3252	847.6055	881.9115	902.0349	909.2552	924.4541	981.4298	1074.6525	1089.1239	1178.0672	1253.419	1283.7201	1347.6419	1371.0077	1388.6493	1500.937	1544.2419	1620.5059	1641.9779	3173.3144	3192.0434	3270.0533
O1C=NC2=C1N=CC=N2	o1cnc2c1nccn2	
InChI=1S/C5H3N3O/c1-2-7-5-4(6-1)8-3-9-5/h1-3H	InChI=1S/C5H3N3O/c1-2-7-5-4(6-1)8-3-9-5/h1-3H
