17
gdb 74419	2.90276	1.49679	1.16017	0.9149	75.97	-0.2262	-0.0534	0.1728	1081.3204	0.136431	-418.040739	-418.032542	-418.031597	-418.072964	32.056	
C	 0.0061880355	 1.5197883153	 0.0094680315	-0.465984
C	 0.0469968394	 0.014749222	 0.0249655605	 0.339925
C	-0.8356499702	-0.8036049256	 0.9103049461	-0.312825
C	 0.6931227286	-0.79992949	 1.1319499295	-0.225765
C	 1.4514359779	-1.8552552318	 0.413157492	 0.370959
O	 2.2346106038	-2.6832716808	 0.8143986442	-0.339856
C	 1.0844805464	-1.6401698707	-1.049591305	 0.25672
N	 1.523860949	-2.5454548139	-1.9567687521	-0.571032
N	 0.3351791449	-0.6186605322	-1.2615260096	-0.325916
H	 0.9692043997	 1.9308126568	-0.3092034187	 0.1249
H	-0.756791188	 1.867183978	-0.6943176244	 0.133295
H	-0.2298227419	 1.9178148849	 1.0004091709	 0.114225
H	-1.4082984242	-0.3103280312	 1.6899109587	 0.123325
H	-1.2969406068	-1.6938358362	 0.4955041729	 0.128995
H	 1.0803514727	-0.3945097236	 2.0571227236	 0.11295
H	 2.2749037925	-3.1454420057	-1.6529889313	 0.271093
H	 1.4630938106	-2.3232842953	-2.9365756289	 0.264992
131.7979	162.6338	220.2304	261.9963	302.6534	338.3899	376.3116	443.7356	462.6895	521.7909	548.8774	600.1532	626.8273	717.4492	744.2958	805.5717	850.5906	918.9207	927.9537	966.0257	999.5133	1047.8277	1067.0758	1112.6918	1129.0245	1167.5998	1228.9623	1269.8452	1367.8932	1408.654	1432.4288	1480.96	1483.9574	1499.997	1603.6704	1720.5809	1824.9047	3038.1022	3105.9911	3116.0236	3123.3864	3206.4976	3216.6636	3590.1011	3715.0767
CC12CC1C(=O)C(N)=N2	C[C@]12C[C@H]1C(=O)C(=N2)N	
InChI=1S/C6H8N2O/c1-6-2-3(6)4(9)5(7)8-6/h3H,2H2,1H3,(H2,7,8)	InChI=1S/C6H8N2O/c1-6-2-3(6)4(9)5(7)8-6/h3H,2H2,1H3,(H2,7,8)/t3-,6-/m0/s1
