19
gdb 99345	6.13325	0.62705	0.59452	4.06	80.24	-0.2418	0.0561	0.2979	1863.4157	0.157303	-419.212149	-419.201224	-419.20028	-419.249434	37.545	
C	 0.468189868	 1.2268694564	 0.2613816039	-0.324193
N	-0.1658560412	 0.0229596016	-0.2442057705	-0.360841
C	 0.5320609437	-0.829196391	-1.0748620518	 0.490389
O	 1.6142533758	-0.5524353314	-1.5670813831	-0.405428
N	-0.101799077	-2.0343838505	-1.3148172649	-0.366916
C	 0.4205827901	-2.9196815435	-2.3464975642	-0.15177
C	 1.6238575626	-3.7448423787	-1.8411645931	-0.331683
C	 2.1090842166	-4.6776274691	-2.8487290696	 0.292637
C	 2.4782437255	-5.4394461946	-3.7023224994	-0.445225
H	 0.965727528	 1.0707175492	 1.227973862	 0.119344
H	 1.2215643317	 1.5333760173	-0.4643739623	 0.169392
H	-0.2726537556	 2.0240766028	 0.3724214298	 0.120351
H	-0.8952792206	-0.3787394066	 0.3231016583	 0.234443
H	-1.0913641191	-2.0850658874	-1.1354634889	 0.236845
H	-0.3839623787	-3.593650223	-2.6512824476	 0.108396
H	 0.7326922352	-2.3418820211	-3.2221959598	 0.137058
H	 2.4153161484	-3.0440015399	-1.5567800217	 0.161616
H	 1.331054661	-4.287006108	-0.9337525135	 0.1228
H	 2.8221939257	-6.1131627624	-4.4471545835	 0.192786
53.0041	57.2242	73.9823	79.4115	136.6502	172.7546	225.2102	293.3344	330.2781	357.8246	360.131	455.3274	471.4182	587.8945	614.7081	643.1039	702.3145	770.6076	784.187	928.9432	971.7345	1020.7827	1054.8826	1090.4661	1151.1036	1167.9434	1186.1005	1228.9972	1262.3543	1296.7306	1339.2457	1400.9898	1441.0139	1471.5919	1483.4272	1484.9146	1497.281	1513.6123	1564.4396	1779.4012	2238.2399	3013.4943	3033.6848	3055.3353	3082.1044	3083.7821	3112.3404	3157.5828	3508.0972	3624.4243	3633.7614
CNC(=O)NCCC#C	CNC(=O)NCCC#C	
InChI=1S/C6H10N2O/c1-3-4-5-8-6(9)7-2/h1H,4-5H2,2H3,(H2,7,8,9)	InChI=1S/C6H10N2O/c1-3-4-5-8-6(9)7-2/h1H,4-5H2,2H3,(H2,7,8,9)
