21
gdb 90480	2.75894	1.36594	1.20157	1.3278	81.71	-0.2269	0.0748	0.3017	1146.5457	0.184	-383.186263	-383.177784	-383.17684	-383.219534	32.816	
C	-0.3527560964	 1.3529301909	-0.4311205158	-0.422715
C	 0.1519721049	-0.0730873598	-0.2783099034	 0.093541
C	 1.3669048255	-0.5826029454	-1.0959545551	-0.28605
C	 1.9877852416	-0.9902011359	 0.2425594045	-0.067618
C	 2.115001601	 0.1147773746	 1.219384452	-0.006095
C	 2.5002891367	 1.5458525927	 0.9641490252	-0.034064
C	 3.9339609296	 1.9311649983	 0.9988483375	-0.242916
N	 3.1769674539	 2.0085823739	-0.2627257683	-0.315936
N	 0.7792763541	-0.4956225156	 1.039113142	-0.179873
H	 0.4546286174	 2.0836453838	-0.5063485377	 0.149582
H	-0.9554439124	 1.431411991	-1.3428667075	 0.114229
H	-0.9943803252	 1.6209875713	 0.4152692223	 0.123154
H	-0.6924124382	-0.7562111066	-0.4088759199	 0.08808
H	 1.1283843842	-1.4397007593	-1.7281686876	 0.111517
H	 1.9046707745	 0.1506832129	-1.7013402203	 0.106313
H	 2.4241583827	-1.9661723997	 0.4353352377	 0.093556
H	 2.4900921943	-0.22589169	 2.1850313892	 0.102901
H	 1.7908523652	 2.2724034168	 1.3532658639	 0.106709
H	 4.2323834171	 2.8864028784	 1.4210472768	 0.118938
H	 4.6678666197	 1.1363127673	 1.1088628235	 0.11258
H	 3.4225357099	 1.2028057405	-0.831130789	 0.234167
58.7926	128.4941	183.7802	217.7803	269.4636	284.3744	352.7009	385.3738	525.807	622.9457	704.7563	738.868	755.5536	806.1603	836.4522	864.7405	870.223	917.5331	948.913	973.0801	1000.8076	1020.3164	1073.9128	1080.5323	1103.6079	1113.9674	1127.685	1141.7628	1160.7751	1187.3322	1203.7117	1250.0808	1270.7317	1276.9022	1301.236	1307.1031	1356.4287	1387.8917	1399.3647	1409.918	1438.0619	1490.0066	1498.8988	1508.0556	1511.0504	3035.0941	3053.7206	3070.3009	3095.3226	3097.7651	3105.95	3119.4995	3131.14	3138.3516	3148.4676	3192.4955	3512.4085
CC1CC2C(C3CN3)N12	C[C@H]1C[C@H]2[C@@H]([C@H]3CN3)N12	
InChI=1S/C7H12N2/c1-4-2-6-7(9(4)6)5-3-8-5/h4-8H,2-3H2,1H3	InChI=1S/C7H12N2/c1-4-2-6-7(9(4)6)5-3-8-5/h4-8H,2-3H2,1H3/t4-,5+,6-,7+,9?/m0/s1
