19
gdb 75654	2.47986	1.73976	1.26714	3.0568	74.77	-0.2279	-0.0164	0.2115	1046.2385	0.15832	-423.032261	-423.02384	-423.022896	-423.064855	32.58	
C	-0.1142084529	 1.5737048596	-0.052115873	-0.422954
C	 0.0509701634	 0.0593295754	 0.0522425392	-0.138906
C	 0.9996219602	-0.5432916136	-1.0127899998	 0.445006
O	 1.0096963643	-0.3794105306	-2.2009567758	-0.333312
C	 1.9369166268	-1.3621280811	-0.1127122814	-0.045662
C	 2.2982337892	-0.3192765426	 0.9685267286	-0.289369
C	 0.7916896969	-0.5414721025	 1.2772822863	 0.4004
C	 0.1930399066	-0.4058181425	 2.6473929877	-0.498478
O	 0.9619682168	-1.9349504867	 0.8133065216	-0.328669
H	 0.8296163114	 2.1012962943	 0.1200101912	 0.119049
H	-0.4616301477	 1.8386795726	-1.0549470828	 0.143427
H	-0.8458055589	 1.9457992221	 0.6714322784	 0.120399
H	-0.9252982897	-0.4322211075	-0.0306982574	 0.108719
H	 2.6336615543	-2.0663515155	-0.5618951154	 0.098454
H	 2.9367199126	-0.751501959	 1.7406828242	 0.118826
H	 2.6506436729	 0.6704619154	 0.6671036621	 0.110183
H	 0.1470599347	 0.6480161347	 2.9401494887	 0.129128
H	-0.8246985281	-0.809179915	 2.6633122022	 0.133371
H	 0.790961897	-0.9462691875	 3.3862968156	 0.130389
111.888	187.3729	192.9612	207.9981	250.86	273.0723	315.2793	477.3332	499.1824	517.143	550.2254	679.2345	709.7888	750.9654	791.0702	838.8557	874.4331	886.6625	969.8262	979.0073	1004.6103	1063.4264	1078.4491	1093.5762	1108.4938	1156.706	1197.3387	1211.5693	1242.6276	1253.6017	1262.0079	1316.5159	1352.5681	1407.9672	1415.7202	1478.3404	1484.3175	1491.247	1498.1495	1500.979	1878.3815	3038.0002	3039.4374	3047.6801	3066.644	3106.3847	3109.9268	3114.7301	3118.8007	3137.2562	3155.6347
CC1C(=O)C2CC1(C)O2	C[C@H]1C(=O)[C@H]2C[C@]1(C)O2	
InChI=1S/C7H10O2/c1-4-6(8)5-3-7(4,2)9-5/h4-5H,3H2,1-2H3	InChI=1S/C7H10O2/c1-4-6(8)5-3-7(4,2)9-5/h4-5H,3H2,1-2H3/t4-,5+,7-/m0/s1
