18
gdb 72625	2.52303	1.43611	1.21948	4.5083	78.59	-0.2277	0.0309	0.2586	1095.3831	0.147814	-398.099952	-398.091011	-398.090067	-398.133129	33.755	
C	 0.0506247373	 1.5651578629	-0.0100832324	-0.487947
C	 0.1101611562	 0.0711182643	 0.0435911605	 0.311681
N	 0.5846979018	-0.7228894538	-1.0894042833	-0.350563
C	 1.1743026688	-1.748326716	-0.1744535355	-0.236401
C	 0.7233437703	-0.9067245871	 1.0299431734	 0.246346
N	 1.383648201	-0.628545437	 2.24869521	-0.582374
C	-0.8015467601	-0.7876790902	 0.9420222424	-0.289531
C	-1.4929619193	-0.1611533925	 2.0298965878	 0.297829
N	-2.089145746	 0.3320390423	 2.8911251052	-0.351082
H	 0.9938972568	 1.964746576	-0.3933963636	 0.129983
H	-0.7547785945	 1.9019118914	-0.6726483487	 0.127903
H	-0.1347658243	 1.9800121946	 0.9835685383	 0.155598
H	-0.1520943595	-1.0739199968	-1.6965249556	 0.218561
H	 0.7606080978	-2.7614268975	-0.250175506	 0.102155
H	 2.2633835457	-1.7994194336	-0.286498287	 0.111392
H	 1.2918020208	-1.3841417315	 2.9194347881	 0.242936
H	 2.3699958245	-0.439959287	 2.1082172401	 0.239792
H	-1.3584585073	-1.6005913983	 0.4796191461	 0.11372
123.9831	133.0414	168.7061	186.1243	245.2354	265.1536	344.0896	365.876	385.4189	489.9032	522.5252	533.9565	679.3023	698.469	720.3263	762.7143	817.1289	887.8569	943.7661	973.2528	976.4654	1032.8228	1059.7247	1088.0468	1128.2173	1158.5674	1202.8492	1259.3619	1280.0587	1324.3153	1340.0736	1366.6445	1416.5996	1452.43	1479.947	1497.2044	1509.3871	1658.3201	2345.5164	3018.2417	3037.5324	3066.2914	3101.5308	3120.2353	3132.309	3487.2854	3507.1917	3588.929
CC12NCC1(N)C2C#N	C[C@@]12NC[C@]1(N)[C@H]2C#N	
InChI=1S/C6H9N3/c1-5-4(2-7)6(5,8)3-9-5/h4,9H,3,8H2,1H3	InChI=1S/C6H9N3/c1-5-4(2-7)6(5,8)3-9-5/h4,9H,3,8H2,1H3/t4-,5-,6-/m0/s1
