17
gdb 129593	2.97848	1.37705	0.99477	3.9859	74.65	-0.2101	0.0301	0.2402	1156.9654	0.139249	-414.171992	-414.163822	-414.162878	-414.205121	30.597	
N	-0.0231298182	 1.3446284133	-0.1785661295	-0.606837
C	-0.0715909406	-0.044251021	-0.0638277236	 0.288407
C	-1.1422017294	-0.9196091174	 0.0676576832	 0.137565
C	-0.5220122014	-2.1840585648	 0.2479311779	-0.080577
N	 0.799669101	-2.1190611952	 0.2129049087	-0.236426
N	 1.052799059	-0.7952629561	 0.0280327062	-0.242079
C	-2.586638013	-0.5948224694	 0.0457713239	-0.151633
C	-3.1697961284	 0.2081440857	-1.0694132797	-0.24502
N	-3.4767174123	-1.2248213406	-0.9546264222	-0.309847
H	 0.5845336248	 1.6736982982	-0.9197193406	 0.250087
H	-0.9491001118	 1.733332225	-0.3016883987	 0.258395
H	-1.0078424153	-3.1398489154	 0.3867003983	 0.112911
H	 2.0053666119	-0.4729280443	 0.0257556199	 0.268463
H	-3.0745435519	-0.5061631154	 1.0154884957	 0.103279
H	-4.0088191055	 0.872382673	-0.8815007668	 0.118231
H	-2.5041854056	 0.5297215092	-1.8666499361	 0.103772
H	-2.8996505132	-1.7380448048	-1.6176765067	 0.23131
59.7686	148.8721	158.1381	215.6015	276.214	329.4704	403.8409	451.8235	506.6026	619.1961	668.6829	715.5365	723.8312	774.8016	838.5946	876.4197	893.9969	950.7852	966.48	1002.2699	1087.6646	1099.9328	1117.7396	1148.245	1175.4531	1215.0598	1238.0229	1268.0155	1305.8439	1344.5874	1351.3122	1420.344	1466.6208	1505.1899	1559.3988	1624.2195	1660.74	3104.2881	3107.2109	3189.6643	3235.8445	3492.4805	3526.871	3622.813	3674.8293
NC1=C(C=NN1)C1CN1	Nc1c(cn[nH]1)[C@H]1CN1	
InChI=1S/C5H8N4/c6-5-3(1-8-9-5)4-2-7-4/h1,4,7H,2H2,(H3,6,8,9)	InChI=1S/C5H8N4/c6-5-3(1-8-9-5)4-2-7-4/h1,4,7H,2H2,(H3,6,8,9)/t4-/m1/s1
