21
gdb 120303	3.23178	0.90232	0.81184	1.1194	79.23	-0.2245	0.0627	0.2872	1513.5151	0.181038	-424.178252	-424.168779	-424.167835	-424.21298	35.375	
C	-0.1234909248	 1.5232259125	-0.0044320134	-0.38248
C	-0.0914421669	-0.0001881148	-0.1500026637	-0.155395
C	 0.9341758857	-0.4805400431	-1.1860956052	-0.212251
C	 0.9611392532	-1.9882402853	-1.3201640623	-0.066765
C	 0.0774027319	-2.7725847439	-2.2663221083	-0.009999
O	-0.1130714598	-2.0568768809	-3.4945892081	-0.281762
C	 1.3078251875	-2.1168196034	-3.7878631129	-0.15214
C	 1.5885070758	-2.776673578	-2.4388899179	 0.273179
O	 2.5870127669	-3.6915371839	-2.1823565544	-0.447165
H	 0.8521510487	 1.9115836184	 0.3088934499	 0.112445
H	-0.3806849076	 2.005531244	-0.954045853	 0.115846
H	-0.8616092452	 1.8386547462	 0.7396524762	 0.110158
H	 0.1334059067	-0.4573476967	 0.8228743831	 0.091627
H	-1.0853783869	-0.366023846	-0.4363261572	 0.102925
H	 0.6931864004	-0.0357003224	-2.1577683066	 0.110758
H	 1.9329831955	-0.1177269728	-0.9091498257	 0.095791
H	 1.0929577457	-2.5310839087	-0.3838141003	 0.094875
H	-0.6646336417	-3.5124529639	-1.9893962169	 0.10453
H	 1.4951664075	-2.7862543558	-4.6382237922	 0.098045
H	 1.7444815726	-1.1325774361	-3.9906732392	 0.110851
H	 2.5082885849	-4.4157038055	-2.8144138018	 0.286927
59.6277	85.7471	123.7787	218.1106	240.5285	260.9275	282.5519	319.5193	367.9411	402.0886	487.2428	607.0109	640.5577	742.4952	771.792	833.888	891.1313	906.6779	926.273	928.7621	985.555	1000.7321	1036.8481	1046.7505	1072.4445	1082.8604	1132.0136	1144.3069	1146.7891	1208.8158	1255.535	1266.2481	1291.1984	1306.1518	1332.9005	1346.7463	1365.1714	1398.2696	1412.1138	1478.8355	1490.3078	1492.2746	1498.8377	1509.4669	1514.8551	3011.0117	3015.3507	3021.2302	3028.9811	3048.8256	3068.6187	3076.0888	3096.4567	3100.7945	3120.3446	3182.9186	3783.1718
CCCC1C2OCC12O	CCC[C@H]1[C@H]2OC[C@@]12O	
InChI=1S/C7H12O2/c1-2-3-5-6-7(5,8)4-9-6/h5-6,8H,2-4H2,1H3	InChI=1S/C7H12O2/c1-2-3-5-6-7(5,8)4-9-6/h5-6,8H,2-4H2,1H3/t5-,6+,7+/m0/s1
