15
gdb 50121	5.86827	0.89557	0.84376	1.0645	73.03	-0.2504	-0.0435	0.207	1296.546	0.112402	-416.778584	-416.770568	-416.769624	-416.811819	29.023	
O	-0.0534382717	-0.0488669456	-0.1000182193	-0.247528
C	-0.0051446055	 1.1262929227	 0.1614868417	 0.151495
C	 1.2525156114	 1.9567239227	 0.0552496827	-0.07891
C	 1.2196038685	 3.2023836777	-0.9157485887	-0.309829
C	 1.5376627267	 4.1049248337	 0.2863204916	 0.252161
N	 0.4299122365	 3.8948280682	 1.2568290793	-0.35244
C	 1.5382967405	 2.9278637551	 1.2174293128	-0.130337
C	 2.3370062308	 5.282955138	 0.3102603964	 0.16973
N	 2.990102207	 6.2388572278	 0.3171924423	-0.335232
H	-0.9008102539	 1.6874922088	 0.4997860792	 0.104577
H	 2.0975846823	 1.3024887181	-0.1618672235	 0.111981
H	 2.020975356	 3.1575992041	-1.6527927888	 0.143501
H	 0.2694180086	 3.424538939	-1.4049231287	 0.134104
H	 0.5834234108	 4.5165410918	 2.0507712154	 0.256137
H	 2.1578532821	 2.7452690979	 2.0862069676	 0.130592
64.1152	93.1893	151.7981	217.9945	284.2174	376.2705	411.7471	475.7807	550.8348	573.5442	618.9669	715.6568	828.9208	867.2245	892.7054	931.0265	966.6849	1003.3097	1054.7899	1071.177	1097.1244	1125.2898	1176.1847	1219.4172	1236.6469	1270.7067	1291.6346	1341.0766	1394.3057	1422.4159	1472.991	1825.0759	2346.5811	2925.0824	3086.2239	3114.0839	3154.89	3205.3709	3483.697
O=CC1CC2(NC12)C#N	O=C[C@H]1C[C@]2(N[C@@H]12)C#N	
InChI=1S/C6H6N2O/c7-3-6-1-4(2-9)5(6)8-6/h2,4-5,8H,1H2	InChI=1S/C6H6N2O/c7-3-6-1-4(2-9)5(6)8-6/h2,4-5,8H,1H2/t4-,5+,6+/m1/s1
