15
gdb 5554	3.39816	1.79164	1.21856	3.1567	65.06	-0.1831	0.0306	0.2136	947.5001	0.120767	-396.007909	-396.000032	-395.999088	-396.040627	28.503	
N	 0.0782637537	 1.4305575712	-0.0406820306	-0.59864
C	-0.014614715	 0.0336170144	-0.0120566312	 0.190926
C	-1.134908693	-0.7595116841	 0.1072511853	 0.274353
C	-2.5858305303	-0.4802883713	 0.2359434983	-0.214407
O	-3.2989121307	-1.4060045363	-0.5897625634	-0.425826
N	-0.6362350056	-2.0541273459	 0.1770533522	-0.286962
C	 0.7110469623	-1.9783963082	 0.0779990972	 0.008479
N	 1.1253743403	-0.7317110509	-0.0251526268	-0.311516
H	 0.9945766522	 1.706342977	-0.3719532186	 0.247704
H	-0.6364442637	 1.8674419283	-0.6091960699	 0.23835
H	-2.9227604756	-0.5827340094	 1.2820089435	 0.099294
H	-2.7804251358	 0.5625602551	-0.0579122062	 0.096645
H	-4.2339145081	-1.3350491859	-0.3722092875	 0.287284
H	-1.2084291453	-2.8813491686	 0.148552377	 0.268089
H	 1.3448454446	-2.8523269352	 0.0769586508	 0.126229
44.7375	146.3627	195.7721	241.9311	295.2322	316.1984	364.973	506.4167	516.588	635.645	674.4394	709.484	761.2012	797.5986	812.3215	960.5023	1006.1219	1029.1805	1063.5651	1125.4699	1196.3656	1225.2733	1265.8575	1275.7588	1336.5742	1396.9936	1455.7347	1495.9674	1513.6708	1519.98	1635.2287	1661.6284	2944.0903	2993.2896	3252.7474	3529.5038	3624.2015	3669.2017	3814.9693
NC1=C(CO)NC=N1	Nc1c(CO)[nH]cn1	
InChI=1S/C4H7N3O/c5-4-3(1-8)6-2-7-4/h2,8H,1,5H2,(H,6,7)	InChI=1S/C4H7N3O/c5-4-3(1-8)6-2-7-4/h2,8H,1,5H2,(H,6,7)
