23
gdb 94609	3.60924	0.84199	0.75552	1.6231	86.14	-0.2609	0.0842	0.3451	1593.9117	0.20547	-388.260745	-388.251259	-388.250315	-388.29581	35.468	
C	-0.0552548833	 1.5833136055	-0.1998754379	-0.392012
C	-0.0335613975	 0.0732582393	 0.0262629846	-0.008888
C	 1.0355266694	-0.6713493615	-0.8290929414	-0.222356
C	 1.9637591523	-0.7246574832	 0.4135361798	-0.231705
C	 0.7249605753	-0.4226738241	 1.304434231	 0.05836
C	 0.873142517	 0.4866383308	 2.5219094183	-0.264084
C	 1.7013063187	-0.1549519676	 3.609977566	 0.105172
C	 1.4076854004	 0.0212153837	 5.0369641124	-0.182573
O	 1.066878154	-1.1933385398	 4.3659596332	-0.238937
H	 0.9490545625	 2.0193285879	-0.1542080232	 0.111631
H	-0.4646077762	 1.8130530578	-1.1897070288	 0.111674
H	-0.6753220914	 2.0970988355	 0.5426217038	 0.11258
H	-1.052902373	-0.3149667344	-0.0663665517	 0.063973
H	 0.70153046	-1.6663439171	-1.1354468279	 0.099297
H	 1.4093998083	-0.1456068253	-1.7123160439	 0.091213
H	 2.507094306	-1.6539593501	 0.600576004	 0.098267
H	 2.6847828448	 0.0997977598	 0.4219997142	 0.093767
H	 0.2796678301	-1.3666080712	 1.6367157371	 0.086583
H	 1.3454355853	 1.4353550361	 2.2356779943	 0.095559
H	-0.1158236053	 0.7289247355	 2.9305719876	 0.099112
H	 2.7327901665	-0.3868916125	 3.3365960254	 0.091828
H	 2.2065093411	-0.0580600486	 5.7734970434	 0.111406
H	 0.5636103251	 0.6421009736	 5.3360193196	 0.11013
57.816	76.3844	121.1103	126.135	217.1645	259.1581	321.4965	352.1914	384.6725	459.6183	489.1657	676.3422	763.3048	791.2666	807.5916	853.2823	882.9768	894.0545	921.703	952.5836	961.9319	967.0391	1011.8401	1059.744	1081.11	1105.5399	1129.8615	1157.7222	1160.0896	1168.9006	1178.428	1216.9937	1241.3038	1266.2215	1271.54	1279.1906	1285.2765	1298.1375	1327.1119	1368.7721	1387.4065	1410.7416	1446.3399	1469.2964	1481.5236	1497.6085	1500.3041	1501.7934	1530.2039	3018.0846	3026.3384	3036.8831	3044.4437	3048.8491	3056.6382	3063.8942	3078.3307	3091.558	3092.3944	3093.7493	3094.9679	3110.9524	3163.7418
CC1CCC1CC1CO1	C[C@H]1CC[C@H]1C[C@H]1CO1	
InChI=1S/C8H14O/c1-6-2-3-7(6)4-8-5-9-8/h6-8H,2-5H2,1H3	InChI=1S/C8H14O/c1-6-2-3-7(6)4-8-5-9-8/h6-8H,2-5H2,1H3/t6-,7-,8-/m0/s1
