18
gdb 102159	2.49267	1.11178	0.86076	6.3178	73.93	-0.2492	0.0231	0.2723	1352.8237	0.146588	-439.084585	-439.07498	-439.074036	-439.119567	35.	
N	-0.2142325586	 1.159244457	-0.2474801656	-0.525036
H	-0.0559538391	 0.1591563116	-0.3050488942	 0.251657
H	 1.1471374117	 2.2933645227	-0.0644631543	 0.31029
H	-0.8493103597	 1.4078286546	-1.000035436	 0.248647
C	-0.7866875843	 1.5350000025	 1.0589344248	-0.193894
C	-0.6327305928	 3.053694805	 1.2894057906	-0.138033
C	-1.4300126651	 3.5314243539	 2.5224045063	-0.360166
C	-1.7566776402	 4.9508515539	 2.4826267732	 0.312523
C	-2.0598479705	 6.1117391056	 2.4222430923	-0.442611
C	 0.8491847368	 3.4682486221	 1.4034154299	 0.425022
O	 1.6522318103	 2.9708242744	 0.4545507356	-0.380828
O	 1.2610571621	 4.187995708	 2.2747823042	-0.324671
H	-1.8468507848	 1.2615230451	 1.1492871378	 0.108969
H	-0.2444842628	 0.9820526746	 1.8339697257	 0.132345
H	-1.0363414277	 3.5588031457	 0.4011286918	 0.112805
H	-2.3623315879	 2.955675277	 2.5901452044	 0.117382
H	-0.8493271417	 3.3147092132	 3.4253017768	 0.150665
H	-2.3025029856	 7.1446176332	 2.3863364767	 0.194933
59.2555	72.4804	117.0168	170.0336	273.3228	277.7229	309.8094	332.547	347.5406	420.3836	436.6306	579.5436	602.1132	614.5329	645.9894	727.3629	795.0396	862.9554	926.284	950.9752	961.4712	992.289	1056.5682	1070.7031	1094.4199	1162.8041	1207.3303	1251.8337	1292.1438	1322.0691	1367.2847	1370.9019	1414.0459	1456.394	1486.1865	1510.7709	1650.5779	1853.1472	2244.0697	3004.2624	3020.052	3022.0988	3071.8745	3078.0926	3262.4759	3504.3519	3507.6354	3587.2606
[NH3+]CC(CC#C)C([O-])=O	NC[C@@H](CC#C)C(=O)O	
InChI=1S/C6H9NO2/c1-2-3-5(4-7)6(8)9/h1,5H,3-4,7H2,(H,8,9)	InChI=1S/C6H9NO2/c1-2-3-5(4-7)6(8)9/h1,5H,3-4,7H2,(H,8,9)/t5-/m1/s1
