22
gdb 79580	2.04146	1.69473	1.49214	1.6475	86.02	-0.2243	0.0872	0.3115	1090.9625	0.193137	-367.1634	-367.154143	-367.153199	-367.196529	35.999	
C	 0.0189223557	 1.5732629838	 0.1078727558	-0.425284
C	 0.1121134581	 0.0611886244	 0.1133810657	-0.062744
C	 1.3618626657	-0.7063285057	-0.1932307108	-0.073012
N	 2.5575285117	 0.0053920505	 0.3106891299	-0.165364
C	 3.1785008492	-0.9431373124	 1.2599635162	-0.278819
C	 1.9934514726	-0.1786505101	 1.7245726089	 0.28069
C	 2.0797251762	 0.8652704032	 2.8037712027	-0.499285
C	 0.725741971	-0.8203204139	 1.1955752567	 0.247589
C	-0.0290592135	-1.927591538	 1.8804074914	-0.500889
H	 0.9743343008	 2.031981505	 0.3674520407	 0.142303
H	-0.2555828199	 1.9295110636	-0.8912156086	 0.113692
H	-0.7447978969	 1.9308329848	 0.8074977034	 0.109
H	-0.7657781696	-0.4267689165	-0.3114084066	 0.080418
H	 1.457241013	-1.4365769481	-0.9904330085	 0.085181
H	 3.102392351	-2.0088627931	 1.0549353298	 0.106133
H	 4.1530256772	-0.6161149334	 1.612756786	 0.112707
H	 3.0512524664	 1.3675611322	 2.7824467967	 0.128094
H	 1.2996854204	 1.6242384827	 2.6984614788	 0.125474
H	 1.9647122164	 0.4012861252	 3.7907135322	 0.120531
H	-0.6087897588	-1.5503679123	 2.7320579124	 0.119098
H	-0.734658198	-2.4069806708	 1.1940952713	 0.118682
H	 0.6480515513	-2.7023480011	 2.2578423959	 0.115807
158.7447	161.3778	180.303	192.2225	208.5041	232.0176	255.3368	322.6891	378.4763	451.2365	529.612	595.3874	628.3896	669.6929	725.4466	767.2898	827.0396	873.8055	918.6053	950.9035	962.94	985.8214	1024.9337	1051.9559	1067.6676	1097.5039	1114.8917	1115.8381	1128.3237	1151.0749	1163.794	1201.95	1253.3112	1314.0547	1337.3598	1353.0919	1409.1667	1412.5781	1417.6001	1463.4235	1482.5395	1487.2131	1492.5315	1497.1554	1499.3822	1504.9173	1508.1473	3018.8683	3031.6773	3032.7511	3075.9514	3086.1468	3094.6051	3095.5573	3101.1592	3105.3316	3116.8227	3137.9711	3163.6954	3190.367
CC1C2N3CC3(C)C12C	C[C@H]1[C@H]2N3C[C@]3(C)[C@@]12C	
InChI=1S/C8H13N/c1-5-6-8(5,3)7(2)4-9(6)7/h5-6H,4H2,1-3H3	InChI=1S/C8H13N/c1-5-6-8(5,3)7(2)4-9(6)7/h5-6H,4H2,1-3H3/t5-,6+,7+,8-,9?/m0/s1
