18
gdb 95031	2.65926	1.93427	1.48242	1.2325	69.67	-0.2369	0.0517	0.2886	924.393	0.149565	-439.023619	-439.016416	-439.015472	-439.055028	28.916	
O	 0.1741506436	 1.4688608638	 0.0866598326	-0.430963
C	 0.1007927091	 0.0530544714	 0.0853827401	 0.086618
C	 0.6282676636	-0.4904771046	 1.4289512579	-0.093843
O	-0.5000496003	-0.6996369239	 2.2804249801	-0.266147
C	-1.5855191367	-1.1014811009	 1.4638030965	 0.087441
C	-2.8348339616	-0.2149087545	 1.5273631053	-0.044793
C	-2.470410163	 1.1972708122	 1.3859901302	-0.248707
N	-2.5502336028	 0.3842494739	 0.1428678597	-0.179593
C	-1.335445877	-0.5243443947	 0.062512684	-0.039483
H	-0.5021367481	 1.8007947736	-0.5141356588	 0.297745
H	 0.6941617823	-0.3482769762	-0.7483436839	 0.074522
H	 1.1678910232	-1.4360875989	 1.2670319592	 0.09285
H	 1.2975758181	 0.2227535518	 1.9159402394	 0.126332
H	-1.7734818571	-2.1780722453	 1.5392889892	 0.077406
H	-3.8280163095	-0.5590565138	 1.7926235571	 0.098228
H	-3.2812900352	 1.9179216467	 1.4301248925	 0.122238
H	-1.5128796654	 1.5498790696	 1.7469561132	 0.151398
H	-1.4933376932	-1.2145682701	-0.7668618143	 0.088752
124.9233	197.3342	220.0542	304.5455	359.0679	401.8398	473.9134	582.5304	635.1049	724.2912	752.7509	770.1731	833.6701	846.8915	877.8352	932.7458	960.5132	998.5944	1000.5804	1010.6204	1040.6414	1057.9043	1109.0233	1119.1168	1131.4677	1172.0325	1211.6475	1220.084	1246.1165	1266.3716	1277.6955	1321.9454	1338.2761	1360.8147	1367.5576	1392.503	1403.719	1501.5464	1504.6405	2983.1845	3003.5375	3043.7101	3103.3699	3106.9533	3136.519	3179.0881	3236.8224	3807.2138
OC1COC2C3CN3C12	O[C@H]1CO[C@H]2[C@H]3CN3[C@@H]12	
InChI=1S/C6H9NO2/c8-4-2-9-6-3-1-7(3)5(4)6/h3-6,8H,1-2H2	InChI=1S/C6H9NO2/c8-4-2-9-6-3-1-7(3)5(4)6/h3-6,8H,1-2H2/t3-,4+,5+,6+,7?/m1/s1
