23
gdb 57412	3.18483	0.97109	0.90871	3.0318	85.9	-0.2385	-0.0155	0.223	1411.5056	0.202645	-388.311775	-388.301574	-388.30063	-388.346756	38.93	
C	 0.2470611974	 1.5627530144	 0.194518893	-0.418658
C	 0.0233334871	 0.0483694545	 0.0290216923	 0.235889
C	 0.6689164489	-0.6865905791	 1.219526266	-0.403308
C	-1.4910117946	-0.2359251397	 0.0155990169	-0.403308
C	 0.6344710826	-0.506566572	-1.275128685	 0.03958
C	 0.2476629266	 0.1218529356	-2.6553504569	-0.382265
C	 1.7330954228	 0.049127265	-3.0381356358	 0.406621
O	 2.3269470646	 0.1279626487	-4.0740392004	-0.291992
C	 2.1487567852	-0.2747951466	-1.5956985382	-0.382265
H	 1.3098433066	 1.8211657302	 0.2334915648	 0.113435
H	-0.2122014722	 2.1387379668	-0.6148763305	 0.113434
H	-0.2034165155	 1.9066575129	 1.1314492867	 0.115647
H	 0.237252102	-0.3487122492	 2.1678316555	 0.110333
H	 0.5129300362	-1.7687765664	 1.1488049869	 0.109323
H	 1.7482694246	-0.5061716177	 1.2625597238	 0.114149
H	-1.9855465447	 0.2728824224	-0.818640738	 0.114149
H	-1.6918810322	-1.3087464748	-0.0801387725	 0.109323
H	-1.9616891318	 0.1100938243	 0.9421586206	 0.110333
H	 0.426924544	-1.5817625654	-1.3052408726	 0.077748
H	-0.4459253608	-0.4237230708	-3.2997993979	 0.126423
H	-0.0897464559	 1.1618160482	-2.5877045924	 0.129493
H	 2.5744280629	 0.6059536218	-1.1027184444	 0.129493
H	 2.841897366	-1.1097065231	-1.4672003617	 0.126423
55.9419	71.1362	179.4288	216.541	251.0097	252.4752	282.8316	299.1843	339.1923	376.488	418.1281	425.7295	490.9531	507.8642	613.2181	673.445	717.4525	813.664	909.6559	926.8484	935.5054	937.4139	955.8676	984.4493	1004.7049	1031.4086	1052.3158	1077.651	1114.4884	1168.7166	1189.8004	1231.3003	1238.5315	1241.3652	1280.5104	1286.5195	1366.3098	1399.274	1399.3009	1428.6656	1432.0093	1451.731	1481.7681	1483.7032	1485.4787	1504.5677	1507.9784	1516.889	1892.486	3022.1032	3026.0081	3036.1935	3043.174	3052.5312	3058.6431	3090.3027	3093.8805	3094.1175	3096.0868	3101.6711	3106.6991	3113.7538	3113.8255
CC(C)(C)C1CC(=O)C1	CC(C)(C)C1CC(=O)C1	
InChI=1S/C8H14O/c1-8(2,3)6-4-7(9)5-6/h6H,4-5H2,1-3H3	InChI=1S/C8H14O/c1-8(2,3)6-4-7(9)5-6/h6H,4-5H2,1-3H3
