15
gdb 44283	3.55069	1.86552	1.4683	4.4137	67.92	-0.2336	0.0173	0.2509	861.3899	0.115399	-416.765488	-416.759318	-416.758374	-416.795973	25.421	
O	 0.0089177355	-0.0797391719	 0.072884891	-0.390643
C	-0.0289858407	 1.1358765352	 0.0240124952	 0.458761
N	-1.1728744777	 1.8732634856	-0.022394963	-0.362892
C	-1.0999148557	 3.2939403397	-0.0788551191	 0.038997
C	-0.0741653484	 4.0835138799	 0.706390438	-0.144724
C	 0.0098935028	 3.9902960186	-0.8110802643	-0.047842
N	 1.3352800672	 3.2694282768	-0.7592406262	-0.16212
C	 1.2515437848	 3.3152251411	 0.7268271971	-0.052687
C	 1.1940254704	 1.9947680859	 0.0297939139	-0.167912
H	-2.0571739474	 1.3901664311	-0.0191321568	 0.25422
H	-2.067998684	 3.7747883574	-0.1627611329	 0.119779
H	-0.318844589	 4.9129009291	 1.3559358401	 0.105269
H	-0.1343781051	 4.7188562451	-1.5984625762	 0.113461
H	 2.1048495086	 3.6034059633	 1.3307752244	 0.113164
H	 2.1119194686	 1.417701973	 0.0074795188	 0.12517
101.0225	339.6951	391.3622	426.0044	507.2421	537.0955	573.7728	701.3555	719.1385	732.8865	766.6066	792.077	854.1251	879.2895	908.2892	948.2634	971.5951	989.3913	1019.3007	1050.9373	1061.6507	1073.3939	1089.168	1157.5488	1195.7418	1250.721	1284.1981	1309.579	1358.2212	1366.5912	1431.2317	1481.339	1803.4138	3171.4904	3181.5133	3187.4904	3193.5861	3208.852	3639.0735
O=C1NC2C3C2N2C3C12	O=C1N[C@H]2[C@@H]3[C@H]2N2[C@@H]3[C@@H]12	
InChI=1S/C6H6N2O/c9-6-5-4-1-2(7-6)3(1)8(4)5/h1-5H,(H,7,9)	InChI=1S/C6H6N2O/c9-6-5-4-1-2(7-6)3(1)8(4)5/h1-5H,(H,7,9)/t1-,2+,3-,4+,5+,8?/m1/s1
