19
gdb 106272	2.74365	1.3256	1.09285	1.7997	72.06	-0.2522	0.0684	0.3207	1168.8483	0.157299	-460.10176	-460.092733	-460.091789	-460.135212	34.543	
C	 0.1201861532	 1.3932303755	 0.1131472377	-0.512982
C	-0.0248255135	-0.0773704203	-0.1094079418	 0.345751
C	 0.5657641302	-1.0021553813	-1.1940923177	-0.295523
C	-0.0607877654	-1.8996210445	-0.1085842839	 0.324441
C	 0.1006395633	-3.3663067581	 0.1534184502	-0.187684
O	 1.4636783123	-3.7145040963	 0.3126127616	-0.41606
O	 0.5448303505	-1.0011289321	 0.9344409814	-0.42138
C	-1.308438051	-0.9680053604	-0.0795853804	 0.105152
O	-2.0877752409	-0.9473939122	 1.0682984475	-0.448107
H	 1.1713286577	 1.6659473843	 0.2451548229	 0.136202
H	-0.2763095015	 1.9425422982	-0.7465226411	 0.132252
H	-0.4376279374	 1.7003334067	 1.0032420496	 0.135669
H	 0.1001839995	-0.9949368181	-2.1833213554	 0.097993
H	 1.6541613228	-1.0290667471	-1.2340401642	 0.116676
H	-0.4979407647	-3.6376201079	 1.0378803494	 0.100262
H	-0.2841440977	-3.9399717945	-0.6966013399	 0.118647
H	 1.8392867867	-3.0693957594	 0.923692081	 0.294437
H	-1.9616992562	-0.9566805825	-0.9549231451	 0.089067
H	-1.4502723079	-0.95590719	 1.7982802581	 0.285189
93.4055	127.5537	183.1087	204.0274	226.1027	282.7839	325.9249	386.1682	401.003	502.0854	523.2162	587.9281	624.1935	651.9123	713.4774	759.3966	779.8106	861.1828	903.4642	947.6505	1006.6917	1017.8999	1079.8268	1112.176	1123.1395	1137.6962	1152.6341	1165.8348	1199.3104	1233.5413	1269.2158	1300.1941	1362.3929	1371.7684	1411.6831	1440.0075	1446.0294	1477.032	1486.1633	1494.1376	1510.1481	2980.6201	3039.826	3065.7844	3074.3649	3098.7298	3113.6048	3116.7538	3156.3799	3725.5878	3792.5197
CC12CC(CO)(O1)C2O	C[C@@]12C[C@@](CO)(O1)[C@H]2O	
InChI=1S/C6H10O3/c1-5-2-6(3-7,9-5)4(5)8/h4,7-8H,2-3H2,1H3	InChI=1S/C6H10O3/c1-5-2-6(3-7,9-5)4(5)8/h4,7-8H,2-3H2,1H3/t4-,5-,6-/m0/s1
