12
gdb 21867	3.93476	2.0623	1.35311	3.7526	60.86	-0.2318	-0.0427	0.1891	819.9583	0.086768	-410.860459	-410.854115	-410.853171	-410.891067	23.827	
O	-0.0975964946	 1.2965656117	 0.0098813661	-0.40199
C	 0.0521904311	-0.0343606423	 0.0023804871	 0.527114
N	 1.2142498546	-0.5861323932	-0.0069958119	-0.434405
C	 1.2492254812	-1.9889218967	-0.0139828609	 0.317062
N	 2.3131291202	-2.6987159328	-0.0236816497	-0.533248
C	-0.058503072	-2.6660306137	-0.0102299257	 0.020902
N	-1.1946706537	-2.0644558221	-0.0006498956	-0.174508
N	-1.1295096047	-0.6997799875	 0.0060769394	-0.29004
H	 0.7976468576	 1.6651928786	 0.0065676938	 0.31752
H	 3.1286732118	-2.0821020426	-0.0252589874	 0.216127
H	-0.0768090712	-3.7501662744	-0.015796632	 0.147851
H	-2.0102690403	-0.2127725849	 0.0132348466	 0.287614
105.8298	205.5641	356.2078	391.054	494.1168	508.3603	532.2641	545.4873	581.7719	717.009	757.5233	769.6135	906.3907	958.0397	970.0073	1033.7321	1082.5989	1162.8252	1242.2952	1313.972	1380.0061	1389.4868	1545.6956	1651.2107	1685.695	1705.7051	3206.6314	3457.8146	3661.253	3768.5398
OC1=NC(=N)C=NN1	O[C@H]1N=C([NH])C=NN1	
InChI=1S/C3H4N4O/c4-2-1-5-7-3(8)6-2/h1H,(H3,4,6,7,8)	InChI=1S/C3H5N4O/c4-2-1-5-7-3(8)6-2/h1,3-4,7-8H/t3-/m0/s1
