13
gdb 81729	3.35394	1.31057	1.04285	2.5057	67.43	-0.2459	-0.0467	0.1992	1087.5376	0.085453	-456.483265	-456.474871	-456.473927	-456.516483	30.199	
O	-0.1289062052	 1.4892496846	 0.1687650002	-0.419954
C	-0.0125455901	 0.1087707658	 0.0073478598	-0.000464
C	-1.3259705281	-0.6720988112	-0.0036039522	-0.072673
O	-2.0258425295	-0.3106063607	-1.1804274602	-0.263546
C	-1.0146779544	-1.3535951722	-1.301355966	 0.207029
C	-1.3509631456	-2.6295795446	-1.8154776458	 0.156496
C	-1.5697715105	-3.7175532838	-2.2775893914	-0.380607
C	 0.2742590317	-0.5188940299	-1.4028454022	 0.315377
O	 1.171342041	-0.4312970045	-2.18079787	-0.285069
H	 0.6808941474	 1.8985208821	-0.1560316417	 0.303208
H	 0.7045139174	-0.3470157954	 0.7135374435	 0.102361
H	-1.8911340962	-1.0736524245	 0.8284019885	 0.135808
H	-1.7745074478	-4.6778521656	-2.6833214925	 0.202033
91.1067	123.6529	133.9903	196.9534	254.043	257.6425	382.0934	459.4816	527.9686	594.8853	615.3056	629.9619	670.2422	691.7645	800.6353	811.2641	855.9926	952.1184	964.4812	1004.2668	1135.9054	1167.6766	1187.6116	1263.3267	1296.8764	1389.5019	1426.7245	1910.4785	2243.4318	2954.5312	3207.6285	3498.5741	3809.548
OC1C2OC2(C#C)C1=O	O[C@H]1[C@H]2O[C@@]2(C#C)C1=O	
InChI=1S/C6H4O3/c1-2-6-4(8)3(7)5(6)9-6/h1,3,5,7H	InChI=1S/C6H4O3/c1-2-6-4(8)3(7)5(6)9-6/h1,3,5,7H/t3-,5-,6+/m1/s1
