18
gdb 7325	4.28973	1.13866	0.91569	0.4708	71.68	-0.2254	-0.0548	0.1706	1277.9201	0.152016	-381.154028	-381.14435	-381.143405	-381.189652	33.419	
C	-0.0706530483	 1.5252127728	-0.1014343965	-0.407554
C	 0.0666781387	 0.0133147755	 0.041336823	-0.092221
N	 0.5868911673	-0.573129732	-1.1766311552	-0.295346
C	 0.724586217	-1.9079260141	-1.3495208596	 0.243944
N	 0.3646726013	-2.7571073036	-0.4527957054	-0.536169
C	 1.3434854594	-2.2478662862	-2.7064549559	 0.360374
C	 1.5240027333	-3.7076613481	-3.0597268284	-0.50033
O	 1.6756804767	-1.3569748256	-3.4580152793	-0.311415
H	 0.8978932868	 1.9929214332	-0.3099146629	 0.122718
H	-0.7569812963	 1.7846348397	-0.9141011132	 0.125932
H	-0.4597181428	 1.9600988274	 0.8228305453	 0.126513
H	 0.7235599963	-0.2374196002	 0.8859828457	 0.114282
H	-0.90232068	-0.4472836664	 0.2690486178	 0.123835
H	 0.9481623872	 0.008332159	-1.916530982	 0.256327
H	 0.5316099886	-3.7087669524	-0.7681640885	 0.212718
H	 0.5630884033	-4.2323831912	-3.0413352389	 0.153678
H	 1.9617611761	-3.7792839217	-4.0553745596	 0.148509
H	 2.1797147256	-4.2020855063	-2.3352331561	 0.154203
30.0799	80.1222	85.1441	136.8665	157.6297	256.5399	304.0576	336.0808	401.239	414.8643	455.4339	523.2245	601.3225	702.5934	790.1372	822.1827	836.6196	909.269	977.269	1039.7701	1063.6918	1149.5933	1174.1689	1189.2406	1212.2819	1290.0805	1314.9294	1378.752	1392.5701	1416.0876	1466.634	1471.3106	1494.1433	1500.9137	1527.7112	1553.0928	1693.4298	1791.7001	3010.3594	3036.6104	3043.5029	3045.8292	3103.707	3106.4586	3120.9497	3158.6855	3526.8543	3633.5851
CCNC(=N)C(C)=O	CCNC(=N)C(=O)C	
InChI=1S/C5H10N2O/c1-3-7-5(6)4(2)8/h3H2,1-2H3,(H2,6,7)	InChI=1S/C5H10N2O/c1-3-7-5(6)4(2)8/h3H2,1-2H3,(H2,6,7)
