15
gdb 29154	3.1259	1.43177	0.98514	6.0923	74.68	-0.1872	-0.0243	0.1628	1122.8816	0.115541	-450.178368	-450.170401	-450.169457	-450.210727	30.559	
N	 0.15737088	 1.3988213554	 0.3774717119	-0.592173
C	-0.0216878684	 0.0424999436	 0.0389791043	 0.3147
C	-1.1823358709	-0.6162815223	-0.1049270436	-0.10233
N	-1.1823959919	-1.9866055884	-0.3475399872	-0.363452
C	-0.05067419	-2.7491443918	-0.5406014875	 0.276169
N	-0.121929671	-3.9970704697	-0.7958017224	-0.531137
C	 1.2667509483	-2.0135291789	-0.3976800311	 0.375394
O	 2.3313577816	-2.5870694645	-0.5160865218	-0.370378
N	 1.1710461984	-0.6757851007	-0.1002052177	-0.392691
H	 2.0400881702	-0.2008630102	 0.102981361	 0.261801
H	 0.5129685219	 1.9511357714	-0.3988283271	 0.250604
H	-0.7055884933	 1.8179204068	 0.6995070556	 0.252033
H	-2.1443438736	-0.1300093961	-0.0490119864	 0.12175
H	-2.0564679142	-2.4832698822	-0.4249173553	 0.261604
H	 0.8307496229	-4.3515755625	-0.8895639625	 0.238107
96.4067	152.9511	222.7529	292.7098	341.626	348.1077	402.9252	467.9548	525.632	547.4708	586.7377	608.6596	646.3927	692.7184	743.4535	791.4808	803.418	832.8413	876.8978	1017.8731	1074.024	1165.6539	1214.1117	1268.3468	1277.798	1381.4227	1442.5199	1452.3071	1486.9823	1642.6081	1712.1527	1750.846	1792.5924	3246.2102	3482.4818	3484.7112	3603.7286	3607.3763	3631.6593
NC1=CNC(=N)C([O-])=[NH+]1	NC1=CN[C]([NH])C(=O)N1	
InChI=1S/C4H6N4O/c5-2-1-7-3(6)4(9)8-2/h1H,(H2,6,7)(H3,5,8,9)	InChI=1S/C4H6N4O/c5-2-1-7-3(6)4(9)8-2/h1H,(H2,6,7)(H3,5,8,9)
