21
gdb 118543	1.85337	0.98011	0.67477	3.2178	76.56	-0.2705	0.0067	0.2771	1670.3064	0.179532	-461.387008	-461.376006	-461.375062	-461.424479	37.795	
C	-0.1487843131	 1.5263157191	 0.218869299	-0.403926
C	-0.0137937462	 0.0081657424	 0.0817869276	-0.173877
C	 0.7070704436	-0.4390533594	-1.1914111164	 0.096701
C	 0.8771141863	-1.9547782533	-1.2791979627	-0.204651
C	 1.6911598045	-2.42267151	-2.4889459192	-0.080118
O	 1.8969934177	-3.8256765156	-2.4879344687	-0.414518
O	-0.064602893	-0.0089304017	-2.337639184	-0.193892
C	 0.4432225861	 0.9288743297	-3.1567003654	 0.171188
O	-0.14597835	 1.3447310585	-4.1091153375	-0.279435
H	 0.8315646941	 2.0162800833	 0.2200534206	 0.114614
H	-0.7379295912	 1.9493979695	-0.5996053404	 0.139846
H	-0.6487992633	 1.7869946929	 1.1559261797	 0.123127
H	 0.5411698369	-0.3963458361	 0.9365841577	 0.105807
H	-1.0046207802	-0.4610474802	 0.0995131448	 0.114775
H	 1.6937387669	 0.0469533878	-1.2404085014	 0.085444
H	 1.3723190315	-2.3088569023	-0.3683378321	 0.113133
H	-0.1187217912	-2.4163904314	-1.3045272077	 0.104871
H	 1.2133719529	-2.0872388632	-3.4200932287	 0.109841
H	 2.6928926497	-1.977652601	-2.458134393	 0.108986
H	 1.0501421424	-4.2485457748	-2.6618698784	 0.284484
H	 1.4554662555	 1.2623106357	-2.8544897138	 0.077599
48.1224	74.5293	78.5245	112.4131	131.1335	161.1649	235.8283	267.9989	285.0602	296.653	336.3261	365.8983	476.684	573.422	609.9129	771.1171	805.7618	906.232	957.944	1003.2863	1013.5257	1046.5456	1049.4075	1078.2573	1112.0627	1128.8231	1134.5361	1173.1274	1226.9314	1275.0993	1297.5255	1322.2746	1350.0589	1380.9151	1392.7429	1409.5348	1414.2636	1423.4179	1441.7852	1469.339	1480.9827	1500.5259	1509.4545	1514.715	1860.7078	2943.4447	2991.4738	3006.9417	3026.8587	3035.1983	3037.2189	3057.7716	3071.4537	3087.073	3105.3791	3119.4763	3818.6753
CCC(CCO)OC=O	CC[C@@H](CCO)OC=O	
InChI=1S/C6H12O3/c1-2-6(3-4-7)9-5-8/h5-7H,2-4H2,1H3	InChI=1S/C6H12O3/c1-2-6(3-4-7)9-5-8/h5-7H,2-4H2,1H3/t6-/m0/s1
