19
gdb 72200	3.33632	1.8508	1.60987	0.484	77.55	-0.2058	0.0675	0.2733	907.2527	0.161993	-381.996826	-381.990161	-381.989217	-382.027363	28.192	
C	 0.0309016608	 1.4413962793	-0.0864966551	-0.477055
C	-0.0462591078	-0.0577830512	 0.0348123939	 0.321446
C	-1.3396696205	-0.786679537	-0.301497864	-0.240898
N	-1.0634166647	-2.2141738558	-0.0768444612	-0.137568
C	-0.1625964349	-2.673483163	-1.1987470794	-0.183072
C	 1.0444855089	-2.2598821753	-0.3774179924	 0.020825
C	 0.1539347626	-2.2378749288	 0.87460958	-0.039781
C	 0.6127948581	-0.7987649338	 1.1236352514	-0.088785
N	 1.2568463898	-0.7511198562	-0.2518549037	-0.213105
H	 0.9969056621	 1.8105545661	 0.2658145317	 0.132757
H	-0.086332832	 1.7516597848	-1.1301627679	 0.124281
H	-0.7620363349	 1.9179792717	 0.500554331	 0.11771
H	-2.134928879	-0.4305971489	 0.3676560562	 0.101474
H	-1.6840589034	-0.6351100172	-1.3298212811	 0.105848
H	-0.2391522784	-3.7581632675	-1.3302152643	 0.106491
H	-0.3335029166	-2.1797061664	-2.1609901708	 0.102906
H	 2.0128302674	-2.7570954136	-0.4545108734	 0.077799
H	 0.105889581	-2.9893110932	 1.6600004777	 0.077941
H	 1.0785783416	-0.381483484	 2.0099519314	 0.090788
192.9332	213.7165	299.7463	347.7359	446.9917	479.9419	575.1598	632.3933	664.9915	702.2874	769.7323	800.6586	861.2055	874.0114	885.6235	904.1627	948.6403	967.9549	984.6751	1009.0767	1019.0078	1033.8033	1055.8729	1089.413	1130.0113	1176.0641	1203.9383	1204.8777	1230.2669	1249.0938	1261.4271	1274.2424	1306.343	1312.1082	1334.5593	1407.5248	1420.8885	1487.7796	1491.8653	1497.282	1511.8994	3010.1857	3032.8565	3034.8334	3071.2883	3085.7074	3092.2271	3096.5318	3123.5207	3131.6633	3168.18
CC12CN3CC4C3C1N24	C[C@]12CN3C[C@@H]4[C@H]3[C@H]1N24	
InChI=1S/C7H10N2/c1-7-3-8-2-4-5(8)6(7)9(4)7/h4-6H,2-3H2,1H3	InChI=1S/C7H10N2/c1-7-3-8-2-4-5(8)6(7)9(4)7/h4-6H,2-3H2,1H3/t4-,5+,6-,7+,9?/m1/s1
