18
gdb 107551	2.10833	1.79386	1.17299	4.1601	72.29	-0.2385	-0.0365	0.202	1076.0759	0.147084	-439.041726	-439.033257	-439.032312	-439.074995	31.65	
O	 0.0305253265	 1.3518137364	 0.4020480232	-0.424269
C	 0.0454194549	 0.0807044338	-0.217436358	-0.179253
C	-1.3025922333	-0.5693213149	-0.189931859	 0.318662
N	-1.9451520885	-0.9621010274	 1.0913625916	-0.360595
C	-1.8063100001	-1.9595046077	 0.0082474993	-0.118942
C	-3.0158058281	-1.7191267099	-0.9065607345	-0.256311
C	-2.4791427942	-0.2581929151	-1.1295587365	-0.145934
C	-3.3034861004	 0.9478494566	-0.7636314243	 0.161852
O	-2.8259476112	 1.9490026032	-0.2817932826	-0.251818
H	-0.8171446826	 1.7716603546	 0.1859136421	 0.297436
H	 0.3965124285	 0.1431650458	-1.2620723478	 0.083253
H	 0.7710738946	-0.5370434447	 0.3275141487	 0.098277
H	-1.1907549855	-1.1095896942	 1.7618856941	 0.236234
H	-1.261987306	-2.8838107249	 0.1577307502	 0.103776
H	-3.0104892952	-2.3108132527	-1.82334388	 0.111129
H	-3.9849596811	-1.8110708688	-0.409973962	 0.117167
H	-2.1531418743	-0.1269051758	-2.1693883229	 0.113217
H	-4.3912049141	 0.8956012258	-0.9844336916	 0.096118
94.2944	108.0859	158.6637	171.8885	250.2276	310.3301	359.463	466.9119	481.4702	532.1303	604.7303	686.4254	737.5469	784.8482	878.1115	908.5449	934.0321	965.6782	985.2189	1021.1838	1032.0815	1068.9835	1082.4046	1092.3033	1126.2919	1163.4007	1184.4485	1205.5918	1254.4019	1289.4338	1308.889	1353.3515	1374.8542	1412.1734	1427.7936	1472.4343	1483.6763	1507.1791	1800.1383	2905.1701	2952.4859	3035.5628	3036.2667	3069.7038	3130.635	3193.6383	3474.5233	3684.9244
OCC12NC1CC2C=O	OC[C@]12N[C@H]1C[C@H]2C=O	
InChI=1S/C6H9NO2/c8-2-4-1-5-6(4,3-9)7-5/h2,4-5,7,9H,1,3H2	InChI=1S/C6H9NO2/c8-2-4-1-5-6(4,3-9)7-5/h2,4-5,7,9H,1,3H2/t4-,5-,6+/m0/s1
