17
gdb 106213	2.87367	1.82768	1.33952	2.447	71.85	-0.2266	-0.0101	0.2165	966.6846	0.134954	-421.72822	-421.720841	-421.719897	-421.760028	29.114	
C	 0.0454683787	 1.3425483367	 0.1663730563	-0.263081
O	-0.0394082575	-0.0189649924	-0.212878454	-0.299225
C	-1.3058547652	-0.5509864269	-0.1321251903	 0.411874
C	-2.3959148511	-0.1402447419	-1.1165708128	-0.195744
C	-3.4367876551	-0.9109845159	-0.7937132578	-0.103509
C	-2.9420874619	-1.7483496527	 0.3687832149	-0.106215
C	-1.4350383284	-2.0948037922	 0.1024666794	 0.019193
O	-1.1068985728	-1.9673840548	 1.5252905542	-0.322508
C	-2.0173299874	-0.8513435853	 1.2582841465	-0.002099
H	 1.0834977074	 1.6484569969	 0.0223658534	 0.133919
H	-0.6039136322	 1.9812776174	-0.4491510923	 0.110633
H	-0.2260595342	 1.4829795782	 1.2217272729	 0.116613
H	-2.2944069482	 0.5953139523	-1.902171675	 0.112429
H	-4.4175817973	-0.9620406366	-1.2455396513	 0.113366
H	-3.567496963	-2.4918321948	 0.8564789274	 0.086768
H	-0.9900256257	-2.919387416	-0.4592176235	 0.095774
H	-2.2777426062	-0.189356692	 2.087855932	 0.091813
87.1642	172.9156	196.6645	328.6836	340.5658	430.0908	502.7346	531.8293	646.3864	669.1592	700.6409	742.3398	776.3781	855.7058	883.349	917.248	925.5299	936.3295	970.0708	1031.7758	1055.7207	1077.2605	1103.4983	1140.5981	1143.4414	1164.5228	1180.4583	1191.6151	1225.0205	1246.6075	1294.7589	1312.0557	1360.1793	1486.1955	1489.096	1504.9254	1637.1104	2993.2849	3046.6425	3090.2098	3099.5504	3127.7676	3160.5256	3217.7998	3243.6907
COC12C=CC3C1OC23	CO[C@@]12C=C[C@H]3[C@@H]1O[C@@H]23	
InChI=1S/C7H8O2/c1-8-7-3-2-4-5(7)9-6(4)7/h2-6H,1H3	InChI=1S/C7H8O2/c1-8-7-3-2-4-5(7)9-6(4)7/h2-6H,1H3/t4-,5-,6+,7-
