20
gdb 108640	2.68662	1.3778	0.98981	2.4207	82.29	-0.208	0.0225	0.2305	1225.2137	0.17074	-403.12584	-403.116791	-403.115847	-403.159874	33.762	
C	 0.203554436	 1.5548083136	-0.1030017883	-0.502219
C	 0.0428882421	 0.068729425	-0.0187906359	 0.180854
C	-1.0587510978	-0.6925559578	 0.050592241	 0.220026
C	-2.5141360058	-0.3454689685	 0.103234933	-0.189127
O	-2.7255738144	 1.0278413027	 0.3824830704	-0.408346
C	-0.6768520193	-2.1403301845	 0.0351867326	-0.117776
C	 0.0321028644	-2.6106355737	-1.190074731	-0.237881
N	 0.797934916	-2.2225549713	-0.0016772779	-0.102075
C	 1.2732741677	-0.8245373712	-0.0145163469	-0.241094
H	 0.8350872905	 1.9203798118	 0.7178092154	 0.119124
H	 0.7179811735	 1.8340241968	-1.0322504505	 0.116159
H	-0.7543156052	 2.0687256531	-0.0640695032	 0.155741
H	-2.9839572692	-0.6315657988	-0.8550763424	 0.101375
H	-2.9902133318	-0.9787505757	 0.873076576	 0.09624
H	-3.6705123287	 1.1974283613	 0.3336266771	 0.289914
H	-1.2066707119	-2.8452951718	 0.6734854239	 0.08679
H	 0.0838162625	-3.6701303771	-1.4283519742	 0.111096
H	 0.0249954388	-1.9421125694	-2.0493588759	 0.105818
H	 1.9234757514	-0.648961702	-0.8823837033	 0.106991
H	 1.8899811212	-0.6453078923	 0.8781384498	 0.108392
46.6166	152.4688	160.0848	189.3678	230.4609	247.2743	327.7672	349.0911	399.7782	426.6257	560.9788	632.3038	665.1477	735.1479	812.171	840.1909	932.9791	952.1999	986.0519	1018.3018	1035.2593	1069.3021	1078.4211	1093.1743	1107.9438	1131.5135	1156.204	1178.4869	1213.0608	1240.8619	1248.5771	1270.0595	1274.6631	1343.6226	1369.3256	1409.4296	1469.867	1485.5633	1486.7504	1494.0385	1499.4245	1509.2558	1738.4548	2936.7997	2948.4328	2996.6177	3013.9644	3030.7934	3051.6216	3089.5091	3119.0862	3175.6074	3179.1243	3836.3522
CC1=C(CO)C2CN2C1	CC1=C(CO)[C@H]2CN2C1	
InChI=1S/C7H11NO/c1-5-2-8-3-7(8)6(5)4-9/h7,9H,2-4H2,1H3	InChI=1S/C7H11NO/c1-5-2-8-3-7(8)6(5)4-9/h7,9H,2-4H2,1H3/t7-,8?/m1/s1
