17
gdb 98610	4.59896	1.00693	0.91265	1.8148	69.93	-0.245	-0.0057	0.2393	1285.4738	0.135091	-458.914789	-458.906494	-458.90555	-458.949513	29.864	
C	 0.1310703763	 1.43756812	-0.2391312342	-0.242382
O	-0.0273918739	 0.012450439	-0.2316260596	-0.227761
C	-1.1943255128	-0.4363426844	 0.2743722446	 0.417094
O	-2.0583202734	 0.2993459006	 0.6874386752	-0.366061
C	-1.2154967618	-1.9462486203	 0.2300686343	-0.106917
C	-1.5056739955	-2.8142657894	 1.4982134586	 0.0397
C	-2.9970555073	-2.4092858734	 1.4721712371	-0.233744
C	-2.5308359194	-2.7585576901	 0.0398412195	 0.044309
O	-1.8190751305	-3.9382540828	 0.5892273171	-0.308605
H	 1.1138065019	 1.6237177217	-0.6718924653	 0.136168
H	-0.6495788036	 1.9081464365	-0.8419682172	 0.142974
H	 0.0769462494	 1.836776458	 0.7767842179	 0.142146
H	-0.3832682876	-2.3344831538	-0.3546716152	 0.105342
H	-0.8407266288	-3.0134436379	 2.3387615125	 0.103482
H	-3.6652481473	-3.1474047381	 1.9163394836	 0.107256
H	-3.2589700145	-1.3755950252	 1.6864640134	 0.143274
H	-3.1069614412	-2.8968101003	-0.8749712921	 0.103725
15.2009	115.7976	133.5112	181.9842	260.1619	319.7377	372.9933	411.109	591.194	679.4133	744.5147	778.5325	834.3455	880.1366	913.6764	917.5585	932.5634	958.3409	1021.1112	1048.7466	1074.3264	1098.408	1151.6246	1176.4831	1178.4074	1189.3863	1204.1976	1215.1501	1218.5515	1270.7345	1275.4742	1386.0149	1472.7935	1481.5721	1483.5726	1496.1051	1807.6569	3053.1158	3095.1857	3118.5493	3123.6342	3127.8463	3139.547	3161.6739	3187.3412
COC(=O)C1C2CC1O2	COC(=O)[C@H]1[C@H]2C[C@@H]1O2	
InChI=1S/C6H8O3/c1-8-6(7)5-3-2-4(5)9-3/h3-5H,2H2,1H3	InChI=1S/C6H8O3/c1-8-6(7)5-3-2-4(5)9-3/h3-5H,2H2,1H3/t3-,4+,5+
