17
gdb 77108	3.35417	1.11556	0.93341	3.1844	74.57	-0.2584	0.0248	0.2832	1235.9782	0.136229	-417.97901	-417.970559	-417.969615	-418.012238	31.655	
O	 0.3023031836	 0.8629891143	-0.6058553862	-0.421192
C	-0.0547569361	-0.404147679	-0.1398290022	 0.042824
C	-0.0409493966	-0.6818532612	 1.4129043554	-0.18015
C	-1.4172202837	-1.4101360482	 1.2450302995	-0.316363
C	-1.5528938172	-0.6931903204	-0.1001090436	 0.332747
C	-2.5926494628	 0.2661473953	-0.5282748779	-0.295606
N	-2.4399356836	-1.0480985381	-1.1899625041	-0.378037
C	 1.0812932115	-1.4162993701	 1.9615004072	 0.255456
N	 1.9881728939	-2.011470459	 2.3635965026	-0.325696
H	 1.2493179982	 0.8819884714	-0.7779551723	 0.299098
H	 0.4900160716	-1.204148784	-0.6606935744	 0.096525
H	-0.1650528663	 0.2685423296	 1.9378511212	 0.133427
H	-1.2983359553	-2.490289582	 1.132983268	 0.134008
H	-2.1668523876	-1.2039199514	 2.0092658585	 0.127744
H	-3.5011506702	 0.3772644513	 0.0575131114	 0.123029
H	-2.2628552241	 1.1580169162	-1.0524771907	 0.135476
H	-1.9665622354	-0.9378358348	-2.0844620626	 0.236709
69.6107	135.8545	201.0004	224.9113	263.0885	297.7963	340.742	392.6909	471.6586	517.1795	568.7307	588.7184	733.1778	838.7468	845.0499	902.6561	946.9309	950.7825	982.1315	1025.3227	1050.4306	1064.8509	1109.2955	1127.4734	1149.3749	1191.6815	1220.2185	1235.0789	1263.5728	1275.7872	1296.4017	1349.4929	1414.3865	1452.1203	1491.7339	1515.5734	2350.0927	3007.3723	3079.1811	3089.4919	3113.4988	3141.3021	3205.7082	3488.7777	3817.9876
OC1C(CC11CN1)C#N	O[C@H]1[C@@H](C[C@]21CN2)C#N	
InChI=1S/C6H8N2O/c7-2-4-1-6(3-8-6)5(4)9/h4-5,8-9H,1,3H2	InChI=1S/C6H8N2O/c7-2-4-1-6(3-8-6)5(4)9/h4-5,8-9H,1,3H2/t4-,5-,6+/m0/s1
