20
gdb 7669	3.54176	1.82966	1.61935	1.645	74.15	-0.2385	0.0781	0.3165	906.7707	0.176902	-348.978062	-348.970185	-348.969241	-349.009848	30.712	
C	 0.1919153134	 1.4886711469	 0.0490412564	-0.445139
C	 0.0281633116	-0.0245718627	-0.0049874704	 0.32191
C	-1.4312860477	-0.4341962021	-0.209720936	-0.441428
C	 0.987639484	-0.7979884087	-0.9817306603	-0.290043
C	 1.4870175876	-1.6881884973	 0.1885684613	-0.073972
C	 2.6985057628	-1.1167355874	 0.9384700059	-0.079294
O	 1.8575217349	-0.2373907331	 1.7227981374	-0.293856
C	 0.6562812977	-0.8228275551	 1.1775167051	 0.092053
H	 1.2203756098	 1.7589581644	 0.3004243217	 0.126905
H	-0.0624746766	 1.940905746	-0.9165293732	 0.106743
H	-0.4642423842	 1.9313288095	 0.8074655551	 0.11028
H	-1.8090459784	-0.0634192929	-1.169127314	 0.114301
H	-1.5481563052	-1.5242712372	-0.2071555477	 0.110203
H	-2.0681038658	-0.0283793227	 0.5845412624	 0.113936
H	 0.4664278101	-1.338471642	-1.7759396912	 0.097434
H	 1.770114368	-0.1856446948	-1.4401004015	 0.095444
H	 1.4057624487	-2.7690721411	 0.0865608699	 0.074791
H	 3.2214735827	-1.836966216	 1.5814648659	 0.098573
H	 3.4369313208	-0.567200506	 0.3406678046	 0.098445
H	-0.0127506641	-1.1938838976	 1.9611525885	 0.062718
84.7292	213.7154	225.1207	258.1677	290.2926	316.8541	361.7843	404.4438	491.2476	593.6543	770.4568	788.3605	837.4089	862.4829	899.1351	918.5633	957.1818	975.0721	983.709	996.3651	1017.3705	1041.6447	1059.8998	1144.3853	1155.8098	1183.3995	1211.0613	1225.72	1237.3795	1257.5557	1291.3048	1303.8476	1328.4408	1360.0928	1400.0957	1418.1602	1478.4747	1483.2974	1488.0747	1500.2786	1509.162	1522.0905	3003.3034	3018.602	3026.7821	3046.9479	3048.3068	3052.0396	3084.5837	3086.186	3092.8071	3101.36	3120.2043	3123.6066
CC1(C)CC2COC12	CC1(C)C[C@H]2CO[C@@H]12	
InChI=1S/C7H12O/c1-7(2)3-5-4-8-6(5)7/h5-6H,3-4H2,1-2H3	InChI=1S/C7H12O/c1-7(2)3-5-4-8-6(5)7/h5-6H,3-4H2,1-2H3/t5-,6+/m0/s1
