23
gdb 99514	1.68349	1.54213	1.00343	1.3645	87.47	-0.2607	0.0549	0.3156	1317.0818	0.201369	-388.258472	-388.247047	-388.246103	-388.294616	42.564	
C	 0.0424551252	 1.379531639	 0.3998656516	-0.402751
C	 0.0359225259	-0.1422775747	 0.1650556302	 0.257491
C	 0.7941114644	-0.8427210921	 1.3065919784	-0.412825
C	-1.4282542825	-0.6240637635	 0.1603925355	-0.410529
C	 0.6694073797	-0.490257509	-1.2326764932	-0.170763
C	 2.1313411769	-0.0448915906	-1.4611307942	-0.105473
O	 2.1674260284	 1.3626912619	-1.6440528297	-0.416247
C	 0.5895570133	-1.9239807162	-1.5207317991	 0.316912
C	 0.5670433165	-3.1024992494	-1.7606565638	-0.454494
H	 1.0546023543	 1.7829777769	 0.4451616651	 0.122573
H	-0.4834131429	 1.9072516998	-0.4028090924	 0.108222
H	-0.4678100559	 1.6076891043	 1.342235758	 0.09751
H	 0.2866342053	-0.6632133341	 2.2601928607	 0.109016
H	 0.84246126	-1.9240063422	 1.1473555309	 0.122765
H	 1.8169537396	-0.4664602465	 1.4097561805	 0.108301
H	-1.9956577096	-0.1506358333	-0.6489884538	 0.106737
H	-1.4965342633	-1.7072801772	 0.0305908305	 0.124184
H	-1.9159165248	-0.3613926466	 1.1049750811	 0.105791
H	 0.0779591494	 0.0415293608	-1.9916803356	 0.111015
H	 2.7576888014	-0.3605009664	-0.6145266847	 0.099361
H	 2.5052095302	-0.5623476292	-2.3552740536	 0.102597
H	 3.0773253865	 1.6148047666	-1.8264644912	 0.288905
H	 0.5287066921	-4.1411321085	-1.9782604111	 0.191702
35.4029	110.5281	153.3611	176.661	218.192	223.8537	252.216	260.2293	272.1751	303.5491	338.1556	378.8038	393.5995	402.0772	481.1538	536.5327	551.2594	622.4407	639.1007	724.2399	852.5179	936.4968	937.3616	963.5862	968.8595	1013.9932	1017.6706	1058.2893	1072.9779	1105.2609	1207.0285	1227.4017	1244.0571	1251.642	1281.4939	1311.3603	1341.3455	1398.8653	1403.2805	1433.2032	1452.9253	1476.6491	1482.2825	1488.6488	1501.5896	1503.5084	1518.1567	1524.406	2227.645	2994.4597	3006.7093	3028.0099	3028.9753	3032.6861	3038.0504	3090.2236	3094.0864	3098.587	3111.1868	3117.5419	3139.837	3503.4033	3831.172
CC(C)(C)C(CO)C#C	CC(C)(C)[C@@H](CO)C#C	
InChI=1S/C8H14O/c1-5-7(6-9)8(2,3)4/h1,7,9H,6H2,2-4H3	InChI=1S/C8H14O/c1-5-7(6-9)8(2,3)4/h1,7,9H,6H2,2-4H3/t7-/m1/s1
