18
gdb 50643	2.5159	1.34898	0.92628	5.0683	73.69	-0.2415	-0.0409	0.2006	1231.8473	0.148641	-439.146137	-439.137792	-439.136847	-439.179652	30.959	
O	-0.1180549055	-0.0239734595	-0.1292897726	-0.2457
C	-0.0334933578	 1.1669370701	 0.0200059057	 0.155474
C	 1.2786404269	 1.9259483974	 0.0951004352	-0.046932
C	 1.3367797327	 2.8732432662	 1.3013939914	-0.217578
C	 2.7286264988	 3.5098202009	 1.3580956356	-0.226652
C	 3.8026799719	 2.4283925336	 1.5289118433	-0.299573
C	 3.6144426702	 1.1699597824	 0.6824988066	 0.397171
O	 4.4889005337	 0.3322854552	 0.579886302	-0.371255
N	 2.3905364422	 1.007497557	 0.0884416745	-0.312033
H	-0.9353490899	 1.8151189218	 0.083222572	 0.090054
H	 1.279655981	 2.5612387431	-0.8138661325	 0.106078
H	 0.5544254751	 3.6328815929	 1.2055055712	 0.108823
H	 1.1419378111	 2.3088748207	 2.2219360056	 0.11783
H	 2.9016221696	 4.071560648	 0.4312799506	 0.109136
H	 2.787812201	 4.2323490981	 2.1780858175	 0.108107
H	 4.8049731361	 2.8108498176	 1.3201807918	 0.133908
H	 3.823414581	 2.0793838886	 2.5691066098	 0.135729
H	 2.2412514418	 0.1164659659	-0.3664525977	 0.257411
85.3344	88.7144	131.9974	209.4303	275.3168	357.7019	435.2117	442.4537	488.5298	537.4154	605.6096	651.1646	685.2262	756.2588	858.2048	897.3006	910.1048	960.6744	969.1028	1046.2334	1070.655	1102.0055	1168.3031	1185.3373	1224.8634	1273.732	1309.4449	1318.1888	1354.666	1365.129	1372.7701	1387.0699	1421.7617	1456.156	1475.135	1488.5707	1499.1809	1792.9044	1832.4979	2888.142	2904.4984	3026.5385	3033.3808	3041.0598	3079.0135	3086.3843	3104.4034	3592.1955
O=CC1CCCC(=O)N1	O=C[C@H]1CCCC(=O)N1	
InChI=1S/C6H9NO2/c8-4-5-2-1-3-6(9)7-5/h4-5H,1-3H2,(H,7,9)	InChI=1S/C6H9NO2/c8-4-5-2-1-3-6(9)7-5/h4-5H,1-3H2,(H,7,9)/t5-/m1/s1
