21
gdb 109436	2.09427	1.40913	1.05819	2.0172	80.7	-0.2256	0.0254	0.2509	1262.6935	0.181151	-420.408381	-420.398283	-420.397339	-420.443342	37.101	
C	-0.1949004437	 1.572532151	-0.179913429	-0.327092
N	-0.1722588356	 0.1883589589	 0.3004162626	-0.29141
C	-1.3917060228	-0.5336681737	 0.0399500795	-0.142154
C	-1.6405158078	-1.2160609568	-1.3015524487	 0.403027
N	-1.5839704446	-0.8497656574	-2.502214851	-0.555949
O	-1.9015010561	-2.4484493461	-0.74980809	-0.296339
C	-1.5628830102	-1.9761867935	 0.6172946012	 0.392661
C	-0.2913053994	-2.6504281706	 1.1018370172	-0.433278
C	-2.7401448865	-2.1834327108	 1.5520084068	-0.439318
H	 0.7698158261	 2.0399938376	 0.0370749947	 0.118215
H	-0.3995041144	 1.6677469583	-1.2559102306	 0.136106
H	-0.9652237608	 2.1293690277	 0.3651853756	 0.122126
H	 0.6103208516	-0.294348743	-0.1280614744	 0.223718
H	-2.2355431617	 0.1048737931	 0.3213407816	 0.102354
H	-1.7726293359	-1.6279844529	-3.1377356612	 0.223493
H	 0.502226371	-2.5916743175	 0.3518177535	 0.119345
H	 0.0645193622	-2.1692007582	 2.0171366989	 0.136279
H	-0.4778145895	-3.7081927474	 1.3100699816	 0.126053
H	-2.9365304003	-3.2500460726	 1.6990828279	 0.127851
H	-2.5279996374	-1.7369586161	 2.5290449615	 0.128943
H	-3.644642174	-1.72026056	 1.1479193926	 0.125369
67.3405	88.5846	154.3542	178.2874	206.9165	224.0408	253.9916	299.8594	324.7683	342.764	415.3871	443.4778	547.9595	615.7894	675.9031	761.6146	818.7707	854.2055	873.1925	934.0853	945.4238	983.8474	1008.424	1022.935	1043.4971	1135.273	1151.9577	1160.6516	1184.4531	1228.8534	1275.3782	1283.9993	1307.3057	1369.3321	1404.7483	1417.1927	1457.2706	1473.1256	1480.7465	1486.9888	1492.6212	1505.1184	1509.2939	1526.0416	1809.5128	3000.2397	3037.0172	3044.9877	3060.2777	3069.2436	3106.221	3109.2149	3115.3806	3117.4625	3124.5544	3460.8504	3525.4472
CNC1C(=N)OC1(C)C	CN[C@H]1[C]([NH])OC1(C)C	
InChI=1S/C6H12N2O/c1-6(2)4(8-3)5(7)9-6/h4,7-8H,1-3H3	InChI=1S/C6H12N2O/c1-6(2)4(8-3)5(7)9-6/h4,7-8H,1-3H3/t4-/m0/s1
