13
gdb 133190	3.11043	1.44045	0.99045	0.4818	64.17	-0.2531	-0.0872	0.1659	1076.3292	0.089157	-494.069316	-494.061864	-494.060919	-494.101556	27.309	
C	-0.032860476	 1.4882380787	-0.0181225708	-0.467855
C	-0.0046254787	-0.0012632247	-0.0406872273	 0.228346
N	-0.0265513981	-0.6547517632	-1.163706558	-0.332696
C	 0.0022008146	-2.0109842177	-1.089202309	 0.370126
F	-0.020360503	-2.6277573151	-2.2529397622	-0.051264
N	 0.049788075	-2.7588122541	-0.0403761852	-0.257091
N	 0.0719515173	-2.065981576	 1.1206103101	-0.270396
C	 0.0490693214	-0.6940060945	 1.2709066431	 0.396814
O	 0.0728717179	-0.1426166467	 2.3568007542	-0.375143
H	 0.8516689615	 1.8685416239	 0.5046599284	 0.162422
H	-0.074690183	 1.884948742	-1.0320595823	 0.148031
H	-0.893828582	 1.8347098836	 0.5640140548	 0.162433
H	 0.1094934131	-2.6326876761	 1.9577222242	 0.286271
107.1003	125.6226	214.2914	277.9401	367.9096	383.7916	427.205	508.1774	533.3735	593.5001	636.1785	706.6955	733.7653	796.0167	813.4529	967.1965	1029.2553	1043.9103	1188.2984	1258.3572	1321.768	1394.0692	1404.5023	1449.782	1459.9957	1462.2039	1590.8034	1656.1903	1781.6181	3044.2371	3096.5689	3164.4153	3597.1896
CC1=NC(F)=NNC1=O	Cc1nc(F)n[nH]c1=O	
InChI=1S/C4H4FN3O/c1-2-3(9)7-8-4(5)6-2/h1H3,(H,7,9)	InChI=1S/C4H4FN3O/c1-2-3(9)7-8-4(5)6-2/h1H3,(H,7,9)
