18
gdb 85267	2.53888	1.55597	1.18773	3.1497	71.87	-0.2157	-0.038	0.1777	1081.9619	0.146996	-439.066202	-439.057843	-439.056899	-439.099392	31.313	
C	-0.3560565071	 1.2111727988	 0.8354556964	-0.331433
N	 0.0602367164	 0.1230573446	-0.0478285013	-0.075081
C	-1.0640324073	-0.7334542979	-0.454112675	-0.299407
C	-1.1364084176	-1.8667144422	 0.5756904218	 0.338535
O	-2.0437640859	-2.6270342251	 0.7871538917	-0.307868
C	 0.2019671904	-1.8453312212	 1.2967452705	 0.338682
C	 0.2967055587	-2.2540696355	 2.7087918823	-0.233717
O	 0.7655277061	-3.1004067925	 1.6656811453	-0.260728
C	 1.034868749	-0.7858761457	 0.5887956943	-0.292611
H	 0.5172612739	 1.8150260401	 1.0985107035	 0.126897
H	-1.060527345	 1.8573890821	 0.3039420329	 0.128932
H	-0.8387496027	 0.8826566434	 1.7740096189	 0.100377
H	-2.0031998107	-0.1813937845	-0.5243455096	 0.134648
H	-0.8668811114	-1.180105163	-1.4398696002	 0.136128
H	 1.0656686657	-1.8028757186	 3.3349893345	 0.120819
H	-0.6015951779	-2.6005244255	 3.2171408005	 0.13656
H	 1.6482339499	-1.2687838648	-0.1831714811	 0.123398
H	 1.7030602956	-0.2325086726	 1.2512702547	 0.115867
72.0734	92.9652	227.216	248.0551	256.6902	306.8222	373.099	389.9999	481.9667	537.6337	563.5645	655.9797	702.7289	842.3043	844.6448	880.6975	947.4756	960.9902	1029.7518	1038.7481	1076.4005	1089.1007	1133.1628	1158.3969	1173.4941	1175.3389	1224.7801	1261.0673	1290.9575	1323.5813	1341.2377	1414.0934	1450.4507	1463.6983	1492.4102	1493.5975	1504.957	1511.9854	1854.3935	2939.3752	3004.139	3024.008	3069.4989	3081.8724	3108.3018	3113.8339	3117.3991	3179.0164
CN1CC(=O)C2(CO2)C1	CN1CC(=O)[C@]2(CO2)C1	
InChI=1S/C6H9NO2/c1-7-2-5(8)6(3-7)4-9-6/h2-4H2,1H3	InChI=1S/C6H9NO2/c1-7-2-5(8)6(3-7)4-9-6/h2-4H2,1H3/t6-/m1/s1
