22
gdb 103806	2.556	1.10093	0.93551	3.3001	84.07	-0.2428	0.0281	0.2709	1381.6539	0.192824	-404.3872	-404.376699	-404.375755	-404.42257	38.916	
C	-0.1191187717	 1.525972287	-0.0472282328	-0.381827
C	 0.3619188902	 0.0716564569	-0.1410171052	-0.261477
C	 0.8143625978	-0.5022826735	 1.1956730684	 0.35548
C	 2.070472074	 0.1261200079	 1.7757063447	-0.456818
C	-0.2241723933	-0.9881945532	 2.1613489005	-0.318853
C	 0.662144287	-2.0070647811	 1.4735808526	-0.182316
C	 0.0391339548	-2.9355111749	 0.479420993	 0.412831
N	 0.7543405598	-4.0802527783	 0.2480609435	-0.533799
O	-1.0270005447	-2.7251369876	-0.0759363635	-0.376485
H	 0.6754412399	 2.2075827235	 0.2733560954	 0.110571
H	-0.4763246209	 1.8747039021	-1.0210606609	 0.112227
H	-0.9463133559	 1.6199558944	 0.6643599921	 0.117997
H	-0.4419779128	-0.5498184454	-0.5407636759	 0.141608
H	 1.1948270758	 0.0090353628	-0.8549679345	 0.084286
H	 1.9258599555	 1.1944535322	 1.9676987412	 0.123843
H	 2.3518703801	-0.3413560003	 2.724556539	 0.110151
H	 2.91662674	 0.0252596417	 1.085802166	 0.11391
H	-0.0786006243	-0.8278426039	 3.2243930443	 0.105802
H	-1.2563562133	-0.9913820583	 1.8273443411	 0.137196
H	 1.4613025201	-2.4425685202	 2.0666687686	 0.072173
H	 1.6982621768	-4.1897588289	 0.5747123137	 0.255433
H	 0.4290359452	-4.689412053	-0.4849558013	 0.258067
61.918	91.2324	143.081	165.0308	217.5156	220.5891	226.9313	269.4959	321.113	368.1159	382.811	413.627	494.7308	580.572	627.623	682.5986	752.6217	798.1029	815.5795	865.0986	916.2545	947.4083	971.9752	1022.0361	1031.9269	1072.2842	1075.5491	1089.9774	1113.7612	1129.5519	1134.7951	1250.6324	1285.1738	1314.0765	1352.2992	1386.9387	1409.4221	1417.1917	1439.9064	1477.8192	1485.0052	1498.3222	1501.3649	1507.8009	1512.7143	1615.7402	1773.2732	3014.0414	3025.8792	3034.9464	3088.3835	3093.899	3100.4712	3104.0857	3118.1665	3129.2685	3141.4531	3221.9549	3600.2359	3735.695
CCC1(C)CC1C(N)=O	CC[C@@]1(C)C[C@H]1C(=O)N	
InChI=1S/C7H13NO/c1-3-7(2)4-5(7)6(8)9/h5H,3-4H2,1-2H3,(H2,8,9)	InChI=1S/C7H13NO/c1-3-7(2)4-5(7)6(8)9/h5H,3-4H2,1-2H3,(H2,8,9)/t5-,7-/m0/s1
