15
gdb 57143	4.34148	0.70848	0.65401	2.6509	80.15	-0.2634	-0.0611	0.2023	1634.6199	0.112338	-416.752783	-416.743875	-416.742931	-416.787374	31.465	
O	-0.7116677904	 0.9269886529	 0.1063188772	-0.411598
C	-0.348047044	-0.438480288	-0.0479465324	-0.100146
C	 0.544212735	-0.641414577	-1.1897594843	 0.101537
C	 1.3106702865	-0.7893347374	-2.1122779769	 0.028323
C	 2.1721546709	-0.9557888205	-3.1585704634	 0.213224
N	 2.9061341849	-1.0956147661	-4.0478601048	-0.327685
C	 0.2619528261	-1.0345339238	 1.2259830731	 0.017532
C	 1.13036428	-0.2157730927	 2.1013432995	-0.239219
N	-0.2371563445	-0.5787829665	 2.5210160298	-0.320846
H	 0.072577312	 1.4699728151	-0.0309897786	 0.300847
H	-1.2924613934	-0.9619996222	-0.2474571659	 0.145327
H	 0.4377962155	-2.1053706286	 1.1533696676	 0.113304
H	 1.9298336431	-0.6882153209	 2.6633843033	 0.131209
H	 1.3235677655	 0.8168448937	 1.8227346593	 0.103296
H	-0.8446482372	 0.2247334021	 2.3653039066	 0.244895
53.3423	79.2598	128.2981	201.5901	252.011	267.9574	325.9326	342.0034	413.6712	516.82	567.4309	591.657	629.5287	762.0019	796.216	875.0681	925.7665	968.9541	1002.9426	1058.7043	1117.216	1151.9878	1158.6746	1197.9607	1257.866	1276.1214	1308.4594	1314.9357	1398.555	1419.6669	1508.9507	2263.0284	2398.9974	3029.6022	3114.8682	3137.7634	3200.1375	3483.8825	3812.7607
OC(C#CC#N)C1CN1	O[C@@H](C#CC#N)[C@H]1CN1	
InChI=1S/C6H6N2O/c7-3-1-2-6(9)5-4-8-5/h5-6,8-9H,4H2	InChI=1S/C6H6N2O/c7-3-1-2-6(9)5-4-8-5/h5-6,8-9H,4H2/t5-,6+/m1/s1
