23
gdb 122191	3.53499	0.72317	0.68899	0.7613	82.28	-0.251	0.0612	0.3121	1768.2723	0.203699	-425.410697	-425.400237	-425.399293	-425.447031	37.918	
C	 0.0714037329	 1.542271175	-0.116008646	-0.380763
C	 0.0025013428	 0.0177734132	 0.0065445881	-0.165228
C	-1.4318954026	-0.5208362492	-0.0148535622	-0.167637
C	-1.5009053542	-2.0459786447	 0.1177850015	-0.2148
C	-2.9189204425	-2.6051152712	 0.1063688307	 0.330354
O	-3.6130307391	-2.025518539	 1.1849256156	-0.472967
C	-3.6124505492	-2.6087388786	-1.2848029143	-0.12671
O	-3.3858393833	-4.0239532387	-1.4279394238	-0.270799
C	-2.9921344781	-4.147669047	-0.0473638629	-0.130145
H	 1.1057187021	 1.8996180128	-0.0941105958	 0.110412
H	-0.3792323764	 1.8851533475	-1.0542607866	 0.112507
H	-0.4672117001	 2.0290000991	 0.7046484155	 0.114903
H	 0.5774445484	-0.4424628376	-0.8083049099	 0.092583
H	 0.4929517394	-0.2974083405	 0.9372192574	 0.09511
H	-2.011077721	-0.0673375319	 0.7968235874	 0.115455
H	-1.9187656139	-0.2091937031	-0.9497209791	 0.08854
H	-0.9401604266	-2.5230038704	-0.6956165869	 0.104153
H	-1.0231964982	-2.3560489866	 1.0564110291	 0.101962
H	-4.5196698731	-2.3501084083	 1.1761073874	 0.279931
H	-4.6843932759	-2.3620051476	-1.2347092832	 0.085456
H	-3.1512036156	-2.0303391208	-2.0929673331	 0.107069
H	-2.0633720671	-4.7170716088	 0.0730392222	 0.105688
H	-3.7797232485	-4.6057939234	 0.5704358791	 0.084925
57.0162	67.3813	92.5024	121.334	155.6672	246.82	260.8467	292.1969	313.5521	351.612	405.0708	453.0474	488.9388	693.9181	737.6468	796.3311	838.6955	898.2166	909.9369	924.4892	951.0306	1004.8732	1020.815	1029.6301	1033.6912	1069.2612	1090.4708	1130.0513	1146.0551	1154.7716	1163.678	1221.2812	1264.7755	1281.7984	1294.2049	1322.3323	1332.6065	1355.7275	1374.3879	1394.0608	1410.644	1419.1454	1473.912	1486.2091	1498.8537	1499.6356	1502.5148	1512.8415	1528.57	2976.8531	2988.9184	3007.4561	3012.3741	3022.9592	3028.7961	3039.7625	3056.2477	3059.2495	3062.101	3081.17	3095.7198	3101.2203	3807.6669
CCCCC1(O)COC1	CCCCC1(O)COC1	
InChI=1S/C7H14O2/c1-2-3-4-7(8)5-9-6-7/h8H,2-6H2,1H3	InChI=1S/C7H14O2/c1-2-3-4-7(8)5-9-6-7/h8H,2-6H2,1H3
