16
gdb 11312	5.39425	1.31732	1.11897	2.5738	68.84	-0.2318	-0.0679	0.1638	1048.4404	0.131245	-379.949024	-379.941343	-379.940399	-379.981204	27.842	
C	-0.3818920006	 1.4605668879	-0.035109418	-0.390693
C	 0.0362859278	-0.0036192896	-0.1099277788	 0.056674
C	 1.1932222693	-0.2989183283	-1.1142691185	-0.194881
N	 1.9437978721	-1.325102423	-0.3834594097	-0.340767
C	 1.5665277678	-1.2028794325	 0.9357061282	 0.265598
C	 2.3603903643	-1.860684963	 2.0047172859	 0.11306
O	 3.3959311668	-2.4426722044	 1.7853472461	-0.26344
N	 0.5176385574	-0.5101663732	 1.1949814773	-0.293154
H	 0.4666605102	 2.0894188746	 0.2529736034	 0.119788
H	-0.7551545598	 1.8084296936	-1.0040458832	 0.114664
H	-1.1719672519	 1.5944043947	 0.7081359473	 0.132412
H	-0.8418471112	-0.6090095728	-0.3785840621	 0.096507
H	 0.8368831513	-0.668158103	-2.0790687443	 0.116797
H	 1.8029972215	 0.5999625642	-1.2912021974	 0.102416
H	 2.9178672998	-1.5035782583	-0.5792389041	 0.255606
H	 1.928097735	-1.7491602869	 3.0169763278	 0.109412
83.7414	145.7924	188.536	220.3431	253.9886	333.5748	441.1171	500.4053	550.5301	640.4459	695.5573	749.1132	849.6357	902.1403	942.3568	996.6767	1030.6286	1053.5457	1092.4833	1129.7627	1146.0434	1212.258	1276.5516	1292.7768	1329.2334	1367.2028	1385.6029	1406.5437	1480.4802	1488.3285	1497.894	1525.7843	1675.569	1802.6734	2967.0551	2986.2945	2997.0438	3037.505	3088.3361	3106.864	3123.4812	3616.1625
CC1CNC(C=O)=N1	C[C@H]1CN[C](C=O)[N]1	
InChI=1S/C5H8N2O/c1-4-2-6-5(3-8)7-4/h3-4H,2H2,1H3,(H,6,7)	InChI=1S/C5H8N2O/c1-4-2-6-5(3-8)7-4/h3-4H,2H2,1H3,(H,6,7)/t4-/m0/s1
