15
gdb 23868	2.59223	1.82915	1.80455	3.0964	50.01	-0.2853	0.0583	0.3436	833.7344	0.11221	-531.318565	-531.309702	-531.308758	-531.351696	31.994	
C	-0.0385258726	 1.5554352885	 0.0257279949	-0.43423
C	-0.0013675377	 0.0223026101	 0.048654728	 0.208716
C	 0.7375295167	-0.5189832474	 1.278942656	-0.433634
O	-1.3126852632	-0.5210838086	-0.0382965207	-0.462805
C	 0.6877984084	-0.4908767205	-1.2278531763	 0.298237
F	 1.9583783493	-0.0495511536	-1.2815026616	-0.088091
F	 0.7237729218	-1.8265293479	-1.2696262928	-0.074568
F	 0.0670396579	-0.0648855963	-2.3324977854	-0.07461
H	 0.9687981562	 1.9784332733	 0.0023255643	 0.134527
H	-0.5916196644	 1.905570703	-0.8479564117	 0.142202
H	-0.5396960353	 1.9220340348	 0.9275640514	 0.111235
H	 0.2407833279	-0.1648262434	 2.1881236953	 0.111193
H	 0.7235100282	-1.6105955467	 1.2761872337	 0.142171
H	 1.7748991338	-0.1763025394	 1.3040074887	 0.134331
H	-1.802465457	-0.2270841358	 0.7362658162	 0.285326
67.7797	167.6718	208.0188	224.516	232.786	253.2211	331.1807	347.0508	351.5145	439.5869	467.1688	576.8416	581.2361	591.5314	759.9519	869.9181	929.7478	985.8868	1008.2031	1117.3236	1197.8925	1197.9732	1227.89	1240.2888	1243.0458	1393.8149	1404.3978	1421.4781	1478.8898	1484.631	1495.8945	1520.0948	3043.5074	3048.6068	3114.4154	3120.267	3141.8516	3143.7124	3824.8646
CC(C)(O)C(F)(F)F	CC(C)(O)C(F)(F)F	
InChI=1S/C4H7F3O/c1-3(2,8)4(5,6)7/h8H,1-2H3	InChI=1S/C4H7F3O/c1-3(2,8)4(5,6)7/h8H,1-2H3
