17
gdb 70849	3.09089	1.7924	1.43597	1.9029	70.41	-0.2212	0.0717	0.2929	917.4922	0.135648	-421.744426	-421.737345	-421.736401	-421.775217	29.904	
O	-0.0726807441	 1.3502349933	 0.0228439036	-0.484927
C	 0.0792505087	-0.0274115159	-0.0112378075	 0.408224
C	 1.089995553	-0.8092053639	 0.8685048294	-0.380319
C	 0.8235063071	-1.9495220935	-0.149046404	 0.408225
O	 1.6362976273	-3.0633570148	-0.2936000901	-0.484927
C	-0.6907257584	-2.2477510563	-0.1297927508	-0.104108
C	-0.9858733197	-1.4516647001	-1.3816479467	-0.098701
C	-1.240903239	-0.8268646881	-0.0279158143	-0.104107
C	 0.4658568264	-0.8967311893	-1.2814177756	-0.227349
H	 0.7960709624	 1.7558179184	-0.0657488488	 0.279177
H	 2.1066719066	-0.4075539356	 0.7571318342	 0.074977
H	 0.8621574352	-0.9732299818	 1.9257865881	 0.100918
H	 2.5471978792	-2.7665903071	-0.3898583066	 0.279178
H	-1.1916548673	-3.1160352846	 0.2778221926	 0.090176
H	-1.6546890515	-1.6514372958	-2.2072786568	 0.089151
H	-2.1743336774	-0.5781675802	 0.4597876046	 0.090177
H	 1.1373461316	-0.5797163948	-2.0765679913	 0.064237
247.2686	260.2434	261.0196	344.5259	350.9772	388.0515	431.5469	559.6445	584.5405	608.2575	745.7555	762.8568	791.5078	804.3309	854.6067	888.7853	892.7504	941.4914	955.1849	989.236	1001.0737	1015.4622	1034.5006	1041.5077	1070.6299	1110.2942	1125.2044	1153.158	1169.9381	1223.3312	1224.1364	1284.7886	1291.0609	1365.2206	1396.571	1400.5127	1487.0013	3015.823	3093.0933	3141.3632	3197.8417	3199.7039	3215.254	3810.767	3811.7335
OC12CC3(O)C4C(C14)C23	O[C@@]12C[C@@]3(O)[C@@H]4[C@@H]([C@H]14)[C@@H]23	
InChI=1S/C7H8O2/c8-6-1-7(9)4-2(3(4)6)5(6)7/h2-5,8-9H,1H2	InChI=1S/C7H8O2/c8-6-1-7(9)4-2(3(4)6)5(6)7/h2-5,8-9H,1H2/t2-,3+,4-,5+,6+,7-
