15
gdb 133113	2.62798	1.55699	0.98556	3.7674	72.35	-0.22	-0.0274	0.1925	1126.2837	0.114002	-458.144051	-458.136265	-458.135321	-458.176579	28.605	
C	 0.0519529631	 1.4540512462	 0.0778143835	-0.329426
N	-0.0234634819	 0.0245352787	-0.1428984711	-0.387298
C	-1.2126710542	-0.6579837421	-0.0519445234	 0.166531
C	-2.4863726078	-0.0819300492	-0.0245497902	-0.059019
N	-3.6124912561	-0.8065067794	 0.0182695783	-0.24812
C	-3.4770685302	-2.1230106588	 0.0458937245	 0.047401
N	-2.3120362259	-2.7939279115	 0.0418764354	-0.301456
C	-1.2376211142	-2.0645758546	-0.0052839444	 0.297427
F	-0.056222331	-2.6911641957	 0.0002471765	-0.079253
H	 1.0960757085	 1.7646081618	 0.011356524	 0.136439
H	-0.5052909516	 1.994741812	-0.6953806297	 0.14168
H	-0.3420823321	 1.7605183172	 1.0585970554	 0.126568
H	 0.7901960674	-0.5162118179	 0.1004131288	 0.254001
H	-2.6034170307	 0.9973008388	-0.0400258343	 0.113106
H	-4.3807995232	-2.7228994155	 0.0795174565	 0.121421
100.8677	153.8697	189.1392	210.7376	321.1433	330.5457	423.1101	477.7172	531.5293	574.1507	618.9939	623.2075	789.3715	794.1262	887.9581	915.1911	957.831	1073.4692	1148.8225	1161.9478	1181.7879	1231.4012	1286.356	1318.5566	1370.0245	1445.1871	1463.9563	1476.2798	1484.774	1520.0324	1545.6177	1592.0499	1648.96	2990.5414	3062.8254	3131.6446	3176.8912	3187.62	3642.6873
CNC1=CN=CN=C1F	CNc1cncnc1F	
InChI=1S/C5H6FN3/c1-7-4-2-8-3-9-5(4)6/h2-3,7H,1H3	InChI=1S/C5H6FN3/c1-7-4-2-8-3-9-5(4)6/h2-3,7H,1H3
