16
gdb 75536	2.29037	1.78405	1.07697	3.4368	67.8	-0.2658	-0.0053	0.2605	1090.6813	0.124033	-475.07009	-475.061914	-475.060969	-475.103387	29.696	
C	-0.0554107017	 1.4782263491	 0.2418817968	-0.439462
C	-0.133074397	 0.0251596609	-0.1167558224	 0.38074
N	-0.9184395766	-0.7744269462	 0.4502674318	-0.269883
C	-1.0685397251	-2.1659551981	 0.08434839	-0.166099
C	-0.5316950799	-2.5624210654	-1.2803914955	-0.098169
O	 0.9034948321	-2.5208858833	-1.317390354	-0.235724
C	 1.5411839649	-1.3471152115	-1.3382056841	 0.465008
O	 2.7087211832	-1.2571242208	-1.5501903585	-0.333347
O	 0.7724571228	-0.2155875121	-1.1640541218	-0.279728
H	 0.9481695914	 1.7217032391	 0.6044424921	 0.152328
H	-0.2318751555	 2.0921042705	-0.6469289106	 0.148319
H	-0.7955029289	 1.7092539173	 1.0065143523	 0.147576
H	-0.5915540695	-2.7879554095	 0.8527622419	 0.136467
H	-2.1392986829	-2.4035830696	 0.1212223954	 0.124922
H	-0.7799546505	-3.6028539716	-1.5004927783	 0.134331
H	-0.9422386166	-1.9281581784	-2.0727857253	 0.132721
75.9332	87.1641	165.7265	230.2438	281.9979	323.9552	367.3694	430.6302	525.9968	574.7436	637.3387	673.4984	728.6833	812.7383	878.906	919.7894	952.7724	1021.7754	1060.6806	1086.0287	1106.1018	1127.3585	1160.0841	1225.7852	1266.7849	1316.6761	1391.0383	1407.6289	1411.5284	1469.2663	1474.6153	1475.5486	1497.1054	1793.1766	1892.2412	3025.8194	3049.5824	3051.0533	3064.9664	3109.641	3121.7058	3170.3193
CC1=NCCOC(=O)O1	CC1=NCCOC(=O)O1	
InChI=1S/C5H7NO3/c1-4-6-2-3-8-5(7)9-4/h2-3H2,1H3	InChI=1S/C5H7NO3/c1-4-6-2-3-8-5(7)9-4/h2-3H2,1H3
