17
gdb 102925	2.54718	0.87264	0.70952	2.2433	70.43	-0.2654	-0.0477	0.2177	1538.2874	0.134034	-455.136375	-455.126471	-455.125527	-455.172757	33.8	
O	 0.1382168172	 1.3317970827	 0.1398539666	-0.417103
C	 0.0145271868	-0.0501351654	-0.1103049881	-0.08909
C	-1.449789698	-0.523769393	-0.018363463	-0.076137
N	-1.9206942285	-0.2476286273	 1.3394201275	-0.325762
C	-3.2745357239	-0.7347178918	 1.6070254638	-0.274078
C	-3.6652497923	-0.4485643042	 2.989406887	 0.260733
N	-3.9597513893	-0.241012002	 4.0864512728	-0.287842
C	-2.2789477586	 0.2653445007	-1.0311167343	 0.178668
O	-2.5296840811	-0.1368401992	-2.1356498581	-0.242428
H	-0.3571034318	 1.5144705055	 0.9480756913	 0.293705
H	 0.3925271529	-0.2342637866	-1.1197539149	 0.137632
H	 0.6214704924	-0.652751573	 0.588159592	 0.094907
H	-1.5021437298	-1.5871965401	-0.3052996998	 0.08888
H	-1.2824675518	-0.6658972936	 2.0103791575	 0.241587
H	-3.98042012	-0.2286649547	 0.9377107425	 0.170905
H	-3.3978301218	-1.81707207	 1.4295493772	 0.147198
H	-2.6106443623	 1.264164282	-0.6744189701	 0.098223
50.1262	57.1214	81.5709	131.0593	155.6303	229.0814	269.804	307.2824	376.9689	402.0164	450.0409	494.0246	562.1761	655.2887	778.7573	869.891	938.5894	950.0673	999.1257	1022.7245	1050.2848	1097.9815	1130.6464	1147.9322	1228.1576	1240.3733	1277.6008	1338.0044	1373.0449	1387.3817	1411.8935	1427.7725	1488.4412	1492.2651	1516.1805	1839.4195	2371.3286	2904.4255	2950.5189	2962.9241	2974.5225	3058.5731	3095.9193	3507.2264	3779.9279
OCC(NCC#N)C=O	OC[C@@H](NCC#N)C=O	
InChI=1S/C5H8N2O2/c6-1-2-7-5(3-8)4-9/h3,5,7,9H,2,4H2	InChI=1S/C5H8N2O2/c6-1-2-7-5(3-8)4-9/h3,5,7,9H,2,4H2/t5-/m0/s1
