17
gdb 50652	2.56023	1.3662	0.94249	4.6564	70.39	-0.2248	-0.0453	0.1795	1197.0648	0.137449	-455.180778	-455.172541	-455.171597	-455.214151	30.373	
O	-0.114940675	-0.0223658773	-0.1178634382	-0.244391
C	-0.0340500091	 1.173712474	-0.0080787758	 0.158371
C	 1.276214744	 1.9322652815	 0.068130527	-0.06935
C	 1.3575974421	 2.8595415629	 1.3012700795	-0.186937
N	 2.6743625728	 3.4648270318	 1.4258704905	-0.287315
C	 3.7242614861	 2.4536223059	 1.556353578	-0.283902
C	 3.5788867254	 1.1732556083	 0.724241116	 0.389772
O	 4.4531190216	 0.3299660412	 0.7017730685	-0.369054
N	 2.3953161946	 1.0214206113	 0.0539875797	-0.313333
H	-0.9379543391	 1.8208404921	 0.0227473544	 0.092271
H	 1.2772951747	 2.5871038995	-0.8257955583	 0.101365
H	 0.5955942536	 3.6416821267	 1.2307725247	 0.115891
H	 1.1583296348	 2.2767065547	 2.2090789762	 0.128279
H	 2.8567276614	 4.0481042577	 0.6151748129	 0.224905
H	 4.6955456851	 2.8956152744	 1.3223672283	 0.140347
H	 3.7824264353	 2.1227577002	 2.6019003589	 0.144332
H	 2.2456889316	 0.1185330951	-0.3779778924	 0.258747
86.7531	95.3368	133.463	213.9763	293.1854	356.5447	438.2167	458.9375	485.3936	523.7017	616.5298	649.9317	697.6519	766.5485	842.7281	901.1073	929.786	954.0474	1003.8919	1043.9381	1115.0461	1157.4389	1192.2024	1209.226	1295.4557	1320.6004	1328.3665	1355.7676	1371.3368	1381.0954	1423.5222	1453.8006	1467.6618	1483.5433	1493.5027	1796.5919	1827.7055	2892.0942	2911.6076	3030.1858	3034.682	3090.9584	3110.6485	3514.4553	3583.8911
O=CC1CNCC(=O)N1	O=C[C@H]1CNCC(=O)N1	
InChI=1S/C5H8N2O2/c8-3-4-1-6-2-5(9)7-4/h3-4,6H,1-2H2,(H,7,9)	InChI=1S/C5H8N2O2/c8-3-4-1-6-2-5(9)7-4/h3-4,6H,1-2H2,(H,7,9)/t4-/m1/s1
