17
gdb 47341	3.22081	1.15102	0.88427	3.8684	74.65	-0.2741	-0.0021	0.2719	1254.1229	0.138119	-418.042875	-418.034824	-418.03388	-418.075903	29.93	
N	-0.0735344337	 1.3203482013	 0.1697256513	-0.489677
C	-0.0145028243	 0.0761546532	-0.0446476748	 0.363448
C	-1.2748281388	-0.7602052799	-0.0815654312	-0.264501
C	-1.1964332948	-1.9108585187	-1.1080721849	-0.17192
C	 0.1154082677	-2.6860638875	-0.8814181597	-0.21699
C	 1.2846070524	-1.7187465819	-1.0035632641	-0.089931
O	 1.1800788249	-0.5866726102	-0.1294752777	-0.250135
C	-2.3676318513	-2.7828402496	-1.01831851	 0.267262
N	-3.2862833557	-3.4791850979	-0.9376363008	-0.314331
H	 0.8698456773	 1.7129508308	 0.2104185881	 0.224784
H	-1.4166644716	-1.1957381265	 0.9152860094	 0.146816
H	-2.119600633	-0.0989399639	-0.2733079142	 0.153786
H	-1.1825734077	-1.4861815754	-2.1207843627	 0.134105
H	 0.1018053853	-3.1439487995	 0.1133287571	 0.132263
H	 0.2291110217	-3.4885598627	-1.6160435605	 0.129754
H	 2.2264971329	-2.203310765	-0.7378816553	 0.131005
H	 1.3692402889	-1.3575284963	-2.03861116	 0.114262
97.608	107.7498	144.9306	209.7884	318.2689	374.4559	433.362	446.549	512.7217	558.1299	589.6601	646.761	809.8304	833.8991	896.8473	927.4584	950.6123	966.6144	1021.1476	1063.4103	1091.4202	1107.2734	1145.1068	1190.5069	1264.6483	1283.8339	1294.0612	1311.4286	1327.4821	1355.5949	1392.9189	1429.8613	1467.4232	1485.0367	1509.243	1754.0554	2360.9286	3006.4585	3022.999	3045.4743	3055.5098	3104.0109	3109.9092	3140.1657	3461.9575
N=C1CC(CCO1)C#N	[NH][C]1C[C@@H](CCO1)C#N	
InChI=1S/C6H8N2O/c7-4-5-1-2-9-6(8)3-5/h5,8H,1-3H2	InChI=1S/C6H8N2O/c7-4-5-1-2-9-6(8)3-5/h5,8H,1-3H2/t5-/m1/s1
