18
gdb 73175	2.43366	1.47843	1.3543	5.3575	75.84	-0.2597	0.0242	0.2839	1057.7462	0.147573	-401.937001	-401.928684	-401.92774	-401.970172	31.191	
C	-0.3602796816	 1.3317498012	-0.1464395382	-0.478994
C	 0.0374956997	-0.1055762758	 0.053525225	 0.447962
O	-1.0813511649	-0.9678720324	 0.320531955	-0.311121
C	-0.4512893755	-1.5142229946	 1.5066104614	-0.085856
C	 0.8405507007	-0.72690057	 1.2408694024	-0.134868
C	 1.8014580085	-1.4188954559	 0.242296552	-0.249904
C	 1.0494863246	-0.7517638301	-0.9642661374	-0.218928
C	 0.4937742006	-1.623411535	-1.9824232553	 0.292038
N	 0.0633857337	-2.3260082261	-2.7935063737	-0.330579
H	 0.5179510544	 1.9711516625	-0.2798820504	 0.120413
H	-0.9919548231	 1.4232507623	-1.0370410168	 0.145148
H	-0.9312768873	 1.6941515917	 0.7131161403	 0.131603
H	-0.9953613064	-1.2195114912	 2.4120148902	 0.10887
H	-0.37554894	-2.6072807844	 1.4707350018	 0.112876
H	 1.2746096733	-0.1503599434	 2.0562526428	 0.085418
H	 2.8404734723	-1.094425189	 0.3152914616	 0.119631
H	 1.7739320277	-2.5101632946	 0.2540161381	 0.126061
H	 1.6654153131	 0.0118537149	-1.4481024189	 0.120229
56.2805	135.3109	186.1117	212.1583	259.4204	339.415	365.926	380.2575	519.36	552.4443	629.4565	689.8514	771.2838	830.6628	864.1536	913.0714	926.0969	945.9185	1005.7121	1030.7881	1048.2238	1075.899	1111.5425	1142.4888	1155.5329	1168.3605	1191.4619	1196.5019	1272.623	1294.1075	1319.6136	1343.3106	1354.569	1410.6333	1479.3612	1481.8323	1487.3507	1524.5304	2355.8502	3019.2698	3035.2454	3066.2208	3069.4968	3077.9918	3106.3068	3117.1888	3121.8206	3136.2529
CC12OCC1CC2C#N	C[C@]12OC[C@H]1C[C@H]2C#N	
InChI=1S/C7H9NO/c1-7-5(3-8)2-6(7)4-9-7/h5-6H,2,4H2,1H3	InChI=1S/C7H9NO/c1-7-5(3-8)2-6(7)4-9-7/h5-6H,2,4H2,1H3/t5-,6+,7+/m0/s1
