16
gdb 126452	4.71757	1.06414	0.8776	1.5998	77.12	-0.2567	-0.0898	0.1669	1290.8643	0.123882	-434.048727	-434.040508	-434.039563	-434.082093	30.082	
C	-0.2307994919	 1.5477244272	 0.0458643155	-0.380515
C	-0.0778659946	 0.0360305109	-0.1046545812	-0.252043
C	 0.8238295239	-0.419542384	-1.2187115547	 0.387134
N	 1.3901169697	 0.4715759926	-1.9512989252	-0.123944
O	 2.2288422543	 0.0105529364	-2.9846883408	-0.281188
C	 2.4286615551	-1.3285803508	-3.1951267166	 0.391357
N	 3.1766974279	-1.7780247411	-4.1162918883	-0.51692
C	 1.7182186035	-2.222602089	-2.2821278895	-0.006071
N	 0.9543210026	-1.814116096	-1.3403715977	-0.261817
H	 0.732853152	 2.0259475825	 0.238378269	 0.134893
H	-0.6425372177	 1.9963259116	-0.8616697788	 0.134914
H	-0.9019174976	 1.7739145147	 0.8788545895	 0.114188
H	 0.3066968824	-0.415402259	 0.8194461562	 0.133179
H	-1.051556409	-0.4443926768	-0.2683189321	 0.133152
H	 3.5929602552	-1.018179659	-4.6582690138	 0.236511
H	 1.8686392043	-3.2890270402	-2.4387235214	 0.157169
58.108	92.3093	186.8323	219.496	302.6835	320.3736	370.7682	451.9783	510.0084	527.4752	629.6783	722.8648	750.6863	800.4018	806.7197	882.4556	928.86	972.5974	992.9341	1015.0382	1100.0217	1102.2701	1109.3508	1234.8706	1278.5344	1335.4418	1363.9	1389.5978	1418.9408	1460.6669	1493.7121	1501.6963	1613.4279	1682.7614	1728.0165	3026.8466	3052.1976	3052.4723	3124.2103	3128.7198	3163.7265	3474.4672
CCC1=NOC(=N)C=N1	CCC1=NOC(=C[N]1)[NH]	
InChI=1S/C5H7N3O/c1-2-5-7-3-4(6)9-8-5/h3,6H,2H2,1H3	InChI=1S/C5H7N3O/c1-2-5-7-3-4(6)9-8-5/h3,6H,2H2,1H3
