17
gdb 55928	4.16765	1.01928	0.91068	0.9927	68.86	-0.2621	0.0132	0.2753	1287.2615	0.133866	-458.95592	-458.947245	-458.946301	-458.990913	30.701	
C	-0.1814697795	 1.4337840898	-0.0089552346	-0.478629
C	-0.0205632614	-0.0566103182	 0.159916991	 0.429959
O	 0.9500788743	-0.6170089148	 0.602703165	-0.354188
O	-1.1323053593	-0.7068194613	-0.2563128638	-0.250163
C	-1.0944302293	-2.1261964214	-0.1426691692	 0.141022
C	-1.3673888083	-2.7784311352	 1.2568512926	-0.28071
C	-2.5572265631	-3.4964485987	 0.606649634	 0.026615
O	-3.4449736318	-2.4732647573	 0.1524024669	-0.235034
C	-2.3407104667	-2.8179156461	-0.6871372224	-0.021955
H	 0.7261926026	 1.9371153582	 0.3213903001	 0.147914
H	-0.3840449106	 1.6735879583	-1.0565522495	 0.150743
H	-1.0377189394	 1.7842561606	 0.5743436372	 0.154204
H	-0.1697694686	-2.5076929938	-0.5807920614	 0.10893
H	-0.5487824402	-3.4224549364	 1.5808910716	 0.12107
H	-1.644382619	-2.0882225665	 2.0554778152	 0.120645
H	-2.9774249986	-4.4724148473	 0.8156997566	 0.112165
H	-2.5606859311	-3.1194397898	-1.7042468293	 0.107412
41.2448	58.2618	95.9084	122.4517	223.6039	343.8594	350.8288	452.8847	583.3491	607.4946	626.7977	743.2333	816.4387	852.9491	882.2807	910.9615	926.0846	964.3372	999.4479	1019.7471	1040.2761	1061.0924	1065.6591	1104.1579	1160.8312	1206.5541	1236.9928	1240.4467	1266.5809	1288.9129	1379.4211	1385.0134	1400.5516	1466.2199	1468.8993	1475.0604	1822.028	3057.8008	3083.814	3094.9304	3122.4605	3146.8914	3170.0181	3188.8719	3204.7388
CC(=O)OC1CC2OC12	CC(=O)O[C@H]1C[C@H]2O[C@@H]12	
InChI=1S/C6H8O3/c1-3(7)8-4-2-5-6(4)9-5/h4-6H,2H2,1H3	InChI=1S/C6H8O3/c1-3(7)8-4-2-5-6(4)9-5/h4-6H,2H2,1H3/t4-,5+,6-/m0/s1
