19
gdb 90640	3.65675	1.10721	1.00407	1.3325	83.34	-0.2285	0.0418	0.2703	1254.4898	0.156595	-385.820086	-385.810971	-385.810026	-385.853367	34.952	
C	 0.012969604	 1.4681231323	-0.076344906	-0.401846
C	 0.0129547675	-0.0377371129	 0.08936933	 0.106028
O	 0.9927901243	-0.6664392976	-0.8018304325	-0.30349
C	 1.7623983912	-1.0797736843	 0.3200293245	 0.064796
C	 0.7605533866	-0.5628956622	 1.3141082308	-0.171172
C	 1.000825496	-2.0769520643	 1.1849762425	 0.097503
C	-0.0179894698	-3.0330940816	 0.5871168792	-0.482517
C	 1.7845501062	-2.6023340088	 2.2728328195	 0.247531
C	 2.4427659921	-3.0487596827	 3.1760221851	-0.425834
H	 1.0083482991	 1.8801774609	 0.1126672726	 0.126495
H	-0.2867273943	 1.7340170339	-1.0942866487	 0.130344
H	-0.6953981439	 1.9263214414	 0.6226657227	 0.118645
H	-0.9887396136	-0.4490513916	-0.0831962604	 0.085496
H	 2.843180639	-1.0384396606	 0.2533984661	 0.115045
H	 0.8939669687	-0.0410190401	 2.2520201432	 0.108981
H	-0.3801929926	-2.6565609218	-0.3713634351	 0.141691
H	 0.4445503718	-4.0084591811	 0.4121938801	 0.128961
H	-0.8680576108	-3.1780118514	 1.2608123806	 0.12297
H	 3.0198226686	-3.4475965975	 3.9730420658	 0.190371
119.3152	142.6193	162.6379	199.8074	236.0952	245.4124	314.9004	342.3607	447.5681	503.6687	522.5458	547.1562	580.9214	654.6741	690.441	777.8625	829.6251	850.7685	898.8801	929.7115	959.89	1010.0094	1033.511	1048.6931	1083.5842	1107.1574	1109.871	1124.186	1197.7768	1223.2424	1277.4292	1303.7554	1365.5929	1390.3302	1404.9864	1409.5709	1484.1085	1489.8421	1492.4031	1502.9756	2229.9685	3034.8927	3038.0428	3046.4378	3108.862	3110.7986	3121.6611	3136.2607	3183.3477	3208.0345	3503.2287
CC1OC2C1C2(C)C#C	C[C@H]1O[C@H]2[C@@H]1[C@]2(C)C#C	
InChI=1S/C8H10O/c1-4-8(3)6-5(2)9-7(6)8/h1,5-7H,2-3H3	InChI=1S/C8H10O/c1-4-8(3)6-5(2)9-7(6)8/h1,5-7H,2-3H3/t5-,6-,7+,8+/m1/s1
