15
gdb 24704	3.82111	1.61702	1.14569	0.4389	75.04	-0.2039	0.004	0.2079	998.7276	0.115815	-420.692654	-420.686127	-420.685182	-420.723917	25.418	
C	 0.036580252	 1.3944105931	-0.1336466218	 0.009778
O	 1.3823404916	 1.8215339574	 0.0792135043	-0.278045
C	 2.0295224047	 0.750177415	 0.6394142391	 0.309274
C	 3.3168078577	 0.685915673	 1.123288885	-0.264067
C	 3.7417258867	-0.555778846	 1.6265001038	-0.100941
C	 2.8983589123	-1.6607490898	 1.6286478286	-0.100941
C	 1.5876150642	-1.5796539314	 1.1276924607	-0.264067
C	 1.1851542252	-0.3561045969	 0.6415645136	 0.309274
O	-0.0200221115	-0.0158262837	 0.0827847718	-0.278045
H	-0.6283626961	 1.9033142379	 0.5798815201	 0.116025
H	-0.2593301516	 1.6182616358	-1.1637229762	 0.129252
H	 3.9656413762	 1.5529017285	 1.1131779241	 0.10973
H	 4.7476385624	-0.6469271713	 2.0206694198	 0.096522
H	 3.2523635638	-2.6060202231	 2.0244772986	 0.096522
H	 0.922472561	-2.4342249786	 1.1209276813	 0.10973
71.4543	220.0789	280.7945	414.0891	429.8085	545.7898	572.1833	625.7061	734.5144	745.7329	758.1824	819.2693	862.0454	866.8533	904.1895	945.5204	971.9923	1028.7275	1073.7332	1111.8657	1146.107	1167.5629	1177.7944	1206.528	1278.1401	1300.3367	1403.9566	1440.1396	1492.3852	1516.5338	1549.8276	1646.397	1667.9663	2990.8787	3071.1387	3181.2418	3195.8333	3208.9803	3212.7525
C1OC2=CC=CC=C2O1	C1Oc2ccccc2O1	
InChI=1S/C7H6O2/c1-2-4-7-6(3-1)8-5-9-7/h1-4H,5H2	InChI=1S/C7H6O2/c1-2-4-7-6(3-1)8-5-9-7/h1-4H,5H2
