14
gdb 66657	2.89035	2.2227	1.52504	3.0653	63.29	-0.2499	-0.0264	0.2236	827.52	0.101177	-436.630803	-436.624331	-436.623387	-436.661411	26.177	
O	 0.0066124136	 1.3557345363	-0.0607539106	-0.476986
C	 0.0055844083	-0.016461371	-0.0478814599	 0.32035
C	-0.3442616314	-0.8917241967	-1.2361147566	-0.168033
C	 0.1883022447	-2.2962165154	-0.8059962845	-0.067081
C	-0.6844864983	-2.2843599157	 0.3830692586	-0.06706
C	-1.2410863455	-0.8795279277	-0.0142204096	-0.168004
N	 0.7982323378	-2.1431937595	 0.5551096209	-0.190166
C	 1.0554843988	-0.7418094065	 0.7298279044	 0.38446
O	 1.9339632067	-0.2354518865	 1.369247068	-0.338365
H	 0.7602370977	 1.6179162216	 0.4892857329	 0.301479
H	-0.5274973015	-0.5168962532	-2.2318074485	 0.117645
H	 0.5575669191	-3.096703486	-1.433469495	 0.117061
H	-1.1800683782	-3.0730621124	 0.9337117962	 0.117056
H	-2.2422549118	-0.4934891974	 0.1045703738	 0.117645
135.6341	256.7639	296.5178	352.1745	477.9069	507.7645	590.5986	653.4827	729.6669	745.7046	773.609	809.1756	809.7362	836.3228	882.0638	908.4759	935.2513	944.291	975.8266	995.2256	1038.9318	1055.2607	1137.9478	1180.5155	1221.5631	1237.3393	1250.526	1327.8508	1391.4231	1468.2207	1878.5718	3197.2836	3209.7974	3232.8783	3241.9705	3725.1868
OC12C3C4C(C13)N4C2=O	O[C@]12[C@H]3[C@@H]4[C@H]([C@@H]13)N4C2=O	
InChI=1S/C6H5NO2/c8-5-6(9)1-2(6)4-3(1)7(4)5/h1-4,9H	InChI=1S/C6H5NO2/c8-5-6(9)1-2(6)4-3(1)7(4)5/h1-4,9H/t1-,2+,3-,4+,6-,7?
