19
gdb 77158	2.99455	1.15402	0.95762	3.3009	76.37	-0.2468	0.0209	0.2678	1272.2646	0.159826	-419.204209	-419.195364	-419.19442	-419.238184	32.655	
C	-0.3010801012	 1.4140362928	 0.1988482513	-0.407478
C	 0.015257318	-0.0609007797	-0.0028157845	-0.162698
C	 0.789704954	-0.4952043569	-1.2953465102	 0.003322
N	 1.8069670638	-1.085719111	-0.4065101342	-0.34852
C	 1.2496882355	-0.5935027334	 0.7624308897	 0.425128
O	 1.6410401113	-0.5682783999	 1.8965062709	-0.354679
C	 0.0994743384	-1.4572104422	-2.2329848506	 0.007067
C	 0.8258266336	-2.5935728484	-2.8478612704	-0.245183
N	-0.1956603823	-2.8314506342	-1.8111764591	-0.317076
H	 0.5758843344	 2.0402956404	 0.0044907871	 0.122706
H	-1.1075107551	 1.740566518	-0.4651877977	 0.122784
H	-0.6155042755	 1.5938144988	 1.2308860007	 0.14238
H	-0.8689713803	-0.6822479641	 0.1679005537	 0.115144
H	 1.1624220788	 0.371800857	-1.8556514987	 0.087585
H	 2.7775104679	-1.3005254263	-0.5918653613	 0.24972
H	-0.70346827	-0.9928620781	-2.8036468629	 0.098664
H	 0.5634067744	-2.9359247738	-3.8446191591	 0.122997
H	 1.8700558067	-2.7366258714	-2.5801748397	 0.102615
H	 0.2796809877	-3.0082467079	-0.926910865	 0.235522
79.1025	81.3707	161.1526	204.3293	214.1895	232.3788	303.2178	391.6414	477.5979	526.8392	610.0741	705.577	737.6914	787.2663	833.9036	849.0562	884.933	939.9958	968.5841	996.1144	1043.6281	1067.5557	1103.847	1120.254	1126.4707	1149.6638	1167.4731	1184.8229	1221.3921	1257.0079	1277.3349	1307.3234	1330.8755	1367.9324	1383.8085	1411.1357	1417.0375	1494.9922	1495.7812	1512.2791	1895.5911	3022.7209	3037.1809	3071.233	3106.144	3107.4834	3115.8222	3120.5972	3192.5176	3474.2239	3586.4275
CC1C(NC1=O)C1CN1	C[C@H]1[C@@H](NC1=O)[C@H]1CN1	
InChI=1S/C6H10N2O/c1-3-5(4-2-7-4)8-6(3)9/h3-5,7H,2H2,1H3,(H,8,9)	InChI=1S/C6H10N2O/c1-3-5(4-2-7-4)8-6(3)9/h3-5,7H,2H2,1H3,(H,8,9)/t3-,4+,5+/m0/s1
