23
gdb 88821	2.89204	1.10703	0.88415	1.5793	86.51	-0.2379	0.0849	0.3228	1412.3136	0.205201	-388.264194	-388.254412	-388.253468	-388.299615	36.203	
C	 0.1579720792	 1.6159617504	-0.2471034189	-0.405385
C	 0.010047374	 0.1261639836	-0.0235723771	 0.000602
C	 1.1823214484	-0.810572045	-0.1531068668	-0.309437
C	 0.5438381214	-0.5865427555	 1.2034645931	-0.004953
C	 1.2945116336	 0.1375396477	 2.2780746197	 0.133146
O	 0.4228683137	 0.7447746255	 3.2678082258	-0.298773
C	 1.2070523243	 0.2119477076	 4.352246622	-0.076428
C	 2.0487079791	-0.6549990537	 3.3904417615	-0.053049
C	 1.8198239329	-2.1585164904	 3.4810766515	-0.404701
H	 1.1459662865	 1.9802663947	 0.0477492894	 0.116318
H	 0.025240818	 1.8592847051	-1.3070440059	 0.112891
H	-0.5868824471	 2.1790175013	 0.3249582787	 0.128901
H	-0.9377442221	-0.2712737073	-0.3779812504	 0.084734
H	 1.0485942285	-1.7722212119	-0.6360317503	 0.109381
H	 2.1579878971	-0.3634951738	-0.3218334824	 0.107797
H	-0.0848535582	-1.3906655255	 1.5732213941	 0.080138
H	 1.943484041	 0.9031361668	 1.8294830749	 0.059958
H	 1.7655226848	 0.9963332053	 4.8811631798	 0.091924
H	 0.5880987354	-0.3315357349	 5.077493852	 0.096383
H	 3.120553461	-0.4411355448	 3.4158766	 0.072835
H	 0.7534751547	-2.4029138494	 3.5212725528	 0.122778
H	 2.2537482444	-2.6826662244	 2.6235433656	 0.121422
H	 2.2839307595	-2.5602722015	 4.388355281	 0.113516
42.5924	68.7997	115.7824	175.1427	200.6864	236.7071	257.2564	354.4999	362.4424	402.5069	455.0609	537.0549	767.4343	772.2082	817.2747	856.2457	871.7355	887.8737	916.4206	924.9784	997.6818	1004.6911	1019.8496	1043.1346	1056.1522	1068.9955	1107.6046	1122.5228	1148.8647	1155.6342	1187.147	1198.5781	1201.7541	1247.8879	1264.1974	1280.7336	1324.5833	1349.7506	1376.9515	1400.7599	1412.7024	1423.5996	1446.8582	1490.9322	1494.4204	1495.7805	1501.606	1505.1405	1526.4587	2990.6677	3001.2009	3032.0611	3034.0719	3042.1052	3067.4256	3093.4759	3097.6862	3106.7093	3107.4195	3123.9882	3135.7454	3153.6058	3208.7943
CC1CC1C1OCC1C	C[C@H]1C[C@H]1[C@H]1OC[C@H]1C	
InChI=1S/C8H14O/c1-5-3-7(5)8-6(2)4-9-8/h5-8H,3-4H2,1-2H3	InChI=1S/C8H14O/c1-5-3-7(5)8-6(2)4-9-8/h5-8H,3-4H2,1-2H3/t5-,6+,7+,8-/m0/s1
