14
gdb 47280	3.52163	1.34584	1.03915	2.9538	69.14	-0.2812	-0.0867	0.1944	1077.2896	0.102567	-473.861598	-473.854384	-473.85344	-473.893783	26.827	
N	 0.0055566366	 0.6087437048	 1.3467771577	-0.493176
C	 0.0887303552	 0.0550406504	 0.2079650523	 0.361816
O	 1.2729638622	-0.4541748907	-0.2543309695	-0.239457
C	 1.4221713954	-0.6421981378	-1.6418598355	-0.00756
O	 0.8545423412	-1.8468682658	-2.1001057519	-0.216623
C	-0.499845328	-1.9426348075	-2.2388744601	 0.416647
O	-0.9633177284	-2.8854981931	-2.8199325927	-0.314666
C	-1.3676449934	-0.8925581776	-1.6450960627	-0.226818
C	-1.1278466818	-0.0765704534	-0.6088704427	-0.087184
H	 0.9191296418	 0.613792034	 1.8055054425	 0.235535
H	 1.0143985974	 0.2120902478	-2.1930307783	 0.12761
H	 2.4929103765	-0.7395362452	-1.8158186595	 0.149712
H	-2.3627846964	-0.9090788629	-2.0762078236	 0.14484
H	-1.9344285585	 0.546175237	-0.2373278359	 0.149324
79.0187	111.7948	288.4998	326.6381	343.181	396.9284	439.7084	546.7865	589.843	686.8554	759.2731	767.2868	789.8819	863.1503	871.7923	922.1609	1015.7424	1032.0881	1071.4027	1130.726	1146.7355	1207.2236	1266.3184	1328.2598	1369.0548	1401.4475	1462.8929	1510.0173	1673.3996	1720.7882	1828.8004	3050.6351	3152.7993	3191.3357	3207.4188	3471.9794
N=C1OCOC(=O)C=C1	[NH][C]1OCOC(=O)C=C1	
InChI=1S/C5H5NO3/c6-4-1-2-5(7)9-3-8-4/h1-2,6H,3H2	InChI=1S/C5H5NO3/c6-4-1-2-5(7)9-3-8-4/h1-2,6H,3H2
