22
gdb 105240	2.17206	1.37723	0.98828	2.253	82.02	-0.244	0.0831	0.3271	1289.0973	0.1942	-404.301756	-404.292061	-404.291116	-404.336158	36.659	
C	 2.2132572028	-0.2695302945	-1.1511827226	-0.415146
C	 1.1829336872	-1.0670601653	-0.3786717344	-0.033512
C	 1.5744586162	-2.0246678213	 0.7208698876	-0.346722
C	 0.7829773811	-0.7795868689	 1.056936707	 0.30422
C	 1.4843244362	 0.3202185624	 1.8434844425	-0.136679
O	 1.4557611052	 0.0936818542	 3.2457303328	-0.428504
C	-0.6694930983	-0.8722037417	 1.4275148597	-0.074914
C	-1.467806196	-2.1183834684	 1.4207945432	-0.258134
N	-1.0675411351	-1.5145674185	 2.7069921824	-0.336357
H	 3.0746612232	 0.0017196361	-0.5351937755	 0.120717
H	 2.591569572	-0.8561598453	-1.9955781585	 0.120781
H	 1.7870733726	 0.6549840482	-1.5565108874	 0.119605
H	 0.3523242065	-1.4073285954	-0.9932584293	 0.085651
H	 1.1016864701	-3.0002472902	 0.7592209484	 0.10998
H	 2.6137348202	-2.0336755062	 1.0349788095	 0.115558
H	 2.5422808508	 0.3763085525	 1.5761071971	 0.103425
H	 1.032726468	 1.2947644733	 1.5948354351	 0.0874
H	 0.5342685209	 0.1132131208	 3.5272805181	 0.297829
H	-1.2188979948	 0.0530318131	 1.2503225533	 0.090906
H	-2.5309612054	-2.0681125647	 1.2034846966	 0.119829
H	-0.9933361952	-3.0470873262	 1.1200169002	 0.115485
H	-0.2585218181	-2.024865794	 3.0577103043	 0.23858
80.7622	112.1758	150.4039	166.8489	209.7247	225.1915	287.614	340.7617	359.156	425.6267	450.6628	503.0362	545.904	689.0193	797.1971	833.9625	873.3252	887.8355	930.6098	940.4132	967.2057	975.4185	995.5163	1020.4557	1060.8805	1069.7864	1096.4469	1121.0702	1132.7881	1164.542	1178.5073	1193.3798	1212.5188	1262.7015	1292.3097	1307.2408	1334.0872	1382.8575	1408.639	1417.9036	1428.2388	1441.1557	1484.6304	1494.2685	1504.0446	1506.9321	1516.7405	2968.6463	3031.7694	3088.5861	3091.6749	3097.2448	3109.7682	3119.5597	3127.4794	3132.8448	3202.5378	3207.8581	3482.8906	3802.6448
CC1CC1(CO)C1CN1	C[C@H]1C[C@]1(CO)[C@H]1CN1	
InChI=1S/C7H13NO/c1-5-2-7(5,4-9)6-3-8-6/h5-6,8-9H,2-4H2,1H3	InChI=1S/C7H13NO/c1-5-2-7(5,4-9)6-3-8-6/h5-6,8-9H,2-4H2,1H3/t5-,6+,7+/m0/s1
