21
gdb 38191	3.12704	1.78736	1.76468	0.2649	86.45	-0.2557	0.0962	0.3519	917.4075	0.186657	-349.864991	-349.858775	-349.857831	-349.894911	28.5	
C	-0.051828171	 1.549154266	-0.011372559	-0.006127
C	-0.4829968519	 1.8538483121	 1.464573811	-0.357448
C	 0.4386697168	 0.8193087822	 2.1370241684	 0.319466
C	 1.8274991596	 0.8493976998	 2.8522871133	-0.28596
C	 1.74126561	-0.5480921961	 2.1465304609	-0.176822
C	 0.2780571761	-0.6276785939	 2.7042246451	-0.285939
C	 1.1471150954	 0.198617836	 0.9132623073	 0.341249
C	-0.0298343067	-0.0181866029	-0.0743590167	-0.302313
C	 1.5114534777	 1.4506771749	 0.0723997536	-0.302304
H	-0.5283895851	 2.1284613743	-0.804349733	 0.058806
H	-0.2693377985	 2.886402346	 1.7573463008	 0.101217
H	-1.5478711827	 1.6681206907	 1.6350994466	 0.101215
H	 2.5771417237	 1.5483141652	 2.4793457779	 0.094195
H	 1.8208883954	 0.8289408977	 3.9457702861	 0.086459
H	 2.4925322031	-1.33951388	 2.1794314823	 0.065776
H	 0.1898069428	-0.7258119884	 3.789931743	 0.086439
H	-0.4118504886	-1.3009260466	 2.1939933768	 0.094202
H	-0.9206071305	-0.5557106959	 0.2577233245	 0.091438
H	 0.276057308	-0.3778295234	-1.0603617122	 0.092517
H	 1.9534512302	 1.2207295854	-0.9006854706	 0.092517
H	 2.0515690361	 2.276513997	 0.5403362039	 0.091417
292.1258	306.9104	403.5957	449.1379	507.7588	529.3556	554.0996	590.3224	698.8429	767.6206	814.9907	825.0706	831.9405	874.9134	890.1472	910.7002	935.5629	941.1109	960.2407	967.6702	995.1965	1021.3642	1063.9147	1067.2229	1086.6654	1105.3097	1107.1611	1129.1689	1146.7371	1158.5392	1162.4379	1191.1436	1198.3914	1215.6983	1219.4277	1258.5665	1265.2162	1274.7314	1301.154	1312.0779	1481.3204	1484.9284	1507.1169	1522.0876	1543.7349	3049.1637	3053.7499	3057.2917	3059.535	3065.0544	3091.1863	3093.8641	3101.1273	3111.6859	3116.4622	3130.4458	3132.0507
C12CC34CC(C3)C4(C1)C2	[C@@H]12C[C@@]34C[C@@H](C3)[C@]4(C1)C2	
InChI=1S/C9H12/c1-6-2-9(3-6)7-4-8(1,9)5-7/h6-7H,1-5H2	InChI=1S/C9H12/c1-6-2-9(3-6)7-4-8(1,9)5-7/h6-7H,1-5H2/t6-,7-,8+,9+
