16
gdb 27475	2.07227	1.83755	0.97985	2.2386	78.57	-0.2411	-0.0264	0.2147	1158.6998	0.125716	-434.11775	-434.109667	-434.108723	-434.150552	30.503	
C	 0.0531267169	 1.4749758018	-0.0115538196	-0.47362
C	-0.0883206589	-0.0078307997	 0.0507817284	 0.378097
C	-1.200923423	-0.7168621224	-0.1662604506	-0.237387
C	-1.1939069144	-2.1684285724	-0.0706937863	 0.394706
N	-2.2488986606	-2.8606360026	-0.2757554382	-0.543549
N	 0.0618635859	-2.6844191967	 0.2599698236	-0.411877
C	 1.2172169603	-1.9687350587	 0.4870885509	 0.457916
N	 2.304704604	-2.5430061666	 0.7822797455	-0.568892
O	 1.1084419011	-0.6035196274	 0.3719711144	-0.269076
H	 0.8008653891	 1.7562614356	-0.7609749595	 0.150139
H	-0.8994378195	 1.941084687	-0.2663763553	 0.143568
H	 0.3967681433	 1.8668514142	 0.9518868047	 0.150134
H	-2.1336070466	-0.2342790809	-0.4178103617	 0.126595
H	-2.0717893729	-3.8610558692	-0.1692029436	 0.205818
H	 0.1755160452	-3.6830670842	 0.3518713067	 0.266812
H	 3.04661498	-1.8601320078	 0.9134490306	 0.230616
100.8469	139.8241	154.5758	193.8754	290.9871	365.2782	501.7693	525.7427	528.0865	548.8911	575.0798	642.6436	702.0825	710.0907	801.9869	836.2806	865.9099	897.9855	951.769	999.2072	1059.7584	1067.5805	1114.7645	1157.3401	1183.8806	1281.6764	1384.9656	1412.4076	1417.7284	1437.7907	1468.0441	1483.1961	1698.7288	1740.9505	1780.1564	3040.9482	3096.3696	3148.4549	3251.0382	3458.6502	3539.0184	3626.6139
CC1=CC(=N)NC(=N)O1	C[C@@H]1C=C([NH])N[C@@H]([NH])O1	
InChI=1S/C5H7N3O/c1-3-2-4(6)8-5(7)9-3/h2H,1H3,(H3,6,7,8)	InChI=1S/C5H9N3O/c1-3-2-4(6)8-5(7)9-3/h2-3,5-8H,1H3/t3-,5-/m1/s1
