17
gdb 46523	3.76944	1.25546	1.09366	6.0233	68.96	-0.2528	0.0534	0.3062	1108.5205	0.138419	-455.15984	-455.152016	-455.151072	-455.192705	29.386	
O	 0.0286632283	-0.0257145564	 0.2354747802	-0.392337
C	-0.0075825917	 1.1676865208	 0.0715758832	 0.471936
N	-1.1829551041	 1.875415055	 0.0061681852	-0.372264
C	-1.3499047403	 3.3119005055	-0.1383170852	-0.220403
C	-0.0355484062	 3.985193228	 0.1800225536	 0.282564
C	 0.0109452747	 5.4440393105	 0.4230569388	-0.291678
N	 0.2425977876	 4.4978989116	 1.5295473329	-0.331075
C	 1.1070926528	 3.247441496	-0.464134754	-0.11247
O	 1.1447582013	 1.8792068837	-0.0372423218	-0.240577
H	-1.998087189	 1.2860809599	 0.0494218818	 0.259595
H	-1.6625653696	 3.5701167027	-1.1620024371	 0.117178
H	-2.1371408756	 3.6672234886	 0.5385391165	 0.108048
H	 0.8807141395	 6.0220668539	 0.122641596	 0.126581
H	-0.9276394294	 5.9924544085	 0.3852494749	 0.117027
H	-0.5855264301	 4.4304864144	 2.1164368474	 0.234834
H	 1.0237324583	 3.2823608374	-1.5592236265	 0.110421
H	 2.0652908935	 3.67584053	-0.1667424959	 0.132618
70.8061	89.3759	179.2073	271.0669	364.1745	367.5731	454.3193	483.8272	504.3216	584.6123	683.1799	758.8185	801.8979	825.2962	891.7193	925.9177	943.975	967.28	993.2034	1059.7451	1084.7336	1098.4713	1121.9331	1157.2813	1238.1951	1250.0312	1265.5755	1273.6093	1356.0162	1365.7648	1410.6456	1448.3907	1481.2792	1502.1035	1517.9245	1524.6866	1845.9778	2978.1241	3016.085	3035.9129	3104.0488	3123.4578	3187.7123	3497.8529	3652.7838
O=C1NCC2(CN2)CO1	O=C1NC[C@]2(CN2)CO1	
InChI=1S/C5H8N2O2/c8-4-6-1-5(2-7-5)3-9-4/h7H,1-3H2,(H,6,8)	InChI=1S/C5H8N2O2/c8-4-6-1-5(2-7-5)3-9-4/h7H,1-3H2,(H,6,8)/t5-/m0/s1
