21
gdb 99280	4.6276	0.61572	0.58624	0.5829	76.61	-0.2674	0.0198	0.2872	1954.9018	0.179498	-461.40304	-461.39202	-461.391076	-461.440711	38.198	
C	-0.1445522968	 1.3589673567	 0.0619821592	-0.238822
O	-0.1443749602	-0.0592468712	-0.1392594884	-0.231774
C	 0.7131093715	-0.5086594928	-1.0798660872	 0.443472
O	 1.4218327348	 0.2182643803	-1.7318043089	-0.362461
C	 0.6723496648	-2.0182164396	-1.1708512813	-0.330104
C	 1.2353087302	-2.5524669859	-2.4882140607	-0.189775
C	 1.479861201	-4.0661668838	-2.4515465167	 0.133711
C	 1.9897720101	-4.6007594756	-3.7893163446	-0.404528
O	 2.3585887734	-4.4219703311	-1.3834797009	-0.428414
H	 0.8437069158	 1.7058707374	 0.3749201742	 0.138555
H	-0.4216560429	 1.8799486742	-0.8580718105	 0.139201
H	-0.8802317089	 1.5481533309	 0.8439230335	 0.131627
H	 1.2685104343	-2.4159719869	-0.3400264299	 0.14792
H	-0.3532654699	-2.357112559	-0.9939806889	 0.12303
H	 0.5566624555	-2.3121316514	-3.3152779822	 0.10161
H	 2.1773597776	-2.0351151182	-2.7082292558	 0.11089
H	 0.5394613673	-4.574261283	-2.2009659055	 0.0872
H	 2.9274335926	-4.1057976467	-4.0723921789	 0.109224
H	 2.1760658856	-5.6759673964	-3.7229262543	 0.12423
H	 1.2660282603	-4.4206415964	-4.5906987783	 0.11769
H	 3.2273827239	-4.0589200314	-1.5911571035	 0.277515
27.9419	54.8922	100.919	122.7313	140.0268	179.3035	239.7418	253.3779	274.2067	320.8662	345.7386	436.5014	470.1399	503.1212	606.5556	707.8257	777.8831	852.127	910.6983	940.0901	966.2734	1016.6969	1059.3769	1084.5226	1106.7358	1152.041	1177.5937	1179.8575	1202.6067	1218.3627	1273.5979	1306.829	1342.9396	1368.7562	1399.2877	1408.2288	1422.3567	1465.1852	1473.8163	1481.8063	1484.2116	1494.8149	1496.993	1498.6111	1815.0413	3022.9468	3026.1414	3034.7538	3046.5569	3050.6228	3067.8992	3091.4352	3096.7823	3119.699	3124.0732	3156.6785	3791.4782
COC(=O)CCC(C)O	COC(=O)CC[C@@H](C)O	
InChI=1S/C6H12O3/c1-5(7)3-4-6(8)9-2/h5,7H,3-4H2,1-2H3	InChI=1S/C6H12O3/c1-5(7)3-4-6(8)9-2/h5,7H,3-4H2,1-2H3/t5-/m1/s1
