18
gdb 91525	2.54977	1.48876	1.11356	3.792	72.86	-0.2389	0.0268	0.2657	1113.237	0.14787	-439.091431	-439.082742	-439.081798	-439.124915	33.104	
N	-0.0615544526	 1.2506545885	-0.389725141	-0.542761
C	-0.006341863	-0.0143316894	 0.1442584767	 0.274665
O	 0.993822675	-0.4713603773	 0.6669531608	-0.37344
C	-1.2738176764	-0.7792075243	 0.0034912919	 0.297841
C	-1.7706550014	-1.6164777857	 1.1661414061	-0.316196
C	-1.4639963313	-2.3073311399	-0.1137473166	-0.095322
C	-2.6245327643	-2.1035986677	-1.0960132405	-0.27683
C	-2.3630463321	-0.5571440497	-1.0331923924	 0.003302
O	-3.3837615417	 0.3235939384	-0.6050828468	-0.442609
H	 0.7136144204	 1.8586936673	-0.1741602059	 0.256465
H	-0.961554588	 1.6838507864	-0.5285393837	 0.265767
H	-1.0282950651	-1.7257586741	 1.9486873207	 0.141061
H	-2.7976011569	-1.500968636	 1.5007395744	 0.12043
H	-0.6692810068	-3.0356569123	-0.2051552467	 0.111576
H	-2.460412052	-2.5205087593	-2.0914705661	 0.105819
H	-3.6031564279	-2.4234629611	-0.725138748	 0.102841
H	-1.925590148	-0.2123796365	-1.9796871922	 0.081057
H	-4.0309667278	 0.4079672628	-1.3131268406	 0.286331
64.5702	104.2639	171.6965	203.3743	305.358	332.9949	382.2112	422.483	453.3443	471.8464	564.1965	620.0459	634.3051	703.5148	762.0898	838.4845	863.1844	867.24	940.1482	975.8308	1020.3432	1032.599	1072.2443	1087.173	1107.5969	1118.5063	1154.009	1205.2729	1224.2386	1245.5195	1253.5242	1328.9495	1332.8693	1405.7089	1435.4562	1473.436	1495.767	1621.0035	1787.6449	3009.4367	3053.7888	3117.1329	3124.6368	3208.3494	3226.0299	3572.6156	3701.6281	3810.5869
NC(=O)C12CC1CC2O	NC(=O)[C@]12C[C@H]1C[C@H]2O	
InChI=1S/C6H9NO2/c7-5(9)6-2-3(6)1-4(6)8/h3-4,8H,1-2H2,(H2,7,9)	InChI=1S/C6H9NO2/c7-5(9)6-2-3(6)1-4(6)8/h3-4,8H,1-2H2,(H2,7,9)/t3-,4-,6-/m1/s1
