25
gdb 104864	2.1202	1.34176	1.06174	0.1144	93.72	-0.234	0.0274	0.2614	1325.5488	0.229278	-352.378426	-352.368469	-352.367525	-352.412966	38.401	
C	 0.4068624329	-0.952948856	 1.0907585069	-0.395826
C	-0.0930340702	-0.2172449451	-0.1583743334	-0.219411
C	 0.7944987527	-0.3586103935	-1.4170705	 0.291669
C	 2.2342863199	 0.1772147011	-1.1827902727	-0.204387
C	 2.3495222655	 1.6623978046	-0.8227756525	-0.398434
C	 0.8576013455	-1.8333589727	-1.9305802377	-0.254902
C	 0.7459860322	-1.7670324075	-3.4752094676	-0.263299
C	 0.1372736736	-0.4054294433	-3.7074040923	-0.082256
C	 0.1571508662	 0.3432567949	-2.6074095555	-0.095122
H	 0.554669776	-2.0205546367	 0.8968500161	 0.116632
H	 1.3569957695	-0.5477089585	 1.4526227177	 0.117832
H	-0.31807243	-0.8636942023	 1.9060014295	 0.110429
H	-1.0944837526	-0.5846856227	-0.4152589579	 0.092304
H	-0.218910457	 0.8468496613	 0.0773910254	 0.091388
H	 2.7090052151	-0.4215483105	-0.3958448623	 0.092755
H	 2.8138310576	-0.0109657464	-2.0950538914	 0.093278
H	 3.4001414798	 1.950472043	-0.7154771379	 0.110858
H	 1.912506939	 2.3012580909	-1.596962277	 0.116357
H	 1.8504324098	 1.8962733884	 0.1230472591	 0.116629
H	 1.7606365351	-2.3518445209	-1.5960528103	 0.090778
H	 0.0020763616	-2.3904812323	-1.5340067962	 0.095222
H	 1.7259609874	-1.8460866778	-3.9666921782	 0.103942
H	 0.1376377371	-2.5820513874	-3.8839064828	 0.099857
H	-0.2378513808	-0.0869388271	-4.6744395158	 0.087883
H	-0.2116469956	 1.3617982266	-2.5419205532	 0.085825
80.3523	99.8641	133.623	187.9207	219.1835	238.0374	278.1581	302.9535	361.8528	370.9735	443.2444	507.0207	604.0395	691.9821	756.309	774.5978	788.6432	795.5004	852.0962	915.4279	928.7283	942.4026	979.5173	985.2808	1007.3311	1027.3187	1042.0573	1049.4371	1084.8255	1125.9409	1136.4953	1182.6338	1204.2269	1220.127	1252.9716	1299.2476	1311.8435	1319.5552	1328.8204	1363.5248	1378.0366	1389.0647	1409.7743	1411.5785	1478.6232	1482.6576	1491.6494	1499.5386	1502.2967	1504.3872	1507.9421	1514.3615	1687.8721	3007.7955	3019.3672	3022.1564	3035.4476	3035.857	3039.235	3050.9105	3052.534	3055.2425	3090.2235	3099.8801	3101.5761	3103.2658	3106.517	3171.5439	3197.862
CCC1(CC)CCC=C1	CCC1(CC)CCC=C1	
InChI=1S/C9H16/c1-3-9(4-2)7-5-6-8-9/h5,7H,3-4,6,8H2,1-2H3	InChI=1S/C9H16/c1-3-9(4-2)7-5-6-8-9/h5,7H,3-4,6,8H2,1-2H3
