19
gdb 72612	2.1237	1.91532	1.61788	1.2305	73.97	-0.2452	0.0777	0.3229	971.4377	0.157565	-422.976324	-422.967996	-422.967052	-423.008621	32.386	
C	-0.1617042044	 1.5765994714	-0.1095245574	-0.500352
C	-0.027725962	 0.0767502289	 0.0012532182	 0.19938
C	 0.9804371854	-0.676989417	-0.8920452517	-0.129923
O	 1.5451210681	-1.3965333215	 0.223253557	-0.332508
C	 0.6877536241	-0.7247698892	 1.1741860795	 0.388533
C	 1.417928314	-0.1584040277	 2.3590520945	-0.484186
C	-0.6141989683	-1.5137634338	 1.3635018874	-0.033818
O	-1.6399490581	-0.5527296098	 1.6450129441	-0.25317
C	-1.2715426514	-0.771282688	 0.2757849121	-0.031159
H	 0.813162554	 2.0708237211	-0.0398820435	 0.120298
H	-0.6083147787	 1.8611516938	-1.0701174448	 0.1195
H	-0.8011772813	 1.9636287648	 0.688804839	 0.137401
H	 0.5624898676	-1.3461830247	-1.6545899317	 0.099626
H	 1.7275880218	-0.025215509	-1.3626992056	 0.10246
H	 2.1674734196	 0.5749967292	 2.0468481847	 0.122084
H	 0.7115138171	 0.3227390925	 3.0412369639	 0.136285
H	 1.9350735095	-0.9596671523	 2.8987490333	 0.129884
H	-0.7557409355	-2.5308602641	 1.7108428636	 0.107291
H	-2.0580231918	-1.0779589947	-0.4055939026	 0.102376
152.6652	179.7916	205.8527	212.4279	239.1697	274.5111	347.4573	371.7418	464.9969	557.4619	615.4996	680.791	706.4998	841.8483	860.133	866.4736	886.8496	909.0557	949.8222	975.8101	995.2476	1014.7363	1055.6712	1135.074	1138.3837	1154.7267	1161.517	1194.8734	1219.9789	1241.9091	1304.432	1315.3441	1354.2123	1379.2285	1404.1533	1410.746	1482.1899	1483.5046	1490.2579	1497.8376	1520.0111	3008.6945	3026.064	3035.4323	3051.7653	3087.1268	3102.4975	3113.2025	3122.1886	3172.0306	3191.1708
CC12COC1(C)C1OC21	C[C@@]12CO[C@]1(C)[C@H]1O[C@@H]21	
InChI=1S/C7H10O2/c1-6-3-8-7(6,2)5-4(6)9-5/h4-5H,3H2,1-2H3	InChI=1S/C7H10O2/c1-6-3-8-7(6,2)5-4(6)9-5/h4-5H,3H2,1-2H3/t4-,5+,6+,7-/m1/s1
