27
gdb 86195	2.19661	1.33191	1.0521	0.2186	94.69	-0.2862	0.0697	0.356	1351.2999	0.252378	-353.585554	-353.575084	-353.57414	-353.620128	40.962	
C	 0.5861335052	 1.6159011683	-0.1456930517	-0.401429
C	 0.1926813504	 0.1374259958	-0.0367038253	 0.023358
C	 0.7176620631	-0.6979391815	-1.2377419367	-0.223018
C	 1.2739955252	-2.0078816023	-0.6452396648	 0.044214
C	 2.222627136	-2.7667215145	-1.572103588	-0.419008
C	 1.8386983249	-1.5675028185	 0.7291533885	 0.001934
C	 3.2314274576	-0.9251823954	 0.6534750939	-0.403397
C	 0.7130098385	-0.6254761704	 1.2346779279	 0.035335
C	 1.048815647	 0.2331218694	 2.4545632949	-0.426458
H	 1.6731090538	 1.7516445274	-0.1575143618	 0.114489
H	 0.1950177845	 2.0420524833	-1.0762430529	 0.108647
H	 0.1854547562	 2.2102370425	 0.681459565	 0.110046
H	-0.9028777262	 0.1012384017	-0.0227478831	 0.064614
H	-0.0533499854	-0.8798863891	-1.9931974139	 0.088464
H	 1.5241610377	-0.1534376041	-1.7460139828	 0.089043
H	 0.4200591497	-2.6664774616	-0.4305172314	 0.064493
H	 3.0741312542	-2.1484713806	-1.8749144337	 0.113928
H	 2.6173973762	-3.6694114532	-1.0923505731	 0.107769
H	 1.705410329	-3.0788990501	-2.4859960658	 0.109096
H	 1.9156881468	-2.4348176053	 1.3976700125	 0.056161
H	 3.2625775338	-0.0632009762	-0.0208770013	 0.115395
H	 3.560165039	-0.5825163239	 1.6390701467	 0.112451
H	 3.9738539559	-1.6460788488	 0.2979067244	 0.112551
H	-0.1037512371	-1.2933030596	 1.5395815315	 0.066934
H	 1.8383319766	 0.9622843257	 2.2527116145	 0.117905
H	 0.1695088745	 0.7885582536	 2.7985651141	 0.109283
H	 1.3840596529	-0.3946885028	 3.2877648521	 0.107201
70.9233	123.2124	211.5934	226.7472	232.9837	246.6722	252.9006	270.4302	299.039	311.643	386.1376	414.1225	470.1513	504.7117	557.5623	666.707	713.4349	781.9394	835.221	880.0671	922.1644	930.3392	973.7231	993.1978	1012.0574	1036.8407	1046.9728	1062.301	1071.5035	1111.5906	1119.0724	1167.3111	1190.0491	1197.6984	1229.4115	1267.3282	1301.8836	1318.319	1333.5926	1342.2127	1372.5172	1374.4647	1383.1764	1387.3292	1406.1288	1408.1667	1416.8557	1418.1351	1487.236	1491.6348	1492.407	1495.076	1496.6952	1503.463	1507.2441	1509.4556	1515.0483	2989.6749	2995.4715	3017.6425	3019.286	3026.117	3026.5413	3027.8864	3032.0283	3040.3001	3072.9866	3087.5219	3089.3762	3090.9134	3095.8975	3099.3813	3103.7984	3107.1247	3110.2148
CC1CC(C)C(C)C1C	C[C@H]1C[C@@H](C)[C@@H](C)[C@H]1C	
InChI=1S/C9H18/c1-6-5-7(2)9(4)8(6)3/h6-9H,5H2,1-4H3	InChI=1S/C9H18/c1-6-5-7(2)9(4)8(6)3/h6-9H,5H2,1-4H3/t6-,7+,8-,9+
