17
gdb 51239	3.49353	1.13359	0.98606	2.6306	68.67	-0.2525	-0.0328	0.2197	1195.9371	0.134261	-458.920834	-458.912521	-458.911577	-458.955232	29.734	
O	-0.1745469003	-0.0284898506	-0.2617173571	-0.235165
C	-0.0051860499	 1.1442185195	-0.0480182797	 0.154567
C	 1.3519127089	 1.8272062779	-0.0767767023	-0.377018
C	 1.3874861358	 2.9249553443	-1.1202461351	 0.385948
C	 1.4617647397	 2.5931328558	-2.6247660036	-0.120759
O	 2.4775858241	 3.6098328008	-2.8291970646	-0.289559
C	 2.5116991264	 3.9412072197	-1.4333742649	 0.000489
C	 1.4812677565	 5.0085432997	-1.03814422	-0.100652
O	 0.4563554926	 3.9961526499	-0.8455173941	-0.332843
H	-0.8550703319	 1.8213513504	 0.1815761463	 0.103836
H	 1.5291390797	 2.2772494404	 0.9085998459	 0.126426
H	 2.12022537	 1.0747430295	-0.2734978984	 0.128566
H	 1.8457933391	 1.5946750443	-2.8668964265	 0.113915
H	 0.5425033996	 2.7900851458	-3.1857578162	 0.119423
H	 3.5213336324	 3.9731388914	-1.0199784897	 0.093519
H	 1.691624023	 5.5392795723	-0.1013366619	 0.108548
H	 1.2289681343	 5.7223918491	-1.8284425282	 0.120759
33.9612	68.0969	144.0014	166.7573	277.3837	344.0385	394.8785	421.6835	484.4957	659.5382	711.4409	828.093	854.467	887.3089	915.3171	937.9751	990.3884	997.5238	1014.0587	1042.032	1076.1988	1119.349	1130.653	1144.3378	1164.8785	1185.067	1244.8325	1263.9098	1304.5256	1316.3007	1339.1841	1380.9529	1421.739	1453.826	1502.4758	1504.9875	1830.1598	2913.1711	3022.724	3024.5624	3031.998	3086.579	3088.3854	3099.0513	3110.4138
O=CCC12COC1CO2	O=CC[C@]12CO[C@H]1CO2	
InChI=1S/C6H8O3/c7-2-1-6-4-8-5(6)3-9-6/h2,5H,1,3-4H2	InChI=1S/C6H8O3/c7-2-1-6-4-8-5(6)3-9-6/h2,5H,1,3-4H2/t5-,6-/m0/s1
