16
gdb 87473	3.82989	1.21913	1.11121	3.0516	70.71	-0.2555	-0.0085	0.247	1113.8325	0.12321	-437.800166	-437.792381	-437.791437	-437.83251	29.498	
C	-0.0036547321	 1.5366890263	-0.0963695616	-0.41407
C	-0.0302200759	 0.0412699977	 0.0610892126	-0.06716
O	 1.2497482829	-0.655082006	-0.0813458455	-0.308186
C	 0.6169065858	-0.6548075394	 1.1576371755	 0.589608
C	 1.1746621432	-0.2363268729	 2.5306410163	-0.290983
N	-0.1522832744	-0.7790015472	 3.0719186923	-0.314982
C	 0.247502017	-1.8516128934	 2.0522387808	-0.291873
C	 1.6750420607	-1.7068838752	 2.6575203603	 0.445309
O	 2.5413726612	-2.3508975371	 3.1558365669	-0.315585
H	 0.8471429332	 1.9703646507	 0.4345430136	 0.128977
H	 0.0715607375	 1.8102545581	-1.1535345365	 0.135177
H	-0.9256136798	 1.9727669281	 0.3020976474	 0.134928
H	-0.8461550457	-0.4743985152	-0.4458012031	 0.106596
H	 1.5976337155	 0.7080538907	 2.8641258236	 0.110964
H	-0.0200907207	-1.136188456	 4.0221935066	 0.239781
H	-0.3731825185	-2.7196810593	 1.8442565509	 0.111499
111.2404	140.7929	187.134	200.7614	295.4327	400.5258	440.6027	480.1598	544.3606	593.4183	689.3458	779.8352	796.3984	803.198	828.4294	873.0446	977.2408	1004.5888	1031.1104	1040.8486	1093.2436	1102.4482	1129.8102	1135.879	1140.4449	1178.8605	1206.7554	1253.2654	1271.747	1360.7163	1411.0436	1477.7957	1490.5239	1568.8894	1913.5801	3041.5155	3107.6264	3108.6988	3132.4955	3158.7778	3162.1933	3418.0428
CC1OC11C2NC1C2=O	C[C@H]1O[C@]21[C@H]1N[C@@H]2C1=O	
InChI=1S/C6H7NO2/c1-2-6(9-2)4-3(8)5(6)7-4/h2,4-5,7H,1H3	InChI=1S/C6H7NO2/c1-2-6(9-2)4-3(8)5(6)7-4/h2,4-5,7H,1H3/t2-,4-,5+,6+/m1/s1
