18
gdb 89791	2.16447	1.52151	1.01781	5.5408	72.97	-0.2347	-0.0129	0.2218	1176.4123	0.146194	-439.042971	-439.034075	-439.033131	-439.077129	32.714	
O	 0.286583532	 0.8575287354	-0.8046925266	-0.424902
C	-0.0262495832	-0.2252031273	 0.0367245755	 0.133673
C	-0.0103273214	 0.0070702137	 1.57907739	-0.36759
C	-1.3998139947	-0.6320056855	 1.6238361216	 0.354669
C	-1.8587740055	-1.7232076306	 2.5087793176	-0.306211
N	-2.4831699189	-0.3859566314	 2.5686834943	-0.352633
C	-1.5565937408	-0.534656775	 0.0924171048	-0.218194
C	-2.4264061994	 0.6290142287	-0.3327556946	 0.206632
O	-3.2845229191	 0.5497210614	-1.1722818381	-0.261603
H	 1.2395945477	 0.9913725505	-0.7961325663	 0.289676
H	 0.536072747	-1.1262688927	-0.2390312269	 0.084151
H	 0.7893027643	-0.4621748757	 2.1584826862	 0.104675
H	-0.0399338843	 1.0795661312	 1.8005525954	 0.113909
H	-2.5018585526	-2.509081866	 2.1213509513	 0.127651
H	-1.2004403831	-2.0307031289	 3.3180442441	 0.114486
H	-2.1375326522	 0.1295903041	 3.3749379726	 0.233254
H	-1.8876350834	-1.4295729293	-0.4367958401	 0.091831
H	-2.2308194625	 1.5825961274	 0.2020683792	 0.076524
60.9277	72.4558	164.3242	224.8253	243.1778	260.0996	319.7539	400.7099	446.7155	476.5653	491.649	578.2507	740.4454	842.6418	871.0138	877.8944	906.6737	967.4359	973.9183	997.5949	1015.1551	1046.9258	1085.5136	1116.3194	1152.2219	1161.7143	1202.5088	1226.4696	1234.305	1266.0581	1269.7416	1290.4351	1325.0084	1400.2918	1428.1445	1437.585	1478.6183	1513.38	1832.262	2901.5314	3017.7751	3042.7083	3101.6095	3102.2034	3104.4626	3187.9034	3493.321	3820.4084
OC1CC2(CN2)C1C=O	O[C@H]1C[C@]2(CN2)[C@H]1C=O	
InChI=1S/C6H9NO2/c8-2-4-5(9)1-6(4)3-7-6/h2,4-5,7,9H,1,3H2	InChI=1S/C6H9NO2/c8-2-4-5(9)1-6(4)3-7-6/h2,4-5,7,9H,1,3H2/t4-,5-,6-/m0/s1
