19
gdb 83676	2.25947	1.71116	1.33737	1.4557	79.88	-0.2491	0.0329	0.282	1040.5449	0.159037	-385.826858	-385.818442	-385.817498	-385.860066	32.836	
O	 0.5437854804	 0.9556136459	 0.6431335326	-0.430336
C	 0.0362688472	-0.2431233806	 0.1343359275	 0.131786
C	-1.4961731449	-0.4193045566	-0.0289249297	-0.046432
C	-2.2607329546	 0.836456646	-0.5278854685	-0.235936
C	-2.1978217744	 0.3007976362	-1.9907784037	-0.230185
C	-1.3004314256	-0.8667957599	-1.522540287	-0.026783
C	 0.2366059747	-0.5525711603	-1.4087779982	-0.255195
C	 0.7655777893	 0.5532316572	-2.1758088201	 0.304651
C	 1.2013605113	 1.5299896857	-2.7312187536	-0.439367
H	 0.676205378	 1.5618249135	-0.0976582119	 0.286355
H	 0.4591849654	-1.054470207	 0.7355426503	 0.088201
H	-1.9972888432	-1.0323355897	 0.7209839081	 0.063881
H	-3.2702045753	 0.939386109	-0.1252179293	 0.10262
H	-1.7292514202	 1.7737622815	-0.3452200761	 0.101362
H	-3.1687189091	-0.0519415538	-2.3477443853	 0.099045
H	-1.771450594	 0.9652542263	-2.7459742367	 0.110094
H	-1.5255964065	-1.8674528231	-1.891357521	 0.068017
H	 0.8556133297	-1.4396826785	-1.5689267163	 0.105862
H	 1.5970296818	 2.3612231181	-3.2611802209	 0.202361
45.9105	137.3503	172.6859	221.3898	323.2748	336.0737	376.0361	505.3065	539.6978	576.4583	626.4277	648.7145	660.8991	728.1428	768.8774	785.2797	849.5232	873.0372	884.0822	960.5235	996.3333	1038.6035	1043.6466	1074.2635	1088.9563	1142.0078	1148.2054	1192.9045	1206.2165	1227.5757	1254.1229	1256.8735	1283.6237	1287.0195	1316.7039	1331.4447	1353.6861	1430.7929	1477.5429	1498.0475	2215.0623	3046.9009	3060.7149	3066.7111	3068.931	3094.2637	3106.9047	3108.0331	3124.3464	3500.1772	3748.8318
OC1C2CCC2C1C#C	O[C@H]1[C@H]2CC[C@H]2[C@H]1C#C	
InChI=1S/C8H10O/c1-2-5-6-3-4-7(6)8(5)9/h1,5-9H,3-4H2	InChI=1S/C8H10O/c1-2-5-6-3-4-7(6)8(5)9/h1,5-9H,3-4H2/t5-,6+,7+,8-/m1/s1
