22
gdb 96669	2.77012	0.97706	0.91181	0.9194	85.97	-0.236	0.0337	0.2697	1464.3003	0.191202	-404.34367	-404.332861	-404.331916	-404.380686	38.15	
C	-0.0673207473	 1.0671068509	-0.8461945139	-0.32597
N	-0.0341433296	-0.2856779594	-0.3347621233	-0.285931
C	-1.0235691904	-0.7583221337	 0.2948800067	 0.408388
C	-2.3470648829	-0.108042576	 0.6318086622	-0.488781
O	-0.9905180566	-2.0236703753	 0.7955920099	-0.259077
C	 0.1925274413	-2.7620923614	 0.5825487193	 0.152628
C	 0.0800878831	-4.2294451679	 0.8526826736	-0.339448
C	 0.2548660632	-3.7253515842	-0.5702906487	-0.010507
C	-0.8809024807	-3.8297031134	-1.5622143373	-0.40614
H	 0.7686396523	 1.6370800681	-0.4227495609	 0.124378
H	 0.0859714245	 1.0498845423	-1.9321117215	 0.124219
H	-0.9916236911	 1.6261551901	-0.6445252897	 0.099088
H	-2.8589217028	 0.2270057608	-0.2747688559	 0.14283
H	-2.9862209123	-0.8175366007	 1.1569275178	 0.141628
H	-2.198717401	 0.7687842947	 1.2692205763	 0.143846
H	 1.0889622676	-2.2189356694	 0.8575052458	 0.107533
H	 0.9022153811	-4.7306435783	 1.3514540164	 0.11148
H	-0.9049630895	-4.5955197685	 1.1234326246	 0.118273
H	 1.2453576283	-3.8499455609	-1.0002208758	 0.086475
H	-1.8442669302	-3.6555207525	-1.0753279804	 0.119958
H	-0.7717265835	-3.0887294957	-2.3612165422	 0.121994
H	-0.9107627035	-4.8226739797	-2.023369973	 0.113136
43.6627	68.6093	69.3223	97.7694	150.0574	204.9227	219.8287	288.1627	295.8695	334.9797	392.6606	437.7008	548.0568	596.377	649.9722	780.4383	794.1876	822.254	867.951	920.4193	974.986	1018.7511	1044.8414	1052.796	1089.8903	1101.5779	1126.6819	1134.1819	1138.0596	1151.5861	1179.3678	1190.0384	1236.5913	1290.349	1373.7218	1396.2483	1410.9887	1418.604	1447.9961	1478.6766	1478.9511	1486.1001	1497.9714	1500.033	1504.833	1506.7192	1758.9724	2998.3319	3034.2611	3051.7387	3060.6952	3065.5176	3094.1741	3112.2823	3112.6358	3131.2311	3141.741	3154.9625	3178.2825	3219.312
CN=C(C)OC1CC1C	CN=C(C)O[C@H]1C[C@H]1C	
InChI=1S/C7H13NO/c1-5-4-7(5)9-6(2)8-3/h5,7H,4H2,1-3H3	InChI=1S/C7H13NO/c1-5-4-7(5)9-6(2)8-3/h5,7H,4H2,1-3H3/t5-,7+/m1/s1
