17
gdb 31747	4.67855	0.93616	0.79043	2.9376	72.68	-0.1864	0.0347	0.2211	1406.3567	0.136178	-455.168357	-455.159198	-455.158254	-455.203078	32.282	
C	 0.0424288594	 1.3957544046	 0.0151586685	-0.229176
O	 0.0045673407	-0.0251592236	 0.0201839509	-0.277029
C	 0.616318449	-0.6255687688	 1.0614551053	 0.36411
C	 0.7098632022	-1.9842320118	 1.2507712907	-0.233605
N	 1.4105278221	-2.1098084029	 2.4384256344	-0.261197
C	 1.7013225538	-0.8670026061	 2.8815507211	 0.361854
C	 2.4308735308	-0.6355434916	 4.1655915213	-0.187625
O	 3.0465039621	-1.8642109591	 4.5347541484	-0.42938
N	 1.2314793927	 0.0636023254	 2.0690013297	-0.411883
H	 1.0721930397	 1.7679345911	-0.0110008584	 0.126134
H	-0.4886850151	 1.704620559	-0.8870988549	 0.119904
H	-0.4505615579	 1.8118896581	 0.9002779428	 0.125616
H	 0.3717598738	-2.8267877497	 0.6753030855	 0.126055
H	 1.7110756717	-2.9550858528	 2.8938767145	 0.273169
H	 3.1657391088	 0.1693923028	 4.0219144737	 0.122202
H	 1.7270000677	-0.2979925558	 4.9429417205	 0.113725
H	 3.3435889385	-1.7914052088	 5.4455400461	 0.297127
50.3287	78.9779	154.5396	167.4838	193.7507	235.6882	261.5422	343.1613	448.0605	516.6522	574.1359	639.7137	665.0002	690.8967	728.998	744.6601	995.4395	1009.3552	1034.7353	1083.9005	1089.1384	1104.9437	1180.8694	1203.0842	1206.6327	1227.2481	1267.6376	1323.2511	1385.6038	1441.8455	1470.3562	1478.9393	1500.0579	1504.1245	1516.1945	1575.0976	1623.8256	2973.8181	3015.2296	3027.4316	3090.7592	3134.2353	3294.9382	3675.2479	3847.867
COC1=CNC(CO)=N1	COc1c[nH]c(CO)n1	
InChI=1S/C5H8N2O2/c1-9-5-2-6-4(3-8)7-5/h2,8H,3H2,1H3,(H,6,7)	InChI=1S/C5H8N2O2/c1-9-5-2-6-4(3-8)7-5/h2,8H,3H2,1H3,(H,6,7)
