13
gdb 16783	3.86999	2.1629	1.50917	2.1392	60.8	-0.2681	-0.021	0.2471	784.5964	0.098123	-394.806237	-394.800098	-394.799154	-394.836519	23.591	
N	-0.1157233318	 1.305805248	-0.0313937993	-0.540521
C	-0.0305548146	 0.0425655592	 0.0210378558	 0.405245
N	 1.0822998146	-0.7984618685	 0.0388093699	-0.376662
C	 0.7660923408	-2.1556458251	-0.0156587729	 0.418818
O	 1.5455813139	-3.0651601221	 0.000964458	-0.342388
N	-0.6664554849	-2.272500283	-0.1062195283	-0.149378
C	-1.3166546337	-1.8498810332	 1.1543291498	-0.246893
C	-1.1951327705	-0.8972657704	 0.0180645584	-0.084256
H	 0.8014988358	 1.753451538	-0.0547826965	 0.218701
H	 2.0393963376	-0.4878782441	 0.1043332161	 0.269571
H	-2.273838198	-2.3230786264	 1.3449133359	 0.146724
H	-0.6868425687	-1.7018375707	 2.0270271985	 0.144505
H	-2.0604230306	-0.6321099615	-0.5767899255	 0.136534
132.8681	216.3414	314.7443	379.49	517.3995	559.3773	625.5083	651.5411	712.1654	791.9045	799.2971	847.0358	867.9375	879.4556	963.2736	1019.5373	1073.9014	1102.0101	1120.4143	1151.3782	1175.6003	1266.3777	1340.8144	1357.1707	1388.8949	1505.1191	1773.3203	1884.227	3124.0356	3199.2694	3220.5761	3469.8309	3640.1704
N=C1NC(=O)N2CC12	[NH][C]1NC(=O)N2C[C@@H]12	
InChI=1S/C4H5N3O/c5-3-2-1-7(2)4(8)6-3/h2H,1H2,(H2,5,6,8)	InChI=1S/C4H5N3O/c5-3-2-1-7(2)4(8)6-3/h2H,1H2,(H2,5,6,8)/t2-,7?/m0/s1
