14
gdb 28148	5.32441	1.30762	1.0498	0.3599	69.96	-0.1717	0.0423	0.214	1047.4656	0.104622	-432.919425	-432.912439	-432.911494	-432.950438	27.595	
O	 0.0797386432	 1.2971773329	 0.1224262068	-0.425015
C	 0.0689966879	-0.0418395779	 0.0116615294	 0.422054
N	 0.0926826716	-0.7235328473	-1.1110049505	-0.468721
C	 0.0667610768	-2.0216642986	-0.6538803017	 0.339956
C	 0.0280320553	-2.1249989717	 0.7228190641	 0.310303
N	 0.0300011746	-0.7963235827	 1.1535659875	-0.45957
C	 0.004177413	-3.4961009844	 1.0824139515	-0.314815
C	 0.0300371232	-4.1815300039	-0.1201557242	-0.072577
N	 0.0681000151	-3.2846867521	-1.1781506643	-0.385386
H	 0.1080093417	 1.6406291713	-0.779273597	 0.314055
H	 0.0080240877	-0.4297542025	 2.0883219398	 0.26904
H	-0.0272488465	-3.9471522313	 2.0611116546	 0.092941
H	 0.0241769733	-5.2428773279	-0.3063905433	 0.114861
H	 0.0924775831	-3.529149484	-2.1515792628	 0.262875
146.7608	246.1472	331.7869	334.1785	382.2492	400.6117	414.4337	547.8693	588.0145	604.4693	649.6573	706.436	751.1043	768.1673	778.5712	834.8934	942.7798	1025.1121	1069.0273	1102.8092	1180.184	1191.3212	1249.5156	1311.7268	1365.7621	1479.6874	1500.9574	1533.994	1560.1002	1571.7803	1627.6356	3254.4831	3275.7714	3691.6157	3695.5716	3808.5899
OC1=NC2=C(N1)C=CN2	Oc1nc2c([nH]1)cc[nH]2	
InChI=1S/C5H5N3O/c9-5-7-3-1-2-6-4(3)8-5/h1-2,6H,(H2,7,8,9)	InChI=1S/C5H5N3O/c9-5-7-3-1-2-6-4(3)8-5/h1-2,6H,(H2,7,8,9)
