21
gdb 94378	2.76967	1.47314	1.21868	1.5116	81.72	-0.2344	0.0739	0.3083	1110.4853	0.183287	-387.047079	-387.038893	-387.037949	-387.079557	32.95	
O	 0.583635358	 0.6552689384	-0.7943023298	-0.429814
C	 0.154196887	-0.3415514792	 0.1007071139	 0.09479
C	-0.0292622992	-0.0261390486	 1.6072528256	-0.264863
C	-1.228623506	-1.0135484961	 1.6033623069	-0.307818
C	-1.3123511419	-0.8601149998	 0.0631730631	 0.350052
C	-2.4495107825	 0.0693824509	-0.4897436225	-0.317634
C	-2.9060055794	-1.0725610237	-1.4054245751	-0.032248
C	-1.7721073201	-1.5136056431	-2.2876866136	-0.28678
C	-1.8046296446	-1.9774046523	-0.8541936005	-0.142475
H	 0.0217293067	 1.4271390151	-0.6678120813	 0.277765
H	 0.8471645217	-1.17826057	-0.0402492332	 0.089854
H	 0.807398691	-0.2176842342	 2.2825084106	 0.100214
H	-0.3654873716	 1.0070555082	 1.7498952835	 0.093807
H	-0.9225120351	-2.0247072739	 1.8899554168	 0.102303
H	-2.1143257897	-0.7412268028	 2.1824862506	 0.099002
H	-3.1768462628	 0.3223256754	 0.2859984555	 0.102495
H	-2.1491319611	 0.9925282903	-1.0009083608	 0.080389
H	-3.9366014293	-1.3152729829	-1.6334062835	 0.083186
H	-2.0242135358	-2.2711606112	-3.0230234291	 0.10677
H	-1.0162206244	-0.8030461244	-2.6115423956	 0.123239
H	-1.846849571	-3.027799886	-0.5886009217	 0.077765
108.1768	119.1967	202.0798	268.4896	307.584	349.1765	400.5798	421.0591	502.6993	568.799	657.2796	747.001	790.1755	794.2108	835.985	859.3346	904.7266	937.4836	943.1822	967.0195	972.9303	982.8924	1030.4586	1060.8228	1065.1855	1089.3053	1112.6709	1135.4206	1146.4693	1169.2091	1181.0004	1203.0402	1231.4217	1251.9071	1260.5377	1261.7943	1285.1357	1312.4454	1320.9191	1362.393	1431.8815	1474.3597	1480.9727	1493.5428	1497.8224	3017.4346	3042.714	3050.1893	3056.7612	3089.8984	3100.7762	3113.3369	3116.6817	3168.7945	3184.2431	3206.0969	3808.1702
OC1CCC11CC2CC12	O[C@H]1CC[C@]21C[C@H]1C[C@@H]21	
InChI=1S/C8H12O/c9-7-1-2-8(7)4-5-3-6(5)8/h5-7,9H,1-4H2	InChI=1S/C8H12O/c9-7-1-2-8(7)4-5-3-6(5)8/h5-7,9H,1-4H2/t5-,6-,7+,8+/m1/s1
