21
gdb 94448	2.95511	1.398	1.19701	1.2891	84.77	-0.2234	0.0182	0.2417	1141.2991	0.18277	-387.090455	-387.081956	-387.081012	-387.123567	32.998	
C	-0.1106955255	 1.5056147815	 0.1994606809	-0.38736
C	 0.0234166077	-0.0055797801	 0.0471138279	-0.045823
C	 1.1031284517	-0.4598543993	-0.9786465457	-0.228126
C	 2.0854648984	-0.7216381052	 0.1937540529	-0.282521
C	 0.8803716831	-0.6896308144	 1.1779268975	 0.418316
O	 1.0792402816	 0.0622360585	 2.3699676084	-0.314631
C	 0.678293386	-0.684183685	 3.5161253173	-0.13715
C	 0.2478071584	-2.0185257169	 2.9764863764	-0.11406
C	 0.3695647192	-2.0171521342	 1.6543583479	-0.13578
H	 0.8640709941	 1.9851625462	 0.3325566991	 0.119355
H	-0.5829933444	 1.9378247894	-0.6894935626	 0.105465
H	-0.7198038684	 1.7608459409	 1.0712132977	 0.118406
H	-0.9671137257	-0.4514779814	-0.0914412198	 0.061536
H	 0.8245403658	-1.3755881709	-1.5070598538	 0.096091
H	 1.4086601773	 0.28421408	-1.7183624337	 0.097221
H	 2.6896705739	-1.6321535005	 0.1716291324	 0.093641
H	 2.7404035976	 0.1317183357	 0.3850007519	 0.113715
H	 1.5210005564	-0.7628238174	 4.2203534036	 0.106246
H	-0.13521325	-0.1613286107	 4.0439537798	 0.104282
H	-0.1033590746	-2.8294007762	 3.6017926234	 0.105192
H	 0.1354619974	-2.8291412099	 0.9771328588	 0.105985
82.6969	100.971	183.6799	223.0168	253.4377	312.5924	355.6497	446.6577	480.2463	517.4659	706.1268	737.6267	781.055	802.0129	834.0757	876.3	893.5496	944.3065	948.7261	957.3287	976.0007	984.4286	1033.9995	1044.8425	1061.9965	1079.2043	1116.0566	1171.5249	1180.018	1194.9878	1203.4452	1213.7762	1253.0418	1269.8909	1293.6971	1348.2543	1371.1988	1380.2438	1411.5178	1477.0157	1491.8877	1494.1429	1497.6623	1518.7322	1687.6314	2974.0673	2992.9111	3034.0177	3040.8184	3057.52	3064.78	3101.0629	3102.1811	3111.9639	3123.2934	3202.9955	3228.327
CC1CCC11OCC=C1	C[C@H]1CC[C@]21OCC=C2	
InChI=1S/C8H12O/c1-7-3-5-8(7)4-2-6-9-8/h2,4,7H,3,5-6H2,1H3	InChI=1S/C8H12O/c1-7-3-5-8(7)4-2-6-9-8/h2,4,7H,3,5-6H2,1H3/t7-,8+/m0/s1
