18
gdb 118029	3.56673	0.76944	0.6611	3.7078	69.21	-0.2746	0.0081	0.2827	1626.8937	0.144754	-476.213322	-476.20269	-476.201746	-476.249659	36.979	
O	-0.0758672934	 1.4720694225	 0.0283053177	-0.420282
C	 0.0413344225	 0.0590927109	-0.0079907679	-0.083181
C	-1.3708036696	-0.5145702907	-0.0141682431	-0.197988
C	-1.3881392532	-2.0414371123	-0.0023528603	 0.092659
O	-0.7931498003	-2.5941505087	 1.1586939728	-0.417539
C	-2.8337360809	-2.5815584292	-0.1728930318	-0.047651
O	-3.4543038501	-2.1335000634	-1.3622905053	-0.404469
C	-2.8508556068	-4.0550057775	-0.0851653937	 0.266666
N	-2.8756569205	-5.2100242621	-0.0810688763	-0.314703
H	 0.8088906925	 1.8466685071	 0.0675013796	 0.288977
H	 0.578995068	-0.2768104402	-0.9101503355	 0.088421
H	 0.5932625581	-0.3258006177	 0.8615668134	 0.099311
H	-1.9106059327	-0.1363513252	 0.8660674965	 0.099624
H	-1.9121329202	-0.1510688187	-0.892363671	 0.131076
H	-0.7899226457	-2.4290117731	-0.8378352751	 0.098798
H	-1.1966538743	-2.1823058291	 1.9318221601	 0.28777
H	-3.4483163984	-2.1857635137	 0.6456423069	 0.13253
H	-3.0449268949	-2.5869301589	-2.108565007	 0.299982
51.9287	88.311	96.3313	122.5412	186.0875	239.4926	250.922	267.8327	307.5971	322.2337	363.111	390.4399	447.5339	482.1572	613.1744	618.2705	803.2655	896.9341	935.4194	1024.6755	1041.2055	1080.3234	1089.4324	1111.1706	1127.8549	1203.3352	1212.2824	1252.4076	1286.085	1299.8435	1317.2334	1355.1599	1382.8862	1411.8074	1420.1096	1464.082	1491.976	1531.9102	2358.3586	2965.7518	3009.7807	3017.3296	3028.301	3047.1122	3100.1375	3792.909	3800.9004	3831.7658
OCCC(O)C(O)C#N	OCC[C@@H](O)[C@@H](O)C#N	
InChI=1S/C5H9NO3/c6-3-5(9)4(8)1-2-7/h4-5,7-9H,1-2H2	InChI=1S/C5H9NO3/c6-3-5(9)4(8)1-2-7/h4-5,7-9H,1-2H2/t4-,5+/m1/s1
