19
gdb 40550	3.70051	1.19582	1.02156	1.8231	82.8	-0.2187	0.0171	0.2358	1206.8942	0.161864	-382.021474	-382.01386	-382.012916	-382.053911	29.989	
C	 0.1657203064	 1.5243061698	 0.0195295394	-0.244943
N	 1.296904851	 0.5972924895	-0.0645657395	-0.30737
C	-0.0719646332	 0.0480369942	 0.0382263183	-0.149188
C	-0.4187419291	-0.6898110487	 1.2669238757	 0.454467
C	-1.3558222099	-1.6382511899	 1.3923440791	-0.212012
C	-1.4819388123	-2.1570287888	 2.8102600137	-0.253423
C	-0.372828466	-1.4106309351	 3.5453496448	-0.042173
N	 0.9792450151	-1.7179079687	 3.0330634878	-0.330993
C	 0.2762662971	-0.4851869635	 2.5775897326	-0.161389
H	 0.1083535316	 2.0949379418	 0.9426173	 0.117008
H	-0.1446533	 2.0715439766	-0.8672231701	 0.112785
H	 1.6304120053	 0.527058846	-1.0217900606	 0.234791
H	-0.5169696163	-0.3576320697	-0.8684929695	 0.080443
H	-1.9538753447	-2.0284861033	 0.5754499849	 0.084736
H	-2.4686557244	-1.9328880831	 3.2379631067	 0.101776
H	-1.3470194274	-3.243923673	 2.8681946208	 0.117265
H	-0.4898376048	-1.1583606546	 4.5938125021	 0.083475
H	 1.6574931579	-1.4526393112	 3.7458521238	 0.225305
H	 0.6907212938	 0.4773341817	 2.85417292	 0.089437
71.9705	137.1665	171.5777	302.9278	336.7223	408.9571	420.6032	577.6903	669.8591	728.57	800.7687	818.3973	830.2439	855.3528	859.9175	901.2892	911.5851	919.0727	937.4122	968.5519	982.1552	1004.8655	1068.1468	1085.6665	1113.3339	1129.7258	1150.2936	1168.8571	1187.795	1212.9758	1239.9198	1249.8673	1282.8788	1293.5085	1332.2968	1388.7372	1419.6615	1430.4308	1467.1568	1514.1275	1698.7261	3014.7897	3054.6348	3104.223	3122.496	3164.3899	3180.9171	3185.521	3188.8912	3473.5986	3510.8504
C1NC1C1=CCC2NC12	C1N[C@H]1C1=CC[C@H]2N[C@@H]12	
InChI=1S/C7H10N2/c1-2-5-7(9-5)4(1)6-3-8-6/h1,5-9H,2-3H2	InChI=1S/C7H10N2/c1-2-5-7(9-5)4(1)6-3-8-6/h1,5-9H,2-3H2/t5-,6-,7+/m1/s1
