13
gdb 56116	4.34855	0.89595	0.87719	6.9594	61.09	-0.277	-0.0682	0.2088	1297.2718	0.087517	-489.9379	-489.928782	-489.927838	-489.973295	30.817	
N	-0.0211643733	 1.0614984434	 0.1615163793	-0.525012
C	-0.1808520935	-0.2714000614	-0.0656783496	 0.408869
O	 0.7020552534	-1.0912821628	 0.0388221268	-0.331584
C	-1.6032394021	-0.6530567484	-0.5154811049	-0.201085
O	-1.6867423346	-2.0581338313	-0.7376575766	-0.205328
C	-1.7357657561	-2.8065419757	 0.3703897561	 0.383361
O	-1.8281795988	-2.4136973063	 1.4991692999	-0.334027
C	-1.7075622308	-4.2279027984	 0.0121799828	 0.259357
N	-1.699903689	-5.3608434981	-0.2098321985	-0.305582
H	 0.8607382987	 1.3686168023	 0.5399376912	 0.274867
H	-0.8032617815	 1.691452806	 0.2198419153	 0.266211
H	-2.336748518	-0.3417701608	 0.2342543509	 0.153347
H	-1.8389801843	-0.1912780186	-1.4763389326	 0.156605
32.6245	62.6769	91.8692	172.4221	257.3931	261.5496	305.3744	346.0358	409.9776	472.242	549.1589	601.3772	631.5556	674.2131	768.6677	819.739	865.4563	1034.3516	1069.778	1096.7521	1246.4888	1295.4906	1320.0185	1406.5113	1465.6897	1624.7286	1816.513	1835.3606	2365.4156	3065.3713	3130.2638	3595.4168	3724.9746
NC(=O)COC(=O)C#N	NC(=O)COC(=O)C#N	
InChI=1S/C4H4N2O3/c5-1-4(8)9-2-3(6)7/h2H2,(H2,6,7)	InChI=1S/C4H4N2O3/c5-1-4(8)9-2-3(6)7/h2H2,(H2,6,7)
