19
gdb 104234	2.1888	1.41576	1.08348	1.5445	74.58	-0.2434	0.0177	0.2611	1201.9208	0.159117	-456.327185	-456.317528	-456.316584	-456.361907	34.84	
C	 0.0519937656	 1.2376899879	 0.2874508994	-0.344867
N	-0.0683877218	-0.2142560485	 0.3551953702	-0.350342
C	-1.1304395027	-0.7686365486	-0.0156128683	 0.428616
O	-2.3184421343	-0.250823204	-0.490783675	-0.272675
C	-2.9031294387	-1.5906680343	-0.6028653887	-0.118567
C	-1.6081739281	-2.2202689572	-0.0316348967	 0.10953
N	-0.9486012662	-3.1984176434	-0.8694707421	-0.556664
C	-1.6785026923	-2.7551143459	 1.4033726461	-0.096216
O	-0.3726310372	-2.9058107807	 1.9247359995	-0.425436
H	 0.9374585782	 1.4968841549	-0.3024966591	 0.130605
H	-0.8221979965	 1.7339678295	-0.1485129816	 0.131142
H	 0.2124154252	 1.6328053312	 1.2964918423	 0.131043
H	-3.8086656157	-1.671998728	 0.0036919573	 0.122021
H	-3.1111679738	-1.8454391353	-1.6444150646	 0.123799
H	-0.5757121083	-2.7685651916	-1.7105422139	 0.232037
H	-0.1565630493	-3.5709241019	-0.351519753	 0.24654
H	-2.2939246989	-2.0829042946	 2.0205533984	 0.093626
H	-2.1399961016	-3.7480885364	 1.4064344849	 0.118886
H	 0.0703563962	-2.049466573	 1.8209755448	 0.296922
79.4876	92.7364	123.4772	148.2332	200.3886	242.0185	290.9342	325.8182	343.4638	373.9305	451.1534	566.224	584.1373	715.906	739.7002	778.5433	879.5932	925.9501	944.4282	961.7689	1030.4529	1066.8053	1078.3579	1088.1248	1131.8212	1132.4247	1149.424	1188.2249	1224.1225	1282.4762	1322.1306	1367.266	1403.0085	1438.1633	1453.9007	1493.2874	1498.0523	1501.4898	1511.2098	1662.6456	1828.4458	2988.6235	3021.6014	3063.0807	3078.7885	3087.1707	3094.141	3126.7584	3490.2152	3567.9149	3706.1338
CN=C1OCC1(N)CO	CN=C1OC[C@]1(N)CO	
InChI=1S/C5H10N2O2/c1-7-4-5(6,2-8)3-9-4/h8H,2-3,6H2,1H3	InChI=1S/C5H10N2O2/c1-7-4-5(6,2-8)3-9-4/h8H,2-3,6H2,1H3/t5-/m1/s1
