15
gdb 127165	4.40299	1.14825	0.916	1.4234	72.41	-0.2422	-0.0221	0.2201	1198.267	0.114044	-450.131198	-450.123103	-450.122159	-450.164589	28.379	
C	 0.0057893956	 1.4605622185	-0.0706723898	-0.355751
N	 0.0014325654	-0.001964205	 0.0016052519	-0.198992
C	-0.0222425111	-0.6622714244	 1.2309393881	 0.092483
N	-0.0407092627	-0.0171602784	 2.3232675319	-0.468312
C	 0.0207995454	-0.7351824919	-1.1449485864	 0.598017
N	 0.0205030787	-2.0385019097	-1.2766019932	-0.3786
C	 0.0449821035	-2.163554611	-2.6382957626	 0.04949
N	 0.0597531536	-1.0547438135	-3.3238289604	-0.131096
O	 0.0432586772	-0.0668245518	-2.3022557112	-0.229493
H	 0.9046236653	 1.8135301999	-0.5823021022	 0.149841
H	-0.8728346057	 1.8173171496	-0.6138282379	 0.14983
H	-0.0115973852	 1.828590769	 0.9529669583	 0.18267
H	-0.0222672501	-1.7459029912	 1.1055288505	 0.152368
H	-0.0563681813	-0.6600540682	 3.111472228	 0.238499
H	 0.0522369414	-3.120834552	-3.1403365252	 0.149047
76.5999	97.3235	131.2545	192.2878	244.9736	327.5588	343.6381	464.2309	507.1007	634.3244	762.9697	772.3669	819.1215	883.7237	937.8813	950.5961	978.0847	1044.1881	1070.4337	1126.6371	1161.012	1212.4077	1219.9423	1287.9335	1327.8929	1393.509	1427.4438	1444.5926	1500.1325	1506.9939	1572.2886	1644.8225	1723.405	3057.6474	3122.7211	3129.9991	3183.3817	3254.9322	3523.1514
CN(C=N)C1=NC=NO1	CN(C=N)c1ncno1	
InChI=1S/C4H6N4O/c1-8(2-5)4-6-3-7-9-4/h2-3,5H,1H3	InChI=1S/C4H6N4O/c1-8(2-5)4-6-3-7-9-4/h2-3,5H,1H3
