18
gdb 102037	2.50716	1.11793	0.80514	0.8351	70.67	-0.2495	-0.0401	0.2094	1400.372	0.144947	-476.25702	-476.246499	-476.245555	-476.293723	35.553	
C	-0.1792113045	 1.3199370587	-0.0985556921	-0.334081
N	-0.0310538446	-0.1149968973	 0.0530982819	-0.312064
C	 0.7008244007	-0.6614655649	 1.0527624557	 0.4036
O	 1.3523124749	-0.0250221016	 1.8639916079	-0.380934
C	 0.7115921053	-2.2087091629	 1.0750640509	-0.207648
C	 1.4225890012	-2.7348028286	 2.3183348915	-0.101785
O	 1.5484765196	-4.1411987981	 2.1451183787	-0.430693
C	-0.661728887	-2.8447316459	 0.9105259952	 0.157865
O	-1.4577750432	-2.5414662576	 0.0519335158	-0.26949
H	 0.5754527818	 1.8029085865	 0.5227456359	 0.166101
H	-0.0307895825	 1.6120401973	-1.1427025595	 0.127517
H	-1.1706054118	 1.6618509479	 0.222034824	 0.129288
H	-0.6434867096	-0.7393378459	-0.4560901257	 0.264957
H	 1.2849810148	-2.5352719722	 0.194877254	 0.147671
H	 2.3925498485	-2.2378503485	 2.4192958749	 0.125439
H	 0.8339360736	-2.4885925156	 3.2150886645	 0.102664
H	 1.9621884643	-4.5059983224	 2.9326599094	 0.293671
H	-0.8931412815	-3.6444280489	 1.6406999968	 0.117923
53.3688	69.8516	89.9472	108.3464	147.8338	169.4196	225.2246	279.5085	311.0445	345.5269	358.0365	407.1911	584.2219	617.6376	697.5076	732.4638	848.6381	913.4524	989.3603	1040.2284	1066.85	1103.5966	1133.9134	1151.7448	1181.992	1207.8487	1228.4769	1269.4247	1270.9613	1317.4549	1423.161	1439.9368	1450.8423	1495.7767	1502.0425	1522.0211	1588.0144	1774.391	1801.9138	2950.7737	2993.8598	3018.1843	3028.3276	3073.9046	3085.9827	3155.3426	3563.5997	3835.3455
CNC(=O)C(CO)C=O	CNC(=O)[C@@H](CO)C=O	
InChI=1S/C5H9NO3/c1-6-5(9)4(2-7)3-8/h2,4,8H,3H2,1H3,(H,6,9)	InChI=1S/C5H9NO3/c1-6-5(9)4(2-7)3-8/h2,4,8H,3H2,1H3,(H,6,9)/t4-/m1/s1
