17
gdb 43845	3.02448	1.31501	1.03308	4.5181	72.92	-0.2302	-0.0877	0.1426	1152.5458	0.135137	-421.850605	-421.84265	-421.841706	-421.883489	30.435	
O	-0.0049573021	-0.0024595913	 0.321676528	-0.276621
C	-0.0502277569	 1.1916507075	 0.2143076152	 0.319234
C	-1.2741627517	 2.0870106401	 0.0674046615	-0.414347
C	-0.775684058	 3.4780320603	 0.4564308956	 0.341068
C	-1.6717950249	 4.6804586947	 0.4380131193	-0.320743
C	-1.224055152	 4.0967296899	 1.7591587459	-0.303234
C	 0.6948463363	 3.5541153749	 0.0483449396	-0.414357
C	 1.2045823446	 2.1265766517	 0.2019428571	 0.319242
O	 2.3371430123	 1.7425414189	 0.2983786972	-0.276619
H	-1.5823009272	 2.0580365955	-0.988715728	 0.137399
H	-2.1147472757	 1.7202857014	 0.660904561	 0.137443
H	-1.2459252966	 5.6296499431	 0.129173762	 0.117819
H	-2.7069007417	 4.5410694744	 0.1433301182	 0.117819
H	-1.9563937188	 3.5624743146	 2.3553296278	 0.120522
H	-0.4953117524	 4.6511323759	 2.3411719008	 0.12052
H	 0.7976224814	 3.831526592	-1.0116775011	 0.137404
H	 1.2939878733	 4.2599669165	 0.6281103697	 0.137451
74.9468	80.6637	252.3571	311.798	328.3424	353.3018	365.4464	476.2804	499.6239	576.8948	648.5031	698.9724	756.246	781.2389	849.5522	889.9073	937.8371	947.286	980.8207	994.352	1046.5136	1057.905	1086.3851	1139.5864	1151.1683	1187.8029	1188.5513	1243.804	1256.5856	1293.9935	1383.9783	1439.9209	1451.4992	1469.0186	1505.6118	1844.4452	1865.7212	3004.107	3007.68	3104.7445	3104.9469	3125.4846	3130.2146	3204.7644	3219.3933
O=C1CC2(CC2)CC1=O	O=C1CC2(CC2)CC1=O	
InChI=1S/C7H8O2/c8-5-3-7(1-2-7)4-6(5)9/h1-4H2	InChI=1S/C7H8O2/c8-5-3-7(1-2-7)4-6(5)9/h1-4H2
