17
gdb 44739	2.8315	1.71712	1.53179	1.919	71.46	-0.2408	-0.0136	0.2273	922.7139	0.13803	-421.855978	-421.849202	-421.848258	-421.887137	27.547	
O	 0.0050346579	-0.0702345172	 0.1494698125	-0.305607
C	-0.0136174869	 1.1287693727	 0.009007156	 0.380298
C	-1.3294611203	 1.9133428606	-0.0595427823	-0.30253
C	-1.1775892116	 3.1486405303	-0.9798913135	 0.016237
O	-0.0591554632	 3.8967343226	-0.498972009	-0.251857
C	 1.066413165	 3.1800219386	-1.0100872131	 0.016231
C	 1.2774629606	 1.949787312	-0.0946347318	-0.30253
C	 0.5967380064	 2.7425494699	-2.3888492051	-0.080149
C	-0.7331246946	 2.7239225864	-2.3709451297	-0.080157
H	-2.1225554969	 1.2323341954	-0.3801024004	 0.12073
H	-1.5725845893	 2.2637897714	 0.9517026991	 0.13029
H	-2.0640589931	 3.7869418709	-0.9498878184	 0.09023
H	 1.9351771602	 3.8428683118	-1.0036945634	 0.090229
H	 1.5378257199	 2.3072639578	 0.9098357858	 0.13029
H	 2.0803655154	 1.2910916162	-0.4366838994	 0.12073
H	 1.256600146	 2.4269253618	-3.1859544088	 0.113782
H	-1.4051055655	 2.3896502589	-3.1501224384	 0.113783
87.7338	231.5884	336.5768	379.2892	410.1414	466.1572	500.2271	626.4503	665.1264	721.7831	740.9001	787.3512	843.6232	859.7266	891.3812	901.06	942.1423	957.9047	958.0477	1004.9564	1043.5333	1062.1243	1131.6011	1143.3489	1188.1317	1205.0111	1258.9625	1260.0351	1292.6325	1335.556	1349.3569	1361.7269	1368.007	1444.1162	1451.1646	1664.1645	1818.5465	3033.6676	3036.1912	3080.7798	3084.9545	3103.6092	3104.1235	3214.9129	3239.5944
O=C1CC2OC(C1)C=C2	O=C1C[C@H]2O[C@@H](C1)C=C2	
InChI=1S/C7H8O2/c8-5-3-6-1-2-7(4-5)9-6/h1-2,6-7H,3-4H2	InChI=1S/C7H8O2/c8-5-3-6-1-2-7(4-5)9-6/h1-2,6-7H,3-4H2/t6-,7+
