22
gdb 61883	4.68367	0.65142	0.6287	3.3448	84.64	-0.24	-0.0197	0.2204	1815.6347	0.191599	-404.328168	-404.317838	-404.316894	-404.364778	36.64	
C	-0.1751092196	 1.6241943247	 0.0908696319	-0.386408
C	 0.1202917605	 0.1187714779	 0.0696269966	 0.006918
C	 0.8209625639	-0.3026464349	-1.2374015363	-0.280156
C	-0.0655851988	-0.1307257647	-2.4497678117	 0.161865
O	 0.2402759988	 0.4444260878	-3.461817964	-0.241318
C	 0.9601803192	-0.3103677055	 1.281916055	-0.145247
N	 0.2637348042	-0.0408194794	 2.5339350749	-0.060375
C	-0.5698745172	-1.1185546219	 3.0575362228	-0.221057
C	 0.7266979269	-0.774557802	 3.7042289795	-0.220095
H	 0.7517229866	 2.2004608428	-0.0141888851	 0.116458
H	-0.8384643494	 1.9154770379	-0.7298790074	 0.117533
H	-0.6425883524	 1.9068851211	 1.036089974	 0.137731
H	-0.8348200875	-0.4244360937	 0.1286413719	 0.079328
H	 1.7480622393	 0.2570545735	-1.3989942594	 0.119261
H	 1.0771159617	-1.3718159064	-1.1833157403	 0.113893
H	-1.0722933482	-0.6028859655	-2.3431750447	 0.068283
H	 1.2271459186	-1.379886405	 1.1852529651	 0.072971
H	 1.9017446573	 0.2544044994	 1.2938135286	 0.104485
H	-1.5111479788	-0.8175253751	 3.508026492	 0.119148
H	-0.6102874494	-2.0511987945	 2.4957756064	 0.107782
H	 1.5468808873	-1.4791310483	 3.573133908	 0.109562
H	 0.7510926969	-0.2161404983	 4.635614932	 0.119438
54.6353	58.3677	75.8755	109.8367	141.6015	227.176	241.1298	301.1838	338.3748	384.1292	426.2269	485.3803	546.908	763.9795	782.1599	837.1352	870.9401	904.9079	931.347	938.0032	986.6351	1016.8978	1032.3967	1043.9488	1112.1837	1117.7456	1128.417	1149.3548	1156.731	1176.163	1195.0988	1228.8337	1268.5331	1295.0139	1323.8383	1352.2291	1374.0867	1394.7333	1414.7394	1429.3915	1458.8994	1484.1296	1490.2984	1496.6602	1505.0295	1521.1768	1836.2658	2839.7369	2919.0366	2994.8004	3002.4937	3032.7664	3038.5527	3085.6098	3090.1945	3095.0627	3095.6065	3133.6669	3175.9797	3190.0793
CC(CC=O)CN1CC1	C[C@@H](CC=O)CN1CC1	
InChI=1S/C7H13NO/c1-7(2-5-9)6-8-3-4-8/h5,7H,2-4,6H2,1H3	InChI=1S/C7H13NO/c1-7(2-5-9)6-8-3-4-8/h5,7H,2-4,6H2,1H3/t7-/m0/s1
