20
gdb 64010	2.61085	1.41425	1.15344	5.2715	82.96	-0.2126	-0.0242	0.1884	1146.4505	0.171287	-403.198783	-403.189989	-403.189045	-403.231592	34.634	
C	-0.1135339967	 1.5578157893	-0.006253713	-0.401739
C	-0.0184051331	 0.0182312336	-0.0025792997	 0.225953
C	-1.4210111059	-0.5985811061	 0.0091594577	-0.422226
C	 0.7845580571	-0.4793332105	-1.2195090985	-0.320074
C	 2.2885691845	-0.1707568766	-1.156834812	 0.353211
O	 2.9310998116	 0.0191031988	-2.1755275045	-0.359881
C	 2.8568715529	-0.2153312987	 0.1795411568	-0.229107
C	 2.0532489886	-0.3691442425	 1.2626747851	 0.025864
N	 0.694494765	-0.4356053568	 1.2067649375	-0.294861
H	 0.8801850664	 2.0124430968	 0.021565847	 0.138187
H	-0.6232999125	 1.908889438	-0.9088194064	 0.123503
H	-0.680005924	 1.9117390939	 0.8616948552	 0.105324
H	-1.9764314054	-0.2993281557	-0.884181853	 0.127713
H	-1.366333487	-1.6904724065	 0.0354048787	 0.124182
H	-1.9924255578	-0.2611908604	 0.8823175318	 0.107845
H	 0.6920654977	-1.5719593477	-1.2880039626	 0.119524
H	 0.3796281376	-0.0600206801	-2.1435543035	 0.119014
H	 3.9317073378	-0.1635812194	 0.2927169445	 0.096328
H	 2.4717088876	-0.4645120085	 2.2611595718	 0.119641
H	 0.1977647057	-0.323313981	 2.0772539172	 0.2416
109.6337	142.8615	232.4249	251.7271	282.8942	321.8925	336.0736	386.9716	441.6188	480.1711	485.2233	510.7464	540.1636	628.6135	713.7988	794.3358	816.2508	878.0174	923.4417	936.7011	939.3176	980.6608	1006.1442	1032.3419	1088.2891	1133.4931	1191.8177	1217.1431	1248.2983	1269.94	1293.6361	1327.2121	1397.9844	1415.7121	1426.06	1454.5517	1482.4127	1486.2172	1490.1802	1507.4735	1522.6733	1657.4554	1759.0351	3022.4542	3028.2112	3037.1126	3096.4393	3104.0903	3108.4342	3121.0357	3123.3476	3167.8526	3220.8486	3614.8732
CC1(C)CC(=O)C=CN1	CC1(C)CC(=O)C=CN1	
InChI=1S/C7H11NO/c1-7(2)5-6(9)3-4-8-7/h3-4,8H,5H2,1-2H3	InChI=1S/C7H11NO/c1-7(2)5-6(9)3-4-8-7/h3-4,8H,5H2,1-2H3
