15
gdb 26050	3.27618	1.14955	1.05399	1.576	73.65	-0.2272	-0.0007	0.2265	1167.3643	0.111682	-420.606546	-420.598236	-420.597292	-420.640097	30.615	
O	-0.2280723725	 1.3428819444	 0.0975475987	-0.404887
C	 0.0203345805	-0.0578174186	-0.0112865928	-0.186274
C	 0.7998713068	-0.375328087	-1.2160318776	 0.31492
C	 1.4470808777	-0.6127544281	-2.2001749924	-0.457674
C	 0.6565234255	-0.6175036241	 1.2243275596	 0.393512
C	 0.237330746	-1.4870005183	 2.1813070496	-0.282702
C	 1.3029383277	-1.5822722144	 3.1353465806	-0.168445
C	 2.2836874338	-0.7592723897	 2.6843124043	-0.016428
O	 1.9089178626	-0.1647406382	 1.5200505064	-0.187845
H	 0.6306408305	 1.7767723105	 0.1628858699	 0.291738
H	-0.9706766369	-0.5167272016	-0.0966737284	 0.13428
H	 2.0154405415	-0.8281732044	-3.071169818	 0.201623
H	-0.7129737281	-1.9969238848	 2.2062918867	 0.115596
H	 1.3287051995	-2.1808550625	 4.0321286998	 0.11594
H	 3.2613468255	-0.493261733	 3.0506462037	 0.136647
50.6985	99.3224	161.959	201.4294	274.1773	342.3799	406.1774	453.8207	580.9179	613.1808	638.0698	669.4994	714.0721	753.843	769.8722	814.7451	855.6772	900.1139	919.621	974.4248	1035.2522	1037.6986	1103.9183	1186.2526	1224.8234	1247.5541	1266.5706	1316.3279	1412.2277	1418.4009	1535.1462	1636.1225	2235.4462	3061.7034	3253.2181	3264.2911	3287.5972	3502.5378	3803.6103
OC(C#C)C1=CC=CO1	O[C@@H](C#C)c1ccco1	
InChI=1S/C7H6O2/c1-2-6(8)7-4-3-5-9-7/h1,3-6,8H	InChI=1S/C7H6O2/c1-2-6(8)7-4-3-5-9-7/h1,3-6,8H/t6-/m0/s1
