24
gdb 100313	1.85884	1.44004	1.21807	2.5993	84.8	-0.2346	0.0744	0.3089	1250.668	0.215564	-405.517437	-405.506643	-405.505699	-405.552914	39.944	
C	-0.0226114043	 1.5883019389	-0.0231446498	-0.399242
C	-0.0475440349	 0.0580227616	 0.0306657344	-0.208509
C	 0.7181041212	-0.5650420265	 1.2212706269	 0.333551
C	 0.6690254753	-2.0990768674	 1.1379752288	-0.428375
O	 2.0674505306	-0.0837696954	 1.2869585876	-0.287245
C	 2.9430273553	-0.4190342829	 0.2332624218	-0.247293
C	 0.0840653971	-0.1289074501	 2.5444734419	 0.006591
C	 0.8296715137	-0.2101189921	 3.8218931388	-0.250813
N	 0.5021934686	 1.1010889027	 3.2267672281	-0.335032
H	 1.0020155801	 1.9641278542	-0.0969559691	 0.119871
H	-0.5771314218	 1.950324763	-0.89425327	 0.108062
H	-0.4721937274	 2.0278522132	 0.8713018161	 0.143643
H	-1.0843780891	-0.2955453202	 0.0871213015	 0.098154
H	 0.3515867836	-0.3535925037	-0.9044409468	 0.090614
H	 0.9984905002	-2.4695561113	 0.1626053866	 0.112112
H	 1.2978071732	-2.5428143252	 1.9146329206	 0.123442
H	-0.3568035906	-2.4484552107	 1.2901969024	 0.119665
H	 3.1013127276	-1.5021476635	 0.1465010233	 0.111681
H	 2.6008327997	-0.0379458495	-0.7383882084	 0.11162
H	 3.9014747478	 0.0510539957	 0.468320121	 0.128641
H	-0.9914104376	-0.2965013942	 2.5672874786	 0.083419
H	 0.3055180009	-0.4425990205	 4.7447143243	 0.108851
H	 1.8628827722	-0.5397448896	 3.7771537088	 0.116009
H	 1.3380787387	 1.4421619336	 2.7562795925	 0.240582
70.6843	104.3193	114.058	177.6173	195.8616	213.9199	238.2756	254.3068	267.3931	333.6016	356.4986	399.0254	429.9838	550.2717	566.4883	682.4019	772.8307	836.6412	864.514	891.7396	928.639	979.4974	998.565	1012.5495	1040.0644	1053.4712	1107.5331	1120.1063	1145.5035	1159.8191	1178.324	1187.3072	1194.0243	1233.8367	1245.705	1286.2548	1314.7867	1325.9814	1367.9668	1399.0865	1411.5609	1418.6418	1471.2114	1477.2188	1488.7153	1496.4427	1498.9482	1499.727	1507.108	1509.4128	1516.1377	2998.8158	3026.6408	3040.5242	3044.3996	3051.8074	3058.5376	3106.7044	3110.0322	3110.633	3112.7065	3118.0381	3121.4419	3122.9693	3204.0903	3499.9007
CCC(C)(OC)C1CN1	CC[C@@](C)(OC)[C@H]1CN1	
InChI=1S/C7H15NO/c1-4-7(2,9-3)6-5-8-6/h6,8H,4-5H2,1-3H3	InChI=1S/C7H15NO/c1-4-7(2,9-3)6-5-8-6/h6,8H,4-5H2,1-3H3/t6-,7-/m1/s1
