16
gdb 31325	2.92628	1.26113	0.88784	2.1308	79.88	-0.2018	-0.0367	0.1651	1253.3548	0.125815	-434.121891	-434.113316	-434.112372	-434.155551	30.504	
C	-0.0870877911	 1.5078137433	 0.0744765171	-0.321715
N	-0.0300779328	 0.0717417825	-0.1414263963	-0.384801
C	-1.1553232866	-0.695430052	-0.0580707148	 0.311
C	-1.2578502038	-2.0948853816	 0.0005162806	 0.141753
N	-2.6323335859	-2.3290999866	 0.0220645913	-0.29415
C	-3.2485826996	-1.140244425	-0.0192706507	 0.040024
N	-2.3975492102	-0.124724952	-0.0654554292	-0.33632
C	-0.327210447	-3.176490968	 0.038286333	 0.051202
O	-0.6493749323	-4.3555430459	 0.0923314869	-0.339709
H	 0.8770931636	 1.9411747707	-0.2006735003	 0.123107
H	-0.8627536264	 1.9397594658	-0.5597391849	 0.160351
H	-0.3144709817	 1.776629938	 1.1155118623	 0.123152
H	 0.8332426631	-0.3827527438	 0.1062658635	 0.248555
H	-3.0278019267	-3.2547399614	 0.0651678187	 0.284052
H	-4.3239795992	-1.0387667469	-0.0121127459	 0.144423
H	 0.7438847567	-2.8762328071	 0.0148176787	 0.049074
83.4358	120.8638	146.4696	169.3206	231.2004	245.2725	366.5615	373.7009	453.7332	556.0893	586.0725	667.5618	718.2361	756.6711	828.0406	859.3771	954.2879	1012.0901	1063.7414	1111.0267	1126.3889	1153.3004	1201.0406	1277.1177	1331.5455	1381.0072	1431.8003	1448.0518	1466.819	1485.0386	1505.5972	1516.5403	1550.4326	1639.2093	1733.9715	2872.8997	3007.4996	3098.1199	3144.6165	3250.7559	3642.6817	3658.4063
CNC1=C(NC=N1)C=O	CNc1c([nH]cn1)C=O	
InChI=1S/C5H7N3O/c1-6-5-4(2-9)7-3-8-5/h2-3,6H,1H3,(H,7,8)	InChI=1S/C5H7N3O/c1-6-5-4(2-9)7-3-8-5/h2-3,6H,1H3,(H,7,8)
