16
gdb 71475	4.41023	1.21818	1.10341	2.4527	76.74	-0.2382	0.0319	0.2701	1091.8015	0.123195	-400.642621	-400.635003	-400.634059	-400.674259	30.629	
O	 0.1626975195	 1.4145375781	-0.0962498078	-0.46624
C	 0.059229476	 0.042701434	-0.0502391139	 0.352592
C	 0.4187514722	-0.7649896236	-1.2983794361	-0.181611
N	-0.5052884274	-1.8568476144	-0.8423780196	-0.174669
C	-1.2392650664	-0.8950057537	 0.0124437744	-0.198781
C	-0.3425946413	-1.8875018897	 0.6742349307	 0.224868
C	 0.6675185189	-0.8109898468	 1.0903171432	-0.372119
C	-0.6505191921	-3.0902543889	 1.3668090285	 0.133259
C	-0.8896862975	-4.090676717	 1.9899346765	-0.343338
H	 0.0470643723	 1.7708263443	 0.7910766967	 0.288689
H	 0.0072093232	-0.3334406755	-2.2138749476	 0.122386
H	 1.4642501388	-1.0556216357	-1.4479887284	 0.104255
H	-2.3140121455	-0.7664851006	 0.0161729509	 0.110566
H	 1.7370153664	-1.0398463242	 1.0408759909	 0.108917
H	 0.4099507403	-0.4212015238	 2.079893324	 0.107827
H	-1.1065212474	-4.9804007624	 2.5271657577	 0.183399
134.1239	146.5755	295.6893	320.7256	353.2429	418.2438	462.423	511.0648	512.3313	550.8732	601.23	638.9616	659.9106	712.5198	746.927	852.6811	900.5259	943.8886	964.1327	967.1914	995.6959	1073.3972	1097.5562	1111.4841	1119.197	1145.0733	1183.6992	1210.7527	1272.6113	1333.4986	1369.8147	1402.5692	1489.0738	1515.2967	2242.4503	3040.9267	3046.9721	3101.4707	3115.9634	3202.7296	3503.6421	3809.3065
OC12CN3C1C3(C2)C#C	O[C@]12CN3[C@H]1[C@@]3(C2)C#C	
InChI=1S/C7H7NO/c1-2-6-3-7(9)4-8(6)5(6)7/h1,5,9H,3-4H2	InChI=1S/C7H7NO/c1-2-6-3-7(9)4-8(6)5(6)7/h1,5,9H,3-4H2/t5-,6-,7+,8?/m0/s1
