18
gdb 55160	2.9195	1.41042	1.25689	4.3823	70.6	-0.2427	0.034	0.2767	1057.4064	0.148644	-439.114463	-439.106188	-439.105244	-439.147838	31.265	
N	 0.084814208	 1.0391057542	-0.6533675106	-0.524155
C	 0.032708281	-0.2556081417	-0.2163929686	 0.422796
O	 1.0315000816	-0.9423301807	-0.1399223431	-0.359639
C	-1.3603130403	-0.7427381519	 0.2225378923	-0.135857
C	-2.5126637521	-0.4239096121	-0.7804974271	-0.271634
C	-2.6878104777	-1.7072572828	-1.5661649396	 0.058796
O	-1.4494238045	-2.2309202511	-2.0601155897	-0.248665
C	-2.0079259991	-2.8022835282	-0.8667266668	 0.057918
C	-1.3743339876	-2.2806001815	 0.4049668447	-0.251427
H	 0.9941211831	 1.4294446393	-0.8388149596	 0.260509
H	-0.6987075123	 1.6638232192	-0.5877824584	 0.254943
H	-1.5525583338	-0.2402018208	 1.177430641	 0.099485
H	-3.4434135179	-0.1959382177	-0.2476827893	 0.104141
H	-2.2925201337	 0.4241830463	-1.4352135311	 0.10738
H	-3.5521992135	-1.8513276164	-2.2098525817	 0.092241
H	-2.3204219559	-3.8399490411	-0.9510933049	 0.093041
H	-0.3590223942	-2.6518386313	 0.5575040685	 0.146635
H	-1.9905114912	-2.5742123417	 1.2622847338	 0.093492
56.4033	86.5994	156.7326	242.0498	323.2349	341.0276	397.3183	441.623	521.5882	588.2438	660.8706	678.359	765.2428	786.2117	830.4124	863.9405	913.9239	928.0273	958.0398	962.869	1035.9766	1059.265	1083.9804	1095.5742	1112.003	1206.2303	1213.0611	1217.8296	1264.8895	1290.0553	1319.4359	1330.6491	1346.6068	1371.6357	1443.9962	1473.1032	1483.5582	1615.0555	1795.4115	3034.8993	3043.4674	3054.9518	3090.8689	3121.4662	3140.4483	3154.4066	3605.3908	3740.2666
NC(=O)C1CC2OC2C1	NC(=O)[C@H]1C[C@H]2O[C@H]2C1	
InChI=1S/C6H9NO2/c7-6(8)3-1-4-5(2-3)9-4/h3-5H,1-2H2,(H2,7,8)	InChI=1S/C6H9NO2/c7-6(8)3-1-4-5(2-3)9-4/h3-5H,1-2H2,(H2,7,8)/t3-,4+,5-
