19
gdb 62133	3.63197	0.77009	0.66318	2.081	77.14	-0.247	-0.0305	0.2165	1627.2176	0.157199	-419.221119	-419.210961	-419.210017	-419.257364	35.484	
C	 0.289823374	 1.2520486729	 0.5557690728	-0.405975
C	 0.0702309895	-0.2103691304	 0.1613603114	 0.059517
C	 0.7493529991	-0.4853723086	-1.1994831193	-0.344755
C	 0.5325084326	-1.8536041103	-1.6646790186	 0.25692
N	 0.3490756118	-2.9470883554	-1.9919060285	-0.311369
N	 0.6321299729	-1.1286083048	 1.1530033345	-0.30998
C	-0.0355519645	-1.1360242612	 2.4477300904	-0.252931
C	 0.5732116432	-0.1346350908	 3.421216022	 0.172861
O	-0.0401906105	 0.4277415701	 4.2896460471	-0.240452
H	 1.3566391558	 1.4598589376	 0.6864702558	 0.128528
H	-0.1066316226	 1.9197148966	-0.2153515979	 0.121697
H	-0.2230975528	 1.4956947609	 1.489696124	 0.14547
H	-1.0150255694	-0.3738012949	 0.0312303307	 0.084574
H	 0.3638644656	 0.2093358679	-1.9522161754	 0.154466
H	 1.8274349557	-0.3119619476	-1.1077853092	 0.160535
H	 0.6338492895	-2.0669990539	 0.7698208399	 0.242393
H	-1.1242113265	-0.9721646186	 2.4075989366	 0.117346
H	 0.1212680454	-2.1217204622	 2.9070117388	 0.137281
H	 1.6656374811	 0.0184797927	 3.2682279149	 0.083872
49.4923	65.4546	87.096	133.6666	151.8968	244.8722	263.3892	320.1348	339.9016	394.7881	407.2812	464.8559	539.5413	598.8065	715.9227	762.8397	844.2061	893.736	925.8682	974.5306	1043.6767	1067.3882	1094.4427	1120.7202	1145.4335	1186.3485	1234.5945	1282.1896	1311.897	1327.2622	1372.5922	1383.8517	1404.2521	1412.8569	1453.27	1456.0098	1491.7161	1504.8003	1525.7054	1836.7	2357.7973	2883.4868	2934.4763	2982.5216	3041.113	3045.5651	3052.4592	3098.3761	3113.7977	3122.5857	3536.3269
CC(CC#N)NCC=O	C[C@@H](CC#N)NCC=O	
InChI=1S/C6H10N2O/c1-6(2-3-7)8-4-5-9/h5-6,8H,2,4H2,1H3	InChI=1S/C6H10N2O/c1-6(2-3-7)8-4-5-9/h5-6,8H,2,4H2,1H3/t6-/m0/s1
