20
gdb 63073	3.06752	1.40446	1.31544	1.7535	78.34	-0.2315	0.0706	0.302	1064.3626	0.171806	-403.109919	-403.101862	-403.100917	-403.141839	32.874	
C	-0.2559882087	 1.6092349964	-0.0178593408	-0.466408
C	 0.003482223	 0.1237846477	 0.0485874766	 0.391432
O	-1.1078243879	-0.6322875645	-0.3974149025	-0.470755
C	 1.3216512794	-0.5582132111	-0.2594982694	-0.122461
C	 2.683013687	 0.1439655692	-0.1321347721	-0.252703
C	 2.9088680446	 0.3908654193	 1.3608960098	-0.032424
N	 2.0077311038	 1.3975025193	 1.9549238497	-0.335565
C	 1.6962262985	-0.0446084468	 2.1065125135	-0.057951
C	 0.7049119637	-0.6490707499	 1.140624268	-0.07285
H	 0.5922419356	 2.1928113538	 0.3312286951	 0.155037
H	-0.4859607696	 1.8896487353	-1.0553319657	 0.08838
H	-1.1261993168	 1.8627153288	 0.5962627191	 0.1182
H	-1.2834943138	-0.3712851191	-1.3087676045	 0.274397
H	 1.25276233	-1.4048750864	-0.9345956417	 0.082486
H	 3.4650395537	-0.521637994	-0.5121593266	 0.102903
H	 2.7460079982	 1.0755009985	-0.7053650638	 0.109216
H	 3.9099902831	 0.2916529067	 1.7693611086	 0.084434
H	 2.4123554937	 1.7413602171	 2.8226418665	 0.22864
H	 1.7591239275	-0.4764458968	 3.099684456	 0.083856
H	 0.199639225	-1.5525263335	 1.4618518742	 0.092133
152.4888	181.8502	245.3862	259.9507	289.9168	351.6244	387.1766	409.92	448.1403	562.6762	665.3367	700.9332	713.1585	779.4087	822.2367	855.8001	876.0012	894.317	929.1055	956.3656	980.4407	994.2435	1023.1691	1063.4607	1074.9115	1095.0249	1100.526	1126.8086	1167.2318	1181.8953	1208.4463	1234.701	1282.728	1293.7082	1306.9063	1340.1993	1371.0527	1410.7052	1423.3802	1443.0574	1475.6869	1486.9726	1510.6944	3012.1985	3042.2198	3080.0597	3084.1298	3151.4686	3159.9187	3164.742	3178.3361	3182.6859	3492.1029	3788.3822
CC1(O)C2CC3NC3C12	C[C@@]1(O)[C@H]2C[C@H]3N[C@H]3[C@@H]12	
InChI=1S/C7H11NO/c1-7(9)3-2-4-6(8-4)5(3)7/h3-6,8-9H,2H2,1H3	InChI=1S/C7H11NO/c1-7(9)3-2-4-6(8-4)5(3)7/h3-6,8-9H,2H2,1H3/t3-,4+,5-,6+,7+/m0/s1
