19
gdb 38102	2.59913	1.99477	1.47759	1.8932	78.99	-0.2406	-0.003	0.2376	942.9669	0.162671	-385.864829	-385.858098	-385.857154	-385.895534	28.342	
C	-0.0316015211	 1.5383781144	-0.0223024651	-0.229102
C	 1.534036593	 1.5086721372	 0.0210596691	-0.057623
C	 1.4151586011	 0.0601162389	 0.6000560108	-0.231083
C	-0.02529696	-0.0100318834	 0.0109413452	-0.04748
C	-0.0311611236	-0.6692245914	-1.3564641083	 0.046779
O	-0.5676257898	 0.0439217792	-2.4687663222	-0.259247
C	 0.8529392814	-0.2634128641	-2.4638080106	 0.012193
C	 1.8371862142	 0.8491109718	-2.4112267332	-0.070164
C	 2.1460402372	 1.6005692454	-1.3495703391	-0.070854
H	-0.4495038664	 1.9488113962	 0.9004481038	 0.096549
H	-0.4960075256	 2.011891606	-0.8869196349	 0.123089
H	 2.0036450254	 2.237563733	 0.6845017681	 0.064473
H	 2.1399247401	-0.6801616513	 0.2531163231	 0.100385
H	 1.4084698422	 0.0736746675	 1.6931116902	 0.100004
H	-0.7899912841	-0.4768429895	 0.6374090801	 0.065695
H	-0.3141812459	-1.724307866	-1.3345825367	 0.085278
H	 1.1004502953	-1.0333906219	-3.1957081762	 0.089785
H	 2.3539985833	 1.0414247275	-3.3485547929	 0.089459
H	 2.8886624632	 2.3832180204	-1.488751681	 0.091864
188.1585	219.1286	312.5104	339.3956	388.8049	481.2519	535.5174	595.5019	728.1171	744.8107	788.5864	794.9476	805.9591	840.7062	860.227	891.2827	935.8296	972.6575	985.6364	999.4737	1038.2349	1060.3825	1094.7059	1098.5095	1126.6001	1158.9456	1167.7614	1181.5234	1243.8523	1258.8628	1265.8434	1272.3318	1311.8113	1363.527	1369.4455	1397.3405	1430.1662	1469.2625	1471.9342	1498.9542	1709.9626	3054.3882	3059.6982	3068.3432	3078.6777	3083.5244	3098.4507	3115.0623	3139.9042	3144.5024	3163.1358
C1C2CC1C1OC1C=C2	C1[C@H]2C[C@@H]1[C@H]1O[C@H]1C=C2	
InChI=1S/C8H10O/c1-2-7-8(9-7)6-3-5(1)4-6/h1-2,5-8H,3-4H2	InChI=1S/C8H10O/c1-2-7-8(9-7)6-3-5(1)4-6/h1-2,5-8H,3-4H2/t5-,6+,7-,8+/m0/s1
