15
gdb 81935	2.54191	1.74605	1.27965	1.1763	60.64	-0.2484	-0.0516	0.1968	965.1489	0.111514	-494.885467	-494.877326	-494.876381	-494.91856	29.96	
O	-0.1334439889	 1.4714871139	-0.1079998648	-0.431711
C	-0.0250034984	 0.0787705106	 0.010443776	 0.109035
C	-1.3710214146	-0.6427001831	 0.0014176178	 0.009312
O	-1.9718373221	-0.6549830349	-1.2883891927	-0.241346
C	-1.3124223492	-1.8559382487	-0.8372911482	-0.09047
C	 0.0668266613	-1.9294322371	-1.4322574024	 0.388843
O	 0.5551640313	-2.8599407403	-2.0206797597	-0.318089
C	 0.7834155764	-0.5880136732	-1.142151359	-0.035393
O	 0.734564014	 0.2707802299	-2.2703317493	-0.434521
H	-0.230720699	 1.6555160039	-1.0516471501	 0.304434
H	 0.4724882157	-0.1260155218	 0.9657548506	 0.098915
H	-2.0545671388	-0.5558619684	 0.8419804071	 0.115129
H	-1.9305795727	-2.7386360201	-0.7089918778	 0.122402
H	 1.8208266765	-0.7930682463	-0.8490297128	 0.099131
H	 1.0968806185	-0.2001101142	-3.0283074548	 0.304328
48.3578	155.4519	202.6985	232.5361	280.7301	288.3458	380.4296	436.5297	506.7477	523.2735	586.7261	717.7117	770.7995	829.5756	865.4915	876.7587	928.4249	965.0475	1049.204	1084.4465	1111.8191	1129.1274	1185.0139	1200.282	1238.2739	1281.8544	1306.3403	1320.2806	1350.938	1391.9993	1408.1425	1447.7051	1844.6266	3023.2445	3049.1426	3156.2914	3179.5515	3774.7015	3820.2873
OC1C2OC2C(=O)C1O	O[C@H]1[C@H]2O[C@H]2C(=O)[C@H]1O	
InChI=1S/C5H6O4/c6-1-2(7)4-5(9-4)3(1)8/h1-2,4-7H	InChI=1S/C5H6O4/c6-1-2(7)4-5(9-4)3(1)8/h1-2,4-7H/t1-,2+,4+,5-/m0/s1
