15
gdb 124932	3.30193	1.28243	0.9344	5.6634	75.03	-0.2701	-0.055	0.2151	1192.4536	0.111637	-416.831308	-416.822461	-416.821516	-416.866023	30.374	
C	 0.0838106789	 1.5068962672	-0.0106056504	-0.497588
C	-0.0634910477	 0.0285888582	-0.058342173	 0.365043
C	-1.1300601922	-0.8175400894	 0.0209896894	-0.018167
C	-2.5848001558	-0.5216664343	 0.1916965163	-0.515426
C	-0.5136021787	-2.1024121415	-0.1013099346	 0.235057
N	 0.795975853	-2.0292190502	-0.2403594597	-0.197248
O	 1.0759797292	-0.6843111294	-0.2128254961	-0.200052
C	-1.17228338	-3.3655548215	-0.0842310596	 0.251213
N	-1.7617285223	-4.3603156706	-0.0630937686	-0.329839
H	 0.7273034432	 1.8083599058	 0.8220964755	 0.15979
H	 0.5367104424	 1.8840132583	-0.9331117778	 0.159791
H	-0.8906926921	 1.9814436595	 0.11566809	 0.14695
H	-3.1707170628	-0.9086955945	-0.6483890266	 0.153158
H	-2.9807454068	-0.9844239037	 1.1015940946	 0.15316
H	-2.7640846682	 0.5539273161	 0.2577056906	 0.13416
38.8813	83.7148	117.6945	134.5451	257.0014	262.8336	292.9693	378.4895	516.6188	521.1911	578.7635	644.5653	693.4373	739.6075	741.3152	961.2965	973.2287	1027.5032	1058.7447	1072.8229	1129.6034	1214.2553	1277.7064	1408.8754	1427.7218	1446.1311	1471.3104	1480.5144	1481.1094	1487.3485	1495.6113	1668.9573	2361.8463	3041.7758	3046.4124	3096.6792	3104.2395	3125.0828	3142.5786
CC1=C(C)C(=NO1)C#N	Cc1c(C)c(no1)C#N	
InChI=1S/C6H6N2O/c1-4-5(2)9-8-6(4)3-7/h1-2H3	InChI=1S/C6H6N2O/c1-4-5(2)9-8-6(4)3-7/h1-2H3
