18
gdb 79436	2.50826	2.04537	1.47038	2.1853	74.75	-0.2212	-0.0151	0.2062	939.5754	0.149435	-401.910519	-401.903448	-401.902504	-401.941774	28.469	
C	-0.1452541873	 1.6388968219	 0.0816873578	-0.437296
C	 0.0309512632	 0.131809964	 0.0024132129	 0.020081
C	 0.8177681553	-0.5568752048	-1.1262195489	-0.018104
C	 2.3689550125	-0.2600476146	-1.0041526061	-0.185032
C	 2.5002277396	-1.7821882452	-0.7576197515	-0.179382
N	 1.0972891141	-1.7334739861	-0.1953203791	-0.152725
C	 1.0900409323	-0.6182730168	 0.8681844961	-0.143183
C	 2.3485726378	 0.1557146165	 0.4676249576	 0.456357
O	 3.0872605551	 0.8530450946	 1.1051255209	-0.346265
H	 0.8021009971	 2.1755732871	-0.0264126499	 0.135645
H	-0.8213103331	 1.9862920415	-0.7064466366	 0.122206
H	-0.5801311155	 1.9292836705	 1.0436073348	 0.129784
H	-0.9278808403	-0.3862342762	 0.1016884359	 0.098891
H	 0.4118111166	-0.7636094936	-2.1179647513	 0.084474
H	 2.9732416856	 0.3172816076	-1.7009895754	 0.085995
H	 2.4887555548	-2.3881090921	-1.667165246	 0.118692
H	 3.2846515751	-2.1391534297	-0.0822423592	 0.118474
H	 0.936957177	-0.8911275744	 1.9099939277	 0.091388
146.1569	186.1425	209.3321	273.2791	420.6104	448.5403	507.0137	614.0063	662.7745	750.601	761.7005	787.8737	816.0838	843.0084	883.3771	912.0855	925.75	958.8728	1001.577	1038.5246	1050.3827	1072.9538	1126.6399	1137.8542	1154.8168	1160.0519	1183.8384	1198.1537	1207.2413	1229.4081	1272.761	1284.5581	1321.57	1377.4615	1419.9452	1495.8872	1498.511	1512.6845	1880.6443	3037.1046	3047.2691	3065.2922	3099.6756	3102.8581	3108.589	3111.7466	3140.4215	3148.9114
CC1C2C3CN2C1C3=O	C[C@H]1[C@H]2[C@@H]3CN2[C@H]1C3=O	
InChI=1S/C7H9NO/c1-3-5-4-2-8(5)6(3)7(4)9/h3-6H,2H2,1H3	InChI=1S/C7H9NO/c1-3-5-4-2-8(5)6(3)7(4)9/h3-6H,2H2,1H3/t3-,4-,5-,6+/m0/s1
