21
gdb 68541	2.08723	1.90154	1.59924	1.34	82.79	-0.2197	0.016	0.2357	1006.8226	0.181465	-387.06456	-387.055836	-387.054892	-387.096777	35.578	
C	-0.0426960776	 1.54072441	-0.0089943979	-0.519784
C	 0.0063527943	 0.0313171872	-0.0162700075	 0.271346
C	 0.380740213	-0.8062545549	-1.2954819986	-0.253859
C	-0.2925540196	-1.9569501569	-0.4788266174	-0.150984
C	 0.6398800524	-2.0122319726	 0.7281044392	-0.098068
C	 0.8343006584	-0.7229791148	 1.0289828671	-0.13805
C	-1.3227036646	-0.8440710875	 0.0102860786	 0.44263
C	-2.1283506211	-1.0385443241	 1.2879132832	-0.49101
O	-2.1851222787	-0.3801470595	-1.0157251365	-0.487131
H	 0.9400292168	 1.9681372995	-0.2371216379	 0.114677
H	-0.7548171353	 1.9042072405	-0.7552194425	 0.131347
H	-0.3524126438	 1.9271710566	 0.969085069	 0.110877
H	-0.1752000825	-0.5138337277	-2.1862501603	 0.110713
H	 1.4472071455	-0.9193915382	-1.5018370302	 0.083535
H	-0.6280506684	-2.8873846707	-0.9385225021	 0.05105
H	 0.9984351217	-2.9016239743	 1.2276874116	 0.096276
H	 1.395080014	-0.2728669168	 1.8371723034	 0.093939
H	-1.5165426822	-1.3686832745	 2.1265212608	 0.129634
H	-2.6272382378	-0.1023794072	 1.5593853059	 0.122664
H	-2.9084048506	-1.7947909618	 1.1253083661	 0.102871
H	-3.0147929439	-0.8628499223	-0.9500641439	 0.277328
189.211	195.1344	212.6292	239.935	246.0692	281.6203	323.7473	403.5804	437.8554	484.7243	545.2531	564.0199	632.5642	636.4214	722.9815	728.9231	827.4053	846.149	894.933	914.7868	928.9359	940.0863	953.0169	1013.7722	1055.4749	1080.9848	1094.7848	1115.7676	1150.2112	1165.671	1190.2509	1208.0666	1216.219	1251.5753	1279.9425	1333.8954	1378.3506	1399.666	1410.0647	1484.4928	1491.5158	1493.2053	1497.9318	1501.546	1618.6485	3018.8567	3027.6928	3072.8998	3084.4856	3087.1163	3108.7494	3111.3512	3148.1237	3152.038	3207.3907	3234.8755	3818.3386
CC12CC(C=C1)C2(C)O	C[C@@]12C[C@@H](C=C1)[C@]2(C)O	
InChI=1S/C8H12O/c1-7-4-3-6(5-7)8(7,2)9/h3-4,6,9H,5H2,1-2H3	InChI=1S/C8H12O/c1-7-4-3-6(5-7)8(7,2)9/h3-4,6,9H,5H2,1-2H3/t6-,7+,8+/m1/s1
