18
gdb 80281	2.42379	1.60879	1.33265	3.3895	72.85	-0.2436	0.029	0.2726	1042.6745	0.147095	-439.091314	-439.082716	-439.081772	-439.124436	32.476	
C	-0.1880408329	 1.4008536808	-0.0665554336	-0.471727
C	 0.0675765022	-0.0751312677	 0.0092459348	 0.352322
O	-0.9927373771	-0.8536822891	-0.5259554059	-0.273697
C	-1.1583362119	-2.0254994373	 0.1801614181	 0.40191
N	-2.0097863737	-2.9086747655	-0.1067804084	-0.536877
C	-0.1725730151	-2.0789443782	 1.3349486732	-0.30852
C	 0.6723898043	-0.8316517201	 1.1693249002	-0.172445
C	 1.4307777177	-0.7098228101	-0.1410737608	 0.042781
O	 1.5960140875	-1.8632505462	-0.9036686788	-0.418506
H	 0.6660214448	 1.9530167799	 0.3352907986	 0.125425
H	-0.3436215004	 1.7200459408	-1.1023725558	 0.131219
H	-1.0768296987	 1.6727560941	 0.5119319749	 0.131745
H	-2.5489173654	-2.6376543353	-0.9305126032	 0.220681
H	-0.7147834661	-2.0723418298	 2.2846854804	 0.133468
H	 0.399603112	-3.0075479585	 1.2816051481	 0.151855
H	 1.0503427393	-0.3177687837	 2.0449904201	 0.099194
H	 2.2828510043	-0.0298663516	-0.1457253464	 0.092989
H	 1.1951998591	-1.7178849124	-1.7675085354	 0.298184
89.3951	118.0516	203.1251	212.4253	227.3669	268.7234	303.2643	450.6994	510.0057	560.1297	562.2612	611.6698	700.7192	753.6054	822.6693	841.0574	888.358	894.9121	952.4566	964.1472	1028.0581	1058.4692	1079.7165	1087.8279	1131.0875	1156.8193	1196.0844	1225.3056	1251.0205	1301.6159	1320.4201	1328.3664	1349.7	1416.138	1452.842	1470.68	1479.7029	1502.091	1782.0909	3036.748	3071.3313	3101.1589	3102.5145	3116.8903	3119.2367	3183.1998	3476.5457	3806.4172
CC12OC(=N)CC1C2O	C[C@]12O[C]([NH])C[C@H]1[C@H]2O	
InChI=1S/C6H9NO2/c1-6-3(5(6)8)2-4(7)9-6/h3,5,7-8H,2H2,1H3	InChI=1S/C6H9NO2/c1-6-3(5(6)8)2-4(7)9-6/h3,5,7-8H,2H2,1H3/t3-,5+,6-/m0/s1
