13
gdb 66412	2.38102	1.56443	1.29812	3.6602	64.8	-0.2809	-0.0177	0.2632	989.3334	0.088069	-452.709931	-452.702088	-452.701143	-452.742452	28.726	
O	-0.0773164257	 1.4630859351	-0.0042723997	-0.43146
C	-0.005287047	 0.1049434268	-0.0574617495	 0.254371
C	-1.0912158369	-0.9258474133	-0.10860005	 0.029269
O	-0.3452498253	-1.7243389964	-1.0532240172	-0.257894
C	 0.6529294371	-0.7431230967	-1.1131188116	 0.39302
N	 1.6624916927	-0.6223781793	-1.8336066445	-0.550293
C	-0.3051916221	-0.8001301181	 1.1745558328	-0.295115
C	 0.5712677452	-1.8286027641	 1.6619278362	 0.314455
N	 1.2852030027	-2.6456536331	 2.0615581353	-0.329641
H	 0.8014912116	 1.8115036405	 0.1912816791	 0.315268
H	-2.1660440832	-0.8797175526	-0.2121437112	 0.152277
H	 1.7772321061	-1.4051765229	-2.4786406593	 0.248883
H	-0.8209171252	-0.2285549358	 1.9422914395	 0.15686
98.9076	136.0055	188.5705	210.1786	308.2765	343.2355	388.2084	476.4222	501.7872	634.8799	671.7856	715.7989	751.7728	836.3783	872.4527	915.6955	928.7345	932.5543	1006.4099	1018.706	1053.542	1149.1548	1205.5456	1269.5127	1323.606	1340.9368	1497.6417	1853.8908	2357.7857	3158.2433	3229.4769	3493.4694	3788.2709
OC12C(OC1=N)C2C#N	O[C@@]12[C@@H](O[C]1[NH])[C@H]2C#N	
InChI=1S/C5H4N2O2/c6-1-2-3-5(2,8)4(7)9-3/h2-3,7-8H	InChI=1S/C5H4N2O2/c6-1-2-3-5(2,8)4(7)9-3/h2-3,7-8H/t2-,3+,5+/m1/s1
