17
gdb 93386	3.25146	1.38468	1.08686	3.4492	68.65	-0.2366	0.0189	0.2555	1085.8281	0.138559	-455.154334	-455.146529	-455.145584	-455.186524	30.276	
O	-0.1577982649	 1.4643972515	 0.1821726134	-0.43021
C	-0.0074756279	 0.0614690267	 0.0367022476	 0.118265
C	 0.7957098579	-0.5345534887	 1.2063826	-0.201816
N	 0.7787440445	-1.9884966337	 1.1615613207	-0.337622
C	-0.3104390808	-2.7535674411	 0.8481903444	 0.455893
O	-0.3013562174	-3.9699083272	 0.8944851108	-0.386167
C	-1.5183544027	-1.9803551558	 0.3883539958	-0.159007
N	-1.9781727628	-0.889990889	 1.2816996209	-0.328134
C	-1.385421447	-0.5539390173	-0.0139317978	-0.037411
H	 0.7077909527	 1.8740002513	 0.084382492	 0.287346
H	 0.501760088	-0.1830282282	-0.9094471987	 0.079044
H	 1.8366307726	-0.2009285665	 1.1394813999	 0.097898
H	 0.3682894397	-0.1453365979	 2.136848031	 0.141187
H	 1.5609551405	-2.5037729234	 1.5357397905	 0.249093
H	-2.2600389009	-2.6067645739	-0.0949732735	 0.109754
H	-2.9911818505	-0.8220005851	 1.241060471	 0.243461
H	-2.0315662811	-0.1825046416	-0.8049787881	 0.098425
93.5109	199.1845	238.9255	269.7197	291.4106	350.7927	417.0312	438.1337	502.8963	548.1667	612.4382	695.9004	760.7533	781.2335	859.5939	911.3315	918.6239	923.8423	1022.06	1045.2561	1089.1657	1105.5851	1128.024	1163.9279	1185.5756	1250.253	1252.9287	1266.6209	1311.1118	1344.4156	1377.7378	1405.4169	1431.5437	1461.6649	1475.9419	1513.16	1794.6427	2975.533	3038.1373	3081.9866	3147.8546	3180.1619	3516.9892	3623.7721	3817.5044
OC1CNC(=O)C2NC12	O[C@H]1CNC(=O)[C@H]2N[C@@H]12	
InChI=1S/C5H8N2O2/c8-2-1-6-5(9)4-3(2)7-4/h2-4,7-8H,1H2,(H,6,9)	InChI=1S/C5H8N2O2/c8-2-1-6-5(9)4-3(2)7-4/h2-4,7-8H,1H2,(H,6,9)/t2-,3-,4-/m0/s1
