15
gdb 46154	4.71342	1.01972	0.86665	0.5102	66.29	-0.2546	-0.0118	0.2427	1236.7127	0.114148	-453.974878	-453.966947	-453.966003	-454.007926	28.66	
O	 0.0324728522	 0.0857092735	 0.6004626435	-0.308427
C	-0.0173695648	 1.1535778438	 0.0602921488	 0.401309
C	-1.3315452049	 1.9085030327	-0.1449458431	-0.316911
N	-1.3225649731	 3.0540128346	-1.0516928349	-0.293552
C	-0.0913946033	 3.82127686	-0.8775380831	-0.146199
C	 1.1517374807	 2.9504083469	-1.1162657715	-0.066536
O	 1.1378304406	 1.7677243777	-0.3103206218	-0.22832
C	-0.0658513503	 4.9822211984	-1.7724331947	 0.27672
N	-0.0136346657	 5.8785087556	-2.4986141128	-0.299823
H	-2.0807071215	 1.1846889883	-0.4704914277	 0.158259
H	-1.6409798274	 2.2431573545	 0.8548988979	 0.157725
H	-1.3918060705	 2.7439749654	-2.0165700648	 0.239778
H	-0.0730720633	 4.1895885305	 0.1573623652	 0.147691
H	 1.1999598834	 2.6625631392	-2.173824676	 0.131252
H	 2.0727626081	 3.481111669	-0.8611943551	 0.147034
68.6833	144.3824	151.2687	165.1086	325.3084	389.0273	437.3043	475.8409	529.6136	549.029	586.0577	699.0876	760.2367	811.0914	894.9563	966.7362	1031.3968	1051.9604	1101.0854	1109.0082	1156.3616	1210.8818	1242.2569	1280.2982	1322.3263	1350.7725	1364.0869	1424.5321	1453.847	1489.3644	1508.4501	1856.7399	2369.2326	3023.9831	3026.0312	3037.8904	3103.1042	3124.4285	3513.6232
O=C1CNC(CO1)C#N	O=C1CN[C@@H](CO1)C#N	
InChI=1S/C5H6N2O2/c6-1-4-3-9-5(8)2-7-4/h4,7H,2-3H2	InChI=1S/C5H6N2O2/c6-1-4-3-9-5(8)2-7-4/h4,7H,2-3H2/t4-/m1/s1
