23
gdb 118428	2.25866	0.94333	0.78136	2.3066	82.7	-0.2362	-0.0057	0.2305	1604.5098	0.202418	-425.452372	-425.440821	-425.439877	-425.489897	40.399	
C	 0.0353669876	 1.5509303964	-0.101323507	-0.380344
C	 0.0494568946	 0.0209221396	-0.0540833437	-0.179592
C	 0.7005582129	-0.5276626334	 1.2211312848	-0.175722
C	 0.7365446212	-2.0622873208	 1.2840485427	-0.088789
C	 1.5925470819	-2.5403553856	 2.4633216902	-0.088796
O	 1.6507474585	-3.9611981472	 2.4243524034	-0.42883
C	-0.6776075321	-2.6440205974	 1.4589655106	 0.420051
C	-1.0244031029	-3.8629727679	 0.6349638024	-0.486438
O	-1.4509393521	-2.1494972502	 2.2486999631	-0.331024
H	 1.0517920309	 1.9586175921	-0.0602577051	 0.111912
H	-0.4329930039	 1.9173910442	-1.02006331	 0.111618
H	-0.5217193126	 1.9661619472	 0.745505913	 0.119801
H	-0.9794769815	-0.3530714802	-0.1254273221	 0.107144
H	 0.582173194	-0.3687701717	-0.931932071	 0.091167
H	 1.7254581983	-0.1416195781	 1.2982487346	 0.085486
H	 0.1515911839	-0.1623965291	 2.0964083332	 0.119175
H	 1.1847226007	-2.4677277231	 0.3685314152	 0.078679
H	 2.5988223586	-2.1011897452	 2.3845222317	 0.08923
H	 1.1361523473	-2.1840610566	 3.3983663134	 0.10838
H	 2.0638144673	-4.2712299649	 3.2351743862	 0.291071
H	-0.293028147	-4.648929265	 0.8505200501	 0.160836
H	-2.0341381273	-4.2052339283	 0.8659772902	 0.132291
H	-0.9437967486	-3.6324015947	-0.4338822459	 0.132693
52.4305	77.5745	81.4596	103.6845	149.4545	187.0301	197.5827	240.2256	248.8199	274.5517	298.7697	353.1499	390.9703	494.1711	600.4549	624.5369	718.3744	763.0854	882.4058	900.1394	954.7513	997.4572	999.3618	1022.0085	1051.7941	1069.3221	1113.38	1128.6437	1142.9549	1184.6708	1231.4854	1254.3781	1268.998	1303.3416	1332.5341	1346.2828	1369.8034	1388.8695	1394.8146	1412.9755	1444.4881	1466.265	1476.1534	1478.6435	1491.7256	1499.4056	1508.6208	1520.7053	1806.5266	2977.324	3014.1606	3016.682	3021.086	3029.9593	3033.9867	3040.5194	3049.5211	3078.4055	3097.5005	3102.5921	3103.2005	3151.0727	3836.1266
CCCC(CO)C(C)=O	CCC[C@@H](CO)C(=O)C	
InChI=1S/C7H14O2/c1-3-4-7(5-8)6(2)9/h7-8H,3-5H2,1-2H3	InChI=1S/C7H14O2/c1-3-4-7(5-8)6(2)9/h7-8H,3-5H2,1-2H3/t7-/m0/s1
