19
gdb 84831	2.72248	1.55548	1.13031	2.4514	76.22	-0.2515	0.0148	0.2663	1111.727	0.159325	-423.028259	-423.019934	-423.018989	-423.060825	32.61	
C	-0.019221923	 1.4764125393	 0.0313813208	-0.469377
C	-0.0174865397	-0.0338502079	 0.0954642749	 0.40319
C	-1.0215396778	-0.734699999	-0.7998167858	-0.338565
C	-1.2165495371	-2.1924408406	-0.4928652534	-0.051249
C	-0.7404603433	-2.8029890509	 0.5890806392	-0.09661
C	 0.084825845	-2.1356681767	 1.6554277793	 0.067455
O	 1.2487672029	-2.9054271015	 1.9579831435	-0.436899
C	 0.4885366637	-0.7210139024	 1.2960043365	-0.052909
O	 1.2937772982	-0.627180158	 0.1091912053	-0.304344
H	 0.7770304285	 1.8878239455	 0.6562307307	 0.130987
H	 0.1428202686	 1.8177383738	-0.9971416426	 0.126621
H	-0.9780369954	 1.8813189254	 0.3721255855	 0.12219
H	-1.9852388341	-0.2097200227	-0.7282442766	 0.116561
H	-0.7029738825	-0.6122817948	-1.8446809616	 0.119775
H	-1.797254784	-2.758969361	-1.2170373097	 0.092789
H	-0.9163481288	-3.8634210268	 0.7486921439	 0.097673
H	-0.480751669	-2.1081511368	 2.5966308124	 0.092872
H	 1.8095958579	-2.849362002	 1.1739217708	 0.289781
H	 0.8585023601	-0.1215666928	 2.1283943569	 0.090057
96.4062	159.9006	200.6344	260.4451	295.6603	352.1705	379.7225	428.8953	452.0248	484.873	509.673	633.8094	693.079	750.8072	804.8322	877.6395	891.1004	913.6468	942.2005	990.7163	1007.7744	1022.9983	1048.8901	1082.2091	1109.809	1129.5206	1192.0123	1224.1676	1249.3079	1262.7269	1321.608	1360.9631	1383.5375	1408.0013	1414.6078	1427.3393	1457.1064	1469.5247	1488.2889	1503.1777	1731.9086	3004.3265	3020.8025	3029.0823	3034.5583	3097.2499	3106.8737	3125.2802	3148.7728	3174.5659	3780.2367
CC12CC=CC(O)C1O2	C[C@]12CC=C[C@@H](O)[C@H]1O2	
InChI=1S/C7H10O2/c1-7-4-2-3-5(8)6(7)9-7/h2-3,5-6,8H,4H2,1H3	InChI=1S/C7H10O2/c1-7-4-2-3-5(8)6(7)9-7/h2-3,5-6,8H,4H2,1H3/t5-,6-,7+/m1/s1
