23
gdb 87988	2.55832	1.23726	1.19795	1.7455	85.56	-0.2365	0.0813	0.3178	1239.9689	0.203238	-388.273793	-388.263759	-388.262815	-388.308222	38.139	
C	-0.0989883071	 1.4494551769	-0.131527031	-0.410986
C	 0.1402046884	-0.0426159958	-0.0584765497	-0.059626
C	 1.5460700457	-0.6047405413	-0.0868563829	-0.360529
C	 0.7302775817	-0.670193188	 1.1694268223	 0.254361
C	 1.0190702388	-0.0305130618	 2.520490153	-0.14647
O	 0.5572964814	-1.2101284772	 3.207989981	-0.332364
C	 0.2566835251	-1.9069017128	 1.9578028688	 0.355872
C	-1.2306783206	-2.2245040657	 1.8733444571	-0.425415
C	 1.12230587	-3.1533553623	 1.8246726147	-0.423768
H	 0.6847282086	 2.0038171312	 0.3957891192	 0.115928
H	-0.1063905043	 1.7974920423	-1.1701406727	 0.119302
H	-1.0590552562	 1.7248680903	 0.3193092737	 0.119392
H	-0.6077611193	-0.6422826135	-0.5733493374	 0.083682
H	 1.7260859425	-1.5235739606	-0.6362404651	 0.110675
H	 2.3742274322	 0.098365454	-0.114173373	 0.108119
H	 2.0743847825	 0.1850883767	 2.7362067563	 0.09631
H	 0.4200368024	 0.8544653436	 2.7754818914	 0.097048
H	-1.8277360731	-1.3156315337	 1.9847918586	 0.11757
H	-1.4810865685	-2.6896667547	 0.9135539578	 0.110233
H	-1.5113676606	-2.9206521166	 2.6704637949	 0.121336
H	 0.8818028181	-3.864195624	 2.6218590521	 0.120894
H	 0.9515098007	-3.6506338897	 0.8634868546	 0.109447
H	 2.1825741715	-2.8980888174	 1.8986940266	 0.118989
66.4199	131.4334	176.4991	196.5683	201.4098	235.5388	253.6559	279.1733	348.1656	376.3665	411.8158	469.126	510.9451	561.5855	667.2941	795.1749	858.0715	868.0066	892.4409	923.7738	929.4976	971.2879	990.5228	1013.142	1020.3241	1040.8166	1077.9941	1111.1345	1129.2558	1158.0909	1166.3835	1182.7227	1196.9205	1236.5608	1285.983	1311.6578	1363.6074	1396.2173	1409.9235	1413.1707	1434.7436	1472.7812	1478.1298	1490.3893	1492.042	1494.387	1500.411	1509.6777	1526.8256	2994.3554	3026.3468	3030.2282	3030.6991	3036.3217	3089.0327	3093.4064	3097.9905	3105.3956	3114.9733	3117.3331	3119.6575	3128.0459	3199.1675
CC1CC11COC1(C)C	C[C@H]1C[C@]21COC2(C)C	
InChI=1S/C8H14O/c1-6-4-8(6)5-9-7(8,2)3/h6H,4-5H2,1-3H3	InChI=1S/C8H14O/c1-6-4-8(6)5-9-7(8,2)3/h6H,4-5H2,1-3H3/t6-,8+/m0/s1
