21
gdb 84984	2.43535	1.31047	1.07469	2.0789	78.21	-0.2353	-0.0164	0.2188	1222.5033	0.180885	-424.266901	-424.257274	-424.25633	-424.300977	36.687	
C	-0.1009229926	 1.5588323652	-0.0131212149	-0.430432
C	 0.0187615834	 0.0307109001	-0.0357618879	 0.173851
C	-1.3845890916	-0.6082704944	 0.0628412526	-0.421701
C	 0.8114112545	-0.5184366248	-1.2406289271	-0.258339
C	 1.5068110721	-1.7956280868	-0.7424995328	 0.10733
O	 2.5972724708	-2.0886620768	-1.5987889751	-0.430149
C	 1.8997324178	-1.4540323626	 0.7039604469	-0.359587
C	 0.8322696769	-0.4687443809	 1.1808367108	 0.395702
O	 0.6375871618	-0.1326130316	 2.3209281187	-0.334033
H	 0.8805804982	 2.0362235563	-0.0996580748	 0.113914
H	-0.7218012013	 1.9118123295	-0.8432373888	 0.112434
H	-0.5549567133	 1.8881915858	 0.9255624502	 0.13505
H	-2.004311188	-0.2828835761	-0.7793121204	 0.117789
H	-1.3424077874	-1.7024289644	 0.043487201	 0.115202
H	-1.8743081419	-0.3077019188	 0.9932666155	 0.13558
H	 0.1885478146	-0.7013542344	-2.1201732592	 0.103168
H	 1.597503762	 0.1869806328	-1.5350281154	 0.109333
H	 0.7910978496	-2.6321638232	-0.7414959538	 0.073489
H	 2.9847048597	-2.924024115	-1.3193311931	 0.283799
H	 2.0030859371	-2.3011092035	 1.3867980669	 0.119359
H	 2.8603220378	-0.9207926663	 0.6857912209	 0.138242
66.016	119.8679	202.9579	218.947	249.7998	285.9389	290.6681	304.0116	346.0976	370.8113	457.8528	498.6962	514.2314	586.2168	624.4425	701.1907	845.6865	866.576	893.3107	956.2155	965.4474	971.0793	1026.0179	1054.3464	1069.9457	1096.0122	1115.7633	1199.7045	1204.2897	1238.8306	1246.2572	1258.2022	1294.34	1325.7276	1367.0306	1392.0789	1415.8415	1427.4975	1449.367	1480.2587	1487.9525	1497.5541	1501.6446	1509.4864	1838.241	2978.3627	3029.2145	3030.4078	3033.4293	3043.0857	3096.0454	3097.5155	3100.7416	3103.999	3114.9832	3119.2134	3820.0531
CC1(C)CC(O)CC1=O	CC1(C)C[C@@H](O)CC1=O	
InChI=1S/C7H12O2/c1-7(2)4-5(8)3-6(7)9/h5,8H,3-4H2,1-2H3	InChI=1S/C7H12O2/c1-7(2)4-5(8)3-6(7)9/h5,8H,3-4H2,1-2H3/t5-/m0/s1
