20
gdb 95178	2.12687	1.79905	1.28306	2.7333	78.77	-0.23	-0.0223	0.2078	1070.4547	0.172184	-403.148965	-403.14067	-403.139725	-403.181828	32.132	
C	-0.1534348656	 1.5493005463	-0.0008542243	-0.409103
C	 0.0245880794	 0.0188534119	-0.0183952909	-0.077746
C	 0.7402912132	-0.5190154445	-1.2723328969	-0.23002
C	 2.2271708401	-0.1619096556	-1.2995598714	-0.157511
N	 2.960681185	-0.6418450689	-0.1098176974	-0.092537
C	 3.1992373377	 0.321253605	 0.9457599339	-0.243003
C	 2.2031497145	-0.7811207924	 1.1459632194	-0.111636
C	 0.736136436	-0.4805514413	 1.2415719702	 0.379653
O	 0.1342200334	-0.6959415629	 2.2706824177	-0.331512
H	 0.7967832141	 2.0871603471	-0.0655931737	 0.120072
H	-0.7702267521	 1.8660912139	-0.8480098287	 0.120891
H	-0.6533077837	 1.859432769	 0.9207520486	 0.139848
H	-0.9777166981	-0.4194920792	 0.0408034552	 0.102208
H	 0.6407460666	-1.6110677694	-1.2983470293	 0.112862
H	 0.2555371907	-0.1384136347	-2.1789512628	 0.102266
H	 2.6965499837	-0.619163483	-2.1770203505	 0.114084
H	 2.3550416702	 0.9226444069	-1.4069547535	 0.101518
H	 4.1585716506	 0.2573876632	 1.4528127573	 0.126488
H	 2.8213044009	 1.3342971872	 0.8197812985	 0.118302
H	 2.4982134437	-1.6179694784	 1.7739859788	 0.114876
63.2527	186.9223	194.8321	214.1619	261.9128	335.8001	407.335	427.7775	452.6037	514.5305	633.2261	689.7668	738.591	754.2215	849.8543	887.805	918.7945	929.3953	972.8822	991.1213	1028.2425	1061.2747	1072.3307	1107.7197	1119.5349	1137.0601	1164.4414	1216.5886	1243.6453	1266.8917	1301.2152	1337.6174	1339.6132	1362.7326	1379.303	1395.1891	1407.2737	1483.316	1493.1194	1498.6153	1506.273	1523.7609	1794.0741	3020.7823	3026.8685	3039.7128	3049.8794	3061.648	3071.7672	3094.7564	3107.0185	3119.9099	3142.6104	3180.4752
CC1CCN2CC2C1=O	C[C@H]1CCN2C[C@H]2C1=O	
InChI=1S/C7H11NO/c1-5-2-3-8-4-6(8)7(5)9/h5-6H,2-4H2,1H3	InChI=1S/C7H11NO/c1-5-2-3-8-4-6(8)7(5)9/h5-6H,2-4H2,1H3/t5-,6-,8?/m0/s1
