17
gdb 86716	3.36311	1.24006	1.05522	3.511	68.71	-0.2525	-0.0314	0.2211	1150.7181	0.134184	-458.953685	-458.945374	-458.94443	-458.987278	30.287	
C	 0.2736948357	 1.6045488516	 0.1930454349	-0.403386
C	 0.0420865994	 0.1023911011	 0.1466309196	 0.110864
O	 0.5458102447	-0.3989954965	-1.1016271175	-0.290129
C	 1.0950252389	-1.6968858686	-0.9477181097	 0.011608
C	 2.3294063739	-1.8132405748	-1.8354972163	 0.148377
O	 2.7493461039	-2.8613205065	-2.2476536094	-0.243962
C	 1.4328376336	-1.8210668432	 0.5318388564	-0.00491
O	 2.1930765509	-0.7065865438	 1.0150104267	-0.249238
C	 0.7734606275	-0.7027887996	 1.2039027899	 0.014997
H	 1.3458316275	 1.8151327448	 0.1911189091	 0.140737
H	-0.1817691193	 2.0825902188	-0.6777778485	 0.132636
H	-0.1731474616	 2.03377794	 1.0951857971	 0.117579
H	-1.034202552	-0.1215718179	 0.2296353403	 0.079954
H	 0.3858943707	-2.4918647239	-1.2247043255	 0.100696
H	 2.8160658711	-0.8383276741	-2.0474274557	 0.101725
H	 1.6385036278	-2.788868179	 0.9777854715	 0.121659
H	 0.4193610272	-0.7385473382	 2.2303949569	 0.110793
61.8106	83.2025	170.3245	217.2917	234.6334	311.1436	370.0443	438.446	503.7625	547.724	674.2948	784.2131	836.772	844.8262	869.7967	914.6947	925.0078	998.6833	1030.4983	1049.6485	1082.3324	1101.6697	1112.0068	1128.024	1155.8284	1252.2486	1288.3738	1296.7348	1303.0418	1343.4532	1377.4482	1393.4115	1406.9365	1434.734	1486.5191	1498.4777	1838.091	2923.2583	2971.8935	2998.2937	3047.7375	3120.9107	3136.3568	3157.9061	3177.3254
CC1OC(C=O)C2OC12	C[C@H]1O[C@@H](C=O)[C@H]2O[C@@H]12	
InChI=1S/C6H8O3/c1-3-5-6(9-5)4(2-7)8-3/h2-6H,1H3	InChI=1S/C6H8O3/c1-3-5-6(9-5)4(2-7)8-3/h2-6H,1H3/t3-,4+,5+,6-/m1/s1
