18
gdb 71890	2.82402	1.72448	1.31508	3.4465	71.11	-0.2095	0.0658	0.2754	983.4048	0.147039	-439.01522	-439.007307	-439.006363	-439.047104	31.534	
O	-0.0359737774	 1.4282758905	 0.1063875484	-0.479681
C	-0.0144656247	 0.0363602964	 0.0136418768	 0.398736
C	 0.3451495034	-0.6470961365	-1.3232022776	-0.232181
N	-0.7768150819	-1.6354233235	-1.1703661746	-0.142678
C	-0.4034146382	-2.723116611	-0.2026640043	-0.232185
C	-0.6779081839	-1.8035784928	 1.0067519035	 0.398728
O	-1.3763131581	-2.288880622	 2.1127378948	-0.479678
C	 0.4730643916	-0.7835368849	 1.2428901971	-0.377583
C	-1.3224439709	-0.8106745967	-0.0068540787	-0.102645
H	 0.864794012	 1.7392334384	 0.2521863427	 0.278864
H	 0.1363193297	 0.0112853425	-2.1723021633	 0.113043
H	 1.3424096581	-1.087411634	-1.4409575082	 0.090468
H	-1.1406112657	-3.5300888993	-0.2608426158	 0.11304
H	 0.6025595227	-3.1392680138	-0.3334529905	 0.09047
H	-0.7582825592	-2.7621889344	 2.6813801738	 0.278862
H	 1.5058604254	-1.1481664976	 1.257282264	 0.084773
H	 0.2576738958	-0.2149788433	 2.1523890885	 0.114251
H	-2.3477364686	-0.447012348	-0.0180313067	 0.085396
153.7858	176.6107	214.9747	237.9337	321.3938	388.6704	402.0212	430.5459	445.9453	560.9702	598.8259	679.6705	753.9995	804.1691	893.4762	897.7419	914.4444	937.5855	939.3953	971.3249	1004.4207	1054.2715	1075.6845	1098.0564	1159.8698	1175.7967	1176.6645	1187.343	1219.3528	1224.0518	1250.0315	1267.1631	1299.4417	1310.1523	1369.504	1381.6837	1474.9661	1488.7683	1504.9947	3023.7824	3029.4536	3037.7248	3084.8623	3087.4617	3106.7596	3141.9579	3792.493	3792.6221
OC12CN3CC(O)(C1)C23	O[C@@]12CN3C[C@@](O)(C1)[C@@H]23	
InChI=1S/C6H9NO2/c8-5-1-6(9)3-7(2-5)4(5)6/h4,8-9H,1-3H2	InChI=1S/C6H9NO2/c8-5-1-6(9)3-7(2-5)4(5)6/h4,8-9H,1-3H2/t4-,5-,6+
