18
gdb 29939	3.28014	1.32906	0.95702	3.9444	84.01	-0.2081	-0.0268	0.1813	1224.7734	0.148498	-402.031084	-402.022453	-402.021509	-402.064501	31.902	
C	 0.0079480123	 1.4618807567	 0.0030722618	-0.332021
N	 0.0228999156	 0.0037134292	-0.0282556421	-0.136905
C	 0.2125029136	-0.681537185	-1.1886557365	 0.048818
C	 0.2283852885	-2.0402890178	-1.2302379601	-0.269929
C	 0.0405891728	-2.7749354686	-0.0204864221	 0.333345
C	 0.0572963089	-4.2801468404	-0.0609177742	-0.487031
C	-0.1497405294	-2.0883070909	 1.1443688449	-0.343562
C	-0.1713616921	-0.6450964082	 1.2181349251	 0.435991
O	-0.3366266799	 0.0297587013	 2.2258801198	-0.418316
H	 0.1669432734	 1.844309413	-1.005994656	 0.122943
H	-0.9487463325	 1.8182947571	 0.3922154579	 0.155446
H	 0.7904812845	 1.8300521979	 0.6707507354	 0.155494
H	 0.349669508	-0.0733198205	-2.0752833317	 0.127323
H	 0.3822797734	-2.5471677124	-2.1741411787	 0.098128
H	 1.0132278508	-4.6488691166	-0.4503034134	 0.135806
H	-0.0978197619	-4.7103320053	 0.9307943121	 0.131951
H	-0.725258075	-4.6607230349	-0.7273657936	 0.135806
H	-0.2966272611	-2.6010022548	 2.0879234512	 0.106713
93.7789	111.412	121.307	194.0752	273.8136	294.4584	341.6053	428.5236	442.6175	518.9352	614.315	619.8522	748.019	754.3393	762.8219	773.1634	886.3676	923.0014	951.1796	1032.5223	1061.4823	1063.7192	1140.9442	1154.0372	1196.8687	1210.7716	1251.5215	1339.8167	1378.601	1410.4627	1450.7597	1465.482	1480.5082	1482.7369	1500.1202	1528.7701	1574.6113	1671.0056	1756.7327	3030.9928	3056.2808	3083.77	3123.1403	3126.4421	3149.7969	3192.2975	3200.0422	3215.1733
CN1C=CC(C)=CC1=O	Cn1ccc(C)cc1=O	
InChI=1S/C7H9NO/c1-6-3-4-8(2)7(9)5-6/h3-5H,1-2H3	InChI=1S/C7H9NO/c1-6-3-4-8(2)7(9)5-6/h3-5H,1-2H3
