16
gdb 18301	3.17168	2.2087	1.93965	2.521	59.44	-0.2351	0.0745	0.3096	763.64	0.131997	-420.846854	-420.840032	-420.839088	-420.877712	26.242	
O	 0.1229251077	 1.3552744524	 0.1477853375	-0.425553
C	 0.0090362362	-0.0248777063	 0.0520734668	 0.116048
C	-1.3535818911	-0.6896565866	 0.0101775564	-0.15551
C	-2.6279021542	 0.1355768348	 0.0099286309	-0.100973
O	-2.6738937455	 1.0888314142	-1.0556338874	-0.234683
C	-2.2311742043	 0.5403842465	-2.2590952375	 0.004075
O	-0.8392925085	 0.2935436757	-2.2292344308	-0.252438
C	-0.4813051626	-0.6356724684	-1.2364444174	 0.015438
H	-0.2106257975	 1.7191307703	-0.6845220556	 0.293775
H	 0.8003990962	-0.5373545213	 0.590859449	 0.102951
H	-1.4452247959	-1.6564991539	 0.4960497997	 0.097201
H	-3.4960078799	-0.5366381619	-0.069942493	 0.100321
H	-2.7252527876	 0.7175968229	 0.93033079	 0.129327
H	-2.7722202331	-0.3937259576	-2.4885683119	 0.087836
H	-2.3975901616	 1.2836341662	-3.0407339938	 0.12255
H	-0.0283185483	-1.5380912469	-1.638144993	 0.099635
139.9959	162.3892	225.6143	331.4265	380.0447	466.2736	506.8865	592.7453	634.4559	739.07	779.3252	806.9605	877.1368	940.0597	985.4082	1013.7026	1026.4255	1069.9004	1111.3991	1113.2735	1127.9569	1173.1861	1204.7716	1231.6633	1274.0429	1324.1166	1337.5484	1343.661	1368.3907	1407.2424	1437.6918	1459.6065	1495.9359	1512.4583	2957.3645	2987.0407	3089.3346	3120.0501	3133.8488	3148.5312	3160.0754	3743.0782
OC1C2COCOC12	O[C@H]1[C@H]2COCO[C@@H]12	
InChI=1S/C5H8O3/c6-4-3-1-7-2-8-5(3)4/h3-6H,1-2H2	InChI=1S/C5H8O3/c6-4-3-1-7-2-8-5(3)4/h3-6H,1-2H2/t3-,4+,5-/m1/s1
