17
gdb 87094	2.97222	1.16295	0.97265	2.2443	77.34	-0.2606	-0.0575	0.2031	1228.5918	0.132007	-421.789596	-421.779824	-421.77888	-421.824387	35.441	
C	 0.2153287364	 1.493706548	-0.3893861645	-0.48765
C	 0.1007547197	 0.0073517758	-0.125689122	 0.178203
C	 1.379069918	-0.8219375613	 0.0378868397	-0.349726
C	 0.5397261357	-0.5420406242	 1.2359123533	 0.10191
O	 0.9427994682	 0.3973675608	 2.1822331107	-0.421866
C	-1.0430206796	-0.7531439885	-0.7180241193	 0.192402
O	-1.1563954893	-1.9603137391	-0.5995273112	-0.323327
C	-2.0456763745	 0.0107712019	-1.4426083683	 0.250737
C	-2.8870669406	 0.6197552238	-2.0513526907	-0.405128
H	 1.0126273282	 1.9205250025	 0.2208245432	 0.130626
H	 0.4333933284	 1.6940079059	-1.4430622001	 0.122234
H	-0.7128080099	 2.0131047412	-0.1344757434	 0.131449
H	 1.3609668772	-1.8255535336	-0.3712280978	 0.140111
H	 2.3084709872	-0.2718765601	-0.0653547816	 0.11753
H	-0.0703515185	-1.3600754111	 1.6150668222	 0.115582
H	 1.7409552413	 0.0677276054	 2.6079700884	 0.294325
H	-3.6359692478	 1.1484499426	-2.5894618685	 0.21259
41.5024	130.3354	163.6278	171.2942	213.5947	245.354	256.6169	278.8831	336.3749	429.2095	464.4457	485.1187	599.7954	641.4693	690.033	700.8043	741.3062	815.0874	835.451	917.111	960.8992	1026.9388	1053.4061	1092.6363	1104.3033	1144.7566	1193.4819	1277.3994	1304.1712	1328.4769	1401.4846	1418.555	1459.7293	1490.4478	1497.5123	1729.6198	2210.5559	3046.0579	3108.4992	3125.4147	3133.0692	3140.1635	3234.3747	3493.9044	3811.1136
CC1(CC1O)C(=O)C#C	C[C@]1(C[C@H]1O)C(=O)C#C	
InChI=1S/C7H8O2/c1-3-5(8)7(2)4-6(7)9/h1,6,9H,4H2,2H3	InChI=1S/C7H8O2/c1-3-5(8)7(2)4-6(7)9/h1,6,9H,4H2,2H3/t6-,7+/m1/s1
