19
gdb 38207	3.23018	1.73668	1.39726	1.1765	81.35	-0.2409	0.0111	0.252	969.4696	0.162107	-385.833384	-385.826734	-385.82579	-385.864059	28.184	
C	-0.0522372213	 1.6025642334	 0.106000581	-0.252185
C	 1.4481602722	 1.2348977325	-0.0175038085	-0.11311
C	 1.1690989666	 0.0840301051	 1.0181541048	-0.297863
C	-0.0143234635	 0.0312287037	 0.0070530944	 0.322147
C	-1.1403277461	-0.8563301278	-0.3535660853	-0.251298
C	-1.3202296337	-1.042884348	-1.6655340285	-0.06562
C	-0.4454189887	-0.4347029154	-2.7477257809	-0.138772
O	 0.487975319	 0.5619238373	-2.3279934665	-0.281967
C	 1.0480267863	 0.1923580113	-1.0922929853	 0.146799
H	-0.376244982	 2.0182627571	 1.0635511096	 0.085152
H	-0.5024240586	 2.1182478152	-0.7414035091	 0.109158
H	 2.3025575617	 1.9121249099	-0.0218158304	 0.074368
H	 1.8596210973	-0.764513694	 1.0174873136	 0.094743
H	 0.9370147785	 0.4114843703	 2.0338846421	 0.097347
H	-1.8062450388	-1.2933787194	 0.3850282264	 0.091766
H	-2.1266220438	-1.6694859607	-2.039506858	 0.096823
H	 0.0870889094	-1.2528734634	-3.2662489052	 0.104448
H	-1.0780043327	 0.0491252164	-3.5010088237	 0.121195
H	 1.7404677782	-0.6537162933	-1.2154434403	 0.056869
153.9235	232.3827	340.242	394.984	446.2003	469.6498	538.6739	600.0514	642.2598	694.8468	784.4711	824.3813	853.8683	884.9579	897.157	934.7429	961.6795	974.9221	982.9918	1018.0359	1024.0964	1055.6738	1070.8225	1088.9496	1122.3767	1140.0605	1159.2809	1168.5661	1198.565	1212.687	1235.2468	1251.6247	1266.7772	1311.6567	1383.1752	1414.4745	1421.0114	1484.2639	1491.6576	1531.2397	1683.9431	2940.4035	2991.225	3052.6085	3053.4274	3066.0188	3111.7728	3121.2113	3150.0562	3150.5182	3173.0617
C1C2CC11C=CCOC21	C1[C@H]2C[C@]31C=CCO[C@@H]23	
InChI=1S/C8H10O/c1-2-8-4-6(5-8)7(8)9-3-1/h1-2,6-7H,3-5H2	InChI=1S/C8H10O/c1-2-8-4-6(5-8)7(8)9-3-1/h1-2,6-7H,3-5H2/t6-,7-,8+/m0/s1
