21
gdb 120912	3.18578	1.08251	0.95223	2.5275	78.98	-0.2372	0.0743	0.3115	1334.6787	0.182041	-424.188611	-424.179523	-424.178579	-424.222756	34.452	
C	 0.0707451726	 1.5181205159	-0.131044964	-0.390032
C	-0.1234887401	 0.0224612133	-0.3095291774	-0.041147
O	 0.9537149899	-0.4876764128	-1.0817375151	-0.266944
C	 0.896706469	-1.8889626776	-1.2928836694	 0.119856
C	-0.1130572767	-2.4478037949	-2.3555108122	-0.272059
C	 1.0753079449	-3.0178848064	-3.1341464308	-0.102168
C	 2.0042367135	-1.900264955	-3.5068655291	 0.139736
O	 1.5664049258	-0.6177444048	-3.8431110445	-0.443766
C	 2.07190686	-2.4161814668	-2.1016108368	-0.162765
H	 1.0241233317	 1.7251130711	 0.3630273696	 0.130075
H	 0.067897569	 2.0275814533	-1.0991633552	 0.129372
H	-0.7357324463	 1.9352878186	 0.4792400123	 0.118973
H	-0.1443234538	-0.4864275772	 0.6677513628	 0.092637
H	-1.0825451658	-0.188345131	-0.8071065844	 0.098554
H	 0.783618272	-2.401420496	-0.3282383207	 0.077738
H	-0.7839357439	-3.2026299023	-1.9418135049	 0.101627
H	-0.695089139	-1.6952664128	-2.8951381516	 0.108898
H	 1.1058066015	-3.989581505	-3.6115567471	 0.087785
H	 2.8418959518	-2.2126549905	-4.1268720096	 0.09663
H	 1.3973285897	-0.1508170128	-3.0133026124	 0.29225
H	 2.9774384044	-2.8286704862	-1.6724447296	 0.084749
66.2125	99.8847	121.4779	197.5529	238.5998	261.1294	354.4653	382.7326	446.0683	468.63	520.141	643.5879	737.8304	752.6852	812.5008	821.4243	848.0663	915.5917	937.9062	968.9034	1001.0015	1013.5523	1028.9936	1056.5242	1073.306	1100.6076	1123.2315	1150.4045	1172.1135	1192.6053	1197.683	1240.8873	1266.5941	1297.4543	1310.2172	1339.1101	1365.5099	1392.5901	1407.6566	1438.8276	1456.6851	1481.7586	1484.7354	1499.0273	1528.2858	2972.437	3004.6404	3012.4116	3044.9024	3060.0022	3118.214	3120.2051	3122.7493	3135.117	3175.5249	3190.3332	3735.6783
CCOC1CC2C(O)C12	CCO[C@H]1C[C@H]2[C@@H](O)[C@@H]12	
InChI=1S/C7H12O2/c1-2-9-5-3-4-6(5)7(4)8/h4-8H,2-3H2,1H3	InChI=1S/C7H12O2/c1-2-9-5-3-4-6(5)7(4)8/h4-8H,2-3H2,1H3/t4-,5+,6-,7-/m1/s1
