19
gdb 19551	4.01839	1.7458	1.61886	1.7062	74.61	-0.2301	0.0879	0.318	901.2177	0.166786	-327.867424	-327.860205	-327.85926	-327.898845	28.202	
C	 0.0400522656	 1.5237668253	-0.2993982434	-0.381449
C	-0.0035401244	 0.0462494896	 0.1127184054	-0.334804
C	-1.388896066	-0.5023798581	 0.2029561468	 0.384074
C	-1.9765208985	-1.8586686116	 0.0863703259	-0.097443
C	-2.8790996585	-1.6508197628	 1.2990786424	-0.239998
C	-2.6980463598	-0.1335369973	 1.0295642755	-0.12737
C	-3.3574134441	 0.0300163548	-0.3471086309	-0.147301
N	-2.2749375926	-0.8068512537	-0.9609679126	-0.18843
H	 1.0714894912	 1.8837533782	-0.3587106302	 0.112902
H	-0.4260616862	 1.664212027	-1.2793136809	 0.132505
H	-0.4921915634	 2.1530044182	 0.4219461601	 0.115444
H	 0.5495693076	-0.5589145501	-0.6160510519	 0.112844
H	 0.5026403639	-0.0880955073	 1.0779008762	 0.101282
H	-1.5262647946	-2.771868151	-0.2814418344	 0.093855
H	-3.900125732	-2.0485213695	 1.2825279478	 0.092456
H	-2.373312057	-1.9689912989	 2.2145835346	 0.103876
H	-2.8066510971	 0.5966458284	 1.8299340534	 0.070165
H	-4.3780975478	-0.3498239793	-0.4796694595	 0.091675
H	-3.2837631864	 1.0410380581	-0.7554419545	 0.105716
86.6636	147.2228	204.5032	297.647	356.584	433.4355	499.4229	604.3772	698.7894	750.2108	774.9588	833.2665	851.8451	918.0391	926.1946	968.3759	972.6047	983.4006	992.126	1031.6504	1062.7763	1090.1679	1107.7756	1124.7026	1149.8233	1175.5805	1192.6114	1225.7023	1252.6898	1278.9661	1291.8956	1321.4945	1348.1266	1408.7463	1444.9129	1470.2271	1491.4374	1498.4444	1508.7253	1514.0432	3018.4943	3025.6067	3036.4714	3038.2614	3056.8715	3098.9531	3101.4877	3104.9082	3113.9523	3127.4528	3197.9951
CCC12C3CC1CN23	CC[C@@]12[C@H]3C[C@@H]1CN23	
InChI=1S/C7H11N/c1-2-7-5-3-6(7)8(7)4-5/h5-6H,2-4H2,1H3	InChI=1S/C7H11N/c1-2-7-5-3-6(7)8(7)4-5/h5-6H,2-4H2,1H3/t5-,6-,7+,8?/m1/s1
