16
gdb 31935	4.70267	0.93608	0.78664	6.5312	80.56	-0.2053	-0.036	0.1692	1390.8278	0.125336	-434.117352	-434.108706	-434.107761	-434.150979	30.783	
C	 0.1159444216	 1.4027700626	 0.104870219	-0.345115
N	-0.1346354694	-0.0097396527	-0.0974191527	-0.3738
C	 0.5184646476	-0.7233564632	-1.0601966228	 0.479342
N	 0.5912809018	-2.0528409023	-1.0807155096	-0.34206
C	 1.2742070839	-2.3512129871	-2.2181506169	-0.125327
C	 1.6376660018	-1.2139734968	-2.9130368563	 0.199544
N	 1.1344419625	-0.1626517234	-2.1292124575	-0.383626
C	 2.362110769	-1.0115878525	-4.1412581914	 0.057754
O	 2.8134491402	-1.8954586915	-4.8435815015	-0.290284
H	 1.1744862357	 1.6341389933	 0.2964537778	 0.129131
H	-0.213184677	 1.9809203434	-0.7671199769	 0.13413
H	-0.4720243127	 1.7468591997	 0.9570756732	 0.14782
H	-0.3446179789	-0.5656079093	 0.7168201954	 0.265402
H	 1.4885513146	-3.3702481978	-2.5020915716	 0.139511
H	 1.2028664596	 0.8172920247	-2.3448243052	 0.268133
H	 2.4893800195	 0.062770743	-4.422482943	 0.039446
90.625	118.1403	145.7147	173.6395	233.3584	242.4075	327.9405	429.4182	448.6243	490.0217	533.9273	632.5529	736.3109	750.3382	777.0175	906.6299	997.0488	1018.5775	1028.9131	1097.1361	1151.9381	1170.9981	1215.4006	1226.9294	1332.3509	1350.6113	1382.0241	1447.8841	1464.3613	1488.3412	1511.1944	1524.0801	1583.2205	1650.9781	1770.9285	2820.1296	2990.7559	3053.8293	3135.0721	3259.7371	3636.9107	3669.9727
CNC1=NC=C(N1)C=O	CNc1ncc([nH]1)C=O	
InChI=1S/C5H7N3O/c1-6-5-7-2-4(3-9)8-5/h2-3H,1H3,(H2,6,7,8)	InChI=1S/C5H7N3O/c1-6-5-7-2-4(3-9)8-5/h2-3H,1H3,(H2,6,7,8)
