17
gdb 6999	2.59281	2.06121	1.56641	1.7395	65.55	-0.2647	0.0213	0.286	898.1997	0.140112	-401.005625	-400.99695	-400.996006	-401.038399	31.787	
C	-0.3675670403	 1.4775623467	-0.0506937912	-0.416501
C	 0.1222563098	 0.0503943918	-0.0017906387	 0.131121
O	 1.3944646554	-0.124321859	-0.734874055	-0.276017
C	 1.9982531774	-0.6957323384	 0.3551182117	 0.398729
N	 3.1330790289	-1.2066326439	 0.5136562285	-0.562927
C	 0.7930321361	-0.5385563372	 1.2732983677	 0.229656
C	 0.989123637	 0.3555482452	 2.4880421622	-0.446764
O	 0.1894300663	-1.7705021242	 1.6220892637	-0.470227
H	 0.3866486098	 2.1767793585	 0.3189386185	 0.128932
H	-0.613574269	 1.7542340481	-1.0801186318	 0.136176
H	-1.2732500095	 1.5852740126	 0.5548508634	 0.131723
H	-0.6168204341	-0.6495531875	-0.3999823	 0.107121
H	 3.6837527047	-1.1887789877	-0.3465420444	 0.228614
H	 1.4198969323	 1.3244048277	 2.2217996446	 0.125468
H	 0.0333393286	 0.5158491448	 2.9952502948	 0.127962
H	 1.6766565577	-0.1304753474	 3.1872938463	 0.133187
H	 0.8718290787	-2.3178249201	 2.0285182096	 0.293747
87.8339	150.1745	200.8529	213.6482	238.3991	264.3754	298.1753	328.5	385.6363	481.9176	552.2543	671.9823	710.8155	730.6518	841.6014	862.4414	868.6381	971.4477	1021.9035	1027.7447	1063.3863	1090.3441	1157.8706	1196.617	1216.5062	1252.7454	1344.9806	1367.3787	1381.7168	1407.7743	1414.1627	1475.8213	1484.7103	1493.6563	1501.0239	1823.9826	3041.0674	3045.3323	3082.543	3113.701	3114.9598	3121.9211	3130.0115	3473.5238	3797.4794
CC1OC(=N)C1(C)O	C[C@H]1O[C]([NH])[C@]1(C)O	
InChI=1S/C5H9NO2/c1-3-5(2,7)4(6)8-3/h3,6-7H,1-2H3	InChI=1S/C5H9NO2/c1-3-5(2,7)4(6)8-3/h3,6-7H,1-2H3/t3-,5-/m1/s1
