19
gdb 86916	3.84666	0.87343	0.76043	4.0797	77.23	-0.2455	-0.0297	0.2158	1498.423	0.156609	-423.04919	-423.039536	-423.038592	-423.084829	33.926	
C	 0.2466249028	 1.6999714033	 0.0509129104	-0.407295
C	 0.1091625115	 0.1850548376	 0.0098585095	-0.078371
C	 0.6051337921	-0.6339378822	-1.2265875971	-0.278846
C	 1.2527293771	-1.696135736	-0.2789178876	-0.104437
C	 2.6567379588	-2.235403354	-0.5679986058	-0.300738
C	 3.1553852409	-3.1439719276	 0.5417089644	 0.148617
O	 3.5147620952	-4.2809282538	 0.3703775661	-0.240776
C	 1.089233438	-0.654909936	 0.8434965047	 0.379754
O	 1.6646261785	-0.4697267118	 1.8791980772	-0.304765
H	 1.2651810764	 2.0089991314	-0.2049600714	 0.122361
H	-0.4408453977	 2.1784522448	-0.653372436	 0.122902
H	 0.0265387405	 2.0780331526	 1.053533076	 0.138238
H	-0.9150158948	-0.1155061119	 0.2662537274	 0.107641
H	-0.1580852298	-0.999027358	-1.9143467323	 0.114278
H	 1.3642715767	-0.0855130436	-1.7917983484	 0.114452
H	 0.5535135184	-2.52505914	-0.1116531338	 0.114343
H	 2.6823406542	-2.7906024767	-1.5104115592	 0.12442
H	 3.3540133717	-1.3892579817	-0.6456640569	 0.120526
H	 3.1608245395	-2.6768075265	 1.5491486229	 0.107696
49.4232	72.7791	85.1423	160.1231	182.1169	204.1985	258.6888	326.3812	345.0706	460.6764	542.5328	579.3773	683.5578	752.7674	794.4909	854.5711	915.419	932.8523	958.6957	974.8926	1012.6279	1086.6049	1102.6159	1127.1225	1142.9454	1154.6251	1199.0353	1236.1247	1252.456	1263.1588	1301.9425	1330.0846	1358.0213	1408.9199	1424.884	1463.076	1489.1673	1494.5192	1495.6546	1830.6204	1873.7394	2920.789	3016.2057	3030.1516	3037.9774	3038.4159	3066.9689	3095.2472	3107.6751	3114.9727	3133.3536
CC1CC(CC=O)C1=O	C[C@H]1C[C@@H](CC=O)C1=O	
InChI=1S/C7H10O2/c1-5-4-6(2-3-8)7(5)9/h3,5-6H,2,4H2,1H3	InChI=1S/C7H10O2/c1-5-4-6(2-3-8)7(5)9/h3,5-6H,2,4H2,1H3/t5-,6+/m0/s1
