17
gdb 28802	3.18295	1.61232	1.09963	2.8359	74.33	-0.1921	0.0557	0.2478	1063.0186	0.140089	-418.062389	-418.055172	-418.054228	-418.094007	28.119	
O	 0.1206983822	 1.3127203347	 0.1984036545	-0.431505
C	 0.1153488785	-0.0259910679	 0.0499147918	 0.418692
N	 0.15046053	-0.692709501	-1.0760890789	-0.384871
C	 0.1275847049	-2.033652593	-0.7017164408	-0.241881
C	 0.0841929407	-2.1424146487	 0.6572405646	 0.31151
C	 0.0037286385	-3.0849343284	 1.8198990441	-0.353237
C	 0.3889464792	-2.1635691226	 3.0163433553	-0.213631
C	 0.0033904196	-0.7263005805	 2.5791510358	-0.178151
N	 0.0827212015	-0.835660282	 1.1321775483	-0.067428
H	 0.1625486955	 1.6773044445	-0.6945882873	 0.311221
H	 0.1497356461	-2.8156545076	-1.44429763	 0.103929
H	-1.0116698407	-3.4827895665	 1.946955369	 0.117413
H	 0.6749592796	-3.943530969	 1.7355753398	 0.121629
H	-0.0979663866	-2.4520699661	 3.9502537308	 0.110511
H	 1.470105961	-2.2095641179	 3.1759744365	 0.12154
H	-1.0135662471	-0.4593687347	 2.8916809074	 0.122366
H	 0.687042697	 0.035700407	 2.9610405992	 0.131894
133.3575	165.2511	216.5088	276.135	348.7838	408.3059	535.0991	581.3941	627.8877	655.836	709.9662	725.2346	803.2573	811.4166	866.4391	896.3303	917.5973	1000.5597	1050.7575	1090.8778	1126.9999	1181.2284	1201.8597	1212.7582	1234.778	1268.2762	1296.3178	1312.3491	1329.3395	1342.1425	1400.4371	1489.0764	1500.1944	1522.6165	1565.8797	1599.1876	1616.6992	3017.2297	3030.1815	3062.1839	3087.37	3097.1079	3118.2833	3254.5045	3803.8112
OC1=NC=C2CCCN12	Oc1ncc2CCCn12	
InChI=1S/C6H8N2O/c9-6-7-4-5-2-1-3-8(5)6/h4H,1-3H2,(H,7,9)	InChI=1S/C6H8N2O/c9-6-7-4-5-2-1-3-8(5)6/h4H,1-3H2,(H,7,9)
