19
gdb 73729	2.65489	1.84855	1.37998	1.9683	73.83	-0.2431	0.0731	0.3162	974.3121	0.161432	-422.991886	-422.984683	-422.983739	-423.022981	30.076	
O	-0.0479557515	 1.3170555282	 0.0035917517	-0.475056
C	 0.016793357	-0.0880862958	 0.0378152573	 0.406027
C	 1.1242179247	-0.6569730058	-0.8331770479	-0.301296
C	 1.0384692443	-2.1816348584	-1.0363976931	-0.085836
O	-0.2914201203	-2.6680214159	-1.1288050964	-0.258808
C	-1.1265299519	-2.2262171484	-0.0789225967	 0.086931
C	-0.5226281747	-2.1965624566	 1.3737369638	-0.2905
C	-0.5500265664	-0.6724348382	 1.322437374	-0.130713
C	-1.3385136794	-0.7021337183	-0.0016153447	-0.11562
H	 0.7135040876	 1.6572648028	 0.4864863345	 0.280622
H	 1.0335723532	-0.1478473828	-1.7995760199	 0.117404
H	 2.1144611898	-0.4055960343	-0.4297951855	 0.08793
H	 1.5241489278	-2.4635290609	-1.9745129435	 0.109195
H	 1.5730429927	-2.6992546281	-0.228165312	 0.095945
H	-2.0432951139	-2.8104257438	-0.1619506263	 0.090353
H	-1.2545180044	-2.5842125775	 2.0874706948	 0.10699
H	 0.4294049454	-2.7028981373	 1.5529058922	 0.098774
H	-0.7090520311	-0.0102778906	 2.1652362527	 0.084824
H	-2.2134178488	-0.1443685482	-0.3098311549	 0.092834
164.845	245.8836	300.479	332.8139	371.9762	411.2448	421.9626	497.9293	525.6796	619.8843	699.2104	725.45	819.2424	843.7034	881.0608	889.9842	929.0002	959.7453	984.9243	1008.7612	1020.0912	1030.7633	1073.033	1094.083	1111.3808	1147.9113	1182.736	1219.9625	1231.9078	1247.2621	1261.2588	1271.0001	1290.2509	1325.3645	1365.0288	1376.7671	1417.3313	1449.5029	1486.7876	1489.654	1521.0861	3001.9885	3017.5487	3057.4376	3063.2824	3088.1424	3098.5856	3110.5595	3181.8569	3200.2758	3793.7972
OC12CCOC3CC1C23	O[C@@]12CCO[C@H]3C[C@@H]1[C@@H]23	
InChI=1S/C7H10O2/c8-7-1-2-9-5-3-4(7)6(5)7/h4-6,8H,1-3H2	InChI=1S/C7H10O2/c8-7-1-2-9-5-3-4(7)6(5)7/h4-6,8H,1-3H2/t4-,5+,6-,7+/m1/s1
