15
gdb 127169	4.39578	1.13588	0.90777	2.7986	71.79	-0.2289	-0.0331	0.1959	1203.9138	0.114867	-446.291616	-446.283459	-446.282514	-446.32524	28.462	
C	 0.0130482185	 1.4534803177	-0.0621390624	-0.342301
N	 0.0030931596	-0.0077860851	-0.004144487	-0.166083
C	-0.0292795772	-0.6746012744	 1.2103472123	 0.090026
N	-0.0516036783	-0.0518930098	 2.3196956402	-0.479999
C	 0.0266265506	-0.7090943427	-1.184838669	 0.546991
N	 0.0212735294	-2.0389495812	-1.2898797683	-0.321307
N	 0.0515870065	-2.171565363	-2.6164600997	-0.068571
N	 0.0740448055	-1.0438163705	-3.2925078013	-0.096673
N	 0.0586599663	-0.0874241455	-2.3962204406	-0.295181
H	 0.9137701876	 1.8083771779	-0.5695333678	 0.144243
H	-0.858661769	 1.8188057443	-0.6111012276	 0.144245
H	-0.0088864276	 1.8143786256	 0.963941777	 0.17413
H	-0.0326771017	-1.7587261791	 1.0820672822	 0.13614
H	-0.0735915391	-0.7144196205	 3.0910423021	 0.230381
H	 0.056922269	-3.0728424337	-3.0697195401	 0.303957
64.3461	86.3259	129.1294	194.6227	250.0681	327.5894	372.1025	469.7065	502.6695	546.3299	719.9005	769.279	784.4139	807.2189	974.7203	1042.5974	1059.8399	1065.2279	1131.3253	1159.8014	1162.5762	1188.5618	1244.1803	1275.9538	1331.8944	1401.125	1420.9813	1444.6534	1496.576	1496.825	1526.0076	1610.5946	1719.0984	3055.5719	3114.9767	3117.3339	3182.4524	3521.9353	3652.4909
CN(C=N)C1=NNN=N1	CN(C=N)c1n[nH]nn1	
InChI=1S/C3H6N6/c1-9(2-4)3-5-7-8-6-3/h2,4H,1H3,(H,5,6,7,8)	InChI=1S/C3H6N6/c1-9(2-4)3-5-7-8-6-3/h2,4H,1H3,(H,5,6,7,8)
