15
gdb 77776	2.51242	1.56334	1.35003	3.1304	67.05	-0.2436	-0.0575	0.1861	985.3656	0.111436	-457.760387	-457.752427	-457.751483	-457.792616	30.468	
O	-0.0637618574	 1.3967649846	-0.0734221752	-0.41201
C	-0.0760313726	 0.0100203647	-0.0061150826	 0.028909
C	-0.506475559	-0.7515216317	 1.249336493	-0.290449
C	-1.2606519179	 0.0521102197	 2.2965956376	 0.396921
O	-0.8791645945	 0.289851378	 3.4184840666	-0.333563
C	-2.5347997105	 0.4932995809	 1.6632099859	-0.187984
C	-2.6005921867	 0.0384764695	 0.407348346	-0.116013
C	-1.3824030877	-0.7497753953	 0.0216930884	 0.315751
O	-1.5280785376	-1.900534277	-0.7475287239	-0.460535
H	 0.6203052979	 1.7236481199	 0.5213641737	 0.300974
H	 0.707389014	-0.491778975	-0.5771541022	 0.104423
H	 0.0769450198	-1.609433752	 1.5572308538	 0.121996
H	-3.2475731856	 1.1269210513	 2.1738937319	 0.122034
H	-3.3995362454	 0.2247555102	-0.301730051	 0.119407
H	-1.5987975369	-1.6397833877	-1.6727938117	 0.290139
101.155	194.4509	225.84	264.5434	294.8751	316.4825	350.1974	446.7282	506.268	560.2203	585.3386	658.4497	736.336	780.5397	816.5085	836.3354	921.4201	934.2859	968.2886	979.3133	1041.7071	1092.2065	1143.7483	1153.1769	1204.7904	1258.322	1292.9407	1307.6196	1342.2145	1371.3596	1450.8091	1641.1905	1813.391	3090.8148	3195.4964	3208.2297	3233.6616	3794.2831	3801.1301
OC1C2C(=O)C=CC12O	O[C@H]1[C@H]2C(=O)C=C[C@@]12O	
InChI=1S/C6H6O3/c7-3-1-2-6(9)4(3)5(6)8/h1-2,4-5,8-9H	InChI=1S/C6H6O3/c7-3-1-2-6(9)4(3)5(6)8/h1-2,4-5,8-9H/t4-,5+,6+/m1/s1
