16
gdb 20966	4.67149	1.64209	1.23973	4.0003	69.23	-0.2023	0.0159	0.2182	956.7585	0.130731	-379.909227	-379.901318	-379.900374	-379.941773	28.041	
C	-0.0661278043	 1.4269436719	 0.0433039128	-0.334877
N	 0.2423920693	 0.0107649874	-0.0205050705	-0.164423
C	 0.0612765262	-0.7623183005	 1.2001799276	-0.345748
C	 0.0904767999	-0.6045479953	-1.2287122536	 0.552976
C	-0.1178089859	-0.1253198973	-2.5012841335	-0.389993
C	-0.1094093855	-1.3020801228	-3.2861767777	 0.041893
N	 0.0695468946	-2.3962438791	-2.5898338841	-0.165027
O	 0.1953009136	-1.9429602045	-1.2536702163	-0.239014
H	 0.3216649709	 1.8319790265	 0.9812499609	 0.132267
H	 0.4238816209	 1.9524733321	-0.7804411432	 0.142164
H	-1.1468381158	 1.6322029151	-0.0047586544	 0.122301
H	-0.9992232055	-0.880611107	 1.4701582605	 0.122652
H	 0.4987168573	-1.752517425	 1.0772058055	 0.165199
H	 0.5724841715	-0.2513249675	 2.0205456264	 0.127542
H	-0.2613480737	 0.8908270457	-2.8214622948	 0.107545
H	-0.2353040836	-1.3893675499	-4.3571969756	 0.124543
76.4438	129.2958	162.9708	172.8534	243.704	315.0335	375.7516	501.9331	610.3221	624.9118	713.457	730.3517	887.3745	920.429	931.0692	935.7451	1028.9057	1071.2285	1087.015	1129.2991	1172.3252	1207.5085	1228.8606	1273.6505	1374.651	1394.8541	1449.1234	1466.9838	1486.4943	1492.9157	1501.5713	1511.7664	1568.3253	1649.0922	2985.6363	2992.5508	3082.9226	3087.9876	3124.3322	3157.2641	3233.1169	3294.1787
CN(C)C1=CC=NO1	CN(C)c1ccno1	
InChI=1S/C5H8N2O/c1-7(2)5-3-4-6-8-5/h3-4H,1-2H3	InChI=1S/C5H8N2O/c1-7(2)5-3-4-6-8-5/h3-4H,1-2H3
