17
gdb 98996	4.0224	0.82996	0.694	0.542	68.51	-0.2608	-0.0215	0.2393	1565.9979	0.134979	-492.355041	-492.345014	-492.344069	-492.391502	34.065	
C	-0.5299132727	 1.2527318254	-0.6743783684	-0.334095
N	-1.039314912	-0.085006936	-0.445278277	-0.34417
C	-1.0228610713	-0.6466170321	 0.7802483348	 0.494981
O	-0.6069723912	-0.1501896314	 1.8076799655	-0.401808
N	-1.5613345188	-1.9710204686	 0.8395844583	-0.405365
C	-2.0868490732	-2.7523659551	-0.144485773	 0.416855
O	-2.1877308195	-2.4189720254	-1.3187720087	-0.39634
C	-2.5729002858	-4.1351570156	 0.2907445017	-0.141762
O	-3.0872171364	-4.8380116367	-0.7979488045	-0.415397
H	 0.2988536419	 1.2400242188	-1.390424701	 0.131869
H	-1.315280977	 1.9111158917	-1.0609908183	 0.131869
H	-0.1721042292	 1.6462825995	 0.2771057368	 0.170608
H	-1.4232198511	-0.6369447063	-1.2025643964	 0.278617
H	-1.5219524488	-2.3376757949	 1.7802624238	 0.26984
H	-1.7275309189	-4.6730437708	 0.7496959272	 0.122895
H	-3.3337545567	-4.005342603	 1.0774129851	 0.122895
H	-2.9931266593	-4.2396645196	-1.5564719758	 0.298507
51.64	61.206	78.0402	109.5747	149.3989	177.4654	267.5618	342.2136	376.972	387.964	439.7045	551.0334	632.1592	676.6747	686.0352	743.6825	767.7963	893.1303	975.5988	1033.6218	1118.8656	1146.7436	1156.3279	1186.1468	1224.6554	1251.2027	1260.1811	1313.9863	1442.952	1449.6824	1499.2157	1499.3156	1502.56	1517.0656	1599.0081	1758.6437	1826.8409	2975.5027	2995.2958	3032.8659	3085.4606	3158.1332	3543.7834	3614.1423	3688.8563
CNC(=O)NC(=O)CO	CNC(=O)NC(=O)CO	
InChI=1S/C4H8N2O3/c1-5-4(9)6-3(8)2-7/h7H,2H2,1H3,(H2,5,6,8,9)	InChI=1S/C4H8N2O3/c1-5-4(9)6-3(8)2-7/h7H,2H2,1H3,(H2,5,6,8,9)
