13
gdb 7045	5.76925	0.90537	0.7864	2.168	69.66	-0.2777	-0.0563	0.2213	1385.7074	0.092989	-398.601974	-398.593132	-398.592188	-398.639645	28.332	
C	 0.1001353198	 1.4205881391	 0.015810769	-0.509411
C	 0.0657525142	-0.0300678723	-0.0063112756	 0.232678
C	 0.0398955572	-1.2345315153	-0.0232551925	-0.064472
C	-0.0630601831	-2.6650739741	-0.0464504669	 0.280263
O	-1.0896173086	-3.2909217147	-0.0926591583	-0.337502
O	 1.1892800616	-3.2285624058	-0.0081328869	-0.189644
C	 1.274085047	-4.6002762601	-0.0238223548	 0.124672
N	 2.4208136214	-5.1149609165	 0.0112849147	-0.426568
H	 1.1208233256	 1.7956559478	-0.1084807151	 0.166962
H	-0.5197036095	 1.8359733445	-0.785702395	 0.167798
H	-0.2885193359	 1.7989324468	 0.967431409	 0.168741
H	 0.3003201126	-5.0875911848	-0.0663125634	 0.146416
H	 2.3417588478	-6.1309214846	-0.005560244	 0.240067
2.1806	81.0937	88.9581	106.7713	182.2159	246.0663	334.9228	398.5407	457.644	502.5516	621.1818	767.5785	852.2948	868.2504	985.3903	1045.2867	1053.2975	1072.3256	1092.1996	1254.8203	1263.2653	1390.4734	1409.2868	1467.6472	1471.3146	1744.995	1804.6741	2361.7122	3035.0355	3099.8504	3105.5313	3142.5952	3507.4557
CC#CC(=O)OC=N	CC#CC(=O)O[CH][NH]	
InChI=1S/C5H5NO2/c1-2-3-5(7)8-4-6/h4,6H,1H3	InChI=1S/C5H5NO2/c1-2-3-5(7)8-4-6/h4,6H,1H3
