23
gdb 96386	1.92922	1.60565	1.15738	0.5643	90.37	-0.2569	0.0542	0.3112	1214.0246	0.20671	-351.154616	-351.145425	-351.144481	-351.187884	36.499	
C	-0.0451881154	 1.5606864255	-0.0328219058	-0.413469
C	 0.0468149273	 0.0332962564	-0.0153248769	 0.039774
C	 0.6606185052	-0.5292239911	-1.3076805544	-0.186626
C	 0.7010131794	-2.0645369165	-1.3070682949	-0.199321
C	 1.4324635542	-2.6084910789	-0.0720959082	-0.184928
C	 0.8307691864	-2.0504938879	 1.2234284578	-0.211634
C	 0.8110450578	-0.5002265302	 1.2319372793	-0.159064
C	 2.167006273	 0.0418791381	 1.3287972019	 0.364018
C	 3.2875346817	 0.4725477277	 1.4114958758	-0.508342
H	 0.949114334	 2.0121251116	-0.1064295335	 0.128948
H	-0.638393053	 1.9044924554	-0.8865655044	 0.108043
H	-0.5177406187	 1.9420857178	 0.87913006	 0.107004
H	-0.9727756695	-0.3697106162	 0.0736667823	 0.068138
H	 0.0891679307	-0.1660478993	-2.1700737438	 0.086574
H	 1.6791547764	-0.1338333733	-1.4174794651	 0.105135
H	-0.3274209859	-2.4525244882	-1.3191291923	 0.088712
H	 1.1799141141	-2.4294019722	-2.222721448	 0.089498
H	 1.3944760254	-3.703410746	-0.0576551113	 0.088838
H	 2.4924665177	-2.3300927354	-0.1230311178	 0.108602
H	-0.2047463382	-2.3996435772	 1.3290331448	 0.091206
H	 1.3828612262	-2.4158486009	 2.095072958	 0.100663
H	 0.2615450344	-0.1704508309	 2.1242751706	 0.094584
H	 4.2733695469	 0.8585849319	 1.492651046	 0.193646
104.4819	143.9712	170.0469	225.6227	253.1888	297.7172	326.021	370.6248	409.8212	419.8004	514.5138	598.8049	616.4762	629.1833	630.9592	757.0533	809.9882	848.0641	854.0363	899.471	932.5568	975.6297	981.9454	1007.6681	1039.2502	1091.484	1097.8046	1108.0674	1143.394	1161.0139	1234.1946	1259.4726	1273.0567	1305.4235	1326.8656	1337.8424	1358.8805	1372.1422	1380.2877	1392.1343	1398.3465	1412.5833	1479.6779	1483.0855	1488.2515	1494.9319	1500.4293	1502.3789	2224.6514	2993.5126	3006.4118	3007.7219	3020.58	3024.4668	3029.3622	3030.5879	3058.538	3063.1889	3071.5884	3079.2304	3094.6626	3108.4954	3503.5849
CC1CCCCC1C#C	C[C@H]1CCCC[C@H]1C#C	
InChI=1S/C9H14/c1-3-9-7-5-4-6-8(9)2/h1,8-9H,4-7H2,2H3	InChI=1S/C9H14/c1-3-9-7-5-4-6-8(9)2/h1,8-9H,4-7H2,2H3/t8-,9+/m0/s1
