17
gdb 41442	2.94509	2.10353	1.66597	1.69	71.26	-0.2259	0.0558	0.2817	849.2406	0.136911	-421.697473	-421.691176	-421.690232	-421.727696	26.776	
C	-0.0124561498	 1.547828747	 0.1824361185	-0.311388
C	 1.4894122518	 1.5977983244	-0.3097477595	-0.325279
C	 1.2610591914	 0.1694828821	-0.8371759711	 0.311958
O	 0.4074450546	 0.1467112179	-2.0408803349	-0.334977
C	-0.150871964	-0.8849573322	-1.1904454734	-0.025199
C	 1.3027187109	-1.4015618063	-0.7946966195	 0.017642
O	 1.3236974576	-1.86325082	 0.5184722314	-0.262969
C	 0.4687512608	-0.9161725049	 1.2191591351	-0.143435
C	 0.0270382582	-0.0129821454	 0.0893463199	 0.172685
H	-0.2141014082	 1.9512921913	 1.1759959348	 0.109302
H	-0.6953697082	 1.9971520194	-0.5367182611	 0.135725
H	 1.7659170811	 2.3490873402	-1.0522862048	 0.123127
H	 2.1979471221	 1.6273920824	 0.5214171344	 0.121702
H	-0.996595016	-1.4648956277	-1.5706922608	 0.086639
H	 1.9054459186	-2.0202407101	-1.4582285785	 0.103518
H	-0.3413728366	-1.4676144233	 1.709295385	 0.112832
H	 1.0547403958	-0.3984060647	 1.9886394446	 0.108118
228.1056	251.6468	307.6802	438.4742	456.8711	502.4025	643.383	671.2869	682.3876	710.4648	774.457	804.4348	836.5611	851.7004	908.1396	914.7515	942.9136	966.9892	998.4961	1046.197	1078.4981	1108.8839	1121.9915	1133.0525	1171.9554	1195.4157	1204.4758	1236.2153	1242.0031	1250.6716	1259.4979	1264.483	1312.9358	1380.7013	1458.8972	1471.2277	1516.778	3023.4681	3063.9847	3070.5695	3072.8971	3089.5244	3129.0102	3143.7179	3158.8093
C1CC23OC4C2OCC134	C1C[C@@]23O[C@H]4[C@@H]2OC[C@@]134	
InChI=1S/C7H8O2/c1-2-7-5-4(9-7)6(1,7)3-8-5/h4-5H,1-3H2	InChI=1S/C7H8O2/c1-2-7-5-4(9-7)6(1,7)3-8-5/h4-5H,1-3H2/t4-,5-,6+,7+/m0/s1
