20
gdb 9691	3.92056	1.25435	1.20242	0.7472	72.23	-0.2346	0.0853	0.3199	1125.7567	0.173751	-386.103651	-386.094011	-386.093066	-386.137713	34.526	
C	-0.0059570933	 1.0996795085	 0.3047301324	-0.237865
O	-0.2328297955	-0.0056016471	-0.5502562532	-0.235528
C	-1.3785314309	-0.7194061353	-0.214071222	 0.065632
C	-1.4957466907	-2.1136953614	-0.7606457071	-0.383929
C	-1.3090555745	-1.8898470347	 0.7335622146	 0.385851
C	 0.0022647758	-2.2692709898	 1.3834086698	-0.462355
O	-2.4520588828	-2.0137741415	 1.5358714268	-0.278036
C	-2.8504337725	-3.3470839633	 1.7890691059	-0.245038
H	 0.8944691049	 1.6037130016	-0.053989148	 0.126099
H	-0.8473382365	 1.8079666451	 0.2753150586	 0.11024
H	 0.1461102181	 0.7865198066	 1.3468019154	 0.113677
H	-2.2920809629	-0.1255058929	-0.1579373503	 0.092191
H	-2.4683887594	-2.4319450164	-1.1182307863	 0.116313
H	-0.6476487193	-2.4922616808	-1.321085313	 0.121858
H	 0.8370223266	-1.9270206483	 0.7676546734	 0.134554
H	 0.083050654	-1.8029033974	 2.3709082818	 0.120536
H	 0.0969753123	-3.3529006503	 1.5104040143	 0.115588
H	-3.7971665066	-3.2971401115	 2.3324693195	 0.125134
H	-3.0024496532	-3.9098543843	 0.8568451109	 0.106339
H	-2.1210756737	-3.8899190168	 2.4063804364	 0.108737
98.1171	114.6665	135.8209	161.7005	192.2106	216.74	249.8522	283.8173	345.9263	397.8989	447.9846	459.5304	581.2264	713.1692	812.565	888.0663	924.8502	935.2641	1016.1948	1050.3443	1069.9184	1100.5295	1120.2298	1129.6499	1176.6781	1182.8331	1183.5797	1220.1435	1243.5371	1260.5752	1318.7905	1394.0903	1406.9265	1463.6275	1474.8321	1484.2055	1484.8126	1490.0504	1496.4308	1506.5074	1508.7509	1511.978	2988.2568	2990.8416	3034.1532	3041.7117	3043.1326	3094.1542	3095.242	3114.4608	3119.2898	3128.3642	3135.7337	3227.9545
COC1CC1(C)OC	CO[C@H]1C[C@]1(C)OC	
InChI=1S/C6H12O2/c1-6(8-3)4-5(6)7-2/h5H,4H2,1-3H3	InChI=1S/C6H12O2/c1-6(8-3)4-5(6)7-2/h5H,4H2,1-3H3/t5-,6-/m0/s1
