17
gdb 12911	3.54907	1.74611	1.34254	3.8745	71.1	-0.2356	0.0064	0.242	941.4267	0.141575	-363.844482	-363.836777	-363.835833	-363.876397	28.656	
C	 0.253964066	 1.4159413223	-0.0943741294	-0.504508
C	-0.013545195	-0.0527981642	 0.0199265335	 0.320773
C	-1.3876408228	-0.7433098724	 0.1229693269	-0.274439
C	-0.7407674639	-1.8415659658	 1.0389087713	-0.235014
C	 0.6076328841	-1.1259904468	 0.8914541962	-0.080904
N	 0.8973305127	-1.0602502275	-0.5301584871	-0.101743
C	 2.1533941544	-0.8194206189	-1.0451255507	 0.128202
O	 3.1854101697	-1.2828033962	-0.6168955418	-0.302501
H	 1.309790206	 1.6427470871	 0.0837175552	 0.139586
H	-0.0092907957	 1.7923394772	-1.0898124647	 0.133915
H	-0.3438740012	 1.9690788117	 0.6367099324	 0.131789
H	-2.1199700579	-0.1345825449	 0.6584615337	 0.108546
H	-1.8160328563	-1.076878058	-0.8246781001	 0.110518
H	-1.1269403526	-1.8093740485	 2.0595639594	 0.110943
H	-0.7659794732	-2.8697857079	 0.6721501572	 0.11691
H	 1.4271371252	-1.0597510171	 1.5967828056	 0.119021
H	 2.1050529105	-0.2091105601	-1.9678157376	 0.078906
102.3575	162.9993	208.5996	233.9771	263.8044	307.9432	360.1997	475.8124	593.8809	664.5401	734.2318	788.1114	836.863	918.8864	926.4565	943.7214	973.7891	1004.9258	1034.2533	1054.2934	1115.19	1149.7588	1187.2283	1220.5586	1228.6584	1265.9329	1276.3381	1335.7595	1411.2847	1418.8983	1445.1455	1468.8245	1482.4549	1491.1301	1499.7148	1785.0366	2944.1594	3029.8929	3066.5725	3075.4568	3091.8578	3110.6802	3118.3191	3135.3621	3200.5482
CC12CCC1N2C=O	C[C@]12CC[C@H]1N2C=O	
InChI=1S/C6H9NO/c1-6-3-2-5(6)7(6)4-8/h4-5H,2-3H2,1H3	InChI=1S/C6H9NO/c1-6-3-2-5(6)7(6)4-8/h4-5H,2-3H2,1H3/t5-,6+,7?/m1/s1
