20
gdb 101409	3.05246	1.06295	0.94424	1.676	76.09	-0.2679	0.0201	0.288	1331.4274	0.170425	-440.287892	-440.278427	-440.277483	-440.322568	34.728	
C	-0.0572970959	 1.5459855578	 0.128706581	-0.383436
C	-0.0516551919	 0.0209695535	 0.0004271281	-0.202666
C	 0.7275091891	-0.4714049949	-1.2263744167	 0.106283
O	 2.0745653077	-0.0111075669	-1.2323660353	-0.436081
C	 0.6835935242	-1.9993263817	-1.3559262217	-0.146791
C	 1.478871476	-2.6591599201	-2.5035672293	-0.111943
O	 2.2881114076	-3.3937210029	-1.5253971522	-0.247505
C	 1.6606737035	-2.7644276236	-0.4793527657	 0.422019
N	 1.8995834756	-2.7901593509	 0.7543094568	-0.549942
H	 0.9630121568	 1.9360721604	 0.1692242545	 0.127281
H	-0.5553014847	 2.0133841249	-0.7282600419	 0.111879
H	-0.5827758327	 1.8617767869	 1.0345963646	 0.112761
H	 0.3847257363	-0.440555813	 0.8953281066	 0.130061
H	-1.0806070462	-0.3549986512	-0.0666283701	 0.094136
H	 0.2836435092	-0.0374218624	-2.1323395081	 0.089371
H	 2.4797175452	-0.3097913178	-0.4078368721	 0.290993
H	-0.3418055552	-2.368128067	-1.2682893233	 0.107933
H	 0.9373518401	-3.345531357	-3.1572128153	 0.118921
H	 2.1072550222	-1.9742879973	-3.0759794459	 0.136923
H	 2.6849555931	-3.4074657969	 0.9692998957	 0.229804
67.8605	97.3411	115.0014	161.0457	205.8628	227.4436	289.1422	358.5033	418.8653	446.4258	492.5205	511.3787	727.1387	752.9501	783.0883	799.9297	871.5625	908.3473	940.4401	969.2242	980.3461	1025.9017	1033.3123	1062.1104	1084.0388	1119.0235	1156.5623	1170.2374	1209.469	1245.4246	1260.6078	1305.7491	1318.6886	1354.8064	1380.9954	1393.4259	1409.642	1431.137	1488.985	1495.9256	1505.9875	1509.0812	1807.9355	3022.4445	3026.1926	3037.2726	3064.014	3073.0972	3083.9438	3103.4873	3122.1551	3140.0712	3471.1986	3770.4608
CCC(O)C1COC1=N	CC[C@@H](O)[C@H]1CO[C]1[NH]	
InChI=1S/C6H11NO2/c1-2-5(8)4-3-9-6(4)7/h4-5,7-8H,2-3H2,1H3	InChI=1S/C6H11NO2/c1-2-5(8)4-3-9-6(4)7/h4-5,7-8H,2-3H2,1H3/t4-,5-/m1/s1
