21
gdb 101174	2.26076	1.348	1.10312	2.9926	74.92	-0.228	0.0644	0.2923	1222.6885	0.180589	-461.325314	-461.315314	-461.31437	-461.360225	37.191	
C	 0.238839804	 1.7333117307	 0.3563902918	-0.244187
O	 0.6091869889	 0.4109762224	 0.0236885253	-0.26778
C	 0.7401567514	-0.4804072968	 1.1426656779	 0.112928
C	-0.6259620349	-0.867267296	 1.7158322668	-0.404953
C	 1.5349696403	-1.7139424462	 0.7323401909	-0.14494
C	 1.0701464676	-2.7128150601	-0.31856022	 0.080556
O	-0.0334843946	-2.4093340188	-1.1118634248	-0.426123
C	 2.3069492616	-1.8801246542	-0.565343696	 0.033362
O	 2.2011539079	-0.9479999663	-1.6031053603	-0.435405
H	 0.9207184622	 2.1641049231	 1.104711966	 0.112425
H	 0.2989815852	 2.3238153158	-0.560714612	 0.133944
H	-0.786681261	 1.789740182	 0.7419703683	 0.123396
H	 1.3227684369	 0.0503214253	 1.9137778185	 0.071914
H	-1.2184403844	-1.3552722967	 0.939257501	 0.157742
H	-0.4918342569	-1.5660040029	 2.5475458541	 0.117802
H	-1.1693096136	 0.0011283685	 2.0995920052	 0.10861
H	 2.0240867441	-2.1684766522	 1.5908991135	 0.093468
H	 1.1581584838	-3.7734933302	-0.0980012021	 0.090936
H	 0.3057704768	-1.8212933233	-1.8058142066	 0.285657
H	 3.2898390835	-2.3416788239	-0.5206357031	 0.09771
H	 1.7793359012	-0.16104067	-1.2214250746	 0.302939
58.6457	86.6797	149.0601	193.76	224.8113	250.8941	259.6531	299.5761	324.2019	397.0013	424.1387	439.3431	574.2264	654.5214	668.3678	721.1925	751.7794	778.3071	829.9386	902.0137	994.826	1030.0383	1055.0721	1061.9655	1111.6003	1114.615	1130.6592	1168.7786	1171.834	1184.4812	1222.9887	1244.7463	1335.4948	1352.1192	1367.9092	1387.3976	1397.0771	1402.0323	1427.2617	1466.6228	1481.3922	1483.6404	1499.1613	1504.8874	1515.3465	2960.3805	2992.9057	3044.3216	3058.0507	3108.9626	3120.3488	3127.9952	3132.125	3144.148	3146.3159	3650.0294	3683.8532
COC(C)C1C(O)C1O	CO[C@@H](C)[C@H]1[C@@H](O)[C@H]1O	
InChI=1S/C6H12O3/c1-3(9-2)4-5(7)6(4)8/h3-8H,1-2H3	InChI=1S/C6H12O3/c1-3(9-2)4-5(7)6(4)8/h3-8H,1-2H3/t3-,4-,5+,6-/m0/s1
