23
gdb 94564	2.77426	1.25379	1.10975	1.5767	85.26	-0.2427	0.077	0.3197	1244.4231	0.206484	-388.265553	-388.256494	-388.25555	-388.299595	34.405	
C	-0.6062208535	 1.3571211236	-0.0818789784	-0.423532
C	 0.1044761134	 0.0102665056	-0.0795791751	 0.045616
C	 1.5696008207	-0.0673152798	-0.5933256815	-0.218009
C	 1.9017801913	-1.0519847933	 0.5578887523	-0.228278
C	 0.5849195457	-0.6265978544	 1.2727973473	-0.039708
C	 0.7519657644	 0.3348366959	 2.4327165647	 0.147439
C	 1.5610362851	-0.1213863518	 3.6695511322	-0.298817
C	 2.3885514945	 1.1536195573	 3.4213040229	-0.059097
O	 1.6982508143	 1.4116092546	 2.1810223945	-0.289423
H	-0.0218375767	 2.1138873163	 0.4499008116	 0.140511
H	-0.758159597	 1.7080211502	-1.1090087384	 0.10731
H	-1.5935534745	 1.2937405029	 0.3906692111	 0.105315
H	-0.5098465427	-0.7257158262	-0.6110723225	 0.06553
H	 1.7227820632	-0.4168930206	-1.6177251547	 0.08495
H	 2.0863456757	 0.885935304	-0.4588528395	 0.114784
H	 1.8755021362	-2.0982107135	 0.2417619741	 0.092952
H	 2.8361913503	-0.875815171	 1.096291757	 0.094956
H	-0.0418180413	-1.4505397165	 1.6356580944	 0.063371
H	-0.2269563134	 0.7565826193	 2.7045206196	 0.071616
H	 1.0165918333	-0.1795167305	 4.6130555616	 0.106975
H	 2.114288069	-1.0496645116	 3.5130934132	 0.11251
H	 2.22573928	 1.9575089885	 4.1514246404	 0.09881
H	 3.4664648118	 1.0251470312	 3.2705956635	 0.104221
82.6704	96.2428	121.978	159.3166	240.5315	251.46	282.2466	361.4176	474.9528	538.668	674.2716	699.5958	750.9241	800.4646	851.78	890.851	901.2381	918.2643	934.4583	951.9041	968.7685	992.6252	1025.0399	1029.0619	1076.2761	1115.8864	1137.8443	1143.8272	1160.669	1175.5362	1215.731	1217.3916	1249.4623	1259.9874	1266.6208	1273.4557	1281.4789	1296.842	1342.9316	1371.3566	1379.91	1385.9151	1410.1559	1471.8986	1489.8771	1492.3271	1496.5481	1508.1506	1530.8784	2988.2877	3010.5631	3023.0329	3024.2716	3037.4667	3055.2795	3056.386	3062.4016	3078.062	3082.6914	3101.2202	3111.203	3121.8142	3133.4198
CC1CCC1C1CCO1	C[C@H]1CC[C@H]1[C@H]1CCO1	
InChI=1S/C8H14O/c1-6-2-3-7(6)8-4-5-9-8/h6-8H,2-5H2,1H3	InChI=1S/C8H14O/c1-6-2-3-7(6)8-4-5-9-8/h6-8H,2-5H2,1H3/t6-,7+,8+/m0/s1
