23
gdb 100110	3.41623	0.89013	0.87926	0.4578	82.4	-0.2361	0.0708	0.3068	1472.9696	0.202227	-425.401546	-425.390716	-425.389772	-425.437751	40.107	
C	 0.0578783786	 1.57854359	 0.3804949929	-0.425592
C	 0.0516059921	 0.0866390796	 0.0218006592	 0.365892
C	 0.7826717136	-0.7420865614	 1.0842073173	-0.41544
C	-1.3955801209	-0.4076680248	-0.1345470837	-0.105206
O	-2.0664893936	-0.2597792309	 1.1075648236	-0.421809
O	 0.5780149131	-0.1412506501	-1.2980675708	-0.302215
C	 1.8959984069	 0.2339475743	-1.5479459003	 0.143525
C	 3.011997706	-0.7721903462	-1.4046870686	-0.284745
C	 2.5129517169	-0.3591210222	-2.7745698049	-0.291476
H	 1.064747673	 1.9410958172	 0.6055422917	 0.110424
H	-0.3491972213	 2.16762539	-0.4472972011	 0.114562
H	-0.5660337438	 1.7420602547	 1.2621081256	 0.136525
H	 0.2548567462	-0.6624371776	 2.0375483442	 0.133303
H	 0.8097595543	-1.7967872125	 0.7935388188	 0.110003
H	 1.8096054679	-0.3953331164	 1.2232825975	 0.115131
H	-1.8784448815	 0.1784201679	-0.9298414718	 0.091466
H	-1.3682965951	-1.458090084	-0.4590527359	 0.090494
H	-2.97228027	-0.5602472726	 0.9966208974	 0.291439
H	 2.1283553588	 1.2738162843	-1.3267238809	 0.085133
H	 3.9862404582	-0.4281741034	-1.073467692	 0.108319
H	 2.7384871233	-1.7632767496	-1.0631516378	 0.117637
H	 1.9070795545	-1.0780294884	-3.3143374398	 0.121729
H	 3.138159163	 0.269783982	-3.3981796608	 0.110901
30.493	93.1546	129.9557	149.0334	209.7861	232.9428	257.6816	268.9502	307.9486	332.2212	356.6423	402.5945	430.2293	489.3652	580.1286	737.648	762.0299	812.2202	826.1748	901.0737	914.8342	958.4827	961.55	987.5213	1024.3568	1041.1072	1057.2015	1069.2424	1091.1095	1131.8252	1172.7497	1193.4585	1195.6587	1198.0567	1241.1718	1243.7135	1294.4085	1297.3789	1390.1862	1394.7319	1408.6512	1451.9127	1453.4911	1483.4943	1485.302	1493.4116	1501.8969	1507.2771	1524.9252	2987.1368	3025.5116	3041.8506	3046.9864	3110.8367	3116.6948	3121.5413	3129.4246	3133.9095	3134.7835	3140.6601	3220.0739	3234.3086	3844.3692
CC(C)(CO)OC1CC1	CC(C)(CO)OC1CC1	
InChI=1S/C7H14O2/c1-7(2,5-8)9-6-3-4-6/h6,8H,3-5H2,1-2H3	InChI=1S/C7H14O2/c1-7(2,5-8)9-6-3-4-6/h6,8H,3-5H2,1-2H3
