18
gdb 127056	5.79631	0.74042	0.66475	3.6674	74.76	-0.2477	0.0034	0.2511	1659.3462	0.147936	-435.258452	-435.249437	-435.248493	-435.294253	31.255	
C	-0.0110995585	 1.4993720779	-0.0090367519	-0.387791
C	 0.0113223533	-0.0193783151	-0.0141192367	-0.022884
O	 0.677722022	-0.4552939809	-1.183216951	-0.249727
C	 0.7549721875	-1.8584316283	-1.2881306324	-0.159535
C	 1.4747885801	-2.1958694306	-2.5525611006	 0.289182
C	 2.0007548602	-1.3530003309	-3.5009399613	-0.149734
N	 2.530612897	-2.1974944492	-4.4182764427	-0.155046
N	 2.3508996558	-3.4839222843	-4.0718283264	-0.117276
N	 1.709276832	-3.482693809	-2.9380615533	-0.258832
H	 1.0072777167	 1.8981430962	-0.0178024779	 0.126538
H	-0.5364850538	 1.8782732612	-0.8902803141	 0.126542
H	-0.5211897963	 1.8695498135	 0.8850878995	 0.118142
H	 0.5284452059	-0.4034060053	 0.8811727096	 0.090451
H	-1.014734227	-0.4232564793	 0.0089637565	 0.090448
H	 1.2867051849	-2.2906215304	-0.4235411857	 0.1108
H	-0.2514582724	-2.3102168938	-1.2939566527	 0.110807
H	 2.0348774141	-0.2816281275	-3.5852910025	 0.156358
H	 3.0130853985	-1.9814486643	-5.2756915764	 0.281557
23.3351	69.5378	100.4638	109.3572	242.1144	271.3278	276.3187	348.0687	494.5824	573.8949	670.6883	728.1859	750.4514	796.9951	820.6629	908.0315	986.8168	1036.0447	1046.3266	1050.8104	1058.1966	1126.5964	1146.1976	1170.8924	1188.9012	1243.5423	1264.0004	1295.3216	1296.6081	1340.0792	1388.5467	1406.4605	1448.2394	1483.5102	1496.2569	1499.2492	1509.2934	1534.3889	1603.2698	2953.1073	2963.935	2976.7509	2984.9157	3045.406	3120.8735	3121.6037	3305.1181	3661.1042
CCOCC1=CNN=N1	CCOCc1c[nH]nn1	
InChI=1S/C5H9N3O/c1-2-9-4-5-3-6-8-7-5/h3H,2,4H2,1H3,(H,6,7,8)	InChI=1S/C5H9N3O/c1-2-9-4-5-3-6-8-7-5/h3H,2,4H2,1H3,(H,6,7,8)
