25
gdb 59721	2.11899	1.33904	1.07114	0.2637	94.32	-0.2236	0.0349	0.2585	1325.0394	0.228673	-352.387025	-352.376765	-352.375821	-352.421996	38.902	
C	 0.5619467719	-0.5738420146	-1.5793123013	-0.390236
C	 0.0432626045	-0.0472926838	-0.2339460993	 0.031469
C	 0.2532671083	 1.4685170763	-0.1134875895	-0.395045
C	-1.4349021722	-0.4374135001	 0.0501492965	-0.06574
C	-2.464448791	 0.0049941045	-1.0330742791	-0.229785
C	-2.9349632499	-1.2904068393	-1.7476493091	-0.250955
C	-2.4596346756	-2.3831971672	-0.8256685198	-0.167217
C	-1.6559355942	-1.940258598	 0.1430827393	 0.331097
C	-1.0174341029	-2.7653468945	 1.2186251425	-0.498725
H	 1.6312220582	-0.3655020338	-1.6902698412	 0.107215
H	 0.4158016135	-1.6541118815	-1.670095809	 0.116961
H	 0.0489705691	-0.0954730438	-2.4211793509	 0.112122
H	 0.6450673155	-0.5172232695	 0.556625121	 0.069102
H	-0.3137495304	 2.0151310081	-0.875496126	 0.11397
H	-0.0669179767	 1.8380598063	 0.8668185649	 0.10715
H	 1.3091293433	 1.7293875744	-0.2420814813	 0.107449
H	-1.6853875268	 0.0277769223	 1.0148226353	 0.06118
H	-3.3179390503	 0.4884933296	-0.5494076902	 0.098838
H	-2.0504427166	 0.7353036681	-1.7330782609	 0.095959
H	-4.0216272759	-1.3083306816	-1.8951312063	 0.097282
H	-2.4933573537	-1.3962857292	-2.748467234	 0.101493
H	-2.740786456	-3.4234372659	-0.9603602732	 0.079214
H	-1.3182011577	-3.8144578365	 1.1501117171	 0.12032
H	 0.0777145949	-2.7270748075	 1.1666741355	 0.126136
H	-1.2926236892	-2.3967748728	 2.215494149	 0.120747
59.2907	96.7178	168.0602	182.7166	219.2147	237.1042	248.279	254.7075	285.9171	374.6518	383.3129	500.2751	540.6144	613.7628	708.9627	744.124	831.6539	853.5124	885.5362	922.5146	930.0802	934.7693	962.7694	977.7837	1016.8892	1035.3706	1053.6411	1060.8336	1117.0543	1148.2006	1171.5383	1178.8915	1208.4862	1246.1315	1278.3993	1292.7476	1314.6014	1325.7875	1355.454	1364.0289	1380.5904	1400.3386	1414.3751	1421.2022	1480.9528	1481.5487	1487.6808	1490.4195	1492.5855	1499.5353	1508.8683	1511.7051	1723.7239	2985.4233	3002.1596	3006.7129	3017.2138	3024.8283	3033.0325	3038.6257	3060.4867	3062.1987	3090.2794	3092.156	3095.0239	3099.7581	3107.38	3108.6634	3174.1087
CC(C)C1CCC=C1C	CC(C)[C@H]1CCC=C1C	
InChI=1S/C9H16/c1-7(2)9-6-4-5-8(9)3/h5,7,9H,4,6H2,1-3H3	InChI=1S/C9H16/c1-7(2)9-6-4-5-8(9)3/h5,7,9H,4,6H2,1-3H3/t9-/m1/s1
