19
gdb 90602	2.37465	1.6498	1.2427	4.449	78.11	-0.2215	0.0267	0.2482	1084.107	0.158748	-419.173936	-419.165037	-419.164093	-419.207887	32.542	
C	 0.4872300755	 1.4406647481	-0.4585974479	-0.412752
C	 0.1033347514	 0.0446157522	-0.0191433813	 0.139675
O	 0.7682835178	-0.9957724671	-0.7877172688	-0.30757
C	 1.2234998392	-1.6685619792	 0.4038379769	 0.024753
C	 0.6445924585	-0.5500141446	 1.3116631488	-0.088122
N	 2.0186481413	-0.2240611968	 1.6716090163	-0.057462
C	 2.579753796	 0.88423861	 2.3982753726	-0.352483
C	 2.6067301362	-1.1929631132	 0.8600198747	 0.367462
N	 3.781297876	-1.559068676	 0.5662321883	-0.569072
H	 1.566580613	 1.5918603394	-0.3784664236	 0.130726
H	 0.2015521546	 1.594368501	-1.503663718	 0.135117
H	-0.0274649829	 2.1930699351	 0.1489414749	 0.115588
H	-0.9851915217	-0.0970498576	-0.0846039578	 0.079584
H	 0.9768433759	-2.7295440801	 0.436025535	 0.100942
H	-0.0458074799	-0.6869507301	 2.145678642	 0.086998
H	 3.6187540861	 0.6497993955	 2.6500689674	 0.139025
H	 2.5682895717	 1.8260000636	 1.8331692073	 0.12758
H	 2.0346547625	 1.0383808802	 3.3360119272	 0.133214
H	 4.4907592188	-0.9702718202	 1.0069400761	 0.206795
75.5258	88.7228	118.1358	194.3785	237.8925	255.7084	275.8628	391.8373	415.1919	577.2084	644.1057	668.0023	747.739	814.6162	818.454	838.4983	883.0504	916.6348	963.4837	984.9217	1031.0428	1074.8964	1095.366	1139.3056	1143.4299	1169.4203	1185.6242	1231.9795	1281.7913	1284.1792	1298.9085	1325.6063	1378.4892	1397.2613	1409.9553	1452.4605	1476.6964	1484.5431	1497.7887	1513.5639	1783.2029	2997.795	3004.4338	3038.6504	3066.2097	3094.4136	3104.3738	3108.0119	3123.9998	3126.0709	3452.6722
CC1OC2C1N(C)C2=N	C[C@H]1O[C@@H]2[C@H]1N(C)[C]2[NH]	
InChI=1S/C6H10N2O/c1-3-4-5(9-3)6(7)8(4)2/h3-5,7H,1-2H3	InChI=1S/C6H10N2O/c1-3-4-5(9-3)6(7)8(4)2/h3-5,7H,1-2H3/t3-,4+,5-/m1/s1
