20
gdb 18601	3.2354	1.96845	1.60649	1.5826	72.97	-0.2515	0.0611	0.3126	887.6843	0.179618	-349.009925	-349.002676	-349.001732	-349.041364	29.128	
O	 0.5085849009	 0.8680965463	-0.9106504829	-0.429256
C	 0.0907993908	-0.2073544622	-0.1027195994	 0.152395
C	 0.1852180191	-0.0710531895	 1.4411187624	-0.283276
C	-1.2745921981	-0.6000788268	 1.5759059535	 0.005235
C	-2.2947693713	 0.3889162358	 2.1552755088	-0.207802
C	-2.4805326165	 1.4398002606	 1.0426461994	-0.212766
C	-2.4121275249	 0.6198778214	-0.2645650395	-0.226468
C	-1.4331837637	-0.5363640547	 0.0142688225	-0.048271
H	 0.1209203813	 1.6763027302	-0.5593548809	 0.279716
H	 0.650792904	-1.0714166587	-0.4709412012	 0.087185
H	 0.9674569643	-0.6579234678	 1.9288003439	 0.099195
H	 0.2973364434	 0.9703404113	 1.7645441247	 0.089775
H	-1.3392484443	-1.5928218198	 2.0245315758	 0.061981
H	-3.2459036282	-0.1261068431	 2.3384814736	 0.095471
H	-1.9724600618	 0.8251268996	 3.1068985006	 0.093731
H	-3.4121833118	 2.0042688832	 1.1401798636	 0.09726
H	-1.6667810677	 2.1759683234	 1.0813868783	 0.085642
H	-3.4012509976	 0.2072895762	-0.4908251924	 0.099009
H	-2.1121051421	 1.215980877	-1.132541958	 0.099845
H	-1.7295739257	-1.4513804024	-0.5030096628	 0.061399
66.6885	215.2284	257.5018	299.6739	353.2543	408.7179	514.1284	550.0892	603.0241	715.6441	756.5488	816.2064	846.677	874.8186	881.6599	921.9288	948.5964	965.7223	993.312	1031.7262	1050.9305	1070.5876	1104.6187	1137.1526	1156.6519	1165.1192	1195.7305	1238.6984	1256.392	1270.4385	1278.6865	1303.8457	1313.8952	1319.1874	1336.7064	1352.8854	1357.3244	1435.415	1475.3855	1483.9072	1491.9346	1508.012	3018.3331	3028.5279	3038.6861	3040.6663	3063.8082	3073.8065	3077.7922	3081.3554	3087.1816	3091.3336	3105.9065	3811.0856
OC1CC2CCCC12	O[C@H]1C[C@H]2CCC[C@@H]12	
InChI=1S/C7H12O/c8-7-4-5-2-1-3-6(5)7/h5-8H,1-4H2	InChI=1S/C7H12O/c8-7-4-5-2-1-3-6(5)7/h5-8H,1-4H2/t5-,6-,7+/m1/s1
