16
gdb 66729	2.80051	1.63556	1.26947	3.2182	75.13	-0.232	-0.0256	0.2063	1003.8603	0.122656	-400.64333	-400.635708	-400.634764	-400.675511	28.868	
C	-0.0016602003	 1.4916513728	-0.0115087249	-0.519257
C	-0.0071205619	 0.0047825165	-0.051002448	 0.32362
C	-0.1308608903	-1.0147925644	-1.1266066669	-0.225725
C	 0.7781807898	-1.9404279869	-0.2869974962	-0.042633
C	-0.1724951304	-1.9206599245	 0.8536324913	-0.134901
N	 0.9240301934	-0.8865552578	 0.7778381032	-0.202209
C	-1.1461127766	-1.0266399412	 0.0719418524	 0.255081
C	-2.5843753782	-0.8526361978	 0.0215461026	 0.0025
O	-3.3800167035	-1.4684050247	 0.6972728356	-0.280393
H	 0.9745365186	 1.8742143453	-0.328427838	 0.141557
H	-0.763603167	 1.9007098174	-0.6820064272	 0.133548
H	-0.1995094622	 1.8551807729	 1.0017423272	 0.14428
H	-0.3712928656	-0.9345422257	-2.177845731	 0.114202
H	 1.5800990722	-2.6186157987	-0.5495828541	 0.111822
H	-0.2978362863	-2.5772175028	 1.7043418409	 0.117333
H	-2.9186478516	-0.0774599704	-0.7076204869	 0.061174
97.2475	149.8518	203.3358	235.9041	261.8945	321.3913	471.0697	594.9174	668.8799	689.1748	713.9895	783.0641	798.8891	854.4884	871.0415	899.2963	925.4066	943.5776	980.52	1012.7274	1035.0963	1072.2661	1092.5089	1120.8234	1173.0467	1182.2266	1242.0591	1309.2981	1378.0997	1399.3354	1419.3686	1467.6982	1472.3836	1496.9017	1782.2202	2849.2879	3034.7312	3103.1006	3114.0005	3191.8326	3210.0561	3216.9091
CC12C3C4C(N14)C23C=O	C[C@@]12[C@H]3[C@@H]4[C@@H](N14)[C@@]23C=O	
InChI=1S/C7H7NO/c1-6-4-3-5(8(3)6)7(4,6)2-9/h2-5H,1H3	InChI=1S/C7H7NO/c1-6-4-3-5(8(3)6)7(4,6)2-9/h2-5H,1H3/t3-,4-,5-,6+,7+,8?/m1/s1
