15
gdb 34476	1.93464	1.73292	0.93348	6.2676	81.72	-0.2789	-0.0899	0.189	1185.4385	0.114271	-379.723522	-379.715491	-379.714547	-379.756575	28.879	
N	 0.1211057854	-1.1549879769	 0.0509676389	-0.32718
C	 0.0295966088	-0.0003877425	 0.0625490396	 0.214193
C	-0.0208907444	 1.4174879372	 0.0790319391	 0.129284
C	-1.1393168672	 2.1721648747	 0.0982772664	 0.129284
C	-0.8143294959	 3.6525340112	 0.0598004419	-0.308497
C	 0.7006757044	 3.6856703015	 0.3734466297	-0.225476
C	 1.2291470211	 2.2736636823	 0.0246371707	-0.308497
C	-2.4731412098	 1.688376967	 0.105614919	 0.214189
N	-3.5781017501	 1.3411149374	 0.1146217776	-0.327177
H	-1.0444840163	 4.0506681365	-0.9369377611	 0.140325
H	-1.4152717303	 4.2246838038	 0.7719547952	 0.139791
H	 1.2227328963	 4.4732857217	-0.1728027314	 0.121933
H	 0.8460619275	 3.8739116567	 1.4408375152	 0.127712
H	 2.0011919032	 1.9193672265	 0.7131656714	 0.139791
H	 1.6607795079	 2.2252457156	-0.9834888324	 0.140325
107.5709	126.13	127.8064	199.2639	204.5612	369.5439	467.901	494.6078	524.6328	576.9069	618.0556	668.666	685.0388	847.2478	895.1637	924.6203	1001.4826	1020.2456	1053.0703	1158.0586	1159.0677	1196.4996	1230.541	1260.6881	1324.7317	1329.8624	1350.7259	1481.1087	1481.1536	1503.5779	1662.7447	2333.3407	2343.1387	3030.2348	3031.5139	3065.827	3089.7637	3092.014	3122.1222
N#CC1=C(CCC1)C#N	N#CC1=C(CCC1)C#N	
InChI=1S/C7H6N2/c8-4-6-2-1-3-7(6)5-9/h1-3H2	InChI=1S/C7H6N2/c8-4-6-2-1-3-7(6)5-9/h1-3H2
