16
gdb 49481	3.278	1.17785	0.89763	2.7215	73.41	-0.2323	-0.0847	0.1476	1239.0499	0.124286	-437.922573	-437.914005	-437.913061	-437.956343	30.663	
O	-0.8992101438	 0.7023849527	-0.9186618554	-0.263271
C	 0.1029961677	 0.6928409638	-0.2403652625	 0.076879
C	 1.1328273328	 1.7530323264	-0.2793124223	 0.103711
C	 1.0827815696	 2.8863663324	-1.0047768783	-0.125532
C	 2.2662487702	 3.7859168612	-0.7881884645	-0.282181
C	 3.2274811067	 2.9578010321	 0.0904565057	-0.072873
N	 3.8549476835	 3.7120189419	 1.1686848587	-0.510017
H	 4.4100841879	 3.0654581492	 1.7253999317	 0.244926
H	 3.1352103051	 4.056791817	 1.8008460861	 0.228033
C	 2.3767334338	 1.7421209241	 0.5322439763	 0.286399
O	 2.680893446	 0.9578665172	 1.4020208755	-0.330679
H	 0.3204902457	-0.1307172009	 0.4682438742	 0.103531
H	 0.2602816758	 3.1382896532	-1.6663196341	 0.146846
H	 2.7111483048	 4.1108858373	-1.7347371811	 0.136463
H	 1.9559646471	 4.7065371526	-0.2750924991	 0.138222
H	 4.030188647	 2.5534761695	-0.5409315409	 0.119543
54.0771	128.6165	164.8611	214.5115	234.7014	251.2156	314.2279	371.5171	422.7259	540.8768	624.7234	683.344	796.3127	819.4481	845.434	908.9975	934.6084	973.4276	1001.6698	1036.4384	1055.5962	1142.0105	1156.95	1208.6151	1256.505	1279.2371	1315.0318	1318.8814	1405.3124	1430.1599	1462.2544	1652.6789	1666.7948	1793.3218	1812.8351	2943.8156	3021.239	3027.7985	3071.5711	3200.1718	3468.9358	3543.9205
O=C[C-]1C2CC([NH2+]2)C1=O	O=CC1=CC[C@@H](N)C1=O	
InChI=1S/C6H6NO2/c8-2-3-4-1-5(7-4)6(3)9/h2,4-5,7H,1H2/q-1/p+1	InChI=1S/C6H7NO2/c7-5-2-1-4(3-8)6(5)9/h1,3,5H,2,7H2/t5-/m1/s1
