21
gdb 41753	2.13575	2.03818	1.74631	0.2483	86.11	-0.2253	0.0167	0.242	959.2166	0.187188	-349.976967	-349.969818	-349.968874	-350.008079	30.112	
C	 0.2025219289	 1.6045985734	-0.2744035801	-0.199149
C	 1.5288478817	 2.1406806993	 0.3242034582	-0.193464
C	 2.4196703054	 0.9915422217	 0.8692920479	-0.094955
C	 1.5836315941	 0.1676404028	 1.8309740463	-0.064085
C	 0.3889212917	-0.248462106	 1.4160861108	-0.069086
C	-0.0368136142	 0.0942619466	 0.0053725692	-0.056753
C	 0.7091114515	-0.790124622	-1.0228814641	-0.250276
C	 2.2067890847	-0.6253908457	-1.0710739567	-0.026141
C	 2.9539561273	 0.1346388152	-0.2698930577	-0.07362
H	-0.6357985369	 2.1713225737	 0.1422880106	 0.096596
H	 0.176071963	 1.7684375237	-1.3571023409	 0.093642
H	 2.0871551551	 2.7106575733	-0.4253696134	 0.093256
H	 1.3161057316	 2.8254235963	 1.1519925963	 0.092867
H	 3.2703467109	 1.4316466953	 1.3974881578	 0.060898
H	 1.9691051404	-0.0574392768	 2.8207898396	 0.085016
H	-0.2676765631	-0.8414855568	 2.0460495657	 0.082473
H	-1.105723054	-0.1105182342	-0.1180604563	 0.062466
H	 0.4733148252	-1.8491158506	-0.8367777503	 0.100631
H	 0.3019364153	-0.5766912825	-2.0227448395	 0.099227
H	 2.7054447201	-1.2042533389	-1.8471834098	 0.0798
H	 4.0292371214	 0.1590610822	-0.4302444535	 0.080658
115.5074	244.2256	298.4954	323.4818	354.1768	450.5343	516.4156	557.931	611.4563	704.2599	734.0942	753.0341	790.9764	793.9107	862.6272	898.499	917.4184	950.777	959.8383	968.1898	977.6695	1002.1188	1035.8075	1045.1241	1095.9415	1098.7526	1165.1162	1208.3666	1216.716	1226.3443	1247.3734	1276.8349	1306.4122	1343.6103	1346.293	1357.4794	1371.562	1384.3847	1408.9543	1420.7413	1466.1996	1483.246	1503.0159	1704.3856	1722.9228	2986.1473	3008.5148	3029.9852	3037.8202	3046.7022	3058.8276	3066.5451	3088.4616	3127.4317	3155.8327	3157.0231	3181.4109
C1CC2C=CC1CC=C2	C1C[C@H]2C=C[C@@H]1CC=C2	
InChI=1S/C9H12/c1-2-8-4-6-9(3-1)7-5-8/h1-2,4,6,8-9H,3,5,7H2	InChI=1S/C9H12/c1-2-8-4-6-9(3-1)7-5-8/h1-2,4,6,8-9H,3,5,7H2/t8-,9+/m1/s1
