19
gdb 90266	3.41033	1.46834	1.22971	2.9601	74.84	-0.2344	0.0653	0.2996	1042.4868	0.15988	-422.965018	-422.957354	-422.95641	-422.997185	30.423	
O	-0.1301400692	 1.4518464967	 0.0181898556	-0.425722
C	 0.0068286945	 0.0474684129	 0.0141339726	 0.114802
C	 0.3528421261	-0.6105132625	 1.3958046294	-0.38376
C	-1.0909155791	-1.0948403431	 1.4832086087	 0.327836
C	-1.8158847962	-2.2364803934	 2.1762372569	-0.184407
O	-2.9999523152	-1.4146595494	 2.3424975634	-0.297997
C	-2.302336726	-0.2203029129	 1.9077415033	 0.08272
C	-2.6016914166	 0.1742586166	 0.4428741352	-0.249681
C	-1.3806363189	-0.6754766551	 0.0014363166	-0.092385
H	 0.740723952	 1.8370859231	 0.1570799481	 0.286219
H	 0.6680745094	-0.2775727453	-0.7997060897	 0.069412
H	 1.0744770461	-1.4273669365	 1.2885112829	 0.101462
H	 0.7012681175	 0.0669026623	 2.1822816079	 0.097206
H	-2.0135028611	-3.1426149325	 1.5896546567	 0.099556
H	-1.3918109592	-2.5260603966	 3.1491827642	 0.096072
H	-2.2813425749	 0.5508658226	 2.6845827861	 0.068909
H	-3.5662548884	-0.2064393487	 0.1000634202	 0.105874
H	-2.5208165473	 1.2384538595	 0.2162132584	 0.120889
H	-1.5079820335	-1.3987691276	-0.8055717464	 0.062995
66.7225	189.5887	252.7238	283.0238	304.1729	387.3603	404.8709	466.3261	552.4013	665.5223	718.5418	786.1717	797.056	848.1163	882.7584	891.8684	950.6218	985.3739	996.1358	1003.9038	1028.4378	1034.2673	1112.9983	1120.8244	1127.9307	1163.3896	1181.1341	1209.8223	1216.3359	1223.7351	1253.2058	1271.3038	1292.8106	1296.0807	1312.3167	1331.0475	1376.1032	1410.0895	1457.4925	1469.2356	1518.2411	2988.0057	3004.4609	3037.8662	3041.6556	3053.3343	3073.9805	3089.6285	3094.2888	3136.5543	3819.4009
OC1CC23COC2CC13	O[C@H]1C[C@@]23CO[C@@H]2C[C@@H]13	
InChI=1S/C7H10O2/c8-5-2-7-3-9-6(7)1-4(5)7/h4-6,8H,1-3H2	InChI=1S/C7H10O2/c8-5-2-7-3-9-6(7)1-4(5)7/h4-6,8H,1-3H2/t4-,5-,6+,7-/m0/s1
