21
gdb 115758	3.5553	0.84809	0.73362	1.1542	84.66	-0.2567	0.0544	0.3111	1556.373	0.181011	-387.038574	-387.028657	-387.027713	-387.073783	36.629	
O	-0.0766408243	 1.4802656682	-0.3345136528	-0.4263
C	 0.0369790511	 0.1151285051	 0.0429744016	-0.082129
C	-1.364001574	-0.4760415803	 0.0246722553	-0.010255
C	-1.9339679687	-0.6573408962	-1.4119910771	-0.219125
C	-1.5658216829	-2.1649029566	-1.3450779712	-0.223484
C	-1.4495918131	-2.0280946351	 0.1965996246	 0.028517
C	-0.340976545	-2.7898684924	 0.9382047954	-0.394078
C	-0.540975523	-4.2342710115	 0.8946658996	 0.297267
C	-0.7328210962	-5.4199222035	 0.8422484846	-0.4348
H	 0.8059134831	 1.8614152337	-0.3555291614	 0.285154
H	 0.6940784617	-0.430599059	-0.6541484579	 0.08266
H	 0.4759916668	 0.0183987625	 1.0493690625	 0.083621
H	-1.9833578716	 0.1065624622	 0.7128805141	 0.07373
H	-3.0144534536	-0.4970706337	-1.4480137176	 0.0999
H	-1.4677669351	-0.0524323979	-2.1923946058	 0.106703
H	-2.288954948	-2.8866497062	-1.729796433	 0.101761
H	-0.5961044617	-2.374313641	-1.8077687231	 0.099079
H	-2.4080179733	-2.2817130026	 0.6601427294	 0.085724
H	 0.6373103731	-2.5498393059	 0.5025838236	 0.124985
H	-0.2999956153	-2.4595653607	 1.9848851151	 0.128558
H	-0.8912682899	-6.4688436692	 0.8010704942	 0.192512
61.4252	95.9239	110.6795	138.0508	183.3984	258.2072	277.0099	334.6004	356.069	399.6087	475.1755	512.5502	617.7504	632.5333	698.4386	766.0891	839.7354	870.5726	894.4153	927.8045	945.8942	965.0157	988.1616	1066.387	1072.363	1097.3732	1125.9496	1155.8397	1186.7233	1224.0595	1237.7862	1253.5424	1262.2781	1266.9154	1288.9678	1299.63	1331.874	1366.3209	1382.7118	1460.0449	1471.9776	1482.2664	1497.9253	1523.3774	2236.7584	2956.9965	2983.4705	3015.8191	3042.7699	3053.0045	3057.9146	3064.0171	3072.0551	3107.6591	3122.9833	3507.6662	3829.9521
OCC1CCC1CC#C	OC[C@H]1CC[C@H]1CC#C	
InChI=1S/C8H12O/c1-2-3-7-4-5-8(7)6-9/h1,7-9H,3-6H2	InChI=1S/C8H12O/c1-2-3-7-4-5-8(7)6-9/h1,7-9H,3-6H2/t7-,8-/m1/s1
