19
gdb 106156	2.42459	1.53826	1.21408	0.5311	75.99	-0.2339	0.072	0.3059	1094.2586	0.158989	-422.96318	-422.95472	-422.953775	-422.996195	32.668	
O	 0.0695453332	 1.2741621679	 0.4422489553	-0.422257
C	 0.0070169704	-0.0436219661	-0.1000446388	-0.249696
C	-1.4056267033	-0.493282469	-0.1127778199	 0.344394
C	-2.3738503167	-0.825916489	 1.0152862384	-0.178426
C	-3.4372107324	 0.1108247302	 0.4512658534	-0.231587
C	-2.7072344341	-0.0604096612	-0.9101769993	-0.115008
C	-2.92807162	-1.5574481977	-1.2839209092	-0.295077
C	-2.0395949425	-1.8570376582	-0.080337891	 0.325397
O	-1.3771209413	-3.0343084352	 0.2087241704	-0.469422
H	 0.9811453235	 1.5753981656	 0.3777796317	 0.284132
H	 0.4198343582	-0.0635377257	-1.122001076	 0.088802
H	 0.5957930988	-0.7545344261	 0.5014664551	 0.099328
H	-2.113687263	-1.0296741577	 2.0470468334	 0.084139
H	-4.4904766805	-0.191653842	 0.4971870989	 0.08122
H	-3.3239449252	 1.123608653	 0.8465425851	 0.110848
H	-2.7526643963	 0.7102655933	-1.6760673793	 0.075165
H	-3.9599496395	-1.9295375094	-1.2985213353	 0.081369
H	-2.4225257915	-1.8232850165	-2.2166927694	 0.100989
H	-1.9563805477	-3.5853353962	 0.7465488265	 0.285687
82.5102	110.6409	212.4078	254.1315	278.4325	299.4336	356.0533	393.0072	425.3249	577.2432	602.5274	651.4052	699.9979	778.2656	863.3706	893.9358	919.5974	933.2192	945.2393	990.7001	995.5754	1044.2944	1058.1631	1090.379	1118.4921	1123.1841	1156.1167	1180.8663	1207.9132	1225.2315	1250.3698	1255.1606	1264.8081	1289.2116	1309.8588	1358.2191	1439.8136	1487.378	1496.9859	1508.6275	1517.4364	2961.3351	2991.1833	3021.8028	3028.965	3094.9847	3098.921	3142.7706	3189.8128	3792.9405	3819.8813
OCC12C3CC1CC23O	OC[C@@]12[C@H]3C[C@@H]1C[C@@]23O	
InChI=1S/C7H10O2/c8-3-6-4-1-5(6)7(6,9)2-4/h4-5,8-9H,1-3H2	InChI=1S/C7H10O2/c8-3-6-4-1-5(6)7(6,9)2-4/h4-5,8-9H,1-3H2/t4-,5-,6+,7+/m1/s1
