20
gdb 95632	2.35875	1.55364	1.10299	2.2166	76.72	-0.2592	0.0155	0.2747	1156.2231	0.172118	-440.30608	-440.297188	-440.296244	-440.339647	33.782	
C	 0.0239824134	 1.5879235786	-0.0069700828	-0.411612
C	 0.0641062828	 0.0586956821	-0.0538478386	 0.003494
C	 0.8362239223	-0.4904580559	-1.2592594698	-0.216303
C	 0.7362868632	-2.0074110548	-1.2815367944	-0.082532
O	 1.1556752964	-2.6283303804	-0.0525920331	-0.252626
C	 0.8686228223	-2.0508023727	 1.1416538779	 0.352486
N	 0.8924324806	-2.7107459464	 2.2253500197	-0.517202
C	 0.6782269595	-0.5393456921	 1.2146145431	 0.068874
O	 1.9623559074	 0.0565109503	 1.3998189958	-0.439405
H	 1.0332249025	 2.0004617811	 0.060625903	 0.139929
H	-0.4565908366	 1.9884195343	-0.9052921822	 0.10824
H	-0.5409749617	 1.9397545519	 0.8626177242	 0.114306
H	-0.9679058806	-0.317862209	-0.10963076	 0.075984
H	 0.4300198662	-0.0986328377	-2.1983318967	 0.099666
H	 1.8846158027	-0.1820980202	-1.1935580577	 0.127558
H	-0.2990356588	-2.3175243088	-1.4823690316	 0.107082
H	 1.3745546834	-2.4483924489	-2.051087141	 0.119022
H	 1.1102192536	-3.6920477471	 2.0355918973	 0.21757
H	 0.0367237885	-0.3428671938	 2.0826890375	 0.090302
H	 2.3580260526	-0.3724612004	 2.1669464996	 0.295166
62.9588	122.6144	214.7254	223.5587	269.7732	271.9079	299.1851	400.476	409.7071	434.0581	488.5295	615.0703	642.3038	725.2114	797.6066	849.0886	895.7486	924.9132	956.5352	976.3443	1002.1918	1006.7984	1047.1723	1103.392	1135.4389	1153.258	1190.0343	1210.1591	1277.3977	1279.1784	1320.5857	1325.6398	1347.6607	1376.3427	1391.097	1408.3816	1431.0038	1437.4518	1479.8103	1493.5901	1504.3102	1513.8694	1732.6082	2998.486	3007.4506	3029.0275	3038.4378	3046.3491	3091.9662	3100.7204	3101.544	3129.274	3453.2831	3806.7199
CC1CCOC(=N)C1O	C[C@H]1CCO[C]([NH])[C@H]1O	
InChI=1S/C6H11NO2/c1-4-2-3-9-6(7)5(4)8/h4-5,7-8H,2-3H2,1H3	InChI=1S/C6H11NO2/c1-4-2-3-9-6(7)5(4)8/h4-5,7-8H,2-3H2,1H3/t4-,5-/m0/s1
