17
gdb 117032	2.43395	1.12913	0.77996	2.1953	73.38	-0.2324	-0.1211	0.1113	1421.4409	0.133632	-455.164827	-455.154812	-455.153868	-455.201161	34.203	
C	-0.7006769595	 1.1157901472	 0.9668342107	-0.409735
C	-0.0286255244	-0.0719438209	 0.2874328956	-0.099041
N	 0.5581304145	-0.9641792039	 1.2722217753	-0.343096
C	 1.2933478911	-2.0425502469	 0.8936227942	 0.275392
N	 1.5616384092	-2.3038450771	-0.3326952416	-0.524668
C	 1.816501904	-2.9323959506	 2.0123576159	 0.241538
O	 2.5225153984	-3.8863921814	 1.7785177171	-0.270791
C	 1.4850254624	-2.708560148	 3.5005792724	 0.105046
O	 0.741142097	-1.87354776	 3.9480602819	-0.234979
H	 0.0179664128	 1.6907403102	 1.5595109832	 0.127352
H	-1.1347990251	 1.7832803529	 0.2180636932	 0.128526
H	-1.5085167433	 0.7901403234	 1.631620539	 0.123857
H	-0.7468819805	-0.6227430909	-0.3361271563	 0.117334
H	 0.7635935998	 0.2603515729	-0.3930391207	 0.130362
H	 0.278512831	-0.8913281667	 2.2381734142	 0.268154
H	 2.1528971354	-3.1344591058	-0.3707785051	 0.233354
H	 2.0157211471	-3.4453434343	 4.1369616409	 0.131395
39.0162	79.2673	90.7319	114.1472	127.6499	252.6845	262.6042	324.2566	369.4725	388.0414	431.1181	493.8255	538.2712	670.7657	712.6464	800.2625	837.7678	866.0612	919.3263	1020.6402	1063.404	1156.6623	1167.7616	1172.8812	1208.7313	1288.6522	1328.3961	1371.9102	1393.535	1418.4185	1494.3878	1499.6806	1523.7394	1567.1255	1677.244	1788.8829	1817.7604	2946.2571	3010.6948	3036.9319	3056.4	3104.4543	3121.9899	3487.5139	3615.7668
CCNC(=N)C(=O)C=O	CCNC(=N)C(=O)C=O	
InChI=1S/C5H8N2O2/c1-2-7-5(6)4(9)3-8/h3H,2H2,1H3,(H2,6,7)	InChI=1S/C5H8N2O2/c1-2-7-5(6)4(9)3-8/h3H,2H2,1H3,(H2,6,7)
