17
gdb 123854	3.93416	1.57257	1.34647	2.98	78.06	-0.2334	0.0243	0.2578	965.4912	0.139942	-380.84066	-380.83416	-380.833216	-380.871721	25.922	
C	 0.1274235376	 1.5166719656	-0.2605972969	-0.22916
C	 1.6072649451	 1.5128338443	 0.2219378199	-0.21987
C	 1.5276484772	-0.0233762184	 0.508192898	-0.196542
C	 0.0023917907	 0.0003579984	 0.0587462425	-0.003808
N	 0.4306047788	-0.884255055	-1.033641676	 0.091516
N	 0.1314987482	-1.2813896545	-2.2804223244	-0.30185
C	 1.3433572136	-1.6210297727	-2.7500374468	 0.012255
C	 2.4093110527	-1.3663706237	-1.8409206794	-0.373083
C	 1.7453231777	-0.8782267743	-0.7308657113	 0.340834
H	-0.5300362251	 2.1323632727	 0.3567521659	 0.114179
H	-0.0458989569	 1.7620961453	-1.3095350327	 0.129915
H	 2.3630108607	 1.8054166182	-0.5083523676	 0.117011
H	 1.7559377366	 2.0980256137	 1.1321183013	 0.109763
H	 1.8641148328	-0.3890196389	 1.4769331044	 0.093736
H	-0.8410580793	-0.3554342194	 0.6499838827	 0.100565
H	 1.4191086326	-2.0629623262	-3.7339951115	 0.109687
H	 3.4605222468	-1.5407694151	-1.9980386681	 0.104853
104.7522	142.6136	270.1449	429.9891	469.8807	650.4314	674.2907	693.3523	730.9978	782.4891	788.2362	817.6502	835.6537	884.488	917.2561	943.4528	966.8953	983.3336	1017.3342	1044.3966	1115.5914	1121.1713	1133.0873	1174.3144	1205.783	1230.3534	1239.0126	1272.7852	1279.7503	1289.4433	1307.4089	1341.567	1409.3029	1467.959	1472.8863	1491.0667	1558.1847	3072.2703	3079.0188	3115.6341	3123.0888	3127.9714	3140.8789	3234.9435	3276.2708
C1CC2C1N1N=CC=C21	C1C[C@H]2[C@@H]1n1nccc21	
InChI=1S/C7H8N2/c1-2-6-5(1)7-3-4-8-9(6)7/h3-6H,1-2H2	InChI=1S/C7H8N2/c1-2-6-5(1)7-3-4-8-9(6)7/h3-6H,1-2H2/t5-,6+/m0/s1
