25
gdb 109700	2.71495	1.04592	0.93533	0.0539	93.79	-0.2475	0.0809	0.3283	1452.1763	0.228228	-352.341675	-352.331382	-352.330437	-352.377115	38.541	
C	 2.7262839072	 2.27759033	-0.6348784986	-0.37293
C	 1.401995436	 1.5048036773	-0.5962323359	-0.198078
C	 1.3896201907	 0.2982989783	-1.5143973051	-0.08612
C	 1.9222630427	-1.067069833	-1.1076577204	-0.077504
C	 2.5235850424	-1.3530451995	 0.251582404	-0.411443
C	 0.4418575252	-0.8493176122	-1.300358138	 0.341294
C	-0.6458633977	-1.0062594642	-0.2227463407	-0.291336
C	-1.3902871779	-1.9846775559	-1.179031297	-0.204419
C	-0.4418905918	-1.5576393179	-2.3378219003	-0.296577
H	 3.5607093693	 1.6490121195	-0.3075142029	 0.118105
H	 2.9517820125	 2.6205195775	-1.6508160848	 0.112383
H	 2.6925675727	 3.1586872083	 0.0141230648	 0.107198
H	 1.1852603682	 1.1999158881	 0.4335860867	 0.096028
H	 0.5821230593	 2.1770729197	-0.8838159737	 0.093452
H	 1.5646297468	 0.5556442461	-2.5590831488	 0.070619
H	 2.4033300659	-1.6184547357	-1.9141687682	 0.074686
H	 2.028473228	-0.7952080922	 1.0509111562	 0.118022
H	 2.4406722364	-2.417736217	 0.4996075769	 0.112999
H	 3.5874771345	-1.0919164601	 0.2778885718	 0.115405
H	-0.3359921259	-1.4135787222	 0.7436542348	 0.095433
H	-1.2043981422	-0.0822880805	-0.039599945	 0.097238
H	-1.254227415	-3.0303153996	-0.8919653665	 0.101479
H	-2.4571748416	-1.8045860708	-1.3282651771	 0.095286
H	-0.9159685823	-0.8629849004	-3.0397339877	 0.09539
H	 0.0237736269	-2.3631057736	-2.9139471544	 0.093389
63.3071	83.3354	119.0873	158.4676	184.4724	208.5637	224.4351	279.1293	292.519	407.4045	452.2598	524.1654	608.9522	705.3465	757.5006	775.3539	797.7554	830.1419	863.4417	923.4816	941.4701	945.	971.0601	1005.2188	1037.7505	1045.5489	1072.9296	1090.5573	1133.7012	1139.3375	1154.1578	1181.1059	1195.2301	1222.5077	1228.2528	1250.2967	1264.9409	1277.3636	1291.8661	1328.7658	1338.1666	1389.8354	1410.2773	1415.2576	1464.572	1476.5024	1481.0494	1484.4009	1496.414	1498.361	1502.2636	1506.1468	1511.8061	3015.441	3027.4874	3030.9675	3035.7386	3041.955	3059.9685	3063.4231	3080.8413	3081.2584	3087.3352	3095.0378	3100.7457	3103.9096	3105.4735	3118.0732	3121.4718
CCC1C(C)C11CCC1	CC[C@H]1[C@@H](C)C21CCC2	
InChI=1S/C9H16/c1-3-8-7(2)9(8)5-4-6-9/h7-8H,3-6H2,1-2H3	InChI=1S/C9H16/c1-3-8-7(2)9(8)5-4-6-9/h7-8H,3-6H2,1-2H3/t7-,8+/m1/s1
