18
gdb 94606	2.18693	0.87904	0.70542	4.8516	73.85	-0.1536	0.0274	0.1809	1603.2737	0.14219	-476.167809	-476.156012	-476.155068	-476.208724	38.288	
N	-1.0437591636	 1.6246139776	 0.111984664	-0.411112
H	-0.5212564943	 1.5083930149	-0.75587264	 0.299223
H	-0.4794870487	 2.2610851005	 0.6993306238	 0.283433
H	-1.9176738185	 2.085491174	-0.1333735651	 0.300071
C	-1.3709410598	 0.2370077056	 0.6982416587	-0.341921
C	-0.1689740243	-0.3649141966	 1.2567520867	-0.106069
O	 0.4807672326	 0.3389217997	 2.4870307602	-0.26261
C	 1.3678900624	 1.3133234943	 2.3035109035	 0.138255
C	 1.9359044756	 1.7833384354	 1.1781013804	-0.467076
C	-0.2485252759	-0.3749714578	 5.0238322086	 0.590227
O	 0.3069877385	 0.5491259905	 5.4621360228	-0.308937
O	-0.8192014997	-1.3118378686	 4.638738131	-0.300962
H	-2.120112645	 0.4413451949	 1.4695430887	 0.061023
H	-0.4177019538	-1.3283214787	 1.7016681105	 0.133628
H	 0.6599104083	-0.5042638863	 0.5546186756	 0.097597
H	 1.6345919915	 1.7652205017	 3.2605505876	 0.108853
H	 1.7934288646	 1.3447790579	 0.198521952	 0.081572
H	 2.65642922	 2.5868705511	 1.2562158708	 0.104805
14.1458	26.6407	49.9805	82.7982	92.1432	127.0077	167.0864	183.4589	206.6382	259.4999	359.3578	424.3312	568.3753	585.3189	667.9488	681.3874	690.8312	725.4448	779.3402	829.8146	890.6976	965.774	1021.855	1027.4775	1064.3067	1184.3395	1212.5568	1266.8993	1308.149	1364.5694	1376.4286	1404.0582	1432.1293	1448.2234	1473.8965	1624.2381	1654.46	1673.3016	2430.5748	3050.0751	3075.5432	3120.6121	3142.5967	3170.4406	3241.1913	3252.2851	3471.1863	3544.8077
[NH3+]C1COC1CC([O-])=O	[NH3][CH]COC=C.C(=O)=O	
InChI=1S/C5H9NO3/c6-3-2-9-4(3)1-5(7)8/h3-4H,1-2,6H2,(H,7,8)	InChI=1S/C4H9NO.CO2/c1-2-6-4-3-5;2-1-3/h2-3H,1,4H2,5H3;
