18
gdb 98895	3.11432	1.15472	0.99829	4.492	69.26	-0.2343	0.0242	0.2585	1246.0141	0.147902	-476.246647	-476.237486	-476.236542	-476.282355	31.682	
C	-0.4655449236	 1.2281084606	-0.3230795017	-0.333209
N	-0.2416577641	-0.1989984429	-0.4299137941	-0.305025
C	 0.875414823	-0.7208321126	-0.9938920217	 0.35696
O	 1.7744627541	-0.079632227	-1.5042424024	-0.376233
C	 0.943484131	-2.2657843435	-0.9864363054	 0.126873
O	-0.0568942338	-2.8302002124	-0.1476930766	-0.282488
C	-0.7582371942	-3.8160981832	-0.9080051574	-0.091473
C	-0.5641991879	-3.3213652122	-2.337269898	-0.099432
O	 0.7506406281	-2.7825228885	-2.2900111678	-0.24582
H	 0.3434538608	 1.7264674297	-0.8590975569	 0.170337
H	-1.4233670033	 1.5127437599	-0.7716794742	 0.125115
H	-0.4573683906	 1.5590138958	 0.7218484813	 0.127348
H	-0.8488725571	-0.8512159926	 0.0405347559	 0.255692
H	 1.9495610799	-2.5567541739	-0.6597295629	 0.110455
H	-0.3079425209	-4.8065076732	-0.7597404277	 0.113788
H	-1.7985712889	-3.8371734822	-0.5748944688	 0.117478
H	-0.5828788467	-4.1113331437	-3.0909007092	 0.123593
H	-1.3043579158	-2.5513529281	-2.5987461124	 0.106042
30.938	59.9835	90.5083	135.9503	193.5535	252.1269	304.9118	333.7761	439.6067	582.9094	632.8472	649.5738	738.2347	805.9991	883.1515	907.775	952.5163	968.7789	994.6242	1058.7316	1095.4356	1139.3358	1152.8335	1162.3972	1179.9197	1226.5325	1248.131	1263.7893	1308.9066	1365.9883	1380.431	1384.802	1439.121	1493.3678	1499.7041	1511.6824	1518.8324	1564.1555	1796.4607	3001.9771	3021.9179	3027.5318	3037.1398	3080.3776	3104.5732	3113.9365	3149.245	3636.504
CNC(=O)C1OCCO1	CNC(=O)C1OCCO1	
InChI=1S/C5H9NO3/c1-6-4(7)5-8-2-3-9-5/h5H,2-3H2,1H3,(H,6,7)	InChI=1S/C5H9NO3/c1-6-4(7)5-8-2-3-9-5/h5H,2-3H2,1H3,(H,6,7)
