17
gdb 28763	3.22106	1.684	1.24944	3.6135	78.81	-0.2089	0.0085	0.2175	1010.7207	0.137924	-380.845725	-380.838512	-380.837568	-380.877356	28.045	
C	-0.0257966308	 1.5601002644	-0.0419548237	-0.495627
C	 0.0732621187	 0.074318614	-0.0044370647	 0.220148
C	 0.1010171607	-0.8705763893	-1.0127319251	-0.147804
N	 0.2135006568	-2.1735033066	-0.536065306	-0.331562
C	 0.1502001454	-2.0054794864	 0.7584737933	 0.282568
C	 0.7178080538	-2.4357989387	 2.0933902998	-0.185096
C	 1.9804392947	-1.60697416	 2.310933731	-0.272906
C	 0.6304773939	-0.9586146424	 2.4674884967	-0.026589
N	 0.0143905558	-0.6952036822	 1.1480313947	-0.050249
H	 0.8116637733	 2.0417086754	 0.4776028963	 0.127973
H	-0.0173786664	 1.9088189983	-1.0776140392	 0.137585
H	-0.9491569703	 1.9194720141	 0.4273518619	 0.133935
H	 0.0130781393	-0.678497344	-2.073273598	 0.104311
H	 0.4648993635	-3.2980906629	 2.6931614678	 0.117328
H	 2.5224923314	-1.7983008976	 3.2340449325	 0.124184
H	 2.6045301458	-1.3494277779	 1.4613096288	 0.141813
H	 0.2557057044	-0.4911556582	 3.3676718838	 0.11999
127.6971	147.1429	184.2116	260.7928	342.9749	494.0213	520.3284	629.4336	643.8873	716.0403	741.6565	792.1792	815.8907	839.8507	858.0718	943.4141	989.4401	1003.5412	1010.8523	1047.297	1062.8653	1077.2948	1090.7353	1142.4511	1160.5218	1197.4491	1236.5271	1257.6198	1288.8418	1346.6122	1375.8383	1418.0094	1474.6467	1478.8351	1494.6005	1538.8931	1588.4112	3022.3838	3069.4613	3117.3231	3119.1519	3206.8945	3211.554	3225.5189	3230.474
CC1=CN=C2C3CC3N12	CC1=C[N][C]2[C@H]3C[C@H]3N12	
InChI=1S/C7H8N2/c1-4-3-8-7-5-2-6(5)9(4)7/h3,5-6H,2H2,1H3	InChI=1S/C7H8N2/c1-4-3-8-7-5-2-6(5)9(4)7/h3,5-6H,2H2,1H3/t5-,6+/m0/s1
