18
gdb 36150	3.89312	1.09468	0.97796	4.8945	75.21	-0.2742	0.0302	0.3044	1226.4788	0.148651	-401.967266	-401.959194	-401.958249	-402.000362	30.493	
N	-0.0573666882	-1.0834409971	-0.5567426486	-0.307955
C	-0.0388217894	 0.0301178452	-0.2499967396	 0.271719
C	-0.0025027273	 1.4373786739	 0.1545971864	-0.438093
C	 1.408367824	 1.9915008799	 0.2111277215	 0.423501
C	 2.4575445416	 1.3787573762	 1.1244240376	-0.283283
C	 3.6286084042	 2.3892744786	 1.0733843503	-0.217076
C	 2.9795069899	 3.765355128	 0.7793048725	-0.242365
C	 1.7246344817	 3.4122300087	 0.0077828603	-0.014476
O	 1.9447507102	 2.447332561	-1.037476709	-0.29159
H	-0.5949522271	 2.0237650295	-0.554359167	 0.162213
H	-0.4794217468	 1.5244566289	 1.1382616142	 0.154766
H	 2.0399207344	 1.297314426	 2.1360049267	 0.104146
H	 2.7502217199	 0.3732743457	 0.8090471711	 0.130575
H	 4.2160599816	 2.3925842809	 1.9939557498	 0.103917
H	 4.2995241923	 2.1229438109	 0.2546443593	 0.127719
H	 2.6912107284	 4.2836091072	 1.7024113177	 0.106104
H	 3.6431836607	 4.4332210471	 0.2222055986	 0.116348
H	 0.9634482599	 4.1594628195	-0.2058679718	 0.093831
58.6675	104.5089	203.5347	236.3993	300.1856	386.0895	394.4619	432.52	457.6981	649.4137	660.0779	725.271	815.9003	854.3725	878.3877	895.539	930.3965	938.5415	961.4463	974.7667	1030.062	1039.2672	1126.4508	1156.2324	1191.1948	1210.1649	1249.992	1267.8114	1284.9695	1325.6332	1335.5946	1339.2934	1359.8333	1446.2986	1457.7206	1479.6029	1487.9481	1500.707	2365.1541	3034.0529	3036.8515	3044.1878	3077.5501	3089.1961	3094.0735	3095.7177	3126.2578	3140.4641
N#CCC12CCCC1O2	N#CC[C@]12CCC[C@H]1O2	
InChI=1S/C7H9NO/c8-5-4-7-3-1-2-6(7)9-7/h6H,1-4H2	InChI=1S/C7H9NO/c8-5-4-7-3-1-2-6(7)9-7/h6H,1-4H2/t6-,7-/m1/s1
