16
gdb 17979	3.99525	1.76307	1.49513	2.1321	70.07	-0.241	0.0438	0.2848	872.7658	0.130369	-346.529488	-346.52236	-346.521416	-346.561205	27.05	
C	 0.1745117831	-1.1991847635	 0.1891253803	-0.454519
C	 0.0995226576	-0.0023549137	 0.1009300985	 0.335552
C	 0.0040075896	 1.4376857704	 0.0125390532	-0.197916
C	-0.3865343583	 2.2540801819	 1.3002361645	-0.252866
C	 0.8695196629	 3.1486433147	 1.1225728695	-0.084799
C	 2.1292396646	 2.5994722045	 1.8110082242	-0.073978
O	 2.4115305617	 1.722780183	 0.6923487586	-0.279373
C	 1.3276405652	 2.265568324	-0.0718781723	 0.11834
H	 0.2507558066	-2.2555371062	 0.2629439779	 0.194303
H	-0.6484843431	 1.72062379	-0.8215043817	 0.102696
H	-1.3397178092	 2.7771701971	 1.2054748204	 0.110235
H	-0.398738689	 1.6671115764	 2.2211497888	 0.114247
H	 0.7311064166	 4.2275914359	 1.0800260683	 0.080214
H	 2.9350331349	 3.3312456358	 1.9509589966	 0.102175
H	 1.9768939349	 2.0468950067	 2.7462987232	 0.10582
H	 1.6427247118	 2.6122541332	-1.05985942	 0.079869
56.6608	140.6324	205.2347	325.9163	366.3895	495.9979	549.6882	614.2842	629.2197	676.8647	758.8729	793.249	841.0075	900.528	923.6363	946.8123	997.698	1022.4393	1041.4331	1071.5454	1094.5369	1146.2665	1161.72	1178.6798	1218.8441	1242.3197	1266.6756	1298.3184	1320.7207	1330.7437	1364.6659	1482.2232	1520.9224	2235.6471	3010.1194	3037.4404	3056.4962	3069.8517	3072.7995	3120.9623	3132.1592	3505.3059
C#CC1CC2COC12	C#C[C@H]1C[C@H]2CO[C@@H]12	
InChI=1S/C7H8O/c1-2-5-3-6-4-8-7(5)6/h1,5-7H,3-4H2	InChI=1S/C7H8O/c1-2-5-3-6-4-8-7(5)6/h1,5-7H,3-4H2/t5-,6-,7-/m0/s1
