23
gdb 96572	2.34888	1.42578	1.03326	1.4011	87.67	-0.2408	0.0117	0.2525	1263.0308	0.207346	-388.29487	-388.285977	-388.285033	-388.327869	35.28	
C	 0.2044805003	 1.6745749931	-0.0834294184	-0.404849
C	 0.004710566	 0.1666083359	 0.0131063276	 0.11422
O	 0.5708491048	-0.3780343317	-1.1848576873	-0.270552
C	 0.6659314994	-1.7896810985	-1.2951602312	-0.049468
C	-0.6394971148	-2.5885837452	-1.0877710177	-0.212274
C	-0.8547657396	-3.2345846448	 0.2940449678	-0.179534
C	-1.0861951092	-2.2728359089	 1.4815927847	-0.251097
C	 0.1441679254	-1.494140047	 1.8860474301	-0.064162
C	 0.6230334991	-0.4223436331	 1.2538105221	-0.058374
H	 1.2716468329	 1.9177765866	-0.0761196452	 0.120577
H	-0.2262470422	 2.0538285077	-1.013826757	 0.120974
H	-0.2755463082	 2.1798975863	 0.7599074709	 0.114273
H	-1.0753433911	-0.0435394125	 0.0191493609	 0.062721
H	 1.018712604	-1.93718581	-2.3207053595	 0.100844
H	 1.4429857694	-2.1842776575	-0.6240791402	 0.087307
H	-1.4919382092	-1.9514861543	-1.3552602998	 0.10501
H	-0.6396470058	-3.4035242509	-1.8220110218	 0.097385
H	-1.7232540119	-3.9014058625	 0.2251519578	 0.093199
H	 0.0054841373	-3.8783961264	 0.5204229162	 0.096804
H	-1.908073151	-1.5925106959	 1.2277121165	 0.109394
H	-1.4320242551	-2.860710886	 2.3385383759	 0.096681
H	 0.6933284163	-1.8804162976	 2.7429537016	 0.088908
H	 1.5467973529	 0.0389404832	 1.5984362861	 0.082014
114.9361	178.0402	187.3519	236.2659	258.4146	292.4189	326.8534	333.0107	406.2196	450.1608	525.6536	567.6737	615.0017	729.279	784.0776	822.6727	843.9753	884.4356	905.3431	944.7467	994.728	1006.8934	1014.2293	1059.5475	1086.9565	1090.8825	1118.8773	1145.4783	1162.2844	1197.8702	1249.6099	1263.2844	1282.329	1318.4494	1345.6757	1358.4032	1363.6853	1373.6506	1385.7994	1405.5546	1422.7231	1431.7645	1473.957	1483.896	1486.0991	1495.8579	1498.3188	1501.9278	1718.1152	2983.8619	2996.9932	3013.8709	3024.2421	3028.9399	3041.4462	3052.848	3063.1671	3070.6185	3073.6835	3115.4008	3122.5713	3129.8017	3153.7494
CC1OCCCCC=C1	C[C@H]1OCCCCC=C1	
InChI=1S/C8H14O/c1-8-6-4-2-3-5-7-9-8/h4,6,8H,2-3,5,7H2,1H3/b6-4-	InChI=1S/C8H14O/c1-8-6-4-2-3-5-7-9-8/h4,6,8H,2-3,5,7H2,1H3/b6-4-/t8-/m1/s1
