14
gdb 132425	3.22577	1.36177	0.96319	3.9073	69.21	-0.2321	-0.0543	0.1778	1123.9456	0.099881	-481.859137	-481.8515	-481.850556	-481.891455	28.332	
C	-0.0228538094	 1.522521383	-0.0019898803	-0.473505
C	-0.0571642468	 0.0211701711	 0.003398499	 0.078559
C	-1.1856088444	-0.7240984975	-0.1486810989	-0.113625
C	-1.1715511344	-2.150763271	-0.1368462303	-0.378357
C	 0.0324047051	-2.7309642385	 0.0347820742	 0.414825
F	 0.2221045153	-4.0297259155	 0.0700587681	-0.035768
O	 1.1654813794	-2.0748143494	 0.187593479	-0.233178
C	 1.2203412119	-0.6424974193	 0.1859747323	 0.399643
O	 2.3015510402	-0.1487871377	 0.3334536517	-0.323277
H	 0.6289077646	 1.8964899862	-0.7986746877	 0.146754
H	-1.0241072781	 1.936161408	-0.1440482928	 0.119873
H	 0.3870079783	 1.9081732288	 0.9375408997	 0.14676
H	-2.1378445851	-0.2201075	-0.2848213002	 0.121313
H	-2.0605766865	-2.7511999981	-0.2562672137	 0.129983
114.5369	143.9303	175.9012	280.0637	332.7205	353.8972	431.8646	453.6241	524.9375	589.1547	685.4255	742.3114	763.0941	770.5091	800.9174	926.3651	950.316	1009.941	1037.827	1071.9704	1121.2854	1207.6892	1308.0675	1391.3736	1418.6414	1421.901	1471.1343	1490.5614	1614.013	1703.7303	1850.6447	3037.9782	3092.3358	3125.0636	3179.8222	3249.2846
CC1=CC=C(F)OC1=O	Cc1ccc(F)oc1=O	
InChI=1S/C6H5FO2/c1-4-2-3-5(7)9-6(4)8/h2-3H,1H3	InChI=1S/C6H5FO2/c1-4-2-3-5(7)9-6(4)8/h2-3H,1H3
