15
gdb 33353	5.34033	0.73176	0.70422	1.9136	89.73	-0.2442	-0.0234	0.2209	1579.4384	0.111264	-383.428558	-383.420174	-383.41923	-383.462441	30.524	
C	 0.0706761389	-3.7121162468	 0.1602293075	-0.56215
C	 0.0451835531	-2.5070690038	 0.0871596118	 0.306131
C	 0.0170447557	-1.1495776465	 0.0022767587	-0.35663
C	-0.0055968971	 0.058424091	-0.0682419491	 0.529857
C	-0.0299772697	 1.5207567343	-0.1778677132	-0.157568
O	-0.7323450946	 2.1215503627	 0.9149114945	-0.255535
C	 0.1607300855	 2.9135107099	 1.698678998	-0.115731
C	 1.4580753086	 2.9088594764	 0.9425357439	-0.089647
C	 1.3580266067	 2.129205433	-0.1250920536	-0.07903
H	 0.0918627863	-4.7715051317	 0.2264771693	 0.192694
H	-0.5553042449	 1.7857974476	-1.1091147708	 0.120163
H	-0.2635417091	 3.9214370026	 1.811732472	 0.114927
H	 0.2677770287	 2.4871209867	 2.7085905941	 0.115021
H	 2.3307353462	 3.4654668599	 1.2594586679	 0.11532
H	 2.1177393457	 1.9018880546	-0.8600310312	 0.12218
54.5103	80.9649	130.4024	218.9882	257.5193	373.1087	429.3997	486.5077	524.5787	545.1855	588.4888	608.1359	693.5885	761.5594	810.2738	820.7028	913.9389	933.3224	957.3451	998.9852	1045.8208	1095.2581	1116.4001	1172.9856	1198.1113	1276.9445	1338.5461	1344.4212	1380.2499	1517.1488	1693.0073	2180.2138	2359.1857	2974.772	2981.8818	3013.9126	3214.8216	3243.0872	3504.8075
C#CC#CC1OCC=C1	C#CC#C[C@H]1OCC=C1	
InChI=1S/C8H6O/c1-2-3-5-8-6-4-7-9-8/h1,4,6,8H,7H2	InChI=1S/C8H6O/c1-2-3-5-8-6-4-7-9-8/h1,4,6,8H,7H2/t8-/m1/s1
