25
gdb 115915	3.369	1.03295	0.87748	0.1818	92.04	-0.2576	0.0802	0.3378	1448.2457	0.231576	-352.369569	-352.360516	-352.359572	-352.403256	35.957	
C	 0.1589269205	 1.5535632209	 0.0705604531	-0.392628
C	 0.0116427808	 0.0318436016	-0.0313340324	-0.180084
C	-1.4383144858	-0.4799802048	-0.0317972929	 0.063708
C	-2.2207163777	-0.092519013	-1.2967477878	-0.209809
C	-3.710265619	-0.44518524	-1.1605547003	-0.225752
C	-3.9540106533	-1.8753376658	-0.7127858387	 0.002224
C	-3.3084015239	-3.0393406404	-1.4178036207	-0.288025
C	-2.8431323111	-2.6495515658	-0.0322698509	-0.033738
C	-1.4677730068	-2.0097607015	 0.1617451725	-0.229736
H	 1.213826785	 1.8427041968	 0.1134870934	 0.11061
H	-0.285535039	 2.0685649014	-0.7868084622	 0.117797
H	-0.3266532101	 1.9370954685	 0.9750849302	 0.112367
H	 0.5171573036	-0.3277156082	-0.9384926968	 0.090069
H	 0.5429137403	-0.4315309576	 0.8106263326	 0.088714
H	-1.9571758785	-0.0233360422	 0.8257753881	 0.062151
H	-2.1296930925	 0.9799553305	-1.4970604228	 0.09187
H	-1.7807004207	-0.6040597925	-2.1644579754	 0.091373
H	-4.1557265365	 0.2312126257	-0.4183643464	 0.09336
H	-4.2333313716	-0.2501613036	-2.105524943	 0.090692
H	-4.9585753169	-2.0562609669	-0.3396896162	 0.075333
H	-3.8826248962	-3.9519282694	-1.5373920173	 0.102112
H	-2.6353489897	-2.8319932079	-2.2447522169	 0.104629
H	-3.149449914	-3.3168704069	 0.7674322314	 0.077239
H	-0.7464019859	-2.4635732908	-0.5322031088	 0.092913
H	-1.0999514208	-2.2439191082	 1.1671615881	 0.092608
72.5223	105.7845	179.91	216.2123	251.6513	312.6322	333.4991	388.5015	428.6829	452.469	504.5348	629.9907	751.7872	758.0675	791.9435	818.9138	847.7894	892.4384	904.785	941.7689	953.8499	967.9924	1015.7096	1031.4789	1052.3002	1059.734	1103.7306	1111.8342	1122.3675	1132.6332	1150.1709	1168.419	1204.594	1237.4866	1253.0106	1274.4529	1306.0329	1307.1761	1340.3025	1366.7722	1369.589	1380.8501	1391.4374	1401.571	1412.7395	1418.2759	1481.7324	1488.2955	1490.3705	1492.4408	1500.2447	1505.8961	1510.678	2977.2798	3003.806	3007.2449	3009.1712	3015.3731	3031.7394	3039.4401	3043.0372	3055.6151	3069.4121	3096.7608	3103.9743	3122.6302	3133.4273	3147.918	3205.2874
CCC1CCC2CC2C1	CC[C@H]1CC[C@H]2C[C@H]2C1	
InChI=1S/C9H16/c1-2-7-3-4-8-6-9(8)5-7/h7-9H,2-6H2,1H3	InChI=1S/C9H16/c1-2-7-3-4-8-6-9(8)5-7/h7-9H,2-6H2,1H3/t7-,8-,9+/m0/s1
