15
gdb 124328	3.93499	1.17052	0.90718	1.7424	71.32	-0.2412	-0.038	0.2031	1205.9176	0.112945	-454.002786	-453.994736	-453.993792	-454.035724	29.604	
C	-0.1484971396	 1.4940192926	 0.0471925409	-0.486557
C	 0.01735629	-0.0031001487	-0.0063540051	 0.431223
O	 1.0746651084	-0.5837877953	-0.067945117	-0.32175
N	-1.1824152084	-0.7420697547	 0.0180548838	-0.040293
C	-1.2806739002	-2.1091220989	-0.0217112149	 0.028186
C	-2.6089177495	-2.4218442934	 0.0215870108	-0.337535
C	-3.2592896255	-1.1555723771	 0.0879059066	 0.460696
O	-4.589153443	-0.982010934	 0.146700772	-0.417978
N	-2.416965432	-0.1439571782	 0.0863839923	-0.382056
H	 0.8417302302	 1.9473025868	 0.0214300705	 0.144525
H	-0.7507821284	 1.8430107837	-0.7954804441	 0.158703
H	-0.6801225172	 1.7881187445	 0.9557655832	 0.158643
H	-0.3891849948	-2.7109418231	-0.0765884816	 0.168413
H	-3.0673305298	-3.3961333162	 0.0089488937	 0.126995
H	-4.7568681501	-0.0312982081	 0.183686689	 0.308785
94.2667	124.4111	135.0197	190.4633	340.4439	389.0321	408.2403	448.5066	539.1152	566.8109	628.6433	643.8692	719.9733	727.5309	793.3265	889.085	945.0598	995.3212	1024.2055	1057.3092	1060.8735	1125.1964	1217.4488	1276.2725	1314.9581	1389.1676	1421.3185	1458.7502	1469.0551	1473.1639	1547.3525	1621.9899	1813.5124	3063.5564	3129.8966	3171.2849	3277.6585	3296.4746	3788.3491
CC(=O)N1C=CC(O)=N1	CC(=O)n1ccc(O)n1	
InChI=1S/C5H6N2O2/c1-4(8)7-3-2-5(9)6-7/h2-3H,1H3,(H,6,9)	InChI=1S/C5H6N2O2/c1-4(8)7-3-2-5(9)6-7/h2-3H,1H3,(H,6,9)
