17
gdb 93163	2.48241	1.63114	1.11208	3.7745	69.55	-0.2671	-0.0097	0.2574	1080.2803	0.136934	-458.996079	-458.988174	-458.98723	-459.02857	30.266	
O	 0.5164538459	-0.1494763738	 1.0784492334	-0.439159
C	-0.2263211593	-0.327819801	-0.0970598152	-0.015894
C	-1.4471901032	 0.6134957194	-0.0996472682	-0.267593
C	-2.4214986217	 0.4301136634	-1.2270570903	-0.045407
C	-2.2435781864	-0.2739909695	-2.3435669301	-0.075874
C	-1.002173417	-1.0273268551	-2.7459463123	-0.139657
O	 0.2406136707	-0.3249363296	-2.5330898581	-0.212868
C	 0.6793609027	-0.0488676896	-1.2991587306	 0.405792
O	 1.7689519398	 0.4460368485	-1.1428947313	-0.346232
H	 1.3556957707	 0.2459885419	 0.7908767543	 0.295858
H	-0.5820243735	-1.3674622276	-0.1425020709	 0.101615
H	-1.964352699	 0.4566371347	 0.8544664936	 0.13129
H	-1.0892184716	 1.6521207411	-0.0681883504	 0.130107
H	-3.3726846354	 0.9419373956	-1.0976388583	 0.104169
H	-3.0558281554	-0.3268610258	-3.0634448491	 0.104308
H	-0.9440958684	-2.0112322115	-2.2626119592	 0.132508
H	-1.0106269288	-1.2019167611	-3.8233311773	 0.137037
87.4936	134.8735	225.2298	285.7438	339.2024	363.4354	393.6632	441.8355	456.3919	581.6104	596.787	662.0285	730.8412	789.2403	810.6928	890.3661	956.859	995.8808	1015.6897	1034.6974	1072.9271	1091.6515	1134.1115	1187.3041	1229.8552	1249.4744	1287.3263	1294.8672	1337.9288	1378.58	1416.1202	1423.3526	1467.0765	1477.8731	1502.8035	1733.6626	1817.0203	2999.8412	3019.6835	3026.7755	3058.8331	3110.6835	3146.6948	3171.6642	3678.4318
OC1CC=CCOC1=O	O[C@H]1CC=CCOC1=O	
InChI=1S/C6H8O3/c7-5-3-1-2-4-9-6(5)8/h1-2,5,7H,3-4H2	InChI=1S/C6H8O3/c7-5-3-1-2-4-9-6(5)8/h1-2,5,7H,3-4H2/t5-/m0/s1
