23
gdb 114256	4.73311	0.80004	0.79076	1.2759	86.52	-0.2594	0.0772	0.3366	1559.0879	0.205865	-388.265556	-388.256242	-388.255298	-388.300029	35.576	
O	 0.110210766	 1.3065836295	 0.0552622318	-0.422641
C	 0.0583581118	-0.10648455	 0.1974652227	-0.098434
C	-1.382937528	-0.5405223287	 0.0416221924	 0.062346
C	-2.0486450489	-0.4268203974	-1.357149044	-0.308208
C	-2.7200209423	-1.7988412695	-1.118230307	 0.389864
C	-4.2185030182	-1.8918008101	-0.7125659345	-0.270232
C	-4.2968150588	-3.2538018845	-1.4531578349	-0.206576
C	-2.9876854555	-2.8745678239	-2.1977140187	-0.293165
C	-1.6895473016	-2.062522896	 0.0169140873	-0.315
H	 1.0284679888	 1.5831745666	 0.1249468392	 0.285284
H	 0.6761038901	-0.6063985581	-0.5679706912	 0.076325
H	 0.439579135	-0.4237880012	 1.1829749542	 0.081553
H	-1.9887452787	-0.0304936495	 0.7974926819	 0.078335
H	-2.7044727425	 0.4277506758	-1.5431434472	 0.096392
H	-1.3023970665	-0.4730051821	-2.1589888712	 0.091894
H	-4.4567377011	-1.8733822012	 0.3550836482	 0.091893
H	-4.8155616786	-1.1232003978	-1.2146582418	 0.096207
H	-4.1493495219	-4.0975826097	-0.7733649763	 0.101091
H	-5.1856340949	-3.4491210742	-2.0575113792	 0.093811
H	-3.1916304117	-2.4213425195	-3.1737934951	 0.096782
H	-2.2274833152	-3.6507813028	-2.3281692133	 0.088715
H	-0.8306862258	-2.6377906917	-0.34876201	 0.089927
H	-2.0520771816	-2.5271880241	 0.9385760467	 0.093836
56.8919	90.1025	121.1155	193.6626	258.0458	261.7466	310.7907	345.6762	412.4053	443.8375	509.2365	670.85	722.5361	773.6717	841.8161	852.7623	874.8781	900.553	923.9354	935.2632	937.4419	969.7664	1003.2337	1041.5792	1068.2955	1084.6946	1093.4555	1164.151	1178.7595	1188.5469	1193.9797	1227.832	1237.3207	1242.7249	1255.0933	1255.4696	1275.7581	1279.8956	1293.8587	1298.0879	1310.7013	1368.9051	1461.0901	1468.5262	1472.7673	1483.1002	1492.7761	1506.3637	1519.2344	2949.1458	2975.3797	3029.3898	3036.359	3037.7032	3043.2333	3056.2683	3059.1196	3085.5302	3086.3308	3091.3943	3097.5194	3114.3773	3829.3796
OCC1CC2(CCC2)C1	OCC1CC2(CCC2)C1	
InChI=1S/C8H14O/c9-6-7-4-8(5-7)2-1-3-8/h7,9H,1-6H2	InChI=1S/C8H14O/c9-6-7-4-8(5-7)2-1-3-8/h7,9H,1-6H2
