14
gdb 61105	2.45141	1.24649	1.03251	6.6505	72.4	-0.2862	-0.018	0.2682	1165.2566	0.09875	-395.698317	-395.688818	-395.687874	-395.732738	33.542	
N	 0.0075402795	 1.5093751674	 0.0408189362	-0.497886
C	 0.0291750841	 0.0419953733	-0.0014700973	-0.138871
C	-1.4385384269	-0.4819980117	 0.1227726914	-0.347174
C	-2.125965153	-0.0037038791	 1.3184685553	 0.289984
N	-2.7005479796	 0.3497281932	 2.2553839503	-0.293909
C	 0.612031227	-0.5139208302	-1.2362605045	 0.319642
C	 1.0563270433	-0.9230210033	-2.2744955104	-0.416142
C	 0.8208766069	-0.4376026997	 1.1535311163	 0.330461
N	 1.4497815173	-0.8235786097	 2.041057511	-0.319371
H	 0.9583553135	 1.8667637529	 0.0506896074	 0.258848
H	-0.4300596807	 1.856504315	-0.8087408652	 0.248502
H	-1.9844357988	-0.1517961809	-0.7669758738	 0.166212
H	-1.4327676067	-1.5752233234	 0.1127378473	 0.180842
H	 1.4659403541	-1.2891465138	-3.1845474139	 0.218863
69.9159	111.769	127.5287	181.0557	193.7135	236.7981	269.2158	353.1382	392.8051	454.7687	487.2417	500.9846	573.4292	617.5289	669.831	681.9968	730.8492	848.2555	924.7592	954.5703	1005.8153	1075.7045	1132.8646	1234.1139	1333.2319	1345.2946	1458.2848	1658.2008	2234.4871	2371.2712	2373.3878	3063.6087	3112.8186	3493.3034	3495.3856	3578.3388
NC(CC#N)(C#C)C#N	N[C@@](CC#N)(C#C)C#N	
InChI=1S/C6H5N3/c1-2-6(9,5-8)3-4-7/h1H,3,9H2	InChI=1S/C6H5N3/c1-2-6(9,5-8)3-4-7/h1H,3,9H2/t6-/m1/s1
