22
gdb 109837	2.48589	0.97237	0.83094	2.5735	83.48	-0.2218	-0.0234	0.1985	1495.8637	0.191226	-404.32535	-404.314627	-404.313683	-404.362477	37.57	
C	 0.7686545572	 0.0077446278	-0.167819312	-0.380231
C	 0.1394659923	-0.9215775535	 0.8778873806	-0.202921
C	-1.3429045282	-1.1266076591	 0.6262663171	-0.008372
C	-1.8968219051	-2.2425152574	-0.2076073955	-0.023431
C	-1.0206661961	-3.293784147	-0.8729782413	-0.316149
C	-1.7520715491	-4.6134126252	-1.0257668369	 0.171513
O	-1.3111354612	-5.6842538168	-0.6983860685	-0.239754
N	-2.1416289647	-2.191038735	 1.2349926344	-0.109172
C	-1.5335900515	-3.1605258685	 2.136424703	-0.322947
H	 1.8227233535	 0.1968919967	 0.0557521804	 0.116995
H	 0.7099659106	-0.4263747433	-1.1713536634	 0.118911
H	 0.2547317672	 0.9746634079	-0.1959991604	 0.120213
H	 0.6792157025	-1.8720252578	 0.8948226844	 0.10134
H	 0.2649300594	-0.4831637317	 1.8764562437	 0.105422
H	-1.8837752957	-0.179044837	 0.5808283634	 0.086709
H	-2.7943673501	-2.0298738259	-0.791107414	 0.08966
H	-0.7810992326	-2.9397031586	-1.8870165285	 0.126593
H	-0.0785724601	-3.4821742685	-0.3572747851	 0.124498
H	-2.7664326598	-4.5249843547	-1.4809550083	 0.075988
H	-0.5189298142	-3.4913410397	 1.8769116249	 0.107945
H	-1.4988339571	-2.7260010171	 3.1404980536	 0.124888
H	-2.1720981473	-4.0483362955	 2.1785688684	 0.132301
44.6151	54.8794	69.5041	130.3206	144.5214	186.0547	221.0044	264.1401	296.388	320.6095	457.3882	494.2047	521.99	562.5588	721.4792	738.766	786.997	840.3436	874.6342	980.0369	1015.0849	1028.475	1050.5989	1071.1283	1111.8341	1139.914	1153.2139	1168.3049	1179.1833	1202.7173	1216.5928	1281.1267	1283.0298	1342.2423	1353.5736	1401.0943	1412.1168	1428.7788	1439.7137	1456.765	1468.2685	1486.4764	1494.2305	1498.4042	1503.0977	1508.3598	1835.4503	2859.0953	3004.5921	3009.7411	3027.668	3033.9344	3068.9951	3072.9503	3082.0276	3086.4123	3103.2078	3106.416	3108.5621	3134.8202
CCC1C(CC=O)N1C	CC[C@H]1[C@@H](CC=O)N1C	
InChI=1S/C7H13NO/c1-3-6-7(4-5-9)8(6)2/h5-7H,3-4H2,1-2H3	InChI=1S/C7H13NO/c1-3-6-7(4-5-9)8(6)2/h5-7H,3-4H2,1-2H3/t6-,7+,8?/m0/s1
