16
gdb 54041	2.51197	1.13512	0.8317	2.3096	75.38	-0.2688	-0.0436	0.2252	1346.8952	0.120401	-400.747648	-400.737673	-400.736729	-400.783771	34.49	
C	 0.0677818709	 1.3739240006	 0.4862278315	-0.487504
C	 0.0696065134	-0.0054464733	-0.1277432358	 0.389219
O	 1.0191785604	-0.4755311866	-0.7002247758	-0.27682
C	-1.2568435728	-0.8188951626	-0.0381708676	-0.262491
C	-1.0442925333	-2.2964645592	-0.45284393	-0.369815
C	-2.2982246866	-3.0091823752	-0.6445264012	 0.287572
C	-3.3457849894	-3.5747604209	-0.8045002164	-0.410896
C	-1.8731512373	-0.6940656036	 1.2815269017	 0.285571
N	-2.3285167576	-0.5846159253	 2.33818544	-0.319987
H	 0.9854769683	 1.8951264619	 0.2135634808	 0.152818
H	-0.8061992837	 1.9461832037	 0.1572330388	 0.149238
H	-0.003244299	 1.2935817434	 1.5760963482	 0.177834
H	-1.9406363648	-0.3496443651	-0.7601592163	 0.162419
H	-0.4504605067	-2.2909905471	-1.3712728194	 0.163191
H	-0.4300869251	-2.7946789846	 0.3048929453	 0.15553
H	-4.2652891467	-4.0882844964	-0.9411396038	 0.204121
37.8195	55.2562	114.7474	132.1483	162.5347	224.1924	253.9574	338.8212	358.1776	455.5376	461.4157	533.6265	584.3238	615.4316	632.5384	661.6509	790.3951	853.3111	930.9665	986.9834	1021.7026	1045.1212	1086.4237	1177.7565	1212.6789	1242.745	1321.6813	1344.1868	1389.8951	1459.1852	1468.0448	1472.1727	1826.9721	2245.716	2356.2634	3020.0642	3045.6304	3056.2768	3098.9411	3108.1008	3161.0665	3505.636
CC(=O)C(CC#C)C#N	CC(=O)[C@@H](CC#C)C#N	
InChI=1S/C7H7NO/c1-3-4-7(5-8)6(2)9/h1,7H,4H2,2H3	InChI=1S/C7H7NO/c1-3-4-7(5-8)6(2)9/h1,7H,4H2,2H3/t7-/m0/s1
