25
gdb 101171	2.0423	1.24411	1.06373	1.2324	89.94	-0.2436	0.0738	0.3174	1364.6999	0.226428	-389.472869	-389.461491	-389.460547	-389.509461	41.155	
C	-1.7810095764	 0.5660565991	 1.7579968561	-0.236952
O	-1.8823364156	-0.5896775933	 0.9597227208	-0.235699
C	-0.6448988695	-1.2441072684	 0.6997380896	 0.104021
C	-0.1754475496	-2.0485920567	 1.9210670313	-0.396422
C	-0.7433895863	-2.1408674967	-0.5249185675	-0.032873
C	-1.8997071397	-3.052670689	-0.8935204312	-0.020758
C	-3.2049454062	-3.1313539329	-0.1267289679	-0.413514
C	-1.5341842967	-1.8832067665	-1.7922301213	-0.043065
C	-2.4443019434	-0.6937052119	-2.0230173995	-0.409095
H	-1.4675017794	 0.3447562338	 2.7882213314	 0.108523
H	-1.0713981793	 1.2916314992	 1.3305148492	 0.10503
H	-2.7735570818	 1.0225037876	 1.7908324108	 0.126127
H	 0.1116354947	-0.4691243976	 0.4810113041	 0.063982
H	-0.9120680389	-2.8177866743	 2.1700417804	 0.128139
H	 0.7798934909	-2.5397849377	 1.711589333	 0.113968
H	-0.0315403456	-1.4081374804	 2.7961169837	 0.110357
H	 0.2350204646	-2.582643966	-0.7066470728	 0.077623
H	-1.5872240204	-4.0230665539	-1.274943939	 0.073642
H	-3.4883738724	-2.174789685	 0.3099207404	 0.142862
H	-4.014942414	-3.4723057782	-0.7822584712	 0.105551
H	-3.1249375083	-3.8541522807	 0.6937148842	 0.106658
H	-0.999666767	-2.16934468	-2.696514869	 0.074028
H	-3.0061237517	-0.4194262063	-1.1318180281	 0.137261
H	-1.8632597886	 0.1845421564	-2.3281141036	 0.105442
H	-3.1534937396	-0.9115430205	-2.8301422539	 0.105164
52.9425	71.6262	133.2604	146.4889	181.9981	189.5495	206.1688	218.6593	238.5196	294.0782	306.13	388.8085	414.9776	475.1694	556.6552	675.3984	728.2774	759.3976	789.8451	873.7574	945.2616	957.5539	994.2966	1025.4859	1051.0545	1080.4815	1104.1592	1127.403	1131.4538	1147.7002	1166.2548	1182.6405	1183.8707	1195.5592	1226.7702	1285.2049	1347.4864	1381.3242	1388.6843	1395.0214	1404.2408	1417.0379	1422.6478	1455.4804	1478.019	1482.8514	1486.5585	1492.1029	1497.8575	1502.486	1504.4612	1514.314	1519.3042	2935.6756	2979.1637	3026.7564	3029.146	3029.5076	3042.7074	3074.9307	3076.7756	3102.9848	3104.6501	3109.6115	3111.2193	3121.6607	3125.2232	3157.2732	3166.2054
COC(C)C1C(C)C1C	CO[C@@H](C)[C@H]1[C@@H](C)[C@H]1C	
InChI=1S/C8H16O/c1-5-6(2)8(5)7(3)9-4/h5-8H,1-4H3	InChI=1S/C8H16O/c1-5-6(2)8(5)7(3)9-4/h5-8H,1-4H3/t5-,6+,7-,8-/m0/s1
