23
gdb 94849	3.45384	1.05466	0.95625	2.01	84.79	-0.2409	0.0669	0.3079	1347.8552	0.20687	-388.289947	-388.280939	-388.279995	-388.324614	34.129	
C	-0.3922090967	 1.4215482444	 0.1099816128	-0.410775
C	 0.0942435289	-0.0254857102	 0.1188725765	 0.047044
C	 0.6625836434	-0.521521085	-1.2291145016	-0.207033
C	 1.5936200662	-1.7131207404	-0.8756949603	-0.304303
C	 1.7364947399	-1.7119511811	 0.6653086217	 0.322407
C	 1.0979151397	-2.8852707067	 1.4562606469	-0.115338
O	 2.3369942933	-3.1679607691	 2.1327971424	-0.274338
C	 3.0449861505	-2.2183451655	 1.3112355561	-0.144045
C	 1.2494586722	-0.3198695135	 1.0886068519	-0.274711
H	 0.4238136626	 2.1061744882	-0.1504300095	 0.111745
H	-1.194600288	 1.5683258733	-0.6210621769	 0.112684
H	-0.778145301	 1.7206577574	 1.0903153875	 0.11261
H	-0.7492884168	-0.6748198153	 0.3966540603	 0.071118
H	-0.1237680614	-0.792863109	-1.939272161	 0.095612
H	 1.2408363811	 0.2863204069	-1.693608257	 0.095744
H	 1.1920563012	-2.6680136738	-1.2288031978	 0.100832
H	 2.5741018397	-1.5979551	-1.3496948826	 0.1007
H	 0.2943898836	-2.6238941851	 2.1573151035	 0.095391
H	 0.7694625341	-3.7327891797	 0.8377501981	 0.089693
H	 3.7384904399	-2.7151165992	 0.6176151278	 0.090525
H	 3.6034610564	-1.4889027297	 1.9118807486	 0.0965
H	 2.0521630443	 0.4160710276	 0.9341799713	 0.089498
H	 0.9641631168	-0.2715455342	 2.1445293711	 0.09844
36.1889	72.1198	118.922	229.7602	251.6557	286.3134	354.6801	396.483	442.1156	446.2143	553.2552	743.4916	781.3086	847.316	852.8177	884.0249	903.453	933.4284	955.7441	969.0595	987.1985	1002.478	1017.3867	1039.6245	1057.2737	1109.0593	1139.8443	1157.5411	1162.4349	1181.7563	1222.3604	1235.9903	1258.0689	1279.515	1294.951	1309.4874	1314.4245	1337.9287	1353.2071	1383.0632	1387.4784	1411.2409	1485.2961	1487.3784	1497.0158	1498.5173	1506.4016	1513.2216	1534.6558	2984.6268	2988.5386	2997.0428	3007.2108	3023.5935	3031.8762	3036.5689	3040.3451	3046.6798	3072.5901	3074.7103	3088.7917	3094.1255	3095.4089
CC1CCC2(COC2)C1	C[C@H]1CCC2(COC2)C1	
InChI=1S/C8H14O/c1-7-2-3-8(4-7)5-9-6-8/h7H,2-6H2,1H3	InChI=1S/C8H14O/c1-7-2-3-8(4-7)5-9-6-8/h7H,2-6H2,1H3/t7-/m0/s1
