17
gdb 84214	3.80947	1.65614	1.53853	2.1069	77.74	-0.2014	-0.0382	0.1631	891.9711	0.136777	-384.556986	-384.550511	-384.549566	-384.587487	27.627	
O	 0.2385204964	 1.4041785682	-0.1222934257	-0.430801
C	 0.1058698254	 0.000234017	-0.0843215417	 0.11928
C	 0.6827516254	-0.5668845969	 1.2368545898	-0.194471
C	-0.2022331225	-1.4799753452	 1.6762931398	 0.085561
C	-1.4433892048	-1.2141284364	 2.4958470467	-0.119264
C	-2.2025764568	-0.3956339685	 1.3485706892	-0.092216
C	-2.3557377494	-1.8931667166	 1.5247585616	-0.091316
C	-1.142681159	-1.9890259041	 0.552987536	-0.105716
C	-1.3617317203	-0.5486295777	 0.0276614115	-0.065001
H	-0.1528778825	 1.753865411	 0.6869660863	 0.281138
H	 0.5503108968	-0.3517276066	-1.0239155799	 0.094819
H	 1.252810492	 0.1053309838	 1.8722668922	 0.090749
H	-1.6065082262	-0.9474953538	 3.53312073	 0.095593
H	-2.9092344534	 0.3828883248	 1.6116711372	 0.090434
H	-3.234346098	-2.5067121708	 1.6614402171	 0.093766
H	-0.8759403312	-2.8317593224	-0.0800951644	 0.079917
H	-1.9792214019	-0.4012582259	-0.8639609357	 0.067529
121.9426	281.4959	371.3815	397.1742	517.6362	523.1685	556.5867	660.8177	698.8433	751.9843	771.7102	803.8162	814.3341	836.0628	864.478	882.4752	929.0321	954.4602	969.5193	990.699	1021.3321	1023.0168	1045.3837	1062.3529	1100.0983	1108.0012	1170.7902	1185.217	1201.3759	1216.9492	1232.1801	1241.1587	1293.9856	1308.0675	1338.8281	1419.183	1594.8036	3024.8486	3069.8135	3144.5654	3163.0124	3180.0081	3188.2439	3221.6296	3785.5327
OC1C=C2C3C4C3C2C14	O[C@H]1[CH][C]2[C@H]3[C@@H]4[C@H]3[C@H]2[C@H]14	
InChI=1S/C8H8O/c9-3-1-2-4-6(3)8-5(2)7(4)8/h1,3-9H	InChI=1S/C8H8O/c9-3-1-2-4-6(3)8-5(2)7(4)8/h1,3-9H/t3-,4+,5+,6-,7-,8-/m0/s1
