16
gdb 123544	4.13104	1.56854	1.37425	3.8685	74.33	-0.2237	-0.0038	0.2199	933.6964	0.128071	-400.691298	-400.685336	-400.684391	-400.72162	24.711	
C	-0.042121794	 1.5798642821	-0.0513225283	-0.208008
C	 1.5222720356	 1.3605902342	-0.0073118967	-0.180032
C	 1.182135344	 0.1737862176	 0.9791656975	-0.207997
C	-0.0697929626	 0.0070020738	 0.0371890104	-0.175701
C	 0.636647815	-0.3389874901	-1.274062304	 0.207977
C	 1.6629939735	 0.5513929186	-1.2786545369	 0.416105
O	 2.434775892	 0.4416972435	-2.3454662964	-0.241937
N	 1.8934663656	-0.6089756542	-3.1365416013	-0.156578
C	 0.8328495099	-1.047993773	-2.4746125351	-0.184666
H	-0.4174092579	 2.0675277575	 0.8533911879	 0.104575
H	-0.4606530648	 2.0438766402	-0.9466903	 0.110668
H	 2.228204809	 2.1513387008	 0.2329734775	 0.091538
H	 1.8899870468	-0.6558664531	 1.0319136986	 0.110662
H	 0.9216769944	 0.5295473352	 1.9805420949	 0.104564
H	-0.9575486283	-0.5398237776	 0.3457664708	 0.079813
H	 0.2709418218	-1.8599846953	-2.9149375988	 0.129019
121.4295	300.3717	401.4925	474.4944	519.2982	620.3231	657.3495	691.6773	749.5363	799.9482	818.3816	829.6138	860.3976	895.9201	906.8146	963.377	999.8525	1004.5388	1027.6669	1070.6198	1084.0598	1097.8624	1147.3331	1192.111	1217.9274	1221.8374	1227.6622	1260.3539	1275.7119	1384.048	1393.0606	1479.8506	1495.1536	1516.2721	1602.4633	3050.2152	3059.6281	3124.6013	3128.7325	3148.487	3156.6715	3239.7296
C1C2CC1C1=C2ON=C1	C1[C@H]2C[C@@H]1c1c2onc1	
InChI=1S/C7H7NO/c1-4-2-5(1)7-6(4)3-8-9-7/h3-5H,1-2H2	InChI=1S/C7H7NO/c1-4-2-5(1)7-6(4)3-8-9-7/h3-5H,1-2H2/t4-,5+
