16
gdb 66377	2.41138	1.46065	1.37307	3.8653	64.59	-0.2767	0.0038	0.2805	1018.2015	0.124703	-475.021897	-475.013776	-475.012832	-475.054439	30.359	
O	-0.0691469161	 1.3816206388	 0.0210828746	-0.447862
C	 0.0304677166	-0.0294487155	-0.017754614	 0.187311
C	 0.7467894675	-0.5804519457	 1.2404910352	-0.131153
O	 0.6128586271	-1.9833151269	 1.318797017	-0.225946
C	-0.7393193499	-2.367148772	 1.328663649	 0.020822
O	-1.4163550999	-1.9732403946	 0.1630355148	-0.228989
C	-1.4156879798	-0.5708446095	 0.0072646411	-0.111848
C	 0.729795072	-0.4729736098	-1.2389812887	 0.257168
N	 1.3108312028	-0.758410001	-2.1960586418	-0.329508
H	 0.7920442741	 1.7635372802	-0.1830379603	 0.301189
H	 1.8160658516	-0.3549513664	 1.2216044784	 0.125627
H	 0.2899994294	-0.0804970187	 2.109259633	 0.11004
H	-0.7618883999	-3.4567906595	 1.3591765442	 0.133339
H	-1.2419406308	-1.9386455564	 2.2163933971	 0.085954
H	-1.9319008144	-0.0693187288	 0.8409581878	 0.112722
H	-1.9350121704	-0.3381024843	-0.9234772274	 0.141135
110.1946	143.6803	217.0703	263.5781	273.4524	320.8305	354.6241	442.4547	445.4703	459.2809	602.6251	606.9014	669.2491	744.4491	941.3138	951.9904	972.8345	982.2325	1076.8369	1085.1595	1128.992	1144.4461	1192.2083	1219.4417	1239.1192	1303.1717	1330.5067	1357.5288	1378.3249	1407.3386	1441.2842	1489.3309	1495.7257	1509.3057	2354.7184	2929.8289	2986.5022	2995.9204	3101.1947	3125.5202	3135.1695	3808.5468
OC1(COCOC1)C#N	OC1(COCOC1)C#N	
InChI=1S/C5H7NO3/c6-1-5(7)2-8-4-9-3-5/h7H,2-4H2	InChI=1S/C5H7NO3/c6-1-5(7)2-8-4-9-3-5/h7H,2-4H2
