19
gdb 68909	2.71367	1.43792	1.12742	2.5425	75.29	-0.2391	-0.0177	0.2214	1122.0556	0.157814	-423.050507	-423.04182	-423.040876	-423.083407	33.914	
C	-0.0812536745	 1.4984188533	 0.0888966775	-0.477219
C	 0.0242696552	-0.0053636017	 0.0126578342	 0.294376
C	 1.3847639636	-0.6471156518	-0.2242432351	-0.401721
C	 0.6938236368	-0.8145262253	 1.1085006118	 0.361367
O	 1.1857162973	-0.1392556401	 2.2265498412	-0.470342
C	-0.0751198568	-2.1031197616	 1.3281218184	-0.393559
C	-1.0461886727	-2.1912344509	 0.1428327884	 0.385074
O	-1.6193637751	-3.1838930043	-0.2212354438	-0.304324
C	-1.1619795593	-0.8034214369	-0.5034894885	-0.387209
H	 0.7665169157	 1.9200055979	 0.6340667169	 0.13097
H	-0.1053637011	 1.9457589067	-0.9110671418	 0.11704
H	-0.9960492836	 1.8009178104	 0.6113134763	 0.116882
H	 1.4723117013	-1.4971486266	-0.8964054714	 0.113516
H	 2.2330173839	 0.0290864954	-0.2402406786	 0.115319
H	 2.0126575598	-0.5562443677	 2.4911731798	 0.285676
H	 0.5330592517	-3.0107343388	 1.3935565934	 0.121571
H	-0.6596539162	-2.0274894949	 2.2545246094	 0.136376
H	-2.1086421518	-0.3545608431	-0.171816002	 0.128253
H	-1.2170369641	-0.8955709401	-1.592866786	 0.127952
84.7105	183.8193	193.0348	224.813	286.9298	309.8817	350.0412	414.0726	461.2716	473.0919	511.0715	542.0001	584.2868	688.9482	733.7686	797.6955	835.2009	898.2104	925.6098	934.3381	986.0845	1016.0433	1046.4355	1081.0539	1109.0027	1142.8847	1196.9432	1209.1639	1226.3407	1244.0787	1276.739	1312.2937	1350.0815	1402.1555	1417.6161	1450.7901	1455.3819	1489.8364	1491.9395	1503.9254	1849.3949	3021.7894	3029.2774	3033.5123	3081.663	3085.867	3085.9425	3113.4828	3121.7776	3207.0721	3800.7577
CC12CC1(O)CC(=O)C2	C[C@@]12C[C@]1(O)CC(=O)C2	
InChI=1S/C7H10O2/c1-6-2-5(8)3-7(6,9)4-6/h9H,2-4H2,1H3	InChI=1S/C7H10O2/c1-6-2-5(8)3-7(6,9)4-6/h9H,2-4H2,1H3/t6-,7-/m1/s1
