23
gdb 64286	2.5543	1.5617	1.28477	1.4377	83.96	-0.2391	0.0757	0.3147	1120.705	0.20648	-388.295246	-388.286454	-388.28551	-388.328283	34.973	
C	-0.0603710157	 1.5837616477	-0.0753421084	-0.444476
C	 0.0246058191	 0.0571660397	 0.003598818	 0.276239
C	-1.3852647875	-0.5552372416	-0.0914182566	-0.425987
C	 0.922476843	-0.5472947843	-1.0992779573	-0.116771
O	 1.2804084894	-1.8470620763	-0.6446612393	-0.266784
C	 1.4382650776	-1.7937846635	 0.7657718125	 0.111927
C	 2.8020439742	-1.2460039329	 1.2715967821	-0.238947
C	 2.1134801554	 0.0868087596	 1.6813320283	-0.262644
C	 0.7262798863	-0.4956882092	 1.2652819999	-0.0419
H	 0.9235356551	 2.0577569611	-0.0159371149	 0.113892
H	-0.5206575766	 1.8964041838	-1.0195684909	 0.113481
H	-0.6754463456	 1.9860563896	 0.7367592926	 0.114365
H	-1.8886604278	-0.2362041009	-1.0108836395	 0.107767
H	-1.3390509452	-1.6481028581	-0.0962295843	 0.127537
H	-2.0067572067	-0.2428144477	 0.7546822842	 0.10825
H	 0.4143472337	-0.658854276	-2.0619401684	 0.103192
H	 1.8169610965	 0.0776210032	-1.2575215248	 0.081623
H	 1.1318641525	-2.7629193631	 1.1667126727	 0.073779
H	 3.2146021529	-1.8126312094	 2.1102698895	 0.098975
H	 3.5655061193	-1.1760116146	 0.4929460078	 0.105831
H	 2.1925841736	 0.3410809779	 2.740639236	 0.100287
H	 2.4378505421	 0.9570815759	 1.1058948294	 0.098683
H	 0.0297173043	-0.6152834809	 2.0977923513	 0.06168
70.5816	172.7698	208.0597	218.8689	260.7199	321.0703	331.465	369.0101	400.085	467.7463	558.1908	648.95	724.9358	739.6534	806.1279	850.0748	872.5141	905.9731	934.1731	950.217	964.275	976.87	999.1512	1022.3706	1035.6856	1047.3177	1096.8813	1123.598	1187.8391	1209.0805	1216.5198	1239.4506	1250.9273	1255.6225	1262.8508	1274.7289	1285.5522	1333.3084	1352.2303	1384.1992	1399.9598	1423.6128	1469.3692	1485.6955	1488.1584	1490.8449	1505.6173	1511.0751	1519.6962	2965.139	3026.6667	3031.5315	3058.8137	3065.2558	3072.183	3076.9846	3085.7875	3089.2612	3094.9555	3102.372	3107.7616	3110.6447	3123.3172
CC1(C)COC2CCC12	CC1(C)CO[C@H]2CC[C@@H]12	
InChI=1S/C8H14O/c1-8(2)5-9-7-4-3-6(7)8/h6-7H,3-5H2,1-2H3	InChI=1S/C8H14O/c1-8(2)5-9-7-4-3-6(7)8/h6-7H,3-5H2,1-2H3/t6-,7+/m1/s1
