20
gdb 113968	3.16198	0.81435	0.69627	3.7065	80.54	-0.2546	0.017	0.2716	1666.7449	0.168962	-440.255313	-440.245256	-440.244312	-440.291544	35.607	
C	-0.0850523159	 1.0503203444	 0.1261604105	-0.315343
N	-0.4956583667	-0.2132896026	-0.4497921967	-0.203369
C	 0.3829148807	-0.899412905	-1.0269900558	 0.129389
O	 0.0618138516	-2.0958727038	-1.5787022424	-0.220047
C	 1.0923449833	-2.757851994	-2.2789603116	 0.097076
C	 2.1459424992	-3.5157184154	-1.5148858299	-0.334894
C	 1.0338587568	-4.2526597144	-2.2364410767	-0.058564
C	-0.0768324245	-4.9084494842	-1.4354661355	-0.071854
O	-1.3398432443	-4.7722060143	-2.059069472	-0.424434
H	 0.9835962915	 1.2815338943	-0.0131412896	 0.097576
H	-0.6737220237	 1.8623031544	-0.3152715009	 0.130833
H	-0.2998396749	 1.0502694177	 1.2007285188	 0.130628
H	 1.4423698915	-0.6261488138	-1.1380720215	 0.08377
H	 1.3661702432	-2.2660398506	-3.2089705495	 0.107226
H	 3.153283036	-3.5424721061	-1.9151049853	 0.121638
H	 2.0878934507	-3.4841450662	-0.4317048069	 0.128232
H	 1.2869037325	-4.7583531588	-3.1631668401	 0.100549
H	 0.1133426858	-5.9836735033	-1.3545850635	 0.110447
H	-0.0886483065	-4.5000217744	-0.4152255929	 0.095036
H	-1.5535344563	-3.8320751341	-2.0340490087	 0.296103
48.2867	64.5204	79.4182	142.8155	187.2221	208.7504	272.3122	302.049	356.4011	393.1387	462.4874	504.4712	523.1725	642.9978	788.3346	840.0492	878.8679	940.2873	981.2955	1012.4007	1023.0672	1061.7714	1067.7538	1080.394	1131.6237	1137.1994	1141.9106	1152.0104	1173.3184	1214.0762	1246.1216	1254.4337	1356.4517	1382.89	1409.9816	1414.3904	1433.0545	1451.0849	1479.315	1480.8639	1501.7923	1504.8398	1781.3029	2970.454	3005.9074	3014.4598	3061.5118	3075.4797	3080.9897	3131.7278	3135.2064	3160.9204	3221.555	3798.7388
CN=COC1CC1CO	CN=CO[C@H]1C[C@H]1CO	
InChI=1S/C6H11NO2/c1-7-4-9-6-2-5(6)3-8/h4-6,8H,2-3H2,1H3	InChI=1S/C6H11NO2/c1-7-4-9-6-2-5(6)3-8/h4-6,8H,2-3H2,1H3/t5-,6-/m0/s1
