23
gdb 39653	3.74691	1.00211	0.95737	0.2474	89.76	-0.2445	0.0867	0.3312	1370.1765	0.207867	-351.113557	-351.10528	-351.104336	-351.146955	32.798	
C	 0.0281302242	 1.6176363383	-0.0914672365	-0.20886
C	 1.5516007033	 1.4703874858	 0.1661275075	-0.229314
C	 1.2961959624	-0.0003694617	 0.6146225663	 0.040397
C	-0.076401327	 0.069340841	-0.1206535156	-0.229323
C	 2.2814882552	-1.0612672871	 0.2043696981	-0.013529
C	 3.5179032435	-1.4665235281	 0.9680619295	-0.076285
C	 3.2779266547	-1.4764162284	 2.4842445066	-0.229242
C	 2.1036752152	-2.4878126399	 2.277449783	-0.229204
C	 2.3641470731	-2.4596100604	 0.7648451193	-0.076353
H	-0.4892811816	 2.0416558058	 0.7742541766	 0.099014
H	-0.2864232354	 2.1656053051	-0.9828658379	 0.092919
H	 2.1233450751	 1.5030166686	-0.7675429035	 0.094504
H	 2.0225288361	 2.1482575282	 0.8826676637	 0.092096
H	 1.1245948449	-0.0220267392	 1.694685279	 0.068542
H	-0.938151966	-0.399680715	 0.3611307676	 0.092098
H	 0.003871737	-0.3209842262	-1.1408981944	 0.094505
H	 2.4673878023	-1.0572231888	-0.8703309376	 0.073862
H	 4.4950344236	-1.4555714305	 0.4987763179	 0.077523
H	 4.1075846025	-1.923582681	 3.0361255149	 0.100034
H	 3.037606747	-0.5147288988	 2.9491856911	 0.094527
H	 2.3221952709	-3.461396542	 2.7215812272	 0.100063
H	 1.1077438475	-2.1769797625	 2.6094854661	 0.0945
H	 2.3210083312	-3.326790353	 0.115791381	 0.077527
55.182	114.1583	144.7625	197.7368	278.1155	357.1894	462.9778	467.8726	652.3414	731.7876	753.405	781.7551	786.8754	802.9044	815.2462	897.4289	932.5614	934.5234	943.1629	949.2357	961.0427	979.3081	1007.8589	1023.4494	1047.4692	1064.0952	1081.6187	1099.104	1121.089	1150.9159	1200.9046	1220.8663	1223.2344	1242.8987	1250.1596	1254.6685	1256.5724	1263.0994	1275.9884	1285.4117	1305.8641	1327.6956	1359.7498	1461.3352	1479.0438	1483.2573	1487.0016	1504.5542	1510.8709	3042.7749	3043.2694	3046.0428	3049.6706	3055.3027	3062.1649	3092.6094	3093.1252	3097.8435	3101.8099	3111.2523	3115.1315	3165.7894	3177.8549
C1CC(C1)C1C2CCC12	C1CC(C1)[C@H]1[C@H]2CC[C@@H]12	
InChI=1S/C9H14/c1-2-6(3-1)9-7-4-5-8(7)9/h6-9H,1-5H2	InChI=1S/C9H14/c1-2-6(3-1)9-7-4-5-8(7)9/h6-9H,1-5H2/t7-,8+,9-
