13
gdb 129118	5.1363	1.41723	1.1186	1.6029	64.64	-0.2562	-0.0273	0.2289	985.8061	0.09294	-448.950882	-448.944583	-448.943639	-448.981897	23.664	
N	-0.0674293592	 1.202881095	 0.0072736742	-0.502874
C	-0.0344748189	-0.0461944437	 0.0007363197	 0.384266
C	-1.2552149712	-0.9806502603	 0.0025886731	-0.257541
N	-0.575297427	-2.250432246	-0.007698414	-0.000472
N	-0.9038849568	-3.5726918731	-0.0125735764	-0.267169
C	 0.3029165148	-4.1231390688	-0.0216843161	 0.032667
N	 1.3796114864	-3.2605864628	-0.0233118542	-0.385205
C	 0.753325438	-2.1166621218	-0.0141571977	 0.504108
O	 1.1424410066	-0.8172208394	-0.0096407805	-0.246841
H	 0.8673038472	 1.6120703532	 0.0042649294	 0.251945
H	-1.8655493226	-0.82790938	 0.8971350803	 0.174405
H	-1.8753042524	-0.8186840911	-0.8835845412	 0.174407
H	 0.4281123651	-5.1951846614	-0.0277409665	 0.138303
106.8502	153.8363	322.8928	352.7096	533.8842	539.3008	579.3973	663.9531	744.8833	764.3841	826.1778	863.1271	894.9281	898.2202	976.8658	1008.557	1020.8414	1142.5094	1181.6621	1186.6757	1240.0753	1273.9245	1298.3309	1360.1651	1442.5668	1490.3703	1548.8622	1612.8951	1827.6746	3064.1447	3107.5072	3268.6274	3499.1247
N=C1CN2N=CN=C2O1	[NH][C]1Cn2ncnc2O1	
InChI=1S/C4H4N4O/c5-3-1-8-4(9-3)6-2-7-8/h2,5H,1H2	InChI=1S/C4H4N4O/c5-3-1-8-4(9-3)6-2-7-8/h2,5H,1H2
