16
gdb 15565	3.54596	1.744	1.2416	1.1194	76.22	-0.2299	-0.0252	0.2048	963.6335	0.129226	-346.582865	-346.57494	-346.573995	-346.615228	29.251	
C	 0.1233485901	 1.559886761	-0.1033410376	-0.39103
C	-0.0164114427	 0.0507335141	 0.0737413593	 0.026303
O	 0.4973911114	-0.629258186	-1.0736576271	-0.277493
C	 1.4389406731	-1.6254534395	-0.6949507017	-0.1106
C	 1.6031166821	-1.4716908916	 0.7861787354	-0.227973
C	 0.7758030911	-0.5247866286	 1.2403637316	 0.179504
C	 0.5904302841	-0.0874076357	 2.5703889062	 0.24703
C	 0.3906733743	 0.3195567345	 3.6869899933	-0.432691
H	 1.1764803113	 1.8366476094	-0.2077542729	 0.11874
H	-0.4127849078	 1.8809855764	-1.0004540267	 0.125997
H	-0.2950909205	 2.0845804697	 0.7607981232	 0.12486
H	-1.0840631348	-0.1977014593	 0.1926458766	 0.087195
H	 1.0679825272	-2.6290983258	-0.9636292757	 0.108886
H	 2.3806167196	-1.4752267752	-1.245230323	 0.112338
H	 2.286647668	-2.0631465772	 1.3807309029	 0.112926
H	 0.2274276634	 0.6669727936	 4.6770542963	 0.196007
73.5125	138.6828	159.5602	237.2562	278.7232	348.1755	434.3637	518.4738	537.7397	596.175	633.6018	640.6218	764.8898	801.9858	839.3955	875.9537	952.8094	1036.6363	1048.1375	1071.6066	1116.0633	1123.6684	1195.6815	1200.0508	1273.6234	1332.5763	1371.354	1382.8484	1400.8839	1485.5583	1494.708	1518.0963	1684.8213	2224.0407	2959.0601	2964.1727	2990.9673	3042.5886	3121.0684	3123.5538	3227.2712	3502.5066
CC1OCC=C1C#C	C[C@H]1OCC=C1C#C	
InChI=1S/C7H8O/c1-3-7-4-5-8-6(7)2/h1,4,6H,5H2,2H3	InChI=1S/C7H8O/c1-3-7-4-5-8-6(7)2/h1,4,6H,5H2,2H3/t6-/m1/s1
