17
gdb 91532	2.483	1.58302	1.1313	6.3964	69.03	-0.2523	0.0043	0.2566	1078.9634	0.137179	-455.121864	-455.113689	-455.112745	-455.154807	30.975	
N	 0.1155506756	 1.0539170755	-0.0278176924	-0.53592
H	 0.2900559082	 0.0601904591	-0.1368045648	 0.236988
H	 1.5578551172	 2.20206832	 1.3953502855	 0.311641
H	-0.3219701601	 1.3870786672	-0.8805298009	 0.242185
C	-0.6869952883	 1.335010969	 1.1467561411	-0.070761
C	-1.95906993	 0.575243624	 1.6535860162	-0.201032
N	-1.3665286581	 0.4244418482	 3.0354464331	-0.144834
C	-0.2212674965	-0.4595998706	 2.8416484826	-0.274524
C	-0.0508084889	 0.9718631806	 2.4744662276	 0.198022
C	 0.9396767392	 1.8392529734	 3.1773566345	 0.340557
O	 1.7533092032	 2.4878105361	 2.3053988875	-0.382379
O	 1.0617847595	 1.9528165945	 4.3639615714	-0.326069
H	-0.909150326	 2.4063933345	 1.1343975109	 0.116311
H	-2.8649818859	 1.1818121998	 1.6814478033	 0.121405
H	-2.1752260356	-0.3858948316	 1.1753934944	 0.106895
H	 0.2555864623	-0.7511210772	 3.772146802	 0.153351
H	-0.2632939357	-1.2334223926	 2.0766331582	 0.108164
82.953	117.3624	176.7563	209.1834	299.0129	364.7763	402.3333	444.4045	487.7281	615.0411	679.4695	682.8049	730.2504	746.7686	829.0042	834.6453	867.3598	881.0188	980.0311	1006.7119	1029.7525	1101.4364	1110.0157	1142.278	1162.4679	1186.0234	1220.5679	1254.4328	1267.6737	1323.4102	1337.7835	1391.7098	1444.4175	1485.9957	1510.142	1655.9872	1876.4591	3050.2294	3066.7849	3096.512	3128.709	3204.1042	3502.9696	3586.5033	3640.4773
[NH3+]C1CN2CC12C([O-])=O	N[C@H]1CN2C[C@@]12C(=O)O	
InChI=1S/C5H8N2O2/c6-3-1-7-2-5(3,7)4(8)9/h3H,1-2,6H2,(H,8,9)	InChI=1S/C5H8N2O2/c6-3-1-7-2-5(3,7)4(8)9/h3H,1-2,6H2,(H,8,9)/t3-,5-,7?/m0/s1
