15
gdb 56071	6.29932	0.55504	0.53357	4.5137	68.5	-0.2497	-0.0259	0.2238	1954.0548	0.109132	-491.128729	-491.118639	-491.117695	-491.166484	32.792	
N	-0.0692907266	 1.2842727909	 0.1046592005	-0.563613
C	 0.1402230789	-0.0470799359	 0.0135580515	 0.524048
O	 1.2003628469	-0.6042593795	-0.111222807	-0.378549
O	-1.0865853151	-0.6882171936	 0.0868315174	-0.236225
C	-1.0743959548	-2.0511578492	 0.0171460174	 0.128722
N	-2.1692969674	-2.6637274608	 0.0765101455	-0.224066
C	-2.1244063337	-4.1084428927	 0.0102934882	-0.238842
C	-2.899585513	-4.7212905932	 1.17131679	 0.156478
O	-2.710057753	-5.8329256551	 1.5874049096	-0.234184
H	 0.7251809329	 1.8968636507	 0.0694694478	 0.281069
H	-0.9962361289	 1.6561295879	 0.209777581	 0.280187
H	-0.073456618	-2.4751694336	-0.08856056	 0.144104
H	-2.6449828315	-4.434824377	-0.903551063	 0.143018
H	-1.1151818202	-4.5455375565	-0.0147156618	 0.12242
H	-3.6789819664	-4.0509481025	 1.5947858629	 0.095432
31.9427	42.7012	61.786	86.9473	136.1366	149.8509	240.2051	340.1127	345.9422	424.4221	511.4116	558.3446	612.0672	670.2361	741.981	774.6759	949.3319	1002.2489	1039.3785	1081.5619	1105.6659	1121.3856	1200.438	1237.1658	1319.2052	1343.6111	1383.6788	1407.8163	1456.4437	1606.2865	1776.4311	1841.5846	1864.8389	2902.9196	2985.5812	3028.8944	3116.6587	3632.4861	3770.9921
NC(=O)OC=NCC=O	NC(=O)OC=NCC=O	
InChI=1S/C4H6N2O3/c5-4(8)9-3-6-1-2-7/h2-3H,1H2,(H2,5,8)	InChI=1S/C4H6N2O3/c5-4(8)9-3-6-1-2-7/h2-3H,1H2,(H2,5,8)
