22
gdb 56148	2.97582	0.93913	0.88326	5.4492	78.34	-0.2421	0.0236	0.2657	1437.2658	0.192108	-441.526099	-441.515645	-441.514701	-441.561788	38.927	
C	-0.0939766956	 1.5750156726	 0.4380107288	-0.398309
C	-0.0196289983	 0.1106480005	-0.0391071139	 0.251286
C	 0.8166838479	-0.7250919525	 0.9417242422	-0.404273
C	-1.4385105321	-0.4701002363	-0.1342362423	-0.403325
N	 0.5629069376	 0.0033664406	-1.4042941107	-0.325045
H	 1.2829659139	-1.7013803158	-1.8595866764	 0.296742
H	-0.0398296248	 0.49765778	-2.0516499947	 0.227608
C	 1.9576476889	 0.4069296627	-1.6015957252	-0.329679
C	 2.8923562865	-0.8104319832	-1.72000066	 0.431731
O	 2.2322497915	-1.9617344769	-1.9016970825	-0.362422
O	 4.0899181898	-0.7269273723	-1.6816935829	-0.339643
H	 0.897748061	 2.0316929781	 0.508379376	 0.12067
H	-0.6975398666	 2.1779840207	-0.2496153105	 0.107579
H	-0.5539817769	 1.6375419879	 1.4292276904	 0.121036
H	 0.3559339195	-0.7041839096	 1.9334548294	 0.119583
H	 0.8826728207	-1.7669728983	 0.6169318845	 0.129623
H	 1.8346621743	-0.3382721404	 1.0466258857	 0.128169
H	-2.0494610847	 0.0968348997	-0.8465272566	 0.108226
H	-1.4105736791	-1.5121111486	-0.4654200034	 0.121375
H	-1.9396915429	-0.4285335373	 0.8370569244	 0.120996
H	 2.0514114147	 0.9594445409	-2.542420317	 0.139503
H	 2.3569031346	 1.0614630174	-0.8206517352	 0.138567
49.3995	65.7916	114.5265	205.7995	250.2286	251.6277	265.2046	281.5764	334.7264	357.3788	393.1309	446.6084	465.4465	547.0156	566.8339	640.2945	738.7168	772.1399	864.4011	885.3269	891.6581	917.0912	933.2703	958.9472	1014.1781	1047.4294	1056.7353	1115.0433	1212.8321	1225.755	1233.8011	1254.7414	1292.2594	1342.6216	1399.4707	1405.0438	1425.6209	1433.7978	1461.8459	1469.244	1478.8594	1481.1906	1485.0623	1505.551	1515.4598	1516.3616	1876.6062	3028.0808	3032.6039	3045.4521	3051.4679	3092.6776	3096.1857	3101.7551	3105.8115	3114.3271	3118.3798	3124.2192	3429.8452	3538.4137
CC(C)(C)[NH2+]CC([O-])=O	CC(C)(C)NCC(=O)O	
InChI=1S/C6H13NO2/c1-6(2,3)7-4-5(8)9/h7H,4H2,1-3H3,(H,8,9)	InChI=1S/C6H13NO2/c1-6(2,3)7-4-5(8)9/h7H,4H2,1-3H3,(H,8,9)
