18
gdb 110597	3.26911	1.41884	1.17916	1.3869	71.94	-0.2445	0.0496	0.2941	1068.3864	0.147605	-438.978252	-438.970317	-438.969372	-439.01064	31.064	
O	 0.4453089472	 0.3244761057	 0.9296935633	-0.418423
C	-0.0822583523	 0.3165340824	-0.40430256	-0.118797
C	-1.457389157	-0.3267370451	-0.3980501753	-0.046059
N	-1.9381353899	-1.0552922094	-1.6553297134	-0.181437
C	-1.0807782736	-2.2989745347	-1.3016488911	-0.080083
C	-2.2866242682	-3.2298023173	-1.4585262576	-0.268627
C	-2.8246894684	-1.9760131402	-0.7654179173	-0.040886
C	-1.5562997969	-1.7579969863	 0.1037573839	 0.373891
O	-1.3162304958	-2.2451741286	 1.3693533379	-0.476473
H	-0.0633159168	 0.9614093311	 1.4426776895	 0.290293
H	-0.1010553525	 1.3278594753	-0.8317658506	 0.103479
H	 0.6226024174	-0.2765282625	-0.993391174	 0.12194
H	-2.221528618	 0.3652246253	-0.0166070326	 0.065635
H	-0.0695910379	-2.4089993187	-1.6940585956	 0.083898
H	-2.6323551144	-3.3996261517	-2.4811897112	 0.107598
H	-2.2780347625	-4.1494921962	-0.8707316385	 0.112887
H	-3.8480157246	-1.6780437987	-0.5303372763	 0.083217
H	-0.5319618057	-1.7788371405	 1.6892472589	 0.287948
89.1291	131.3817	234.943	277.2176	312.2019	355.4651	373.938	468.185	502.9328	580.0013	651.5538	738.0707	771.3819	855.7513	887.2262	911.717	921.2858	934.8174	953.9198	1016.7682	1023.5528	1035.7503	1072.5409	1092.9442	1128.9957	1139.8459	1166.0091	1174.2237	1216.2536	1225.0779	1231.255	1280.6995	1306.3834	1371.2904	1400.1124	1408.3046	1434.5757	1488.6214	1507.2298	3007.911	3021.1593	3066.2695	3096.7735	3103.5854	3114.1142	3135.0166	3762.8067	3811.8412
OCC1N2C3CC2C13O	OC[C@H]1N2[C@@H]3C[C@H]2[C@]13O	
InChI=1S/C6H9NO2/c8-2-5-6(9)3-1-4(6)7(3)5/h3-5,8-9H,1-2H2	InChI=1S/C6H9NO2/c8-2-5-6(9)3-1-4(6)7(3)5/h3-5,8-9H,1-2H2/t3-,4+,5-,6+/m1/s1
