22
gdb 86341	2.20663	1.51246	1.03767	2.4675	82.85	-0.2372	0.0804	0.3176	1239.2671	0.192928	-404.305366	-404.295815	-404.294871	-404.340166	35.474	
C	-1.1851295003	 0.9124774556	-0.738906084	-0.403911
C	-0.16253639	-0.1991681709	-0.6282814864	 0.149343
O	 1.0482976961	 0.0849042985	-1.3676003139	-0.313605
C	 1.8860888798	-0.2451973579	-0.2351051777	 0.149344
C	 2.9241566849	 0.8201464796	 0.0497625925	-0.403911
C	 0.6435249686	-0.3817974963	 0.6868103609	-0.055215
N	 0.4817718285	 0.6845878878	 1.6544602992	-0.047965
C	-0.4859033541	 0.4457302822	 2.7221475291	-0.225291
C	 0.9744198427	 0.4129361428	 3.0023879766	-0.225289
H	-0.7889929733	 1.8456162115	-0.3344348074	 0.135298
H	-1.4458754212	 1.0634522817	-1.7912642425	 0.122384
H	-2.1002894191	 0.6521538609	-0.1960723721	 0.108986
H	-0.5991660648	-1.1502227267	-0.968329366	 0.064902
H	 2.3759144774	-1.2170675468	-0.3973463177	 0.064902
H	 2.447295798	 1.7729110425	 0.2866436903	 0.135298
H	 3.5612566522	 0.5249601201	 0.8905499849	 0.108987
H	 3.5621099956	 0.9509004507	-0.8300999059	 0.122383
H	 0.5325007547	-1.3761357226	 1.1488875892	 0.050827
H	-1.0863125112	 1.3019165246	 3.014966612	 0.120207
H	-1.0150493731	-0.5061377504	 2.7275549552	 0.111061
H	 1.4222653305	-0.5608728408	 3.19528139	 0.111061
H	 1.460345728	 1.2447261339	 3.5036766035	 0.120207
53.9368	71.3583	160.3522	186.747	210.0502	216.3865	303.4524	310.0483	384.7823	405.2903	475.8022	576.0328	711.9992	787.0811	814.2688	862.0975	877.7156	900.6298	923.5027	939.2748	1011.1162	1019.4565	1039.8082	1080.6407	1108.552	1118.4801	1121.2098	1124.0222	1146.7157	1172.3264	1175.4622	1206.4903	1254.5637	1285.1413	1320.0859	1343.034	1363.4986	1383.1464	1399.1711	1399.3526	1421.4772	1480.6828	1485.3152	1490.0802	1492.6481	1495.0949	1519.3341	2952.8227	2981.4747	2992.8199	3039.0845	3039.7673	3093.8772	3098.2618	3104.2284	3104.4987	3139.0033	3140.2489	3178.8251	3192.8421
CC1OC(C)C1N1CC1	C[C@H]1O[C@@H](C)[C@H]1N1CC1	
InChI=1S/C7H13NO/c1-5-7(6(2)9-5)8-3-4-8/h5-7H,3-4H2,1-2H3	InChI=1S/C7H13NO/c1-5-7(6(2)9-5)8-3-4-8/h5-7H,3-4H2,1-2H3/t5-,6+,7+
