15
gdb 11326	4.75463	1.49006	1.151	0.8591	67.24	-0.243	0.0028	0.2459	1000.1869	0.119905	-396.012046	-396.004346	-396.003402	-396.044531	27.352	
C	 0.0179893604	 1.4101910648	 0.0089425091	-0.343819
N	 0.0267306575	-0.0449259349	 0.0045188224	-0.322492
C	-1.0893051128	-0.6381468771	 0.0110230957	 0.404248
C	-1.2742529585	-2.1444069357	 0.0078434489	-0.176378
O	-2.6949071723	-2.3474628221	 0.0177643496	-0.247697
C	-3.3413352192	-1.1462532308	 0.0262855883	 0.482184
N	-4.5863174222	-0.9460803451	 0.0362528629	-0.583684
N	-2.3817207901	-0.144705617	 0.022095918	-0.386984
H	 1.0456364003	 1.7799276582	 0.0010195878	 0.13289
H	-0.4918733467	 1.8259045978	-0.8737517226	 0.115052
H	-0.4761770779	 1.8204103514	 0.9030456041	 0.115145
H	-0.8449386352	-2.6034500227	-0.8874132313	 0.148947
H	-0.8317260519	-2.608822417	 0.8938510094	 0.148943
H	-5.0903143326	-1.8301334646	 0.0373792531	 0.232461
H	-2.647377939	 0.8247100548	 0.0273085946	 0.281183
82.5556	110.5146	159.7406	192.327	229.6548	417.0767	474.5231	518.8488	600.8176	658.7559	713.6486	717.3281	806.1831	908.4928	938.7865	1026.6389	1031.3545	1052.1058	1104.6077	1111.6225	1171.1289	1197.0023	1247.0194	1339.9218	1367.3251	1416.8157	1440.4156	1493.9042	1503.5119	1508.8658	1788.165	1813.6771	2975.2582	3023.4919	3058.5333	3103.0147	3109.2189	3529.9612	3689.4007
CN=C1COC(=N)N1	CN=C1CO[C]([NH])N1	
InChI=1S/C4H7N3O/c1-6-3-2-8-4(5)7-3/h2H2,1H3,(H2,5,6,7)	InChI=1S/C4H7N3O/c1-6-3-2-8-4(5)7-3/h2H2,1H3,(H2,5,6,7)
