15
gdb 30002	3.35246	1.74996	1.15842	3.5976	73.16	-0.2016	0.0129	0.2146	994.4006	0.115159	-416.836867	-416.829634	-416.82869	-416.869062	26.844	
C	-0.0029780185	 1.4652892981	 0.0508501517	-0.347481
N	-0.0490301439	 0.0188199462	 0.0311449705	-0.156649
C	-0.0641186167	-0.8048770756	-1.1032584448	-0.087
C	-0.0102458646	-2.1356822073	-0.7465277703	-0.317298
C	 0.0498953788	-2.1442600624	 0.6793838265	 0.227079
C	 0.0314808541	-0.8353839424	 1.0792169037	 0.39478
O	 0.0719608979	-0.7354249532	 2.4251834928	-0.225111
C	 0.1157593108	-2.0803623987	 2.7932169107	 0.02861
N	 0.1041071694	-2.9366778672	 1.8270728311	-0.335387
H	 1.0174428319	 1.8381660726	 0.195684195	 0.144294
H	-0.3848160791	 1.8451224237	-0.8984951615	 0.146367
H	-0.6334896416	 1.8494296283	 0.8571651784	 0.150576
H	-0.1133761719	-0.3471071845	-2.0785120905	 0.122007
H	-0.0241133365	-2.9694357028	-1.429884504	 0.109395
H	 0.1582649998	-2.2591977549	 3.8552795807	 0.145819
61.634	136.9753	197.7805	249.2951	352.3045	529.3916	574.2982	615.9717	618.012	681.8381	699.2546	756.782	780.9575	804.402	814.6764	915.0451	1014.221	1030.0315	1094.8125	1118.6913	1151.6562	1222.2608	1264.2256	1307.93	1344.2383	1448.2638	1461.5168	1485.1006	1495.0828	1511.949	1542.803	1567.6117	1617.16	3032.9739	3099.9628	3138.779	3254.319	3271.8752	3285.0241
CN1C=CC2=C1OC=N2	Cn1ccc2c1ocn2	
InChI=1S/C6H6N2O/c1-8-3-2-5-6(8)9-4-7-5/h2-4H,1H3	InChI=1S/C6H6N2O/c1-8-3-2-5-6(8)9-4-7-5/h2-4H,1H3
