19
gdb 108341	2.64198	1.65174	1.31756	2.959	74.56	-0.2142	0.0622	0.2765	1033.8509	0.160089	-419.104716	-419.096822	-419.095878	-419.136959	31.083	
C	 0.0147604572	 1.4378651678	 0.2393968008	-0.330096
N	-0.1519938516	 0.0359858417	-0.1352869981	-0.379426
C	 0.6646574355	-0.4262678002	-1.2144597316	 0.307225
C	 0.8651800773	-1.9551303597	-1.3395514556	-0.131921
O	 2.30322211	-1.8095013152	-1.4437997032	-0.28487
C	 2.2268536942	-0.3798029086	-1.3523477326	 0.047976
C	 2.060684186	 0.4003443199	-2.6854566401	-0.072713
N	 1.2439329948	-0.4386654208	-3.5921049246	-0.325337
C	 0.5724070646	 0.3666117358	-2.549864781	-0.102156
H	 1.0504139773	 1.714682017	 0.4997190701	 0.102376
H	-0.3055102889	 2.0872224432	-0.5805651561	 0.128101
H	-0.6234937966	 1.6552873797	 1.1000220849	 0.122909
H	-0.0022868735	-0.5524885861	 0.6770675921	 0.223092
H	 0.5860987969	-2.508746154	-0.4321612848	 0.085073
H	 0.4342934775	-2.433202089	-2.2220766904	 0.122126
H	 2.9153665453	 0.0573221192	-0.6240665931	 0.072645
H	 2.7129919158	 1.1682891179	-3.0842095683	 0.090472
H	 1.1565601158	 0.0722127318	-4.4700600849	 0.232222
H	-0.1819138675	 1.0979627697	-2.8142125535	 0.092301
102.7934	163.0254	185.6604	249.0058	306.6596	332.7169	408.9784	487.2495	541.1271	653.8354	706.3776	742.75	800.2948	829.1602	841.2812	903.7107	905.6745	950.0028	977.4631	999.2571	1030.578	1032.6883	1063.8757	1077.4716	1102.365	1112.7663	1148.139	1158.5521	1166.0713	1211.4248	1250.9404	1281.1533	1317.8171	1333.3106	1347.2124	1393.2662	1462.6841	1483.1235	1491.5947	1499.066	1520.6199	2961.9831	3003.4413	3073.3171	3076.2188	3102.8738	3115.0742	3175.9882	3189.5019	3474.1811	3526.4178
CNC12COC1C1NC21	CN[C@]12CO[C@H]1[C@H]1N[C@@H]21	
InChI=1S/C6H10N2O/c1-7-6-2-9-5(6)3-4(6)8-3/h3-5,7-8H,2H2,1H3	InChI=1S/C6H10N2O/c1-7-6-2-9-5(6)3-4(6)8-3/h3-5,7-8H,2H2,1H3/t3-,4+,5-,6-/m0/s1
