18
gdb 63332	2.50485	1.43023	1.14175	2.7425	72.6	-0.244	-0.0369	0.2071	1125.1928	0.146015	-439.161981	-439.152854	-439.15191	-439.196146	33.876	
C	-0.0456370163	 1.5625297534	 0.022123333	-0.40559
C	-0.0404338026	 0.0257419432	-0.0184074952	 0.132777
C	-1.4729897808	-0.5317562384	 0.0003783632	-0.405595
N	 0.7426637258	-0.4963928474	-1.1328791604	-0.330174
C	 1.8457731117	-1.2515200344	-0.8369964685	 0.404688
O	 2.5962783968	-1.7547422638	-1.6421506513	-0.372577
C	 1.9370544368	-1.3297112025	 0.6857651209	-0.464082
C	 0.7511078455	-0.5262795619	 1.193380807	 0.398351
O	 0.4407328418	-0.3265153925	 2.3376866562	-0.318051
H	 0.9727550659	 1.9596096434	-0.0103638127	 0.125521
H	-0.5986429153	 1.9658047215	-0.8325792715	 0.11843
H	-0.5263418662	 1.9074606187	 0.9410256584	 0.145146
H	-2.0422841386	-0.1523747699	-0.8545703195	 0.118437
H	-1.4698279383	-1.6242503509	-0.0475694074	 0.125518
H	-1.9786878424	-0.2234789625	 0.9188950632	 0.145147
H	 0.5024304453	-0.3227375787	-2.0976359079	 0.250398
H	 1.8934648755	-2.3667872574	 1.0324449101	 0.165832
H	 2.8831784254	-0.9157215498	 1.0477746924	 0.165823
50.7765	76.5338	204.0785	213.5101	234.6485	288.3906	323.5887	398.0109	429.8676	450.1129	553.2582	553.4077	579.0705	620.4225	627.8189	718.855	863.94	921.5643	924.637	949.944	988.2121	1020.2513	1097.4828	1125.0213	1193.5711	1214.658	1241.921	1245.6175	1327.7111	1393.156	1404.078	1416.0922	1426.3475	1480.4772	1481.1863	1500.582	1507.1598	1825.9789	1862.9654	3037.6746	3041.0848	3068.5478	3107.7467	3109.555	3112.2605	3128.2178	3132.8329	3620.2013
CC1(C)NC(=O)CC1=O	CC1(C)NC(=O)CC1=O	
InChI=1S/C6H9NO2/c1-6(2)4(8)3-5(9)7-6/h3H2,1-2H3,(H,7,9)	InChI=1S/C6H9NO2/c1-6(2)4(8)3-5(9)7-6/h3H2,1-2H3,(H,7,9)
