14
gdb 131965	4.33425	1.15085	0.91468	6.679	69.42	-0.2757	-0.0729	0.2028	1194.4875	0.101465	-469.94218	-469.934335	-469.933391	-469.976063	27.241	
C	 0.0056233513	 1.368530065	 0.1087886698	-0.320737
N	-0.0195961095	-0.0792879417	 0.0074445966	 0.059822
C	-0.0907220038	-0.833470707	-1.1249445686	-0.006259
C	-0.0359726882	-2.1528771752	-0.7351827708	-0.304239
C	 0.0702542991	-2.0658069945	 0.6630484384	 0.444633
N	 0.082215547	-0.8176733771	 1.1156248502	-0.299847
N	 0.1551201396	-3.1825220307	 1.5834166454	 0.368509
O	 0.1371435051	-4.2984067183	 1.0707701846	-0.370846
O	 0.237616385	-2.9472440077	 2.7777052946	-0.348148
H	 1.0190894577	 1.7207014009	 0.3197902448	 0.160841
H	-0.3385400177	 1.7942370568	-0.8347121133	 0.147787
H	-0.6569695754	 1.6814141604	 0.9168009958	 0.169892
H	-0.1753419141	-0.3769026537	-2.0983043475	 0.149572
H	-0.0726406863	-3.0413025773	-1.3397165399	 0.149021
38.0019	66.7969	163.1197	196.468	269.7181	370.8553	430.1871	550.0812	628.8757	657.3286	712.1726	774.7954	803.7641	839.4512	863.5263	1011.9441	1014.1402	1068.9951	1092.0766	1150.282	1208.8053	1332.7815	1382.8957	1415.7516	1439.2479	1467.1187	1473.5381	1479.2729	1517.6307	1553.422	1641.7771	3058.1861	3133.96	3160.6825	3264.1184	3306.2131
CN1C=CC(=N1)N(=O)=O	Cn1ccc(n1)N(=O)=O	
InChI=1S/C4H5N3O2/c1-6-3-2-4(5-6)7(8)9/h2-3H,1H3	InChI=1S/C4H5N3O2/c1-6-3-2-4(5-6)7(8)9/h2-3H,1H3
