18
gdb 30028	3.17715	1.5823	1.11969	1.7637	86.09	-0.1878	0.0113	0.1991	1083.0512	0.150717	-364.859316	-364.851919	-364.850974	-364.890818	29.921	
C	-0.096382463	 1.584491291	-0.0060938578	-0.382583
C	 0.0016729832	 0.0480796562	 0.0111769065	-0.207525
C	 0.8108618847	-0.5149320481	-1.1557189604	-0.083943
C	 1.8504977942	-1.2649302086	-0.7439915708	-0.22846
C	 1.8607967516	-1.3022038912	 0.7130538538	 0.263806
C	 2.5298448266	-1.8008512673	 1.8054138762	-0.243795
N	 1.8589237626	-1.3368544184	 2.9183557368	-0.243358
C	 0.7783407037	-0.5558676537	 2.5523921096	-0.242534
C	 0.7600070887	-0.5217939186	 1.1840441914	 0.26477
H	 0.9000051261	 2.0341097648	 0.0325457987	 0.122167
H	-0.5966855036	 1.9353118683	-0.9149905408	 0.108446
H	-0.6677671029	 1.9474091473	 0.8542769534	 0.111094
H	-1.0208860352	-0.3566389109	-0.030228944	 0.090755
H	 0.5518779396	-0.3048255644	-2.186839636	 0.088012
H	 2.5640057474	-1.7627739429	-1.3891530686	 0.091811
H	 3.3988901864	-2.4304827489	 1.9065218555	 0.118059
H	 2.1204965478	-1.5389743739	 3.8670314812	 0.256985
H	 0.1440039921	-0.1139277406	 3.3042683054	 0.116293
133.6374	172.5133	254.4026	297.972	357.4139	428.8126	475.6046	552.1672	619.2904	656.7641	677.6139	682.7948	711.4778	747.6923	780.388	806.2185	904.2557	930.3223	944.68	1007.7171	1056.3807	1067.6418	1080.9204	1096.143	1135.4801	1177.2765	1222.8751	1273.6856	1289.9286	1325.0697	1347.1216	1403.7475	1414.5649	1462.2233	1496.6153	1496.8822	1568.6038	1601.0974	1648.5934	2992.2627	3031.6747	3098.7787	3113.4036	3193.3021	3217.2921	3255.5447	3262.3101	3686.088
CC1C=CC2=CNC=C12	C[C@H]1C=Cc2c[nH]cc12	
InChI=1S/C8H9N/c1-6-2-3-7-4-9-5-8(6)7/h2-6,9H,1H3	InChI=1S/C8H9N/c1-6-2-3-7-4-9-5-8(6)7/h2-6,9H,1H3/t6-/m0/s1
