18
gdb 36106	3.5512	1.14207	1.03228	4.1228	79.13	-0.2252	0.0309	0.2561	1192.1271	0.148061	-364.755621	-364.747798	-364.746854	-364.788361	30.569	
N	-0.1617540172	-1.1268985812	 0.2662432175	-0.308555
C	-0.1010405135	 0.0137041121	 0.0914065075	 0.264585
C	-0.0010613127	 1.4599323696	-0.1347818388	-0.453567
C	 1.4219250013	 1.9581910765	-0.0816761422	 0.370279
C	 2.1017637981	 2.3968551255	 1.1850166559	-0.345171
C	 1.9200928603	 3.38530577	 0.0584154851	-0.130972
C	 2.8829637799	 3.1708051828	-1.1429965131	-0.049221
C	 3.8435268231	 2.02719869	-0.966392995	-0.300205
C	 2.400733135	 1.7348375234	-1.2746815022	-0.106617
H	-0.4524802906	 1.684320125	-1.1098958303	 0.150726
H	-0.6099713093	 1.971669167	 0.6191693338	 0.150096
H	 1.4237571045	 2.556839631	 2.0190402796	 0.115548
H	 3.0703845987	 2.0211283551	 1.4930548653	 0.122093
H	 1.3357892818	 4.2881675296	 0.1853095311	 0.094075
H	 3.0048522928	 3.9105690933	-1.9232178385	 0.094134
H	 4.5072233138	 1.8767202237	-1.8129215776	 0.118389
H	 4.3061522132	 1.7846893604	-0.0166591088	 0.117973
H	 2.0987177908	 1.2020015862	-2.1675249794	 0.096409
59.6735	102.5506	227.1788	287.0421	373.9432	392.7001	437.7442	444.9974	524.2733	679.6197	703.1264	760.1177	803.3499	850.9284	885.3083	899.2229	923.7321	927.0544	953.5235	974.374	993.0233	1028.8608	1035.4047	1055.2008	1069.7113	1097.7456	1104.3832	1169.3305	1181.4897	1247.688	1264.2343	1303.9595	1327.2565	1333.0931	1398.7842	1454.8413	1482.6474	1517.3378	2360.187	3027.62	3072.0831	3126.0247	3137.0304	3185.0425	3188.6985	3199.1927	3205.9575	3214.164
N#CCC12CC1C1CC21	N#CC[C@]12C[C@H]1[C@H]1C[C@@H]21	
InChI=1S/C8H9N/c9-2-1-8-4-7(8)5-3-6(5)8/h5-7H,1,3-4H2	InChI=1S/C8H9N/c9-2-1-8-4-7(8)5-3-6(5)8/h5-7H,1,3-4H2/t5-,6+,7-,8+/m0/s1
