16
gdb 85467	2.47803	1.43979	1.07479	4.7918	68.64	-0.2855	-0.0098	0.2757	1121.2285	0.124451	-437.946199	-437.93796	-437.937016	-437.979365	30.11	
C	-0.6093342858	 1.4009192876	 0.0370424999	-0.425223
C	 0.0949494944	 0.0521675399	-0.0587993025	-0.009559
C	 1.2267626701	-0.0552252823	-1.0858729006	-0.376082
C	 2.1029943795	-1.1762528433	-0.5459069756	 0.4362
O	 2.9219346118	-1.8381252076	-1.1019774597	-0.311056
O	 1.8082690829	-1.3653972124	 0.7885139263	-0.213104
C	 0.8282290857	-0.4201855657	 1.2294578261	-0.052008
C	 1.4903809576	 0.6777009727	 1.9564114831	 0.290168
N	 1.9939855656	 1.5513176257	 2.5199429433	-0.314877
H	 0.0987197514	 2.2060010063	 0.2533780076	 0.150002
H	-1.1111412529	 1.6319081702	-0.9068579723	 0.132149
H	-1.3689465458	 1.3977357385	 0.8253009905	 0.131416
H	-0.6437553684	-0.7277009139	-0.2763340481	 0.108995
H	 0.9030943798	-0.2828227633	-2.1018583404	 0.149628
H	 1.8261167389	 0.8630434447	-1.1211999887	 0.155646
H	 0.1570733952	-0.935095577	 1.9217711711	 0.147705
85.456	112.9154	152.458	230.9117	268.9318	279.7183	395.9381	478.0983	506.4503	524.7748	588.6755	644.0933	729.757	834.6909	844.7231	915.3394	926.1903	970.5265	1053.6481	1065.1842	1122.2738	1147.0391	1165.4983	1183.5729	1275.3097	1295.9016	1339.2549	1370.3541	1381.5168	1419.8649	1463.9622	1496.5677	1498.8809	1907.3405	2359.9341	3040.6549	3042.5805	3053.2153	3086.4807	3111.5439	3122.1613	3135.2239
CC1CC(=O)OC1C#N	C[C@H]1CC(=O)O[C@H]1C#N	
InChI=1S/C6H7NO2/c1-4-2-6(8)9-5(4)3-7/h4-5H,2H2,1H3	InChI=1S/C6H7NO2/c1-4-2-6(8)9-5(4)3-7/h4-5H,2H2,1H3/t4-,5-/m0/s1
