16
gdb 26437	4.29823	1.11987	0.89346	5.0704	74.64	-0.2091	0.0001	0.2092	1232.6238	0.125916	-434.127287	-434.11903	-434.118086	-434.161004	29.863	
C	-1.3443735084	 0.5058525476	 0.3824497987	-0.375529
N	-0.0673601607	-0.0988079233	 0.0396234263	-0.200077
C	 0.997864263	 0.0177568339	 0.9180474893	 0.156764
O	 0.9326648188	 0.603695148	 1.9751269999	-0.335098
C	 0.0811218816	-0.7887056603	-1.1618445667	 0.528987
N	 1.1761315243	-1.3728935673	-1.5870498604	-0.346159
C	 0.8417531954	-1.9173271237	-2.8101680805	-0.078964
C	-0.4607808904	-1.6581233706	-3.1203338235	-0.118711
N	-0.9489219236	-0.9252634389	-2.0464314524	-0.334774
H	-1.6347528467	 1.2621836877	-0.3561483615	 0.131997
H	-2.1339409663	-0.251325278	 0.4548399366	 0.131888
H	-1.2180101572	 0.9840906503	 1.3531318281	 0.183889
H	 1.8964483529	-0.4841047417	 0.5340963719	 0.140697
H	 1.5681064991	-2.4643506023	-3.3908299891	 0.11492
H	-1.0814939828	-1.9060444149	-3.9639540612	 0.132108
H	-1.882929009	-0.5681195565	-1.9478126254	 0.268063
32.3681	127.5086	193.6653	202.3485	287.4267	330.8218	350.0308	454.7427	465.0937	494.1158	631.1189	685.0416	741.98	815.3237	854.8872	922.7862	954.6581	1032.8507	1047.8081	1096.5265	1134.1477	1156.5069	1166.6987	1212.5908	1287.2823	1343.2565	1377.5564	1420.3006	1435.9534	1493.8892	1503.3362	1521.4912	1546.3465	1611.7004	1793.9079	3020.0501	3059.1186	3074.8132	3162.535	3256.1633	3289.995	3681.9635
CN(C=O)C1=NC=CN1	CN(C=O)c1ncc[nH]1	
InChI=1S/C5H7N3O/c1-8(4-9)5-6-2-3-7-5/h2-4H,1H3,(H,6,7)	InChI=1S/C5H7N3O/c1-8(4-9)5-6-2-3-7-5/h2-4H,1H3,(H,6,7)
