17
gdb 48798	2.77078	1.46796	1.14718	3.953	74.28	-0.2563	-0.0421	0.2142	1087.8244	0.134153	-421.773089	-421.765062	-421.764117	-421.805817	30.32	
O	-0.2268846081	 0.3288536725	-0.8827851813	-0.253922
C	 0.0302018007	 1.0435193971	 0.0532469891	 0.04501
C	 1.2451295026	 1.8801974963	 0.166122782	 0.24593
O	 2.0680580207	 2.077895477	-0.9921443702	-0.260432
C	 2.6707375537	 1.4277077244	 0.1072724985	-0.013553
C	 3.1009079248	 2.4875807064	 1.1343631143	-0.343082
C	 1.624738336	 2.9545945678	 1.1761456721	 0.297963
C	 1.0797383982	 4.3452716213	 1.279382615	-0.31206
C	 0.8545090445	 3.3546449165	 2.4012307558	-0.335642
H	-0.6383996061	 1.1065315603	 0.9401068649	 0.077029
H	 3.0522741089	 0.4249846856	-0.0493156193	 0.126113
H	 3.4376470029	 2.0547027869	 2.0800208418	 0.116454
H	 3.8410209617	 3.2031008746	 0.7672245281	 0.120707
H	 1.7869448019	 5.1509646408	 1.4454537827	 0.122469
H	 0.2349050974	 4.6146975128	 0.6545690852	 0.124277
H	-0.1472978174	 2.9628774411	 2.5419901911	 0.122662
H	 1.4104458077	 3.4854216485	 3.3239895003	 0.120077
91.1777	131.297	171.8153	212.0793	283.0955	309.5733	428.4474	487.8339	496.0978	599.5425	743.8988	774.3605	828.9026	847.8812	854.6002	893.7373	928.955	946.392	978.4139	1017.4466	1035.3311	1056.5207	1068.0104	1082.1494	1112.6095	1158.2556	1185.7862	1225.1817	1253.1661	1264.7974	1378.5209	1397.3321	1436.5713	1466.6613	1472.2593	1507.0796	1813.2807	2885.8465	3061.1107	3118.5832	3128.8907	3134.0465	3189.0771	3207.3405	3222.4214
O=CC12OC1CC21CC1	O=C[C@]12O[C@H]1CC12CC1	
InChI=1S/C7H8O2/c8-4-7-5(9-7)3-6(7)1-2-6/h4-5H,1-3H2	InChI=1S/C7H8O2/c8-4-7-5(9-7)3-6(7)1-2-6/h4-5H,1-3H2/t5-,7-/m0/s1
