14
gdb 27079	3.53121	1.14149	0.87177	2.1557	68.76	-0.2057	-0.0001	0.2056	1239.8552	0.101565	-470.019408	-470.011169	-470.010225	-470.053287	28.963	
N	 0.091669519	 1.3817710959	 0.2688153175	-0.604468
C	-0.0326983806	 0.0163019666	 0.0797113696	 0.241117
C	-1.0753642342	-0.8403429959	-0.0861788065	 0.286993
O	-2.375170557	-0.4658729085	-0.2506366434	-0.229011
C	-3.3517843088	-1.3305861585	 0.1449698062	 0.10666
N	-4.5538319816	-0.9902653406	-0.0132866771	-0.437346
N	-0.6228255852	-2.142890638	-0.1087995319	-0.324703
C	 0.6576578469	-2.0295182055	 0.0310908237	 0.065489
O	 1.0962320319	-0.7512143804	 0.1557672246	-0.159587
H	 0.7217997925	 1.8252565753	-0.391282728	 0.260752
H	-0.8151081541	 1.8309569943	 0.2322316868	 0.2701
H	-2.9570413043	-2.2598757989	 0.5614510336	 0.131962
H	-5.1664836036	-1.7293148194	 0.3259927562	 0.23506
H	 1.4055146191	-2.8048840965	 0.0409779185	 0.156982
47.6044	99.0178	151.6375	177.9083	266.6433	284.0188	372.172	469.2126	534.1278	638.947	695.1896	705.7861	773.6412	778.8845	826.19	843.3607	954.9348	1019.5887	1051.2934	1081.5787	1139.3109	1205.5263	1281.2307	1286.9595	1344.0605	1409.5051	1435.1556	1554.949	1635.3157	1716.6997	1752.4802	3111.1747	3288.1661	3514.4867	3517.9867	3617.0616
NC1=C(OC=N)N=CO1	Nc1c(O[CH][NH])nco1	
InChI=1S/C4H5N3O2/c5-1-8-4-3(6)9-2-7-4/h1-2,5H,6H2	InChI=1S/C4H5N3O2/c5-1-8-4-3(6)9-2-7-4/h1-2,5H,6H2
