19
gdb 111091	3.87076	1.03491	1.00843	1.5664	76.72	-0.2245	0.0095	0.2339	1271.5234	0.158594	-422.973714	-422.965117	-422.964173	-423.007023	32.547	
C	-0.0185738114	 1.4431861403	 0.0568482918	-0.517962
C	 0.0088191446	-0.0419697802	-0.0203614152	 0.359494
C	 0.0512735476	-0.9045069125	-1.0414377837	-0.205915
C	 0.0570701991	-2.2552623494	-0.3121303547	 0.023442
O	-0.9652578763	-2.0343175602	 0.7248332135	-0.291765
C	-0.0091415114	-1.0209619598	 1.1777785338	-0.065127
C	 1.1399674629	-2.0085630249	 0.791578377	 0.040338
C	 1.387760543	-3.1576355348	 1.748472314	-0.119118
O	 2.1516349448	-4.1312185404	 1.0437267172	-0.427726
H	 0.8346160069	 1.8304805831	 0.6286118528	 0.128456
H	 0.0098728947	 1.8959304655	-0.9381001839	 0.129826
H	-0.9228624964	 1.7988188777	 0.5670435721	 0.133482
H	 0.0816393761	-0.732812622	-2.1075414134	 0.105244
H	-0.0415219769	-3.1908813182	-0.8591762619	 0.084308
H	-0.1842668014	-0.6457205418	 2.1873360969	 0.07166
H	 2.0815495604	-1.5677540188	 0.4547920591	 0.077347
H	 1.9363211781	-2.787542679	 2.6307402763	 0.080471
H	 0.4268980633	-3.5638082005	 2.0892067428	 0.106193
H	 2.2655899323	-4.8939325739	 1.6179255957	 0.287353
79.7827	148.3786	166.7617	174.8144	238.9493	288.0037	310.8874	416.7467	510.3556	561.6606	595.4286	676.9264	768.8563	808.7977	825.7907	865.5499	883.3887	912.1931	931.5705	1002.0196	1045.5755	1048.0137	1065.2171	1077.4283	1097.5101	1148.9603	1171.1361	1199.1785	1220.1026	1231.2815	1264.434	1266.2266	1293.1406	1297.728	1374.4095	1413.9072	1457.1741	1478.6932	1485.7206	1522.7312	1688.2785	2962.4826	3015.5805	3039.188	3060.7885	3085.1672	3108.7412	3111.4829	3146.6398	3238.7706	3832.0081
CC1=CC2OC1C2CO	CC1=C[C@@H]2O[C@H]1[C@H]2CO	
InChI=1S/C7H10O2/c1-4-2-6-5(3-8)7(4)9-6/h2,5-8H,3H2,1H3	InChI=1S/C7H10O2/c1-4-2-6-5(3-8)7(4)9-6/h2,5-8H,3H2,1H3/t5-,6-,7+/m0/s1
