19
gdb 76096	2.44797	1.24779	1.02471	3.1774	81.17	-0.2431	0.015	0.2581	1243.4673	0.158781	-382.036606	-382.027464	-382.02652	-382.071007	33.405	
C	-0.6574213307	 1.1906978258	 0.434608962	-0.323635
N	 0.0136352781	-0.0853109767	 0.2050164826	-0.104883
C	 1.254041831	-0.1210255469	-0.5841182867	-0.19254
C	 1.8589334871	 1.0983744099	-1.0601029	 0.302359
N	 2.3278884908	 2.0801527728	-1.4548058025	-0.350704
C	 1.2513206856	-0.4020179785	 0.9010087931	-0.013236
C	 1.9156519724	 0.5090926964	 1.8816999185	 0.001358
C	 1.693227123	 0.2804434923	 3.360748686	-0.274037
C	 3.0275863611	-0.0402494707	 2.7447258272	-0.273969
H	 0.009452226	 2.0584115993	 0.5143705264	 0.129279
H	-1.3508550863	 1.3692661493	-0.3918342681	 0.135954
H	-1.2366589354	 1.1085442265	 1.3582649799	 0.133619
H	 1.3245627734	-0.9441535039	-1.2908091189	 0.133388
H	 1.319971774	-1.4559557081	 1.1732532895	 0.101522
H	 2.0309610407	 1.5391250365	 1.5648497374	 0.112941
H	 1.61180538	 1.1511123273	 4.0013196621	 0.121316
H	 1.057855613	-0.5488309293	 3.6536537853	 0.119155
H	 3.2925133405	-1.0855536643	 2.6235984635	 0.117711
H	 3.8690256956	 0.6089614523	 2.9565422326	 0.124404
57.136	104.8752	133.5439	162.647	190.6612	257.9366	308.0751	364.3813	387.0105	529.763	608.4903	621.2577	714.3994	769.5061	837.0808	840.2018	852.8919	921.6782	935.2449	992.0652	1040.2951	1063.5299	1076.8226	1085.632	1130.1353	1143.0665	1160.1719	1170.404	1199.22	1218.576	1230.9153	1312.7369	1336.8775	1359.6153	1448.1355	1460.5192	1470.2492	1489.7483	1502.344	1505.7385	2344.0591	3019.1479	3091.9675	3096.1001	3120.3504	3133.7149	3137.9443	3138.8253	3178.6388	3213.7109	3228.806
CN1C(C#N)C1C1CC1	CN1[C@@H](C#N)[C@H]1C1CC1	
InChI=1S/C7H10N2/c1-9-6(4-8)7(9)5-2-3-5/h5-7H,2-3H2,1H3	InChI=1S/C7H10N2/c1-9-6(4-8)7(9)5-2-3-5/h5-7H,2-3H2,1H3/t6-,7+,9?/m0/s1
