18
gdb 5928	3.87832	1.19312	1.17685	0.3562	69.4	-0.2522	-0.0422	0.21	1086.841	0.149555	-384.963742	-384.954147	-384.953203	-384.998772	33.246	
C	 0.2823071433	 1.6136275264	 0.0969623494	-0.420529
C	 0.0282919244	 0.1035637729	 0.0211291066	 0.143868
C	 0.6468740079	-0.6360479763	 1.2261437372	-0.423974
C	-1.4941392204	-0.2336949394	-0.0956311555	-0.298755
C	-2.2870686179	 0.2763122984	 1.0898425337	 0.146473
O	-2.5585246816	-0.3899951573	 2.0563479439	-0.23612
C	 0.6683940006	-0.4772237141	-1.2374291698	 0.149155
O	 1.289266034	 0.149014688	-2.054751641	-0.246112
H	 1.3540476396	 1.8192302517	 0.0422879788	 0.135652
H	-0.1916208247	 2.1385277705	-0.7372174791	 0.125939
H	-0.0977071567	 2.0323499758	 1.0334627984	 0.117221
H	 0.1442156471	-0.3564787099	 2.1553241001	 0.145524
H	 0.5547568532	-1.7220817294	 1.1181679798	 0.124482
H	 1.7090960704	-0.391101549	 1.3213219274	 0.128262
H	-1.8926513583	 0.2218821288	-1.0104727341	 0.118688
H	-1.6268193488	-1.3190915911	-0.1502533359	 0.124899
H	-2.6035392697	 1.3410691058	 1.0261835095	 0.087809
H	 0.5148651977	-1.5768079718	-1.3499534391	 0.077519
42.8913	70.7483	88.481	205.0221	230.1814	234.8113	276.3819	321.0523	330.367	377.9453	408.8446	522.6474	611.023	748.3757	852.5078	908.2324	922.2336	960.7444	986.5214	997.0763	1051.8707	1075.035	1167.8872	1201.9538	1236.8774	1289.7483	1323.552	1405.4598	1410.1741	1429.0014	1433.693	1471.9088	1481.4549	1487.5296	1500.8471	1506.9807	1823.7429	1834.4236	2852.8633	2883.3135	3030.3471	3038.2198	3046.8299	3094.5135	3106.3155	3116.0748	3123.8323	3126.5381
CC(C)(CC=O)C=O	CC(C)(CC=O)C=O	
InChI=1S/C6H10O2/c1-6(2,5-8)3-4-7/h4-5H,3H2,1-2H3	InChI=1S/C6H10O2/c1-6(2,5-8)3-4-7/h4-5H,3H2,1-2H3
