21
gdb 114902	3.10125	1.19416	1.06533	0.8494	77.52	-0.242	0.0771	0.3191	1215.9128	0.184241	-424.215626	-424.20717	-424.206226	-424.249077	32.353	
O	 0.1353295315	 1.1887141612	-0.3503794791	-0.426696
C	 0.0610524179	-0.1934267389	-0.0202787681	-0.090909
C	-1.40350821	-0.5768819635	 0.0117209672	 0.019082
C	-2.201502857	-0.5938706714	-1.323979724	-0.256343
C	-2.7374232844	-2.0178491188	-0.9827054876	-0.026891
C	-2.2907874932	-3.1697974659	-1.884859147	-0.234409
C	-0.8172103428	-3.3442659685	-1.4875211393	-0.083634
O	-0.7404221475	-3.0166721579	-0.1013129916	-0.261296
C	-1.7580671217	-2.0794626642	 0.2288619821	 0.07629
H	 1.0636662963	 1.4281863551	-0.4242074298	 0.284876
H	 0.5970121688	-0.8071876889	-0.75942126	 0.088989
H	 0.5187078804	-0.3983640759	 0.9608436093	 0.088559
H	-1.9089060538	 0.0424066755	 0.7601052066	 0.076142
H	-2.9585720275	 0.1843314156	-1.4351336918	 0.102883
H	-1.5612704942	-0.570701343	-2.2115946473	 0.096292
H	-3.7998707496	-2.0489407276	-0.7376052135	 0.070238
H	-2.8565409444	-4.0776772377	-1.651039216	 0.104968
H	-2.4130988003	-2.9559785332	-2.9506713444	 0.102392
H	-0.4467872068	-4.3662246069	-1.6095583201	 0.107431
H	-0.1709157126	-2.6775774905	-2.0794260555	 0.08924
H	-2.1373897091	-2.3457433047	 1.2191014101	 0.072797
73.4522	96.1019	154.9092	226.8748	262.7516	296.258	355.7797	419.1926	499.7166	638.5761	655.3308	751.6757	796.5576	849.3639	854.7245	895.2279	909.688	938.7135	966.9355	989.7618	997.2228	1052.0017	1067.8279	1096.316	1122.6258	1145.5839	1155.8008	1176.33	1218.2655	1232.47	1240.445	1264.187	1268.6755	1274.4628	1292.3317	1306.7239	1333.3879	1351.1079	1367.4647	1395.2442	1462.7628	1484.3166	1486.5664	1516.1872	1527.3602	2972.9641	2980.3945	3005.077	3047.0171	3050.6693	3056.1071	3069.3433	3081.4728	3095.9717	3100.149	3117.7336	3828.3576
OCC1CC2CCOC12	OC[C@H]1C[C@H]2CCO[C@@H]12	
InChI=1S/C7H12O2/c8-4-6-3-5-1-2-9-7(5)6/h5-8H,1-4H2	InChI=1S/C7H12O2/c8-4-6-3-5-1-2-9-7(5)6/h5-8H,1-4H2/t5-,6-,7-/m1/s1
