23
gdb 109681	2.76069	0.95634	0.89866	1.8921	82.79	-0.2409	0.0712	0.3121	1464.217	0.203001	-425.409348	-425.398162	-425.397218	-425.445612	40.602	
C	-0.1034719309	 1.57358796	-0.3324285049	-0.374823
C	-0.0085744086	 0.136795657	 0.1957218991	-0.199508
C	-1.3517988048	-0.5665082733	 0.1742210589	-0.089976
C	-1.8274511746	-1.3089697471	-1.0460705256	 0.057823
O	-0.9538983844	-1.342176518	-2.1383191889	-0.421253
C	-1.4964675515	-2.0832783113	 0.217901829	 0.273732
C	-0.2718722785	-2.978411294	 0.2458381228	-0.479162
C	-2.6774079704	-2.6248655464	 0.9899019788	-0.145555
O	-3.0829386397	-3.8531208566	 0.391811915	-0.424343
H	 0.8680777255	 2.0758931235	-0.2872374386	 0.106384
H	-0.4407419415	 1.580305688	-1.3734091204	 0.13054
H	-0.813305566	 2.1679730457	 0.2541197629	 0.10673
H	 0.7127229706	-0.4183098463	-0.4082482066	 0.112864
H	 0.3790077641	 0.1455370307	 1.2227841505	 0.089696
H	-2.1301317637	-0.0169718757	 0.7020711802	 0.07259
H	-2.8804167828	-1.2264155967	-1.3168521905	 0.080719
H	-1.0558771295	-2.196384289	-2.5715300085	 0.290982
H	 0.4492771295	-2.7018666969	-0.5251989951	 0.123718
H	 0.2340474823	-2.9305456799	 1.2171824882	 0.110384
H	-0.5745887995	-4.0157770796	 0.0762672568	 0.129148
H	-2.3956842629	-2.7769997278	 2.0449863419	 0.083782
H	-3.5008211606	-1.893063205	 0.9740345983	 0.079546
H	-3.727982652	-4.2698822217	 0.9704711965	 0.285983
54.6963	84.3565	125.185	164.4343	177.504	225.3069	231.0381	246.5105	277.5833	304.156	321.0126	338.9297	358.7466	506.2255	566.8424	608.0374	710.2066	777.6886	845.3909	862.8064	947.7049	969.2703	992.5084	1008.451	1053.4048	1064.778	1078.9705	1115.4935	1125.3187	1171.4632	1190.1452	1232.4375	1246.032	1267.4787	1299.197	1304.3754	1337.5223	1358.5374	1392.2694	1407.3085	1409.1927	1454.8034	1467.3428	1485.4595	1496.5718	1498.9616	1506.2052	1514.3714	1516.373	2958.566	2988.924	3023.3351	3030.577	3034.8275	3086.5885	3089.9298	3098.5095	3103.0302	3110.4863	3118.2159	3133.4702	3802.9189	3829.3045
CCC1C(O)C1(C)CO	CC[C@H]1[C@@H](O)[C@]1(C)CO	
InChI=1S/C7H14O2/c1-3-5-6(9)7(5,2)4-8/h5-6,8-9H,3-4H2,1-2H3	InChI=1S/C7H14O2/c1-3-5-6(9)7(5,2)4-8/h5-6,8-9H,3-4H2,1-2H3/t5-,6+,7+/m0/s1
