23
gdb 117641	2.45829	1.08277	0.91336	2.649	82.64	-0.239	-0.0097	0.2293	1427.4795	0.200511	-425.451755	-425.440059	-425.439114	-425.49055	41.432	
C	 0.2415668193	 1.5601709899	-0.0583303999	-0.380383
C	 0.0516916247	 0.0536575048	 0.0249350344	-0.05058
O	 0.7397516664	-0.5273124418	-1.0694340538	-0.294973
C	 0.7084550541	-1.9465540301	-1.2087567759	 0.267749
C	 1.3789996866	-2.6606486614	-0.021848261	-0.422367
C	-0.7184133433	-2.475365067	-1.4383372659	-0.422376
C	 1.5377306544	-2.2680375383	-2.4787021807	 0.368805
C	 2.1565103912	-1.1208732835	-3.2447800541	-0.471511
O	 1.6681921137	-3.4208856767	-2.8227290451	-0.322986
H	 1.3035777697	 1.8171109627	-0.0092296364	 0.124716
H	-0.1607864953	 1.9469711917	-0.998965748	 0.124719
H	-0.274426229	 2.0549030865	 0.7700158542	 0.115416
H	 0.4445098544	-0.3233853302	 0.980452195	 0.092587
H	-1.0193909246	-0.1935716983	-0.0088692666	 0.092591
H	 0.7669309059	-2.593449746	 0.8817062934	 0.114602
H	 1.5166207679	-3.7152000099	-0.2689303825	 0.14422
H	 2.3582706203	-2.2193386996	 0.1880200537	 0.119527
H	-1.2174256346	-1.9034577185	-2.2268043453	 0.119528
H	-0.6680990563	-3.5221957088	-1.7444086632	 0.144222
H	-1.3198238831	-2.4091205094	-0.5275838068	 0.114602
H	 2.8240516674	-0.547875038	-2.5943953874	 0.145938
H	 2.7012520292	-1.5157102744	-4.1029437927	 0.130017
H	 1.381144851	-0.4204101936	-3.5689715454	 0.145937
13.0925	29.248	98.355	141.6535	159.8435	214.0494	250.3658	267.8099	271.1391	296.4296	312.0542	343.2336	395.1889	418.3642	481.5909	588.7684	602.0948	699.9	816.4288	822.4289	905.9116	924.602	970.6455	983.1704	995.6657	1043.4571	1098.9983	1140.0502	1161.7801	1178.9524	1189.3713	1214.6483	1284.816	1302.0942	1378.3386	1379.4675	1395.184	1401.6136	1425.1436	1452.7983	1462.0199	1482.3603	1483.3939	1487.2676	1498.2614	1504.4384	1505.8387	1531.805	1805.8003	2986.9096	3017.1827	3042.8986	3043.8491	3045.6776	3051.2332	3112.259	3114.6446	3114.95	3118.827	3120.6284	3136.3708	3140.8511	3157.8953
CCOC(C)(C)C(C)=O	CCOC(C)(C)C(=O)C	
InChI=1S/C7H14O2/c1-5-9-7(3,4)6(2)8/h5H2,1-4H3	InChI=1S/C7H14O2/c1-5-9-7(3,4)6(2)8/h5H2,1-4H3
