16
gdb 112233	2.04874	1.41736	0.95067	4.1576	70.28	-0.2678	-0.0451	0.2227	1210.3116	0.122763	-437.896422	-437.887493	-437.886549	-437.930843	31.759	
O	-0.0512510949	 1.3561668465	-0.3773807981	-0.420759
C	 0.0295359907	-0.0528353639	-0.2524611818	-0.094774
C	-1.3450568704	-0.5332575352	 0.1840416743	-0.017977
C	-2.4378163881	-0.3341515291	-0.9090770851	-0.344147
C	-2.3725012432	-1.8331162421	-1.2062740304	 0.397688
O	-2.7324101672	-2.5428307845	-2.0899226537	-0.262066
C	-1.5397758131	-2.0911542559	 0.1000909128	-0.296402
C	-0.3872298847	-2.9658216067	 0.0388071964	 0.295703
N	 0.5457985442	-3.6454626642	-0.0325392802	-0.328814
H	 0.8042989696	 1.6845918251	-0.6693249549	 0.295366
H	 0.3051358339	-0.5275387912	-1.2086325833	 0.104435
H	 0.7827621761	-0.357088289	 0.4890805843	 0.113626
H	-1.5895076186	-0.1115771071	 1.1594508069	 0.102839
H	-3.4170846842	-0.0449236603	-0.5147954088	 0.143289
H	-2.1849304508	 0.3334290232	-1.7353618004	 0.155825
H	-2.2254575894	-2.4402802656	 0.8802761819	 0.156168
54.4847	114.1028	116.6448	139.4931	253.6934	274.0838	348.9271	395.0406	419.7362	436.7368	552.0281	596.447	707.1389	745.3626	821.0715	881.9737	911.2537	1020.6993	1031.952	1065.4546	1082.5231	1083.7634	1116.3678	1177.6482	1207.5006	1240.8653	1264.0663	1277.406	1311.7993	1362.2639	1440.9027	1468.6515	1519.9794	1913.5739	2351.7836	2970.2722	3013.6355	3059.0154	3066.7655	3110.3359	3129.0923	3832.3414
OCC1CC(=O)C1C#N	OC[C@H]1CC(=O)[C@H]1C#N	
InChI=1S/C6H7NO2/c7-2-5-4(3-8)1-6(5)9/h4-5,8H,1,3H2	InChI=1S/C6H7NO2/c7-2-5-4(3-8)1-6(5)9/h4-5,8H,1,3H2/t4-,5+/m1/s1
