15
gdb 126274	2.13199	1.57292	0.95646	3.8809	78.19	-0.257	-0.0623	0.1947	1194.8771	0.110959	-416.762858	-416.754422	-416.753478	-416.796679	30.431	
C	 0.1877881149	 1.6304612221	 0.2240024414	-0.375293
C	-0.0871406359	 0.1455815502	-0.0671741019	-0.313989
C	 0.570803252	-0.3319417884	-1.3176973629	 0.136252
C	 0.0432479441	-0.7793010104	-2.4998626118	 0.236363
O	 1.0591452829	-1.0856759118	-3.3284617274	-0.218226
N	 2.250417893	-0.8113342435	-2.6160958146	-0.020279
N	 1.9380083317	-0.3826739804	-1.4735735721	-0.15912
C	-1.2811483438	-0.951851045	-2.9349215677	 0.271431
C	-2.422592191	-1.0942171095	-3.2884895018	-0.413762
H	 1.2622514914	 1.815474993	 0.3045792198	 0.143138
H	-0.2066693431	 2.2665898584	-0.5739614398	 0.125472
H	-0.2842025333	 1.9285388554	 1.1643951316	 0.12049
H	 0.2697962775	-0.4621689672	 0.7726368941	 0.131179
H	-1.1635720357	-0.0324473496	-0.152900088	 0.122318
H	-3.4287333348	-1.2215248733	-3.6056804389	 0.214029
44.403	130.2077	159.9816	176.8843	220.5086	325.7242	376.6701	474.3498	532.1901	593.6858	616.4071	673.7848	691.5437	695.542	734.6202	770.8119	800.0675	973.775	1019.6949	1060.0908	1087.7669	1178.5405	1214.6935	1300.5178	1353.4602	1382.4175	1411.34	1448.1472	1478.7176	1497.5574	1507.5573	1619.2886	2240.6174	3040.0241	3045.4083	3085.667	3118.1749	3126.8648	3497.832
CCC1=C(ON=N1)C#C	CCc1c(onn1)C#C	
InChI=1S/C6H6N2O/c1-3-5-6(4-2)9-8-7-5/h2H,3H2,1H3	InChI=1S/C6H6N2O/c1-3-5-6(4-2)9-8-7-5/h2H,3H2,1H3
