25
gdb 103082	2.00252	1.39247	1.1742	1.0226	89.89	-0.2319	0.079	0.311	1287.2417	0.225049	-389.480257	-389.46869	-389.467746	-389.5158	42.801	
C	 0.1987198589	 1.2772700957	 0.2302562154	-0.24688
O	-0.1528295561	-0.0310597419	-0.1777929827	-0.280494
C	 0.6039011875	-0.5532903079	-1.2439047827	 0.382857
C	 0.4692183687	 0.2380610113	-2.5289386163	-0.46379
C	 1.9131189536	-1.2439157299	-0.8837105052	-0.112877
C	 2.5028043336	-1.2113151923	 0.510658956	-0.421507
C	 0.6766767739	-2.0694753188	-1.2373353196	 0.237769
C	-0.0608166941	-2.8240206503	-0.1425139942	-0.444278
C	 0.6915459992	-2.8362904392	-2.5500404558	-0.456244
H	 1.2782353768	 1.3773623942	 0.4059100213	 0.10913
H	-0.1068554996	 2.0378559243	-0.5012396109	 0.109781
H	-0.3317027127	 1.467574075	 1.1669934541	 0.123357
H	 0.8874698682	 1.2447605612	-2.4237074627	 0.115208
H	 0.996408974	-0.2421722239	-3.3544559461	 0.118578
H	-0.5855984943	 0.3381523282	-2.8080696926	 0.120906
H	 2.6639485823	-1.217407837	-1.6720493981	 0.069939
H	 1.7358248134	-1.0546294634	 1.2717732968	 0.129102
H	 3.0182429434	-2.1502507903	 0.7429224305	 0.113257
H	 3.237619573	-0.4042127846	 0.6067376506	 0.110646
H	-0.1852379453	-2.230514191	 0.7617229033	 0.131673
H	-1.0616912872	-3.1074257049	-0.4885656505	 0.110532
H	 0.4711652141	-3.7482515894	 0.1122358019	 0.105464
H	 1.0990823703	-3.8416256484	-2.3897090977	 0.113534
H	-0.3199991976	-2.9547740428	-2.9568464581	 0.113703
H	 1.3073262957	-2.3581466239	-3.3156621067	 0.110636
123.0555	144.9342	152.2252	159.1911	178.9861	180.9991	202.9832	214.5344	241.2058	272.1984	318.1263	336.786	379.2563	400.9475	459.1279	518.7182	587.4694	675.4391	725.118	779.9877	919.9907	961.0439	969.8639	980.9581	1014.9981	1050.4071	1080.6751	1110.4126	1116.2189	1128.5467	1166.3138	1179.2036	1196.9812	1210.2963	1228.3131	1283.533	1335.6822	1401.8609	1406.6083	1411.3153	1425.6158	1445.4916	1472.8585	1477.7393	1484.3935	1485.5674	1490.8566	1497.2646	1497.8259	1506.714	1513.497	1513.9506	1522.387	2997.1526	3021.8856	3027.7173	3030.6388	3035.8815	3050.8923	3075.9932	3079.2902	3081.0353	3092.2093	3107.5142	3109.4921	3111.8275	3129.175	3137.1615	3158.5169
COC1(C)C(C)C1(C)C	CO[C@@]1(C)[C@@H](C)C1(C)C	
InChI=1S/C8H16O/c1-6-7(2,3)8(6,4)9-5/h6H,1-5H3	InChI=1S/C8H16O/c1-6-7(2,3)8(6,4)9-5/h6H,1-5H3/t6-,8-/m0/s1
