15
gdb 83109	2.52239	1.8847	1.36988	2.9892	65.47	-0.2267	-0.0427	0.184	927.987	0.11333	-453.943945	-453.936248	-453.935304	-453.976614	28.389	
O	 0.448407072	 1.0325384752	 0.7311162429	-0.439118
C	 0.0678621907	-0.1939005784	 0.165270608	 0.0299
C	-1.4602020205	-0.5044579032	 0.0605180446	-0.067839
N	-2.3586162896	 0.6394569594	 0.0418941178	-0.282259
C	-2.5701396706	 0.981330265	-1.2826009471	 0.064075
N	-2.1162918125	 0.2011618857	-2.1915520115	-0.230588
C	-1.314244578	-0.8084018654	-1.4826417959	-0.13806
C	 0.1590557992	-0.3264615462	-1.3709506221	 0.359962
O	 0.9999846194	 0.0258765082	-2.1439642536	-0.29341
H	 1.069351324	 1.4492248752	 0.1212663491	 0.304466
H	 0.584377563	-1.0385931186	 0.6504103233	 0.101571
H	-1.8118624452	-1.2888201839	 0.7321003323	 0.092231
H	-2.2229253829	 1.3696937384	 0.7262788057	 0.256511
H	-3.1628750084	 1.8636621126	-1.5066136326	 0.134678
H	-1.4892595708	-1.8198263743	-1.852569061	 0.10788
53.6172	162.1658	183.6789	217.9625	259.3397	422.286	443.0673	521.328	587.7667	604.9314	687.1384	796.5644	820.2029	855.1245	892.7993	948.3692	956.3593	997.4237	1031.9057	1075.5008	1110.355	1145.7026	1167.5553	1221.6088	1228.3677	1239.48	1319.5878	1346.5263	1354.4863	1368.8192	1417.3758	1664.6049	1885.6137	2971.5259	3093.4205	3104.5597	3188.9921	3611.7286	3788.4601
OC1C2NC=NC2C1=O	O[C@H]1[C@H]2NC=N[C@H]2C1=O	
InChI=1S/C5H6N2O2/c8-4-2-3(5(4)9)7-1-6-2/h1-4,8H,(H,6,7)	InChI=1S/C5H6N2O2/c8-4-2-3(5(4)9)7-1-6-2/h1-4,8H,(H,6,7)/t2-,3+,4-/m0/s1
