20
gdb 124521	3.82205	1.04039	0.86665	2.6611	81.51	-0.2437	0.0219	0.2655	1397.0402	0.171561	-399.381198	-399.371705	-399.370761	-399.416283	34.458	
C	 0.0612665498	 1.498252913	 0.7970822881	-0.415337
C	-0.0726556861	 0.1868881109	 0.0116461786	-0.089018
C	 0.7752652297	-0.9389914982	 0.6314031342	-0.381293
C	-1.5008053181	-0.2589987971	-0.1331429472	 0.379617
N	-1.9183371735	-1.3201209032	-0.8037118666	-0.357532
C	-3.2745628633	-1.2993160462	-0.6359910851	 0.334049
C	-4.1849219525	-2.3226717434	-1.2267832686	-0.481615
N	-3.7200405873	-0.2895972601	 0.0978470188	-0.272216
N	-2.570152037	 0.362896255	 0.4095025933	-0.251702
H	 1.1093401442	 1.8064282084	 0.8405823408	 0.127062
H	-0.50280994	 2.3134249001	 0.3314734289	 0.119051
H	-0.2860216613	 1.3813429122	 1.8305558393	 0.119139
H	 0.3005477796	 0.3573320585	-1.0066197321	 0.110578
H	 0.4688311329	-1.1330098093	 1.6650611191	 0.117218
H	 0.6553562298	-1.8631711352	 0.062623971	 0.146917
H	 1.8338462143	-0.6609888555	 0.6362651543	 0.111458
H	-3.9286817524	-3.3236307658	-0.8655443308	 0.13642
H	-5.2203811811	-2.1036315221	-0.9608517474	 0.137214
H	-4.0932902398	-2.3389383123	-2.3173848757	 0.136676
H	-2.6060976882	 1.1940537002	 0.9746889772	 0.273313
27.5752	106.3622	133.9463	176.2521	239.9299	262.2605	290.2622	309.793	352.5482	435.1037	485.731	552.2015	610.5375	714.5733	725.7608	762.6327	890.6882	931.9426	970.0997	1005.1037	1025.3469	1053.8199	1070.5249	1101.5332	1129.2984	1164.6124	1190.7331	1279.5905	1330.706	1335.2421	1378.1763	1395.9864	1408.5063	1420.4341	1457.8972	1478.4289	1481.3467	1490.1153	1493.257	1504.8713	1514.5868	1541.4986	1581.0765	3021.1164	3027.9548	3037.2431	3045.5903	3092.7117	3101.0978	3103.6286	3112.4323	3134.9867	3143.1212	3675.8199
CC(C)C1=NC(C)=NN1	CC(C)c1nc(C)n[nH]1	
InChI=1S/C6H11N3/c1-4(2)6-7-5(3)8-9-6/h4H,1-3H3,(H,7,8,9)	InChI=1S/C6H11N3/c1-4(2)6-7-5(3)8-9-6/h4H,1-3H3,(H,7,8,9)
