17
gdb 43773	4.80774	1.04176	0.96478	3.4706	73.69	-0.2446	0.0037	0.2483	1214.972	0.137076	-417.967412	-417.959716	-417.958772	-418.000038	29.621	
O	 0.4074801852	 0.0500593106	-0.0824702674	-0.340263
C	 0.2178088106	 1.2315920064	-0.0782915789	 0.44045
N	-0.9688484097	 1.9904025983	-0.167846132	-0.399567
C	-0.2474362956	 3.2655288957	-0.0064919208	 0.3954
C	 0.553295081	 3.2610623936	 1.2599113209	-0.343282
C	 1.0645198932	 2.4889289972	 0.0358756919	-0.294376
C	-0.6626351729	 4.4348679271	-0.8221995907	-0.103336
C	-1.531440985	 5.4908379803	-0.2313808989	-0.236638
N	-0.1320950866	 5.7816349855	-0.5769791501	-0.314883
H	-1.8169819061	 1.7548506157	 0.337159557	 0.240793
H	 1.1336436484	 4.1498404438	 1.4944340384	 0.123769
H	 0.1940277244	 2.7210190519	 2.1313466568	 0.126844
H	 2.015577833	 2.7042055217	-0.4295932337	 0.12692
H	-0.7895133789	 4.2006352184	-1.876762857	 0.106608
H	-2.2722176286	 5.9898838366	-0.8488813038	 0.126908
H	-1.7973197144	 5.3940081724	 0.8181483967	 0.113109
H	 0.433533452	 5.793865295	 0.2678370314	 0.231543
62.5238	124.2685	186.814	265.9151	373.5869	390.4373	455.9995	502.9931	571.0756	669.292	708.8309	760.4989	820.3545	861.643	888.5813	905.8753	940.1588	958.9824	964.2357	988.38	1026.727	1057.9955	1072.3468	1110.4211	1115.4475	1153.1203	1182.7332	1203.1562	1243.71	1257.0833	1290.5429	1321.7112	1364.0154	1440.7588	1494.2781	1508.5699	1904.4525	3110.2868	3110.9439	3134.739	3195.8129	3199.7636	3228.1546	3506.4435	3535.7627
O=C1NC2(CC12)C1CN1	O=C1N[C@]2(C[C@@H]12)[C@H]1CN1	
InChI=1S/C6H8N2O/c9-5-3-1-6(3,8-5)4-2-7-4/h3-4,7H,1-2H2,(H,8,9)	InChI=1S/C6H8N2O/c9-5-3-1-6(3,8-5)4-2-7-4/h3-4,7H,1-2H2,(H,8,9)/t3-,4+,6-/m0/s1
