18
gdb 68312	3.19149	1.31831	1.16772	1.4868	72.4	-0.2459	0.0667	0.3126	1100.6854	0.147817	-438.973098	-438.96523	-438.964286	-439.005742	30.399	
O	 0.0358592161	 1.3487545943	 0.2276770253	-0.466341
C	 0.0706411267	-0.0274375105	 0.0964431005	 0.326897
C	 0.5045634304	-0.9193581525	-1.0982446299	-0.228812
N	-0.0291731875	-1.9368570837	-0.0780163074	-0.160451
C	 0.7511795284	-1.1134293225	 0.9696370925	-0.254668
C	-1.1797190681	-0.9292254002	 0.1238282513	-0.008821
C	-2.1252164387	-1.085651056	 1.2848461332	 0.033852
C	-2.5239018828	-2.4089103193	 1.7856198371	-0.178066
O	-1.6837325488	-1.5476712613	 2.5614653899	-0.227928
H	 0.9394607774	 1.6825830866	 0.2529283727	 0.284177
H	-0.0767051882	-0.8737345736	-2.0228863025	 0.103196
H	 1.5737916926	-1.0354864299	-1.2923760664	 0.098579
H	 1.8342170767	-1.2304287387	 0.8704396892	 0.091482
H	 0.4087133459	-1.2647986437	 1.9887700791	 0.148156
H	-1.8047378469	-0.8579599283	-0.7759170326	 0.080652
H	-2.8584062771	-0.2787555698	 1.3426155494	 0.105054
H	-3.5264822926	-2.5597240179	 2.1818350111	 0.115929
H	-2.0305876635	-3.2899441232	 1.3813550475	 0.137113
66.614	140.503	222.6049	240.7482	294.529	344.7191	424.8927	488.2195	574.0444	636.5773	672.4516	781.714	810.0754	811.901	899.9007	909.015	921.7158	963.1597	986.4597	993.6313	1073.4255	1083.7985	1105.7231	1114.0287	1130.2409	1168.5048	1171.9542	1181.9963	1186.9431	1189.946	1251.0952	1295.5521	1298.3103	1355.9731	1423.4749	1437.8745	1508.7468	1520.8581	1553.7082	3025.2013	3053.6809	3064.6294	3091.6675	3097.6777	3125.7526	3189.376	3194.3373	3806.1275
OC12CN(C1)C2C1CO1	O[C@@]12CN(C1)[C@H]2[C@H]1CO1	
InChI=1S/C6H9NO2/c8-6-2-7(3-6)5(6)4-1-9-4/h4-5,8H,1-3H2	InChI=1S/C6H9NO2/c8-6-2-7(3-6)5(6)4-1-9-4/h4-5,8H,1-3H2/t4-,5+/m1/s1
