18
gdb 47518	2.69517	1.80468	1.33393	2.186	72.77	-0.2604	0.0143	0.2747	978.7729	0.150691	-439.077146	-439.070077	-439.069132	-439.10855	28.493	
N	-0.0594266857	 1.3442085925	-0.2261958515	-0.501726
C	 0.010771734	 0.1061473627	 0.0290023095	 0.367779
O	 1.2290003703	-0.5111298558	 0.2114392858	-0.259473
C	 1.3543819572	-1.5773487273	 1.1526606677	 0.009818
O	 0.7703364252	-2.7815109639	 0.7778170385	-0.25246
C	-0.6364138546	-2.7794276567	 0.5442623	 0.124084
C	-0.9959539332	-2.0824644655	-0.7938814681	-0.237164
C	-1.2201370925	-0.7602734052	 0.0100034758	-0.067205
C	-1.4289649186	-1.6624047749	 1.2699558806	-0.285158
H	 0.875949529	 1.756736041	-0.1941049575	 0.219664
H	 2.4261266336	-1.77060617	 1.2155307876	 0.129314
H	 0.983776615	-1.2299725253	 2.1261953164	 0.101757
H	-0.9544973341	-3.8134445929	 0.6880974743	 0.087656
H	-0.2227499961	-2.0894565394	-1.5632140786	 0.121212
H	-1.9366348208	-2.4550774255	-1.2061843329	 0.107954
H	-2.0559828853	-0.1258977341	-0.2786123908	 0.102152
H	-2.4805079136	-1.9501811433	 1.3406279272	 0.116993
H	-1.1058101298	-1.3135511562	 2.2521020061	 0.114801
103.1921	207.7842	287.0484	352.9146	385.7718	420.5614	445.6691	496.5869	665.6111	711.184	736.302	784.2978	819.232	882.4943	915.5345	930.3013	944.3593	959.5135	996.1075	1030.7135	1070.8872	1082.6429	1102.7761	1137.5428	1165.2148	1189.6909	1216.1464	1253.7681	1272.4564	1280.1897	1315.7246	1328.702	1354.7362	1388.5302	1453.3415	1462.089	1490.8135	1522.4663	1744.2825	3010.6166	3072.4692	3075.6043	3097.893	3123.2979	3126.8771	3134.5921	3140.6978	3456.3631
N=C1OCOC2CC1C2	[NH][C]1OCO[C@@H]2C[C@H]1C2	
InChI=1S/C6H9NO2/c7-6-4-1-5(2-4)8-3-9-6/h4-5,7H,1-3H2	InChI=1S/C6H9NO2/c7-6-4-1-5(2-4)8-3-9-6/h4-5,7H,1-3H2/t4-,5+
