17
gdb 62516	2.08588	1.51382	1.12574	5.8946	75.35	-0.2697	-0.017	0.2527	1144.1464	0.133394	-418.020024	-418.010529	-418.009585	-418.054213	33.759	
C	 0.170788753	 1.3958908178	 0.2118033369	-0.45894
C	-0.0645056694	-0.0916407746	 0.0404161028	 0.268723
C	-1.4331931874	-0.5879951145	 0.4594383695	-0.443078
C	 0.6350419596	-0.8250989176	-1.1047546461	-0.217956
C	 1.4714229877	-0.0970521523	-2.0302109138	 0.325305
N	 2.0905613059	 0.4928739075	-2.8080130494	-0.332885
N	 1.0339597033	-1.0120957693	 0.2746149933	-0.099465
C	 2.2909013188	-0.7642162096	 0.8088109606	 0.151522
O	 3.3319214658	-1.0245221993	 0.264517227	-0.275381
H	 1.1577769921	 1.6988366036	-0.1448280922	 0.157724
H	-0.5812932886	 1.9615374165	-0.3462853299	 0.142807
H	 0.0796080098	 1.6733778832	 1.2669468866	 0.134004
H	-2.2151657659	-0.0889064783	-0.1210812757	 0.135502
H	-1.5210523909	-1.6674471042	 0.3175131125	 0.136933
H	-1.6071238953	-0.3683246309	 1.5180482609	 0.134912
H	 0.1270758311	-1.6740296388	-1.5563494704	 0.143869
H	 2.2169436403	-0.3689921091	 1.8395180675	 0.096403
97.6606	117.3155	147.1731	178.8451	190.0587	233.6945	244.456	327.4173	348.1324	384.622	439.4946	535.0973	556.512	655.1153	712.5475	868.8955	897.0253	961.0496	1003.6564	1021.8775	1029.3823	1054.7302	1081.7522	1143.5398	1226.5101	1278.1009	1342.6066	1410.1253	1414.1022	1423.4896	1429.6927	1474.5454	1485.8349	1496.3577	1508.3568	1808.3371	2358.9265	2958.0963	3040.3705	3045.3796	3106.7522	3111.1764	3130.6857	3133.5477	3140.0475
CC1(C)C(C#N)N1C=O	CC1(C)[C@@H](C#N)N1C=O	
InChI=1S/C6H8N2O/c1-6(2)5(3-7)8(6)4-9/h4-5H,1-2H3	InChI=1S/C6H8N2O/c1-6(2)5(3-7)8(6)4-9/h4-5H,1-2H3/t5-,8?/m1/s1
