16
gdb 96719	2.54713	1.14355	0.7935	6.9813	75.4	-0.2349	-0.0561	0.1787	1375.3822	0.122752	-471.247467	-471.237543	-471.236599	-471.283904	33.819	
C	 0.1919052527	 1.4780770797	 0.0177083242	-0.30633
N	 0.1297909756	 0.0267627154	 0.0347775797	-0.288316
C	-0.9613012169	-0.6188245106	 0.0329253374	 0.229279
N	-1.0246643636	-2.0317205177	 0.0516776651	-0.361189
C	 0.0752496633	-2.6904396507	-0.0534024815	 0.158861
N	 0.1171025665	-4.0325158943	-0.0254267905	-0.494963
H	 0.9842492021	-4.5273332165	-0.1280487404	 0.278613
H	-0.7338759555	-4.5603399103	 0.083194389	 0.273448
C	-2.3712393086	-0.0225525977	 0.0257586243	 0.392009
O	-2.6013241333	 1.1586448412	-0.0134790948	-0.341314
O	-3.3318459747	-0.9529265773	 0.0681682877	-0.371026
H	 1.2425119793	 1.7779884725	 0.0625259432	 0.107252
H	-0.2588416255	 1.8936519051	-0.8898328531	 0.139957
H	-0.3463789424	 1.9235038198	 0.8604511217	 0.141964
H	-2.8476620262	-1.8085165817	 0.0906754762	 0.29873
H	 1.0368257873	-2.1844099969	-0.1673969581	 0.143023
21.2205	77.9023	120.8545	152.1683	158.5165	216.455	241.796	291.3133	375.7541	414.775	447.8461	480.8257	569.4781	637.6478	719.1297	806.7412	814.3611	835.234	1039.1412	1062.4786	1080.1339	1096.2999	1144.0205	1216.513	1244.8722	1317.1142	1406.3717	1429.5385	1435.4978	1475.039	1494.059	1626.2715	1694.9392	1731.0991	1848.6182	3027.4623	3091.4373	3103.0446	3113.4783	3464.2805	3610.0035	3748.3365	21.222	77.9024	120.8545	152.1685	158.5167	216.4571	241.796	291.3131	375.7543	414.775	447.8462	480.8256	569.4781	637.6477	719.1297	806.741	814.3603	835.2336	1039.141	1062.4784	1080.1337	1096.3	1144.0205	1216.5128	1244.872	1317.114	1406.3716	1429.5386	1435.4982	1475.0391	1494.0592	1626.2707	1694.939	1731.0989	1848.6187	3027.4622	3091.4373	3103.0446	3113.4783	3464.2792	3610.0037	3748.3367
CN=C(NC=[NH2+])C([O-])=O	CN=C(N=CN)C(=O)O	
InChI=1S/C4H7N3O2/c1-6-3(4(8)9)7-2-5/h2H,1H3,(H,8,9)(H2,5,6,7)	InChI=1S/C4H7N3O2/c1-6-3(4(8)9)7-2-5/h2H,1H3,(H,8,9)(H2,5,6,7)
