17
gdb 22902	2.91319	1.37101	0.9553	3.6078	76.2	-0.2346	-0.0376	0.1969	1197.9263	0.136118	-455.142615	-455.133777	-455.132833	-455.176482	31.759	
C	-0.0739216752	 1.4143907976	-0.032678542	-0.345815
N	 0.0007351424	-0.0250038409	-0.0869075768	-0.089685
C	-1.1649105915	-0.8652203409	 0.1214328452	-0.17077
C	-0.6518462601	-2.2956800915	-0.1542813115	-0.3086
C	 0.8473783735	-2.1577469859	-0.0546207312	 0.274521
N	 1.5940106919	-3.1810119239	 0.0913690665	-0.214457
O	 2.9460921581	-2.8929506054	 0.1609151756	-0.352706
C	 1.2038013952	-0.6936208934	-0.1290331505	 0.364644
O	 2.2964311753	-0.1737882625	-0.2098861856	-0.381884
H	 0.9357422855	 1.8033498167	-0.1746080632	 0.168823
H	-0.730368345	 1.8030110189	-0.8205426929	 0.125191
H	-0.4597800566	 1.7578833468	 0.9365394576	 0.124042
H	-1.5431900552	-0.7594427815	 1.149030874	 0.112446
H	-1.9768194636	-0.5756145597	-0.555452914	 0.114056
H	-1.0516162161	-3.0330168147	 0.5434087618	 0.134057
H	-0.9336402623	-2.6098877072	-1.1651622835	 0.134827
H	 3.3321110136	-3.7681600626	 0.2806738803	 0.31131
63.383	130.1522	152.3381	185.6149	205.2684	283.6885	314.8619	359.9863	428.9769	509.4188	524.2048	580.7645	690.9489	742.0795	771.0757	853.7578	963.0558	1000.0317	1022.288	1066.9165	1101.5366	1151.2213	1186.6771	1207.5951	1242.3139	1285.2609	1312.6238	1329.2511	1424.0151	1429.9726	1446.6419	1479.2244	1492.4305	1511.8101	1542.7975	1733.9909	1800.9859	2991.4106	3009.4092	3041.2873	3055.1903	3060.0043	3118.5261	3143.8007	3802.3198
CN1CCC(=NO)C1=O	CN1CCC(=NO)C1=O	
InChI=1S/C5H8N2O2/c1-7-3-2-4(6-9)5(7)8/h9H,2-3H2,1H3	InChI=1S/C5H8N2O2/c1-7-3-2-4(6-9)5(7)8/h9H,2-3H2,1H3
