20
gdb 48206	1.9299	1.39396	0.88501	1.4933	79.9	-0.2388	-0.0238	0.215	1336.2162	0.169961	-403.108837	-403.099426	-403.098482	-403.14459	33.721	
O	-0.451532934	 0.0531078582	-0.049951602	-0.25367
C	-0.2552588335	 1.2399720643	-0.0122050756	 0.173754
C	 1.1178933282	 1.8934270276	 0.0041696219	-0.130445
C	 1.2885304476	 2.7449669482	-1.2474144592	 0.014828
C	 2.6427925839	 2.8929643897	-1.8950062045	-0.269515
C	 1.5634134346	 2.0932053024	-2.5798355025	-0.275794
C	 1.2697723587	 2.713501377	 1.2771945515	 0.015916
C	 1.7157888374	 2.0723070883	 2.5389583691	-0.250173
N	 2.5985142504	 3.0143875768	 1.8258460111	-0.320337
H	-1.1055669455	 1.9622886997	 0.0064763724	 0.072735
H	 1.8531566519	 1.0793580982	 0.0022971701	 0.082725
H	 0.6536994578	 3.6274332656	-1.2686137821	 0.091408
H	 2.9113408906	 3.8605122661	-2.3036349271	 0.121067
H	 3.4764890712	 2.3492804609	-1.462981601	 0.111167
H	 1.6668570173	 1.0132994499	-2.5997966674	 0.125529
H	 1.0919734257	 2.5094674142	-3.4628435012	 0.118215
H	 0.5815987578	 3.5550427467	 1.3478770615	 0.096055
H	 1.3443395897	 2.4280906843	 3.4954198933	 0.123501
H	 1.9502284285	 1.0110528663	 2.5104955071	 0.121046
H	 3.3096970417	 2.5000083756	 1.3113620944	 0.231986
41.9445	62.0639	75.4472	148.9389	180.823	223.3182	349.8855	379.9296	401.8151	447.7854	531.2148	774.9495	806.8572	826.193	844.2365	878.0215	919.1067	934.4085	952.6368	963.98	1018.9545	1055.2614	1061.0134	1078.5473	1093.3843	1128.1147	1136.0563	1159.2458	1162.0591	1197.2309	1213.8857	1224.8766	1248.8974	1261.0681	1280.3925	1311.8924	1404.7391	1424.4177	1429.3043	1471.0705	1504.5893	1513.182	1832.1288	2850.563	3040.3049	3109.5623	3112.8403	3132.7985	3135.2349	3139.0263	3195.9931	3211.4767	3226.1021	3496.5375
O=CC(C1CC1)C1CN1	O=C[C@@H](C1CC1)[C@H]1CN1	
InChI=1S/C7H11NO/c9-4-6(5-1-2-5)7-3-8-7/h4-8H,1-3H2	InChI=1S/C7H11NO/c9-4-6(5-1-2-5)7-3-8-7/h4-8H,1-3H2/t6-,7+/m0/s1
