16
gdb 12228	3.41662	1.72285	1.42735	1.5316	60.85	-0.254	-0.045	0.209	905.681	0.128155	-420.863479	-420.855287	-420.854342	-420.896599	29.32	
C	 0.1404807912	 1.5910079895	 0.2102466358	-0.390251
C	-0.0494732096	 0.091528169	 0.1827988801	 0.133447
O	 0.6321768501	-0.5401975536	-0.9443025355	-0.313073
C	 1.3802120819	-1.4001744846	-0.0750442771	 0.00623
C	 2.8700270572	-1.2243209254	-0.2370172367	 0.135414
O	 3.6568349677	-1.4276138692	 0.6584033381	-0.262622
C	 0.7509745587	-0.7700098723	 1.1990121567	 0.048426
O	 1.6047973559	-0.0362089249	 2.0297693485	-0.426663
H	 1.1967270724	 1.8483098881	 0.3080191515	 0.131445
H	-0.2529249818	 2.0288359796	-0.7120923143	 0.124821
H	-0.3984509238	 2.0260115586	 1.0578809325	 0.126177
H	-1.1144579197	-0.1703794265	 0.1586732052	 0.082573
H	 1.1376531832	-2.4641480124	-0.2226423106	 0.107959
H	 3.191986599	-0.8780120604	-1.2422114459	 0.109154
H	 0.1329071448	-1.4692783884	 1.7755682878	 0.082112
H	 2.4319682327	-0.5310155273	 2.1119848139	 0.30485
42.912	115.8392	192.9041	217.3642	251.5577	317.9071	380.4143	416.4056	429.3124	544.0443	649.5939	764.7158	809.8499	843.6211	898.2273	960.241	1020.0168	1056.5633	1080.0898	1098.0689	1141.5976	1191.8357	1207.1291	1252.5447	1312.9459	1321.9339	1365.0728	1382.1514	1395.6286	1402.4404	1417.0307	1483.101	1487.6337	1802.8982	2915.6321	2985.9125	3017.2549	3035.054	3047.1492	3115.1643	3140.897	3742.7812
CC1OC(C=O)C1O	C[C@H]1O[C@@H](C=O)[C@H]1O	
InChI=1S/C5H8O3/c1-3-5(7)4(2-6)8-3/h2-5,7H,1H3	InChI=1S/C5H8O3/c1-3-5(7)4(2-6)8-3/h2-5,7H,1H3/t3-,4+,5+/m1/s1
