19
gdb 63177	2.39744	1.63656	1.29097	1.2082	70.81	-0.2224	0.0582	0.2806	1052.3695	0.157849	-460.140878	-460.132003	-460.131059	-460.173717	34.437	
C	-0.1003012882	 1.5409454953	-0.0269745945	-0.453419
C	 0.0515300061	 0.0450789068	 0.0747372697	 0.265681
O	-1.0892702396	-0.6929750356	-0.31168801	-0.476743
C	 1.3780650112	-0.6680611576	-0.1889553839	-0.081339
O	 2.5267281977	 0.1344131844	-0.1633667188	-0.258867
C	 2.9935065281	 0.1895405728	 1.1960649104	-0.06693
C	 1.743073759	 0.0640141585	 2.0892374561	-0.318042
C	 0.7634322816	-0.691695173	 1.1952934455	 0.373431
O	 0.1543211937	-1.7969972676	 1.7729900781	-0.479377
H	 0.8470918594	 2.046107604	 0.1691045875	 0.135507
H	-0.4135573347	 1.817060358	-1.0409186626	 0.110852
H	-0.8570755805	 1.9101198953	 0.6724277432	 0.124518
H	-1.1219193475	-0.7275727671	-1.2741232088	 0.290832
H	 1.404975728	-1.5349516513	-0.8457482338	 0.09355
H	 3.6874571289	-0.6422327059	 1.3836602155	 0.103006
H	 3.5368912274	 1.1299729339	 1.3181613128	 0.108988
H	 1.9318388762	-0.528049291	 2.9874013388	 0.125177
H	 1.3607769661	 1.0404177624	 2.4007434907	 0.109877
H	-0.6410089829	-1.9646072425	 1.2485922142	 0.2933
131.5616	170.346	191.2858	221.9636	262.6931	282.4435	302.647	389.7606	413.8313	444.999	461.5569	526.931	623.8279	667.2673	737.4579	762.2319	854.9842	929.4507	941.4743	967.474	976.3463	1003.2793	1062.6814	1075.9372	1126.8604	1135.368	1186.7003	1202.3601	1237.7244	1251.416	1276.278	1298.8157	1315.0099	1374.7242	1410.215	1421.1972	1438.8415	1481.1368	1495.6088	1496.4648	1518.6245	3002.8417	3031.5574	3059.6356	3091.7205	3095.3549	3117.5361	3131.1049	3138.0611	3751.6826	3798.6435
CC1(O)C2OCCC12O	C[C@@]1(O)[C@H]2OCC[C@@]12O	
InChI=1S/C6H10O3/c1-5(7)4-6(5,8)2-3-9-4/h4,7-8H,2-3H2,1H3	InChI=1S/C6H10O3/c1-5(7)4-6(5,8)2-3-9-4/h4,7-8H,2-3H2,1H3/t4-,5-,6+/m1/s1
