18
gdb 20046	5.23699	1.31481	1.15902	1.756	75.32	-0.2313	0.0136	0.2448	1061.7011	0.15503	-347.798501	-347.791114	-347.79017	-347.830547	27.686	
C	 0.2786574121	 1.4502532205	 0.0256707353	-0.186127
O	 1.1653006079	 0.3797578104	-0.2768056148	-0.235331
C	-0.2073381496	 0.0568542362	 0.0232301201	-0.037649
C	-0.4638821178	-0.7045805424	 1.2585079404	 0.3774
C	-1.3817729591	-1.6654351271	 1.4000096995	-0.185287
C	-1.4232513146	-2.2188915506	 2.8029457235	-0.24676
C	-0.1079920933	-1.6802118102	 3.422635662	-0.211127
C	 0.2812394528	-0.4568262156	 2.5555210278	-0.314447
H	 0.460204188	 1.9563021491	 0.9723478057	 0.114023
H	 0.0236925279	 2.1033362973	-0.8084980501	 0.114967
H	-0.7786522981	-0.2666743452	-0.8471998109	 0.088505
H	-2.0537604711	-1.9966831388	 0.6147555095	 0.086339
H	-2.3100390808	-1.8505596982	 3.3394015981	 0.105581
H	-1.4843749312	-3.3127157104	 2.8295211553	 0.103714
H	-0.205753726	-1.4343659367	 4.4829270602	 0.096478
H	 0.6702941967	-2.445049517	 3.3375573206	 0.108955
H	 1.3605992064	-0.3648213348	 2.4018988076	 0.11987
H	-0.0521444803	 0.4850598236	 3.0145664601	 0.100893
78.3934	128.1179	187.7367	188.5182	344.7665	410.8047	541.3411	596.6477	660.4954	808.9105	823.0472	850.5178	863.8154	905.9255	908.5615	927.0415	957.1151	993.3595	1035.632	1068.0917	1097.5064	1146.2237	1151.0631	1167.4981	1182.8286	1229.6009	1247.9431	1270.6088	1290.1334	1320.6069	1328.7512	1370.6358	1417.6408	1484.2642	1489.0966	1506.4997	1522.7372	1710.9908	3000.5102	3003.208	3047.3799	3060.1174	3079.0746	3082.0109	3103.5438	3108.193	3169.6128	3183.1875
C1OC1C1=CCCC1	C1O[C@H]1C1=CCCC1	
InChI=1S/C7H10O/c1-2-4-6(3-1)7-5-8-7/h3,7H,1-2,4-5H2	InChI=1S/C7H10O/c1-2-4-6(3-1)7-5-8-7/h3,7H,1-2,4-5H2/t7-/m1/s1
