17
gdb 106572	2.63689	1.5903	1.36321	2.4841	73.	-0.2487	-0.0038	0.2449	1000.9491	0.136102	-421.807851	-421.800007	-421.799062	-421.840398	30.223	
O	 0.0659725337	 1.3826642816	-0.1179831029	-0.421146
C	 0.0688858322	-0.0137582871	 0.1367002814	-0.194389
C	-1.3360408509	-0.5671176773	 0.1080228505	 0.16837
C	-1.7243568452	-2.0827212086	 0.0527591293	-0.280643
C	-3.1011121797	-1.565471064	-0.4751498708	-0.18489
C	-3.5361879572	-0.6653768698	 0.6726061214	-0.096766
C	-2.4104796342	-0.0264706883	 1.0417577181	-0.117821
C	-2.216570514	-0.4753894245	-1.2039534805	 0.403966
O	-2.167377051	 0.1094664183	-2.237899941	-0.328559
H	-0.3070082739	 1.509195273	-0.9984377708	 0.298982
H	 0.6973915561	-0.5559798115	-0.5870796937	 0.093799
H	 0.5235054763	-0.1455347239	 1.1247501639	 0.114513
H	-1.1548020189	-2.6516666589	-0.6898961439	 0.109867
H	-1.7565447059	-2.5949058386	 1.0176986609	 0.110361
H	-3.8266888994	-2.1987108749	-0.9792270406	 0.087608
H	-4.5543191347	-0.5028773257	 0.9962497357	 0.114315
H	-2.2744876335	 0.7940476601	 1.731480873	 0.122431
68.5787	140.1385	169.9269	238.2009	394.5205	402.9357	446.2036	449.3152	570.4918	606.0998	688.0261	695.7464	786.9269	805.6147	831.9129	861.6493	909.8879	943.7683	973.9374	982.9006	1021.1405	1050.066	1077.3698	1093.1116	1124.0316	1159.1875	1193.1794	1242.9533	1247.167	1283.5222	1359.2967	1386.4285	1428.116	1480.0616	1504.5462	1587.8547	1893.333	2982.4609	3046.1952	3064.9582	3121.8753	3157.8291	3225.4937	3249.792	3795.0203
OCC12CC(C=C1)C2=O	OC[C@@]12C[C@@H](C=C1)C2=O	
InChI=1S/C7H8O2/c8-4-7-2-1-5(3-7)6(7)9/h1-2,5,8H,3-4H2	InChI=1S/C7H8O2/c8-4-7-2-1-5(3-7)6(7)9/h1-2,5,8H,3-4H2/t5-,7+/m1/s1
