18
gdb 49384	3.76606	1.38308	1.30848	4.0061	76.78	-0.2446	0.016	0.2606	1016.3077	0.150081	-401.912402	-401.905552	-401.904608	-401.943752	27.62	
O	 0.1170614526	 0.0789523997	 0.4037317915	-0.30908
C	 0.1437754666	 1.2685289267	 0.1921668667	 0.131254
N	 1.2245763546	 1.9642134915	-0.2808101936	-0.038922
C	 2.6466911805	 1.9336267241	-0.1099235605	-0.036762
C	 1.8623328909	 3.2319681358	-0.051933008	-0.058835
C	 2.1913726667	 3.6823195453	 1.3916751996	-0.055244
C	 3.7386978257	 3.4086847593	 1.3947257374	-0.212161
C	 3.249115915	 1.9161722075	 1.3137461394	-0.049184
C	 2.0834576225	 2.3789248272	 2.2246416509	-0.242706
H	-0.7425857379	 1.9276249582	 0.2872532949	 0.076195
H	 3.2513640633	 1.6361845119	-0.9603307614	 0.110979
H	 1.8458779692	 3.9582021063	-0.8584618888	 0.106861
H	 1.7661046404	 4.6265447046	 1.7302609088	 0.070779
H	 4.3234177727	 3.7971270166	 0.5556462072	 0.096602
H	 4.2223548082	 3.657240439	 2.3427742898	 0.103426
H	 3.8905494042	 1.0758626394	 1.5739483711	 0.077414
H	 2.4222025787	 2.5371981865	 3.2498048381	 0.105282
H	 1.1545812861	 1.8107525003	 2.233401397	 0.1241
112.21	139.6254	256.0328	375.1595	413.3471	510.4534	586.2539	650.548	679.6093	798.228	800.9317	840.8867	845.8278	847.9761	921.1641	926.8566	954.2045	1006.5012	1029.1043	1035.7448	1041.8406	1056.6841	1075.7916	1086.1034	1112.7219	1117.0925	1120.8829	1222.2145	1235.3164	1238.6951	1280.8051	1288.1892	1309.4561	1336.1582	1415.918	1469.114	1491.2371	1530.1104	1792.0855	2932.0113	3052.6488	3090.1629	3115.2907	3121.8603	3132.1107	3150.878	3160.7499	3171.0381
O=CN1C2C1C1CC2C1	O=CN1[C@H]2[C@@H]1[C@@H]1C[C@H]2C1	
InChI=1S/C7H9NO/c9-3-8-6-4-1-5(2-4)7(6)8/h3-7H,1-2H2	InChI=1S/C7H9NO/c9-3-8-6-4-1-5(2-4)7(6)8/h3-7H,1-2H2/t4-,5+,6-,7+,8?
