15
gdb 25934	2.88503	1.64407	1.05734	3.1571	69.41	-0.1983	-0.0095	0.1888	1056.1846	0.115257	-450.205172	-450.19732	-450.196376	-450.237442	30.361	
N	-0.0344355521	 1.3599544798	-0.0272106385	-0.558794
C	 0.0677733697	 0.0004065896	 0.1006994376	 0.490021
O	 1.1255279601	-0.5760819777	 0.2751859577	-0.389977
N	-1.1586590437	-0.6771938481	 0.0559464105	-0.150671
C	-2.4646002621	-0.1447502078	 0.1223469904	-0.14792
C	-3.290489725	-1.2160420417	 0.0493160457	-0.086337
N	-2.5852177157	-2.4029767419	-0.0700344326	-0.357094
C	-1.3221136768	-2.0590106776	-0.0596338576	 0.457999
N	-0.2622705059	-2.9001096632	-0.2273718918	-0.587619
H	 0.8516803191	 1.8296354026	-0.127613047	 0.273616
H	-0.8081664884	 1.7524735471	-0.5381450557	 0.268942
H	-2.6427137088	 0.899474265	 0.3073493883	 0.128607
H	-4.3694909208	-1.2168042765	 0.0854929046	 0.113805
H	-0.4873929429	-3.8708840805	-0.0786426426	 0.263689
H	 0.6207907434	-2.5618296391	 0.127798471	 0.281733
88.9636	135.8369	245.2059	295.3223	374.4172	425.374	448.1599	470.5402	524.5741	531.5277	553.4668	609.7414	651.763	692.8585	744.7606	757.5504	782.882	870.8817	919.0028	1069.2659	1083.7937	1119.4519	1186.3895	1218.4091	1243.8665	1335.9044	1420.1024	1456.135	1560.3861	1578.8338	1621.2974	1660.7388	1801.0667	3249.114	3296.1476	3562.6673	3594.6498	3695.7206	3715.1438
NC(=O)N1C=CN=C1N	NC(=O)n1ccnc1N	
InChI=1S/C4H6N4O/c5-3-7-1-2-8(3)4(6)9/h1-2H,(H2,5,7)(H2,6,9)	InChI=1S/C4H6N4O/c5-3-7-1-2-8(3)4(6)9/h1-2H,(H2,5,7)(H2,6,9)
