18
gdb 52204	3.46454	0.78671	0.70326	3.7445	81.12	-0.2455	0.0294	0.275	1590.6162	0.146416	-401.926971	-401.917463	-401.916519	-401.962867	34.125	
O	-0.3191668954	 0.8654390714	-0.9254412783	-0.320642
C	-0.0464942251	 1.3768401431	 0.1397509941	 0.153819
N	 1.1894411642	 1.4090851266	 0.7069509352	-0.270987
C	 2.3752865995	 0.8514817816	 0.072745042	-0.194439
C	 3.4078888051	 1.9140389363	-0.2325863912	-0.00681
C	 4.3643841922	 2.3875172538	 0.8270066039	-0.300399
C	 4.8851398868	 1.5556030671	-0.3367088035	-0.194484
C	 5.344846841	 0.2146113422	-0.1179072668	 0.333967
C	 5.7436798506	-0.9073205153	 0.0553004035	-0.468567
H	-0.8002340542	 1.8797641829	 0.7783424819	 0.072478
H	 1.2958448459	 1.8930937724	 1.5845303572	 0.246503
H	 2.8143059121	 0.0746175666	 0.7085365832	 0.120985
H	 2.0293826132	 0.3712035967	-0.8452749266	 0.156254
H	 3.0731321141	 2.6634266219	-0.9440808849	 0.105734
H	 4.6408299958	 3.4352004003	 0.8583310769	 0.123375
H	 4.3382602784	 1.8956420114	 1.7936962275	 0.124258
H	 5.4388693687	 2.1001945849	-1.0957710026	 0.119871
H	 6.0950062771	-1.8978403539	 0.2060995085	 0.199084
28.4897	58.9875	100.8357	170.9794	209.872	245.3662	298.0944	369.3295	418.4872	524.8282	539.2173	583.917	611.8263	653.8167	742.7152	774.7465	831.1637	882.9128	911.7423	943.4322	1004.1475	1032.5329	1062.7528	1070.4775	1125.4361	1132.3166	1172.3462	1213.155	1226.3926	1284.7682	1355.1087	1380.4494	1426.5554	1432.0117	1481.2908	1493.7135	1532.0391	1807.3028	2235.2642	2932.0837	3047.3038	3119.7774	3135.3646	3146.7918	3156.7227	3225.4622	3504.6421	3632.0441
O=CNCC1CC1C#C	O=CNC[C@H]1C[C@H]1C#C	
InChI=1S/C7H9NO/c1-2-6-3-7(6)4-8-5-9/h1,5-7H,3-4H2,(H,8,9)	InChI=1S/C7H9NO/c1-2-6-3-7(6)4-8-5-9/h1,5-7H,3-4H2,(H,8,9)/t6-,7-/m1/s1
