18
gdb 65047	2.29185	1.54278	1.22539	3.8754	75.98	-0.2884	0.0035	0.2919	1094.4643	0.146085	-401.927664	-401.918792	-401.917847	-401.961158	33.246	
C	 0.0285553685	 1.3929067453	 0.655475939	-0.481478
C	 0.0061563621	 0.0025616743	 0.0496062656	 0.258531
C	 0.9234419756	-0.3197057205	-1.1030444134	-0.31582
C	 1.1888867901	-0.9126466163	 0.2600783077	-0.293375
C	-1.3585999876	-0.6430899692	 0.041980133	 0.19735
C	-2.2701491636	-0.5389347765	-1.1176086464	-0.208262
O	-1.5651082881	-1.7485222821	-0.8399146901	-0.255875
C	-1.9606720981	-0.8167719689	 1.3580441928	 0.270985
N	-2.4170482171	-0.926282696	 2.4140983007	-0.335648
H	 1.0458316242	 1.7937893444	 0.6502817847	 0.124459
H	-0.6076792361	 2.0845979821	 0.0915268049	 0.120747
H	-0.3216492306	 1.3823901965	 1.693057477	 0.145059
H	 0.5595369608	-0.9936501394	-1.8691973872	 0.132944
H	 1.5699434128	 0.4752558452	-1.4582362126	 0.115074
H	 2.02046755	-0.5327596988	 0.8429983209	 0.119862
H	 0.9954886097	-1.972244022	 0.3850754276	 0.132006
H	-3.3463340545	-0.5818047867	-0.9674609315	 0.14124
H	-1.9231893484	 0.0137198686	-1.9883940425	 0.132199
63.1325	138.2799	183.7622	219.1599	248.8246	270.5374	313.0516	338.0106	448.8716	465.632	543.9473	592.4125	617.2729	792.972	805.0722	877.5179	884.8734	909.9492	928.4207	957.99	981.5032	1047.483	1072.0536	1094.0941	1127.9635	1134.5683	1158.1492	1176.1099	1195.5214	1298.6824	1338.0065	1380.4683	1421.7328	1460.4573	1490.5273	1496.3625	1507.993	1515.0408	2357.7498	3030.8901	3094.358	3098.1923	3113.2422	3137.9151	3141.2685	3196.7912	3221.525	3235.3973
CC1(CC1)C1(CO1)C#N	CC1(CC1)[C@]1(CO1)C#N	
InChI=1S/C7H9NO/c1-6(2-3-6)7(4-8)5-9-7/h2-3,5H2,1H3	InChI=1S/C7H9NO/c1-6(2-3-6)7(4-8)5-9-7/h2-3,5H2,1H3/t7-/m1/s1
