19
gdb 37935	2.4804	2.32559	1.76229	1.3169	75.96	-0.2257	0.079	0.3046	868.1934	0.16383	-385.873274	-385.867045	-385.866101	-385.903591	26.815	
C	-0.0550660525	 1.5302795888	 0.030682564	-0.225813
C	 1.3033644208	 2.2543901875	-0.0389964903	-0.22959
C	 2.360336561	 1.5329271982	-0.8629218725	-0.089177
C	 3.0417922693	 0.3339905591	-0.2601548347	 0.078236
O	 2.4286670879	-0.2214853049	 0.8796664428	-0.251732
C	 1.2009338864	-0.8107301705	 0.5227454495	 0.073438
C	 0.039693258	 0.0178531561	 0.0130514271	-0.069696
C	 0.9712807455	-0.6742288611	-0.9650471937	-0.113033
C	 2.1438234158	 0.1400434056	-1.4569272975	-0.107425
H	-0.5938502274	 1.8591426097	 0.9263019496	 0.099399
H	-0.6718961138	 1.8289137409	-0.8269745615	 0.099595
H	 1.1478321236	 3.2579899685	-0.4456650134	 0.095856
H	 1.6930521749	 2.3840902564	 0.9767960061	 0.114455
H	 3.0087743577	 2.1737010137	-1.4536891236	 0.083886
H	 4.1201778574	 0.2191442665	-0.2566484709	 0.09232
H	 1.0022242692	-1.7140197242	 1.0900115541	 0.096281
H	-0.9173643212	-0.4812119132	 0.1487223191	 0.082095
H	 0.6234421856	-1.4906522289	-1.5861980987	 0.084357
H	 2.5399660317	-0.0771345982	-2.4409198957	 0.086548
146.6647	237.578	393.5144	461.4852	510.9554	621.6067	695.1746	705.182	713.6344	745.665	752.4888	792.0238	818.7679	874.9595	888.2009	919.7564	956.6827	999.663	1028.3234	1029.142	1050.7137	1073.1015	1085.5168	1089.3332	1098.7599	1118.4405	1126.2064	1186.3231	1203.142	1248.851	1268.4153	1293.464	1327.2419	1332.3502	1358.0761	1374.4262	1388.7997	1417.1637	1435.658	1483.3723	1499.2654	3016.5206	3036.3529	3058.1269	3081.8152	3127.4647	3143.837	3161.1208	3168.7894	3176.9368	3191.8603
C1CC2C3OC4C1C4C23	C1C[C@H]2[C@H]3O[C@H]4[C@@H]1[C@H]4[C@@H]23	
InChI=1S/C8H10O/c1-2-4-6-5-3(1)7(5)9-8(4)6/h3-8H,1-2H2	InChI=1S/C8H10O/c1-2-4-6-5-3(1)7(5)9-8(4)6/h3-8H,1-2H2/t3-,4+,5-,6+,7-,8+
