21
gdb 110414	4.6276	1.04827	0.97543	1.6817	82.32	-0.2223	0.0837	0.306	1313.7389	0.18155	-387.033949	-387.025264	-387.02432	-387.067087	33.663	
C	-0.0747331977	 1.5585814777	 0.0535126378	-0.384174
C	-0.0428665309	 0.0316371328	-0.0809672761	-0.190332
C	-1.4269326196	-0.6078252932	 0.0040230327	 0.009318
C	-1.4189529975	-2.1380713064	 0.0768657942	-0.172644
C	-1.3841519138	-2.1200557035	 1.6079445637	-0.200764
C	-2.027479161	-0.6950251058	 1.4384585103	 0.058826
O	-3.3403213893	-1.2836352897	 1.2229159688	-0.32876
C	-2.6527168698	-2.5072824697	 0.9252770941	 0.461921
C	-3.4318867248	-3.7747932001	 0.8466257309	-0.505749
H	 0.9303961234	 1.983543583	-0.0284287575	 0.112491
H	-0.6926264912	 2.0111362123	-0.7297354	 0.117673
H	-0.4875744338	 1.8703259075	 1.018826286	 0.115586
H	 0.414536223	-0.2372249473	-1.0417599722	 0.095142
H	 0.6050599959	-0.3993596613	 0.6934076543	 0.095078
H	-2.1084620764	-0.1546544812	-0.7272373878	 0.067269
H	-0.9421528136	-2.8436448833	-0.5934985378	 0.083471
H	-0.7519702522	-2.5959104179	 2.3447949498	 0.093922
H	-2.0316168002	 0.1370769685	 2.1401025014	 0.082728
H	-4.1535211258	-3.7358662095	 0.0236103269	 0.132795
H	-2.7615148202	-4.6216020454	 0.6715520064	 0.125092
H	-3.9806304846	-3.9541032176	 1.7765175243	 0.131111
91.0554	141.1393	164.7208	194.264	235.7969	280.9825	310.2952	396.8331	495.3407	560.1752	637.772	748.5997	772.948	792.9817	801.8597	851.2299	882.169	899.8114	919.2629	931.6495	959.3776	975.5477	1035.3143	1040.8506	1081.0949	1096.6255	1102.0122	1135.1173	1141.5689	1161.1234	1189.6071	1245.4266	1260.993	1276.8099	1297.8042	1350.3608	1390.4354	1399.2629	1413.3453	1457.0775	1473.521	1486.6303	1499.643	1500.9246	1506.2111	3017.6138	3024.689	3032.8608	3035.0744	3050.9623	3098.9857	3100.8851	3103.5089	3113.4581	3137.5847	3183.1365	3207.0469
CCC1C2C3C1OC23C	CC[C@H]1[C@H]2[C@H]3[C@@H]1O[C@@]23C	
InChI=1S/C8H12O/c1-3-4-5-6-7(4)9-8(5,6)2/h4-7H,3H2,1-2H3	InChI=1S/C8H12O/c1-3-4-5-6-7(4)9-8(5,6)2/h4-7H,3H2,1-2H3/t4-,5-,6-,7+,8-/m0/s1
