15
gdb 33720	6.26907	0.95774	0.9567	1.9384	82.38	-0.2462	-0.0025	0.2438	1225.8782	0.109588	-383.349299	-383.34122	-383.340276	-383.381643	31.521	
C	-0.056613851	-1.0838043202	-0.1384537517	-0.34334
C	-0.0279197762	 0.1142810152	-0.0465741002	 0.065795
C	 0.0235879414	 1.5359218157	 0.0907266727	 0.319634
C	-0.6492472229	 2.4460540718	 1.1564921227	-0.284998
C	-0.0325914363	 3.3454294661	 0.0484482939	 0.319666
C	 1.2585207487	 2.4802892005	 0.0867710371	-0.284994
O	-0.5846542504	 2.3984496704	-0.9664527095	-0.358639
C	-0.1719586755	 4.7531642117	-0.1550904522	 0.065805
C	-0.2759292877	 5.9414817735	-0.3026197288	-0.343374
H	-0.086127619	-2.1420638041	-0.2254507082	 0.188635
H	-1.7381647981	 2.4124178015	 1.1641961073	 0.125697
H	-0.2031549488	 2.4831683819	 2.1525282738	 0.107889
H	 1.8745903603	 2.5204605427	 0.9874976958	 0.107891
H	 1.8335850244	 2.4765335271	-0.8385514304	 0.125703
H	-0.3711231889	 6.9905775662	-0.4393245623	 0.18863
107.6561	108.9243	203.6355	205.2273	429.771	447.5466	500.7896	516.3582	530.0042	542.5392	596.4798	612.4882	628.6221	629.8183	684.744	686.0431	725.5565	814.5415	951.6684	962.911	988.3108	1074.2786	1082.6029	1113.6261	1121.7756	1126.1066	1164.6714	1242.602	1360.427	1464.7317	1511.3417	2241.8111	2243.4003	3071.0417	3079.3949	3163.8002	3167.9	3500.0359	3500.3364
C#CC12CC(C1)(O2)C#C	C#C[C@@]12C[C@@](C1)(O2)C#C	
InChI=1S/C8H6O/c1-3-7-5-8(4-2,6-7)9-7/h1-2H,5-6H2	InChI=1S/C8H6O/c1-3-7-5-8(4-2,6-7)9-7/h1-2H,5-6H2/t7-,8+
