20
gdb 95045	2.15567	1.93738	1.22559	2.7023	79.08	-0.2594	0.0281	0.2875	1072.3585	0.172983	-403.176188	-403.16823	-403.167286	-403.208538	31.366	
C	-0.4802085814	 1.4949923696	 0.0087970381	-0.406467
C	-0.0082820765	 0.0421760426	-0.0072334913	 0.026448
C	 0.9639503909	-0.3163626546	-1.1537452016	-0.228962
C	 1.6049119687	-1.6457656895	-0.7101777174	-0.232701
C	 1.7566835628	-1.5022874778	 0.7991771869	 0.110976
O	 2.8696906916	-0.6103915828	 1.1629641627	-0.277068
C	 1.9992795782	 0.3588895747	 1.6159466594	 0.44256
N	 2.2319788024	 1.478164468	 2.134906958	-0.553552
C	 0.7455319197	-0.4182742856	 1.2622390832	-0.171336
H	 0.3608187824	 2.17814435	 0.156130359	 0.142968
H	-0.9748518202	 1.7500252959	-0.9342238414	 0.109227
H	-1.1941636753	 1.6723688834	 0.8194950241	 0.116285
H	-0.8861331533	-0.6132467084	-0.0970158799	 0.075014
H	 0.4600659391	-0.3882846003	-2.1211638487	 0.098778
H	 1.7322534311	 0.4602238164	-1.2443542866	 0.116739
H	 0.9272506731	-2.4843616974	-0.9133869916	 0.10422
H	 2.5584282568	-1.8653394268	-1.198157364	 0.114692
H	 1.8330545709	-2.4361979684	 1.3581461329	 0.089101
H	 3.2371503086	 1.6470882243	 2.2102707008	 0.224684
H	 0.0947424405	-0.6346037831	 2.1099868174	 0.098395
99.4357	161.6989	196.0966	222.657	301.1343	346.2503	432.3516	463.677	526.7676	603.4104	675.3768	777.0067	814.8112	842.7288	868.0097	875.8286	896.6601	931.2868	960.2114	968.9565	994.3769	1018.1556	1039.8086	1072.3662	1121.0952	1134.4061	1181.2652	1199.5905	1217.2535	1240.9643	1277.0374	1305.9011	1314.9187	1336.1766	1358.2394	1369.224	1373.454	1416.4848	1471.9528	1492.9024	1497.5879	1499.3912	1812.57	3001.2161	3035.9667	3036.7919	3045.7856	3095.3159	3100.4405	3100.8937	3102.6533	3114.7243	3120.4091	3466.9044
CC1CCC2OC(=N)C12	C[C@H]1CC[C@H]2O[C]([NH])[C@@H]12	
InChI=1S/C7H11NO/c1-4-2-3-5-6(4)7(8)9-5/h4-6,8H,2-3H2,1H3	InChI=1S/C7H11NO/c1-4-2-3-5-6(4)7(8)9-5/h4-6,8H,2-3H2,1H3/t4-,5+,6-/m0/s1
