23
gdb 122176	2.92203	0.7775	0.69409	2.1083	83.57	-0.247	0.0818	0.3288	1734.9515	0.202853	-425.398877	-425.387906	-425.386962	-425.435498	39.471	
C	 0.1275840179	 1.2979707869	-0.2424578583	-0.225932
O	 0.0070370925	-0.0335970478	 0.1896356888	-0.227309
C	-1.2688242695	-0.5821454076	-0.0668889839	-0.050523
C	-1.2807776325	-2.0189749396	 0.4453345607	-0.274514
C	-2.5916083728	-2.7458510244	 0.1907191251	 0.328398
C	-3.7805744648	-2.2738932763	 1.0090189638	-0.460845
C	-2.8670449574	-3.2406674071	-1.2238796781	-0.367426
C	-2.5320642792	-4.2184850113	-0.1237577871	 0.054093
O	-1.2819134741	-4.8446803109	-0.1068196006	-0.41806
H	 1.1404807204	 1.6317628265	-0.0029000234	 0.124226
H	-0.02911671	 1.3934500309	-1.3294128867	 0.09931
H	-0.5929527742	 1.9615204489	 0.2632383532	 0.099611
H	-2.0464958362	 0.0250858766	 0.4272710139	 0.08033
H	-1.4864941397	-0.5599032518	-1.1490007987	 0.082043
H	-0.4595822629	-2.5644837747	-0.0256431865	 0.120774
H	-1.0696434376	-2.0075662331	 1.5219151987	 0.101661
H	-4.0528769473	-1.2399402661	 0.7702558489	 0.118579
H	-4.662962066	-2.8939192296	 0.8211509212	 0.110878
H	-3.5603619668	-2.3219542946	 2.0818624604	 0.119121
H	-3.881413351	-3.2065891172	-1.6084638497	 0.105674
H	-2.0946682106	-3.0688701117	-1.9671689566	 0.110706
H	-3.3448890014	-4.8315571603	 0.2681157424	 0.081399
H	-1.2442674268	-5.4523035256	-0.8524419973	 0.287804
53.7989	70.3587	113.0998	124.7535	196.1075	218.9544	228.5088	246.9976	276.412	295.5924	369.0772	425.7831	430.2538	471.2067	568.4435	724.145	797.6336	813.6881	885.7589	937.6231	971.1317	1000.4732	1021.84	1037.1753	1046.759	1075.3181	1121.7624	1128.8678	1162.9573	1176.6713	1189.138	1225.9353	1232.3528	1277.4913	1290.595	1312.3408	1332.5194	1358.1191	1419.5282	1424.6198	1427.8085	1480.5033	1481.677	1483.972	1491.9048	1499.06	1505.5056	1507.8895	1533.3926	2945.3243	2964.9108	2971.6908	3003.1509	3024.9728	3037.367	3084.7632	3088.1056	3098.026	3107.4272	3109.1024	3122.7201	3210.1807	3809.0083
COCCC1(C)CC1O	COCC[C@@]1(C)C[C@H]1O	
InChI=1S/C7H14O2/c1-7(3-4-9-2)5-6(7)8/h6,8H,3-5H2,1-2H3	InChI=1S/C7H14O2/c1-7(3-4-9-2)5-6(7)8/h6,8H,3-5H2,1-2H3/t6-,7+/m1/s1
