19
gdb 14098	3.08359	1.66681	1.41332	1.4474	71.82	-0.2379	0.0713	0.3092	979.3863	0.16534	-365.02851	-365.020265	-365.019321	-365.06087	31.435	
C	-0.147093414	 1.4714718827	-0.04462563	-0.391263
C	-0.0116411074	-0.0265710645	 0.0703824709	-0.07675
N	 1.3398022344	-0.5895674224	-0.1400267185	-0.399801
C	 0.7217056518	-0.6941519891	 1.1742880471	 0.31615
C	 1.2364660866	-0.1019046878	 2.4905636158	-0.302035
C	 0.3497419192	-1.1432866332	 3.2371809442	-0.260787
C	 0.2375283523	-1.9517901776	 1.9109721428	 0.075165
O	-0.9707042063	-2.5663004273	 1.5401474592	-0.426218
H	 0.7274328944	 1.971240195	 0.3795975354	 0.128755
H	-0.229579274	 1.7735795979	-1.0941003796	 0.122439
H	-1.040958647	 1.828489743	 0.4794868726	 0.109288
H	-0.8402786704	-0.6000872727	-0.3457957496	 0.083235
H	 1.2799454825	-1.4834047849	-0.6243615385	 0.230606
H	 2.3061200015	-0.2821880955	 2.6286782214	 0.112724
H	 1.0316993813	 0.9534929723	 2.6817022324	 0.10589
H	 0.7753086689	-1.6544486452	 4.1024518956	 0.104809
H	-0.620637659	-0.7211128789	 3.518394925	 0.09605
H	 0.9928401683	-2.7450989447	 1.8704471896	 0.094057
H	-1.6663271229	-1.902031157	 1.5971866442	 0.277684
107.276	147.2864	178.9033	201.8088	245.6743	343.5552	383.1422	450.5049	465.9127	542.8093	562.3521	700.8646	784.6734	798.0056	858.7215	919.9287	931.0939	967.0761	1016.4431	1034.4853	1068.0958	1072.7847	1101.1031	1114.8775	1150.4728	1184.3917	1222.9136	1231.9893	1243.086	1272.0945	1296.3037	1313.3543	1350.6648	1410.2186	1431.0607	1468.7232	1478.1688	1491.2123	1495.3817	1505.9986	3032.3043	3046.3456	3055.1694	3064.103	3093.4386	3099.8892	3110.6733	3123.7086	3124.8794	3479.1159	3802.9219
CC1NC11CCC1O	C[C@H]1N[C@]21CC[C@H]2O	
InChI=1S/C6H11NO/c1-4-6(7-4)3-2-5(6)8/h4-5,7-8H,2-3H2,1H3	InChI=1S/C6H11NO/c1-4-6(7-4)3-2-5(6)8/h4-5,7-8H,2-3H2,1H3/t4-,5-,6+/m1/s1
