21
gdb 40779	3.4472	1.27882	1.13884	1.4863	81.59	-0.2482	0.0868	0.335	1163.3528	0.184573	-387.068876	-387.061018	-387.060074	-387.101317	31.364	
C	-0.2352126639	 1.3822281073	-0.220870725	-0.25567
C	 1.1740451951	 0.9958832687	 0.1607813265	-0.273892
C	 0.1127089017	-0.0638215866	 0.0180410547	-0.001377
C	-0.3934807892	-0.8232906927	 1.2253439541	 0.095682
O	-0.53578776	 0.0702710244	 2.3318204278	-0.270697
C	-1.4614480138	-0.4928143323	 3.256586685	-0.092757
C	-2.4431218602	-1.2944475621	 2.4198448374	-0.057758
C	-2.9689392143	-0.6107803473	 1.1841333329	-0.287693
C	-1.7545809052	-1.4990261745	 1.0919883431	-0.054914
H	-0.8231692526	 1.8857331914	 0.536230868	 0.121999
H	-0.4306986508	 1.701280074	-1.2386855994	 0.10291
H	 1.9518670619	 1.0502387054	-0.5930665594	 0.103728
H	 1.495430732	 1.2430139936	 1.1659531824	 0.124547
H	 0.183908338	-0.6948662562	-0.8641002678	 0.07949
H	 0.3453618836	-1.6064051048	 1.4769965763	 0.064351
H	-0.9492958342	-1.1542357061	 3.9743543922	 0.090868
H	-1.9087176568	 0.3377941458	 3.8133156482	 0.106188
H	-3.0191557357	-2.0782300734	 2.8973077164	 0.087236
H	-3.8919243368	-0.9920843383	 0.7617411244	 0.10874
H	-2.8374985599	 0.4613021878	 1.0888061331	 0.124059
H	-1.8114120789	-2.439901314	 0.5572144491	 0.084962
95.7558	121.4835	176.1208	266.4734	298.6698	359.4743	411.66	568.0292	649.7753	720.02	771.29	789.3504	809.5026	827.2051	842.8829	901.2475	917.6353	944.7286	952.0827	984.5444	1036.6481	1045.5705	1061.6063	1074.2837	1078.2345	1085.2023	1089.3424	1107.317	1127.6298	1136.7096	1157.1025	1195.8272	1204.1964	1233.4258	1242.2505	1326.3778	1333.1797	1359.4314	1367.7193	1406.0871	1415.5299	1459.881	1482.0725	1504.0384	1516.7269	2925.9906	2972.5943	3063.8317	3135.4813	3137.6669	3139.1094	3145.3625	3176.0437	3184.9657	3221.2002	3224.5264	3237.1484
C1CC1C1OCC2CC12	C1CC1[C@H]1OC[C@H]2C[C@@H]12	
InChI=1S/C8H12O/c1-2-5(1)8-7-3-6(7)4-9-8/h5-8H,1-4H2	InChI=1S/C8H12O/c1-2-5(1)8-7-3-6(7)4-9-8/h5-8H,1-4H2/t6-,7-,8-/m1/s1
