18
gdb 9892	4.93033	0.93321	0.87842	1.8995	69.55	-0.2502	-0.022	0.2282	1316.1506	0.15117	-384.932924	-384.924007	-384.923062	-384.967263	31.977	
O	-0.431883801	 1.3107625001	-0.2724568612	-0.469798
C	-0.0987975989	-0.0356724598	-0.03934581	 0.42594
C	 1.0318797224	-0.5559439903	-0.9080952872	-0.253562
C	 2.350361603	 0.210936314	-0.6931057946	-0.284951
C	 3.4305529412	-0.2504088063	-1.6421200461	 0.158203
O	 4.5120400324	-0.6638102039	-1.3121377273	-0.237299
C	-0.2862268779	-0.5655204057	 1.3604893689	-0.322586
C	-1.2693667393	-0.9210792807	 0.259617611	-0.303744
H	 0.1755778153	 1.8614615475	 0.2326023774	 0.284956
H	 1.1863461841	-1.6206578628	-0.7001391985	 0.109657
H	 0.7308340212	-0.4736723512	-1.9603681956	 0.1121
H	 2.1683377463	 1.2758075705	-0.8987103543	 0.11546
H	 2.7167067407	 0.1095818973	 0.3327464993	 0.120506
H	 3.1469649329	-0.1876421227	-2.7197205466	 0.072216
H	 0.3875146133	-1.3346796588	 1.7232147521	 0.116005
H	-0.6236238844	 0.1367877193	 2.1148530676	 0.115415
H	-2.2403820095	-0.4413054771	 0.2873785238	 0.126506
H	-1.2671312618	-1.9334815092	-0.1292507587	 0.114973
55.8628	70.5782	106.7645	164.5969	272.7948	288.4879	343.2869	357.8021	428.5779	472.1104	543.4842	732.7084	772.6958	779.1889	854.2727	909.0386	928.195	939.9912	984.3263	1005.9736	1047.5893	1076.6971	1078.9431	1105.3029	1186.7827	1190.5617	1259.3819	1266.3053	1301.4565	1322.8512	1358.68	1392.7536	1429.868	1453.8324	1465.5229	1483.5578	1499.43	1836.0695	2851.8416	3011.9155	3026.0797	3071.635	3099.3142	3131.7712	3140.3646	3217.2961	3234.73	3804.8826
OC1(CCC=O)CC1	OC1(CCC=O)CC1	
InChI=1S/C6H10O2/c7-5-1-2-6(8)3-4-6/h5,8H,1-4H2	InChI=1S/C6H10O2/c7-5-1-2-6(8)3-4-6/h5,8H,1-4H2
