18
gdb 37220	3.38632	1.58497	1.29189	1.2596	77.39	-0.2323	0.0022	0.2346	997.708	0.14969	-401.878174	-401.871079	-401.870135	-401.909743	28.294	
C	 0.2175083746	 1.5272193159	-0.2255911746	-0.234224
C	 1.3530611294	 0.6176256765	 0.0819975645	-0.157836
N	-0.0976234654	 0.1215755726	 0.0754951585	-0.159848
C	 0.2653399605	-0.7021561578	-1.1584433679	-0.062163
C	-0.4645368633	-0.6102172815	-2.5134457104	-0.096433
O	 0.4104712806	-0.2059028891	-3.562562675	-0.254293
C	 1.7466246919	-0.7132598622	-3.474287834	-0.115963
C	 2.4399933712	-0.1588050254	-2.2419360407	-0.266792
C	 1.6501668015	-0.1254239192	-1.1803077648	 0.348692
H	-0.1131860046	 2.2036155773	 0.5572682743	 0.125132
H	 0.1041138795	 1.9060063679	-1.238674562	 0.130397
H	 1.9379664063	 0.6811787826	 0.9922378541	 0.108973
H	 0.276922939	-1.7398312922	-0.8103701406	 0.105103
H	-0.9143714826	-1.5837110263	-2.7611143677	 0.09297
H	-1.2673353472	 0.1331589741	-2.4810445736	 0.120015
H	 1.7371838871	-1.8163494891	-3.4891870887	 0.098106
H	 2.2452405348	-0.3763655318	-4.3866398701	 0.118655
H	 3.4235705268	 0.2934287576	-2.3091289414	 0.099508
82.5174	190.8138	250.9988	303.0627	384.5978	479.4539	498.8425	577.6603	684.1426	708.833	736.1487	801.1108	831.8261	834.0544	900.3573	936.0971	964.0149	987.6392	1027.267	1031.9779	1064.015	1085.3066	1102.0337	1116.4985	1148.1604	1152.3469	1213.7886	1240.4218	1241.387	1295.7439	1295.9989	1327.6161	1351.9019	1365.7868	1402.915	1487.1289	1491.8248	1500.4788	1771.5583	2959.1626	2982.875	3051.1091	3078.1078	3095.5659	3107.7199	3180.2569	3185.2336	3199.8998
C1C2N1C1COCC=C21	C1[C@H]2N1[C@H]1COC[CH][C]21	
InChI=1S/C7H9NO/c1-2-9-4-7-5(1)6-3-8(6)7/h1,6-7H,2-4H2	InChI=1S/C7H9NO/c1-2-9-4-7-5(1)6-3-8(6)7/h1,6-7H,2-4H2/t6-,7+,8?/m1/s1
