17
gdb 80339	2.18806	1.50625	1.31954	2.27	74.25	-0.2323	0.0153	0.2476	1070.078	0.132979	-421.736959	-421.72806	-421.727116	-421.770107	33.717	
C	-0.1315546563	 1.4857246891	-0.1744971136	-0.421805
C	 0.0286570039	-0.0026291026	 0.039263337	-0.099965
C	 1.3215837211	-0.7567593602	-0.1438437747	 0.01859
O	 2.44085494	 0.033617565	 0.2794900743	-0.291189
C	 1.9762028274	-0.0091220937	 1.6649240132	-0.111012
C	 1.9514432837	 1.2660006942	 2.3583725674	 0.309197
C	 1.9348773736	 2.2978025709	 2.9756657246	-0.433581
C	 0.6773646113	-0.7052757283	 1.21884474	 0.274063
O	 0.0795248048	-1.704650414	 1.95359749	-0.450917
H	 0.8029332552	 2.0124415429	 0.024664994	 0.148314
H	-0.4192820653	 1.6870412865	-1.2119476551	 0.116339
H	-0.9055647508	 1.9055021672	 0.4761529953	 0.114272
H	-0.8088692093	-0.6124512992	-0.300533092	 0.09544
H	 1.5069237267	-1.5579918601	-0.8488339256	 0.113942
H	 2.5926847027	-0.7261876513	 2.2220482526	 0.121444
H	 1.9179751479	 3.2156711754	 3.5102713007	 0.202456
H	-0.6943089267	-1.3382422117	 2.3958039419	 0.294411
116.0102	125.8821	182.8743	207.8946	251.1018	279.7858	322.8785	341.8944	416.016	502.8681	565.6158	582.5799	615.3822	676.5208	684.6605	755.8518	775.8731	919.6535	936.4396	979.0785	981.5143	1000.4829	1059.9151	1090.6979	1123.4613	1139.6241	1191.5045	1230.8192	1259.6222	1314.4684	1351.0977	1357.5509	1415.1461	1480.5117	1495.4685	1504.9012	2231.215	3027.8661	3037.9447	3094.833	3115.1699	3141.4032	3192.047	3500.1298	3794.6099
CC1C2OC(C#C)C12O	C[C@H]1[C@H]2O[C@@H](C#C)[C@@]12O	
InChI=1S/C7H8O2/c1-3-5-7(8)4(2)6(7)9-5/h1,4-6,8H,2H3	InChI=1S/C7H8O2/c1-3-5-7(8)4(2)6(7)9-5/h1,4-6,8H,2H3/t4-,5-,6+,7-/m0/s1
