13
gdb 23744	3.39004	2.31678	1.3779	3.452	64.09	-0.2155	-0.017	0.1985	816.0458	0.097551	-402.811618	-402.805268	-402.804324	-402.84188	24.787	
N	-0.0126317914	 1.4206729968	 0.1458699611	-0.596519
C	-0.039458858	 0.036418154	 0.0462442047	 0.168129
C	-1.2057061696	-0.7265338815	 0.0329504619	-0.156817
C	-1.1175374054	-2.117894336	-0.005911759	-0.108701
C	 0.1337299705	-2.7138720673	-0.0329465452	-0.02796
N	 1.2688159275	-1.9952454224	-0.0270511583	-0.307901
C	 1.158991125	-0.6992535042	 0.010176007	 0.297743
F	 2.2965519646	 0.0155230491	 0.0071089935	-0.092024
H	 0.8567220827	 1.8400451196	-0.1483983068	 0.26048
H	-0.8213732356	 1.8978588355	-0.2234117062	 0.252074
H	-2.1717512211	-0.2315836528	 0.0569600718	 0.099701
H	-2.0152383779	-2.7253105175	-0.0160401964	 0.100644
H	 0.2480975286	-3.7925517231	-0.0629745681	 0.111154
174.1126	300.3298	304.7859	331.8549	469.3807	481.2787	544.4095	577.4286	592.828	609.9634	769.8774	783.9289	817.8202	881.6454	923.4884	966.2501	1068.6515	1092.2905	1158.3507	1250.2551	1293.1363	1328.1682	1375.1786	1494.7839	1509.1169	1621.4537	1631.4455	1661.5794	3173.5056	3179.4013	3204.1568	3572.1463	3677.0725
NC1=CC=CN=C1F	Nc1cccnc1F	
InChI=1S/C5H5FN2/c6-5-4(7)2-1-3-8-5/h1-3H,7H2	InChI=1S/C5H5FN2/c6-5-4(7)2-1-3-8-5/h1-3H,7H2
