12
gdb 129424	5.22505	1.0623	0.88491	2.8269	58.22	-0.2673	-0.0815	0.1858	1185.1137	0.077014	-502.064339	-502.05675	-502.055806	-502.097851	27.068	
N	-0.1914537089	 1.2650422529	-0.1524521553	-0.535637
C	 0.1378078285	-0.0574879334	-0.0302300658	 0.463308
N	 1.2808019625	-0.5386678256	-0.2249830359	-0.531184
O	-1.0479689283	-0.7152533349	 0.3887161819	-0.263603
C	-1.0889999263	-2.014308171	 0.6294825059	 0.543986
N	-0.1121958679	-2.8756550488	 0.7040854191	-0.187358
O	-0.7466136842	-4.0499190869	 0.9861661077	-0.149357
N	-2.1077186276	-3.8200739664	 1.0734770638	 0.06827
N	-2.3210607385	-2.60047291	 0.8591979351	-0.223457
H	 0.4972612941	 1.8154725087	-0.6397437149	 0.277878
H	-1.1547036783	 1.4797973147	-0.3536663758	 0.270666
H	 1.368364575	-1.5237692893	-0.0031592658	 0.266489
33.092	71.223	182.8394	351.9735	367.2752	388.1238	420.8345	511.6894	597.6669	652.0704	708.1493	742.1439	762.8555	773.2493	798.1479	917.9986	966.179	1061.1421	1110.6339	1111.0457	1152.3639	1307.1658	1349.0574	1517.3066	1611.5886	1631.0346	1810.3262	3577.6801	3600.8731	3719.5348
NC(=N)OC1=NON=N1	NC(=N)Oc1nonn1	
InChI=1S/C2H3N5O2/c3-1(4)8-2-5-7-9-6-2/h(H3,3,4)	InChI=1S/C2H3N5O2/c3-1(4)8-2-5-7-9-6-2/h(H3,3,4)
