20
gdb 94625	3.44524	1.00609	0.85872	2.5887	75.86	-0.2263	0.0582	0.2845	1381.2528	0.170039	-440.219313	-440.210085	-440.209141	-440.25438	33.394	
O	 0.2781633361	 1.134647551	-0.4583002827	-0.421885
C	 0.0450752082	-0.1529812453	 0.0606602803	 0.041734
C	-0.2200726502	-0.2862545295	 1.577495364	-0.099102
O	-1.5251728957	-0.8488391479	 1.3373524777	-0.290413
C	-1.4176935692	-0.6279192459	-0.0948999656	 0.117948
C	-2.4160758568	 0.3917954098	-0.6191186748	-0.15265
N	-3.7459205562	-0.2005631773	-0.6889573095	-0.075332
C	-4.5363034298	-0.1494259909	 0.5396545155	-0.205844
C	-4.8693538359	 0.7283992334	-0.6145512083	-0.227832
H	 1.2153040456	 1.3347846125	-0.3771668216	 0.290722
H	 0.7760232924	-0.8756324268	-0.3216705392	 0.080634
H	 0.4259777009	-0.970364266	 2.1408409614	 0.098393
H	-0.2677198001	 0.6827785191	 2.0918223307	 0.099879
H	-1.5477411115	-1.5708173795	-0.6384981726	 0.088782
H	-2.3815019036	 1.2952780669	 0.0125903085	 0.089445
H	-2.1145575625	 0.6898996402	-1.6301502238	 0.112288
H	-5.132294462	-1.0326005378	 0.7503140907	 0.113333
H	-4.0816505821	 0.3111243602	 1.4127309359	 0.120135
H	-4.6480107956	 1.7901942005	-0.5151749108	 0.106784
H	-5.7128138821	 0.5000312132	-1.2600899357	 0.112981
55.6976	71.0559	98.8387	133.648	210.0659	245.4342	336.3264	374.2782	409.6613	488.037	537.1305	741.0237	777.3107	834.5701	855.5811	886.6605	910.3403	919.6672	1018.3348	1024.6928	1030.7243	1061.6778	1075.9774	1106.6715	1116.2638	1122.1434	1151.4546	1168.5006	1171.6801	1187.1098	1214.4344	1260.1433	1287.5682	1311.8942	1320.7621	1326.104	1360.4237	1410.8041	1439.8051	1474.8557	1495.9672	1513.7903	1524.4025	2963.4042	3007.7583	3022.211	3045.5667	3060.4131	3063.3311	3093.1689	3113.7902	3177.5518	3200.0301	3829.5655
OC1COC1CN1CC1	O[C@H]1CO[C@H]1CN1CC1	
InChI=1S/C6H11NO2/c8-5-4-9-6(5)3-7-1-2-7/h5-6,8H,1-4H2	InChI=1S/C6H11NO2/c8-5-4-9-6(5)3-7-1-2-7/h5-6,8H,1-4H2/t5-,6-/m0/s1
