18
gdb 93766	2.92523	1.34779	0.95573	5.3007	78.99	-0.2166	-0.0254	0.1913	1212.6036	0.147761	-439.122592	-439.11387	-439.112926	-439.155798	33.18	
C	-0.0209180755	 1.5332432044	-0.0779522154	-0.398637
C	 0.0672190851	 0.0200869894	 0.0143358197	 0.009162
O	 0.7073654181	-0.4564404404	-1.1694475831	-0.248798
C	 0.8466262874	-1.8485185856	-1.204550356	-0.153583
C	 1.5649705708	-2.3910492561	 0.0116972445	 0.334865
N	 2.1026881351	-3.6384747495	-0.1310117619	-0.557011
C	 1.5648913986	-1.6772149503	 1.1637326312	-0.287893
C	 0.810017307	-0.4431797508	 1.2834857805	 0.367075
O	 0.7139383273	 0.1901224131	 2.3224180357	-0.366349
H	 0.9772615973	 1.95842781	-0.2160480677	 0.126137
H	-0.6481835275	 1.830632914	-0.9218223247	 0.113122
H	-0.4380297827	 1.9267807374	 0.849940164	 0.143521
H	-0.951042171	-0.4100317685	 0.0696103881	 0.083255
H	-0.1340484163	-2.3532295606	-1.2898040017	 0.113296
H	 1.4128870994	-2.0859193837	-2.1139278136	 0.112336
H	 2.3765385126	-3.9430721682	-1.0515149606	 0.259978
H	 2.6688245923	-3.9999965027	 0.6207920776	 0.264673
H	 2.0809146621	-2.028405282	 2.0525973136	 0.08485
71.5796	160.5459	196.3187	221.5588	279.9556	327.9968	383.82	396.5997	421.6221	452.3301	500.8454	518.0587	571.4155	648.7546	706.1509	804.4596	873.7741	879.3789	902.7306	1024.6702	1042.6178	1092.6966	1110.3553	1146.5692	1169.9443	1242.2129	1283.8866	1292.9572	1343.5446	1355.5355	1383.1511	1400.6664	1432.4911	1478.4723	1482.4338	1497.1793	1642.4873	1683.8792	1752.0656	2924.223	2934.7852	3044.8221	3054.6404	3125.5234	3153.2827	3170.9821	3582.3502	3693.4
CC1OCC(N)=CC1=O	C[C@H]1OCC(=CC1=O)N	
InChI=1S/C6H9NO2/c1-4-6(8)2-5(7)3-9-4/h2,4H,3,7H2,1H3	InChI=1S/C6H9NO2/c1-4-6(8)2-5(7)3-9-4/h2,4H,3,7H2,1H3/t4-/m1/s1
