18
gdb 73143	2.48255	1.83912	1.578	1.0286	69.91	-0.2345	0.0608	0.2953	930.4472	0.149123	-439.03734	-439.030124	-439.029179	-439.068522	29.415	
O	 0.2544924159	 1.3898624045	-0.0012924599	-0.481551
C	-0.0052444256	 0.0147930948	 0.0227533194	 0.367146
C	-1.3672184496	-0.3537605947	 0.6308110201	-0.121329
O	-0.7582382679	-1.4211253758	 1.3965248659	-0.296191
C	 0.5743666294	-0.9025904008	 1.1398040028	 0.047437
C	 1.5499100996	-1.8735991562	 0.4771998387	-0.198399
N	 1.3804454173	-1.7883067836	-0.9921491684	-0.105196
C	 0.0286245617	-2.1394041301	-1.4418401402	-0.251014
C	 0.3950928811	-0.7103257584	-1.2602320636	-0.128356
H	 1.1018707567	 1.5370723335	-0.4353667198	 0.28453
H	-1.7606478154	 0.438964377	 1.2783194005	 0.113327
H	-2.1504228126	-0.7153613782	-0.0421042925	 0.10905
H	 0.9787686381	-0.3954638984	 2.0232659325	 0.083666
H	 2.5782295533	-1.5758535722	 0.7115304763	 0.109137
H	 1.4085844885	-2.9015751938	 0.8244340415	 0.123994
H	-0.0230238257	-2.5487346394	-2.4473387302	 0.114967
H	-0.6495267572	-2.5912201073	-0.7238309697	 0.138531
H	 0.5741460425	-0.0827982509	-2.1304849432	 0.090251
167.5113	237.1414	266.5374	296.773	359.0053	382.5298	408.1096	480.743	598.7151	661.1635	715.3783	770.6497	813.6137	848.9947	863.7134	926.3884	970.4656	995.831	1008.6416	1050.1062	1057.6922	1069.7554	1092.232	1136.8137	1148.4795	1166.8761	1176.965	1189.2186	1240.8119	1244.7732	1280.1687	1318.5684	1333.9392	1349.0722	1376.1008	1408.3593	1478.9862	1502.6899	1517.4577	3028.472	3036.1135	3051.3716	3090.1475	3093.859	3108.3462	3132.3697	3199.2043	3806.4807
OC12COC1CN1CC21	O[C@]12CO[C@H]1CN1C[C@@H]21	
InChI=1S/C6H9NO2/c8-6-3-9-5(6)2-7-1-4(6)7/h4-5,8H,1-3H2	InChI=1S/C6H9NO2/c8-6-3-9-5(6)2-7-1-4(6)7/h4-5,8H,1-3H2/t4-,5-,6-,7?/m0/s1
