17
gdb 109122	3.20883	1.3258	0.95501	3.1865	71.29	-0.2368	0.0045	0.2413	1198.8145	0.136074	-455.201136	-455.192113	-455.191169	-455.235261	31.46	
C	-0.0259994058	 1.3749127827	 0.0333337333	-0.237991
O	 0.0203000808	-0.0573048127	-0.0278658199	-0.2615
C	 0.6304625303	-0.5555223355	-1.0986661773	 0.513173
N	 1.1681483719	 0.0948644218	-2.0577729681	-0.379801
C	 1.6893788124	-0.9284766777	-2.9651003006	-0.299004
C	 1.3466834967	-2.2862704028	-2.3392509583	 0.389982
O	 1.5726469863	-3.4074418117	-2.7252852901	-0.369945
N	 0.6791722201	-1.9453873307	-1.1655229151	-0.175149
C	 0.1461578149	-2.8954194619	-0.2125634606	-0.350499
H	 0.9854301968	 1.7883382933	 0.0465620106	 0.147632
H	-0.5600169649	 1.7759109758	-0.8315763281	 0.147721
H	-0.5528787539	 1.6118226012	 0.9573934728	 0.136462
H	 1.2407370995	-0.849597222	-3.9619481491	 0.144566
H	 2.7737954061	-0.8372148606	-3.0951463445	 0.144482
H	 0.3751362579	-3.8897459926	-0.6009121903	 0.166108
H	 0.609266551	-2.7704744274	 0.7703698785	 0.141893
H	-0.93678013	-2.7837592791	-0.1074131933	 0.141871
92.5089	107.7817	131.5548	155.3472	203.3429	210.1495	282.0138	290.5581	400.3121	546.2165	562.2095	637.9715	722.602	735.5427	776.4561	937.1214	984.4662	1042.6404	1074.4361	1103.8919	1157.7686	1181.4184	1183.473	1206.2604	1246.7971	1276.7941	1349.6291	1410.4358	1448.9902	1460.5439	1477.0149	1490.6484	1495.8751	1509.5957	1512.2267	1716.5227	1842.2306	3044.0687	3044.9618	3053.757	3077.2077	3107.7286	3130.5367	3144.8151	3163.1501
COC1=NCC(=O)N1C	COC1=NCC(=O)N1C	
InChI=1S/C5H8N2O2/c1-7-4(8)3-6-5(7)9-2/h3H2,1-2H3	InChI=1S/C5H8N2O2/c1-7-4(8)3-6-5(7)9-2/h3H2,1-2H3
