13
gdb 131379	3.44848	1.6001	1.10487	2.1013	59.95	-0.1988	0.0338	0.2325	990.2549	0.091145	-489.854351	-489.847247	-489.846303	-489.885828	26.579	
O	 0.1775599581	 1.3594953025	 0.0292212924	-0.426594
C	 0.1049380079	 0.0165817834	 0.0783302586	 0.293996
N	 0.2377179312	-0.7333832261	-1.0191306648	-0.346038
N	 0.0648597036	-2.0402858563	-0.6024725089	-0.352738
C	-0.1063834799	-2.0635500099	 0.726271354	 0.424993
C	-0.099486671	-0.7939440512	 1.2052599113	 0.134
O	-0.4391521333	-0.8078841656	 2.5528913208	-0.287442
C	-0.2719371207	-2.185263414	 2.8871358085	 0.000833
O	-0.3975339527	-2.9911622676	 1.6706130724	-0.287833
H	 0.3197900553	 1.5978154063	-0.8959524633	 0.305732
H	 0.2423078969	-2.7881149817	-1.2481979113	 0.282237
H	 0.737612874	-2.3552588483	 3.289780748	 0.117221
H	-1.0484537394	-2.4922217915	 3.5886314724	 0.141633
148.5764	210.786	227.5485	291.3277	295.8697	385.1729	447.0014	542.6185	631.245	644.0096	657.4951	701.0804	765.9459	841.8037	883.4454	1042.4959	1062.1827	1125.4035	1138.191	1182.886	1231.1313	1287.0468	1354.4377	1421.1952	1452.1014	1519.6831	1603.5464	1622.2102	1679.2879	2992.5554	3131.8566	3698.1327	3789.9747
OC1=NNC2=C1OCO2	Oc1n[nH]c2c1OCO2	
InChI=1S/C4H4N2O3/c7-3-2-4(6-5-3)9-1-8-2/h1H2,(H2,5,6,7)	InChI=1S/C4H4N2O3/c7-3-2-4(6-5-3)9-1-8-2/h1H2,(H2,5,6,7)
