17
gdb 91526	2.66414	1.47264	1.12806	1.8208	68.69	-0.2466	0.0136	0.2601	1089.9493	0.136275	-455.129488	-455.120967	-455.120023	-455.162746	32.175	
N	-0.1025340262	 1.2747770068	 0.2457050121	-0.537024
C	 0.0416186683	-0.0454115477	-0.0619283047	 0.270711
O	 1.1028553602	-0.5873027049	-0.3176074528	-0.370957
C	-1.235480456	-0.8157918443	-0.0887499828	 0.239328
C	-2.4181334018	-0.4554120148	-0.9074472832	-0.266635
N	-2.5381604662	-0.3399002751	 0.550558212	-0.190187
C	-2.7479051188	-1.7540007277	 1.043448989	-0.180734
C	-1.3880178843	-2.2269542319	 0.4776554995	 0.035284
O	-1.4751473725	-3.302593896	-0.4218763224	-0.428016
H	 0.7335150152	 1.8196081732	 0.3836633453	 0.262007
H	-0.9573327797	 1.5739167476	 0.6897845765	 0.273826
H	-2.3906010111	 0.5032393274	-1.4150831382	 0.130563
H	-2.9525962457	-1.2469849219	-1.4272490055	 0.135743
H	-2.8133712217	-1.7709556056	 2.1318581745	 0.118916
H	-3.6249200542	-2.2412031778	 0.6087521594	 0.121738
H	-0.6489641533	-2.4171869545	 1.2647426811	 0.091527
H	-0.5968357122	-3.4426165528	-0.7940865997	 0.293909
72.2084	111.1626	183.6948	203.3224	294.1503	349.7031	396.8536	415.9571	446.1513	480.7185	589.8441	599.6042	685.8383	735.9335	753.6643	815.5264	859.947	887.0917	966.3192	995.1032	1045.6884	1093.7389	1109.4361	1120.7829	1134.9671	1193.8921	1223.3955	1228.1912	1280.5795	1317.7986	1337.1356	1417.0534	1437.6904	1483.0263	1505.3855	1607.8439	1786.0268	3037.1695	3068.1017	3112.8971	3135.7516	3210.0642	3576.1069	3711.2067	3800.9876
NC(=O)C12CN1CC2O	NC(=O)[C@]12CN1C[C@H]2O	
InChI=1S/C5H8N2O2/c6-4(9)5-2-7(5)1-3(5)8/h3,8H,1-2H2,(H2,6,9)	InChI=1S/C5H8N2O2/c6-4(9)5-2-7(5)1-3(5)8/h3,8H,1-2H2,(H2,6,9)/t3-,5-,7?/m1/s1
