21
gdb 121974	2.33327	0.93447	0.708	4.8181	81.64	-0.2325	0.0328	0.2654	1625.6054	0.180654	-420.390071	-420.379407	-420.378463	-420.426752	37.033	
C	-0.0863082249	 0.7598310464	 0.9040627754	-0.23275
O	 0.1689559011	-0.4264717111	 0.1851184171	-0.229176
C	 0.0240575341	-0.2653165859	-1.2135641524	-0.060995
C	 0.2966938698	-1.5834678678	-1.9293156276	-0.158714
N	-0.7923548123	-2.5546004042	-1.8349606673	-0.072586
C	-0.724311931	-3.5622359576	-2.8870112657	-0.335133
C	-0.8773577182	-3.1680500929	-0.5112390655	-0.290516
C	-2.1563000881	-3.8604554445	-0.3138082777	 0.274223
N	-3.1560969711	-4.4150044631	-0.1474120963	-0.316241
H	 0.6053535027	 1.5643723062	 0.6101330562	 0.109538
H	-1.1159934256	 1.1162548315	 0.7497093995	 0.113742
H	 0.0582064212	 0.5376114886	 1.9636575367	 0.132674
H	-0.9912004544	 0.0821964373	-1.4611105908	 0.103211
H	 0.7392848901	 0.4924049642	-1.5754003336	 0.091569
H	 0.4252968499	-1.3508989068	-2.9912265123	 0.108721
H	 1.2613381249	-1.9913180036	-1.5723614259	 0.093666
H	 0.1925939821	-4.1792281037	-2.8377950105	 0.096917
H	-1.5867985662	-4.2300294168	-2.8117264933	 0.147243
H	-0.7581073892	-3.0748654555	-3.865239754	 0.12435
H	-0.0638754045	-3.8969666974	-0.3260852566	 0.120812
H	-0.7826351101	-2.3874440933	 0.2465811745	 0.179443
49.3613	61.7576	106.3397	130.517	168.4547	224.0635	239.0287	270.5042	287.922	345.4954	356.7168	397.3782	408.3724	551.7323	564.1385	818.3109	867.1086	925.3727	976.6717	1010.7825	1037.6734	1079.7854	1098.8396	1155.2144	1157.7424	1166.0916	1186.8655	1222.9822	1251.7599	1268.6616	1305.0278	1337.8749	1399.5912	1404.0811	1427.0721	1459.7698	1477.9064	1481.4019	1484.8055	1485.462	1495.8507	1498.9388	1506.5485	1522.9889	2363.0931	2914.3837	2929.3323	2938.059	2961.5615	2979.9192	3007.5417	3027.0984	3073.8395	3077.3241	3111.4838	3120.1789	3121.1645
COCCN(C)CC#N	COCCN(C)CC#N	
InChI=1S/C6H12N2O/c1-8(4-3-7)5-6-9-2/h4-6H2,1-2H3	InChI=1S/C6H12N2O/c1-8(4-3-7)5-6-9-2/h4-6H2,1-2H3
