15
gdb 131789	5.83375	0.77965	0.72442	2.8892	63.5	-0.2633	-0.0197	0.2436	1489.9585	0.112454	-491.083079	-491.074534	-491.07359	-491.117835	29.894	
O	-0.137050223	 1.4084413958	-0.119271663	-0.414385
C	-0.0716852907	 0.0031842297	-0.2697556982	-0.076299
C	-1.3947546453	-0.5540347066	 0.2698751538	-0.294586
C	-1.472403579	-2.0358582138	 0.1673851286	 0.418122
N	-1.5203922831	-2.9141730773	 1.1270170882	-0.390189
C	-1.565682501	-4.0930702006	 0.4240883548	 0.432409
O	-1.6269385856	-5.2785717713	 1.0276018082	-0.399201
N	-1.5447635821	-3.9847165023	-0.8795679144	-0.200109
O	-1.4815954907	-2.5853015986	-1.0510330165	-0.203233
H	 0.6783614704	 1.7879750652	-0.4596296467	 0.293388
H	 0.0480557369	-0.291851859	-1.3221619432	 0.11403
H	 0.7672153419	-0.4294823131	 0.2968395936	 0.104245
H	-1.5112675378	-0.2753506182	 1.3187048332	 0.148676
H	-2.2160484285	-0.1023005942	-0.2965424343	 0.147009
H	-1.6352198926	-5.1120970556	 1.9781959059	 0.320124
26.2564	88.4499	108.0386	245.4891	263.417	305.2367	348.5473	385.4632	416.2421	493.8169	668.0089	730.6862	776.2941	793.9146	820.891	936.9759	1002.8794	1032.7594	1050.842	1089.2306	1094.5158	1211.3173	1222.3752	1242.2411	1298.861	1322.0127	1346.0433	1444.8227	1459.7611	1477.9826	1530.6371	1607.3024	1676.4083	2982.8103	3020.6213	3062.4534	3131.7326	3812.1232	3834.0633
OCCC1=NC(O)=NO1	OCCc1nc(O)no1	
InChI=1S/C4H6N2O3/c7-2-1-3-5-4(8)6-9-3/h7H,1-2H2,(H,6,8)	InChI=1S/C4H6N2O3/c7-2-1-3-5-4(8)6-9-3/h7H,1-2H2,(H,6,8)
