14
gdb 44025	3.42921	1.82425	1.56683	3.2916	67.5	-0.2463	-0.0157	0.2306	848.982	0.100343	-436.506543	-436.500323	-436.499379	-436.536961	25.38	
N	-0.002687163	 1.1510655374	-0.4663276301	-0.530805
C	-0.0287050551	-0.0247549975	-0.0529586462	 0.382352
O	 1.0193614477	-0.8707235987	 0.3859032629	-0.284664
C	 0.0420738742	-1.8209374062	 0.8692730635	 0.285665
C	-0.6733810095	-1.8307335632	 2.2231317718	-0.316821
C	-1.8077145054	-2.0316991996	 1.1873577182	-0.142104
C	-0.8856069312	-2.875873312	 0.1836907828	 0.025474
O	-1.1619826731	-2.0675267802	-0.969591911	-0.318748
C	-1.0925494959	-1.1009311992	 0.1387402166	 0.190823
H	 0.9473227344	 1.5262727968	-0.4929443216	 0.245486
H	-0.4628533229	-2.6568902196	 2.9045950179	 0.117417
H	-0.6976820726	-0.8766140302	 2.7550672667	 0.124821
H	-2.8765668927	-2.1705985731	 1.3526901937	 0.110751
H	-0.8100065049	-3.9590598047	 0.0624101649	 0.110353
131.9141	316.6487	334.9309	377.5606	494.2079	539.946	599.9218	641.3395	703.376	766.1532	800.2432	856.4136	877.3828	891.8903	897.9246	910.4726	966.3764	1005.5061	1019.6868	1043.2705	1086.9587	1098.3291	1133.9667	1141.8123	1204.3648	1218.5881	1225.3063	1257.5551	1280.6433	1511.5951	1815.8513	3069.5845	3091.7116	3121.4046	3132.3088	3480.2204
N=C1OC23CC4C2OC134	[NH][C]1O[C@]23C[C@@H]4[C@H]2O[C@]134	
InChI=1S/C6H5NO2/c7-4-6-2-1-5(6,9-4)3(2)8-6/h2-3,7H,1H2	InChI=1S/C6H5NO2/c7-4-6-2-1-5(6,9-4)3(2)8-6/h2-3,7H,1H2/t2-,3-,5-,6-/m1/s1
