17
gdb 29943	3.18172	1.36704	0.9637	7.462	80.81	-0.2021	-0.0005	0.2016	1177.8666	0.138132	-418.062781	-418.054559	-418.053615	-418.095374	31.461	
C	 0.0416498891	 1.4915515925	 0.001465038	-0.359071
N	 0.0025036633	 0.0360206577	 0.0113405117	-0.126936
C	-0.0738180741	-0.666404591	-1.1740474324	 0.02803
C	-0.0555929022	-2.0128380581	-1.2305431741	-0.283033
C	 0.0389240392	-2.8307985781	-0.0161475076	 0.385766
O	 0.0599792734	-4.0596637118	-0.0317654771	-0.415014
C	 0.0819672486	-2.0340651028	 1.1997236358	-0.351804
C	 0.0695657258	-0.6706796471	 1.1969390118	 0.428917
N	 0.2000781816	 0.1044270164	 2.3529005711	-0.585338
H	 0.1802722741	-0.4659363669	 3.1871054308	 0.261618
H	-0.4646454443	 0.8636700969	 2.4348476959	 0.252214
H	 0.8621868139	 1.854824729	 0.6249379941	 0.161581
H	 0.1985389102	 1.8318675914	-1.0222136063	 0.148213
H	-0.8973251107	 1.9305785641	 0.3632449477	 0.134484
H	-0.1437376196	-0.044478898	-2.0587119141	 0.123454
H	-0.1128774141	-2.5176434828	-2.1869828552	 0.107444
H	 0.1175648757	-2.5618969117	 2.1462705199	 0.089475
102.8059	151.1257	196.9313	232.1267	319.2889	358.7712	362.3595	428.9191	461.1429	518.2668	583.7118	629.904	713.2453	742.0807	761.2312	776.3102	824.8044	864.067	937.8707	948.6818	1045.6085	1131.0088	1148.353	1169.6274	1238.6592	1244.2393	1269.9495	1343.67	1426.8439	1468.2336	1485.7286	1495.1255	1528.8175	1595.8438	1652.78	1694.4733	1730.1546	3017.1441	3098.3149	3150.2352	3191.0802	3194.1917	3217.9285	3541.2103	3639.8688
CN1C=CC([O-])=CC1=[NH2+]	Cn1ccc(=O)cc1N	
InChI=1S/C6H8N2O/c1-8-3-2-5(9)4-6(8)7/h2-4,7,9H,1H3	InChI=1S/C6H8N2O/c1-8-3-2-5(9)4-6(8)7/h2-4H,7H2,1H3
