15
gdb 44715	3.17679	1.37472	1.19554	4.3608	64.28	-0.2606	-0.038	0.2226	1028.1568	0.113286	-457.822542	-457.815422	-457.814478	-457.854785	26.867	
O	-0.2508504339	 0.2031547589	 0.4881055697	-0.316127
C	-0.0758052527	 1.3078484767	 0.089923397	 0.456596
O	-0.9990251028	 2.1579770294	-0.4702939508	-0.253577
C	 0.0042732927	 3.2133150141	-0.6723680873	 0.106086
C	-0.2321245536	 4.4139389859	 0.2242960196	-0.340073
C	 0.4704896781	 4.0907820941	 1.5543227355	 0.385091
O	 0.2799919823	 4.6487505075	 2.5992116287	-0.287105
C	 1.4828380978	 2.9545940608	 1.3206447374	-0.339964
C	 1.0821152356	 2.3067404705	-0.0081195201	-0.241472
H	 0.0998044197	 3.4309732381	-1.7357105066	 0.107578
H	 0.2408554787	 5.3106732976	-0.1958523182	 0.141368
H	-1.2893878113	 4.6398853423	 0.3768102103	 0.157872
H	 2.4829607751	 3.3999950474	 1.2606321302	 0.14304
H	 1.487309418	 2.2647010585	 2.1673520563	 0.160891
H	 1.9151840963	 1.9663713385	-0.6219265117	 0.119797
65.3206	113.5341	213.7655	344.4033	445.8987	458.8047	479.925	589.7363	642.9873	717.0139	760.9281	776.3104	793.87	855.83	876.9467	928.6756	1023.7747	1032.3412	1060.3984	1088.1023	1141.0243	1145.5979	1172.2294	1216.0153	1255.902	1279.8281	1298.6883	1326.3969	1358.8813	1431.2249	1450.4832	1858.5272	1941.5668	3044.5594	3049.692	3116.6537	3118.4542	3123.4252	3129.1369
O=C1OC2CC(=O)CC12	O=C1O[C@H]2CC(=O)C[C@@H]12	
InChI=1S/C6H6O3/c7-3-1-4-5(2-3)9-6(4)8/h4-5H,1-2H2	InChI=1S/C6H6O3/c7-3-1-4-5(2-3)9-6(4)8/h4-5H,1-2H2/t4-,5+/m1/s1
