25
gdb 103752	2.75976	1.06368	0.92479	1.6208	89.36	-0.2518	0.0816	0.3334	1456.8313	0.225485	-389.495462	-389.484022	-389.483078	-389.531833	42.107	
C	-0.7636712778	 1.1526196428	 0.4917817389	-0.372726
C	 0.3412856522	 0.2527198297	-0.0785342844	-0.263849
C	 1.1012000867	-0.5024814184	 1.0100806223	 0.344727
C	 2.1451680815	 0.3529983884	 1.7088095899	-0.465704
O	 0.2846953487	-1.2967795218	 1.8936872308	-0.334942
C	 1.1943356523	-1.9884429876	 1.0147598832	 0.344726
C	 0.5231604583	-2.8217187225	-0.0646425661	-0.465703
C	 2.3418319776	-2.7206478082	 1.7076002283	-0.263858
C	 1.8497933858	-3.7154044658	 2.7679617419	-0.372722
H	-0.3621860879	 1.9269045862	 1.1532967541	 0.115745
H	-1.3077402508	 1.6557020438	-0.3130917112	 0.109304
H	-1.4742434469	 0.5554927478	 1.0695986253	 0.13548
H	-0.1019137881	-0.4414697537	-0.7954154904	 0.09841
H	 1.0632629616	 0.8569306427	-0.6422100602	 0.095829
H	 1.7386294188	 1.3463459071	 1.9240905499	 0.121955
H	 2.4554338703	-0.0849780656	 2.6575446377	 0.130402
H	 3.0284584313	 0.4893380397	 1.0746832732	 0.117899
H	-0.4561864026	-2.4235210908	-0.3301766756	 0.130405
H	 1.1440563091	-2.8685693374	-0.9664186843	 0.1179
H	 0.3752159409	-3.8480551424	 0.2862215244	 0.121952
H	 2.9231645449	-3.2474574878	 0.9404138816	 0.09583
H	 3.0270585554	-2.0121161993	 2.1773728782	 0.09841
H	 2.6945803725	-4.2006744707	 3.2657290644	 0.109304
H	 1.2545064298	-3.1958352441	 3.5236238547	 0.135481
H	 1.2254073162	-4.502886362	 2.3339973335	 0.115745
70.1946	72.4819	118.9111	134.606	153.832	214.9765	218.7135	253.6579	270.1709	317.7467	350.815	384.7205	402.9347	449.9997	492.1403	622.1693	692.8546	693.9719	785.2461	786.3679	870.2732	882.1761	946.8219	986.424	1001.2631	1003.3243	1048.309	1056.5274	1074.3825	1113.6749	1145.1499	1167.7914	1200.5673	1242.019	1289.0928	1312.4164	1357.32	1364.0851	1400.826	1404.9544	1407.9541	1408.3173	1444.3908	1478.5958	1483.0849	1484.4848	1493.2958	1499.0379	1502.5406	1505.8163	1507.7892	1516.9991	1517.1751	3033.9753	3034.7133	3038.4858	3040.2616	3041.8591	3043.1982	3092.998	3093.0551	3097.6703	3097.7584	3111.313	3112.1846	3122.6642	3123.0921	3144.8747	3144.9382
CCC1(C)OC1(C)CC	CC[C@@]1(C)O[C@]1(C)CC	
InChI=1S/C8H16O/c1-5-7(3)8(4,6-2)9-7/h5-6H2,1-4H3	InChI=1S/C8H16O/c1-5-7(3)8(4,6-2)9-7/h5-6H2,1-4H3/t7-,8-/m1/s1
