19
gdb 89874	3.41541	0.98251	0.85829	0.8156	82.98	-0.2395	0.0449	0.2844	1369.4695	0.157429	-385.828809	-385.819812	-385.818867	-385.86263	34.714	
O	 0.6679081823	 0.5692736827	-0.9712248386	-0.432228
C	-0.0090826196	-0.2749452468	-0.0786505925	 0.173596
C	 0.1781462678	-0.0881226457	 1.4561202158	-0.342758
C	-1.3205264496	-0.3665931955	 1.6063848046	 0.365588
C	-1.9308930122	-1.4429741021	 2.4420337834	-0.346906
C	-2.2248940771	 0.021567836	 2.7594030155	-0.273167
C	-1.6664187705	 0.6423705776	 3.9228734922	 0.335605
C	-1.1814200447	 1.178845747	 4.885044961	-0.465991
C	-1.5496643428	-0.1272997005	 0.1091104079	-0.34987
H	 0.4900663506	 1.4802059163	-0.7133717641	 0.27719
H	 0.2489735215	-1.2926117796	-0.3833700595	 0.09789
H	 0.8815357851	-0.7493226491	 1.9673097926	 0.107924
H	 0.426078929	 0.9496418809	 1.7095328194	 0.103274
H	-2.7467547754	-2.026883586	 2.0278529429	 0.117382
H	-1.2914914103	-1.9781974009	 3.1357755184	 0.126451
H	-3.2160921941	 0.3714578374	 2.4816574018	 0.1094
H	-0.7617458895	 1.6446371632	 5.7416456372	 0.194063
H	-1.8766958677	 0.8981531187	-0.1007955428	 0.097078
H	-2.1969894528	-0.8219381838	-0.4324981453	 0.105479
58.4692	111.7419	142.3563	260.4181	282.9544	324.991	340.3699	399.4091	429.4707	472.9778	519.1658	569.6556	614.2068	649.3401	721.262	788.1671	825.6543	869.604	900.5823	909.7084	961.4452	1007.8724	1029.6623	1059.0255	1072.5397	1079.9835	1117.682	1126.1336	1178.3555	1205.7229	1216.9281	1245.4125	1279.6532	1329.3817	1333.5569	1409.9332	1436.3054	1467.7824	1484.6804	1491.7084	2232.7176	3032.9397	3039.4552	3076.1971	3099.551	3107.4619	3126.8595	3135.2862	3218.4718	3505.426	3804.7784
OC1CC2(CC2C#C)C1	O[C@H]1C[C@]2(C[C@H]2C#C)C1	
InChI=1S/C8H10O/c1-2-6-3-8(6)4-7(9)5-8/h1,6-7,9H,3-5H2	InChI=1S/C8H10O/c1-2-6-3-8(6)4-7(9)5-8/h1,6-7,9H,3-5H2/t6-,7-,8+/m1/s1
