21
gdb 95956	2.47285	1.53617	1.15219	2.5806	77.44	-0.2333	0.0737	0.307	1144.3571	0.183279	-424.214096	-424.205514	-424.20457	-424.248045	32.528	
C	-0.1293604686	 1.584995383	-0.2837179246	-0.424168
C	 0.0542519575	 0.0784223855	-0.1259730778	-0.040702
C	 0.9723486539	-0.5592584191	-1.183238538	-0.100499
O	 1.4409481747	-1.7621554975	-0.5966731909	-0.242239
C	 1.7328372764	-1.4318874587	 0.7487622737	-0.136786
C	 0.6582600119	-0.4292460642	 1.2136110786	 0.407857
C	 1.0636559956	 0.5330263302	 2.3576930051	-0.354388
C	-0.0137705532	-0.1959057117	 3.1786044865	-0.069001
O	-0.3625616329	-1.0320014524	 2.0587547268	-0.314355
H	 0.8246299023	 2.1192673674	-0.210179367	 0.116455
H	-0.5614537467	 1.8191768557	-1.2624573408	 0.119279
H	-0.8048052909	 1.9915870228	 0.4754649671	 0.122203
H	-0.9235859517	-0.4123369571	-0.1840727646	 0.102046
H	 0.4609711575	-0.8110991301	-2.1157315611	 0.110953
H	 1.8158951958	 0.1143219776	-1.4212427466	 0.079249
H	 1.7251322005	-2.3448262831	 1.3486016651	 0.118991
H	 2.7290093342	-0.9600682126	 0.8213659583	 0.079772
H	 2.0895296066	 0.4114027029	 2.7122773226	 0.108555
H	 0.8768757652	 1.5913468718	 2.1735943566	 0.112875
H	 0.3550122107	-0.7801148946	 4.0308420247	 0.101592
H	-0.8616848089	 0.4151212142	 3.5105409362	 0.102312
44.1085	66.1922	230.5473	246.0531	266.9519	277.4951	343.5942	404.7555	461.5724	503.3383	615.3065	719.5757	783.7105	850.3553	878.7224	899.9215	923.3412	958.7953	981.176	982.3252	1029.3125	1043.0857	1079.7052	1117.0867	1129.7186	1160.0574	1162.1738	1197.4657	1207.2686	1229.5911	1238.8891	1271.4057	1279.3199	1316.965	1333.189	1355.5771	1372.7069	1401.0285	1414.1697	1487.9675	1491.5075	1499.7456	1505.7938	1515.3693	1531.1369	2937.2477	2947.0755	3015.3426	3029.4802	3048.9433	3053.8446	3078.0347	3092.5936	3097.4045	3102.0432	3105.0104	3135.0579
CC1COCC11CCO1	C[C@H]1COC[C@]21CCO2	
InChI=1S/C7H12O2/c1-6-4-8-5-7(6)2-3-9-7/h6H,2-5H2,1H3	InChI=1S/C7H12O2/c1-6-4-8-5-7(6)2-3-9-7/h6H,2-5H2,1H3/t6-,7-/m0/s1
