16
gdb 20572	4.54501	1.54669	1.22672	3.9067	66.2	-0.2419	0.0154	0.2573	969.0327	0.131755	-379.944084	-379.936311	-379.935367	-379.976743	28.497	
C	 0.1175785608	 1.3929119855	-0.4153419981	-0.382479
C	-0.0157951605	 0.0369736773	 0.2847647818	 0.05533
O	 0.3069909211	 0.1917411048	 1.6539516715	-0.445998
C	-1.3917308166	-0.5589647303	 0.1139693756	 0.335205
N	-2.0877004684	-0.8941461913	 1.1965503818	-0.314412
N	-3.242910757	-1.4018755773	 0.7258859684	-0.190243
C	-3.3008464623	-1.3988744745	-0.6267809305	-0.007878
C	-2.1124798659	-0.8583617441	-1.0669597789	-0.297555
H	 1.1203779672	 1.7935348733	-0.244062825	 0.123701
H	-0.0391833138	 1.2989695254	-1.4947596384	 0.10571
H	-0.6133703094	 2.0998353386	-0.0125742568	 0.121136
H	 0.7089179192	-0.6563390986	-0.176222377	 0.079248
H	-0.4007270672	-0.2302697102	 2.158384353	 0.293659
H	-3.9385111456	-1.7239516021	 1.3765849464	 0.277676
H	-4.1628770944	-1.7717083781	-1.1573201225	 0.139047
H	-1.8095668174	-0.7041010585	-2.0895776314	 0.107853
36.1909	162.0866	212.1216	241.6749	262.4531	350.2889	455.6366	486.5775	494.7006	651.1594	673.0153	743.9584	777.2826	846.8459	908.8008	948.1448	984.4187	1044.563	1075.8242	1100.8546	1109.7293	1151.8592	1215.9058	1267.0559	1309.0004	1362.982	1397.6655	1411.1454	1430.1609	1470.5555	1488.0447	1492.2629	1506.8413	1573.5061	2946.6359	3039.2256	3113.9897	3124.1832	3257.0354	3276.5407	3679.5955	3753.3357
CC(O)C1=NNC=C1	C[C@@H](O)c1n[nH]cc1	
InChI=1S/C5H8N2O/c1-4(8)5-2-3-6-7-5/h2-4,8H,1H3,(H,6,7)	InChI=1S/C5H8N2O/c1-4(8)5-2-3-6-7-5/h2-4,8H,1H3,(H,6,7)/t4-/m1/s1
