21
gdb 66478	2.86778	1.72123	1.36933	0.285	86.16	-0.2265	0.0974	0.3239	1041.5953	0.182889	-349.897022	-349.889231	-349.888287	-349.928597	32.198	
C	 0.0690540968	 1.5447451787	 0.0285400535	-0.526544
C	-0.0314784439	 0.0547479035	-0.0091484918	 0.352267
C	 0.8882146626	-1.0096966284	-0.5723330638	-0.128994
C	 0.5023226353	-1.0237447197	 0.911307556	-0.172225
C	-0.7867388341	-1.8849666526	 0.8646917602	 0.356371
C	-1.5863341451	-2.0792120005	 2.1271356757	-0.509275
C	-0.5139876846	-3.0229945994	-0.1573804389	-0.287058
C	-0.2548373637	-1.8711564875	-1.1565956898	-0.056164
C	-1.205153594	-0.9287213363	-0.3260109872	-0.167102
H	 1.0841834667	 1.8584442933	 0.297120379	 0.118806
H	-0.1674529999	 1.989592678	-0.9455755467	 0.117715
H	-0.6166679388	 1.9777062091	 0.7667745295	 0.116974
H	 1.9137652815	-0.9141252727	-0.9068635776	 0.077261
H	 1.2310960829	-0.9414713847	 1.7090932931	 0.07311
H	-1.7825890665	-1.120952575	 2.6219382099	 0.115044
H	-2.5514016922	-2.5548580485	 1.9204588908	 0.111301
H	-1.0489592805	-2.7147820999	 2.8419188046	 0.114161
H	 0.2949882652	-3.7317757505	 0.0496662939	 0.085761
H	-1.4329307103	-3.5690934505	-0.3988799044	 0.0893
H	-0.3199108722	-1.9983335934	-2.2364760554	 0.059786
H	-2.2337549751	-0.6894074529	-0.5895037107	 0.059506
175.3638	206.1677	225.1355	250.1575	272.6597	302.3441	428.9233	564.2164	567.1271	578.303	749.1787	768.8583	800.7759	826.2904	836.1407	855.0264	862.7595	886.2932	919.816	937.3505	966.756	1004.6901	1029.1463	1040.6906	1051.4607	1083.3432	1103.9223	1107.6695	1158.4703	1169.2228	1183.2538	1199.7406	1226.7784	1246.3319	1257.0334	1276.2708	1337.5367	1408.6688	1413.0809	1452.6515	1483.1329	1486.6614	1491.9393	1492.8242	1497.3885	3015.4675	3017.3888	3031.6185	3073.3453	3078.4733	3085.5427	3086.308	3089.4445	3118.2402	3133.1575	3177.2673	3190.9736
CC12C3C1C1(C)CC3C21	C[C@@]12[C@H]3[C@@H]1[C@]1(C)C[C@H]3[C@H]21	
InChI=1S/C9H12/c1-8-3-4-5-7(8)9(5,2)6(4)8/h4-7H,3H2,1-2H3	InChI=1S/C9H12/c1-8-3-4-5-7(8)9(5,2)6(4)8/h4-7H,3H2,1-2H3/t4-,5-,6+,7-,8-,9+/m1/s1
