16
gdb 48269	2.42532	1.11906	0.80779	3.7369	70.	-0.2811	-0.0549	0.2262	1357.6021	0.121906	-437.876042	-437.866878	-437.865933	-437.911562	31.286	
O	-0.3339261211	 0.5192941201	-0.6641950452	-0.224557
C	 0.1831395353	 1.0493032497	 0.2784875713	 0.157038
C	 1.3246780183	 2.0803689214	 0.1457233043	-0.248511
C	 1.4385144083	 2.6481409539	-1.283888676	-0.230703
C	 2.7656065146	 3.3133258587	-1.5502398102	 0.081914
C	 2.8832571946	 4.4908413443	-2.4178420865	-0.17952
O	 2.9592018157	 4.6145630949	-0.9968153876	-0.218645
C	 1.1671797217	 3.0983217907	 1.1850284901	 0.280765
N	 0.9859404539	 3.8620089435	 2.032866853	-0.305714
H	-0.105711633	 0.8160772699	 1.3235005946	 0.122006
H	 2.2397737405	 1.5139109596	 0.3856561406	 0.155925
H	 1.2947274899	 1.8113172057	-1.9744215371	 0.139846
H	 0.6247540944	 3.3577614042	-1.4576175774	 0.130798
H	 3.6376743311	 2.6613026203	-1.4593741704	 0.095975
H	 3.8118702209	 4.6756726771	-2.9551997568	 0.122116
H	 1.9887225851	 4.9099557359	-2.8764973765	 0.121266
46.1717	69.8229	83.3653	158.7896	174.1661	220.2068	278.8237	389.6797	431.4271	518.4342	565.9137	628.7593	773.4969	817.7418	861.2853	894.1196	957.1415	1007.5845	1028.1059	1086.4419	1105.2449	1127.9255	1163.0607	1170.5638	1230.4634	1243.2669	1296.5179	1322.6189	1343.5148	1415.3888	1451.1946	1470.701	1533.3657	1841.7668	2360.5327	2932.9321	2988.6643	3062.8837	3080.2902	3088.3018	3114.5352	3175.3755
O=CC(CC1CO1)C#N	O=C[C@@H](C[C@H]1CO1)C#N	
InChI=1S/C6H7NO2/c7-2-5(3-8)1-6-4-9-6/h3,5-6H,1,4H2	InChI=1S/C6H7NO2/c7-2-5(3-8)1-6-4-9-6/h3,5-6H,1,4H2/t5-,6-/m0/s1
