22
gdb 13138	3.80224	1.11215	0.94559	1.6664	78.64	-0.2393	0.0859	0.3252	1329.7215	0.199475	-350.198107	-350.188641	-350.187697	-350.233129	33.874	
C	-0.2437297466	 1.5051279394	 0.0225834852	-0.38329
C	-0.0357564876	-0.0105044644	-0.0221357031	-0.163305
C	 0.7901248031	-0.4683668614	-1.2312751711	-0.184592
C	 0.9448287764	-1.9789403749	-1.278914202	 0.142635
O	-0.3247392316	-2.6582681194	-1.4558437283	-0.294552
C	 0.1692781456	-3.3999685687	-2.5871976218	-0.07321
C	 1.5349122397	-2.6793233275	-2.5392191448	-0.055027
C	 1.9092977169	-1.838172647	-3.7529853258	-0.407196
H	 0.7128574204	 2.0377355067	 0.0746297428	 0.109891
H	-0.7689747912	 1.8592166536	-0.8715575389	 0.113578
H	-0.836308604	 1.8005243242	 0.8941490828	 0.111335
H	 0.4596715115	-0.3421582535	 0.900092958	 0.091227
H	-1.004971021	-0.5207943532	-0.0507849955	 0.119651
H	 0.3099312573	-0.1185816139	-2.1528230156	 0.094447
H	 1.789140791	-0.0113898779	-1.197428745	 0.089825
H	 1.425021151	-2.3201868222	-0.3487218724	 0.065043
H	 0.193060113	-4.4800449737	-2.3924089758	 0.095353
H	-0.4295670405	-3.2183629317	-3.4898483788	 0.095256
H	 2.3629019475	-3.3477379024	-2.2881491206	 0.076028
H	 1.0873694933	-1.1874154216	-4.0665309935	 0.122803
H	 2.7813282501	-1.2069946255	-3.5522963454	 0.118309
H	 2.1589437356	-2.4851694151	-4.6010260804	 0.115792
45.0722	90.6574	95.5248	123.4203	222.5302	243.7082	265.4256	323.9205	362.8445	442.1629	510.0123	731.639	756.3233	825.1026	874.1576	892.1564	900.1667	922.5934	956.0094	1019.7426	1038.8215	1054.8187	1073.7513	1122.9065	1132.9965	1158.2779	1176.2737	1194.326	1256.0968	1263.5024	1284.3165	1305.4693	1328.8751	1357.8931	1378.88	1386.2178	1408.1481	1413.0458	1417.692	1470.5475	1492.8751	1497.2789	1498.703	1499.7445	1509.6717	1530.1093	2975.346	3001.9495	3011.7298	3020.8629	3027.0279	3032.357	3039.2807	3056.3215	3067.3874	3071.7573	3095.5264	3096.1374	3100.1842	3109.1948
CCCC1OCC1C	CCC[C@H]1OC[C@H]1C	
InChI=1S/C7H14O/c1-3-4-7-6(2)5-8-7/h6-7H,3-5H2,1-2H3	InChI=1S/C7H14O/c1-3-4-7-6(2)5-8-7/h6-7H,3-5H2,1-2H3/t6-,7-/m1/s1
