16
gdb 30637	4.56771	1.12087	0.90515	1.9079	74.04	-0.2206	-0.0135	0.207	1243.7988	0.125331	-437.957047	-437.948896	-437.947952	-437.990381	29.348	
C	 0.0339513363	 1.360034032	 0.0100087463	-0.237971
O	-0.0322821324	-0.0722760589	 0.0036934643	-0.248939
C	-1.2766634809	-0.5750802603	 0.0103614355	 0.55508
O	-2.2912590385	 0.0730716567	 0.020815948	-0.393049
N	-1.2424906158	-1.9697292927	 0.0035467932	-0.128401
C	-0.124309342	-2.7982007727	-0.0085050202	-0.068069
C	-0.5647337809	-4.0889573332	-0.0115844331	-0.179427
C	-1.9994667107	-4.06178197	-0.000970878	-0.181279
C	-2.388721642	-2.7552687312	 0.0082027134	-0.057251
H	 1.0961479664	 1.6029315921	 0.0023259501	 0.139387
H	-0.4605407671	 1.7709351379	-0.873226057	 0.147767
H	-0.4456507151	 1.7623810051	 0.905325842	 0.147719
H	 0.8634051141	-2.3731405476	-0.0136220394	 0.141392
H	 0.0629616802	-4.966926332	-0.0204143868	 0.106157
H	-2.6597887798	-4.9152506712	-0.0002772478	 0.107077
H	-3.3540614118	-2.2797305038	 0.0175522396	 0.149808
89.6051	98.7071	128.0913	179.1768	199.1567	327.408	423.4254	531.5218	607.8683	617.9416	716.5122	768.0124	781.5579	809.1344	847.8678	878.427	878.6932	946.533	1012.8695	1061.9814	1097.2889	1107.7124	1182.5572	1198.3135	1226.9331	1282.3117	1345.8103	1369.0499	1438.8217	1481.2005	1482.1951	1499.8118	1511.9175	1593.0211	1829.2671	3056.4413	3133.9502	3165.0485	3246.5156	3259.8601	3297.1859	3304.1761
COC(=O)N1C=CC=C1	COC(=O)n1cccc1	
InChI=1S/C6H7NO2/c1-9-6(8)7-4-2-3-5-7/h2-5H,1H3	InChI=1S/C6H7NO2/c1-9-6(8)7-4-2-3-5-7/h2-5H,1H3
