20
gdb 77497	1.93546	1.75039	1.2795	3.0613	76.	-0.2418	0.0675	0.3094	1106.9557	0.169322	-440.229586	-440.220199	-440.219255	-440.262856	36.161	
C	 0.0145350049	 1.4775903961	 0.0083759248	-0.526158
C	-0.024832858	-0.0201971841	 0.0730050084	 0.226895
N	 0.6465284192	-0.9017872543	-0.976213596	-0.425391
C	 0.0260588219	-1.8903989988	 0.0128627106	 0.255674
C	 0.1485632545	-3.3758518751	-0.1447519776	-0.524958
C	 0.6396068529	-0.9703491135	 1.1195808677	 0.139961
O	 2.0233952378	-0.9359603185	 1.2602359299	-0.460061
C	-1.2370662842	-1.0028965705	 0.0467352358	 0.056959
O	-2.0795146409	-1.1547120114	 1.1616944262	-0.43875
H	 1.0470775449	 1.8341018242	 0.0779999032	 0.137383
H	-0.416760707	 1.8545936204	-0.9257103178	 0.117003
H	-0.5484518886	 1.9103845736	 0.8424511579	 0.122758
H	 0.1068100628	-0.8901880855	-1.8486062228	 0.20182
H	 1.1985318997	-3.6786244259	-0.0842619408	 0.132691
H	-0.4027935033	-3.8846341493	 0.6521482396	 0.136641
H	-0.2536878768	-3.7137219082	-1.1060667326	 0.117046
H	 0.1807012138	-1.0158514349	 2.1047572668	 0.096889
H	 2.3638067998	-0.8993526815	 0.3537094901	 0.286678
H	-1.7973744265	-0.988782364	-0.9008834806	 0.059614
H	-2.7343052967	-0.4495867589	 1.1492836372	 0.287307
185.053	186.7451	190.9833	194.9619	207.2815	222.8351	250.2726	259.2662	367.558	418.1755	513.8428	591.251	593.091	594.3242	676.6534	681.5411	793.0315	809.1836	869.4821	900.279	923.5055	1041.6947	1065.3148	1096.3102	1119.867	1126.3298	1166.0217	1171.2429	1178.3711	1205.1397	1229.8699	1281.846	1322.5673	1329.8584	1357.0987	1405.4926	1407.8029	1427.6328	1482.0492	1484.8361	1486.6117	1486.8276	1490.7993	2985.9551	3028.7709	3033.3763	3095.0201	3100.9874	3105.7914	3112.9985	3152.5359	3372.6219	3722.92	3820.0093
CC12NC(C)(C1O)C2O	C[C@@]12N[C@@](C)([C@H]1O)[C@H]2O	
InChI=1S/C6H11NO2/c1-5-3(8)6(2,7-5)4(5)9/h3-4,7-9H,1-2H3	InChI=1S/C6H11NO2/c1-5-3(8)6(2,7-5)4(5)9/h3-4,7-9H,1-2H3/t3-,4-,5-,6+
