17
gdb 37303	2.94706	2.19994	1.84213	2.023	74.11	-0.2068	0.014	0.2208	813.2439	0.140013	-380.809411	-380.803542	-380.802598	-380.839264	25.5	
N	-0.0405663301	 1.4854227253	-0.0513260287	-0.320546
C	 1.2714475751	 0.8207582078	-0.0116871128	-0.041344
C	 0.0273136656	 0.0065965359	 0.0040753569	-0.049198
C	-0.051090117	-0.6980853333	-1.3794399154	-0.096736
C	-0.8415000333	 0.1611854246	-2.3436820913	-0.053376
C	-0.0078315982	 0.977347028	-2.9850579446	-0.063434
C	 1.4004012737	 0.5881583106	-2.6973132222	-0.083139
C	 1.9819081186	 0.5126180758	-1.3047164083	-0.034892
N	 1.3603848541	-0.679214864	-1.9335708489	-0.117389
H	-0.2542237442	 1.8402636948	 0.8793274145	 0.22999
H	 1.8935742418	 0.9460576099	 0.8692577752	 0.088445
H	-0.332372192	-0.5042151588	 0.8915599205	 0.089411
H	-0.3979044883	-1.7281876183	-1.2725724269	 0.078715
H	-1.922153365	 0.2306134243	-2.3247059542	 0.097856
H	-0.2752732706	 1.7866882312	-3.6516177012	 0.100204
H	 2.1184041795	 0.628051355	-3.5156831737	 0.088317
H	 3.0671654904	 0.4779869212	-1.235259259	 0.087116
198.1438	276.6062	453.601	483.8693	587.6089	660.9747	690.9652	706.2033	747.338	778.8939	796.5147	807.896	849.1388	873.161	901.8932	919.1399	929.1571	948.3295	983.4899	1005.045	1011.3236	1074.04	1100.307	1123.6419	1125.7208	1150.6491	1165.6731	1211.1323	1239.6485	1277.5884	1294.914	1325.5277	1357.2309	1375.7786	1392.398	1428.284	1669.7547	3081.3429	3107.0106	3124.9177	3151.942	3163.4632	3202.0342	3228.8638	3477.5883
N1C2C1C1C=CC3C2N13	N1[C@H]2[C@@H]1[C@H]1C=C[C@H]3[C@@H]2N13	
InChI=1S/C7H8N2/c1-2-4-7-6-5(8-6)3(1)9(4)7/h1-8H	InChI=1S/C7H8N2/c1-2-4-7-6-5(8-6)3(1)9(4)7/h1-8H/t3-,4+,5+,6+,7+,9?/m1/s1
