21
gdb 121315	3.11219	1.01894	0.83333	3.7292	79.97	-0.2275	0.0658	0.2932	1449.7074	0.184532	-420.465516	-420.456088	-420.455144	-420.500853	34.023	
C	 0.0096999556	 1.513617298	 0.0315033253	-0.377585
C	 0.0975217736	-0.0146401518	 0.0383196774	-0.179576
C	 0.6800864333	-0.5626664859	-1.2730519918	-0.155397
N	 0.7740835975	-2.0066057868	-1.3349541831	-0.101278
C	 1.6611327714	-2.7971619673	-0.500892658	-0.165544
C	 1.3617574775	-4.2296183998	-0.9906741794	-0.173553
N	-0.0151355313	-4.0918548634	-1.4466584473	-0.3565
C	-0.2668702841	-2.7735325931	-1.8263297471	 0.448556
O	-1.2231845264	-2.3756029204	-2.4586225816	-0.429007
H	 0.9979049199	 1.9689108661	-0.1003836853	 0.112907
H	-0.6296031109	 1.8687026392	-0.7840013964	 0.123556
H	-0.4068333089	 1.8914283924	 0.9698055932	 0.115522
H	 0.7127174018	-0.3431568507	 0.8855116543	 0.093359
H	-0.8986213712	-0.448247254	 0.1839937011	 0.117612
H	 0.0428616926	-0.2644912176	-2.1107600078	 0.139004
H	 1.6780317969	-0.1379140356	-1.4457405165	 0.094455
H	 2.7099335337	-2.5179863297	-0.6453179263	 0.111856
H	 1.4247793289	-2.6924721562	 0.5685695125	 0.108599
H	 2.0449663602	-4.5100699577	-1.8055416374	 0.107642
H	 1.4570774008	-4.9679503995	-0.1902063188	 0.115965
H	-0.425006691	-4.7983965463	-2.0376344371	 0.249405
41.5764	75.6733	93.3085	189.1692	222.2659	236.6788	275.9066	306.6763	364.2322	526.4473	547.3631	663.8837	729.1507	748.4625	765.2816	801.649	878.6028	898.9688	913.3303	958.5011	1039.6215	1062.0547	1097.9936	1118.2573	1134.599	1174.6812	1217.4901	1243.1289	1253.0024	1294.7983	1311.1839	1332.2997	1339.0607	1362.9844	1407.2746	1416.0478	1431.8138	1452.0982	1475.3149	1490.8223	1501.1685	1508.3085	1528.6032	1534.3339	1827.0344	2986.8722	2996.6055	3016.4525	3027.2961	3031.4286	3063.3478	3063.8084	3084.5862	3093.8349	3103.2101	3107.5535	3634.188
CCCN1CCNC1=O	CCCN1CCNC1=O	
InChI=1S/C6H12N2O/c1-2-4-8-5-3-7-6(8)9/h2-5H2,1H3,(H,7,9)	InChI=1S/C6H12N2O/c1-2-4-8-5-3-7-6(8)9/h2-5H2,1H3,(H,7,9)
