19
gdb 26374	2.64527	1.33769	1.10267	3.391	77.11	-0.1887	0.0421	0.2308	1183.1676	0.159725	-419.275402	-419.26631	-419.265366	-419.309578	33.917	
C	 0.0025613588	 1.5485185833	-0.0158023886	-0.385155
C	-0.027726282	 0.0172845671	 0.0568706998	 0.035071
C	 0.7764597908	-0.5244891895	 1.2445471151	-0.385184
N	-1.3983309469	-0.4856049401	 0.0713957468	-0.096336
C	-2.3781410697	-0.2643502371	 1.0385466112	-0.11207
C	-3.4963520517	-0.9129409327	 0.6552021617	-0.098509
N	-3.209766953	-1.53877692	-0.5546445629	-0.367572
C	-1.9027900788	-1.2913543239	-0.9477833681	 0.468176
O	-1.3262961259	-1.6821860115	-1.9483976883	-0.451601
H	 1.0340541773	 1.9025678857	-0.1044593968	 0.120222
H	-0.5607654068	 1.9077986312	-0.881093776	 0.130336
H	-0.4281940262	 1.9995101027	 0.8850943917	 0.11259
H	 0.3864564362	-0.3914677043	-0.8697800131	 0.126718
H	 0.7550881805	-1.6173645863	 1.2623225401	 0.130292
H	 1.8193048851	-0.2009164589	 1.1741414801	 0.120234
H	 0.37765743	-0.1582056695	 2.1970961826	 0.112591
H	-2.1935357278	 0.3345050819	 1.9132762788	 0.135429
H	-4.4601348964	-0.9853096769	 1.127656225	 0.137796
H	-3.8301468334	-2.103573001	-1.1061707691	 0.266971
41.8263	102.1779	193.5164	223.1628	227.4257	256.841	299.5116	388.4402	431.2655	458.7804	575.095	609.3613	627.2248	650.5641	757.3368	766.0996	777.0387	880.4335	911.7326	934.2295	949.8197	1064.1739	1075.6048	1114.7425	1147.1642	1172.1171	1199.0782	1240.779	1284.586	1365.7053	1384.5117	1400.5175	1416.0154	1422.0579	1451.7492	1484.1281	1489.3386	1500.8926	1507.3322	1632.3712	1815.4633	3034.1122	3037.7355	3073.5573	3100.7133	3111.5184	3120.1401	3122.7187	3279.0143	3300.7304	3700.6928
CC(C)N1C=CNC1=O	CC(C)n1cc[nH]c1=O	
InChI=1S/C6H10N2O/c1-5(2)8-4-3-7-6(8)9/h3-5H,1-2H3,(H,7,9)	InChI=1S/C6H10N2O/c1-5(2)8-4-3-7-6(8)9/h3-5H,1-2H3,(H,7,9)
