17
gdb 79346	3.30617	1.52295	1.42419	2.045	65.62	-0.2274	0.0694	0.2969	950.4379	0.137443	-458.947145	-458.940118	-458.939174	-458.978092	29.201	
O	 0.0360406859	 1.3910033356	 0.0952143549	-0.449464
C	 0.0150186027	-0.014372798	 0.048118514	 0.171056
C	-1.3642244406	-0.6195825769	-0.2131055485	-0.195944
C	-1.4451325054	-0.6586738553	-1.7303171049	-0.009665
O	-0.2282044441	-0.1435965675	-2.2578668823	-0.27742
C	 0.6756163901	-0.6041090643	-1.2266504544	 0.000971
C	 0.368663203	-2.1065056691	-1.114018893	-0.305808
C	-1.1421008283	-1.9246845127	-0.9617373107	 0.353888
O	-2.0299750393	-2.9752920909	-0.8083732116	-0.472032
H	-0.2439859822	 1.6906225391	-0.7793991099	 0.287075
H	 0.4848482239	-0.3750134412	 0.9663756447	 0.093385
H	-2.224942805	-0.4484911239	 0.4176959276	 0.104352
H	-2.32876313	-0.4727577236	-2.3236489407	 0.110064
H	 1.6894749466	-0.2845129949	-1.4562751602	 0.089644
H	 0.6414394951	-2.6607712384	-2.0180584172	 0.100588
H	 0.838639079	-2.5710385077	-0.2431116663	 0.113174
H	-2.0775693512	-3.4542517804	-1.6438892313	 0.286135
187.1485	266.445	275.7846	320.7513	387.1529	434.8765	444.4655	516.2333	567.1387	617.752	725.3109	743.9632	811.5163	865.6	891.354	912.1237	941.9721	953.0385	966.9162	975.6195	1025.4198	1045.2732	1062.8874	1095.1153	1139.5843	1147.8877	1210.8165	1232.5581	1241.8054	1272.2649	1295.8107	1299.4198	1324.1376	1339.8693	1433.3922	1444.2848	1494.1611	3051.456	3091.0708	3108.5471	3156.0929	3221.9196	3230.457	3774.4962	3786.5131
OC1C2C3OC1CC23O	O[C@H]1[C@H]2[C@H]3O[C@@H]1C[C@@]23O	
InChI=1S/C6H8O3/c7-4-2-1-6(8)3(4)5(6)9-2/h2-5,7-8H,1H2	InChI=1S/C6H8O3/c7-4-2-1-6(8)3(4)5(6)9-2/h2-5,7-8H,1H2/t2-,3+,4-,5-,6-/m1/s1
