19
gdb 47593	2.44827	1.73854	1.1674	1.9286	75.64	-0.2367	-0.019	0.2177	1071.9925	0.161063	-423.040325	-423.032715	-423.031771	-423.072598	29.827	
O	 0.0427500743	-0.0935425805	-0.2917782063	-0.318789
C	 0.0038680409	 1.1087064968	-0.1570871183	 0.369958
C	-1.3057409306	 1.881168045	-0.0758523093	-0.307878
C	-1.1858724966	 3.2362963311	-0.7900499631	-0.092243
O	-0.1334695234	 3.9979016773	-0.2264907138	-0.261427
C	 1.1450364771	 3.4575398303	-0.5029977174	 0.099973
C	 2.0957101523	 3.8230148864	 0.6539089912	-0.236859
C	 1.7610634953	 2.4583550011	 1.3151806068	-0.236429
C	 1.2538717773	 1.9555790713	-0.0812601649	-0.098681
H	-2.1062590567	 1.2616085712	-0.4889341347	 0.121343
H	-1.5360043312	 2.0708387534	 0.9804297092	 0.13098
H	-1.0256864687	 3.0893523071	-1.8706925253	 0.09751
H	-2.0988158505	 3.8249818206	-0.6659902189	 0.116258
H	 1.4468724884	 3.7015313471	-1.5310418653	 0.069583
H	 3.1355349981	 3.8741313259	 0.3212136575	 0.107719
H	 1.8420429141	 4.7344019602	 1.1980121924	 0.113899
H	 2.5762153898	 1.8879735052	 1.7623348606	 0.113652
H	 0.9489119446	 2.5442679873	 2.04002184	 0.116382
H	 2.0578797053	 1.4403944832	-0.6116547804	 0.095049
80.6505	140.8991	212.8113	284.8637	349.3589	410.1299	459.4861	466.0527	561.3967	651.2195	730.9876	734.5936	820.7298	857.7999	894.2471	908.8521	939.2161	950.2891	966.8289	1017.4167	1054.4782	1096.085	1106.4182	1133.0763	1205.1771	1210.1222	1242.4096	1251.8516	1253.8773	1269.9348	1282.0495	1295.4361	1314.0623	1332.9983	1369.7017	1406.7668	1450.119	1470.3888	1489.2366	1506.4323	1805.8704	2976.023	3002.555	3035.6973	3070.6786	3078.016	3089.9112	3090.3851	3106.054	3125.261	3139.7647
O=C1CCOC2CCC12	O=C1CCO[C@H]2CC[C@@H]12	
InChI=1S/C7H10O2/c8-6-3-4-9-7-2-1-5(6)7/h5,7H,1-4H2	InChI=1S/C7H10O2/c8-6-3-4-9-7-2-1-5(6)7/h5,7H,1-4H2/t5-,7-/m0/s1
