22
gdb 64261	2.57535	1.59853	1.53606	0.3566	80.95	-0.2086	0.0774	0.2859	1032.533	0.195387	-404.310641	-404.302448	-404.301504	-404.34257	33.787	
C	-0.2216097778	 1.595693352	 0.0932985378	-0.434061
C	 0.0000107773	 0.0782597385	-0.0046510374	 0.282287
C	-1.36369978	-0.6211992215	 0.0775260822	-0.421268
C	 0.7069726785	-0.3117777729	-1.3454477846	-0.112777
O	 2.1277355716	-0.4189257174	-1.233350993	-0.280275
C	 2.5662818073	-0.8513986594	 0.0485809992	 0.124063
C	 1.4868843911	-1.6889947298	 0.764886868	-0.215916
N	 0.817690781	-0.3869247091	 1.157525971	-0.147191
C	 2.2050437912	 0.2218820807	 1.0862559852	-0.191844
H	 0.666490449	 2.1705250586	-0.1803814217	 0.120986
H	-1.025183775	 1.8984543485	-0.5850784952	 0.112962
H	-0.5109842481	 1.8690265359	 1.1124655945	 0.124502
H	-1.976365445	-0.3783043293	-0.797592208	 0.110285
H	-1.2577877237	-1.7093625965	 0.1194852845	 0.112511
H	-1.8979324579	-0.2996114089	 0.9756173599	 0.122972
H	 0.3025158387	-1.2673588149	-1.7087173426	 0.089141
H	 0.5156082896	 0.4345027168	-2.1227010088	 0.106638
H	 3.5910979404	-1.2137817936	-0.0695562145	 0.072679
H	 0.8863574436	-2.3937003812	 0.1870798443	 0.108152
H	 1.8679039109	-2.1900089894	 1.6589118414	 0.1084
H	 2.701587214	 0.0927281562	 2.0531261604	 0.101509
H	 2.2709326033	 1.2633461466	 0.7728817475	 0.106247
128.8291	220.4449	247.2707	267.53	319.7782	351.103	390.3973	428.5126	465.7199	471.4502	491.6685	575.3065	725.6147	811.8944	828.4517	874.3762	890.5896	909.0786	928.5307	943.698	955.0923	981.268	1003.6841	1027.9571	1042.2302	1087.111	1106.7571	1164.7036	1190.7575	1226.5467	1230.9174	1245.8496	1252.4373	1265.1655	1297.0001	1305.2492	1357.7929	1394.7576	1403.5051	1420.4565	1476.3397	1485.5517	1489.4844	1497.7851	1504.7141	1517.1295	1528.4372	2991.3657	3033.8311	3041.2692	3051.7897	3061.0328	3071.3483	3076.087	3100.7219	3109.5585	3115.4864	3119.0936	3123.9063	3140.3994
CC1(C)COC2CN1C2	CC1(C)CO[C@@H]2CN1C2	
InChI=1S/C7H13NO/c1-7(2)5-9-6-3-8(7)4-6/h6H,3-5H2,1-2H3	InChI=1S/C7H13NO/c1-7(2)5-9-6-3-8(7)4-6/h6H,3-5H2,1-2H3
