17
gdb 127336	4.70528	1.10645	0.93905	2.8902	76.76	-0.2141	0.016	0.2301	1248.9515	0.138016	-414.18292	-414.174812	-414.173868	-414.216525	29.062	
C	-0.3495663687	 1.2935561161	 0.1350576802	-0.318034
N	-0.0227323275	-0.0978891873	-0.0718300218	 0.063507
C	 0.4760991038	-0.7119240309	-1.1589803361	 0.006125
N	 0.6390570494	-2.0035086962	-0.9385102406	-0.326296
C	 0.2087265627	-2.1340134715	 0.3494550337	 0.387917
N	-0.2104588203	-1.0101849395	 0.9221389286	-0.33345
N	 0.2818022243	-3.3410109583	 1.0324732842	-0.13189
C	-0.8568716058	-3.7845930539	 1.823545475	-0.218644
C	-0.4929603008	-4.4800873826	 0.5540414712	-0.21858
H	 0.2469619656	 1.7057813402	 0.9532900295	 0.154305
H	-0.1345456722	 1.8445149663	-0.7825132511	 0.141367
H	-1.4092541775	 1.4011521111	 0.381908209	 0.15148
H	 0.7025197283	-0.1866662663	-2.0754557683	 0.138318
H	-0.6102020472	-4.2290608711	 2.7828955399	 0.121926
H	-1.7408128862	-3.1528076847	 1.8197171122	 0.130231
H	-1.1322079989	-4.322365821	-0.3103827352	 0.128459
H	 0.024860161	-5.4339264505	 0.5772693596	 0.123257
46.6645	112.2256	135.0224	184.6645	219.9013	341.7207	394.8935	543.873	557.9728	636.1848	724.6245	779.9503	819.3462	852.0034	919.9819	933.6211	1023.247	1037.5297	1050.4514	1082.531	1124.1584	1131.0101	1153.8871	1173.6453	1179.447	1227.0215	1282.1006	1327.6727	1358.3088	1451.9892	1461.3065	1471.1674	1496.1313	1516.4902	1522.4133	1529.993	1579.0508	3049.2627	3114.7683	3116.7062	3118.3706	3143.496	3197.7552	3211.2125	3248.3795
CN1C=NC(=N1)N1CC1	Cn1cnc(n1)N1CC1	
InChI=1S/C5H8N4/c1-8-4-6-5(7-8)9-2-3-9/h4H,2-3H2,1H3	InChI=1S/C5H8N4/c1-8-4-6-5(7-8)9-2-3-9/h4H,2-3H2,1H3
