21
gdb 89436	2.86507	1.63419	1.4061	1.6159	80.69	-0.2197	0.0872	0.3069	1038.1954	0.183037	-387.071871	-387.063868	-387.062923	-387.103748	32.694	
C	-0.1289296219	 1.5749094424	 0.0147252486	-0.395232
C	 0.0215775663	 0.0489915505	 0.0007118087	 0.008078
C	 0.8151276233	-0.4959653072	-1.2285516931	-0.253368
C	 2.1525399796	-0.9494856664	-0.6427278688	 0.421802
C	 3.1250919507	-1.6616561559	-1.5466971251	-0.480573
O	 2.7653245062	 0.250086666	-0.0246499916	-0.339917
C	 2.2948712011	-0.1915957836	 1.247267339	 0.094111
C	 0.8094617193	-0.4946551496	 1.1988648735	-0.089089
C	 1.8294471297	-1.5255233759	 0.7628479471	-0.212382
H	 0.852316363	 2.0537137297	-0.0370022089	 0.136122
H	-0.7258637242	 1.920217446	-0.8363855929	 0.10555
H	-0.6296477288	 1.91217686	 0.9289635947	 0.104268
H	-0.9787049567	-0.3988525429	 0.0136191839	 0.067011
H	 0.3005758876	-1.3475778912	-1.6888079611	 0.091688
H	 0.9630763734	 0.2656047163	-2.0008614083	 0.101772
H	 3.4013569108	-1.0200997958	-2.3896558786	 0.127187
H	 4.036739004	-1.9234914668	-1.0030461848	 0.126549
H	 2.6783117555	-2.5789417381	-1.9451130001	 0.116367
H	 2.8420892901	 0.1214849318	 2.1291265084	 0.097556
H	 0.3145035934	-0.6228294989	 2.1563180849	 0.082189
H	 1.9644790278	-2.5356084903	 1.1249672544	 0.090311
131.3086	207.1795	225.9144	243.8284	288.183	334.6153	391.3911	441.317	513.3504	600.9902	673.8128	721.0002	764.8631	798.171	818.7954	852.6998	863.0222	912.5274	927.5223	942.1743	984.8633	1017.5912	1035.7187	1044.6531	1052.0641	1065.0082	1094.437	1131.0893	1156.5947	1199.8423	1221.1404	1224.6424	1259.7592	1306.3067	1310.4255	1354.1448	1365.6787	1396.4415	1405.5771	1410.2899	1476.1252	1482.1989	1491.6041	1495.4963	1508.1072	3024.1112	3030.2682	3035.4786	3041.8035	3085.6155	3092.2109	3105.9246	3117.9834	3123.477	3164.0333	3177.0684	3203.553
CC1CC2(C)OC3C1C23	C[C@H]1C[C@@]2(C)O[C@H]3[C@@H]1[C@@H]23	
InChI=1S/C8H12O/c1-4-3-8(2)6-5(4)7(6)9-8/h4-7H,3H2,1-2H3	InChI=1S/C8H12O/c1-4-3-8(2)6-5(4)7(6)9-8/h4-7H,3H2,1-2H3/t4-,5-,6+,7-,8+/m0/s1
