14
gdb 20988	3.48322	2.19421	1.36119	3.8274	59.35	-0.2036	0.0433	0.2468	845.8876	0.109007	-412.085785	-412.078005	-412.077061	-412.117755	27.746	
C	-0.0858639116	 1.469536401	 0.0194339265	-0.355583
N	-0.0112235037	 0.0271240659	 0.0410571783	-0.145958
C	-0.0390281752	-0.764460084	-1.1254142548	 0.458637
O	-0.0650919707	-0.3762835191	-2.2760626417	-0.43576
N	-0.0348455421	-2.0292831611	-0.6055167837	-0.316617
N	-0.0022844199	-2.0741494386	 0.7839620942	-0.302384
C	-0.0027178997	-0.819381423	 1.1225434059	 0.432359
N	-0.0797072807	-0.345351654	 2.4207584368	-0.59055
H	 0.8472563793	 1.930679168	 0.3627322724	 0.130373
H	-0.2554084677	 1.7584288404	-1.0198965127	 0.1765
H	-0.911719053	 1.824408766	 0.642706826	 0.146304
H	-0.0627280662	-2.8804576747	-1.1363148922	 0.277524
H	-0.0049630944	-1.1061373005	 3.0846892111	 0.267505
H	 0.5907357755	 0.3833382938	 2.6335834537	 0.25765
128.9002	132.47	170.7048	254.7335	261.3818	291.4529	349.9417	441.556	578.4702	626.8826	669.0546	742.2738	759.9529	775.5971	819.2732	980.1169	1056.5745	1160.4479	1184.0248	1223.874	1239.186	1334.1254	1393.1003	1431.5251	1495.055	1511.7763	1542.7739	1622.5765	1687.6011	1841.1501	3030.264	3095.0384	3142.5284	3532.8786	3630.3349	3710.8098
CN1C(=O)NN=C1N	Cn1c(=O)[nH]nc1N	
InChI=1S/C3H6N4O/c1-7-2(4)5-6-3(7)8/h1H3,(H2,4,5)(H,6,8)	InChI=1S/C3H6N4O/c1-7-2(4)5-6-3(7)8/h1H3,(H2,4,5)(H,6,8)
