14
gdb 123971	3.84663	1.61077	1.14421	4.2615	69.21	-0.2181	-0.0151	0.203	972.6279	0.104231	-432.866415	-432.859727	-432.858783	-432.897913	25.492	
C	 0.0224281702	 1.4915811361	-0.0432368315	-0.26535
N	 1.3631914712	 2.0773118364	 0.0447221486	-0.257665
C	 2.3826020348	 1.3436338643	 0.2383214899	 0.082247
N	 2.4214378262	-0.035319347	 0.3957338126	-0.449953
C	 1.2383040567	-0.7308318871	 0.2057225266	 0.183959
C	 0.8630966922	-2.0335958663	 0.1662408535	-0.038573
O	-0.4684770135	-2.1046250819	-0.0640253421	-0.175261
N	-0.986054977	-0.8162153347	-0.1777086545	-0.218606
C	 0.0305137025	-0.0119074846	-0.0153214408	 0.330494
H	-0.5816521843	 1.8862966156	 0.7847228272	 0.140101
H	-0.4582942218	 1.8575736581	-0.9584321364	 0.14152
H	 3.36430841	 1.8110910018	 0.3084244263	 0.119989
H	 3.3089444392	-0.5075722957	 0.4139149275	 0.259523
H	 1.3795242637	-2.9733852149	 0.272087623	 0.147576
59.9292	236.4056	286.9322	344.7543	416.139	493.353	538.5039	593.5599	620.7729	692.6835	748.2345	774.919	901.0845	911.6589	937.4192	942.8877	976.3148	1018.5614	1105.0124	1120.2272	1233.0827	1246.6172	1284.7202	1338.6584	1403.8916	1433.1625	1478.8462	1498.0063	1541.623	1699.1931	1738.4803	3016.7284	3044.7712	3138.7865	3275.3724	3660.6689
C1N=CNC2=CON=C12	C1N=CNc2conc12	
InChI=1S/C5H5N3O/c1-4-5(2-9-8-4)7-3-6-1/h2-3H,1H2,(H,6,7)	InChI=1S/C5H5N3O/c1-4-5(2-9-8-4)7-3-6-1/h2-3H,1H2,(H,6,7)
