21
gdb 59364	2.50824	1.20915	1.10528	3.3952	74.48	-0.2449	0.0541	0.299	1235.2423	0.180141	-461.343429	-461.3332	-461.332256	-461.378798	37.612	
C	 0.4680989511	 0.2055479611	-0.903284815	-0.418687
C	 0.0262267328	-0.2043177926	 0.5000974902	 0.120205
O	-0.1934494847	 0.9467887949	 1.3171137917	-0.439005
C	-1.2361404932	-1.0682839933	 0.5640916255	 0.110951
O	-2.3364527497	-0.4967235077	-0.1892187368	-0.326451
C	-2.6196509999	-1.7588139203	-0.844288052	 0.133557
C	-2.6550851092	-1.6507786796	-2.353932045	-0.413015
C	-1.3781455909	-2.4182691146	-0.1731274175	 0.002554
O	-0.2813346847	-2.7386675094	-0.9993595212	-0.411144
H	 1.3112423589	 0.8968448374	-0.8255294741	 0.11402
H	 0.7644939009	-0.6643915111	-1.4908268552	 0.137567
H	-0.3517049075	 0.7114144585	-1.4230633735	 0.116662
H	 0.8313178935	-0.7584783526	 0.9973256266	 0.092141
H	-0.9263381533	 1.4308603823	 0.9181818963	 0.28565
H	-1.5074003521	-1.1524756707	 1.6249273045	 0.081381
H	-3.566220185	-2.1717731541	-0.4671402493	 0.071381
H	-1.6838266454	-1.3476381135	-2.750118219	 0.136605
H	-2.9317948605	-2.6124985881	-2.8011254084	 0.10782
H	-3.4057820266	-0.9132996416	-2.6539067346	 0.129285
H	-1.6202687843	-3.2579423881	 0.4890989325	 0.077346
H	-0.4466689603	-3.5946297571	-1.4063722056	 0.291176
52.1976	59.2796	182.7727	198.5323	228.918	243.8668	254.0131	267.8314	298.352	366.9001	386.7787	418.5086	511.3023	567.6815	614.7289	778.087	803.2083	857.8173	895.3668	913.3985	971.3635	994.0052	1014.7723	1060.2656	1099.2415	1108.2999	1142.7705	1156.8527	1181.3715	1204.6831	1264.2929	1292.8634	1300.7149	1327.8611	1348.0863	1374.2196	1386.2075	1399.297	1410.0116	1423.3923	1437.8437	1484.2585	1488.5615	1493.6345	1510.8372	2996.0218	3010.6071	3032.903	3038.4054	3047.0594	3049.682	3103.6301	3119.2182	3136.6499	3149.0851	3790.7898	3823.4003
CC(O)C1OC(C)C1O	C[C@@H](O)[C@H]1O[C@@H](C)[C@H]1O	
InChI=1S/C6H12O3/c1-3(7)6-5(8)4(2)9-6/h3-8H,1-2H3	InChI=1S/C6H12O3/c1-3(7)6-5(8)4(2)9-6/h3-8H,1-2H3/t3-,4+,5-,6-/m1/s1
