21
gdb 68243	2.78833	1.77271	1.40788	1.8553	80.88	-0.2426	0.0785	0.3211	1004.8422	0.185025	-387.064898	-387.057642	-387.056698	-387.09605	30.507	
C	 0.0373519147	 1.5289936957	 0.0982497153	-0.503337
C	 0.063877111	 0.0178337431	 0.0691141756	 0.33214
C	 0.8410317413	-0.7970591237	-1.0266087736	-0.262218
C	 0.7529491863	-1.9409263901	 0.0337543458	-0.055192
C	 0.8936306155	-0.8196110728	 1.0946991961	-0.272328
C	-0.7623198197	-2.1928347033	 0.0185696971	 0.138667
O	-1.3898986843	-2.4503326107	 1.2983423422	-0.304166
C	-2.0002672169	-1.1384858812	 1.313898202	-0.113586
C	-1.2860401555	-0.7333666777	 0.0100739353	-0.090233
H	 1.049976622	 1.9456837927	 0.104920325	 0.113808
H	-0.4859770299	 1.933806006	-0.7759634195	 0.114069
H	-0.4792571295	 1.8984688194	 0.991862821	 0.117155
H	 0.3545108123	-0.9464314399	-1.9967985582	 0.08802
H	 1.8629279719	-0.4384306405	-1.1713192312	 0.097139
H	 1.4163540972	-2.805101806	 0.0129420767	 0.063003
H	 1.919913973	-0.4518651017	 1.1680757692	 0.090726
H	 0.4895267117	-1.0041352316	 2.0912609254	 0.109287
H	-1.0922945003	-2.9042076455	-0.7451802108	 0.070111
H	-3.0920964429	-1.2073260181	 1.2298122173	 0.098561
H	-1.7481081932	-0.5722644208	 2.2194797681	 0.097689
H	-1.9233083049	-0.3964677234	-0.8094636188	 0.070685
179.9779	218.3857	245.3405	309.3309	318.2966	424.2139	477.3522	543.3022	574.4198	664.5048	773.7743	822.6242	846.3826	861.2397	868.9033	903.1703	916.0742	963.8586	978.1035	996.5897	1011.4652	1024.4362	1033.2266	1058.5492	1070.9816	1074.7659	1131.7467	1156.9827	1173.691	1193.3686	1218.9127	1226.4038	1247.9822	1266.7716	1276.6765	1303.8015	1332.9711	1354.2276	1361.5054	1414.0775	1486.3696	1492.3049	1494.831	1518.0776	1525.8966	3008.9896	3022.0456	3041.155	3049.5878	3054.9881	3071.5106	3083.9579	3093.1139	3093.9065	3110.1818	3120.4572	3130.9098
CC12CC(C1)C1OCC21	C[C@@]12C[C@@H](C1)[C@H]1OC[C@@H]21	
InChI=1S/C8H12O/c1-8-2-5(3-8)7-6(8)4-9-7/h5-7H,2-4H2,1H3	InChI=1S/C8H12O/c1-8-2-5(3-8)7-6(8)4-9-7/h5-7H,2-4H2,1H3/t5-,6-,7-,8+/m1/s1
