15
gdb 49051	2.092	1.75776	1.3053	1.107	66.86	-0.2565	-0.0547	0.2019	1002.047	0.110588	-457.744545	-457.736527	-457.735583	-457.778011	28.542	
O	-0.7711959809	 0.824120559	-0.4493764051	-0.238523
C	 0.1388129559	 0.9874732491	 0.3245013029	 0.049015
C	 1.3210356645	 1.8544481305	 0.0443704761	 0.066355
C	 1.498255776	 3.1980408884	 0.8142030001	-0.124301
O	 1.776593509	 3.9041517076	-0.4097774321	-0.283323
C	 1.5636451739	 2.7274470345	-1.2173280209	 0.063442
C	 2.8823363737	 1.9819360846	-1.5321682985	-0.357998
C	 2.7083060955	 1.194808871	-0.2196546554	 0.34397
O	 3.3523220205	 0.3867820366	 0.3757258618	-0.278367
H	 0.1582602206	 0.4816957691	 1.3146742493	 0.096372
H	 0.5735477271	 3.5541485593	 1.2843735032	 0.126016
H	 2.3194434253	 3.2472542956	 1.53738402	 0.128495
H	 0.8327900759	 2.8733081869	-2.0116405093	 0.111584
H	 2.7977382782	 1.3099213678	-2.3944292925	 0.149178
H	 3.784330325	 2.58952248	-1.6311396097	 0.148085
56.3944	90.7276	152.7806	195.2931	240.8486	356.8086	395.5134	505.4246	580.9322	637.5148	665.0644	776.9412	827.2022	915.7146	939.3268	962.2151	994.342	1011.4626	1035.2586	1082.278	1120.6598	1127.8998	1164.0258	1181.9733	1217.3897	1280.4515	1312.3077	1357.0422	1412.555	1419.6072	1524.103	1807.19	1895.8632	2894.2199	3021.0083	3051.3836	3075.5143	3125.8376	3131.5648
O=CC12COC1CC2=O	O=C[C@]12CO[C@H]1CC2=O	
InChI=1S/C6H6O3/c7-2-6-3-9-5(6)1-4(6)8/h2,5H,1,3H2	InChI=1S/C6H6O3/c7-2-6-3-9-5(6)1-4(6)8/h2,5H,1,3H2/t5-,6+/m0/s1
