23
gdb 95064	2.72308	1.46669	1.16969	1.4896	84.27	-0.2374	0.079	0.3164	1165.8978	0.208599	-388.298693	-388.290616	-388.289672	-388.330752	33.186	
C	 0.0788406787	 1.5903832165	 0.0524487644	-0.40488
C	-0.002406828	 0.0585895469	 0.0065489689	 0.057769
C	 0.5638118965	-0.4753615417	-1.3255719599	-0.201298
C	 0.187034997	-1.9287045048	-1.6707150227	-0.218644
C	 0.4487962663	-2.9458072993	-0.5637643114	 0.122637
C	 1.7241395657	-2.7196770464	 0.2722815039	-0.277197
C	 0.7539170893	-2.0687277209	 1.2816385602	 0.10178
C	 0.6750914396	-0.5376754577	 1.2597052817	-0.215012
O	-0.3785146029	-2.6743362937	 0.6018722511	-0.294422
H	 1.1167176355	 1.9343059034	-0.0364877969	 0.108829
H	-0.4912176972	 2.0422168299	-0.766093088	 0.108583
H	-0.318942377	 1.9834986087	 0.994142489	 0.108855
H	-1.0596539885	-0.2301252902	 0.0506311162	 0.087204
H	 0.200801358	 0.1647694805	-2.1389192714	 0.091024
H	 1.6561362805	-0.3563587918	-1.3276132122	 0.091273
H	-0.8825338228	-1.981712339	-1.9114617071	 0.10631
H	 0.7268589746	-2.2403846752	-2.5748519308	 0.09073
H	 0.2788600391	-3.964621624	-0.9299055378	 0.071358
H	 2.1539565451	-3.6505095576	 0.6462503229	 0.104402
H	 2.5149725623	-2.099100093	-0.152436097	 0.100347
H	 0.8335360239	-2.4339862897	 2.3114688688	 0.071936
H	 1.6942770429	-0.1382095173	 1.3652312187	 0.090942
H	 0.1201004014	-0.1936579637	 2.1410929695	 0.097474
126.5728	211.9891	238.8301	294.3447	313.3015	319.8238	373.3825	390.4362	416.8956	560.3408	596.9607	742.5361	803.9914	824.8191	849.1559	874.1903	906.8797	916.4417	941.1658	959.4073	976.7011	1000.5906	1017.6465	1054.5731	1090.6104	1108.4009	1129.2062	1147.2774	1165.3112	1181.4948	1232.7621	1255.1317	1267.5508	1291.6498	1317.1639	1329.0776	1346.667	1359.4037	1374.2698	1389.5497	1398.0902	1401.8556	1414.2227	1469.2069	1476.71	1484.7771	1497.3618	1500.4885	1506.545	3004.5837	3008.2687	3014.5869	3021.4015	3030.9544	3038.27	3041.7848	3047.2258	3054.9187	3061.1251	3079.1328	3088.0519	3096.9551	3131.3662
CC1CCC2CC(C1)O2	C[C@H]1CC[C@H]2C[C@@H](C1)O2	
InChI=1S/C8H14O/c1-6-2-3-7-5-8(4-6)9-7/h6-8H,2-5H2,1H3	InChI=1S/C8H14O/c1-6-2-3-7-5-8(4-6)9-7/h6-8H,2-5H2,1H3/t6-,7-,8+/m0/s1
