24
gdb 105231	1.67238	1.47844	1.11358	1.9869	85.6	-0.2308	0.0849	0.3156	1315.3444	0.21531	-405.523215	-405.512443	-405.511498	-405.558688	40.459	
C	 1.1979679143	-0.327739264	 1.2692985055	-0.381326
C	 0.251399079	 0.1109997217	 0.1439023218	-0.264211
C	 0.7452102516	-0.2813788017	-1.2422267818	 0.318509
C	 0.5977494453	-1.6963360701	-1.6991979036	-0.301397
N	-0.1907042441	-0.6383093825	-2.3223851494	-0.130075
C	-1.6313643662	-0.6431156447	-2.1113857649	-0.319249
C	 1.861567599	 0.631234352	-1.7753499654	 0.096765
C	 2.7601557384	 0.0092529965	-2.8428420983	-0.420831
O	 1.2564139429	 1.8293374172	-2.2552050986	-0.442717
H	 1.3041305043	-1.4174559817	 1.2918405698	 0.115605
H	 2.198993172	 0.0995298635	 1.1527055995	 0.122155
H	 0.816812438	-0.0065012001	 2.2435757941	 0.114151
H	-0.7363249719	-0.3194667826	 0.3317944361	 0.093094
H	 0.127515486	 1.2004182262	 0.1619569569	 0.11689
H	 1.3428284592	-2.1793791271	-2.3248826555	 0.111794
H	 0.0737647075	-2.3739906797	-1.0237159355	 0.100725
H	-1.9561393079	-1.128584736	-1.1790609868	 0.105997
H	-2.0079336468	 0.3848811557	-2.1125144826	 0.124615
H	-2.1014372259	-1.1772647345	-2.9436597531	 0.124519
H	 2.4857897722	 0.9501425775	-0.9331388033	 0.079223
H	 3.3503847456	-0.820199891	-2.4399975972	 0.109017
H	 2.1634877419	-0.3615326668	-3.682705618	 0.12567
H	 3.4473263581	 0.7709271403	-3.2200481387	 0.11975
H	 0.6046071076	 1.5320743418	-2.9041445009	 0.281328
58.256	92.9173	159.3423	169.8248	200.0139	227.2921	241.7152	287.8703	298.4326	318.8934	384.0404	436.3155	465.4343	510.0712	519.7163	581.229	677.7616	782.4662	824.2945	858.0405	906.58	925.213	993.7867	1012.6256	1038.	1061.9741	1090.0474	1106.388	1114.4875	1129.9573	1152.9722	1180.6471	1210.5637	1240.0735	1287.6413	1300.2609	1354.3798	1375.2925	1390.3893	1408.2539	1411.6153	1427.9581	1450.9834	1481.5633	1489.7564	1491.263	1499.7077	1501.0751	1505.3262	1509.1913	1519.6581	2987.6756	3034.4353	3035.9556	3040.3798	3047.9754	3066.2271	3079.2868	3082.885	3099.9935	3104.6168	3107.978	3109.2602	3120.757	3172.3858	3758.8497
CCC1(CN1C)C(C)O	CC[C@]1(CN1C)[C@@H](C)O	
InChI=1S/C7H15NO/c1-4-7(6(2)9)5-8(7)3/h6,9H,4-5H2,1-3H3	InChI=1S/C7H15NO/c1-4-7(6(2)9)5-8(7)3/h6,9H,4-5H2,1-3H3/t6-,7+,8?/m1/s1
