19
gdb 36686	4.93394	0.7447	0.71206	2.168	81.2	-0.2527	0.0563	0.309	1592.1782	0.15769	-385.815696	-385.80687	-385.805926	-385.849927	33.071	
C	 0.0005334974	-1.2428579633	-0.063864753	-0.435144
C	-0.0036530961	-0.0442990557	 0.0275843601	 0.293111
C	 0.0242300313	 1.4095148669	 0.1298883712	-0.356056
C	 1.4256350874	 2.0040785873	-0.1220943422	-0.194798
C	 1.4444389113	 3.5238209302	-0.0199996868	-0.012346
C	 1.2418241508	 4.2021207002	 1.3925907953	-0.272053
C	 2.6212026761	 4.8505915806	 1.2238576706	 0.035656
O	 3.5684143914	 3.7879604883	 1.0610317073	-0.24312
C	 2.8216088999	 4.211543979	-0.0855095938	 0.00054
H	-0.0058856768	-2.3016009391	-0.1413321311	 0.192751
H	-0.6897044937	 1.8385826523	-0.5861282703	 0.12545
H	-0.3285489074	 1.7112753635	 1.1247789034	 0.132118
H	 2.1355556884	 1.5871589455	 0.5985315357	 0.127085
H	 1.7666405182	 1.6966668699	-1.118008677	 0.107098
H	 0.7588219935	 3.9707825819	-0.7487923074	 0.075939
H	 0.4165856224	 4.9176817467	 1.4030511135	 0.107126
H	 1.1566557184	 3.5322256287	 2.2524206553	 0.110985
H	 2.9939177473	 5.7883668777	 1.6189074337	 0.105155
H	 3.3884965601	 4.5250062394	-0.9551397144	 0.100502
62.1374	91.9705	101.8786	189.1518	226.4451	342.4268	351.1007	416.7681	484.339	589.4654	615.4322	634.1909	723.8588	765.0818	819.493	841.3466	872.9509	888.3519	926.7672	967.9656	971.6196	1007.5783	1027.4029	1054.2103	1079.0629	1113.0638	1148.8974	1206.6396	1225.1797	1239.4643	1240.612	1268.1485	1290.0658	1314.6957	1356.3273	1381.2903	1400.2475	1470.3338	1476.073	1496.8716	2239.0489	3013.0743	3036.2905	3044.6363	3045.9769	3063.5447	3097.1822	3121.5149	3176.2329	3193.4999	3507.955
C#CCCC1CC2OC12	C#CCC[C@H]1C[C@H]2O[C@@H]12	
InChI=1S/C8H10O/c1-2-3-4-6-5-7-8(6)9-7/h1,6-8H,3-5H2	InChI=1S/C8H10O/c1-2-3-4-6-5-7-8(6)9-7/h1,6-8H,3-5H2/t6-,7+,8-/m0/s1
