19
gdb 72749	2.56059	1.70164	1.51297	2.4094	74.76	-0.2357	0.0723	0.3079	976.9756	0.159128	-422.971006	-422.963097	-422.962153	-423.003182	31.212	
O	-0.0769179044	 1.4451241355	 0.0830741631	-0.483103
C	-0.039195318	 0.0506870869	-0.0120100327	 0.357294
C	 0.4087230153	-0.7200877805	 1.2799527508	-0.282245
C	-1.0483045764	-1.2600160749	 1.4683099784	-0.343473
C	-1.3792859907	-0.7457203751	 0.0713561505	 0.283745
C	-2.6281319264	-0.3139445547	-0.6784451592	-0.182195
O	-2.0892665407	-0.8350062009	-1.9242663662	-0.294865
C	-0.9658856207	-1.4470978968	-1.252730108	 0.084223
C	 0.3366093243	-0.6149416476	-1.3667463827	-0.321862
H	 0.8210881164	 1.7829453005	-0.0090278034	 0.279317
H	 1.1626007897	-1.4932339886	 1.1098793412	 0.098264
H	 0.7538801336	-0.0527963637	 2.0721929139	 0.105591
H	-1.168961255	-2.3326021251	 1.6436407779	 0.101187
H	-1.5839276677	-0.7184595791	 2.2535558009	 0.111863
H	-3.5476243808	-0.8430892749	-0.3915664186	 0.097225
H	-2.8263325511	 0.7626993876	-0.7271001567	 0.116177
H	-0.9270143895	-2.5308986237	-1.4024491408	 0.068838
H	 0.2966728548	 0.0706145738	-2.2166588284	 0.113254
H	 1.2764560072	-1.1753896085	-1.3822657202	 0.090765
95.39	184.1026	200.1473	211.7469	319.0715	384.8636	401.4269	468.9357	517.4783	603.842	668.2598	734.9592	771.7439	829.1614	864.2795	886.4199	928.4883	937.9009	967.2338	990.1582	1010.2474	1032.8491	1098.4225	1118.5176	1163.6197	1167.2676	1184.3482	1191.6473	1221.0617	1236.9463	1241.248	1252.6411	1270.441	1301.1286	1313.6107	1368.9471	1374.6639	1455.0031	1465.8276	1488.6486	1513.8477	3000.9989	3044.6557	3050.8768	3056.613	3062.3707	3063.3205	3097.325	3116.6957	3125.1185	3794.4398
OC12CCC11COC1C2	O[C@@]12CC[C@]31CO[C@H]3C2	
InChI=1S/C7H10O2/c8-7-2-1-6(7)4-9-5(6)3-7/h5,8H,1-4H2	InChI=1S/C7H10O2/c8-7-2-1-6(7)4-9-5(6)3-7/h5,8H,1-4H2/t5-,6-,7+/m0/s1
