17
gdb 78824	3.56903	1.35152	1.15929	5.1365	76.17	-0.2507	0.0204	0.2711	1074.4748	0.136754	-380.804001	-380.796499	-380.795555	-380.835902	29.17	
C	-0.0100109194	 1.59945958	 0.0549389405	-0.430086
C	 0.0941045657	 0.0883993764	-0.0467633921	 0.065366
C	 0.8031280692	-0.6194380528	-1.1923685658	-0.119811
C	 2.285212534	-0.7332731854	-0.7802170504	-0.074614
C	 1.2539846322	-1.671204509	-0.2289715599	-0.020768
N	 1.0109590644	-0.664541446	 0.9238506529	-0.181862
C	 2.3804717749	-0.081663469	 0.5948810613	-0.148733
C	 3.4093695048	-0.6727743622	 1.4474053791	 0.30319
N	 4.2479989897	-1.1238798027	 2.1017514784	-0.326498
H	 0.9054719492	 2.1147681783	-0.2464319026	 0.124712
H	-0.8129770442	 1.9557396041	-0.5985412988	 0.126865
H	-0.256628068	 1.8945756021	 1.0804125036	 0.138178
H	-0.8949621273	-0.3557428364	 0.104715748	 0.095418
H	 0.5101281363	-0.7392416098	-2.2284506923	 0.101841
H	 3.0711036685	-0.9313388242	-1.4968602486	 0.113867
H	 1.1578673645	-2.7440546624	-0.1589622072	 0.116954
H	 2.4467787756	 1.007006429	 0.6754695739	 0.115982
123.7926	161.7001	178.6725	245.9013	291.9552	419.351	510.2307	535.7523	562.1777	707.4044	789.381	803.148	814.1424	853.5109	869.0153	892.2573	906.4	955.7162	1016.6418	1023.9241	1034.0136	1037.4672	1056.2502	1098.6391	1134.2766	1152.7672	1170.3354	1229.1263	1254.8974	1291.2655	1346.8848	1363.5204	1398.8429	1413.5647	1489.2592	1503.8253	2362.3047	3039.2313	3055.2406	3073.5626	3105.7578	3120.3986	3188.6055	3207.9544	3239.176
CC1C2C3C2N1C3C#N	C[C@H]1[C@H]2[C@@H]3[C@H]2N1[C@H]3C#N	
InChI=1S/C7H8N2/c1-3-5-6-4(2-8)9(3)7(5)6/h3-7H,1H3	InChI=1S/C7H8N2/c1-3-5-6-4(2-8)9(3)7(5)6/h3-7H,1H3/t3-,4-,5-,6+,7-/m0/s1
