18
gdb 70950	3.37133	1.38066	1.1797	3.5133	78.12	-0.2462	0.0028	0.249	1082.5513	0.147728	-401.856925	-401.849392	-401.848448	-401.888549	30.481	
C	 0.1341916674	 1.5546559703	 0.0230451188	-0.503965
C	 0.0433771062	 0.0532046897	-0.0143260011	 0.30041
C	 0.6305676689	-0.9106978346	-1.1661981287	-0.329925
C	-0.0690777976	-1.8089364648	-0.1043939835	 0.317733
C	 0.6082182688	-0.9557026892	 1.0077480668	-0.297057
N	-0.9487594841	-2.9291114235	 0.2353508954	-0.424002
C	-1.9194609351	-2.0073843832	 0.7402508477	 0.336229
O	-2.867328899	-2.1771334675	 1.4447931793	-0.321279
C	-1.2571110542	-0.8535127168	-0.113805727	-0.207777
H	 1.1798207643	 1.8818141505	 0.0118786251	 0.122875
H	-0.3717120122	 2.0034504623	-0.8378441747	 0.12502
H	-0.3335603626	 1.944754087	 0.9325609023	 0.132539
H	 0.1580303736	-0.8375507828	-2.1475158298	 0.109367
H	 1.7213182988	-0.9546245533	-1.237949369	 0.099245
H	 1.695982377	-1.0203209841	 1.0900118561	 0.090723
H	 0.1236418985	-0.9719205529	 1.9880945043	 0.106027
H	-0.6749477314	-3.7623070195	 0.7462427958	 0.242373
H	-1.7890768174	-0.7736273977	-1.066350038	 0.101465
145.5288	191.8101	211.639	262.6721	364.7383	430.539	478.785	541.0002	560.5468	575.3505	625.4959	672.7756	740.0034	766.4709	826.8609	898.7844	926.3959	953.7546	966.5089	997.7138	1014.6228	1044.4913	1066.6254	1103.4536	1127.6942	1134.8248	1162.5077	1189.3889	1201.3761	1234.8619	1277.735	1311.8406	1349.3201	1408.1042	1484.0879	1488.7993	1492.3003	1533.756	1891.3101	3030.6725	3049.3577	3054.8308	3066.0489	3098.9779	3105.9582	3118.6527	3131.8996	3534.3991
CC12CC3(C1)NC(=O)C23	C[C@@]12C[C@]3(C1)NC(=O)[C@@H]23	
InChI=1S/C7H9NO/c1-6-2-7(3-6)4(6)5(9)8-7/h4H,2-3H2,1H3,(H,8,9)	InChI=1S/C7H9NO/c1-6-2-7(3-6)4(6)5(9)8-7/h4H,2-3H2,1H3,(H,8,9)/t4-,6-,7-/m0/s1
