18
gdb 32237	2.55132	1.59446	0.99089	2.5313	85.48	-0.1891	0.0028	0.1919	1179.2536	0.150957	-398.191586	-398.18332	-398.182376	-398.224164	31.848	
C	 0.0017924324	 1.4421244543	 0.0095978208	-0.308064
N	-0.0608583096	-0.0104226029	 0.0540461703	-0.370354
C	 0.5972668081	-0.6851073669	 1.0733860977	 0.36132
N	 1.1108048618	 0.0106921948	 2.0805680491	-0.347749
C	 1.7313525595	-0.6583279004	 3.0645313878	-0.028871
C	 1.8777705392	-2.0335322878	 3.0739612425	-0.133472
C	 1.316939085	-2.7663066164	 2.0216984353	-0.151161
C	 0.6538198992	-2.1035892501	 1.0047623423	 0.208764
N	 0.0786924912	-2.7422057406	-0.1111534394	-0.609486
H	 1.0279912473	 1.8273926054	-0.0625268144	 0.121192
H	-0.5744831135	 1.7882769291	-0.8521320191	 0.111132
H	-0.4380425476	 1.8558897873	 0.9189316536	 0.145861
H	 0.0535814971	-0.4627934646	-0.8434369272	 0.241843
H	 2.1342339133	-0.0499150805	 3.8700643289	 0.096003
H	 2.4004311194	-2.5308030758	 3.8825624506	 0.08834
H	 1.3853169327	-3.8507837989	 2.003031854	 0.084485
H	 0.0575086912	-3.7499768838	-0.0178781017	 0.242381
H	-0.8571433868	-2.3996620921	-0.3041444512	 0.247837
118.6993	154.085	192.6871	212.5595	309.4973	318.6283	343.252	470.2511	517.0474	523.1445	585.8886	596.7506	666.6103	765.5559	786.0382	803.116	842.4543	888.2121	928.9712	954.2774	1068.1132	1088.2236	1098.7718	1148.6674	1151.5354	1175.8531	1246.6049	1294.5507	1329.5591	1388.4572	1452.8574	1461.5064	1478.805	1501.0913	1510.0394	1538.3823	1617.2836	1631.773	1661.6026	3011.5869	3092.9197	3135.5471	3156.59	3161.6584	3201.7297	3503.7845	3570.6297	3606.7224
CNC1=NC=CC=C1N	CNc1ncccc1N	
InChI=1S/C6H9N3/c1-8-6-5(7)3-2-4-9-6/h2-4H,7H2,1H3,(H,8,9)	InChI=1S/C6H9N3/c1-8-6-5(7)3-2-4-9-6/h2-4H,7H2,1H3,(H,8,9)
