18
gdb 129771	3.13763	1.51109	1.04724	3.1121	79.2	-0.1981	0.0352	0.2332	1125.8549	0.151758	-398.157718	-398.149853	-398.148908	-398.189903	30.421	
N	 0.1216833584	 1.407163875	 0.2511210384	-0.608445
C	-0.0509072216	 0.0259176154	 0.104533486	 0.158802
C	-1.1559233388	-0.7783123671	-0.0729968555	 0.216025
C	-2.6360185271	-0.7648874822	-0.3173581487	-0.372837
C	-3.0095669519	-2.2635846033	-0.0550635092	-0.196478
C	-1.7196862456	-3.1111556067	-0.2869815256	-0.333947
C	-0.6437809185	-2.0911185085	-0.0527831853	 0.337378
N	 0.6639929966	-2.1527496757	 0.1207134214	-0.351539
N	 1.0092454716	-0.8296495684	 0.2144653525	-0.243956
H	 0.8556177259	 1.7823370606	-0.3391396574	 0.248446
H	-0.7364819847	 1.9073693473	 0.0612924512	 0.253887
H	-3.2033791383	-0.0949321728	 0.338029473	 0.099396
H	-2.8806148515	-0.476077014	-1.3492511538	 0.101402
H	-3.3169880681	-2.3680889056	 0.9903931977	 0.10911
H	-3.8474078658	-2.5966554106	-0.6730735572	 0.094925
H	-1.6639294222	-3.9757764932	 0.3804039747	 0.113999
H	-1.6768130857	-3.4965338306	-1.3138076072	 0.111445
H	 1.9502565973	-0.5888272598	 0.475477785	 0.262388
137.0836	155.8471	176.5667	253.5277	261.6223	333.6355	429.711	520.2094	566.5807	609.934	656.8415	691.5464	718.2786	773.2955	802.4519	844.0042	897.5047	904.6788	992.1515	1053.5107	1061.3762	1087.0709	1135.3954	1151.7916	1208.7708	1219.2557	1240.046	1304.0825	1318.7483	1334.8158	1338.9885	1438.0327	1482.859	1489.0424	1506.9908	1508.8453	1554.1689	1639.3473	1676.4939	3002.2689	3025.043	3046.0368	3059.2058	3083.622	3102.9913	3525.0391	3623.1931	3671.6437
NC1=C2CCCC2=NN1	Nc1c2CCCc2n[nH]1	
InChI=1S/C6H9N3/c7-6-4-2-1-3-5(4)8-9-6/h1-3H2,(H3,7,8,9)	InChI=1S/C6H9N3/c7-6-4-2-1-3-5(4)8-9-6/h1-3H2,(H3,7,8,9)
