16
gdb 41076	4.11996	1.88676	1.68808	1.3127	70.33	-0.2346	0.0526	0.2872	813.4459	0.126307	-400.594866	-400.589244	-400.588299	-400.624486	24.356	
C	 0.0923981461	 1.4917300374	 0.1954145328	-0.208866
O	 1.4899100199	 1.3526671988	-0.2265394718	-0.308836
C	 1.1802725118	 0.0990588229	-0.9295710297	 0.107663
C	 1.5480045469	-1.2782967718	-0.362802149	-0.142154
C	 0.2530470501	-2.1108025488	-0.7150121967	-0.059481
C	-0.309064344	-2.026889783	 0.652064625	-0.059396
C	 0.7632762585	-0.9523311144	 0.9573614013	-0.105987
C	-0.0265524407	-0.0093213428	-0.0125758263	 0.329415
N	-0.9104018042	-1.1568854237	-0.4009466925	-0.231995
H	 0.0057273462	 1.8870323719	 1.2116422044	 0.114292
H	-0.4750005442	 2.1130341709	-0.5096517153	 0.113818
H	 1.1200527361	 0.2546400541	-2.0106189407	 0.083475
H	 2.505514065	-1.7934662409	-0.4285830511	 0.079867
H	 0.097098742	-2.833363143	-1.505396722	 0.104771
H	-0.8826325262	-2.723790662	 1.2512259377	 0.098981
H	 1.2042842364	-0.6585744256	 1.9037655739	 0.084433
261.9966	302.8827	379.9759	541.0942	551.371	696.5117	717.1977	776.0693	792.5412	835.7557	851.9641	873.7564	877.963	906.2126	916.4777	933.0884	945.3302	977.9453	1015.1095	1033.3396	1062.529	1077.3072	1116.9854	1144.6216	1154.3312	1164.9962	1185.106	1219.2435	1236.1495	1268.2676	1283.9691	1301.222	1319.8424	1344.0149	1511.2319	3017.9706	3068.7315	3091.6747	3124.873	3173.1144	3185.8403	3203.8208
C1OC2C3C4C5C3C12N45	C1O[C@H]2[C@@H]3[C@H]4[C@H]5[C@@H]3[C@@]12N45	
InChI=1S/C7H7NO/c1-7-3-2(6(7)9-1)4-5(3)8(4)7/h2-6H,1H2	InChI=1S/C7H7NO/c1-7-3-2(6(7)9-1)4-5(3)8(4)7/h2-6H,1H2/t2-,3+,4-,5+,6-,7-,8?/m0/s1
