19
gdb 66977	2.58027	1.65202	1.24675	2.8356	79.1	-0.2349	-0.0209	0.214	1057.4941	0.158739	-385.850507	-385.842462	-385.841518	-385.88311	31.083	
C	-0.089080325	 1.5209349903	 0.2883818447	-0.511118
C	-0.0364999308	 0.0411181717	 0.0494293929	 0.322844
C	-0.973600718	-0.9508155805	 0.7647442781	-0.106001
C	-1.0046871061	-2.2498092337	-0.0383564602	-0.238453
C	 0.4974014364	-1.9762531494	-0.3322055193	-0.082083
C	 0.5252091615	-1.0395000478	 0.945264585	-0.131498
C	 0.5066621376	-0.6896865746	-1.1983060598	-0.131186
C	-0.2244228355	-0.6121059397	-2.513316844	 0.132766
O	-0.7092376136	-1.5456388166	-3.1038207175	-0.248092
H	 0.8731661017	 1.9959671489	 0.064787363	 0.118903
H	-0.8538723618	 2.0075053489	-0.3278822158	 0.123959
H	-0.3277335062	 1.7357715798	 1.3356060283	 0.12418
H	-1.7031869281	-0.5841022334	 1.4764436718	 0.083428
H	-1.1182746435	-3.1108971372	 0.6263398856	 0.098689
H	-1.6792432959	-2.3464768645	-0.8916619879	 0.116489
H	 1.1837964886	-2.7903290449	-0.5503995321	 0.076992
H	 1.1637327995	-0.983648143	 1.8153425018	 0.090285
H	 1.5338007218	-0.3376048367	-1.3743717876	 0.090299
H	-0.2844322127	 0.4189697226	-2.9392562771	 0.069596
76.3945	163.1933	194.1574	223.7817	253.8446	299.3081	399.4508	485.844	580.3983	668.8452	694.2623	770.0811	817.3986	824.0494	841.2174	886.2523	915.942	941.305	987.0184	1001.8303	1007.7986	1033.6572	1063.2185	1074.737	1100.3246	1118.0186	1146.1842	1159.8907	1199.8217	1220.8925	1257.819	1263.0761	1303.6185	1355.1193	1407.6105	1420.3571	1432.7787	1488.3468	1499.7132	1507.8273	1820.6302	2835.1195	3007.1885	3022.4213	3060.6062	3081.7645	3092.9146	3119.1202	3148.4097	3187.4802	3217.2885
CC12C3CC(C13)C2C=O	C[C@]12[C@H]3C[C@H]([C@@H]13)[C@H]2C=O	
InChI=1S/C8H10O/c1-8-5-2-4(7(5)8)6(8)3-9/h3-7H,2H2,1H3	InChI=1S/C8H10O/c1-8-5-2-4(7(5)8)6(8)3-9/h3-7H,2H2,1H3/t4-,5-,6+,7+,8+/m0/s1
