20
gdb 9916	4.91598	0.97651	0.93372	1.9507	72.85	-0.2429	0.081	0.3239	1339.2308	0.174969	-386.119058	-386.109753	-386.108809	-386.153472	33.828	
C	 0.2221900393	 1.4893237406	 0.0104585177	-0.385842
C	-0.0249447704	-0.0063822406	-0.0873562771	-0.025078
O	 0.7891770645	-0.5331428169	-1.1168083712	-0.262835
C	 0.6219464457	-1.9253986793	-1.3225703972	-0.127774
C	 1.4065460147	-2.2845742523	-2.5569109792	 0.431494
O	 0.9979784677	-1.56642406	-3.6875591162	-0.473502
C	 2.8650855723	-2.6581401564	-2.4417259349	-0.313607
C	 1.8205158948	-3.6975621516	-2.8080030304	-0.316182
H	 1.2734723966	 1.6911190408	 0.2344134249	 0.128373
H	-0.0282394347	 1.9828749741	-0.9331124329	 0.124731
H	-0.3922067054	 1.9260525351	 0.8033220442	 0.117183
H	 0.2112518708	-0.5006413863	 0.8698680466	 0.087872
H	-1.0870644115	-0.2122339392	-0.3017654854	 0.089436
H	 0.9738396378	-2.4980371288	-0.4496602003	 0.084522
H	-0.4449646148	-2.1576934394	-1.4755029021	 0.092531
H	 1.0056323872	-0.6388499456	-3.4196455872	 0.285284
H	 3.5156942275	-2.3105102209	-3.2355143982	 0.117468
H	 3.3201846218	-2.7029551344	-1.45810541	 0.109582
H	 1.5609058534	-4.457384221	-2.0784219452	 0.110715
H	 1.7847034329	-4.0269950279	-3.8399778659	 0.125632
59.4676	77.8921	119.3085	152.2452	252.7108	275.1309	299.6086	353.0606	404.6277	434.0957	464.3175	535.2014	751.2329	778.3032	822.4458	872.9438	922.6832	931.8823	940.8773	987.059	1038.234	1046.4364	1062.9361	1080.9368	1137.4534	1160.9871	1187.3874	1189.7545	1228.3908	1283.8469	1298.938	1322.1207	1368.2549	1402.2064	1422.436	1452.0511	1456.3001	1484.3864	1498.4595	1503.5623	1513.101	1532.5291	2954.7142	2966.7902	2984.4598	2999.6018	3044.8707	3119.2296	3121.717	3134.39	3137.8364	3219.983	3233.9907	3779.267
CCOCC1(O)CC1	CCOCC1(O)CC1	
InChI=1S/C6H12O2/c1-2-8-5-6(7)3-4-6/h7H,2-5H2,1H3	InChI=1S/C6H12O2/c1-2-8-5-6(7)3-4-6/h7H,2-5H2,1H3
