18
gdb 33136	3.16923	1.07807	0.81347	1.9232	75.37	-0.1909	0.0377	0.2286	1396.2847	0.147525	-439.095617	-439.086476	-439.085531	-439.129877	33.514	
C	 0.0268547952	 1.5284286082	-0.1058597595	-0.392154
C	 0.0171821898	 0.0124761429	-0.0490501899	-0.051579
O	 0.6542784034	-0.4835041892	-1.2213069289	-0.281937
C	 0.7260562503	-1.8329061803	-1.3179718514	 0.274892
C	 0.2966615876	-2.824961269	-0.48740017	-0.143921
O	 0.6182118106	-4.0371869571	-1.0194720987	-0.161964
C	 1.259251997	-3.8031737699	-2.2047807612	-0.06867
C	 1.3570620948	-2.4661833929	-2.4444831824	 0.10543
N	 1.8679163453	-1.769936676	-3.5468222113	-0.616763
H	 1.0521298374	 1.9067685528	-0.1471601946	 0.128984
H	-0.5084362274	 1.8842301088	-0.9904988454	 0.132878
H	-0.4589541373	 1.9411173951	 0.7830846451	 0.121259
H	 0.5519395528	-0.3558450906	 0.8391325503	 0.103615
H	-1.0107216413	-0.3763887104	-0.0032201885	 0.105968
H	-0.2160888148	-2.8368792167	 0.4576875354	 0.127835
H	 1.5768731071	-4.6745956041	-2.7515522753	 0.121439
H	 2.6556015466	-2.2301740557	-3.9831233271	 0.243928
H	 2.118117213	-0.8210195559	-3.2992152066	 0.250757
70.1477	97.5737	127.4811	202.9534	242.9785	268.0391	279.6205	347.9136	389.8909	527.9061	586.8718	636.5793	641.1255	697.615	705.4508	757.4617	785.0765	827.7214	890.0176	929.7197	1064.2755	1079.6485	1110.4937	1140.78	1188.2923	1207.1664	1253.4856	1268.8516	1295.1203	1341.4741	1401.0493	1422.61	1463.7748	1484.0237	1501.0456	1526.8546	1614.9019	1644.1646	1687.5553	2987.6223	3020.9208	3047.2533	3122.3506	3124.8261	3280.0208	3293.1742	3539.5712	3632.6057
CCOC1=COC=C1N	CCOc1cocc1N	
InChI=1S/C6H9NO2/c1-2-9-6-4-8-3-5(6)7/h3-4H,2,7H2,1H3	InChI=1S/C6H9NO2/c1-2-9-6-4-8-3-5(6)7/h3-4H,2,7H2,1H3
