17
gdb 44058	2.54496	1.80012	1.59197	4.2629	70.67	-0.2595	0.0058	0.2653	928.6777	0.136661	-421.796788	-421.789607	-421.788663	-421.828296	28.398	
O	-0.1802469045	 0.1680077785	-0.5319130771	-0.321616
C	-0.0304023793	 1.2627589341	-0.0978650814	 0.389918
O	-0.9981338109	 2.0602360899	 0.5199921002	-0.291659
C	-0.0204427516	 3.1265637521	 0.7097685664	 0.38684
C	 0.7346807659	 3.1460273264	 2.0619949631	-0.299727
C	 1.8984458593	 2.3323453964	 1.3757797976	-0.30114
C	 1.0691867902	 2.3149333343	 0.0516067803	 0.055933
C	 1.213800976	 3.3950259559	-1.0681676493	-0.301141
C	 0.0472119538	 4.2130955701	-0.3920386269	-0.299727
H	 1.0137794112	 4.1391971395	 2.4202334015	 0.114577
H	 0.2061350493	 2.6203147967	 2.8588193491	 0.130075
H	 2.8334616196	 2.8892647729	 1.2842165408	 0.117946
H	 2.1209887631	 1.3539356265	 1.8048542806	 0.128563
H	 2.1805493168	 3.9026911892	-1.0464580535	 0.117946
H	 1.0310789813	 3.045652523	-2.0857465452	 0.128563
H	-0.8691377505	 4.2893188131	-0.9795389454	 0.130075
H	 0.3242909905	 5.2094026314	-0.041016401	 0.114577
114.4704	163.9184	240.3037	285.5306	353.1633	392.8488	607.8571	660.0904	664.439	710.6492	719.2012	719.4309	749.9785	835.6784	882.3432	884.7393	895.7899	930.9948	971.7753	1028.3722	1040.7938	1153.5898	1163.4183	1194.4588	1204.9735	1222.6229	1234.7527	1234.8159	1252.6807	1269.5181	1285.5768	1288.0947	1457.9371	1464.218	1471.2317	1484.7378	1928.4439	3071.6646	3072.3176	3075.6574	3078.1142	3122.2545	3123.7299	3138.6177	3141.5211
O=C1OC23CCC12CC3	O=C1O[C@@]23CC[C@@]12CC3	
InChI=1S/C7H8O2/c8-5-6-1-3-7(6,9-5)4-2-6/h1-4H2	InChI=1S/C7H8O2/c8-5-6-1-3-7(6,9-5)4-2-6/h1-4H2/t6-,7-
