22
gdb 101712	4.05572	0.73662	0.67415	3.2851	79.59	-0.2279	0.0583	0.2862	1716.3531	0.19236	-441.443417	-441.433062	-441.432118	-441.479271	38.004	
C	 0.3443593866	 1.4353073217	-0.5246256059	-0.412344
C	 0.0554400216	 0.0365961041	-0.0230658116	 0.02455
C	 1.1487506818	-0.9524633383	 0.1982053348	-0.238812
N	 0.3944629862	-0.423236089	 1.3274826609	-0.075393
C	 1.0728525319	 0.4589648877	 2.2619932528	-0.168369
C	 1.6750266676	-0.3385566369	 3.4178205438	 0.099053
O	 2.7602318411	-1.1742262847	 2.9946516358	-0.436278
C	 2.1558280105	 0.5507818467	 4.5684221224	-0.062867
O	 2.78534154	-0.2191811876	 5.5681956718	-0.425181
H	 1.3513796679	 1.7742011754	-0.269500017	 0.118045
H	 0.2552828679	 1.4620441935	-1.6157553449	 0.125103
H	-0.3714807129	 2.1589766186	-0.1187439983	 0.123574
H	-0.9086592088	-0.3495989358	-0.3523405207	 0.091531
H	 1.0154367162	-2.0093372093	-0.0159964456	 0.117129
H	 2.167500472	-0.5916729286	 0.0548155318	 0.092296
H	 1.8743559659	 1.0663514119	 1.8009417639	 0.070455
H	 0.3351263513	 1.1628181057	 2.66797546	 0.108159
H	 0.923486425	-1.0390353265	 3.7952151779	 0.110827
H	 3.4049553835	-0.610485157	 2.5497267199	 0.279191
H	 2.8377614859	 1.3256231902	 4.1682905971	 0.067909
H	 1.3090532406	 1.0708046926	 5.0303556023	 0.107196
H	 3.2749625883	-0.9017880044	 5.0897398688	 0.284227
53.2995	78.6283	102.3088	150.311	189.4641	236.0396	273.5995	305.7215	349.8762	363.3996	442.8923	454.3104	480.0171	524.293	606.8178	755.5246	808.4032	868.9727	897.6056	915.5854	956.3743	1035.8599	1037.3356	1061.2499	1091.0397	1104.4308	1116.2014	1122.7606	1150.2679	1160.5855	1189.157	1209.3864	1247.5876	1276.371	1330.0852	1342.2329	1380.0998	1394.686	1408.1605	1420.6309	1426.515	1446.9063	1480.0018	1493.9631	1500.6309	1509.2991	1514.4561	2915.3548	2927.6353	3035.1564	3042.85	3060.8058	3081.4809	3083.5092	3093.4584	3101.3949	3124.736	3173.2427	3754.3226	3779.0624
CC1CN1CC(O)CO	C[C@H]1CN1C[C@@H](O)CO	
InChI=1S/C6H13NO2/c1-5-2-7(5)3-6(9)4-8/h5-6,8-9H,2-4H2,1H3	InChI=1S/C6H13NO2/c1-5-2-7(5)3-6(9)4-8/h5-6,8-9H,2-4H2,1H3/t5-,6+,7?/m0/s1
