18
gdb 29696	2.36801	1.61852	0.97819	1.9766	76.16	-0.1824	0.0407	0.2232	1191.382	0.147727	-435.310098	-435.300339	-435.299395	-435.344647	34.932	
C	 0.0222246386	 1.4599674715	-0.0188624743	-0.346255
N	 0.0317003942	 0.0127391357	 0.0008812552	-0.044737
C	 0.0466064064	-0.8285088385	-1.0648810324	 0.324748
C	 0.0549354967	-0.365124183	-2.4821600937	-0.499448
N	 0.0518977638	-2.098886069	-0.6793765814	-0.395853
C	 0.0402991937	-2.0648036712	 0.679873189	 0.294028
O	 0.0417683951	-3.1976938455	 1.4264456719	-0.448378
C	 0.0274251096	-0.7800609326	 1.1596004015	 0.107942
N	 0.012429467	-0.2021180193	 2.4426274931	-0.616781
H	 0.915031452	 1.8551779469	-0.514669962	 0.132519
H	-0.8630936819	 1.84291504	-0.5370902182	 0.132548
H	 0.0070255803	 1.8016625426	 1.0168940807	 0.16289
H	 0.9320789616	 0.252816413	-2.7103136783	 0.128198
H	 0.07248584	-1.2407815707	-3.1323436256	 0.150918
H	-0.8330764478	 0.2302031361	-2.7280255981	 0.128354
H	 0.0520736732	-3.9278952623	 0.7960545708	 0.29586
H	 0.8273989965	-0.4628590554	 2.9880822147	 0.246712
H	-0.8072613392	-0.4756185783	 2.974583157	 0.246735
66.5519	126.9222	133.877	185.2791	192.2866	268.5465	279.4407	285.8933	310.9742	355.796	374.1572	588.0757	599.3307	622.8054	663.0153	726.671	750.0489	775.2962	911.7553	1015.3458	1058.0496	1089.6045	1153.8912	1176.405	1201.1391	1213.161	1326.9022	1370.8491	1408.0793	1431.9381	1449.026	1468.9709	1480.934	1500.9391	1504.4049	1517.6197	1545.0878	1660.6037	1693.6244	3021.2623	3032.8711	3065.9246	3088.8447	3145.0303	3147.3888	3498.0133	3557.3411	3804.7769
CN1C(C)=NC(O)=C1N	Cn1c(C)nc(O)c1N	
InChI=1S/C5H9N3O/c1-3-7-5(9)4(6)8(3)2/h9H,6H2,1-2H3	InChI=1S/C5H9N3O/c1-3-7-5(9)4(6)8(3)2/h9H,6H2,1-2H3
