19
gdb 63284	2.1518	1.62734	1.25565	3.3548	76.93	-0.2344	-0.0175	0.2169	1092.0664	0.156639	-423.026798	-423.017671	-423.016727	-423.060438	34.913	
C	-0.3546693555	 1.5101478781	 0.0633656289	-0.453041
C	 0.006800822	 0.0313458473	-0.0104035078	 0.292379
O	-1.1297693123	-0.7638959167	-0.2989070596	-0.473411
C	 1.2784311722	-0.2900038982	-0.8822530094	-0.423356
C	 2.0003584088	-0.716068453	 0.4113860136	 0.356566
O	 3.1236845562	-1.0459167044	 0.6765797243	-0.321865
C	 0.754160858	-0.5288143251	 1.2169187916	 0.222042
C	 0.6472355052	-0.1741155059	 2.681626954	-0.328215
C	 0.2219348807	-1.5289285406	 2.2222528114	-0.296911
H	 0.5133735702	 2.1189941818	 0.3329756116	 0.126186
H	-0.7234531761	 1.8682413334	-0.9059720702	 0.110216
H	-1.1386725787	 1.6767483236	 0.8086127391	 0.125076
H	-1.583578453	-0.3757766831	-1.0547559848	 0.278283
H	 1.1108174801	-1.1300512347	-1.5622665601	 0.132882
H	 1.7366025252	 0.538423885	-1.4295703796	 0.120946
H	 1.5847298726	-0.0781419697	 3.2194865228	 0.13507
H	-0.1197182745	 0.5410100855	 2.9605449011	 0.122844
H	-0.8376663613	-1.7442743305	 2.1475006636	 0.140372
H	 0.8591292901	-2.3779231028	 2.4449526898	 0.133937
54.3806	161.1037	196.3678	200.5961	264.3239	287.5222	313.5061	333.0856	373.8867	458.8661	522.8738	570.0583	601.1592	633.2988	758.3504	805.9785	822.2601	866.9325	908.1612	949.7967	964.8037	994.5093	1033.8574	1058.5417	1068.7889	1089.3616	1110.9232	1168.3128	1184.9533	1198.1422	1235.8125	1252.5344	1336.0775	1394.0461	1407.1079	1430.9358	1457.2085	1485.5833	1493.94	1495.6042	1877.3542	3024.2336	3058.6252	3091.6129	3114.1268	3119.978	3129.6492	3139.28	3215.6634	3236.1105	3806.2828
CC1(O)CC(=O)C11CC1	C[C@@]1(O)CC(=O)C21CC2	
InChI=1S/C7H10O2/c1-6(9)4-5(8)7(6)2-3-7/h9H,2-4H2,1H3	InChI=1S/C7H10O2/c1-6(9)4-5(8)7(6)2-3-7/h9H,2-4H2,1H3/t6-/m1/s1
