16
gdb 110163	2.6755	1.19788	0.90518	4.3585	72.38	-0.2431	0.001	0.2441	1273.8715	0.122664	-437.853512	-437.844539	-437.843595	-437.887698	32.078	
C	 0.0254814658	 1.3795059345	 0.2115520803	-0.327903
N	-0.1482045769	 0.0221150088	-0.3126334767	-0.299426
C	-1.4566657972	-0.5254521325	-0.0316734223	-0.187792
C	-1.6228375009	-2.043961974	-0.3122033648	-0.079537
O	-1.8774668925	-2.2756191497	 1.125112084	-0.242203
C	-1.6668421779	-0.9563923956	 1.4282005402	 0.486253
O	-1.6581898768	-0.4495005154	 2.5028535235	-0.321238
C	-2.7133812005	-2.4729404238	-1.1576918127	 0.324791
C	-3.6099653964	-2.8147683512	-1.8804415605	-0.424388
H	 1.0280941785	 1.7326215191	-0.0423282955	 0.125955
H	-0.7102392862	 2.1035364658	-0.1779910412	 0.102309
H	-0.0672247392	 1.3583561718	 1.2999139381	 0.162452
H	-0.0043379252	 0.0269150833	-1.3179325574	 0.2294
H	-2.3082055249	 0.0679065901	-0.4044679443	 0.105233
H	-0.6764580154	-2.5181079277	-0.5845775176	 0.133067
H	-4.4035633943	-3.1253201935	-2.5150166131	 0.213026
76.0713	94.3764	148.1995	164.1382	202.077	248.0295	317.3435	373.0149	441.9196	496.3952	577.1499	639.5457	687.1927	696.9747	747.8741	806.8488	893.8224	907.5224	1005.7754	1023.8515	1062.302	1130.8931	1140.6352	1162.111	1185.5225	1255.3832	1259.0154	1340.403	1376.0023	1459.6435	1478.5001	1496.4073	1520.5299	1938.3878	2244.494	2963.3127	2966.4454	3084.8892	3087.5142	3134.2947	3500.6543	3507.7416
CNC1C(OC1=O)C#C	CN[C@H]1[C@@H](OC1=O)C#C	
InChI=1S/C6H7NO2/c1-3-4-5(7-2)6(8)9-4/h1,4-5,7H,2H3	InChI=1S/C6H7NO2/c1-3-4-5(7-2)6(8)9-4/h1,4-5,7H,2H3/t4-,5-/m0/s1
