25
gdb 83228	2.29601	1.49175	1.27522	0.1092	91.56	-0.2568	0.0755	0.3323	1190.4871	0.229677	-352.367434	-352.357933	-352.356989	-352.40073	38.011	
C	 0.2846547638	 1.6727516868	-0.1853676	-0.424563
C	 0.1117977149	 0.1773942014	-0.0045957021	-0.021465
C	 1.1807557499	-0.8714079425	-0.2132807511	-0.06445
C	 2.6501320713	-0.4741560509	-0.1114132025	-0.224729
C	 2.817539748	 0.2114230639	 1.2680991282	-0.261435
C	 1.6362395146	-0.2755074603	 2.1593602323	 0.306829
C	 2.0623393199	-1.5335307182	 2.9429418966	-0.416801
C	 1.1708331386	 0.8028252475	 3.1495105907	-0.430741
C	 0.5541352538	-0.6923108622	 1.156581499	-0.061928
H	 1.2745839714	 2.0368649029	 0.0909555218	 0.120259
H	 0.1231081226	 1.9426010887	-1.2355120024	 0.112791
H	-0.450091729	 2.2272815182	 0.4093770486	 0.116547
H	-0.8554857004	-0.1496118246	-0.3836785993	 0.079707
H	 0.9390280633	-1.7246117063	-0.8392017491	 0.072596
H	 3.2632207276	-1.380754522	-0.165344088	 0.098657
H	 2.9806055652	 0.1731777342	-0.9318991524	 0.093941
H	 3.7832409142	-0.0268060684	 1.7256650114	 0.08997
H	 2.791505327	 1.2995578341	 1.1691338724	 0.097649
H	 2.8650404826	-1.2979703454	 3.6505566527	 0.105434
H	 1.2235876886	-1.9461611173	 3.5146461168	 0.106988
H	 2.4242693645	-2.3185009494	 2.2706567887	 0.111516
H	 0.8467274241	 1.7106339057	 2.632794277	 0.112881
H	 0.3303660853	 0.444260674	 3.7545145726	 0.10642
H	 1.9780384816	 1.0779821405	 3.8384769335	 0.105706
H	-0.1793334633	-1.4046642004	 1.5248446144	 0.068222
122.0409	170.8972	182.3418	198.0025	236.3378	267.8846	283.1219	334.016	365.81	384.7613	452.8975	552.6594	575.2049	679.2484	725.09	749.962	805.9484	823.2857	901.5879	928.6995	940.5556	951.1496	965.0105	978.4781	1005.661	1035.8894	1048.173	1073.7403	1097.996	1111.6898	1141.9803	1163.1869	1204.4869	1230.0629	1240.7958	1250.8191	1273.2568	1317.5182	1326.4743	1362.29	1375.9712	1396.9006	1416.6287	1421.8296	1441.7211	1482.2748	1485.8995	1489.6094	1499.3527	1504.2864	1506.2328	1508.3253	1517.1075	3021.6413	3026.6322	3030.6295	3032.0835	3052.0319	3060.0395	3080.3206	3083.4887	3088.1282	3092.5149	3097.2025	3105.4283	3109.6845	3135.6837	3141.1189	3154.7445
CC1C2CCC(C)(C)C12	C[C@H]1[C@H]2CCC(C)(C)[C@@H]12	
InChI=1S/C9H16/c1-6-7-4-5-9(2,3)8(6)7/h6-8H,4-5H2,1-3H3	InChI=1S/C9H16/c1-6-7-4-5-9(2,3)8(6)7/h6-8H,4-5H2,1-3H3/t6-,7+,8-/m0/s1
