15
gdb 126485	1.94492	1.79808	0.99873	3.9385	74.88	-0.2751	-0.0592	0.2159	1151.1815	0.111277	-416.744459	-416.736105	-416.735161	-416.778024	30.22	
C	 0.1375672397	 1.509989755	 0.150039158	-0.386243
C	-0.0902964075	 0.0081959384	-0.0954750304	-0.313076
C	 0.6931506709	-0.5102440178	-1.2580050146	 0.220769
N	 0.1513810823	-0.8231534627	-2.4020114692	-0.129034
O	 1.1782565532	-1.238815534	-3.2110650928	-0.151638
N	 2.3733348753	-1.1885264651	-2.5708809743	-0.162343
C	 2.1082470081	-0.742282133	-1.3630870534	 0.17277
C	 3.0968432522	-0.5516707734	-0.3709559299	 0.293203
C	 3.9046311607	-0.3782663554	 0.5029067003	-0.419395
H	 1.1919760848	 1.7215597183	 0.3490371043	 0.135985
H	-0.1709737026	 2.0979774899	-0.7189157558	 0.135791
H	-0.4443551287	 1.843482524	 1.0136072227	 0.125851
H	 0.1958769809	-0.5568341333	 0.7987822288	 0.128142
H	-1.149016571	-0.190023478	-0.2821208716	 0.137204
H	 4.6301417717	-0.2300536528	 1.2650442381	 0.212014
55.9424	123.4222	161.927	181.6236	224.1302	324.7391	383.7854	504.5982	533.5932	593.0564	636.0447	643.7487	681.8183	686.4959	780.785	803.8067	910.7261	943.9433	978.207	1053.5619	1080.6119	1105.9036	1229.7353	1283.6954	1355.3511	1401.9231	1412.9222	1478.2429	1492.2705	1499.7172	1510.7244	1601.0911	2246.3727	3045.4952	3048.7968	3099.1212	3121.8267	3126.5129	3498.5244
CCC1=NON=C1C#C	CCc1nonc1C#C	
InChI=1S/C6H6N2O/c1-3-5-6(4-2)8-9-7-5/h1H,4H2,2H3	InChI=1S/C6H6N2O/c1-3-5-6(4-2)8-9-7-5/h1H,4H2,2H3
