21
gdb 100259	1.84297	1.40366	1.18879	2.7707	73.92	-0.2392	-0.0078	0.2314	1208.3786	0.178255	-461.371631	-461.360306	-461.359362	-461.408262	40.222	
C	-0.0382513292	 1.4978838927	 0.1129069367	-0.497635
C	 0.0196673377	-0.0073165834	-0.0628572726	 0.417466
O	 1.0733221894	-0.5792616689	-0.2180572504	-0.315182
C	-1.3066599739	-0.8016631854	-0.0179010049	 0.054901
C	-0.9962485214	-2.3059464909	 0.0217290468	-0.435728
C	-2.1298943946	-0.3890610008	 1.2221399606	-0.09198
O	-1.3893804841	-0.4271937866	 2.4305425808	-0.420647
C	-2.1385536137	-0.4646186092	-1.2812407476	-0.085383
O	-1.4041690774	-0.5469743168	-2.4871285292	-0.415579
H	 0.9295250104	 1.9238165154	-0.1537199601	 0.141807
H	-0.8247447539	 1.9582517206	-0.4916592707	 0.13461
H	-0.2493495558	 1.7212076982	 1.1645193991	 0.161368
H	-0.4027718579	-2.5694010534	 0.9020998716	 0.120297
H	-1.9231175142	-2.8894611305	 0.0334992385	 0.107955
H	-0.3919257732	-2.6147444051	-0.8347382709	 0.127812
H	-2.4680256376	 0.6469825274	 1.1232016125	 0.114119
H	-3.0310441201	-1.0190890924	 1.2831541767	 0.095496
H	-1.1286999248	-1.3379653133	 2.5992732917	 0.290385
H	-3.0273707593	-1.1159672196	-1.3022969466	 0.093493
H	-2.4989727497	 0.5679110359	-1.2323100943	 0.111884
H	-1.0701365369	-1.4446020938	-2.5817594077	 0.29054
54.6817	64.9688	97.9554	148.9458	175.1611	198.1428	224.9882	273.0858	296.4674	308.9048	329.0586	364.7035	393.9105	451.8122	487.5534	548.1577	655.8619	669.4955	855.6352	903.4616	937.8166	950.3888	982.5011	1034.2315	1071.4506	1090.5431	1123.5988	1161.475	1178.7706	1206.0985	1219.571	1315.6203	1364.6174	1379.6416	1390.3344	1409.697	1412.1872	1434.9655	1465.3101	1477.1697	1478.658	1500.7285	1504.0792	1514.549	1807.2128	2971.1292	2985.0026	3037.5569	3045.6064	3071.9634	3081.9753	3105.6748	3113.9725	3116.822	3153.651	3823.1125	3824.2199
CC(=O)C(C)(CO)CO	CC(=O)C(C)(CO)CO	
InChI=1S/C6H12O3/c1-5(9)6(2,3-7)4-8/h7-8H,3-4H2,1-2H3	InChI=1S/C6H12O3/c1-5(9)6(2,3-7)4-8/h7-8H,3-4H2,1-2H3
