16
gdb 125913	4.49116	1.27203	1.04082	3.6427	70.95	-0.2159	-0.0117	0.2041	1115.8606	0.125621	-437.867429	-437.860167	-437.859223	-437.899673	27.638	
C	 0.2051573998	 1.520234772	 0.0736879382	-0.397588
C	 0.035601418	 0.0176626401	-0.0233586608	 0.120371
C	 0.7487917541	-0.6472357152	-1.2660265672	-0.402855
C	 1.421957883	-1.7730034793	-0.560764374	 0.30847
C	 1.2986284968	-1.660812019	 0.7761208109	 0.241239
O	 0.5793318589	-0.5928493874	 1.2048526864	-0.298975
C	 2.0336123497	-2.7491842798	 1.295102787	-0.112911
N	 2.5589740238	-3.4559515726	 0.3081155999	-0.142126
O	 2.172088372	-2.8292631692	-0.8883424255	-0.218085
H	 1.2661485942	 1.7862250585	 0.1020130273	 0.132231
H	-0.2534552375	 2.0090574511	-0.7918939988	 0.124836
H	-0.2725824867	 1.9028557922	 0.9793783934	 0.136823
H	-1.0274341646	-0.247937764	-0.040175391	 0.10328
H	 0.0211898139	-0.9503950333	-2.0243692351	 0.135652
H	 1.4594438763	 0.0403687974	-1.7421681385	 0.130538
H	 2.2129499382	-3.0629280415	 2.3124545378	 0.139101
47.2088	197.4472	242.9703	277.7264	333.7268	435.1101	460.0007	582.5444	625.5648	678.0061	734.5463	772.4403	815.4242	870.9484	885.7542	889.182	930.322	973.551	1050.7716	1094.355	1119.3008	1175.2777	1194.407	1208.382	1254.2258	1341.2232	1365.3455	1373.2961	1411.4924	1433.8857	1484.001	1491.5749	1497.6835	1523.5776	1685.7778	3022.7783	3039.5503	3042.3278	3081.9552	3115.606	3125.7563	3256.1003
CC1CC2=C(O1)C=NO2	C[C@H]1Cc2c(O1)cno2	
InChI=1S/C6H7NO2/c1-4-2-5-6(8-4)3-7-9-5/h3-4H,2H2,1H3	InChI=1S/C6H7NO2/c1-4-2-5-6(8-4)3-7-9-5/h3-4H,2H2,1H3/t4-/m0/s1
