16
gdb 7259	4.46936	1.16233	0.99624	1.047	64.32	-0.2542	-0.0257	0.2285	1167.5412	0.129173	-417.086893	-417.077757	-417.076813	-417.121483	31.182	
C	-0.124691668	 1.5813368074	 0.0741875814	-0.3839
C	-0.0314137594	 0.0497791111	-0.0289942849	-0.092324
N	 0.925886761	-0.4657822919	 0.9369838263	-0.493806
C	-1.425400269	-0.5586248664	 0.1200484339	 0.44504
O	-1.8158198722	-1.1970904898	 1.0591747876	-0.343982
O	-2.1930652878	-0.2669625099	-0.9827160568	-0.20639
C	-3.4909406256	-0.7168381578	-1.0103534462	 0.116699
N	-4.1877030535	-0.4396053603	-2.0194636643	-0.417898
H	 0.8705068806	 2.0086360873	-0.0642863419	 0.138723
H	-0.8021730598	 1.9871436604	-0.6798387498	 0.142419
H	-0.4895841987	 1.8784086422	 1.0637622111	 0.123112
H	 0.3165712305	-0.2036657737	-1.037465104	 0.118327
H	 0.5610082347	-0.316988828	 1.8749242741	 0.235232
H	 1.0024448579	-1.4745297336	 0.8397502231	 0.234507
H	-3.762862327	-1.2804318426	-0.1176941157	 0.143492
H	-5.1222649836	-0.8315298844	-1.9111686838	 0.240749
43.5487	103.5878	107.2601	160.3271	210.9197	222.9024	279.0297	328.9034	356.9838	455.8367	535.7963	683.7704	752.6898	854.6335	881.7751	913.5205	939.3763	1007.736	1019.7891	1072.0013	1085.2336	1155.658	1175.9543	1262.427	1280.2941	1328.457	1387.669	1395.3786	1409.6338	1491.4188	1497.8288	1672.6108	1746.0874	1836.3606	3041.2309	3049.5398	3118.4477	3138.8439	3145.4584	3487.0034	3505.7719	3558.4959
CC(N)C(=O)OC=N	C[C@@H](N)C(=O)O[CH][NH]	
InChI=1S/C4H8N2O2/c1-3(6)4(7)8-2-5/h2-3,5H,6H2,1H3	InChI=1S/C4H8N2O2/c1-3(6)4(7)8-2-5/h2-3,5H,6H2,1H3/t3-/m1/s1
