19
gdb 70670	2.49299	1.61252	1.19731	2.5428	74.63	-0.2495	-0.0309	0.2186	1075.3317	0.159196	-423.03581	-423.027554	-423.02661	-423.06857	32.097	
O	 0.4459696058	 1.1650931945	-0.1660269043	-0.489115
C	 0.081891643	-0.1635641212	 0.0170050277	 0.451546
C	-0.5300125618	-0.9398016275	-1.1253162466	-0.35158
C	-1.3590706282	-0.5817834028	 0.0954021992	-0.098542
C	-1.4851802882	-1.6461881182	 1.1788038915	-0.215936
C	-0.0422416528	-2.1692329894	 1.4019152569	-0.268296
C	 0.8547390286	-0.9544069696	 1.0647567876	-0.145159
C	 2.2709598617	-1.2693308052	 0.6509529299	 0.141225
O	 2.8517995807	-0.682708957	-0.2321991396	-0.259458
H	 1.328207614	 1.1403471426	-0.5601583437	 0.289792
H	-0.7220931108	-0.3534217685	-2.0164991419	 0.118734
H	-0.255720755	-1.9727550899	-1.3155951009	 0.104987
H	-2.148861474	 0.1508660419	-0.0237378179	 0.095248
H	-1.8631339433	-1.1843717775	 2.0985839145	 0.106115
H	-2.1743450611	-2.4550328573	 0.9145592042	 0.103007
H	 0.1153190591	-2.541339159	 2.417026442	 0.107645
H	 0.1737422061	-3.0004942539	 0.7221472036	 0.112748
H	 0.9431576673	-0.3139797419	 1.9579441128	 0.112894
H	 2.7826424288	-2.0755417401	 1.2243157648	 0.084145
85.1051	137.598	170.7439	238.8267	302.7891	361.441	397.7052	450.9074	497.7617	509.6881	616.4196	653.8436	694.1275	814.1903	837.8106	861.3669	918.5832	934.0122	955.4117	979.5308	1014.262	1037.5023	1055.9772	1070.9923	1092.4108	1116.9226	1172.9315	1212.4655	1245.1585	1259.0197	1284.9104	1317.4436	1333.1515	1335.4736	1371.2107	1410.8538	1424.8142	1488.149	1492.838	1510.5095	1805.872	2874.4027	2981.8684	3034.8503	3047.6682	3076.1745	3101.9552	3127.7134	3180.7053	3219.9842	3762.7104
OC12CC1CCC2C=O	O[C@]12C[C@H]1CC[C@H]2C=O	
InChI=1S/C7H10O2/c8-4-6-2-1-5-3-7(5,6)9/h4-6,9H,1-3H2	InChI=1S/C7H10O2/c8-4-6-2-1-5-3-7(5,6)9/h4-6,9H,1-3H2/t5-,6+,7-/m1/s1
