18
gdb 78989	3.01052	1.77131	1.45141	2.3015	73.73	-0.2124	0.0594	0.2718	948.7768	0.147744	-401.858431	-401.851033	-401.850088	-401.889835	29.842	
C	 0.0251143695	 1.6462544115	 0.0209421794	-0.425183
C	 0.0376311114	 0.1266431195	-0.0055848671	 0.017429
C	 0.7311498822	-0.6444628743	-1.1628704234	-0.174854
C	 2.2324133876	-0.3154984127	-1.0445277833	-0.039087
C	 2.5920047248	-1.5620366742	-0.3287616692	-0.115591
N	 2.4287599832	-0.2954259637	 0.449328409	-0.147714
C	 1.0130472794	-0.6643987625	 0.8893534532	-0.091764
C	 1.0812529404	-1.8317967849	-0.1566884374	 0.398421
O	 0.5213601277	-3.0855854505	-0.1170048768	-0.477005
H	 1.0383090421	 2.0460730005	-0.0779616367	 0.135685
H	-0.582987916	 2.0515833625	-0.7952164376	 0.112907
H	-0.3907450086	 2.0206254178	 0.962644604	 0.116551
H	-0.9740828983	-0.277271704	 0.1371099817	 0.06267
H	 0.2918990516	-0.7879360851	-2.1490321609	 0.070539
H	 2.8435596917	 0.3499037589	-1.6418154462	 0.095654
H	 3.4842427413	-2.1749575416	-0.2985812882	 0.100006
H	 0.9154701657	-0.7578726525	 1.9706458938	 0.072919
H	-0.4383876657	-3.0040269246	-0.0804237241	 0.288417
171.6043	190.314	207.3949	248.9286	308.3106	344.8853	543.3481	590.8582	622.9071	704.3589	719.836	773.8966	796.0617	824.7912	864.4914	909.232	923.0606	966.4335	980.1219	992.3095	1007.2314	1015.7943	1041.7054	1073.3344	1099.4386	1124.4982	1160.9924	1172.0739	1189.6597	1218.9939	1258.358	1276.612	1311.7318	1333.1655	1378.3576	1411.6902	1415.0475	1494.6459	1500.1856	3017.1334	3033.026	3093.5365	3114.5795	3120.5369	3130.6514	3180.1609	3195.782	3800.202
CC1C2C3C4N3C1C24O	C[C@H]1[C@H]2[C@@H]3[C@H]4N3[C@@H]1[C@@]24O	
InChI=1S/C7H9NO/c1-2-3-4-6-7(3,9)5(2)8(4)6/h2-6,9H,1H3	InChI=1S/C7H9NO/c1-2-3-4-6-7(3,9)5(2)8(4)6/h2-6,9H,1H3/t2-,3-,4+,5-,6+,7-,8?/m0/s1
