13
gdb 21519	3.49468	1.88141	1.22462	5.9431	64.	-0.2283	-0.0285	0.1997	900.4481	0.097315	-394.811876	-394.804731	-394.803786	-394.843206	26.021	
N	 0.0707633912	 1.3779175436	 0.1556727457	-0.599136
C	-0.0264127203	 0.0067451667	 0.0445660897	 0.322476
C	-1.1373309444	-0.8466057277	 0.0195681558	 0.076328
C	-2.5353634886	-0.4835459587	 0.008734777	 0.057058
O	-3.4647256104	-1.2643597611	-0.0187451407	-0.294834
C	-0.5656448195	-2.1526136951	-0.0179988244	-0.059887
N	 0.748558373	-2.131086172	-0.0211891811	-0.223992
N	 1.0591258133	-0.7939027597	 0.0182868695	-0.254066
H	 0.8497419026	 1.801223353	-0.3295016291	 0.261008
H	-0.7910112947	 1.8687108811	-0.0328468556	 0.270414
H	-2.7319601815	 0.6175396851	 0.0248257846	 0.030787
H	-1.100754966	-3.0897474314	-0.0487886473	 0.140592
H	 2.0262061053	-0.5215458238	 0.0722506459	 0.27325
150.797	173.1829	206.7915	248.5853	324.7574	346.6471	470.6339	554.9951	599.3858	669.3615	673.9141	724.036	812.6834	918.0097	946.2893	1027.9132	1067.3958	1097.8098	1206.3505	1234.7142	1350.3456	1395.9969	1439.1463	1490.6235	1572.9518	1610.3308	1665.1725	1779.6874	2804.7166	3260.1367	3562.8822	3660.583	3669.402
NC1=C(C=O)C=NN1	Nc1c(C=O)cn[nH]1	
InChI=1S/C4H5N3O/c5-4-3(2-8)1-6-7-4/h1-2H,(H3,5,6,7)	InChI=1S/C4H5N3O/c5-4-3(2-8)1-6-7-4/h1-2H,(H3,5,6,7)
