17
gdb 38687	2.72273	2.07774	1.77746	0.4972	69.75	-0.2448	0.009	0.2538	843.6074	0.138831	-421.805795	-421.799566	-421.798622	-421.836038	26.307	
C	 0.0066603534	 1.5226296338	 0.0677512215	-0.254399
C	 1.422831826	 2.0750930248	-0.0722046365	 0.06535
O	 2.366782838	 1.8380242245	 0.9749337364	-0.244593
C	 2.5518959663	 1.1473928811	-0.2652617065	 0.028205
C	 2.1715787523	-0.3477522575	-0.3190434683	-0.019854
O	 0.9143708955	-0.4403938234	-1.0010556007	-0.251352
C	-0.0193532991	-0.0279653558	 0.0002963099	 0.0222
C	 0.544024627	-0.6662810265	 1.2647457284	-0.088921
C	 1.8403727939	-0.8713389248	 1.0707029439	-0.047099
H	-0.4565434211	 1.8874925361	 0.9919488698	 0.111704
H	-0.5805527759	 1.9180775121	-0.7685923285	 0.109728
H	 1.4881473177	 3.0770812077	-0.4965648371	 0.093498
H	 3.4279967762	 1.4610784597	-0.8300232871	 0.09263
H	 2.9069021845	-0.9258903483	-0.8829771339	 0.079196
H	-1.0111666015	-0.388403525	-0.2861904517	 0.084536
H	-0.0296931841	-0.8367166238	 2.1659473118	 0.106407
H	 2.576015911	-1.2272431647	 1.7783306387	 0.112766
192.437	258.1815	363.4146	431.4431	463.4914	472.7795	633.6418	686.7128	729.2805	758.6691	811.8693	834.0425	867.5837	875.701	907.8684	926.7144	942.3549	953.1241	993.6131	1014.9301	1030.4552	1051.4046	1098.158	1131.4072	1147.6368	1219.2814	1274.1213	1277.2645	1286.2761	1306.278	1330.7967	1360.8739	1365.9218	1377.3929	1453.0459	1468.9856	1674.2871	3035.7594	3071.6927	3079.7074	3088.1635	3104.3942	3127.5703	3217.0955	3243.7412
C1C2OC2C2OC1C=C2	C1[C@H]2O[C@H]2[C@@H]2O[C@H]1C=C2	
InChI=1S/C7H8O2/c1-2-5-7-6(9-7)3-4(1)8-5/h1-2,4-7H,3H2	InChI=1S/C7H8O2/c1-2-5-7-6(9-7)3-4(1)8-5/h1-2,4-7H,3H2/t4-,5+,6+,7-/m0/s1
