14
gdb 46337	4.38377	0.75234	0.67752	2.3091	86.02	-0.2511	-0.0267	0.2244	1581.5205	0.099724	-399.485616	-399.477223	-399.476279	-399.519459	30.335	
N	 0.0441932414	 1.2261918758	-0.2683228707	-0.530942
C	 0.0305380235	 0.0034987055	-0.0166910934	 0.450087
O	 1.0381860605	-0.8736974329	 0.3180815829	-0.245497
C	 0.1060704775	-1.9838906525	 0.4701259831	-0.087974
C	-1.0695194255	-1.0659886983	 0.0257449766	-0.369426
C	-2.173679932	-0.8745192158	 0.9342420073	 0.499184
C	-3.0981177068	-0.727350538	 1.7007203357	-0.315408
C	-4.1343331633	-0.560104302	 2.5655979242	 0.309983
C	-5.0547091062	-0.41424245	 3.3332912792	-0.559157
H	 0.9847412747	 1.6179821521	-0.2015190891	 0.23675
H	 0.354276376	-2.8058966044	-0.2039235286	 0.130977
H	 0.0608794004	-2.3232819439	 1.5061659994	 0.139024
H	-1.4281574554	-1.3012093044	-0.9816587275	 0.146438
H	-5.8637791648	-0.2816038913	 4.0080797708	 0.195962
71.0893	75.4876	147.0204	196.4336	252.0723	373.1266	431.63	471.769	538.6779	544.0809	582.2323	597.5848	612.7376	712.8411	777.8651	862.1435	924.2671	933.5496	979.4811	1005.2378	1057.6357	1158.1557	1187.281	1202.3388	1218.1933	1331.235	1363.6088	1513.9273	1832.9906	2185.1568	2365.4171	3061.2384	3075.7915	3142.8426	3484.9707	3503.8842
N=C1OCC1C#CC#C	[NH][C]1OC[C@H]1C#CC#C	
InChI=1S/C7H5NO/c1-2-3-4-6-5-9-7(6)8/h1,6,8H,5H2	InChI=1S/C7H5NO/c1-2-3-4-6-5-9-7(6)8/h1,6,8H,5H2/t6-/m1/s1
