17
gdb 98814	3.08718	1.13958	0.9359	1.964	70.86	-0.2515	-0.0321	0.2195	1274.8741	0.133876	-459.003765	-458.994527	-458.993582	-459.039362	31.862	
C	 0.2304473615	 1.3234642091	 0.2768476867	-0.240266
O	 0.020156329	-0.0951971328	 0.2399118194	-0.228546
C	-1.2545981969	-0.4848964526	 0.0709398046	 0.449459
O	-2.1915367977	 0.2707033491	-0.0080710765	-0.362547
C	-1.338346416	-1.9850513955	-0.0578967862	-0.234962
C	-2.7488676504	-2.6319626678	-0.040521067	-0.248117
C	-2.4823900718	-3.3280596977	-1.4095614648	-0.340561
C	-1.1790474858	-2.5284079033	-1.5168574113	 0.395089
O	-0.3761669755	-2.334747977	-2.3764113858	-0.273796
H	 1.3031902098	 1.4594199064	 0.4118224579	 0.136889
H	-0.0995933364	 1.7841774356	-0.6573470279	 0.145326
H	-0.3215474369	 1.7722820431	 1.1063519594	 0.141429
H	-0.6008097062	-2.4575498693	 0.5965100969	 0.12677
H	-2.9450520409	-3.2981324575	 0.7994948197	 0.112957
H	-3.5263480695	-1.8690637876	-0.0909285877	 0.142886
H	-2.2937200525	-4.4046849205	-1.3455182407	 0.137433
H	-3.1998637338	-3.1529164118	-2.2155598766	 0.140558
41.0288	59.8094	94.5985	121.8331	191.6952	206.9997	318.3352	391.7706	431.2986	496.4394	622.6351	669.6115	699.4767	790.7072	813.8478	904.2225	936.5505	973.1627	1022.2859	1045.2936	1057.6335	1097.4342	1175.6803	1178.6732	1202.3895	1213.1562	1222.3984	1231.8568	1272.6497	1339.3055	1437.0289	1473.0366	1482.483	1490.7403	1496.206	1810.2796	1900.1536	3054.004	3058.7813	3085.2555	3095.1681	3111.5755	3129.7986	3154.3261	3163.0657
COC(=O)C1CCC1=O	COC(=O)[C@H]1CCC1=O	
InChI=1S/C6H8O3/c1-9-6(8)4-2-3-5(4)7/h4H,2-3H2,1H3	InChI=1S/C6H8O3/c1-9-6(8)4-2-3-5(4)7/h4H,2-3H2,1H3/t4-/m0/s1
