19
gdb 86411	2.76993	1.33606	1.0231	1.9662	70.74	-0.2527	0.0606	0.3133	1177.3397	0.159109	-460.148573	-460.140079	-460.139135	-460.18178	33.08	
O	-0.0953063554	 1.4299686104	 0.0017920361	-0.43466
C	 0.0496160774	 0.020120184	 0.0126307674	 0.128935
C	 0.6360810931	-0.5633265459	 1.3117111146	-0.287862
C	 0.1297569751	-2.0180290214	 1.3031076002	 0.073947
O	 0.2024483481	-2.7156533052	 2.5185050822	-0.44334
C	-1.311606143	-1.8426939107	 0.8040788446	 0.380917
C	-2.2881618039	-2.9285974228	 0.8489894547	-0.25506
O	-2.2823165971	-1.9126540295	 1.8685065719	-0.28382
C	-1.3529876912	-0.623294111	-0.1063059424	-0.308434
H	 0.7824319284	 1.8212678308	 0.0557623564	 0.2829
H	 0.6714587185	-0.3006596468	-0.8382262407	 0.068156
H	 1.7248626823	-0.4878743303	 1.3766856835	 0.094306
H	 0.1986714757	-0.0329085759	 2.1663260427	 0.112324
H	 0.701364475	-2.5975721975	 0.5651711804	 0.089573
H	-0.612887768	-2.4913000798	 2.9913423436	 0.289016
H	-3.1533499193	-2.9078949308	 0.1882946299	 0.119664
H	-1.9752211114	-3.9159747587	 1.1846542855	 0.124149
H	-2.1001376178	 0.0843382814	 0.2634321723	 0.139254
H	-1.6083696266	-0.8732146305	-1.1390446827	 0.110038
55.772	133.327	258.7021	275.6642	288.2408	317.9705	364.7399	453.4075	456.9514	486.5732	510.5255	533.7728	602.2501	722.071	792.8491	865.6602	900.3895	920.4697	964.6616	991.216	1025.8088	1082.241	1090.0544	1126.8022	1132.6865	1152.7781	1176.0391	1194.9682	1224.8358	1242.3277	1274.6659	1276.7493	1303.1684	1358.7811	1377.8069	1421.1261	1429.7373	1450.4151	1474.8873	1495.0926	1524.1571	2966.5883	3015.4582	3042.4016	3065.9668	3087.3609	3102.0567	3114.1308	3176.8637	3721.8803	3817.5274
OC1CC(O)C2(CO2)C1	O[C@H]1C[C@@H](O)[C@]2(CO2)C1	
InChI=1S/C6H10O3/c7-4-1-5(8)6(2-4)3-9-6/h4-5,7-8H,1-3H2	InChI=1S/C6H10O3/c7-4-1-5(8)6(2-4)3-9-6/h4-5,7-8H,1-3H2/t4-,5+,6+/m0/s1
