18
gdb 23238	2.77101	1.45699	1.14432	0.795	74.86	-0.2458	-0.0076	0.2383	1098.203	0.147367	-439.010192	-439.001846	-439.000902	-439.043146	32.05	
O	-0.1753933724	 1.3553851755	 0.1706797602	-0.410864
N	 0.0476503657	-0.0489442109	 0.1924683632	-0.246865
C	-1.0590892216	-0.6558824358	 0.0903970104	 0.37974
C	-2.5016457977	-0.2138642996	-0.0986195685	 0.051462
O	-2.7766659347	 0.7644143613	-1.067646014	-0.435101
C	-2.8493406926	-1.6853525529	-0.4592577348	-0.052803
C	-2.524851926	-2.0800819319	-1.9254461393	-0.228074
C	-1.1561607461	-2.6755973979	-1.4797328885	-0.216766
C	-1.3851255103	-2.1274568787	-0.0419688318	-0.13947
H	 0.7199255317	 1.7070925895	 0.2114200211	 0.310364
H	-2.9420971779	 0.0472141901	 0.8787810509	 0.08869
H	-2.1189533776	 1.4598373832	-0.9436885106	 0.299472
H	-3.7517881566	-2.1002455161	-0.0130090404	 0.070565
H	-3.2136395861	-2.8061098707	-2.360712139	 0.102005
H	-2.463580186	-1.2161689309	-2.5896778106	 0.124492
H	-1.1524497742	-3.7684142628	-1.4938715686	 0.104256
H	-0.2585311792	-2.3172139456	-1.9882027695	 0.111379
H	-1.1447057783	-2.7701780359	 0.8053746098	 0.087519
72.6356	150.7787	171.6161	232.4794	278.1991	352.0021	381.5488	395.2565	488.7954	526.8658	628.2895	645.7274	725.5113	804.6872	822.1514	832.5959	880.1039	939.8416	952.975	966.2978	1025.5223	1063.2818	1075.8805	1110.4586	1145.423	1172.8677	1206.9347	1211.3048	1237.8926	1248.3531	1272.4492	1294.8787	1316.7006	1342.407	1388.5382	1395.0309	1479.1442	1495.4162	1771.7087	2954.6956	3062.2462	3078.1376	3103.855	3113.4445	3120.7005	3136.1006	3788.9754	3826.1481
ON=C1C(O)C2CCC12	O[N][C]1[C@@H](O)[C@H]2CC[C@@H]12	
InChI=1S/C6H9NO2/c8-6-4-2-1-3(4)5(6)7-9/h3-4,6,8-9H,1-2H2	InChI=1S/C6H9NO2/c8-6-4-2-1-3(4)5(6)7-9/h3-4,6,8-9H,1-2H2/t3-,4+,6+/m1/s1
