15
gdb 74052	2.99393	1.42225	0.97467	8.0029	75.11	-0.2356	-0.0537	0.1819	1135.2222	0.113467	-453.975634	-453.96752	-453.966575	-454.008672	30.183	
N	 0.0388898915	 1.3793337965	 0.056210468	-0.556645
C	-0.0355717402	 0.0189654716	-0.0419923042	 0.314239
C	-1.1870555852	-0.6849452013	-0.1296267726	-0.278426
C	-1.2019232998	-2.1336305333	-0.0926927654	 0.313064
O	-2.2211154747	-2.7932485521	-0.0534121447	-0.3238
C	 0.1569543114	-2.8298237041	-0.1390685748	 0.275123
N	 0.2406602544	-4.0891017276	-0.1209676814	-0.462724
O	 1.2777510187	-2.0497314915	-0.3031751499	-0.25852
C	 1.2856772686	-0.6898798187	 0.0831068044	-0.146994
H	 0.8931138498	 1.8421028604	-0.209595987	 0.26404
H	-0.8012483642	 1.9127662965	-0.102544877	 0.270509
H	-2.1522166671	-0.191236911	-0.1844939121	 0.098073
H	 1.2209704982	-4.3741172568	-0.1856569386	 0.224371
H	 2.036234905	-0.2008795093	-0.5505590151	 0.126156
H	 1.6357526336	-0.6003967294	 1.1229863405	 0.141534
62.7111	113.884	168.9798	326.7306	353.339	362.7711	427.8866	439.6129	440.6025	496.1633	552.3542	592.8518	638.5078	779.2599	797.1143	887.4466	910.7931	928.2745	981.7731	1026.9982	1094.365	1165.9436	1224.566	1268.9053	1290.7277	1325.4194	1392.5378	1447.8226	1497.7152	1647.6553	1693.4616	1733.9781	1768.6534	2992.4248	3044.5202	3180.9838	3458.8863	3589.2059	3700.3665
NC1=CC(=O)C(=N)OC1	NC1=CC(=O)[C]([NH])OC1	
InChI=1S/C5H6N2O2/c6-3-1-4(8)5(7)9-2-3/h1,7H,2,6H2	InChI=1S/C5H6N2O2/c6-3-1-4(8)5(7)9-2-3/h1,7H,2,6H2
