18
gdb 63322	2.60912	1.5307	1.2505	3.18	71.6	-0.2331	-0.0157	0.2174	1055.0186	0.146953	-439.089606	-439.081244	-439.0803	-439.122165	32.718	
C	 0.0624957513	 1.5485037072	-0.0055445661	-0.447496
C	-0.0031949123	 0.0237604073	-0.0024505253	 0.386261
O	-1.3496713089	-0.4373636635	 0.117426737	-0.477025
C	 0.6885538411	-0.6419885085	-1.2207085652	-0.385894
C	 1.1865580413	-1.9988997472	-0.7067785395	 0.456731
O	 1.3076962825	-3.0126219939	-1.3441554352	-0.326605
C	 1.4143322348	-1.8434007165	 0.7700427734	-0.164613
N	 2.1599086392	-0.5782197392	 1.067423822	-0.34594
C	 0.7051150306	-0.6073100212	 1.1979108533	-0.050799
H	 1.1013639894	 1.8884440233	 0.0236419575	 0.136985
H	-0.4034980431	 1.9581079454	-0.9096074196	 0.109055
H	-0.4669920887	 1.9513460811	 0.8632547382	 0.120927
H	-1.8570303281	-0.0676786059	-0.6127800449	 0.280708
H	 0.0114445334	-0.7722207919	-2.0673992182	 0.114638
H	 1.5530181487	-0.0594587932	-1.554586769	 0.139043
H	 1.5502762098	-2.7136346978	 1.3999491467	 0.107943
H	 2.5852281583	-0.6776576623	 1.9863924059	 0.244446
H	 0.2327316109	-0.528054453	 2.1714628892	 0.101636
90.2494	172.202	244.3718	255.7749	274.6693	342.1594	345.7675	396.6747	467.1526	494.4723	544.7981	580.974	662.488	777.6066	818.1145	840.2703	888.6367	912.4653	925.5334	939.7886	950.7809	1023.5304	1095.205	1107.3329	1121.8381	1131.305	1187.4666	1194.3909	1231.0813	1267.6087	1280.0516	1340.9196	1377.0459	1403.8749	1413.9017	1443.1514	1490.1872	1499.161	1850.4136	3029.228	3064.3128	3097.0482	3120.6012	3124.1607	3171.8242	3200.7608	3501.5932	3812.0824
CC1(O)CC(=O)C2NC12	C[C@@]1(O)CC(=O)[C@H]2N[C@@H]12	
InChI=1S/C6H9NO2/c1-6(9)2-3(8)4-5(6)7-4/h4-5,7,9H,2H2,1H3	InChI=1S/C6H9NO2/c1-6(9)2-3(8)4-5(6)7-4/h4-5,7,9H,2H2,1H3/t4-,5-,6-/m1/s1
