20
gdb 85739	3.2754	1.21362	1.04036	1.8303	84.27	-0.2325	0.0449	0.2774	1218.0359	0.171253	-365.963972	-365.955437	-365.954492	-365.996858	33.544	
C	 0.0084102973	 1.5736091202	-0.0185717929	-0.405533
C	 0.0646087919	 0.0446489212	 0.005935678	 0.017833
C	 0.8189434902	-0.5862300147	-1.182830918	-0.260187
C	 1.3430274566	-1.9377885049	-0.6174528479	-0.157763
C	 2.5620272407	-2.4101636312	-1.2613515589	 0.346117
C	 3.5679993341	-2.7763077888	-1.807649444	-0.455244
N	 1.5014635448	-1.7804244867	 0.8551527022	-0.101009
C	 2.2583849053	-0.5757480398	 1.2318189011	-0.250554
C	 0.7728884774	-0.5491108191	 1.2190063322	-0.01971
H	 1.0160455965	 2.0028024062	-0.0181539443	 0.118029
H	-0.5123718028	 1.9358059072	-0.9109359824	 0.116802
H	-0.5219050217	 1.9640424275	 0.8562386562	 0.1169
H	-0.9641328828	-0.3402493855	 0.0137445499	 0.079031
H	 0.1851133441	-0.7348259402	-2.0598512944	 0.111052
H	 1.6544448603	 0.0461775101	-1.4958737143	 0.114279
H	 0.5632152879	-2.6994974872	-0.7435128468	 0.110836
H	 4.4557347173	-3.1125770825	-2.2834268039	 0.195662
H	 2.7883397494	-0.6614102058	 2.175498577	 0.117408
H	 2.8051084079	-0.0382245716	 0.4619540252	 0.117613
H	 0.2292091356	-0.5779578544	 2.159946686	 0.088436
92.3485	134.9346	176.9264	231.6307	270.3791	314.8879	384.9878	456.8521	513.7902	537.007	605.2279	614.8688	634.7442	653.3983	747.7293	822.8331	867.7359	881.0446	935.3089	949.5619	995.0243	1022.313	1051.5762	1062.6806	1084.2898	1108.8538	1124.0988	1155.5732	1167.2329	1204.0958	1259.597	1270.5496	1322.8166	1334.4236	1357.9125	1369.0177	1390.6046	1413.224	1492.9682	1495.8507	1499.0088	1521.4105	2238.5943	3011.5852	3022.5298	3031.0781	3066.4304	3099.7152	3101.5889	3112.3452	3117.4039	3138.4354	3198.0315	3504.2195
CC1CC(C#C)N2CC12	C[C@H]1C[C@@H](C#C)N2C[C@@H]12	
InChI=1S/C8H11N/c1-3-7-4-6(2)8-5-9(7)8/h1,6-8H,4-5H2,2H3	InChI=1S/C8H11N/c1-3-7-4-6(2)8-5-9(7)8/h1,6-8H,4-5H2,2H3/t6-,7+,8-,9?/m0/s1
