14
gdb 123370	4.14994	0.94706	0.90977	4.9022	71.47	-0.229	-0.0184	0.2106	1272.5982	0.099435	-432.799889	-432.791467	-432.790522	-432.834257	30.045	
C	 0.0986206251	-0.371490169	-1.0640522779	-0.446352
C	 0.0668196482	 0.422301435	-0.1629755194	 0.30862
C	 0.0668841193	 1.3789131671	 0.9444368452	-0.324849
N	 1.3234259069	 2.1175367899	 1.0895501831	-0.375844
C	 1.5715377005	 3.2370856349	 0.354360648	 0.511012
C	 2.7584462667	 3.8944046756	 0.0857662438	-0.239389
N	 2.4252983753	 5.0024769606	-0.6296545983	-0.071667
N	 1.2086050165	 5.1149972884	-0.8416492903	-0.040067
O	 0.5645376414	 3.8967849844	-0.1715475905	-0.248232
H	 0.1136962392	-1.0647574061	-1.8688403208	 0.210922
H	-0.7321807694	 2.1128216323	 0.8140746556	 0.179871
H	-0.1277902481	 0.8575025248	 1.8877825818	 0.148634
H	 2.1361633203	 1.547571549	 1.27120416	 0.261775
H	 3.7715610081	 3.6515422332	 0.3527182997	 0.125566
31.7808	61.4218	185.6972	199.6875	289.2282	320.166	351.2343	464.4978	536.5744	597.1176	633.1527	661.8372	677.8445	717.3804	730.9384	746.0758	935.3858	952.6661	982.885	1049.2095	1100.3545	1148.8195	1261.8288	1318.7692	1373.6341	1398.8086	1466.685	1499.9	1514.789	1625.413	2239.7779	3052.8156	3109.6264	3292.1586	3502.5592	3616.1774
C#CCNC1=CN=NO1	C#CCNc1cnno1	
InChI=1S/C5H5N3O/c1-2-3-6-5-4-7-8-9-5/h1,4,6H,3H2	InChI=1S/C5H5N3O/c1-2-3-6-5-4-7-8-9-5/h1,4,6H,3H2
