16
gdb 127252	3.24514	1.43573	1.00218	5.3446	82.9	-0.1935	-0.0331	0.1604	1138.6187	0.125703	-430.22777	-430.219543	-430.218599	-430.260411	31.13	
C	 0.0133391126	 1.4597574512	 0.0197826402	-0.324973
N	-0.0227522016	 0.0071939985	 0.0015208783	 0.003314
C	-1.2249183833	-0.6729461225	-0.0119536418	-0.073782
C	-1.2163396282	-2.0307775149	-0.0380762049	 0.245453
N	-2.2986144278	-2.8534924412	-0.103055124	-0.586046
C	 0.0921929251	-2.6859178734	-0.025750513	 0.358919
N	 0.139559578	-3.9707788628	-0.0161807629	-0.559286
N	 1.2348161598	-1.8741853858	-0.015311792	-0.305866
N	 1.1659614601	-0.5973726546	-0.0038393899	-0.078746
H	 1.060936946	 1.7569131176	 0.0287012457	 0.168195
H	-0.4783747562	 1.8687254257	-0.8690466277	 0.142871
H	-0.4870949143	 1.8463810837	 0.9138049301	 0.14159
H	-2.1193937065	-0.0635498183	-0.0075369884	 0.119344
H	-3.2027036552	-2.5193884901	 0.1854874593	 0.250777
H	-2.0711971457	-3.8232357851	 0.0773514081	 0.27847
H	 1.1137857473	-4.2751678983	 0.0014738227	 0.219766
93.8843	140.8361	176.6073	298.1049	328.4575	341.2552	367.2969	419.4006	474.1177	528.4537	544.5059	579.0377	590.2995	742.911	793.7038	803.4209	830.5888	871.6982	989.2023	1057.6206	1101.104	1127.1782	1151.8337	1199.6427	1311.5703	1349.7	1394.5365	1433.7227	1469.3905	1483.078	1485.353	1511.1721	1601.8811	1664.1302	1699.9091	3034.5075	3093.5619	3170.6022	3208.5501	3476.5674	3544.7686	3693.2679
CN1C=C(N)C(=N)N=N1	Cn1cc(N)c([NH])nn1	
InChI=1S/C4H7N5/c1-9-2-3(5)4(6)7-8-9/h2,6H,5H2,1H3	InChI=1S/C4H12N5/c1-9-2-3(5)4(6)7-8-9/h3-4,6-8H,2,5H2,1H3
