20
gdb 39411	2.43973	1.91496	1.35048	1.124	78.08	-0.2201	0.0819	0.302	1008.5466	0.173811	-403.10291	-403.095468	-403.094524	-403.134592	29.984	
C	 0.0958438914	 1.4550948943	-0.1315480938	-0.259051
C	 1.2630611904	 0.5365392188	-0.0346146855	-0.028868
C	 2.2931814321	 0.5946263283	 1.0519647957	 0.035057
O	 1.8952693218	 0.7133764381	 2.4194510186	-0.252249
C	 2.4607310672	-0.5335243431	 1.9812813373	 0.046671
C	 1.5785638105	-1.7699708591	 1.8808058196	-0.246652
C	 0.0519771557	-1.5881591855	 2.0523323171	-0.196088
C	-0.5751018317	-0.305931927	 1.4847014196	-0.144618
N	-0.0997918093	 0.0309315635	 0.1372705728	-0.101635
H	-0.0578014559	 2.1434370782	 0.6983046546	 0.117631
H	-0.2413743208	 1.8190221501	-1.0987777025	 0.111867
H	 1.7178491737	 0.2104025012	-0.9721629293	 0.092279
H	 3.1732419907	 1.1870518915	 0.7919787461	 0.091625
H	 3.4603763761	-0.7108973219	 2.3800503239	 0.091542
H	 1.7801689142	-2.2214960831	 0.9011812881	 0.118247
H	 1.9170451778	-2.5040725658	 2.6200196994	 0.104064
H	-0.4283877628	-2.4653165679	 1.6055213626	 0.104146
H	-0.1954108578	-1.6124806801	 3.1193729897	 0.105608
H	-1.6589844013	-0.4519796992	 1.4036438238	 0.094951
H	-0.4069865523	 0.5135016488	 2.1908502322	 0.115474
109.0555	202.2315	229.187	274.4246	321.3085	399.2882	468.5891	508.4135	642.0872	663.2682	725.8018	763.9411	767.4037	837.9445	885.9906	900.7132	939.1324	952.0461	997.2206	1048.7449	1054.398	1095.9299	1101.405	1114.02	1125.3656	1132.6367	1148.482	1176.8086	1237.3499	1261.6482	1293.7908	1310.4592	1325.9447	1363.8002	1371.3407	1400.4715	1416.3817	1419.696	1469.283	1484.5946	1496.9353	1500.7819	1521.3206	3024.5856	3027.4624	3040.6353	3056.3069	3065.4436	3075.7451	3084.7939	3087.6657	3091.6605	3102.7261	3177.7
C1C2C3OC3CCCN12	C1[C@H]2[C@H]3O[C@H]3CCCN12	
InChI=1S/C7H11NO/c1-2-6-7(9-6)5-4-8(5)3-1/h5-7H,1-4H2	InChI=1S/C7H11NO/c1-2-6-7(9-6)5-4-8(5)3-1/h5-7H,1-4H2/t5-,6-,7+,8?/m0/s1
