15
gdb 43883	4.98312	1.11906	1.07088	2.9526	64.95	-0.2739	0.0052	0.279	1099.719	0.111971	-457.745242	-457.73816	-457.737215	-457.777074	27.223	
O	 0.1186169266	 0.1855541208	-0.7550475954	-0.30891
C	-0.043019241	 1.1918351639	-0.1474260662	 0.433921
C	-1.1967246924	 2.0653627988	 0.3425814371	-0.492467
C	-0.0748154146	 2.9379717384	 0.9163352917	 0.44271
C	 0.1948804922	 4.4386185785	 0.5882136532	-0.332713
C	 0.3046574047	 4.6871636651	 2.0995977527	 0.040542
O	-0.9311367329	 4.2458016551	 2.6784521188	-0.240469
C	 0.075729364	 3.2655449791	 2.4059903216	-0.06333
O	 0.9280129844	 2.0152137451	 0.3841556869	-0.279603
H	-1.7944875481	 2.5100480699	-0.4547083251	 0.150013
H	-1.8549198248	 1.5885631359	 1.0708588335	 0.15343
H	 1.1442744796	 4.5412811597	 0.0576620444	 0.136804
H	-0.5928159372	 4.9911621341	 0.0716407102	 0.120172
H	 0.8670023117	 5.4403489731	 2.6364736898	 0.118653
H	 0.4136768677	 2.6281371026	 3.2142082569	 0.121249
93.7352	116.6703	256.8702	377.9562	386.8058	426.4729	494.9365	520.8817	586.2598	778.1047	797.2604	843.8422	856.1233	867.854	891.3826	947.8169	963.309	982.2972	1030.0227	1054.5241	1066.2007	1125.3889	1139.6815	1182.0389	1219.8416	1224.5981	1238.7405	1267.1667	1319.056	1380.9457	1452.0109	1462.5057	1947.8972	3072.3482	3090.9082	3135.6676	3146.99	3193.8646	3210.607
O=C1CC2(CC3OC23)O1	O=C1C[C@]2(C[C@H]3O[C@@H]23)O1	
InChI=1S/C6H6O3/c7-4-2-6(9-4)1-3-5(6)8-3/h3,5H,1-2H2	InChI=1S/C6H6O3/c7-4-2-6(9-4)1-3-5(6)8-3/h3,5H,1-2H2/t3-,5-,6+/m1/s1
