16
gdb 77237	3.01372	1.07643	0.89536	2.8984	66.97	-0.2486	-0.0497	0.1989	1263.6859	0.12198	-475.00117	-474.992192	-474.991248	-475.036014	31.389	
O	 0.1267069448	 1.1822550618	-0.3953754354	-0.416475
C	-0.1309205087	-0.1572624631	-0.0926132555	 0.113785
C	 0.2434788232	-0.6275127721	 1.3579367924	-0.107774
N	-1.17907929	-0.6134799009	 1.7239524233	-0.332314
C	-1.6007917996	-0.5552676737	 0.3060318204	-0.110129
C	-2.6756075231	 0.4697293347	 0.006686173	 0.16613
O	-3.3925899457	 0.4310350015	-0.9575858129	-0.238515
C	 0.9100974832	-1.9812097947	 1.3953395161	 0.140745
O	 0.338881276	-2.9940487466	 1.7145772288	-0.245946
H	-0.1554819022	 1.7322050793	 0.3444226326	 0.296543
H	 0.290252346	-0.7398390857	-0.9131942774	 0.1187
H	 0.8782172883	 0.0893875908	 1.8997837278	 0.098334
H	-1.4640640079	-1.4578152239	 2.212513183	 0.240325
H	-1.8857988381	-1.5128707843	-0.1447993015	 0.107207
H	-2.7447397399	 1.2821846016	 0.7661893179	 0.07623
H	 1.9813754137	-1.9849139445	 1.0951419274	 0.093155
48.0127	77.2836	105.5325	195.4359	201.0978	270.0267	329.2542	347.9117	407.2584	478.3704	537.5749	678.7466	763.5972	821.1483	845.7524	875.493	972.4707	1007.7599	1030.5798	1047.0056	1100.9129	1125.1807	1138.4373	1183.4518	1216.5083	1246.7765	1292.9927	1311.8441	1332.5646	1400.0741	1409.0939	1417.6777	1438.4624	1816.068	1835.9047	2870.6736	2891.8761	3001.7895	3046.6735	3108.2336	3516.7923	3800.777
OC1C(NC1C=O)C=O	O[C@H]1[C@@H](N[C@H]1C=O)C=O	
InChI=1S/C5H7NO3/c7-1-3-5(9)4(2-8)6-3/h1-6,9H	InChI=1S/C5H7NO3/c7-1-3-5(9)4(2-8)6-3/h1-6,9H/t3-,4-/m0/s1
