20
gdb 110384	5.31775	0.96301	0.95064	2.8515	79.67	-0.2384	0.0683	0.3067	1315.0785	0.171192	-403.044226	-403.036031	-403.035087	-403.076992	31.92	
C	-0.2832382674	 1.495337614	-0.0946388203	-0.428443
C	-0.0060094122	 0.0048388463	-0.0051043045	 0.005376
C	 1.2840830951	-0.5719605594	-0.603262849	-0.009323
C	 2.1896593487	-0.1256354967	 0.5893840195	-0.106978
C	 2.6908163497	-1.5638062031	 0.7026150383	 0.027055
C	 3.0972430444	-2.2010633631	 2.0167575799	-0.086688
O	 2.9764612423	-3.6112525404	 1.9331398857	-0.423065
N	 1.2210470445	-1.8039493534	 0.3399614641	-0.193761
C	 0.805041901	-0.553903374	 1.173276125	-0.024876
H	 0.6069146737	 2.0885905969	 0.138879323	 0.11787
H	-0.6146316446	 1.7720134673	-1.1011209613	 0.122051
H	-1.0735176301	 1.7889057661	 0.6044303077	 0.12175
H	-0.8924940095	-0.595968577	-0.2385564424	 0.082453
H	 1.5834272582	-0.7004078191	-1.6459501916	 0.081722
H	 2.7216492371	 0.8216361158	 0.7217224762	 0.069263
H	 3.3544266963	-1.9096283889	-0.1000926157	 0.077553
H	 4.1479764672	-1.9848553395	 2.2403935659	 0.106005
H	 2.4968146951	-1.7955424427	 2.8470596973	 0.082489
H	 2.1110045734	-3.783674993	 1.5418355391	 0.294238
H	 0.5155319073	-0.6502561861	 2.2206215532	 0.085309
82.5583	134.2578	207.906	218.0499	245.271	320.5025	422.4983	451.2853	506.7115	579.951	720.6197	739.1577	790.8526	832.9404	848.315	875.2791	879.0212	935.8902	1016.7245	1022.5407	1027.9926	1048.276	1070.7098	1095.0816	1107.1794	1123.6047	1141.3558	1150.928	1175.8891	1182.4461	1214.3805	1242.5104	1253.0521	1270.1997	1314.342	1346.6888	1393.9076	1407.048	1416.036	1445.5401	1495.9264	1501.394	1509.0355	2974.125	3031.8202	3032.4461	3047.2877	3052.6861	3064.8344	3091.6425	3097.1636	3103.5447	3106.188	3778.9442
CC1C2C3C(CO)N2C13	C[C@H]1[C@H]2[C@@H]3[C@@H](CO)N2[C@H]13	
InChI=1S/C7H11NO/c1-3-6-5-4(2-9)8(6)7(3)5/h3-7,9H,2H2,1H3	InChI=1S/C7H11NO/c1-3-6-5-4(2-9)8(6)7(3)5/h3-7,9H,2H2,1H3/t3-,4-,5-,6-,7+/m1/s1
