18
gdb 12671	2.84701	2.17288	1.42695	3.8973	68.49	-0.2279	0.0669	0.2948	913.5875	0.155507	-381.178649	-381.170469	-381.169524	-381.211115	29.93	
C	 0.1411503563	 1.5929265127	-0.0017568492	-0.397896
C	-0.0111865892	 0.0661221678	 0.0129929696	 0.031109
C	 0.702941868	-0.6188902127	-1.1809117502	-0.182413
N	 1.9931914727	-0.9618334039	-0.6001507633	-0.357709
C	 1.8716646579	-1.1238643327	 0.7795051184	 0.445224
O	 2.6832032595	-1.6400592907	 1.5192965315	-0.426902
N	 0.658253329	-0.5714570169	 1.1389650268	-0.091432
C	 0.2944287546	-0.3700617922	 2.5190923674	-0.344619
H	 1.196792713	 1.8735698045	-0.0697456827	 0.135811
H	-0.388255138	 2.0181859003	-0.860539652	 0.117628
H	-0.2778189615	 2.0430760994	 0.9028884215	 0.121811
H	-1.0779638289	-0.1889683321	 0.0185725553	 0.083254
H	 0.1444776251	-1.5062755123	-1.5115468064	 0.104458
H	 0.8072147223	 0.0599778126	-2.0323633562	 0.112336
H	 2.5954668588	-1.6252875131	-1.0618122516	 0.249637
H	 0.9838777094	-0.9610498355	 3.1249105403	 0.164891
H	 0.3713809543	 0.6810011022	 2.8285950959	 0.117866
H	-0.7316258332	-0.7091968374	 2.7055535349	 0.116948
100.9712	124.2811	173.1681	207.6652	252.7152	293.2476	347.3613	427.2566	508.3926	534.3921	662.3858	732.8498	764.1519	777.7857	859.4595	953.3846	976.9582	1048.262	1082.7592	1119.3895	1142.2376	1162.635	1185.0222	1239.9746	1276.5069	1299.3567	1331.6081	1379.6008	1403.3484	1424.5694	1432.3894	1463.1863	1488.0001	1494.648	1502.5181	1524.3684	1532.6654	1829.704	2994.8714	3006.061	3027.0451	3038.0121	3056.4415	3074.8905	3109.466	3117.8973	3139.0209	3636.6281
CC1CNC(=O)N1C	C[C@H]1CNC(=O)N1C	
InChI=1S/C5H10N2O/c1-4-3-6-5(8)7(4)2/h4H,3H2,1-2H3,(H,6,8)	InChI=1S/C5H10N2O/c1-4-3-6-5(8)7(4)2/h4H,3H2,1-2H3,(H,6,8)/t4-/m0/s1
