15
gdb 77845	2.15037	1.62287	1.51309	4.9035	69.32	-0.2677	-0.0402	0.2275	978.5104	0.111998	-416.794901	-416.786831	-416.785887	-416.827645	29.437	
C	-0.1924026287	 1.6245454035	-0.0103933893	-0.432183
C	 0.0469917612	 0.1207455521	-0.0371402069	-0.131965
C	 0.7569668398	-0.6019029644	-1.1879139269	-0.054546
C	 2.224424875	-0.4027034842	-1.2322329046	-0.169904
C	 2.8983483254	 0.8062111493	-0.8205274044	 0.324066
N	 3.4675612063	 1.7672245862	-0.5212762433	-0.328799
N	 1.6676601437	-1.3761487659	-0.2397058828	-0.184677
C	 1.1083898595	-0.5538717919	 0.8541029235	 0.391283
O	 1.390394406	-0.5652583877	 2.0051877954	-0.270493
H	 0.7187606613	 2.1909001965	-0.208690565	 0.160945
H	-0.9456451383	 1.9054113625	-0.7526576977	 0.129058
H	-0.5648231515	 1.9180119053	 0.9752621071	 0.145859
H	-0.8936411248	-0.4087475736	 0.1627904299	 0.133246
H	 0.2583158832	-1.1210088214	-1.9980376467	 0.128082
H	 2.749948662	-0.9217699464	-2.0292017685	 0.160027
98.6214	133.957	176.1965	190.7078	244.6194	265.2561	433.6054	480.1711	548.4481	605.2003	672.2399	682.523	734.8019	806.6933	836.7596	911.9741	935.7906	971.9411	1053.8715	1057.7753	1093.1879	1114.0386	1162.5305	1226.443	1233.2426	1332.3687	1356.9682	1394.7792	1416.2845	1495.6945	1501.5724	1937.2998	2355.3176	3038.5688	3051.2492	3116.5479	3146.796	3155.7326	3191.8434
CC1C2C(C#N)N2C1=O	C[C@H]1[C@H]2[C@@H](C#N)N2C1=O	
InChI=1S/C6H6N2O/c1-3-5-4(2-7)8(5)6(3)9/h3-5H,1H3	InChI=1S/C6H6N2O/c1-3-5-4(2-7)8(5)6(3)9/h3-5H,1H3/t3-,4+,5-,8?/m0/s1
