21
gdb 63872	2.46543	1.4069	1.20258	3.0458	83.79	-0.2407	-0.0224	0.2183	1154.9064	0.180977	-387.084445	-387.075296	-387.074352	-387.117728	35.363	
C	-0.0925306105	 1.5907864181	-0.1379479505	-0.446406
C	-0.0052632963	 0.0694035636	-0.012339454	 0.242589
C	-1.3679022721	-0.5669211761	-0.3015923527	-0.447973
C	 1.1331115886	-0.6375147316	-0.8393783366	-0.28056
C	 1.7306838059	-1.2105185777	 0.4470375967	-0.069215
C	 2.1138016818	-0.1328745968	 1.3878769511	-0.33238
C	 0.6399640425	-0.475577823	 1.2904938291	 0.227573
C	-0.0423699004	-1.0561999488	 2.4571047664	 0.050374
O	 0.5238664761	-1.554338898	 3.4063456276	-0.283406
H	 0.8676066238	 2.0765308849	 0.0564839565	 0.114922
H	-0.4097910441	 1.8776914889	-1.1470443188	 0.115176
H	-0.8229677111	 1.9997446619	 0.5693264472	 0.116281
H	-1.6704761052	-0.3524522325	-1.3324484993	 0.116666
H	-1.3384970559	-1.6548676348	-0.1793126764	 0.116597
H	-2.1486502391	-0.1742428159	 0.3588941453	 0.118231
H	 0.7408811826	-1.3970635759	-1.5189514899	 0.106417
H	 1.8001329444	 0.0242553271	-1.4019449034	 0.099838
H	 2.0417492254	-2.2369017325	 0.5981597152	 0.109473
H	 2.5578611836	-0.4549908827	 2.323396237	 0.145667
H	 2.4632569415	 0.8251235184	 1.0130306413	 0.113388
H	-1.1532232515	-1.0303153567	 2.4154483782	 0.066746
101.1678	146.9002	193.8753	216.4078	236.6997	288.4398	311.1744	337.2443	358.4627	426.2165	457.2032	553.5929	602.9194	730.025	772.5647	818.1069	869.4966	896.7489	924.2266	948.0488	965.1541	993.4907	1014.2645	1037.4176	1058.6445	1067.3273	1089.1752	1138.8842	1172.1964	1227.6817	1237.2085	1250.6405	1288.7379	1306.6757	1371.0462	1405.6902	1423.7418	1440.1496	1473.2689	1481.8236	1489.4268	1496.983	1505.5846	1507.8834	1785.165	2888.3602	3023.8356	3029.5488	3046.0744	3088.4106	3094.2155	3096.8008	3108.3389	3109.9647	3122.8613	3192.5235	3220.9937
CC1(C)CC2CC12C=O	CC1(C)C[C@H]2C[C@@]12C=O	
InChI=1S/C8H12O/c1-7(2)3-6-4-8(6,7)5-9/h5-6H,3-4H2,1-2H3	InChI=1S/C8H12O/c1-7(2)3-6-4-8(6,7)5-9/h5-6H,3-4H2,1-2H3/t6-,8-/m0/s1
