16
gdb 28378	3.17966	1.39548	0.97561	4.22	79.5	-0.1961	-0.0307	0.1653	1155.9232	0.125214	-434.10877	-434.100621	-434.099677	-434.141225	31.304	
C	-0.0330178543	 1.5056915552	 0.0190520368	-0.453556
C	-0.0091347053	 0.007675378	-0.0230649555	 0.298253
N	-0.0362234134	-0.610772699	-1.162329073	-0.291235
C	-0.0147496522	-1.9833334058	-1.2181001831	-0.218432
C	 0.0352704526	-2.7224594646	-0.0800914827	 0.440882
O	 0.0618177093	-4.0690380757	 0.0318311553	-0.419358
N	 0.0643480791	-2.0918396256	 1.1277837183	-0.404641
C	 0.0455605574	-0.6975120662	 1.272656138	 0.322711
N	 0.0717559555	-0.0655710476	 2.3885474554	-0.54705
H	 0.8531395568	 1.892190293	 0.53389315	 0.138996
H	-0.0749746655	 1.8990893698	-0.9971782016	 0.125234
H	-0.8936139511	 1.8626261477	 0.5949024854	 0.139069
H	-0.0391009744	-2.4487493495	-2.1965606582	 0.096815
H	 0.0390546112	-4.4551899383	-0.8505956249	 0.316841
H	 0.1014622464	-2.668281044	 1.9566892904	 0.259508
H	 0.1088932379	-0.6997156874	 3.1885200495	 0.195964
113.4209	153.2413	172.6919	303.045	341.3686	346.1967	360.6778	450.0869	485.008	522.1671	572.2909	572.891	666.0319	719.7525	762.2991	764.7015	775.5927	808.2122	981.6782	1048.1997	1053.9458	1101.9869	1202.1602	1215.6345	1224.7303	1297.7052	1341.4709	1394.1271	1409.835	1465.8983	1468.3366	1544.4383	1602.1899	1663.3433	1701.9404	3040.6693	3091.7261	3149.8945	3186.4104	3451.9345	3608.2728	3826.3497
CC1=NC=C(O)NC1=N	Cc1ncc(O)[nH]c1[NH]	
InChI=1S/C5H7N3O/c1-3-5(6)8-4(9)2-7-3/h2H,1H3,(H3,6,8,9)	InChI=1S/C5H12N3O/c1-3-5(6)8-4(9)2-7-3/h3-9H,2H2,1H3
