17
gdb 109327	2.13917	1.43727	0.93844	2.3384	76.59	-0.2385	0.0149	0.2535	1236.8037	0.133904	-421.77938	-421.770196	-421.769252	-421.813939	32.928	
O	-0.023176133	 1.4607740348	 0.0543191642	-0.414372
C	 0.0060307103	 0.0467434191	 0.1121988165	-0.182159
C	-1.3874962213	-0.4771946702	 0.0337177049	 0.304363
C	-2.5255348281	 0.1917303888	-0.1013432041	-0.202488
C	-3.6837943196	-0.7588039471	-0.1472978839	-0.118111
O	-3.1151500895	-2.0562824121	 0.0436880166	-0.267232
C	-1.6907075252	-1.9659530349	 0.0911591564	-0.143063
C	-1.0649119899	-2.7162151894	-1.0065064396	 0.340038
C	-0.5332157377	-3.3229837451	-1.8975671988	-0.476215
H	 0.8842677135	 1.7772477644	 0.0366283964	 0.292335
H	 0.5961613173	-0.384186488	-0.7136140993	 0.114478
H	 0.4761087769	-0.3095400361	 1.0467567557	 0.098264
H	-2.6201215981	 1.2660953232	-0.175760248	 0.124081
H	-4.4215215112	-0.5719038224	 0.6469243564	 0.110445
H	-4.221352247	-0.7195094552	-1.1078542744	 0.111061
H	-1.3478298872	-2.405893339	 1.0424562874	 0.108592
H	-0.0741808301	-3.8653016907	-2.6870608465	 0.199982
65.6064	78.3422	128.689	202.5859	212.0444	231.3495	242.1123	378.7018	413.9941	513.708	576.5358	618.8107	668.872	688.794	777.5244	814.0194	898.4991	932.9305	952.147	1022.0567	1045.0686	1047.0971	1076.3443	1103.9756	1184.4978	1195.6143	1216.4678	1250.4899	1280.8606	1316.7265	1348.5272	1376.1197	1470.1383	1508.9646	1521.1772	1744.7459	2231.0246	2940.5224	2959.8188	2975.7326	2979.6605	3005.6066	3239.4532	3501.0489	3840.1008
OCC1=CCOC1C#C	OCC1=CCO[C@H]1C#C	
InChI=1S/C7H8O2/c1-2-7-6(5-8)3-4-9-7/h1,3,7-8H,4-5H2	InChI=1S/C7H8O2/c1-2-7-6(5-8)3-4-9-7/h1,3,7-8H,4-5H2/t7-/m0/s1
