20
gdb 30922	1.95679	1.86886	1.02317	2.0203	83.73	-0.1869	0.0512	0.238	1209.1842	0.169797	-403.175395	-403.165325	-403.164381	-403.210817	35.451	
C	-0.0077888643	 1.3835321668	 0.0268024069	-0.248942
O	 0.072968617	-0.0423187365	 0.0422266983	-0.273869
C	 0.5887714268	-0.5980571939	-1.0874314335	 0.256682
C	-0.0271159172	-0.9558946062	-2.2666612053	 0.175724
C	-1.4761595521	-0.7676967184	-2.5983412463	-0.507376
C	 0.9903152184	-1.55160378	-3.0715828075	-0.259872
C	 2.1639323856	-1.5379976278	-2.3578138018	-0.105217
N	 1.9220968461	-0.952969616	-1.1368628289	-0.040172
C	 2.8874704675	-0.741075527	-0.0808440828	-0.344437
H	 0.9866628069	 1.8396979172	-0.0602948634	 0.113897
H	-0.631748478	 1.7337187369	-0.8032852028	 0.126434
H	-0.4603677559	 1.6816948454	 0.9752599419	 0.128239
H	-1.6318347267	-0.0042747886	-3.3710233374	 0.117588
H	-1.9263371145	-1.6946178574	-2.9713744415	 0.1221
H	-2.0381964313	-0.4626736791	-1.7106372427	 0.122472
H	 0.8603616081	-1.9595509474	-4.0630919833	 0.088567
H	 3.1487991559	-1.902455894	-2.6035495571	 0.109409
H	 3.5254071993	 0.1290495457	-0.2779481006	 0.129047
H	 2.3509385358	-0.5789928191	 0.8551573874	 0.153061
H	 3.5256286925	-1.6224153806	 0.0270918904	 0.136665
58.0189	96.1461	126.6175	134.5324	151.9114	176.9563	248.4866	254.5623	295.8967	417.3174	511.4138	573.4109	620.4274	659.4843	698.3435	742.6149	754.1523	794.5408	981.3232	1024.727	1042.3203	1062.7359	1074.3443	1112.5815	1152.0556	1175.0197	1202.8347	1241.9077	1251.6196	1369.4702	1398.397	1416.594	1436.9907	1450.6858	1485.5449	1489.4297	1494.2455	1497.7699	1498.9989	1505.6353	1515.3039	1540.1762	1634.9843	3009.7501	3018.3679	3025.186	3066.7943	3076.853	3092.4342	3104.2007	3125.6218	3144.8566	3236.0126	3261.781
COC1=C(C)C=CN1C	COc1c(C)ccn1C	
InChI=1S/C7H11NO/c1-6-4-5-8(2)7(6)9-3/h4-5H,1-3H3	InChI=1S/C7H11NO/c1-6-4-5-8(2)7(6)9-3/h4-5H,1-3H3
