17
gdb 46585	2.72244	1.79821	1.42844	2.2706	71.43	-0.2363	-0.0196	0.2167	943.4777	0.13711	-421.797065	-421.790023	-421.789079	-421.828388	28.259	
O	-0.0568380072	-0.0436147277	-0.1422678551	-0.317659
C	-0.0339994582	 1.1568058653	-0.0373387974	 0.341127
C	-1.286284041	 2.0813978814	-0.0862972922	-0.337207
C	-0.8233624684	 3.3367879223	-0.8811643872	-0.301893
C	 0.6627467255	 3.3841423806	-0.5850389748	 0.399668
C	 1.1817891481	 3.3229549543	 0.7954129704	-0.370259
C	 1.1616175178	 2.0444261709	-0.050376552	 0.037612
C	 2.2174052103	 2.1686638533	-1.1541221989	-0.149128
O	 1.6991505154	 3.4756522042	-1.5670843903	-0.326333
H	-2.1178637246	 1.5477536228	-0.5488222334	 0.135822
H	-1.5962833605	 2.3400390686	 0.9331618587	 0.129057
H	-0.9572235248	 3.1730133029	-1.95465436	 0.130688
H	-1.3647766095	 4.2469376233	-0.6078711048	 0.113673
H	 2.1578515794	 3.7444755562	 1.0101094326	 0.135033
H	 0.4701323613	 3.3745423057	 1.6109931228	 0.132565
H	 3.265769611	 2.2270480973	-0.8445376655	 0.117003
H	 2.1021354556	 1.4317402286	-1.954402443	 0.130232
109.2457	193.8419	257.1006	349.6829	413.6798	440.7246	499.2343	560.8722	604.1285	678.4482	734.4612	744.543	798.275	860.9669	906.8322	943.7785	955.3873	969.751	978.8485	997.2276	1032.2921	1063.1192	1091.0608	1144.0963	1181.455	1204.4607	1226.1009	1276.1763	1294.357	1328.5866	1344.3092	1376.8889	1460.3116	1478.7437	1497.961	1516.141	1825.0681	3043.1824	3046.1128	3056.2404	3099.8242	3101.115	3127.6371	3139.554	3232.4783
O=C1CCC23CC12CO3	O=C1CC[C@@]23C[C@@]12CO3	
InChI=1S/C7H8O2/c8-5-1-2-7-3-6(5,7)4-9-7/h1-4H2	InChI=1S/C7H8O2/c8-5-1-2-7-3-6(5,7)4-9-7/h1-4H2/t6-,7-/m1/s1
