20
gdb 91144	2.88577	1.44264	1.19631	1.299	79.09	-0.2351	0.0275	0.2627	1129.1745	0.171638	-403.17212	-403.163642	-403.162698	-403.205515	32.136	
C	 0.3669374132	 1.5960386928	 0.0483809564	-0.40049
C	 0.1016439858	 0.097332499	 0.0501804151	 0.006511
C	 0.8906444395	-0.7917175077	-0.9699675905	-0.250143
C	 1.400111693	-1.6826809408	 0.2006052816	-0.011365
N	 2.8265783301	-1.5370246714	 0.4986904933	-0.304947
C	 2.91313164	-0.6840050257	 1.4382781298	 0.39929
C	 4.1654914371	-0.1872159797	 2.0746643336	-0.473914
O	 1.7612730507	-0.1458844344	 1.9501790788	-0.261606
C	 0.6774113815	-0.7510185448	 1.2194377882	 0.063164
H	 1.4321743499	 1.8109906982	 0.1722535239	 0.121408
H	 0.0403649	 2.0403409285	-0.897821824	 0.115006
H	-0.1692334415	 2.0983988194	 0.8603323831	 0.117857
H	-0.9757031955	-0.0839618189	-0.0279916803	 0.074974
H	 0.2739289867	-1.3004799508	-1.7145718548	 0.100584
H	 1.7060311741	-0.2752031261	-1.4825856312	 0.106214
H	 1.1143732868	-2.7357497948	 0.1572910077	 0.077194
H	 5.0264826943	-0.6798821566	 1.6244840372	 0.151666
H	 4.2533438085	 0.8963611837	 1.9459294664	 0.143735
H	 4.1466235542	-0.3850008635	 3.1509592547	 0.144808
H	-0.0361654184	-1.1491352664	 1.9437992908	 0.080055
53.5594	131.2156	163.4628	207.1742	239.5255	320.776	345.124	414.3058	520.8454	610.9637	639.2753	678.4751	764.2708	810.3937	850.7993	897.2315	918.4457	921.7108	942.0377	978.069	1003.6446	1062.7958	1070.9914	1101.5639	1118.9581	1132.7942	1180.5122	1214.8023	1237.1482	1268.1528	1279.1155	1300.4287	1309.5461	1354.7209	1365.6066	1408.8194	1414.2166	1474.9478	1476.1988	1480.8696	1491.9459	1495.3666	1728.532	3034.3133	3043.2574	3049.9637	3061.814	3078.1959	3090.0451	3099.3912	3106.7126	3111.6342	3120.0597	3165.8271
CC1CC2N=C(C)OC12	C[C@H]1C[C@H]2N=C(C)O[C@@H]12	
InChI=1S/C7H11NO/c1-4-3-6-7(4)9-5(2)8-6/h4,6-7H,3H2,1-2H3	InChI=1S/C7H11NO/c1-4-3-6-7(4)9-5(2)8-6/h4,6-7H,3H2,1-2H3/t4-,6+,7-/m0/s1
