22
gdb 114111	3.96241	0.86965	0.80245	1.2317	82.83	-0.2455	0.0733	0.3188	1520.3447	0.19387	-404.307172	-404.297475	-404.296531	-404.342008	36.075	
C	 0.1347968346	 1.491455611	 0.2608945557	-0.378759
C	-0.1439750032	 0.0145387481	-0.0496866435	-0.277444
C	 0.5383915537	-0.4473489303	-1.3054140795	 0.368308
C	 0.1503977236	-0.0683882243	-2.7498135133	-0.313222
C	 0.5509492764	-1.5124215218	-3.2047366275	 0.025005
C	 1.5705585274	-1.6815028624	-4.3152595135	-0.095437
O	 0.9951173295	-1.1705716587	-5.5096242283	-0.419579
C	 0.9842238424	-1.8124018565	-1.7591426603	-0.144447
N	 1.945567943	-0.8352399469	-1.2470419807	-0.361085
H	 1.208186925	 1.6619964212	 0.3899077948	 0.126
H	-0.2143175871	 2.1414123233	-0.5488968009	 0.115019
H	-0.3712101833	 1.8036612041	 1.1794391509	 0.110823
H	 0.2008721567	-0.6100769758	 0.7815129105	 0.107492
H	-1.2253562793	-0.1468022345	-0.1467750062	 0.093311
H	-0.9146152251	 0.1318175434	-2.8878981476	 0.106551
H	 0.7180942213	 0.7581535972	-3.1902558437	 0.096423
H	-0.345770087	-2.0822370116	-3.466623854	 0.085112
H	 2.5008814073	-1.1441099514	-4.0667285349	 0.074754
H	 1.8311051865	-2.7478994223	-4.4182293136	 0.087573
H	 1.6447506598	-1.2462030292	-6.2145957376	 0.287173
H	 0.927295572	-2.7728377493	-1.2572958292	 0.087249
H	 2.5129917858	-0.4084702333	-1.9768707475	 0.219183
71.6186	85.8216	131.7923	141.9925	217.036	239.497	275.5117	329.3936	351.4795	436.9801	447.5882	557.9332	655.6056	735.8813	786.1012	821.9544	853.7069	901.8272	920.4302	959.1424	991.2003	1010.4477	1037.1045	1061.1729	1072.75	1083.4761	1113.8096	1142.9676	1160.1176	1184.4043	1205.7085	1237.2804	1246.9634	1262.2423	1278.1827	1284.5064	1328.2661	1352.2298	1368.3436	1405.8115	1441.4015	1465.4586	1476.7197	1488.7813	1498.099	1509.1731	1516.4313	2955.568	2981.2659	3024.8323	3034.18	3047.6006	3064.7048	3070.154	3102.8408	3107.1253	3110.7365	3164.1615	3463.6078	3828.0293
CCC12CC(CO)C1N2	CC[C@]12C[C@@H](CO)[C@H]1N2	
InChI=1S/C7H13NO/c1-2-7-3-5(4-9)6(7)8-7/h5-6,8-9H,2-4H2,1H3	InChI=1S/C7H13NO/c1-2-7-3-5(4-9)6(7)8-7/h5-6,8-9H,2-4H2,1H3/t5-,6+,7-/m0/s1
