16
gdb 48998	2.3076	1.91748	1.32428	2.9759	69.66	-0.2571	-0.0452	0.2118	970.483	0.124953	-437.866337	-437.858921	-437.857977	-437.898406	27.998	
O	-0.646879142	 0.667658744	-0.8007634445	-0.253163
C	 0.0955231766	 0.9522014704	 0.1023218914	 0.137057
C	 1.224575196	 1.9528293168	-0.0036416482	 0.060256
C	 1.6374070667	 2.4932156063	 1.4044980314	-0.17207
O	 2.7766071938	 1.5440305615	 1.462234244	-0.267295
C	 2.5977742531	 1.3345137523	 0.1249534633	 0.412328
N	 3.331977101	 1.1485202092	-0.8761916939	-0.302803
C	 2.4696861394	 1.6009247415	-2.0146929354	-0.16453
C	 1.3935548285	 2.574268011	-1.3965802495	-0.318101
H	-0.0019166172	 0.4736044403	 1.1025818038	 0.090892
H	 2.0067845801	 3.5206514008	 1.4108646744	 0.142107
H	 0.9434947705	 2.3096474646	 2.2268945134	 0.134676
H	 3.103299396	 2.1054229065	-2.747493678	 0.122976
H	 2.0006010719	 0.7445212155	-2.5116440685	 0.131397
H	 0.4622859588	 2.5963970194	-1.9639535258	 0.132433
H	 1.8039898769	 3.5859912899	-1.332051048	 0.113839
88.1499	155.7909	219.7727	280.0991	292.3646	334.7421	483.9425	568.3228	620.5348	671.6268	766.5307	772.0121	837.7148	863.9776	895.0988	929.8346	940.6412	987.5308	1003.8025	1070.805	1125.4623	1148.0565	1174.6234	1200.5854	1237.5058	1259.4011	1295.2055	1315.7395	1344.3059	1428.9525	1467.5433	1495.7754	1503.8054	1780.2716	1826.173	2881.888	3051.3545	3067.4894	3071.1457	3107.8614	3138.7835	3142.9874
O=CC12COC1=NCC2	O=C[C@@]12CO[C]1[N]CC2	
InChI=1S/C6H7NO2/c8-3-6-1-2-7-5(6)9-4-6/h3H,1-2,4H2	InChI=1S/C6H7NO2/c8-3-6-1-2-7-5(6)9-4-6/h3H,1-2,4H2/t6-/m0/s1
