21
gdb 95120	2.38561	1.51011	1.1143	3.0253	82.97	-0.2449	-0.0196	0.2253	1168.2008	0.182999	-387.116142	-387.107483	-387.106538	-387.149205	33.49	
C	-0.0353218609	 1.6148959608	-0.2183679883	-0.404208
C	 0.0288315729	 0.0957452472	-0.03604225	-0.056079
C	 0.7630011057	-0.6362532683	-1.1872536001	-0.23937
C	 1.291897378	-1.9545257409	-0.5818698824	-0.229272
C	 1.5550932732	-1.636456427	 0.8818693469	-0.056067
C	 2.2688360555	-0.3740947952	 1.2273519172	-0.331138
C	 0.7489996033	-0.3686777117	 1.2286752177	 0.26814
C	 0.0603434763	-0.3201970996	 2.5360920803	 0.062059
O	 0.5747617983	-0.5699318826	 3.6024134639	-0.277625
H	 0.9702266231	 2.0488324952	-0.2445087542	 0.117372
H	-0.5383156289	 1.8765403276	-1.1552450732	 0.115036
H	-0.5840475724	 2.0956072654	 0.5982465773	 0.116611
H	-1.000487251	-0.2879716183	 0.02188205	 0.074051
H	 0.1139608778	-0.8011266952	-2.051426181	 0.102085
H	 1.5970801282	-0.0185456983	-1.5388269825	 0.104812
H	 0.531467544	-2.7413072341	-0.6463760041	 0.105516
H	 2.1816561807	-2.3246636317	-1.1028973182	 0.105009
H	 1.5806690853	-2.441934239	 1.6074671461	 0.105015
H	 2.7202142451	-0.3221345621	 2.2115821124	 0.139312
H	 2.7795918148	 0.1866000712	 0.4518819979	 0.114602
H	-1.0200817488	-0.0501147134	 2.4780674445	 0.064138
96.6931	143.7389	197.8895	217.1628	237.0783	260.4994	317.3728	394.5596	458.5678	520.9628	603.8557	620.3521	731.9419	798.2865	831.5975	848.6717	900.3984	924.5245	941.2487	973.3346	990.7112	1039.6724	1055.7452	1073.9262	1089.5544	1091.8764	1128.3623	1136.8943	1198.2224	1222.0743	1250.69	1288.8811	1314.7415	1333.7995	1348.8294	1367.81	1399.7776	1411.8332	1434.892	1466.8699	1490.9715	1497.0791	1499.3318	1510.1026	1800.1469	2855.5536	2993.6843	3029.5668	3035.9008	3044.1311	3072.9007	3094.5306	3099.0074	3100.5263	3135.5888	3176.0364	3228.1247
CC1CCC2CC12C=O	C[C@H]1CC[C@H]2C[C@@]12C=O	
InChI=1S/C8H12O/c1-6-2-3-7-4-8(6,7)5-9/h5-7H,2-4H2,1H3	InChI=1S/C8H12O/c1-6-2-3-7-4-8(6,7)5-9/h5-7H,2-4H2,1H3/t6-,7-,8+/m0/s1
