24
gdb 76922	2.41561	1.14619	0.99504	1.2932	91.06	-0.2079	0.082	0.2899	1381.8201	0.215138	-368.375082	-368.364482	-368.363538	-368.410652	39.479	
C	-1.6082231315	 1.1337333736	-0.4791608615	-0.312573
N	-0.7852142872	-0.0586246412	-0.3565846943	-0.143108
C	 0.2833361797	-0.3280763774	-1.3275891601	-0.048946
C	 0.5864592496	 0.5613686087	-2.4934404692	 0.010523
C	 1.5199753586	 0.0569464509	-3.5696982625	-0.275726
C	 0.0488639424	 0.1940271576	-3.8593050886	-0.268851
C	 0.612291491	 0.0098298708	 0.0981993424	 0.296465
C	 1.2686229712	 1.332273671	 0.4538559378	-0.456415
C	 0.9946438688	-1.1171425705	 1.0413819082	-0.433915
H	-1.0986412228	 2.0399807432	-0.8362670771	 0.095066
H	-2.4285043221	 0.9220434854	-1.1729061651	 0.122446
H	-2.0482258795	 1.3612625068	 0.4974882077	 0.118053
H	 0.3362216045	-1.384625295	-1.6023554617	 0.070415
H	 0.6470521274	 1.6236485269	-2.288437623	 0.080808
H	 2.2068474888	 0.761985827	-4.0242857227	 0.110965
H	 1.9233317966	-0.944246806	-3.4571787323	 0.113391
H	-0.5383983106	-0.7148938899	-3.9389129488	 0.11534
H	-0.2778388957	 0.9936067201	-4.5148325834	 0.11047
H	 1.0084459916	 2.1477568289	-0.2217233367	 0.117169
H	 0.9864639561	 1.6370761667	 1.4685223389	 0.116931
H	 2.3586295479	 1.2253249537	 0.4364722172	 0.120919
H	 2.075228782	-1.3004726832	 1.0201403376	 0.107797
H	 0.7174364206	-0.870560072	 2.0733334702	 0.110821
H	 0.4770749226	-2.0392408761	 0.7665946372	 0.121956
48.0175	116.5679	142.2411	159.3295	175.4395	187.9141	239.5504	264.4688	313.0903	357.3382	371.2516	460.3596	480.2988	558.2145	700.3487	731.5127	770.1414	831.0342	852.1207	904.352	923.9314	949.8351	972.6222	1009.5637	1036.9443	1061.0482	1078.0675	1103.5138	1131.4465	1138.3651	1150.3704	1155.9512	1181.2831	1199.3601	1211.1093	1228.3845	1277.7773	1331.099	1371.8596	1405.2774	1418.0378	1448.8532	1465.8588	1469.5635	1476.5981	1485.2653	1494.1356	1496.5159	1503.7774	1507.9561	1515.3853	2994.3878	3023.3604	3034.23	3061.5309	3063.527	3082.0191	3088.4648	3095.0731	3120.841	3130.1375	3133.3599	3134.7115	3177.3626	3208.309	3224.1668
CN1C(C2CC2)C1(C)C	CN1[C@@H](C2CC2)C1(C)C	
InChI=1S/C8H15N/c1-8(2)7(9(8)3)6-4-5-6/h6-7H,4-5H2,1-3H3	InChI=1S/C8H15N/c1-8(2)7(9(8)3)6-4-5-6/h6-7H,4-5H2,1-3H3/t7-,9?/m0/s1
