14
gdb 31309	2.52698	1.50377	0.9484	0.8872	77.08	-0.2098	-0.0252	0.1846	1167.6234	0.100033	-436.674827	-436.666563	-436.665619	-436.708162	29.495	
C	 0.0212389342	 1.4813355645	-0.0561167582	-0.242897
O	 0.0076614972	 0.0531359005	-0.0133374843	-0.261297
C	 0.5892164971	-0.5771697103	-1.0329244353	 0.251813
C	 0.6867983995	-1.9396590215	-1.1884061027	 0.088471
O	 1.365766946	-2.1339355441	-2.3853347571	-0.171806
C	 1.6162038298	-0.9038809793	-2.8430781603	 0.066024
N	 1.1847358166	 0.0653641209	-2.0927926154	-0.340393
C	 0.2698243759	-3.0405531373	-0.4382257295	 0.263734
C	-0.0960624479	-3.9820430022	 0.219714767	-0.420257
H	 1.0458850402	 1.8644047697	-0.0652824421	 0.139311
H	-0.5031175461	 1.8528712673	-0.9414140945	 0.13928
H	-0.4931917133	 1.8046611895	 0.849122191	 0.137026
H	 2.1459275332	-0.8267079926	-3.7797815596	 0.157156
H	-0.4199982523	-4.8085075651	 0.802129741	 0.193834
74.7959	123.2756	160.3665	167.2412	251.1712	321.0217	415.378	441.0887	507.0988	555.1406	620.1849	647.6084	699.1071	739.2625	749.518	835.1946	958.0931	1022.3051	1125.7781	1178.2463	1192.4415	1195.3412	1232.1172	1322.847	1405.0163	1478.5804	1483.7065	1499.271	1542.7544	1656.429	2226.667	3041.3147	3112.4894	3153.3654	3273.743	3501.5539
COC1=C(OC=N1)C#C	COc1c(ocn1)C#C	
InChI=1S/C6H5NO2/c1-3-5-6(8-2)7-4-9-5/h1,4H,2H3	InChI=1S/C6H5NO2/c1-3-5-6(8-2)7-4-9-5/h1,4H,2H3
