17
gdb 14387	3.75088	2.1734	1.86902	2.8132	66.61	-0.2395	0.0705	0.31	776.442	0.14234	-363.798519	-363.791552	-363.790607	-363.82905	27.91	
C	-0.040343474	 1.5777547188	 0.0543738994	-0.474789
C	 0.0810039455	 0.0608413974	 0.0186349354	 0.438377
O	-1.2035686692	-0.5431454031	 0.0951650674	-0.478227
C	 0.8310571683	-0.6373064997	-1.1013772943	-0.076282
C	 2.2781657512	-0.7281699966	-0.7344094294	-0.047062
C	 2.4936053519	-0.1114891311	 0.6377509893	-0.255414
C	 1.0966043512	-0.6856295807	 0.9290148812	-0.0748
N	 1.3056668896	-1.7450714118	-0.2055678991	-0.150784
H	 0.9191705597	 2.0767223482	-0.0997653732	 0.123401
H	-0.730338922	 1.9074705479	-0.7280545576	 0.130862
H	-0.4422103629	 1.9118575808	 1.0194338539	 0.107782
H	-1.6156932786	-0.2525125669	 0.9160645019	 0.275635
H	 0.4647113251	-0.8395714484	-2.1017325639	 0.097667
H	 3.029553042	-1.0040437941	-1.4662150236	 0.097076
H	 3.2664150428	-0.6606132345	 1.1825887742	 0.1145
H	 2.6650293472	 0.9639887474	 0.7453327533	 0.09588
H	 0.7956207322	-1.0148150236	 1.9231528248	 0.076177
191.1128	219.3408	249.4001	270.3501	382.4667	394.579	454.6225	544.4039	630.2871	749.5034	779.5482	810.7933	822.7533	904.6691	924.5133	943.6039	960.269	993.8354	1029.6973	1036.3319	1056.6803	1113.4318	1121.1995	1131.7971	1180.335	1189.2835	1217.7475	1244.5004	1263.9449	1313.7	1368.4793	1406.0281	1409.8521	1487.2285	1489.3985	1509.0787	3027.4384	3046.24	3097.1347	3099.9485	3124.5546	3129.1321	3172.9938	3185.8336	3801.8499
CC1(O)C2C3CC1N23	C[C@@]1(O)[C@H]2[C@H]3C[C@@H]1N23	
InChI=1S/C6H9NO/c1-6(8)4-2-3-5(6)7(3)4/h3-5,8H,2H2,1H3	InChI=1S/C6H9NO/c1-6(8)4-2-3-5(6)7(3)4/h3-5,8H,2H2,1H3/t3-,4+,5-,6+,7?/m1/s1
