22
gdb 120903	3.22885	0.88212	0.80175	1.5374	82.09	-0.2239	0.0734	0.2973	1513.7298	0.193907	-404.292076	-404.282418	-404.281474	-404.327135	35.743	
C	-0.1221931418	 1.51805427	 0.3039412097	-0.427305
C	 0.0581248563	 0.0460031838	 0.0095486144	 0.037593
C	 0.5377105502	-0.6094060816	-1.228346035	-0.097903
C	 1.6816904695	 0.094178922	-1.9597610554	 0.022993
C	 1.4233597822	 1.3237069165	-2.8265842379	-0.213954
C	 2.7007945037	 1.8734931197	-3.4507804867	-0.069856
O	 2.3533380359	 3.006456048	-4.2316759827	-0.420598
C	 2.391902556	 0.1643263852	-0.5780261338	-0.19685
N	 1.3370936883	-0.6915743806	 0.0787095706	-0.153327
H	-1.1084439466	 1.8466561457	-0.0405614116	 0.124776
H	-0.0743156443	 1.6891393032	 1.3852840705	 0.12392
H	 0.6208280556	 2.1605962453	-0.1674796217	 0.125616
H	-0.7039565726	-0.5546594545	 0.5067805804	 0.094178
H	 0.0257306816	-1.4826229681	-1.6252581109	 0.087245
H	 2.2013092795	-0.6532016771	-2.5705087251	 0.082245
H	 0.7280817665	 1.0610804748	-3.6338265812	 0.106604
H	 0.9454151895	 2.1262305939	-2.2574610031	 0.110103
H	 3.4183974036	 2.1416291484	-2.6574845581	 0.086823
H	 3.1780405705	 1.093917532	-4.0678977539	 0.08407
H	 3.157287606	 3.362731131	-4.6206999107	 0.28535
H	 3.3533233283	-0.3512335532	-0.5427655012	 0.108202
H	 2.5158507819	 1.1544441056	-0.1276545566	 0.100074
64.5149	84.5275	102.2605	160.3674	223.2606	267.7498	273.7819	309.5806	356.7477	401.2217	484.5649	597.3448	694.6346	738.0115	766.8309	790.9783	874.7583	907.3327	938.2744	957.213	999.102	1017.1057	1042.9803	1075.7847	1086.5315	1110.4701	1119.9246	1133.9898	1176.4695	1196.0997	1227.0749	1235.4414	1262.692	1271.5635	1297.747	1310.4907	1328.073	1372.3713	1400.4839	1412.2058	1448.6975	1460.7792	1486.4887	1494.1133	1502.8561	1514.3852	1527.6103	2955.3443	2979.7277	3033.5509	3037.2794	3039.0828	3051.137	3093.5913	3094.9896	3101.666	3108.5252	3137.0026	3148.6508	3829.3236
CC1C2C(CCO)CN12	C[C@H]1[C@H]2[C@@H](CCO)CN12	
InChI=1S/C7H13NO/c1-5-7-6(2-3-9)4-8(5)7/h5-7,9H,2-4H2,1H3	InChI=1S/C7H13NO/c1-5-7-6(2-3-9)4-8(5)7/h5-7,9H,2-4H2,1H3/t5-,6-,7-,8?/m0/s1
