19
gdb 95054	2.75124	1.56168	1.22976	3.3387	76.16	-0.223	0.0231	0.2461	1071.3275	0.161183	-419.202835	-419.194972	-419.194027	-419.235209	30.533	
C	-0.338117264	 1.4609351775	 0.2733073032	-0.333689
N	 0.0870853623	 0.0922261196	-0.0044564143	-0.046751
C	-1.0248852362	-0.832508705	-0.2884651038	-0.191916
C	-1.4518000152	-1.4403369736	 1.0763502107	-0.240165
C	-0.1435990689	-1.5020059102	 1.8490027546	 0.104856
O	 0.7068496019	-2.6278484933	 1.444474596	-0.275029
C	 1.5756308447	-1.7994140716	 0.7597051054	 0.427781
N	 2.6198890989	-2.0631226699	 0.1210221705	-0.548309
C	 0.811815785	-0.5180514394	 1.0926319764	-0.127121
H	 0.5418556168	 2.0802954672	 0.4692468665	 0.129459
H	-0.8400640247	 1.8677769125	-0.609167142	 0.126326
H	-1.0247608682	 1.5633852764	 1.133188208	 0.094562
H	-1.834477247	-0.3124884697	-0.8041422917	 0.106349
H	-0.6651751293	-1.6270046484	-0.9516770684	 0.125488
H	-2.1471706142	-0.7758914694	 1.6010764086	 0.109181
H	-1.9251559003	-2.420665426	 0.9828005213	 0.119652
H	-0.2256521469	-1.4622639548	 2.9354400228	 0.090727
H	 2.8167734176	-3.0658986719	 0.1275993411	 0.226822
H	 1.3845755579	 0.2105851296	 1.6658860451	 0.101776
99.1261	146.8298	190.2904	217.6492	309.5838	376.8572	407.7925	459.9615	606.6248	633.5128	647.8764	792.9613	832.4372	838.3597	864.1114	874.4013	893.6834	946.0617	985.3522	1004.9032	1031.7684	1050.1577	1074.5359	1119.0623	1154.211	1169.9381	1191.6912	1217.7511	1226.245	1274.6424	1306.393	1312.929	1342.7096	1359.671	1383.0751	1459.5971	1470.2879	1493.12	1502.613	1506.5094	1824.1914	2940.031	3043.8568	3052.5895	3070.0699	3108.2168	3111.2398	3112.5885	3118.3474	3124.784	3469.7533
CN1CCC2OC(=N)C12	CN1CC[C@H]2O[C]([NH])[C@@H]12	
InChI=1S/C6H10N2O/c1-8-3-2-4-5(8)6(7)9-4/h4-5,7H,2-3H2,1H3	InChI=1S/C6H10N2O/c1-8-3-2-4-5(8)6(7)9-4/h4-5,7H,2-3H2,1H3/t4-,5+/m1/s1
