22
gdb 114342	3.06914	1.05984	1.03727	2.0332	81.68	-0.2159	0.0732	0.2891	1290.1796	0.195072	-404.32002	-404.310919	-404.309975	-404.354021	34.695	
C	-0.0985366492	 1.5891412284	 0.0253456098	-0.32104
N	 0.0761873446	 0.1491584657	 0.0576100827	-0.084429
C	 1.3339819972	-0.4924354428	-0.3079582475	-0.031557
C	 2.6210909407	 0.3281608815	-0.3601618271	-0.282534
C	 3.0550240847	 0.5396859506	 1.1171986616	 0.064941
C	 3.7177227889	 1.8855043676	 1.36832951	-0.100441
O	 4.1243852515	 1.9281765775	 2.728707823	-0.422519
C	 1.7938504756	 0.2763772379	 1.9870800368	-0.249897
C	 0.8354098144	-0.5226502551	 1.107802421	-0.038239
H	 0.7600691758	 2.1916979719	 0.3571999011	 0.102186
H	-0.3397695978	 1.8900242446	-0.9995683145	 0.120791
H	-0.9515362488	 1.851815837	 0.6597271595	 0.122296
H	 1.2340970708	-1.3360781876	-0.9867736036	 0.084108
H	 3.3886473087	-0.2037174661	-0.9296271846	 0.101834
H	 2.4640639081	 1.2851860707	-0.8747455946	 0.099011
H	 3.7939499447	-0.2309633663	 1.3656788814	 0.084083
H	 4.5783526658	 2.0086130482	 0.6907159136	 0.084892
H	 3.0056471904	 2.697688237	 1.1414669886	 0.084334
H	 4.5127150825	 2.7904933879	 2.9020188668	 0.286512
H	 2.0459735823	-0.2857101822	 2.8891360746	 0.108504
H	 1.3447433368	 1.2158732972	 2.3304560823	 0.103094
H	 0.3424862622	-1.3918669837	 1.5367232188	 0.084071
58.5533	119.7396	151.5984	195.1318	258.5348	279.9797	283.8278	386.9749	422.8628	446.966	515.2373	614.2796	712.1438	735.4656	778.7068	826.868	887.0221	921.0977	946.9471	994.8517	1030.9151	1049.1831	1060.6023	1084.0249	1100.4295	1116.2217	1139.2321	1161.6539	1164.8468	1196.1905	1213.6018	1251.6113	1280.3751	1298.0368	1306.3221	1318.8148	1325.1427	1347.3106	1373.4522	1401.5718	1454.8632	1456.6306	1482.3581	1487.8631	1503.4876	1509.9163	1520.464	2950.6802	2980.0646	2990.3735	3023.4561	3035.0551	3045.2636	3063.2078	3080.8147	3095.9234	3098.0078	3125.2841	3135.4243	3831.0369
CN1C2CC(CO)CC12	CN1[C@H]2C[C@@H](CO)C[C@@H]12	
InChI=1S/C7H13NO/c1-8-6-2-5(4-9)3-7(6)8/h5-7,9H,2-4H2,1H3	InChI=1S/C7H13NO/c1-8-6-2-5(4-9)3-7(6)8/h5-7,9H,2-4H2,1H3/t5-,6+,7-,8?
