15
gdb 19113	5.29765	2.07555	2.01611	0.7339	62.42	-0.2295	0.0622	0.2918	701.2435	0.120639	-362.559474	-362.553847	-362.552903	-362.58884	23.331	
O	 0.0137901425	 1.3595379033	 0.1589904341	-0.440571
C	 0.0362298237	-0.0473600173	 0.0322401462	 0.122847
C	-1.4056294968	-0.568395308	-0.1420147014	-0.079639
C	-1.2519269069	-2.0518738795	-0.5128892657	-0.060748
C	-1.4331432034	-1.8329007621	-1.966645003	-0.057142
C	-1.3174803977	-0.3084773105	-1.7026310753	-0.067679
C	 0.2025386959	-0.5249715639	-1.4286580051	-0.039495
N	-0.0484372927	-2.0216270449	-1.4322293632	-0.161454
H	 0.9068179348	 1.6872785174	 0.0113518137	 0.28683
H	 0.6649696488	-0.5260539167	 0.795985709	 0.071346
H	-2.2260813038	-0.2422814466	 0.4929714206	 0.080918
H	-1.391601604	-2.9377583533	 0.0931699226	 0.097489
H	-1.853507735	-2.4489848684	-2.7519348882	 0.095784
H	-1.7824900768	 0.5243360311	-2.2191890583	 0.081231
H	 1.0283419813	-0.2171659407	-2.0704496062	 0.070283
206.4225	307.2429	336.6429	506.5826	524.0234	734.5367	755.5952	790.3148	803.9383	836.2492	864.5711	894.1	925.7188	938.4647	951.0488	961.6048	994.9935	1023.6793	1052.2175	1076.4324	1111.2384	1148.2587	1159.0683	1175.4138	1200.1998	1212.0852	1226.1855	1259.4072	1278.484	1316.8922	1328.5041	1414.0112	3007.1455	3112.5777	3148.3074	3172.1625	3186.251	3200.371	3813.3221
OC1C2C3C4C2C1N34	O[C@H]1[C@@H]2[C@H]3[C@H]4[C@@H]2[C@@H]1N34	
InChI=1S/C6H7NO/c8-6-2-1-3-4(2)7(3)5(1)6/h1-6,8H	InChI=1S/C6H7NO/c8-6-2-1-3-4(2)7(3)5(1)6/h1-6,8H/t1-,2+,3-,4+,5+,6+,7?/m1/s1
