18
gdb 98231	3.24147	1.07802	0.82063	1.0206	70.3	-0.2507	-0.0101	0.2406	1356.9842	0.147375	-472.470042	-472.459905	-472.458961	-472.506013	35.676	
C	-1.1668057298	 1.200849765	-0.1994718703	-0.353579
N	-0.2925599573	 0.0369277912	-0.0145554318	-0.197339
C	-0.1271242228	-0.3881557204	 1.3587942303	 0.487752
N	 0.6730062025	-1.4556644623	 1.5444216151	-0.557013
O	-0.6927278208	 0.209526845	 2.2528747826	-0.396498
C	 0.3017580244	-0.5673444246	-1.1058721927	 0.411884
O	 1.0423144196	-1.5400413109	-1.0349421814	-0.387326
C	-0.0022902531	 0.0391582257	-2.4884341983	-0.271335
N	 0.6503730372	-0.6350308551	-3.5941440302	-0.488784
H	-0.6259475548	 2.0357125682	-0.6532127222	 0.133793
H	-2.0299080945	 0.9539709685	-0.8234866265	 0.133787
H	-1.5122451874	 1.4938349489	 0.7888567772	 0.184965
H	 1.1126494406	-1.904674688	 0.7508802602	 0.289997
H	 0.7959803349	-1.760365881	 2.4939773582	 0.26405
H	-1.0868085485	 0.0322994116	-2.6501347489	 0.136563
H	 0.2889846161	 1.0962182165	-2.4866965825	 0.136458
H	 1.6534996188	-0.6388262053	-3.4289846072	 0.23627
H	 0.3907019351	-1.617806173	-3.5772645613	 0.236356
47.324	67.3037	77.7406	158.3623	210.1511	212.9405	252.7384	352.6817	358.9898	382.945	419.04	453.6016	560.3581	574.4994	680.1629	696.8907	769.2092	783.2398	877.0252	924.3647	943.1755	1106.2672	1130.7493	1154.4832	1166.3441	1180.3245	1223.8513	1312.6032	1350.1434	1387.3987	1400.2088	1449.9876	1458.3738	1504.1738	1516.5376	1577.3483	1680.3285	1744.1479	1816.4385	3034.9525	3050.2554	3072.6671	3109.4533	3183.2531	3493.6668	3505.7802	3558.9397	3718.9102
CN(C(N)=O)C(=O)CN	CN(C(=O)N)C(=O)CN	
InChI=1S/C4H9N3O2/c1-7(4(6)9)3(8)2-5/h2,5H2,1H3,(H2,6,9)	InChI=1S/C4H9N3O2/c1-7(4(6)9)3(8)2-5/h2,5H2,1H3,(H2,6,9)
