21
gdb 61304	4.46914	0.69279	0.67204	4.4998	84.39	-0.2452	0.0354	0.2806	1714.3228	0.181676	-383.259657	-383.24975	-383.248806	-383.295309	35.679	
C	-0.1653399651	 1.5702864938	 0.0217430178	-0.393514
C	 0.0942963361	 0.0610078357	 0.0505315207	 0.018193
C	 0.7834381428	-0.4284081792	-1.2455148771	-0.34807
C	-0.0227481735	-0.2011490328	-2.4426650338	 0.264735
N	-0.6742289416	-0.0214834868	-3.3802518934	-0.312787
C	 0.9495115386	-0.3519149957	 1.2582171776	-0.149537
N	 0.2775407269	-0.031714535	 2.5098890021	-0.062497
C	-0.5707878088	-1.0764449586	 3.0771291425	-0.221645
C	 0.7413087664	-0.7408336852	 3.6956663499	-0.221031
H	 0.774058588	 2.1235141269	-0.0990570362	 0.111245
H	-0.8261354057	 1.8427039759	-0.8058821777	 0.135991
H	-0.6226810674	 1.8894090596	 0.9600117634	 0.141212
H	-0.867997939	-0.4609178185	 0.1295762344	 0.097932
H	 1.7455818728	 0.0833565515	-1.3745776432	 0.148886
H	 1.002700892	-1.5007209825	-1.180762512	 0.146157
H	 1.1946492278	-1.4290575843	 1.1888565809	 0.075129
H	 1.9017772837	 0.195264001	 1.2378763233	 0.104352
H	-1.4990393063	-0.7411712895	 3.5299450256	 0.122462
H	-0.6389054033	-2.0239131332	 2.5438583657	 0.11045
H	 1.5452413514	-1.4657020319	 3.5755471141	 0.110624
H	 0.7900950744	-0.1546382513	 4.6087005953	 0.121713
55.1552	73.4287	106.8168	115.2837	195.9245	233.2716	287.7591	346.3312	373.7587	398.1298	427.6694	441.6517	590.3871	769.6689	829.5867	846.6409	890.7716	903.7998	929.8212	936.8984	975.2902	1029.2937	1041.1329	1111.0592	1115.1172	1119.3243	1131.0811	1146.9318	1175.8972	1197.959	1242.2257	1284.2386	1302.0872	1325.3933	1356.7565	1377.9165	1396.2182	1417.1326	1464.6096	1485.3996	1493.1301	1499.4422	1503.1884	1522.4209	2360.5654	2916.6933	3020.9002	3030.8213	3031.6634	3041.7408	3072.8179	3092.4001	3097.2132	3104.629	3139.4618	3178.7026	3192.7589
CC(CC#N)CN1CC1	C[C@@H](CC#N)CN1CC1	
InChI=1S/C7H12N2/c1-7(2-3-8)6-9-4-5-9/h7H,2,4-6H2,1H3	InChI=1S/C7H12N2/c1-7(2-3-8)6-9-4-5-9/h7H,2,4-6H2,1H3/t7-/m0/s1
