17
gdb 13078	4.28335	1.27142	1.05796	5.6421	68.66	-0.2625	0.0331	0.2955	1106.6807	0.141823	-363.860723	-363.852383	-363.851438	-363.894813	29.209	
C	-0.2421513522	 1.5505377219	-0.0906568197	-0.412452
C	-0.0024350595	 0.0476287158	-0.0339649074	-0.060238
C	 1.2645392419	-0.490064409	-0.7385204123	-0.075521
O	 1.7955352268	-1.005100714	 0.5017269158	-0.28233
C	 0.6339641159	-0.585900134	 1.2371508091	 0.144321
C	 0.9951348777	 0.330930333	 2.4133067099	-0.360998
C	 1.7057428488	-0.3870949489	 3.4690215299	 0.268398
N	 2.2552710879	-0.961703005	 4.3071724432	-0.300561
H	 0.6572772597	 2.1210179491	 0.1623369854	 0.123927
H	-0.5405906618	 1.8458877888	-1.101844394	 0.126668
H	-1.0432952599	 1.8586275133	 0.5894575153	 0.123599
H	-0.9118146891	-0.4798535507	-0.3320898145	 0.090449
H	 1.1011587624	-1.2858507195	-1.4745441405	 0.109022
H	 1.9211171213	 0.2719029093	-1.177632901	 0.105205
H	 0.0783328745	-1.4508908198	 1.6221035854	 0.095358
H	 1.6212159047	 1.1584582238	 2.0667009089	 0.154051
H	 0.0805280908	 0.7612521059	 2.8385416465	 0.151101
34.2969	66.0894	124.2857	211.371	252.0648	351.8954	366.5551	391.0164	474.9139	533.7197	738.4313	833.4046	882.35	902.5169	920.5843	944.0147	1011.1434	1015.9866	1058.9195	1118.3664	1138.0395	1156.2052	1188.0452	1225.0148	1261.6336	1286.5791	1312.5485	1360.9745	1382.0335	1397.6224	1416.9401	1450.1474	1496.0512	1502.3285	1529.7186	2365.1908	3013.1513	3019.3546	3033.2676	3046.4821	3057.3277	3076.5706	3097.0359	3100.1558	3108.5488
CC1COC1CC#N	C[C@H]1CO[C@H]1CC#N	
InChI=1S/C6H9NO/c1-5-4-8-6(5)2-3-7/h5-6H,2,4H2,1H3	InChI=1S/C6H9NO/c1-5-4-8-6(5)2-3-7/h5-6H,2,4H2,1H3/t5-,6-/m0/s1
