19
gdb 120078	5.69261	0.85011	0.84085	2.2441	75.99	-0.232	0.0764	0.3083	1422.7478	0.158216	-422.910145	-422.902015	-422.901071	-422.943585	30.431	
C	-0.1264219507	 1.407146124	 0.0052717636	-0.224789
O	-0.128768698	 0.0030223558	-0.0828745249	-0.232803
C	 0.7902825171	-0.4921916784	-1.0340060423	-0.081039
C	 0.715545179	-2.0049938597	-1.021850745	-0.046449
C	-0.5103892468	-2.6886934253	-1.6691864226	-0.085577
C	 0.0803545742	-2.5642871066	-3.1123857427	 0.086063
O	-0.0865903913	-3.9758037303	-3.4363602921	-0.328734
C	 0.3188320443	-3.9579636051	-2.036318712	 0.084079
C	 1.3350286424	-2.7851489343	-2.2047848297	-0.114756
H	 0.8604128591	 1.7971919145	 0.3021927472	 0.103061
H	-0.4053718282	 1.8787833331	-0.9507547521	 0.102843
H	-0.8601345574	 1.68964704	 0.7642079873	 0.127573
H	 0.5551397873	-0.0960422779	-2.0378128185	 0.081302
H	 1.8136753963	-0.1563714108	-0.7893936044	 0.084737
H	 0.9761924325	-2.3859341884	-0.0285107804	 0.078338
H	-1.5613575821	-2.652615319	-1.3863886428	 0.089173
H	-0.1066275275	-1.8297139622	-3.8943330527	 0.097293
H	 0.426091454	-4.9029404229	-1.5046022581	 0.096804
H	 2.3725455757	-2.8632282065	-2.5306735177	 0.082882
66.5645	93.7213	131.309	213.9559	252.6821	342.7884	371.3657	547.9002	580.7261	747.8013	764.2243	797.9441	828.2161	846.3328	882.2805	900.3287	934.0668	966.9187	1005.0231	1029.9007	1049.3602	1108.0473	1110.1069	1133.2954	1152.3615	1162.2446	1170.0795	1172.3149	1183.9164	1187.769	1218.9104	1240.3823	1267.2861	1279.9141	1336.5122	1381.2024	1436.4533	1481.4326	1485.6664	1502.4647	1524.8472	2940.3086	2965.7366	2968.6235	3010.1921	3054.6482	3113.1072	3113.2708	3124.1806	3127.4422	3142.5532
COCC1C2C3OC2C13	COC[C@H]1[C@H]2[C@@H]3O[C@H]2[C@H]13	
InChI=1S/C7H10O2/c1-8-2-3-4-6-5(3)7(4)9-6/h3-7H,2H2,1H3	InChI=1S/C7H10O2/c1-8-2-3-4-6-5(3)7(4)9-6/h3-7H,2H2,1H3/t3-,4-,5+,6-,7+
