20
gdb 90140	3.40859	1.48175	1.30848	1.7261	83.42	-0.2065	0.0066	0.2131	1055.4336	0.172695	-365.969148	-365.961535	-365.96059	-366.000683	31.259	
C	-0.0471789018	 1.5957105346	 0.106303375	-0.40403
C	 0.0461227223	 0.0854924754	-0.0495005148	-0.010457
C	 1.1457859015	-0.5115323729	-1.0167184854	-0.299221
C	 1.6897453971	-1.3164131622	 0.1761073223	 0.225957
N	 2.0869552105	-0.3297427058	 1.2146748581	-0.393135
C	 0.6749469365	-0.7304818498	 1.1066520418	 0.226846
C	 0.1209518017	-1.8429497835	 1.982579544	-0.372891
C	 0.9511772508	-3.0465378169	 1.5335337638	-0.069819
C	 1.7755285855	-2.7597643996	 0.512702089	-0.184838
H	 0.9205829357	 2.0048501786	 0.4088082385	 0.136988
H	-0.3441770713	 2.0713334187	-0.8349191332	 0.107058
H	-0.7867333787	 1.8695033064	 0.867311683	 0.107985
H	-0.931135742	-0.3378354957	-0.3034853121	 0.071587
H	 0.7222144132	-1.1322295068	-1.8087143769	 0.102527
H	 1.8477501029	 0.2056658154	-1.4497534913	 0.104113
H	 2.5138945162	-0.8436322901	 1.9828222446	 0.227646
H	 0.2140866936	-1.6538842903	 3.0599769559	 0.112991
H	-0.948211675	-2.0052854249	 1.7928292981	 0.115666
H	 0.9008966098	-4.0052279812	 2.0407995087	 0.09621
H	 2.4380266815	-3.4686735791	 0.0283579609	 0.098816
136.6854	214.0383	228.3544	272.7867	296.606	419.3809	440.0443	495.3971	567.3153	649.6944	686.1867	731.7919	765.4794	813.6016	828.6073	846.3612	889.5239	913.3957	938.2605	954.3335	973.5156	1032.995	1056.8445	1089.8821	1097.0066	1116.9064	1132.2317	1159.9493	1184.6545	1226.7892	1237.9388	1269.7597	1303.1091	1320.1789	1360.996	1381.3285	1389.0795	1407.1993	1472.4452	1474.7892	1489.9635	1503.8036	1627.1245	3018.3757	3028.7261	3045.4591	3051.1982	3062.9917	3089.9495	3117.7294	3124.0035	3173.3391	3199.5446	3496.8273
CC1CC23NC12CC=C3	C[C@H]1C[C@@]23N[C@@]12CC=C3	
InChI=1S/C8H11N/c1-6-5-7-3-2-4-8(6,7)9-7/h2-3,6,9H,4-5H2,1H3	InChI=1S/C8H11N/c1-6-5-7-3-2-4-8(6,7)9-7/h2-3,6,9H,4-5H2,1H3/t6-,7+,8-/m0/s1
