21
gdb 87624	2.46807	1.48828	1.14239	1.2244	84.96	-0.2181	0.0275	0.2456	1158.5417	0.182614	-387.086878	-387.078094	-387.07715	-387.120007	34.66	
C	-0.6064967922	 1.2241842873	 0.0114929526	-0.412554
C	 0.1232041593	-0.1112436099	-0.1180124948	-0.032727
C	 1.2752179036	-0.0925242971	-1.1661596372	-0.284303
C	 2.3532772884	-0.947985694	-0.5483026884	-0.093033
C	 2.0869877112	-1.2372919563	 0.7248633111	-0.129023
C	 0.7915174087	-0.6581237075	 1.1661501204	 0.30952
C	 0.6668253646	 0.0091051588	 2.5338106334	-0.386713
C	-0.0225023403	-1.2995304186	 2.2566986902	 0.048964
O	-1.4076990245	-1.3212794431	 2.0542619533	-0.419154
H	 0.0696072988	 2.0175247198	 0.3498230244	 0.110956
H	-1.0193098654	 1.5292006897	-0.9562267861	 0.107731
H	-1.437022391	 1.1519348901	 0.7192131707	 0.119143
H	-0.60872379	-0.8639724942	-0.4323484198	 0.092626
H	 0.9440423981	-0.4615074545	-2.1439901238	 0.101306
H	 1.6432259819	 0.9304483301	-1.3361822474	 0.100202
H	 3.2466713839	-1.2489061695	-1.0840591844	 0.089844
H	 2.7240041697	-1.8087654964	 1.3921179507	 0.087854
H	 1.5341526025	 0.0174121526	 3.1864651387	 0.106244
H	 0.0383055407	 0.8906335342	 2.6003825464	 0.114416
H	 0.3806361733	-2.1991157561	 2.7240823369	 0.080621
H	-1.8358876713	-1.1629964654	 2.9021331129	 0.288081
68.6675	164.44	188.5711	246.04	285.803	297.7936	339.9356	400.242	417.9184	479.8203	510.3582	584.3472	673.4804	741.1065	774.1574	829.6075	875.3771	907.5204	927.2502	937.6385	963.0986	968.897	1007.4389	1040.3809	1058.3931	1089.3475	1106.3093	1125.8896	1142.6862	1169.6361	1203.3263	1245.8079	1280.0364	1304.6206	1316.8203	1319.1533	1369.9361	1384.1782	1403.6465	1423.0658	1480.2601	1488.4431	1497.4303	1510.6836	1682.9351	2994.9619	3028.4891	3033.419	3053.0107	3085.8372	3093.1379	3112.0264	3126.0575	3175.8793	3203.0963	3216.6772	3802.9788
CC1CC=CC11CC1O	C[C@H]1CC=C[C@]21C[C@H]2O	
InChI=1S/C8H12O/c1-6-3-2-4-8(6)5-7(8)9/h2,4,6-7,9H,3,5H2,1H3	InChI=1S/C8H12O/c1-6-3-2-4-8(6)5-7(8)9/h2,4,6-7,9H,3,5H2,1H3/t6-,7+,8+/m0/s1
