22
gdb 114046	2.83854	1.12649	0.9546	1.1452	83.5	-0.2274	0.0745	0.3019	1335.7388	0.192686	-404.296298	-404.286422	-404.285478	-404.330764	36.987	
C	-0.3939609553	 1.4760687551	 0.1644724236	-0.319476
N	 0.0245132279	 0.084710386	 0.1384989045	-0.105609
C	 1.3127156631	-0.4105754563	-0.2955794814	-0.150993
C	 2.5415567658	 0.4042866644	 0.1620335424	 0.047058
C	 2.9079540355	 1.7145028456	-0.5122939058	-0.109958
O	 4.1051311544	 2.1814761504	 0.0993808139	-0.422708
C	 1.9961455968	 0.3627262698	 1.6242422495	-0.319764
C	 0.8418848765	-0.5515880583	 1.1435212282	 0.328876
C	 0.3132580809	-1.7341441838	 1.9018920527	-0.483516
H	-0.5164513228	 1.8313273304	-0.8637513703	 0.119617
H	-1.3709261584	 1.5344682218	 0.6565001739	 0.119307
H	 0.2828027556	 2.1645037955	 0.6878575002	 0.107147
H	 1.3235299761	-1.145786315	-1.0956535374	 0.083705
H	 3.4250572622	-0.2405662233	 0.1003957048	 0.087084
H	 3.0548229503	 1.5344060039	-1.590707414	 0.08344
H	 2.1033780332	 2.455737201	-0.4138229933	 0.08507
H	 4.3297401503	 3.0318557252	-0.2893200158	 0.285149
H	 2.6783395276	-0.1379475999	 2.3139076429	 0.106311
H	 1.7034955221	 1.3181753674	 2.0703340945	 0.098311
H	-0.2567294371	-1.4134990321	 2.7828039066	 0.117878
H	-0.3527075181	-2.3256894753	 1.2683487827	 0.12827
H	 1.1291948834	-2.3751618027	 2.2531665278	 0.114801
78.2589	121.0946	163.1509	187.2034	202.5978	240.3595	265.7616	281.777	328.2125	347.5944	435.5942	475.5027	561.0585	668.9615	712.6557	763.9271	856.2913	883.07	920.1999	922.9502	966.5023	1017.4474	1027.7484	1071.2624	1084.9571	1130.1964	1139.7516	1154.9901	1159.6902	1200.7614	1203.2102	1228.8074	1251.0019	1265.2022	1277.5751	1290.5434	1373.163	1401.1011	1433.1724	1454.6052	1464.5227	1481.1055	1484.9446	1493.8499	1503.9528	1505.1199	1524.5648	2961.2539	3001.9197	3022.4102	3024.2805	3052.1981	3057.9441	3067.8247	3081.9686	3096.6539	3114.086	3118.7185	3145.1573	3828.8133
CN1C2C(CO)CC12C	CN1[C@H]2[C@@H](CO)C[C@@]12C	
InChI=1S/C7H13NO/c1-7-3-5(4-9)6(7)8(7)2/h5-6,9H,3-4H2,1-2H3	InChI=1S/C7H13NO/c1-7-3-5(4-9)6(7)8(7)2/h5-6,9H,3-4H2,1-2H3/t5-,6+,7-,8?/m1/s1
