23
gdb 58108	2.47482	1.32108	1.06421	1.64	81.07	-0.2602	0.0785	0.3387	1257.6639	0.203133	-425.413694	-425.403309	-425.402365	-425.448289	39.653	
C	 0.0148285371	 1.5675352131	-0.0508443531	-0.414394
C	-0.0094004678	 0.030204456	-0.0410176533	 0.027542
C	-1.457882173	-0.4662857805	 0.0760587659	-0.409579
C	 0.7166121461	-0.575448672	-1.2826908958	 0.339807
C	 0.681739367	-2.1073997039	-1.2744222053	-0.418777
O	 0.0909327211	-0.156269567	-2.4906918879	-0.480991
C	 2.1788850322	-0.1198791222	-1.3032499177	 0.039543
C	 2.966035143	-0.1215159096	-2.5397079218	-0.189287
O	 2.4367330525	 1.1038815094	-2.0054104111	-0.254631
H	 1.0278382177	 1.9734861972	-0.1071330555	 0.130749
H	-0.5513500912	 1.9572274206	-0.903631893	 0.116499
H	-0.4543455072	 1.9573884467	 0.8577029552	 0.108979
H	 0.5473992964	-0.3125686407	 0.8432575767	 0.064106
H	-2.0008235233	-0.2677798288	-0.8531521049	 0.131179
H	-1.5173284275	-1.5380055422	 0.2832271589	 0.110031
H	-1.9740042664	 0.0534471025	 0.8893877146	 0.105934
H	-0.3415597321	-2.4674236894	-1.3959281124	 0.133334
H	 1.2771350638	-2.5018047578	-2.101875175	 0.116958
H	 1.0805864969	-2.5066367314	-0.3362588669	 0.111092
H	 0.4438804419	 0.7240604162	-2.6816860595	 0.290629
H	 2.7106016626	-0.2084257392	-0.3553945502	 0.093587
H	 4.0493591464	-0.2120432803	-2.4927478861	 0.118726
H	 2.4982183637	-0.4548769569	-3.4628141518	 0.128964
76.3351	118.8062	181.3762	196.0522	222.1498	243.0375	271.8543	291.8298	320.3191	357.2727	362.7438	394.6468	465.2179	517.5152	570.4748	605.3403	721.0319	817.151	868.2636	909.2871	930.1539	939.0788	948.3665	973.9249	1015.4016	1049.1148	1083.6578	1096.4887	1145.7933	1158.936	1174.4909	1180.0381	1208.6592	1231.6048	1286.3519	1343.4734	1354.6951	1371.2239	1401.0115	1411.8486	1421.8942	1432.5317	1483.7836	1488.0107	1497.572	1502.1122	1513.9703	1516.2398	1519.8322	2998.9552	3038.1942	3042.4519	3047.5722	3098.1348	3100.8029	3106.6176	3109.5137	3117.2574	3118.0995	3122.6493	3136.4925	3193.0702	3744.1599
CC(C)C(C)(O)C1CO1	CC(C)[C@@](C)(O)[C@H]1CO1	
InChI=1S/C7H14O2/c1-5(2)7(3,8)6-4-9-6/h5-6,8H,4H2,1-3H3	InChI=1S/C7H14O2/c1-5(2)7(3,8)6-4-9-6/h5-6,8H,4H2,1-3H3/t6-,7-/m1/s1
