17
gdb 76286	2.4054	1.68176	1.05578	3.3929	70.92	-0.2601	-0.0025	0.2576	1117.9207	0.136185	-455.215518	-455.206749	-455.205805	-455.249247	31.504	
C	-0.0193482714	 1.6334214926	 0.0426205972	-0.397658
C	 0.0367122031	 0.1054933939	-0.0246459345	-0.081292
N	 0.8326085036	-0.4277474448	-1.1167173227	-0.129489
C	 0.5153184575	-0.256963415	-2.5168124795	-0.347677
C	 1.8008943328	-1.2846431112	-0.6904429651	 0.481295
O	 2.5867175799	-1.9276385222	-1.3247344096	-0.385879
O	 1.7601968592	-1.3170654634	 0.7069704346	-0.234321
C	 0.7493092096	-0.5091009658	 1.1675734086	 0.410395
N	 0.4648912337	-0.3042559639	 2.3740030553	-0.526288
H	 0.9888608532	 2.0567495501	 0.0595959009	 0.131054
H	-0.5598351817	 2.0436589053	-0.814956137	 0.12403
H	-0.5378826257	 1.9291763734	 0.9571345015	 0.15752
H	-0.9893325069	-0.2894013702	-0.0699950351	 0.118904
H	 0.5802182395	 0.7949786196	-2.8133473804	 0.136453
H	 1.2385779201	-0.8346227316	-3.0936335266	 0.173953
H	-0.4954339715	-0.6217471119	-2.7393608847	 0.1302
H	 1.085880135	-0.8238766048	 2.9955100269	 0.238799
76.6079	112.859	155.4906	177.9586	235.6944	251.3209	291.2695	376.7572	409.5285	547.2605	616.01	658.9719	686.5029	759.9177	774.2521	867.7193	902.5656	972.2987	1020.5148	1078.5839	1090.3437	1116.5703	1122.4016	1162.9517	1255.1437	1312.5958	1338.8544	1366.233	1403.5502	1426.872	1453.914	1488.4096	1493.3559	1498.0301	1524.8723	1794.8492	1907.5199	2993.5935	3021.8648	3048.6255	3080.8697	3123.1986	3140.9782	3152.3584	3488.1117
CC1N(C)C(=O)OC1=N	C[C@H]1N(C)C(=O)O[C]1[NH]	
InChI=1S/C5H8N2O2/c1-3-4(6)9-5(8)7(3)2/h3,6H,1-2H3	InChI=1S/C5H8N2O2/c1-3-4(6)9-5(8)7(3)2/h3,6H,1-2H3/t3-/m1/s1
