19
gdb 91025	2.70671	1.68953	1.23542	1.8172	74.24	-0.2462	0.0773	0.3235	1048.8312	0.158239	-422.974775	-422.966624	-422.96568	-423.007197	31.731	
C	-1.0328673772	 0.9901950253	 0.7650661485	-0.410117
C	-0.4352232002	-0.3967954668	 0.8920790402	 0.147412
O	 0.192598555	-0.8528312745	-0.3353415566	-0.314191
C	 1.3803184237	-1.2609940882	 0.3619513894	 0.10078
C	 2.4670561219	-0.1859092878	 0.3639165677	-0.082503
O	 3.1946207695	-0.3863279513	 1.5788329002	-0.288079
C	 1.9682306296	 0.3716393798	 1.6426500854	 0.424303
C	 2.0573183178	 1.7284312176	 2.2646234135	-0.508835
C	 0.8496369632	-0.6789648471	 1.7170688374	-0.197449
H	-0.2906793752	 1.7136508946	 0.4198123428	 0.127171
H	-1.850874695	 0.9747241307	 0.0379046819	 0.128612
H	-1.4400360921	 1.3254211422	 1.7252352547	 0.117935
H	-1.2220181869	-1.1089305048	 1.1794519213	 0.080791
H	 1.6607615055	-2.3006080345	 0.1798104449	 0.088469
H	 2.975204893	 0.2853470733	-0.4699469015	 0.105579
H	 2.9403400581	 2.2555992687	 1.8940521682	 0.136531
H	 1.1706737091	 2.3300457186	 2.0499074959	 0.128842
H	 2.1481235028	 1.6413138552	 3.3534411626	 0.131907
H	 0.7431481376	-1.240790531	 2.6447690734	 0.082843
102.2562	173.8634	179.7599	251.1273	276.4292	330.1614	360.7655	422.7731	495.3779	555.1402	618.7229	685.4897	792.9938	834.4024	861.4324	880.6779	923.1785	928.8347	968.4833	1018.806	1025.1284	1052.0461	1066.4693	1096.4544	1108.6478	1144.3702	1170.3386	1188.4982	1223.2878	1257.189	1280.422	1304.6379	1340.5939	1390.3045	1403.0411	1406.3858	1450.1655	1478.1948	1483.9709	1491.0125	1504.3142	2994.6328	3037.7395	3039.897	3090.4427	3104.0236	3105.3445	3116.641	3125.7335	3131.5781	3186.5842
CC1OC2C3OC3(C)C12	C[C@H]1O[C@H]2[C@@H]3O[C@]3(C)[C@@H]12	
InChI=1S/C7H10O2/c1-3-4-5(8-3)6-7(4,2)9-6/h3-6H,1-2H3	InChI=1S/C7H10O2/c1-3-4-5(8-3)6-7(4,2)9-6/h3-6H,1-2H3/t3-,4+,5-,6+,7-/m1/s1
