16
gdb 5740	3.78676	2.16715	1.41325	1.5784	73.19	-0.1717	0.0576	0.2292	861.4064	0.133153	-342.779527	-342.772415	-342.77147	-342.810991	26.753	
N	 0.0160432449	 1.4865522713	-0.0595388823	-0.604954
C	-0.0394198341	 0.0790212469	-0.0777282371	 0.219918
C	-1.0891454802	-0.8225961136	 0.0352751979	-0.19695
C	-0.5953612333	-2.159122533	-0.165732949	-0.311155
C	 0.7570639837	-2.0169247951	-0.3399468026	 0.303007
C	 2.1449339085	-2.4023604535	-0.8293460832	-0.367974
C	 2.4290965043	-0.8513223899	-0.8343070647	-0.171027
N	 1.0765652051	-0.6839634353	-0.2751008926	-0.007986
H	 0.5250793449	 1.84315515	 0.7444446378	 0.240771
H	-0.9191099949	 1.8739590896	-0.0289917238	 0.244251
H	-2.1069735796	-0.5533575949	 0.2792382108	 0.07729
H	-1.1811215596	-3.0649729848	-0.1643704688	 0.089571
H	 2.7675235343	-2.9769587962	-0.137395756	 0.11685
H	 2.1935172853	-2.8682831605	-1.8170450408	 0.121963
H	 3.2327016967	-0.4991090765	-0.1812234103	 0.116959
H	 2.5455442641	-0.4132895146	-1.8295673252	 0.129467
79.3923	158.9656	187.779	276.0296	308.8374	532.7572	620.7864	634.9778	655.8371	720.606	737.3769	780.1373	806.4165	827.3087	842.1557	906.8467	1022.3696	1049.8837	1054.1301	1108.4754	1138.3768	1179.3743	1208.984	1226.8921	1245.5463	1268.6199	1310.5058	1399.4937	1465.5568	1490.194	1518.5732	1562.2598	1594.8589	1649.5971	3050.0872	3056.0659	3093.6753	3109.2938	3228.7754	3254.2547	3487.8788	3597.5123
NC1=CC=C2CCN12	Nc1ccc2CCn12	
InChI=1S/C6H8N2/c7-6-2-1-5-3-4-8(5)6/h1-2H,3-4,7H2	InChI=1S/C6H8N2/c7-6-2-1-5-3-4-8(5)6/h1-2H,3-4,7H2
