17
gdb 24696	3.67895	1.58558	1.13099	2.8174	83.21	-0.1987	-0.012	0.1867	1044.1652	0.141045	-380.942521	-380.935905	-380.934961	-380.973365	26.875	
C	 0.0198777553	 1.4444268684	-0.1173662038	-0.17548
C	 1.4850783013	 1.8850362711	 0.1153571676	-0.314718
C	 2.2331054126	 0.5739532988	 0.0028608309	 0.304233
N	 3.5374664885	 0.4187416663	-0.1222438292	-0.341811
C	 3.984216965	-0.8503150119	-0.1709680687	-0.051805
C	 3.1479611963	-1.9580984047	-0.0924325146	-0.089898
C	 1.7675646052	-1.7858908942	 0.045520547	-0.23871
C	 1.3038745872	-0.4788753862	 0.0951309406	 0.316213
N	 0.014828988	 0.0173362078	 0.2698972838	-0.3927
H	-0.6975521033	 2.0088448588	 0.4834945617	 0.112347
H	-0.2497658225	 1.5686149814	-1.1768641474	 0.10219
H	 1.8226786361	 2.6366156495	-0.6010682839	 0.124323
H	 1.6137749136	 2.3066252426	 1.1202257163	 0.124649
H	 5.0572479168	-0.9765979857	-0.2818659123	 0.097472
H	 3.5705376798	-2.9558435844	-0.1423361058	 0.094742
H	 1.0963091859	-2.6364233368	 0.1067475421	 0.092898
H	-0.745376116	-0.538920621	-0.0944194042	 0.236055
153.9976	195.5241	289.8298	414.543	439.501	519.979	549.5971	572.7977	617.2855	713.0191	753.2457	793.92	822.0011	878.897	889.5549	921.2946	947.1115	967.1303	1044.9245	1065.7247	1076.7956	1121.3879	1174.9353	1186.8125	1232.8662	1257.7356	1282.4847	1315.9692	1324.9079	1356.3358	1445.8262	1463.9764	1481.594	1507.8473	1524.7132	1622.4471	1641.2611	2988.2006	3031.2857	3087.6065	3108.9547	3164.3301	3175.8723	3196.0521	3591.4676
C1CC2=NC=CC=C2N1	C1Cc2ncccc2N1	
InChI=1S/C7H8N2/c1-2-6-7(8-4-1)3-5-9-6/h1-2,4,9H,3,5H2	InChI=1S/C7H8N2/c1-2-6-7(8-4-1)3-5-9-6/h1-2,4,9H,3,5H2
