20
gdb 89640	3.6766	1.15861	1.0352	2.6576	79.77	-0.2269	0.0715	0.2984	1232.417	0.170994	-403.082639	-403.074166	-403.073222	-403.115869	32.622	
C	-0.1107155239	 1.4689737576	-0.0660427611	-0.407947
C	 0.0665137422	-0.0125677112	 0.1886825309	 0.146833
O	 1.0078805688	-0.6523542425	-0.7356152671	-0.350681
C	 1.6956111706	-1.2636777037	 0.3664462743	 0.491308
C	 2.3338527935	-0.2095121008	 1.2156115751	-0.348896
C	 0.858504144	-0.5240017466	 1.3921872265	-0.210435
C	 2.1318164252	-2.6679735537	 0.1858726169	-0.112802
C	 1.3353285341	-3.5889510788	-0.6619325838	-0.242932
N	 2.6383879887	-3.0851958586	-1.1350813377	-0.328308
H	 0.8289441112	 2.0132941754	 0.0574525529	 0.124057
H	-0.4740545273	 1.6371063781	-1.0848527697	 0.129278
H	-0.8476777251	 1.8827211452	 0.6305796713	 0.120411
H	-0.8976239446	-0.5315628389	 0.1132152925	 0.084753
H	 2.9616050565	-0.5779587027	 2.0214041793	 0.118311
H	 2.6664945763	 0.7210760176	 0.7647438553	 0.115708
H	 0.4349609683	-0.8623356589	 2.3282097689	 0.101098
H	 2.6949421852	-3.0717064708	 1.0243579004	 0.089402
H	 1.3103930955	-4.6502109017	-0.4314373684	 0.113934
H	 0.436441376	-3.188828954	-1.1206740768	 0.120794
H	 2.4711514548	-2.3287160211	-1.7965849698	 0.246112
72.8195	125.014	153.4531	215.3283	250.0201	303.9616	389.8836	427.9917	503.1246	542.5743	658.8915	716.2232	817.4946	842.2485	858.5229	877.0978	883.646	952.7992	961.3465	974.2652	987.7521	1015.0777	1021.7706	1061.17	1082.1997	1101.1598	1110.5441	1134.6311	1149.363	1167.531	1216.1201	1268.887	1279.1335	1301.8491	1316.8498	1333.9243	1386.2285	1410.9301	1446.0443	1483.8552	1489.7592	1493.9425	1510.3243	3021.0684	3040.5657	3107.4456	3114.786	3116.2745	3126.2955	3132.6368	3199.848	3205.9954	3208.7344	3488.2906
CC1OC2(CC12)C1CN1	C[C@H]1O[C@]2(C[C@@H]12)[C@H]1CN1	
InChI=1S/C7H11NO/c1-4-5-2-7(5,9-4)6-3-8-6/h4-6,8H,2-3H2,1H3	InChI=1S/C7H11NO/c1-4-5-2-7(5,9-4)6-3-8-6/h4-6,8H,2-3H2,1H3/t4-,5+,6-,7+/m1/s1
