18
gdb 40325	4.19164	1.34087	1.31199	1.6685	78.65	-0.2139	0.068	0.2819	1033.038	0.147991	-364.672	-364.664925	-364.663981	-364.703811	28.43	
C	-0.0836389448	 1.4574895603	 0.0036980481	-0.269558
C	 1.2788023758	 0.8183631056	 0.0937660365	-0.269558
C	 0.0412440974	-0.0475225343	 0.0523581651	-0.156534
C	-0.3784578722	-0.7713284136	 1.2649423763	 0.435823
N	-0.2078884695	-0.2080541123	 2.6828931166	-0.216256
C	-0.0833790193	-1.6248883099	 3.1819145598	-0.050425
C	-1.4262857847	-0.9948747736	 3.0932167458	-0.050423
C	-1.6183628692	-1.5417219381	 1.6587730945	-0.181576
C	-0.2260566999	-2.1949622754	 1.7507538694	-0.181582
H	-0.4583376435	 1.9495522586	 0.8942516506	 0.130179
H	-0.3850477348	 1.9146924035	-0.9320817304	 0.108121
H	 1.9210915702	 0.8328721472	-0.7796295641	 0.108121
H	 1.7970187094	 0.8915574281	 1.0433472013	 0.130181
H	-0.1508676322	-0.5872180571	-0.8712958916	 0.084394
H	 0.5397114424	-1.8822699779	 4.0302091461	 0.095698
H	-2.1096795547	-0.6393343917	 3.8552236761	 0.095698
H	-2.4795022503	-1.8473494625	 1.081770063	 0.093848
H	 0.14737333	-3.0798301369	 1.2553138569	 0.093849
70.9224	152.1427	156.0426	378.153	397.4431	568.4845	671.4796	756.2034	774.904	777.4575	797.7931	816.0517	833.6558	849.5543	863.7804	895.8296	898.8149	924.9669	954.5576	960.2994	985.8451	1006.8033	1010.6293	1061.656	1064.985	1083.4307	1090.902	1122.4064	1166.2346	1200.5069	1201.2189	1216.4478	1229.3855	1268.9592	1321.0163	1327.8344	1459.6578	1474.3275	1509.9924	3135.3505	3136.8191	3142.6228	3172.3903	3186.7833	3212.4894	3218.5106	3222.5353	3232.4516
C1CC1C12N3C4C3C1C24	C1CC1[C@@]12N3[C@H]4[C@@H]3[C@@H]1[C@@H]24	
InChI=1S/C8H9N/c1-2-3(1)8-4-5(8)7-6(4)9(7)8/h3-7H,1-2H2	InChI=1S/C8H9N/c1-2-3(1)8-4-5(8)7-6(4)9(7)8/h3-7H,1-2H2/t4-,5+,6-,7+,8+,9?
