19
gdb 82326	2.5573	1.73813	1.29191	1.9916	73.82	-0.2297	0.0616	0.2913	1017.4993	0.161512	-419.151805	-419.144117	-419.143173	-419.18371	30.909	
O	 0.5481062715	 0.6955625076	-0.8031541658	-0.425971
C	 0.1410817971	-0.3852453432	 0.0156372565	 0.039413
C	 0.5695114166	-0.313162964	 1.4716259334	-0.054804
C	-0.2341870616	 0.5577146397	 2.3751211718	-0.262254
N	-0.4731241373	-0.8900176699	 2.3460486855	-0.101798
C	-1.604025312	-1.2733049147	 1.4701019982	-0.227135
C	-1.3778048123	-0.6043252856	 0.1183317	 0.294392
C	-2.3294327302	 0.340759429	-0.5192136992	-0.292227
N	-2.1677650688	-1.0320747207	-1.0340906838	-0.38312
H	 0.3405303179	 1.5096515146	-0.3304172711	 0.281772
H	 0.5982218187	-1.2686438876	-0.4490710785	 0.100265
H	 1.6004336904	-0.5474278036	 1.7193992983	 0.096566
H	 0.212618959	 0.9248162613	 3.2941447754	 0.121246
H	-0.9827107988	 1.2172376049	 1.9409436501	 0.114699
H	-1.5862870474	-2.3629843397	 1.3583946062	 0.119755
H	-2.5559607052	-1.0001345795	 1.9348755879	 0.113015
H	-3.2869689701	 0.5431617742	-0.045787559	 0.11649
H	-1.920210927	 1.1565929938	-1.1081171688	 0.113129
H	-1.5875223203	-1.0043640766	-1.871532007	 0.236567
96.5693	199.9864	255.3784	280.6245	351.3079	378.7421	397.3433	434.9435	540.3516	585.5167	633.7366	756.1709	774.5822	843.291	883.1962	909.6024	933.3724	955.7338	980.4549	1002.9215	1033.5922	1066.847	1073.0656	1104.5111	1114.0908	1120.091	1138.5882	1161.1166	1223.3644	1258.3731	1268.8476	1281.5449	1303.876	1315.7227	1332.3133	1384.1211	1402.1095	1434.5091	1492.2281	1501.8726	1503.3198	3027.9734	3044.6201	3090.9093	3104.8232	3106.2164	3153.9802	3192.2148	3195.8082	3471.5866	3799.351
OC1C2CN2CC11CN1	O[C@H]1[C@H]2CN2C[C@]21CN2	
InChI=1S/C6H10N2O/c9-5-4-1-8(4)3-6(5)2-7-6/h4-5,7,9H,1-3H2	InChI=1S/C6H10N2O/c9-5-4-1-8(4)3-6(5)2-7-6/h4-5,7,9H,1-3H2/t4-,5+,6+,8?/m1/s1
