19
gdb 26190	4.13817	0.91811	0.89009	1.6935	79.36	-0.2169	0.0177	0.2346	1410.1441	0.158133	-423.063057	-423.053603	-423.052659	-423.097722	34.524	
C	 0.0144159097	 1.5611919985	 0.2680839245	-0.398632
C	-0.0084730728	 0.0462289983	 0.0292666604	 0.015401
O	 0.7069740772	-0.64506724	 1.0545689555	-0.429057
C	-1.3977744683	-0.4871589434	-0.1206411418	 0.398613
C	-2.0648667882	-1.1391320759	-1.1077990428	-0.403728
C	-3.3931194138	-1.4044752412	-0.6185408337	 0.266728
C	-4.5052851732	-2.1008368099	-1.3389335279	-0.499405
C	-3.4172988532	-0.8905826482	 0.639031735	-0.116664
O	-2.2184820862	-0.3249945461	 0.9605496627	-0.205156
H	 1.0462024294	 1.8971747707	 0.3996530056	 0.122311
H	-0.4305182268	 2.097908432	-0.5756999445	 0.118567
H	-0.5547953984	 1.8155119508	 1.1679517534	 0.121881
H	 0.5288993498	-0.183622032	-0.8965069763	 0.100065
H	 0.1781889091	-0.5838657888	 1.8580545703	 0.284661
H	-1.6644503827	-1.4082319539	-2.0737365435	 0.10805
H	-4.2231809128	-3.1216038855	-1.6207180417	 0.131805
H	-5.4021405351	-2.1629776808	-0.7163709719	 0.124653
H	-4.7758036343	-1.5761194546	-2.262278931	 0.130499
H	-4.1767508092	-0.8472866102	 1.4028929577	 0.129406
45.8686	109.129	132.4786	169.5951	249.6892	256.6102	275.6579	308.5045	366.3054	428.3209	501.0518	624.5574	634.0446	706.2715	726.4602	744.1034	822.0572	893.9969	953.2136	984.1848	1008.4935	1018.407	1065.0344	1079.5699	1091.2095	1155.3654	1167.5991	1236.6381	1285.6077	1302.7804	1339.1618	1394.8996	1401.8951	1417.0362	1421.387	1482.7429	1489.266	1493.1399	1497.9079	1585.9705	1664.3353	3029.3437	3038.2511	3065.0868	3080.2651	3110.2069	3112.0992	3124.2839	3246.4689	3270.8972	3804.8931
CC(O)C1=CC(C)=CO1	C[C@@H](O)c1cc(C)co1	
InChI=1S/C7H10O2/c1-5-3-7(6(2)8)9-4-5/h3-4,6,8H,1-2H3	InChI=1S/C7H10O2/c1-5-3-7(6(2)8)9-4-5/h3-4,6,8H,1-2H3/t6-/m1/s1
