22
gdb 96078	2.5284	1.51817	1.09934	1.9842	82.04	-0.2373	0.0712	0.3085	1190.9228	0.195484	-404.338597	-404.329797	-404.328853	-404.371506	34.594	
C	-0.016617105	 1.5512090422	 0.0254604314	-0.402605
C	 0.033049618	 0.0201767638	-0.0007020272	 0.007647
C	 0.7192227084	-0.5042747911	-1.2700989211	-0.092711
O	 0.8487091968	-1.9144079102	-1.2331660452	-0.251074
C	 1.8010349683	-2.3496432228	-0.2800827191	-0.127843
C	 1.6137172681	-1.7365896563	 1.1108021297	 0.297756
C	 1.7315923306	-2.7021312256	 2.269063107	-0.484496
N	 2.2021647552	-0.3854628432	 1.2556571098	-0.369586
C	 0.7344047171	-0.5420807659	 1.2228602517	-0.064563
H	 0.9958523289	 1.9651273632	 0.0673818789	 0.131587
H	-0.5128540861	 1.947989818	-0.8667577667	 0.110703
H	-0.5657791376	 1.9145681422	 0.9005262354	 0.108968
H	-0.9910400197	-0.3769099373	 0.0023590772	 0.076612
H	 0.1141410395	-0.2728955658	-2.1519419679	 0.100511
H	 1.7036899818	-0.0264370468	-1.3895471239	 0.103007
H	 1.6858577322	-3.4368220649	-0.2283862255	 0.100963
H	 2.8224485174	-2.1280314705	-0.6291134998	 0.095698
H	 2.7212668049	-3.1746995834	 2.2894228663	 0.124004
H	 1.5842448959	-2.189541059	 3.2258318147	 0.111227
H	 0.9853477499	-3.50074823	 2.1964786556	 0.128498
H	 2.5177431453	-0.2427387828	 2.2122135006	 0.222794
H	 0.19981747	-0.4124027637	 2.1640065679	 0.072902
109.7162	158.7916	223.958	233.1368	239.0884	290.287	359.6193	363.3463	395.5474	448.475	473.5	582.0965	607.7453	745.8482	806.8975	868.8572	915.455	927.3358	958.5054	966.5814	977.9237	1003.5169	1027.2125	1058.191	1102.4934	1131.3685	1135.6604	1145.4454	1161.996	1219.6795	1268.8426	1295.3238	1322.4457	1328.79	1340.882	1374.5545	1383.4188	1401.7631	1415.5915	1428.1545	1462.4392	1485.668	1488.3098	1495.0438	1499.0114	1502.2824	1505.0901	2974.6538	2992.708	3018.1562	3020.5915	3030.734	3074.7809	3081.9933	3083.8349	3095.6657	3097.0465	3102.299	3108.6956	3490.5081
CC1COCC2(C)NC12	C[C@H]1COC[C@@]2(C)N[C@@H]12	
InChI=1S/C7H13NO/c1-5-3-9-4-7(2)6(5)8-7/h5-6,8H,3-4H2,1-2H3	InChI=1S/C7H13NO/c1-5-3-9-4-7(2)6(5)8-7/h5-6,8H,3-4H2,1-2H3/t5-,6-,7+/m0/s1
