18
gdb 70199	3.44422	1.33043	1.13462	4.663	72.3	-0.228	0.009	0.237	1106.6078	0.148168	-439.09638	-439.088334	-439.087389	-439.128785	31.303	
C	-0.1500437596	 1.5437463261	 0.0209908376	-0.453058
C	-0.0281471422	 0.0375609282	 0.0149982255	 0.303434
C	-0.7996828242	-0.7759857048	 1.0620696897	-0.379096
C	 0.7051825343	-0.6446410345	 1.1204060901	 0.09146
O	 1.5477558166	-1.7505602541	 0.8581147224	-0.22114
C	 1.5208226654	-2.3889847518	-0.3361914739	 0.430131
O	 2.2574728599	-3.3156373591	-0.529046529	-0.322004
C	 0.4930419304	-1.9250692457	-1.3579266621	-0.324717
N	 0.2284211571	-0.4927232913	-1.3018217892	-0.351871
H	 0.7304980261	 2.000144227	-0.4407046952	 0.135579
H	-1.0352301771	 1.8635611293	-0.5422178703	 0.11791
H	-0.2530237863	 1.9276470417	 1.0395492512	 0.121066
H	-1.3857172788	-0.2533906148	 1.8104832933	 0.118987
H	-1.2000514821	-1.7423980416	 0.7765532691	 0.122931
H	 1.1509546971	-0.0553091188	 1.9131022666	 0.117326
H	 0.8933925279	-2.1861381023	-2.3395289976	 0.146194
H	-0.4013938146	-2.5560955417	-1.201405526	 0.119897
H	-0.5333988197	-0.2576462017	-1.9302881523	 0.226971
87.697	180.1833	210.6194	235.836	309.4282	369.8998	377.4626	468.0176	493.2147	535.8229	599.9935	676.4344	691.5999	743.0491	816.349	883.3168	905.657	924.9509	971.6168	1013.0759	1028.1712	1063.3406	1115.0145	1117.2355	1132.6296	1161.1033	1217.7693	1253.2873	1285.6599	1316.9649	1375.2762	1411.3598	1425.618	1470.1005	1479.6676	1489.9132	1502.143	1515.1746	1854.1962	2930.3734	3029.3244	3094.3369	3107.8171	3120.4594	3135.5505	3179.5988	3223.6308	3508.5049
CC12CC1OC(=O)CN2	C[C@]12C[C@H]1OC(=O)CN2	
InChI=1S/C6H9NO2/c1-6-2-4(6)9-5(8)3-7-6/h4,7H,2-3H2,1H3	InChI=1S/C6H9NO2/c1-6-2-4(6)9-5(8)3-7-6/h4,7H,2-3H2,1H3/t4-,6+/m1/s1
