18
gdb 98165	2.3819	1.14176	1.12191	3.1201	75.79	-0.242	0.013	0.2549	1248.2562	0.143686	-439.081586	-439.070819	-439.069874	-439.117635	38.125	
C	-0.1243752235	 1.4681476614	 0.4027874711	-0.33381
N	-0.2469333904	 0.0256556035	 0.4309698252	-0.306438
C	-1.1550797602	-0.6420819286	-0.3137439667	 0.38816
O	-1.9642254252	-0.1315812283	-1.065699228	-0.389906
C	-1.1141382815	-2.1914380384	-0.1259471772	 0.094961
C	-1.2239938505	-2.8621979882	-1.5028252024	-0.403187
O	 0.1311125245	-2.5326136444	 0.5055389854	-0.466043
C	-2.2317167547	-2.5745365074	 0.7417772396	 0.344055
C	-3.1171295012	-2.9304152565	 1.4727380949	-0.509127
H	 0.8571780721	 1.7779132141	 0.0265895906	 0.126892
H	-0.898179993	 1.8518156214	-0.263415092	 0.168832
H	-0.2663154384	 1.8959399614	 1.4012895194	 0.127386
H	 0.3879563271	-0.5371390317	 0.9748456344	 0.26295
H	-0.3322781422	-2.6240811629	-2.0886540303	 0.12678
H	-1.2974009539	-3.946786548	-1.3886584571	 0.112508
H	-2.1054155235	-2.4880257944	-2.0246222706	 0.157282
H	-0.0068363246	-3.3448093824	 1.0032988275	 0.291579
H	-3.9118369509	-3.2270516607	 2.1122772861	 0.207125
45.0563	86.7595	110.3069	166.7281	169.5333	220.918	227.0263	238.0601	306.9733	352.3331	383.2621	422.3734	467.8519	577.8841	606.6583	628.576	634.9838	675.1659	765.0982	797.9842	887.7804	945.3504	1050.5693	1109.0657	1142.9324	1153.2124	1172.1917	1185.0833	1237.3721	1356.6367	1393.501	1440.1611	1481.9162	1487.3709	1495.2939	1499.6403	1569.0632	1789.208	2230.6071	3028.2164	3052.1739	3080.4054	3128.0616	3150.9787	3157.6806	3500.1064	3637.1206	3825.4225
CNC(=O)C(C)(O)C#C	CNC(=O)[C@@](C)(O)C#C	
InChI=1S/C6H9NO2/c1-4-6(2,9)5(8)7-3/h1,9H,2-3H3,(H,7,8)	InChI=1S/C6H9NO2/c1-4-6(2,9)5(8)7-3/h1,9H,2-3H3,(H,7,8)/t6-/m0/s1
