20
gdb 53150	3.29717	0.9781	0.8684	2.048	90.2	-0.2228	0.0338	0.2566	1440.3304	0.169952	-365.916182	-365.906852	-365.905907	-365.951264	34.265	
C	 0.0735790749	 1.5214275607	-0.0311041066	-0.503464
C	 0.0209411193	 0.0679281964	 0.0201577259	 0.145977
C	-0.0156940088	-1.135834655	 0.0720930238	 0.042178
C	-0.0429567213	-2.5819986783	 0.0851815284	-0.214216
N	-0.0928976245	-3.2979949944	 1.4689653601	-0.150819
C	-1.5796968118	-2.8967901751	 1.4776268314	-0.215329
C	-1.3948915804	-3.3659929072	 0.0138581948	 0.306271
C	-2.389026534	-3.4001699871	-1.1180658346	-0.520156
C	-0.5761715771	-4.5099944236	 0.6547030031	-0.203837
H	 0.8058135395	 1.8669392316	-0.7691258268	 0.150251
H	-0.8985371582	 1.9483211825	-0.3016323646	 0.148034
H	 0.3602921295	 1.9393082412	 0.9402935193	 0.153459
H	 0.7641769221	-2.9875945057	-0.5348118253	 0.089998
H	-2.1876914715	-3.5212724073	 2.138126352	 0.094852
H	-1.7449090919	-1.8342061945	 1.6639573782	 0.113479
H	-2.7458517501	-2.3909756618	-1.3495136988	 0.128954
H	-1.9388017187	-3.8155512459	-2.0262586362	 0.120489
H	-3.25738271	-4.0162129038	-0.8604628872	 0.120883
H	 0.2113695309	-4.9828910265	 0.0597126253	 0.095483
H	-1.1136153678	-5.2445660964	 1.2597727079	 0.097514
34.052	81.0243	105.157	191.5273	225.8525	286.293	304.9612	340.6809	453.2002	461.7846	504.1158	605.1829	628.9821	751.8967	804.115	858.4357	894.3178	905.4629	912.4618	944.8126	1012.6207	1044.7182	1051.1017	1054.3836	1077.6124	1131.1789	1164.0021	1194.2326	1196.8706	1202.9251	1212.0568	1255.0418	1326.9281	1389.6837	1407.1547	1413.882	1476.9058	1477.8257	1487.8491	1489.1462	1508.1645	1547.2144	2361.2425	3027.1308	3028.1868	3041.836	3046.9205	3059.2081	3087.9026	3089.4134	3096.9143	3100.7742	3113.9548	3130.842
CC#CC1N2CC1(C)C2	CC#C[C@H]1N2C[C@]1(C)C2	
InChI=1S/C8H11N/c1-3-4-7-8(2)5-9(7)6-8/h7H,5-6H2,1-2H3	InChI=1S/C8H11N/c1-3-4-7-8(2)5-9(7)6-8/h7H,5-6H2,1-2H3/t7-/m1/s1
