13
gdb 20441	5.09814	2.19183	1.56837	5.189	58.97	-0.233	0.0061	0.2391	747.8579	0.099034	-394.764092	-394.758291	-394.757346	-394.794258	21.38	
C	 0.0424250822	 1.4082980001	-0.1094676444	-0.107857
C	 1.5425382902	 1.7965933143	 0.0615012107	-0.198801
N	 2.0200858717	 0.5730078926	 0.6726292351	 0.028615
N	 3.1941603027	 0.1453911301	 1.1991658823	-0.179449
N	 3.0177130049	-1.1200063643	 1.4628539845	-0.180898
C	 1.7565651729	-1.5262378185	 1.1042128866	-0.201459
C	 1.1238845443	-0.4240402345	 0.5880168327	 0.405426
O	-0.0355080663	-0.0396052375	 0.0190295855	-0.27509
H	-0.5720549552	 1.85189824	 0.6799429034	 0.139394
H	-0.3653745325	 1.6806322136	-1.083387982	 0.142965
H	 2.0473046842	 1.9831396923	-0.8917207132	 0.14619
H	 1.6755785845	 2.6628067613	 0.7123234444	 0.151503
H	 1.4168939864	-2.5371778396	 1.2421864047	 0.129458
117.2973	170.0624	310.0036	437.6318	630.3178	685.1481	707.859	755.6974	781.8441	799.0948	865.2479	945.4824	991.2588	1009.5303	1105.7095	1125.9792	1150.1475	1206.9237	1236.6658	1252.4676	1278.3539	1333.7783	1344.2246	1392.0904	1501.5741	1515.4535	1538.0943	1622.2516	3055.281	3060.1319	3114.6311	3136.5111	3294.1095
C1CN2N=NC=C2O1	C1Cn2nncc2O1	
InChI=1S/C4H5N3O/c1-2-8-4-3-5-6-7(1)4/h3H,1-2H2	InChI=1S/C4H5N3O/c1-2-8-4-3-5-6-7(1)4/h3H,1-2H2
