16
gdb 25610	3.81386	1.04112	0.88504	3.8102	70.58	-0.224	0.0118	0.2358	1271.3177	0.125586	-437.933327	-437.925174	-437.92423	-437.967535	29.204	
O	 0.6982648581	 1.0373353406	-1.4198992299	-0.328718
C	 0.3376169763	 1.4714767127	-0.3442148968	 0.160878
N	 1.0873323358	 1.452988909	 0.7875844672	-0.25643
C	 2.476328047	 0.9907605036	 0.7669499633	-0.30578
C	 3.4599263249	 2.0252847991	 0.2932941346	 0.237126
C	 3.7022954987	 2.3795559218	-0.9995074989	-0.082717
O	 4.636406617	 3.3626387356	-1.0608852605	-0.13691
C	 5.0036191304	 3.6431578438	 0.2171383978	 0.008162
C	 4.3181752291	 2.8602170255	 1.0890757433	-0.294208
H	-0.6644029375	 1.9130961071	-0.1757512257	 0.079245
H	 0.7543712732	 1.96453523	 1.5893113376	 0.24937
H	 2.7325470523	 0.6555216864	 1.7755360088	 0.113699
H	 2.5012502267	 0.1203094168	 0.1076910465	 0.150618
H	 3.2867902148	 2.0464183476	-1.9356596208	 0.163491
H	 5.7546250564	 4.4070559619	 0.3315625355	 0.136364
H	 4.4121434068	 2.8613948285	 2.164613938	 0.105811
42.6673	56.1692	131.5401	225.5869	267.2634	329.6738	425.2641	502.2332	626.7202	631.8984	730.4299	741.8169	752.8692	816.9833	835.3806	893.2352	946.4703	979.5428	1019.296	1032.4763	1056.3804	1101.6648	1195.0963	1209.1077	1246.5956	1270.6162	1307.6007	1386.6289	1417.8487	1427.2718	1466.6754	1520.6581	1532.4305	1621.9274	1795.5536	2939.8114	3067.99	3119.8316	3245.5047	3283.5715	3290.6296	3635.012
O=CNCC1=COC=C1	O=CNCc1cocc1	
InChI=1S/C6H7NO2/c8-5-7-3-6-1-2-9-4-6/h1-2,4-5H,3H2,(H,7,8)	InChI=1S/C6H7NO2/c8-5-7-3-6-1-2-9-4-6/h1-2,4-5H,3H2,(H,7,8)
