18
gdb 85315	2.4018	1.79879	1.19674	2.8988	71.85	-0.2424	0.0233	0.2657	1048.636	0.149501	-439.115592	-439.107734	-439.10679	-439.148131	29.936	
C	 0.123561071	 1.595666622	 0.0229725511	-0.394789
C	 0.0627970949	 0.0703738933	-0.0045772469	 0.015216
N	 0.7912436086	-0.5131715248	-1.1257234173	-0.317165
C	 1.5831788955	-1.595354542	-0.8529544144	 0.407478
O	 2.1922243515	-2.2606009441	-1.6623146236	-0.386164
C	 1.5800115396	-1.7787829775	 0.664822202	-0.207864
C	 2.7603640387	-1.0720068399	 1.3618447059	-0.078339
O	 1.9324876774	 0.0766640227	 1.6605211479	-0.289087
C	 0.7429539592	-0.6043455283	 1.2051205397	 0.115575
H	 1.1572558496	 1.9300346508	 0.1270413223	 0.145679
H	-0.3009601939	 2.0175467129	-0.8935048417	 0.113276
H	-0.4544709916	 1.9831620916	 0.8677414148	 0.124166
H	-0.9903280912	-0.2496811322	-0.0314243957	 0.081745
H	 0.6416468666	-0.2300356199	-2.0818331014	 0.249924
H	 1.3601865639	-2.8060674637	 0.9505034442	 0.10624
H	 3.105994854	-1.5667683179	 2.2773787572	 0.108329
H	 3.6224041293	-0.8188320873	 0.7360441558	 0.125069
H	 0.0444886369	-0.7824128357	 2.0288881502	 0.080709
95.3611	113.2439	225.7217	235.2637	254.9703	346.1076	470.8395	499.8966	527.6447	598.0061	698.1313	725.3538	795.9738	837.7329	885.4337	915.3492	954.7908	971.2244	1004.1642	1033.3371	1066.0893	1078.3382	1119.895	1156.9157	1172.1102	1217.8489	1249.7831	1262.9279	1299.1079	1307.4195	1351.3776	1365.8206	1393.6673	1409.2675	1435.6351	1492.6482	1498.3637	1528.0224	1826.3908	2977.2738	3025.129	3043.5484	3057.3303	3080.1938	3107.6967	3133.4085	3144.1027	3634.369
CC1NC(=O)C2COC12	C[C@H]1NC(=O)[C@H]2CO[C@@H]12	
InChI=1S/C6H9NO2/c1-3-5-4(2-9-5)6(8)7-3/h3-5H,2H2,1H3,(H,7,8)	InChI=1S/C6H9NO2/c1-3-5-4(2-9-5)6(8)7-3/h3-5H,2H2,1H3,(H,7,8)/t3-,4+,5+/m1/s1
