19
gdb 126509	3.08552	0.98332	0.79013	4.0696	78.93	-0.2543	-0.0296	0.2247	1479.9354	0.157789	-419.209271	-419.199805	-419.198861	-419.244674	33.44	
C	-0.2148272971	 1.6661824196	-0.1026302396	-0.383151
C	-0.1576022248	 0.1398710199	-0.0166046131	-0.157323
C	 0.7711918976	-0.4788604598	-1.078116229	-0.30577
C	 0.7997549114	-1.9716456836	-1.0403754521	 0.172385
C	 1.7716883371	-2.8563053053	-0.6723558196	 0.318496
C	 3.1685311226	-2.705022709	-0.1878074355	-0.494131
O	 1.2870062675	-4.0952850794	-0.8077913524	-0.213582
N	-0.0547676003	-3.9608240999	-1.2838884793	-0.019593
N	-0.2940372779	-2.7338485758	-1.4026882711	-0.171031
H	 0.7756534016	 2.1118015425	 0.044134706	 0.112549
H	-0.5827869422	 1.993937067	-1.0811428643	 0.119008
H	-0.8817036909	 2.0804834773	 0.6593285774	 0.117382
H	 0.1828931945	-0.1678290969	 0.9797284745	 0.097509
H	-1.1610710198	-0.2819790031	-0.1421639859	 0.122997
H	 0.4438756346	-0.1537429962	-2.0734778869	 0.123276
H	 1.7895845513	-0.0946922144	-0.947055011	 0.103
H	 3.2825991949	-3.1321793342	 0.8137676623	 0.156465
H	 3.8688514071	-3.2245776437	-0.8495121838	 0.156681
H	 3.4461599031	-1.650117015	-0.1475913068	 0.144833
42.7322	88.2994	105.3578	123.7309	238.9873	243.2256	252.3172	315.4128	364.385	427.508	654.9376	665.0592	670.8934	713.9126	746.785	784.9111	872.5413	900.4065	994.7707	1027.0108	1046.0253	1065.3992	1070.3599	1113.0486	1195.2262	1236.5207	1273.549	1313.8174	1329.4171	1377.5367	1390.9457	1413.753	1423.4106	1463.9012	1474.4849	1477.9311	1486.8162	1493.0765	1499.9816	1509.7653	1655.0405	3025.2366	3029.6393	3036.5616	3044.8074	3057.9059	3077.2977	3099.8156	3102.4982	3106.6437	3137.5756
CCCC1=C(C)ON=N1	CCCc1c(C)onn1	
InChI=1S/C6H10N2O/c1-3-4-6-5(2)9-8-7-6/h3-4H2,1-2H3	InChI=1S/C6H10N2O/c1-3-4-6-5(2)9-8-7-6/h3-4H2,1-2H3
