17
gdb 55206	2.53732	1.53729	1.086	2.7836	75.62	-0.2475	-0.0561	0.1913	1116.249	0.135123	-421.888915	-421.880489	-421.879545	-421.922556	30.914	
C	-0.0838977865	 1.476294566	 0.1856484569	-0.48698
C	 0.0855101265	-0.0101208214	-0.0220016461	 0.381554
O	 1.1634673725	-0.5412909124	-0.1543327619	-0.297457
C	-1.2161245815	-0.8266359457	-0.0309934301	-0.223556
C	-1.0504031229	-2.2748078617	-0.5117665115	-0.293084
C	-1.4976387109	-3.1145697159	 0.6553721253	-0.043789
C	-1.8881101035	-2.3923019699	 1.7117174047	-0.157151
C	-1.7741481796	-0.9503264646	 1.4218511056	 0.368819
O	-2.0532879038	-0.0260294319	 2.1494628493	-0.331884
H	 0.8888994615	 1.9503647234	 0.3197429466	 0.13793
H	-0.5857237674	 1.9124968578	-0.6866139659	 0.136821
H	-0.733201793	 1.653116499	 1.0493274272	 0.175958
H	-1.9645609758	-0.2687232096	-0.6034899723	 0.115315
H	-1.6464273296	-2.4918827715	-1.4056489554	 0.120173
H	-0.0039488858	-2.4790538181	-0.7627149709	 0.154055
H	-1.4853164362	-4.1986179055	 0.6135403347	 0.122162
H	-2.241946904	-2.7576432478	 2.6667274137	 0.121115
65.5136	75.5853	174.5308	187.2482	254.3032	322.1138	360.8019	450.6264	545.7253	577.7151	605.2397	663.5514	765.4262	778.292	808.5096	874.7113	936.8725	954.4293	988.2982	1010.9182	1046.5103	1069.4579	1112.9063	1157.9689	1172.6012	1191.6475	1203.0594	1311.0286	1324.6364	1365.2368	1385.6492	1461.9115	1467.5636	1476.0729	1650.4077	1797.2301	1814.622	3034.6461	3040.6374	3062.476	3082.232	3101.1985	3156.4309	3192.8447	3232.6345
CC(=O)C1CC=CC1=O	CC(=O)[C@H]1CC=CC1=O	
InChI=1S/C7H8O2/c1-5(8)6-3-2-4-7(6)9/h2,4,6H,3H2,1H3	InChI=1S/C7H8O2/c1-5(8)6-3-2-4-7(6)9/h2,4,6H,3H2,1H3/t6-/m1/s1
