15
gdb 42502	6.6102	0.65162	0.62295	5.8313	75.08	-0.2771	-0.0432	0.2339	1686.6143	0.111002	-416.814322	-416.804741	-416.803797	-416.849946	32.908	
O	 0.5679567715	 1.0013911538	-1.4993183679	-0.360582
C	 0.2423101749	 1.5405656462	-0.4564313817	 0.279465
N	 1.0903006799	 1.6816771799	 0.6044461221	-0.320279
C	 2.4391528858	 1.1518374072	 0.5630438597	-0.165627
C	 3.3714879885	 2.0082952028	-0.3274064793	-0.331281
C	 4.7414581395	 1.5060084837	-0.3118423035	 0.257463
N	 5.8197014895	 1.092271721	-0.2742171712	-0.300028
C	-1.0846905492	 2.0935469958	-0.2273294962	 0.21943
C	-2.1881522589	 2.5428027716	-0.067440959	-0.387391
H	 0.7592692439	 2.1503618284	 1.4316229329	 0.264745
H	 2.8240834443	 1.1116997635	 1.5840049861	 0.131543
H	 2.4107167971	 0.1333966813	 0.166519042	 0.159378
H	 2.9872473053	 1.9930633249	-1.3514027898	 0.186524
H	 3.3680278424	 3.0484295007	 0.015623937	 0.150297
H	-3.1679472244	 2.9351708191	 0.0598369185	 0.216344
50.3305	60.6615	81.9464	150.0699	175.23	249.6664	281.0097	375.2833	401.2515	426.4162	500.7176	589.7697	606.2254	666.8787	686.7479	756.9525	770.79	890.5273	958.3961	1017.0561	1077.7225	1099.3345	1223.777	1257.8546	1298.5207	1340.5749	1403.9901	1469.1052	1479.1734	1526.5078	1752.1024	2228.8533	2363.9952	3055.0243	3072.7793	3103.7227	3130.2004	3494.3302	3650.7139
O=C(NCCC#N)C#C	O=C(NCCC#N)C#C	
InChI=1S/C6H6N2O/c1-2-6(9)8-5-3-4-7/h1H,3,5H2,(H,8,9)	InChI=1S/C6H6N2O/c1-2-6(9)8-5-3-4-7/h1H,3,5H2,(H,8,9)
