22
gdb 120671	4.25687	0.73807	0.69384	1.9297	83.45	-0.2364	0.081	0.3174	1692.5994	0.194186	-404.307974	-404.298375	-404.297431	-404.343126	35.642	
O	 0.200746812	 1.3853006492	 0.1976975645	-0.421066
C	 0.0410417436	-0.0233997099	 0.2681515441	-0.054071
C	-1.2584591736	-0.5091530422	-0.3808496946	-0.208718
C	-1.3955289618	-2.012232066	-0.3281801308	-0.101913
N	-1.8511507777	-2.5812904632	 0.963287849	-0.390793
C	-2.6973294708	-2.7122970331	-0.2177375817	 0.367206
C	-4.1110486608	-2.1381377481	-0.3700025735	-0.284986
C	-4.3891956063	-3.2519051462	-1.4236840296	-0.205851
C	-3.1013460914	-3.9947566243	-0.9565429962	-0.306797
H	-0.4980367096	 1.783792802	 0.7261167382	 0.280338
H	 0.9044003863	-0.4430574007	-0.2610939661	 0.104104
H	 0.0866159036	-0.3854899172	 1.3060520276	 0.102442
H	-2.1108385642	-0.0564961835	 0.1407440425	 0.093147
H	-1.2897279971	-0.1611586321	-1.4209020756	 0.101513
H	-0.6117463717	-2.5599654728	-0.8538577708	 0.07929
H	-1.3770309294	-3.4609591391	 1.155807677	 0.225614
H	-4.6990834924	-2.2623868669	 0.5440703935	 0.10774
H	-4.1993553095	-1.1014603571	-0.7044793808	 0.101589
H	-5.3300234156	-3.7965240434	-1.3269970626	 0.101439
H	-4.3029437781	-2.8832469425	-2.4484064668	 0.106661
H	-2.4223604451	-4.3675146047	-1.7285904753	 0.100096
H	-3.3267013604	-4.8132106182	-0.263929612	 0.103015
63.1717	91.1571	99.9262	119.6167	210.8928	258.1859	299.589	333.0907	390.7531	464.7662	510.6673	566.1713	713.9932	780.8161	788.829	838.435	859.9217	898.1945	929.2768	950.9449	967.7913	1008.7335	1013.0647	1057.1231	1069.8213	1077.9353	1108.2659	1138.127	1141.783	1194.1412	1217.1997	1241.2951	1247.6244	1253.7301	1273.6529	1293.5859	1297.5553	1318.8204	1357.8209	1397.3114	1421.0989	1471.6968	1475.6567	1480.4245	1482.9575	1509.2753	1513.6808	2996.5228	3025.0762	3039.8075	3054.0584	3056.3051	3071.2504	3074.7393	3090.813	3095.4168	3104.2418	3127.9388	3486.8202	3816.2409
OCCC1NC11CCC1	OCC[C@H]1NC21CCC2	
InChI=1S/C7H13NO/c9-5-2-6-7(8-6)3-1-4-7/h6,8-9H,1-5H2	InChI=1S/C7H13NO/c9-5-2-6-7(8-6)3-1-4-7/h6,8-9H,1-5H2/t6-/m1/s1
