19
gdb 43170	2.19403	1.80584	1.72657	1.9484	73.94	-0.2342	-0.0132	0.221	947.4017	0.162713	-423.060467	-423.053279	-423.052335	-423.09196	28.776	
O	 0.0002323678	 0.0425810047	-0.0117415899	-0.336744
C	-0.0152038881	 1.2453088409	 0.0310249176	 0.405546
C	-1.2178709215	 2.1826205351	 0.0461226256	-0.125137
C	-0.810894723	 3.2322507214	 1.1022630252	-0.217751
C	 0.7570336437	 3.253173203	 1.0802000634	-0.217751
C	 1.1619941999	 2.2143547874	 0.0126546346	-0.125138
C	 1.1266199562	 2.8470545167	-1.4060664419	-0.100309
O	-0.0694139487	 3.578631168	-1.6112310027	-0.238958
C	-1.2392832973	 2.8155121927	-1.3727883869	-0.100308
H	-2.1589573736	 1.6651708353	 0.2402136828	 0.087337
H	-1.2283349343	 4.2155121807	 0.8723028117	 0.110769
H	-1.1812815942	 2.9390721473	 2.0880953254	 0.107348
H	 1.1414547322	 4.2471281128	 0.8389229859	 0.11077
H	 1.1627000518	 2.9703821027	 2.0551196956	 0.107348
H	 2.1216268606	 1.7222536407	 0.1800180231	 0.087337
H	 1.9449962612	 3.5635570364	-1.5248646488	 0.117262
H	 1.2413281425	 2.05835301	-2.1669935944	 0.105558
H	-1.3542822406	 2.0237521945	-2.1304885785	 0.105558
H	-2.0794809136	 3.5099057397	-1.4682569678	 0.117262
132.0756	145.5989	268.0681	287.1572	385.6286	441.3341	467.4346	494.9537	701.8404	706.6017	762.3416	795.6611	837.7747	845.8362	864.6975	906.5204	959.637	979.7402	983.2144	1029.588	1048.5366	1097.1382	1117.4809	1165.6388	1188.7383	1204.0911	1213.3905	1236.0988	1285.3077	1286.0531	1293.7394	1310.611	1326.3944	1345.6617	1384.9767	1408.048	1481.7026	1498.2908	1503.3676	1510.3506	1854.152	2978.266	2982.3115	3055.907	3065.9753	3081.2131	3083.3336	3093.5198	3105.4622	3105.4939	3115.6162
O=C1C2CCC1COC2	O=C1[C@H]2CC[C@@H]1COC2	
InChI=1S/C7H10O2/c8-7-5-1-2-6(7)4-9-3-5/h5-6H,1-4H2	InChI=1S/C7H10O2/c8-7-5-1-2-6(7)4-9-3-5/h5-6H,1-4H2/t5-,6+
