16
gdb 24568	2.23819	1.96929	1.20994	1.1852	82.52	-0.2152	-0.0286	0.1866	1017.0633	0.125222	-400.729345	-400.721716	-400.720772	-400.761667	28.819	
O	-0.048226935	 1.2699093652	-0.2550741878	-0.201914
C	 0.9475026002	 2.1750098407	 0.0117259702	 0.046012
C	 2.2166058914	 2.169769422	-0.3979865624	-0.131512
C	 2.9703241447	 1.1332286379	-1.0909205143	-0.163041
C	 3.3462044826	-0.0579846748	-0.5874760986	 0.003069
N	 3.1747421362	-0.531118709	 0.6918417421	-0.194398
C	 2.0628789101	-0.7912832201	 1.2642606244	-0.04132
C	 0.7126514102	-0.8720358326	 0.709907161	-0.164521
C	-0.0929898645	-0.0444041356	 0.0287406806	 0.069579
H	 0.5200173689	 3.0540120685	 0.48358876	 0.116904
H	 2.7400726006	 3.1077924037	-0.2118989232	 0.110171
H	 3.4174564148	 1.4218045895	-2.0397470273	 0.100253
H	 4.0275009358	-0.6704989626	-1.1763505746	 0.109644
H	 2.1462097899	-1.1618170742	 2.2911077898	 0.109878
H	 0.2380381638	-1.8303971535	 0.9182039261	 0.109325
H	-1.0531068895	-0.4211769951	-0.3119304259	 0.12187
85.2846	134.8537	192.5453	235.8402	303.6697	389.0406	483.2989	528.4833	601.7618	686.8137	730.0301	744.0718	802.7941	825.4895	855.4893	890.688	933.0667	951.3806	960.5162	967.7753	973.6338	1016.4174	1073.925	1171.609	1269.0013	1300.8505	1361.9889	1413.9046	1436.872	1444.9427	1469.5504	1647.9329	1686.5294	1701.3825	1726.1931	3066.9511	3119.2086	3129.8165	3132.0819	3152.9989	3180.7862	3186.4547
O1C=CC=CN=CC=C1	o1ccccnccc1	
InChI=1S/C7H7NO/c1-2-6-9-7-3-5-8-4-1/h1-7H/b4-1-,6-2-,7-3-,8-5-	InChI=1S/C7H7NO/c1-2-6-9-7-3-5-8-4-1/h1-7H/b4-1-,6-2-,7-3-,8-5-
