19
gdb 89862	3.02718	1.12468	0.95595	1.4739	83.16	-0.2239	0.0477	0.2716	1294.4832	0.156845	-385.831248	-385.822197	-385.821253	-385.865219	34.494	
C	-0.713411779	 1.2988102144	 0.2925970154	-0.396225
C	 0.0030993626	-0.0175554517	 0.077305071	 0.153389
C	 0.7757816151	-0.2182410122	-1.2502286633	-0.382401
C	 1.9948438608	-0.2933941227	-0.3471520621	 0.465511
C	 3.1984765063	-1.1594686818	-0.3991651391	-0.362024
C	 3.3493898446	 0.3663901928	-0.5271673091	-0.288646
C	 3.6886089183	 0.9661617154	-1.7797971082	 0.338873
C	 3.9394237462	 1.4689048951	-2.8446956805	-0.470588
O	 1.2439281722	-0.1025024631	 0.8421771861	-0.322291
H	-0.0711877612	 2.1406335457	 0.0164016851	 0.126332
H	-1.6241380053	 1.3399889407	-0.3151797954	 0.117394
H	-0.9981316853	 1.4119765972	 1.3432665948	 0.128255
H	-0.6481285005	-0.8604053502	 0.338756334	 0.08185
H	 0.53911117	-1.1300052054	-1.8011919468	 0.113628
H	 0.7635048641	 0.6355341584	-1.9310168677	 0.124365
H	 3.5402896318	-1.5971353919	 0.532452293	 0.129062
H	 3.3724333752	-1.7564739594	-1.2878331053	 0.127457
H	 3.7254023698	 0.8657283051	 0.3614775323	 0.121818
H	 4.1784091443	 1.9126927634	-3.7789046642	 0.194241
51.8045	115.0407	134.8013	230.5614	262.9065	306.7764	370.1998	374.9017	405.401	511.8231	528.8804	565.3586	611.2693	646.9616	778.9451	802.8357	848.9401	877.1791	910.2851	917.0884	933.9486	951.165	1041.5564	1071.7272	1081.8041	1097.5781	1112.4759	1132.9657	1190.8769	1209.6658	1244.7405	1304.1193	1345.1468	1373.3007	1402.7484	1416.0462	1472.9411	1482.9193	1495.12	1498.3435	2230.1804	3028.0098	3034.2999	3075.1475	3105.9713	3115.6228	3130.2213	3133.0108	3149.5139	3228.2286	3505.7547
CC1CC2(CC2C#C)O1	C[C@H]1C[C@]2(C[C@H]2C#C)O1	
InChI=1S/C8H10O/c1-3-7-5-8(7)4-6(2)9-8/h1,6-7H,4-5H2,2H3	InChI=1S/C8H10O/c1-3-7-5-8(7)4-6(2)9-8/h1,6-7H,4-5H2,2H3/t6-,7+,8+/m0/s1
