19
gdb 48993	2.57173	1.62151	1.27678	2.6217	82.28	-0.2282	-0.0243	0.204	1054.6283	0.159888	-385.887508	-385.879598	-385.878654	-385.919918	30.762	
O	-0.1046630932	-0.0036949846	-0.3588951007	-0.263578
C	 0.0219351541	 1.1066749923	 0.0946984097	 0.117487
C	 1.2921844831	 1.9226733919	 0.068439462	 0.194157
C	 2.4813656924	 1.1428359522	-0.5948497238	-0.28654
C	 2.1182906683	 1.8075083894	-1.9758796211	-0.320814
C	 1.358026328	 2.8239862997	-1.1599225319	 0.278623
C	 1.218423003	 4.1132787777	-0.8761430801	-0.233476
C	 0.9105806954	 4.2866932776	 0.608567098	-0.244954
C	 1.3792797269	 2.9310621455	 1.2365667523	-0.320571
H	-0.8431845133	 1.6313096365	 0.5626341882	 0.075048
H	 3.4473280162	 1.4834488974	-0.2174881883	 0.105967
H	 2.4066983383	 0.0555651801	-0.5522034432	 0.124326
H	 2.929217546	 2.1768160685	-2.6067974695	 0.112943
H	 1.4746686197	 1.1463640807	-2.5632867221	 0.13227
H	 1.3934403925	 4.948096615	-1.545112568	 0.099361
H	 1.4488730668	 5.1392876796	 1.0367995275	 0.107418
H	-0.155203833	 4.4748847819	 0.7960380125	 0.110215
H	 0.7852774159	 2.6444538475	 2.1107715153	 0.100179
H	 2.4198595129	 3.0172160612	 1.5640016132	 0.111938
96.2478	118.8016	227.2654	243.8724	281.398	325.5167	437.5365	456.774	632.7305	645.8692	669.3418	766.991	780.1581	818.3591	856.927	897.0817	908.6222	924.2098	935.7236	962.2771	1010.3226	1049.5628	1093.2863	1106.9783	1120.7635	1170.6508	1202.3835	1211.8026	1225.7397	1257.6778	1260.6768	1282.5087	1310.4642	1327.4777	1424.0549	1458.4697	1478.6067	1480.4914	1498.3718	1734.4278	1812.9394	2861.9324	3015.0376	3046.3127	3061.9532	3062.5054	3076.6187	3093.3399	3117.2179	3147.5975	3197.045
O=CC12CCC1=CCC2	O=C[C@@]12CC[C]1[CH]CC2	
InChI=1S/C8H10O/c9-6-8-4-1-2-7(8)3-5-8/h2,6H,1,3-5H2	InChI=1S/C8H10O/c9-6-8-4-1-2-7(8)3-5-8/h2,6H,1,3-5H2/t8-/m1/s1
