20
gdb 57677	3.79696	0.83738	0.82721	2.7381	76.67	-0.2526	-0.0357	0.2169	1446.5939	0.167543	-440.323456	-440.312929	-440.311985	-440.359525	37.439	
C	 0.0840829811	 1.6461410867	 0.0703093062	-0.409113
C	 0.0495209065	 0.1067502528	 0.0804275492	 0.259555
C	 0.7768392486	-0.44570336	 1.3210413642	-0.415995
C	-1.414625542	-0.3967394476	 0.0112901193	-0.32543
C	-2.2996571386	 0.0664645161	 1.1501074023	 0.157436
O	-3.3310239459	 0.6685565411	 0.9981688833	-0.235938
N	 0.6991904275	-0.4178442051	-1.139399255	-0.302253
C	 1.9901232918	-0.2075317889	-1.505156356	 0.161776
O	 2.8182730621	 0.4230225799	-0.8791563381	-0.332208
H	 1.1171005763	 1.9951373419	 0.0410278529	 0.158953
H	-0.4452071693	 2.038931585	-0.8030681234	 0.117864
H	-0.397168453	 2.0477132026	 0.9676756271	 0.120408
H	 0.3487842542	-0.0387360219	 2.2414583869	 0.116709
H	 0.7074687192	-1.5374856689	 1.3591197115	 0.110265
H	 1.8302431062	-0.1658365566	 1.2801042249	 0.164037
H	-1.8852884404	-0.0685728187	-0.9213996358	 0.121613
H	-1.4083653277	-1.4967978587	 0.0311665326	 0.120469
H	-1.9462589084	-0.2074950603	 2.1683060597	 0.085851
H	 0.1287356278	-0.9441569391	-1.7825222407	 0.245841
H	 2.2184297239	-0.6961518002	-2.4746503811	 0.08016
46.6231	66.5597	101.6708	162.167	202.3705	246.9795	259.6597	279.1988	313.2363	336.0978	379.489	426.5443	458.4012	518.0029	530.778	711.0796	823.2918	833.3209	911.2089	935.2922	969.169	992.2158	1029.9057	1059.9309	1072.2201	1174.6341	1186.4096	1209.9025	1266.6324	1283.3964	1316.3766	1398.6077	1418.3968	1434.787	1436.9259	1467.1308	1474.1972	1486.2609	1505.4617	1523.072	1525.7675	1796.9374	1831.934	2892.721	2922.2826	3005.19	3042.0863	3046.8708	3084.1354	3109.3178	3113.5719	3147.9648	3150.9346	3625.6751
CC(C)(CC=O)NC=O	CC(C)(CC=O)NC=O	
InChI=1S/C6H11NO2/c1-6(2,3-4-8)7-5-9/h4-5H,3H2,1-2H3,(H,7,9)	InChI=1S/C6H11NO2/c1-6(2,3-4-8)7-5-9/h4-5H,3H2,1-2H3,(H,7,9)
