15
gdb 124177	3.50716	0.97954	0.77305	4.8014	79.56	-0.2584	-0.0497	0.2088	1429.572	0.110812	-416.759321	-416.750293	-416.749348	-416.796179	30.572	
C	 0.0111232809	 1.4681828668	 0.0232790222	-0.50836
C	 0.0130738756	 0.0161704859	-0.0269826267	 0.184592
C	 0.0304839245	-1.1883927523	-0.0705703493	-0.023318
C	 0.0041095909	-2.5992794839	-0.1164949302	 0.172761
N	 1.0759633365	-3.3472285357	-0.2615316479	-0.175105
O	 0.6300855103	-4.6320691286	-0.25653031	-0.158813
N	-0.7315287387	-4.6948936406	-0.1074109771	-0.12423
C	-1.1427793025	-3.4613208489	-0.0189358935	 0.203797
C	-2.5746894307	-3.0877906211	 0.153140784	-0.511807
H	 0.6532473904	 1.833315038	 0.8320640871	 0.163185
H	 0.3819216452	 1.8937171005	-0.915515718	 0.162918
H	-0.998438828	 1.8566541018	 0.193304593	 0.157792
H	-2.7168111339	-2.5176037208	 1.0765413321	 0.149798
H	-2.9110013662	-2.455446176	-0.6745066114	 0.149801
H	-3.1963438442	-3.983468755	 0.1903284959	 0.156987
5.8785	81.1146	98.6282	121.9374	249.7519	258.6946	322.7267	362.0966	475.8253	498.1395	542.2679	636.798	690.8182	760.1397	915.2383	933.2029	994.9956	1015.6166	1048.0231	1053.0723	1071.4459	1077.7114	1274.6734	1389.8421	1411.2978	1420.3189	1471.9498	1473.0028	1478.5391	1479.516	1522.9614	1612.3716	2368.2447	3031.3239	3047.4691	3094.5689	3097.9392	3104.5283	3148.0113
CC#CC1=NON=C1C	CC#Cc1nonc1C	
InChI=1S/C6H6N2O/c1-3-4-6-5(2)7-9-8-6/h1-2H3	InChI=1S/C6H6N2O/c1-3-4-6-5(2)7-9-8-6/h1-2H3
