19
gdb 63009	2.46255	1.74594	1.52538	0.8941	73.26	-0.2508	0.0709	0.3216	974.6064	0.158974	-422.999825	-422.99189	-422.990946	-423.031593	32.246	
C	 0.0021325558	 1.5519997591	 0.0670299274	-0.436011
C	 0.0166651023	 0.0251660666	 0.0073322941	 0.329939
O	-1.3140931202	-0.5003759025	-0.0332144102	-0.469571
C	 0.704517516	-0.5591455156	-1.2358749393	-0.051028
C	 2.1727388008	-0.3479536426	-1.4897324846	-0.307611
C	 1.7070043563	-1.6140667722	-0.8107254909	-0.069986
C	 1.724832175	-1.5981436983	 0.7020097358	 0.034225
O	 2.1459076154	-0.3471877677	 1.2815151556	-0.262648
C	 0.744506982	-0.6244360495	 1.1961150125	-0.017176
H	 1.0188615894	 1.9490752064	 0.1154810815	 0.137358
H	-0.497321871	 1.9625196461	-0.8151828329	 0.123917
H	-0.5340076987	 1.90106585	 0.9587234411	 0.101479
H	-1.8209677834	-0.0716370696	 0.6648158979	 0.27741
H	 0.0475034875	-0.7147857517	-2.0834815909	 0.095924
H	 2.5003537499	-0.4298963357	-2.5205271025	 0.108668
H	 2.7235859342	 0.363687118	-0.8882225687	 0.135214
H	 1.7913659348	-2.5702369934	-1.3122632606	 0.086851
H	 2.0197868281	-2.4837197137	 1.2571826473	 0.097399
H	 0.2197772158	-0.7044895637	 2.1477910172	 0.085647
149.9149	197.4042	229.2608	275.4615	330.8064	350.8761	378.162	390.4103	529.7636	539.9618	598.9336	705.5595	750.9395	798.0073	819.3669	858.9527	892.7149	903.413	942.0805	969.6874	1007.3206	1027.934	1046.0286	1077.2265	1087.5679	1100.1722	1107.6538	1117.897	1173.3677	1189.1672	1217.9174	1257.2382	1296.2406	1338.9546	1358.2356	1392.6173	1403.0815	1430.78	1477.3742	1491.1814	1493.6738	3025.0397	3096.331	3114.9721	3130.5143	3141.5623	3158.183	3179.2707	3190.3206	3235.3567	3806.5867
CC1(O)C2CC2C2OC12	C[C@@]1(O)[C@H]2C[C@H]2[C@H]2O[C@@H]12	
InChI=1S/C7H10O2/c1-7(8)4-2-3(4)5-6(7)9-5/h3-6,8H,2H2,1H3	InChI=1S/C7H10O2/c1-7(8)4-2-3(4)5-6(7)9-5/h3-6,8H,2H2,1H3/t3-,4+,5-,6-,7-/m1/s1
