17
gdb 93610	2.41279	1.39249	1.13259	5.5072	72.22	-0.2474	-0.0473	0.2001	1134.6654	0.136358	-418.035879	-418.027195	-418.026251	-418.069941	31.505	
C	-0.1534764789	 1.5719941407	 0.1444665359	-0.403798
C	 0.1988383022	 0.0979880639	-0.0456100777	-0.0998
C	 1.2517541686	-0.250343292	-1.1142856236	-0.202501
N	 1.860722921	-1.5357978189	-0.7135426074	-0.282594
C	 1.9090101365	-1.5293392691	 0.7496797939	-0.276428
C	 3.2099784832	-1.0617665415	 1.2476931696	 0.324779
N	 4.2222152842	-0.6660083157	 1.6398842175	-0.317495
C	 0.7806698904	-0.5407239497	 1.2174110443	 0.401831
O	 0.4515764961	-0.350269621	 2.3526862485	-0.293626
H	 0.7489285415	 2.1698786749	 0.3073312472	 0.133675
H	-0.6705174806	 1.9685450511	-0.7337241972	 0.122515
H	-0.8008052649	 1.6961918964	 1.0162951835	 0.145376
H	-0.7175442364	-0.472384714	-0.2631636628	 0.110412
H	 0.841682727	-0.3324816856	-2.1223278553	 0.12093
H	 2.0346159119	 0.5180649454	-1.1372228953	 0.132631
H	 1.2768893012	-2.3059814862	-1.0192872236	 0.234819
H	 1.7163462471	-2.5204129987	 1.1712526625	 0.149274
38.3441	126.2812	151.1106	187.2014	238.0768	266.8506	348.474	413.2983	478.1033	549.8501	581.4055	636.5603	659.9601	757.7142	822.6846	893.2943	901.7966	931.2615	1000.5444	1021.2963	1080.7929	1103.6151	1145.6664	1149.4497	1197.9765	1227.0703	1295.8587	1298.8981	1343.2232	1369.4546	1409.2157	1463.1288	1493.9965	1496.7379	1503.4186	1863.4989	2357.6947	2993.7689	3036.9033	3044.0512	3076.8701	3113.0596	3118.3475	3126.4713	3540.8096
CC1CNC(C#N)C1=O	C[C@H]1CN[C@@H](C#N)C1=O	
InChI=1S/C6H8N2O/c1-4-3-8-5(2-7)6(4)9/h4-5,8H,3H2,1H3	InChI=1S/C6H8N2O/c1-4-3-8-5(2-7)6(4)9/h4-5,8H,3H2,1H3/t4-,5-/m0/s1
