20
gdb 82191	2.44974	1.80625	1.36058	2.4781	77.09	-0.2318	0.0664	0.2983	1021.0332	0.172562	-403.116513	-403.108564	-403.10762	-403.148435	32.417	
C	-0.1802722472	 1.4709365004	 0.0123117285	-0.491486
C	 0.0132008827	-0.0272218464	 0.0075677225	 0.334852
C	-0.74899853	-0.8706505022	 1.0002852545	-0.336958
C	 0.7550360033	-0.7708868553	 1.1020024809	-0.077758
C	 1.5656552514	-1.8685072043	 0.4391542021	-0.046482
N	 0.7611143649	-2.8884093811	-0.2804160101	-0.356494
C	 1.3951358721	-1.7815712849	-1.0289757548	-0.073662
C	 0.383142267	-0.6766995726	-1.350203826	 0.05348
O	-0.7170146903	-1.1481212114	-2.1050530885	-0.437609
H	 0.7104130896	 1.9933439962	-0.3574915326	 0.110637
H	-1.0229348552	 1.7556853969	-0.6285191735	 0.128527
H	-0.3897016751	 1.8418375553	 1.0208394632	 0.110584
H	-1.3331127414	-0.3309679668	 1.7392123444	 0.101629
H	-1.1692675039	-1.8214906596	 0.6976775705	 0.125413
H	 1.2045270523	-0.2512955576	 1.9412503665	 0.078415
H	 2.4995746495	-2.1821728296	 0.8928302253	 0.086672
H	 1.3081675954	-3.7372448171	-0.3969026904	 0.233875
H	 2.181638519	-2.0126709235	-1.7400312939	 0.08802
H	 0.8643088661	 0.0844977171	-1.9746574303	 0.079455
H	-0.9865682102	-1.9726514038	-1.6803848481	 0.28889
119.7524	208.9915	223.8884	248.6276	291.0655	382.7017	408.6681	462.7445	524.5904	562.9427	652.1837	678.3261	722.4436	803.9317	822.0557	868.9045	879.6675	897.191	941.9213	971.1381	987.0896	1003.1547	1055.5381	1064.7863	1076.5494	1090.9052	1092.1108	1123.0264	1134.8577	1167.8082	1217.063	1256.3454	1281.8554	1303.4367	1322.7775	1363.2146	1402.3071	1416.8976	1417.5842	1441.246	1486.7594	1489.7123	1502.1361	3018.6664	3049.3269	3079.0505	3095.3262	3133.1795	3158.2839	3163.8261	3176.2241	3226.4076	3505.6788	3771.0975
CC12CC1C1NC1C2O	C[C@]12C[C@H]1[C@H]1N[C@H]1[C@H]2O	
InChI=1S/C7H11NO/c1-7-2-3(7)4-5(8-4)6(7)9/h3-6,8-9H,2H2,1H3	InChI=1S/C7H11NO/c1-7-2-3(7)4-5(8-4)6(7)9/h3-6,8-9H,2H2,1H3/t3-,4+,5+,6+,7-/m0/s1
