16
gdb 5572	3.32334	1.78508	1.23946	2.5691	67.6	-0.198	0.0217	0.2198	975.3709	0.131449	-379.957675	-379.949715	-379.948771	-379.990416	28.747	
C	 0.2274171156	 1.6185691466	 0.2089346962	-0.363722
C	-0.1232901911	 0.1520553149	-0.0872051438	-0.300752
C	 0.5641613635	-0.3802218673	-1.304054739	 0.20803
C	 0.0455459977	-0.9249384214	-2.4397035087	 0.254636
N	-1.2240517924	-1.2795721573	-2.8743402751	-0.597852
O	 1.0726846223	-1.2596552275	-3.2726961527	-0.16912
C	 2.192313496	-0.8892989623	-2.5857116439	 0.052113
N	 1.9586192109	-0.3782859628	-1.4293397129	-0.300469
H	 1.3091450437	 1.7329883874	 0.3161791174	 0.141666
H	-0.0988905963	 2.2733339452	-0.6055163269	 0.110187
H	-0.2502078778	 1.9572087885	 1.1336164818	 0.106509
H	 0.1439086901	-0.462351985	 0.7826432491	 0.117266
H	-1.2091027379	 0.0455573453	-0.2070760705	 0.083971
H	-1.9496565614	-0.8684875782	-2.3026304811	 0.256616
H	-1.3817271804	-1.0585653331	-3.8507498953	 0.257336
H	 3.1352320574	-1.056082213	-3.0805692046	 0.143585
53.4119	145.5168	174.9389	209.4615	276.6582	288.2356	372.1788	484.8465	622.7449	648.0124	707.1909	724.2757	773.5083	787.2787	789.1273	950.054	975.1042	1016.0875	1058.479	1090.8078	1116.313	1200.4655	1266.9346	1295.5085	1307.8706	1368.9505	1405.2451	1430.0402	1478.2526	1495.6762	1509.4885	1574.8006	1627.7719	1696.7015	3014.9647	3038.0985	3045.8389	3106.3098	3124.8568	3282.038	3531.0379	3634.2212
CCC1=C(N)OC=N1	CCc1c(N)ocn1	
InChI=1S/C5H8N2O/c1-2-4-5(6)8-3-7-4/h3H,2,6H2,1H3	InChI=1S/C5H8N2O/c1-2-4-5(6)8-3-7-4/h3H,2,6H2,1H3
