23
gdb 118144	3.18662	0.76411	0.65037	2.6481	81.84	-0.242	0.0708	0.3128	1741.7951	0.204552	-425.399199	-425.388694	-425.38775	-425.435712	37.349	
C	-0.178716294	 1.5154549438	 0.099989169	-0.40225
C	 0.0126576982	-0.0045774577	-0.0205650485	-0.00594
C	 0.7185685575	-0.4099671596	-1.3260094469	-0.169772
C	-0.0642738728	-0.1051303887	-2.5981367142	-0.085963
O	 0.6667698839	-0.649371118	-3.6878749281	-0.420613
C	 0.7857667236	-0.5414566129	 1.1844474771	-0.006203
C	 0.0938765777	-0.5144666001	 2.5673829026	-0.096172
O	 0.2610857956	-1.9362601894	 2.7328999464	-0.273816
C	 0.8210818589	-2.070811328	 1.4111762496	-0.094575
H	 0.7856509199	 2.0345985443	 0.0457869754	 0.11583
H	-0.8156892775	 1.9126010085	-0.6953404628	 0.117027
H	-0.6462522327	 1.7809689592	 1.0538793706	 0.117167
H	-0.9818463748	-0.4769313796	-0.0089583716	 0.071612
H	 1.6966605062	 0.0846015774	-1.3886918763	 0.101739
H	 0.9168035814	-1.4886241301	-1.3193396619	 0.109139
H	-1.0699733447	-0.5531622741	-2.5299223979	 0.083834
H	-0.1986635401	 0.9804213661	-2.7194629711	 0.08736
H	 0.2012803181	-0.4321483425	-4.5006901271	 0.285411
H	 1.7845875923	-0.0933822306	 1.2091962463	 0.075754
H	 0.5948708578	 0.0528995049	 3.3607661731	 0.10011
H	-0.9673631198	-0.2273122162	 2.543850221	 0.093086
H	 0.1643879812	-2.6492203609	 0.7456480989	 0.094966
H	 1.809213474	-2.5452142657	 1.4304536764	 0.102271
63.3167	75.7173	87.7345	114.2392	135.8069	218.611	247.0676	267.814	303.5205	336.0955	372.264	448.0481	522.9231	750.1531	797.3682	860.8413	894.1706	899.3402	967.6554	977.5814	999.224	1001.8802	1034.3688	1050.0016	1069.8897	1091.7916	1131.4833	1160.8014	1166.4113	1176.4368	1199.0707	1239.6061	1249.6919	1271.8301	1295.9964	1310.2609	1320.4998	1342.3472	1370.1832	1377.2879	1405.496	1412.3186	1462.7685	1487.3133	1499.4689	1505.5412	1511.1703	1528.8299	1536.7015	2958.915	2984.9861	2989.7579	2995.9409	3002.3819	3024.3194	3029.9831	3039.705	3048.3556	3063.5527	3069.0375	3093.8619	3108.0416	3830.38
CC(CCO)C1COC1	C[C@@H](CCO)C1COC1	
InChI=1S/C7H14O2/c1-6(2-3-8)7-4-9-5-7/h6-8H,2-5H2,1H3	InChI=1S/C7H14O2/c1-6(2-3-8)7-4-9-5-7/h6-8H,2-5H2,1H3/t6-/m0/s1
