18
gdb 44220	3.98413	1.24329	1.14836	2.843	77.79	-0.2563	0.027	0.2832	1112.3785	0.148638	-401.917242	-401.909755	-401.908811	-401.949386	29.571	
N	 0.3506934	 0.9245614941	-0.5782356204	-0.548638
C	 0.0876283399	-0.1936302933	-0.0760478188	 0.435409
O	 0.9178643976	-1.1268985389	 0.5234285337	-0.26778
C	-0.2161417826	-2.0151206375	 0.8024356978	 0.006253
C	-1.1723722952	-1.0076162618	 0.1062750388	-0.160142
C	-1.4129209776	-2.046346548	-1.0387909218	-0.334157
C	-0.4669097089	-3.0222113059	-0.3108718194	 0.37112
C	 0.5323641974	-3.9785235132	-0.8876480648	-0.310148
C	-0.6599659517	-4.501479373	-0.1255791616	-0.330361
H	 1.3494021894	 1.1317559389	-0.5199350464	 0.227011
H	-0.2336697003	-2.3154537126	 1.8501681208	 0.090361
H	-2.0305630004	-0.5257811357	 0.567919135	 0.105207
H	-2.4489172506	-2.3917365185	-1.0800399114	 0.113595
H	-1.1104284787	-1.7130697465	-2.0341618256	 0.122131
H	 0.543174407	-4.1003466735	-1.9658218042	 0.119638
H	 1.5106235268	-4.0308926643	-0.4218902126	 0.125935
H	-0.4960693315	-4.9164953619	 0.8640205713	 0.117402
H	-1.4591168305	-4.9793209483	-0.6831995102	 0.117164
67.5603	168.4072	216.1381	281.021	330.474	414.4608	456.2901	553.9434	652.5191	745.6811	769.4947	794.6417	852.2159	868.2661	881.7556	887.6204	901.2436	933.9821	969.8188	984.6889	1010.6029	1011.8219	1053.4718	1060.7862	1078.184	1145.4305	1164.5431	1187.111	1189.3034	1232.9619	1245.3629	1272.4901	1275.4938	1327.3015	1385.8215	1465.6512	1485.2683	1502.3637	1820.9243	3062.6867	3115.3161	3116.0504	3124.042	3132.2453	3150.7651	3204.1812	3220.6393	3473.7101
N=C1OC2C1CC21CC1	[NH][C]1O[C@H]2[C@@H]1CC12CC1	
InChI=1S/C7H9NO/c8-6-4-3-7(1-2-7)5(4)9-6/h4-5,8H,1-3H2	InChI=1S/C7H9NO/c8-6-4-3-7(1-2-7)5(4)9-6/h4-5,8H,1-3H2/t4-,5-/m0/s1
