15
gdb 125445	3.08169	1.47146	1.00286	2.8619	73.05	-0.2143	-0.0653	0.149	1117.0309	0.114073	-450.174066	-450.16599	-450.165046	-450.206581	30.406	
C	-0.041338328	 1.4962710127	-0.0129456528	-0.466406
C	 0.008743487	 0.0048657317	-0.051616799	 0.220491
N	 0.0136853472	-0.6314687944	-1.1795868567	-0.328749
C	 0.0507716815	-2.0114170459	-1.1431456933	 0.439998
N	 0.1312190795	-2.6183820296	-2.3773678849	-0.555179
N	 0.0545156627	-2.7544333518	-0.0716777812	-0.281756
N	 0.0614827827	-2.0577718368	 1.0953844225	-0.273207
C	 0.0472272639	-0.6962515629	 1.2553469154	 0.386435
O	 0.0565174686	-0.1434486884	 2.3457135031	-0.392159
H	 0.825883705	 1.8832467705	 0.5327651364	 0.157637
H	-0.0659058934	 1.9040879666	-1.0233865112	 0.136635
H	-0.9195803182	 1.8261324602	 0.5524536163	 0.155811
H	-0.245747185	-2.0699907286	-3.1342930607	 0.263136
H	-0.1123658194	-3.5967106042	-2.3919688142	 0.26237
H	 0.0734410858	-2.6270416591	 1.9307023702	 0.274943
104.1098	127.7899	212.2926	276.1795	321.5482	351.5214	406.4381	421.2343	502.6981	529.6416	550.9921	586.2133	645.1182	703.3465	734.6616	798.6294	823.9634	953.1103	1016.5238	1045.2953	1107.863	1203.3285	1268.7577	1333.7707	1400.1844	1408.6891	1454.0469	1461.8288	1471.052	1580.7384	1631.3558	1670.6519	1770.4156	3045.106	3098.2464	3159.78	3587.7883	3602.107	3705.1565
CC1=NC(N)=NNC1=O	Cc1nc(N)n[nH]c1=O	
InChI=1S/C4H6N4O/c1-2-3(9)7-8-4(5)6-2/h1H3,(H,7,9)(H2,5,6,8)	InChI=1S/C4H6N4O/c1-2-3(9)7-8-4(5)6-2/h1H3,(H,7,9)(H2,5,6,8)
