19
gdb 55302	2.47813	1.50542	1.06362	4.23	75.9	-0.2323	0.0264	0.2587	1151.6905	0.159991	-419.204173	-419.195264	-419.19432	-419.238157	33.417	
N	 0.1235810845	 1.1336202117	-0.2097046908	-0.524129
C	-0.2926289895	 0.076665853	 0.5411950532	 0.378002
O	 0.1670577708	-0.1673572675	 1.6450905814	-0.377577
C	-1.3655758087	-0.8029587248	-0.0656023435	-0.152958
C	-1.6719899582	-0.8850923436	-1.5911490389	-0.268774
C	-1.8378121167	-2.4278144652	-1.4398854216	-0.29469
C	-1.1034149207	-2.3201790593	-0.1002009541	 0.370896
C	 0.1328630581	-3.0157638976	 0.317273454	-0.304184
N	-1.1611670357	-3.2655187481	 0.9975282227	-0.377944
H	 0.7966989504	 1.767972823	 0.1890130245	 0.261989
H	-0.3072881845	 1.3692463046	-1.085876673	 0.263148
H	-2.2889218794	-0.6109416874	 0.495768073	 0.110759
H	-2.5325646525	-0.3218484695	-1.9576100632	 0.103163
H	-0.795762329	-0.6369268219	-2.1970925973	 0.105929
H	-2.8836551621	-2.7189955611	-1.3046466907	 0.113042
H	-1.3895707931	-3.0577110693	-2.2110994383	 0.106522
H	 0.5017142861	-3.8500473873	-0.274342462	 0.108704
H	 0.8859996033	-2.4463924239	 0.8513160106	 0.137903
H	-1.1655329532	-2.7485437259	 1.8755059937	 0.240199
50.1034	101.699	161.7757	206.4823	225.3493	295.4817	335.4351	387.7481	463.9518	484.7183	578.3702	620.287	674.2076	757.426	799.3005	842.4416	899.9395	921.4778	944.3158	966.3191	980.4363	1027.9865	1048.9037	1081.3916	1095.3903	1116.3748	1131.1315	1191.0626	1236.0591	1250.7929	1257.365	1276.4277	1305.7603	1326.9855	1380.1027	1411.2484	1480.8542	1495.1888	1507.379	1613.394	1770.794	3030.3229	3057.7117	3060.3757	3108.5231	3110.8815	3122.5108	3210.4777	3483.5815	3601.4918	3740.3634
NC(=O)C1CCC11CN1	NC(=O)[C@H]1CC[C@]21CN2	
InChI=1S/C6H10N2O/c7-5(9)4-1-2-6(4)3-8-6/h4,8H,1-3H2,(H2,7,9)	InChI=1S/C6H10N2O/c7-5(9)4-1-2-6(4)3-8-6/h4,8H,1-3H2,(H2,7,9)/t4-,6-/m1/s1
