18
gdb 124524	4.07918	0.97951	0.9543	1.8285	74.58	-0.2345	-0.0026	0.2319	1324.2709	0.147902	-435.289417	-435.28033	-435.279386	-435.323878	33.284	
C	-0.0565568367	 1.5350259829	 0.0021922654	-0.393042
C	-0.0343347289	-0.0043034111	 0.0261549362	-0.090224
C	 0.7276133714	-0.5407680528	 1.2528072269	-0.39316
C	-1.4228212277	-0.5613070242	-0.0187055001	 0.447101
N	-1.9416222666	-1.350496626	-0.9126117603	-0.368015
C	-3.2209037974	-1.528574803	-0.4291718594	 0.399353
N	-4.1075402003	-2.3634177996	-1.0581124896	-0.585468
N	-3.4922427437	-0.8883000343	 0.6851568091	-0.215073
O	-2.2662311187	-0.2389669483	 0.9652302742	-0.216851
H	 0.9662322448	 1.9231015756	-0.0043326853	 0.119485
H	-0.5704768799	 1.9118529776	-0.8867865565	 0.126873
H	-0.5677217767	 1.9308017713	 0.8844520232	 0.138008
H	 0.4528901554	-0.369717506	-0.8827840118	 0.111549
H	 0.2453822228	-0.2201936448	 2.1808102344	 0.137416
H	 0.7671101195	-1.6337079248	 1.2487384298	 0.129928
H	 1.7535782265	-0.1610491038	 1.2503920678	 0.119477
H	-3.939459722	-2.4699091684	-2.046634271	 0.266544
H	-5.075925052	-2.2171338302	-0.8162856732	 0.266101
28.1778	124.6315	179.6333	216.5596	249.3821	277.1752	291.8408	345.4979	406.6237	415.9201	515.9018	566.6862	636.5515	732.9272	765.1388	802.4729	885.8509	930.8175	939.1594	969.7749	1025.3033	1046.8771	1076.3887	1119.8396	1130.2916	1192.6562	1316.9714	1341.245	1350.8319	1398.9174	1419.5764	1449.0529	1487.9231	1489.7218	1501.1964	1510.4926	1581.0102	1633.7733	1660.0351	3040.9064	3043.798	3069.9736	3114.0383	3116.7773	3118.8917	3124.7321	3584.8627	3694.6471
CC(C)C1=NC(N)=NO1	CC(C)c1nc(N)no1	
InChI=1S/C5H9N3O/c1-3(2)4-7-5(6)8-9-4/h3H,1-2H3,(H2,6,8)	InChI=1S/C5H9N3O/c1-3(2)4-7-5(6)8-9-4/h3H,1-2H3,(H2,6,8)
