19
gdb 101298	2.40135	1.07703	0.90611	3.3121	72.82	-0.2615	-0.0456	0.2159	1351.1942	0.155902	-460.139654	-460.129591	-460.128647	-460.17542	35.332	
C	 1.1392012236	 1.7413283205	-0.5185315474	-0.419246
C	 0.2892376342	 0.606715846	 0.0737810313	-0.036589
C	 0.0795162433	-0.5447468011	-0.925690793	-0.069499
O	-0.5779801072	-0.1439027713	-2.1137059514	-0.417455
C	 0.9523259006	 0.0779066705	 1.3253172365	 0.065988
O	 0.9185353305	 0.8885137029	 2.4878022143	-0.23217
C	 0.223078197	-0.3518824971	 2.5546337736	-0.055372
C	-1.2709251521	-0.3146687579	 2.6403581342	 0.142922
O	-1.9571464474	 0.637136901	 2.3693718063	-0.242995
H	 2.1293595979	 1.3840437213	-0.8287094725	 0.109884
H	 0.6440366502	 2.1818033516	-1.3891084399	 0.117013
H	 1.282038311	 2.536717734	 0.2173972859	 0.143923
H	-0.6896917289	 1.0103377791	 0.3464366417	 0.125112
H	 1.047670067	-1.0252056876	-1.14854526	 0.083597
H	-0.5633365232	-1.309970663	-0.4769057011	 0.110417
H	 0.0261931305	 0.4075912781	-2.6193862006	 0.286752
H	 1.9148511211	-0.4168891593	 1.1647970669	 0.098448
H	 0.6908813284	-1.114725461	 3.1796420805	 0.10597
H	-1.7168798263	-1.2776772466	 2.9775465846	 0.083297
48.3875	84.2293	114.0029	139.4354	203.1859	226.2254	255.3569	261.5498	310.2633	354.317	404.1049	481.7578	530.642	751.7363	789.4568	852.8695	882.3667	915.6738	930.9197	964.3192	991.6185	1074.8741	1094.9985	1099.4743	1119.5625	1155.7078	1177.7766	1232.9308	1268.7179	1293.7968	1362.3741	1390.3746	1394.748	1405.1094	1422.8656	1425.2479	1462.2812	1496.6865	1498.1535	1509.62	1825.9614	2878.0257	2958.2853	3025.3004	3063.1369	3064.8126	3085.1654	3100.4087	3102.7677	3119.9439	3831.682
CC(CO)C1OC1C=O	C[C@@H](CO)[C@H]1O[C@H]1C=O	
InChI=1S/C6H10O3/c1-4(2-7)6-5(3-8)9-6/h3-7H,2H2,1H3	InChI=1S/C6H10O3/c1-4(2-7)6-5(3-8)9-6/h3-7H,2H2,1H3/t4-,5-,6+/m0/s1
