19
gdb 89346	2.08182	1.67532	1.20003	4.0101	77.76	-0.2351	-0.0192	0.2159	1106.1718	0.157278	-423.014156	-423.005022	-423.004078	-423.047698	34.231	
C	 0.2293806119	 1.4748145703	 0.1498683064	-0.497647
C	 0.0288160639	-0.0081145694	 0.0496850115	 0.311213
C	 1.1034840679	-0.9451302782	-0.3667962711	-0.373512
C	 0.5612985556	-1.1098689601	 1.0387107398	 0.211613
C	 1.3914631827	-0.8554015842	 2.2213889084	 0.051197
O	 2.4106553568	-0.1948819292	 2.2013127506	-0.29237
C	-0.7916610389	-1.8180591669	 0.9925554892	 0.041826
O	-1.3887555803	-1.7919308671	 2.272264528	-0.434787
C	-1.328934342	-0.7262086741	 0.0074801698	-0.317438
H	 1.2360295934	 1.7001420625	 0.5137861328	 0.151057
H	 0.105580113	 1.952009122	-0.8298664249	 0.122743
H	-0.491764453	 1.9285832762	 0.8376465189	 0.121642
H	 0.9094367305	-1.7335046184	-1.0913508576	 0.109551
H	 2.107250202	-0.5336544739	-0.3899639532	 0.14338
H	 1.0031024587	-1.2849936145	 3.1664929659	 0.093
H	-0.765717123	-2.8428086865	 0.5921582274	 0.066062
H	-2.2681449315	-2.177030712	 2.2032649178	 0.287728
H	-2.1200662173	-0.1510780819	 0.4948586211	 0.109381
H	-1.6703302305	-1.0559663547	-0.9798717309	 0.09536
103.1327	126.7477	160.8543	204.3636	206.8409	266.6699	325.9487	341.8981	399.5681	434.634	477.207	524.4162	650.581	705.7239	757.3358	810.897	864.9829	925.9187	958.7504	984.7066	1025.4022	1039.8036	1062.7599	1080.5001	1103.0925	1168.5036	1186.9301	1196.3383	1239.7242	1266.9495	1284.8448	1342.6148	1385.9902	1421.0397	1424.2351	1436.4109	1467.2224	1485.4342	1494.2532	1499.7985	1773.5344	2932.3825	2979.4176	3025.7991	3040.4852	3087.0307	3103.4238	3109.075	3115.0134	3209.4693	3818.5325
CC12CC1(C=O)C(O)C2	C[C@@]12C[C@]1(C=O)[C@@H](O)C2	
InChI=1S/C7H10O2/c1-6-2-5(9)7(6,3-6)4-8/h4-5,9H,2-3H2,1H3	InChI=1S/C7H10O2/c1-6-2-5(9)7(6,3-6)4-8/h4-5,9H,2-3H2,1H3/t5-,6+,7-/m0/s1
