23
gdb 95814	2.82132	1.14704	0.87241	1.3549	87.45	-0.2375	0.0166	0.2541	1392.7272	0.206707	-388.305252	-388.296035	-388.295091	-388.338793	36.403	
C	 0.1518780863	 1.6508162322	-0.010837589	-0.410548
C	 0.0015022361	 0.1231410125	-0.020904494	-0.012426
C	 0.6688392357	-0.4882961432	-1.2743827761	-0.170109
C	 0.2391026546	-1.9232346154	-1.6204114631	-0.218962
C	 0.6070738805	-3.020998518	-0.6121318878	-0.175119
C	-0.0754777783	-2.8731453285	 0.7528608412	 0.091595
O	 0.0451600952	-4.1331285572	 1.4080507051	-0.443968
C	 0.5172216698	-1.7625033664	 1.5919313025	-0.122302
C	 0.5418915364	-0.4726942467	 1.2639041754	-0.040048
H	 1.2099232686	 1.9379353471	 0.0072577093	 0.116293
H	-0.3010056861	 2.1002163652	-0.8999263588	 0.110222
H	-0.3262871704	 2.0897917285	 0.8709975556	 0.112269
H	-1.0740426908	-0.1076908327	-0.0832778149	 0.080075
H	 0.426759924	 0.14859899	-2.134919923	 0.087607
H	 1.7590282872	-0.4434664654	-1.153031442	 0.093441
H	-0.8495338072	-1.9360224767	-1.7749849352	 0.092034
H	 0.6797030612	-2.1888432822	-2.5885817597	 0.094926
H	 0.3032048649	-3.9925281879	-1.0174994606	 0.103324
H	 1.6925023342	-3.0608927399	-0.4634145355	 0.098621
H	-1.1433461449	-2.6531770483	 0.5676119657	 0.068849
H	-0.3737395508	-4.0576421372	 2.2713448141	 0.27816
H	 0.9702954235	-2.0883141962	 2.5265830074	 0.084309
H	 1.0068664804	 0.2272065364	 1.9559833833	 0.081759
71.7191	157.8135	235.03	250.9619	263.2701	295.4479	313.7121	321.7198	385.9102	407.6188	423.3556	517.2434	583.7259	672.9451	699.4291	789.4614	859.2646	878.4095	899.7473	903.4408	983.3206	989.0054	997.4018	1053.7604	1072.3046	1090.6827	1105.3955	1111.2773	1156.1799	1178.9637	1233.8675	1255.6622	1261.2599	1292.6527	1324.7363	1332.8437	1355.9056	1363.1528	1378.5484	1389.386	1406.6848	1413.1905	1426.9835	1481.3659	1484.6571	1493.3712	1498.1522	1501.5545	1719.8841	2918.51	2971.8916	3005.115	3012.8826	3027.4101	3033.0069	3052.2135	3057.8592	3079.5658	3093.3251	3104.5258	3128.0734	3152.6309	3814.6515
CC1CCCC(O)C=C1	C[C@H]1CCC[C@@H](O)C=C1	
InChI=1S/C8H14O/c1-7-3-2-4-8(9)6-5-7/h5-9H,2-4H2,1H3	InChI=1S/C8H14O/c1-7-3-2-4-8(9)6-5-7/h5-9H,2-4H2,1H3/t7-,8+/m0/s1
