22
gdb 59415	2.92429	0.99652	0.93046	3.1056	84.58	-0.237	-0.0204	0.2165	1401.1322	0.190572	-404.342641	-404.332083	-404.331139	-404.378075	38.605	
C	 2.3867848734	 0.4304526826	 1.0588146104	-0.383142
C	 1.2140216013	-0.4765321744	 0.6768049251	 0.07802
C	-0.1288864252	 0.2345817134	 0.8520223092	-0.389275
N	 1.3732527454	-0.8573891506	-0.7314357284	-0.109108
C	 2.2684056636	-1.9348866274	-1.0739588067	-0.287708
C	 0.7800782487	-2.1073878247	-1.250085233	 0.200794
C	 0.0244692264	-3.1124272686	-0.4076788702	-0.476631
C	 0.2585117883	-1.9185626538	-2.6405216855	 0.141156
O	-0.6064058987	-2.5918077085	-3.1423752844	-0.264538
H	 3.3431550436	-0.0877385098	 0.9384802405	 0.114608
H	 2.4007786779	 1.3220896807	 0.4244700541	 0.126241
H	 2.3013562279	 0.746719997	 2.1028198513	 0.114286
H	 1.2376359256	-1.3600708538	 1.3361545689	 0.063287
H	-0.1739574687	 1.1202131822	 0.2106736521	 0.126664
H	-0.9653384279	-0.4182997084	 0.5870147744	 0.119568
H	-0.2624182929	 0.5506683079	 1.8910155927	 0.11456
H	 2.9230543627	-1.7737562507	-1.9279730465	 0.118979
H	 2.7065047733	-2.5286074618	-0.2710559579	 0.115752
H	 0.499928832	-3.2824100146	 0.5596130967	 0.120303
H	-1.0080423424	-2.7914238849	-0.2413449023	 0.135699
H	-0.019269497	-4.0652619121	-0.9417338234	 0.14287
H	 0.7481396827	-1.0797253297	-3.1828587371	 0.077615
70.9778	79.8312	150.1221	166.1815	190.5332	214.0288	246.8349	265.4327	311.5939	360.024	376.088	399.7405	452.3675	484.8926	616.9858	705.785	766.6975	864.8368	895.2809	933.4833	934.2712	961.2473	975.0389	1023.213	1084.2839	1089.3817	1108.3474	1121.927	1150.5545	1195.6776	1199.9716	1314.395	1341.3881	1360.8849	1367.3487	1397.8448	1409.9778	1417.7039	1424.9174	1481.1953	1484.991	1487.8017	1493.6833	1497.7709	1506.2769	1511.2459	1821.867	2895.2714	2957.9426	3037.2109	3041.9778	3053.5467	3077.1717	3109.4504	3112.4022	3114.013	3118.0179	3118.4409	3138.76	3162.1326
CC(C)N1CC1(C)C=O	CC(C)N1C[C@]1(C)C=O	
InChI=1S/C7H13NO/c1-6(2)8-4-7(8,3)5-9/h5-6H,4H2,1-3H3	InChI=1S/C7H13NO/c1-6(2)8-4-7(8,3)5-9/h5-6H,4H2,1-3H3/t7-,8?/m1/s1
