18
gdb 79427	2.26122	1.97126	1.23977	2.3239	78.23	-0.219	-0.0343	0.1847	1026.5769	0.146367	-401.851612	-401.843572	-401.842628	-401.884648	30.343	
C	-0.7645166509	 1.5042753936	-0.1399584923	-0.346446
N	-0.4955409613	 0.0762811305	 0.005060471	-0.103346
C	-1.1934039743	-0.6569104942	 1.1057792666	-0.062388
C	-0.0500153625	-1.7200085202	 1.1588075248	-0.054379
C	 0.1003924684	-1.6296461958	 2.6848234398	-0.318152
C	-0.2535436999	-0.176522324	 2.278079629	 0.244534
C	-0.3584426356	 0.9680194871	 3.2190696613	 0.021633
O	-1.2971074696	 1.7236052046	 3.3081645768	-0.256175
C	 0.5967196049	-0.3254948114	 0.918240327	-0.056711
H	 0.0108799322	 1.946544349	-0.7743757935	 0.117698
H	-1.7238602628	 1.6325728872	-0.6512489296	 0.124301
H	-0.8067884621	 2.0598994616	 0.8069820768	 0.128267
H	-2.2720289118	-0.8132046966	 1.1346462939	 0.092981
H	 0.0420124648	-2.5757936154	 0.4922432647	 0.090491
H	-0.6466831901	-2.1519077977	 3.2889093452	 0.109721
H	 1.1041092662	-1.7933362421	 3.0878882547	 0.104405
H	 0.5267364373	 1.0758210036	 3.8896048124	 0.073865
H	 1.6486947769	-0.0774511497	 0.7644006515	 0.089702
46.2447	148.0246	197.4741	213.6237	266.281	300.0824	426.7699	454.7903	575.8832	674.4107	715.9332	741.3405	812.5342	838.5495	884.9287	904.3354	914.8852	966.5615	1013.1284	1058.8419	1064.3404	1092.0029	1100.8268	1126.3846	1133.6179	1156.5042	1173.996	1176.1932	1208.1668	1231.0661	1274.565	1291.3454	1323.4504	1421.7747	1452.8324	1492.0517	1501.7251	1513.8426	1798.3654	2851.9825	3011.9564	3050.1756	3079.648	3100.7403	3100.874	3108.4987	3117.616	3138.407
CN1C2C3CC2(C=O)C13	CN1[C@H]2[C@@H]3C[C@@]2(C=O)[C@H]13	
InChI=1S/C7H9NO/c1-8-5-4-2-7(5,3-9)6(4)8/h3-6H,2H2,1H3	InChI=1S/C7H9NO/c1-8-5-4-2-7(5,3-9)6(4)8/h3-6H,2H2,1H3/t4-,5-,6+,7-
