19
gdb 28456	3.01823	1.37555	0.96173	2.2685	86.12	-0.2361	-0.0254	0.2107	1250.2409	0.158839	-382.15312	-382.143806	-382.142862	-382.188352	33.375	
C	-0.026248026	 1.5315640143	-0.0220362819	-0.505734
C	-0.0112126427	 0.0278064141	-0.0037491656	 0.219659
C	-0.0671032372	-0.7198729316	-1.1729938455	-0.058142
N	-0.0565145101	-2.054583611	-1.2062618694	-0.288524
C	 0.0127661498	-2.6696846636	-0.0229573324	 0.340679
C	 0.0278054521	-4.1736074141	-0.0137906847	-0.461069
N	 0.0709436377	-2.0559094372	 1.167360849	-0.327141
C	 0.0595951871	-0.7215660363	 1.1845311158	 0.247477
C	 0.1255769956	-0.0560562421	 2.5324427583	-0.486677
H	 0.8757512764	 1.9527950171	 0.4370565122	 0.134581
H	-0.0850271967	 1.9070316731	-1.0473610088	 0.128405
H	-0.8813323779	 1.9364095927	 0.5317971734	 0.134576
H	-0.1236285066	-0.2156115747	-2.1374533361	 0.104056
H	 0.9406534412	-4.5415962706	 0.465567849	 0.136756
H	-0.8140502666	-4.5587628592	 0.5703717829	 0.136714
H	-0.0288239883	-4.558517106	-1.0321985535	 0.134169
H	 1.0040169937	 0.5952843098	 2.6100272101	 0.133327
H	-0.7520784731	 0.5780238669	 2.7045069904	 0.133356
H	 0.1750267516	-0.8150127018	 3.3136117067	 0.143533
20.0467	112.9072	123.503	157.3795	208.9109	280.6584	293.3769	329.8173	448.1878	460.1154	505.329	574.5938	602.6589	745.224	761.6137	785.0468	940.4374	961.3577	989.1759	1018.3014	1047.0724	1053.5818	1065.9774	1078.7412	1182.8898	1252.3754	1300.0047	1310.4034	1383.1896	1399.8196	1419.2461	1422.8974	1464.7356	1475.9097	1476.7747	1478.4082	1479.1897	1490.3056	1497.5853	1588.9626	1626.6343	3026.5274	3031.0237	3046.0167	3077.1014	3081.674	3102.3513	3110.2851	3129.9906	3150.0254	3154.0825
CC1=CN=C(C)N=C1C	Cc1cnc(C)nc1C	
InChI=1S/C7H10N2/c1-5-4-8-7(3)9-6(5)2/h4H,1-3H3	InChI=1S/C7H10N2/c1-5-4-8-7(3)9-6(5)2/h4H,1-3H3
