19
gdb 41443	2.7138	2.23374	1.69599	1.2879	79.14	-0.2104	0.0833	0.2938	875.5755	0.161474	-385.782812	-385.776434	-385.77549	-385.812986	27.838	
C	-0.0253285788	 1.5106063517	-0.1625904855	-0.327289
C	 1.5360920814	 1.5129573688	 0.1231349006	-0.312709
C	 1.3375042572	 0.1529736814	 0.8526647356	 0.40702
O	 1.0565311678	 0.3523859518	 2.231450913	-0.312301
C	 0.0206166151	-0.6099073794	 2.4874417016	-0.110104
C	-0.168032695	-1.2000329417	 1.1008345181	-0.129069
C	 1.3084442108	-1.3647604724	 0.4926519505	-0.146483
C	 0.747128465	-0.9975930589	-0.8935003156	-0.280094
C	 0.0276322081	-0.0230530035	 0.0728858957	 0.223005
H	-0.5723850625	 2.0462120308	 0.6158430124	 0.121601
H	-0.3640734765	 1.8544968777	-1.1428285792	 0.103229
H	 2.1306046282	 1.4508818053	-0.7889872894	 0.116319
H	 1.9279346173	 2.3121261474	 0.7534426495	 0.116899
H	 0.3559341369	-1.3506252855	 3.2246119182	 0.101906
H	-0.8713633494	-0.1045478972	 2.8776942516	 0.103178
H	-0.9086941207	-1.989208456	 0.9540261883	 0.072099
H	 2.0036668396	-2.1711481458	 0.7484079395	 0.066257
H	 1.4524574291	-0.5674927053	-1.6087799982	 0.094083
H	 0.1162725164	-1.745464349	-1.3808402268	 0.092453
232.6817	277.6339	351.7792	380.109	437.6634	507.1805	585.5	670.1794	680.204	718.7093	811.5618	814.4142	844.2554	864.4768	908.0237	918.8846	944.4098	958.6881	985.049	999.0021	1013.9982	1042.2077	1081.3371	1111.7313	1130.9059	1150.6313	1170.4608	1184.1884	1194.4682	1208.8059	1224.4803	1235.2083	1245.7735	1258.6924	1270.6477	1299.0797	1364.8282	1463.5709	1475.2445	1519.6424	1526.6264	3016.3287	3047.4382	3053.9948	3060.3541	3066.9398	3088.0602	3097.9073	3111.3724	3124.6321	3149.0035
C1CC23OCC4C2CC134	C1C[C@]23OC[C@@H]4[C@H]2C[C@]134	
InChI=1S/C8H10O/c1-2-8-5-3-7(1,8)6(5)4-9-8/h5-6H,1-4H2	InChI=1S/C8H10O/c1-2-8-5-3-7(1,8)6(5)4-9-8/h5-6H,1-4H2/t5-,6-,7+,8+/m1/s1
