17
gdb 31083	2.40376	1.35104	0.87372	1.4745	72.53	-0.1628	0.0696	0.2324	1280.409	0.135408	-455.152422	-455.142746	-455.141801	-455.186969	34.84	
C	 0.0295958422	 1.3804422753	 0.0716404255	-0.239574
O	 0.0113390105	-0.0293799791	 0.0243702144	-0.275427
C	-1.2231276068	-0.6110453097	 0.0331373013	 0.325656
C	-1.3912144031	-1.9752264726	-0.0092985743	 0.119293
N	-0.5034629046	-3.0685814227	-0.0669606208	-0.616446
N	-2.770150781	-2.1984556818	 0.0150539917	-0.30838
C	-3.426806683	-1.0162633956	 0.0703157319	 0.394005
O	-4.7858422639	-1.0387608276	 0.1008800265	-0.438277
C	-2.5115822056	 0.0156403304	 0.0841938656	-0.453161
H	 1.0794590184	 1.6807843544	 0.0575439384	 0.125373
H	-0.4814402286	 1.8229711713	-0.7948207442	 0.115065
H	-0.4402280041	 1.7626396064	 0.9886665884	 0.115062
H	 0.083451595	-3.0336035667	-0.8948224359	 0.240769
H	 0.1209998339	-3.0890019371	 0.7334630231	 0.240766
H	-3.1950964126	-3.1091353016	-0.0060949556	 0.263802
H	-5.0989700335	-0.1303562769	 0.1395584881	 0.30421
H	-2.7383502631	 1.0684138337	 0.1251534658	 0.087264
58.8106	141.5429	183.378	189.1587	207.8154	212.3595	261.8364	280.241	317.8417	391.945	443.8134	577.337	582.129	652.2975	653.47	668.3227	705.7468	790.1537	834.665	1040.0663	1077.8773	1162.4258	1180.2988	1181.0657	1200.1671	1214.4522	1224.9686	1257.1202	1341.3763	1458.3917	1485.3511	1500.5024	1510.2873	1544.0327	1593.9526	1653.7906	1675.4295	2991.419	3044.0147	3122.1058	3256.7333	3488.3604	3543.7195	3686.4892	3849.9534
COC1=C(N)NC(O)=C1	COc1c(N)[nH]c(O)c1	
InChI=1S/C5H8N2O2/c1-9-3-2-4(8)7-5(3)6/h2,7-8H,6H2,1H3	InChI=1S/C5H8N2O2/c1-9-3-2-4(8)7-5(3)6/h2,7-8H,6H2,1H3
