20
gdb 76087	2.32109	1.315	1.04129	1.0456	86.81	-0.2237	0.0357	0.2594	1250.7637	0.16868	-365.932865	-365.923378	-365.922433	-365.967379	35.675	
C	-0.1238116316	 1.5542614617	-0.1428071997	-0.421358
C	 0.0608690411	 0.0665381428	 0.0492581178	 0.00468
C	 1.4006040285	-0.6066222252	-0.1361441751	-0.217007
C	 2.5674932269	 0.166285399	-0.458802105	 0.356359
C	 3.5629042077	 0.7853202928	-0.7320698856	-0.476155
N	 0.7564882241	-0.5142871512	 1.1911876866	-0.117594
C	 1.3322729193	 0.3304308099	 2.2019315135	 0.081468
C	 0.5949193536	 0.3930460006	 3.5133150048	-0.280873
C	 1.8954014596	-0.3670119561	 3.4105725268	-0.271647
H	 0.8117426167	 2.106762346	-0.040846172	 0.135949
H	-0.5182400161	 1.7501065086	-1.1449932094	 0.123333
H	-0.842998703	 1.9488716393	 0.5826388527	 0.127318
H	-0.803221926	-0.525691329	-0.2516681845	 0.093792
H	 1.4146849172	-1.6176261897	-0.5388472807	 0.112048
H	 4.4419029547	 1.3285687047	-0.9767159265	 0.198995
H	 1.8491674173	 1.2314774162	 1.8788781642	 0.090659
H	 0.5803533223	 1.3363615375	 4.0477627361	 0.109996
H	-0.315835189	-0.1894302926	 3.5894457475	 0.119122
H	 1.839679501	-1.4491136103	 3.415819861	 0.120168
H	 2.7821837257	 0.0505059851	 3.8736845576	 0.110748
53.5533	111.7309	131.8471	161.4188	193.7417	252.0727	315.4433	368.8577	375.5886	518.2121	587.3556	607.0569	624.7146	658.9376	694.6824	770.4497	791.1526	826.7918	844.0522	916.0424	961.7615	984.6848	1019.3309	1044.7908	1057.1707	1074.3326	1094.3963	1125.0221	1146.5787	1165.9703	1191.5151	1196.6692	1231.7675	1331.5843	1359.5215	1396.5427	1407.0553	1417.6212	1456.4543	1491.4331	1495.5454	1497.9277	2227.9212	3041.8986	3098.0965	3101.971	3117.4551	3120.2362	3137.9636	3139.3666	3143.3496	3222.5492	3236.7653	3503.0568
CC1C(C#C)N1C1CC1	C[C@H]1[C@@H](C#C)N1C1CC1	
InChI=1S/C8H11N/c1-3-8-6(2)9(8)7-4-5-7/h1,6-8H,4-5H2,2H3	InChI=1S/C8H11N/c1-3-8-6(2)9(8)7-4-5-7/h1,6-8H,4-5H2,2H3/t6-,8+,9?/m0/s1
