21
gdb 38647	2.61952	1.9997	1.42824	0.2996	86.17	-0.231	0.0299	0.2609	983.6242	0.186677	-349.94689	-349.940051	-349.939107	-349.977781	29.228	
C	 0.1651072417	 1.4386051865	 0.6222099396	-0.253674
C	 1.5451510854	 1.5833329652	-0.0857489866	-0.007237
C	 2.7586481833	 1.1765666586	 0.7782230419	-0.243384
C	 2.4869345036	-0.3333515671	 0.4251069229	-0.047451
C	 2.0162964357	-1.2072821404	 1.5464745457	-0.063643
C	 0.7487725856	-1.5748341915	 1.7356175598	-0.05708
C	-0.3926775527	-1.1522790044	 0.8471842415	-0.2806
C	-0.0454736344	 0.0393103785	-0.0444797929	 0.016913
C	 1.3986645373	 0.1094319361	-0.6011899278	-0.057051
H	 0.228205563	 1.4171897426	 1.7143453096	 0.097152
H	-0.5796435531	 2.1861140198	 0.3383404052	 0.095127
H	 1.6579373941	 2.4413216098	-0.7496858794	 0.05852
H	 3.7090369673	 1.5298095406	 0.3687372337	 0.094216
H	 2.7141907266	 1.4444070619	 1.8384255638	 0.091719
H	 3.3549933414	-0.7961881396	-0.054917109	 0.074894
H	 2.7796735249	-1.543046122	 2.2464672352	 0.079672
H	 0.5003041013	-2.2214325169	 2.5742428505	 0.080369
H	-0.7077110309	-2.0067783429	 0.2292306709	 0.104622
H	-1.2678545169	-0.9070607591	 1.4650595988	 0.100768
H	-0.7762390489	 0.1169169578	-0.8550830425	 0.064377
H	 1.5681337957	-0.1945625534	-1.635125671	 0.051772
122.2227	237.701	307.1831	355.5987	454.8078	488.5036	523.9907	600.7919	709.1895	738.5403	764.8861	789.3915	817.6077	846.2691	881.5763	899.7059	924.4022	955.3015	993.2939	1002.6887	1005.2951	1031.9552	1063.7009	1083.0922	1096.2773	1112.826	1140.581	1161.282	1176.1778	1214.9631	1235.265	1237.5805	1261.6748	1276.3245	1293.4841	1303.0114	1315.1452	1334.7112	1350.4369	1380.929	1422.0736	1469.2148	1477.2732	1487.4574	1720.3144	2991.1666	3021.3678	3040.5024	3046.6941	3049.3377	3051.9586	3085.9665	3093.9434	3099.4227	3109.7185	3130.1233	3156.9555
C1C2CC3C=CCC1C23	C1[C@H]2C[C@H]3C=CC[C@@H]1[C@@H]23	
InChI=1S/C9H12/c1-2-6-4-8-5-7(3-1)9(6)8/h1-2,6-9H,3-5H2	InChI=1S/C9H12/c1-2-6-4-8-5-7(3-1)9(6)8/h1-2,6-9H,3-5H2/t6-,7+,8-,9+/m1/s1
