20
gdb 18298	2.87417	2.02503	1.75482	1.2835	73.45	-0.2437	0.0663	0.3099	877.557	0.179971	-349.00452	-348.997125	-348.996181	-349.035737	29.588	
O	 0.2142953816	 1.3784543982	 0.0967018329	-0.41079
C	 0.0615796754	-0.0129505508	 0.0390386685	 0.078789
C	-0.4577651122	-0.6941110186	 1.2789559525	-0.070405
C	-0.8568884719	 0.137848093	 2.4967824239	-0.211126
C	-2.3439430316	 0.5253224006	 2.4946691398	-0.184029
C	-2.7413054356	 1.1760052064	 1.1653442965	-0.187809
C	-2.5902964502	 0.1864815992	-0.0059642985	-0.217855
C	-1.3109022077	-0.6386996732	 0.016815093	-0.071319
H	-0.0546799074	 1.7429984876	-0.752628508	 0.289626
H	 0.8524935583	-0.5207240737	-0.5135512794	 0.077849
H	 0.000620844	-1.6520124381	 1.5036993539	 0.081504
H	-0.6216993739	-0.4258832853	 3.404905264	 0.088983
H	-0.2524378306	 1.0512515261	 2.5277616965	 0.116451
H	-2.959317993	-0.3700490497	 2.659829523	 0.087249
H	-2.5492727356	 1.2065537949	 3.3280699364	 0.087054
H	-3.7791163041	 1.525562889	 1.203974005	 0.084179
H	-2.1108447359	 2.055186352	 0.9977005251	 0.103333
H	-3.432767643	-0.516422393	 0.0277202312	 0.098537
H	-2.6836470415	 0.7178120768	-0.9631189506	 0.082337
H	-1.3773696951	-1.5622825715	-0.5530163455	 0.077441
134.7371	173.152	235.9224	283.5011	313.1625	419.8397	449.7968	514.5111	575.6778	669.9106	737.0153	769.0574	808.5064	821.3243	887.5227	925.0236	942.2034	969.8331	1034.4098	1041.3219	1060.2911	1097.6417	1120.5717	1131.0328	1151.2388	1194.1143	1202.6537	1250.9602	1287.2831	1293.323	1303.3871	1345.2381	1370.223	1373.7585	1377.7714	1387.2036	1395.0152	1450.4444	1481.797	1489.3882	1490.1826	1503.7905	3005.4064	3010.33	3034.0806	3037.8091	3039.8857	3062.6044	3078.674	3086.8495	3089.4881	3128.2782	3151.2756	3809.6672
OC1C2CCCCC12	O[C@H]1[C@H]2CCCC[C@@H]12	
InChI=1S/C7H12O/c8-7-5-3-1-2-4-6(5)7/h5-8H,1-4H2	InChI=1S/C7H12O/c8-7-5-3-1-2-4-6(5)7/h5-8H,1-4H2/t5-,6+,7-
