21
gdb 81442	3.45109	1.32304	1.24158	1.576	82.78	-0.2187	0.0911	0.3098	1126.7503	0.183282	-387.054033	-387.04617	-387.045226	-387.085915	32.321	
C	-0.1796402624	 1.5264709624	-0.0064544356	-0.441563
C	 0.011839735	 0.0166623556	 0.0267177892	 0.040668
C	 1.1430809506	-0.6262048148	-0.8304990458	 0.090173
C	 2.1452164687	-0.2376106537	 0.2836775505	-0.253112
C	 0.905794998	-0.5976200959	 1.1669497345	-0.150582
C	 0.7722222417	-2.0673771686	 0.8143084382	 0.507096
C	 1.3183363254	-3.2233939496	 1.5849233616	-0.358652
C	-0.1876971922	-3.0442847885	 1.4077769143	-0.355444
O	 0.9435670289	-2.0361338281	-0.6095660191	-0.32164
H	 0.7497449528	 2.0859657855	 0.1293039963	 0.117968
H	-0.6150354889	 1.8373736386	-0.9626991828	 0.119152
H	-0.8700437173	 1.8409158319	 0.783871776	 0.11905
H	-0.9529033208	-0.4838405148	-0.1049435494	 0.077038
H	 1.2935137835	-0.4397736232	-1.8933078135	 0.075446
H	 3.0370866428	-0.860188868	 0.3799979741	 0.103132
H	 2.4075948316	 0.8189588522	 0.303713919	 0.100938
H	 0.8138261678	-0.3174963184	 2.216132784	 0.067776
H	 1.7931511327	-4.0155672184	 1.0164807341	 0.12184
H	 1.7502003765	-3.0427519517	 2.5643308085	 0.109498
H	-0.7789317083	-2.7436741914	 2.2671892951	 0.109336
H	-0.689443206	-3.7203938612	 0.7243092609	 0.121882
131.7985	186.6992	215.1795	256.297	319.5126	325.3264	454.0837	494.294	540.9023	557.5465	734.8497	763.9639	793.8516	829.6773	841.2939	872.2711	892.15	899.3622	954.6668	973.734	980.8666	1019.2664	1027.8213	1047.3646	1054.2561	1069.2182	1076.3296	1102.6661	1112.7319	1138.8972	1185.7692	1205.9205	1214.0542	1234.2606	1257.6628	1259.8391	1315.3549	1386.7462	1395.6844	1414.7993	1449.954	1487.9186	1497.3943	1505.4022	1511.6608	3032.5343	3055.0373	3082.6103	3089.6351	3111.8274	3119.657	3124.9409	3128.0744	3129.6488	3154.9907	3209.6011	3223.7404
CC1C2CC1C1(CC1)O2	C[C@H]1[C@H]2C[C@@H]1C1(CC1)O2	
InChI=1S/C8H12O/c1-5-6-4-7(5)9-8(6)2-3-8/h5-7H,2-4H2,1H3	InChI=1S/C8H12O/c1-5-6-4-7(5)9-8(6)2-3-8/h5-7H,2-4H2,1H3/t5-,6+,7-/m1/s1
