18
gdb 14136	3.96461	1.63195	1.41362	1.3501	72.85	-0.2311	0.0335	0.2646	933.4887	0.154285	-347.796408	-347.788925	-347.78798	-347.828288	29.078	
O	-0.1044887895	 1.4385518174	-0.0356781048	-0.418387
C	-0.0592440356	 0.0419509482	-0.0000164274	 0.06457
C	-0.5502567404	-0.6923400283	 1.2225876634	-0.385807
C	-1.372179632	-0.6907766917	-0.0482348489	 0.33788
C	-2.6810206131	 0.1070513769	-0.1557168252	-0.334599
C	-3.4203231095	-0.6060276089	-1.2611052969	-0.05723
C	-2.7956087716	-1.7087527429	-1.6686779607	-0.060116
C	-1.5125629097	-1.9548409805	-0.9120272217	-0.337495
H	 0.5366427688	 1.7749641542	 0.5985596754	 0.287976
H	 0.7716697254	-0.3980834405	-0.5542171439	 0.080303
H	-0.0464497796	-1.6075681668	 1.5193224996	 0.105845
H	-0.9117145332	-0.0830929552	 2.0460435195	 0.108263
H	-3.2559385049	 0.0880784563	 0.781241189	 0.099841
H	-2.4893898757	 1.1617197586	-0.3800948345	 0.12752
H	-4.3660392648	-0.2440752142	-1.6497032321	 0.088561
H	-3.151650654	-2.3832761538	-2.4395951594	 0.087945
H	-0.6520008981	-2.0999663678	-1.5787366359	 0.10175
H	-1.5810265725	-2.8659666409	-0.2996077854	 0.103179
53.3673	198.9259	229.664	266.7051	358.4745	388.153	450.6197	487.1134	544.1254	697.9217	778.4866	789.994	810.8971	881.4787	900.3217	951.4963	976.002	979.172	995.9977	1018.5341	1038.4905	1051.3972	1094.4523	1130.922	1169.6323	1174.7258	1206.8199	1236.9387	1268.3486	1296.2185	1303.49	1357.8085	1371.7334	1420.4532	1484.8569	1486.5409	1493.2804	1693.1908	2996.1258	3002.9125	3026.1622	3066.5649	3081.9509	3114.1791	3180.0061	3202.9395	3205.6144	3810.1631
OC1CC11CC=CC1	O[C@H]1C[C@]21CC=CC2	
InChI=1S/C7H10O/c8-6-5-7(6)3-1-2-4-7/h1-2,6,8H,3-5H2	InChI=1S/C7H10O/c8-6-5-7(6)3-1-2-4-7/h1-2,6,8H,3-5H2/t6-/m0/s1
