21
gdb 91019	2.59469	1.70204	1.23085	1.1831	82.07	-0.2427	0.0765	0.3192	1082.6666	0.182796	-387.048891	-387.040525	-387.039581	-387.081395	33.559	
C	-0.239979672	 1.5692956194	-0.096208229	-0.406868
C	 0.0642500808	 0.0828013598	 0.0435512136	 0.046761
C	 1.1409937789	-0.5597017094	-0.882892099	-0.260311
C	 1.82497274	-1.2172182873	 0.3442478402	-0.011487
C	 2.9657303384	-0.3870209401	 0.9105983357	-0.10763
C	 3.0310174621	-0.5682656114	 2.4093358613	-0.353505
C	 1.9899395903	 0.3494380334	 1.8230390555	 0.406354
O	 1.9825982971	 1.7079212996	 2.1068941521	-0.465011
C	 0.8044840579	-0.4605530224	 1.3022662599	-0.143403
H	 0.6627730326	 2.1770393727	-0.0047654647	 0.135841
H	-0.6979659864	 1.7735190969	-1.071081533	 0.102928
H	-0.941441357	 1.9051689369	 0.6761635513	 0.103777
H	-0.871154645	-0.4789685744	-0.057699229	 0.067558
H	 0.7403859748	-1.2624072004	-1.6173895156	 0.094546
H	 1.7801755943	 0.1552674369	-1.4103094412	 0.094834
H	 1.935613083	-2.3038515699	 0.3406796204	 0.061754
H	 3.800763308	 0.0083098538	 0.3429932538	 0.088906
H	 2.7644470778	-1.518995716	 2.8671065547	 0.100009
H	 3.8502826905	-0.0432189082	 2.8904054225	 0.109966
H	 1.7136688229	 1.8240731655	 3.0248865929	 0.283624
H	 0.1822025808	-0.9566050754	 2.0533676376	 0.051356
84.796	180.7031	230.0487	241.0294	280.6535	333.1749	360.2823	403.5189	449.337	549.8794	569.1631	669.6229	756.9598	812.2465	825.2066	853.4282	886.6131	907.4809	928.0718	963.7352	980.9751	1004.0729	1025.7715	1051.2536	1079.1172	1086.1079	1120.7637	1130.7643	1141.0309	1188.3914	1197.4658	1232.5564	1254.8666	1269.9106	1278.7221	1293.606	1322.0876	1340.5106	1366.4362	1393.9913	1414.637	1486.9108	1488.8265	1495.1891	1496.7396	3024.2288	3029.9833	3048.9637	3053.7315	3078.2425	3083.3672	3098.684	3103.2531	3127.6074	3173.2798	3199.2589	3790.892
CC1CC2C3CC3(O)C12	C[C@H]1C[C@H]2[C@@H]3C[C@]3(O)[C@@H]12	
InChI=1S/C8H12O/c1-4-2-5-6-3-8(6,9)7(4)5/h4-7,9H,2-3H2,1H3	InChI=1S/C8H12O/c1-4-2-5-6-3-8(6,9)7(4)5/h4-7,9H,2-3H2,1H3/t4-,5-,6-,7-,8+/m0/s1
