17
gdb 85093	2.02049	1.53585	1.29624	1.8877	75.33	-0.2394	-0.0371	0.2023	1093.5399	0.131692	-421.794549	-421.784747	-421.783803	-421.829702	35.307	
C	-0.2696955917	 1.5096425069	 0.0769490349	-0.395411
C	-0.0062889569	 0.011315814	-0.0130867384	-0.048531
C	 1.2390541374	-0.3695323998	-0.8831841521	-0.351684
C	 2.0158633509	-0.5701942527	 0.416792718	 0.341649
O	 3.1637688027	-0.5296964606	 0.7446942953	-0.296279
C	 0.7011966171	-0.5905065734	 1.2645412247	 0.11566
O	 0.6994437078	 0.2552625739	 2.3885476692	-0.453043
C	 0.2823282272	-1.954985996	 1.5641560429	 0.287016
C	-0.0307074756	-3.0924946863	 1.7996823498	-0.450384
H	 0.6376019293	 2.0627248641	 0.337491824	 0.128143
H	-0.6331380524	 1.8826839456	-0.8859336656	 0.115423
H	-1.0197706697	 1.7316579958	 0.8400105442	 0.136168
H	-0.9157705131	-0.528549303	-0.2785340153	 0.093949
H	 1.1160201414	-1.3105565156	-1.4274699481	 0.14313
H	 1.6335552302	 0.3876851504	-1.5651944964	 0.133061
H	 1.4567785537	 0.0094891001	 2.9338048184	 0.29762
H	-0.3146225983	-4.0926814833	 2.0177120544	 0.203513
40.3174	78.8894	128.3682	150.3964	221.8134	254.7014	264.9581	329.2362	375.1959	446.2831	496.8357	519.1134	583.761	612.83	673.5902	677.7226	714.2417	833.5814	869.5992	882.665	997.2405	1036.9556	1051.2092	1082.1059	1122.9407	1179.375	1200.0087	1207.5141	1273.6721	1336.8297	1358.3306	1414.2504	1436.9109	1488.9501	1495.2791	1894.0092	2221.507	3041.7414	3063.3729	3097.4397	3113.6101	3120.1618	3126.0474	3498.7381	3793.7348
CC1CC(=O)C1(O)C#C	C[C@H]1CC(=O)[C@]1(O)C#C	
InChI=1S/C7H8O2/c1-3-7(9)5(2)4-6(7)8/h1,5,9H,4H2,2H3	InChI=1S/C7H8O2/c1-3-7(9)5(2)4-6(7)8/h1,5,9H,4H2,2H3/t5-,7-/m0/s1
