22
gdb 114118	4.5977	0.87285	0.82228	2.6872	82.33	-0.2361	0.0683	0.3044	1488.1811	0.193912	-404.304838	-404.295293	-404.294349	-404.339406	35.899	
C	 0.1266916692	 1.0295615619	-0.6272394796	-0.379016
C	-0.0092515203	-0.3764201108	-0.0267492687	-0.287479
C	 0.8590076106	-0.5689306587	 1.1842242549	 0.382062
C	 2.24887958	-1.0570853553	 1.1390229872	-0.29533
N	 1.219017429	-1.9443227301	 1.7378642764	-0.214618
C	 0.9199253554	-1.4057568449	 3.1239845751	 0.055958
C	 2.0242627049	-1.6138480244	 4.1435469272	-0.071344
O	 2.3048556602	-2.9929572345	 4.3021696738	-0.423244
C	 0.5645095024	 0.0012702297	 2.5788540435	-0.356894
H	 1.1557777104	 1.2247602232	-0.946131705	 0.119654
H	-0.5250294008	 1.1482419393	-1.4977057125	 0.117252
H	-0.1472083223	 1.8008420676	 0.1006757968	 0.119951
H	-1.0560867386	-0.5630762536	 0.2457448261	 0.100913
H	 0.2568664304	-1.1338452417	-0.7729278285	 0.109068
H	 2.6166152949	-1.4462087288	 0.1942084996	 0.119292
H	 3.0149614605	-0.6059071144	 1.7645297405	 0.111929
H	 0.0302067925	-1.9359929262	 3.4746619168	 0.094069
H	 2.9303580039	-1.0501845014	 3.8673324664	 0.081657
H	 1.7019924999	-1.2377503478	 5.1216679465	 0.107533
H	 2.3572568595	-3.3672156981	 3.4143876392	 0.295705
H	 1.1928812807	 0.8402728833	 2.8939744949	 0.102593
H	-0.4818298723	 0.2697834155	 2.7373880892	 0.110287
67.3673	94.8337	107.3911	188.0047	211.4311	245.8932	331.0748	366.9878	383.8037	420.4981	454.6576	555.1793	654.7075	698.3193	791.537	797.0818	816.2533	877.245	935.3921	952.3197	982.9311	1018.6651	1034.3023	1063.9662	1074.6876	1096.6533	1108.0283	1119.7845	1131.9357	1179.5804	1226.2419	1235.4269	1254.9178	1295.014	1322.4313	1337.4466	1355.6016	1389.0256	1403.054	1414.1662	1437.9939	1483.183	1486.9966	1498.2723	1503.816	1508.7402	1518.0656	2970.0667	3023.6946	3034.7182	3050.8319	3054.5615	3064.3136	3071.641	3102.6543	3109.6829	3109.8223	3113.1862	3195.1493	3786.3089
CCC12CN1C(CO)C2	CC[C@]12CN1[C@@H](CO)C2	
InChI=1S/C7H13NO/c1-2-7-3-6(4-9)8(7)5-7/h6,9H,2-5H2,1H3	InChI=1S/C7H13NO/c1-2-7-3-6(4-9)8(7)5-7/h6,9H,2-5H2,1H3/t6-,7+,8?/m1/s1
