19
gdb 69134	2.54966	1.64733	1.28519	3.4237	79.11	-0.2303	-0.0164	0.2138	1052.5932	0.160048	-385.894319	-385.886571	-385.885627	-385.926202	31.247	
C	-0.0810237755	 1.4954267559	-0.0164499383	-0.4886
C	-0.0239518556	-0.0127516563	 0.0311769001	 0.348623
C	-0.5278634413	-0.754243862	 1.2333578684	-0.347242
C	 0.9611736231	-0.7681389678	 0.9065629077	-0.189333
C	 1.5504417685	-1.8866328291	 0.0799845694	 0.402207
O	 2.5018319715	-2.5583650479	 0.3985834424	-0.333234
C	 0.89986066	-1.9002567907	-1.2858710226	-0.142915
C	-0.5964126832	-2.1394434317	-1.413042754	-0.310441
C	-0.071365716	-0.7382103853	-1.3242102475	-0.098136
H	 0.6998725439	 1.9010307229	-0.6696484025	 0.123411
H	-1.0488670284	 1.8414135939	-0.3979342695	 0.123387
H	 0.0579008344	 1.9265383597	 0.9795537509	 0.119699
H	-0.796537949	-0.1577726498	 2.0996879875	 0.118617
H	-1.1143067224	-1.6589059693	 1.1380430997	 0.12154
H	 1.6364634804	-0.286124942	 1.6043537983	 0.104727
H	 1.5369650639	-2.1889324683	-2.113148294	 0.107987
H	-0.9250539301	-2.4810229617	-2.3889963388	 0.122399
H	-1.1478764362	-2.5833249496	-0.5943728217	 0.125232
H	-0.145555248	-0.1037903609	-2.2001883154	 0.092072
119.4612	172.4406	220.0975	285.0636	316.0815	387.837	442.009	467.9209	563.0814	572.6741	674.9297	741.4268	753.2645	799.8092	831.6	871.7873	909.3617	952.0988	961.8765	975.83	1010.7185	1035.7438	1048.1425	1057.8007	1074.0768	1105.8102	1106.0899	1119.2489	1186.3053	1197.9751	1226.3287	1286.4897	1324.9642	1347.7375	1402.565	1419.3545	1481.981	1487.1368	1500.7563	1513.3673	1819.9316	3024.3871	3084.8836	3103.6842	3135.8589	3144.4519	3171.5952	3179.4405	3187.9013	3218.9506	3230.6294
CC12CC1C(=O)C1CC21	C[C@]12C[C@H]1C(=O)[C@H]1C[C@@H]21	
InChI=1S/C8H10O/c1-8-3-6(8)7(9)4-2-5(4)8/h4-6H,2-3H2,1H3	InChI=1S/C8H10O/c1-8-3-6(8)7(9)4-2-5(4)8/h4-6H,2-3H2,1H3/t4-,5+,6-,8+/m0/s1
