14
gdb 17909	3.043	2.4179	2.21522	1.4354	56.54	-0.234	-0.0355	0.1985	700.6662	0.108721	-419.669096	-419.66304	-419.662096	-419.699271	23.22	
O	 0.0010438307	 0.0461833369	 0.0043406177	-0.310616
C	-0.0149189481	 1.2398724901	 0.0106595783	 0.435822
C	-1.1442171925	 2.2865476779	 0.0454450369	-0.034422
C	-0.6971650461	 3.0902686085	 1.2648433111	-0.087819
O	 0.7580264177	 3.0515791529	 1.1736669468	-0.290779
C	 1.0859803246	 2.3166807854	-0.0129679205	-0.034423
C	 0.6174234045	 3.1209321294	-1.2239149008	-0.087819
O	-0.8362005064	 3.0423864394	-1.1333539183	-0.290779
H	-2.1737442205	 1.940096697	 0.0134670589	 0.110962
H	-1.0399471919	 4.1290189549	 1.2179684124	 0.120534
H	-1.0143930468	 2.6384983997	 2.2125384768	 0.11892
H	 2.1244086655	 1.9975692777	 0.0155101321	 0.110962
H	 0.9323105508	 4.1679275602	-1.1660804375	 0.120535
H	 0.9464850684	 2.6877887199	-2.1762600839	 0.11892
153.4202	175.1253	323.4294	402.3781	461.871	568.5942	644.568	706.4494	816.7757	842.2436	881.1868	897.3965	904.5879	964.7748	1001.9549	1037.125	1078.9677	1085.7565	1140.7413	1173.6949	1176.0015	1234.1328	1241.3627	1288.4034	1304.0967	1369.3109	1371.3141	1507.2453	1510.4718	1909.9901	3025.9555	3028.4668	3078.4611	3081.0754	3166.4933	3169.2668
O=C1C2COC1CO2	O=C1[C@H]2CO[C@@H]1CO2	
InChI=1S/C5H6O3/c6-5-3-1-7-4(5)2-8-3/h3-4H,1-2H2	InChI=1S/C5H6O3/c6-5-3-1-7-4(5)2-8-3/h3-4H,1-2H2/t3-,4-/m1/s1
