17
gdb 41587	3.69637	1.55905	1.34319	3.5759	73.05	-0.2219	0.0098	0.2317	970.5964	0.138998	-417.95407	-417.947358	-417.946414	-417.985277	26.295	
C	-0.0050469523	 1.4625486947	 0.238570872	-0.096468
O	 1.292488784	 1.6371586128	-0.3780695066	-0.271726
C	 1.4240912369	 0.227773151	-0.624860804	-0.024892
C	 0.0413293101	-0.0726040327	 0.0489487058	-0.058958
N	-0.4184712806	-0.622679334	-1.2441660516	-0.080826
C	-1.5408380853	-0.3654847828	-2.1504366719	-0.211172
C	-0.7511851093	-0.3279933628	-3.5095921751	-0.164363
N	 0.6558352234	 0.044823034	-3.1722923443	-0.340132
C	 0.7113377839	-0.1679895598	-1.9232994343	 0.356076
H	 0.0141643209	 1.7834006789	 1.2859556974	 0.117139
H	-0.8002726182	 1.9973246518	-0.2931914582	 0.114302
H	 2.3983850885	-0.1802366331	-0.3580489991	 0.10838
H	-0.1334603418	-0.7087363573	 0.9152573325	 0.099657
H	-2.3003494754	-1.1496430811	-2.1150606936	 0.115811
H	-2.0204573895	 0.6010717087	-1.9365751037	 0.104307
H	-0.7632675464	-1.315044714	-3.9886972284	 0.116049
H	-1.1701010788	 0.3906476758	-4.217914847	 0.116818
128.1929	158.2072	224.5846	305.0546	440.7089	478.4104	652.3518	676.2821	739.8216	770.6466	824.1217	868.0659	888.7105	897.69	921.0401	981.2027	993.4743	1006.3915	1042.4949	1078.27	1094.8904	1140.3387	1166.4979	1173.012	1185.1845	1219.9314	1231.1061	1265.9842	1278.0513	1312.3279	1320.4609	1346.4308	1361.5411	1490.9612	1505.5944	1517.4738	1744.3365	2998.7259	3029.2952	3030.47	3077.4861	3094.178	3103.0568	3120.2667	3129.9533
C1OC2C1N1CCN=C21	C1O[C@H]2[C@@H]1N1CC[N][C]21	
InChI=1S/C6H8N2O/c1-2-8-4-3-9-5(4)6(8)7-1/h4-5H,1-3H2	InChI=1S/C6H8N2O/c1-2-8-4-3-9-5(4)6(8)7-1/h4-5H,1-3H2/t4-,5+/m1/s1
