17
gdb 83498	2.93777	1.52262	1.47509	4.3567	66.86	-0.2606	0.0148	0.2754	957.5579	0.138511	-459.012697	-459.005568	-459.004624	-459.044013	28.426	
O	-0.0356811873	 1.4127315872	-0.0304370705	-0.436632
C	-0.0103701235	 0.0071061796	 0.0172157342	 0.113246
C	 0.320404799	-0.6055085501	 1.3989785905	 0.049072
C	-0.7727925884	-0.0217564528	 2.3076227922	-0.213927
C	-2.0087949805	-0.0037208546	 1.3558681575	-0.226374
C	-1.4289991838	-0.5865997232	 0.0299295157	-0.185191
C	-1.0804219283	-2.0376266332	 0.3329999333	 0.439679
O	-1.5999282958	-3.0564129795	-0.0117144672	-0.347048
O	 0.0105322408	-2.0028754855	 1.1700940636	-0.23877
H	 0.8703194576	 1.7333223467	-0.0808591667	 0.292202
H	 0.6178433254	-0.4222671666	-0.7741885486	 0.088577
H	 1.3473220622	-0.5401554753	 1.758028715	 0.08556
H	-0.914670113	-0.6507074186	 3.1884826197	 0.118476
H	-0.5032484894	 0.9840198677	 2.6361798995	 0.113806
H	-2.8435812462	-0.6026375258	 1.7248819082	 0.12176
H	-2.3648347169	 1.0127422485	 1.1839926994	 0.12662
H	-2.047961462	-0.4653661544	-0.8554465059	 0.098945
150.0437	230.6444	250.3535	277.9312	308.9834	407.5878	469.2565	550.1628	612.769	705.2846	752.5666	809.9968	837.313	857.3707	880.2156	897.3438	941.6113	981.3886	1008.7041	1028.3516	1046.51	1122.3886	1144.0629	1155.5265	1184.3696	1200.0961	1244.4471	1261.9561	1291.0336	1300.0687	1333.9725	1339.8052	1354.5094	1436.5814	1471.5469	1501.5078	1898.052	3026.8596	3076.9588	3085.0695	3122.0003	3125.6324	3139.2204	3157.1033	3822.3109
OC1C2CCC1C(=O)O2	O[C@H]1[C@H]2CC[C@@H]1C(=O)O2	
InChI=1S/C6H8O3/c7-5-3-1-2-4(5)9-6(3)8/h3-5,7H,1-2H2	InChI=1S/C6H8O3/c7-5-3-1-2-4(5)9-6(3)8/h3-5,7H,1-2H2/t3-,4+,5+/m0/s1
