18
gdb 49233	3.45375	1.34212	1.13094	2.4056	79.59	-0.2235	-0.0594	0.1642	1094.0631	0.149883	-401.933392	-401.92625	-401.925306	-401.965005	28.422	
O	-0.0812819204	-0.0172071247	 0.0146931629	-0.27609
C	 0.0019973866	 1.1909469818	 0.0304596633	 0.061355
C	 1.263224738	 1.9417725118	 0.0007838946	 0.250584
C	 1.2807328368	 3.2846103176	 0.0207285625	-0.151983
C	 2.6233443423	 3.9833196416	-0.0125260828	-0.222741
N	 3.7621862242	 3.0473614454	-0.0640834746	-0.122585
C	 3.465579227	 1.9895127163	-1.1029473158	-0.17515
C	 2.6043315043	 1.2393165577	-0.0538000311	-0.13793
C	 3.5330396575	 1.9580368675	 0.9592019679	-0.175151
H	-0.9080228314	 1.8315090678	 0.0701399079	 0.068411
H	 0.3654557739	 3.8718434608	 0.0596182188	 0.105735
H	 2.6784685584	 4.6536092871	-0.8811685689	 0.125491
H	 2.7358124596	 4.6268757289	 0.8706779285	 0.12549
H	 2.9764239965	 2.3471122743	-2.0130495493	 0.104882
H	 4.3923439453	 1.4685103633	-1.358925379	 0.110957
H	 2.5114169519	 0.1534750992	-0.0673335697	 0.092887
H	 4.4740244317	 1.4303906762	 1.1380820661	 0.110957
H	 3.1047538677	 2.2872418774	 1.9097981485	 0.104882
99.927	198.6179	223.2446	342.7445	400.672	408.8608	440.9645	602.4075	607.8158	706.1237	751.0797	811.3517	817.7539	848.4051	887.407	907.888	955.3679	979.5169	996.0758	1036.9928	1058.7472	1073.769	1113.4833	1120.8166	1193.204	1218.48	1254.2453	1265.1788	1273.2621	1282.5077	1300.0219	1348.6137	1381.8601	1422.4468	1461.2449	1493.3288	1520.6976	1680.8355	1784.6541	2874.3705	3012.2926	3040.7555	3047.7092	3054.6014	3108.7699	3109.3433	3119.8002	3152.7385
O=CC1=CCN2CC1C2	O=CC1=CCN2C[C@H]1C2	
InChI=1S/C7H9NO/c9-5-6-1-2-8-3-7(6)4-8/h1,5,7H,2-4H2	InChI=1S/C7H9NO/c9-5-6-1-2-8-3-7(6)4-8/h1,5,7H,2-4H2
