25
gdb 76402	2.61592	1.08888	0.98228	0.1825	93.58	-0.2342	0.0814	0.3156	1409.0689	0.227332	-352.336788	-352.326031	-352.325087	-352.3728	40.235	
C	-0.2138625709	 0.964525395	-1.8599638445	-0.417907
C	-0.0364131348	-0.1791198947	-0.882722764	-0.053856
C	 1.3085857342	-0.5976600791	-0.3180740062	-0.053948
C	 2.6134692369	 0.084848002	-0.672919952	-0.417882
C	 0.2540931116	 0.0056743912	 0.6015955668	 0.320678
C	 0.4543654561	 1.4026279373	 1.1605765238	-0.486264
C	-0.4358756054	-0.9812817381	 1.513299042	-0.019595
C	-0.2288406069	-1.0333896762	 3.0080678771	-0.281903
C	-1.5675023549	-0.6179676224	 2.4446057214	-0.281917
H	 0.4836034318	 1.7877434906	-1.6903711529	 0.113241
H	-0.0618858166	 0.6193386481	-2.8890790736	 0.114872
H	-1.2272205877	 1.3773240094	-1.7987056524	 0.116157
H	-0.7097023264	-1.0072863582	-1.0964104459	 0.0739
H	 1.4291934437	-1.6728374088	-0.1985682561	 0.0739
H	 2.5058156246	 1.1587146503	-0.8406145062	 0.113232
H	 3.3536796138	-0.0484814189	 0.1241788406	 0.116155
H	 3.0364706911	-0.3442005603	-1.5885174681	 0.114871
H	 0.9555403229	 2.0636835888	 0.4526253871	 0.114634
H	-0.5025990097	 1.8723275028	 1.4130134567	 0.117303
H	 1.0665658855	 1.3848450668	 2.068871576	 0.11733
H	-0.5428018911	-1.9581509527	 1.0469456728	 0.074015
H	-0.1422354852	-2.0066870735	 3.4789217061	 0.106618
H	 0.3765560152	-0.2653205724	 3.4760749355	 0.109869
H	-1.8479596635	 0.4249962961	 2.5397249638	 0.109874
H	-2.4025368543	-1.3052461331	 2.5275304121	 0.106623
31.7663	116.8028	142.1383	149.6563	162.8605	197.0576	236.8376	256.3118	312.9472	349.9382	360.5973	474.9156	506.351	528.3287	663.4237	772.9789	777.0171	789.449	835.6856	867.5717	924.1194	929.0301	968.5011	1021.985	1023.0167	1042.1	1058.4052	1078.394	1098.8971	1102.2344	1103.9029	1142.3527	1147.3521	1162.1059	1184.7913	1199.6144	1231.6239	1263.0701	1338.5786	1378.9966	1397.1009	1412.6682	1417.9614	1428.7869	1454.9455	1464.1352	1482.4185	1492.2694	1493.3573	1500.6741	1505.9166	1508.3131	1522.988	3028.7837	3030.7165	3036.2069	3081.8657	3083.5828	3087.752	3102.433	3110.6742	3119.8273	3120.8364	3128.5214	3133.6964	3137.0222	3138.7064	3209.3226	3224.1789
CC1C(C)C1(C)C1CC1	C[C@H]1[C@@H](C)[C@]1(C)C1CC1	
InChI=1S/C9H16/c1-6-7(2)9(6,3)8-4-5-8/h6-8H,4-5H2,1-3H3	InChI=1S/C9H16/c1-6-7(2)9(6,3)8-4-5-8/h6-8H,4-5H2,1-3H3/t6-,7+,9+
