20
gdb 51168	4.1234	1.01537	0.92986	3.4451	81.1	-0.2552	0.0254	0.2806	1318.7865	0.172185	-403.149134	-403.140794	-403.13985	-403.1824	32.042	
N	-0.0894443696	 1.292998073	-0.299333387	-0.443728
C	-0.1103183067	 0.031592082	-0.3271887669	 0.105925
O	-1.131618651	-0.6373558241	 0.2521858503	-0.233283
C	-1.0285149592	-2.040389064	 0.2730457285	 0.439427
C	-1.1672932228	-2.8105908771	-1.0152810373	-0.354358
C	-2.2611624305	-2.8670893675	 0.0378983013	-0.090171
C	-2.2481568294	-4.0257518144	 1.0238187316	-0.217274
C	-0.7811243091	-4.1045796195	 1.5159535322	-0.228705
C	-0.2398435062	-2.6610860366	 1.4161379451	-0.272013
H	 0.7339176627	 1.634618646	-0.7909173687	 0.227616
H	 0.6289433926	-0.6289597492	-0.7979403038	 0.09
H	-1.3957966857	-2.2272172224	-1.9003089361	 0.123589
H	-0.5374221427	-3.67559507	-1.1979536909	 0.114204
H	-3.1971971487	-2.37505807	-0.1991482176	 0.101252
H	-2.9210842965	-3.7927024388	 1.8573232291	 0.107753
H	-2.5886160021	-4.9705882242	 0.587813719	 0.101321
H	-0.7021323806	-4.5077790089	 2.5283839624	 0.10556
H	-0.2005823277	-4.7692385725	 0.8685426948	 0.107463
H	 0.8452983032	-2.6265764889	 1.2706279714	 0.09725
H	-0.46843096	-2.0900808529	 2.3235004126	 0.118171
68.8042	120.855	136.9568	236.2614	274.6661	353.4415	373.0613	430.735	500.0099	621.1153	638.3803	741.4822	811.3147	822.6695	851.6796	887.5901	901.2384	932.2277	965.4257	986.7902	999.3621	1027.7659	1050.1373	1058.9871	1071.934	1107.855	1125.9477	1182.2068	1199.7567	1247.7964	1258.2806	1281.1388	1292.1776	1320.7793	1335.9207	1348.7889	1397.0714	1416.0683	1480.226	1492.5546	1494.919	1516.8843	1743.9207	3036.1648	3037.7041	3039.9046	3053.5649	3076.8111	3078.9398	3105.3258	3129.0208	3184.0884	3217.8281	3515.7602
N=COC12CC1CCC2	[NH][CH]O[C@]12C[C@H]1CCC2	
InChI=1S/C7H11NO/c8-5-9-7-3-1-2-6(7)4-7/h5-6,8H,1-4H2	InChI=1S/C7H11NO/c8-5-9-7-3-1-2-6(7)4-7/h5-6,8H,1-4H2/t6-,7-/m1/s1
