21
gdb 59561	3.27884	1.21847	1.06047	1.5322	77.8	-0.2418	0.0759	0.3177	1213.0784	0.183216	-424.206284	-424.197819	-424.196875	-424.239253	33.314	
C	 0.0203778613	 1.531507201	-0.0039368221	-0.409597
C	-0.0019034899	 0.0029270898	 0.028665403	 0.109539
O	 0.5901838143	-0.4860205655	 1.2347654355	-0.446369
C	-1.4132697591	-0.5759757653	-0.0056401653	 0.048527
C	-2.1885968759	-0.3461695417	-1.3452396804	-0.258265
C	-2.3999496478	-1.8304448482	-1.7115224215	 0.083139
C	-2.8889433112	-2.4725705094	-0.3953629738	-0.237876
C	-1.4263665782	-2.124394779	-0.0478329266	 0.06593
O	-1.0775392605	-2.3963212358	-1.4461598067	-0.302621
H	 1.0510256883	 1.9039004403	 0.0268579035	 0.103109
H	-0.4428921187	 1.9221460071	-0.9151660312	 0.118863
H	-0.5134035878	 1.9381315081	 0.861270368	 0.120693
H	 0.5408471471	-0.3921340708	-0.8440944025	 0.078961
H	 1.4990746511	-0.1720924936	 1.2678806938	 0.280276
H	-1.9634305934	-0.2025327451	 0.8648569119	 0.072415
H	-3.1233686799	 0.2067145293	-1.22155641	 0.097935
H	-1.5833290015	 0.1596903766	-2.1019516163	 0.105603
H	-2.8039306087	-2.0801017994	-2.6927754183	 0.076209
H	-3.7011991638	-1.9997588689	 0.1638092647	 0.09123
H	-3.0406335126	-3.5475538155	-0.4960742147	 0.10953
H	-0.8219823829	-2.662248284	 0.6790247488	 0.092769
84.6983	137.5594	179.3602	242.5711	270.2207	316.7046	389.3046	415.1397	468.3708	477.1746	590.5307	720.5119	814.8365	839.255	847.1581	871.511	877.7333	907.3565	939.0405	962.7318	981.5274	996.5383	1036.2035	1052.4211	1080.2962	1100.105	1118.8224	1133.0265	1158.116	1207.1507	1227.5054	1239.2529	1254.4966	1270.5981	1290.4032	1313.0734	1325.7111	1352.0643	1382.3402	1405.0791	1428.5623	1481.9441	1493.2905	1495.2694	1498.8037	2986.5743	3027.9256	3050.9625	3060.6894	3065.0206	3093.5342	3109.03	3114.2613	3120.6169	3142.0433	3156.1455	3821.2167
CC(O)C1CC2CC1O2	C[C@@H](O)[C@H]1C[C@@H]2C[C@H]1O2	
InChI=1S/C7H12O2/c1-4(8)6-2-5-3-7(6)9-5/h4-8H,2-3H2,1H3	InChI=1S/C7H12O2/c1-4(8)6-2-5-3-7(6)9-5/h4-8H,2-3H2,1H3/t4-,5-,6-,7-/m1/s1
