22
gdb 58328	3.34784	0.72036	0.68846	3.5995	80.63	-0.2469	0.0351	0.2819	1739.4432	0.19229	-441.517757	-441.50679	-441.505845	-441.554874	39.119	
C	 0.1409990646	 1.603916269	-0.2928939377	-0.416329
C	-0.0035981893	 0.107519724	 0.0300761598	 0.027217
C	 0.5157792396	-0.7507590812	-1.131672742	-0.395594
C	 0.6922577941	-0.3014976676	 1.3454760174	 0.115053
O	 2.0968248385	-0.0238006768	 1.3376216754	-0.445198
C	 0.0483104978	 0.2921848304	 2.6032181525	-0.180857
N	 0.7521496893	-0.1721864772	 3.7841018106	-0.274266
C	 0.1233347948	-0.5749201894	 4.9164041016	 0.152939
O	-1.0765477115	-0.546969651	 5.0995016853	-0.328843
H	 1.1880140254	 1.8757417683	-0.4754612276	 0.111256
H	-0.4082482547	 1.8479866669	-1.2069721049	 0.125434
H	-0.2462395206	 2.2476671333	 0.5024131626	 0.122317
H	-1.0724301648	-0.1058952728	 0.1678471519	 0.0835
H	 1.5976445265	-0.6290777534	-1.242513486	 0.127241
H	 0.3153993357	-1.813386791	-0.9604671112	 0.114736
H	 0.0397309947	-0.4664075007	-2.0751511212	 0.110469
H	 0.6402114873	-1.3932098623	 1.4337691662	 0.095211
H	 2.2083934185	 0.9237843702	 1.1999473752	 0.283933
H	 0.0626219231	 1.3906925187	 2.5567739282	 0.102168
H	-0.9959830312	-0.0156810936	 2.6990789899	 0.144447
H	 1.7530550743	-0.2672407908	 3.7029610783	 0.252863
H	 0.8423256879	-0.940397083	 5.6766395756	 0.072304
30.4058	63.8857	91.8037	140.712	214.7137	227.344	240.3493	273.002	287.2416	326.7851	331.8583	363.6919	437.1947	515.3516	601.1602	604.6185	763.2576	822.4921	897.8568	923.0075	963.2179	968.8814	1002.6695	1028.9122	1036.1043	1090.6492	1106.1981	1165.3671	1201.5573	1210.414	1229.65	1294.4507	1304.0277	1357.9438	1365.3231	1398.0887	1406.7317	1419.075	1427.3061	1430.412	1486.7623	1494.8151	1502.5766	1508.8966	1513.613	1520.7188	1801.9878	2933.9148	3000.6577	3015.3893	3028.2544	3035.9435	3047.2185	3092.5266	3103.5074	3107.6354	3110.0889	3113.6938	3626.4812	3797.2795
CC(C)C(O)CNC=O	CC(C)[C@@H](O)CNC=O	
InChI=1S/C6H13NO2/c1-5(2)6(9)3-7-4-8/h4-6,9H,3H2,1-2H3,(H,7,8)	InChI=1S/C6H13NO2/c1-5(2)6(9)3-7-4-8/h4-6,9H,3H2,1-2H3,(H,7,8)/t6-/m0/s1
