21
gdb 105306	2.31701	1.46432	1.12092	0.5587	88.05	-0.2472	0.0555	0.3028	1196.1536	0.18129	-349.894879	-349.885743	-349.884799	-349.928258	35.77	
C	 0.0166795594	 1.5475509629	 0.1532279531	-0.387413
C	-0.1119064307	 0.0337391446	-0.0377477324	-0.236553
C	 0.6876615953	-0.5126374825	-1.2356175313	 0.118185
C	 2.2713381581	-0.4665568813	-1.1460692527	-0.287153
C	 2.3187805066	-1.9850428466	-1.3410898813	-0.022003
C	 1.5667203033	-2.6714020016	-0.2390453684	-0.302883
C	 0.7941042822	-2.0556417809	-1.3729291022	-0.076975
C	 0.2157202821	 0.0745385941	-2.483680827	 0.306321
C	-0.1872857153	 0.5472886768	-3.5141582084	-0.467087
H	 1.0580276387	 1.840597619	 0.326003399	 0.114949
H	-0.3393469502	 2.0863559744	-0.7293530514	 0.131488
H	-0.5689819064	 1.8811007885	 1.0152123183	 0.11083
H	 0.225317058	-0.4808765958	 0.8682163156	 0.094055
H	-1.1659892392	-0.2354779972	-0.1761339118	 0.103212
H	 2.7095144164	 0.102706679	-1.9657694486	 0.118854
H	 2.6760505365	-0.0971958922	-0.1976196849	 0.09568
H	 3.0329576817	-2.5087312469	-1.9638642027	 0.086284
H	 1.5968418596	-3.7563761556	-0.2572831553	 0.112601
H	 1.5447912434	-2.2500689124	 0.7628782833	 0.106419
H	 0.1482491186	-2.642328714	-2.0144007502	 0.09146
H	-0.5382219082	 0.9678456378	-4.4237471306	 0.189729
107.0411	136.6267	161.5298	180.1352	204.4775	270.5847	358.3699	387.5911	472.5139	488.7487	542.3273	613.2487	616.9173	626.8925	740.1184	783.0349	792.6493	842.5039	886.6908	926.8125	941.9115	959.1711	991.4647	1006.0745	1039.4736	1059.8866	1073.5951	1085.012	1122.7843	1141.2527	1157.7439	1211.7913	1237.7562	1252.9763	1290.8056	1317.9216	1355.3516	1363.9543	1411.0015	1478.4928	1480.9604	1497.3005	1499.8995	1508.7822	2226.4978	3033.2678	3037.5901	3044.992	3072.3389	3102.8623	3111.7923	3117.8708	3130.0652	3182.9374	3188.6833	3202.3149	3501.6163
CCC1(CC2CC12)C#C	CC[C@]1(C[C@H]2C[C@@H]12)C#C	
InChI=1S/C9H12/c1-3-9(4-2)6-7-5-8(7)9/h1,7-8H,4-6H2,2H3	InChI=1S/C9H12/c1-3-9(4-2)6-7-5-8(7)9/h1,7-8H,4-6H2,2H3/t7-,8-,9+/m1/s1
