18
gdb 30372	4.88903	1.03654	0.86444	5.7317	90.25	-0.1948	-0.0147	0.1801	1346.6801	0.148677	-398.159929	-398.151024	-398.15008	-398.194356	31.656	
C	-0.271834669	 1.4262720664	 0.1138066427	-0.325113
N	-0.1802282128	-0.0196933406	 0.1145599137	-0.326715
C	 0.6182521928	-0.6039034463	 0.9276972925	 0.35775
C	 0.7094288002	-2.0629608947	 0.9273338308	-0.188312
C	 1.5388194722	-2.6972155109	 1.7701607723	 0.007457
N	 2.3270468072	-1.9767037195	 2.6599285595	-0.07456
C	 3.2277027178	-2.6576889599	 3.5724995941	-0.346159
C	 2.2121034812	-0.6105644187	 2.6283828845	 0.099016
N	 1.4476462407	 0.0700707783	 1.8581620023	-0.344524
H	 0.3804267984	 1.9245570212	 0.839301456	 0.120412
H	-0.0347497539	 1.8002885139	-0.8909125962	 0.110748
H	-1.3110551536	 1.7201917919	 0.312029529	 0.110777
H	 0.0917990732	-2.6152501195	 0.2312991132	 0.116261
H	 1.6478399949	-3.7740793523	 1.8145276244	 0.125733
H	 3.9770195845	-3.2404330435	 3.0253226342	 0.145074
H	 3.7459923332	-1.9163114923	 4.1831717485	 0.148041
H	 2.6776637299	-3.3313636412	 4.2388007098	 0.145112
H	 2.850872283	-0.0927641623	 3.3447810188	 0.119003
58.4532	72.4687	99.0145	182.329	227.6379	242.7967	359.7864	431.9593	447.9247	468.1447	575.8993	663.8035	747.7554	770.0211	803.8094	829.4991	956.9841	969.0089	995.6611	1061.5558	1071.6433	1127.3391	1140.3768	1152.9564	1183.0372	1235.7375	1254.3602	1397.9574	1422.4882	1432.6203	1439.1163	1476.5227	1480.6999	1488.5034	1496.5531	1520.2864	1623.6331	1694.607	1724.2969	3002.9511	3027.2993	3047.9763	3082.8917	3083.3387	3122.322	3136.8171	3202.9077	3228.0827
CN=C1C=CN(C)C=N1	C[N]C1=NCN(C=C1)C	
InChI=1S/C6H9N3/c1-7-6-3-4-9(2)5-8-6/h3-5H,1-2H3	InChI=1S/C6H10N3/c1-7-6-3-4-9(2)5-8-6/h3-4H,5H2,1-2H3
