24
gdb 118783	2.99492	0.96513	0.8301	1.4979	87.46	-0.232	0.0767	0.3087	1528.962	0.214246	-405.522204	-405.510857	-405.509912	-405.558635	41.012	
C	-0.2465942671	 1.3571767752	-0.095033357	-0.223007
O	-0.2039367599	-0.0475930606	-0.112979726	-0.233974
C	 0.7697550045	-0.5540519322	-1.0050719986	-0.09193
C	 0.7249810743	-2.0723741953	-0.9742440116	 0.247994
C	 0.7574755423	-2.6163830875	 0.4440356015	-0.470735
N	-0.1886249525	-2.677678584	-1.9702909746	-0.401793
C	 1.2711897854	-2.8597843078	-2.1307564996	 0.277636
C	 1.871599417	-2.1752007567	-3.34973035	-0.438647
C	 1.8739939716	-4.2373916761	-1.9125505664	-0.460713
H	 0.7150320351	 1.7931004697	 0.2219815867	 0.099799
H	-0.4983859377	 1.7717528457	-1.0842740159	 0.104784
H	-1.0197858647	 1.6534330656	 0.6183026769	 0.125139
H	 0.572718593	-0.1829703783	-2.018398172	 0.092692
H	 1.7741868161	-0.2026108455	-0.7052616815	 0.077952
H	-0.0576208585	-2.1743019755	 1.0214356307	 0.14553
H	 0.6546295863	-3.7019650895	 0.4801332931	 0.107067
H	 1.6964075635	-2.3499114971	 0.9437111491	 0.115073
H	-0.6070432169	-3.5216187041	-1.583474039	 0.218257
H	 1.3444106079	-1.2576680773	-3.6101318087	 0.127726
H	 2.9294655108	-1.9387051718	-3.1872112101	 0.111293
H	 1.8120509908	-2.8433166844	-4.2165174902	 0.114262
H	 1.7224699257	-4.8521205228	-2.8076396334	 0.120578
H	 2.95491664	-4.170675405	-1.7434988526	 0.120334
H	 1.436016943	-4.7712972148	-1.0678863109	 0.114682
63.7193	84.1735	114.4289	156.9877	159.4859	185.5169	194.8678	235.6628	294.0385	321.0544	351.6862	379.3038	394.6511	450.481	494.5885	540.683	692.9875	747.0704	854.2037	938.4257	954.6397	967.642	990.1633	993.8886	1024.0271	1065.3748	1078.3559	1119.6851	1156.2339	1158.2033	1175.9635	1193.2001	1227.9133	1276.3631	1294.2791	1330.4633	1400.2188	1408.623	1410.909	1427.4771	1438.6731	1474.6283	1478.9311	1482.672	1485.2762	1490.2019	1496.6675	1500.3533	1506.6334	1520.2175	1527.1344	2937.8084	2965.6562	3007.7073	3028.0437	3032.5686	3038.0878	3039.8108	3082.2643	3087.738	3108.4706	3111.0272	3127.5828	3142.2056	3146.3496	3478.8112
COCC1(C)NC1(C)C	COC[C@@]1(C)NC1(C)C	
InChI=1S/C7H15NO/c1-6(2)7(3,8-6)5-9-4/h8H,5H2,1-4H3	InChI=1S/C7H15NO/c1-6(2)7(3,8-6)5-9-4/h8H,5H2,1-4H3/t7-/m1/s1
