21
gdb 40081	3.74236	1.24441	1.05256	0.3908	91.24	-0.2152	0.0213	0.2365	1213.1905	0.184181	-349.926262	-349.918462	-349.917518	-349.958401	31.664	
C	-0.0978715476	 1.4864748702	-0.1174715794	-0.33044
C	 1.2700076269	 0.8550746413	-0.0230025975	-0.315372
C	 0.028086049	-0.0034105478	-0.0023651333	 0.262362
C	-0.3884212318	-0.9604839482	 1.151422091	-0.339686
C	-0.3273901165	-2.1419527738	 0.113063066	-0.026386
C	-1.4729178229	-3.0818942447	-0.3046435629	-0.243145
C	-1.5627798866	-2.856133779	-1.8519911837	-0.233043
C	-1.0686240865	-1.4189486371	-2.0251448884	-0.259729
C	-0.3481953942	-1.0829333019	-0.9594191751	 0.275929
H	-0.470365511	 2.0281056246	 0.746310153	 0.113606
H	-0.4102077208	 1.8982106272	-1.0715768889	 0.115452
H	 1.8890060429	 0.8329026765	-0.9133012112	 0.117824
H	 1.8204902203	 0.9642209414	 0.9060713276	 0.112989
H	 0.2833979158	-1.0189783241	 2.0121603661	 0.096875
H	-1.4086421655	-0.7657837589	 1.496257004	 0.103667
H	 0.6338157236	-2.6645627837	 0.1918075302	 0.073947
H	-1.3145196356	-4.1305240234	-0.0356271341	 0.090137
H	-2.4128335094	-2.7580881155	 0.157470355	 0.098577
H	-0.93769225	-3.5789378145	-2.3966347343	 0.101416
H	-2.5827133163	-2.9874919085	-2.2299620784	 0.098789
H	-1.3605399937	-0.7877879302	-2.8563942557	 0.086231
99.518	147.1931	209.824	260.6021	333.0469	356.8691	468.2042	499.4693	603.8914	667.1576	759.7432	789.4238	805.5393	818.4453	853.5043	864.7656	898.2761	903.7175	937.312	945.549	973.7382	975.9043	1046.2052	1051.8655	1062.6839	1072.6729	1097.5747	1125.8241	1169.3083	1188.6165	1194.7118	1207.1033	1229.5214	1237.6399	1274.5196	1302.1525	1326.0505	1334.8166	1373.3365	1461.3907	1475.9946	1481.8435	1495.1232	1497.7339	1733.6029	2998.9012	3024.2875	3035.4543	3046.3862	3061.0386	3089.914	3105.2342	3124.2999	3128.5276	3195.7038	3204.1549	3220.061
C1CC11CC2CCC=C12	C1CC21C[C@H]1CC[CH][C]21	
InChI=1S/C9H12/c1-2-7-6-9(4-5-9)8(7)3-1/h3,7H,1-2,4-6H2	InChI=1S/C9H12/c1-2-7-6-9(4-5-9)8(7)3-1/h3,7H,1-2,4-6H2/t7-/m1/s1
