20
gdb 7692	4.18553	1.4867	1.37898	1.5599	75.46	-0.2278	0.0877	0.3155	1015.7779	0.175372	-348.974477	-348.96599	-348.965046	-349.006632	32.601	
C	 0.0410985572	 1.4771152211	-0.0725611771	-0.398456
C	 0.0154825985	-0.0294748798	 0.0893591816	 0.1192
O	 0.9652790002	-0.6720700347	-0.8192853332	-0.303911
C	 1.7494935771	-1.1130599966	 0.2900239579	 0.054631
C	 0.7617672909	-0.5769403467	 1.305361553	-0.177985
C	 1.0055677896	-2.0771317317	 1.1730992793	 0.296858
C	-0.0296067926	-3.0268108108	 0.6063303098	-0.465339
C	 1.8367798444	-2.6430091822	 2.3118822247	-0.456279
H	 1.0470457752	 1.8696691972	 0.1030817137	 0.122085
H	-0.2678159169	 1.7534960522	-1.0851328239	 0.12609
H	-0.6475126681	 1.9478386616	 0.6382432031	 0.113347
H	-0.9983745968	-0.4179566847	-0.071579602	 0.07767
H	 2.8294763925	-1.0505551539	 0.2010503078	 0.094789
H	 0.9227812535	-0.0362657324	 2.2301865622	 0.087919
H	-0.45623983	-2.6437911951	-0.3227781256	 0.136886
H	 0.4290640888	-3.9965884522	 0.3818817563	 0.111975
H	-0.8427451889	-3.2026797844	 1.3199756905	 0.110285
H	 1.2065417392	-2.8836063834	 3.1758007208	 0.118851
H	 2.346232178	-3.5629036158	 2.0040174593	 0.118126
H	 2.5998883483	-1.9324700777	 2.6473619217	 0.113258
144.5492	189.3543	207.5622	213.7403	234.7713	262.9865	316.7335	352.227	398.7297	496.705	542.0984	691.3174	776.8078	826.3783	842.7065	896.8284	922.414	967.8969	973.4185	1007.9923	1028.5363	1040.8095	1055.3701	1086.3973	1116.7364	1123.8123	1164.2195	1210.9925	1229.3056	1296.7143	1312.1657	1374.8489	1403.0549	1405.9249	1409.3871	1424.9787	1483.9269	1485.4461	1489.4934	1491.496	1504.6635	1512.8099	3020.0973	3022.4779	3029.7932	3033.9747	3082.8646	3086.4585	3094.298	3104.9686	3118.2455	3129.0359	3157.4988	3183.277
CC1OC2C1C2(C)C	C[C@H]1O[C@H]2[C@@H]1C2(C)C	
InChI=1S/C7H12O/c1-4-5-6(8-4)7(5,2)3/h4-6H,1-3H3	InChI=1S/C7H12O/c1-4-5-6(8-4)7(5,2)3/h4-6H,1-3H3/t4-,5-,6+/m1/s1
