20
gdb 63724	3.10381	1.19497	1.04015	2.8474	82.52	-0.2448	-0.0273	0.2175	1226.706	0.169245	-403.126589	-403.117568	-403.116623	-403.159917	34.622	
C	-0.0682033646	 1.5569596789	 0.1286343665	-0.44533
C	 0.0262991792	 0.039068364	 0.0075477709	 0.337994
C	-1.3383691818	-0.6043911737	-0.2318316073	-0.447332
C	 1.1195390731	-0.5134793378	-0.9901522298	-0.341455
C	 1.7829430762	-1.2406949919	 0.1737319469	 0.271456
N	 2.1557037656	-0.2093436028	 1.1806175818	-0.363473
C	 0.7777916446	-0.673156629	 1.1591476872	-0.13557
C	 2.3352471745	-2.59393107	 0.2264539446	 0.048145
O	 2.4499587297	-3.3329480263	-0.7228320363	-0.268115
H	 0.9103854939	 1.988992414	 0.3510029232	 0.136937
H	-0.4354590568	 1.9954679881	-0.8060270026	 0.114616
H	-0.7620543743	 1.8460507045	 0.9264541291	 0.10964
H	-1.7738726557	-0.2469262385	-1.1708009691	 0.121556
H	-1.2630185883	-1.6955355863	-0.2908979951	 0.119376
H	-2.0364505251	-0.3582061786	 0.5767057162	 0.113716
H	 0.7124300815	-1.1983816524	-1.7353920405	 0.125497
H	 1.7493196388	 0.2344873885	-1.4757999103	 0.110087
H	 2.6414234365	-0.671947174	 1.950788689	 0.236206
H	 0.335351378	-1.1630870614	 2.0208050066	 0.100463
H	 2.6334918949	-2.9135610953	 1.255382119	 0.055584
85.4145	156.4171	178.9912	233.3652	263.7777	289.3912	298.3639	343.704	381.5362	429.3881	490.9015	539.0631	619.3287	739.0816	774.2322	835.6735	852.5494	912.9995	948.7922	956.3958	966.2771	990.1408	1020.6511	1039.4154	1081.9576	1111.7772	1129.6947	1192.4789	1213.4347	1248.7549	1267.0994	1290.7206	1364.9807	1395.4401	1400.9449	1419.3184	1436.3975	1477.9818	1485.7515	1489.2318	1501.6427	1511.8453	1799.9054	2826.4305	3024.109	3029.3158	3077.0958	3088.3159	3092.6347	3100.0449	3122.9107	3139.592	3167.7206	3456.7544
CC1(C)CC2(NC12)C=O	CC1(C)C[C@]2(N[C@@H]12)C=O	
InChI=1S/C7H11NO/c1-6(2)3-7(4-9)5(6)8-7/h4-5,8H,3H2,1-2H3	InChI=1S/C7H11NO/c1-6(2)3-7(4-9)5(6)8-7/h4-5,8H,3H2,1-2H3/t5-,7-/m0/s1
