23
gdb 86381	2.42945	1.42574	1.07912	1.129	84.9	-0.2499	0.0743	0.3242	1235.8974	0.205705	-388.301024	-388.291691	-388.290746	-388.33426	37.075	
C	-0.0285369138	 1.5706194822	 0.0323029341	-0.396849
C	 0.0440526297	 0.0426222608	 0.0254519919	 0.025362
C	 0.8027968349	-0.5458836693	-1.1915740546	-0.251494
C	 1.3158570688	-1.9314383386	-0.7422870409	-0.019952
C	 2.5306776584	-2.4463158573	-1.5156989211	-0.415854
C	 1.5318190161	-1.770049705	 0.7615494674	 0.407183
O	 1.5486026431	-2.9310657907	 1.5402907751	-0.481959
C	 2.2734715561	-0.547013427	 1.245785374	-0.363956
C	 0.7519647439	-0.5764922507	 1.2271439675	-0.087908
H	 0.9740326659	 2.0097000821	 0.0848525821	 0.112198
H	-0.5130994287	 1.9487880523	-0.8746458958	 0.108759
H	-0.597856687	 1.9385678691	 0.8924225186	 0.110959
H	-0.9815550462	-0.3521088323	 0.0159069867	 0.072795
H	 0.1730248599	-0.6036817356	-2.0842526673	 0.095567
H	 1.6504194623	 0.1006236489	-1.4517424586	 0.094444
H	 0.501716464	-2.6620618516	-0.845947107	 0.078099
H	 3.3794427874	-1.7593918602	-1.4212118017	 0.112448
H	 2.8484053594	-3.427585792	-1.1447279593	 0.104519
H	 2.3074958617	-2.5579535393	-2.5818402097	 0.113865
H	 2.4245878505	-3.3247650076	 1.4676480504	 0.280767
H	 2.7316541742	-0.636191431	 2.2248025048	 0.109027
H	 2.8178803723	 0.085247279	 0.5512771157	 0.105518
H	 0.2451819571	-0.6004987162	 2.1857764279	 0.086461
128.4153	148.2365	224.8058	228.4496	241.9964	246.8596	277.6012	332.9745	401.7738	423.6612	463.9875	518.0294	571.0617	593.9148	666.7233	792.4871	872.2687	883.9476	907.7745	925.8741	937.5982	962.2069	998.5545	1008.6789	1047.1339	1055.2775	1070.5864	1094.2116	1128.5322	1137.9658	1176.8805	1193.9937	1243.885	1265.0659	1304.0952	1318.8477	1331.9483	1342.6553	1371.8961	1379.9729	1403.8092	1408.7779	1413.9976	1484.0597	1495.3155	1495.5348	1500.0282	1502.4932	1507.8114	3003.2798	3009.3328	3023.7797	3025.8908	3031.6521	3082.2421	3088.4217	3093.5832	3096.3471	3097.1109	3125.878	3170.0595	3213.3514	3800.3317
CC1CC(C)C2(O)CC12	C[C@H]1C[C@@H](C)[C@@]2(O)C[C@@H]12	
InChI=1S/C8H14O/c1-5-3-6(2)8(9)4-7(5)8/h5-7,9H,3-4H2,1-2H3	InChI=1S/C8H14O/c1-5-3-6(2)8(9)4-7(5)8/h5-7,9H,3-4H2,1-2H3/t5-,6+,7-,8-/m0/s1
