20
gdb 74927	2.58069	1.88838	1.3373	1.7592	83.38	-0.2058	0.0134	0.2192	1028.5599	0.171691	-365.986945	-365.978991	-365.978047	-366.018801	31.972	
C	 0.1519329973	 1.4819170192	 0.0328615144	-0.506432
C	 0.008745572	-0.0047202702	-0.0237568133	 0.285725
C	-0.1189105433	-0.7936377877	-1.0942681217	-0.197914
C	-0.0554000682	-2.226846991	-0.6417022246	-0.057559
C	 1.4036472486	-2.5387640696	-0.1690568183	-0.248664
C	 0.9388259711	-2.0824961704	 1.2024311404	-0.07969
N	-0.5178712851	-2.2135185358	 0.8225496443	-0.170275
C	 0.0162517231	-0.8835269634	 1.1961101655	 0.250971
C	-0.4391544086	-0.3431278733	 2.5295178886	-0.496746
H	 1.1099714649	 1.7723222751	 0.482812505	 0.129378
H	 0.101971106	 1.9217440669	-0.9665435464	 0.126636
H	-0.6323112986	 1.9417273467	 0.6460909856	 0.130474
H	-0.097347603	-0.4839850933	-2.1323077403	 0.094378
H	-0.555759004	-2.9711553389	-1.25992986	 0.077014
H	 1.593399022	-3.6147828324	-0.1584741753	 0.111778
H	 2.2315789252	-2.0210904683	-0.6628362825	 0.095237
H	 1.3191720836	-2.4683379896	 2.144939751	 0.085537
H	 0.2383441758	 0.4364959405	 2.8941214431	 0.116109
H	-1.4445295161	 0.0842428876	 2.4528250718	 0.125317
H	-0.4725359027	-1.142044352	 3.2749173429	 0.128725
153.9321	179.2409	200.7925	249.8886	279.2009	338.9254	408.4266	431.9659	568.1025	590.5637	631.0126	713.4329	767.4812	797.2586	824.6244	847.2326	879.9856	904.7168	961.2782	990.0513	998.8585	1025.2514	1041.1035	1061.3513	1065.9506	1092.0443	1139.3756	1157.4494	1216.8287	1238.3772	1249.4762	1267.8522	1325.2247	1356.1764	1372.6373	1411.4368	1417.6299	1477.6092	1481.1005	1487.3059	1492.0017	1498.4714	1704.1959	3020.2934	3033.9417	3048.7834	3067.419	3097.6173	3106.836	3113.8076	3117.3706	3117.9023	3140.5835	3203.1217
CC1=CC2CC3N2C13C	CC1=C[C@H]2C[C@@H]3N2[C@]13C	
InChI=1S/C8H11N/c1-5-3-6-4-7-8(5,2)9(6)7/h3,6-7H,4H2,1-2H3	InChI=1S/C8H11N/c1-5-3-6-4-7-8(5,2)9(6)7/h3,6-7H,4H2,1-2H3/t6-,7-,8+,9?/m0/s1
