15
gdb 27310	3.24659	1.35534	0.96179	4.9094	71.29	-0.2314	-0.0256	0.2058	1152.304	0.112493	-457.824007	-457.815988	-457.815044	-457.856507	30.008	
C	-0.0312971451	 1.4953506638	-0.0030543974	-0.471706
C	-0.0064494474	-0.0029166079	-0.0153209977	 0.090231
C	-0.035921237	-0.7157761499	-1.1479837786	-0.024565
O	-0.0138624157	-2.086828565	-1.1875940942	-0.237099
C	 0.0405646929	-2.7563439175	-0.0200417724	 0.482646
O	 0.0566978309	-4.0812110488	-0.2020686373	-0.400612
C	 0.0745784084	-2.1570878899	 1.1875325481	-0.386629
C	 0.0534880046	-0.7080125318	 1.2910311839	 0.340117
O	 0.0816711075	-0.0922299188	 2.3492850164	-0.379462
H	 0.8602067727	 1.8837641715	 0.4992921708	 0.148736
H	-0.0824000812	 1.9117174778	-1.0124381007	 0.11226
H	-0.8881104486	 1.8535590692	 0.5760445766	 0.149023
H	-0.079846209	-0.3112680066	-2.1508137043	 0.138519
H	 0.0248799978	-4.2607036051	-1.1506054178	 0.311825
H	 0.1178107394	-2.7604100608	 2.0837633546	 0.126715
116.0512	142.7616	177.1877	272.6077	329.1862	347.9673	366.7816	419.2679	440.2448	525.9891	588.8005	685.6963	730.0822	761.7993	777.6886	858.2063	878.0502	928.1231	1019.505	1063.9977	1145.6387	1160.2035	1197.3385	1285.3066	1307.7771	1395.5004	1414.0006	1435.1439	1465.1033	1483.3212	1667.521	1728.5497	1741.3056	3042.3125	3102.9041	3123.3199	3222.9286	3233.6448	3796.9647
CC1=COC(O)=CC1=O	Cc1coc(O)cc1=O	
InChI=1S/C6H6O3/c1-4-3-9-6(8)2-5(4)7/h2-3,8H,1H3	InChI=1S/C6H6O3/c1-4-3-9-6(8)2-5(4)7/h2-3,8H,1H3
