19
gdb 37876	2.89235	2.17218	2.09925	1.6631	75.54	-0.2329	0.0757	0.3086	806.6571	0.164606	-385.872454	-385.867043	-385.866099	-385.901792	25.06	
C	-0.0009169861	 1.5711254113	 0.0028978493	-0.200388
C	 1.5090877327	 1.8635153579	 0.0270798039	-0.08143
C	 2.1382259705	 0.6030402816	-0.7061201284	-0.04626
C	 0.9578206625	-0.23616353	-1.2191668846	-0.223453
C	 0.0494638096	 0.0269261349	 0.0045155126	-0.05794
C	 0.9783611713	-0.3463448693	 1.2075221502	 0.092755
O	 1.0226086337	 0.7229210797	 2.1965446303	-0.29996
C	 2.0660502399	 1.3371159423	 1.4121437173	 0.102287
C	 2.4169256094	 0.0246025331	 0.6966218286	-0.071887
H	-0.5146852613	 1.9830173934	 0.8725552931	 0.111914
H	-0.4783818145	 1.9451279579	-0.9080213318	 0.086913
H	 1.8128848383	 2.8612381035	-0.2881071699	 0.063075
H	 2.9829353183	 0.7700763632	-1.3727770463	 0.061431
H	 0.5163471031	 0.1164224603	-2.1568006596	 0.094663
H	 1.2321425222	-1.2906621867	-1.3396345959	 0.092643
H	-0.9204373184	-0.4725405738	 0.0086613569	 0.058717
H	 0.7797550765	-1.3170172445	 1.6649959926	 0.078144
H	 2.7279741204	 1.9728513852	 2.0017392088	 0.071334
H	 3.2543681918	-0.62973023	 0.9358599529	 0.067444
374.0571	443.9334	449.5903	504.3942	609.7432	629.4103	743.116	759.1066	800.3378	809.3898	841.1985	871.6994	884.8779	904.3851	915.4874	923.819	938.4667	970.689	984.8136	989.5988	1004.4808	1026.1862	1071.4225	1108.1272	1121.6145	1143.8297	1174.9128	1192.8406	1206.6905	1226.0996	1240.3188	1262.5393	1274.6662	1288.5531	1296.1394	1305.7101	1333.1031	1342.3719	1345.6328	1476.7119	1501.8983	3037.5329	3057.1306	3085.4788	3091.5594	3099.1636	3106.4455	3113.347	3115.7024	3124.9069	3130.3179
C1C2C3CC1C1OC2C31	C1[C@@H]2[C@@H]3C[C@H]1[C@@H]1O[C@H]2[C@H]31	
InChI=1S/C8H10O/c1-3-2-5-4(1)6-7(3)9-8(5)6/h3-8H,1-2H2	InChI=1S/C8H10O/c1-3-2-5-4(1)6-7(3)9-8(5)6/h3-8H,1-2H2/t3-,4+,5-,6-,7+,8-/m1/s1
