15
gdb 25283	3.22993	1.67261	1.11724	4.5289	74.33	-0.2438	-0.0464	0.1974	1011.8014	0.116463	-416.876297	-416.869546	-416.868602	-416.908019	25.38	
O	-0.0766319479	-0.0512538288	 0.0033621116	-0.321357
C	-0.0208690376	 1.1556879174	 0.0089929294	 0.280105
C	-1.2486278642	 2.1042822539	 0.0325016043	-0.333785
C	-0.695216664	 3.5489360436	 0.0318127859	-0.200097
N	 0.7550909579	 3.3436569754	 0.0095067641	-0.027591
C	 1.8686429612	 4.1003356243	-0.0028023063	 0.001855
N	 2.966661013	 3.3484152617	-0.0229927956	-0.266308
C	 2.5330211977	 2.055990768	-0.023622585	-0.190149
C	 1.1506884326	 2.0219707463	-0.0035176171	 0.204386
H	-1.8758777194	 1.8977649423	-0.8383954474	 0.147644
H	-1.8493309499	 1.8884732247	 0.9197152209	 0.147661
H	-1.0093712643	 4.120445168	-0.8457639487	 0.139641
H	-0.9834472172	 4.1114032234	 0.9240033559	 0.139636
H	 1.8513014222	 5.1800995441	 0.0033204422	 0.141208
H	 3.2209893	 1.2249351357	-0.0382360743	 0.137149
71.682	167.4474	199.4636	307.6276	518.9846	541.3031	608.8095	647.4256	655.5785	679.936	747.1341	827.4857	842.4944	881.8259	949.5194	991.9734	1036.1282	1040.0485	1143.5091	1157.087	1198.2789	1236.9613	1246.0086	1273.2208	1308.4593	1333.3887	1353.0428	1428.3006	1462.3001	1489.6138	1528.3504	1565.2933	1817.6524	3059.1856	3076.2795	3096.1804	3121.9646	3251.1509	3260.1941
O=C1CCN2C=NC=C12	O=C1CCn2cncc12	
InChI=1S/C6H6N2O/c9-6-1-2-8-4-7-3-5(6)8/h3-4H,1-2H2	InChI=1S/C6H6N2O/c9-6-1-2-8-4-7-3-5(6)8/h3-4H,1-2H2
