20
gdb 89548	5.5705	0.84948	0.84329	4.0205	80.78	-0.2457	0.039	0.2847	1433.3001	0.170711	-403.171373	-403.16266	-403.161716	-403.204988	33.541	
C	-1.0165297822	 0.9934396555	-0.1817373612	-0.40902
C	 0.1109204307	-0.0049147908	 0.0264433733	 0.061946
C	 1.3999389888	 0.1270808999	-0.836559983	-0.303701
C	 2.2237694398	-0.2482046382	 0.4180787323	 0.417192
C	 1.0046975958	 0.1251068342	 1.2945213793	-0.303701
C	 2.8533498134	-1.6691070158	 0.5335251461	-0.468802
C	 4.1928554625	-0.9326776216	 0.7825292205	 0.435686
O	 5.3329169681	-1.2461469258	 0.9935876594	-0.362429
N	 3.56141791	 0.2832250012	 0.666667104	-0.392986
H	-0.6465493888	 2.0229462189	-0.1121505974	 0.110549
H	-1.4794693897	 0.8718440156	-1.1672687014	 0.117844
H	-1.8020648645	 0.870215726	 0.5720005604	 0.117844
H	-0.2768712105	-1.0268636393	-0.0464258184	 0.078008
H	 1.5061125493	-0.5021982478	-1.7241788657	 0.102115
H	 1.5745286938	 1.1703177926	-1.123150925	 0.097896
H	 1.0645606101	 1.1677697924	 1.626528409	 0.097897
H	 0.7857244146	-0.5057977041	 2.1600515592	 0.102114
H	 2.509826763	-2.2697549855	 1.3779925594	 0.129295
H	 2.8355877439	-2.2681570236	-0.3790172651	 0.129293
H	 3.9118387118	 1.2282356963	 0.7324099243	 0.24296
62.7563	71.7919	228.4269	258.5472	292.7233	297.3395	378.9425	393.5413	456.1911	459.663	513.882	565.9019	694.0172	778.2638	825.4704	842.7689	877.2342	907.5666	938.6818	954.7041	975.7988	1038.795	1053.1313	1059.9837	1126.9542	1139.1954	1179.801	1195.9471	1199.0644	1228.7452	1231.2012	1269.9502	1285.484	1303.7082	1369.5631	1397.5551	1412.1506	1457.5355	1468.6606	1493.2989	1495.3584	1499.0144	1897.0492	3023.6019	3038.2021	3040.031	3047.3909	3081.1623	3090.7123	3093.3124	3098.9017	3103.5468	3139.7679	3600.3824
CC1CC2(C1)CC(=O)N2	C[C@H]1C[C@@]2(C1)CC(=O)N2	
InChI=1S/C7H11NO/c1-5-2-7(3-5)4-6(9)8-7/h5H,2-4H2,1H3,(H,8,9)	InChI=1S/C7H11NO/c1-5-2-7(3-5)4-6(9)8-7/h5H,2-4H2,1H3,(H,8,9)/t5-,7+
