25
gdb 86301	1.90481	1.65235	1.11045	0.1021	92.49	-0.2624	0.0801	0.3425	1262.6975	0.228918	-352.346666	-352.337056	-352.336112	-352.380675	37.629	
C	-0.6042151545	 0.8461231102	-1.6169123852	-0.420865
C	 0.3571906551	-0.2000083261	-1.0728480002	-0.006756
C	 1.8810443496	-0.0171266738	-1.2967240881	-0.254455
C	 2.1252527645	-0.6544366565	 0.096411139	-0.025538
C	 3.2568042719	-0.1295651498	 0.9664236112	-0.418371
C	 0.6452999727	-0.3390419197	 0.458785155	 0.354282
C	 0.2755388409	 0.8564633809	 1.3877585898	-0.276987
C	-0.9193824559	 0.0262646189	 1.92692659	-0.209367
C	-0.2526447591	-1.2448526334	 1.3361203298	-0.292495
H	-0.3234198536	 1.856895725	-1.3030677344	 0.113877
H	-0.6050731591	 0.834060011	-2.7128358275	 0.112607
H	-1.6334526768	 0.6654073882	-1.2861191291	 0.112652
H	 0.0576614033	-1.1891988978	-1.4433364228	 0.066394
H	 2.3343813409	-0.4921366936	-2.1711558312	 0.088235
H	 2.1549924108	 1.0445993476	-1.2976547095	 0.091182
H	 2.2258847997	-1.7420672807	-0.0151483989	 0.065309
H	 3.2034413768	 0.9587695086	 1.0792933783	 0.112827
H	 3.2343264967	-0.5707324154	 1.9698923141	 0.11054
H	 4.2309476687	-0.3677585404	 0.5246651379	 0.111463
H	 1.0355870553	 1.0135657732	 2.1590267831	 0.096327
H	 0.0555682388	 1.8224269921	 0.9265370747	 0.09253
H	-1.0997959733	 0.0483882162	 3.0044478583	 0.09238
H	-1.8542578827	 0.2732057377	 1.416238649	 0.101666
H	-0.8933108614	-1.9618557583	 0.8128742892	 0.088649
H	 0.3307068206	-1.7890576837	 2.0871993377	 0.093915
79.9493	109.3464	188.3088	207.2411	218.2702	239.8112	274.0464	298.9088	409.6171	449.6892	477.7378	500.8418	619.2412	689.9788	769.8011	794.9589	862.8326	871.7582	882.6707	907.9648	940.3741	946.4857	962.9131	971.3005	1026.9865	1053.0806	1089.7567	1104.481	1156.7583	1173.5053	1178.7752	1187.3865	1204.96	1211.8233	1249.2097	1255.608	1263.9267	1270.8319	1277.6404	1298.7722	1310.9208	1357.8431	1390.9126	1406.7778	1411.6792	1471.2411	1480.2682	1490.2034	1493.9428	1495.7598	1497.3786	1501.4071	1507.9136	3011.2733	3014.7557	3021.6012	3024.0469	3033.6686	3034.8622	3052.1827	3057.6645	3079.8849	3084.6624	3085.5129	3089.0213	3091.9195	3095.4511	3099.6488	3113.5742
CC1CC(C)C11CCC1	C[C@H]1C[C@@H](C)C21CCC2	
InChI=1S/C9H16/c1-7-6-8(2)9(7)4-3-5-9/h7-8H,3-6H2,1-2H3	InChI=1S/C9H16/c1-7-6-8(2)9(7)4-3-5-9/h7-8H,3-6H2,1-2H3/t7-,8+
