14
gdb 70141	2.50717	2.0782	1.30407	1.6698	63.	-0.2509	-0.0294	0.2215	916.1009	0.101004	-473.847125	-473.839868	-473.838924	-473.878834	27.768	
O	 0.01250314	 1.360337283	-0.0980741999	-0.466509
C	 0.0196027646	-0.0219082867	-0.0575754169	 0.274159
C	-0.4793059093	-0.7603387797	-1.2737388532	-0.341897
C	-1.3085978786	-0.8075817	-0.0158720861	-0.066593
N	-1.3544376807	-2.0359077599	 0.6958805198	-0.217719
C	-0.2762451011	-2.5098965079	 1.1393919136	 0.112558
O	 0.9737880253	-1.9166509878	 1.1257219408	-0.211388
C	 1.0900972311	-0.5921574551	 0.7850602256	 0.382921
O	 2.0078789153	 0.0595018232	 1.2093450768	-0.343822
H	 0.7923555939	 1.6416001453	 0.4030650863	 0.304359
H	-0.827056471	-0.1052815123	-2.0639918135	 0.150525
H	 0.0111986901	-1.6724930808	-1.594913509	 0.139818
H	-2.2204950654	-0.2222415998	 0.0082294309	 0.130378
H	-0.2146038543	-3.4755751914	 1.6295587647	 0.153211
86.9431	192.9759	281.2432	300.219	334.4709	412.7994	468.9406	507.2846	533.341	599.4152	680.0883	746.1638	843.1368	853.2031	897.5863	904.85	940.941	986.9384	1045.1945	1081.6516	1089.9072	1117.0722	1149.3992	1219.0026	1295.9435	1390.1592	1404.0641	1437.4014	1467.9299	1731.8417	1830.7596	3139.0651	3185.9609	3206.619	3239.5163	3733.8036
OC12CC1N=COC2=O	O[C@]12C[C@H]1N=COC2=O	
InChI=1S/C5H5NO3/c7-4-5(8)1-3(5)6-2-9-4/h2-3,8H,1H2	InChI=1S/C5H5NO3/c7-4-5(8)1-3(5)6-2-9-4/h2-3,8H,1H2/t3-,5-/m1/s1
