16
gdb 11760	4.75059	1.73533	1.5765	0.7203	75.7	-0.2307	0.0087	0.2394	844.8418	0.131162	-309.400561	-309.39403	-309.393086	-309.430815	26.983	
C	 0.0260778974	-1.2155735844	-0.0079589679	-0.343525
C	 0.0151454114	-0.0126450161	-0.0037641076	 0.032826
C	 0.0117773907	 1.4268710893	 0.012774293	 0.240369
C	-0.3005993175	 2.2680833237	 1.3132808545	-0.238806
C	 0.3641694398	 3.4000229278	 0.4607292763	-0.103584
C	 1.3347668202	 2.2876855271	-0.0595553979	-0.238806
C	-0.6224753828	 3.4768039589	-0.7134955857	-0.091186
C	-0.8555769843	 2.1975820321	-1.0094417563	-0.12684
H	 0.0346219878	-2.2771912665	-0.0129998664	 0.177167
H	-1.3525617659	 2.3837384906	 1.5809977687	 0.101237
H	 0.2969598227	 1.9527058282	 2.1733787581	 0.102948
H	 0.7263799427	 4.3252098267	 0.9054163086	 0.067918
H	 2.0827740807	 1.9741113049	 0.6742460809	 0.102948
H	 1.7789078132	 2.4212745339	-1.047769053	 0.101237
H	-1.0140378799	 4.3758881315	-1.1670990748	 0.104912
H	-1.4813121764	 1.7403156123	-1.7613672204	 0.111185
156.3417	162.1174	429.985	481.7495	500.1358	530.5138	548.5423	555.2639	627.7197	627.8787	701.5679	727.0515	838.1561	844.528	896.642	902.7032	910.5959	945.9685	990.1176	1009.4842	1057.1345	1067.0257	1094.7557	1155.1912	1165.0615	1219.0343	1224.9741	1250.8146	1273.534	1329.7676	1476.7552	1513.8344	1627.7017	2235.7008	3052.8362	3062.5187	3128.1792	3132.7416	3133.5843	3226.3755	3255.4454	3503.3657
C#CC12CC(C1)C=C2	C#C[C@@]12C[C@@H](C1)C=C2	
InChI=1S/C8H8/c1-2-8-4-3-7(5-8)6-8/h1,3-4,7H,5-6H2	InChI=1S/C8H8/c1-2-8-4-3-7(5-8)6-8/h1,3-4,7H,5-6H2/t7-,8+
