22
gdb 105872	2.2174	1.37417	1.19845	2.7866	82.53	-0.2415	0.0758	0.3173	1203.1619	0.193532	-404.299909	-404.290396	-404.289451	-404.333721	36.287	
C	-0.4755063396	 1.3277290017	-0.5844815636	-0.424894
C	 0.0094982907	-0.0947631217	-0.3196397973	-0.025511
C	 1.3095596025	-0.6602155767	-0.9894091513	-0.279442
C	 1.7892442865	-1.1342198546	 0.3962963656	-0.095422
N	 1.9247935154	-0.0450736418	 1.3415672541	-0.133662
C	 2.4927361806	 1.2561756254	 1.0201283026	-0.322815
C	 0.5794243026	-0.5086515675	 1.0575210945	 0.274343
C	-0.2233477801	-0.9807951008	 2.2460504175	-0.147858
O	 0.6085649115	-1.5228942453	 3.2458691812	-0.422834
H	 0.2958095369	 2.0792105415	-0.4028832637	 0.118873
H	-0.8030661136	 1.4333594414	-1.6247110633	 0.117334
H	-1.331640959	 1.5715356882	 0.0542309366	 0.120119
H	-0.811007305	-0.7853873899	-0.5473489966	 0.082869
H	 1.1083386158	-1.4858953767	-1.6746671142	 0.108428
H	 1.9542273724	 0.0606030419	-1.501828723	 0.101682
H	 2.286629578	-2.073685098	 0.6130585026	 0.099703
H	 2.3857942451	 1.5623219944	-0.0270573185	 0.113753
H	 2.0261038411	 2.0185564398	 1.6512231632	 0.126647
H	 3.5622133198	 1.2320806748	 1.2540562151	 0.124137
H	-0.8240843269	-0.1376406503	 2.6347002969	 0.081208
H	-0.9323244162	-1.7574059693	 1.931230041	 0.100782
H	 1.4433095214	-1.0372921664	 3.1539925808	 0.282558
99.8899	151.4275	174.5749	186.7145	207.3677	247.8619	258.0341	289.2325	350.5453	447.9736	498.0133	522.894	620.311	651.2848	696.1052	735.4941	838.2709	860.8892	935.5998	955.7541	1000.6486	1018.4912	1049.8521	1095.2297	1103.2856	1119.1364	1121.9802	1152.3743	1169.9178	1184.7487	1208.237	1237.3858	1241.9938	1268.4649	1280.0887	1348.872	1373.9425	1407.9615	1425.3788	1454.7061	1465.3938	1481.0297	1493.1354	1499.6252	1505.3582	1512.3544	1518.0882	2930.3184	3019.0615	3029.5173	3035.3265	3038.0968	3056.7931	3080.2154	3091.498	3104.8131	3113.477	3127.886	3168.9502	3688.686
CC1CC2N(C)C12CO	C[C@H]1C[C@H]2N(C)[C@@]12CO	
InChI=1S/C7H13NO/c1-5-3-6-7(5,4-9)8(6)2/h5-6,9H,3-4H2,1-2H3	InChI=1S/C7H13NO/c1-5-3-6-7(5,4-9)8(6)2/h5-6,9H,3-4H2,1-2H3/t5-,6+,7-,8?/m0/s1
