18
gdb 11882	4.34211	1.53024	1.31197	2.785	71.6	-0.2346	-0.0134	0.2212	967.0275	0.15431	-347.828952	-347.821664	-347.82072	-347.860613	28.483	
O	-0.0033880019	 0.0595389081	-0.2857468479	-0.311653
C	-0.0122951066	 1.2428964036	-0.0692697495	 0.404403
C	-1.262548373	 2.1162352325	 0.1075772597	-0.313094
C	-0.7382717015	 3.4497714441	 0.6655775328	-0.296062
C	 0.6732813685	 3.5550006052	 0.0863938304	 0.380589
C	 0.9455361569	 4.4827244226	-1.0740217887	-0.306421
C	 1.5312597395	 4.7674505335	 0.2913797102	-0.329684
C	 1.2265320511	 2.1388534019	 0.0817311038	-0.401197
H	-1.702716037	 2.251232015	-0.8890122347	 0.133316
H	-2.0096097713	 1.6104313212	 0.7233755935	 0.126141
H	-1.3642949377	 4.3063096464	 0.4018438024	 0.102651
H	-0.6911256727	 3.4050576235	 1.7612404567	 0.105349
H	 1.6182207857	 4.1448725979	-1.8558057797	 0.113463
H	 0.1396750099	 5.1194747477	-1.425007181	 0.111695
H	 1.1178310871	 5.5947794886	 0.8598022304	 0.111439
H	 2.5984500178	 4.6261426848	 0.4285915401	 0.113406
H	 1.6964728953	 1.8856054034	 1.0431406144	 0.128954
H	 1.9616210597	 1.9284402899	-0.6991878429	 0.126708
70.4045	138.7085	257.7425	327.1267	369.7151	464.1736	467.8689	505.2917	580.0991	718.0309	755.5236	782.1739	813.3296	875.9614	908.7407	930.9148	946.7897	982.732	993.4181	1030.4702	1054.1456	1081.4128	1131.395	1168.4179	1173.5715	1187.0258	1209.5575	1249.0708	1284.9531	1305.3974	1321.3842	1387.7217	1447.236	1449.6236	1467.5129	1497.982	1507.8406	1849.0028	3014.5193	3026.1429	3037.5384	3090.3205	3099.5015	3110.6981	3121.9873	3126.2082	3200.1081	3214.6568
O=C1CCC2(CC2)C1	O=C1CCC2(CC2)C1	
InChI=1S/C7H10O/c8-6-1-2-7(5-6)3-4-7/h1-5H2	InChI=1S/C7H10O/c8-6-1-2-7(5-6)3-4-7/h1-5H2
