15
gdb 129388	4.36292	1.11202	0.88774	6.1645	70.24	-0.2208	-0.0102	0.2106	1232.788	0.116084	-446.347153	-446.338928	-446.337984	-446.379932	30.983	
N	-0.1204317692	 1.3149719406	 0.1144995618	-0.529947
C	 0.0250216482	-0.050516787	 0.0387806501	 0.270538
N	 1.1767018821	-0.6032086886	-0.0119212173	-0.530059
C	-1.2539083853	-0.8017683704	 0.0548485884	 0.324349
N	-2.4318568116	-0.2034381973	 0.0366022251	-0.292112
N	-3.2904998388	-1.2644993361	 0.0366723452	-0.250336
C	-2.5907535815	-2.4249023185	 0.055610906	 0.425046
N	-3.1720276675	-3.6709182575	 0.131887256	-0.602042
N	-1.2978674723	-2.1694236741	 0.0609269045	-0.371149
H	 0.7010192334	 1.8443446042	-0.1316396866	 0.252666
H	-1.0082102025	 1.698325221	-0.1665937443	 0.262135
H	 1.0592982044	-1.6157061903	-0.0077164835	 0.22791
H	-4.2836062411	-1.1100923164	 0.0863397928	 0.278253
H	-4.0120166833	-3.7969489331	-0.4149740643	 0.259405
H	-2.4989440949	-4.4065460463	-0.0326314139	 0.275345
74.277	161.8863	181.1594	269.4945	329.7221	350.0044	406.2662	437.282	450.4801	485.0541	546.4582	627.3261	647.6618	661.4685	752.7853	774.9772	803.8582	881.5854	1011.4395	1057.6245	1111.4992	1127.1356	1145.1309	1179.5923	1321.0106	1355.8972	1446.078	1512.2062	1537.5842	1608.1752	1619.279	1665.1689	1720.3595	3498.2485	3564.0407	3589.763	3663.558	3666.3234	3713.2711
NC(=N)C1=NNC(N)=N1	NC(=N)c1n[nH]c(N)n1	
InChI=1S/C3H6N6/c4-1(5)2-7-3(6)9-8-2/h(H3,4,5)(H3,6,7,8,9)	InChI=1S/C3H6N6/c4-1(5)2-7-3(6)9-8-2/h(H3,4,5)(H3,6,7,8,9)
