21
gdb 92661	2.43925	1.67639	1.39195	2.6855	77.19	-0.2442	0.0701	0.3143	1036.734	0.185566	-424.217948	-424.210207	-424.209262	-424.24997	31.495	
O	 0.2215538304	 1.3838849573	-0.1642026992	-0.451567
C	 0.1166152049	-0.0147101021	 0.0138893188	 0.133834
C	 0.241901823	-0.5102913603	 1.4863852989	-0.255675
C	-1.310911358	-0.5859490825	 1.5751815954	-0.023224
C	-1.9548821675	 0.666435461	 2.2107880665	-0.229433
C	-3.1131283153	 1.2053063557	 1.3720192748	-0.078866
O	-2.6883627023	 1.4569872661	 0.0345184708	-0.253326
C	-2.4384841994	 0.2373626673	-0.6640109913	-0.131172
C	-1.3408673656	-0.5716900566	 0.0083515416	-0.041099
H	-0.6480781405	 1.7793108455	-0.0157946719	 0.292371
H	 0.8097067823	-0.4740475258	-0.6982995872	 0.07292
H	 0.7121383995	-1.4965764081	 1.5426047442	 0.094165
H	 0.7497082168	 0.1688754175	 2.1757059729	 0.101881
H	-1.7226620541	-1.4912708391	 2.0287816055	 0.064332
H	-2.2984362991	 0.4490523476	 3.2283399074	 0.098629
H	-1.2101469085	 1.4651718181	 2.2979380948	 0.112871
H	-3.960658026	 0.5006009358	 1.3599764797	 0.090401
H	-3.4749568175	 2.1602349778	 1.7636478368	 0.110541
H	-3.371529121	-0.346629163	-0.7181452204	 0.095872
H	-2.156735428	 0.5223615816	-1.6825397653	 0.12032
H	-1.3451933941	-1.5937938239	-0.3835604429	 0.076226
91.8438	163.9329	240.809	322.1996	379.4425	399.8412	437.0112	443.6571	499.1343	525.4478	699.6651	731.5425	778.0472	802.5582	840.4133	876.203	910.586	943.291	968.5941	996.7155	1032.8397	1048.5313	1054.5641	1087.9277	1128.5036	1151.5542	1162.8488	1184.5394	1231.1936	1253.1334	1260.9248	1271.7502	1291.5382	1318.6535	1326.692	1343.2203	1362.0791	1383.461	1386.585	1418.1161	1450.3404	1477.4481	1485.2827	1487.737	1503.0503	2972.0492	2977.8539	3036.2668	3042.8156	3052.9593	3054.9464	3067.9718	3079.8982	3081.7172	3088.1001	3113.2845	3732.75
OC1CC2CCOCC12	O[C@H]1C[C@H]2CCOC[C@@H]12	
InChI=1S/C7H12O2/c8-7-3-5-1-2-9-4-6(5)7/h5-8H,1-4H2	InChI=1S/C7H12O2/c8-7-3-5-1-2-9-4-6(5)7/h5-8H,1-4H2/t5-,6-,7+/m1/s1
