17
gdb 39792	3.50524	1.43084	1.17165	3.3227	73.19	-0.2412	0.0678	0.309	1057.1419	0.134648	-421.69327	-421.685942	-421.684998	-421.724836	29.31	
C	-0.0474105	 1.530446077	 0.0110315918	-0.361262
C	 1.3212857225	 0.8524628578	-0.0063092061	-0.357215
C	 0.0649659908	 0.0516810923	 0.0018263956	 0.492537
C	-0.534032587	-1.0285743429	 0.9151025417	-0.213296
O	-1.7179137953	-1.0637523333	 0.013468007	-0.302997
C	-0.5522092369	-1.018578568	-0.9111160716	-0.213293
C	 0.1161297875	-2.0744476683	-0.0103206741	 0.602136
C	 1.294310529	-2.9257017087	-0.0267075371	-0.303834
O	-0.059788837	-3.4528018179	-0.0161137922	-0.282074
H	-0.3595858383	 2.0194664052	 0.927806845	 0.122374
H	-0.3777390439	 2.0294325566	-0.8939360419	 0.122374
H	 1.9001132883	 0.9013345349	-0.9230406973	 0.118975
H	 1.918267625	 0.8913773081	 0.8991877193	 0.118975
H	-0.7071307089	-1.0331533657	 1.9902586508	 0.105109
H	-0.7466741514	-1.0114063098	-1.9825993452	 0.10511
H	 1.8425382068	-3.0861302384	-0.9533045951	 0.12319
H	 1.8608555385	-3.0962020589	 0.8869825593	 0.12319
124.3013	214.9211	229.3516	265.9623	321.6384	397.1809	474.2955	520.9004	656.6739	737.3081	739.7388	764.6795	775.5248	857.2309	878.1325	888.8672	920.3399	961.5604	992.9937	1044.8715	1050.3288	1079.5852	1087.6175	1106.8515	1113.6937	1136.4851	1138.452	1149.4973	1179.4023	1195.8834	1213.066	1236.5722	1419.3067	1461.2263	1462.5486	1518.1022	1562.892	3090.5273	3125.8954	3131.8677	3135.4496	3139.7301	3178.2213	3204.7251	3219.1632
C1CC11C2OC1C21CO1	C1CC21[C@H]1O[C@@H]2[C@]21CO2	
InChI=1S/C7H8O2/c1-2-6(1)4-7(3-8-7)5(6)9-4/h4-5H,1-3H2	InChI=1S/C7H8O2/c1-2-6(1)4-7(3-8-7)5(6)9-4/h4-5H,1-3H2/t4-,5+,7-
