17
gdb 51599	2.89302	1.06749	0.92689	4.7495	72.8	-0.2287	-0.0019	0.2268	1283.4583	0.136009	-455.141369	-455.13261	-455.131666	-455.175722	31.534	
N	-1.4551337452	 0.319582004	 0.0782773609	-0.489319
C	-0.3120442372	-0.1168076082	-0.2614784089	 0.155717
O	 0.0324663756	-1.3906381331	-0.4353211224	-0.204486
C	-0.7455157615	-2.5299677364	-0.0958195489	 0.106453
C	-1.7869655487	-2.5920795566	 0.9931696472	-0.373525
C	-2.1883899324	-2.7872348395	-0.4571716355	 0.019187
N	-3.0115021329	-1.8273835015	-1.116577699	-0.279927
C	-3.8341847746	-2.1708391678	-2.1401006029	 0.150303
O	-3.9752073651	-3.2909951685	-2.589037488	-0.334171
H	-1.4385210662	 1.3343800848	 0.1408621158	 0.239223
H	 0.5656950687	 0.501631257	-0.4718750776	 0.1228
H	-0.075947989	-3.376305303	-0.1935221296	 0.123932
H	-1.7692307039	-3.4443606451	 1.6642822313	 0.12463
H	-2.0868704889	-1.6569185873	 1.4456525942	 0.156723
H	-2.4131262185	-3.7866180622	-0.8107197313	 0.141798
H	-2.9203819559	-0.8639126965	-0.817017656	 0.269416
H	-4.3849110544	-1.29133389	-2.5277349294	 0.071246
43.5579	104.5849	146.3166	210.8816	226.0222	247.5552	291.0713	363.3076	449.6855	609.9231	689.8433	707.0416	736.8033	762.4342	815.9001	826.6782	865.3448	972.0365	1026.8315	1032.7846	1045.1533	1072.4076	1097.6975	1137.7784	1152.4609	1175.6751	1231.2172	1275.636	1339.7717	1374.8591	1414.2452	1423.9045	1429.877	1473.2336	1558.1826	1705.5965	1796.4456	2939.4197	3091.8128	3144.1256	3178.9405	3195.4232	3252.2123	3525.2193	3541.1007
N=COC1CC1NC=O	[NH][CH]O[C@H]1C[C@H]1NC=O	
InChI=1S/C5H8N2O2/c6-2-9-5-1-4(5)7-3-8/h2-6H,1H2,(H,7,8)	InChI=1S/C5H8N2O2/c6-2-9-5-1-4(5)7-3-8/h2-6H,1H2,(H,7,8)/t4-,5+/m1/s1
