20
gdb 111889	2.72902	1.24207	0.95474	2.3356	81.16	-0.2301	0.0136	0.2437	1279.6735	0.171608	-403.12769	-403.118866	-403.117922	-403.161176	33.621	
C	-0.0639452473	 1.5192640023	 0.0598801741	-0.501352
C	-0.0241679401	 0.0262428969	-0.0067470878	 0.363937
C	 0.0376854097	-0.7513531025	-1.0939894788	-0.206459
C	 0.0619475278	-2.2353342968	-0.775696298	-0.040057
C	 1.2549547992	-2.9942773952	-1.3838745113	-0.077902
O	 1.2687692771	-2.9494771986	-2.8042508392	-0.423933
C	 0.0676635285	-2.2403118199	 0.7543256106	-0.068284
N	 1.2646535286	-1.6025783577	 1.3538798658	-0.333894
C	-0.0075201336	-0.8326514801	 1.2213596875	-0.152745
H	 0.8102513062	 1.9127287354	 0.5938039165	 0.133669
H	-0.0847957589	 1.9664979748	-0.9375352275	 0.123483
H	-0.9485809424	 1.8703134833	 0.6065261975	 0.123796
H	 0.0829846865	-0.377577758	-2.1121338156	 0.082867
H	-0.8533898037	-2.7166099409	-1.1483874249	 0.082341
H	 2.1849295362	-2.6035466667	-0.9528775325	 0.111526
H	 1.1834279291	-4.0553856389	-1.1204216545	 0.101526
H	 1.5610046556	-2.0708981713	-3.0642719289	 0.283406
H	-0.4079025431	-3.0524998783	 1.2936495717	 0.086795
H	 1.3450287909	-1.9320069259	 2.3150235481	 0.226586
H	-0.5287993563	-0.5331688718	 2.125371907	 0.084695
87.9295	141.3166	158.5844	191.5377	216.5316	307.6567	318.8834	352.4857	470.0085	483.8725	595.996	604.487	735.0128	810.1078	842.9765	858.7379	865.7514	882.0388	915.9243	979.5252	1012.507	1046.5647	1061.1392	1065.7191	1079.6502	1094.1091	1134.2319	1163.4861	1187.5428	1199.3938	1247.8287	1282.8576	1301.7085	1336.013	1384.3608	1387.203	1406.6749	1414.7383	1419.2987	1479.0774	1489.3508	1508.0259	1704.924	3005.5972	3017.4154	3026.8232	3064.0097	3077.1287	3110.878	3155.8134	3167.697	3178.1889	3470.4726	3827.2826
CC1=CC(CO)C2NC12	CC1=C[C@@H](CO)[C@H]2N[C@@H]12	
InChI=1S/C7H11NO/c1-4-2-5(3-9)7-6(4)8-7/h2,5-9H,3H2,1H3	InChI=1S/C7H11NO/c1-4-2-5(3-9)7-6(4)8-7/h2,5-9H,3H2,1H3/t5-,6-,7+/m0/s1
