15
gdb 11017	4.19387	1.78905	1.52051	3.8299	62.8	-0.2539	0.0233	0.2772	838.3449	0.119738	-399.798719	-399.791817	-399.790873	-399.829573	26.693	
O	-0.2425264731	 1.3893779702	 0.0926560761	-0.461169
C	-0.0954057857	 0.0092667834	 0.0480669894	 0.367685
C	-0.3615841162	-0.7720482374	-1.1993475317	-0.350373
C	-1.2932245068	-0.9035750744	 0.004735544	-0.170817
C	-0.9918179868	-2.0285053722	 0.9238519607	 0.432317
N	-1.7874878088	-2.9413734052	 1.2782614928	-0.549378
O	 0.3176729704	-1.9319271768	 1.3415652778	-0.251217
C	 0.8554049533	-0.6341173629	 1.0503004483	-0.15099
H	 0.4054396183	 1.7833727806	-0.5010662649	 0.291669
H	-0.7764176034	-0.2201471739	-2.0354746478	 0.126912
H	 0.2806063091	-1.6064240562	-1.4636205206	 0.129856
H	-2.308930908	-0.5438397602	-0.0740913907	 0.127336
H	-1.3356841912	-3.5656591614	 1.9488902191	 0.222311
H	 1.8764900176	-0.7684558241	 0.6779160985	 0.112266
H	 0.8826163912	-0.0284073296	 1.9641117892	 0.123592
137.53	189.8308	262.4219	318.3332	366.0949	414.6487	462.202	561.6368	653.6062	691.9717	751.4661	817.1792	885.529	910.7575	932.4398	956.4317	989.1854	1035.5899	1054.1588	1068.3246	1084.2344	1108.8278	1202.4742	1248.8812	1254.2572	1317.7911	1328.0841	1377.0662	1419.6327	1484.6697	1518.4825	1782.8063	3031.1586	3079.1354	3128.5901	3221.9648	3232.1913	3472.8755	3806.2292
OC12CC1C(=N)OC2	O[C@]12C[C@H]1[C]([NH])OC2	
InChI=1S/C5H7NO2/c6-4-3-1-5(3,7)2-8-4/h3,6-7H,1-2H2	InChI=1S/C5H7NO2/c6-4-3-1-5(3,7)2-8-4/h3,6-7H,1-2H2/t3-,5-/m0/s1
