16
gdb 74135	1.92997	1.75009	0.96509	5.7584	76.64	-0.231	-0.0328	0.1981	1165.4259	0.124565	-437.950857	-437.942663	-437.941719	-437.983815	31.092	
N	 0.0586489834	 1.3628835658	 0.1817258689	-0.55697
C	-0.037796594	 0.009907789	 0.0249666797	 0.382313
C	-1.2240267226	-0.6520275133	 0.0216214264	-0.293386
C	-1.3397391801	-2.0947975782	-0.0831722677	 0.372743
O	-2.4056404142	-2.6803825647	-0.1292556229	-0.354007
C	-0.0236786787	-2.8962814074	-0.1168844212	-0.409852
C	 1.1375697758	-2.1116041637	-0.6760165038	 0.371868
O	 1.8974936627	-2.5331005504	-1.5129109224	-0.300498
C	 1.285840974	-0.704891654	-0.1002211157	-0.403686
H	 0.9066668809	 1.8272140362	-0.0976284659	 0.26382
H	-0.7805583003	 1.9169289151	 0.1162424041	 0.266942
H	-2.1592044035	-0.1056617961	 0.0995318157	 0.087779
H	 0.2118872281	-3.1533054475	 0.9262921097	 0.14334
H	-0.1687418952	-3.825041512	-0.6697238163	 0.145812
H	 1.9821282322	-0.1455462624	-0.7334087633	 0.131698
H	 1.7479257214	-0.7842115866	 0.8946138247	 0.152084
91.3561	101.3893	167.8213	324.711	355.7683	386.406	398.0322	440.8398	468.2205	531.8934	558.3972	571.0163	600.6522	614.0417	826.8281	853.3424	877.0183	904.6331	928.5687	1004.4541	1081.3048	1116.818	1193.5447	1212.0799	1244.651	1263.3276	1291.4231	1335.5212	1418.4168	1434.3208	1448.4163	1642.7366	1674.9289	1758.3663	1829.2181	3013.9676	3020.2799	3081.3224	3135.8854	3175.2466	3592.6651	3707.9041
NC1=CC(=O)CC(=O)C1	NC1=CC(=O)CC(=O)C1	
InChI=1S/C6H7NO2/c7-4-1-5(8)3-6(9)2-4/h1H,2-3,7H2	InChI=1S/C6H7NO2/c7-4-1-5(8)3-6(9)2-4/h1H,2-3,7H2
