18
gdb 53131	3.70635	1.05867	0.9324	1.781	85.63	-0.213	0.0315	0.2445	1311.6582	0.146589	-364.688464	-364.679926	-364.678981	-364.723328	31.658	
C	 0.3434450533	 1.6644607608	-0.2706336355	-0.503724
C	 0.1593213818	 0.2293574465	-0.1148956308	 0.133612
C	-0.0209085913	-0.9532925162	 0.0376295331	 0.052381
C	-0.0924288855	-2.3872402287	 0.0959858844	-0.20234
C	-0.4781266047	-3.3071960252	 1.2047020428	-0.053222
C	-1.6884282704	-2.9463978	 2.0811758294	-0.081144
C	-2.3366987663	-1.6455582003	 1.6948747649	-0.306107
C	-2.4739570543	-2.8401451449	 0.7939891978	 0.003676
N	-1.2916213319	-3.2718630226	-0.0584077481	-0.172215
H	 1.3385699039	 1.9744372699	 0.0673248851	 0.151268
H	 0.240521248	 1.967802378	-1.3184412231	 0.151852
H	-0.3942623192	 2.2273076457	 0.3123405622	 0.149499
H	 0.6946131329	-2.8344182407	-0.5130454775	 0.122104
H	 0.1417810123	-4.1708685998	 1.431271913	 0.098563
H	-1.9224631153	-3.4852583553	 2.9890424758	 0.095499
H	-3.2503899922	-1.4469084802	 2.2493185827	 0.112113
H	-1.7702810952	-0.7633163353	 1.4384333878	 0.143681
H	-3.4300171858	-3.260437482	 0.510866066	 0.104503
16.5867	91.5989	101.3059	227.1033	272.9526	368.2119	375.7969	427.907	571.8834	578.631	671.0596	703.8146	737.0357	762.894	838.8136	885.0707	898.4057	943.8844	1003.1592	1014.6692	1040.3346	1051.312	1053.3962	1056.67	1067.8029	1078.8969	1093.0553	1143.2795	1194.7988	1265.2834	1276.8858	1332.0174	1355.4103	1412.4755	1420.5581	1475.899	1477.5972	1484.829	2355.929	3025.4377	3085.9741	3087.3653	3093.3402	3135.7939	3137.8675	3194.0316	3207.1804	3250.7909
CC#CC1C2C3CC3N12	CC#C[C@H]1[C@H]2[C@H]3C[C@H]3N12	
InChI=1S/C8H9N/c1-2-3-6-8-5-4-7(5)9(6)8/h5-8H,4H2,1H3	InChI=1S/C8H9N/c1-2-3-6-8-5-4-7(5)9(6)8/h5-8H,4H2,1H3/t5-,6-,7+,8+,9?/m0/s1
