16
gdb 105866	2.23929	1.51836	1.13686	1.0244	66.21	-0.2546	0.0086	0.2633	1096.1473	0.123102	-474.973017	-474.964462	-474.963518	-475.006663	31.636	
O	 0.6832769664	 0.363999047	 0.9156652225	-0.408602
C	-0.0397410114	 0.305879253	-0.303241323	-0.194
C	-1.3930357007	-0.3487991191	-0.1617960695	 0.088266
C	-2.0890969465	-0.6644362612	 1.1834954162	 0.077868
O	-3.3415611308	-0.2219758858	 1.5668004297	-0.424089
C	-1.8670240342	-1.7585955237	 0.2126845017	-0.025031
O	-2.9231132204	-1.6924558784	-0.790504211	-0.299589
C	-2.422334577	-0.4580729147	-1.2331183089	 0.393561
N	-2.7363439816	 0.2298584999	-2.2302985021	-0.553868
H	 0.3061282656	 1.0710627741	 1.4488319791	 0.292625
H	-0.1822241252	 1.3025037973	-0.7436365119	 0.125978
H	 0.5848288526	-0.2647050254	-0.9990069641	 0.127656
H	-1.3782132523	-0.6296036549	 2.0038965401	 0.132195
H	-3.9793192495	-0.5820844296	 0.9367467704	 0.301615
H	-1.3525825356	-2.704484411	 0.3232444549	 0.130764
H	-3.4907392594	-0.2018909875	-2.766009634	 0.234652
50.2668	131.5014	167.3473	212.2849	250.857	333.2705	341.97	393.7674	422.7286	533.6705	635.0768	653.9315	716.8319	743.5491	815.9151	863.9549	903.1955	929.4875	976.5696	985.3715	1007.4306	1040.7808	1080.3739	1121.064	1171.7428	1219.1656	1243.1488	1267.4827	1298.8173	1380.3402	1399.8519	1413.6757	1463.7351	1501.0902	1829.4868	3012.4403	3070.0821	3170.8871	3203.9398	3484.7122	3773.3585	3820.4922
OCC12C(O)C1OC2=N	OC[C@]12[C@@H](O)[C@H]1O[C]2[NH]	
InChI=1S/C5H7NO3/c6-4-5(1-7)2(8)3(5)9-4/h2-3,6-8H,1H2	InChI=1S/C5H7NO3/c6-4-5(1-7)2(8)3(5)9-4/h2-3,6-8H,1H2/t2-,3+,5-/m0/s1
