18
gdb 90674	4.40215	1.0509	1.03462	2.6417	71.82	-0.2343	0.0568	0.2911	1197.5359	0.147293	-438.997298	-438.98926	-438.988315	-439.030031	30.473	
O	-0.0256268815	 1.3194533686	-0.1499144661	-0.433136
C	-0.0133775301	-0.0836480871	-0.0189758571	 0.116078
C	 0.1728236496	-0.6053637129	 1.4352101377	-0.207697
N	-1.2629998671	-1.0617518714	 1.5287851959	-0.18223
C	-1.4371571244	-0.6159552584	 0.0760872604	-0.136357
C	-1.4438903871	-2.0341537484	 0.4534485851	 0.299604
C	-0.5688488453	-3.2152592528	 0.0307905686	-0.149276
O	-1.7323285852	-4.065101435	-0.042072136	-0.277233
C	-2.6098851233	-3.0141996259	 0.4244382081	-0.158145
H	 0.8841722233	 1.6331711265	-0.1284112253	 0.287496
H	 0.6172353404	-0.5468316809	-0.7926952681	 0.071466
H	 0.9072453725	-1.3985804847	 1.6123299221	 0.101008
H	 0.340840013	 0.2176312372	 2.1324878092	 0.119663
H	-2.3156927225	-0.0787228917	-0.2671641218	 0.108591
H	-0.0578886788	-3.1296687665	-0.9366953348	 0.107582
H	 0.1468009964	-3.5618004878	 0.7884443326	 0.107492
H	-3.0392940684	-3.2329777311	 1.4093776781	 0.116712
H	-3.4132868313	-2.8018468977	-0.2908742484	 0.108383
90.802	123.896	198.8194	225.1611	267.9688	316.7724	405.9164	436.6593	483.8539	582.9567	742.8567	805.934	844.0273	864.1779	894.815	934.9404	981.3227	999.6963	1007.9399	1027.163	1030.4172	1049.8817	1112.9031	1135.2085	1140.1777	1151.0051	1173.4596	1204.3296	1217.5256	1252.0226	1287.8497	1307.7532	1317.4757	1356.8503	1427.0594	1471.9208	1483.6862	1503.9399	1528.4115	2977.7653	3001.5766	3021.9787	3043.4917	3047.1269	3068.3148	3120.3554	3168.463	3817.5732
OC1CN2C1C21COC1	O[C@H]1CN2[C@@H]1C12COC1	
InChI=1S/C6H9NO2/c8-4-1-7-5(4)6(7)2-9-3-6/h4-5,8H,1-3H2	InChI=1S/C6H9NO2/c8-4-1-7-5(4)6(7)2-9-3-6/h4-5,8H,1-3H2/t4-,5-,7?/m0/s1
