18
gdb 102148	2.08112	1.30243	0.89807	2.3901	73.52	-0.255	0.0096	0.2646	1307.52	0.147284	-435.315303	-435.305318	-435.304374	-435.351478	35.049	
C	-0.0550293549	 1.5789305452	-0.0134889233	-0.378661
C	 0.0777565661	 0.0552114941	-0.0438553583	-0.159553
N	 0.7225631917	-0.4951586472	 1.1498623957	-0.084223
C	-0.0761316022	-0.7145458632	 2.3359490123	-0.331133
C	-0.5004428526	-2.1197655236	 2.507754162	 0.270906
N	-0.7870648801	-3.2315625093	 2.6399590619	-0.303602
C	 2.0961386675	-0.666323382	 1.139987621	 0.444778
N	 2.6193047634	-1.2889444782	 2.2700871221	-0.577649
O	 2.7941303791	-0.2603703202	 0.2296667428	-0.39513
H	 0.9349777359	 2.0380284739	 0.0407438489	 0.149201
H	-0.5528584252	 1.9326922116	-0.9217840939	 0.122752
H	-0.645610895	 1.9212475151	 0.8437135815	 0.109977
H	-0.9032876851	-0.4222167307	-0.1469560909	 0.109156
H	 0.6856872542	-0.2456013275	-0.8980180423	 0.149359
H	 0.4791943348	-0.4172759208	 3.231898943	 0.1775
H	-0.9702372631	-0.0854063487	 2.2929816787	 0.164487
H	 2.1056716381	-2.06824698	 2.6586721555	 0.266344
H	 3.6013830173	-1.4890574487	 2.1459385932	 0.265491
39.2865	63.9447	81.9312	110.1639	214.7162	232.5831	295.7253	363.8711	381.324	400.7066	455.4355	494.9409	531.82	614.061	654.8454	769.029	782.947	798.5189	902.0326	926.017	988.8651	1073.5399	1099.9861	1110.32	1188.0474	1249.5885	1309.8818	1344.9359	1372.3265	1398.5012	1413.3299	1443.1587	1461.2942	1490.9624	1494.8637	1503.9208	1634.4982	1791.7937	2353.681	3035.9045	3042.9199	3053.2868	3095.5794	3098.1988	3126.4842	3136.4956	3557.0131	3666.8427
CCN(CC#N)C(N)=O	CCN(CC#N)C(=O)N	
InChI=1S/C5H9N3O/c1-2-8(4-3-6)5(7)9/h2,4H2,1H3,(H2,7,9)	InChI=1S/C5H9N3O/c1-2-8(4-3-6)5(7)9/h2,4H2,1H3,(H2,7,9)
