13
gdb 5041	3.59145	2.44383	1.46753	4.3772	61.44	-0.2666	-0.0641	0.2025	788.3709	0.098047	-394.84548	-394.838905	-394.837961	-394.876397	23.626	
C	-0.0172540069	 1.4525690348	 0.0005403987	-0.335534
N	 0.0016221101	-0.0056988231	-0.030490254	-0.104625
C	-0.1009308193	-0.7055193145	-1.173433727	 0.128857
N	-0.08939148	-2.0063140635	-1.2416669683	-0.294286
C	 0.0403532177	-2.6191226664	-0.02609099	 0.082459
N	 0.148086062	-2.0663691435	 1.146482634	-0.305736
C	 0.1355147713	-0.6877236417	 1.2263303865	 0.454387
O	 0.2254617421	-0.0341402934	 2.2384710511	-0.374487
H	 0.9077256719	 1.8237534515	 0.4462949396	 0.168359
H	-0.1226056826	 1.8308629366	-1.0177472311	 0.135166
H	-0.8490784889	 1.7975031087	 0.617983691	 0.16832
H	-0.2005245441	-0.1214639657	-2.0867739739	 0.142414
H	 0.0519418665	-3.7073788398	-0.0608155467	 0.134707
117.0365	141.9155	236.8278	327.3234	379.8414	510.4638	557.3736	569.0269	642.4996	756.9045	823.3764	921.2124	977.848	1021.4004	1040.2307	1094.1938	1156.0868	1189.1037	1211.6436	1377.1473	1426.1051	1435.7132	1460.7888	1466.9673	1512.4359	1541.4779	1666.4917	1818.2483	3061.3433	3138.5978	3149.0801	3152.9342	3156.0495
CN1C=NC=NC1=O	Cn1cncnc1=O	
InChI=1S/C4H5N3O/c1-7-3-5-2-6-4(7)8/h2-3H,1H3	InChI=1S/C4H5N3O/c1-7-3-5-2-6-4(7)8/h2-3H,1H3
