16
gdb 54871	3.24005	1.47278	1.17317	2.161	68.79	-0.2394	-0.0136	0.2258	1029.4786	0.126166	-434.07983	-434.072105	-434.07116	-434.112857	29.052	
N	 0.4718579719	 0.3272419344	-0.8399614155	-0.523786
C	-0.2198374402	 0.4806473548	 0.3154009832	 0.393777
O	 0.0612368081	 1.2752893017	 1.1912831286	-0.369542
C	-1.4505899626	-0.4320645734	 0.4373077164	-0.099681
N	-1.4196991403	-1.5796078716	-0.4935165866	-0.227979
C	-1.6274195809	-2.6275816756	 0.1986529494	 0.033406
N	-1.8737232694	-2.5026791881	 1.5954503349	-0.131706
C	-0.6354275389	-2.0346762003	 2.2924316319	-0.23883
C	-1.6364835246	-1.0536839832	 1.8225282041	-0.014396
H	 1.2802101602	 0.9030520651	-1.0064600807	 0.260691
H	 0.1923619387	-0.3800748998	-1.5002769217	 0.275237
H	-2.3160140399	 0.1972338076	 0.1912037893	 0.125199
H	-1.6407138326	-3.62536052	-0.2308885095	 0.133903
H	-0.5892561053	-2.2951573349	 3.3442950503	 0.13464
H	 0.3014155257	-2.1228294716	 1.7491532139	 0.13435
H	-2.2866600699	-0.5680893351	 2.5392785021	 0.114717
36.1892	120.9379	190.1844	304.0074	339.4217	375.022	459.4035	499.656	565.8654	634.8828	691.7769	725.2642	796.0315	814.7159	871.032	903.4518	966.329	989.4231	1008.8264	1040.2163	1051.9659	1090.0836	1107.0735	1118.2769	1164.9675	1249.2333	1280.8527	1299.4713	1319.3549	1362.3354	1380.5643	1498.6453	1593.4634	1672.7101	1802.0663	3025.6156	3120.5763	3186.128	3191.5643	3216.5204	3586.2166	3730.1712
NC(=O)C1N=CN2CC12	NC(=O)[C@H]1N=CN2C[C@@H]12	
InChI=1S/C5H7N3O/c6-5(9)4-3-1-8(3)2-7-4/h2-4H,1H2,(H2,6,9)	InChI=1S/C5H7N3O/c6-5(9)4-3-1-8(3)2-7-4/h2-4H,1H2,(H2,6,9)/t3-,4-,8?/m0/s1
