21
gdb 73818	2.64179	1.44545	1.0228	1.9618	86.88	-0.2222	0.022	0.2442	1225.5551	0.181497	-387.102903	-387.093558	-387.092613	-387.137075	34.983	
C	 0.0645392189	 1.5190377281	-0.0912591432	-0.491921
C	 0.0007095943	 0.0247981988	-0.0567137981	 0.205299
C	-1.0782674051	-0.7553224143	 0.1051603217	 0.17128
C	-2.5134592459	-0.3612500766	 0.2692878483	-0.518804
C	-0.6847131364	-2.1970396199	 0.0996837652	 0.387329
C	-1.3776605704	-3.2382437593	 0.87803699	-0.251977
O	-1.5693410397	-3.140194326	-0.5346236463	-0.282463
C	 0.7980478453	-2.2528385754	-0.2681508757	-0.323165
C	 1.2762933793	-0.7852795709	-0.179008955	-0.309412
H	 0.6892402239	 1.902919053	 0.7260865455	 0.126099
H	 0.5277577284	 1.8688140032	-1.0229461301	 0.126077
H	-0.9196372059	 1.9853430601	-0.0057127685	 0.123246
H	-2.6928708918	 0.6766616777	-0.0197255708	 0.122744
H	-3.1495494259	-1.0072258362	-0.3449847769	 0.144254
H	-2.8481798904	-0.4764751442	 1.3085008335	 0.124057
H	-0.8176198099	-4.1105180875	 1.2161344965	 0.107994
H	-2.2463365264	-2.9881088657	 1.4866577127	 0.105833
H	 1.3663899408	-2.9263388481	 0.3779951039	 0.103241
H	 0.8824230929	-2.6330882573	-1.2904474524	 0.122738
H	 1.8688728411	-0.4805391659	-1.0507591664	 0.102767
H	 1.921783713	-0.6195011337	 0.6946978562	 0.104785
56.3862	133.8184	141.4411	161.8267	237.3846	259.0207	292.5306	344.0613	410.5278	451.115	479.9521	586.6195	625.6695	651.2039	774.14	831.4548	871.8023	893.2615	951.1843	969.9806	994.1072	1007.6443	1065.7997	1086.2621	1111.015	1117.9761	1130.455	1164.5145	1178.943	1206.2013	1244.9928	1287.8047	1324.8751	1344.4135	1404.4136	1410.9781	1417.9556	1476.409	1480.0789	1481.4561	1488.5905	1497.1099	1501.4288	1528.0641	1737.0803	3008.9036	3016.4968	3022.1734	3037.9588	3058.2635	3062.3573	3070.5162	3080.2251	3104.5071	3116.8328	3123.4733	3154.4889
CC1=C(C)C2(CO2)CC1	CC1=C(C)[C@]2(CO2)CC1	
InChI=1S/C8H12O/c1-6-3-4-8(5-9-8)7(6)2/h3-5H2,1-2H3	InChI=1S/C8H12O/c1-6-3-4-8(5-9-8)7(6)2/h3-5H2,1-2H3/t8-/m1/s1
