19
gdb 72084	2.87205	1.82324	1.67692	1.2195	78.84	-0.2207	0.0163	0.2371	923.3635	0.161852	-385.903264	-385.896381	-385.895437	-385.933941	29.255	
C	-0.0033238784	 1.4769079093	-0.0421375586	-0.483671
C	 0.0600001907	-0.0180089558	 0.0481262814	 0.45407
O	 0.3239126547	-0.637260845	-1.1824650187	-0.293827
C	 0.5372796142	-2.0400846779	-0.8735771801	 0.008796
C	 1.3675239036	-1.983431416	 0.4376019699	-0.234372
C	 0.669525338	-0.8388256127	 1.1414428693	-0.157784
C	-0.868094644	-0.8355667236	 0.9710158453	-0.170111
C	-1.5027653877	-2.0185003153	 0.3629624107	-0.041236
C	-0.8041905519	-2.657215509	-0.5831064133	-0.097819
H	 0.9454718677	 1.88312888	-0.4079644046	 0.12645
H	-0.7950134513	 1.7892382127	-0.7304575832	 0.131439
H	-0.2096276528	 1.911431708	 0.9396270866	 0.118263
H	 1.0578462377	-2.4829005845	-1.7222457667	 0.077827
H	 1.3397275708	-2.9348687258	 0.9745053051	 0.10632
H	 2.4091123435	-1.7174955923	 0.2302040905	 0.103953
H	 1.0885101254	-0.3998272901	 2.0381402119	 0.088858
H	-1.4244159958	-0.2744395671	 1.7130206996	 0.080768
H	-2.5062539212	-2.3053887874	 0.6598501616	 0.092874
H	-1.164551763	-3.5199371575	-1.1299876267	 0.0892
200.5652	215.6833	302.5359	347.6938	406.661	444.2919	528.827	608.4046	636.8471	688.6661	695.1845	754.0055	789.3523	853.659	856.2773	886.0544	908.0243	949.1084	966.1641	985.2598	992.814	1012.2342	1058.0526	1073.2129	1085.1325	1113.1812	1136.0193	1174.5126	1191.14	1227.2662	1283.14	1307.1268	1335.0119	1358.3817	1399.3251	1410.2074	1445.755	1477.9209	1483.4739	1502.7229	1671.1416	3037.1549	3051.7613	3102.0712	3105.9996	3118.7217	3120.1535	3168.6087	3180.7564	3192.1242	3206.4571
CC12OC3CC1C2C=C3	C[C@@]12O[C@H]3C[C@@H]1[C@@H]2C=C3	
InChI=1S/C8H10O/c1-8-6-3-2-5(9-8)4-7(6)8/h2-3,5-7H,4H2,1H3	InChI=1S/C8H10O/c1-8-6-3-2-5(9-8)4-7(6)8/h2-3,5-7H,4H2,1H3/t5-,6+,7-,8+/m1/s1
