15
gdb 61354	3.65544	0.81869	0.76231	3.9027	75.31	-0.2639	-0.0641	0.1998	1475.2707	0.107648	-420.558271	-420.548327	-420.547382	-420.59423	34.934	
O	 0.3261033814	 1.5695897143	-0.0628516054	-0.416813
C	 0.0791058778	 0.1702267352	 0.0178384222	-0.050465
C	 0.5719912125	-0.5504563997	-1.2507917088	-0.324035
C	-0.2674735508	-0.1826553023	-2.4696069709	 0.252473
O	-1.426467766	 0.1576160191	-2.3884168357	-0.285862
C	 0.4040104276	-0.3087331742	-3.7510005109	 0.247285
C	 0.9803232503	-0.4240730188	-4.801616623	-0.399211
C	 0.6676413773	-0.4214592117	 1.2207912654	 0.2789
C	 1.197397624	-0.8869483407	 2.1944472352	-0.42908
H	 1.2548805776	 1.7142849929	 0.1499780722	 0.286334
H	-1.0112419819	 0.0765968235	 0.0490323045	 0.146251
H	 1.6290465774	-0.3321380836	-1.4328478559	 0.123551
H	 0.4958653075	-1.6386039009	-1.1229300749	 0.151222
H	 1.471962116	-0.5169306536	-5.7397134032	 0.217247
H	 1.6414246792	-1.2982327296	 3.0674264491	 0.202203
32.8574	64.9067	102.2244	178.9721	185.286	237.6676	254.431	307.2927	369.7323	440.2393	532.1835	561.3339	603.0452	624.0876	637.3296	645.5074	678.6912	711.1923	817.3534	887.0696	944.8147	1048.591	1074.673	1103.226	1186.2381	1273.1782	1297.0031	1374.2172	1420.8354	1443.538	1771.8238	2211.2832	2233.8112	3034.5563	3069.7897	3091.7061	3494.0778	3502.255	3804.9728
OC(CC(=O)C#C)C#C	O[C@@H](CC(=O)C#C)C#C	
InChI=1S/C7H6O2/c1-3-6(8)5-7(9)4-2/h1-2,6,8H,5H2	InChI=1S/C7H6O2/c1-3-6(8)5-7(9)4-2/h1-2,6,8H,5H2/t6-/m1/s1
