16
gdb 13972	5.94854	1.06995	0.9915	1.8452	76.01	-0.2225	0.0382	0.2608	1201.5868	0.129238	-346.535539	-346.527468	-346.526524	-346.569963	28.641	
C	-0.0087745918	 1.4991777511	-0.0098198338	-0.508686
C	-0.0089093075	 0.0440708162	-0.0123132638	 0.235689
C	-0.0129686901	-1.1620475318	-0.0155180312	-0.186003
C	 0.0080523418	-2.5816819783	-0.0028803613	 0.115987
C	-0.3805533812	-3.4627415982	-1.189576369	-0.336046
C	-1.0983238782	-3.636083763	 0.1036467417	 0.06011
O	-0.3473840229	-4.4466876782	 1.0010237103	-0.282217
C	 0.7230539711	-3.4660945897	 1.0263057822	-0.128848
H	 0.8043353582	 1.8909064773	 0.611608699	 0.150144
H	 0.1257558548	 1.9018229784	-1.0200715957	 0.148233
H	-0.9484388846	 1.9009784643	 0.3861341593	 0.148057
H	-0.922869874	-2.932045082	-1.9648681894	 0.127168
H	 0.294846555	-4.2413274215	-1.5347278798	 0.11703
H	-2.1670308721	-3.5486758264	 0.2611903398	 0.115111
H	 1.6913156755	-3.8924752062	 0.7396303965	 0.107274
H	 0.792236936	-2.9974229019	 2.0130269751	 0.116997
11.9976	99.9876	110.199	264.1531	302.4756	336.6692	423.0559	467.2826	518.118	528.3368	750.0591	823.8093	850.1624	928.4027	977.6737	985.6762	995.8647	1043.2352	1051.3116	1053.8886	1081.5747	1089.3831	1092.89	1156.4989	1210.4242	1289.3736	1327.6026	1405.1174	1421.0272	1475.623	1475.9235	1479.0566	1515.0361	2362.2237	3023.3985	3029.2403	3082.1566	3085.3592	3087.3126	3114.766	3185.2691	3217.232
CC#CC12CC1OC2	CC#C[C@]12C[C@H]1OC2	
InChI=1S/C7H8O/c1-2-3-7-4-6(7)8-5-7/h6H,4-5H2,1H3	InChI=1S/C7H8O/c1-2-3-7-4-6(7)8-5-7/h6H,4-5H2,1H3/t6-,7-/m1/s1
