18
gdb 102140	2.66384	1.05104	0.8352	3.352	73.23	-0.2626	-0.0363	0.2263	1373.0563	0.144977	-439.117143	-439.106939	-439.105994	-439.15321	35.427	
C	-0.0183511868	 1.4566236536	-0.1740397357	-0.482667
C	 0.0381846748	-0.0510687935	-0.0396216349	 0.380223
O	 1.0843788909	-0.6578400206	 0.0051765443	-0.304001
C	-1.3067489392	-0.7825679425	 0.0218104736	-0.121559
C	-1.8112593107	-1.0388971715	-1.4299107087	-0.074041
O	-3.204822524	-1.2138813881	-1.5097414134	-0.418195
C	-1.1340973351	-2.0844656982	 0.8348983191	-0.352449
C	-2.286100357	-2.9769348848	 0.7519376291	 0.260819
N	-3.2046447084	-3.6728984515	 0.6512283855	-0.322001
H	 0.9632734174	 1.8455089009	-0.4465100064	 0.150821
H	-0.769586126	 1.7702730269	-0.9052448069	 0.146537
H	-0.3184290804	 1.8860445388	 0.7899133531	 0.152171
H	-2.0528226998	-0.1336360164	 0.4921775304	 0.109602
H	-1.5850305607	-0.1657531576	-2.0504296042	 0.117694
H	-1.2544420279	-1.8879894765	-1.8549045197	 0.113004
H	-3.4368245053	-2.0680534569	-1.1263741763	 0.304563
H	-0.2451014704	-2.606989415	 0.4670838102	 0.180647
H	-0.9453611515	-1.8543309469	 1.8887668108	 0.158833
51.6241	64.6065	118.5614	130.9102	151.2036	200.3006	246.603	301.1906	361.1024	391.0669	424.9848	440.1549	563.4567	584.0822	600.1161	838.6711	850.0569	913.2499	937.913	985.5051	1001.3284	1067.9322	1086.3294	1101.69	1175.1904	1186.4813	1260.852	1273.4546	1312.7591	1374.1006	1387.985	1395.8009	1434.5766	1462.0502	1463.1566	1473.7155	1499.8024	1804.4123	2350.4341	2992.6699	3036.9448	3056.3444	3062.3753	3073.3759	3099.2429	3101.3168	3156.3234	3791.5809
CC(=O)C(CO)CC#N	CC(=O)[C@@H](CO)CC#N	
InChI=1S/C6H9NO2/c1-5(9)6(4-8)2-3-7/h6,8H,2,4H2,1H3	InChI=1S/C6H9NO2/c1-5(9)6(4-8)2-3-7/h6,8H,2,4H2,1H3/t6-/m1/s1
