15
gdb 84591	2.39672	2.03952	1.30146	3.8098	64.69	-0.2788	-0.0234	0.2554	938.6576	0.113909	-457.791342	-457.784219	-457.783275	-457.823031	27.371	
O	 0.3385086449	 1.1955796536	-0.6105424603	-0.426537
C	 0.1032536338	-0.0858073994	-0.0686786976	 0.088745
C	 0.5482745491	-0.2613652619	 1.3746295934	-0.099036
C	-0.3780909176	-0.8184947072	 2.1558244681	-0.085276
C	-1.6499917896	-1.0740834825	 1.4024285179	 0.065122
O	-2.6554295021	 0.0001786639	 1.6495295745	-0.251799
C	-2.3512886553	 0.590821752	 0.4566737262	 0.445835
O	-2.7248594432	 1.6456158777	 0.0444803259	-0.332186
C	-1.3880050735	-0.5073814876	-0.0035562537	-0.274591
H	-0.3356444695	 1.8028113684	-0.2804022618	 0.297016
H	 0.6599989556	-0.7725626806	-0.7175617254	 0.105924
H	 1.5358156963	 0.057044372	 1.6897300847	 0.119973
H	-0.2766073525	-1.0348319371	 3.2126118733	 0.118188
H	-2.1192718777	-2.049445837	 1.5274510447	 0.10799
H	-1.7443838887	-1.0697779444	-0.86517164	 0.120632
103.7211	146.1019	236.96	324.4789	371.2041	400.766	514.0347	549.9721	636.9249	694.0565	751.3724	820.406	830.5241	861.1477	889.5375	912.7138	971.1192	997.3385	1016.7464	1069.1985	1091.4804	1127.5875	1138.7743	1199.7259	1226.2553	1281.1006	1300.9338	1316.183	1339.2688	1370.8351	1440.863	1671.1655	1910.0376	3036.2247	3123.9743	3136.2172	3194.7425	3218.4909	3778.0114
OC1C=CC2OC(=O)C12	O[C@H]1C=C[C@H]2OC(=O)[C@@H]12	
InChI=1S/C6H6O3/c7-3-1-2-4-5(3)6(8)9-4/h1-5,7H	InChI=1S/C6H6O3/c7-3-1-2-4-5(3)6(8)9-4/h1-5,7H/t3-,4+,5-/m0/s1
