19
gdb 83794	2.61704	1.74538	1.48276	2.3653	74.58	-0.247	0.078	0.3249	979.5655	0.160497	-422.991425	-422.983827	-422.982883	-423.023205	30.155	
C	-0.2292099355	 1.5380011093	-0.1654959143	-0.409658
C	-0.006549422	 0.0526090352	 0.0128216522	-0.049651
C	 1.3436335401	-0.5873756026	-0.1859856939	 0.060836
O	 2.426789077	 0.2753636904	-0.3836747137	-0.247049
C	 3.4283452973	 0.2215704338	 0.6190488032	-0.112353
C	 2.8777214169	 0.5058012768	 2.0027512354	 0.033696
O	 1.8696571848	 1.5132481204	 2.0731504294	-0.24523
C	 1.4763717318	 0.1469066171	 2.2663458267	 0.03446
C	 0.7194961656	-0.5798603425	 1.191851249	-0.10098
H	 0.6676700493	 2.1044938919	 0.0767351079	 0.15453
H	-0.5093508826	 1.7495700767	-1.2032160624	 0.110296
H	-1.0420757404	 1.8896669519	 0.4784318646	 0.111361
H	-0.8317099254	-0.5623746254	-0.3397615517	 0.085718
H	 1.4227428082	-1.522814993	-0.7388637408	 0.084532
H	 3.9354915729	-0.7580509721	 0.6356353369	 0.094085
H	 4.1669244271	 0.978002022	 0.3354494991	 0.121122
H	 3.6082683051	 0.5138070955	 2.8118581994	 0.092834
H	 1.1711977251	-0.0769258932	 3.287571595	 0.094424
H	 0.3072681446	-1.5190625121	 1.5502517779	 0.087027
144.3985	150.8539	205.434	278.3413	310.2264	348.8918	461.3918	494.1555	577.4724	666.7871	731.3289	751.8087	786.4343	820.8392	861.6825	891.452	939.6783	975.8649	979.9792	1029.8819	1054.0583	1068.8098	1104.2985	1117.4025	1123.703	1152.0225	1154.4971	1187.2385	1250.1952	1269.6357	1297.9223	1346.0209	1366.9202	1384.6394	1399.2426	1418.7956	1440.4042	1467.5551	1488.6608	1497.5398	1499.7125	2968.7091	3038.7211	3078.7069	3092.0034	3100.0339	3108.0902	3118.9998	3126.1143	3147.3736	3174.9947
CC1C2OCC3OC3C12	C[C@H]1[C@H]2OC[C@H]3O[C@H]3[C@@H]12	
InChI=1S/C7H10O2/c1-3-5-6(3)8-2-4-7(5)9-4/h3-7H,2H2,1H3	InChI=1S/C7H10O2/c1-3-5-6(3)8-2-4-7(5)9-4/h3-7H,2H2,1H3/t3-,4-,5+,6-,7-/m1/s1
