25
gdb 95301	2.45503	1.59846	1.38905	0.0537	90.14	-0.2823	0.0719	0.3542	1114.8967	0.233895	-352.396335	-352.388323	-352.387379	-352.428182	33.823	
C	-0.2768485349	 1.5523813878	 0.0775173012	-0.407295
C	 0.0155714212	 0.0485151632	-0.0319492259	 0.042361
C	 0.6338788945	-0.3310330531	-1.4003257184	-0.206839
C	 2.1610636974	-0.1257519848	-1.464045346	-0.203071
C	 2.8657105544	-0.661133531	-0.2019042662	 0.022225
C	 2.4545089096	-2.120129816	 0.1226955427	-0.211235
C	 1.1701659287	-1.9943518631	 1.0021609668	-0.225419
C	 0.9042546032	-0.471053597	 1.1255016289	 0.017977
C	 2.330543466	 0.1033964373	 1.0220610404	-0.217357
H	 0.6151192857	 2.1630337754	-0.0940061139	 0.115722
H	-1.0247928286	 1.8539786173	-0.6634935375	 0.108103
H	-0.6669466696	 1.8094133509	 1.0686140597	 0.107554
H	-0.9498959149	-0.4698779702	 0.0474179232	 0.061812
H	 0.4155885657	-1.3857601011	-1.6033512806	 0.095179
H	 0.1433101851	 0.2331053365	-2.2020731605	 0.085324
H	 2.5546943778	-0.6217234108	-2.3596328602	 0.0866
H	 2.3990358154	 0.9401189042	-1.5736328726	 0.089051
H	 3.9494034114	-0.5627148613	-0.3192860026	 0.05247
H	 2.2864380542	-2.7108895659	-0.7830602651	 0.092105
H	 3.2527005405	-2.6198049918	 0.679960111	 0.09127
H	 0.3144090314	-2.5258504276	 0.5741362645	 0.091333
H	 1.3435386367	-2.4249919745	 1.9932511597	 0.091217
H	 0.4235495399	-0.2248314061	 2.0782625952	 0.050907
H	 2.9065870613	-0.1466985985	 1.9212475064	 0.082908
H	 2.3672056582	 1.1899651501	 0.9025731999	 0.087098
145.5786	191.3102	226.9797	261.9209	346.0138	354.9227	401.2986	422.9112	479.2093	577.4122	722.7351	734.2239	756.9274	786.07	808.4153	873.053	887.6334	891.0524	928.5866	956.3003	974.9233	986.4365	993.7531	1024.3034	1039.4252	1055.3218	1075.4088	1126.7368	1127.6589	1144.5619	1188.089	1199.0357	1220.9726	1245.5329	1268.5495	1281.6447	1312.1041	1326.5743	1336.1993	1340.2599	1349.9862	1367.0428	1379.0094	1386.3119	1396.464	1412.8894	1482.849	1490.5841	1491.3755	1495.3365	1501.9493	1509.7886	1520.9281	2999.5693	3015.3875	3027.3958	3029.0064	3032.4197	3037.567	3045.2445	3048.8258	3051.3275	3062.338	3066.4897	3072.2602	3085.7586	3093.4697	3094.8539	3101.6003
CC1CCC2CCC1C2	C[C@H]1CC[C@@H]2CC[C@H]1C2	
InChI=1S/C9H16/c1-7-2-3-8-4-5-9(7)6-8/h7-9H,2-6H2,1H3	InChI=1S/C9H16/c1-7-2-3-8-4-5-9(7)6-8/h7-9H,2-6H2,1H3/t7-,8+,9-/m0/s1
