17
gdb 50678	1.94233	1.74056	1.0413	2.5828	74.27	-0.2474	-0.0232	0.2242	1140.2374	0.134671	-421.796506	-421.78773	-421.786786	-421.831241	31.499	
O	-0.2314275366	 0.0628353344	-0.1229715767	-0.253258
C	-0.0770186195	 1.2559166201	-0.1053991014	 0.167524
C	 1.2679546018	 1.9350128194	 0.0754979945	-0.112356
C	 1.5370129162	 2.8738088354	-1.1213981161	-0.113378
O	 0.8751117714	 4.0793951859	-0.7932358279	-0.234976
C	 1.1502614513	 4.3403151492	 0.5710451405	-0.090081
C	 1.2859631677	 2.9461886952	 1.2754311793	-0.209125
C	 0.2678730224	 2.6976924464	 2.2868278634	 0.317586
C	-0.5742400748	 2.5007445002	 3.1217554646	-0.45772
H	-0.926001724	 1.9556054896	-0.2651194617	 0.095351
H	 2.0256900316	 1.1578795789	 0.1884010273	 0.102305
H	 2.6211837229	 3.0272886915	-1.2464524495	 0.102153
H	 1.1277385516	 2.5107834682	-2.0682807988	 0.128641
H	 2.0914184935	 4.8993818053	 0.6777797155	 0.100217
H	 0.3337466467	 4.9403693416	 0.9755847436	 0.130346
H	 2.2686624763	 2.8833315869	 1.7536017856	 0.121478
H	-1.3178881483	 2.317943812	 3.8577167677	 0.205292
29.6848	73.5651	145.2569	176.5752	227.0791	308.8708	336.5232	422.9982	482.5585	529.8355	632.5522	645.1262	696.5359	732.4006	818.4549	910.5931	946.8168	955.3132	965.3227	1017.9555	1042.6047	1093.4573	1127.3206	1146.6913	1215.9326	1221.656	1264.6873	1277.2178	1307.9157	1344.4548	1351.7662	1395.1229	1426.3726	1508.2892	1522.2361	1834.345	2235.9251	2900.5809	2974.8803	2994.9268	3051.9133	3092.9591	3106.7707	3118.8987	3502.7698
O=CC1COCC1C#C	O=C[C@H]1COC[C@H]1C#C	
InChI=1S/C7H8O2/c1-2-6-4-9-5-7(6)3-8/h1,3,6-7H,4-5H2	InChI=1S/C7H8O2/c1-2-6-4-9-5-7(6)3-8/h1,3,6-7H,4-5H2/t6-,7+/m1/s1
