17
gdb 111721	2.23347	1.49483	1.08219	2.0362	76.69	-0.2334	0.025	0.2584	1153.1925	0.133456	-421.727248	-421.718439	-421.717495	-421.760869	32.428	
C	-0.385328004	 1.0186373515	-0.1882697294	-0.239273
O	 0.5856080132	 0.0230672272	 0.0890216285	-0.227845
C	 1.0004716871	-0.6531678097	-1.040101865	 0.046349
C	 1.5729765826	-2.0168222607	-0.9298281646	-0.003114
O	 1.0011569845	-2.7624303844	 0.1269525259	-0.271643
C	-0.3155966419	-2.6707598288	-0.4697073611	-0.124228
C	 0.2016511796	-1.8172594793	-1.6373356819	 0.019332
C	-0.2100235461	-1.9026894924	-2.9906105772	 0.191375
C	-0.5697542231	-1.9699552434	-4.1381753259	-0.405869
H	 0.0156709018	 1.7954893264	-0.8554975912	 0.113358
H	-1.2819760634	 0.5882135271	-0.6545265499	 0.119103
H	-0.6562947466	 1.4734343623	 0.7665290733	 0.134527
H	 1.459535816	-0.0376736942	-1.8173773017	 0.101452
H	 2.5434603273	-2.3239147768	-1.3046895627	 0.120776
H	-0.662701006	-3.6577759556	-0.7878208019	 0.122076
H	-1.0434596151	-2.2016926539	 0.1994737948	 0.116999
H	-0.8828977059	-2.0331722953	-5.1506255799	 0.186625
93.1281	108.1268	153.7421	183.0971	210.6631	252.153	331.0773	458.4646	487.3805	516.2107	563.4001	586.6591	626.6517	659.644	802.8767	824.4957	917.9741	957.7258	994.4536	1021.0996	1034.4649	1075.5968	1091.6659	1141.6914	1162.855	1181.6637	1213.5539	1250.8967	1272.0568	1303.9037	1354.5042	1442.2643	1486.7871	1491.4124	1506.9834	1508.9183	2228.2494	2991.9424	3046.4678	3047.9147	3085.8319	3104.8283	3128.6324	3176.2398	3502.164
COC1C2OCC12C#C	CO[C@H]1[C@H]2OC[C@@]12C#C	
InChI=1S/C7H8O2/c1-3-7-4-9-6(7)5(7)8-2/h1,5-6H,4H2,2H3	InChI=1S/C7H8O2/c1-3-7-4-9-6(7)5(7)8-2/h1,5-6H,4H2,2H3/t5-,6+,7-/m0/s1
