21
gdb 71945	2.50371	1.92401	1.41876	1.1672	80.28	-0.2478	0.075	0.3227	995.3156	0.184825	-387.079165	-387.071644	-387.0707	-387.110878	31.306	
O	-0.0294193183	 1.3984286395	 0.0716004685	-0.493141
C	 0.0251152274	-0.01242872	 0.0191522957	 0.433368
C	 0.310228793	-0.6212292831	-1.3940456342	-0.299657
C	-0.9735504951	-1.4747148021	-1.2854579643	-0.018098
C	-0.841858662	-2.7518578712	-0.4082035529	-0.246466
C	-1.2405328738	-1.9431526876	 0.8717932601	-0.007152
C	-0.1297547041	-1.6517655654	 1.8872631539	-0.216593
C	 0.8259326931	-0.6512357979	 1.1886565759	-0.289668
C	-1.3884966672	-0.6722602941	-0.0043740711	-0.079822
H	 0.8676482473	 1.734945737	-0.0311636646	 0.271682
H	 0.1995002245	 0.1590710036	-2.1522648473	 0.100172
H	 1.2612294097	-1.1434860353	-1.5465511187	 0.081582
H	-1.5936183276	-1.5574423529	-2.1780139527	 0.063355
H	-1.5766180566	-3.5191429326	-0.6639785935	 0.099768
H	 0.1468757449	-3.2233242598	-0.3945317417	 0.087919
H	-2.1521791718	-2.3151814026	 1.3440970865	 0.063597
H	-0.5693488474	-1.1851396846	 2.7762551489	 0.099901
H	 0.3807705573	-2.5603851897	 2.2235706406	 0.093811
H	 1.7277208434	-1.1499963719	 0.8188189221	 0.093278
H	 1.1497406992	 0.1347033364	 1.8769807662	 0.09697
H	-2.2491439358	-0.0100068655	 0.0747530125	 0.065196
77.4943	243.0554	266.5245	298.6611	351.0878	395.9649	417.7999	544.9925	606.0364	622.9358	743.896	757.9905	800.1957	828.689	856.5128	877.7169	902.6655	922.314	935.4984	968.5686	975.9919	1001.9552	1053.6381	1056.2554	1085.0894	1125.704	1140.3704	1146.9562	1168.0327	1203.932	1225.7216	1228.9797	1241.0282	1268.9761	1275.7122	1287.9776	1298.6705	1311.2646	1329.1579	1353.3892	1379.8579	1467.5004	1479.1521	1483.92	1499.5478	3032.9993	3033.9842	3040.7146	3045.4093	3071.8126	3077.7468	3091.6365	3095.5786	3098.8287	3108.3468	3128.653	3795.6196
OC12CC3CC(CC1)C23	O[C@@]12C[C@H]3C[C@@H](CC1)[C@@H]23	
InChI=1S/C8H12O/c9-8-2-1-5-3-6(4-8)7(5)8/h5-7,9H,1-4H2	InChI=1S/C8H12O/c9-8-2-1-5-3-6(4-8)7(5)8/h5-7,9H,1-4H2/t5-,6-,7-,8-/m1/s1
