20
gdb 82211	2.46058	1.82426	1.35128	3.201	77.48	-0.2336	0.07	0.3036	1027.6766	0.171267	-403.114346	-403.106194	-403.10525	-403.146482	32.449	
C	 0.0802606816	 1.5435589424	-0.0188751665	-0.396259
C	 0.0175023699	 0.0131198388	-0.0013602069	-0.065839
C	 0.6914639953	-0.6410535678	-1.2107003814	 0.021403
O	 2.0844674999	-0.3565604591	-1.3630888159	-0.235262
C	 1.7154751985	-1.597292535	-0.7580220652	 0.045147
C	 1.7274900832	-1.5932679336	 0.7572234754	-0.137582
N	 2.1269085774	-0.2950865421	 1.3483040191	-0.347965
C	 0.6938175817	-0.629573335	 1.2312414936	 0.316579
C	-0.1262731393	-0.8257301926	 2.4811341543	-0.489209
H	 1.1232741885	 1.8662590735	-0.0266660461	 0.155137
H	-0.4193058987	 1.948862424	-0.9046843256	 0.108872
H	-0.4092357393	 1.9691447195	 0.8633839902	 0.10653
H	-1.0320865933	-0.311387232	-0.0060390568	 0.069189
H	 0.1386274844	-0.7453194279	-2.1429004968	 0.089643
H	 1.9933076518	-2.494243272	-1.3050485915	 0.091772
H	 1.9499061662	-2.5134606443	 1.2878840958	 0.081519
H	 2.4226198317	-0.4536569402	 2.3103603661	 0.22313
H	-0.4177259714	 0.1366120266	 2.9187559637	 0.12792
H	-1.0443614285	-1.3862387699	 2.273128408	 0.12281
H	 0.4402611503	-1.3778521634	 3.2389493563	 0.112463
136.0634	204.1281	212.9951	232.8284	237.9863	290.2519	372.6946	427.8175	547.2943	555.4203	657.0038	696.2086	709.07	820.5852	841.1088	857.5477	873.9669	915.7918	943.8223	968.493	1003.3079	1012.0556	1051.7878	1064.6857	1096.1103	1103.0716	1129.7359	1145.0078	1157.2547	1251.6431	1268.4502	1290.605	1329.9063	1345.5228	1361.3248	1399.8332	1412.5199	1425.8398	1441.6772	1485.0026	1494.9105	1500.5976	1503.5431	3015.8276	3022.2658	3038.0856	3083.71	3094.7399	3097.9564	3122.3429	3138.3007	3147.8673	3166.9335	3474.1794
CC1C2OC2C2NC12C	C[C@H]1[C@H]2O[C@H]2[C@H]2N[C@@]12C	
InChI=1S/C7H11NO/c1-3-4-5(9-4)6-7(3,2)8-6/h3-6,8H,1-2H3	InChI=1S/C7H11NO/c1-3-4-5(9-4)6-7(3,2)8-6/h3-6,8H,1-2H3/t3-,4+,5+,6+,7-/m0/s1
