18
gdb 89048	3.20219	1.10571	0.91246	6.1016	69.09	-0.2334	0.0326	0.266	1274.3392	0.146842	-476.221303	-476.212406	-476.211462	-476.255483	32.908	
N	 0.3564081468	-0.026755377	 0.534933787	-0.522097
H	-0.1547958721	-0.8467777909	 0.845106245	 0.254165
H	 1.8970157794	-0.1792620327	 1.3647854448	 0.342142
H	 0.2428341719	 0.0429308396	-0.4704805795	 0.251902
C	-0.1429195428	 1.1666506683	 1.1983344755	-0.024413
C	-1.4101481209	 1.122203905	 2.0278049861	-0.345359
C	-0.0649747222	 1.1420260494	 2.7021326662	 0.127551
O	 0.3474399304	-0.0663730751	 3.2726268159	-0.256154
C	 1.6098118035	-0.0221063579	 3.9137477551	-0.212483
C	 2.8901852109	 0.0543219051	 3.0593908533	 0.348979
O	 2.8153971109	-0.0998378884	 1.7439576004	-0.378084
O	 3.9395024548	 0.2198534712	 3.6296414886	-0.330147
H	 0.1135130246	 2.0799781218	 0.6728201762	 0.113189
H	-2.035193496	 2.0057836503	 2.0952564366	 0.126157
H	-1.9505884694	 0.1807437774	 2.0558441894	 0.125345
H	 0.2390703205	 2.0328396928	 3.248641987	 0.103692
H	 1.6611742559	 0.8135135452	 4.6237475271	 0.129903
H	 1.681080374	-0.9459600441	 4.4952792754	 0.145713
58.2631	85.0808	162.3125	178.1714	251.4795	303.087	331.8897	354.2368	436.5927	549.1895	563.2329	628.4058	673.0896	764.934	785.2856	851.1946	870.8584	892.7714	987.5451	1007.1572	1013.4243	1046.0266	1054.3138	1086.6389	1111.3245	1139.2399	1162.5109	1223.137	1260.2978	1290.0635	1303.542	1353.3099	1379.7717	1397.5748	1428.7059	1459.995	1490.3136	1637.8833	1838.3397	3029.5141	3097.3874	3121.0411	3128.3197	3168.4225	3177.2256	3219.1791	3510.5064	3593.3212
[NH3+]C1CC1OCC([O-])=O	N[C@H]1C[C@H]1OCC(=O)O	
InChI=1S/C5H9NO3/c6-3-1-4(3)9-2-5(7)8/h3-4H,1-2,6H2,(H,7,8)	InChI=1S/C5H9NO3/c6-3-1-4(3)9-2-5(7)8/h3-4H,1-2,6H2,(H,7,8)/t3-,4+/m0/s1
