12
gdb 43426	3.10898	1.5405	1.03009	2.3663	66.19	-0.2862	-0.1276	0.1585	1034.1822	0.077801	-472.677028	-472.669879	-472.668934	-472.709409	25.932	
N	-0.0697635407	 1.2532250066	-0.4073829317	-0.436976
C	-0.0460082549	 0.0869694095	 0.0645779393	 0.306615
O	 1.1292730656	-0.4547986145	 0.5573427827	-0.255125
C	 1.2401458544	-1.7186090368	 1.0907274069	 0.444581
O	 2.3089547643	-2.0833896259	 1.4892731154	-0.301184
C	 0.0184068114	-2.546018184	 1.1348530552	-0.213419
C	-1.1619263067	-2.110965795	 0.6830478475	-0.131449
C	-1.3073012792	-0.7617687886	 0.1076838188	 0.302128
O	-2.3608778222	-0.3426545826	-0.3083755603	-0.273581
H	 0.8580628005	 1.6811569167	-0.3604843214	 0.249924
H	 0.1614441157	-3.5313427733	 1.5633434627	 0.156493
H	-2.0613584983	-2.7165897521	 0.7143355051	 0.151992
54.6337	119.6644	253.0661	344.3207	400.4813	435.1093	450.0273	484.8022	610.6321	646.7854	683.1198	802.6451	804.6277	895.5509	899.8084	939.0292	1040.6589	1075.5866	1110.7091	1165.0339	1279.7705	1325.1733	1389.1846	1684.0029	1734.2463	1793.7732	1843.499	3197.5681	3216.466	3470.8776
N=C1OC(=O)C=CC1=O	[NH][C]1OC(=O)C=CC1=O	
InChI=1S/C5H3NO3/c6-5-3(7)1-2-4(8)9-5/h1-2,6H	InChI=1S/C5H3NO3/c6-5-3(7)1-2-4(8)9-5/h1-2,6H
