20
gdb 56317	7.21686	0.48187	0.45679	5.7513	79.86	-0.2517	-0.0163	0.2354	2328.4892	0.167249	-440.305143	-440.293993	-440.293049	-440.345093	36.493	
C	 0.05786554	 1.499901627	-0.0471724454	-0.473557
C	 0.0282291826	-0.0137832001	 0.071687793	 0.377755
O	-0.0045027637	-0.5725533621	 1.1428855214	-0.282105
C	 0.0421308528	-0.7917124139	-1.2416026235	-0.308944
C	 0.0107490961	-2.306607248	-1.047802299	-0.188105
C	 0.0254726595	-3.0503796019	-2.373557998	-0.080507
O	-0.0057392928	-4.4506665754	-2.0907866872	-0.181544
C	 0.0016893839	-5.2729731698	-3.1556650913	 0.130746
N	-0.0242047461	-6.5242528524	-2.991153877	-0.437258
H	 0.9551297478	 1.8240131349	-0.5863917796	 0.138408
H	-0.8038202591	 1.8555147123	-0.6233060635	 0.138419
H	 0.0450494704	 1.9492181512	 0.9462961937	 0.146304
H	-0.8111583551	-0.4491467837	-1.8448478702	 0.120595
H	 0.9320378574	-0.4805225121	-1.8078059775	 0.120602
H	 0.8670475201	-2.6236691122	-0.4455191185	 0.131404
H	-0.8811556901	-2.5921991308	-0.4825897265	 0.131398
H	-0.8451334058	-2.7741061922	-2.9860792129	 0.104169
H	 0.9306379266	-2.8060885819	-2.9484158212	 0.104175
H	 0.0312539429	-4.7444323962	-4.1196661559	 0.080162
H	-0.0138075275	-6.9924400027	-3.8948768109	 0.227882
20.9335	25.3446	63.5883	81.2457	87.9747	109.7915	154.8431	207.4208	265.7888	373.3352	467.7562	477.24	598.4421	634.2227	735.3448	820.0361	828.1607	830.7347	939.9109	970.8534	1003.2657	1045.1749	1068.1457	1098.1462	1135.097	1141.0196	1177.7307	1213.2672	1281.4211	1300.6143	1304.5457	1313.621	1379.2753	1388.077	1413.8379	1436.2949	1452.2554	1465.9505	1477.4867	1491.4037	1518.7974	1750.4869	1815.9889	2984.0089	3007.2977	3013.0265	3025.3605	3034.6192	3036.7497	3067.9354	3096.475	3111.7615	3153.2232	3518.5647
CC(=O)CCCOC=N	CC(=O)CCCO[CH][NH]	
InChI=1S/C6H11NO2/c1-6(8)3-2-4-9-5-7/h5,7H,2-4H2,1H3	InChI=1S/C6H11NO2/c1-6(8)3-2-4-9-5-7/h5,7H,2-4H2,1H3
