19
gdb 125921	4.4891	1.18943	0.97304	1.9257	81.7	-0.2269	0.024	0.2509	1216.5897	0.162941	-382.107679	-382.100079	-382.099135	-382.139635	30.136	
C	-0.8156376314	 1.1926305972	 0.0309366093	-0.403825
C	 0.1969691944	 0.050443843	 0.0118652355	 0.049804
C	 1.1353015351	 0.0520367215	-1.2451881483	-0.377971
C	 2.3744880667	-0.6035779646	-0.714669498	 0.244538
C	 3.5654319181	-1.1919068772	-1.0693736132	-0.224014
N	 4.1749849074	-1.5171941007	 0.1087845525	-0.18524
N	 3.4577300024	-1.1819615293	 1.2097240936	-0.337321
C	 2.3709911833	-0.6275324024	 0.6936788013	 0.336345
C	 1.1370656658	 0.0067164125	 1.2616121461	-0.354457
H	-0.3092142747	 2.1647680379	 0.0517663719	 0.113745
H	-1.457888047	 1.1705160653	-0.8561662902	 0.112075
H	-1.4641355869	 1.1362191468	 0.9117335428	 0.113985
H	-0.3486340088	-0.9013414878	-0.005916284	 0.081402
H	 0.6712455576	-0.4626218836	-2.0927829017	 0.105052
H	 1.3342139288	 1.0824873368	-1.5724002107	 0.104427
H	 4.0313670504	-1.4121143663	-2.017096951	 0.129227
H	 5.0529821963	-1.9920463517	 0.2302098454	 0.269728
H	 1.3476284861	 1.0223406973	 1.6244583632	 0.108721
H	 0.6925392465	-0.5444005248	 2.0953655257	 0.113779
84.3492	232.2329	252.7807	265.5878	277.6914	408.8411	464.2258	467.0772	507.2918	647.7705	689.2564	720.4643	773.0362	777.9822	813.553	899.0001	927.0337	945.2327	971.3955	1052.5699	1056.1618	1100.1569	1110.0527	1147.0967	1168.2923	1187.2879	1232.6468	1267.8234	1281.9435	1317.9537	1343.2283	1368.6557	1409.26	1435.9471	1467.0166	1484.3504	1494.8705	1496.6764	1502.3394	1511.001	1626.5733	3003.8659	3011.2233	3022.6413	3026.6075	3066.7902	3082.0491	3092.9919	3095.5425	3256.3972	3678.0462
CC1CC2=CNN=C2C1	C[C@H]1Cc2c[nH]nc2C1	
InChI=1S/C7H10N2/c1-5-2-6-4-8-9-7(6)3-5/h4-5H,2-3H2,1H3,(H,8,9)	InChI=1S/C7H10N2/c1-5-2-6-4-8-9-7(6)3-5/h4-5H,2-3H2,1H3,(H,8,9)/t5-/m0/s1
