22
gdb 100881	2.23403	1.08861	0.77861	3.3338	83.65	-0.2839	0.0192	0.3031	1528.2655	0.191447	-404.360725	-404.34958	-404.348636	-404.397491	39.118	
C	 0.0599387025	 1.6006047873	 0.0610576269	-0.397018
C	 0.0119793964	 0.0753281078	-0.0721337291	-0.180673
C	-1.4112430148	-0.5127068371	-0.0331261724	 0.014725
C	-2.2510133524	-0.1086012562	-1.2519189436	-0.421082
C	-1.3302795048	-2.0506428767	 0.0913679294	-0.016418
O	-0.6333337666	-2.3761468721	 1.2720683462	-0.233489
C	-0.284023664	-3.7443374138	 1.3886899993	-0.251405
C	-2.6772248108	-2.6713519553	 0.1064738068	 0.276581
N	-3.71870307	-3.1715703947	 0.1381039999	-0.33658
H	 1.0961061966	 1.9509231632	 0.0926199091	 0.116974
H	-0.4301652494	 2.1069964953	-0.775857844	 0.119388
H	-0.4291527232	 1.9310716775	 0.9840944455	 0.119322
H	 0.4951752627	-0.2282324223	-1.0117861104	 0.089907
H	 0.5926127356	-0.3753327711	 0.737106269	 0.120012
H	-1.9095844864	-0.1572933975	 0.8781459647	 0.098311
H	-3.2616896481	-0.5225361593	-1.2034851326	 0.144592
H	-2.3423253277	 0.9781120324	-1.3145749478	 0.126714
H	-1.7863882501	-0.4567469958	-2.1823097756	 0.116647
H	-0.8004475464	-2.4527786007	-0.7901245242	 0.106736
H	-1.1728135023	-4.387809801	 1.429368293	 0.136015
H	 0.3502467389	-4.0680081449	 0.5501881534	 0.112392
H	 0.2750403542	-3.8464545151	 2.3206365267	 0.138349
57.3921	70.7026	97.382	135.4628	179.6248	188.2508	213.5257	249.1331	270.2573	287.8351	343.9807	370.3121	433.5203	452.8355	571.3506	612.885	780.672	850.1684	875.2036	962.1035	972.1978	985.7552	1014.1367	1054.1564	1131.3996	1149.4656	1158.9819	1183.1243	1185.287	1226.3924	1272.1378	1300.0531	1348.2201	1354.1379	1365.8983	1385.7761	1411.007	1417.8626	1479.6178	1487.9859	1488.8291	1497.086	1500.7975	1508.2405	1509.5708	1512.1018	2349.6743	2954.3159	2991.8605	3009.0324	3030.2542	3036.607	3039.0993	3053.5433	3087.207	3102.6547	3107.3289	3112.6835	3126.9021	3131.5712
CCC(C)C(OC)C#N	CC[C@@H](C)[C@@H](OC)C#N	
InChI=1S/C7H13NO/c1-4-6(2)7(5-8)9-3/h6-7H,4H2,1-3H3	InChI=1S/C7H13NO/c1-4-6(2)7(5-8)9-3/h6-7H,4H2,1-3H3/t6-,7+/m1/s1
