25
gdb 123253	9.53865	0.37127	0.363	2.2137	88.25	-0.2489	0.0786	0.3275	3031.0555	0.226325	-426.62036	-426.608299	-426.607354	-426.659511	41.077	
C	 0.0140559133	 1.5678393482	 0.0732944089	-0.378939
C	 0.031207874	 0.0371298198	 0.0454729386	-0.16494
C	 0.7474123288	-0.5726372652	 1.2545897729	-0.177995
C	 0.7643990278	-2.0947324718	 1.2269277642	-0.050757
O	 1.4410560175	-2.5639760894	 2.3731853472	-0.247066
C	 1.5129822857	-3.9702061599	 2.4441799282	-0.052505
C	 2.2598414496	-4.3531483722	 3.714285664	-0.182586
C	 2.3925372544	-5.8604145965	 3.8854532932	-0.071592
O	 3.1000746157	-6.0982691757	 5.0927051437	-0.419611
H	 1.03144842	 1.9741945278	 0.0805433053	 0.115402
H	-0.5025970298	 1.9777447311	-0.8001175982	 0.110669
H	-0.495781337	 1.9409454597	 0.9683487131	 0.115401
H	-0.9995701765	-0.3392969078	 0.0035396981	 0.095384
H	 0.5165042075	-0.3062890507	-0.8778407593	 0.095386
H	 1.782541209	-0.212281086	 1.300067498	 0.103445
H	 0.2636285256	-0.2452661287	 2.1831359716	 0.103442
H	-0.266812426	-2.4899005854	 1.2022649827	 0.080324
H	 1.2654136192	-2.4566046386	 0.311397318	 0.080326
H	 0.4978422309	-4.4060985536	 2.4453747989	 0.081016
H	 2.0298374353	-4.3727154031	 1.5545967447	 0.081027
H	 3.2585206416	-3.9041010013	 3.6969841679	 0.115505
H	 1.7365748269	-3.9375848256	 4.5819220288	 0.115477
H	 1.3924662126	-6.3243089714	 3.912632248	 0.084088
H	 2.9252372932	-6.2906078652	 3.021002256	 0.084082
H	 3.1857599208	-7.0489671383	 5.2079966753	 0.285017
38.3516	58.2226	65.46	98.3512	111.8178	150.4858	156.3318	167.8247	249.6727	259.8803	270.9963	300.9955	416.1522	487.2222	529.5201	745.0674	779.52	815.057	890.6558	906.7391	954.1997	997.4697	1026.4232	1044.3662	1059.1434	1074.2974	1095.9518	1150.7852	1164.8258	1174.2433	1197.9776	1231.8687	1245.093	1254.5655	1293.3994	1303.4558	1305.8496	1311.6108	1320.1342	1323.9738	1385.2227	1407.5838	1415.4835	1458.4365	1466.5131	1487.9718	1495.7974	1499.0129	1500.5906	1509.3391	1517.6072	1529.3137	1540.3802	2932.24	2945.2545	2956.9792	2959.4666	2963.7661	2980.1323	3012.7671	3028.5001	3032.5964	3038.4494	3051.4321	3072.9449	3097.3892	3098.2311	3102.463	3831.3233
CCCCOCCCO	CCCCOCCCO	
InChI=1S/C7H16O2/c1-2-3-6-9-7-4-5-8/h8H,2-7H2,1H3	InChI=1S/C7H16O2/c1-2-3-6-9-7-4-5-8/h8H,2-7H2,1H3
