25
gdb 95822	2.7791	1.1367	0.87092	1.2091	89.08	-0.2409	0.0811	0.322	1443.1814	0.23023	-389.504591	-389.494896	-389.493951	-389.538974	37.526	
C	 0.1869655745	 1.6442067978	 0.0431612045	-0.400119
C	-0.0131201119	 0.1216998908	 0.0121963193	 0.017094
C	 0.5355163875	-0.4686924148	-1.3012335678	-0.203515
C	-0.0027233864	-1.847785554	-1.727516643	-0.212971
C	-0.14412771	-2.9392822741	-0.6373353824	 0.042237
C	-0.0259686341	-4.3339127624	-1.2674153019	-0.407263
C	 0.8226705262	-2.7901555789	 0.5493253114	-0.081561
O	 0.372925577	-1.8487062496	 1.5073340835	-0.249622
C	 0.6690303761	-0.4945630029	 1.2467276314	-0.065324
H	 1.2502539166	 1.9034834642	-0.0304333354	 0.11417
H	-0.3273383011	 2.1242770083	-0.7950095982	 0.113922
H	-0.1981989881	 2.0824890599	 0.9697814501	 0.111847
H	-1.0888985573	-0.0888322238	 0.0858217501	 0.076563
H	 0.3311844566	 0.2311122553	-2.1208958685	 0.088723
H	 1.6307033279	-0.5084879714	-1.2213179173	 0.091657
H	-0.9832315476	-1.7182231526	-2.2026665555	 0.096856
H	 0.6569480499	-2.2251120561	-2.5201120143	 0.090762
H	-1.1421704536	-2.8542582449	-0.1895411503	 0.082606
H	 0.9889310201	-4.5107574242	-1.6442902387	 0.112754
H	-0.257831692	-5.1229400961	-0.5444672536	 0.111859
H	-0.7120593032	-4.4419994246	-2.1138508658	 0.113965
H	 0.877396899	-3.7437074597	 1.0867939941	 0.096755
H	 1.8435189073	-2.5479773403	 0.2100143335	 0.082015
H	 1.7614273795	-0.3537791029	 1.1511275182	 0.07806
H	 0.3489272971	 0.041298637	 2.1470830165	 0.098529
47.7992	159.6397	171.329	212.3225	245.0779	274.4746	287.1327	321.7804	342.9588	391.078	433.7447	446.6362	536.9385	559.5434	773.859	799.4104	863.039	891.608	914.3594	951.5267	957.2768	965.1975	989.5722	1053.4727	1067.2498	1086.4775	1099.3745	1144.0108	1157.0739	1176.154	1187.5759	1248.1154	1264.9499	1288.1268	1317.9017	1330.1037	1338.5916	1353.8978	1371.6976	1388.863	1391.5442	1403.8355	1406.4226	1423.6569	1431.4793	1482.6161	1487.5979	1490.5354	1498.5272	1499.0408	1502.0177	1502.6746	1508.8302	2937.8994	2969.8355	3005.9364	3012.9476	3018.7526	3021.7965	3024.6549	3026.6109	3041.4405	3055.102	3058.3495	3064.0482	3089.4911	3090.6224	3099.9943	3103.1507
CC1CCC(C)COC1	C[C@H]1CC[C@@H](C)COC1	
InChI=1S/C8H16O/c1-7-3-4-8(2)6-9-5-7/h7-8H,3-6H2,1-2H3	InChI=1S/C8H16O/c1-7-3-4-8(2)6-9-5-7/h7-8H,3-6H2,1-2H3/t7-,8+
