19
gdb 91832	3.11974	1.26521	1.05665	1.7727	82.95	-0.23	0.0386	0.2686	1200.3284	0.158109	-385.851422	-385.842865	-385.841921	-385.884381	33.497	
C	 0.1539104794	 1.5431984179	 0.0780417255	-0.408578
C	 0.0977683363	 0.0311395464	-0.0295506938	 0.14842
C	 0.8215375169	-0.5873561317	-1.2478642179	-0.265716
C	 1.3103908162	-1.9306437864	-0.7152628427	-0.112915
C	 2.5306763937	-1.9416575421	 0.172407745	-0.333644
C	 1.1527146487	-1.8492043113	 0.7948575779	 0.241201
O	 0.7505911673	-0.5379278336	 1.1193371936	-0.303627
C	 0.603785758	-2.9008066518	 1.5973269205	 0.27798
C	 0.1501435817	-3.7849077303	 2.2751190289	-0.443038
H	 1.1923964001	 1.8883682318	 0.0945965892	 0.121113
H	-0.3538589302	 2.0037208996	-0.7752963157	 0.116888
H	-0.3368313149	 1.8832605435	 0.9939609775	 0.130347
H	-0.9523518272	-0.3022347902	-0.0335335678	 0.076306
H	 0.1453188892	-0.7078897772	-2.0983389255	 0.108388
H	 1.6535262352	 0.0494021234	-1.5703779816	 0.104031
H	 1.0451084874	-2.8420470569	-1.2360824403	 0.106713
H	 3.0680604092	-2.8775698807	 0.2780551507	 0.123669
H	 3.13569218	-1.0430682252	 0.2333756994	 0.121049
H	-0.2524406171	-4.5619139852	 2.876268797	 0.191414
84.2721	138.3619	161.38	231.5562	310.2294	315.1988	414.6426	447.8028	482.8798	540.0195	565.571	585.6263	611.7195	674.9424	756.7115	830.1015	846.3873	877.5776	903.7886	924.6853	959.5426	988.2978	1051.4665	1054.437	1074.3299	1114.1671	1143.0803	1162.1478	1207.7212	1235.2301	1261.8619	1297.559	1356.932	1380.9904	1388.9755	1413.3636	1463.5288	1483.4908	1494.2849	1499.4353	2235.2907	2972.3598	3036.8276	3041.4333	3097.0003	3113.4979	3120.6549	3129.6593	3191.1257	3226.6351	3503.2286
CC1CC2CC2(O1)C#C	C[C@H]1C[C@H]2C[C@]2(O1)C#C	
InChI=1S/C8H10O/c1-3-8-5-7(8)4-6(2)9-8/h1,6-7H,4-5H2,2H3	InChI=1S/C8H10O/c1-3-8-5-7(8)4-6(2)9-8/h1,6-7H,4-5H2,2H3/t6-,7-,8+/m0/s1
