17
gdb 45050	2.58332	1.83416	1.25803	2.752	72.76	-0.2445	-0.0282	0.2164	996.1854	0.137933	-417.98513	-417.977814	-417.97687	-418.017017	28.746	
O	 0.0415239241	 0.185464896	-0.677711256	-0.330316
C	-0.0103694887	 1.2584352122	-0.1277550773	 0.331951
C	-1.2700918175	 1.9358989597	 0.4323249305	-0.333869
C	-0.7970278061	 3.2818701436	 0.9480039913	-0.047728
N	 0.1617703357	 3.1647599351	 2.0628418299	-0.340779
C	 0.6668708896	 3.4361973613	 0.6985648806	-0.175327
C	 1.1679741168	 2.1914610966	 0.0386533213	 0.3009
C	 2.5214707097	 1.5935243284	 0.2013355355	-0.261857
N	 2.1583844711	 2.253033459	-1.0518076543	-0.366186
H	-2.0015404325	 2.035532008	-0.3774643009	 0.133621
H	-1.7195932646	 1.3105834703	 1.2094528721	 0.144514
H	-1.4652844962	 4.1353014845	 0.913925882	 0.097504
H	 0.1642392687	 4.0274609532	 2.6017745881	 0.235891
H	 1.1240871432	 4.3898553947	 0.4616169398	 0.105151
H	 3.2506946436	 2.1208473577	 0.8093841674	 0.126682
H	 2.5777627876	 0.508650793	 0.2199994929	 0.133839
H	 1.9073829054	 1.5394133467	-1.7368235728	 0.246007
76.193	183.5996	252.031	263.7129	359.9257	432.9497	476.9131	560.5353	600.4042	671.5529	715.4229	820.358	849.5403	859.8188	872.3906	902.2873	954.9852	974.0867	988.6117	1010.3624	1057.2176	1067.3957	1104.8255	1127.3787	1155.6437	1163.5999	1189.8422	1228.1976	1279.6081	1289.6419	1322.4999	1328.4063	1401.9932	1437.552	1445.8924	1498.2103	1826.6742	3053.5935	3099.8424	3112.5862	3169.5093	3185.3223	3208.0304	3463.1946	3503.1014
O=C1CC2NC2C11CN1	O=C1C[C@H]2N[C@H]2[C@]21CN2	
InChI=1S/C6H8N2O/c9-4-1-3-5(8-3)6(4)2-7-6/h3,5,7-8H,1-2H2	InChI=1S/C6H8N2O/c9-4-1-3-5(8-3)6(4)2-7-6/h3,5,7-8H,1-2H2/t3-,5-,6-/m1/s1
