18
gdb 32195	2.70964	1.45673	1.0171	1.8855	81.7	-0.2465	-0.0211	0.2254	1170.0873	0.149268	-402.009809	-402.001431	-402.000487	-402.042896	31.435	
C	 0.0244217267	 1.5293230828	 0.0334124479	-0.512468
C	 0.0210973985	 0.0215691252	 0.0244042122	 0.248544
C	 0.0352198651	-0.6970686758	-1.1685332736	-0.148371
C	 0.0288824969	-2.0881727856	-1.1447056078	-0.11981
C	 0.0125789587	-2.7228268058	 0.0902592435	-0.015311
N	 0.001743999	-2.0605061104	 1.2502490379	-0.314029
C	 0.0013671324	-0.7230056568	 1.220591762	 0.205403
C	 0.0184016358	-0.0394050882	 2.5725613422	-0.155821
O	 1.2480723562	 0.6403763976	 2.8266112407	-0.413989
H	 0.7895587429	 1.9118191561	 0.7130848339	 0.159848
H	 0.2062516683	 1.9268538511	-0.9685107228	 0.117648
H	-0.9385196025	 1.9275201234	 0.3769655676	 0.132885
H	 0.0506851189	-0.1647980681	-2.115465211	 0.100015
H	 0.039150173	-2.6658849142	-2.0623915292	 0.100431
H	 0.0107454855	-3.8081519229	 0.1573402486	 0.106076
H	-0.7545540119	 0.7340202137	 2.631343284	 0.111093
H	-0.190901401	-0.7963755731	 3.3376920243	 0.110976
H	 1.9471366675	-0.0216198289	 2.7970588995	 0.286879
84.4188	128.1627	150.5554	217.3723	284.2691	341.2527	371.2029	418.2911	464.1331	519.6951	573.3465	626.8446	738.0421	803.9693	818.0432	873.5927	960.9716	961.3191	992.77	1014.214	1042.2162	1069.2512	1089.9897	1137.0695	1187.7345	1203.5113	1262.319	1296.1813	1309.8944	1373.2145	1412.1186	1419.0174	1461.7868	1481.0392	1486.4121	1499.0818	1510.8912	1609.9085	1630.3842	3029.7706	3031.6644	3082.932	3093.7229	3130.644	3153.9274	3167.4755	3196.8476	3809.5007
CC1=CC=CN=C1CO	Cc1cccnc1CO	
InChI=1S/C7H9NO/c1-6-3-2-4-8-7(6)5-9/h2-4,9H,5H2,1H3	InChI=1S/C7H9NO/c1-6-3-2-4-8-7(6)5-9/h2-4,9H,5H2,1H3
