12
gdb 26816	3.77573	1.14449	0.87827	5.035	68.9	-0.2099	-0.0352	0.1747	1182.968	0.078264	-468.848678	-468.840716	-468.839772	-468.881125	28.899	
O	 0.0392290927	 1.3603702209	 0.245703768	-0.431871
C	 0.0594708898	 0.0296323928	 0.0398712644	 0.325509
C	 0.1159832735	-0.7639278215	-1.0903377439	 0.220152
O	 0.1681310986	-0.2932389128	-2.3593941982	-0.453536
N	 0.1121837738	-2.071326328	-0.7614347071	-0.363462
C	 0.0543425076	-2.1108617378	 0.5662765492	 0.231429
N	 0.0199953539	-0.8384506974	 1.0900562921	-0.348277
C	 0.0280160452	-3.2605910924	 1.3825851834	 0.235326
N	 0.0045497581	-4.1810660905	 2.0876869742	-0.345797
H	 0.0752002444	 1.7960800695	-0.6139045371	 0.325208
H	 0.2019071583	-1.0585485754	-2.945859346	 0.312246
H	-0.0253895158	-0.5837628174	 2.0638889809	 0.293071
127.6334	149.8004	239.8243	255.924	262.5713	293.5026	359.9368	451.458	501.5303	533.6885	542.4835	621.7135	664.9465	686.2346	706.1446	838.9015	1023.8588	1153.8717	1163.7793	1240.0837	1321.1968	1388.0141	1436.8354	1504.0492	1574.3671	1691.6369	2332.594	3656.8372	3810.4544	3819.8745
OC1=C(O)N=C(N1)C#N	Oc1c(O)nc([nH]1)C#N	
InChI=1S/C4H3N3O2/c5-1-2-6-3(8)4(9)7-2/h8-9H,(H,6,7)	InChI=1S/C4H3N3O2/c5-1-2-6-3(8)4(9)7-2/h8-9H,(H,6,7)
