15
gdb 11873	4.95914	1.57762	1.35218	3.4517	62.58	-0.2592	0.0226	0.2818	898.9659	0.119464	-399.795089	-399.788247	-399.787303	-399.826424	25.724	
N	-0.0407762002	 1.2153364645	-0.383216015	-0.536691
C	-0.0301323609	 0.0035099862	-0.037536061	 0.419243
C	-1.2484084005	-0.8822402827	 0.1259608277	-0.390797
C	-0.6522275981	-2.2735018116	 0.1974539329	 0.389414
C	-1.3870673135	-3.5228878201	 0.3818854354	-0.254421
O	-0.8718273132	-3.1562677579	-0.9036351753	-0.259979
C	 0.7885926745	-2.0580019354	 0.6342379176	-0.144525
O	 1.1032989768	-0.7116684342	 0.2541764173	-0.240706
H	 0.9090289607	 1.5903135792	-0.4095993666	 0.224371
H	-1.7674596076	-0.6182997949	 1.0540771365	 0.140429
H	-1.9475649665	-0.7659557504	-0.7022741491	 0.156945
H	-0.9006587241	-4.375885269	 0.8548442766	 0.119396
H	-2.4719318266	-3.5005514919	 0.4772897118	 0.12303
H	 0.9114064645	-2.1608302086	 1.7198136122	 0.117404
H	 1.4708569047	-2.7422526032	 0.1243752689	 0.136886
76.6194	142.298	274.7302	363.1954	369.4148	470.1485	506.4641	527.8917	682.6633	790.2757	837.7744	863.1422	888.3425	897.5405	947.3637	972.142	1012.3471	1069.8117	1102.2704	1125.6136	1155.3697	1183.9277	1229.6238	1239.701	1256.8347	1296.9339	1376.7125	1443.5438	1457.5452	1506.8967	1539.179	1784.9106	3026.8285	3056.429	3079.0213	3107.6881	3139.0979	3164.1907	3474.0553
N=C1CC2(CO2)CO1	[NH][C]1C[C@]2(CO2)CO1	
InChI=1S/C5H7NO2/c6-4-1-5(2-7-4)3-8-5/h6H,1-3H2	InChI=1S/C5H7NO2/c6-4-1-5(2-7-4)3-8-5/h6H,1-3H2/t5-/m1/s1
