23
gdb 104415	1.97737	1.54234	1.26121	1.9644	81.32	-0.237	0.0723	0.3094	1186.6474	0.204363	-425.426153	-425.415996	-425.415051	-425.460886	37.633	
C	 0.1906530357	 1.3320141594	 0.2919159603	-0.244697
O	 0.361748586	-0.0573085224	 0.1308098185	-0.286231
C	 0.7286799423	-0.5366566731	-1.1681656407	 0.358101
C	-0.2263151367	-0.0505315438	-2.2579370112	-0.473196
C	 2.2110226745	-0.2312207411	-1.4620355329	-0.095463
O	 2.988798535	-1.2288509398	-0.8121047331	-0.269083
C	 2.1325292689	-2.2526623685	-0.3086512893	-0.078076
C	 0.7881827217	-2.0776994456	-1.0225178626	-0.015572
C	-0.3991291293	-2.7322960658	-0.3228009228	-0.418946
H	 1.0681367879	 1.910056202	-0.0313478033	 0.10616
H	-0.6895373311	 1.71243296	-0.2445337288	 0.108327
H	 0.0438579912	 1.5044005908	 1.361297635	 0.128459
H	-0.1346845133	 1.0254295781	-2.4351166542	 0.119635
H	-0.0136810627	-0.5587460564	-3.2026660424	 0.121013
H	-1.2636836799	-0.2601587322	-1.9800934833	 0.127264
H	 2.4003544339	-0.2555075026	-2.5457849236	 0.085173
H	 2.5108156391	 0.7571178829	-1.0952574412	 0.098429
H	 2.5970784628	-3.2250406674	-0.5062460629	 0.096019
H	 2.0086544244	-2.1410504676	 0.7780318068	 0.098209
H	 0.8851348361	-2.4854881117	-2.0368002443	 0.073934
H	-0.5439566036	-2.3058302866	 0.6716491038	 0.137141
H	-1.3243826267	-2.5914495165	-0.8907520249	 0.11226
H	-0.2388806461	-3.8106832621	-0.2199635129	 0.11114
74.9957	123.4097	139.4026	190.9034	200.2762	207.1133	237.982	273.8038	333.8882	350.6899	368.8322	467.8053	538.9883	587.217	647.7659	758.776	837.9243	899.9706	916.485	954.1879	966.9145	984.341	1045.5648	1078.2401	1116.6568	1134.766	1148.3271	1176.2736	1183.9791	1194.2056	1202.6624	1228.4671	1247.1577	1275.602	1329.8726	1358.8699	1378.8878	1402.0479	1406.2222	1416.0414	1476.9028	1487.0639	1488.1731	1495.1971	1502.3334	1504.8555	1510.3675	1518.7708	1524.6401	2986.5986	2992.6818	3001.8243	3025.7101	3038.0583	3039.5695	3043.8031	3054.2084	3062.4049	3096.8059	3107.2188	3110.2328	3117.3179	3134.9042
COC1(C)COCC1C	CO[C@@]1(C)COC[C@H]1C	
InChI=1S/C7H14O2/c1-6-4-9-5-7(6,2)8-3/h6H,4-5H2,1-3H3	InChI=1S/C7H14O2/c1-6-4-9-5-7(6,2)8-3/h6H,4-5H2,1-3H3/t6-,7+/m1/s1
