15
gdb 79286	3.0689	1.67958	1.51213	2.7755	63.25	-0.2325	-0.0257	0.2068	890.7487	0.114358	-457.762568	-457.756078	-457.755133	-457.793333	26.344	
O	 0.0631949426	 1.3995105582	 0.134993264	-0.442126
C	 0.0421834496	 0.0005816971	 0.0407296201	 0.159199
C	-1.3548866132	-0.5708600522	-0.2426825205	-0.162561
C	-1.4367294542	-0.6073444811	-1.7318274102	 0.088693
O	-0.2151173756	-0.1054249888	-2.2686398099	-0.273954
C	 0.6945713386	-0.5671399278	-1.2508407037	-0.136427
C	 0.3190279187	-2.0611244304	-1.1164141845	 0.471034
O	 1.0230108409	-3.0315639044	-1.0707432625	-0.332195
C	-1.1661475045	-1.9112217475	-1.0029048781	-0.24791
H	-0.1949562758	 1.7379979266	-0.7321457745	 0.291507
H	 0.5030630218	-0.3976839234	 0.947795459	 0.11195
H	-2.2043422056	-0.3946588313	 0.4022581287	 0.116209
H	-2.3104946964	-0.4142004948	-2.3365586111	 0.126306
H	 1.7206086498	-0.3039915225	-1.4853419293	 0.109647
H	-1.8602632566	-2.7365243777	-0.9478635575	 0.120628
143.763	215.9292	298.6789	431.0038	441.3991	493.8386	558.4826	619.811	727.1618	759.9618	797.511	805.2725	839.9128	846.1217	891.2203	934.7801	969.1793	984.4889	1009.569	1035.9822	1065.8768	1074.066	1106.1883	1153.1695	1180.2466	1235.4487	1249.6753	1269.8466	1295.4403	1315.566	1373.8487	1436.271	1877.6828	3097.562	3192.8954	3220.7082	3231.6514	3240.7607	3776.5733
OC1C2C3OC1C(=O)C23	O[C@H]1[C@H]2[C@H]3O[C@@H]1C(=O)[C@@H]23	
InChI=1S/C6H6O3/c7-3-1-2-4(8)6(3)9-5(1)2/h1-3,5-7H	InChI=1S/C6H6O3/c7-3-1-2-4(8)6(3)9-5(1)2/h1-3,5-7H/t1-,2+,3-,5+,6-/m0/s1
