18
gdb 84902	2.78728	1.3646	1.0311	5.5162	77.47	-0.2697	-0.0069	0.2628	1158.3224	0.149134	-401.977631	-401.969241	-401.968297	-402.010615	31.755	
O	 0.1233799179	 1.4151139069	-0.133593965	-0.420909
C	 0.0260549479	-0.0005043979	-0.0277064059	 0.096
C	 0.7800301814	-0.5125196421	 1.1720603354	-0.113621
C	 0.1904773427	-0.9817769114	 2.2726052313	-0.039921
C	-1.301178514	-1.0833728286	 2.4469633679	-0.275144
C	-2.0669559352	-0.2656390544	 1.4006112191	-0.21442
C	-1.4494726977	-0.4885075997	 0.0044216325	-0.181799
C	-2.2422802947	 0.1492323979	-1.0464922264	 0.278866
N	-2.8946656691	 0.6337192828	-1.867893603	-0.3257
H	 0.0401228925	 1.7837376736	 0.7522489724	 0.284346
H	 0.4864108075	-0.3787112698	-0.9470804822	 0.107127
H	 1.8627376282	-0.4441453547	 1.1123263284	 0.103531
H	 0.80394635	-1.3265437603	 3.1018516744	 0.101203
H	-1.6004171974	-2.140820288	 2.3919139093	 0.122121
H	-1.5797430663	-0.7560856224	 3.4557323545	 0.117548
H	-3.1263428906	-0.5338590733	 1.394884999	 0.122447
H	-2.013961716	 0.8028715136	 1.6401709121	 0.113128
H	-1.4409797171	-1.5673317022	-0.2026717138	 0.125195
86.8566	141.5447	159.9585	251.3527	267.8136	304.1782	362.2221	417.9902	483.837	515.3928	555.9762	651.7168	717.3365	753.6372	814.7245	885.1433	905.0046	968.8582	1002.9722	1018.2826	1044.5737	1063.64	1081.3493	1090.7327	1166.1631	1216.1669	1239.3387	1266.9847	1309.1433	1324.3008	1340.7472	1367.8917	1392.4641	1408.6444	1426.9712	1473.1985	1496.6004	1716.541	2361.6341	3002.2666	3021.2862	3041.6824	3052.4129	3056.1658	3099.2777	3150.1903	3175.347	3811.9442
OC1C=CCCC1C#N	O[C@H]1C=CCC[C@H]1C#N	
InChI=1S/C7H9NO/c8-5-6-3-1-2-4-7(6)9/h2,4,6-7,9H,1,3H2	InChI=1S/C7H9NO/c8-5-6-3-1-2-4-7(6)9/h2,4,6-7,9H,1,3H2/t6-,7-/m0/s1
