23
gdb 118667	1.61487	1.00795	0.65436	2.1566	84.54	-0.2414	-0.0282	0.2133	1793.3417	0.201754	-425.438287	-425.426799	-425.425855	-425.476503	39.471	
C	-0.09948253	 1.5371549391	-0.1502381912	-0.383549
C	-0.0262428999	 0.0098177823	-0.0827784663	-0.171915
C	-1.4071427111	-0.6404988043	 0.0566931094	-0.19332
C	-1.3419128789	-2.1711752981	 0.1562868178	 0.033551
O	-0.6226652919	-2.5141616438	 1.3222578686	-0.253704
C	-0.1821891022	-3.8637094388	 1.3535263631	-0.044031
C	 0.5632926833	-4.0951135894	 2.6558874131	-0.3859
C	-2.762412198	-2.7273137439	 0.2212618756	 0.133027
O	-3.4646359709	-2.9199502057	-0.7362155424	-0.247336
H	 0.8973700805	 1.9769668865	-0.2529650322	 0.113748
H	-0.7004181733	 1.8706602962	-1.0036107548	 0.115373
H	-0.5539733671	 1.9525483047	 0.7560514243	 0.116291
H	 0.4619761757	-0.3770884513	-0.9869857158	 0.094235
H	 0.5961079155	-0.3004588749	 0.7624727703	 0.115655
H	-1.9112805002	-0.2535175236	 0.9520160766	 0.105062
H	-2.0392576723	-0.3875729802	-0.8023800001	 0.116341
H	-0.8546695207	-2.5757223759	-0.7455617309	 0.086539
H	-1.0391131204	-4.5524781511	 1.2726566587	 0.094523
H	 0.4707229174	-4.0619855468	 0.4880860445	 0.095328
H	 0.9268894715	-5.1255212113	 2.7080798973	 0.119117
H	 1.4198938874	-3.4194363233	 2.7317202279	 0.129131
H	-0.092838808	-3.9140365336	 3.5118271812	 0.128754
H	-3.1149775665	-2.9068191928	 1.2646075551	 0.08308
55.7792	60.0302	74.8289	93.5621	97.112	181.8679	198.2582	244.9079	245.9333	277.5509	317.0439	375.3895	419.9296	513.2994	588.7261	747.3089	820.8713	838.4073	872.9678	917.1801	949.1849	999.5988	1033.608	1055.7554	1081.2067	1112.4868	1139.0435	1157.3425	1183.8806	1188.2711	1255.8678	1275.7049	1298.5309	1323.056	1332.2195	1346.764	1389.2712	1395.1539	1404.8983	1414.1918	1437.0759	1476.0765	1483.116	1493.9209	1498.7283	1499.3481	1510.5731	1528.3057	1836.114	2858.3033	2963.8934	2982.082	2992.7532	3019.3739	3027.8615	3031.6984	3046.3686	3065.9198	3081.4338	3101.369	3103.801	3121.6218	3123.045
CCCC(OCC)C=O	CCC[C@@H](OCC)C=O	
InChI=1S/C7H14O2/c1-3-5-7(6-8)9-4-2/h6-7H,3-5H2,1-2H3	InChI=1S/C7H14O2/c1-3-5-7(6-8)9-4-2/h6-7H,3-5H2,1-2H3/t7-/m1/s1
