18
gdb 20077	4.5032	1.43407	1.28923	1.9094	66.69	-0.2472	0.083	0.3303	985.245	0.155411	-384.916373	-384.9089	-384.907956	-384.949451	27.2	
C	 0.3730212663	 1.4201666737	 0.0350845376	-0.186575
O	 1.1927670169	 0.2804079658	-0.2391734799	-0.232607
C	-0.192570381	 0.0649576144	 0.0477474107	 0.069639
C	-0.5331946442	-0.7020933517	 1.3053952397	-0.016878
C	-0.2145590862	-2.2247354166	 1.1978862501	-0.251202
C	 0.5778625446	-2.5225894872	 2.490973779	-0.073128
O	 0.3039494999	-1.4477480711	 3.3781214703	-0.244237
C	 0.2446841869	-0.2848660629	 2.5715798078	-0.114258
H	 0.5852900493	 1.9303047868	 0.9732378829	 0.117593
H	 0.1867823709	 2.0761920172	-0.8140071393	 0.117059
H	-0.7717739849	-0.2331713335	-0.828667479	 0.09338
H	-1.6057888491	-0.5721150016	 1.487233731	 0.083994
H	-1.132794288	-2.8140422865	 1.1455988789	 0.107734
H	 0.3787540948	-2.4490885293	 0.3078877279	 0.115718
H	 0.2811085669	-3.4498717504	 2.9875199478	 0.106796
H	 1.6566007273	-2.5749399364	 2.2755532054	 0.095639
H	 1.2566329373	 0.0505458274	 2.2947481306	 0.105633
H	-0.2465587576	 0.5000566518	 3.1517793785	 0.105699
30.2389	85.9301	204.0906	214.7098	286.2263	425.2754	572.1426	587.2643	675.4011	771.8119	834.2157	880.3934	899.6384	944.5126	963.6762	974.1651	993.2476	1057.9714	1083.174	1108.2632	1120.6606	1142.5094	1165.6919	1177.5458	1228.3005	1243.4287	1276.8646	1294.0327	1311.9875	1314.5887	1339.1759	1380.3945	1412.5445	1433.6614	1493.3168	1508.9897	1522.9761	1533.9565	2980.3705	2987.7996	3041.725	3066.1575	3084.4517	3088.9488	3090.7391	3097.6049	3115.4596	3171.5037
C1OC1C1CCOC1	C1O[C@H]1[C@H]1CCOC1	
InChI=1S/C6H10O2/c1-2-7-3-5(1)6-4-8-6/h5-6H,1-4H2	InChI=1S/C6H10O2/c1-2-7-3-5(1)6-4-8-6/h5-6H,1-4H2/t5-,6+/m0/s1
