17
gdb 35443	2.42103	1.41405	1.09552	0.9184	86.58	-0.2369	0.0286	0.2655	1150.8866	0.134074	-347.45964	-347.451133	-347.450189	-347.492569	33.114	
C	 0.0249501332	-1.2381668183	-0.0881576138	-0.464929
C	 0.0137008703	-0.0366830941	-0.0314560423	 0.335761
C	 0.0122077495	 1.4101169501	 0.0679431263	-0.25647
C	-0.2190564899	 2.0648444563	 1.482632438	-0.243365
C	 1.131439958	 2.7721704405	 1.370538352	-0.108568
C	 2.2312385187	 1.7759308998	 1.1785113968	-0.330108
C	 1.3833735272	 2.1410605976	-0.0188861222	 0.212863
C	 1.9065800716	 2.7163150199	-1.2081359116	 0.189014
C	 2.3234103433	 3.1994008864	-2.2292927716	-0.415865
H	 0.0318329151	-2.29802743	-0.1525720037	 0.197095
H	-0.6811894692	 1.8372223861	-0.6607035122	 0.113171
H	-1.0737320606	 2.7430123542	 1.4741869991	 0.113914
H	-0.3234919944	 1.3658250004	 2.3164329896	 0.112225
H	 1.3304684301	 3.794721503	 1.6650653167	 0.105194
H	 3.2360930464	 2.1822055139	 1.1538775449	 0.129039
H	 2.1532300041	 0.7754876265	 1.596833384	 0.125075
H	 2.6982812268	 3.6234595677	-3.12737337	 0.185955
89.234	130.0238	157.021	204.7647	295.5276	396.3519	446.1312	466.7406	530.2288	535.3421	567.4141	623.21	630.8851	642.8109	649.201	713.401	804.0999	839.3401	869.145	946.075	969.8736	1022.7017	1036.1619	1053.1282	1082.6278	1090.8891	1152.4601	1191.4399	1206.1303	1263.7775	1279.4745	1337.1603	1383.1442	1479.4695	1498.177	2228.3822	2232.8126	3066.3559	3076.2166	3117.4904	3125.8186	3195.3383	3217.9826	3503.474	3504.1605
C#CC1CC2CC12C#C	C#C[C@H]1C[C@H]2C[C@@]12C#C	
InChI=1S/C9H8/c1-3-7-5-8-6-9(7,8)4-2/h1-2,7-8H,5-6H2	InChI=1S/C9H8/c1-3-7-5-8-6-9(7,8)4-2/h1-2,7-8H,5-6H2/t7-,8-,9-/m0/s1
