17
gdb 74309	2.46533	1.38998	0.89867	2.4136	80.75	-0.2239	-0.0262	0.1976	1259.2641	0.13597	-418.06069	-418.052181	-418.051237	-418.094045	31.282	
C	-0.0223507002	 1.4886548843	 0.066735017	-0.488777
C	 0.0032638637	-0.0011265991	 0.0005963113	 0.227855
C	-0.0121397986	-0.7695891845	-1.0895780612	-0.094199
N	 0.0221681887	-2.1490846642	-0.7627557005	-0.126
C	 0.0153963263	-3.1479252431	-1.7071877831	 0.151678
O	-0.0204496601	-2.9512558605	-2.9005589607	-0.314224
C	 0.0633350013	-2.3039526637	 0.653492782	 0.397359
N	 0.1015693012	-3.3551710318	 1.3574950011	-0.52582
C	 0.0528343336	-0.8910929333	 1.2211110562	-0.388066
H	 0.8648877201	 1.8796271628	 0.5806567868	 0.13246
H	-0.0584491977	 1.9318601738	-0.9318151611	 0.133652
H	-0.8932624412	 1.8472009618	 0.6298568978	 0.132442
H	-0.0453947683	-0.5060194656	-2.135444224	 0.155772
H	 0.0462680759	-4.156418584	-1.2604829877	 0.087961
H	 0.1023457229	-4.2136000641	 0.8078836225	 0.224295
H	 0.9443351114	-0.7243047203	 1.8375680356	 0.146805
H	-0.809280109	-0.7565184284	 1.885369308	 0.146806
88.5591	126.5899	186.5071	194.2402	211.8862	297.5166	341.4016	412.0413	460.8128	556.2833	573.11	590.9314	679.8548	859.6817	869.4533	879.2953	904.5284	955.1488	981.909	1014.6488	1035.9949	1064.7424	1146.3721	1167.4331	1224.5084	1247.9011	1278.6823	1336.0834	1396.0314	1423.3081	1442.6307	1451.0755	1476.6489	1490.9064	1726.3405	1757.6628	1793.6668	2983.3177	3018.3706	3037.9732	3063.6703	3066.2182	3115.2253	3265.882	3488.7901
CC1=CN(C=O)C(=N)C1	CC1=CN(C=O)[C]([NH])C1	
InChI=1S/C6H8N2O/c1-5-2-6(7)8(3-5)4-9/h3-4,7H,2H2,1H3	InChI=1S/C6H8N2O/c1-5-2-6(7)8(3-5)4-9/h3-4,7H,2H2,1H3
