17
gdb 92953	2.10794	1.70364	1.40262	2.6636	69.07	-0.2446	-0.0371	0.2075	1006.3738	0.134565	-458.974294	-458.96569	-458.964746	-459.008056	32.266	
O	 0.0060011314	 1.2797134289	-0.1317071687	-0.444063
C	-0.0453171701	-0.1371639128	 0.0170602607	 0.066937
C	 0.5225120295	-0.6049418039	 1.3714711907	-0.293467
C	-0.7085535066	-0.6515234837	 2.2509689344	-0.075781
C	-1.833377451	-0.6335271452	 1.5366559933	-0.13848
C	-1.5499884179	-0.5887897397	 0.0421406383	 0.251284
O	-2.3921930485	 0.2763521081	-0.6865227622	-0.486366
C	-1.7108853583	-1.982303356	-0.5674931446	 0.126653
O	-0.9217122733	-2.8798498072	-0.4202428955	-0.255732
H	-0.2393529228	 1.6694500692	 0.7169696937	 0.290196
H	 0.4892274778	-0.5439875787	-0.8422430541	 0.105599
H	 0.9700382627	-1.6000115613	 1.2749176812	 0.145528
H	 1.3053763193	 0.0730497903	 1.7301493208	 0.107524
H	-0.6548294483	-0.7206517	 3.3318519149	 0.106495
H	-2.8464286645	-0.6800933481	 1.9174353168	 0.110483
H	-1.8801927459	 1.0909108936	-0.8031222231	 0.287488
H	-2.6320264035	-2.0908254936	-1.1804680265	 0.095701
34.7442	118.7522	178.1632	219.2333	321.0542	337.0949	346.2425	400.5633	454.0146	479.4696	592.1554	615.4107	661.0585	754.7061	769.2472	828.571	880.922	942.7872	955.2591	978.4288	1007.8413	1057.2713	1082.5577	1107.5478	1134.2333	1180.1173	1182.9655	1261.4555	1297.305	1315.3964	1362.7319	1385.6821	1397.8266	1424.1041	1475.021	1667.5419	1823.5442	2903.1359	3041.1407	3079.9763	3114.1728	3189.7558	3218.2076	3710.6511	3779.1082
OC1CC=CC1(O)C=O	O[C@H]1CC=C[C@]1(O)C=O	
InChI=1S/C6H8O3/c7-4-6(9)3-1-2-5(6)8/h1,3-5,8-9H,2H2	InChI=1S/C6H8O3/c7-4-6(9)3-1-2-5(6)8/h1,3-5,8-9H,2H2/t5-,6-/m0/s1
