15
gdb 62343	3.6618	1.18214	1.14383	4.5078	71.	-0.2716	-0.0418	0.2298	1088.5232	0.111442	-416.797097	-416.789017	-416.788073	-416.829673	29.958	
C	 0.0043211123	 1.5170411555	 0.0470702463	-0.4749
C	 0.0427784323	 0.0042661949	-0.0862026449	 0.133741
C	-1.1338707973	-0.6361637319	 0.4766035954	 0.276013
N	-2.0980045165	-1.1098626059	 0.9018866834	-0.32495
C	 0.6930568759	-0.7518822252	-1.1881470492	-0.051518
C	 1.9265071094	-0.0510712402	-1.7490175202	-0.394639
C	 2.4106099558	-0.0232553921	-0.2894138301	 0.398539
O	 3.3676363383	 0.367639038	 0.2935417792	-0.272867
N	 1.2797956148	-0.8056900348	 0.2222734162	-0.195903
H	 0.860903396	 1.9966863376	-0.4279956665	 0.145984
H	-0.9092743672	 1.9027805177	-0.4133111212	 0.152855
H	-0.0003684615	 1.795706372	 1.1041145321	 0.164185
H	 0.2327836851	-1.6360639699	-1.611239789	 0.136965
H	 2.5477505504	-0.7159177842	-2.3548165411	 0.159671
H	 1.8077001024	 0.9015010185	-2.2689739204	 0.146825
120.8766	136.5718	167.2115	189.9965	275.6917	339.4942	411.5664	461.0134	525.5598	566.8397	579.8898	642.5481	682.5334	799.8906	835.5967	888.8549	959.7495	987.1878	1015.4597	1024.6715	1062.0581	1095.1768	1145.9453	1220.3155	1233.7821	1278.8577	1376.3891	1423.2018	1452.45	1482.9533	1496.5603	1929.8149	2363.9937	3057.9641	3077.2763	3127.8572	3131.6544	3148.2731	3201.7358
CC1(C#N)C2CC(=O)N12	C[C@@]1(C#N)[C@H]2CC(=O)N12	
InChI=1S/C6H6N2O/c1-6(3-7)4-2-5(9)8(4)6/h4H,2H2,1H3	InChI=1S/C6H6N2O/c1-6(3-7)4-2-5(9)8(4)6/h4H,2H2,1H3/t4-,6-,8?/m1/s1
