13
gdb 25320	2.30843	1.59385	0.94286	6.626	78.74	-0.2413	-0.0595	0.1818	1136.6943	0.089556	-415.625882	-415.618206	-415.617262	-415.658333	28.065	
O	-0.0535682595	-0.088416484	-0.0022465986	-0.260919
C	 0.0002544655	 1.1182563198	 0.0082781804	 0.063917
C	 1.2343676422	 1.9100662834	 0.0013261068	 0.078534
C	 1.2989839699	 3.3026702545	 0.0131687991	 0.148668
N	 2.6460232546	 3.58763429	 0.0008933484	-0.330424
C	 3.3155040189	 2.3962371382	-0.0181891931	 0.018347
N	 2.5003781669	 1.3736918374	-0.0182378189	-0.277803
C	 0.3063609519	 4.2980953352	 0.0336743227	 0.280732
C	-0.5352297425	 5.1601213244	 0.051079979	-0.432423
H	-0.9199978625	 1.7425332373	 0.0245322649	 0.075832
H	 3.0448498244	 4.5129377877	 0.0051515738	 0.280093
H	 4.3945537612	 2.3483647557	-0.0309656723	 0.148135
H	-1.2875419509	 5.9100944004	 0.0659507878	 0.207311
121.9926	132.4871	164.0143	223.7417	282.5752	427.7915	456.7381	562.0955	574.9305	578.5617	600.0726	675.4495	687.203	735.6961	816.13	845.1804	953.5048	1034.1373	1086.6605	1128.5061	1264.6887	1321.8044	1381.1985	1398.8893	1450.3563	1514.1951	1568.1638	1802.6794	2229.1729	2891.1025	3252.2896	3497.2632	3651.1686
O=CC1=C(NC=N1)C#C	O=Cc1c([nH]cn1)C#C	
InChI=1S/C6H4N2O/c1-2-5-6(3-9)8-4-7-5/h1,3-4H,(H,7,8)	InChI=1S/C6H4N2O/c1-2-5-6(3-9)8-4-7-5/h1,3-4H,(H,7,8)
