21
gdb 57435	2.44714	1.30923	1.09859	1.5705	84.8	-0.2507	0.0377	0.2884	1219.1496	0.179554	-387.049177	-387.039197	-387.038253	-387.083208	38.94	
C	-0.0153813087	 1.5666130063	-0.0663426313	-0.401413
C	 0.032594091	 0.0416345431	 0.0792430794	 0.343578
C	 0.6956939771	-0.3290030345	 1.4155219913	-0.442976
O	-1.3356444084	-0.3740560024	 0.0802493076	-0.46814
C	 0.7372277691	-0.5445966775	-1.1551766288	-0.024346
C	 2.0673469348	-1.2389940045	-1.1361169131	-0.310632
C	 0.8116761594	-2.043577146	-1.4392857385	-0.197808
C	 0.300749677	-3.0219465315	-0.5229488603	 0.314271
C	-0.163154274	-3.8566773575	 0.2117889066	-0.463327
H	 0.9935962401	 1.9835678637	-0.1374098753	 0.112097
H	-0.574035355	 1.8416844475	-0.9654602624	 0.119655
H	-0.5193410825	 2.0111457111	 0.7962299245	 0.118704
H	 0.0893027045	 0.0789659894	 2.2288399557	 0.119895
H	 0.7600834278	-1.411602977	 1.552763512	 0.125512
H	 1.7036669836	 0.08992967	 1.4949061746	 0.111205
H	-1.3419373681	-1.3361735476	 0.1580356732	 0.282758
H	 0.5274925545	 0.0289685685	-2.0537690613	 0.092752
H	 2.761028525	-1.0721027628	-1.9528095369	 0.1186
H	 2.5374566618	-1.4199093251	-0.177381436	 0.130428
H	 0.6662583483	-2.3136101646	-2.4814175475	 0.117348
H	-0.5515391875	-4.6000019886	 0.8633438367	 0.20184
76.5991	125.3348	187.8745	219.2005	238.3767	280.7821	288.7499	337.7104	358.	418.0303	429.4864	460.16	481.7582	537.0604	588.3442	644.0938	653.0707	711.533	771.4694	842.3845	870.945	925.4455	936.6891	976.5934	1005.2246	1018.4421	1052.507	1080.0146	1126.489	1140.0131	1163.5524	1203.9683	1218.4981	1279.5244	1360.1451	1381.3016	1390.6058	1416.5938	1421.2036	1477.9324	1485.4076	1494.6068	1500.7349	1515.6259	2223.6567	3038.9387	3043.9504	3112.3167	3117.7436	3120.6926	3124.194	3138.5996	3142.4209	3149.9046	3235.5727	3500.14	3774.6698
CC(C)(O)C1CC1C#C	CC(C)(O)[C@H]1C[C@H]1C#C	
InChI=1S/C8H12O/c1-4-6-5-7(6)8(2,3)9/h1,6-7,9H,5H2,2-3H3	InChI=1S/C8H12O/c1-4-6-5-7(6)8(2,3)9/h1,6-7,9H,5H2,2-3H3/t6-,7+/m1/s1
