15
gdb 75728	2.57693	1.55545	1.00049	3.5963	70.64	-0.2533	-0.0925	0.1608	1123.9471	0.110868	-457.812157	-457.803558	-457.802614	-457.8458	30.757	
C	-0.1046844523	 1.4960285754	 0.0555467631	-0.493426
C	-0.0040378425	 0.0147270218	-0.0419090348	 0.208997
C	-0.0921253025	-0.7852138544	-1.1248407304	-0.272871
C	 0.1230822745	-2.1982530134	-0.7483267586	 0.340094
O	 0.3711135589	-3.1414930887	-1.4643357768	-0.331698
C	 0.0640984082	-2.2821383721	 0.7804785681	-0.056676
O	 0.9736664087	-3.1856520129	 1.3300999742	-0.422415
C	 0.2825957052	-0.8172328454	 1.1800666364	 0.307555
O	 0.6218279088	-0.3861703789	 2.2515961302	-0.293237
H	 0.7476279515	 1.889017993	 0.6192324475	 0.165353
H	-0.1490428825	 1.9718166002	-0.9259071989	 0.136733
H	-0.9996289994	 1.7772812345	 0.6233973384	 0.156941
H	-0.2486415514	-0.4711637909	-2.1504666016	 0.136356
H	-0.9804770095	-2.5277344913	 1.0535457729	 0.118378
H	 1.1207308942	-3.8594445469	 0.6509283305	 0.299914
69.4705	98.4803	155.414	224.6714	251.4822	277.1977	351.2496	362.0499	437.9775	513.9951	577.2002	624.5366	697.4323	699.5499	832.7354	880.5199	928.6093	966.4741	1036.0224	1060.7883	1135.3374	1175.201	1199.4877	1241.4075	1320.1153	1345.7485	1399.7953	1407.9139	1465.7408	1471.9679	1659.3728	1804.6008	1849.5478	2924.9433	3038.4052	3094.2096	3137.5294	3206.2153	3742.1937
CC1=CC(=O)C(O)C1=O	CC1=CC(=O)[C@@H](O)C1=O	
InChI=1S/C6H6O3/c1-3-2-4(7)6(9)5(3)8/h2,6,9H,1H3	InChI=1S/C6H6O3/c1-3-2-4(7)6(9)5(3)8/h2,6,9H,1H3/t6-/m1/s1
