18
gdb 93593	4.754	0.98078	0.84082	5.6065	80.13	-0.2396	-0.0319	0.2077	1349.039	0.148932	-398.161378	-398.152365	-398.151421	-398.196077	32.448	
C	-0.0407572081	 1.5448770485	 0.0132973554	-0.403986
C	 0.005326232	 0.0169429585	 0.0099058609	-0.002001
C	 0.6671200458	-0.5246384153	-1.2642614479	-0.161789
N	 0.8182787127	-1.9656407654	-1.1496570243	-0.357917
C	 0.9817411706	-2.5491772408	 0.0804238603	 0.28396
N	 0.9613571414	-1.9841087065	 1.2266072334	-0.309435
C	 0.7466818688	-0.5397475732	 1.2376913493	-0.163463
C	 1.1871630643	-3.9862067084	 0.0258459893	 0.261279
N	 1.3520714257	-5.1266629764	-0.0609653963	-0.323375
H	 0.9687695143	 1.9701617851	-0.0244472778	 0.120773
H	-0.5994345688	 1.9309142834	-0.8457778447	 0.117274
H	-0.5248734324	 1.9188435702	 0.9207184548	 0.125014
H	-1.0206203886	-0.3725816215	 0.036342681	 0.094557
H	 0.0526346643	-0.3024341446	-2.1428881449	 0.117029
H	 1.6424282248	-0.0366720808	-1.4145575774	 0.111885
H	 0.9355167905	-2.5297146022	-1.9738328068	 0.262767
H	 1.7254467951	-0.0456280514	 1.3374622206	 0.111937
H	 0.1919646877	-0.2917006891	 2.1494458852	 0.115491
21.824	133.0321	153.9677	205.0036	212.6588	261.4855	300.7849	393.7429	419.4381	450.7963	508.3918	600.6283	635.6426	720.0439	803.2806	885.346	919.3703	940.4562	974.1369	1050.5548	1078.3731	1140.8371	1163.4142	1172.8795	1220.7217	1262.7953	1295.3426	1318.8633	1328.3873	1369.9515	1405.7681	1417.0144	1480.7955	1496.7574	1498.7793	1505.0694	1539.3252	1704.6725	2360.863	2984.7702	2994.0535	3025.4196	3030.8923	3057.3951	3067.811	3096.4399	3105.5798	3659.8525
CC1CNC(=NC1)C#N	C[C@H]1CNC(=NC1)C#N	
InChI=1S/C6H9N3/c1-5-3-8-6(2-7)9-4-5/h5H,3-4H2,1H3,(H,8,9)	InChI=1S/C6H9N3/c1-5-3-8-6(2-7)9-4-5/h5H,3-4H2,1H3,(H,8,9)
