17
gdb 88885	3.76047	0.96874	0.83747	3.8371	75.03	-0.233	-0.0566	0.1764	1352.2855	0.134622	-455.13142	-455.122306	-455.121361	-455.16583	33.583	
N	-0.0362837608	 0.5962988816	 1.0607365046	-0.552192
C	-0.2022025651	-0.2449445191	-0.0005511023	 0.267018
C	 1.0783240959	-0.8393595346	-0.5204691784	 0.147302
O	 2.1514057927	-0.6552227947	 0.0014090663	-0.269396
N	-1.2488951035	-0.5895437318	-0.6587298696	-0.296542
C	-2.5441003235	-0.0453643947	-0.3832061265	 0.018357
C	-3.6838570698	-0.9796739198	-0.0410006088	-0.328118
C	-3.2317760749	 0.0593639175	 0.9582983875	 0.054076
O	-2.5129721891	-0.3393103894	 2.0939879614	-0.420119
H	 0.8917937194	 0.5540091865	 1.4606315348	 0.261953
H	-0.801612695	 0.6659593608	 1.7166717024	 0.2769
H	 0.9342869893	-1.4629061968	-1.4222138941	 0.105718
H	-2.7920128395	 0.7559425692	-1.0785789841	 0.110329
H	-4.6449416782	-0.8703736337	-0.5311619562	 0.113543
H	-3.3856485559	-2.0000194306	 0.1771201043	 0.124709
H	-3.8738006198	 0.9260742286	 1.1178137993	 0.090319
H	-3.1177400122	-0.761089499	 2.7128078192	 0.296142
42.9742	92.0501	169.3412	208.8875	256.6569	280.5193	311.1045	355.3623	421.4901	472.6959	516.4036	590.0595	633.3884	660.1538	739.3013	769.7956	800.7757	848.555	940.5663	1011.1684	1027.955	1033.0806	1066.9832	1107.9557	1125.149	1161.6028	1191.8799	1245.9255	1287.9743	1354.4692	1371.4384	1395.4386	1415.7413	1480.3939	1630.9128	1730.6048	1808.4189	2975.3476	3091.0353	3109.408	3130.8706	3224.172	3541.1217	3653.6824	3809.432
NC(C=O)=NC1CC1O	NC(=N[C@H]1C[C@H]1O)C=O	
InChI=1S/C5H8N2O2/c6-5(2-8)7-3-1-4(3)9/h2-4,9H,1H2,(H2,6,7)	InChI=1S/C5H8N2O2/c6-5(2-8)7-3-1-4(3)9/h2-4,9H,1H2,(H2,6,7)/t3-,4+/m0/s1
