22
gdb 83865	1.94636	1.86055	1.27221	2.1103	81.63	-0.2101	0.0671	0.2772	1108.9027	0.195688	-404.32633	-404.317472	-404.316528	-404.359512	34.62	
C	-0.4490113367	 1.4395712209	 0.0891414413	-0.416734
C	-0.0830872364	-0.0204727398	-0.0518562635	 0.021609
C	 0.6063816418	-0.6143289747	-1.2322365731	-0.03483
C	 1.1047759609	 0.1782382487	-2.4335460861	 0.107974
O	-0.0239490131	 0.8076000478	-3.0382891714	-0.436433
C	 2.2356796529	 1.1731799408	-2.1148913993	-0.243783
C	 3.181820786	 0.6012892785	-1.0561628573	-0.203437
C	 2.4180907897	 0.3595922071	 0.2479407324	-0.14327
N	 1.2799039631	-0.5555868785	 0.0793122217	-0.125561
H	-1.4811437161	 1.5818616917	-0.2451048964	 0.128794
H	-0.3926833358	 1.7509808508	 1.1391897163	 0.114636
H	 0.1728745506	 2.1104150603	-0.5018328275	 0.126824
H	-0.8110819583	-0.6691732836	 0.4370453369	 0.083285
H	 0.3098373032	-1.6265417258	-1.50407216	 0.08496
H	 1.5219559839	-0.5673905583	-3.1302439833	 0.069094
H	 0.2710820041	 1.2102860463	-3.8623648756	 0.278171
H	 2.775620273	 1.4083522317	-3.0403521597	 0.085949
H	 1.804982311	 2.1144406317	-1.7566214849	 0.10803
H	 3.6116461832	-0.3455660312	-1.4085616608	 0.103264
H	 4.0205713837	 1.2817739011	-0.8740038338	 0.096555
H	 3.0854275774	-0.0870522601	 0.9939966638	 0.100896
H	 2.093469492	 1.3258659344	 0.65815053	 0.094006
95.519	117.8681	178.0651	214.6311	292.4065	303.7605	330.699	408.7598	418.3534	450.5274	514.4302	602.8493	670.1176	709.9127	765.1561	779.9298	891.8447	905.0469	924.0402	955.6398	1019.0974	1041.6184	1057.9398	1081.2867	1084.3924	1112.8012	1140.3766	1175.5742	1183.9172	1201.4047	1226.5876	1259.0609	1281.7214	1338.339	1357.9229	1370.2602	1373.2965	1385.8112	1395.8727	1419.8799	1438.6242	1448.0052	1481.3469	1487.7074	1490.3621	1506.2033	1520.3827	2953.9497	3008.9863	3021.9532	3028.8189	3035.5397	3047.7134	3068.7312	3078.8805	3084.5879	3098.0495	3103.6155	3157.3599	3799.531
CC1C2C(O)CCCN12	C[C@H]1[C@H]2[C@@H](O)CCCN12	
InChI=1S/C7H13NO/c1-5-7-6(9)3-2-4-8(5)7/h5-7,9H,2-4H2,1H3	InChI=1S/C7H13NO/c1-5-7-6(9)3-2-4-8(5)7/h5-7,9H,2-4H2,1H3/t5-,6-,7-,8?/m0/s1
