19
gdb 65776	2.59399	1.26621	1.0825	3.6535	71.45	-0.2422	-0.0168	0.2253	1193.6105	0.156929	-460.178474	-460.169152	-460.168207	-460.213453	33.324	
C	 0.0245397437	 1.5154536586	-0.0023190986	-0.41726
C	 0.013195258	-0.0133868252	 0.02452912	 0.429153
C	-1.4070641383	-0.580726595	 0.1030714459	-0.311905
C	-1.4259850218	-2.0779036161	 0.3362404881	 0.166786
O	-2.2282943118	-2.6407328883	 1.0348441648	-0.247405
O	 0.6421220469	-0.5587368706	-1.1271132943	-0.281248
C	 2.0152976646	-0.7256842621	-0.8050908439	-0.11867
C	 1.973501453	-1.0850408992	 0.6847323174	-0.095038
O	 0.7727052703	-0.4750117718	 1.1479093162	-0.298391
H	 1.0466923085	 1.8865545417	-0.1143170585	 0.119266
H	-0.5771537673	 1.8884656794	-0.8356787889	 0.124274
H	-0.3807176107	 1.9093065596	 0.933160615	 0.131905
H	-1.9794108206	-0.0936697846	 0.8960090484	 0.129202
H	-1.9084021112	-0.376543894	-0.8520390914	 0.1353
H	-0.6450261911	-2.6421572151	-0.2166851763	 0.081531
H	 2.4235989953	-1.5158610163	-1.438682925	 0.121827
H	 2.5812919301	 0.1993535872	-0.9831262117	 0.105186
H	 1.9233943213	-2.170571353	 0.8384275367	 0.11167
H	 2.8268347411	-0.6898683654	 1.2450729561	 0.113818
52.8012	76.9311	98.2737	168.1677	215.1422	225.9606	311.1412	340.9612	389.743	447.7467	560.29	667.2786	674.9912	766.9797	813.2846	867.7571	894.4413	942.1262	954.7029	1009.5381	1027.7213	1068.828	1086.4099	1136.7806	1152.9999	1160.4195	1223.8518	1236.7309	1251.0657	1273.7698	1328.6138	1377.3818	1383.4728	1405.3616	1424.6489	1439.5973	1483.1913	1486.7443	1519.0888	1531.0254	1836.1893	2904.9034	3005.9291	3019.8227	3037.9515	3048.631	3075.406	3109.1278	3114.5044	3125.1935	3130.2151	52.802	76.9311	98.2735	168.1678	215.1425	225.9602	311.1415	340.9613	389.7431	447.7465	560.2901	667.2785	674.9911	766.9796	813.2846	867.7572	894.4412	942.1262	954.7029	1009.5381	1027.7212	1068.8282	1086.4102	1136.7804	1152.9999	1160.4193	1223.8515	1236.7306	1251.0654	1273.7698	1328.6137	1377.3814	1383.4726	1405.3617	1424.6485	1439.5973	1483.1915	1486.7446	1519.0882	1531.025	1836.1886	2904.9032	3005.9292	3019.8227	3037.9515	3048.631	3075.406	3109.128	3114.5044	3125.1935	3130.2151
CC1(CC=O)OCCO1	CC1(CC=O)OCCO1	
InChI=1S/C6H10O3/c1-6(2-3-7)8-4-5-9-6/h3H,2,4-5H2,1H3	InChI=1S/C6H10O3/c1-6(2-3-7)8-4-5-9-6/h3H,2,4-5H2,1H3
