20
gdb 96046	2.69142	1.24266	0.98549	2.3078	75.83	-0.2459	0.0287	0.2746	1242.4611	0.171802	-440.317542	-440.308357	-440.307413	-440.352545	33.144	
C	-0.5756344934	 1.1831583225	 0.443916015	-0.414552
C	 0.1201868224	-0.135555894	 0.1191374758	-0.007096
C	 1.09207658	-0.0764164144	-1.0884920937	-0.084983
O	 2.268119985	-0.8092675979	-0.7234416656	-0.267394
C	 1.9447229481	-1.6120179958	 0.4061842281	-0.108934
C	 1.0229853207	-0.7224154112	 1.2394697452	 0.015786
N	 1.8084716043	 0.2802031462	 1.9434883572	-0.273739
C	 1.5144526009	 0.7096544505	 3.1985303764	 0.154262
O	 0.5681035861	 0.3374417258	 3.8610495622	-0.330274
H	 0.1536618467	 1.9741566418	 0.6433520104	 0.114506
H	-1.2032803184	 1.5079311795	-0.3922567629	 0.1156
H	-1.2117604274	 1.0845042138	 1.3281618803	 0.140341
H	-0.6444781407	-0.894025391	-0.0853314146	 0.086487
H	 0.6417078473	-0.5097784115	-1.9915655848	 0.100615
H	 1.39901457	 0.9493731778	-1.3237794743	 0.103622
H	 1.4239574963	-2.5363032237	 0.1092554521	 0.096493
H	 2.8755527573	-1.879941165	 0.9121968988	 0.113831
H	 0.4432007312	-1.2570571186	 1.992458453	 0.115696
H	 2.6158451068	 0.660816828	 1.4735699093	 0.254318
H	 2.2534251969	 1.4510071572	 3.5627764621	 0.075416
38.9924	68.6307	133.0035	196.6781	219.9929	227.3897	287.0896	335.4778	414.9587	517.007	572.8516	668.4803	710.4909	750.3824	853.0003	908.1832	931.7178	953.3264	956.2032	983.6606	1029.3999	1053.0903	1075.0111	1118.2813	1158.458	1178.3994	1200.9196	1230.1705	1251.2365	1263.3188	1318.0431	1344.566	1367.3349	1368.8651	1401.6302	1417.1085	1429.4102	1495.4643	1499.5368	1510.9531	1522.0146	1529.2569	1799.8615	2934.3084	2979.5469	3008.1741	3033.3439	3039.3734	3057.9832	3099.8781	3105.9733	3116.7512	3123.4046	3623.6919
CC1COCC1NC=O	C[C@H]1COC[C@H]1NC=O	
InChI=1S/C6H11NO2/c1-5-2-9-3-6(5)7-4-8/h4-6H,2-3H2,1H3,(H,7,8)	InChI=1S/C6H11NO2/c1-5-2-9-3-6(5)7-4-8/h4-6H,2-3H2,1H3,(H,7,8)/t5-,6+/m0/s1
