13
gdb 133182	2.46761	1.75978	1.03374	3.8054	64.09	-0.2653	-0.0739	0.1914	1047.0612	0.08775	-497.842567	-497.834977	-497.834033	-497.874928	27.617	
C	-0.0212604577	 1.5005855237	 0.0270233668	-0.480024
C	-0.0056103462	 0.0023921693	-0.0061900417	 0.080532
C	-0.0348463201	-0.7167356351	-1.1482478342	 0.049997
O	-0.022733882	-2.0578865635	-1.236170108	-0.225795
N	 0.0229049585	-2.8343633852	-0.0967010087	-0.122506
C	 0.0520258836	-2.2008700011	 1.0191879572	 0.257084
F	 0.0961796253	-2.9563718687	 2.0929549496	-0.023127
C	 0.0435880428	-0.73298836	 1.2463598921	 0.214894
O	 0.074048775	-0.2468830968	 2.3624709795	-0.342812
H	 0.869756097	 1.8790638995	 0.5380251075	 0.155386
H	-0.0607487096	 1.9268337867	-0.978070741	 0.125802
H	-0.8831269156	 1.8592978056	 0.5986408205	 0.155444
H	-0.0721736309	-0.2860115042	-2.1432341297	 0.155125
94.446	136.205	253.0876	261.0503	312.5225	318.8421	461.3919	472.9391	522.8603	540.5546	585.9071	678.9752	797.566	860.5111	920.8601	959.1221	985.2461	1065.3332	1081.0439	1179.1853	1314.0584	1368.4821	1417.4987	1438.4384	1468.8229	1486.5315	1634.5208	1665.396	1758.8564	3043.7284	3102.6325	3129.5571	3201.6043
CC1=CON=C(F)C1=O	Cc1conc(F)c1=O	
InChI=1S/C5H4FNO2/c1-3-2-9-7-5(6)4(3)8/h2H,1H3	InChI=1S/C5H4FNO2/c1-3-2-9-7-5(6)4(3)8/h2H,1H3
