19
gdb 74178	2.34964	1.62637	1.07333	4.1351	84.15	-0.2296	-0.0423	0.1873	1151.2945	0.160255	-385.927125	-385.919024	-385.91808	-385.959759	31.517	
C	 0.1081949335	 1.4680989944	 0.0540683403	-0.484805
C	 0.0061880996	-0.0294604486	-0.0023390383	 0.348103
C	 0.0454871359	-0.7075445865	-1.1659720386	-0.278532
C	-0.0944501956	-2.1664273296	-1.2670821945	 0.362338
O	 0.1076139737	-2.7621535292	-2.3092138449	-0.344326
C	-0.5858518007	-2.9168104407	-0.0263659467	-0.339642
C	-0.336369053	-2.2271635507	 1.2984250827	-0.0401
C	 1.0196365026	-1.7101978389	 1.673481852	-0.287404
C	-0.0914087044	-0.7312054447	 1.2984565381	-0.12485
H	 0.9645106108	 1.7758249326	 0.6668311283	 0.137929
H	 0.213652175	 1.9066868642	-0.9404747692	 0.132585
H	-0.7832839174	 1.8970014345	 0.5290981383	 0.135342
H	 0.1931764437	-0.1908396131	-2.1096018611	 0.095944
H	-1.6672828598	-3.0479186421	-0.1698332003	 0.129675
H	-0.1527082891	-3.9216477679	-0.0492338495	 0.129526
H	-0.937819352	-2.6000647327	 2.1219944902	 0.093914
H	 1.3186276565	-1.7578266737	 2.7148152174	 0.118159
H	 1.8306425073	-1.8158269772	 0.9604707218	 0.128306
H	-0.5077752267	-0.1468568399	 2.113054044	 0.087838
86.0582	147.6219	187.3102	241.0709	301.2753	328.4486	463.9213	471.2557	490.6893	545.2619	621.9442	648.1711	769.7148	814.2129	832.2765	871.1943	890.7818	901.9358	997.657	1001.1	1032.1618	1057.102	1064.5185	1080.1341	1120.0109	1128.7111	1161.9559	1213.1217	1229.8181	1257.9595	1312.2172	1338.7417	1397.5284	1407.5059	1428.7024	1456.2901	1476.2298	1482.187	1488.0106	1679.2095	1761.4485	3021.9557	3023.4131	3071.0152	3082.1988	3126.1333	3131.4368	3145.4151	3156.5863	3177.7468	3222.4741
CC1=CC(=O)CC2CC12	CC1=CC(=O)C[C@H]2C[C@@H]12	
InChI=1S/C8H10O/c1-5-2-7(9)3-6-4-8(5)6/h2,6,8H,3-4H2,1H3	InChI=1S/C8H10O/c1-5-2-7(9)3-6-4-8(5)6/h2,6,8H,3-4H2,1H3/t6-,8-/m0/s1
