20
gdb 37625	2.71883	2.17204	1.99002	1.5254	79.26	-0.2318	0.0897	0.3215	845.4631	0.176557	-365.996132	-365.990222	-365.989278	-366.025898	26.561	
C	-0.0296093494	 1.5695257934	 0.0597826587	-0.22231
C	 1.4760083024	 1.8465073235	 0.0305765894	-0.069148
C	 2.0246903512	 0.8241998591	 1.0518050924	-0.053131
C	 2.4924646962	-0.0586282312	-0.0490277899	-0.060646
C	 2.1501142715	 0.9858417719	-1.1193738824	-0.020326
C	 1.1973809581	 0.4593652974	-2.1977455456	-0.230031
C	 0.120259854	-0.4105561129	-1.5005213012	-0.203474
C	 0.0075439217	 0.0259650542	-0.0304984654	 0.011932
N	 1.2555824207	-0.3734132288	 0.7029593122	-0.105539
H	-0.4737895885	 1.9172194578	 0.998834375	 0.096634
H	-0.583243431	 2.0244337917	-0.7679835198	 0.095225
H	 1.7859641968	 2.8889258619	 0.0977018875	 0.063805
H	 2.3777366455	 0.9768927897	 2.0645582078	 0.086093
H	 3.2755312401	-0.809438062	-0.0772319309	 0.082629
H	 3.0320009143	 1.4820743101	-1.5302787258	 0.066114
H	 0.7388083494	 1.2987035027	-2.733671657	 0.096785
H	 1.7466077378	-0.1218691013	-2.9459541065	 0.09623
H	-0.8489796529	-0.3235946723	-2.0014679942	 0.093373
H	 0.4017320354	-1.4687898865	-1.5258469956	 0.10605
H	-0.8398331933	-0.4566680085	 0.4615032713	 0.069735
247.2678	340.0299	369.8508	472.3698	545.2178	628.394	642.3244	745.3826	755.9873	782.2666	830.8234	837.3453	846.7384	887.3009	905.7276	936.3523	950.5993	953.286	1005.8091	1015.2997	1019.6455	1046.1908	1061.3004	1074.5432	1085.7826	1103.7158	1170.5985	1193.5832	1214.5271	1230.0018	1236.3879	1250.7085	1277.1304	1302.8884	1316.887	1323.5986	1336.9433	1354.9484	1369.7962	1379.8325	1482.0086	1487.4294	1504.5548	3030.4932	3040.6569	3042.9659	3065.9457	3077.577	3082.819	3086.5918	3090.8045	3117.9043	3157.0775	3185.2525
C1C2C3C4C2CCC1N34	C1[C@H]2[C@@H]3[C@@H]4[C@H]2CC[C@H]1N34	
InChI=1S/C8H11N/c1-2-5-6-3-4(1)9-7(5)8(6)9/h4-8H,1-3H2	InChI=1S/C8H11N/c1-2-5-6-3-4(1)9-7(5)8(6)9/h4-8H,1-3H2/t4-,5+,6-,7+,8-,9?/m1/s1
