16
gdb 42853	4.99689	1.03436	0.95912	3.1204	75.74	-0.2366	-0.0054	0.2313	1201.8888	0.122209	-400.63003	-400.62186	-400.620916	-400.663778	30.711	
O	-0.6649694272	 0.1174735541	 0.3598842474	-0.310388
C	-0.2324687611	 1.2074157585	 0.1883404036	 0.496849
C	-0.4792763332	 2.696851172	 0.5463052364	-0.156131
C	 1.0430641966	 2.7215917806	 0.9040846042	-0.257839
C	 0.9502732191	 1.9704949099	-0.4645962235	-0.156122
N	-0.1607495691	 2.9028332766	-0.9284936108	-0.121709
C	 0.1152883627	 4.2289243729	-1.4909880518	-0.299064
C	 1.0416804993	 5.192579354	-0.8729384253	 0.274864
C	 1.7767053775	 6.0431399623	-0.4442653581	-0.440815
H	-1.3193426857	 3.1844179632	 1.0369686563	 0.103927
H	 1.5091324803	 3.7002336093	 0.8600138491	 0.149162
H	 1.3692610618	 2.1484676351	 1.7771795174	 0.113832
H	 1.7422523282	 1.6287441333	-1.1280432046	 0.10392
H	 0.4566623843	 4.0477809765	-2.5178258246	 0.148391
H	-0.8623538246	 4.7178392874	-1.5854531709	 0.148395
H	 2.4309302111	 6.7807379043	-0.0487645349	 0.202727
23.2907	115.8492	177.7059	251.5058	313.1626	334.2906	416.7762	464.3218	623.156	636.6597	662.5899	676.1954	718.3438	732.9336	771.3843	831.5309	879.3618	923.3283	924.4594	994.7118	1007.0835	1022.2092	1111.0603	1111.1445	1151.1969	1155.649	1202.0942	1204.067	1268.0342	1312.6709	1367.4305	1452.4264	1498.7107	1947.3881	2219.3163	3025.1829	3057.4001	3064.0437	3144.5398	3148.2916	3201.4435	3500.5227
O=C1C2CC1N2CC#C	O=C1[C@H]2C[C@@H]1N2CC#C	
InChI=1S/C7H7NO/c1-2-3-8-5-4-6(8)7(5)9/h1,5-6H,3-4H2	InChI=1S/C7H7NO/c1-2-3-8-5-4-6(8)7(5)9/h1,5-6H,3-4H2/t5-,6+
