20
gdb 84380	1.97423	1.84438	1.23158	3.1265	79.86	-0.2359	0.0081	0.244	1099.9055	0.171556	-403.128601	-403.11993	-403.118986	-403.16249	33.687	
C	-0.4386237861	 1.4794112025	-0.0365032105	-0.392443
C	 0.0002714965	 0.0067285221	-0.0350642056	-0.121492
C	 0.9354607608	-0.3236554897	-1.1756836439	-0.068649
C	 2.0896709387	-0.8566220346	-0.7785884868	-0.128802
C	 2.1846432505	-0.975548747	 0.7200762388	 0.040605
O	 3.3064969589	-0.2810729191	 1.262934101	-0.425095
C	 0.8095325314	-0.4583049061	 1.1946355016	 0.267678
C	 0.6615211396	 0.1362122225	 2.5460818729	-0.283318
N	 0.1762628418	-1.2303019849	 2.2797277893	-0.35413
H	 0.4206818682	 2.1462076282	 0.0869794612	 0.115116
H	-0.9291840017	 1.7337521137	-0.9822680232	 0.115312
H	-1.1500464624	 1.6894852182	 0.7683539946	 0.115457
H	-0.9063652239	-0.6118091499	-0.1207567721	 0.084433
H	 0.6559915043	-0.1318349562	-2.2071462885	 0.097745
H	 2.9031226865	-1.1657078793	-1.4254600078	 0.101243
H	 2.3202110602	-2.0083997047	 1.0570602884	 0.105442
H	 3.2718206853	 0.622246274	 0.9281545597	 0.272383
H	 1.5357033505	 0.1938384265	 3.1873702377	 0.129121
H	-0.0658234097	 0.930275136	 2.6909086748	 0.10603
H	-0.8357194792	-1.2133910122	 2.1650137183	 0.223366
21.947	187.1426	218.6345	243.6688	281.6502	315.9791	331.5558	344.0935	460.9224	513.4601	537.5153	586.8991	716.2786	754.9913	803.7534	859.1264	895.2609	913.0627	940.6049	980.5554	985.1973	997.4755	1026.0976	1055.8947	1072.7253	1104.8796	1120.7981	1139.0523	1144.8074	1256.4663	1269.8546	1274.8021	1282.1607	1299.2453	1333.4419	1374.8193	1386.6802	1411.5542	1429.7634	1492.0439	1496.8773	1512.1765	1685.8806	2982.1692	3031.2113	3062.9839	3097.8053	3106.6137	3114.1711	3174.4852	3201.5168	3204.7842	3473.7293	3794.9301
CC1C=CC(O)C11CN1	C[C@H]1C=C[C@@H](O)[C@]21CN2	
InChI=1S/C7H11NO/c1-5-2-3-6(9)7(5)4-8-7/h2-3,5-6,8-9H,4H2,1H3	InChI=1S/C7H11NO/c1-5-2-3-6(9)7(5)4-8-7/h2-3,5-6,8-9H,4H2,1H3/t5-,6+,7+/m0/s1
