21
gdb 105264	2.50764	1.27471	1.07774	1.8804	78.72	-0.2263	0.0644	0.2907	1224.8882	0.182436	-420.337991	-420.328488	-420.327544	-420.372035	35.71	
C	-0.0499263692	 1.434197402	 0.1986799627	-0.337527
N	 0.0526810617	-0.0146243417	 0.3573385787	-0.124237
C	 1.2670820117	-0.6747828404	-0.1172547207	-0.294215
C	 0.970150145	-0.5809918295	 1.3455960578	 0.273764
C	 1.8274053685	 0.3041490872	 2.251143378	-0.15463
O	 2.7634946612	 1.1420252264	 1.5927237527	-0.403979
C	 0.415040882	-1.7847973631	 2.069866266	-0.06411
C	-0.8818541622	-1.679359533	 2.7870396765	-0.236977
N	-0.7700347892	-2.4664116597	 1.5478154259	-0.326422
H	 0.9041772082	 1.9624144361	 0.3148918791	 0.137975
H	-0.4534897146	 1.6439066223	-0.7967449856	 0.123439
H	-0.7601437522	 1.8248881087	 0.9346211474	 0.120488
H	 1.1238715318	-1.6151365529	-0.6441195002	 0.120519
H	 2.054162639	-0.0369155536	-0.5143592041	 0.106823
H	 1.1786226165	 0.9778397667	 2.8218101087	 0.123967
H	 2.3285664221	-0.3452806962	 2.9844771764	 0.099716
H	 3.4332106453	 0.5770131522	 1.19423881	 0.285363
H	 1.1763623573	-2.4543665895	 2.4681056235	 0.087283
H	-1.0588848411	-2.2551335662	 3.6910634719	 0.114756
H	-1.4034052229	-0.726448788	 2.7388188077	 0.109576
H	-1.1248576288	-1.8881047077	 0.7837823675	 0.238428
90.7839	120.4729	163.8611	197.2931	204.8557	230.4834	278.9898	341.8183	356.2153	408.6593	453.2314	493.0475	598.5639	699.4304	781.3811	824.6365	872.6167	911.6167	930.4504	981.931	995.6687	1035.2049	1060.6174	1075.8407	1100.3091	1127.3474	1143.6671	1154.6252	1161.5351	1199.6426	1214.2614	1219.2859	1255.2589	1298.7027	1323.5895	1367.3497	1397.2107	1409.73	1424.1977	1449.5648	1488.5246	1497.4502	1501.3405	1508.3587	1512.6514	2993.209	3019.3011	3067.8187	3089.9784	3094.5078	3100.9783	3104.9075	3112.4416	3180.859	3191.6722	3443.6422	3818.6313
CN1CC1(CO)C1CN1	CN1C[C@]1(CO)[C@H]1CN1	
InChI=1S/C6H12N2O/c1-8-3-6(8,4-9)5-2-7-5/h5,7,9H,2-4H2,1H3	InChI=1S/C6H12N2O/c1-8-3-6(8,4-9)5-2-7-5/h5,7,9H,2-4H2,1H3/t5-,6+,8?/m1/s1
