15
gdb 12656	3.30139	2.05835	1.29863	5.7673	63.91	-0.2349	-0.0611	0.1737	901.6417	0.119157	-399.855876	-399.8481	-399.847156	-399.888994	27.016	
C	-0.0522257268	 1.4226130954	 0.0088672709	-0.346549
N	-0.0009770258	-0.020363306	 0.0006799314	-0.076901
C	-1.2150149083	-0.8254540208	 0.0041297611	-0.173953
C	-0.7294447445	-2.2878863467	-0.0069867902	-0.352415
C	 0.7917215839	-2.2023532255	-0.0168481375	 0.321144
O	 1.5738552272	-3.111067106	-0.0267476299	-0.278893
C	 1.1772248114	-0.7110268701	-0.0105813241	 0.297715
O	 2.2972049699	-0.2494220408	-0.0156154955	-0.368845
H	 0.9754921496	 1.7895964306	 0.0032002574	 0.172671
H	-0.5810122971	 1.8017147069	-0.8743664914	 0.131055
H	-0.5676982384	 1.7921961505	 0.9039415982	 0.131071
H	-1.8185256779	-0.5960791822	 0.8916570019	 0.120422
H	-1.8299397981	-0.5864580492	-0.8729644761	 0.120427
H	-1.0590543334	-2.8486566626	 0.8716772958	 0.15154
H	-1.0709699816	-2.8392695835	-0.887033572	 0.15151
34.6033	115.3124	156.1829	194.5644	295.4482	330.6217	430.9255	529.002	574.5143	655.2097	668.5423	741.1739	848.8418	966.4344	1007.7912	1038.56	1069.8076	1135.0785	1150.7246	1200.1218	1247.7915	1250.2184	1302.3997	1327.5313	1435.0696	1448.9557	1452.4414	1491.41	1510.6925	1543.1189	1815.7653	1864.0195	3012.0217	3018.6501	3039.4879	3067.683	3072.734	3115.1618	3145.4053
CN1CCC(=O)C1=O	CN1CCC(=O)C1=O	
InChI=1S/C5H7NO2/c1-6-3-2-4(7)5(6)8/h2-3H2,1H3	InChI=1S/C5H7NO2/c1-6-3-2-4(7)5(6)8/h2-3H2,1H3
