18
gdb 53420	2.99443	1.01671	0.98326	2.537	80.44	-0.2443	0.0252	0.2694	1328.5067	0.148107	-401.938191	-401.929213	-401.928269	-401.974537	31.714	
C	 0.0567410676	 1.5563367522	-0.1161242835	-0.498075
C	 0.0228075432	 0.102317234	-0.0637465223	 0.014953
C	-0.0132415859	-1.1005528569	-0.0256758361	 0.142425
C	-0.0407385188	-2.5609054308	 0.0257868232	-0.067438
C	 0.7351171433	-3.1309190307	 1.2227641255	-0.240961
C	-0.0141198261	-2.7835762596	 2.5107128773	-0.153467
N	-1.4398682493	-3.0902242818	 2.4349563014	-0.264966
C	-1.9623925138	-3.193918439	 1.2900414902	 0.13503
O	-1.4075062495	-3.038106372	 0.0587345423	-0.227237
H	 0.9672843058	 1.9484294458	 0.3497005816	 0.152126
H	 0.0269388171	 1.9186507872	-1.1493121538	 0.152905
H	-0.7992590082	 1.9876752846	 0.4139114481	 0.156662
H	 0.3587028202	-2.9641553066	-0.910306749	 0.117172
H	 0.7927049903	-4.2184348067	 1.103994138	 0.112934
H	 1.7547635358	-2.7359905012	 1.2251747041	 0.112908
H	 0.4073402579	-3.3326630402	 3.3592812885	 0.110015
H	 0.1021695865	-1.7169186553	 2.7411036971	 0.122193
H	-3.0134161961	-3.4552940531	 1.1778612975	 0.122822
8.5687	66.7385	95.7138	167.9716	229.417	317.7442	328.2412	417.2994	467.3819	500.2837	572.377	614.2297	747.6771	817.4437	844.6064	895.529	937.4594	962.6836	1037.1762	1051.1525	1052.2701	1057.9306	1078.4457	1139.7984	1161.4916	1227.2118	1258.1098	1318.2955	1363.4627	1368.8449	1383.221	1411.8637	1413.8223	1475.6307	1477.37	1477.9647	1486.1965	1736.3454	2370.5502	3029.332	3030.6297	3043.6411	3057.273	3068.1417	3093.0949	3094.147	3101.7628	3154.9561
CC#CC1CCN=CO1	CC#C[C@H]1CCN=CO1	
InChI=1S/C7H9NO/c1-2-3-7-4-5-8-6-9-7/h6-7H,4-5H2,1H3	InChI=1S/C7H9NO/c1-2-3-7-4-5-8-6-9-7/h6-7H,4-5H2,1H3/t7-/m0/s1
