23
gdb 86123	1.99713	1.67228	1.06953	0.2851	93.05	-0.2249	0.0278	0.2527	1242.0729	0.20642	-351.174665	-351.16528	-351.164336	-351.208779	36.2	
C	-0.6328010709	 1.2534835964	-0.5479567696	-0.386545
C	 0.0349249367	-0.0288761932	-0.0146603639	-0.00716
C	 0.9388612549	-0.7031070619	-1.0678447223	-0.325242
C	 2.0830722272	 0.1549133904	-1.5701454737	 0.335709
C	 2.054416938	 0.5290040135	-3.0290446448	-0.479816
C	 3.0730667199	 0.54916894	-0.7673517097	-0.145874
C	 3.22818139	 0.2215254549	 0.6989611912	-0.313631
C	 2.01582353	 0.3121166267	 1.5968037857	-0.049961
C	 0.7173749028	 0.2251504363	 1.3074128034	-0.054745
H	 0.1210327439	 2.003656053	-0.8044276775	 0.125094
H	-1.2312133903	 1.0417238436	-1.4411312689	 0.105125
H	-1.2964832971	 1.6913338592	 0.2044909314	 0.110353
H	-0.7760920962	-0.7426486476	 0.1948209746	 0.07225
H	 1.3377955214	-1.628479074	-0.6321225816	 0.106815
H	 0.3125556599	-1.0072718556	-1.9143300949	 0.089436
H	 1.1399492759	 1.0826952665	-3.2786250378	 0.122546
H	 2.9128215683	 1.1457568351	-3.3090400703	 0.116108
H	 2.0550037793	-0.3661117559	-3.6652079535	 0.12024
H	 3.8765985868	 1.145493771	-1.1956237098	 0.074465
H	 3.6707863702	-0.7849746804	 0.8066433601	 0.119834
H	 3.990193827	 0.8896721123	 1.1182659621	 0.107148
H	 2.2719394568	 0.4676811492	 2.6441631984	 0.080908
H	 0.0235353054	 0.3521219606	 2.1385346212	 0.076942
44.6999	126.2205	194.4223	225.1862	241.4045	248.4357	305.4547	363.125	372.5537	402.6695	479.1518	536.8239	646.567	719.6004	760.5225	785.3889	818.9768	854.9676	887.0472	920.1515	957.6564	981.4147	1017.3691	1023.1896	1037.9626	1047.8487	1084.7106	1118.5851	1146.131	1185.4189	1222.5549	1259.2606	1274.7887	1322.2475	1345.1453	1361.8246	1382.2116	1398.5972	1408.5497	1412.7916	1436.0363	1464.7742	1478.8023	1481.8653	1491.9397	1497.5216	1504.3256	1736.6331	1747.4742	2949.6559	2981.7927	3010.8713	3018.6762	3028.9264	3038.6586	3056.6336	3059.4781	3096.0936	3108.3506	3109.5443	3111.7961	3136.7463	3139.5769
CC1CC(C)=CCC=C1	C[C@H]1CC(=CCC=C1)C	
InChI=1S/C9H14/c1-8-5-3-4-6-9(2)7-8/h3,5-6,8H,4,7H2,1-2H3	InChI=1S/C9H14/c1-8-5-3-4-6-9(2)7-8/h3,5-6,8H,4,7H2,1-2H3/t8-/m1/s1
