23
gdb 60570	2.8816	1.01067	0.8602	1.4609	85.88	-0.2527	0.0735	0.3262	1460.2582	0.204371	-388.261937	-388.251687	-388.250743	-388.297736	37.993	
C	 0.0751110704	 1.5633515622	-0.1929241805	-0.397396
C	 0.1254625406	 0.05993564	-0.0232862751	-0.005271
C	 1.4333563196	-0.6928934802	-0.0563855426	-0.299412
C	 0.6481000814	-0.5981378457	 1.2326068965	-0.008407
C	 1.156943008	 0.2016310482	 2.4158443612	 0.090763
O	 0.0862236183	 0.8694620293	 3.0914169821	-0.437111
C	 1.9654372796	-0.6576571797	 3.3676029656	 0.020978
C	 3.4610873547	-0.7791317432	 3.2104116609	-0.262794
C	 2.880986921	-0.011245738	 4.3715711593	-0.275576
H	 0.9782331728	 2.0481946919	 0.1885136217	 0.114505
H	-0.0140977178	 1.8290113105	-1.2520292051	 0.108943
H	-0.7771442641	 1.994115361	 0.3417624969	 0.126799
H	-0.715392156	-0.4562076068	-0.4807257015	 0.079306
H	 1.4874199123	-1.6484279028	-0.5665566562	 0.106695
H	 2.342656955	-0.1033011518	-0.1287737909	 0.107074
H	 0.1287270959	-1.5085831398	 1.5309868576	 0.068333
H	 1.7980019078	 1.0169080239	 2.0614019131	 0.074522
H	-0.5275692724	 0.1942329669	 3.400229118	 0.272034
H	 1.4474056365	-1.5573131573	 3.6967860615	 0.070225
H	 3.9228947324	-1.7413290771	 3.4017222731	 0.109403
H	 3.933490602	-0.2140637194	 2.4135880724	 0.110372
H	 2.9541550273	 1.0711239523	 4.356525	 0.1175
H	 2.9486408748	-0.4453229346	 5.362959782	 0.108516
46.7367	66.9699	117.8064	178.9039	184.1063	188.4972	240.8319	308.3259	341.1383	387.7515	414.3079	504.8524	567.3155	767.4066	779.6362	822.405	839.2977	856.4423	865.0728	912.7346	941.9954	957.5746	1005.0135	1026.0538	1048.4341	1061.2786	1070.405	1076.7077	1110.1459	1131.2391	1136.9781	1148.1113	1166.3319	1194.8622	1198.1202	1226.5742	1238.5634	1275.5748	1292.0344	1391.4221	1409.771	1419.9628	1421.0604	1435.5939	1472.8911	1490.9412	1494.1472	1502.1799	1508.9923	3033.9618	3045.1285	3096.0768	3100.9326	3106.9734	3114.8132	3124.1232	3131.2506	3133.5609	3136.1815	3207.042	3208.4867	3222.9633	3803.6517
CC1CC1C(O)C1CC1	C[C@H]1C[C@H]1[C@@H](O)C1CC1	
InChI=1S/C8H14O/c1-5-4-7(5)8(9)6-2-3-6/h5-9H,2-4H2,1H3	InChI=1S/C8H14O/c1-5-4-7(5)8(9)6-2-3-6/h5-9H,2-4H2,1H3/t5-,7+,8-/m0/s1
