20
gdb 68009	2.76999	1.57084	1.20343	3.7137	79.45	-0.235	0.024	0.259	1098.0292	0.171049	-403.179095	-403.170578	-403.169634	-403.211485	33.831	
C	-0.0678988213	 1.5365321731	 0.0043611386	-0.504267
C	 0.0551913459	 0.0356273499	 0.0123077726	 0.334944
C	 1.026351933	-0.7617742259	-0.9023480283	-0.281513
C	 0.6786234761	-1.920851885	 0.0919325424	 0.17527
C	 1.4499255106	-3.2084188149	 0.2120296755	-0.49511
C	 0.6430548881	-0.795822888	 1.1970726594	-0.29611
C	-0.8426757315	-2.0299492313	-0.133525721	 0.40765
O	-1.5524154975	-3.0045932797	-0.120285938	-0.382956
N	-1.2051347644	-0.6932049006	-0.2979858538	-0.355649
H	 0.9036598041	 1.9998468299	 0.1982759248	 0.125583
H	-0.4324310285	 1.8923119071	-0.9646283149	 0.132472
H	-0.7633840311	 1.8824503092	 0.7778724483	 0.12031
H	 0.7433217491	-0.8750251689	-1.9515449291	 0.106293
H	 2.0651885636	-0.4353645151	-0.8058612055	 0.099124
H	 2.5038019615	-3.0216808695	 0.4403441963	 0.109808
H	 1.0290797676	-3.8367417059	 1.0030101192	 0.133615
H	 1.3973967973	-3.7805292478	-0.7199000303	 0.130035
H	 1.6452846862	-0.4803717186	 1.5012243687	 0.09958
H	 0.006032314	-0.9524467682	 2.0727002748	 0.099626
H	-2.088293393	-0.3801331897	 0.0819324204	 0.241295
150.3569	185.1855	215.2398	228.3987	233.7891	272.8107	355.401	447.2498	494.1631	504.6516	533.5559	580.4183	639.8656	703.8778	744.3799	783.7766	842.0341	867.7324	915.8342	929.4884	982.2968	1028.0953	1039.3851	1041.0816	1108.6121	1129.8716	1168.8848	1183.6958	1196.3764	1224.9992	1258.8033	1270.6606	1350.8842	1384.4693	1415.4909	1423.4311	1477.6582	1485.9244	1488.7723	1490.0548	1493.3297	1520.2876	1859.4453	3031.6263	3037.3927	3046.2774	3059.1858	3096.6797	3105.6306	3109.6041	3111.0471	3115.0798	3124.8648	3593.73
CC12CC(C)(C1)C(=O)N2	C[C@@]12C[C@@](C)(C1)C(=O)N2	
InChI=1S/C7H11NO/c1-6-3-7(2,4-6)8-5(6)9/h3-4H2,1-2H3,(H,8,9)	InChI=1S/C7H11NO/c1-6-3-7(2,4-6)8-5(6)9/h3-4H2,1-2H3,(H,8,9)/t6-,7+
