18
gdb 32811	3.23614	1.06884	0.83601	0.9401	75.39	-0.1747	0.0596	0.2343	1379.0248	0.146951	-439.105403	-439.096071	-439.095127	-439.140311	34.045	
C	 0.1176341649	 1.5401923251	-0.1209992346	-0.384473
C	-0.1701628864	 0.0738579692	-0.3886798135	-0.051059
O	 1.0594062549	-0.5630631233	-0.7431318933	-0.301626
C	 0.9515265815	-1.8987418312	-1.0465318721	 0.191336
C	 1.2634712574	-2.399785761	-2.2878136064	 0.2915
O	 1.6818052685	-1.7828207589	-3.4201951871	-0.444291
N	 1.1183454326	-3.7555322781	-2.2539377392	-0.296187
C	 0.7026460335	-4.1381112421	-0.9905541391	-0.091897
C	 0.5942230391	-3.0080043041	-0.2186908702	-0.258645
H	 0.8425272256	 1.6466352037	 0.6909591212	 0.129363
H	 0.5292918562	 2.0233705292	-1.0121778365	 0.119746
H	-0.8013492129	 2.0621315885	 0.1619715878	 0.116892
H	-0.5940785035	-0.4078142342	 0.5034965106	 0.100106
H	-0.8982359629	-0.0482346139	-1.2039080501	 0.093043
H	 1.7870691857	-0.8508864111	-3.1921329223	 0.30721
H	 1.3069795975	-4.3644233301	-3.0301810983	 0.26671
H	 0.5224108011	-5.1745736799	-0.7611801139	 0.116056
H	 0.2987269674	-2.9721681077	 0.8181134371	 0.096217
49.2205	56.9321	125.3543	232.1399	259.3676	265.7227	331.5573	349.0929	388.7432	396.1975	511.4749	620.153	631.8903	657.9764	704.9316	773.2605	802.0645	814.9846	894.9796	925.4213	1051.9508	1082.9242	1093.9225	1136.7121	1171.2433	1183.5034	1211.4222	1281.3992	1289.8467	1378.8979	1401.7495	1410.9483	1427.5216	1482.9195	1498.8326	1521.6657	1525.5362	1565.1932	1670.5986	2992.5293	3027.9228	3043.8049	3117.0444	3121.68	3251.0084	3281.2836	3691.4125	3799.0429
CCOC1=C(O)NC=C1	CCOc1c(O)[nH]cc1	
InChI=1S/C6H9NO2/c1-2-9-5-3-4-7-6(5)8/h3-4,7-8H,2H2,1H3	InChI=1S/C6H9NO2/c1-2-9-5-3-4-7-6(5)8/h3-4,7-8H,2H2,1H3
