16
gdb 131788	4.75721	0.80222	0.71872	2.7232	67.02	-0.2331	0.0107	0.2437	1504.5699	0.125793	-471.230075	-471.221451	-471.220507	-471.264546	30.891	
O	 0.06928621	 1.4319000085	 0.1899123805	-0.411555
C	 0.0679401477	 0.0176590345	 0.1797168379	-0.058256
C	-1.3354562263	-0.5575781427	-0.0958327849	-0.33366
C	-1.3432775985	-2.0487823581	-0.0949683162	 0.369607
N	-0.6985565529	-2.8395617443	-0.9451099646	-0.399241
C	-1.0085583036	-4.084003936	-0.4917876543	 0.415699
O	-0.5528088034	-5.1972897332	-1.0804192997	-0.40839
N	-1.7919744066	-4.1397218278	 0.5691161959	-0.286343
N	-1.9901630179	-2.8090757143	 0.8069222391	-0.243903
H	-0.0544157451	 1.7376771085	-0.7142964474	 0.286361
H	 0.7771273033	-0.3949151758	-0.5502055074	 0.119432
H	 0.4034314028	-0.2935177529	 1.1742669955	 0.12056
H	-2.0344385288	-0.1716406796	 0.6532256077	 0.114798
H	-1.6790084996	-0.2017990117	-1.0748658123	 0.125439
H	-0.011668938	-4.9112848711	-1.8258547256	 0.310362
H	-2.573055113	-2.524460574	 1.5764158758	 0.27909
38.4482	92.8943	101.3338	263.4677	302.197	313.2675	353.6538	396.6809	408.4486	486.4159	522.5344	682.1575	729.6255	767.9942	789.2387	821.8986	1014.5304	1023.3463	1041.4925	1077.8671	1081.5947	1150.3211	1160.2756	1218.0062	1269.7737	1313.9578	1336.8352	1396.4789	1413.7174	1424.3739	1474.0308	1491.3306	1511.4449	1578.1072	1637.7686	3019.9926	3035.0717	3075.5625	3097.1336	3668.26	3817.5086	3817.8681
OCCC1=NC(O)=NN1	OCCc1nc(O)n[nH]1	
InChI=1S/C4H7N3O2/c8-2-1-3-5-4(9)7-6-3/h8H,1-2H2,(H2,5,6,7,9)	InChI=1S/C4H7N3O2/c8-2-1-3-5-4(9)7-6-3/h8H,1-2H2,(H2,5,6,7,9)
