21
gdb 101559	4.48163	0.64391	0.62336	3.9294	75.93	-0.2659	-0.025	0.2409	1823.5444	0.17898	-461.376348	-461.365358	-461.364414	-461.413623	38.582	
C	 0.236872731	 1.6491754012	-0.0046853808	-0.399947
C	 0.0248454943	 0.1302022228	-0.000718152	 0.047435
C	 0.6078967973	-0.5189492457	-1.2564969598	-0.084344
O	-0.0487334004	 0.0319921227	-2.3863816425	-0.420562
C	 0.6187343061	-0.5265991849	 1.2533689665	-0.32446
C	-0.1211585733	-0.199781675	 2.5357987315	 0.358358
O	-1.2848562996	 0.1429716326	 2.5658367095	-0.323246
C	 0.6391535551	-0.3352121571	 3.8488812356	-0.128277
O	-0.194297139	-0.1286152619	 4.9478374363	-0.41974
H	 1.3052124585	 1.895760463	 0.0435003581	 0.101982
H	-0.1666575653	 2.0828794909	-0.9215718869	 0.139412
H	-0.261073964	 2.1181521117	 0.8480399732	 0.125529
H	-1.0528384369	-0.0682118102	 0.0001877807	 0.10924
H	 1.6953230914	-0.3350572169	-1.298503442	 0.081199
H	 0.462328706	-1.610922776	-1.2084149187	 0.081961
H	 0.3661740306	-0.3179324644	-3.1797480079	 0.288582
H	 0.5872429989	-1.6235114713	 1.1626325014	 0.130809
H	 1.68014903	-0.2723018187	 1.375108234	 0.113932
H	 1.1086925913	-1.3317841767	 3.885648701	 0.113861
H	 1.4701913381	 0.3923656074	 3.8235911172	 0.11419
H	-1.0485786702	 0.1321724565	 4.5665970058	 0.294086
31.3255	61.4989	95.5857	131.7531	149.2583	237.0835	240.9939	256.8028	280.7747	326.5104	368.0429	406.2829	422.0435	487.7971	532.744	698.1447	798.2493	841.5307	889.3005	931.1088	953.5128	987.4557	1051.8071	1080.3184	1111.9623	1130.9588	1149.0561	1172.744	1226.3699	1243.1684	1261.8629	1277.0964	1303.016	1318.1285	1376.8813	1392.1104	1404.6243	1449.3903	1452.4472	1461.7275	1490.8067	1496.5703	1507.4246	1520.5947	1794.0694	2949.8572	2955.6159	2978.4579	2987.9624	3002.1376	3027.9302	3041.2212	3062.4041	3104.6053	3137.8874	3677.7148	3836.5458
CC(CO)CC(=O)CO	C[C@@H](CO)CC(=O)CO	
InChI=1S/C6H12O3/c1-5(3-7)2-6(9)4-8/h5,7-8H,2-4H2,1H3	InChI=1S/C6H12O3/c1-5(3-7)2-6(9)4-8/h5,7-8H,2-4H2,1H3/t5-/m1/s1
