19
gdb 114145	5.04007	0.89703	0.83041	1.8317	84.24	-0.2422	0.0205	0.2627	1427.397	0.157059	-385.823404	-385.814387	-385.813443	-385.857119	34.164	
C	 0.0028690546	 1.499502067	 0.1658430434	-0.38125
C	-0.1200606101	-0.0131366872	-0.0417299393	-0.191347
C	 0.6641493344	-0.5178076517	-1.2480219153	 0.004586
C	 2.2390409102	-0.4874445994	-1.1995158351	-0.33441
C	 2.2360275476	-2.0110036226	-1.4264699801	 0.295145
O	 1.4785505271	-2.5817751536	-0.3387578981	-0.279182
C	 0.7529640209	-2.0412387115	-1.442274712	-0.07611
C	 3.2109219767	-2.8068724027	-2.0883335604	 0.179144
C	 4.0619687218	-3.4371847149	-2.6583367702	-0.383646
H	 1.0462059208	 1.7974781215	 0.3159156086	 0.119003
H	-0.3772515012	 2.0530442142	-0.7001719198	 0.112603
H	-0.5639043219	 1.8249501764	 1.0434425697	 0.115677
H	 0.2322304987	-0.5456568446	 0.8486174736	 0.114865
H	-1.1775502521	-0.281075065	-0.1672223489	 0.095178
H	 0.3120500839	-0.0374194053	-2.1675984154	 0.078721
H	 2.683492228	 0.0709606317	-2.0250650959	 0.117578
H	 2.6960913346	-0.1805188051	-0.2558081877	 0.11393
H	 0.0761233122	-2.7101579756	-1.9629282478	 0.108728
H	 4.8076979437	-4.0051048915	-3.1574093491	 0.190786
85.0303	105.3349	131.8059	204.0311	218.6563	265.7547	359.1205	421.9431	455.9283	520.9602	565.5325	608.0886	634.1449	670.8598	716.3849	776.8593	810.8653	882.2506	916.3027	936.0004	954.7913	974.5736	1024.0696	1058.0516	1103.336	1126.3167	1158.6793	1188.3815	1222.5851	1260.174	1264.7857	1289.7148	1340.6341	1381.6702	1412.7628	1420.4464	1473.086	1489.9569	1501.181	1506.9086	2240.6154	3021.2586	3030.7873	3046.9472	3070.4156	3072.2054	3099.1363	3104.7156	3134.1585	3180.3171	3502.5282
CCC1CC2(OC12)C#C	CC[C@H]1C[C@]2(O[C@@H]12)C#C	
InChI=1S/C8H10O/c1-3-6-5-8(4-2)7(6)9-8/h2,6-7H,3,5H2,1H3	InChI=1S/C8H10O/c1-3-6-5-8(4-2)7(6)9-8/h2,6-7H,3,5H2,1H3/t6-,7-,8+/m0/s1
