18
gdb 59626	3.28397	1.08795	0.97816	4.4973	68.17	-0.2702	0.0436	0.3138	1248.4866	0.148513	-476.275822	-476.267155	-476.266211	-476.309491	32.188	
C	 0.0853061122	 1.5701122446	-0.1768365053	-0.409703
C	 0.0431328867	 0.0518611391	 0.0105144256	 0.119204
O	 0.8357238905	-0.3630944776	 1.1081480457	-0.429864
C	-1.3952248094	-0.4814542017	 0.1537281959	-0.00857
C	-1.4523219879	-2.0203481345	 0.292142362	-0.102581
O	-2.4333175382	-2.2847677485	 1.3042581572	-0.234913
C	-2.740995445	-1.1387231862	 1.9697089418	 0.477228
O	-3.5210825214	-1.0773372698	 2.8760775154	-0.383586
N	-1.9945559762	-0.0983701149	 1.4258251189	-0.389357
H	 1.1212461875	 1.9026635089	-0.2755105876	 0.136366
H	-0.4666893233	 1.8777926863	-1.0714786256	 0.116602
H	-0.3488237727	 2.084916791	 0.688251971	 0.112615
H	 0.4879505108	-0.4276808039	-0.8710599604	 0.095662
H	 0.3471687779	-0.1214236266	 1.9064604358	 0.286643
H	-1.9976144364	-0.1374694476	-0.6988384721	 0.085688
H	-1.7596665363	-2.5207436204	-0.6277507593	 0.125989
H	-0.4856459413	-2.4088686082	 0.6242476327	 0.139467
H	-2.3857184476	 0.8215200303	 1.5575008184	 0.263109
78.2152	92.944	167.8313	218.6158	246.6674	276.5326	342.5387	415.9242	468.4659	518.4277	564.8828	627.0964	690.8382	736.3379	776.243	853.629	913.3398	939.8908	992.7005	1018.1382	1039.5322	1080.4417	1098.6945	1112.1664	1166.4526	1226.5878	1244.306	1282.7041	1315.5699	1351.4574	1381.3336	1400.2543	1411.8213	1422.5712	1433.7356	1490.0518	1500.7311	1519.7128	1894.9534	3000.8022	3030.4239	3033.3792	3067.1344	3098.2697	3124.5407	3126.002	3636.8743	3759.811
CC(O)C1COC(=O)N1	C[C@@H](O)[C@H]1COC(=O)N1	
InChI=1S/C5H9NO3/c1-3(7)4-2-9-5(8)6-4/h3-4,7H,2H2,1H3,(H,6,8)	InChI=1S/C5H9NO3/c1-3(7)4-2-9-5(8)6-4/h3-4,7H,2H2,1H3,(H,6,8)/t3-,4-/m1/s1
