16
gdb 77833	2.45969	1.51697	1.34182	3.8622	64.73	-0.2432	0.0115	0.2546	1006.0327	0.124799	-475.037164	-475.029156	-475.028212	-475.069379	30.987	
O	 0.0394232408	 1.3836201594	-0.0867122288	-0.421815
C	-0.07144973	 0.0005493625	-0.0124299262	 0.053745
C	-0.4606233347	-0.7752796346	 1.2498552466	-0.276683
C	-1.1561953125	 0.0129904602	 2.3196945526	 0.419671
O	-0.8737517426	 0.0977821549	 3.4911941539	-0.368336
N	-2.2108404639	 0.6782823716	 1.6991841145	-0.35237
C	-2.5947173525	 0.089262898	 0.4190904467	-0.252557
C	-1.3685156616	-0.7384960921	 0.0224188751	 0.317398
O	-1.5929696932	-1.8796704318	-0.7383223621	-0.458515
H	-0.5725601248	 1.7721777815	 0.5526670665	 0.299082
H	 0.7209362064	-0.4739405363	-0.5833020812	 0.122703
H	 0.1214753905	-1.6383163147	 1.5422185147	 0.122773
H	-2.8984187232	 1.1143088339	 2.2963491047	 0.255209
H	-3.4595064886	-0.5796135183	 0.5104737724	 0.128697
H	-2.8280745298	 0.8632019366	-0.3221922805	 0.118299
H	-1.5095778604	-1.6463137807	-1.6694162289	 0.292699
124.9908	191.6319	212.3102	223.2533	296.379	344.2482	420.6662	465.6706	489.9121	540.1937	556.6882	596.049	682.6206	731.3639	787.1461	823.3919	929.874	946.1914	973.7115	1033.4039	1059.3651	1079.4673	1135.2135	1170.8361	1204.5131	1221.6296	1284.4359	1302.3121	1327.8803	1332.5025	1390.983	1429.5129	1474.6787	1523.7666	1837.6408	3020.134	3059.0633	3168.1089	3219.7443	3615.3757	3752.6551	3801.0108
OC1C2C(=O)NCC12O	O[C@H]1[C@H]2C(=O)NC[C@@]12O	
InChI=1S/C5H7NO3/c7-3-2-4(8)6-1-5(2,3)9/h2-3,7,9H,1H2,(H,6,8)	InChI=1S/C5H7NO3/c7-3-2-4(8)6-1-5(2,3)9/h2-3,7,9H,1H2,(H,6,8)/t2-,3-,5-/m0/s1
