13
gdb 133429	3.23604	1.44811	1.00042	2.2865	66.92	-0.2401	-0.0568	0.1833	1062.8674	0.090935	-490.220651	-490.213193	-490.212248	-490.253	27.953	
F	 0.0417071372	 0.0724010542	-0.1636292333	-0.055523
C	 0.0080276727	 1.3885763332	-0.0111639527	 0.269971
N	-1.124539812	 1.9588562694	 0.0472831485	-0.213941
N	-1.1263734842	 3.3064580716	 0.2039591099	-0.33295
C	-0.0066861825	 4.1283968088	 0.3070201471	 0.493078
N	 0.0082613428	 5.3937169262	 0.453800551	-0.562349
N	 1.1820815326	 3.4217253798	 0.2332220841	-0.377498
C	 1.3182335754	 2.054345038	 0.07527458	 0.294721
N	 2.4667402588	 1.5062277159	 0.0193325885	-0.529862
H	-2.0424986312	 3.7187972625	 0.2452054722	 0.278716
H	-0.9288494998	 5.7867175744	 0.49291156	 0.215526
H	 2.0273865552	 3.9707571879	 0.3025928699	 0.282458
H	 2.3662483547	 0.4998482279	-0.0983049051	 0.237654
68.5214	126.2987	286.8212	322.748	379.0394	395.4923	461.3518	480.952	541.3926	613.2201	632.6752	705.0628	727.6415	741.2723	753.34	810.2154	854.5385	983.5902	1087.6211	1149.0936	1214.1143	1321.8281	1375.7319	1410.6134	1461.4787	1488.9608	1704.4302	1729.8369	1751.2849	3519.167	3524.9379	3621.173	3671.3975
FC1=NNC(=N)NC1=N	FC1=NN[C@H]([NH])N[C@@H]1[NH]	
InChI=1S/C3H4FN5/c4-1-2(5)7-3(6)9-8-1/h(H4,5,6,7,9)	InChI=1S/C3H6FN5/c4-1-2(5)7-3(6)9-8-1/h2-3,5-7,9H/t2-,3+/m0/s1
