21
gdb 113060	2.15783	1.15503	0.85146	1.2009	80.33	-0.2487	-0.0283	0.2204	1456.4898	0.179981	-424.239277	-424.229134	-424.228189	-424.27521	36.076	
C	-0.1294927084	 1.3812517534	-0.5390452129	-0.383457
C	-0.0495701324	-0.0997046786	-0.1574660932	-0.191092
C	-1.404475732	-0.6661631185	 0.242965319	 0.024492
O	-2.3790742026	-0.6842778271	-0.8334312524	-0.317405
C	-2.6113307309	-2.1151576644	-0.7471781493	 0.024492
C	-2.35221184	-2.8643408154	-2.0466286597	-0.191092
C	-3.3215536193	-2.4512538992	-3.1579151935	-0.383457
C	-1.5457429432	-2.1905042521	 0.3550873202	 0.321412
O	-1.0204974368	-3.0581754055	 0.9846483843	-0.289867
H	 0.848946453	 1.7590031251	-0.8496136235	 0.116744
H	-0.8306865102	 1.5263125122	-1.3655702493	 0.13783
H	-0.4731981361	 1.9892032741	 0.3048833392	 0.117083
H	 0.3469557331	-0.6836502791	-0.9962036044	 0.104773
H	 0.6358682488	-0.2479170266	 0.6859102309	 0.115574
H	-1.8009260356	-0.1351877827	 1.1219565951	 0.100982
H	-3.6256449208	-2.3260124702	-0.3751024758	 0.100982
H	-1.3182393964	-2.6829432193	-2.3623844942	 0.104774
H	-2.4369563726	-3.9372647022	-1.8351362789	 0.115574
H	-3.0990164637	-2.981066273	-4.0886504181	 0.116744
H	-4.357865683	-2.6748725308	-2.8822235488	 0.117083
H	-3.248895221	-1.3770762801	-3.3495459046	 0.13783
52.1177	92.8905	95.9832	130.7151	155.5241	220.0668	232.7286	288.5142	301.234	398.0998	426.1777	581.858	586.9085	691.9366	777.4438	778.2664	859.7081	895.8289	919.1088	955.4324	975.615	1036.5232	1050.8362	1081.5707	1090.477	1121.0196	1132.1303	1163.6085	1237.6444	1261.218	1271.5954	1289.573	1314.2662	1344.6355	1373.6264	1397.0124	1408.2157	1410.6142	1471.8904	1477.3571	1496.585	1497.2116	1507.151	1508.1872	1915.2158	2989.8263	2995.9135	3032.3993	3034.0816	3038.2418	3038.5263	3070.8387	3073.0074	3106.6971	3107.2261	3120.6459	3120.9337
CCC1OC(CC)C1=O	CC[C@H]1O[C@@H](CC)C1=O	
InChI=1S/C7H12O2/c1-3-5-7(8)6(4-2)9-5/h5-6H,3-4H2,1-2H3	InChI=1S/C7H12O2/c1-3-5-7(8)6(4-2)9-5/h5-6H,3-4H2,1-2H3/t5-,6+
