14
gdb 42623	2.8308	1.92709	1.3818	4.3817	66.33	-0.2391	-0.0928	0.1463	895.4211	0.102197	-436.667036	-436.660509	-436.659565	-436.698062	25.382	
O	-0.0177815615	 0.0014925502	-0.2629595443	-0.293405
C	-0.0415041733	 1.1833379193	-0.0440588885	 0.324061
C	-1.2175647467	 2.0756583787	 0.1341711284	-0.166334
C	-1.273190304	 3.0625250547	 1.2664211201	-0.019169
C	 0.0712468878	 3.3468281574	 1.9159662183	-0.271354
C	 0.6191386594	 3.4589458421	 0.4574683199	-0.129799
N	-0.8195922423	 3.5086756274	-0.0822137581	-0.140627
C	 1.1925204031	 2.1260728857	 0.0373453088	 0.339891
O	 2.3331359555	 1.8229485911	-0.1774732563	-0.286642
H	-2.1643019491	 1.7840882526	-0.3051568356	 0.133362
H	-2.2457105434	 3.3402457405	 1.6609565905	 0.11807
H	 0.0725334874	 4.3233665753	 2.4029944273	 0.13903
H	 0.5108414752	 2.6065711597	 2.5888947998	 0.13207
H	 1.221028102	 4.3254872254	 0.1970165298	 0.120848
106.3686	198.2103	306.399	339.6621	465.3876	478.2174	611.465	628.3621	715.9983	726.6341	754.1565	809.2854	859.0355	902.4943	935.0037	950.0863	1002.2896	1037.501	1059.6951	1098.1635	1146.5075	1157.8799	1200.5993	1216.3802	1257.3577	1279.9195	1336.3958	1362.6834	1496.3959	1841.7771	1861.0155	3070.041	3128.2159	3158.9326	3164.8023	3195.9243
O=C1C2C3CC(N23)C1=O	O=C1[C@H]2[C@H]3C[C@H](N23)C1=O	
InChI=1S/C6H5NO2/c8-5-3-1-2-4(6(5)9)7(2)3/h2-4H,1H2	InChI=1S/C6H5NO2/c8-5-3-1-2-4(6(5)9)7(2)3/h2-4H,1H2/t2-,3+,4-,7?/m1/s1
