20
gdb 88648	4.30709	0.86523	0.77334	2.3729	80.91	-0.2293	-0.0203	0.209	1478.838	0.169302	-403.121041	-403.111963	-403.111019	-403.155665	33.71	
C	 2.8802648531	-0.7493160073	 0.307453214	-0.314705
N	 1.5264480855	-1.2560194411	 0.4757281421	-0.084743
C	 1.3024314516	-2.2807125058	 1.4874937499	-0.264169
C	 0.7490893511	-0.9053963586	 1.6647293345	 0.008397
C	 1.2444456717	 0.0075767265	 2.7564616381	 0.004863
C	 1.0099161696	 1.5441072191	 2.5668980478	-0.3622
C	 0.4303414906	 1.5768354802	 3.9897051114	 0.401481
O	 0.1885982706	 2.4514904844	 4.7684033891	-0.286885
C	 0.3849143509	 0.0419876966	 4.0639157254	-0.365976
H	 3.4901455754	-0.7442979487	 1.2245066679	 0.099741
H	 3.3948804288	-1.3744913	-0.4290593162	 0.127144
H	 2.84116355	 0.2717227155	-0.0856338953	 0.125025
H	 0.6633418782	-3.1120113834	 1.2004544808	 0.11593
H	 2.1420982844	-2.5558145675	 2.1268914712	 0.103478
H	-0.3087113263	-0.755757194	 1.4383227549	 0.085048
H	 2.2893069597	-0.1955075271	 2.9983153469	 0.082589
H	 1.8744114883	 2.1844146475	 2.3755377051	 0.129412
H	 0.2405031443	 1.7648939965	 1.8176466182	 0.133633
H	-0.634094762	-0.3329068422	 3.9102013366	 0.131904
H	 0.7911713046	-0.4190592407	 4.9672601774	 0.130032
55.8253	58.5364	131.413	200.3583	228.2352	307.6823	337.5091	393.8835	428.3453	461.1861	531.29	667.546	675.3599	732.7969	774.7708	876.9886	914.7614	927.2128	958.8981	998.4708	1022.3176	1042.129	1087.327	1108.7101	1124.1214	1132.9706	1157.1285	1165.8848	1194.8159	1202.9112	1228.1072	1237.4608	1257.3302	1307.8522	1341.9026	1427.2486	1433.7895	1450.3638	1451.1262	1489.3339	1501.0537	1512.351	1896.5488	2976.935	3044.2788	3049.1217	3066.269	3074.3347	3079.1571	3091.583	3101.8928	3113.1264	3116.3638	3167.9833
CN1CC1C1CC(=O)C1	CN1C[C@H]1C1CC(=O)C1	
InChI=1S/C7H11NO/c1-8-4-7(8)5-2-6(9)3-5/h5,7H,2-4H2,1H3	InChI=1S/C7H11NO/c1-8-4-7(8)5-2-6(9)3-5/h5,7H,2-4H2,1H3/t7-,8?/m0/s1
