19
gdb 81076	2.71707	1.46432	1.20408	2.6693	75.36	-0.2556	0.0667	0.3223	1088.4093	0.159405	-422.946393	-422.938396	-422.937451	-422.979077	31.242	
O	 0.0942148107	 1.5158415975	-0.0384913845	-0.44931
C	-0.0276543793	 0.1194703748	-0.0330935801	 0.143151
C	 0.0357447046	-0.7104211686	 1.2844820112	-0.102926
C	-1.409547854	-0.2173906829	 1.6016534481	-0.301549
C	-1.4265444703	-0.5780791118	 0.0797699279	 0.331743
C	-0.6263200148	-1.8585706579	 0.4721087492	-0.26261
C	-2.5677320474	-0.4680948094	-0.8686020245	-0.099918
C	-2.7155898131	 0.7009877059	-1.7502679497	-0.187172
O	-2.2354605211	-0.5447200694	-2.2595480443	-0.235499
H	-0.3532245116	 1.8790470911	 0.7326730328	 0.283082
H	 0.5988504397	-0.2384807968	-0.8528348389	 0.095392
H	 0.8719167617	-0.7928576265	 1.9789738526	 0.077472
H	-2.0064400464	-0.8564996748	 2.2577820332	 0.099268
H	-1.5540119291	 0.8319522394	 1.87952545	 0.078551
H	-0.0277337467	-2.3222733763	-0.3161184643	 0.104179
H	-1.1724153848	-2.6021452444	 1.056470597	 0.096822
H	-3.4686772428	-1.0223643981	-0.5975706144	 0.086525
H	-3.7076656979	 0.9931103835	-2.0922105628	 0.111271
H	-1.9757233374	 1.4967394547	-1.6951982584	 0.131528
72.1356	145.728	174.4388	250.9235	321.5211	352.2999	411.0715	463.3578	535.4354	612.5453	674.7719	766.3921	819.9512	856.6812	870.9152	895.5029	914.3989	941.2983	968.3049	1007.8976	1022.294	1051.2189	1071.5029	1100.3955	1130.9549	1140.6812	1149.9866	1156.4068	1169.4102	1176.2808	1210.1605	1227.9887	1244.3696	1275.967	1279.2929	1324.6546	1442.3655	1452.301	1505.3235	1523.2328	1546.9292	3039.4002	3059.7179	3083.619	3090.1641	3097.104	3100.3286	3116.2827	3127.7555	3183.6409	3815.1898
OC1C2CC1(C2)C1CO1	O[C@H]1[C@H]2C[C@@]1(C2)[C@H]1CO1	
InChI=1S/C7H10O2/c8-6-4-1-7(6,2-4)5-3-9-5/h4-6,8H,1-3H2	InChI=1S/C7H10O2/c8-6-4-1-7(6,2-4)5-3-9-5/h4-6,8H,1-3H2/t4-,5-,6+,7+/m1/s1
