17
gdb 67867	2.63174	1.69782	1.40011	2.3468	74.73	-0.2396	-0.0037	0.2359	981.5958	0.137736	-418.012556	-418.004848	-418.003904	-418.044526	30.085	
N	-0.074200181	 1.4148852466	-0.0414981383	-0.600255
C	-0.0002393582	-0.025629434	 0.0253771145	 0.173544
C	 0.7703360531	-0.7369395051	-1.0656115794	-0.152802
C	 0.0868254702	-1.7417380763	-1.6135897993	-0.059797
C	-1.2830612541	-1.9290320823	-0.9984930219	-0.295829
C	-1.2931433855	-0.9080274333	 0.1355124505	 0.096173
O	-0.7786445832	-1.4640412054	 1.4002364577	-0.277549
C	 0.2806443762	-0.5900116393	 1.4103424166	 0.408856
N	 1.1357108118	-0.3206888017	 2.2869300119	-0.560312
H	 0.521650174	 1.8217750593	 0.6722998803	 0.251691
H	 0.2363703505	 1.7590090928	-0.9429373652	 0.230178
H	 1.776511671	-0.4312666834	-1.3298733108	 0.10567
H	 0.4567398814	-2.3830575483	-2.406066388	 0.1048
H	-2.0880428413	-1.7543766771	-1.723457767	 0.115678
H	-1.429362285	-2.9397956068	-0.5993260659	 0.130905
H	-2.2317404281	-0.3846352203	 0.3151345828	 0.099654
H	 0.999874068	-0.8732281253	 3.1348783516	 0.229393
117.8615	176.4752	193.6823	237.2226	307.3544	334.1425	441.9859	518.9687	621.4099	674.7902	692.9866	744.6441	771.9095	815.676	839.429	854.9449	860.773	936.6541	964.1088	972.7907	1003.5116	1020.7568	1030.1321	1102.5379	1135.4344	1171.4357	1201.8654	1246.8981	1282.9238	1310.5018	1327.3915	1360.6615	1382.6738	1462.0198	1652.0596	1675.0265	1819.8974	3028.8076	3066.0695	3123.4851	3185.917	3210.3226	3478.8348	3508.777	3593.1811
NC12C=CCC1OC2=N	N[C@]12C=CC[C@H]1O[C]2[NH]	
InChI=1S/C6H8N2O/c7-5-6(8)3-1-2-4(6)9-5/h1,3-4,7H,2,8H2	InChI=1S/C6H8N2O/c7-5-6(8)3-1-2-4(6)9-5/h1,3-4,7H,2,8H2/t4-,6-/m1/s1
