19
gdb 100581	3.24894	0.78314	0.7091	1.1083	77.36	-0.2564	-0.0216	0.2348	1627.1283	0.15835	-456.379769	-456.369425	-456.368481	-456.416436	36.121	
C	-0.9325263554	 1.6809767178	-0.397213561	-0.40388
C	-0.0745884781	 0.4219944534	-0.2319966382	-0.11631
C	-0.8665858369	-0.7289779086	 0.4380489565	-0.065701
O	-1.3019027388	-0.4060207488	 1.7442591761	-0.417697
C	 0.4040587958	-0.0757623498	-1.5910587883	 0.422534
O	-0.3288795907	-0.153041612	-2.5572661166	-0.365214
N	 1.7265010241	-0.4813685501	-1.6354076429	-0.313742
C	 2.3331103311	-1.0132397658	-2.7636296882	 0.098769
N	 3.5551638946	-1.3565783384	-2.726900431	-0.461757
H	-0.3471194995	 2.5093819035	-0.8060039121	 0.126804
H	-1.7612236807	 1.4858342268	-1.0829553919	 0.143312
H	-1.3275221024	 2.0031065603	 0.5705485484	 0.110038
H	 0.784934664	 0.6445326853	 0.4116260636	 0.082981
H	-1.7022643632	-1.0109984227	-0.217856143	 0.114689
H	-0.2193607797	-1.6060314814	 0.5444928953	 0.115951
H	-2.0667072267	 0.172342784	 1.6728161491	 0.290237
H	 2.3124583537	-0.3908499149	-0.8176089308	 0.263664
H	 1.6434227007	-1.078511461	-3.6070517256	 0.141252
H	 3.845289198	-1.7260564875	-3.6304334993	 0.23407
22.1218	95.6859	106.9958	166.5469	172.7018	219.6252	228.5264	274.9611	310.7723	328.4045	358.0075	464.0247	529.9903	640.4	728.2063	755.2489	836.0316	864.0342	916.3175	950.6693	1058.2094	1070.9827	1077.0208	1091.3462	1114.1604	1119.6197	1169.9943	1239.8988	1293.6489	1313.4102	1376.955	1385.9475	1393.3934	1406.113	1419.3877	1489.588	1497.4271	1500.4491	1509.9888	1727.1667	1789.3127	3008.9425	3038.3656	3046.0827	3076.9043	3113.1967	3126.5405	3129.5538	3506.6421	3613.5917	3834.6451
CC(CO)C(=O)NC=N	C[C@@H](CO)C(=O)NC=N	
InChI=1S/C5H10N2O2/c1-4(2-8)5(9)7-3-6/h3-4,8H,2H2,1H3,(H2,6,7,9)	InChI=1S/C5H10N2O2/c1-4(2-8)5(9)7-3-6/h3-4,8H,2H2,1H3,(H2,6,7,9)/t4-/m0/s1
