15
gdb 32398	6.4757	0.86662	0.76799	2.099	80.4	-0.2122	-0.0125	0.1997	1402.4757	0.112489	-416.807941	-416.799332	-416.798388	-416.841818	31.187	
O	-0.0316719825	 1.4307252671	 0.0070976607	-0.422152
C	 0.0022547167	 0.0114909235	 0.0019135766	-0.198685
C	-1.4068928834	-0.4861268983	 0.0126370292	 0.271938
C	-2.5619471836	 0.2590537877	 0.0236414515	-0.15701
N	-3.5814364919	-0.6579201057	 0.0301590855	-0.294786
C	-3.0156714018	-1.9071139794	 0.0228743174	 0.176234
N	-1.693633446	-1.8235957464	 0.0123077916	-0.355456
C	-3.7969935926	-3.0844282868	 0.0268955658	 0.267092
C	-4.4908967931	-4.0683081743	 0.0306099935	-0.411833
H	 0.8743713214	 1.7504737152	 0.0012141683	 0.292088
H	 0.5208610444	-0.3790142066	-0.8881126136	 0.108057
H	 0.5364344867	-0.3852784058	 0.8798456676	 0.108094
H	-2.7318789696	 1.3211656289	 0.0273090897	 0.148448
H	-4.5685791433	-0.4627473704	 0.0387589933	 0.272073
H	-5.0881540814	-4.9462884886	 0.0337614529	 0.195897
40.148	127.8812	134.8584	218.8607	222.5017	276.0752	406.0284	453.1929	547.4651	549.9779	564.7448	629.9502	656.8339	684.8051	712.7093	734.0343	762.8111	1002.6911	1013.2724	1049.1016	1087.5775	1113.5524	1203.9255	1233.4471	1244.0457	1294.4656	1377.1814	1423.9004	1455.6948	1514.5298	1531.8378	1598.5731	2234.7833	2971.1212	2992.1273	3296.7543	3502.3501	3667.6691	3845.6656
OCC1=CNC(=N1)C#C	OCc1c[nH]c(n1)C#C	
InChI=1S/C6H6N2O/c1-2-6-7-3-5(4-9)8-6/h1,3,9H,4H2,(H,7,8)	InChI=1S/C6H6N2O/c1-2-6-7-3-5(4-9)8-6/h1,3,9H,4H2,(H,7,8)
