20
gdb 90875	2.70192	1.7084	1.52866	1.8461	76.97	-0.2204	0.0648	0.2852	971.0497	0.174338	-403.113755	-403.10647	-403.105526	-403.145063	30.174	
O	 0.0487680564	 1.4396151805	 0.1193378857	-0.424641
C	 0.0584832396	 0.0111983099	 0.0591653012	 0.100925
C	-1.3953433113	-0.4687873765	 0.177899628	-0.235891
C	-2.137521319	-0.7346833462	-1.1212002244	 0.004063
C	-2.2312420571	 0.0810200511	-2.3528725823	-0.039804
C	-0.9909018975	 0.9006195895	-2.6708944015	-0.27058
C	-0.1846506828	-0.4117740621	-2.4452292238	 0.033094
C	 0.7182922118	-0.5189857182	-1.2228783414	-0.237057
N	-1.4574563112	-1.237893111	-2.3344681211	-0.170057
H	 0.9576421791	 1.7436433085	 0.0259907205	 0.279275
H	 0.6146125855	-0.3715476937	 0.9281476995	 0.066547
H	-1.3900507611	-1.4154425636	 0.7318970534	 0.106348
H	-1.9459530529	 0.250251206	 0.793622355	 0.11977
H	-3.0422649759	-1.3169679368	-0.9490227577	 0.089162
H	-3.1743801073	 0.1631751365	-2.8861954455	 0.085779
H	-0.9679344635	 1.2074736817	-3.7188631744	 0.099893
H	-0.7793565763	 1.7559219992	-2.0304818164	 0.121468
H	 0.3542631277	-0.7365288464	-3.3376260199	 0.078076
H	 1.6621614396	 0.0149181142	-1.3970552803	 0.085443
H	 0.9789549561	-1.5761624527	-1.0793115447	 0.108189
123.7628	211.8482	313.5283	345.7559	359.2118	361.9616	423.3341	514.6954	588.8779	701.4713	722.258	775.8386	786.0108	817.1047	834.53	897.3451	928.3437	945.2421	967.9505	995.7534	1037.6798	1067.5673	1074.7437	1087.831	1112.5509	1142.8616	1171.2146	1206.5312	1229.5071	1233.9278	1270.7246	1278.513	1308.5151	1317.4461	1366.461	1380.2839	1390.4163	1402.2304	1424.1961	1455.0444	1468.3673	1473.7897	1495.9226	2974.0171	3012.7687	3033.0512	3051.1418	3071.7669	3077.7406	3083.2269	3109.0513	3142.5852	3147.4144	3811.6549
OC1CC2C3CC(C1)N23	O[C@H]1C[C@H]2[C@H]3C[C@@H](C1)N23	
InChI=1S/C7H11NO/c9-5-1-4-2-6-7(3-5)8(4)6/h4-7,9H,1-3H2	InChI=1S/C7H11NO/c9-5-1-4-2-6-7(3-5)8(4)6/h4-7,9H,1-3H2/t4-,5-,6-,7+,8?/m1/s1
