17
gdb 53830	3.96697	0.90838	0.78857	1.2632	71.69	-0.2513	-0.0695	0.1817	1460.559	0.13264	-458.989351	-458.979791	-458.978847	-459.026023	32.967	
C	 0.0437346208	 1.3427665624	 0.3351749231	-0.47149
C	 0.0357969144	-0.1645889412	 0.3829634015	 0.281362
O	 1.0180552022	-0.8535798987	 0.4780851079	-0.263357
C	-1.3759118852	-0.7929579868	 0.289262162	 0.346697
O	-2.3749261192	-0.1312010002	 0.1484195139	-0.348454
O	-1.3208638881	-2.1224770293	 0.3918620532	-0.219248
C	-2.5501796281	-2.8271384416	 0.3007131691	 0.136422
C	-2.6691454456	-3.8314430274	-0.8058507398	-0.280769
C	-2.4688386029	-4.2810976659	 0.6282577934	-0.294213
H	 1.0703357847	 1.7046724994	 0.3916068573	 0.142318
H	-0.4378308778	 1.6920427841	-0.5834850225	 0.158466
H	-0.5500052147	 1.7468690601	 1.1615758894	 0.156746
H	-3.4044936073	-2.2301458303	 0.5909206226	 0.132011
H	-3.638683965	-3.9614583939	-1.2730186223	 0.126241
H	-1.8207846956	-3.9248920763	-1.4737128722	 0.133732
H	-1.4907188084	-4.6660939864	 0.8921225398	 0.138319
H	-3.2976186342	-4.7303676879	 1.1632419238	 0.125219
23.1208	42.4979	92.3021	121.6171	134.0525	281.135	310.1056	384.642	392.9898	464.5064	523.2992	600.9542	719.516	753.9396	816.8909	828.7592	865.9776	941.211	979.9797	999.5407	1037.5227	1058.8842	1077.6633	1122.7717	1161.996	1176.3248	1193.8096	1236.0381	1313.1453	1384.875	1394.5189	1453.104	1455.9661	1460.8419	1497.8352	1801.8336	1830.3929	3049.868	3111.3759	3142.6105	3145.2157	3163.4765	3206.0386	3227.4885	3241.3781
CC(=O)C(=O)OC1CC1	CC(=O)C(=O)OC1CC1	
InChI=1S/C6H8O3/c1-4(7)6(8)9-5-2-3-5/h5H,2-3H2,1H3	InChI=1S/C6H8O3/c1-4(7)6(8)9-5-2-3-5/h5H,2-3H2,1H3
