23
gdb 121416	4.06281	0.7571	0.67009	1.8926	82.3	-0.2448	0.0773	0.3221	1693.2103	0.207143	-425.432665	-425.423228	-425.422284	-425.467301	35.483	
O	-0.1277806886	 1.5154379893	-0.1043510582	-0.420616
C	 0.0326889109	 0.1086867341	 0.0134487311	-0.084281
C	-1.359848166	-0.5111565238	 0.0455941569	-0.180752
C	-1.3789993374	-2.0455636536	 0.0570816266	 0.020065
C	-0.7623121014	-2.6578382452	 1.3286098423	-0.20317
C	-0.9169304617	-4.1812686825	 1.3310306755	-0.078449
O	-2.268767824	-4.5803498366	 1.1945978241	-0.241018
C	-2.8379315017	-4.1121042942	-0.0159209933	-0.082639
C	-2.8111022679	-2.5852131738	-0.1051732152	-0.2074
H	 0.7438832084	 1.9204913553	-0.0791803485	 0.28462
H	 0.6001611231	-0.2996276491	-0.8400765105	 0.081708
H	 0.5911852573	-0.146459109	 0.9270733244	 0.086805
H	-1.8958863309	-0.1247195308	 0.9219515283	 0.10238
H	-1.903884621	-0.146889745	-0.8347688148	 0.101741
H	-0.7911744284	-2.4024583188	-0.8039623428	 0.065055
H	 0.3006815297	-2.4062895304	 1.4165331182	 0.09203
H	-1.2678902994	-2.2468802915	 2.2124409146	 0.101721
H	-0.3117079721	-4.6166539428	 0.515370891	 0.080089
H	-0.56466145	-4.6120341646	 2.2731044308	 0.103767
H	-2.2988464372	-4.5458466703	-0.8773949522	 0.080144
H	-3.8635742646	-4.4923340021	-0.0388162853	 0.104291
H	-3.4487137336	-2.1725479183	 0.6875412243	 0.101905
H	-3.2369586135	-2.2639735564	-1.0634874174	 0.092004
79.6085	81.6225	124.0386	194.3189	236.2981	269.064	300.8119	334.4618	367.4873	448.073	477.7365	503.0307	617.028	782.3117	818.0621	828.2643	880.135	911.7531	989.164	1001.0248	1011.5934	1018.9787	1033.4029	1069.2273	1102.6678	1115.8062	1158.1545	1179.6551	1195.8187	1229.3887	1242.1458	1268.8881	1289.3409	1302.1992	1315.3516	1330.0591	1340.7604	1366.5199	1378.8857	1392.4484	1395.4237	1427.9923	1464.144	1469.787	1483.0075	1492.6245	1493.7933	1504.0948	1529.0755	2941.8286	2948.4619	2957.2935	2974.7885	2994.1539	3019.6435	3022.1651	3027.2362	3063.1432	3068.3683	3071.462	3078.9514	3081.8554	3830.2581
OCCC1CCOCC1	OCCC1CCOCC1	
InChI=1S/C7H14O2/c8-4-1-7-2-5-9-6-3-7/h7-8H,1-6H2	InChI=1S/C7H14O2/c8-4-1-7-2-5-9-6-3-7/h7-8H,1-6H2
