16
gdb 30176	4.40246	1.31724	1.07064	2.8856	70.41	-0.2042	0.	0.2042	1094.5456	0.126197	-437.904745	-437.897488	-437.896544	-437.937057	27.376	
C	 0.2397564236	 1.4896385665	 0.0902006278	-0.394529
C	 0.0414896827	-0.008063629	-0.0258004538	 0.123571
C	 0.7381369621	-0.6627252762	-1.2942176386	-0.39777
C	 1.4171081695	-1.7799450375	-0.5924090403	 0.202489
C	 1.3085904526	-1.6791738758	 0.7402444512	 0.358514
O	 0.5755790271	-0.6414891825	 1.1974341767	-0.289135
N	 2.0198513115	-2.6577713428	 1.3829868088	-0.351675
C	 2.5414402045	-3.3114803451	 0.3814329409	 0.044925
O	 2.2357574771	-2.8419453754	-0.8613876733	-0.18814
H	 1.3059225096	 1.7338182205	 0.1211486562	 0.131678
H	-0.2086420556	 1.9975581023	-0.7698608452	 0.12242
H	-0.2293198325	 1.8706432032	 1.0010782147	 0.136654
H	-1.0249585694	-0.2560993543	-0.0411226622	 0.103458
H	-0.0107647975	-0.9552629202	-2.0374373362	 0.12575
H	 1.4280470866	 0.0414780599	-1.7787681171	 0.120576
H	 3.174630048	-4.1831705638	 0.4198767604	 0.151215
46.4786	166.509	245.4999	273.9351	336.8703	436.6063	472.6668	594.3237	634.3274	727.4775	734.5651	773.0293	791.3909	822.0558	880.5032	936.5007	954.1924	1051.5786	1092.0993	1094.2909	1118.652	1157.0472	1196.2611	1250.8489	1289.2273	1327.3103	1362.0492	1381.253	1412.362	1450.2787	1483.6366	1496.2294	1505.1557	1513.8093	1701.9646	3007.6061	3041.582	3044.7095	3065.4319	3114.7917	3125.6924	3283.3073
CC1CC2=C(O1)N=CO2	C[C@H]1Cc2c(O1)nco2	
InChI=1S/C6H7NO2/c1-4-2-5-6(9-4)7-3-8-5/h3-4H,2H2,1H3	InChI=1S/C6H7NO2/c1-4-2-5-6(9-4)7-3-8-5/h3-4H,2H2,1H3/t4-/m0/s1
