21
gdb 40140	2.5728	1.47412	1.21075	1.9565	81.86	-0.2423	0.0749	0.3172	1127.3743	0.182691	-387.040377	-387.031958	-387.031014	-387.074111	32.378	
C	 0.0546400206	 1.4764808664	-0.0948488973	-0.325556
C	 1.3385776459	 0.6825140582	-0.0175188994	-0.329885
C	 0.0157930781	-0.0215342734	 0.0203242139	 0.314908
C	-0.6214997147	-0.7997621693	 1.1790656559	-0.307417
C	-1.4812298802	-1.5600799652	 0.1275274729	-0.299353
C	-0.5859161166	-0.9952651973	-1.0058069552	 0.23657
C	-1.1286816298	-0.5855617412	-2.385813493	-0.140729
O	-0.2313973928	-1.4836385632	-3.0685867454	-0.275789
C	 0.3251492648	-1.9419490911	-1.8202234547	-0.126987
H	-0.2452404448	 2.0570962351	 0.7720829395	 0.112132
H	-0.2012768222	 1.9340110607	-1.0453143312	 0.114716
H	 1.9379575462	 0.6030303858	-0.9195913723	 0.117078
H	 1.919097062	 0.7270747935	 0.8986965085	 0.1127
H	 0.0875982486	-1.452033082	 1.6984267706	 0.102985
H	-1.1646847748	-0.2138641577	 1.9251780641	 0.10031
H	-1.5218212806	-2.6491667165	 0.2124499507	 0.100923
H	-2.5043571431	-1.1775968323	 0.0681301385	 0.105192
H	-2.1831046382	-0.8376802341	-2.5643421348	 0.096641
H	-0.9629593169	 0.4603591733	-2.6774310347	 0.097361
H	 1.4022041007	-1.7410168298	-1.7515799867	 0.099065
H	 0.1500516177	-3.0147168899	-1.6607754799	 0.095137
53.6112	59.0607	195.3305	227.6641	269.6758	319.4521	392.2467	466.0273	497.97	560.8734	739.023	778.4109	849.0978	853.8564	871.3318	888.8255	908.4743	934.3348	947.2559	974.4389	981.8695	999.3401	1039.7823	1049.9366	1076.923	1128.3423	1146.0249	1157.7957	1168.1062	1179.293	1190.3792	1205.6015	1215.0241	1245.969	1262.5867	1303.487	1309.6333	1370.1364	1383.7233	1462.5134	1475.8888	1495.1251	1500.5233	1507.0638	1530.9362	2990.3642	3002.9753	3035.4469	3041.8042	3046.0575	3053.214	3091.3216	3109.5316	3118.9625	3122.7439	3195.9447	3210.867
C1CC11CCC11COC1	C1CC21CCC12COC1	
InChI=1S/C8H12O/c1-2-7(1)3-4-8(7)5-9-6-8/h1-6H2	InChI=1S/C8H12O/c1-2-7(1)3-4-8(7)5-9-6-8/h1-6H2
