15
gdb 23438	3.90985	1.23127	1.07225	1.2129	69.28	-0.2553	-0.0195	0.2359	1092.2384	0.113532	-453.896801	-453.889531	-453.888587	-453.929048	27.462	
O	-0.1110820219	 1.4032355712	 0.372580062	-0.381845
N	 0.0589479575	 0.0158117651	 0.3386065671	-0.221131
C	-1.0077339729	-0.5681404983	-0.0135120642	 0.40352
C	-2.4315693817	-0.1621467768	-0.359060258	-0.332759
C	-2.7589676116	-1.6775956022	-0.5448983965	-0.017453
N	-2.872242333	-2.0947708218	-1.9457843225	-0.260087
C	-1.7484695724	-2.5952176971	-2.2555720195	 0.119041
O	-0.7515079339	-2.6768506685	-1.3351109967	-0.221521
C	-1.2854189268	-2.0525296693	-0.1462677003	-0.019787
H	 0.759648483	 1.7123840403	 0.6466208835	 0.312556
H	-2.9585101994	 0.337341705	 0.459741314	 0.13179
H	-2.5454535972	 0.4372271045	-1.2661653139	 0.13992
H	-3.5860623061	-2.0656311823	 0.0510524063	 0.09295
H	-1.4863400267	-2.9980040187	-3.2276349415	 0.147172
H	-1.0594532571	-2.689402591	 0.7094774903	 0.107632
60.507	165.3065	202.6804	323.2672	351.5423	407.5203	486.6134	522.4562	617.1089	680.2815	770.1289	803.348	842.4776	875.8689	931.3319	954.6764	970.8164	990.7707	1030.779	1050.9148	1102.5006	1126.0583	1170.2913	1193.5082	1249.601	1259.5699	1301.4408	1311.8686	1346.0171	1409.4355	1451.2389	1686.5856	1774.279	3058.2143	3099.1865	3111.3281	3114.9228	3218.6848	3811.5809
ON=C1CC2N=COC12	ON=C1C[C@H]2N=CO[C@@H]12	
InChI=1S/C5H6N2O2/c8-7-4-1-3-5(4)9-2-6-3/h2-3,5,8H,1H2	InChI=1S/C5H6N2O2/c8-7-4-1-3-5(4)9-2-6-3/h2-3,5,8H,1H2/t3-,5-/m1/s1
