23
gdb 109970	1.76651	1.50116	1.10484	0.6764	91.05	-0.2517	0.0493	0.301	1284.9312	0.204222	-351.121812	-351.111645	-351.110701	-351.156648	38.505	
C	-0.1973441043	 1.8235727886	 0.5408301408	-0.385733
C	-0.3096694505	 0.3076756739	 0.3423011892	-0.200996
C	 0.6332686097	-0.4775201962	 1.2428103574	 0.042176
C	 0.6925373906	-2.039325638	 1.1817170719	-0.006583
C	 0.2559570543	-2.6837249175	-0.1329684407	-0.401016
C	 2.2356221432	-1.9523385404	 1.355302949	-0.235999
C	 2.1923788963	-0.4268278646	 0.9986621848	-0.202423
C	 2.6143492009	-0.1072222468	-0.3521776096	 0.365181
C	 2.9676695471	 0.1574534962	-1.4723420953	-0.503106
H	 0.8097046423	 2.1771147966	 0.2979162983	 0.126543
H	-0.9011103039	 2.3601147324	-0.1030759775	 0.11006
H	-0.4122331392	 2.1062971162	 1.5778213354	 0.108095
H	-1.3389854765	-0.0148617864	 0.5483394342	 0.090116
H	-0.1108597428	 0.0639876854	-0.7067340789	 0.108695
H	 0.4624823751	-0.1742104392	 2.2825859612	 0.070272
H	 0.1705210624	-2.5288067952	 2.0100323474	 0.06406
H	 0.7829225564	-2.252826912	-0.9897641742	 0.13115
H	 0.4737035526	-3.7574196801	-0.1162916861	 0.109446
H	-0.8194329928	-2.5652106694	-0.3028332038	 0.11211
H	 2.5607746903	-2.1103579785	 2.3864522655	 0.09964
H	 2.8381670778	-2.5785699878	 0.6939888136	 0.106416
H	 2.7316907162	 0.2166705664	 1.7000945872	 0.097496
H	 3.2858813747	 0.3922931566	-2.4576501797	 0.194402
72.0146	94.5407	144.0906	168.6018	201.4199	231.1769	260.9831	285.5614	351.8622	377.9732	459.9162	503.4397	574.5609	615.0419	619.2525	706.2479	775.8781	793.3756	816.0314	847.3659	917.2267	946.7758	958.5199	1007.6733	1028.44	1050.9621	1073.3888	1112.1891	1140.2942	1159.1313	1183.4528	1214.634	1256.8563	1263.7158	1276.9798	1299.7611	1334.7151	1350.0546	1372.2074	1398.8781	1408.8355	1413.8895	1480.4302	1483.584	1499.18	1500.4845	1503.6414	1506.5854	2223.1622	3020.0089	3025.3514	3029.8074	3030.5985	3046.5318	3054.1193	3067.3585	3070.4927	3093.4013	3098.2459	3106.5596	3109.7138	3121.5052	3504.2579
CCC1C(C)CC1C#C	CC[C@H]1[C@@H](C)C[C@H]1C#C	
InChI=1S/C9H14/c1-4-8-6-7(3)9(8)5-2/h1,7-9H,5-6H2,2-3H3	InChI=1S/C9H14/c1-4-8-6-7(3)9(8)5-2/h1,7-9H,5-6H2,2-3H3/t7-,8+,9-/m0/s1
