21
gdb 114001	2.97324	0.76135	0.65184	2.7368	80.44	-0.2523	-0.0283	0.2239	1750.7742	0.179105	-424.209791	-424.199406	-424.198461	-424.246905	36.245	
C	-0.0302611184	 1.237510006	 0.1571023411	-0.373993
C	-0.3122260031	-0.1943656245	-0.3124688026	-0.19745
C	 0.6456678308	-0.6595376543	-1.3907766988	-0.021083
C	 2.0351295622	-1.1418597386	-1.0073564255	-0.326614
C	 1.0311480243	-2.1152506053	-1.5341177781	 0.114469
O	 0.548611436	-3.0603929154	-0.6242744283	-0.25108
C	-0.6768221723	-3.6388500218	-1.0116400536	-0.15169
C	-1.0647087541	-4.6626177508	 0.0404273332	 0.13896
O	-2.0838560268	-5.298996934	 0.0071810911	-0.23804
H	 0.9802844917	 1.323477452	 0.5693452262	 0.118969
H	-0.1106174218	 1.9490510829	-0.6719976783	 0.113615
H	-0.7391292284	 1.5465383901	 0.9315787119	 0.112653
H	-0.252502795	-0.883525483	 0.5369248771	 0.106229
H	-1.3423273374	-0.255103394	-0.6880651078	 0.095505
H	 0.5796919109	-0.1054519591	-2.3248439877	 0.083463
H	 2.8872473937	-0.8824444434	-1.6252182578	 0.114505
H	 2.2491530747	-1.2126994624	 0.0542900448	 0.124884
H	 1.1674592389	-2.5113535678	-2.5414428676	 0.086325
H	-1.4808854578	-2.8928669319	-1.1017330227	 0.128843
H	-0.5969898486	-4.1490621681	-1.9863014463	 0.124216
H	-0.3121195397	-4.7734690567	 0.8520702197	 0.097314
40.1056	54.942	91.0648	106.0615	137.5645	182.3335	223.0456	271.143	348.6918	374.8842	435.7797	561.1033	612.024	740.3725	765.5836	795.0736	811.032	855.0372	957.286	972.3834	1016.3263	1044.9069	1065.4641	1080.927	1106.48	1114.3225	1133.8378	1137.4896	1185.5366	1199.4847	1235.7046	1249.0189	1293.3923	1336.6377	1348.2662	1394.3153	1406.51	1413.3264	1423.6543	1477.0337	1485.8871	1496.5528	1497.4568	1508.915	1844.9757	2898.6319	2972.7022	3013.5181	3019.6097	3032.5775	3066.6221	3088.8078	3101.2839	3106.5055	3129.2511	3134.477	3221.9647
CCC1CC1OCC=O	CC[C@H]1C[C@H]1OCC=O	
InChI=1S/C7H12O2/c1-2-6-5-7(6)9-4-3-8/h3,6-7H,2,4-5H2,1H3	InChI=1S/C7H12O2/c1-2-6-5-7(6)9-4-3-8/h3,6-7H,2,4-5H2,1H3/t6-,7+/m0/s1
