18
gdb 117314	4.89829	0.70514	0.62167	6.4269	72.48	-0.2452	0.0089	0.2541	1751.8631	0.146277	-472.429891	-472.41956	-472.418616	-472.466667	35.608	
C	-0.0071029714	 1.4019160641	-0.1110178027	-0.227108
O	 0.1510049709	 0.0045545745	-0.0507033351	-0.198661
C	-1.0639846148	-0.6714792017	-0.0152828684	-0.12502
C	-0.8451652322	-2.1756241525	 0.0269462019	 0.345643
N	 0.3026806743	-2.6948185551	-0.0440391111	-0.478908
N	-2.087413579	-2.845904539	 0.1330230072	-0.406885
C	-2.268088896	-4.2201277844	 0.2007930626	 0.479184
N	-3.5973521009	-4.5922835957	 0.3198238016	-0.565354
O	-1.3603610614	-5.0284556034	 0.1992076838	-0.371928
H	 0.9938318587	 1.837614453	-0.1362025006	 0.136504
H	-0.5551815256	 1.7143303014	-1.0146153698	 0.102947
H	-0.5443345115	 1.7930264115	 0.7682113702	 0.102618
H	-1.6620310141	-0.3749793877	 0.8695331374	 0.091377
H	-1.6846775062	-0.4311382862	-0.9005424098	 0.096483
H	 0.2325619306	-3.7122908012	 0.0050521517	 0.252746
H	-2.9013259211	-2.2683525119	 0.2786457244	 0.246057
H	-4.3055290321	-4.0149807316	-0.1073931726	 0.2516
H	-3.7356989682	-5.5835143741	 0.1930298192	 0.268704
37.661	57.4273	93.9581	114.6782	128.5645	235.0519	257.3409	318.6293	350.9074	389.2019	430.1529	477.2409	534.2694	550.1036	589.9898	751.7911	773.3002	936.0511	954.2319	955.8757	1044.0146	1058.5628	1101.732	1113.5911	1179.9803	1183.5451	1241.6283	1270.5137	1285.0929	1354.9471	1435.4223	1476.7015	1486.2257	1496.0456	1523.6119	1525.4208	1629.2155	1753.832	1818.2418	2907.4702	2924.8895	2965.9189	3008.5292	3123.5855	3480.1797	3576.8137	3613.776	3692.23
COCC(=N)NC(N)=O	COCC(=N)NC(=O)N	
InChI=1S/C4H9N3O2/c1-9-2-3(5)7-4(6)8/h2H2,1H3,(H4,5,6,7,8)	InChI=1S/C4H9N3O2/c1-9-2-3(5)7-4(6)8/h2H2,1H3,(H4,5,6,7,8)
