13
gdb 20612	3.41855	1.97668	1.26228	2.2136	67.55	-0.2609	-0.0411	0.2198	890.9377	0.097532	-357.686446	-357.67923	-357.678285	-357.718776	25.25	
C	-0.0012232873	 1.5534451909	 0.0608868967	-0.520259
C	 0.0242430162	 0.05881984	 0.0172149608	 0.101869
C	-0.0286081986	-0.7583961746	-1.1065271803	 0.224419
N	 0.0230103502	-2.0486737597	-0.6567946987	-0.275048
N	 0.1051238201	-2.1258705813	 0.6717321004	-0.197169
C	 0.1064383654	-0.8593107435	 1.0859520296	-0.062507
C	-0.118045827	-0.4338624446	-2.4786636309	 0.220308
N	-0.1913313903	-0.1679710354	-3.6040991321	-0.344088
H	 0.9032202477	 1.9526601619	 0.5318291198	 0.143619
H	-0.0698740946	 1.975668164	-0.9445658758	 0.148143
H	-0.856754081	 1.9195918188	 0.6381040691	 0.143624
H	 0.005223657	-2.8901720305	-1.2096434546	 0.29097
H	 0.166532952	-0.642933386	 2.1425945459	 0.126121
41.2355	138.862	168.8158	268.6375	317.3873	495.4908	525.0879	541.1262	597.9234	692.2626	695.5713	711.0664	884.7863	956.8618	1007.099	1064.9409	1158.0296	1181.2264	1249.2675	1285.4084	1382.2752	1422.2984	1432.0066	1484.2653	1490.7175	1501.9396	1605.9146	2342.2884	3038.9265	3093.3209	3123.3795	3248.5053	3664.6639
CC1=C(NN=C1)C#N	Cc1c([nH]nc1)C#N	
InChI=1S/C5H5N3/c1-4-3-7-8-5(4)2-6/h3H,1H3,(H,7,8)	InChI=1S/C5H5N3/c1-4-3-7-8-5(4)2-6/h3H,1H3,(H,7,8)
