18
gdb 5302	4.30456	1.40074	1.37292	0.4422	74.22	-0.2121	0.0243	0.2365	1006.7038	0.154104	-347.844925	-347.836957	-347.836013	-347.877504	29.701	
C	-0.0534382834	 1.5499282611	 0.0302607614	-0.383678
C	-0.0182140887	 0.0095274011	 0.0395366335	-0.084713
C	 0.7215065128	-0.5207857448	 1.2827690867	-0.383693
C	-1.3920698943	-0.5710660223	-0.0705061773	 0.392449
C	-2.0086579688	-1.3592201062	-0.9932020048	-0.293679
C	-3.3469979156	-1.5763451099	-0.5238154952	-0.170217
C	-3.4438099858	-0.9031831041	 0.6496868807	-0.022728
O	-2.2659393548	-0.2860327189	 0.9418559488	-0.188745
H	 0.9611008393	 1.9586083824	 0.0764960786	 0.109367
H	-0.5355236959	 1.9282012779	-0.8759151754	 0.117518
H	-0.611876902	 1.9276378861	 0.8921542986	 0.127919
H	 0.5230266186	-0.3276186624	-0.8527420396	 0.086302
H	 0.1956019314	-0.2299032807	 2.1972047088	 0.127923
H	 0.7895520683	-1.6124554076	 1.2657347457	 0.117517
H	 1.7365643187	-0.1134822115	 1.3298090062	 0.109372
H	-1.5641935334	-1.7406977048	-1.8994697559	 0.103178
H	-4.123933384	-2.1543686563	-0.999172022	 0.10785
H	-4.2345841425	-0.7646370891	 1.3683091112	 0.12806
53.5023	137.0378	191.9518	225.4352	264.87	321.3315	388.075	480.9592	614.7167	642.141	712.9057	743.2433	804.8222	845.017	874.86	902.8805	929.8243	947.9175	962.3053	1025.2544	1063.9824	1106.8783	1120.6626	1179.4364	1186.7152	1237.7967	1258.2922	1332.0565	1346.6189	1393.7027	1409.5274	1423.8426	1487.0157	1491.4681	1500.9835	1509.9476	1543.7435	1635.4399	3034.4114	3036.1313	3038.3173	3105.3205	3109.8426	3112.8313	3117.0201	3248.1679	3259.829	3284.8676
CC(C)C1=CC=CO1	CC(C)c1ccco1	
InChI=1S/C7H10O/c1-6(2)7-4-3-5-8-7/h3-6H,1-2H3	InChI=1S/C7H10O/c1-6(2)7-4-3-5-8-7/h3-6H,1-2H3
