14
gdb 5293	5.07869	1.54679	1.19461	5.2453	65.36	-0.221	-0.0004	0.2206	939.0039	0.109831	-378.794343	-378.787331	-378.786386	-378.825747	26.576	
N	-0.046822162	 1.355867615	-0.0140513919	-0.542219
C	 0.0221305764	-0.0200108774	-0.1355357427	 0.296449
O	 1.0798044705	-0.5921600742	-0.3306208594	-0.363265
C	-1.2662992856	-0.7369017247	-0.0534767978	 0.195071
C	-2.5506298357	-0.2242381775	-0.1054169533	-0.186575
N	-3.4199585201	-1.2717493389	-0.0101379731	-0.24196
C	-2.7216471386	-2.4540425848	 0.0997082776	-0.068916
C	-1.385625625	-2.1535190619	 0.0711955203	-0.229778
H	 0.8484658351	 1.8101611881	 0.0872773547	 0.253052
H	-0.8019786215	 1.7573936298	 0.5179037162	 0.247097
H	-2.9094358816	 0.7835688714	-0.2409603104	 0.126121
H	-4.4216972781	-1.1931582241	-0.0400707459	 0.265802
H	-3.2391837867	-3.3953257028	 0.1890119365	 0.126949
H	-0.5582030371	-2.8413179678	 0.1330282589	 0.122172
72.8643	185.354	195.4248	400.0099	421.0951	502.2896	509.5862	530.6203	636.9705	644.4158	669.561	700.2495	759.679	810.059	876.1671	904.9705	954.7085	1059.2305	1091.1448	1098.7193	1161.2411	1219.5382	1271.9784	1380.9475	1419.2518	1457.5297	1529.1643	1589.0518	1618.4735	1777.9097	3258.8901	3262.2386	3281.6386	3578.6178	3678.6486	3702.0277
NC(=O)C1=CNC=C1	NC(=O)c1c[nH]cc1	
InChI=1S/C5H6N2O/c6-5(8)4-1-2-7-3-4/h1-3,7H,(H2,6,8)	InChI=1S/C5H6N2O/c6-5(8)4-1-2-7-3-4/h1-3,7H,(H2,6,8)
