14
gdb 24912	4.97908	1.35324	1.07112	4.5802	69.01	-0.2092	0.	0.2092	1035.1495	0.104457	-432.903001	-432.896397	-432.895453	-432.934128	25.57	
N	-0.0328757099	 1.2160206458	 0.0070043318	-0.522921
C	-0.020530694	-0.0398724811	 0.0005280329	 0.398539
C	-1.2837926246	-0.9372329046	 0.0027065384	-0.445414
C	-0.6226107862	-2.2701851114	-0.0074651758	 0.225626
C	 0.7235245706	-2.1210738512	-0.013807723	 0.382274
O	 1.1444815881	-0.8104570817	-0.0093566576	-0.252531
N	 1.4129956805	-3.2809071292	-0.0232657011	-0.348058
C	 0.4461062006	-4.1900070485	-0.0235239756	-0.008784
N	-0.8087397094	-3.6340976755	-0.0132353448	-0.379275
H	 0.916183204	 1.5922145355	 0.0039612365	 0.23553
H	-1.8885300041	-0.7149087254	 0.8889539459	 0.151425
H	-1.8978647374	-0.7060662569	-0.8748179437	 0.151421
H	 0.5953906475	-5.2583131129	-0.0301149948	 0.139115
H	-1.678073006	-4.140054813	-0.0109932691	 0.273053
107.8464	167.7837	321.8503	347.6341	492.4711	537.3932	546.2343	557.2481	658.7503	731.8022	736.3224	766.4927	801.9481	847.971	895.0325	969.8122	974.4025	1009.8141	1097.3246	1147.625	1150.9501	1222.8073	1260.1234	1283.4839	1385.0102	1403.6161	1456.2192	1469.4501	1526.6817	1649.5444	1795.3979	3039.4865	3069.1887	3266.355	3485.5879	3671.8809
N=C1CC2=C(O1)N=CN2	[NH][C]1Cc2c(O1)nc[nH]2	
InChI=1S/C5H5N3O/c6-4-1-3-5(9-4)8-2-7-3/h2,6H,1H2,(H,7,8)	InChI=1S/C5H5N3O/c6-4-1-3-5(9-4)8-2-7-3/h2,6H,1H2,(H,7,8)
