18
gdb 28034	3.89544	0.9351	0.86056	1.4082	85.55	-0.2007	0.0295	0.2303	1402.7407	0.146858	-364.811083	-364.801955	-364.801011	-364.846131	33.393	
C	-0.0120900937	 1.526644557	 0.006275107	-0.497419
C	 0.007275821	 0.0275724447	 0.0212337395	 0.267745
C	-0.0062030488	-0.8032923037	-1.0758315059	-0.187188
N	-0.0046865361	-2.1098158778	-0.6418169863	 0.035432
C	 0.0725659546	-3.2808797747	-1.4971634072	-0.337442
C	 1.4362189028	-3.6523616533	-1.8797487623	 0.33108
C	 2.5523978041	-3.9609366426	-2.1978829504	-0.451768
C	 0.026345122	-2.1219858205	 0.7312752291	-0.081967
C	 0.0288055128	-0.8205390551	 1.1701320166	-0.263212
H	 0.8633860408	 1.9484454635	 0.513866369	 0.123506
H	-0.0158338838	 1.9117204738	-1.0177962807	 0.116375
H	-0.8980345942	 1.9280957412	 0.5125689945	 0.122354
H	-0.0153936409	-0.5751602554	-2.1305855207	 0.114012
H	-0.4065223003	-4.1163365755	-0.9748477944	 0.148049
H	-0.5254162948	-3.0928054448	-2.3962570755	 0.148237
H	 3.5420502609	-4.2290913131	-2.4747239163	 0.205337
H	 0.0444616696	-3.0560854935	 1.2706616632	 0.116634
H	 0.030014364	-0.5022988402	 2.2022029807	 0.090236
29.0168	73.034	97.7966	210.9074	252.0765	280.3496	322.5218	388.3801	454.9859	606.5603	624.6983	634.6946	651.5384	667.6659	677.4681	752.9345	761.386	807.8748	943.1022	967.4227	980.7906	1012.955	1020.1868	1062.832	1098.6003	1188.2337	1217.1764	1277.0477	1359.9786	1377.371	1409.3869	1422.0444	1433.3907	1465.6926	1483.5019	1498.6387	1536.4446	1611.5819	2242.329	3022.7004	3038.1951	3070.2832	3074.6836	3101.9322	3236.7614	3250.3076	3261.3818	3504.5841
CC1=CN(CC#C)C=C1	Cc1cn(CC#C)cc1	
InChI=1S/C8H9N/c1-3-5-9-6-4-8(2)7-9/h1,4,6-7H,5H2,2H3	InChI=1S/C8H9N/c1-3-5-9-6-4-8(2)7-9/h1,4,6-7H,5H2,2H3
