20
gdb 96895	2.63423	1.31512	1.05302	2.4181	83.78	-0.243	0.03	0.273	1249.6619	0.168455	-403.133808	-403.123988	-403.123044	-403.168384	35.681	
C	 0.0211839977	 1.4081102504	-0.1290342628	-0.339761
N	-0.0778881495	-0.0446981147	-0.1339361942	-0.35216
C	 0.5678208389	-0.6957061761	-0.9835292274	 0.448841
O	 1.4028151829	-0.2567515981	-2.0217064836	-0.325352
C	 1.4921728082	-1.6262341585	-2.5205703949	 0.424873
C	 1.4327408954	-1.8178222015	-3.997423049	-0.488392
C	 2.1784770148	-2.4473860701	-1.4835199898	-0.373825
C	 0.6766182536	-2.1406619699	-1.3451969825	 0.084473
C	-0.3939084807	-3.1788586012	-1.1909082318	-0.490797
H	 0.5926701613	 1.8200376021	-0.9689855297	 0.126635
H	-0.9875007774	 1.8348140717	-0.1436196877	 0.124078
H	 0.4909643733	 1.7333135945	 0.8062616334	 0.126568
H	 2.3207308761	-1.3934427935	-4.4786414518	 0.138523
H	 1.3956098564	-2.8837876345	-4.2395449268	 0.129144
H	 0.5485371717	-1.3310161161	-4.4195688733	 0.135905
H	 2.387066891	-3.4790310631	-1.7542006501	 0.118569
H	 2.9047240305	-1.988108602	-0.8197180681	 0.123743
H	-0.496586032	-3.4784378971	-0.1427681405	 0.139648
H	-1.364091302	-2.7978732065	-1.5240371584	 0.132227
H	-0.1581920702	-4.0755393058	-1.772568691	 0.117059
91.0071	105.4353	148.9625	164.162	170.5496	202.7603	230.3807	289.9979	348.2921	406.3428	473.4527	538.5094	593.2245	676.3036	718.0453	752.9914	835.9065	870.7227	951.2189	964.9744	981.6954	1024.8764	1042.3552	1073.9626	1101.3015	1119.431	1133.2603	1162.8329	1205.0069	1216.2895	1352.6591	1396.7827	1416.8628	1434.165	1439.4935	1474.046	1480.7929	1492.1751	1493.2926	1497.43	1498.613	1513.4888	1850.6306	3016.5193	3035.1928	3036.9148	3080.4863	3087.6643	3100.4514	3102.029	3107.8825	3115.2894	3119.6898	3206.6083
CN=C1OC2(C)CC12C	CN=C1O[C@@]2(C)C[C@@]12C	
InChI=1S/C7H11NO/c1-6-4-7(6,2)9-5(6)8-3/h4H2,1-3H3	InChI=1S/C7H11NO/c1-6-4-7(6,2)9-5(6)8-3/h4H2,1-3H3/t6-,7-/m0/s1
