19
gdb 39061	2.57599	1.90393	1.30376	1.5655	80.2	-0.2228	0.0217	0.2444	1006.5246	0.161344	-385.867239	-385.860013	-385.859068	-385.89879	29.317	
C	-0.0572453944	 1.491923384	 0.2403687879	-0.376456
C	 1.2351342618	 0.7193181149	-0.0401930766	-0.116907
C	 2.2897588292	 0.4476899069	 1.0259595964	-0.285348
C	 1.9906939408	-0.7295146022	 1.9236131661	-0.049641
C	 0.8529507904	-1.4260265136	 1.942824203	-0.078827
C	-0.3254065001	-1.0711859256	 1.0970362279	-0.173427
C	-0.7192792778	-1.900025997	-0.1616002747	-0.099325
O	-0.6951526045	-0.708722915	-0.9881455949	-0.313268
C	-0.0826043154	 0.0193651731	 0.0725084118	 0.462258
H	-0.2305167661	 1.8963398661	 1.2346490298	 0.112019
H	-0.4373587514	 2.1036477121	-0.5710056744	 0.122478
H	 1.6117269696	 0.848709048	-1.0499457345	 0.097281
H	 3.2514980289	 0.2577911538	 0.5317491582	 0.115144
H	 2.4659389851	 1.3397983305	 1.6457982365	 0.111913
H	 2.7930849684	-1.012328403	 2.6017780631	 0.087537
H	 0.7442843847	-2.2624948465	 2.6293258916	 0.086596
H	-1.2081671637	-0.8814936718	 1.7191418217	 0.08983
H	 0.0403194286	-2.6261035333	-0.475759992	 0.102498
H	-1.7071699343	-2.3700783617	-0.157486587	 0.105646
94.9715	183.5428	243.2764	350.6839	379.2989	456.6538	484.8944	526.0315	573.2128	711.4335	752.0164	774.112	847.5899	853.2994	880.7771	914.9878	943.3527	986.2303	999.9286	1006.0246	1017.0837	1045.8835	1070.2096	1078.4365	1096.1678	1133.4173	1161.6048	1196.6428	1212.3992	1237.4938	1254.5607	1307.9829	1324.7634	1355.0459	1385.6812	1414.4129	1423.0846	1468.6622	1488.4964	1522.6872	1715.3103	2994.4079	3023.9274	3029.9152	3031.8508	3086.7329	3114.1683	3139.3961	3158.038	3162.8107	3208.0295
C1C2CC=CC3COC123	C1[C@H]2CC=C[C@@H]3CO[C@]123	
InChI=1S/C8H10O/c1-2-6-4-8(6)7(3-1)5-9-8/h1,3,6-7H,2,4-5H2	InChI=1S/C8H10O/c1-2-6-4-8(6)7(3-1)5-9-8/h1,3,6-7H,2,4-5H2/t6-,7-,8-/m1/s1
