21
gdb 109254	3.38735	1.11315	0.93848	1.4149	84.36	-0.224	0.0366	0.2606	1306.9129	0.183899	-387.090628	-387.08196	-387.081015	-387.124082	33.392	
O	-0.1027919928	 1.2439681652	-0.7603425205	-0.415203
C	-0.0856361499	-0.0834705038	-0.2718322382	-0.149184
C	-1.4419813047	-0.4886764436	 0.2409122977	 0.267798
C	-2.5026547428	 0.3158018556	 0.1681233958	-0.141632
C	-3.8721618984	-0.036307734	 0.6816475293	-0.275411
C	-4.0878357183	-1.5248747457	 0.8910579986	-0.018082
C	-3.7920604874	-2.4917470095	-0.2305197085	-0.288526
C	-2.8922928984	-2.4415208	 0.9801412649	-0.016905
C	-1.4930223688	-1.8623626931	 0.8675453593	-0.314255
H	 0.7726556585	 1.4475365653	-1.0999008766	 0.288551
H	 0.2207587051	-0.7947317224	-1.060508161	 0.091191
H	 0.6526493558	-0.1982502738	 0.5429555486	 0.089201
H	-2.3777421426	 1.2993790561	-0.2722248319	 0.102604
H	-4.0432856184	 0.4899743993	 1.6333137558	 0.106805
H	-4.6335183232	 0.3599052154	-0.0050416244	 0.102163
H	-4.9372586895	-1.7717245421	 1.5213828014	 0.07586
H	-4.4402758512	-3.3522229976	-0.3557065378	 0.102907
H	-3.4083803158	-2.0785803668	-1.158087407	 0.113002
H	-2.9702129747	-3.2794172903	 1.6669369689	 0.075789
H	-0.8476577919	-2.5520542188	 0.3021583813	 0.095694
H	-1.0461350206	-1.8090337256	 1.8721834643	 0.107634
68.3159	109.1904	207.8628	220.1913	231.3929	306.787	333.7351	406.1746	448.526	524.6116	561.0107	715.959	760.447	797.3613	811.4895	844.5817	860.7586	937.4425	972.1192	987.4346	1033.4194	1044.8143	1059.6182	1073.1737	1084.8922	1114.8119	1129.0226	1137.8451	1161.132	1223.969	1229.3713	1240.0934	1243.0029	1268.5346	1321.103	1360.0286	1377.6938	1396.5066	1420.9493	1461.2947	1478.5685	1481.3096	1496.235	1509.8744	1748.8439	2930.8557	2942.8647	2983.7481	2988.7662	3001.8229	3014.728	3127.1843	3137.3	3148.2117	3188.8152	3212.9543	3843.5294
OCC1=CCC2CC2C1	OCC1=CC[C@H]2C[C@H]2C1	
InChI=1S/C8H12O/c9-5-6-1-2-7-4-8(7)3-6/h1,7-9H,2-5H2	InChI=1S/C8H12O/c9-5-6-1-2-7-4-8(7)3-6/h1,7-9H,2-5H2/t7-,8+/m0/s1
