18
gdb 67967	2.29205	1.86437	1.32049	3.2071	72.6	-0.2616	0.0245	0.2861	1016.1071	0.148585	-439.097962	-439.090192	-439.089248	-439.130043	30.22	
C	-0.2203572227	 1.5559689216	 0.137482493	-0.47098
C	 0.045024612	 0.0709937762	 0.0794328014	 0.409864
C	-1.1508792265	-0.8355909276	-0.2122555052	-0.129075
O	-0.8050690021	-2.1165066883	 0.291098798	-0.249024
C	-0.0726619005	-1.9062023561	 1.4933384109	-0.09768
C	 0.7956094044	-0.6732298538	 1.2227875648	-0.240048
C	 1.8619151258	-0.8811885332	 0.1690349362	 0.439784
N	 2.9863711181	-1.4346642671	 0.1609654828	-0.553242
O	 1.1635526856	-0.2431144574	-0.8330109334	-0.293255
H	 0.6964324235	 2.1042801073	 0.3688204376	 0.135804
H	-0.5990951725	 1.918258122	-0.8238873888	 0.136612
H	-0.966178751	 1.7831482868	 0.9053949442	 0.127366
H	-2.0455635582	-0.4372241297	 0.2952559585	 0.090519
H	-1.3587431167	-0.9295605983	-1.2808410596	 0.126621
H	-0.7509108629	-1.7125829571	 2.3401994363	 0.094781
H	 0.5057971882	-2.8090754601	 1.6992452932	 0.137994
H	 1.0940000087	-0.1172085916	 2.1108038471	 0.106188
H	 3.4174439467	-1.3899862537	-0.7641352569	 0.227771
109.65	189.1765	215.7765	252.4948	291.2685	327.9002	379.9796	471.125	575.8319	601.8961	660.7106	756.1639	797.6599	848.1385	868.363	903.3669	933.9563	949.0166	989.5504	1012.6786	1025.0509	1062.2286	1095.555	1140.6632	1158.2127	1214.708	1228.1284	1252.3487	1273.5881	1291.0041	1316.5649	1362.6772	1406.4167	1415.519	1484.0152	1487.6624	1496.4456	1508.4362	1826.4906	2967.0389	2976.9965	3041.2925	3104.1933	3110.349	3113.9183	3123.5339	3128.5964	3474.8304
CC12COCC1C(=N)O2	C[C@]12COC[C@H]1[C]([NH])O2	
InChI=1S/C6H9NO2/c1-6-3-8-2-4(6)5(7)9-6/h4,7H,2-3H2,1H3	InChI=1S/C6H9NO2/c1-6-3-8-2-4(6)5(7)9-6/h4,7H,2-3H2,1H3/t4-,6-/m0/s1
