16
gdb 15784	6.03002	1.05398	0.9876	3.5168	65.18	-0.259	0.0214	0.2804	1154.0064	0.130543	-379.900719	-379.892445	-379.8915	-379.933945	29.524	
O	-1.0045471393	 0.6714950355	 0.1635027224	-0.418369
C	-0.2000989615	-0.4698940618	-0.0662762121	 0.088494
C	 0.8469255781	-0.2320475523	-1.1766412345	-0.376258
C	 0.2506156374	 0.1750264064	-2.446400809	 0.270037
N	-0.2197217691	 0.4967279138	-3.4511770285	-0.296915
C	 0.4781337885	-0.9717691135	 1.2025458968	 0.011186
C	 0.9486442763	-0.026165658	 2.2457011553	-0.249335
N	-0.2310430713	-0.8784262428	 2.4787817846	-0.321081
H	-0.43748958	 1.4468412479	 0.2402821183	 0.292399
H	-0.9017470796	-1.2382823411	-0.4118269469	 0.123266
H	 1.5584630009	 0.5377311729	-0.8515125636	 0.148828
H	 1.429153975	-1.1468753562	-1.3345690958	 0.161225
H	 1.0227575299	-1.9050279464	 1.0658134156	 0.098072
H	 1.8223962814	-0.2668865639	 2.8437712533	 0.126825
H	 0.7877314718	 1.0387079475	 2.0961851063	 0.098152
H	-1.0665176484	-0.3133334881	 2.3302602477	 0.243474
62.7062	90.1664	137.4961	238.599	275.2967	321.9453	358.7613	397.6389	426.1532	548.6876	626.7239	802.1854	860.8342	871.1797	931.3591	942.9916	975.6209	1014.3604	1033.3415	1089.9147	1126.0584	1155.4505	1187.563	1200.7309	1274.4814	1299.4445	1306.5806	1330.9239	1365.084	1408.2789	1428.0294	1462.9021	1509.5261	2366.9843	3033.4465	3050.8488	3081.1827	3109.8675	3118.437	3193.4908	3479.5434	3806.9333
OC(CC#N)C1CN1	O[C@@H](CC#N)[C@H]1CN1	
InChI=1S/C5H8N2O/c6-2-1-5(8)4-3-7-4/h4-5,7-8H,1,3H2	InChI=1S/C5H8N2O/c6-2-1-5(8)4-3-7-4/h4-5,7-8H,1,3H2/t4-,5+/m1/s1
