16
gdb 126827	2.90842	1.53375	1.09012	1.852	74.52	-0.2471	-0.0806	0.1665	1089.4958	0.125859	-434.099306	-434.091449	-434.090505	-434.132248	28.808	
C	 0.0285665726	 1.5416051552	 0.0654313254	-0.386799
C	-0.0317532052	 0.0177173986	-0.0422874993	-0.134727
N	 0.6886462161	-0.4816397587	-1.21902148	-0.04881
N	-0.0469758311	-0.7059204716	-2.3171509244	-0.19755
C	 0.5832567113	-1.1365502082	-3.3716388145	 0.076357
N	 1.9259397968	-1.3875395732	-3.46821746	-0.232499
C	 2.6273638108	-1.162242356	-2.4024919127	-0.055547
C	 2.0746317142	-0.6562907989	-1.1446348553	 0.399478
O	 2.7109192042	-0.4071621646	-0.1343341722	-0.397536
H	 1.0630583815	 1.875864962	 0.1715663364	 0.151583
H	-0.4112949909	 2.0110992117	-0.8191296228	 0.131776
H	-0.5318136879	 1.8711834524	 0.9451075162	 0.127289
H	 0.4332251524	-0.4445536781	 0.8308417372	 0.14715
H	-1.0588107827	-0.335721502	-0.143306932	 0.131932
H	-0.021441687	-1.3167619835	-4.2518047549	 0.140752
H	 3.6997351349	-1.3462218051	-2.4186698172	 0.147149
63.471	108.1035	174.7553	228.2867	328.5665	355.711	442.1323	492.1536	558.4834	581.4844	636.2416	732.1933	773.8891	794.924	876.6287	911.8191	974.8532	982.7354	1045.6908	1106.0186	1135.6761	1172.8137	1239.43	1300.8902	1357.8702	1367.187	1386.5201	1405.4479	1419.3659	1464.5434	1491.7884	1505.7294	1523.6093	1628.1787	1765.3053	3048.6016	3083.8466	3120.4349	3130.3911	3150.9725	3161.4616	3217.4835
CCN1N=CN=CC1=O	CCn1ncncc1=O	
InChI=1S/C5H7N3O/c1-2-8-5(9)3-6-4-7-8/h3-4H,2H2,1H3	InChI=1S/C5H7N3O/c1-2-8-5(9)3-6-4-7-8/h3-4H,2H2,1H3
