21
gdb 116262	2.10953	1.35517	0.99446	0.7622	83.27	-0.255	0.0485	0.3036	1275.6775	0.182541	-387.066935	-387.057333	-387.056388	-387.10173	35.698	
O	-0.2410548356	 1.5675288544	 0.1175195401	-0.426201
C	-0.0099378757	 0.1649639427	 0.1774368576	-0.112048
C	-1.3524796959	-0.5270701497	 0.0089479035	 0.046559
C	-2.0400192572	-0.278968755	-1.352915919	-0.200534
C	-2.9424057619	-1.520132284	-1.6090269115	-0.207516
C	-2.7226515886	-2.4592797184	-0.4005612864	-0.21315
C	-1.3234365012	-2.0752367757	 0.1451170323	-0.202941
C	-0.2531086359	-2.7021234921	-0.62798659	 0.360826
C	 0.6145170026	-3.2300579312	-1.273065002	-0.506648
H	 0.6109939832	 2.0120440236	 0.1432894263	 0.286112
H	 0.6752289146	-0.1632126441	-0.6178553172	 0.098063
H	 0.4420014323	-0.1208909367	 1.1416348325	 0.081536
H	-2.0109332563	-0.1618010089	 0.8074188369	 0.081978
H	-2.5984175348	 0.6588817011	-1.3471594678	 0.109148
H	-1.2819578713	-0.1887320424	-2.1376763254	 0.103948
H	-3.9970594094	-1.2535625299	-1.7179470897	 0.097312
H	-2.6459328212	-2.0206421785	-2.5347996464	 0.109166
H	-3.4605032935	-2.2552144331	 0.3831902655	 0.09812
H	-2.7955070671	-3.518479796	-0.6565883222	 0.104988
H	-1.2131002707	-2.3718418749	 1.1946839302	 0.096589
H	 1.3842512937	-3.6984141611	-1.8348290471	 0.194692
64.641	104.2396	107.5618	134.1502	210.4822	244.6803	269.4636	378.7475	395.1092	459.2136	539.954	624.0082	626.2927	656.5752	694.8544	800.9762	822.2386	846.8754	893.8934	898.7366	983.641	1010.4305	1026.3423	1037.6436	1076.0539	1092.451	1145.7466	1174.2703	1193.8814	1225.3581	1248.0303	1255.6346	1281.9284	1308.4661	1310.781	1333.5341	1337.0035	1371.4004	1382.934	1463.2651	1486.7161	1491.5625	1511.0709	1523.9489	2226.4084	2964.0394	3009.0766	3027.9199	3036.2106	3049.3602	3052.5946	3063.6828	3090.3256	3108.5495	3117.2535	3503.5361	3832.7056
OCC1CCCC1C#C	OC[C@H]1CCC[C@H]1C#C	
InChI=1S/C8H12O/c1-2-7-4-3-5-8(7)6-9/h1,7-9H,3-6H2	InChI=1S/C8H12O/c1-2-7-4-3-5-8(7)6-9/h1,7-9H,3-6H2/t7-,8-/m1/s1
