18
gdb 53744	5.03723	0.62766	0.59265	3.9686	85.2	-0.247	-0.0169	0.2301	1875.0036	0.147262	-401.944943	-401.935237	-401.934293	-401.982253	33.796	
N	-0.1180023962	 1.5410774607	 0.2596954912	-0.520125
C	 0.0953653018	 0.1961637449	 0.1403574466	 0.253742
O	 1.2046830492	-0.3024743058	 0.121886229	-0.335995
C	-1.127080868	-0.5833824839	 0.0216584575	 0.089305
C	-2.1065330894	-1.2822100472	-0.0767926261	 0.016708
C	-3.258739676	-2.1431008288	-0.2265292277	-0.156925
C	-3.872740494	-2.3354570463	-1.654785181	-0.216116
C	-4.1041190463	-3.8298713339	-1.3096335758	-0.216968
C	-3.0658724497	-3.6946582012	-0.1650909528	-0.214228
H	 0.6796796589	 2.1356546329	 0.4144481305	 0.263707
H	-1.044126993	 1.9168841051	 0.3627216789	 0.263589
H	-4.0453570119	-1.8386611925	 0.472791357	 0.103927
H	-4.7377692336	-1.7188111144	-1.9068300776	 0.105882
H	-3.1076659978	-2.2074223313	-2.4239944424	 0.120135
H	-5.1128555488	-4.0062451482	-0.9253023134	 0.106276
H	-3.8977931877	-4.5628268366	-2.0915896357	 0.106136
H	-2.0600910216	-3.9711352177	-0.4892220829	 0.123502
H	-3.2782046958	-4.1804020259	 0.7892040046	 0.107448
10.6482	69.5362	80.5028	127.8931	147.0725	207.5506	254.2668	382.807	488.4189	524.5167	570.1357	579.0327	619.544	716.2049	773.3337	786.3477	818.1084	901.8679	936.4211	941.4116	982.6386	1021.052	1089.1364	1113.1288	1137.3032	1205.602	1235.4937	1243.1708	1255.9839	1277.1042	1279.1407	1340.5545	1365.3854	1478.5675	1487.6524	1508.6293	1606.4326	1771.4257	2337.8395	3043.3618	3062.1376	3069.2688	3073.9514	3111.7131	3126.6545	3135.8345	3601.7323	3744.1481
NC(=O)C#CC1CCC1	NC(=O)C#CC1CCC1	
InChI=1S/C7H9NO/c8-7(9)5-4-6-2-1-3-6/h6H,1-3H2,(H2,8,9)	InChI=1S/C7H9NO/c8-7(9)5-4-6-2-1-3-6/h6H,1-3H2,(H2,8,9)
