19
gdb 32222	2.52046	1.49772	1.02103	2.7829	84.05	-0.2428	-0.0322	0.2107	1201.085	0.160769	-382.141155	-382.132466	-382.131522	-382.175046	31.869	
C	-0.1402239307	 1.5987145751	-0.0566340446	-0.375767
C	 0.0051097796	 0.0666812187	-0.0012649357	-0.269443
C	 0.7501434043	-0.4649741057	-1.2007550916	 0.249687
N	 0.0231510506	-0.6236566347	-2.315176569	-0.296248
C	 0.6558910708	-1.0641729415	-3.3999082735	 0.059043
N	 1.9479661254	-1.3721117983	-3.5029877033	-0.257464
C	 2.6595204918	-1.2085610186	-2.3863817817	-0.038233
C	 2.1255619426	-0.7520228832	-1.1830551543	 0.210041
C	 2.9930446661	-0.5909661754	 0.0380615089	-0.512271
H	 0.8357998681	 2.0949770784	-0.0438789944	 0.118009
H	-0.6577080903	 1.8953233727	-0.9729961057	 0.139601
H	-0.7158670488	 1.9632554265	 0.7990849696	 0.118277
H	 0.5066076391	-0.226652881	 0.9255808903	 0.100952
H	-0.9903178525	-0.3870967888	-0.0001738691	 0.123901
H	 0.0525142605	-1.1880560372	-4.2964558938	 0.114409
H	 3.7191087348	-1.454766237	-2.4486797762	 0.107284
H	 2.9647691492	 0.4320944741	 0.4275160365	 0.139017
H	 2.6770229688	-1.2535452907	 0.8516376712	 0.140178
H	 4.0344570206	-0.8289238134	-0.1960187237	 0.129028
46.611	116.8812	149.8575	205.4677	221.1547	305.2693	326.2454	419.5018	440.607	522.2664	593.5625	621.9959	738.7493	796.4597	818.7067	867.1404	945.0319	980.7378	1008.6044	1019.1476	1055.1456	1062.3096	1085.2645	1162.1994	1202.2419	1239.7797	1281.8162	1291.5734	1330.0141	1353.5642	1403.7463	1418.1775	1436.2928	1463.5647	1483.3418	1486.7676	1496.5447	1502.5077	1509.898	1590.4048	1619.4842	3032.048	3038.319	3056.0013	3087.7536	3094.7359	3110.1373	3111.9597	3125.006	3133.9635	3160.6734
CCC1=NC=NC=C1C	CCc1ncncc1C	
InChI=1S/C7H10N2/c1-3-7-6(2)4-8-5-9-7/h4-5H,3H2,1-2H3	InChI=1S/C7H10N2/c1-3-7-6(2)4-8-5-9-7/h4-5H,3H2,1-2H3
