19
gdb 117049	4.20103	0.79842	0.68041	1.6131	76.13	-0.2242	-0.0351	0.1891	1671.1144	0.157829	-456.386193	-456.375542	-456.374598	-456.423372	36.145	
C	 0.1242411165	 1.499506037	-0.0101365717	-0.406926
C	-0.0552353885	-0.0141967721	-0.0499759375	-0.094192
N	 0.6713327976	-0.5894335364	-1.1640874566	-0.305022
C	 0.7968667925	-1.9290295325	-1.3351947671	 0.236979
N	 0.3504074749	-2.7884858143	-0.4962908518	-0.543022
C	 1.5278527765	-2.2523185554	-2.6295971375	 0.430704
O	 1.885688172	-1.4164952284	-3.4257386202	-0.381236
O	 1.7182361921	-3.5670946619	-2.7817221929	-0.231261
C	 2.3948241006	-3.9576329318	-3.9849702237	-0.244643
H	 1.1793366963	 1.7687711072	 0.101402904	 0.126904
H	-0.253029921	 1.9682912181	-0.9259741989	 0.120857
H	-0.4272952088	 1.9247274886	 0.8323991622	 0.126505
H	 0.3095799534	-0.4766187185	 0.8740273658	 0.129426
H	-1.1213552599	-0.2750848438	-0.117011661	 0.112192
H	 0.9691758028	-0.0101963209	-1.9327515208	 0.2582
H	 0.579948175	-3.7269081697	-0.8142283134	 0.22846
H	 3.3916750303	-3.5118869626	-4.0232886163	 0.147351
H	 2.4606656175	-5.0443983723	-3.9475716677	 0.141455
H	 1.8290775	-3.6351896103	-4.8623287649	 0.147268
35.569	71.4423	79.8653	114.3104	122.2247	162.913	242.9598	261.6498	330.906	357.3695	399.2832	424.595	513.2709	534.4464	760.4039	792.8689	816.1959	865.7204	884.4051	914.0965	1019.5671	1073.26	1154.0935	1174.0782	1179.3466	1194.2783	1212.5547	1268.1905	1289.8123	1327.6352	1393.1178	1417.1855	1474.6056	1481.6722	1494.4873	1495.5069	1500.4301	1526.6507	1559.5131	1708.4007	1800.8251	3004.0664	3036.0623	3055.7544	3058.1665	3103.9541	3121.1328	3132.3393	3167.2683	3528.387	3642.1439
CCNC(=N)C(=O)OC	CCNC(=N)C(=O)OC	
InChI=1S/C5H10N2O2/c1-3-7-4(6)5(8)9-2/h3H2,1-2H3,(H2,6,7)	InChI=1S/C5H10N2O2/c1-3-7-4(6)5(8)9-2/h3H2,1-2H3,(H2,6,7)
