21
gdb 92296	2.1292	1.8486	1.20832	2.786	81.26	-0.231	-0.0166	0.2144	1104.5454	0.18367	-387.120689	-387.112369	-387.111425	-387.153705	32.517	
C	-0.9377598355	 1.232154254	 0.1552465704	-0.405784
C	-0.0573303547	 0.005043283	-0.0264787896	 0.041068
C	 1.2088863358	 0.0993257597	-0.9261396141	-0.256266
C	 2.0265193568	-0.6828871104	 0.1456336242	-0.003973
C	 3.2673884758	 0.0134144299	 0.736141049	-0.234864
C	 2.7093477437	 1.1157977854	 1.6532677611	-0.324518
C	 1.3278089822	 0.6169353411	 2.1022427284	 0.412527
O	 0.7131945312	 1.0251352613	 3.0557662718	-0.329801
C	 0.857425109	-0.4834007282	 1.1520297032	-0.153328
H	-0.3532538405	 2.1120824124	 0.4439469318	 0.116606
H	-1.4613187833	 1.4715440354	-0.7769783789	 0.11135
H	-1.6891280304	 1.0702869228	 0.9346798122	 0.130048
H	-0.6750695074	-0.8405213272	-0.3457947851	 0.080247
H	 1.139660042	-0.3555474793	-1.9169779838	 0.100206
H	 1.5572678902	 1.1302405108	-1.0522537843	 0.095606
H	 2.2238924602	-1.7167133735	-0.1430802458	 0.070187
H	 3.8431788767	-0.7052004968	 1.3307897054	 0.104858
H	 3.9361816142	 0.398606305	-0.0396928397	 0.102553
H	 3.3328129565	 1.3544520472	 2.5177049982	 0.126093
H	 2.5543601903	 2.0571969854	 1.1094724971	 0.129535
H	 0.4766121675	-1.327770628	 1.7308693285	 0.087651
65.5572	131.6791	176.9841	198.6493	316.5098	344.4849	396.6887	449.4361	515.8895	580.0837	660.0829	685.5971	720.7169	795.9845	827.1832	885.7102	901.2877	909.4826	936.794	963.4004	998.4798	1018.7165	1042.189	1103.44	1127.627	1143.2879	1159.9953	1172.679	1192.0588	1228.2649	1248.3907	1264.1457	1265.7984	1289.9396	1319.5286	1323.9469	1347.5241	1373.8092	1416.6761	1456.052	1488.9507	1492.0181	1493.625	1497.1399	1831.2829	3029.8859	3031.1862	3037.6663	3043.8255	3048.3781	3081.2593	3083.6984	3090.6604	3095.8045	3103.5033	3107.5046	3110.7529
CC1CC2CCC(=O)C12	C[C@H]1C[C@H]2CCC(=O)[C@@H]12	
InChI=1S/C8H12O/c1-5-4-6-2-3-7(9)8(5)6/h5-6,8H,2-4H2,1H3	InChI=1S/C8H12O/c1-5-4-6-2-3-7(9)8(5)6/h5-6,8H,2-4H2,1H3/t5-,6+,8-/m0/s1
