16
gdb 60832	2.13212	1.19834	0.8995	3.5265	74.32	-0.25	-0.0522	0.1978	1295.9566	0.120169	-437.867229	-437.857089	-437.856145	-437.903923	34.1	
C	 0.4365139093	 1.5777373917	 0.1103686902	-0.356348
N	 0.0298199039	 0.1775856022	 0.1183139822	-0.047458
C	-0.2438141053	-0.4447757015	 1.3105679763	 0.164655
O	-0.2161272418	 0.0876151107	 2.3962997591	-0.329743
C	-0.0528482572	-0.5788449426	-1.1281232023	-0.263532
C	-1.3496286115	-0.2224893243	-1.8915854265	 0.172919
O	-2.1741240968	-1.0387807435	-2.1944039336	-0.225085
C	 1.0929021113	-0.3745086219	-2.0109455473	 0.302914
C	 1.9869917888	-0.1864446419	-2.7916745814	-0.420321
H	 1.4074056787	 1.6905319764	-0.3798277889	 0.144859
H	-0.2941793162	 2.2093237175	-0.405475209	 0.131516
H	 0.5048194284	 1.8943007669	 1.1508312337	 0.175911
H	-0.4970993807	-1.5127338571	 1.1678628666	 0.087829
H	-0.1421645461	-1.6408942478	-0.8745377837	 0.144638
H	-1.4660636322	 0.8561782003	-2.1254778716	 0.101053
H	 2.7925869473	-0.038149185	-3.4688295837	 0.216194
37.4533	48.9313	84.387	134.2617	162.3112	176.8105	297.5445	316.2577	341.9307	362.9353	436.3743	484.4337	500.2298	649.6825	678.3555	754.7161	867.0478	942.2275	1024.2293	1029.5735	1054.726	1083.7444	1159.132	1244.2507	1255.4742	1286.2338	1408.845	1418.3666	1439.3947	1445.2316	1498.5836	1515.5249	1802.5745	1840.5824	2233.5613	2918.2084	2949.7419	3041.6137	3057.7528	3103.4443	3163.4705	3497.7915
CN(C=O)C(C=O)C#C	CN(C=O)[C@@H](C=O)C#C	
InChI=1S/C6H7NO2/c1-3-6(4-8)7(2)5-9/h1,4-6H,2H3	InChI=1S/C6H7NO2/c1-3-6(4-8)7(2)5-9/h1,4-6H,2H3/t6-/m1/s1
