21
gdb 110065	1.86017	1.21546	0.91576	3.2421	81.25	-0.246	-0.0215	0.2245	1378.4394	0.179572	-424.223151	-424.212657	-424.211713	-424.258647	38.044	
C	 2.8330084953	-0.924705653	-1.6561774687	-0.466339
C	 1.5766511463	-1.1951445356	-0.8442255965	 0.291088
C	 0.8986947873	-2.5015613799	-1.2198966175	-0.442926
C	 1.4604021193	-0.7460429038	 0.5842888806	-0.095296
C	 2.5619492214	-0.0528828568	 1.3586393682	-0.096272
O	 3.4016949144	-0.9895662364	 2.0175025251	-0.413599
C	 0.6218410564	-0.0415620992	-0.4918027703	-0.169792
C	 0.8752019696	 1.3566471197	-0.9038814588	 0.156251
O	-0.0016273701	 2.1259805163	-1.2201114167	-0.273307
H	 3.3558702956	-0.0112893976	-1.3669698368	 0.124434
H	 3.5370468666	-1.7587463789	-1.5477884033	 0.116813
H	 2.5922684604	-0.8413466236	-2.7214417522	 0.132139
H	 1.5746978691	-3.3490520426	-1.0558536188	 0.118856
H	-0.0025698075	-2.6721068842	-0.6241341026	 0.122566
H	 0.6101117795	-2.5053514759	-2.2768762929	 0.124957
H	 0.8732341024	-1.3990789323	 1.2260195811	 0.103259
H	 3.14657039	 0.6257681475	 0.7228807987	 0.089988
H	 2.1233178634	 0.5582352914	 2.1543655692	 0.123597
H	 3.8180680234	-1.53466257	 1.342061597	 0.283535
H	-0.4376131944	-0.2790365874	-0.5026600873	 0.104021
H	 1.9378038316	 1.6824464224	-0.9164721675	 0.066028
71.4845	88.0555	139.3635	166.4665	199.6574	223.0285	249.6048	257.9026	308.794	351.2937	374.4016	418.6931	457.6652	497.6942	538.3067	682.6711	796.1846	897.7388	953.0359	969.988	974.0975	1011.0857	1031.4965	1048.6642	1063.7755	1092.9604	1144.7188	1156.8447	1159.777	1214.9617	1258.7097	1319.1148	1332.7331	1372.8808	1411.22	1412.7297	1425.4558	1435.6671	1460.8042	1481.4858	1491.296	1499.729	1510.9044	1518.5727	1804.1367	2886.4455	3010.2284	3024.7553	3030.8283	3074.2035	3085.0372	3088.3657	3108.5019	3123.916	3136.012	3163.36	3815.3448
CC1(C)C(CO)C1C=O	CC1(C)[C@@H](CO)[C@H]1C=O	
InChI=1S/C7H12O2/c1-7(2)5(3-8)6(7)4-9/h3,5-6,9H,4H2,1-2H3	InChI=1S/C7H12O2/c1-7(2)5(3-8)6(7)4-9/h3,5-6,9H,4H2,1-2H3/t5-,6+/m1/s1
