15
gdb 45125	2.59055	1.74883	1.20372	5.1488	64.89	-0.2455	-0.0867	0.1588	994.915	0.112173	-457.778333	-457.770821	-457.769876	-457.811302	27.893	
O	-0.1584544745	 0.0936540416	-0.5646192314	-0.266927
C	-0.078453669	 1.2046089776	-0.1137727011	 0.318666
C	-1.2767542843	 2.1428096742	-0.0268044611	-0.369099
C	-1.1907086748	 3.1114502713	 1.1272179473	 0.047205
O	-0.5954441425	 2.5980629305	 2.3279406584	-0.253537
C	 0.1105401064	 3.6064838471	 1.5903538506	 0.047097
C	 1.3857259678	 3.1551927625	 0.9210352801	-0.369077
C	 1.3085424423	 1.7317639031	 0.3810417959	 0.318691
O	 2.2710645296	 1.0166024034	 0.3033843212	-0.266943
H	-1.3368806608	 2.7018170303	-0.9725060896	 0.140073
H	-2.1798842167	 1.5278832855	 0.029232589	 0.150036
H	-2.0714561207	 3.7308018755	 1.2942080222	 0.106886
H	 0.1513364579	 4.5765305427	 2.0848849122	 0.10687
H	 1.6159021765	 3.8242053101	 0.0785405029	 0.140031
H	 2.2395437925	 3.2082702346	 1.6030453936	 0.150026
35.4442	97.8794	280.863	316.7078	363.0842	383.7862	413.9504	544.3339	581.6698	584.7221	637.3666	757.5904	825.6037	855.5878	859.1251	973.1188	994.279	1016.639	1050.6262	1093.4674	1129.6716	1176.0825	1216.6518	1219.4032	1293.1871	1332.2277	1332.4489	1381.9987	1445.2933	1446.7168	1489.1512	1818.0462	1840.5708	3015.5025	3017.1004	3090.366	3091.9233	3112.4176	3123.8529
O=C1CC2OC2CC1=O	O=C1C[C@H]2O[C@H]2CC1=O	
InChI=1S/C6H6O3/c7-3-1-5-6(9-5)2-4(3)8/h5-6H,1-2H2	InChI=1S/C6H6O3/c7-3-1-5-6(9-5)2-4(3)8/h5-6H,1-2H2/t5-,6+
