16
gdb 50138	3.89033	1.16327	0.96349	3.2802	74.34	-0.2596	-0.0342	0.2254	1187.3077	0.125099	-434.05478	-434.046635	-434.045691	-434.087933	29.522	
N	-0.1220803011	 1.1365876871	-0.5766014323	-0.555808
C	-0.0567181607	-0.0806740555	-0.2688633858	 0.34413
N	 0.9808521487	-1.0263812847	-0.0574556304	-0.126873
C	 0.0594381103	-2.1653208833	 0.1662936407	-0.253535
C	-1.085183917	-1.1478620551	-0.0183774984	 0.252763
C	-2.3947155277	-0.9858700743	 0.6493098324	-0.2906
N	-2.3083533437	-1.3621130213	-0.7706722707	-0.353985
C	 2.3401546182	-0.9008980116	-0.1027056436	 0.138765
O	 2.912582665	 0.1408275674	-0.3355612928	-0.303998
H	 0.8085395157	 1.5400107071	-0.6894454467	 0.254537
H	 0.1106820598	-2.9324612642	-0.6104584427	 0.140222
H	 0.1475048667	-2.6153387327	 1.1585631367	 0.131723
H	-2.7627630464	-1.76888571	 1.3063719936	 0.129882
H	-2.6916627956	 0.0260450956	 0.9108695093	 0.14311
H	-2.478690152	-0.5516472399	-1.3640308436	 0.256086
H	 2.8612453498	-1.8567903247	 0.0980262942	 0.093582
64.5125	159.0486	163.6217	225.5459	233.8565	248.7534	355.3422	429.5808	522.4851	632.5277	697.9277	781.2691	833.0303	861.024	905.3046	932.1784	953.0625	983.7045	1030.4776	1052.1592	1082.5251	1127.8212	1143.5053	1149.116	1223.8631	1254.5085	1276.7823	1288.2349	1395.5032	1421.8617	1451.6988	1508.4962	1514.4211	1758.5038	1823.3206	2951.1164	3058.5502	3111.573	3116.8877	3204.026	3488.0742	3496.1411
N=C1N(CC11CN1)C=O	[NH][C]1N(C[C@]21CN2)C=O	
InChI=1S/C5H7N3O/c6-4-5(1-7-5)2-8(4)3-9/h3,6-7H,1-2H2	InChI=1S/C5H7N3O/c6-4-5(1-7-5)2-8(4)3-9/h3,6-7H,1-2H2/t5-/m0/s1
