20
gdb 8400	3.59141	1.72959	1.47955	1.7024	74.84	-0.2311	0.0847	0.3158	952.1084	0.176203	-348.94791	-348.939823	-348.938878	-348.980186	31.311	
C	-0.08771231	 1.5288193822	 0.0183312398	-0.391763
C	-0.048804446	-0.0067515312	 0.0216815646	-0.114874
C	 0.6882692489	-0.5500837568	 1.254974778	-0.391743
C	-1.4418617973	-0.5769718595	-0.0627300227	 0.462087
C	-2.5929709281	-0.2667391085	-1.0636564028	-0.271944
C	-3.146748488	-1.1178311515	 0.0982135483	 0.051963
C	-1.9252171361	-2.0553755399	-0.0010650411	-0.271946
O	-2.3946065539	-0.2711252241	 1.0507924791	-0.35214
H	 0.9241880593	 1.9403404889	 0.0827521139	 0.108871
H	-0.5521127653	 1.9166514406	-0.8933799128	 0.113493
H	-0.6638444757	 1.8975610353	 0.8722872298	 0.135815
H	 0.4786498676	-0.3469137064	-0.8810904528	 0.078799
H	 1.6979687523	-0.1326393012	 1.3157011957	 0.108866
H	 0.1501227672	-0.282786293	 2.1693498945	 0.13583
H	 0.775450932	-1.6403372086	 1.2225755419	 0.11349
H	-2.9314562105	 0.7697625452	-1.0784687461	 0.105655
H	-2.5441375892	-0.7167010567	-2.0590313182	 0.090744
H	-4.1803658187	-1.3536579774	 0.3508076323	 0.092398
H	-1.81477007	-2.6703492466	-0.8984112077	 0.090745
H	-1.6774761585	-2.5891776009	 0.9169822064	 0.105654
65.5337	189.4717	189.682	222.9405	263.1498	326.3135	403.1775	453.8698	525.5528	604.8387	617.4713	727.8263	806.6603	866.6703	906.71	907.713	928.6483	944.2855	969.9455	988.1269	989.4335	1063.2991	1078.9858	1100.1543	1137.5722	1145.9728	1169.975	1186.2991	1217.4962	1242.1928	1248.1916	1283.9298	1334.6979	1381.9961	1396.6365	1419.1175	1465.821	1489.1455	1491.7091	1502.1441	1510.8566	1517.9199	3006.6778	3036.6089	3040.4395	3055.3764	3064.4612	3105.4797	3108.5488	3113.752	3118.2201	3120.302	3143.8899	3148.2748
CC(C)C12CC(C1)O2	CC(C)[C@@]12C[C@@H](C1)O2	
InChI=1S/C7H12O/c1-5(2)7-3-6(4-7)8-7/h5-6H,3-4H2,1-2H3	InChI=1S/C7H12O/c1-5(2)7-3-6(4-7)8-7/h5-6H,3-4H2,1-2H3/t6-,7+
