23
gdb 101747	3.65371	0.75405	0.73406	0.9556	83.19	-0.2438	0.0796	0.3234	1693.826	0.203982	-425.40047	-425.389964	-425.38902	-425.437506	37.064	
C	 0.8047507514	 1.3506403251	 0.742609111	-0.236354
O	 0.6363963399	-0.0276208944	 0.5142783962	-0.249239
C	 0.1942206658	-0.3658703859	-0.7973861559	 0.142314
C	 1.3383657424	-0.2838698635	-1.8116033723	-0.405204
C	-0.4132528352	-1.7680263098	-0.6774765374	-0.223515
C	-1.1372900572	-2.2391096118	-1.9256087804	 0.155444
C	-2.0916612438	-3.4487342457	-1.7976305479	-0.300212
C	-3.1665761216	-2.4727843939	-2.315592659	-0.057137
O	-2.2405207978	-1.367421108	-2.2900162748	-0.29474
H	 1.6243113828	 1.786076325	 0.1516072336	 0.103149
H	-0.1145997369	 1.9151948302	 0.5198976371	 0.103508
H	 1.0443832471	 1.4742722731	 1.8021600352	 0.123525
H	-0.6076509237	 0.326791069	-1.0983193575	 0.084908
H	 2.1367572108	-0.9836555419	-1.5432308246	 0.117676
H	 0.9880185362	-0.5223145406	-2.8202336322	 0.122926
H	 1.7647412796	 0.7225888778	-1.8478756247	 0.115857
H	 0.3778986934	-2.4875862562	-0.4271600099	 0.09906
H	-1.1169802309	-1.753590928	 0.1619427521	 0.101266
H	-0.4389883304	-2.3344347012	-2.7689771289	 0.072793
H	-1.8710137213	-4.3083057845	-2.4319338308	 0.108844
H	-2.2417788778	-3.7876085931	-0.7704477853	 0.111348
H	-3.5277873058	-2.6783391801	-3.3317533786	 0.099257
H	-4.0305288571	-2.3000753218	-1.6633695349	 0.104529
39.6526	59.2808	81.3285	101.2452	142.7702	196.0629	240.0274	282.5896	317.1818	355.2512	448.5323	483.4386	518.6891	741.7967	804.828	835.4466	868.7083	890.7145	924.6455	959.5931	980.7047	1020.0519	1033.8029	1096.6817	1106.4467	1131.3413	1155.1474	1162.6071	1175.7846	1182.9683	1215.3271	1217.979	1256.9857	1259.2133	1290.5127	1310.9649	1361.6444	1382.7857	1384.2394	1403.933	1412.8183	1473.4876	1478.1844	1483.9672	1491.1595	1494.307	1505.7045	1513.2946	1533.798	2973.1302	2985.3363	2998.5757	3012.6463	3020.1136	3025.5545	3040.2986	3054.5867	3076.8286	3078.3208	3105.5477	3112.2095	3113.5526	3133.2095
COC(C)CC1CCO1	CO[C@@H](C)C[C@H]1CCO1	
InChI=1S/C7H14O2/c1-6(8-2)5-7-3-4-9-7/h6-7H,3-5H2,1-2H3	InChI=1S/C7H14O2/c1-6(8-2)5-7-3-4-9-7/h6-7H,3-5H2,1-2H3/t6-,7+/m0/s1
