14
gdb 129783	3.48772	1.68223	1.13763	1.0422	70.82	-0.1886	0.0086	0.1973	982.284	0.105571	-429.068326	-429.061217	-429.060273	-429.099606	27.358	
N	 0.1043994705	 1.4028823203	 0.1361719971	-0.614218
C	-0.0492781062	 0.0197005947	 0.0391549161	 0.218613
C	-1.1546471809	-0.8193769181	 0.0345627728	 0.193163
N	-2.5425203022	-0.8624943777	 0.0334540701	-0.367923
C	-2.8027212413	-2.1424672915	-0.0044731035	 0.000209
N	-1.6826351512	-2.9672220095	-0.0356571925	-0.398892
C	-0.6001949513	-2.1146916629	-0.0052008299	 0.419877
N	 0.7207596106	-2.1723890653	-0.0334714643	-0.386494
N	 1.0235756395	-0.8239766331	 0.0037120164	-0.247943
H	 0.6663619332	 1.8006101897	-0.6082423017	 0.251436
H	-0.7965599486	 1.8633631492	 0.1525668573	 0.266742
H	-3.7956046855	-2.5703456423	-0.0119322083	 0.128006
H	-1.6809207538	-3.9718721508	-0.0534400617	 0.269013
H	 1.9894373972	-0.5560708328	 0.0828584322	 0.268412
156.4894	203.7093	256.5605	268.6798	344.6575	408.8572	456.7605	571.5948	620.7542	636.6812	646.4037	723.5004	769.3512	784.8462	824.2316	841.8268	945.5355	1060.0889	1088.2582	1101.6185	1162.8877	1273.9704	1311.2592	1341.8433	1374.5725	1455.6683	1476.8625	1541.4757	1609.3583	1644.9067	1693.1663	3239.7926	3520.895	3619.1871	3680.5559	3683.7222
NC1=C2N=CNC2=NN1	Nc1c2nc[nH]c2n[nH]1	
InChI=1S/C4H5N5/c5-3-2-4(9-8-3)7-1-6-2/h1H,(H4,5,6,7,8,9)	InChI=1S/C4H5N5/c5-3-2-4(9-8-3)7-1-6-2/h1H,(H4,5,6,7,8,9)
