22
gdb 113865	3.75713	0.81348	0.74358	2.2023	83.25	-0.2448	0.0717	0.3165	1598.2001	0.1953	-404.304782	-404.295469	-404.294524	-404.340106	34.691	
O	-0.0667752843	 1.3486445533	-0.8790239897	-0.423006
C	 0.0553445345	 0.3059605134	 0.0744998503	-0.066527
C	-1.2702819797	-0.3916426876	 0.2771052629	-0.038047
N	-1.7408061592	-1.1601463739	-0.8941720007	-0.358799
C	-1.4569655195	-1.86756843	 0.37062029	-0.0492
C	-0.353080819	-2.8874953854	 0.3756365825	 0.067308
C	 0.2403593073	-3.3377502494	 1.7425412759	-0.23407
C	 0.3052167625	-4.7882776838	 1.1932538389	-0.209019
C	-0.7186927795	-4.3770703887	 0.1013234713	-0.234556
H	-0.4401775658	 0.9350781141	-1.6667997736	 0.288339
H	 0.8271393012	-0.4161208505	-0.2259444234	 0.089223
H	 0.3842572334	 0.7754635105	 1.007733995	 0.106496
H	-2.0128455114	 0.2198545341	 0.7879865301	 0.08663
H	-2.7418671328	-1.0416707208	-1.020557581	 0.232636
H	-2.326270603	-2.1755787113	 0.9545232185	 0.075921
H	 0.4439715091	-2.5762693601	-0.3040943192	 0.077302
H	 1.1687078607	-2.8662821707	 2.0743562246	 0.097598
H	-0.4999450976	-3.2446268636	 2.5445245722	 0.096662
H	 1.2854662841	-5.0133097367	 0.7633225569	 0.103523
H	 0.0298393379	-5.6008276525	 1.8693493887	 0.096044
H	-1.7463530462	-4.5947425839	 0.4120155422	 0.094273
H	-0.5756954926	-4.7559676866	-0.9130709825	 0.10127
40.3113	66.385	114.0305	147.4423	186.027	287.9875	345.3983	379.6851	444.7052	495.8078	567.8589	641.9328	764.2604	784.9501	815.9639	878.5353	903.4618	926.8713	935.6806	949.3864	972.9958	984.7176	997.4459	1049.7296	1068.5635	1075.11	1104.3541	1159.1979	1185.4547	1202.4829	1224.2853	1253.4712	1255.5853	1257.4582	1269.7021	1277.3283	1282.6748	1288.3473	1333.2375	1366.6921	1407.2177	1445.1147	1478.8652	1481.7677	1487.447	1500.5111	1511.7511	3008.9008	3044.1928	3047.6329	3058.6427	3070.2524	3075.2563	3087.3237	3099.2705	3103.7544	3118.2142	3119.8848	3508.7806	3786.6928
OCC1NC1C1CCC1	OC[C@H]1N[C@H]1C1CCC1	
InChI=1S/C7H13NO/c9-4-6-7(8-6)5-2-1-3-5/h5-9H,1-4H2	InChI=1S/C7H13NO/c9-4-6-7(8-6)5-2-1-3-5/h5-9H,1-4H2/t6-,7+/m1/s1
