16
gdb 8325	5.92924	1.34241	1.33612	4.2488	64.79	-0.272	0.0133	0.2853	953.8109	0.130933	-383.763672	-383.756758	-383.755814	-383.795005	26.357	
O	-0.0021067774	 0.150900342	-0.7601434341	-0.31729
C	-0.1160014196	 1.170667333	-0.161126652	 0.433277
C	-1.2351445356	 2.1073285156	 0.291266232	-0.489397
C	-0.0792468732	 2.9273801094	 0.8928584961	 0.458463
C	 0.1385356274	 4.4056834152	 0.5273767539	-0.287509
C	-0.3108153012	 4.7704287529	 1.9717835444	-0.215067
C	-0.0405009808	 3.2950912024	 2.3860883477	-0.287549
O	 0.8785772426	 1.9363568273	 0.3929630166	-0.271163
H	-1.7873604388	 2.574262073	-0.5265784862	 0.142635
H	-1.9343336625	 1.6606800355	 1.0007341525	 0.142663
H	 1.202058488	 4.6043163084	 0.3706954396	 0.126486
H	-0.4273666031	 4.8082494064	-0.3158985892	 0.106776
H	 0.2593277349	 5.543384285	 2.48846001	 0.112348
H	-1.3722060749	 5.0250915434	 2.0216868917	 0.112059
H	-0.7514332159	 2.7974559569	 3.0496759516	 0.106777
H	 0.96976805	 3.1632505438	 2.7823790956	 0.126491
95.182	110.41	279.5077	334.4249	415.8007	448.4779	522.5477	529.855	698.1724	784.8019	803.1722	844.7485	884.8906	903.8352	925.5676	945.8357	972.9149	1037.549	1075.9795	1078.0076	1167.1443	1173.5597	1201.0635	1219.6135	1235.8014	1248.2539	1278.1831	1288.6886	1320.8536	1452.5529	1468.3599	1483.9098	1504.3328	1941.0864	3062.8563	3066.6418	3074.2246	3083.8444	3114.1961	3119.6517	3135.6037	3140.7267
O=C1CC2(CCC2)O1	O=C1CC2(CCC2)O1	
InChI=1S/C6H8O2/c7-5-4-6(8-5)2-1-3-6/h1-4H2	InChI=1S/C6H8O2/c7-5-4-6(8-5)2-1-3-6/h1-4H2
