19
gdb 59916	3.52798	0.87496	0.72686	5.4677	75.19	-0.2438	-0.015	0.2288	1539.7628	0.158694	-456.38352	-456.373764	-456.37282	-456.418547	35.309	
C	 0.6553323526	 1.1356373867	 0.2822834277	-0.40518
C	 0.0904967335	-0.2751915747	 0.4120999563	 0.106865
O	-0.4064195977	-0.5008367206	 1.7457659863	-0.426662
C	-0.9926318303	-0.5667326141	-0.6419948744	-0.265367
C	-1.3989804483	-2.0220710199	-0.7828814887	 0.340985
N	-1.4761582529	-2.5515779029	-1.9338695407	-0.498048
N	-1.6790292722	-2.6511561676	 0.4507599347	-0.334429
C	-2.1031690487	-3.940445156	 0.6313273024	 0.161671
O	-2.3539520136	-4.7411166988	-0.2436515787	-0.305266
H	 1.3858837443	 1.325739675	 1.0730775766	 0.131629
H	 1.1452783792	 1.2731403233	-0.685831727	 0.134689
H	-0.1430372328	 1.884733038	 0.3600503769	 0.113848
H	 0.9033803359	-1.0020486763	 0.3049797648	 0.111549
H	-0.9901160002	 0.2348066017	 1.9663045478	 0.285713
H	-1.8797738704	 0.0354066521	-0.3949002429	 0.106224
H	-0.6545034473	-0.2498510964	-1.6305691985	 0.138145
H	-1.7866740358	-3.5215274439	-1.860033181	 0.249772
H	-1.4537185162	-2.1045304439	 1.2768767093	 0.263669
H	-2.2028038193	-4.1840307518	 1.7069136292	 0.090191
62.9448	84.4407	129.3742	183.5884	241.4067	250.4911	272.9678	289.2728	347.5635	379.2147	449.7883	481.6835	521.3944	640.2612	781.2444	791.0478	846.0829	901.0733	935.4181	953.5067	978.5956	1029.5194	1045.1486	1066.2712	1117.2638	1145.1215	1200.9687	1219.5537	1304.3507	1318.4096	1360.4316	1383.9085	1406.6136	1421.3607	1440.0446	1460.3512	1491.846	1494.8453	1541.7998	1732.3149	1807.1507	2945.5524	3005.7402	3026.3632	3057.3097	3100.7045	3118.1991	3126.4826	3478.7275	3501.9021	3789.0412
CC(O)CC(=N)NC=O	C[C@@H](O)CC(=N)NC=O	
InChI=1S/C5H10N2O2/c1-4(9)2-5(6)7-3-8/h3-4,9H,2H2,1H3,(H2,6,7,8)	InChI=1S/C5H10N2O2/c1-4(9)2-5(6)7-3-8/h3-4,9H,2H2,1H3,(H2,6,7,8)/t4-/m1/s1
