21
gdb 109242	2.55163	1.44641	1.09854	1.2521	84.51	-0.2202	0.0242	0.2444	1196.39	0.182385	-387.092893	-387.083946	-387.083002	-387.126157	34.941	
C	 0.032679483	 1.5652505119	 0.0586728112	-0.370936
C	-0.0139447815	 0.0279400098	-0.0395229557	-0.306793
C	-1.4129567418	-0.5178787685	-0.0410653257	 0.276112
C	-2.1103486762	-0.9734772181	-1.0876558962	-0.190824
C	-3.5167527163	-1.4007280341	-0.7214339041	-0.271783
C	-3.5563432082	-1.2244518888	 0.7933609759	-0.08322
C	-2.5907067551	-2.0408974179	 1.6314845123	-0.342087
C	-2.2325283452	-0.6310447196	 1.2171612179	 0.308342
O	-2.1695484272	 0.3816656545	 2.1809555589	-0.460216
H	 1.0672553494	 1.9214779562	 0.094769144	 0.104853
H	-0.4544586173	 2.0186342255	-0.8100592966	 0.118258
H	-0.4905541818	 1.9129039395	 0.9522820642	 0.133397
H	 0.501185733	-0.2933732756	-0.9516435028	 0.102215
H	 0.5472757497	-0.4018664769	 0.8021545138	 0.089958
H	-1.7201545861	-1.066126957	-2.0960200728	 0.085124
H	-4.2705761361	-0.7786888847	-1.2227614399	 0.107749
H	-3.7240289681	-2.4363644028	-1.0218071951	 0.106875
H	-4.4691139623	-0.8969886336	 1.2755937935	 0.093533
H	-2.8780392021	-2.180234641	 2.6693323486	 0.106876
H	-2.0578201026	-2.8727841364	 1.1810148745	 0.109081
H	-1.4806045972	 0.1491146874	 2.812055304	 0.283487
81.5433	136.1897	203.7052	236.4371	267.8281	285.9647	297.5951	338.7478	410.0619	440.2475	587.9414	625.5316	662.1635	731.4227	797.0455	825.202	829.2414	843.636	909.5334	945.1671	957.9216	971.2276	1014.7631	1041.2558	1064.9007	1076.2925	1084.9046	1096.8913	1152.1068	1188.116	1231.4942	1242.8472	1279.2664	1313.9468	1332.4693	1349.9744	1363.4896	1391.7411	1403.2445	1467.8828	1481.7752	1484.3541	1495.241	1515.0631	1701.5334	3006.754	3012.641	3038.9052	3039.6326	3060.0386	3106.9693	3115.4646	3132.4014	3183.2457	3188.0861	3208.826	3806.7533
CCC1=CCC2CC12O	CCC1=CC[C@H]2C[C@@]12O	
InChI=1S/C8H12O/c1-2-6-3-4-7-5-8(6,7)9/h3,7,9H,2,4-5H2,1H3	InChI=1S/C8H12O/c1-2-6-3-4-7-5-8(6,7)9/h3,7,9H,2,4-5H2,1H3/t7-,8+/m0/s1
