19
gdb 118599	1.66335	1.18034	0.75381	3.8573	78.11	-0.2738	0.0018	0.2756	1527.4913	0.158005	-419.252233	-419.241906	-419.240962	-419.289006	35.504	
C	 0.1301471114	 1.4063713811	-0.0477021984	-0.387434
C	-0.0033555736	-0.1177742155	 0.0097395234	-0.177555
C	-1.4653883013	-0.5720446082	 0.0464208255	-0.173591
C	-1.6225165017	-2.108278841	 0.0794159276	-0.13979
N	-1.050830645	-2.7227524234	 1.2701682437	-0.276902
C	 0.0114512717	-3.5780275528	 1.201464326	 0.164001
O	 0.6078644313	-3.8586542997	 0.1860110574	-0.313301
C	-3.0406962426	-2.4836296351	-0.0469707974	 0.277357
N	-4.1623875878	-2.7499464172	-0.1240673103	-0.315549
H	 1.1814321182	 1.7074905966	-0.0721876917	 0.121573
H	-0.3549563978	 1.8151635727	-0.9406794632	 0.120584
H	-0.3319242428	 1.8796428823	 0.8257106898	 0.117174
H	 0.4939519369	-0.5684010564	-0.8578372956	 0.116262
H	 0.5194663961	-0.5009075683	 0.8932627654	 0.108202
H	-1.9780117094	-0.1430694074	 0.9168618148	 0.108437
H	-1.997590079	-0.2015405204	-0.8374813716	 0.125105
H	-1.0717423224	-2.5485237673	-0.7593604197	 0.170122
H	-1.514897639	-2.587958136	 2.1552417668	 0.262109
H	 0.2765635467	-3.9824405839	 2.1964338174	 0.093196
36.1725	74.0791	96.2053	112.9962	155.9168	211.1694	244.771	258.6092	311.5714	341.9016	450.6294	518.2523	550.0128	582.4557	742.3428	758.7605	856.4612	905.9932	958.5845	990.5212	1030.6374	1043.3991	1074.3199	1126.4388	1150.0402	1198.8513	1258.695	1288.1277	1325.3566	1344.5418	1353.5641	1395.7678	1415.2769	1425.5531	1477.735	1491.4964	1499.6057	1508.3669	1519.566	1805.6879	2358.7665	2960.4371	3026.1153	3031.7782	3037.9308	3058.4776	3069.0367	3081.5434	3101.9462	3109.7654	3630.1631
CCCC(NC=O)C#N	CCC[C@@H](NC=O)C#N	
InChI=1S/C6H10N2O/c1-2-3-6(4-7)8-5-9/h5-6H,2-3H2,1H3,(H,8,9)	InChI=1S/C6H10N2O/c1-2-3-6(4-7)8-5-9/h5-6H,2-3H2,1H3,(H,8,9)/t6-/m1/s1
