17
gdb 46750	2.82024	1.91247	1.41965	4.401	70.68	-0.2333	0.0455	0.2788	925.7882	0.139262	-418.006842	-417.999867	-417.998923	-418.038371	27.44	
O	-0.0427474884	-0.0138305459	 0.3113756648	-0.388497
C	-0.0320902542	 1.1698882729	 0.0712878648	 0.401772
N	-1.1268392816	 1.9701405235	-0.1911816202	-0.330872
C	-0.8732837792	 3.4003000183	-0.0880277841	-0.205291
C	 0.6761362076	 3.4264741465	-0.0445289201	 0.020466
C	 1.464077625	 3.6973390958	 1.2466367583	-0.091065
C	 1.0642427506	 2.7386044919	 2.3423888708	-0.29428
C	 1.9102647329	 2.2390932633	 1.2091420279	-0.008596
N	 1.10904405	 2.003928565	-0.0080876477	-0.139107
H	-2.0465500868	 1.5677078965	-0.1182136701	 0.253991
H	-1.2641086298	 3.9420774551	-0.9555825721	 0.115307
H	-1.3174374528	 3.8400799718	 0.8156701314	 0.111096
H	 1.0987816357	 3.9526708364	-0.9044142821	 0.096401
H	 2.0575407102	 4.5822579281	 1.4326270075	 0.100322
H	 1.5942153472	 2.8842531524	 3.2781832058	 0.121499
H	 0.0388503273	 2.3995828013	 2.4598694713	 0.125966
H	 2.8894493464	 1.793567657	 1.3222105137	 0.110887
107.3075	124.7713	219.6885	346.5182	441.2732	509.0016	523.2535	625.3337	709.2869	713.9858	766.5154	795.2488	815.3831	837.1515	924.9122	945.5956	982.5502	1028.863	1051.3929	1056.9439	1061.2874	1082.8146	1100.0012	1118.5724	1144.9255	1200.8741	1209.3688	1247.3506	1255.9811	1284.9613	1327.2339	1360.6497	1373.3073	1440.484	1487.6854	1536.3017	1846.0435	3003.8314	3051.6061	3071.7274	3122.5045	3199.9326	3203.8355	3214.836	3657.7648
O=C1NCC2C3CC3N12	O=C1NC[C@H]2[C@H]3C[C@H]3N12	
InChI=1S/C6H8N2O/c9-6-7-2-5-3-1-4(3)8(5)6/h3-5H,1-2H2,(H,7,9)	InChI=1S/C6H8N2O/c9-6-7-2-5-3-1-4(3)8(5)6/h3-5H,1-2H2,(H,7,9)/t3-,4+,5-/m0/s1
