19
gdb 72157	2.68697	1.936	1.79882	2.2544	72.64	-0.2534	0.09	0.3434	889.0476	0.162483	-423.022769	-423.016273	-423.015329	-423.0532	27.935	
C	-0.010757365	 1.4896650301	 0.0164282627	-0.507644
C	-0.0298781403	-0.021762084	-0.0531720079	 0.261101
C	 0.6312565932	-0.7453541337	-1.2579215196	-0.242504
C	 0.6779975262	-2.085175254	-0.5078875258	 0.033068
O	 1.5970012496	-1.7055027259	 0.5296953986	-0.243029
C	 0.6892296252	-0.8263608224	 1.1687621152	 0.133889
O	-0.298109226	-1.7319282142	 1.627527331	-0.243036
C	-0.7331502541	-2.1048711738	 0.3095887368	 0.03306
C	-1.388450645	-0.7735583127	-0.0879166225	-0.242495
H	 1.0153095355	 1.8735693652	 0.0284137529	 0.120744
H	-0.5193196283	 1.9332516347	-0.8466055836	 0.119059
H	-0.5151734319	 1.8518697409	 0.9190507032	 0.120745
H	 0.0101007636	-0.711546651	-2.1559400718	 0.094188
H	 1.6436397465	-0.4163667757	-1.4980006227	 0.104705
H	 0.9985688568	-2.997037057	-1.0063276065	 0.084053
H	 1.152094745	-0.2703738821	 1.9811682974	 0.091143
H	-1.3058157614	-3.0292045047	 0.3286286727	 0.084055
H	-2.1070117094	-0.4687465632	 0.6746772385	 0.104708
H	-1.8591225302	-0.7376035764	-1.0731019586	 0.09419
213.5119	246.008	264.8346	403.5651	532.5866	544.9506	576.5474	616.0714	632.6936	722.6729	740.3538	828.6086	829.991	891.7282	908.2597	924.4582	928.9134	952.288	963.5345	964.5195	1022.4738	1027.6292	1066.1958	1094.0716	1126.6259	1138.2109	1197.7379	1220.1389	1241.0716	1244.247	1251.7784	1259.3035	1276.4874	1301.5478	1346.9865	1350.8679	1416.1695	1481.5281	1494.9359	1496.0125	1513.9204	3025.511	3065.2995	3076.4974	3091.3073	3092.6954	3123.1693	3130.8279	3148.4841	3154.6509	3159.2824
CC12CC3OC1OC3C2	C[C@@]12C[C@H]3O[C@@H]1O[C@H]3C2	
InChI=1S/C7H10O2/c1-7-2-4-5(3-7)9-6(7)8-4/h4-6H,2-3H2,1H3	InChI=1S/C7H10O2/c1-7-2-4-5(3-7)9-6(7)8-4/h4-6H,2-3H2,1H3/t4-,5+,6-,7+
