19
gdb 10655	2.68548	1.80028	1.31323	3.0056	72.92	-0.2369	-0.0219	0.215	1007.2308	0.163274	-365.046422	-365.037415	-365.036471	-365.079665	32.799	
C	-0.3404501363	 1.4533134226	 0.1023425065	-0.392064
C	 0.2267787009	 0.0278241576	 0.1593421263	-0.270197
C	 0.7617017762	-0.4762043117	-1.1695379099	 0.219978
C	 0.6826589757	-1.9458601504	-1.5108449586	-0.289651
N	-0.082065848	-0.9865617828	-2.2695294941	-0.11179
C	-1.5321859916	-0.9986316602	-2.135063681	-0.317171
C	 1.9779176594	 0.2200603836	-1.698867026	 0.142903
O	 2.6532617722	 0.9964208619	-1.0697014303	-0.269299
H	 0.4259127915	 2.1612980485	-0.2210814206	 0.145568
H	-1.186807133	 1.5248902575	-0.5877648025	 0.114623
H	-0.6905927787	 1.764257431	 1.0911861515	 0.114935
H	 1.0603171489	 0.0027716633	 0.8697111952	 0.123094
H	-0.5280478716	-0.6646742198	 0.5440848321	 0.097235
H	 1.4936741878	-2.446318469	-2.0355467622	 0.121134
H	 0.1666951805	-2.5629034742	-0.7748779726	 0.116275
H	-1.8965392388	-1.2492862856	-1.1281176449	 0.108177
H	-1.9317182935	-0.0206320619	-2.4178104755	 0.133125
H	-1.9311850632	-1.7415245213	-2.8327389114	 0.130888
H	 2.2188181614	-0.0596819691	-2.748285152	 0.082238
100.4149	114.3537	177.7298	207.7881	214.8724	264.0563	284.7319	298.1086	384.6385	432.9403	493.6616	561.8208	714.3775	745.9115	801.1704	896.3545	930.69	996.4215	1023.6511	1047.6682	1079.1085	1111.7801	1119.776	1152.4019	1154.682	1200.8376	1284.2527	1314.6078	1354.3245	1366.6058	1409.7644	1422.3885	1450.4272	1473.3443	1492.879	1499.5223	1500.9753	1511.4232	1513.7953	1817.6646	2895.0603	2995.6603	3045.7001	3048.673	3076.285	3080.474	3084.6515	3108.6125	3112.7852	3133.3204	3165.8281
CCC1(CN1C)C=O	CC[C@]1(CN1C)C=O	
InChI=1S/C6H11NO/c1-3-6(5-8)4-7(6)2/h5H,3-4H2,1-2H3	InChI=1S/C6H11NO/c1-3-6(5-8)4-7(6)2/h5H,3-4H2,1-2H3/t6-,7?/m0/s1
