16
gdb 15052	3.09486	1.64164	1.20753	3.1541	65.08	-0.2526	0.0249	0.2775	1008.8375	0.13006	-379.892807	-379.884371	-379.883427	-379.926179	29.419	
C	 0.1486037157	 1.3067372584	-0.3215376446	-0.329788
N	-0.0909680467	-0.0509211504	 0.1614324742	-0.274272
C	-1.4890269825	-0.4518360184	 0.2035138165	-0.143246
C	-2.1574702685	-0.4049107986	-1.1211694613	 0.284017
N	-2.6383875336	-0.3331499334	-2.1700336175	-0.340169
C	-1.5771179479	-1.8347963291	 0.8315883124	 0.075265
C	-2.5140025639	-2.8756379412	 0.398364813	-0.187379
O	-1.1322591123	-2.9155875277	 0.019273603	-0.230843
H	 1.2254416121	 1.4931615904	-0.3281889119	 0.131626
H	-0.2469312747	 1.5029139896	-1.3302002025	 0.12799
H	-0.3103141644	 2.0228532531	 0.3691243239	 0.127031
H	 0.422512643	-0.7250814308	-0.3977496385	 0.243878
H	-2.022989879	 0.2529270522	 0.8562097312	 0.131281
H	-1.1987257783	-1.8472613035	 1.8533820005	 0.115544
H	-2.8214326263	-3.6375365688	 1.1120999523	 0.124708
H	-3.2093326426	-2.6767449419	-0.4136560306	 0.144356
65.6325	120.4507	139.3346	186.9478	196.2306	261.2479	338.9649	387.6292	443.6071	600.8775	652.6796	762.3149	805.2934	892.8946	903.7309	950.653	1005.964	1091.0315	1094.7111	1141.5435	1160.4739	1169.2341	1173.8311	1200.7435	1287.1242	1320.623	1339.0669	1422.754	1460.7572	1488.1936	1496.0713	1520.6399	1528.0921	2345.1137	2987.2353	3022.4889	3068.3428	3098.8008	3116.7295	3122.5183	3193.099	3526.2765
CNC(C#N)C1CO1	CN[C@@H](C#N)[C@H]1CO1	
InChI=1S/C5H8N2O/c1-7-4(2-6)5-3-8-5/h4-5,7H,3H2,1H3	InChI=1S/C5H8N2O/c1-7-4(2-6)5-3-8-5/h4-5,7H,3H2,1H3/t4-,5+/m0/s1
