19
gdb 38345	3.77644	1.36019	1.15537	2.4791	74.53	-0.2404	0.0774	0.3178	1082.7785	0.160608	-422.952101	-422.944807	-422.943863	-422.984328	28.933	
C	-0.0980738459	 1.6098951524	 0.1117527534	-0.235713
C	 1.3984230288	 1.2198097053	 0.0691398765	-0.011851
O	 1.1018882889	 0.1234736687	 1.026738421	-0.320316
C	 0.0270723783	 0.0730540396	 0.0029092191	-0.009677
C	 1.12130498	 0.2249933121	-1.0911457958	 0.373596
C	 0.7937717287	 0.6820887403	-2.5275096323	-0.340656
C	 1.8276353602	-0.0861392648	-3.3661080384	-0.083259
O	 2.0513060587	-1.2930055086	-2.6581161285	-0.245237
C	 2.1130013282	-0.9428109053	-1.2824214319	-0.155267
H	-0.4440579405	 1.9696451431	 1.0811197577	 0.110293
H	-0.5240194612	 2.1637832976	-0.7271549749	 0.101442
H	 2.2844983555	 1.8270343915	 0.2632596531	 0.092414
H	-0.7355132403	-0.7001114168	 0.1113206506	 0.094635
H	-0.2194336737	 0.3738094811	-2.8046213517	 0.113804
H	 0.8640677179	 1.7640494252	-2.6650770739	 0.106061
H	 1.4852983007	-0.3393947948	-4.3725075326	 0.109633
H	 2.7619792545	 0.4944375376	-3.4539282652	 0.086703
H	 3.1328536903	-0.625479118	-1.0100304421	 0.09141
H	 1.8651896507	-1.8267024263	-0.6929537042	 0.121985
47.1383	201.9808	228.9804	281.4949	356.2702	405.2195	530.5223	625.492	647.2268	732.1094	765.8196	794.9199	860.1271	879.0426	893.22	919.943	957.9481	973.6245	1010.5444	1017.9111	1035.8063	1079.7321	1107.113	1123.3942	1145.1717	1170.506	1176.1841	1193.1915	1202.9356	1233.697	1237.8545	1271.9599	1273.5014	1305.8501	1322.4433	1362.1371	1403.3267	1483.0316	1489.1809	1503.4928	1520.7474	2957.7436	2971.214	3050.8458	3072.593	3094.4076	3100.7828	3104.0503	3109.2184	3114.3603	3152.6293
C1C2OC1C21CCOC1	C1[C@H]2O[C@@H]1[C@]12CCOC1	
InChI=1S/C7H10O2/c1-2-8-4-7(1)5-3-6(7)9-5/h5-6H,1-4H2	InChI=1S/C7H10O2/c1-2-8-4-7(1)5-3-6(7)9-5/h5-6H,1-4H2/t5-,6+,7-
