20
gdb 65110	2.99249	1.32007	1.28147	2.1372	78.04	-0.2332	0.063	0.2962	1107.0478	0.170717	-403.083145	-403.074674	-403.07373	-403.116205	33.265	
O	 0.8276852345	-0.233716193	 1.5075879606	-0.458008
C	 0.1688181185	-0.2723435936	 0.2639021054	 0.27681
C	 0.5788068863	 0.7375190994	-0.7803245508	-0.328558
C	 1.0173751718	-0.7106671124	-0.8870045559	-0.301154
C	-1.2514818235	-0.7209035176	 0.3462695604	 0.30495
C	-1.6492547424	-2.1432995327	 0.3505335822	-0.276315
N	-1.9907014932	-1.3302191963	-0.8350587597	-0.170252
C	-3.2048709213	-0.5342551113	-0.4272874778	-0.147541
C	-2.4434598017	 0.1669591319	 0.7260164604	-0.326695
H	 0.4761444925	 0.513721554	 2.0038436978	 0.281226
H	-0.1709673075	 1.0918365575	-1.4795802536	 0.116137
H	 1.3273709398	 1.4663674785	-0.4901606545	 0.110893
H	 2.0520139432	-0.9391469488	-0.6599563269	 0.119912
H	 0.5501451592	-1.3211101875	-1.6509038884	 0.136232
H	-0.8732406237	-2.8755910332	 0.1532934971	 0.125526
H	-2.4531737266	-2.4882660354	 0.9985008983	 0.106534
H	-3.5023879149	 0.1361018936	-1.235741899	 0.111781
H	-4.059665	-1.1609238512	-0.1525342598	 0.105481
H	-2.8328000774	 0.0596582792	 1.7425524397	 0.102809
H	-2.2630507835	 1.2255618686	 0.5256079342	 0.110231
57.1406	148.1264	184.238	258.8779	280.8339	311.5894	350.2729	460.8041	468.0027	533.2954	559.9561	743.4166	781.2879	782.7429	812.1587	837.6322	901.5158	916.4772	929.5839	940.9256	965.189	986.1807	1006.0844	1049.3892	1080.0909	1089.8193	1099.8263	1119.7565	1175.8689	1195.8699	1200.9763	1221.5661	1256.5776	1262.5158	1277.5127	1316.917	1359.811	1421.7487	1441.2082	1486.6899	1492.4461	1494.7945	1517.7717	3046.8016	3055.8712	3100.2605	3100.9186	3119.6127	3131.1696	3144.0904	3202.0246	3220.7272	3241.2475	3795.8085
OC1(CC1)C12CN1CC2	OC1(CC1)[C@]12CN1CC2	
InChI=1S/C7H11NO/c9-7(1-2-7)6-3-4-8(6)5-6/h9H,1-5H2	InChI=1S/C7H11NO/c9-7(1-2-7)6-3-4-8(6)5-6/h9H,1-5H2/t6-,8?/m0/s1
