20
gdb 93662	2.47425	1.50114	1.17975	3.5153	76.05	-0.2462	0.0274	0.2736	1136.0394	0.170751	-440.341121	-440.331705	-440.330761	-440.374896	35.111	
C	 0.0155982837	 1.3849924651	-0.0590509861	-0.347994
N	 0.0216287278	-0.0584934569	-0.0950156889	-0.074837
C	-1.1938009179	-0.8611721234	-0.0663270472	-0.181829
C	-0.70367319	-2.2734527817	-0.4546806339	-0.266994
C	 0.7715700669	-2.2871478297	-0.0258155058	 0.302653
C	 0.9764531321	-2.788721454	 1.4114628532	-0.429209
O	 1.5713818969	-3.0270369867	-0.9266378758	-0.483104
C	 1.1579714432	-0.8018134523	-0.1126744869	 0.377616
O	 2.3060061659	-0.3998831883	-0.191575345	-0.426995
H	 1.0521048932	 1.7224497873	-0.1156317999	 0.166484
H	-0.5459394564	 1.7962988431	-0.9063630865	 0.127165
H	-0.4364825566	 1.7593197115	 0.8681022347	 0.12613
H	-1.6547263015	-0.8414531134	 0.9321069893	 0.108424
H	-1.9309618073	-0.4647045872	-0.773590264	 0.11429
H	-1.2999196915	-3.06190198	 0.0091738505	 0.108511
H	-0.7419473744	-2.402209932	-1.5392398214	 0.125114
H	 0.7736705237	-3.8627621483	 1.4498518374	 0.125722
H	 2.010053035	-2.615339463	 1.7243301127	 0.130896
H	 0.3131058288	-2.2808396355	 2.1205472477	 0.110217
H	 2.4232888885	-2.5663251047	-0.949018864	 0.287739
90.0377	137.3119	159.2151	203.2791	241.2525	262.383	284.005	309.1644	339.0439	402.185	438.8738	529.6105	575.6195	632.6245	733.6569	760.7052	817.6986	938.559	953.3274	972.1468	996.4947	1009.0151	1094.3561	1136.383	1142.8672	1170.5449	1194.9439	1232.4638	1262.6559	1294.2938	1317.3351	1336.0127	1397.2317	1406.2003	1438.217	1462.0293	1484.4571	1491.9968	1492.7814	1497.2743	1514.2387	1544.4967	1797.0602	2995.8407	3016.2907	3032.8493	3052.0883	3066.677	3073.3501	3105.4736	3121.2206	3123.9456	3141.9247	3727.2301
CN1CCC(C)(O)C1=O	CN1CC[C@@](C)(O)C1=O	
InChI=1S/C6H11NO2/c1-6(9)3-4-7(2)5(6)8/h9H,3-4H2,1-2H3	InChI=1S/C6H11NO2/c1-6(9)3-4-7(2)5(6)8/h9H,3-4H2,1-2H3/t6-/m1/s1
