17
gdb 124547	3.90821	1.09228	0.90652	2.8808	71.94	-0.2506	-0.0059	0.2447	1288.1322	0.134861	-455.148056	-455.139364	-455.138419	-455.181899	31.71	
C	 0.0387565346	 1.5384383402	 0.1797350564	-0.388226
C	 0.0413939865	 0.0196892965	-0.0280163963	-0.107164
C	-1.3838300854	-0.5654003525	-0.0949234797	-0.39654
C	 0.8126619844	-0.3616187931	-1.2481273358	 0.451892
N	 1.3362296413	 0.4243458557	-2.1127460771	-0.188593
O	 1.9415816963	-0.4476016392	-3.064430621	-0.246022
C	 1.7219359852	-1.7361729319	-2.6747570965	 0.501463
N	 2.0739094812	-2.8114758079	-3.2122521267	-0.57914
O	 0.9976592529	-1.6831575372	-1.5081834787	-0.21339
H	 1.0542214143	 1.9351210995	 0.2492598192	 0.137678
H	-0.4622893311	 2.0450088692	-0.6497582405	 0.139578
H	-0.4941567242	 1.7807171146	 1.1030110211	 0.12041
H	 0.5591251424	-0.4578243638	 0.8152902411	 0.118338
H	-1.9496850218	-0.1115727025	-0.9146333764	 0.132866
H	-1.364706795	-1.6471910366	-0.2462677482	 0.143846
H	-1.9112163672	-0.3567553082	 0.8398142471	 0.127695
H	 2.6004246957	-2.6364023129	-4.064313068	 0.245309
50.141	122.0837	173.3303	214.7452	224.2519	263.3212	312.1135	389.2335	433.8746	521.0067	621.0893	704.3406	740.8142	763.1607	784.6386	880.4595	906.42	936.3483	941.8654	974.1767	991.3108	1041.019	1118.5076	1132.4952	1185.3269	1249.2437	1297.8325	1325.7683	1396.3874	1410.2288	1427.4681	1486.8529	1489.3607	1500.4748	1514.0094	1690.4235	1814.4188	3019.6169	3045.1192	3052.0316	3117.4117	3125.4655	3130.6588	3131.4814	3546.7391
CC(C)C1=NOC(=N)O1	CC(C)C1=NO[C@@H]([NH])O1	
InChI=1S/C5H8N2O2/c1-3(2)4-7-9-5(6)8-4/h3,6H,1-2H3	InChI=1S/C5H9N2O2/c1-3(2)4-7-9-5(6)8-4/h3,5-6H,1-2H3/t5-/m0/s1
