22
gdb 86111	2.43459	1.49659	1.03396	1.1866	88.58	-0.2169	0.0223	0.2392	1239.9223	0.195544	-367.216022	-367.207259	-367.206315	-367.248981	34.595	
C	 0.1694062952	 1.5831928224	 0.0287223613	-0.397383
C	 0.0239448337	 0.056432284	 0.0324525665	 0.017003
C	 0.5487986512	-0.5564183079	-1.2849986264	-0.305499
C	 0.6863157153	-2.0633597083	-1.2612491375	 0.293234
C	 0.5192731829	-2.7819217385	-2.5701373392	-0.479805
C	 0.9880333909	-2.6958143836	-0.1229667957	-0.113046
C	 1.176836832	-1.9652978213	 1.1529910747	-0.088671
N	 2.1386631334	-0.819781166	 1.1462804284	-0.343047
C	 0.6947185767	-0.5626950773	 1.2441211483	-0.023291
H	 1.2275660678	 1.8644153385	 0.0019740017	 0.126054
H	-0.321984428	 2.0273484629	-0.8433849469	 0.108815
H	-0.275165956	 2.0287127865	 0.9253641052	 0.10492
H	-1.0441719841	-0.192730687	 0.1140206835	 0.072121
H	-0.1136155632	-0.254311066	-2.1056464552	 0.089934
H	 1.5302209776	-0.1184486995	-1.5099279321	 0.125672
H	 1.2323444715	-2.411365119	-3.3185315366	 0.124093
H	 0.670015341	-3.8598427386	-2.4644095701	 0.117673
H	-0.4817664751	-2.6138521455	-2.9889548161	 0.119465
H	 1.1085604088	-3.7759640637	-0.1093383311	 0.074033
H	 1.1490234386	-2.5662444597	 2.0580516104	 0.077202
H	 2.5675627076	-0.735021638	 2.064752734	 0.226152
H	 0.3042383422	-0.2291098343	 2.2048481032	 0.074369
111.7762	141.968	198.1588	230.7661	250.7801	268.7965	375.7878	388.1381	420.6785	473.7553	514.3986	618.6376	668.6464	777.9758	816.9852	832.3216	869.0528	889.9446	915.5	932.1762	959.4328	991.2561	1029.1458	1047.874	1061.3429	1105.4468	1117.2112	1142.5151	1152.9451	1195.3675	1200.3343	1256.6408	1263.7945	1317.1016	1337.167	1363.9829	1382.1143	1401.0861	1408.8921	1415.1117	1454.9527	1471.7675	1478.8178	1490.1614	1496.4452	1503.3121	1730.1941	2997.8474	3009.652	3018.7775	3027.832	3051.3887	3055.1278	3094.2234	3102.4301	3106.863	3109.1012	3137.4401	3159.4037	3493.0071
CC1CC(C)=CC2NC12	C[C@H]1CC(=C[C@H]2N[C@@H]12)C	
InChI=1S/C8H13N/c1-5-3-6(2)8-7(4-5)9-8/h4,6-9H,3H2,1-2H3	InChI=1S/C8H13N/c1-5-3-6(2)8-7(4-5)9-8/h4,6-9H,3H2,1-2H3/t6-,7+,8-/m0/s1
