21
gdb 113313	2.39831	1.06783	0.85378	5.0424	84.83	-0.2332	0.0328	0.266	1455.5007	0.181272	-383.263483	-383.253088	-383.252143	-383.299271	37.448	
C	 0.3089292532	 1.4293344761	 0.2206201599	-0.379808
C	-0.1631620963	 0.0114047171	-0.1263436056	-0.216956
C	 0.5768607052	-0.549678152	-1.3249963344	-0.035696
C	 1.8616743536	-1.3149228142	-1.1679651595	-0.322859
C	 0.5912296009	-2.0383827349	-1.6421793549	 0.151339
N	-0.1199734089	-2.9792425737	-0.8253430892	-0.345075
C	 0.6021094604	-4.2086732216	-0.5196178768	-0.33005
C	 0.5643732338	-2.3843597423	-3.0510021729	 0.284012
N	 0.562400897	-2.6625525673	-4.1739280016	-0.35428
H	 1.3788992505	 1.442013385	 0.4513399459	 0.124507
H	 0.1400883729	 2.1154492724	-0.615751803	 0.12473
H	-0.2302352489	 1.8201385624	 1.0883510168	 0.11915
H	-0.013347594	-0.6347584708	 0.7472407596	 0.095325
H	-1.2410329377	 0.0213558222	-0.3306810738	 0.116216
H	 0.5147673492	 0.0829067972	-2.2064194168	 0.113131
H	 2.6673887227	-1.1590453281	-1.8757742724	 0.134431
H	 2.1787130328	-1.5540523942	-0.1575921321	 0.121051
H	-0.4828982798	-2.5392050432	 0.0080818396	 0.229674
H	-0.0276965853	-4.8456532214	 0.1068638993	 0.124318
H	 0.8049809642	-4.7503123099	-1.4490092075	 0.146078
H	 1.5644373346	-4.0498832088	-0.0051981308	 0.100761
56.2097	83.6466	122.5743	142.8145	176.1806	203.2132	237.1191	262.7576	309.6225	364.5114	421.8898	485.1981	573.6875	604.0993	655.154	687.4906	787.6399	810.959	903.6193	917.8917	951.3601	969.9757	1042.639	1050.8555	1073.812	1093.5541	1141.2892	1153.7912	1176.3372	1196.0078	1254.9316	1298.8214	1322.4803	1348.1852	1407.5678	1420.0482	1461.6397	1469.3283	1480.8402	1490.1492	1495.524	1498.0922	1507.8001	1519.815	2348.3593	2966.5093	3022.0852	3037.7407	3056.8807	3072.7392	3107.7169	3112.9672	3117.5271	3131.7455	3147.8649	3225.4852	3590.4669
CCC1CC1(NC)C#N	CC[C@H]1C[C@]1(NC)C#N	
InChI=1S/C7H12N2/c1-3-6-4-7(6,5-8)9-2/h6,9H,3-4H2,1-2H3	InChI=1S/C7H12N2/c1-3-6-4-7(6,5-8)9-2/h6,9H,3-4H2,1-2H3/t6-,7-/m0/s1
