15
gdb 46107	3.37254	1.10893	0.90856	6.2474	66.96	-0.2706	0.0164	0.2871	1229.4073	0.1136	-453.97602	-453.968037	-453.967092	-454.009672	28.402	
N	-0.2881722062	 1.167671132	-0.1205929417	-0.56359
C	-0.095260884	-0.0629621426	 0.0177330765	 0.49315
O	 0.9165759162	-0.67317404	 0.7065469756	-0.247883
C	 0.8716478559	-2.0772090587	 0.4546023187	-0.129034
C	-0.5649816667	-2.2903220596	-0.0482427451	 0.084774
C	-1.5287579806	-2.7371446954	 1.0670185504	-0.360624
C	-2.9073550622	-2.8685388122	 0.6038247408	 0.273661
N	-3.9934906308	-2.9947452121	 0.2325297056	-0.28933
O	-0.9210670093	-0.9961363947	-0.5271127668	-0.222895
H	 0.4578929063	 1.6965133421	 0.3243018803	 0.237761
H	 1.6140852123	-2.3420274343	-0.3058658126	 0.132957
H	 1.0968313004	-2.6094430848	 1.3816134813	 0.132766
H	-0.6186338144	-2.9846629888	-0.889158583	 0.128271
H	-1.1972247706	-3.7061367682	 1.4583919775	 0.159129
H	-1.4889881164	-2.0191733628	 1.8939866724	 0.170889
57.1207	102.0481	119.9092	164.6006	321.65	381.179	399.6854	475.0036	548.251	709.5432	714.7467	772.5731	808.0362	849.0524	896.643	942.2898	957.7501	1005.1663	1025.8154	1087.8169	1104.5794	1132.4098	1225.9282	1234.1517	1263.5781	1298.9023	1361.372	1392.9491	1418.4869	1457.6389	1521.3952	1810.7511	2371.0761	3043.292	3047.9333	3083.9062	3103.0629	3111.6941	3542.4707
N=C1OCC(CC#N)O1	[NH][C]1OC[C@@H](CC#N)O1	
InChI=1S/C5H6N2O2/c6-2-1-4-3-8-5(7)9-4/h4,7H,1,3H2	InChI=1S/C5H6N2O2/c6-2-1-4-3-8-5(7)9-4/h4,7H,1,3H2/t4-/m1/s1
