17
gdb 28458	3.15563	1.39134	0.97723	1.3077	79.09	-0.2465	-0.0217	0.2248	1192.2054	0.136547	-418.096299	-418.087683	-418.086739	-418.130283	31.283	
C	-0.0036423834	 1.4783285563	 0.0547444706	-0.460488
C	 0.0047362531	-0.0236805542	 0.0026898964	 0.346016
N	-0.1673271643	-0.6118835499	-1.1794357834	-0.299955
C	-0.1530466478	-1.9534136028	-1.1805767908	-0.056453
C	 0.0254914371	-2.7363201219	-0.0529187677	 0.162745
C	 0.0399205991	-4.2370370284	-0.0634997622	-0.494836
C	 0.1954396344	-1.9915265736	 1.1262870096	 0.364248
O	 0.377271328	-2.6515435466	 2.2843589334	-0.406903
N	 0.187326817	-0.6693154343	 1.1667647933	-0.38051
H	 0.9428357505	 1.8507612461	 0.4598598385	 0.136836
H	-0.1585754233	 1.8875118869	-0.943477378	 0.138083
H	-0.7961869537	 1.8319994601	 0.722142579	 0.136839
H	-0.2940601575	-2.4321116599	-2.1486673661	 0.108554
H	 0.9899488821	-4.6292339854	 0.31514614	 0.140647
H	-0.747154852	-4.6477462422	 0.5780360075	 0.140653
H	-0.1093918436	-4.618786199	-1.0770671187	 0.124761
H	 0.4730425944	-1.9720637712	 2.9676389287	 0.299762
38.4088	115.9067	128.4417	222.4378	264.3201	308.9526	323.0664	449.8032	477.8868	531.6218	581.7745	585.5389	675.401	756.0168	776.6066	808.8332	958.0405	971.4468	1024.3187	1035.8757	1065.1276	1071.8089	1181.3006	1235.3734	1292.6365	1320.7379	1357.5509	1395.9617	1415.4182	1449.0465	1470.1289	1476.5541	1479.3506	1485.5004	1502.796	1613.0925	1653.2484	3034.5386	3045.6884	3089.3165	3101.3925	3115.8215	3140.0135	3157.6255	3752.5025
CC1=NC=C(C)C(O)=N1	Cc1ncc(C)c(O)n1	
InChI=1S/C6H8N2O/c1-4-3-7-5(2)8-6(4)9/h3H,1-2H3,(H,7,8,9)	InChI=1S/C6H8N2O/c1-4-3-7-5(2)8-6(4)9/h3H,1-2H3,(H,7,8,9)
