21
gdb 57600	2.49415	1.21424	1.06956	2.7371	78.64	-0.2487	-0.0263	0.2224	1250.8776	0.179654	-424.226432	-424.216329	-424.215385	-424.261992	36.822	
C	 0.1327140965	 1.5063456166	 0.2189098309	-0.439053
C	-0.0016587481	-0.0205222821	 0.1274867963	 0.212169
O	 0.4968062752	-0.6568157131	 1.3023950662	-0.466272
C	-1.486045427	-0.3905686105	 0.0923699916	 0.1579
O	-2.248487155	-0.0088818045	-0.7568765366	-0.267543
C	 0.6648435282	-0.5624747167	-1.1487753098	 0.05557
C	 2.2104981215	-0.4642926468	-1.2988489754	-0.254047
C	 2.1890766406	-1.8685297997	-1.9617762245	-0.21341
C	 0.7848023656	-2.100296861	-1.3442765659	-0.246293
H	 1.1869676204	 1.8008390046	 0.1695980011	 0.115964
H	-0.3995754542	 1.9818012251	-0.6084854475	 0.143214
H	-0.2854631007	 1.8718019898	 1.1613429215	 0.126382
H	 1.3738894664	-0.3065890685	 1.4854873542	 0.284707
H	-1.8047758734	-1.0505646151	 0.9283352316	 0.09448
H	 0.1646184852	-0.1038547544	-2.0067881507	 0.089888
H	 2.6173767434	 0.3724263044	-1.8713442868	 0.100968
H	 2.7154544973	-0.4986794939	-0.3269335191	 0.08335
H	 2.1468302379	-1.7966724759	-3.0521435547	 0.106215
H	 2.9848248452	-2.5658840106	-1.6905466563	 0.09857
H	 0.8487925354	-2.6059852611	-0.3771745438	 0.114226
H	 0.0286642096	-2.5941077264	-1.9584837224	 0.103014
40.5793	75.62	125.3749	166.4349	223.1686	241.1011	259.631	263.2587	297.6912	357.1941	454.9764	516.7044	586.9453	641.1869	733.804	785.0932	857.9856	895.5414	933.8165	936.9812	944.9811	954.7856	984.2024	1029.4232	1037.4292	1105.4076	1113.5746	1165.6629	1203.3474	1222.7315	1248.1029	1259.1574	1262.5427	1278.7839	1292.9209	1340.0436	1363.1687	1389.6221	1405.4456	1474.9907	1486.5674	1489.5387	1497.005	1509.5381	1833.3431	2902.4395	3034.2221	3041.3003	3059.3396	3065.5591	3068.8623	3098.9916	3105.3753	3109.8447	3126.0241	3131.2741	3830.5611
CC(O)(C=O)C1CCC1	C[C@@](O)(C=O)C1CCC1	
InChI=1S/C7H12O2/c1-7(9,5-8)6-3-2-4-6/h5-6,9H,2-4H2,1H3	InChI=1S/C7H12O2/c1-7(9,5-8)6-3-2-4-6/h5-6,9H,2-4H2,1H3/t7-/m1/s1
