20
gdb 79061	5.04468	1.1638	1.0763	1.5629	85.07	-0.2075	0.0039	0.2114	1201.4753	0.171357	-365.94074	-365.932768	-365.931824	-365.972798	31.681	
C	-0.1606395616	 1.5563892647	 0.1287526232	-0.432116
C	 0.0302113306	 0.0584217852	-0.0161993647	 0.074416
C	 0.7991208683	-0.5786549713	-1.1856227017	-0.081363
C	 2.1269728948	-0.1352815023	-0.492050019	-0.033933
C	 3.149983853	-1.2362981296	-0.6473304262	-0.213876
C	 2.4331139906	-2.3513862632	-0.4798034322	 0.339021
C	 2.8119052453	-3.7915361025	-0.468458206	-0.510766
C	 1.0368387029	-1.7988474677	-0.2443306056	-0.087665
N	 1.2254749597	-0.5807286604	 0.712914696	-0.163177
H	 0.7156993323	 2.1344024781	-0.1749254912	 0.117297
H	-1.0066572681	 1.8888148632	-0.4826838296	 0.116663
H	-0.3838701057	 1.8073530666	 1.1710235675	 0.128504
H	-0.8998192686	-0.4581234573	 0.2520998671	 0.064551
H	 0.5668056815	-0.5877675519	-2.2596008632	 0.055637
H	 2.4534713486	 0.9029450893	-0.4858911898	 0.069727
H	 4.2108495409	-1.1140770989	-0.8154793562	 0.102564
H	 3.8804890387	-3.9245965638	-0.6577555818	 0.128099
H	 2.5772752544	-4.2554277045	 0.4979497031	 0.135137
H	 2.2590106696	-4.3583113774	-1.2284868806	 0.127805
H	 0.2176667428	-2.4724294863	 0.0164467808	 0.063475
147.4814	165.3594	172.9078	207.6404	288.0494	317.4721	449.5444	513.4221	545.7577	593.359	701.7551	729.4732	778.3699	804.8292	821.2437	842.6155	875.9187	923.0161	970.4092	991.1305	1019.6811	1043.9062	1058.487	1063.8958	1104.1371	1115.5978	1139.1605	1167.2908	1198.4519	1202.3758	1248.7175	1251.6457	1263.6014	1323.161	1330.7136	1407.4434	1413.7678	1430.0611	1477.9883	1486.2973	1493.8754	1496.387	1700.1364	3005.7194	3017.2175	3024.2721	3037.5984	3062.7609	3097.8928	3098.3322	3111.0459	3115.5374	3140.029	3230.2019
CC1C2C3C=C(C)C2N13	C[C@H]1[C@H]2[C@@H]3C=C(C)[C@H]2N13	
InChI=1S/C8H11N/c1-4-3-6-7-5(2)9(6)8(4)7/h3,5-8H,1-2H3	InChI=1S/C8H11N/c1-4-3-6-7-5(2)9(6)8(4)7/h3,5-8H,1-2H3/t5-,6-,7-,8+/m0/s1
