15
gdb 75662	2.8942	1.29742	1.10767	1.0247	72.23	-0.2605	-0.049	0.2114	1103.3377	0.111875	-416.790279	-416.782102	-416.781158	-416.82319	29.989	
C	-0.0479653204	 1.6078843676	 0.0618045514	-0.421701
C	 0.0407512529	 0.091194815	 0.0061395472	-0.170781
C	 1.1072120647	-0.5982492356	-0.9016499589	 0.460191
O	 1.2826340064	-0.6311333004	-2.0804147527	-0.29316
C	 1.7213304454	-1.32985814	 0.283577443	-0.248378
N	 2.0994638219	-0.2415509264	 1.2313734677	-0.349634
C	 0.6914240377	-0.6786789815	 1.1821541577	 0.220644
C	 0.0315671978	-1.2578258374	 2.3037734602	 0.181763
N	-0.5159623641	-1.7111413816	 3.2172570085	-0.333266
H	 0.9009901824	 2.0373590286	 0.3897200515	 0.148581
H	-0.2815717593	 2.0009109425	-0.9319698937	 0.142214
H	-0.8366784647	 1.9305854321	 0.7479469651	 0.132993
H	-0.9260402426	-0.3611140155	-0.2457707457	 0.127445
H	 2.1727492055	-2.3119553811	 0.3454257203	 0.142278
H	 2.5523546261	-0.6882374362	 2.0296501284	 0.260811
89.0687	136.8023	192.3802	200.6758	225.1917	280.3233	429.7844	494.9492	515.8652	562.1384	595.8135	647.3045	702.1552	764.4743	837.8457	876.8623	949.9341	998.5272	1015.6842	1080.2926	1092.3948	1112.0141	1135.7818	1194.9967	1254.0618	1296.6758	1336.2721	1392.6069	1406.1091	1490.3921	1502.6252	1912.0212	2349.3177	3047.3634	3053.4803	3115.3123	3137.2594	3208.8332	3473.99
CC1C(=O)C2NC12C#N	C[C@H]1C(=O)[C@H]2N[C@@]12C#N	
InChI=1S/C6H6N2O/c1-3-4(9)5-6(3,2-7)8-5/h3,5,8H,1H3	InChI=1S/C6H6N2O/c1-3-4(9)5-6(3,2-7)8-5/h3,5,8H,1H3/t3-,5+,6-/m0/s1
