19
gdb 89349	2.24622	1.60104	1.10816	3.6573	77.9	-0.2524	-0.0393	0.2131	1155.7011	0.156194	-423.011845	-423.002593	-423.001649	-423.045609	34.179	
C	-0.0738315049	 1.6312724524	-0.0998022843	-0.40865
C	-0.007881802	 0.1110041042	-0.0637413426	-0.057343
C	 1.0675413333	-0.6108281903	-0.9564203708	-0.307218
C	 1.6680773223	-1.2349763478	 0.3130374374	 0.353261
C	 2.3503318095	-2.5495476316	 0.4982057771	-0.500843
O	 2.0330122988	-0.1647413503	 1.170265748	-0.295157
C	 0.6500430879	-0.5348051806	 1.1719914723	 0.246777
C	 0.0378403373	-1.0401896626	 2.415900092	 0.053881
O	 0.6519353204	-1.4623280618	 3.3659762339	-0.264319
H	 0.9051533024	 2.0590659945	 0.1332956001	 0.137336
H	-0.3759538475	 1.9859649736	-1.0905959392	 0.117834
H	-0.7969259186	 2.0155817393	 0.6276524063	 0.118282
H	-0.9950827857	-0.3302660245	-0.2373061539	 0.082251
H	 0.6323462032	-1.3428808451	-1.6404596682	 0.11039
H	 1.7543433113	 0.0389555268	-1.5052942227	 0.113759
H	 3.3644251829	-2.5130487286	 0.0840325796	 0.137005
H	 2.4191516511	-2.7842689988	 1.563151444	 0.161728
H	 1.8052445203	-3.3477967397	-0.0145633646	 0.125984
H	-1.075949542	-1.040587479	 2.3947832656	 0.075042
92.452	134.1632	175.9123	200.2186	213.6644	217.1299	250.0963	333.8449	369.2044	455.1777	482.5262	561.1768	664.8223	724.7727	764.0595	814.2806	852.9511	895.5819	916.252	990.7177	1025.6996	1043.028	1098.3106	1107.3916	1147.4933	1158.3602	1193.6619	1224.6845	1233.6772	1303.084	1351.0527	1394.844	1407.0313	1427.7595	1449.2175	1476.7694	1484.6406	1490.7148	1494.3198	1503.5536	1803.4292	2870.9132	3034.8411	3036.393	3052.7713	3064.202	3098.8063	3100.4027	3118.9412	3123.3139	3132.8439
CC1CC2(C)OC12C=O	C[C@H]1C[C@@]2(C)O[C@@]12C=O	
InChI=1S/C7H10O2/c1-5-3-6(2)7(5,4-8)9-6/h4-5H,3H2,1-2H3	InChI=1S/C7H10O2/c1-5-3-6(2)7(5,4-8)9-6/h4-5H,3H2,1-2H3/t5-,6+,7-/m0/s1
