17
gdb 36111	3.30021	1.32702	1.12113	4.2509	75.1	-0.2363	0.0306	0.267	1099.6297	0.13622	-380.794947	-380.787259	-380.786315	-380.827498	29.754	
N	 0.0829022296	-1.1480995405	 0.2603936827	-0.311084
C	 0.0593148991	-0.0124902872	 0.0495901684	 0.270511
C	 0.0354520156	 1.4321516186	-0.1928719615	-0.436522
C	 1.3846317354	 2.087621128	 0.0013130059	 0.323996
C	 1.8110605003	 3.2747442077	-0.76926942	-0.300251
N	 2.4615386624	 1.9709050489	-1.0325767176	-0.16718
C	 3.4235544086	 1.6169091838	 0.090224719	 0.014453
C	 3.5471723196	 2.5709702724	 1.2420213498	-0.317534
C	 2.3415593888	 1.6762938862	 1.1439272791	-0.124459
H	-0.3106849263	 1.6110906859	-1.2161566242	 0.161367
H	-0.7034355948	 1.881560976	 0.4832029076	 0.156093
H	 1.1780513142	 3.57955386	-1.5983390949	 0.125202
H	 2.355186661	 4.093433039	-0.314360072	 0.127336
H	 4.1544618035	 0.8505134647	-0.129626286	 0.115952
H	 4.2682094986	 2.2356858289	 1.9819435612	 0.12699
H	 3.5010261794	 3.6504977422	 1.1554177741	 0.11822
H	 2.074220675	 0.9457793254	 1.8949230784	 0.116912
63.6124	105.8135	225.5884	289.2871	379.7734	385.9753	462.0457	478.5499	572.343	634.5488	712.7249	726.5525	782.3439	845.7289	908.2495	912.2865	936.0251	944.6982	968.114	980.5328	1030.1677	1059.7472	1067.9299	1086.9109	1115.7988	1125.7138	1175.3051	1204.6305	1241.0843	1300.1959	1309.5441	1345.7603	1388.674	1446.5982	1475.7253	1524.6218	2363.922	3033.0081	3085.7142	3124.3775	3136.2343	3201.3149	3203.8434	3214.4213	3217.7191
N#CCC12CN1C1CC21	N#CC[C@]12CN1[C@H]1C[C@@H]21	
InChI=1S/C7H8N2/c8-2-1-7-4-9(7)6-3-5(6)7/h5-6H,1,3-4H2	InChI=1S/C7H8N2/c8-2-1-7-4-9(7)6-3-5(6)7/h5-6H,1,3-4H2/t5-,6+,7-,9?/m1/s1
