15
gdb 54349	1.95496	1.76488	1.24738	5.5552	65.78	-0.2608	-0.0078	0.2529	1041.5675	0.112175	-453.965249	-453.956516	-453.955572	-453.999503	31.028	
N	 0.117491945	 1.2142725766	 0.3913110981	-0.520663
C	 0.0845644379	 0.0384471142	-0.2726116288	 0.336019
O	 0.9547775983	-0.4101789856	-0.9864245071	-0.354895
C	-1.2127612731	-0.7666526163	-0.0199479237	 0.190717
C	-0.9995716244	-2.0584972916	 0.8198769522	-0.316343
C	-1.8944245414	-1.3593135582	 1.8611568872	-0.078377
O	-2.0622131897	-0.1973995536	 1.0011167888	-0.315483
C	-1.9322809443	-0.9463792787	-1.2843783835	 0.282706
N	-2.5269944844	-1.0916970035	-2.2640629195	-0.329023
H	 0.9072127374	 1.8260785171	 0.2689783524	 0.273436
H	-0.6715999743	 1.4935458158	 0.9508851778	 0.281302
H	-1.4156085344	-2.9595168486	 0.3723655202	 0.147661
H	 0.0376920416	-2.2323729154	 1.1026159246	 0.148463
H	-2.8552488012	-1.8400783864	 2.0647366262	 0.131789
H	-1.4118124429	-1.0894118658	 2.8055640251	 0.122691
42.4826	83.9593	143.0323	189.4247	225.3779	302.1367	351.1486	411.7843	457.267	529.3777	579.5958	634.5927	640.245	763.8563	787.2185	860.5296	916.2559	971.5608	1000.4979	1040.8591	1099.7038	1124.1245	1157.3914	1188.3311	1219.8749	1261.3995	1347.2898	1362.1361	1492.5268	1528.2085	1592.7191	1818.9129	2358.3358	3049.5709	3100.418	3109.2512	3170.3564	3593.6083	3733.8157
NC(=O)C1(CCO1)C#N	NC(=O)[C@]1(CCO1)C#N	
InChI=1S/C5H6N2O2/c6-3-5(4(7)8)1-2-9-5/h1-2H2,(H2,7,8)	InChI=1S/C5H6N2O2/c6-3-5(4(7)8)1-2-9-5/h1-2H2,(H2,7,8)/t5-/m0/s1
