16
gdb 48081	3.02794	1.24523	0.89397	4.9051	79.33	-0.2088	-0.0747	0.1341	1231.2837	0.124505	-437.918455	-437.909996	-437.909051	-437.952223	30.039	
O	-0.9184489023	 1.3274949843	-0.0839351858	-0.250637
C	 0.2265183943	 0.9728040019	-0.2121436068	 0.088863
C	 1.4487349409	 1.8917634246	-0.2630427187	 0.163772
O	 2.5314712761	 1.3376679997	-0.4393225482	-0.355291
C	 1.2580812873	 3.311144112	-0.1023715237	 0.157732
C	 2.2942697719	 4.1935192476	-0.1722085891	-0.037317
N	 1.9060250544	 5.4846383167	-0.0463711229	-0.275349
C	 0.4975300661	 5.5461447401	 0.3807065152	-0.174152
C	-0.0268562834	 4.1094466547	 0.0952124747	-0.324954
H	 0.5205186754	-0.0937894117	-0.3204568431	 0.099644
H	 3.3332426601	 3.9416201589	-0.3409743452	 0.153789
H	 2.5582984475	 6.2137529521	 0.1910118045	 0.258314
H	 0.4387414627	 5.7909159395	 1.4495252133	 0.116535
H	-0.0423673826	 6.3185302476	-0.1730295278	 0.122488
H	-0.6498430862	 4.0895638669	-0.8055951778	 0.124506
H	-0.6510544222	 3.7353943652	 0.9075512013	 0.132056
73.0033	112.3228	129.5119	163.628	221.884	270.0338	392.4913	426.742	509.4648	551.6438	609.1192	666.2434	747.8287	846.6794	880.1886	943.1614	969.311	995.068	1029.9369	1067.7492	1083.2588	1164.7108	1198.7598	1234.2298	1278.6415	1309.7354	1327.3563	1366.2122	1382.9052	1484.0099	1493.1456	1527.8162	1615.0841	1706.1004	1815.3192	2911.9041	3014.4121	3045.4647	3087.2281	3115.8253	3233.8877	3649.1667
O=CC(=O)C1=CNCC1	O=CC(=O)C1=CNCC1	
InChI=1S/C6H7NO2/c8-4-6(9)5-1-2-7-3-5/h3-4,7H,1-2H2	InChI=1S/C6H7NO2/c8-4-6(9)5-1-2-7-3-5/h3-4,7H,1-2H2
