17
gdb 93444	2.86101	1.36183	0.98133	3.7188	68.9	-0.2605	-0.0369	0.2237	1171.2611	0.135418	-459.028447	-459.020072	-459.019127	-459.061956	30.896	
C	-0.1058562589	 1.5392028235	-0.0055635002	-0.407145
C	 0.0995278682	 0.0225493453	-0.0342579574	-0.116766
C	 0.9916641919	-0.4443977704	-1.1841857805	-0.095062
O	 1.1212558666	-1.8737421323	-1.2161818822	-0.22092
C	 1.4620135126	-2.5186377397	-0.071258126	 0.406663
O	 1.5832733619	-3.7100332705	-0.0650107289	-0.314303
C	 1.6703587032	-1.6332490196	 1.1481545435	-0.458187
C	 0.6495158091	-0.506911716	 1.2898713041	 0.399772
O	 0.3157700538	-0.0752157601	 2.3643672783	-0.304256
H	 0.853367522	 2.0663020251	 0.0356590037	 0.124599
H	-0.644436452	 1.8800338161	-0.894110165	 0.123293
H	-0.6768867126	 1.8153085793	 0.8825697849	 0.153936
H	-0.8761040874	-0.4711821346	-0.1602172597	 0.130162
H	 0.5612780833	-0.175747185	-2.1506158472	 0.136697
H	 1.9869887211	 0.0167357854	-1.1210952505	 0.116331
H	 1.7039839481	-2.2463613865	 2.0477696768	 0.163147
H	 2.653197869	-1.1489210899	 1.0413299762	 0.162038
52.9458	105.2931	202.5216	228.477	264.5173	327.9679	394.6821	413.582	433.1712	539.8947	578.709	619.894	720.5607	736.5397	841.3981	906.9215	914.8188	967.0796	1052.236	1077.8682	1097.0429	1127.6951	1166.1577	1176.62	1246.8236	1266.0521	1276.3197	1308.0104	1345.6857	1402.1713	1418.8708	1428.9187	1494.6915	1501.6254	1514.1726	1825.4456	1866.5351	3002.0339	3014.2194	3019.9503	3044.2541	3109.9055	3116.0161	3141.999	3151.1344
CC1COC(=O)CC1=O	C[C@H]1COC(=O)CC1=O	
InChI=1S/C6H8O3/c1-4-3-9-6(8)2-5(4)7/h4H,2-3H2,1H3	InChI=1S/C6H8O3/c1-4-3-9-6(8)2-5(4)7/h4H,2-3H2,1H3/t4-/m0/s1
