21
gdb 106683	2.6651	1.25168	1.06721	1.7232	79.72	-0.2448	0.0762	0.321	1242.0548	0.180342	-424.187218	-424.177451	-424.176507	-424.221592	36.513	
C	-0.2861812414	 1.30114271	 0.0924997603	-0.257912
O	 0.2221922679	-0.0068271911	-0.1132409409	-0.28845
C	 0.8285365891	-0.5475261695	 1.000012332	 0.405272
C	 0.0429977501	-1.0906651592	 2.163368744	-0.392185
C	 0.9374579455	-2.022559042	 1.3637050501	 0.203388
C	 0.4344056065	-3.2639992665	 0.686583165	-0.492729
C	 2.3921034095	-1.7955680948	 1.8286220227	 0.116293
O	 3.3749880836	-2.5288073406	 1.1341498474	-0.435332
C	 2.2779835876	-0.2834456103	 1.4298571801	-0.345239
H	 0.5137056328	 2.013991209	 0.337625797	 0.11287
H	-0.7607673568	 1.6099163713	-0.8415758213	 0.127086
H	-1.0301988312	 1.3191626191	 0.9008222715	 0.112591
H	 0.2848048653	-0.8212855469	 3.190509167	 0.10009
H	-1.017103551	-1.2242578261	 1.9681707043	 0.114216
H	-0.5036728124	-3.0668766289	 0.1588340174	 0.125807
H	 1.1595164175	-3.6399095867	-0.0424186486	 0.112833
H	 0.2536466425	-4.0664359474	 1.4110246134	 0.122887
H	 2.5763162247	-1.9935327039	 2.8896194804	 0.083445
H	 3.2726988723	-2.3496667437	 0.1926223421	 0.279868
H	 2.9348352758	-0.0718820998	 0.5808885467	 0.101297
H	 2.4475780122	 0.4673194982	 2.2088767495	 0.093904
83.3352	112.657	146.1693	179.0408	186.4613	235.0817	281.73	328.5576	373.1431	421.3355	449.1795	481.3467	524.5886	594.9919	727.6135	759.6615	833.0814	869.4989	928.7358	963.4022	973.9721	1012.1451	1035.6061	1058.9869	1094.6153	1103.7695	1136.163	1175.589	1181.4277	1208.2609	1224.4322	1242.9545	1260.5793	1295.4806	1325.7322	1391.4264	1419.5477	1430.7076	1475.0617	1479.2413	1483.3995	1488.0741	1499.4467	1506.0777	1515.6525	2993.564	3029.2725	3039.	3048.0482	3057.8516	3088.7904	3091.2559	3099.2598	3106.7354	3121.2032	3191.357	3796.6567
COC12CC1(C)C(O)C2	CO[C@@]12C[C@]1(C)[C@@H](O)C2	
InChI=1S/C7H12O2/c1-6-4-7(6,9-2)3-5(6)8/h5,8H,3-4H2,1-2H3	InChI=1S/C7H12O2/c1-6-4-7(6,9-2)3-5(6)8/h5,8H,3-4H2,1-2H3/t5-,6+,7-/m0/s1
