15
gdb 125021	2.37344	1.86151	1.05037	5.9594	73.29	-0.2258	-0.0566	0.1692	1071.5846	0.11234	-453.968602	-453.960307	-453.959363	-454.001433	30.671	
C	 0.0039093711	 1.5355234184	-0.0224547882	-0.522977
C	 0.01837105	 0.0321191001	-0.0409139529	 0.175758
C	-1.1274854838	-0.7118415091	 0.0040759128	 0.121453
N	-2.398747389	-0.2420830313	 0.0427708634	-0.573297
C	-1.0393007897	-2.1822071195	-0.0134358018	 0.445383
O	-2.0122731516	-2.8998497593	 0.043725984	-0.365303
O	 0.1998123201	-2.7317710552	-0.0908329145	-0.256487
N	 1.3885686547	-1.9873533601	-0.1469340165	-0.115194
C	 1.2382075755	-0.7031159275	-0.1180137198	-0.003491
H	 1.0149389483	 1.9432564429	-0.0926438758	 0.139943
H	-0.5780354662	 1.9401974831	-0.8599504384	 0.141637
H	-0.4435476974	 1.9251089046	 0.9014803006	 0.135203
H	-2.587757722	 0.7150573094	 0.2821700738	 0.265615
H	-3.1150205195	-0.9341402362	 0.2058010278	 0.282656
H	 2.1842688196	-0.1684106802	-0.1622242345	 0.1291
98.21	126.5921	180.4987	263.8951	278.2165	283.7621	343.9228	479.2963	519.8663	535.6822	550.4986	566.8313	617.4758	675.8069	795.3266	856.0995	917.7004	938.9241	976.5755	1025.9063	1055.0637	1171.7548	1204.5621	1315.4893	1357.0163	1391.038	1430.3261	1482.1406	1497.8504	1583.9119	1628.2562	1692.3371	1795.6719	3014.5616	3061.988	3120.5408	3165.2988	3586.3314	3726.314
CC1=C(N)C(=O)ON=C1	Cc1c(N)c(=O)onc1	
InChI=1S/C5H6N2O2/c1-3-2-7-9-5(8)4(3)6/h2H,6H2,1H3	InChI=1S/C5H6N2O2/c1-3-2-7-9-5(8)4(3)6/h2H,6H2,1H3
