15
gdb 24454	3.54052	1.68794	1.18031	1.5381	66.64	-0.1861	0.0297	0.2157	977.9017	0.115229	-457.772896	-457.76634	-457.765396	-457.803811	26.029	
C	-0.0077030746	 1.3683898336	 0.0248314884	-0.106745
C	 1.4243869372	 1.9241201691	 0.022202535	-0.107901
O	 2.1491892288	 1.5465308382	 1.1920621589	-0.275879
C	 1.9284601196	 0.2193163039	 1.448335678	 0.196251
C	 0.9269537015	-0.4945753061	 0.8741672544	 0.323562
O	 0.93266732	-1.776281911	 1.281147872	-0.187043
C	 1.989238001	-1.8846659664	 2.1569789236	-0.015337
C	 2.6318491012	-0.6936973459	 2.2958841972	-0.316037
O	-0.0169918298	-0.0699292382	 0.0128175256	-0.265117
H	-0.5420319892	 1.7223368189	 0.9154139538	 0.126082
H	-0.5430209825	 1.6874762761	-0.8715770982	 0.127974
H	 1.9506697684	 1.5604239142	-0.8713506586	 0.119366
H	 1.3994313788	 3.0164140613	 0.003420292	 0.122966
H	 2.1408490356	-2.8645497072	 2.5739115792	 0.137768
H	 3.4911507541	-0.4895048505	 2.9140254988	 0.120089
122.1507	239.7184	340.7985	367.4203	424.3061	474.2942	539.1283	610.7075	643.5908	693.357	707.5257	725.5894	810.2756	877.5884	903.5545	924.4629	1038.4849	1065.4705	1074.1785	1115.5077	1155.2981	1181.5394	1271.3655	1276.8256	1298.1484	1349.5321	1382.7714	1399.256	1470.2624	1487.976	1509.1861	1546.3962	1708.0614	3013.7833	3035.4156	3108.7379	3121.6163	3264.144	3301.3926
C1COC2=C(OC=C2)O1	C1COc2c(occ2)O1	
InChI=1S/C6H6O3/c1-2-8-6-5(1)7-3-4-9-6/h1-2H,3-4H2	InChI=1S/C6H6O3/c1-2-8-6-5(1)7-3-4-9-6/h1-2H,3-4H2
