14
gdb 12166	4.10608	1.46933	1.16422	2.726	66.79	-0.2489	0.0196	0.2685	985.2762	0.105772	-378.667396	-378.659326	-378.658382	-378.699911	29.355	
O	 0.2977226867	 1.0825805191	 0.4282834802	-0.428933
C	 0.2072594468	-0.2382822171	-0.0112051175	 0.056638
C	-1.2465608261	-0.8338276346	-0.2036214251	-0.191575
N	-0.8101320736	-1.197849919	-1.5737786792	-0.322352
C	 0.3463356249	-0.4397941957	-1.5182056393	 0.337276
N	 1.1909249421	 0.0627919125	-2.3139870727	-0.556659
C	-1.679603869	-1.9314171137	 0.6390412861	 0.322565
C	-2.0363866983	-2.8304776021	 1.3523042439	-0.422065
H	 0.7366455809	 1.5764025107	-0.2761411131	 0.303071
H	 0.8314228623	-0.9076416165	 0.5908922863	 0.11609
H	-1.9738774001	-0.0141566676	-0.188892476	 0.119263
H	-1.4100008069	-1.3480351051	-2.3731167435	 0.247124
H	 0.9803722475	-0.1355383208	-3.2929157606	 0.216404
H	-2.3496348771	-3.6267950301	 1.9815360804	 0.203155
75.3102	139.8665	175.3031	220.3584	247.2869	351.3415	418.9421	449.4656	496.0762	566.535	631.2771	664.5108	702.549	747.1424	833.0996	878.4174	948.5888	987.4635	1052.396	1071.9637	1136.0946	1165.8495	1218.4491	1309.2321	1326.3404	1366.9361	1374.0594	1393.5782	1803.9725	2239.9096	3042.9633	3054.5235	3469.9948	3502.178	3591.0621	3775.533
OC1C(NC1=N)C#C	O[C@H]1[C@@H](N[C]1[NH])C#C	
InChI=1S/C5H6N2O/c1-2-3-4(8)5(6)7-3/h1,3-4,8H,(H2,6,7)	InChI=1S/C5H6N2O/c1-2-3-4(8)5(6)7-3/h1,3-4,8H,(H2,6,7)/t3-,4-/m0/s1
