15
gdb 124083	4.66835	1.06474	0.99165	2.5698	66.08	-0.2696	-0.0485	0.2211	1164.8365	0.113657	-453.87601	-453.868764	-453.86782	-453.909062	25.845	
C	-0.0365736124	 1.3728355534	-0.3237447571	-0.085217
O	 1.0987487548	 1.6779875834	 0.5095140006	-0.27039
C	 1.4182802043	 0.2796416128	 0.6470942694	-0.085211
C	 0.0643427317	-0.1394827783	 0.0130891714	-0.159272
C	-0.9529942152	-0.6375788134	 0.9768262688	 0.347685
N	-1.6418248328	-1.7310147897	 0.7786897954	-0.166637
O	-2.4643003105	-1.8625012839	 1.8626194295	-0.146767
N	-2.2867698893	-0.8387762209	 2.7492290693	-0.059557
C	-1.3671660289	-0.0799148365	 2.2248877315	-0.108179
H	-0.9444232626	 1.891431819	 0.0018575542	 0.116816
H	 0.1535778792	 1.6017562526	-1.3800132897	 0.112828
H	 2.2917611152	-0.0049026719	 0.0468186681	 0.112828
H	 1.5853433038	-0.0094708734	 1.6899989781	 0.116823
H	 0.1233363296	-0.8168763719	-0.8380747095	 0.112307
H	-1.026860927	 0.8152250387	 2.7224080401	 0.161944
58.4034	70.004	157.7672	216.838	377.8525	420.3882	637.9554	649.8675	738.0851	835.8038	862.9435	891.9667	909.5797	923.7648	947.1486	1005.8105	1028.2874	1039.9182	1040.7489	1053.0629	1092.4629	1159.5464	1171.1102	1209.6969	1228.1366	1307.2271	1339.0331	1373.393	1426.7821	1473.6186	1510.257	1537.1479	1615.4058	3014.1743	3024.0413	3074.5188	3074.7683	3124.1225	3268.2146
C1OCC1C1=NON=C1	C1OCC1c1nonc1	
InChI=1S/C5H6N2O2/c1-5(7-9-6-1)4-2-8-3-4/h1,4H,2-3H2	InChI=1S/C5H6N2O2/c1-5(7-9-6-1)4-2-8-3-4/h1,4H,2-3H2
