16
gdb 70943	3.52546	1.35925	1.10869	2.7642	70.59	-0.2407	-0.0401	0.2006	1081.2794	0.122135	-437.777066	-437.769184	-437.76824	-437.809571	29.622	
C	-0.0312738517	 1.4508729536	-0.1048600632	-0.533011
C	 0.0287140882	-0.0425877654	-0.0536999473	 0.294478
N	 0.6880344099	-0.9049916016	-1.0937441649	-0.397411
C	 0.1850097052	-1.9074974772	-0.1158469697	 0.225762
C	 0.2967117523	-3.381749718	-0.2371978521	 0.019442
O	 0.6925547684	-3.950119795	-1.2243566177	-0.250766
C	 0.5197647774	-0.9799521177	 1.1000846628	 0.022088
O	-0.7832134793	-1.1000664177	 1.7346402261	-0.324307
C	-1.0939955125	-1.0814277319	 0.3161831591	-0.0097
H	 0.9747372756	 1.8717807439	-0.1922971683	 0.142919
H	-0.6199910579	 1.7926853818	-0.9626434261	 0.129969
H	-0.4975741808	 1.8351511619	 0.8074699677	 0.142972
H	 0.1368607718	-0.9347361147	-1.9543635617	 0.219408
H	-0.0442386217	-3.9339649205	 0.6658065105	 0.094464
H	 1.4166624868	-0.9458267407	 1.7170183114	 0.115967
H	-2.1334488515	-1.1789875808	-0.0029701864	 0.107725
92.	138.8206	211.5768	219.9766	245.2276	356.64	386.8235	485.2743	562.871	679.129	701.3842	710.5661	789.8338	805.9749	843.595	882.4639	916.355	1001.6651	1017.599	1066.0593	1079.1613	1087.0439	1113.6899	1145.6118	1159.7359	1211.8904	1250.1233	1291.4852	1306.6576	1386.6891	1414.3725	1435.9216	1481.7183	1489.0134	1814.4266	2895.9503	3037.7489	3106.5459	3106.82	3118.9768	3138.3335	3425.1193
CC12NC3(C=O)C1OC23	C[C@@]12N[C@@]3(C=O)[C@@H]1O[C@@H]23	
InChI=1S/C6H7NO2/c1-5-3-6(2-8,7-5)4(5)9-3/h2-4,7H,1H3	InChI=1S/C6H7NO2/c1-5-3-6(2-8,7-5)4(5)9-3/h2-4,7H,1H3/t3-,4+,5-,6+
