17
gdb 80059	2.49505	2.03787	1.51952	1.6688	70.25	-0.2206	-0.0107	0.2099	912.3694	0.136545	-417.947806	-417.940371	-417.939426	-417.979166	29.683	
C	-0.003038868	 1.6081656242	-0.0536650997	-0.438644
C	 0.070465113	 0.0931428023	 0.028422295	-0.001735
N	 1.0656070038	-0.692028438	-0.8848586954	-0.201152
C	 2.2721858459	 0.1086610169	-0.8797148745	 0.011377
N	 2.9478988962	 0.1341565641	 0.1985806432	-0.188861
C	 2.2200774944	-0.7572769164	 1.0888230598	-0.098182
C	 1.3033254522	-1.6242606041	 0.2871427813	-0.092496
C	 0.6735038445	-0.6318349424	 1.2193542054	 0.337698
O	 0.0385196899	-0.8955065604	 2.4144396441	-0.457011
H	 0.9415871523	 2.0889068122	 0.2103034638	 0.137827
H	-0.2958974208	 1.9323717571	-1.0578363991	 0.129254
H	-0.7710405762	 1.9613642401	 0.6430318428	 0.124617
H	-0.9093920468	-0.3396627148	-0.1899951099	 0.104068
H	 2.5135734846	 0.7009685879	-1.7559756436	 0.124388
H	 2.731189829	-1.1281340642	 1.9682678172	 0.105608
H	 1.2581416514	-2.7016359999	 0.1896068555	 0.108452
H	 0.2719487047	-0.2074290445	 3.0470462241	 0.294792
182.1772	203.2717	228.5565	253.1967	310.7074	354.2344	454.5179	501.451	580.8809	619.4389	721.6772	750.1049	778.5724	835.2578	872.8727	894.3112	911.1394	955.6396	971.857	1011.7635	1021.4515	1043.9236	1086.0911	1108.537	1140.7408	1172.1559	1207.1117	1243.6471	1286.4581	1290.9291	1313.9753	1386.4896	1407.5221	1445.1393	1493.2936	1502.6071	1656.1635	3037.7705	3070.8378	3100.5673	3129.0495	3190.7774	3200.2051	3207.0704	3802.2497
CC1N2C=NC3C2C13O	C[C@H]1N2[CH][N][C@@H]3[C@H]2[C@]13O	
InChI=1S/C6H8N2O/c1-3-6(9)4-5(6)8(3)2-7-4/h2-5,9H,1H3	InChI=1S/C6H8N2O/c1-3-6(9)4-5(6)8(3)2-7-4/h2-5,9H,1H3/t3-,4-,5+,6+/m1/s1
