17
gdb 22951	3.74792	0.81727	0.69516	3.0542	74.21	-0.2378	-0.0239	0.2139	1542.0776	0.133906	-455.077444	-455.068142	-455.067198	-455.112947	32.56	
O	-0.1242042999	 1.3666533112	-0.0491666387	-0.387779
N	 0.0463540339	-0.0266524419	-0.0327932061	-0.232393
C	-1.0668335001	-0.6207984365	 0.0108940899	 0.407763
C	-2.5362785724	-0.2635174317	 0.007303877	-0.259745
N	-2.8361667484	-1.7098758131	-0.2173431221	-0.331068
C	-1.4062236963	-2.098166288	 0.0076699744	-0.086693
C	-0.7926216096	-2.9664921164	-1.0984788883	-0.262241
C	-1.4425430457	-4.3308800014	-1.1608716178	 0.146907
O	-0.8564365724	-5.3768805552	-1.0428268578	-0.237393
H	 0.7843183425	 1.6843341549	-0.093681878	 0.311557
H	-2.8831921972	 0.1490969275	 0.9640025421	 0.124349
H	-2.8748868261	 0.3971109575	-0.7977479892	 0.136561
H	-3.4758093799	-2.1014975283	 0.4642571482	 0.22752
H	-1.2255797916	-2.5636258337	 0.9874200347	 0.102219
H	-0.9624992453	-2.46194919	-2.0579400394	 0.123164
H	 0.2826109872	-3.0840478847	-0.9401960895	 0.13095
H	-2.5430835787	-4.3036325802	-1.3245934895	 0.086321
51.0888	61.951	97.4835	127.0289	210.1214	238.0033	316.6384	376.8544	425.5367	482.0573	518.4603	581.6895	691.6861	764.4298	834.2238	854.801	937.9671	976.3626	992.3628	1021.5273	1039.1099	1073.2545	1113.3752	1129.4028	1178.0092	1213.3029	1240.4266	1274.6333	1327.3908	1357.1049	1376.3715	1413.7477	1422.1803	1452.1749	1492.064	1804.4337	1830.8534	2885.3986	2997.857	3017.8129	3037.2463	3069.6197	3114.7787	3541.8807	3815.455
ON=C1CNC1CC=O	ON=C1CN[C@H]1CC=O	
InChI=1S/C5H8N2O2/c8-2-1-4-5(7-9)3-6-4/h2,4,6,9H,1,3H2	InChI=1S/C5H8N2O2/c8-2-1-4-5(7-9)3-6-4/h2,4,6,9H,1,3H2/t4-/m0/s1
