15
gdb 10244	2.67771	1.95271	1.20948	2.7901	66.61	-0.2625	-0.0269	0.2356	968.9898	0.118482	-396.011151	-396.002837	-396.001893	-396.044313	29.039	
C	 0.0491767555	 1.4347068406	-0.1754879918	-0.456252
C	-0.2435248288	-0.0418122983	-0.1168891666	 0.345574
N	-0.6923619547	-0.6840443543	 0.8835617682	-0.466993
N	 0.0734649689	-0.8207353501	-1.2747470725	-0.125934
C	-0.0772239524	-0.3851070693	-2.5964624884	 0.096534
N	-0.5966158439	 0.7300343866	-2.9079492437	-0.464987
C	 0.5253719718	-2.1413139036	-1.0807001066	 0.177155
O	 0.7764991727	-2.9034052495	-1.9797132362	-0.308987
H	 1.0379162335	 1.6218517893	-0.604344636	 0.141987
H	-0.6712754976	 1.942978408	-0.8176294385	 0.185218
H	 0.0083366653	 1.8490517594	 0.8343648698	 0.120283
H	-0.8079798806	-0.0610470186	 1.6820948606	 0.229972
H	 0.2903113908	-1.1462116023	-3.2858516946	 0.149461
H	-0.6071767579	 0.8323974591	-3.921215286	 0.238225
H	 0.6297233575	-2.3746233969	-0.0139996276	 0.138745
64.0128	127.2248	149.0467	183.6292	266.8406	287.7384	300.167	406.9201	462.7109	573.8695	601.4653	700.5935	816.3394	843.8947	892.0558	985.4161	1034.2481	1068.07	1079.024	1091.8911	1138.7446	1246.1834	1313.207	1379.3641	1412.0148	1420.0827	1436.6966	1461.291	1478.8046	1717.7625	1721.6259	1814.7904	3054.527	3072.8519	3127.0322	3131.4314	3152.206	3490.9741	3502.8271
CC(=N)N(C=N)C=O	CC(=N)N(C=N)C=O	
InChI=1S/C4H7N3O/c1-4(6)7(2-5)3-8/h2-3,5-6H,1H3	InChI=1S/C4H7N3O/c1-4(6)7(2-5)3-8/h2-3,5-6H,1H3
