14
gdb 24016	4.16431	1.25965	1.0497	3.3962	73.27	-0.237	-0.0124	0.2246	1078.871	0.103746	-395.734482	-395.727539	-395.726595	-395.766464	25.618	
N	-0.636525477	-1.2359975943	-0.111518985	-0.305448
C	-0.3432968713	-0.1201250459	-0.053495718	 0.301886
C	 0.0062201498	 1.2940626286	 0.0203353313	-0.131699
C	-0.1926607919	 2.0118088135	 1.4232384414	-0.396646
C	 1.3075174718	 2.2600796279	 1.3598001176	 0.295907
C	 2.5478867122	 2.7457585489	 1.6777174335	-0.215402
N	 3.4278458951	 2.3576940544	 0.6829896705	-0.25256
C	 2.7531192216	 1.6739087945	-0.2197706941	-0.021088
N	 1.4498326184	 1.5895609882	 0.1774020088	 0.001669
H	-0.4468064793	 1.8296367252	-0.81807625	 0.156039
H	-0.8390130366	 2.8901786565	 1.3759766722	 0.145236
H	-0.5394131311	 1.3427172764	 2.2126318376	 0.154068
H	 2.879923968	 3.3269203594	 2.5223877208	 0.119821
H	 3.1515612702	 1.2268227669	-1.1159970365	 0.148216
68.5463	139.7459	207.915	276.172	411.5898	502.5815	564.7582	652.6321	663.0638	734.3118	760.5945	787.3262	833.9129	860.8315	950.1651	999.2783	1030.2728	1088.252	1114.2327	1118.3549	1189.6515	1228.9995	1236.9838	1271.3996	1340.0583	1381.323	1389.6355	1464.0533	1490.9919	1574.581	2363.8815	3080.9675	3084.3372	3135.5757	3268.4746	3273.9102
N#CC1CC2=CN=CN12	N#C[C@H]1Cc2cncn12	
InChI=1S/C6H5N3/c7-2-5-1-6-3-8-4-9(5)6/h3-5H,1H2	InChI=1S/C6H5N3/c7-2-5-1-6-3-8-4-9(5)6/h3-5H,1H2/t5-/m1/s1
