19
gdb 114858	4.62769	1.00667	0.89733	2.2927	79.49	-0.2433	0.003	0.2464	1323.1301	0.159267	-422.975778	-422.967532	-422.966588	-423.008899	31.042	
C	 0.0376084582	 1.4137385829	-0.0176691316	-0.239503
O	-0.095538266	 0.0135157244	 0.0679887678	-0.237678
C	 0.6428988592	-0.570498633	 1.1234551842	 0.112264
C	 0.090404424	-2.0049306773	 1.3922442112	-0.288102
C	 1.3381449138	-2.7640947187	 1.864245009	 0.103538
O	 1.824013916	-3.9837592448	 1.1997387886	-0.307451
C	 3.1064586508	-3.3424803974	 0.909657825	-0.153856
C	 2.4617605366	-2.0178410888	 1.2270111248	 0.192583
C	 2.1102364124	-0.8339344891	 0.7452926961	-0.241868
H	 1.0735120543	 1.7248762228	-0.2207151489	 0.105649
H	-0.5944621398	 1.7489004509	-0.8435645357	 0.129384
H	-0.2925614067	 1.9100447003	 0.9084058856	 0.106612
H	 0.5474774396	 0.0667983404	 2.0193460064	 0.069901
H	-0.750080302	-2.017736593	 2.0903999417	 0.098508
H	-0.2396221074	-2.4066335876	 0.4297405306	 0.134114
H	 1.3671054546	-2.9138334733	 2.9513620855	 0.080464
H	 3.8828522835	-3.6857370916	 1.6060063193	 0.108195
H	 3.4390087154	-3.502168195	-0.1212434868	 0.122329
H	 2.6634066634	-0.1872203721	 0.0752684572	 0.104917
80.2204	109.3306	176.4437	215.4489	267.4244	315.7971	354.2087	459.6744	472.3829	593.737	658.4394	763.836	810.8249	869.4153	875.3667	906.3845	959.494	978.0194	997.5666	1020.535	1053.1314	1062.7952	1108.2283	1137.9499	1157.3282	1169.6773	1182.6213	1218.5225	1241.2167	1248.6807	1285.9778	1309.4257	1340.1149	1352.5172	1388.7329	1475.5313	1480.6706	1487.8403	1508.5831	1509.1039	1747.6834	2946.6734	2975.135	3010.7922	3018.4772	3020.8576	3065.4191	3076.1442	3114.7782	3122.5007	3208.375
COC1CC2OCC2=C1	CO[C@H]1C[C@H]2OC[C]2[CH]1	
InChI=1S/C7H10O2/c1-8-6-2-5-4-9-7(5)3-6/h2,6-7H,3-4H2,1H3	InChI=1S/C7H10O2/c1-8-6-2-5-4-9-7(5)3-6/h2,6-7H,3-4H2,1H3/t6-,7-/m1/s1
