21
gdb 82516	3.08802	1.34642	1.25548	1.214	81.09	-0.2358	0.0765	0.3123	1112.5914	0.183741	-387.061495	-387.05328	-387.052336	-387.093648	33.577	
C	-0.2761431189	 1.5553403897	-0.1032479334	-0.426692
C	 0.019234418	 0.0733758084	 0.0447861189	-0.003
C	 1.3092839274	-0.6106858716	-0.3456739895	-0.069536
C	 2.6324882375	 0.1630458848	-0.3690085371	-0.319224
C	 3.0254891502	 0.4544648205	 1.0941327242	 0.398617
O	 4.3515151866	 0.1896538403	 1.4557784666	-0.464247
C	 2.2518160371	 1.4556420708	 1.9095165947	-0.368497
C	 1.901049859	-0.026426097	 1.9734646314	-0.08331
C	 0.8349462746	-0.6524827901	 1.1032061901	-0.064185
H	 0.6139280065	 2.1559608532	-0.3021798164	 0.123184
H	-0.9489918806	 1.7048305216	-0.954534992	 0.112132
H	-0.7719850181	 1.9685070877	 0.781613444	 0.122149
H	-0.8482929018	-0.5248140997	-0.2289544368	 0.082887
H	 1.2467323187	-1.4848280114	-0.9853894106	 0.080346
H	 3.41701916	-0.4738913549	-0.787269895	 0.113174
H	 2.5932192961	 1.0688519382	-0.9865419466	 0.095979
H	 4.8711392716	 0.9824696577	 1.2851745032	 0.279366
H	 2.7780095896	 1.8316840083	 2.781906784	 0.107142
H	 1.5858256368	 2.1719825431	 1.4519313714	 0.112779
H	 2.12937664	-0.5316498638	 2.9048334874	 0.091324
H	 0.3826950399	-1.5526399656	 1.5057266115	 0.079611
133.8423	153.9834	235.2847	272.1673	287.5034	351.8404	386.5575	420.4087	463.1044	572.3823	619.6628	680.7311	686.6707	736.238	782.3275	837.5514	886.9122	898.5617	923.386	957.3966	974.6769	993.5104	1019.8947	1041.4215	1063.3767	1076.017	1087.6391	1105.3095	1132.114	1143.4155	1181.6248	1244.1964	1256.15	1271.0573	1290.6765	1335.1869	1353.2394	1375.7819	1397.291	1423.9512	1438.861	1479.2657	1492.3872	1507.8995	1517.4888	3033.2887	3035.2827	3087.63	3089.2049	3106.8352	3123.351	3142.3871	3151.3201	3161.4027	3181.0452	3255.9376	3796.5072
CC1C2CC3(O)CC3C12	C[C@H]1[C@H]2C[C@@]3(O)C[C@H]3[C@@H]12	
InChI=1S/C8H12O/c1-4-5-2-8(9)3-6(8)7(4)5/h4-7,9H,2-3H2,1H3	InChI=1S/C8H12O/c1-4-5-2-8(9)3-6(8)7(4)5/h4-7,9H,2-3H2,1H3/t4-,5+,6-,7-,8+/m0/s1
