19
gdb 57974	3.65295	0.79192	0.69568	2.0241	78.62	-0.2853	-0.0015	0.2838	1627.0261	0.157145	-419.225566	-419.21532	-419.214375	-419.261891	35.848	
C	 0.112843114	 1.5102666715	-0.1275359399	-0.381665
C	-0.1063247984	-0.0027793751	-0.0695993967	-0.046262
C	 0.6225661536	-0.642232656	 1.1298827696	-0.391415
C	-1.5767704672	-0.3599130769	-0.0252949416	 0.43372
N	-2.4871663164	 0.4739795788	 0.2484305105	-0.52273
O	-1.7223422487	-1.6989953231	-0.3065750682	-0.240587
C	-3.0329972344	-2.2307088515	-0.2627984993	-0.237132
C	-2.9593642178	-3.660103424	-0.5670573059	 0.276962
N	-2.9396657082	-4.7897964354	-0.802453233	-0.282679
H	 1.1830391448	 1.7279020296	-0.1964090909	 0.108518
H	-0.3882060699	 1.9532198823	-0.9916784432	 0.122714
H	-0.2848433386	 1.9953562913	 0.7673258667	 0.134736
H	 0.2914683857	-0.4637581711	-0.9826670041	 0.1015
H	 0.4748434953	-1.7244845125	 1.1551348547	 0.130096
H	 1.6962486513	-0.4438380827	 1.0648451359	 0.121152
H	 0.2571055901	-0.2198384883	 2.0718584977	 0.125301
H	-3.4286072036	 0.087212497	 0.2590103458	 0.223954
H	-3.484074227	-2.0984622337	 0.7303033419	 0.161932
H	-3.6860923747	-1.7414342901	-0.9985941004	 0.161883
34.9445	71.5756	106.2896	123.5511	214.682	232.1507	243.1425	291.0988	330.6979	337.2298	387.9584	438.6728	549.8498	625.8944	701.2309	818.8804	849.6484	916.4768	936.0666	969.3778	972.072	1008.315	1040.7289	1116.0898	1125.0205	1137.8513	1193.9443	1252.6386	1257.3694	1329.6716	1373.9309	1395.6946	1409.6842	1422.6707	1485.3176	1487.8784	1496.5082	1499.6435	1513.0654	1738.6675	2378.3407	3007.8897	3029.6542	3039.9956	3044.6881	3047.4039	3109.6455	3118.6497	3125.9716	3129.2235	3511.2234
CC(C)C(=N)OCC#N	CC(C)[C]([NH])OCC#N	
InChI=1S/C6H10N2O/c1-5(2)6(8)9-4-3-7/h5,8H,4H2,1-2H3	InChI=1S/C6H10N2O/c1-5(2)6(8)9-4-3-7/h5,8H,4H2,1-2H3
