18
gdb 23549	2.15758	1.66098	1.03886	0.8249	76.87	-0.2348	0.0073	0.2421	1159.5922	0.146254	-438.996399	-438.98755	-438.986606	-439.030112	32.796	
C	-0.1838432458	 1.345724747	 0.0288088894	-0.245459
O	 0.2551756447	 0.0017593902	 0.1258938824	-0.245591
C	 0.6682908605	-0.5680434345	-1.0809973155	 0.034122
C	 1.3300178948	-1.9386116233	-0.9202141933	-0.080868
C	 0.3422786539	-2.9259341875	-0.3903447616	-0.278117
C	 0.2832106077	-2.5814590801	-1.8659390974	-0.145687
C	-0.3502551285	-1.2521760341	-2.0360798612	 0.406809
N	-1.2387731902	-0.8901553579	-2.8634797894	-0.270658
O	-1.484348361	 0.5003096292	-2.7849914328	-0.394368
H	 0.6122816719	 1.9959760554	-0.3654307887	 0.101872
H	-1.0621312527	 1.4408126549	-0.6187439474	 0.137688
H	-0.4321054336	 1.668075583	 1.0426811706	 0.121575
H	 1.2859602411	 0.134478617	-1.6618122701	 0.089715
H	 2.3982296046	-2.1082127236	-0.9024959369	 0.100691
H	 0.7401265425	-3.9130429708	-0.1783970234	 0.120049
H	-0.4458869458	-2.6007295747	 0.279836792	 0.13537
H	 0.4223403628	-3.3233388904	-2.6406399806	 0.107396
H	-2.162494537	 0.6211536103	-3.4578925359	 0.305462
69.6841	122.2744	172.9431	190.3489	212.6939	286.2892	307.6027	394.2997	417.0011	471.824	579.3891	615.3986	692.4363	778.1792	836.9812	858.6844	911.6927	962.0583	985.3868	1001.6457	1037.3545	1038.4432	1063.5889	1092.6954	1153.4014	1161.8761	1186.2846	1189.1194	1231.673	1236.4392	1299.9335	1340.2215	1372.9409	1408.9377	1481.6567	1487.67	1492.5052	1515.3382	1775.5534	2986.1335	2990.9891	3073.0293	3124.1116	3133.5308	3203.1096	3210.7269	3222.6828	3821.2462
COC1C2CC2C1=NO	CO[C@H]1[C@H]2C[C@H]2C1=NO	
InChI=1S/C6H9NO2/c1-9-6-4-2-3(4)5(6)7-8/h3-4,6,8H,2H2,1H3	InChI=1S/C6H9NO2/c1-9-6-4-2-3(4)5(6)7-8/h3-4,6,8H,2H2,1H3/t3-,4+,6+/m1/s1
