17
gdb 94346	2.60238	1.2576	1.12356	4.5708	74.08	-0.2374	0.0231	0.2604	1146.7632	0.135937	-417.975417	-417.966815	-417.965871	-418.009298	31.856	
O	 0.2036883476	 1.2803247806	-0.3111001237	-0.422264
C	 0.0733831488	-0.0767851582	 0.0158741106	 0.052505
C	 0.1364833079	-0.4740570527	 1.5209724574	-0.208635
N	-1.3193122833	-0.7940755402	 1.496351671	-0.369715
C	-1.3540508564	-0.6497704463	 0.046606044	 0.323878
C	-2.5122906987	-0.2334613259	-0.7856595069	-0.33674
C	-1.9493406006	-1.6500829243	-0.9376351212	-0.26759
C	-1.2101783177	-2.0221346929	-2.1077856379	 0.296052
N	-0.5837218814	-2.3123126294	-3.0372391854	-0.342716
H	-0.4119550187	 1.7840897692	 0.2335390775	 0.289705
H	 0.7661193564	-0.6119362562	-0.6357429465	 0.123873
H	 0.7950778461	-1.3258707529	 1.7231108199	 0.112036
H	 0.3913648565	 0.3437919845	 2.2030585782	 0.109196
H	-1.5662828468	-1.7102788815	 1.852815681	 0.226939
H	-3.4875502739	-0.1574474013	-0.3170822303	 0.132822
H	-2.3219686287	 0.4675537405	-1.5911048813	 0.15017
H	-2.5473928769	-2.4493741029	-0.5095534163	 0.130482
48.5776	97.58	137.0424	213.803	280.751	337.6467	355.1444	423.6914	459.1873	543.232	589.935	610.7183	688.6924	802.4174	820.6753	870.3397	914.1648	938.0536	965.3635	988.5558	1042.0829	1066.9732	1070.7151	1117.8802	1128.7452	1166.176	1212.3862	1236.8764	1281.1673	1307.1021	1333.9601	1367.4961	1402.2063	1443.8112	1471.4521	1512.4686	2345.621	3031.9348	3080.1355	3107.6537	3135.2739	3154.4356	3231.1212	3537.5145	3798.8084
OC1CNC11CC1C#N	O[C@H]1CN[C@]21C[C@H]2C#N	
InChI=1S/C6H8N2O/c7-2-4-1-6(4)5(9)3-8-6/h4-5,8-9H,1,3H2	InChI=1S/C6H8N2O/c7-2-4-1-6(4)5(9)3-8-6/h4-5,8-9H,1,3H2/t4-,5-,6+/m0/s1
