17
gdb 127479	2.40101	1.61596	0.97803	1.7172	73.59	-0.1899	0.0466	0.2365	1170.4562	0.136698	-451.332846	-451.323172	-451.322228	-451.367025	34.833	
C	 0.028583576	 1.4001067717	-0.0852358805	-0.330717
N	 0.0858463119	-0.0359111526	 0.0105388653	-0.010664
N	-0.0065939208	-0.804009145	-1.1199073934	-0.368597
C	 0.0374033038	-2.0569569209	-0.6824070331	 0.296203
N	 0.0660993165	-3.1531117143	-1.5503042661	-0.602339
C	 0.1317490748	-2.1100736122	 0.726255606	 0.063875
O	 0.1470280538	-3.2116099814	 1.5539053424	-0.46317
C	 0.1467242153	-0.7894185633	 1.1369119675	 0.316572
N	 0.2876751552	-0.2409668794	 2.4165321754	-0.616399
H	 0.5732248328	 1.8364451199	 0.75598788	 0.144132
H	 0.5022236127	 1.7005869544	-1.021241296	 0.151815
H	-1.0025870317	 1.7776151302	-0.079234531	 0.124593
H	-0.1721119471	-2.8717923881	-2.4939222536	 0.24802
H	-0.5535875612	-3.8947778515	-1.2458925976	 0.244686
H	 0.9381421912	-3.7269822699	 1.3586729356	 0.297923
H	 0.4016498547	-0.9906188951	 3.0899237637	 0.255352
H	-0.509518538	 0.3205884475	 2.6984569753	 0.248714
106.4919	124.6842	131.1814	182.4881	224.2528	246.2345	271.09	289.7482	319.8811	365.0601	378.3557	580.4409	610.5394	626.2407	639.0062	702.6764	752.987	814.3073	832.5747	933.436	1039.4601	1122.9767	1145.759	1154.1241	1241.2367	1260.1474	1284.2838	1363.0497	1436.5867	1467.1978	1492.1186	1508.2649	1560.3246	1580.0054	1630.7394	1644.1203	1679.0583	3013.1737	3095.8935	3145.0511	3502.6122	3521.551	3590.4805	3616.4175	3777.0905
CN1N=C(N)C(O)=C1N	Cn1nc(N)c(O)c1N	
InChI=1S/C4H8N4O/c1-8-4(6)2(9)3(5)7-8/h9H,6H2,1H3,(H2,5,7)	InChI=1S/C4H8N4O/c1-8-4(6)2(9)3(5)7-8/h9H,6H2,1H3,(H2,5,7)
