19
gdb 114494	2.7206	1.33035	1.06637	1.8026	75.68	-0.2463	-0.0293	0.217	1190.7166	0.157967	-423.016237	-423.00766	-423.006716	-423.049984	32.039	
C	-0.0898164895	 1.4844234474	-0.2997192879	-0.384177
C	 0.0064547636	-0.0274932303	-0.0712984609	-0.195438
C	-1.353806446	-0.6517379433	 0.177391566	 0.146319
O	-2.2649318294	-0.5426377733	-0.9514706825	-0.311429
C	-2.5838285331	-1.9450944178	-0.9033280291	 0.117537
C	-1.7633678468	-2.7714867757	-1.922029354	-0.363977
C	-0.6857821073	-2.947246408	-0.8285091319	 0.413438
O	 0.3714587584	-3.5048413632	-0.787915773	-0.299869
C	-1.5276590511	-2.1948959075	 0.218209372	-0.251976
H	 0.8962331416	 1.9156680504	-0.4939972283	 0.116397
H	-0.7337090968	 1.702702545	-1.156408146	 0.137587
H	-0.5114565492	 1.9915824332	 0.5751919665	 0.114723
H	 0.4767176494	-0.5095724463	-0.9354257796	 0.110148
H	 0.6442532866	-0.2450302568	 0.7952244692	 0.107474
H	-1.8190960621	-0.1920097643	 1.0614478394	 0.08322
H	-3.6534306461	-2.139394074	-0.8097550666	 0.088276
H	-2.2199767523	-3.7343121553	-2.1798568431	 0.133122
H	-1.4668787477	-2.255343098	-2.8380055063	 0.138899
H	-1.6916646321	-2.6704160722	 1.1841317062	 0.099725
75.8812	92.6316	107.1842	198.6126	242.9658	361.0891	394.5228	420.9341	455.0066	548.906	612.8777	700.1549	776.1398	803.0888	841.9934	888.2878	933.8006	952.6363	970.0408	985.6336	1017.3639	1042.4953	1080.342	1103.67	1118.3403	1149.7482	1174.2125	1201.495	1217.4288	1248.7472	1281.9305	1308.5938	1317.1482	1356.4797	1405.8491	1412.6532	1415.7327	1471.8603	1497.2321	1508.0852	1889.0301	2992.7976	3030.5758	3037.4512	3048.9827	3072.5422	3099.5654	3106.2952	3119.9943	3120.615	3129.749
CCC1OC2CC(=O)C12	CC[C@H]1O[C@H]2CC(=O)[C@@H]12	
InChI=1S/C7H10O2/c1-2-5-7-4(8)3-6(7)9-5/h5-7H,2-3H2,1H3	InChI=1S/C7H10O2/c1-2-5-7-4(8)3-6(7)9-5/h5-7H,2-3H2,1H3/t5-,6+,7+/m1/s1
