16
gdb 32714	6.63532	0.77436	0.69652	2.7099	84.77	-0.1965	-0.0209	0.1755	1570.7273	0.123857	-437.909319	-437.900784	-437.89984	-437.943802	29.896	
C	-0.0132040487	 1.3524033018	 0.2700393461	-0.250149
O	-0.0439285375	 0.0180942997	-0.2262236696	-0.187213
C	-1.1863438257	-0.6530784081	-0.0169867966	 0.107224
N	-1.2903835927	-1.848044193	-0.4304272537	-0.337167
C	-2.4357365703	-2.5653333284	-0.2377082067	 0.440352
C	-2.7392267093	-3.8462168822	-0.6026399581	-0.269851
C	-4.0743535073	-4.0947712358	-0.1538956631	-0.169582
C	-4.490479863	-2.9523148452	 0.4512164645	-0.021928
O	-3.5119207592	-2.0058066039	 0.413799413	-0.188684
H	 0.97122494	 1.7488649199	 0.0203628008	 0.149572
H	-0.7829875739	 1.9725527089	-0.2043464702	 0.13192
H	-0.1467976106	 1.3768082733	 1.3580432949	 0.13192
H	-1.9685748766	-0.0988317966	 0.5128454795	 0.108982
H	-2.077657375	-4.5158426183	-1.1273394609	 0.113939
H	-4.6452444511	-5.002774804	-0.2677692204	 0.110483
H	-5.4067695391	-2.6585212181	 0.9362802807	 0.130184
42.1178	84.6703	115.2814	159.6669	189.2292	326.1946	372.639	411.657	536.1533	610.1946	693.0565	732.191	787.9477	810.3062	852.5512	896.73	943.4857	973.1712	1031.6375	1057.2934	1106.7233	1163.7799	1176.4254	1181.0571	1226.3391	1262.8241	1293.3612	1400.0749	1411.5443	1481.8896	1494.0328	1499.3963	1539.2735	1641.2278	1733.6839	3017.0003	3067.981	3082.7922	3149.7055	3254.5591	3272.7911	3284.1138
COC=NC1=CC=CO1	COC=Nc1ccco1	
InChI=1S/C6H7NO2/c1-8-5-7-6-3-2-4-9-6/h2-5H,1H3	InChI=1S/C6H7NO2/c1-8-5-7-6-3-2-4-9-6/h2-5H,1H3
