22
gdb 9281	5.28092	0.73496	0.68266	2.8927	80.25	-0.247	-0.0177	0.2293	1681.561	0.197503	-350.227528	-350.217169	-350.216225	-350.264017	36.013	
C	-0.0878149872	 1.5558949579	 0.1423349156	-0.392533
C	 0.0138341386	 0.0334496951	 0.0024398557	-0.169165
C	 0.7722388343	-0.454791519	-1.2478864941	 0.047173
C	 2.2466657096	-0.0275391412	-1.226977187	-0.393166
C	 0.616887587	-1.9825540584	-1.3845447548	-0.193448
C	 1.1322598207	-2.566890594	-2.7128758557	-0.284941
C	 0.958602792	-4.0666053172	-2.7595993745	 0.161634
O	 0.3388599291	-4.6693514733	-3.5976708886	-0.239259
H	 0.8914883322	 2.0241340916	 0.2784855308	 0.119014
H	-0.5508245165	 2.0037777849	-0.7442987319	 0.114664
H	-0.7012070296	 1.825904929	 1.0075787959	 0.114394
H	 0.4937343876	-0.3865121262	 0.8975474683	 0.092847
H	-0.9999986811	-0.3859154372	-0.021253909	 0.093901
H	 0.2953615896	 0.0068777817	-2.1256741931	 0.072908
H	 2.7751168729	-0.334256904	-2.1343870276	 0.114819
H	 2.3484143064	 1.0583035134	-1.1511443161	 0.119409
H	 2.7678154184	-0.471949194	-0.3698865147	 0.111796
H	 1.1316819499	-2.4732424429	-0.5462183742	 0.098017
H	-0.4451773379	-2.2384240339	-1.2828739559	 0.106313
H	 0.6148640178	-2.1283055065	-3.5715809758	 0.119441
H	 2.2065274589	-2.3629892985	-2.8185608207	 0.118769
H	 1.4593996972	-4.6082271873	-1.9212875925	 0.067413
50.8055	52.6819	80.8041	101.0834	155.9398	214.6264	256.4096	288.7405	291.0802	367.26	421.2738	483.4721	525.9767	760.1707	773.2392	822.4458	856.7464	912.9555	969.4009	979.8394	1010.5083	1033.8873	1053.3177	1067.6479	1154.6416	1160.8672	1181.5382	1220.9612	1260.2491	1297.4176	1317.3067	1323.0699	1376.6322	1382.4012	1385.0481	1412.1837	1415.3565	1430.3338	1463.3076	1480.9248	1492.7438	1497.5147	1498.8487	1508.0539	1515.4937	1835.9073	2843.7391	2990.243	3006.3804	3013.4416	3023.1198	3030.3912	3033.9608	3043.8087	3054.03	3096.102	3097.6558	3099.0181	3106.1928	3114.5331
CCC(C)CCC=O	CC[C@@H](C)CCC=O	
InChI=1S/C7H14O/c1-3-7(2)5-4-6-8/h6-7H,3-5H2,1-2H3	InChI=1S/C7H14O/c1-3-7(2)5-4-6-8/h6-7H,3-5H2,1-2H3/t7-/m1/s1
