18
gdb 126761	2.58373	1.35243	0.949	1.8336	74.94	-0.2288	0.0352	0.2639	1264.5495	0.148126	-435.315188	-435.305998	-435.305053	-435.349926	32.886	
C	-0.2492824707	 1.5151049906	-0.1174302839	-0.375558
C	 0.1209689079	 0.0377270023	 0.0119371319	-0.150601
N	 0.8077424248	-0.4675746992	-1.163122844	-0.022387
N	 0.1574362132	-0.6342653479	-2.3617537035	-0.314894
C	 1.1155149479	-1.075487971	-3.1567254576	 0.352269
C	 0.8759522287	-1.4094680508	-4.5897858897	-0.479744
N	 2.3446125817	-1.2052007685	-2.5588492981	-0.418057
C	 2.0952063592	-0.8132335708	-1.3293935886	 0.442353
O	 2.9669201031	-0.7439644962	-0.3140088376	-0.426794
H	 0.6460343063	 2.1347293626	-0.2231424598	 0.127291
H	-0.8836720087	 1.6702644289	-0.9933178284	 0.148298
H	-0.7944607121	 1.8444936593	 0.772112129	 0.119993
H	 0.7859702019	-0.1301382941	 0.8626716248	 0.137321
H	-0.7763530187	-0.5710015603	 0.1597993782	 0.131586
H	 1.5162366756	-0.8058426479	-5.2410558514	 0.135814
H	 1.1109999606	-2.4601293521	-4.788435085	 0.136007
H	-0.1682554759	-1.2244677826	-4.847125052	 0.137855
H	 3.8140095552	-1.0525358821	-0.6594880345	 0.319248
37.3876	102.2494	123.5498	201.7262	219.6453	280.1558	295.092	328.3401	396.9028	436.4386	535.7139	621.6462	662.7441	697.892	741.3434	790.7681	838.8345	980.6206	1006.0884	1047.2803	1068.1885	1081.2664	1107.1799	1173.9931	1238.785	1303.3655	1343.6137	1380.6722	1396.1993	1409.4047	1419.9134	1476.9359	1480.4608	1480.6263	1488.8737	1506.8669	1531.7888	1594.9638	1625.4169	3043.9457	3046.0481	3060.2618	3098.7136	3109.1654	3120.2182	3137.7236	3143.8515	3806.8479
CCN1N=C(C)N=C1O	CCn1nc(C)nc1O	
InChI=1S/C5H9N3O/c1-3-8-5(9)6-4(2)7-8/h3H2,1-2H3,(H,6,7,9)	InChI=1S/C5H9N3O/c1-3-8-5(9)6-4(2)7-8/h3H2,1-2H3,(H,6,7,9)
