21
gdb 103671	3.8558	0.87443	0.83072	1.8692	85.79	-0.2496	0.0499	0.2994	1476.91	0.180044	-387.052822	-387.042911	-387.041967	-387.08732	37.875	
C	 0.0009861641	 1.6235841348	 0.0154787921	-0.411229
C	-0.0251311406	 0.0960415671	 0.1367326434	-0.219935
C	-1.4262933576	-0.5183623516	 0.0275102115	 0.41608
O	-2.288285001	-0.0383386727	 1.0415020241	-0.485479
C	-2.0079984314	-0.5292778935	-1.4227438704	-0.295877
C	-1.5555799255	-2.0195361531	-1.5571017416	-0.160842
C	-1.4143044013	-2.0651443651	-0.001131797	-0.275257
C	-2.4518291201	-2.9581275398	-2.1981447574	 0.308903
C	-3.2115420886	-3.7318944314	-2.7189500592	-0.446748
H	 1.0269702052	 2.0004210405	 0.0547159761	 0.122982
H	-0.4395755245	 1.9639869753	-0.9280458249	 0.121324
H	-0.5437455033	 2.1029840637	 0.8367643696	 0.113376
H	 0.6156875127	-0.3420551886	-0.6385752362	 0.098878
H	 0.3995184427	-0.2041539839	 1.1023768015	 0.105209
H	-2.3442232913	 0.9199460871	 0.9647157677	 0.275903
H	-3.0964179218	-0.4511901634	-1.3951693375	 0.116444
H	-1.6060102364	 0.1769366377	-2.1533108843	 0.098291
H	-0.5691543792	-2.0730028542	-2.0289490792	 0.100596
H	-0.5378323747	-2.5738916504	 0.4068399647	 0.101819
H	-2.3185596798	-2.4567598028	 0.4674186428	 0.12383
H	-3.8791780776	-4.4160847356	-3.1805970956	 0.191731
68.2291	105.5324	142.4339	208.9383	224.7431	254.3549	284.2517	333.7941	361.4046	423.1878	452.6912	517.3772	545.2517	593.3681	619.4372	621.336	717.3456	781.5935	836.0026	855.1754	923.5946	953.7061	1000.0269	1009.9732	1022.5285	1046.3867	1071.8365	1113.3735	1143.6978	1182.2179	1225.9535	1249.1694	1264.1086	1281.1758	1319.9021	1337.9311	1357.7892	1391.8808	1412.7845	1464.2692	1476.4744	1490.8426	1501.673	1513.4919	2233.5527	3025.0823	3032.3402	3049.8368	3061.4897	3064.525	3071.1602	3096.9119	3107.9096	3131.4203	3137.978	3505.5078	3811.0791
CCC1(O)CC(C1)C#C	CC[C@@]1(O)C[C@@H](C1)C#C	
InChI=1S/C8H12O/c1-3-7-5-8(9,4-2)6-7/h1,7,9H,4-6H2,2H3	InChI=1S/C8H12O/c1-3-7-5-8(9,4-2)6-7/h1,7,9H,4-6H2,2H3/t7-,8+
