14
gdb 127710	3.21109	1.52016	1.04335	8.6373	68.82	-0.2358	-0.065	0.1708	1066.0363	0.101193	-466.185945	-466.177837	-466.176893	-466.219211	29.425	
C	-0.1098861885	 1.4694996928	-0.0193071313	-0.347339
N	-0.0284901156	 0.0224545179	 0.0595287638	-0.077819
N	 0.1156158465	-0.6204488633	-1.1624350383	-0.042882
N	 0.1565899657	-1.8637004244	-1.1977637284	-0.203582
C	 0.0122163688	-2.6590416717	 0.0258402495	 0.4093
O	-0.1193590648	-3.848499595	-0.0986171736	-0.331133
N	 0.0654127974	-1.9977011596	 1.234968102	-0.382595
C	 0.0235426042	-0.6993655297	 1.2184464251	 0.515984
N	-0.015850028	-0.0102356269	 2.395476885	-0.567873
H	 0.7880935783	 1.9489245072	 0.3887478184	 0.142422
H	-0.1896946138	 1.7233546803	-1.0763950858	 0.177988
H	-0.9926118683	 1.8344563782	 0.5134383069	 0.157149
H	 0.1572497566	-0.5895679449	 3.2041081009	 0.281789
H	 0.3363664015	 0.931631839	 2.4386518858	 0.268592
38.524	169.7212	181.4031	200.4306	321.3165	367.53	381.1858	455.3511	515.5698	538.6227	569.6699	590.3442	700.1559	743.0414	796.3552	819.4789	898.3732	944.3833	1106.4208	1151.6028	1208.9724	1239.302	1297.0947	1429.8644	1481.3339	1489.3891	1506.8589	1564.9488	1628.1896	1672.9785	1832.6743	3027.0564	3098.6438	3158.6837	3584.4283	3708.5267
CN1N=NC(=O)N=C1N	Cn1nnc(=O)nc1N	
InChI=1S/C3H5N5O/c1-8-2(4)5-3(9)6-7-8/h1H3,(H2,4,5,9)	InChI=1S/C3H5N5O/c1-8-2(4)5-3(9)6-7-8/h1H3,(H2,4,5,9)
