19
gdb 110525	2.78528	1.33218	1.14028	3.1835	74.82	-0.2245	0.0725	0.297	1147.5542	0.158453	-422.950976	-422.94254	-422.941596	-422.984	32.19	
C	 0.0135177379	 1.6084363138	-0.1836042377	-0.534933
C	 0.0183450026	 0.124772879	-0.0153993008	 0.290334
C	 0.0810445957	-1.0318461725	-0.9500274176	 0.021309
O	 1.1789795303	-1.6849377255	-0.3168877663	-0.295523
C	 0.8431403422	-0.9066570915	 0.8657153733	 0.023398
C	-0.4924408216	-1.537277148	 1.3483644741	 0.007489
C	-1.0353814924	-0.9219718498	 2.6237812955	-0.102162
O	-0.1659271057	-1.2980967245	 3.6847802862	-0.423367
C	-1.0777960349	-0.9436807698	 0.0670235973	-0.187207
H	 1.0038573953	 1.9812569467	-0.4683328796	 0.129799
H	-0.6912558549	 1.9019121694	-0.9694451939	 0.125033
H	-0.2872840515	 2.1223279833	 0.7364670908	 0.122903
H	-0.0420446148	-1.1174021154	-2.0221957542	 0.105274
H	 1.6817868705	-0.7270524744	 1.5340066975	 0.094537
H	-0.4628229449	-2.6286890199	 1.4379502512	 0.079893
H	-1.0885663951	 0.1740648892	 2.5200130441	 0.083979
H	-2.0607681157	-1.2823062077	 2.8028820502	 0.087787
H	-0.5279102402	-0.9566811347	 4.5074993772	 0.287016
H	-2.1147604629	-0.8674119376	-0.2389869275	 0.084441
90.522	144.3514	185.3437	205.0051	252.1683	273.0667	308.8836	418.8718	516.618	567.9428	607.3994	759.2606	785.4691	809.9616	855.5854	888.3492	911.3051	950.2453	984.677	1004.3776	1013.818	1027.1686	1068.5203	1091.8246	1104.155	1125.3094	1154.4209	1171.9908	1201.0005	1221.1375	1234.1486	1251.6376	1284.9376	1297.6115	1370.19	1411.4013	1455.5972	1465.2497	1483.0289	1497.3477	1518.9335	2965.2491	2992.2367	3021.7972	3055.5441	3082.8221	3091.8777	3156.6033	3183.0873	3203.1961	3831.5351
CC12C3OC1C(CO)C23	C[C@@]12[C@H]3O[C@@H]1[C@@H](CO)[C@@H]23	
InChI=1S/C7H10O2/c1-7-4-3(2-8)5(7)9-6(4)7/h3-6,8H,2H2,1H3	InChI=1S/C7H10O2/c1-7-4-3(2-8)5(7)9-6(4)7/h3-6,8H,2H2,1H3/t3-,4+,5+,6-,7-/m0/s1
