22
gdb 58901	2.91933	1.18362	1.14021	2.2962	80.98	-0.2378	0.0717	0.3095	1228.7161	0.195278	-404.343641	-404.334537	-404.333593	-404.377322	35.297	
C	 0.0844457231	 1.4196700416	-0.3013899043	-0.422126
C	-0.0051903007	-0.0269051931	 0.1838803108	 0.054526
O	 0.6160968829	-0.1988608475	 1.4577986302	-0.433691
C	-1.4323348424	-0.5479528917	 0.1952411996	 0.355193
C	-2.440492392	 0.0038358115	 1.1990516574	-0.297221
C	-3.6179585389	-0.9998053789	 1.181080778	-0.241316
C	-2.9913639958	-2.3531789368	 0.7676056704	-0.228056
C	-1.7778273437	-1.9727909976	-0.063464211	-0.058646
N	-1.9455593365	-0.9607565826	-1.1230446072	-0.385092
H	 1.127742592	 1.7451794602	-0.3392390312	 0.120767
H	-0.3511964757	 1.5133507898	-1.3000687182	 0.135319
H	-0.4607016562	 2.095942283	 0.3695371857	 0.103773
H	 0.5643690208	-0.6623949804	-0.502759445	 0.092554
H	 0.3570956654	 0.5421195888	 2.0149981491	 0.277989
H	-1.9677263691	 0.0207997116	 2.1885410641	 0.100238
H	-2.7642772306	 1.0263494754	 0.9743691802	 0.097463
H	-4.1320995697	-1.0545253422	 2.1436363884	 0.104521
H	-4.3717535467	-0.6883832035	 0.4505079357	 0.103461
H	-2.6528208463	-2.9122144691	 1.6482718337	 0.109043
H	-3.6983410885	-2.9962081172	 0.2317021127	 0.100824
H	-1.0189594754	-2.7230622692	-0.2671824054	 0.088783
H	-2.9236887859	-0.7081195622	-1.2432843138	 0.221694
59.6162	138.0993	200.7227	231.0191	249.4111	263.4368	282.942	319.6031	421.1179	485.2955	517.6236	602.2217	653.4505	698.8683	807.7352	862.5249	870.6382	897.8496	904.2894	936.8559	961.3477	1010.3743	1023.5614	1040.1102	1046.0327	1088.3583	1102.6813	1125.168	1160.4286	1184.5107	1213.7868	1263.3329	1278.1126	1291.3004	1304.6408	1318.9616	1336.8979	1345.4113	1380.0541	1396.9249	1407.462	1444.321	1486.4019	1494.0492	1495.6156	1496.9238	1513.5747	3023.3547	3029.5973	3033.4349	3047.0281	3055.1716	3068.4517	3072.5786	3098.1038	3101.4176	3123.7934	3148.708	3487.6839	3813.9813
CC(O)C12CCCC1N2	C[C@@H](O)[C@]12CCC[C@H]1N2	
InChI=1S/C7H13NO/c1-5(9)7-4-2-3-6(7)8-7/h5-6,8-9H,2-4H2,1H3	InChI=1S/C7H13NO/c1-5(9)7-4-2-3-6(7)8-7/h5-6,8-9H,2-4H2,1H3/t5-,6-,7-/m1/s1
