18
gdb 49621	4.27661	0.96709	0.89035	3.6713	79.13	-0.2414	-0.0262	0.2151	1324.6986	0.146883	-401.891084	-401.883045	-401.8821	-401.923901	30.645	
O	-0.3697967833	 0.751389766	-0.8570700923	-0.262207
C	 0.2471998568	 0.9938310382	 0.1497366379	 0.157577
C	 1.4745420381	 1.8329930554	 0.1912604191	-0.105913
C	 1.6212200874	 2.8038397594	 1.3165878441	-0.129044
N	 2.3737926114	 1.5030799191	 1.3300322357	-0.145116
C	 3.6465359473	 2.2807597106	 1.0801679264	-0.247036
C	 2.8831672285	 3.6108778622	 1.136191656	 0.372791
C	 3.0904675083	 4.8945672375	 0.3890924595	-0.324547
C	 3.2710682921	 4.8449259482	 1.8904194223	-0.335504
H	-0.0651313921	 0.6038957292	 1.1438226795	 0.085295
H	 1.9008020158	 2.079841246	-0.7782659568	 0.107272
H	 0.8152676844	 3.0111181964	 2.0153091398	 0.105692
H	 4.3357536318	 2.1279335557	 1.9140551624	 0.123036
H	 4.1427211375	 2.0146847754	 0.1411353874	 0.114527
H	 3.9783095134	 4.9825784302	-0.2286704786	 0.120004
H	 2.2183869187	 5.4046269888	-0.0068364654	 0.122096
H	 2.5187238273	 5.3217733282	 2.5106189196	 0.121149
H	 4.2784437766	 4.9007374436	 2.2908024736	 0.119928
86.5138	122.164	209.2509	217.5722	276.8677	329.5462	395.9868	443.0296	525.9528	563.5547	770.7548	799.6129	811.9978	849.4821	868.8231	916.123	926.8633	970.1253	1013.8555	1025.2538	1054.7832	1057.5153	1071.5437	1081.0452	1102.3513	1128.244	1168.231	1188.3087	1207.3759	1245.3269	1270.2616	1284.774	1341.1298	1409.4008	1430.6502	1464.2785	1495.1158	1507.1409	1824.5144	2891.6675	3046.8571	3108.0538	3124.5576	3129.4076	3146.624	3149.2891	3203.7292	3218.7904
O=CC1C2N1CC21CC1	O=C[C@H]1[C@H]2N1CC12CC1	
InChI=1S/C7H9NO/c9-3-5-6-7(1-2-7)4-8(5)6/h3,5-6H,1-2,4H2	InChI=1S/C7H9NO/c9-3-5-6-7(1-2-7)4-8(5)6/h3,5-6H,1-2,4H2/t5-,6+,8?/m0/s1
