17
gdb 22517	2.54621	1.18197	1.04826	2.4068	74.27	-0.2376	-0.0427	0.1949	1208.6505	0.133116	-455.08219	-455.072783	-455.071839	-455.116731	33.758	
C	-0.2017033777	 1.6282661876	 0.1585168209	-0.429348
C	 0.0729718872	 0.1400449857	 0.0385644256	 0.126638
N	 1.2751558781	-0.2325130537	-0.7868178298	-0.355042
C	 1.8287716132	-1.1099795555	 0.2876431517	-0.263964
C	 0.7570307597	-0.5706582096	 1.2017971645	 0.368668
N	 0.4597045003	-0.5958683671	 2.4294004606	-0.227989
O	 1.381741459	-1.3598544889	 3.1573871849	-0.383942
C	-1.1579303186	-0.6501470081	-0.4013625732	 0.134152
O	-2.2517806817	-0.1828050843	-0.5728293667	-0.240706
H	 0.7097745744	 2.1540128497	 0.4489470624	 0.122935
H	-0.5532523412	 2.0267815092	-0.7970265345	 0.129137
H	-0.977372086	 1.8081317458	 0.9068432256	 0.141561
H	 1.053811244	-0.7175533564	-1.6516523405	 0.225641
H	 1.7454610175	-2.1912432016	 0.1137554759	 0.126539
H	 2.8651235766	-0.8823557892	 0.5591252387	 0.138647
H	 1.0521430208	-1.2769268455	 4.0591945133	 0.313353
H	-0.9507570156	-1.730337078	-0.5880138194	 0.073722
60.8397	106.2626	140.2065	163.0492	203.9147	259.5699	309.6453	328.6544	370.2359	429.97	486.8829	515.7811	574.2613	691.9247	750.0887	788.0198	921.69	940.4266	968.3915	990.25	1000.7984	1026.0245	1112.0993	1127.3846	1144.7433	1194.0709	1261.6663	1294.7031	1369.8159	1401.2504	1410.6896	1425.903	1479.5109	1482.6655	1490.6201	1793.3987	1828.7473	2854.0666	3015.3891	3054.7421	3066.8433	3129.9248	3142.4435	3511.0631	3812.4643
CC1(NCC1=NO)C=O	C[C@]1(NCC1=NO)C=O	
InChI=1S/C5H8N2O2/c1-5(3-8)4(7-9)2-6-5/h3,6,9H,2H2,1H3	InChI=1S/C5H8N2O2/c1-5(3-8)4(7-9)2-6-5/h3,6,9H,2H2,1H3/t5-/m0/s1
