16
gdb 94534	2.80059	1.16085	1.07224	2.0458	66.99	-0.2394	-0.1044	0.1349	1175.1811	0.122869	-475.000495	-474.991739	-474.990795	-475.035064	31.04	
O	 0.458904406	 1.3338128518	 0.0175432441	-0.422604
C	 0.1606902564	-0.0265500051	-0.0231410296	 0.143227
C	 0.1726849445	-0.7764823179	 1.3342214548	-0.199579
N	-1.3025398922	-0.6663687839	 1.3846960554	-0.304287
C	-1.3866337896	-0.3968507212	-0.064694556	-0.177678
C	-2.2844426221	 0.750020509	-0.4491376734	 0.330709
O	-2.3502632719	 1.7865751841	 0.1764054813	-0.299014
C	-3.1036177727	 0.6367727036	-1.7393532069	 0.090479
O	-3.1080998408	-0.3391746332	-2.4430450182	-0.218547
H	-0.1821399124	 1.7665743556	 0.5995731054	 0.303469
H	 0.7575421345	-0.460595828	-0.8258446331	 0.106988
H	 0.5596801805	-1.800646914	 1.2414057167	 0.097789
H	 0.6945406948	-0.2673787954	 2.1513253427	 0.113019
H	-1.8030006701	-1.4904981934	 1.6974454967	 0.226573
H	-1.5804130408	-1.2649431954	-0.7038379381	 0.097171
H	-3.6946938341	 1.5516528334	-1.9542573018	 0.112284
40.0465	85.4621	130.2592	180.511	187.9676	286.9609	398.5402	404.3995	478.0255	532.6251	580.7617	633.4353	687.6413	785.536	840.321	906.769	951.8742	995.5544	1017.619	1045.4638	1074.2536	1126.9984	1145.5547	1165.0068	1196.3914	1252.3061	1295.9587	1340.0979	1363.7402	1371.3575	1414.1382	1452.7394	1512.4674	1784.6559	1819.8355	2928.2502	3003.9023	3052.5624	3070.6518	3113.4411	3537.4941	3741.4909
OC1CNC1C(=O)C=O	O[C@H]1CN[C@H]1C(=O)C=O	
InChI=1S/C5H7NO3/c7-2-4(9)5-3(8)1-6-5/h2-3,5-6,8H,1H2	InChI=1S/C5H7NO3/c7-2-4(9)5-3(8)1-6-5/h2-3,5-6,8H,1H2/t3-,5+/m0/s1
