16
gdb 28104	5.17083	1.25395	1.0156	2.5492	80.32	-0.1791	0.0195	0.1985	1132.8968	0.12651	-400.794236	-400.78679	-400.785846	-400.826035	28.758	
C	-0.0160855342	 1.4873584091	 0.0472467815	-0.502337
C	-0.0012415711	-0.0022958742	-0.0457473448	 0.334993
C	-0.0420842883	-0.8192554521	-1.16430589	-0.423037
C	-0.0000323095	-2.1385721964	-0.6559354455	 0.363172
C	 0.0638614966	-2.1123251684	 0.7220963447	 0.269094
N	 0.0630461974	-0.7898542813	 1.096886282	-0.453738
C	 0.1027861983	-3.4675464808	 1.1683634051	-0.350057
C	 0.0591071639	-4.2032366314	 0.017751321	-0.014444
O	-0.0039749046	-3.4202810907	-1.1098059016	-0.212246
H	 0.8906820466	 1.8823305686	 0.5234011098	 0.126952
H	-0.0783875357	 1.9212540701	-0.9530867934	 0.139358
H	-0.8740723568	 1.8581172582	 0.6227802174	 0.126646
H	-0.0945189051	-0.4819738807	-2.1867400095	 0.102746
H	 0.1017006545	-0.4303271034	 2.0338358841	 0.25612
H	 0.1547843704	-3.8643790447	 2.1696974189	 0.107783
H	 0.0652093676	-5.2654737518	-0.1616692497	 0.128995
103.178	145.4232	253.6002	275.3697	327.0338	388.1673	493.1928	553.8481	588.9131	629.5362	698.5039	738.5159	753.3247	768.1161	789.3449	809.737	918.7685	986.7285	1006.3631	1045.2095	1059.0994	1132.9039	1159.1789	1174.4752	1258.239	1323.6071	1391.0724	1413.1379	1459.7816	1477.8281	1496.8823	1500.4953	1544.2645	1582.5768	1604.2288	3012.5303	3054.9114	3124.3905	3255.7393	3261.6128	3285.5657	3686.0497
CC1=CC2=C(N1)C=CO2	Cc1cc2c([nH]1)cco2	
InChI=1S/C7H7NO/c1-5-4-7-6(8-5)2-3-9-7/h2-4,8H,1H3	InChI=1S/C7H7NO/c1-5-4-7-6(8-5)2-3-9-7/h2-4,8H,1H3
