23
gdb 118042	3.34499	0.76518	0.65443	3.1247	83.98	-0.2462	-0.0192	0.227	1749.6707	0.201683	-425.429879	-425.418321	-425.417377	-425.467776	39.909	
C	 0.0479065589	 1.3912823459	 0.0524189976	-0.228962
O	 0.0396809551	-0.0155793781	 0.0563257341	-0.232636
C	-1.2621107873	-0.5592882846	 0.0051802338	-0.064446
C	-1.153890057	-2.0861414454	 0.0332592175	-0.006137
C	-0.4357215753	-2.5470753917	 1.3110046533	-0.405659
C	-2.5382424024	-2.7653746567	-0.1095473016	-0.057442
C	-3.2956737933	-2.3904212901	-1.4009209499	-0.424807
C	-2.3636157195	-4.2738914297	-0.1199489551	 0.161021
O	-2.9331245399	-5.0495300056	 0.6022823036	-0.254134
H	 1.0915648159	 1.7129425983	 0.0874728615	 0.128564
H	-0.4197946692	 1.8007259512	-0.8573309617	 0.103353
H	-0.4817840509	 1.8062622948	 0.9247018266	 0.10511
H	-1.8596575787	-0.2079425539	 0.8662175459	 0.084122
H	-1.7713624851	-0.2131965862	-0.9074167828	 0.085434
H	-0.5430640838	-2.375260816	-0.8343065893	 0.084274
H	-1.0356094862	-2.3124239471	 2.1982304513	 0.116772
H	-0.2602351801	-3.6272333445	 1.3103625369	 0.121069
H	 0.5264133357	-2.0412990089	 1.4072030094	 0.136786
H	-3.1599418499	-2.5258306806	 0.7612719909	 0.091894
H	-4.2228441796	-2.9656776694	-1.4835255717	 0.132197
H	-3.5638851319	-1.3318161858	-1.4160553166	 0.131314
H	-2.6889216211	-2.5968974521	-2.28979582	 0.123501
H	-1.6563555044	-4.6362703138	-0.9061936236	 0.068812
40.3105	60.9188	88.4429	91.5119	143.6241	202.7644	215.8576	239.429	258.0719	291.7549	314.8552	340.9887	376.2374	443.369	493.8522	583.6846	836.0811	885.0765	928.022	931.1421	968.2791	990.2384	992.2163	1059.3152	1133.502	1150.4246	1159.9716	1172.813	1183.6486	1192.4566	1224.2102	1255.1361	1290.0511	1315.694	1356.7465	1370.591	1403.9148	1405.7394	1425.5036	1427.9087	1480.8165	1486.3467	1488.6122	1495.5322	1502.943	1505.4578	1506.6252	1529.0632	1836.2611	2830.2426	2940.7319	2969.1741	2991.9716	3009.1958	3012.535	3035.0666	3036.8936	3048.3729	3098.4903	3104.7486	3114.5185	3122.0398	3138.4824
COCC(C)C(C)C=O	COC[C@@H](C)[C@@H](C)C=O	
InChI=1S/C7H14O2/c1-6(4-8)7(2)5-9-3/h4,6-7H,5H2,1-3H3	InChI=1S/C7H14O2/c1-6(4-8)7(2)5-9-3/h4,6-7H,5H2,1-3H3/t6-,7+/m0/s1
