17
gdb 37204	2.7905	2.0685	1.75043	2.7761	69.98	-0.2133	0.0465	0.2598	846.1019	0.138051	-417.865086	-417.858545	-417.857601	-417.895532	27.401	
C	-0.0024215675	 1.5236229569	-0.0154576603	-0.238638
N	 1.5133141388	 1.5513094454	 0.0048611304	-0.37501
C	 1.5434199906	 0.0629478724	-0.0536671326	 0.192328
C	 1.4939992295	-0.6830154883	 1.2965280998	-0.129651
O	 0.0286594176	-0.7350273151	 1.2474866222	-0.334502
C	 0.0377023042	-0.0311421672	-0.00271513	 0.369839
C	 0.0430445714	-0.8984037121	-1.2694715243	-0.134916
N	 0.6976768701	-0.066048401	-2.3013268795	-0.335852
C	 1.5517908577	-0.7888647286	-1.3316706468	-0.130097
H	-0.4391398584	 1.9713471372	 0.8810256937	 0.11263
H	-0.4517585998	 1.9553794195	-0.91305573	 0.118636
H	 1.8934070005	 1.9737752078	-0.8355974259	 0.229546
H	 1.9291119111	-1.6882222517	 1.3315651773	 0.103585
H	 1.8500633168	-0.088006379	 2.1430647417	 0.118952
H	-0.6182871474	-1.7131377234	-1.5406598223	 0.101569
H	 0.7005840449	-0.6031606023	-3.1670238483	 0.238262
H	 2.3001005401	-1.4925538504	-1.6801323049	 0.093318
196.1344	269.3373	309.5625	341.2507	362.6035	528.4384	546.1633	661.8041	694.2375	728.727	791.2055	814.1149	854.8831	868.9415	898.1465	921.0397	939.7047	941.8855	968.0392	1002.1834	1079.0111	1091.1246	1104.1095	1133.7612	1149.1771	1173.744	1179.1995	1188.8392	1240.9604	1281.0851	1302.2501	1317.7243	1331.6525	1364.394	1383.8613	1474.57	1501.7285	3028.7589	3054.7396	3091.2229	3114.8244	3164.7141	3183.0453	3488.9712	3535.4775
C1NC23COC12C1NC31	C1N[C@@]23CO[C@@]12[C@H]1N[C@@H]31	
InChI=1S/C6H8N2O/c1-6-4-3(8-4)5(6,7-1)2-9-6/h3-4,7-8H,1-2H2	InChI=1S/C6H8N2O/c1-6-4-3(8-4)5(6,7-1)2-9-6/h3-4,7-8H,1-2H2/t3-,4+,5-,6-/m1/s1
