20
gdb 70585	2.42051	1.79122	1.29316	1.2417	77.57	-0.2329	0.0699	0.3028	1038.0423	0.173374	-403.118018	-403.110402	-403.109458	-403.149498	31.801	
O	-0.0035458827	 1.3708424229	 0.1150802295	-0.475226
C	 0.0233960442	-0.0270302261	-0.0295467761	 0.415604
C	-0.5525776096	-0.623198346	-1.2883590048	-0.366241
C	-1.3168567761	-0.7084745392	 0.0209435824	-0.050612
C	-1.4598063005	-2.0118571534	 0.7861636686	-0.220314
C	-0.1952096291	-2.8964952859	 0.743031022	-0.230989
C	 1.066957075	-2.121221763	 1.1001385227	-0.020813
N	 1.9538972275	-1.734991531	-0.0166380853	-0.34282
C	 1.1749925042	-0.6968059395	 0.6811756233	-0.118309
H	 0.6621696927	 1.737421211	-0.4778478315	 0.279255
H	-0.9237484788	 0.0819960348	-2.0239142302	 0.105712
H	-0.0739607545	-1.5056735966	-1.6951772211	 0.13111
H	-2.1599231287	-0.0293232128	 0.1052441299	 0.090893
H	-1.6967296059	-1.7741596563	 1.8320461706	 0.098601
H	-2.3120966745	-2.5825205411	 0.3981340066	 0.098475
H	-0.3240980478	-3.7370516345	 1.4320467685	 0.096155
H	-0.0727725109	-3.3286579899	-0.2550346489	 0.117294
H	 1.5435121683	-2.3908071491	 2.0395788925	 0.08203
H	 2.9217302253	-1.7132598678	 0.2935443165	 0.228457
H	 1.7024655418	-0.0141038466	 1.343088955	 0.08174
150.4399	230.688	264.5506	319.3728	350.6799	388.5127	403.3957	455.7607	523.1144	537.8517	641.5021	686.4634	765.545	810.7188	856.4888	899.3837	906.3202	919.7196	935.1996	949.4969	967.9562	1012.3687	1037.9471	1046.283	1090.2384	1116.5642	1133.0458	1164.0487	1186.4813	1222.4538	1234.7406	1240.2155	1271.3717	1286.8315	1333.8735	1359.2261	1373.1237	1404.0371	1412.8521	1453.3073	1483.1316	1487.0504	1500.9843	3013.886	3044.7242	3055.774	3087.8129	3127.9884	3138.9302	3140.4471	3155.8635	3233.8092	3501.4397	3788.2608
OC12CC1CCC1NC21	O[C@]12C[C@H]1CC[C@H]1N[C@@H]21	
InChI=1S/C7H11NO/c9-7-3-4(7)1-2-5-6(7)8-5/h4-6,8-9H,1-3H2	InChI=1S/C7H11NO/c9-7-3-4(7)1-2-5-6(7)8-5/h4-6,8-9H,1-3H2/t4-,5-,6-,7-/m1/s1
