22
gdb 6894	2.80559	1.41013	1.2638	1.2371	78.88	-0.242	0.0627	0.3047	1140.8482	0.197829	-350.199462	-350.189403	-350.188459	-350.233763	37.081	
C	-0.0322596874	 1.5194046135	-0.2826524034	-0.372825
C	 0.0049897022	 0.0500292663	 0.1580636548	-0.208918
C	-1.3620124872	-0.6025509306	 0.0988939026	-0.075872
C	-1.8185078805	-1.3537338094	-1.140165211	 0.048119
O	-0.914959477	-1.5746702668	-2.1881355691	-0.421386
C	-1.5792767895	-2.1116669099	 0.1410577163	 0.276502
C	-0.3900206949	-3.0502104224	 0.2285481413	-0.449978
C	-2.8053314046	-2.6033985657	 0.8891475828	-0.449449
H	 0.9598589969	 1.9780100714	-0.2239267364	 0.111294
H	-0.3840475868	 1.6164814573	-1.3162656019	 0.102115
H	-0.7095670763	 2.1064143152	 0.3474408968	 0.114978
H	 0.7072727103	-0.4989159478	-0.4758494853	 0.107155
H	 0.3988107479	-0.010398785	 1.1807015499	 0.096336
H	-2.1390835127	-0.0207639801	 0.5932322111	 0.069771
H	-2.8531061156	-1.2301712405	-1.463461551	 0.074884
H	-0.8067605516	-0.7467746	-2.6678495797	 0.288099
H	 0.4165599218	-2.7573351131	-0.4436208483	 0.133542
H	 0.0028247128	-3.089047586	 1.2511974954	 0.107937
H	-0.6915602473	-4.0673793635	-0.0470521421	 0.111861
H	-3.1266985809	-3.583731016	 0.5174217752	 0.114065
H	-2.5961291604	-2.7064037475	 1.9607568947	 0.11307
H	-3.6482450592	-1.9130366895	 0.7822533771	 0.108703
66.1964	131.7311	172.7601	182.1949	211.7816	235.2968	261.1916	283.7889	294.3746	310.2842	360.664	482.6994	510.9575	589.7916	697.7933	769.0993	836.5408	837.5802	954.343	973.3016	989.916	1008.4448	1022.8646	1062.3383	1088.4446	1117.1475	1152.881	1181.9272	1182.6433	1255.2016	1276.6866	1304.583	1335.1464	1340.8931	1399.2747	1409.8879	1411.8421	1422.295	1459.6149	1482.3587	1487.958	1490.946	1497.3823	1503.3433	1505.2666	1514.6793	3018.0137	3024.2049	3027.3791	3030.0458	3076.4777	3078.1392	3081.14	3081.8384	3093.4555	3095.9671	3101.9645	3113.1468	3145.6495	3803.1452
CCC1C(O)C1(C)C	CC[C@H]1[C@@H](O)C1(C)C	
InChI=1S/C7H14O/c1-4-5-6(8)7(5,2)3/h5-6,8H,4H2,1-3H3	InChI=1S/C7H14O/c1-4-5-6(8)7(5,2)3/h5-6,8H,4H2,1-3H3/t5-,6+/m0/s1
