21
gdb 40272	2.98542	1.34354	1.04698	1.2771	86.24	-0.2263	0.0228	0.2491	1201.9928	0.184342	-387.077478	-387.06934	-387.068396	-387.110248	32.381	
C	-0.4679740067	 1.5237207589	 0.0090060069	-0.314533
C	 1.0219305122	 1.3665536305	 0.0950415218	-0.29612
C	 0.1274079771	 0.1275263075	 0.0348804793	 0.340018
C	-0.0641169972	-0.6541085947	 1.3233728549	-0.281565
C	 0.8244569887	-1.8891159113	 1.4782022385	-0.088798
O	 0.3457050366	-2.9771522064	 0.7097940986	-0.236271
C	 0.7891386091	-3.02207363	-0.6260520675	-0.138546
C	 0.4216239817	-1.8769680697	-1.5342447288	-0.091468
C	 0.1574379016	-0.59696462	-1.2619625358	-0.108196
H	-1.001852128	 1.8539998758	 0.8938031502	 0.112113
H	-0.89487982	 1.8777435853	-0.9233427775	 0.113785
H	 1.6161070609	 1.6054838887	-0.7798365527	 0.114444
H	 1.5118191188	 1.5828967866	 1.0386722654	 0.113311
H	 0.107437975	 0.0179684888	 2.1734235697	 0.08606
H	-1.1028837632	-0.9997716292	 1.3960749503	 0.110569
H	 1.8727741692	-1.6609239005	 1.2262851357	 0.088187
H	 0.7986712174	-2.2266622169	 2.5201530006	 0.101648
H	 1.8898521719	-3.1451560176	-0.6550696972	 0.095483
H	 0.3679788825	-3.9476181044	-1.0355084431	 0.113429
H	 0.4383243085	-2.159557674	-2.5862955867	 0.085831
H	-0.023473846	 0.0482065026	-2.1213775826	 0.080619
59.9299	148.2006	234.8172	287.6521	301.3121	344.3701	404.8676	420.9353	485.2866	559.7923	649.7712	721.544	779.1033	789.2624	848.9145	871.1206	889.2372	932.388	945.749	977.7975	999.5564	1007.2994	1029.6663	1044.2329	1057.7818	1077.952	1108.7348	1172.8933	1191.42	1218.4528	1247.5981	1269.7614	1318.0508	1332.932	1351.8087	1391.7074	1399.0528	1419.9575	1442.5486	1466.537	1475.854	1478.1882	1497.3367	1500.5581	1732.2373	2910.9022	2978.4233	3020.4632	3052.6795	3063.0818	3064.1311	3113.6169	3127.9704	3132.2365	3139.6419	3206.9926	3222.3941
C1CC11CCOCC=C1	C1CC21CCOCC=C2	
InChI=1S/C8H12O/c1-2-8(3-4-8)5-7-9-6-1/h1-2H,3-7H2	InChI=1S/C8H12O/c1-2-8(3-4-8)5-7-9-6-1/h1-2H,3-7H2
