25
gdb 86432	1.67085	1.58158	0.86474	0.2414	96.39	-0.2257	0.0331	0.2588	1458.7964	0.229115	-352.396742	-352.386797	-352.385853	-352.430922	38.636	
C	-0.0089287412	 1.5609959707	 0.0350945615	-0.402941
C	 0.0225968382	 0.0305736358	 0.0000813271	 0.014902
C	 0.7089985981	-0.5064413505	-1.2621043861	-0.187438
C	 0.6250165026	-2.0381277435	-1.3543922297	-0.026733
C	 1.5337477132	-2.5887240286	-2.4646571346	-0.398051
C	 0.940923134	-2.6767747066	-0.0233026064	-0.122235
C	 0.9983980953	-2.0306228121	 1.1439159382	 0.286177
C	 1.3577287052	-2.723792953	 2.4305361967	-0.474709
C	 0.7083863098	-0.5496467433	 1.2470451833	-0.278269
H	 1.0065779263	 1.9744902245	 0.0106159445	 0.110608
H	-0.5537070312	 1.9672688199	-0.8237763991	 0.10833
H	-0.4949343644	 1.9299561261	 0.9450504369	 0.108034
H	-1.0154088983	-0.333179494	-0.0061819861	 0.070564
H	 0.2676535735	-0.0543246914	-2.1588937935	 0.083975
H	 1.7667512391	-0.2050532469	-1.2486973964	 0.087636
H	-0.4101748921	-2.3054037066	-1.6240223741	 0.075811
H	 2.5859787249	-2.3678076588	-2.2533299874	 0.114307
H	 1.4331666866	-3.6754006266	-2.5575682893	 0.108823
H	 1.2829712245	-2.1443180741	-3.4338665202	 0.107824
H	 1.1435608993	-3.7473706836	-0.0429736606	 0.066747
H	 1.5815035212	-3.7824111879	 2.2727885109	 0.117058
H	 2.2345399401	-2.2574031764	 2.8994005344	 0.118937
H	 0.5425248079	-2.651743753	 3.1625916181	 0.118349
H	 1.6505523952	-0.0098078705	 1.4360715441	 0.098471
H	 0.0888283322	-0.3599947396	 2.1348320079	 0.093823
103.5768	146.1351	156.5507	203.8806	232.9183	248.2302	251.7019	276.0896	404.2197	420.4854	429.5259	439.5497	448.7414	520.0956	592.6098	832.2966	854.8704	857.8443	873.016	899.9625	951.7524	963.2303	972.0301	1017.2627	1025.1833	1050.7656	1064.7763	1098.6821	1131.0445	1159.1188	1176.0365	1181.8923	1216.2473	1277.793	1297.8474	1310.1226	1341.2693	1358.4079	1374.8945	1383.7479	1398.2062	1408.444	1412.6138	1413.7865	1472.1614	1478.4559	1487.274	1493.5632	1496.2917	1497.9304	1499.6659	1500.6412	1739.2219	2960.0034	2977.7273	2992.2327	3005.4325	3010.3747	3022.1699	3022.4507	3025.4812	3050.5155	3054.4604	3087.8113	3094.6199	3095.4006	3096.0737	3107.2471	3125.1496
CC1CC(C)C=C(C)C1	C[C@H]1C[C@@H](C)C=C(C)C1	
InChI=1S/C9H16/c1-7-4-8(2)6-9(3)5-7/h4,7,9H,5-6H2,1-3H3	InChI=1S/C9H16/c1-7-4-8(2)6-9(3)5-7/h4,7,9H,5-6H2,1-3H3/t7-,9-/m0/s1
