15
gdb 50133	5.11727	0.9178	0.84129	1.4093	69.03	-0.2559	-0.0573	0.1986	1299.5914	0.109867	-457.735674	-457.727439	-457.726495	-457.769315	29.218	
O	-0.0672420918	-0.0599189261	-0.0098162425	-0.246471
C	-0.0078472156	 1.1289087241	 0.1735519329	 0.156963
C	 1.2541445318	 1.9447311508	 0.0300572373	-0.107357
C	 1.2127157568	 3.1637782627	-0.9730979114	-0.332526
C	 1.5033532645	 4.0989595947	 0.2005361685	 0.327011
O	 0.4752593586	 3.9059985725	 1.186850341	-0.261697
C	 1.5264944581	 2.9599031966	 1.1650814917	-0.061936
C	 2.2826363335	 5.3500843025	 0.2493616768	 0.061533
O	 2.8640583365	 5.8054453005	-0.7042959763	-0.251288
H	-0.9032525191	 1.7197334542	 0.4628394677	 0.098392
H	 2.1007107596	 1.2828526029	-0.1578095732	 0.112258
H	 2.0260502939	 3.1233849999	-1.6974838737	 0.149325
H	 0.2670997446	 3.3514009513	-1.4857769288	 0.13008
H	 2.0979953671	 2.8192553595	 2.0757539943	 0.130571
H	 2.2991594013	 5.8289512738	 1.2515613257	 0.095143
68.0345	84.9007	153.0287	166.7255	271.876	312.3133	386.0867	428.9	493.0713	571.4399	710.5695	767.1984	822.3609	868.306	885.3717	928.4237	979.5548	1006.9904	1036.1372	1070.2378	1099.3811	1155.007	1210.0724	1213.5753	1243.6473	1278.281	1309.3962	1371.4644	1418.8552	1441.0487	1473.1388	1809.801	1827.5936	2909.2026	2912.7992	3085.2251	3113.5998	3153.7793	3188.7306
O=CC1CC2(OC12)C=O	O=C[C@H]1C[C@]2(O[C@@H]12)C=O	
InChI=1S/C6H6O3/c7-2-4-1-6(3-8)5(4)9-6/h2-5H,1H2	InChI=1S/C6H6O3/c7-2-4-1-6(3-8)5(4)9-6/h2-5H,1H2/t4-,5+,6+/m1/s1
