21
gdb 121988	4.24535	0.5985	0.55065	3.9597	78.61	-0.268	0.0087	0.2767	2019.9986	0.178729	-461.384898	-461.373798	-461.372854	-461.423454	37.408	
C	 0.5212682346	 0.6746949506	 1.3681611255	-0.3867
C	 0.0122000738	 0.000997708	 0.1060002556	-0.029198
O	-1.3194187089	-0.4275322568	 0.3284125675	-0.247643
C	-1.895404704	-1.0654218703	-0.7847282499	-0.058042
C	-3.3311044439	-1.4407578424	-0.4187874608	 0.081276
C	-4.2077589007	-0.2354802236	-0.115286485	-0.38876
O	-3.8747355983	-2.146739007	-1.5502056036	-0.187645
C	-4.2717648258	-3.4212965729	-1.3858295483	 0.167401
O	-4.7284387361	-4.0773587943	-2.2728691129	-0.276586
H	 1.5506352458	 1.0168783573	 1.2269201554	 0.119345
H	-0.1001844443	 1.5386487827	 1.6201524848	 0.127882
H	 0.4993620334	-0.0216367697	 2.2111673969	 0.128324
H	 0.0452584394	 0.6975372686	-0.7480855425	 0.091982
H	 0.6460583686	-0.8620079283	-0.1571875419	 0.091453
H	-1.9010973459	-0.4057718264	-1.6683642112	 0.101212
H	-1.3368734012	-1.9759772619	-1.0571738679	 0.094526
H	-3.3020085297	-2.1136362043	 0.4486384936	 0.096774
H	-3.7534137699	 0.3518922474	 0.6856300612	 0.142354
H	-4.3030967177	 0.3960002871	-1.003816725	 0.131415
H	-5.2083101964	-0.5492393175	 0.1942461889	 0.123087
H	-4.1296327828	-3.7843584265	-0.3484993301	 0.077547
21.7876	44.7576	77.4765	109.4315	141.7464	161.7466	219.5785	246.2928	273.1802	299.9023	321.7216	407.0872	472.8277	527.374	663.3867	819.8054	884.7913	905.2258	936.7835	966.1783	1045.2188	1045.8846	1097.4912	1139.4484	1160.3716	1162.3669	1176.5807	1191.2201	1213.1409	1262.6589	1296.3229	1339.1131	1374.6792	1389.1676	1404.0299	1408.8563	1435.2886	1451.8723	1483.8449	1487.4662	1496.7754	1499.3352	1514.8501	1535.631	1865.142	2941.1389	2956.9489	2968.5035	2988.1162	2994.6164	3025.9661	3046.3108	3048.4414	3121.1162	3121.6191	3122.6077	3139.953
CCOCC(C)OC=O	CCOC[C@@H](C)OC=O	
InChI=1S/C6H12O3/c1-3-8-4-6(2)9-5-7/h5-6H,3-4H2,1-2H3	InChI=1S/C6H12O3/c1-3-8-4-6(2)9-5-7/h5-6H,3-4H2,1-2H3/t6-/m1/s1
