24
gdb 116770	5.44628	0.54279	0.51935	2.7259	91.88	-0.2466	0.0232	0.2698	2225.7832	0.214377	-405.551997	-405.540289	-405.539344	-405.590376	40.45	
C	-0.1972927848	 1.5133324817	 0.1109048214	-0.389612
C	 0.01232133	 0.0036495523	-0.0454304189	-0.16737
C	 0.8308864942	-0.4063915939	-1.2826585646	 0.055827
C	 2.2726758245	 0.1135904512	-1.2373780402	-0.395385
C	 0.8001644265	-1.938232116	-1.4448440522	-0.163575
N	 1.3799609976	-2.3601687008	-2.7056228945	-0.211664
C	 2.3051906507	-3.2109364413	-2.6714145141	 0.129683
O	 2.871551546	-3.6603045956	-3.8096180695	-0.193275
C	 3.9485281964	-4.5728205355	-3.6403368581	-0.248416
H	 0.7471172876	 2.0446921267	 0.262506362	 0.117624
H	-0.6785716219	 1.9385834286	-0.7770328548	 0.114471
H	-0.8374786509	 1.7316388453	 0.9715920876	 0.109937
H	 0.4995290954	-0.3921737076	 0.8569942693	 0.08882
H	-0.9694009409	-0.4852790138	-0.0975132047	 0.090089
H	 0.3429657727	 0.0133958636	-2.1731018466	 0.082638
H	 2.7966071068	-0.2654700391	-0.3501116429	 0.100308
H	 2.8282404408	-0.2101933777	-2.1214256751	 0.124919
H	 2.3095139188	 1.20590599	-1.2031991029	 0.11267
H	 1.2958524997	-2.4085171746	-0.5745367677	 0.072492
H	-0.2478753433	-2.2660666663	-1.4310290185	 0.100228
H	 2.7158647757	-3.6572580179	-1.7509494127	 0.070813
H	 4.8047186676	-4.0975911146	-3.1458613918	 0.126869
H	 3.6434493705	-5.4547845041	-3.0636557133	 0.125866
H	 4.2453027504	-4.8877044908	-4.6414596572	 0.146043
41.7093	53.8237	64.5356	88.2796	143.7311	173.2057	218.8452	224.3955	257.1224	284.9147	313.4886	330.7009	427.1688	445.3059	503.5026	616.6829	774.4056	831.2414	911.8104	920.5169	975.7631	987.4434	1020.2059	1026.8432	1055.624	1078.1515	1154.8044	1164.6763	1176.9447	1179.8783	1188.8806	1259.7324	1279.0742	1294.3924	1308.9963	1373.0798	1379.8528	1383.8119	1407.2672	1412.331	1417.1502	1482.049	1485.7257	1491.4452	1494.8454	1497.8011	1499.4207	1501.6298	1508.9167	1513.9394	1773.7434	2924.4307	2981.5596	3003.8346	3013.6378	3013.7885	3024.9789	3025.8253	3033.2182	3043.1616	3074.5627	3095.203	3097.6256	3106.7461	3118.5041	3143.8699
CCC(C)CN=COC	CC[C@@H](C)CN=COC	
InChI=1S/C7H15NO/c1-4-7(2)5-8-6-9-3/h6-7H,4-5H2,1-3H3	InChI=1S/C7H15NO/c1-4-7(2)5-8-6-9-3/h6-7H,4-5H2,1-3H3/t7-/m1/s1
