15
gdb 97523	5.1582	0.60226	0.55373	3.5921	76.1	-0.2631	-0.0517	0.2113	1893.0127	0.1116	-453.932126	-453.922497	-453.921553	-453.968925	32.44	
O	 0.2375943264	 1.0850479377	-0.3382663247	-0.396345
C	 0.0666066566	-0.1518698913	 0.3348086519	-0.208477
C	-1.295646687	-0.6789525316	 0.2352121048	 0.176819
C	-2.4100623752	-1.118057603	 0.0987583133	-0.002375
C	-3.7593888335	-1.5986663317	-0.033493599	 0.187851
N	-4.0098046044	-2.7720376383	-0.4527851533	-0.488949
N	-4.7091828942	-0.6171675137	 0.3539924472	-0.343033
C	-6.0746044954	-0.7520836592	 0.3384887257	 0.166938
O	-6.6831492183	-1.7390483845	-0.0091329428	-0.297528
H	 0.0215575853	 0.9448687073	-1.2664459375	 0.293339
H	 0.7738251822	-0.9151288006	-0.0241821383	 0.134708
H	 0.3136180486	 0.0404608943	 1.3846465226	 0.150172
H	-5.01874678	-2.9303301598	-0.472751674	 0.259903
H	-4.3351229696	 0.2647487491	 0.6717453984	 0.267713
H	-6.5745914915	 0.1701755652	 0.6901689058	 0.099264
19.1524	58.7789	78.5469	135.0797	232.4723	252.8745	276.3378	291.988	356.2876	397.1261	554.1327	573.5696	595.868	684.3631	716.1572	911.5548	948.8082	962.2704	983.322	1025.3791	1055.064	1141.2161	1182.044	1212.9667	1350.2618	1366.9584	1413.2017	1437.7921	1485.4312	1498.2243	1701.1522	1805.273	2355.0202	2957.4346	2992.853	3068.518	3477.9648	3618.4488	3812.8912
OCC#CC(=N)NC=O	OCC#CC(=N)NC=O	
InChI=1S/C5H6N2O2/c6-5(7-4-9)2-1-3-8/h4,8H,3H2,(H2,6,7,9)	InChI=1S/C5H6N2O2/c6-5(7-4-9)2-1-3-8/h4,8H,3H2,(H2,6,7,9)
