17
gdb 98055	3.34999	0.96066	0.84494	1.5699	70.3	-0.2384	-0.0958	0.1426	1422.7631	0.130597	-459.006126	-458.995478	-458.994534	-459.043664	35.284	
C	-0.1272457061	 1.6641358008	 0.0902406609	-0.385677
C	-0.3049682841	 0.1752383253	 0.3740692498	-0.296355
C	-1.5873231283	-0.3935882719	-0.1794939524	 0.321163
O	-2.4505690366	 0.2394844729	-0.7396151562	-0.286322
C	-1.7613391879	-1.9238746729	-0.1179863486	 0.215189
O	-0.8537119653	-2.6791854472	-0.3724603477	-0.279183
C	-3.1587544517	-2.4382207202	 0.2853410991	 0.323591
C	-3.6273757237	-3.7126107766	-0.3624540428	-0.49067
O	-3.7465627466	-1.8325339411	 1.1488805643	-0.272957
H	 0.8002830148	 2.0314696033	 0.5367300391	 0.118703
H	-0.0918132901	 1.8549983675	-0.9855379396	 0.133973
H	-0.9612150261	 2.2413923282	 0.4973075782	 0.138726
H	 0.5187102579	-0.4303613992	-0.0243861833	 0.14879
H	-0.3071619817	-0.0318010997	 1.4548112296	 0.138359
H	-2.8272411308	-4.4578761395	-0.3397465	 0.165067
H	-4.5227541125	-4.0815932881	 0.138431701	 0.149524
H	-3.8499672412	-3.5186341314	-1.4188903313	 0.158079
27.9187	55.8858	68.3371	129.2988	140.2223	172.9465	194.533	253.9471	297.7564	305.8369	420.4106	473.6959	568.1416	622.5354	690.5558	728.1698	801.3795	856.5494	967.6327	1001.8258	1039.358	1079.8746	1095.0705	1160.3702	1265.8841	1278.7085	1375.5318	1382.1228	1415.1126	1444.6603	1459.3512	1461.2227	1493.3841	1498.2009	1792.9659	1794.3248	1816.8519	3014.9881	3040.732	3053.4675	3060.2346	3109.065	3126.164	3128.7052	3161.5694
CCC(=O)C(=O)C(C)=O	CCC(=O)C(=O)C(=O)C	
InChI=1S/C6H8O3/c1-3-5(8)6(9)4(2)7/h3H2,1-2H3	InChI=1S/C6H8O3/c1-3-5(8)6(9)4(2)7/h3H2,1-2H3
