22
gdb 86147	2.06801	1.54066	1.08108	2.3276	82.09	-0.2084	-0.0183	0.1901	1237.5499	0.19298	-404.372759	-404.362796	-404.361852	-404.408047	36.657	
C	-0.5178947873	 1.3263084373	 0.1175390495	-0.403473
C	 0.2591554176	 0.0369690131	-0.1247452527	-0.093085
C	 1.4422482248	 0.0904348187	-1.1085382024	-0.200265
N	 2.3441794848	-1.0231951218	-0.7545433426	-0.069552
C	 2.1017642931	-2.2365529012	-1.5227941265	-0.333888
C	 2.2462058526	-1.2075406371	 0.7021424114	-0.078594
C	 3.4448894899	-0.6281870724	 1.4651908729	-0.380431
C	 0.9375880984	-0.5146775606	 1.1315722264	 0.395662
O	 0.5433982393	-0.4039391968	 2.2643185248	-0.327678
H	 0.161849645	 2.1506143444	 0.3588523219	 0.119881
H	-1.0997195545	 1.6147907593	-0.7627343517	 0.11411
H	-1.200426041	 1.2011036616	 0.9624265238	 0.139253
H	-0.4340078546	-0.7527764813	-0.4533994845	 0.10519
H	 1.1408723516	 0.0132354671	-2.1557525617	 0.105925
H	 1.9724197158	 1.0462353369	-0.9930142611	 0.102858
H	 2.250708919	-2.0319086214	-2.5875223544	 0.121243
H	 2.824847847	-3.0043734054	-1.2311888721	 0.123759
H	 1.0890341931	-2.6653716265	-1.3988380547	 0.091708
H	 2.1562716725	-2.2734431317	 0.9465089228	 0.097783
H	 3.5925666361	 0.4271061566	 1.2156716788	 0.118254
H	 3.2755119646	-0.7073459743	 2.5426467601	 0.132996
H	 4.3580637421	-1.1677999246	 1.201851452	 0.118343
30.1253	98.2679	183.4339	200.1035	214.5345	224.8853	246.47	254.3985	322.6998	379.4903	462.7475	523.618	554.6876	602.8361	655.8702	777.3414	806.8519	894.7988	928.3593	947.3968	991.0026	1032.4904	1071.2888	1084.6941	1110.2092	1125.7761	1152.1956	1158.3454	1167.614	1221.4085	1282.2734	1285.7069	1303.8975	1316.3623	1363.8827	1375.6703	1397.8102	1407.6167	1461.4255	1489.0557	1493.0717	1493.6753	1495.5045	1496.6225	1503.9639	1508.3042	1841.4531	2923.0517	2991.7674	3008.738	3029.8622	3038.1909	3042.729	3061.6417	3096.7994	3104.7091	3106.1954	3116.1557	3120.6845	3127.7082
CC1CN(C)C(C)C1=O	C[C@H]1CN(C)[C@@H](C)C1=O	
InChI=1S/C7H13NO/c1-5-4-8(3)6(2)7(5)9/h5-6H,4H2,1-3H3	InChI=1S/C7H13NO/c1-5-4-8(3)6(2)7(5)9/h5-6H,4H2,1-3H3/t5-,6-/m0/s1
