16
gdb 35615	2.2496	1.7962	1.11995	3.767	74.63	-0.2624	-0.0101	0.2522	1061.0618	0.124973	-400.753083	-400.745406	-400.744461	-400.785792	28.945	
N	-0.3704000536	-0.9401736867	-0.7506526577	-0.335992
C	-0.2098343722	 0.1398844947	-0.3707642701	 0.276878
C	 0.0024202657	 1.4977335797	 0.1143022356	-0.232409
C	-0.4162377661	 1.7030358601	 1.6046531738	-0.288387
C	 0.6896931909	 2.5670684572	 2.1599245109	-0.083458
C	 1.7113835473	 2.7045190449	 1.3173943485	-0.139854
C	 1.4747069993	 1.9787827263	 0.0441400973	 0.410989
C	 2.5251144457	 1.3352357729	-0.7587416062	-0.246138
O	 1.9111653572	 2.5570761736	-1.1850925044	-0.276139
H	-0.5734801827	 2.177117029	-0.5231582488	 0.14931
H	-1.4043954124	 2.1662702133	 1.6872226462	 0.129402
H	-0.4739019402	 0.7448456902	 2.1335880468	 0.140735
H	 0.6375168038	 2.9898255363	 3.1563894063	 0.114812
H	 2.6268853264	 3.2556204917	 1.4929262116	 0.117028
H	 3.5652816751	 1.4182961063	-0.4462560371	 0.118756
H	 2.2803989357	 0.4547081704	-1.3498031127	 0.144467
50.0601	143.4988	205.7627	270.0861	339.005	359.8477	473.2591	496.5914	557.257	577.0934	707.637	757.0912	788.6481	863.9851	881.867	943.913	962.5478	974.1738	1011.7721	1021.293	1049.5111	1122.5613	1129.3004	1167.0935	1175.6174	1230.0795	1254.0295	1306.3811	1339.3866	1346.8424	1417.634	1489.2435	1526.9828	1685.4583	2356.9463	3044.0303	3057.9435	3082.461	3086.6736	3179.7815	3199.2005	3224.3407
N#CC1CC=CC11CO1	N#C[C@H]1CC=C[C@]21CO2	
InChI=1S/C7H7NO/c8-4-6-2-1-3-7(6)5-9-7/h1,3,6H,2,5H2	InChI=1S/C7H7NO/c8-4-6-2-1-3-7(6)5-9-7/h1,3,6H,2,5H2/t6-,7-/m1/s1
