16
gdb 23580	3.39667	1.30052	1.06527	0.6164	72.52	-0.228	0.0248	0.2528	1105.6102	0.123825	-437.776845	-437.769198	-437.768254	-437.808839	29.992	
O	-0.2106451645	 1.3382065483	 0.0378783015	-0.405336
N	-0.0449791743	-0.0649218882	 0.1518794151	-0.310993
C	-1.163741029	-0.6536834687	 0.0835764851	 0.480193
C	-1.5120598276	-2.0939401657	 0.019394167	-0.171493
C	-2.9263960164	-2.213576612	 0.6328463032	-0.08311
C	-2.7710337541	-1.7451772719	-0.7786462663	-0.064069
C	-2.6142469598	-0.2845699025	-0.169911545	-0.220256
C	-3.3276334696	-0.8255730263	 1.1185890265	 0.137046
O	-4.7315751297	-0.7173269468	 1.0856355508	-0.441523
H	 0.7002818966	 1.6463340863	 0.0814887233	 0.30392
H	-0.8618987256	-2.9513687743	-0.0801031503	 0.107156
H	-3.2913369001	-3.1676729463	 0.9911650853	 0.102495
H	-3.1099505348	-2.1143350416	-1.7338840042	 0.109253
H	-2.8994653189	 0.6608065955	-0.6209703311	 0.09518
H	-2.917891663	-0.4748422779	 2.0769221025	 0.075265
H	-4.9638118491	 0.194979672	 1.2870088268	 0.286272
114.9648	180.1377	216.1139	301.002	313.7598	341.3747	390.7665	506.1058	521.4415	644.7961	720.0792	785.6159	795.564	815.7895	842.3642	885.2019	914.1054	936.0244	960.5405	1001.1547	1027.9801	1032.369	1064.9369	1107.2408	1135.3626	1140.0324	1163.8426	1201.8281	1219.9316	1283.269	1318.7095	1342.9729	1412.6064	1435.0184	1796.1096	2998.0235	3175.1303	3201.2188	3224.4895	3244.1284	3815.3594	3825.3908
ON=C1C2C3C2C1C3O	ON=C1[C@H]2[C@@H]3[C@H]2[C@H]1[C@H]3O	
InChI=1S/C6H7NO2/c8-6-3-1-2(3)5(7-9)4(1)6/h1-4,6,8-9H	InChI=1S/C6H7NO2/c8-6-3-1-2(3)5(7-9)4(1)6/h1-4,6,8-9H/t1-,2+,3-,4+,6-/m0/s1
