18
gdb 19084	4.14613	2.05827	1.62401	1.4198	70.27	-0.2463	0.0862	0.3325	828.4573	0.156127	-347.773624	-347.767265	-347.766321	-347.803782	26.435	
C	-0.0315080514	 1.5832509532	 0.0409712753	-0.311923
C	 1.281668088	 0.8272695376	 0.0216409667	-0.040208
C	 2.1529907576	 0.7378996047	 1.2769326624	-0.261561
C	 2.1022671112	-0.673675413	 1.8667049064	-0.040208
C	 1.35338526	-0.949834785	 3.1548138032	-0.311923
C	 0.7362429124	-1.3070656702	 1.8370272063	 0.110805
O	-0.2956228083	-0.4679705281	 1.3849963166	-0.257618
C	-0.0260156109	 0.0871698766	 0.1231357954	 0.110805
H	-0.2902661803	 2.1174850187	 0.9493922949	 0.118208
H	-0.3787926268	 2.0463203708	-0.8763244414	 0.109347
H	 1.8065059138	 0.7777953414	-0.9269591069	 0.085622
H	 3.1851527488	 1.0048259239	 1.035017469	 0.10449
H	 1.815497605	 1.4670101503	 2.0201595018	 0.107875
H	 2.949950692	-1.3136598139	 1.6440012217	 0.085622
H	 1.698953038	-1.7540562767	 3.7953467187	 0.109347
H	 0.9230307209	-0.1017314841	 3.6774092365	 0.118208
H	 0.6199852049	-2.3538969197	 1.5610189808	 0.081556
H	-0.3928612452	-0.5013133664	-0.7163066872	 0.081556
138.1164	292.8364	305.9973	421.792	450.4488	479.36	528.4858	696.2766	795.9929	803.7227	807.2549	824.3028	844.9259	894.0576	910.8633	973.6763	1006.1413	1011.9622	1053.2837	1053.3621	1074.5252	1096.2135	1118.5837	1125.1494	1144.932	1164.2286	1175.7764	1217.3842	1229.4227	1257.6377	1309.1336	1350.4922	1377.3314	1381.0389	1410.978	1470.5663	1472.4804	1495.9813	3048.4246	3089.6703	3107.3481	3112.5881	3129.6154	3130.044	3153.6311	3157.6875	3218.8276	3219.2798
C1C2CC3CC3OC12	C1[C@H]2C[C@H]3C[C@H]3O[C@@H]12	
InChI=1S/C7H10O/c1-4-2-6(4)8-7-3-5(1)7/h4-7H,1-3H2	InChI=1S/C7H10O/c1-4-2-6(4)8-7-3-5(1)7/h4-7H,1-3H2/t4-,5+,6+,7-
