15
gdb 131175	3.29527	1.39045	1.05174	1.9677	68.67	-0.2214	-0.0082	0.2131	1084.6295	0.115002	-450.092505	-450.084885	-450.08394	-450.125457	28.211	
O	 1.3629476031	 0.7771091974	-0.2268796104	-0.442363
C	 0.5042630904	-0.2638253649	-0.1358149723	 0.28159
C	 0.0213215162	-1.0257373533	-1.183049897	 0.29941
N	-0.7707223426	-1.9202456066	-0.5280301314	-0.259585
N	-0.7848183675	-1.7279347928	 0.7970127804	-0.126708
N	 0.0043184079	-0.7068523058	 1.0347065486	-0.273296
C	 0.2458627069	-1.0037365218	-2.6357938836	-0.122575
C	 0.4661090571	 0.2874805269	-3.3501303777	-0.239951
N	 1.5766959315	-0.6565843875	-3.1781026111	-0.317547
H	 1.5268428832	 1.087621506	 0.6728413005	 0.31138
H	-1.3195676132	-2.6688640709	-0.9212454851	 0.283044
H	-0.242062122	-1.8106514056	-3.1783611851	 0.093603
H	 0.1077495371	 0.3985238159	-4.3696719321	 0.124975
H	 0.4586250315	 1.1942417602	-2.7529796174	 0.137249
H	 2.1733746104	-0.3375733672	-2.4173919065	 0.250774
39.0791	150.2364	166.7007	319.5012	360.8753	365.0661	433.6873	453.1073	567.5939	673.1034	712.4174	732.8834	746.6283	817.4438	889.5531	966.0338	999.8546	1008.9778	1103.9327	1118.1889	1133.813	1161.0901	1187.6035	1214.5349	1265.0251	1306.9294	1318.8586	1321.0612	1395.2438	1436.0887	1507.3754	1544.4265	1670.726	3115.2333	3126.9353	3207.9641	3499.7401	3649.6743	3792.8011
OC1=C(NN=N1)C1CN1	Oc1c([nH]nn1)[C@H]1CN1	
InChI=1S/C4H6N4O/c9-4-3(2-1-5-2)6-8-7-4/h2,5H,1H2,(H2,6,7,8,9)	InChI=1S/C4H6N4O/c9-4-3(2-1-5-2)6-8-7-4/h2,5H,1H2,(H2,6,7,8,9)/t2-/m1/s1
