19
gdb 35394	2.92813	1.54884	1.28274	0.8964	83.8	-0.2329	0.0493	0.2822	1041.5182	0.159752	-348.663265	-348.655694	-348.65475	-348.695001	31.144	
C	-0.280898064	-1.2773450028	-0.2811316613	-0.470577
C	-0.1539284096	-0.0899574298	-0.1313992263	 0.340443
C	-0.0069904756	 1.3395602395	 0.0460664386	-0.193817
C	-0.2423245813	 1.9722062062	 1.4733564565	-0.274792
C	 1.1367786829	 2.6901791424	 1.3789712642	-0.016216
C	 2.3888325034	 2.007953764	 1.978095595	-0.060288
C	 2.3284253124	 0.5125750463	 1.8763300452	-0.289302
C	 2.6477435275	 1.2962751388	 0.6351807799	-0.05389
C	 1.423642788	 2.0001989812	 0.0177505341	-0.032533
H	-0.3889724311	-2.3247682963	-0.4161845293	 0.191793
H	-0.641828379	 1.8494794322	-0.6862796038	 0.103774
H	-1.1013181931	 2.6458341819	 1.5017630192	 0.103251
H	-0.3437801625	 1.2493774577	 2.2846581051	 0.112841
H	 1.1308498237	 3.7770379809	 1.4572822053	 0.068886
H	 3.0949923	 2.5013884441	 2.6354970791	 0.083019
H	 3.1840693792	 0.0001425644	 2.3060080429	 0.109299
H	 1.4016253135	-0.0407729975	 1.9757679001	 0.123498
H	 3.5833298544	 1.1489689426	 0.1090621859	 0.083534
H	 1.6533945212	 2.5844163142	-0.8733727204	 0.071077
114.2865	136.5484	243.1612	300.279	356.3301	462.4954	505.6801	575.3134	605.8474	624.6065	669.0727	712.1428	736.7404	737.6926	834.6134	866.9737	891.6504	911.5114	926.8471	967.7006	989.2148	1026.3389	1033.4365	1058.3796	1065.5517	1086.0629	1093.1864	1109.11	1159.5229	1185.34	1206.6192	1215.4171	1252.7281	1284.1924	1301.5545	1311.5195	1338.187	1364.4165	1477.6495	1502.0584	2227.046	3042.836	3071.6915	3102.3553	3112.0771	3128.3877	3131.1245	3171.4779	3181.4629	3210.0724	3504.6521
C#CC1CC2C3CC3C12	C#C[C@H]1C[C@H]2[C@H]3C[C@H]3[C@@H]12	
InChI=1S/C9H10/c1-2-5-3-7-6-4-8(6)9(5)7/h1,5-9H,3-4H2	InChI=1S/C9H10/c1-2-5-3-7-6-4-8(6)9(5)7/h1,5-9H,3-4H2/t5-,6+,7-,8+,9-/m0/s1
