16
gdb 76036	2.67795	1.16808	1.04085	3.5041	71.85	-0.2714	-0.0471	0.2243	1181.39	0.12125	-437.892831	-437.883235	-437.882291	-437.927522	33.511	
C	-0.1682157252	 1.5913674149	 0.0403321809	-0.461537
C	-0.0479905905	 0.0855752788	 0.0568400407	 0.15664
C	-1.2492277344	-0.6760755497	-0.401908477	 0.131128
O	-2.2667244288	-0.1644535085	-0.7888381209	-0.245605
C	 1.2824178101	-0.5818025502	-0.224585167	 0.070783
O	 2.3333576893	 0.2614057715	-0.5321683128	-0.401467
C	 0.732428355	-0.6323436473	 1.1881494212	-0.301151
C	 1.3635025974	 0.1446692696	 2.2123077142	 0.308417
N	 1.8962912721	 0.7539306051	 3.0390232502	-0.332335
H	 0.7753607586	 2.065225835	 0.3081218138	 0.152585
H	-0.4564218283	 1.9227511063	-0.9603299861	 0.143648
H	-0.9452435584	 1.9182112165	 0.7358246286	 0.141972
H	-1.1369126751	-1.7855819377	-0.3662910084	 0.072664
H	 1.2629537651	-1.5276733503	-0.7669541555	 0.114417
H	 3.1281942787	-0.0462798759	-0.0814669597	 0.308559
H	 0.3343784242	-1.5841472881	 1.5281144178	 0.141281
81.8672	104.4375	121.4246	138.1562	211.6784	226.9051	258.46	283.0918	364.3546	396.0341	438.4691	540.3109	624.0537	661.4126	749.3859	799.4683	840.1727	957.4697	998.663	1019.872	1076.1114	1102.8599	1123.4295	1157.534	1243.7287	1282.6881	1340.4069	1366.8772	1409.8487	1438.0305	1444.8584	1483.2094	1493.9491	1829.2735	2354.5142	2851.5455	3063.4	3098.3314	3128.6024	3153.9191	3164.0488	3799.6435
CC1(C=O)C(O)C1C#N	C[C@@]1(C=O)[C@@H](O)[C@H]1C#N	
InChI=1S/C6H7NO2/c1-6(3-8)4(2-7)5(6)9/h3-5,9H,1H3	InChI=1S/C6H7NO2/c1-6(3-8)4(2-7)5(6)9/h3-5,9H,1H3/t4-,5+,6+/m1/s1
