14
gdb 66272	2.16589	1.65497	1.46142	3.6493	61.66	-0.2979	-0.033	0.2649	969.3572	0.100137	-473.865728	-473.857553	-473.856609	-473.898716	28.981	
C	-0.150336976	 1.619773332	 0.0751987592	-0.429256
C	 0.0738420437	 0.1141740065	-0.0023875904	 0.051877
O	 0.9707675378	-0.2129375507	-1.0534577543	-0.253882
C	 1.704778572	-1.3353691075	-0.621268655	 0.011904
O	 1.7903312938	-1.2486074035	 0.8023783792	-0.216936
C	 0.8114395376	-0.4306889521	 1.2517576715	 0.438991
O	 0.6012480734	-0.1752069973	 2.3948701962	-0.31911
C	-1.2025200095	-0.6187575387	-0.1638781374	 0.280258
N	-2.1878185923	-1.2049370301	-0.3059658729	-0.319898
H	 0.8167823332	 2.1219824474	 0.1454798142	 0.146253
H	-0.6770396589	 1.9716006154	-0.8137020052	 0.153256
H	-0.7408120236	 1.8502677861	 0.9643279611	 0.166977
H	 1.2066499722	-2.2775880843	-0.8859472794	 0.138447
H	 2.7093633967	-1.2862326934	-1.0441485267	 0.151117
88.3335	137.7633	180.7843	202.0159	219.0189	251.6627	362.878	432.0328	514.9677	582.7415	631.7197	698.3507	754.5876	757.7772	897.2905	923.6744	1005.6935	1066.8346	1131.8258	1148.3755	1179.0338	1184.9069	1228.4294	1245.1735	1406.3576	1435.5866	1477.555	1488.8205	1539.0161	1911.2333	2354.8818	3023.1352	3062.5096	3128.6949	3148.9525	3152.5208
CC1(OCOC1=O)C#N	C[C@]1(OCOC1=O)C#N	
InChI=1S/C5H5NO3/c1-5(2-6)4(7)8-3-9-5/h3H2,1H3	InChI=1S/C5H5NO3/c1-5(2-6)4(7)8-3-9-5/h3H2,1H3/t5-/m0/s1
