17
gdb 70064	3.14369	1.63328	1.29549	1.8636	72.66	-0.2135	0.0135	0.227	980.2289	0.137729	-417.955737	-417.948615	-417.947671	-417.986844	29.15	
O	-0.0638598594	 1.4490440759	 0.2610347589	-0.470237
C	 0.0566399863	 0.0809672777	 0.0266090289	 0.375453
C	-0.4990018451	-0.8040451086	 1.1027065123	-0.315706
C	 0.9979911078	-0.8448241678	 0.8598988521	-0.086093
N	 1.4099810516	-1.9883150684	 0.0519777399	-0.300471
C	 0.9848467208	-1.7078497406	-1.115861996	 0.343107
N	 0.5014096042	-2.3801096892	-2.2393810278	-0.349822
C	-0.6318915396	-1.3868895105	-2.2905289126	-0.212086
C	 0.2353272761	-0.431276172	-1.3853062369	-0.17725
H	 0.7254867378	 1.884020728	-0.0809620507	 0.281796
H	-0.8406421254	-0.2626437974	 1.9784274016	 0.126973
H	-1.0751006494	-1.6898899514	 0.8541119367	 0.11182
H	 1.6771147298	-0.4679645858	 1.6162201927	 0.094014
H	 0.3132613776	-3.3745263752	-2.1749876853	 0.243138
H	-0.8632242286	-1.0367414631	-3.2980341412	 0.121061
H	-1.5362436759	-1.7437266636	-1.7875871342	 0.121818
H	 0.7692770215	 0.2972810519	-2.0033278784	 0.092485
174.8538	211.8668	270.4269	329.822	348.7893	433.3495	469.2632	504.2412	600.6572	655.9212	698.8852	735.1193	795.8276	842.2255	874.6066	897.1398	931.1758	951.9819	973.9087	1014.9113	1028.0698	1059.4951	1081.837	1100.0529	1135.5763	1164.4722	1203.151	1225.029	1237.116	1283.3939	1315.5591	1347.9909	1355.1051	1409.9052	1467.3625	1503.8362	1733.7537	3048.8611	3061.5169	3120.7688	3124.453	3179.155	3219.1986	3546.3358	3789.2748
OC12CC1N=C1NCC21	O[C@]12C[C@H]1[N][C]1NC[C@@H]21	
InChI=1S/C6H8N2O/c9-6-1-4(6)8-5-3(6)2-7-5/h3-4,9H,1-2H2,(H,7,8)	InChI=1S/C6H8N2O/c9-6-1-4(6)8-5-3(6)2-7-5/h3-4,9H,1-2H2,(H,7,8)/t3-,4-,6+/m1/s1
