14
gdb 43275	3.17395	1.52909	1.11385	5.9996	71.89	-0.2334	-0.0961	0.1373	1029.0029	0.101296	-436.689657	-436.682315	-436.681371	-436.721696	27.511	
O	 0.0172760861	-0.0358512957	 0.0154921155	-0.293354
C	-0.0397876865	 1.1680756482	 0.0159376133	 0.290178
C	-1.2252958578	 2.0486111943	 0.0213553332	-0.213643
C	-0.8545286559	 3.3429632447	-0.0045236186	-0.141405
C	 0.6127830231	 3.5282319659	-0.0271458003	 0.177996
C	 1.2962268578	 4.6722177733	-0.7036745359	-0.269939
N	 1.3020998254	 4.5838472185	 0.751152264	-0.32718
C	 1.1891388419	 2.1318195641	-0.0098102665	 0.268694
O	 2.3438160141	 1.8119290423	-0.0371985369	-0.276125
H	-2.2392190743	 1.6714504751	 0.0434030922	 0.134909
H	-1.5365195669	 4.1885183342	 0.0007268979	 0.128611
H	 2.2556573102	 4.4739593808	-1.1731104102	 0.153603
H	 0.6727224625	 5.4147632706	-1.1958670177	 0.125941
H	 0.6078908002	 5.2137116637	 1.15107427	 0.241713
73.8892	212.1925	229.1805	244.989	313.4258	369.7108	463.5083	568.7264	571.5564	672.4683	715.1602	760.9549	796.3474	871.9084	897.6587	935.3702	972.5431	995.9409	1007.5501	1061.2915	1110.0072	1136.0192	1167.9081	1262.8915	1304.1175	1348.5694	1407.8821	1495.4672	1614.9612	1822.352	1870.1708	3106.8667	3172.9811	3202.7483	3228.6815	3477.8173
O=C1C=CC2(CN2)C1=O	O=C1C=C[C@]2(CN2)C1=O	
InChI=1S/C6H5NO2/c8-4-1-2-6(3-7-6)5(4)9/h1-2,7H,3H2	InChI=1S/C6H5NO2/c8-4-1-2-6(3-7-6)5(4)9/h1-2,7H,3H2/t6-/m0/s1
