15
gdb 98502	2.41761	1.45949	0.9854	3.9269	67.78	-0.2857	-0.0257	0.26	1167.3018	0.111894	-453.956848	-453.947925	-453.946981	-453.991167	30.851	
C	-0.3461334113	 1.3663792576	-0.3805946416	-0.249137
O	-0.3731252086	-0.0532901998	-0.6133495174	-0.226947
C	 0.8037197833	-0.6211008865	-0.8609167428	 0.448679
O	 1.8650675775	-0.0458910078	-0.902416993	-0.385306
C	 0.6851472209	-2.1055583232	-1.0974471994	 0.017224
C	 1.4964344858	-2.6207783878	-2.2618414111	-0.239546
N	 1.9266362374	-2.8824472082	-0.9033419561	-0.319002
C	-0.5487957096	-2.7603576595	-0.7332694354	 0.26781
N	-1.5378640427	-3.2922538729	-0.4626553243	-0.334004
H	 0.2913094628	 1.5970043995	 0.4755548282	 0.152791
H	 0.0341294364	 1.8872900561	-1.2620900822	 0.149774
H	-1.3789109975	 1.6476417981	-0.181087403	 0.151741
H	 1.1124912256	-3.4783341088	-2.8046443676	 0.154649
H	 2.0169851844	-1.8681500409	-2.8462857046	 0.148564
H	 2.6491980559	-2.2098318558	-0.6433501797	 0.262711
63.5969	106.8046	127.641	146.6676	224.5268	243.2564	304.7104	331.6761	404.2953	511.445	559.2848	586.9467	769.4833	797.687	865.6128	902.7809	953.3334	1005.4282	1019.6437	1111.4855	1139.5188	1178.0832	1202.131	1233.7702	1300.4621	1342.8594	1366.1487	1474.7653	1483.0301	1493.3295	1494.2968	1805.6933	2367.8775	3060.8727	3124.1651	3140.4214	3175.803	3224.918	3471.5092
COC(=O)C1(CN1)C#N	COC(=O)[C@]1(CN1)C#N	
InChI=1S/C5H6N2O2/c1-9-4(8)5(2-6)3-7-5/h7H,3H2,1H3	InChI=1S/C5H6N2O2/c1-9-4(8)5(2-6)3-7-5/h7H,3H2,1H3/t5-/m1/s1
