18
gdb 62983	2.30689	1.61099	1.2757	2.5762	77.46	-0.2296	0.0264	0.256	1060.1606	0.14517	-401.863064	-401.854206	-401.853261	-401.895937	34.46	
C	-0.148957522	 1.5850824586	-0.1316167207	-0.463582
C	 0.0256693219	 0.0780900533	-0.0461741557	 0.390114
O	-1.2139214181	-0.5674737764	 0.1765706252	-0.469101
C	 0.7262885401	-0.6603927543	-1.1827579259	-0.052161
C	 2.1587894862	-0.3258081422	-1.2757184101	-0.25606
N	 1.7440572608	-1.3194419469	-0.2688167623	-0.132687
C	 1.1559005571	-0.5256187576	 0.8883746997	-0.244887
C	 2.0595695642	 0.3559610885	 1.5959756578	 0.368221
C	 2.7975591218	 1.1127880471	 2.1712619322	-0.465878
H	 0.7928844689	 2.0970718796	-0.3383912545	 0.131191
H	-0.8670498082	 1.8299636955	-0.9201000834	 0.127734
H	-0.5290793528	 1.9796158975	 0.8188616673	 0.11512
H	-1.6557928392	-0.1232665798	 0.9086171915	 0.280732
H	 0.1883643022	-1.2258127559	-1.9360186549	 0.105451
H	 2.7202206384	-0.7725320282	-2.0903821457	 0.126618
H	 2.5337154565	 0.6385764977	-0.9445832438	 0.124301
H	 0.6914692968	-1.239263503	 1.5730812416	 0.113953
H	 3.4547379156	 1.7658319066	 2.6906246515	 0.200921
117.2818	136.0674	205.5419	220.2799	266.5979	290.1723	372.0387	378.6449	394.5851	479.5707	546.7732	551.5709	625.2222	647.9573	657.4351	758.0979	787.8619	834.3233	896.5675	967.9696	976.1922	1000.1432	1044.469	1057.3517	1113.2663	1117.8453	1134.5152	1167.675	1180.0688	1216.1449	1244.2209	1325.7839	1339.8575	1403.5118	1412.9651	1484.1602	1490.7593	1505.8889	2224.472	3030.4608	3080.9892	3098.6474	3119.786	3132.9916	3175.044	3206.2804	3500.9921	3803.0567
CC1(O)C2CN2C1C#C	C[C@@]1(O)[C@H]2CN2[C@H]1C#C	
InChI=1S/C7H9NO/c1-3-5-7(2,9)6-4-8(5)6/h1,5-6,9H,4H2,2H3	InChI=1S/C7H9NO/c1-3-5-7(2,9)6-4-8(5)6/h1,5-6,9H,4H2,2H3/t5-,6+,7-,8?/m0/s1
