15
gdb 14827	3.62702	1.49799	1.14291	1.7708	70.38	-0.254	0.0198	0.2738	1038.4116	0.11724	-362.616572	-362.60831	-362.607366	-362.649792	28.892	
C	-0.0722201319	 1.4500526737	 0.1206694966	-0.340608
N	-0.056771884	-0.0034750942	 0.2118147584	-0.317652
C	-1.0961493361	-0.6456905903	-0.0287386129	 0.471205
O	-2.3686667997	-0.2274813389	-0.3885764207	-0.262351
C	-2.842783812	-1.5976549393	-0.5061411682	-0.086062
C	-1.4603940555	-2.1326165941	-0.0357271057	-0.341415
C	-0.7281755075	-3.0115546879	-0.9218319523	 0.336977
C	-0.1378971198	-3.7441948102	-1.6687500284	-0.450229
H	 0.7146001137	 1.7696845128	-0.5706415029	 0.131846
H	-1.0287017784	 1.8684762756	-0.2131480386	 0.127552
H	 0.1729916977	 1.8715925037	 1.1015862582	 0.130449
H	-3.6843707407	-1.7857474149	 0.164028612	 0.125238
H	-3.1028842271	-1.84112357	-1.5379854119	 0.133328
H	-1.4907792228	-2.539908876	 0.9797276227	 0.13717
H	 0.3966186141	-4.3854654599	-2.325151546	 0.204552
83.2317	101.5262	108.7422	181.1634	226.6781	265.5814	394.0901	483.3688	554.4389	631.253	645.86	672.1824	728.0999	814.685	923.8805	978.2811	1044.3534	1060.2131	1093.5678	1107.6097	1133.2687	1161.0961	1177.9844	1201.0794	1319.0024	1353.0836	1439.4006	1493.952	1497.3308	1515.4993	1855.7109	2244.9872	3019.8381	3063.7761	3070.2313	3087.3575	3091.5174	3134.6611	3503.7496
CN=C1OCC1C#C	CN=C1OC[C@H]1C#C	
InChI=1S/C6H7NO/c1-3-5-4-8-6(5)7-2/h1,5H,4H2,2H3	InChI=1S/C6H7NO/c1-3-5-4-8-6(5)7-2/h1,5H,4H2,2H3/t5-/m1/s1
