19
gdb 75886	2.36946	1.58915	1.22127	1.0297	71.26	-0.2568	-0.0371	0.2197	1085.135	0.156685	-460.189667	-460.180422	-460.179477	-460.223119	34.981	
C	 0.2377955399	 1.4635544528	 0.0180179438	-0.422155
C	-0.0472387953	-0.0406662806	 0.0424258924	 0.325926
C	-1.5375060493	-0.3335760843	-0.0361347126	-0.43641
O	 0.567862664	-0.7071159749	-1.093769002	-0.294503
C	 1.9408184462	-0.9370802384	-0.8318598519	-0.186003
C	 2.070630245	-0.8888977091	 0.6827150071	 0.330314
O	 3.0671896987	-0.864222267	 1.3595643574	-0.322678
C	 0.6580728603	-0.7366957859	 1.2298404697	 0.022617
O	 0.6307123461	-0.0643477707	 2.4546356891	-0.438174
H	 1.3117925149	 1.6753664321	 0.0403167313	 0.116117
H	-0.1792215534	 1.9049681993	-0.8910117642	 0.123013
H	-0.20839075	 1.947284687	 0.8898288977	 0.138919
H	-1.9670257955	 0.1080990099	-0.9399377859	 0.124689
H	-1.7131705601	-1.4124876366	-0.0633292049	 0.121199
H	-2.0509086879	 0.0851215278	 0.8342179594	 0.132186
H	 2.234829914	-1.9122276921	-1.2368174128	 0.140102
H	 2.5959436785	-0.1748628688	-1.2794830945	 0.13084
H	 0.2313635739	-1.7524290612	 1.3185327259	 0.098957
H	 1.5334440299	-0.1093795693	 2.804986895	 0.295045
89.3866	162.6329	187.9263	211.2983	240.2616	254.7391	299.4745	341.7893	387.3419	415.5845	455.0195	522.9942	563.0471	622.3868	663.1631	754.2413	806.1753	873.1139	938.9868	978.616	998.5243	1029.9692	1079.4341	1105.5335	1149.3966	1164.9495	1198.4875	1220.5116	1272.4079	1289.1815	1334.4166	1358.949	1397.161	1408.6729	1417.8073	1473.3851	1480.741	1481.4792	1497.51	1503.9695	1852.2436	2943.7698	2999.1554	3041.8275	3045.9638	3062.8482	3110.9167	3119.1329	3123.0894	3136.3359	3710.7885
CC1(C)OCC(=O)C1O	CC1(C)OCC(=O)[C@H]1O	
InChI=1S/C6H10O3/c1-6(2)5(8)4(7)3-9-6/h5,8H,3H2,1-2H3	InChI=1S/C6H10O3/c1-6(2)5(8)4(7)3-9-6/h5,8H,3H2,1-2H3/t5-/m1/s1
