17
gdb 32854	6.28758	0.80467	0.72345	2.6959	72.91	-0.1867	0.0394	0.2261	1538.9544	0.136357	-455.179156	-455.170261	-455.169317	-455.213423	32.342	
C	 0.0712891817	 1.4498783315	-0.0641054368	-0.395716
C	-0.1437759331	-0.0456702889	 0.1406554342	-0.12276
N	 0.710838016	-0.5396334038	 1.215189589	-0.397671
C	 0.8663337154	-1.8717851481	 1.4520345427	 0.526469
N	 1.2991428708	-2.4275863194	 2.5520600016	-0.456413
C	 1.3346443297	-3.7744702966	 2.2362295218	 0.330617
O	 1.7419554273	-4.6831204372	 3.1425341742	-0.4329
C	 0.9173529871	-3.9847714814	 0.9681455988	-0.176652
O	 0.6027853776	-2.7221562783	 0.448449257	-0.192804
H	 1.1146890008	 1.6632666156	-0.3125525956	 0.133714
H	-0.5630229637	 1.8163710957	-0.8757021705	 0.127014
H	-0.1868836071	 2.0154777291	 0.8386231278	 0.118865
H	-1.2062781322	-0.2517336534	 0.342992345	 0.106836
H	 0.1167770034	-0.5941924486	-0.7681560913	 0.137053
H	 0.7295121084	 0.008818894	 2.0623158036	 0.254489
H	 1.9734645848	-4.1875854305	 3.937012096	 0.303259
H	 0.773054453	-4.8293392998	 0.3231831123	 0.136601
50.4896	75.5333	135.3284	231.6387	263.5162	337.4701	347.6079	351.4962	375.7801	503.3029	553.457	583.3167	687.4524	696.8999	761.3918	785.9128	817.0536	921.0777	994.4751	1031.9418	1072.2001	1094.0415	1146.4133	1177.9854	1197.29	1276.4217	1297.1758	1364.0339	1389.2125	1415.4507	1436.5265	1473.918	1494.4529	1500.179	1525.1658	1673.2479	1712.6302	2984.2636	3037.0981	3088.2765	3110.5065	3125.8965	3328.3411	3617.5988	3810.3672
CCNC1=NC(O)=CO1	CCNc1nc(O)co1	
InChI=1S/C5H8N2O2/c1-2-6-5-7-4(8)3-9-5/h3,8H,2H2,1H3,(H,6,7)	InChI=1S/C5H8N2O2/c1-2-6-5-7-4(8)3-9-5/h3,8H,2H2,1H3,(H,6,7)
