15
gdb 78134	2.45076	1.56921	1.27692	4.574	68.98	-0.2488	-0.0289	0.2199	1017.3434	0.111847	-453.921052	-453.912816	-453.911872	-453.954486	29.721	
O	-0.4597533417	 1.4815753894	 0.11556441	-0.417336
C	-0.2789746989	 0.1125256125	 0.0458697858	 0.129394
C	-1.3710422268	-0.9049938263	-0.03203666	-0.091181
C	-0.4027566882	-0.7478748942	-1.2187692001	-0.289265
C	-1.6016629679	-0.2774808153	-2.0196409305	 0.417776
O	-1.8088123829	 0.0722504388	-3.1396735175	-0.313947
N	-2.4574409438	-0.4079547322	-0.8810298868	-0.106526
C	-3.5972757661	 0.2671058312	-0.4658700044	 0.050631
N	-4.2927804716	 0.9837785452	-1.2479418945	-0.415807
H	-1.177447426	 1.751893795	-0.4691278963	 0.311531
H	 0.5674198821	-0.1722484149	 0.6655000939	 0.132193
H	-1.5189955001	-1.7633088377	 0.6110986874	 0.127053
H	 0.3830590882	-1.4003853241	-1.5712066971	 0.128726
H	-3.8032113086	 0.0766460705	 0.5957571598	 0.103339
H	-5.0936595675	 1.3694549622	-0.7508703597	 0.233419
56.5248	126.832	156.5326	174.2903	214.3722	303.5558	443.1389	455.8007	503.6378	669.2337	698.531	747.0662	772.4258	816.5141	826.4324	850.9653	918.1756	964.1847	1023.0178	1059.9939	1061.8467	1086.4762	1110.5733	1168.1155	1215.3572	1264.1929	1288.6644	1324.9966	1374.7396	1418.2569	1449.8849	1716.1006	1908.2237	3033.1218	3159.3838	3196.853	3228.5887	3505.1915	3803.5343
OC1C2C1C(=O)N2C=N	O[C@H]1[C@@H]2[C@H]1C(=O)N2[CH][NH]	
InChI=1S/C5H6N2O2/c6-1-7-3-2(4(3)8)5(7)9/h1-4,6,8H	InChI=1S/C5H6N2O2/c6-1-7-3-2(4(3)8)5(7)9/h1-4,6,8H/t2-,3+,4-/m1/s1
