17
gdb 14328	4.52831	1.721	1.43879	2.47	67.33	-0.2151	-0.0202	0.195	881.839	0.143698	-363.865471	-363.858675	-363.857731	-363.89708	26.096	
O	 0.0340833021	 0.0161090636	-0.4570986406	-0.298043
C	-0.00253805	 1.1801724379	-0.1618909684	 0.386963
C	-1.266784143	 2.0471430427	-0.0307165139	-0.356416
C	-0.7533025838	 3.4861056344	 0.1155863545	 0.023159
C	-1.007553177	 4.1988570445	 1.4656158869	-0.245035
C	 0.3928413329	 3.6948735502	 1.8912907032	-0.168216
N	 0.7065633108	 3.3935296038	 0.4708655092	-0.079736
C	 1.216207867	 2.0740803648	 0.144693591	-0.295582
H	-1.9248828107	 1.8819651038	-0.8868790024	 0.135611
H	-1.809312166	 1.7044106359	 0.8589271494	 0.133779
H	-0.9445868293	 4.0740027142	-0.787689263	 0.080012
H	-1.059110595	 5.2842952424	 1.366743209	 0.115693
H	-1.8605419273	 3.8513333862	 2.0508220306	 0.105637
H	 1.0723559302	 4.4168488038	 2.3548548193	 0.107951
H	 0.3490198959	 2.8013184074	 2.5326560898	 0.090304
H	 1.8048220103	 1.6410820491	 0.9610739826	 0.132012
H	 1.8638322929	 2.0897633053	-0.7429128072	 0.131905
46.2872	128.966	329.934	346.8324	443.9155	468.4257	577.1362	638.6633	690.8572	756.8546	777.0075	801.7864	858.0118	920.9407	958.9192	968.6928	1001.9188	1055.802	1098.5026	1123.5077	1143.8035	1180.0054	1197.6704	1209.6764	1234.9867	1252.8851	1271.2315	1281.8383	1293.7415	1329.5643	1366.4537	1447.184	1460.8193	1488.4765	1524.562	1850.8693	2983.9677	3014.651	3042.4032	3046.4586	3064.6878	3072.3667	3081.1654	3108.9727	3134.6983
O=C1CC2CCN2C1	O=C1C[C@H]2CCN2C1	
InChI=1S/C6H9NO/c8-6-3-5-1-2-7(5)4-6/h5H,1-4H2	InChI=1S/C6H9NO/c8-6-3-5-1-2-7(5)4-6/h5H,1-4H2/t5-/m1/s1
