21
gdb 100925	1.94691	1.24625	0.91287	1.9664	76.52	-0.2397	-0.0242	0.2155	1394.2769	0.177487	-461.346471	-461.335148	-461.334204	-461.383916	38.416	
C	-0.0104239949	 1.3592869155	-0.0219045534	-0.235979
O	-0.0379922343	-0.0501150271	-0.043979002	-0.256643
C	 0.6012387023	-0.6408724557	-1.1687343487	 0.119853
C	 2.1249016134	-0.6288793672	-1.0547653838	-0.412082
C	 0.0349838061	-2.0652926759	-1.2808208716	 0.023803
O	 0.4982872102	-2.8445058571	-0.2025980567	-0.241949
C	 0.3612359389	-4.2347648857	-0.4107960443	-0.240331
C	-1.4946890713	-1.979325713	-1.28180021	 0.149709
O	-2.1415760348	-1.6372196497	-2.236486825	-0.2587
H	 1.0046078905	 1.7595523291	 0.112199554	 0.109333
H	-0.4338852644	 1.7867509747	-0.9438023522	 0.110492
H	-0.6211671221	 1.6767457471	 0.8266990354	 0.130951
H	 0.2855797584	-0.1148810892	-2.0842349893	 0.084528
H	 2.4361028092	-1.1836374711	-0.1678579252	 0.144545
H	 2.5770729189	-1.0935718203	-1.9369101021	 0.114821
H	 2.5039965898	 0.3942993478	-0.9883290181	 0.117415
H	 0.3576721275	-2.4868993721	-2.2463276376	 0.08623
H	 0.7443715789	-4.7333895465	 0.4821944859	 0.134701
H	-0.6873581931	-4.5342747385	-0.5583121573	 0.113026
H	 0.9393374078	-4.5701041729	-1.2855796342	 0.111175
H	-1.9578077171	-2.248719572	-0.3076104336	 0.095102
50.9794	66.3349	81.7317	107.6533	175.503	176.5911	191.5374	215.7814	243.8973	287.2175	302.0681	352.0457	432.5217	476.9543	557.5082	673.6892	800.9814	895.4443	954.4652	988.1845	1040.5833	1080.3654	1113.6212	1133.714	1140.3299	1179.5394	1181.5074	1185.0752	1215.1477	1235.1823	1282.166	1346.1235	1361.2004	1381.5043	1394.8288	1403.5646	1476.1827	1481.5862	1482.5468	1490.0968	1493.2069	1499.9884	1507.6992	1510.7019	1833.9168	2899.5327	2974.7374	2977.864	2981.8291	2988.9787	3026.1985	3032.62	3049.1459	3112.8606	3115.549	3122.1188	3145.0289
COC(C)C(OC)C=O	CO[C@@H](C)[C@@H](OC)C=O	
InChI=1S/C6H12O3/c1-5(8-2)6(4-7)9-3/h4-6H,1-3H3	InChI=1S/C6H12O3/c1-5(8-2)6(4-7)9-3/h4-6H,1-3H3/t5-,6-/m0/s1
