16
gdb 66812	3.71442	1.82507	1.81393	0.8239	68.89	-0.2386	0.0694	0.308	811.5852	0.126355	-400.664924	-400.659065	-400.658121	-400.694726	25.465	
O	-0.1129778941	 1.4184883273	 0.1030066126	-0.466375
C	 0.0316967139	 0.0499091243	 0.0556477488	 0.39283
C	-1.0498474547	-1.0163098318	 0.0865911945	-0.144752
C	-0.1739135955	-0.837643272	-1.1453679959	-0.124136
N	 0.8543686935	-1.8841937419	-1.2480137478	-0.117572
C	 0.7213048068	-2.7832368474	-0.093566378	-0.056248
C	 1.7857124258	-1.7364437593	-0.1093754637	-0.06513
C	 0.9890269215	-0.8518159735	 0.8833092136	-0.16924
C	-0.1342868079	-1.9517430297	 0.9043709032	-0.071323
H	 0.5440146309	 1.8156904088	-0.480246947	 0.287612
H	-2.1301339346	-0.941065154	 0.0823660234	 0.095759
H	-0.5901367864	-0.4468940979	-2.0646893216	 0.099115
H	 0.7549782145	-3.8566916514	-0.2396455908	 0.092918
H	 2.8549257709	-1.7919278589	-0.2806194409	 0.091237
H	 1.433917108	-0.4793580145	 1.8019759977	 0.078668
H	-0.4773963327	-2.386013538	 1.839381992	 0.076637
231.5112	302.0032	334.3569	556.3382	567.3235	599.59	708.8538	751.4854	773.3554	805.2409	811.119	843.3494	847.8333	872.7991	899.7175	911.525	921.8144	936.2269	974.3485	986.6671	1035.5457	1042.8483	1060.3847	1104.1023	1140.5374	1156.7048	1185.7834	1194.5467	1214.1438	1242.3963	1250.6828	1263.1182	1304.2735	1331.496	1449.2349	3153.0369	3160.784	3168.7488	3182.9912	3190.4885	3209.0062	3786.9876
OC12C3C1N1C4C1C2C34	O[C@@]12[C@H]3[C@@H]1N1[C@H]4[C@@H]1[C@@H]2[C@@H]34	
InChI=1S/C7H7NO/c9-7-2-1-3(7)6(7)8-4(1)5(2)8/h1-6,9H	InChI=1S/C7H7NO/c9-7-2-1-3(7)6(7)8-4(1)5(2)8/h1-6,9H/t1-,2-,3+,4+,5-,6-,7-,8?/m0/s1
