15
gdb 67413	2.77173	1.59504	1.30194	5.8686	71.46	-0.2486	-0.0012	0.2474	987.2355	0.113345	-416.742404	-416.735046	-416.734101	-416.774068	28.757	
N	-0.151431503	 1.4525266488	 0.1633914905	-0.620594
C	-0.0064371688	 0.0760581442	-0.0139620953	 0.20917
C	-1.056183816	-1.013093955	-0.0873552966	-0.180151
C	-0.4007176597	-1.6698887457	-1.2983274162	-0.233539
C	 0.9047337577	-0.9935954456	-0.8146185412	-0.011645
O	 1.2053912606	-1.6854703228	 0.427102586	-0.316358
C	 0.0721361535	-1.0442791364	 0.9932787601	 0.356797
C	-0.1664047401	-1.0696783254	 2.3949849942	 0.19996
N	-0.3673490709	-1.0714131666	 3.5345288434	-0.348449
H	 0.7110571194	 1.9172472413	 0.4227383609	 0.251661
H	-0.5606827839	 1.9183530986	-0.6382387453	 0.245841
H	-2.0979530801	-0.9524506235	 0.1989144257	 0.119934
H	-0.3788798534	-2.7607360958	-1.3629009921	 0.1175
H	-0.7685289645	-1.231719785	-2.229593391	 0.112047
H	 1.7783602592	-0.8398917012	-1.4434466529	 0.097825
119.073	162.7026	229.0935	308.1129	359.5944	433.8197	491.8645	529.8456	552.0304	590.0355	662.8576	736.0127	762.0433	786.4073	840.8041	916.5554	934.4532	946.0841	971.8974	1004.8215	1065.6162	1102.9562	1125.8314	1130.1675	1219.4184	1245.2121	1267.4599	1277.0428	1329.8326	1475.6498	1495.284	1656.5015	2350.6874	3062.0698	3123.8098	3156.7276	3215.5103	3515.5859	3599.0831
NC12C3CC1OC23C#N	N[C@@]12[C@H]3C[C@@H]1O[C@@]23C#N	
InChI=1S/C6H6N2O/c7-2-5-3-1-4(9-5)6(3,5)8/h3-4H,1,8H2	InChI=1S/C6H6N2O/c7-2-5-3-1-4(9-5)6(3,5)8/h3-4H,1,8H2/t3-,4-,5+,6-/m0/s1
