17
gdb 98109	4.99975	0.77668	0.68054	0.7674	75.96	-0.2436	-0.0879	0.1557	1619.5931	0.130782	-421.825621	-421.81522	-421.814275	-421.862789	35.593	
C	 0.009580313	 1.5834729297	 0.0108267074	-0.385235
C	-0.036844268	 0.058305976	 0.0032472546	-0.276401
C	-1.4417887746	-0.4969866058	 0.0137685982	 0.292544
O	-2.4449123802	 0.1791612903	 0.0272814927	-0.285508
C	-1.5661474507	-2.042695908	 0.005854577	 0.2885
O	-0.5801029395	-2.7341007664	-0.0074039876	-0.26016
C	-3.0017089298	-2.5667962197	 0.0163347054	-0.484014
C	-3.1056075918	-4.0140689345	 0.0104876589	 0.314174
C	-3.1910636652	-5.2115500232	 0.0056703025	-0.413358
H	 1.0447828363	 1.9341431716	 0.002919992	 0.118072
H	-0.5017853428	 1.9963270433	-0.8627102994	 0.132356
H	-0.4852201562	 1.9870633978	 0.8981190997	 0.132376
H	 0.478020503	-0.3660570498	-0.8685594642	 0.143169
H	 0.4943897059	-0.375064563	 0.8607023174	 0.143172
H	-3.5056919038	-2.1284806392	 0.8878226348	 0.170137
H	-3.5209532255	-2.1205472861	-0.8421137845	 0.170114
H	-3.2675256203	-6.2706675129	 0.0014469451	 0.200062
34.2168	42.4555	61.4236	105.4966	191.2539	198.1346	282.8368	317.7579	320.3552	353.4884	402.2521	512.5861	577.7741	631.8544	650.9833	698.1356	776.4869	803.4453	870.2059	918.6393	993.4909	1016.1185	1077.4973	1096.6731	1185.2784	1192.4389	1260.8117	1337.1263	1375.2555	1417.0808	1418.1802	1433.7599	1495.5728	1498.4764	1798.8974	1817.7394	2250.5631	3032.3826	3036.2822	3052.5391	3054.2279	3058.2826	3125.3576	3126.1964	3506.5874
CCC(=O)C(=O)CC#C	CCC(=O)C(=O)CC#C	
InChI=1S/C7H8O2/c1-3-5-7(9)6(8)4-2/h1H,4-5H2,2H3	InChI=1S/C7H8O2/c1-3-5-7(9)6(8)4-2/h1H,4-5H2,2H3
