19
gdb 99800	2.38744	0.97537	0.86343	3.3928	85.63	-0.2474	0.0161	0.2636	1485.6766	0.156338	-382.046824	-382.035727	-382.034783	-382.084086	38.196	
C	-0.062836893	 1.4548215366	 0.1168527941	-0.339399
N	-0.0991381413	 0.008419798	-0.1008498242	-0.287312
C	 0.6840896404	-0.5033416736	-1.2359855501	-0.094502
C	 0.0697949704	-0.0256643977	-2.5732055679	-0.393758
C	 2.10534003	-0.0378036946	-1.174362348	 0.27598
N	 3.1824669459	 0.372435923	-1.0812486451	-0.353264
C	 0.6832255659	-1.9705894875	-1.1756845996	 0.05948
C	 0.6759532531	-3.1723877376	-1.1273368804	 0.125309
C	 0.6714840249	-4.6262224988	-1.0670002293	-0.502852
H	 0.9521050766	 1.8774746011	 0.175102933	 0.129338
H	-0.6060638169	 1.9719914988	-0.6790078759	 0.131055
H	-0.580135182	 1.6676465044	 1.0556026435	 0.128483
H	 0.2081036256	-0.4741844397	 0.7362874828	 0.234688
H	 0.1258227241	 1.0613453828	-2.6604625516	 0.134047
H	 0.6092041205	-0.4684885529	-3.4122563247	 0.141519
H	-0.9750827723	-0.3402233302	-2.60287026	 0.140984
H	 0.5346523304	-5.0620502055	-2.0623027243	 0.155929
H	 1.6148257632	-5.0068174754	-0.661400252	 0.158409
H	-0.1399089356	-4.9910520313	-0.4282907402	 0.155865
28.5176	82.028	88.392	111.2001	160.9324	199.5753	214.9033	270.4661	285.8777	308.4607	355.1165	393.5112	457.9146	503.1272	539.4703	601.0321	660.3321	762.1178	857.5184	898.9367	1032.4129	1052.0511	1052.7393	1067.7606	1113.5434	1154.004	1160.1584	1205.3465	1272.8316	1396.9787	1413.4617	1457.0486	1475.4465	1476.5395	1478.5466	1484.0477	1496.5011	1499.232	1521.9487	2338.9919	2379.475	2990.2978	3032.9258	3060.5244	3084.0366	3096.824	3097.3426	3120.5071	3143.8495	3151.9984	3537.4687
CNC(C)(C#N)C#CC	CN[C@@](C)(C#N)C#CC	
InChI=1S/C7H10N2/c1-4-5-7(2,6-8)9-3/h9H,1-3H3	InChI=1S/C7H10N2/c1-4-5-7(2,6-8)9-3/h9H,1-3H3/t7-/m1/s1
