19
gdb 96267	2.29618	1.53387	0.99635	3.3123	72.32	-0.2609	0.0101	0.271	1193.2839	0.159593	-460.200152	-460.191683	-460.190739	-460.233326	32.054	
C	-0.1356690902	 1.4816273452	 0.0318199348	-0.399829
C	 0.0495407619	-0.0308833764	 0.0505890591	 0.114866
C	 0.7648365651	-0.5240171501	-1.2278402183	-0.344129
C	 0.6039940091	-2.007567265	-1.5245546008	 0.396515
O	 0.0551257525	-2.4216614583	-2.5091481024	-0.317016
O	 1.0892916941	-2.9033053986	-0.6268984216	-0.221437
C	 1.7757965767	-2.4860471841	 0.5588060139	-0.089175
C	 0.9122289716	-1.6955436402	 1.5362936584	-0.087038
O	 0.7907457026	-0.325566263	 1.226529625	-0.24891
H	 0.8319153348	 1.9839344799	-0.0655157315	 0.126355
H	-0.7718767874	 1.7835838241	-0.8043792302	 0.123391
H	-0.6002783728	 1.8106163481	 0.9645035583	 0.129296
H	-0.9383970317	-0.517673529	 0.1140168684	 0.084155
H	 0.355208674	-0.0108586284	-2.0994098593	 0.133789
H	 1.825877175	-0.2588147598	-1.147468719	 0.126885
H	 2.0862957133	-3.4230139043	 1.0285281589	 0.128187
H	 2.6772316529	-1.9146169839	 0.3068053895	 0.120367
H	-0.0759900361	-2.1785427244	 1.6082641114	 0.106691
H	 1.3834496149	-1.7352113819	 2.5240833755	 0.117037
81.6587	131.3454	198.0952	224.4873	285.7149	326.4377	340.6379	379.7993	457.2067	488.7962	547.2913	593.2229	681.8699	799.7236	837.4302	883.5233	921.764	951.5204	975.3944	1050.1248	1097.2276	1110.0931	1124.8667	1141.1637	1156.1303	1195.4691	1262.7717	1287.171	1301.9336	1335.4842	1374.5706	1385.3639	1408.372	1410.5018	1416.9011	1459.6068	1477.5833	1485.0209	1493.5225	1499.2528	1842.233	2962.7484	2981.4201	3037.4977	3044.4748	3047.9387	3078.3211	3105.0743	3118.7273	3124.5001	3131.3151
CC1CC(=O)OCCO1	C[C@H]1CC(=O)OCCO1	
InChI=1S/C6H10O3/c1-5-4-6(7)9-3-2-8-5/h5H,2-4H2,1H3	InChI=1S/C6H10O3/c1-5-4-6(7)9-3-2-8-5/h5H,2-4H2,1H3/t5-/m0/s1
