17
gdb 8226	5.06545	1.23671	1.05178	4.0777	64.93	-0.2359	0.034	0.2699	1099.3015	0.142722	-401.018554	-401.010411	-401.009466	-401.052185	29.197	
N	 0.1712401937	 0.2583638555	-0.9802419308	-0.508268
C	-0.124167107	 0.1127972815	 0.3429212825	 0.364907
O	 0.3533493051	 0.8097548946	 1.2171537586	-0.36059
C	-1.1544308271	-0.984482045	 0.6365941943	-0.305994
C	-0.8014857798	-2.3500044039	 0.0591368663	 0.14296
C	-1.9021350192	-3.4357227345	 0.0883727255	-0.296087
C	-1.8160129095	-3.3811465078	-1.4492876042	-0.06389
O	-0.7911896791	-2.3622301835	-1.3983582985	-0.295996
H	 0.9070226849	 0.9015000962	-1.2240583861	 0.25374
H	-0.119412095	-0.4458902206	-1.64335238	 0.272518
H	-1.2377590466	-1.0580956711	 1.7239300403	 0.128802
H	-2.1285883481	-0.6715149152	 0.2404870282	 0.116724
H	 0.1712711227	-2.6826921623	 0.4425961529	 0.092714
H	-1.6117131205	-4.3836597252	 0.5423528871	 0.119038
H	-2.8519145226	-3.1082353	 0.5149492247	 0.116793
H	-1.451405282	-4.2913568824	-1.9384933135	 0.111587
H	-2.71374209	-3.0315415964	-1.9715414474	 0.111041
49.2497	68.6971	114.3868	187.6898	322.6542	349.3289	423.5246	470.2772	555.1653	606.1762	714.9955	775.5254	800.6943	861.4128	878.4273	911.2588	968.5634	991.98	1022.9816	1087.8629	1118.2866	1138.5573	1167.11	1209.108	1228.4391	1260.3164	1278.5023	1309.4465	1356.7927	1372.1341	1392.6709	1458.1311	1491.6613	1531.2029	1621.879	1803.2838	3022.2148	3029.2343	3039.8719	3069.7634	3083.1303	3111.7337	3139.5318	3551.9784	3701.6865
NC(=O)CC1CCO1	NC(=O)C[C@H]1CCO1	
InChI=1S/C5H9NO2/c6-5(7)3-4-1-2-8-4/h4H,1-3H2,(H2,6,7)	InChI=1S/C5H9NO2/c6-5(7)3-4-1-2-8-4/h4H,1-3H2,(H2,6,7)/t4-/m1/s1
