18
gdb 90820	3.82892	1.68	1.50356	1.581	73.04	-0.2346	0.0769	0.3115	921.1321	0.149855	-401.889265	-401.882706	-401.881762	-401.919993	27.166	
C	-0.0557269997	 1.5691573142	-0.0370151564	-0.403319
C	 0.0106036426	 0.0494236909	 0.0160238375	 0.133738
O	 0.7127199247	-0.4408994893	-1.1514847218	-0.294445
C	 1.7266559209	-1.30029286	-0.684027773	 0.119889
C	 1.2484306103	-2.5447081846	 0.0756390283	-0.086968
C	 2.090224179	-2.2332782265	 1.2560588673	-0.068901
C	 2.2457078609	-0.7873715346	 0.692728995	-0.129133
C	 0.809368928	-0.5214831642	 1.1890823884	-0.014797
N	 0.6181744853	-2.0179250061	 1.3406623289	-0.156573
H	 0.9436560084	 2.0081014372	 0.0491804889	 0.116856
H	-0.4863519805	 1.8923554931	-0.988640318	 0.130152
H	-0.6793302833	 1.9578864859	 0.7746350679	 0.115348
H	-1.0019511012	-0.3773504092	 0.0225921756	 0.090644
H	 2.4589416669	-1.4775559555	-1.4714231525	 0.088024
H	 0.8766612943	-3.4895866259	-0.2983147793	 0.09939
H	 2.6556870068	-2.85147851	 1.938131509	 0.103335
H	 3.0762895309	-0.0922856274	 0.7816497419	 0.07689
H	 0.6687211359	-0.021642008	 2.1475168424	 0.07987
130.0269	218.2709	270.5191	380.0981	427.3868	537.2263	664.0899	695.2518	758.7543	782.7955	818.7098	844.0196	852.8797	890.1631	902.4445	931.2476	936.6026	955.511	995.0783	1017.3996	1029.2355	1041.5463	1082.88	1116.3934	1129.7144	1150.7425	1154.1304	1193.7462	1213.7751	1237.6855	1250.385	1303.7312	1308.5089	1326.2789	1361.9252	1382.5839	1407.9209	1486.5577	1495.8206	3011.8507	3036.626	3107.8944	3116.5377	3119.7282	3126.0137	3152.2577	3201.0036	3224.9947
CC1OC2C3C4C2C1N34	C[C@H]1O[C@@H]2[C@H]3[C@H]4[C@@H]2[C@@H]1N34	
InChI=1S/C7H9NO/c1-2-4-3-5-6(8(4)5)7(3)9-2/h2-7H,1H3	InChI=1S/C7H9NO/c1-2-4-3-5-6(8(4)5)7(3)9-2/h2-7H,1H3/t2-,3+,4-,5-,6-,7+,8?/m1/s1
