20
gdb 12554	3.27256	1.81349	1.2505	1.174	77.17	-0.2403	0.0152	0.2555	1017.2846	0.178177	-349.011742	-349.003803	-349.002859	-349.044403	30.528	
C	 0.2812248208	 1.6149772504	-0.0920558581	-0.401227
C	-0.0391125213	 0.122730495	-0.0431382864	 0.084628
O	 0.5653207636	-0.4477040925	-1.1962175233	-0.248577
C	 0.1018851505	-1.7285018823	-1.5714653832	-0.06511
C	 0.7280353181	-2.868174266	-0.7678742758	-0.190445
C	 0.2446090096	-2.9761606857	 0.6849822696	-0.253774
C	 0.5213457675	-1.7865130658	 1.5729199363	-0.077978
C	 0.4025619972	-0.4931996129	 1.2725755914	-0.035645
H	 1.3621672741	 1.7709553614	-0.0212885771	 0.127113
H	-0.0691489131	 2.0452575923	-1.0329877066	 0.119126
H	-0.2002538836	 2.1408392341	 0.73774679	 0.112302
H	-1.1350406765	-0.0032678839	-0.1305720274	 0.071856
H	-0.9994051533	-1.7725546185	-1.5019779312	 0.078763
H	 0.3672285543	-1.8399335336	-2.6286785348	 0.100517
H	 0.5053058676	-3.8117040491	-1.2829852757	 0.089872
H	 1.8162066914	-2.7391741215	-0.7869504178	 0.108358
H	-0.8395511547	-3.1720951235	 0.6841898579	 0.109598
H	 0.6973656605	-3.8645840717	 1.1389869703	 0.101447
H	 0.8253545776	-2.0312056754	 2.5890866961	 0.086659
H	 0.6134632398	 0.2278734991	 2.060378456	 0.082516
34.4121	184.8676	238.7829	274.8913	298.2846	348.0862	373.5405	431.2194	502.1697	550.3872	694.2737	724.0136	788.0188	836.1665	875.4307	893.9422	964.8708	974.6506	999.4792	1033.5235	1079.8489	1103.0652	1107.9133	1149.203	1170.3776	1221.7697	1255.0082	1287.9692	1309.9107	1330.7705	1361.9997	1381.0307	1386.9104	1405.7771	1418.3547	1430.73	1470.437	1477.5624	1486.7105	1492.7209	1499.7945	1725.4602	2916.3171	2952.5251	2985.7255	3021.7331	3043.6214	3056.7663	3061.4315	3074.4573	3115.8621	3126.1373	3129.9212	3151.9883
CC1OCCCC=C1	C[C@H]1OCCCC=C1	
InChI=1S/C7H12O/c1-7-5-3-2-4-6-8-7/h3,5,7H,2,4,6H2,1H3	InChI=1S/C7H12O/c1-7-5-3-2-4-6-8-7/h3,5,7H,2,4,6H2,1H3/t7-/m1/s1
