16
gdb 33481	2.22983	1.72572	1.16672	1.073	80.35	-0.2423	0.0209	0.2631	1068.1801	0.122166	-363.483863	-363.475537	-363.474593	-363.516492	32.23	
C	 0.0454765747	-1.2207462149	-0.0099968764	-0.44819
C	 0.018238199	-0.0193024498	-0.0240260783	 0.279956
C	-0.0000688035	 1.4389146563	 0.0077745418	-0.054323
C	-0.1777301985	 2.1259901072	 1.4241247381	-0.201269
N	 1.1279601458	 2.8498668002	 1.3211944418	-0.123698
C	 2.1601608381	 1.8015377263	 1.2083572493	-0.248639
C	 1.3814121597	 2.1464687868	 0.0080877345	-0.055125
C	-0.9104061588	 1.9829679213	-0.9923558344	 0.251291
C	-1.6505700377	 2.4544336585	-1.8126802704	-0.421768
H	 0.064022094	-2.2826500531	-0.015450572	 0.199666
H	-1.0100571383	 2.8289013495	 1.4346880367	 0.136152
H	-0.2480264217	 1.4386360914	 2.2716023284	 0.118289
H	 3.1695840343	 2.1946192085	 1.2750630427	 0.128216
H	 2.0046741567	 0.8426814343	 1.6972981729	 0.126858
H	 1.7865770135	 2.6543849108	-0.8598746541	 0.113464
H	-2.3087105074	 2.8615030766	-2.5400341905	 0.199121
125.137	127.3316	159.6873	172.7124	304.9058	417.5376	473.762	483.4108	540.8922	555.3808	573.1254	631.4014	635.4348	641.7077	645.9191	750.5747	790.6217	848.5065	922.7343	943.7343	981.5649	1032.5726	1065.8533	1101.0493	1111.3015	1130.6625	1187.1258	1221.5759	1239.3463	1283.3113	1349.4429	1486.3263	1505.5709	2234.2896	2241.515	3064.7388	3111.2129	3145.5103	3178.1144	3206.0453	3500.6718	3502.283
C#CC1(CN2CC12)C#C	C#CC1(CN2C[C@@H]12)C#C	
InChI=1S/C8H7N/c1-3-8(4-2)6-9-5-7(8)9/h1-2,7H,5-6H2	InChI=1S/C8H7N/c1-3-8(4-2)6-9-5-7(8)9/h1-2,7H,5-6H2/t7-,9?/m0/s1
