18
gdb 38772	3.09399	1.59833	1.18092	3.0259	76.15	-0.2514	0.0015	0.2529	1035.2255	0.15038	-401.905375	-401.898382	-401.897437	-401.936515	28.613	
C	-0.0030008987	 1.5062992022	-0.0012444274	-0.259898
C	 1.4096011322	 2.0619499511	 0.0044595017	-0.0258
N	 1.6866814978	 3.1548572797	 0.9538480588	-0.337225
C	 2.2915279663	 1.8187979136	 1.1755428463	-0.080019
C	 1.8353093483	 1.0712135458	 2.3812561631	-0.038775
C	 1.0862561208	-0.0325586233	 2.3801976345	-0.085832
C	 0.5672703642	-0.7305562579	 1.1707084672	 0.011053
O	-0.8545690117	-0.6708942586	 0.9365590346	-0.261791
C	 0.0162900832	-0.0112721113	 0.0131105077	 0.055957
H	-0.5194484852	 1.8544538642	 0.8950027402	 0.136328
H	-0.562384869	 1.8779228986	-0.866787597	 0.099967
H	 1.903339878	 2.1088769111	-0.9649221934	 0.082886
H	 2.3833603083	 3.7883163731	 0.5695762445	 0.23067
H	 3.3602329607	 1.738646991	 0.9750154554	 0.091989
H	 2.1653638674	 1.4800380628	 3.3349031247	 0.098919
H	 0.827512015	-0.4975003036	 3.3299069057	 0.100617
H	 0.9774327966	-1.7293306226	 1.0051998506	 0.094202
H	 0.0795249657	-0.5038448359	-0.9587828169	 0.086754
146.6103	224.3257	305.2751	332.304	349.3661	415.5246	448.3304	569.2706	613.446	732.2654	794.4126	805.5796	815.4739	832.1333	848.3655	928.5795	963.2222	980.4982	1000.562	1012.9085	1023.883	1031.1483	1100.2077	1128.0659	1152.3973	1175.9651	1203.5711	1224.8342	1255.1182	1273.4519	1294.9566	1322.6384	1376.6216	1401.5396	1429.6917	1467.1655	1478.7615	1489.6993	1720.2214	3049.7152	3076.107	3092.7329	3095.1841	3113.0184	3129.2146	3132.2582	3154.5947	3497.7568
C1C2NC2C=CC2OC12	C1[C@H]2N[C@H]2C=C[C@H]2O[C@@H]12	
InChI=1S/C7H9NO/c1-2-6-7(9-6)3-5-4(1)8-5/h1-2,4-8H,3H2	InChI=1S/C7H9NO/c1-2-6-7(9-6)3-5-4(1)8-5/h1-2,4-8H,3H2/t4-,5+,6+,7-/m0/s1
