23
gdb 111971	3.19901	1.06731	0.88323	1.2945	87.07	-0.2308	0.0283	0.259	1396.0214	0.205691	-388.299397	-388.289715	-388.288771	-388.333474	37.318	
C	-0.2998628436	 1.5458702879	-0.0331018878	-0.411056
C	 0.0567795288	 0.0560887412	-0.0055941194	-0.011961
C	 0.9018888089	-0.4185042834	-1.1710391566	-0.079496
C	 1.7442346378	-1.3834331815	-0.8102229864	-0.071416
C	 1.6053821234	-1.7141806968	 0.6600770632	-0.005812
C	 2.9080648209	-2.1215559179	 1.3428530725	-0.109944
O	 3.3131701038	-3.356329699	 0.762815559	-0.424904
C	 0.8746365264	-0.4562993255	 1.2280990158	-0.039933
C	 1.839874131	 0.6004499569	 1.7847554475	-0.393843
H	 0.5907277739	 2.1802670114	-0.0669561859	 0.118358
H	-0.9010308468	 1.7741285616	-0.9197502142	 0.110401
H	-0.887845834	 1.8337916121	 0.8450552846	 0.110862
H	-0.8939591461	-0.5015790364	-0.0276180537	 0.077771
H	 0.7746670925	-0.031586056	-2.1770756911	 0.08418
H	 2.4206298294	-1.9259531902	-1.4598132597	 0.099283
H	 0.9386671852	-2.5856469783	 0.7592276105	 0.086868
H	 3.6781056293	-1.3500106582	 1.1969118918	 0.087711
H	 2.7463846799	-2.2301504547	 2.4279290143	 0.083148
H	 4.1792769761	-3.5828010389	 1.1134828008	 0.285287
H	 0.1931071702	-0.7481551436	 2.0350132498	 0.062408
H	 2.547334151	 0.9453410285	 1.0236407331	 0.120194
H	 1.293606268	 1.4733823797	 2.1527171071	 0.111974
H	 2.4167338138	 0.2047617512	 2.6261377348	 0.10992
74.3029	127.1386	182.0656	233.269	257.5698	273.3477	278.8657	302.957	321.3344	336.2572	419.2363	491.0581	576.913	670.3152	733.8807	762.1534	794.8287	834.2937	881.1795	944.0281	974.3762	1007.4741	1020.4775	1040.2931	1063.0166	1079.8459	1088.8425	1111.3393	1132.9647	1148.8856	1177.5249	1240.9199	1249.8091	1257.0106	1298.8492	1304.9931	1331.7235	1362.218	1371.0951	1387.0339	1407.3513	1413.7333	1455.0248	1493.7058	1496.1071	1506.6241	1512.6769	1523.8747	1680.492	2959.5154	2962.32	2973.7389	3010.1022	3031.5219	3039.4751	3039.6338	3093.7681	3103.6701	3109.2548	3110.3667	3177.0642	3213.3412	3831.0029
CC1C=CC(CO)C1C	C[C@H]1C=C[C@@H](CO)[C@H]1C	
InChI=1S/C8H14O/c1-6-3-4-8(5-9)7(6)2/h3-4,6-9H,5H2,1-2H3	InChI=1S/C8H14O/c1-6-3-4-8(5-9)7(6)2/h3-4,6-9H,5H2,1-2H3/t6-,7-,8-/m0/s1
