20
gdb 58095	2.28162	1.40399	1.10912	4.7253	70.59	-0.2515	0.0072	0.2587	1176.4949	0.169601	-477.464906	-477.454996	-477.454052	-477.499155	37.462	
C	 0.1331145439	 1.6179588773	 0.0460676595	-0.403441
C	 0.0219964612	 0.096197282	 0.0901693995	 0.119028
O	 0.6629254709	-0.3320170008	 1.2688828907	-0.439964
C	-1.4474321403	-0.4333959024	 0.0161446067	 0.058004
C	-2.2743519014	-0.0099087645	 1.2408992368	-0.416055
N	-2.1500934122	-0.0214491718	-1.2151048853	-0.568057
H	-1.4968875416	 0.0886023943	-1.9867298429	 0.246369
H	-2.7334068107	-1.7821591856	-1.2567283663	 0.30992
H	-2.6205754909	 0.8674378778	-1.0873491153	 0.247333
C	-1.4137913169	-1.9859396343	 0.0094318575	 0.4517
O	-0.6562557196	-2.6423475116	 0.6889469742	-0.371172
O	-2.3161102113	-2.5459373914	-0.7913646833	-0.363048
H	 1.1903095672	 1.8942393052	 0.057253672	 0.136565
H	-0.3203137379	 2.0373482745	-0.8564193288	 0.096581
H	-0.3364982504	 2.0700161088	 0.92388619	 0.128653
H	 0.5372703323	-0.3114931707	-0.8015674305	 0.060352
H	 0.5139929191	-1.2913710174	 1.3218461666	 0.300405
H	-2.4134644944	 1.0756786415	 1.2532571884	 0.119488
H	-3.2609620816	-0.4819091719	 1.2281397224	 0.128462
H	-1.7506756954	-0.2969971389	 2.153136468	 0.158874
78.9753	111.1146	198.9932	214.6454	231.6437	270.5231	276.591	322.9589	336.3012	369.4703	398.3658	412.0852	488.0586	594.4294	636.4761	670.7983	743.5598	769.7133	836.0511	897.189	918.7193	940.3678	960.9204	1003.5278	1066.0814	1098.6534	1153.6693	1167.1488	1197.8424	1248.8874	1302.8437	1339.702	1376.1282	1398.7412	1407.8553	1433.4807	1469.7545	1486.6317	1488.6919	1495.4988	1509.363	1650.4954	1825.3001	2904.4206	3044.9361	3050.6477	3110.4557	3123.0687	3127.2509	3155.887	3407.6415	3492.0867	3583.5653	3648.2378
CC(O)C(C)([NH3+])C([O-])=O	C[C@@H](O)[C@@](C)(N)C(=O)O	
InChI=1S/C5H11NO3/c1-3(7)5(2,6)4(8)9/h3,7H,6H2,1-2H3,(H,8,9)	InChI=1S/C5H11NO3/c1-3(7)5(2,6)4(8)9/h3,7H,6H2,1-2H3,(H,8,9)/t3-,5-/m1/s1
