20
gdb 71126	2.82504	1.86	1.58894	0.8263	77.	-0.22	0.0813	0.3014	940.629	0.173613	-403.145893	-403.138657	-403.137713	-403.177003	29.986	
C	 0.0251590845	 1.5013653384	 0.0717298054	-0.451992
C	 0.0218554469	-0.0093929282	-0.0588389628	 0.353857
C	 0.5435212896	-0.5700589275	-1.3994791902	-0.251753
C	 0.0431955685	-2.0012894471	-1.3320822631	-0.050095
C	 0.0985470782	-2.6259712191	 0.0140847466	-0.036135
C	 0.8230763589	-1.9238595202	 1.1448296288	-0.103224
O	 0.8646968477	-0.5096383832	 0.9908384078	-0.306497
N	-1.174580035	-2.0619724664	-0.4736831865	-0.130351
C	-1.3591222804	-0.6891786172	 0.0434748395	-0.195545
H	 1.0464938309	 1.8870575433	 0.0037673297	 0.125754
H	-0.5748222157	 1.9598542845	-0.7197196882	 0.113602
H	-0.384271931	 1.8021380427	 1.0405186403	 0.12366
H	 0.1011150232	-0.0466111853	-2.2549146407	 0.100349
H	 1.6315060957	-0.4831709124	-1.4633736277	 0.108742
H	 0.030744173	-2.6158754179	-2.2268020763	 0.087805
H	 0.0964644202	-3.7111864452	 0.093619261	 0.091054
H	 0.3319907895	-2.1727396243	 2.0991702823	 0.1015
H	 1.8555862057	-2.2933906427	 1.2118793537	 0.106718
H	-1.7278126682	-0.7057043385	 1.0736729765	 0.109678
H	-2.1028165224	-0.1821431338	-0.5807923464	 0.102876
163.2291	204.392	273.3754	285.6428	406.9865	419.3892	459.8812	477.6583	577.6958	687.8965	707.391	762.5523	784.56	851.263	868.5461	885.3934	911.6361	960.9215	974.5345	1013.5198	1015.4033	1057.3231	1074.8534	1118.2264	1147.191	1154.1716	1185.6452	1212.7139	1225.4334	1250.8943	1261.107	1268.0056	1298.1922	1348.3508	1356.7935	1398.6849	1411.4726	1442.5571	1477.5137	1482.0988	1494.798	1499.149	1525.2429	2973.9251	3018.	3038.7042	3040.2899	3047.2392	3092.3498	3098.1631	3115.0579	3119.1838	3125.8298	3156.4332
CC12CC3C(CO1)N3C2	C[C@@]12C[C@H]3[C@@H](CO1)N3C2	
InChI=1S/C7H11NO/c1-7-2-5-6(3-9-7)8(5)4-7/h5-6H,2-4H2,1H3	InChI=1S/C7H11NO/c1-7-2-5-6(3-9-7)8(5)4-7/h5-6H,2-4H2,1H3/t5-,6+,7-,8?/m0/s1
