15
gdb 43249	3.68697	1.78872	1.45175	4.7856	71.74	-0.2377	-0.0674	0.1703	868.66	0.114303	-416.724349	-416.71808	-416.717136	-416.754845	25.65	
O	-0.0858239983	 0.1031206099	 0.5004593085	-0.309403
C	-0.0744825884	 1.1885861081	-0.0079270662	 0.362331
C	-1.2633681024	 2.071835108	-0.3001332789	-0.258226
C	-0.7466979983	 3.2416116882	-0.7027059058	 0.169349
N	-0.6472063541	 4.5482310457	-0.0621351855	-0.360334
C	 0.8503017311	 4.225912467	 0.0118200166	-0.027215
C	 1.253869509	 3.0426639943	 0.9625304342	-0.191094
N	 1.1533269333	 1.9952965424	-0.1730138928	-0.186742
C	 0.7167934493	 3.1192876544	-1.0350952877	-0.045735
H	-2.219301463	 1.8708079874	 0.162447424	 0.132226
H	-0.7789927347	 5.3439174833	-0.6863476674	 0.242143
H	 1.5108441624	 5.0910134377	-0.0324779544	 0.098123
H	 2.2893747269	 3.1195763694	 1.2964667881	 0.136163
H	 0.6029548836	 2.8490653458	 1.8174429587	 0.140244
H	 1.0672746736	 3.1658121183	-2.0671263013	 0.09817
126.489	258.7365	330.3687	420.7896	479.0429	598.7571	637.6741	689.8972	727.7511	739.3607	761.1491	780.4376	832.9026	877.5172	888.9663	926.5296	960.6934	963.8768	1025.2605	1028.0008	1036.1974	1095.939	1145.3458	1173.5789	1187.9629	1228.9555	1237.1954	1271.4416	1297.9918	1342.0487	1482.2509	1633.4427	1843.7015	3077.0463	3101.9262	3122.8217	3141.4935	3237.4373	3462.2415
O=C1C=C2NC3CN1C23	O=C1[CH][C]2N[C@H]3CN1[C@@H]23	
InChI=1S/C6H6N2O/c9-5-1-3-6-4(7-3)2-8(5)6/h1,4,6-7H,2H2	InChI=1S/C6H6N2O/c9-5-1-3-6-4(7-3)2-8(5)6/h1,4,6-7H,2H2/t4-,6-/m0/s1
