14
gdb 10014	3.69949	1.52644	1.11105	3.5762	65.68	-0.2482	-0.0691	0.1791	1015.6462	0.105255	-415.88398	-415.875518	-415.874574	-415.91764	28.588	
C	 0.8940769971	 1.9341467369	 0.1112922007	-0.326311
N	 0.8164554078	 0.533855376	 0.4757447874	-0.274656
C	 0.5772926077	-0.3887730488	-0.3607621034	 0.311025
N	 0.5785068753	-1.707705803	 0.1354948543	-0.32912
C	-0.0116290261	-2.7870172518	-0.4661684617	 0.159004
O	-0.5316048014	-2.7722431798	-1.5599327644	-0.30147
C	 0.4034600498	-0.2460886773	-1.8631776443	 0.10251
O	-0.1731989507	 0.6874540817	-2.3596913522	-0.243047
H	 1.003549873	 2.1347654134	-0.9578703809	 0.141966
H	-0.0219432297	 2.4319321152	 0.4515175217	 0.144507
H	 1.7246278589	 2.385559009	 0.6633268263	 0.127647
H	 0.866310843	-1.7853915247	 1.1023437122	 0.26376
H	 0.0507514593	-3.6928255192	 0.1640437518	 0.102994
H	 0.905648726	-1.0229077177	-2.4664171072	 0.121192
59.6698	87.2388	122.1591	213.1424	239.679	278.8967	315.4832	384.1057	401.5148	525.1514	609.6438	667.1517	833.5012	854.9056	980.3384	1030.7551	1058.2848	1111.8481	1132.0946	1171.4339	1270.7552	1423.5736	1433.8859	1443.0049	1477.4116	1482.7169	1503.6753	1719.6944	1798.5315	1810.9522	2972.059	2975.2974	3027.441	3083.4855	3112.4414	3589.8505
CN=C(NC=O)C=O	CN=C(NC=O)C=O	
InChI=1S/C4H6N2O2/c1-5-4(2-7)6-3-8/h2-3H,1H3,(H,5,6,8)	InChI=1S/C4H6N2O2/c1-5-4(2-7)6-3-8/h2-3H,1H3,(H,5,6,8)
