17
gdb 56663	2.67867	1.31415	1.03415	3.7631	70.23	-0.2357	0.0094	0.2451	1159.4322	0.13252	-458.892045	-458.882593	-458.881649	-458.925895	36.096	
O	-0.4622392428	 1.2627035893	 0.0737763693	-0.425813
C	-0.056348963	-0.1100325125	 0.0208884272	-0.097508
C	 0.7525892521	-0.3808159741	-1.1700611027	 0.258664
C	 1.466818644	-0.579139243	-2.1171725932	-0.427389
C	 0.6909330946	-0.5641900838	 1.2846563069	 0.32023
O	 1.0451639103	-1.9143302728	 1.2341829821	-0.461493
C	 1.5930250145	 0.4051582938	 2.0309819744	-0.39788
C	 0.2723534679	-0.0539073782	 2.6292958475	 0.097115
O	-0.8062409154	 0.8015815863	 2.8182165072	-0.432636
H	 0.2921168993	 1.8034721902	-0.1860111706	 0.298354
H	-0.9878456562	-0.6851384125	-0.0361348099	 0.141055
H	 2.0717639964	-0.7580409554	-2.9723696732	 0.210644
H	 1.7152978985	-2.015266741	 0.545649113	 0.284952
H	 2.5135813847	 0.0085587865	 2.4450950733	 0.118739
H	 1.6497023666	 1.4327649111	 1.685126666	 0.097926
H	 0.337380753	-0.7786722578	 3.4343676249	 0.120142
H	-0.9296913745	 1.2971921039	 1.9962929976	 0.294896
61.8188	129.5866	208.8306	223.0016	251.5327	300.7691	321.5517	349.699	388.7536	412.6555	467.4447	503.424	568.2273	583.1226	595.152	638.8715	690.0173	727.0496	846.4119	905.8168	940.947	951.4662	1008.7451	1019.3559	1056.8544	1103.3448	1162.7337	1216.4482	1251.7089	1284.4824	1314.7848	1354.684	1382.6589	1407.2203	1443.2353	1498.8792	2228.7772	3050.7857	3126.6846	3171.5372	3219.8527	3498.388	3730.5672	3760.6746	3810.883
OC(C#C)C1(O)CC1O	O[C@@H](C#C)[C@@]1(O)C[C@H]1O	
InChI=1S/C6H8O3/c1-2-4(7)6(9)3-5(6)8/h1,4-5,7-9H,3H2	InChI=1S/C6H8O3/c1-2-4(7)6(9)3-5(6)8/h1,4-5,7-9H,3H2/t4-,5+,6-/m0/s1
