18
gdb 87645	2.72595	1.28244	1.11252	1.4169	74.53	-0.254	0.0144	0.2684	1173.4794	0.145817	-439.063153	-439.054001	-439.053057	-439.09718	33.544	
C	 0.0850167301	 1.5486953069	 0.3038698921	-0.407283
C	-0.0309277039	 0.0458541611	 0.1789874736	-0.067395
C	 1.1327030304	-0.7741429607	-0.3778799743	-0.375888
C	 0.7636969403	-0.8495692726	 1.0600715434	 0.433238
O	 1.6324112618	-0.3296618766	 2.1081432609	-0.271095
C	 1.1819793423	-1.2903745761	 2.9888102514	 0.404545
N	 1.3998329098	-1.4726697212	 4.2090246112	-0.557974
C	 0.3099994205	-1.9944596307	 1.9570798255	-0.105238
O	-1.0705865404	-2.0312169867	 2.2066414801	-0.426477
H	 1.0913281051	 1.8403504899	 0.6172268124	 0.129741
H	-0.1316825806	 2.0382621247	-0.6509634984	 0.120984
H	-0.6185970179	 1.9338442646	 1.0489347844	 0.127783
H	-1.0254550477	-0.3266636254	-0.0526349686	 0.110506
H	 0.9278853895	-1.6303407139	-1.0125375529	 0.122717
H	 2.0431273205	-0.2347747713	-0.6200649526	 0.127368
H	 2.0200259619	-0.7597877226	 4.5969711201	 0.231699
H	 0.7053842436	-2.9759784518	 1.6602068047	 0.100718
H	-1.1972953451	-2.4448013674	 3.068224887	 0.302052
79.2349	123.8215	134.1339	167.0685	191.3831	259.6688	270.865	369.6757	430.9577	493.1092	545.9066	554.881	683.4149	788.1721	799.1277	864.914	873.0356	890.3784	918.4861	978.8104	1022.8243	1025.4288	1047.1603	1101.7884	1132.8131	1157.9073	1166.3045	1186.5859	1199.1752	1296.6207	1299.5954	1342.2356	1394.4181	1414.6833	1440.1167	1489.115	1493.0098	1512.9264	1832.3999	3009.0207	3037.7501	3101.3792	3113.6729	3125.9478	3148.8276	3214.4212	3476.0105	3807.2949
CC1CC11OC(=N)C1O	C[C@H]1C[C@]21O[C]([NH])[C@H]2O	
InChI=1S/C6H9NO2/c1-3-2-6(3)4(8)5(7)9-6/h3-4,7-8H,2H2,1H3	InChI=1S/C6H9NO2/c1-3-2-6(3)4(8)5(7)9-6/h3-4,7-8H,2H2,1H3/t3-,4+,6+/m0/s1
