18
gdb 105464	2.2503	1.30308	1.04082	3.1778	71.79	-0.2648	0.0123	0.277	1206.3495	0.145774	-439.05992	-439.050438	-439.049493	-439.094942	34.203	
O	 0.4237762154	 1.0130552298	-0.1681895926	-0.412605
C	-0.0799927111	-0.227521467	 0.2937082535	-0.142658
C	-1.5755507622	-0.367619459	 0.0966905444	 0.393583
C	-2.1192989166	-1.0683701587	-1.1147135944	-0.326865
C	-2.214656036	-1.7229576953	 0.248230807	-0.311698
O	-2.3483929196	 0.7582937391	 0.4559075388	-0.27712
C	-2.1131805668	 1.2905740232	 1.7394681455	-0.212876
C	-2.4401631001	 0.3634137623	 2.8400489378	 0.254726
N	-2.6909939156	-0.3622230886	 3.703514713	-0.311437
H	 0.0795330912	 1.1590666396	-1.0560163191	 0.289726
H	 0.4131327489	-1.0847102901	-0.1898490997	 0.099412
H	 0.1811641575	-0.2750034307	 1.3569858561	 0.122603
H	-3.0318178538	-0.6638118932	-1.5367217082	 0.131942
H	-1.4171794604	-1.4701080999	-1.8374703778	 0.117254
H	-1.5781346231	-2.5739554349	 0.4655960427	 0.122496
H	-3.1882221619	-1.7501649766	 0.7216298177	 0.138813
H	-1.0752572565	 1.627747252	 1.8529455456	 0.164911
H	-2.7590117794	 2.169468678	 1.8244360297	 0.159791
42.2167	85.712	107.2689	196.5819	224.8215	272.1045	314.4289	346.8678	359.6985	388.4473	450.3983	527.5146	638.8889	720.3706	774.7301	865.8933	905.4116	927.2487	931.9065	972.9988	1020.7929	1052.2779	1060.3751	1082.5991	1085.9022	1110.7381	1188.2016	1205.5485	1275.6049	1289.5386	1326.5271	1375.8273	1395.5231	1430.5588	1454.587	1480.1401	1495.434	1511.1502	2356.9168	2989.9095	3037.4483	3061.132	3094.6984	3136.3093	3142.7578	3224.7469	3239.4763	3809.269
OCC1(CC1)OCC#N	OCC1(CC1)OCC#N	
InChI=1S/C6H9NO2/c7-3-4-9-6(5-8)1-2-6/h8H,1-2,4-5H2	InChI=1S/C6H9NO2/c7-3-4-9-6(5-8)1-2-6/h8H,1-2,4-5H2
