17
gdb 109418	2.47413	1.39846	1.06042	3.0419	69.19	-0.2488	-0.0234	0.2253	1140.9817	0.134774	-458.939195	-458.930661	-458.929716	-458.972383	32.293	
O	 0.0546666337	 1.4215845616	-0.1798566981	-0.422163
C	 0.1566846455	 0.0434532582	 0.1282074912	-0.087163
C	-1.2275135766	-0.5995345913	 0.092022639	-0.2289
C	-1.9603281865	-0.6105210021	-1.271575255	 0.431531
O	-2.2174399907	 0.2882387883	-2.0319112993	-0.341161
C	-2.2676771368	-2.0664998291	-1.2108492905	-0.28306
C	-0.9416513498	-2.825299874	-1.0129761021	-0.314739
C	-1.4834488942	-2.1168434868	 0.1589376	 0.408772
O	-1.7645251068	-2.8187742307	 1.3022094572	-0.448691
H	-0.4836255605	 1.4983650521	-0.9787560269	 0.298351
H	 0.8361800407	-0.4769779094	-0.5657660595	 0.089062
H	 0.6001871292	-0.0270098924	 1.1272366021	 0.113415
H	-1.88202284	-0.0750531997	 0.8025542541	 0.102744
H	-3.1474540101	-2.5819245957	-1.574918255	 0.118207
H	-1.0864615345	-3.9008801161	-0.9826783402	 0.139495
H	-0.0372764903	-2.5101596494	-1.5241755686	 0.130877
H	-2.4058510222	-2.3208033033	 1.8227053715	 0.293423
104.3196	109.692	151.0301	226.0723	269.43	359.1229	381.3167	421.3059	460.284	492.6172	519.5138	584.2996	664.8628	744.3521	773.8544	812.3964	903.1156	955.025	971.4114	1005.8815	1068.3702	1071.0997	1089.2787	1112.972	1126.4071	1156.0747	1202.7402	1218.8838	1240.4664	1312.9405	1342.4293	1387.29	1437.6514	1447.8878	1510.3139	1518.5397	1854.2978	2974.0044	3021.4327	3065.6969	3124.7672	3200.8168	3211.6242	3762.2853	3790.6057
OCC1C(=O)C2CC12O	OC[C@H]1C(=O)[C@H]2C[C@@]12O	
InChI=1S/C6H8O3/c7-2-4-5(8)3-1-6(3,4)9/h3-4,7,9H,1-2H2	InChI=1S/C6H8O3/c7-2-4-5(8)3-1-6(3,4)9/h3-4,7,9H,1-2H2/t3-,4+,6+/m1/s1
