13
gdb 20736	3.55893	1.9268	1.25978	4.3922	66.35	-0.2608	-0.0204	0.2404	890.6405	0.097631	-357.692558	-357.685477	-357.684533	-357.724218	25.269	
C	-0.0354352207	 1.4769254544	-0.0321663556	-0.501243
C	-0.0112098702	-0.0147071944	 0.0256330884	 0.275983
N	-0.0317350939	-0.7545844641	-1.0742911019	-0.268106
N	 0.0003023895	-2.0347169204	-0.6384721754	-0.181197
C	 0.0406804003	-2.144086044	 0.7008118229	-0.112441
C	 0.0348220501	-0.8461271435	 1.1872854512	 0.049395
C	 0.0675289823	-0.4351560122	 2.5394369209	 0.193532
N	 0.093483867	-0.0756379395	 3.6406046902	-0.349011
H	 0.85355282	 1.9044487335	 0.4427435747	 0.146847
H	-0.0712130166	 1.8058697937	-1.0720163756	 0.14777
H	-0.9072003404	 1.8778672884	 0.4949684961	 0.146852
H	-0.0079378842	-2.7789205856	-1.3157391026	 0.287543
H	 0.0698588366	-3.0938287762	 1.2098612667	 0.164077
86.2367	136.977	177.7099	273.5292	337.3669	518.2417	547.2422	553.4433	584.4805	667.9552	712.1206	712.2837	819.766	945.2569	1009.4244	1067.8712	1082.4328	1147.4794	1217.1072	1328.8861	1379.8304	1415.9809	1478.2917	1480.6669	1488.6027	1513.0866	1592.116	2345.8599	3044.4426	3099.4458	3143.5943	3273.3492	3673.9891
CC1=NNC=C1C#N	Cc1n[nH]cc1C#N	
InChI=1S/C5H5N3/c1-4-5(2-6)3-7-8-4/h3H,1H3,(H,7,8)	InChI=1S/C5H5N3/c1-4-5(2-6)3-7-8-4/h3H,1H3,(H,7,8)
