20
gdb 107425	2.74475	1.4637	1.34393	1.1885	77.32	-0.2231	0.0688	0.2918	1075.4148	0.171572	-403.112032	-403.104001	-403.103057	-403.144549	31.638	
C	-0.2256148958	 1.5580664245	-0.1426757916	-0.381802
C	 0.1686983996	 0.0861566355	 0.0343554959	-0.282132
C	 0.7609061984	-0.5322608367	-1.2140595339	 0.310994
C	 1.8934462125	-1.497047703	-1.1831736014	-0.293455
N	 2.1268938079	-0.1125425004	-1.6233091622	-0.146932
C	 2.1292587402	 0.1205884936	-3.085452578	-0.199859
C	 0.7330265879	-0.1760960555	-3.6107754013	 0.036473
O	 0.3273333695	-1.5416314462	-3.447085967	-0.253552
C	-0.094719632	-0.5842464612	-2.4658812271	-0.021978
H	 0.6437319393	 2.1489999062	-0.4462559191	 0.131857
H	-1.0019875565	 1.6847718622	-0.9049054001	 0.112569
H	-0.6117061371	 1.9751308516	 0.7921372945	 0.114532
H	 0.9054207758	 0.0032469424	 0.8399558992	 0.108035
H	-0.7024958159	-0.5052601392	 0.3459700229	 0.098627
H	 2.3589896311	-1.7439593162	-0.2316919303	 0.106915
H	 1.8963963866	-2.2890142724	-1.9247564438	 0.132107
H	 2.3694967615	 1.1753713384	-3.2635817043	 0.111749
H	 2.8971163487	-0.4857298179	-3.5773644783	 0.119852
H	 0.3469398608	 0.3260685575	-4.4959048914	 0.09879
H	-1.1666410326	-0.4187648132	-2.4031585228	 0.097211
80.0936	140.8054	201.7652	255.6608	308.0021	337.9415	406.749	457.9107	551.3973	583.8966	722.275	754.6823	767.676	806.848	821.2445	866.5949	901.4693	920.2418	948.4432	973.5245	1009.5091	1045.1023	1051.7821	1081.1768	1102.8352	1119.5476	1132.4488	1166.5484	1230.3435	1237.8043	1261.9695	1290.2692	1318.2868	1342.8401	1357.095	1389.9015	1406.9852	1430.6078	1475.8242	1483.3203	1498.2192	1502.4142	1508.1136	3023.8417	3035.7743	3036.6104	3071.7191	3080.9854	3102.9713	3105.0771	3114.44	3130.5383	3155.9438	3203.4363
CCC12CN1CC1OC21	CC[C@]12CN1C[C@H]1O[C@@H]21	
InChI=1S/C7H11NO/c1-2-7-4-8(7)3-5-6(7)9-5/h5-6H,2-4H2,1H3	InChI=1S/C7H11NO/c1-2-7-4-8(7)3-5-6(7)9-5/h5-6H,2-4H2,1H3/t5-,6-,7-,8?/m1/s1
