14
gdb 69238	2.78402	1.68231	1.20471	1.6505	64.15	-0.2667	-0.0339	0.2329	979.7255	0.100825	-473.857959	-473.850497	-473.849553	-473.889878	28.406	
O	 0.0860362074	 1.3812611609	-0.0926855332	-0.465047
C	-0.0017162064	 0.0098574823	-0.031268207	 0.383008
C	-0.4265082533	-0.7980446014	-1.2192025134	-0.341836
C	-1.2943193603	-0.7879065379	 0.040156956	-0.283994
C	-1.0178490961	-1.916040461	 0.9692039415	 0.449834
O	-1.7331821838	-2.7522149026	 1.4173516484	-0.30516
O	 0.3506687394	-1.8792672051	 1.3158947492	-0.229698
C	 0.909019693	-0.6879793142	 0.9176310759	 0.358746
N	 1.9903355925	-0.1914440477	 1.3263234572	-0.557255
H	 0.8859912847	 1.6160660441	 0.4003028422	 0.308455
H	-0.822920084	-0.2115276712	-2.040055146	 0.150122
H	 0.0995131374	-1.7031722152	-1.5022474863	 0.143541
H	-2.2871522601	-0.3622174053	 0.0123652596	 0.142445
H	 2.4560156496	-0.7808212456	 2.0158535559	 0.24684
117.4468	142.3695	252.9255	271.8019	319.484	370.6752	436.5969	533.7607	550.5826	628.5257	712.3701	749.0628	772.3756	810.8855	883.2866	888.6754	905.7029	952.1847	984.5526	1038.905	1068.0644	1082.3272	1126.7589	1198.3535	1239.3935	1317.0446	1407.249	1440.8416	1495.7971	1787.2837	1926.3452	3137.786	3228.1108	3236.7705	3503.7632	3739.1081
OC12CC1C(=O)OC2=N	O[C@]12C[C@H]1C(=O)O[C]2[NH]	
InChI=1S/C5H5NO3/c6-4-5(8)1-2(5)3(7)9-4/h2,6,8H,1H2	InChI=1S/C5H5NO3/c6-4-5(8)1-2(5)3(7)9-4/h2,6,8H,1H2/t2-,5+/m0/s1
