21
gdb 32739	2.50526	1.27719	0.98052	1.4138	86.58	-0.1772	0.0556	0.2329	1299.6906	0.183267	-383.306255	-383.296511	-383.295567	-383.341354	36.05	
C	-0.7823852144	 0.84504978	 0.9195592576	-0.374538
C	 0.0265863526	 0.0541021791	-0.1127999285	-0.150033
N	-0.7631579546	-0.8027386862	-1.0144710173	-0.394961
C	-1.3909710232	-1.9253776635	-0.4437961798	 0.206456
C	-2.6939435282	-2.1894039006	-0.0602801444	 0.233758
C	-3.8579467017	-1.2470335032	-0.1274288426	-0.51324
C	-2.7178733207	-3.5435770168	 0.3989620318	-0.233836
C	-1.4474418387	-4.0521342316	 0.2968337846	-0.091981
N	-0.6466391122	-3.0630921784	-0.2195369814	-0.264354
H	-0.1204962343	 1.4233681717	 1.5733652001	 0.111033
H	-1.4649191775	 1.5483594089	 0.4289894971	 0.109027
H	-1.3776745245	 0.1711170348	 1.5425984621	 0.134655
H	 0.6098092111	 0.7385556702	-0.7397767957	 0.098761
H	 0.7488819303	-0.5907373001	 0.3997785139	 0.104622
H	-1.4287409256	-0.2502878736	-1.5406305152	 0.227247
H	-4.5874937433	-1.5415598234	-0.8925879097	 0.120776
H	-4.3976820835	-1.2033227651	 0.8255759829	 0.122282
H	-3.5346357277	-0.227441581	-0.361394036	 0.104591
H	-3.5807580017	-4.0715012315	 0.7777064911	 0.083762
H	-1.0452796811	-5.0193382882	 0.5510708317	 0.11065
H	 0.3129040889	-3.1614611414	-0.5013686724	 0.255324
50.4819	77.3572	109.1562	152.8577	233.4318	253.4501	269.7457	320.8952	433.8701	440.1822	486.8198	614.6815	637.6519	662.6999	679.5709	714.8235	741.6979	816.3107	833.26	897.9118	914.465	980.7011	1043.7402	1061.5869	1076.0247	1103.7489	1123.4839	1151.4646	1197.8235	1267.1965	1290.9834	1332.2735	1378.3685	1404.1232	1416.2635	1425.4032	1459.2312	1479.5659	1485.4672	1492.4838	1498.4469	1500.8547	1509.2586	1528.6714	1633.6406	3015.9579	3029.2183	3034.4374	3063.892	3070.8519	3090.8734	3097.4608	3115.5281	3235.4543	3268.5797	3557.6362	3682.6894
CCNC1=C(C)C=CN1	CCNc1c(C)cc[nH]1	
InChI=1S/C7H12N2/c1-3-8-7-6(2)4-5-9-7/h4-5,8-9H,3H2,1-2H3	InChI=1S/C7H12N2/c1-3-8-7-6(2)4-5-9-7/h4-5,8-9H,3H2,1-2H3
