23
gdb 100701	3.11116	0.78063	0.6629	1.1514	91.94	-0.2398	0.0622	0.302	1790.2155	0.201683	-388.268116	-388.256111	-388.255167	-388.306774	41.31	
C	-0.0078210539	 1.3770155289	 0.1346023063	-0.236997
O	-0.0641383365	-0.0173989804	-0.0490373057	-0.245658
C	 0.6481761846	-0.5030140314	-1.1805427079	 0.149999
C	 2.1528552087	-0.5546954909	-0.9125359237	-0.408822
C	 0.0476430633	-1.896253917	-1.4930918465	-0.154792
C	-1.4732893143	-1.8172292225	-1.732794452	-0.394119
C	 0.7199603558	-2.5235262643	-2.6308357313	 0.068028
C	 1.2424140997	-3.0349274265	-3.5884977475	 0.050331
C	 1.8781648308	-3.6632660352	-4.7386266756	-0.498758
H	 1.0040990178	 1.7338885502	 0.3755468462	 0.106983
H	-0.3597875827	 1.9190800296	-0.7572784704	 0.103632
H	-0.6660246895	 1.6173326329	 0.9736431041	 0.126
H	 0.4505078808	 0.1548951963	-2.0439169207	 0.067203
H	 2.3588961022	-1.1952490757	-0.0486935835	 0.119606
H	 2.682053829	-0.9566150407	-1.7793684931	 0.132004
H	 2.5525979486	 0.4413614796	-0.7023794834	 0.111033
H	 0.2204312669	-2.5113160985	-0.5981559323	 0.104625
H	-1.8855206179	-2.8158388603	-1.8983659675	 0.116706
H	-1.9643344747	-1.3644318835	-0.870145341	 0.130159
H	-1.6909339164	-1.2126282764	-2.6192612045	 0.114711
H	 1.1341413514	-4.0689528722	-5.4332828187	 0.146605
H	 2.4928179673	-2.9474478638	-5.2958676347	 0.145219
H	 2.5297385391	-4.4895985583	-4.4330975768	 0.146303
33.8689	50.4192	69.5035	85.8257	148.5819	188.1751	206.8085	226.2498	247.9788	289.1374	302.2519	325.0907	385.4234	412.8891	469.2963	530.133	557.3903	751.2098	831.0971	890.3249	974.8695	1004.5621	1051.8768	1053.6925	1063.14	1093.8919	1124.4053	1133.4777	1167.3235	1183.2642	1200.4679	1224.7311	1297.3236	1331.6169	1366.4323	1378.2604	1400.6649	1404.5349	1415.51	1478.4891	1479.4763	1479.7056	1483.7047	1491.9299	1492.9362	1501.5382	1503.3907	1512.7818	2367.3136	2959.7491	2977.2851	3006.3321	3025.0941	3025.1846	3044.3898	3045.8008	3084.8427	3085.0964	3108.114	3112.2545	3114.3099	3132.659	3144.3257
COC(C)C(C)C#CC	CO[C@@H](C)[C@@H](C)C#CC	
InChI=1S/C8H14O/c1-5-6-7(2)8(3)9-4/h7-8H,1-4H3	InChI=1S/C8H14O/c1-5-6-7(2)8(3)9-4/h7-8H,1-4H3/t7-,8-/m0/s1
