24
gdb 6804	5.80517	0.68053	0.63546	0.917	83.73	-0.2477	0.0839	0.3315	1874.361	0.220922	-351.412762	-351.401913	-351.400969	-351.449417	38.088	
C	 0.1251831994	 1.5632360541	-0.0123888041	-0.383854
C	 0.0090505879	 0.0479946237	-0.0174643179	-0.02629
O	 0.6661454613	-0.450741458	-1.1625196231	-0.242938
C	 0.6333974882	-1.8590957645	-1.2588774662	-0.059916
C	 1.3510653394	-2.2680944343	-2.539791644	-0.182055
C	 1.5406901901	-3.7845090564	-2.7147351905	 0.039905
C	 0.2073192274	-4.5371802023	-2.8413016021	-0.381427
C	 2.4370073575	-4.0713837569	-3.9271696325	-0.387469
H	 1.175837124	 1.8664421032	 0.009122552	 0.125311
H	-0.3338302094	 1.9858419606	-0.9107193523	 0.125495
H	-0.376197236	 1.9827827089	 0.8649882443	 0.112235
H	 0.45953208	-0.3764730059	 0.896650074	 0.08166
H	-1.0513781747	-0.2588333013	-0.0212654271	 0.081945
H	 1.128390002	-2.314036883	-0.3818103761	 0.07919
H	-0.4108444436	-2.2130331508	-1.2552869366	 0.083657
H	 0.8025190608	-1.8607991967	-3.39923039	 0.098079
H	 2.331654298	-1.777256918	-2.5377153999	 0.100763
H	 2.057507751	-4.1627741511	-1.8202627707	 0.070617
H	 0.3767235509	-5.6087741419	-2.9907340718	 0.109605
H	-0.4187119122	-4.4251146631	-1.9509899911	 0.113202
H	-0.3668614134	-4.1700744222	-3.7007861154	 0.112108
H	 3.4080920842	-3.5744334621	-3.8320557076	 0.110303
H	 2.617726567	-5.1453373721	-4.0417112186	 0.107719
H	 1.9698044204	-3.7131113299	-4.8523247725	 0.112157
44.8846	62.7189	103.8154	125.7597	135.5754	224.0332	236.9711	247.6861	252.2868	300.0441	382.2692	411.2275	467.8979	508.4858	794.2581	821.199	828.809	900.2144	927.1249	952.3345	965.8562	997.3794	1034.2594	1067.0998	1123.1826	1163.1982	1172.0227	1180.0887	1195.0913	1202.6101	1251.4323	1296.0886	1303.6913	1313.0064	1363.6479	1373.506	1392.9723	1400.7083	1408.677	1422.4683	1452.87	1483.4081	1483.7594	1489.4305	1497.8115	1499.8924	1505.5065	1510.8369	1517.6951	1539.0801	2936.3671	2950.8954	2969.7977	2974.5152	2993.3535	3022.6151	3024.3435	3030.121	3044.3486	3067.0599	3088.0197	3094.1323	3099.4544	3104.2189	3118.4355	3120.8043
CCOCCC(C)C	CCOCCC(C)C	
InChI=1S/C7H16O/c1-4-8-6-5-7(2)3/h7H,4-6H2,1-3H3	InChI=1S/C7H16O/c1-4-8-6-5-7(2)3/h7H,4-6H2,1-3H3
