18
gdb 74463	2.8693	1.37557	1.00855	4.1444	81.6	-0.2269	-0.0217	0.2053	1194.755	0.147206	-401.960129	-401.951734	-401.950789	-401.993136	31.849	
C	 0.0258615057	 1.5007445084	 0.0046015919	-0.484092
C	-0.0031706205	 0.0067562831	-0.0008194343	 0.282904
C	-1.0836048486	-0.7789637063	 0.1067490963	-0.26415
C	-0.741834671	-2.2168860743	 0.0576416924	 0.217085
C	-1.4949104473	-3.3081403309	 0.7425121572	-0.277612
N	-1.5146428068	-3.2249127315	-0.7166104099	-0.339438
C	 0.7691219698	-2.2662526276	-0.0697951159	 0.35739
O	 1.4460946328	-3.2594113147	-0.0947735372	-0.308322
C	 1.2622674563	-0.8127187164	-0.1275204395	-0.432913
H	 0.6369421045	 1.8827299901	 0.832328751	 0.131057
H	 0.4759355852	 1.8901371146	-0.9176036968	 0.131327
H	-0.9785856438	 1.9222985908	 0.0992833641	 0.125697
H	-2.102576171	-0.4205091945	 0.2141845317	 0.096128
H	-0.9267688083	-4.1464506378	 1.1363579211	 0.140537
H	-2.3807716373	-3.0299301761	 1.3084259617	 0.115656
H	-2.3824524796	-2.7920777727	-1.029400739	 0.234051
H	 1.8051684215	-0.6283497737	-1.064100248	 0.138117
H	 1.9810045482	-0.6276814106	 0.6813084031	 0.136578
83.2832	134.6825	188.6326	226.3844	249.7632	285.5918	379.8173	464.9522	471.8042	529.8465	587.5088	621.1424	724.4612	798.2364	844.1675	883.5097	890.3278	953.055	959.5729	978.6428	1005.7256	1054.3968	1060.7544	1112.5106	1135.606	1158.2712	1162.8335	1239.7391	1275.9636	1322.0696	1340.943	1395.7257	1415.2337	1440.5251	1475.9776	1486.4499	1493.8534	1701.5408	1855.5528	3016.7648	3024.8827	3053.9384	3063.7136	3103.5644	3110.7116	3177.8829	3197.8435	3477.5518
CC1=CC2(CN2)C(=O)C1	CC1=C[C@]2(CN2)C(=O)C1	
InChI=1S/C7H9NO/c1-5-2-6(9)7(3-5)4-8-7/h3,8H,2,4H2,1H3	InChI=1S/C7H9NO/c1-5-2-6(9)7(3-5)4-8-7/h3,8H,2,4H2,1H3/t7-/m0/s1
