17
gdb 54047	1.78002	1.57616	0.96152	4.312	77.08	-0.2527	-0.0192	0.2336	1239.6706	0.133926	-417.999573	-417.98997	-417.989026	-418.034731	34.357	
C	 0.0160994147	 1.4774399335	-0.0878476091	-0.493629
C	 0.0921817969	-0.0284755691	 0.0139120509	 0.375425
N	 0.2253263586	-0.6937250947	 1.091694155	-0.494249
N	-0.0212545796	-0.7295232613	-1.2076570707	-0.107101
C	 0.091387828	-0.0664486803	-2.511476445	-0.342703
C	 1.4367826404	 0.4187010647	-2.8119728828	 0.326781
C	 2.5387330209	 0.8282824834	-3.0598932632	-0.456438
C	-0.2204581931	-2.1074357965	-1.2168396339	 0.170964
O	-0.3071516745	-2.7626876128	-2.2301781335	-0.325988
H	 0.8064420768	 1.8751198041	-0.7307304707	 0.164649
H	-0.9447059409	 1.7965759317	-0.5064845119	 0.145762
H	 0.1207253676	 1.9149702855	 0.9061033201	 0.132107
H	 0.2494433058	-0.0692001637	 1.8942944272	 0.223984
H	-0.2000938803	-0.826078098	-3.2424204441	 0.184015
H	-0.6289367269	 0.7548443048	-2.5815204285	 0.141416
H	 3.5161782234	 1.1759915759	-3.2880189893	 0.208646
H	-0.3008641477	-2.5134672273	-0.2019355204	 0.14636
42.9938	72.8502	122.0282	197.9523	206.2263	268.9838	314.4674	318.8341	363.7942	423.3579	476.4313	556.5862	609.8077	624.8045	642.5109	670.287	824.2082	841.467	949.3868	984.9562	988.6968	1055.0886	1067.1444	1071.5765	1164.4686	1259.7519	1318.5973	1369.025	1401.5387	1412.1046	1434.4304	1464.5827	1481.4195	1492.7703	1713.9536	1792.8954	2240.203	3041.6623	3053.0193	3085.1842	3099.2865	3109.7472	3141.4814	3503.0821	3512.9716
CC(=N)N(CC#C)C=O	CC(=N)N(CC#C)C=O	
InChI=1S/C6H8N2O/c1-3-4-8(5-9)6(2)7/h1,5,7H,4H2,2H3	InChI=1S/C6H8N2O/c1-3-4-8(5-9)6(2)7/h1,5,7H,4H2,2H3
