18
gdb 54283	2.36436	1.41189	1.02522	3.0521	77.95	-0.2446	0.025	0.2696	1185.5381	0.146358	-401.941298	-401.932069	-401.931125	-401.975324	35.069	
N	 0.3539334807	 0.2590561731	 1.3310101335	-0.548873
C	 0.2455322976	-0.5322531916	 0.2187847374	 0.347953
O	 1.2234980918	-0.9855697234	-0.3504605694	-0.37343
C	-1.1567015059	-0.8494937623	-0.2474040113	 0.246522
C	-2.3515982479	-0.4771488677	 0.6312308885	-0.469253
C	-2.5719338793	 0.9600497579	 0.7895559623	 0.299385
C	-2.725606749	 2.1449574752	 0.9295747797	-0.445748
C	-1.3387398201	-0.8136382853	-1.7568438855	-0.275871
C	-1.266679029	-2.1311127242	-1.05376796	-0.296977
H	 1.2912483413	 0.564135125	 1.5455001041	 0.255805
H	-0.3976908216	 0.8811242012	 1.5885338779	 0.262704
H	-3.2537024935	-0.9225589841	 0.1955869441	 0.137341
H	-2.2375545475	-0.9355240482	 1.6221052794	 0.144651
H	-2.8837689416	 3.1895484714	 1.039584718	 0.204683
H	-2.2969288064	-0.4658910609	-2.1275159504	 0.116241
H	-0.476232035	-0.5101273368	-2.3376248131	 0.138555
H	-0.3507953943	-2.6993572746	-1.1558925086	 0.146832
H	-2.1752689702	-2.7120956645	-0.9383217965	 0.109478
64.4915	86.4647	135.304	247.3402	286.2784	311.1092	333.8684	357.2825	428.7453	468.4344	491.6751	576.8851	615.6864	633.2641	647.6036	707.3289	772.2553	789.2494	852.9456	910.3673	936.2829	954.2812	991.1977	1017.6686	1069.0972	1096.3179	1120.976	1198.2971	1202.4209	1271.5352	1306.0541	1339.5163	1402.866	1448.9136	1463.7321	1482.1221	1632.4112	1777.9408	2230.2195	3023.9963	3059.3353	3138.1969	3140.6601	3229.8986	3243.6961	3501.9822	3560.5134	3687.1555
NC(=O)C1(CC#C)CC1	NC(=O)C1(CC#C)CC1	
InChI=1S/C7H9NO/c1-2-3-7(4-5-7)6(8)9/h1H,3-5H2,(H2,8,9)	InChI=1S/C7H9NO/c1-2-3-7(4-5-7)6(8)9/h1H,3-5H2,(H2,8,9)
