20
gdb 66645	3.88439	1.56241	1.43621	1.5416	81.34	-0.2163	0.0883	0.3046	993.1653	0.173753	-365.965293	-365.958199	-365.957254	-365.996429	29.226	
C	-0.0254916491	 1.5106004243	 0.0383044285	-0.524136
C	 0.0400539453	 0.0243402716	 0.0211119526	 0.380241
C	 0.9625050907	-0.9965348466	-0.5770388769	-0.149418
C	 0.5991762021	-1.0299634997	 0.9303539426	-0.149418
C	-0.7499351872	-1.7381503596	 0.9509958063	 0.02272
C	-0.7685355754	-3.2140816827	 0.5560344767	-0.231366
C	-0.4035016394	-3.1804874582	-0.9585073937	-0.231364
C	-0.2219775452	-1.6895685927	-1.2394321062	 0.02272
N	-1.1385428489	-0.9264602806	-0.2840477999	-0.226547
H	 0.9554199327	 1.9319062647	 0.2832169811	 0.122211
H	-0.3299703011	 1.9061793279	-0.9370346307	 0.126954
H	-0.7435065235	 1.8681091696	 0.7847098781	 0.126932
H	 1.9873825341	-0.879821508	-0.9095016091	 0.080801
H	 1.3589846471	-0.9376388258	 1.6976174849	 0.080802
H	-1.3782102159	-1.4778522901	 1.8054910527	 0.069779
H	-0.0587853467	-3.794623016	 1.1523411212	 0.100743
H	-1.7604813073	-3.6481067808	 0.7129306068	 0.103912
H	 0.5057370495	-3.7426899447	-1.1899559348	 0.100742
H	-1.2107638244	-3.5974920001	-1.5679222221	 0.103913
H	-0.3947987673	-1.3873607925	-2.2745409482	 0.069779
155.9173	199.6969	217.3238	224.5129	389.0402	501.1644	550.3033	682.2485	699.7137	758.1972	765.3961	790.7151	848.3895	866.2625	883.8979	896.8442	904.0827	930.6882	976.8627	980.7237	1018.2891	1032.7757	1039.1726	1065.4452	1070.1225	1129.7267	1139.7411	1154.3943	1204.4958	1225.9727	1248.4339	1250.6403	1260.7554	1287.5965	1330.9964	1349.7972	1365.4608	1405.659	1474.4584	1476.6206	1478.7007	1498.0008	1501.3083	3025.1966	3047.6689	3057.3422	3081.7038	3086.9328	3088.4265	3088.5873	3098.186	3105.3066	3174.5097	3184.3296
CC12C3C1C1CCC3N21	C[C@@]12[C@H]3[C@@H]1[C@@H]1CC[C@H]3N21	
InChI=1S/C8H11N/c1-8-6-4-2-3-5(7(6)8)9(4)8/h4-7H,2-3H2,1H3	InChI=1S/C8H11N/c1-8-6-4-2-3-5(7(6)8)9(4)8/h4-7H,2-3H2,1H3/t4-,5+,6-,7+,8-
