18
gdb 16809	3.5836	1.84432	1.40802	1.7401	73.27	-0.2339	0.0093	0.2432	939.6372	0.153605	-347.802188	-347.794527	-347.793583	-347.833781	29.314	
C	-0.1032449441	 1.576843804	 0.0868084551	-0.392187
C	 0.0087632331	 0.0465358636	 0.0125327447	-0.054934
C	 0.7909749136	-0.4560937467	-1.1890258743	-0.182946
C	 1.8109482269	-1.2591778156	-0.8656827408	 0.322721
C	 2.7906561913	-1.9297482477	-1.7746995736	-0.501408
C	 1.8804998798	-1.3782134049	 0.6291041625	-0.065913
O	 2.1407332387	-0.1136067784	 1.2868095001	-0.259319
C	 0.7874888818	-0.5652742977	 1.1793388492	 0.034527
H	 0.8914958684	 2.0194235784	 0.1831376425	 0.137165
H	-0.5771707187	 1.9800798366	-0.8136140186	 0.111842
H	-0.7037778128	 1.885678834	 0.9485624548	 0.113392
H	-1.0051604772	-0.3801406563	 0.0048060966	 0.080465
H	 0.5529579517	-0.1359976397	-2.1990230576	 0.090021
H	 2.5625611113	-1.7327059116	-2.8255564417	 0.12514
H	 3.8136403783	-1.5864150591	-1.5761249453	 0.135269
H	 2.7913322858	-3.0172107026	-1.6269617615	 0.125439
H	 2.3071443587	-2.2472884891	 1.1229781781	 0.090316
H	 0.2944031836	-0.7810087672	 2.1239706699	 0.09041
136.3461	183.6886	196.4783	231.7733	242.4339	336.3848	417.8874	509.4848	591.2383	594.6676	719.1329	813.5533	849.8875	867.1899	868.7385	906.0832	937.8304	1001.2398	1031.1866	1035.0681	1066.6159	1089.7115	1116.255	1125.7095	1194.1601	1255.2974	1275.7559	1304.4434	1328.7015	1360.8528	1398.9922	1415.2141	1418.937	1479.9827	1489.4101	1495.2461	1504.4679	1705.6128	2996.9995	3018.7433	3037.6879	3065.6742	3102.4688	3112.2767	3125.1382	3139.6334	3154.0184	3176.3774
CC1C=C(C)C2OC12	C[C@H]1C=C(C)[C@H]2O[C@@H]12	
InChI=1S/C7H10O/c1-4-3-5(2)7-6(4)8-7/h3-4,6-7H,1-2H3	InChI=1S/C7H10O/c1-4-3-5(2)7-6(4)8-7/h3-4,6-7H,1-2H3/t4-,6-,7+/m0/s1
