23
gdb 121909	3.59742	0.61775	0.55098	1.3161	79.02	-0.2498	0.069	0.3188	2026.1356	0.202304	-462.556057	-462.544325	-462.543381	-462.593635	41.691	
C	 0.0124774055	 1.5611225863	 0.0052129844	-0.404662
C	-0.0000413559	 0.0352790757	 0.0396652533	 0.10981
O	 0.7212647611	-0.4704196235	 1.1610616739	-0.425878
C	-1.4325098643	-0.540770954	-0.0004135927	 0.102587
O	-2.1528251019	-0.0255168736	-1.118502484	-0.427739
C	-1.4457044578	-2.0713933841	 0.0326271767	-0.210609
C	-2.8532066672	-2.6611163377	 0.1491767472	-0.167723
C	-2.8596771634	-4.1830270994	 0.1103423991	-0.075212
O	-4.204894352	-4.6204473695	 0.234777872	-0.421133
H	 1.0399952956	 1.9340603474	-0.0116219076	 0.119083
H	-0.5239131527	 1.9337162394	-0.8697679347	 0.13283
H	-0.4863279626	 1.9675389489	 0.8951744725	 0.104086
H	 0.5432732085	-0.3523055233	-0.8344336638	 0.075951
H	 0.3848830292	-0.0244535111	 1.9465328208	 0.278853
H	-1.9754573839	-0.1568327369	 0.8760987244	 0.075205
H	-1.7837903605	-0.4298502816	-1.9121992806	 0.278688
H	-0.9584381303	-2.4397016853	-0.8847322511	 0.078083
H	-0.8134036155	-2.4017115233	 0.8631440795	 0.115374
H	-3.3189997691	-2.3367294761	 1.0880806409	 0.102189
H	-3.4864134997	-2.2810980972	-0.6591851381	 0.113784
H	-2.4131097404	-4.533042817	-0.8356644296	 0.079743
H	-2.2344392295	-4.5798134985	 0.9275533161	 0.082561
H	-4.2107793831	-5.5817907357	 0.2199044116	 0.28413
58.5224	67.6962	83.5943	115.616	145.5359	222.478	231.1774	264.3987	273.7644	278.8659	296.0724	322.7977	381.1831	429.2952	482.3043	509.9661	560.9593	762.657	844.0852	874.114	919.1388	978.9446	1014.2271	1035.0245	1060.5014	1079.3356	1092.4251	1100.9167	1136.9905	1152.0173	1203.7427	1222.4607	1244.8443	1280.9832	1301.9692	1312.5827	1319.0897	1343.1375	1386.7532	1393.8492	1400.071	1411.8636	1416.8397	1463.9653	1486.4273	1489.9841	1496.6458	1503.3577	1529.3972	2953.0046	2977.5081	2983.5016	2998.6756	3014.6295	3026.7883	3037.5741	3073.2943	3093.843	3100.6844	3138.7291	3792.3646	3797.29	3830.7125
CC(O)C(O)CCCO	C[C@@H](O)[C@@H](O)CCCO	
InChI=1S/C6H14O3/c1-5(8)6(9)3-2-4-7/h5-9H,2-4H2,1H3	InChI=1S/C6H14O3/c1-5(8)6(9)3-2-4-7/h5-9H,2-4H2,1H3/t5-,6+/m1/s1
