21
gdb 110853	2.17195	1.24696	1.09111	0.935	78.52	-0.2415	0.0747	0.3162	1254.2565	0.181209	-424.185737	-424.176007	-424.175062	-424.220031	36.67	
C	 0.7668223988	 0.5670672729	-1.7809191622	-0.429763
C	 1.2832214358	-0.7267959502	-1.1612364099	-0.013401
C	 2.7982887683	-1.129547508	-1.231648079	-0.267186
C	 2.7766715625	-1.4317221826	 0.2744494792	-0.148957
C	 2.4391876019	-0.1900064298	 1.082149933	-0.104515
C	 3.0081846628	 1.1916858324	 0.8434245137	-0.096735
O	 4.2564402016	 1.3563525065	 1.5055529838	-0.418546
C	 1.336667415	-0.9203638577	 0.3614064334	 0.346185
O	 0.2836464687	-1.4924905086	 1.0611989557	-0.464259
H	 1.3247167597	 1.445549558	-1.444820029	 0.120019
H	 0.8342711906	 0.5302959048	-2.8738525579	 0.116648
H	-0.2870836621	 0.7234368931	-1.52372383	 0.115158
H	 0.6967613198	-1.5644172253	-1.5539926933	 0.087475
H	 2.9769039012	-2.0108971912	-1.8505396403	 0.106161
H	 3.487512176	-0.3420304978	-1.5532614105	 0.095606
H	 3.2102305443	-2.3070544573	 0.742391144	 0.09368
H	 2.3979956863	-0.4246869501	 2.1456324218	 0.095894
H	 3.1035223622	 1.408492149	-0.22853978	 0.091453
H	 2.3482597029	 1.9562261691	 1.2686398643	 0.106159
H	 4.8302974488	 0.6423877834	 1.2075251054	 0.282357
H	-0.1795859952	-0.7976892904	 1.540140568	 0.286568
75.5853	140.5571	165.2236	195.6649	207.0523	230.9578	277.0163	300.121	332.523	389.659	421.4713	534.874	557.7373	637.1016	711.0455	768.0458	849.0882	871.975	899.5083	940.4817	970.7141	1012.7443	1030.402	1052.6582	1087.8581	1106.0448	1120.5906	1140.7916	1174.2583	1196.0374	1221.8354	1231.5135	1249.3576	1291.6821	1319.5299	1328.6774	1367.0179	1388.9189	1409.6784	1417.2342	1469.6462	1492.744	1497.6086	1499.7457	1516.5214	3015.6451	3030.8152	3047.6262	3050.7478	3063.6485	3090.0953	3107.6443	3113.4345	3120.8715	3187.1961	3806.3444	3808.0747
CC1CC2C(CO)C12O	C[C@H]1C[C@H]2[C@@H](CO)[C@@]12O	
InChI=1S/C7H12O2/c1-4-2-5-6(3-8)7(4,5)9/h4-6,8-9H,2-3H2,1H3	InChI=1S/C7H12O2/c1-4-2-5-6(3-8)7(4,5)9/h4-6,8-9H,2-3H2,1H3/t4-,5-,6+,7+/m0/s1
