20
gdb 93140	2.27311	1.85465	1.33437	2.7112	79.28	-0.2341	0.0288	0.2628	1031.1363	0.173924	-403.1303	-403.122599	-403.121655	-403.162059	31.466	
O	 0.2114547246	 1.410596586	 0.1274883254	-0.440383
C	 0.0513580223	 0.0119774979	-0.0061811107	 0.107107
C	 0.7724608056	-0.6921952385	 1.1474183799	-0.259687
C	 0.2397746542	-0.5146258126	 2.5494094502	-0.020006
C	-0.8570640373	 0.0981077022	 2.9998012647	-0.065157
C	-1.903158101	 0.8340168728	 2.1913935671	-0.264738
C	-2.3741450754	 0.0557715048	 0.9729611849	-0.003792
N	-2.354565669	 0.7322476417	-0.3434470319	-0.368106
C	-1.4227329177	-0.3778039029	-0.0742530371	-0.045259
H	-0.5761169025	 1.7984559039	-0.2859201506	 0.290435
H	 0.5277301898	-0.3235673766	-0.9444333529	 0.060146
H	 0.8102310355	-1.7688807246	 0.9203585506	 0.100627
H	 1.8201260845	-0.3619604113	 1.1326913348	 0.117663
H	 0.8811929891	-0.9754623912	 3.3004075413	 0.081603
H	-1.0117041163	 0.1007132884	 4.0766736305	 0.080957
H	-2.7642713112	 1.0649112717	 2.8277247662	 0.090849
H	-1.491472606	 1.7909864967	 1.8570975261	 0.132911
H	-3.2121495804	-0.6144474092	 1.1545741294	 0.086543
H	-3.128126894	 0.4339616979	-0.9294472927	 0.236047
H	-1.613835835	-1.3329569071	-0.5592511651	 0.082239
121.8352	186.7713	250.6272	301.9822	330.9505	386.6172	442.4055	450.2073	538.723	553.689	663.829	722.8734	752.6455	824.2549	830.793	841.3301	918.2405	934.3026	941.7144	975.0811	987.0631	1010.0867	1039.6945	1058.9281	1079.6292	1138.2707	1161.9736	1194.1791	1243.9769	1249.1065	1264.4487	1277.7016	1310.6986	1350.9829	1379.0278	1388.3029	1400.4079	1427.2499	1455.0698	1460.8914	1471.6144	1478.8357	1729.4428	2933.6344	2997.2133	3031.892	3042.5922	3084.032	3118.6745	3120.544	3131.6691	3151.0024	3521.2647	3684.8177
OC1CC=CCC2NC12	O[C@H]1CC=CC[C@H]2N[C@@H]12	
InChI=1S/C7H11NO/c9-6-4-2-1-3-5-7(6)8-5/h1-2,5-9H,3-4H2	InChI=1S/C7H11NO/c9-6-4-2-1-3-5-7(6)8-5/h1-2,5-9H,3-4H2/t5-,6+,7-/m1/s1
