14
gdb 133333	2.35574	1.86774	1.0428	2.3967	72.73	-0.189	-0.0292	0.1599	1037.9183	0.102536	-474.153437	-474.145805	-474.144861	-474.185279	29.449	
N	 0.0497516532	 1.4052990431	 0.0405020412	-0.598993
C	 0.0116440023	 0.0285644662	 0.0376240038	 0.121969
C	-1.1153465034	-0.7218829635	 0.0751098261	 0.300645
F	-2.3419559623	-0.1979865595	 0.0581973196	-0.06436
N	-1.094207667	-2.0875714962	 0.1277399107	-0.287665
N	 0.0305371642	-2.8074137556	 0.1472701105	-0.201264
C	 1.146461122	-2.1354283018	 0.1022748215	-0.066923
C	 1.283481345	-0.6885009251	 0.0326800022	 0.248177
N	 2.3743766003	 0.0035205225	-0.0405784183	-0.58582
H	 0.9639357435	 1.7423232515	-0.2392324077	 0.272936
H	-0.7338972719	 1.8849322809	-0.3741160387	 0.251414
H	-1.9586046688	-2.6035236199	 0.1622430662	 0.283587
H	 2.0467920562	-2.7431044416	 0.1116619985	 0.119063
H	 3.1941699166	-0.603374771	-0.0475314156	 0.207234
131.2543	199.8148	271.9622	294.3237	338.4952	373.8323	390.5083	490.9796	506.018	557.4978	580.1599	594.377	624.4615	694.9764	753.5718	810.6495	892.2528	915.0705	1000.0473	1116.0889	1162.0125	1265.709	1309.874	1331.4104	1370.7275	1432.7797	1530.564	1580.9291	1606.6899	1654.4343	1730.8953	3174.7777	3471.7946	3529.6744	3651.264	3668.0626
NC1=C(F)NN=CC1=N	Nc1c(F)[nH]ncc1[NH]	
InChI=1S/C4H5FN4/c5-4-3(7)2(6)1-8-9-4/h1H,(H2,6,9)(H2,7,8)	InChI=1S/C4H10FN4/c5-4-3(7)2(6)1-8-9-4/h2-4,6,8-9H,1,7H2
