15
gdb 75195	3.77274	0.99134	0.85808	2.8965	64.19	-0.2425	-0.0052	0.2373	1298.55	0.113069	-491.128718	-491.120496	-491.119552	-491.162526	29.364	
N	-0.0034676243	 1.3762944534	 0.2244810655	-0.580823
C	-0.0924229355	 0.0313309628	 0.0206538378	 0.475034
N	-1.132581774	-0.6995454808	 0.0636762483	-0.334806
C	-0.6616147878	-2.0720409442	-0.1061974215	-0.202115
C	 0.8288443922	-1.9308470933	-0.4824863134	 0.16822
O	 0.9883642952	-2.1582271467	-1.8749310491	-0.184998
C	 2.2432703545	-2.4068635325	-2.3213832195	 0.176822
O	 2.4975129358	-2.5323933655	-3.4787135225	-0.263376
O	 1.1287314774	-0.5735735874	-0.1873512249	-0.243414
H	 0.7648450613	 1.8382874256	-0.2368335574	 0.269273
H	-0.8864442677	 1.8601802889	 0.1740070208	 0.274565
H	-0.783660036	-2.646452526	 0.8198782682	 0.117838
H	-1.2033228699	-2.5910996519	-0.9016424832	 0.135008
H	 1.5260060641	-2.5598993095	 0.0775609922	 0.105313
H	 2.9821758247	-2.491232503	-1.5018945513	 0.087459
49.5164	102.3208	143.3529	212.978	259.8011	365.4662	386.3904	411.7207	502.7025	548.4632	650.643	705.0953	747.7893	818.5817	911.2217	933.9021	997.5969	1018.3298	1037.3922	1044.5302	1101.5254	1161.7286	1177.7616	1224.6101	1304.146	1334.1707	1376.5297	1425.5982	1445.6914	1494.4002	1620.1547	1777.2663	1877.7167	2959.4276	3034.1367	3079.6096	3093.598	3591.1869	3704.4793
NC1=NCC(OC=O)O1	N[C]1[N]C[C@@H](OC=O)O1	
InChI=1S/C4H6N2O3/c5-4-6-1-3(9-4)8-2-7/h2-3H,1H2,(H2,5,6)	InChI=1S/C4H6N2O3/c5-4-6-1-3(9-4)8-2-7/h2-3H,1H2,(H2,5,6)/t3-/m0/s1
