19
gdb 69278	2.5092	1.52344	1.14593	4.2721	75.63	-0.2319	-0.0087	0.2232	1107.3339	0.159974	-423.047064	-423.038906	-423.037962	-423.079595	32.208	
O	-0.0640081374	 1.3937255852	-0.0050350015	-0.464364
C	 0.0336995196	-0.0054687453	-0.0207112909	 0.394073
C	-0.4864436099	-0.7122375571	-1.2322712828	-0.351604
C	-1.3138303992	-0.6971955873	 0.0608525102	-0.155048
C	-1.4736252217	-1.9475974296	 0.8573092319	 0.402524
O	-2.5640353276	-2.3407108562	 1.2113714102	-0.333046
C	-0.1833736285	-2.657132899	 1.2474956972	-0.313717
C	 0.8244387383	-1.6362057643	 1.803541967	-0.206747
C	 1.2248474064	-0.595047922	 0.7461182161	-0.285902
H	 0.6154483567	 1.7449483556	-0.5915561006	 0.28344
H	-0.8809408054	-0.1058134684	-2.0394595032	 0.125033
H	-0.0238301819	-1.6447155785	-1.5384905953	 0.118644
H	-2.1904892868	-0.0606408253	 0.0444617399	 0.11689
H	-0.4362011036	-3.4288187608	 1.977782523	 0.12253
H	 0.2434697558	-3.1602229114	 0.3687779969	 0.11316
H	 0.3721642233	-1.1272211384	 2.6632620538	 0.117111
H	 1.7161917038	-2.1505207794	 2.1758936111	 0.103918
H	 1.9340840699	-1.0441913276	 0.0394915445	 0.100476
H	 1.7409353782	 0.2384618397	 1.2311992524	 0.112628
89.5319	144.2368	216.6015	281.8624	341.1177	366.4177	389.7883	428.1553	458.2561	510.3579	555.1327	652.6865	727.83	742.7962	858.2223	867.1141	888.371	911.2501	936.1058	973.3103	987.422	1042.1567	1059.6514	1066.3761	1111.2441	1138.3999	1189.7319	1217.098	1247.9078	1279.6432	1290.2782	1331.4077	1340.392	1369.3679	1376.5504	1398.934	1468.9362	1474.376	1491.0392	1499.1556	1797.8392	3021.4592	3024.5738	3035.9003	3078.7026	3090.0888	3110.9644	3131.0211	3192.52	3225.9007	3792.2414
OC12CC1C(=O)CCC2	O[C@]12C[C@H]1C(=O)CCC2	
InChI=1S/C7H10O2/c8-6-2-1-3-7(9)4-5(6)7/h5,9H,1-4H2	InChI=1S/C7H10O2/c8-6-2-1-3-7(9)4-5(6)7/h5,9H,1-4H2/t5-,7+/m0/s1
