15
gdb 34732	3.64938	1.52009	1.31407	2.1974	76.24	-0.2435	-0.053	0.1904	964.6674	0.112624	-379.525639	-379.518763	-379.517818	-379.556824	27.348	
C	 0.2629274646	-1.2096917482	-0.0510727409	-0.406883
C	 0.1554113386	-0.0136151173	-0.0215002204	 0.333391
C	-0.0236512986	 1.4172141877	 0.0084200695	-0.246651
C	-0.1751063302	 2.2402794636	 1.3598378123	-0.086054
C	 1.0569725809	 2.8847117882	 2.024380439	-0.048939
C	 2.5051414989	 2.4949380117	 1.6981743831	-0.187922
N	 2.3343278999	 1.9179068731	 0.3384068489	-0.18919
C	 1.1936435399	 2.338418547	-0.0340412001	 0.149799
N	 0.5221882988	 3.415252777	 0.7675774667	-0.136018
H	 0.3765746174	-2.2655078127	-0.0717288054	 0.203625
H	-0.8625229655	 1.735257623	-0.6198852193	 0.135043
H	-1.1565964666	 2.3637133329	 1.8146529572	 0.118648
H	 0.8377033125	 3.4567484835	 2.9240509095	 0.106256
H	 3.154967887	 3.3797204991	 1.7542445571	 0.124079
H	 2.9358092123	 1.7135137513	 2.3309323329	 0.130816
116.7435	151.1862	292.6391	380.9213	387.7673	523.0717	548.4176	636.5688	648.1582	665.4086	693.9872	769.9513	779.7335	843.6918	867.8666	888.7459	939.8622	976.1924	999.8959	1002.6595	1057.7354	1092.4917	1101.4925	1137.5346	1154.707	1206.9397	1271.9648	1313.6582	1337.8951	1359.7807	1484.1259	1633.4006	2244.2207	3011.8827	3056.6309	3086.3606	3125.2241	3143.5387	3503.1898
C#CC1C2C3CN=C1N23	C#C[C@H]1[C@H]2[C@H]3C[N][C]1N23	
InChI=1S/C7H6N2/c1-2-4-6-5-3-8-7(4)9(5)6/h1,4-6H,3H2	InChI=1S/C7H6N2/c1-2-4-6-5-3-8-7(4)9(5)6/h1,4-6H,3H2/t4-,5+,6-,9?/m0/s1
