17
gdb 34920	2.82384	1.65797	1.33134	2.8993	74.33	-0.2483	0.0314	0.2798	979.101	0.13841	-380.840189	-380.833112	-380.832168	-380.871721	28.164	
N	 0.101802506	-1.1655740198	 0.1091149847	-0.33521
C	 0.0479878895	-0.0114685213	 0.0676867139	 0.285325
C	-0.0093151902	 1.4510247396	 0.0296205531	-0.198881
C	-0.7051222191	 2.0821666519	 1.2506851026	-0.045387
C	-0.1460404128	 1.8014506286	 2.622151472	-0.306446
C	 0.2950480721	 3.0312986772	 1.8682770563	 0.003641
N	 1.5243972024	 3.0742730286	 1.0765154538	-0.099632
C	 2.3675994656	 1.8711030847	 1.0518899653	-0.250037
C	 1.3840338728	 2.1148513059	-0.0305982343	-0.029142
H	-0.563874537	 1.7349059988	-0.8707601891	 0.132763
H	-1.7552485571	 2.3264990933	 1.1457113037	 0.106779
H	-0.8150763269	 1.9649594237	 3.4602130933	 0.124575
H	 0.5213009192	 0.9601769152	 2.7633037953	 0.136307
H	-0.004101863	 4.0037767647	 2.2412454039	 0.107519
H	 3.4200535414	 2.0659523168	 0.8666997818	 0.126602
H	 2.1847485112	 1.0657593086	 1.7547344701	 0.132686
H	 1.7212058859	 2.4363718135	-1.0118262364	 0.10854
105.1976	138.0071	275.2672	307.7006	419.3906	480.8747	514.2513	571.7519	660.8094	693.2975	729.5597	803.1837	815.5105	832.799	864.0135	948.841	976.6316	996.5016	1028.2878	1046.0968	1057.7131	1081.9631	1095.492	1113.6526	1124.791	1134.6427	1157.8448	1206.2498	1255.3918	1286.4923	1319.3538	1327.7807	1372.0475	1387.4842	1480.0548	1522.535	2354.2095	3060.1468	3123.6886	3143.8913	3147.1014	3175.4095	3184.1769	3208.645	3226.244
N#CC1C2CC2N2CC12	N#C[C@H]1[C@H]2C[C@H]2N2C[C@@H]12	
InChI=1S/C7H8N2/c8-2-5-4-1-6(4)9-3-7(5)9/h4-7H,1,3H2	InChI=1S/C7H8N2/c8-2-5-4-1-6(4)9-3-7(5)9/h4-7H,1,3H2/t4-,5+,6-,7+,9?/m1/s1
