15
gdb 98915	7.14342	0.55755	0.52503	4.23	84.73	-0.242	-0.0217	0.2203	1979.1892	0.107906	-420.572517	-420.562426	-420.561482	-420.60901	34.613	
O	 0.2430096096	 1.3454612027	 0.0670583198	-0.392289
C	 0.0006371346	-0.0163220045	-0.1487540802	-0.172714
C	-1.444882276	-0.3438549623	 0.2124863133	 0.389337
O	-2.2654068564	 0.4905831733	 0.4710185333	-0.251661
C	-1.7428618025	-1.8602978116	 0.2287955539	-0.531571
C	-3.1491894302	-2.1932853414	 0.1333867455	 0.396122
C	-4.3214710111	-2.4760725698	 0.0483931051	-0.208806
C	-5.6406231144	-2.7946316418	-0.0485516397	 0.296293
C	-6.8103817175	-3.0808216101	-0.1352559203	-0.553471
H	 1.1422114657	 1.5394536477	-0.2131631937	 0.296227
H	 0.1398388153	-0.315193827	-1.2036296086	 0.116842
H	 0.6598502223	-0.6723196444	 0.4474777755	 0.108226
H	-1.1707737264	-2.351134259	-0.5703687359	 0.148763
H	-1.3227364956	-2.2488399636	 1.1690181674	 0.166802
H	-7.8403276276	-3.327191138	-0.2097714054	 0.191901
27.0935	58.442	98.514	147.0169	189.7219	221.7488	249.2697	341.1422	349.0146	385.865	454.3989	524.0559	547.4627	593.9725	596.0526	668.2677	747.1501	794.0751	869.5335	1012.229	1044.3517	1149.3236	1185.4564	1204.4982	1235.0938	1267.2145	1330.1514	1436.5024	1444.0159	1493.1393	1853.7995	2186.0289	2371.7209	2943.0212	2964.1997	3002.56	3036.9597	3506.0447	3836.3104
OCC(=O)CC#CC#C	OCC(=O)CC#CC#C	
InChI=1S/C7H6O2/c1-2-3-4-5-7(9)6-8/h1,8H,5-6H2	InChI=1S/C7H6O2/c1-2-3-4-5-7(9)6-8/h1,8H,5-6H2
