15
gdb 21225	3.2933	1.91936	1.22841	3.7921	64.29	-0.2092	0.016	0.2252	946.8296	0.120196	-395.961164	-395.953373	-395.952429	-395.993268	28.336	
C	-0.0195728194	 1.4243229255	-0.0277809809	-0.318821
N	 0.0000512769	-0.0246426204	 0.117900059	-0.387129
C	-1.1968622692	-0.702759847	 0.0629385243	 0.439729
N	-2.3708105521	-0.111484819	 0.1119921826	-0.244208
O	-3.3097380174	-1.1509637114	 0.0737160121	-0.191021
C	-2.6560450799	-2.3280280935	 0.0124050138	 0.020201
C	-1.3145901542	-2.131862728	-0.0019329802	 0.027402
N	-0.2180262689	-3.0054755676	-0.1304679702	-0.621704
H	 1.0011705838	 1.8024697722	 0.0624354408	 0.1188
H	-0.4459084756	 1.7552117849	-0.9850616681	 0.126136
H	-0.6263161504	 1.8567029555	 0.7714683072	 0.153476
H	 0.7249158739	-0.4944734701	-0.4082587583	 0.245131
H	-3.2728374925	-3.2127548446	-0.0237769331	 0.134777
H	-0.5055546399	-3.9705467231	-0.2360965639	 0.246937
H	 0.4045761248	-2.9445344934	 0.6695488247	 0.250294
107.274	158.9913	174.8918	206.0348	276.6349	304.9998	387.856	531.0361	571.7964	585.1144	659.576	737.5154	777.5228	793.0466	835.2276	914.1696	950.233	1076.3058	1139.7452	1145.8959	1153.1122	1184.3671	1268.0103	1316.1699	1424.8033	1454.9886	1481.6321	1509.5096	1530.7896	1592.229	1642.0484	1696.9921	3008.7934	3092.7937	3133.4543	3259.3005	3501.0229	3575.5165	3600.557
CNC1=NOC=C1N	CNc1nocc1N	
InChI=1S/C4H7N3O/c1-6-4-3(5)2-8-7-4/h2H,5H2,1H3,(H,6,7)	InChI=1S/C4H7N3O/c1-6-4-3(5)2-8-7-4/h2H,5H2,1H3,(H,6,7)
