16
gdb 12721	3.01494	2.27541	1.69716	1.6247	65.66	-0.2434	0.0248	0.2681	812.5478	0.131745	-379.900101	-379.892813	-379.891869	-379.931544	27.654	
N	-0.0424876323	 1.4191042305	-0.2166094999	-0.598664
C	-0.0275687737	 0.0016067285	-0.0205373603	 0.213589
C	 0.4063284166	-0.8591690122	-1.2490968279	-0.275065
C	-0.8746725361	-1.7392885259	-1.1079889825	-0.233859
C	-1.2756483207	-0.9382211502	 0.1402102134	 0.080998
O	-0.6758672881	-1.5000712725	 1.3519961199	-0.275185
C	 0.3941129162	-0.6253849439	 1.298861909	 0.370364
N	 1.325901263	-0.4181863435	 2.1129008848	-0.556396
H	-0.0933222408	 1.9066659611	 0.6730475092	 0.240815
H	 0.8198396599	 1.7173215294	-0.6620635505	 0.23991
H	 0.407948273	-0.2587719649	-2.1614353287	 0.117538
H	 1.3696843259	-1.3619895101	-1.1499304082	 0.119642
H	-1.5714289347	-1.613819652	-1.9397799055	 0.114458
H	-0.7240458638	-2.8049062883	-0.9265078642	 0.119332
H	-2.3019138592	-0.6174413915	 0.3138631873	 0.095032
H	 1.255225335	-1.0281062645	 2.9294803641	 0.227492
113.5182	130.105	209.2534	273.2882	319.1728	381.8001	498.8593	599.7327	680.6638	717.869	748.6828	816.2356	827.3436	864.147	883.1147	924.6403	955.0674	969.5685	985.3851	1018.7584	1104.3423	1130.8125	1174.8503	1224.9227	1239.1701	1246.85	1269.9507	1306.5907	1325.1627	1384.4967	1463.4555	1483.6121	1663.6934	1814.3724	3071.1669	3076.5516	3122.0425	3128.5335	3139.6211	3471.7307	3497.1522	3573.2897
NC12CCC1OC2=N	N[C@]12CC[C@H]1O[C]2[NH]	
InChI=1S/C5H8N2O/c6-4-5(7)2-1-3(5)8-4/h3,6H,1-2,7H2	InChI=1S/C5H8N2O/c6-4-5(7)2-1-3(5)8-4/h3,6H,1-2,7H2/t3-,5-/m1/s1
