17
gdb 47777	2.68335	1.42115	0.98534	7.074	73.26	-0.2607	0.006	0.2667	1165.099	0.138762	-418.069782	-418.06171	-418.060766	-418.102833	30.035	
O	-0.0512159461	-0.093250187	 0.1422436509	-0.352985
C	-0.0534508982	 1.1171074592	 0.0718673211	 0.423656
N	-1.1977452317	 1.8449625696	-0.0793514813	-0.325849
C	-1.362784621	 3.2894443401	 0.0483360517	-0.151483
C	-0.0712957936	 4.0199731371	-0.3089027808	-0.219638
C	 1.1050397482	 3.4098280736	 0.4529013978	-0.214309
C	 1.2655011389	 1.9273451389	 0.0507158804	-0.269894
C	 2.2848802079	 1.2595978291	 0.8589403473	 0.294263
N	 3.1187666952	 0.7984084813	 1.5112542294	-0.320243
H	-2.0298532164	 1.2718701438	-0.0504191505	 0.254932
H	-2.1769769395	 3.6038570351	-0.6126543954	 0.12089
H	-1.6609972854	 3.5504070737	 1.0749130959	 0.117705
H	 0.1076175222	 3.950608482	-1.388831888	 0.115457
H	-0.1797220221	 5.0807042116	-0.0651344903	 0.116143
H	 2.0357151822	 3.9456886512	 0.2478088341	 0.127109
H	 0.9297432588	 3.4758869288	 1.5328248578	 0.128468
H	 1.6008993607	 1.8851493321	-0.99517813	 0.155778
65.3363	138.4108	152.379	227.8625	314.371	375.2648	416.9652	452.4807	511.5291	562.4186	587.2592	659.4198	677.8295	790.8693	890.8478	899.4935	919.1099	988.1561	1050.2474	1073.6727	1107.834	1119.1201	1195.2093	1218.1126	1275.0621	1293.2405	1311.802	1337.0455	1382.4458	1385.2241	1404.0152	1480.7986	1489.7089	1501.5523	1528.1731	1800.2271	2369.0562	2991.48	3020.7586	3036.602	3048.6755	3067.5462	3094.35	3099.0766	3598.2335
O=C1NCCCC1C#N	O=C1NCCC[C@H]1C#N	
InChI=1S/C6H8N2O/c7-4-5-2-1-3-8-6(5)9/h5H,1-3H2,(H,8,9)	InChI=1S/C6H8N2O/c7-4-5-2-1-3-8-6(5)9/h5H,1-3H2,(H,8,9)/t5-/m0/s1
