15
gdb 17749	4.10051	2.58481	2.14612	0.537	62.16	-0.2444	0.0634	0.3077	681.2809	0.119589	-362.569063	-362.563275	-362.562331	-362.598579	23.666	
C	-0.0073867021	 1.4599131682	-0.0760004212	-0.52143
C	-0.0494654161	-0.0350205496	-0.0254419662	 0.436499
O	 0.2505663053	-0.7173210918	-1.2736473554	-0.322878
C	-0.4010177057	-1.8637132798	-0.6899614103	 0.060004
C	 0.3653766075	-2.2299369719	 0.608545985	-0.058691
C	 0.6337971129	-0.8569642156	 1.1069224685	-0.104477
N	-0.6180869408	-1.5694834338	 1.5348250802	-0.184856
C	-1.2496962424	-0.9868400559	 0.2630925117	-0.091809
H	 1.0101637137	 1.8047208514	-0.2892030748	 0.136112
H	-0.6702156692	 1.8404901716	-0.8576848828	 0.134096
H	-0.3175006085	 1.8806635208	 0.8852483513	 0.134332
H	-0.7308991135	-2.6168855364	-1.4014215604	 0.090946
H	 0.9153766747	-3.1202771579	 0.8843689823	 0.102441
H	 1.4127355694	-0.5798483568	 1.8063013643	 0.099257
H	-2.3119264451	-0.7597883525	 0.2049641978	 0.090454
200.3018	262.1643	280.162	553.5116	581.6446	606.449	753.9812	771.6089	789.4513	817.7993	850.6887	858.1	876.5685	891.7969	915.0066	939.4508	977.3277	1005.0201	1031.0044	1120.6912	1130.3304	1135.2248	1155.5108	1207.3139	1217.1373	1232.6008	1291.4545	1313.2462	1372.1655	1420.4748	1478.4017	1490.7108	3039.4045	3108.8573	3122.1891	3142.3577	3156.1095	3191.4888	3205.6966
CC12OC3C4C1N4C23	C[C@@]12O[C@H]3[C@H]4[C@@H]1N4[C@@H]23	
InChI=1S/C6H7NO/c1-6-4-2-3(8-6)5(6)7(2)4/h2-5H,1H3	InChI=1S/C6H7NO/c1-6-4-2-3(8-6)5(6)7(2)4/h2-5H,1H3/t2-,3-,4-,5+,6+,7?/m0/s1
