15
gdb 14250	4.12493	1.75472	1.59606	4.8787	60.68	-0.241	0.0019	0.2429	838.1239	0.119521	-399.791074	-399.784213	-399.783269	-399.822168	25.866	
C	 0.3831273058	 1.5157943317	 0.0108718851	-0.389772
C	 0.112664397	 0.0240451439	 0.0482243152	 0.023701
N	 0.9582381641	-0.8067129358	-0.870266214	-0.332441
C	 1.2772688357	-1.7592827806	 0.227363897	-0.208463
C	 0.6192889299	-0.8108913442	 1.2485174665	 0.087145
O	 1.9368821167	-0.4181506606	 1.7389176159	-0.259622
C	 2.5850139697	-1.3212188625	 0.9087683776	 0.490122
O	 3.7474178386	-1.5460758403	 0.8563837371	-0.317636
H	 1.4358077302	 1.7187296288	 0.219274647	 0.144027
H	 0.1428339871	 1.9209627194	-0.9768828139	 0.122404
H	-0.2299678093	 2.0389290495	 0.7525197805	 0.118208
H	-0.9588011575	-0.1801618293	-0.0857601689	 0.080091
H	 0.4474032249	-1.2296898224	-1.6353437508	 0.231163
H	 1.0763047239	-2.8196595421	 0.0815460213	 0.107582
H	-0.0453801771	-1.0740854655	 2.0683105244	 0.10349
102.2174	199.5572	220.1245	255.5735	379.7878	440.8969	547.7747	624.0134	688.4138	775.9766	800.0297	824.8846	879.0673	919.5512	932.1208	959.5022	1031.0362	1051.0105	1097.7667	1112.5131	1140.843	1177.8549	1215.076	1225.5499	1322.0489	1329.9377	1372.2189	1377.8612	1413.8479	1486.8603	1494.1407	1948.4945	3005.4437	3041.3204	3107.6128	3127.3341	3134.9999	3144.3949	3556.0747
CC1NC2C1OC2=O	C[C@H]1N[C@@H]2[C@H]1OC2=O	
InChI=1S/C5H7NO2/c1-2-4-3(6-2)5(7)8-4/h2-4,6H,1H3	InChI=1S/C5H7NO2/c1-2-4-3(6-2)5(7)8-4/h2-4,6H,1H3/t2-,3-,4+/m1/s1
