18
gdb 92931	3.32915	1.12509	0.8711	3.8028	77.74	-0.2197	-0.0053	0.2144	1286.0002	0.148984	-439.124235	-439.115897	-439.114953	-439.157223	31.467	
O	-0.1269925354	 1.43361154	 0.0301766057	-0.430337
C	 0.0350524229	 0.0255655031	 0.0297578212	 0.101311
C	 0.7554596709	-0.4941364726	 1.2811687044	-0.296458
C	 0.5536282145	-1.9791826542	 1.4376578298	-0.150374
C	-0.3972839833	-2.647623326	 0.7803378579	 0.038285
N	-1.3209825785	-2.014855949	-0.0610731616	-0.08126
C	-1.3773267622	-0.5586752095	-0.0395871796	-0.175597
C	-2.1939656291	-2.7540300429	-0.822853399	 0.147633
O	-2.2395056041	-3.9633010005	-0.8540549709	-0.326477
H	 0.7439276482	 1.83680412	 0.1003901673	 0.28799
H	 0.586589284	-0.3064552205	-0.8639052322	 0.083459
H	 1.8271585169	-0.2632127753	 1.2166644178	 0.102168
H	 0.3756303663	 0.0552313955	 2.1541836932	 0.119991
H	 1.218634254	-2.5302491071	 2.0924882972	 0.101136
H	-0.5366378548	-3.7189424485	 0.839197265	 0.145383
H	-1.9425336606	-0.2062164958	 0.8334375902	 0.12499
H	-1.8870064063	-0.2032214899	-0.9383520627	 0.128266
H	-2.8641126033	-2.1042006069	-1.4171802236	 0.079891
84.7877	150.6496	214.6491	253.8643	260.6022	296.3958	354.7932	409.8558	439.9603	480.3569	505.0061	662.7888	758.5155	793.4982	875.8466	892.331	943.3286	976.5833	981.1539	1022.7819	1075.8501	1084.7346	1108.5951	1165.8733	1179.8768	1239.8881	1266.0917	1315.7462	1323.3196	1348.3175	1357.3557	1388.6265	1434.2477	1441.8365	1448.2702	1482.7622	1504.0562	1719.0528	1797.4884	2952.364	2977.9213	3006.2686	3022.7127	3040.2275	3103.6922	3194.2914	3235.2058	3824.1531
OC1CC=CN(C1)C=O	O[C@H]1CC=CN(C1)C=O	
InChI=1S/C6H9NO2/c8-5-7-3-1-2-6(9)4-7/h1,3,5-6,9H,2,4H2	InChI=1S/C6H9NO2/c8-5-7-3-1-2-6(9)4-7/h1,3,5-6,9H,2,4H2/t6-/m0/s1
