19
gdb 7480	3.74032	1.44901	1.41682	3.5458	71.86	-0.2442	0.0322	0.2764	987.5669	0.16519	-365.084672	-365.076206	-365.075261	-365.117523	31.542	
C	-0.0059822576	 1.619505237	 0.164770419	-0.432852
C	-0.0036110586	 0.0939694931	 0.0398826349	 0.362328
C	 1.0986377308	-0.431443209	-0.9309996822	-0.22674
C	 2.0020682426	-0.7163414202	 0.2988097821	-0.218514
C	 0.7437581476	-0.6163979462	 1.2042254645	-0.27692
N	-1.3538103403	-0.414032682	-0.1887174954	-0.333167
C	-2.0430508421	-0.2246221366	-1.3410703491	 0.148685
O	-1.6211361966	 0.3611769211	-2.3183113011	-0.334821
H	 1.007173516	 1.9955428903	 0.3391142104	 0.113088
H	-0.3888948732	 2.0660864015	-0.7556321326	 0.152068
H	-0.6363258495	 1.9374766218	 1.0022099602	 0.105985
H	 0.7797074477	-1.3490293413	-1.429373378	 0.107299
H	 1.4571545911	 0.2712306558	-1.6844618943	 0.111454
H	 2.5426748606	-1.6644346041	 0.3114854605	 0.102318
H	 2.7162595072	 0.0879297266	 0.4920152144	 0.108453
H	 0.8267287011	-0.0648682009	 2.1444765889	 0.100539
H	 0.3180039292	-1.6037743324	 1.4095586748	 0.096119
H	-1.8177787298	-0.8897282734	 0.5694252657	 0.242348
H	-3.0532193463	-0.6819074712	-1.3005154928	 0.072329
67.0829	140.2573	167.5494	203.8907	278.9239	291.8515	358.6339	394.3604	411.7325	524.254	590.392	706.198	778.9066	835.7201	868.9317	918.9237	929.7046	937.8743	962.1493	993.6306	1030.1375	1063.3981	1162.3049	1190.0377	1191.9993	1211.599	1231.6293	1256.1844	1275.37	1290.2929	1304.6914	1400.4867	1428.668	1468.7556	1478.5845	1485.1096	1504.1811	1506.0202	1511.9303	1795.4836	2918.912	3035.0698	3046.388	3068.5597	3079.0257	3099.4656	3101.678	3118.541	3132.858	3138.1491	3623.7567
CC1(CCC1)NC=O	CC1(CCC1)NC=O	
InChI=1S/C6H11NO/c1-6(7-5-8)3-2-4-6/h5H,2-4H2,1H3,(H,7,8)	InChI=1S/C6H11NO/c1-6(7-5-8)3-2-4-6/h5H,2-4H2,1H3,(H,7,8)
