19
gdb 119102	1.89199	1.02303	0.7205	1.8437	81.37	-0.2462	0.0314	0.2775	1604.8115	0.155801	-422.973947	-422.963244	-422.9623	-423.01213	36.513	
C	-0.1148296749	 1.5550136882	 0.2498061213	-0.503794
C	-0.0259561369	 0.1048432889	 0.1680407389	 0.113813
C	 0.0347942016	-1.0965700699	 0.1031340377	 0.037921
C	 0.1453001522	-2.5353464323	 0.018206828	 0.193073
C	 1.4079723277	-3.0822772225	-0.6218553929	-0.265313
C	 1.5320976272	-2.6993700976	-2.0931906	-0.072816
O	 2.7449825991	-3.261106258	-2.5732125085	-0.422282
C	-0.6087904365	-3.3672275161	 0.9794915111	-0.216661
O	-1.0678498579	-3.2281667842	-0.3597012269	-0.267163
H	 0.8073369835	 2.0289733315	-0.1035054605	 0.151853
H	-0.9393291024	 1.9338476006	-0.3640869837	 0.154751
H	-0.2869437209	 1.8869709481	 1.2795236496	 0.151532
H	 2.2844275869	-2.709115094	-0.0804292144	 0.114609
H	 1.4052360256	-4.1734323647	-0.5396878284	 0.113094
H	 0.6612685292	-3.0870170302	-2.6426996662	 0.102445
H	 1.5288519325	-1.6035605005	-2.1929047667	 0.096284
H	 2.8228128673	-3.049591464	-3.5078152954	 0.286149
H	-0.2177636623	-4.3486538367	 1.2469625924	 0.114339
H	-1.219020191	-2.8806012067	 1.7382654346	 0.118166
15.0819	58.2664	81.0664	108.0269	128.0433	188.4763	252.8975	293.1752	321.215	335.4897	378.3859	422.0332	533.5191	569.4368	665.5315	771.3444	824.631	913.2342	940.7104	1031.2473	1039.466	1051.4292	1054.7464	1080.7353	1089.2103	1134.5808	1168.7626	1218.5853	1241.3274	1282.0916	1308.1939	1339.9923	1387.6592	1413.675	1459.8181	1474.7073	1476.0993	1477.3212	1519.972	1529.8642	2367.5191	2983.3543	3016.016	3028.8317	3047.6216	3079.571	3090.3291	3091.9709	3098.5919	3172.0596	3832.8755
CC#CC1(CCO)CO1	CC#C[C@@]1(CCO)CO1	
InChI=1S/C7H10O2/c1-2-3-7(4-5-8)6-9-7/h8H,4-6H2,1H3	InChI=1S/C7H10O2/c1-2-3-7(4-5-8)6-9-7/h8H,4-6H2,1H3/t7-/m1/s1
