16
gdb 57725	3.6686	0.88492	0.86684	1.1876	67.17	-0.2927	-0.0078	0.2848	1346.1086	0.120969	-475.049319	-475.039554	-475.03861	-475.084379	34.092	
C	-0.0948149055	 1.5846066437	 0.0079545372	-0.402225
C	-0.1870916049	 0.055640149	 0.0088454277	 0.190746
O	 0.1824678361	-0.3746598456	 1.3119197925	-0.437512
C	-1.6191354118	-0.4323948032	-0.3301434996	-0.111343
O	-2.5570261499	 0.1408238036	 0.5654038748	-0.179665
C	-2.8703454456	-0.5588637615	 1.6839262917	 0.187251
O	-3.5692830992	-0.1133574769	 2.5383336927	-0.262173
C	 0.7280723043	-0.5234024224	-0.9997517345	 0.240212
N	 1.4241215367	-1.0196272131	-1.7774149548	-0.319113
H	 0.919124981	 1.8914029	 0.2691838623	 0.149259
H	-0.3497796721	 1.9864485168	-0.9753820437	 0.137592
H	-0.79345823	 1.9780073528	 0.7477961636	 0.162726
H	 0.3699550362	-1.3204529016	 1.2933361583	 0.298866
H	-1.9027009351	-0.1189601625	-1.3375749182	 0.147189
H	-1.6524691424	-1.5287972662	-0.2861451402	 0.122188
H	-2.4312398777	-1.5736927428	 1.6891119203	 0.076002
68.7829	72.2479	147.8993	176.4891	189.8221	223.5954	277.5459	317.9127	327.8957	398.7691	409.3491	454.2259	565.4573	590.4724	681.3995	758.7085	895.5899	960.7361	972.0571	1028.7961	1054.3636	1108.3841	1145.2812	1185.3146	1197.067	1309.6126	1368.8605	1391.8136	1412.822	1431.3363	1481.6633	1486.6464	1496.0793	1879.376	2352.8659	2965.9962	3028.8192	3065.169	3112.9556	3147.0015	3159.0717	3800.9618
CC(O)(COC=O)C#N	C[C@@](O)(COC=O)C#N	
InChI=1S/C5H7NO3/c1-5(8,2-6)3-9-4-7/h4,8H,3H2,1H3	InChI=1S/C5H7NO3/c1-5(8,2-6)3-9-4-7/h4,8H,3H2,1H3/t5-/m0/s1
