19
gdb 71284	2.75064	1.97785	1.44211	1.6344	79.02	-0.2179	0.0103	0.2283	958.466	0.160318	-385.865329	-385.858058	-385.857114	-385.896459	30.187	
C	 0.0596694033	 1.4261457186	-0.1575407512	-0.467794
C	-0.030465828	-0.0689515907	 0.0561495809	 0.381976
O	 0.3116784487	-0.7816251696	-1.2027258579	-0.336528
C	-0.9892755766	-1.3576272646	-1.2373502815	 0.082575
C	-1.278596335	-2.1667851812	 0.0020331074	-0.080076
C	-0.1994166723	-2.8390348321	 0.8500149312	-0.287569
C	 0.7102018169	-1.8659861441	 1.5551788925	-0.069151
C	 0.7994277503	-0.5856600729	 1.2011184689	-0.072198
C	-1.453330635	-0.6636920733	 0.0089782129	-0.198812
H	 1.0945459458	 1.7164745837	-0.3656045911	 0.126689
H	-0.5630896115	 1.7339242151	-1.0012965967	 0.122833
H	-0.2739423552	 1.9607695343	 0.7391417775	 0.116432
H	-1.446636739	-1.5206794257	-2.2066213282	 0.096269
H	-2.2187103525	-2.7098141143	-0.0610473879	 0.088193
H	-0.6745952758	-3.4872581523	 1.5974928094	 0.105906
H	 0.4042216497	-3.5089009403	 0.2215431209	 0.124989
H	 1.3071137437	-2.256581773	 2.3753363002	 0.091891
H	 1.4672329412	 0.1007185256	 1.7136560913	 0.083611
H	-2.3625623387	-0.1366094631	 0.2666216914	 0.090763
147.9127	231.1965	267.6491	299.4889	333.3949	434.8569	488.302	509.0024	620.2882	665.3161	695.0545	731.1167	794.7769	824.8401	842.3289	874.15	913.0571	932.6265	971.849	974.2486	998.7074	1027.461	1045.4082	1056.3492	1076.379	1122.3527	1138.5466	1163.5969	1211.7771	1233.0545	1240.0893	1294.8363	1323.3995	1354.2531	1406.3858	1411.0716	1423.3176	1467.0188	1483.7586	1488.9769	1709.7734	3009.18	3032.848	3037.2998	3101.7835	3121.8164	3139.9242	3152.6646	3174.8096	3177.0188	3195.9806
CC12OC3C(CC=C1)C23	C[C@@]12O[C@H]3[C@@H](CC=C1)[C@@H]23	
InChI=1S/C8H10O/c1-8-4-2-3-5-6(8)7(5)9-8/h2,4-7H,3H2,1H3	InChI=1S/C8H10O/c1-8-4-2-3-5-6(8)7(5)9-8/h2,4-7H,3H2,1H3/t5-,6+,7-,8+/m0/s1
