18
gdb 113485	4.65537	0.93481	0.92177	1.5768	72.18	-0.2405	0.0676	0.3081	1309.4608	0.147008	-439.002872	-438.994631	-438.993687	-439.03617	31.171	
O	 0.081820411	 1.2844612825	-0.5822197601	-0.415542
C	 0.0706621823	 0.1516702747	 0.267717268	-0.079418
C	-1.3137212031	-0.4332702461	 0.3881013153	-0.087657
O	-1.7857222329	-1.0971205327	-0.8107086329	-0.303547
C	-1.5659744669	-1.8759446891	 0.3503825185	 0.443478
C	-0.6706689319	-3.1205031951	 0.3272634339	-0.261729
N	-1.7899321372	-3.9710782654	 0.8809765984	-0.123265
C	-2.1267921043	-3.3817084637	 2.1868332828	-0.239333
C	-2.6515349858	-2.7180729982	 0.9731087555	-0.135932
H	-0.2799090921	 0.9979752224	-1.4287831895	 0.294405
H	 0.766699114	-0.6255061911	-0.0831963482	 0.092635
H	 0.4181665819	 0.4967315367	 1.2477680963	 0.113771
H	-2.0599882079	 0.2162342632	 0.8477751705	 0.101422
H	-0.4324424554	-3.4283261386	-0.6929250047	 0.132959
H	 0.2373994677	-3.1266148191	 0.9391520809	 0.110468
H	-2.8153170691	-3.9909925593	 2.7642411564	 0.129556
H	-1.3447846578	-2.9003185924	 2.7716083535	 0.11387
H	-3.6984558025	-2.7069302188	 0.6902044055	 0.113857
63.6094	112.508	150.4651	199.24	331.0883	393.042	412.6635	449.8441	461.5953	506.2257	632.5672	745.7496	787.0048	808.699	850.9873	908.0028	945.1343	971.6533	997.998	1044.625	1052.6828	1083.8578	1095.8186	1103.6813	1115.535	1126.1529	1182.7813	1200.7808	1224.514	1227.1341	1274.1183	1315.9641	1338.8027	1384.6899	1425.0346	1481.2244	1489.9095	1499.946	1520.0085	2989.9757	3049.0777	3071.4327	3099.6451	3108.296	3120.4547	3177.2764	3197.2242	3800.2992
OCC1OC11CN2CC12	OC[C@H]1O[C@]21CN1C[C@@H]21	
InChI=1S/C6H9NO2/c8-2-5-6(9-5)3-7-1-4(6)7/h4-5,8H,1-3H2	InChI=1S/C6H9NO2/c8-2-5-6(9-5)3-7-1-4(6)7/h4-5,8H,1-3H2/t4-,5+,6+,7?/m0/s1
