13
gdb 133498	3.42053	0.96528	0.90707	2.7395	48.08	-0.2849	0.0435	0.3284	1231.2354	0.084923	-621.43402	-621.42522	-621.424276	-621.469157	30.452	
N	-0.1687895415	 1.2024986256	-0.0414433454	-0.559806
C	-0.0987566048	-0.1250514099	 0.2372166094	 0.511297
O	 0.5586790695	-0.6357169203	 1.109026198	-0.386936
O	-0.8654779084	-0.8137415106	-0.6705646632	-0.259351
C	-0.9417604126	-2.2138941449	-0.4703370529	-0.207004
C	-2.2864801482	-2.5666325792	 0.1489881492	 0.266651
F	-3.3061026039	-2.2282784851	-0.6501309775	-0.075859
F	-2.3506985248	-3.8885807112	 0.3619770237	-0.07421
F	-2.4645954731	-1.9431163098	 1.3185104166	-0.070894
H	 0.2212754806	 1.8309558466	 0.6386894062	 0.276417
H	-0.8843348081	 1.5412113854	-0.6611108571	 0.272545
H	-0.8660815837	-2.7027134383	-1.4439760526	 0.139333
H	-0.1450425608	-2.5509220484	 0.1949552557	 0.167819
46.7995	55.3752	77.648	237.5129	265.0877	296.2801	352.2521	378.7866	496.6647	526.8486	530.5878	564.6068	661.8584	671.6151	775.887	848.6147	876.5509	994.141	1111.5339	1137.0673	1201.9411	1215.0595	1288.5779	1332.2324	1358.3549	1428.0155	1474.3536	1612.1738	1853.5991	3083.8659	3148.7955	3621.2185	3753.0744
NC(=O)OCC(F)(F)F	NC(=O)OCC(F)(F)F	
InChI=1S/C3H4F3NO2/c4-3(5,6)1-9-2(7)8/h1H2,(H2,7,8)	InChI=1S/C3H4F3NO2/c4-3(5,6)1-9-2(7)8/h1H2,(H2,7,8)
