16
gdb 14536	4.48322	1.60933	1.44782	5.2134	69.37	-0.2546	0.0238	0.2784	895.4967	0.130967	-342.749509	-342.742147	-342.741203	-342.780832	27.805	
C	-0.0774321184	 1.5502330725	 0.0240594506	-0.481204
C	 0.0408302272	 0.0385208266	-0.0651022674	 0.157106
C	-1.0406982507	-0.642051607	 0.6255588556	 0.266677
N	-1.9312947095	-1.1483612572	 1.1607829033	-0.339284
C	 0.5951741158	-0.7187472109	-1.2259479854	-0.044896
C	 1.7219746748	 0.0342094401	-1.9262268979	-0.272033
C	 2.4087541858	 0.093112683	-0.5373336171	-0.161738
N	 1.3142980963	-0.72313948	 0.1072616031	-0.15859
H	 0.6292470648	 2.063119796	-0.6283166408	 0.133482
H	-1.0858871764	 1.8550782959	-0.2683012627	 0.148571
H	 0.0910622677	 1.8847844298	 1.0521299816	 0.148135
H	 0.0921255088	-1.6027723474	-1.6044939156	 0.117779
H	 2.2619053809	-0.5966701149	-2.6337629132	 0.126306
H	 1.46157054	 0.9718017692	-2.4246589508	 0.115169
H	 3.3389279209	-0.4742345722	-0.4853263473	 0.128207
H	 2.5690157921	 1.0734714264	-0.081971486	 0.116314
148.1794	164.942	170.5224	266.7522	314.6232	378.475	442.7757	547.3949	553.4598	646.9005	741.5819	785.7328	845.7318	850.1307	940.6558	962.6752	992.6568	1007.571	1045.8017	1100.2597	1106.1983	1148.183	1215.2085	1233.905	1264.1677	1289.8784	1298.5216	1384.6924	1416.9048	1476.2084	1492.2746	1500.2838	1514.486	2359.247	3054.034	3064.5785	3074.057	3117.5994	3118.5071	3134.3492	3149.5942	3168.0801
CC1(C#N)C2CCN12	C[C@@]1(C#N)[C@H]2CCN12	
InChI=1S/C6H8N2/c1-6(4-7)5-2-3-8(5)6/h5H,2-3H2,1H3	InChI=1S/C6H8N2/c1-6(4-7)5-2-3-8(5)6/h5H,2-3H2,1H3/t5-,6-,8?/m1/s1
