20
gdb 16767	3.83226	1.58181	1.50934	1.1516	74.47	-0.2457	0.0818	0.3275	959.2874	0.178641	-348.997222	-348.989622	-348.988677	-349.028947	29.59	
C	 0.2579294995	 0.7241220748	 0.5895468933	-0.236943
O	 0.1365971215	-0.5059782543	-0.0834483892	-0.236858
C	 0.5783678324	-0.4772593299	-1.4381969404	 0.102478
C	 2.1224468878	-0.5557336933	-1.5718876975	-0.235635
C	 2.449012263	-2.0358489352	-1.7078671272	-0.024684
C	 1.8248560567	-2.9858430035	-0.7135443023	-0.284529
C	 1.1725027263	-2.770221586	-2.0577932849	-0.02729
C	 0.0479350422	-1.7482542921	-2.1369536633	-0.232433
H	 1.3033973666	 1.048108181	 0.7020472356	 0.105049
H	-0.2921823358	 1.5241433278	 0.06849497	 0.102128
H	-0.1720060759	 0.5913991904	 1.5856247566	 0.12572
H	 0.1843703418	 0.4353012471	-1.9095732744	 0.061784
H	 2.4395768229	-0.0230572487	-2.476778116	 0.095327
H	 2.6219742249	-0.0731036008	-0.7252281183	 0.100752
H	 3.3957246935	-2.3118698527	-2.159377193	 0.07512
H	 2.3283494823	-3.9341155912	-0.5571078759	 0.10038
H	 1.3433827428	-2.5744400268	 0.1659836127	 0.129861
H	 1.1741317368	-3.5874616222	-2.7705708691	 0.075049
H	-0.8834100513	-2.0704860219	-1.6618773403	 0.109514
H	-0.1735236478	-1.5246831225	-3.1869900565	 0.095209
104.0365	143.019	207.0495	258.8269	320.9978	380.2622	396.3768	456.1694	634.7727	760.5406	762.5384	806.9849	825.2872	874.1032	881.036	937.0005	960.0322	982.2448	1046.3966	1063.2553	1075.8971	1091.8087	1108.7316	1121.6781	1137.5881	1182.5053	1191.8594	1202.8522	1216.0568	1259.1691	1267.7713	1323.5611	1325.9694	1366.2718	1383.1784	1408.1166	1473.6913	1478.1194	1480.7995	1491.4639	1496.1951	1511.9836	2971.5373	2985.221	3019.2673	3033.0962	3042.0993	3075.1457	3090.0393	3110.3087	3134.1	3160.7276	3170.8615	3225.8472
COC1CC2CC2C1	CO[C@H]1C[C@H]2C[C@H]2C1	
InChI=1S/C7H12O/c1-8-7-3-5-2-6(5)4-7/h5-7H,2-4H2,1H3	InChI=1S/C7H12O/c1-8-7-3-5-2-6(5)4-7/h5-7H,2-4H2,1H3/t5-,6+,7+
