22
gdb 79576	2.06354	1.64513	1.46876	1.7064	85.58	-0.2448	0.0842	0.3289	1098.1289	0.193714	-367.168545	-367.159335	-367.158391	-367.201618	35.903	
C	-0.048163818	 1.5549282357	-0.0423506275	-0.421184
C	 0.0886594705	 0.0490181892	 0.0571802424	-0.054154
C	 1.3649003791	-0.7200473966	-0.1994802515	-0.15299
C	 2.5694010274	-0.0223882448	 0.3905970826	-0.100517
N	 3.1587941393	-0.7794651631	 1.5009906841	-0.376683
C	 1.9321041007	-0.0124927253	 1.7567709438	 0.280496
C	 1.9500475125	 1.0050761863	 2.8611987509	-0.492904
C	 0.7046202947	-0.730407553	 1.1995840002	 0.264737
C	-0.0086522224	-1.8512562816	 1.9081385832	-0.500078
H	 0.8410758952	 2.07499114	 0.3193935475	 0.12692
H	-0.2077261875	 1.855584641	-1.0839849304	 0.11512
H	-0.9067214346	 1.9105980594	 0.538413939	 0.114056
H	-0.780007837	-0.4732880512	-0.3464631884	 0.079516
H	 1.4082975984	-1.5395136327	-0.9105211119	 0.082279
H	 3.1834711175	 0.7379983328	-0.07902938	 0.091863
H	 2.9781153424	-1.7775762657	 1.4068182223	 0.220456
H	 2.9298977896	 1.4856432637	 2.9199456779	 0.131528
H	 1.1866851816	 1.7748064762	 2.7115456116	 0.117609
H	 1.7563980274	 0.5290342632	 3.8300161379	 0.118868
H	-0.6203281756	-1.4739938429	 2.7366713857	 0.121876
H	-0.6755595063	-2.3920457045	 1.2288188504	 0.118948
H	 0.6988804251	-2.5770817559	 2.3267286802	 0.114239
159.5593	175.7779	188.0698	198.1177	214.0736	219.4427	244.0447	323.7411	375.0876	463.9425	527.8276	608.6587	630.7311	655.805	743.7425	799.3535	828.6702	894.8575	903.6486	944.3651	979.1237	985.4057	1019.3209	1039.658	1088.4881	1099.9791	1101.8794	1121.6104	1127.8842	1155.0222	1184.7732	1220.1868	1242.0694	1289.7623	1302.544	1333.5723	1393.8724	1411.2402	1414.1033	1431.918	1463.0272	1484.51	1486.7546	1491.2223	1497.7843	1501.2513	1502.1795	3018.3072	3030.2334	3031.8284	3074.2038	3085.7906	3089.7634	3092.8064	3097.9704	3121.4582	3129.4657	3155.4556	3174.5289	3460.3143
CC1C2C3NC3(C)C12C	C[C@H]1[C@H]2[C@@H]3N[C@]3(C)[C@@]12C	
InChI=1S/C8H13N/c1-4-5-6-8(3,9-6)7(4,5)2/h4-6,9H,1-3H3	InChI=1S/C8H13N/c1-4-5-6-8(3,9-6)7(4,5)2/h4-6,9H,1-3H3/t4-,5-,6-,7-,8-/m0/s1
