17
gdb 98740	2.28778	1.27102	0.89215	2.7583	71.1	-0.25	-0.0377	0.2123	1288.5654	0.134405	-455.147652	-455.137981	-455.137037	-455.183964	33.044	
C	 0.0998838	 1.3852638618	 0.193946034	-0.334473
N	 0.3939397665	-0.0297826391	 0.0621402379	-0.310651
C	 0.4025644621	-0.667969902	-1.1424354489	 0.406199
O	 0.1778557436	-0.1258397472	-2.2057727259	-0.365273
C	 0.6535997805	-2.1667771971	-1.0488326336	-0.139677
N	 1.7511083859	-2.7064027621	-1.8232444025	-0.306132
C	 1.8341053656	-2.7942497676	-0.3538432966	-0.133948
C	 2.8830818357	-1.9353546881	 0.2706746884	 0.158859
O	 3.2368733361	-2.0444567537	 1.4187747644	-0.263965
H	 0.9471451465	 1.9273434454	 0.6269619657	 0.134435
H	-0.0974120297	 1.7702095219	-0.8069986448	 0.174203
H	-0.7813224975	 1.5495667252	 0.8233346225	 0.129585
H	 0.5994843016	-0.5625162733	 0.8918189569	 0.259119
H	-0.2713423072	-2.7406656452	-0.9939438906	 0.126838
H	 1.5148997473	-3.6062826648	-2.2306260373	 0.250464
H	 1.6598475621	-3.7398748036	 0.154221115	 0.111116
H	 3.3069954009	-1.1727090905	-0.4167259047	 0.103301
29.7475	67.6531	75.365	130.2994	167.5995	229.9748	286.392	333.6988	353.2994	482.7027	492.7852	562.3791	579.6293	782.3803	821.509	891.1936	907.0362	930.2734	1002.9286	1048.009	1069.8794	1105.0105	1152.9564	1171.9972	1186.3489	1211.4073	1220.3273	1262.8111	1358.6073	1405.8821	1439.6449	1450.5916	1493.5899	1499.6174	1562.8176	1793.721	1817.3996	2916.991	3033.5312	3088.2807	3110.7315	3146.7746	3156.8193	3523.7982	3642.4951
CNC(=O)C1NC1C=O	CNC(=O)[C@H]1N[C@H]1C=O	
InChI=1S/C5H8N2O2/c1-6-5(9)4-3(2-8)7-4/h2-4,7H,1H3,(H,6,9)	InChI=1S/C5H8N2O2/c1-6-5(9)4-3(2-8)7-4/h2-4,7H,1H3,(H,6,9)/t3-,4-/m0/s1
