19
gdb 95917	2.31558	1.50431	1.18356	1.6829	76.99	-0.2449	0.0303	0.2752	1122.8117	0.157212	-422.992967	-422.983411	-422.982467	-423.027148	35.47	
C	-0.5594195824	 1.2702747115	 0.0686143548	-0.420822
C	 0.1121198472	-0.087856673	-0.0966291611	-0.008145
C	 1.2591526601	-0.1408376942	-1.1129983434	-0.091757
O	 2.041783249	-1.286907572	-0.778397923	-0.268619
C	 1.7209008088	-1.7265003923	 0.5319116405	-0.096588
C	 0.8324874421	-0.6297704475	 1.1641641862	 0.160855
O	 1.6314540272	 0.4421132666	 1.6675580554	-0.464041
C	-0.0642759307	-1.1450845315	 2.1966803953	 0.26162
C	-0.7772397679	-1.5679518995	 3.0677537121	-0.431623
H	 0.1640945088	 2.0264817043	 0.3802225455	 0.139692
H	-1.015081488	 1.5910937497	-0.8736241095	 0.113233
H	-1.3494332988	 1.2223698197	 0.8239578711	 0.126072
H	-0.6349718929	-0.8398518548	-0.3752009097	 0.091247
H	 0.9037397288	-0.2487160159	-2.1432843118	 0.101515
H	 1.87486427	 0.7670436357	-1.0490857476	 0.104332
H	 1.1861307257	-2.6858044436	 0.4950615055	 0.100216
H	 2.6401402198	-1.864061714	 1.1141908242	 0.098491
H	 2.0493959902	 0.1413075435	 2.4811868953	 0.286415
H	-1.413270387	-1.9385006627	 3.8336535804	 0.197908
74.0379	117.9904	135.848	188.9853	207.2343	256.6395	270.2166	322.7302	378.6117	467.0547	503.0725	555.4025	581.0747	633.1372	658.8122	666.4769	761.968	899.0967	918.7581	951.5595	964.0946	1018.3678	1049.0113	1089.5347	1104.8859	1153.0795	1171.3713	1180.0089	1206.3771	1258.7803	1321.5431	1337.155	1361.141	1377.3613	1409.5292	1419.9022	1493.3849	1502.1825	1507.9859	1523.5368	2231.4285	3001.4499	3009.5537	3042.523	3044.8482	3051.3	3069.7994	3107.2305	3134.436	3498.98	3818.685
CC1COCC1(O)C#C	C[C@H]1COC[C@]1(O)C#C	
InChI=1S/C7H10O2/c1-3-7(8)5-9-4-6(7)2/h1,6,8H,4-5H2,2H3	InChI=1S/C7H10O2/c1-3-7(8)5-9-4-6(7)2/h1,6,8H,4-5H2,2H3/t6-,7+/m0/s1
