20
gdb 70580	2.55693	1.70655	1.35856	2.9126	77.71	-0.2409	0.0717	0.3126	1036.8881	0.17268	-403.123046	-403.11528	-403.114336	-403.1548	31.517	
C	-0.0497064535	 1.5109850191	 0.0132660378	-0.484693
C	 0.0520227769	 0.0034693786	-0.0068277667	 0.453092
O	-0.3010435346	-0.65154055	 1.2132543983	-0.284447
C	 1.0704592807	-0.7051501976	 0.7906301607	-0.032533
C	 1.6039825849	-2.0504179592	 0.3175381815	-0.23846
C	 1.7348708756	-2.126311017	-1.2178289913	-0.219821
C	 0.4656702505	-1.696631246	-1.9251343858	-0.01694
N	-0.7918824182	-2.065075767	-1.2625980609	-0.326616
C	-0.3925442784	-0.6486246064	-1.2983762856	-0.119133
H	 0.5124982668	 1.9531201832	-0.8169377899	 0.119347
H	-1.0944176046	 1.8284730943	-0.0830189437	 0.125032
H	 0.3421221222	 1.909309182	 0.9520254221	 0.127732
H	 1.7382717127	-0.1071064812	 1.4117684907	 0.081191
H	 2.5789310944	-2.2460072373	 0.7741949093	 0.092905
H	 0.915006677	-2.8258986478	 0.6605034593	 0.138986
H	 2.5556150782	-1.4813007041	-1.5598418341	 0.097038
H	 1.9977080349	-3.1494022187	-1.511605899	 0.102485
H	 0.500262121	-1.7248006158	-3.0127112804	 0.079256
H	-1.526452302	-2.2323354496	-1.9439631639	 0.232493
H	-0.9467792846	 0.0077926404	-1.9655403483	 0.073085
141.9617	192.6146	226.0414	271.937	323.2681	343.1907	448.6376	487.4429	502.8066	547.9558	624.6501	726.3839	781.1279	805.4924	863.0053	873.9115	899.057	930.7614	944.8901	961.8575	1025.733	1045.4017	1071.4023	1096.7304	1113.85	1118.6954	1159.1828	1184.1678	1210.7018	1232.9092	1249.2255	1274.1546	1336.0606	1358.9308	1382.5212	1408.5562	1411.328	1451.0266	1464.8048	1477.4834	1485.7856	1490.3353	1501.0824	3017.5248	3029.8084	3053.967	3061.0647	3090.6242	3095.5222	3114.6007	3118.2942	3124.2826	3130.9825	3513.92
CC12OC1CCC1NC21	C[C@]12O[C@H]1CC[C@H]1N[C@@H]21	
InChI=1S/C7H11NO/c1-7-5(9-7)3-2-4-6(7)8-4/h4-6,8H,2-3H2,1H3	InChI=1S/C7H11NO/c1-7-5(9-7)3-2-4-6(7)8-4/h4-6,8H,2-3H2,1H3/t4-,5+,6-,7+/m1/s1
