20
gdb 14018	4.98574	1.16842	1.09353	1.6303	75.81	-0.2203	0.0826	0.3029	1176.1384	0.176333	-348.974515	-348.966017	-348.965073	-349.007864	31.37	
C	-0.0143158364	 1.5433527289	-0.4777186891	-0.368711
C	 0.0059192435	 0.1611075849	 0.1853313907	-0.198665
C	-1.3632814615	-0.4826661519	 0.2534730779	-0.069139
C	-1.9372886802	-1.233912072	-0.9468273052	-0.363817
C	-1.534532939	-1.9652989342	 0.2931141402	 0.449149
C	-0.5114173155	-3.0797940427	 0.4933180159	-0.355196
C	-1.6063374659	-3.7013673084	 1.3869470716	-0.071813
O	-2.499820511	-2.590908477	 1.1439721162	-0.30777
H	 0.9889470551	 1.9790237927	-0.5198776908	 0.108864
H	-0.4002634446	 1.4822115751	-1.5005854719	 0.11862
H	-0.6566706081	 2.2361981136	 0.0765843211	 0.115512
H	 0.688685082	-0.4976808726	-0.3669799523	 0.092341
H	 0.420033866	 0.2464806237	 1.1988680198	 0.097463
H	-2.1006907393	 0.0639175071	 0.8382784821	 0.091963
H	-2.9996424623	-1.1393338294	-1.1450377399	 0.119565
H	-1.3158170715	-1.3415149346	-1.8319957026	 0.106986
H	-0.2546735967	-3.6503146625	-0.4012842515	 0.112258
H	 0.4043668688	-2.7875421918	 1.0114072325	 0.113314
H	-2.0291751018	-4.6475340886	 1.0300832003	 0.104528
H	-1.3578213917	-3.7968053602	 2.4501208349	 0.104548
69.5213	93.1339	132.6692	178.2967	250.1556	298.8617	348.7186	409.0201	480.9055	600.2335	770.3799	792.2964	808.8872	866.8187	870.8371	908.0325	926.3926	953.5224	986.5742	1022.3014	1028.4347	1043.7006	1093.2308	1120.2458	1129.3284	1164.6127	1181.4129	1204.5204	1214.6736	1245.6908	1294.2679	1321.6382	1355.5127	1370.9628	1408.7919	1421.2071	1481.0706	1487.5887	1493.5262	1497.2121	1506.6129	1534.0204	3013.1193	3023.6428	3032.1516	3044.2819	3065.0974	3071.8023	3100.3112	3104.1011	3116.4843	3124.2477	3130.7212	3209.516
CCC1CC11CCO1	CC[C@H]1C[C@]21CCO2	
InChI=1S/C7H12O/c1-2-6-5-7(6)3-4-8-7/h6H,2-5H2,1H3	InChI=1S/C7H12O/c1-2-6-5-7(6)3-4-8-7/h6H,2-5H2,1H3/t6-,7-/m0/s1
