18
gdb 14931	4.31281	1.43525	1.12536	3.5225	76.6	-0.2455	-0.0474	0.1981	1053.393	0.155423	-347.847508	-347.840115	-347.839171	-347.879239	28.068	
O	-0.1034612343	-0.0299092527	-0.0012373907	-0.277892
C	-0.0286979871	 1.1787101272	 0.0145301325	 0.088928
C	 1.2330722261	 1.9384723311	 0.0100470273	 0.225278
C	 1.1741289406	 3.2794455267	 0.0189221112	-0.118902
C	 2.3801471735	 4.1719317842	 0.0296090665	-0.251069
C	 3.6740080301	 3.4025314337	 0.3396797628	-0.200156
C	 3.7136062535	 2.0672904947	-0.4149960531	-0.208331
C	 2.5333641815	 1.1731670663	-0.011650844	-0.292097
H	-0.945983918	 1.8112518267	 0.0340298466	 0.062137
H	 0.1966114175	 3.7608456007	 0.0110226035	 0.096316
H	 2.455057965	 4.668525104	-0.9502063979	 0.120761
H	 2.2284645322	 4.9858072345	 0.7501402864	 0.113694
H	 4.543965952	 4.0180713813	 0.0892700548	 0.097351
H	 3.7263845927	 3.2071594044	 1.4183922016	 0.103606
H	 3.6703051548	 2.2614928844	-1.4947716131	 0.100121
H	 4.6590897993	 1.5482827604	-0.2274998374	 0.098417
H	 2.7071460373	 0.7356518296	 0.9811721854	 0.117429
H	 2.4304682834	 0.3173256327	-0.6866977224	 0.12441
95.3574	154.2873	211.7167	277.3745	321.4121	396.5254	438.7887	497.4439	565.6875	695.4584	776.6215	808.5077	843.1531	865.849	935.1966	943.6708	980.5185	1037.5804	1053.9681	1088.4982	1099.7504	1155.7526	1186.1102	1197.2277	1262.3921	1294.3173	1329.1812	1368.0279	1372.6735	1381.9542	1401.4792	1431.7236	1462.1506	1475.5807	1491.1042	1499.3271	1703.851	1788.5136	2864.9961	2994.8585	3017.2291	3021.9458	3027.889	3042.7558	3074.1144	3076.0979	3079.6741	3134.5039
O=CC1=CCCCC1	O=CC1=CCCCC1	
InChI=1S/C7H10O/c8-6-7-4-2-1-3-5-7/h4,6H,1-3,5H2	InChI=1S/C7H10O/c8-6-7-4-2-1-3-5-7/h4,6H,1-3,5H2
