18
gdb 49788	3.08059	1.40821	1.11668	1.4857	77.49	-0.232	-0.0243	0.2077	1099.2267	0.148314	-401.934072	-401.926221	-401.925277	-401.96699	29.778	
O	 0.051568539	-0.0181386784	-0.5648435772	-0.243621
C	 0.702525569	 0.551001569	 0.2723965204	 0.160802
C	 1.1974021615	 1.9868418583	 0.1686843228	-0.16973
C	 0.7327867966	 2.677283768	-1.0809860396	-0.056964
C	 0.4325760589	 3.9726586735	-1.1030851561	-0.081856
C	 0.5080690951	 4.8520951262	 0.1165373808	-0.207504
N	 0.5010464418	 4.1636163309	 1.4125423482	-0.10516
C	-0.5734173251	 3.2029594705	 1.6574144089	-0.248045
C	 0.8286487796	 2.740721095	 1.449019533	-0.0282
H	 0.9990785432	 0.0367368055	 1.2155518001	 0.079487
H	 2.2991531892	 1.9053384136	 0.1543039755	 0.113032
H	 0.6472777298	 2.0613910076	-1.9696749638	 0.113373
H	 0.1199009388	 4.4463009278	-2.0304487709	 0.096703
H	 1.422929499	 5.4607099274	 0.0768128704	 0.122007
H	-0.3247963304	 5.566165367	 0.118710653	 0.11757
H	-1.0038078297	 3.2288350751	 2.6547014218	 0.117003
H	-1.2795784218	 3.0045176201	 0.8538011652	 0.125514
H	 1.4113000457	 2.4488038229	 2.3210509676	 0.095589
57.5875	99.7191	207.9659	236.8378	331.2807	365.9222	415.1155	523.2262	576.1751	636.7654	713.1358	749.4355	763.5336	850.5952	883.545	922.8097	963.8426	971.1274	993.2171	1033.1881	1063.192	1071.774	1086.5809	1120.8365	1163.5412	1170.7446	1192.4351	1272.6411	1276.6074	1306.2424	1326.4203	1358.321	1393.2399	1409.7074	1439.4098	1478.7072	1502.1468	1727.7879	1829.0608	2866.9724	2947.9543	3004.2947	3045.8941	3101.356	3113.1918	3155.3269	3188.4246	3194.6205
O=CC1C=CCN2CC12	O=C[C@H]1C=CCN2C[C@@H]12	
InChI=1S/C7H9NO/c9-5-6-2-1-3-8-4-7(6)8/h1-2,5-7H,3-4H2	InChI=1S/C7H9NO/c9-5-6-2-1-3-8-4-7(6)8/h1-2,5-7H,3-4H2/t6-,7+,8?/m1/s1
