23
gdb 101030	2.57445	0.97458	0.91447	2.6115	81.37	-0.2513	0.0604	0.3118	1446.6805	0.204452	-425.407346	-425.396877	-425.395933	-425.44293	39.268	
C	 0.0109729001	-0.7062206488	 1.3039009465	-0.404705
C	 0.148148437	 0.2646270624	 0.1264589471	-0.267486
C	 0.8629223148	-0.2579941028	-1.1212205008	 0.366202
C	 2.1810227426	-0.9869979335	-0.9866117995	-0.308014
C	 0.9431284197	-1.7396316416	-1.4062466988	-0.309051
C	 0.7427883229	 0.6255095777	-2.3576384116	 0.022061
O	-0.5909464934	 0.678786658	-2.8862098063	-0.451055
C	 1.2567890483	 2.0588586185	-2.1850429453	-0.071573
O	 1.1391242043	 2.7737546614	-3.3978045823	-0.426479
H	-0.6148162729	-1.5668079505	 1.0511822291	 0.1255
H	 0.9813849246	-1.0814310529	 1.6437457525	 0.123374
H	-0.4563271642	-0.1989408448	 2.1531889255	 0.117875
H	-0.8646582427	 0.5913827542	-0.1526010404	 0.08073
H	 0.6637883268	 1.1676832015	 0.4761260159	 0.111024
H	 2.947965982	-0.7956683731	-1.73017511	 0.114659
H	 2.5729278999	-1.1662000469	 0.0085110275	 0.111614
H	 0.5115273298	-2.4342060618	-0.6957683538	 0.111875
H	 0.8540378735	-2.0558721093	-2.4397830063	 0.117848
H	 1.3240098279	 0.169122448	-3.1669354133	 0.08846
H	-1.1767834898	 0.9848069195	-2.1845378601	 0.281494
H	 0.7016105353	 2.5614332059	-1.3741375522	 0.074225
H	 2.3152544501	 2.0519023691	-1.9031258658	 0.108167
H	 0.2816534036	 2.5136460796	-3.7597525574	 0.283255
56.8165	72.7022	129.4387	166.8036	213.1021	269.897	283.6727	296.7671	320.4232	337.0343	343.3822	497.7475	512.8839	525.8277	544.5384	725.6693	779.3401	786.5495	864.1853	910.6996	936.1423	946.9287	959.8164	1034.4643	1055.812	1070.2857	1075.5532	1084.6017	1089.8405	1103.047	1142.2309	1189.3767	1198.5003	1254.5779	1282.0027	1294.076	1323.3872	1364.4392	1384.36	1395.6295	1415.0971	1433.0399	1445.2047	1470.911	1483.1893	1501.4717	1509.0291	1510.2537	1515.1559	2953.3409	2992.9441	3040.9729	3043.0565	3048.8267	3070.7591	3107.9862	3114.2656	3129.8437	3142.7717	3207.9157	3227.2846	3761.6835	3796.6513
CCC1(CC1)C(O)CO	CCC1(CC1)[C@@H](O)CO	
InChI=1S/C7H14O2/c1-2-7(3-4-7)6(9)5-8/h6,8-9H,2-5H2,1H3	InChI=1S/C7H14O2/c1-2-7(3-4-7)6(9)5-8/h6,8-9H,2-5H2,1H3/t6-/m0/s1
