14
gdb 35448	2.45632	1.47371	1.10462	4.152	73.62	-0.2734	-0.0106	0.2627	1086.0706	0.099375	-399.480495	-399.472587	-399.471643	-399.513158	29.433	
C	 0.052939649	-1.2243633179	-0.1257672596	-0.432632
C	 0.015683035	-0.0270397208	-0.0331252858	 0.335562
C	-0.0360433933	 1.4132451142	 0.0862868579	-0.286386
C	-0.2306589157	 2.0616170899	 1.5170695554	-0.260406
C	 1.0912606321	 2.8071466981	 1.3193471535	-0.04926
O	 2.1093131912	 1.8286904011	 1.115007435	-0.258617
C	 1.3091390091	 2.1882084938	-0.0085224886	 0.326439
C	 1.9451238928	 2.6754483197	-1.1918120021	 0.214107
N	 2.4153256819	 3.064640291	-2.1739345328	-0.333047
H	 0.0948498392	-2.2821800253	-0.2118541227	 0.207438
H	-0.7581578694	 1.8397902734	-0.6159216696	 0.131383
H	-1.1058017315	 2.7119298979	 1.5558755497	 0.128133
H	-0.2375778513	 1.3651468474	 2.3558139264	 0.139199
H	 1.4002557208	 3.7799283575	 1.6815729935	 0.138087
91.7029	124.3272	167.1014	211.8443	308.0199	421.5205	453.7551	500.954	554.3917	572.5849	635.8769	649.1612	662.4942	738.3589	804.6401	891.6777	933.9589	944.3719	1006.3707	1034.5153	1074.476	1137.1146	1143.2693	1191.88	1255.8822	1261.366	1333.3217	1416.6018	1474.204	2242.5287	2357.9977	3072.2498	3089.7823	3154.03	3205.5843	3502.529
C#CC1CC2OC12C#N	C#C[C@H]1C[C@H]2O[C@@]12C#N	
InChI=1S/C7H5NO/c1-2-5-3-6-7(5,4-8)9-6/h1,5-6H,3H2	InChI=1S/C7H5NO/c1-2-5-3-6-7(5,4-8)9-6/h1,5-6H,3H2/t5-,6+,7-/m0/s1
