15
gdb 132348	1.98842	1.82533	0.95761	4.7429	71.89	-0.2391	-0.0194	0.2197	1152.4431	0.113303	-458.17902	-458.171018	-458.170074	-458.211677	29.893	
C	-0.0268413718	 1.4992363945	 0.0479292154	-0.4679
C	 0.0355230926	-0.0000919868	-0.0217074929	 0.337371
C	-0.0189508584	-0.6852209959	-1.222360568	-0.252183
C	 0.0476063356	-2.090007572	-1.1663358885	 0.414406
N	 0.040861771	-2.8644410841	-2.2867764249	-0.566302
N	 0.1555343014	-2.7355844918	 0.0041084941	-0.383628
C	 0.1997120181	-1.9558792991	 1.0675813357	 0.328598
F	 0.3078964087	-2.6001821738	 2.2181180124	-0.064003
N	 0.1485316007	-0.6452551524	 1.1586932369	-0.381361
H	 0.8747667693	 1.8878531561	 0.5317879073	 0.148567
H	-0.121956724	 1.9505980806	-0.9420067106	 0.119132
H	-0.8760037086	 1.8092863278	 0.6649995985	 0.147771
H	-0.1048547581	-0.1636128633	-2.1678146844	 0.090492
H	-0.2813751087	-2.4750104896	-3.1555908374	 0.261607
H	-0.089194358	-3.8534578303	-2.1473286237	 0.267435
88.2946	183.1588	210.0807	226.9395	294.7906	333.6749	344.1829	491.6215	529.7922	564.9565	578.8293	610.0812	632.8254	730.6143	809.6745	845.8545	979.9045	1002.0949	1012.7442	1059.2043	1063.8171	1142.3748	1214.4658	1312.5838	1403.328	1436.7369	1459.2652	1472.7233	1485.0776	1509.0607	1601.6358	1630.2473	1655.1534	3044.7006	3106.5633	3132.3814	3198.1621	3604.8439	3731.6336
CC1=CC(N)=NC(F)=N1	Cc1cc(N)nc(F)n1	
InChI=1S/C5H6FN3/c1-3-2-4(7)9-5(6)8-3/h2H,1H3,(H2,7,8,9)	InChI=1S/C5H6FN3/c1-3-2-4(7)9-5(6)8-3/h2H,1H3,(H2,7,8,9)
