18
gdb 74805	2.71985	1.62758	1.16629	2.4282	79.38	-0.2369	-0.046	0.1909	1089.8192	0.146958	-401.968458	-401.959769	-401.958825	-402.001706	32.202	
C	-0.0166444744	 1.52707382	 0.0081462887	-0.493547
C	-0.0222060518	 0.0356710063	-0.0540612734	 0.19466
C	-0.0264216628	-0.7835596091	-1.1211291956	-0.154304
N	-0.0911807395	-2.1761516901	-0.8183737341	-0.130111
C	 1.178456757	-2.6521863087	-0.2239356377	-0.269414
C	 0.0220317669	-2.2524140716	 0.6467481989	 0.201451
C	-0.7745122176	-3.2756603684	 1.4137430586	-0.47443
C	 0.0131553059	-0.8210288944	 1.1561008806	 0.279693
O	-0.0199453723	-0.4720721995	 2.316849012	-0.346333
H	 0.8564167021	 1.8890403443	 0.5618099304	 0.14178
H	-0.0076842381	 1.9749986235	-0.9888198367	 0.122426
H	-0.8975534838	 1.8943655175	 0.5461396077	 0.144124
H	 0.0341710141	-0.5065779364	-2.1677678641	 0.122595
H	 1.3849155017	-3.7125370186	-0.342635996	 0.130184
H	 2.0371165525	-1.9910654853	-0.2996639965	 0.128968
H	-0.6996060398	-4.264211042	 0.95474468	 0.123554
H	-0.4019460044	-3.328001785	 2.4408337247	 0.144678
H	-1.8304821057	-2.9923367924	 1.4546640124	 0.134027
96.3647	121.0464	142.6299	202.0308	243.2367	283.2897	303.4313	381.6456	469.308	517.9905	560.2259	671.6871	702.253	791.7493	804.0696	854.7989	915.8659	927.2665	954.4	994.0023	1035.098	1065.2461	1080.9182	1097.4906	1129.5046	1161.1934	1221.1701	1307.6642	1334.9652	1357.7004	1410.4343	1415.8401	1474.0555	1480.3222	1485.9304	1493.653	1498.8508	1671.5517	1796.6194	3035.7185	3046.3386	3089.42	3110.2198	3115.8469	3119.2884	3129.5933	3197.897	3207.4314
CC1=CN2CC2(C)C1=O	CC1=CN2C[C@@]2(C)C1=O	
InChI=1S/C7H9NO/c1-5-3-8-4-7(8,2)6(5)9/h3H,4H2,1-2H3	InChI=1S/C7H9NO/c1-5-3-8-4-7(8,2)6(5)9/h3H,4H2,1-2H3/t7-,8?/m0/s1
