17
gdb 112365	2.39383	1.36634	0.90968	2.5667	70.07	-0.2615	-0.0079	0.2536	1252.1958	0.136965	-455.243925	-455.235265	-455.23432	-455.277731	31.632	
C	-0.0831794904	 1.5793913595	 0.0611272621	-0.400344
C	-0.0676513326	 0.0504868356	 0.0063515113	-0.165758
C	 0.7269923689	-0.5022756962	-1.1821181353	-0.11719
N	 2.1629841826	-0.2780213688	-1.1167790189	-0.348187
C	 2.9004696812	-1.4252647672	-1.2766831391	 0.460922
O	 4.0967023234	-1.5447282592	-1.3647123496	-0.387149
N	 1.9572389854	-2.4721624931	-1.3089975569	-0.392041
C	 0.6517375239	-2.0380854025	-1.2518874491	 0.441642
O	-0.3463360697	-2.7139258582	-1.2450860362	-0.360717
H	 0.9263181242	 1.9878006918	 0.1805616043	 0.117305
H	-0.5145468518	 2.0061521186	-0.8513389281	 0.120283
H	-0.6792600025	 1.9320710583	 0.9073719946	 0.12805
H	 0.3578769303	-0.3571563187	 0.9304950684	 0.110362
H	-1.0860081168	-0.3428383742	-0.0789053188	 0.130984
H	 0.3032104022	-0.1051779385	-2.1166838905	 0.117821
H	 2.6022106151	 0.6108142962	-1.2859170259	 0.265649
H	 2.2335493364	-3.4400136434	-1.3580036623	 0.278369
79.8346	104.3185	137.6273	171.661	236.4679	305.4185	382.5615	414.7197	446.7831	568.4815	598.2649	625.1916	657.9811	722.7951	767.4481	792.2369	868.5853	952.5981	979.8587	1015.796	1072.317	1133.6356	1137.4734	1186.8855	1267.6821	1283.5534	1331.1236	1349.1208	1380.4567	1397.1153	1409.9975	1423.5917	1481.2517	1499.0941	1506.8019	1846.7902	1885.5867	2998.1108	3031.7826	3043.79	3081.6274	3104.6719	3111.5225	3657.197	3670.864
CCC1NC(=O)NC1=O	CC[C@H]1NC(=O)NC1=O	
InChI=1S/C5H8N2O2/c1-2-3-4(8)7-5(9)6-3/h3H,2H2,1H3,(H2,6,7,8,9)	InChI=1S/C5H8N2O2/c1-2-3-4(8)7-5(9)6-3/h3H,2H2,1H3,(H2,6,7,8,9)/t3-/m1/s1
