19
gdb 42061	2.08364	1.8904	1.13392	1.2367	88.1	-0.2147	-0.0582	0.1565	1101.8068	0.161875	-385.872966	-385.865141	-385.864197	-385.905107	30.836	
C	 0.0329835755	 1.5476090168	-0.0497014976	-0.133992
O	 1.3696221097	 2.0528660475	-0.1209974442	-0.251301
C	 2.1369345897	 1.7954517509	 1.0588613896	-0.134029
C	 1.5679106717	 2.5147457055	 2.2506177318	-0.089508
C	 0.7068486624	 2.0297904923	 3.1560841988	-0.069836
C	 0.1156365926	 0.7028377681	 3.3544797226	-0.081563
C	-0.1795765541	-0.3595947505	 2.5722232209	-0.081437
C	-0.0381169963	-0.6993119548	 1.1529733107	-0.069655
C	 0.0180387972	 0.046544794	 0.0407127731	-0.08965
H	-0.5107029733	 1.9952237566	 0.7900728531	 0.110281
H	-0.4418290238	 1.8821377837	-0.9763099308	 0.108323
H	 2.211155014	 0.7189402858	 1.2506959887	 0.110323
H	 3.1389261197	 2.1672199459	 0.8269950486	 0.108322
H	 1.8393995956	 3.564440698	 2.3370898842	 0.095218
H	 0.4025173312	 2.7266085994	 3.936966293	 0.092407
H	-0.1801500374	 0.5616529423	 4.3936588842	 0.094277
H	-0.6068929658	-1.192777207	 3.1294448475	 0.09424
H	-0.0199406483	-1.7779637724	 0.9976679231	 0.092368
H	 0.1348054998	-0.4801654119	-0.9037372073	 0.095212
103.1135	197.106	222.6616	245.4654	295.5064	340.0492	437.1852	459.3143	505.0801	621.6058	684.1441	713.2708	756.0442	823.0358	841.4501	855.338	911.5043	913.1282	992.1267	1015.8448	1016.5863	1022.9937	1025.053	1061.445	1106.6723	1112.6719	1260.125	1283.4157	1311.6423	1312.2779	1351.5354	1372.5047	1392.1121	1434.9093	1447.7769	1475.7523	1500.0037	1502.7642	1664.038	1700.9348	1705.5302	3036.4915	3041.6505	3089.6524	3091.0841	3106.5492	3115.6378	3124.681	3140.0183	3157.1919	3158.3247
C1OCC=CC=CC=C1	C1OCC=CC=CC=C1	
InChI=1S/C8H10O/c1-2-4-6-8-9-7-5-3-1/h1-6H,7-8H2/b2-1-,5-3-,6-4-	InChI=1S/C8H10O/c1-2-4-6-8-9-7-5-3-1/h1-6H,7-8H2/b2-1-,5-3-,6-4-
