20
gdb 80838	2.45089	1.7042	1.29103	2.1459	78.62	-0.2144	-0.0096	0.2048	1061.1507	0.171167	-403.140231	-403.131766	-403.130822	-403.172825	33.011	
C	-0.1274103297	 1.5285574871	-0.0701450414	-0.430711
C	 0.0284939527	 0.0210408057	 0.020843656	 0.02127
N	 1.1052444006	-0.5656409702	-0.887629498	-0.135038
C	 2.0713123579	-0.3037783212	 0.2517634481	-0.242733
C	 0.8700975854	-0.5802926712	 1.210470986	 0.201966
C	 0.7732577581	-0.1827012307	 2.6591080735	-0.510072
C	 0.6707161615	-2.0535096216	 0.8636009307	 0.39528
O	 0.4281509186	-2.9774989123	 1.5921674912	-0.33717
C	 0.8542533267	-2.0178846118	-0.6731944405	-0.291394
H	 0.7965406651	 2.07471252	 0.1334387308	 0.123138
H	-0.4628689872	 1.8011029664	-1.0754210162	 0.134368
H	-0.8831270483	 1.8689587709	 0.6449973004	 0.124336
H	-0.9500693223	-0.4451987481	-0.1457616481	 0.078688
H	 2.9361349888	-0.9731703876	 0.2853361363	 0.110098
H	 2.4127436219	 0.7310885553	 0.2500682675	 0.117517
H	 0.8874749681	 0.8973070011	 2.7936017138	 0.116065
H	-0.1934770625	-0.4826295872	 3.0767728189	 0.132597
H	 1.5472699721	-0.6844135453	 3.2490517037	 0.132321
H	-0.0407712265	-2.3524202721	-1.2054177811	 0.129942
H	 1.703091229	-2.6228846972	-1.0044510317	 0.129532
125.0285	161.5453	184.5309	204.5033	246.8455	315.0534	328.2479	467.5486	470.066	524.0168	614.8315	626.3277	644.5132	749.9618	786.4875	819.9888	862.5638	894.6493	972.9303	998.1878	1010.1757	1047.1755	1055.1971	1088.9498	1095.8713	1154.9984	1162.7508	1201.5239	1222.5351	1223.8915	1258.1059	1287.9796	1346.6883	1400.5438	1415.5961	1418.1271	1468.8782	1485.3683	1487.0379	1492.7282	1494.8639	1528.5662	1867.3915	3029.1142	3035.3746	3044.1469	3059.1029	3064.587	3103.0274	3106.4353	3110.1796	3111.5168	3121.5873	3135.9247
CC1N2CC1(C)C(=O)C2	C[C@H]1N2C[C@]1(C)C(=O)C2	
InChI=1S/C7H11NO/c1-5-7(2)4-8(5)3-6(7)9/h5H,3-4H2,1-2H3	InChI=1S/C7H11NO/c1-5-7(2)4-8(5)3-6(7)9/h5H,3-4H2,1-2H3/t5-,7+/m1/s1
