18
gdb 55447	3.29425	1.22151	1.00083	3.4922	74.3	-0.2366	0.011	0.2477	1198.7532	0.148728	-439.127339	-439.118863	-439.117919	-439.16098	31.903	
N	 0.7767164335	-0.1324147846	-0.4121082865	-0.512599
C	-0.2121028346	 0.3802179829	 0.3553894925	 0.363169
O	-0.1359413922	 1.4122259796	 0.9939138088	-0.376357
C	-1.5048756229	-0.45810856	 0.3842990788	-0.003973
O	-1.3877531228	-1.5557041114	-0.507265013	-0.282501
C	-2.3953419701	-2.5430416356	-0.3215401427	-0.079977
C	-2.2846162656	-3.1936302189	 1.0572905379	-0.255341
C	-2.1344107354	-2.1285566244	 2.1117820635	-0.076519
C	-1.803305485	-0.8784375882	 1.8010794867	-0.067289
H	 1.6451854039	 0.3692627777	-0.4889812076	 0.260715
H	 0.6215718483	-0.9862027765	-0.9201076825	 0.273083
H	-2.2972749235	 0.2266540033	 0.0333962768	 0.107496
H	-3.3894351201	-2.0848564774	-0.4406727961	 0.099804
H	-2.2585562364	-3.2694408435	-1.1269364946	 0.108432
H	-3.1775236605	-3.8025312367	 1.2472313598	 0.107941
H	-1.4303453847	-3.8839235742	 1.0855699069	 0.115961
H	-2.3111927033	-2.4064900255	 3.1471343199	 0.095259
H	-1.7119064885	-0.0931782766	 2.5433299113	 0.122698
47.7995	89.6406	198.7074	256.1003	268.6509	315.0478	376.4386	452.4668	490.3791	533.5757	556.4665	637.8761	684.6869	722.7342	785.053	873.3078	901.7971	927.5729	979.007	1008.7203	1015.2127	1072.834	1086.2323	1097.5783	1117.6431	1205.4043	1234.9172	1274.1043	1296.2757	1333.7419	1365.5464	1374.2558	1387.9365	1419.7468	1471.4702	1499.819	1589.2758	1724.1984	1803.2064	2949.088	2988.1355	3014.4524	3050.9073	3092.7889	3162.7543	3202.0338	3603.0896	3745.5255
NC(=O)C1OCCC=C1	NC(=O)[C@H]1OCCC=C1	
InChI=1S/C6H9NO2/c7-6(8)5-3-1-2-4-9-5/h1,3,5H,2,4H2,(H2,7,8)	InChI=1S/C6H9NO2/c7-6(8)5-3-1-2-4-9-5/h1,3,5H,2,4H2,(H2,7,8)/t5-/m0/s1
