19
gdb 73258	2.55633	1.75494	1.33592	1.9308	76.5	-0.2453	0.006	0.2513	1021.1776	0.159578	-423.011612	-423.003646	-423.002701	-423.044008	31.011	
C	 0.0922314296	 1.5118943054	-0.0671184012	-0.435634
C	-0.0173901674	-0.0067593312	 0.0172788433	 0.368343
O	-1.3231339125	-0.3855496192	 0.5567513251	-0.3302
C	-0.7237515337	-0.8679850666	 1.7775856521	-0.096928
C	 0.6971966747	-0.6483016307	 1.2387589809	 0.016884
O	 1.3467256835	-1.873965732	 0.9981123322	-0.261541
C	 2.133156268	-1.9019797511	-0.1817748184	-0.129985
C	 1.3418597486	-1.4888263556	-1.3954566262	-0.084826
C	 0.3044645747	-0.6634733474	-1.2881775857	-0.107815
H	 1.0942904711	 1.8133018976	-0.38968851	 0.119357
H	-0.6340848354	 1.9002753918	-0.7879962899	 0.126939
H	-0.1168423517	 1.9684958983	 0.9053560688	 0.119308
H	-1.0034786121	-0.2544016518	 2.6426410874	 0.097612
H	-0.9570838509	-1.9191595361	 1.9739245161	 0.113587
H	 1.3469294147	 0.0336666418	 1.8048511114	 0.067011
H	 3.0372786973	-1.2768964979	-0.0679843171	 0.0995
H	 2.4751276393	-2.936978219	-0.2830752314	 0.120616
H	 1.6326993024	-1.9138146567	-2.3520785304	 0.09937
H	-0.3114662302	-0.3985803199	-2.1438257771	 0.098403
77.3314	162.2725	227.8692	244.0783	298.8877	348.5333	407.799	465.6817	500.0061	526.2095	645.2853	727.9603	779.3148	837.4511	891.5091	908.5878	930.1451	953.3391	993.0503	1008.5068	1033.0851	1047.9486	1091.039	1103.0966	1146.6185	1156.2925	1173.0363	1210.9379	1261.4103	1272.5465	1297.4519	1337.5651	1368.8436	1398.443	1406.5757	1415.6935	1482.369	1488.5745	1492.7359	1507.2326	1717.1904	2942.0863	3000.036	3023.988	3033.0326	3072.2135	3083.5393	3108.8272	3109.8639	3153.594	3176.9291
CC12OCC1OCC=C2	C[C@]12OC[C@H]1OCC=C2	
InChI=1S/C7H10O2/c1-7-3-2-4-8-6(7)5-9-7/h2-3,6H,4-5H2,1H3	InChI=1S/C7H10O2/c1-7-3-2-4-8-6(7)5-9-7/h2-3,6H,4-5H2,1H3/t6-,7-/m1/s1
