14
gdb 98390	3.17853	1.13669	0.84173	5.3836	61.73	-0.2621	-0.045	0.2172	1276.2638	0.097931	-511.026303	-511.016715	-511.015771	-511.062779	30.819	
C	-0.0525455666	 1.3702755893	-0.0176923844	-0.244869
O	-0.0077606612	-0.0668545762	 0.0473206467	-0.252863
C	 0.671053978	-0.5633147623	 1.0874945485	 0.568454
O	 1.2184852343	 0.0998218179	 1.9290144735	-0.382764
N	 0.6685984749	-1.9789536619	 1.0802044312	-0.276267
C	 1.3715403896	-2.6102590295	 2.1571553151	 0.171307
O	 1.4697378838	-3.791190844	 2.304905354	-0.249126
C	 0.0032301534	-2.721334637	 0.0574315942	 0.166582
O	-0.03086344	-3.9145011605	 0.002229001	-0.245602
H	 0.9567681674	 1.7778446962	-0.1012764065	 0.155566
H	-0.636508545	 1.5990698667	-0.9080363387	 0.148835
H	-0.5324395742	 1.7756759781	 0.8751136213	 0.155668
H	 1.8035045744	-1.8498412211	 2.8217528395	 0.148836
H	-0.4730859689	-2.0538513856	-0.6718399755	 0.136243
29.6624	53.7554	99.2518	118.4827	170.6634	200.699	250.2991	277.1087	350.7543	427.3568	481.7859	536.0056	786.1728	808.3386	899.4719	972.7759	1030.5801	1046.9512	1131.5933	1180.8111	1210.3155	1229.3846	1320.1538	1427.1726	1459.7116	1478.0513	1481.5592	1497.5758	1806.8267	1829.9749	1888.521	3057.0502	3063.1752	3064.0326	3145.924	3174.6988
COC(=O)N(C=O)C=O	COC(=O)N(C=O)C=O	
InChI=1S/C4H5NO4/c1-9-4(8)5(2-6)3-7/h2-3H,1H3	InChI=1S/C4H5NO4/c1-9-4(8)5(2-6)3-7/h2-3H,1H3
