18
gdb 61975	3.86723	0.75601	0.65744	3.1494	76.84	-0.2438	0.0175	0.2612	1669.6773	0.144373	-439.081096	-439.070435	-439.069491	-439.118924	36.91	
C	-0.1499473488	 1.4670001057	-0.02844342	-0.481545
C	-0.0142309959	-0.0331920826	 0.1816102939	 0.403572
O	 0.834530591	-0.5111039181	 0.9123940476	-0.371234
N	-0.9060451086	-0.7975197336	-0.5195539394	-0.314501
C	-0.9822987575	-2.233627893	-0.379932366	-0.16623
C	-2.4130768655	-2.6534559784	 0.0104330242	-0.056445
O	-3.3614882169	-2.1049043535	-0.9109218851	-0.427627
C	-2.5292067219	-4.1062472637	 0.1153302313	 0.290629
C	-2.6038922689	-5.3054902422	 0.1478532	-0.434724
H	 0.8003287431	 1.8559442053	-0.4033114058	 0.152838
H	-0.9475256691	 1.7442768784	-0.7223696463	 0.112362
H	-0.3369094984	 1.9409870096	 0.9388176383	 0.152409
H	-1.6456921389	-0.3584719364	-1.0438964306	 0.249593
H	-0.7095757486	-2.7382593992	-1.3168879069	 0.105594
H	-0.2637500912	-2.5293987679	 0.3870517949	 0.159079
H	-2.6562423842	-2.1898492933	 0.9734916002	 0.129604
H	-3.3834603078	-2.6839866788	-1.6813920688	 0.289634
H	-2.6796496919	-6.3639184483	 0.1996192587	 0.206991
24.9177	43.7076	66.8327	84.7709	160.994	218.6815	258.1769	299.9726	318.8233	387.3987	482.5413	524.6528	529.1618	568.8667	632.1033	643.7167	647.9845	682.9138	833.7688	934.4714	973.3052	999.117	1050.338	1071.3042	1088.0738	1137.1387	1225.6514	1255.9062	1279.1972	1312.0441	1385.3624	1397.081	1418.8443	1471.0017	1484.9432	1488.296	1529.8233	1780.6871	2235.2138	3011.705	3050.1008	3052.1264	3126.0508	3127.8734	3130.1309	3501.6724	3643.1075	3801.849
CC(=O)NCC(O)C#C	CC(=O)NC[C@@H](O)C#C	
InChI=1S/C6H9NO2/c1-3-6(9)4-7-5(2)8/h1,6,9H,4H2,2H3,(H,7,8)	InChI=1S/C6H9NO2/c1-3-6(9)4-7-5(2)8/h1,6,9H,4H2,2H3,(H,7,8)/t6-/m0/s1
