12
gdb 7241	3.90125	1.54944	1.12948	4.4655	54.95	-0.2812	-0.0651	0.2162	958.5144	0.082688	-451.850836	-451.842965	-451.842021	-451.883821	27.252	
N	 0.108808657	 1.0229073404	 0.0156441183	-0.514664
C	-0.2306871429	-0.2783017573	 0.0822639261	 0.373256
O	 0.5442474278	-1.2174978564	 0.0771066494	-0.360336
C	-1.7410983466	-0.495457932	 0.1701307931	 0.316013
N	-2.526060751	 0.4934510409	 0.2064640631	-0.492368
O	-2.1570708419	-1.78366581	 0.3151561913	-0.205643
C	-1.5457992773	-2.8367862281	-0.3558803679	 0.185037
O	-1.7459263876	-3.9538327637	-0.0117636299	-0.242732
H	 1.0821896584	 1.2752540627	-0.0124464063	 0.275512
H	-0.6132689666	 1.7242777752	 0.0581815045	 0.288905
H	-3.5001167764	 0.1971077736	 0.2878103358	 0.247755
H	-0.962624933	-2.5134662252	-1.2236052976	 0.129266
63.6913	85.2939	131.5713	300.8565	312.1527	349.1228	419.3015	436.5413	453.3783	620.5709	629.0226	644.0044	799.1158	822.863	930.0426	996.3957	1035.332	1101.3682	1136.3519	1282.9863	1400.9026	1426.2624	1593.5622	1734.1071	1799.0146	1884.0331	3097.969	3481.1577	3592.7725	3735.8823
NC(=O)C(=N)OC=O	NC(=O)[C]([NH])OC=O	
InChI=1S/C3H4N2O3/c4-2(7)3(5)8-1-6/h1,5H,(H2,4,7)	InChI=1S/C3H4N2O3/c4-2(7)3(5)8-1-6/h1,5H,(H2,4,7)
