20
gdb 104337	3.06511	1.26529	1.13052	1.1452	75.04	-0.2494	0.0254	0.2748	1155.8499	0.171608	-440.303341	-440.294524	-440.29358	-440.336544	33.825	
C	-0.1623438792	 1.6400824581	-0.0694805662	-0.421357
C	-0.050345866	 0.1140457698	-0.0870362767	 0.333277
C	-1.4351691548	-0.5455747761	-0.0158715662	-0.084359
O	-2.1546867409	-0.1695101411	 1.1390024308	-0.422324
C	 0.7640117633	-0.4204641074	-1.2690870154	-0.263459
C	 2.2406036899	-0.0369976856	-1.118893876	-0.167807
N	 2.7664351057	-0.2923366881	 0.2176410395	-0.26338
C	 1.9407884744	-0.409639538	 1.1662847599	 0.125575
O	 0.5885288263	-0.303352491	 1.1569096431	-0.281472
H	 0.8182495927	 2.1098051126	 0.0381575771	 0.128084
H	-0.614639891	 1.9951084944	-1.0011154865	 0.117965
H	-0.7968522251	 1.9525976621	 0.7618774672	 0.139145
H	-2.0318172717	-0.2320522828	-0.8788531823	 0.110555
H	-1.3062691936	-1.6375731272	-0.0708738311	 0.091544
H	-1.591640049	-0.389788386	 1.8903953946	 0.292059
H	 0.6766942682	-1.5132002373	-1.2924002409	 0.109064
H	 0.3506414921	-0.0396345201	-2.2087224021	 0.105801
H	 2.8511610534	-0.596914761	-1.8354657309	 0.113534
H	 2.3955662155	 1.0232619907	-1.3579268011	 0.1155
H	 2.2820009299	-0.6347989161	 2.1757015631	 0.122054
94.7119	125.4949	185.3535	218.3925	253.1884	315.3657	348.1459	411.8432	419.8052	442.426	497.9117	554.3647	591.4791	723.4316	792.1371	873.0444	879.6559	920.6975	943.0691	964.7489	1002.3941	1023.5685	1037.0381	1083.1332	1137.076	1174.304	1200.3631	1210.5697	1225.1486	1274.6636	1295.7838	1364.6711	1376.6217	1387.9767	1410.9316	1412.1417	1432.6399	1476.8031	1482.9884	1496.3185	1497.76	1504.1821	1735.3958	2986.1358	3021.836	3034.1474	3048.6786	3061.2395	3078.0165	3086.2405	3120.0466	3142.036	3151.8598	3799.0454
CC1(CO)CCN=CO1	C[C@@]1(CO)CCN=CO1	
InChI=1S/C6H11NO2/c1-6(4-8)2-3-7-5-9-6/h5,8H,2-4H2,1H3	InChI=1S/C6H11NO2/c1-6(4-8)2-3-7-5-9-6/h5,8H,2-4H2,1H3/t6-/m0/s1
