19
gdb 63108	2.21193	1.66016	1.17985	3.5129	81.58	-0.2348	0.016	0.2508	1108.7842	0.159272	-382.046571	-382.037678	-382.036734	-382.079618	33.887	
C	 0.0051283351	 1.5324038162	 0.0391925101	-0.465369
C	 0.0480647897	 0.0173320646	 0.026979601	 0.267196
C	-1.1902946636	-0.6426067432	-0.5561629897	-0.463878
C	 1.3202642129	-0.7345094404	-0.2056522866	-0.096677
N	 2.4794979585	 0.0179170397	 0.2917461306	-0.329154
C	 1.9640593126	-0.0973476483	 1.6949936771	-0.239908
C	 0.6670911736	-0.7634693704	 1.2002797179	 0.127192
C	-0.0186718076	-1.7895615097	 1.9055099883	 0.193897
N	-0.5693226997	-2.6241673348	 2.4917787786	-0.367833
H	 0.9713342931	 1.9640480769	 0.3037907068	 0.145361
H	-0.2584271931	 1.9015437615	-0.958084699	 0.121138
H	-0.7541713877	 1.895391855	 0.73969027	 0.122291
H	-1.3515403186	-0.2949302041	-1.5817325647	 0.122706
H	-1.1071585425	-1.7329587536	-0.5741943611	 0.13426
H	-2.0794648153	-0.3905274275	 0.0307060847	 0.135334
H	 1.4146244146	-1.5324395843	-0.9340089629	 0.111233
H	 3.3359207013	-0.5129464594	 0.182016286	 0.234004
H	 2.5516468729	-0.7851859307	 2.3079705584	 0.128564
H	 1.8638151938	 0.8594570725	 2.2167631346	 0.119642
122.9608	145.567	172.1315	220.1056	248.4352	262.3352	312.3579	355.3937	394.9589	483.006	540.7134	576.8255	596.5376	674.1744	739.558	796.7103	908.714	957.98	963.1895	974.9096	999.4176	1012.0947	1040.358	1067.0515	1093.1674	1147.6577	1156.2557	1218.4476	1235.4855	1305.9067	1322.6105	1360.3524	1408.9771	1423.037	1443.324	1480.5889	1487.7065	1498.6024	1511.5042	1518.7009	2332.2454	3034.8103	3038.9793	3050.6916	3094.8811	3103.2778	3104.9169	3113.4583	3140.252	3178.6524	3542.5304
CC1(C)C2NCC12C#N	CC1(C)[C@H]2NC[C@@]12C#N	
InChI=1S/C7H10N2/c1-6(2)5-7(6,3-8)4-9-5/h5,9H,4H2,1-2H3	InChI=1S/C7H10N2/c1-6(2)5-7(6,3-8)4-9-5/h5,9H,4H2,1-2H3/t5-,7-/m1/s1
