18
gdb 39789	3.50173	1.4274	1.17467	2.1185	77.09	-0.2382	0.0823	0.3205	1068.7217	0.147889	-401.819617	-401.812273	-401.811328	-401.851144	29.689	
C	-0.0558534875	 1.5316571529	 0.011053474	-0.360714
C	 1.3051647757	 0.8351901951	-0.0061917048	-0.369192
C	 0.0404392184	 0.0528761888	 0.0020711642	 0.54212
C	-0.5376580451	-1.0233385544	 0.9334122221	-0.279107
N	-1.7638774088	-1.0177798672	 0.0140747644	-0.322242
C	-0.5560634129	-1.0132056604	-0.9293184817	-0.279103
C	 0.1137629891	-2.0536026201	-0.0101132337	 0.562244
C	 1.2615832167	-2.9460157628	-0.026308174	-0.30689
O	-0.1056775348	-3.4395693196	-0.0154832961	-0.301057
H	-0.3614380153	 2.0249843027	 0.9277126955	 0.119053
H	-0.3794704123	 2.0348870604	-0.8939594591	 0.119053
H	 1.8851038602	 0.8796817927	-0.9226797573	 0.115107
H	 1.9031344195	 0.8698019848	 0.8990667465	 0.115107
H	-0.6221067669	-1.0223577548	 2.0201507004	 0.089224
H	-2.1684587892	-1.9601429406	 0.0129462107	 0.224056
H	-0.6619701328	-1.0004099578	-2.0141010509	 0.089224
H	 1.8052054619	-3.1258755468	-0.9523199077	 0.121559
H	 1.8233760739	-3.1358775228	 0.8867710972	 0.121559
126.9178	216.5856	232.9486	273.0894	317.7229	395.3567	475.0872	522.4081	661.1471	718.1868	749.2091	772.9017	780.0204	852.0234	879.7591	881.3895	922.9032	958.3034	990.6041	1044.6218	1050.9247	1068.9282	1079.6187	1108.009	1116.3058	1118.9592	1121.0202	1132.9685	1172.0933	1178.6822	1213.3865	1217.8125	1284.9731	1293.4178	1423.9656	1455.6415	1461.9556	1523.1386	1554.9137	3087.9095	3119.9879	3123.0722	3123.8126	3131.3882	3174.7904	3201.7259	3217.6501	3387.4821
C1CC11C2NC1C21CO1	C1CC21[C@H]1N[C@@H]2[C@]21CO2	
InChI=1S/C7H9NO/c1-2-6(1)4-7(3-9-7)5(6)8-4/h4-5,8H,1-3H2	InChI=1S/C7H9NO/c1-2-6(1)4-7(3-9-7)5(6)8-4/h4-5,8H,1-3H2/t4-,5+,7-
