20
gdb 13879	3.85574	1.53039	1.17797	1.4224	77.09	-0.2289	0.017	0.246	1069.7004	0.176577	-349.015487	-349.007007	-349.006063	-349.048565	31.593	
C	-0.0624151582	 1.5135427971	-0.0723982403	-0.390484
C	-0.0262336664	-0.0168763692	 0.0210586984	 0.034642
C	 0.8654218177	-0.4781638105	 1.1816286938	-0.399544
C	-1.4557310444	-0.5810009562	 0.1568473467	 0.098187
O	-2.2739707642	-0.1190327732	-0.9278506813	-0.28071
C	-2.8583049877	-1.2137845585	-1.6244605726	-0.114105
C	-2.3496809476	-2.4399360043	-0.9222454701	-0.101049
C	-1.5672241575	-2.0827095239	 0.0889024722	-0.095267
H	 0.9414407354	 1.9172033848	-0.2401115171	 0.103964
H	-0.7099964716	 1.8368986648	-0.8899204075	 0.133192
H	-0.4462769241	 1.9516637972	 0.8572531931	 0.10663
H	 0.3819868159	-0.4144004969	-0.9179400555	 0.071955
H	 0.4468959687	-0.1677089274	 2.1469346111	 0.112971
H	 0.9886091095	-1.5652731178	 1.2033751169	 0.111011
H	 1.8629773236	-0.0350266354	 1.1006378808	 0.114671
H	-1.8799926237	-0.1965606593	 1.102518089	 0.074456
H	-3.9573671443	-1.1384170546	-1.5887398062	 0.10318
H	-2.5691888104	-1.1828858309	-2.6870303907	 0.10418
H	-2.611886934	-3.4470331383	-1.2208572079	 0.104616
H	-1.0709397365	-2.7447838175	 0.7857836672	 0.107504
73.4234	83.3877	193.5677	230.9207	244.0149	291.6423	334.7471	404.4083	441.0196	492.0897	704.4022	768.7565	813.8195	846.6973	896.2706	926.9647	939.3235	958.9624	961.7222	972.2942	1033.9569	1046.95	1107.3362	1126.7887	1133.023	1155.9534	1190.9385	1201.854	1293.69	1314.5091	1344.6744	1359.9922	1381.6142	1386.9621	1397.7637	1418.5314	1489.288	1492.8077	1504.4257	1515.0449	1522.7876	1691.5992	2930.5793	2969.2116	2985.0801	3016.6356	3025.5342	3030.7178	3088.669	3094.8102	3104.6869	3130.4905	3208.4066	3234.481
CC(C)C1OCC=C1	CC(C)[C@H]1OCC=C1	
InChI=1S/C7H12O/c1-6(2)7-4-3-5-8-7/h3-4,6-7H,5H2,1-2H3	InChI=1S/C7H12O/c1-6(2)7-4-3-5-8-7/h3-4,6-7H,5H2,1-2H3/t7-/m0/s1
