18
gdb 119519	4.04443	0.95682	0.88419	4.4745	71.38	-0.2212	0.0574	0.2786	1332.0972	0.146017	-438.969324	-438.960849	-438.959905	-439.003072	31.885	
O	-0.2120661765	 1.5551042021	 0.0278804012	-0.415006
C	 0.0353616666	 0.1598759421	-0.0142266775	-0.072972
C	-1.3153229367	-0.5438020766	 0.1005739449	-0.315286
C	-1.2120048432	-2.0334441418	 0.0254425079	 0.439789
O	-2.2244792002	-2.8391847984	 0.6285196078	-0.2628
C	-0.8643635078	-3.0809868451	 0.9928850827	-0.065013
C	-0.1774024888	-3.9253046288	-0.139847311	-0.091372
N	-1.198546221	-4.2073843112	-1.1760795416	-0.310061
C	-0.5343630384	-2.8831935068	-1.1262150533	-0.150941
H	 0.6307711841	 2.0139023452	-0.0322735289	 0.287537
H	 0.5340487174	-0.1269085735	-0.9543474594	 0.087108
H	 0.6894175408	-0.1598491862	 0.8124253685	 0.090575
H	-1.7851258876	-0.2706374213	 1.050525619	 0.125837
H	-1.9698867682	-0.1759303724	-0.6996854233	 0.121035
H	-0.6020324841	-3.0461470689	 2.0437731656	 0.10611
H	 0.7251866034	-4.5127807143	-0.038724513	 0.097967
H	-0.7242892284	-4.7372309488	-1.9088953302	 0.230885
H	 0.0305647287	-2.4906703852	-1.9616505495	 0.096607
71.0554	82.385	115.7578	259.4895	261.6868	329.964	351.4882	422.5322	497.5251	629.2976	675.7457	750.512	783.3584	801.2581	817.859	835.7532	883.1136	908.4016	922.0226	990.2227	1005.7624	1022.0719	1060.5671	1086.0661	1098.4491	1109.3627	1165.6172	1208.5682	1228.1023	1241.5407	1287.9998	1291.8227	1305.5807	1328.5039	1347.026	1461.7711	1473.6871	1485.4193	1528.5813	2964.5859	2992.0424	3035.5474	3092.7148	3185.2433	3195.7455	3210.8575	3459.1085	3832.1227
OCCC12OC1C1NC21	OCC[C@]12O[C@H]1[C@H]1N[C@@H]21	
InChI=1S/C6H9NO2/c8-2-1-6-4-3(7-4)5(6)9-6/h3-5,7-8H,1-2H2	InChI=1S/C6H9NO2/c8-2-1-6-4-3(7-4)5(6)9-6/h3-5,7-8H,1-2H2/t3-,4+,5-,6+/m0/s1
