21
gdb 120791	4.4916	0.63516	0.60606	1.9893	86.19	-0.2582	0.0517	0.31	1910.7941	0.179544	-387.042462	-387.032044	-387.031099	-387.079082	37.29	
C	-0.4415402303	 1.4633396921	-0.1185101258	-0.383867
C	-0.2552207226	-0.0468426785	-0.2803482287	-0.160673
C	 1.086107113	-0.4186180586	-0.9298546046	-0.210151
C	 1.2527955783	-1.9134351296	-1.0643830832	 0.057465
O	 0.4924137984	-2.5766620159	-2.0867315219	-0.256331
C	 1.9158579533	-2.609440388	-2.1786675096	 0.061314
C	 2.5608208988	-1.9043196102	-3.3625736336	-0.385048
C	 2.6162962619	-2.7518616167	-4.5493059816	 0.297298
C	 2.6639519468	-3.4685823405	-5.5123486009	-0.435604
H	 0.344769526	 1.8958767178	 0.5105034654	 0.112933
H	-0.4062598137	 1.9732583052	-1.0876938131	 0.116202
H	-1.4047889173	 1.697678004	 0.3447664428	 0.115275
H	-0.3284895269	-0.5352759171	 0.7001095581	 0.096202
H	-1.0652324702	-0.4618611463	-0.8912896039	 0.117726
H	 1.160308112	 0.062773229	-1.910322891	 0.100532
H	 1.9131374263	-0.0289792456	-0.3199800334	 0.098935
H	 1.238068007	-2.4451044126	-0.1089247111	 0.087064
H	 2.3495726745	-3.5891852157	-1.9708380485	 0.098408
H	 2.0095182534	-0.9868874084	-3.5894930608	 0.140716
H	 3.579079884	-1.6032518492	-3.0805095833	 0.134363
H	 2.6997129373	-4.0937993253	-6.3696896512	 0.197244
40.6976	72.81	77.9611	112.5188	150.7219	237.2826	247.2409	317.4217	334.3825	359.702	485.778	491.9464	558.8307	619.5321	643.9845	740.8872	787.2629	838.7336	876.54	908.3885	916.6737	971.4636	1016.394	1036.7647	1056.5622	1114.7238	1118.0402	1164.5928	1183.6136	1238.0553	1266.7796	1297.0569	1304.4352	1323.114	1332.5137	1386.7123	1410.3983	1413.7695	1452.5923	1472.2151	1492.0248	1494.9409	1500.4094	1509.1096	2242.2203	3016.3402	3021.0777	3024.0669	3029.5178	3058.8953	3065.4395	3080.4635	3085.9142	3097.6688	3102.1225	3103.8152	3507.6844
CCCC1OC1CC#C	CCC[C@H]1O[C@H]1CC#C	
InChI=1S/C8H12O/c1-3-5-7-8(9-7)6-4-2/h1,7-8H,4-6H2,2H3	InChI=1S/C8H12O/c1-3-5-7-8(9-7)6-4-2/h1,7-8H,4-6H2,2H3/t7-,8+/m0/s1
