16
gdb 56122	4.96926	0.70267	0.62036	2.2924	68.8	-0.264	-0.107	0.157	1702.0447	0.119755	-475.029516	-475.019565	-475.018621	-475.066193	33.16	
C	-0.1407037341	 1.4232016113	 0.0113586873	-0.443068
C	 0.102684549	-0.0566789625	 0.0011571204	 0.416589
N	 1.2659392487	-0.55637997	-0.0131853549	-0.510464
O	-1.100588581	-0.716141715	 0.0095684712	-0.219508
C	-1.0869730351	-2.1158073843	 0.0016732153	-0.216872
C	-2.5155767526	-2.6375533868	 0.0128798886	 0.288066
O	-3.4961586401	-1.9477043254	 0.026258001	-0.236827
C	-2.6178542794	-4.182878714	 0.0054789438	 0.083689
O	-3.6718252076	-4.7527287617	 0.0126526981	-0.196292
H	 0.8123127663	 1.9495571681	 0.0063813129	 0.151011
H	-0.7315019103	 1.713221686	-0.8627684824	 0.147109
H	-0.7172096234	 1.7035268263	 0.8980703051	 0.147087
H	 1.2733818138	-1.5750172816	-0.0188225856	 0.217597
H	-0.5748038553	-2.518414791	-0.889005278	 0.139714
H	-0.5573057706	-2.5281983265	 0.8775088472	 0.139713
H	-1.6480677684	-4.7312941129	-0.0069502702	 0.092455
42.6688	52.5453	97.0868	103.9234	140.2457	185.1692	247.782	276.2036	346.2939	464.4205	468.6565	555.95	598.8108	731.3809	839.6836	844.328	885.0711	937.3932	992.3014	1047.5587	1056.5399	1076.5623	1105.7297	1166.5869	1247.8994	1311.0193	1391.636	1411.7441	1418.9779	1472.8583	1476.4309	1479.1735	1742.8491	1829.157	1857.6483	2869.2351	2963.0415	2991.2026	3054.5763	3113.6597	3173.526	3498.9712
CC(=N)OCC(=O)C=O	C[C]([NH])OCC(=O)C=O	
InChI=1S/C5H7NO3/c1-4(6)9-3-5(8)2-7/h2,6H,3H2,1H3	InChI=1S/C5H7NO3/c1-4(6)9-3-5(8)2-7/h2,6H,3H2,1H3
