21
gdb 111580	3.3588	1.39138	1.27038	1.2044	81.88	-0.192	0.0739	0.266	1097.609	0.184396	-383.191455	-383.183731	-383.182787	-383.223707	30.848	
C	 0.5470715159	 0.0576678009	 1.5570393935	-0.379298
C	 0.0911651509	 0.0779005806	 0.0982681897	-0.133142
N	-1.1921542997	-0.5793160569	-0.0631185263	-0.062142
C	-1.8976343188	-0.5729060339	-1.3564232762	-0.024465
C	-1.1273265007	-1.2275238895	-2.5331364149	-0.188988
N	-1.4086170659	-2.6127358299	-2.0168842275	-0.152425
C	-0.5014022257	-2.9079621169	-0.8532652846	-0.189532
C	-1.3559141714	-2.0382057247	 0.1049449617	-0.0247
C	-2.4097857916	-2.004554541	-1.0359539738	-0.011975
H	 1.4939856883	 0.5932576726	 1.6733192483	 0.11349
H	-0.2030545743	 0.5260124846	 2.2005604752	 0.125055
H	 0.7012141556	-0.9677253743	 1.9097264098	 0.118444
H	-0.0344902724	 1.1153536327	-0.2375586862	 0.101992
H	 0.8828664266	-0.3587888081	-0.5376452717	 0.078451
H	-2.4986350211	 0.3209450433	-1.5487910712	 0.069056
H	-1.6411323983	-1.0851847156	-3.4903736332	 0.105183
H	-0.0671926191	-0.9869749798	-2.6660693712	 0.099794
H	-0.5601314971	-3.9736675707	-0.6059871122	 0.105455
H	 0.550229815	-2.6419717755	-1.0050588742	 0.100074
H	-1.5095083715	-2.3751454401	 1.1334665697	 0.071724
H	-3.4383575347	-2.3564521476	-1.0062717248	 0.07795
77.5306	155.4013	192.6608	261.4011	313.664	403.5253	441.8799	517.4602	612.8187	718.3782	746.3291	805.7078	810.8139	841.0063	868.3681	882.4832	900.6667	962.8763	979.5423	985.807	992.9612	997.8702	1072.5365	1100.6289	1117.1003	1159.001	1176.7309	1188.8929	1199.0233	1202.8983	1223.4321	1231.4186	1249.6219	1289.6534	1291.34	1308.5713	1317.5064	1340.5932	1393.1946	1410.9655	1482.477	1490.3183	1494.787	1499.5012	1515.0107	2933.235	3028.3526	3032.0812	3035.5372	3039.1375	3054.4255	3063.8143	3079.4835	3083.4627	3105.1978	3119.1048	3142.4158
CCN1C2CN3CC1C23	CCN1[C@H]2CN3C[C@@H]1[C@@H]23	
InChI=1S/C7H12N2/c1-2-9-5-3-8-4-6(9)7(5)8/h5-7H,2-4H2,1H3	InChI=1S/C7H12N2/c1-2-9-5-3-8-4-6(9)7(5)8/h5-7H,2-4H2,1H3/t5-,6+,7+
