19
gdb 104772	2.73682	1.09339	0.91639	1.7408	73.82	-0.2493	-0.0246	0.2247	1307.8819	0.156088	-460.13974	-460.129735	-460.128791	-460.175021	35.586	
C	 0.5051005637	-0.4833180296	 1.5461629285	-0.270299
O	-0.0041675756	-0.1996403878	 0.2480589745	-0.290149
C	-1.2817185803	-0.7095936311	-0.0226423847	 0.377484
C	-2.3906113921	 0.0013517481	 0.7280537859	-0.112365
O	-2.376982127	 1.3887282909	 0.4557003679	-0.418889
C	-1.4919537339	-1.1305474981	-1.4257581654	-0.346095
C	-1.4370783712	-2.2024489299	-0.3290679842	-0.179361
C	-0.2598318821	-3.1006180598	-0.3061002819	 0.157598
O	-0.2918274178	-4.2531818391	 0.0528554082	-0.275532
H	 1.5222780297	-0.0874200458	 1.5704362158	 0.139076
H	-0.08145905	-0.0015262937	 2.3382834598	 0.123775
H	 0.5345725366	-1.5631989725	 1.7394634024	 0.13131
H	-3.3624427526	-0.3861301992	 0.407529904	 0.112685
H	-2.3040884195	-0.1964747097	 1.8086009314	 0.094736
H	-1.4521485494	 1.6623883642	 0.4707065509	 0.29112
H	-2.4492672839	-0.9401903087	-1.8960801017	 0.137113
H	-0.6316490645	-1.0778461006	-2.0845587222	 0.136558
H	-2.3644264172	-2.6782893463	-0.0271208261	 0.108831
H	 0.683735377	-2.6321406114	-0.6638020031	 0.082402
72.9814	93.4606	112.0541	124.0237	188.1175	254.2754	263.1523	300.2228	345.1525	367.8117	403.1405	462.4041	479.4534	647.4159	727.4182	851.5407	911.7638	916.1994	926.264	1019.2322	1043.1424	1059.9397	1077.1992	1085.9816	1093.6615	1175.0826	1180.4514	1193.7421	1205.7597	1246.3266	1309.8481	1354.2009	1377.0473	1433.2811	1442.6539	1471.4021	1485.6805	1487.1301	1507.5281	1516.2788	1810.5782	2886.902	2975.8518	3011.4864	3069.931	3081.3098	3130.2245	3140.0457	3171.7813	3233.1053	3791.104
COC1(CO)CC1C=O	CO[C@@]1(CO)C[C@H]1C=O	
InChI=1S/C6H10O3/c1-9-6(4-8)2-5(6)3-7/h3,5,8H,2,4H2,1H3	InChI=1S/C6H10O3/c1-9-6(4-8)2-5(6)3-7/h3,5,8H,2,4H2,1H3/t5-,6+/m0/s1
