21
gdb 101039	2.63611	1.03762	0.98183	2.5418	74.75	-0.2597	0.0776	0.3373	1356.0267	0.179668	-461.326376	-461.315993	-461.315049	-461.362103	37.44	
C	 0.2125506254	 1.2254488527	-0.3796652703	-0.232223
O	 0.0734531876	-0.1519574793	-0.1148183245	-0.253571
C	-1.2481505016	-0.5715546921	 0.1937002386	 0.060409
C	-2.1876283582	-0.552468449	-1.01710368	-0.419276
C	-1.1017586807	-1.9646186722	 0.792352647	 0.37195
C	-0.3251866742	-2.9945468264	-0.0205789398	-0.135341
O	-0.4305226952	-4.2846544285	 0.5424728932	-0.421864
C	-1.2188081834	-2.1499252451	 2.2418515491	-0.230457
O	-2.313700029	-2.4840442728	 1.3637369956	-0.301405
H	 1.2822446216	 1.4255004664	-0.4781363496	 0.130804
H	-0.2859850456	 1.5299419838	-1.3106164279	 0.111701
H	-0.1881418405	 1.8373847545	 0.4436491093	 0.105319
H	-1.6720433494	 0.085738687	 0.9707763109	 0.067995
H	-1.7602556395	-1.1056460162	-1.85798258	 0.127007
H	-3.1430253999	-1.0080268187	-0.742647576	 0.13994
H	-2.3856466005	 0.4706863783	-1.3473290412	 0.117664
H	-0.6849291237	-2.9832989545	-1.0613359799	 0.09223
H	 0.7326979573	-2.7205284932	-0.0373047334	 0.132628
H	-1.3673208071	-4.4040819193	 0.7479098662	 0.290376
H	-0.7350589745	-3.0040348716	 2.7076789496	 0.131507
H	-1.392787219	-1.2873399439	 2.8820148034	 0.114606
54.7873	74.0373	115.8815	173.916	191.3803	234.677	246.6844	287.1197	316.5498	350.5573	359.735	480.0714	495.697	520.5218	606.653	720.2473	838.9212	865.8901	909.8318	935.7184	1020.8695	1038.2253	1074.5269	1100.4877	1120.6901	1127.4651	1151.3585	1169.5028	1181.5598	1218.0369	1228.8181	1274.5386	1327.1655	1365.829	1377.273	1398.2906	1435.1692	1439.9728	1477.8727	1485.1825	1493.5823	1505.0256	1506.2812	1512.7004	1516.8527	2965.8101	2980.6364	2984.8743	3033.4302	3049.4506	3099.895	3100.9603	3114.5253	3120.8231	3128.1922	3197.4999	3762.8484
COC(C)C1(CO)CO1	CO[C@@H](C)[C@@]1(CO)CO1	
InChI=1S/C6H12O3/c1-5(8-2)6(3-7)4-9-6/h5,7H,3-4H2,1-2H3	InChI=1S/C6H12O3/c1-5(8-2)6(3-7)4-9-6/h5,7H,3-4H2,1-2H3/t5-,6+/m0/s1
