18
gdb 36095	4.6535	1.1015	1.01998	1.2082	80.56	-0.2221	0.0507	0.2728	1192.4561	0.146546	-364.688251	-364.680203	-364.679259	-364.720902	31.804	
C	-0.9802212708	-0.0705493552	 1.2276111645	-0.451734
C	-0.3057190381	 0.2979275833	 0.303383621	 0.299773
C	 0.5205460041	 0.7564027094	-0.8062046406	-0.439768
C	 1.7243309767	 1.5628632727	-0.3814303408	 0.361449
C	 2.5147065091	 1.3718797052	 0.8775131722	-0.351899
C	 1.9010342748	 2.7187646652	 0.573412743	-0.118658
C	 2.6230804284	 3.4499164194	-0.5722823315	-0.03097
C	 3.7666070665	 2.7265201857	-1.1617843097	-0.253079
N	 2.3978855983	 2.3075552368	-1.5306674443	-0.186866
H	-1.5859800317	-0.4022922355	 2.0340920188	 0.197052
H	 0.8643735872	-0.1053620451	-1.3961095945	 0.138259
H	-0.0801427201	 1.3679694195	-1.4913232228	 0.143425
H	 1.9619271206	 0.817967003	 1.6297396453	 0.13374
H	 3.5842201254	 1.1967536516	 0.9106785197	 0.110903
H	 1.1754004376	 3.1911510088	 1.221631732	 0.101958
H	 2.3644228634	 4.4632598561	-0.8629154329	 0.100108
H	 4.2697280494	 3.2083280237	-1.9957639037	 0.124014
H	 4.4114672991	 2.0828891955	-0.5754322059	 0.122292
58.5381	125.9546	211.6645	289.6768	344.5327	364.9593	443.6543	461.0252	550.0468	618.5052	641.1033	661.5484	699.4762	744.3607	800.1592	830.2196	909.3038	919.3943	943.1989	958.5306	981.9055	1015.4371	1028.2064	1052.4773	1057.6738	1083.9799	1109.4921	1137.0883	1153.2324	1220.9297	1229.7351	1273.3457	1340.6669	1352.7303	1390.5303	1468.6899	1481.6809	1525.4834	2239.3445	3008.6689	3045.6363	3124.1039	3137.0012	3157.4893	3203.5579	3209.081	3216.4989	3505.8796
C#CCC12CC1C1CN21	C#CC[C@]12C[C@H]1[C@H]1CN21	
InChI=1S/C8H9N/c1-2-3-8-4-6(8)7-5-9(7)8/h1,6-7H,3-5H2	InChI=1S/C8H9N/c1-2-3-8-4-6(8)7-5-9(7)8/h1,6-7H,3-5H2/t6-,7+,8-,9?/m0/s1
