23
gdb 97737	2.59212	0.8098	0.79782	0.2802	96.43	-0.2221	0.0532	0.2753	1673.9353	0.203662	-351.132406	-351.12128	-351.120335	-351.170564	39.52	
C	-0.7995356273	 0.4343365359	-0.0980782562	-0.364097
C	 0.7110403917	 0.6437702781	 0.1155211354	-0.313684
C	 1.2528027643	-0.1708295084	 1.1990004923	 0.063844
C	 1.6835349448	-0.8517068687	 2.0974808547	 0.083375
C	 2.2197919441	-1.6518603154	 3.1606763079	-0.224536
C	 1.3541167057	-2.0620356156	 4.3546652318	-0.017407
C	-0.0728531401	-1.5835876604	 4.4976193642	-0.408252
C	 1.7775382884	-3.1047986143	 3.3529753256	-0.017462
C	 0.815465055	-3.7688582091	 2.394305607	-0.407658
H	-1.3584681667	 0.6899718997	 0.8063674877	 0.126392
H	-1.1615370912	 1.0636679682	-0.9167433236	 0.112495
H	-1.015747374	-0.608968228	-0.3444361932	 0.125834
H	 1.2442450068	 0.4176744363	-0.8173239903	 0.125179
H	 0.9047315583	 1.7046830057	 0.3216638254	 0.125481
H	 3.2624105785	-1.4462098103	 3.388049367	 0.101715
H	 1.8988633185	-2.0891086048	 5.2953140905	 0.084246
H	-0.5541379254	-1.4385414745	 3.5283306931	 0.129179
H	-0.6707102196	-2.2984413064	 5.0738257409	 0.113117
H	-0.1043605937	-0.6227231086	 5.0223779038	 0.118094
H	 2.5769127825	-3.7602605109	 3.6900077337	 0.084196
H	 0.0975234834	-3.0584484934	 1.9796399127	 0.128747
H	 1.3576597981	-4.2116332743	 1.5519194601	 0.118266
H	 0.257263338	-4.5707178906	 2.8902603697	 0.112936
11.6429	69.098	84.4952	153.7567	164.7441	177.3245	192.0707	241.5543	272.4688	343.2069	366.9581	447.9263	473.7142	573.1399	600.8296	727.8867	734.6928	784.6625	786.3414	894.6499	933.0419	957.6549	986.7826	1037.9949	1068.8791	1079.7265	1088.5744	1103.9196	1131.9038	1151.9307	1186.0528	1189.2616	1262.245	1285.2416	1348.9156	1374.345	1375.0948	1407.3396	1417.7168	1421.5437	1433.7409	1477.931	1484.8171	1491.8187	1494.5274	1499.9291	1505.8106	1510.348	2354.2157	3014.2141	3032.9367	3036.2852	3039.7962	3042.2963	3089.8389	3091.4872	3115.237	3115.5758	3120.7821	3124.0429	3132.0115	3133.3105	3147.0362
CCC#CC1C(C)C1C	CCC#C[C@H]1[C@@H](C)[C@H]1C	
InChI=1S/C9H14/c1-4-5-6-9-7(2)8(9)3/h7-9H,4H2,1-3H3	InChI=1S/C9H14/c1-4-5-6-9-7(2)8(9)3/h7-9H,4H2,1-3H3/t7-,8+,9-
