18
gdb 13175	3.93009	1.34868	1.17837	1.2956	73.55	-0.2615	0.0315	0.2929	1065.865	0.152635	-347.753245	-347.74473	-347.743785	-347.786294	31.673	
O	-0.3369192832	 1.3279135901	-0.0394654448	-0.41858
C	-0.0382676054	-0.0674132598	-0.0141724274	-0.072619
C	 0.7235298749	-0.4725824398	-1.1990761143	 0.29114
C	 1.3908356621	-0.7741205576	-2.1529891155	-0.454446
C	 0.6794231629	-0.4896775498	 1.276449161	 0.050345
C	 1.9923842002	 0.2331104985	 1.6876051048	-0.227352
C	 1.4930493195	 0.209022051	 3.1581001199	-0.210478
C	 0.0564000656	-0.0525497011	 2.6301878255	-0.24445
H	 0.4563023764	 1.7893267738	-0.3313001129	 0.288388
H	-1.0186605644	-0.5615882361	-0.0339247833	 0.116125
H	 1.9621760348	-1.0493308509	-3.0050472277	 0.200104
H	 0.8318245811	-1.5734484808	 1.244313847	 0.079936
H	 2.938460842	-0.2586182654	 1.4530080642	 0.101156
H	 2.0240954941	 1.2561829718	 1.2996698353	 0.088642
H	 1.8888904849	-0.6514774122	 3.7050724485	 0.102057
H	 1.6543525603	 1.1061251478	 3.7600962735	 0.097725
H	-0.5060604568	 0.8766691812	 2.5093340224	 0.118969
H	-0.5617712289	-0.7797279506	 3.162121794	 0.093339
73.1403	114.8852	149.2814	204.5572	266.7357	279.4351	307.05	452.333	532.4836	603.0654	625.6687	671.272	689.3723	752.5022	794.344	879.6014	914.165	934.8227	961.0027	975.9176	1012.44	1043.4773	1119.0049	1140.182	1201.5447	1244.6545	1253.0648	1257.7015	1260.8669	1277.2122	1279.9336	1328.4704	1363.8367	1417.2613	1473.6597	1486.6065	1509.1783	2229.6229	3023.7597	3052.2854	3056.9913	3057.7184	3064.8464	3101.9528	3114.0731	3125.8515	3502.9619	3818.1084
OC(C#C)C1CCC1	O[C@@H](C#C)C1CCC1	
InChI=1S/C7H10O/c1-2-7(8)6-4-3-5-6/h1,6-8H,3-5H2	InChI=1S/C7H10O/c1-2-7(8)6-4-3-5-6/h1,6-8H,3-5H2/t7-/m0/s1
