18
gdb 17500	3.02385	2.38817	1.63254	3.0506	71.88	-0.1936	0.076	0.2696	847.7624	0.153027	-343.882774	-343.875146	-343.874202	-343.913997	30.118	
C	-0.057557649	 1.5545829893	 0.1315383648	-0.511754
C	 0.0838423736	 0.067327138	 0.043150825	 0.303005
N	-0.8509045861	-0.8692517993	 0.7114749735	-0.348126
C	 0.6075280748	-0.9365208854	 0.9973791124	-0.122207
C	 1.3097182268	-1.6978689859	-0.1661953244	-0.12221
N	 0.2809594798	-2.0967707648	-1.1641016654	-0.34813
C	 0.798464493	-0.7077932576	-1.1413175366	 0.303008
C	 1.429224708	-0.0580679057	-2.3328431659	-0.511742
H	 0.8658254799	 2.0661050787	-0.1613328771	 0.123194
H	-0.8612326151	 1.920533444	-0.5188930599	 0.129702
H	-0.2928313153	 1.8598298095	 1.1571378853	 0.117749
H	-1.2641508778	-0.3476579682	 1.4867954996	 0.219319
H	 0.9971817862	-0.8129192128	 2.0000495247	 0.089116
H	 2.2706962489	-2.1936985734	-0.1102714381	 0.089117
H	 0.7875087811	-2.5727169411	-1.9129920295	 0.219319
H	 0.6752947241	 0.2540091458	-3.0656950146	 0.129703
H	 2.0058062703	 0.829642197	-2.0507260694	 0.123193
H	 2.1144195368	-0.7513171181	-2.8331390547	 0.117744
155.1338	198.8337	213.3214	243.6055	295.6599	369.8143	438.3317	443.4376	551.962	595.4788	673.5531	780.0647	803.5847	838.5532	839.7513	879.8857	930.4429	937.6198	990.4766	991.3268	1026.9971	1050.2782	1087.9846	1110.0222	1110.937	1158.1539	1226.2459	1277.3323	1296.5249	1349.54	1403.9988	1405.0044	1429.4059	1442.6047	1478.1636	1488.0271	1494.9952	1502.8298	3018.704	3022.3464	3078.8902	3082.8974	3090.3843	3094.4275	3186.0236	3196.3543	3444.3405	3446.7844
CC12NC1C1NC21C	C[C@]12N[C@H]1[C@H]1N[C@@]21C	
InChI=1S/C6H10N2/c1-5-3(7-5)4-6(5,2)8-4/h3-4,7-8H,1-2H3	InChI=1S/C6H10N2/c1-5-3(7-5)4-6(5,2)8-4/h3-4,7-8H,1-2H3/t3-,4+,5-,6+
