19
gdb 83993	2.31566	1.75924	1.44547	2.4228	77.53	-0.2177	0.0126	0.2303	1002.0642	0.161415	-423.00432	-422.996668	-422.995723	-423.036274	30.662	
O	 0.0653549553	 0.946742848	 0.5657122982	-0.420039
C	 0.0794212775	-0.3353254486	 0.046494959	 0.122045
C	-1.1694226985	-1.1539185813	-0.120552272	-0.122226
C	-2.5179802587	-0.6188110821	 0.3163259978	-0.120638
O	-2.6683429433	 0.7859487707	 0.1475466424	-0.252832
C	-3.0793958452	 1.1985566582	-1.1508337978	-0.144472
C	-2.0069798146	 1.1845781339	-2.2048331134	-0.095936
C	-0.932291957	 0.3950403318	-2.2815443463	-0.028328
C	-0.4474377658	-0.6593253986	-1.3690990305	-0.146969
H	-0.8444749304	 1.2756607273	 0.5059221114	 0.29724
H	 0.9918020433	-0.8477985968	 0.336902017	 0.103742
H	-1.0784407511	-2.2210806954	 0.074013036	 0.089227
H	-3.3304974694	-1.1431194303	-0.2099831445	 0.102963
H	-2.6459964423	-0.8006914525	 1.3898069604	 0.119601
H	-3.9417339437	 0.5844979275	-1.4648483884	 0.107341
H	-3.4524288364	 2.2210755207	-1.0253441356	 0.119153
H	-2.160399155	 1.9127885321	-2.9987309821	 0.089172
H	-0.2776028696	 0.5535935183	-3.1367755894	 0.092313
H	 0.1355440951	-1.4198405327	-1.8821128422	 0.088644
103.728	145.1001	227.7728	325.8073	362.5286	395.6394	418.9048	519.7313	561.8193	565.5992	701.3934	719.6937	740.0331	777.5874	821.5076	853.2258	892.9857	930.9991	995.5837	1002.9624	1011.9265	1036.4697	1073.0376	1108.7185	1121.7571	1136.073	1167.1815	1241.0351	1265.3566	1279.6193	1332.0557	1349.5611	1372.2298	1384.6277	1403.0387	1431.9723	1436.7537	1480.7742	1487.4531	1501.5228	1726.9032	2951.9065	2985.6399	3057.5639	3060.9512	3118.3669	3126.4776	3136.7693	3154.1446	3157.555	3693.0326
OC1C2COCC=CC12	O[C@H]1[C@H]2COCC=C[C@@H]12	
InChI=1S/C7H10O2/c8-7-5-2-1-3-9-4-6(5)7/h1-2,5-8H,3-4H2	InChI=1S/C7H10O2/c8-7-5-2-1-3-9-4-6(5)7/h1-2,5-8H,3-4H2/t5-,6+,7-/m1/s1
