17
gdb 80800	1.9748	1.67943	1.22432	3.5047	74.72	-0.262	0.0051	0.267	1085.4148	0.136114	-417.94905	-417.940727	-417.939783	-417.981741	31.642	
C	-0.1005873478	 1.5892236284	 0.0001683261	-0.441438
C	-0.0056012208	 0.0771376227	-0.0208173833	 0.021485
C	 1.254521413	-0.6277714506	-0.615630549	-0.086828
N	 2.0290940332	-0.1269581017	 0.5946645538	-0.34235
C	 0.727258824	-0.6706441167	 1.1449622447	 0.177425
C	 0.4110393484	-0.6841855439	 2.5502531239	 0.141587
N	 0.1343369208	-0.7346178534	 3.672307248	-0.346099
C	 0.8854304861	-1.9061085291	 0.172458527	 0.094388
O	-0.217130635	-2.6330232326	-0.2647411016	-0.420903
H	 0.8494611004	 2.0455443163	 0.2810952918	 0.148039
H	-0.3907306542	 1.9606386099	-0.9885069518	 0.120437
H	-0.8691636478	 1.913352343	 0.7096082123	 0.128539
H	-0.9423282973	-0.4024639212	-0.3034479301	 0.106414
H	 1.6610765812	-0.5518538364	-1.6231968474	 0.098626
H	 2.7920351743	-0.7775161852	 0.8138109092	 0.217375
H	 1.7405022048	-2.5448770433	 0.433666799	 0.083423
H	-0.4073436433	-3.3274997564	 0.3747867475	 0.299879
115.7952	142.1582	207.0794	232.9414	265.2358	301.5771	356.1843	369.3264	523.8218	531.2399	559.4828	604.2188	684.6333	794.1647	808.0082	816.2226	935.6267	945.1584	955.3486	1053.312	1061.2363	1119.7791	1137.4168	1167.1262	1174.5058	1204.9273	1220.1283	1248.6479	1263.6596	1296.7923	1307.3573	1396.3056	1414.2926	1442.8721	1492.2871	1505.0961	2346.182	3015.1574	3041.0916	3098.1366	3122.4727	3133.3202	3148.2785	3373.5069	3815.1826
CC1C2NC1(C#N)C2O	C[C@H]1[C@H]2N[C@]1(C#N)[C@H]2O	
InChI=1S/C6H8N2O/c1-3-4-5(9)6(3,2-7)8-4/h3-5,8-9H,1H3	InChI=1S/C6H8N2O/c1-3-4-5(9)6(3,2-7)8-4/h3-5,8-9H,1H3/t3-,4+,5-,6-/m0/s1
