15
gdb 57159	2.11844	1.48287	1.01454	3.069	67.99	-0.2747	-0.0971	0.1776	1154.6049	0.110233	-453.999172	-453.989416	-453.988472	-454.034877	33.534	
C	 0.973762116	 1.984416762	-0.1774670025	-0.395639
C	 0.2339460044	 0.6511989197	-0.104195002	-0.219156
C	 0.622684373	-0.2643678128	-1.3049570603	 0.399127
N	-0.3091665809	-1.1955974795	-1.6428486966	-0.513354
O	 1.6753134553	-0.1262747259	-1.8860906075	-0.331532
C	 0.5424632456	-0.0816146052	 1.1928595141	 0.302948
O	 1.4329857817	 0.1942312366	 1.9522173881	-0.257007
C	-0.3719871371	-1.2107235783	 1.4955611703	 0.234072
N	-1.1208914311	-2.0669240979	 1.7058884816	-0.309843
H	 2.0495933147	 1.8132024592	-0.2107559643	 0.164377
H	 0.6843773544	 2.5214836087	-1.0832530157	 0.130236
H	 0.7404478594	 2.6015013428	 0.6930725799	 0.12656
H	-0.8543818024	 0.7917688998	-0.1354549986	 0.121548
H	-1.1217717179	-1.3768134565	-1.0779133731	 0.274891
H	-0.0568250652	-1.8750670527	-2.3434258736	 0.272773
33.2155	63.1336	127.1067	169.5111	180.3344	258.1254	274.9264	298.3654	333.127	398.7053	497.8443	539.5197	573.7967	617.7708	675.0783	702.25	816.408	842.5083	1007.4148	1047.214	1073.9116	1114.9616	1154.422	1235.0237	1309.8313	1367.694	1413.9651	1482.3044	1489.437	1629.2505	1792.703	1822.2264	2330.8933	3033.2934	3065.5684	3137.6755	3163.1806	3591.6062	3722.5867
CC(C(N)=O)C(=O)C#N	C[C@@H](C(=O)N)C(=O)C#N	
InChI=1S/C5H6N2O2/c1-3(5(7)9)4(8)2-6/h3H,1H3,(H2,7,9)	InChI=1S/C5H6N2O2/c1-3(5(7)9)4(8)2-6/h3H,1H3,(H2,7,9)/t3-/m1/s1
