18
gdb 88143	2.51001	1.52936	1.13155	2.7624	72.91	-0.2391	0.0322	0.2713	1102.3014	0.148945	-439.117228	-439.108858	-439.107913	-439.150206	31.713	
O	-0.088348184	 1.3846526673	-0.122509739	-0.423241
C	-0.0687744714	-0.0064806958	-0.0036416928	 0.063715
C	-0.5246203971	-0.6579653205	 1.2681484859	-0.378016
C	-1.4227463173	-0.6801287422	 0.0526273357	 0.212764
C	-2.7294303711	 0.082087729	-0.0796532287	-0.31875
C	-3.4047085163	-0.5722171331	-1.3121903599	-0.169087
N	-2.768281336	-1.8807627541	-1.3799832835	-0.327401
C	-1.5705301577	-1.9627195618	-0.7199393738	 0.370847
O	-0.7816348819	-2.8855404436	-0.7628121217	-0.400458
H	 0.6229473115	 1.7403569714	 0.4201067734	 0.29275
H	 0.6979644876	-0.517962553	-0.583884213	 0.109166
H	-0.0666525026	-1.6003842244	 1.5499824169	 0.136612
H	-0.8224265032	-0.0039510155	 2.0814924092	 0.112619
H	-3.3519528248	-0.0658698947	 0.8085286782	 0.11221
H	-2.5750721081	 1.1537055408	-0.2129542285	 0.131673
H	-4.4880222017	-0.6642953243	-1.1886774968	 0.112862
H	-3.218945503	 0.0109606845	-2.2246523595	 0.112381
H	-2.9910043828	-2.5605778801	-2.0900239619	 0.249355
88.1172	153.6333	168.1424	213.6174	242.5119	275.27	393.3011	457.3335	514.8418	518.5298	588.9604	710.6649	722.4616	743.3786	821.854	853.6375	915.7316	919.4599	959.9712	1031.7448	1045.5364	1074.734	1094.6057	1109.7051	1160.6356	1194.164	1215.5127	1238.8409	1274.8347	1294.4499	1323.5293	1331.1158	1377.0304	1410.9461	1446.2874	1470.8864	1498.6915	1536.5769	1817.1956	3006.3538	3051.601	3072.417	3117.8426	3124.2755	3126.3745	3223.9394	3637.9318	3810.3031
OC1CC11CCNC1=O	O[C@H]1C[C@]21CCNC2=O	
InChI=1S/C6H9NO2/c8-4-3-6(4)1-2-7-5(6)9/h4,8H,1-3H2,(H,7,9)	InChI=1S/C6H9NO2/c8-4-3-6(4)1-2-7-5(6)9/h4,8H,1-3H2,(H,7,9)/t4-,6-/m0/s1
