21
gdb 86122	2.04987	1.72511	1.10376	1.5913	85.44	-0.2306	0.0111	0.2417	1174.8843	0.183097	-387.101429	-387.092417	-387.091473	-387.134972	34.883	
C	 0.7366655436	 1.328164612	 0.0482000578	-0.481239
C	-0.0030679161	 0.0338964278	-0.1543336177	 0.315897
C	-0.1348496512	-0.5403895095	-1.3515543961	-0.154973
C	-0.863684539	-1.8421082375	-1.6040466048	-0.313402
C	-0.4372590019	-3.0315396599	-0.7698448444	-0.050054
C	-0.0180087914	-3.062928018	 0.4965945514	-0.081819
C	 0.1618675298	-1.9176176374	 1.4634409903	 0.093515
O	 1.5556030816	-1.6745766064	 1.6909289367	-0.437318
C	-0.5765984627	-0.622543558	 1.0851700667	-0.322295
H	 1.5546259858	 1.1922613882	 0.7667006378	 0.132088
H	 1.152715927	 1.7137988953	-0.8866140972	 0.115589
H	 0.0771384864	 2.0964617372	 0.4726330649	 0.123401
H	 0.2897266333	-0.0488533796	-2.2241879189	 0.080253
H	-1.9491125245	-1.6899229886	-1.4725339043	 0.124673
H	-0.7492013337	-2.1133742222	-2.6583646666	 0.106636
H	-0.4993032485	-3.9853823496	-1.2916026547	 0.090146
H	 0.2716039272	-4.0279049362	 0.9086242022	 0.089032
H	-0.2133874372	-2.242884431	 2.4418503771	 0.085046
H	 1.9541947476	-1.5590050496	 0.8205449481	 0.279291
H	-0.5113860824	 0.0619987562	 1.9364358778	 0.100004
H	-1.6403358637	-0.8556545031	 0.941612564	 0.105529
62.9478	119.8547	203.2753	235.325	255.9383	299.657	367.1146	377.2698	391.343	417.4492	493.8196	542.2021	660.6162	741.2829	767.5429	784.7145	848.267	867.1646	890.6335	945.4543	977.5336	1009.6515	1017.7494	1023.2131	1068.4854	1075.0761	1120.4381	1177.271	1214.1749	1230.1418	1261.6739	1274.312	1325.9614	1351.6772	1370.3964	1403.3239	1406.8995	1414.0255	1436.2798	1466.7492	1477.4147	1479.3958	1496.3457	1724.7521	1741.7945	2958.7984	3013.7736	3016.7479	3030.3495	3063.5242	3063.9414	3078.9595	3109.9407	3125.9253	3146.6148	3151.9217	3793.3938
CC1=CCC=CC(O)C1	CC1=CCC=C[C@@H](O)C1	
InChI=1S/C8H12O/c1-7-4-2-3-5-8(9)6-7/h3-5,8-9H,2,6H2,1H3	InChI=1S/C8H12O/c1-7-4-2-3-5-8(9)6-7/h3-5,8-9H,2,6H2,1H3/t8-/m1/s1
