16
gdb 48922	3.84288	1.58248	1.38711	3.2317	71.86	-0.2372	-0.0345	0.2027	925.7208	0.12483	-400.664165	-400.657512	-400.656568	-400.695499	26.269	
O	-0.8456895207	 1.0833275997	 0.4296659552	-0.25623
C	 0.284487644	 0.8628382778	 0.0671492465	 0.048925
C	 1.3534314784	 1.8994119479	 0.0223757084	 0.278036
C	 1.3062723789	 3.2309936143	 0.784326296	-0.286392
C	 2.3694868505	 3.6704942555	-0.2477203165	-0.078818
C	 3.5254367778	 2.6538638864	-0.1143244629	-0.044998
C	 3.1068850882	 1.8426385384	-1.2795896718	-0.059374
C	 1.7865476549	 2.6461480698	-1.302347975	-0.121444
N	 2.7828111401	 1.363552775	 0.100746719	-0.186527
H	 0.5965590359	-0.1424071186	-0.2920085604	 0.084592
H	 0.3446045399	 3.7259561585	 0.6286450473	 0.126776
H	 1.567846331	 3.2244078372	 1.8451892353	 0.112738
H	 2.5981614281	 4.7084014272	-0.4800046519	 0.083659
H	 4.489952564	 2.7603597127	 0.364950018	 0.104671
H	 3.6525368933	 1.2493472431	-2.0023875566	 0.103073
H	 1.1299809857	 2.904928385	-2.1279859707	 0.091311
72.9575	180.8206	229.9717	393.061	441.3378	545.1787	693.449	728.3413	773.384	784.5535	810.4571	829.9164	850.9286	876.1352	886.759	938.7167	952.0194	988.112	1008.6808	1033.0154	1053.9048	1068.2387	1092.9675	1125.9774	1165.7577	1185.7801	1198.2151	1218.91	1244.161	1278.8541	1312.5108	1331.1177	1416.5849	1482.652	1811.8322	2893.5491	3067.0251	3130.48	3141.6155	3161.1885	3190.089	3204.7332
O=CC12CC3C4C(C13)N24	O=C[C@]12C[C@H]3[C@@H]4[C@H]([C@@H]13)N24	
InChI=1S/C7H7NO/c9-2-7-1-3-4(7)6-5(3)8(6)7/h2-6H,1H2	InChI=1S/C7H7NO/c9-2-7-1-3-4(7)6-5(3)8(6)7/h2-6H,1H2/t3-,4+,5-,6+,7-,8?/m1/s1
