16
gdb 68495	3.2328	1.31033	1.11431	1.4244	76.91	-0.246	-0.0029	0.2431	1100.602	0.122509	-400.662537	-400.654119	-400.653175	-400.695392	31.634	
C	 0.0426968728	 1.4812940332	-0.0110065401	-0.52461
C	-0.0354403355	-0.0106958918	 0.0257549105	 0.19296
N	 0.5232192841	-0.9091371853	-1.0880705235	-0.330193
C	 0.0143459101	-1.9174160278	-0.0658083194	-0.151687
C	 0.6648572709	-1.0079661238	 1.024607751	-0.23472
C	 2.108878746	-0.9631504424	 1.1062106201	 0.328042
C	 3.3015603782	-0.9115678048	 1.2464969969	-0.430056
C	-1.2282926345	-1.0019664098	 0.0193860157	 0.392847
O	-2.4131679289	-1.0222669976	-0.1082812961	-0.32208
H	 1.0850946178	 1.8084311501	-0.0636842795	 0.149519
H	-0.4940027205	 1.877596334	-0.8786161998	 0.136522
H	-0.4118377209	 1.9058271351	 0.8892371796	 0.139302
H	-0.0792830373	-0.8872616773	-1.9165494886	 0.231995
H	 0.1300462398	-2.9896333259	-0.2029577248	 0.11131
H	 0.2021326736	-1.0685034737	 2.0130974138	 0.115478
H	 4.3577453843	-0.8743229322	 1.3500233041	 0.19537
116.2155	126.9308	159.9231	206.8639	229.6274	297.7056	405.365	420.3884	529.4104	580.6931	629.3766	642.313	654.5173	707.2112	773.6687	797.8304	812.1808	872.6879	935.5992	1010.7135	1047.6111	1062.8527	1106.6571	1152.0598	1154.9575	1168.664	1234.0443	1273.7756	1338.1544	1380.1507	1417.0527	1479.3952	1485.6542	1902.9615	2238.2165	3041.5918	3080.7086	3113.1059	3119.9296	3160.5203	3403.9952	3503.9723
CC12NC(C1C#C)C2=O	C[C@@]12N[C@@H]([C@H]1C#C)C2=O	
InChI=1S/C7H7NO/c1-3-4-5-6(9)7(4,2)8-5/h1,4-5,8H,2H3	InChI=1S/C7H7NO/c1-3-4-5-6(9)7(4,2)8-5/h1,4-5,8H,2H3/t4-,5+,7-/m1/s1
