17
gdb 35557	3.76238	1.21388	1.01654	0.9101	81.3	-0.2334	0.	0.2334	1165.7143	0.135711	-384.621693	-384.613911	-384.612967	-384.654083	30.12	
C	 0.2044818365	-1.1811356404	-0.1116429425	-0.438798
C	 0.0855578704	 0.0139121747	-0.0567373827	 0.326284
C	-0.0543886379	 1.452056	 0.0197797734	-0.278087
C	-0.2186033286	 2.1529952875	 1.4409073822	-0.270323
C	 0.6976226944	 3.3165210767	 0.911343064	 0.089639
O	 1.8402747902	 3.7851838469	 1.5945599147	-0.280978
C	 3.0004532311	 3.3541524306	 0.8523173246	-0.106497
C	 2.5040266847	 2.2663186309	-0.0892024978	-0.239556
C	 1.1800723393	 2.3322116218	-0.1012745647	 0.224772
H	 0.3086821818	-2.2367141261	-0.159833309	 0.197497
H	-0.8618448084	 1.7912829598	-0.6394618236	 0.117136
H	-1.2387972583	 2.4008882271	 1.7408542931	 0.109981
H	 0.287066713	 1.5740094652	 2.2140590674	 0.130331
H	 0.0926730966	 4.1584393091	 0.545928723	 0.081961
H	 3.4544065367	 4.2164031298	 0.3387354801	 0.107024
H	 3.7448909017	 2.9616852493	 1.5573217536	 0.11537
H	 3.1473233367	 1.5059863971	-0.5118805559	 0.114243
94.7706	120.9654	178.1585	272.7333	327.6048	369.084	487.8456	506.373	621.6487	634.8416	667.9364	674.7722	736.3507	805.0298	819.1287	860.571	919.1969	942.5387	976.1899	1003.5627	1019.1575	1032.3604	1088.2008	1120.1212	1125.5441	1181.6105	1197.3546	1220.2796	1238.2786	1288.1596	1343.5807	1345.0844	1390.2404	1468.914	1516.6231	1728.4273	2238.658	2977.8314	3000.8799	3032.2128	3037.9189	3075.7771	3155.6132	3223.2456	3504.7191
C#CC1CC2OCC=C12	C#C[C@H]1C[C@H]2OC[CH][C]12	
InChI=1S/C8H8O/c1-2-6-5-8-7(6)3-4-9-8/h1,3,6,8H,4-5H2	InChI=1S/C8H8O/c1-2-6-5-8-7(6)3-4-9-8/h1,3,6,8H,4-5H2/t6-,8+/m0/s1
