19
gdb 69307	2.4544	1.49663	1.27097	2.705	76.07	-0.234	-0.0234	0.2106	1109.1078	0.15569	-423.018825	-423.009255	-423.008311	-423.052667	35.308	
C	-0.1374464752	 1.5816028238	 0.0610190705	-0.514742
C	 0.1354856466	 0.1179465225	-0.0224044956	 0.277343
O	-0.7641709586	-0.807411456	 0.6455899267	-0.28009
C	 0.6244830843	-0.9027889336	 0.9440818671	-0.076977
C	 1.2571976082	-1.8029097096	-0.1429899039	 0.146905
C	 2.7889911173	-1.7862084596	-0.1341778216	-0.444332
C	 0.6844525948	-3.2097290386	-0.2794583187	-0.449025
C	 0.7334842801	-0.7207123299	-1.1525485402	 0.359801
O	 0.901906225	-0.5449543134	-2.3235071033	-0.313357
H	 0.7423660845	 2.1534555864	-0.2490885275	 0.137337
H	-0.965915626	 1.8554415549	-0.5999666917	 0.147207
H	-0.4036135789	 1.8641518317	 1.0828662706	 0.138391
H	 0.9385978771	-0.7521137386	 1.9713395344	 0.11084
H	 3.1750630232	-2.4092042751	 0.6797881201	 0.120299
H	 3.1764945773	-2.1786028822	-1.0787268449	 0.140162
H	 3.1864175768	-0.7737431971	-0.0041456683	 0.117804
H	-0.4044206382	-3.1947599625	-0.1959427128	 0.138287
H	 0.9497781312	-3.6326550735	-1.2538340791	 0.130152
H	 1.0862497606	-3.8731664295	 0.4947833883	 0.113994
94.3267	160.0698	172.3405	197.4827	204.5845	218.6503	259.4473	284.6027	318.22	336.4323	513.5682	536.5586	578.6738	668.5673	758.1236	770.4455	814.2459	884.7662	904.3769	958.4662	968.5774	1003.0262	1026.6302	1037.5284	1089.6788	1184.7469	1193.455	1217.4736	1234.6667	1310.2105	1391.7512	1397.3262	1412.5866	1448.2158	1478.0174	1482.1904	1485.9268	1489.162	1500.6811	1509.1579	1888.0485	3029.3292	3033.52	3042.8171	3095.3581	3097.4119	3109.5904	3113.5067	3125.3493	3128.495	3181.5876
CC12OC1C(C)(C)C2=O	C[C@]12O[C@H]1C(C)(C)C2=O	
InChI=1S/C7H10O2/c1-6(2)4(8)7(3)5(6)9-7/h5H,1-3H3	InChI=1S/C7H10O2/c1-6(2)4(8)7(3)5(6)9-7/h5H,1-3H3/t5-,7+/m0/s1
