20
gdb 101141	3.71248	0.95648	0.8224	1.1673	76.53	-0.2409	0.0298	0.2707	1430.0953	0.170849	-440.303612	-440.293892	-440.292948	-440.339162	34.23	
C	-0.1124901909	 1.5176533149	 0.0294273384	-0.397014
C	 0.0878386084	-0.0091875631	-0.0139446451	-0.079328
C	 0.7668357717	-0.4639481944	-1.3061877471	-0.08024
O	-0.0916190785	-0.1021348771	-2.380382077	-0.426886
C	 0.8513370643	-0.4841708071	 1.1851945832	 0.424478
N	 1.9998718254	-1.0282240908	 1.1893093176	-0.323353
C	 2.3327524059	-1.3072912427	 2.5935041928	-0.187548
C	 1.116922462	-0.7761470441	 3.3969789774	-0.112332
O	 0.21938972	-0.2847513713	 2.3780931929	-0.26323
H	 0.8543851774	 2.0327270663	 0.0199303006	 0.116318
H	-0.6793564783	 1.834710732	-0.8474525347	 0.138686
H	-0.6503307337	 1.8147459648	 0.9324007162	 0.12687
H	-0.9034037294	-0.4799268335	 0.0261480107	 0.107434
H	 1.7513671445	 0.0175979102	-1.392749392	 0.100853
H	 0.9361770373	-1.5485237239	-1.2721658612	 0.100296
H	 0.3487505519	-0.3321683279	-3.2030181598	 0.288031
H	 2.4915253215	-2.3819873115	 2.733902257	 0.115498
H	 3.2670874468	-0.8047625413	 2.8651717216	 0.11554
H	 0.5962943894	-1.5491973985	 3.9689287853	 0.118241
H	 1.3638068043	 0.0523827788	 4.0672156333	 0.117686
45.0249	86.8773	102.6236	148.2191	175.6181	231.5404	242.4771	285.2239	361.0927	374.388	460.7843	672.4652	746.9459	761.8258	831.3229	874.9455	923.9002	935.2867	973.871	1001.6154	1010.9763	1050.5418	1088.4611	1111.1842	1126.9115	1154.5703	1197.5661	1215.5201	1246.6771	1255.0471	1266.1651	1319.1033	1346.0171	1358.7117	1385.5878	1409.2527	1459.1997	1496.2662	1503.2976	1504.9542	1518.7923	1527.5606	1733.6699	2998.675	3023.9275	3038.7956	3040.046	3046.0645	3053.8843	3065.9874	3100.7984	3117.9077	3145.7307	3840.0881
CC(CO)C1=NCCO1	C[C@@H](CO)C1=NCCO1	
InChI=1S/C6H11NO2/c1-5(4-8)6-7-2-3-9-6/h5,8H,2-4H2,1H3	InChI=1S/C6H11NO2/c1-5(4-8)6-7-2-3-9-6/h5,8H,2-4H2,1H3/t5-/m0/s1
