16
gdb 69242	2.94113	1.5831	1.22756	2.8347	70.5	-0.2611	-0.021	0.24	1018.9752	0.124857	-437.925911	-437.918394	-437.917449	-437.957798	28.997	
C	-0.0073606421	 1.4900089172	-0.0501033885	-0.451555
C	-0.0266444232	-0.0190203744	-0.0020738731	 0.324518
C	-0.8097799576	-0.7349390388	 1.0548605005	-0.321242
C	 0.7111201864	-0.75421856	 1.1313715923	-0.224971
C	 1.4617018156	-1.9735532421	 0.7826462739	 0.445735
O	 2.2907473903	-2.5086174734	 1.4585505996	-0.316483
O	 1.1762534045	-2.5211416926	-0.4650934663	-0.219517
C	 0.5239237405	-1.774893822	-1.4151194787	 0.112171
N	-0.0071007337	-0.6391018491	-1.2915995336	-0.280739
H	 0.9013256065	 1.850275455	-0.5416068992	 0.132617
H	-0.867313669	 1.8563775501	-0.6186626207	 0.138084
H	-0.0472631032	 1.9159498526	 0.9563116701	 0.118297
H	-1.3077457246	-0.1411033118	 1.8128233463	 0.134977
H	-1.3240572447	-1.6480643227	 0.7776349545	 0.139444
H	 1.1749518653	-0.1842341635	 1.9272094523	 0.123763
H	 0.526196729	-2.3065922645	-2.3622707092	 0.144899
116.1692	158.5298	215.1262	296.438	335.6875	360.8392	439.9366	498.3517	557.6506	623.2075	671.1988	750.1335	753.3351	816.4448	901.4247	928.6357	942.9719	953.8165	972.3529	1030.0065	1054.468	1095.5598	1109.7663	1130.8241	1204.3748	1264.7277	1298.4455	1393.6511	1412.6497	1424.3838	1477.9396	1485.105	1499.5941	1735.0856	1868.5234	3042.2199	3113.3462	3120.6824	3140.8209	3187.0999	3191.0882	3233.0976
CC12CC1C(=O)OC=N2	C[C@]12C[C@H]1C(=O)OC=N2	
InChI=1S/C6H7NO2/c1-6-2-4(6)5(8)9-3-7-6/h3-4H,2H2,1H3	InChI=1S/C6H7NO2/c1-6-2-4(6)5(8)9-3-7-6/h3-4H,2H2,1H3/t4-,6-/m0/s1
