19
gdb 54304	2.69315	1.35621	1.04429	2.3146	75.52	-0.2444	-0.0144	0.23	1187.4635	0.157154	-423.011172	-423.001977	-423.001033	-423.045572	33.77	
C	-0.0273606685	 1.6374361697	 0.0239431376	-0.49611
C	 0.1076593738	 0.1329311397	-0.1525514418	 0.333032
O	 1.1762043791	-0.3595838015	-0.4534586095	-0.313235
C	-1.081552352	-0.7488180441	 0.0790716637	 0.193965
C	-2.2313318166	-0.2907396629	 0.9604932901	-0.31348
C	-2.4312315098	-0.3428053129	-0.5171778709	-0.299385
C	-0.7472653456	-2.2161501683	 0.0468822106	 0.017929
C	-0.5630917037	-3.0089597471	 1.2660096759	-0.174349
O	-1.7687038185	-3.1086401893	 0.4959438132	-0.250367
H	 0.8214236093	 2.121991349	-0.4598768659	 0.147269
H	-0.9622626455	 2.0393719617	-0.3744540387	 0.133668
H	 0.001202035	 1.8782124859	 1.0931243578	 0.148109
H	-2.7039280856	-1.0681547837	 1.549071492	 0.14319
H	-2.150211989	 0.6745035721	 1.4456515037	 0.117828
H	-2.4896626956	 0.5810817575	-1.0801474075	 0.122829
H	-3.0257739788	-1.1575749507	-0.9144242401	 0.143852
H	-0.2265053352	-2.5406837483	-0.8516357385	 0.110511
H	 0.0746000158	-3.8905064446	 1.2471396172	 0.122661
H	-0.6734986587	-2.5302856819	 2.2376440911	 0.112081
68.3892	80.4165	110.0142	190.96	220.6765	267.6045	277.6744	364.8523	452.1892	469.7323	562.8376	611.5924	661.7636	786.3681	813.9266	858.1023	880.6973	913.8654	940.6358	959.5608	1009.3296	1051.0155	1057.2852	1071.854	1099.091	1099.6438	1138.4281	1158.4406	1171.6786	1201.3483	1278.8102	1324.7737	1333.258	1387.1256	1437.0645	1450.1583	1469.4792	1477.5525	1494.5269	1528.0011	1775.9182	3042.7678	3090.9795	3109.6334	3134.6378	3144.5471	3147.7244	3154.2894	3180.7599	3228.6159	3242.2205
CC(=O)C1(CC1)C1CO1	CC(=O)C1(CC1)[C@H]1CO1	
InChI=1S/C7H10O2/c1-5(8)7(2-3-7)6-4-9-6/h6H,2-4H2,1H3	InChI=1S/C7H10O2/c1-5(8)7(2-3-7)6-4-9-6/h6H,2-4H2,1H3/t6-/m1/s1
