18
gdb 126967	6.46454	0.79148	0.71607	1.7282	76.47	-0.2222	-0.0001	0.2221	1599.522	0.147407	-435.286421	-435.277056	-435.276112	-435.321725	32.73	
C	 0.0084123404	 1.5209717062	 0.0420675542	-0.402329
C	-0.0471521405	-0.0024504378	 0.0541675726	-0.11213
N	 0.6746054004	-0.5317208347	 1.2032754357	-0.392212
C	 0.8631554912	-1.8718449557	 1.3457355656	 0.449353
N	 0.6671720552	-2.7469542318	 0.3816125277	-0.231603
O	 1.0542566352	-3.9647505399	 0.9971673457	-0.207755
C	 1.4127612233	-3.6671291871	 2.2472205267	 0.427431
C	 1.8608182887	-4.7773082367	 3.1290646083	-0.494328
N	 1.3209113527	-2.4045859669	 2.5364806571	-0.379113
H	 1.0426211283	 1.8748817605	 0.0007906367	 0.131502
H	-0.5277730911	 1.9137728506	-0.825871465	 0.126938
H	-0.4607033336	 1.9415689508	 0.9392090362	 0.116934
H	-1.0920218269	-0.3487871085	 0.0460810812	 0.107537
H	 0.4207497768	-0.4112688214	-0.8468965797	 0.138209
H	 0.5673697924	-0.0415498645	 2.0784834367	 0.249852
H	 1.0736071768	-5.5303995135	 3.2300439355	 0.155803
H	 2.7395392799	-5.2730188926	 2.7056316138	 0.156784
H	 2.1098021511	-4.379355357	 4.112437861	 0.159126
51.1182	58.8617	96.5233	125.0712	223.8251	267.0945	310.0952	338.9582	367.4184	460.9596	497.5576	655.2698	694.4231	773.6538	794.7315	814.2798	914.1823	934.732	1002.425	1039.2268	1061.197	1068.4918	1114.7727	1156.7872	1176.9062	1280.8203	1306.1809	1339.1607	1402.1296	1410.4291	1420.7403	1475.6316	1477.1155	1492.3261	1499.3634	1520.9541	1527.3947	1621.8312	1650.6313	2989.346	3035.57	3054.0886	3074.0319	3105.9367	3112.9673	3124.5012	3163.9754	3620.7223
CCNC1=NOC(C)=N1	CCNc1noc(C)n1	
InChI=1S/C5H9N3O/c1-3-6-5-7-4(2)9-8-5/h3H2,1-2H3,(H,6,8)	InChI=1S/C5H9N3O/c1-3-6-5-7-4(2)9-8-5/h3H2,1-2H3,(H,6,8)
