16
gdb 71553	2.70792	1.48278	1.37886	3.1186	70.45	-0.24	-0.0448	0.1951	1004.7707	0.122073	-437.775552	-437.767666	-437.766722	-437.808073	29.61	
C	-0.0504629926	 1.4648456378	-0.0663485222	-0.532784
C	 0.0103274333	-0.0291745768	-0.0667540682	 0.244649
N	 0.6706174861	-0.8663154263	-1.1209146252	-0.365592
C	 0.1322332939	-1.8898647911	-0.174439945	-0.12883
C	 0.4624754135	-1.0117191799	 1.0610981217	 0.065734
O	-0.8527779561	-1.1300425537	 1.6738592643	-0.337726
C	-1.1528170543	-1.0815316355	 0.2621829258	 0.343735
C	-2.5420775409	-1.1472582315	-0.2484005121	 0.019921
O	-3.5287025712	-1.1936101195	 0.4402122897	-0.241188
H	 0.9599494928	 1.8836520677	-0.1041286526	 0.143543
H	-0.6096805236	 1.8437392037	-0.9279602158	 0.130387
H	-0.54362611	 1.8128912315	 0.8462057823	 0.150446
H	 0.1307014015	-0.852215155	-1.9891050637	 0.214414
H	 0.2390952867	-2.9661031641	-0.3081126226	 0.105778
H	 1.3441194489	-0.9946838703	 1.6993400304	 0.111993
H	-2.600526828	-1.1419703469	-1.3615724967	 0.07552
83.1822	156.8521	203.31	219.1216	240.9893	350.24	363.9527	530.2302	581.8617	673.6258	689.2117	701.192	799.1424	813.5865	844.0802	887.1345	937.7427	955.1545	1017.0131	1027.8337	1070.8584	1091.0472	1120.3027	1136.8463	1178.6204	1217.1323	1274.9444	1302.3638	1321.022	1357.1574	1408.4578	1430.6891	1480.6666	1485.7898	1819.0382	2859.7814	3037.7395	3107.2416	3119.5402	3126.4505	3145.3669	3417.3346
CC12NC3C1OC23C=O	C[C@@]12N[C@H]3[C@@H]1O[C@@]23C=O	
InChI=1S/C6H7NO2/c1-5-4-3(7-5)6(5,2-8)9-4/h2-4,7H,1H3	InChI=1S/C6H7NO2/c1-5-4-3(7-5)6(5,2-8)9-4/h2-4,7H,1H3/t3-,4-,5+,6+/m0/s1
