17
gdb 88321	3.75906	0.99065	0.85884	5.8641	72.8	-0.2504	-0.0177	0.2327	1344.7719	0.134756	-455.173681	-455.164444	-455.1635	-455.208566	32.37	
C	 0.3148598689	 1.3589645437	 0.3454101579	-0.401859
C	 0.0663476187	-0.041004852	-0.1641557607	 0.02553
C	 0.9775567883	-0.663848351	-1.1820610159	-0.270491
N	 0.9313021057	-1.1498591712	 0.19311636	-0.145724
C	 1.9724838766	-1.0561638424	 1.1209392996	 0.466713
O	 1.8957838947	-0.4894617361	 2.1793777473	-0.338354
N	 3.0867252347	-1.803459849	 0.6913720126	-0.361743
C	 4.3058655636	-1.9543210584	 1.3383345255	 0.168281
O	 4.6551699419	-1.419229662	 2.3533968792	-0.256371
H	 1.3722759668	 1.6293520128	 0.2874908751	 0.13018
H	-0.2587334868	 2.0722490505	-0.2551656752	 0.120755
H	 0.007688739	 1.4522273989	 1.3894330645	 0.155524
H	-0.9828136711	-0.3287897492	-0.2081411137	 0.107095
H	 0.5889441123	-1.3401363918	-1.9391594308	 0.127044
H	 1.8475942349	-0.083611119	-1.4833615268	 0.131129
H	 2.9657141872	-2.3337315087	-0.1587785335	 0.260715
H	 4.9484270846	-2.6553555453	 0.765796315	 0.081575
53.3102	71.6708	132.5231	183.4787	208.6672	228.6362	241.585	372.2696	374.5517	436.5099	600.8043	611.1595	664.6715	781.7723	820.2148	908.6117	912.9948	943.5606	1028.0811	1033.7976	1056.2065	1108.5443	1122.1699	1161.982	1166.3684	1175.8495	1196.4166	1367.4363	1407.1928	1427.1983	1448.2877	1482.7267	1489.802	1500.0653	1515.0706	1805.533	1872.0664	2915.4081	3046.9982	3097.9581	3111.6074	3124.6786	3136.2342	3187.6578	3618.6087
CC1CN1C(=O)NC=O	C[C@H]1CN1C(=O)NC=O	
InChI=1S/C5H8N2O2/c1-4-2-7(4)5(9)6-3-8/h3-4H,2H2,1H3,(H,6,8,9)	InChI=1S/C5H8N2O2/c1-4-2-7(4)5(9)6-3-8/h3-4H,2H2,1H3,(H,6,8,9)/t4-,7?/m0/s1
