15
gdb 8829	3.17209	1.48899	1.17602	1.7226	63.72	-0.2483	-0.0013	0.247	1040.0346	0.116734	-399.781914	-399.772772	-399.771827	-399.816152	31.438	
C	-0.0426550273	 1.3558351402	 0.0237433317	-0.243496
O	-0.0308428237	-0.0763287064	-0.0805385683	-0.226941
C	 0.6074568618	-0.5679172727	-1.148726833	 0.473721
O	 1.1223732093	 0.0953946022	-2.0104553914	-0.358694
C	 0.621551386	-2.1037416966	-1.1213406652	-0.236655
N	 0.7149005504	-2.5790087472	-2.5020210932	-0.508209
C	 1.7122653477	-2.5407676083	-0.2366310781	 0.332852
C	 2.6191560409	-2.9280607799	 0.4513228147	-0.487114
H	 0.9773334222	 1.7427126139	 0.0857440323	 0.146093
H	-0.5377048652	 1.7978471348	-0.8440613847	 0.146865
H	-0.5940676281	 1.5802247985	 0.9362424998	 0.138893
H	-0.3296520216	-2.4317629139	-0.6858974035	 0.133125
H	 1.41401023	-2.0148353954	-2.9787566853	 0.248463
H	 1.0438180745	-3.5389369478	-2.5059939653	 0.237294
H	 3.4173488031	-3.2685182415	 1.0638242395	 0.203803
52.5138	102.0913	120.7919	179.7747	206.9034	237.1401	260.571	336.9847	409.588	418.5801	572.8176	632.7136	654.7001	679.7068	783.531	873.8725	899.0752	990.4468	1017.2056	1128.4733	1178.4246	1186.6096	1210.695	1263.946	1325.4332	1391.6153	1474.4032	1482.4017	1495.882	1639.6721	1832.3628	2225.9561	3041.7734	3055.9999	3133.0025	3165.8756	3494.4102	3502.4261	3581.8981
COC(=O)C(N)C#C	COC(=O)[C@@H](N)C#C	
InChI=1S/C5H7NO2/c1-3-4(6)5(7)8-2/h1,4H,6H2,2H3	InChI=1S/C5H7NO2/c1-3-4(6)5(7)8-2/h1,4H,6H2,2H3/t4-/m0/s1
