21
gdb 114698	3.70454	1.14894	1.08013	0.6289	78.72	-0.236	0.0915	0.3275	1235.6737	0.182202	-424.219952	-424.211029	-424.210085	-424.253293	34.096	
C	-0.701159753	 1.0328230116	-0.2410702073	-0.243094
O	-0.2522001386	-0.3054987475	-0.3575587357	-0.234936
C	 0.9216302039	-0.438718175	-1.1205086084	 0.191082
C	 1.32324258	-1.9252952223	-1.1296130522	-0.315004
C	 0.83720834	-2.4473215622	-2.4776640201	 0.30735
C	 1.5305166514	-3.6401360144	-3.0890594841	-0.483247
C	-0.6203804277	-2.1458772215	-2.803773401	-0.365941
C	 0.4752013944	-1.2085670641	-3.2445753574	 0.072715
O	 0.7277482841	-0.0555177128	-2.473529182	-0.262876
H	 0.064893709	 1.6688902592	 0.2286495366	 0.104248
H	-0.9577655208	 1.4579806295	-1.2178560807	 0.128041
H	-1.5885169441	 1.017640422	 0.3954260506	 0.124209
H	 1.6913502666	 0.2361193787	-0.718582098	 0.07366
H	 2.4127355566	-2.0202683482	-1.0706665379	 0.102884
H	 0.886902788	-2.4336487014	-0.2666513855	 0.118975
H	 1.3454871953	-4.5512712389	-2.5079497888	 0.119784
H	 1.1749756607	-3.8250340529	-4.107764459	 0.115388
H	 2.6156874549	-3.4896108372	-3.1353079086	 0.115149
H	-1.0850775862	-2.7580664419	-3.5707266121	 0.103481
H	-1.2779090071	-1.8189475549	-2.0072856196	 0.132291
H	 0.7025844028	-1.0511071459	-4.2927555086	 0.09584
96.6021	134.3952	167.5658	201.6473	225.757	287.6064	301.4392	355.2252	418.2837	457.3391	558.9649	603.2381	707.6642	779.2205	832.4491	859.6286	867.2098	940.4612	964.6021	982.1116	1022.2556	1033.867	1045.9332	1051.9186	1094.78	1113.8775	1128.6053	1162.2448	1180.702	1202.3763	1238.3615	1257.7482	1289.9011	1323.8604	1359.8209	1394.5408	1412.3055	1421.9897	1472.2292	1475.2587	1483.5601	1488.6341	1490.3327	1503.5228	1514.9061	2988.5777	3000.0083	3019.7669	3052.1372	3067.1508	3078.7057	3095.0404	3108.9244	3124.8878	3129.7531	3177.8536	3229.8423
COC1CC2(C)CC2O1	CO[C@H]1C[C@@]2(C)C[C@H]2O1	
InChI=1S/C7H12O2/c1-7-3-5(7)9-6(4-7)8-2/h5-6H,3-4H2,1-2H3	InChI=1S/C7H12O2/c1-7-3-5(7)9-6(4-7)8-2/h5-6H,3-4H2,1-2H3/t5-,6-,7-/m1/s1
