14
gdb 10251	2.72066	2.09592	1.18389	1.687	63.23	-0.259	-0.024	0.235	942.6024	0.10853	-412.090474	-412.082683	-412.081739	-412.122873	28.108	
N	 0.0324599567	 1.4908199671	-0.2762204456	-0.569454
C	 0.2517968072	 0.1651921068	-0.261547464	 0.502115
O	 1.3056818485	-0.3773700458	-0.5269844755	-0.39326
N	-0.8997255824	-0.6314638154	 0.108626413	-0.173604
C	-0.6911085057	-2.025960277	 0.1304777819	 0.11186
N	-1.6168080668	-2.8365856815	 0.4379641186	-0.480017
C	-2.1670819184	-0.1593003053	 0.4380253078	 0.139838
N	-2.4900513833	 1.0738728293	 0.4577274934	-0.496576
H	 0.8142794149	 2.069502073	-0.5298743591	 0.265267
H	-0.8865210442	 1.8606655638	-0.0389944873	 0.293167
H	 0.3343310578	-2.2639671044	-0.1446204279	 0.160573
H	-1.270819551	-3.7925320215	 0.3956531192	 0.237986
H	-2.8320281909	-0.9902478955	 0.6731188145	 0.161295
H	-3.4646955323	 1.1808040262	 0.725796691	 0.240807
68.9207	136.258	202.515	269.3192	287.2724	328.9322	405.8472	453.8045	473.1368	637.1877	664.7006	713.4451	782.0628	792.3529	820.8589	839.4823	1088.2234	1094.1853	1111.704	1133.9636	1180.2501	1293.3543	1350.7199	1373.7218	1400.5405	1424.7034	1603.7185	1705.3041	1733.6579	1824.2065	3141.003	3164.0947	3395.6436	3515.8727	3524.9114	3703.4552
NC(=O)N(C=N)C=N	NC(=O)N(C=N)C=N	
InChI=1S/C3H6N4O/c4-1-7(2-5)3(6)8/h1-2,4-5H,(H2,6,8)	InChI=1S/C3H6N4O/c4-1-7(2-5)3(6)8/h1-2,4-5H,(H2,6,8)
