16
gdb 15644	3.34714	1.85191	1.31197	2.7214	66.3	-0.2436	-0.015	0.2286	938.8683	0.131518	-379.975428	-379.96777	-379.966826	-380.008308	27.341	
C	 0.0237349387	 1.5758290179	 0.1208370127	-0.378415
C	-0.0220593055	 0.0553491951	-0.0466265119	-0.165057
N	-1.3709646332	-0.484584311	-0.0023369822	-0.094081
C	-2.141030622	-0.7609896122	 1.1234229884	 0.069133
N	-3.3139955531	-1.2233821598	 0.9183742319	-0.256861
C	-3.4487932823	-1.3031090815	-0.5393171221	-0.291975
C	-2.1279506458	-0.8008694104	-1.1304585046	 0.390871
O	-1.7683805008	-0.6872942483	-2.2781826959	-0.372987
H	 1.058336084	 1.9285180439	 0.0714558693	 0.126361
H	-0.5447067338	 2.0669768553	-0.6735910653	 0.142734
H	-0.394170567	 1.8843877719	 1.0843541086	 0.122803
H	 0.3842102301	-0.2315286938	-1.020472854	 0.147832
H	 0.5776119635	-0.4384441049	 0.7258677215	 0.118055
H	-1.7204585534	-0.583060554	 2.1088116977	 0.136242
H	-3.6489085171	-2.3315289141	-0.858912597	 0.152879
H	-4.2867437324	-0.6909699439	-0.890245777	 0.152465
37.2974	113.7684	182.5242	210.4992	302.1786	378.8467	464.303	494.4558	608.6751	650.4937	712.3944	787.326	887.3018	927.8925	945.9106	991.242	993.9422	1064.4132	1098.0791	1116.8092	1181.8165	1240.6766	1268.9408	1303.0724	1374.6335	1383.0685	1407.0557	1416.6502	1437.8682	1480.9912	1493.2365	1502.2785	1677.8303	1833.5213	3041.5974	3046.4789	3054.8358	3089.94	3098.1443	3116.9063	3127.2022	3184.6894
CCN1C=NCC1=O	CCN1C=NCC1=O	
InChI=1S/C5H8N2O/c1-2-7-4-6-3-5(7)8/h4H,2-3H2,1H3	InChI=1S/C5H8N2O/c1-2-7-4-6-3-5(7)8/h4H,2-3H2,1H3
