19
gdb 40381	3.91283	1.34074	1.20134	1.0919	78.88	-0.2046	0.0714	0.276	1081.4395	0.159745	-381.938414	-381.930949	-381.930004	-381.970253	30.246	
C	-0.8595525225	-0.3874960375	-1.0838671496	-0.230747
C	-1.0419043138	 0.9685081365	-0.4994302553	-0.229455
N	-0.0619231077	 0.0330800085	 0.0629863049	-0.156387
C	-0.3687407664	-0.5372751694	 1.3298528374	 0.363126
C	-0.3321291906	-1.9945019704	 1.6473762229	-0.353407
C	-1.5843925522	-1.1985660815	 1.972400271	-0.082078
N	-1.537756657	-0.2641939532	 3.1682651953	-0.137786
C	-0.2507495584	-0.3950940654	 3.8814260808	-0.247189
C	-0.2851799124	 0.337426977	 2.597467774	-0.083885
H	-1.6602837222	-1.1054177225	-0.9173475327	 0.115267
H	-0.3102342634	-0.5229869398	-2.0105897198	 0.121251
H	-0.6240448878	 1.8410690727	-0.9918923741	 0.119551
H	-1.9549773989	 1.142977538	 0.0651343894	 0.127177
H	-0.4815899585	-2.6236120278	 0.7736450206	 0.117778
H	 0.3296728802	-2.4427428754	 2.3814726844	 0.112858
H	-2.5642960393	-1.4859235334	 1.6124855266	 0.101605
H	-0.2275845576	 0.2082984451	 4.7851276477	 0.122705
H	 0.2331622571	-1.3588112875	 3.9855733102	 0.120896
H	-0.1724563385	 1.4149876461	 2.5292001862	 0.09872
94.9394	155.5637	196.1875	290.4801	422.7133	451.4918	488.4091	522.1453	591.9256	676.943	757.2697	771.0364	810.3213	845.9711	890.0378	904.3655	908.5013	948.8165	963.6357	1009.6471	1010.0365	1039.7342	1043.4829	1074.9521	1094.7178	1111.2083	1113.6992	1126.0884	1137.6483	1167.8042	1174.7684	1204.6583	1230.3385	1233.2272	1300.1394	1337.4975	1412.9963	1484.0484	1489.2723	1514.4955	1522.5745	3102.0929	3109.0267	3113.9977	3129.1618	3159.5637	3185.601	3186.554	3192.5256	3203.4712	3214.0678
C1CN1C12CC1N1CC21	C1CN1[C@]12C[C@H]1N1C[C@@H]21	
InChI=1S/C7H10N2/c1-2-8(1)7-3-5(7)9-4-6(7)9/h5-6H,1-4H2	InChI=1S/C7H10N2/c1-2-8(1)7-3-5(7)9-4-6(7)9/h5-6H,1-4H2/t5-,6+,7-,9?/m1/s1
