19
gdb 7350	4.02773	1.13963	0.93632	1.8674	69.41	-0.2595	0.0334	0.2929	1270.9314	0.163541	-402.213282	-402.203618	-402.202674	-402.248108	34.218	
C	 0.8859893422	 1.2141785289	 0.3230103496	-0.390498
C	 0.0805197784	-0.0310113967	 0.0036521149	-0.030129
O	 0.7380913842	-0.7061956823	-1.0814894391	-0.250395
C	 0.1619341293	-1.8391326411	-1.524156132	 0.374061
N	-0.8938392122	-2.3155727178	-1.0109173023	-0.537991
C	 0.9457064161	-2.4148881827	-2.7062260547	 0.042089
C	 2.4364176729	-2.5693707292	-2.3963410552	-0.409319
O	 0.3617351785	-3.6293836987	-3.147481012	-0.418781
H	 1.9065583091	 0.9546666809	 0.6191746658	 0.125056
H	 0.9385523609	 1.8792078026	-0.5438295646	 0.126623
H	 0.416607834	 1.7592753604	 1.1473554509	 0.121259
H	 0.0165923325	-0.7107453658	 0.8596895265	 0.119321
H	-0.9456987228	 0.206089406	-0.2956181531	 0.120958
H	-1.1579996443	-3.1503595034	-1.5344007714	 0.224129
H	 0.8268700253	-1.7163880767	-3.5436103591	 0.116835
H	 2.5855890481	-3.2654829782	-1.5614766822	 0.113821
H	 2.9601136158	-2.9604395101	-3.2724994709	 0.126094
H	 2.8737382175	-1.6105764156	-2.1131482007	 0.143044
H	 0.6549958346	-4.3286805905	-2.5522635404	 0.283822
50.7591	89.8947	115.5439	148.385	233.0294	252.7707	293.6773	313.5736	345.6851	362.1045	417.6262	474.526	614.3639	732.0474	807.4088	845.0198	887.696	919.5956	937.0327	1040.1496	1053.9404	1083.5277	1125.1828	1136.0931	1148.6254	1183.6101	1288.0421	1298.3509	1318.7357	1363.4088	1396.0605	1403.7762	1412.7185	1438.2719	1485.7137	1491.317	1496.555	1498.2617	1521.1873	1728.0481	3030.4131	3043.9509	3044.5435	3048.2603	3084.2037	3107.7178	3119.1755	3122.8057	3145.76	3489.773	3797.3963
CCOC(=N)C(C)O	CCO[C]([NH])[C@@H](C)O	
InChI=1S/C5H11NO2/c1-3-8-5(6)4(2)7/h4,6-7H,3H2,1-2H3	InChI=1S/C5H11NO2/c1-3-8-5(6)4(2)7/h4,6-7H,3H2,1-2H3/t4-/m1/s1
