20
gdb 57099	2.89245	1.13749	0.87863	4.3506	78.87	-0.2621	0.0327	0.2948	1330.3457	0.172051	-403.172625	-403.163548	-403.162604	-403.207551	33.025	
C	-0.0202928493	 1.5287904491	 0.1244807516	-0.400663
C	 0.029653255	-0.0017209465	-0.0498214007	-0.152253
C	-1.3257391475	-0.5535288368	 0.0680381361	 0.270063
N	-2.3964867737	-0.9824389822	 0.1459771489	-0.328718
C	 0.6757948608	-0.4391324764	-1.3891424069	 0.018428
C	 2.170322603	-0.018741071	-1.4869041048	-0.257664
C	 2.8890536393	-1.3337592703	-1.8386926229	-0.08106
O	 2.0836519833	-2.3513085171	-1.2693269663	-0.237683
C	 0.7467610791	-1.9811401488	-1.5608382141	-0.110041
H	 0.9878112146	 1.9487867326	 0.0923924091	 0.129909
H	-0.6112439883	 1.9870903557	-0.6738551572	 0.137075
H	-0.4742851484	 1.7976639686	 1.081301024	 0.139596
H	 0.6236818071	-0.4364248183	 0.765421176	 0.132651
H	 0.0899479959	 0.0012136636	-2.2013330747	 0.091511
H	 2.3426228978	 0.7664529255	-2.2263186518	 0.109403
H	 2.5299229488	 0.3513906653	-0.5219542193	 0.111393
H	 2.959170624	-1.4600371071	-2.9320127121	 0.091625
H	 3.8933052694	-1.4158022508	-1.4164111553	 0.113362
H	 0.085308582	-2.5316044113	-0.8877750582	 0.128324
H	 0.488262007	-2.255399254	-2.5956924915	 0.094741
31.5051	80.6337	133.9499	216.6428	242.6041	243.9077	285.8056	363.23	390.5151	514.1568	578.034	643.9095	722.9905	791.6042	864.836	873.2797	941.0882	959.0911	974.1044	981.7255	998.2844	1062.8649	1106.4728	1113.4677	1134.3102	1166.7373	1216.2064	1231.8285	1277.582	1281.9637	1297.7282	1322.9796	1335.3294	1359.7223	1376.7113	1405.6123	1413.5619	1489.9536	1495.1137	1498.3032	1507.9765	1523.11	2353.4927	2966.6384	2980.9931	3025.2267	3050.2762	3056.6196	3064.8161	3099.9665	3104.0749	3112.4182	3125.2641	3132.3979
CC(C#N)C1CCOC1	C[C@@H](C#N)[C@H]1CCOC1	
InChI=1S/C7H11NO/c1-6(4-8)7-2-3-9-5-7/h6-7H,2-3,5H2,1H3	InChI=1S/C7H11NO/c1-6(4-8)7-2-3-9-5-7/h6-7H,2-3,5H2,1H3/t6-,7-/m0/s1
