13
gdb 132927	3.10367	1.34915	0.94038	1.3336	66.94	-0.1998	-0.0417	0.158	1107.0262	0.089488	-502.024588	-502.017443	-502.016499	-502.056313	27.424	
F	 0.0329607474	-0.0085623042	 0.003535183	-0.064359
C	-0.0182617879	 1.3249646529	 0.0106655644	 0.068569
C	-1.1893354242	 2.0012116738	 0.0289511554	-0.068587
N	-1.1938429128	 3.3631881873	 0.0355950761	-0.347033
C	-0.053046379	 4.1822569759	 0.0251274796	 0.408337
N	-0.2480627118	 5.4520389315	 0.0339254762	-0.576736
C	 1.1921770801	 3.431179868	 0.0053816452	-0.373221
C	 1.1972287265	 2.0779734441	-0.0012781816	 0.244397
F	 2.331722166	 1.3896076759	-0.0192246013	-0.051937
H	-2.1455830767	 1.495922895	 0.038738405	 0.155509
H	-2.0678702192	 3.8680417284	 0.0493576705	 0.269259
H	 0.6389077532	 5.9498399865	 0.0249445235	 0.212223
H	 2.1283493385	 3.9745013848	-0.0040230361	 0.123578
112.223	207.3253	277.4423	334.583	361.2835	406.3619	440.0518	524.3672	592.8032	603.7683	665.5389	712.0391	762.8141	765.6543	796.0459	858.2498	881.5325	925.5301	1103.1217	1196.5826	1232.9702	1257.755	1312.0045	1372.6915	1447.2553	1526.316	1602.6318	1679.6824	1734.8911	3216.7896	3230.6403	3517.3004	3622.5862
FC1=CNC(=N)C=C1F	FC1=C(C=C(NC1)[NH])F	
InChI=1S/C5H4F2N2/c6-3-1-5(8)9-2-4(3)7/h1-2H,(H2,8,9)	InChI=1S/C5H5F2N2/c6-3-1-5(8)9-2-4(3)7/h1,8-9H,2H2
