23
gdb 111489	2.55745	1.34365	1.08874	1.1482	84.19	-0.2597	0.0746	0.3343	1222.4562	0.207384	-388.286351	-388.277355	-388.276411	-388.319556	35.581	
C	-0.9151589332	 1.1976508924	 0.0973302618	-0.410839
C	-0.2288200333	-0.1772070267	 0.0606380422	 0.003829
C	 0.5174378015	-0.4599320639	-1.2785144167	-0.232892
C	 2.005463812	-0.3101625915	-0.9937599256	-0.029698
C	 2.4827046804	 0.9490845029	-0.3144786134	-0.294853
C	 2.202545571	-0.2921446952	 0.5029488529	-0.051009
C	 0.8429494241	-0.4423575618	 1.174942621	 0.015788
C	 0.7001134647	 0.3786844709	 2.450736147	-0.093143
O	-0.5448912917	 0.048161288	 3.0588921502	-0.421521
H	-0.2240077907	 2.0325072657	-0.0538328866	 0.111891
H	-1.6657771183	 1.2559307143	-0.6982175489	 0.105988
H	-1.4248874695	 1.3453936563	 1.0528345038	 0.127469
H	-1.0287750204	-0.9127235574	 0.1847457316	 0.081659
H	 0.3251246437	-1.4873717274	-1.6090455313	 0.09423
H	 0.1674900264	 0.199270629	-2.081739866	 0.09214
H	 2.7038635694	-0.8322978974	-1.6391461143	 0.076462
H	 3.5255408567	 1.2158288483	-0.4515294492	 0.105681
H	 1.8217400389	 1.8048472192	-0.2463910109	 0.110319
H	 3.0484348721	-0.7944281293	 0.9615243142	 0.076137
H	 0.7468987137	-1.4937184964	 1.4771065517	 0.078218
H	 1.5387749281	 0.1435479591	 3.1252446161	 0.081829
H	 0.7585542809	 1.45331317	 2.2232334274	 0.087171
H	-0.6359990962	 0.5722388109	 3.859978263	 0.285146
102.8202	144.3838	180.9062	242.4515	252.6825	287.3923	314.7932	349.0935	375.4963	442.0454	511.5242	620.6427	709.369	734.8218	767.3759	829.5466	875.6102	904.0008	923.9809	961.0251	978.4313	1010.5063	1041.1381	1055.0944	1070.7498	1079.4642	1087.5974	1101.3651	1114.4461	1139.1285	1162.6556	1207.8323	1234.0467	1251.4535	1257.0423	1267.9208	1323.7638	1324.7123	1352.0837	1369.4355	1380.1912	1395.1556	1417.4464	1457.9263	1483.0035	1497.0757	1499.1445	1516.4248	1526.7665	2973.2531	3001.8143	3021.0369	3025.3318	3038.023	3052.4585	3064.8769	3098.7582	3122.0858	3137.1741	3151.4864	3164.0198	3220.4304	3828.2114
CC1CC2CC2C1CO	C[C@H]1C[C@H]2C[C@H]2[C@H]1CO	
InChI=1S/C8H14O/c1-5-2-6-3-7(6)8(5)4-9/h5-9H,2-4H2,1H3	InChI=1S/C8H14O/c1-5-2-6-3-7(6)8(5)4-9/h5-9H,2-4H2,1H3/t5-,6-,7+,8-/m0/s1
