17
gdb 92988	3.22824	1.12531	0.89036	5.329	72.91	-0.2645	0.0048	0.2693	1265.7417	0.136736	-418.039559	-418.03101	-418.030065	-418.074048	30.574	
C	-0.362531259	 1.5249161574	-0.0592812607	-0.408925
C	 0.0645309784	 0.0666912877	-0.042414211	 0.090071
O	 1.0708302502	-0.1416906801	-1.0759229939	-0.227658
C	 2.0705639831	-0.8277738146	-0.482703974	 0.120683
N	 2.011745041	-1.101713279	 0.7531502648	-0.258169
C	 0.7554583102	-0.5076871322	 1.2415361567	-0.014861
C	 1.061826535	 0.5222908645	 2.3521027593	-0.355659
C	 1.5988448969	-0.1094142162	 3.554823322	 0.282901
N	 1.9993999949	-0.6008748137	 4.5203874756	-0.302857
H	 0.4700756362	 2.192475504	 0.1781218152	 0.131505
H	-0.73500241	 1.78895762	-1.0522443341	 0.138796
H	-1.1691494513	 1.6993086946	 0.6593282267	 0.129284
H	-0.7866586204	-0.5674269509	-0.3119981014	 0.105686
H	 2.8868109936	-1.0957745857	-1.1446351738	 0.149622
H	 0.1362190305	-1.2953363449	 1.6809449918	 0.112721
H	 1.7846536936	 1.2609478442	 1.991154503	 0.156619
H	 0.1506213971	 1.0627485648	 2.6299205237	 0.150242
34.1051	72.1993	131.1425	236.199	248.7231	308.6831	374.7352	394.6401	460.1644	509.6349	594.1823	716.5695	820.098	840.9994	866.9795	938.392	950.686	973.0829	1011.9192	1042.5037	1073.2547	1130.3405	1142.8293	1159.1862	1229.0621	1287.8117	1316.0581	1327.9969	1355.1493	1382.0839	1390.3016	1415.2625	1457.8548	1487.3287	1500.2707	1705.3041	2367.3431	3042.2845	3045.5254	3052.8716	3065.1186	3097.1713	3120.2487	3127.2579	3216.5774
CC1OC=NC1CC#N	C[C@H]1OC=N[C@H]1CC#N	
InChI=1S/C6H8N2O/c1-5-6(2-3-7)8-4-9-5/h4-6H,2H2,1H3	InChI=1S/C6H8N2O/c1-5-6(2-3-7)8-4-9-5/h4-6H,2H2,1H3/t5-,6+/m1/s1
