13
gdb 5174	5.94678	1.46031	1.17241	6.6073	63.22	-0.2079	-0.0026	0.2053	935.1082	0.097672	-394.833774	-394.826818	-394.825873	-394.865689	24.896	
O	-0.3098056335	 0.0676988373	 0.0050907737	-0.293123
C	-0.0887927324	 1.2558078852	 0.009209143	 0.144089
N	 1.1580150386	 1.8258810553	-0.0001792066	-0.418219
C	 2.3577103374	 1.1119078748	-0.0162311686	 0.408669
C	 2.6564369464	-0.2282673374	-0.0309683417	-0.148243
N	 4.0249435745	-0.4007468963	-0.042810289	-0.240965
C	 4.5425304158	 0.7992554481	-0.0358160337	 0.014204
N	 3.5708115505	 1.7682002705	-0.0195403246	-0.340097
H	-0.8798677523	 2.0296715203	 0.0208874334	 0.085192
H	 1.2003803679	 2.8330768593	 0.0028676745	 0.251863
H	 1.9640438437	-1.0507197014	-0.0329817026	 0.143462
H	 5.592941461	 1.0476231275	-0.0416968685	 0.132003
H	 3.7195014224	 2.763328877	-0.0107399291	 0.261164
41.5371	175.934	196.1174	342.0983	353.8547	429.2825	477.9099	617.892	669.7287	681.3785	780.8465	845.4513	860.8023	926.2739	1003.287	1021.2646	1106.5462	1128.2385	1164.1572	1243.7214	1274.8519	1363.8215	1427.0184	1432.6615	1518.2124	1561.5785	1620.1608	1809.534	2952.7109	3255.4775	3304.4561	3626.4877	3659.5705
O=CNC1=CN=CN1	O=CNc1cnc[nH]1	
InChI=1S/C4H5N3O/c8-3-7-4-1-5-2-6-4/h1-3H,(H,5,6)(H,7,8)	InChI=1S/C4H5N3O/c8-3-7-4-1-5-2-6-4/h1-3H,(H,5,6)(H,7,8)
