20
gdb 80499	2.14552	1.4751	1.24801	1.5098	87.53	-0.2368	0.0316	0.2684	1154.5285	0.16891	-365.932101	-365.922784	-365.921839	-365.965572	35.725	
C	-0.3568554016	 1.4646943171	-0.1118530129	-0.426332
C	 0.0391113396	-0.0070897688	-0.1251465056	-0.019566
C	 1.1223304236	-0.5715990038	-1.1023068988	-0.28486
C	 1.8210808148	-1.2511868	 0.0896628805	-0.10935
N	 2.243429751	-0.3302002032	 1.1059891439	-0.11469
C	 2.8424828753	 0.969001201	 0.8413859591	-0.321647
C	 0.8221297069	-0.6273404847	 1.0690323485	 0.111621
C	 0.1866003714	-1.1542955354	 2.2341977608	 0.247013
C	-0.3987345829	-1.5751517944	 3.1978513871	-0.401717
H	 0.4999026992	 2.1358785266	-0.0231072924	 0.118789
H	-0.891202202	 1.7263130132	-1.031901335	 0.116172
H	-1.027622895	 1.669369294	 0.729656824	 0.127185
H	-0.8675713499	-0.6082040613	-0.2471965548	 0.088942
H	 0.7132068731	-1.2846046872	-1.8203486412	 0.109329
H	 1.7246155288	 0.1599044842	-1.6492317728	 0.104166
H	 2.2288175066	-2.2567446359	 0.0966082886	 0.10399
H	 2.5464506875	 1.4410329742	-0.1033147018	 0.109628
H	 2.5911559405	 1.6475977759	 1.6615208987	 0.130866
H	 3.9301838037	 0.8434750209	 0.8277558205	 0.124407
H	-0.8982239804	-1.9537213721	 4.0547510435	 0.186056
118.6884	139.4773	154.9975	183.6217	230.7666	248.7436	289.316	343.869	414.9401	503.0549	529.7137	548.3334	593.2781	637.4267	645.6749	678.3571	759.0381	837.4509	862.7105	940.2155	957.3249	1001.6331	1014.0906	1095.1134	1101.3269	1118.0294	1147.9827	1153.7126	1183.6827	1205.0099	1235.2466	1272.6063	1275.0283	1373.439	1402.2381	1416.5382	1453.1292	1479.7544	1490.4798	1498.8318	1503.4447	1509.9841	2232.7228	3016.9452	3036.199	3052.6339	3057.608	3078.5715	3094.4365	3109.5657	3115.4397	3129.3855	3167.8643	3503.2292
CC1CC2N(C)C12C#C	C[C@H]1C[C@H]2N(C)[C@@]12C#C	
InChI=1S/C8H11N/c1-4-8-6(2)5-7(8)9(8)3/h1,6-7H,5H2,2-3H3	InChI=1S/C8H11N/c1-4-8-6(2)5-7(8)9(8)3/h1,6-7H,5H2,2-3H3/t6-,7+,8-,9?/m0/s1
