17
gdb 15056	2.88376	1.59164	1.09768	3.3282	69.37	-0.2839	0.0191	0.303	1084.9225	0.14102	-363.847239	-363.838601	-363.837657	-363.880869	30.385	
C	-0.0498991206	 1.378860046	 0.130132008	-0.250413
O	 0.3481394963	 0.0282143261	-0.0308098285	-0.231609
C	 0.7078244603	-0.6171905683	 1.1681415034	-0.027169
C	-0.4593076572	-0.7416858153	 2.0795077235	 0.269651
N	-1.3737094981	-0.8278396515	 2.7807947986	-0.328629
C	 1.272576629	-1.9786579591	 0.8360401899	 0.018547
C	 2.7256743748	-2.0976442899	 0.4629445407	-0.276412
C	 2.242269253	-2.6329362725	 1.7860426639	-0.266202
H	 0.7507380199	 1.9804368348	 0.5861405206	 0.110625
H	-0.2602188259	 1.7636520438	-0.869356115	 0.138807
H	-0.9534653915	 1.4671218548	 0.7479340775	 0.135788
H	 1.4711930321	-0.0292460174	 1.7070785372	 0.104163
H	 0.5680825201	-2.6216507047	 0.3194285865	 0.111293
H	 2.9892844158	-2.8011695771	-0.3180870334	 0.124197
H	 3.3251254099	-1.1934677088	 0.4665208967	 0.119698
H	 2.5180401208	-2.0923793827	 2.685567562	 0.121851
H	 2.1692522911	-3.7054823984	 1.9214350884	 0.125812
71.5624	101.9992	142.3068	174.5866	186.6117	252.5011	334.8427	376.3841	450.5406	523.5434	607.6337	768.8276	832.7172	873.7691	905.1626	933.6454	998.5606	1017.6145	1065.1473	1085.63	1127.236	1139.8025	1181.6152	1186.0168	1195.7138	1225.2308	1233.9768	1298.5687	1351.4355	1420.8043	1473.4711	1479.1725	1488.1308	1507.589	1509.2138	2351.6935	2955.6377	2989.4932	3051.5545	3132.2753	3137.5136	3141.5533	3171.4767	3216.7917	3231.1209
COC(C#N)C1CC1	CO[C@@H](C#N)C1CC1	
InChI=1S/C6H9NO/c1-8-6(4-7)5-2-3-5/h5-6H,2-3H2,1H3	InChI=1S/C6H9NO/c1-8-6(4-7)5-2-3-5/h5-6H,2-3H2,1H3/t6-/m0/s1
