14
gdb 17953	3.3918	2.34131	2.12719	2.1787	55.9	-0.2197	0.0604	0.2801	699.7462	0.107495	-419.609618	-419.603505	-419.602561	-419.639548	24.224	
O	-0.048116448	 1.4291795819	-0.0561162056	-0.455169
C	 0.0305673697	 0.0585802283	-0.0058958575	 0.268356
C	-1.0024868728	-1.0338900625	 0.0166955445	 0.010397
O	-0.4062637149	-1.7793050647	-1.0411774268	-0.293226
C	 0.7696024731	-0.9119236965	-0.9779437109	-0.009798
C	 1.791563596	-1.6100297899	-0.0969723129	-0.079815
O	 1.1209841133	-1.7614555882	 1.1657944467	-0.262907
C	 0.0219956331	-0.8838484159	 1.1563368818	-0.012777
H	 0.5895667954	 1.79886385	 0.5651359729	 0.292662
H	-2.07981792	-1.0544266839	 0.1306348236	 0.115515
H	 1.0952034788	-0.563789904	-1.9584563878	 0.097716
H	 2.0585691818	-2.6032700354	-0.4683400673	 0.124886
H	 2.70555979	-1.0045128956	 0.0172025845	 0.090682
H	-0.3254880854	-0.5839722135	 2.1381960548	 0.11348
212.3917	247.5485	311.9451	329.8647	415.7534	555.2631	605.9017	692.9278	755.7736	775.8477	851.6451	902.3327	915.4372	937.7761	987.9539	993.4721	1024.4851	1035.3096	1088.8745	1098.1062	1149.093	1182.5273	1235.457	1242.0281	1267.6867	1310.182	1332.1843	1370.7439	1493.9823	1498.6439	2975.1853	3091.6132	3123.3964	3187.6679	3196.4588	3789.3981
OC12C3OC1COC23	O[C@@]12[C@H]3O[C@@H]1CO[C@@H]23	
InChI=1S/C5H6O3/c6-5-2-1-7-3(5)4(5)8-2/h2-4,6H,1H2	InChI=1S/C5H6O3/c6-5-2-1-7-3(5)4(5)8-2/h2-4,6H,1H2/t2-,3-,4+,5+/m1/s1
