18
gdb 58137	1.81612	1.61656	1.15274	3.7298	72.74	-0.2769	-0.0532	0.2237	1147.3686	0.143696	-439.104361	-439.093912	-439.092968	-439.139549	36.951	
C	 0.0986998013	 1.4764797121	 0.1668607578	-0.435198
C	 0.0887363466	-0.0426835913	-0.0005367997	 0.121295
O	-1.2366506841	-0.5575173388	 0.0329331224	-0.435823
C	 0.6748335029	-0.5478161972	-1.3468899669	-0.016408
C	-0.0416601047	 0.0497137099	-2.5845644454	-0.434942
C	 2.1849409106	-0.2599356278	-1.4778074941	 0.148637
O	 2.8446876407	 0.3354942523	-0.6716597026	-0.239102
C	 0.5639379284	-2.0146795482	-1.4010098938	 0.283446
N	 0.5465885563	-3.1679789946	-1.4751560955	-0.334737
H	 1.1140015883	 1.8735909725	 0.1233552168	 0.151721
H	-0.5213284528	 1.962898466	-0.5906477719	 0.127197
H	-0.3179438194	 1.7290934283	 1.1482365531	 0.114512
H	 0.6970054893	-0.4911336088	 0.7975059434	 0.098676
H	-1.6209921745	-0.344823631	 0.8889288294	 0.291234
H	 0.133672868	 1.1263581639	-2.644124319	 0.136853
H	 0.3247566555	-0.4133563681	-3.5040036907	 0.14049
H	-1.113699767	-0.1337455044	-2.5015221176	 0.16817
H	 2.6253102447	-0.6589935248	-2.4163512655	 0.113979
80.8167	85.7853	150.2639	182.2334	205.3806	220.2414	229.2518	251.8985	289.8537	302.6657	365.2703	392.1379	499.4194	524.9007	569.9604	639.4058	706.0619	902.3199	916.8391	929.8855	974.3607	1037.6402	1085.6196	1117.2607	1141.2369	1197.028	1213.8286	1271.8265	1372.8654	1393.6318	1404.3759	1411.6728	1431.5095	1484.7073	1497.2421	1504.6134	1506.8114	1837.6422	2351.6579	2910.9265	3006.86	3043.6061	3057.6263	3109.6837	3132.2952	3151.3651	3153.8862	3828.9481
CC(O)C(C)(C=O)C#N	C[C@@H](O)[C@@](C)(C=O)C#N	
InChI=1S/C6H9NO2/c1-5(9)6(2,3-7)4-8/h4-5,9H,1-2H3	InChI=1S/C6H9NO2/c1-5(9)6(2,3-7)4-8/h4-5,9H,1-2H3/t5-,6-/m1/s1
