16
gdb 34693	3.99154	1.4929	1.36852	4.2969	74.33	-0.2409	0.04	0.2809	943.0649	0.126906	-363.581008	-363.574703	-363.573759	-363.611711	25.935	
N	 0.077257061	-1.1621800387	 0.0818324429	-0.332519
C	 0.0357050194	-0.007432909	 0.0496831786	 0.274774
C	-0.0212797983	 1.4539544945	 0.0029017114	-0.170093
C	-0.5543839649	 2.0814662531	 1.2883993084	-0.076997
C	 0.5729107299	 2.3419749696	 2.2652263261	-0.071894
C	-0.0044220407	 3.4831630515	 1.4503551892	-0.103128
C	 1.2741663937	 3.5049632779	 0.5758205227	-0.103144
C	 1.8507890001	 2.3637860625	 1.3912147422	-0.071892
C	 1.3550856356	 2.1140182352	-0.0175970399	-0.076988
H	-0.6203649857	 1.7514629975	-0.8655761321	 0.124771
H	-1.5429205565	 1.8400145827	 1.6578849405	 0.107323
H	 0.5156994707	 2.1458626959	 3.3261230274	 0.098863
H	-0.5929810713	 4.334490048	 1.7616246102	 0.097369
H	 1.7576443345	 4.3745670884	 0.1538167804	 0.097368
H	 2.8645813215	 2.1859138868	 1.7195831996	 0.098864
H	 2.0631305111	 1.901465874	-0.8084932376	 0.107322
121.8069	157.2762	376.0368	491.1927	498.7978	597.1952	692.6845	725.7586	753.6116	772.706	786.2639	820.4565	860.3214	894.7647	925.148	936.8983	955.3691	969.1843	986.7926	988.2396	1032.9003	1041.03	1056.1531	1058.8268	1093.2839	1111.0243	1211.9666	1229.426	1244.5109	1274.6483	1280.5132	1318.2361	1372.1026	1388.0697	2356.6082	3050.2796	3200.0012	3202.999	3206.9854	3216.3621	3220.0767	3228.8226
N#CC1C2C3C2C2C3C12	N#C[C@H]1[C@H]2[C@@H]3[C@H]2[C@H]2[C@@H]3[C@@H]12	
InChI=1S/C8H7N/c9-1-2-3-5-6(3)8-4(2)7(5)8/h2-8H	InChI=1S/C8H7N/c9-1-2-3-5-6(3)8-4(2)7(5)8/h2-8H/t2-,3-,4+,5+,6-,7+,8-
