24
gdb 100536	2.67672	1.01312	0.8832	3.3344	87.15	-0.2306	0.0328	0.2634	1497.0559	0.215199	-405.589494	-405.57787	-405.576926	-405.627108	40.927	
C	-0.1146006387	 1.5884752493	-0.0082307912	-0.377446
C	 0.0510322842	 0.0660252543	-0.0183591332	-0.156505
N	 0.7541539011	-0.4326543378	-1.2012845368	-0.09047
C	 2.1974810601	-0.2526091205	-1.2453798593	-0.34392
C	 0.0017012496	-0.8925902935	-2.2552521904	 0.419181
O	-1.2179535168	-0.9531777346	-2.1920871272	-0.39865
C	 0.7388749774	-1.3821489017	-3.5102425328	-0.088317
C	 1.0217627815	-2.8901459038	-3.3606458245	-0.383912
C	-0.1127008378	-1.0998249603	-4.7537532977	-0.380746
H	 0.8520031218	 2.1023935848	-0.0391572331	 0.111638
H	-0.7054277954	 1.912442205	-0.8696979381	 0.136513
H	-0.6334134328	 1.9073578056	 0.9014627565	 0.117795
H	 0.604176199	-0.2622083745	 0.8699379184	 0.096109
H	-0.9274495152	-0.4142817449	-0.0093865099	 0.146011
H	 2.6954288994	-1.1050814033	-1.7113936685	 0.140371
H	 2.5022905818	 0.6590427397	-1.7768525448	 0.127395
H	 2.5705256812	-0.17900435	-0.2204493127	 0.129486
H	 1.6923925485	-0.8567697322	-3.618679997	 0.076252
H	 0.0818618488	-3.4351311797	-3.2293598322	 0.136509
H	 1.5213868962	-3.2778982511	-4.2538501763	 0.114819
H	 1.6574582985	-3.1066021064	-2.4957991781	 0.113141
H	-0.2635529067	-0.0256208633	-4.897190775	 0.1124
H	 0.3772269248	-1.4980868028	-5.6479600164	 0.101062
H	-1.0970189806	-1.5610263481	-4.6505577499	 0.141283
48.8628	50.6179	72.5038	120.3117	161.8636	204.2023	216.6533	236.5958	242.5916	278.4265	313.8474	371.6236	420.2074	428.9182	520.6794	605.2194	733.5403	757.8513	792.8684	859.5511	917.2387	936.0259	974.2499	1014.79	1087.9168	1102.2846	1105.9384	1118.5097	1142.3926	1159.5992	1205.9254	1267.6147	1305.5867	1335.9212	1364.4461	1392.4884	1395.7116	1411.1166	1412.9808	1431.3378	1470.4668	1482.4189	1482.9911	1490.5666	1495.8655	1496.9465	1500.4011	1504.0565	1514.8345	1523.0119	1742.0635	3009.0195	3032.6938	3033.5554	3036.9416	3041.6946	3057.7907	3087.4975	3100.4801	3101.5595	3106.3444	3112.9866	3117.8129	3124.0813	3136.7067	3139.6784
CCN(C)C(=O)C(C)C	CCN(C)C(=O)C(C)C	
InChI=1S/C7H15NO/c1-5-8(4)7(9)6(2)3/h6H,5H2,1-4H3	InChI=1S/C7H15NO/c1-5-8(4)7(9)6(2)3/h6H,5H2,1-4H3
