21
gdb 82641	1.99433	1.74543	1.53058	0.9259	82.57	-0.2283	0.078	0.3064	1061.0682	0.181754	-387.047084	-387.038225	-387.03728	-387.0798	34.84	
C	-0.2463421126	 1.4570261635	-0.0397437293	-0.409182
C	-0.0234422994	-0.0501654287	-0.0475980071	-0.051778
C	 1.2089391302	-0.519607563	-0.8847254859	-0.114457
C	 1.2019689623	-2.0675790047	-0.7566515762	-0.247478
C	 1.5244119128	-1.8331712206	 0.7152984834	-0.199992
C	 2.0922612768	-0.4462965928	 0.4379761235	 0.305823
C	 3.3967779567	 0.1888216942	 0.7867853839	-0.534474
C	 0.7761801782	-0.5544418201	 1.1530949471	 0.35593
O	 0.5661418887	-0.2540312991	 2.4860259262	-0.473543
H	 0.6927092743	 1.9935266892	 0.1345140805	 0.117194
H	-0.6617769372	 1.7993481048	-0.9935647962	 0.106849
H	-0.9411937742	 1.7456030256	 0.7555080842	 0.117329
H	-0.962929812	-0.574227056	-0.2745586815	 0.049895
H	 1.438358865	-0.0269321566	-1.8285774154	 0.066459
H	 0.2746000433	-2.5886161952	-1.02444365	 0.082849
H	 2.0426673924	-2.5280476769	-1.2844860804	 0.095542
H	 1.8707199269	-2.5367587897	 1.4637164301	 0.078778
H	 4.2251102609	-0.2344180244	 0.2065702301	 0.117174
H	 3.3828599617	 1.2699397789	 0.6063905159	 0.121482
H	 3.6183529593	 0.0350349303	 1.8482473384	 0.131427
H	-0.0581779741	-0.8925684988	 2.8482932085	 0.284171
150.6078	175.1857	198.009	206.4966	225.7182	285.7059	293.8467	344.1766	387.6903	485.0787	536.5724	607.3423	664.0696	731.4414	765.7296	801.6028	884.2408	893.8645	922.6628	938.9801	987.2971	1009.9661	1018.8059	1066.2235	1092.073	1104.0659	1119.386	1141.2765	1160.9091	1181.529	1211.2752	1243.8132	1249.1095	1281.7371	1292.6638	1332.9584	1386.0527	1408.4671	1415.8738	1481.4443	1485.8022	1492.9731	1497.4053	1499.0892	1508.6801	2996.6074	3019.4993	3023.218	3029.6483	3076.2698	3082.5419	3094.6241	3097.4488	3100.3082	3123.6237	3181.178	3787.984
CC1C2CC3C2(C)C13O	C[C@H]1[C@@H]2C[C@H]3[C@]2(C)[C@@]13O	
InChI=1S/C8H12O/c1-4-5-3-6-7(5,2)8(4,6)9/h4-6,9H,3H2,1-2H3	InChI=1S/C8H12O/c1-4-5-3-6-7(5,2)8(4,6)9/h4-6,9H,3H2,1-2H3/t4-,5-,6-,7+,8+/m0/s1
