18
gdb 79054	2.51447	1.90824	1.43995	1.7026	75.23	-0.216	0.0001	0.216	963.0293	0.148986	-401.912394	-401.904928	-401.903984	-401.943963	29.957	
C	-0.0433118675	 1.516040194	 0.1355909097	-0.503511
C	-0.046292498	 0.0268701765	 0.0321032752	 0.332614
C	 0.1113873159	-0.7581879921	-1.0403920382	-0.22154
C	 0.1074750468	-2.1821093561	-0.5984068614	-0.059006
C	 0.9751084059	-2.6091761178	 0.5588390118	-0.119374
C	 1.4092662565	-1.45349419	 1.4405993513	 0.149361
O	 2.5468368827	-0.6936854433	 1.14058657	-0.434835
C	-0.0485410801	-0.8783384895	 1.2409161171	-0.168051
N	-0.4871111655	-2.2597674527	 0.754155991	-0.134836
H	 0.8196775566	 1.8618627359	 0.7184458138	 0.141468
H	-0.0039219751	 1.99000542	-0.8487741658	 0.127045
H	-0.9388474766	 1.8763286289	 0.6566557465	 0.133141
H	 0.2298261591	-0.4448901495	-2.0700863169	 0.101636
H	-0.1951985166	-2.969662544	-1.2822772083	 0.095231
H	 1.3385683189	-3.629538106	 0.6382336173	 0.094221
H	 1.5247522598	-1.7950323598	 2.4708622036	 0.110005
H	 2.4747101526	-0.4294775058	 0.2159365116	 0.282214
H	-0.5742695052	-0.5206483187	 2.1260648617	 0.074218
139.7405	176.5302	197.4011	295.3415	324.0478	422.8421	475.1344	552.2127	562.2892	620.5522	737.4933	752.534	765.2165	812.6277	838.8589	864.0304	932.3868	961.6143	968.0465	999.7072	1032.0835	1047.7182	1060.401	1092.9935	1138.5378	1149.0356	1164.4265	1198.5811	1245.5967	1267.3252	1287.772	1341.2788	1347.0128	1376.2867	1410.0403	1440.6814	1477.5157	1489.9415	1698.092	3020.2158	3069.5706	3101.1236	3113.2258	3114.8253	3150.5904	3161.383	3212.4971	3790.0913
CC1=CC2C3C(O)C1N23	CC1=C[C@H]2[C@H]3[C@@H](O)[C@@H]1N23	
InChI=1S/C7H9NO/c1-3-2-4-6-7(9)5(3)8(4)6/h2,4-7,9H,1H3	InChI=1S/C7H9NO/c1-3-2-4-6-7(9)5(3)8(4)6/h2,4-7,9H,1H3/t4-,5+,6-,7-,8?/m0/s1
