23
gdb 122644	3.74261	0.70887	0.63619	1.2322	83.44	-0.2433	0.0843	0.3276	1843.8362	0.204097	-425.399314	-425.38872	-425.387776	-425.436548	36.96	
C	-0.1413196279	 1.4005198152	 0.1670942608	-0.227401
O	-0.0481002113	 0.0013138764	 0.0637545131	-0.233257
C	 0.6807486014	-0.5784483162	 1.1250475548	-0.05397
C	 0.6894802513	-2.0903935948	 0.9338716257	-0.220223
C	 1.4558599058	-2.7929414145	 2.0411960804	 0.137978
O	 0.833156592	-2.6236199298	 3.3398406947	-0.295764
C	 0.7847051941	-4.0463331097	 3.5619853042	-0.073656
C	 1.3941921246	-4.3435693325	 2.1733623485	-0.055001
C	 0.5374691674	-5.1436756736	 1.2009931291	-0.407342
H	 0.8505078452	 1.880816877	 0.1459976083	 0.100514
H	-0.7218887511	 1.7555252009	-0.6882115196	 0.123818
H	-0.6489958036	 1.7106541296	 1.0945279995	 0.103493
H	 1.7135079518	-0.1864392676	 1.1402261225	 0.079145
H	 0.2237506166	-0.3268284618	 2.0952164221	 0.107701
H	-0.3456531112	-2.4440634112	 0.9019569069	 0.108147
H	 1.1487036106	-2.3266221181	-0.0340975185	 0.103608
H	 2.4877484249	-2.4104642842	 2.0681404305	 0.067875
H	 1.3910707856	-4.3485144086	 4.4253693784	 0.097106
H	-0.243342571	-4.4026978541	 3.7111240861	 0.097278
H	 2.3916259619	-4.7871722275	 2.2329775692	 0.078276
H	-0.4839225085	-4.755652859	 1.1434089272	 0.124745
H	 0.9594183709	-5.133537928	 0.1906364679	 0.120565
H	 0.4756123504	-6.1892348078	 1.5218152982	 0.116365
39.2567	59.1156	89.5233	100.7128	129.9981	206.9754	230.4937	245.0127	296.2416	357.0039	404.7082	457.8611	539.2916	735.9702	798.0777	850.9781	885.9444	918.5117	933.5324	996.2502	1014.1409	1033.1457	1064.1788	1092.5968	1131.5785	1155.098	1157.9548	1170.1109	1185.031	1189.9832	1225.1354	1237.3373	1265.9582	1282.4783	1309.3271	1312.8813	1358.6169	1383.1182	1403.199	1417.4186	1426.094	1475.8566	1481.1542	1484.8667	1497.9641	1499.5843	1505.2349	1529.9763	1534.2198	2943.7568	2966.8174	2978.5618	2996.2267	3004.2646	3008.2145	3032.2847	3038.1906	3042.3144	3068.7087	3091.0672	3096.8556	3109.9187	3111.5417
COCCC1OCC1C	COCC[C@H]1OC[C@H]1C	
InChI=1S/C7H14O2/c1-6-5-9-7(6)3-4-8-2/h6-7H,3-5H2,1-2H3	InChI=1S/C7H14O2/c1-6-5-9-7(6)3-4-8-2/h6-7H,3-5H2,1-2H3/t6-,7-/m1/s1
