23
gdb 103754	3.08256	0.99516	0.87652	2.7276	82.29	-0.2515	0.0665	0.3179	1438.6468	0.202849	-425.412927	-425.40199	-425.401046	-425.448316	40.956	
C	-0.0722614931	 1.5399360864	-0.3970197538	-0.396733
C	-0.0173270737	 0.0981559652	 0.1242064865	-0.221834
C	-1.3826842763	-0.5674402515	 0.1647366451	 0.361157
O	-2.2978032057	 0.1086659924	 0.9993627041	-0.469812
C	-1.9508607153	-1.2399931581	-1.0671691342	-0.410178
C	-1.5394074506	-2.0688512054	 0.1498677945	 0.252204
C	-0.3270016912	-2.9778248579	 0.0463620646	-0.465652
C	-2.6706704004	-2.6802680353	 0.9640308811	-0.119472
O	-3.1397685121	-3.8999922062	 0.3969205907	-0.420731
H	 0.9267446444	 1.9844137735	-0.4237268297	 0.117785
H	-0.4844660554	 1.5809520634	-1.4114883465	 0.115941
H	-0.690885836	 2.1719622757	 0.2487551782	 0.113658
H	 0.6610204062	-0.4870136032	-0.5027780007	 0.097834
H	 0.4023203612	 0.0924920356	 1.1378102342	 0.105763
H	-2.5775713628	 0.9085429351	 0.5421691385	 0.283146
H	-3.0128099561	-1.1051189904	-1.2522637856	 0.102219
H	-1.3390514025	-1.2964316421	-1.9624736194	 0.1068
H	 0.3855938019	-2.6498816411	-0.7139518633	 0.110049
H	 0.2043338561	-3.0390202634	 1.0034963576	 0.11662
H	-0.6592195218	-3.9867584442	-0.2143751858	 0.132496
H	-2.3099711583	-2.9474666077	 1.9636735306	 0.107475
H	-3.4821214677	-1.9558949046	 1.0891303106	 0.102223
H	-3.4610687208	-3.6951897662	-0.4877853672	 0.27904
77.4603	103.2392	143.501	158.1178	207.3248	239.0835	250.5061	288.1725	311.4386	320.9813	343.9516	388.2696	405.948	425.7511	471.3851	642.2564	686.8856	743.8058	791.8418	895.1891	906.5492	933.4764	962.9611	968.4731	993.583	1038.5097	1052.9037	1055.8793	1089.5394	1107.0998	1157.2691	1199.9339	1225.3749	1305.2904	1307.99	1310.8603	1351.1673	1380.2142	1404.1163	1406.4012	1415.5084	1422.3582	1473.7217	1483.7588	1491.4648	1500.6951	1509.9342	1511.2484	1513.5532	3030.6744	3032.1377	3035.9957	3039.7979	3082.029	3083.6163	3098.2324	3104.8115	3108.9308	3113.831	3121.1196	3201.6996	3804.5705	3808.1393
CCC1(O)CC1(C)CO	CC[C@@]1(O)C[C@]1(C)CO	
InChI=1S/C7H14O2/c1-3-7(9)4-6(7,2)5-8/h8-9H,3-5H2,1-2H3	InChI=1S/C7H14O2/c1-3-7(9)4-6(7,2)5-8/h8-9H,3-5H2,1-2H3/t6-,7-/m1/s1
