19
gdb 50695	3.07887	1.25855	0.99375	3.2151	75.39	-0.2457	-0.0247	0.221	1199.5222	0.160189	-423.034576	-423.026445	-423.025501	-423.067962	30.599	
O	-0.0209851372	-0.0452786171	-0.0174119659	-0.248953
C	 0.0309212543	 1.1531866812	 0.0859974371	 0.142075
C	 1.310895138	 1.9701762333	 0.0431627362	-0.088123
C	 1.3662433454	 2.7871447193	-1.2675233568	-0.225599
C	 2.5552293721	 3.7552659618	-1.2559284871	-0.214089
C	 2.4363481425	 4.8113224173	-0.1443986885	-0.224173
C	 1.9323003643	 4.2405918311	 1.1685046066	 0.043478
O	 0.5180422943	 4.0078603401	 1.2599569315	-0.255904
C	 1.3897556583	 2.8732212163	 1.2632809183	 0.02916
H	-0.891576615	 1.7646964682	 0.2084459017	 0.092562
H	 2.1477091522	 1.2622834422	 0.0737155707	 0.094452
H	 1.4425681792	 2.0954572925	-2.1120293619	 0.112589
H	 0.4311792979	 3.3465333487	-1.38845376	 0.117322
H	 3.4777005674	 3.1779325704	-1.1130856395	 0.102912
H	 2.6458777585	 4.2506634225	-2.2280218766	 0.102675
H	 3.407556837	 5.2892893092	 0.0224141984	 0.104058
H	 1.7451511512	 5.6071888866	-0.4472690631	 0.120204
H	 2.3502870618	 4.6783826309	 2.0751380058	 0.096549
H	 1.4463584179	 2.3567268856	 2.2227412432	 0.098805
54.5971	87.882	191.0227	248.2229	305.0916	336.8944	408.6077	440.2489	463.8505	615.3442	663.2006	779.3216	800.2727	849.9525	875.0478	904.1397	936.2627	977.7407	1001.7908	1045.4698	1056.4548	1085.1226	1100.9747	1150.47	1165.9053	1188.7167	1222.3509	1274.8261	1286.5962	1292.1657	1341.9011	1357.8718	1374.746	1381.9729	1398.6847	1421.5036	1458.9546	1479.2807	1486.8237	1496.8924	1830.4985	2881.6293	3025.03	3034.0858	3039.7938	3048.1183	3070.8638	3080.7939	3089.6786	3095.7324	3111.6176
O=CC1CCCC2OC12	O=C[C@H]1CCC[C@H]2O[C@@H]12	
InChI=1S/C7H10O2/c8-4-5-2-1-3-6-7(5)9-6/h4-7H,1-3H2	InChI=1S/C7H10O2/c8-4-5-2-1-3-6-7(5)9-6/h4-7H,1-3H2/t5-,6-,7+/m1/s1
