19
gdb 102250	1.83069	1.28897	0.88586	1.906	78.66	-0.2693	0.0129	0.2821	1395.9234	0.154965	-423.03564	-423.024906	-423.023962	-423.073027	37.183	
C	-0.2962307572	 1.4133703916	 0.6188473316	-0.395149
C	-0.0919034507	-0.0544044517	 0.2399851047	-0.184169
C	 0.6290318042	-0.2303045173	-1.1021503227	-0.063391
O	 1.9523550681	 0.3478860122	-0.9608219284	-0.249572
C	 2.4836390231	 0.9350024047	-2.0622998189	 0.439282
C	 3.8756018447	 1.436544664	-1.764356876	-0.482136
O	 1.9139751995	 1.0314948375	-3.1177359516	-0.346054
C	 0.7433108873	-1.6334240862	-1.4916919034	 0.339443
C	 0.8164673514	-2.7946502185	-1.790322275	-0.451605
H	 0.6619791236	 1.9311974692	 0.7116006815	 0.128364
H	-0.8930885352	 1.9389351491	-0.1345757135	 0.120928
H	-0.8190478911	 1.4951825818	 1.575977812	 0.117911
H	 0.4832583769	-0.5769351767	 1.0117613163	 0.117966
H	-1.0557217266	-0.5684687633	 0.161487265	 0.116086
H	 0.1104705937	 0.3216893491	-1.8927018634	 0.137681
H	 3.8742936712	 2.0574761428	-0.8649107098	 0.148096
H	 4.5369767878	 0.5862673018	-1.5722564636	 0.155295
H	 4.2462091482	 2.0043045241	-2.6168612157	 0.149189
H	 0.8834856512	-3.8170666342	-2.0700919991	 0.201836
26.7333	62.2036	89.558	103.7079	136.6368	177.0181	245.7174	256.1823	300.6734	384.6113	432.7662	519.1099	553.8355	607.6206	624.6917	648.0767	675.0093	769.0506	880.0956	899.7958	971.0435	998.1387	1027.2195	1059.9614	1063.8155	1114.4774	1156.7805	1248.9331	1284.2521	1315.0571	1362.5211	1389.6112	1396.3563	1410.7323	1468.9096	1475.7133	1478.4715	1497.769	1509.1226	1830.1387	2240.754	3040.2927	3048.0119	3057.763	3065.2897	3087.627	3109.6266	3123.4905	3123.7618	3169.8152	3503.4079
CCC(OC(C)=O)C#C	CC[C@@H](OC(=O)C)C#C	
InChI=1S/C7H10O2/c1-4-7(5-2)9-6(3)8/h1,7H,5H2,2-3H3	InChI=1S/C7H10O2/c1-4-7(5-2)9-6(3)8/h1,7H,5H2,2-3H3/t7-/m0/s1
