20
gdb 31709	4.61838	0.84789	0.77279	1.4314	84.78	-0.1754	0.0439	0.2193	1557.219	0.170874	-403.177017	-403.167366	-403.166422	-403.212367	34.864	
C	-0.0800821222	 1.5898188943	-0.1262384588	-0.363828
C	-0.0300773585	 0.0775470965	 0.1483628889	-0.299631
C	-1.3717600008	-0.587067336	 0.060980301	 0.293393
C	-2.0629619679	-1.1684731953	 1.0718840403	-0.145669
O	-3.2662145329	-1.6620648121	 0.6144497197	-0.184624
C	-3.326208611	-1.3793368807	-0.708052332	 0.44596
N	-4.4290411894	-1.8679244434	-1.3846191135	-0.385109
C	-5.7160434512	-1.9049621871	-0.6963810455	-0.32885
C	-2.2033529988	-0.7157821167	-1.1112569733	-0.422819
H	 0.9191766048	 2.0326007917	-0.0641275734	 0.108132
H	-0.4789342232	 1.7975659912	-1.1241932589	 0.117008
H	-0.7246600877	 2.0957251824	 0.5992353193	 0.118867
H	 0.6591157694	-0.3920332952	-0.5658127093	 0.104683
H	 0.3943871135	-0.0985489152	 1.1433544162	 0.09962
H	-1.8732450784	-1.3105887316	 2.1221230312	 0.123163
H	-4.4852835889	-1.4849358083	-2.3171509799	 0.241816
H	-5.6300407379	-2.5234746241	 0.1987960487	 0.151671
H	-6.0827822062	-0.9125626984	-0.3928670524	 0.113811
H	-6.4524311538	-2.3648020382	-1.3594872842	 0.123317
H	-1.9878057688	-0.3651754639	-2.1085177541	 0.08909
46.6765	65.7725	115.4142	164.4881	175.4214	225.4835	287.1187	319.3973	428.7813	459.4484	551.3756	624.0229	647.5663	689.1984	708.299	740.0565	754.0215	790.6272	948.3855	958.187	1008.6381	1058.2761	1065.0491	1089.1601	1125.2056	1151.5993	1157.19	1201.1003	1245.0448	1286.2528	1339.9213	1360.1364	1405.6265	1414.836	1449.1543	1482.5119	1488.5358	1490.7955	1496.3459	1506.9487	1516.2165	1621.4776	1662.3313	2988.0687	3018.3266	3035.2908	3058.7288	3095.1088	3105.5428	3110.2957	3138.6265	3248.2334	3282.162	3602.3184
CCC1=COC(NC)=C1	CCc1coc(NC)c1	
InChI=1S/C7H11NO/c1-3-6-4-7(8-2)9-5-6/h4-5,8H,3H2,1-2H3	InChI=1S/C7H11NO/c1-3-6-4-7(8-2)9-5-6/h4-5,8H,3H2,1-2H3
