19
gdb 74410	2.92325	1.55314	1.3026	1.662	79.9	-0.2167	-0.0015	0.2152	1047.1963	0.159674	-385.884616	-385.876829	-385.875884	-385.916215	32.131	
C	-0.0367756432	 1.5036507475	 0.0484462607	-0.509369
C	-0.0527725177	 0.0155377683	-0.0354249289	 0.363364
C	-0.0723116337	-0.7925264456	-1.0966212322	-0.291133
C	 0.0115816082	-2.2456840921	-0.5790832212	 0.365046
O	-0.2899926332	-3.2752089876	-1.4808087848	-0.512486
C	-0.8482748347	-2.0775407309	 0.7140001101	-0.252831
C	 0.0511754589	-0.9044862515	 1.2083427853	-0.171791
C	 1.4139587689	-1.6267565549	 1.151270737	-0.092914
C	 1.3876211241	-2.4222776159	 0.0835643415	-0.084638
H	 0.8938990203	 1.8616629964	 0.5091260884	 0.127683
H	-0.1242436004	 1.9660100323	-0.9387560389	 0.124619
H	-0.8561470594	 1.8783290064	 0.6754480011	 0.124501
H	-0.0613080924	-0.529213274	-2.1471483484	 0.093811
H	-1.1370992606	-3.0707619649	-1.8899792863	 0.275293
H	-1.8804603204	-1.7771872795	 0.5072742714	 0.082057
H	-0.8174238892	-2.957164567	 1.361936397	 0.097713
H	-0.2004656162	-0.4336075981	 2.1592207404	 0.058581
H	 2.2308684311	-1.4510248604	 1.8379402405	 0.098048
H	 2.1613635796	-3.0578609386	-0.3246649028	 0.104446
156.8513	187.9693	248.7522	287.6033	332.2197	371.7905	459.5068	473.3963	536.1772	555.9401	608.3993	635.7852	721.6255	749.9411	807.1882	810.3132	872.0773	902.9144	918.2791	931.4079	954.4035	1002.4357	1051.0955	1060.7181	1067.013	1077.5894	1120.9616	1128.9775	1196.1306	1233.0129	1260.9186	1266.5408	1276.6941	1320.8066	1378.4926	1412.067	1478.2712	1484.8851	1492.3673	1637.7588	1703.8173	3010.7473	3047.0996	3055.4378	3106.1075	3107.4415	3114.7435	3206.0957	3212.7404	3240.1868	3814.9462
CC1=CC2(O)CC1C=C2	CC1=C[C@]2(O)C[C@H]1C=C2	
InChI=1S/C8H10O/c1-6-4-8(9)3-2-7(6)5-8/h2-4,7,9H,5H2,1H3	InChI=1S/C8H10O/c1-6-4-8(9)3-2-7(6)5-8/h2-4,7,9H,5H2,1H3/t7-,8+/m1/s1
