18
gdb 44639	2.87219	1.66518	1.46787	2.1889	74.36	-0.2256	-0.0301	0.1954	958.8424	0.148648	-401.894594	-401.887432	-401.886488	-401.926851	28.39	
O	 0.1759249473	-0.0311700203	-0.5399375084	-0.284734
C	 0.0663524649	 1.115115901	-0.223776449	 0.383145
C	-1.1109876891	 2.0551285213	 0.1277897955	-0.308421
N	-0.1428313305	 3.1616510252	 0.3851454905	-0.139688
C	 0.4161229245	 3.3179911533	 1.7777327652	 0.014111
C	 0.0736632879	 2.2876531411	 2.8895359538	-0.241162
C	 1.3250240363	 1.438790582	 2.4970648451	-0.249245
C	 1.6862456445	 2.4840511872	 1.4057971726	-0.037252
C	 1.0358843329	 2.2939079255	 0.0090230358	-0.116973
H	-1.7594046387	 2.2723692427	-0.7290147311	 0.137135
H	-1.7462955578	 1.7431806237	 0.9622825994	 0.132406
H	 0.4433588964	 4.3658245888	 2.0823422443	 0.082743
H	 0.1551388633	 2.7324118735	 3.8843267061	 0.11004
H	-0.8976723254	 1.7913566542	 2.8324349833	 0.107872
H	 2.0693512897	 1.3713002616	 3.2930534247	 0.107056
H	 1.1288508306	 0.4283749593	 2.1311212451	 0.124601
H	 2.6975871422	 2.8892488318	 1.4067127398	 0.077842
H	 1.6315466511	 2.5914959482	-0.8603600526	 0.100524
38.1065	137.7792	308.7987	329.2801	405.1765	444.698	539.9086	609.2267	677.8145	714.0002	726.9346	819.5748	836.6147	862.6134	879.693	906.0941	947.1447	968.0934	998.2839	1020.5673	1037.4369	1080.8385	1093.6477	1139.0445	1154.104	1181.158	1191.0173	1210.5832	1232.2712	1248.4225	1251.308	1274.9221	1287.8021	1312.1097	1317.7689	1445.2388	1481.0259	1498.6237	1894.7197	3038.1336	3052.8275	3065.551	3070.7828	3083.3516	3089.4291	3106.2775	3112.9305	3127.2783
O=C1CN2C3CCC3C12	O=C1CN2[C@H]3CC[C@H]3[C@@H]12	
InChI=1S/C7H9NO/c9-6-3-8-5-2-1-4(5)7(6)8/h4-5,7H,1-3H2	InChI=1S/C7H9NO/c9-6-3-8-5-2-1-4(5)7(6)8/h4-5,7H,1-3H2/t4-,5+,7+/m1/s1
