17
gdb 17725	4.48832	2.54377	2.05572	1.541	71.33	-0.2163	0.0838	0.3001	706.0724	0.145269	-326.618617	-326.613185	-326.61224	-326.647687	23.444	
C	-0.0856586113	 1.5843926291	 0.0096998509	-0.361209
C	 1.4518164539	 1.2828924529	-0.0324998076	-0.096961
C	 1.3066912597	 0.1282361131	 0.9890127731	-0.007164
N	 1.8935652532	-0.977097237	 0.1453635462	-0.164964
C	 0.8692208883	-2.0687189271	 0.286464525	-0.156193
C	-0.5560919905	-1.3518079592	 0.287349084	-0.375215
C	 0.0051189346	 0.0421653704	 0.1404727175	 0.32172
C	 1.2259481251	-0.0300556807	-0.8217557378	-0.007163
H	-0.4523088072	 2.1357582906	 0.8806337894	 0.100814
H	-0.5320497786	 1.979419163	-0.9077158544	 0.100814
H	 2.2763213984	 1.9882460646	-0.1309244638	 0.080454
H	 1.3882655842	 0.1571539468	 2.0776466032	 0.073339
H	 0.9724397815	-2.7695069404	-0.5465655313	 0.106067
H	 1.0510243492	-2.6154434588	 1.2158389378	 0.106067
H	-1.1830590876	-1.6735758259	-0.5487155406	 0.103128
H	-1.1042576513	-1.5190937546	 1.2185613667	 0.103127
H	 1.2108125983	-0.1907189868	-1.9018357883	 0.073339
258.1899	360.4555	414.4076	439.2386	674.2198	745.7347	760.1702	799.5769	828.0356	848.056	858.2007	864.4273	891.254	895.8311	932.4393	972.9457	1003.1093	1021.3027	1035.6979	1069.7737	1105.998	1125.4468	1145.8548	1159.3825	1183.3746	1194.4398	1215.9361	1220.4976	1242.7648	1261.2799	1289.3194	1326.6322	1331.447	1488.8526	1509.0499	1510.3857	3045.5956	3054.0604	3062.8529	3089.0823	3092.9387	3095.3288	3104.4039	3114.7248	3122.8518
C1C2C3N4CCC13C24	C1[C@H]2[C@@H]3N4CC[C@@]13[C@@H]24	
InChI=1S/C7H9N/c1-2-8-5-4-3-7(1,5)6(4)8/h4-6H,1-3H2	InChI=1S/C7H9N/c1-2-8-5-4-3-7(1,5)6(4)8/h4-6H,1-3H2/t4-,5-,6+,7+
