21
gdb 121632	3.04999	0.8344	0.7337	3.9078	76.46	-0.2605	-0.0272	0.2333	1622.8322	0.178789	-461.372423	-461.361535	-461.360591	-461.409512	38.26	
C	-0.4424305044	 0.7498964298	-0.3715949924	-0.390405
C	-0.1602842225	-0.6771134487	 0.0920880843	-0.042541
O	 0.2957827879	-1.5364799183	-0.9443830405	-0.242199
C	 1.6250950099	-1.3188366588	-1.3462507949	-0.163263
C	 2.0863461178	-2.4038687573	-2.3086527385	 0.329328
O	 3.2671270125	-2.526945158	-2.5583726653	-0.331837
C	 1.0667021847	-3.3191800363	-2.9793581735	 0.069156
C	 0.1516589669	-2.516139292	-3.9219931658	-0.408645
O	 1.7404782605	-4.3345796626	-3.6771973729	-0.443
H	 0.465972277	 1.2627293682	-0.7017565814	 0.124589
H	-1.1594045889	 0.7503519158	-1.1978456106	 0.131249
H	-0.8672884177	 1.33053546	 0.4534441077	 0.123792
H	 0.5676490069	-0.6754068868	 0.9188303173	 0.095825
H	-1.0795685058	-1.1407891086	 0.4623415398	 0.116295
H	 1.7552678207	-0.3513651267	-1.8587432994	 0.127265
H	 2.3161186616	-1.3211864931	-0.488784829	 0.127187
H	 0.446702469	-3.7580296735	-2.1845176959	 0.104688
H	 0.7455595954	-2.0063075008	-4.6872000729	 0.119799
H	-0.5251743483	-3.2105738255	-4.4255097596	 0.133599
H	-0.438136285	-1.7841914987	-3.3662419026	 0.129113
H	 2.6790238917	-4.089412488	-3.6459545138	 0.290005
37.7291	68.5813	85.1667	123.2933	143.6494	217.8241	232.7742	253.8832	320.0619	345.9159	400.752	426.8656	446.1091	486.966	595.9498	665.7823	761.5507	804.4276	889.7171	919.7051	951.1311	1028.8871	1056.752	1091.0467	1104.2328	1129.179	1161.3018	1196.2249	1207.2299	1245.3933	1290.1695	1324.3716	1345.5763	1384.8171	1388.5119	1403.325	1416.8176	1438.5377	1479.8853	1488.9413	1490.5824	1497.7523	1499.8045	1513.2656	1792.6223	2971.7041	2985.9238	3008.1475	3010.6478	3041.8777	3046.249	3079.3143	3112.6478	3120.6088	3121.4761	3142.4486	3685.0872
CCOCC(=O)C(C)O	CCOCC(=O)[C@@H](C)O	
InChI=1S/C6H12O3/c1-3-9-4-6(8)5(2)7/h5,7H,3-4H2,1-2H3	InChI=1S/C6H12O3/c1-3-9-4-6(8)5(2)7/h5,7H,3-4H2,1-2H3/t5-/m1/s1
