21
gdb 86015	2.78161	1.14885	1.08258	0.6493	90.54	-0.2427	0.015	0.2577	1276.793	0.180987	-349.940977	-349.931476	-349.930532	-349.974884	36.749	
C	-0.025908413	 1.6325720993	 0.011230707	-0.398509
C	 0.0298740506	 0.1012218965	 0.031724131	-0.014455
C	 0.7804377855	-0.5135288453	-1.1758740428	-0.257989
C	 1.5157239417	-1.788125052	-0.6421387349	 0.074207
C	 2.9132800935	-1.9660529498	-1.2709568306	-0.43138
C	 1.5759617868	-1.4930123866	 0.855582578	-0.103613
C	 0.7828192014	-0.4855705878	 1.205935181	-0.071573
C	 0.7201550901	-3.0009089166	-0.8711986057	 0.349502
C	 0.0756825403	-3.9995557338	-1.0571992713	-0.519802
H	 0.9827189597	 2.0606426278	 0.0048324139	 0.114697
H	-0.5518443632	 1.99514351	-0.8782658392	 0.114914
H	-0.55084528	 2.0227473511	 0.8897476008	 0.112581
H	-1.0042477537	-0.2742239713	 0.0562600097	 0.088293
H	 0.1279159534	-0.7385497719	-2.0219862481	 0.105478
H	 1.5405764458	 0.1971025924	-1.5204564703	 0.096002
H	 3.5305023171	-1.0858215672	-1.0662758787	 0.114162
H	 3.4164896075	-2.8467683588	-0.8614545984	 0.122369
H	 2.8363489552	-2.0958781273	-2.3546492182	 0.123462
H	 2.1777601053	-2.0992310523	 1.5235005292	 0.097036
H	 0.6438379044	-0.1258673282	 2.2206218108	 0.092566
H	-0.4978451886	-4.8786125882	-1.2173443733	 0.192053
61.255	138.5707	172.321	224.7448	235.1456	256.0809	284.8148	349.1768	385.9215	467.6253	496.3028	562.0091	611.6717	617.1097	624.6213	672.3498	787.6928	791.9054	850.7519	880.2783	918.9834	946.8135	959.5021	974.4602	1043.0155	1075.2451	1094.2877	1135.1155	1160.4754	1172.0871	1204.4267	1258.5013	1297.9314	1320.0878	1339.5344	1378.5854	1405.2097	1409.8052	1483.115	1489.3434	1496.5214	1497.6409	1498.9737	1686.9617	2224.517	2987.7936	3026.5477	3034.8817	3040.673	3096.3051	3097.9877	3109.1899	3112.9293	3114.2741	3175.4723	3204.1112	3502.3202
CC1CC(C)(C=C1)C#C	C[C@H]1C[C@@](C)(C=C1)C#C	
InChI=1S/C9H12/c1-4-9(3)6-5-8(2)7-9/h1,5-6,8H,7H2,2-3H3	InChI=1S/C9H12/c1-4-9(3)6-5-8(2)7-9/h1,5-6,8H,7H2,2-3H3/t8-,9-/m1/s1
