17
gdb 15624	3.44386	1.7577	1.2744	2.8951	73.09	-0.2417	-0.0228	0.2188	977.1992	0.143267	-363.897892	-363.890221	-363.889277	-363.930059	28.372	
C	-0.2011931251	 1.5328763353	-0.0418600527	-0.379154
C	 0.079789588	 0.0209668618	 0.02595965	-0.291327
C	 0.7748644322	-0.494836008	-1.1950292391	 0.278776
C	 2.0270460472	-0.9330442848	-1.3545740173	-0.222504
C	 2.2446332567	-1.3368062412	-2.7813280448	-0.135536
O	 0.9908012434	-1.0877719826	-3.4239919304	-0.244475
C	 0.0986413514	-0.594160359	-2.5059095762	 0.349306
N	-1.1053723264	-0.2862516113	-2.754246184	-0.549929
H	 0.7301527689	 2.1020739203	-0.1255605889	 0.111408
H	-0.8271599766	 1.7627256235	-0.9067866413	 0.15278
H	-0.722247754	 1.8643539576	 0.8612320219	 0.112545
H	 0.6817227976	-0.211288268	 0.9110074142	 0.098688
H	-0.8740035026	-0.5088177339	 0.1297642347	 0.127632
H	 2.7962635565	-1.0052410354	-0.5964272204	 0.1147
H	 3.0267061481	-0.7501763273	-3.2822212623	 0.127412
H	 2.5000564923	-2.3991374044	-2.8947944911	 0.127474
H	-1.3280314375	-0.4575010826	-3.7356197124	 0.222202
78.1872	147.5059	196.7561	209.5458	288.5298	321.007	451.7129	484.0849	610.5884	743.8546	763.6636	790.9185	814.9259	836.3777	872.1332	952.4473	957.6486	1002.6201	1031.9127	1075.5366	1095.6696	1098.2833	1196.6493	1197.9524	1247.0576	1290.737	1354.3492	1366.9316	1399.5438	1405.8535	1477.5905	1496.7817	1503.2179	1512.2638	1707.0011	1751.7734	3010.4243	3037.7577	3038.0635	3041.6857	3078.6209	3109.1893	3136.7224	3220.3059	3482.4919
CCC1=CCOC1=N	CCC1=C(OC[CH]1)[NH]	
InChI=1S/C6H9NO/c1-2-5-3-4-8-6(5)7/h3,7H,2,4H2,1H3	InChI=1S/C6H9NO/c1-2-5-3-4-8-6(5)7/h3,7H,2,4H2,1H3
