16
gdb 22875	3.1894	1.2398	0.94224	3.0375	78.84	-0.242	-0.0698	0.1722	1214.3833	0.123608	-437.87701	-437.868613	-437.867669	-437.910269	31.071	
C	-0.1105758626	 1.5628172792	 0.0310227565	-0.393189
C	 0.0357842117	 0.0339578756	-0.0122531706	-0.156722
C	 0.8265379044	-0.5077232235	-1.1763442004	-0.082021
C	 1.8765037391	-1.2570537551	-0.8020575203	-0.158998
C	 1.9501938006	-1.3324446326	 0.6533230199	 0.263438
N	 2.7637629961	-1.9414105649	 1.4368487611	-0.200553
O	 3.7273609597	-2.6444683014	 0.7277311752	-0.36974
C	 0.8149420666	-0.5063250942	 1.2052801211	 0.339358
O	 0.5604025834	-0.2816630393	 2.3597911304	-0.30991
H	 0.8671364675	 2.0518061888	-0.0197054232	 0.125867
H	-0.7157329444	 1.9226148852	-0.8062879468	 0.118773
H	-0.5938106702	 1.8591186151	 0.9654961603	 0.145304
H	-0.9699253428	-0.41003309	 0.011278149	 0.117638
H	 0.5564175763	-0.2955196507	-2.2051143707	 0.114209
H	 2.5815907102	-1.7481952363	-1.4571878129	 0.129176
H	 4.2559494543	-3.0426788259	 1.4291336716	 0.317368
56.4627	184.5734	205.1256	219.9492	237.7206	254.9625	361.0046	384.7325	486.625	539.4285	613.2183	645.9755	719.5529	744.1275	794.3248	835.6587	897.7568	940.2567	989.7643	1029.685	1074.7863	1092.6804	1103.5526	1140.8693	1245.9015	1278.2922	1303.1331	1365.0682	1401.9831	1415.9343	1494.559	1500.2592	1632.345	1692.9554	1843.6937	3009.317	3041.5744	3112.4486	3127.0223	3192.4111	3244.2647	3803.541
CC1C=CC(=NO)C1=O	C[C@H]1C=CC(=NO)C1=O	
InChI=1S/C6H7NO2/c1-4-2-3-5(7-9)6(4)8/h2-4,9H,1H3	InChI=1S/C6H7NO2/c1-4-2-3-5(7-9)6(4)8/h2-4,9H,1H3/t4-/m0/s1
