25
gdb 108615	2.63133	1.13552	0.85914	0.1781	96.94	-0.2148	0.0364	0.2512	1481.2357	0.228585	-352.39349	-352.38305	-352.382105	-352.428869	39.148	
C	 0.2444449294	 1.5859518944	-0.2038661383	-0.370087
C	-0.0381716871	 0.0865759269	 0.0063555272	-0.291498
C	 0.6269540488	-0.4830623126	 1.2267718821	 0.219803
C	 0.0527882664	-0.94301059	 2.3484384551	 0.224409
C	-1.4069306233	-0.9845948806	 2.6863712956	-0.504803
C	 1.0911241523	-1.3875996607	 3.3719831108	-0.042309
C	 0.7714627734	-2.6955842889	 4.1053639791	-0.40082
C	 2.3908518219	-1.4562000064	 2.5352295036	-0.219045
C	 2.1406857292	-0.539956867	 1.3203520327	-0.299727
H	 1.316354482	 1.7806712358	-0.3084126891	 0.119253
H	-0.2499695659	 1.9524013994	-1.1090460781	 0.110149
H	-0.1197044957	 2.174961818	 0.6440693155	 0.116895
H	-1.1204265649	-0.07201483	 0.051026721	 0.097053
H	 0.3141856602	-0.4611025622	-0.8797169068	 0.098308
H	-2.0331659598	-0.5706823926	 1.8927641816	 0.119998
H	-1.7479662873	-2.0090070433	 2.8802394811	 0.124962
H	-1.6115352647	-0.4137882853	 3.602446413	 0.120276
H	 1.1824611507	-0.5961900123	 4.1349415778	 0.068295
H	 0.6290155229	-3.5178284783	 3.3945092884	 0.111277
H	 1.5915337722	-2.9729115087	 4.7764633798	 0.110652
H	-0.136201872	-2.6133162327	 4.7118977706	 0.110402
H	 3.2809351859	-1.1827153255	 3.1090792692	 0.08938
H	 2.5331731162	-2.4873477799	 2.1904384231	 0.095465
H	 2.6071631898	-0.9163985409	 0.4011198324	 0.091999
H	 2.5567486893	 0.4653778536	 1.4810006226	 0.09971
56.1984	92.8687	135.0124	170.9468	210.3148	220.2901	242.0803	271.9354	310.7545	323.3394	410.6618	508.5675	522.8994	576.8814	636.3298	681.7596	785.1547	821.1672	875.7969	909.0906	959.6465	966.5231	999.3205	1007.5725	1027.8231	1056.7695	1072.0802	1091.7107	1120.0236	1140.0521	1187.9516	1206.1477	1235.502	1261.9716	1297.0944	1312.8376	1326.1229	1340.316	1356.3045	1366.2828	1404.1382	1406.4843	1414.697	1478.4919	1482.0994	1485.5445	1490.9677	1497.5114	1499.4395	1501.9386	1505.0548	1509.4893	1730.2184	2954.9687	2997.1057	3004.1814	3014.4654	3025.0803	3028.7605	3035.1919	3043.5817	3058.2234	3066.7869	3086.7643	3093.3612	3097.9819	3104.7502	3108.4446	3117.3128
CCC1=C(C)C(C)CC1	CCC1=C(C)[C@@H](C)CC1	
InChI=1S/C9H16/c1-4-9-6-5-7(2)8(9)3/h7H,4-6H2,1-3H3	InChI=1S/C9H16/c1-4-9-6-5-7(2)8(9)3/h7H,4-6H2,1-3H3/t7-/m0/s1
