18
gdb 95731	3.02887	1.24803	0.95136	3.1045	68.32	-0.2306	0.0042	0.2348	1202.8305	0.149048	-476.238132	-476.229745	-476.228801	-476.271202	31.829	
O	-0.3496910406	 1.5137418493	-0.4169823931	-0.418464
C	 0.0079980656	 0.1888138208	-0.0532202071	 0.079314
C	-1.2458249058	-0.4188622084	 0.589516452	-0.171279
N	-1.1564663073	-1.8136987815	 0.9843939745	-0.283606
C	-0.8845483878	-2.781809813	-0.0683623182	-0.291054
C	 0.5776044108	-2.8909819984	-0.5212735585	 0.389006
O	 1.2163860651	-3.9024427836	-0.4160483961	-0.314713
O	 1.1902601729	-1.7813418882	-1.0126635234	-0.219929
C	 0.4662651431	-0.5812901644	-1.3004213934	-0.100126
H	 0.4466463781	 1.990444814	-0.6721728672	 0.29074
H	 0.8360519476	 0.1783453714	 0.674084144	 0.078835
H	-1.5123543624	 0.1776975639	 1.4672114034	 0.118123
H	-2.0708046679	-0.3104044992	-0.1273767776	 0.117154
H	-0.5235251956	-1.9423768493	 1.7654934252	 0.23045
H	-1.1495046568	-3.7841073877	 0.2767532629	 0.136816
H	-1.5276165194	-2.5487209549	-0.9260637269	 0.126602
H	-0.3852842698	-0.7813142061	-1.9621472509	 0.118218
H	 1.1781512803	 0.0340723554	-1.8580732596	 0.113913
73.0513	136.5715	240.7933	277.1134	287.2464	322.6743	328.0604	369.8257	449.1432	480.7755	523.3119	598.0724	701.2369	728.5051	812.3905	892.755	900.4692	965.4325	1018.7888	1062.7066	1091.591	1096.5801	1113.7372	1182.4764	1198.533	1232.8992	1252.8493	1300.8474	1336.52	1349.1877	1357.118	1377.4402	1406.4242	1439.6796	1463.6465	1480.0878	1506.0034	1506.6943	1839.6439	2975.7197	3025.4861	3034.9613	3041.7535	3088.0449	3093.7905	3105.2226	3541.1262	3817.4531
OC1CNCC(=O)OC1	O[C@H]1CNCC(=O)OC1	
InChI=1S/C5H9NO3/c7-4-1-6-2-5(8)9-3-4/h4,6-7H,1-3H2	InChI=1S/C5H9NO3/c7-4-1-6-2-5(8)9-3-4/h4,6-7H,1-3H2/t4-/m0/s1
