16
gdb 99512	2.62319	1.14205	0.86221	3.0093	67.02	-0.2921	-0.0137	0.2784	1340.6513	0.121115	-475.039666	-475.029514	-475.028569	-475.076182	33.384	
C	 0.1807692805	 1.4338652014	-0.0165139935	-0.248764
O	-0.168447611	 0.0664925041	-0.1712125448	-0.210111
C	 0.4611547937	-0.5598287763	-1.2430105149	-0.11254
C	 1.9214773823	-0.7006841597	-1.0411376521	 0.269831
N	 3.0593371899	-0.7736526058	-0.8553675109	-0.321441
C	-0.1879722616	-1.9475107777	-1.4393684261	 0.432548
O	-1.0677633741	-2.3932113104	-0.7633725931	-0.326303
O	 0.3753295348	-2.5438023735	-2.4969838394	-0.227847
C	-0.118681738	-3.8593535258	-2.8014718161	-0.244547
H	 1.2490468144	 1.55657046	 0.2038001831	 0.139169
H	-0.0670538122	 2.0127700661	-0.9182730597	 0.116022
H	-0.4065275622	 1.8070996182	 0.8234328382	 0.147294
H	 0.3190246133	-0.00368235	-2.1857589522	 0.138823
H	 0.4543900471	-4.1953843363	-3.6645003574	 0.146132
H	 0.035520695	-4.5280683576	-1.9518039352	 0.153241
H	-1.1847387717	-3.8199237867	-3.0368460759	 0.148492
33.4819	89.3719	107.3184	115.2227	156.7858	173.6389	206.2583	269.7954	297.8674	364.4108	402.52	459.7421	607.0728	640.1151	795.0714	909.4476	947.7974	1006.9563	1046.8951	1163.6144	1178.9356	1184.5349	1204.5333	1219.9709	1241.5145	1310.1727	1349.8734	1474.0383	1480.8487	1483.1065	1489.4665	1495.1366	1507.1086	1865.4882	2355.0815	2965.2404	2995.285	3058.9132	3059.0183	3137.6521	3142.1792	3171.8304
COC(C#N)C(=O)OC	CO[C@@H](C#N)C(=O)OC	
InChI=1S/C5H7NO3/c1-8-4(3-6)5(7)9-2/h4H,1-2H3	InChI=1S/C5H7NO3/c1-8-4(3-6)5(7)9-2/h4H,1-2H3/t4-/m0/s1
