16
gdb 45439	2.65782	1.74936	1.7243	4.9505	63.76	-0.2377	0.0213	0.259	881.7403	0.127231	-475.052869	-475.045865	-475.044921	-475.084535	27.059	
O	 0.0083104379	-0.0385328423	 0.0042615796	-0.385462
C	-0.0179842758	 1.1711111527	 0.0104301719	 0.452187
N	-1.1331032942	 1.9640365482	 0.029304208	-0.319157
C	-0.8624174452	 3.3972908714	 0.0322864101	-0.081811
C	 0.0128993566	 3.6981056373	 1.2588600254	-0.051719
O	 1.2004666309	 2.9013505587	 1.1705965844	-0.263291
C	 1.2081420794	 2.1094010111	-0.001772263	 0.042194
O	 1.1688700843	 2.9123554819	-1.1659886558	-0.263292
C	-0.0206503071	 3.7096007196	-1.2147222259	-0.051728
H	-2.0584050438	 1.5643948437	 0.0397798545	 0.255911
H	-1.7926405572	 3.9664798761	 0.0475473092	 0.098117
H	 0.2968128898	 4.7576010851	 1.2799402667	 0.112943
H	-0.5157319582	 3.4527636594	 2.1873655256	 0.112207
H	 2.1380296829	 1.5450114874	-0.0170058914	 0.117754
H	-0.5742641885	 3.4726909799	-2.1307783346	 0.1122
H	 0.2626236382	 4.7693038498	-1.2337442246	 0.112949
69.6257	166.8493	327.7588	351.9817	398.034	401.4407	444.9302	568.8554	582.0132	660.3991	786.2122	843.7745	852.726	891.2052	919.7384	951.8863	979.8694	1023.0861	1069.9683	1089.8838	1093.8247	1151.896	1218.7665	1224.2203	1286.0552	1300.8778	1301.179	1342.8114	1360.799	1392.5741	1406.2545	1436.4004	1509.4711	1523.9362	1839.683	3019.0656	3023.5028	3062.9851	3067.6101	3115.164	3158.2778	3632.154
O=C1NC2COC1OC2	O=C1N[C@H]2CO[C@@H]1OC2	
InChI=1S/C5H7NO3/c7-4-5-8-1-3(6-4)2-9-5/h3,5H,1-2H2,(H,6,7)	InChI=1S/C5H7NO3/c7-4-5-8-1-3(6-4)2-9-5/h3,5H,1-2H2,(H,6,7)/t3-,5+
