18
gdb 50233	2.94275	1.57806	1.36974	1.8558	74.92	-0.2228	-0.0276	0.1952	988.4173	0.148369	-401.8778	-401.870463	-401.869519	-401.909755	28.759	
O	-0.8322881401	 0.9820774706	-0.8897852109	-0.248973
C	 0.0623060119	 0.964927479	-0.0802733714	 0.147899
C	 1.2112928132	 1.929426555	-0.0354323924	-0.113095
C	 1.2402277229	 3.152566226	-0.9870943196	-0.213776
N	 1.4445227871	 4.0845332875	 0.1767439981	-0.120413
C	 0.2543618255	 4.7623091977	 0.742977753	-0.00292
C	-1.0130283252	 3.962226103	 0.7142334907	-0.313589
C	 0.0285537696	 3.6303421416	 1.754823652	-0.093143
C	 1.271218937	 2.963055141	 1.1522341199	-0.000418
H	 0.0845113718	 0.1957508262	 0.7261336078	 0.079356
H	 2.1340476267	 1.3382077767	-0.0558630453	 0.102388
H	 2.0825811609	 3.1801817056	-1.6821800072	 0.10959
H	 0.3135569857	 3.3031820976	-1.5465460918	 0.128431
H	 0.2629058406	 5.8377767366	 0.8805524691	 0.097429
H	-1.8699613931	 4.4928977653	 1.1186445388	 0.117116
H	-1.2629351848	 3.283781451	-0.0921198401	 0.14589
H	-0.1789106488	 3.6880050252	 2.8158670393	 0.093584
H	 2.0845559891	 2.8156391544	 1.86807179	 0.084643
86.253	153.2528	184.2916	275.6277	341.5136	438.8637	547.9193	606.2058	685.2876	714.6298	755.0732	768.9901	858.7338	879.01	913.0136	937.1072	946.6848	986.904	1000.191	1022.8284	1052.2418	1064.8349	1093.2864	1101.235	1105.4066	1120.1595	1174.2531	1188.619	1194.8751	1214.0983	1278.6949	1297.1721	1316.1102	1348.3097	1355.7589	1424.2826	1489.6602	1515.8745	1814.8361	2864.7672	3045.3423	3061.0924	3066.1738	3113.4702	3138.8231	3168.8769	3190.7232	3225.0221
O=CC1CN2C3CC3C12	O=C[C@H]1CN2[C@H]3C[C@H]3[C@@H]12	
InChI=1S/C7H9NO/c9-3-4-2-8-6-1-5(6)7(4)8/h3-7H,1-2H2	InChI=1S/C7H9NO/c9-3-4-2-8-6-1-5(6)7(4)8/h3-7H,1-2H2/t4-,5-,6+,7-/m1/s1
