13
gdb 5024	3.3985	2.33434	1.39565	4.5175	61.61	-0.253	-0.044	0.2089	822.5041	0.096539	-398.652087	-398.645376	-398.644432	-398.68313	24.438	
C	-0.0305772906	 1.5111107244	 0.0006827694	-0.475344
C	-0.0073870589	 0.0143148369	-0.0274638146	 0.095516
C	-0.0422252216	-0.7000089107	-1.1618080269	-0.009375
O	-0.0206263394	-2.0627463745	-1.1803070239	-0.173582
C	 0.0388848325	-2.6782206149	 0.0235454981	 0.130583
N	 0.0768081489	-2.13157617	 1.1690057656	-0.298859
C	 0.0571020775	-0.7147062584	 1.2553614802	 0.340766
O	 0.0917936404	-0.1516675607	 2.3274230999	-0.332609
H	 0.8621237571	 1.8946093226	 0.504658684	 0.152963
H	-0.0814219578	 1.9348418733	-1.0057367405	 0.118091
H	-0.8878953988	 1.8658867665	 0.5812326413	 0.153057
H	-0.0900866168	-0.2921102022	-2.1641242339	 0.145535
H	 0.0512221376	-3.7570281623	-0.1064057387	 0.15326
102.7402	161.6298	273.1534	278.7773	409.5059	493.2542	504.2754	526.2009	605.9577	741.7346	813.6208	886.942	906.1273	973.6064	1005.2266	1022.0787	1066.6977	1097.3601	1192.6873	1328.5609	1389.4288	1414.2434	1419.4873	1467.6872	1484.0695	1638.2644	1715.9456	1787.1269	3042.6668	3104.1318	3123.9658	3184.0076	3214.4311
CC1=COC=NC1=O	Cc1cocnc1=O	
InChI=1S/C5H5NO2/c1-4-2-8-3-6-5(4)7/h2-3H,1H3	InChI=1S/C5H5NO2/c1-4-2-8-3-6-5(4)7/h2-3H,1H3
