15
gdb 80162	2.42103	1.68525	1.39212	4.8282	65.54	-0.2303	-0.0794	0.151	962.4214	0.112249	-457.779769	-457.772134	-457.77119	-457.812112	28.962	
O	 0.0744895096	 1.3033929738	 0.0782052523	-0.410304
C	-0.0060621968	-0.0854997138	-0.0050122872	 0.099393
C	-1.3617597455	-0.6860779191	 0.0349157787	-0.109709
C	-2.5307625086	 0.2740374601	-0.1524880655	-0.340089
C	-2.3289011269	 0.9239405907	-1.5186499117	 0.316784
O	-2.9399919843	 1.8389514077	-1.9945302843	-0.281177
C	-1.1867925016	 0.153411213	-2.2559176691	 0.327233
O	-0.9338066847	 0.2772595234	-3.4261142751	-0.303061
C	-0.5476181019	-0.7592704151	-1.2719158965	-0.234633
H	 0.8200931034	 1.6053010045	-0.4522623145	 0.303821
H	 0.7977541252	-0.6296798383	 0.4889549713	 0.10994
H	-1.5147739541	-1.5838776555	 0.6214739669	 0.10988
H	-3.4790155195	-0.2754922725	-0.1764538879	 0.140729
H	-2.6054090384	 1.0330146693	 0.6295787286	 0.152553
H	-0.0621226358	-1.6583666881	-1.6293316059	 0.11864
76.9739	118.8755	226.9411	318.1089	344.6429	365.3612	443.9871	496.9261	546.2233	622.1324	650.6201	700.4559	725.8583	770.1627	847.3695	944.4816	959.1395	968.454	998.9084	1059.3442	1086.2114	1114.5655	1171.5622	1203.2814	1219.6048	1260.2255	1293.3879	1318.63	1358.9694	1434.483	1462.2037	1833.2648	1861.5318	3051.8287	3111.7345	3114.7177	3183.9112	3200.36	3806.339
OC1C2CC(=O)C(=O)C12	O[C@H]1[C@H]2CC(=O)C(=O)[C@@H]12	
InChI=1S/C6H6O3/c7-3-1-2-4(5(2)8)6(3)9/h2,4-5,8H,1H2	InChI=1S/C6H6O3/c7-3-1-2-4(5(2)8)6(3)9/h2,4-5,8H,1H2/t2-,4+,5-/m0/s1
