20
gdb 22365	2.26189	1.36661	1.02231	1.061	78.35	-0.2422	0.0024	0.2446	1240.6828	0.169338	-440.261231	-440.251712	-440.250768	-440.295899	35.389	
C	 0.7495917547	 1.2884505128	 0.0385961166	-0.391908
C	-0.0917872614	 0.0138471787	-0.0305051922	 0.12012
C	 0.207062598	-0.8435835535	-1.2743259792	-0.341707
C	 1.1842051505	-1.8532139821	-0.7379075567	 0.36198
N	 2.016860011	-2.5828039453	-1.3603860978	-0.227167
O	 1.9373437095	-2.3841195731	-2.7498967969	-0.390305
C	 1.0633687163	-1.8947211222	 0.7735750233	 0.068437
C	 2.3918897381	-1.7649744249	 1.5164117362	-0.390729
O	 0.1620250867	-0.8350989224	 1.0983912195	-0.289473
H	 1.814461911	 1.0681412238	-0.0931315337	 0.120156
H	 0.4486598533	 1.9909757182	-0.7462307023	 0.113234
H	 0.6165611582	 1.7743663559	 1.0088410597	 0.126024
H	-1.1523349669	 0.2826801213	 0.0231004072	 0.082009
H	-0.6920927784	-1.355301233	-1.6375116417	 0.129467
H	 0.6238732686	-0.2814718127	-2.112624891	 0.134302
H	 2.6275132132	-2.9700503761	-3.0788269533	 0.307061
H	 0.5810101278	-2.835157663	 1.07793641	 0.098337
H	 2.9081314706	-0.8418712754	 1.2387981911	 0.117994
H	 2.2163352897	-1.7556914441	 2.5955147874	 0.121225
H	 3.0385015795	-2.6111816728	 1.2675748137	 0.130943
49.293	77.7139	176.966	205.2792	231.4694	253.4492	315.8009	349.7528	381.1995	410.1736	456.4959	509.9172	522.7887	687.6894	723.1155	796.2848	825.5089	876.6277	908.4686	953.3845	977.0403	1035.8526	1042.496	1085.1818	1110.7583	1118.7213	1137.674	1208.8893	1233.9172	1276.9842	1321.336	1353.5492	1371.2795	1384.4533	1397.1869	1405.3544	1408.6117	1467.6545	1483.0467	1489.0533	1492.3719	1496.1572	1763.1538	2991.9056	3032.3968	3037.1726	3045.1117	3050.2626	3102.3936	3111.8679	3120.1611	3124.4001	3126.1353	3816.6666
CC1CC(=NO)C(C)O1	C[C@H]1CC(=NO)[C@@H](C)O1	
InChI=1S/C6H11NO2/c1-4-3-6(7-8)5(2)9-4/h4-5,8H,3H2,1-2H3	InChI=1S/C6H11NO2/c1-4-3-6(7-8)5(2)9-4/h4-5,8H,3H2,1-2H3/t4-,5+/m0/s1
