21
gdb 62510	1.6291	1.60359	1.57543	1.4553	74.82	-0.2186	0.0543	0.273	1115.2961	0.177322	-461.349112	-461.338028	-461.337084	-461.383752	41.737	
C	-0.0858093414	 1.5458177582	-0.0504382344	-0.446272
C	 0.020617622	 0.0436412844	 0.0595671133	 0.245098
O	-1.179047902	-0.6289671656	-0.2692491767	-0.471884
C	 1.3231372497	-0.6912988705	-0.2367494727	 0.233622
C	 1.3344390043	-1.9727657674	-1.0382045219	-0.451137
O	 2.3938090208	 0.1759486928	-0.530592275	-0.458488
C	 0.7553247178	-0.6655001486	 1.1880289398	 0.317874
C	 1.463039483	 0.0847198167	 2.2893910205	-0.45687
O	 0.1539169828	-1.836104349	 1.6696594474	-0.477731
H	 0.8594908626	 2.0327332763	 0.1880698771	 0.140314
H	-0.3543049124	 1.8310128867	-1.0747640008	 0.109172
H	-0.8660108163	 1.9217729039	 0.6188207589	 0.121629
H	-1.2405151605	-0.705128318	-1.2274091181	 0.291438
H	 1.2751944751	-1.7605743648	-2.1116317709	 0.113957
H	 2.2705485903	-2.5154107695	-0.8602795676	 0.113267
H	 0.5168624262	-2.636451216	-0.7568554653	 0.126685
H	 3.19832241	-0.2236830654	-0.1807134475	 0.28372
H	 2.0664899734	 0.9048080471	 1.8980766034	 0.1247
H	 0.7423953619	 0.4862172562	 3.0087216429	 0.122809
H	 2.1217821656	-0.6035126707	 2.8299283447	 0.123332
H	-0.7020956729	-1.9012814368	 1.2241068528	 0.294765
138.1248	162.6151	173.8192	183.5163	204.9437	208.0188	258.7463	268.5951	278.2241	288.1792	312.0645	370.7551	424.6991	435.2178	465.0021	506.2289	510.9158	635.9908	671.1217	709.0554	720.7514	949.7229	958.066	987.9561	1064.9765	1075.0017	1087.2654	1141.6318	1165.9355	1182.1498	1240.7267	1249.2516	1282.2224	1335.9055	1379.5585	1405.0394	1409.8758	1420.5159	1448.7243	1480.3515	1487.0389	1490.0747	1494.4932	1497.2867	1517.2618	3029.0614	3032.2856	3040.8027	3082.1401	3092.1095	3098.8363	3141.6668	3149.4089	3155.7664	3742.8923	3787.5245	3805.3557
CC1(O)C(C)(O)C1(C)O	C[C@@]1(O)[C@@](C)(O)[C@]1(C)O	
InChI=1S/C6H12O3/c1-4(7)5(2,8)6(4,3)9/h7-9H,1-3H3	InChI=1S/C6H12O3/c1-4(7)5(2,8)6(4,3)9/h7-9H,1-3H3/t4-,5-,6-
