15
gdb 127768	3.50466	1.69011	1.14856	5.9906	74.16	-0.2099	0.0032	0.2131	1002.1297	0.115429	-412.988544	-412.981204	-412.980259	-413.020323	27.483	
C	-0.013066523	 1.4398941963	-0.0257939246	-0.350536
N	-0.0072898548	 0.0009809457	 0.0696287945	-0.116752
N	-0.0406352139	-0.7740628124	-1.082792563	-0.165548
N	-0.0262829648	-2.0288815443	-0.7550344995	-0.293799
C	 0.0171838552	-2.1203994481	 0.6069648921	 0.29499
C	 0.0292911781	-0.8332124143	 1.1252403561	 0.43395
N	 0.0712002574	-0.8778263428	 2.4851148192	-0.41808
C	 0.0868514749	-2.2360291546	 2.8384522862	-0.063703
C	 0.0545368839	-3.0245518039	 1.7173617081	-0.279084
H	 0.8953769975	 1.8691346131	 0.410395914	 0.13893
H	-0.0527918681	 1.6888915416	-1.0866733191	 0.173675
H	-0.8882948449	 1.8658532809	 0.4764427744	 0.138798
H	 0.090630405	-0.1094571784	 3.1301877241	 0.268455
H	 0.1203455448	-2.5104683636	 3.8809186318	 0.125973
H	 0.0575155927	-4.1023658249	 1.7059477456	 0.11273
117.1272	150.6934	239.3101	255.1283	264.5758	363.7765	527.7208	600.5918	622.9733	640.8261	705.9376	709.4666	781.4563	832.2263	833.7223	928.3155	951.9287	1049.6405	1102.3935	1152.6911	1158.922	1208.6421	1281.7986	1316.5627	1339.0807	1383.2988	1446.2059	1477.0927	1484.4898	1498.489	1512.9636	1557.9637	1666.4108	3031.3488	3089.1534	3154.6969	3256.6903	3275.6228	3697.416
CN1N=NC2=C1NC=C2	Cn1nnc2c1[nH]cc2	
InChI=1S/C5H6N4/c1-9-5-4(7-8-9)2-3-6-5/h2-3,6H,1H3	InChI=1S/C5H6N4/c1-9-5-4(7-8-9)2-3-6-5/h2-3,6H,1H3
