20
gdb 56911	2.95016	0.99448	0.88572	3.8915	80.47	-0.2827	0.0139	0.2966	1389.5929	0.168609	-403.150353	-403.140121	-403.139177	-403.185624	37.292	
C	 0.0433248282	 1.5457488505	-0.1799543786	-0.452811
C	 0.0095052135	 0.035874054	-0.0263642849	 0.319027
C	-1.235101297	-0.6081218396	-0.6107512388	-0.45106
C	 1.3050940546	-0.7366954413	-0.110849925	-0.327703
C	 0.5828846312	-0.6193062379	 1.2140830555	-0.052264
C	 1.1745392334	 0.1868050634	 2.3532194768	-0.041309
O	 0.1985525919	 0.8023249748	 3.1780504207	-0.410946
C	 2.0801654008	-0.6634221594	 3.1611197146	 0.263465
N	 2.7576743602	-1.3454260407	 3.8025400805	-0.320006
H	 0.9827886773	 1.9845066883	 0.1660724288	 0.114879
H	-0.0701186771	 1.8186356568	-1.2350510973	 0.117554
H	-0.7714082296	 2.0174761509	 0.3794981791	 0.130049
H	-1.3110688232	-0.4039194235	-1.6849130879	 0.120769
H	-1.2273845133	-1.6944341879	-0.4780490181	 0.115695
H	-2.1410166418	-0.2170311493	-0.1335305241	 0.120046
H	 1.3151588733	-1.7043184356	-0.6004991009	 0.118918
H	 2.2254594581	-0.1727428497	-0.2296117702	 0.116747
H	 0.0695725706	-1.5155947375	 1.5564727118	 0.091779
H	 1.772648014	 1.0129741986	 1.9579540406	 0.135138
H	-0.3609882251	 0.109870725	 3.5483868975	 0.292031
50.5818	98.8557	150.5615	168.0347	194.3312	232.5945	258.8574	306.6373	351.5726	358.3348	379.1827	413.6955	504.4081	537.7152	606.2841	712.2359	846.5065	866.56	910.8826	930.4202	973.8779	978.3931	1033.6837	1054.3636	1074.4181	1080.8402	1117.7502	1152.9983	1168.0979	1243.4015	1283.7674	1308.634	1338.9686	1414.4617	1415.7604	1426.5601	1430.2125	1480.9628	1491.8837	1494.4733	1501.8365	1515.1263	2353.0203	3024.3577	3033.5931	3077.6773	3086.6723	3094.1708	3101.3376	3112.1889	3126.9879	3128.1236	3212.254	3801.5689
CC1(C)CC1C(O)C#N	CC1(C)C[C@H]1[C@@H](O)C#N	
InChI=1S/C7H11NO/c1-7(2)3-5(7)6(9)4-8/h5-6,9H,3H2,1-2H3	InChI=1S/C7H11NO/c1-7(2)3-5(7)6(9)4-8/h5-6,9H,3H2,1-2H3/t5-,6-/m0/s1
