16
gdb 52746	2.90846	0.82795	0.66531	4.5599	84.1	-0.2664	0.0141	0.2805	1643.9523	0.120938	-363.56544	-363.555078	-363.554134	-363.603365	34.995	
C	-0.0543529109	 1.4844456419	 0.059849267	-0.500042
C	-0.016664937	 0.0301308556	 0.0164836857	 0.12164
C	 0.030688392	-1.1713050335	-0.022896693	 0.049729
C	 0.0542365789	-2.6358702548	-0.0627958708	-0.36256
C	-1.4099802857	-3.1856104338	-0.0821284115	-0.334642
C	-1.4688851465	-4.6396056127	 0.0367843602	 0.265464
N	-1.5140109625	-5.7885177834	 0.1485752732	-0.301069
C	 0.8233752418	-3.1430933728	-1.2023094539	 0.35019
C	 1.4361377859	-3.5744041128	-2.1399672941	-0.448654
H	 0.7935594892	 1.9155489163	-0.4829725779	 0.157802
H	-0.9725696419	 1.8707029369	-0.3953488619	 0.153736
H	-0.0126157746	 1.8518300914	 1.090757763	 0.154092
H	 0.5235490707	-3.0065167818	 0.8590503726	 0.153969
H	-1.9631120842	-2.7354625892	 0.7475449589	 0.162897
H	-1.8966094001	-2.8751624239	-1.0109147545	 0.169095
H	 1.985376685	-3.9573704835	-2.9645439128	 0.208354
11.231	62.123	79.7518	96.7873	162.1273	205.8089	254.5558	295.1991	372.4793	398.58	450.8912	471.5844	535.3195	572.8164	645.8129	659.6688	804.736	840.8827	954.2724	1003.1286	1036.4014	1052.7451	1054.0185	1172.1507	1206.3378	1277.0508	1328.1396	1347.1792	1414.2448	1462.8202	1476.5029	1476.87	2246.3716	2366.0755	2378.3579	3011.154	3031.4636	3065.232	3094.3038	3095.3941	3112.0727	3503.1755
CC#CC(CC#N)C#C	CC#C[C@@H](CC#N)C#C	
InChI=1S/C8H7N/c1-3-5-8(4-2)6-7-9/h2,8H,6H2,1H3	InChI=1S/C8H7N/c1-3-5-8(4-2)6-7-9/h2,8H,6H2,1H3/t8-/m0/s1
