19
gdb 23547	2.13573	1.49493	0.96599	0.9691	79.82	-0.2297	0.0024	0.2321	1243.5304	0.158397	-419.118326	-419.109358	-419.108414	-419.152166	33.583	
C	-0.195648124	 1.6039135561	-0.0533320851	-0.380936
C	-0.0796623078	 0.0798001632	 0.0544585306	-0.204386
C	 0.7244408443	-0.5191098574	-1.0911344376	-0.039207
N	 2.1893484534	-0.1175066929	-1.2347888933	-0.135724
C	 2.9022957157	-0.6874466646	-0.0872297115	-0.244779
C	 2.5649076504	-1.6032687841	-1.2076788217	-0.128581
C	 1.135115271	-1.9838848355	-1.1266104411	 0.415093
N	 0.5669896265	-3.1053468847	-1.2787415007	-0.266458
O	-0.8350988097	-2.9606591233	-1.2175497307	-0.397219
H	 0.791438924	 2.0759119635	-0.0456497328	 0.133278
H	-0.6944024846	 1.8962166166	-0.9836895519	 0.11883
H	-0.774409242	 2.0125956203	 0.7801627099	 0.113742
H	 0.3589148028	-0.1957708956	 1.0197911751	 0.098528
H	-1.07114191	-0.385536624	 0.0308297559	 0.126148
H	 0.2360519948	-0.2709527081	-2.0413410628	 0.112404
H	 3.9336052233	-0.3528899919	-0.0252595619	 0.129988
H	 2.4051089739	-0.7997129189	 0.8718253324	 0.124092
H	 3.3100357304	-2.0329254914	-1.8668603645	 0.116903
H	-1.1382674925	-3.8634682174	-1.3606866382	 0.308285
78.1283	117.8634	140.1915	204.7038	208.2089	301.6784	317.7025	368.8354	419.0499	499.8789	556.7531	599.8031	701.4442	735.0401	762.8451	822.0467	859.0691	926.3157	951.6047	977.5899	1004.6395	1034.5874	1080.2809	1110.6241	1115.8884	1124.9601	1157.6487	1189.0126	1222.3523	1251.6169	1280.9799	1320.185	1331.2134	1388.3287	1412.0341	1417.4481	1483.2112	1497.6291	1501.325	1510.6493	1790.7971	3036.9047	3038.0991	3048.5194	3078.3333	3106.6463	3114.4338	3118.4755	3186.5314	3205.2986	3820.6438
CCC1N2CC2C1=NO	CC[C@H]1N2C[C@H]2C1=NO	
InChI=1S/C6H10N2O/c1-2-4-6(7-9)5-3-8(4)5/h4-5,9H,2-3H2,1H3	InChI=1S/C6H10N2O/c1-2-4-6(7-9)5-3-8(4)5/h4-5,9H,2-3H2,1H3/t4-,5+,8?/m1/s1
