22
gdb 6795	4.48233	0.86597	0.76102	2.1833	76.02	-0.2605	0.0746	0.3351	1548.6626	0.198009	-387.337527	-387.327184	-387.32624	-387.373646	36.43	
C	-0.0278000922	 1.4690760716	 0.0647988319	-0.39244
C	-0.0240276159	-0.0646111245	 0.0413302243	 0.01822
C	 0.7715707243	-0.6430293179	 1.2176209523	-0.379867
C	-1.4588756458	-0.5898917934	 0.0198933668	-0.034945
O	-1.4494482962	-1.9963790856	-0.130316448	-0.26551
C	-2.7407044767	-2.5731145887	-0.1793031814	-0.068718
C	-2.5524160718	-4.0813916408	-0.2096432298	-0.059618
O	-1.876441673	-4.5420386098	 0.9433567362	-0.42219
H	 0.9938673631	 1.8605594172	 0.0459331263	 0.116279
H	-0.5620348113	 1.885815148	-0.795653944	 0.112383
H	-0.5093591534	 1.8488669422	 0.9738413606	 0.114719
H	 0.4491901143	-0.3973609291	-0.8922014791	 0.083515
H	 0.3343205156	-0.3335676778	 2.1748088094	 0.110026
H	 0.779573973	-1.7351386821	 1.1878030245	 0.120669
H	 1.8088782126	-0.2938206821	 1.1976726789	 0.110809
H	-1.9800629415	-0.3118391935	 0.9531681066	 0.084624
H	-2.0172704675	-0.1297103709	-0.8124646589	 0.083615
H	-3.3219009178	-2.2857150231	 0.7118555511	 0.094236
H	-3.2903760846	-2.2301513723	-1.0717896801	 0.085513
H	-3.5293467682	-4.5754217382	-0.2326888577	 0.106823
H	-2.0127914539	-4.3556004982	-1.1303897453	 0.092229
H	-1.101900153	-3.974946731	 1.0340829853	 0.289627
37.7371	61.2517	117.8218	141.1055	177.2841	215.7781	243.4159	284.4574	303.3103	375.8009	416.6611	436.9247	460.271	556.8314	830.0569	871.6403	908.8088	923.7333	928.9443	965.805	977.0406	1052.2323	1084.2557	1134.1251	1151.3948	1158.4043	1191.9457	1198.9044	1239.7617	1261.3775	1279.9529	1329.3339	1374.1709	1384.6994	1386.4854	1398.1903	1414.81	1435.5397	1448.8452	1488.1199	1490.3936	1499.0483	1501.7637	1503.1762	1511.6253	1527.1227	2944.5423	2964.4456	2976.5698	2978.4169	3004.9899	3021.1124	3025.7931	3031.7892	3078.6892	3089.7527	3095.6376	3104.2419	3121.3949	3798.3879
CC(C)COCCO	CC(C)COCCO	
InChI=1S/C6H14O2/c1-6(2)5-8-4-3-7/h6-7H,3-5H2,1-2H3	InChI=1S/C6H14O2/c1-6(2)5-8-4-3-7/h6-7H,3-5H2,1-2H3
