18
gdb 93442	2.83877	1.36771	0.98386	3.4725	73.91	-0.2535	-0.0294	0.2241	1190.0811	0.147664	-439.127355	-439.118837	-439.117893	-439.160974	31.787	
C	-0.19531742	 1.4997807346	 0.0084797098	-0.408267
C	 0.1102160469	 0.0014383576	-0.049432634	-0.11288
C	 1.0641579094	-0.3788908284	-1.1829426084	-0.100125
O	 1.2646111431	-1.7950018906	-1.2567756068	-0.245331
C	 1.5759069196	-2.4577496163	-0.1035145913	 0.380729
N	 1.7330564797	-3.7116393578	-0.0701473455	-0.50805
C	 1.7230956178	-1.6117680622	 1.1375490797	-0.398747
C	 0.6594421828	-0.5258915039	 1.2773250576	 0.397957
O	 0.302169672	-0.1082990383	 2.3504650082	-0.308359
H	 0.7262789093	 2.0869985517	 0.0834863492	 0.123581
H	-0.735866456	 1.8263311617	-0.8843537264	 0.120147
H	-0.8010046999	 1.7179866452	 0.8896878561	 0.152422
H	-0.8258228197	-0.5530192341	-0.2173980674	 0.12598
H	 0.6538556678	-0.0951521223	-2.1544113117	 0.129739
H	 2.0306283871	 0.1322924563	-1.066580325	 0.112393
H	 1.6081604787	-4.1076963918	-1.0043236829	 0.222146
H	 1.748379909	-2.2473706815	 2.0212474528	 0.163278
H	 2.6877353123	-1.0824908998	 1.0882123459	 0.153386
50.7945	102.1923	198.6454	221.2386	266.4871	330.9252	387.5006	405.6652	436.4264	530.3098	552.8765	604.7919	713.5266	723.6974	846.0101	903.2112	905.7964	916.8685	968.0466	1027.4708	1064.9859	1098.4067	1113.4632	1164.2523	1178.4125	1197.4316	1260.5682	1275.6927	1298.9615	1335.7978	1344.3023	1403.7429	1422.7159	1434.2841	1494.1515	1501.271	1514.6972	1758.2424	1828.2058	2997.5635	3004.6007	3012.3302	3043.4481	3106.212	3110.3145	3141.8003	3154.3204	3464.4623
CC1COC(=N)CC1=O	C[C@H]1CO[C]([NH])CC1=O	
InChI=1S/C6H9NO2/c1-4-3-9-6(7)2-5(4)8/h4,7H,2-3H2,1H3	InChI=1S/C6H9NO2/c1-4-3-9-6(7)2-5(4)8/h4,7H,2-3H2,1H3/t4-/m0/s1
