23
gdb 113932	3.7864	0.70187	0.64881	1.3507	83.49	-0.2524	0.0714	0.3238	1841.6353	0.202957	-425.41532	-425.404385	-425.403441	-425.45234	39.326	
C	 0.679242299	 1.3902475128	 0.2356103162	-0.373824
C	-0.2456049812	 0.2159807553	-0.1091887215	-0.213653
C	 0.177670229	-0.4717453575	-1.3859333126	 0.075585
O	 1.3495421329	-1.2974700956	-1.3332012169	-0.27649
C	 0.0919999555	-1.915699331	-1.6561665066	 0.055343
C	-0.4292500067	-2.9512234541	-0.6893109627	-0.222967
C	 0.2712700813	-4.3020035934	-0.8660561925	 0.13687
C	-0.1593064657	-5.3221784201	 0.1872218783	-0.402309
O	-0.0542475446	-4.7515931162	-2.1818993281	-0.436917
H	 1.7075310112	 1.0411171826	 0.3683431074	 0.133447
H	 0.6808228926	 2.1405115901	-0.5626459414	 0.114822
H	 0.3632249612	 1.8845574713	 1.1589739428	 0.111375
H	-0.2554989048	-0.4993177554	 0.7182458672	 0.102688
H	-1.2757962047	 0.5749951376	-0.2338326286	 0.09939
H	 0.1566038265	 0.1842499508	-2.2612881494	 0.080337
H	 0.0163209365	-2.2211464227	-2.6998476896	 0.102391
H	-0.2931403079	-2.6145052338	 0.3413207011	 0.100563
H	-1.5043606244	-3.0970689814	-0.8576622089	 0.105583
H	 1.356917968	-4.1337244805	-0.7846476008	 0.082998
H	-1.2400999177	-5.4898256685	 0.1382247296	 0.122448
H	 0.3412671283	-6.2834255368	 0.0242405664	 0.104161
H	 0.0972584111	-4.9811758543	 1.1957266393	 0.11586
H	 0.4623307546	-5.5424747391	-2.3637395788	 0.282298
35.8219	68.9294	92.8678	116.5104	182.5474	221.6789	235.9961	263.0603	269.119	319.2713	416.2478	444.8922	466.858	499.7774	563.7858	744.6516	807.3259	819.7792	856.5678	899.2266	941.1062	953.2034	987.8233	1036.846	1061.4805	1085.6273	1097.4778	1131.5007	1141.7234	1171.6936	1188.9755	1217.5828	1292.044	1301.8714	1304.9137	1319.7744	1345.9757	1384.3404	1405.7759	1407.9955	1416.5908	1423.4001	1454.0419	1474.8873	1490.4497	1497.0178	1497.8106	1498.9633	1510.5289	2978.6314	3026.5229	3027.2262	3033.5098	3036.2035	3060.0172	3084.8848	3094.1173	3101.2505	3108.0309	3110.5082	3116.0918	3120.8826	3823.7134
CCC1OC1CC(C)O	CC[C@H]1O[C@H]1C[C@@H](C)O	
InChI=1S/C7H14O2/c1-3-6-7(9-6)4-5(2)8/h5-8H,3-4H2,1-2H3	InChI=1S/C7H14O2/c1-3-6-7(9-6)4-5(2)8/h5-8H,3-4H2,1-2H3/t5-,6-,7+/m1/s1
