16
gdb 18032	4.01432	2.13923	1.49393	4.0427	65.68	-0.2354	0.0232	0.2586	825.9598	0.134337	-379.896768	-379.890496	-379.889552	-379.927034	24.588	
C	 0.0430711729	 1.5055480473	-0.084125752	-0.12867
O	 1.5039752156	 1.3792827743	 0.0704008652	-0.269165
C	 1.3271896295	 0.1013296838	 0.5455914374	 0.459041
N	 2.0297128842	-0.5598336321	 1.3419923953	-0.305895
C	 1.3149622055	-1.7158271505	 1.9064562396	-0.133023
C	-0.1246148584	-1.9623520651	 1.3886178569	-0.183512
N	-0.8421049709	-0.6914793201	 1.140065192	-0.318721
C	-0.0982874038	-0.0272874191	 0.0908520067	-0.111554
H	-0.3746146759	 2.0927377083	 0.7373307295	 0.131197
H	-0.2186608603	 1.9290538032	-1.0552781878	 0.120245
H	 1.9063394946	-2.6246969956	 1.7482868035	 0.110696
H	 1.2890184837	-1.5478985343	 2.9899934319	 0.120799
H	-0.07820964	-2.5787543793	 0.4727197174	 0.087437
H	-0.6768455007	-2.5362557711	 2.1383565132	 0.107904
H	-1.7938094914	-0.8955290954	 0.852738363	 0.224162
H	-0.1768427346	-0.5104120944	-0.8975480017	 0.089059
155.0659	246.8611	277.887	368.1945	419.5925	483.5053	578.5591	681.6547	734.071	798.4522	838.3069	883.0187	894.3202	943.1805	994.4001	1043.794	1060.3892	1098.4137	1123.6516	1153.8795	1165.4422	1197.4016	1217.4041	1265.0221	1275.7582	1335.8875	1347.4036	1370.7496	1428.3365	1462.5339	1487.0121	1504.907	1506.9729	1835.6554	2934.7929	2958.1193	3030.7474	3063.8997	3067.6771	3083.3749	3137.8807	3513.0018
C1OC2=NCCNC12	C1O[C]2[N]CCN[C@@H]12	
InChI=1S/C5H8N2O/c1-2-7-5-4(6-1)3-8-5/h4,6H,1-3H2	InChI=1S/C5H8N2O/c1-2-7-5-4(6-1)3-8-5/h4,6H,1-3H2/t4-/m0/s1
