19
gdb 38764	2.40597	2.25243	1.84422	2.3351	72.82	-0.2433	0.0802	0.3235	861.1397	0.163449	-423.028095	-423.021848	-423.020903	-423.058328	26.841	
C	 0.0210102727	 1.5360969726	 0.0971616761	-0.233286
C	 1.5031176302	 1.9226317828	-0.004163567	 0.116745
O	 2.1978069637	 1.7169364793	 1.2493621662	-0.301688
C	 2.6344866337	 0.4083922213	 0.8239617544	 0.099975
C	 1.8197354851	-0.7021755155	 1.4760216556	-0.090172
O	 0.4229238716	-0.6036061267	 1.2304406527	-0.279729
C	 0.034300478	-0.0066928464	-0.010785872	 0.10924
C	 1.0858957204	-0.2585035648	-1.1060923286	-0.25273
C	 2.1962254448	 0.683148074	-0.6409293684	-0.093608
H	-0.4284284044	 1.8815114338	 1.0308640901	 0.117165
H	-0.5420349114	 1.9609678478	-0.7430745682	 0.092063
H	 1.6884158303	 2.9231082259	-0.4032569557	 0.074957
H	 3.7036061246	 0.2551626277	 1.0132878044	 0.076315
H	 2.2108210442	-1.6722390674	 1.1254982521	 0.087173
H	 1.9454824695	-0.6687452815	 2.5636019716	 0.11585
H	-0.9510966021	-0.4207303673	-0.2384708309	 0.077256
H	 1.3896262804	-1.3076663383	-1.1667327385	 0.108267
H	 0.6984917736	 0.0364084783	-2.0871782381	 0.101806
H	 3.0073376649	 0.8652790445	-1.3446564359	 0.074399
190.0154	334.702	342.0487	412.3534	426.1132	458.7506	621.2507	641.814	795.3301	799.0345	805.8319	849.4786	877.8496	892.5071	896.1709	934.1784	944.0181	970.7547	1011.2161	1038.9483	1053.6549	1066.3096	1090.1208	1110.5474	1141.9422	1184.6968	1232.7915	1240.8182	1252.5405	1262.1844	1291.6274	1307.127	1332.2479	1340.5519	1356.9928	1365.9725	1375.4511	1411.5378	1456.405	1484.2744	1502.2174	2964.1962	3035.5277	3036.9407	3048.6279	3067.7927	3075.5621	3082.4425	3095.7343	3115.2129	3121.206
C1C2OC3COC1CC23	C1[C@H]2O[C@H]3CO[C@@H]1C[C@@H]23	
InChI=1S/C7H10O2/c1-4-2-6-5(1)7(9-6)3-8-4/h4-7H,1-3H2	InChI=1S/C7H10O2/c1-4-2-6-5(1)7(9-6)3-8-4/h4-7H,1-3H2/t4-,5+,6-,7+/m1/s1
