22
gdb 116323	3.0179	1.28206	1.00382	0.4866	82.19	-0.2184	0.0877	0.3061	1261.979	0.19573	-404.326159	-404.317501	-404.316557	-404.359499	33.458	
C	-0.0579050972	 1.5908986832	 0.0503608445	-0.386134
C	-0.0063137428	 0.0607622045	 0.0461343679	-0.188392
C	-1.3876717891	-0.5859526326	-0.0354892838	 0.102251
O	-1.9909630194	-0.1966446229	-1.2618703463	-0.255384
C	-3.2921984946	-0.7471109282	-1.3774004412	-0.082239
C	-3.2282832222	-2.2614844783	-1.5799083525	-0.155716
N	-2.2890034549	-2.9375070562	-0.665899292	-0.110972
C	-0.8783889489	-2.9281651782	-1.0597789894	-0.243694
C	-1.3370081988	-2.1013793613	 0.0841282625	-0.020661
H	 0.9489046767	 2.0174735242	 0.0870809419	 0.109885
H	-0.5553569518	 1.9617529716	-0.849217472	 0.134829
H	-0.6111131733	 1.9660190867	 0.9187091127	 0.110243
H	 0.5904311048	-0.2952636443	-0.8014197295	 0.105171
H	 0.4879093405	-0.3048929469	 0.9547366857	 0.097054
H	-2.0096440582	-0.2010583371	 0.7945856549	 0.062637
H	-3.8775395987	-0.5052127333	-0.4750332313	 0.091941
H	-3.7749185517	-0.2622517293	-2.2311943947	 0.107266
H	-4.2263504461	-2.6891601145	-1.4232454536	 0.103566
H	-2.9407224805	-2.4841094348	-2.6137219772	 0.106333
H	-0.3368536178	-3.8560412	-0.8929966893	 0.108525
H	-0.6165924312	-2.4006880077	-1.9750706612	 0.115631
H	-1.1492910947	-2.4557635546	 1.0971577641	 0.08786
90.1179	104.8405	163.7701	201.6845	279.1132	305.2614	359.8837	396.1665	463.5966	485.9102	593.5037	685.4	741.3202	765.133	827.4825	880.6228	894.7192	931.3047	955.6568	972.2635	1020.797	1058.2931	1081.5576	1086.6092	1118.6397	1127.7785	1134.7734	1160.5458	1172.0727	1187.3871	1264.7749	1280.6217	1304.8438	1313.9709	1331.5117	1366.6827	1374.5954	1398.866	1406.4084	1408.1572	1426.5432	1475.3267	1490.0642	1495.9014	1501.1376	1508.5215	1509.8301	2923.6278	2971.5655	3022.3186	3032.4493	3037.1576	3060.5783	3070.6266	3084.2624	3094.2212	3102.5032	3107.3324	3125.4606	3179.3499
CCC1OCCN2CC12	CC[C@H]1OCCN2C[C@@H]12	
InChI=1S/C7H13NO/c1-2-7-6-5-8(6)3-4-9-7/h6-7H,2-5H2,1H3	InChI=1S/C7H13NO/c1-2-7-6-5-8(6)3-4-9-7/h6-7H,2-5H2,1H3/t6-,7+,8?/m0/s1
