19
gdb 49656	2.86778	1.36374	1.22283	3.5453	79.31	-0.2402	-0.0228	0.2175	1093.5587	0.160814	-385.871431	-385.863901	-385.862957	-385.903701	29.874	
O	 0.2146836088	-0.2028607794	-0.1876218264	-0.274063
C	 0.0721630114	 0.9971596775	-0.1644958342	 0.129527
C	 1.2034943025	 1.9426541805	 0.0184859588	-0.109029
C	 1.1492583494	 3.4263507432	-0.3136480163	-0.08114
C	-0.1915858192	 4.1824648034	-0.3098727866	-0.259363
C	-0.6436691666	 4.3002253119	 1.1538538072	-0.029515
C	-1.0585906978	 3.088692413	 1.951855337	-0.303607
C	 0.3682340617	 3.5707141454	 2.0188019611	-0.03032
C	 1.4355870148	 3.014114006	 1.1036195944	-0.064867
H	-0.9247494487	 1.4445388387	-0.3567671794	 0.081421
H	 2.134381256	 1.4480657535	-0.2475539687	 0.111088
H	 1.9272457358	 3.8007928766	-0.9707355141	 0.094837
H	-0.0144678531	 5.1869680971	-0.7068982398	 0.111772
H	-0.9498507373	 3.7287897286	-0.956979514	 0.113168
H	-1.0558930572	 5.2542197383	 1.4643534563	 0.089078
H	-1.6757637542	 3.2826830514	 2.8236634735	 0.114091
H	-1.2920456939	 2.1494738709	 1.4699398913	 0.119081
H	 0.7230565238	 3.9884057334	 2.9540548913	 0.089036
H	 2.4474241239	 3.0193901899	 1.4925427287	 0.098806
74.6926	123.1876	237.4581	295.8778	332.9962	399.6225	488.1733	587.4652	670.1013	673.0184	701.9631	778.8862	815.6889	832.4966	856.5861	888.4278	928.9618	967.942	987.438	1026.2186	1049.0967	1055.9791	1064.801	1068.4775	1105.3489	1109.7283	1121.2189	1121.8602	1200.1988	1223.2006	1243.0882	1295.6853	1316.9092	1342.8859	1362.0179	1377.6697	1401.5879	1446.4808	1489.2062	1502.7237	1799.6749	2904.2505	3046.9128	3079.158	3142.174	3142.6975	3157.4476	3162.5037	3169.3004	3182.2958	3237.5649
O=CC1C2CC3CC3C12	O=C[C@H]1[C@H]2C[C@H]3C[C@H]3[C@@H]12	
InChI=1S/C8H10O/c9-3-7-6-2-4-1-5(4)8(6)7/h3-8H,1-2H2	InChI=1S/C8H10O/c9-3-7-6-2-4-1-5(4)8(6)7/h3-8H,1-2H2/t4-,5-,6-,7+,8-/m1/s1
