17
gdb 116719	3.51533	0.9105	0.76832	1.0189	73.88	-0.2301	0.0142	0.2443	1470.4771	0.134913	-455.15151	-455.142033	-455.141089	-455.187501	32.121	
C	 0.3742115668	 0.9144190097	-0.4414988573	-0.252045
O	-0.180946985	 0.1985985224	 0.6582054023	-0.190796
C	 0.5931784214	-0.7800056376	 1.1575753137	 0.12587
N	 0.1752264385	-1.4705148093	 2.1299938342	-0.256701
C	 1.034582989	-2.5010299884	 2.6459360166	-0.109175
C	 0.3874307479	-3.9124864929	 2.8282625603	-0.165066
N	 1.4891262064	-4.4447559251	 2.0191193063	-0.323114
C	 2.052976794	-3.2350037853	 1.7119653253	 0.405218
O	 2.951364033	-2.9076470023	 0.9773844478	-0.374168
H	 0.5580013385	 0.2538889349	-1.2968523631	 0.133179
H	-0.3643240064	 1.6664585995	-0.7209138031	 0.145678
H	 1.3094108941	 1.4138054933	-0.162669009	 0.132454
H	 1.5614369444	-0.9113061847	 0.6608957059	 0.124741
H	 1.5127184822	-2.1610427487	 3.5716843881	 0.113325
H	 0.3494802371	-4.2996944432	 3.8503164397	 0.113516
H	-0.5951835417	-3.989798351	 2.3553746808	 0.124896
H	 1.6651235197	-5.3673177313	 1.6496394414	 0.252188
36.7518	61.2636	105.7714	132.8771	157.3813	206.5428	259.2984	350.6271	419.1269	432.0925	529.519	576.4976	745.9668	758.7143	863.3162	927.6071	987.8323	1018.3575	1058.1216	1075.2999	1121.3703	1157.3003	1175.3008	1177.8987	1192.7957	1196.7812	1278.3613	1297.2305	1336.62	1389.8789	1424.3184	1487.5745	1494.954	1500.3725	1525.4255	1752.4316	1871.4646	3019.5692	3043.7651	3053.3067	3068.6849	3085.758	3108.6733	3147.191	3609.9545
COC=NC1CNC1=O	COC=N[C@H]1CNC1=O	
InChI=1S/C5H8N2O2/c1-9-3-7-4-2-6-5(4)8/h3-4H,2H2,1H3,(H,6,8)	InChI=1S/C5H8N2O2/c1-9-3-7-4-2-6-5(4)8/h3-4H,2H2,1H3,(H,6,8)/t4-/m0/s1
