17
gdb 70417	2.34279	1.52186	1.42023	2.5592	68.64	-0.2463	-0.0312	0.215	1015.278	0.133274	-458.930774	-458.922032	-458.921088	-458.963916	33.136	
O	-0.0786017994	 1.4111262039	 0.0310281913	-0.462987
C	-0.0370574451	 0.0292803335	 0.037943819	 0.382523
C	-0.2991104405	-0.8103127524	-1.1804886515	-0.350502
C	-1.2003634352	-0.9502029825	 0.0246263742	-0.088948
C	-0.504852548	-1.8256772059	 1.0706412351	-0.304904
C	 0.6709959931	-0.7928238284	 1.1252021565	 0.202853
O	 1.979056818	-1.1906221854	 0.7567575947	-0.483879
C	 0.7371564387	-0.0172184593	 2.4383407142	 0.113387
O	-0.0755181086	-0.0696357252	 3.323421337	-0.24489
H	 0.6289199594	 1.7338819924	-0.5384229574	 0.293301
H	-0.7242382931	-0.2441215307	-2.0034349767	 0.117427
H	 0.3759112235	-1.6114840399	-1.4678511251	 0.120304
H	-2.2595438462	-0.7342117869	-0.0170283391	 0.102142
H	-1.023552319	-1.8740656453	 2.029396163	 0.134562
H	-0.2164080579	-2.8265938642	 0.7368101717	 0.09708
H	 2.2992686202	-1.8307668354	 1.4023083052	 0.286015
H	 1.6540635402	 0.6078384615	 2.5155411179	 0.086516
81.3325	122.6989	197.0925	251.2591	289.935	306.1091	314.4169	376.8823	417.5666	453.2533	480.4713	595.3686	623.0258	723.9672	786.8368	845.9402	881.1229	905.395	966.4321	979.4359	1018.9066	1031.5337	1060.5132	1081.32	1134.3529	1181.1655	1208.7207	1213.6006	1247.4827	1266.6494	1312.2293	1343.314	1397.1875	1401.6506	1466.3091	1499.1597	1831.1739	2894.4134	3057.0017	3117.1532	3131.4179	3204.0581	3212.0032	3792.4058	3798.1292
OC12CC1CC2(O)C=O	O[C@]12C[C@H]1C[C@]2(O)C=O	
InChI=1S/C6H8O3/c7-3-5(8)1-4-2-6(4,5)9/h3-4,8-9H,1-2H2	InChI=1S/C6H8O3/c7-3-5(8)1-4-2-6(4,5)9/h3-4,8-9H,1-2H2/t4-,5+,6-/m1/s1
