19
gdb 60668	2.00379	1.39075	1.32454	2.5675	81.04	-0.2516	-0.0326	0.219	1145.8062	0.155364	-385.845602	-385.83564	-385.834696	-385.880814	36.388	
C	 0.0352693389	 1.5286144959	-0.017309239	-0.432735
C	-0.0693831357	-0.0139005341	 0.0287090455	-0.071019
C	 0.622501125	-0.4996677395	 1.3165147711	 0.140748
O	 0.3133127186	-1.4703739779	 1.9504011336	-0.245083
C	-1.4711569123	-0.4307779807	 0.0112901491	 0.373362
C	-2.630521822	-0.7433327374	-0.0243537994	-0.477772
C	 0.6594872895	-0.6147463824	-1.1909229238	 0.01302
C	 2.104586036	-1.0584279284	-1.1638927843	-0.297339
C	 0.9957602551	-2.0758021239	-1.2791405258	-0.267178
H	 1.0854770674	 1.8372257758	-0.0123669485	 0.123713
H	-0.4313740072	 1.9088719603	-0.9289309274	 0.134924
H	-0.4710252846	 1.9840643609	 0.8384527122	 0.131951
H	 1.4839401413	 0.1379943733	 1.6188703943	 0.086481
H	-3.6514794039	-1.0347586718	-0.0453782308	 0.197121
H	 0.3288216351	-0.1462027956	-2.1135989789	 0.097542
H	 2.7107491279	-0.8447387533	-2.0372226558	 0.115981
H	 2.6575012835	-1.0200656668	-0.231844662	 0.119612
H	 0.7874489643	-2.6901227509	-0.409893536	 0.141209
H	 0.8438231432	-2.5761858235	-2.2285491843	 0.115463
52.4519	60.3645	134.3416	156.5707	226.7414	235.0141	262.0808	310.255	378.9273	395.5146	451.5068	533.072	608.2103	634.1076	641.751	726.9424	782.2084	828.7877	841.7719	916.3699	943.0418	947.7674	1005.4846	1062.1515	1077.1367	1085.1498	1114.6182	1136.6726	1195.3161	1205.8912	1228.9124	1247.5019	1378.2529	1399.7524	1426.4812	1472.2996	1487.9624	1497.2978	1507.6976	1836.9684	2238.6901	2872.2837	3041.1337	3116.1301	3127.5766	3136.9394	3139.8357	3144.752	3214.2488	3229.4328	3502.6006
CC(C=O)(C#C)C1CC1	C[C@@](C=O)(C#C)C1CC1	
InChI=1S/C8H10O/c1-3-8(2,6-9)7-4-5-7/h1,6-7H,4-5H2,2H3	InChI=1S/C8H10O/c1-3-8(2,6-9)7-4-5-7/h1,6-7H,4-5H2,2H3/t8-/m0/s1
