16
gdb 124974	3.1468	1.20287	0.88154	3.7724	75.15	-0.242	0.0109	0.253	1253.4458	0.125525	-396.971563	-396.962888	-396.961944	-397.006792	30.256	
C	-0.6881442751	 1.5087021324	 0.2699129051	-0.514966
C	-0.1430232039	 0.1224948851	 0.1095270811	 0.101766
C	 0.3502754954	-0.4712253976	-1.0402612224	 0.315925
C	 0.4896768122	 0.080835539	-2.4329765741	-0.464022
C	 0.8752359308	-0.9409750896	-3.4056019387	 0.270026
N	 1.1923432243	-1.7729848046	-4.1417680742	-0.303958
N	 0.7379866796	-1.7247790799	-0.6934229409	-0.250415
N	 0.5297795151	-2.0025010686	 0.6041820092	-0.230066
C	-0.0003765172	-0.8842760243	 1.091599522	-0.067733
H	 0.0986850999	 2.2720662503	 0.2324407816	 0.130981
H	-1.4164604466	 1.7572829907	-0.5109232419	 0.124493
H	-1.195482521	 1.6140956133	 1.2325012585	 0.136139
H	-0.4550059794	 0.5343025586	-2.7575868368	 0.175094
H	 1.2391018057	 0.8827607915	-2.4640954339	 0.176068
H	 1.1196764461	-2.433120947	-1.3007730376	 0.287317
H	-0.271121176	-0.8294598995	 2.136661843	 0.113352
19.8228	63.7557	114.6126	214.0789	230.7103	271.0351	374.5541	390.2247	516.7841	547.8342	638.988	661.8425	700.1785	765.8083	885.132	946.4092	947.9557	962.296	1002.2645	1063.501	1143.44	1163.6785	1218.9093	1246.9715	1292.3716	1335.7299	1379.3367	1422.2113	1442.4553	1463.0249	1488.0053	1495.4394	1531.547	1620.2629	2365.636	3022.5302	3025.7366	3056.1038	3069.9955	3111.6761	3238.4603	3647.5902
CC1=C(CC#N)NN=C1	Cc1c(CC#N)[nH]nc1	
InChI=1S/C6H7N3/c1-5-4-8-9-6(5)2-3-7/h4H,2H2,1H3,(H,8,9)	InChI=1S/C6H7N3/c1-5-4-8-9-6(5)2-3-7/h4H,2H2,1H3,(H,8,9)
