14
gdb 130124	2.3587	1.85123	1.04391	4.6834	67.63	-0.2122	-0.0297	0.1825	1052.2206	0.102479	-466.205179	-466.197225	-466.196281	-466.237684	29.518	
N	 0.0611239165	 1.3448145185	 0.0607704249	-0.591692
C	 0.0032862139	-0.0354006587	 0.0083861652	 0.453483
N	-1.0733861114	-0.7358112263	 0.0729471603	-0.291176
N	-0.6287307432	-2.0617781437	 0.1732873776	-0.322505
C	 0.7413035835	-2.1807820626	-0.049298999	 0.436712
N	 1.5040729345	-3.1817306206	-0.1973319307	-0.546591
N	 1.1652460831	-0.8180209214	-0.0375277008	-0.173148
C	 2.4702847381	-0.3263431447	 0.0771322115	 0.163023
O	 3.4704770454	-0.9836883049	 0.0313379564	-0.257201
H	 0.5828829654	 1.7700155945	-0.6965936311	 0.264892
H	-0.8721603688	 1.7340929944	 0.1165777343	 0.273239
H	-1.271334454	-2.756807881	-0.1706596479	 0.26852
H	 0.9735936753	-4.0500928961	-0.1476318423	 0.218477
H	 2.4573109316	 0.7670921026	 0.2326199218	 0.103966
87.054	175.571	213.5836	238.6368	322.238	332.2528	358.1447	426.7999	473.4061	551.5903	656.4985	666.0667	722.1473	769.3389	776.6243	784.4923	816.4564	1024.3316	1048.5559	1065.1457	1113.9953	1190.7081	1251.4362	1365.0194	1390.754	1451.9871	1471.6039	1627.7752	1716.0783	1755.9399	1848.4805	2978.646	3503.1931	3529.415	3626.4354	3652.6695
NC1=NNC(=N)N1C=O	NC1=NN[C@H]([NH])N1C=O	
InChI=1S/C3H5N5O/c4-2-6-7-3(5)8(2)1-9/h1H,(H2,4,6)(H2,5,7)	InChI=1S/C3H6N5O/c4-2-6-7-3(5)8(2)1-9/h1-2,4,6H,(H2,5,7)/t2-/m0/s1
