19
gdb 115166	2.52298	1.40554	1.0234	4.3171	72.49	-0.224	0.0631	0.2871	1183.8223	0.160457	-456.387185	-456.377802	-456.376858	-456.421681	33.603	
C	-0.0267368247	 1.452180983	 0.1627792554	-0.336746
N	-0.035251828	 0.0129318735	 0.0274471117	-0.092877
C	-1.2286495413	-0.8122030924	-0.0545203919	 0.017404
C	-1.9898190761	-0.6694579149	-1.3763936148	-0.077105
O	-2.5373226243	 0.6372325662	-1.4359551044	-0.41854
C	-0.6372274234	-2.2356309892	 0.111327301	-0.197724
N	 0.7358533243	-2.0468741143	-0.3342448139	-0.359837
C	 1.120177729	-0.7149546698	-0.1549406199	 0.441601
O	 2.2563414643	-0.2895909556	-0.1739046748	-0.42549
H	 1.0177213886	 1.7596729879	 0.2401360763	 0.155926
H	-0.4973162534	 1.9449902757	-0.6921144584	 0.133094
H	-0.5613394313	 1.7583290148	 1.0705540653	 0.114327
H	-1.9217436619	-0.5662093675	 0.7592326698	 0.091774
H	-1.2994148983	-0.8635613147	-2.2108562516	 0.105825
H	-2.7841230652	-1.4337102981	-1.4066447719	 0.087072
H	-2.92166086	 0.7672755438	-2.3076395701	 0.292332
H	-0.6992252542	-2.5611865472	 1.159005587	 0.108422
H	-1.1669599034	-2.9694746524	-0.5045772523	 0.111405
H	 1.4379274991	-2.7277541088	-0.0896910824	 0.249136
70.5615	102.564	133.2466	175.6283	194.3928	240.0284	249.235	311.0213	373.0782	455.9632	530.0603	535.8349	665.0657	735.0646	763.6371	811.3452	877.6944	974.2858	1004.2661	1073.4222	1089.6751	1100.429	1118.3305	1166.7609	1181.1987	1207.2319	1250.1914	1265.6549	1277.5545	1304.6389	1334.2584	1373.5408	1424.4874	1432.3353	1455.3515	1472.5415	1489.1408	1513.8817	1528.7466	1535.2092	1829.7317	2962.7437	2999.9833	3010.1854	3024.8134	3038.6839	3065.2723	3090.6236	3144.105	3634.4248	3834.5397
CN1C(CO)CNC1=O	CN1[C@@H](CO)CNC1=O	
InChI=1S/C5H10N2O2/c1-7-4(3-8)2-6-5(7)9/h4,8H,2-3H2,1H3,(H,6,9)	InChI=1S/C5H10N2O2/c1-7-4(3-8)2-6-5(7)9/h4,8H,2-3H2,1H3,(H,6,9)/t4-/m1/s1
