17
gdb 50296	3.35426	1.41576	1.33997	3.1514	71.89	-0.2406	-0.029	0.2115	997.6602	0.13707	-421.827646	-421.820566	-421.819622	-421.859572	27.852	
O	-0.7377394796	 0.9872886224	 0.7560265985	-0.254707
C	 0.2145914889	 0.7366689902	 0.0633418459	 0.140285
C	 1.4462474457	 1.6212972963	-0.0165215456	 0.037079
O	 2.587534362	 0.8668675145	-0.4146739822	-0.296757
C	 3.1268278472	 1.5376220928	-1.6046247642	 0.067776
C	 2.8643041784	 3.0110149773	-1.2681722546	-0.227373
C	 1.3420843017	 2.748111007	-1.1132916577	-0.107131
C	 1.0526610155	 2.0364144958	-2.4259408135	-0.090632
C	 2.1331810237	 1.3074620916	-2.7311944557	-0.072708
H	 0.2646262848	-0.1680566235	-0.5800311675	 0.088328
H	 1.6089481165	 2.0773063457	 0.9680276022	 0.104494
H	 4.1502594497	 1.194517205	-1.7392239616	 0.083204
H	 3.3613829978	 3.3355807749	-0.3501122432	 0.108253
H	 3.085353669	 3.6926071404	-2.0906477682	 0.111148
H	 0.6929641745	 3.5750420668	-0.8327034958	 0.089016
H	 0.0980254617	 2.0531786914	-2.9361265723	 0.112301
H	 2.2523824925	 0.5955693115	-3.5371771145	 0.107424
62.6375	139.4622	245.0872	399.2607	429.6393	441.6241	502.5448	546.2513	688.1993	748.9035	793.6429	819.8857	840.8049	868.6393	907.1816	917.9594	951.5642	969.587	973.2647	1005.8801	1029.1612	1047.7616	1098.829	1126.6541	1139.719	1188.4652	1218.4953	1269.6234	1281.4345	1292.2333	1314.9659	1321.5462	1358.7454	1402.7727	1485.9417	1631.7803	1829.8536	2906.3917	3032.6161	3069.4947	3137.1962	3143.4101	3150.1928	3205.8724	3231.4381
O=CC1OC2CC1C=C2	O=C[C@H]1O[C@@H]2C[C@H]1C=C2	
InChI=1S/C7H8O2/c8-4-7-5-1-2-6(3-5)9-7/h1-2,4-7H,3H2	InChI=1S/C7H8O2/c8-4-7-5-1-2-6(3-5)9-7/h1-2,4-7H,3H2/t5-,6+,7-/m1/s1
