23
gdb 113054	3.29312	0.93626	0.78962	2.4756	86.95	-0.2319	-0.0159	0.2159	1562.9563	0.204226	-388.31629	-388.305986	-388.305042	-388.352087	37.577	
C	 0.1625191904	 1.5051748946	 0.2816844263	-0.384611
C	 0.0991209838	-0.0015359087	 0.0080259264	-0.195429
C	-1.3295925251	-0.5396427351	-0.0100124191	-0.072094
C	-1.5980455627	-2.070749279	-0.1711859201	-0.300344
C	-2.6520395278	-2.0278638544	 0.9818916911	-0.072095
C	-2.6519084999	-3.0974277357	 2.071452182	-0.195428
C	-3.6869374836	-2.8268413384	 3.1689873915	-0.384611
C	-2.0880880828	-0.6374933728	 1.3258796785	 0.381381
O	-2.0881293233	 0.0286195704	 2.3252403337	-0.312507
H	 1.1984577727	 1.8568854892	 0.3073423584	 0.11015
H	-0.3617590474	 2.069628254	-0.497762147	 0.109983
H	-0.3058462989	 1.7417378311	 1.2405862907	 0.147605
H	 0.5777741726	-0.232341242	-0.9522658263	 0.098202
H	 0.6717122637	-0.5396234863	 0.774309209	 0.098639
H	-1.9388436993	 0.0300583942	-0.7249087573	 0.096663
H	-1.9541313659	-2.4045431055	-1.1467493904	 0.104813
H	-0.721466282	-2.6630059892	 0.1089040723	 0.10844
H	-3.66290034	-1.9101199187	 0.5682261837	 0.096663
H	-2.8372160734	-4.0754359623	 1.6091739148	 0.098202
H	-1.6496944827	-3.1520285449	 2.5154959372	 0.098639
H	-3.6495703295	-3.59888387	 3.9436366776	 0.11015
H	-3.5039335409	-1.8572431744	 3.6393171099	 0.147605
H	-4.702950068	-2.8157751664	 2.7583682571	 0.109983
44.4047	94.2583	106.2538	156.2823	182.0471	230.4106	248.7052	265.1394	287.5949	342.5216	410.7336	536.5133	573.2792	685.0255	726.9075	794.2138	816.3448	825.401	930.6046	945.587	955.4287	995.1663	1003.5694	1008.9481	1028.3681	1097.9349	1114.8074	1134.8201	1145.8189	1186.5102	1224.9093	1243.5788	1245.3849	1280.941	1292.3204	1334.4363	1337.0017	1362.4789	1380.4055	1412.8462	1413.514	1487.7329	1488.1201	1491.52	1498.7523	1499.3283	1513.6144	1513.8564	1863.5964	3015.8325	3017.613	3020.282	3022.2746	3034.8749	3035.0849	3052.7314	3053.4692	3060.1395	3099.4513	3099.7009	3123.7785	3125.7489	3125.9059
CCC1CC(CC)C1=O	CC[C@H]1C[C@@H](CC)C1=O	
InChI=1S/C8H14O/c1-3-6-5-7(4-2)8(6)9/h6-7H,3-5H2,1-2H3	InChI=1S/C8H14O/c1-3-6-5-7(4-2)8(6)9/h6-7H,3-5H2,1-2H3/t6-,7+
