17
gdb 31755	4.56619	0.88728	0.7527	1.9079	70.81	-0.2303	0.0117	0.242	1467.0186	0.136538	-455.163254	-455.154017	-455.153073	-455.19859	32.101	
N	 0.2553073873	 1.131372459	-0.6871854641	-0.486737
C	-0.2006905881	 0.2994671361	 0.4174349538	-0.279194
C	-1.5170372965	-0.3899397251	 0.1900100967	 0.371511
N	-2.2817413339	-0.3249332934	-0.8542409512	-0.371448
C	-3.366292386	-1.144048182	-0.548023007	 0.250878
C	-4.4923779103	-1.3448190272	-1.5046037536	-0.190095
O	-5.4246271484	-2.2296122873	-0.9070296413	-0.418451
C	-3.1884696616	-1.664175052	 0.6864567328	-0.109305
O	-1.9973921159	-1.185615326	 1.1753916002	-0.178976
H	 0.3099788778	 0.5596887325	-1.5260752167	 0.237495
H	-0.4621454812	 1.8211441698	-0.8946304777	 0.2377
H	 0.5615651564	-0.4586341349	 0.6371695152	 0.135125
H	-0.2754943465	 0.9130560998	 1.3241210537	 0.135151
H	-4.9472339676	-0.3689374239	-1.7401520173	 0.108251
H	-4.0967689581	-1.7453104271	-2.4521172636	 0.108317
H	-6.1542864635	-2.3543755011	-1.5196893829	 0.293591
H	-3.7481446641	-2.3289309174	 1.3184815628	 0.156185
39.1201	59.0875	137.1336	157.6319	217.9047	222.0287	254.3141	318.9644	441.6112	449.1333	636.4742	687.5482	688.4242	741.3429	767.1837	912.1619	937.1381	991.3363	1011.4412	1050.1342	1090.6929	1113.1242	1143.9627	1186.7418	1191.7697	1226.8238	1235.1529	1267.259	1322.7512	1390.881	1397.6197	1468.8982	1474.085	1514.026	1609.6777	1650.6064	1678.4627	2967.4273	2987.1776	3028.6119	3058.0246	3314.6292	3491.9328	3558.4971	3844.1565
NCC1=NC(CO)=CO1	NCc1nc(CO)co1	
InChI=1S/C5H8N2O2/c6-1-5-7-4(2-8)3-9-5/h3,8H,1-2,6H2	InChI=1S/C5H8N2O2/c6-1-5-7-4(2-8)3-9-5/h3,8H,1-2,6H2
