20
gdb 80025	2.31837	2.00839	1.3784	1.1065	83.56	-0.2016	0.012	0.2136	1013.0632	0.171003	-365.92646	-365.918696	-365.917751	-365.958034	32.038	
C	 0.0660634582	 1.4229409876	-0.4026747437	-0.331276
N	 0.0372390075	 0.004492382	-0.058428981	-0.084214
C	-1.1164136647	-0.4453703159	 0.8374011985	-0.159312
C	-0.7675220562	-1.9369956734	 0.9240167152	-0.063587
C	 0.5489301078	-1.9090604333	 1.1493591763	-0.063589
C	 0.8449863897	-0.403749534	 1.1731090244	-0.159306
C	-0.3275643157	 0.091411084	 2.0621998754	 0.457397
C	-0.4876631353	 1.3571762976	 2.8407621199	-0.353488
C	-0.5769047419	 0.0041093648	 3.5298667574	-0.367098
H	 1.0352849233	 1.6465636967	-0.8622939729	 0.116079
H	-0.7034142313	 1.6096220552	-1.1601057228	 0.11608
H	-0.0908654362	 2.1280141413	 0.4260702533	 0.105896
H	-2.1279753408	-0.13123472	 0.5784019795	 0.064298
H	-1.447033993	-2.7685146367	 0.8111348573	 0.103045
H	 1.2609766635	-2.7110506986	 1.2746745068	 0.103044
H	 1.8712597068	-0.0463699851	 1.2628980632	 0.064297
H	 0.3903272574	 1.9676230484	 3.0295205184	 0.113918
H	-1.4028293227	 1.9295903546	 2.7226306581	 0.113917
H	-1.5520960825	-0.3308550232	 3.8686969243	 0.11195
H	 0.2431109961	-0.2927888422	 4.1759549923	 0.11195
185.0527	188.8	221.0028	273.2411	283.5793	311.1695	457.721	538.262	542.1651	619.5188	668.7877	728.3529	767.6112	780.4128	826.1288	881.3403	902.3904	914.2221	914.5767	940.0051	956.062	984.0767	1006.1429	1052.1157	1076.8031	1102.0929	1134.3895	1140.6141	1156.3261	1172.0655	1183.5867	1205.11	1225.6329	1226.1218	1267.8253	1313.9847	1385.351	1440.8619	1461.1025	1484.9266	1505.4404	1505.6134	1616.8315	2995.9793	3061.2209	3087.7191	3115.8123	3117.946	3118.9379	3124.942	3194.7839	3211.0856	3229.5196	3256.3074
CN1C2C=CC1C21CC1	CN1[C@H]2C=C[C@@H]1C12CC1	
InChI=1S/C8H11N/c1-9-6-2-3-7(9)8(6)4-5-8/h2-3,6-7H,4-5H2,1H3	InChI=1S/C8H11N/c1-9-6-2-3-7(9)8(6)4-5-8/h2-3,6-7H,4-5H2,1H3/t6-,7+
