14
gdb 132581	3.10699	1.31795	0.93072	1.4529	67.83	-0.2555	-0.0279	0.2276	1152.7377	0.099761	-485.99446	-485.986764	-485.985819	-486.027666	28.024	
C	-0.0343788634	 1.5056496595	-0.0032967565	-0.46529
C	-0.0175547796	-0.0003764414	 0.0224489552	 0.337655
N	-0.2237618695	-0.6222832791	-1.1466738794	-0.31612
C	-0.2171794204	-1.9542882094	-1.1698329407	-0.107394
C	-0.0069745264	-2.7322821586	-0.0412093155	 0.105236
F	-0.0082547971	-4.0618847102	-0.1077941861	-0.058407
C	 0.2070361494	-2.088674435	 1.1720846013	 0.20474
F	 0.4114918108	-2.8030854582	 2.2717336951	-0.051389
C	 0.2026311685	-0.7048348146	 1.2096165364	-0.309398
H	 0.1410033336	 1.9311723253	 0.9873819048	 0.120633
H	 0.7329917631	 1.8818236265	-0.6869843707	 0.144819
H	-0.998137485	 1.8678210402	-0.3745066609	 0.14482
H	-0.3855868819	-2.4472453128	-2.1239855038	 0.12952
H	 0.3688861179	-0.1977238021	 2.152490061	 0.120573
35.1971	141.336	223.6771	274.2108	303.9946	378.2674	442.9569	467.7877	519.2387	583.0599	633.6971	746.7934	752.2676	801.0651	885.5944	946.8533	959.592	1022.5507	1060.4003	1171.3312	1238.479	1290.775	1299.1654	1347.9993	1408.5679	1422.1921	1475.3157	1491.9912	1539.116	1630.9905	1648.4916	3044.0138	3105.0584	3128.9084	3164.382	3204.8945
CC1=NC=C(F)C(F)=C1	Cc1ncc(F)c(F)c1	
InChI=1S/C6H5F2N/c1-4-2-5(7)6(8)3-9-4/h2-3H,1H3	InChI=1S/C6H5F2N/c1-4-2-5(7)6(8)3-9-4/h2-3H,1H3
