22
gdb 86611	2.44076	1.36074	1.15979	2.8582	82.94	-0.2387	0.0756	0.3144	1194.7481	0.194313	-404.305572	-404.296554	-404.29561	-404.339098	35.032	
C	-0.7997053966	 1.0712048536	-0.0150196453	-0.41098
C	-0.0206230327	-0.228761658	-0.1166668701	-0.002076
C	 1.3760811724	-0.2448859138	-0.8236778134	 0.133699
O	 2.1076861469	 0.9516044714	-0.6818165112	-0.438888
C	 1.7980902561	-1.3580040103	 0.1794416985	-0.264384
C	 0.678569657	-0.8572017864	 1.1306487584	 0.008571
N	 1.2153440814	 0.1786708762	 2.012404588	-0.068126
C	 0.4244455697	 0.5224667201	 3.1901720964	-0.221737
C	 1.6827242317	-0.2619709819	 3.3241836549	-0.225677
H	-0.1771607846	 1.8786681124	 0.3761923439	 0.123904
H	-1.1571032664	 1.3800115189	-1.0030761366	 0.116352
H	-1.6737093793	 0.963962311	 0.6368384446	 0.105216
H	-0.6431039603	-1.0086455066	-0.5709169446	 0.071196
H	 1.3899391201	-0.4922700394	-1.8882786464	 0.072275
H	 2.1245293255	 1.1416395951	 0.2688373636	 0.281928
H	 1.5888103004	-2.3619005126	-0.1997506341	 0.098473
H	 2.823843146	-1.3128528442	 0.5529369446	 0.100977
H	 0.1097483746	-1.6153702331	 1.6926148781	 0.044188
H	 0.3990574272	 1.5749738668	 3.4556416928	 0.122207
H	-0.5131820781	-0.0094761891	 3.3390538008	 0.115694
H	 1.5891096547	-1.3197395704	 3.5625266222	 0.115762
H	 2.5898698343	 0.2101340506	 3.6890616547	 0.121425
94.0754	114.7112	170.9447	196.3758	233.9427	261.2228	318.2757	389.8215	413.8513	487.3218	568.2085	625.959	701.4634	740.4991	809.8339	848.5991	880.1719	897.4752	908.8332	928.3052	994.0939	1004.9302	1019.143	1042.9949	1074.6274	1111.0309	1119.7629	1122.3544	1156.6187	1160.0721	1171.2698	1178.8938	1214.3292	1250.4699	1260.6418	1280.6095	1308.9198	1340.6603	1365.8782	1374.2414	1413.402	1460.4302	1475.6977	1490.2439	1492.7962	1499.3087	1518.1107	2961.2287	3033.3499	3040.1714	3059.881	3078.8028	3093.8785	3101.1271	3105.0615	3120.9315	3127.9382	3184.8277	3198.8144	3696.2274
CC1C(O)CC1N1CC1	C[C@H]1[C@@H](O)C[C@H]1N1CC1	
InChI=1S/C7H13NO/c1-5-6(4-7(5)9)8-2-3-8/h5-7,9H,2-4H2,1H3	InChI=1S/C7H13NO/c1-5-6(4-7(5)9)8-2-3-8/h5-7,9H,2-4H2,1H3/t5-,6-,7+/m1/s1
