17
gdb 51706	3.41069	0.97054	0.8183	4.0977	69.07	-0.2576	-0.0326	0.2251	1363.0524	0.135368	-459.02166	-459.013119	-459.012175	-459.056337	30.21	
O	-0.2487656129	 0.414878338	 0.6766521948	-0.234625
C	 0.2996616616	 0.8402083915	-0.3073093702	 0.152916
C	 1.4575732168	 1.821162542	-0.2697752856	-0.290891
C	 1.2008288598	 3.0780607886	-1.1132982676	 0.093173
C	 2.4029852424	 4.0476340672	-1.1726072567	-0.248347
C	 3.1137296598	 3.630697541	-2.4626316727	-0.359234
C	 2.017924687	 2.9674790227	-3.2899899757	 0.429978
O	 2.0222919275	 2.6880416307	-4.4510489611	-0.325429
O	 0.948939822	 2.6991186854	-2.4817597447	-0.227307
H	-0.016544391	 0.5337296413	-1.3262430498	 0.105973
H	 1.642708519	 2.0972220548	 0.7723395954	 0.128579
H	 2.3500129093	 1.3097579728	-0.6578762042	 0.124045
H	 0.2948114516	 3.5775805239	-0.759360164	 0.111981
H	 2.0437396081	 5.0773617103	-1.2489829573	 0.125385
H	 3.0287694026	 3.9765959901	-0.2811247255	 0.121384
H	 3.5605504191	 4.4517172873	-3.0243449458	 0.147684
H	 3.9014151074	 2.8889473224	-2.2911222994	 0.144735
51.1112	71.0599	116.7471	119.7055	213.3142	337.1347	418.6988	497.9853	514.9359	544.4378	662.1101	708.5676	793.1408	821.5609	841.3234	909.6543	974.7425	995.1683	1029.8017	1045.1488	1098.2628	1102.4382	1159.9859	1176.0348	1226.3548	1238.6586	1279.7758	1304.4736	1332.9311	1374.0556	1391.7873	1426.3267	1452.8106	1466.516	1499.3936	1831.7702	1890.23	2922.1412	3018.8006	3061.2075	3065.8203	3077.002	3103.7097	3119.8336	3133.1937
O=CCC1CCC(=O)O1	O=CC[C@H]1CCC(=O)O1	
InChI=1S/C6H8O3/c7-4-3-5-1-2-6(8)9-5/h4-5H,1-3H2	InChI=1S/C6H8O3/c7-4-3-5-1-2-6(8)9-5/h4-5H,1-3H2/t5-/m1/s1
