24
gdb 57187	2.16731	1.24368	1.13604	3.2536	85.15	-0.2399	0.0336	0.2735	1288.2506	0.214679	-405.600106	-405.588648	-405.587704	-405.636121	42.794	
C	 0.3466049357	 1.759180282	-0.0264246071	-0.41262
C	 0.1545102257	 0.2329065789	-0.0287559584	-0.083351
C	 0.7646948425	-0.3126225952	-1.325833491	 0.400201
N	-0.0956754186	-0.9994118782	-2.1349145101	-0.516495
O	 1.9267108544	-0.1260153176	-1.6420280665	-0.377718
C	 0.725582407	-0.5027549067	 1.2346396109	 0.280368
C	-0.1169210873	-0.1148141473	 2.4655025372	-0.418108
C	 0.6057448182	-2.0269800747	 1.0337154835	-0.416978
C	 2.2009455823	-0.144109228	 1.4939063695	-0.413681
H	 1.4010384542	 2.0113729247	-0.1538805798	 0.147303
H	-0.2042488246	 2.2122850288	-0.8569186836	 0.114868
H	-0.0182142825	 2.2117667938	 0.8986743937	 0.113027
H	-0.923864348	 0.0236764094	-0.0420231421	 0.056223
H	-1.0237504278	-1.2469290352	-1.8418948709	 0.256913
H	 0.2777269802	-1.4238606033	-2.9689294997	 0.257308
H	-1.1734061129	-0.3715851913	 2.3257970152	 0.102693
H	 0.2405937199	-0.6509010721	 3.35120179	 0.110869
H	-0.0559170675	 0.9544741793	 2.6870917371	 0.11423
H	 1.2357234341	-2.3784638582	 0.2113409351	 0.127233
H	 0.9192482049	-2.5560203329	 1.939709383	 0.109848
H	-0.4283751023	-2.3240724066	 0.8211526364	 0.093874
H	 2.3161439659	 0.9115970773	 1.7576914066	 0.106956
H	 2.5863683397	-0.7350038794	 2.3321257649	 0.099478
H	 2.8152893566	-0.3401258673	 0.6130808761	 0.14756
45.9102	80.1477	181.1205	196.9336	214.6997	222.6529	258.0314	269.2451	287.038	293.9247	317.2679	337.1803	384.658	404.9709	421.6566	516.3067	585.9151	638.1209	710.3441	797.1442	808.9817	888.1691	936.574	937.8575	964.0952	999.1576	1024.312	1053.1041	1076.1551	1113.4512	1124.4011	1214.5449	1245.0019	1260.4478	1286.3707	1341.1169	1396.0414	1398.6641	1401.9432	1410.6229	1432.4589	1479.3619	1485.0661	1491.2068	1492.3514	1505.2699	1508.0059	1516.7793	1523.7561	1613.6855	1780.9118	3004.5958	3022.2164	3027.8515	3037.4889	3049.4603	3085.8423	3091.8963	3096.896	3104.5149	3108.1723	3114.2071	3136.7892	3143.3917	3597.787	3738.7581
CC(C(N)=O)C(C)(C)C	C[C@@H](C(=O)N)C(C)(C)C	
InChI=1S/C7H15NO/c1-5(6(8)9)7(2,3)4/h5H,1-4H3,(H2,8,9)	InChI=1S/C7H15NO/c1-5(6(8)9)7(2,3)4/h5H,1-4H3,(H2,8,9)/t5-/m0/s1
