19
gdb 110603	3.60562	1.07986	1.03993	2.8809	74.99	-0.2272	0.0582	0.2853	1238.843	0.157387	-422.939353	-422.930614	-422.929669	-422.973232	33.377	
C	-0.0468038898	 1.5397755027	-0.007825857	-0.503907
C	 0.1447753325	 0.0611218378	 0.0179121817	 0.422997
O	-0.7811113853	-0.7517233615	 0.7616158631	-0.285863
C	 0.630675652	-0.8837984601	 1.0193855257	-0.057909
C	 1.275820354	-1.7881669823	-0.0735854643	-0.132761
C	 0.291011884	-2.2523339831	-1.1168223139	-0.040498
C	-1.1123086797	-2.8383482683	-0.9289447005	-0.099192
O	-1.2394251143	-4.0729329341	-1.6313369406	-0.424278
C	 0.7456659826	-0.8114427287	-1.1311813999	-0.166355
H	 0.872079393	 2.0431517541	-0.3258272024	 0.128005
H	-0.8411230483	 1.8155471218	-0.7110900245	 0.133148
H	-0.3230110187	 1.9052209877	 0.9846592627	 0.135304
H	 0.9650203903	-0.7510131329	 2.0417776036	 0.105075
H	 2.278451854	-2.1861358762	 0.0199402828	 0.091616
H	 0.8013046859	-2.7972323564	-1.9111617318	 0.099125
H	-1.3567521856	-2.9578273408	 0.1295356386	 0.108623
H	-1.862112034	-2.1724324803	-1.3641759593	 0.116771
H	-0.7261891136	-4.7322701421	-1.1542738367	 0.27877
H	 1.284588131	-0.3832606973	-1.9675159373	 0.091329
33.2062	150.871	181.7313	204.9518	275.9539	295.5502	342.368	367.9017	442.1858	525.2548	596.2521	675.4305	727.5211	746.0457	782.7897	850.4955	870.625	918.8708	954.3604	963.2397	983.2218	1009.4807	1015.6628	1050.7596	1060.9326	1084.1318	1110.7466	1175.6321	1185.3278	1219.7019	1253.5462	1276.3831	1309.0332	1353.9513	1401.3701	1405.9236	1421.1726	1471.3166	1485.9493	1490.4136	1502.4164	3032.3994	3059.2972	3094.5002	3105.7636	3116.258	3122.7722	3180.5072	3185.6638	3195.8974	3819.1832
CC12OC1C1C(CO)C21	C[C@]12O[C@H]1[C@H]1[C@@H](CO)[C@@H]21	
InChI=1S/C7H10O2/c1-7-5-3(2-8)4(5)6(7)9-7/h3-6,8H,2H2,1H3	InChI=1S/C7H10O2/c1-7-5-3(2-8)4(5)6(7)9-7/h3-6,8H,2H2,1H3/t3-,4+,5-,6+,7-/m1/s1
