18
gdb 67639	3.37311	1.77983	1.61454	1.9798	73.61	-0.2216	0.067	0.2886	900.4107	0.149639	-401.891788	-401.885212	-401.884268	-401.922355	27.469	
C	 0.0500812185	 1.5266230889	 0.0097597823	-0.515781
C	-0.0259874851	 0.0324189341	-0.0285216365	 0.329138
C	 0.5288600404	-1.0062634737	-0.976397556	-0.131901
C	-0.8030777441	-1.7979119669	-0.9437536547	 0.111326
O	-0.7890029731	-2.9713595328	-0.1104862982	-0.309717
C	-0.8183157873	-2.0951630396	 1.0562184137	 0.071373
C	 0.6244614401	-1.7653670631	 1.4166093405	-0.166256
N	 1.0818101584	-0.8163750132	 0.3810790228	-0.156576
C	-1.2768331238	-0.8717558959	 0.1908265723	-0.167184
H	 1.0462035252	 1.8628286271	-0.2898815335	 0.136177
H	-0.6870030095	 1.9781995974	-0.6626422063	 0.120872
H	-0.1444990527	 1.9043911609	 1.0205862608	 0.122792
H	 1.2204137047	-0.9183320345	-1.8076797298	 0.090945
H	-1.3141455311	-1.9331103376	-1.8986912154	 0.083029
H	-1.4496622403	-2.4937680709	 1.8532864624	 0.079935
H	 0.7094518535	-1.2660351867	 2.3888033026	 0.101684
H	 1.2450723483	-2.6648587063	 1.4204048854	 0.12041
H	-2.2853118121	-0.4759775172	 0.2700157477	 0.079733
191.6303	212.7519	262.9991	355.259	427.5557	563.251	564.3176	679.5499	720.2809	729.8091	795.2523	839.8148	842.3604	877.7926	898.8055	914.7754	920.2659	966.6247	989.9336	1001.0373	1023.631	1066.61	1075.3748	1118.1601	1136.358	1162.5641	1206.1568	1211.8122	1227.4791	1254.634	1275.563	1296.5438	1334.0676	1341.1032	1402.996	1442.1097	1480.2693	1484.4198	1492.8673	3028.6905	3040.234	3088.4669	3089.2828	3097.4109	3108.8609	3118.8341	3159.7242	3165.6751
CC12C3C4OC(CN13)C24	C[C@@]12[C@@H]3[C@H]4O[C@@H](CN13)[C@@H]24	
InChI=1S/C7H9NO/c1-7-4-3-2-8(7)6(7)5(4)9-3/h3-6H,2H2,1H3	InChI=1S/C7H9NO/c1-7-4-3-2-8(7)6(7)5(4)9-3/h3-6H,2H2,1H3/t3-,4+,5-,6-,7+,8?/m0/s1
