18
gdb 91516	2.64229	1.40153	1.15411	2.2435	72.48	-0.2497	0.0082	0.2579	1127.0932	0.146685	-439.090607	-439.081745	-439.0808	-439.124161	33.278	
C	-0.3761514667	 1.3791391163	-0.3000273611	-0.415686
C	 0.0198704733	-0.0828711164	-0.167440459	-0.043087
C	 1.3799258257	-0.5627155901	-0.8039102342	-0.270888
C	 1.8200928116	-1.0206182053	 0.5890638212	-0.040504
O	 1.8004058064	 0.1228437941	 1.4505951646	-0.303655
C	 0.5531825532	-0.5507479275	 1.1972098224	 0.340603
C	-0.2358684262	-1.0912476128	 2.3451800956	 0.285526
N	 0.4409496049	-1.1110158853	 3.5249888175	-0.538966
O	-1.3736187869	-1.4958069692	 2.1910769343	-0.367253
H	 0.4248672335	 2.0296931626	 0.0634402062	 0.127132
H	-0.575893499	 1.6357976318	-1.3455406196	 0.116001
H	-1.2823332557	 1.5921992548	 0.2764025335	 0.128239
H	-0.7946927933	-0.7439655649	-0.4719750502	 0.10671
H	 1.253398282	-1.3839707439	-1.5122841015	 0.114297
H	 2.011674463	 0.2111846219	-1.2471761492	 0.113414
H	 2.4621032406	-1.8445108967	 0.8796734094	 0.113607
H	 1.3179996164	-0.6237701712	 3.6017171726	 0.271717
H	-0.0460509929	-1.4094090083	 4.3534835075	 0.262792
70.3758	119.1168	181.2169	193.6972	238.7752	297.078	317.7345	394.0738	430.5245	501.2696	559.5392	616.3734	652.2927	698.7635	758.9308	807.8054	854.672	899.3888	930.7057	942.0947	1013.1333	1045.7372	1084.2591	1106.8714	1112.0994	1146.0591	1194.2455	1219.5971	1247.8097	1271.176	1343.7201	1363.3846	1404.3097	1446.4828	1476.1572	1494.1596	1502.6828	1598.5003	1791.8036	3035.2386	3068.3778	3089.163	3101.7955	3115.5605	3128.5654	3185.8324	3598.4019	3737.7204
CC1CC2OC12C(N)=O	C[C@H]1C[C@H]2O[C@@]12C(=O)N	
InChI=1S/C6H9NO2/c1-3-2-4-6(3,9-4)5(7)8/h3-4H,2H2,1H3,(H2,7,8)	InChI=1S/C6H9NO2/c1-3-2-4-6(3,9-4)5(7)8/h3-4H,2H2,1H3,(H2,7,8)/t3-,4+,6-/m0/s1
