19
gdb 41348	3.03736	1.84987	1.52977	2.3661	73.35	-0.25	0.0665	0.3165	924.4721	0.162577	-423.009974	-423.003406	-423.002462	-423.040585	27.701	
C	 0.0803250077	 1.4627562877	-0.1445472192	-0.188375
O	 1.497003388	 1.4227833446	 0.1794863274	-0.304805
C	 1.3515069528	 0.1012438688	 0.7632166124	 0.120144
C	 2.1525075525	-1.0959861595	 0.2192581483	-0.261718
C	 0.9947691447	-1.8319223835	-0.5105761838	 0.070353
C	-0.1005864602	-2.338621049	 0.4838870913	-0.227283
C	-0.9427294043	-1.0371172563	 0.7527223909	-0.311041
C	-0.0152783217	-0.0455086571	 0.0682012603	 0.377335
O	 0.3333143421	-0.7322986379	-1.1435303459	-0.289719
H	-0.48248193	 2.0650895296	 0.5797653087	 0.100322
H	-0.1078663648	 1.817014709	-1.1617400537	 0.119269
H	 1.3429583486	 0.1670887571	 1.857547158	 0.070497
H	 2.9088781367	-0.7766938868	-0.5016215472	 0.121787
H	 2.632612304	-1.6825177652	 1.0070931356	 0.096285
H	 1.304395336	-2.5647777783	-1.2559762264	 0.08009
H	-0.7113590616	-3.1128871423	 0.0157543499	 0.112184
H	 0.3281009681	-2.7577079724	 1.3982693985	 0.102929
H	-1.9230483596	-1.0894092846	 0.2732933008	 0.109412
H	-1.0821361292	-0.8312265939	 1.816845584	 0.102336
171.3297	246.1762	315.1847	361.0267	410.5222	468.0079	567.854	654.276	717.0671	791.8083	806.2068	844.1271	856.2762	859.6506	890.094	924.8319	937.1682	976.3778	991.0652	1012.5679	1035.3179	1054.8454	1096.9344	1105.2674	1156.3953	1168.2153	1195.2738	1199.7882	1238.0573	1254.6228	1282.2188	1286.9397	1317.3275	1321.3023	1332.9572	1355.1373	1377.0509	1470.7487	1484.042	1503.3258	1503.9341	3021.2442	3033.2251	3062.6065	3065.5658	3071.3102	3096.1929	3105.8153	3118.7161	3120.2522	3126.6557
C1OC2CC3CCC12O3	C1O[C@@H]2C[C@H]3CC[C@@]12O3	
InChI=1S/C7H10O2/c1-2-7-4-8-6(7)3-5(1)9-7/h5-6H,1-4H2	InChI=1S/C7H10O2/c1-2-7-4-8-6(7)3-5(1)9-7/h5-6H,1-4H2/t5-,6-,7-/m1/s1
