14
gdb 7066	6.84158	0.91971	0.857	4.9218	62.83	-0.3101	-0.0045	0.3056	1246.1029	0.105973	-378.744404	-378.735836	-378.734892	-378.778189	29.289	
O	-0.1730787743	 1.3973599943	 0.0112691459	-0.40109
C	-0.0261312693	 0.0003140862	 0.0023316251	 0.135108
C	 0.6918122725	-0.5066690254	-1.2702080556	-0.377141
C	 0.0207994385	-0.0805086456	-2.4950310754	 0.275542
N	-0.5086568904	 0.245175589	-3.4682363803	-0.28948
C	 0.7159370485	-0.5202858014	 1.255386031	-0.377138
C	 0.0684801026	-0.1074319557	 2.4973251952	 0.275542
N	-0.442262748	 0.2076787017	 3.4839202602	-0.28948
H	 0.6970203921	 1.813551599	 0.005160709	 0.291188
H	-1.0474030805	-0.3923773816	 0.0099701028	 0.139464
H	 1.7248437116	-0.1349576658	-1.2854899966	 0.148507
H	 0.7495706066	-1.6011878685	-1.2613842188	 0.160236
H	 0.7734092863	-1.6146395966	 1.2336572007	 0.160235
H	 1.7491072638	-0.1486469596	 1.2549428068	 0.148507
58.9934	87.7242	103.1484	187.8779	293.2345	302.0889	375.448	391.2112	398.2267	435.9491	487.4222	631.5283	869.0972	870.1321	912.6712	988.3741	1015.2783	1046.1892	1121.1169	1195.5965	1207.3982	1282.3014	1343.606	1356.7575	1377.4541	1423.9394	1454.6518	1468.4754	2370.667	2371.0487	3028.4938	3031.2247	3071.6258	3073.4681	3091.7417	3792.464
OC(CC#N)CC#N	OC(CC#N)CC#N	
InChI=1S/C5H6N2O/c6-3-1-5(8)2-4-7/h5,8H,1-2H2	InChI=1S/C5H6N2O/c6-3-1-5(8)2-4-7/h5,8H,1-2H2
