23
gdb 60263	3.72058	0.8658	0.80126	0.9579	88.93	-0.2384	0.0242	0.2626	1567.3559	0.204933	-388.304695	-388.294852	-388.293908	-388.340284	36.589	
C	-0.1798430538	 1.5575869896	 0.1415914843	-0.387363
C	-0.0112712145	 0.0487506318	-0.0050647581	 0.149942
C	 0.8833112473	-0.5414419867	 1.0893882562	-0.384851
O	-1.3198478847	-0.5160177894	 0.0464669417	-0.276378
C	-1.4801343694	-1.7630377768	-0.6185259184	 0.10979
C	-2.7421443525	-2.4682534267	-0.0730123831	-0.24169
C	-3.4415400969	-3.1029639129	-1.2998407373	-0.256075
C	-2.8285945771	-2.3592154927	-2.4631603886	-0.066538
C	-1.7706105648	-1.6378783464	-2.1007243927	-0.07918
H	 0.789759033	 2.0636701169	 0.1058513507	 0.108825
H	-0.811766886	 1.9510762199	-0.6588938338	 0.118944
H	-0.6569262907	 1.7919136594	 1.0986932744	 0.122168
H	 0.4405945776	-0.1623000642	-0.9874862906	 0.064005
H	 0.4594107286	-0.327921425	 2.0758371283	 0.120843
H	 0.979797258	-1.6266314426	 0.9880241206	 0.114365
H	 1.8893777129	-0.1116011045	 1.0425138164	 0.109991
H	-0.5793985527	-2.377337652	-0.4579863324	 0.065605
H	-2.5150719208	-3.1887777338	 0.7159171472	 0.095416
H	-3.3738819698	-1.6881311295	 0.3612521777	 0.120398
H	-3.2320879503	-4.1789809119	-1.3742894713	 0.106331
H	-4.5328785369	-3.0080906874	-1.2633194167	 0.104069
H	-3.2106699524	-2.4455350533	-3.4751116536	 0.091702
H	-1.152439254	-1.0437386818	-2.7646350712	 0.089681
45.7247	60.5881	90.8879	183.9067	213.6634	249.2428	278.8948	315.6555	402.7114	433.4619	436.4646	544.4168	635.8856	751.2905	775.39	827.6282	856.1841	895.0053	923.0447	926.4666	934.1745	949.1907	975.041	998.9732	1038.3307	1080.8026	1093.5954	1142.0465	1145.0167	1156.4133	1185.1204	1207.3463	1234.1986	1291.1679	1307.0302	1330.925	1347.1427	1365.6868	1382.5245	1395.2472	1410.534	1415.9771	1479.7803	1481.5511	1484.704	1493.9232	1498.7714	1508.8522	1686.734	2960.376	2975.6839	3013.6709	3034.0884	3040.7639	3051.1595	3067.8221	3104.3966	3109.2012	3114.1037	3114.6617	3121.0854	3176.8643	3204.1268
CC(C)OC1CCC=C1	CC(C)O[C@H]1CCC=C1	
InChI=1S/C8H14O/c1-7(2)9-8-5-3-4-6-8/h3,5,7-8H,4,6H2,1-2H3	InChI=1S/C8H14O/c1-7(2)9-8-5-3-4-6-8/h3,5,7-8H,4,6H2,1-2H3/t8-/m1/s1
