24
gdb 58086	2.09226	1.27498	1.1852	3.2038	84.89	-0.2378	0.037	0.2749	1270.7394	0.214739	-405.597686	-405.58617	-405.585226	-405.634037	42.861	
C	-0.0459045717	 1.6406106543	-0.1811692074	-0.414819
C	-0.0386039765	 0.1058315909	-0.0872507322	 0.060324
C	-1.4659788461	-0.4136887324	 0.1356152538	-0.425001
C	 0.7067321022	-0.5650313627	-1.2899586257	 0.167728
C	 0.7346041207	-2.1024079854	-1.1247879574	-0.419254
C	 0.0627435614	-0.2214917877	-2.6448637316	-0.463437
C	 2.1869700933	-0.1248139256	-1.1796597092	 0.409209
N	 2.7744894946	 0.4059536133	-2.290482756	-0.541055
O	 2.8141046391	-0.2781787114	-0.1461714575	-0.390495
H	 0.9590698861	 2.0450635602	-0.3348682461	 0.12253
H	-0.6854455016	 1.9975818606	-0.9963314662	 0.107348
H	-0.4348703243	 2.0732317873	 0.7461063183	 0.113029
H	 0.558919741	-0.1612438517	 0.7906149382	 0.103298
H	-2.122668155	-0.1970084358	-0.7146643751	 0.109224
H	-1.4952206869	-1.4905318779	 0.3193737758	 0.115879
H	-1.903786126	 0.0772910846	 1.0109997656	 0.113519
H	-0.2669279946	-2.5292946366	-1.2237947774	 0.111903
H	 1.3657477262	-2.5606049562	-1.8940292828	 0.111845
H	 1.1441282351	-2.3748456669	-0.1494277294	 0.1374
H	 0.0790239495	 0.8509503456	-2.8624521976	 0.117184
H	 0.5622896148	-0.7494372615	-3.4647394638	 0.114301
H	-0.9838351214	-0.5385180021	-2.6617654636	 0.124342
H	 2.2765222215	 0.598116337	-3.1394540421	 0.257589
H	 3.7367834686	 0.6924529303	-2.2137073305	 0.25741
42.8121	59.9807	149.2863	186.5238	218.551	233.5779	251.8326	272.4598	290.726	315.1298	335.5532	351.9972	372.9121	404.8401	475.3116	484.3453	588.0588	597.6651	675.2105	772.784	811.7592	905.2705	929.6285	938.3431	951.8945	970.7318	1019.787	1070.1779	1094.5173	1119.6712	1169.4096	1202.3691	1210.6564	1248.5865	1340.962	1361.4007	1366.2315	1394.2196	1402.4731	1416.7601	1429.2883	1485.321	1486.287	1490.76	1503.0522	1510.1158	1513.4436	1515.6994	1522.3216	1614.543	1773.3639	3029.6957	3031.4596	3035.6728	3041.0678	3054.548	3089.6811	3094.223	3100.3222	3102.7949	3107.2624	3109.4589	3117.5379	3132.7085	3610.6842	3753.738
CC(C)C(C)(C)C(N)=O	CC(C)C(C)(C)C(=O)N	
InChI=1S/C7H15NO/c1-5(2)7(3,4)6(8)9/h5H,1-4H3,(H2,8,9)	InChI=1S/C7H15NO/c1-5(2)7(3,4)6(8)9/h5H,1-4H3,(H2,8,9)
