16
gdb 70920	3.67135	1.59394	1.36631	1.7036	68.35	-0.2515	0.0019	0.2533	931.0449	0.125532	-437.805502	-437.798799	-437.797855	-437.836179	27.583	
O	-0.0045661641	 1.3699937594	 0.0566247033	-0.465341
C	 0.0273787503	-0.0042338966	 0.0204236396	 0.347017
C	 0.6577304982	-0.9540232087	-1.1309293213	-0.384665
C	-0.040996451	-1.8634365895	-0.0975175188	 0.353269
C	 0.6065082339	-0.9975575597	 1.0462535586	-0.333018
N	-0.5789690957	-3.172458713	 0.2204450591	-0.359889
C	-1.6642098158	-2.8453160832	 0.8166251321	 0.087647
O	-2.0635175428	-1.5242050278	 0.8805382557	-0.256938
C	-1.219781076	-0.905232485	-0.1223884547	 0.059583
H	 0.8829571115	 1.6963357702	 0.2416266581	 0.289614
H	 0.2058606593	-0.8874029613	-2.1228550971	 0.111292
H	 1.7485895843	-0.9706097678	-1.1716304348	 0.10551
H	 1.6944470867	-1.0502219627	 1.1270140112	 0.095541
H	 0.1157406087	-1.0410510808	 2.0187273413	 0.116798
H	-2.335748726	-3.5321115602	 1.3194000421	 0.143031
H	-1.8041360516	-0.7894742433	-1.0392067744	 0.090549
215.0797	243.1964	279.6374	313.7239	415.3656	493.7107	516.1069	583.6566	587.5931	647.1523	725.9278	773.1374	832.858	895.577	919.284	943.4018	956.3651	1004.2386	1026.5609	1041.8489	1049.5394	1081.8357	1107.2185	1121.6527	1132.0389	1150.7114	1211.825	1271.1367	1300.1222	1319.6851	1364.0235	1407.5218	1489.5733	1537.948	1607.7547	3065.4256	3072.1354	3079.1212	3140.4213	3149.0356	3219.6915	3809.4492
OC12CC3(C1)N=COC23	O[C@@]12C[C@]3(C1)[N][CH]O[C@@H]23	
InChI=1S/C6H7NO2/c8-6-1-5(2-6)4(6)9-3-7-5/h3-4,8H,1-2H2	InChI=1S/C6H7NO2/c8-6-1-5(2-6)4(6)9-3-7-5/h3-4,8H,1-2H2/t4-,5-,6+/m1/s1
