22
gdb 102555	2.12836	1.28612	1.05033	3.3171	78.49	-0.2433	0.0621	0.3053	1286.1225	0.192383	-441.441002	-441.430542	-441.429598	-441.476666	38.107	
C	 0.1647510831	 1.2135526337	-0.3305267119	-0.243445
O	 0.0565348496	-0.1927535659	-0.2262453195	-0.256474
C	-1.2624769978	-0.6727680725	 0.0433303532	-0.002249
C	-2.0494308711	-0.7562671592	-1.2786503988	-0.072506
O	-1.3084300737	-1.3917222936	-2.2994740393	-0.416219
C	-1.1342104748	-1.9964760913	 0.7875332235	 0.366124
C	-0.3410032574	-3.0992621739	 0.1170195441	-0.465873
C	-1.1708675603	-1.9231415362	 2.2705985154	-0.286245
N	-2.3313531985	-2.4486708945	 1.5226619923	-0.358222
H	 1.2197913484	 1.4409295247	-0.5006854828	 0.134259
H	-0.421338858	 1.6225543079	-1.1654772814	 0.11588
H	-0.1606313005	 1.7078101057	 0.5965938544	 0.11317
H	-1.7849978394	 0.036510293	 0.7067026086	 0.057587
H	-2.969902703	-1.3305553005	-1.1268113262	 0.114699
H	-2.3475441209	 0.2602169385	-1.5853218322	 0.084662
H	-0.3976416016	-1.0910403046	-2.1840717896	 0.288916
H	 0.6938602467	-2.7793012875	-0.0382876844	 0.121463
H	-0.34198635	-3.9906983459	 0.7489752208	 0.117271
H	-0.767911801	-3.3563320774	-0.8547798337	 0.141778
H	-0.6368149933	-2.6634884502	 2.8598588416	 0.117309
H	-1.2503366923	-0.9460462465	 2.7407168725	 0.10455
H	-3.0634625139	-1.7417021837	 1.4855677035	 0.223565
61.7908	66.074	133.0998	164.3489	193.1586	226.7863	237.4606	296.5016	323.4795	335.27	367.4485	458.364	467.5252	499.821	662.4047	767.3697	834.9956	866.2299	901.7995	928.3152	971.6581	993.0433	1038.8314	1053.9687	1091.7158	1102.9454	1123.5749	1127.261	1146.21	1181.9115	1213.0886	1229.6912	1258.1119	1299.8716	1336.7647	1358.7933	1374.9764	1405.3301	1429.7253	1435.3797	1479.7428	1483.9818	1487.7878	1505.8599	1508.9525	1513.6234	1517.9082	2954.5137	2969.8056	2990.1982	3040.928	3048.4864	3067.7892	3105.05	3117.8555	3119.8785	3135.131	3189.278	3477.7665	3766.7209
COC(CO)C1(C)CN1	CO[C@@H](CO)[C@@]1(C)CN1	
InChI=1S/C6H13NO2/c1-6(4-7-6)5(3-8)9-2/h5,7-8H,3-4H2,1-2H3	InChI=1S/C6H13NO2/c1-6(4-7-6)5(3-8)9-2/h5,7-8H,3-4H2,1-2H3/t5-,6+/m0/s1
