20
gdb 99171	5.24459	0.74752	0.68226	4.6962	76.73	-0.2371	0.028	0.265	1657.0895	0.17028	-440.294906	-440.284895	-440.283951	-440.331884	34.255	
C	-0.3947791262	 1.3968013471	 0.124101893	-0.334308
N	-0.1007651064	-0.0229806741	 0.1501002163	-0.314901
C	 0.3631320215	-0.6614508218	 1.2623332345	 0.425099
O	 0.6017813052	-0.0850979058	 2.3108761311	-0.369228
C	 0.5451597853	-2.1714523138	 1.1075534411	-0.357899
C	 1.4911347751	-2.7339152951	 2.1577170626	 0.001191
C	 0.9958043881	-2.7742054832	 3.6185748463	-0.065374
O	 1.1948016786	-4.2059709913	 3.6918361936	-0.276561
C	 1.5679474313	-4.2702268695	 2.3036367254	-0.097866
H	-0.1387801201	 1.7978253593	 1.1053113609	 0.173083
H	 0.1982027779	 1.9123541233	-0.6392956464	 0.126124
H	-1.4567416119	 1.5831093997	-0.0722740296	 0.12627
H	-0.2748830281	-0.5677969382	-0.6779822439	 0.245031
H	-0.4429656716	-2.6424180512	 1.2064801413	 0.128826
H	 0.9001191999	-2.4096466309	 0.0964741634	 0.105168
H	 2.4725661254	-2.2641045031	 2.0649449977	 0.088392
H	 1.6013085197	-2.2330984653	 4.3517585206	 0.111286
H	-0.0565407169	-2.4974117603	 3.7558865357	 0.099783
H	 0.8331137541	-4.8283442002	 1.7043255603	 0.087603
H	 2.555320459	-4.7263901058	 2.1603461161	 0.09828
27.1602	71.4352	79.9195	90.6586	122.3783	175.6714	266.913	320.9433	356.7369	434.7267	458.9209	616.5685	705.1913	768.1443	879.3428	889.4906	901.6904	910.2231	981.0899	1029.4261	1035.691	1076.8013	1105.7625	1148.3691	1150.2705	1156.4534	1164.7114	1170.7154	1222.2632	1249.0023	1266.8678	1306.8495	1346.8939	1374.6789	1404.6981	1438.806	1461.7731	1494.2601	1500.583	1512.7817	1538.0986	1562.714	1771.9051	2986.658	3012.4481	3027.7885	3028.5653	3038.9883	3049.1455	3076.519	3079.7506	3094.6509	3155.055	3647.3171
CNC(=O)CC1COC1	CNC(=O)CC1COC1	
InChI=1S/C6H11NO2/c1-7-6(8)2-5-3-9-4-5/h5H,2-4H2,1H3,(H,7,8)	InChI=1S/C6H11NO2/c1-7-6(8)2-5-3-9-4-5/h5H,2-4H2,1H3,(H,7,8)
