18
gdb 85283	2.58311	1.57121	1.17195	4.3635	72.11	-0.2397	0.0103	0.2501	1089.1567	0.147212	-439.119071	-439.110511	-439.109567	-439.15195	32.497	
C	-0.1111566801	 1.5258005416	 0.0660213963	-0.40162
C	 0.0021114953	 0.003061978	-0.0202918462	-0.01749
N	 0.8221111204	-0.4436708929	-1.1411902552	-0.345627
C	 1.8578936235	-1.2898564364	-0.8421015916	 0.449245
O	 2.6059210929	-1.8298786488	-1.6259596443	-0.382133
C	 1.8542560738	-1.4096295317	 0.6699578524	-0.18371
O	 2.0616689053	-0.130734442	 1.3050701253	-0.288949
C	 0.7232240045	-0.6241459314	 1.1832403847	 0.416919
C	-0.0250945019	-0.8957198088	 2.4570974814	-0.493463
H	 0.8785976364	 1.9642715155	 0.2125838097	 0.147355
H	-0.5489996873	 1.9366178365	-0.8490889121	 0.117256
H	-0.7564533786	 1.8172354597	 0.9007161151	 0.122767
H	-1.0037805492	-0.436412735	-0.091034387	 0.086941
H	 0.6897499638	-0.1119344133	-2.0835963249	 0.25172
H	 2.2973221369	-2.2725647324	 1.1552448458	 0.115303
H	-0.4293021385	 0.0318724202	 2.8769636159	 0.134167
H	-0.8614620828	-1.5793179451	 2.2800696599	 0.130525
H	 0.6420437057	-1.3403653335	 3.1989128649	 0.140793
106.023	144.2173	188.5788	233.1085	245.8865	283.9579	338.2783	411.9705	480.5297	494.1877	532.7719	568.5325	672.9442	719.3794	763.0521	836.8702	882.1438	922.4759	969.463	1010.8353	1029.8942	1053.9944	1086.2301	1131.9218	1149.1293	1220.2495	1250.9597	1300.6213	1328.8404	1376.8162	1403.8392	1408.1907	1434.0117	1453.7742	1484.1901	1495.0745	1495.9128	1501.7554	1835.7379	2993.6591	3038.6667	3041.7752	3101.5494	3107.0612	3130.7129	3135.8073	3183.6029	3639.3172
CC1NC(=O)C2OC12C	C[C@H]1NC(=O)[C@H]2O[C@@]12C	
InChI=1S/C6H9NO2/c1-3-6(2)4(9-6)5(8)7-3/h3-4H,1-2H3,(H,7,8)	InChI=1S/C6H9NO2/c1-3-6(2)4(9-6)5(8)7-3/h3-4H,1-2H3,(H,7,8)/t3-,4-,6+/m1/s1
