13
gdb 20655	3.42573	2.30692	1.39027	4.9975	63.4	-0.266	-0.0817	0.1843	827.4227	0.095415	-398.61434	-398.607544	-398.606599	-398.645405	24.862	
C	-0.0243167789	 1.5170771912	-0.0139800082	-0.476644
C	-0.0548464256	 0.0225583726	 0.0033130653	 0.136167
C	-1.1579185739	-0.7404901241	-0.1472267789	-0.189578
C	-1.0360320283	-2.1682005102	-0.1083039857	 0.036835
N	 0.0677263464	-2.8130852179	 0.0622672958	-0.05786
O	 1.2097818567	-2.0461908149	 0.2179699593	-0.254693
C	 1.2311279543	-0.6576137448	 0.2023086219	 0.415044
O	 2.2921338246	-0.111543109	 0.3512461587	-0.323931
H	 0.6424484094	 1.8745646417	-0.8056461795	 0.159821
H	-1.0219074712	 1.934192749	-0.1663904193	 0.126486
H	 0.3888265388	 1.8999766321	 0.9250140731	 0.159872
H	-2.1372020883	-0.2967223842	-0.2974052658	 0.124714
H	-1.905226814	-2.8080041215	-0.2258382969	 0.143768
120.1541	149.8057	234.1909	286.5391	384.4826	479.9373	536.4074	562.5049	584.4237	724.563	775.3624	886.3099	887.6023	943.5004	962.6998	1007.1228	1066.6358	1068.6076	1096.105	1251.5349	1347.8486	1383.9958	1414.9426	1464.896	1478.5602	1615.4079	1692.7769	1827.7321	3043.0199	3099.5348	3134.754	3177.8774	3192.3748
CC1=CC=NOC1=O	Cc1ccnoc1=O	
InChI=1S/C5H5NO2/c1-4-2-3-6-8-5(4)7/h2-3H,1H3	InChI=1S/C5H5NO2/c1-4-2-3-6-8-5(4)7/h2-3H,1H3
