24
gdb 99025	3.14338	0.87889	0.82823	3.2905	86.96	-0.2374	0.0358	0.2732	1585.2681	0.214385	-405.604225	-405.592732	-405.591787	-405.641149	42.115	
C	 0.2140115912	 1.4266159723	-0.2827619254	-0.366461
C	-0.0383653421	 0.0222204712	 0.2669553868	-0.29376
C	-1.5195724579	-0.3619298701	 0.1997771399	 0.428363
O	-2.4061330326	 0.4723407011	 0.3041493605	-0.390952
N	-1.7551682942	-1.6943250636	 0.0436753659	-0.345735
C	-3.0825913095	-2.3439834912	 0.0181829589	 0.285937
C	-3.9064271328	-1.8072719296	-1.1666546054	-0.398668
C	-2.8268005516	-3.8471898392	-0.1595202116	-0.427917
C	-3.8208333861	-2.0888013018	 1.3448937658	-0.400272
H	 1.2480873406	 1.7350958369	-0.1054665243	 0.106489
H	 0.0255035701	 1.4683424942	-1.359901638	 0.11976
H	-0.4586171427	 2.1394209422	 0.1982051466	 0.145582
H	 0.5769002249	-0.7211999491	-0.2536080327	 0.094812
H	 0.2541867371	-0.0211291091	 1.324636631	 0.126557
H	-0.9537131977	-2.2989815677	-0.033373143	 0.236843
H	-3.3932151937	-2.0049243788	-2.1132790842	 0.103433
H	-4.8846909883	-2.297732107	-1.1985418906	 0.105759
H	-4.0538002935	-0.7311666288	-1.0679197803	 0.154118
H	-2.2360483165	-4.249159319	 0.671379721	 0.113422
H	-3.7749901822	-4.3903578421	-0.1895041497	 0.125603
H	-2.2939939005	-4.0496755347	-1.0953863297	 0.114142
H	-3.9657240403	-1.0184697382	 1.4973089184	 0.15368
H	-4.799212338	-2.5798157528	 1.3329535844	 0.106472
H	-3.2479957235	-2.4885392951	 2.1879919757	 0.102793
30.876	68.2589	118.4577	155.1774	207.2691	219.0938	270.5752	276.1039	279.8338	308.9138	330.981	344.7926	404.4373	418.599	459.4104	486.7992	602.4432	700.2814	765.4237	811.228	913.708	923.1756	931.6822	933.1168	964.2167	1021.839	1055.0683	1068.8211	1093.2479	1096.4103	1224.7145	1247.5965	1251.2521	1273.1233	1290.1985	1375.8032	1391.6666	1394.6485	1406.097	1424.0586	1465.2841	1471.3501	1488.3479	1491.0813	1492.6266	1493.313	1505.6066	1507.2186	1526.5754	1533.3901	1762.0726	3021.5733	3026.4103	3035.6551	3041.5719	3046.8108	3058.5956	3091.9905	3101.1382	3104.1036	3112.5378	3117.9138	3138.9153	3145.3688	3149.0602	3636.2317
CCC(=O)NC(C)(C)C	CCC(=O)NC(C)(C)C	
InChI=1S/C7H15NO/c1-5-6(9)8-7(2,3)4/h5H2,1-4H3,(H,8,9)	InChI=1S/C7H15NO/c1-5-6(9)8-7(2,3)4/h5H2,1-4H3,(H,8,9)
