16
gdb 16854	4.31424	1.86114	1.42537	3.4354	65.51	-0.252	0.0313	0.2832	857.9742	0.133593	-379.908692	-379.902175	-379.901231	-379.93937	25.577	
N	-0.0269696518	 0.8655223066	 1.076316576	-0.517633
C	 0.0442170243	 0.0808459186	 0.0843555926	 0.39871
C	-1.1958625377	-0.3980697576	-0.6392846287	-0.302286
C	-1.1025482307	-1.8844489873	-0.9506428368	-0.029643
N	-0.9209595698	-2.245496005	-2.3664952928	-0.331255
C	 0.224141451	-2.3364277646	-1.4389274412	-0.052797
C	 1.2446917179	-1.2224589126	-1.5486901711	-0.090402
O	 1.241676239	-0.3866056457	-0.3750629108	-0.249922
H	 0.9124681641	 1.083409002	 1.4164633797	 0.215747
H	-2.0584773956	-0.1466276783	-0.0226160227	 0.135834
H	-1.2915742857	 0.1457518855	-1.5865668578	 0.138673
H	-1.6738594974	-2.5564119022	-0.3173315224	 0.101401
H	-1.2958447023	-3.1754655951	-2.536846736	 0.236568
H	 0.5860435727	-3.3191047294	-1.1529275605	 0.098528
H	 2.2671801897	-1.598256936	-1.6175584904	 0.121312
H	 1.0330776922	-0.6190067588	-2.4382953969	 0.127164
105.8845	196.6845	308.7038	418.9396	436.2923	473.8863	506.552	582.636	721.9568	790.6335	842.1684	851.7798	912.0102	920.4815	930.5354	965.5771	1004.3349	1023.9565	1043.5771	1113.2144	1121.4596	1161.7769	1217.2768	1235.8082	1252.5682	1280.2616	1304.044	1326.5636	1388.4342	1414.5533	1448.9188	1465.5622	1503.8298	1750.5685	3044.2016	3048.6903	3115.0689	3135.902	3152.2509	3161.8604	3457.4229	3503.8411
N=C1CC2NC2CO1	[NH][C]1C[C@H]2N[C@H]2CO1	
InChI=1S/C5H8N2O/c6-5-1-3-4(7-3)2-8-5/h3-4,6-7H,1-2H2	InChI=1S/C5H8N2O/c6-5-1-3-4(7-3)2-8-5/h3-4,6-7H,1-2H2/t3-,4+/m1/s1
