19
gdb 44736	2.73792	1.67506	1.47791	2.7829	78.48	-0.2344	-0.0088	0.2256	973.0758	0.162341	-385.933296	-385.926308	-385.925364	-385.964648	28.887	
O	 0.0066286473	-0.086675938	 0.2488640447	-0.309718
C	-0.0130081655	 1.0996930558	 0.0215924024	 0.395827
C	-1.3400675093	 1.8624670123	-0.0935968932	-0.303707
C	-1.2400731794	 3.0962360758	-1.0251796631	-0.062727
C	-0.0608324243	 3.9710307909	-0.550839959	-0.216846
C	 1.1293277181	 3.129388674	-1.0568343038	-0.062727
C	 1.2886429376	 1.8992499231	-0.1287138019	-0.303707
C	 0.5998247187	 2.6744056539	-2.4110228122	-0.071447
C	-0.7344093665	 2.6557420428	-2.3931993801	-0.071447
H	-2.0995745326	 1.1474855138	-0.4219232882	 0.12149
H	-1.6240407227	 2.1847440274	 0.9185235511	 0.119536
H	-2.1966559567	 3.6249404803	-1.0530721578	 0.069603
H	-0.0811217731	 4.9438904328	-1.0506447344	 0.100137
H	-0.0486590236	 4.1347792482	 0.531871263	 0.088202
H	 2.0696599604	 3.6846347619	-1.1100701675	 0.069603
H	 1.5904194607	 2.2297246843	 0.8755811822	 0.119536
H	 2.0588146832	 1.2056728272	-0.477474452	 0.12149
H	 1.2363264884	 2.3319369284	-3.2185985066	 0.098452
H	-1.3824255307	 2.295303745	-3.1836151235	 0.098452
76.351	241.2123	328.9196	378.6819	387.5037	463.404	476.477	589.1128	612.6102	704.3404	755.4066	759.304	827.899	849.1271	872.2517	878.8222	913.6461	947.8036	974.1195	997.0388	1023.4741	1026.6073	1077.2638	1080.8926	1131.4348	1167.0213	1207.2935	1211.1117	1228.5524	1267.386	1299.7485	1311.4657	1330.0911	1344.4382	1358.0372	1379.3948	1454.3671	1455.1991	1493.0808	1661.1436	1813.8671	3014.429	3016.7848	3044.2426	3068.5172	3072.2689	3093.2064	3093.9552	3096.6556	3189.2675	3214.4337
O=C1CC2CC(C1)C=C2	O=C1C[C@H]2C[C@@H](C1)C=C2	
InChI=1S/C8H10O/c9-8-4-6-1-2-7(3-6)5-8/h1-2,6-7H,3-5H2	InChI=1S/C8H10O/c9-8-4-6-1-2-7(3-6)5-8/h1-2,6-7H,3-5H2/t6-,7+
