16
gdb 124887	3.71104	1.27212	1.07936	2.0199	69.63	-0.2555	-0.0262	0.2293	1114.4945	0.125258	-434.040303	-434.032554	-434.03161	-434.07331	28.578	
C	-0.0930804466	 1.5023983514	-0.0353470258	-0.47018
C	-0.0230888379	-0.0108622213	-0.0481116677	 0.180793
C	 0.774981299	-0.7120820693	-1.0853830564	-0.269259
N	 1.252793716	-0.678297821	 0.3067573947	-0.333854
C	-1.2159824331	-0.6886156376	 0.5246850124	 0.389138
N	-1.7461633371	-1.7643687706	 0.0047119078	-0.18327
O	-2.8048854994	-2.0625917374	 0.8714914303	-0.153444
C	-2.7912016276	-1.1145799284	 1.8080929969	 0.10435
N	-1.8541813183	-0.2351287165	 1.6658323429	-0.317391
H	 0.8192687627	 1.9270368925	-0.4652229043	 0.113732
H	-0.9436206248	 1.8633565807	-0.6229458498	 0.132338
H	-0.2104901303	 1.8756219414	 0.9857946088	 0.149477
H	 0.4651654512	-1.6903854725	-1.4367264179	 0.146049
H	 1.2704303029	-0.090582685	-1.8268909095	 0.112655
H	 1.9764711239	 0.0297334357	 0.4134719854	 0.231766
H	-3.5482741106	-1.1707343523	 2.5766632524	 0.1671
41.0654	150.9046	193.0821	219.7423	314.7513	347.4951	415.1127	495.5351	552.8698	633.3443	784.9448	816.6345	856.4738	904.055	913.4414	938.3502	974.3855	986.2023	988.3155	1020.68	1058.5753	1122.6313	1147.8249	1154.2132	1241.6146	1271.2925	1315.8054	1333.3514	1405.5839	1415.5883	1478.9155	1497.9713	1508.8177	1541.3746	1598.3484	3037.0871	3105.0708	3116.4675	3119.6815	3211.1142	3265.7645	3487.3872
CC1(CN1)C1=NOC=N1	C[C@]1(CN1)c1nocn1	
InChI=1S/C5H7N3O/c1-5(2-7-5)4-6-3-9-8-4/h3,7H,2H2,1H3	InChI=1S/C5H7N3O/c1-5(2-7-5)4-6-3-9-8-4/h3,7H,2H2,1H3/t5-/m0/s1
