12
gdb 133209	3.10628	1.4716	1.00476	3.3851	60.59	-0.2828	-0.1037	0.1791	1068.0336	0.0756	-513.911048	-513.90359	-513.902646	-513.943359	26.858	
C	-0.2091108856	 1.5247003808	 0.0713474455	-0.452022
C	 0.0233384464	 0.0489600216	-0.0195310266	 0.392855
N	 0.0786946257	-0.4695524554	-1.2004180012	-0.109374
O	 0.2969980686	-1.8520770891	-1.2707466945	-0.246155
C	 0.4482571659	-2.6442792254	-0.1685879862	 0.354108
O	 0.6332506803	-3.8215718202	-0.2690254366	-0.303683
C	 0.3555725058	-1.880265056	 1.1003862121	 0.215799
F	 0.495318661	-2.5998788867	 2.1831028841	-0.011057
N	 0.1590256161	-0.6308378791	 1.1881321579	-0.31018
H	 0.6207426016	 1.9977600215	 0.6055509727	 0.155714
H	-0.3011286552	 1.9584081529	-0.9240813851	 0.158288
H	-1.1196409205	 1.721120295	 0.6459403779	 0.155707
84.804	166.9282	201.4441	296.2849	325.1929	332.216	433.346	486.9797	531.5657	591.753	650.5204	668.672	800.9704	808.9172	947.5021	1017.7408	1057.9925	1065.2541	1148.6376	1308.8142	1391.0963	1421.9387	1467.3005	1472.3168	1610.1373	1711.3315	1858.7946	3050.6625	3111.1559	3164.1435
CC1=NOC(=O)C(F)=N1	Cc1noc(=O)c(F)n1	
InChI=1S/C4H3FN2O2/c1-2-6-3(5)4(8)9-7-2/h1H3	InChI=1S/C4H3FN2O2/c1-2-6-3(5)4(8)9-7-2/h1H3
