15
gdb 125660	3.46568	1.73839	1.16611	2.4239	72.82	-0.2059	0.0065	0.2124	989.3504	0.115811	-413.026554	-413.01938	-413.018435	-413.058012	27.24	
C	-0.0231840392	 1.4961583339	-0.0116432084	-0.493526
C	 0.0069292622	 0.0114986831	-0.0006830574	 0.354177
N	 0.0078244796	-0.7498675338	-1.0665645786	-0.255794
N	 0.0395870188	-2.0421011098	-0.6118615382	-0.360979
C	 0.059180653	-2.0846986137	 0.7475896526	 0.498
N	 0.0893130161	-2.9477233152	 1.7347851934	-0.405643
C	 0.0873603542	-2.1228586046	 2.8478710742	-0.07645
C	 0.0564647358	-0.7843852235	 2.533611045	-0.177933
N	 0.0381356189	-0.7643751082	 1.1416441339	-0.061438
H	 0.857875661	 1.9140866273	 0.4881268084	 0.14458
H	-0.041075634	 1.8463256819	-1.0444113513	 0.160682
H	-0.909767606	 1.8785201014	 0.5065455239	 0.144651
H	 0.0475015391	-2.8049841845	-1.2631928945	 0.286514
H	 0.1088617967	-2.5485829813	 3.8405620263	 0.112261
H	 0.0467407139	 0.1091309471	 3.1316035308	 0.130898
150.1886	173.1732	242.099	253.168	266.4714	409.3893	538.2104	608.6607	636.8633	641.6718	672.2355	721.8642	760.4056	840.7824	869.3107	951.4622	1002.8356	1067.674	1068.1265	1119.1025	1150.3249	1181.6444	1249.8029	1329.4997	1375.4967	1402.2375	1416.9833	1458.7402	1476.4362	1489.7374	1512.5458	1602.1677	1664.7419	3035.4585	3087.1649	3151.0814	3243.7594	3298.6798	3714.9546
CC1=NNC2=NC=CN12	Cc1n[nH]c2nccn12	
InChI=1S/C5H6N4/c1-4-7-8-5-6-2-3-9(4)5/h2-3H,1H3,(H,6,8)	InChI=1S/C5H6N4/c1-4-7-8-5-6-2-3-9(4)5/h2-3H,1H3,(H,6,8)
