13
gdb 124149	6.95927	0.76666	0.69358	4.3099	75.04	-0.2535	-0.0538	0.1997	1543.1252	0.088504	-452.727614	-452.719287	-452.718342	-452.763415	28.54	
C	-0.035609113	 1.4254969873	 0.0091368121	-0.514605
C	 0.0180970505	-0.0246378855	 0.009227964	 0.333385
C	 0.0656323361	-1.2288638362	 0.0097809578	-0.105721
C	 0.1062220779	-2.6357849726	 0.0091167067	 0.254294
N	 1.1489822113	-3.4202162616	 0.0953053094	-0.398955
C	 0.5677086202	-4.6573224008	 0.0423350915	 0.394523
O	 1.277497767	-5.7822506485	 0.0992659623	-0.406228
N	-0.738616399	-4.6743867294	-0.0685769245	-0.175795
O	-1.0533426718	-3.3077331609	-0.0912624092	-0.203896
H	 0.9715169309	 1.854397529	-0.0022748539	 0.167195
H	-0.5737461473	 1.7957935118	-0.869915447	 0.167837
H	-0.5529432797	 1.7963988875	 0.9004949047	 0.1678
H	 2.2053362571	-5.5287692101	 0.1787416562	 0.320165
6.6605	85.5626	91.398	251.0499	303.7648	360.6374	406.404	413.9129	471.494	475.1997	574.0687	724.142	751.5757	786.1958	946.8989	970.5384	1046.8436	1048.3393	1052.0285	1110.5959	1216.9401	1302.5642	1409.9827	1442.1993	1469.2873	1469.3362	1588.6941	1655.7156	2369.2307	3033.7625	3098.1108	3103.8583	3811.7055
CC#CC1=NC(O)=NO1	CC#Cc1nc(O)no1	
InChI=1S/C5H4N2O2/c1-2-3-4-6-5(8)7-9-4/h1H3,(H,7,8)	InChI=1S/C5H4N2O2/c1-2-3-4-6-5(8)7-9-4/h1H3,(H,7,8)
