16
gdb 52384	4.65486	0.64056	0.59291	1.4493	68.91	-0.2571	-0.0859	0.1713	1767.7916	0.121571	-475.063848	-475.05405	-475.053106	-475.10134	32.355	
O	 0.1440590928	 0.2131448659	 0.4148380198	-0.230072
C	 0.1266575876	 1.3102261454	-0.0793388551	 0.15657
C	 1.3470986236	 2.1761462906	-0.3007022088	-0.273181
C	 1.5267854552	 2.5252337825	-1.793302628	-0.17441
N	 2.6065256433	 3.4650251075	-2.0246087688	-0.300078
C	 2.4370114586	 4.8003720395	-1.9141431296	 0.302854
O	 1.3951171168	 5.3728313916	-1.6438755088	-0.364166
C	 3.7207576773	 5.594204181	-2.1715515448	 0.105888
O	 4.7833626031	 5.0781331585	-2.4045109865	-0.244744
H	-0.8297021927	 1.7701577344	-0.4217146005	 0.082893
H	 1.1990036569	 3.1161530066	 0.2463956406	 0.145517
H	 2.2261506093	 1.6637609586	 0.0987098206	 0.12391
H	 1.7260610543	 1.6208036	-2.3746851836	 0.13012
H	 0.608332823	 2.9811436815	-2.175717649	 0.146841
H	 3.5461299533	 3.1435772094	-2.2087869644	 0.270544
H	 3.5684171476	 6.6895558568	-2.1133485931	 0.121512
22.4225	52.5887	64.6459	81.3696	174.8511	194.7762	275.6572	278.4576	417.3908	513.0971	517.5413	549.3845	640.5949	714.2377	767.8617	836.0847	923.6293	982.6358	1026.5011	1084.7077	1110.0116	1136.7157	1222.9187	1264.0499	1281.2852	1343.0845	1362.7426	1404.4148	1431.8418	1461.5861	1480.689	1552.2622	1781.5248	1822.9308	1837.2576	2863.6426	2961.1813	3035.6525	3058.5543	3100.6652	3120.1114	3611.9154
O=CCCNC(=O)C=O	O=CCCNC(=O)C=O	
InChI=1S/C5H7NO3/c7-3-1-2-6-5(9)4-8/h3-4H,1-2H2,(H,6,9)	InChI=1S/C5H7NO3/c7-3-1-2-6-5(9)4-8/h3-4H,1-2H2,(H,6,9)
