18
gdb 19284	3.28611	1.77151	1.39541	0.8606	66.95	-0.2497	0.0722	0.3219	931.6315	0.152935	-384.893803	-384.885719	-384.884775	-384.926112	30.179	
C	-0.350014649	 1.5530339435	 0.1572062274	-0.411256
C	-0.0932450753	 0.0525147023	 0.1274258918	-0.015288
C	 0.4060551755	-0.5521325701	-1.1965475136	 0.020915
O	 1.6927832811	 0.019832633	-1.4705459067	-0.249924
C	 1.6189150805	-1.0899653775	-0.5635179302	-0.002922
C	 1.2123509529	-0.5407500555	 0.8109957627	-0.022642
C	 2.1932057227	 0.3860307155	 1.5019335722	-0.094201
O	 1.5795214741	 0.8506115951	 2.6998702395	-0.423518
H	 0.4574626167	 2.0929119606	-0.3449897051	 0.126816
H	-1.2869460621	 1.796982045	-0.3553492249	 0.106428
H	-0.4146029399	 1.9115506284	 1.1877277651	 0.130761
H	-0.9669053772	-0.4944471364	 0.4948212479	 0.077114
H	-0.161081371	-0.9111110824	-2.0482454451	 0.09905
H	 2.2162679241	-1.9623718693	-0.8041123135	 0.100051
H	 0.9395043939	-1.3486387071	 1.4968336916	 0.083532
H	 3.1213366745	-0.1675637823	 1.7223838118	 0.083599
H	 2.4559198237	 1.2170251435	 0.8343321443	 0.104653
H	 2.1547296951	 1.5130616937	 3.093556695	 0.286832
104.6579	136.2113	201.9347	224.5917	248.4622	276.5845	309.639	443.1336	539.3442	611.6073	712.0537	757.2242	838.9992	863.3032	866.4726	927.9377	991.7137	1019.2226	1020.647	1047.1401	1071.3364	1075.2593	1133.1952	1154.5557	1202.7272	1227.917	1244.3313	1251.2163	1261.0426	1292.5674	1350.6993	1367.3645	1385.3396	1406.8014	1458.8653	1488.948	1509.044	1525.8968	2962.2538	3030.1504	3038.6145	3057.0959	3073.1728	3106.4382	3125.9841	3172.0419	3187.4275	3829.5185
CC1C2OC2C1CO	C[C@H]1[C@H]2O[C@H]2[C@H]1CO	
InChI=1S/C6H10O2/c1-3-4(2-7)6-5(3)8-6/h3-7H,2H2,1H3	InChI=1S/C6H10O2/c1-3-4(2-7)6-5(3)8-6/h3-7H,2H2,1H3/t3-,4+,5-,6+/m1/s1
