21
gdb 94061	4.36348	0.95436	0.82413	1.6544	85.5	-0.2462	0.0405	0.2868	1428.4986	0.182286	-387.07069	-387.061635	-387.060691	-387.104098	35.122	
C	-0.0121389745	 1.5619366771	 0.043697256	-0.406953
C	 0.0121677035	 0.0328361078	-0.0067500049	 0.030312
C	 0.6908944153	-0.501546659	-1.2781246594	-0.216606
C	 0.8086128833	-2.030563924	-1.240317609	-0.212242
C	 1.4744783357	-2.4765667065	 0.0756613959	-0.057874
O	 0.760667242	-1.9712847019	 1.200117579	-0.260637
C	 0.7236744321	-0.5531949384	 1.2189869722	-0.064602
C	 1.5478602064	-3.9300291978	 0.1906729961	 0.295289
C	 1.6156247696	-5.1280252286	 0.2429227695	-0.410232
H	 1.0040000557	 1.9737234317	 0.0436056606	 0.114623
H	-0.5364610857	 1.9756690386	-0.8237345766	 0.116116
H	-0.5186670462	 1.9251007629	 0.9444140983	 0.114439
H	-1.0209501524	-0.3406627541	 0.0127180079	 0.08002
H	 0.1387946519	-0.18440382	-2.1700335088	 0.095983
H	 1.6948530678	-0.0595549425	-1.3592240854	 0.09289
H	-0.1828420738	-2.4937719632	-1.2927103499	 0.113289
H	 1.3919534809	-2.4052295745	-2.0876554257	 0.105239
H	 2.5033468411	-2.0710427511	 0.0965497459	 0.089341
H	 1.7506117057	-0.1481245917	 1.277540014	 0.080765
H	 0.2053401518	-0.281463848	 2.143642475	 0.106651
H	 1.6764883098	-6.1864324468	 0.3031473791	 0.194188
82.2182	139.7225	200.221	213.2561	244.1288	293.32	327.2072	376.2825	427.0204	447.3758	533.801	535.8083	596.8325	619.4292	669.858	790.1862	842.0783	875.1194	916.3847	955.9103	979.9797	1010.8788	1026.6413	1062.8052	1110.2782	1113.218	1145.8187	1170.3187	1217.3425	1248.6879	1292.6827	1323.0885	1327.4375	1345.7919	1365.3976	1385.0155	1385.9118	1408.6435	1420.9536	1477.2809	1484.6111	1495.0233	1498.9595	1500.7364	2245.1483	2926.072	2940.8606	3002.3509	3016.2783	3026.7531	3042.4968	3062.2213	3079.0767	3091.0569	3093.006	3099.6006	3505.5479
CC1CCC(OC1)C#C	C[C@H]1CC[C@@H](OC1)C#C	
InChI=1S/C8H12O/c1-3-8-5-4-7(2)6-9-8/h1,7-8H,4-6H2,2H3	InChI=1S/C8H12O/c1-3-8-5-4-7(2)6-9-8/h1,7-8H,4-6H2,2H3/t7-,8-/m0/s1
