21
gdb 101638	3.63759	0.7387	0.64039	4.9518	79.95	-0.2507	0.0307	0.2814	1747.356	0.181362	-420.416834	-420.406098	-420.405154	-420.453056	38.684	
C	-0.0371502795	 1.5682987273	-0.1006208214	-0.383119
C	 0.0208207519	 0.0404204843	-0.0262606711	-0.198373
C	 0.7145364521	-0.4781252872	 1.2389598364	 0.118944
O	 0.0765761162	 0.0210137181	 2.4217077091	-0.423213
C	 0.8325090805	-2.0091481162	 1.2470704174	-0.21313
C	 1.6646543082	-2.5611065081	 2.4364275611	-0.122941
N	 1.0753734299	-2.4371826652	 3.773010879	-0.514716
C	 1.9928605943	-3.9741319284	 2.1866391209	 0.288596
N	 2.2234506727	-5.0834669352	 1.9607204879	-0.320867
H	 0.9696532564	 1.9972542219	-0.1464310354	 0.119903
H	-0.581865732	 1.8978064024	-0.9898685351	 0.116593
H	-0.5325455419	 1.9832630914	 0.780851361	 0.127249
H	-0.9960431114	-0.3782425276	-0.06359988	 0.091346
H	 0.5439378554	-0.3605005559	-0.902634213	 0.107023
H	 1.7253993807	-0.0505867118	 1.2865088658	 0.095209
H	-0.8551730712	-0.2247119833	 2.3762517768	 0.280364
H	-0.1667383267	-2.4650094105	 1.2673489234	 0.099158
H	 1.3031084726	-2.3246722916	 0.3084206105	 0.121564
H	 2.6193131041	-2.0164770305	 2.4535515763	 0.132548
H	 0.7655803018	-1.4743650839	 3.8777558423	 0.248043
H	 0.2461093156	-3.0222016398	 3.832711368	 0.22982
50.5027	80.9233	114.1488	131.974	198.0242	222.6591	258.9151	293.0707	301.0533	322.7249	373.2952	400.5568	457.1973	512.1572	586.1938	594.0576	777.842	841.962	849.1045	907.2268	921.3378	974.4964	1018.2871	1026.2133	1067.9805	1097.8314	1128.889	1142.7792	1188.8813	1236.6616	1260.0176	1290.9243	1333.0086	1351.6068	1370.0687	1389.7321	1408.4865	1419.0204	1421.1017	1465.6944	1482.9257	1496.0542	1508.1838	1675.0065	2361.7555	2999.5442	3011.9063	3018.5863	3029.777	3041.3316	3055.4952	3074.1487	3107.3265	3124.4892	3482.8646	3565.5924	3786.952
CCC(O)CC(N)C#N	CC[C@@H](O)C[C@@H](N)C#N	
InChI=1S/C6H12N2O/c1-2-6(9)3-5(8)4-7/h5-6,9H,2-3,8H2,1H3	InChI=1S/C6H12N2O/c1-2-6(9)3-5(8)4-7/h5-6,9H,2-3,8H2,1H3/t5-,6-/m1/s1
