20
gdb 80459	2.55164	1.4691	1.22495	2.4328	79.1	-0.2347	-0.0238	0.2109	1123.7614	0.171029	-403.154419	-403.145679	-403.144735	-403.187729	33.195	
C	-0.1644462822	 1.5046744697	 0.0556029861	-0.434482
C	-0.0096325744	 0.0054775269	-0.0769852004	 0.02019
C	 0.6648484088	-0.7177547361	-1.2083112754	-0.177853
N	 1.216905993	-0.7470823664	 0.1674727392	-0.119153
C	 2.4717288554	 0.0555966195	 0.1653413345	-0.183544
C	 2.6975188503	 0.6762362651	-1.2314356511	-0.113393
C	 4.0803607	 0.4141142833	-1.8382444215	-0.406582
C	 1.5898352453	 0.0492688471	-2.0999328188	 0.419271
O	 1.5339536892	 0.1016402058	-3.3037360745	-0.332792
H	 0.6287077969	 2.0816491515	-0.4208283421	 0.130102
H	-1.1132177998	 1.812921244	-0.3947422485	 0.135431
H	-0.1970973614	 1.7852594393	 1.1143396446	 0.131588
H	-0.8742409289	-0.5284581461	 0.316861155	 0.105064
H	 0.2212811654	-1.6211402029	-1.6154781164	 0.11092
H	 2.4308345529	 0.8001991605	 0.9655355615	 0.111438
H	 3.2844576218	-0.6367573171	 0.4064891258	 0.116204
H	 2.5303611243	 1.7606369393	-1.2267560476	 0.106281
H	 4.3135138151	-0.6559195043	-1.8341586408	 0.123169
H	 4.1032729761	 0.7609977633	-2.8744679581	 0.141371
H	 4.8612112921	 0.9331713976	-1.2746951214	 0.116768
76.5003	144.978	160.1953	216.8118	228.2035	260.5066	347.5181	394.9787	445.4061	497.1124	616.1751	660.8874	708.7483	749.0884	763.2809	791.9447	907.8627	931.3449	948.6447	985.3089	1006.7219	1024.5556	1082.977	1117.0418	1121.5069	1137.9107	1165.6578	1202.222	1241.068	1269.6394	1293.4033	1313.5099	1343.5404	1366.6073	1403.9221	1414.7063	1424.1124	1487.5496	1494.86	1496.7789	1500.287	1507.7232	1828.9799	3027.057	3037.7829	3042.2369	3050.0835	3091.4691	3099.5734	3103.0172	3107.2492	3125.5957	3145.5327	3162.5064
CC1C2N1CC(C)C2=O	C[C@H]1[C@@H]2N1C[C@@H](C)C2=O	
InChI=1S/C7H11NO/c1-4-3-8-5(2)6(8)7(4)9/h4-6H,3H2,1-2H3	InChI=1S/C7H11NO/c1-4-3-8-5(2)6(8)7(4)9/h4-6H,3H2,1-2H3/t4-,5+,6+,8?/m1/s1
