17
gdb 35418	2.69142	1.61307	1.33247	1.9972	77.6	-0.2462	0.0067	0.2529	1006.5555	0.13652	-384.643785	-384.636265	-384.63532	-384.676046	29.38	
C	 0.0121935093	-1.0978738953	 0.5305465384	-0.464973
C	 0.0370464035	 0.0767383054	 0.274150769	 0.361274
C	 0.0646635662	 1.4910189408	-0.0621522302	-0.064766
O	-0.4329251599	 2.355275403	 0.9904770196	-0.300586
C	 0.8378752336	 3.063509576	 1.0716921392	 0.09106
C	 1.6679369687	 2.7010664535	 2.270795024	-0.078792
C	 2.6536545384	 1.863210382	 1.9488322872	-0.051293
C	 2.683948272	 1.5094041716	 0.4781899818	-0.2852
C	 1.44435322	 2.2276034273	-0.0826475695	-0.106977
H	-0.0198285331	-2.1334429974	 0.7643511158	 0.201599
H	-0.5126413076	 1.6519148926	-0.9819940495	 0.103908
H	 0.681577496	 4.1391046048	 0.935316312	 0.078702
H	 1.4567086265	 3.0790048264	 3.2642413258	 0.10074
H	 3.3761873126	 1.4568066733	 2.6490393744	 0.09954
H	 3.6062257211	 1.8605291875	-0.0016118711	 0.106415
H	 2.6417821503	 0.4253271085	 0.3191702972	 0.124611
H	 1.6273538822	 2.7441936801	-1.023954684	 0.084737
60.7106	143.9465	219.288	265.4764	349.0842	474.477	529.8998	547.4979	621.789	650.186	665.4342	736.3411	765.882	810.6944	865.3356	887.8931	939.8776	954.2068	971.156	980.0896	1009.0373	1022.415	1046.168	1099.0781	1128.9841	1167.6671	1226.3508	1243.8501	1281.1254	1309.8087	1316.8067	1337.811	1365.5349	1383.8298	1480.0264	1677.7139	2230.222	3013.8985	3024.9067	3046.8188	3058.4235	3118.127	3183.2396	3212.2185	3501.9037
C#CC1OC2C=CCC12	C#C[C@H]1O[C@H]2C=CC[C@@H]12	
InChI=1S/C8H8O/c1-2-7-6-4-3-5-8(6)9-7/h1,3,5-8H,4H2	InChI=1S/C8H8O/c1-2-7-6-4-3-5-8(6)9-7/h1,3,5-8H,4H2/t6-,7+,8-/m0/s1
