23
gdb 94463	2.92636	1.23738	1.09657	1.8861	84.41	-0.2389	0.0706	0.3095	1241.5017	0.207014	-388.294364	-388.285332	-388.284388	-388.329612	34.154	
C	-0.1177597598	 1.4805734943	-0.3463572725	-0.405868
C	 0.2641575103	 0.0219877688	-0.1831370348	 0.089753
O	 1.6271921245	-0.2345563392	-0.6001765176	-0.295414
C	 1.9581547699	-0.8350381738	 0.6644980887	-0.114825
C	 0.5406034993	-0.5630488394	 1.2307145885	 0.307356
C	 0.4579608746	 0.3550729322	 2.4694961319	-0.28349
C	 0.2242357303	-0.5834493344	 3.6913237541	-0.20473
C	 0.165269816	-2.0166108378	 3.1118652442	-0.207249
C	-0.2525647094	-1.8062703907	 1.649922975	-0.277305
H	 0.5440996525	 2.134643666	 0.2282185228	 0.119673
H	-0.0441587568	 1.7629896246	-1.4014861431	 0.125181
H	-1.1503558083	 1.6524909891	-0.0227957535	 0.113
H	-0.4330283826	-0.6049191347	-0.7601849462	 0.06438
H	 2.2264179021	-1.8959110486	 0.5604032607	 0.090567
H	 2.785086782	-0.3099967818	 1.1608525756	 0.092121
H	 1.3575155648	 0.9670797842	 2.5806067342	 0.100639
H	-0.3795741882	 1.0520770302	 2.3641383106	 0.101294
H	 1.0064871777	-0.481045706	 4.4480821637	 0.098805
H	-0.7201263435	-0.3328141968	 4.1843225175	 0.101059
H	 1.1589868554	-2.4799383198	 3.1442147941	 0.099904
H	-0.5110669297	-2.6737721481	 3.6652882535	 0.094588
H	-1.3285422358	-1.5909176648	 1.5897780763	 0.093424
H	-0.0579625955	-2.6705640637	 1.0072472862	 0.097138
18.6473	59.7002	154.5377	188.6886	242.7294	289.3454	363.6975	388.0424	465.2115	501.2464	588.0191	713.4891	778.987	792.3939	845.6882	881.1912	893.5903	914.992	926.4451	971.9944	1001.4597	1007.1042	1026.3656	1043.169	1065.0322	1084.9396	1108.4112	1159.9411	1162.2688	1195.7768	1217.7329	1246.4666	1251.3434	1287.1173	1297.4111	1297.6937	1328.5923	1340.7919	1358.3322	1370.5577	1389.9387	1404.9926	1484.4083	1485.7052	1488.8557	1493.0098	1497.2762	1514.7172	1529.3636	2976.0716	2992.3789	3013.2764	3031.6845	3032.674	3033.743	3045.0492	3057.0121	3077.6415	3079.4211	3089.4534	3102.0947	3104.3467	3116.5091
CC1OCC11CCCC1	C[C@H]1OCC21CCCC2	
InChI=1S/C8H14O/c1-7-8(6-9-7)4-2-3-5-8/h7H,2-6H2,1H3	InChI=1S/C8H14O/c1-7-8(6-9-7)4-2-3-5-8/h7H,2-6H2,1H3/t7-/m1/s1
