19
gdb 40653	2.75964	1.59605	1.46071	1.6733	73.82	-0.2263	0.0809	0.3072	994.6836	0.160706	-422.980573	-422.972786	-422.971842	-423.013322	29.571	
C	 0.6239608733	 1.1130117879	 0.0459153854	-0.179549
O	 0.6311386404	-0.0435411545	-0.796703782	-0.235498
C	-0.4600987512	 0.1183903094	 0.1106973797	 0.061871
C	-0.6441392595	-0.8381401588	 1.2507579518	-0.076357
C	-0.3354320838	-2.3344401137	 1.2148054427	-0.107937
C	 0.650037127	-2.8742673184	 0.1811213975	-0.254883
C	 2.0153634545	-2.2755679083	 0.603437093	-0.057507
O	 1.7751634231	-1.3204696311	 1.6508444699	-0.264753
C	 0.4558450042	-1.4229025289	 2.1049844728	 0.064907
H	 1.3827632079	 1.109524711	 0.8237864193	 0.13438
H	 0.4616293625	 2.0589874257	-0.4686356748	 0.109627
H	-1.3946066337	 0.3727999124	-0.3938853064	 0.0918
H	-1.5508098563	-0.6058850622	 1.8072020812	 0.08692
H	-1.0810626419	-3.0114524199	 1.6151590396	 0.090537
H	 0.6671420623	-3.9667889523	 0.2287820439	 0.101814
H	 0.3911386578	-2.5887522468	-0.8399134884	 0.12633
H	 2.6946723234	-3.0494411119	 0.9854656019	 0.091696
H	 2.5026046164	-1.7518957404	-0.2207468052	 0.12116
H	 0.3701931437	-1.4107430393	 3.1876736981	 0.095441
82.3597	97.0539	165.9117	185.7495	303.977	328.0603	520.9913	671.8626	701.5764	725.3436	735.3443	770.608	833.2266	838.3266	888.8779	905.9113	954.4688	979.074	1001.454	1012.4869	1054.546	1088.8124	1101.439	1106.6132	1124.1338	1142.2009	1168.7404	1177.5035	1205.3115	1226.8928	1253.7338	1297.3401	1307.5919	1315.4524	1359.6373	1401.5199	1435.2619	1440.025	1493.3704	1510.5237	1521.3131	3009.7442	3064.9073	3079.2152	3093.6761	3103.4823	3119.9541	3120.9253	3147.114	3173.4706	3194.746
C1OC1C1C2CCOC12	C1O[C@H]1[C@H]1[C@H]2CCO[C@@H]12	
InChI=1S/C7H10O2/c1-2-8-7-4(1)6(7)5-3-9-5/h4-7H,1-3H2	InChI=1S/C7H10O2/c1-2-8-7-4(1)6(7)5-3-9-5/h4-7H,1-3H2/t4-,5-,6-,7-/m1/s1
