23
gdb 101690	3.50077	0.80097	0.79257	2.4146	81.85	-0.253	0.0562	0.3092	1582.1057	0.204051	-425.411563	-425.401103	-425.400159	-425.447147	39.28	
C	 0.0388884096	 1.3870048565	 0.3141084786	-0.469469
C	 0.0910909425	-0.0681683873	-0.1125011334	 0.408011
C	-1.2495699112	-0.6993003292	-0.4649930895	-0.318258
C	-2.0710110245	 0.0640548137	-1.5086716242	 0.095246
O	-1.3118073503	 0.4226513544	-2.6707703058	-0.437428
C	-3.3173381111	-0.7047408927	-1.9576442282	-0.057146
O	-4.0172688069	 0.0083995633	-2.9526615163	-0.425831
C	 1.3132275254	-0.5272847228	-0.8740830206	-0.294554
C	 1.1089685933	-0.9599813874	 0.5588120945	-0.315395
H	 1.0270677348	 1.7369033428	 0.6281739704	 0.110828
H	-0.2942292317	 2.028340826	-0.5079947287	 0.135114
H	-0.6463636476	 1.5296287747	 1.1584419017	 0.111406
H	-1.0811088757	-1.7262011911	-0.8205820505	 0.087078
H	-1.8645347302	-0.7905143241	 0.4412167882	 0.105547
H	-2.3994100768	 1.0255271643	-1.0979929882	 0.098918
H	-0.7902247841	-0.3441593639	-2.9332741183	 0.283742
H	-3.0104412123	-1.7048004879	-2.317760763	 0.068712
H	-4.0009094325	-0.8566088766	-1.1146439136	 0.104491
H	-3.3315392725	 0.3614214724	-3.535267562	 0.284568
H	 1.1962512614	-1.2807618623	-1.64734375	 0.093733
H	 2.0873428155	 0.2019209731	-1.0877152125	 0.113221
H	 1.746012077	-0.5230051778	 1.320478203	 0.110533
H	 0.844827008	-1.9960131579	 0.7453386482	 0.106933
55.2422	79.8002	123.9771	150.8185	233.354	257.6364	280.5472	304.3665	323.2638	363.9141	381.4735	429.3168	470.1114	519.9269	591.5851	727.6496	787.0236	840.6526	865.3465	887.744	940.6774	944.0274	954.9451	1016.3561	1046.6037	1064.5721	1079.3605	1087.2861	1094.5923	1111.1603	1131.7381	1181.264	1188.5107	1215.5496	1282.2909	1313.8884	1325.8207	1347.8601	1387.2219	1394.1574	1421.4145	1426.852	1444.729	1466.3477	1477.8082	1494.3839	1503.4332	1506.0658	1512.8761	2928.3968	2999.2745	3025.4848	3033.8303	3054.4903	3068.8456	3089.8768	3104.9758	3122.1141	3128.2643	3200.0086	3214.8786	3759.8772	3802.1147
CC1(CC(O)CO)CC1	CC1(C[C@@H](O)CO)CC1	
InChI=1S/C7H14O2/c1-7(2-3-7)4-6(9)5-8/h6,8-9H,2-5H2,1H3	InChI=1S/C7H14O2/c1-7(2-3-7)4-6(9)5-8/h6,8-9H,2-5H2,1H3/t6-/m1/s1
