22
gdb 56575	2.0519	1.38264	0.87944	3.857	85.97	-0.2836	0.0395	0.3231	1368.4351	0.193077	-367.2248	-367.214636	-367.213692	-367.260132	37.513	
C	-0.0307147384	 1.5484903055	-0.0721484683	-0.407228
C	 0.078210894	 0.0113416613	 0.0137403823	-0.135568
C	 0.8494970129	-0.4721592117	-1.1387224279	 0.289208
N	 1.4596198145	-0.8106075547	-2.0605528971	-0.342579
C	 0.6811190567	-0.5106837441	 1.3519448384	 0.006375
C	-0.1084222933	 0.0173442081	 2.5593900867	-0.410818
C	 0.7321039673	-2.0291401232	 1.3805315139	 0.031612
C	 1.8966733093	-2.795884521	 0.8077557575	-0.261412
C	 1.6959719213	-2.7381522743	 2.3005051342	-0.285415
H	 0.9445618889	 2.0159409262	 0.0938877364	 0.134792
H	-0.3878897038	 1.853600095	-1.0586800013	 0.138263
H	-0.7300028772	 1.9273875525	 0.675460827	 0.129112
H	-0.9310586477	-0.4125628937	-0.0822652246	 0.121175
H	 1.7108666888	-0.1329610483	 1.4161913996	 0.083999
H	 0.2905995063	-0.4161599067	 3.4804088082	 0.12656
H	-0.0555864673	 1.1048969528	 2.6524113044	 0.119002
H	-1.1658164823	-0.2659509834	 2.4923584637	 0.115092
H	-0.2444010412	-2.4986639931	 1.2737989203	 0.08007
H	 1.6926508817	-3.7261500785	 0.2901809732	 0.118019
H	 2.715150727	-2.2275002693	 0.3812607739	 0.127342
H	 2.3834540062	-2.1280414794	 2.8782616295	 0.110223
H	 1.3567152364	-3.6295918599	 2.8161145701	 0.112176
46.0296	96.7593	135.3212	196.8019	205.5157	217.2976	223.5147	295.9418	322.7561	380.6402	412.3284	460.6725	552.0943	589.1524	759.5063	806.3589	818.707	831.3309	897.4857	936.4838	957.0416	969.7428	1014.0311	1052.9244	1065.6545	1081.6891	1091.7922	1123.7316	1137.1028	1156.5905	1195.728	1213.5565	1229.1505	1272.5391	1317.1191	1326.5136	1358.8206	1405.261	1415.3055	1419.9078	1470.4674	1491.5743	1494.8504	1499.4738	1507.1364	1511.1336	2352.9554	3009.272	3024.0824	3034.5165	3051.3284	3103.1534	3118.3706	3120.1997	3123.4701	3129.1224	3138.5876	3143.8527	3209.4263	3229.3503
CC(C#N)C(C)C1CC1	C[C@@H](C#N)[C@@H](C)C1CC1	
InChI=1S/C8H13N/c1-6(5-9)7(2)8-3-4-8/h6-8H,3-4H2,1-2H3	InChI=1S/C8H13N/c1-6(5-9)7(2)8-3-4-8/h6-8H,3-4H2,1-2H3/t6-,7+/m0/s1
