20
gdb 66771	2.43404	2.08976	1.7511	1.8701	79.98	-0.2365	0.0783	0.3148	917.054	0.173724	-365.977907	-365.970849	-365.969904	-366.008964	29.234	
C	-0.0717810984	 1.5136102696	 0.0230451589	-0.517552
C	-0.0069799735	 0.0166582515	 0.007541661	 0.365645
C	 0.4475708511	-0.8285725309	-1.2166158914	-0.074974
C	 1.917135592	-1.2313943685	-1.0199531874	-0.234729
C	 2.1054627094	-1.2394012207	 0.5325977441	-0.234729
C	 0.7260650995	-0.840243456	 1.0789771688	-0.074979
C	-0.400389512	-1.8308622277	 0.7988587218	-0.049691
C	-0.5804209163	-1.8233283803	-0.6852114474	-0.049697
N	-1.3102502825	-0.8217758104	 0.1613872048	-0.211325
H	 0.9282603667	 1.9469371886	-0.0956391695	 0.118368
H	-0.7031431595	 1.8853895161	-0.7907498878	 0.126512
H	-0.4905274175	 1.8763326847	 0.9676009218	 0.126526
H	 0.1919509616	-0.4116874756	-2.1924505692	 0.068767
H	 2.1300517293	-2.2054600177	-1.4708756056	 0.100798
H	 2.5891621501	-0.5086031972	-1.4945309571	 0.09739
H	 2.4186056011	-2.2178035866	 0.9096146509	 0.100801
H	 2.8724937193	-0.5208023485	 0.8400751586	 0.097388
H	 0.7117257255	-0.4334562231	 2.0917478051	 0.068767
H	-0.7865714792	-2.6181645665	 1.4365998743	 0.088357
H	-1.1088462564	-2.604671151	-1.2199674145	 0.088358
158.8875	192.8445	211.2056	280.1829	383.8875	468.5216	603.8806	653.2768	680.1142	748.0491	775.4692	811.9952	820.5735	831.3099	862.4191	881.8384	892.221	942.1873	986.0891	1006.8155	1026.6073	1030.8388	1061.9732	1064.0216	1095.7863	1126.2009	1151.8532	1157.7324	1195.9846	1210.5578	1256.5528	1261.457	1281.6522	1320.3976	1326.9893	1348.8267	1367.1143	1380.7556	1414.6838	1477.4693	1484.5857	1491.8468	1503.7546	3026.5167	3038.5437	3049.924	3073.0769	3092.8021	3095.3893	3097.1613	3100.9002	3101.2755	3169.5625	3181.4663
CC12C3CCC1C1C3N21	C[C@@]12[C@H]3CC[C@@H]1[C@@H]1[C@H]3N21	
InChI=1S/C8H11N/c1-8-4-2-3-5(8)7-6(4)9(7)8/h4-7H,2-3H2,1H3	InChI=1S/C8H11N/c1-8-4-2-3-5(8)7-6(4)9(7)8/h4-7H,2-3H2,1H3/t4-,5+,6-,7+,8+,9?
