16
gdb 120372	3.35194	0.9679	0.79463	2.4305	65.59	-0.2689	-0.0322	0.2367	1374.6686	0.124257	-475.061422	-475.052947	-475.052003	-475.09555	29.989	
O	 0.1260667724	 1.4290064488	-0.1410770349	-0.414991
C	 0.0831567748	 0.0171333978	-0.030864726	-0.071451
C	-1.3516385182	-0.5176805219	-0.0346473839	-0.202563
C	-1.4063887804	-2.0507291208	 0.0302831909	-0.158222
N	-0.9254033484	-2.593843094	 1.3066652958	-0.248741
C	-1.8858218978	-3.2812987766	 1.762303518	 0.121385
O	-3.0476109544	-3.3654623128	 1.0350339851	-0.204134
C	-2.8298251802	-2.5879373015	-0.1073855174	 0.439648
O	-3.6583598931	-2.4353152783	-0.9461378732	-0.313013
H	-0.2023863041	 1.8022294371	 0.6829693963	 0.284374
H	 0.6210752302	-0.3662571307	-0.9056028787	 0.113891
H	 0.6139223243	-0.3415320758	 0.8616348843	 0.116669
H	-1.9029505869	-0.1054507431	 0.8201168749	 0.101472
H	-1.8657991614	-0.1898653045	-0.9437565724	 0.137267
H	-0.7996217503	-2.4652579057	-0.7859722818	 0.137957
H	-1.8990767366	-3.8330086879	 2.6945267632	 0.160452
74.8634	89.1116	115.2479	154.596	266.2908	298.8349	320.8649	390.8006	517.935	607.575	667.6969	716.5784	784.395	858.9385	864.8224	913.3307	951.9209	1029.4257	1054.8852	1075.9235	1098.0159	1108.779	1151.3022	1171.6812	1249.5777	1291.2795	1314.0266	1339.4393	1347.2279	1401.0721	1421.9934	1481.09	1513.4171	1695.1964	1920.9605	3014.1483	3024.4096	3035.7458	3065.7794	3097.626	3227.1141	3818.7563
OCCC1N=COC1=O	OCC[C@H]1N=COC1=O	
InChI=1S/C5H7NO3/c7-2-1-4-5(8)9-3-6-4/h3-4,7H,1-2H2	InChI=1S/C5H7NO3/c7-2-1-4-5(8)9-3-6-4/h3-4,7H,1-2H2/t4-/m1/s1
