20
gdb 24144	4.58798	0.86502	0.8208	1.8281	85.37	-0.1992	0.0507	0.2499	1464.2473	0.173014	-366.035686	-366.027271	-366.026327	-366.069867	32.232	
C	-0.0818208914	 1.5536476975	-0.1266614439	-0.353204
C	-0.1755435599	 0.0389171201	-0.2407621947	 0.051126
C	-0.1785603747	-0.8162967526	 0.9976665492	-0.247363
C	-1.4347279994	-0.6803922467	 0.1681327577	-0.276409
C	 1.3294272455	 2.0629685015	-0.0291724609	 0.297788
C	 1.9515831087	 2.5477840449	 1.100147759	-0.184362
N	 3.2420354904	 2.8832643285	 0.7711715222	-0.231594
C	 3.4613549083	 2.6238864495	-0.557048956	-0.075026
C	 2.2962614538	 2.115264599	-1.079619204	-0.240223
H	-0.5818465988	 2.0078197249	-0.9929298204	 0.099421
H	-0.6491661805	 1.8763940617	 0.7553196766	 0.089589
H	 0.3525343678	-0.3727219585	-1.0969311408	 0.081319
H	 0.3515980301	-1.7622112624	 0.9804863952	 0.106351
H	-0.1485664816	-0.3115784402	 1.9583261339	 0.103657
H	-2.2477778925	-0.0864270485	 0.5740141337	 0.105314
H	-1.7615934887	-1.5330003046	-0.4173659726	 0.105894
H	 1.5796482823	 2.6826644766	 2.1036976084	 0.109385
H	 3.9170320875	 3.2739385947	 1.4038793649	 0.258736
H	 4.4170570773	 2.8267094871	-1.0131828205	 0.113782
H	 2.1437742359	 1.8146044476	-2.1057257871	 0.085818
40.3738	63.1389	115.681	270.2438	306.9823	346.5243	407.0711	458.7906	639.0223	643.6997	680.5569	716.1803	765.0989	774.6994	803.5435	827.3951	845.303	892.0028	905.5189	946.404	981.9591	995.1555	1053.7304	1074.2311	1084.204	1092.5979	1114.8694	1139.7176	1163.0667	1196.7532	1224.263	1246.7579	1288.3775	1296.8446	1339.3791	1404.5281	1420.8651	1465.617	1469.2127	1481.6004	1508.6493	1521.7506	1609.9524	3009.0572	3049.1602	3125.2279	3129.6405	3140.4554	3201.8893	3217.2401	3237.2462	3255.1943	3267.1219	3689.9797
C(C1CC1)C1=CNC=C1	C(C1CC1)c1c[nH]cc1	
InChI=1S/C8H11N/c1-2-7(1)5-8-3-4-9-6-8/h3-4,6-7,9H,1-2,5H2	InChI=1S/C8H11N/c1-2-7(1)5-8-3-4-9-6-8/h3-4,6-7,9H,1-2,5H2
