21
gdb 100726	2.81754	1.01235	0.78819	5.3219	75.31	-0.2408	0.0276	0.2683	1468.8794	0.182752	-457.579442	-457.569162	-457.568218	-457.615016	37.572	
C	 0.0020076789	 1.6110119869	 0.1584863025	-0.400042
C	-0.0495922988	 0.0866794325	 0.0211308584	-0.160803
C	 0.7464947068	-0.4520232218	-1.177841074	 0.00651
N	 2.1957311215	-0.1450404808	-1.1062867229	-0.532407
H	 2.6616532369	-1.2918158811	-2.3020656602	 0.315975
H	 2.3621318234	 0.8452112799	-1.2503462216	 0.251341
H	 2.5525097189	-0.3724932352	-0.1806810553	 0.242852
C	 0.5857990417	-1.9830184695	-1.3546905363	-0.127138
N	-0.8194784493	-2.3711962923	-1.2893162961	-0.506376
C	 1.281466469	-2.5443827383	-2.6298713204	 0.388493
O	 2.480677592	-2.0459779219	-2.9292675106	-0.374747
O	 0.763387488	-3.415207413	-3.2840802205	-0.344875
H	 1.0215609624	 1.9789568401	 0.3191296218	 0.102602
H	-0.3929376892	 2.1044705568	-0.737118623	 0.118784
H	-0.5984319886	 1.9443768372	 1.0096398854	 0.125921
H	 0.3368823251	-0.3871462061	 0.9348135886	 0.091932
H	-1.0846740185	-0.2496554087	-0.0711001329	 0.132056
H	 0.3790829931	 0.0362509042	-2.0921592091	 0.094106
H	 1.099122127	-2.4581810648	-0.50290921	 0.102198
H	-1.3059879851	-1.9335960946	-2.0707140465	 0.227552
H	-0.863368185	-3.3635781297	-1.5104812472	 0.246064
59.2878	88.6228	96.3429	174.5526	192.3539	237.379	292.5229	320.9992	342.4257	357.827	390.6562	431.1304	487.6323	546.7672	624.7413	733.4199	777.9578	847.566	878.291	929.4341	967.4049	992.8203	999.1682	1024.4732	1055.7274	1108.4471	1122.4646	1156.3475	1176.268	1241.303	1259.5222	1298.8627	1317.6512	1340.4669	1381.6162	1396.9714	1409.6583	1417.8289	1484.9907	1502.9078	1509.0158	1513.7165	1647.699	1675.8797	1841.8466	2980.7634	3005.4732	3021.2276	3030.0932	3085.0377	3106.8521	3113.8318	3152.4286	3469.2026	3485.7771	3537.6248	3577.5141
CCC([NH3+])C(N)C([O-])=O	CC[C@@H](N)[C@@H](N)C(=O)O	
InChI=1S/C5H12N2O2/c1-2-3(6)4(7)5(8)9/h3-4H,2,6-7H2,1H3,(H,8,9)	InChI=1S/C5H12N2O2/c1-2-3(6)4(7)5(8)9/h3-4H,2,6-7H2,1H3,(H,8,9)/t3-,4-/m1/s1
