18
gdb 78509	2.55827	1.59467	1.31836	1.918	71.93	-0.1981	0.0698	0.2679	1034.7812	0.146348	-438.993368	-438.985039	-438.984095	-439.025569	32.872	
C	-0.0783634672	 1.5328838273	 0.0369700534	-0.325275
N	 0.0885900675	 0.0869521107	 0.0112223696	-0.070493
C	 0.7829808093	-0.5277396479	-1.1116918585	-0.206468
C	 2.3361233965	-0.5810827938	-0.7937570684	 0.312687
O	 3.2805617555	-0.7908641466	-1.7725670182	-0.458135
C	 2.5011093896	 0.0764893027	 0.5738402891	-0.31418
C	 1.1053234988	-0.5476104788	 0.9012047466	-0.11084
C	 1.379296289	-1.6088906646	-0.2603484827	 0.33293
O	 1.4078155542	-2.9713669701	-0.3130765534	-0.452389
H	 0.8345754084	 2.1106280174	-0.1793431494	 0.09566
H	-0.8336697708	 1.8145367656	-0.7047608799	 0.118806
H	-0.4501551049	 1.8338730867	 1.0221271192	 0.119323
H	 0.4113365706	-0.5572272081	-2.1296914487	 0.095329
H	 3.3511024875	 0.0080311417	-2.3066302838	 0.287596
H	 3.2839282293	-0.423150246	 1.1502273281	 0.113594
H	 2.6161263025	 1.1622102057	 0.6529370751	 0.088095
H	 0.8098029782	-0.7433193557	 1.9310542801	 0.078391
H	 0.4995470358	-3.2955974559	-0.3229819782	 0.295369
162.9733	195.4641	203.2396	251.8911	285.1455	315.7272	330.2632	388.7567	422.6799	497.3055	580.7038	603.6513	681.8547	706.3422	718.1215	843.6551	893.9813	922.531	954.345	983.1756	996.0219	1051.222	1087.7234	1111.4411	1142.043	1156.594	1165.6731	1209.7317	1229.4026	1243.936	1271.3051	1304.8931	1314.3011	1371.374	1445.3794	1478.0043	1489.8831	1511.6686	1545.0089	2972.1899	3047.8089	3059.6725	3096.8471	3109.1769	3124.5251	3183.758	3784.4234	3793.6962
CN1C2C3(O)CC1C23O	CN1[C@H]2[C@@]3(O)C[C@@H]1[C@@]23O	
InChI=1S/C6H9NO2/c1-7-3-2-5(8)4(7)6(3,5)9/h3-4,8-9H,2H2,1H3	InChI=1S/C6H9NO2/c1-7-3-2-5(8)4(7)6(3,5)9/h3-4,8-9H,2H2,1H3/t3-,4+,5+,6-/m1/s1
