18
gdb 111379	2.33606	1.44129	1.07081	2.0626	76.6	-0.2449	0.0333	0.2782	1154.9276	0.146972	-401.854721	-401.846058	-401.845113	-401.88818	32.862	
O	 0.8229542548	-0.782480966	-1.155680674	-0.421573
C	 0.2073270549	-0.08743968	-0.0849367589	-0.082122
C	-1.2692014183	-0.4284108099	-0.0152357297	 0.024577
C	-2.2516875133	 0.3093996231	 0.9652400307	-0.25104
C	-1.7613345311	 1.376907595	 1.817131613	 0.337614
C	-1.3384590745	 2.2616974146	 2.5137612066	-0.460998
C	-3.0342480903	 0.6971137027	-0.3021559683	-0.02506
C	-2.1830587441	 1.4380240771	-1.2428032501	-0.252811
N	-2.0866116179	-0.0406239016	-1.2273346056	-0.158457
H	 0.2804008465	-0.6318591764	-1.938538268	 0.295269
H	 0.7038487782	-0.41389904	 0.8351815485	 0.117437
H	 0.3647611966	 0.9980381133	-0.1634597433	 0.096143
H	-1.3662520916	-1.5109740742	 0.0971199386	 0.100733
H	-2.7975961874	-0.4221702841	 1.5663000212	 0.114712
H	-0.9718933514	 3.0424072209	 3.1334862542	 0.20035
H	-4.111477017	 0.6198597264	-0.4028335528	 0.106391
H	-2.6442785796	 1.8058283571	-2.1535999972	 0.127702
H	-1.3683845143	 2.049758752	-0.8669783248	 0.131131
88.2783	105.1401	124.0616	213.8735	260.7586	348.5185	378.3716	385.6162	515.0689	542.9845	581.3869	626.6973	641.3443	735.7278	766.2674	775.9027	830.0211	902.6621	962.6414	998.6765	1044.6733	1062.2804	1070.105	1096.49	1110.7075	1120.7531	1156.3133	1188.8812	1215.6298	1238.645	1283.2115	1329.4391	1340.3112	1367.9023	1392.2313	1432.8356	1497.064	1514.6413	2230.6445	3002.0751	3066.9545	3073.4815	3087.5135	3126.2646	3169.4754	3212.9749	3502.1671	3795.7411
OCC1C(C#C)C2CN12	OC[C@H]1[C@@H](C#C)[C@H]2CN12	
InChI=1S/C7H9NO/c1-2-5-6-3-8(6)7(5)4-9/h1,5-7,9H,3-4H2	InChI=1S/C7H9NO/c1-2-5-6-3-8(6)7(5)4-9/h1,5-7,9H,3-4H2/t5-,6+,7-,8?/m0/s1
