22
gdb 63640	3.29986	0.98555	0.93073	2.7686	83.19	-0.2298	0.073	0.3027	1388.0904	0.192587	-404.298669	-404.288978	-404.288033	-404.333791	35.74	
C	-0.0135019862	 1.5410250196	-0.3794474976	-0.459744
C	 0.0014879064	 0.0520198964	-0.0820239814	 0.337985
C	-1.2810055479	-0.6645998693	-0.4583038866	-0.436203
C	 1.2952140873	-0.6897757913	-0.1494531475	-0.296277
N	 0.6318113549	-0.4784945272	 1.1398785903	-0.117377
C	 1.2725723322	 0.4013986122	 2.0914109799	 0.009266
C	 0.38152874	 0.8756575625	 3.259680651	-0.082024
O	 1.2689508478	 0.2914637815	 4.2339171966	-0.273024
C	 2.0707756775	-0.3193318795	 3.2013686517	-0.083228
H	 0.9404546369	 2.0277308599	-0.1667962654	 0.121172
H	-0.2353797795	 1.7046794255	-1.4393887466	 0.12353
H	-0.7945041529	 2.0487756961	 0.198836938	 0.122227
H	-1.4665294753	-0.5926672984	-1.5360318297	 0.11251
H	-1.227320138	-1.7196556689	-0.1807089616	 0.126074
H	-2.1400555866	-0.2221244005	 0.0592749302	 0.115804
H	 1.3330696231	-1.7176022119	-0.5023595221	 0.110978
H	 2.1934360441	-0.1085479059	-0.3576423131	 0.103329
H	 1.8443052706	 1.2180990052	 1.6302854601	 0.064011
H	 0.2770116794	 1.9586150475	 3.3952053758	 0.096819
H	-0.6098727549	 0.4053386913	 3.2652973063	 0.102532
H	 1.9565594095	-1.4099697407	 3.1761103571	 0.105124
H	 3.1313771015	-0.0594417041	 3.2984372247	 0.096515
54.7833	65.5404	133.0501	167.1329	200.5338	220.8583	310.0239	366.2881	372.9539	397.5686	432.4732	511.6345	693.3716	713.4061	827.651	881.8264	897.3938	914.547	940.4944	959.3291	993.1856	1017.9618	1036.4953	1052.1241	1064.739	1096.9915	1118.5182	1134.526	1145.389	1163.0494	1172.9656	1235.2086	1267.8327	1291.5276	1307.2621	1348.8142	1382.0793	1398.0316	1411.121	1421.5007	1479.9366	1486.0736	1500.0538	1501.7536	1503.8279	1515.6051	1528.841	2996.1832	3009.9595	3021.7442	3027.0889	3033.395	3062.6531	3068.2266	3083.2981	3086.4759	3091.1573	3124.5879	3126.0857	3168.6354
CC1(C)CN1C1COC1	CC1(C)CN1C1COC1	
InChI=1S/C7H13NO/c1-7(2)5-8(7)6-3-9-4-6/h6H,3-5H2,1-2H3	InChI=1S/C7H13NO/c1-7(2)5-8(7)6-3-9-4-6/h6H,3-5H2,1-2H3
