19
gdb 96960	2.94426	1.35595	1.08938	1.4834	79.06	-0.2185	0.0191	0.2375	1174.7139	0.158799	-419.16587	-419.157006	-419.156062	-419.199935	32.058	
C	-0.0491624768	 1.4669783106	 0.2243333096	-0.342239
N	-0.0753593178	 0.0188460387	 0.3827494879	-0.332032
C	-1.0958486781	-0.6173127012	 0.0418516149	 0.462566
O	-2.3062827884	-0.1683236025	-0.4955849932	-0.282316
C	-2.8187994179	-1.5270728729	-0.5771156145	 0.093927
C	-2.4396390371	-2.1961781647	-1.9115013325	-0.197509
N	-1.2572945117	-2.8038261356	-1.2534406654	-0.067241
C	 0.0424845441	-2.7559496678	-1.8917372515	-0.326862
C	-1.4987772994	-2.0838462324	 0.0122604338	-0.173484
H	 0.8076371668	 1.7417135373	-0.4004567616	 0.128066
H	-0.9592709288	 1.8864772691	-0.2195692959	 0.127357
H	 0.1106898672	 1.9296460362	 1.2044359028	 0.12953
H	-3.8153516952	-1.6197602551	-0.1515649758	 0.101222
H	-3.1394094381	-2.9422777993	-2.3040652208	 0.110579
H	-2.2232426022	-1.4539493872	-2.6917215438	 0.108327
H	 0.3760475227	-1.7368263636	-2.148990567	 0.11027
H	 0.7904432827	-3.1963378605	-1.2247704228	 0.130456
H	 0.0147425932	-3.3529536503	-2.8092903374	 0.121939
H	-1.3615712353	-2.6661667588	 0.9248520534	 0.097444
72.0347	95.7996	108.6	195.7608	212.4928	235.9227	328.4731	389.5921	420.6063	496.1836	640.7725	713.7203	742.9787	838.8505	854.5284	898.2968	976.975	989.2274	996.7195	1045.711	1060.8699	1099.6428	1125.8718	1131.0315	1158.5141	1171.4615	1192.5196	1222.8614	1248.8632	1253.6066	1288.1459	1316.6787	1329.9171	1437.7691	1451.8458	1483.2853	1493.7174	1496.1078	1501.5765	1504.689	1835.9382	2967.4426	3010.7759	3018.6086	3062.3869	3063.6898	3084.4845	3089.8515	3098.107	3104.4453	3146.853
CN=C1OC2CN(C)C12	CN=C1O[C@H]2CN(C)[C@@H]12	
InChI=1S/C6H10N2O/c1-7-6-5-4(9-6)3-8(5)2/h4-5H,3H2,1-2H3	InChI=1S/C6H10N2O/c1-7-6-5-4(9-6)3-8(5)2/h4-5H,3H2,1-2H3/t4-,5+/m0/s1
