19
gdb 9828	3.72873	1.49339	1.18084	3.4108	73.56	-0.2417	0.0369	0.2786	1072.1062	0.164857	-365.091717	-365.082654	-365.08171	-365.125513	32.96	
C	 0.0289942076	 1.4592049388	 0.009658428	-0.335491
N	 0.1738440074	 0.0177214805	-0.0306636195	-0.336609
C	 0.3137604125	-0.6699212178	-1.2018152848	 0.384893
O	 0.3256533819	-0.1127205912	-2.2905431542	-0.400677
C	 0.4541946974	-2.1678552939	-1.0772821944	 0.232616
C	 0.4328869489	-2.8102214623	 0.2962685822	-0.505997
C	-0.1504855641	-2.9394347951	-2.2401392225	-0.277321
C	 1.3351923524	-2.7925281415	-2.1482294229	-0.277299
H	 0.0562345741	 1.8157811713	-1.0203660314	 0.172422
H	-0.9234112742	 1.7527017827	 0.4658321141	 0.122438
H	 0.8443042438	 1.9274238031	 0.5730161573	 0.122447
H	 0.1705801367	-0.4888612842	 0.8369006765	 0.244688
H	-0.5129212247	-2.6271455933	 0.8209002007	 0.120394
H	 0.5445513367	-3.8948348943	 0.2106272009	 0.123083
H	 1.2544888955	-2.4535440342	 0.9295285832	 0.120406
H	-0.5963848202	-3.9016012553	-2.0120671759	 0.106865
H	-0.6601200061	-2.3497204517	-2.9920809803	 0.138143
H	 1.8079382288	-2.1057687688	-2.8394369522	 0.13813
H	 1.9288184657	-3.6519592629	-1.8556614647	 0.106869
57.6605	85.8682	138.798	211.0306	255.2374	302.2003	329.1788	341.0898	346.9324	445.876	477.152	558.8399	764.577	786.8898	794.0305	854.5568	891.4638	961.1309	963.0579	1039.9797	1075.6111	1079.1811	1093.016	1119.8224	1155.0285	1167.9792	1204.8446	1228.5645	1320.7783	1334.0186	1416.6217	1436.4934	1449.0082	1483.1211	1494.5383	1498.2268	1502.2577	1512.0086	1565.3677	1753.0046	3016.7024	3024.6514	3073.5803	3074.6336	3102.3447	3136.5244	3139.4526	3156.0298	3229.8558	3242.5717	3672.623
CNC(=O)C1(C)CC1	CNC(=O)C1(C)CC1	
InChI=1S/C6H11NO/c1-6(3-4-6)5(8)7-2/h3-4H2,1-2H3,(H,7,8)	InChI=1S/C6H11NO/c1-6(3-4-6)5(8)7-2/h3-4H2,1-2H3,(H,7,8)
