14
gdb 21578	3.51435	2.3146	1.39599	1.487	70.76	-0.1916	-0.0242	0.1675	826.0691	0.11065	-374.925213	-374.918463	-374.917519	-374.95577	26.433	
N	 0.0667631029	 1.3473256962	-0.0791678289	-0.5807
C	-0.0332827092	-0.0002352565	-0.0002192644	 0.376902
C	-1.1835739315	-0.7380472131	 0.0759847275	-0.248613
C	-1.0974505107	-2.1522985702	 0.195335061	 0.023976
N	 0.0153037572	-2.8260361541	 0.2355193222	-0.229453
N	 1.1428118099	-2.070361165	 0.1494466102	-0.308607
C	 1.2596137427	-0.702326361	 0.0241000209	 0.354471
N	 2.3486910997	-0.0181920844	-0.0743625562	-0.587956
H	 0.995839479	 1.6988845406	-0.2658481997	 0.279304
H	-0.7336063711	 1.9094553044	-0.3075793129	 0.256907
H	-2.1561994104	-0.2588092572	 0.0529618381	 0.089242
H	-1.9998418223	-2.7509217217	 0.2623307349	 0.115144
H	 1.9909713326	-2.6159768257	 0.1735384631	 0.259365
H	 3.1825164813	-0.6038537623	-0.0544625559	 0.200017
145.5389	239.7899	269.013	347.5385	444.125	468.1433	543.4966	560.2738	577.0593	598.1402	647.3253	759.9175	765.935	788.9923	847.5509	917.0538	933.5343	1029.7698	1084.6892	1115.7672	1175.9944	1325.7774	1355.8964	1400.9669	1428.802	1477.1393	1579.2252	1626.1668	1660.69	1693.5657	3178.2767	3193.0235	3485.164	3563.1767	3620.6688	3721.7211
NC1=CC=NNC1=N	NC1=C(NN=CC1)[NH]	
InChI=1S/C4H6N4/c5-3-1-2-7-8-4(3)6/h1-2H,(H2,5,7)(H2,6,8)	InChI=1S/C4H7N4/c5-3-1-2-7-8-4(3)6/h2,6,8H,1,5H2
