17
gdb 10563	2.52923	1.91461	1.33945	1.9036	65.31	-0.2499	-0.029	0.2209	960.8236	0.140673	-400.964746	-400.956103	-400.955159	-400.998602	30.168	
C	-0.4446680188	 0.7403749972	-0.034552412	-0.242371
O	 0.1082113437	 0.4569312195	 1.23770454	-0.231199
C	 1.1870887067	-0.4590027369	 1.2046781936	-0.196836
C	 0.7369460724	-1.8900163128	 0.9247774059	 0.202267
C	 0.7065159555	-2.8861759789	 2.0504183873	-0.268088
N	-0.5379751921	-2.3560263584	 1.5229332195	-0.334738
C	 0.9624983473	-2.4381268872	-0.4458222441	 0.136347
O	 1.6500095542	-1.9170293248	-1.2886583988	-0.269799
H	-0.925216096	-0.1403459178	-0.4831467755	 0.120275
H	-1.2005690966	 1.5149983164	 0.1137232032	 0.128908
H	 0.3213086057	 1.1099868537	-0.7306219797	 0.121469
H	 1.9256800545	-0.1750289026	 0.4429921027	 0.126878
H	 1.6552419002	-0.3889071582	 2.190478722	 0.10937
H	 0.8810238503	-3.9401758331	 1.8482321709	 0.128373
H	 1.0825899698	-2.5379396516	 3.0091706835	 0.128116
H	-0.8905936128	-1.5949909577	 2.1013532902	 0.252453
H	 0.4277915161	-3.3964305067	-0.6282626588	 0.088575
50.531	91.4327	121.1066	190.348	247.8717	265.3409	322.8593	370.5673	403.8514	513.4011	599.9533	775.7638	822.8621	904.3601	918.0409	962.7009	995.0552	1029.8232	1054.5574	1097.8026	1137.2708	1141.2928	1180.2385	1217.1274	1265.3909	1302.9825	1323.2954	1372.1793	1404.501	1423.4522	1473.8018	1486.8384	1493.1537	1505.4326	1511.5305	1819.0745	2895.627	2993.1676	3023.1825	3047.8696	3092.0151	3102.1815	3119.717	3188.5029	3490.2169
COCC1(CN1)C=O	COC[C@]1(CN1)C=O	
InChI=1S/C5H9NO2/c1-8-4-5(3-7)2-6-5/h3,6H,2,4H2,1H3	InChI=1S/C5H9NO2/c1-8-4-5(3-7)2-6-5/h3,6H,2,4H2,1H3/t5-/m0/s1
