16
gdb 18353	3.43692	2.21248	1.61016	0.8927	64.42	-0.2488	-0.0045	0.2444	803.0185	0.132176	-383.720298	-383.713599	-383.712655	-383.751352	25.819	
O	 0.3921235242	 1.2112821873	-0.5766745049	-0.42934
C	 0.084493106	-0.0903629998	-0.0929872867	 0.081567
C	 0.5887126506	-0.3393832378	 1.3146076401	-0.12064
C	-0.3503652177	-0.8029939034	 2.1393215512	-0.083025
C	-1.6705901267	-0.9771451912	 1.4367738197	 0.08874
O	-2.6297486302	 0.0713001174	 1.7397959525	-0.295188
C	-2.3952981264	 0.6938364463	 0.4574694856	-0.081677
C	-1.4272690729	-0.4247305253	 0.0133989158	-0.108965
H	 0.166262999	 1.8425840862	 0.115133503	 0.280553
H	 0.5701642845	-0.7592672747	-0.8130802283	 0.09572
H	 1.6182475786	-0.1230634823	 1.5813703417	 0.10613
H	-0.2177389392	-1.0226661531	 3.1929153365	 0.107102
H	-2.1191011675	-1.9686606687	 1.5625366591	 0.081747
H	-3.3188647448	 0.7739332395	-0.1262440217	 0.10888
H	-1.9602354886	 1.6971552726	 0.5537515881	 0.085707
H	-1.7896269889	-1.0232760832	-0.8211958116	 0.082689
71.286	220.4321	257.463	321.191	380.1054	484.4954	555.5303	661.8982	736.5135	788.0858	810.6343	865.2423	897.1648	944.2018	978.0882	990.5321	1008.8536	1020.2798	1035.2113	1091.983	1094.4902	1140.4041	1154.975	1217.8509	1255.5565	1261.5182	1289.7448	1316.4472	1336.1074	1356.5648	1377.679	1428.6082	1524.4365	1674.9842	3012.5102	3038.3101	3047.4201	3059.6672	3119.666	3181.3066	3207.2645	3803.9351
OC1C=CC2OCC12	O[C@H]1C=C[C@H]2OC[C@@H]12	
InChI=1S/C6H8O2/c7-5-1-2-6-4(5)3-8-6/h1-2,4-7H,3H2	InChI=1S/C6H8O2/c7-5-1-2-6-4(5)3-8-6/h1-2,4-7H,3H2/t4-,5-,6+/m0/s1
