17
gdb 73458	2.28256	1.9777	1.5855	2.1147	67.42	-0.2141	0.0592	0.2734	926.5654	0.135249	-458.9085	-458.900855	-458.899911	-458.940107	30.218	
C	-0.0012054968	 1.440566463	 0.0203554775	-0.481462
C	-0.0415384049	-0.0569769566	-0.0219118777	 0.387433
O	 0.9677122596	-0.6494572718	-0.815197746	-0.302419
C	 0.4906255461	-1.9345420953	-1.2351732309	-0.084535
C	-0.6545115888	-2.229263094	-0.282225761	-0.018443
O	-0.1057361108	-2.220576451	 1.0717539504	-0.29833
C	-0.4906529489	-0.8551568593	 1.220193028	-0.068601
C	-1.3131566764	-0.8366321144	-0.0534608859	 0.221954
O	-2.5379567954	-0.3658442848	-0.4594837113	-0.454729
H	 0.967045798	 1.7863361481	 0.3940628329	 0.133404
H	-0.1566284752	 1.8597798597	-0.97811532	 0.134828
H	-0.7859182869	 1.8257619666	 0.6773133776	 0.126275
H	 0.1433228542	-1.9018903192	-2.2801977732	 0.096409
H	 1.3066484375	-2.6573966407	-1.1453251156	 0.119769
H	-1.2650551921	-3.1105953482	-0.4862585659	 0.087317
H	-0.6144540323	-0.4549915954	 2.2205861956	 0.108576
H	-3.225814217	-0.8281057668	 0.0338719055	 0.292555
183.789	193.1771	224.7648	235.2392	322.7928	371.0669	378.7408	422.433	546.984	593.1902	664.3148	725.7178	753.5431	806.1165	865.7122	903.1333	935.2122	946.7857	1004.0643	1030.5567	1046.2735	1049.0978	1076.0861	1128.4584	1177.7875	1198.9482	1223.6972	1243.7125	1283.6836	1316.284	1331.6645	1376.6831	1419.3328	1472.2445	1483.1432	1499.4299	1520.3106	2982.1611	3043.6081	3087.2334	3107.0615	3112.474	3121.7781	3177.1516	3781.648
CC12OCC3OC1C23O	C[C@@]12OC[C@H]3O[C@@H]1[C@@]23O	
InChI=1S/C6H8O3/c1-5-4-6(5,7)3(9-4)2-8-5/h3-4,7H,2H2,1H3	InChI=1S/C6H8O3/c1-5-4-6(5,7)3(9-4)2-8-5/h3-4,7H,2H2,1H3/t3-,4+,5-,6-/m1/s1
