17
gdb 55361	3.14135	1.37627	1.14066	4.4264	68.51	-0.2405	-0.0127	0.2279	1096.8023	0.134181	-458.954797	-458.946374	-458.94543	-458.988916	30.239	
C	-0.363476237	 1.4136945235	 0.0558921728	-0.493194
C	-0.0342250009	-0.0685201041	 0.1142907945	 0.377246
O	 0.1665385183	-0.6525433176	 1.1457078124	-0.274953
C	 0.0296418458	-0.775929075	-1.2516681047	-0.00373
O	 0.3033992879	-2.1503801348	-1.072164026	-0.253763
C	-0.43414008	-2.9438087322	-1.9963307794	-0.103734
C	-1.5617416439	-2.0674260702	-2.4901492424	 0.029808
O	-2.3166576171	-1.4669673058	-1.4313489452	-0.242062
C	-1.2701337278	-0.706269458	-2.0414088187	-0.010516
H	 0.1780820239	 1.9202299215	-0.749874993	 0.129717
H	-1.4349076578	 1.5399757785	-0.1405007683	 0.155156
H	-0.1268731597	 1.8771245452	 1.0143283374	 0.149481
H	 0.8206217435	-0.2797411008	-1.8447659107	 0.090966
H	 0.1908240908	-3.2529848129	-2.8490919162	 0.100249
H	-0.7782029719	-3.8404354067	-1.4706407273	 0.129272
H	-2.1055569493	-2.3020555162	-3.4008127175	 0.110095
H	-1.561204765	 0.1924088556	-2.5773092576	 0.109962
46.8798	80.1275	113.2702	164.1677	254.1943	354.2476	362.8036	442.9583	523.5917	599.3753	700.1573	787.0066	807.4702	836.7046	884.0412	927.6909	939.8967	972.9997	983.1192	1029.6511	1051.9111	1076.1294	1117.8569	1136.0212	1190.1192	1226.5631	1258.2272	1288.4545	1310.2996	1340.4835	1376.1188	1380.4758	1441.9264	1465.1637	1477.3496	1506.0479	1841.1818	2933.0918	2986.0779	3035.7753	3075.966	3098.3199	3151.9598	3155.1648	3167.6054
CC(=O)C1OCC2OC12	CC(=O)[C@H]1OC[C@H]2O[C@@H]12	
InChI=1S/C6H8O3/c1-3(7)5-6-4(9-6)2-8-5/h4-6H,2H2,1H3	InChI=1S/C6H8O3/c1-3(7)5-6-4(9-6)2-8-5/h4-6H,2H2,1H3/t4-,5-,6-/m1/s1
