25
gdb 102300	1.79409	1.03773	0.78626	0.5381	95.14	-0.2574	0.0561	0.3135	1646.8679	0.225738	-352.339385	-352.327717	-352.326773	-352.376733	42.71	
C	 1.2525628749	-2.7408894344	-0.0069146518	-0.394667
C	 0.7525058487	-2.1148066144	-1.3119776615	-0.174083
C	 0.6672593142	-0.5661641949	-1.2849410345	-0.174701
C	 2.0590465036	 0.0996261235	-1.160068827	-0.174835
C	 2.0672061232	 1.6379400619	-1.1065721444	 0.03705
C	 1.3383854801	 2.1867243339	 0.1282472802	-0.386255
C	 3.5110589336	 2.1564560369	-1.1569430614	-0.390297
C	-0.04238084	-0.0879688061	-2.4718301087	 0.336346
C	-0.6158848219	 0.2806539372	-3.4629544469	-0.475155
H	 2.2862604782	-2.4626383766	 0.2181886276	 0.121929
H	 0.6316933719	-2.4343915929	 0.8426488827	 0.115235
H	 1.2141321595	-3.8329039143	-0.0670086568	 0.115212
H	 1.3961374413	-2.4160227671	-2.1473800097	 0.10472
H	-0.2457470098	-2.5034454312	-1.5398288455	 0.106881
H	 0.0711459675	-0.2908688804	-0.4035442535	 0.101625
H	 2.5476276638	-0.2859384334	-0.2568209525	 0.093006
H	 2.6679950909	-0.2299523204	-2.0115812495	 0.095935
H	 1.5442843374	 2.0036292652	-1.9993823877	 0.089281
H	 1.387289683	 3.2802948367	 0.1540183264	 0.110211
H	 0.2804234889	 1.9082406286	 0.1403694084	 0.116913
H	 1.7956814836	 1.8135795076	 1.0532267243	 0.107183
H	 4.0299199809	 1.8066266999	-2.0557622898	 0.109683
H	 3.5382323291	 3.2511093208	-1.1585367718	 0.108744
H	 4.0844661861	 1.8127331632	-0.2871679323	 0.108428
H	-1.1302294088	 0.6127962806	-4.3303995143	 0.19161
33.3804	87.6151	91.8348	130.2664	168.6072	198.8389	230.985	248.2662	262.5382	289.8644	357.0166	373.7518	426.5867	446.8445	521.971	562.9548	623.9385	632.0811	768.1703	807.5041	829.9078	896.774	927.9554	948.6579	962.7845	972.448	1015.5837	1052.3215	1079.5617	1122.6007	1152.3589	1170.6593	1195.3486	1251.8636	1275.5197	1320.8318	1324.9889	1345.0122	1370.8344	1381.8115	1384.1127	1400.2656	1413.9108	1420.8741	1478.0723	1487.4562	1489.0443	1495.7722	1499.2481	1505.7504	1508.3234	1511.417	2228.8329	3006.4052	3019.0042	3021.6444	3023.4797	3030.69	3033.8588	3036.1086	3064.141	3072.4643	3085.3381	3092.7185	3098.0305	3100.448	3103.5107	3111.0653	3504.505
CCC(CC(C)C)C#C	CC[C@@H](CC(C)C)C#C	
InChI=1S/C9H16/c1-5-9(6-2)7-8(3)4/h1,8-9H,6-7H2,2-4H3	InChI=1S/C9H16/c1-5-9(6-2)7-8(3)4/h1,8-9H,6-7H2,2-4H3/t9-/m0/s1
