18
gdb 77171	2.98308	1.19784	0.97792	1.6506	73.65	-0.2472	0.0132	0.2604	1233.722	0.149001	-435.225643	-435.216992	-435.216048	-435.259473	31.879	
N	 0.28151938	 1.1858847993	 0.3669870134	-0.514766
C	 0.0682039618	-0.1627266225	-0.1011729434	-0.122911
C	-1.3990067354	-0.6530645549	-0.2450151163	 0.098436
O	-1.1172571032	-1.0724132492	-1.6253993107	-0.279191
C	 0.1534965224	-0.5201586098	-1.5830487047	 0.404656
N	 0.9989175372	-0.3476492909	-2.4911995808	-0.54329
C	-1.8814992847	-1.7826382258	 0.6196527448	-0.015057
C	-2.752271267	-2.8447456792	 0.0642455543	-0.241433
N	-1.3539671144	-3.1408567967	 0.4371235671	-0.322306
H	 1.2747794613	 1.3640650186	 0.4743433214	 0.247431
H	-0.0561535843	 1.8571409983	-0.3170725651	 0.236999
H	 0.658333993	-0.852310474	 0.5093882935	 0.126011
H	-2.1141972638	 0.1774446357	-0.2482995463	 0.099267
H	 0.6627568735	-0.6888891568	-3.3936771401	 0.23046
H	-2.009094436	-1.4896395898	 1.6605843232	 0.107819
H	-3.5059022851	-3.3117489342	 0.6912878443	 0.12217
H	-2.9964503102	-2.7920491254	-0.9927865494	 0.127496
H	-0.7992204553	-3.1652333426	-0.4168569151	 0.238208
77.2689	82.9094	158.5634	196.9493	229.2619	255.0847	329.0592	380.918	484.6963	611.1242	671.6982	717.535	798.6633	833.5664	851.3885	872.5812	903.4577	926.3434	961.591	981.9763	1010.0827	1018.4054	1062.7851	1127.6439	1142.966	1168.2496	1185.3979	1191.024	1226.9658	1232.2369	1272.8182	1295.8126	1314.3987	1372.0901	1416.8962	1433.4182	1507.7522	1668.8896	1822.6525	3047.3993	3078.45	3116.0838	3125.8004	3205.3612	3471.6217	3487.4849	3498.7361	3577.8958
NC1C(OC1=N)C1CN1	N[C@H]1[C@@H](O[C]1[NH])[C@H]1CN1	
InChI=1S/C5H9N3O/c6-3-4(2-1-8-2)9-5(3)7/h2-4,7-8H,1,6H2	InChI=1S/C5H9N3O/c6-3-4(2-1-8-2)9-5(3)7/h2-4,7-8H,1,6H2/t2-,3+,4+/m1/s1
