14
gdb 48344	2.45605	1.41748	1.05786	1.4258	65.15	-0.2661	-0.0728	0.1934	1106.3065	0.097584	-473.82505	-473.816505	-473.815561	-473.859207	29.646	
N	-0.0672819695	 1.0798229769	 0.7481892352	-0.526085
C	-0.0324665407	-0.0014383784	 0.1264928271	 0.445223
C	-1.0828257141	-0.9732082552	-0.3714246312	-0.407874
C	 0.1640804685	-1.7518033448	-0.9093359492	 0.219224
O	 1.0391942792	-0.7428766288	-0.3518475968	-0.265103
C	 0.3883894378	-3.1157378449	-0.2865800708	 0.085031
O	-0.2183318802	-4.0929824557	-0.6396909341	-0.240293
C	 0.2198157305	-1.816136703	-2.4342524763	 0.108029
O	 0.7422548223	-0.9745628312	-3.1085366041	-0.225884
H	 0.8659393868	 1.4618094586	 0.9076338162	 0.241821
H	-1.6577186679	-1.482179441	 0.4033580756	 0.160346
H	-1.7559190342	-0.5796005984	-1.1344351116	 0.163013
H	 1.1569192397	-3.1301200781	 0.5148758635	 0.120235
H	-0.2904444283	-2.707405086	-2.8525160235	 0.122317
61.4266	89.5113	100.288	192.8223	239.3954	282.412	321.4246	424.8084	476.5555	501.1718	663.3488	689.2347	811.1614	866.1428	881.9947	924.1806	959.3078	980.7271	1004.3187	1070.32	1087.6361	1169.2218	1206.9416	1216.9494	1269.839	1387.834	1393.8729	1462.7188	1814.5384	1842.9617	1852.2468	2919.7885	2937.5499	3091.9471	3150.5551	3489.464
N=C1CC(O1)(C=O)C=O	[NH][C]1CC(O1)(C=O)C=O	
InChI=1S/C5H5NO3/c6-4-1-5(2-7,3-8)9-4/h2-3,6H,1H2	InChI=1S/C5H5NO3/c6-4-1-5(2-7,3-8)9-4/h2-3,6H,1H2
