16
gdb 28301	5.04836	1.23966	1.0014	1.6886	79.42	-0.1794	0.0009	0.1803	1125.2109	0.126132	-400.785415	-400.778128	-400.777184	-400.816861	28.884	
O	 0.074454037	 1.363909644	-0.1009245333	-0.446705
C	 0.0644812646	-0.0002029132	-0.0424471836	 0.341863
C	 0.0238671153	-0.8119662641	-1.1570725134	-0.237294
N	 0.0271021986	-2.106183912	-0.6811144683	-0.002914
C	 0.0005617643	-3.4113411924	-1.1900851783	-0.010866
C	 0.0234586711	-4.296737384	-0.1856741984	-0.14426
C	 0.0697718772	-3.5568804251	 1.1438620317	-0.415194
C	 0.0684350352	-2.1218291805	 0.6938505023	 0.398922
C	 0.0926452295	-0.8173240301	 1.1324304821	-0.496582
H	 0.1049052832	 1.7050377026	 0.7968958275	 0.295708
H	-0.0056833332	-0.5727274737	-2.2057515275	 0.120404
H	-0.0330326545	-3.5722743655	-2.2577143615	 0.130707
H	 0.0113423694	-5.3710437003	-0.2860384567	 0.108128
H	-0.7920883432	-3.8054061624	 1.7770364546	 0.133044
H	 0.9637823305	-3.8203585595	 1.7242043373	 0.133034
H	 0.1263413249	-0.4720889139	 2.1554041454	 0.092006
126.428	196.2353	243.8876	309.0942	316.5601	432.2751	508.6763	553.0452	618.2922	645.0256	674.8411	705.7155	730.8065	741.2152	796.2576	891.0121	901.6832	941.9832	946.1937	1000.9017	1081.9568	1140.4118	1151.7417	1156.6259	1187.805	1236.5647	1277.8624	1323.4601	1382.8533	1436.2478	1459.9927	1470.2624	1545.0898	1636.834	1660.4186	3020.9606	3042.2986	3234.2549	3241.1994	3265.1448	3283.0969	3850.2364
OC1=CN2C=CCC2=C1	Oc1cn2C=CCc2c1	
InChI=1S/C7H7NO/c9-7-4-6-2-1-3-8(6)5-7/h1,3-5,9H,2H2	InChI=1S/C7H7NO/c9-7-4-6-2-1-3-8(6)5-7/h1,3-5,9H,2H2
