20
gdb 33128	3.11923	1.03078	0.78516	1.1071	83.84	-0.1658	0.0652	0.2311	1470.6164	0.172099	-399.349942	-399.340062	-399.339118	-399.385019	36.284	
C	-0.0233452038	 1.5325673526	-0.0046714993	-0.398534
C	-0.0044979341	 0.0087110686	-0.0651431967	-0.099808
N	 0.8103385882	-0.4593893669	-1.1750052082	-0.413532
C	 0.8641816328	-1.8458730794	-1.3860917528	 0.27676
C	 0.4357063012	-2.8785810017	-0.5774509177	-0.169469
N	 0.7406867476	-4.060393849	-1.218520845	-0.260898
C	 1.3641570454	-3.7971503366	-2.41626844	-0.152028
C	 1.452439579	-2.4299735443	-2.5503048786	 0.135784
N	 1.9380773245	-1.6518153353	-3.6290607855	-0.621785
H	 0.9920121746	 1.9294273184	 0.0866367572	 0.125092
H	-0.4725668647	 1.9571572814	-0.9102104056	 0.113777
H	-0.611481434	 1.8795911408	 0.8497973165	 0.115279
H	 0.429446417	-0.3926055188	 0.8600066143	 0.104916
H	-1.0381578439	-0.3799088623	-0.1160915035	 0.083579
H	 0.5808848409	 0.0194699372	-2.0402194093	 0.226827
H	-0.054132835	-2.8718014993	 0.3811392041	 0.105207
H	 0.562307234	-4.9759602118	-0.8513953033	 0.254231
H	 1.6836671765	-4.5909906544	-3.0721390778	 0.101455
H	 2.3454457053	-2.228865445	-4.3551587107	 0.233399
H	 2.6499857784	-0.9995174441	-3.3126308282	 0.239747
58.6912	82.3663	122.9667	188.5574	203.9352	249.0499	280.6543	283.4031	342.5216	375.2959	511.8104	602.1325	608.5859	627.2849	682.3218	702.6266	732.5898	806.851	824.5324	858.6652	911.9423	931.5357	1065.7839	1083.4699	1098.4193	1147.962	1156.9992	1175.2524	1232.9358	1279.6003	1294.3812	1358.6051	1383.0739	1408.9528	1434.8558	1474.2985	1487.0079	1498.9279	1505.887	1527.1627	1590.6387	1631.2254	1666.5914	2931.883	3027.5748	3034.3653	3099.3342	3118.2975	3257.9801	3276.7696	3489.3451	3513.0079	3590.8796	3712.8952
CCNC1=CNC=C1N	CCNc1c[nH]cc1N	
InChI=1S/C6H11N3/c1-2-9-6-4-8-3-5(6)7/h3-4,8-9H,2,7H2,1H3	InChI=1S/C6H11N3/c1-2-9-6-4-8-3-5(6)7/h3-4,8-9H,2,7H2,1H3
