17
gdb 19919	4.49333	1.51532	1.36632	3.0756	67.19	-0.2107	0.0683	0.279	934.8544	0.14258	-363.753252	-363.746072	-363.745127	-363.785015	28.01	
O	 0.0527619319	 1.4435794605	 0.3971356418	-0.429226
C	 0.1657478343	 0.1001581653	-0.074086996	-0.087685
C	-1.2138679382	-0.563941596	-0.1387566216	-0.044442
C	-1.8747555146	-1.3317596335	-1.2573480944	-0.0984
C	-0.9756471695	-2.424254907	-1.904389715	-0.055241
N	 0.3731172844	-2.3835084176	-1.2751668908	-0.331917
C	-0.7577807771	-3.0637182117	-0.5952573604	-0.053582
C	-1.6374588878	-1.9945935547	 0.1053003149	-0.086421
H	-0.3479020327	 1.9638471122	-0.306036241	 0.276539
H	 0.6712056377	 0.059631599	-1.0421818711	 0.10622
H	 0.8045870801	-0.4147135879	 0.6469041267	 0.117281
H	-1.9403678335	 0.0969226683	 0.3353102051	 0.094954
H	-2.8179634107	-1.0334107201	-1.6984452922	 0.086759
H	-1.123072532	-2.8586983065	-2.8842796403	 0.093804
H	 0.9320854107	-3.1085811871	-1.7252269678	 0.228507
H	-0.7027013562	-4.1091517163	-0.3219878827	 0.094015
H	-2.3720311367	-2.2543334569	 0.8573539949	 0.088835
48.9478	200.2382	216.0504	321.6146	363.7844	413.8416	482.8561	666.1711	710.0783	725.3454	733.8669	837.1189	842.0678	882.5207	899.5597	908.4071	974.1376	990.9007	996.0673	1011.1893	1039.8646	1049.2602	1080.0102	1118.4671	1134.8462	1185.254	1218.4293	1249.7012	1254.7577	1315.2663	1329.4784	1344.164	1381.8646	1403.3308	1429.9655	1485.0006	3063.6949	3108.9222	3113.6196	3178.3568	3189.2821	3194.7704	3207.864	3465.2526	3819.0219
OCC1C2C3NC3C12	OC[C@H]1[C@H]2[C@H]3N[C@H]3[C@@H]12	
InChI=1S/C6H9NO/c8-1-2-3-4(2)6-5(3)7-6/h2-8H,1H2	InChI=1S/C6H9NO/c8-1-2-3-4(2)6-5(3)7-6/h2-8H,1H2/t2-,3+,4-,5+,6-
