18
gdb 69907	2.78516	1.73573	1.39189	1.6786	75.61	-0.2383	0.0022	0.2405	976.4698	0.149165	-401.91484	-401.907503	-401.906558	-401.946331	29.647	
C	 0.0218224754	 1.4751447721	-0.0042747523	-0.484965
C	-0.0006760184	-0.0318545249	-0.019875541	 0.355848
C	-0.8636724581	-0.8428333155	 0.9134331432	-0.347512
C	 0.6377069246	-0.9249808538	 1.0525095477	-0.074935
C	 1.3846861029	-1.9262207286	 0.1688450506	-0.148764
N	 0.3647121662	-2.2097925968	-0.9104211106	-0.321392
C	 0.5139638403	-0.7519560683	-1.275411192	-0.204549
C	 2.0181261847	-0.973377697	-0.8986469029	 0.423897
O	 3.0902688242	-0.7669334452	-1.3766597483	-0.325506
H	 0.9819056243	 1.8644573523	-0.3630392233	 0.128179
H	-0.7657963825	 1.894152144	-0.6415841319	 0.121908
H	-0.1344876672	 1.858504264	 1.0086309141	 0.120429
H	-1.3613761583	-0.2670116249	 1.6869782322	 0.109733
H	-1.4192003983	-1.6968826958	 0.5496589865	 0.134194
H	 1.1425966618	-0.5173184129	 1.9196699416	 0.097936
H	 1.9064805807	-2.7693590923	 0.6171907215	 0.090667
H	 0.8048210209	-2.7756078055	-1.6356200998	 0.237793
H	 0.1753121869	-0.4290883712	-2.2584143154	 0.087038
121.5884	189.8327	222.8883	304.1155	360.3634	436.2034	494.44	516.1732	582.7287	662.6616	713.2563	737.979	822.305	849.1724	873.2287	883.1896	924.8088	953.4869	973.8127	1016.4021	1040.6631	1056.0632	1066.2516	1080.6836	1097.2059	1108.6741	1138.7038	1175.4769	1190.5038	1260.2682	1281.5866	1313.3539	1338.9639	1381.1631	1424.5038	1468.4707	1490.2227	1502.3677	1888.3521	3023.2328	3080.9738	3102.5305	3140.7547	3142.7202	3145.7046	3189.33	3236.0967	3472.6242
CC12CC1C1NC2C1=O	C[C@]12C[C@H]1[C@H]1N[C@@H]2C1=O	
InChI=1S/C7H9NO/c1-7-2-3(7)4-5(9)6(7)8-4/h3-4,6,8H,2H2,1H3	InChI=1S/C7H9NO/c1-7-2-3(7)4-5(9)6(7)8-4/h3-4,6,8H,2H2,1H3/t3-,4+,6+,7-/m0/s1
