13
gdb 131755	5.00015	0.93638	0.80961	2.5161	63.15	-0.2947	-0.1063	0.1883	1313.1493	0.088497	-489.876505	-489.868495	-489.86755	-489.910118	27.413	
O	 0.0012752765	 1.3408174231	-0.3989034738	-0.403499
C	-0.0178567764	 0.0655782055	 0.2032400533	-0.171122
C	-1.396334688	-0.5280175484	 0.186620903	 0.345965
N	-1.970221543	-1.0857609362	 1.2228325773	-0.145426
O	-3.2115597831	-1.4924365951	 0.7396568917	-0.173053
C	-3.2529840833	-1.1226882484	-0.5430812083	 0.323977
C	-4.45819009	-1.4009075217	-1.3656076356	 0.085997
O	-5.4369682002	-1.9611279598	-0.9498744248	-0.223177
N	-2.1701381976	-0.5265108241	-0.9508381742	-0.338269
H	-0.3822259565	 1.2510933559	-1.2791071259	 0.301879
H	 0.6709792758	-0.6350887216	-0.2949141717	 0.120961
H	 0.31462568	 0.1811741597	 1.2370903686	 0.150354
H	-4.3523749842	-1.034494949	-2.4042295297	 0.125413
63.4093	88.0779	149.052	195.9946	245.8755	317.6836	373.0356	449.8501	496.8575	674.7907	702.3734	766.317	793.8476	934.4935	990.107	1027.0168	1029.5788	1052.6563	1084.2549	1211.5668	1322.4732	1369.9202	1375.6486	1395.8722	1422.9677	1493.7079	1532.7632	1601.1773	1818.8552	2965.2137	2983.5266	3115.3683	3801.201
OCC1=NOC(C=O)=N1	OCc1noc(C=O)n1	
InChI=1S/C4H4N2O3/c7-1-3-5-4(2-8)9-6-3/h2,7H,1H2	InChI=1S/C4H4N2O3/c7-1-3-5-4(2-8)9-6-3/h2,7H,1H2
