20
gdb 10769	2.86215	1.62193	1.47824	2.1894	71.04	-0.252	0.0785	0.3305	999.3565	0.173995	-386.10905	-386.099625	-386.098681	-386.142884	34.354	
C	 0.1065437761	 1.4015480846	-0.0102165142	-0.24287
O	-0.0488333607	 0.0361202697	-0.3217666744	-0.278513
C	-1.3277531746	-0.559693117	-0.1025078393	 0.325304
C	-1.8508081441	-0.3044323816	 1.3199199779	-0.429339
C	-2.3328950539	-0.0876640301	-1.1665286058	-0.423988
C	-1.1130687371	-2.0625975063	-0.2696166348	 0.087169
C	 0.0881647431	-2.6461803653	-0.8741932514	-0.178578
O	-0.1195627032	-2.6771211364	 0.543185272	-0.250423
H	 1.1116611312	 1.6781619647	-0.3388978958	 0.127779
H	-0.6148735761	 2.0442218157	-0.5349231636	 0.103592
H	 0.0295972631	 1.6004844485	 1.0669715572	 0.11197
H	-2.1008557177	 0.7479839384	 1.4799620891	 0.112348
H	-2.7593564623	-0.8887044687	 1.4954965384	 0.116059
H	-1.0995910983	-0.6110824321	 2.0520715838	 0.142042
H	-1.9383395495	-0.2739352799	-2.1694402381	 0.124033
H	-3.2860045477	-0.615877207	-1.0635684984	 0.116209
H	-2.5403316826	 0.9817057782	-1.069406923	 0.117614
H	-2.0470221371	-2.6251926342	-0.3305038594	 0.083996
H	 0.0219320117	-3.6115153495	-1.3748212446	 0.105328
H	 0.8818837897	-1.9842189618	-1.2057792056	 0.130268
73.7711	89.6593	181.8	193.4681	220.7495	254.1946	282.2108	317.6204	347.0974	381.4709	441.8083	514.5168	574.921	707.6178	828.7477	879.1423	919.5949	926.6435	949.7474	1004.7863	1025.8283	1100.3813	1127.4163	1161.3641	1173.9294	1182.0502	1191.758	1200.791	1228.9474	1272.6141	1307.2865	1391.266	1408.2604	1433.4162	1476.5409	1481.1791	1483.2905	1496.9183	1504.4798	1510.6811	1515.2373	1520.96	2993.0482	3039.0238	3045.3681	3047.623	3084.9739	3096.0833	3108.0079	3109.1378	3114.7705	3119.9165	3130.3547	3202.393
COC(C)(C)C1CO1	COC(C)(C)[C@H]1CO1	
InChI=1S/C6H12O2/c1-6(2,7-3)5-4-8-5/h5H,4H2,1-3H3	InChI=1S/C6H12O2/c1-6(2,7-3)5-4-8-5/h5H,4H2,1-3H3/t5-/m1/s1
