18
gdb 32511	1.97433	1.55124	0.92648	4.5988	81.92	-0.222	-0.029	0.1929	1261.1644	0.148504	-402.008471	-401.999768	-401.998824	-402.04217	32.038	
C	 0.0681788979	 1.5481962978	 0.1114713831	-0.366001
C	-0.0138348915	 0.0185496639	-0.038241284	-0.306908
C	 0.7072185115	-0.5060057188	-1.2485513263	 0.17458
C	 0.1228027399	-0.91279242	-2.42168292	-0.160764
N	 1.1210550121	-1.2952820252	-3.2966992835	-0.243702
C	 2.334298886	-1.1451277768	-2.7122685574	-0.129225
C	 2.1289859151	-0.6539793192	-1.4312365135	 0.093061
C	 3.1957133857	-0.3771462062	-0.4793813697	 0.063619
O	 4.3817200439	-0.519062296	-0.7022304143	-0.295164
H	 1.1054194875	 1.8828906797	 0.2100908158	 0.12353
H	-0.3581846943	 2.0475096047	-0.7640652937	 0.118019
H	-0.4803776212	 1.8831374222	 0.9976136952	 0.112151
H	 0.3830631152	-0.4537072378	 0.8683860343	 0.109392
H	-1.0667691247	-0.2800229178	-0.0975444716	 0.101195
H	-0.9155953015	-0.9679647832	-2.7080374623	 0.126503
H	 0.9681269155	-1.6435835634	-4.2276976265	 0.269689
H	 3.2540581671	-1.3936133307	-3.2156225198	 0.153089
H	 2.8512555559	-0.0142716133	 0.5150226242	 0.056938
74.0702	133.1139	158.7862	174.7503	222.6533	259.4516	320.4556	399.1607	527.121	536.253	609.1714	654.1607	686.7513	752.6544	789.5397	803.431	812.2647	911.5218	967.6023	1040.9657	1058.0283	1084.7495	1087.2988	1118.3393	1194.0623	1255.0397	1287.1016	1338.2973	1361.2208	1389.5088	1409.452	1452.968	1475.0893	1486.97	1495.5782	1506.7052	1544.6818	1598.6054	1775.5208	2873.2801	3029.3578	3036.6474	3061.943	3107.8394	3112.3693	3258.7478	3278.3511	3673.8768
CCC1=CNC=C1C=O	CCc1c[nH]cc1C=O	
InChI=1S/C7H9NO/c1-2-6-3-8-4-7(6)5-9/h3-5,8H,2H2,1H3	InChI=1S/C7H9NO/c1-2-6-3-8-4-7(6)5-9/h3-5,8H,2H2,1H3
