16
gdb 73604	2.40588	1.66711	1.34393	4.4664	69.37	-0.2516	0.0227	0.2743	1002.1078	0.123883	-437.876988	-437.868815	-437.867871	-437.909883	29.828	
C	 0.0482020169	 1.5802084836	-0.0599602002	-0.4674
C	 0.0106628996	 0.0932503325	 0.1331514397	 0.381633
O	-1.264256772	-0.4595034654	-0.0311258354	-0.286188
C	-1.3479164467	-1.6507199401	 0.7426211018	 0.000404
O	-0.2240504357	-1.6803574659	 1.6206680164	-0.251236
C	 0.6750971731	-0.7147777121	 1.1850925606	 0.028331
C	 1.2136912709	-0.8012647653	-0.2607152464	-0.335226
C	 1.0660415711	-1.978317164	-1.0582632805	 0.330175
N	 0.9405194634	-2.9299805844	-1.7051947681	-0.351763
H	 1.0521778012	 1.970266124	 0.1251940456	 0.128348
H	-0.2377710726	 1.8399892458	-1.0834921646	 0.147495
H	-0.6502668194	 2.0656974446	 0.6278067334	 0.140645
H	-2.2692574849	-1.6354477805	 1.3356334057	 0.12529
H	-1.3246827584	-2.5257111805	 0.0836325062	 0.142008
H	 1.3168639465	-0.335115579	 1.9706272915	 0.130898
H	 2.140737017	-0.2598557634	-0.4258021059	 0.136586
107.8152	120.422	152.0346	200.7386	215.6627	319.9754	384.7808	393.8903	568.8262	639.2072	661.504	726.2315	732.9341	809.252	862.5502	927.77	974.5425	980.032	1040.8872	1063.5009	1098.6587	1117.4384	1150.2979	1154.4648	1208.9706	1238.0922	1262.4615	1334.2463	1414.2542	1433.1282	1454.6106	1478.6333	1499.6696	1550.8184	2347.6037	3031.2475	3045.8142	3080.0421	3117.2639	3126.8218	3157.3429	3193.8764
CC12OCOC1C2C#N	C[C@]12OCO[C@H]1[C@H]2C#N	
InChI=1S/C6H7NO2/c1-6-4(2-7)5(6)8-3-9-6/h4-5H,3H2,1H3	InChI=1S/C6H7NO2/c1-6-4(2-7)5(6)8-3-9-6/h4-5H,3H2,1H3/t4-,5+,6-/m1/s1
