17
gdb 19256	3.26621	1.82133	1.41141	2.9079	69.11	-0.2182	-0.0337	0.1845	913.6089	0.141221	-363.811661	-363.803949	-363.803005	-363.843944	28.532	
C	-0.5800265667	 1.4528903388	 0.35168292	-0.336305
N	-0.118500954	 0.0895866206	 0.1524521326	-0.091498
C	 0.3040177892	-0.3466333455	-1.1744850043	 0.005636
C	 1.6197799144	 0.2387320432	-1.6046693192	-0.301824
C	 1.6005282482	-0.9057925387	-0.6148896577	-0.105538
C	 1.1364814894	-0.4303817071	 0.7760712705	-0.052457
C	 2.0712379976	 0.5212646663	 1.488933758	 0.152455
O	 2.5651549769	 0.2841979333	 2.5631875267	-0.250844
H	 0.0792557611	 2.2349827264	-0.0602765546	 0.100678
H	-1.5605782976	 1.5633667998	-0.1238746876	 0.127742
H	-0.7069309589	 1.6410512165	 1.4227843319	 0.131697
H	-0.4102925522	-0.7807302474	-1.8658494331	 0.09952
H	 1.9481801848	-0.0461628251	-2.5996327473	 0.120702
H	 1.9094806209	 1.244206762	-1.3171107939	 0.115062
H	 2.0788638286	-1.8562039455	-0.8062952446	 0.10726
H	 0.9202475816	-1.2551088747	 1.4633165512	 0.101701
H	 2.3092291766	 1.4634825972	 0.9494216515	 0.076013
59.4875	157.631	210.1084	227.1513	250.8223	360.378	435.191	487.5451	514.7467	655.5805	777.8092	788.2658	862.6331	916.4415	952.0678	977.3493	1029.5177	1035.254	1056.798	1073.1248	1079.617	1113.5501	1154.0226	1177.3587	1219.4671	1234.4225	1276.4718	1282.5035	1305.0117	1352.5629	1433.0784	1450.3694	1480.0168	1491.0451	1512.9788	1816.9826	2891.9571	2964.6257	3053.7155	3058.5541	3100.8866	3126.2116	3165.5576	3205.5008	3214.6316
CN1C2CC2C1C=O	CN1[C@H]2C[C@H]2[C@H]1C=O	
InChI=1S/C6H9NO/c1-7-5-2-4(5)6(7)3-8/h3-6H,2H2,1H3	InChI=1S/C6H9NO/c1-7-5-2-4(5)6(7)3-8/h3-6H,2H2,1H3/t4-,5+,6-/m1/s1
