19
gdb 95903	2.0786	1.59909	1.27779	3.2931	75.32	-0.2457	0.0344	0.2801	1092.166	0.15976	-419.221282	-419.212058	-419.211114	-419.25559	34.294	
C	-0.1685040452	 1.5662944077	-0.0117349431	-0.424828
C	 0.0732807903	 0.0534931667	 0.0182556948	 0.105531
N	 0.936970533	-0.3741809625	-1.0880797413	-0.30139
C	 1.4393992414	-1.7056651234	-0.7423724404	-0.178709
C	 1.8353805307	-1.522360751	 0.7293869233	-0.230774
C	 0.8500266711	-0.4582900428	 1.285226396	 0.114344
O	 1.5044860234	 0.6430055338	 1.8881973104	-0.431097
C	-1.235869193	-0.6521613198	-0.0344244565	 0.246867
N	-2.2397438874	-1.2198461755	-0.1272438273	-0.35327
H	 0.791681312	 2.0791033713	 0.0257845648	 0.147728
H	-0.6923146273	 1.8418707627	-0.9314887004	 0.120449
H	-0.7760029857	 1.881871502	 0.8394390946	 0.13427
H	 0.4514660089	-0.3530273177	-1.9785015679	 0.229919
H	 0.6764633788	-2.4948376317	-0.8435068707	 0.107266
H	 2.2862528326	-1.9706777817	-1.3811741591	 0.11038
H	 1.8092702367	-2.4580772988	 1.2921313507	 0.105755
H	 2.8417647343	-1.1004532188	 0.7967045714	 0.117651
H	 0.1368979362	-0.9017786283	 1.9902841826	 0.089824
H	 1.9457064694	 0.3258176276	 2.6820516381	 0.290085
33.8403	148.9525	152.9072	211.7588	231.8779	253.0423	295.2345	367.9033	396.203	455.0292	521.0878	572.8615	595.4005	632.6512	724.9973	828.59	869.5082	884.2626	913.5235	949.7618	998.3005	1072.7982	1082.3757	1120.9974	1153.278	1153.653	1185.9879	1225.3799	1244.0754	1267.5126	1313.6466	1329.963	1362.3356	1405.7225	1421.1705	1452.4057	1480.7313	1486.9811	1491.0575	1520.3815	2334.3797	2969.2374	3026.193	3056.8769	3064.736	3085.7499	3120.0706	3128.3444	3166.7755	3537.5169	3828.692
CC1(NCCC1O)C#N	C[C@]1(NCC[C@H]1O)C#N	
InChI=1S/C6H10N2O/c1-6(4-7)5(9)2-3-8-6/h5,8-9H,2-3H2,1H3	InChI=1S/C6H10N2O/c1-6(4-7)5(9)2-3-8-6/h5,8-9H,2-3H2,1H3/t5-,6+/m1/s1
