22
gdb 117775	2.52747	0.97164	0.84225	4.6351	82.77	-0.2881	0.023	0.3111	1522.1984	0.191109	-404.372602	-404.361388	-404.360444	-404.408879	40.127	
C	-0.0808342808	 1.617918467	-0.0451912438	-0.386213
C	-0.0477179117	 0.0879528766	-0.0047255921	-0.181109
C	 0.7443605415	-0.510769915	-1.1710153197	-0.210306
C	 0.7345633003	-2.0565981116	-1.2308828224	 0.185676
O	-0.6007091852	-2.5611750363	-1.2640655464	-0.44577
C	 1.549508971	-2.5659989938	-2.4446828374	-0.210301
C	 1.5770753398	-4.0884201568	-2.5863534935	-0.397234
C	 1.3291250603	-2.597193389	 0.0113875798	 0.318997
N	 1.8441949578	-2.9947788527	 0.9657379007	-0.352165
H	 0.9289069017	 2.0404591824	 0.0030928873	 0.117469
H	-0.5481053756	 1.9836179149	-0.9667453284	 0.111339
H	-0.6498563881	 2.0208971792	 0.7977698651	 0.119477
H	 0.3946905969	-0.247147002	 0.9404732481	 0.124386
H	-1.066815531	-0.31215973	-0.0246938604	 0.110188
H	 0.3316111974	-0.1543520237	-2.125875747	 0.091066
H	 1.7853671251	-0.1674115063	-1.1390486072	 0.114384
H	-1.0108043016	-2.2164355242	-2.0658213908	 0.287202
H	 1.1011215881	-2.1091575596	-3.3373264999	 0.09475
H	 2.5677769992	-2.1680367248	-2.3722836608	 0.117653
H	 2.0847581882	-4.5543057182	-1.7367279062	 0.144373
H	 0.5629571462	-4.492914833	-2.6335337	 0.129723
H	 2.1079945004	-4.3778136031	-3.497469975	 0.116416
76.8592	96.9873	108.9385	130.0202	166.6999	206.525	228.3666	234.6358	249.0149	287.1735	323.5123	380.6382	409.6936	463.9694	589.9308	647.3697	715.7073	751.9464	794.9813	866.9621	897.2632	951.7054	980.6086	1025.6858	1047.7819	1079.9868	1098.0749	1129.5159	1153.3385	1181.7217	1256.3443	1281.7495	1310.8495	1329.0917	1359.5078	1393.9784	1407.6892	1414.545	1418.2889	1470.6407	1484.8165	1494.5163	1495.5047	1500.7664	1509.3852	1511.9269	2361.8902	3005.9858	3020.6545	3029.1455	3044.2313	3049.0094	3055.7182	3070.9799	3078.4468	3101.125	3107.0755	3118.4243	3128.5962	3800.8499
CCCC(O)(CC)C#N	CCC[C@@](O)(CC)C#N	
InChI=1S/C7H13NO/c1-3-5-7(9,4-2)6-8/h9H,3-5H2,1-2H3	InChI=1S/C7H13NO/c1-3-5-7(9,4-2)6-8/h9H,3-5H2,1-2H3/t7-/m0/s1
