20
gdb 82135	2.98569	1.19627	1.02362	3.6703	79.86	-0.246	0.0308	0.2768	1229.1804	0.171279	-403.148962	-403.140022	-403.139078	-403.183504	33.313	
C	-0.1682705241	 1.582006314	-0.129559823	-0.413523
C	 0.0255201814	 0.0732103871	-0.0917711732	 0.003754
C	 0.7187409377	-0.6350986882	-1.2670274712	-0.051938
C	 2.154774665	-0.2167495132	-1.380609913	-0.294695
C	 1.7746083545	-1.2266197159	-0.3271718348	-0.092958
C	 1.1177719368	-0.5505391483	 0.8712281173	 0.034806
N	 1.9698272564	 0.3159026071	 1.6589749171	-0.27806
C	 1.663341845	 0.69896234	 2.925854454	 0.150621
O	 0.6530682058	 0.3845828754	 3.5204589047	-0.329553
H	 0.7615634255	 2.1156590718	-0.3489218496	 0.106015
H	-0.8983300303	 1.8581271726	-0.8979526781	 0.115749
H	-0.5385599335	 1.9441325116	 0.8349096301	 0.1352
H	-0.9321491347	-0.407910389	 0.1265933601	 0.083444
H	 0.2076195105	-1.1293877301	-2.0839342898	 0.089785
H	 2.694348201	-0.6296779142	-2.2267050252	 0.117656
H	 2.4674077566	 0.7913192618	-1.119185505	 0.102398
H	 2.2011070191	-2.2223515436	-0.3184056263	 0.092324
H	 0.648702092	-1.2546464822	 1.5592662564	 0.111301
H	 2.8313459942	 0.6431737832	 1.2512971617	 0.246828
H	 2.4535413812	 1.33841542	 3.3691716478	 0.070844
26.6665	116.0678	172.383	198.8265	209.4762	259.9236	275.2271	416.9089	506.0203	525.7075	555.9707	674.356	735.6132	777.4881	805.2155	847.4715	913.85	933.6871	991.5694	1007.0521	1018.5219	1031.3799	1050.435	1070.4298	1088.081	1098.3931	1120.772	1148.4927	1177.1346	1207.8773	1241.5114	1271.2752	1311.7033	1361.1102	1367.9544	1379.3284	1411.5085	1428.7094	1487.4621	1493.2923	1502.7054	1512.4219	1800.3524	2926.8717	3034.7169	3061.2566	3101.0016	3106.3612	3109.7544	3112.4974	3179.5179	3187.1842	3202.1882	3630.9987
CC1C2CC2C1NC=O	C[C@H]1[C@H]2C[C@H]2[C@H]1NC=O	
InChI=1S/C7H11NO/c1-4-5-2-6(5)7(4)8-3-9/h3-7H,2H2,1H3,(H,8,9)	InChI=1S/C7H11NO/c1-4-5-2-6(5)7(4)8-3-9/h3-7H,2H2,1H3,(H,8,9)/t4-,5+,6+,7-/m0/s1
