17
gdb 56698	2.74594	1.33321	1.01382	4.6891	78.43	-0.2735	0.0109	0.2844	1170.1594	0.13441	-380.822422	-380.813171	-380.812227	-380.856403	34.088	
C	 0.3743086666	 1.6344858882	-0.0761687387	-0.399157
C	 0.0933775393	 0.1188467112	 0.025717924	-0.23763
C	 0.5002123631	-0.5648420482	-1.1993676102	 0.290857
C	 0.8647080168	-1.1036897547	-2.2109026775	-0.442534
C	 0.780752271	-0.4984532034	 1.2642325692	 0.149484
C	 1.154890405	-1.9431004717	 1.3059320412	-0.268533
N	 2.1951169428	-0.913778795	 1.2135189658	-0.325159
C	 0.3837365616	 0.1342721457	 2.507252201	 0.283888
N	 0.0219297495	 0.6386952674	 3.482514136	-0.34557
H	 1.4446877227	 1.8215625351	-0.1976448321	 0.135694
H	-0.1483056148	 2.0560523581	-0.9374524182	 0.134333
H	 0.0313777837	 2.1444096434	 0.8272760995	 0.152199
H	-0.9876337965	-0.0208009633	 0.1588440411	 0.133589
H	 1.1632526553	-1.579128161	-3.1131270966	 0.20992
H	 1.1147135571	-2.4713466988	 2.2529340828	 0.142248
H	 0.9213220847	-2.5302124124	 0.423229238	 0.139484
H	 2.5111447319	-0.8405776305	 0.2468016846	 0.246887
56.5319	134.4495	172.2691	197.4991	219.087	246.4993	278.9044	340.0392	408.4653	497.2935	539.5131	566.3455	598.3169	635.8589	667.1225	696.9353	844.0464	869.1539	908.2683	942.8823	996.5534	1032.7942	1057.2773	1095.0978	1132.2176	1161.5957	1255.7139	1276.9246	1311.8132	1325.0919	1377.5074	1412.2647	1495.5343	1497.7066	1500.4903	2231.6848	2356.5651	3022.349	3052.9329	3124.6751	3131.103	3137.455	3219.8038	3476.4691	3498.2113
CC(C#C)C1(CN1)C#N	C[C@@H](C#C)[C@]1(CN1)C#N	
InChI=1S/C7H8N2/c1-3-6(2)7(4-8)5-9-7/h1,6,9H,5H2,2H3	InChI=1S/C7H8N2/c1-3-6(2)7(4-8)5-9-7/h1,6,9H,5H2,2H3/t6-,7+/m0/s1
