21
gdb 87961	2.99077	1.13018	0.97416	1.014	79.04	-0.225	0.0669	0.2918	1301.8582	0.181949	-424.215285	-424.206106	-424.205162	-424.249757	34.938	
C	-0.0479848089	 1.521634127	-0.1041934397	-0.411223
C	 0.013504421	 0.0197562604	 0.0562861108	-0.058868
C	 1.3174735555	-0.737608885	-0.1521741187	-0.369484
C	 0.7183488228	-0.6424382353	 1.2141755876	 0.44824
C	 1.3190547917	 0.1207540695	 2.394456718	-0.330191
C	 1.042575263	-0.7994280698	 3.5958199748	 0.109985
O	 0.758672992	-0.023835036	 4.7453969974	-0.429446
C	-0.1401504082	-1.6373146738	 3.0777055549	-0.125938
O	 0.1481388899	-1.8472076765	 1.7081758995	-0.284718
H	 0.8708147233	 2.0016327739	 0.2485636666	 0.115672
H	-0.1770100075	 1.7989305282	-1.1564121025	 0.117709
H	-0.883681462	 1.9535254123	 0.458238834	 0.117701
H	-0.8728128984	-0.5167552363	-0.2722331546	 0.091664
H	 1.2726202739	-1.7038597178	-0.6427517686	 0.118969
H	 2.2159305139	-0.1625701661	-0.3575297426	 0.106793
H	 2.3832439949	 0.331824573	 2.268620281	 0.110085
H	 0.8044463403	 1.0705327933	 2.5701605301	 0.122218
H	 1.9038037638	-1.4597498831	 3.7710130829	 0.075714
H	 0.7025264047	-0.6157960795	 5.5018280725	 0.285678
H	-0.2439922125	-2.6160573726	 3.5554342884	 0.097268
H	-1.0716222132	-1.0660141256	 3.2254142684	 0.09217
28.2822	144.512	186.0208	191.6968	229.2038	272.8231	322.6852	405.0518	422.457	453.4665	474.7041	508.7391	606.482	772.783	789.0883	861.3222	890.461	897.5741	912.6498	941.9996	1009.8667	1031.2421	1050.9216	1080.3389	1093.7448	1121.0712	1122.6125	1132.1913	1180.7801	1198.0039	1216.3717	1228.4061	1273.3792	1286.6573	1328.1933	1349.7765	1370.9726	1405.3602	1419.7072	1435.4044	1482.4605	1490.9599	1493.97	1505.9247	1517.118	2971.0138	2999.9483	3025.4	3059.0634	3084.484	3085.587	3094.2507	3107.5993	3120.8202	3145.7774	3213.1946	3821.8391
CC1CC11CC(O)CO1	C[C@H]1C[C@]21C[C@@H](O)CO2	
InChI=1S/C7H12O2/c1-5-2-7(5)3-6(8)4-9-7/h5-6,8H,2-4H2,1H3	InChI=1S/C7H12O2/c1-5-2-7(5)3-6(8)4-9-7/h5-6,8H,2-4H2,1H3/t5-,6+,7+/m0/s1
