15
gdb 9081	4.30075	1.03808	0.87412	4.8551	64.04	-0.2613	0.0093	0.2707	1237.5776	0.119516	-396.010359	-396.001734	-396.00079	-396.044582	29.672	
N	 0.197949129	 1.3689376942	 0.2799896394	-0.507159
C	-0.167911839	-0.0133942287	-0.0489349022	-0.13724
C	-1.6960265847	-0.1054254631	-0.240071482	-0.14531
N	-2.3734410781	 0.3442669735	 0.9541134759	-0.277113
C	-3.2757032307	-0.4253902871	 1.6237270882	 0.153495
O	-3.6585931816	-1.5198432688	 1.2710164037	-0.316865
C	 0.5325797606	-0.5390636483	-1.2373575104	 0.263036
N	 1.0910692299	-0.9065588841	-2.1805142521	-0.311687
H	 1.1671420336	 1.4175717054	 0.5783571721	 0.252992
H	 0.1218698298	 1.9525383082	-0.5493432754	 0.247806
H	 0.1021839261	-0.6411097451	 0.8072560523	 0.145665
H	-1.9831266054	 0.4994762919	-1.1105220973	 0.12345
H	-2.004707399	-1.1349356994	-0.4287045875	 0.168441
H	-2.0538891873	 1.2102862251	 1.3610939493	 0.259284
H	-3.6351603732	 0.0755549963	 2.5436126661	 0.081205
39.1194	83.3828	139.9075	207.8046	243.1869	277.2967	309.6672	351.047	452.389	549.9036	583.207	590.2787	762.8742	852.8476	938.0972	957.9338	983.4175	1035.2736	1060.8244	1135.7728	1189.8966	1217.53	1292.0112	1301.9962	1387.9857	1396.7747	1428.6989	1492.9715	1521.9749	1663.6256	1806.8001	2349.1795	2946.5135	3019.8697	3064.0741	3133.252	3493.8519	3574.8886	3625.5234
NC(CNC=O)C#N	N[C@@H](CNC=O)C#N	
InChI=1S/C4H7N3O/c5-1-4(6)2-7-3-8/h3-4H,2,6H2,(H,7,8)	InChI=1S/C4H7N3O/c5-1-4(6)2-7-3-8/h3-4H,2,6H2,(H,7,8)/t4-/m1/s1
