17
gdb 20109	4.2297	1.72115	1.53646	2.0569	67.52	-0.2371	0.0787	0.3158	876.0933	0.142964	-363.788807	-363.781812	-363.780868	-363.820216	26.666	
C	-0.4426434649	 1.2566022404	-0.3083828897	-0.166231
O	 0.78424979	 1.3563170417	 0.4180215106	-0.237165
C	 0.2711128692	 0.0504328554	 0.1305222579	-0.055564
C	-0.1993073779	-0.7374861208	 1.2990476205	 0.332718
C	-1.4031495413	-1.5934082848	 1.2681719966	-0.276971
N	-1.4446066968	-0.3694284719	 2.0913967536	-0.16219
C	-0.6841337005	-0.7079068391	 3.3490881742	-0.148927
C	 0.6222759747	-0.9945675849	 2.5649125932	-0.310427
H	-1.3311826118	 1.5574362456	 0.2417204234	 0.13706
H	-0.3941843305	 1.559948993	-1.3532501348	 0.111316
H	 0.8607484572	-0.5022113542	-0.6037345549	 0.093391
H	-2.0417850072	-1.5333333084	 0.3919954248	 0.119953
H	-1.3955797786	-2.5644938643	 1.7607136079	 0.109168
H	-0.6287959699	 0.1683016223	 3.9967194468	 0.118096
H	-1.1243845047	-1.5402046958	 3.9078226352	 0.10443
H	 1.0823376163	-1.9818730873	 2.6629178177	 0.1007
H	 1.3797705667	-0.2257368369	 2.7230842171	 0.130641
82.1937	150.682	200.9693	262.3896	439.0496	478.5595	514.1494	615.0829	745.4071	780.8682	823.0572	833.2635	869.864	919.3367	934.4515	968.4845	992.6959	1036.2618	1084.8893	1102.352	1111.1984	1128.4212	1160.6706	1167.7683	1195.6616	1220.7871	1231.9456	1269.1471	1288.779	1309.6824	1360.0074	1446.9962	1483.6398	1493.6133	1516.652	1517.3638	3049.2956	3061.7932	3086.5251	3093.4997	3097.2944	3114.373	3133.4939	3188.6618	3192.7875
C1OC1C12CN1CC2	C1O[C@H]1[C@]12CN1CC2	
InChI=1S/C6H9NO/c1-2-7-4-6(1,7)5-3-8-5/h5H,1-4H2	InChI=1S/C6H9NO/c1-2-7-4-6(1,7)5-3-8-5/h5H,1-4H2/t5-,6+,7?/m1/s1
