17
gdb 56361	2.02702	1.45496	1.23546	1.2743	79.41	-0.2601	0.0267	0.2868	1128.5746	0.131582	-384.589634	-384.579987	-384.579042	-384.623856	35.717	
C	-0.0544454095	 1.4367762056	-0.1417728346	-0.409644
C	 0.0111578476	-0.1025791827	 0.0641375927	-0.167526
C	 0.711515358	-0.4143253775	 1.3189852759	 0.341757
C	 1.3232147938	-0.6533895417	 2.3246444042	-0.474704
C	-1.3521571465	-0.6484988195	 0.1002792602	 0.346202
C	-2.4769729789	-1.0679618545	 0.1338661952	-0.46638
C	 0.8329899456	-0.7031768531	-1.0950287626	 0.096018
C	 0.5128236986	-1.9699738075	-1.7530632592	-0.190324
O	 0.2229446093	-0.7076777187	-2.3742663134	-0.241203
H	 0.956435513	 1.8533317573	-0.1505349136	 0.125543
H	-0.5420111532	 1.6501290132	-1.0954462479	 0.146906
H	-0.6204759089	 1.9037740654	 0.6660688579	 0.136518
H	 1.8474401488	-0.8722747062	 3.2220803142	 0.201506
H	-3.4706102373	-1.4418601665	 0.1665794571	 0.201044
H	 1.8702377164	-0.3658198209	-1.079669075	 0.104346
H	 1.3098352116	-2.5452561288	-2.220717888	 0.117531
H	-0.3592239583	-2.5327495039	-1.4304877131	 0.132409
72.2741	127.8064	136.4076	163.81	217.2193	244.8527	259.6582	348.8987	417.4386	473.4252	496.8613	558.0399	598.8014	634.8405	639.0023	652.4646	656.2894	665.549	853.2522	883.43	939.6488	967.4811	1013.209	1069.9425	1104.1732	1158.4828	1171.3999	1185.1381	1221.4137	1305.0183	1394.8987	1418.1338	1488.5125	1491.9212	1519.4603	2236.7915	2241.9427	3051.9029	3096.1631	3105.1103	3133.4916	3146.9411	3194.0959	3500.5606	3501.5948
CC(C#C)(C#C)C1CO1	CC(C#C)(C#C)[C@H]1CO1	
InChI=1S/C8H8O/c1-4-8(3,5-2)7-6-9-7/h1-2,7H,6H2,3H3	InChI=1S/C8H8O/c1-4-8(3,5-2)7-6-9-7/h1-2,7H,6H2,3H3/t7-/m1/s1
