19
gdb 91784	2.42118	1.70138	1.23631	2.7625	75.	-0.2364	-0.0268	0.2096	1077.9155	0.158236	-423.051682	-423.042886	-423.041942	-423.08499	33.041	
C	 0.7653304896	 1.4827528325	 0.0411906631	-0.401993
C	-0.0144060557	 0.1652117203	-0.0978840144	-0.094586
C	 0.4184002611	-0.7173070071	-1.29945365	-0.271462
C	 1.2336057896	-1.8442617617	-0.6898418503	-0.012481
O	 2.2790771472	-1.3688411136	 0.1589265958	-0.287627
C	 1.0725885513	-1.891448135	 0.7759555082	 0.288704
C	 1.1999046921	-3.0824291522	 1.6746379332	-0.496461
C	 0.181986472	-0.7238385109	 1.1437141958	 0.373016
O	-0.3127605566	-0.5441702127	 2.2281533898	-0.327472
H	 1.8401979015	 1.2896776941	 0.0830584036	 0.140778
H	 0.563551323	 2.1394401686	-0.8109104685	 0.115014
H	 0.4688939954	 2.0057637921	 0.9548039703	 0.13386
H	-1.0825278748	 0.3975818725	-0.1523799368	 0.103486
H	-0.4507080946	-1.1347193978	-1.8194281452	 0.109996
H	 1.0051370928	-0.1601285153	-2.036819351	 0.116158
H	 1.4679806115	-2.7406942528	-1.259576253	 0.100698
H	 1.9231584995	-3.7936984733	 1.2692430788	 0.130197
H	 1.528502074	-2.7699913528	 2.670089115	 0.146629
H	 0.233075971	-3.582324785	 1.7878184457	 0.133545
73.5854	146.7058	182.0994	212.9949	239.276	256.3582	302.07	373.2654	428.6989	486.2265	570.2294	634.3241	671.84	764.4062	795.9839	853.1038	869.7208	916.4749	944.4849	1000.3307	1017.2133	1048.2163	1089.1752	1104.7872	1117.6503	1147.2535	1231.0168	1248.1433	1295.283	1305.1873	1326.3284	1333.6165	1397.3833	1409.4878	1456.7208	1478.4318	1483.8635	1491.7891	1495.9902	1508.0096	1835.7257	3040.5791	3044.3534	3047.3643	3061.8737	3088.3172	3111.892	3114.7679	3130.1116	3132.3805	3142.618
CC1CC2OC2(C)C1=O	C[C@H]1C[C@H]2O[C@@]2(C)C1=O	
InChI=1S/C7H10O2/c1-4-3-5-7(2,9-5)6(4)8/h4-5H,3H2,1-2H3	InChI=1S/C7H10O2/c1-4-3-5-7(2,9-5)6(4)8/h4-5H,3H2,1-2H3/t4-,5+,7+/m0/s1
