20
gdb 40266	2.80552	1.47638	1.11804	2.6681	80.92	-0.2329	0.0154	0.2484	1136.3652	0.172875	-403.114449	-403.106375	-403.105431	-403.147493	31.455	
C	-0.0876671054	 1.5680313269	 0.083658312	-0.288201
N	 1.2022919783	 0.8844411061	 0.27773043	-0.332381
C	 0.0039965162	 0.0877367056	-0.0347884943	 0.326717
C	-0.4592342322	-0.7651901241	 1.130462965	-0.130062
O	 0.4061609337	-1.8501478404	 1.3942560067	-0.228788
C	 0.213084681	-3.0035549657	 0.6094152668	-0.126382
C	 0.551460809	-2.9064214251	-0.8592102583	-0.057672
C	 0.4143622134	-1.8739127659	-1.6901569608	-0.057386
C	-0.1559260033	-0.5003270466	-1.4271180602	-0.342888
H	-0.5031615951	 2.023966019	 0.9788667466	 0.114792
H	-0.2525301317	 2.1390371126	-0.8271457472	 0.105769
H	 1.7816428318	 0.9865607746	-0.5519543804	 0.227102
H	-0.4552277016	-0.1554554316	 2.0384246525	 0.107464
H	-1.4897761412	-1.1200371117	 0.9577573456	 0.0799
H	 0.8491288279	-3.769013674	 1.0668960795	 0.114547
H	-0.8294947996	-3.3630382334	 0.7102834891	 0.094975
H	 0.9207569435	-3.8401810138	-1.2808318641	 0.088764
H	 0.6880533152	-2.0417064694	-2.730393886	 0.088525
H	-1.2307442774	-0.5318030329	-1.6708763398	 0.119093
H	 0.2747050274	 0.2048021	-2.1495655126	 0.096112
50.6726	98.3753	260.755	299.131	309.3219	364.1132	399.8139	424.2925	465.1485	552.2378	660.6688	744.3809	800.429	842.0143	878.5854	909.6311	915.9449	945.863	967.0899	990.2206	1003.8811	1027.5652	1036.7243	1063.0007	1085.4915	1144.7767	1169.3915	1215.649	1252.3746	1260.3925	1275.8318	1320.1065	1344.3827	1368.7075	1389.3581	1410.3333	1426.4913	1436.2814	1465.4664	1475.7325	1484.6121	1515.0409	1737.8683	2917.8458	2962.7939	2975.9635	3035.7158	3063.0001	3085.3742	3100.216	3125.309	3149.6555	3181.9916	3497.3465
C1NC11COCC=CC1	C1N[C@]21COCC=CC2	
InChI=1S/C7H11NO/c1-2-4-9-6-7(3-1)5-8-7/h1-2,8H,3-6H2	InChI=1S/C7H11NO/c1-2-4-9-6-7(3-1)5-8-7/h1-2,8H,3-6H2/t7-/m1/s1
