18
gdb 5319	4.31996	1.45344	1.18396	0.8601	73.02	-0.2185	0.0244	0.2429	1042.5946	0.154232	-347.839941	-347.832055	-347.831111	-347.872444	29.645	
C	 0.0915266668	 1.3549380218	-0.3761985251	-0.377302
C	 0.0377374334	-0.1011717827	 0.1251426215	-0.083842
C	 0.6802070465	-0.2244209162	 1.512860902	-0.394094
C	-1.3718360959	-0.6329583261	 0.0947492548	 0.25924
C	-2.1518608224	-1.0226515546	 1.1405075166	-0.108314
O	-3.3775898908	-1.436664359	 0.7136030517	-0.149252
C	-3.3820191822	-1.3099828273	-0.6381132585	 0.005157
C	-2.1925346913	-0.8261774687	-1.0743257593	-0.290729
H	 1.1254538947	 1.7139493753	-0.4150742512	 0.108732
H	-0.3376397373	 1.4500162786	-1.377965145	 0.114745
H	-0.4737476182	 2.0135829355	 0.2919459852	 0.118047
H	 0.6327872919	-0.7075634262	-0.5728895384	 0.083082
H	 0.144888067	 0.3854666581	 2.249596305	 0.116413
H	 0.6773683445	-1.2606243234	 1.8645436805	 0.116972
H	 1.7175519128	 0.1231009247	 1.4891018624	 0.110801
H	-1.9930570506	-1.0714137961	 2.204433086	 0.131364
H	-4.2928745343	-1.6041937245	-1.1331615599	 0.133136
H	-1.9178157347	-0.6315096692	-2.0999033383	 0.105844
49.4296	161.2757	202.0739	242.648	275.979	324.5692	418.23	456.0413	611.5802	620.8994	682.0541	737.0821	787.8821	833.2198	877.9724	893.8557	927.4662	966.3315	977.0927	1056.5117	1093.5738	1111.2294	1121.1641	1176.0501	1205.1634	1250.6153	1275.8066	1338.1749	1356.3643	1395.2468	1408.5806	1418.3354	1487.1818	1492.267	1501.9315	1512.2391	1539.3925	1631.0879	2996.5291	3028.8902	3032.9634	3095.8544	3102.2779	3107.4359	3108.8116	3246.804	3279.4363	3284.5087
CC(C)C1=COC=C1	CC(C)c1cocc1	
InChI=1S/C7H10O/c1-6(2)7-3-4-8-5-7/h3-6H,1-2H3	InChI=1S/C7H10O/c1-6(2)7-3-4-8-5-7/h3-6H,1-2H3
