15
gdb 27422	2.60362	1.74484	1.21429	3.8604	75.59	-0.251	-0.0954	0.1557	1018.8674	0.113528	-412.996301	-412.988598	-412.987654	-413.028534	28.541	
C	-0.3489167002	 1.4190816901	 0.1684740377	-0.47792
C	-0.0288994982	-0.0260294369	-0.1035284413	 0.282135
N	-0.3742935334	-0.5632231306	-1.2128208082	-0.227951
C	-0.0191795012	-1.9066276789	-1.4638255832	 0.329137
N	 0.7284844609	-2.1982927429	-2.4413528331	-0.480063
N	-0.674310044	-2.8383878245	-0.6253485138	-0.227149
C	-0.4100912428	-2.7985563413	 0.6247860309	 0.063412
N	 0.4992444917	-1.9872768962	 1.303314219	-0.202897
C	 0.6873312077	-0.7633480119	 0.967312305	-0.011659
H	 0.572349294	 1.9854834312	 0.3494226974	 0.14628
H	-0.8726805072	 1.8472898506	-0.6860024158	 0.161104
H	-0.9685420641	 1.5226035477	 1.0665592599	 0.14533
H	 0.8285144303	-3.2128914245	-2.50328126	 0.2288
H	-0.8921920577	-3.528456283	 1.2747006474	 0.138898
H	 1.3944102244	-0.190111929	 1.5731535579	 0.132542
121.0066	132.7689	168.7823	253.4265	296.2355	370.651	419.261	459.8084	523.6161	643.2334	664.0734	693.2366	836.8367	863.9732	889.4604	905.9904	941.499	988.8078	1005.0037	1061.1819	1070.6563	1090.7233	1223.2916	1317.1097	1400.5555	1412.4928	1415.2146	1469.0314	1477.2485	1614.304	1667.3756	1704.1194	1739.7099	3034.0494	3088.2478	3092.9937	3142.3191	3158.5893	3476.3365
CC1=NC(=N)N=CN=C1	CC1=N[C]([NH])N=CN=C1	
InChI=1S/C5H6N4/c1-4-2-7-3-8-5(6)9-4/h2-3,6H,1H3	InChI=1S/C5H6N4/c1-4-2-7-3-8-5(6)9-4/h2-3,6H,1H3
