17
gdb 91452	2.528	1.71947	1.33948	1.8338	68.19	-0.2302	-0.0255	0.2047	992.5826	0.134704	-458.948531	-458.940287	-458.939343	-458.98099	31.494	
C	-0.0540316081	 1.5396526507	 0.0115169193	-0.418729
C	 0.0763830151	 0.0304867818	 0.0888167304	 0.121542
O	 0.9181248543	-0.491421001	-0.9803850669	-0.293129
C	 1.8975642159	-1.2747698279	-0.2827401282	-0.029648
C	 2.3261494806	-0.348384341	 0.8862005271	-0.321753
C	 0.8122996806	-0.5489541941	 1.3186150107	 0.237445
O	 0.2648740173	-0.2403999338	 2.542919045	-0.479493
C	 1.0587316959	-1.9834276544	 0.8077976481	 0.372862
O	 0.8763438289	-3.0790079336	 1.2486429685	-0.324495
H	 0.9091574792	 2.0416233013	 0.1324811114	 0.121284
H	-0.4663371378	 1.8240532557	-0.9611283829	 0.131723
H	-0.7335163561	 1.89257655	 0.7932598417	 0.134777
H	-0.9199954643	-0.42508294	 0.0110267926	 0.092701
H	 2.5813743549	-1.7636147304	-0.9693893698	 0.108224
H	 3.0350276	-0.8049194083	 1.5801136385	 0.120756
H	 2.629099823	 0.6588412236	 0.6010964855	 0.126228
H	 0.4196009808	-0.9831846386	 3.1390008391	 0.299706
128.4602	164.3036	195.6727	199.2679	258.9381	296.7892	375.4964	452.4156	468.3041	516.6336	597.0699	672.1023	720.5804	810.9695	821.1183	852.9735	870.5384	920.5705	959.9275	1016.6923	1051.7906	1061.7863	1093.7303	1125.2595	1151.0396	1172.1042	1196.8084	1260.5701	1298.8239	1329.4866	1384.6073	1408.2435	1422.6091	1474.9036	1489.5944	1494.6427	1899.5299	3013.1191	3045.818	3082.2355	3118.6331	3126.9144	3157.8229	3182.103	3787.0228
CC1OC2CC1(O)C2=O	C[C@H]1O[C@H]2C[C@]1(O)C2=O	
InChI=1S/C6H8O3/c1-3-6(8)2-4(9-3)5(6)7/h3-4,8H,2H2,1H3	InChI=1S/C6H8O3/c1-3-6(8)2-4(9-3)5(6)7/h3-4,8H,2H2,1H3/t3-,4+,6-/m1/s1
