21
gdb 77007	2.71452	0.98495	0.90366	1.7438	84.82	-0.243	0.0551	0.298	1409.5941	0.178611	-387.044717	-387.03403	-387.033086	-387.080277	39.609	
C	-0.3896632391	 1.0927410799	-1.7689648992	-0.417283
C	-0.1126582992	-0.1172176719	-0.9016122295	-0.072883
C	 1.2837455727	-0.5075977246	-0.4330660264	-0.050861
C	 2.5322214642	 0.2931451008	-0.7802973471	-0.392648
C	 3.074825881	-0.0580049101	-2.0904909523	 0.313171
C	 3.5088721408	-0.3637324873	-3.1688832561	-0.44966
C	 0.2599687009	-0.0455232839	 0.5676507957	 0.35176
C	 0.3719119443	 1.2641762146	 1.3167016678	-0.449903
O	-0.2070350855	-1.0993801629	 1.3805943594	-0.464683
H	 0.234115397	 1.9522631993	-1.5108131191	 0.113768
H	-0.203228272	 0.8627275566	-2.8232703294	 0.130766
H	-1.4342503292	 1.4105036456	-1.6765258891	 0.114504
H	-0.7380708409	-0.9750747304	-1.1362324547	 0.086407
H	 1.4613690301	-1.5781445846	-0.4025300136	 0.105696
H	 2.3294119705	 1.3692674596	-0.7558061148	 0.125122
H	 3.2987143329	 0.1176965196	-0.0137279018	 0.134683
H	 3.8975045029	-0.6274023723	-4.120933854	 0.193236
H	 0.7773999739	 2.0730598562	 0.7052823036	 0.117003
H	-0.615705237	 1.5874974597	 1.6688081576	 0.107403
H	 1.0145901182	 1.140655668	 2.1941576225	 0.128098
H	-1.1268984164	-0.913030072	 1.6011947804	 0.276303
45.6111	102.1955	156.0651	178.0994	204.4361	213.685	252.0283	270.8118	320.6767	337.9607	393.1931	437.4182	458.6305	485.3451	584.5496	615.1596	634.6923	696.2379	789.8943	843.8942	923.1035	951.7604	969.1041	998.6286	1023.4663	1045.1287	1091.1928	1131.7843	1146.8872	1156.5006	1215.6049	1252.0244	1291.7771	1312.6376	1343.2301	1377.0411	1414.2061	1424.6722	1455.1228	1469.4761	1485.6693	1494.1499	1498.3643	1517.8279	2237.931	3021.2251	3026.9559	3034.7635	3061.5172	3088.4826	3091.494	3109.7826	3125.8301	3138.1802	3160.9601	3507.8753	3786.357
CC1C(CC#C)C1(C)O	C[C@H]1[C@@H](CC#C)[C@]1(C)O	
InChI=1S/C8H12O/c1-4-5-7-6(2)8(7,3)9/h1,6-7,9H,5H2,2-3H3	InChI=1S/C8H12O/c1-4-5-7-6(2)8(7,3)9/h1,6-7,9H,5H2,2-3H3/t6-,7+,8+/m0/s1
