16
gdb 125508	6.15871	0.92024	0.80863	2.6097	76.93	-0.252	0.0124	0.2645	1375.7952	0.124183	-396.923844	-396.915083	-396.914139	-396.959189	30.719	
C	 0.7453872194	 1.3368279504	 0.5848092203	-0.480176
C	 0.1525521772	 0.0569310199	 0.0999094939	 0.348737
N	 0.5584682729	-0.5395285207	-1.0139446909	-0.30008
N	-0.2322789143	-1.6413540968	-1.0667631948	 0.030287
C	-0.077553091	-2.57041211	-2.1789619849	-0.267101
C	-0.9931529353	-3.699724513	-2.1001462924	 0.272871
C	-1.7374727811	-4.6406073848	-2.0583720941	-0.415342
C	-1.0611655476	-1.6575050048	-0.003964028	 0.017915
N	-0.8489195221	-0.6010602917	 0.7570059527	-0.323767
H	 1.1762735334	 1.2089885352	 1.5827187528	 0.139916
H	 1.5261116627	 1.6743338911	-0.0987747916	 0.137554
H	-0.0220578115	 2.1134495554	 0.6605480262	 0.139917
H	-0.2353554033	-2.0174645852	-3.1121957218	 0.166116
H	 0.9604308105	-2.92267029	-2.1900079015	 0.166074
H	-2.3951644151	-5.4743800945	-2.0238992959	 0.213772
H	-1.7814227248	-2.4425459106	 0.1624291601	 0.153308
12.661	89.3561	123.9038	151.9477	259.3611	294.9684	324.42	387.7083	471.2963	629.4575	643.384	689.4594	698.6189	718.6491	769.9303	869.2058	973.3922	991.4577	999.2624	1048.5145	1053.244	1069.2376	1215.3157	1248.8353	1252.008	1340.4106	1372.7014	1404.0391	1457.0838	1477.2902	1479.9381	1485.5482	1514.4863	1564.769	2251.0789	3036.9179	3047.3175	3066.8412	3103.5905	3144.5139	3276.7847	3501.2766
CC1=NN(CC#C)C=N1	Cc1nn(CC#C)cn1	
InChI=1S/C6H7N3/c1-3-4-9-5-7-6(2)8-9/h1,5H,4H2,2H3	InChI=1S/C6H7N3/c1-3-4-9-5-7-6(2)8-9/h1,5H,4H2,2H3
