21
gdb 103627	2.2781	1.22176	1.15419	2.9123	74.07	-0.247	0.0548	0.3018	1224.2447	0.180529	-461.344137	-461.334038	-461.333094	-461.378577	38.214	
C	 0.7138785777	 1.5045791312	-0.0249929228	-0.428097
C	 0.016795838	 0.1462085669	-0.0071520537	-0.021219
C	 0.5875068744	-0.9226497432	-0.9868348594	-0.306696
C	 1.2335898461	-1.6876632273	 0.215490529	 0.397718
O	 0.9092103551	-3.0548228113	 0.332874932	-0.491135
C	 2.7431596805	-1.5255756198	 0.3488912845	-0.154763
O	 3.3272407916	-2.35696356	-0.6530275742	-0.43654
C	 0.3963356153	-0.8003544166	 1.1787597167	 0.073203
O	 0.9816303756	-0.275748603	 2.3480617944	-0.428931
H	 1.8073297074	 1.419734026	-0.0001139908	 0.109927
H	 0.4634745795	 2.0509162437	-0.9398971791	 0.124168
H	 0.403497627	 2.1213741144	 0.8257307068	 0.124359
H	-1.0609495311	 0.3068345615	-0.0961011083	 0.076115
H	-0.185099216	-1.5316417762	-1.4591257826	 0.107402
H	 1.2753202764	-0.559316572	-1.7549244262	 0.100728
H	 1.5761678983	-3.5290250219	-0.1814014079	 0.281348
H	 3.0512938439	-0.4785791634	 0.2125493447	 0.080345
H	 3.0407002179	-1.8451747264	 1.3563159239	 0.110717
H	 4.2520690497	-2.4981991604	-0.4334421311	 0.294861
H	-0.4649717585	-1.3866529296	 1.5094243726	 0.103079
H	 1.6028961213	 0.4144105474	 2.0955905413	 0.283411
84.1794	114.1953	164.4585	230.4327	239.7545	245.9006	269.4646	299.3201	305.7586	349.8472	375.6223	443.7442	477.8064	558.0008	576.0132	702.7776	770.7683	806.5507	849.5265	901.0046	940.033	975.7828	1039.4838	1043.3159	1064.3733	1083.4072	1120.2986	1165.6688	1182.0316	1190.7491	1226.0334	1241.7014	1257.3036	1278.0371	1285.2026	1331.3144	1365.4071	1398.4132	1408.4883	1435.1135	1447.1543	1482.4743	1499.4941	1504.4731	1511.1586	2990.662	3022.0667	3041.5143	3057.6965	3065.8943	3082.7891	3089.1286	3099.7413	3127.3383	3760.8309	3821.654	3841.7047
CC1CC(O)(CO)C1O	C[C@H]1C[C@@](O)(CO)[C@H]1O	
InChI=1S/C6H12O3/c1-4-2-6(9,3-7)5(4)8/h4-5,7-9H,2-3H2,1H3	InChI=1S/C6H12O3/c1-4-2-6(9,3-7)5(4)8/h4-5,7-9H,2-3H2,1H3/t4-,5-,6+/m0/s1
