20
gdb 112158	3.24406	1.06841	0.85153	3.8924	83.46	-0.2393	-0.0176	0.2217	1405.7847	0.170691	-403.216011	-403.206467	-403.205523	-403.250635	34.877	
C	-0.0197887438	 1.6015936866	 0.0946533628	-0.390655
C	-0.0380681414	 0.0713783481	 0.0563544485	-0.168645
C	 0.6417732793	-0.517871215	-1.1932555572	-0.01162
N	 2.0637036261	-0.238175875	-1.2700683521	-0.336249
C	 2.8341545052	-1.3715729529	-1.4075022078	 0.355446
O	 4.0374560189	-1.4191279576	-1.5639867658	-0.385105
C	 1.8724830045	-2.5209549671	-1.3254798639	 0.203125
C	 2.3600808846	-3.9285538983	-1.38038302	-0.486325
C	 0.6353579789	-2.0278650104	-1.2212943445	-0.205907
H	 1.0044818385	 1.9873234524	 0.1291364698	 0.119113
H	-0.5122763195	 2.0287502366	-0.7863270423	 0.11644
H	-0.5397081392	 1.9773504918	 0.9806386791	 0.121829
H	 0.458602679	-0.3363803353	 0.9439009471	 0.109601
H	-1.0752654645	-0.2857833699	 0.0766813412	 0.099866
H	 0.123509717	-0.1242337325	-2.083972961	 0.092677
H	 2.4499660505	 0.675351213	-1.4373026754	 0.250877
H	 3.034871944	-4.1358184746	-0.5424145585	 0.143687
H	 1.5358887478	-4.6454383839	-1.3528111477	 0.118747
H	 2.9453306719	-4.0945951124	-2.2911726799	 0.145685
H	-0.2862415475	-2.5920185334	-1.1408504422	 0.107412
83.4418	97.2779	112.4293	131.427	232.0184	248.6838	268.2098	344.0888	392.7863	430.273	487.7214	544.8868	614.25	711.5533	771.4607	783.7258	822.251	867.9059	897.6231	971.1849	1004.8975	1037.2478	1065.8206	1066.769	1120.8992	1137.7728	1164.5983	1229.8043	1276.7266	1284.1399	1334.4472	1367.5589	1381.4972	1407.7712	1414.2922	1418.9026	1471.7283	1478.8191	1484.0952	1499.7927	1508.4621	1711.9989	1814.8669	2961.8996	3029.4428	3032.4951	3037.1601	3071.1933	3090.8708	3101.7091	3108.4115	3123.2476	3203.7029	3668.3984
CCC1NC(=O)C(C)=C1	CC[C@H]1NC(=O)C(=C1)C	
InChI=1S/C7H11NO/c1-3-6-4-5(2)7(9)8-6/h4,6H,3H2,1-2H3,(H,8,9)	InChI=1S/C7H11NO/c1-3-6-4-5(2)7(9)8-6/h4,6H,3H2,1-2H3,(H,8,9)/t6-/m1/s1
