19
gdb 92753	3.44409	1.04963	0.89344	4.1608	81.46	-0.1968	-0.0034	0.1935	1333.2391	0.160636	-419.26031	-419.251314	-419.250369	-419.294118	34.052	
C	 0.1649278046	 1.5194760643	 0.0635065743	-0.39472
C	-0.0655763799	 0.0075760716	-0.0043510182	 0.042565
C	 0.6411640907	-0.6539343623	-1.2267157195	-0.365597
C	 1.8962078013	-1.2500820346	-0.6103151048	 0.18135
C	 1.7602408146	-1.2171043036	 0.7305494597	-0.06659
N	 0.55712515	-0.6904395251	 1.1448631122	-0.298495
C	 3.0617274394	-1.8295067031	-1.2821321239	 0.285661
N	 3.0154833322	-1.8145594992	-2.6646818285	-0.546664
O	 4.0385187138	-2.2619013909	-0.6859967481	-0.385871
H	 1.2359422717	 1.7458345966	 0.0420304735	 0.134127
H	-0.3099121527	 2.0186718357	-0.787393612	 0.121411
H	-0.2606983083	 1.9442416255	 0.9794722946	 0.111727
H	-1.1407622361	-0.1960464945	-0.0119242429	 0.086013
H	-0.0008305582	-1.4275662442	-1.6713768481	 0.105414
H	 0.8441979118	 0.0846689381	-2.010923614	 0.108568
H	 2.4751191934	-1.5921682826	 1.4508209229	 0.143157
H	 0.5236231221	-0.2255025845	 2.0412657322	 0.238719
H	 2.1281885264	-1.7555789581	-3.1366736737	 0.248051
H	 3.7295541732	-2.3611175893	-3.1207581855	 0.251176
74.1678	88.3255	175.313	206.5734	260.3221	336.4864	362.0573	369.3197	419.9922	497.7206	508.1204	540.9548	565.0737	652.2949	762.669	780.7491	826.8243	870.0861	927.9839	949.6875	960.5068	1049.9326	1082.7863	1087.901	1104.5917	1146.4565	1164.1154	1224.4779	1274.3511	1292.7695	1336.9924	1373.4982	1397.0115	1403.7394	1447.4714	1491.5386	1494.7921	1503.896	1616.6272	1665.0062	1757.3019	2996.0804	3028.9421	3047.9052	3054.4534	3098.2779	3111.6921	3236.1355	3584.0724	3591.8882	3710.9971
CC1CC(=CN1)C(N)=O	C[C@H]1CC(=CN1)C(=O)N	
InChI=1S/C6H10N2O/c1-4-2-5(3-8-4)6(7)9/h3-4,8H,2H2,1H3,(H2,7,9)	InChI=1S/C6H10N2O/c1-4-2-5(3-8-4)6(7)9/h3-4,8H,2H2,1H3,(H2,7,9)/t4-/m0/s1
