23
gdb 114061	2.76937	1.12173	0.94839	1.0667	86.46	-0.2343	0.0791	0.3134	1381.9796	0.203969	-388.272314	-388.262208	-388.261264	-388.306877	38.334	
C	 0.0194235129	 1.5885143047	-0.0364614851	-0.377628
C	 0.0141675088	 0.0719011872	 0.1832763182	-0.203139
C	-1.3647351874	-0.5558393234	 0.0006235482	-0.014413
C	-2.0113298589	-0.6373685779	-1.4301821527	-0.308755
C	-2.238591153	-2.1459043505	-1.2364362633	 0.304396
C	-3.4655655449	-2.9009960936	-1.6561132468	-0.496885
C	-0.887446477	-2.8044675592	-1.0406260542	-0.401547
C	-1.5304321556	-2.0767952047	 0.1113277073	 0.333966
O	-1.8910059693	-2.7284216882	 1.2817357217	-0.466799
H	 1.020202352	 2.0094048359	 0.1026611286	 0.109658
H	-0.3105433339	 1.8435490904	-1.0494322715	 0.117949
H	-0.6546056838	 2.0917311795	 0.6658110303	 0.113564
H	 0.7292818262	-0.3989600483	-0.5033521874	 0.091263
H	 0.3732261015	-0.1506137222	 1.1974632256	 0.08988
H	-2.0752772619	-0.0806457036	 0.6867830225	 0.074919
H	-2.9371365831	-0.0627534399	-1.5147695876	 0.099269
H	-1.3545325773	-0.3668751164	-2.2648338901	 0.089437
H	-3.4892348704	-3.0607863599	-2.7409241309	 0.115736
H	-3.5043655667	-3.8825058819	-1.1729624575	 0.123518
H	-4.377456803	-2.3585757999	-1.3809644766	 0.115744
H	-0.9291023081	-3.8858723374	-0.9463269548	 0.106644
H	 0.0025672984	-2.430468202	-1.5429787368	 0.09918
H	-1.0937270353	-3.0725513088	 1.6981316929	 0.284041
88.6933	122.7338	153.3096	169.9296	188.5566	238.0427	253.1831	300.9958	323.3935	354.798	437.993	469.993	560.1153	571.7465	695.6132	759.4793	774.1744	814.6575	850.7699	927.7677	953.1461	955.2733	975.7519	986.9441	1048.6312	1055.591	1072.391	1117.6326	1137.2539	1168.4288	1192.3316	1213.6128	1232.3667	1245.8132	1289.9957	1305.0432	1338.1098	1341.6724	1386.7981	1410.6359	1412.6023	1427.6735	1478.4918	1484.4209	1486.7207	1497.8395	1499.7053	1506.9711	1518.725	3011.4242	3020.1921	3029.2795	3033.3408	3036.4198	3050.8591	3077.1342	3095.1145	3096.2296	3097.7196	3099.3344	3100.6049	3190.0408	3797.7857
CCC1CC2(C)CC12O	CC[C@H]1C[C@@]2(C)C[C@@]12O	
InChI=1S/C8H14O/c1-3-6-4-7(2)5-8(6,7)9/h6,9H,3-5H2,1-2H3	InChI=1S/C8H14O/c1-3-6-4-7(2)5-8(6,7)9/h6,9H,3-5H2,1-2H3/t6-,7-,8+/m0/s1
