16
gdb 8799	5.0603	1.09117	0.91261	1.3443	62.26	-0.2399	-0.0822	0.1577	1238.1701	0.126384	-420.898998	-420.889445	-420.888501	-420.934429	32.003	
C	 0.0269679003	 1.5393565049	 0.0095455586	-0.384959
C	-0.0511829879	 0.0156302082	 0.0026660375	-0.275239
C	-1.4671677078	-0.5108267729	 0.0135059056	 0.278064
O	-2.4560076314	 0.1879739084	 0.0265509328	-0.28836
C	-1.6262535923	-2.0499339307	 0.0067968932	 0.288533
O	-0.6607293606	-2.7708826898	-0.0064969307	-0.262568
C	-3.06115571	-2.5439824727	 0.0174120155	-0.170754
O	-3.0652219875	-3.9465783277	 0.0096557175	-0.399144
H	 1.0688463021	 1.8698612204	 0.0013651787	 0.116865
H	-0.476232707	 1.962481113	-0.8639536753	 0.131247
H	-0.4596281855	 1.9536776894	 0.8965655901	 0.131254
H	 0.4550735532	-0.4196224373	-0.8689257366	 0.142206
H	 0.4714472326	-0.4282255273	 0.8601493609	 0.142191
H	-3.5539013338	-2.1092573753	 0.9027988412	 0.127262
H	-3.5702514804	-2.0995038176	-0.8537745793	 0.12728
H	-3.9808004141	-4.2399616629	 0.0168316604	 0.296122
45.26	52.3051	98.6766	147.6503	192.6367	236.2933	264.0508	313.6376	337.5177	357.432	507.3965	581.4416	691.265	781.4481	785.4847	891.7602	967.5232	1003.4851	1088.1667	1095.4592	1137.6161	1198.4903	1231.1466	1248.3459	1261.2487	1375.8996	1416.6469	1434.1117	1443.6913	1476.2853	1494.7572	1498.4312	1796.9278	1822.4782	2974.1989	2994.3931	3035.6675	3051.6189	3057.3935	3123.7519	3124.9775	3839.0477
CCC(=O)C(=O)CO	CCC(=O)C(=O)CO	
InChI=1S/C5H8O3/c1-2-4(7)5(8)3-6/h6H,2-3H2,1H3	InChI=1S/C5H8O3/c1-2-4(7)5(8)3-6/h6H,2-3H2,1H3
