21
gdb 106391	3.27035	1.3789	1.21003	1.3398	81.66	-0.2478	0.0777	0.3255	1104.746	0.184628	-387.046024	-387.038287	-387.037343	-387.077962	31.914	
O	-0.0134069299	 1.4237664847	-0.0427800419	-0.424915
C	-0.0086314063	 0.0019736234	-0.0122283243	-0.208512
C	-1.4346025501	-0.4838492588	-0.0334208126	 0.369207
C	-2.5143334905	 0.0146579702	 0.9977164733	-0.244726
C	-3.4877644818	-0.544793478	-0.0971777318	-0.050506
C	-2.4464137548	-0.014518958	-1.116643131	-0.274561
C	-3.1822217596	-2.0531140005	 0.0135758805	-0.028188
C	-2.3696920482	-2.7505711086	-1.0501472285	-0.319042
C	-1.6642925229	-2.0091330735	 0.0604911425	-0.091606
H	 0.8988618441	 1.7270982742	-0.0421033334	 0.28719
H	 0.5325569713	-0.4132686156	-0.8785906954	 0.087205
H	 0.494298158	-0.3724133059	 0.8954734519	 0.081952
H	-2.5298494044	-0.4677735312	 1.979813179	 0.079809
H	-2.5374078072	 1.1021178792	 1.0978365413	 0.104137
H	-4.5349987374	-0.2458283082	-0.1454786245	 0.057126
H	-2.4605763257	 1.0737819728	-1.1811990669	 0.111216
H	-2.3998625066	-0.436286625	-2.1217852093	 0.086354
H	-3.7593848593	-2.6458256069	 0.7145125135	 0.082775
H	-2.3392138734	-3.8335709943	-0.9723399141	 0.104984
H	-2.3486425363	-2.3989079113	-2.0745803464	 0.111545
H	-1.0933081491	-2.566186219	 0.7961465881	 0.078555
100.5453	174.9574	229.8715	275.2189	349.0732	393.6087	430.7845	538.5813	554.4453	636.3147	661.0966	776.3402	795.5073	815.428	833.0453	860.1283	919.0965	925.1014	967.092	982.5186	984.8693	1019.4419	1045.1312	1070.7454	1073.2857	1080.5179	1090.1725	1108.944	1129.1219	1158.4677	1180.1122	1194.8271	1214.666	1224.1922	1248.5721	1279.0002	1289.0336	1294.2332	1332.3733	1378.5277	1463.2238	1477.6126	1500.2013	1510.9	1539.4017	2953.1864	2980.7912	3050.4743	3079.0109	3110.2398	3121.4027	3131.034	3137.2582	3157.0799	3171.5339	3210.4637	3833.719
OCC12CC(C1)C1CC21	OC[C@@]12C[C@@H](C1)[C@H]1C[C@@H]21	
InChI=1S/C8H12O/c9-4-8-2-5(3-8)6-1-7(6)8/h5-7,9H,1-4H2	InChI=1S/C8H12O/c9-4-8-2-5(3-8)6-1-7(6)8/h5-7,9H,1-4H2/t5-,6-,7-,8+/m1/s1
