19
gdb 58922	2.82982	1.56507	1.22004	0.5738	74.28	-0.2415	0.0516	0.293	1072.9615	0.156638	-422.916919	-422.908506	-422.907561	-422.950048	32.306	
C	-0.0181765141	 1.5583951632	 0.0850807669	-0.392775
C	 0.0312195019	 0.0234333964	 0.0436139911	-0.142941
C	 0.643983261	-0.5006560556	-1.2635317783	-0.391505
C	 0.7753878184	-0.5098844099	 1.2314162348	 0.482305
O	 0.3180741393	-0.1704686579	 2.5819682495	-0.362215
C	 1.4754861624	-1.0046763989	 2.8472149374	 0.031235
C	 1.2313222939	-1.9573307814	 1.6394455747	-0.024307
O	 2.5754143034	-1.8115338342	 1.1001727474	-0.32594
C	 2.2981045705	-0.4846987661	 1.6309733136	-0.008733
H	 0.9856721651	 1.9831071242	-0.0283163913	 0.114518
H	-0.6388749814	 1.9439355686	-0.7294120286	 0.113182
H	-0.4302125128	 1.9116594447	 1.0335474109	 0.138119
H	-0.9969680487	-0.3558263332	 0.1266114555	 0.091626
H	 1.6765493008	-0.1564589858	-1.38024201	 0.126836
H	 0.6534211248	-1.5935484266	-1.297802393	 0.12561
H	 0.0687981306	-0.1369684602	-2.1202742855	 0.113969
H	 1.7610769141	-1.2057552005	 3.8788437499	 0.104589
H	 0.7294838787	-2.9221366546	 1.5675838984	 0.102547
H	 3.0600193924	 0.2902982477	 1.5517344366	 0.10388
58.1268	152.8885	179.4096	207.6981	240.257	310.227	364.7987	447.9891	519.8566	554.0958	645.9172	768.0603	776.0662	816.5676	831.3835	867.8368	877.6627	899.5859	928.4469	934.5626	971.4026	1007.3824	1027.9028	1090.8178	1117.3649	1135.0199	1146.4661	1165.7082	1174.1448	1187.5368	1246.734	1275.4898	1339.1856	1349.7301	1396.1728	1400.8097	1426.9161	1484.3446	1489.501	1501.9125	1511.2183	3011.1731	3034.9802	3041.3984	3100.7464	3110.5821	3115.9562	3122.2091	3124.4362	3124.7613	3142.5174
CC(C)C12OC3C1OC23	CC(C)[C@@]12O[C@H]3[C@@H]1O[C@@H]23	
InChI=1S/C7H10O2/c1-3(2)7-5-4(9-7)6(7)8-5/h3-6H,1-2H3	InChI=1S/C7H10O2/c1-3(2)7-5-4(9-7)6(7)8-5/h3-6H,1-2H3/t4-,5-,6+,7+
