23
gdb 72482	2.4306	1.75811	1.4506	1.265	83.91	-0.2367	0.0757	0.3124	1049.8699	0.209042	-388.323651	-388.315836	-388.314892	-388.355145	33.045	
C	-0.1178910802	 1.485187227	 0.0070441621	-0.449294
C	 0.0366518748	-0.0268121487	-0.0117408487	 0.410064
C	 0.8636567019	-0.571614991	-1.2079111709	-0.253336
C	 1.4811716628	-1.9115961584	-0.7107179372	-0.224984
C	 0.9381487449	-2.0875692598	 0.7327660425	-0.007341
C	 0.7800543721	-0.628653547	 1.1959127066	-0.232244
C	-0.4609211378	-2.7314725032	 0.7414253806	-0.218693
C	-1.4084321761	-1.95163241	-0.180223005	-0.069838
O	-1.3058209682	-0.5445814026	-0.0225253105	-0.302619
H	 0.858078386	 1.9731068246	 0.0870842624	 0.107276
H	-0.6082310311	 1.8330522314	-0.907273773	 0.118111
H	-0.7334549652	 1.7929128404	 0.8572753534	 0.120324
H	 0.2303644298	-0.6872951933	-2.0916462123	 0.106504
H	 1.6451831912	 0.1480418164	-1.4681813335	 0.095179
H	 1.2234560977	-2.7588673598	-1.353899876	 0.094155
H	 2.573509852	-1.8484843935	-0.6927160982	 0.095682
H	 1.622108204	-2.667294231	 1.3590076892	 0.057695
H	 1.755380041	-0.1443973758	 1.32553843	 0.084467
H	 0.2093778807	-0.5176933359	 2.1224040229	 0.092565
H	-0.4184057694	-3.7757671392	 0.4093134673	 0.090182
H	-0.8500735339	-2.7311377696	 1.7665545799	 0.096871
H	-1.2134655306	-2.2319098454	-1.2277278771	 0.086665
H	-2.4541314763	-2.1997313556	 0.0259274055	 0.102611
185.3214	222.6885	262.8808	287.0134	309.3462	374.2458	416.6669	427.5403	467.1099	540.6853	612.5648	752.2967	770.0309	788.0862	814.3805	854.2099	879.8918	901.1527	921.5127	950.7258	972.964	990.4084	1015.5276	1041.5069	1059.5489	1101.2231	1133.4091	1159.295	1169.1237	1198.7028	1226.1688	1243.7111	1265.9919	1280.7655	1284.1783	1297.201	1336.095	1347.3687	1360.3092	1376.9193	1409.1864	1415.7124	1474.4501	1481.7839	1483.5495	1488.8895	1498.1551	1500.7288	1521.1526	2974.9009	3025.4623	3031.1862	3039.5051	3042.9165	3058.1291	3064.5302	3067.8007	3076.7697	3079.7291	3092.4109	3104.1343	3112.0612	3116.9235
CC12CCC(C1)CCO2	C[C@@]12CC[C@@H](C1)CCO2	
InChI=1S/C8H14O/c1-8-4-2-7(6-8)3-5-9-8/h7H,2-6H2,1H3	InChI=1S/C8H14O/c1-8-4-2-7(6-8)3-5-9-8/h7H,2-6H2,1H3/t7-,8-/m1/s1
