20
gdb 18086	4.56556	1.09712	1.06425	1.4445	74.69	-0.25	0.0804	0.3304	1192.8888	0.177768	-348.966368	-348.958138	-348.957194	-348.999556	30.821	
O	-0.0877196945	 1.3866814768	 0.0306827452	-0.422271
C	-0.1025627171	-0.0182996956	 0.2378910576	-0.063837
C	-1.4354880665	-0.5545280245	-0.2731516804	-0.210502
C	-1.5425178202	-2.0583872399	-0.1268868083	 0.002874
C	-1.9043100748	-2.7942173696	 1.1401241075	-0.063823
C	-2.9924502391	-2.0595364133	 1.9362175498	-0.228891
C	-3.9283857511	-2.1188612599	 0.6855833279	-0.226627
C	-2.8231916165	-2.8492550162	-0.0896243623	-0.083593
H	 0.7475113064	 1.7304121665	 0.360290809	 0.283851
H	 0.7266731412	-0.5085948305	-0.2989641766	 0.079787
H	 0.01056857	-0.2677881255	 1.3051823142	 0.088356
H	-2.2378120191	-0.0397964248	 0.2639199172	 0.108609
H	-1.5413007899	-0.274030772	-1.3284019285	 0.103109
H	-0.7703695334	-2.5911251298	-0.6819815478	 0.07965
H	-1.2637437107	-3.570129477	 1.5436034402	 0.07758
H	-3.3801317175	-2.6567091235	 2.7643603658	 0.101193
H	-2.7330960765	-1.0681704766	 2.3221196329	 0.096744
H	-4.8016377045	-2.7508663913	 0.8611412633	 0.100871
H	-4.2727224622	-1.1669579548	 0.2689977706	 0.097892
H	-2.9919032241	-3.6723274286	-0.7746675873	 0.079031
62.5598	92.882	142.2789	251.7473	265.2272	276.775	379.8938	441.1009	558.9186	712.1006	759.1045	790.4612	795.8005	813.0378	915.0389	940.2395	952.1756	993.1185	1010.1996	1019.7434	1033.976	1068.8516	1076.1755	1090.5551	1125.3389	1154.7873	1198.5991	1224.166	1236.6609	1243.7916	1250.3385	1263.902	1306.0353	1313.6649	1323.4878	1358.1023	1454.4312	1459.8087	1480.1515	1496.2605	1510.8434	1527.7984	2959.2692	2986.9696	3037.2579	3045.8529	3053.5001	3086.6483	3094.5072	3110.7369	3113.1855	3165.2519	3177.4139	3830.3103
OCCC1C2CCC12	OCC[C@H]1[C@H]2CC[C@@H]12	
InChI=1S/C7H12O/c8-4-3-7-5-1-2-6(5)7/h5-8H,1-4H2	InChI=1S/C7H12O/c8-4-3-7-5-1-2-6(5)7/h5-8H,1-4H2/t5-,6+,7-
