17
gdb 127562	3.10844	1.39636	0.9753	6.2015	81.06	-0.2185	-0.0319	0.1866	1176.8665	0.136649	-418.041488	-418.033121	-418.032176	-418.07454	30.955	
C	-0.0330467453	 1.4837924352	-0.0240634825	-0.327023
N	-0.0078548345	 0.0268086181	 0.0395508323	-0.061839
N	-0.0336433411	-0.5823389997	-1.1633769895	-0.205965
C	-0.0140367604	-1.8782517462	-1.1986558371	-0.090555
C	 0.0347864775	-2.7737520081	-0.0328285027	 0.347616
O	 0.0508984608	-3.9959528381	-0.1365547761	-0.396204
C	 0.059378459	-2.0298936036	 1.2098772205	-0.334519
C	 0.0380773011	-0.6673933843	 1.2244522942	 0.423782
C	 0.062875355	 0.1296216116	 2.4989552548	-0.491128
H	 0.8634317722	 1.9171415191	 0.4296819837	 0.141807
H	-0.0679543073	 1.7494500535	-1.0785481167	 0.167572
H	-0.915082201	 1.8886650014	 0.4813659498	 0.14181
H	-0.0361948282	-2.3241655516	-2.1891130033	 0.134787
H	 0.0955585235	-2.5784169471	 2.1436733905	 0.111135
H	 0.098610134	-0.5488448136	 3.3519367217	 0.148915
H	 0.9367855917	 0.7880095679	 2.5492367015	 0.14491
H	-0.8269111669	 0.7601681954	 2.600966449	 0.144898
90.1675	116.8365	174.1699	219.5978	258.7438	323.3332	358.973	462.4916	481.7639	496.1625	566.8098	580.1554	729.5621	742.0812	784.7267	887.814	939.7626	946.5315	1010.151	1044.9187	1062.8267	1145.8451	1173.2931	1242.8671	1268.0818	1283.2716	1357.4229	1411.7409	1438.1459	1459.5321	1474.7885	1485.3327	1498.7921	1510.2499	1591.2915	1644.2452	1739.5896	3037.2859	3043.4846	3092.85	3102.0436	3144.538	3177.9287	3178.6642	3203.0708
CN1N=CC(=O)C=C1C	Cn1ncc(=O)cc1C	
InChI=1S/C6H8N2O/c1-5-3-6(9)4-7-8(5)2/h3-4H,1-2H3	InChI=1S/C6H8N2O/c1-5-3-6(9)4-7-8(5)2/h3-4H,1-2H3
