17
gdb 48034	6.31662	0.58233	0.55005	5.0835	81.06	-0.2572	-0.0571	0.2001	1935.6274	0.134054	-421.782121	-421.772694	-421.77175	-421.819034	31.518	
O	-0.0928936415	-0.0374626459	-0.2315846718	-0.230877
C	-0.0041804099	 1.1669771396	-0.1555587606	 0.019107
C	 1.2362264655	 1.8939095633	-0.0885675048	 0.046203
C	 2.2581332765	 2.5356808682	-0.0367786433	 0.093978
C	 3.4860012181	 3.3118643832	 0.0331065307	-0.377465
C	 3.2440765519	 4.8153744228	 0.196811642	 0.169031
C	 4.4713766515	 5.7445904567	 0.0768736965	-0.302766
C	 3.6774615648	 6.3961441693	-1.0735223347	-0.058832
O	 2.6326817021	 5.4034526702	-0.9688019187	-0.284358
H	-0.9065037857	 1.8116292971	-0.13178254	 0.099505
H	 4.0947959521	 2.9566422412	 0.8761149455	 0.143229
H	 4.0759927483	 3.142217515	-0.8766191126	 0.144789
H	 2.63234984	 4.9908583614	 1.0918507609	 0.088003
H	 4.6842190755	 6.3747791667	 0.9408555549	 0.117404
H	 5.3875614782	 5.237008796	-0.2330954708	 0.113934
H	 3.3014079909	 7.4047513846	-0.8627614042	 0.108116
H	 4.1484860117	 6.3919063606	-2.0626000289	 0.110999
24.2394	51.1926	72.022	97.1543	160.7627	195.161	293.8326	383.0269	402.1769	492.5234	601.0583	736.4006	809.7523	830.4751	866.8074	892.3583	964.4722	1004.6682	1022.5896	1039.4545	1093.1345	1120.6918	1158.4408	1166.51	1210.9471	1232.4058	1257.8755	1286.7127	1315.2484	1369.6698	1392.4288	1422.3867	1441.3517	1490.7263	1533.1612	1767.2647	2332.5816	2917.7074	3011.5951	3017.8575	3023.6763	3059.4981	3065.9566	3078.2707	3136.5905
O=CC#CCC1CCO1	O=CC#CC[C@H]1CCO1	
InChI=1S/C7H8O2/c8-5-2-1-3-7-4-6-9-7/h5,7H,3-4,6H2	InChI=1S/C7H8O2/c8-5-2-1-3-7-4-6-9-7/h5,7H,3-4,6H2/t7-/m0/s1
