14
gdb 35653	4.4236	0.98167	0.8482	4.7541	76.06	-0.2564	-0.0549	0.2015	1284.619	0.101471	-395.707858	-395.699784	-395.69884	-395.740898	29.429	
C	-0.1854695579	-1.2500546956	-0.1384279797	-0.438853
C	-0.043098502	-0.0611679607	-0.0472568177	 0.328419
C	 0.0919129317	 1.3816155596	 0.0899801241	-0.151486
C	-0.5420623817	 1.9453452433	 1.4038132971	-0.199203
N	 0.4081591243	 3.0168696531	 1.7308370064	-0.355124
C	 1.5707843964	 2.7069775395	 1.040592956	 0.28336
N	 1.5101808409	 1.8302248781	 0.1107107663	-0.286248
C	 2.7793375579	 3.4176364853	 1.3643411574	 0.266778
N	 3.7306792129	 3.9998317937	 1.6655461788	-0.311443
H	-0.2983221927	-2.3021670624	-0.2309182874	 0.206331
H	-0.3764568366	 1.8657873024	-0.7787583495	 0.132419
H	-1.5491811874	 2.3355578212	 1.2471888242	 0.133914
H	-0.5719456433	 1.1764677484	 2.1848558588	 0.12928
H	 0.4921391374	 3.3191499639	 2.6912340852	 0.261857
73.2478	132.1038	151.397	197.408	255.4275	411.6305	476.6048	490.4631	528.7851	567.1625	628.4687	633.5565	666.9532	676.3955	734.9315	861.3501	962.4249	1014.5793	1042.7181	1054.9291	1070.4705	1198.7975	1250.7109	1283.9543	1301.9328	1355.0262	1458.0073	1520.8336	1669.3636	2246.9134	2368.263	3003.3124	3036.2279	3112.6115	3502.8579	3600.6938
C#CC1CNC(=N1)C#N	C#C[C@H]1CN[C]([N]1)C#N	
InChI=1S/C6H5N3/c1-2-5-4-8-6(3-7)9-5/h1,5H,4H2,(H,8,9)	InChI=1S/C6H5N3/c1-2-5-4-8-6(3-7)9-5/h1,5H,4H2,(H,8,9)/t5-/m0/s1
