14
gdb 33811	2.33843	1.54979	1.14372	2.6376	75.82	-0.2559	-0.0256	0.2302	1064.2142	0.099544	-399.480696	-399.472785	-399.471841	-399.513242	29.628	
C	-0.001021982	-1.1673961236	 0.0493035383	-0.406806
C	 0.011673792	 0.0345765682	 0.0278711981	 0.265594
C	 0.0231360489	 1.4520592793	 0.0011529961	 0.256352
C	 0.2765994	 2.3121070366	-1.1966375325	-0.366245
C	 1.1904229648	 2.4845650457	 0.0037789122	 0.04142
C	 0.4016614427	 3.1369571141	 1.1389332244	-0.131779
O	-0.6856242094	 2.1881462999	 0.9981646362	-0.305791
C	 2.5970432306	 2.2950283075	-0.0365439151	 0.220192
N	 3.7450941317	 2.1461159449	-0.0594290939	-0.344448
H	-0.0097703073	-2.2296426218	 0.0714210764	 0.210233
H	 0.7383823752	 1.8118773281	-2.0403296029	 0.157602
H	-0.4372883963	 3.0948404627	-1.4371539719	 0.13769
H	 0.8859238966	 3.0264849599	 2.1131553148	 0.140338
H	 0.0778404924	 4.1711360084	 0.9848787297	 0.125647
85.8238	150.2977	177.9226	214.0889	328.0375	405.0273	434.2079	513.2511	543.5918	562.3536	609.1361	629.7945	672.5585	705.801	783.6344	805.9758	930.5149	972.1999	992.743	1041.4205	1085.3568	1117.9953	1152.9303	1196.3473	1277.2151	1336.2747	1387.2614	1472.1212	1516.5267	2239.9676	2345.4606	3047.5192	3107.0201	3125.1697	3230.945	3498.46
C#CC12CC1(CO2)C#N	C#C[C@]12C[C@]1(CO2)C#N	
InChI=1S/C7H5NO/c1-2-7-3-6(7,4-8)5-9-7/h1H,3,5H2	InChI=1S/C7H5NO/c1-2-7-3-6(7,4-8)5-9-7/h1H,3,5H2/t6-,7+/m1/s1
