21
gdb 64199	2.52119	1.40641	1.35856	2.3686	77.76	-0.243	0.0717	0.3148	1110.5681	0.180626	-424.201205	-424.191905	-424.190961	-424.235447	34.86	
C	-0.3475378653	 1.506598483	 0.200771313	-0.432234
C	 0.0086577656	 0.0344633385	 0.0573831076	 0.350903
C	-1.1770209803	-0.8144695266	-0.3807561394	-0.415755
O	 1.1310573413	-0.12401717	-0.8646132923	-0.331601
C	 1.925788592	-0.8054999338	 0.1210927373	-0.127896
C	 0.8580443548	-0.6025907713	 1.2033335471	 0.331461
C	 1.1352802897	 0.0716577347	 2.5609371308	-0.361208
C	 0.5497614135	-1.2180953159	 3.1636974113	-0.074525
O	 0.3400158187	-1.7779965433	 1.8488399266	-0.305896
H	 0.5208865054	 2.0950935301	 0.5099590418	 0.116842
H	-0.6935775812	 1.8975435933	-0.7613230661	 0.126575
H	-1.1489482346	 1.6508642798	 0.9333880671	 0.113592
H	-1.5316877144	-0.4706340648	-1.3574987653	 0.117513
H	-0.898071335	-1.8671095693	-0.4586715927	 0.130452
H	-2.0001648843	-0.7363169265	 0.3363470608	 0.1136
H	 2.0944466077	-1.8618374379	-0.1253886848	 0.107597
H	 2.891930598	-0.3128409786	 0.2913536716	 0.095937
H	 2.1911591591	 0.25129294	 2.7726088262	 0.114295
H	 0.572344437	 0.9850385291	 2.7581146701	 0.117203
H	 1.238656656	-1.8275128006	 3.7594819521	 0.107151
H	-0.3921784334	-1.1048401799	 3.7128863973	 0.105993
54.3886	77.5003	186.8659	207.2442	235.4269	264.3343	289.6454	344.8236	367.7135	458.0696	486.677	526.0642	663.0779	782.6564	849.4505	864.0277	890.3574	907.261	933.4443	969.0078	984.5273	992.3176	1024.7304	1030.7381	1113.5859	1144.5331	1164.7026	1168.5451	1180.8434	1202.5691	1225.2942	1247.4021	1268.9787	1287.633	1352.8428	1357.6484	1397.8823	1412.3636	1471.0006	1476.3334	1485.766	1495.5103	1499.7755	1510.8809	1530.8563	3005.0361	3024.6246	3033.0908	3042.8444	3051.4788	3066.0674	3080.1659	3103.3242	3112.6229	3112.8484	3133.2233	3134.9302
CC1(C)OCC11CCO1	CC1(C)OC[C@]21CCO2	
InChI=1S/C7H12O2/c1-6(2)7(5-9-6)3-4-8-7/h3-5H2,1-2H3	InChI=1S/C7H12O2/c1-6(2)7(5-9-6)3-4-8-7/h3-5H2,1-2H3/t7-/m0/s1
