22
gdb 85906	2.68767	1.37477	1.21206	2.0563	81.09	-0.2277	0.0699	0.2976	1162.4966	0.193941	-404.33837	-404.329312	-404.328368	-404.371281	36.151	
C	 0.0223504022	 1.5962128175	-0.000277891	-0.39498
C	 0.0629436267	 0.0727546749	 0.0065669892	 0.066367
C	 0.6959112389	-0.5749744878	-1.2447576063	-0.318361
C	 1.2750590626	-1.9237908415	-0.7392566029	 0.392984
C	 0.2760108719	-3.0756273437	-0.8930162635	-0.448339
O	 2.5140951301	-2.2618141125	-1.3607448174	-0.477362
C	 1.5397098388	-1.6423166572	 0.737210513	-0.024653
C	 2.2548470145	-0.388368646	 1.0727797905	-0.266595
N	 0.7894824664	-0.4583749038	 1.1887398524	-0.105005
H	 1.028638159	 2.0165894771	-0.1003514427	 0.114927
H	-0.5810265477	 1.9637337169	-0.8364118778	 0.112845
H	-0.4126904155	 1.9725137007	 0.929957952	 0.125919
H	-0.9641430015	-0.2994024733	 0.1147684101	 0.079226
H	-0.0297167665	-0.7062585938	-2.0529450974	 0.092238
H	 1.5169639623	 0.0320466462	-1.6380840329	 0.105975
H	 0.0607230975	-3.2608866117	-1.9525403521	 0.103605
H	 0.6820265405	-3.9942085258	-0.4591060845	 0.124954
H	-0.6728041312	-2.8485556899	-0.396537325	 0.127304
H	 2.3226451651	-2.5649542403	-2.2546326908	 0.274128
H	 1.5742591093	-2.4925805226	 1.4131581075	 0.082582
H	 2.7744377568	-0.3060719283	 2.0225391948	 0.114053
H	 2.7068895697	 0.177520525	 0.2637309648	 0.118189
112.6142	179.2161	232.5412	240.7073	259.9408	278.97	293.4011	343.1354	405.0563	435.0467	500.2272	506.1614	590.3738	624.1987	726.3946	787.8358	860.2036	875.5763	900.0453	930.406	952.1769	971.2263	1010.7159	1016.8491	1073.3855	1098.5519	1102.2836	1132.7493	1147.7742	1152.4648	1195.9629	1207.3653	1227.3498	1268.4668	1288.791	1331.1346	1364.0333	1376.6211	1407.8106	1408.4777	1413.7603	1483.457	1490.7761	1492.1304	1497.0722	1498.7528	1519.1134	3015.1435	3024.1469	3037.2387	3053.2345	3091.8917	3096.4126	3106.1039	3114.0187	3115.1982	3118.2556	3141.283	3200.4193	3805.7388
CC1CC(C)(O)C2CN12	C[C@H]1C[C@@](C)(O)[C@H]2CN12	
InChI=1S/C7H13NO/c1-5-3-7(2,9)6-4-8(5)6/h5-6,9H,3-4H2,1-2H3	InChI=1S/C7H13NO/c1-5-3-7(2,9)6-4-8(5)6/h5-6,9H,3-4H2,1-2H3/t5-,6+,7+,8?/m0/s1
