17
gdb 127637	2.48998	1.83664	1.06586	3.3303	82.77	-0.191	-0.0302	0.1609	1089.8489	0.138504	-414.205697	-414.19759	-414.196646	-414.238021	31.492	
C	-0.4224259973	 1.3208275286	-0.0135732642	-0.30067
N	 0.046721595	-0.0576597237	-0.0063528056	-0.04022
N	 0.2393510166	-0.6121489814	-1.2206231317	-0.23001
C	 0.6375074466	-1.8510634233	-1.2465133889	 0.002934
C	 0.9031620758	-2.620040113	-0.0832874858	-0.22283
C	 0.7056835363	-2.0582366203	 1.1431541104	 0.268921
N	 0.907257412	-2.7154704725	 2.3406478704	-0.583641
C	 0.1987177708	-0.6825161992	 1.2269551337	 0.346506
N	-0.0956204415	-0.0116486846	 2.2913131794	-0.590087
H	 0.2669430347	 1.9563215018	 0.5488181674	 0.144134
H	-0.4817931601	 1.6345508377	-1.0539120699	 0.138876
H	-1.3994586327	 1.3884201246	 0.4731011705	 0.146026
H	 0.7811616053	-2.2712390506	-2.2358151583	 0.116216
H	 1.2765793115	-3.6347083758	-0.180141969	 0.091696
H	 1.4348935303	-3.5737894751	 2.2761940671	 0.255317
H	 1.2236831848	-2.1277842869	 3.0999622086	 0.25289
H	-0.0281137083	-0.5920932464	 3.1223687257	 0.203939
102.3484	166.3658	211.1518	258.9313	326.3453	353.8466	397.6399	467.569	503.7978	534.6796	558.09	603.2016	632.7412	713.465	716.2971	790.8975	852.2013	887.4729	917.6138	952.8731	1035.0213	1092.4604	1132.7323	1152.331	1211.6263	1290.5358	1334.7768	1362.4318	1404.5643	1435.7545	1449.1472	1469.3795	1504.2461	1583.8432	1620.9876	1638.8019	1688.9581	3052.7532	3110.8742	3171.3096	3177.6736	3194.7217	3525.9218	3551.4044	3656.3918
CN1N=CC=C(N)C1=N	CN1N=CCC(=C1[NH])N	
InChI=1S/C5H8N4/c1-9-5(7)4(6)2-3-8-9/h2-3,7H,6H2,1H3	InChI=1S/C5H9N4/c1-9-5(7)4(6)2-3-8-9/h3,7H,2,6H2,1H3
