20
gdb 16017	3.66312	1.83793	1.4862	1.2468	74.71	-0.2381	0.0873	0.3254	925.9669	0.179229	-349.006384	-348.999211	-348.998267	-349.037344	29.224	
C	 0.0100354279	 1.4998089345	-0.0322719449	-0.334705
C	 1.3221712286	 0.7335686239	-0.0377374683	-0.322683
C	-0.0037356149	 0.0094034876	 0.0379716851	 0.462716
C	-0.4091694732	-0.7300997346	 1.2978998739	-0.257492
C	 0.0766284788	-2.1873460355	 1.2323836861	-0.202372
C	-0.3639195067	-2.8255679014	-0.0925352589	-0.19371
C	 0.0607923825	-1.9437378496	-1.2682215945	-0.074898
O	-0.4459649106	-0.6196509476	-1.1391818751	-0.292559
H	-0.2613897749	 2.0604649805	 0.8558627378	 0.109166
H	-0.3087813733	 1.9425603473	-0.968897488	 0.12216
H	 1.8599334822	 0.6850410479	-0.9778471665	 0.115782
H	 1.9495576241	 0.7743136691	 0.8465139923	 0.107553
H	-0.0079316496	-0.2206955677	 2.1803526246	 0.091381
H	-1.5040139951	-0.7101844416	 1.3798651511	 0.100424
H	 1.1725767176	-2.2059912166	 1.297814635	 0.096917
H	-0.3029978808	-2.7591482417	 2.0857188108	 0.092347
H	 0.0647581356	-3.8275451665	-0.2094536379	 0.091888
H	-1.4557214955	-2.9332702391	-0.1080174604	 0.102033
H	 1.1609508975	-1.9184734683	-1.3398721138	 0.084531
H	-0.3311779802	-2.3238832108	-2.2160796385	 0.101522
132.9384	200.5104	285.2892	310.369	359.3649	410.5745	462.239	500.97	575.1831	696.8397	774.6987	832.2238	853.1105	863.6574	872.5303	934.3624	945.6607	962.8138	973.7496	1016.8518	1046.9096	1060.7293	1076.4967	1105.3323	1143.5547	1170.7063	1188.3589	1219.8829	1270.1737	1280.0098	1308.629	1338.6984	1369.0202	1376.9902	1391.3213	1414.0845	1451.6611	1472.9781	1480.2656	1489.3459	1494.7185	1506.8976	2969.1631	3018.7547	3022.2342	3026.6672	3067.9689	3072.2006	3077.6599	3084.5614	3130.8637	3135.5927	3215.9253	3230.0751
C1CC11CCCCO1	C1CC21CCCCO2	
InChI=1S/C7H12O/c1-2-6-8-7(3-1)4-5-7/h1-6H2	InChI=1S/C7H12O/c1-2-6-8-7(3-1)4-5-7/h1-6H2
