19
gdb 11970	2.77332	2.02372	1.73439	2.8023	71.38	-0.2336	0.0654	0.299	879.9091	0.164661	-365.02804	-365.019742	-365.018798	-365.060169	32.021	
C	-0.128349837	 1.5286868122	 0.0113423542	-0.453283
C	 0.013940114	 0.0104883987	 0.0084437215	 0.343742
O	-1.2433169098	-0.623345602	-0.1433173852	-0.479623
C	 1.1823776072	-0.5160086444	-0.8884064341	-0.277876
C	 2.0516908336	-0.720966054	 0.3899322474	-0.300093
C	 0.7768243331	-0.5581023329	 1.2204381978	 0.334197
C	 0.5183931061	-0.3229516518	 2.6549195166	-0.320414
N	 0.2447869959	-1.6389823427	 2.0412087625	-0.360191
H	 0.8341570488	 2.0172447073	 0.1896909568	 0.125874
H	-0.5032957736	 1.8846719604	-0.9572532238	 0.106751
H	-0.8255516057	 1.8499036449	 0.7916272731	 0.122052
H	-1.7619395601	-0.1334992261	-0.7894343099	 0.278786
H	 0.9026628473	-1.4657246539	-1.3489477566	 0.11277
H	 1.563623837	 0.1633743117	-1.6551837041	 0.089077
H	 2.5525580957	-1.6848805874	 0.4933390496	 0.114948
H	 2.7794039783	 0.0801959643	 0.5490057027	 0.100331
H	 1.3411050103	-0.31172886	 3.3655749371	 0.113854
H	-0.3224068657	 0.3119299224	 2.9270591283	 0.106674
H	-0.7510684554	-1.7286359268	 1.8456561959	 0.242424
89.6484	199.828	210.2643	235.3757	263.9523	298.8243	339.308	398.4541	442.0318	514.8832	582.9439	663.5893	748.7703	845.7378	879.4262	893.7334	920.5476	931.5126	958.8311	980.8349	986.8399	1062.391	1085.8141	1121.3976	1137.3399	1176.529	1197.1967	1221.5128	1251.5183	1255.6679	1285.6001	1290.1392	1361.8694	1405.0734	1420.4165	1470.1836	1486.7454	1489.1182	1495.9852	1513.9194	3018.1467	3057.8586	3063.8404	3087.2278	3095.5689	3112.6625	3115.6571	3130.8714	3178.5209	3486.1951	3817.5817
CC1(O)CCC11CN1	C[C@@]1(O)CC[C@]21CN2	
InChI=1S/C6H11NO/c1-5(8)2-3-6(5)4-7-6/h7-8H,2-4H2,1H3	InChI=1S/C6H11NO/c1-5(8)2-3-6(5)4-7-6/h7-8H,2-4H2,1H3/t5-,6-/m1/s1
