17
gdb 107164	4.67194	0.99456	0.94606	2.5709	68.99	-0.2565	0.0621	0.3185	1253.4254	0.134261	-458.888276	-458.880043	-458.879099	-458.92144	30.998	
O	 0.0637448068	 1.3733348246	-0.3497677766	-0.41074
C	 0.069864749	 0.0105976336	 0.0431105015	-0.182526
C	-1.314099127	-0.5054695954	 0.2727376958	 0.394974
C	-2.3147709555	-0.1654224361	 1.3963045555	-0.394405
C	-2.8688963213	-1.6005753356	 1.210970213	 0.462945
C	-3.3331415327	-2.5431208042	 2.2277831824	-0.270845
O	-4.2219455473	-1.9918618687	 1.243400286	-0.260854
C	-1.9080639846	-1.845921121	 0.063956006	-0.15761
O	-2.1132205764	-0.7902003794	-0.8885884441	-0.28848
H	-0.4476184955	 1.4299610119	-1.1647315631	 0.295131
H	 0.5694566644	-0.6284571863	-0.7000865936	 0.101605
H	 0.6471009732	-0.0345991868	 0.9724762003	 0.116497
H	-1.8597036664	-0.0006035759	 2.3759137182	 0.116248
H	-3.0028486935	 0.6467964146	 1.1571795518	 0.12899
H	-3.1267143636	-3.6078078531	 2.1236457046	 0.119366
H	-3.4900831839	-2.1964785724	 3.2483014627	 0.120785
H	-1.4830972657	-2.7735307398	-0.3031342004	 0.108921
69.6475	97.0536	177.615	274.9194	296.2242	354.8078	386.1647	414.9656	438.234	514.3735	635.2332	716.7161	781.7123	841.8896	861.4589	904.5742	916.1956	955.8722	981.3769	995.1635	1052.7408	1081.1347	1121.6747	1135.6166	1146.9266	1159.0604	1199.0998	1212.4852	1230.7393	1277.6984	1368.4845	1414.8817	1438.0439	1450.9749	1475.0488	1487.4762	1539.6406	2997.8192	3074.218	3079.8435	3080.7883	3137.3933	3167.8648	3183.6963	3806.1181
OCC12CC3(CO3)C1O2	OC[C@]12C[C@]3(CO3)[C@H]1O2	
InChI=1S/C6H8O3/c7-2-5-1-6(3-8-6)4(5)9-5/h4,7H,1-3H2	InChI=1S/C6H8O3/c7-2-5-1-6(3-8-6)4(5)9-5/h4,7H,1-3H2/t4-,5+,6-/m0/s1
