17
gdb 58009	4.13723	0.78933	0.70666	4.3685	67.15	-0.281	-0.0509	0.2301	1555.1317	0.132122	-496.130352	-496.120395	-496.119451	-496.166603	34.206	
C	 0.0825814462	 1.5641503159	 0.0042758138	-0.404875
C	 0.1087295563	 0.0244826791	 0.0513906676	 0.054963
O	 0.9084221211	-0.4906588656	-0.9783147557	-0.431031
C	 0.6259415403	-0.4693314299	 1.401034028	 0.353083
O	 1.7061484341	-1.0087324046	 1.481038748	-0.307623
C	-0.2664179562	-0.3088140601	 2.6283867249	-0.206746
O	 0.458252492	-0.4008124813	 3.8381074139	-0.163941
C	 0.871863205	-1.6363791895	 4.2186911442	 0.190634
O	 1.5480600042	-1.8062151316	 5.1836774639	-0.264848
H	 1.0776239356	 1.9694049469	 0.2098669045	 0.13823
H	-0.211753618	 1.8717268869	-1.0015894651	 0.146865
H	-0.6302151591	 1.9902961564	 0.7169274836	 0.117557
H	-0.9224474739	-0.3460491228	-0.0713668839	 0.094899
H	 1.689674466	-0.8684622751	-0.5454854533	 0.297173
H	-0.7633170398	 0.6633360058	 2.6323232144	 0.155326
H	-1.0544265277	-1.0755126279	 2.5655297089	 0.144938
H	 0.4894441439	-2.4400377028	 3.5631473122	 0.085397
38.1858	61.7849	77.5739	177.9911	201.5489	216.3583	255.1475	319.7031	364.1659	373.7628	395.7498	443.9077	579.942	647.4678	694.2951	844.3609	915.427	954.1092	1026.117	1043.2936	1046.3897	1077.6814	1105.5164	1175.1276	1177.3901	1282.6905	1298.3501	1345.6103	1386.9266	1400.8065	1427.46	1433.7158	1468.0127	1489.2656	1497.0776	1805.823	1880.7971	2971.1001	2973.3267	3002.0067	3043.684	3115.2703	3122.6082	3133.7394	3703.7118
CC(O)C(=O)COC=O	C[C@@H](O)C(=O)COC=O	
InChI=1S/C5H8O4/c1-4(7)5(8)2-9-3-6/h3-4,7H,2H2,1H3	InChI=1S/C5H8O4/c1-4(7)5(8)2-9-3-6/h3-4,7H,2H2,1H3/t4-/m1/s1
