22
gdb 76146	2.24941	1.26517	1.11803	1.7284	85.63	-0.2211	-0.0204	0.2007	1277.2363	0.190471	-404.349396	-404.338673	-404.337729	-404.384609	39.323	
C	-0.1630118327	 1.3359322166	-0.294037968	-0.32958
N	 0.2159922575	-0.0451337234	-0.0057544232	-0.132044
C	 1.6244677136	-0.4782269934	-0.0490093924	-0.170713
C	 2.7814276954	 0.4337088786	-0.3034639013	 0.393903
C	 3.9684472211	-0.2243041482	-0.9886204827	-0.481762
O	 2.8028106251	 1.6140049905	-0.0073814332	-0.333941
C	 0.8218610736	-0.4314644379	 1.2497529205	 0.310738
C	 1.1396603167	 0.5865569565	 2.3288395415	-0.472923
C	 0.330722062	-1.7651819233	 1.7873837662	-0.431843
H	 0.5605420763	 2.0933518807	 0.0179408937	 0.147918
H	-0.3119552619	 1.4283720317	-1.3744761	 0.120581
H	-1.1250513196	 1.5259443391	 0.1924083685	 0.118846
H	 1.7496212101	-1.4600071897	-0.5033566379	 0.081385
H	 3.6882216595	-0.5526637859	-1.9963511916	 0.143752
H	 4.7942956922	 0.4846361252	-1.0528291973	 0.140123
H	 4.2847179067	-1.1191341218	-0.440594177	 0.138308
H	 1.6386900544	 1.4712359572	 1.9372837862	 0.162746
H	 0.2145171634	 0.8921368752	 2.8312581727	 0.118334
H	 1.7870228653	 0.1346534296	 3.0875437971	 0.116797
H	 1.0951797887	-2.2436715203	 2.4091420891	 0.114301
H	-0.5603332744	-1.616644762	 2.4083530291	 0.119996
H	 0.0634186969	-2.4383490249	 0.9698942199	 0.12508
69.3677	141.0913	152.7905	166.5645	182.4768	207.7908	222.894	256.581	267.5088	340.0971	356.6836	407.9509	439.3802	482.398	600.995	637.386	693.4516	724.397	852.7025	932.6572	956.3036	967.4172	995.6764	1017.6369	1033.4984	1080.8469	1134.1568	1156.5041	1160.9828	1175.7974	1212.9705	1276.6044	1363.7559	1376.7025	1405.1087	1406.3692	1419.1491	1448.9854	1463.8202	1474.9171	1479.478	1482.8178	1488.0139	1504.6655	1507.077	1525.0768	1772.0386	3029.5647	3033.6318	3033.7436	3038.8007	3089.2948	3093.4615	3094.2436	3100.7886	3109.6223	3115.838	3127.0732	3154.1132	3165.5576
CN1C(C(C)=O)C1(C)C	CN1[C@@H](C(=O)C)C1(C)C	
InChI=1S/C7H13NO/c1-5(9)6-7(2,3)8(6)4/h6H,1-4H3	InChI=1S/C7H13NO/c1-5(9)6-7(2,3)8(6)4/h6H,1-4H3/t6-,8?/m0/s1
