19
gdb 75308	2.36561	1.64914	1.16194	0.6502	88.43	-0.2203	0.0214	0.2417	1118.9324	0.158561	-348.730769	-348.722228	-348.721284	-348.763403	33.637	
C	-0.0261462514	 1.4921756927	 0.0510533731	-0.49997
C	-0.013732783	-0.0012584948	-0.0118194046	 0.253691
C	 0.0441496704	-0.7795405905	-1.096779411	-0.183202
C	 0.0067748795	-2.2568864351	-0.7744553042	-0.277652
C	 0.0517503094	-2.2923377733	 0.7507043515	-0.088794
C	 1.229382969	-1.678347666	 1.4449513625	-0.313437
C	-0.0347741202	-0.8396597795	 1.2432070911	 0.125023
C	-0.8130823314	-0.4351268095	 2.3744813369	 0.188976
C	-1.4668367247	-0.077518889	 3.3199431607	-0.425191
H	 0.8465079633	 1.8734897131	 0.5960958607	 0.12809
H	-0.0282899557	 1.9334180278	-0.9488343252	 0.120854
H	-0.9093727085	 1.8509393391	 0.5919861514	 0.13944
H	 0.1286431496	-0.4085996964	-2.1125895149	 0.088728
H	-0.9083554612	-2.7283620218	-1.1572469335	 0.110413
H	 0.846299758	-2.8041423742	-1.2231620539	 0.109586
H	-0.4965986376	-3.0620933408	 1.2794390439	 0.100802
H	 1.4351106096	-2.0121640209	 2.4559824909	 0.122375
H	 2.1009644227	-1.3950205394	 0.8635190399	 0.116065
H	-2.0451993977	 0.2322482384	 4.1544494246	 0.184202
120.6036	138.5683	186.2897	208.8557	284.4861	311.5178	368.8326	470.7091	505.465	554.2781	563.7605	616.2015	617.5977	649.8754	723.1886	813.4904	824.8368	837.7127	903.3969	945.0132	964.0096	1007.9001	1031.491	1062.1025	1069.3513	1078.3219	1089.1304	1150.4113	1189.5338	1235.2591	1267.0799	1318.7096	1333.3193	1384.8727	1414.3216	1470.2953	1476.154	1484.2756	1489.2024	1711.3834	2230.9716	3012.9293	3024.1924	3039.3578	3074.7078	3117.4079	3126.2513	3188.3198	3189.9722	3221.1549	3503.2996
CC1=CCC2CC12C#C	CC1=CC[C@H]2C[C@@]12C#C	
InChI=1S/C9H10/c1-3-9-6-8(9)5-4-7(9)2/h1,4,8H,5-6H2,2H3	InChI=1S/C9H10/c1-3-9-6-8(9)5-4-7(9)2/h1,4,8H,5-6H2,2H3/t8-,9-/m0/s1
