18
gdb 7586	3.17114	1.58694	1.5104	1.9914	63.2	-0.2538	0.0501	0.3039	940.7712	0.151832	-422.050536	-422.041831	-422.040887	-422.083474	32.24	
C	-0.2481015989	 1.5000033144	 0.0277860693	-0.415257
C	 0.0010173394	-0.0098541759	 0.0047088419	 0.124346
O	 0.6668989508	-0.4124539561	-1.1842975926	-0.446403
C	 0.7995615226	-0.5021564767	 1.2150159715	 0.326842
O	 2.0502308282	 0.1482386426	 1.1488481802	-0.490293
C	 0.0374927155	-0.5165219986	 2.563853344	-0.133064
O	-0.1309299154	-1.9450503871	 2.4829562668	-0.271075
C	 0.7914247109	-2.039998903	 1.3780481062	-0.136824
H	 0.6994838357	 2.0443486467	 0.0698028473	 0.128996
H	-0.7823591023	 1.7950346426	-0.8786328509	 0.124582
H	-0.8495495746	 1.7962547448	 0.8935477634	 0.112744
H	-0.9580752652	-0.5404188544	 0.0005776405	 0.095313
H	 1.572367327	-0.0880708009	-1.1026755146	 0.285212
H	 2.644672866	-0.2511767011	 1.791870174	 0.286419
H	 0.6640186298	-0.2155758577	 3.4167674058	 0.090429
H	-0.920658815	 0.0120232201	 2.6186924275	 0.108796
H	 0.3981185475	-2.6284628452	 0.5437478753	 0.125792
H	 1.764424548	-2.4537244744	 1.6864647842	 0.083445
92.9962	104.0475	194.7907	224.2757	270.9318	289.2791	321.483	353.3824	417.8397	450.8792	506.8338	513.404	723.7337	797.5233	882.4458	924.7601	947.6612	995.8531	1024.2901	1025.353	1068.2356	1098.8512	1128.0844	1137.3238	1145.0075	1160.5373	1211.5567	1293.2031	1303.4782	1350.4529	1367.1287	1402.2127	1406.7574	1434.035	1489.8213	1498.4242	1504.5209	1530.308	2977.6959	2993.8163	3042.3173	3050.2093	3062.8121	3082.6828	3112.9403	3128.7772	3785.008	3818.3978
CC(O)C1(O)COC1	C[C@@H](O)C1(O)COC1	
InChI=1S/C5H10O3/c1-4(6)5(7)2-8-3-5/h4,6-7H,2-3H2,1H3	InChI=1S/C5H10O3/c1-4(6)5(7)2-8-3-5/h4,6-7H,2-3H2,1H3/t4-/m1/s1
