19
gdb 115659	3.145	1.14386	0.97979	3.1082	71.07	-0.2477	0.0539	0.3016	1246.0784	0.158803	-460.115277	-460.106538	-460.105594	-460.149552	31.893	
O	-0.0119140646	 1.4089507459	-0.2291066716	-0.420301
C	 0.0989376823	 0.0166071621	-0.0110757973	-0.073884
C	-1.2729750774	-0.5890097903	 0.2277264782	 0.062844
O	-2.137685539	-0.3001706613	-0.9042517046	-0.314129
C	-2.433791107	-1.7004588763	-1.0961908424	-0.123414
C	-1.4876415183	-2.1085029969	 0.0473566913	 0.350335
C	-0.358847937	-3.1484923605	-0.1002097218	-0.360439
C	-1.0478030222	-3.8535251185	 1.083173737	-0.074872
O	-2.0596665256	-2.8232649464	 1.1508038513	-0.307639
H	-0.6844291193	 1.5149353302	-0.9135657602	 0.295579
H	 0.5793340484	-0.4857062199	-0.8671334428	 0.081541
H	 0.7401676405	-0.1245236414	 0.866299144	 0.108698
H	-1.7102918182	-0.2128168477	 1.1611482547	 0.09505
H	-3.4850601596	-1.9353248191	-0.8912080509	 0.116604
H	-2.1646498155	-2.0470511792	-2.1016046217	 0.103201
H	-0.3619141153	-3.6963820863	-1.0443511179	 0.117481
H	 0.6496881237	-2.7807110563	 0.094356291	 0.123384
H	-1.4813654727	-4.8369313543	 0.869035841	 0.109445
H	-0.4668578134	-3.9133205838	 2.0103010527	 0.110518
62.6643	80.8056	118.16	150.5517	252.9067	299.0136	338.1815	457.8561	470.7194	479.4876	568.7879	783.6999	813.0324	862.7674	865.8102	893.9231	953.1947	977.5	1016.1699	1026.3683	1048.2572	1059.7691	1100.2533	1136.3328	1156.7093	1166.7204	1184.3192	1217.6604	1227.054	1229.5006	1268.4339	1278.7827	1329.2646	1356.7199	1361.7323	1396.793	1435.3536	1487.103	1499.3632	1508.0225	1533.2209	2966.3451	3015.6502	3028.1384	3036.0469	3068.1795	3069.672	3070.1672	3080.5457	3134.4879	3784.0593
OCC1OCC11CCO1	OC[C@H]1OC[C@]21CCO2	
InChI=1S/C6H10O3/c7-3-5-6(4-8-5)1-2-9-6/h5,7H,1-4H2	InChI=1S/C6H10O3/c7-3-5-6(4-8-5)1-2-9-6/h5,7H,1-4H2/t5-,6+/m1/s1
