19
gdb 22369	2.5086	1.31559	1.0495	1.1486	74.96	-0.2088	-0.0054	0.2034	1198.2266	0.158668	-456.29011	-456.2809	-456.279956	-456.324243	34.418	
C	 0.886219883	 1.2386982621	-0.0294256537	-0.328753
N	 0.0006096029	 0.07399272	-0.0052176722	-0.074394
C	 0.2042099111	-0.8507495321	-1.132239692	-0.193094
C	 1.2645951748	-1.8755764415	-0.6950009334	 0.039945
O	 2.5572629369	-1.3425677945	-0.9797678164	-0.427351
C	 1.0154680658	-1.92952189	 0.8002754132	 0.363719
C	 0.1570424578	-0.7454510834	 1.204006548	-0.26402
N	 1.5027924814	-2.8611516567	 1.5137826633	-0.231329
O	 1.1856421508	-2.6781987637	 2.8710344202	-0.390513
H	 1.9570200197	 0.9894482567	 0.0293696129	 0.1144
H	 0.7176199843	 1.7965322919	-0.9554784771	 0.118326
H	 0.6310486412	 1.9007762561	 0.8040529432	 0.115398
H	-0.7349995063	-1.3788722049	-1.3434630487	 0.103291
H	 0.5080446255	-0.3159859103	-2.0339776315	 0.118424
H	 1.1366918414	-2.8572960578	-1.1689074296	 0.082007
H	 3.1934827809	-1.8614768047	-0.4743760767	 0.287515
H	 0.5997166235	-0.1802065872	 2.0287165048	 0.131566
H	-0.8150961433	-1.1148047213	 1.5616983364	 0.12705
H	 1.5924112284	-3.4471924187	 3.2848533992	 0.307815
47.4002	136.3325	167.0505	209.4175	217.0326	319.1947	340.1604	367.53	389.4356	421.2847	449.4019	516.5675	539.4578	651.8237	757.5482	832.3261	854.9274	885.2374	974.4051	980.5564	988.8521	1039.6405	1068.7987	1117.957	1157.7212	1179.6374	1209.3619	1228.2278	1265.8594	1302.172	1328.1209	1348.8482	1355.2439	1398.4728	1405.9056	1454.6728	1470.2188	1486.2771	1490.5409	1511.6058	1756.3413	2985.4377	3002.2305	3013.7975	3028.8624	3069.4693	3088.6445	3103.3913	3118.8076	3799.599	3815.3301
CN1CC(O)C(C1)=NO	CN1C[C@@H](O)C(=NO)C1	
InChI=1S/C5H10N2O2/c1-7-2-4(6-9)5(8)3-7/h5,8-9H,2-3H2,1H3	InChI=1S/C5H10N2O2/c1-7-2-4(6-9)5(8)3-7/h5,8-9H,2-3H2,1H3/t5-/m1/s1
