20
gdb 89855	2.79422	1.33521	1.03496	0.5106	80.22	-0.2419	0.0121	0.254	1191.2187	0.172728	-403.134785	-403.126614	-403.125669	-403.167306	32.619	
O	 0.0898532688	 1.4302661874	 0.1215452647	-0.436088
C	 0.073395847	 0.0081911863	 0.0166387443	 0.101101
C	-1.3570717969	-0.5538033852	 0.0868252524	-0.317614
C	-1.3770204332	-2.0283552	-0.2652727074	 0.346091
C	-1.1867856048	-3.0234859011	 0.8230692041	-0.281286
N	-2.4990690329	-2.8747117918	 0.1613343718	-0.374652
C	-0.8533303896	-2.3109873492	-1.6637865961	-0.305529
C	 0.3618389234	-1.4792848541	-1.9834095116	-0.059108
C	 0.7799867545	-0.4617240019	-1.2309340783	-0.101124
H	-0.3065479523	 1.7809613013	-0.6842095854	 0.27486
H	 0.633123737	-0.3265940115	 0.9002384508	 0.099684
H	-1.7774586058	-0.3774167619	 1.0828521912	 0.096907
H	-1.9790218448	 0.0005249211	-0.6310751342	 0.090705
H	-0.678502704	-3.9629099617	 0.6227802667	 0.115996
H	-1.0722121398	-2.6573854427	 1.8407031471	 0.109179
H	-3.1280641111	-2.3460437988	 0.7619628478	 0.226805
H	-0.6260032168	-3.3777459046	-1.7737248207	 0.113046
H	-1.6473223629	-2.1057832722	-2.3975099643	 0.115682
H	 0.9142689799	-1.7477486404	-2.8810151123	 0.092389
H	 1.6736059245	 0.0981460209	-1.4963232805	 0.092956
104.1638	120.53	268.9991	298.4821	323.2003	353.5067	371.8583	426.588	458.1266	471.2074	543.8185	674.6608	730.2946	799.5619	853.4059	900.5157	928.8552	944.3884	955.3692	965.4045	993.9012	1006.6843	1023.4107	1073.3956	1075.2552	1101.2092	1127.9201	1160.0806	1195.1998	1216.1885	1252.767	1269.5583	1313.6686	1335.0256	1354.5855	1364.1663	1399.678	1414.966	1429.125	1471.421	1487.0452	1513.0759	1717.3811	2999.9047	3003.5072	3020.3396	3053.2095	3070.755	3101.233	3145.0293	3168.6918	3185.7451	3487.1875	3794.6636
OC1CC2(CN2)CC=C1	O[C@H]1C[C@]2(CN2)CC=C1	
InChI=1S/C7H11NO/c9-6-2-1-3-7(4-6)5-8-7/h1-2,6,8-9H,3-5H2	InChI=1S/C7H11NO/c9-6-2-1-3-7(4-6)5-8-7/h1-2,6,8-9H,3-5H2/t6-,7+/m1/s1
