15
gdb 125750	3.38701	1.23852	0.91277	6.5196	74.71	-0.2353	-0.066	0.1693	1211.1475	0.11169	-453.951427	-453.942837	-453.941892	-453.984658	30.956	
C	-0.0458538175	 1.4771277306	-0.0512753259	-0.511675
C	-0.016757882	-0.0122735443	 0.0448664859	 0.372077
N	-0.0188506735	-0.7686216453	-1.0281219246	-0.177198
O	 0.0026440498	-2.0728570988	-0.6124011818	-0.208254
C	 0.0242179396	-2.1062686818	 0.7495636928	 0.297739
C	 0.0607132358	-3.381941585	 1.4364365215	 0.07102
O	 0.070529466	-4.4728841077	 0.9119960381	-0.274936
C	 0.0117455066	-0.8153030547	 1.2297811365	 0.011692
N	-0.045150752	-0.3369814827	 2.5224077882	-0.607652
H	 0.8437029778	 1.9245164772	 0.4081366353	 0.133847
H	-0.0775237237	 1.780216441	-1.0990907405	 0.163135
H	-0.9241565566	 1.8873138176	 0.4590979146	 0.145805
H	 0.0819836092	-3.2736344086	 2.5461709967	 0.058167
H	 0.2395896921	-0.9767225105	 3.248774489	 0.264001
H	 0.3461894482	 0.583879323	 2.6557364542	 0.262231
101.2817	146.1959	167.8408	197.4086	242.9647	260.4007	343.194	365.2212	374.713	531.2266	567.1211	631.6641	655.7637	732.8095	754.0736	792.0393	975.1533	1007.1827	1010.5284	1053.25	1067.4745	1201.9878	1229.4533	1315.8126	1413.2592	1430.0296	1470.2657	1481.9638	1509.4389	1544.231	1639.2824	1679.5366	1784.3768	2847.1773	3031.7015	3085.4859	3142.9774	3571.7544	3670.1048
CC1=NOC(C=O)=C1N	Cc1noc(C=O)c1N	
InChI=1S/C5H6N2O2/c1-3-5(6)4(2-8)9-7-3/h2H,6H2,1H3	InChI=1S/C5H6N2O2/c1-3-5(6)4(2-8)9-7-3/h2H,6H2,1H3
