18
gdb 87271	2.05318	1.54177	1.05798	1.855	74.73	-0.2576	-0.0409	0.2168	1186.8	0.14459	-439.097418	-439.087696	-439.086752	-439.132337	34.551	
C	-0.2388533812	 1.6041573588	 0.4336009858	-0.407715
C	-0.1688796306	 0.1013432344	 0.3104018035	 0.002299
N	 0.8813830849	-0.4913478083	-0.4783659399	-0.353615
C	 0.910107575	-0.7609157867	 0.9753637115	 0.078202
C	 2.0247609083	-0.0766360485	 1.6962321505	 0.097847
O	 2.3657974956	-0.2946235786	 2.8330856088	-0.267876
C	 0.3929794653	-2.1227203799	 1.3967992756	 0.316174
C	 0.545939538	-2.5694647959	 2.8272261932	-0.474488
O	-0.154143083	-2.8115162035	 0.5584530043	-0.320892
H	 0.7489713329	 2.0640430963	 0.372996785	 0.135287
H	-0.8452532037	 2.0057781074	-0.3852869334	 0.136083
H	-0.7108119956	 1.8991535474	 1.3759157898	 0.132105
H	-1.1353711426	-0.4018719403	 0.2907969158	 0.116379
H	 0.5388947216	-1.3488451927	-0.9156037619	 0.256046
H	 2.5414199962	 0.6772916983	 1.0670621501	 0.103881
H	 1.6048206955	-2.6565920195	 3.0856657616	 0.166594
H	 0.1369246251	-1.8199139517	 3.5111755764	 0.148244
H	 0.0386131182	-3.526390857	 2.9550993534	 0.135444
55.232	94.8627	149.6678	167.6809	181.92	233.2054	245.2928	320.6831	355.3424	381.5471	470.4194	502.8341	596.5182	626.6801	705.5178	760.5478	861.5132	960.1284	991.9888	1029.6422	1037.424	1058.6579	1068.7625	1093.6488	1140.5422	1203.7307	1269.6628	1285.6247	1360.5816	1392.613	1407.5849	1411.0845	1443.8243	1451.534	1467.5376	1485.8337	1499.0462	1774.4101	1811.7695	2922.9555	3043.3965	3054.3527	3105.2742	3113.7956	3120.0649	3141.5212	3158.8471	3452.5885
CC1NC1(C=O)C(C)=O	C[C@H]1N[C@]1(C=O)C(=O)C	
InChI=1S/C6H9NO2/c1-4-6(3-8,7-4)5(2)9/h3-4,7H,1-2H3	InChI=1S/C6H9NO2/c1-4-6(3-8,7-4)5(2)9/h3-4,7H,1-2H3/t4-,6+/m1/s1
