17
gdb 124721	2.63387	1.29671	1.06098	4.9962	72.05	-0.2255	-0.0306	0.1948	1182.272	0.135831	-451.294622	-451.285386	-451.284442	-451.329399	33.158	
C	-0.0021612413	 1.6105596238	 0.2267085662	-0.375793
C	 0.0059615175	 0.0883593209	 0.0229148195	-0.09135
N	 0.7056149382	-0.5411797396	 1.1519558854	-0.50771
C	-1.3793239055	-0.4668912128	-0.0743436969	 0.410852
C	-2.0413472963	-1.1636163961	-1.0443299875	 0.143982
N	-1.6155964995	-1.6545634311	-2.2780892641	-0.602945
N	-3.3071318728	-1.4109681091	-0.5688139845	-0.176769
N	-3.4430920161	-0.9197339666	 0.5912464763	-0.019098
O	-2.2421289288	-0.2931369029	 0.9447199126	-0.211324
H	 1.0239093758	 1.9904535956	 0.2691156384	 0.112897
H	-0.5174590925	 2.1133141609	-0.5962886899	 0.118457
H	-0.5032487289	 1.8591839432	 1.1648637914	 0.150055
H	 0.480307434	-0.127226032	-0.950997301	 0.070114
H	 0.7514800883	-1.5469418594	 1.0177137502	 0.235199
H	 1.6636893414	-0.2046167996	 1.1835430933	 0.228803
H	-1.1498233981	-0.9626084975	-2.8504035878	 0.253702
H	-2.3923345854	-2.0548232376	-2.7892465516	 0.260926
31.7329	111.4426	149.6077	168.6067	234.1122	273.352	285.1435	306.429	412.8141	441.5929	533.2417	637.3825	695.4495	705.5757	741.8856	793.2168	801.3424	855.6025	920.5463	1004.1203	1023.6022	1072.9269	1088.665	1129.3674	1208.036	1236.821	1287.8221	1354.6085	1394.8597	1407.1552	1432.9682	1446.7345	1491.4911	1499.9388	1644.5655	1653.9169	1685.2673	2933.699	3042.5138	3112.0286	3137.9758	3488.1851	3542.4684	3572.0565	3632.1351
CC(N)C1=C(N)N=NO1	C[C@@H](N)c1c(N)nno1	
InChI=1S/C4H8N4O/c1-2(5)3-4(6)7-8-9-3/h2H,5-6H2,1H3	InChI=1S/C4H8N4O/c1-2(5)3-4(6)7-8-9-3/h2H,5-6H2,1H3/t2-/m1/s1
