17
gdb 22818	2.60896	1.40864	1.08586	1.785	72.5	-0.249	-0.0052	0.2439	1128.7952	0.136043	-455.116237	-455.107755	-455.106811	-455.14953	31.468	
C	 0.7805481142	 1.3271370275	-0.4512535387	-0.403553
C	 0.0097292365	 0.1713307862	 0.1920747969	 0.038655
O	-0.2663058219	-0.8303710901	-0.812452016	-0.233201
C	 0.6705569331	-1.7938558365	-0.9832083955	 0.131905
N	 1.6635171111	-2.0968041781	-0.2630315537	-0.273428
C	 1.8699209878	-1.3872324662	 0.9953875717	-0.248363
C	 0.7520705258	-0.4442817463	 1.3497306704	 0.339331
N	 0.3554583872	-0.1222611102	 2.5178762817	-0.203831
O	 1.1473181985	-0.6996652792	 3.5193249565	-0.389649
H	 1.767897386	 1.0022436153	-0.7926550192	 0.133931
H	 0.2260261169	 1.7096964471	-1.3122127077	 0.132844
H	 0.9110054828	 2.1347970683	 0.2741195551	 0.135135
H	-0.966822714	 0.5175057696	 0.5358439518	 0.115767
H	 0.4591717249	-2.3531377336	-1.8929742396	 0.12773
H	 1.9922567887	-2.1213825596	 1.7968555643	 0.151203
H	 2.825639056	-0.8460194948	 0.9453332022	 0.135337
H	 0.6965865464	-0.4207502993	 4.3235034898	 0.310187
77.1151	110.1827	186.6377	226.5774	246.2471	330.7208	355.974	438.195	476.0755	480.4251	539.5447	584.6635	641.3761	766.6908	859.361	891.7844	948.7828	979.9225	988.2439	996.2278	1035.3744	1076.0873	1132.9582	1162.6132	1241.1294	1283.814	1327.2763	1338.8471	1359.987	1400.7441	1410.5396	1420.8098	1464.8759	1488.062	1496.6861	1738.1176	1744.9069	3010.5842	3045.4721	3084.2964	3096.2681	3125.6392	3128.5429	3158.4246	3819.0755
CC1OC=NCC1=NO	C[C@H]1OC=NCC1=NO	
InChI=1S/C5H8N2O2/c1-4-5(7-8)2-6-3-9-4/h3-4,8H,2H2,1H3	InChI=1S/C5H8N2O2/c1-4-5(7-8)2-6-3-9-4/h3-4,8H,2H2,1H3/t4-/m1/s1
