19
gdb 117514	2.3329	1.04306	0.80349	2.7779	77.6	-0.2469	-0.0426	0.2043	1487.8421	0.156563	-419.230785	-419.220137	-419.219193	-419.267452	36.505	
C	-0.0554854843	 1.5480252072	 0.002282256	-0.390301
C	-0.2055778374	 0.034841407	-0.1173333057	-0.120118
N	 0.9095004018	-0.5256051168	-0.876935815	-0.278341
C	 0.9093407902	-1.9538170046	-1.0603118017	-0.199658
C	-0.3707620537	-2.5288367004	-1.5528326019	 0.25762
N	-1.3764264535	-2.9438837228	-1.9458781716	-0.328306
C	 2.0076833905	-2.3514474904	-2.092108042	 0.392417
C	 2.4594226974	-3.7904492517	-2.0656961054	-0.486709
O	 2.4381532877	-1.5228468911	-2.8510939331	-0.280362
H	 0.8939224807	 1.8081928705	 0.4784673177	 0.129539
H	-0.0817712588	 2.0237113165	-0.9845577037	 0.12116
H	-0.8726315061	 1.9685322442	 0.5949731983	 0.122029
H	-0.1932873468	-0.4195987589	 0.8821952067	 0.104417
H	-1.1852668989	-0.2113594904	-0.5602601622	 0.108575
H	 1.0243495526	-0.0781626152	-1.7811506375	 0.239525
H	 1.1305425564	-2.4560798727	-0.1078029624	 0.134137
H	 1.5993215691	-4.4672386623	-2.0486346252	 0.164157
H	 3.0875715459	-3.9993354292	-2.9318337927	 0.156086
H	 3.0334897873	-3.9722654288	-1.1491431386	 0.154132
55.757	83.0289	97.6533	117.5437	126.448	141.2277	230.3691	259.074	307.795	336.2214	418.5317	428.729	560.2202	599.3006	645.1367	733.1697	813.012	829.4491	901.3004	938.3237	973.6808	1038.7779	1061.9395	1138.5911	1163.6288	1178.3136	1214.8507	1268.1626	1300.0926	1330.9791	1387.2593	1400.1995	1419.8162	1460.5287	1474.4866	1481.9507	1497.1876	1503.1069	1526.7459	1836.8619	2334.15	2966.0215	3012.3949	3030.8232	3039.0893	3039.6356	3104.5927	3105.8285	3123.8178	3159.8212	3527.752
CCNC(C#N)C(C)=O	CCN[C@@H](C#N)C(=O)C	
InChI=1S/C6H10N2O/c1-3-8-6(4-7)5(2)9/h6,8H,3H2,1-2H3	InChI=1S/C6H10N2O/c1-3-8-6(4-7)5(2)9/h6,8H,3H2,1-2H3/t6-/m0/s1
