15
gdb 5862	4.7493	0.91106	0.905	5.9719	75.35	-0.2818	-0.0441	0.2377	1300.797	0.116011	-362.651824	-362.642743	-362.641798	-362.685403	32.229	
C	-0.0361156294	 1.5454837559	 0.005878893	-0.408272
C	-0.0115302726	 0.0042022327	 0.0241720549	 0.117654
C	 0.73920701	-0.5297467832	 1.2601949962	-0.40836
O	-1.3408984705	-0.5177359755	-0.01770588	-0.448039
C	 0.6469966232	-0.4858158491	-1.1936048417	 0.258194
C	 1.2289926036	-0.8652416739	-2.1809505267	-0.06044
C	 1.881666931	-1.2977586219	-3.2999362349	 0.2067
N	 2.4404235516	-1.6634243443	-4.2504243911	-0.334381
H	 0.9751027964	 1.9591419591	-0.0312616155	 0.135339
H	-0.5981826337	 1.9011780758	-0.8599590346	 0.144312
H	-0.5223068388	 1.9112037621	 0.9171651613	 0.115627
H	 0.2513108949	-0.1594709159	 2.1687341563	 0.115634
H	 0.717943941	-1.621344496	 1.2691324319	 0.144315
H	 1.7793515211	-0.1935128883	 1.2699104567	 0.135372
H	-1.7925990378	-0.2083217874	 0.7757884044	 0.286344
91.2551	91.3181	212.9397	225.9951	233.1838	236.7737	276.1836	344.991	353.4612	399.5612	536.4107	537.2248	597.2161	602.2941	624.4653	840.9131	920.3988	966.3985	1016.9295	1067.2824	1167.8602	1177.0985	1198.399	1387.1298	1391.9449	1413.4808	1475.5813	1478.2447	1492.3191	1508.4874	2267.2789	2405.0718	3036.0799	3040.693	3109.8151	3115.9854	3139.1039	3140.9869	3802.1866
CC(C)(O)C#CC#N	CC(C)(O)C#CC#N	
InChI=1S/C6H7NO/c1-6(2,8)4-3-5-7/h8H,1-2H3	InChI=1S/C6H7NO/c1-6(2,8)4-3-5-7/h8H,1-2H3
