20
gdb 64512	4.10205	1.10353	1.08832	2.4272	79.2	-0.2336	0.0571	0.2907	1206.4737	0.171818	-403.084342	-403.076048	-403.075104	-403.117103	32.623	
O	-0.2843131591	 1.2744706675	-0.2725344359	-0.471076
C	-0.2071204615	-0.1206612167	-0.1034621886	 0.377655
C	 0.8273892638	-0.7828198929	-0.9731398327	-0.023194
C	 1.1564566198	-0.2465520757	-2.3163574363	-0.260005
N	 2.116884246	-0.1178883366	-1.2039500497	-0.327807
C	-0.3271971339	-0.6706295191	 1.2843518859	-0.100166
C	-1.3239851689	 0.1455213404	 2.1147714925	-0.234519
C	-2.4290230716	-0.131025977	 1.0467282633	-0.240051
C	-1.4224650702	-0.9437282279	 0.2222840439	-0.13397
H	-0.8647742012	 1.4537838056	-1.0201101249	 0.287279
H	 0.9089051447	-1.8565042828	-0.8144195145	 0.088804
H	 1.4577399799	-0.9204688789	-3.1133824169	 0.116331
H	 0.6417841707	 0.649609139	-2.6521568772	 0.094898
H	 2.047894076	 0.8292889048	-0.8346078412	 0.238758
H	 0.4264651385	-1.3405464942	 1.6825118942	 0.092629
H	-1.5522726863	-0.3237735453	 3.0736386557	 0.102944
H	-1.0537004631	 1.190558372	 2.2806859743	 0.111508
H	-3.2395858564	-0.7486147646	 1.4385930918	 0.105472
H	-2.8643919091	 0.7425022684	 0.5520698032	 0.089836
H	-1.6454170282	-1.8553720061	-0.3216636969	 0.084675
76.372	162.0401	185.0325	231.3185	297.0846	312.9304	361.8044	393.2637	532.5749	552.6771	700.8831	746.8916	775.6719	814.9829	845.0574	876.8148	891.7118	941.4346	969.6167	981.2572	983.9061	1009.8877	1023.0863	1025.6218	1076.0995	1101.505	1116.4758	1151.0553	1164.7429	1186.1836	1226.9928	1249.181	1256.2312	1276.6663	1280.48	1289.4147	1304.9223	1324.8656	1386.6649	1448.6424	1472.7643	1496.183	1507.6714	3052.7863	3071.1338	3104.8424	3108.8996	3123.7107	3126.7017	3163.3055	3177.9762	3192.1571	3485.2421	3804.039
OC1(C2CN2)C2CCC12	O[C@@]1([C@H]2CN2)[C@H]2CC[C@@H]12	
InChI=1S/C7H11NO/c9-7(6-3-8-6)4-1-2-5(4)7/h4-6,8-9H,1-3H2	InChI=1S/C7H11NO/c9-7(6-3-8-6)4-1-2-5(4)7/h4-6,8-9H,1-3H2/t4-,5+,6-,7-/m1/s1
