15
gdb 129674	3.26419	1.39705	0.98723	3.1414	72.53	-0.1911	0.0122	0.2033	1117.5877	0.115913	-446.30736	-446.299518	-446.298574	-446.340107	29.552	
N	-0.6185738367	 0.6274771334	-1.1933305649	-0.61597
C	-0.2330512869	-0.3621938068	-0.3098190937	 0.275381
C	-0.921198667	-1.2331383733	 0.5249169036	 0.346823
N	-2.2828417716	-1.4707567099	 0.7522157557	-0.3806
C	-3.3553284922	-1.1170198177	 0.0010544382	 0.092117
N	-3.2870430963	-0.4266410374	-1.0780906654	-0.483766
N	-0.0283034488	-1.9396613421	 1.2681737716	-0.259958
N	 1.1818008277	-1.5850988671	 0.9585708148	-0.139435
N	 1.0625274986	-0.6313038874	 0.0025906592	-0.219277
H	-0.0499297194	 0.6621856635	-2.0310855209	 0.239919
H	-1.6124223721	 0.4994318575	-1.4202684355	 0.274292
H	-2.4450962356	-2.0722449257	 1.5446569102	 0.26629
H	-4.2892578823	-1.4884038584	 0.4349354776	 0.102159
H	-4.2138161044	-0.266634715	-1.4596475158	 0.227105
H	 1.8896730369	-0.1854490035	-0.3596396146	 0.27492
44.9191	210.0386	237.0913	268.4774	307.9149	381.1314	399.9882	445.4915	505.8069	513.871	606.0654	688.0374	729.377	736.4762	773.6585	833.7742	886.2931	1005.0501	1023.2111	1066.6561	1125.2502	1153.2093	1225.8695	1295.4196	1300.4713	1353.0834	1407.1494	1421.0641	1511.8021	1591.4645	1642.1299	1688.1519	1719.1692	3072.3224	3302.7941	3541.1277	3566.511	3639.2653	3660.3464
NC1=C(NC=N)N=NN1	Nc1c(NC=N)nn[nH]1	
InChI=1S/C3H6N6/c4-1-6-3-2(5)7-9-8-3/h1H,(H5,4,5,6,7,8,9)	InChI=1S/C3H6N6/c4-1-6-3-2(5)7-9-8-3/h1H,(H5,4,5,6,7,8,9)
