17
gdb 9833	3.84087	1.56455	1.23466	2.1901	65.84	-0.2527	0.0032	0.2559	1005.2272	0.141215	-401.012074	-401.003388	-401.002444	-401.045488	30.65	
C	-0.3189303431	 1.3986485732	-0.4264888429	-0.242794
O	-0.3651154387	-0.0255788944	-0.5897704132	-0.233015
C	 0.8098254961	-0.6101474523	-0.8762208436	 0.425614
O	 1.8512179896	-0.0033279021	-0.9876930212	-0.390597
C	 0.6815919157	-2.0973833152	-1.0362118432	 0.187841
C	-0.5774520273	-2.7757652385	-0.5484004586	-0.46191
C	 1.4442541139	-2.63690521	-2.2093492738	-0.250028
N	 1.9464210292	-2.8343238507	-0.853410565	-0.339286
H	 0.3651119683	 1.6700384309	 0.3810564458	 0.144922
H	 0.0165852317	 1.8802750017	-1.3482411504	 0.143017
H	-1.3375870593	 1.7015565873	-0.1851472488	 0.136218
H	-1.4566660806	-2.4062937304	-1.0825941973	 0.126702
H	-0.4936805164	-3.8536758913	-0.7043319589	 0.128175
H	-0.7325323679	-2.5975032649	 0.5198805098	 0.12678
H	 1.0634298803	-3.5280764234	-2.7009944205	 0.121836
H	 1.9513745127	-1.9236269361	-2.8520413502	 0.129669
H	 2.6805482058	-2.1481727739	-0.6803325981	 0.246856
64.5239	116.1911	152.8594	189.4543	197.3596	311.593	324.2628	344.3237	368.6724	456.7998	577.4886	776.1414	790.3945	832.6391	884.2194	950.0416	996.6307	1018.7118	1047.9633	1108.2626	1111.6148	1136.8087	1178.7394	1205.5962	1235.4343	1299.2706	1357.845	1371.6469	1421.7702	1472.7942	1481.5956	1483.4566	1494.3184	1497.9018	1498.7408	1792.1419	3047.7753	3054.4806	3111.0589	3115.6043	3130.5281	3131.5316	3162.4764	3205.4773	3479.0361
COC(=O)C1(C)CN1	COC(=O)[C@@]1(C)CN1	
InChI=1S/C5H9NO2/c1-5(3-6-5)4(7)8-2/h6H,3H2,1-2H3	InChI=1S/C5H9NO2/c1-5(3-6-5)4(7)8-2/h6H,3H2,1-2H3/t5-/m1/s1
