19
gdb 66358	2.31338	1.45521	1.36219	4.8658	75.37	-0.2339	0.0335	0.2673	1081.1861	0.160672	-419.214764	-419.20625	-419.205305	-419.247487	32.747	
C	 0.0019916973	 1.5210005536	 0.0186783112	-0.434686
C	-0.0210587365	-0.0140262278	 0.0051441994	 0.061864
C	 0.6884492791	-0.5634847051	-1.2598118899	-0.084397
O	 0.8036825935	-1.9661701779	-1.231186941	-0.239271
C	 1.5293309584	-2.4222155558	-0.096779146	-0.074324
C	 0.8467741806	-1.9714844201	 1.1944231578	-0.183396
N	 0.6178874687	-0.5206934402	 1.2337570359	-0.307127
C	-1.4274290825	-0.4739314837	 0.000062676	 0.317548
N	-2.5318660712	-0.8114532845	-0.0266256197	-0.346379
H	 1.0379533934	 1.8748466615	-0.0097225641	 0.120548
H	-0.5248160285	 1.9279121024	-0.8477480023	 0.141879
H	-0.4713432714	 1.894473487	 0.9288767315	 0.152119
H	 0.1337125797	-0.3102361258	-2.167768152	 0.125058
H	 1.6845832818	-0.088754398	-1.3101268489	 0.083988
H	 1.5660094479	-3.5127528884	-0.1730570723	 0.116577
H	 2.5637775029	-2.0365527927	-0.1335383205	 0.081324
H	-0.1250572979	-2.4700989931	 1.2825537029	 0.140778
H	 1.4440207943	-2.2522072396	 2.0677325405	 0.108642
H	 1.5051301305	-0.0359364819	 1.3421855416	 0.219254
112.8091	151.938	204.631	228.8428	276.7365	301.6868	341.0476	419.0614	427.5629	460.6332	557.8368	598.0303	629.1288	713.6119	762.8848	855.9766	894.5918	910.7426	936.6343	1003.3537	1036.6724	1079.6814	1115.3031	1142.0069	1167.3672	1191.334	1222.4449	1254.396	1311.7577	1338.0763	1371.8172	1386.3956	1404.5182	1417.1038	1470.871	1478.3246	1478.7582	1492.8115	1493.8256	1501.7453	2359.4182	2947.5348	2954.6929	3044.3095	3045.481	3088.485	3089.9314	3095.1872	3119.1689	3142.3085	3497.5882
CC1(COCCN1)C#N	C[C@]1(COCCN1)C#N	
InChI=1S/C6H10N2O/c1-6(4-7)5-9-3-2-8-6/h8H,2-3,5H2,1H3	InChI=1S/C6H10N2O/c1-6(4-7)5-9-3-2-8-6/h8H,2-3,5H2,1H3/t6-/m1/s1
