15
gdb 23362	3.13969	1.62355	1.2784	1.4764	68.16	-0.2412	0.0011	0.2424	961.453	0.112024	-453.821499	-453.814115	-453.813171	-453.853007	29.253	
O	-0.2516056532	 1.355070687	 0.1268863047	-0.41645
N	-0.03689869	-0.0587497787	 0.0705388289	-0.310623
C	-1.1513784444	-0.6605877475	 0.1061312687	 0.407213
C	-1.5111872589	-2.0800746764	-0.1078921997	-0.132374
C	-2.7780126716	-1.6578074706	-0.7886438207	-0.125296
N	-2.8646408951	-2.317440203	 0.5199757565	-0.142151
C	-3.2438577991	-1.0171816222	 1.1830526621	-0.195073
C	-2.6175036068	-0.2530882957	 0.0046469526	 0.287993
O	-2.9986929554	 1.0093157603	-0.3520105281	-0.470885
H	 0.6317709691	 1.7012317507	-0.0340414562	 0.313323
H	-0.8752882419	-2.9363944088	-0.2758899711	 0.121401
H	-3.2421321896	-1.9772371013	-1.7119802435	 0.11927
H	-4.333996533	-0.9519630844	 1.1985964201	 0.124833
H	-2.8320477458	-0.856823787	 2.1851899196	 0.113258
H	-2.193741684	 1.5318908173	-0.4743108638	 0.305563
121.2738	202.8033	284.1733	315.4419	365.9398	371.6855	446.8886	465.3824	481.1207	644.2981	718.2687	734.8872	769.3947	785.9901	805.7441	853.8377	915.9874	930.0215	974.2484	993.072	1049.5803	1089.8748	1108.4434	1144.2368	1150.249	1227.3692	1261.7266	1285.6907	1365.7387	1393.5982	1428.8997	1506.4932	1786.1621	3048.398	3121.6756	3210.7273	3237.5546	3742.1068	3833.7137
ON=C1C2C3N2CC13O	O[N][C]1[C@@H]2[C@H]3N2C[C@@]13O	
InChI=1S/C5H6N2O2/c8-5-1-7-2(4(5)7)3(5)6-9/h2,4,8-9H,1H2	InChI=1S/C5H6N2O2/c8-5-1-7-2(4(5)7)3(5)6-9/h2,4,8-9H,1H2/t2-,4-,5-,7?/m1/s1
