20
gdb 103438	2.36438	1.58071	1.34789	2.4258	74.61	-0.2266	0.0763	0.3029	1070.7658	0.169805	-440.225519	-440.216481	-440.215536	-440.25861	34.902	
C	-0.0144153042	 1.3748817639	-0.0932559653	-0.257011
O	-0.0534223165	-0.0351392502	 0.0547540227	-0.283976
C	 0.6590794543	-0.557827098	 1.1461682764	 0.41499
C	 0.1853434377	-0.0372111037	 2.5011433447	-0.469564
C	 0.7169504423	-2.0854863255	 1.1137075007	-0.118376
N	 1.459932062	-2.4806488913	-0.1047600994	-0.35882
C	 2.2077421665	-2.0853871116	 1.1130139312	-0.07071
C	 2.2589973403	-0.5534642006	 1.0121924356	 0.063965
O	 2.7923701121	-0.0370016936	-0.1707252234	-0.439413
H	 1.0140458548	 1.7522935942	-0.0910214864	 0.131102
H	-0.4700635042	 1.5949225214	-1.0620705077	 0.123687
H	-0.5940739751	 1.8914182764	 0.6847247447	 0.101661
H	-0.8922687895	-0.1944456649	 2.6166979884	 0.122765
H	 0.6975298398	-0.5638685618	 3.3123062071	 0.119137
H	 0.3931173232	 1.030480564	 2.61612031	 0.12407
H	 0.0270754601	-2.7717050214	 1.590722995	 0.091911
H	 1.4544229744	-3.4977535051	-0.1535450666	 0.235164
H	 2.9051868171	-2.7628194796	 1.5896628346	 0.093207
H	 2.7524606626	-0.0572518973	 1.8507189442	 0.0796
H	 2.3921749624	-0.5707902651	-0.8732206065	 0.296612
134.3604	145.6433	173.1358	213.72	255.1805	267.9608	291.4595	312.164	380.4337	496.9782	517.0676	560.1171	626.0423	662.9248	773.3041	842.2356	844.9846	876.9672	919.753	933.5093	962.1545	1015.5792	1070.5572	1088.2942	1094.8887	1131.7374	1145.6773	1173.2367	1178.2417	1191.1622	1226.8106	1243.077	1281.838	1321.5775	1333.8089	1384.7786	1400.9309	1453.9687	1475.927	1485.7718	1494.3677	1505.8402	1509.9856	3000.22	3035.7439	3073.0799	3091.631	3107.2876	3111.296	3116.1491	3180.7615	3196.009	3493.1209	3732.2688
COC1(C)C2NC2C1O	CO[C@@]1(C)[C@H]2N[C@H]2[C@H]1O	
InChI=1S/C6H11NO2/c1-6(9-2)4-3(7-4)5(6)8/h3-5,7-8H,1-2H3	InChI=1S/C6H11NO2/c1-6(9-2)4-3(7-4)5(6)8/h3-5,7-8H,1-2H3/t3-,4+,5-,6+/m1/s1
