17
gdb 14650	3.61765	0.88858	0.78323	3.1383	73.29	-0.2387	-0.0237	0.215	1466.0934	0.139465	-363.83111	-363.821352	-363.820407	-363.868338	32.158	
C	 0.186682681	 0.6709865291	 1.1377812887	-0.496282
C	 0.0570873099	-0.53235613	 0.328395993	 0.030811
C	-0.0333466134	-1.530716587	-0.3403676421	 0.098966
C	-0.2002191889	-2.7355788907	-1.1623291887	-0.325322
N	-1.5914778835	-3.1436202598	-1.4032882504	-0.281902
C	-2.3128961613	-3.524291946	-0.1963247084	-0.250235
C	-1.9737126211	-4.951042349	 0.2120564412	 0.169895
O	-2.0475269898	-5.3742664456	 1.3353800134	-0.237057
H	 0.9932758238	 1.3128712236	 0.7668613169	 0.150526
H	-0.7367786025	 1.2603127581	 1.1241823343	 0.148883
H	 0.4091145299	 0.4273487913	 2.1823454442	 0.152048
H	 0.2794182173	-2.5899042407	-2.137256928	 0.134047
H	 0.3233586142	-3.5782538167	-0.6920343694	 0.139198
H	-2.0776845293	-2.3855874532	-1.8681559879	 0.229558
H	-2.160310994	-2.8590661207	 0.667103894	 0.124713
H	-3.3880718751	-3.5226047097	-0.4224481421	 0.129022
H	-1.6642257973	-5.5922122429	-0.6455592387	 0.08313
19.9677	38.8092	75.2224	99.4189	149.0267	219.7235	264.0657	351.4796	379.5951	390.7793	538.4525	543.9483	718.2885	732.9722	800.9785	938.8562	995.3731	1052.7985	1053.2492	1065.9813	1121.2772	1136.8455	1158.2896	1238.2452	1283.2391	1350.4338	1361.2792	1401.9892	1415.1289	1455.9941	1469.2354	1477.2807	1478.9006	1498.5257	1839.448	2362.6631	2873.0003	2993.5943	3022.5475	3027.8783	3045.9547	3057.9609	3088.7563	3089.9276	3540.9299	19.9138	38.8089	75.2231	99.4189	149.0268	219.7234	264.0654	351.4798	379.5953	390.7797	538.4525	543.948	718.2882	732.9722	800.9782	938.8558	995.373	1052.7999	1053.2505	1065.9812	1121.2768	1136.8454	1158.2897	1238.2444	1283.2382	1350.433	1361.278	1401.9889	1415.1303	1455.9934	1469.2337	1477.2834	1478.9033	1498.5248	1839.4483	2362.6639	2873.0003	2993.5944	3022.5476	3027.8781	3045.9547	3057.961	3088.7562	3089.9275	3540.9302
CC#CCNCC=O	CC#CCNCC=O	
InChI=1S/C6H9NO/c1-2-3-4-7-5-6-8/h6-7H,4-5H2,1H3	InChI=1S/C6H9NO/c1-2-3-4-7-5-6-8/h6-7H,4-5H2,1H3
