15
gdb 18467	3.92312	1.51994	1.40716	3.0629	61.43	-0.2464	0.007	0.2534	909.4115	0.119215	-399.77883	-399.771495	-399.770551	-399.810938	27.054	
O	 0.0288611431	 1.1592770893	-0.5611576277	-0.41921
C	 0.030375969	-0.0872291697	 0.1217468716	-0.121955
C	-1.3746748332	-0.6311948017	 0.0689110542	-0.009948
C	-1.982968142	-1.2906799835	-1.1301316539	-0.002147
N	-1.027803217	-2.1092644537	-1.8793787007	-0.340344
C	-0.6947568947	-2.870932483	-0.7416142219	 0.410641
O	 0.1045362391	-3.7473397849	-0.5752727825	-0.342669
C	-1.7158278907	-2.1257667846	 0.1138592228	-0.256269
H	 0.8857555628	 1.5753004328	-0.4265846774	 0.290647
H	 0.7377859071	-0.7936524594	-0.3354338353	 0.102929
H	 0.3281911382	 0.029719237	 1.1747238582	 0.099336
H	-2.0884616739	-0.0310000076	 0.6307803766	 0.107573
H	-2.9355534064	-1.0208967238	-1.5656311926	 0.116226
H	-0.3339738636	-1.7273471075	-2.5126067787	 0.246923
H	-2.4020563979	-2.5476314596	 0.8339037973	 0.118267
60.017	120.6919	226.0458	266.1245	307.6798	447.8363	460.6332	543.6283	650.7088	734.483	744.1466	799.4663	840.7787	893.651	929.6697	978.4066	1013.4611	1049.1447	1074.1755	1074.9646	1097.2432	1138.2117	1180.5488	1236.8903	1270.3074	1281.3018	1320.3583	1333.7703	1411.2115	1476.5379	1519.6838	1896.2111	2987.9603	3018.9816	3134.2816	3208.8459	3228.0032	3547.7913	3825.3632
OCC1C2NC(=O)C12	OC[C@H]1[C@H]2NC(=O)[C@@H]12	
InChI=1S/C5H7NO2/c7-1-2-3-4(2)6-5(3)8/h2-4,7H,1H2,(H,6,8)	InChI=1S/C5H7NO2/c7-1-2-3-4(2)6-5(3)8/h2-4,7H,1H2,(H,6,8)/t2-,3+,4-/m1/s1
