17
gdb 56785	2.66634	1.32441	1.10246	3.5742	72.	-0.2702	0.0067	0.277	1135.3386	0.136129	-417.968197	-417.959679	-417.958735	-418.001773	31.424	
O	-0.2932231257	 1.338708136	 0.078867916	-0.4048
C	 0.0375357638	-0.0363306929	-0.0229008522	-0.12527
C	 0.7571820036	-0.3120653156	-1.2871634283	 0.257068
N	 1.3515630229	-0.5012507597	-2.2599593518	-0.32607
C	 0.8300735661	-0.5408344679	 1.1569185618	 0.347115
C	 2.2863058465	-0.1748578634	 1.5055939745	-0.323415
C	 2.4720499011	-1.6188893153	 2.0824281847	-0.233306
C	 1.013838215	-1.9276955527	 1.712709171	-0.087133
N	 0.0911705313	-0.9807957263	 2.3289129496	-0.358469
H	 0.5241486455	 1.8492914029	 0.0464986216	 0.29624
H	-0.9178256321	-0.5694359312	-0.0412630862	 0.152597
H	 2.9113057197	-0.0048484059	 0.6256626263	 0.13088
H	 2.4086483947	 0.664761819	 2.1972198483	 0.104404
H	 3.1959198749	-2.2004212419	 1.5082140116	 0.12358
H	 2.7142241305	-1.7056473783	 3.1462650191	 0.106592
H	 0.6147010249	-2.8761872341	 1.3720041594	 0.108892
H	 0.4413373873	-0.5816114028	 3.1981907847	 0.231094
60.5985	103.8202	173.8194	205.814	250.1405	298.4518	353.2438	399.0615	464.5604	531.1967	604.3903	713.7788	767.6443	788.607	850.4064	903.3721	929.4863	948.9737	973.3185	1027.2362	1054.6238	1070.8277	1084.6371	1133.5023	1178.4017	1210.9085	1227.8961	1247.8479	1262.3317	1279.4917	1285.6026	1320.4788	1412.5066	1438.8111	1477.6184	1499.6099	2354.6949	3048.5023	3057.4957	3082.2016	3105.9373	3123.1879	3183.0643	3463.6521	3802.0734
OC(C#N)C12CCC1N2	O[C@@H](C#N)[C@]12CC[C@H]1N2	
InChI=1S/C6H8N2O/c7-3-5(9)6-2-1-4(6)8-6/h4-5,8-9H,1-2H2	InChI=1S/C6H8N2O/c7-3-5(9)6-2-1-4(6)8-6/h4-5,8-9H,1-2H2/t4-,5+,6+/m1/s1
