18
gdb 34253	4.17729	1.31192	1.18537	1.2239	83.05	-0.2238	0.0374	0.2612	1073.7648	0.149273	-364.740628	-364.733379	-364.732434	-364.772003	29.678	
C	 0.0636726517	-1.1895779344	-0.0689921245	-0.374537
C	 0.0310026255	 0.0129438577	-0.0201500037	 0.107645
C	-0.0323019388	 1.4311731043	 0.0603162473	 0.205398
C	-1.2069023286	 2.2665141106	 0.5732631761	-0.242314
N	-0.8212167589	 3.3952049405	-0.3482759927	-0.12263
C	 0.0147859634	 4.3613533475	 0.3962367318	-0.163573
C	 1.2415262116	 3.5610461096	 0.9304873159	-0.260904
C	 1.2208392233	 2.3309414515	 0.0280486381	-0.087913
C	 0.1620254191	 2.4945547256	-1.0156216677	-0.09456
H	 0.0950156287	-2.2496120768	-0.1165567723	 0.181619
H	-2.1722791168	 1.8456679471	 0.2819818783	 0.119858
H	-1.2279698988	 2.5219609281	 1.6390228142	 0.100049
H	 0.3387203232	 5.1406242125	-0.3014907031	 0.108068
H	-0.5753143063	 4.837126077	 1.1842071056	 0.107068
H	 2.178086818	 4.1156857587	 0.8196111235	 0.10488
H	 1.1415038338	 3.3021596382	 1.9892281049	 0.108531
H	 2.1365389046	 1.8107812975	-0.226189732	 0.100952
H	 0.2577817555	 2.4163841047	-2.0906825697	 0.102364
133.8165	147.6276	248.6169	358.0135	405.9028	485.82	511.1934	550.2688	579.864	649.3208	680.625	696.7071	750.8783	828.6115	858.2478	878.025	902.622	914.2087	955.1814	996.0196	1000.6766	1018.7524	1035.7006	1098.382	1117.1832	1170.6657	1190.3275	1216.1004	1226.8882	1244.2749	1256.7498	1296.4473	1310.0175	1345.428	1408.1164	1489.624	1497.6905	1517.1674	2231.6441	3031.876	3046.8384	3053.0874	3085.181	3097.585	3106.7799	3191.9582	3203.2902	3503.4654
C#CC12CN3CCC1C23	C#C[C@@]12CN3CC[C@@H]1[C@@H]23	
InChI=1S/C8H9N/c1-2-8-5-9-4-3-6(8)7(8)9/h1,6-7H,3-5H2	InChI=1S/C8H9N/c1-2-8-5-9-4-3-6(8)7(8)9/h1,6-7H,3-5H2/t6-,7+,8-/m1/s1
