18
gdb 51114	3.556	1.09805	0.97904	2.5977	76.24	-0.2143	-0.0218	0.1925	1227.0378	0.146582	-401.865842	-401.857757	-401.856812	-401.899545	30.738	
O	-0.692991308	 0.7242585132	 0.5832567628	-0.239764
C	 0.1621026668	 0.9318261532	-0.2384574674	 0.16379
C	 1.293060357	 1.9315018048	-0.0770346915	-0.388032
C	 1.2605909229	 2.9661952686	-1.1708979804	 0.344526
C	 1.8928868707	 2.806651388	-2.5322226125	-0.33728
C	 2.3466306287	 3.9307790472	-1.6366070631	-0.134163
C	 1.3125138091	 5.0925320429	-1.5782028877	-0.047415
N	 0.1843340303	 4.7796487787	-2.4928637332	-0.337464
C	 0.253409685	 4.1647979851	-1.1439380568	-0.117861
H	 0.1647264162	 0.3969128554	-1.2157956379	 0.079385
H	 1.2143389012	 2.3834736776	 0.9178006024	 0.117342
H	 2.2418844688	 1.380119949	-0.1309274834	 0.117949
H	 2.5986798347	 1.9842556719	-2.6047864641	 0.105948
H	 1.3301147312	 3.0154660106	-3.4325974478	 0.146874
H	 3.3611715169	 4.0184952683	-1.2695589999	 0.092671
H	 1.5244011262	 6.1084208496	-1.2724757938	 0.097436
H	-0.4741264237	 5.5557906193	-2.4330593272	 0.232479
H	-0.5435656543	 4.2878562367	-0.4217405084	 0.103579
41.3236	72.1377	149.9517	280.8784	305.772	395.3936	433.1636	480.1595	562.2398	651.1698	735.8893	787.0731	807.8105	832.4315	843.3931	863.937	910.3342	917.9661	946.9319	977.4282	988.0994	1021.2721	1058.2968	1078.3111	1101.4518	1104.3827	1131.0038	1171.875	1222.3274	1249.5602	1269.454	1309.3252	1317.3195	1347.334	1391.5217	1423.5605	1452.1635	1470.2688	1831.6395	2872.1398	3017.2026	3079.2147	3135.0928	3190.2955	3195.3052	3207.8295	3232.9715	3477.2804
O=CCC12CC1C1NC21	O=CC[C@]12C[C@H]1[C@H]1N[C@@H]21	
InChI=1S/C7H9NO/c9-2-1-7-3-4(7)5-6(7)8-5/h2,4-6,8H,1,3H2	InChI=1S/C7H9NO/c9-2-1-7-3-4(7)5-6(7)8-5/h2,4-6,8H,1,3H2/t4-,5+,6+,7-/m0/s1
