21
gdb 88462	2.98445	1.13445	1.09122	0.7816	78.7	-0.2513	0.0583	0.3097	1242.7355	0.181384	-424.18705	-424.177723	-424.176779	-424.22128	35.231	
C	-0.1762466058	 1.5177018092	-0.2319107603	-0.417665
C	-0.0238023634	 0.0342602027	 0.0322612993	-0.002246
C	 1.2902179252	-0.6825091717	-0.1771262033	-0.316098
C	 0.721762083	-0.5515995069	 1.2147569204	-0.013317
C	 1.410468751	 0.2549252386	 2.2919973423	 0.30793
O	 2.2080354894	 1.2547544071	 1.7048758605	-0.46876
C	 0.4690916081	 0.672482376	 3.4587576229	-0.124054
O	 0.9986860741	-0.369407349	 4.3010622355	-0.271842
C	 2.0814078021	-0.6240408919	 3.3860163194	-0.124662
H	 0.7216536793	 2.0674338057	 0.0521927896	 0.139614
H	-0.3715487727	 1.6973457334	-1.2952136161	 0.110578
H	-1.0201189939	 1.9346537393	 0.330399131	 0.107399
H	-0.9027221442	-0.5437421271	-0.2455047495	 0.080774
H	 1.2945202742	-1.6584646474	-0.6504747266	 0.10465
H	 2.1518633961	-0.0645722682	-0.4030989251	 0.128504
H	 0.2686644358	-1.4463492646	 1.6337643728	 0.090241
H	 2.6182043765	 1.76829631	 2.4084905265	 0.281699
H	 0.6849399223	 1.6775286203	 3.8540070797	 0.083887
H	-0.6095035357	 0.5719659226	 3.2981461308	 0.110411
H	 2.2116152584	-1.6911428196	 3.1759999244	 0.109083
H	 3.0352318901	-0.2062389886	 3.7437260458	 0.083872
60.4429	88.5449	165.2732	216.8004	229.6859	283.464	295.3412	346.3022	380.8223	398.7477	470.8996	552.0925	701.7005	772.0429	785.1291	857.4328	873.8357	925.1397	936.5846	960.3802	1005.7423	1026.8839	1034.8193	1071.7623	1076.6959	1085.6655	1116.6838	1126.3946	1144.995	1156.1844	1163.1715	1205.6051	1230.4564	1257.6041	1291.3024	1352.5613	1367.1102	1401.0329	1425.6355	1449.0056	1491.6732	1503.4268	1504.1283	1510.3061	1530.7415	2975.467	2987.8886	3028.9707	3066.8606	3069.2645	3079.651	3119.4339	3133.8273	3141.2639	3149.9378	3224.492	3810.9695
CC1CC1C1(O)COC1	C[C@H]1C[C@H]1C1(O)COC1	
InChI=1S/C7H12O2/c1-5-2-6(5)7(8)3-9-4-7/h5-6,8H,2-4H2,1H3	InChI=1S/C7H12O2/c1-5-2-6(5)7(8)3-9-4-7/h5-6,8H,2-4H2,1H3/t5-,6+/m0/s1
