19
gdb 34926	2.73382	1.49235	1.20251	0.8649	85.32	-0.2373	0.0525	0.2897	1096.3126	0.158652	-348.674177	-348.666056	-348.665112	-348.706562	32.575	
C	 0.0107789311	-1.2186086269	 0.0268763062	-0.465348
C	 0.0581083387	-0.016248677	 0.0371926123	 0.345463
C	 0.089281514	 1.419273609	 0.0524398268	-0.214389
C	 0.5097011647	 2.2393889611	 1.2586898545	-0.066725
C	 1.6307136368	 1.5387072195	 2.0424127093	-0.329134
C	 2.4845471077	 1.5635182015	 0.7542224524	 0.393265
C	 3.9371756613	 1.9268626927	 0.6715463834	-0.346887
C	 3.4667664183	 0.5519490719	 0.2476002968	-0.308493
C	 1.3647945545	 2.2466431272	-0.003956344	-0.154315
H	-0.0259272251	-2.2793699549	 0.0104209811	 0.191502
H	-0.7262523174	 1.8840539134	-0.4976271132	 0.111684
H	-0.1415729761	 3.0130733955	 1.6462752372	 0.091714
H	 2.0470527011	 2.1680960644	 2.8330961926	 0.104793
H	 1.3807534285	 0.5556561082	 2.4522701503	 0.110457
H	 4.2467825067	 2.623074525	-0.101943404	 0.110506
H	 4.4951488007	 2.0170530869	 1.5984479275	 0.109696
H	 3.7035867123	-0.2890651907	 0.8908708618	 0.112899
H	 3.4583944004	 0.314183156	-0.8107848575	 0.114424
H	 1.484886392	 3.0215833575	-0.7528274432	 0.088888
93.7659	134.7783	203.3301	264.88	297.7606	360.6067	415.1866	519.855	564.6874	589.9422	633.1401	648.8459	751.2534	767.2837	786.0297	823.4326	860.1403	894.728	929.2951	947.7705	963.6644	987.5064	993.9658	1027.0764	1056.2156	1066.7227	1074.6305	1090.6939	1162.4855	1168.3308	1187.333	1225.25	1248.7252	1282.8408	1315.0286	1397.9583	1402.3124	1464.7014	1481.2143	1504.6117	2231.8097	3051.8944	3105.2236	3119.9054	3130.6626	3131.2481	3170.5752	3188.3702	3199.2791	3217.832	3505.4909
C#CC1C2CC3(CC3)C12	C#C[C@H]1[C@H]2CC3(CC3)[C@@H]12	
InChI=1S/C9H10/c1-2-6-7-5-9(3-4-9)8(6)7/h1,6-8H,3-5H2	InChI=1S/C9H10/c1-2-6-7-5-9(3-4-9)8(6)7/h1,6-8H,3-5H2/t6-,7+,8-/m0/s1
