16
gdb 125702	7.32042	0.81014	0.73279	3.8866	83.95	-0.2077	-0.0215	0.1861	1507.2898	0.123996	-434.084638	-434.075651	-434.074707	-434.118849	31.754	
C	 0.2083769362	 1.4922134605	-0.0979926254	-0.492628
C	 0.0183321736	 0.0150554877	 0.0352697153	 0.412739
N	-0.264644685	-0.7024866668	-1.0292254714	-0.219969
O	-0.3772885414	-2.0242181165	-0.5724308206	-0.236355
C	-0.1560551089	-2.0541255665	 0.7650616253	 0.546441
C	 0.1008959027	-0.7865302399	 1.2055229174	-0.465727
N	-0.2104888352	-3.2311994031	 1.4579247338	-0.372674
C	-0.4840289217	-4.3200804724	 0.8295918461	 0.119515
N	-0.5155627775	-5.5110907513	 1.4668996403	-0.494431
H	 1.2103241792	 1.7894386065	 0.2289183488	 0.134002
H	 0.076021933	 1.7946095384	-1.138704199	 0.14482
H	-0.5125467434	 2.0374685116	 0.5201392773	 0.133781
H	 0.3152901193	-0.4844490766	 2.2163682076	 0.108689
H	-0.6877246496	-4.3730290451	-0.2426139267	 0.139405
H	-0.4160193411	-5.5277976492	 2.4692818531	 0.271109
H	-0.8599163202	-6.3321563473	 1.0038776483	 0.271285
57.2536	124.1064	137.0369	143.1597	179.4052	252.5851	306.2303	400.8707	416.4162	491.5042	607.6376	658.9338	667.7399	728.228	783.2181	802.3433	940.3549	986.123	1004.3956	1020.2843	1037.8154	1066.0369	1075.3684	1189.6247	1278.5842	1319.4777	1382.8411	1404.569	1454.37	1482.2047	1483.6752	1536.8346	1615.5553	1659.2975	1718.7819	3040.0438	3095.5137	3105.8065	3136.0552	3280.2915	3608.479	3748.8756
CC1=NOC(=C1)N=CN	Cc1noc(c1)N=CN	
InChI=1S/C5H7N3O/c1-4-2-5(7-3-6)9-8-4/h2-3H,1H3,(H2,6,7)	InChI=1S/C5H7N3O/c1-4-2-5(7-3-6)9-8-4/h2-3H,1H3,(H2,6,7)
