15
gdb 13154	3.94981	1.56732	1.14641	4.2084	70.34	-0.2426	-0.0234	0.2192	1001.7056	0.118138	-362.636922	-362.628801	-362.627857	-362.670734	28.023	
O	-0.0404150188	-0.0544735601	 0.2995686966	-0.365054
C	-0.0474149364	 1.1532768467	 0.1249577715	 0.250741
C	 1.1637646943	 1.9670457273	 0.1424813246	 0.233457
C	 2.1797141343	 2.6102901425	 0.1628361731	-0.426377
N	-1.176489413	 1.8633400339	-0.1027417349	-0.071252
C	-1.4831411179	 3.2765819033	-0.3403180655	-0.168505
C	-2.9847522425	 2.8752943281	-0.4495159726	-0.243235
C	-2.5596855683	 1.3993375762	-0.189773844	-0.16502
H	 3.0868149414	 3.1635285153	 0.1840504183	 0.208323
H	-1.2281618304	 3.9330578604	 0.498071765	 0.124
H	-1.0334741115	 3.6808997635	-1.2531179027	 0.123998
H	-3.6250833893	 3.3061866387	 0.3200818244	 0.121602
H	-3.4307379835	 3.0545748085	-1.4277449128	 0.121602
H	-2.7340703847	 0.697740791	-1.0117690263	 0.127859
H	-2.9286154637	 0.9495224648	 0.7375219654	 0.127861
31.0302	113.3273	118.2916	139.5183	236.6753	289.7739	469.1162	532.8519	659.9371	670.1222	675.3025	748.1371	769.9068	842.5288	878.9554	933.0446	954.8942	1052.8116	1138.5097	1141.6253	1198.1976	1199.7718	1226.9292	1271.8593	1298.922	1333.8207	1439.7379	1493.5285	1510.4528	1532.5497	1738.809	2223.393	3036.5472	3045.5273	3079.6385	3085.835	3096.8516	3151.7213	3496.3068
O=C(C#C)N1CCC1	O=C(C#C)N1CCC1	
InChI=1S/C6H7NO/c1-2-6(8)7-4-3-5-7/h1H,3-5H2	InChI=1S/C6H7NO/c1-2-6(8)7-4-3-5-7/h1H,3-5H2
