18
gdb 92863	2.90953	1.62406	1.21888	2.9063	71.94	-0.2497	0.0227	0.2723	1032.3941	0.150602	-439.104016	-439.096663	-439.095719	-439.135743	29.027	
O	 0.1944863763	 1.4437057897	 0.0136314369	-0.431813
C	 0.0713659384	 0.0324087462	-0.0191258692	 0.084441
C	 0.5138028682	-0.621342544	 1.3292862157	-0.197604
N	-0.6816650409	-0.6126653097	 2.206578794	-0.326825
C	-1.6653229989	-0.5258723926	 1.409645303	 0.42685
O	-2.9628722734	-0.3584535587	 1.7110745107	-0.253934
C	-3.6627604219	-0.0140095788	 0.4853093422	-0.08922
C	-2.580765966	 0.4039624747	-0.5395994264	-0.27239
C	-1.3974531106	-0.445649551	-0.0723126576	-0.121677
H	-0.0957323331	 1.7449455941	 0.882676012	 0.290591
H	 0.6650585254	-0.2991887128	-0.8741170843	 0.087482
H	 0.8735769179	-1.6480928626	 1.1777951487	 0.107291
H	 1.3295441937	-0.0538749265	 1.78855319	 0.113366
H	-4.2218621468	-0.8955144518	 0.1506490913	 0.118306
H	-4.3721895403	 0.7794320512	 0.7291498324	 0.127706
H	-2.9015961571	 0.2169151965	-1.5660934481	 0.113558
H	-2.3365792208	 1.4654131408	-0.4413755681	 0.125533
H	-1.4370601999	-1.4531678247	-0.5081064431	 0.098339
119.3023	166.9376	252.372	257.7962	369.5308	378.4119	470.5493	505.65	622.812	668.0738	703.0565	795.5589	809.4802	846.716	858.2597	937.4362	958.8292	980.0351	984.794	1022.3607	1048.8418	1116.7816	1128.2446	1181.904	1197.2306	1213.2743	1227.8392	1260.7788	1264.057	1307.1649	1311.623	1326.1765	1354.8698	1415.081	1433.5468	1492.5681	1498.3735	1521.4576	1749.4047	3017.6594	3020.0807	3041.0413	3070.0677	3078.9438	3092.0008	3110.5629	3126.5935	3792.717
OC1CN=C2OCCC12	O[C@H]1C[N][C]2OCC[C@@H]12	
InChI=1S/C6H9NO2/c8-5-3-7-6-4(5)1-2-9-6/h4-5,8H,1-3H2	InChI=1S/C6H9NO2/c8-5-3-7-6-4(5)1-2-9-6/h4-5,8H,1-3H2/t4-,5-/m0/s1
