20
gdb 81800	2.06386	1.77586	1.28494	2.2411	78.82	-0.247	0.0823	0.3292	1094.3716	0.169958	-403.093068	-403.084274	-403.08333	-403.126072	33.826	
C	-0.1297736721	 1.5488192213	-0.0359231227	-0.407251
C	 0.0125071307	 0.0314020263	 0.0007134643	-0.109152
C	 1.1376310627	-0.5557316417	-0.8779819664	-0.097765
N	 1.2789973712	-1.990350606	-0.6713742436	-0.373573
C	 1.8836413203	-1.0942317513	 0.3198889706	 0.274823
C	 3.341153235	-1.2239163646	 0.641748808	-0.508487
C	 0.7921368543	-0.5339812308	 1.2139308576	 0.386852
C	 0.8878529062	-0.0061909044	 2.5738247807	-0.266806
O	 0.219135449	-1.2474546918	 2.3029638241	-0.283259
H	 0.8327799059	 2.0417043955	 0.1380816326	 0.117387
H	-0.5052270341	 1.8806796607	-1.0097313428	 0.120251
H	-0.831709325	 1.8999051436	 0.7271566366	 0.122007
H	-0.9598790441	-0.4489337275	-0.1632078524	 0.08231
H	 1.5280997355	-0.1191221731	-1.7906848745	 0.095011
H	 0.4198659663	-2.4265692828	-0.3395028664	 0.234697
H	 3.8987294011	-1.5174320132	-0.251103542	 0.135966
H	 3.7511146543	-0.2811341868	 1.0189202303	 0.116174
H	 3.5031596775	-1.9930607124	 1.4058153639	 0.130069
H	 1.8229113804	-0.0931916554	 3.1264156801	 0.115517
H	 0.243465655	 0.8145708043	 2.8863369519	 0.115229
97.2733	190.0117	198.7306	217.7473	232.8112	240.5583	277.5587	381.7288	420.8349	505.6674	532.2037	587.99	659.8493	788.4361	818.1463	856.7764	876.9506	906.3772	961.86	976.0875	1021.2155	1054.4525	1075.3918	1091.9935	1111.5738	1122.5817	1126.2037	1163.8652	1180.3893	1193.3571	1238.4967	1260.6057	1299.6357	1357.4212	1392.1262	1407.2975	1428.2843	1450.1934	1484.4252	1494.3227	1497.1863	1499.6053	1535.5219	3030.7183	3031.2827	3032.0462	3079.2554	3092.0765	3098.5702	3102.9255	3122.4149	3163.4898	3176.5732	3459.8338
CC1C2NC2(C)C11CO1	C[C@H]1[C@@H]2N[C@]2(C)[C@]21CO2	
InChI=1S/C7H11NO/c1-4-5-6(2,8-5)7(4)3-9-7/h4-5,8H,3H2,1-2H3	InChI=1S/C7H11NO/c1-4-5-6(2,8-5)7(4)3-9-7/h4-5,8H,3H2,1-2H3/t4-,5-,6-,7+/m0/s1
