21
gdb 94800	2.73535	1.31717	1.13055	1.6205	77.42	-0.2546	0.065	0.3196	1173.4372	0.182129	-424.219481	-424.210324	-424.20938	-424.253469	34.903	
C	 0.4046437275	 1.7559063695	-0.0718718882	-0.398168
C	 0.0923538676	 0.2576884483	 0.0504730969	-0.083768
C	 0.6612174871	-0.5719501745	-1.1184904447	 0.125051
O	 0.4331454293	 0.080019672	-2.354695132	-0.442181
C	 2.1527535436	-0.7656627361	-0.7602020823	-0.254918
C	 2.1867039047	-0.8446289063	 0.7864750413	-0.294946
C	 0.7907022907	-0.3958713346	 1.2377632189	 0.441717
C	 0.4186441072	-0.161743369	 2.6340027325	-0.259784
O	 0.0253518084	-1.3672957111	 1.9720427048	-0.284878
H	 1.4818870816	 1.9507972939	-0.0917723922	 0.112813
H	-0.0206152986	 2.1584901616	-0.9933889757	 0.137289
H	-0.0155243094	 2.304927322	 0.7762331796	 0.109091
H	-0.9886620532	 0.1189252379	 0.1395884622	 0.084213
H	 0.1607217755	-1.5531740338	-1.107120884	 0.077094
H	 0.7737814184	-0.4817374076	-3.0573627761	 0.283146
H	 2.582012446	-1.6510104225	-1.2382715172	 0.093739
H	 2.7100227563	 0.1025529853	-1.1254654576	 0.109405
H	 2.3634038017	-1.8582670331	 1.1550063305	 0.119602
H	 2.9701571272	-0.205340618	 1.2039562798	 0.108758
H	 1.1652578576	-0.2810817634	 3.4193966336	 0.107837
H	-0.3919822593	 0.5261231894	 2.8748178001	 0.108889
45.4609	129.2206	196.2769	219.3257	247.522	260.2359	288.3966	338.8903	421.6622	453.8047	508.2056	570.0278	604.1918	758.1207	782.2222	818.8287	858.6132	886.3801	960.5474	968.1318	994.4976	1013.6943	1040.3302	1075.6294	1105.583	1129.3657	1135.1425	1161.5417	1193.7301	1224.1388	1239.3741	1260.7449	1269.1098	1282.8772	1313.1843	1357.0776	1373.639	1400.2115	1426.9848	1437.6944	1478.6446	1493.0524	1501.2514	1506.6216	1534.8537	2973.0146	3041.9267	3049.454	3060.4629	3071.3988	3071.5183	3087.0886	3104.9969	3110.1507	3132.2163	3153.5061	3824.7103
CC1C(O)CCC11CO1	C[C@H]1[C@@H](O)CC[C@]21CO2	
InChI=1S/C7H12O2/c1-5-6(8)2-3-7(5)4-9-7/h5-6,8H,2-4H2,1H3	InChI=1S/C7H12O2/c1-5-6(8)2-3-7(5)4-9-7/h5-6,8H,2-4H2,1H3/t5-,6-,7+/m0/s1
