21
gdb 113441	3.5126	0.92112	0.83975	1.6747	79.76	-0.2532	0.0672	0.3204	1470.5063	0.180418	-424.199316	-424.189723	-424.188779	-424.23435	35.772	
C	-0.0936446516	 1.3665369754	-0.0199097399	-0.375106
C	 0.4041956843	-0.0705103312	-0.2177564512	-0.20691
C	 1.0874407143	-0.6109991895	 1.0131693693	-0.030364
O	 0.2343788117	-0.9684652869	 2.1213132102	-0.299629
C	 0.9592653201	-1.9961459158	 1.4704953423	 0.451524
C	 0.3317970792	-3.2054883247	 0.7682072625	-0.315628
C	 1.5889481277	-4.0225402361	 1.166451241	 0.121049
O	 2.4383541147	-4.1307036099	 0.0402293021	-0.435871
C	 1.9966716413	-2.8879797543	 2.1596483176	-0.350189
H	 0.735388942	 2.0457620726	 0.2072314984	 0.114085
H	-0.5938863249	 1.7385493248	-0.9188367357	 0.11263
H	-0.803296089	 1.4145638765	 0.8113211519	 0.13363
H	-0.4357064416	-0.7242107988	-0.4759901432	 0.104347
H	 1.112311297	-0.1131409451	-1.0557147917	 0.102687
H	 1.9845547736	-0.0666655285	 1.3202875571	 0.082923
H	-0.5740579907	-3.5466625948	 1.2763726385	 0.112226
H	 0.1486618843	-3.1396890457	-0.3061700444	 0.117944
H	 1.4003055462	-5.003718311	 1.6189848789	 0.06741
H	 3.2859113273	-4.4752115815	 0.3398352187	 0.282639
H	 3.0429300628	-2.5713161943	 2.12936947	 0.099512
H	 1.7129510713	-3.1097788412	 3.1930895175	 0.111093
43.4083	76.8215	138.6323	166.8354	242.9906	274.9798	308.7295	344.8527	384.6414	419.1024	458.8945	497.1391	594.7481	758.1231	802.9659	828.005	840.9545	849.5373	931.173	936.5417	951.0622	1004.9713	1016.9464	1057.448	1075.0781	1114.8376	1143.4998	1157.253	1172.8282	1198.4311	1218.4713	1235.3908	1268.4089	1291.6857	1324.6719	1338.6322	1372.8751	1407.0758	1415.3585	1448.6678	1468.2606	1473.7783	1497.3686	1505.3035	1520.6372	3019.675	3026.721	3035.7579	3051.2142	3065.518	3068.2747	3080.7527	3105.1805	3108.3497	3116.289	3126.835	3811.6301
CCC1OC11CC(O)C1	CC[C@H]1O[C@]21C[C@@H](O)C2	
InChI=1S/C7H12O2/c1-2-6-7(9-6)3-5(8)4-7/h5-6,8H,2-4H2,1H3	InChI=1S/C7H12O2/c1-2-6-7(9-6)3-5(8)4-7/h5-6,8H,2-4H2,1H3/t5-,6-,7-/m1/s1
