23
gdb 113718	3.19426	0.8491	0.74919	0.8144	92.71	-0.2537	0.0573	0.311	1628.2843	0.203262	-351.117034	-351.106324	-351.10538	-351.153127	39.599	
C	-0.455002769	 1.5606217068	-0.74767548	-0.379656
C	-0.5751265817	 0.0317777527	-0.7177215132	-0.193983
C	 0.5084457847	-0.6451427319	-1.5343478968	 0.000306
C	 1.8726385504	-0.9187293914	-0.9422456264	-0.301967
C	 0.9737905454	-2.0688772749	-1.3160240666	 0.004638
C	 0.3752546874	-2.986727141	-0.2528139198	-0.186977
C	-0.9081454035	-3.6768853052	-0.7608949006	-0.391949
C	 1.3609434153	-3.9788330657	 0.1825614706	 0.334714
C	 2.1659889757	-4.8060310875	 0.5193842687	-0.467219
H	 0.5085532299	 1.8858443469	-0.341988625	 0.119836
H	-0.5274143947	 1.9410891849	-1.7725034527	 0.114052
H	-1.247798031	 2.0334247249	-0.1596496818	 0.109951
H	-0.5337209639	-0.3099394356	 0.3228811856	 0.096024
H	-1.5630072099	-0.261339626	-1.0973691948	 0.097207
H	 0.5111086874	-0.3317447174	-2.5767683166	 0.079585
H	 2.7617306338	-0.7321965749	-1.534302547	 0.109408
H	 1.9994281961	-0.7182900435	 0.1181242249	 0.110256
H	 1.2501760202	-2.6092439788	-2.2182267481	 0.087488
H	 0.1095615606	-2.3804232225	 0.6225099761	 0.100998
H	-0.6912723182	-4.2863214718	-1.6434383524	 0.124483
H	-1.3302186053	-4.33158536	 0.0061397952	 0.122695
H	-1.6570815426	-2.9284811613	-1.0347996833	 0.119283
H	 2.8797965529	-5.5292662168	 0.826905484	 0.190829
49.1984	74.918	104.6726	150.3268	203.5848	219.3287	240.2044	242.9022	299.4056	351.9561	431.4436	469.2993	546.8005	574.3894	624.1742	628.9249	759.6771	786.171	805.0762	853.7326	876.2512	946.4916	963.4278	970.3712	1021.3417	1045.577	1067.9344	1087.0304	1108.6408	1121.8678	1146.9204	1192.8932	1199.3269	1248.4086	1287.4775	1297.6954	1323.554	1343.761	1395.1004	1405.5243	1411.5379	1433.0482	1481.6995	1491.8652	1495.2843	1498.6255	1499.4117	1507.0675	2232.7691	3015.7418	3023.8136	3032.0318	3042.2054	3056.6551	3099.8354	3105.9	3116.4445	3118.7101	3121.8051	3122.831	3135.7087	3207.5412	3505.2855
CCC1CC1C(C)C#C	CC[C@H]1C[C@H]1[C@@H](C)C#C	
InChI=1S/C9H14/c1-4-7(3)9-6-8(9)5-2/h1,7-9H,5-6H2,2-3H3	InChI=1S/C9H14/c1-4-7(3)9-6-8(9)5-2/h1,7-9H,5-6H2,2-3H3/t7-,8-,9-/m0/s1
