21
gdb 42104	3.49813	1.2915	1.22382	0.7419	77.32	-0.2504	0.0818	0.3322	1133.8545	0.185336	-424.256303	-424.248196	-424.247252	-424.290035	30.983	
C	 0.0652346553	 1.5699880808	 0.204676769	-0.216616
C	 1.5987648638	 1.6786685589	 0.1366220186	-0.090299
O	 1.9840094285	 0.7395350689	-0.8626170546	-0.285954
C	 1.1846322944	-0.4188591928	-0.6693296592	 0.52033
C	-0.196505264	 0.1073932999	-0.2280288279	-0.305761
C	 1.3022983033	-1.2936569382	-1.9342823494	-0.305753
C	 2.3028161509	-2.4079956879	-1.5442269555	-0.21662
C	 2.7933004155	-1.9583419862	-0.1566368726	-0.090297
O	 1.70821461	-1.2123030637	 0.3863912104	-0.285954
H	-0.3210444079	 1.7950892173	 1.2013476017	 0.103884
H	-0.3965579045	 2.2695353958	-0.4972462485	 0.106042
H	 1.9630133407	 2.6618871331	-0.1706140415	 0.101271
H	 2.0551901831	 1.4177355681	 1.1010071542	 0.101871
H	-0.575524963	-0.5160175042	 0.5834108443	 0.119366
H	-0.9073159469	 0.0557484264	-1.0553722803	 0.106028
H	 0.3284580514	-1.7068262262	-2.205101431	 0.106028
H	 1.6518830568	-0.6783278851	-2.7648793251	 0.119364
H	 1.7968674188	-3.3745879474	-1.4733113439	 0.106042
H	 3.1228756251	-2.5133144939	-2.2581210946	 0.103886
H	 3.0088913725	-2.7816223959	 0.528578095	 0.101271
H	 3.6867310462	-1.3250064879	-0.240987859	 0.101871
49.1263	50.2239	172.7187	234.7261	268.5611	407.0059	425.896	548.8739	630.5195	650.7573	749.9803	802.6848	810.2502	816.2677	858.3624	893.8659	926.185	930.5763	953.3123	999.1209	1012.5614	1030.2586	1055.5589	1080.0834	1126.1468	1163.2247	1165.8815	1206.9402	1229.9854	1243.9896	1257.7748	1261.5093	1266.6089	1306.9478	1315.9278	1333.9457	1353.1345	1390.049	1392.2164	1479.5667	1481.7836	1499.689	1500.7753	1516.3357	1520.3649	3013.8225	3014.5011	3061.0837	3061.9413	3076.2236	3080.6528	3096.6708	3097.4946	3108.6874	3109.2315	3130.2207	3132.1716
C1COC2(C1)CCCO2	C1COC2(C1)CCCO2	
InChI=1S/C7H12O2/c1-3-7(8-5-1)4-2-6-9-7/h1-6H2	InChI=1S/C7H12O2/c1-3-7(8-5-1)4-2-6-9-7/h1-6H2
