17
gdb 49736	2.81221	1.31006	1.26905	4.342	69.11	-0.2393	-0.0187	0.2206	1067.9635	0.136972	-458.948736	-458.941128	-458.940184	-458.981153	28.686	
O	 0.1379959614	-0.1153943915	 0.4398118981	-0.275012
C	 0.0631527142	 1.0278627934	 0.0539566672	 0.155688
C	 1.2462723888	 1.9231907798	-0.0293494571	-0.157616
C	 1.4426879554	 2.9217074873	-1.1773746333	-0.112866
C	 0.4159717946	 3.1387230233	-2.2752440172	-0.116861
O	-0.8661901308	 3.4804548829	-1.7571104835	-0.226779
C	-0.7632976292	 4.4593274623	-0.7614998374	 0.009875
O	-0.1646804379	 3.9552369218	 0.4119276486	-0.238875
C	 1.1129994116	 3.4298347099	 0.1893248488	 0.07005
H	-0.898882315	 1.471344716	-0.2625378759	 0.102082
H	 2.1521943768	 1.4625823697	 0.3504645143	 0.110012
H	 2.4705482668	 3.0262827454	-1.5099635537	 0.112321
H	 0.7741948231	 3.9501540561	-2.928764837	 0.107214
H	 0.2727707475	 2.2466052243	-2.8906532077	 0.130776
H	-0.1902248231	 5.3249053064	-1.1385233045	 0.087811
H	-1.7759425176	 4.7579610599	-0.4877623722	 0.128738
H	 1.8773735533	 3.908038013	 0.7961016225	 0.113443
91.2381	137.2604	195.9317	215.3336	345.0712	408.6127	429.2572	508.9967	549.4205	579.066	734.1319	787.1528	831.3479	881.8494	945.897	960.3905	1000.9073	1024.8205	1044.8577	1066.1549	1097.0478	1130.2188	1136.4069	1181.6306	1205.8895	1232.1715	1274.9954	1327.2977	1333.9908	1355.2059	1378.3467	1429.4244	1441.6179	1452.5271	1499.7644	1511.8666	1803.6047	2948.158	2969.061	2981.9168	3091.2153	3129.0514	3138.5442	3160.0026	3175.8951
O=CC1C2COCOC12	O=C[C@H]1[C@H]2COCO[C@@H]12	
InChI=1S/C6H8O3/c7-1-4-5-2-8-3-9-6(4)5/h1,4-6H,2-3H2	InChI=1S/C6H8O3/c7-1-4-5-2-8-3-9-6(4)5/h1,4-6H,2-3H2/t4-,5+,6-/m0/s1
