20
gdb 89248	2.50919	1.80242	1.34642	3.2527	77.7	-0.2262	0.0665	0.2928	1020.1619	0.171936	-403.083047	-403.075276	-403.074332	-403.114663	32.146	
C	-0.008976507	 1.5404644425	-0.0114065839	-0.494724
C	-0.0067255821	 0.0287629625	 0.0255467777	 0.360151
C	-1.3350535773	-0.7321043416	 0.3072115948	-0.329849
C	-0.640880526	-1.5324829737	 1.4658143936	 0.143182
O	-0.6471479017	-2.9293134615	 1.4065532719	-0.439953
C	 0.703180004	-0.774563096	 1.1728801072	-0.115972
C	 1.6534126053	-1.3825286565	 0.1229375358	-0.052794
N	 0.8218942064	-2.1203355259	-0.8680222954	-0.360596
C	 0.967816069	-0.6473513373	-0.9777164295	-0.110057
H	 1.0111857189	 1.9417307206	-0.0298375291	 0.114046
H	-0.5288516792	 1.9139665264	-0.9023999393	 0.117258
H	-0.5155479676	 1.9543902932	 0.8668555601	 0.117647
H	-2.1443256048	-0.078633898	 0.6457622069	 0.092326
H	-1.7007270249	-1.3608463784	-0.5068939313	 0.103901
H	-1.0419369613	-1.2617907372	 2.4468031467	 0.080975
H	-0.3054244702	-3.139228608	 0.5237751895	 0.290748
H	 1.2003403586	-0.2631315683	 1.9982808352	 0.062173
H	 2.6952840034	-1.6494667914	 0.2510599679	 0.096369
H	 1.4565882138	-2.5393590112	-1.5457111345	 0.235295
H	 1.3617124926	-0.2156983704	-1.8914593944	 0.089876
161.4594	228.8069	237.2274	255.3269	287.2447	343.5649	428.8333	484.4489	542.6646	631.4699	650.4742	711.7985	775.8057	794.6568	816.982	833.0049	866.0215	900.2353	933.3329	940.9694	961.3639	1010.5508	1015.3724	1061.5164	1079.5258	1106.6524	1131.9718	1141.717	1170.2233	1203.5225	1215.1165	1241.0283	1260.0538	1282.7034	1313.2563	1327.2848	1342.5701	1379.5224	1411.0663	1464.3518	1477.0548	1490.871	1494.4046	3017.1913	3054.1609	3065.0728	3078.1884	3092.9098	3102.4064	3121.6797	3167.5958	3188.4279	3484.0664	3693.441
CC12CC(O)C1C1NC21	C[C@]12C[C@@H](O)[C@H]1[C@H]1N[C@@H]21	
InChI=1S/C7H11NO/c1-7-2-3(9)4(7)5-6(7)8-5/h3-6,8-9H,2H2,1H3	InChI=1S/C7H11NO/c1-7-2-3(9)4(7)5-6(7)8-5/h3-6,8-9H,2H2,1H3/t3-,4+,5-,6-,7+/m1/s1
