22
gdb 107791	2.43403	1.58876	1.25565	1.6934	84.59	-0.2375	0.0684	0.3059	1128.4533	0.194581	-367.169128	-367.160404	-367.159459	-367.202268	34.061	
C	-0.1626286559	 1.5149324952	 0.0690127387	-0.39002
C	 0.0197828065	-0.0076853819	 0.0170324338	-0.292168
C	 0.71930187	-0.4852462415	-1.2275516797	 0.331791
C	 0.0601032687	-0.3873112642	-2.6245454261	-0.288368
C	 0.8179222326	-1.6688665093	-2.9043855364	-0.043432
C	 2.1344246614	-1.6217566198	-2.1960432667	-0.060637
C	 2.2514968776	-0.3034108418	-1.4529829014	-0.006847
C	 2.851434314	 0.9277825979	-2.1211252903	-0.432963
N	 0.8997639099	-2.0323269737	-1.4474851	-0.199402
H	 0.8000442834	 2.0358491394	 0.0763485838	 0.122117
H	-0.7303801362	 1.8779322575	-0.7942978206	 0.120648
H	-0.7055313888	 1.8101555799	 0.9716612068	 0.117365
H	 0.5844502149	-0.3491099909	 0.8936062547	 0.102944
H	-0.9589045057	-0.5008326151	 0.0724374916	 0.105009
H	-1.0144140105	-0.5809224541	-2.5542008399	 0.106296
H	 0.2317796202	 0.4988944139	-3.2432085277	 0.094457
H	 0.6004717681	-2.4226755287	-3.6531995998	 0.091048
H	 2.9200033339	-2.3400167758	-2.4069676917	 0.086674
H	 2.749564435	-0.4919872654	-0.4940369206	 0.079322
H	 2.3767153941	 1.147596551	-3.0815491523	 0.11929
H	 2.7569627945	 1.8151129098	-1.4863242345	 0.118937
H	 3.9195332222	 0.7743131478	-2.3116496515	 0.11794
76.8039	145.1148	189.2947	213.0942	233.5707	277.571	329.7584	356.0249	473.2033	554.2236	639.8044	693.2257	760.9292	789.5073	803.3008	822.5634	837.4815	911.842	925.904	970.5251	1001.2982	1013.1188	1034.3929	1035.9302	1070.3597	1090.1415	1107.1584	1108.9174	1123.6793	1151.2704	1210.5464	1231.0564	1244.431	1292.8765	1308.1857	1345.5855	1369.2692	1379.5558	1397.1421	1407.8408	1415.8791	1484.378	1488.1851	1494.7261	1500.7144	1507.4113	1508.7535	3023.3677	3031.8692	3034.5307	3036.9568	3045.3439	3056.5526	3093.7395	3095.1978	3104.7195	3108.9401	3112.0085	3163.8526	3177.7211
CCC12CC3C(C1C)N23	CC[C@@]12C[C@H]3[C@@H]([C@H]1C)N23	
InChI=1S/C8H13N/c1-3-8-4-6-7(5(8)2)9(6)8/h5-7H,3-4H2,1-2H3	InChI=1S/C8H13N/c1-3-8-4-6-7(5(8)2)9(6)8/h5-7H,3-4H2,1-2H3/t5-,6+,7-,8-,9?/m1/s1
