20
gdb 72555	2.34063	1.89383	1.47058	3.6653	77.71	-0.2317	0.0341	0.2657	991.828	0.173936	-403.212485	-403.204773	-403.203828	-403.244148	31.394	
C	-0.0301316506	 1.5109125136	 0.0166936341	-0.48154
C	 0.0226013687	-0.0018484472	 0.0437740953	 0.18582
C	 0.7125906276	-0.6847572377	-1.1882506876	-0.242643
C	 0.9482416442	-2.1541471865	-0.7196026051	-0.217341
C	 0.3449774797	-2.1308598909	 0.7095005268	-0.012421
C	 0.7448466442	-0.7276269457	 1.201579956	-0.24696
N	-1.1081954581	-1.9419676114	 0.6071023039	-0.30627
C	-1.3592789134	-0.6836246529	 0.095348129	 0.406242
O	-2.423147599	-0.2496417813	-0.2858288607	-0.397299
H	 0.9688471459	 1.9400005226	-0.1133991631	 0.106306
H	-0.6661483299	 1.8523604221	-0.8051881018	 0.136759
H	-0.4548820071	 1.9077393431	 0.9440948609	 0.121153
H	 0.0951783316	-0.6128042971	-2.0870916037	 0.116966
H	 1.6587014503	-0.1761806251	-1.3973552708	 0.101623
H	 0.4470705061	-2.8905602841	-1.3530090675	 0.100216
H	 2.0122585266	-2.4080546065	-0.693757581	 0.102798
H	 0.6012101316	-2.9761350944	 1.3484290323	 0.076806
H	 1.8267448171	-0.5654115002	 1.2016900933	 0.097937
H	 0.3343337931	-0.4931148394	 2.1868120111	 0.107419
H	-1.7433465086	-2.699060831	 0.4005232584	 0.244431
147.689	189.293	223.9416	266.4564	300.9182	407.2196	453.344	502.2448	505.7924	600.4285	624.4591	716.5847	756.8419	812.2441	824.4659	857.711	877.6066	899.8145	955.5052	960.2524	992.2024	1020.3024	1035.3242	1095.1743	1136.5498	1152.0475	1180.9	1205.5431	1226.5867	1259.3122	1263.7427	1285.3453	1308.214	1349.663	1365.507	1405.5264	1413.5285	1483.7932	1486.86	1490.7924	1496.2112	1511.2177	1834.6512	3035.9039	3049.5934	3055.4998	3061.3859	3092.5193	3102.9569	3109.9459	3113.5951	3114.603	3116.751	3614.6951
CC12CCC(C1)NC2=O	C[C@@]12CC[C@@H](C1)NC2=O	
InChI=1S/C7H11NO/c1-7-3-2-5(4-7)8-6(7)9/h5H,2-4H2,1H3,(H,8,9)	InChI=1S/C7H11NO/c1-7-3-2-5(4-7)8-6(7)9/h5H,2-4H2,1H3,(H,8,9)/t5-,7+/m0/s1
