21
gdb 100130	3.5664	0.78111	0.75123	0.6911	81.58	-0.2504	0.0387	0.2892	1595.8511	0.177453	-424.176748	-424.165475	-424.16453	-424.213585	40.537	
C	-0.0408791656	 1.5990090544	 0.1062904751	-0.428498
C	 0.0544886223	 0.0676457676	 0.0888430681	 0.384891
C	 0.7335926711	-0.4679254759	 1.3562869181	-0.428413
C	-1.3490423057	-0.5440882944	-0.0532003114	-0.107962
O	-2.12928879	-0.1586911437	 1.0683157484	-0.422027
O	 0.6968205837	-0.413013614	-1.1036502358	-0.29934
C	 2.0435798896	-0.0305680702	-1.3067032693	-0.22844
C	 2.5203545102	-0.6080392685	-2.5584844837	 0.290974
C	 2.9411793597	-1.0698049642	-3.5840210779	-0.420622
H	 0.9255990217	 2.0702241815	 0.307407287	 0.110508
H	-0.4143246494	 1.9650923078	-0.8551745012	 0.118369
H	-0.7372881311	 1.9091878144	 0.888572169	 0.140108
H	 0.0864025601	-0.2872216567	 2.2174778403	 0.140076
H	 0.9005623072	-1.5460214193	 1.2684340626	 0.118347
H	 1.6942172463	 0.0194145766	 1.5467695296	 0.110492
H	-1.78779013	-0.1876853004	-0.9961431377	 0.095312
H	-1.2449356381	-1.6364562853	-0.1206022899	 0.095331
H	-3.0035703272	-0.545499802	 0.9726129859	 0.292741
H	 2.1476630054	 1.0641294497	-1.3539895469	 0.120152
H	 2.687813351	-0.3760652789	-0.483870251	 0.120142
H	 3.3076693687	-1.4808071083	-4.4918817992	 0.19786
30.7934	92.691	108.9759	124.1096	208.6576	221.1472	239.5237	260.9135	292.5778	331.0129	338.9404	366.0301	387.2792	453.2252	492.6816	604.8758	605.0111	670.8869	756.715	892.2121	912.1747	964.2505	966.7116	996.3335	1028.5943	1045.1534	1073.0217	1111.4423	1175.4182	1195.6778	1242.0366	1258.2513	1293.1644	1295.7285	1392.1682	1397.1552	1418.0515	1454.7009	1483.5969	1491.7555	1498.8867	1502.6183	1512.4088	1526.6334	2247.1427	2981.2913	2991.7887	3003.7091	3030.6628	3040.7882	3045.6356	3109.0603	3112.923	3130.313	3134.4954	3507.296	3843.7587
CC(C)(CO)OCC#C	CC(C)(CO)OCC#C	
InChI=1S/C7H12O2/c1-4-5-9-7(2,3)6-8/h1,8H,5-6H2,2-3H3	InChI=1S/C7H12O2/c1-4-5-9-7(2,3)6-8/h1,8H,5-6H2,2-3H3
