19
gdb 37804	2.48371	2.13884	1.66568	1.9318	72.86	-0.2408	0.0762	0.3171	896.3169	0.163423	-423.026019	-423.019486	-423.018541	-423.056594	27.592	
C	-0.0103602806	 1.5257369626	 0.0265322624	-0.257443
C	 1.4424835293	 1.9554627615	-0.0531785827	-0.108149
C	 2.4131885406	 1.2836209957	 0.9093624029	-0.066086
C	 1.9613994361	 0.6007774128	 2.1956408709	-0.251077
C	 1.1870174854	-0.7083790469	 2.0087970914	-0.069754
O	-0.0375618278	-0.5841017807	 1.2996936416	-0.263711
C	 0.0594769626	-0.0207570662	 0.0064798818	 0.173298
O	 1.2779730186	-0.3520698797	-0.6322913881	-0.248046
C	 2.1838274658	 0.7190312211	-0.4754880774	 0.078658
H	-0.5418975742	 1.8616521038	 0.9200118052	 0.114986
H	-0.553417117	 1.8887705119	-0.8522240282	 0.107285
H	 1.6805596362	 2.936020967	-0.4480680501	 0.087713
H	 3.3547296433	 1.8187278849	 1.0043994561	 0.086997
H	 2.849363674	 0.35870279	 2.7922653175	 0.103025
H	 1.3643594063	 1.2974962515	 2.7980275394	 0.106451
H	 1.8328142449	-1.4446264549	 1.5147342413	 0.108444
H	 0.9036794767	-1.1090711422	 2.9864051499	 0.103256
H	-0.7526261515	-0.478205413	-0.5649757988	 0.094579
H	 2.9726643313	 0.6877382809	-1.2171451251	 0.099575
163.8076	259.9974	303.2204	404.4736	438.4365	455.1888	571.4948	667.6774	696.8319	730.1083	767.4804	798.4672	818.9772	860.4162	914.102	929.8842	985.1018	997.1776	1017.5862	1037.3592	1056.5605	1075.5028	1101.9529	1112.9206	1117.5204	1151.48	1194.4287	1209.0251	1256.3491	1282.1236	1299.1048	1311.1296	1349.9787	1366.6521	1374.8422	1397.1811	1421.9825	1432.3028	1477.147	1491.1042	1498.8217	3019.3944	3027.8421	3053.0898	3060.6892	3078.8953	3089.5479	3109.4516	3135.8218	3173.8421	3189.9392
C1C2C3CCOC1OC23	C1[C@H]2[C@H]3CCO[C@@H]1O[C@@H]23	
InChI=1S/C7H10O2/c1-2-8-6-3-5-4(1)7(5)9-6/h4-7H,1-3H2	InChI=1S/C7H10O2/c1-2-8-6-3-5-4(1)7(5)9-6/h4-7H,1-3H2/t4-,5+,6-,7-/m1/s1
