17
gdb 70506	2.70023	1.57999	1.12403	3.8049	76.13	-0.2516	-0.064	0.1876	1081.1148	0.13476	-421.837074	-421.82896	-421.828016	-421.869668	30.61	
C	-0.139903666	 1.5450574373	 0.0747039832	-0.490086
C	 0.0911954339	 0.0626386428	 0.0102645203	 0.286266
O	-0.6974783736	-0.7583422745	 0.907908976	-0.291542
C	 0.7225135725	-0.7634768704	 1.0615014696	-0.017779
C	 1.4069859478	-1.960826146	 0.4125645126	-0.298005
C	 1.0556528593	-1.7955285178	-1.0446203758	-0.154657
C	 0.357881393	-0.6707140305	-1.2817021558	 0.214845
C	-0.0950299475	-0.2682279084	-2.615347356	 0.071795
O	-0.728612992	 0.7332076636	-2.8669078523	-0.278904
H	 0.6986236129	 2.0861400099	-0.3753524212	 0.124724
H	-1.040617642	 1.8179742385	-0.4785678834	 0.1563
H	-0.2466851239	 1.8590940379	 1.11598602	 0.122897
H	 1.0960024385	-0.3492245196	 1.9945699131	 0.098229
H	 2.4937655994	-1.9428356292	 0.5673358638	 0.125803
H	 1.0448569226	-2.9139301877	 0.8171180528	 0.138264
H	 1.3196836377	-2.5265256639	-1.8025486001	 0.118792
H	 0.1990083475	-0.977097972	-3.4222203667	 0.073056
92.062	171.1639	197.4413	220.6743	270.4034	302.9851	353.7497	436.2321	478.1267	594.3691	642.5164	698.6252	764.0595	810.0986	815.9811	873.1909	923.9276	955.7037	992.2573	1035.623	1041.5855	1067.466	1112.3964	1168.5319	1184.4325	1229.4234	1295.0268	1315.1587	1367.6013	1409.1045	1424.1127	1438.7795	1447.854	1478.4624	1492.1327	1659.9308	1785.4012	2874.0425	3028.2502	3048.4358	3063.8968	3117.7352	3140.3496	3146.5071	3187.1433
CC12OC1CC=C2C=O	C[C@]12O[C@H]1CC=C2C=O	
InChI=1S/C7H8O2/c1-7-5(4-8)2-3-6(7)9-7/h2,4,6H,3H2,1H3	InChI=1S/C7H8O2/c1-7-5(4-8)2-3-6(7)9-7/h2,4,6H,3H2,1H3/t6-,7+/m0/s1
