19
gdb 65171	2.43833	1.4003	1.19165	2.1661	81.39	-0.2394	0.0502	0.2895	1140.4472	0.156741	-385.826203	-385.817036	-385.816092	-385.859962	34.908	
C	 0.1531458673	 1.1525842272	-1.0677256295	-0.465325
C	 0.013842152	-0.0085795914	-0.108459172	 0.395646
C	 1.1542313436	-0.9074140784	 0.1376256817	-0.222215
O	 0.7891421527	 0.0942553202	 1.0913240071	-0.262814
C	-1.3806324738	-0.5496981239	 0.0593254499	-0.077983
C	-1.8214983688	-1.1485092758	 1.3585285106	-0.309445
C	-2.4166009727	 0.1797573067	 0.9129244222	-0.203564
C	-2.1039082739	 1.3965539267	 1.6034715236	 0.348313
C	-1.8740069335	 2.4315342182	 2.1720326021	-0.470764
H	 1.1975775104	 1.4636241007	-1.148767799	 0.123466
H	-0.2073669691	 0.8756648388	-2.0645855398	 0.115596
H	-0.4374049143	 2.003065339	-0.7150434836	 0.144303
H	 0.9730064149	-1.9348252055	 0.450256444	 0.110247
H	 2.097535985	-0.7357125569	-0.3793172539	 0.11101
H	-1.7828200498	-0.9871647642	-0.8511442823	 0.095182
H	-2.4693741059	-2.0174704587	 1.3474651769	 0.114977
H	-1.1095237741	-1.1007298275	 2.1736463358	 0.146895
H	-3.4335665728	 0.1329714981	 0.533105431	 0.111839
H	-1.6556798972	 3.3352189566	 2.6843835851	 0.194635
70.5025	101.3616	177.5177	204.5993	231.7227	261.0241	344.1668	374.5411	422.3687	488.2838	542.8492	582.9743	613.8739	648.2819	708.1518	776.6968	814.9263	847.7799	876.2876	921.7218	947.9284	1001.0107	1033.8999	1058.1034	1085.208	1115.135	1131.2447	1136.0431	1150.6407	1170.0546	1207.5799	1250.7201	1379.1923	1381.3117	1413.0706	1415.788	1477.2249	1483.9166	1499.9752	1525.9609	2236.3807	3038.3272	3081.049	3107.4891	3126.6397	3134.9734	3141.212	3146.7204	3168.5634	3240.5723	3505.9283
CC1(CO1)C1CC1C#C	C[C@]1(CO1)[C@H]1C[C@H]1C#C	
InChI=1S/C8H10O/c1-3-6-4-7(6)8(2)5-9-8/h1,6-7H,4-5H2,2H3	InChI=1S/C8H10O/c1-3-6-4-7(6)8(2)5-9-8/h1,6-7H,4-5H2,2H3/t6-,7+,8+/m1/s1
