21
gdb 80479	2.07942	1.61609	1.48379	2.9324	77.16	-0.2441	0.0486	0.2926	1060.6444	0.183101	-424.21813	-424.208971	-424.208026	-424.251938	35.05	
C	 0.2168874513	 1.7375929231	-0.1770830048	-0.443187
C	 0.1448604725	 0.2325288523	-0.0231674115	 0.005128
C	 1.2565971148	-0.7494728916	-0.3187319554	-0.071691
C	 2.7077363116	-0.2748974658	-0.3579656883	-0.244939
C	 3.0403979177	 0.3204226107	 1.033833231	 0.016939
O	 3.1401590639	 1.7485078493	 1.0332000705	-0.415904
C	 1.8594897602	-0.0812815636	 1.9857001525	 0.139296
O	 1.5090137971	 0.9461553832	 2.886691546	-0.445945
C	 0.7324932042	-0.5960327675	 1.0967775857	-0.087085
H	 1.2030575942	 2.1454083102	 0.0425578587	 0.142998
H	-0.0416029308	 2.0218703861	-1.2040813475	 0.104725
H	-0.5039547399	 2.2232226821	 0.4897457356	 0.118488
H	-0.8264680762	-0.1559817522	-0.3254880006	 0.080756
H	 1.0144424257	-1.6254952682	-0.9115337206	 0.076631
H	 3.3591550325	-1.1316333986	-0.5625773384	 0.099697
H	 2.9044340995	 0.4686298927	-1.1385599725	 0.102816
H	 3.9809476804	-0.0878126951	 1.4198880133	 0.081545
H	 4.0422511498	 1.9976603245	 0.8190204685	 0.295918
H	 2.1983482742	-0.9350696215	 2.5888776068	 0.07486
H	 1.9049858233	 1.7550731674	 2.5360692931	 0.290902
H	 0.0917065438	-1.3520286074	 1.5385439581	 0.078051
65.2108	115.0822	138.0911	200.255	229.836	317.097	331.1919	367.5932	414.414	456.4256	538.9982	572.201	650.0644	733.3226	740.564	781.7233	810.7329	892.9238	911.7993	966.0767	1004.6449	1033.6378	1038.8067	1082.2679	1095.8579	1110.7526	1119.0415	1141.25	1144.7166	1199.2411	1224.8832	1252.8464	1267.4152	1299.5857	1329.2145	1356.7461	1367.8089	1377.4856	1423.3478	1426.9775	1439.7823	1455.4655	1480.9366	1506.4413	1514.918	2997.17	3029.2368	3030.3952	3042.6089	3074.2164	3082.7317	3109.3632	3150.2303	3157.7478	3162.7757	3750.8681	3856.8997
CC1C2CC(O)C(O)C12	C[C@H]1[C@H]2C[C@@H](O)[C@@H](O)[C@@H]12	
InChI=1S/C7H12O2/c1-3-4-2-5(8)7(9)6(3)4/h3-9H,2H2,1H3	InChI=1S/C7H12O2/c1-3-4-2-5(8)7(9)6(3)4/h3-9H,2H2,1H3/t3-,4+,5+,6-,7+/m0/s1
