23
gdb 123268	6.32457	0.41431	0.39983	1.8983	80.64	-0.2603	0.0761	0.3364	2685.1889	0.20351	-462.544461	-462.532948	-462.532004	-462.583121	39.345	
O	-0.0412297686	 1.3581310735	 0.0971590066	-0.421326
C	 0.0170380048	-0.0580391833	 0.0244861064	-0.073707
C	-1.4109141687	-0.5866443738	 0.0557955441	-0.167958
C	-1.4785463288	-2.1139663557	-0.0185143115	-0.204843
C	-2.9090122794	-2.6341300283	 0.0100581045	-0.048811
O	-2.8813378068	-4.0459248725	-0.0600747638	-0.262048
C	-4.1613951757	-4.6489729898	-0.0278257448	-0.070348
C	-3.9341811513	-6.1507398856	 0.0488189106	-0.057726
O	-3.1887913435	-6.498695801	 1.1984087403	-0.421927
H	 0.8580570781	 1.6978832498	 0.0805315837	 0.285998
H	 0.5156641294	-0.3906344495	-0.9008833158	 0.085249
H	 0.5872567192	-0.4785955314	 0.8691891612	 0.085308
H	-1.8917327884	-0.2273659746	 0.9739561537	 0.107737
H	-1.9621886438	-0.1389655311	-0.7803562747	 0.107433
H	-0.9959088148	-2.4732071815	-0.9356764016	 0.106907
H	-0.9292798955	-2.5605498966	 0.8197918694	 0.103337
H	-3.419851072	-2.3090947025	 0.9322424457	 0.090567
H	-3.483410841	-2.224112382	-0.8377752645	 0.089211
H	-4.7211937235	-4.3082447217	 0.8581508467	 0.094345
H	-4.7450175208	-4.3849968635	-0.9253035919	 0.086467
H	-4.8966065184	-6.6688828313	 0.1136981248	 0.106763
H	-3.4318104364	-6.4840907787	-0.8735715693	 0.091815
H	-2.436308334	-5.8951529391	 1.20820709	 0.287556
40.329	50.6016	75.4627	97.7539	117.4311	147.1273	176.7005	217.1781	263.4718	277.1996	337.1618	415.3561	443.9896	513.0883	559.5373	756.1945	815.2586	867.838	907.2426	946.8288	1003.3438	1036.7638	1063.3478	1067.5457	1084.5062	1106.38	1138.2943	1157.0776	1183.9239	1221.1918	1227.9963	1245.0046	1263.7256	1286.307	1298.6439	1313.4742	1319.3862	1371.69	1384.8781	1393.6813	1437.8106	1449.7875	1464.2655	1492.2589	1498.7496	1500.5284	1506.7792	1528.5248	1533.6046	2952.9786	2958.6559	2967.211	2976.1371	2982.1539	2984.0773	3006.254	3024.4127	3033.2738	3056.7818	3078.6686	3081.4463	3791.8396	3831.5294
OCCCCOCCO	OCCCCOCCO	
InChI=1S/C6H14O3/c7-3-1-2-5-9-6-4-8/h7-8H,1-6H2	InChI=1S/C6H14O3/c7-3-1-2-5-9-6-4-8/h7-8H,1-6H2
