17
gdb 43810	2.0416	1.70753	1.04343	2.7545	79.58	-0.2406	-0.0274	0.2132	1147.6543	0.133419	-384.645923	-384.637358	-384.636414	-384.679467	32.518	
O	-0.004928358	 0.0157164111	-0.2045337332	-0.278095
C	-0.0408676339	 1.1867609492	 0.0108175663	 0.404098
C	-1.1582079589	 2.1910177442	 0.3357737133	-0.434023
C	-0.0616471851	 3.1969244689	 0.7215248885	 0.35144
C	-0.108395853	 4.6920409466	 0.6942359281	-0.325986
C	 0.021786077	 3.9546599524	 2.0096435843	-0.316934
C	 1.064326815	 2.2881827297	 0.1505794975	-0.386663
C	 2.2370157191	 2.0069164839	 0.9430943553	 0.335358
C	 3.1979569051	 1.7767978939	 1.6286392159	-0.439981
H	-1.7391474189	 2.4622982625	-0.5533445268	 0.134985
H	-1.8493655133	 1.8705058539	 1.120481095	 0.138292
H	 0.7614441162	 5.2229252842	 0.3204285161	 0.121615
H	-1.0556965192	 5.1691646247	 0.463654164	 0.117319
H	-0.838460651	 3.9304485567	 2.6708723667	 0.116113
H	 0.9814641165	 3.976505553	 2.5153380484	 0.131703
H	 1.3493437853	 2.610663667	-0.8610315599	 0.130113
H	 4.0502463072	 1.561262968	 2.2242917105	 0.200647
51.1641	113.4079	146.1061	247.8179	294.3435	348.8828	379.3749	421.9236	506.983	518.6423	594.9933	616.5781	644.3749	723.0633	767.0826	784.6506	857.2297	882.5045	939.5838	975.9307	1012.7574	1044.8367	1054.847	1075.0389	1083.8937	1094.1097	1179.9587	1187.6862	1210.5239	1238.845	1305.4338	1374.27	1441.9708	1463.9395	1503.623	1907.6583	2233.3843	3010.5578	3044.2206	3101.4999	3124.434	3129.0565	3204.2048	3219.7534	3503.2481
O=C1CC2(CC2)C1C#C	O=C1CC2(CC2)[C@H]1C#C	
InChI=1S/C8H8O/c1-2-6-7(9)5-8(6)3-4-8/h1,6H,3-5H2	InChI=1S/C8H8O/c1-2-6-7(9)5-8(6)3-4-8/h1,6H,3-5H2/t6-/m0/s1
