22
gdb 78770	2.63174	1.54848	1.28292	0.7738	86.71	-0.1993	0.0916	0.2909	1125.9644	0.192935	-367.156853	-367.147847	-367.146903	-367.189647	35.61	
C	-0.0537714923	 1.5303120662	 0.0749859122	-0.335392
N	 0.1037219107	 0.0838990711	 0.0040665085	-0.108928
C	 0.796328764	-0.4938678281	-1.1377390615	-0.062374
C	 1.3844089413	-1.6024382894	-0.3290817106	-0.210367
C	 2.3284493825	-0.5366575266	-0.8650169823	 0.325143
C	 3.3536400227	-0.6492643925	-1.9528185431	-0.506173
C	 2.4995408946	 0.0523334289	 0.53501378	-0.336377
C	 1.1198644011	-0.6037230647	 0.8699539473	 0.337723
C	 0.7111116631	-0.9378501328	 2.2773771765	-0.500806
H	 0.8577436304	 2.1082040389	-0.144760635	 0.098715
H	-0.8225321953	 1.8351740913	-0.6436086739	 0.117503
H	-0.4077227219	 1.8094030228	 1.0730982569	 0.11601
H	 0.3834386381	-0.5091206691	-2.140359104	 0.086244
H	 1.3411027801	-2.6782661212	-0.4233164507	 0.088854
H	 2.9626467086	-1.2124029319	-2.8078053033	 0.11667
H	 3.6548842299	 0.3392497571	-2.3195473755	 0.11867
H	 4.2575048499	-1.1640788196	-1.605802276	 0.115975
H	 3.3018845275	-0.4603237515	 1.0749710385	 0.093784
H	 2.6124732894	 1.1349083871	 0.6646554761	 0.08313
H	 0.581533125	-0.0260650289	 2.872588465	 0.118514
H	-0.2362232891	-1.4845325214	 2.2850547932	 0.127015
H	 1.4739213699	-1.5495809156	 2.7697388518	 0.116467
160.2716	185.8231	195.275	199.2348	213.4663	241.8498	308.074	340.1975	372.1588	492.5588	567.3032	589.2428	627.3697	700.2593	755.2434	790.4371	834.6831	858.0139	881.1699	925.4915	951.7829	988.9323	1011.3505	1029.3945	1070.2216	1121.3627	1123.3603	1144.9129	1156.775	1167.1467	1178.3712	1188.8818	1232.5952	1275.6698	1293.5759	1336.5893	1395.4038	1411.7144	1420.9861	1445.5277	1482.2271	1484.945	1485.7998	1490.518	1496.1076	1499.6523	1518.4563	2976.3785	3016.4937	3027.8328	3032.1622	3060.0045	3074.9797	3084.4754	3085.1137	3092.6718	3096.0132	3113.1055	3173.7555	3215.1806
CN1C2C3C2(C)CC13C	CN1[C@@H]2[C@H]3[C@]2(C)C[C@@]13C	
InChI=1S/C8H13N/c1-7-4-8(2)5(7)6(7)9(8)3/h5-6H,4H2,1-3H3	InChI=1S/C8H13N/c1-7-4-8(2)5(7)6(7)9(8)3/h5-6H,4H2,1-3H3/t5-,6+,7-,8+/m0/s1
