18
gdb 54120	3.36274	1.29804	1.08402	3.2649	72.56	-0.2371	0.0254	0.2625	1129.7434	0.147011	-439.074959	-439.066252	-439.065307	-439.108188	33.054	
C	 0.0798820026	 1.4873271455	 0.1059885849	-0.516479
C	 0.1370378582	-0.0253800508	 0.0868250298	 0.159071
C	 0.6206174964	-0.8239732591	-1.1348690583	-0.145978
C	 1.771957885	-0.0940209536	-1.8116074937	-0.125319
O	 2.4875405693	 0.0180117781	-0.5472050452	-0.293589
C	 1.4755328608	-0.7556152903	 0.0918903822	 0.095663
C	-0.8972093276	-0.8185671502	 0.8421560415	 0.377106
N	-1.8669718959	-0.0971182212	 1.4791257053	-0.55557
O	-0.8583399209	-2.0376400995	 0.9060534265	-0.382383
H	 1.0071307208	 1.9061324281	-0.2892775497	 0.149144
H	-0.7532873559	 1.8782447224	-0.4898923391	 0.115963
H	-0.0198253393	 1.8613546251	 1.1307828185	 0.123769
H	 0.0445942661	-1.648921687	-1.5271195933	 0.121508
H	 2.3301531932	-0.7315714269	-2.505171102	 0.120815
H	 1.5811625976	 0.880652561	-2.2745125972	 0.107827
H	 1.7573797889	-1.4893459379	 0.8354577326	 0.129041
H	-2.0079762703	 0.8825273853	 1.3111251254	 0.259212
H	-2.6064173489	-0.6206901389	 1.918635482	 0.260202
64.249	177.7641	196.0973	214.7468	238.697	286.1967	328.4293	377.3466	421.4927	481.8548	573.403	607.1394	672.8396	749.6661	771.5536	832.0152	896.1331	934.1136	946.5473	979.9142	994.0971	1047.8054	1080.9363	1087.4079	1097.9517	1107.8953	1155.3905	1165.5826	1228.3024	1269.2476	1318.965	1375.7184	1388.8971	1414.355	1494.0693	1507.0566	1521.587	1613.1949	1763.942	3027.1474	3033.3941	3082.9373	3086.2173	3129.0352	3208.054	3229.2769	3607.7229	3744.1369
CC1(C2COC12)C(N)=O	C[C@]1([C@H]2CO[C@@H]12)C(=O)N	
InChI=1S/C6H9NO2/c1-6(5(7)8)3-2-9-4(3)6/h3-4H,2H2,1H3,(H2,7,8)	InChI=1S/C6H9NO2/c1-6(5(7)8)3-2-9-4(3)6/h3-4H,2H2,1H3,(H2,7,8)/t3-,4+,6+/m0/s1
