12
gdb 50816	4.88254	0.86167	0.73241	2.4149	58.87	-0.2604	-0.1394	0.121	1391.5486	0.074528	-509.805309	-509.796412	-509.795467	-509.840566	28.899	
O	-0.4000822936	 0.0763121692	 0.0060456441	-0.240029
C	-0.1148859928	 1.2392571544	 0.0090446812	 0.170279
N	 1.1822010791	 1.7604734529	-0.0005764993	-0.353327
C	 2.3738702805	 1.0634774364	-0.0151856541	 0.337612
O	 2.5254637711	-0.1343067018	-0.022540419	-0.291687
C	 3.5839062448	 2.018804052	-0.0214542346	 0.214406
O	 3.4475718245	 3.2159759466	-0.0139454472	-0.264774
C	 4.9792587597	 1.351309067	-0.0378201425	 0.097435
O	 5.9699108131	 2.0288146311	-0.0439427284	-0.203395
H	-0.8580899344	 2.0596177937	 0.0202033455	 0.105941
H	 1.291774194	 2.768376009	 0.0034642678	 0.281148
H	 4.987953544	 0.2488983394	-0.0435158536	 0.146391
44.5289	76.8595	86.7961	134.2927	211.7746	237.3941	290.7831	353.5176	406.9245	503.5957	606.4924	710.6128	749.002	838.0314	936.7215	951.4683	1014.1741	1030.5679	1138.0328	1222.2862	1390.1388	1438.6233	1521.9599	1789.4039	1805.5024	1831.0168	1866.5176	2953.0945	3010.5533	3563.244
O=CNC(=O)C(=O)C=O	O=CNC(=O)C(=O)C=O	
InChI=1S/C4H3NO4/c6-1-3(8)4(9)5-2-7/h1-2H,(H,5,7,9)	InChI=1S/C4H3NO4/c6-1-3(8)4(9)5-2-7/h1-2H,(H,5,7,9)
