21
gdb 112552	2.51435	1.13907	0.99962	1.5303	74.55	-0.2487	0.0664	0.3151	1290.2377	0.179697	-461.342692	-461.332265	-461.331321	-461.377646	38.782	
C	 0.7016459532	 1.3297642006	-0.1390447783	-0.443218
C	 0.0558213484	-0.0436363417	-0.0121904701	 0.354562
O	-1.360823445	 0.0608607309	-0.0334368102	-0.48235
C	 0.6744942403	-1.15314697	-0.9228954282	-0.291512
C	 1.3689457187	-1.7837315506	 0.3197303324	-0.014051
C	 2.8699847873	-1.5585707556	 0.4063630656	-0.086989
O	 3.4675349655	-2.3428024164	-0.619732576	-0.426689
C	 0.5006525036	-0.8761186874	 1.2284420957	 0.075176
O	 1.2079013026	-0.2405125976	 2.2701936822	-0.428687
H	 1.7888991836	 1.2824306084	-0.047106699	 0.13001
H	 0.4675249635	 1.7657751405	-1.1184927851	 0.102893
H	 0.323248191	 2.0028483455	 0.6362253399	 0.113138
H	-1.6151817102	 0.528350487	-0.8366546519	 0.272827
H	-0.1007774724	-1.7911915972	-1.3516211943	 0.100921
H	 1.346870014	-0.82022114	-1.717213889	 0.102554
H	 1.1857130546	-2.8533533186	 0.4483062598	 0.080079
H	 3.1165236216	-0.4938787993	 0.2818936515	 0.089901
H	 3.2274874172	-1.8564826783	 1.4026570661	 0.098138
H	 4.4189632529	-2.2100334273	-0.5790762304	 0.284708
H	-0.3737376597	-1.419102331	 1.6096168856	 0.07943
H	 0.5771351693	 0.242380748	 2.8130704838	 0.289161
76.1504	103.32	163.741	203.5192	224.4788	238.4267	264.9899	271.721	286.9484	330.7163	349.4613	406.3186	429.5263	523.6296	563.3604	692.6977	788.6724	828.002	859.332	904.2956	938.5391	962.0821	990.835	1068.7599	1070.7844	1088.1872	1141.7244	1159.6127	1167.1299	1196.3989	1221.4878	1228.6792	1246.0755	1281.7658	1293.7127	1323.3005	1362.5384	1369.4802	1404.9354	1427.4352	1457.352	1478.1331	1484.617	1489.7075	1519.2499	2989.3028	3017.1132	3019.6028	3025.8673	3066.0274	3077.1192	3094.7385	3124.7732	3129.6552	3798.5464	3823.1613	3830.1401
CC1(O)CC(CO)C1O	C[C@@]1(O)C[C@@H](CO)[C@H]1O	
InChI=1S/C6H12O3/c1-6(9)2-4(3-7)5(6)8/h4-5,7-9H,2-3H2,1H3	InChI=1S/C6H12O3/c1-6(9)2-4(3-7)5(6)8/h4-5,7-9H,2-3H2,1H3/t4-,5+,6+/m0/s1
