13
gdb 29164	3.11812	1.48535	1.00722	4.9999	66.79	-0.2078	-0.0619	0.1459	1073.393	0.090005	-489.931164	-489.923636	-489.922692	-489.963142	28.63	
N	 0.0767087857	 1.4400813556	 0.0660580732	-0.574633
C	-0.0208813058	 0.0528998165	-0.0405096975	 0.271826
C	-1.1808679649	-0.6328102048	-0.131128791	-0.032634
O	-1.1868155375	-1.9894512236	-0.3243579878	-0.200642
C	-0.0389160737	-2.7159981802	-0.4219014743	 0.384654
O	-0.0654885734	-3.9036828627	-0.5937274288	-0.329002
C	 1.1837113191	-1.8802898128	-0.2878137763	 0.27684
O	 2.3221833861	-2.5729704918	-0.3599623598	-0.371568
N	 1.1918343586	-0.6064776973	-0.1140528254	-0.369556
H	 0.9262059677	 1.7234579425	 0.5351643311	 0.255201
H	-0.7358141103	 1.8914270177	 0.4616064706	 0.251274
H	-2.1776441768	-0.2202905086	-0.0795321774	 0.130257
H	 3.0442762652	-1.9339284105	-0.2677949666	 0.307982
93.7108	216.7407	241.3787	315.9468	345.7513	359.5318	433.5332	486.4709	538.6047	598.5271	604.1979	626.2405	672.7925	699.1202	758.2298	800.7655	830.6861	1002.1882	1079.3913	1135.3457	1210.0304	1234.007	1338.2473	1424.7441	1440.9668	1622.9338	1648.281	1697.7789	1839.5611	3240.029	3556.5759	3659.2959	3756.1939
NC1=COC(=O)C(O)=N1	Nc1coc(=O)c(O)n1	
InChI=1S/C4H4N2O3/c5-2-1-9-4(8)3(7)6-2/h1H,5H2,(H,6,7)	InChI=1S/C4H4N2O3/c5-2-1-9-4(8)3(7)6-2/h1H,5H2,(H,6,7)
