13
gdb 8726	4.08159	1.37621	1.12996	5.994	65.53	-0.2878	-0.0814	0.2064	1009.0656	0.092649	-361.451383	-361.44285	-361.441905	-361.485087	29.239	
C	-0.1071145668	 1.4463705662	 0.1375823607	-0.398799
C	 0.0797743553	-0.0803195535	-0.0451148919	-0.25887
C	 0.7842595848	-0.3843643932	-1.2904482095	 0.286188
N	 1.3098377857	-0.5993169694	-2.2957729654	-0.309815
C	 0.8171882814	-0.6791916259	 1.1680595065	 0.246175
O	 1.9474219133	-1.0968648121	 1.1178820604	-0.258862
C	 0.0380697737	-0.6822305189	 2.392601225	 0.253085
C	-0.6203149013	-0.6939551008	 3.40014304	-0.38719
H	 0.862851762	 1.9472485391	 0.1804903415	 0.155677
H	-0.6744380282	 1.8561784714	-0.7003166121	 0.151644
H	-0.6516563564	 1.644386233	 1.0633684832	 0.144443
H	-0.9122345515	-0.5473808915	-0.0879417429	 0.151176
H	-1.1852005521	-0.7134982045	 4.3012896045	 0.225147
34.8307	123.9172	169.4281	194.2995	222.9115	246.2089	293.3365	397.8038	489.1513	550.4406	608.7296	664.9394	712.3384	730.0213	792.8063	867.9245	1028.3124	1063.4109	1070.0548	1141.2965	1277.2452	1342.9986	1408.2123	1493.8176	1499.1035	1786.6007	2212.7947	2370.7218	3041.1863	3058.5153	3142.0133	3143.3038	3489.3948
CC(C#N)C(=O)C#C	C[C@@H](C#N)C(=O)C#C	
InChI=1S/C6H5NO/c1-3-6(8)5(2)4-7/h1,5H,2H3	InChI=1S/C6H5NO/c1-3-6(8)5(2)4-7/h1,5H,2H3/t5-/m0/s1
