17
gdb 33936	3.28978	1.42756	1.24486	0.793	78.2	-0.2334	0.0446	0.2781	1039.4321	0.13565	-384.61836	-384.610913	-384.609968	-384.649907	30.362	
C	 0.0087592308	-1.1853187104	-0.0245642578	-0.385865
C	 0.0076591491	 0.0176627876	 0.0032886502	 0.180252
C	-0.000616109	 1.4477645008	 0.0375823666	 0.119779
C	 0.3829807834	 2.2367784454	-1.2174926839	-0.361631
C	 1.277903829	 2.2851157527	-0.0164204809	 0.066056
O	 1.1750989728	 3.356288247	 0.8805146278	-0.258639
C	-0.0282119637	 3.2801969942	 1.6099145757	 0.110292
C	-1.3282227793	 3.5580459342	 0.9022510754	-0.335204
C	-0.8553345523	 2.1302720765	 1.0972994818	-0.139946
H	 0.0125907534	-2.2465621899	-0.0504597955	 0.186734
H	 0.7276781462	 1.6412232975	-2.0555680991	 0.129112
H	-0.1953325294	 3.110262479	-1.4906320417	 0.123343
H	 2.2697061672	 1.847975644	-0.0502882403	 0.116209
H	 0.102224209	 3.5312718928	 2.6567511553	 0.105432
H	-2.1606429201	 3.8754449704	 1.5221209488	 0.117069
H	-1.3106384539	 4.0141001219	-0.079856167	 0.123581
H	-1.4069720734	 1.4742384661	 1.7575933246	 0.103425
134.5098	149.1348	261.56	286.1897	441.1688	459.8577	484.9435	511.959	569.08	596.8142	649.3774	703.2998	707.0199	781.9509	821.4982	843.1314	863.795	927.2456	972.472	985.6822	995.4724	1023.1734	1048.3124	1069.3542	1094.0519	1102.2939	1118.2668	1175.5614	1207.3245	1221.8678	1258.4871	1318.6059	1376.7615	1397.5218	1462.0246	1489.9613	2235.7437	3136.7742	3146.1346	3170.5339	3176.9763	3200.2494	3225.1502	3238.4936	3503.5504
C#CC12CC1OC1CC21	C#C[C@]12C[C@H]1O[C@H]1C[C@@H]21	
InChI=1S/C8H8O/c1-2-8-4-7(8)9-6-3-5(6)8/h1,5-7H,3-4H2	InChI=1S/C8H8O/c1-2-8-4-7(8)9-6-3-5(6)8/h1,5-7H,3-4H2/t5-,6+,7-,8-/m1/s1
