15
gdb 131623	2.77724	1.24649	0.86672	5.7128	70.84	-0.2464	-0.0397	0.2068	1242.3745	0.113462	-453.971287	-453.962883	-453.961939	-454.005275	29.353	
O	-0.1689741388	 1.445673987	-0.2035655953	-0.424862
C	 0.0179514794	 0.059097661	 0.0348968862	-0.194807
C	-1.3348316143	-0.5831995098	 0.0255150163	 0.324209
C	-1.7617202816	-1.9115572697	 0.0038578933	-0.010746
C	-0.9461110883	-3.1130488845	-0.0523695587	 0.068998
O	-1.3799917029	-4.2453540763	-0.0598878457	-0.284457
C	-3.1806120148	-1.8206960655	 0.0413737468	-0.060335
N	-3.5967678864	-0.5670423209	 0.0795592169	-0.223106
N	-2.4519954305	 0.1613032867	 0.0749061511	-0.233132
H	 0.6626831302	 1.8997075439	-0.0429546066	 0.303466
H	 0.6550144457	-0.4037900454	-0.7330623083	 0.126862
H	 0.5030691895	-0.1169135517	 1.0074354553	 0.127333
H	 0.1532379439	-2.9295553889	-0.0922064345	 0.048442
H	-3.887024626	-2.6366114597	 0.0375438653	 0.14361
H	-2.4838595449	 1.1680953339	 0.0735517279	 0.288524
46.0025	139.4309	143.898	202.2665	222.9993	242.7059	294.821	389.5531	570.0316	611.441	664.9519	693.9427	707.7323	800.7178	916.9914	963.0274	1025.5684	1043.6558	1067.2711	1112.3539	1158.9338	1209.5951	1228.52	1244.6899	1320.7559	1392.5458	1418.4862	1447.8242	1480.945	1509.9614	1528.2403	1601.3704	1786.22	2847.4324	2981.311	3008.8259	3263.5585	3668.0776	3847.3025
OCC1=C(C=O)C=NN1	OCc1c(C=O)cn[nH]1	
InChI=1S/C5H6N2O2/c8-2-4-1-6-7-5(4)3-9/h1-2,9H,3H2,(H,6,7)	InChI=1S/C5H6N2O2/c8-2-4-1-6-7-5(4)3-9/h1-2,9H,3H2,(H,6,7)
