14
gdb 25366	6.03789	0.89689	0.78089	3.7737	89.78	-0.2241	-0.0595	0.1646	1354.5886	0.100995	-399.573717	-399.565837	-399.564893	-399.606244	29.286	
O	-0.2198392386	 0.0423777585	-0.0009638972	-0.275287
C	-0.0362909562	 1.2407540903	 0.0093132979	 0.061481
C	 1.2659702391	 1.8798031458	 9.066*^-6	 0.214028
C	 2.5471275021	 1.3343084531	-0.0198099207	-0.182191
C	 3.4633453687	 2.3941633227	-0.0209502061	-0.237873
C	 2.7326654975	 3.5861411663	-0.001411397	 0.183176
N	 1.4057586021	 3.2484651275	 0.0109302318	-0.36892
C	 3.1647159988	 4.9263269872	 0.0058411791	 0.246426
C	 3.5258046125	 6.0758929718	 0.0121554341	-0.421365
H	-0.8943933901	 1.9546244855	 0.0243958386	 0.0533
H	 2.7594631898	 0.2770348333	-0.0318959	 0.13432
H	 4.540043332	 2.3342007365	-0.034103311	 0.117357
H	 0.6502457505	 3.9141684336	 0.0258041256	 0.274586
H	 3.8532961918	 7.0861465679	 0.0175782487	 0.200962
97.24	124.2774	204.901	217.5321	264.1643	437.5653	449.0735	530.6897	540.7156	555.5156	624.9167	649.058	683.2277	689.3051	765.8295	818.6308	895.8263	990.6243	1014.5309	1020.8591	1068.4555	1193.9635	1258.5578	1312.9629	1409.1227	1413.1674	1469.6757	1499.6103	1587.5779	1780.7441	2228.3827	2841.3792	3259.3618	3274.1837	3500.3499	3659.519
O=CC1=CC=C(N1)C#C	O=Cc1ccc([nH]1)C#C	
InChI=1S/C7H5NO/c1-2-6-3-4-7(5-9)8-6/h1,3-5,8H	InChI=1S/C7H5NO/c1-2-6-3-4-7(5-9)8-6/h1,3-5,8H
