15
gdb 28221	4.99192	1.27268	1.03144	3.4589	69.18	-0.1764	0.0249	0.2012	1108.0517	0.114027	-453.94481	-453.937207	-453.936263	-453.977002	27.964	
C	 0.0195690656	 1.4519429707	 0.0369168058	-0.495551
C	 0.0564307062	-0.0354399554	-0.0353194448	 0.313138
N	-0.1118380435	-0.7606426124	-1.1374396524	-0.378367
C	-0.1542274936	-2.0312452061	-0.6727244485	 0.282022
C	-0.0137290181	-2.1110394661	 0.663365259	 0.304714
N	 0.17678192	-0.8304065987	 1.1031184388	-0.414769
O	 0.2456414878	-3.3805432413	 1.1029480469	-0.287841
C	-0.1607580534	-4.1278634951	-0.0855132819	 0.007685
O	-0.0406090091	-3.287401815	-1.2386247776	-0.272989
H	 0.7891758355	 1.8455267087	 0.7102695691	 0.125347
H	 0.1955963247	 1.851755057	-0.9631062047	 0.16054
H	-0.9508863573	 1.8310187031	 0.3829509096	 0.134771
H	 0.2097214384	-0.4977546989	 2.0521962303	 0.272827
H	 0.4895553288	-4.9961622271	-0.1922589562	 0.137655
H	-1.2152634321	-4.4132556734	 0.0478132467	 0.110817
103.7764	130.6018	219.2983	248.2078	280.8172	305.8622	464.0255	512.7216	563.8202	650.3945	681.9449	717.8769	758.2048	847.9915	875.6173	972.5063	1016.0358	1047.1715	1060.2592	1131.867	1144.8052	1220.0093	1240.2171	1372.4088	1398.2212	1407.6144	1437.3549	1475.5655	1491.2294	1506.8205	1528.4522	1547.5805	1676.4358	2986.2048	3017.9034	3071.5537	3135.6301	3140.8618	3664.3607
CC1=NC2=C(N1)OCO2	Cc1nc2c([nH]1)OCO2	
InChI=1S/C5H6N2O2/c1-3-6-4-5(7-3)9-2-8-4/h2H2,1H3,(H,6,7)	InChI=1S/C5H6N2O2/c1-3-6-4-5(7-3)9-2-8-4/h2H2,1H3,(H,6,7)
