14
gdb 5135	5.99902	1.34943	1.13949	3.3267	68.25	-0.2206	0.0291	0.2498	990.7781	0.108472	-341.588156	-341.580995	-341.580051	-341.620262	26.274	
C	-0.0896638436	-1.0532581328	-0.7355907248	-0.441957
C	-0.0286433209	 0.010790847	-0.179721951	 0.284217
C	 0.0702529623	 1.3269778065	 0.4478971948	-0.467817
C	 1.4218424315	 1.9632473682	 0.2780338318	 0.315856
C	 2.1386511475	 2.8389744999	 1.0526089289	-0.170852
N	 3.3220987114	 3.1817399403	 0.4387465851	-0.255663
C	 3.3260470618	 2.5195817469	-0.6945740551	 0.012512
N	 2.1956261141	 1.7720998737	-0.8454111521	-0.290519
H	-0.1584861191	-2.0056540052	-1.2006577096	 0.203992
H	-0.715605065	 1.9734728216	 0.0302365841	 0.151042
H	-0.1478595843	 1.2473197164	 1.5190100948	 0.155496
H	 1.8668521037	 3.2417116611	 2.0171218699	 0.105822
H	 4.1095031805	 2.5347615801	-1.4374161007	 0.129014
H	 1.9794247601	 1.1285784764	-1.5897317562	 0.268856
41.3847	116.195	249.8361	314.8666	331.6367	466.7828	557.1138	627.9349	650.4827	658.181	686.026	738.0355	807.4795	842.6636	935.0302	943.8049	952.6033	1022.6743	1114.0577	1145.735	1210.7288	1256.3525	1269.8168	1323.4848	1387.2355	1437.7308	1466.5904	1504.3586	1608.0725	2238.1296	2998.1526	3059.6147	3242.81	3252.4061	3503.868	3651.9706
C#CCC1=CN=CN1	C#CCc1cnc[nH]1	
InChI=1S/C6H6N2/c1-2-3-6-4-7-5-8-6/h1,4-5H,3H2,(H,7,8)	InChI=1S/C6H6N2/c1-2-3-6-4-7-5-8-6/h1,4-5H,3H2,(H,7,8)
