14
gdb 14414	3.39024	2.19878	1.7733	3.9378	61.32	-0.228	-0.0038	0.2242	770.1306	0.106485	-382.487298	-382.480736	-382.479792	-382.517945	25.042	
C	-0.0791646405	 1.5508114933	-0.0199754167	-0.524505
C	 0.0530939465	 0.064737204	-0.010001636	 0.276035
C	 0.0884266746	-1.0425741132	-0.9889802566	 0.046622
O	 1.211538328	-1.7175028208	-0.4175089736	-0.287489
C	 0.9343393422	-0.9713716894	 0.7989585271	-0.121516
C	-0.4211791709	-1.5470050313	 1.2836024503	 0.471811
O	-0.8238264166	-1.9616562904	 2.3326920193	-0.335768
C	-1.0612527305	-1.0566260605	 0.0252791984	-0.29456
H	 0.8717682546	 2.0277799843	-0.2794560655	 0.140874
H	-0.8269605706	 1.8660232875	-0.7541075362	 0.136738
H	-0.393005529	 1.927623523	 0.9589493367	 0.142314
H	-0.0681422755	-1.0826847375	-2.05968246	 0.124954
H	 1.7934946128	-0.7984419085	 1.441471007	 0.10693
H	-2.1055357552	-0.9681752605	-0.2398877941	 0.117559
121.046	189.9074	261.1156	298.4307	428.745	520.9401	596.9031	627.1532	697.6324	762.6273	787.4207	836.2589	897.0871	927.9693	949.1744	976.7648	1006.8387	1068.7092	1080.2921	1106.3623	1137.0053	1172.8276	1193.7756	1230.1954	1295.7834	1413.6007	1456.2545	1483.9354	1494.1046	1884.857	3034.0037	3099.4305	3108.0707	3169.3591	3200.5973	3226.2653
CC12C3OC1C(=O)C23	C[C@@]12[C@H]3O[C@@H]1C(=O)[C@@H]23	
InChI=1S/C6H6O2/c1-6-2-3(7)5(6)8-4(2)6/h2,4-5H,1H3	InChI=1S/C6H6O2/c1-6-2-3(7)5(6)8-4(2)6/h2,4-5H,1H3/t2-,4+,5-,6-/m1/s1
