12
gdb 131922	4.16342	1.34308	1.01549	3.9933	65.98	-0.2813	-0.1057	0.1757	1048.7646	0.07907	-468.762088	-468.755429	-468.754485	-468.794322	23.857	
O	-0.0764730175	 0.0036334338	 0.0033815252	-0.361716
N	-0.0122973206	 1.22750345	 0.0068909834	 0.401663
O	 1.0027535626	 1.8934456386	 0.0025353421	-0.322901
C	-1.3215331804	 1.9468389348	 0.0176018025	 0.353647
N	-1.267938501	 3.2617193418	 0.0204658977	-0.25466
C	-2.4449301231	 3.8851721837	 0.0300327164	-0.022663
C	-3.6456447359	 3.1723677842	 0.036547433	 0.010189
N	-3.680693644	 1.8389939523	 0.0335360379	-0.231081
C	-2.5032383545	 1.2111811841	 0.0238879031	-0.02002
H	-2.4319837116	 4.9710624475	 0.032574053	 0.140695
H	-4.6000376823	 3.691313695	 0.0443797967	 0.139423
H	-2.4912734018	 0.1287154641	 0.021123589	 0.167424
37.2117	157.4997	248.2772	394.5693	400.586	460.815	524.0602	621.8239	736.1805	752.1599	784.346	872.2343	901.0373	985.6024	1009.2159	1030.2833	1071.6119	1172.6167	1199.4953	1257.4351	1325.4161	1393.8995	1425.4984	1495.9341	1581.4644	1613.4109	1670.7559	3170.8311	3188.113	3225.1717
O=N(=O)C1=NC=CN=C1	O=N(=O)c1nccnc1	
InChI=1S/C4H3N3O2/c8-7(9)4-3-5-1-2-6-4/h1-3H	InChI=1S/C4H3N3O2/c8-7(9)4-3-5-1-2-6-4/h1-3H
