15
gdb 44029	3.19914	1.74838	1.58407	3.2503	69.89	-0.2379	-0.0474	0.1905	872.028	0.111472	-420.476669	-420.47005	-420.469105	-420.507744	26.54	
O	-0.0000858958	 0.037352861	-0.2680858851	-0.263581
C	-0.0242398176	 1.2143739029	-0.1048769598	 0.342126
C	-1.1372574582	 2.2483655077	 0.2793899244	-0.431045
C	-0.0208479915	 3.1004069399	 0.9229002993	 0.17641
C	 0.7750850015	 2.9202974001	 2.2345502779	-0.312656
C	 1.9014517738	 3.0956286876	 1.184721487	-0.142965
C	 1.0156271647	 4.0782518003	 0.3045285666	 0.046951
O	 1.1690014193	 3.3347830217	-0.9358048801	-0.336226
C	 1.0713015476	 2.3169709625	 0.1119503558	 0.20158
H	-1.5885912694	 2.7081473133	-0.6028523566	 0.156855
H	-1.9242002976	 1.8629729502	 0.9304193332	 0.142686
H	 0.6705684667	 3.7039097041	 2.9892539216	 0.108972
H	 0.7242728187	 1.9337476716	 2.7050821125	 0.115299
H	 2.9844715945	 3.1267181378	 1.318126112	 0.094777
H	 1.0407023134	 5.1702272293	 0.2596565815	 0.100817
73.9679	266.9079	322.0386	373.8894	411.6878	508.3642	571.5001	584.3143	692.284	734.0373	763.3907	821.84	844.1602	864.8515	912.5859	928.5615	947.124	1008.003	1029.284	1037.3654	1067.3908	1100.8424	1151.5545	1152.4834	1165.7594	1196.317	1226.0597	1235.7165	1273.0997	1279.0518	1419.5908	1515.7396	1887.7138	3052.9012	3078.0995	3078.8318	3104.4696	3108.9928	3139.6576
O=C1CC23CC4C2OC134	O=C1C[C@]23C[C@@H]4[C@H]2O[C@]134	
InChI=1S/C7H6O2/c8-4-2-6-1-3-5(6)9-7(3,4)6/h3,5H,1-2H2	InChI=1S/C7H6O2/c8-4-2-6-1-3-5(6)9-7(3,4)6/h3,5H,1-2H2/t3-,5-,6-,7-/m1/s1
