15
gdb 24951	5.02343	1.27359	1.02243	3.6343	74.55	-0.1748	-0.0114	0.1634	1089.4807	0.115173	-416.870458	-416.863227	-416.862283	-416.902145	27.938	
O	-0.0033867661	-0.0426917351	 0.0040509342	-0.426696
C	-0.0111430645	 1.1706362704	 0.0100592738	 0.422268
N	-1.1253392431	 2.022952036	 0.0296720041	-0.469261
C	-0.710820658	 3.3438044679	 0.03016008	 0.303809
C	 0.6421646763	 3.3580024846	 0.011214702	 0.319482
N	 1.0838799437	 2.041770458	-0.0015170757	-0.480639
C	 1.1270069572	 4.7282712557	 0.011001608	-0.184818
C	 0.0500807803	 5.5451159862	 0.0303190679	-0.092453
C	-1.2453463584	 4.7382924899	 0.0444071045	-0.405015
H	-2.059920518	 1.6549475957	 0.04090702	 0.266255
H	 2.0258826474	 1.6940317413	-0.016020799	 0.266216
H	 2.1642898963	 5.0347546266	-0.002146414	 0.104444
H	 0.0632377405	 6.6254119895	 0.0354708598	 0.103722
H	-1.8707254257	 4.9766934483	-0.8260934349	 0.13635
H	-1.8460428581	 4.968026675	 0.9344019992	 0.136335
89.607	157.2389	268.3452	331.57	365.1689	423.0281	479.7598	552.9547	566.031	638.8667	710.2026	729.4404	750.2794	806.9651	892.0371	905.0115	926.5546	928.9783	970.7995	1064.3753	1124.9188	1128.503	1207.9098	1231.0914	1272.3731	1300.2573	1341.3333	1427.1091	1469.1226	1502.9964	1555.0019	1654.9157	1840.	3028.5953	3057.5162	3219.6785	3246.5196	3693.4725	3696.7784
O=C1NC2=C(N1)C=CC2	O=c1[nH]c2c([nH]1)C=CC2	
InChI=1S/C6H6N2O/c9-6-7-4-2-1-3-5(4)8-6/h1-2H,3H2,(H2,7,8,9)	InChI=1S/C6H6N2O/c9-6-7-4-2-1-3-5(4)8-6/h1-2H,3H2,(H2,7,8,9)
