16
gdb 30575	6.73286	0.6825	0.62447	1.4217	87.37	-0.2262	-0.0272	0.199	1762.0146	0.124674	-400.760173	-400.751667	-400.750723	-400.795072	29.897	
C	 0.0532800215	 1.5069492171	 0.0086218575	-0.36754
C	-0.0381029985	-0.0303735707	 0.0031528925	-0.335428
C	-1.4107875833	-0.516369745	 0.0130128212	 0.322671
C	-2.5555509419	-0.89639856	 0.0213419347	-0.108193
C	-3.8925836094	-1.3387800809	 0.0313185615	 0.188709
N	-4.9862872963	-0.6282187692	 0.0430217249	-0.311724
C	-6.0069899741	-1.5601190795	 0.0484230016	-0.121701
C	-5.4744878889	-2.8065067256	 0.0398649247	-0.040697
O	-4.1191030373	-2.6869662565	 0.028947353	-0.165714
H	 1.1006155268	 1.821576275	 0.0008140018	 0.119542
H	-0.4418631904	 1.9287370403	-0.8697254804	 0.136067
H	-0.426514383	 1.9215364977	 0.8988356981	 0.136063
H	 0.478160003	-0.4297839074	-0.879449566	 0.138655
H	 0.4933265572	-0.4369234715	 0.8734109887	 0.138656
H	-7.0444589691	-1.2660616207	 0.0580664503	 0.12447
H	-5.8702150562	-3.807436743	 0.0398643058	 0.146163
27.7986	73.7864	101.5027	188.0752	215.9687	310.9899	434.5091	468.1358	507.3921	581.5986	627.097	749.6666	771.6852	786.4723	869.2109	889.3349	935.201	952.6392	1039.6177	1089.3053	1102.8844	1117.3899	1143.5043	1165.1271	1264.2008	1282.5592	1346.3617	1386.3499	1412.4476	1471.2907	1495.3714	1504.8821	1533.1743	1585.0193	2359.3772	3020.6359	3048.3902	3049.2488	3124.0799	3129.6704	3263.9494	3299.6077
CCC#CC1=NC=CO1	CCC#Cc1ncco1	
InChI=1S/C7H7NO/c1-2-3-4-7-8-5-6-9-7/h5-6H,2H2,1H3	InChI=1S/C7H7NO/c1-2-3-4-7-8-5-6-9-7/h5-6H,2H2,1H3
