19
gdb 74229	2.20764	1.53905	0.94696	5.1469	82.13	-0.2122	-0.0066	0.2056	1228.4595	0.162306	-419.257175	-419.248634	-419.24769	-419.29041	32.963	
N	 0.0988385324	 1.3760710104	 0.318517262	-0.545595
C	 0.009837988	 0.0211940254	 0.0283735448	 0.310254
C	-1.1818724152	-0.6097327002	 0.1299014896	-0.23475
C	-1.6208105836	-2.0093898656	 0.012224245	 0.366354
O	-2.8202091646	-2.266621218	 0.0413372976	-0.400127
N	-0.7212197749	-3.0397588092	-0.1411568252	-0.33412
C	 0.7172069905	-3.0209460164	 0.0193645725	-0.157056
C	 1.4020898794	-1.9806666446	-0.8700338236	-0.208063
C	 1.3627951535	-0.5666138151	-0.2954889192	-0.282033
H	 0.8048772429	 1.8976803766	-0.1787344183	 0.246984
H	-0.7772932706	 1.8716486251	 0.3937706097	 0.253929
H	-2.0449519813	 0.0143588057	 0.347718095	 0.083823
H	-1.183153998	-3.9361690209	-0.1256274546	 0.23891
H	 1.0131631701	-2.8575540122	 1.0688456666	 0.102566
H	 1.073779622	-4.018539475	-0.253269038	 0.109436
H	 2.4541749466	-2.258981324	-0.9980775745	 0.100801
H	 0.9380686169	-2.0081951682	-1.8616504373	 0.116509
H	 1.8647206344	 0.1137370615	-0.9981974247	 0.102772
H	 1.9652381914	-0.5265286851	 0.6227494527	 0.129405
71.9346	121.0872	172.187	279.6581	314.162	352.304	379.9599	419.2957	488.7693	507.0184	535.6527	543.2112	600.2849	652.718	738.8334	790.464	876.2906	889.2199	894.8066	906.8022	996.2048	1083.7738	1090.6032	1129.2567	1174.2888	1213.3251	1233.2858	1285.0388	1306.9151	1356.5791	1374.6954	1391.8622	1419.7658	1431.7835	1465.4374	1471.2275	1484.5282	1509.0918	1647.5026	1688.1543	1733.7011	2966.3525	3004.3774	3030.195	3041.5449	3077.5674	3086.3343	3156.2445	3565.4541	3623.0372	3671.3948
NC1=CC(=O)NCCC1	NC1=CC(=O)NCCC1	
InChI=1S/C6H10N2O/c7-5-2-1-3-8-6(9)4-5/h4H,1-3,7H2,(H,8,9)	InChI=1S/C6H10N2O/c7-5-2-1-3-8-6(9)4-5/h4H,1-3,7H2,(H,8,9)
