15
gdb 48077	2.74285	1.47911	1.05651	2.1475	68.16	-0.2563	-0.1024	0.1539	1093.5566	0.110265	-457.733539	-457.725387	-457.724443	-457.767409	29.098	
O	-0.5545790652	 1.1566958314	-0.7452395084	-0.227849
C	 0.3487083409	 0.981645151	 0.029172496	 0.088252
C	 1.3446768661	 2.0515598969	 0.5023388711	 0.156961
O	 2.2627231579	 1.6758590433	 1.1976949601	-0.280944
C	 1.1678036915	 3.4527925931	 0.0570453267	 0.328785
C	-0.0054745256	 4.2037385137	-0.601406902	-0.312593
C	 1.0336363771	 5.0449824402	-1.4197282425	-0.242885
C	 2.1556228935	 4.2745170775	-0.7169061812	-0.006833
O	 2.0015591491	 4.4367735259	 0.6771554965	-0.253795
H	 0.5831909648	-0.0050806067	 0.4812938911	 0.11757
H	-0.6203639828	 3.5602308032	-1.2269146753	 0.147471
H	-0.6315957133	 4.7509266967	 0.1059550265	 0.119519
H	 0.9813482937	 4.8428046898	-2.491428362	 0.11944
H	 1.0500366083	 6.1236945417	-1.2498995029	 0.122702
H	 3.138254374	 3.9900022225	-1.0776336637	 0.124198
33.7584	111.252	153.3656	188.6871	254.5138	318.0978	402.7736	500.1309	565.385	587.2034	665.3305	751.9243	777.8767	856.959	885.5143	932.6357	943.2295	999.9791	1025.8611	1063.3461	1116.9685	1143.0009	1195.4877	1216.3301	1231.7607	1274.528	1289.5176	1370.9741	1408.8077	1467.7205	1487.354	1775.7502	1823.9704	2928.287	3074.4182	3089.9369	3130.7122	3172.842	3184.4872
O=CC(=O)C12CCC1O2	O=CC(=O)[C@]12CC[C@H]1O2	
InChI=1S/C6H6O3/c7-3-4(8)6-2-1-5(6)9-6/h3,5H,1-2H2	InChI=1S/C6H6O3/c7-3-4(8)6-2-1-5(6)9-6/h3,5H,1-2H2/t5-,6-/m1/s1
