21
gdb 75406	2.45922	1.43678	1.03371	0.2087	93.3	-0.2059	-0.014	0.1919	1238.8539	0.18359	-349.960397	-349.95158	-349.950636	-349.994603	33.862	
C	 0.0680594334	 1.6031541138	-0.3029107263	-0.477223
C	-0.0676069154	 0.1280756408	 0.0015621062	 0.309378
C	-1.2638065454	-0.4719967471	-0.0685431219	-0.155558
C	-1.4987983142	-1.9410970174	 0.1839998643	-0.321023
C	-1.0825186942	-2.7339315109	-1.0318168308	-0.039602
C	 0.1596082297	-3.155553564	-1.2489936541	-0.04749
C	 1.3222468783	-3.0513344569	-0.286172713	-0.321717
C	 1.7085479199	-1.7402349114	 0.3675802382	-0.04824
C	 1.1826827213	-0.5078650767	 0.4541421972	-0.125052
H	 0.7694354289	 1.7738518969	-1.1291064958	 0.125836
H	-0.8925913134	 2.0467649079	-0.5760667693	 0.117295
H	 0.4641910052	 2.1519751526	 0.5611527739	 0.120852
H	-2.1226027543	 0.1190661014	-0.3787094546	 0.079084
H	-0.9114127765	-2.2590334371	 1.0534342749	 0.114677
H	-2.5532328411	-2.1210102069	 0.416104999	 0.097216
H	-1.8359054658	-2.8828019887	-1.8019799717	 0.084808
H	 0.3775888952	-3.6668965046	-2.1835161557	 0.085477
H	 1.1932352046	-3.788796382	 0.5249244655	 0.123595
H	 2.222965319	-3.4007244722	-0.8079010384	 0.112817
H	 2.6714651303	-1.8458081698	 0.8695664143	 0.08712
H	 1.8256023343	 0.2028166622	 0.9768445282	 0.077748
23.4678	126.808	185.8377	245.7083	260.6865	309.9932	325.0196	380.6328	474.0207	527.4913	552.8043	616.9878	727.1336	737.7874	759.4572	835.4793	842.6347	874.766	915.1846	961.6201	994.8586	1000.3828	1025.0811	1044.0446	1062.9933	1070.6586	1089.0452	1163.4197	1225.5277	1248.3551	1279.1026	1309.686	1320.8126	1362.307	1393.2293	1410.8904	1411.4066	1459.8263	1467.7171	1478.7779	1488.3091	1493.5816	1701.1781	1716.5146	1736.4417	2957.6539	3016.7419	3024.6028	3031.5728	3064.5251	3078.1916	3090.552	3113.7332	3118.6512	3139.64	3148.4476	3164.8078
CC1=CCC=CCC=C1	CC1=CCC=CCC=C1	
InChI=1S/C9H12/c1-9-7-5-3-2-4-6-8-9/h2-3,6-8H,4-5H2,1H3/b3-2-,8-6-,9-7-	InChI=1S/C9H12/c1-9-7-5-3-2-4-6-8-9/h2-3,6-8H,4-5H2,1H3/b3-2-,8-6-,9-7-
