16
gdb 8843	4.69831	1.21543	0.98228	2.367	63.19	-0.2501	-0.0324	0.2176	1137.9886	0.129681	-417.102972	-417.093807	-417.092863	-417.13767	30.935	
C	 0.0565946056	 1.4854327737	 0.0218449138	-0.356407
N	-0.0182117977	 0.025593027	-0.0166732476	-0.142702
C	-0.0595358497	-0.6632213677	 1.1994014736	 0.172411
O	-0.036904673	-0.1194811634	 2.2766934899	-0.314766
C	-0.0489749554	-0.7060458852	-1.2134451163	 0.396254
O	-0.1111236623	-1.9166496897	-1.2258559117	-0.341436
C	-0.0001182997	 0.1064966354	-2.5145745693	-0.279249
N	-0.031124419	-0.6950426377	-3.7228960208	-0.486518
H	 0.9723871244	 1.8500315205	-0.4511063602	 0.141238
H	-0.8061713111	 1.9414091197	-0.4708949847	 0.141213
H	 0.0598476344	 1.7712794221	 1.0731267527	 0.178083
H	-0.1138000096	-1.7480077183	 1.0475711667	 0.141107
H	-0.8405218371	 0.8119001518	-2.5238089604	 0.136772
H	 0.904737838	 0.7270226496	-2.5120671551	 0.136616
H	 0.7414970543	-1.3553339364	-3.6983542347	 0.238634
H	-0.8626693719	-1.2797031415	-3.7071418159	 0.238749
44.547	66.8091	138.5621	179.456	197.336	204.6644	322.9697	329.9252	347.4564	408.0041	541.878	561.3285	740.1628	828.9142	923.7738	937.1949	968.978	1059.7696	1099.742	1151.9816	1163.2806	1175.9282	1279.5698	1310.3902	1380.7097	1396.6948	1415.6264	1449.441	1453.6513	1505.0821	1507.5644	1679.1249	1784.658	1812.8102	3029.5626	3050.6463	3065.7574	3079.1222	3113.7925	3163.1829	3493.8085	3559.4257
CN(C=O)C(=O)CN	CN(C=O)C(=O)CN	
InChI=1S/C4H8N2O2/c1-6(3-7)4(8)2-5/h3H,2,5H2,1H3	InChI=1S/C4H8N2O2/c1-6(3-7)4(8)2-5/h3H,2,5H2,1H3
