19
gdb 46962	2.6258	1.72352	1.22535	2.9057	79.41	-0.2237	-0.0155	0.2082	1044.386	0.161707	-385.939505	-385.932079	-385.931135	-385.971819	29.299	
O	-0.1404408011	 0.1322034941	 0.3575219719	-0.319622
C	-0.0967475147	 1.3079189362	 0.1053881006	 0.397456
C	-1.2873594314	 2.2608098523	-0.010069045	-0.314249
C	-0.7937985712	 3.3644999973	-0.9573599098	-0.239071
C	 0.7175303634	 3.5199719904	-0.6476135117	-0.01515
C	 1.0511040249	 4.5028697925	 0.5171173529	-0.272907
C	 1.8368789168	 3.6695081884	 1.4978818374	-0.060816
C	 1.9224496866	 2.3915461172	 1.1332002126	-0.075628
C	 1.1900457338	 2.1187609661	-0.1597681949	-0.157863
H	-2.1875130797	 1.7339395434	-0.3320591509	 0.12473
H	-1.4832152676	 2.6619036481	 0.9939390484	 0.13193
H	-0.9265378824	 3.0388881539	-1.9952877009	 0.105429
H	-1.3396684674	 4.3050660434	-0.844192003	 0.103471
H	 1.2574700837	 3.8270189527	-1.5455888706	 0.078009
H	 1.6167470165	 5.3750594286	 0.167820392	 0.107795
H	 0.1406490562	 4.906288918	 0.9828734105	 0.104283
H	 2.2649942278	 4.0863592008	 2.4032760182	 0.096873
H	 2.4102217503	 1.59981215	 1.6895811688	 0.10878
H	 1.8028911555	 1.5663134166	-0.8802640763	 0.096551
59.1474	140.972	172.1013	349.7212	386.3059	438.7573	523.4088	553.7428	661.7303	697.4814	744.341	753.6361	788.9894	821.1365	879.1991	926.1615	948.5757	956.3692	979.9252	993.9656	1005.1892	1047.9091	1080.3618	1126.5366	1129.4175	1157.4135	1183.7109	1198.201	1241.1563	1249.1717	1294.0363	1301.6217	1315.1036	1321.3651	1356.7366	1370.5442	1455.0106	1485.6684	1500.368	1683.5087	1842.4473	3006.5514	3028.1092	3040.5901	3043.0172	3049.0058	3083.5874	3092.4626	3117.6432	3185.1675	3214.0496
O=C1CCC2CC=CC12	O=C1CC[C@H]2CC=C[C@@H]12	
InChI=1S/C8H10O/c9-8-5-4-6-2-1-3-7(6)8/h1,3,6-7H,2,4-5H2	InChI=1S/C8H10O/c9-8-5-4-6-2-1-3-7(6)8/h1,3,6-7H,2,4-5H2/t6-,7-/m1/s1
