19
gdb 72965	2.56423	1.50049	1.18647	1.4547	82.64	-0.2271	0.0401	0.2673	1113.2918	0.156455	-385.817783	-385.808533	-385.807588	-385.851075	35.29	
C	-0.0719394831	 1.5905520064	 0.0084861183	-0.501163
C	-0.0383367562	 0.0917418886	 0.05361307	 0.209296
C	-0.9236047403	-0.8204129438	-0.796222463	-0.149469
O	-1.0446506915	-1.7845666183	 0.2862554343	-0.291019
C	-0.2897556334	-0.9280691221	 1.1356622905	 0.030186
C	 1.1333928651	-0.753106157	 0.6084392295	 0.058671
C	 1.8206607195	-1.8523538057	-0.1877542509	-0.487993
C	 1.9918335091	-0.0279468017	 1.5079524714	 0.25348
C	 2.723738338	 0.5561429934	 2.2647692001	-0.428657
H	 0.5019425833	 2.0205799954	 0.832091701	 0.143018
H	 0.3607094261	 1.9633777254	-0.927750592	 0.123256
H	-1.1006736699	 1.9619791948	 0.0724772022	 0.119735
H	-1.8996961179	-0.371330692	-1.0130974131	 0.113488
H	-0.5063732401	-1.2589613883	-1.7092973868	 0.108891
H	-0.5605397025	-0.8653474437	 2.1836018105	 0.115051
H	 1.0830831887	-2.5263924799	-0.6270926522	 0.140786
H	 2.445383324	-1.4349844148	-0.9835431494	 0.122043
H	 2.4639341582	-2.4427759768	 0.4705908034	 0.129902
H	 3.3729890428	 1.0666099801	 2.9320312059	 0.190499
127.1693	151.0038	166.2828	177.1497	219.0924	281.3529	289.8885	327.9719	417.5206	462.8264	521.4632	539.8297	575.1632	646.9109	651.7716	686.4835	748.2315	892.0227	914.911	967.8827	982.5883	994.9864	1012.5765	1039.2922	1100.069	1126.8545	1152.8243	1168.4885	1209.1428	1228.1976	1295.8561	1310.9431	1405.2538	1415.045	1437.2269	1487.4502	1490.7922	1494.6368	1500.0262	1516.1474	2225.278	3024.6274	3029.1797	3045.7778	3076.4326	3083.4834	3109.9116	3127.5652	3137.0906	3180.9186	3502.158
CC12COC1C2(C)C#C	C[C@]12CO[C@H]1[C@]2(C)C#C	
InChI=1S/C8H10O/c1-4-7(2)6-8(7,3)5-9-6/h1,6H,5H2,2-3H3	InChI=1S/C8H10O/c1-4-7(2)6-8(7,3)5-9-6/h1,6H,5H2,2-3H3/t6-,7-,8-/m0/s1
