15
gdb 10104	2.17257	1.67019	0.99262	4.3462	63.61	-0.2994	-0.0205	0.2789	1131.8078	0.116592	-399.832384	-399.823545	-399.822601	-399.866983	29.591	
C	-0.0112857936	 1.5361262595	 0.0227964569	-0.403426
C	 0.0046024501	 0.0079581008	-0.0347115426	-0.185424
C	-1.4072015014	-0.5911118496	-0.0274971384	-0.0473
O	-2.0890797735	-0.1613150017	-1.2128539711	-0.180418
C	-3.4280232251	 0.0475902724	-1.1317463097	 0.180297
O	-4.0720332451	 0.3946615506	-2.0700441798	-0.252532
C	-1.372777595	-2.0632018298	 0.0190111473	 0.290775
N	-1.3381272541	-3.2163453554	 0.0726604433	-0.301864
H	 1.0099660307	 1.9253520034	 0.0137905039	 0.132483
H	-0.5420816887	 1.9562655525	-0.8349146976	 0.148079
H	-0.4972272492	 1.8958496746	 0.9364859219	 0.121165
H	 0.5155772236	-0.3422123923	-0.9370631899	 0.140352
H	 0.5452086973	-0.408657844	 0.8216883225	 0.129801
H	-1.9534933819	-0.2386954713	 0.8585375163	 0.133638
H	-3.830826054	-0.1277098498	-0.1160224629	 0.094373
40.3143	97.5511	130.8256	148.1035	190.1724	258.3729	265.8887	342.0792	449.2661	513.7904	553.0838	659.7123	797.7298	894.3894	975.3226	994.0747	1039.2119	1060.4037	1119.9414	1124.7492	1182.6209	1283.6632	1314.5104	1364.1391	1383.0654	1413.701	1435.8685	1477.5762	1497.2553	1508.6324	1880.7757	2363.547	2959.5038	3017.795	3042.5219	3055.1153	3094.4338	3115.7683	3132.5849
CCC(OC=O)C#N	CC[C@@H](OC=O)C#N	
InChI=1S/C5H7NO2/c1-2-5(3-6)8-4-7/h4-5H,2H2,1H3	InChI=1S/C5H7NO2/c1-2-5(3-6)8-4-7/h4-5H,2H2,1H3/t5-/m1/s1
