20
gdb 118560	1.93508	1.19005	0.86324	2.8282	73.37	-0.2476	0.0317	0.2793	1404.259	0.169955	-477.43395	-477.423678	-477.422734	-477.470217	35.835	
C	-0.3455469013	 1.2397171805	 0.3429309008	-0.233589
O	-0.0936308308	-0.1157148159	 0.0385091226	-0.249383
C	-1.2753699285	-0.9000866388	-0.044227058	-0.076538
C	-0.898062058	-2.3556870164	-0.3411424621	-0.016367
C	-0.012858981	-2.4887772811	-1.5905125759	-0.087574
O	 1.3149422177	-2.0571024394	-1.3451950199	-0.427888
N	-0.2048809463	-2.9817063787	 0.7732499061	-0.262062
C	-0.8487547486	-3.4501445647	 1.8680472169	 0.155184
O	-2.0533495409	-3.4163633157	 2.0311687335	-0.340002
H	 0.6195295941	 1.7476125379	 0.4031314727	 0.133082
H	-0.9572898562	 1.7221322498	-0.4342189871	 0.1134
H	-0.8653104242	 1.3408869274	 1.3065425106	 0.119865
H	-1.8359016916	-0.8519536236	 0.8993642489	 0.125971
H	-1.926685065	-0.518865781	-0.8481490783	 0.092553
H	-1.8386146296	-2.8951634215	-0.4980537454	 0.113021
H	 0.0540484545	-3.5411999812	-1.8830803465	 0.117266
H	-0.4764505868	-1.9372307598	-2.4225613773	 0.094596
H	 1.2384934071	-1.1473261295	-1.0227609444	 0.293989
H	 0.8032539081	-2.9829037901	 0.7257823797	 0.257687
H	-0.1496919728	-3.8835768082	 2.610476803	 0.076789
40.6901	85.7889	107.4148	146.6229	172.5677	205.4167	228.5886	262.7544	293.8551	343.7107	391.5744	502.2779	574.766	648.1697	729.3952	766.7676	869.9599	925.7109	951.377	992.2733	1033.6331	1050.3231	1119.9394	1123.1664	1151.0544	1184.2457	1210.7571	1213.3225	1239.1958	1278.0043	1318.5845	1379.3199	1383.0993	1411.5275	1425.4181	1460.9185	1480.8067	1485.2536	1499.6273	1504.3818	1514.2846	1527.7447	1791.0513	2937.852	2969.4701	2986.3126	2992.5278	3035.8643	3038.8911	3062.1474	3082.3667	3122.3128	3619.0535	3729.5449
COCC(CO)NC=O	COC[C@@H](CO)NC=O	
InChI=1S/C5H11NO3/c1-9-3-5(2-7)6-4-8/h4-5,7H,2-3H2,1H3,(H,6,8)	InChI=1S/C5H11NO3/c1-9-3-5(2-7)6-4-8/h4-5,7H,2-3H2,1H3,(H,6,8)/t5-/m1/s1
