18
gdb 43116	3.6583	1.5618	1.48929	3.5399	74.4	-0.2405	-0.0087	0.2318	937.8752	0.151409	-401.941498	-401.935107	-401.934162	-401.97205	26.76	
O	-0.0073248211	-0.0041870165	 0.0095208832	-0.322062
C	-0.0248024791	 1.1865285406	 0.0320044131	 0.473932
C	-1.0724237393	 2.3151377767	 0.0413127778	-0.129794
C	-0.8093189351	 2.8567329357	 1.4738473315	-0.25508
C	 0.7167286038	 3.1586859907	 1.291892344	-0.022071
C	 0.8224352346	 4.5984598129	 0.7704958656	-0.22751
C	 0.050641998	 4.4885689891	-0.5780639143	-0.170813
N	-0.0792613759	 3.0356811917	-0.8524995232	-0.114868
C	 0.9726622152	 2.3432359744	-0.019428564	-0.147363
H	-2.0939604191	 2.199861522	-0.316191078	 0.091974
H	-1.3829401518	 3.7558293717	 1.715814174	 0.103881
H	-1.024751101	 2.1024549533	 2.2360989732	 0.116687
H	 1.347719692	 2.9254470451	 2.1494793461	 0.078728
H	 0.3742033626	 5.3184333315	 1.4621852482	 0.104064
H	 1.8653103399	 4.890350069	 0.6078468771	 0.102316
H	-0.9419142048	 4.9462638982	-0.5427826362	 0.113357
H	 0.5964779759	 4.9542449869	-1.402760535	 0.114847
H	 1.9891147053	 2.2721878171	-0.4048433631	 0.089775
155.1797	237.6703	288.676	402.4236	489.3205	541.6769	640.0947	704.2721	731.6273	767.2906	785.6577	836.788	846.2063	876.5656	897.2626	915.1225	944.8014	980.4824	999.737	1015.8885	1062.5764	1072.2826	1078.4744	1130.6755	1157.2507	1183.047	1196.6091	1203.0681	1241.8815	1260.1751	1279.5212	1292.6355	1296.2717	1333.2615	1337.7367	1492.4027	1499.0792	1516.4535	1931.5057	3043.3626	3053.3624	3061.7587	3085.0388	3096.959	3107.4099	3117.4567	3132.0013	3142.0433
O=C1C2CC3CCN2C13	O=C1[C@H]2C[C@@H]3CCN2[C@H]13	
InChI=1S/C7H9NO/c9-7-5-3-4-1-2-8(5)6(4)7/h4-6H,1-3H2	InChI=1S/C7H9NO/c9-7-5-3-4-1-2-8(5)6(4)7/h4-6H,1-3H2/t4-,5+,6-/m0/s1
