17
gdb 71057	2.46184	2.17076	1.36073	4.015	74.79	-0.2235	-0.0493	0.1742	941.3751	0.134307	-417.866505	-417.858633	-417.857689	-417.898151	31.307	
C	-0.0851180078	 1.4888874789	-0.0930377	-0.496444
C	-0.0852704663	-0.0072457174	-0.0178212105	 0.300716
N	-0.3403695123	-0.7995941946	-1.3477015066	-0.3747
C	-0.4085423371	-1.8793741693	-0.3525104748	 0.126648
N	 0.6228402684	-2.6250386463	-0.266177721	-0.154315
C	 1.2862897258	-2.202506493	 0.9859406391	-0.234601
C	 0.6547718759	-0.80098734	 1.1768494086	 0.33714
O	 1.1143988351	 0.0403591043	 2.1782668685	-0.459912
C	-0.7973223036	-0.9744000222	 0.8582303145	-0.297819
H	 0.6791623123	 1.8330363642	-0.7961697201	 0.144033
H	-1.0568731865	 1.8667709526	-0.4310583907	 0.119078
H	 0.132538228	 1.9060570447	 0.8924123104	 0.149077
H	-1.2851210158	-0.4775454801	-1.5906410201	 0.217792
H	 1.107518533	-2.8293679276	 1.8751085815	 0.097223
H	 2.364112678	-2.1921413438	 0.7929703701	 0.130951
H	 0.8679640338	-0.3338654125	 3.0323932421	 0.291435
H	-1.6869335008	-0.9304658679	 1.474938519	 0.1037
174.0823	195.6455	238.4454	262.3142	289.6171	359.3116	367.5083	434.1978	486.7226	581.7324	590.7148	644.8701	684.7094	735.426	801.6078	835.7527	912.8875	973.651	977.5949	997.0673	1017.4707	1054.4597	1097.7057	1141.0138	1143.4443	1163.0089	1169.3594	1238.652	1272.4076	1291.3467	1334.6525	1383.3939	1402.4673	1482.0784	1483.5866	1491.5899	1609.1014	2968.2556	3034.2033	3072.98	3100.2649	3136.9016	3181.6624	3355.5858	3784.6516
CC12NC3=NCC1(O)C23	C[C@@]12N[C]3[N]C[C@]1(O)[C@@H]23	
InChI=1S/C6H8N2O/c1-5-3-4(8-5)7-2-6(3,5)9/h3,9H,2H2,1H3,(H,7,8)	InChI=1S/C6H8N2O/c1-5-3-4(8-5)7-2-6(3,5)9/h3,9H,2H2,1H3,(H,7,8)/t3-,5+,6+/m1/s1
