21
gdb 102435	1.71511	1.28877	0.86943	2.7324	86.19	-0.2594	-0.0561	0.2033	1443.3144	0.178957	-387.080532	-387.069586	-387.068642	-387.117308	38.793	
C	-0.1640025831	 1.3183847531	-0.1267893221	-0.391229
C	 0.0004782986	-0.1878426414	 0.0971192811	-0.18986
C	 0.8690278041	-0.5518783248	 1.3306566827	-0.073382
C	 0.1838841843	-0.2451052951	 2.6696257471	-0.182025
C	 1.1186763502	-0.3557893056	 3.8786377028	-0.394659
C	 1.2361040058	-2.031181715	 1.2232636419	 0.220112
O	 0.7166165115	-2.9031675788	 1.8864064429	-0.299719
C	 2.251422858	-2.3552835782	 0.2286009122	 0.276056
C	 3.1036400963	-2.6122074366	-0.5822804114	-0.413248
H	 0.8083349257	 1.804316691	-0.2632559809	 0.118006
H	-0.7604027337	 1.5092326165	-1.0243169523	 0.118154
H	-0.667417774	 1.8081053487	 0.7117542358	 0.124738
H	-0.9820446868	-0.6624208706	 0.2118369674	 0.11087
H	 0.4541162925	-0.6291423958	-0.7978586436	 0.110731
H	 1.8064313619	 0.0171534095	 1.2506128123	 0.086041
H	-0.2343327126	 0.7659081366	 2.6276818679	 0.091488
H	-0.6580376063	-0.9346026007	 2.7914400517	 0.117242
H	 1.5108889995	-1.3709168742	 3.9838300065	 0.134641
H	 1.9684150501	 0.330529906	 3.7882219124	 0.109135
H	 0.5893935354	-0.106854794	 4.8033775675	 0.11364
H	 3.8541665125	-2.8568386408	-1.2942874518	 0.213268
39.4642	72.5752	104.5945	135.8732	163.2301	203.1245	220.5407	254.9112	267.511	318.4876	343.614	440.3215	493.1398	602.7235	643.7938	700.7934	710.3413	746.4556	770.0399	858.004	880.9844	939.0279	1024.9223	1034.0329	1056.6891	1075.6001	1109.6703	1134.6852	1191.0544	1266.7233	1287.0631	1330.1544	1353.3317	1369.4431	1394.4625	1411.987	1416.0094	1477.0101	1488.2647	1498.1743	1500.2931	1506.4382	1510.709	1762.8802	2207.6087	3007.103	3029.272	3034.9575	3035.8635	3048.2948	3065.4661	3083.6807	3101.9993	3103.1885	3111.3845	3121.3002	3493.9329
CCC(CC)C(=O)C#C	CCC(CC)C(=O)C#C	
InChI=1S/C8H12O/c1-4-7(5-2)8(9)6-3/h3,7H,4-5H2,1-2H3	InChI=1S/C8H12O/c1-4-7(5-2)8(9)6-3/h3,7H,4-5H2,1-2H3
