16
gdb 24363	3.61795	1.60876	1.14231	1.5992	78.29	-0.2042	-0.0281	0.1761	1018.9422	0.127913	-400.801171	-400.794582	-400.793638	-400.832119	26.17	
C	-0.0073295455	 1.4733652528	 0.1025367342	-0.267507
C	 1.3782764713	 2.1536469544	-0.0505444892	-0.333434
C	 2.1850659929	 1.413769328	-1.0704650383	 0.197171
C	 1.9541225766	 0.0984586587	-1.3231075778	 0.304823
O	 2.886704215	-0.3312047716	-2.2254743623	-0.191514
C	 3.6365244504	 0.7760271518	-2.4650206213	 0.038627
N	 3.2768918156	 1.8361606762	-1.8099336618	-0.323478
C	 0.9290775303	-0.7024721502	-0.7046460268	-0.177964
C	 0.0131270876	-0.0426795472	 0.0232946212	-0.073903
H	-0.4724754593	 1.7952739125	 1.0392291338	 0.109901
H	-0.6710585218	 1.8342954987	-0.6993923973	 0.121596
H	 1.252715287	 3.2052803535	-0.323076239	 0.122805
H	 1.9137720324	 2.1446149266	 0.9104512548	 0.117231
H	 4.4425692063	 0.6671947022	-3.1729756284	 0.147708
H	 0.9237145971	-1.7798561504	-0.8219858014	 0.106868
H	-0.7874152257	-0.584500076	 0.5164878797	 0.101072
136.5752	197.2437	270.0216	388.3483	422.5023	495.0148	584.8402	651.2574	674.4231	693.2948	750.7398	794.4411	815.4237	862.8531	903.4955	955.2594	971.1317	1017.2085	1039.4382	1114.7585	1139.1113	1163.9896	1192.8813	1232.1373	1267.0064	1292.2918	1331.3983	1354.4726	1396.119	1451.0555	1467.7758	1486.448	1523.9182	1634.533	1670.9109	2981.3525	2999.172	3075.108	3086.0203	3178.5964	3204.9669	3279.8106
C1CC2=C(OC=N2)C=C1	C1Cc2c(ocn2)C=C1	
InChI=1S/C7H7NO/c1-2-4-7-6(3-1)8-5-9-7/h2,4-5H,1,3H2	InChI=1S/C7H7NO/c1-2-4-7-6(3-1)8-5-9-7/h2,4-5H,1,3H2
