19
gdb 38932	2.81646	1.96043	1.44131	1.5495	73.42	-0.2367	0.0735	0.3101	936.6685	0.162497	-422.990909	-422.984172	-422.983228	-423.022061	27.593	
C	-0.0592462493	 1.4418172663	 0.325992587	-0.2605
C	 1.4721906522	 1.5360695929	 0.0264978128	-0.026078
C	 2.3967607507	 1.5348139487	 1.2606710365	-0.095091
O	 3.4612241493	 0.6105703032	 1.1122947812	-0.243946
C	 3.0116859586	-0.7315534458	 1.1623422865	-0.097342
C	 1.8040426401	-0.9917215765	 0.2615618059	 0.099923
O	 0.5137114261	-0.8942756553	 0.9360914343	-0.325551
C	-0.0204559524	-0.0314060427	-0.1035076639	 0.129879
C	 1.4039533255	 0.1392163573	-0.6880313599	-0.098167
H	-0.3853884109	 1.6373775682	 1.3512961639	 0.106423
H	-0.6573180829	 2.0473926528	-0.3618156852	 0.100838
H	 1.7443942785	 2.3465139992	-0.651630604	 0.076994
H	 2.8637564612	 2.5133527949	 1.4032113075	 0.105606
H	 1.8194466268	 1.2993814577	 2.1678084096	 0.096071
H	 3.8626068457	-1.3405738281	 0.8426810578	 0.10736
H	 2.7445930801	-1.0206675826	 2.192688241	 0.101923
H	 1.8892193117	-1.9743120801	-0.2214477993	 0.075319
H	-0.8748682476	-0.4836248067	-0.6149331846	 0.071963
H	 1.6691930065	 0.0933110365	-1.7420731871	 0.074378
84.1672	264.3857	315.7443	348.3212	386.8669	451.5532	520.8828	634.3701	740.8203	775.1886	798.8154	840.9881	856.8515	908.7167	926.5504	942.9468	981.1613	982.93	997.1687	1040.1883	1059.7775	1087.7072	1111.2153	1140.6229	1160.9956	1187.7204	1209.6614	1239.3544	1261.2414	1275.2287	1283.1302	1309.7501	1315.4198	1337.5457	1348.8997	1376.5604	1390.4128	1417.36	1468.3218	1480.2297	1497.5802	2971.464	2985.5554	3007.2684	3048.6154	3066.7627	3074.2773	3082.9202	3092.5432	3108.4516	3132.9246
C1C2COCC3OC1C23	C1[C@H]2COC[C@H]3O[C@@H]1[C@@H]23	
InChI=1S/C7H10O2/c1-4-2-8-3-6-7(4)5(1)9-6/h4-7H,1-3H2	InChI=1S/C7H10O2/c1-4-2-8-3-6-7(4)5(1)9-6/h4-7H,1-3H2/t4-,5-,6+,7+/m0/s1
