13
gdb 5158	5.43323	1.44869	1.34384	3.6676	61.3	-0.2378	-0.0004	0.2375	902.877	0.097294	-394.802469	-394.795422	-394.794478	-394.834933	24.529	
N	 0.027589946	 1.0301356666	-0.7645495063	-0.434949
C	 0.0048983002	 0.0315752273	 0.0178356817	 0.063809
N	-1.1755277191	-0.5221747118	 0.4812041347	-0.415189
C	-2.4282255251	 0.0035283528	 0.208858321	 0.400171
C	-3.4827415323	-0.4124741964	-0.5322800385	-0.150282
N	-4.5207188978	 0.5007295278	-0.4158074878	-0.261067
C	-4.04424107	 1.4127578067	 0.3694205762	 0.089823
O	-2.7893240219	 1.1922008082	 0.8059748029	-0.154031
H	 0.9857765029	 1.2710689588	-1.0055842748	 0.227125
H	 0.876746527	-0.5097153043	 0.4051924821	 0.095144
H	-1.1036741173	-1.2519084688	 1.1715345847	 0.260205
H	-3.562519836	-1.2985109814	-1.1412209224	 0.128016
H	-4.5239208865	 2.3183806447	 0.7070860365	 0.151225
33.7569	116.0793	158.5539	311.6318	318.7437	445.294	604.7862	652.1048	672.1659	807.0745	839.1777	848.5605	884.8071	934.3741	977.2166	1050.6905	1083.2228	1129.154	1145.4458	1207.6163	1251.8605	1293.6617	1345.9615	1408.962	1499.7848	1543.1263	1664.7564	1739.4445	3045.4515	3268.0636	3272.4045	3522.9695	3630.1345
N=CNC1=CN=CO1	N=CNc1cnco1	
InChI=1S/C4H5N3O/c5-2-7-4-1-6-3-8-4/h1-3H,(H2,5,7)	InChI=1S/C4H5N3O/c5-2-7-4-1-6-3-8-4/h1-3H,(H2,5,7)
