19
gdb 100599	3.57276	0.90565	0.77551	2.2691	77.14	-0.2506	0.0056	0.2562	1503.9435	0.157705	-456.388059	-456.377592	-456.376647	-456.424904	35.408	
C	-0.0631809173	 1.5643278166	-0.0699897677	-0.378915
C	-0.0775698621	 0.034730967	-0.0171014089	-0.15146
N	-1.4277645975	-0.5269439673	 0.0528951644	-0.149483
C	-2.1266109681	-0.7615338093	-1.2020740581	-0.354082
C	-1.958849667	-0.7222280349	 1.2834302072	 0.551316
O	-1.4051308328	-0.4837798913	 2.3347142548	-0.420825
O	-3.237076189	-1.2460624673	 1.1976692061	-0.230079
C	-3.893129437	-1.4888021385	 2.372243024	 0.119263
N	-5.0580046738	-1.962128705	 2.3094840381	-0.43539
H	 0.9650328651	 1.9289578616	-0.1569634189	 0.121253
H	-0.6282098672	 1.9442931958	-0.9269947739	 0.11895
H	-0.4973171079	 1.9779967892	 0.8440086935	 0.142663
H	 0.4032781167	-0.3861983856	-0.9069063977	 0.10579
H	 0.4712886808	-0.3131181447	 0.8594850757	 0.143517
H	-1.5812944256	-1.4956891169	-1.807193609	 0.129887
H	-3.127878996	-1.1364660149	-1.0095066729	 0.176734
H	-2.2030508314	 0.1673712246	-1.7794228633	 0.130051
H	-3.2968999795	-1.2306462468	 3.2474849215	 0.144778
H	-5.4236616405	-2.0917737923	 3.2515290651	 0.236033
49.6631	60.4871	86.8976	115.0782	142.8569	171.9363	177.9561	237.4809	355.0474	375.3238	407.2844	489.4941	565.7166	653.9269	764.1801	789.4092	847.8488	848.7517	941.8597	1018.7478	1071.5102	1083.5238	1100.4556	1106.8667	1159.3699	1188.6853	1257.0425	1281.7487	1331.6196	1383.5374	1393.7837	1410.9381	1438.8591	1470.0427	1483.2446	1491.9339	1497.699	1504.9878	1527.2968	1746.5398	1808.1774	3023.402	3041.9219	3048.5724	3070.7973	3105.2868	3120.6922	3133.038	3141.3645	3192.6083	3508.9572
CCN(C)C(=O)OC=N	CCN(C)C(=O)O[CH][NH]	
InChI=1S/C5H10N2O2/c1-3-7(2)5(8)9-4-6/h4,6H,3H2,1-2H3	InChI=1S/C5H10N2O2/c1-3-7(2)5(8)9-4-6/h4,6H,3H2,1-2H3
