22
gdb 23043	2.29496	1.10217	1.05702	0.4815	86.79	-0.225	0.0098	0.2348	1344.451	0.191416	-404.305202	-404.294341	-404.293397	-404.341953	39.187	
C	-0.1843993716	 1.4669621763	-1.2622634937	-0.411395
C	-0.1053807553	 0.1183189182	-0.5833516202	-0.023868
C	 1.1839452423	-0.6156234308	-0.341937855	-0.023483
C	 2.5376627522	-0.0773815466	-0.745707422	-0.411924
C	 0.3929446173	-0.0702238359	 0.8537701813	-0.119304
C	 0.846281583	 1.0138565911	 1.7660957791	 0.370614
C	 0.5347931036	 0.876246496	 3.2381645407	-0.477586
N	 1.4836847083	 2.0279186583	 1.3045565906	-0.198442
O	 1.8221700697	 2.9318003565	 2.3308301091	-0.396712
H	 0.6141221095	 2.1355782108	-0.9411130032	 0.145279
H	-0.1284129235	 1.3484993415	-2.3503911598	 0.109419
H	-1.1366810518	 1.9569082094	-1.03133579	 0.111686
H	-0.9526426831	-0.5232031924	-0.8167471893	 0.082333
H	 1.1130908142	-1.6975962451	-0.431740378	 0.082437
H	 2.6313291826	 0.9897071718	-0.5432785749	 0.145379
H	 3.3336760884	-0.5886812088	-0.1932895013	 0.111557
H	 2.7133804451	-0.2489557397	-1.8138419835	 0.10999
H	-0.145722215	-0.8361006402	 1.4016041414	 0.081235
H	 1.4595295493	 0.8914157677	 3.8236919768	 0.146775
H	-0.0586157679	 1.7296848395	 3.5814119385	 0.14665
H	-0.0080816905	-0.0452296677	 3.4517744805	 0.116081
H	 2.2815997331	 3.6231732601	 1.8436209328	 0.30328
27.524	60.1532	129.0875	149.1907	177.0109	187.1421	230.6316	287.5039	308.1241	341.8333	378.4977	454.1201	461.6322	502.5957	613.7859	673.4816	724.1519	769.0134	801.7359	938.1401	944.4125	955.2332	1004.7392	1035.9138	1038.9582	1054.7503	1091.0184	1113.1939	1142.8869	1158.8914	1198.5913	1205.1069	1285.2202	1378.1621	1383.7672	1401.9905	1415.6369	1420.4459	1425.5978	1440.123	1474.0727	1484.3227	1486.26	1497.2334	1505.1146	1515.7272	1700.8943	3031.6702	3034.2089	3045.9949	3084.8458	3086.3217	3101.5402	3112.5029	3123.2624	3140.107	3147.0874	3154.2971	3160.2645	3826.0462
CC1C(C)C1C(C)=NO	C[C@H]1[C@@H](C)[C@H]1C(=NO)C	
InChI=1S/C7H13NO/c1-4-5(2)7(4)6(3)8-9/h4-5,7,9H,1-3H3	InChI=1S/C7H13NO/c1-4-5(2)7(4)6(3)8-9/h4-5,7,9H,1-3H3/t4-,5+,7-
