15
gdb 45293	2.95289	1.76763	1.31313	4.7799	64.77	-0.2648	-0.0128	0.252	941.5296	0.113558	-457.735644	-457.728963	-457.728019	-457.766825	25.955	
O	-0.0823863626	 0.0461064017	 0.0347545639	-0.324561
C	 0.0413023763	 1.2244103342	 0.0109364263	 0.409872
O	-0.9616458663	 2.1907003832	 0.1055718803	-0.267152
C	-0.0653521077	 3.2998474413	-0.2081538035	 0.0485
C	 0.3978091442	 4.0846442058	 1.0404954046	-0.272102
C	 1.54418744	 3.0563824012	 1.2308485241	-0.125978
C	 2.8461742477	 3.2421434829	 0.4047996112	-0.11543
O	 2.3767142574	 2.3425313117	-0.6487829435	-0.316735
C	 1.11459992	 2.2899630648	-0.0566692097	 0.251749
H	-0.3599559186	 3.7980313808	-1.1302450291	 0.108546
H	 0.7284826063	 5.1048923935	 0.8288745912	 0.117886
H	-0.3418003998	 4.1081656834	 1.8430255242	 0.132235
H	 1.6622034455	 2.5597634645	 2.1919772769	 0.106279
H	 3.0210234955	 4.2528951438	 0.0193513281	 0.116463
H	 3.7595217723	 2.8559656673	 0.8645829249	 0.130426
142.7249	154.689	276.6275	309.8051	391.4704	463.2843	584.2853	666.0592	728.2931	750.0233	794.9242	835.1818	882.6183	920.9456	955.7394	962.6014	981.8014	1034.0687	1048.3622	1065.8656	1113.2885	1146.871	1157.3006	1191.9754	1219.421	1255.6606	1287.5917	1302.8581	1335.2536	1360.1565	1460.4117	1514.6685	1945.6906	3038.4271	3069.257	3101.1767	3124.8515	3134.606	3137.2153
O=C1OC2CC3COC123	O=C1O[C@H]2C[C@@H]3CO[C@]123	
InChI=1S/C6H6O3/c7-5-6-3(2-8-6)1-4(6)9-5/h3-4H,1-2H2	InChI=1S/C6H6O3/c7-5-6-3(2-8-6)1-4(6)9-5/h3-4H,1-2H2/t3-,4+,6+/m1/s1
