23
gdb 60272	3.69287	0.82928	0.80461	1.0556	82.69	-0.2516	0.0873	0.3389	1585.8451	0.205157	-425.438541	-425.428465	-425.427521	-425.474924	36.235	
C	 0.0367112309	 1.5473202307	-0.0472368605	-0.388842
C	 0.0101676045	 0.0121420963	-0.0195725723	 0.044111
C	 0.6237392467	-0.5613660716	-1.3038324381	-0.390136
C	 0.7261890146	-0.5715766022	 1.2118153168	-0.210351
C	 0.0750493597	-0.2352201808	 2.5405860694	 0.209603
O	-1.2720697942	-0.6914269111	 2.571467646	-0.268174
C	-1.5477113274	-1.1570832836	 3.8888789071	-0.086085
C	-0.2120468707	-0.971066936	 4.6373184241	-0.112442
O	 0.7394017363	-0.9039367022	 3.5891145714	-0.247698
H	 1.0672499502	 1.9230478614	-0.0597227545	 0.109009
H	-0.4636475108	 1.926546114	-0.9444535027	 0.110066
H	-0.4692602665	 1.9845768494	 0.8185140808	 0.117932
H	-1.0370284763	-0.3102116299	 0.0319308149	 0.094284
H	 1.6780928238	-0.2738929947	-1.3990127561	 0.109803
H	 0.5755029786	-1.655293304	-1.3160552214	 0.110635
H	 0.0987885265	-0.1911568536	-2.1906531065	 0.108449
H	 0.7560465487	-1.6646709161	 1.1423134315	 0.102721
H	 1.7651559074	-0.2193609426	 1.2462537958	 0.100154
H	 0.0859823549	 0.85279893	 2.7394502792	 0.059485
H	-2.3616789281	-0.5778855108	 4.3412163074	 0.102784
H	-1.8518415963	-2.2091174975	 3.8384218582	 0.108852
H	-0.2140596496	-0.0410531376	 5.2261432073	 0.097804
H	 0.0481267771	-1.8045804573	 5.2930839119	 0.118035
35.5101	56.5023	88.9907	125.9055	204.988	227.3659	245.0422	303.7977	333.774	412.2735	437.8835	530.6562	692.3622	722.9665	825.939	832.2602	877.479	928.5825	943.8284	955.1928	964.983	975.7567	1002.1571	1054.987	1076.368	1144.6702	1150.203	1164.9259	1176.4905	1194.5359	1225.4041	1246.1581	1262.4812	1305.2529	1344.4026	1367.5774	1372.5957	1377.8115	1399.993	1401.7369	1421.0537	1441.8278	1475.2745	1487.6631	1494.1731	1504.8864	1510.6801	1515.5263	1532.6621	2922.8025	2988.2543	3021.4765	3023.1497	3025.4991	3027.4904	3038.6698	3060.3113	3078.9813	3085.9976	3094.523	3098.7126	3104.9822	3109.0066
CC(C)CC1OCCO1	CC(C)CC1OCCO1	
InChI=1S/C7H14O2/c1-6(2)5-7-8-3-4-9-7/h6-7H,3-5H2,1-2H3	InChI=1S/C7H14O2/c1-6(2)5-7-8-3-4-9-7/h6-7H,3-5H2,1-2H3
