18
gdb 6647	6.99904	0.74307	0.68296	2.8836	74.73	-0.2469	-0.0124	0.2345	1604.5237	0.149864	-347.798946	-347.789099	-347.788155	-347.835228	33.75	
C	-0.0844429483	 1.5413243405	 0.0112779924	-0.47304
C	 0.0832042084	 0.0314844107	 0.0018569843	 0.373184
O	 1.1738945062	-0.4906354607	-0.0118592955	-0.285753
C	-1.2028063328	-0.7886962408	 0.0095406334	-0.303345
C	-0.9675490416	-2.2977868885	-0.0008735653	-0.164335
C	-2.2887425812	-3.0917417692	 0.0072777552	-0.363702
C	-2.0838415561	-4.5351833467	-0.0024714872	 0.291734
C	-1.8901700569	-5.7213535937	-0.0107858479	-0.431128
H	 0.8940974325	 2.0226299607	 0.0043506741	 0.143994
H	-0.6615631499	 1.8677724903	-0.8612332577	 0.137689
H	-0.6446534101	 1.8586625604	 0.8980486741	 0.137661
H	-1.7913225287	-0.4864531693	 0.8882138717	 0.118749
H	-1.8077502617	-0.47700591	-0.8545632565	 0.118778
H	-0.3792101594	-2.5729706731	-0.8808988085	 0.125924
H	-0.3627525865	-2.5824541735	 0.8648639978	 0.125908
H	-2.8798457806	-2.8146710681	 0.8907813381	 0.126913
H	-2.8963662623	-2.8051716973	-0.8618729768	 0.126915
H	-1.7270692209	-6.7703266419	-0.0180607756	 0.193855
26.3295	75.1252	91.4241	93.3998	123.545	206.6159	297.0478	348.9627	383.6688	477.8099	520.1709	600.9526	616.8794	636.6194	723.5532	809.0464	819.6212	935.5486	959.8428	966.5068	1041.3971	1076.7737	1104.0098	1175.4476	1176.4767	1272.8591	1293.9033	1319.0505	1359.0014	1382.8708	1393.4932	1450.6021	1465.4369	1473.6926	1477.1955	1495.6981	1813.3239	2240.0801	3005.964	3010.808	3032.8831	3036.893	3038.0716	3067.3642	3096.5587	3109.3611	3152.7455	3507.8978
CC(=O)CCCC#C	CC(=O)CCCC#C	
InChI=1S/C7H10O/c1-3-4-5-6-7(2)8/h1H,4-6H2,2H3	InChI=1S/C7H10O/c1-3-4-5-6-7(2)8/h1H,4-6H2,2H3
