22
gdb 13720	5.55629	0.82165	0.76881	0.9138	80.38	-0.2464	0.0905	0.3368	1577.7465	0.198685	-350.189228	-350.179429	-350.178485	-350.224528	34.886	
C	 0.3247268045	 1.4996106956	 0.0651110724	-0.383681
C	-0.0229533008	 0.0263857872	-0.0687668891	-0.023507
O	 0.6900343504	-0.5075215115	-1.1631539345	-0.242595
C	 0.4206900165	-1.8774777619	-1.3885692732	-0.072786
C	 1.1920178125	-2.3226026714	-2.6020850362	-0.008441
C	 2.6315517833	-2.7622312042	-2.4835339346	-0.284122
C	 1.5677620604	-3.7681811213	-2.8487781937	 0.000763
C	 1.1973785338	-4.9008770351	-1.9139503044	-0.406099
H	 1.3983861365	 1.6266805059	 0.2305703968	 0.125887
H	 0.0533580618	 2.0412181181	-0.8455489123	 0.125253
H	-0.2125295706	 1.9447481178	 0.9080185104	 0.111814
H	 0.2344427994	-0.5167740661	 0.8575177897	 0.080705
H	-1.1091679493	-0.1017817684	-0.220093104	 0.081376
H	 0.7003216304	-2.469275066	-0.5016087246	 0.078994
H	-0.6629440634	-2.0262586819	-1.5428427801	 0.08112
H	 0.9419804064	-1.7455809987	-3.488245324	 0.086939
H	 3.3408620936	-2.4407443778	-3.2381217634	 0.108585
H	 3.0468451261	-2.8198659326	-1.4815551379	 0.108126
H	 1.5450333113	-4.0549344818	-3.8973953239	 0.082597
H	 1.2936144331	-4.6155255444	-0.8626081831	 0.116616
H	 0.1665664724	-5.2363593519	-2.0753584292	 0.115407
H	 1.8546152416	-5.7622691794	-2.0770176911	 0.117049
48.404	82.2391	104.2144	133.4087	193.2104	222.1152	248.8644	279.3824	368.2242	405.5202	453.2192	534.8954	762.8482	821.7964	833.6185	863.8773	890.5557	921.5831	943.1827	997.0997	1044.3482	1059.7432	1080.8565	1111.4996	1138.9098	1150.3152	1160.4768	1182.749	1200.2792	1201.2442	1248.0351	1277.3585	1295.8262	1362.8071	1394.4305	1404.8976	1418.1481	1427.2629	1461.9181	1483.5949	1492.3563	1494.8807	1499.8397	1509.2028	1513.5469	1536.3514	2938.2745	2950.5254	2966.513	2980.7309	3029.2725	3044.1558	3085.6516	3104.2189	3118.1297	3120.7414	3126.1445	3131.814	3146.5003	3210.729
CCOCC1CC1C	CCOC[C@H]1C[C@H]1C	
InChI=1S/C7H14O/c1-3-8-5-7-4-6(7)2/h6-7H,3-5H2,1-2H3	InChI=1S/C7H14O/c1-3-8-5-7-4-6(7)2/h6-7H,3-5H2,1-2H3/t6-,7-/m1/s1
