18
gdb 96292	2.39167	1.64859	1.19594	4.2818	68.03	-0.2535	0.0344	0.2879	1064.7826	0.149576	-476.263507	-476.255348	-476.254404	-476.296325	30.839	
C	-0.3068296889	 1.4842283646	 0.09956851	-0.388929
C	 0.0742114377	 0.0044636718	-0.044518215	 0.005668
C	 0.7658135949	-0.2984381923	-1.3766976701	-0.076917
O	 1.9665072381	 0.4329306217	-1.5598056333	-0.220187
C	 2.9751114696	 0.0851721855	-0.6696108814	 0.01629
O	 2.8365301862	 0.6551979942	 0.6292332693	-0.233489
C	 2.0368977798	 0.0589366053	 1.5648873241	 0.422559
O	 2.3627841184	 0.0358368587	 2.72324506	-0.366137
N	 0.8672423726	-0.4990385736	 1.0897890802	-0.357918
H	 0.5836044646	 2.1155759624	 0.0674780888	 0.152334
H	-0.9721145805	 1.7892632148	-0.7144444235	 0.11793
H	-0.8235505988	 1.6568620345	 1.0476208389	 0.121858
H	-0.8391711988	-0.6016917259	-0.0389781807	 0.095786
H	 0.9685199401	-1.3778509079	-1.4421212511	 0.10204
H	 0.1114905634	-0.0138302506	-2.2052584808	 0.116528
H	 3.0587793174	-1.0075577655	-0.5744836345	 0.104551
H	 3.8989907277	 0.5133166872	-1.0597695516	 0.132416
H	 0.3229413865	-0.8552735549	 1.8623139105	 0.255615
83.1229	138.3675	197.9641	221.8988	289.8036	328.0799	408.9865	435.7383	467.7068	524.7067	622.0649	671.3144	742.0438	800.7263	804.0635	851.9547	925.3425	967.6266	1022.8884	1026.4689	1059.8115	1129.0314	1161.4299	1169.7118	1184.8707	1282.1448	1303.296	1337.1711	1351.5603	1388.5067	1405.0873	1423.2318	1458.8868	1462.7104	1482.5354	1492.9816	1504.233	1505.9652	1842.419	2996.0048	3000.92	3044.1348	3047.615	3096.6491	3114.7721	3131.8074	3139.5159	3608.3666
CC1COCOC(=O)N1	C[C@H]1COCOC(=O)N1	
InChI=1S/C5H9NO3/c1-4-2-8-3-9-5(7)6-4/h4H,2-3H2,1H3,(H,6,7)	InChI=1S/C5H9NO3/c1-4-2-8-3-9-5(7)6-4/h4H,2-3H2,1H3,(H,6,7)/t4-/m0/s1
