17
gdb 16692	4.2729	1.66173	1.53352	2.1962	69.73	-0.2181	0.0115	0.2296	889.4299	0.143767	-363.819836	-363.812917	-363.811973	-363.850621	27.606	
C	-0.0163321206	 1.4419399913	 0.0848906906	-0.513839
C	-0.0449028824	-0.0457293893	 0.0086969971	 0.337972
C	-0.0492003749	-0.8924498426	-1.0337876068	-0.20611
C	 0.0300862315	-2.2596950109	-0.3630169353	-0.100527
N	-0.8873931683	-2.1480543037	 0.8274580021	-0.333766
C	 0.0284117104	-1.0117447961	 1.1958824364	-0.158117
C	 1.1808535803	-1.9829900756	 0.6937610925	 0.217572
O	 1.5271030328	-3.0272807552	 1.5361520604	-0.446313
H	 0.8893002968	 1.7968342039	 0.5931875124	 0.132623
H	-0.0413319571	 1.8937741645	-0.9107655482	 0.127744
H	-0.8663986884	 1.8334569625	 0.6580713439	 0.127558
H	-0.023126796	-0.6825872126	-2.0941723202	 0.10068
H	-0.0136401302	-3.1714042872	-0.9589398287	 0.069523
H	-1.8201636335	-1.8239216864	 0.5661051268	 0.20304
H	-0.0138630165	-0.6273103201	 2.2160975899	 0.067032
H	 2.0941004744	-1.5186425802	 0.3202166896	 0.087639
H	 0.6856330719	-3.4028308723	 1.8346186077	 0.28729
163.5354	165.6596	259.2359	307.6152	380.1251	495.4915	542.3033	575.791	594.9383	651.3591	771.5025	796.4333	838.8847	896.7873	900.3895	924.0274	942.7295	1007.5131	1030.8862	1060.5159	1075.5266	1101.7724	1150.5668	1186.0597	1201.3569	1211.0857	1241.0578	1286.481	1297.1449	1309.1064	1318.1976	1414.4036	1438.7244	1478.5875	1486.7354	1671.4444	3016.1819	3061.3137	3107.0005	3109.3783	3118.2682	3124.3482	3227.1248	3435.0077	3734.0004
CC1=CC2NC1C2O	CC1=C[C@@H]2N[C@H]1[C@H]2O	
InChI=1S/C6H9NO/c1-3-2-4-6(8)5(3)7-4/h2,4-8H,1H3	InChI=1S/C6H9NO/c1-3-2-4-6(8)5(3)7-4/h2,4-8H,1H3/t4-,5+,6-/m0/s1
