18
gdb 45552	3.68919	1.36068	1.12929	4.6578	72.33	-0.2471	0.0594	0.3065	1093.959	0.150821	-439.129662	-439.122351	-439.121406	-439.162908	28.104	
N	 0.0173332388	 1.1831340174	 0.4180999105	-0.572602
C	 0.0382710721	 0.0239482527	-0.0684763848	 0.476383
O	 1.1069156532	-0.6024760617	-0.6418551557	-0.261645
C	 0.7529078694	-1.9291910566	-1.0416302569	 0.082485
C	 1.497405466	-3.0243737618	-0.2578587883	-0.23915
C	 0.4057340123	-4.0634946868	 0.060781075	-0.213005
C	-0.834266998	-3.2027556976	 0.3666605797	-0.23956
C	-0.7438388411	-2.0465179121	-0.6448809337	 0.090567
O	-1.0554336577	-0.7733581788	-0.0798586312	-0.237072
H	 0.9331269977	 1.6152651009	 0.3246907102	 0.229164
H	 0.9140292216	-2.0082395439	-2.1200268226	 0.098298
H	 2.347077861	-3.4364033722	-0.8066699687	 0.10886
H	 1.8815248872	-2.5805626316	 0.666752303	 0.12211
H	 0.220420964	-4.6988442832	-0.8139830577	 0.107288
H	 0.6776764877	-4.7258579133	 0.8861278012	 0.11269
H	-1.7757577282	-3.7521644884	 0.3003601802	 0.110049
H	-0.7659054266	-2.7794548049	 1.3743081639	 0.12549
H	-1.3998949794	-2.198851478	-1.5060296541	 0.099654
22.5919	95.402	213.3959	344.013	418.0134	482.9837	530.8572	609.1755	711.0457	719.227	724.9372	795.0119	811.4107	860.0162	912.3754	917.5088	927.6042	940.0661	1005.5723	1026.3958	1041.018	1098.9709	1112.1437	1133.0987	1178.3396	1198.8245	1232.1905	1256.7208	1294.8576	1314.4567	1330.72	1345.9909	1371.791	1372.4805	1410.3312	1486.3026	1492.9258	1506.03	1795.2033	3036.6867	3056.1383	3059.0137	3062.2038	3076.0156	3102.3833	3112.8008	3118.0307	3539.6078
N=C1OC2CCCC2O1	[NH][C]1O[C@H]2CCC[C@H]2O1	
InChI=1S/C6H9NO2/c7-6-8-4-2-1-3-5(4)9-6/h4-5,7H,1-3H2	InChI=1S/C6H9NO2/c7-6-8-4-2-1-3-5(4)9-6/h4-5,7H,1-3H2/t4-,5+
