19
gdb 117584	2.87222	0.90546	0.75596	1.8737	75.56	-0.259	0.0194	0.2783	1512.1733	0.159018	-419.184268	-419.174494	-419.17355	-419.219812	34.5	
O	-0.0447738755	 1.4802678487	-0.0129945666	-0.412386
C	 0.0246240385	 0.0663912535	 0.0262477159	-0.080046
C	-1.3645685395	-0.5779114489	 0.0113989151	-0.203173
C	-1.3356087633	-2.1236307313	-0.0580506862	-0.179376
C	-0.6716416057	-2.6860826545	 1.1228390334	 0.27698
N	-0.1781908942	-3.1237073166	 2.0726561304	-0.339685
C	-2.742335897	-2.7016223441	-0.2274783281	 0.016153
C	-3.096769441	-4.0797030036	 0.1835017569	-0.25834
N	-3.6385218076	-2.9157699532	 0.9124187688	-0.316237
H	-0.3865931219	 1.7859056311	 0.8332172939	 0.286675
H	 0.5796779364	-0.2295217316	-0.8716465285	 0.114913
H	 0.6005567848	-0.2879664418	 0.8938376433	 0.114993
H	-1.9289720824	-0.2703108931	 0.9001550239	 0.113202
H	-1.9140994478	-0.2083172745	-0.8604932668	 0.121754
H	-0.742168916	-2.4187056518	-0.9350377503	 0.134651
H	-3.2429206096	-2.2791381125	-1.0966542105	 0.105383
H	-3.8259936335	-4.6421940573	-0.3918847649	 0.125028
H	-2.3339722953	-4.6806895262	 0.6705089643	 0.13634
H	-3.1296888291	-2.8042159525	 1.7880357459	 0.243168
64.2312	90.2128	94.4576	132.9637	157.5403	221.9924	290.0456	299.7923	337.8565	403.9562	450.8332	600.3168	637.6501	769.9823	787.0932	841.5266	882.3716	945.1489	980.5461	1000.0424	1030.042	1076.0161	1084.8823	1096.2012	1132.6259	1147.3104	1163.8049	1193.7179	1258.2178	1271.689	1305.6976	1311.8024	1336.9416	1348.0273	1404.2405	1408.5782	1426.1056	1484.9376	1512.5552	1513.6418	2350.5383	3000.7433	3014.6042	3037.9475	3061.0285	3093.5097	3116.2592	3125.715	3204.0069	3481.7654	3819.1269
OCCC(C#N)C1CN1	OCC[C@@H](C#N)[C@H]1CN1	
InChI=1S/C6H10N2O/c7-3-5(1-2-9)6-4-8-6/h5-6,8-9H,1-2,4H2	InChI=1S/C6H10N2O/c7-3-5(1-2-9)6-4-8-6/h5-6,8-9H,1-2,4H2/t5-,6+/m0/s1
