22
gdb 19965	3.61372	1.41204	1.15418	0.0637	82.14	-0.2601	0.0847	0.3447	1131.8606	0.201008	-313.050303	-313.041881	-313.040937	-313.083252	32.422	
C	-0.2091796119	 1.5078648013	-0.0105531532	-0.393488
C	 0.0028407886	-0.0031058897	 0.0354985489	 0.005545
C	 1.1292910096	-0.5118114599	-0.9132052367	-0.221295
C	 2.0930100213	-0.5788403384	 0.3010956281	-0.2381
C	 0.8557701309	-0.5330031853	 1.2434984599	 0.037319
C	 0.9326588547	 0.2463064166	 2.5272858534	 0.021528
C	-0.0669434505	 0.0031086045	 3.633522874	-0.271533
C	 1.3665979637	-0.4327008919	 3.8046867203	-0.277175
H	 0.7365485243	 2.056430703	 0.0651008769	 0.110765
H	-0.6798784822	 1.7995988715	-0.9558828274	 0.108797
H	-0.8559231286	 1.8469928234	 0.8053458027	 0.116396
H	-0.9640702662	-0.50235061	-0.0839168579	 0.060065
H	 0.9110069351	-1.5032380763	-1.3200120693	 0.095186
H	 1.4090512013	 0.1460323711	-1.7409848801	 0.090178
H	 2.7555354251	-1.4443236879	 0.38054084	 0.092227
H	 2.7026934547	 0.3255387105	 0.3926545814	 0.09652
H	 0.537872094	-1.5576431268	 1.4727209929	 0.058828
H	 1.2642366489	 1.2752603246	 2.4141998528	 0.075866
H	-0.4204196017	 0.8516661609	 4.2090500764	 0.107945
H	-0.8150001941	-0.7674781166	 3.4768636676	 0.108069
H	 1.5820247389	-1.4956194614	 3.7644849524	 0.108341
H	 1.993451924	 0.1193460369	 4.496387787	 0.108017
72.674	110.2349	155.3436	235.6353	256.4601	286.9201	367.1106	406.0705	485.783	658.8528	746.2722	785.2772	799.6176	829.0062	885.4785	896.3467	913.3096	917.0475	955.9079	976.6752	994.9055	1036.5971	1055.2768	1073.6021	1079.7524	1107.7106	1140.0631	1165.9132	1197.964	1213.3218	1216.6451	1230.1274	1259.3599	1260.8682	1281.694	1286.376	1320.086	1366.6771	1411.2245	1435.3379	1469.4763	1481.4455	1497.6846	1499.2205	1500.9128	1505.6185	3021.328	3025.8883	3042.5723	3049.5666	3056.4785	3090.1169	3092.5539	3097.1138	3110.0947	3126.4373	3130.8796	3138.297	3203.8877	3219.3802
CC1CCC1C1CC1	C[C@H]1CC[C@H]1C1CC1	
InChI=1S/C8H14/c1-6-2-5-8(6)7-3-4-7/h6-8H,2-5H2,1H3	InChI=1S/C8H14/c1-6-2-5-8(6)7-3-4-7/h6-8H,2-5H2,1H3/t6-,8+/m0/s1
