22
gdb 39490	2.1335	1.81669	1.23185	1.4066	87.55	-0.2226	0.0201	0.2427	1112.4231	0.198081	-367.195771	-367.187832	-367.186888	-367.227727	32.531	
C	-0.5317098373	 1.55888098	 0.0500416752	-0.182845
C	 0.5837030881	 2.6105506151	-0.0732599933	-0.172132
C	 1.4360531933	 2.6078978347	-1.3602657538	-0.215981
C	 2.6726860623	 1.7116399428	-1.3705399167	-0.01474
N	 2.8762851422	 0.7696068754	-0.2646455578	-0.330643
C	 2.6189747383	 0.2271343825	-1.6118139202	-0.06398
C	 1.3545785048	-0.4774566322	-1.9222824335	-0.021259
C	 0.2186590326	-0.5284733838	-1.2216957232	-0.082591
C	-0.0826850475	 0.0794274832	 0.1251070935	-0.241056
H	-1.0942219398	 1.7887243266	 0.9637483279	 0.087516
H	-1.2400365756	 1.6804272895	-0.7808324506	 0.086754
H	 0.1000372015	 3.5928992207	-0.0067114416	 0.084914
H	 1.2503676838	 2.5330499402	 0.7923053185	 0.106853
H	 0.8023400556	 2.3609820797	-2.2216868954	 0.103515
H	 1.7880152703	 3.6317040986	-1.5313880254	 0.092774
H	 3.5665298209	 2.1982783137	-1.7580599536	 0.079939
H	 3.8621549474	 0.6818349388	-0.0378184581	 0.23073
H	 3.4815329795	-0.1761747598	-2.1402241444	 0.077562
H	 1.3681677677	-0.9654193885	-2.8956721243	 0.077289
H	-0.614017341	-1.0525929905	-1.6888696802	 0.081374
H	 0.7861437773	 0.0057082477	 0.7809573565	 0.131516
H	-0.8929662046	-0.4984621445	 0.5842625708	 0.084491
140.4996	192.7892	223.56	254.6174	303.0234	325.3379	400.7588	458.8935	548.3664	586.5671	678.6986	730.0705	757.024	781.1596	810.8238	857.8333	885.6313	893.0311	937.8434	954.2328	990.1548	1006.2745	1023.8341	1046.4077	1086.3007	1110.9134	1125.8152	1169.7692	1193.296	1196.826	1242.4201	1261.8818	1284.3335	1295.9482	1312.7939	1358.5753	1377.128	1382.1475	1391.1885	1411.4429	1438.0987	1462.1186	1475.4075	1480.4706	1487.4694	1490.3138	1727.8207	3008.0621	3020.0998	3028.3599	3034.2483	3049.5332	3057.636	3078.4626	3103.2571	3113.1531	3116.4565	3128.0389	3148.1246	3512.2286
C1CCC2NC2C=CC1	C1CC[C@H]2N[C@H]2C=CC1	
InChI=1S/C8H13N/c1-2-4-6-8-7(9-8)5-3-1/h3,5,7-9H,1-2,4,6H2/b5-3-	InChI=1S/C8H13N/c1-2-4-6-8-7(9-8)5-3-1/h3,5,7-9H,1-2,4,6H2/b5-3-/t7-,8+/m0/s1
