18
gdb 44232	3.89282	1.22401	1.14445	3.7473	76.5	-0.2419	0.0272	0.2691	1113.3224	0.148861	-401.940166	-401.932614	-401.93167	-401.97231	29.866	
O	-0.0234860171	 0.0578173356	-0.1167858298	-0.357143
C	 0.00462132	 1.2524494041	 0.0015009004	 0.414099
N	-0.9972418132	 2.2070208816	 0.0787054895	-0.314048
C	-0.0911086521	 3.3609609354	 0.0468299275	-0.091876
C	 1.0977647911	 2.3400986969	 0.0573615771	-0.180785
C	 1.5173485835	 2.821340971	-1.3693741817	-0.330678
C	 0.3513609997	 3.8263182366	-1.3481027513	 0.386469
C	-0.5313488473	 4.2661453006	-2.4773564066	-0.323136
C	 0.4020054936	 5.252133997	-1.8137939385	-0.324459
H	-1.9522322553	 2.1319065101	-0.2467000963	 0.244293
H	-0.2735486964	 4.1097268159	 0.8194763083	 0.084432
H	 1.8518832791	 2.2810926591	 0.8384030219	 0.100244
H	 2.5006086616	 3.2980169897	-1.3842923551	 0.112601
H	 1.4915770861	 2.0476060575	-2.141029664	 0.119631
H	-0.2851278947	 3.9202760089	-3.4761086368	 0.11972
H	-1.5967769801	 4.3645672715	-2.2924335912	 0.109618
H	-0.0316406087	 6.0138890593	-1.1730722358	 0.114433
H	 1.2799358802	 5.5784768493	-2.3622371176	 0.116585
70.4759	173.8634	217.3816	279.1821	331.9266	441.8073	461.7165	502.3824	556.4307	705.7676	755.2338	769.2038	796.8136	856.1372	882.0924	883.2791	901.7515	941.6653	982.6783	1003.0401	1012.6603	1050.7841	1052.8458	1077.6469	1132.0192	1143.0623	1148.3212	1187.0569	1216.5736	1230.6274	1259.2391	1275.1328	1306.7548	1358.6699	1382.3654	1465.4486	1486.8757	1502.2084	1889.362	3059.3834	3096.487	3109.1252	3121.0602	3124.7198	3149.9276	3198.8251	3213.488	3578.94
O=C1NC2C1CC21CC1	O=C1N[C@H]2[C@@H]1CC12CC1	
InChI=1S/C7H9NO/c9-6-4-3-7(1-2-7)5(4)8-6/h4-5H,1-3H2,(H,8,9)	InChI=1S/C7H9NO/c9-6-4-3-7(1-2-7)5(4)8-6/h4-5H,1-3H2,(H,8,9)/t4-,5-/m0/s1
