19
gdb 38350	2.4063	2.0458	1.37139	1.4048	81.01	-0.2352	-0.0019	0.2334	984.5915	0.162033	-385.872898	-385.865736	-385.864792	-385.904082	29.382	
C	-0.1096053775	 1.6231359374	-0.0703082619	-0.284763
C	 1.4382595073	 1.5274917008	 0.0459286152	 0.0654
O	 1.3430178006	 0.1423651908	 0.4496071655	-0.286329
C	-0.0455340363	 0.0741326291	 0.0522791053	 0.0654
C	-0.2689404031	-0.6896934073	-1.2197922058	-0.045788
C	 0.6473380369	-1.0022111592	-2.1369000325	-0.071398
C	 2.1337936743	-0.6761837619	-2.116772245	-0.298962
C	 2.490451421	 0.8030932618	-2.1447861105	-0.071398
C	 2.2009876646	 1.7295696601	-1.2303613307	-0.045788
H	-0.5818781479	 2.1090390273	 0.7855514602	 0.10734
H	-0.5066553671	 2.0244278055	-1.0022908399	 0.113348
H	 1.8798386021	 2.131754216	 0.8478739727	 0.082861
H	-0.6553040318	-0.3513905265	 0.8587233175	 0.082861
H	-1.3014544729	-0.9904127888	-1.3901944304	 0.083384
H	 0.3069356861	-1.5584258565	-3.0073952559	 0.090913
H	 2.5818924818	-1.1297872599	-1.2287342681	 0.148262
H	 2.5974714603	-1.1533632409	-2.9846145487	 0.09036
H	 3.0497938641	 1.1281626589	-3.0191295384	 0.090913
H	 2.5222853975	 2.7548879134	-1.4065558486	 0.083384
158.7456	209.9613	268.8593	281.2061	328.0984	419.5012	495.5181	568.6059	663.3628	710.5876	744.6938	754.3092	789.4351	823.5964	875.0774	892.4059	933.3626	963.5215	989.2436	998.9365	1001.6896	1013.5597	1070.6535	1071.8105	1113.057	1127.3784	1222.7446	1226.7108	1254.0753	1255.9392	1264.5174	1293.1194	1353.1203	1357.3812	1383.3065	1409.7103	1425.3395	1474.6917	1484.1063	1713.1232	1726.3435	3024.6488	3027.4685	3056.6966	3080.0746	3095.5563	3131.5565	3133.6456	3147.2096	3156.3059	3159.5756
C1C2OC1C=CCC=C2	C1[C@H]2O[C@@H]1C=CCC=C2	
InChI=1S/C8H10O/c1-2-4-7-6-8(9-7)5-3-1/h2-5,7-8H,1,6H2/b4-2-,5-3-	InChI=1S/C8H10O/c1-2-4-7-6-8(9-7)5-3-1/h2-5,7-8H,1,6H2/b4-2-,5-3-/t7-,8+
