18
gdb 85340	1.95645	1.70557	0.93983	6.689	77.78	-0.2235	-0.0139	0.2096	1225.8971	0.148252	-439.149344	-439.140717	-439.139772	-439.182337	33.05	
C	 0.0182315532	 1.5126561201	 0.0576728275	-0.400546
C	 0.0088723318	-0.0051562231	-0.0289452282	 0.133299
C	 0.729046137	-0.5469920393	-1.2635222783	-0.317978
C	 0.8502461334	-2.0449466624	-1.1660708893	 0.366429
N	 0.9142152003	-2.7330498883	-2.348420177	-0.568399
C	 0.8661194129	-2.6234367473	 0.0556788775	-0.336304
C	 0.8570354113	-1.8427776689	 1.2880725198	 0.415091
O	 1.085764667	-2.2940332561	 2.3832982995	-0.359205
O	 0.615181001	-0.4934578757	 1.1736833442	-0.258107
H	 1.0451928546	 1.889209637	 0.0898072616	 0.127381
H	-0.489225449	 1.9497649946	-0.8078973897	 0.114302
H	-0.4947214544	 1.8404586051	 0.9649169384	 0.136983
H	-1.0296939352	-0.3669138881	-0.0560193104	 0.089095
H	 0.171155512	-0.2672137037	-2.1646364531	 0.114865
H	 1.7290051684	-0.0989649619	-1.345557902	 0.128176
H	 1.1741317266	-2.2259083861	-3.178474011	 0.258772
H	 1.2281743474	-3.6907618591	-2.3230791735	 0.262404
H	 0.9856276617	-3.6926923469	 0.185328494	 0.093742
128.4521	141.2897	166.9065	228.9703	267.153	327.9201	366.8497	436.9557	450.9416	465.9738	490.7235	544.1753	575.2693	641.3048	747.5599	858.6895	865.9496	895.9771	910.2766	937.4259	1002.8001	1085.1713	1096.0387	1129.9978	1161.0185	1231.1445	1248.5797	1273.6654	1323.9845	1382.141	1396.5538	1412.5049	1427.8263	1461.9917	1483.9148	1499.5205	1646.4219	1692.928	1814.4821	2994.8569	3017.6433	3043.7257	3067.9583	3115.9502	3129.382	3198.8014	3587.1787	3699.9944
CC1CC(N)=CC(=O)O1	C[C@H]1CC(=CC(=O)O1)N	
InChI=1S/C6H9NO2/c1-4-2-5(7)3-6(8)9-4/h3-4H,2,7H2,1H3	InChI=1S/C6H9NO2/c1-4-2-5(7)3-6(8)9-4/h3-4H,2,7H2,1H3/t4-/m0/s1
