17
gdb 98572	4.19902	0.9936	0.81579	0.6924	73.8	-0.2419	-0.0439	0.1979	1371.8838	0.135242	-458.996187	-458.98728	-458.986335	-459.030819	30.693	
C	 0.0514011445	 1.3177891928	 0.0183923745	-0.241921
O	-0.0379438911	-0.1112032622	-0.0181193607	-0.237216
C	-1.293948393	-0.6113506625	 0.01631016	 0.373692
O	-2.2868373865	 0.073783449	 0.0735151577	-0.375544
C	-1.2651470819	-2.0852772606	-0.0257099702	 0.179894
C	-2.343015328	-2.8688929338	-0.0055851359	-0.18387
C	-1.9234479625	-4.3046724161	-0.0616319117	-0.103288
O	-0.5009707985	-4.2823931153	-0.1166203061	-0.269938
C	-0.0230513476	-2.9378951435	-0.0975047613	-0.159
H	 1.1158895347	 1.5498941804	-0.0116934508	 0.134634
H	-0.4617678264	 1.7574552008	-0.8406858876	 0.143017
H	-0.4012472564	 1.7084199616	 0.9333086742	 0.143199
H	-3.3689113202	-2.5285699122	 0.0436793148	 0.133821
H	-2.2618244464	-4.8699013044	 0.821921589	 0.115472
H	-2.3308361549	-4.8211305099	-0.9458992308	 0.115494
H	 0.5705737245	-2.7355520398	-1.0006333212	 0.115791
H	 0.6388244097	-2.7848435542	 0.7670734463	 0.115765
64.5045	100.1052	118.2802	139.7501	141.7846	228.867	314.6939	384.1394	429.9479	479.8063	744.2163	765.6686	793.8213	880.6218	891.156	918.3619	963.3554	1011.9689	1030.1495	1065.8594	1099.5673	1141.1403	1170.6957	1179.1762	1214.9354	1220.4992	1277.6101	1293.3458	1368.8996	1393.3822	1472.7049	1481.4748	1497.0313	1510.8638	1526.7115	1707.4954	1801.0484	2970.7793	2985.3053	2995.7517	3016.5214	3052.0089	3126.2946	3160.3092	3233.6253
COC(=O)C1=CCOC1	COC(=O)C1=CCOC1	
InChI=1S/C6H8O3/c1-8-6(7)5-2-3-9-4-5/h2H,3-4H2,1H3	InChI=1S/C6H8O3/c1-8-6(7)5-2-3-9-4-5/h2H,3-4H2,1H3
