18
gdb 87416	3.58896	1.3569	1.30234	0.6998	75.11	-0.2262	0.068	0.2943	1047.7662	0.147717	-401.842926	-401.835528	-401.834583	-401.874655	29.586	
C	-0.1188610162	 1.5147746316	-0.0422446123	-0.392997
C	-0.0556481633	 0.015225493	 0.110934172	-0.084008
N	 1.2840531437	-0.6164211267	-0.0796621725	-0.406439
C	 0.6366721407	-0.6474446629	 1.227080586	 0.438064
C	 1.3275893354	-0.1749183964	 2.4883655515	-0.228072
C	 0.4675404921	-0.7774207675	 3.6148825615	 0.092446
O	-0.6589858577	-1.4312436572	 3.0209718644	-0.290222
C	 0.2722436969	-1.9167043433	 2.0096996613	-0.065729
C	 1.4979311528	-1.6248139676	 2.9612374443	-0.137595
H	 0.7667154224	 1.9837003645	 0.3946906347	 0.122779
H	-0.1637666794	 1.7994987067	-1.0988202246	 0.119321
H	-1.0068031045	 1.9168926184	 0.4571500425	 0.12085
H	-0.9069075032	-0.5248871424	-0.3033806596	 0.08262
H	 1.1856587887	-1.5142162922	-0.5501365974	 0.225578
H	 2.0006064402	 0.6599287282	 2.6281008002	 0.100486
H	 0.3736253855	-0.3692242187	 4.6124569292	 0.113003
H	-0.0307574411	-2.8497701241	 1.5360460984	 0.084108
H	 2.351071577	-2.1924487936	 3.3036373203	 0.105806
124.9342	158.1603	190.1144	245.2422	373.7005	432.8948	501.4798	577.5655	628.8078	765.0979	769.9219	785.9497	819.7465	823.4635	864.4044	906.0077	928.1794	942.6846	977.3438	1009.3078	1023.7378	1026.9326	1043.943	1068.2157	1079.683	1089.9658	1129.8134	1156.4508	1176.4732	1210.2395	1231.1927	1260.358	1272.5064	1362.0971	1371.0548	1412.7092	1479.6825	1492.2992	1518.3906	3034.9151	3098.5446	3103.035	3123.6996	3131.122	3205.2529	3211.7163	3225.3393	3475.7673
CC1NC11C2C3OC1C23	C[C@H]1N[C@]21[C@H]1[C@H]3O[C@@H]2[C@@H]13	
InChI=1S/C7H9NO/c1-2-7(8-2)4-3-5(4)9-6(3)7/h2-6,8H,1H3	InChI=1S/C7H9NO/c1-2-7(8-2)4-3-5(4)9-6(3)7/h2-6,8H,1H3/t2-,3+,4-,5+,6-,7-/m1/s1
