18
gdb 36448	2.54464	1.379	0.99653	1.4757	76.86	-0.2459	0.0395	0.2854	1191.6712	0.146601	-401.862489	-401.853802	-401.852858	-401.896217	32.487	
C	-0.5795403136	-0.1134430918	 1.1202112398	-0.454008
C	-0.098313604	 0.4246110761	 0.1582751674	 0.293017
C	 0.52382806	 1.1036934035	-0.9716360338	-0.368661
C	 1.706597341	 1.9716023803	-0.5297936213	 0.068344
O	 2.3297216815	 2.6396269415	-1.6468284935	-0.298264
C	 2.2156844896	 3.9412848805	-1.0173218831	-0.13264
C	 1.4332640648	 3.3230571226	 0.1343761235	 0.276068
C	 0.2337455029	 3.7908666862	 0.8565306448	-0.308197
N	 1.5480631826	 3.6943610216	 1.5321116648	-0.360917
H	-1.0176655774	-0.6054466022	 1.9532350452	 0.201662
H	 0.8888595921	 0.369557778	-1.700718992	 0.144519
H	-0.2061052176	 1.7327745229	-1.4938812036	 0.13556
H	 2.431332087	 1.3526496988	 0.0191813865	 0.089623
H	 3.1930229341	 4.3504091264	-0.7341390904	 0.113945
H	 1.6852589142	 4.6584690028	-1.6541254411	 0.10909
H	-0.1254620503	 4.805904365	 0.7070627108	 0.120942
H	-0.532822924	 3.0612030554	 1.1012937689	 0.132321
H	 1.5764976471	 2.8587639423	 2.113298287	 0.237595
70.679	83.0587	150.5888	210.2455	272.135	326.8603	358.3427	388.9333	441.4466	530.903	584.2905	632.6257	652.7599	792.1617	840.8117	890.4096	929.9149	956.3137	968.9219	993.2479	999.6332	1020.6369	1059.9643	1082.0176	1102.2953	1134.2779	1148.322	1200.0434	1265.8185	1267.4051	1286.5257	1315.7609	1335.8547	1384.769	1442.4672	1468.025	1516.457	1519.968	2234.4557	2996.7822	3022.307	3031.6955	3070.3986	3071.9723	3108.6637	3198.1264	3487.6547	3503.6284
C#CCC1OCC11CN1	C#CC[C@H]1OC[C@]21CN2	
InChI=1S/C7H9NO/c1-2-3-6-7(4-8-7)5-9-6/h1,6,8H,3-5H2	InChI=1S/C7H9NO/c1-2-3-6-7(4-8-7)5-9-6/h1,6,8H,3-5H2/t6-,7+/m1/s1
