20
gdb 74384	2.96841	1.62801	1.23108	1.7197	83.98	-0.2049	0.0131	0.218	1084.1133	0.171545	-365.987595	-365.979576	-365.978632	-366.019573	32.047	
C	-0.0169862382	 1.5123365201	 0.0655075578	-0.500875
C	-0.0376851763	 0.021806262	-0.0193815304	 0.33617
C	 0.0820434861	-0.7727605681	-1.0861809363	-0.267161
C	 0.0560274492	-2.2007193395	-0.6501037005	 0.322837
C	-0.4075204633	-3.2761861576	-1.600634631	-0.490376
C	 0.9431643462	-2.6083014474	 0.5038606083	-0.077297
C	 1.4214188577	-1.4558108231	 1.3693949074	-0.252731
C	-0.0227657234	-0.8773389233	 1.1982212084	-0.112276
N	-0.5098516073	-2.2498548584	 0.7212823673	-0.173282
H	 0.8456793384	 1.8694924483	 0.6429478472	 0.128793
H	 0.0297931764	 1.9702439195	-0.9261219441	 0.126923
H	-0.9108831593	 1.891761011	 0.5766787023	 0.129367
H	 0.1980319162	-0.465377258	-2.1183948932	 0.094272
H	 0.2959814819	-3.393341471	-2.4322257617	 0.115796
H	-0.4934166759	-4.2373057039	-1.0864561213	 0.127019
H	-1.3895584997	-3.0262318507	-2.0152785714	 0.124828
H	 1.2954041858	-3.6333505705	 0.5882195535	 0.085621
H	 1.5881735702	-1.7995446017	 2.3928581652	 0.112282
H	 2.2698105084	-0.8470057297	 1.0413060745	 0.096372
H	-0.528227483	-0.506426608	 2.0903957881	 0.073719
158.7436	175.3042	189.1972	250.2178	270.5077	311.3267	381.086	483.0776	555.0203	563.7539	604.0818	747.1369	757.5966	808.8226	837.4641	857.6767	895.8392	911.0776	944.8213	979.6813	1009.5409	1024.939	1027.9586	1055.8784	1077.9405	1096.55	1139.0556	1149.7323	1205.8426	1240.9321	1253.3712	1264.9263	1339.1304	1342.2	1379.2041	1412.6652	1416.8509	1477.7681	1484.7255	1486.8481	1488.5043	1495.1322	1708.8652	3015.837	3033.4455	3046.1997	3060.6281	3098.3739	3101.1888	3110.8709	3111.7248	3115.3655	3140.059	3204.7789
CC1=CC2(C)C3CC1N23	CC1=C[C@@]2(C)[C@H]3C[C@@H]1N23	
InChI=1S/C8H11N/c1-5-4-8(2)7-3-6(5)9(7)8/h4,6-7H,3H2,1-2H3	InChI=1S/C8H11N/c1-5-4-8(2)7-3-6(5)9(7)8/h4,6-7H,3H2,1-2H3/t6-,7+,8-,9?/m0/s1
