21
gdb 62793	2.9626	1.29597	1.13791	0.359	78.79	-0.2228	0.0731	0.2959	1184.2397	0.179209	-424.18843	-424.178856	-424.177912	-424.221707	37.526	
C	 0.1671349558	 1.6748762781	-0.4082820804	-0.463974
C	 0.2174178495	 0.1816278397	-0.1936265687	 0.353065
O	-0.9226231923	-0.5093010044	-0.6544729985	-0.462079
C	 1.475528985	-0.6309592922	-0.3179976763	 0.001571
O	 2.6084864967	 0.0680279682	 0.1992293274	-0.331869
C	 2.0646691214	-0.0321126535	 1.5694821137	 0.390769
C	 2.8373755768	-1.1158858155	 2.3183468271	-0.410707
C	 2.1085093843	 1.2873509538	 2.3260124848	-0.442276
C	 0.7459797796	-0.5780049758	 1.0118779242	-0.203555
H	 1.1504219677	 2.1243660328	-0.2658119946	 0.143279
H	-0.1409901469	 1.8795104501	-1.4416691272	 0.100261
H	-0.5566042868	 2.1584908748	 0.2552818681	 0.122291
H	-0.9711807594	-0.3854130949	-1.6093254058	 0.282404
H	 1.6336146554	-1.4297115444	-1.0352236454	 0.098434
H	 3.8763666965	-0.8038624839	 2.4618996921	 0.121327
H	 2.3922228556	-1.2971234116	 3.3028710141	 0.11255
H	 2.8307287086	-2.053815485	 1.7574159566	 0.121513
H	 1.5257362397	 2.0694908024	 1.8410285859	 0.123408
H	 1.715379048	 1.1468318695	 3.3383459307	 0.118907
H	 3.1444015775	 1.6318823757	 2.4136071266	 0.123821
H	 0.1252961572	-1.3252562939	 1.4889195458	 0.100861
152.1465	167.5458	174.0654	221.1201	251.2186	270.3534	293.2923	323.7354	350.6956	379.8373	408.8158	453.2109	527.0496	543.5771	643.4716	704.7356	816.5366	851.401	893.1202	909.2873	931.2587	963.2164	981.3025	1002.0731	1015.762	1044.5298	1061.306	1098.3467	1138.4215	1164.6838	1221.527	1240.0222	1267.2567	1302.2969	1321.9452	1398.9625	1406.5547	1414.3885	1428.1402	1473.7229	1478.5242	1491.4355	1494.4415	1504.775	1508.4048	3024.5006	3034.3097	3044.8698	3086.0516	3100.6442	3108.9933	3122.579	3143.4494	3157.8014	3163.599	3199.8448	3788.6981
CC1(O)C2OC(C)(C)C12	C[C@@]1(O)[C@H]2OC(C)(C)[C@@H]12	
InChI=1S/C7H12O2/c1-6(2)4-5(9-6)7(4,3)8/h4-5,8H,1-3H3	InChI=1S/C7H12O2/c1-6(2)4-5(9-6)7(4,3)8/h4-5,8H,1-3H3/t4-,5-,7-/m0/s1
