17
gdb 129634	3.01795	1.25885	0.92904	4.1722	71.78	-0.2021	0.0045	0.2066	1218.1997	0.136753	-455.130368	-455.121698	-455.120754	-455.164509	31.918	
N	-0.446333379	 1.4124318981	-0.360969788	-0.621702
C	-0.2237061403	 0.0513541813	-0.1240174537	 0.039392
C	-1.1024847556	-0.9981324589	-0.1016020435	 0.375536
C	-2.5875095905	-1.142520503	-0.1985453939	-0.326702
C	-3.2319894212	-0.4892854299	-1.4209981009	-0.081114
O	-3.2382920864	 0.9245848288	-1.2224128068	-0.405956
O	-0.4101063443	-2.1560165154	 0.0694948057	-0.218096
N	 0.9379856174	-1.8807718692	 0.1896975716	-0.148688
C	 1.0398765797	-0.5806095313	 0.0645476877	 0.003153
H	-0.0069293306	 2.0130449028	 0.3247236424	 0.240153
H	-1.4350777567	 1.6193089831	-0.4518640647	 0.253729
H	-2.8136334218	-2.2130959045	-0.2105719428	 0.133126
H	-3.0746777424	-0.7247965397	 0.6928082149	 0.12984
H	-2.6772804159	-0.7589876473	-2.3295522753	 0.110221
H	-4.2624534202	-0.8586649731	-1.5253367495	 0.100116
H	-3.4561419547	 1.3494772927	-2.057372774	 0.296171
H	 2.0156018824	-0.1164700645	 0.1121615907	 0.120821
27.6764	157.1514	167.1583	232.8239	261.2981	291.7398	338.9866	346.637	421.2907	473.839	626.8688	661.8861	691.8927	718.7758	797.2401	866.3235	898.5091	946.2361	962.9276	976.9208	1048.9533	1077.6187	1101.5454	1156.4852	1228.5148	1244.157	1258.2972	1279.1132	1322.8828	1373.8544	1445.2854	1454.7375	1466.9881	1512.0646	1519.7966	1642.1382	1692.1839	2993.7949	3019.5482	3042.7971	3093.3523	3235.5164	3508.1468	3609.9237	3833.5861
NC1=C(CCO)ON=C1	Nc1c(CCO)onc1	
InChI=1S/C5H8N2O2/c6-4-3-7-9-5(4)1-2-8/h3,8H,1-2,6H2	InChI=1S/C5H8N2O2/c6-4-3-7-9-5(4)1-2-8/h3,8H,1-2,6H2
