18
gdb 128847	5.77143	0.6798	0.6515	3.1756	74.85	-0.2588	-0.0097	0.2491	1714.6611	0.147285	-439.069548	-439.060653	-439.059709	-439.104723	31.073	
C	-0.022351841	 1.3405332911	-0.1592431977	-0.230176
O	-0.0100331036	-0.0431445795	 0.0994241381	-0.227507
C	-1.2827740122	-0.634081129	-0.0152586422	-0.048719
C	-1.1418447003	-2.1213939896	 0.316726154	-0.319982
C	-2.4360537449	-2.8599462897	 0.1699088887	 0.369868
N	-3.0830654559	-3.2761843355	 1.234577333	-0.195758
O	-4.2366057757	-3.8986997138	 0.7644434443	-0.162006
C	-4.2460128952	-3.8358739979	-0.5736243969	 0.085205
C	-3.1418583792	-3.1934203456	-1.0265101148	-0.32967
H	 1.0015570312	 1.7038194079	-0.04369546	 0.129306
H	-0.3650668113	 1.5623210323	-1.1826441659	 0.103224
H	-0.6738075248	 1.8822620584	 0.5444963699	 0.107101
H	-2.0005081443	-0.1610472496	 0.6754299839	 0.101374
H	-1.681427392	-0.5019587087	-1.0362826259	 0.085689
H	-0.3851968543	-2.553997814	-0.3468120701	 0.122853
H	-0.7827164892	-2.2267530581	 1.3433476432	 0.13735
H	-5.0944494153	-4.2920128147	-1.060155581	 0.151124
H	-2.8610280918	-2.9910870941	-2.0466690907	 0.120723
42.1963	83.7484	94.5626	112.5759	235.8677	260.3216	330.4128	341.3917	455.7255	616.4136	689.0231	757.3271	800.1452	807.061	871.519	908.6568	944.2558	993.2113	998.8476	1060.1272	1066.458	1092.9905	1160.0189	1163.9303	1181.5387	1227.1415	1231.0463	1286.5342	1305.0849	1325.7138	1421.641	1448.2122	1480.4087	1482.4368	1486.5908	1490.9648	1504.9048	1532.1033	1610.159	2949.5456	2971.5513	2985.3047	3014.7369	3054.3555	3114.2284	3116.0822	3259.6082	3283.7928
COCCC1=NOC=C1	COCCc1nocc1	
InChI=1S/C6H9NO2/c1-8-4-2-6-3-5-9-7-6/h3,5H,2,4H2,1H3	InChI=1S/C6H9NO2/c1-8-4-2-6-3-5-9-7-6/h3,5H,2,4H2,1H3
