19
gdb 36201	3.33062	1.18614	1.0452	3.3261	78.55	-0.2275	0.0273	0.2548	1190.5198	0.160379	-382.044703	-382.036399	-382.035455	-382.078542	31.081	
N	-0.0897549679	-1.1611859189	 0.1509972153	-0.308514
C	-0.0595632755	-0.0058674188	 0.1457384099	 0.261317
C	 0.0185366525	 1.4537988524	 0.1328026581	-0.424134
C	 1.4470664484	 1.9471034695	-0.0967119468	 0.385624
C	 2.445653422	 1.8100635727	 1.0786641946	-0.305087
C	 2.6398027173	 3.3470418469	 0.9757407646	-0.169104
N	 1.628386779	 3.4543567146	-0.1263368028	-0.166277
C	 2.2440917378	 3.3461854655	-1.4895177577	-0.169105
C	 2.027551688	 1.8091741617	-1.5255092755	-0.305083
H	-0.6389448446	 1.8418124616	-0.6533718114	 0.152886
H	-0.3598095849	 1.8422656848	 1.0850909887	 0.152886
H	 1.9956663837	 1.4670629369	 2.0132981092	 0.114659
H	 3.3248455812	 1.1952812006	 0.8749637749	 0.115693
H	 2.3367883484	 3.9117143429	 1.8619679363	 0.111299
H	 3.6420351224	 3.6793738477	 0.68498634	 0.105645
H	 1.6789336342	 3.9103536163	-2.2367667657	 0.111299
H	 3.2869628374	 3.6785277568	-1.5272338513	 0.105643
H	 2.926339353	 1.1943685341	-1.6068849541	 0.115694
H	 1.3076093876	 1.4656835726	-2.2720857464	 0.114659
50.6262	69.2087	114.2426	255.6618	329.4326	354.039	402.8554	417.7795	482.1574	668.9836	697.2984	755.7577	756.0345	830.4961	905.8287	912.6315	926.6899	930.2007	949.617	966.8252	985.47	1048.0954	1052.5548	1133.9282	1164.7073	1190.7014	1214.4896	1220.4284	1250.1891	1251.4654	1286.9122	1290.8688	1317.228	1322.6769	1326.5193	1459.5488	1478.4774	1492.4045	1499.4967	1519.5136	2360.1122	3037.1913	3041.5321	3043.9082	3067.0472	3069.0641	3083.1466	3084.2393	3085.5973	3119.9092	3124.3119
N#CCC12CCN1CC2	N#CC[C@]12CCN1CC2	
InChI=1S/C7H10N2/c8-4-1-7-2-5-9(7)6-3-7/h1-3,5-6H2	InChI=1S/C7H10N2/c8-4-1-7-2-5-9(7)6-3-7/h1-3,5-6H2
