17
gdb 88069	2.6524	1.26453	1.14445	3.0427	69.05	-0.2449	-0.0387	0.2062	1133.0634	0.13353	-458.919752	-458.911031	-458.910087	-458.953932	31.628	
O	-0.0117266249	 1.3804946084	-0.188668859	-0.432112
C	 0.0732232512	 0.035168708	 0.1487057817	 0.064231
C	-0.5980750034	-0.4695597494	 1.4236337588	-0.388225
C	-1.199960064	-0.7507946247	 0.0839132553	 0.395709
O	-2.3618377545	-0.0433161158	-0.35567427	-0.317418
C	-2.7980894991	-1.1886287869	-1.1409250317	-0.088774
C	-1.6090586397	-2.035361527	-0.6550031441	-0.253186
C	-0.636908982	-2.5220593527	-1.701999974	 0.150808
O	-0.7892939275	-2.3888552372	-2.8887304157	-0.234748
H	-0.8842531664	 1.5076816306	-0.5890875155	 0.297862
H	 1.0147121336	-0.4227783943	-0.1452568209	 0.102814
H	-0.1290878093	-1.2857665396	 1.9649704634	 0.116801
H	-1.1072166557	 0.2680799579	 2.0357695215	 0.134639
H	-3.7895923092	-1.5264062233	-0.8287993399	 0.118073
H	-2.7836412998	-0.9820048089	-2.2141309828	 0.138275
H	-1.8613516067	-2.858611023	 0.0210391882	 0.109299
H	 0.2709058975	-3.0203918321	-1.2932601954	 0.085953
57.3765	70.789	151.761	184.2134	229.5462	273.3379	371.69	428.3106	437.9859	511.22	620.4761	659.3003	766.0568	811.4142	862.7393	880.7564	924.7089	983.4687	999.7931	1008.2356	1027.2034	1089.2135	1092.9833	1104.4807	1161.228	1168.3279	1181.3262	1211.452	1301.0306	1328.3791	1355.1607	1378.1602	1414.687	1425.1995	1473.8769	1520.9224	1829.0385	2878.2985	3057.4019	3063.9704	3117.6657	3121.9179	3134.1209	3218.6276	3724.9232
OC1CC11OCC1C=O	O[C@H]1C[C@]21OC[C@H]2C=O	
InChI=1S/C6H8O3/c7-2-4-3-9-6(4)1-5(6)8/h2,4-5,8H,1,3H2	InChI=1S/C6H8O3/c7-2-4-3-9-6(4)1-5(6)8/h2,4-5,8H,1,3H2/t4-,5+,6+/m1/s1
