21
gdb 59674	2.47891	1.37955	0.99632	0.9342	78.8	-0.238	0.0609	0.2989	1250.4235	0.180935	-424.191149	-424.181667	-424.180723	-424.225449	35.623	
C	-0.010477441	 1.4977746824	-0.2679473399	-0.411702
C	 0.051646079	-0.0105158106	-0.0521252609	 0.110638
O	 0.9156084574	-0.3738529342	 1.0253763628	-0.431256
C	-1.3318967041	-0.6113955829	 0.1869682859	 0.05744
O	-2.2316600853	-0.3912402995	-0.9271712523	-0.302429
C	-2.4528090916	-1.8110173974	-1.1040591297	-0.137666
C	-1.495854798	-2.1232774025	 0.040636181	 0.293319
C	-0.4495494432	-3.1917106438	 0.133485899	-0.324974
C	-1.6090924841	-3.166455921	 1.1054916109	-0.328082
H	 0.9875645655	 1.8991031488	-0.4636520024	 0.121219
H	-0.6635692315	 1.7317467605	-1.1129658673	 0.142622
H	-0.4165471508	 2.0006330413	 0.6194881024	 0.103041
H	 0.4860307024	-0.4904823215	-0.9361405262	 0.091898
H	 0.6376158143	 0.1230969251	 1.8031666342	 0.279275
H	-1.7511156499	-0.1959872274	 1.1193725899	 0.058702
H	-3.503721979	-2.0819524491	-0.9372524132	 0.100572
H	-2.1480663652	-2.1501422381	-2.1025985767	 0.102408
H	-0.4414250489	-3.9622318251	-0.6313516342	 0.109378
H	 0.5267714408	-2.9018909712	 0.5040159733	 0.140817
H	-1.4069368731	-2.8709835747	 2.1303488451	 0.113637
H	-2.3854570436	-3.9183147592	 1.0017911183	 0.111143
71.7592	91.3304	146.9488	215.0516	244.6948	257.6831	289.9913	310.0688	354.6694	423.5014	451.6368	507.133	592.5385	781.3053	833.1873	865.831	882.5358	905.06	944.6309	967.1305	975.3017	1020.0806	1041.2953	1058.0604	1062.5894	1082.7122	1092.1066	1118.579	1150.9048	1179.9269	1192.6891	1244.0309	1256.3953	1273.4283	1321.4864	1331.1594	1394.7593	1397.5354	1409.7198	1421.3333	1459.1203	1491.2667	1494.3146	1506.4617	1524.1364	2953.7848	3003.0773	3022.9989	3044.3331	3055.4086	3099.7033	3121.239	3129.352	3130.4762	3203.1757	3226.2783	3795.2752
CC(O)C1OCC11CC1	C[C@@H](O)[C@H]1OCC21CC2	
InChI=1S/C7H12O2/c1-5(8)6-7(2-3-7)4-9-6/h5-6,8H,2-4H2,1H3	InChI=1S/C7H12O2/c1-5(8)6-7(2-3-7)4-9-6/h5-6,8H,2-4H2,1H3/t5-,6-/m1/s1
