20
gdb 50672	2.28566	1.61697	1.06044	4.1585	80.52	-0.2248	0.0271	0.2519	1165.8947	0.172427	-403.172944	-403.164611	-403.163666	-403.20624	31.928	
O	 0.0458998839	-0.0407408318	 0.2422008927	-0.349536
C	 0.0570695731	 1.1765462641	 0.2453057386	 0.12461
N	 1.1655241846	 1.9294117415	 0.05379777	-0.095941
C	 2.467130454	 1.2941375374	-0.1897476582	-0.153182
C	 3.3652131169	 2.46133868	-0.6237367709	-0.234836
C	 2.749557543	 3.667362443	 0.1059062523	-0.282845
C	 1.2570821055	 3.3807897416	 0.0329590387	 0.389167
C	 0.3382918104	 4.2101347687	-0.833279843	-0.307832
C	 0.2411526219	 4.2725995966	 0.680272272	-0.335299
H	-0.8565990494	 1.7797975359	 0.4048546534	 0.069132
H	 2.8286823974	 0.8192902918	 0.730807317	 0.118852
H	 2.3668673348	 0.5075684735	-0.9413127968	 0.131814
H	 4.41433533	 2.2943482704	-0.3714392592	 0.10807
H	 3.2980698426	 2.6050981787	-1.7070206167	 0.113791
H	 3.0758004758	 3.6835761768	 1.1530459973	 0.110553
H	 3.0097981521	 4.6291941413	-0.3416769379	 0.107261
H	 0.7502830878	 5.0623543497	-1.3640651944	 0.11693
H	-0.4525937427	 3.6886947785	-1.3621398061	 0.122366
H	-0.6262080728	 3.8279579805	 1.1548569313	 0.126834
H	 0.6101752711	 5.1607149117	 1.1835634399	 0.120091
54.284	125.0392	191.5105	215.4951	301.7514	323.0726	350.1885	448.9148	513.648	529.0498	603.5003	770.4749	786.3535	831.8608	867.2754	906.1158	912.1634	933.337	942.7276	975.1308	1024.3901	1027.9727	1052.7605	1077.2779	1102.0649	1130.7312	1185.0174	1189.193	1224.8467	1245.2884	1260.0371	1321.2762	1340.6456	1344.0584	1383.2015	1407.701	1451.0716	1466.3598	1489.0518	1498.5414	1504.4164	1524.6795	1777.0848	2949.5134	3030.1744	3034.4254	3055.7504	3097.7747	3103.578	3116.2817	3126.4345	3131.3602	3209.1561	3222.5128
O=CN1CCCC11CC1	O=CN1CCCC21CC2	
InChI=1S/C7H11NO/c9-6-8-5-1-2-7(8)3-4-7/h6H,1-5H2	InChI=1S/C7H11NO/c9-6-8-5-1-2-7(8)3-4-7/h6H,1-5H2
