21
gdb 107132	2.77178	1.2804	1.13454	1.9466	82.21	-0.2207	0.0714	0.2921	1219.6724	0.180608	-387.027168	-387.018146	-387.017201	-387.060697	34.975	
C	-0.2374320878	 1.4925259947	 0.1921768888	-0.382412
C	 0.104315975	 0.0048703121	 0.0371018663	-0.303115
C	 0.7566389181	-0.3223843412	-1.2695023842	 0.437953
O	 1.5385173944	-1.5270454797	-1.3653341498	-0.291784
C	 2.1384294214	-0.2771914496	-1.7447086669	-0.125364
C	 1.6749503247	 0.1219677101	-3.1881414614	 0.322153
C	 2.36432588	 1.1886699346	-3.9860753066	-0.493993
C	 0.7459213028	-0.9216667246	-3.7457972301	-0.334651
C	 0.2316314948	 0.0412263886	-2.7017053322	-0.190662
H	 0.6612535555	 2.1134073217	 0.1197973455	 0.119362
H	-0.9380310246	 1.8273307338	-0.579180961	 0.122239
H	-0.7012088648	 1.6818376457	 1.1644586504	 0.118323
H	 0.7789917004	-0.3171958885	 0.8377460406	 0.113923
H	-0.8095399803	-0.5964835478	 0.1370356432	 0.108792
H	 3.0694335367	-0.0011911325	-1.2607956831	 0.096446
H	 3.3222740766	 0.8334377195	-4.3860897726	 0.121172
H	 1.7482919849	 1.5041970086	-4.8342206251	 0.120396
H	 2.5700138424	 2.0776973504	-3.3774611613	 0.11563
H	 0.3945744925	-0.7192481763	-4.7534967041	 0.105274
H	 0.8759130557	-1.9690169449	-3.5042189025	 0.132362
H	-0.5740337083	 0.739225595	-2.8905077137	 0.087954
74.4549	116.4684	191.8225	211.9104	234.1064	272.5238	311.9443	398.1313	430.638	506.3677	544.8983	561.4135	650.0665	775.7919	793.0646	808.094	836.9941	898.2575	908.2013	924.4473	947.8394	973.4673	1000.6557	1011.0561	1047.0357	1088.1126	1098.3831	1105.1094	1121.7471	1176.474	1192.9295	1240.9869	1276.2401	1304.1935	1352.4487	1376.3998	1412.3356	1420.932	1463.9673	1481.0196	1484.051	1486.5909	1499.4391	1501.2224	1511.644	3015.8814	3019.1158	3039.2479	3069.8797	3070.0116	3095.7945	3109.065	3112.1402	3133.3004	3171.021	3191.8213	3226.8104
CCC12OC1C1(C)CC21	CC[C@]12O[C@H]1[C@@]1(C)C[C@@H]21	
InChI=1S/C8H12O/c1-3-8-5-4-7(5,2)6(8)9-8/h5-6H,3-4H2,1-2H3	InChI=1S/C8H12O/c1-3-8-5-4-7(5,2)6(8)9-8/h5-6H,3-4H2,1-2H3/t5-,6+,7+,8-/m1/s1
