17
gdb 103321	3.35167	1.33418	1.13819	3.2644	69.1	-0.2571	-0.0152	0.2419	1094.1767	0.132412	-458.8836	-458.874789	-458.873845	-458.917367	32.282	
C	 0.0717882884	 1.3072478928	-0.2438163197	-0.255164
O	-0.0942884108	-0.0012789968	 0.2676116717	-0.283348
C	-1.3824954424	-0.5324747912	 0.1811458359	 0.451724
C	-2.3371214055	 0.0455389957	 1.215660178	-0.487645
C	-1.9102275794	-0.8293595933	-1.2744120034	-0.149226
O	-0.8454966428	-1.853953541	-1.4114972833	-0.296481
C	-1.31913192	-2.0777526662	-0.0211681711	-0.127132
C	-2.7202103062	-2.0099239273	-0.6803176397	 0.454158
O	-3.7288321295	-2.6199255279	-0.8160238716	-0.315739
H	 1.1269414254	 1.5579185726	-0.1171656655	 0.138166
H	-0.1767988318	 1.3596909059	-1.3124291984	 0.115411
H	-0.5313301204	 2.0499931148	 0.296239378	 0.111225
H	-2.5062098852	 1.1124888826	 1.0437759604	 0.130969
H	-3.3110334906	-0.4514725642	 1.1921964134	 0.143629
H	-1.9097368689	-0.0729866366	 2.2154291525	 0.139321
H	-2.095557068	-0.1728804877	-2.1218980713	 0.113114
H	-0.8117156024	-2.8337021121	 0.5739438439	 0.117016
49.883	143.0013	162.2243	186.0157	205.4783	300.7102	317.9407	389.6772	417.1726	513.7007	560.3902	634.2122	694.9215	768.8381	791.7084	802.5066	884.4122	925.5651	966.3586	1051.2807	1086.3944	1112.2993	1130.4312	1135.8944	1162.4468	1180.0975	1204.5799	1218.9102	1246.814	1299.8564	1413.4422	1475.6927	1483.3394	1492.4732	1500.6863	1507.1131	1934.7979	2997.966	3045.1632	3053.2596	3115.8737	3122.3142	3125.9753	3151.4162	3158.8797
COC1(C)C2OC1C2=O	CO[C@@]1(C)[C@H]2O[C@@H]1C2=O	
InChI=1S/C6H8O3/c1-6(8-2)4-3(7)5(6)9-4/h4-5H,1-2H3	InChI=1S/C6H8O3/c1-6(8-2)4-3(7)5(6)9-4/h4-5H,1-2H3/t4-,5+,6-
