16
gdb 85378	2.05842	1.79914	0.99848	3.8279	67.96	-0.2862	-0.0125	0.2737	1142.8862	0.124335	-475.087188	-475.079097	-475.078153	-475.12028	29.788	
C	-0.0279389913	 1.4999742284	 0.0604206374	-0.405435
C	-0.0025540143	-0.0103007584	-0.0813356312	 0.119293
C	 0.8743167268	-0.5200671417	-1.2163448507	-0.296237
C	 0.9068542419	-2.0158837143	-1.1672981825	 0.399481
N	 0.8932318965	-2.7603274807	-2.1807111851	-0.492934
O	 0.954843725	-2.5536411051	 0.1119950809	-0.257283
C	 0.9154975532	-1.8073655077	 1.2686758386	 0.47641
O	 1.2183886129	-2.304862298	 2.305918152	-0.340419
O	 0.5147070286	-0.5333410377	 1.1672363747	-0.258526
H	 0.9855738403	 1.8912112768	 0.187306522	 0.136757
H	-0.4698862005	 1.951128035	-0.8324655597	 0.131498
H	-0.6232953925	 1.7903914549	 0.929199415	 0.1442
H	-1.0242545511	-0.39434874	-0.1999752679	 0.111147
H	 0.5044310274	-0.2075602565	-2.1933563217	 0.151176
H	 1.8893195929	-0.1223071904	-1.0892407896	 0.142016
H	 0.9292547443	-3.7451186546	-1.9098711221	 0.238855
91.6838	115.9146	135.9101	226.8139	275.7495	367.4996	430.5187	454.9695	484.2969	576.7374	593.938	657.2482	765.369	834.2561	905.6833	912.2319	933.3166	943.6016	1023.9212	1054.1887	1117.8971	1131.1831	1155.6972	1186.3324	1235.9684	1302.7333	1346.2123	1380.8341	1402.2511	1418.3566	1460.9394	1484.5797	1497.6774	1782.0632	1902.3963	3022.9415	3042.3332	3050.1054	3125.7024	3133.809	3138.4255	3474.6571
CC1CC(=N)OC(=O)O1	C[C@H]1C[C]([NH])OC(=O)O1	
InChI=1S/C5H7NO3/c1-3-2-4(6)9-5(7)8-3/h3,6H,2H2,1H3	InChI=1S/C5H7NO3/c1-3-2-4(6)9-5(7)8-3/h3,6H,2H2,1H3/t3-/m0/s1
