19
gdb 84688	2.19803	1.79358	1.40726	1.486	75.48	-0.2376	0.0061	0.2438	1013.3395	0.159451	-423.018645	-423.01036	-423.009416	-423.051508	32.687	
O	 0.4744189906	 0.9550681215	-0.8425361224	-0.434043
C	 0.1249856464	-0.217992822	-0.116493666	 0.005014
C	 0.6588714612	-0.2727745254	 1.2970073414	-0.129806
C	-0.2668629222	-0.6446400742	 2.1830644109	-0.082688
C	-1.6089346354	-0.8994326842	 1.553110667	-0.09093
C	-2.6670274727	 0.2282706234	 1.7499513701	-0.226235
C	-2.2838929852	 0.8056421954	 0.3570266898	-0.274194
C	-1.3977325905	-0.452904942	 0.0763224278	 0.398847
O	-1.9502390021	-1.355591729	-0.8552655721	-0.494928
H	 0.3086479887	 1.7134038023	-0.2722723606	 0.279446
H	 0.5232146655	-1.039877379	-0.7262341259	 0.096283
H	 1.6961644596	-0.045013554	 1.5195780234	 0.099892
H	-0.0982728833	-0.7526810924	 3.2502463398	 0.098349
H	-1.969364222	-1.9215960631	 1.6972596387	 0.087643
H	-3.6902927346	-0.1510855019	 1.7891840443	 0.107944
H	-2.505414126	 0.8878551559	 2.6061516612	 0.095767
H	-3.1087396666	 0.9153064082	-0.3496858564	 0.105526
H	-1.7383772539	 1.751711871	 0.396917532	 0.077965
H	-1.8257907776	-0.9779715206	-1.7338288329	 0.28015
47.1728	173.0821	250.2684	287.1402	308.1319	320.7829	334.5752	405.6198	491.3347	547.7583	593.8794	662.4341	722.4616	755.6983	793.0866	837.1719	855.4601	948.881	960.4023	982.9495	1003.0705	1009.8911	1029.7147	1070.6518	1095.5556	1114.9229	1164.9391	1184.7831	1203.9691	1239.541	1245.6463	1257.2808	1272.0872	1291.9277	1314.8557	1359.5409	1387.7479	1422.0316	1463.3234	1486.1935	1673.7708	3022.6868	3060.3891	3065.1568	3074.0767	3108.7328	3126.3199	3170.952	3197.8499	3789.0961	3805.8506
OC1C=CC2CCC12O	O[C@H]1C=C[C@H]2CC[C@@]12O	
InChI=1S/C7H10O2/c8-6-2-1-5-3-4-7(5,6)9/h1-2,5-6,8-9H,3-4H2	InChI=1S/C7H10O2/c8-6-2-1-5-3-4-7(5,6)9/h1-2,5-6,8-9H,3-4H2/t5-,6-,7-/m0/s1
