19
gdb 69740	3.35772	1.55784	1.34018	1.7045	79.41	-0.2347	0.0284	0.2631	1017.5933	0.159977	-385.868579	-385.86108	-385.860135	-385.900175	30.175	
C	-0.0900882236	 1.527207554	 0.0543659105	-0.504997
C	 0.1440795742	 0.0520874721	 0.0167222868	 0.408934
O	-0.7616247997	-0.796459574	 0.7376576396	-0.276241
C	 0.6377613472	-0.9111070943	 1.0189292228	-0.058098
C	 1.2725172964	-1.8085398523	-0.0811834222	-0.095731
C	 0.6072597745	-3.1085802018	-0.4197921624	-0.067783
C	-0.2255698835	-2.9824997774	-1.4537974524	-0.047764
C	-0.268198254	-1.5844775355	-2.0372957627	-0.278026
C	 0.7177990034	-0.7942163505	-1.1483602424	-0.097922
H	 0.8037434542	 2.0716107078	-0.2674577272	 0.12248
H	-0.9120331117	 1.8083492001	-0.6144395779	 0.12958
H	-0.3523887966	 1.8471289596	 1.0664025147	 0.133297
H	 0.9450234591	-0.7735113503	 2.0505942732	 0.095317
H	 2.3623298735	-1.8509715958	 0.0063834689	 0.073576
H	 0.7713507691	-4.0239209137	 0.1381729609	 0.090698
H	-0.8342012051	-3.7854816342	-1.8577297917	 0.089551
H	 0.0267824009	-1.5786233324	-3.0941082416	 0.098404
H	-1.2833813134	-1.1701477739	-1.9933346615	 0.112554
H	 1.4917813751	-0.2646639773	-1.7070546252	 0.072173
138.4252	190.5444	214.2747	226.3483	301.3833	400.0555	502.843	556.4824	621.8798	691.5779	740.2473	751.8261	798.9401	836.8776	859.1591	884.2873	918.9619	938.218	965.5905	990.8216	1003.2978	1025.3229	1039.4284	1058.8105	1099.0859	1126.2562	1155.1667	1181.3379	1196.3603	1246.8599	1255.1236	1287.5408	1303.7607	1326.3852	1375.0525	1404.2951	1462.3812	1476.9701	1483.4745	1495.2927	1677.775	3020.0996	3031.2643	3048.1856	3062.877	3091.6928	3095.3201	3119.2503	3169.2772	3174.0764	3201.0351
CC12OC1C1C=CCC21	C[C@]12O[C@H]1[C@H]1C=CC[C@@H]21	
InChI=1S/C8H10O/c1-8-6-4-2-3-5(6)7(8)9-8/h2-3,5-7H,4H2,1H3	InChI=1S/C8H10O/c1-8-6-4-2-3-5(6)7(8)9-8/h2-3,5-7H,4H2,1H3/t5-,6+,7-,8+/m0/s1
