15
gdb 7126	7.76643	0.89825	0.8134	6.546	61.5	-0.2526	-0.0305	0.2221	1345.2121	0.116247	-436.961688	-436.952659	-436.951714	-436.996749	29.493	
C	-0.1464322626	 1.4723597696	 0.0118697982	-0.228916
O	 0.0253663786	 0.0726826921	 0.0024380802	-0.204142
C	-1.1791841841	-0.6201164137	 0.0105291377	-0.177595
C	-0.8941958864	-2.126911235	-0.0005531367	 0.402637
O	 0.2017146738	-2.6085468367	-0.0140905733	-0.27114
N	-2.0894778712	-2.8704864783	 0.0065722698	-0.355837
C	-2.2364771895	-4.2560618651	 0.0001102346	 0.168854
O	-1.3563616987	-5.0690921695	-0.0129675819	-0.248497
H	 0.8505719197	 1.9169158763	 0.0045077749	 0.141364
H	-0.7008655862	 1.8213860424	-0.8733777362	 0.108163
H	-0.6832816863	 1.8115145307	 0.9116726194	 0.108164
H	-1.7863839074	-0.381650472	 0.9044687717	 0.107933
H	-1.8039100864	-0.3718806331	-0.8685555997	 0.107928
H	-2.9536207787	-2.346735586	 0.0176979744	 0.255759
H	-3.3141712144	-4.5210670618	 0.0085165669	 0.085325
45.7638	59.0519	98.1631	130.9176	215.5907	231.4708	237.858	334.687	395.6607	556.75	574.4612	629.1593	813.1706	932.5685	1017.0282	1021.9579	1035.2542	1097.4892	1160.3308	1180.5574	1182.892	1245.6947	1264.7481	1406.0521	1447.067	1473.9152	1487.8055	1494.4694	1511.0802	1521.1633	1828.2382	1889.3097	2917.4123	2924.2989	2944.9592	2973.7752	3019.7066	3128.4288	3597.5553
COCC(=O)NC=O	COCC(=O)NC=O	
InChI=1S/C4H7NO3/c1-8-2-4(7)5-3-6/h3H,2H2,1H3,(H,5,6,7)	InChI=1S/C4H7NO3/c1-8-2-4(7)5-3-6/h3H,2H2,1H3,(H,5,6,7)
