15
gdb 133095	3.65042	1.06199	0.83797	2.1074	70.58	-0.2538	-0.0348	0.2191	1269.3654	0.11341	-461.958388	-461.950743	-461.949799	-461.99121	28.4	
O	 0.3559606837	 1.0225482677	 0.7619204491	-0.402599
C	 0.0164591138	 0.0903615715	-0.2468976015	-0.151316
C	-1.407106679	-0.4217903498	-0.1521017747	 0.206747
C	-2.0827925376	-0.4625798046	 1.07096803	-0.05911
N	-3.3282702285	-0.9214721974	 1.2203908477	-0.257523
C	-3.9638502993	-1.3712525332	 0.1391702001	-0.104279
C	-3.3693218697	-1.3666943198	-1.1171880429	 0.260237
F	-4.0516629674	-1.819873693	-2.1714054159	-0.073605
C	-2.081503908	-0.886714171	-1.2803926897	-0.306948
H	-0.2250474791	 1.7852104629	 0.6682992479	 0.287769
H	 0.1925488945	 0.4970863696	-1.2550695026	 0.10112
H	 0.7182834032	-0.7424403832	-0.1179782572	 0.136831
H	-1.5867181528	-0.0999796261	 1.9657320306	 0.123706
H	-4.9768037431	-1.7459490015	 0.2585449261	 0.123396
H	-1.6274709608	-0.8770540221	-2.2662421271	 0.115575
52.2326	170.784	226.039	245.1535	332.9451	368.1572	449.7259	469.5791	543.3688	551.8898	628.0963	730.2616	744.5221	906.1703	934.6197	963.7013	971.7745	999.7163	1038.7789	1089.1278	1161.5386	1188.6285	1210.8599	1278.9844	1308.2773	1331.5896	1377.8736	1412.3528	1471.4757	1486.7526	1497.2529	1615.6555	1641.4265	2982.2568	3052.8975	3169.9065	3183.2485	3185.4527	3808.0374
OCC1=CN=CC(F)=C1	OCc1cncc(F)c1	
InChI=1S/C6H6FNO/c7-6-1-5(4-9)2-8-3-6/h1-3,9H,4H2	InChI=1S/C6H6FNO/c7-6-1-5(4-9)2-8-3-6/h1-3,9H,4H2
