21
gdb 40624	3.85127	1.07823	1.05773	1.733	82.37	-0.2292	0.088	0.3171	1248.5621	0.184864	-387.048551	-387.040981	-387.040037	-387.080918	30.673	
C	 0.3274035672	 1.3766660962	-0.0029666471	-0.271149
C	 1.6243117126	 0.6077140071	-0.0188241614	-0.272577
C	 0.3083861926	-0.1339611608	-0.0324478341	-0.014308
C	-0.1271311199	-0.8916186725	 1.1925537441	 0.031326
C	-1.6032557473	-1.4352966004	 1.239290791	-0.083692
C	-1.0942620214	-2.6523103792	 0.401617417	-0.25083
C	 0.1526431528	-2.421717754	 1.2865196501	 0.09445
O	-0.3186769016	-2.7477057857	 2.6057294502	-0.283895
C	-1.5965493684	-2.0638748728	 2.6369168902	-0.086152
H	 0.0415512261	 1.8660734222	 0.9225308489	 0.110776
H	 0.0333516447	 1.9140022154	-0.8977538881	 0.110545
H	 2.2206789146	 0.6173423769	-0.9244242276	 0.111153
H	 2.2080207705	 0.582436348	 0.8956755469	 0.113479
H	 0.0343193631	-0.5717634641	-0.9870009475	 0.081376
H	 0.1887959793	-0.3459100718	 2.0895214044	 0.064723
H	-2.4640462285	-0.8318286292	 0.9524883501	 0.069935
H	-1.6094937906	-3.6088596903	 0.5184232495	 0.097685
H	-0.945734713	-2.4250619466	-0.6533169526	 0.105542
H	 1.126635243	-2.8795931298	 1.1195093158	 0.076968
H	-1.6093038599	-1.3271180188	 3.4489149148	 0.097218
H	-2.4052857458	-2.7867742198	 2.7985795454	 0.097428
66.6683	152.2638	182.153	327.2879	356.3858	429.3784	461.4951	508.6861	654.1644	774.9774	817.0428	833.7631	846.0314	877.8931	890.9656	897.4538	916.4826	937.8393	955.8464	967.7712	1008.2706	1027.469	1038.6572	1059.6725	1071.0107	1081.2793	1105.441	1125.7397	1131.0995	1169.7026	1194.0629	1198.5347	1218.9487	1231.6567	1235.966	1262.842	1268.1457	1283.7849	1325.9246	1367.202	1440.9314	1469.6544	1499.4874	1506.5495	1531.4317	3018.9409	3035.7891	3058.6128	3075.0705	3122.3619	3128.8573	3133.0427	3134.414	3143.7209	3157.7839	3206.9985	3222.4234
C1CC1C1C2CC1OC2	C1CC1[C@H]1[C@H]2C[C@@H]1OC2	
InChI=1S/C8H12O/c1-2-5(1)8-6-3-7(8)9-4-6/h5-8H,1-4H2	InChI=1S/C8H12O/c1-2-5(1)8-6-3-7(8)9-4-6/h5-8H,1-4H2/t6-,7-,8-/m0/s1
