21
gdb 122327	5.17549	0.68788	0.61892	2.2644	82.84	-0.2254	0.0251	0.2505	1827.8541	0.181144	-424.220385	-424.210519	-424.209574	-424.25665	34.285	
C	-0.0423778937	 1.4937623159	-0.0136353126	-0.38658
C	 9.0809*^-6	-0.0246765287	-0.0224036362	-0.024078
O	 0.681803481	-0.4473819432	-1.1864770739	-0.239446
C	 0.780619114	-1.8452438253	-1.2981148077	-0.164054
C	 1.509957035	-2.2105071666	-2.5467984674	 0.271921
C	 2.024256283	-1.4070051657	-3.4716671355	-0.193191
C	 2.6688139403	-2.2215901146	-4.5547210865	-0.10539
O	 2.4787062009	-3.5821845077	-4.1676527986	-0.266296
C	 1.769393887	-3.6440011598	-2.9366335333	-0.148739
H	 0.9708947976	 1.9052043618	-0.0135841596	 0.128016
H	-0.5644369061	 1.8674833787	-0.898955156	 0.128017
H	-0.5648089199	 1.8554601416	 0.8769053469	 0.116099
H	 0.5139197481	-0.4036960848	 0.8773869081	 0.087167
H	-1.0215008286	-0.4414492782	-0.0082046569	 0.087167
H	 1.302991211	-2.2713775672	-0.4201890767	 0.095501
H	-0.2244320136	-2.3090053876	-1.3013102818	 0.095486
H	 1.9932531495	-0.3265537154	-3.463207734	 0.113234
H	 2.2120893823	-2.0489133293	-5.54260046	 0.1031
H	 3.74563149	-2.0116504044	-4.6580793418	 0.103121
H	 2.36977978	-4.1804333919	-2.1828307856	 0.099481
H	 0.8362584414	-4.2170896774	-3.0681608008	 0.099462
45.0502	67.199	99.8895	112.6949	128.3821	227.8975	249.2047	268.1179	328.0415	439.9314	483.3472	697.9407	777.7641	813.4828	821.4205	900.7108	921.7397	935.7504	980.7266	997.8979	1042.6826	1043.9577	1083.5047	1106.4827	1146.9881	1165.3178	1172.386	1189.6424	1199.6749	1223.7135	1261.147	1272.5139	1295.9216	1355.1341	1391.8445	1397.9774	1409.2283	1457.3406	1483.0979	1497.7988	1503.5896	1518.4539	1530.3046	1534.4306	1739.7622	2919.5825	2929.2941	2954.4557	2957.6305	2970.5884	2970.6432	2978.4535	2983.3002	3045.6718	3120.7109	3122.6055	3239.9647
CCOCC1=CCOC1	CCOCC1=CCOC1	
InChI=1S/C7H12O2/c1-2-8-5-7-3-4-9-6-7/h3H,2,4-6H2,1H3	InChI=1S/C7H12O2/c1-2-8-5-7-3-4-9-6-7/h3H,2,4-6H2,1H3
