18
gdb 119760	4.48025	0.83229	0.71131	4.7822	79.63	-0.2395	-0.0236	0.216	1563.8329	0.147356	-439.096009	-439.087136	-439.086192	-439.130414	31.59	
C	-0.0808373513	 1.4030817354	 0.0110243267	-0.227645
O	 0.0091635464	-0.0032550307	 0.0030003034	-0.225287
C	-1.2454913357	-0.6319155559	 0.0102797656	-0.162603
C	-1.070748075	-2.1115167015	 0.0019260493	 0.264792
C	 0.0567523306	-2.8254125127	-0.0090756032	-0.265182
C	-0.2772303657	-4.2525435571	-0.0136353477	 0.42266
N	 0.5259272102	-5.2309825383	-0.0237095217	-0.553157
O	-1.6533401686	-4.3657387493	-0.0048711093	-0.251974
C	-2.2375005437	-3.0649106326	 0.0051868717	-0.172994
H	 0.9394530053	 1.7920075321	 0.0044936173	 0.136397
H	-0.6133852416	 1.7826837926	-0.8749876325	 0.109088
H	-0.598461193	 1.7734547562	 0.9096960048	 0.109092
H	-1.8331211879	-0.3310705785	 0.8988470943	 0.103598
H	-1.847622205	-0.3227090896	-0.8656069104	 0.103554
H	 1.0700713345	-2.457017122	-0.0142254429	 0.138563
H	 0.0124015212	-6.1137626567	-0.0244499632	 0.220818
H	-2.8712880616	-2.9580718661	 0.8968394628	 0.125136
H	-2.8830190691	-2.9495993951	-0.8769448049	 0.125145
76.0741	79.6907	122.3507	168.625	217.2092	235.5866	337.5601	366.2068	426.7338	474.4683	669.3653	691.2671	728.1894	860.1422	894.9057	900.6497	941.0075	988.1142	992.7302	1037.0041	1070.3941	1086.3205	1152.7227	1180.38	1184.6197	1200.509	1222.5566	1250.0448	1261.699	1322.1792	1389.4788	1436.6946	1479.7599	1487.2351	1495.1918	1503.8147	1520.1679	1708.4177	1760.706	2922.2277	2932.4775	2974.9315	3002.5023	3020.8607	3029.4119	3124.7062	3276.3561	3477.5869
COCC1=CC(=N)OC1	COC[C]1C=C([NH])OC1	
InChI=1S/C6H9NO2/c1-8-3-5-2-6(7)9-4-5/h2,7H,3-4H2,1H3	InChI=1S/C6H9NO2/c1-8-3-5-2-6(7)9-4-5/h2,7H,3-4H2,1H3
