19
gdb 86946	2.71086	1.09008	1.01827	3.5587	72.86	-0.2672	0.0009	0.2681	1270.0667	0.157492	-460.173946	-460.164486	-460.163541	-460.209542	34.049	
C	 0.9979062302	 1.3715635835	 0.0583079803	-0.418688
C	 0.0774484614	 0.154406678	 0.0712015878	-0.034422
C	 0.3819181355	-0.9075886573	-1.0330280057	-0.26118
C	 1.0958526472	-1.7915329969	 0.0112739251	 0.065737
O	 2.5107329223	-1.556217638	-0.0273127245	-0.205161
C	 3.3251228115	-2.5103146667	 0.472681708	 0.17049
O	 4.5033501266	-2.3544451134	 0.5807567031	-0.273376
C	 0.4401557799	-0.9357577288	 1.1379125852	 0.133773
O	 1.2144378538	-0.6177468665	 2.25581228	-0.426825
H	 2.0486273955	 1.0848269674	-0.0557108577	 0.130624
H	 0.7476419706	 2.0325289906	-0.7776047007	 0.12016
H	 0.8979580165	 1.9459175708	 0.9846486765	 0.127529
H	-0.9648072166	 0.4821369655	 0.1160542901	 0.075025
H	-0.5117673434	-1.3906113435	-1.4346227159	 0.111426
H	 1.0133487465	-0.5817461325	-1.8621735647	 0.121279
H	 0.9023624931	-2.8688336297	 0.0045290624	 0.085327
H	 2.7836846465	-3.4350854053	 0.74713498	 0.085364
H	-0.4601342918	-1.4298316788	 1.51466029	 0.095397
H	 2.0570643447	-0.2685668384	 1.9427852608	 0.297521
21.5902	76.1965	132.4446	215.5849	226.475	242.5303	260.9095	353.6955	372.4418	398.8308	510.2426	563.3167	640.523	734.7788	800.7514	847.0965	889.9554	920.3371	963.8039	1025.0928	1045.1154	1045.9108	1088.7781	1125.7189	1163.093	1174.0285	1186.936	1212.457	1257.5934	1280.6607	1288.4493	1299.4328	1360.2982	1374.917	1412.0271	1433.7536	1436.2231	1471.8204	1498.9091	1509.4816	1865.4548	2964.2021	3034.8037	3053.3268	3060.1414	3069.3916	3080.5138	3104.3775	3108.471	3128.6018	3799.663
CC1CC(OC=O)C1O	C[C@H]1C[C@@H](OC=O)[C@H]1O	
InChI=1S/C6H10O3/c1-4-2-5(6(4)8)9-3-7/h3-6,8H,2H2,1H3	InChI=1S/C6H10O3/c1-4-2-5(6(4)8)9-3-7/h3-6,8H,2H2,1H3/t4-,5+,6-/m0/s1
