16
gdb 6926	4.05774	1.21313	1.14085	4.1533	62.48	-0.2679	0.0012	0.2691	1074.2856	0.127359	-420.878287	-420.869628	-420.868684	-420.911745	30.881	
C	 0.0003640341	 1.5065283609	 0.3188664164	-0.455115
C	 0.0547002285	 0.0090770567	 0.1313160905	 0.354754
O	-1.1569106302	-0.5913153932	-0.2426847493	-0.459297
C	 1.3342111101	-0.6524029749	-0.3512089083	-0.374802
C	 0.8597469019	-0.8553887501	 1.0593279763	 0.074478
O	 1.6487860263	-0.2617277288	 2.0705660848	-0.186121
C	 1.0612932269	-0.1188909078	 3.2804125187	 0.171014
O	 1.6256290375	 0.3702315275	 4.2110087039	-0.270523
H	 0.9432100663	 1.8938918962	 0.7113100708	 0.141432
H	-0.2000650018	 2.0060473921	-0.6360849357	 0.116094
H	-0.8026724318	 1.7724660243	 1.0137760868	 0.131196
H	-1.3469451476	-0.3359820044	-1.1526890958	 0.28605
H	 1.2530784128	-1.4965616488	-1.0261761268	 0.124515
H	 2.2075263642	-0.0239405687	-0.4864934268	 0.134513
H	 0.4398233781	-1.8212412976	 1.3240889541	 0.122819
H	 0.0249023446	-0.5057942036	 3.3020155503	 0.088994
59.6731	130.3865	134.7212	215.4997	239.7347	290.9623	337.9956	369.8557	419.8038	430.871	519.6535	645.9646	725.6391	851.9714	903.5094	914.3549	980.2221	1035.8445	1051.224	1067.63	1092.8609	1108.2413	1165.532	1178.2914	1243.0961	1301.498	1346.3391	1401.2608	1418.9255	1429.9423	1476.6984	1488.9462	1509.8313	1870.0499	2963.8262	3033.1177	3095.532	3131.1708	3140.3045	3156.6804	3235.4637	3790.8106
CC1(O)CC1OC=O	C[C@@]1(O)C[C@H]1OC=O	
InChI=1S/C5H8O3/c1-5(7)2-4(5)8-3-6/h3-4,7H,2H2,1H3	InChI=1S/C5H8O3/c1-5(7)2-4(5)8-3-6/h3-4,7H,2H2,1H3/t4-,5-/m1/s1
