16
gdb 10468	2.72095	1.70319	1.21772	3.415	66.2	-0.2478	-0.03	0.2178	994.4348	0.128021	-383.74923	-383.740883	-383.739939	-383.783106	29.204	
O	-0.2601775386	 1.1230549383	 1.1955479704	-0.242059
C	 0.0760422589	 1.1294954473	 0.0384132621	 0.154787
C	 1.443483475	 1.5833631139	-0.4402638503	-0.365492
C	 1.3439510266	 2.8304955648	-1.3091186607	 0.242471
C	 0.9922466459	 4.1699687748	-0.661744919	-0.298472
C	 2.3784286303	 3.9441993452	-1.1548136944	-0.312009
C	 0.834837161	 2.6297216255	-2.6867655644	 0.116118
O	 0.4931165419	 1.5656777496	-3.1439126838	-0.271812
H	-0.6166239213	 0.8123276931	-0.7690326309	 0.102669
H	 2.0650523317	 1.7698132065	 0.439198741	 0.117235
H	 1.8903963614	 0.7771863769	-1.0347698253	 0.135676
H	 0.3489748211	 4.8462226549	-1.2149044922	 0.130706
H	 0.8033583725	 4.1399682913	 0.4053694273	 0.148247
H	 3.1694798784	 3.7639225348	-0.4362530122	 0.136892
H	 2.6970464454	 4.4600405601	-2.0546947112	 0.130748
H	 0.7903798597	 3.5614384733	-3.2975565362	 0.074294
44.0886	68.1437	139.9713	190.7022	255.8252	324.6761	327.2707	443.4127	483.7794	551.0978	739.6072	784.1566	824.9001	886.9249	924.954	938.6411	968.3991	1048.4909	1054.9793	1073.8203	1086.4492	1097.9567	1196.4411	1204.5144	1294.7932	1319.4806	1347.6478	1419.2435	1435.5332	1453.1863	1467.672	1497.5851	1809.8331	1828.4128	2863.443	2921.843	3039.8653	3110.059	3136.6871	3138.8763	3218.8655	3232.6127
O=CCC1(CC1)C=O	O=CCC1(CC1)C=O	
InChI=1S/C6H8O2/c7-4-3-6(5-8)1-2-6/h4-5H,1-3H2	InChI=1S/C6H8O2/c7-4-3-6(5-8)1-2-6/h4-5H,1-3H2
