21
gdb 65655	3.78378	0.9356	0.83828	2.454	78.74	-0.2494	0.0753	0.3247	1432.4707	0.181196	-424.191053	-424.181706	-424.180762	-424.226256	34.182	
C	 0.4726070674	 1.1086429046	 1.0837618473	-0.459422
C	 0.0957149671	-0.0675957048	 0.2116008489	 0.423298
C	-1.1491719176	-0.8448515932	 0.6105951908	-0.289777
C	-2.4555438512	-0.111730465	 0.3424816238	 0.165492
C	-3.7633994934	-0.7526697816	 0.8598490648	-0.29911
C	-3.958336099	 0.5838469576	 1.6017425053	-0.060304
O	-2.656287624	 1.0498482957	 1.1899133481	-0.290186
C	 0.5396557512	-0.1170521422	-1.1910265814	-0.224011
O	 1.2013850886	-0.8944703519	-0.1910403609	-0.283719
H	 1.3703302745	 1.5997639067	 0.7002120743	 0.115996
H	-0.3476303868	 1.8288282575	 1.1359323751	 0.151025
H	 0.6790386189	 0.7680899266	 2.1046112695	 0.120521
H	-1.1613576775	-1.7857031524	 0.0475332318	 0.109777
H	-1.0980673526	-1.1025639482	 1.6761208544	 0.100742
H	-2.5063007642	 0.1820386581	-0.7162472386	 0.072816
H	-4.5100031435	-1.0071449351	 0.1065315435	 0.111165
H	-3.602824261	-1.6125812682	 1.5138063653	 0.112691
H	-4.761281943	 1.2193624265	 1.2065352301	 0.102122
H	-4.0503643711	 0.535500387	 2.6926231346	 0.107079
H	-0.0306230366	-0.6872593132	-1.9247235284	 0.103396
H	 1.1188682239	 0.7085345655	-1.6030356282	 0.11041
42.6248	69.3371	105.6627	152.2779	206.6594	293.5123	309.5851	361.2022	405.106	445.657	493.014	732.5269	739.4438	812.5292	832.5708	866.107	895.8514	921.729	946.4393	968.646	983.6357	1027.2825	1059.9827	1076.2732	1109.9191	1134.8907	1139.6674	1163.3089	1169.1212	1200.2939	1220.2394	1256.7232	1275.5734	1299.1958	1323.3885	1367.2479	1398.1428	1406.6654	1425.2886	1466.4273	1483.7294	1489.5541	1500.7381	1531.3128	1532.6626	2991.8272	3015.5289	3025.9433	3040.7391	3059.4386	3073.3105	3075.1504	3076.6036	3107.9181	3133.5803	3136.7027	3157.1909
CC1(CC2CCO2)CO1	C[C@@]1(C[C@H]2CCO2)CO1	
InChI=1S/C7H12O2/c1-7(5-9-7)4-6-2-3-8-6/h6H,2-5H2,1H3	InChI=1S/C7H12O2/c1-7(5-9-7)4-6-2-3-8-6/h6H,2-5H2,1H3/t6-,7-/m1/s1
