20
gdb 105072	2.88585	1.12731	1.06064	2.5656	74.96	-0.2526	0.0654	0.3181	1248.2444	0.170186	-440.232692	-440.223452	-440.222508	-440.266777	34.758	
C	 2.6368984671	-0.3732961605	-0.3806184031	-0.410959
C	 1.4080663006	-1.1165127823	 0.0849364322	 0.011383
N	 1.60240958	-2.2187206158	 1.0438586524	-0.33896
C	 0.8361248094	-1.0414503556	 1.463019201	-0.124392
C	 1.3692987938	-0.2046592442	 2.5924580499	 0.373051
C	 0.6199602864	 1.1029503269	 2.8274429869	-0.127816
O	 1.2518451194	 1.9045951904	 3.7972597236	-0.420768
C	 2.1014955592	-0.8313539552	 3.7011298373	-0.220217
O	 2.7905040184	-0.0516301798	 2.7047395756	-0.280961
H	 3.3572345497	-0.2744598972	 0.4307232854	 0.159382
H	 3.1105306525	-0.9128617027	-1.2079876659	 0.116094
H	 2.3702185104	 0.6256750417	-0.7432345879	 0.111604
H	 0.667301065	-1.2882669508	-0.6966674076	 0.082804
H	 0.9805992558	-2.9960396413	 0.841082044	 0.232526
H	-0.2484519627	-1.1455514461	 1.5243053622	 0.081425
H	 0.5272045777	 1.6293935601	 1.8620165684	 0.094762
H	-0.3958944026	 0.8939715201	 3.182785708	 0.112855
H	 2.1955088902	 1.8599872161	 3.5900458654	 0.292001
H	 2.0665994865	-0.3773186917	 4.6879202216	 0.125494
H	 2.3061218534	-1.8974269321	 3.6495582507	 0.130693
59.7024	118.3641	169.6718	189.7714	228.211	274.32	318.7685	361.5534	384.4147	419.2106	501.1841	534.6379	645.5325	708.065	790.2088	829.05	855.4524	907.9081	931.9699	959.8871	1016.8537	1027.2481	1060.9037	1084.7023	1101.7964	1131.8282	1147.6278	1174.4007	1190.0563	1199.8104	1235.6873	1257.3483	1273.0372	1357.8857	1396.2453	1406.5997	1435.8644	1441.4514	1474.8211	1500.8104	1503.3259	1504.965	1511.6562	2960.5749	3036.9668	3057.9048	3087.8008	3092.6918	3100.5633	3108.8646	3163.6574	3208.9891	3509.6971	3752.483
CC1NC1C1(CO)CO1	C[C@H]1N[C@H]1[C@@]1(CO)CO1	
InChI=1S/C6H11NO2/c1-4-5(7-4)6(2-8)3-9-6/h4-5,7-8H,2-3H2,1H3	InChI=1S/C6H11NO2/c1-4-5(7-4)6(2-8)3-9-6/h4-5,7-8H,2-3H2,1H3/t4-,5-,6-/m1/s1
