18
gdb 97986	4.97748	0.47841	0.45368	4.7401	84.45	-0.2593	-0.0018	0.2575	2377.3992	0.144764	-401.917985	-401.907361	-401.906417	-401.956688	35.12	
C	 0.0170274438	 1.1980286035	-0.6910759457	-0.366927
C	-0.1254206875	 0.2232796466	 0.4918831243	-0.318222
C	-1.4340580938	-0.4170293703	 0.5571200415	 0.174239
C	-2.5174876505	-0.9405015457	 0.5875476513	-0.023117
C	-3.830241164	-1.5580181433	 0.6480268447	-0.211463
O	-3.8329590011	-2.7648947248	-0.1119212395	-0.234168
C	-5.0891410611	-3.3939986965	-0.0769034901	-0.175347
C	-5.0342681446	-4.6230578256	-0.8726493977	 0.269443
N	-5.0260384711	-5.5974441774	-1.4915303212	-0.291041
H	 1.0144613479	 1.6470535943	-0.6950482322	 0.117865
H	-0.1318491634	 0.6788813845	-1.6414574653	 0.133839
H	-0.722206453	 2.0008436598	-0.6250426096	 0.128318
H	 0.6474083076	-0.5530443859	 0.4265324598	 0.138477
H	 0.0619977951	 0.7541200063	 1.4340321732	 0.133284
H	-4.1033462122	-1.7754574389	 1.6947013545	 0.122748
H	-4.5967366529	-0.8683449456	 0.2553132946	 0.12222
H	-5.3864264639	-3.6558090879	 0.952553271	 0.139995
H	-5.8821473154	-2.746116683	-0.4869300934	 0.139859
12.9275	62.0681	68.0634	84.733	136.371	160.5321	226.7163	290.7157	324.2271	344.9086	385.9802	453.7533	519.9716	594.269	761.0617	783.0459	946.2522	976.079	1013.2943	1019.7317	1050.2004	1080.4274	1103.1221	1131.4527	1180.6649	1247.5277	1257.5323	1286.178	1350.6442	1374.9747	1409.9748	1442.6848	1470.3369	1490.3358	1495.1517	1505.0359	1507.9402	2373.7337	2375.6848	2952.4971	2965.4778	2973.1999	2988.5909	3023.2063	3045.9009	3051.5237	3119.7856	3125.767
CCC#CCOCC#N	CCC#CCOCC#N	
InChI=1S/C7H9NO/c1-2-3-4-6-9-7-5-8/h2,6-7H2,1H3	InChI=1S/C7H9NO/c1-2-3-4-6-9-7-5-8/h2,6-7H2,1H3
