22
gdb 8953	3.8895	1.06535	0.89106	0.0014	74.83	-0.2491	0.068	0.3171	1372.4974	0.197476	-387.347683	-387.337137	-387.336193	-387.38297	38.059	
C	 0.0251797771	 1.5814255608	-0.0021369834	-0.383812
C	 0.000452415	 0.0515007441	 0.0163348232	-0.188051
C	-1.4167817671	-0.5280083593	-0.0045060133	 0.108477
O	-2.1333186793	-0.1283550308	-1.1725097833	-0.427264
C	-1.4295592528	-2.0646284984	 0.1486150336	 0.108416
O	-0.7141112717	-2.4644163038	 1.3172538773	-0.427329
C	-2.8467742408	-2.6440968125	 0.1264114031	-0.187986
C	-2.8715834419	-4.1740248081	 0.144460244	-0.383822
H	 1.0503478434	 1.9605666966	-0.0507533032	 0.109536
H	-0.5268541773	 1.9696806107	-0.8625839243	 0.123123
H	-0.4397757878	 1.9933075277	 0.9006316272	 0.112308
H	 0.5455970299	-0.3435242208	-0.8550293485	 0.080279
H	 0.5195530001	-0.3381055461	 0.8968792353	 0.114619
H	-1.9933883339	-0.0993851062	 0.8292426886	 0.07244
H	-1.6025534232	-0.3802533476	-1.9370960932	 0.278406
H	-0.8522645136	-2.4931701946	-0.6846973617	 0.072446
H	-1.2455829002	-2.2126281905	 2.0813873711	 0.278412
H	-3.3926726906	-2.2492576118	 0.9973873111	 0.080267
H	-3.3650652231	-2.254247018	-0.7545138827	 0.114593
H	-2.3203338519	-4.5625163856	 1.0053011966	 0.123116
H	-3.8968096458	-4.5531379825	 0.1920628389	 0.109533
H	-2.4058361045	-4.5856920133	-0.7579977564	 0.112293
69.2505	84.346	119.472	155.5366	217.8522	224.1828	268.3954	273.3282	290.5299	314.3268	334.8143	412.626	450.3016	532.432	554.6232	778.5707	783.0987	880.6769	882.9988	985.7188	987.7168	1033.3547	1052.4225	1075.7861	1094.759	1104.7076	1134.4678	1170.3174	1215.3036	1259.8157	1264.091	1315.4443	1330.532	1359.6526	1384.8535	1393.2997	1403.3397	1406.9982	1416.1022	1418.8408	1486.9421	1487.7652	1496.9798	1497.0039	1510.1195	1510.2349	2989.2727	2990.0819	2997.6928	3014.6948	3035.9084	3036.1418	3086.3881	3086.5317	3100.8698	3101.0659	3118.6359	3118.9147	3790.1141	3791.6022
CCC(O)C(O)CC	CC[C@@H](O)[C@@H](O)CC	
InChI=1S/C6H14O2/c1-3-5(7)6(8)4-2/h5-8H,3-4H2,1-2H3	InChI=1S/C6H14O2/c1-3-5(7)6(8)4-2/h5-8H,3-4H2,1-2H3/t5-,6+
