19
gdb 35955	3.22234	1.1764	0.90635	4.3122	81.77	-0.2444	-0.0071	0.2374	1274.448	0.161692	-382.077483	-382.069189	-382.068245	-382.110754	31.659	
N	 0.1111518834	-1.2322018979	 0.3231940185	-0.318287
C	 0.0558780363	-0.0851437918	 0.1995077571	 0.254366
C	-0.0368191535	 1.3727692788	 0.0350185161	-0.141429
N	-0.720304668	 1.9366599763	 1.2100276827	-0.299834
C	-1.3356569624	 3.2427321715	 0.9656788129	-0.158153
C	-0.324727148	 4.3917392171	 0.9217831845	-0.167637
C	 0.6057398334	 4.3902498959	-0.303518264	-0.260993
C	 1.6038297145	 3.2584413268	-0.3581835622	-0.076504
C	 1.3485060464	 1.961501003	-0.2067827052	-0.012819
H	-0.6357450123	 1.5349309667	-0.8851839506	 0.115448
H	-1.4409918475	 1.285054656	 1.5006465088	 0.235126
H	-1.9314216938	 3.2520401774	 0.0315544871	 0.08008
H	-2.0350196482	 3.4205627582	 1.7887790452	 0.106214
H	-0.889433997	 5.3318673687	 0.9224236081	 0.09681
H	 0.2740195138	 4.3692764152	 1.8384091152	 0.113766
H	-0.0097983758	 4.3769916944	-1.2164636696	 0.112265
H	 1.1500286171	 5.3393648715	-0.3312260875	 0.107487
H	 2.6371774566	 3.5401226097	-0.5467669093	 0.099635
H	 2.1602508748	 1.2449655924	-0.2764952076	 0.114459
49.3892	147.5969	178.8032	235.9894	304.871	338.299	372.4822	458.7951	491.9807	556.5976	564.7228	664.4856	697.1845	784.2284	808.4569	873.8678	912.3168	939.3344	963.306	996.1379	1016.9511	1071.025	1084.4597	1117.2948	1162.056	1202.6056	1242.0643	1279.1205	1289.4252	1299.6961	1339.9185	1370.6489	1381.1678	1406.1962	1420.7914	1474.2803	1479.8085	1491.4748	1505.303	1727.298	2365.6855	2880.6238	2908.865	2992.9778	3031.807	3070.0135	3072.6694	3084.9094	3150.6835	3186.6247	3529.4891
N#CC1NCCCC=C1	N#C[C@H]1NCCCC=C1	
InChI=1S/C7H10N2/c8-6-7-4-2-1-3-5-9-7/h2,4,7,9H,1,3,5H2	InChI=1S/C7H10N2/c8-6-7-4-2-1-3-5-9-7/h2,4,7,9H,1,3,5H2/t7-/m0/s1
