18
gdb 110691	2.90421	1.31318	1.20115	3.0813	77.83	-0.2321	-0.0664	0.1658	1120.0818	0.147739	-401.942296	-401.934176	-401.933232	-401.975328	30.801	
C	 0.2698112026	 1.544164586	 0.1115114689	-0.37443
C	-0.2748616592	 0.1380949631	-0.1229351882	-0.126229
N	 0.500788115	-0.5290892713	-1.1667144849	-0.090213
C	 1.7335959102	-1.2833975509	-0.8987987536	-0.081068
C	 1.9972434318	-1.7597848091	 0.4991465893	-0.064202
C	 1.0622791158	-2.6237547291	 0.9189591954	-0.205172
C	 0.0761200351	-2.8729401125	-0.1735523992	 0.392644
O	-0.8504268495	-3.6477584077	-0.1601486696	-0.322635
C	 0.4892135552	-1.9817410926	-1.3441311023	-0.167123
H	 1.2887850407	 1.5076729861	 0.5117249713	 0.114289
H	 0.2948399106	 2.1104666871	-0.8235788592	 0.129753
H	-0.354945537	 2.0819581468	 0.830765891	 0.117125
H	-0.3040539584	-0.4136210452	 0.8276523762	 0.096867
H	-1.3046946627	 0.1872840537	-0.4935471175	 0.116772
H	 2.5668325354	-1.0633149645	-1.5588574632	 0.105788
H	 2.8292474865	-1.393038591	 1.0899578115	 0.122064
H	 0.9738632645	-3.0765277903	 1.89840153	 0.12301
H	 0.3055821532	-2.3451235587	-2.3504299957	 0.112759
67.7144	101.4569	201.7686	216.5496	266.367	347.0581	453.5043	458.7273	518.4934	620.8644	695.0321	744.7138	772.1009	796.3389	818.1199	871.42	884.6336	914.2159	966.0647	993.606	1008.0683	1069.142	1091.8595	1104.0108	1126.216	1169.8162	1180.2712	1269.7043	1297.5278	1305.3473	1351.3087	1360.5473	1386.8212	1410.8098	1488.706	1492.7958	1508.9287	1631.8159	1817.3094	2999.9592	3038.4329	3062.4205	3107.3364	3121.9172	3155.9617	3165.0769	3193.7976	3225.3391
CCN1C2C=CC(=O)C12	CCN1[C@H]2C=CC(=O)[C@@H]12	
InChI=1S/C7H9NO/c1-2-8-5-3-4-6(9)7(5)8/h3-5,7H,2H2,1H3	InChI=1S/C7H9NO/c1-2-8-5-3-4-6(9)7(5)8/h3-5,7H,2H2,1H3/t5-,7-,8?/m0/s1
