12
gdb 5047	3.70282	2.39654	1.67564	1.0626	64.52	-0.2561	-0.089	0.1672	732.5994	0.086283	-373.704038	-373.69793	-373.696986	-373.73431	22.483	
N	-0.1660911903	 1.0379722568	 0.7403682833	-0.493399
C	-0.0269729554	-0.0036479074	 0.0294091961	 0.292666
C	-1.2310245129	-0.7192992576	-0.4982588675	 0.014399
N	-1.4665079442	-1.9547789029	-0.2680059154	-0.173305
C	-0.5714778565	-2.7599951478	 0.398956705	 0.095801
N	 0.7152550527	-2.7936071805	 0.2923718854	-0.230473
C	 1.4100370174	-1.8059857612	-0.3713391625	 0.072957
N	 1.1649471121	-0.5446296294	-0.4595670595	-0.24702
H	 0.7521371432	 1.4035626793	 1.0082080559	 0.232188
H	-1.9331908449	-0.1606267735	-1.1186544977	 0.155442
H	-1.0430499979	-3.5396443045	 0.9961742289	 0.14329
H	 2.3442609466	-2.1538736013	-0.8118288519	 0.137454
111.605	252.1254	316.2573	357.1141	422.2724	463.1185	623.1509	642.458	763.2349	854.3456	875.7514	934.1811	957.2942	994.3189	1022.5235	1046.4962	1072.1058	1135.8992	1318.8848	1374.2014	1424.5443	1431.3309	1557.6648	1643.9929	1686.7843	1734.3942	3129.2254	3140.0261	3147.0309	3441.3591
N=C1C=NC=NC=N1	[NH][C]1C=NC=NC=N1	
InChI=1S/C4H4N4/c5-4-1-6-2-7-3-8-4/h1-3,5H	InChI=1S/C4H4N4/c5-4-1-6-2-7-3-8-4/h1-3,5H
