23
gdb 104735	1.93195	1.39485	1.03159	0.99	82.28	-0.2445	0.0712	0.3157	1301.2161	0.202522	-425.410479	-425.399406	-425.398462	-425.446197	41.134	
C	-0.602287065	-0.3720519083	 0.5841677543	-0.387346
C	 0.9158633395	-0.5916586678	 0.5481349748	-0.255372
C	 1.4838340778	-0.8783872544	-0.8377058152	 0.319142
C	 1.4145122234	 0.2969066026	-1.7931932589	-0.147089
O	 2.161035125	 1.3683185087	-1.2182425006	-0.426836
C	 2.732493071	-1.7458632537	-0.9385536142	-0.397161
C	 1.4045617295	-2.2658757774	-1.4373157061	 0.342062
C	 0.7160882508	-3.4192670079	-0.7394705061	-0.446856
O	 1.2046839321	-2.2906651815	-2.8344598263	-0.464498
H	-0.9008236044	 0.4881750806	-0.0229432627	 0.119898
H	-1.1452033873	-1.2460572379	 0.2101705541	 0.115596
H	-0.9404671055	-0.1806580991	 1.6075909994	 0.109514
H	 1.4228748398	 0.3013206749	 0.9288228109	 0.119741
H	 1.1796699749	-1.4056961967	 1.2313896635	 0.08638
H	 1.8172293883	 0.0057241254	-2.7689814978	 0.099853
H	 0.3657501251	 0.5939498435	-1.9483805573	 0.085462
H	 2.0670552194	 2.1331350593	-1.7932338619	 0.284383
H	 3.4711419849	-1.4673801663	-1.6826609416	 0.10981
H	 3.1432143438	-2.1603634273	-0.0229988816	 0.102485
H	 0.8359674051	-3.3809925809	 0.3451403829	 0.120892
H	-0.3528384569	-3.429692106	-0.9743904013	 0.126064
H	 1.1422088941	-4.3707892237	-1.0823271681	 0.104746
H	 1.6944811445	-3.0432108561	-3.1843712801	 0.27913
56.0985	109.4376	127.7061	188.3379	205.4047	219.6576	243.1971	269.0407	273.2114	318.7214	333.6994	389.7122	407.1443	464.1205	471.675	573.3445	698.3266	727.3491	792.4804	897.2344	909.395	929.9947	953.0516	982.1957	1028.8019	1043.1282	1048.0226	1061.6418	1083.8312	1111.4973	1177.6203	1211.8227	1239.1491	1253.842	1286.8999	1318.7336	1320.7371	1370.2451	1403.8385	1410.6275	1417.4775	1456.0738	1478.8057	1480.7366	1496.6155	1498.1948	1503.0936	1510.2471	1529.7954	2983.3342	3024.8699	3037.4209	3043.8893	3060.5876	3076.2773	3087.1237	3103.0163	3110.0042	3122.7767	3130.2975	3212.3698	3791.5651	3831.4835
CCC1(CO)CC1(C)O	CC[C@@]1(CO)C[C@]1(C)O	
InChI=1S/C7H14O2/c1-3-7(5-8)4-6(7,2)9/h8-9H,3-5H2,1-2H3	InChI=1S/C7H14O2/c1-3-7(5-8)4-6(7,2)9/h8-9H,3-5H2,1-2H3/t6-,7-/m0/s1
