16
gdb 26305	3.93532	1.04997	0.85866	4.8494	66.86	-0.2194	0.0119	0.2314	1291.0877	0.124066	-475.076583	-475.068051	-475.067107	-475.110122	31.541	
C	 0.5006885325	 0.9978408212	-0.7432905957	-0.409525
C	 0.0255950212	-0.0240302828	 0.2869351034	 0.002632
O	 0.2573121417	 0.4065736525	 1.6299521995	-0.426533
C	-1.4139160544	-0.3990488645	 0.1122563869	 0.288915
C	-2.3181355381	-0.1663782031	-0.8505974101	-0.132247
O	-3.5223630754	-0.7527696298	-0.5273465284	-0.212491
C	-3.3906126849	-1.3724008466	 0.7078151239	 0.48728
O	-4.2756709256	-1.9463481103	 1.2778195618	-0.397757
N	-2.0794040878	-1.1662512642	 1.0727568376	-0.422107
H	 1.5471408078	 1.2465999595	-0.5541310198	 0.13619
H	 0.4156471199	 0.6011679705	-1.7595765924	 0.130862
H	-0.0938164116	 1.9160196504	-0.6841785849	 0.120461
H	 0.6393249575	-0.930220508	 0.1998966022	 0.113974
H	-0.2300764515	 1.2287802944	 1.7613129736	 0.28576
H	-2.2667208378	 0.3490465997	-1.7930842327	 0.153586
H	-1.7155616736	-1.4001321187	 1.980382515	 0.281002
58.5995	125.2406	162.1477	238.1529	260.3512	323.6151	359.5016	423.7533	472.3982	485.5236	558.3312	597.6132	690.887	738.2174	760.3628	774.6017	886.8355	915.5906	989.2095	1038.5845	1077.5994	1103.2699	1119.8894	1185.5388	1223.0407	1287.5137	1326.123	1354.4161	1403.3512	1419.8067	1426.5209	1491.5647	1495.7068	1698.7763	1902.2116	3025.8722	3039.9832	3109.7487	3133.3271	3299.4712	3687.7295	3787.7193
CC(O)C1=COC(=O)N1	C[C@@H](O)c1coc(=O)[nH]1	
InChI=1S/C5H7NO3/c1-3(7)4-2-9-5(8)6-4/h2-3,7H,1H3,(H,6,8)	InChI=1S/C5H7NO3/c1-3(7)4-2-9-5(8)6-4/h2-3,7H,1H3,(H,6,8)/t3-/m1/s1
