19
gdb 119213	2.33115	1.21699	0.92295	2.5427	79.93	-0.2247	0.0457	0.2703	1320.5074	0.156343	-422.96025	-422.950361	-422.949417	-422.994911	36.481	
C	 0.0834985309	 1.4324122947	-1.0888693398	-0.235658
O	 0.0910709058	 0.0452430049	-1.3591889534	-0.256663
C	 0.7113608418	-0.7150683028	-0.3319245647	-0.151371
C	 0.6685054257	-2.2002306796	-0.6742961747	 0.045598
C	-0.4936374998	-2.7295856818	-1.5262697404	-0.362224
C	 0.8779203773	-2.6438245635	-2.1269726295	 0.11752
O	 1.214421062	-1.7445823096	-3.1268389881	-0.430716
C	 1.1943057635	-3.0302261765	 0.3709017226	 0.249201
C	 1.6459895508	-3.7117694421	 1.2544247226	-0.425975
H	-0.4608471114	 1.6509085849	-0.158966051	 0.119106
H	 1.1039384364	 1.8320960097	-0.9983865212	 0.11885
H	-0.4215840505	 1.9236871434	-1.9230629214	 0.136462
H	 1.7575645267	-0.3952276317	-0.2057520441	 0.112762
H	 0.1926163722	-0.5397989527	 0.6230563016	 0.112095
H	-0.9010969685	-3.7012445461	-1.2718801863	 0.122826
H	-1.2175702603	-1.9852046111	-1.8382535606	 0.130001
H	 1.4207524163	-3.573835289	-2.2572204398	 0.116149
H	 0.7998289301	-0.8991551375	-2.901066034	 0.292575
H	 2.0441607611	-4.3212032035	 2.0271187523	 0.18946
93.3106	104.4245	123.7871	161.9505	196.4592	227.2771	259.0781	333.7118	393.1968	441.9814	484.0869	518.3097	535.1972	547.3546	573.7961	653.8279	728.2319	804.0071	870.4565	931.8711	983.1283	1030.5851	1048.9633	1083.4852	1113.2582	1138.2551	1170.8026	1188.3063	1212.576	1244.2582	1270.5042	1296.7304	1356.7931	1422.1248	1454.3836	1482.3905	1484.2762	1487.5926	1502.557	1526.2095	2229.2487	2974.9212	2991.3458	3010.067	3042.9151	3126.2273	3139.4764	3175.2805	3235.5568	3503.8093	3718.2885
COCC1(CC1O)C#C	COC[C@]1(C[C@H]1O)C#C	
InChI=1S/C7H10O2/c1-3-7(5-9-2)4-6(7)8/h1,6,8H,4-5H2,2H3	InChI=1S/C7H10O2/c1-3-7(5-9-2)4-6(7)8/h1,6,8H,4-5H2,2H3/t6-,7-/m1/s1
