21
gdb 69949	3.50187	1.43436	1.26273	1.7478	81.19	-0.2494	0.0845	0.3339	1087.6188	0.183948	-387.086265	-387.078433	-387.077489	-387.118184	31.722	
C	-0.006818267	 1.550969741	-0.0002303109	-0.484536
C	-0.0626657576	 0.051544841	 0.1140833115	 0.420324
C	-1.2676594628	-0.7209420107	-0.411424121	-0.301873
C	-1.178891469	-2.1156923556	 0.2395900991	-0.003381
C	-0.3009989453	-3.2185708396	-0.4257861786	-0.220266
C	 0.546089301	-3.3263549378	 0.8743722219	-0.220108
C	-0.1454940455	-2.039824033	 1.4159526164	-0.046937
C	 0.5891276291	-0.7384331238	 1.1783388912	-0.035096
O	 1.1750275733	-0.6425481882	-0.1334259055	-0.297013
H	 0.9138704662	 1.9366352606	 0.4445966663	 0.128389
H	-0.0310429231	 1.8608115568	-1.0509889729	 0.126161
H	-0.862335555	 2.0129371478	 0.5039659665	 0.119382
H	-2.185826282	-0.200525287	-0.1125076073	 0.09572
H	-1.2649223778	-0.7686741117	-1.5067053663	 0.105843
H	-2.1618300618	-2.4917097606	 0.5309252029	 0.066395
H	-0.8295551254	-4.125128197	-0.7319300525	 0.087426
H	 0.2745356156	-2.840467891	-1.2720424715	 0.11309
H	 0.3028214516	-4.2090939829	 1.4710309796	 0.094839
H	 1.629987677	-3.272887773	 0.754052231	 0.106092
H	-0.5296719056	-2.0832702931	 2.4391022758	 0.062475
H	 1.1737898041	-0.2746202323	 1.9709470344	 0.083073
137.5892	156.6534	197.8504	243.3777	328.8922	368.1881	390.8184	515.2617	570.1899	650.4898	693.2114	749.3373	758.678	830.5169	847.8839	867.4462	896.8064	921.0768	954.8648	960.1645	991.3004	1026.9205	1043.7651	1063.2888	1094.387	1105.0587	1135.1009	1181.4279	1214.9015	1229.9574	1237.1832	1260.2657	1266.7159	1279.7199	1300.8869	1316.7591	1341.431	1351.6277	1408.7706	1444.1966	1470.4479	1477.0635	1485.5217	1491.6778	1499.513	3027.3301	3034.6801	3057.6952	3062.2907	3065.9522	3069.5417	3083.8332	3095.0537	3111.6381	3121.8115	3126.3157	3130.7275
CC12CC3CCC3C1O2	C[C@]12C[C@H]3CC[C@H]3[C@H]1O2	
InChI=1S/C8H12O/c1-8-4-5-2-3-6(5)7(8)9-8/h5-7H,2-4H2,1H3	InChI=1S/C8H12O/c1-8-4-5-2-3-6(5)7(8)9-8/h5-7H,2-4H2,1H3/t5-,6-,7-,8+/m1/s1
