16
gdb 52356	14.30491	0.41053	0.40107	3.6791	80.79	-0.2723	-0.0676	0.2047	2509.6592	0.121183	-437.854671	-437.844303	-437.843358	-437.89403	32.787	
N	-0.1331482489	 1.3208630961	 0.0094505321	-0.43114
C	-0.0484163853	 0.0633242411	 0.002421769	 0.128554
O	-1.1722548873	-0.6847769495	 0.0094224112	-0.180913
C	-0.9899283029	-2.0964212751	 0.0000378239	-0.068028
C	-2.3897690707	-2.7172516673	 0.0095552844	-0.358358
C	-2.3541089035	-4.1700535278	 0.0015684467	 0.074504
C	-2.317183619	-5.377239077	-0.0053790783	 0.038703
C	-2.2455409424	-6.8164025945	-0.0138995148	 0.021278
O	-3.2067907049	-7.5499045888	-0.0083098985	-0.224193
H	 0.7971713448	 1.7337361295	 0.002655636	 0.233671
H	 0.8752227548	-0.532058358	-0.0093530829	 0.08939
H	-0.4409015192	-2.4111184801	-0.8964118055	 0.124253
H	-0.4246324269	-2.4208073997	 0.8828222673	 0.124252
H	-2.9323279271	-2.3617326653	 0.8937750907	 0.16411
H	-2.9483835687	-2.35247481	-0.8607840497	 0.164112
H	-1.2116593725	-7.2177728637	-0.0265597717	 0.099804
13.6869	30.5057	55.8753	56.7982	125.4192	155.2959	197.8119	213.1805	371.7055	415.1002	475.4866	589.5271	655.4413	782.3271	825.3105	838.6712	1002.4785	1021.4216	1044.7834	1067.3478	1077.1943	1143.27	1159.5368	1224.2307	1284.156	1304.1097	1313.7457	1406.9482	1423.3101	1430.3191	1461.4186	1518.4062	1752.4094	1770.4313	2333.9939	2918.1291	3009.9594	3026.3924	3039.2336	3055.6383	3081.4022	3520.7021
N=COCCC#CC=O	[NH][CH]OCCC#CC=O	
InChI=1S/C6H7NO2/c7-6-9-5-3-1-2-4-8/h4,6-7H,3,5H2	InChI=1S/C6H7NO2/c7-6-9-5-3-1-2-4-8/h4,6-7H,3,5H2
