18
gdb 76095	2.46699	1.24369	1.01992	1.7283	79.26	-0.2295	0.0279	0.2574	1228.6393	0.145051	-401.849653	-401.840409	-401.839465	-401.884081	33.756	
C	-0.2399659978	 1.4901916359	-0.0325040691	-0.315988
N	 0.0579901777	 0.0644177191	 0.0615987964	-0.111251
C	 1.4037010778	-0.42231504	-0.294613217	-0.224906
C	 2.4498403431	 0.4782447632	-0.6938271136	 0.351554
C	 3.3198390809	 1.2250086295	-1.0596006592	-0.459646
C	 0.9085832663	-0.435026516	 1.1316954887	-0.041317
C	 1.5183126167	 0.4456774202	 2.1772993477	 0.060401
C	 0.938360311	 0.5060620497	 3.5276117369	-0.184468
O	 2.1178161577	-0.2543747127	 3.2720703408	-0.230181
H	 0.6163267665	 2.1555396014	 0.1350899772	 0.119591
H	-0.6342316114	 1.6937501131	-1.0323312492	 0.13101
H	-1.0206704381	 1.7284125317	 0.6958598293	 0.126507
H	 1.3915427124	-1.3627130173	-0.8418522753	 0.118894
H	 4.0955666831	 1.8752416358	-1.3812786069	 0.203325
H	 0.5931338979	-1.395687873	 1.537756347	 0.106749
H	 2.09731186	 1.2962679969	 1.8248977409	 0.114294
H	 1.0766673491	 1.400352139	 4.1335383626	 0.118266
H	 0.0466373872	-0.0774571265	 3.754029193	 0.117166
55.1133	110.0219	137.0769	166.5797	188.4131	259.9019	329.5053	351.6769	375.3967	530.1291	588.1653	603.6386	617.8289	667.5038	721.7634	836.2275	846.9808	869.7857	928.9074	968.7607	1040.571	1079.7572	1099.1084	1133.1931	1150.3741	1160.5026	1166.592	1174.3745	1201.0527	1289.8376	1313.6507	1329.0212	1365.0923	1451.8207	1465.2818	1487.0022	1505.7378	1528.0961	2228.5798	3016.8732	3081.8806	3086.6284	3111.5961	3112.2649	3124.7978	3140.5028	3170.5429	3501.7644
CN1C(C#C)C1C1CO1	CN1[C@@H](C#C)[C@H]1[C@H]1CO1	
InChI=1S/C7H9NO/c1-3-5-7(8(5)2)6-4-9-6/h1,5-7H,4H2,2H3	InChI=1S/C7H9NO/c1-3-5-7(8(5)2)6-4-9-6/h1,5-7H,4H2,2H3/t5-,6+,7-,8?/m0/s1
