17
gdb 20301	4.57413	1.71228	1.55634	1.2039	67.88	-0.2124	0.0717	0.284	864.5796	0.142736	-363.7679	-363.760935	-363.759991	-363.799961	26.453	
C	 0.624147365	 1.3633173854	 0.3257906742	-0.223412
C	 0.6422401088	 0.1763461127	-0.5623255671	-0.209985
N	-0.5448004637	 0.4818016061	 0.2483126462	-0.099803
C	-0.8055242655	-0.3223022905	 1.417246895	 0.027638
C	-1.8094634857	-1.4477968826	 1.4404536391	-0.171758
C	-1.6192126659	-2.3260310588	 0.2080956839	-0.086974
O	-0.2008260948	-2.4905454394	 0.4862494131	-0.283228
C	-0.3305428668	-1.727500217	 1.6873502726	 0.048996
H	 1.2351913671	 1.317487578	 1.2257351609	 0.108116
H	 0.4803600476	 2.3616761872	-0.0777249663	 0.113883
H	 0.5036769601	 0.2916742428	-1.6336401134	 0.114232
H	 1.252683345	-0.6693573934	-0.2678807626	 0.138109
H	-0.8637994343	 0.2748958279	 2.3257164856	 0.097653
H	-2.6634157965	-1.4706508478	 2.104354943	 0.097617
H	-2.1287789384	-3.2931249635	 0.2707570369	 0.110371
H	-1.8039414251	-1.8632701791	-0.7671432336	 0.118643
H	 0.2291707132	-2.0649479778	 2.5538501126	 0.099902
29.3467	170.0157	208.3805	315.1905	346.0392	494.8521	623.5531	735.2979	776.7523	793.9178	808.6535	841.0579	891.1552	936.0964	966.039	975.1273	1019.7234	1033.4201	1046.5374	1055.7657	1078.8701	1105.695	1121.8225	1124.2373	1164.0776	1170.3892	1181.9778	1197.9793	1259.5249	1310.8547	1325.4427	1352.9212	1431.7632	1494.1575	1509.7528	1522.753	3036.2927	3088.0477	3096.2243	3124.1843	3126.8039	3160.7876	3181.8721	3198.5082	3221.8981
C1CN1C1C2COC12	C1CN1[C@H]1[C@H]2CO[C@@H]12	
InChI=1S/C6H9NO/c1-2-7(1)5-4-3-8-6(4)5/h4-6H,1-3H2	InChI=1S/C6H9NO/c1-2-7(1)5-4-3-8-6(4)5/h4-6H,1-3H2/t4-,5+,6-/m1/s1
