18
gdb 37173	3.42609	1.79897	1.62477	1.1571	74.2	-0.2306	0.0562	0.2868	881.679	0.150524	-401.822511	-401.816446	-401.815502	-401.852462	26.681	
C	 0.0826610952	 1.5223316243	-0.0415217707	-0.258075
C	 1.3449740747	 0.7442991739	 0.1014606959	-0.027095
C	 1.91378633	 0.2532337609	 1.4858128253	-0.122421
C	 1.4426471191	-1.2183693779	 1.3424343212	-0.233606
C	 0.0380662373	-0.497156661	 1.34124084	 0.297545
C	-0.8466886598	-0.9678170036	 2.4891600566	-0.193458
O	 0.1530494643	-0.3986931542	 3.4015558229	-0.312253
C	 0.6612618749	 0.4898157404	 2.3501249121	 0.095046
N	-0.0000245629	 0.0476215599	-0.0247041808	-0.192912
H	-0.3297685199	 2.097015652	 0.7790017249	 0.122303
H	-0.1321937924	 1.9442379747	-1.0195484048	 0.120732
H	 2.0148761137	 0.6529291969	-0.7484069528	 0.106557
H	 2.9348727121	 0.5593779768	 1.7183782983	 0.069578
H	 1.6994695829	-1.7343353655	 0.4162644667	 0.103251
H	 1.6230851669	-1.8362674133	 2.2196225238	 0.119347
H	-1.8083163474	-0.4490457699	 2.5903266855	 0.110346
H	-0.9751530053	-2.0438421928	 2.6389363066	 0.115015
H	 0.3324113766	 1.5085067084	 2.5535182193	 0.080099
266.3336	321.452	386.1459	438.8528	448.4096	547.7862	578.4522	673.2322	717.0193	739.7339	773.0687	857.7792	870.9933	887.5521	896.2019	917.8071	967.8282	994.1495	1014.5144	1040.3871	1051.1401	1074.9036	1087.8616	1104.3236	1125.5374	1146.7269	1155.4003	1188.138	1208.568	1235.3329	1240.6971	1246.967	1273.6486	1322.412	1342.177	1355.863	1488.7813	1503.1875	1512.9655	3022.1604	3087.659	3092.4012	3095.6616	3105.6432	3129.4844	3156.6612	3167.8892	3212.5644
C1C2C3CC4(COC34)N12	C1[C@H]2[C@@H]3C[C@]4(CO[C@@H]34)N12	
InChI=1S/C7H9NO/c1-4-5-2-8(5)7(1)3-9-6(4)7/h4-6H,1-3H2	InChI=1S/C7H9NO/c1-4-5-2-8(5)7(1)3-9-6(4)7/h4-6H,1-3H2/t4-,5-,6-,7+,8?/m0/s1
