16
gdb 55719	3.2388	1.0853	0.9068	6.3125	69.97	-0.2583	-0.0033	0.255	1253.4967	0.124441	-434.085687	-434.076664	-434.07572	-434.120124	32.458	
N	-0.660418941	 1.3170588923	-0.1875124085	-0.515544
C	-0.236439974	 0.0729292768	-0.5268268461	 0.405563
O	 0.0597618446	-0.2217073985	-1.6743588583	-0.363219
C	-0.1260467455	-0.9128934254	 0.6337985397	-0.391198
C	-0.6223045073	-2.3275692357	 0.3225612988	 0.146561
C	-1.7163382061	-2.5904940985	-0.6633932868	-0.259501
N	-0.3405180945	-2.983231746	-0.9657664961	-0.325939
C	-0.5216881438	-3.1999562706	 1.4783073198	 0.274644
N	-0.4512465396	-3.8540541871	 2.4289382946	-0.33863
H	-0.6838447281	 2.0248136414	-0.904319521	 0.271249
H	-0.8854937018	 1.5746333304	 0.7569756876	 0.269953
H	 0.9368198274	-0.9696128491	 0.9010027044	 0.162143
H	-0.651051847	-0.539519565	 1.5188967171	 0.127151
H	-2.4075078297	-3.4074021611	-0.4805707841	 0.13809
H	-2.1355852156	-1.7297708602	-1.1765703537	 0.132721
H	 0.0700263921	-2.2742365536	-1.5762175273	 0.265956
46.397	83.4724	141.8963	226.138	246.5649	250.5783	334.3113	344.9432	403.7924	513.8423	566.2769	588.9247	613.7704	664.4414	758.9689	839.1476	870.16	913.0801	966.1839	995.6926	1009.6094	1092.2808	1107.7615	1137.5333	1232.9986	1279.5431	1303.0552	1338.6539	1373.9401	1421.9221	1467.1879	1505.116	1620.6234	1773.3194	2356.4123	3036.6652	3081.4029	3117.91	3209.4056	3449.2753	3600.9553	3739.0238
NC(=O)CC1(CN1)C#N	NC(=O)C[C@]1(CN1)C#N	
InChI=1S/C5H7N3O/c6-2-5(3-8-5)1-4(7)9/h8H,1,3H2,(H2,7,9)	InChI=1S/C5H7N3O/c6-2-5(3-8-5)1-4(7)9/h8H,1,3H2,(H2,7,9)/t5-/m1/s1
