19
gdb 41875	3.26461	1.52559	1.09605	1.21	76.05	-0.2478	0.0172	0.265	1091.3257	0.162135	-423.038819	-423.031444	-423.0305	-423.071012	28.785	
C	-0.005402022	 1.436748495	-0.0488264059	 0.010447
O	 1.3357841101	 1.9075790066	 0.0137646152	-0.288506
C	 2.0938365192	 0.8267825833	 0.5382290636	 0.141707
C	 3.5592277696	 0.7841874186	 0.1528522644	-0.306768
C	 4.0681789862	-0.6098192413	 0.4722608952	-0.051793
C	 3.2864491502	-1.6646687462	 0.725065294	-0.051791
C	 1.7690686772	-1.6423993582	 0.688125162	-0.306763
C	 1.3556144274	-0.3718025589	-0.0276592914	 0.14172
O	 0.0001283509	 0.0246093479	 0.1251089802	-0.288524
H	-0.6213465258	 1.870190394	 0.7521040956	 0.102402
H	-0.4138634002	 1.7193143888	-1.0296703499	 0.102415
H	 2.0089836907	 0.8059602275	 1.6380487634	 0.072787
H	 3.677187524	 1.0095995943	-0.9156284736	 0.120234
H	 4.1421606895	 1.5368177239	 0.6952886625	 0.113261
H	 5.1474815246	-0.7336346438	 0.5070806955	 0.091448
H	 3.7497787908	-2.6190505781	 0.9615346336	 0.091447
H	 1.386584551	-2.5351286363	 0.1809356101	 0.113261
H	 1.3516696801	-1.6585311233	 1.7039472818	 0.12023
H	 1.6025307564	-0.4642449439	-1.0989770864	 0.072787
65.2052	167.6411	188.5192	350.6527	356.4139	407.9366	459.1562	553.26	566.3871	687.7139	731.7417	805.155	822.143	899.9667	943.2657	975.9058	997.5804	1000.9157	1015.7797	1064.5326	1070.6336	1128.0576	1135.3468	1146.884	1146.9295	1171.7152	1204.414	1216.7221	1236.1519	1302.7367	1325.4786	1328.7874	1388.002	1388.7088	1413.3565	1413.8556	1434.7764	1486.1112	1487.2416	1548.8256	1701.4306	2951.1011	2967.4594	2988.9849	3022.8464	3024.3697	3025.3974	3064.4297	3065.6484	3149.9935	3172.5947
C1OC2CC=CCC2O1	C1O[C@@H]2CC=CC[C@H]2O1	
InChI=1S/C7H10O2/c1-2-4-7-6(3-1)8-5-9-7/h1-2,6-7H,3-5H2	InChI=1S/C7H10O2/c1-2-4-7-6(3-1)8-5-9-7/h1-2,6-7H,3-5H2/t6-,7-/m1/s1
