16
gdb 27433	2.35216	1.63922	0.96669	5.45	86.38	-0.2155	-0.0696	0.146	1156.8431	0.126861	-400.798771	-400.791088	-400.790143	-400.831014	29.879	
N	 0.0243110436	 1.4069875787	 0.1499154512	-0.56233
C	-0.0075310558	 0.0218398768	 0.0547188325	 0.307602
C	-1.2207562051	-0.6140493212	 0.0325170539	-0.248775
C	-1.5927419199	-2.0191639713	 0.0114827902	 0.323548
O	-2.7832911055	-2.3361912215	 0.0161769288	-0.39171
C	-0.5865474925	-3.0969944864	-0.0324497081	-0.151638
C	 0.7640475283	-3.0474768861	-0.0428194088	-0.087828
C	 1.6273218821	-1.9028804576	-0.006825044	-0.085025
C	 1.3012758989	-0.5906430908	 0.0398854518	-0.123469
H	 0.8375195142	 1.8698639648	-0.2248903698	 0.25458
H	-0.8377498136	 1.8879636903	-0.0557575016	 0.259249
H	-2.1034729572	 0.0228666704	 0.0414569816	 0.089243
H	-1.0604384552	-4.0749462557	-0.0610576097	 0.114458
H	 1.2827517813	-4.0027559969	-0.0791526617	 0.10419
H	 2.6904306682	-2.1291823106	-0.0145386701	 0.105325
H	 2.1297519979	 0.113353297	 0.0793139637	 0.09258
74.9125	174.6647	271.5942	332.5884	355.4686	373.6338	442.1039	458.2112	507.4074	531.4522	575.2057	640.5261	715.4032	806.491	819.3641	841.1915	889.6765	923.6042	965.9028	1006.8532	1020.8017	1043.2382	1130.2991	1233.729	1256.685	1294.579	1328.525	1397.423	1442.0975	1507.4938	1593.2028	1642.9816	1660.8454	1674.9064	1704.256	3140.2788	3145.2704	3148.2672	3168.4091	3177.0971	3581.3061	3687.7229
NC1=CC(=O)C=CC=C1	Nc1cc(=O)cccc1	
InChI=1S/C7H7NO/c8-6-3-1-2-4-7(9)5-6/h1-5H,8H2	InChI=1S/C7H7NO/c8-6-3-1-2-4-7(9)5-6/h1-5H,8H2
