20
gdb 120706	2.22355	1.2216	0.95289	2.648	76.32	-0.2386	0.027	0.2655	1331.0457	0.169288	-440.297464	-440.28735	-440.286406	-440.333468	36.38	
C	 0.1515136913	 1.526938509	-0.5418712803	-0.38645
C	 0.4477146911	 0.0567643414	-0.3088726345	-0.052958
O	 0.2048775592	-0.643133986	-1.5332435204	-0.249376
C	 0.4874557721	-1.9962174032	-1.4489824204	 0.148947
C	 0.7208685607	-2.7075314892	-2.7434364189	-0.354158
C	 1.8805521151	-2.49084128	-1.7881810458	-0.167078
C	 2.9791261106	-1.4855842987	-2.0401028855	 0.401453
N	 3.2887426632	-1.256018375	-3.3471393069	-0.51185
O	 3.5578189487	-0.926409858	-1.1257110125	-0.373426
H	 0.8151085467	 1.933363412	-1.310306967	 0.128179
H	-0.882767518	 1.6680521214	-0.8693366666	 0.121146
H	 0.3047069845	 2.0937788185	 0.3813013198	 0.115515
H	 1.4884759659	-0.0949349062	 0.0009693151	 0.133583
H	-0.2074771272	-0.351637313	 0.4776314104	 0.082355
H	-0.0425853067	-2.5243458674	-0.6546605141	 0.085699
H	 0.3285972396	-3.7094533171	-2.8765381321	 0.11773
H	 0.6730652472	-2.0780816998	-3.6259203183	 0.123971
H	 2.2327082843	-3.345848835	-1.2188596613	 0.115827
H	 2.9018561247	-1.8113106598	-4.0885857757	 0.26089
H	 4.0558402871	-0.6359660939	-3.5496787648	 0.260001
37.4957	59.8303	134.9967	150.3503	169.1186	229.2639	254.9851	270.3401	369.26	415.8477	488.7691	498.7326	527.8345	645.0946	733.6152	783.311	815.3255	827.5187	832.859	917.8467	978.3547	1030.7152	1071.0313	1079.3597	1090.965	1099.1073	1127.0624	1141.6625	1186.7869	1192.86	1239.4058	1304.4311	1318.1163	1377.1086	1397.6331	1405.9179	1444.7006	1482.831	1483.8223	1501.6624	1529.6561	1609.9764	1779.1842	2973.6273	3044.1171	3060.7868	3087.0304	3118.441	3121.5416	3134.2847	3157.3677	3222.7841	3607.002	3747.3082
CCOC1CC1C(N)=O	CCO[C@H]1C[C@H]1C(=O)N	
InChI=1S/C6H11NO2/c1-2-9-5-3-4(5)6(7)8/h4-5H,2-3H2,1H3,(H2,7,8)	InChI=1S/C6H11NO2/c1-2-9-5-3-4(5)6(7)8/h4-5H,2-3H2,1H3,(H2,7,8)/t4-,5+/m1/s1
