21
gdb 63982	2.96	1.44245	1.25966	1.3367	77.09	-0.2485	0.0754	0.3238	1098.0972	0.182743	-424.223589	-424.215071	-424.214127	-424.256396	33.215	
C	 0.2047192071	 1.4979561307	 0.0257418126	-0.441568
C	 0.0428158683	-0.0173710012	-0.001918039	 0.297416
C	-1.4235169801	-0.4153644299	-0.1871238194	-0.441383
C	 0.9932647916	-0.8024019014	-0.9718607684	-0.324691
C	 1.4569295019	-1.7042659355	 0.2079107635	 0.099658
O	 2.8123219508	-1.6149561338	 0.6031782541	-0.252772
C	 2.9347723776	-0.3929543428	 1.2907821305	 0.009453
O	 1.7001363596	-0.1374503844	 1.9342870105	-0.257263
C	 0.6809068906	-0.7982244365	 1.2018861974	 0.046056
H	 1.2413281758	 1.791772919	 0.2087202738	 0.118783
H	-0.1103890105	 1.9352821454	-0.9286206878	 0.110535
H	-0.4060952561	 1.9449144716	 0.8177245187	 0.117008
H	-1.8105656507	-0.044409306	-1.142693923	 0.116144
H	-1.5524875046	-1.503810843	-0.17992985	 0.111556
H	-2.0467829765	-0.0012433649	 0.6135745293	 0.116449
H	 0.5005303124	-1.3249032614	-1.7956712377	 0.099922
H	 1.8101297711	-0.2028646247	-1.3824683078	 0.104291
H	 1.1932683514	-2.7600002893	 0.1417066604	 0.090032
H	 3.7224578392	-0.4848049232	 2.044799931	 0.119853
H	 3.1801582295	 0.4265047421	 0.5923809996	 0.084847
H	-0.0197505783	-1.2374537808	 1.9168091718	 0.075672
82.2334	188.8937	197.1528	239.5469	253.4572	300.5206	320.631	359.6481	438.6822	499.5479	575.8932	734.4251	751.9941	778.925	847.8329	873.7201	924.6475	933.5766	956.9414	967.5659	978.9369	1024.7266	1029.1054	1046.0644	1115.4131	1149.5215	1181.5855	1189.4833	1218.9503	1225.3898	1226.8308	1258.1281	1277.4997	1294.2684	1346.5872	1356.9446	1403.3693	1422.4688	1431.7961	1474.2927	1480.5326	1485.7626	1501.8007	1504.7505	1550.426	2942.798	3020.5318	3030.527	3057.8395	3072.3009	3079.8266	3087.3004	3090.2405	3094.626	3104.818	3115.1556	3118.6592
CC1(C)CC2OCOC12	CC1(C)C[C@H]2OCO[C@@H]12	
InChI=1S/C7H12O2/c1-7(2)3-5-6(7)9-4-8-5/h5-6H,3-4H2,1-2H3	InChI=1S/C7H12O2/c1-7(2)3-5-6(7)9-4-8-5/h5-6H,3-4H2,1-2H3/t5-,6-/m1/s1
