16
gdb 5757	5.89958	1.46385	1.29267	0.4695	72.51	-0.2036	0.0218	0.2254	954.3808	0.132167	-346.622079	-346.61532	-346.614375	-346.65343	25.897	
C	-0.1455570821	 1.4511772919	-0.0563114847	-0.264573
C	 1.2592441866	 0.9622948516	 0.152576652	-0.264622
C	 0.1236159583	-0.038334142	 0.0484521527	-0.102499
C	-0.3173555644	-0.8051059713	 1.2184391107	 0.393807
C	-0.7856126148	-2.0751442818	 1.3742853589	-0.2976
C	-1.0509338248	-2.2446927123	 2.7739482961	-0.167282
C	-0.7264946529	-1.0676774755	 3.3634812238	-0.024754
O	-0.2767736063	-0.1789605282	 2.4310585403	-0.189639
H	-0.6461287897	 1.9183748529	 0.783782482	 0.127552
H	-0.4215682106	 1.8454661227	-1.0279026959	 0.114291
H	 1.9588535094	 1.0171128842	-0.67397144	 0.114286
H	 1.7003468405	 1.1018793687	 1.1326473245	 0.127612
H	 0.0623701586	-0.607636945	-0.8725672288	 0.093479
H	-0.9244897251	-2.8017588343	 0.5892383406	 0.103358
H	-1.4318656305	-3.1255062957	 3.2666039306	 0.108103
H	-0.7499595321	-0.7065033759	 4.3779273971	 0.128483
65.0165	161.5581	177.6786	395.4044	414.232	611.1269	630.0883	697.917	731.1387	790.419	792.2353	819.2262	841.374	893.7398	903.0868	908.2931	959.3026	1024.9911	1058.4808	1066.0483	1082.0159	1106.6631	1125.4965	1184.7134	1203.7384	1208.0016	1236.5554	1275.8941	1374.4418	1417.8005	1463.1239	1494.3706	1551.7617	1640.05	3137.3378	3140.7343	3171.2449	3221.4714	3236.8072	3250.2925	3262.2596	3288.3768
C1CC1C1=CC=CO1	C1CC1c1ccco1	
InChI=1S/C7H8O/c1-2-7(8-5-1)6-3-4-6/h1-2,5-6H,3-4H2	InChI=1S/C7H8O/c1-2-7(8-5-1)6-3-4-6/h1-2,5-6H,3-4H2
