23
gdb 108371	2.01491	1.53547	1.1666	1.8188	85.54	-0.2249	0.0684	0.2933	1222.3979	0.203982	-388.25762	-388.247685	-388.246741	-388.292176	37.645	
C	-1.1193162169	 0.4476811637	 0.0268913524	-0.373373
C	 0.1888834764	-0.3334098192	 0.2268946796	-0.299102
C	 0.8174123857	-0.7462959142	-1.0777998901	 0.238937
C	 0.2442463612	-1.8658890125	-1.9520122425	-0.144223
O	 1.5689370936	-2.3194563787	-2.3342072	-0.290083
C	 2.1577575284	-1.3434539432	-1.4725749446	-0.011894
C	 1.8265267159	 0.0632619863	-1.9032834716	 0.252705
C	 1.6022055174	 0.4002948265	-3.3652308455	-0.469457
C	 2.5697167726	 1.1385847592	-1.1269366972	-0.465484
H	-0.9454584735	 1.3708576648	-0.5354806594	 0.120064
H	-1.8549030675	-0.1439118339	-0.5290562202	 0.117857
H	-1.5685260881	 0.7168205595	 0.9878514398	 0.112379
H	 0.8866845783	 0.2731383761	 0.8122779741	 0.101651
H	-0.0125358779	-1.2302632635	 0.8281669829	 0.097978
H	-0.2668322091	-2.6379887411	-1.3630836557	 0.103039
H	-0.3738041999	-1.5965109207	-2.8163815751	 0.101717
H	 3.0382432478	-1.6345556191	-0.9074891585	 0.095496
H	 1.2730455859	-0.4718026024	-3.9332378957	 0.135958
H	 0.8578302847	 1.1963403419	-3.4823551977	 0.109394
H	 2.5353706076	 0.7515455578	-3.820168493	 0.112236
H	 3.4950555165	 1.4062798122	-1.648637465	 0.11844
H	 1.9702603409	 2.0510564976	-1.0269351676	 0.11843
H	 2.84503928	 0.8112136128	-0.1198135893	 0.117333
51.5994	127.5582	172.6514	195.1948	224.833	238.3397	282.5123	295.6066	331.1061	370.2292	406.832	443.5915	551.2223	629.5714	703.0729	755.9535	785.595	914.3654	945.4977	948.3963	972.4622	989.7984	1004.2102	1006.1809	1017.1618	1047.847	1052.7175	1114.1633	1149.4504	1160.4547	1192.0173	1216.0875	1244.4154	1292.8825	1305.4516	1337.4234	1358.2085	1405.2382	1409.3562	1422.659	1444.9076	1478.6242	1486.6553	1492.0673	1498.4044	1502.8837	1506.8623	1513.2668	1524.9761	3013.429	3018.437	3024.4241	3029.6588	3032.211	3062.8768	3072.8479	3081.6893	3085.5281	3099.9093	3103.8528	3105.7214	3130.7953	3155.8232
CCC12COC1C2(C)C	CC[C@]12CO[C@H]1C2(C)C	
InChI=1S/C8H14O/c1-4-8-5-9-6(8)7(8,2)3/h6H,4-5H2,1-3H3	InChI=1S/C8H14O/c1-4-8-5-9-6(8)7(8,2)3/h6H,4-5H2,1-3H3/t6-,8-/m0/s1
