14
gdb 133234	3.24358	1.44313	1.00499	1.26	69.95	-0.2227	-0.0852	0.1376	1079.8255	0.101296	-474.15261	-474.145046	-474.144101	-474.184969	27.872	
C	-0.3127467546	 1.3542694093	-0.0274665725	-0.311627
N	 0.0224509351	-0.0597136093	-0.0034775144	-0.032124
N	 0.2153842547	-0.6585303392	-1.1958819411	-0.272537
C	 0.5117468118	-1.9103934647	-1.1636985919	 0.372512
F	 0.7027922674	-2.5095651087	-2.3235638111	-0.055884
N	 0.655633894	-2.7110666496	-0.070968449	-0.285741
C	 0.4681951621	-2.1249687554	 1.0647192599	-0.033361
C	 0.1256123924	-0.711768493	 1.2222639992	 0.358002
N	-0.0757464702	-0.0583258301	 2.311020371	-0.564848
H	 0.4362624433	 1.9221363185	 0.5320387683	 0.156647
H	-0.3435456757	 1.6679113158	-1.0690158623	 0.151989
H	-1.2788282811	 1.5142951215	 0.4599763199	 0.156665
H	 0.5705916884	-2.717703451	 1.9727335864	 0.141845
H	 0.0359086225	-0.6714531842	 3.1165214975	 0.218464
84.9545	147.2393	186.8376	318.5125	341.5699	365.9724	394.9747	494.765	565.9745	585.7479	595.1573	750.5346	756.957	783.5432	825.1969	957.0692	968.6617	1058.9333	1107.1052	1149.6392	1228.3912	1330.3731	1339.456	1396.7017	1429.4079	1456.2451	1465.806	1501.9229	1566.4328	1637.047	1685.2353	3050.7743	3109.7164	3146.6345	3181.0443	3499.2204
CN1N=C(F)N=CC1=N	Cn1nc(F)ncc1[NH]	
InChI=1S/C4H5FN4/c1-9-3(6)2-7-4(5)8-9/h2,6H,1H3	InChI=1S/C4H10FN4/c1-9-3(6)2-7-4(5)8-9/h3-4,6-8H,2H2,1H3
