17
gdb 57002	3.90718	1.10445	1.02135	5.0848	72.08	-0.2442	0.0238	0.268	1178.8459	0.136992	-417.960826	-417.952831	-417.951887	-417.993769	30.446	
O	 0.049361393	 1.4800266104	-0.2236534184	-0.404599
C	 0.0286707958	 0.081835644	-0.0788489204	-0.020179
C	 0.6817094659	-0.5802393557	-1.2357934571	 0.248802
N	 1.2150787656	-1.1041075795	-2.1171757991	-0.319633
C	 0.724578723	-0.3577062702	 1.2318948341	-0.004199
N	 1.8599671361	 0.5568437143	 1.5904413763	-0.355426
C	 1.318886237	 0.6561813295	 2.9726642589	 0.00341
C	 0.0085845075	 1.3702506408	 2.9368123145	-0.277382
C	 0.0578936153	-0.1036838555	 2.5910818439	-0.114179
H	 0.9127670107	 1.7457508996	 0.1407728398	 0.295097
H	-1.0194663626	-0.2390832977	-0.0588122026	 0.137793
H	 1.0388754968	-1.4023057693	 1.1531174134	 0.105891
H	 2.7503866168	 0.0732251161	 1.5569044242	 0.239501
H	 1.9625207159	 0.5826485677	 3.8399523473	 0.106935
H	-0.4285859183	 1.5674835817	 3.9106423159	 0.120312
H	-0.1951104548	 2.1177614717	 2.1795181547	 0.135731
H	-0.5094826639	-0.847422008	 3.1344285547	 0.102126
60.0225	129.4147	180.9674	228.2078	289.6503	349.8407	458.9433	486.8188	577.8468	612.4995	681.7982	722.5437	759.5212	809.3035	873.7444	890.8004	935.705	938.2155	976.7436	1006.4326	1038.7454	1045.1728	1051.3094	1088.5536	1101.9889	1125.9166	1179.188	1212.2265	1269.5569	1292.3409	1296.9787	1351.6004	1377.3882	1394.6746	1451.7306	1483.8708	2350.5223	3052.3282	3067.8581	3136.5145	3191.5305	3202.4434	3228.4581	3543.2691	3629.4471
OC(C#N)C1NC2CC12	O[C@@H](C#N)[C@H]1N[C@H]2C[C@@H]12	
InChI=1S/C6H8N2O/c7-2-5(9)6-3-1-4(3)8-6/h3-6,8-9H,1H2	InChI=1S/C6H8N2O/c7-2-5(9)6-3-1-4(3)8-6/h3-6,8-9H,1H2/t3-,4+,5+,6+/m1/s1
