16
gdb 7087	5.27315	0.78848	0.69474	2.1369	72.28	-0.2555	-0.0463	0.2092	1580.6028	0.126924	-383.727882	-383.717933	-383.716988	-383.766445	32.298	
C	 0.0856357979	 1.4410489182	 0.0087054657	-0.504879
C	 0.0338157587	-0.0106812611	 0.0009074746	 0.169373
C	-0.0282563933	-1.216107482	-0.004806461	-0.029698
C	-0.0849619011	-2.6642551525	-0.0115658224	 0.204905
O	-1.1409608389	-3.2657943737	-0.0046629976	-0.300542
C	 1.2580649559	-3.3684637292	-0.0278664942	-0.282801
C	 1.1366203371	-4.8852000095	-0.0353549655	-0.083408
O	 2.4578281841	-5.4078118903	-0.0504285956	-0.427644
H	 1.1173635576	 1.8070485402	 0.0012823627	 0.158024
H	-0.4273390187	 1.8515189397	-0.8678360361	 0.163959
H	-0.4111976798	 1.8413775654	 0.899129773	 0.163978
H	 1.824698739	-3.0275186302	-0.9038881669	 0.137475
H	 1.8405284136	-3.0374462517	 0.8415821168	 0.137492
H	 0.5774936807	-5.2156331945	 0.8513969474	 0.103325
H	 0.5613241344	-5.20560147	-0.9154348806	 0.103301
H	 2.3973271927	-6.3674304287	-0.0546369804	 0.287139
4.2031	56.1456	72.5359	89.5908	153.2045	197.8639	270.677	303.191	378.6849	380.4344	422.6854	575.0205	583.4575	794.7677	804.4833	971.4009	1038.6534	1044.1194	1055.0098	1072.7547	1074.5866	1182.5459	1205.2933	1260.3906	1297.9678	1353.3733	1409.8843	1446.0553	1468.6416	1470.2053	1473.5252	1522.0938	1752.9119	2339.8617	2997.2796	3025.8405	3032.5869	3034.1837	3069.2154	3096.0836	3100.2091	3831.6494
CC#CC(=O)CCO	CC#CC(=O)CCO	
InChI=1S/C6H8O2/c1-2-3-6(8)4-5-7/h7H,4-5H2,1H3	InChI=1S/C6H8O2/c1-2-3-6(8)4-5-7/h7H,4-5H2,1H3
