14
gdb 28828	3.0577	1.53858	1.23255	5.2982	70.64	-0.2539	-0.0995	0.1544	1005.3204	0.101288	-432.896925	-432.88937	-432.888426	-432.92915	27.525	
C	-0.4914210285	 1.3295790885	 0.1630817352	-0.480165
C	 0.0115130892	-0.0730282792	-0.0167804961	 0.300185
N	-0.0507764698	-0.6221990011	-1.1837753547	-0.262988
C	 0.4077172841	-1.9074104642	-1.4380181351	 0.073361
N	 0.3449594367	-2.9519533344	-0.6997871056	-0.227551
C	-0.2020507431	-2.8045117738	 0.5859818244	 0.376827
O	-1.1703272449	-3.3870893109	 0.985957496	-0.29679
N	 0.5888484174	-1.9778840515	 1.4239080148	-0.194769
C	 0.6339442395	-0.7293535294	 1.1584737898	-0.033511
H	 0.3180147345	 1.9874640497	 0.5011608942	 0.149837
H	-0.8957629204	 1.7061396927	-0.7763906548	 0.158941
H	-1.2672808514	 1.3602220265	 0.9369109527	 0.158389
H	 0.8150396842	-2.0187134463	-2.4428693594	 0.142822
H	 1.1879334126	-0.0815405967	 1.8433430987	 0.135411
101.3523	124.8198	195.274	275.6535	307.7031	358.4235	386.7329	501.4786	560.417	640.319	668.2873	757.7743	826.2463	882.16	910.3243	926.9257	969.8623	998.2831	1059.0627	1118.5056	1188.6704	1240.344	1398.4106	1400.8212	1418.1091	1464.4451	1473.2657	1601.48	1658.8467	1690.6806	1840.38	3034.2486	3088.0079	3094.0593	3140.3642	3158.3418
CC1=NC=NC(=O)N=C1	Cc1ncnc(=O)nc1	
InChI=1S/C5H5N3O/c1-4-2-6-5(9)8-3-7-4/h2-3H,1H3	InChI=1S/C5H5N3O/c1-4-2-6-5(9)8-3-7-4/h2-3H,1H3
