18
gdb 45184	2.83415	1.88206	1.61707	2.6327	74.38	-0.2118	-0.0155	0.1963	896.0516	0.150726	-401.919162	-401.912709	-401.911765	-401.949787	27.116	
O	 0.0192999808	-0.0205557169	-0.1162833281	-0.329452
C	 0.0068733641	 1.1800346542	-0.0042488534	 0.403773
C	-1.2679991029	 2.0408212602	 0.0919056644	-0.285767
N	-0.975235018	 3.3232961289	 0.7457007629	-0.134004
C	-0.1897287552	 3.0103434447	 1.9990153959	-0.194023
C	 1.0989420557	 3.1518491109	 1.1975581947	-0.038947
C	 0.2852702544	 3.9723188669	 0.1599801194	 0.020684
C	 0.9606636224	 3.2201867694	-0.9888061801	-0.256526
C	 1.2365443455	 2.0708709009	 0.0359268458	-0.138249
H	-1.6704593765	 2.2107280431	-0.9136017494	 0.130695
H	-2.0350126943	 1.5016932614	 0.6555225675	 0.132722
H	-0.3204266799	 3.8098374223	 2.7353601737	 0.111093
H	-0.4314493801	 2.0499184772	 2.4680751657	 0.112147
H	 2.0408067186	 3.4741252633	 1.6456850308	 0.07445
H	 0.1999073236	 5.0597680594	 0.1470586161	 0.078717
H	 0.4039746493	 2.9845050209	-1.9004588652	 0.110411
H	 1.8879239197	 3.7315779683	-1.2621712734	 0.115731
H	 2.1581929827	 1.4956026851	-0.0380760174	 0.086547
114.5552	316.9708	366.4175	407.4624	446.1685	474.6407	546.2101	628.0487	680.151	743.4352	751.0941	805.7774	839.643	895.0111	928.9028	946.1552	962.3982	987.8353	988.275	1035.7606	1060.8404	1084.1962	1095.724	1146.5058	1190.3142	1208.0159	1217.7509	1237.4832	1245.1551	1258.0981	1273.6526	1300.0065	1309.0268	1318.7682	1332.8499	1454.3534	1493.4886	1508.9106	1832.6158	3032.255	3042.0143	3053.6196	3082.7717	3087.3583	3096.3904	3099.8755	3105.8757	3128.1238
O=C1CN2CC3C2CC13	O=C1CN2C[C@@H]3[C@H]2C[C@H]13	
InChI=1S/C7H9NO/c9-7-3-8-2-5-4(7)1-6(5)8/h4-6H,1-3H2	InChI=1S/C7H9NO/c9-7-3-8-2-5-4(7)1-6(5)8/h4-6H,1-3H2/t4-,5-,6+/m0/s1
