15
gdb 32488	3.35684	1.12232	0.84558	4.4677	76.36	-0.2182	-0.0569	0.1612	1287.7953	0.112958	-453.983728	-453.975534	-453.97459	-454.017001	29.223	
C	-0.0255237787	 1.394907211	 0.0271489706	-0.238418
O	-0.0053549073	-0.0327540252	 0.009112443	-0.275582
C	 0.5989518976	-0.5923669176	-1.0476040787	 0.380807
C	 0.7220213899	-1.9633016226	-1.2477588136	-0.199583
N	 1.3943811583	-2.0717849389	-2.4301870826	-0.270033
C	 1.6498537458	-0.8102171431	-2.8937511014	 0.261542
C	 2.3616377674	-0.6052567841	-4.148202558	 0.090148
O	 2.6353313323	 0.4630981481	-4.6415280679	-0.264396
N	 1.1659697938	 0.104001948	-2.0534944543	-0.369913
H	 0.9900763406	 1.8020165743	 0.0327382165	 0.139491
H	-0.5541436656	 1.7912939673	-0.8450032217	 0.139485
H	-0.5484231075	 1.670260479	 0.9437361116	 0.128952
H	 0.3992940936	-2.8112857897	-0.6696653893	 0.148602
H	 1.6576868142	-2.9320658166	-2.884057663	 0.276835
H	 2.6490214958	-1.5655427398	-4.6418521711	 0.052064
94.6986	141.2388	143.5119	166.9108	239.9931	277.1207	384.8747	472.3838	526.2216	573.2439	670.7203	679.7795	694.9816	747.1114	817.6438	990.526	1008.1884	1043.2362	1078.0574	1113.7955	1180.8271	1211.0244	1230.3961	1343.6628	1375.409	1443.2929	1458.2159	1475.7948	1480.969	1500.9277	1546.6891	1603.8265	1800.4269	2830.3225	3039.8048	3109.3908	3149.201	3289.8692	3648.7607
COC1=CNC(C=O)=N1	COc1c[nH]c(C=O)n1	
InChI=1S/C5H6N2O2/c1-9-5-2-6-4(3-8)7-5/h2-3H,1H3,(H,6,7)	InChI=1S/C5H6N2O2/c1-9-5-2-6-4(3-8)7-5/h2-3H,1H3,(H,6,7)
