20
gdb 8676	2.59765	1.62434	1.31241	4.2609	75.19	-0.2378	0.0346	0.2724	1065.4225	0.175479	-345.194094	-345.184232	-345.183288	-345.228178	35.678	
C	 0.1430772032	 1.529855308	 0.0623944342	-0.40725
C	-0.0425635769	 0.013442917	-0.0155155706	-0.196193
C	-1.5096660276	-0.4946897237	-0.025102197	 0.099667
C	-2.2898766851	 0.0569020757	-1.2426515885	-0.415278
N	-1.4440873609	-1.9626829148	 0.0384346472	-0.299751
C	-2.7102078884	-2.6893185341	 0.0512922813	-0.33771
C	-2.1788113979	-0.0269659011	 1.209917913	 0.316551
N	-2.7075632174	 0.3619828175	 2.161096301	-0.357946
H	 1.2075541681	 1.7716743516	 0.1313070145	 0.122289
H	-0.2517772649	 2.0411948921	-0.8203037804	 0.120775
H	-0.3511917033	 1.9452909112	 0.9456891197	 0.145279
H	 0.4297345453	-0.3718012511	-0.9288821043	 0.095634
H	 0.4571920782	-0.4732105585	 0.8271456802	 0.127534
H	-1.7867278862	-0.2555991045	-2.1638241096	 0.114723
H	-3.3140630075	-0.321174121	-1.2598769165	 0.135831
H	-2.3394206671	 1.1480448795	-1.227540397	 0.137208
H	-0.8619164178	-2.2839694106	-0.7278205831	 0.219918
H	-2.4950226312	-3.7565261432	 0.1543863113	 0.12663
H	-3.2949345177	-2.3838069976	 0.9242373291	 0.15015
H	-3.3382119752	-2.5549441725	-0.8435766944	 0.10194
97.7632	99.7122	157.7958	170.4371	219.5055	232.3104	234.5189	285.3162	322.159	388.083	413.6002	433.8492	578.1845	607.7528	669.716	723.6006	793.8034	891.7206	924.1125	985.908	1016.2536	1062.0663	1106.2343	1133.8768	1155.5209	1186.1733	1196.7855	1261.0745	1312.9858	1358.4462	1404.467	1419.3045	1457.7193	1472.9843	1477.6301	1489.2487	1495.5118	1502.9331	1508.4362	1517.401	1524.0764	2354.3314	2977.9327	3022.4867	3043.7449	3045.8963	3075.4978	3085.953	3113.7511	3115.6067	3118.833	3122.139	3135.3256	3525.9136
CCC(C)(NC)C#N	CC[C@@](C)(NC)C#N	
InChI=1S/C6H12N2/c1-4-6(2,5-7)8-3/h8H,4H2,1-3H3	InChI=1S/C6H12N2/c1-4-6(2,5-7)8-3/h8H,4H2,1-3H3/t6-/m1/s1
