21
gdb 64265	2.57041	1.56741	1.49659	1.7651	76.77	-0.2376	0.0733	0.3109	1027.0588	0.183433	-424.223386	-424.215134	-424.21419	-424.255481	33.544	
C	-0.2188041212	 1.5624454326	 0.1123666307	-0.436677
C	 0.0034766929	 0.0529758892	-0.0047356969	 0.387042
O	-1.2490977061	-0.6366510694	 0.005093095	-0.481651
C	 0.8250448415	-0.3301632537	-1.2743810219	-0.278063
C	 2.3457824204	-0.4697567588	-1.0078454068	-0.209781
C	 2.5724966531	-0.8778256672	 0.4461021895	 0.099508
C	 1.4618512652	-1.8106850398	 0.9772475314	-0.265611
C	 0.7554123388	-0.4667822013	 1.2329005932	 0.082862
O	 2.0462588705	 0.198524607	 1.2809709084	-0.298303
H	 0.7353822951	 2.0897209363	 0.1801974391	 0.137541
H	-0.7612044218	 1.9391334401	-0.7633012552	 0.097911
H	-0.8092094669	 1.7924212985	 1.0048493994	 0.117828
H	-1.7867958166	-0.2840815802	-0.7116156249	 0.275176
H	 0.4302933977	-1.2922831748	-1.61355308	 0.109141
H	 0.6386028591	 0.3856294724	-2.082474449	 0.089429
H	 2.7829406827	-1.2031787811	-1.6954789301	 0.095574
H	 2.8688666487	 0.4785589106	-1.1714012772	 0.10934
H	 3.6170062772	-1.1028364682	 0.6780526714	 0.073148
H	 0.9964080947	-2.5294370102	 0.3017017111	 0.110232
H	 1.7518503941	-2.2971476038	 1.9094462691	 0.108218
H	 0.167922701	-0.3300656181	 2.1446523238	 0.077134
121.9702	210.86	239.6964	252.1951	317.8861	334.796	375.6985	408.3448	431.8223	498.3087	518.6751	598.8307	715.9541	801.3688	834.955	879.6581	898.949	918.5804	954.1717	962.642	971.1349	975.4397	1019.3273	1051.8075	1067.6736	1095.7842	1124.2123	1139.7418	1199.537	1207.9368	1225.2241	1256.6888	1264.3323	1308.6948	1323.5847	1340.3255	1354.0105	1374.4539	1397.2569	1406.1579	1476.5643	1482.5951	1488.6837	1500.9697	1507.4826	3027.1809	3032.5088	3043.7534	3069.7426	3072.7924	3076.2866	3087.5802	3091.6201	3095.7874	3131.593	3143.4115	3810.4704
CC1(O)CCC2CC1O2	C[C@@]1(O)CC[C@@H]2C[C@H]1O2	
InChI=1S/C7H12O2/c1-7(8)3-2-5-4-6(7)9-5/h5-6,8H,2-4H2,1H3	InChI=1S/C7H12O2/c1-7(8)3-2-5-4-6(7)9-5/h5-6,8H,2-4H2,1H3/t5-,6-,7-/m1/s1
