18
gdb 67887	2.79615	2.07058	1.38781	1.8787	76.92	-0.2151	0.008	0.2231	934.0236	0.148943	-401.879979	-401.873025	-401.87208	-401.910723	29.38	
O	 0.035740775	 1.4277941389	 0.0990024827	-0.498672
C	 0.0388595224	 0.0240649398	 0.0036635227	 0.428296
C	 1.0405749419	-0.6193989524	 0.91799917	-0.161468
C	 1.1034253751	-1.9454401286	 0.9680805664	-0.080093
C	 0.1420490376	-2.7048466038	 0.0957755344	-0.221618
N	-0.7512833493	-1.8671934502	-0.7165632182	-0.132853
C	-1.3700897523	-0.6420671328	-0.048786457	-0.060847
C	-1.5652636112	-0.0778547956	-1.4760944794	-0.23821
C	-0.1343135313	-0.6576256221	-1.4078328351	-0.093724
H	 0.9449648495	 1.736072512	 0.0205804992	 0.277836
H	 1.6674202683	 0.0293678777	 1.5234325932	 0.085913
H	 1.7977763866	-2.4847400322	 1.6065037143	 0.093485
H	 0.6842024043	-3.3691628822	-0.591776774	 0.1159
H	-0.4893055092	-3.3658466877	 0.7059121069	 0.117244
H	-2.0929412019	-0.7353818943	 0.7637589491	 0.079177
H	-2.259311606	-0.6391224532	-2.1013039142	 0.100552
H	-1.6543705597	 1.0020629825	-1.5669970692	 0.11572
H	 0.6057754603	-0.7711661756	-2.2031884218	 0.073364
190.3283	264.3408	295.7742	361.8895	369.4519	434.6108	482.9593	554.8704	572.2028	658.6447	673.224	761.2417	765.9344	839.3039	886.8328	905.857	929.3901	937.3318	970.8458	1001.1682	1018.1271	1052.706	1074.4182	1106.8872	1125.9311	1163.7862	1173.0732	1179.6314	1206.4893	1209.7757	1242.0022	1262.8423	1272.6033	1353.9945	1370.4946	1399.3605	1464.1826	1480.9942	1717.3724	3007.0153	3031.3813	3086.8854	3095.3777	3108.0921	3153.4111	3178.0219	3185.8264	3801.6092
OC12C=CCN3C1CC23	O[C@@]12C=CCN3[C@@H]1C[C@@H]23	
InChI=1S/C7H9NO/c9-7-2-1-3-8-5(7)4-6(7)8/h1-2,5-6,9H,3-4H2	InChI=1S/C7H9NO/c9-7-2-1-3-8-5(7)4-6(7)8/h1-2,5-6,9H,3-4H2/t5-,6+,7+
