18
gdb 69270	2.62081	1.64897	1.22061	3.7783	72.68	-0.2382	-0.0095	0.2287	1051.2176	0.147978	-439.085498	-439.077441	-439.076497	-439.118054	30.821	
C	-0.0742014353	 1.4783119385	 0.100725797	-0.4584
C	-0.0069589744	-0.0253465223	-0.0631686935	 0.280952
C	 0.8198097358	-0.6059463843	-1.1656499923	-0.281716
N	 1.2989158726	-0.6267539945	 0.2238774604	-0.137416
C	 1.3950819424	-1.870980383	 0.8830895173	 0.369721
O	 2.3802613775	-2.5607110944	 0.811194808	-0.310067
C	 0.1286488997	-2.2684275599	 1.6291896516	-0.19468
O	-0.9672054483	-2.1306875079	 0.7290431699	-0.24495
C	-1.2346488834	-0.7729705572	 0.4449390328	-0.14861
H	 0.8434485901	 1.9471385163	-0.2614108299	 0.136575
H	-0.9191565211	 1.8911756121	-0.4616939761	 0.124494
H	-0.2036849382	 1.750764436	 1.1536217095	 0.125966
H	 0.5143275053	-1.5594675331	-1.5883566533	 0.13903
H	 1.3615292115	 0.0494206272	-1.8420248348	 0.126282
H	 0.1946535936	-3.3195663376	 1.9107620478	 0.142365
H	-0.0201576351	-1.6567791255	 2.5338162851	 0.109844
H	-1.6035528626	-0.2640103162	 1.3522903193	 0.095984
H	-2.0384232801	-0.7607568842	-0.2976306589	 0.124627
80.1186	155.7853	197.5543	273.0324	298.5198	365.1866	380.9801	436.4327	444.1026	535.9933	580.7626	695.865	708.0976	805.3711	903.1228	911.2848	945.4295	970.8758	1003.6808	1022.874	1056.3625	1115.9991	1126.7675	1139.4467	1147.3449	1204.9848	1256.578	1296.0543	1312.578	1352.6689	1379.8668	1415.9647	1422.0325	1473.4695	1484.8204	1493.6724	1496.7899	1510.6389	1827.0138	2958.4042	2979.4361	3034.4391	3080.9053	3097.4276	3109.5998	3127.3774	3138.0671	3200.8502
CC12CN1C(=O)COC2	C[C@@]12CN1C(=O)COC2	
InChI=1S/C6H9NO2/c1-6-3-7(6)5(8)2-9-4-6/h2-4H2,1H3	InChI=1S/C6H9NO2/c1-6-3-7(6)5(8)2-9-4-6/h2-4H2,1H3/t6-,7?/m0/s1
