18
gdb 67882	2.79699	2.12054	1.41973	1.6775	74.99	-0.2471	0.0162	0.2633	924.9464	0.150086	-401.919131	-401.912366	-401.911422	-401.949851	28.167	
C	 0.0081695201	 1.5380740372	-0.1324342624	-0.466654
C	 0.0011986058	 0.0259665687	 0.0056826911	 0.36889
N	 0.2509424866	-0.5458388544	-1.3161035209	-0.337292
C	 0.2747387414	-1.8087292372	-1.3633529425	 0.108148
O	 0.0905350576	-2.6288234409	-0.3066296046	-0.240568
C	-0.13883484	-1.9121897866	 0.8957603287	 0.142536
C	 0.7543158504	-0.6761953431	 1.2018414913	-0.136919
C	-0.3889796179	-0.2281370514	 2.1471498937	-0.248778
C	-1.1111107785	-0.698774881	 0.8592959953	-0.136931
H	 0.9731147325	 1.8610856107	-0.5351915636	 0.126031
H	-0.7577087987	 1.8399526832	-0.8535332249	 0.126039
H	-0.1706899017	 2.0679770666	 0.8043431488	 0.109849
H	 0.4503029804	-2.3632730819	-2.2816229943	 0.129142
H	-0.2741188248	-2.6546922982	 1.68178808	 0.092606
H	 1.8282831276	-0.6746697577	 1.3884738401	 0.079545
H	-0.5447202255	-0.8462284074	 3.0360584571	 0.095871
H	-0.4474261169	 0.8293170465	 2.3958858835	 0.108937
H	-2.1810578383	-0.7232090331	 0.6522829136	 0.079547
182.2156	204.776	338.1609	370.2053	371.7979	446.7245	534.4181	599.3265	606.5079	655.4265	781.2672	796.8077	841.39	900.2727	900.7157	915.3985	948.0378	960.9431	1000.7738	1006.2414	1069.5739	1090.2877	1094.486	1101.3934	1134.7791	1160.6534	1180.6106	1215.6837	1232.3209	1235.8145	1252.3684	1287.6392	1374.7557	1408.2528	1417.9942	1482.0869	1491.7633	1529.9434	1716.5152	3047.5608	3064.4483	3107.1219	3112.4141	3113.3341	3125.5826	3135.285	3159.6586	3176.4331
CC12N=COC3C1CC23	C[C@@]12N=CO[C@H]3[C@@H]1C[C@@H]23	
InChI=1S/C7H9NO/c1-7-4-2-5(7)6(4)9-3-8-7/h3-6H,2H2,1H3	InChI=1S/C7H9NO/c1-7-4-2-5(7)6(4)9-3-8-7/h3-6H,2H2,1H3/t4-,5+,6-,7+
