21
gdb 27872	1.74623	1.7462	0.88748	0.0001	95.45	-0.2278	0.0099	0.2378	1368.0127	0.18179	-350.046213	-350.036162	-350.035218	-350.084296	35.515	
C	-0.0128106441	 1.5297999726	 0.0119673536	-0.490517
C	 0.0074943096	 0.020083704	 0.0096904487	 0.340498
C	 0.0102026509	-0.6852366939	-1.2005806556	-0.305345
C	 0.0288939609	-2.0762072641	-1.2312945504	 0.340511
C	 0.0317101116	-2.8291726845	-2.5399921958	-0.490516
C	 0.0451929803	-2.7715166116	-0.0153627819	-0.305329
C	 0.0429871857	-2.1025549936	 1.2047188738	 0.34047
C	 0.0603984196	-2.8593009999	 2.5111164344	-0.49052
C	 0.0239886711	-0.70189907	 1.1990429844	-0.305304
H	 0.8597015799	 1.9417394713	-0.5080066677	 0.128558
H	-0.9009361913	 1.9180523614	-0.4997147355	 0.128539
H	-0.0133402861	 1.9275220545	 1.0302639599	 0.119648
H	-0.0025701052	-0.1326511895	-2.1368942323	 0.078604
H	 0.9201661596	-3.4641767458	-2.6335273671	 0.128548
H	-0.8404599077	-3.4876811701	-2.6238010471	 0.128551
H	 0.0178704652	-2.1462289377	-3.3935169027	 0.11965
H	 0.0598903411	-3.8586517901	-0.0258849879	 0.0786
H	 0.939655945	-2.5992695604	 3.1116202977	 0.128529
H	-0.8209386616	-2.6260476913	 3.1195480217	 0.128571
H	 0.0760433801	-3.9399155298	 2.3463572782	 0.119651
H	 0.0221107454	-0.1673337514	 2.1458394818	 0.078603
21.3621	23.9158	25.293	175.7431	225.3114	225.4666	269.0149	269.1748	457.5344	519.7968	519.8067	531.5968	531.66	578.1798	715.4016	860.1343	890.2875	890.4026	943.0288	943.0514	1008.0539	1032.9339	1033.0008	1038.3614	1060.2598	1060.3082	1062.4279	1189.9056	1190.0325	1301.0867	1320.4618	1351.4043	1410.4821	1410.56	1414.5512	1458.1193	1458.1874	1483.9403	1484.8997	1485.	1495.1936	1513.4557	1513.4811	1643.6165	1643.6736	3027.5918	3027.6043	3028.2496	3079.7048	3079.753	3079.9228	3111.6557	3111.8767	3111.9486	3151.8915	3151.9276	3155.0914
CC1=CC(C)=CC(C)=C1	Cc1cc(C)cc(C)c1	
InChI=1S/C9H12/c1-7-4-8(2)6-9(3)5-7/h4-6H,1-3H3	InChI=1S/C9H12/c1-7-4-8(2)6-9(3)5-7/h4-6H,1-3H3
