15
gdb 86133	2.56883	1.47746	0.98473	1.8592	61.94	-0.2535	-0.1126	0.1409	1122.5544	0.110772	-494.919866	-494.91137	-494.910426	-494.953163	31.065	
O	 0.2431858841	 1.1925527027	 0.5494240804	-0.433207
C	 0.0236189785	-0.096490198	 0.0542632441	 0.047398
C	-1.4633992173	-0.4921957807	-0.0586590399	-0.285788
C	-1.4361044637	-1.7107609301	-1.0046003269	 0.047353
O	-2.6746884371	-2.0338573704	-1.5672477374	-0.433171
C	-0.3946170164	-1.3167279082	-2.0454308305	 0.280529
O	-0.3955450324	-1.6503950757	-3.2004503576	-0.289922
C	 0.5394163622	-0.2831880658	-1.3678045806	 0.280495
O	 1.4166857547	 0.3553220234	-1.8856129896	-0.289953
H	 0.9948698408	 1.554435975	 0.0590662766	 0.298567
H	 0.5402285253	-0.8549741699	 0.6755986569	 0.105466
H	-1.9216322441	-0.7109336029	 0.9065293568	 0.131849
H	-2.0213775789	 0.3226375051	-0.5317025588	 0.13638
H	-1.0131948994	-2.572745093	-0.4510626136	 0.105436
H	-2.5021007966	-2.3141041716	-2.4772500298	 0.298569
69.5454	127.2341	209.4666	244.2391	293.7057	310.1987	336.9744	365.5935	413.3867	490.3953	491.1327	554.862	622.0935	731.2748	824.5258	940.0155	946.5853	1022.9439	1052.7865	1061.2629	1123.352	1139.6208	1204.6378	1253.6955	1265.1551	1273.843	1366.524	1367.4627	1398.8875	1417.8527	1503.6968	1837.3073	1858.2991	2903.3119	2915.2325	3065.8222	3131.6201	3744.3845	3744.5202
OC1CC(O)C(=O)C1=O	O[C@H]1C[C@@H](O)C(=O)C1=O	
InChI=1S/C5H6O4/c6-2-1-3(7)5(9)4(2)8/h2-3,6-7H,1H2	InChI=1S/C5H6O4/c6-2-1-3(7)5(9)4(2)8/h2-3,6-7H,1H2/t2-,3+
