23
gdb 104032	2.75016	1.25029	1.13856	1.2506	84.17	-0.2534	0.0731	0.3265	1229.4915	0.206365	-388.294235	-388.285154	-388.284209	-388.327554	36.261	
C	 0.2281963273	 1.302105539	 0.3787529015	-0.416044
C	 0.3394608104	-0.1777243499	-0.006794205	-0.212277
C	 0.6888785022	-0.4481308298	-1.4860390372	 0.411212
O	-0.2965158951	 0.1712277333	-2.3230226444	-0.483129
C	 2.1323466097	 0.0108693661	-1.8815888051	-0.293199
C	 2.9759153641	-1.2409313603	-2.0568783843	-0.02238
C	 3.0565492473	-2.2180362788	-0.9092564939	-0.292276
C	 2.0632994187	-2.4459677381	-2.022761211	-0.027482
C	 0.636018436	-1.9671884941	-1.8240799786	-0.269042
H	 1.1533075529	 1.854503587	 0.1826320822	 0.120494
H	-0.5854368733	 1.7980423129	-0.1618607129	 0.113666
H	 0.0068590912	 1.4052777707	 1.4451863289	 0.119992
H	 1.0850895836	-0.6627870253	 0.6334677301	 0.09905
H	-0.6171702295	-0.6708272119	 0.202153318	 0.102991
H	-0.2615310348	 1.1210583052	-2.1708119456	 0.27421
H	 2.0622326336	 0.53888573	-2.8383465647	 0.10123
H	 2.5609030432	 0.7086594256	-1.1535966399	 0.091458
H	 3.8171148979	-1.1936037652	-2.7398719254	 0.079399
H	 3.9226341293	-2.8707873003	-0.8797912983	 0.106644
H	 2.7019266652	-1.9230131553	 0.0731715919	 0.108609
H	 2.2278671254	-3.2913654975	-2.681678526	 0.079739
H	 0.0988053991	-2.531286429	-1.053663744	 0.092853
H	 0.0730017357	-2.0740661343	-2.7559367363	 0.114281
88.8376	117.878	198.0144	240.2809	272.3149	308.5853	344.4248	361.0834	384.3394	436.7115	476.0098	611.7118	639.6085	752.9551	777.0588	788.2921	821.1767	863.0698	893.911	908.4883	939.1205	984.4943	1005.0647	1012.462	1027.6535	1057.0624	1078.2298	1087.4779	1101.401	1112.8829	1155.117	1175.9196	1207.779	1212.2306	1290.4323	1294.5577	1307.4389	1320.036	1346.9641	1350.8674	1388.6087	1402.3449	1411.3694	1471.3406	1482.3978	1487.0275	1498.903	1502.1346	1514.4794	3032.2221	3033.6135	3037.7298	3043.5473	3070.5331	3077.819	3088.7517	3100.2174	3105.7939	3127.5854	3160.598	3169.7879	3208.5687	3816.5071
CCC1(O)CC2CC2C1	CC[C@@]1(O)C[C@H]2C[C@H]2C1	
InChI=1S/C8H14O/c1-2-8(9)4-6-3-7(6)5-8/h6-7,9H,2-5H2,1H3	InChI=1S/C8H14O/c1-2-8(9)4-6-3-7(6)5-8/h6-7,9H,2-5H2,1H3/t6-,7+,8-
