19
gdb 71516	2.47834	1.55414	1.43907	0.7016	87.58	-0.2466	0.042	0.2886	1042.9613	0.158174	-348.657717	-348.64957	-348.648626	-348.689924	32.614	
C	-0.0210533418	 1.475918774	-0.0205862956	-0.520005
C	 0.0366905737	-0.0249193659	-0.0584284949	 0.315062
C	 0.5812189595	-0.9448705861	-1.1725152598	-0.311675
C	 0.0701240358	-1.9214904001	-0.1009595097	-0.080222
C	 0.5300985554	-0.9996084707	 1.0769423833	-0.112839
C	-0.8495597668	-1.0445890981	 1.756476833	-0.32079
C	-1.1757394142	-1.0153538717	 0.2440554972	 0.240197
C	-2.4488974595	-1.0164392958	-0.4087599202	 0.089315
C	-3.5209834217	-1.0034173772	-0.9569705468	-0.383538
H	 0.9817835998	 1.9077953518	-0.1122016807	 0.120969
H	-0.6303650599	 1.8628307611	-0.8445135369	 0.129243
H	-0.4577119891	 1.8359224121	 0.9173801059	 0.1222
H	 0.0435950854	-0.9325218711	-2.1257993921	 0.101295
H	 1.6637662676	-0.9210937333	-1.3369570505	 0.089405
H	 0.0624840438	-3.0121080335	-0.0997634036	 0.076705
H	 1.5212261967	-0.9949386577	 1.5313992688	 0.071914
H	-1.1103854967	-1.9661216239	 2.285788312	 0.097992
H	-1.1528414195	-0.168907111	 2.3384236235	 0.098348
H	-4.4666953985	-0.9968650528	-1.4394699631	 0.176424
116.0592	138.9284	202.5821	258.0817	288.6663	377.089	425.1504	505.6549	516.0857	570.7408	609.9465	641.0914	644.8672	704.215	767.0015	859.9165	876.7408	902.8675	925.4753	939.8459	988.9576	1006.1128	1022.9544	1058.1465	1091.3951	1127.6473	1146.1367	1160.7469	1166.1375	1192.6541	1224.8632	1238.2068	1271.8517	1294.62	1324.9224	1409.4214	1484.2701	1489.1452	1506.8585	1510.4662	2224.4401	3026.2903	3037.1269	3043.9345	3092.8262	3095.7581	3096.7561	3101.8521	3105.9487	3116.4853	3502.3051
CC12CC3C1CC23C#C	C[C@@]12C[C@H]3[C@@H]1C[C@@]23C#C	
InChI=1S/C9H10/c1-3-9-5-6-7(9)4-8(6,9)2/h1,6-7H,4-5H2,2H3	InChI=1S/C9H10/c1-3-9-5-6-7(9)4-8(6,9)2/h1,6-7H,4-5H2,2H3/t6-,7-,8+,9+/m0/s1
