18
gdb 38243	3.20186	1.80886	1.4391	1.7732	77.04	-0.2371	0.002	0.2391	933.4158	0.150342	-401.858875	-401.852298	-401.851354	-401.88957	27.505	
C	 0.0057934632	 1.5766104909	 0.1488166933	-0.239256
N	 1.4959715681	 1.2365120909	 0.0800991424	-0.175859
C	 1.1301653435	 0.0350638584	 0.9959537423	-0.242137
C	 0.0116884879	 0.034704933	-0.0575708962	 0.378962
O	-1.0511131837	-0.8103639632	-0.3243579627	-0.309905
C	-1.6316245505	-0.4645773796	-1.590306819	-0.142994
C	-0.7314126463	 0.2067294948	-2.6115570394	-0.045937
C	 0.525178711	 0.6160386644	-2.4046770612	-0.166145
C	 1.1106282572	 0.2546883421	-1.083077121	-0.006757
H	-0.3021684834	 1.9592264202	 1.1244488709	 0.099152
H	-0.3373357341	 2.2152709921	-0.6649270241	 0.110329
H	 1.8618167177	-0.7757511618	 0.9700044797	 0.107604
H	 0.8933672791	 0.3418739601	 2.0169342649	 0.106574
H	-2.0271550329	-1.3975753678	-2.0091568333	 0.126603
H	-2.5002441001	 0.1940636418	-1.4200154569	 0.115214
H	-1.2145229184	 0.3604064979	-3.5744852421	 0.102199
H	 1.1087532376	 1.0877781173	-3.19011754	 0.098606
H	 1.879432304	-0.5204583917	-1.1722175277	 0.083747
129.4349	254.9554	341.5209	415.4693	423.2657	484.2715	568.8833	616.8161	641.2126	686.5616	758.7303	823.5581	838.4188	886.893	899.6921	931.4726	977.0762	986.5773	1008.5002	1025.9913	1049.6344	1056.8636	1097.2589	1131.456	1157.5597	1175.5435	1186.4223	1187.2805	1228.4229	1239.8408	1265.6738	1289.3683	1380.1524	1406.5252	1413.1255	1487.7699	1506.7122	1548.9424	1686.6514	2963.5286	3044.6981	3049.9336	3063.1871	3073.733	3134.9533	3147.3271	3148.2236	3172.4231
C1N2CC11OCC=CC21	C1N2C[C@]31OCC=C[C@@H]23	
InChI=1S/C7H9NO/c1-2-6-7(9-3-1)4-8(6)5-7/h1-2,6H,3-5H2	InChI=1S/C7H9NO/c1-2-6-7(9-3-1)4-8(6)5-7/h1-2,6H,3-5H2/t6-/m1/s1
