14
gdb 124961	2.52621	1.64235	1.00149	4.766	67.6	-0.2635	-0.071	0.1925	1097.6615	0.100166	-473.84658	-473.838584	-473.83764	-473.879678	28.608	
C	 0.0632027176	 1.5067299702	 0.0879567906	-0.493332
C	-0.0450671248	 0.0246504165	 0.0826243249	 0.384574
C	-1.1010299395	-0.8432152644	-0.0469279396	-0.137787
C	-2.5166566156	-0.6554052985	-0.2283167522	 0.073074
O	-3.2886949396	-1.6017077061	-0.3212953928	-0.324325
C	-0.4784595266	-2.1403823388	 0.0398288307	 0.435439
O	-1.1185585521	-3.2999914512	-0.0350421365	-0.399531
N	 0.8169926649	-2.0651326364	 0.2044127941	-0.230716
O	 1.0791247068	-0.6666396723	 0.2297940262	-0.214105
H	 0.7193183093	 1.8444450324	-0.7204349247	 0.168294
H	-0.9174604017	 1.9678225119	-0.0397200179	 0.148619
H	 0.4958884569	 1.8544614298	 1.0313090744	 0.168295
H	-2.8959104627	 0.3831725833	-0.2825146957	 0.098501
H	-2.0641005128	-3.0761961563	-0.1568456216	 0.323
59.5801	148.1108	189.3952	201.2197	279.9512	296.5801	379.3905	458.1373	545.3956	603.1155	622.4926	706.3733	756.4927	775.3299	800.4125	908.7943	1007.6618	1026.7515	1057.8982	1099.4854	1284.399	1307.921	1372.9221	1411.296	1424.2573	1468.4342	1477.0355	1509.352	1587.7283	1678.5875	1741.5547	2943.2561	3048.3179	3108.8884	3144.6948	3536.4713
CC1=C(C=O)C(O)=NO1	Cc1c(C=O)c(O)no1	
InChI=1S/C5H5NO3/c1-3-4(2-7)5(8)6-9-3/h2H,1H3,(H,6,8)	InChI=1S/C5H5NO3/c1-3-4(2-7)5(8)6-9-3/h2H,1H3,(H,6,8)
