17
gdb 67715	2.27414	2.0204	1.71682	2.5384	65.85	-0.2536	0.0684	0.322	889.6109	0.13797	-458.9503	-458.943318	-458.942374	-458.981536	27.913	
O	-0.0595527025	 1.3439612435	 0.06688753	-0.466641
C	 0.0070855192	-0.035296975	 0.0065195007	 0.367709
C	-0.2560527309	-0.9199858844	-1.1786225726	-0.175974
C	 0.8794535689	-1.9300354902	-1.2512758848	-0.102324
O	 1.7692554902	-1.6059709753	-0.1756877154	-0.255172
C	 1.0575764623	-0.857186115	 0.7879144881	 0.099175
O	 0.3397737148	-1.6845483427	 1.6793337254	-0.257056
C	-0.9601730265	-1.9521046241	 1.14224728	-0.101645
C	-1.1855688935	-0.9240040766	 0.0452659603	-0.13074
H	 0.673035633	 1.7063513108	-0.4440081865	 0.289813
H	-0.6716671337	-0.5172150755	-2.0948498342	 0.099201
H	 0.5333681929	-2.968604028	-1.1549724299	 0.105656
H	 1.4355448001	-1.8455461178	-2.1909425279	 0.109197
H	 1.7801284192	-0.2821671006	 1.3681313934	 0.097832
H	-1.0100848255	-2.9862626395	 0.7743479716	 0.103883
H	-1.6950052105	-1.8427231775	 1.9474397887	 0.112721
H	-2.1784411277	-0.5171065821	-0.1051929669	 0.104364
120.2654	233.087	237.6528	306.5239	340.3255	485.7828	496.2525	596.9347	635.2705	713.5941	739.2114	758.0802	867.2011	914.5554	919.3616	947.6834	976.5036	982.4841	1005.4195	1045.3728	1065.1834	1073.159	1107.4252	1108.7976	1195.0701	1214.8868	1223.7431	1232.7498	1302.2864	1312.3834	1328.7685	1352.3329	1377.811	1387.3694	1481.4091	1515.8922	1531.7277	3005.2783	3008.8178	3060.295	3064.9485	3121.7534	3182.0444	3191.9361	3794.1612
OC12C3COC1OCC23	O[C@@]12[C@H]3CO[C@@H]1OC[C@@H]23	
InChI=1S/C6H8O3/c7-6-3-1-8-5(6)9-2-4(3)6/h3-5,7H,1-2H2	InChI=1S/C6H8O3/c7-6-3-1-8-5(6)9-2-4(3)6/h3-5,7H,1-2H2/t3-,4+,5+,6+
