20
gdb 112855	2.16957	1.75462	1.46734	2.6469	73.34	-0.229	0.0521	0.2811	1011.3983	0.172832	-440.249147	-440.241	-440.240056	-440.28168	32.436	
O	-0.4600285086	 1.6398875026	 0.7785760709	-0.448123
C	-0.1911033843	 0.4621087925	 0.0384436326	-0.064733
C	-1.3415131718	-0.5596695682	-0.0705944664	-0.016429
C	-2.3179178366	-0.5607373323	 1.131497313	-0.252549
C	-3.5003094317	 0.3250909015	 0.6801523493	 0.066678
O	-3.2959761911	 1.7160321693	 0.9800117978	-0.42518
C	-3.5157615558	 0.1250589045	-0.8321661776	-0.020992
C	-2.5980419148	 0.9478426729	-1.6583503267	-0.250788
N	-2.2152864372	-0.4177044871	-1.2763671594	-0.101688
H	-1.4023481684	 1.8579187632	 0.7281830928	 0.293604
H	 0.1446981405	 0.7033288077	-0.9825771791	 0.098198
H	 0.6522659261	-0.0258767227	 0.5418689837	 0.098263
H	-0.8699053671	-1.5428820697	-0.1685318122	 0.088427
H	-2.6899235459	-1.5773625482	 1.293081594	 0.10931
H	-1.8630542142	-0.2131608755	 2.0634275078	 0.110717
H	-4.4479428553	 0.0029253168	 1.1262216547	 0.082289
H	-3.3197143883	 1.8171470475	 1.9381794121	 0.294036
H	-4.4043919743	-0.319486465	-1.2709833618	 0.090825
H	-2.8057952258	 1.0729582866	-2.717947987	 0.115894
H	-2.1061555252	 1.7982032136	-1.2001604786	 0.13224
71.9349	177.0986	207.8467	269.5801	302.885	346.0627	402.4723	420.7028	512.0545	571.4922	618.6848	686.3343	712.8411	774.8792	805.5128	845.9316	874.01	915.1117	964.0254	992.0284	1002.8184	1023.4856	1070.7496	1092.1796	1104.8021	1120.5691	1129.3377	1163.2316	1216.0944	1220.2984	1247.4727	1270.5147	1291.4041	1331.7764	1337.9754	1346.1941	1387.7913	1397.4611	1421.6146	1465.7199	1475.4367	1515.0215	1524.8853	2981.976	3033.9835	3037.5838	3049.5923	3061.3259	3104.7321	3117.627	3145.486	3210.297	3686.7206	3806.7035
OCC1CC(O)C2CN12	OC[C@H]1C[C@@H](O)[C@H]2CN12	
InChI=1S/C6H11NO2/c8-3-4-1-6(9)5-2-7(4)5/h4-6,8-9H,1-3H2	InChI=1S/C6H11NO2/c8-3-4-1-6(9)5-2-7(4)5/h4-6,8-9H,1-3H2/t4-,5-,6-,7?/m1/s1
