16
gdb 97379	2.73525	0.85296	0.67886	1.5192	78.34	-0.2551	-0.0531	0.2021	1622.5012	0.119012	-437.836	-437.825739	-437.824795	-437.873262	34.376	
C	-0.1124396798	 1.3815200994	-0.0049079543	-0.318586
N	-0.0205378798	-0.061303993	-0.0947761336	-0.198513
C	 0.5112961657	-0.6712842044	 0.8617363029	 0.134615
O	 0.6587692448	-2.0230189032	 0.8108459842	-0.211443
C	 1.1020351375	-2.6571915623	 2.0124426693	-0.149499
C	-0.1422217045	-3.081727632	 2.8220885282	 0.153836
O	-0.2872924504	-2.8403623112	 3.9873137768	-0.223878
C	 1.8827311832	-3.8387295739	 1.6810531911	 0.292637
C	 2.4812230995	-4.8555634188	 1.4566920332	-0.402204
H	 0.4224985017	 1.8341308769	-0.8470558271	 0.134349
H	-1.1612417371	 1.6851559415	-0.093016418	 0.134268
H	 0.2937943552	 1.7997183739	 0.9300574326	 0.101311
H	 0.9072573357	-0.2067899435	 1.7779465643	 0.089546
H	 1.6859021159	-1.9664802774	 2.6341973361	 0.133086
H	-0.8965137312	-3.6168791566	 2.2090971692	 0.114232
H	 3.0289934936	-5.7417183752	 1.2469987451	 0.216243
24.6601	58.4766	77.1191	122.5863	166.3812	204.8442	239.0902	284.23	332.0782	401.3795	431.9005	482.2692	490.3414	644.8566	672.0042	690.602	942.9663	970.252	1006.5236	1039.4205	1069.9203	1081.1105	1140.8884	1151.8132	1220.4955	1253.8258	1337.1942	1395.8518	1412.6627	1449.9901	1480.4392	1504.6631	1784.2533	1843.0311	2241.8623	2930.591	2974.0202	2998.9408	3034.6246	3065.8866	3085.9336	3500.2622
CN=COC(C=O)C#C	CN=CO[C@@H](C=O)C#C	
InChI=1S/C6H7NO2/c1-3-6(4-8)9-5-7-2/h1,4-6H,2H3	InChI=1S/C6H7NO2/c1-3-6(4-8)9-5-7-2/h1,4-6H,2H3/t6-/m1/s1
