17
gdb 36506	4.00011	0.99461	0.83251	2.338	73.	-0.2612	0.0092	0.2705	1315.0211	0.138028	-418.035642	-418.027518	-418.026574	-418.06902	29.543	
N	-0.0748816862	-1.1768037519	-0.0278207081	-0.305149
C	-0.0617930073	-0.0216154342	 0.0005044327	 0.26508
C	-0.0106940214	 1.4394287858	 0.0292627777	-0.362834
C	 1.4261459214	 1.993963559	-0.0177040635	-0.040271
C	 2.1427680314	 1.6233125772	-1.3155567916	-0.078233
O	 3.4564141441	 2.190736966	-1.3568687786	-0.220632
C	 3.5780867274	 3.4341312747	-0.8318739545	 0.130925
N	 2.7359751805	 4.1203410205	-0.1856555278	-0.271837
C	 1.439636938	 3.5239589015	 0.1132262082	-0.169196
H	-0.5936027402	 1.8253627386	-0.8162529329	 0.154845
H	-0.5113947173	 1.7875718239	 0.9399559536	 0.160355
H	 1.9941811649	 1.5648192987	 0.8159536071	 0.114837
H	 2.2750186077	 0.544461248	-1.420834431	 0.144984
H	 1.5747446657	 1.9897377585	-2.1825104233	 0.114189
H	 4.5741104457	 3.8224722602	-1.0349716491	 0.131221
H	 0.6855111701	 3.9689914445	-0.5522666128	 0.112818
H	 1.1577528957	 3.819755489	 1.1305810039	 0.118896
67.8526	103.6081	161.2318	187.0482	288.4346	390.8461	396.9955	427.0768	493.2558	511.5403	601.9151	793.3736	864.669	899.0877	928.2815	935.9225	968.0495	989.9987	1004.2416	1081.6149	1124.4031	1131.9793	1178.9547	1220.4638	1238.2936	1295.3659	1311.823	1354.0519	1358.6181	1377.8787	1406.3954	1426.1	1464.9734	1486.3473	1511.1052	1738.4238	2361.5525	3002.0977	3010.6968	3035.0633	3044.1722	3057.1766	3079.0419	3111.9576	3165.4101
N#CCC1COC=NC1	N#CC[C@H]1COC=NC1	
InChI=1S/C6H8N2O/c7-2-1-6-3-8-5-9-4-6/h5-6H,1,3-4H2	InChI=1S/C6H8N2O/c7-2-1-6-3-8-5-9-4-6/h5-6H,1,3-4H2/t6-/m1/s1
