16
gdb 15393	4.1037	1.11737	0.94125	2.4046	68.11	-0.2575	0.0168	0.2743	1223.2267	0.127321	-383.663666	-383.654921	-383.653977	-383.697653	30.509	
C	 0.0821715533	 1.3558986179	 0.193154548	-0.224755
O	 0.0166152972	-0.0506447572	 0.1927159605	-0.235072
C	-1.2463595605	-0.5369530161	-0.2007210485	-0.090801
C	-1.1957947507	-2.0398596341	-0.1636160655	 0.062319
O	-1.5503895296	-2.6858416498	 1.0552767979	-0.237351
C	-2.4195603788	-2.8645202779	-0.0745904838	-0.157438
C	-3.7384013487	-2.2914293913	-0.0061135963	 0.339536
C	-4.8542354614	-1.8453170082	 0.0248058546	-0.43193
H	 1.092493005	 1.6347621993	 0.5011452651	 0.13049
H	-0.1141431172	 1.7740337767	-0.8072693326	 0.103494
H	-0.640029055	 1.7980601794	 0.8970592745	 0.108662
H	-2.0435721115	-0.1780724489	 0.466580562	 0.109567
H	-1.4905838522	-0.202907067	-1.225154076	 0.09292
H	-0.3327669566	-2.474543557	-0.669544994	 0.106163
H	-2.3810238495	-3.863679511	-0.5081416323	 0.119122
H	-5.8385221739	-1.4476876649	 0.0613879864	 0.205075
74.9498	84.6017	96.5747	194.0275	223.5003	233.4494	345.0611	367.5645	474.8944	555.6167	600.7268	630.1964	671.6067	813.887	831.9863	938.526	993.0666	1028.7944	1062.7886	1126.9674	1151.0338	1169.9933	1187.8836	1229.8461	1262.239	1285.6424	1356.8104	1405.1579	1468.4705	1482.4363	1486.0746	1496.5816	1518.9757	2239.6486	2948.1391	2971.0693	3015.1248	3020.1068	3106.2648	3117.0495	3118.1875	3501.7847
COCC1OC1C#C	COC[C@H]1O[C@H]1C#C	
InChI=1S/C6H8O2/c1-3-5-6(8-5)4-7-2/h1,5-6H,4H2,2H3	InChI=1S/C6H8O2/c1-3-5-6(8-5)4-7-2/h1,5-6H,4H2,2H3/t5-,6+/m0/s1
