16
gdb 61711	2.03417	1.5093	1.10928	2.648	67.6	-0.2619	-0.0712	0.1907	1121.0707	0.120729	-475.064715	-475.05517	-475.054226	-475.099341	33.25	
C	-0.3418338017	 1.641828203	-0.1561054203	-0.427969
C	-0.0578398837	 0.1305367829	-0.0173222617	 0.074464
N	 0.7854681679	-0.2079666689	 1.1050270397	-0.308827
C	 0.3560058502	-0.0997841787	 2.3868132541	 0.152039
O	-0.7556263687	 0.2780145621	 2.7030962209	-0.331863
C	-1.3901532149	-0.6511769167	 0.0486333666	 0.153608
O	-2.359595259	-0.3390235355	-0.5858160787	-0.249544
C	 0.6529952135	-0.3359326963	-1.2896480767	 0.148482
O	 1.7384046591	-0.8558344225	-1.2918804017	-0.260342
H	 0.5866834559	 2.1931625519	-0.3257888261	 0.126818
H	-1.0295111914	 1.8146830011	-0.985980136	 0.148262
H	-0.8090571542	 1.9931948099	 0.7651852398	 0.17156
H	 1.7014689956	-0.5758039695	 0.8848180829	 0.266601
H	 1.129611655	-0.3943124139	 3.1201554995	 0.098365
H	-1.3497575901	-1.5568756205	 0.6853690212	 0.112476
H	 0.0854030066	-0.1342991784	-2.2183372635	 0.125869
70.2038	111.9509	135.8127	162.5481	211.7376	233.807	256.3735	284.2155	344.0547	369.6419	448.9468	513.3122	611.7024	673.6813	771.8601	824.1662	892.7671	949.9623	985.7662	1032.0797	1038.9547	1137.3753	1158.7403	1209.5676	1242.5967	1379.5513	1399.9931	1401.9624	1421.9496	1474.942	1503.3599	1507.0021	1780.6662	1805.4376	1842.4726	2942.0019	2959.3512	2964.6864	3057.0685	3139.9658	3155.498	3586.3132
CC(NC=O)(C=O)C=O	CC(NC=O)(C=O)C=O	
InChI=1S/C5H7NO3/c1-5(2-7,3-8)6-4-9/h2-4H,1H3,(H,6,9)	InChI=1S/C5H7NO3/c1-5(2-7,3-8)6-4-9/h2-4H,1H3,(H,6,9)
