17
gdb 65946	2.20212	1.58039	1.37467	4.1747	72.45	-0.2677	-0.0025	0.2652	1038.5223	0.134993	-417.970229	-417.961611	-417.960667	-418.003548	31.856	
C	-0.2206486108	 1.5713689498	 0.1204026491	-0.434838
C	 0.0317600208	 0.0700203742	 0.0606240798	 0.191318
O	 1.1491081287	-0.2580381849	-0.793248002	-0.313754
C	 1.8710213002	-0.9305151425	 0.2737117022	-0.135814
C	 0.7557611374	-0.6002699141	 1.2545786787	 0.240531
C	 0.7369817982	-0.1974762768	 2.6742741998	-0.301126
N	 0.2190793987	-1.5096779404	 2.2395548498	-0.350339
C	-1.189629084	-0.6543107388	-0.3363554634	 0.267048
N	-2.1611146565	-1.2262976611	-0.5920888909	-0.337624
H	 0.6855135802	 2.0774974293	 0.4604731395	 0.134582
H	-0.4840481562	 1.9440724256	-0.8730983578	 0.150992
H	-1.0424429096	 1.8026993622	 0.8046584155	 0.135382
H	 1.99676416	-2.0002006356	 0.0758307536	 0.131056
H	 2.8459088191	-0.4653632472	 0.4544732706	 0.117834
H	 1.6477662512	-0.2371409288	 3.2658016245	 0.131393
H	 0.0333344729	 0.5753772151	 2.974619324	 0.123762
H	-0.7987819202	-1.526811126	 2.2148532371	 0.249597
68.6326	126.7262	191.2904	211.2947	228.0152	294.4056	322.3689	388.4868	453.6111	511.1191	557.5449	626.5938	643.4401	835.9713	882.9515	893.4892	918.9121	944.9586	968.0473	1004.3752	1056.7515	1081.1713	1121.7485	1128.8409	1147.1441	1185.9466	1191.6367	1257.2548	1277.949	1322.3681	1403.9615	1437.2515	1478.0799	1485.0933	1517.713	1520.8424	2348.7051	3036.2843	3047.263	3088.8103	3104.9424	3124.0355	3137.2982	3190.1693	3491.5156
CC1(OCC11CN1)C#N	C[C@]1(OC[C@]21CN2)C#N	
InChI=1S/C6H8N2O/c1-5(2-7)6(3-8-6)4-9-5/h8H,3-4H2,1H3	InChI=1S/C6H8N2O/c1-5(2-7)6(3-8-6)4-9-5/h8H,3-4H2,1H3/t5-,6-/m0/s1
