21
gdb 103982	2.62643	1.33645	1.19868	2.4077	78.46	-0.2431	0.0624	0.3055	1157.9362	0.181331	-424.197516	-424.188156	-424.187212	-424.23093	36.435	
C	-0.0998714881	 1.5541566047	 0.0724056809	-0.514883
C	 0.0517016301	 0.0587059634	 0.00968865	 0.336515
C	-0.824779135	-0.8717375162	 0.8067950654	-0.328925
C	 0.6627704709	-0.9370854601	 1.0077300557	-0.097324
C	 1.2780737215	-1.7575622594	-0.1271859033	-0.293484
C	 0.6760697277	-0.7245531096	-1.153573749	 0.368507
O	-0.2709888695	-1.2117948324	-2.0808698149	-0.496156
C	 1.7576392079	 0.0436187936	-1.9026289472	-0.154766
O	 2.3177630501	-0.8732807472	-2.8416315499	-0.43749
H	 0.8339635441	 2.0787731732	-0.1603742175	 0.111608
H	-0.8639303324	 1.9051314991	-0.6315849261	 0.127262
H	-0.4098083414	 1.8688903327	 1.0742631418	 0.116772
H	-1.3877821035	-0.3858620031	 1.59794629	 0.102825
H	-1.3475890504	-1.6895128055	 0.319084083	 0.120011
H	 1.1284649315	-0.7270408345	 1.9632045307	 0.079421
H	 2.3698575243	-1.7770219477	-0.1402910699	 0.101426
H	 0.9000552544	-2.7788282891	-0.2309996359	 0.095605
H	 0.2435943616	-1.5622614292	-2.8199075417	 0.281757
H	 1.3024241455	 0.90118357	-2.4184765413	 0.095693
H	 2.5205428946	 0.4199769713	-1.2060341502	 0.092019
H	 2.8534959861	-0.3815800736	-3.4698016903	 0.293608
113.902	143.5356	172.0695	203.2706	255.3386	260.5611	302.3361	363.173	385.6944	431.3344	454.3172	484.1187	532.2683	632.4976	722.877	784.1899	842.4715	876.2593	899.5234	940.388	975.2114	984.61	1009.314	1039.7299	1049.753	1067.2094	1090.5898	1110.3661	1142.642	1165.9935	1211.1428	1233.9127	1244.7323	1263.3672	1280.3219	1297.8521	1380.6566	1405.2714	1418.9356	1449.4354	1481.2982	1488.4577	1500.4392	1504.5206	1513.1263	2988.1124	3020.7494	3029.7117	3054.5318	3077.8123	3093.6622	3112.9925	3117.5698	3179.8031	3203.0269	3764.9269	3843.1456
CC12CC1CC2(O)CO	C[C@]12C[C@H]1C[C@]2(O)CO	
InChI=1S/C7H12O2/c1-6-2-5(6)3-7(6,9)4-8/h5,8-9H,2-4H2,1H3	InChI=1S/C7H12O2/c1-6-2-5(6)3-7(6,9)4-8/h5,8-9H,2-4H2,1H3/t5-,6-,7-/m0/s1
