22
gdb 89016	4.15042	0.6889	0.63082	3.5467	85.33	-0.237	0.0398	0.2768	1843.1054	0.192763	-404.377489	-404.36672	-404.365776	-404.41577	37.807	
C	 0.1634839832	 1.4685517082	-0.4372085043	-0.405217
C	 0.0231688551	 0.0466988288	 0.0644335525	 0.003916
C	 1.1999609756	-0.8992128235	 0.0800469515	-0.304691
C	 0.5839241187	-0.4319897239	 1.3840077379	-0.001726
C	 1.3532709406	 0.4662049602	 2.3276266287	-0.184046
N	 2.2612115441	-0.2997007377	 3.1690356999	-0.310508
C	 2.2677982848	-0.2098624255	 4.5316225557	 0.406995
C	 3.2537383374	-1.1325217383	 5.2345474465	-0.480943
O	 1.5435911703	 0.5491518233	 5.1514578167	-0.374854
H	 1.1513340466	 1.8867765111	-0.2248756995	 0.117138
H	 0.0223478032	 1.5063567741	-1.5229353232	 0.118269
H	-0.5823732869	 2.1296467972	 0.0177880366	 0.122066
H	-0.9279927967	-0.4088039734	-0.1996946504	 0.087381
H	 1.0586312522	-1.9284167201	-0.2313986613	 0.11082
H	 2.1665097413	-0.4829690781	-0.1921834884	 0.105308
H	-0.022444068	-1.1679608315	 1.9060596687	 0.090016
H	 1.914042854	 1.2250664924	 1.7681349853	 0.100727
H	 0.6851950889	 0.9935319813	 3.0132726357	 0.148682
H	 2.8621962893	-0.9704727863	 2.7193397112	 0.241199
H	 2.6989726175	-1.7864735169	 5.9127334793	 0.15085
H	 3.8485400576	-1.7477376914	 4.5540523153	 0.107249
H	 3.9268317311	-0.5259301	 5.8459600756	 0.151366
26.1271	35.7766	52.4678	82.8801	161.0412	199.3183	247.3447	267.0021	345.9531	413.4861	426.7895	457.301	530.0666	624.5166	637.3696	760.1118	823.2418	861.2151	879.8207	923.0713	943.1767	992.166	1005.767	1049.8052	1061.2794	1084.4668	1111.733	1114.9889	1154.6366	1174.2942	1200.3464	1245.4176	1255.1838	1287.028	1354.8403	1394.5495	1401.1742	1419.7224	1436.2161	1470.5362	1486.1608	1487.5858	1494.5001	1502.3505	1505.9533	1536.5778	1778.2751	3025.3199	3033.5455	3048.4918	3089.7404	3103.7204	3108.3332	3118.6122	3126.3093	3128.2205	3132.6477	3143.4853	3205.2847	3645.6903
CC1CC1CNC(C)=O	C[C@H]1C[C@H]1CNC(=O)C	
InChI=1S/C7H13NO/c1-5-3-7(5)4-8-6(2)9/h5,7H,3-4H2,1-2H3,(H,8,9)	InChI=1S/C7H13NO/c1-5-3-7(5)4-8-6(2)9/h5,7H,3-4H2,1-2H3,(H,8,9)/t5-,7-/m0/s1
