14
gdb 56382	2.07951	1.59668	1.13791	3.2935	67.7	-0.2949	-0.0171	0.2778	1079.1858	0.097778	-436.616873	-436.608064	-436.60712	-436.650467	31.993	
O	-0.148731259	 1.4153242262	-0.062802436	-0.434789
C	-0.06596252	 0.0081067999	-0.0023529914	-0.003834
C	 0.716539433	-0.4524859217	 1.1571668449	 0.32562
C	 1.3924230306	-0.8228532478	 2.077314679	-0.430026
C	-1.4455122924	-0.5208164126	 0.0850084982	 0.307221
N	-2.5077966541	-0.9710686062	 0.1208837223	-0.325634
C	 0.5793923572	-0.5364515788	-1.3012506521	 0.046054
C	 0.3108707197	 0.120677109	-2.5798405942	-0.177794
O	 1.5389617084	 0.3511251679	-1.8559860283	-0.2462
H	 0.6946667149	 1.698597918	-0.4510196608	 0.305038
H	 1.9783127948	-1.1449317832	 2.9035094089	 0.216157
H	 0.8646482884	-1.5850193443	-1.2641787866	 0.132435
H	 0.4231243527	-0.4442627124	-3.5014079537	 0.13811
H	-0.3679661942	 0.9681019458	-2.6089393902	 0.147643
81.2407	122.7031	142.2272	168.5519	259.0655	280.3705	346.5129	440.4123	469.3397	511.6206	526.1271	574.6809	592.0318	664.3805	686.7282	726.8917	854.6364	913.053	968.4011	1030.5009	1074.4324	1117.3692	1138.5361	1166.6272	1168.8245	1280.8261	1386.8505	1416.4165	1512.8994	2241.3377	2369.9868	3114.6634	3151.1593	3213.6477	3497.4519	3709.1493
OC(C#C)(C#N)C1CO1	O[C@@](C#C)(C#N)[C@H]1CO1	
InChI=1S/C6H5NO2/c1-2-6(8,4-7)5-3-9-5/h1,5,8H,3H2	InChI=1S/C6H5NO2/c1-2-6(8,4-7)5-3-9-5/h1,5,8H,3H2/t5-,6+/m1/s1
