19
gdb 89419	2.82586	1.41009	1.19159	1.1656	70.62	-0.2494	0.0532	0.3026	1084.8993	0.159568	-460.151974	-460.143605	-460.142661	-460.184272	33.665	
O	-0.2764511291	 1.1310183951	 1.3027262982	-0.435127
C	 0.0037731117	 0.1743322326	 0.2959499791	 0.064846
C	 0.949319548	-0.9140624135	 0.8343999532	-0.288573
C	 0.0424576147	-2.0250757063	 1.3571482773	 0.393791
O	 0.5626901595	-3.3204155643	 1.4023376591	-0.474191
C	-1.0748874401	-1.633977719	 2.2838447613	-0.352777
C	-1.3376949681	-1.8125209746	 0.7938292563	-0.082185
C	-1.3024991604	-0.5918504064	-0.0953636244	 0.067949
O	-2.4584563967	 0.2326283103	 0.0875016304	-0.433039
H	-1.2191182353	 1.3338798025	 1.2016457354	 0.284301
H	 0.4383194163	 0.680787911	-0.5792291485	 0.061277
H	 1.5580956297	-1.3274880587	 0.0226083822	 0.103663
H	 1.6257335261	-0.4976012733	 1.5880052994	 0.106599
H	 1.0818323411	-3.4021331994	 2.2096185948	 0.282371
H	-1.4679483924	-2.4280538468	 2.9096526631	 0.108476
H	-1.0835625172	-0.6417199109	 2.7160680744	 0.131782
H	-1.9398008998	-2.660371931	 0.4901881508	 0.092861
H	-1.2410795067	-0.9140413944	-1.1433703625	 0.077266
H	-2.5777048112	 0.7641356169	-0.7065278595	 0.290711
134.3152	170.6069	269.8536	276.3683	304.5149	310.32	367.1764	391.5622	425.7986	487.4151	541.2097	588.6307	606.6131	682.3782	789.607	809.0376	889.5212	922.5988	930.5817	943.5963	964.3837	1011.2051	1061.7062	1068.2764	1073.1772	1088.3212	1126.8841	1201.1206	1213.2823	1243.6549	1264.5119	1275.6672	1317.3219	1335.0985	1341.6612	1380.7212	1411.2958	1415.7623	1430.7511	1472.8382	1493.7618	2974.6152	3015.1583	3044.1606	3088.6206	3141.5567	3185.1849	3241.567	3701.79	3800.3914	3816.2706
OC1CC2(O)CC2C1O	O[C@H]1C[C@@]2(O)C[C@H]2[C@H]1O	
InChI=1S/C6H10O3/c7-4-2-6(9)1-3(6)5(4)8/h3-5,7-9H,1-2H2	InChI=1S/C6H10O3/c7-4-2-6(9)1-3(6)5(4)8/h3-5,7-9H,1-2H2/t3-,4-,5+,6-/m0/s1
