19
gdb 92851	2.95171	1.49639	1.05103	1.1166	86.9	-0.1987	-0.0039	0.1948	1150.7487	0.161066	-385.913147	-385.905186	-385.904242	-385.946063	30.829	
O	-0.0204519586	 1.4085012504	-0.1396853088	-0.429982
C	 0.0096077064	-0.0040222633	 0.0188705142	-0.035564
C	 0.609413394	-0.488342396	 1.3882767314	-0.290546
C	-0.460299642	-1.3793748164	 1.9942725144	-0.259458
C	-1.5583752277	-1.387442318	 1.2280232131	 0.323131
C	-2.9504807435	-1.9693900909	 1.2148423336	-0.362633
C	-3.6211741627	-1.2984700914	-0.0337012318	-0.24952
C	-2.5141069261	-0.4812364427	-0.6762278986	-0.253145
C	-1.3928878053	-0.5544099068	 0.0478218292	 0.35391
H	 0.8903134024	 1.7147934268	-0.1996595356	 0.281763
H	 0.5730052309	-0.4600827187	-0.8099787422	 0.07793
H	 1.5663806319	-1.0092123029	 1.2568867909	 0.097855
H	 0.8109180078	 0.3888791595	 2.0184616912	 0.108509
H	-0.3215047128	-1.8966069766	 2.936728949	 0.087862
H	-2.9252746691	-3.0593548415	 1.1102835782	 0.118006
H	-3.4986391426	-1.7576522846	 2.1377126868	 0.117545
H	-4.0345965637	-2.0425815997	-0.7260747906	 0.105671
H	-4.4658766739	-0.6607496463	 0.2583850221	 0.110577
H	-2.6615014153	 0.0911396592	-1.5841751067	 0.098088
49.0226	130.6916	207.9242	267.9415	291.3415	331.2255	456.6362	480.9972	604.1646	609.4693	702.3055	754.3287	791.8429	802.7227	823.121	876.9767	903.0908	915.1938	968.5892	982.683	1009.3969	1028.2805	1040.3098	1102.7571	1159.701	1178.1766	1191.4365	1225.2473	1237.7424	1262.048	1272.2394	1291.6573	1317.5508	1325.6625	1395.6005	1424.5823	1471.8443	1479.6179	1495.2246	1701.3763	1711.6284	2971.6246	3010.0869	3016.9097	3038.2201	3043.4234	3050.1188	3085.5047	3194.7342	3205.7132	3811.2769
OC1CC=C2CCC=C12	O[C@H]1CC=C2CCC=C12	
InChI=1S/C8H10O/c9-8-5-4-6-2-1-3-7(6)8/h3-4,8-9H,1-2,5H2	InChI=1S/C8H10O/c9-8-5-4-6-2-1-3-7(6)8/h3-4,8-9H,1-2,5H2/t8-/m0/s1
