18
gdb 8337	5.63339	1.24128	1.2312	1.3656	67.51	-0.2382	0.0703	0.3085	1035.2144	0.153522	-384.909038	-384.90132	-384.900376	-384.941493	29.186	
O	 0.6008442789	 0.6038667816	-0.9270433812	-0.434816
C	-0.0744141817	-0.2448218541	-0.0350031904	 0.177331
C	 0.2319813779	-0.1753324181	 1.4863818961	-0.342756
C	-1.2707795711	-0.4247103323	 1.748068969	 0.46953
C	-1.7683375476	-1.7818314415	 2.2934321063	-0.347421
C	-2.4163375411	-0.934342199	 3.4045928675	-0.075317
O	-1.9093054359	 0.2854680672	 2.8231898947	-0.313789
C	-1.5714401079	 0.0071063514	 0.2947898308	-0.342757
H	 0.488682782	 1.509350112	-0.618447851	 0.276693
H	 0.0801949348	-1.2553405327	-0.4237162117	 0.093496
H	 0.96288345	-0.866449712	 1.9136866391	 0.099836
H	 0.488390519	 0.8478981272	 1.7837937331	 0.104938
H	-2.4640940877	-2.3161914942	 1.643609309	 0.111503
H	-0.9835164494	-2.4662426835	 2.6213263091	 0.111499
H	-3.5121757451	-0.9463476032	 3.4379675409	 0.10363
H	-2.0286302412	-1.0962007978	 4.4173201417	 0.103621
H	-1.7980484372	 1.079193429	 0.2730409315	 0.104943
H	-2.3378340366	-0.5325619099	-0.2672188244	 0.099836
61.6587	82.6219	256.1989	283.5552	334.1118	340.6725	438.0332	467.8572	484.5864	702.7118	780.957	809.5218	856.3897	866.6778	890.9195	951.3428	976.9964	999.4868	1026.7106	1028.627	1063.5382	1102.4885	1156.2091	1179.6456	1194.3124	1201.1821	1224.6583	1226.5217	1260.4522	1276.7988	1309.401	1333.4362	1359.2811	1439.325	1456.5664	1483.1123	1489.7919	1531.1563	3020.0611	3040.4332	3047.5842	3059.7453	3071.6358	3072.8962	3104.9968	3110.637	3127.5621	3805.3929
OC1CC2(CCO2)C1	O[C@H]1C[C@]2(CCO2)C1	
InChI=1S/C6H10O2/c7-5-3-6(4-5)1-2-8-6/h5,7H,1-4H2	InChI=1S/C6H10O2/c7-5-3-6(4-5)1-2-8-6/h5,7H,1-4H2/t5-,6+
