15
gdb 54352	2.04076	1.8047	1.11202	2.0954	66.04	-0.2705	-0.0124	0.2581	1062.7815	0.112487	-453.96324	-453.954553	-453.953609	-453.997532	30.799	
N	 0.0279703239	 1.2954248099	 0.4527102124	-0.560586
C	-0.0095064402	 0.1526440387	-0.2703243446	 0.389609
O	 0.8950206373	-0.2359793207	-0.9808974738	-0.357902
C	-1.2992296407	-0.6892698542	-0.163948683	-0.028558
C	-1.8398813553	-1.1795891681	-1.5485436854	-0.089782
O	-1.6630587964	-2.5569536709	-1.1953792708	-0.259043
C	-1.0311219302	-2.2170734317	 0.0449059685	-0.089801
C	-2.3048288214	-0.1222515989	 0.7155359717	 0.255037
N	-3.075582674	 0.3680498159	 1.4258279159	-0.352886
H	 0.8589045332	 1.8619304006	 0.3994815347	 0.273286
H	-0.737138302	 1.593955997	 1.0342627284	 0.28838
H	-2.8843783675	-0.9293956868	-1.7567503628	 0.127871
H	-1.1912831609	-0.8742670647	-2.3750622048	 0.138236
H	 0.0377109343	-2.4507537278	 0.0463091357	 0.138286
H	-1.5315331201	-2.6648626084	 0.9086227479	 0.127853
36.2126	88.2029	157.064	191.9168	248.9924	295.9417	319.5461	406.2707	483.2089	547.6823	549.7994	604.2539	643.9681	758.8306	839.2634	865.9483	980.7249	982.3617	1004.8244	1069.1506	1101.6019	1134.2974	1167.3592	1177.6421	1260.0493	1321.355	1350.9791	1382.1452	1493.3573	1519.3685	1621.7055	1803.9824	2343.1363	3040.4674	3049.4165	3105.7691	3107.0585	3595.1238	3727.1434
NC(=O)C1(COC1)C#N	NC(=O)C1(COC1)C#N	
InChI=1S/C5H6N2O2/c6-1-5(4(7)8)2-9-3-5/h2-3H2,(H2,7,8)	InChI=1S/C5H6N2O2/c6-1-5(4(7)8)2-9-3-5/h2-3H2,(H2,7,8)
