21
gdb 86744	4.25362	0.98083	0.90859	1.6517	84.1	-0.2405	0.022	0.2624	1367.2513	0.183009	-387.079845	-387.071095	-387.070151	-387.114081	33.006	
C	 0.5243780817	 1.6351712133	-0.0813162383	-0.388969
C	-0.0967216487	 0.2445222498	 0.1408714349	-0.020167
C	 0.1474508073	-0.7419454025	-1.0347171347	-0.240334
C	 1.2933876649	-1.6941391287	-0.579069792	-0.068009
C	 1.2909203959	-1.510658765	 0.9238380862	-0.066807
C	 0.5412990066	-0.4799551828	 1.3050067707	-0.077288
C	 1.0900588082	-3.105989767	-1.09208157	 0.083629
C	 1.3917214211	-4.3267460685	-0.3339504987	-0.186021
O	 0.0441734581	-3.8800387094	-0.5003140234	-0.232876
H	 1.5974076727	 1.5569034835	-0.287754374	 0.114881
H	 0.051046693	 2.1446259044	-0.9274350366	 0.112111
H	 0.4019669098	 2.2699303854	 0.8028322271	 0.111717
H	-1.1726554997	 0.3825504451	 0.3075054936	 0.07573
H	-0.7529579833	-1.3410215286	-1.2002945535	 0.117899
H	 0.3779082467	-0.2260997722	-1.9712524884	 0.091979
H	 2.2601149911	-1.3584208171	-0.9874750369	 0.079802
H	 1.8820784466	-2.128376024	 1.5905099866	 0.09065
H	 0.428878446	-0.1373219484	 2.3287632162	 0.090084
H	 1.1229621015	-3.1854267218	-2.1816125758	 0.087728
H	 1.6516645193	-5.2410726492	-0.8666175707	 0.111049
H	 1.781550391	-4.2598914662	 0.6797653977	 0.113214
42.5549	73.9949	154.6342	198.3976	245.0357	296.0518	341.1558	427.0446	465.5282	598.2716	659.2179	731.9934	781.7345	797.5762	830.9219	869.1302	899.9287	931.9251	942.5061	972.5104	981.1096	1009.8645	1051.38	1078.4126	1099.4867	1109.889	1137.578	1144.2794	1162.7452	1176.1718	1222.2442	1280.7181	1284.0507	1302.5609	1323.7931	1338.9521	1356.6987	1386.9596	1407.8351	1435.5191	1487.2745	1497.1343	1498.826	1530.9838	1690.898	2973.4723	3016.2186	3026.2726	3054.0124	3075.9929	3086.9699	3095.1745	3098.5838	3100.5279	3170.0806	3176.1702	3202.8855
CC1CC(C=C1)C1CO1	C[C@H]1C[C@@H](C=C1)[C@H]1CO1	
InChI=1S/C8H12O/c1-6-2-3-7(4-6)8-5-9-8/h2-3,6-8H,4-5H2,1H3	InChI=1S/C8H12O/c1-6-2-3-7(4-6)8-5-9-8/h2-3,6-8H,4-5H2,1H3/t6-,7-,8-/m1/s1
