16
gdb 51709	4.12222	0.89027	0.75721	4.4976	66.03	-0.261	-0.0351	0.2259	1411.732	0.124335	-475.081219	-475.072766	-475.071822	-475.11579	29.595	
O	-0.7442803134	 0.8070972582	 0.7583845874	-0.23227
C	 0.0315245959	 0.9542544336	-0.149882045	 0.15037
C	 1.2985558376	 1.7865359665	-0.0520160821	-0.300362
C	 1.4379303233	 2.7893579055	-1.1924528529	 0.11746
C	 2.7055012082	 3.6685319467	-1.132359619	-0.205346
N	 3.0005490988	 3.7755628701	-2.5471770025	-0.364791
C	 2.4613731589	 2.7213506475	-3.2546158978	 0.474922
O	 2.697313149	 2.3797916795	-4.3772338074	-0.380918
O	 1.550878753	 2.0898396429	-2.4436898336	-0.255385
H	-0.1315034873	 0.4739644989	-1.137733754	 0.109527
H	 1.3024597053	 2.3009717331	 0.9137691647	 0.129629
H	 2.1578766563	 1.103157668	-0.0886770713	 0.134871
H	 0.5471888172	 3.4283619155	-1.2486073889	 0.111112
H	 2.5048783105	 4.6399764541	-0.6729171194	 0.130407
H	 3.5093991089	 3.1739160482	-0.5678311071	 0.114218
H	 3.8663311878	 4.1607940316	-2.8878482211	 0.266557
51.2827	69.1969	104.6478	168.2548	205.9657	349.6653	390.0386	488.2573	508.6433	540.6025	655.4885	729.5527	770.0411	822.3845	876.4472	957.664	978.8831	1005.2841	1085.51	1096.1927	1112.0735	1129.806	1206.1415	1218.3908	1252.9667	1286.4177	1339.0234	1390.4066	1395.0516	1426.5756	1438.8878	1448.1254	1530.4216	1834.4951	1901.9895	2918.0472	2996.3042	3019.9207	3032.5677	3086.8086	3102.0884	3656.2851
O=CCC1CNC(=O)O1	O=CC[C@H]1CNC(=O)O1	
InChI=1S/C5H7NO3/c7-2-1-4-3-6-5(8)9-4/h2,4H,1,3H2,(H,6,8)	InChI=1S/C5H7NO3/c7-2-1-4-3-6-5(8)9-4/h2,4H,1,3H2,(H,6,8)/t4-/m0/s1
