19
gdb 50626	3.06671	1.20189	0.90117	2.6954	77.85	-0.2511	-0.028	0.2231	1272.3273	0.159021	-423.033542	-423.024967	-423.024023	-423.067493	31.695	
O	-0.9041913031	 1.3793732657	-0.2723882942	-0.247708
C	 0.2021993031	 0.9112436772	-0.2198239825	 0.146827
C	 1.4644779659	 1.7140803377	 0.0893120984	 0.017065
C	 1.2134199268	 2.7989491935	 1.1366616195	-0.192219
C	 2.2937435287	 3.8817685943	 1.2016440734	-0.275156
C	 3.7198794143	 3.437054285	 1.4086442041	-0.050591
C	 4.3270554043	 2.3132370289	 1.024885164	-0.060023
C	 3.7816443466	 1.1248029571	 0.2724289167	-0.129597
O	 2.432277154	 0.7712321951	 0.4985787925	-0.253185
H	 0.4068158285	-0.165057726	-0.4097611257	 0.094392
H	 1.7660081564	 2.1786348203	-0.8702971479	 0.09049
H	 0.2446476024	 3.2593810815	 0.9173455974	 0.121954
H	 1.1258736226	 2.2973023858	 2.1069176636	 0.112824
H	 2.2565145422	 4.4787101035	 0.2761316442	 0.115875
H	 2.0289041781	 4.5845882873	 2.0004106593	 0.108645
H	 4.3454265583	 4.1775890027	 1.9044517698	 0.091033
H	 5.3938792431	 2.2294758444	 1.2276292725	 0.090305
H	 3.9489373068	 1.2805068519	-0.8104896448	 0.10114
H	 4.3554079209	 0.2340896643	 0.5489209697	 0.117931
49.9368	91.0367	160.576	207.0477	237.3803	339.5763	348.748	423.5774	458.1826	517.9294	611.9003	697.4233	754.8741	768.0675	857.9911	908.7927	917.6849	933.5924	1005.7876	1035.296	1046.7469	1074.3585	1094.9581	1105.4239	1180.0284	1211.9337	1243.782	1277.0675	1302.6323	1305.8191	1353.5556	1378.884	1384.9163	1404.0029	1415.3954	1429.5043	1471.5527	1478.2414	1481.7124	1735.3875	1838.8594	2903.2352	2917.4199	2925.4475	2984.5332	3040.9256	3053.979	3067.6896	3095.2628	3124.6961	3148.8472
O=CC1CCC=CCO1	O=C[C@H]1CCC=CCO1	
InChI=1S/C7H10O2/c8-6-7-4-2-1-3-5-9-7/h1,3,6-7H,2,4-5H2	InChI=1S/C7H10O2/c8-6-7-4-2-1-3-5-9-7/h1,3,6-7H,2,4-5H2/t7-/m1/s1
