20
gdb 95704	2.97851	1.23972	0.94647	4.1525	75.63	-0.2266	0.0091	0.2357	1260.6324	0.172619	-440.315215	-440.306553	-440.305609	-440.348562	33.009	
C	 0.4728768531	 1.6486239204	 0.0088190489	-0.399971
C	 0.0335850636	 0.1782810876	 0.0301847277	-0.004639
C	 0.1340283336	-0.4279780641	-1.3840809547	-0.164785
N	-0.22415087	-1.8296614687	-1.5396873347	-0.283573
C	 0.5621605288	-2.7905696693	-0.7789598189	-0.290922
C	 0.1957182885	-2.9272093257	 0.7040343833	 0.384128
O	-0.2062523343	-3.954956195	 1.1799545754	-0.318161
O	 0.2743230557	-1.8282602886	 1.4956495378	-0.22282
C	 0.8693299728	-0.6012692544	 1.05121101	-0.07427
H	 1.5315653342	 1.74202729	-0.2613102961	 0.120058
H	-0.1044607546	 2.2179853857	-0.7260901352	 0.122661
H	 0.3342117908	 2.1229366615	 0.9851323433	 0.12184
H	-1.0114985956	 0.1243155675	 0.3649489201	 0.087098
H	-0.49322706	 0.1535636029	-2.0695206501	 0.106178
H	 1.1688778573	-0.310356947	-1.7386264758	 0.103198
H	-1.2151212189	-1.9765319043	-1.3824809105	 0.227654
H	 0.4289047301	-3.790582153	-1.1987435286	 0.134531
H	 1.6224911621	-2.5289285871	-0.8836063934	 0.122326
H	 1.881573153	-0.7862653165	 0.6668635195	 0.107481
H	 0.9711769198	-0.0187153919	 1.970254442	 0.121986
69.4773	135.0081	203.8243	239.6204	273.0278	313.7793	324.7102	367.9073	422.8834	477.6788	517.4524	595.5814	708.3638	724.6047	811.0327	847.9484	888.0468	938.3237	957.8031	970.0739	1035.9471	1078.7004	1100.1637	1132.3112	1164.6527	1179.2119	1224.5933	1246.6801	1304.9016	1311.6783	1347.4195	1353.6914	1379.1376	1389.3541	1406.6573	1430.1956	1464.2135	1476.5905	1497.0588	1499.3269	1506.7504	1510.8953	1835.2115	2999.8655	3013.9442	3024.0426	3031.4048	3038.2206	3062.2487	3094.1838	3097.913	3103.8377	3108.8054	3534.0614
CC1CNCC(=O)OC1	C[C@H]1CNCC(=O)OC1	
InChI=1S/C6H11NO2/c1-5-2-7-3-6(8)9-4-5/h5,7H,2-4H2,1H3	InChI=1S/C6H11NO2/c1-5-2-7-3-6(8)9-4-5/h5,7H,2-4H2,1H3/t5-/m0/s1
