21
gdb 91417	2.42765	1.74119	1.34458	1.8085	76.98	-0.2328	0.0677	0.3004	1043.4851	0.184295	-424.218476	-424.210373	-424.209429	-424.250534	32.798	
C	 0.064919582	 1.5953236398	 0.0086206932	-0.40531
C	 0.0897672435	 0.0648563348	-0.0247531183	 0.032171
C	 0.7770210543	-0.5073566231	-1.2736864222	 0.076825
C	 2.2758892651	-0.8154053223	-1.0633882136	-0.254789
C	 1.6933713557	-2.1273549139	-0.4937675552	 0.091168
C	 1.2592023273	-1.9939952975	 0.967421381	-0.224805
C	 0.7235433863	-0.5642192986	 1.2481682482	 0.072846
O	 1.7818687119	 0.2988942874	 1.6765730062	-0.422712
O	 0.4998660204	-1.9385944817	-1.3069262823	-0.300504
H	 1.0738069106	 2.0133614189	 0.0109247848	 0.133092
H	-0.470324174	 1.9832294449	-0.8645950177	 0.105336
H	-0.4431103926	 1.9622792826	 0.9056774383	 0.113995
H	-0.9429386181	-0.3017731111	-0.0768716482	 0.084357
H	 0.4595333715	-0.0049531338	-2.1924873957	 0.068887
H	 2.7867747239	-0.9848686703	-2.0124545635	 0.102266
H	 2.8572315982	-0.170381845	-0.4072287569	 0.121561
H	 2.1951284781	-3.0750988586	-0.7087063989	 0.070827
H	 0.4782252652	-2.7396199241	 1.1537102177	 0.107897
H	 2.0877188282	-2.2091224325	 1.6546065205	 0.08048
H	-0.0402184086	-0.6059001895	 2.0386254995	 0.064876
H	 2.158581951	-0.0766089866	 2.478188773	 0.281536
126.5844	208.2452	226.0537	277.8461	291.232	328.5921	361.8411	419.6442	464.0644	493.2725	598.928	691.6249	764.3475	820.9285	862.2547	869.5634	913.8952	923.4179	943.7784	964.9808	995.8636	1027.6033	1040.9037	1065.1199	1095.3875	1112.76	1127.3514	1147.6647	1208.5826	1226.4665	1245.9185	1260.48	1289.774	1318.4839	1331.2131	1352.9314	1360.3745	1379.1306	1387.549	1407.2895	1430.2195	1464.25	1489.0723	1493.6267	1501.3346	2979.077	3022.4803	3032.4099	3039.783	3061.7272	3067.4693	3073.8706	3091.5086	3101.9504	3129.361	3163.9316	3821.9967
CC1C2CC(CC1O)O2	C[C@H]1[C@H]2C[C@@H](C[C@H]1O)O2	
InChI=1S/C7H12O2/c1-4-6(8)2-5-3-7(4)9-5/h4-8H,2-3H2,1H3	InChI=1S/C7H12O2/c1-4-6(8)2-5-3-7(4)9-5/h4-8H,2-3H2,1H3/t4-,5-,6-,7-/m1/s1
