15
gdb 25899	2.742	1.52481	0.9859	3.0768	69.84	-0.2192	-0.0541	0.1651	1125.0506	0.112267	-457.81671	-457.808693	-457.807749	-457.849722	29.55	
C	 0.0505731309	 1.4364839591	 0.0057104431	-0.492887
C	 0.003661094	-0.0753047974	-0.031005125	 0.331785
O	 1.0351752073	-0.740801072	-0.0806844881	-0.366491
C	-1.2871322194	-0.7510906495	-0.0068868033	 0.010787
C	-2.5675614875	-0.2632973056	 0.0462488332	-0.076598
O	-3.4544058693	-1.2628951614	 0.0493767114	-0.138281
C	-2.7581250226	-2.4537315178	-0.0029733753	-0.116482
C	-1.4240628105	-2.1927389858	-0.0388966703	 0.222262
O	-0.4054000019	-3.0627126129	-0.09332396	-0.430305
H	 1.0888248623	 1.7683030305	-0.0191736462	 0.149802
H	-0.4898918076	 1.8559009359	-0.8495713955	 0.14592
H	-0.4333499807	 1.8112956622	 0.913928793	 0.145932
H	-2.9740914776	 0.7347220638	 0.0844070382	 0.15219
H	-3.3490635529	-3.3513623455	-0.0068026203	 0.148079
H	 0.4039855555	-2.5134104034	-0.105224645	 0.314286
74.6551	113.8753	173.5867	196.3515	322.5892	330.3667	457.9052	510.1428	573.0209	610.4234	644.3295	670.4276	694.2868	717.5567	741.1564	785.0115	890.1359	955.1863	1046.0908	1060.5997	1095.1921	1189.3096	1238.9489	1289.901	1324.4004	1367.7347	1400.6035	1466.2397	1474.8201	1477.2634	1563.3079	1670.4212	1735.7588	3041.915	3104.7671	3157.0059	3267.5617	3304.3497	3542.2505
CC(=O)C1=COC=C1O	CC(=O)c1cocc1O	
InChI=1S/C6H6O3/c1-4(7)5-2-9-3-6(5)8/h2-3,8H,1H3	InChI=1S/C6H6O3/c1-4(7)5-2-9-3-6(5)8/h2-3,8H,1H3
