22
gdb 13873	3.85039	1.41642	1.09271	0.1289	82.72	-0.2336	0.0312	0.2649	1146.3793	0.200899	-313.0929	-313.084337	-313.083392	-313.125681	32.996	
C	 0.0020216046	 1.5331040213	 0.0511050659	-0.390209
C	-0.0385608472	-0.0011509234	 0.0024739189	 0.022561
C	-1.4931494337	-0.4932069145	 0.002510974	-0.390208
C	 0.7461334356	-0.5513032892	-1.2008801116	 0.067605
C	 2.241450807	-0.1245451747	-1.2609633414	-0.276214
C	 2.9241652285	-1.314451178	-1.8903723339	-0.065852
C	 2.1338064149	-2.3855575948	-1.9160651564	-0.065852
C	 0.7812990602	-2.1033667162	-1.3084279639	-0.276214
H	 1.0255769966	 1.9135611373	 0.1154418124	 0.114099
H	-0.4580451131	 1.9632022253	-0.8470381407	 0.109496
H	-0.5493111837	 1.9124619465	 0.9179449023	 0.107098
H	 0.4480887502	-0.3820896604	 0.9135524313	 0.066724
H	-2.0192023373	-0.1525455805	-0.8977807775	 0.109496
H	-1.5558565853	-1.5848926812	 0.0315505877	 0.114099
H	-2.0381137998	-0.1052081093	 0.8695532721	 0.107098
H	 0.2647560726	-0.1741945951	-2.1141572804	 0.068422
H	 2.3901892851	 0.8032997819	-1.8246138224	 0.100896
H	 2.6462310674	 0.0621823926	-0.2540173215	 0.100549
H	 3.9520105947	-1.2843131544	-2.2357799259	 0.08748
H	 2.4163488258	-3.3654665091	-2.2856988061	 0.08748
H	 0.6993628741	-2.5762464758	-0.3173047503	 0.100549
H	-0.0481226772	-2.5011398883	-1.9038759025	 0.100896
98.5311	100.5891	190.2342	235.1392	248.153	328.7691	345.0883	400.1817	418.5038	458.2165	597.8726	722.488	781.1632	811.8716	883.6754	921.7292	930.7128	949.8411	967.2909	974.7892	979.3667	982.9491	1033.1222	1063.4996	1126.7624	1140.3354	1148.694	1163.2729	1193.2946	1234.235	1291.49	1296.3991	1329.6074	1337.0626	1350.9421	1373.0246	1387.853	1401.7219	1421.9197	1484.1038	1488.5643	1491.994	1494.9991	1505.391	1513.0186	1690.5919	2984.3548	2986.2815	2986.4686	3006.8207	3023.6727	3028.6748	3051.5786	3056.5771	3086.321	3092.8469	3105.3344	3107.1741	3176.6156	3202.594
CC(C)C1CC=CC1	CC(C)[C@H]1CC=CC1	
InChI=1S/C8H14/c1-7(2)8-5-3-4-6-8/h3-4,7-8H,5-6H2,1-2H3	InChI=1S/C8H14/c1-7(2)8-5-3-4-6-8/h3-4,7-8H,5-6H2,1-2H3
