15
gdb 46156	4.80334	1.02482	0.87054	2.2158	66.91	-0.2591	-0.005	0.2541	1233.7399	0.114028	-453.981105	-453.973176	-453.972232	-454.01398	28.86	
O	-0.0305666472	-0.0626782806	 0.0518325498	-0.360542
C	-0.011911983	 1.150344106	 0.0169671935	 0.385297
C	-1.3103504036	 1.9571617401	-0.0012230655	-0.196012
O	-1.1698116881	 3.3301273919	-0.3433351495	-0.251099
C	-0.1074715297	 3.9307738179	 0.3675960421	-0.028969
C	 1.2258158882	 3.3258264661	-0.0917477355	-0.156579
N	 1.1407956697	 1.8831086273	 0.0542915402	-0.334551
C	-0.1403626403	 5.3777023979	 0.1247551803	 0.284652
N	-0.1252768105	 6.5191236071	-0.0459386024	-0.302366
H	-1.9766346375	 1.5136845599	-0.7425170954	 0.159248
H	-1.7816490682	 1.8461983689	 0.9880072448	 0.134834
H	-0.2249516289	 3.7634160082	 1.4515318531	 0.128457
H	 1.4084819078	 3.6236852434	-1.1323065761	 0.140527
H	 2.0436881324	 3.7139204412	 0.5237746059	 0.138071
H	 1.9909401191	 1.3381118846	 0.0281986748	 0.259032
74.4787	145.7495	169.003	179.5241	329.0363	394.2572	430.263	468.8485	495.6905	554.195	585.2806	636.8568	699.7298	805.3921	907.01	994.7543	1027.1259	1043.3111	1088.1142	1115.9331	1138.0112	1253.7491	1264.1752	1290.9259	1356.8823	1364.1973	1381.1058	1403.5343	1468.0505	1479.1334	1515.7944	1807.3088	2375.1505	2971.7005	2995.7433	3023.8738	3081.2837	3130.6508	3606.6122
O=C1COC(CN1)C#N	O=C1CO[C@@H](CN1)C#N	
InChI=1S/C5H6N2O2/c6-1-4-2-7-5(8)3-9-4/h4H,2-3H2,(H,7,8)	InChI=1S/C5H6N2O2/c6-1-4-2-7-5(8)3-9-4/h4H,2-3H2,(H,7,8)/t4-/m1/s1
