23
gdb 96199	2.02419	1.49863	0.92454	1.4774	88.22	-0.2304	0.0172	0.2476	1344.5135	0.206104	-388.301986	-388.292554	-388.29161	-388.336018	36.189	
C	 0.0394761759	 1.5975065407	-0.0783042857	-0.399554
C	-0.0171006173	 0.0636176762	-0.0523444777	 0.015646
C	 0.7840624104	-0.4903934091	-1.2407929274	-0.063406
O	 0.6291736219	-1.8713701305	-1.4822262547	-0.239471
C	 1.2999823988	-2.72206668	-0.5652500593	-0.138038
C	 0.6023405335	-2.9148490109	 0.7610140581	-0.154558
C	 0.2298830647	-1.9384149802	 1.5922516492	 0.327017
C	-0.463373716	-2.2410520694	 2.8949354203	-0.477894
C	 0.4793840428	-0.4676957083	 1.3086132209	-0.304454
H	 1.067288832	 1.9582475691	 0.0505209501	 0.114
H	-0.3350125733	 1.9942295348	-1.027708667	 0.11374
H	-0.5641006206	 2.0290268084	 0.7262132887	 0.114272
H	-1.0585536397	-0.2551916917	-0.187201905	 0.082378
H	 0.4522654368	 0.0052844585	-2.1600917545	 0.098888
H	 1.8534093927	-0.2451100277	-1.1025439041	 0.075849
H	 1.3853096237	-3.6869381662	-1.074011335	 0.10544
H	 2.3285242703	-2.3495581792	-0.4069546216	 0.089598
H	 0.399367463	-3.9453719272	 1.0448672969	 0.077436
H	-0.5816358571	-3.3158511953	 3.0550348048	 0.119057
H	 0.0975273038	-1.827560746	 3.7435844309	 0.12217
H	-1.4586071403	-1.7783664008	 2.9296527484	 0.123209
H	 1.5587188031	-0.2615949014	 1.3871249087	 0.10545
H	 0.0107980809	 0.1265376562	 2.101348185	 0.093224
67.745	125.4049	189.9403	208.5783	230.9615	273.7699	314.3137	345.4871	375.4337	400.4016	432.4639	500.2766	533.0616	660.7203	805.7607	826.3376	844.0976	879.6378	916.7313	949.4278	972.5606	1001.3767	1043.713	1053.6862	1063.3555	1106.7452	1131.3971	1140.6229	1167.3593	1199.2441	1240.3434	1288.8658	1305.201	1339.6701	1347.9993	1376.8146	1381.6893	1399.2557	1407.6076	1413.6101	1430.6024	1474.5171	1479.8678	1481.9474	1490.2255	1494.52	1498.9945	1501.3191	1736.8227	2934.0967	2939.6105	2986.0852	3010.9472	3024.3906	3030.4409	3052.3777	3055.8955	3060.037	3075.1966	3091.1858	3102.5168	3111.3428	3144.4053
CC1COCC=C(C)C1	C[C@H]1COCC=C(C)C1	
InChI=1S/C8H14O/c1-7-3-4-9-6-8(2)5-7/h3,8H,4-6H2,1-2H3	InChI=1S/C8H14O/c1-7-3-4-9-6-8(2)5-7/h3,8H,4-6H2,1-2H3/t8-/m1/s1
