17
gdb 27098	2.88318	1.38406	1.02284	2.1323	78.93	-0.1947	0.0118	0.2065	1162.2708	0.136528	-418.039116	-418.030358	-418.029414	-418.073485	31.7	
C	-0.7217673428	 1.0536256412	-0.4350819441	-0.512913
C	-0.0018754482	-0.2126762996	-0.0889364059	 0.193174
C	 0.6165960832	-1.0894623691	-0.9322509038	 0.333666
N	 0.797367073	-1.1461558963	-2.3103080552	-0.389504
C	-0.1825811473	-1.0256066154	-3.2688928847	 0.066413
N	-1.3989084499	-0.7539532269	-3.0061795045	-0.443499
O	 1.2032688411	-2.1117244325	-0.2434346193	-0.179949
C	 0.9534575561	-1.8844709359	 1.0776855779	-0.025666
C	 0.215562438	-0.7572140809	 1.2249429366	-0.248549
H	-1.1425189767	 1.5137088241	 0.4630487932	 0.11293
H	-0.0495274004	 1.7855928351	-0.8984854801	 0.119161
H	-1.5261660047	 0.8546607747	-1.149052566	 0.165311
H	 1.6864631386	-1.506263269	-2.6193681983	 0.256132
H	 0.233457928	-1.1743173463	-4.2727869641	 0.091907
H	-1.9365236797	-0.6971611448	-3.8675454306	 0.223627
H	 1.3735610283	-2.6019983971	 1.7620687583	 0.131201
H	-0.1329560166	-0.3336203112	 2.1547614404	 0.106559
35.3129	79.9304	163.5688	181.1398	246.8324	295.9974	319.1845	418.5411	454.2075	590.517	619.4395	667.4599	686.8146	718.511	795.6926	828.0441	831.293	908.8777	989.7918	1038.3572	1067.7418	1070.125	1105.765	1126.8757	1196.9577	1237.4831	1268.4877	1285.965	1402.9359	1415.555	1428.178	1479.4453	1506.7342	1549.4105	1552.1984	1672.828	1726.6905	3029.332	3044.9873	3088.3892	3120.6847	3246.5809	3286.9313	3518.8634	3630.2219
CC1=C(NC=N)OC=C1	Cc1c(NC=N)occ1	
InChI=1S/C6H8N2O/c1-5-2-3-9-6(5)8-4-7/h2-4H,1H3,(H2,7,8)	InChI=1S/C6H8N2O/c1-5-2-3-9-6(5)8-4-7/h2-4H,1H3,(H2,7,8)
