19
gdb 70711	2.25005	1.84952	1.21981	3.079	75.8	-0.2409	-0.0195	0.2214	1056.3525	0.160459	-423.052323	-423.044389	-423.043444	-423.084479	31.731	
O	 0.0127182457	 1.3798673567	-0.1095300593	-0.478844
C	 0.0013234319	-0.0040010119	-0.0386348517	 0.354631
C	-0.4450133091	-0.7684866833	-1.2753292441	-0.344145
C	-1.3365414901	-0.7347761655	-0.0629839407	-0.094946
C	-1.5414957197	-2.0049485806	 0.7667825128	-0.224723
C	-0.4300628818	-2.2602323211	 1.7979678782	-0.206124
C	 0.9748502319	-2.0210580514	 1.2041470794	-0.31696
C	 1.0873296478	-0.5644615918	 0.8101924791	 0.335857
O	 1.9582274799	 0.1804809348	 1.2234445531	-0.358672
H	 0.8372257072	 1.6327052206	 0.3381701235	 0.292077
H	-0.7028980341	-0.1339445788	-2.1154833549	 0.133275
H	 0.0480451384	-1.7001951992	-1.534518319	 0.114876
H	-2.1835260597	-0.0600007815	-0.1334515514	 0.110191
H	-2.5033214149	-1.9459842685	 1.2856317823	 0.11026
H	-1.6112995377	-2.8655369606	 0.0890381828	 0.105401
H	-0.5616896937	-1.5895869205	 2.6557826014	 0.116517
H	-0.5020253386	-3.2817479045	 2.1853120296	 0.105542
H	 1.7673914306	-2.2404231728	 1.9229255608	 0.125839
H	 1.1242499559	-2.6662622501	 0.3290629479	 0.119947
96.5607	182.1548	205.0169	325.9972	348.545	372.0134	426.0219	455.4966	476.8747	501.9847	562.8223	661.3031	726.8676	785.2129	853.2205	862.5083	887.1542	902.7037	928.3335	968.2493	1013.8859	1045.1483	1071.3172	1091.5934	1102.7878	1148.0177	1184.1955	1206.68	1244.8691	1284.3901	1311.3776	1341.8485	1362.9157	1377.7782	1397.7811	1444.0457	1472.7548	1482.3822	1495.1021	1500.6681	1769.6575	3022.0726	3030.901	3037.3962	3073.8736	3083.0422	3112.1258	3129.6517	3165.4503	3225.9288	3674.8599
OC12CC1CCCC2=O	O[C@]12C[C@H]1CCCC2=O	
InChI=1S/C7H10O2/c8-6-3-1-2-5-4-7(5,6)9/h5,9H,1-4H2	InChI=1S/C7H10O2/c8-6-3-1-2-5-4-7(5,6)9/h5,9H,1-4H2/t5-,7-/m1/s1
