16
gdb 75874	2.26782	1.86562	1.05144	3.8811	73.41	-0.2457	-0.06	0.1857	1079.1574	0.125114	-437.963764	-437.955705	-437.954761	-437.996724	30.073	
C	-0.2900004894	 1.586536774	 0.0257198175	-0.387382
C	 0.1916238425	 0.1366571967	-0.0052138087	-0.262255
C	 0.8037125363	-0.2439738679	-1.3487654248	 0.42874
O	 0.5637884281	 0.3168763595	-2.392947063	-0.343095
N	 1.6406944018	-1.3575289384	-1.317095831	-0.35608
C	 2.1747161283	-1.8858819761	-0.1613725649	 0.046193
C	 1.8980486852	-1.4139954776	 1.0692131833	-0.23228
C	 1.0165520303	-0.2609999117	 1.2376371086	 0.372031
O	 0.8859045735	 0.3357066158	 2.2879409148	-0.339156
H	 0.5547799877	 2.2744217295	-0.0695631552	 0.129542
H	-0.9770407112	 1.7770620406	-0.7995315331	 0.133619
H	-0.7830500032	 1.787311075	 0.9771234745	 0.139117
H	-0.6866449999	-0.5313472363	 0.0639227528	 0.146704
H	 2.0056955213	-1.6417035437	-2.2148002625	 0.264411
H	 2.8633582674	-2.7082970068	-0.3212736414	 0.141327
H	 2.3758958113	-1.8316831326	 1.9452103531	 0.118564
60.7798	138.3557	165.1058	265.9297	281.7422	367.8472	449.1657	461.3282	500.1964	557.5484	597.5276	658.9334	682.8844	769.3706	820.1091	848.8937	869.064	979.1832	1018.2037	1077.7251	1096.7403	1124.7796	1141.1442	1217.9931	1256.1576	1261.1869	1344.3911	1406.0038	1411.4122	1483.4717	1489.2147	1496.9114	1677.0783	1764.6723	1816.4486	2959.1964	3064.027	3135.7154	3161.4281	3195.8088	3229.69	3615.4464
CC1C(=O)NC=CC1=O	C[C@H]1C(=O)NC=CC1=O	
InChI=1S/C6H7NO2/c1-4-5(8)2-3-7-6(4)9/h2-4H,1H3,(H,7,9)	InChI=1S/C6H7NO2/c1-4-5(8)2-3-7-6(4)9/h2-4H,1H3,(H,7,9)/t4-/m1/s1
