18
gdb 62914	2.91308	1.4853	1.17002	1.7481	73.36	-0.2278	-0.0079	0.2199	1073.9098	0.145964	-439.014584	-439.006152	-439.005207	-439.047375	32.448	
C	-0.1532449705	 1.5928251108	 0.3984778048	-0.472198
C	-0.0670628785	 0.0847616245	 0.2629254873	 0.472246
O	-1.3404899041	-0.4865382462	 0.0579576656	-0.466742
C	 1.1403627938	-0.546254656	-0.5243778344	-0.113257
N	 1.9979882012	-0.1010003656	 0.6472245227	-0.332338
C	 0.7732048678	-0.7508714372	 1.2683782109	-0.106166
C	 0.8473660594	-1.8914223993	 0.2012983221	-0.072141
C	-0.3248740197	-2.7586670439	-0.2043760974	 0.128657
O	-0.4839227473	-3.1485840281	-1.3357622308	-0.277834
H	 0.8257764837	 2.0219645254	 0.6082359773	 0.154214
H	-0.5378798731	 2.0328739173	-0.529931307	 0.107246
H	-0.8486297417	 1.8545962484	 1.2016656966	 0.125463
H	-1.6954824486	-0.1726855252	-0.7812352921	 0.290703
H	 1.4438874527	-0.3862099133	-1.5596690012	 0.089764
H	 2.791248962	-0.7414058085	 0.735101839	 0.213845
H	 0.6453835917	-0.8269621861	 2.3494757888	 0.086288
H	 1.7360843434	-2.5257743621	 0.3119778108	 0.094236
H	-0.9936768221	-3.0829914749	 0.6216199868	 0.07801
87.7362	145.8573	222.8052	237.7467	250.1377	313.4724	359.4021	406.7734	434.8856	486.6156	616.362	648.0865	695.5747	764.1959	796.4132	857.7572	875.3673	920.9001	957.1795	1000.7229	1035.7764	1073.8906	1094.401	1109.4608	1126.0115	1143.3888	1155.4858	1202.3041	1226.4146	1252.2542	1281.7617	1295.5697	1345.824	1386.3477	1400.5078	1420.2936	1486.9885	1501.9262	1806.455	2893.162	3031.7688	3033.7302	3096.3295	3104.7346	3113.6206	3161.401	3407.0772	3805.7741
CC1(O)C2NC1C2C=O	C[C@@]1(O)[C@H]2N[C@@H]1[C@H]2C=O	
InChI=1S/C6H9NO2/c1-6(9)4-3(2-8)5(6)7-4/h2-5,7,9H,1H3	InChI=1S/C6H9NO2/c1-6(9)4-3(2-8)5(6)7-4/h2-5,7,9H,1H3/t3-,4-,5+,6+
