15
gdb 73780	2.41209	1.73116	1.01466	3.6619	75.07	-0.2307	-0.0649	0.1658	1103.4857	0.112728	-454.021785	-454.013201	-454.012257	-454.055524	31.193	
C	 0.0584894346	 1.5478535896	 0.0250985732	-0.516978
C	-0.0071758554	 0.0558825719	 0.0239885859	 0.146699
C	-1.0801756346	-0.7695466726	 0.026045153	 0.107666
N	-2.4212693149	-0.5547839845	 0.0683017948	-0.60308
C	-0.5901569656	-2.1746177159	 0.016192205	 0.420955
O	-1.2369792101	-3.182888313	-0.0138592547	-0.344008
O	 0.779036943	-2.141732044	 0.0311496454	-0.234271
C	 1.1791575196	-0.7948066845	 0.0293268491	 0.345148
N	 2.389130733	-0.4353582775	 0.0247978658	-0.528347
H	 1.0226205201	 1.879813724	-0.3657067969	 0.164933
H	-0.7366436378	 1.9865696781	-0.5882415443	 0.117702
H	-0.0447803429	 1.9563375441	 1.0378308286	 0.143588
H	-2.7848592703	 0.3484388344	-0.1865287316	 0.265923
H	-2.998986953	-1.3508316399	-0.1571527117	 0.27644
H	 3.0125516541	-1.24301727	 0.0248677783	 0.23763
40.8058	129.3778	168.9992	232.2068	277.2626	279.1245	363.6713	374.5857	465.6513	541.2153	547.7398	651.4633	663.2875	696.7033	710.85	792.3979	878.2339	902.1668	960.9577	1004.2539	1056.8937	1131.4242	1209.559	1224.0386	1361.1373	1394.2395	1432.1375	1482.5921	1491.9265	1625.0531	1731.7407	1766.3193	1879.074	3025.3555	3075.5139	3130.5631	3496.2039	3583.2623	3703.924
CC1=C(N)C(=O)OC1=N	CC1=C(OC(=O)[C]1N)[NH]	
InChI=1S/C5H6N2O2/c1-2-3(6)5(8)9-4(2)7/h7H,6H2,1H3	InChI=1S/C5H6N2O2/c1-2-3(6)5(8)9-4(2)7/h7H,6H2,1H3
