18
gdb 30194	4.73808	1.12421	0.94617	2.7827	80.99	-0.1788	0.0359	0.2146	1247.9259	0.149488	-398.138312	-398.130063	-398.129118	-398.171011	31.54	
C	-0.6536539654	 1.4900612459	-0.3438877629	-0.398698
C	 0.0498523574	 0.1869665246	-0.0184846461	 0.060115
C	 0.8596299103	-0.5493600753	-1.158295225	-0.384719
C	 2.0256495077	-0.4255953292	-0.1998467794	 0.344809
N	 3.1530740997	-0.9291141427	 0.2451380597	-0.402417
C	 3.1965178761	-0.4606464316	 1.551564055	 0.292808
N	 4.2943888636	-0.7806046829	 2.3517239424	-0.591398
C	 2.0618916775	 0.2609813561	 1.8934756497	-0.265905
N	 1.3534019761	 0.3233187828	 0.699178297	 0.004788
H	 0.0216245923	 2.1758798966	-0.8640131632	 0.129328
H	-1.5200582829	 1.3001289635	-0.9859988354	 0.125213
H	-1.0101015108	 1.9822194836	 0.5666205705	 0.127595
H	-0.6168578674	-0.5048286561	 0.5068291103	 0.103894
H	 0.5253590909	-1.5693245468	-1.3618134751	 0.131022
H	 0.9356860818	 0.0015833276	-2.0998257666	 0.121613
H	 5.0914737983	-1.0375311897	 1.7848862469	 0.249824
H	 4.5441025467	-0.0592864649	 3.0138825946	 0.241084
H	 1.7999799778	 0.8050695584	 2.7843593377	 0.111046
74.5549	178.8676	216.7837	224.7873	258.1869	299.79	360.1687	405.8441	525.0918	598.9501	637.4865	659.4354	693.9618	732.5284	760.4392	822.6698	878.0285	913.9259	990.305	1028.0195	1055.965	1086.8103	1099.333	1118.1247	1174.1162	1190.3328	1228.8332	1240.7164	1318.1003	1360.0462	1400.3567	1411.2996	1440.1642	1481.2402	1487.1033	1495.4664	1557.3084	1603.6553	1641.0995	3036.0022	3053.987	3061.421	3106.9375	3114.0225	3118.0018	3277.6018	3551.1626	3648.7813
CC1CC2=NC(N)=CN12	C[C@H]1Cc2nc(N)cn12	
InChI=1S/C6H9N3/c1-4-2-6-8-5(7)3-9(4)6/h3-4H,2,7H2,1H3	InChI=1S/C6H9N3/c1-4-2-6-8-5(7)3-9(4)6/h3-4H,2,7H2,1H3/t4-/m0/s1
