17
gdb 60752	4.6077	0.84914	0.72709	4.2978	77.78	-0.2511	-0.0181	0.233	1484.704	0.133897	-417.999902	-417.990164	-417.98922	-418.035401	34.401	
C	 0.0900390782	 1.448795306	-0.0364225564	-0.35439
N	 0.0068229846	-0.0083428199	-0.0049868019	-0.132468
C	-0.1206623638	-0.6206368204	 1.2403232495	 0.170401
O	-0.1510746982	-0.0124896987	 2.2852804196	-0.326221
C	 0.0734763411	-0.7984778459	-1.1683511555	 0.380987
N	 0.2462051396	-2.0527064024	-1.0791689404	-0.495703
C	-0.1001986932	-0.0119490536	-2.4743798765	-0.486229
C	-0.0621783895	-0.8533737753	-3.6596507282	 0.274576
C	-0.0298011217	-1.5590716737	-4.6313082154	-0.383867
H	 1.0320562168	 1.7860545049	-0.4796841759	 0.135246
H	-0.7439689514	 1.8938768913	-0.5870713657	 0.132108
H	 0.0468216782	 1.7831076443	 0.9994852022	 0.176593
H	-0.1971028146	-1.7106423906	 1.1513535766	 0.142921
H	 0.2257298605	-2.4784931086	-2.0046473063	 0.236567
H	-1.0513269786	 0.5346112031	-2.4360733658	 0.161487
H	 0.6792485219	 0.7569007677	-2.5437115841	 0.159593
H	-0.0019758098	-2.1714546583	-5.4989482157	 0.2084
34.835	69.7733	131.4598	162.2097	195.8413	258.6061	311.8292	335.9924	348.8952	402.219	436.979	539.1217	549.4398	629.7312	670.2077	736.0053	845.1495	856.6308	938.1817	974.0345	1010.0809	1054.3026	1076.3681	1153.7269	1231.9981	1237.1423	1284.6637	1322.9142	1403.5452	1419.21	1451.9292	1452.9451	1508.4161	1512.0088	1718.8474	1797.2375	2245.6291	3026.5258	3040.5143	3058.5973	3082.1382	3099.0305	3161.617	3494.464	3502.886
CN(C=O)C(=N)CC#C	CN(C=O)C(=N)CC#C	
InChI=1S/C6H8N2O/c1-3-4-6(7)8(2)5-9/h1,5,7H,4H2,2H3	InChI=1S/C6H8N2O/c1-3-4-6(7)8(2)5-9/h1,5,7H,4H2,2H3
