14
gdb 124283	2.8418	1.57626	1.02025	3.1201	66.32	-0.2516	-0.0631	0.1885	1080.167	0.102027	-470.039374	-470.031561	-470.030617	-470.072277	28.134	
C	-0.0262216719	 1.4690440273	 0.0646015105	-0.483073
C	 0.0167510462	-0.035881716	 0.0057645747	 0.338673
O	 0.0504494446	-0.7350262471	 1.0162460647	-0.364687
C	 0.0200842957	-0.7047785924	-1.2877552977	 0.094464
N	-0.0121092753	-0.139306239	-2.5058754022	-0.276784
N	 0.0083617389	-1.1743517705	-3.3099529217	-0.072605
N	 0.051566356	-2.3979399801	-2.7567780236	-0.283299
C	 0.059635491	-2.1148597754	-1.4590793505	 0.367328
O	 0.0989521955	-3.0384016712	-0.5083083575	-0.399291
H	 0.8355365249	 1.8904003644	-0.4632484333	 0.155502
H	-0.9195252982	 1.8402329768	-0.4481228352	 0.155427
H	-0.0262205457	 1.7946384335	 1.1049712647	 0.145084
H	-0.007622584	-1.0646713409	-4.3115601793	 0.303014
H	 0.0946035624	-2.5360788495	 0.3329721464	 0.320247
72.2508	116.2704	185.113	187.1952	320.2073	353.2473	463.1711	530.2986	540.879	592.9123	648.4015	696.1021	728.3511	762.3173	786.5143	959.7349	982.6319	1048.122	1114.564	1181.052	1232.3334	1286.2365	1348.8503	1387.0622	1448.027	1461.4511	1467.8521	1474.7456	1555.4618	1611.4152	1728.767	3047.3698	3109.524	3160.7981	3532.3754	3663.1599
CC(=O)C1=NNN=C1O	CC(=O)c1n[nH]nc1O	
InChI=1S/C4H5N3O2/c1-2(8)3-4(9)6-7-5-3/h1H3,(H2,5,6,7,9)	InChI=1S/C4H5N3O2/c1-2(8)3-4(9)6-7-5-3/h1H3,(H2,5,6,7,9)
