27
gdb 121912	3.74381	0.59374	0.56892	1.4323	93.28	-0.2591	0.0685	0.3276	2156.992	0.249398	-390.709261	-390.69708	-390.696136	-390.74714	44.095	
C	-0.0049066341	 1.6389600315	 0.0809577481	-0.378731
C	 0.0067404716	 0.1094139627	 0.0103120247	-0.166796
C	-1.3977045436	-0.5023578623	 0.021071306	-0.156199
C	-1.3994709825	-2.0341824493	-0.0316967778	-0.220124
C	-2.8106850467	-2.6330242068	-0.0998079936	 0.133684
O	-3.4963431906	-2.2100310311	-1.2805947744	-0.438456
C	-2.8536406431	-4.1700536295	 0.0695021301	 0.033433
C	-4.3042461613	-4.6481721268	 0.2174315358	-0.393047
C	-2.1495289796	-4.9192763235	-1.07241923	-0.406395
H	 1.0096664372	 2.0494616711	 0.0644948915	 0.109064
H	-0.5528521802	 2.0691286525	-0.7647827459	 0.114087
H	-0.4906649848	 1.9886945014	 0.9987942483	 0.113245
H	 0.5350362093	-0.2110309155	-0.8978769998	 0.09053
H	 0.5861779492	-0.2921641998	 0.8526345663	 0.091378
H	-1.9298809139	-0.1735062357	 0.9248480768	 0.089849
H	-1.9779117069	-0.1182690103	-0.8263095642	 0.105275
H	-0.8203510821	-2.3691471197	-0.9047585125	 0.084668
H	-0.8815792369	-2.4381756451	 0.8485129634	 0.092083
H	-3.4031011722	-2.1994740103	 0.7171136735	 0.078896
H	-2.9624277145	-2.4749949295	-2.0373091969	 0.277942
H	-2.318287336	-4.3949686205	 1.0027140688	 0.068617
H	-4.8867401579	-4.3724251852	-0.6666787032	 0.127217
H	-4.3533196938	-5.7351542603	 0.338125941	 0.103264
H	-4.7858681377	-4.1910355883	 1.0884727807	 0.107331
H	-2.6409475187	-4.7270282998	-2.0338529607	 0.108467
H	-1.0950550512	-4.6425671835	-1.1665835202	 0.11428
H	-2.1916522288	-5.9999563363	-0.9052876957	 0.116439
58.2722	65.7545	83.897	112.555	145.0076	214.8711	227.0278	235.3125	242.1642	280.7792	286.1894	294.8671	331.9767	391.4988	453.508	537.8571	608.5823	737.5018	789.6516	803.4365	891.936	906.7557	923.3249	946.8869	964.2875	1004.0045	1017.8417	1041.4261	1066.0814	1097.3536	1115.3544	1118.8626	1171.474	1201.8081	1230.801	1264.3185	1285.7645	1319.3681	1325.0165	1330.8368	1361.1079	1367.915	1387.7665	1395.8221	1399.5834	1412.4593	1414.8013	1426.9245	1479.3321	1486.8041	1488.7854	1494.9538	1498.6586	1500.1649	1508.1344	1513.409	1514.0495	2998.2399	3006.1187	3007.6829	3015.2005	3021.081	3027.5656	3028.7925	3033.8746	3036.1865	3042.6521	3071.234	3091.6901	3095.4583	3097.414	3100.235	3105.5028	3113.9492	3805.3624
CCCCC(O)C(C)C	CCCC[C@@H](O)C(C)C	
InChI=1S/C8H18O/c1-4-5-6-8(9)7(2)3/h7-9H,4-6H2,1-3H3	InChI=1S/C8H18O/c1-4-5-6-8(9)7(2)3/h7-9H,4-6H2,1-3H3/t8-/m1/s1
