19
gdb 98763	3.32901	1.20604	1.00194	2.2334	75.82	-0.2371	0.0271	0.2641	1227.3826	0.159865	-419.190207	-419.181281	-419.180337	-419.224689	32.384	
C	 0.8664097767	 1.4159245255	-0.1418864689	-0.332953
N	 0.7962125629	-0.001092917	-0.4345753886	-0.303103
C	-0.3235625299	-0.5991179	-0.9237702938	 0.375586
O	-1.3661572476	-0.016564627	-1.1697269825	-0.382372
C	-0.1831376794	-2.1052388633	-1.105084839	-0.059535
C	-0.8666287579	-2.779917149	-2.3183323086	-0.263964
C	 0.5312099287	-3.2629633122	-2.7049699531	-0.013099
C	 1.4518502196	-2.1250363625	-2.8537762113	-0.240385
N	 1.1865486521	-2.6266105392	-1.4841366232	-0.168651
H	 1.6423183945	 1.9096383684	-0.7377410257	 0.12465
H	-0.1036771605	 1.8477161309	-0.3919278708	 0.169223
H	 1.0745354084	 1.5955600594	 0.9188637255	 0.126541
H	 1.6097611705	-0.5815890434	-0.2998406969	 0.262281
H	-0.4732737456	-2.5780060341	-0.1617082732	 0.114456
H	-1.549225905	-3.5793806446	-2.0288013461	 0.114176
H	-1.3695985425	-2.1195299213	-3.0278506596	 0.125806
H	 0.789122763	-4.269479001	-3.0166522023	 0.101112
H	 2.4680814851	-2.3308558977	-3.1747950117	 0.122834
H	 1.0683051971	-1.151820662	-3.1528147902	 0.127397
54.4241	88.0417	103.3065	152.3989	187.5559	301.4924	344.7913	398.6719	503.5177	528.686	593.1258	735.2035	760.5445	762.6837	794.3652	843.3045	929.3508	969.3666	1000.2888	1010.8746	1053.3361	1083.9864	1105.849	1115.184	1129.1285	1151.498	1158.9344	1176.8277	1225.3354	1248.9408	1261.0201	1272.6163	1349.4408	1365.9225	1439.5746	1491.138	1495.8	1499.5274	1507.3459	1568.2066	1777.1653	3026.7675	3061.1295	3078.0242	3080.1899	3106.6459	3134.6765	3150.2185	3169.6394	3201.0161	3625.3777
CNC(=O)C1CC2CN12	CNC(=O)[C@H]1C[C@H]2CN12	
InChI=1S/C6H10N2O/c1-7-6(9)5-2-4-3-8(4)5/h4-5H,2-3H2,1H3,(H,7,9)	InChI=1S/C6H10N2O/c1-7-6(9)5-2-4-3-8(4)5/h4-5H,2-3H2,1H3,(H,7,9)/t4-,5+,8?/m0/s1
