15
gdb 32358	5.03357	1.06812	0.88613	4.9617	74.01	-0.2176	-0.0671	0.1505	1248.2332	0.113115	-453.949955	-453.94208	-453.941136	-453.98302	28.791	
C	-0.0569583252	 1.3908716707	 0.0914051252	-0.254722
O	 0.0060601998	-0.0216163835	 0.0000275513	-0.256964
C	 0.6276154945	-0.5309600707	-1.0927034664	 0.233398
C	 1.1969985135	 0.1441546129	-2.1129685359	-0.037537
O	 1.7848994983	-0.4979845456	-3.1437957344	-0.197422
C	 1.8261057595	-1.8895413852	-3.1906752257	 0.436433
N	 2.4044895772	-2.384671977	-4.2019498467	-0.526
N	 1.2426146005	-2.6096420066	-2.1477381908	-0.299869
C	 0.688327461	-1.9690280017	-1.1772546641	-0.01591
H	 0.9483754213	 1.8320462978	 0.1226090845	 0.129842
H	-0.6101194344	 1.8193769401	-0.7551852241	 0.12984
H	-0.5817603125	 1.6174493433	 1.0198025159	 0.147491
H	 1.2485243153	 1.2184933442	-2.2228936535	 0.140619
H	 2.3688987623	-3.3990434173	-4.1210252695	 0.234575
H	 0.236229919	-2.5440880012	-0.368622376	 0.136225
52.4116	100.0456	217.3457	239.1524	349.373	364.367	391.8365	474.8834	518.0176	539.2442	641.6555	753.3893	762.5405	829.2449	856.1554	871.6872	968.67	995.1122	1028.373	1068.9711	1179.1185	1196.8549	1230.2849	1281.4665	1311.1683	1373.433	1433.6801	1484.8581	1487.197	1506.0931	1603.2014	1713.2099	1730.3084	3000.4039	3058.7699	3133.9952	3146.5194	3234.1211	3524.5918
COC1=COC(=N)N=C1	COC1=CN=C(OC1)[NH]	
InChI=1S/C5H6N2O2/c1-8-4-2-7-5(6)9-3-4/h2-3,6H,1H3	InChI=1S/C5H7N2O2/c1-8-4-2-7-5(6)9-3-4/h2,6H,3H2,1H3
