17
gdb 124478	3.25539	1.25638	1.12133	1.8918	68.89	-0.276	-0.0312	0.2448	1127.7673	0.13473	-455.151851	-455.143143	-455.142199	-455.185383	32.217	
C	-0.1196145211	 1.5891937969	 0.0454093493	-0.400489
C	 0.0242747791	 0.0686373266	 0.0330821757	 0.23865
C	 0.8181130182	-0.4341477534	 1.2533568121	-0.418001
O	-1.2951101962	-0.4671190821	 0.0482814046	-0.456731
C	 0.7096116903	-0.4178727801	-1.2268437841	 0.376419
N	 1.4661114443	 0.3081078502	-2.001809475	-0.191889
O	 1.8673010096	-0.591408683	-3.0065826947	-0.15539
C	 1.2930877104	-1.7540867	-2.7080986812	 0.106971
N	 0.5720471856	-1.733950737	-1.6347439942	-0.328885
H	 0.857705588	 2.0752084754	 0.0118871129	 0.133302
H	-0.7052835285	 1.9217304439	-0.8141733711	 0.132349
H	-0.6382433824	 1.8909530725	 0.9589786222	 0.123049
H	 0.2836522914	-0.1550070469	 2.165278604	 0.128036
H	 0.9152160592	-1.5238030838	 1.2258986635	 0.123619
H	 1.822120325	 0.0001259593	 1.2810785963	 0.124988
H	-1.2246994051	-1.4083423267	-0.154589526	 0.292687
H	 1.4789374021	-2.5823494617	-3.3762976244	 0.171314
50.5595	151.3558	189.8972	208.169	262.7996	323.2917	337.443	350.9494	397.3681	459.8195	505.6292	612.6007	630.1313	787.9561	863.7897	893.514	908.2418	936.4563	973.9043	985.8526	996.5727	1018.029	1140.1056	1153.7316	1196.3317	1213.837	1297.1917	1331.3443	1390.6946	1407.9416	1424.295	1475.3546	1482.2608	1494.5247	1499.3041	1526.7638	1601.7504	3038.8032	3057.0981	3114.2447	3124.143	3134.2952	3142.3852	3266.0067	3782.9576
CC(C)(O)C1=NOC=N1	CC(C)(O)c1nocn1	
InChI=1S/C5H8N2O2/c1-5(2,8)4-6-3-9-7-4/h3,8H,1-2H3	InChI=1S/C5H8N2O2/c1-5(2,8)4-6-3-9-7-4/h3,8H,1-2H3
