18
gdb 33019	4.91011	0.92889	0.78886	0.9393	82.3	-0.2476	-0.0191	0.2285	1438.399	0.149089	-401.997626	-401.989272	-401.988328	-402.031656	30.16	
C	 0.0080994983	 1.4260603946	-0.0348798428	-0.225253
O	-0.0085993431	 0.0198344207	 0.0169526424	-0.234036
C	 0.6262288285	-0.5755179121	-1.0884231939	-0.127545
C	 0.577777189	-2.0811161831	-0.9761209621	 0.275511
N	 1.1586871359	-2.7391516243	-1.9865699403	-0.313662
C	 1.1491082304	-4.0717914401	-1.9457255044	-0.006558
C	 0.5710608706	-4.8092655973	-0.9152466497	-0.122318
C	-0.0294450518	-4.1149196585	 0.1290012229	-0.082629
C	-0.0283795479	-2.7241469497	 0.1021255846	-0.152022
H	 1.036041378	 1.8214732601	-0.0445290506	 0.107544
H	-0.5134720432	 1.8073801152	-0.9268823264	 0.107542
H	-0.5037342047	 1.7924535752	 0.8580607053	 0.128202
H	 0.1444197269	-0.2708523974	-2.0329669392	 0.10916
H	 1.6794987455	-0.2551272582	-1.1598014793	 0.109137
H	 1.6287012721	-4.5782768158	-2.7805931772	 0.104779
H	 0.59410883	-5.8929846669	-0.9363231224	 0.098601
H	-0.4926971589	-4.6471715261	 0.9537580338	 0.105308
H	-0.4814204656	-2.1358117663	 0.8887798494	 0.118238
46.4484	74.1008	152.0651	201.4755	225.273	342.9379	408.0321	416.5522	482.9755	618.9811	644.1255	757.2985	782.3019	839.0468	918.8153	981.2257	1003.2724	1014.2326	1014.5508	1044.4128	1069.9752	1115.4291	1163.5279	1174.1479	1185.7505	1229.7488	1246.8777	1253.6499	1310.875	1316.7383	1405.4151	1464.5026	1479.2321	1484.4936	1495.4221	1507.9661	1520.0302	1616.7049	1633.2389	2956.3879	2973.841	2980.8213	3016.6811	3116.6673	3149.4919	3177.7995	3200.1472	3228.6783
COCC1=NC=CC=C1	COCc1ncccc1	
InChI=1S/C7H9NO/c1-9-6-7-4-2-3-5-8-7/h2-5H,6H2,1H3	InChI=1S/C7H9NO/c1-9-6-7-4-2-3-5-8-7/h2-5H,6H2,1H3
