19
gdb 68262	2.35135	1.50092	1.43839	3.5034	80.43	-0.2515	0.0254	0.2769	1054.1619	0.159013	-382.026787	-382.018128	-382.017184	-382.059539	33.397	
C	 0.0268608661	 1.4840998161	 0.0569144251	-0.520407
C	 0.0390342578	-0.012758459	-0.0316713469	 0.303768
C	 0.6785198661	-0.9399073114	-1.1085412039	-0.299017
C	 0.0944223262	-1.8491770759	-0.0000241217	-0.057543
N	 0.6234120347	-0.9035201617	 1.0629674213	-0.366
C	-1.2134335412	-0.9838628589	 0.0013463458	 0.195537
C	-2.1114868514	-0.9925184632	 1.2379523835	-0.477622
C	-2.0201790399	-1.0211020956	-1.2143158546	 0.214697
N	-2.6963430249	-1.0405972686	-2.1526102578	-0.353882
H	 1.0472358117	 1.8816574294	 0.0503255392	 0.128502
H	-0.5100845468	 1.9124254633	-0.7952018915	 0.142414
H	-0.4619141833	 1.8130305938	 0.9789616129	 0.138244
H	 0.2349611309	-0.9710077916	-2.1067617737	 0.13141
H	 1.7705645914	-0.9080709034	-1.1521462997	 0.095572
H	 0.1550644924	-2.9323520665	 0.1083274138	 0.095875
H	 1.6447672484	-0.8748982886	 0.9921814809	 0.209603
H	-1.4972513841	-0.9700498337	 2.1370957852	 0.155836
H	-2.7791128898	-0.1254730578	 1.2324438855	 0.130762
H	-2.7371553545	-1.8899933469	 1.2486415665	 0.132253
120.928	171.2901	191.7176	197.4492	212.6884	310.4095	330.6001	356.892	507.7256	532.3415	545.7244	603.3799	656.3197	676.0596	745.8762	802.5403	877.5922	907.1751	918.2887	964.8678	1014.8165	1038.3098	1089.9768	1101.8152	1121.4237	1147.2271	1179.9106	1195.9978	1229.9023	1233.3784	1276.5355	1301.5632	1334.2099	1396.7498	1411.8093	1482.2127	1485.0379	1490.9121	1502.2308	1517.8421	2345.9434	3036.6485	3048.54	3055.1693	3106.1939	3109.0575	3116.0391	3117.1117	3123.0662	3163.1833	3395.9583
CC12CC(N1)C2(C)C#N	C[C@@]12C[C@@H](N1)[C@]2(C)C#N	
InChI=1S/C7H10N2/c1-6(4-8)5-3-7(6,2)9-5/h5,9H,3H2,1-2H3	InChI=1S/C7H10N2/c1-6(4-8)5-3-7(6,2)9-5/h5,9H,3H2,1-2H3/t5-,6+,7+/m1/s1
