18
gdb 43394	2.55932	1.75361	1.16489	2.8825	79.44	-0.2447	-0.0568	0.188	1058.6967	0.149955	-401.963906	-401.956274	-401.95533	-401.996161	29.792	
O	 0.0265142008	 0.0496451464	-0.3729491018	-0.352286
C	 0.0172292479	 1.216528532	-0.01679695	 0.319441
C	-1.2409567374	 1.9265569617	 0.2795009529	-0.14005
C	-1.3012024924	 3.2633492322	 0.3536347079	-0.05526
C	-0.0898406284	 4.1467838447	 0.2469558704	-0.275157
C	 1.1837837362	 3.4062744111	 0.6747976441	-0.301501
C	 1.2869086237	 2.0302810296	 0.0469760966	 0.232075
C	 2.5560173327	 1.2558613338	 0.1189830285	-0.271046
N	 2.1729095157	 1.8948279288	-1.1404125364	-0.347373
H	-2.1299521521	 1.3057516387	 0.3245622681	 0.110351
H	-2.268156392	 3.749027699	 0.4671930248	 0.111241
H	 0.0006323052	 4.4982211281	-0.7914251383	 0.13594
H	-0.2296286394	 5.0479846704	 0.8538710932	 0.113366
H	 2.0755647021	 3.984576321	 0.4185552097	 0.116502
H	 1.167727059	 3.2911472225	 1.766209345	 0.108659
H	 3.4074169229	 1.7059166789	 0.6229655818	 0.116471
H	 2.467834501	 0.1768644836	 0.1960832508	 0.136223
H	 1.7732800847	 1.1792865577	-1.7473490573	 0.242403
66.1031	159.3276	263.8607	300.5757	334.7918	367.0993	403.5592	485.3339	545.2191	649.385	676.1082	723.4518	809.0936	829.398	878.5837	889.5823	942.3593	958.9577	1004.0061	1020.1598	1028.9597	1063.057	1114.2049	1130.5208	1149.8139	1192.8983	1220.4358	1247.7386	1292.4421	1334.2419	1358.4237	1362.2846	1408.2413	1411.7484	1468.1312	1479.7929	1489.7778	1677.2544	1751.0177	3008.8016	3028.4886	3064.3622	3095.1314	3111.6989	3151.4692	3191.9515	3210.2244	3472.355
O=C1C=CCCC11CN1	O=C1C=CCC[C@]21CN2	
InChI=1S/C7H9NO/c9-6-3-1-2-4-7(6)5-8-7/h1,3,8H,2,4-5H2	InChI=1S/C7H9NO/c9-6-3-1-2-4-7(6)5-8-7/h1,3,8H,2,4-5H2/t7-/m1/s1
