14
gdb 11659	3.10819	2.04679	1.5446	1.0771	58.84	-0.2535	-0.0458	0.2076	821.6288	0.104959	-419.603376	-419.595997	-419.595052	-419.63607	26.58	
O	-0.0333252639	 1.5155052894	 0.1295075749	-0.418975
C	-0.0759160636	 0.1311536799	 0.0142490436	 0.101977
C	-0.0485451558	-0.6890638525	 1.3232670867	 0.019685
C	-1.4808657726	-0.2144026748	 1.6612708309	-0.257954
C	-1.4304809313	-0.6587514233	 0.1708907548	 0.273529
O	-0.6200959378	-1.8265904091	 0.5604355209	-0.337305
C	-2.5302814676	-0.8393013851	-0.8174659391	 0.023021
O	-3.1144613322	 0.0894847735	-1.3191060293	-0.255833
H	-0.3290120537	 1.9008998595	-0.7022917996	 0.30305
H	 0.5588637123	-0.2772236579	-0.7797848581	 0.094389
H	 0.7888427494	-0.905479508	 1.9851834778	 0.106839
H	-2.0487483113	-0.8780862349	 2.3134691308	 0.115295
H	-1.632298277	 0.8456207752	 1.8592182471	 0.131655
H	-2.7632654049	-1.8973915321	-1.0675991012	 0.100627
28.0699	119.6749	230.2334	281.7391	320.0658	378.4797	454.0704	558.0019	594.2709	697.9158	779.5928	819.621	903.9918	917.5032	938.9175	996.1679	1026.6186	1061.4012	1112.5393	1140.6629	1172.5644	1201.661	1225.6589	1242.5675	1284.387	1298.8655	1405.4573	1409.9858	1478.0364	1812.604	2898.5982	3059.0075	3093.9465	3134.1303	3179.1346	3815.5523
OC1C2CC1(O2)C=O	O[C@H]1[C@H]2C[C@@]1(O2)C=O	
InChI=1S/C5H6O3/c6-2-5-1-3(8-5)4(5)7/h2-4,7H,1H2	InChI=1S/C5H6O3/c6-2-5-1-3(8-5)4(5)7/h2-4,7H,1H2/t3-,4+,5-/m1/s1
