20
gdb 109843	3.16932	0.85778	0.82149	3.2021	76.52	-0.2284	-0.0266	0.2018	1470.9392	0.168043	-440.244861	-440.234503	-440.233559	-440.281321	36.171	
C	-0.5997369801	 1.0412251326	-1.6220084205	-0.321354
N	-0.1416746302	-0.142162183	-0.902162116	-0.090914
C	 1.2647210355	-0.2856819266	-0.5329259155	-0.055308
C	 2.3217279806	 0.7439132365	-0.8700518488	-0.078764
O	 2.6532184255	 0.7349208417	-2.2525295274	-0.416164
C	 0.2124030915	-0.0834677555	 0.5145720739	-0.03135
C	 0.1084633476	 1.1749961904	 1.3635970717	-0.317985
C	-1.3125463246	 1.4048796832	 1.8437622586	 0.170968
O	-1.8935369975	 2.4564197641	 1.783738944	-0.236269
H	-0.1954909367	 2.0010867314	-1.2741502957	 0.109524
H	-0.3265186276	 0.9286499579	-2.674214222	 0.138361
H	-1.6902497975	 1.0921460362	-1.5483950452	 0.128604
H	 1.6326337572	-1.3068588673	-0.6664212794	 0.082778
H	 1.9895504641	 1.762055222	-0.660143086	 0.111297
H	 3.2098346246	 0.558637553	-0.244357471	 0.093846
H	 2.930497529	-0.1577523883	-2.4844475665	 0.283779
H	-0.1073972672	-0.9714336419	 1.0628133342	 0.093665
H	 0.7299076186	 1.0296854278	 2.2601159205	 0.129649
H	 0.4527682545	 2.0828904639	 0.8680551879	 0.128537
H	-1.8013083571	 0.5012709418	 2.2780320131	 0.077099
49.0849	65.2408	87.7457	118.1566	149.5163	220.6736	268.9302	281.5984	294.2929	331.9608	453.1996	519.8004	548.1363	574.709	727.3577	747.4853	810.6968	883.9817	997.4998	1020.4496	1048.2762	1059.9607	1082.1156	1121.7607	1135.4805	1154.6315	1167.3993	1183.7393	1219.8154	1232.6018	1282.3784	1349.9805	1361.9299	1399.0403	1415.9667	1428.6721	1444.5403	1456.5605	1467.0264	1488.108	1502.8864	1514.4214	1837.9411	2859.2542	2975.7599	3008.3261	3012.1007	3056.3867	3079.9324	3082.0882	3114.4717	3120.1218	3139.3424	3808.9836
CN1C(CO)C1CC=O	CN1[C@@H](CO)[C@H]1CC=O	
InChI=1S/C6H11NO2/c1-7-5(2-3-8)6(7)4-9/h3,5-6,9H,2,4H2,1H3	InChI=1S/C6H11NO2/c1-7-5(2-3-8)6(7)4-9/h3,5-6,9H,2,4H2,1H3/t5-,6+,7?/m1/s1
