18
gdb 124821	4.35669	0.90641	0.7867	4.4273	73.81	-0.2494	-0.0023	0.2471	1432.4256	0.147197	-439.081322	-439.072518	-439.071574	-439.115561	32.201	
C	-0.0691231336	 1.5582569645	 0.0909818485	-0.401588
C	-0.1234001954	 0.0344561633	-0.0131643057	 0.134984
O	-1.4346128357	-0.4097203177	-0.3592392703	-0.427884
C	 0.8107899541	-0.503498076	-1.1058827397	-0.331223
C	 0.9019400146	-1.998490856	-1.1413721628	 0.157136
C	 1.9988483879	-2.7893787852	-1.0017196188	-0.018273
O	 1.6761525726	-4.0880358795	-1.0954961004	-0.166759
N	 0.3029454872	-4.1917061198	-1.307380759	-0.138022
C	-0.1375052528	-2.9598103525	-1.3322719156	-0.033046
H	 0.93180912	 1.9012191562	 0.3728873705	 0.117044
H	-0.3411645027	 2.0169129903	-0.864954569	 0.126979
H	-0.769809181	 1.9190043088	 0.8521951054	 0.108062
H	 0.1799503052	-0.4076654684	 0.9492884936	 0.073894
H	-2.0321500253	-0.1729458123	 0.3566787086	 0.285403
H	 0.444781047	-0.1207964253	-2.0673074455	 0.121661
H	 1.8094622219	-0.0811176458	-0.9548350331	 0.104672
H	 3.0445325054	-2.5758692966	-0.8390019655	 0.143573
H	-1.1902952094	-2.7696529279	-1.4753932612	 0.143387
50.5793	89.2859	125.7171	237.9476	273.935	292.2082	308.3173	332.3079	461.3777	463.7655	617.7526	660.0767	736.2462	837.4946	852.5537	893.2493	899.2081	926.0319	937.0557	947.0426	1027.0932	1060.2939	1114.567	1119.0171	1152.9278	1192.9003	1206.6803	1275.7918	1304.7704	1332.077	1386.2638	1402.0089	1407.5428	1420.9415	1466.4108	1481.0514	1493.0558	1497.3087	1652.8139	2974.7519	3027.2445	3031.2011	3081.3093	3097.5635	3112.7826	3257.8107	3268.6479	3824.8204
CC(O)CC1=CON=C1	C[C@@H](O)Cc1conc1	
InChI=1S/C6H9NO2/c1-5(8)2-6-3-7-9-4-6/h3-5,8H,2H2,1H3	InChI=1S/C6H9NO2/c1-5(8)2-6-3-7-9-4-6/h3-5,8H,2H2,1H3/t5-/m1/s1
