17
gdb 111034	2.64931	1.23893	0.98851	4.1398	74.2	-0.2602	0.0059	0.266	1203.5384	0.136817	-417.93476	-417.926483	-417.925539	-417.968255	30.719	
O	-0.1267491267	 1.4783248295	-0.1657933858	-0.4177
C	 0.0677987327	 0.0930163995	 0.0823626609	-0.141061
C	-1.3045579844	-0.5495907	 0.0034022073	 0.011779
C	-2.0423556204	-0.8440599903	-1.3396253024	-0.047882
C	-1.081647234	-2.0299131915	-1.6091269996	-0.242398
C	-1.5176322593	-2.095543128	-0.1162478528	 0.212489
N	-2.9336567386	-1.8567861525	-0.6249026541	-0.339964
C	-1.2023167092	-3.1073514373	 0.865021245	 0.158822
N	-0.9263044062	-3.8972445883	 1.6628000754	-0.345903
H	 0.7125473633	 1.9296956942	-0.0361184236	 0.293532
H	 0.7699617228	-0.3455086273	-0.6400688513	 0.09531
H	 0.4825709444	-0.0834450361	 1.0874048417	 0.10573
H	-1.9579761281	-0.0913056068	 0.7539981519	 0.090187
H	-2.4509556103	-0.132629006	-2.0540806154	 0.105661
H	-1.4908419995	-2.8255857865	-2.2299121575	 0.129878
H	-0.0365792034	-1.8164541977	-1.8226767543	 0.114664
H	-3.4673560632	-1.3763402351	 0.1080155046	 0.216854
56.1356	111.4335	173.3105	214.0705	247.1877	330.8027	378.9991	513.5847	526.9953	553.8499	593.322	644.403	763.6039	805.9236	892.0164	922.0183	938.7893	970.8093	1018.2428	1060.2088	1084.0779	1093.0517	1121.5226	1144.0202	1176.025	1204.2705	1214.6917	1249.021	1258.6768	1265.7796	1284.8501	1298.8174	1398.5654	1470.6686	1498.5748	1526.1345	2353.8732	2979.4141	3016.0888	3056.5281	3106.8389	3145.9411	3183.7464	3378.7261	3829.9097
OCC1C2CC1(N2)C#N	OC[C@H]1[C@H]2C[C@@]1(N2)C#N	
InChI=1S/C6H8N2O/c7-3-6-1-5(8-6)4(6)2-9/h4-5,8-9H,1-2H2	InChI=1S/C6H8N2O/c7-3-6-1-5(8-6)4(6)2-9/h4-5,8-9H,1-2H2/t4-,5+,6+/m0/s1
