19
gdb 52311	3.94742	0.86324	0.77154	4.3082	78.2	-0.251	0.0037	0.2547	1479.9884	0.159519	-423.060188	-423.051342	-423.050397	-423.095545	31.42	
O	 0.1587011436	 0.253725863	 0.7245706254	-0.277267
C	 0.3030950314	 1.43851958	 0.6855487967	 0.170669
O	 0.8359613452	 2.0737295842	-0.3741187781	-0.18055
C	 0.9998624453	 3.4960841864	-0.3072840528	-0.092417
C	 2.4871753629	 3.8708896468	-0.3064087933	-0.031901
C	 2.6925802786	 5.4125012073	-0.2271560955	-0.240486
C	 3.1764391839	 5.711892612	 1.2183471843	-0.247846
C	 3.5657106475	 4.3522067933	 1.744327633	-0.055356
C	 3.2096562465	 3.3657044044	 0.923932118	-0.084149
H	 0.0151427077	 2.1319756723	 1.500087127	 0.078143
H	 0.4982746554	 3.9115584164	-1.1871340637	 0.121413
H	 0.5042974272	 3.8885903177	 0.5908532106	 0.109394
H	 2.9199433854	 3.4567377604	-1.22470063	 0.092195
H	 3.4581820648	 5.7142438467	-0.9462854527	 0.11338
H	 1.783723837	 5.9651947038	-0.4851809085	 0.098883
H	 4.0112085405	 6.4218019747	 1.2334520087	 0.110032
H	 2.388721924	 6.1618866319	 1.8381388662	 0.108025
H	 4.064969882	 4.2193702302	 2.6981373547	 0.097923
H	 3.3780719913	 2.3095811087	 1.1005022298	 0.109917
37.1786	56.6424	89.3471	148.2464	210.2069	285.626	352.0018	383.682	511.0211	657.0518	714.9644	742.2364	773.2238	809.5726	861.6616	912.0179	952.6754	978.6845	994.8813	1031.804	1044.1065	1052.7384	1073.6754	1098.3532	1136.0464	1157.3335	1198.557	1244.5851	1272.4241	1296.2076	1316.4755	1327.7058	1354.2138	1385.072	1399.4996	1430.8788	1484.0467	1500.6189	1502.7741	1688.0244	1864.154	2944.5131	3012.97	3015.0812	3034.7689	3050.9557	3057.4052	3081.9064	3098.6324	3183.9532	3210.4746
O=COCC1CCC=C1	O=COC[C@H]1CCC=C1	
InChI=1S/C7H10O2/c8-6-9-5-7-3-1-2-4-7/h1,3,6-7H,2,4-5H2	InChI=1S/C7H10O2/c8-6-9-5-7-3-1-2-4-7/h1,3,6-7H,2,4-5H2/t7-/m1/s1
