19
gdb 97958	4.46044	0.54166	0.53046	3.4926	82.68	-0.2417	0.0398	0.2815	2147.8456	0.158509	-419.225067	-419.214405	-419.213461	-419.263258	37.012	
C	 0.3455993042	 1.400181936	 0.1242400997	-0.363968
C	 0.2996768248	-0.1317950016	-0.0261267587	-0.31244
C	 0.6240784129	-0.5782782058	-1.3772978911	 0.054581
C	 0.9091667017	-0.9119364658	-2.4993281813	 0.051974
C	 1.2275429031	-1.350669574	-3.8570797115	-0.288343
N	 1.4054590248	-2.7968131932	-3.9663817675	-0.332937
C	 2.6694685124	-3.3119723865	-4.1848479725	 0.452436
N	 2.7475547996	-4.6876407633	-4.003074591	-0.560178
O	 3.6303115094	-2.6351393491	-4.4986178863	-0.383598
H	 1.3417005412	 1.7832587856	-0.1126203893	 0.131899
H	-0.3689649478	 1.8784350199	-0.5510532423	 0.127968
H	 0.0984602567	 1.6894484097	 1.1499580235	 0.11473
H	 0.9983981414	-0.5898190742	 0.6855427659	 0.131028
H	-0.6975129013	-0.4965927208	 0.2522641984	 0.125702
H	 0.4395271119	-1.0228075273	-4.5473322835	 0.12705
H	 2.16786245	-0.9085825777	-4.2006364761	 0.174013
H	 0.7719859831	-3.3553665342	-3.4150349515	 0.241686
H	 1.9200073312	-5.2315085353	-4.1977456282	 0.247398
H	 3.5923735907	-5.0771899723	-4.3933294767	 0.261
20.5597	33.847	62.1483	130.0656	164.4652	207.5356	253.9153	279.1596	380.8351	386.7103	418.4267	495.0175	508.6979	558.8455	564.8434	655.4751	747.5582	777.377	788.1166	911.3637	962.1493	1040.9304	1077.1735	1097.5579	1106.0486	1138.6937	1167.1222	1267.5854	1285.6617	1317.46	1350.189	1387.4112	1408.9676	1477.2145	1478.5939	1494.5063	1506.3954	1528.6396	1628.1952	1805.4638	2365.8617	3018.0644	3019.4795	3045.2899	3046.8743	3088.3066	3118.7997	3125.3591	3573.1195	3618.51	3686.8295
CCC#CCNC(N)=O	CCC#CCNC(=O)N	
InChI=1S/C6H10N2O/c1-2-3-4-5-8-6(7)9/h2,5H2,1H3,(H3,7,8,9)	InChI=1S/C6H10N2O/c1-2-3-4-5-8-6(7)9/h2,5H2,1H3,(H3,7,8,9)
