18
gdb 27894	1.9099	1.9099	0.97209	0.0001	81.34	-0.2555	-0.0327	0.2228	1229.7061	0.14653	-398.216442	-398.206858	-398.205914	-398.252913	32.694	
C	-0.0116692517	 1.4786874537	 0.0201368059	-0.461243
C	 0.0088742955	-0.021923583	 0.0150640742	 0.338124
N	 0.0108454989	-0.6288361154	-1.1822063035	-0.306519
C	 0.0293113673	-1.9607720209	-1.1451158307	 0.338167
C	 0.032632052	-2.7067692953	-2.44733116	-0.461245
N	 0.0453335025	-2.6940785695	-0.0209308302	-0.306532
C	 0.041777981	-1.9958983989	 1.1141156269	 0.338159
C	 0.059006884	-2.7504911318	 2.4112577318	-0.461242
N	 0.0237844849	-0.6556979773	 1.1871940298	-0.306511
H	 0.8586215569	 1.8657546251	-0.5191739417	 0.145475
H	-0.8979122219	 1.8416779759	-0.5098561641	 0.145475
H	-0.0114370351	 1.8575485	 1.0420010945	 0.138665
H	 0.9194975596	-3.3452706588	-2.5095040256	 0.145473
H	-0.837042566	-3.3693032666	-2.5002102706	 0.145474
H	 0.018674951	-2.011331769	-3.2863271229	 0.138664
H	 0.9366450568	-2.462953824	 2.9987562511	 0.145476
H	-0.8198919229	-2.4870175738	 3.008081592	 0.145476
H	 0.0727549669	-3.8247922103	 2.228415223	 0.138664
41.2904	41.8802	43.308	178.0889	178.1105	184.4465	287.0975	287.1127	481.2443	572.5196	572.5493	596.5306	596.5836	615.778	801.694	944.0826	944.1012	1003.1323	1048.1888	1048.2056	1055.5525	1055.9236	1070.374	1070.4024	1210.207	1374.7955	1378.2324	1378.2745	1415.2977	1415.3472	1441.3673	1472.1057	1472.1122	1476.2074	1477.6465	1477.6821	1480.6547	1591.5742	1591.5928	3049.0536	3049.0887	3049.2298	3107.1779	3107.2271	3107.3234	3159.3258	3159.6522	3159.6701
CC1=NC(C)=NC(C)=N1	Cc1nc(C)nc(C)n1	
InChI=1S/C6H9N3/c1-4-7-5(2)9-6(3)8-4/h1-3H3	InChI=1S/C6H9N3/c1-4-7-5(2)9-6(3)8-4/h1-3H3
