20
gdb 32216	2.47934	1.49127	1.01221	1.9125	89.11	-0.2409	-0.0143	0.2266	1227.8127	0.172389	-366.088664	-366.079908	-366.078964	-366.122346	32.875	
C	 0.0770230074	 1.5979833022	-0.0528547387	-0.373061
C	 0.0119083074	 0.0613602594	 0.0060103816	-0.262576
C	 0.6866177414	-0.4865334084	 1.2436916214	 0.24524
N	 2.0154109497	-0.6270372463	 1.1506536939	-0.313088
C	 2.690027208	-1.0775520485	 2.2090322055	-0.015361
C	 2.082474285	-1.4148559905	 3.4119347637	-0.125839
C	 0.7038626431	-1.2675734409	 3.506705303	-0.145437
C	-0.028024676	-0.7949085004	 2.4182630164	 0.237607
C	-1.5257240637	-0.6318520092	 2.5149763048	-0.509513
H	 1.1182408751	 1.9314138993	-0.0258132351	 0.134638
H	-0.381689263	 1.9734105247	-0.9727788986	 0.11216
H	-0.4443378069	 2.0552097687	 0.7950112939	 0.113923
H	-1.0304006703	-0.2673217306	-0.0462841426	 0.094679
H	 0.5312054284	-0.3508308581	-0.8640936372	 0.116972
H	 3.7663590282	-1.1752359329	 2.0854735895	 0.102999
H	 2.6696873653	-1.7811406056	 4.2466280422	 0.09658
H	 0.1878717083	-1.5201914102	 4.4288959909	 0.096024
H	-1.8425592776	 0.3910138788	 2.2854372069	 0.136104
H	-2.0527705111	-1.2927137585	 1.8171237406	 0.136689
H	-1.8763488987	-0.8698150729	 3.522887628	 0.12126
59.7358	119.8647	145.7589	207.3504	224.397	316.1721	330.6009	422.3953	467.8222	518.0553	568.2725	600.9295	723.5032	793.7096	803.7458	815.578	851.5871	962.3586	978.6673	987.8969	1010.758	1044.8379	1058.9505	1083.5222	1100.3736	1150.7575	1193.9839	1260.4002	1266.1368	1298.2364	1323.3945	1355.3254	1402.7774	1416.1681	1459.1676	1481.4455	1483.9787	1487.0552	1496.6137	1504.5969	1509.4027	1608.9994	1631.3509	3030.3034	3034.8988	3053.7547	3084.4712	3090.4959	3106.0729	3111.0462	3120.6843	3149.4276	3165.113	3197.0376
CCC1=NC=CC=C1C	CCc1ncccc1C	
InChI=1S/C8H11N/c1-3-8-7(2)5-4-6-9-8/h4-6H,3H2,1-2H3	InChI=1S/C8H11N/c1-3-8-7(2)5-4-6-9-8/h4-6H,3H2,1-2H3
