14
gdb 125435	3.07378	1.48759	1.01004	7.1083	68.12	-0.2526	-0.0914	0.1612	1095.3108	0.10025	-470.011873	-470.003835	-470.002891	-470.044821	29.688	
C	-0.051902414	 1.4868039541	 0.0221619755	-0.498844
C	-0.0104489412	-0.0121601577	 0.0075781726	 0.313786
N	-0.0101598854	-0.6329837773	-1.11881673	-0.355563
C	 0.0130079033	-2.0310707455	-1.1293777833	 0.469853
O	 0.0202373535	-2.6928572035	-2.1249574323	-0.326273
O	 0.0227795686	-2.6985491043	 0.0882478035	-0.245406
N	 0.058431949	-2.0437480401	 1.3088451896	-0.143674
C	 0.0210353386	-0.7524218321	 1.2723352221	 0.340701
N	-0.0700063808	-0.0705335173	 2.4741139088	-0.56033
H	 0.8635914042	 1.8973512071	 0.4673442726	 0.144294
H	-0.141681125	 1.8573231278	-0.998541926	 0.168625
H	-0.8936441302	 1.8412001648	 0.626503581	 0.160903
H	 0.0597604019	-0.6731900544	 3.2771155976	 0.270048
H	 0.4714464975	 0.7794878085	 2.5378049382	 0.26188
48.6284	167.7267	203.5036	297.07	304.2806	343.7218	370.7094	411.278	487.6187	545.7948	587.0248	649.7679	693.9195	715.8386	799.3528	806.0806	874.8075	982.4923	1026.0413	1049.6682	1112.0667	1208.0231	1247.8189	1397.4471	1436.7502	1467.3213	1476.0559	1600.2918	1640.8448	1703.0175	1860.454	3029.2123	3090.9928	3162.9198	3550.1125	3656.1306
CC1=NC(=O)ON=C1N	Cc1nc(=O)onc1N	
InChI=1S/C4H5N3O2/c1-2-3(5)7-9-4(8)6-2/h1H3,(H2,5,7)	InChI=1S/C4H5N3O2/c1-2-3(5)7-9-4(8)6-2/h1H3,(H2,5,7)
