16
gdb 61753	3.04519	1.00112	0.85592	2.7865	69.03	-0.2573	-0.112	0.1453	1342.5904	0.120324	-475.029283	-475.019463	-475.018519	-475.065088	33.176	
C	-0.119223646	 1.7470308713	-0.3710107742	-0.422267
C	 0.157539604	 0.2631882541	-0.1153749798	 0.009434
O	 1.1276333773	 0.1904145285	 0.913250414	-0.179471
C	 1.7073269259	-1.011575511	 1.1381175772	 0.142167
N	 2.5637716117	-1.1271477849	 2.0540063503	-0.438439
C	-1.1182025216	-0.4843435209	 0.2766948728	 0.27602
O	-1.2961567665	-1.0073345302	 1.3487778013	-0.262228
C	-2.2204752321	-0.6200049694	-0.7857485556	 0.087783
O	-2.1016767982	-0.2566422061	-1.9262173996	-0.215447
H	 0.822219271	 2.244534056	-0.6130328395	 0.148111
H	-0.812368036	 1.8676824131	-1.204481842	 0.151749
H	-0.5358038189	 2.2153316323	 0.5247305598	 0.14471
H	 0.5348879783	-0.1950392974	-1.0420565289	 0.117403
H	 1.3694936135	-1.8000865293	 0.4525464631	 0.085551
H	 2.9146403469	-2.0819052629	 2.0859642408	 0.232664
H	-3.1268664493	-1.1248037333	-0.3912520295	 0.122257
45.5833	82.1945	120.854	132.5573	183.5725	187.8535	210.1138	275.8263	314.1189	431.1615	504.4639	555.1786	591.3645	694.6153	759.0007	818.6985	927.7618	974.4699	1033.3327	1041.6259	1087.4003	1128.4333	1146.1868	1199.4831	1285.208	1309.1382	1360.9947	1367.4764	1403.1617	1429.9333	1491.5791	1498.453	1752.2832	1814.1001	1820.1107	2932.432	2999.2622	3029.2906	3060.1439	3136.3587	3158.1955	3522.2129
CC(OC=N)C(=O)C=O	C[C@@H](O[CH][NH])C(=O)C=O	
InChI=1S/C5H7NO3/c1-4(9-3-6)5(8)2-7/h2-4,6H,1H3	InChI=1S/C5H7NO3/c1-4(9-3-6)5(8)2-7/h2-4,6H,1H3/t4-/m1/s1
