20
gdb 85280	2.45174	1.54593	1.15405	4.0446	79.33	-0.2339	0.0309	0.2648	1134.5037	0.171612	-403.196386	-403.187677	-403.186733	-403.229288	33.839	
C	-0.2036578154	 1.5525803408	 0.0573000926	-0.39689
C	 0.0582991309	 0.0476778769	-0.0083844339	-0.018502
N	 0.9323102703	-0.3302668275	-1.1121954122	-0.334435
C	 1.8596912178	-1.3068469165	-0.81954995	 0.42138
O	 2.5067655127	-1.9356653596	-1.6278831082	-0.387716
C	 1.8973271607	-1.4143385502	 0.6807602264	-0.21154
C	 2.2085620219	-0.1117191848	 1.3970940889	-0.331418
C	 0.7800220341	-0.5405892964	 1.2163910066	 0.346068
C	-0.0634071931	-0.919453107	 2.4088635303	-0.489139
H	 0.7294918238	 2.1095644706	 0.1769267369	 0.125879
H	-0.697059321	 1.9039902882	-0.8549848521	 0.115486
H	-0.8613334244	 1.7886265409	 0.8998316016	 0.121995
H	-0.9119423757	-0.466555787	-0.103622533	 0.07833
H	 0.6955621198	-0.1464173786	-2.0745571159	 0.245751
H	 2.1888093533	-2.3607779735	 1.116950148	 0.105268
H	 2.6233827193	-0.1977381356	 2.3959425461	 0.117112
H	 2.6103986953	 0.708835074	 0.8118991969	 0.124331
H	-0.5400752797	-0.0394286789	 2.8565494122	 0.122893
H	-0.8560878999	-1.6224381784	 2.1289102981	 0.12254
H	 0.5448193392	-1.3928891274	 3.1852359607	 0.122606
111.2854	142.8171	198.5275	234.0135	241.6713	290.3885	330.856	383.5258	476.3313	498.4314	522.6116	560.93	669.6475	700.4607	761.8488	810.1637	870.4032	895.4815	957.3984	963.9433	996.2141	1033.1915	1054.0739	1067.9176	1085.7848	1099.951	1135.8884	1149.6419	1224.8225	1248.7701	1311.0835	1331.3411	1386.0993	1396.3457	1409.6126	1424.3374	1429.0285	1486.2075	1488.7743	1494.2701	1498.3501	1501.6043	1828.9543	2962.3226	3025.1496	3038.4011	3083.9987	3103.5371	3104.8237	3122.1909	3128.5055	3204.1195	3215.6979	3637.1354
CC1NC(=O)C2CC12C	C[C@H]1NC(=O)[C@H]2C[C@@]12C	
InChI=1S/C7H11NO/c1-4-7(2)3-5(7)6(9)8-4/h4-5H,3H2,1-2H3,(H,8,9)	InChI=1S/C7H11NO/c1-4-7(2)3-5(7)6(9)8-4/h4-5H,3H2,1-2H3,(H,8,9)/t4-,5-,7+/m1/s1
