17
gdb 39864	3.1702	1.89269	1.5363	1.4349	70.75	-0.2206	0.0617	0.2823	883.0499	0.1392	-417.907869	-417.901642	-417.900698	-417.938236	26.253	
C	 0.0434230585	 1.4431269833	-0.0157834968	-0.284105
O	 1.1665268783	 0.5350450393	 0.0174057551	-0.315274
C	-0.1503476145	 0.0030161689	-0.010783023	 0.576962
C	-0.6053448087	-0.9270035498	 1.1145337276	-0.134337
N	 0.2394978775	-2.1385430535	 0.8857911462	-0.311705
C	-0.5315316429	-2.2865506503	-0.3579601509	-0.02674
C	-1.7679738516	-1.6601419479	 0.3181503515	-0.003144
N	-2.1255392946	-0.7974159829	-0.8420556278	-0.3384
C	-0.6478947865	-0.8804040301	-1.1440364259	-0.172083
H	-0.1108547843	 2.015430618	 0.8975308504	 0.117872
H	-0.0749462786	 2.0043902761	-0.9410353967	 0.120607
H	-0.6966807274	-0.5465938904	 2.1304201193	 0.078574
H	 1.2278104832	-1.9133848616	 0.7668903587	 0.227687
H	-0.4954016622	-3.2209393643	-0.9184275711	 0.079073
H	-2.5384319562	-2.1916584198	 0.8723697876	 0.087534
H	-2.6209330519	-1.3905156645	-1.5085753322	 0.218652
H	-0.3036866281	-0.6946656505	-2.1593116422	 0.078826
160.0565	273.0348	319.5088	438.9695	463.2443	559.0851	605.976	725.1239	768.373	795.8278	825.911	845.8457	859.5545	895.2054	918.392	950.9514	960.7313	986.0009	1000.7883	1027.6475	1046.8457	1073.2839	1109.1423	1117.1446	1146.8067	1152.5445	1168.5144	1187.9423	1209.1372	1223.8444	1249.1959	1297.9781	1329.464	1339.6534	1351.3365	1461.2837	1547.7008	3088.0295	3114.2791	3134.1082	3146.1751	3149.3911	3174.7374	3451.407	3451.781
C1OC11C2NC3C2NC13	C1O[C@]21[C@@H]1N[C@H]3[C@@H]1N[C@@H]23	
InChI=1S/C6H8N2O/c1-6(9-1)4-2-3(8-4)5(6)7-2/h2-5,7-8H,1H2	InChI=1S/C6H8N2O/c1-6(9-1)4-2-3(8-4)5(6)7-2/h2-5,7-8H,1H2/t2-,3-,4+,5+/m0/s1
