18
gdb 8526	4.47184	1.89717	1.61903	1.3619	71.83	-0.2519	0.0764	0.3284	845.4109	0.153422	-347.729652	-347.722608	-347.721664	-347.760226	28.621	
C	-0.1534047276	 1.5800600408	-0.0440029975	-0.471836
C	-0.0343649338	 0.0638250139	-0.0200341377	 0.426614
O	-1.2878939713	-0.548970707	-0.2738320494	-0.485797
C	 1.1951098935	-0.6046457219	-0.6849529051	-0.109018
C	 2.1135952507	-0.2908070904	 0.5482215373	-0.053891
C	 2.5799830838	-1.7548456204	 0.663267212	-0.272115
C	 1.0964727543	-1.8543602864	 0.2604060708	-0.038211
C	 0.6999551839	-0.619357145	 1.145414058	-0.074288
H	 0.7953285267	 2.0689750229	 0.1931691536	 0.12077
H	-0.4633477136	 1.928776482	-1.0378229882	 0.104169
H	-0.906840889	 1.9134142904	 0.6766968989	 0.124651
H	-1.6512411938	-0.1653176664	-1.0788181157	 0.273745
H	 1.5034560672	-0.6095819109	-1.7330476331	 0.060246
H	 2.6853222079	 0.623432108	 0.7115048201	 0.068308
H	 3.3168448313	-2.0960007704	-0.0714562021	 0.089065
H	 2.8449737969	-2.1102238897	 1.6646104851	 0.090219
H	 0.4827286643	-2.7364577196	 0.0890853644	 0.080953
H	 0.4317664986	-0.6408748398	 2.2032855486	 0.066416
210.8819	221.7512	244.9428	270.3762	328.1472	378.1033	483.114	563.7854	618.9754	746.5285	819.3199	842.145	852.3509	878.624	886.6911	917.6046	952.7947	964.0857	1004.621	1025.5176	1060.5393	1073.7062	1113.3848	1138.7796	1143.707	1152.9474	1161.5127	1171.5401	1203.9046	1213.4268	1243.4582	1278.8523	1308.2004	1394.159	1409.0765	1489.5605	1495.4841	1507.9737	3021.3886	3032.8715	3083.7863	3086.4246	3088.6405	3094.4304	3105.3863	3117.2704	3136.3503	3807.1764
CC1(O)C2C3CC2C13	C[C@@]1(O)[C@H]2[C@@H]3C[C@H]2[C@H]13	
InChI=1S/C7H10O/c1-7(8)5-3-2-4(5)6(3)7/h3-6,8H,2H2,1H3	InChI=1S/C7H10O/c1-7(8)5-3-2-4(5)6(3)7/h3-6,8H,2H2,1H3/t3-,4+,5-,6+,7-
