18
gdb 89294	2.02676	1.78901	1.12511	3.396	73.57	-0.2161	-0.0209	0.1952	1113.3761	0.145386	-439.050273	-439.041487	-439.040542	-439.083659	32.954	
C	 0.0122118977	 1.5168357097	 0.138366151	-0.325575
N	 0.0543303658	 0.0749315892	 0.2259010621	-0.078479
C	-1.2001049821	-0.6812521462	 0.4038845772	-0.233155
C	-0.4574177152	-1.6272034636	 1.3759356732	 0.382198
O	-1.0811330918	-2.0221787701	 2.5570894433	-0.473555
C	 0.5256736223	-2.6449460412	 0.7120292855	-0.42864
C	 1.6705260802	-1.6170006793	 0.9027310976	 0.459531
O	 2.8526464507	-1.6607391621	 0.736961122	-0.30338
C	 0.6829531471	-0.5548785321	 1.4173517974	-0.183449
H	 1.0310500303	 1.9136758912	 0.091719993	 0.134092
H	-0.5042668738	 1.8120157716	-0.7811761075	 0.125547
H	-0.5067052008	 1.9917789355	 0.9915499282	 0.096759
H	-1.9754121177	-0.1170572733	 0.9459681543	 0.096143
H	-1.6256121639	-1.0963842045	-0.5176269736	 0.098447
H	-1.6329199323	-2.7899693193	 2.3713499683	 0.285129
H	 0.6824583837	-3.5380062203	 1.3256000261	 0.131309
H	 0.3202941654	-2.9424551601	-0.3191119979	 0.130015
H	 0.9056622445	 0.091005525	 2.2713294398	 0.087063
85.2216	105.642	209.9882	214.5711	253.3613	309.4854	317.2742	378.9907	395.9112	453.162	518.2745	597.6432	618.9896	722.4939	809.8118	876.2866	910.2758	956.2417	978.2802	1020.1973	1066.2476	1075.786	1103.5327	1139.1733	1159.4225	1169.5906	1186.9892	1217.014	1228.8951	1267.3414	1304.9748	1322.9671	1382.9064	1424.4871	1452.3553	1486.6381	1499.8009	1512.1541	1898.8508	2935.3262	2979.5289	3049.678	3057.1282	3060.8754	3078.5558	3104.7908	3120.0817	3799.7276
CN1CC2(O)CC(=O)C12	CN1C[C@@]2(O)CC(=O)[C@@H]12	
InChI=1S/C6H9NO2/c1-7-3-6(9)2-4(8)5(6)7/h5,9H,2-3H2,1H3	InChI=1S/C6H9NO2/c1-7-3-6(9)2-4(8)5(6)7/h5,9H,2-3H2,1H3/t5-,6+/m1/s1
