20
gdb 104480	2.22403	1.70485	1.19007	2.0441	79.25	-0.2396	-0.0312	0.2084	1110.7804	0.170243	-403.068415	-403.059734	-403.05879	-403.102183	32.722	
C	-0.2242044029	 1.2444123054	 0.3094687841	-0.388012
C	 0.1712491987	-0.2302253682	 0.1444843478	-0.290222
C	 0.6654493717	-0.5620698209	-1.2688043482	 0.297534
C	 2.0265263751	 0.1003374781	-1.4461423297	 0.086852
O	 3.0152650215	-0.2540252366	-0.8554533453	-0.262566
C	 0.4684545161	-1.979673254	-1.8895503237	-0.105736
C	-1.0126649692	-1.5738248548	-2.0413215336	-0.18307
N	-0.2870351002	-0.2813193656	-2.4702555319	-0.187997
C	 0.6270629746	-1.2573860443	-3.2443711835	-0.187705
H	 0.6253631502	 1.9133555933	 0.1361677857	 0.123803
H	-1.0109721637	 1.5182028767	-0.3989857419	 0.138994
H	-0.5895279304	 1.4334412374	 1.3228142348	 0.117521
H	 0.9909621685	-0.4811139291	 0.8271230983	 0.126699
H	-0.6686723288	-0.8688702509	 0.4284434133	 0.101967
H	 2.0434206694	 0.9757024679	-2.1341084956	 0.098732
H	 0.9013082132	-2.9280203808	-1.5557167856	 0.078156
H	-1.5728422803	-2.0313626832	-2.8606578379	 0.106062
H	-1.6428460862	-1.4697746571	-1.1596833172	 0.108725
H	 1.6024517593	-0.8493906339	-3.5196079784	 0.113797
H	 0.1361371334	-1.6954900794	-4.1164061515	 0.106465
64.8295	78.4474	152.6469	199.6282	227.9428	333.1724	362.979	406.8523	482.5352	552.6587	630.2453	706.4863	767.8147	790.1354	790.9254	884.3228	900.1809	910.04	940.8722	996.946	1016.5947	1021.7736	1065.3712	1070.9335	1101.6809	1116.7621	1164.0239	1192.1928	1196.8671	1217.1381	1230.5097	1240.8376	1272.1765	1310.0565	1359.7641	1402.596	1413.1114	1488.5476	1498.0437	1506.0727	1530.2831	1563.6101	1822.0852	2873.0688	3040.49	3051.4148	3052.1652	3063.0559	3075.4445	3088.7387	3110.0286	3121.5242	3122.6667	3148.6174
CCC1(C=O)C2CN1C2	CC[C@@]1(C=O)[C@H]2CN1C2	
InChI=1S/C7H11NO/c1-2-7(5-9)6-3-8(7)4-6/h5-6H,2-4H2,1H3	InChI=1S/C7H11NO/c1-2-7(5-9)6-3-8(7)4-6/h5-6H,2-4H2,1H3/t7-/m1/s1
