19
gdb 66354	2.35509	1.46303	1.34332	1.6988	76.44	-0.2574	0.0357	0.2931	1082.484	0.158703	-422.996874	-422.988259	-422.987315	-423.029564	33.628	
C	 0.0087722233	 1.5091546418	 0.0645677271	-0.424028
C	-0.030879592	-0.0193264007	-0.0129626842	 0.161621
C	 0.701832162	-0.5467668895	-1.2696338274	-0.222317
C	 0.9470390221	-2.0514515414	-1.1438729384	-0.102659
O	 1.6135902337	-2.3384863525	 0.078934328	-0.23381
C	 0.8660986187	-1.8788750008	 1.171148622	 0.008003
O	 0.6725365072	-0.4833149463	 1.1522065143	-0.263712
C	-1.4300703243	-0.4863419452	 0.0060929854	 0.368573
C	-2.5761305577	-0.8500409611	 0.0149606478	-0.520615
H	 1.0493150796	 1.8430199843	 0.0902018807	 0.126457
H	-0.4903882325	 1.9481822672	-0.8031099934	 0.124095
H	-0.4939336869	 1.8511934954	 0.9718293268	 0.135149
H	 0.122914422	-0.3207179415	-2.1703931263	 0.107055
H	 1.6648954973	-0.0302322277	-1.3350526742	 0.111329
H	-0.0080490027	-2.5985280465	-1.1910162088	 0.1037
H	 1.5922229042	-2.417525419	-1.9464301541	 0.112341
H	-0.1111151213	-2.391143626	 1.2052125974	 0.089718
H	 1.4422218957	-2.095974091	 2.072546393	 0.117421
H	-3.5892797283	-1.1692277896	 0.0291736344	 0.20168
122.3623	152.7652	195.797	232.3144	273.6546	306.9201	365.1968	399.7828	437.9767	494.4962	572.0781	585.1303	634.1403	669.8129	683.4037	686.5121	845.3502	882.5874	913.4742	974.8864	1007.2178	1035.8263	1057.9125	1090.1525	1149.445	1167.1688	1207.1187	1230.5777	1272.7587	1277.1124	1330.7433	1365.1724	1398.2745	1403.5476	1443.6931	1463.4003	1479.1416	1493.3579	1496.8083	1513.1471	2225.5481	2958.615	2986.821	3047.4244	3051.9335	3095.0914	3102.6038	3115.9557	3131.4159	3136.7131	3499.0824
CC1(CCOCO1)C#C	C[C@]1(CCOCO1)C#C	
InChI=1S/C7H10O2/c1-3-7(2)4-5-8-6-9-7/h1H,4-6H2,2H3	InChI=1S/C7H10O2/c1-3-7(2)4-5-8-6-9-7/h1H,4-6H2,2H3/t7-/m1/s1
