17
gdb 55216	2.99986	1.21318	1.02027	2.7493	68.07	-0.2473	-0.0375	0.2098	1184.5854	0.133549	-459.001972	-458.993081	-458.992137	-459.036994	31.591	
C	 0.4667302812	 0.2743754904	 0.8840537077	-0.471814
C	-0.1291826982	 0.0739418523	-0.4919149957	 0.352156
O	 0.5075167698	 0.2027687835	-1.5112953162	-0.287372
C	-1.6348693699	-0.2658183682	-0.546700807	-0.009386
C	-2.018705868	-1.095626877	-1.7715916931	-0.361096
C	-2.1376056734	-2.513050431	-1.2109829633	 0.37943
O	-2.2982334859	-3.5317613941	-1.8251401215	-0.292004
C	-2.0059212668	-2.3898347726	 0.3108953207	-0.1915
O	-2.0577667284	-1.0064291528	 0.6084035903	-0.259332
H	 1.4803093253	 0.6650730925	 0.790135773	 0.142858
H	-0.1529315096	 0.9516975833	 1.4805253462	 0.146147
H	 0.4846098877	-0.6770935065	 1.4254582805	 0.152819
H	-2.1627478118	 0.6948218853	-0.5046298551	 0.119439
H	-2.9856252428	-0.7991299293	-2.1891212457	 0.14205
H	-1.2699471684	-1.0417160782	-2.5640110257	 0.168065
H	-2.8198695335	-2.9049745198	 0.8287284164	 0.145071
H	-1.0541838672	-2.849685358	 0.6246511784	 0.124468
37.7181	62.4199	111.655	123.094	243.971	298.7052	401.8342	460.6546	465.962	510.2506	563.9918	634.7878	713.3256	743.5492	787.4105	840.6111	932.0629	960.4958	994.0737	1034.7889	1068.7852	1087.974	1160.2793	1164.9016	1210.5579	1222.2338	1263.1902	1302.4152	1336.958	1349.4327	1385.0927	1445.7856	1453.1502	1469.0303	1480.6224	1813.331	1864.2583	2976.1767	3037.8971	3047.3315	3071.1488	3091.9083	3107.8086	3131.2275	3158.4356
CC(=O)C1CC(=O)CO1	CC(=O)[C@H]1CC(=O)CO1	
InChI=1S/C6H8O3/c1-4(7)6-2-5(8)3-9-6/h6H,2-3H2,1H3	InChI=1S/C6H8O3/c1-4(7)6-2-5(8)3-9-6/h6H,2-3H2,1H3/t6-/m1/s1
