18
gdb 26759	3.51789	1.08126	0.83564	1.8856	94.62	-0.1897	0.004	0.1938	1372.4289	0.146284	-364.837602	-364.827929	-364.826984	-364.872811	35.032	
C	-0.0706494067	 1.4792252973	 0.1469432065	-0.515677
C	-0.0206554464	-0.0023492497	-0.0344073323	 0.214924
C	 0.0029453118	-0.7880509467	-1.178073061	 0.228571
C	-0.0158809715	-0.3174781755	-2.6024550488	-0.509704
C	 0.0590985965	-2.1417274758	-0.7526736018	-0.348959
C	 0.0690538872	-2.162096982	 0.6313961421	 0.181729
N	 0.0206170117	-0.8444736843	 1.0462804827	-0.367611
C	 0.1133062836	-3.2293803948	 1.5472116315	 0.262636
C	 0.1513800359	-4.1323780609	 2.3460406303	-0.460788
H	 0.8431849757	 1.8691022519	 0.6132172777	 0.131525
H	-0.183348864	 1.9792370336	-0.8168773788	 0.139469
H	-0.914762774	 1.7857004607	 0.7771183038	 0.128835
H	 0.9336635744	-0.5224721951	-3.1114730703	 0.127161
H	-0.8018226564	-0.8187289367	-3.1783873981	 0.126807
H	-0.1958924101	 0.7588007407	-2.6739759404	 0.11738
H	 0.0871125437	-3.0163192156	-1.3845662544	 0.097237
H	 0.0094674258	-0.5591102739	 2.0104783672	 0.260337
H	 0.1848791827	-4.9354035032	 3.0392500342	 0.186127
35.565	84.6627	118.6411	138.0605	213.4473	275.6339	291.5768	371.2466	444.1188	476.8718	507.694	527.0897	560.7792	624.8537	654.4457	674.1886	676.8826	765.3107	820.3118	990.727	1002.2411	1024.7044	1053.5116	1064.9294	1164.6609	1175.1532	1246.3351	1323.9795	1398.907	1418.7327	1425.4959	1479.3284	1479.3918	1485.1322	1495.3945	1505.5873	1520.5776	1630.8565	2221.2735	3017.2795	3025.9138	3060.9212	3073.9115	3106.6185	3130.2188	3249.6551	3504.2654	3674.3744
CC1=C(C)C=C(N1)C#C	Cc1c(C)cc([nH]1)C#C	
InChI=1S/C8H9N/c1-4-8-5-6(2)7(3)9-8/h1,5,9H,2-3H3	InChI=1S/C8H9N/c1-4-8-5-6(2)7(3)9-8/h1,5,9H,2-3H3
