21
gdb 88613	3.62248	1.15445	1.06202	1.6191	82.95	-0.2581	0.092	0.3501	1231.2678	0.183054	-387.017192	-387.009003	-387.008059	-387.050432	31.886	
C	 2.6720949386	-0.0226946707	-0.3983097682	-0.424909
C	 1.2397896918	-0.457902355	-0.2231198067	 0.086137
O	 0.9867385688	-1.5688679651	 0.6431878488	-0.254742
C	 0.4747648032	-0.2829856969	 1.0246216705	-0.008506
C	 1.0311574568	 0.3958760843	 2.2554857492	 0.007779
C	 0.3104676619	 0.230262958	 3.6332656488	-0.061966
C	 0.8769027195	-1.2190178645	 3.697216247	-0.220683
C	 2.051237693	-0.3270774212	 3.1944445395	-0.036505
C	 1.6397311045	 0.6975734014	 4.2915756906	-0.227131
H	 3.1880145604	 0.059160936	 0.5600850008	 0.132168
H	 3.2151822944	-0.7413308827	-1.0210110816	 0.128363
H	 2.7128262986	 0.95045715	-0.9001945434	 0.120182
H	 0.6630981189	-0.4970375781	-1.1500953817	 0.08392
H	-0.6104750232	-0.2041925679	 0.9193519679	 0.085464
H	 1.2901301788	 1.4364388984	 2.021963248	 0.0683
H	-0.7002497756	 0.5599972969	 3.8818590781	 0.066285
H	 0.9927091306	-1.6430336488	 4.6985766801	 0.085613
H	 0.478801051	-1.9518237553	 2.9964361108	 0.12205
H	 3.0610011165	-0.6513312927	 2.9405300884	 0.072613
H	 1.9319973514	 1.7396290201	 4.1319215496	 0.085635
H	 1.80251968	 0.3887534438	 5.3273993134	 0.089934
49.9874	136.3543	159.9352	200.1076	270.253	363.0495	415.8423	485.6968	568.1596	654.1712	771.8569	782.3094	816.2955	847.4785	880.7883	887.8791	902.5354	906.5008	960.4825	1009.1125	1014.9801	1027.6371	1029.2208	1072.902	1090.3585	1110.1338	1117.0537	1136.7218	1145.1412	1173.7984	1182.9513	1193.3808	1216.0523	1245.1025	1246.0467	1266.8536	1300.6085	1378.3356	1399.0779	1416.3967	1463.6122	1487.5891	1502.1854	1505.3849	1542.8865	3023.0995	3038.5715	3047.2163	3061.9714	3067.2863	3083.1751	3091.4697	3097.9986	3105.9011	3113.523	3138.5961	3149.2508
CC1OC1C1C2CC1C2	C[C@H]1O[C@H]1[C@H]1[C@H]2C[C@@H]1C2	
InChI=1S/C8H12O/c1-4-8(9-4)7-5-2-6(7)3-5/h4-8H,2-3H2,1H3	InChI=1S/C8H12O/c1-4-8(9-4)7-5-2-6(7)3-5/h4-8H,2-3H2,1H3/t4-,5-,6+,7-,8-/m1/s1
