21
gdb 87857	2.94472	1.3705	1.22418	1.6146	81.62	-0.2512	0.0966	0.3478	1129.3669	0.18327	-387.077373	-387.0692	-387.068256	-387.109928	32.561	
C	-0.246059691	 1.4667602852	 0.4972629421	-0.414721
C	-0.0629418337	-0.0196727973	 0.2928237494	-0.012511
C	 1.1133841723	-0.5672057304	-0.481622065	-0.370445
C	 1.0034214497	-0.8264073702	 0.9994538283	 0.366755
C	 1.955320998	-0.1880925673	 2.0196148936	-0.331876
C	 1.6022572489	-0.8839356712	 3.3204839642	 0.053671
O	 0.1924413176	-0.92694295	 3.5831833688	-0.258894
C	 0.8207714434	-2.0919426069	 3.0297134388	 0.052654
C	 0.6489536044	-2.2229108254	 1.5290825336	-0.323311
H	 0.7097840742	 1.9995695946	 0.51292799	 0.112737
H	-0.8404856891	 1.8970492279	-0.3161448139	 0.114504
H	-0.7629023163	 1.6765383758	 1.4403530741	 0.127297
H	-0.9994336919	-0.555373018	 0.153089812	 0.080134
H	 0.9580113775	-1.3971607374	-1.1643075625	 0.104034
H	 1.8669518594	 0.1414119588	-0.814169926	 0.103896
H	 3.0056883945	-0.3992904105	 1.777145286	 0.100108
H	 1.8488971283	 0.8980258231	 2.0878033683	 0.110013
H	 2.2376918776	-0.7852909597	 4.1971942661	 0.089786
H	 0.8252509213	-2.9693028081	 3.6717605328	 0.08994
H	-0.3595359091	-2.5372985794	 1.2408885858	 0.106665
H	 1.3493158038	-2.9852388235	 1.1601709134	 0.099563
79.7918	163.0377	198.8219	241.1138	320.1847	361.5627	382.1204	421.4781	467.0962	547.8013	673.1482	762.9719	804.7905	817.588	862.4702	871.7427	893.7452	905.7752	925.3824	955.2992	993.2545	1027.5021	1031.6882	1053.2288	1092.9657	1101.7836	1108.0207	1129.9385	1187.172	1188.931	1209.4252	1241.7379	1266.8101	1289.5716	1300.2415	1334.8635	1356.3164	1407.2427	1427.5755	1443.3906	1477.1155	1487.0821	1491.2444	1496.7249	1503.8465	3014.5695	3021.2226	3028.7056	3071.8304	3087.143	3090.8397	3098.1812	3114.2186	3128.5663	3138.9187	3151.7351	3196.8718
CC1CC11CC2OC2C1	C[C@H]1C[C@]21C[C@H]1O[C@H]1C2	
InChI=1S/C8H12O/c1-5-2-8(5)3-6-7(4-8)9-6/h5-7H,2-4H2,1H3	InChI=1S/C8H12O/c1-5-2-8(5)3-6-7(4-8)9-6/h5-7H,2-4H2,1H3/t5-,6-,7+,8+/m0/s1
