19
gdb 81001	2.81015	1.48209	1.21536	1.2558	70.37	-0.2497	0.0718	0.3215	1073.1739	0.159182	-460.14458	-460.136367	-460.135423	-460.176789	32.948	
C	 0.0205935048	 1.480220755	 0.1249197309	-0.499351
C	-0.0150196965	-0.0105852954	-0.0314804742	 0.368366
C	 0.7987385883	-0.7165203287	-1.1288039686	-0.314352
C	 0.623710994	-2.1894285337	-0.6262241757	 0.164587
O	 1.820674671	-2.7859382274	-0.1810646954	-0.443713
C	-0.3301631342	-1.8815616182	 0.5398982278	-0.02614
O	 0.3900415684	-0.7710668704	 1.1859028963	-0.377501
C	-1.3355792533	-0.8432768471	-0.0019513222	 0.142096
O	-2.2939611814	-0.4038195195	 0.9183228226	-0.452155
H	 1.0177810325	 1.8109574377	 0.4317897728	 0.131697
H	-0.223342131	 1.9654399899	-0.8254979669	 0.128543
H	-0.7056641073	 1.8101214177	 0.8727602088	 0.127497
H	 0.3920066855	-0.5439793369	-2.1293753823	 0.105877
H	 1.8529012156	-0.4281079976	-1.1239763018	 0.110585
H	 0.1975447225	-2.8610167492	-1.3752589208	 0.089435
H	 2.1188816804	-2.2449469964	 0.5622816154	 0.282378
H	-0.6075276325	-2.687871352	 1.2190361119	 0.087011
H	-1.848767179	-1.0391577035	-0.9470209496	 0.086352
H	-1.8288316176	-0.2839286743	 1.756918011	 0.288788
139.8627	189.6037	207.0341	243.6924	290.1802	345.0241	417.3774	462.0333	468.8021	499.4616	511.7051	618.9121	660.5731	736.4276	791.9709	853.8067	868.3762	906.2128	915.5367	953.3876	975.0176	1005.8093	1051.5591	1097.2536	1122.5976	1146.9136	1184.1003	1193.74	1220.2779	1224.9733	1273.2212	1291.3318	1306.8221	1318.508	1339.8786	1415.7945	1435.3052	1448.3563	1480.4489	1485.4768	1490.8517	3041.0214	3060.5478	3084.5968	3090.5007	3111.1096	3115.164	3119.4238	3129.2749	3763.2978	3769.5728
CC12CC(O)C(O1)C2O	C[C@@]12C[C@@H](O)[C@@H](O1)[C@H]2O	
InChI=1S/C6H10O3/c1-6-2-3(7)4(9-6)5(6)8/h3-5,7-8H,2H2,1H3	InChI=1S/C6H10O3/c1-6-2-3(7)4(9-6)5(6)8/h3-5,7-8H,2H2,1H3/t3-,4-,5-,6+/m1/s1
