23
gdb 87228	4.09881	0.71384	0.68104	0.9582	92.98	-0.2506	0.0601	0.3107	1754.7218	0.202852	-351.119938	-351.109154	-351.10821	-351.155881	40.001	
C	-0.0539014921	 1.4444438505	-0.2614540771	-0.415532
C	 0.0594955682	-0.0299605546	 0.0611623406	-0.045326
C	 1.3815406733	-0.7585072407	-0.0254534785	-0.32995
C	 0.7065368585	-0.578188664	 1.3198348346	 0.367907
C	 1.3308288943	 0.3721935708	 2.3261886326	-0.470493
C	 0.0448992916	-1.8076362333	 1.9283269889	-0.254608
C	 1.0322810386	-2.7624965332	 2.6388624402	-0.360227
C	 0.3844319145	-3.9673410578	 3.1418658752	 0.297857
C	-0.1773730234	-4.950887812	 3.5449854422	-0.440919
H	 0.8486698526	 1.9997654312	 0.0078123948	 0.115429
H	-0.2118316568	 1.5881534709	-1.3362044204	 0.118427
H	-0.8985765636	 1.9075760196	 0.2613053775	 0.116458
H	-0.8003161875	-0.6048610381	-0.2767572524	 0.080103
H	 1.4051555157	-1.7485118612	-0.4703098087	 0.105623
H	 2.2668044167	-0.1630218756	-0.228597071	 0.104165
H	 1.7709984182	 1.2486541146	 1.8454096323	 0.115853
H	 0.5856580738	 0.727535882	 3.0483716544	 0.114768
H	 2.1320460316	-0.1150240652	 2.8926494298	 0.118028
H	-0.7269903521	-1.5009194562	 2.6453539567	 0.105032
H	-0.4691844877	-2.3725038031	 1.1432046588	 0.105268
H	 1.8319609216	-3.0390118002	 1.9395809928	 0.130769
H	 1.5224610946	-2.2448129711	 3.4719970941	 0.13032
H	-0.6605640306	-5.8240895632	 3.9067341023	 0.191047
60.1202	80.0568	100.9759	167.4828	172.8814	200.6299	262.5585	281.0655	336.0577	350.7667	373.5212	434.3111	494.0562	526.4516	614.0921	632.9718	716.8636	764.3315	784.5318	879.3931	902.8023	931.2869	965.7347	991.1557	998.8217	1017.7621	1048.5731	1057.8238	1106.8443	1128.9688	1137.2606	1191.4952	1200.309	1270.1722	1289.9	1304.4516	1358.9934	1382.7018	1406.264	1421.9525	1425.7051	1469.8023	1485.9934	1488.881	1491.5748	1494.9971	1502.2386	1515.7486	2237.4955	3020.5776	3026.2425	3030.4114	3031.4701	3052.6106	3078.4214	3082.4805	3085.6328	3102.4467	3115.9607	3119.8353	3127.9688	3200.8372	3508.1985
CC1CC1(C)CCC#C	C[C@H]1C[C@]1(C)CCC#C	
InChI=1S/C9H14/c1-4-5-6-9(3)7-8(9)2/h1,8H,5-7H2,2-3H3	InChI=1S/C9H14/c1-4-5-6-9(3)7-8(9)2/h1,8H,5-7H2,2-3H3/t8-,9-/m0/s1
