14
gdb 13656	5.69697	0.87303	0.80699	3.0806	71.72	-0.2721	-0.0712	0.2009	1357.061	0.104279	-382.49532	-382.486848	-382.485904	-382.529524	28.405	
C	-0.1073590356	 1.5114355591	-0.1087890985	-0.426653
C	-0.0210692972	 0.0187506476	 0.055163606	 0.098008
O	 1.250218233	-0.5932006296	-0.1238551318	-0.232445
C	 0.6731273384	-0.6420381311	 1.1918487145	-0.171693
C	 1.3164842205	 0.1098659849	 2.2291689196	 0.135089
C	 1.837282837	 0.7130534554	 3.1382600063	 0.054505
C	 2.4874381822	 1.4527099014	 4.1890937033	 0.019255
O	 2.2247436465	 1.3438952611	 5.3648037936	-0.226586
H	 0.7208577987	 2.0105822708	 0.3979262261	 0.140865
H	-0.0756235463	 1.772349664	-1.1713526626	 0.137953
H	-1.0506598885	 1.8848349566	 0.3026851906	 0.132826
H	-0.8463277099	-0.5512276089	-0.3763434787	 0.105437
H	 0.326803531	-1.6309264071	 1.4902783786	 0.128639
H	 3.2704094202	 2.1509758558	 3.8303482728	 0.104799
47.554	87.7674	104.8623	182.7486	198.3068	249.4944	352.7655	413.2797	484.1886	574.5671	643.588	772.6497	808.3082	869.4633	960.2598	1012.9802	1019.612	1070.0438	1135.9479	1160.6193	1192.3722	1285.4105	1375.0924	1411.3018	1420.7962	1442.9223	1483.5383	1496.1764	1765.6549	2320.8909	2924.1149	3044.517	3091.827	3109.5262	3119.2269	3140.9813
CC1OC1C#CC=O	C[C@H]1O[C@H]1C#CC=O	
InChI=1S/C6H6O2/c1-5-6(8-5)3-2-4-7/h4-6H,1H3	InChI=1S/C6H6O2/c1-5-6(8-5)3-2-4-7/h4-6H,1H3/t5-,6+/m1/s1
