16
gdb 50305	3.27188	1.4517	1.10277	5.7855	72.34	-0.2344	-0.0169	0.2175	1072.5285	0.12639	-434.06982	-434.062157	-434.061213	-434.102437	28.399	
N	 0.0813041932	 1.2799204709	 0.1321085903	-0.416175
C	-0.0375798187	 0.0182402201	 0.0922495817	 0.089927
N	-1.2499762841	-0.6562836192	-0.0084154023	-0.117492
C	-1.2562265126	-2.1234264443	-0.0744032652	-0.176018
C	-2.7246479638	-2.4929891341	 0.0197703098	-0.059127
N	-3.3293103901	-2.0185371561	 1.2713588677	-0.327873
C	-3.5072064892	-1.2372587643	 0.0163397419	-0.175936
C	-2.5365629819	-0.0852947243	-0.0623429366	 0.48205
O	-2.8096133441	 1.0794857478	-0.1737662456	-0.338083
H	 1.0671026942	 1.5249624498	 0.2133151997	 0.228004
H	 0.7966224805	-0.6949938086	 0.1334962133	 0.089576
H	-0.8272151534	-2.4702533998	-1.0229312449	 0.120118
H	-0.679004879	-2.5544239985	 0.7506953316	 0.130834
H	-3.0765316052	-3.4038515884	-0.4494152078	 0.108456
H	-4.1890920065	-2.5357118073	 1.4453224697	 0.243045
H	-4.4900550094	-1.1162157134	-0.4200999634	 0.118693
72.1849	126.4848	185.9578	227.2581	282.8628	385.7214	448.5325	500.7887	620.2855	706.4563	753.8991	778.3006	822.6157	836.5827	873.7374	897.6991	972.1596	1011.7791	1052.2704	1066.4295	1099.5438	1119.2832	1164.0379	1198.0241	1225.0288	1243.2808	1260.3626	1326.619	1361.794	1415.631	1423.1766	1440.556	1509.1837	1720.6113	1853.5342	3016.681	3026.782	3070.0359	3187.3908	3209.2824	3491.2331	3494.8599
N=CN1CC2NC2C1=O	[NH][CH]N1C[C@H]2N[C@H]2C1=O	
InChI=1S/C5H7N3O/c6-2-8-1-3-4(7-3)5(8)9/h2-4,6-7H,1H2	InChI=1S/C5H7N3O/c6-2-8-1-3-4(7-3)5(8)9/h2-4,6-7H,1H2/t3-,4-/m1/s1
