23
gdb 58906	3.06187	1.33617	1.19999	0.3126	88.24	-0.2415	0.0794	0.3208	1174.1638	0.206176	-351.114501	-351.105883	-351.104939	-351.147401	34.771	
C	 0.0028850542	 1.5377340108	-0.0036053561	-0.394001
C	 0.0269886604	 0.001152222	-0.0333538206	-0.093598
C	 0.6210299454	-0.5172233351	-1.3511885952	-0.396626
C	 0.7395967924	-0.5541292665	 1.1845563271	 0.372795
C	 2.2716932492	-0.3600537822	 1.4276670537	-0.279015
C	 2.2020988768	-1.6483193809	 2.2420023425	-0.060146
C	 0.858613895	-1.6466781461	 2.9872415223	-0.065468
C	 0.1383886984	-0.3572705016	 2.6118237609	-0.283392
C	 0.9384229783	-2.0934325408	 1.5484414422	-0.148096
H	 1.018331678	 1.9471296526	-0.0540023715	 0.1168
H	-0.5575123977	 1.9361967931	-0.8555714652	 0.108962
H	-0.4647208659	 1.9148018799	 0.9113480002	 0.116719
H	-1.0140509957	-0.3511960119	 0.0195454069	 0.069067
H	 1.643261431	-0.1527539037	-1.5002673225	 0.114986
H	 0.6496207367	-1.6112676298	-1.3751412265	 0.113147
H	 0.0241434603	-0.1777032077	-2.2040051905	 0.108504
H	 2.8524470173	-0.5046776629	 0.5124433976	 0.095757
H	 2.5905525265	 0.5655440406	 1.9222234481	 0.084043
H	 3.0221003112	-2.2697975569	 2.5788864885	 0.080355
H	 0.709840054	-2.2665169721	 3.8623309151	 0.080456
H	 0.389386736	 0.5675229674	 3.1455578972	 0.084059
H	-0.9477871046	-0.4940134737	 2.6059906684	 0.091453
H	 0.6655299826	-3.0179150344	 1.0602804474	 0.083241
67.3571	166.1018	205.2241	241.8569	264.1566	303.8498	368.0551	421.0876	459.3528	470.9587	607.5295	724.2599	739.9673	783.7704	799.9618	874.7737	886.778	910.69	928.6766	934.1661	958.3023	969.561	988.6428	1005.7099	1022.4118	1041.8209	1044.8384	1087.3896	1111.1899	1132.1019	1147.134	1170.6964	1177.6745	1193.2235	1243.5517	1250.4457	1290.5858	1320.6634	1348.8381	1366.2448	1376.6746	1398.2003	1419.5808	1487.5905	1489.5414	1495.0224	1505.4544	1509.3026	1513.5101	2989.6241	3019.6337	3026.8627	3029.2461	3033.6366	3081.1298	3091.5336	3095.211	3100.8686	3102.1979	3103.9079	3188.1388	3194.7754	3219.6066
CC(C)C12CC3C(C1)C23	CC(C)[C@@]12C[C@H]3[C@@H](C1)[C@@H]23	
InChI=1S/C9H14/c1-5(2)9-3-6-7(4-9)8(6)9/h5-8H,3-4H2,1-2H3	InChI=1S/C9H14/c1-5(2)9-3-6-7(4-9)8(6)9/h5-8H,3-4H2,1-2H3/t6-,7+,8-,9+
