19
gdb 96690	1.80548	1.78534	0.99948	0.8142	80.96	-0.2332	0.0032	0.2364	1226.6764	0.15791	-419.146203	-419.136846	-419.135902	-419.181468	33.125	
C	 0.3046266653	 1.1834363225	 0.3376644353	-0.328857
N	 0.0073450377	-0.1768077174	-0.0550505827	-0.270266
C	 0.3038521546	-0.6502878385	-1.1974433604	 0.30092
N	-0.136317424	-1.9354217768	-1.5575349778	-0.097651
C	 0.7851209132	-3.0695592257	-1.5253178501	-0.212987
C	-0.3250635421	-2.9454835896	-0.534684187	-0.218508
C	 1.0235228697	 0.0506238347	-2.3129065503	 0.001618
O	 1.7193059507	-0.7675210169	-3.260362753	-0.22633
C	 0.561698616	-0.0730630502	-3.7088146996	-0.172163
H	 1.0277533007	 1.7266669702	-0.2856622868	 0.104872
H	-0.6242786728	 1.7678074086	 0.3531834092	 0.130382
H	 0.685111277	 1.1762342296	 1.3648008828	 0.12864
H	 0.7129139408	-3.7571410591	-2.3623771482	 0.121865
H	 1.7952405224	-2.8831894275	-1.1711202519	 0.127694
H	-0.075782612	-2.6574268151	 0.481907835	 0.135374
H	-1.218486721	-3.5533904732	-0.6428259286	 0.118499
H	 1.5616065417	 0.95318359	-2.0396829726	 0.103716
H	-0.3031221308	-0.6988792662	-3.9139908031	 0.135317
H	 0.7444279526	 0.7473610206	-4.4014434401	 0.117865
50.1577	65.6395	93.3674	167.7322	186.1265	241.4894	274.8738	337.8621	356.4912	511.5603	588.1852	664.9483	723.8627	811.9545	866.3963	881.3276	917.9311	942.7483	1006.4667	1028.669	1075.6451	1094.3646	1120.1274	1123.5226	1130.7589	1143.9989	1161.2907	1170.4146	1173.5088	1183.6732	1232.522	1290.9597	1381.3314	1399.3994	1448.9636	1483.4318	1492.4676	1505.8156	1509.6817	1518.9353	1729.2011	2999.3284	3055.7175	3077.2498	3091.4184	3115.3455	3121.3257	3158.4605	3193.6525	3199.5169	3214.4977
CN=C(N1CC1)C1OC1	CN=C(N1CC1)[C@H]1OC1	
InChI=1S/C6H10N2O/c1-7-6(5-4-9-5)8-2-3-8/h5H,2-4H2,1H3	InChI=1S/C6H10N2O/c1-7-6(5-4-9-5)8-2-3-8/h5H,2-4H2,1H3/t5-/m0/s1
