18
gdb 84546	3.58612	1.33635	1.06593	3.5025	78.37	-0.218	-0.0023	0.2157	1134.063	0.148694	-401.974619	-401.966843	-401.965898	-402.007084	30.004	
C	-0.1854022405	 1.5335840726	 0.0119328442	-0.398601
C	 0.0365924643	 0.0181394896	-0.05897221	-0.05584
C	 0.961351254	-0.4266716409	-1.1871501348	-0.096351
C	 1.919206222	-1.2489117996	-0.7548197788	-0.080391
N	 1.8444648176	-1.4347313381	 0.6514893096	-0.112401
C	 0.7721055935	-0.5465081071	 1.187947856	 0.030661
C	 0.2264426698	-1.748153526	 2.0067551333	-0.411788
C	 1.3191843649	-2.5821990249	 1.3016731681	 0.404446
O	 1.6283520739	-3.734914608	 1.2413396808	-0.322545
H	 0.7666622716	 2.0613699783	 0.1309053316	 0.122381
H	-0.6634626036	 1.9053116392	-0.8997284057	 0.118366
H	-0.8294083175	 1.7967724019	 0.8579906903	 0.117545
H	-0.9449873219	-0.46355693	-0.1865878336	 0.085618
H	 0.8261720925	-0.1202932928	-2.2165825006	 0.103798
H	 2.6845640477	-1.7599272164	-1.3220696663	 0.134211
H	 1.1831266438	 0.2630208464	 1.7989447872	 0.088432
H	 0.306359626	-1.6791406017	 3.0936716534	 0.134616
H	-0.7806739481	-2.0763612126	 1.7389714252	 0.137842
73.1331	129.7026	233.2562	266.0843	293.0496	340.3432	464.8275	515.4844	558.69	623.0327	704.4083	736.5879	774.1623	810.1752	844.2285	899.5064	929.8959	973.0822	1013.1766	1031.7629	1042.8137	1068.3318	1089.7988	1119.0249	1155.4459	1172.0282	1214.0864	1235.7842	1262.0246	1290.6733	1321.9452	1340.0003	1389.8708	1413.4171	1450.993	1496.2449	1500.0102	1659.4853	1893.0004	2981.1683	3030.6002	3055.2227	3076.6231	3100.4407	3106.2726	3133.0575	3212.8756	3243.3669
CC1C=CN2C1CC2=O	C[C@H]1C=CN2[C@@H]1CC2=O	
InChI=1S/C7H9NO/c1-5-2-3-8-6(5)4-7(8)9/h2-3,5-6H,4H2,1H3	InChI=1S/C7H9NO/c1-5-2-3-8-6(5)4-7(8)9/h2-3,5-6H,4H2,1H3/t5-,6+/m0/s1
