12
gdb 131046	4.65999	1.19661	0.95212	5.5158	66.25	-0.2591	-0.0952	0.1639	1111.413	0.078437	-464.98328	-464.976099	-464.975154	-465.015919	24.903	
O	-0.4128907583	 0.069246044	 0.0046715741	-0.236496
C	-0.1100888102	 1.2270994029	 0.0085163554	 0.165854
N	 1.1835261946	 1.7547258814	-0.0003951978	-0.387238
C	 2.4064011068	 1.123594217	-0.0149930684	 0.542891
N	 3.4638993822	 1.9431591892	-0.0159917509	-0.299375
C	 4.6153431278	 1.2938424081	-0.0298016391	 0.119556
N	 4.7653157237	-0.0363838014	-0.041734542	-0.179057
N	 3.6647172887	-0.7705431653	-0.0399279317	-0.03601
N	 2.469483849	-0.2189053392	-0.0267263553	-0.216247
H	-0.8423493663	 2.0577844864	 0.0205966067	 0.100694
H	 1.2613340707	 2.7635290633	 0.0064991076	 0.272536
H	 5.5304719211	 1.8804127037	-0.0317869888	 0.152892
51.9143	136.1693	167.3015	250.7891	330.0703	356.8622	555.3998	581.5573	676.2068	699.9683	834.5727	861.5538	883.5687	981.4601	1008.62	1026.3029	1026.8639	1114.8986	1151.1049	1280.3351	1351.8578	1428.0075	1452.8431	1495.8129	1549.903	1599.9601	1856.5646	2948.7003	3177.7029	3593.156
O=CNC1=NC=NN=N1	O=CNc1ncnnn1	
InChI=1S/C3H3N5O/c9-2-5-3-4-1-6-8-7-3/h1-2H,(H,4,5,6,7,9)	InChI=1S/C3H3N5O/c9-2-5-3-4-1-6-8-7-3/h1-2H,(H,4,5,6,7,9)
