21
gdb 83243	2.84461	1.31545	1.17612	1.2305	85.52	-0.2217	0.0192	0.241	1184.568	0.182655	-387.087335	-387.078487	-387.077543	-387.120596	33.921	
C	-0.1692659851	 1.5042370489	-0.1258979325	-0.399402
C	-0.0066357235	 0.0087807895	 0.0079354393	-0.041175
C	 1.3396773429	-0.6552324963	-0.1517611844	 0.0685
O	 2.4446025282	 0.1835455316	-0.3393451527	-0.254194
C	 3.3419518345	 0.2468657938	 0.7604619314	-0.156854
C	 2.6610461762	 0.5303698715	 2.0838237955	 0.294083
C	 3.4742368204	 1.2355184654	 3.1294157596	-0.482055
C	 1.3983550304	 0.1321201931	 2.2542876236	-0.173713
C	 0.6898746171	-0.6425316087	 1.205941792	-0.126608
H	 0.6933463209	 2.0355249477	 0.2793558814	 0.126907
H	-0.272523635	 1.7890818198	-1.1784785899	 0.116726
H	-1.0637318479	 1.8487659412	 0.4042079496	 0.109716
H	-0.8404573844	-0.5710984521	-0.3809799045	 0.081362
H	 1.4063920644	-1.5898175731	-0.7071405198	 0.082004
H	 3.9327543771	-0.6832573553	 0.8363418728	 0.09933
H	 4.0453933459	 1.0502773328	 0.5147575559	 0.109809
H	 4.3974144874	 0.684366387	 3.3529451091	 0.125109
H	 3.7832698749	 2.2336716499	 2.7927126442	 0.125912
H	 2.9152231842	 1.3460808848	 4.0624773887	 0.123583
H	 0.8762610812	 0.3359697585	 3.1866290622	 0.081113
H	 0.2463799702	-1.5739425498	 1.5496763086	 0.089849
104.1737	136.218	151.4614	188.1428	225.0442	287.2356	318.8932	400.0616	468.6885	495.3366	534.6284	589.6266	729.3047	762.2379	792.8391	851.6933	892.8529	901.6628	954.5972	963.7994	1000.7655	1026.8971	1056.8177	1082.5386	1098.1459	1104.4998	1129.6074	1146.1949	1181.6653	1200.1092	1245.0133	1273.1214	1333.2315	1363.516	1375.132	1400.5263	1413.2226	1417.1616	1433.6602	1477.7401	1489.5875	1490.7856	1493.7134	1498.956	1732.8912	2948.414	3012.3055	3036.1906	3056.6014	3059.8381	3091.2712	3101.8221	3110.2794	3122.7314	3131.7906	3142.9129	3147.9285
CC1C2OCC(C)=CC12	C[C@H]1[C@H]2OCC(=C[C@@H]12)C	
InChI=1S/C8H12O/c1-5-3-7-6(2)8(7)9-4-5/h3,6-8H,4H2,1-2H3	InChI=1S/C8H12O/c1-5-3-7-6(2)8(7)9-4-5/h3,6-8H,4H2,1-2H3/t6-,7+,8-/m1/s1
