14
gdb 130376	3.58257	1.09878	0.84113	4.8323	72.59	-0.201	-0.0165	0.1845	1271.3344	0.102827	-466.194225	-466.185906	-466.184962	-466.227609	29.984	
N	-0.0983656704	 1.3688341776	-0.05334184	-0.504225
C	-0.0723015063	 0.0103211906	-0.0035318423	 0.122528
N	-1.1458787409	-0.6889612456	 0.0256839642	-0.383136
C	-1.0650901232	-2.0688783675	 0.010321086	 0.274658
N	 0.0186818233	-2.8514490346	-0.0529734322	-0.296149
N	-0.4939632862	-4.0756906844	-0.0302200686	-0.095305
N	-1.8273009357	-4.1770332282	 0.039211945	-0.276382
C	-2.2026169369	-2.9077817605	 0.0656028817	 0.320171
O	-3.4890552971	-2.5269705951	 0.136083924	-0.41941
H	 0.7319352857	 1.8843315505	 0.1810769257	 0.266045
H	-0.9825314329	 1.8250101039	 0.1107935933	 0.263523
H	 0.9295020126	-0.4271847064	-0.0281118449	 0.133579
H	 0.0878453185	-4.8940374332	-0.0740479516	 0.289142
H	-3.4759296007	-1.5597402772	 0.1334448996	 0.304961
62.8989	126.5955	152.4274	290.0873	303.194	317.5507	330.7959	427.4772	446.8853	468.1528	576.8322	582.1174	691.9123	706.9342	778.2332	842.0517	976.2337	1014.3037	1088.9635	1171.3049	1195.4247	1258.1962	1287.5546	1314.699	1385.8503	1432.0048	1472.523	1570.8042	1620.5558	1633.5834	1732.1671	3098.003	3595.573	3691.5806	3727.3848	3764.76
NC=NC1=NNN=C1O	NC=Nc1n[nH]nc1O	
InChI=1S/C3H5N5O/c4-1-5-2-3(9)7-8-6-2/h1H,(H4,4,5,6,7,8,9)	InChI=1S/C3H5N5O/c4-1-5-2-3(9)7-8-6-2/h1H,(H4,4,5,6,7,8,9)
