17
gdb 90795	2.53049	2.03191	1.45887	3.5717	71.31	-0.2143	-0.0072	0.2071	926.2465	0.137287	-417.97549	-417.968241	-417.967297	-418.007127	28.254	
C	 0.0245218377	 1.490013879	-0.0365712621	-0.333484
N	-0.0297208163	 0.0372892627	 0.0388338132	-0.053101
C	-1.3890280378	-0.527840249	 0.0978944494	-0.200199
C	-1.2193124116	-1.8033081733	 0.9076337032	-0.038106
C	 0.1911496592	-2.0096970636	 1.2240882865	-0.040781
C	 0.6921945333	-0.5564498468	 1.1673132885	-0.177507
C	-0.111352933	-0.3896533908	 2.4790414076	 0.42058
O	-0.1843134066	 0.406047865	 3.3632995266	-0.312915
N	-0.7948273386	-1.6720689725	 2.3581968606	-0.209896
H	 1.0679038464	 1.8129332954	-0.104578318	 0.125549
H	-0.4896537575	 1.8223072912	-0.9436091477	 0.125695
H	-0.4378557221	 1.9941926478	 0.8285791593	 0.12302
H	-2.1107563202	 0.1487536905	 0.5837211508	 0.112843
H	-1.7634543319	-0.7482678754	-0.9089650108	 0.117177
H	-1.9047166527	-2.6302177515	 0.7635387669	 0.119815
H	 0.7610411891	-2.9273676658	 1.2343689537	 0.121587
H	 1.7549829627	-0.315314603	 1.1632720622	 0.099721
114.2446	132.0528	239.509	337.0235	354.4124	374.8966	471.0581	554.6731	627.9549	702.8038	731.5715	814.8104	833.5862	846.6302	885.497	914.8394	964.848	1006.0593	1035.801	1052.0806	1059.0396	1093.6465	1151.4821	1159.2095	1197.0465	1213.4425	1235.6003	1237.5431	1271.5389	1321.7234	1359.8482	1390.3839	1459.4603	1487.9114	1506.7335	1514.658	1902.4871	2968.3476	2974.6856	3045.8531	3068.8702	3108.0796	3123.419	3188.0938	3228.7266
CN1CC2C3C1C(=O)N23	CN1C[C@H]2[C@H]3[C@@H]1C(=O)N23	
InChI=1S/C6H8N2O/c1-7-2-3-4-5(7)6(9)8(3)4/h3-5H,2H2,1H3	InChI=1S/C6H8N2O/c1-7-2-3-4-5(7)6(9)8(3)4/h3-5H,2H2,1H3/t3-,4-,5+,8?/m0/s1
