21
gdb 42105	3.5175	1.21039	1.19371	2.7107	77.65	-0.2358	0.0787	0.3145	1154.3829	0.184655	-424.240429	-424.232237	-424.231293	-424.274368	31.168	
C	 0.1156560147	 1.637964236	-0.1794154823	-0.224063
C	 1.5135329882	 1.8928459978	 0.3871299044	-0.067609
O	 2.275162567	 0.7358239635	 0.0612666566	-0.310215
C	 1.4072651773	-0.3967016405	-0.1527903289	 0.394364
C	-0.0242926922	 0.1281723157	 0.0576565099	-0.313201
C	 1.742430451	-0.9906467109	-1.5339926085	-0.260592
C	 3.0058365889	-1.7879710536	-1.2127426681	-0.071094
O	 2.7710577078	-2.3532712768	 0.0769546314	-0.265934
C	 1.8286163814	-1.5501032241	 0.779169306	-0.099064
H	-0.6603752266	 2.2292223305	 0.3126361493	 0.102725
H	 0.0915082468	 1.8655414931	-1.2502503578	 0.108763
H	 2.0139364814	 2.7657944072	-0.0434749106	 0.105914
H	 1.4711823835	 2.0307215464	 1.4797645591	 0.089153
H	-0.3439021967	-0.0596747394	 1.0895267875	 0.106089
H	-0.7448723931	-0.3571776287	-0.6042479408	 0.106635
H	 0.941921568	-1.6637432875	-1.8598269202	 0.099438
H	 1.8910236218	-0.215446153	-2.287938474	 0.103076
H	 3.2038099515	-2.6068379099	-1.9107943918	 0.100717
H	 3.8831009765	-1.1254552473	-1.189914388	 0.103798
H	 2.2746954177	-1.1434626501	 1.69496162	 0.102906
H	 0.966534725	-2.1735867984	 1.0546828468	 0.088194
27.3923	85.2789	178.2821	207.2406	294.7984	374.9924	423.5882	442.0325	600.6272	637.8306	718.3619	771.9569	840.1774	879.4042	889.7495	914.8758	927.5412	935.0133	969.7315	998.7527	1010.349	1028.2811	1078.1426	1089.6636	1140.5015	1173.1891	1174.2831	1201.4369	1210.9243	1232.9087	1247.3839	1260.2058	1279.5403	1315.1795	1331.2099	1342.6547	1367.3027	1391.9008	1405.4643	1470.6618	1486.1043	1497.0967	1505.6008	1523.2834	1528.0961	2970.8603	2996.5321	3003.6904	3037.1114	3046.9523	3049.7452	3050.7824	3073.9622	3080.4318	3102.6688	3111.1692	3121.3436
C1COC2(C1)CCOC2	C1CO[C@@]2(C1)CCOC2	
InChI=1S/C7H12O2/c1-2-7(9-4-1)3-5-8-6-7/h1-6H2	InChI=1S/C7H12O2/c1-2-7(9-4-1)3-5-8-6-7/h1-6H2/t7-/m0/s1
