19
gdb 41711	3.84999	1.43473	1.23448	1.4917	80.13	-0.2235	0.0153	0.2388	1045.5554	0.162328	-385.891696	-385.884801	-385.883857	-385.922664	28.408	
C	-0.0108134401	 1.4488854966	-0.0967827217	-0.10265
O	 0.9717895586	 1.9418327875	 0.8157490935	-0.25833
C	 2.0546444106	 1.0164481629	 0.8696925957	-0.183348
C	 1.4315606433	-0.3373583998	 0.6220690212	 0.340573
C	 2.1101842305	-1.6281619215	 0.3446868274	-0.197067
C	 1.3673699895	-2.6626973366	 0.7483837736	-0.076916
C	 0.0804053104	-2.2162324956	 1.4178732836	-0.300478
C	 0.1192527902	-0.6891337062	 1.3127714719	-0.095222
C	 0.0958755958	-0.0641015872	-0.05656367	-0.110842
H	-0.9767514738	 1.8482130888	 0.2322127333	 0.107046
H	 0.1807564646	 1.8088776538	-1.1206905198	 0.091169
H	 2.8142388021	 1.2380616627	 0.1001993841	 0.087428
H	 2.5227385056	 1.1273410543	 1.8539043847	 0.108581
H	 3.0681592792	-1.6957965097	-0.1587060328	 0.093919
H	 1.6142294252	-3.7074951507	 0.5983536044	 0.095134
H	-0.8034925513	-2.6502681254	 0.9316737174	 0.110579
H	 0.0409790841	-2.5415987903	 2.4657514532	 0.110389
H	-0.2364260608	-0.0908617579	 2.1453543213	 0.093796
H	-0.2137941338	-0.6406977055	-0.9220156509	 0.086239
188.6224	208.8182	259.5022	293.9505	349.5916	461.9027	488.152	648.1045	723.6543	736.4275	755.7064	808.7387	849.6264	898.4311	916.9238	934.0189	946.2085	964.1956	988.5145	1028.5749	1050.0433	1062.174	1081.4046	1094.3411	1102.9238	1135.4051	1179.795	1215.6894	1229.8307	1236.5098	1273.1146	1279.4458	1310.7431	1350.4649	1366.7679	1407.3934	1427.7878	1478.2366	1511.5342	1522.3701	1663.0955	2954.6922	2973.5479	3015.4107	3039.9439	3057.2033	3061.2899	3161.6835	3166.0164	3185.2761	3209.9227
C1OCC23C=CCC2C13	C1OC[C@@]23C=CC[C@@H]2[C@@H]13	
InChI=1S/C8H10O/c1-2-6-7-4-9-5-8(6,7)3-1/h1,3,6-7H,2,4-5H2	InChI=1S/C8H10O/c1-2-6-7-4-9-5-8(6,7)3-1/h1,3,6-7H,2,4-5H2/t6-,7-,8+/m1/s1
