15
gdb 30031	3.43817	1.6627	1.12871	3.7573	74.29	-0.1952	-0.0076	0.1877	1012.739	0.115529	-416.833604	-416.826599	-416.825654	-416.86518	26.614	
C	 0.0219703885	 1.4564405153	 0.0186078925	-0.349154
N	 0.0049877297	 0.0124247494	 0.0198339902	-0.178316
C	-0.0609423583	-0.82650782	-1.0839415903	-0.001386
N	-0.0615241775	-2.1049286791	-0.83027621	-0.366599
C	 0.009969171	-2.1586607579	 0.5584872398	 0.207124
C	 0.056270713	-3.0165473345	 1.6196986994	-0.112521
O	 0.1240055907	-2.2836974798	 2.7674221677	-0.153423
C	 0.1226384346	-0.9456154686	 2.4638158972	-0.137821
C	 0.0526562043	-0.8361398395	 1.1101576972	 0.255925
H	 0.9414085524	 1.8403315936	 0.474684401	 0.143152
H	-0.0280007722	 1.8125549062	-1.0126362783	 0.144341
H	-0.8354194674	 1.8612370761	 0.5679106344	 0.14316
H	-0.1078632692	-0.3964958526	-2.0769101196	 0.130715
H	 0.0517275102	-4.0853154533	 1.7419481738	 0.141599
H	 0.1724604301	-0.2718599052	 3.299925705	 0.133204
107.7881	144.2875	252.4512	282.1187	343.3044	544.2475	590.7888	611.5147	617.6061	637.4703	708.4138	711.6337	770.2153	806.7297	880.6849	937.4628	1039.6142	1055.9874	1098.6508	1154.5676	1167.146	1232.9048	1243.1041	1301.7404	1330.8484	1381.3655	1415.1615	1460.5129	1478.4991	1519.7361	1553.7948	1588.9022	1698.7861	3026.0294	3080.6187	3129.609	3220.4634	3290.3266	3296.414
CN1C=NC2=COC=C12	Cn1cnc2cocc12	
InChI=1S/C6H6N2O/c1-8-4-7-5-2-9-3-6(5)8/h2-4H,1H3	InChI=1S/C6H6N2O/c1-8-4-7-5-2-9-3-6(5)8/h2-4H,1H3
