19
gdb 57214	2.54045	1.37406	1.02456	5.005	71.19	-0.2434	0.0207	0.2641	1188.3665	0.159813	-456.353667	-456.344597	-456.343653	-456.388082	34.23	
C	 0.0614876084	 1.5448328537	-0.2670177942	-0.466495
C	 0.03657949	 0.0444106716	-0.0483512739	 0.334136
C	 1.1552971674	-0.7416414113	-0.6368972746	-0.282476
N	 1.0501234718	-0.570534659	 0.823818451	-0.350952
C	-1.3429809589	-0.6279517822	 0.0838475004	-0.199223
N	-1.2741671882	-2.0704536106	 0.3541733326	-0.548968
H	-2.5651526707	-1.7430705901	 1.586675266	 0.308498
H	-1.2597521361	-2.6188173159	-0.4964912714	 0.245897
H	-0.4199717108	-2.2570424501	 0.8783027368	 0.26438
C	-2.2353203873	 0.0244614514	 1.1809432018	 0.435019
O	-2.3769902083	 1.2125502831	 1.3152380291	-0.345664
O	-2.8746700424	-0.871100159	 1.9334336911	-0.362625
H	 1.0880410352	 1.8820428704	-0.4455672933	 0.099789
H	-0.5372209481	 1.818093021	-1.1428468386	 0.123151
H	-0.3563162879	 2.0786640587	 0.586063402	 0.166209
H	 1.0138489167	-1.7604719506	-0.9861177873	 0.10156
H	 1.9207840428	-0.1881127582	-1.1735687367	 0.120122
H	 1.7088252378	 0.1240722304	 1.163815355	 0.239229
H	-1.8894004615	-0.4706455134	-0.8545413058	 0.118414
34.9945	81.5239	180.5833	239.5247	269.1169	326.1839	365.4137	379.2375	403.9005	422.5143	506.0119	558.3883	567.6646	704.1789	781.3645	819.5817	874.9924	892.6788	930.5447	939.8018	975.5064	982.7521	1009.8535	1058.3988	1093.9455	1121.7534	1147.907	1191.8478	1226.0421	1258.5426	1273.9935	1323.7967	1363.8965	1392.2971	1422.7244	1445.8125	1477.3669	1499.851	1514.1899	1646.8079	1856.9929	3034.7371	3041.0094	3094.8341	3111.2579	3155.159	3193.0595	3378.0382	3468.9945	3516.4436	3593.7132
CC1(CN1)C([NH3+])C([O-])=O	C[C@]1(CN1)[C@@H](N)C(=O)O	
InChI=1S/C5H10N2O2/c1-5(2-7-5)3(6)4(8)9/h3,7H,2,6H2,1H3,(H,8,9)	InChI=1S/C5H10N2O2/c1-5(2-7-5)3(6)4(8)9/h3,7H,2,6H2,1H3,(H,8,9)/t3-,5-/m0/s1
