23
gdb 114901	2.96687	1.15615	1.03917	1.2974	84.43	-0.26	0.0771	0.3371	1275.2773	0.208347	-388.291559	-388.282983	-388.282038	-388.324841	33.861	
O	-0.0231358594	 1.3648332905	-0.3634900333	-0.424445
C	 0.0658691188	-0.0406225378	-0.1620800828	-0.104211
C	-1.3440870166	-0.5613770815	 0.0316147401	 0.056395
C	-2.3006423689	-0.5528939195	-1.1927902734	-0.24761
C	-2.6988496574	-2.0291151146	-0.8968016887	 0.009792
C	-2.3244736536	-3.0648470855	-1.9642173297	-0.210695
C	-0.7932542169	-3.1992015287	-1.8467691043	-0.207577
C	-0.5250632442	-3.081089066	-0.3318504444	-0.215261
C	-1.5831784504	-2.0954232029	 0.2090354689	-0.049856
H	 0.859814043	 1.6983490748	-0.5472287907	 0.284188
H	 0.5419619834	-0.5293169371	-1.0274492446	 0.081604
H	 0.6781628963	-0.2785103145	 0.7241359356	 0.081879
H	-1.7828545231	-0.0102649988	 0.8695248472	 0.075989
H	-3.1110308894	 0.1780581918	-1.1561932596	 0.097665
H	-1.779475231	-0.4261208363	-2.1475049936	 0.092903
H	-3.7253987754	-2.1390608078	-0.541074507	 0.0588
H	-2.7990785073	-4.0267017468	-1.7325036744	 0.091466
H	-2.6522078548	-2.7749209243	-2.9683026757	 0.092258
H	-0.4135111781	-4.1330052781	-2.2716978749	 0.091683
H	-0.3005997316	-2.3820731071	-2.3869673637	 0.099182
H	-0.6848961099	-4.0574514308	 0.140858365	 0.093471
H	 0.5043652104	-2.7883851456	-0.1023575631	 0.092568
H	-1.8999042236	-2.3720908134	 1.217121347	 0.059811
76.8813	114.1345	169.6478	249.9816	263.9948	298.7565	360.0236	413.6486	468.3414	567.8509	604.9395	733.3168	779.2924	816.2624	848.4558	869.4453	881.3681	913.6242	918.3902	957.3539	972.1651	1010.9591	1047.3064	1053.4144	1078.0312	1092.9377	1113.8019	1155.6087	1166.764	1177.831	1198.814	1230.7159	1254.461	1266.7456	1269.1649	1284.6348	1287.6175	1315.3494	1321.5883	1337.0753	1351.3493	1358.1388	1374.5791	1460.4674	1485.2302	1485.4414	1493.6654	1512.3938	1522.576	2955.6232	2985.8819	3024.7142	3031.7493	3036.976	3048.6166	3052.3815	3070.3159	3074.2264	3078.1527	3082.4467	3090.7962	3109.1623	3828.3166
OCC1CC2CCCC12	OC[C@H]1C[C@H]2CCC[C@@H]12	
InChI=1S/C8H14O/c9-5-7-4-6-2-1-3-8(6)7/h6-9H,1-5H2	InChI=1S/C8H14O/c9-5-7-4-6-2-1-3-8(6)7/h6-9H,1-5H2/t6-,7-,8-/m1/s1
