14
gdb 15478	2.86225	2.08249	1.45294	5.6463	61.88	-0.2633	-0.0003	0.2629	855.3736	0.109612	-378.780896	-378.773819	-378.772875	-378.81263	25.541	
O	-0.0161056873	 0.0251311647	-0.571691828	-0.357707
C	 0.0174736875	 1.1846794759	-0.2444665026	 0.4131
N	-1.0386744033	 2.0104008554	 0.0039628483	-0.297165
C	-0.6998302236	 3.3496001952	 0.4546340619	-0.167112
C	 0.7603347079	 3.4979947645	-0.0225263843	-0.227081
C	 1.2999054065	 2.0480973847	-0.0208014205	-0.264278
C	 1.9247318453	 1.6825677014	 1.2479228093	 0.279098
N	 2.4081899347	 1.4217807402	 2.2649880068	-0.318483
H	-1.9726621542	 1.6327819639	 0.0332467845	 0.263739
H	-1.3557395534	 4.0988357322	 0.0026851368	 0.125999
H	-0.7779930331	 3.4417682648	 1.5460421522	 0.131154
H	 0.7774088081	 3.8754729764	-1.0479799173	 0.129177
H	 1.3405899867	 4.1744562922	 0.6050050362	 0.137933
H	 2.0058930681	 1.8492726286	-0.8300807531	 0.151627
78.7085	147.681	169.4297	253.127	414.9538	462.4681	500.1904	546.862	662.4244	690.3072	718.6312	820.8331	874.5637	927.2155	965.0457	1026.8309	1077.2717	1105.4102	1180.072	1214.7921	1247.1263	1266.9521	1308.0688	1344.772	1365.1292	1449.0699	1492.0248	1534.2394	1852.2967	2356.1294	3018.8271	3073.5989	3086.8197	3098.3635	3140.7292	3643.251
O=C1NCCC1C#N	O=C1NCC[C@H]1C#N	
InChI=1S/C5H6N2O/c6-3-4-1-2-7-5(4)8/h4H,1-2H2,(H,7,8)	InChI=1S/C5H6N2O/c6-3-4-1-2-7-5(4)8/h4H,1-2H2,(H,7,8)/t4-/m0/s1
