16
gdb 78338	2.91535	1.38695	1.06944	4.5288	70.81	-0.2492	-0.0303	0.2189	1131.2945	0.122739	-437.837017	-437.828985	-437.828041	-437.869605	29.905	
C	-0.0943407044	 1.4324195871	-0.0197052005	-0.414666
C	 0.0583846003	-0.0643948217	-0.1144162001	-0.004381
C	 0.8267301101	-0.6945611909	-1.2005100811	-0.1544
N	 1.4347391576	-0.571749319	 0.2062835837	-0.197234
C	 1.3272628419	-2.0216949659	 0.340730193	 0.331867
O	 1.6778184496	-2.7294533026	 1.2288718785	-0.29179
C	 0.7656412495	-2.2040154272	-1.0718587594	 0.336079
C	-0.0941198781	-3.2295799355	-1.6711683743	-0.257701
O	 1.2949089931	-3.1170444129	-2.0025371681	-0.258346
H	 0.7756369907	 1.9386302262	-0.4448754416	 0.137452
H	-0.990103634	 1.7566369248	-0.5594047873	 0.127181
H	-0.1919205195	 1.7403551852	 1.0251835736	 0.140324
H	-0.7719427178	-0.6353776961	 0.3005411777	 0.107093
H	 1.2677710196	-0.1583421442	-2.0314851572	 0.129016
H	-0.3625257828	-4.1083724613	-1.0881648925	 0.140474
H	-0.7876919657	-2.9431057261	-2.4598446845	 0.129031
115.9231	158.6015	204.1756	215.9914	232.5804	260.5667	381.1672	433.8137	503.1232	647.5154	672.8597	756.1418	760.4689	830.4191	889.4015	918.8805	953.4345	975.1917	998.2464	1031.4844	1076.2417	1125.8608	1144.5332	1149.4907	1156.8924	1188.61	1217.8784	1289.112	1409.9339	1427.4091	1443.6351	1487.1097	1494.2985	1524.5838	1922.3401	3043.8877	3091.0575	3106.9821	3114.1147	3133.0233	3186.8908	3202.3348
CC1C2N1C(=O)C21CO1	C[C@H]1[C@H]2N1C(=O)[C@]12CO1	
InChI=1S/C6H7NO2/c1-3-4-6(2-9-6)5(8)7(3)4/h3-4H,2H2,1H3	InChI=1S/C6H7NO2/c1-3-4-6(2-9-6)5(8)7(3)4/h3-4H,2H2,1H3/t3-,4+,6+,7?/m0/s1
