20
gdb 98302	2.50571	1.13427	0.89008	2.5122	76.01	-0.2455	0.0102	0.2557	1371.8266	0.169574	-440.291446	-440.281277	-440.280332	-440.327872	35.385	
C	 0.6370758962	 1.4318878615	-0.0308317735	-0.24147
O	 0.830158852	 0.0154077919	-0.1447259909	-0.236027
C	 0.1385630646	-0.5811824792	-1.137767649	 0.453945
O	-0.6095220257	 0.0076796941	-1.8773393478	-0.366948
C	 0.4645385491	-2.0657878364	-1.2224664627	-0.134726
C	-0.7875991904	-2.8789751101	-1.5730574256	-0.399611
C	 1.5600376245	-2.2457455311	-2.2676396667	 0.03508
C	 2.9864234251	-2.0650814314	-1.9064814594	-0.247281
N	 2.4561431003	-3.4085743544	-2.2113385597	-0.327775
H	 0.947877628	 1.9381399196	-0.9481815024	 0.141779
H	-0.4143451788	 1.6630487372	 0.1571275745	 0.142166
H	 1.2546074924	 1.7493118071	 0.8093820017	 0.132931
H	 0.8671717938	-2.3753831611	-0.2516073297	 0.086956
H	-1.234576125	-2.5007469199	-2.4955503758	 0.144537
H	-0.5300091225	-3.9324460311	-1.7132783849	 0.120879
H	-1.5397773803	-2.8096645044	-0.7818419721	 0.119591
H	 1.2454031574	-1.9894570789	-3.2774862567	 0.106918
H	 3.6911924456	-1.6757573483	-2.6353159611	 0.12204
H	 3.2159636619	-1.8146501947	-0.8740952364	 0.118031
H	 2.3041195818	-3.9203172705	-1.3444802319	 0.228986
30.5448	72.8702	109.7976	124.357	196.156	206.6298	211.9718	274.1422	312.8521	363.4545	385.4625	500.7266	698.3989	739.0271	805.6707	861.8525	873.3101	917.1342	960.3717	979.1846	1005.8314	1045.638	1099.1432	1113.4527	1141.5566	1164.5222	1179.3976	1190.1704	1215.2615	1224.5055	1253.5327	1285.6199	1320.2405	1364.7147	1406.3734	1417.9247	1472.6231	1481.4266	1491.0121	1496.9579	1500.7071	1513.9475	1817.6802	3046.0049	3048.7376	3052.7147	3111.9056	3116.7531	3127.5356	3128.5601	3133.4658	3159.5319	3197.8514	3485.1491
COC(=O)C(C)C1CN1	COC(=O)[C@@H](C)[C@H]1CN1	
InChI=1S/C6H11NO2/c1-4(5-3-7-5)6(8)9-2/h4-5,7H,3H2,1-2H3	InChI=1S/C6H11NO2/c1-4(5-3-7-5)6(8)9-2/h4-5,7H,3H2,1-2H3/t4-,5+/m0/s1
