19
gdb 109266	3.28538	1.21312	0.98678	2.6701	77.18	-0.2323	0.0262	0.2584	1217.0796	0.159979	-423.011872	-423.003585	-423.002641	-423.045154	31.025	
O	-0.0427059851	 1.4172381385	-0.1664318851	-0.412478
C	-0.0606405277	 0.0033839571	-0.1061235336	-0.18112
C	-1.464706587	-0.4820574386	 0.0602098503	 0.310232
C	-2.5671946348	 0.2660097207	 0.1480490782	-0.153014
C	-3.8254059545	-0.5508210913	 0.3291953655	-0.279337
C	-3.325931604	-1.9965115051	 0.1923843266	 0.124631
O	-3.3918356822	-2.4948115772	-1.1654162942	-0.290854
C	-1.9630603961	-2.6702128994	-1.2286139358	-0.075435
C	-1.7750762378	-1.955610407	 0.1325944281	-0.187898
H	 0.8687528088	 1.7009122431	-0.2786490284	 0.290005
H	 0.3738356485	-0.4427255349	-1.0191286878	 0.094917
H	 0.5511759379	-0.3714783937	 0.7348752033	 0.093135
H	-2.5657361553	 1.3478798188	 0.1023868282	 0.108696
H	-4.2977217591	-0.3647421138	 1.3034576192	 0.100836
H	-4.583884302	-0.3465629397	-0.4363208688	 0.120423
H	-3.7939358794	-2.6983155537	 0.8914578841	 0.069595
H	-1.6824398545	-3.7324528613	-1.227409616	 0.092965
H	-1.5246958891	-2.1827146233	-2.1078763801	 0.100577
H	-1.1955392764	-2.5020428293	 0.8821921263	 0.074123
70.4898	120.1991	179.5013	213.0054	234.5707	264.4243	381.2173	402.6673	550.0087	624.549	719.7699	809.4526	813.7047	839.5978	882.1516	905.2553	964.8003	982.654	1012.7016	1026.7791	1041.2139	1058.3865	1071.2314	1089.6056	1160.7892	1165.5167	1178.3342	1210.9112	1229.6741	1250.4403	1256.3672	1288.8261	1315.7114	1337.3805	1360.6923	1363.8739	1466.817	1469.9665	1506.5858	1521.4249	1716.9506	2932.704	2943.7862	3000.6412	3011.8255	3042.4282	3050.9432	3056.6589	3068.7944	3217.8022	3838.9117
OCC1=CCC2OCC12	OCC1=CC[C@H]2OC[C@@H]12	
InChI=1S/C7H10O2/c8-3-5-1-2-7-6(5)4-9-7/h1,6-8H,2-4H2	InChI=1S/C7H10O2/c8-3-5-1-2-7-6(5)4-9-7/h1,6-8H,2-4H2/t6-,7+/m0/s1
