21
gdb 97555	3.49803	0.66422	0.63925	1.3455	84.65	-0.2575	0.0303	0.2877	1858.3076	0.178529	-424.194942	-424.183398	-424.182454	-424.23295	40.698	
C	-0.0591200002	 1.5265424451	 0.1039922193	-0.39903
C	-0.0885355247	 0.0075191022	-0.0811506483	-0.18128
C	 0.7320893241	-0.5022127869	-1.2963761768	 0.143869
C	 0.2216100771	 0.0665039224	-2.627818839	-0.395372
O	 2.0946178892	-0.0628491511	-1.1967725066	-0.445413
C	 0.6754357311	-1.9726497178	-1.3195926839	 0.05117
C	 0.6293553253	-3.1775682403	-1.2991032537	 0.054584
C	 0.6168155107	-4.6397059691	-1.337308114	-0.192288
O	 0.6076444224	-5.1746041919	-2.6533006701	-0.401012
H	 0.9709560225	 1.8920925506	 0.1126244519	 0.130161
H	-0.5960492368	 2.0469241642	-0.694534275	 0.119429
H	-0.5313491638	 1.8034752504	 1.0512247801	 0.110852
H	 0.3161036927	-0.4810481792	 0.8142527849	 0.092963
H	-1.1189172996	-0.351599691	-0.1830880191	 0.106295
H	 0.3482043943	 1.1513590717	-2.6399033065	 0.127885
H	 0.7948699681	-0.3563993538	-3.4553152895	 0.128821
H	-0.8345347952	-0.1745542082	-2.7704242479	 0.122588
H	 2.4981511881	-0.5364786945	-0.4611195411	 0.279587
H	 1.4698152512	-5.0234459525	-0.7542253366	 0.117136
H	-0.2897500289	-5.0217798583	-0.8546676871	 0.140758
H	 1.3223752822	-4.7512508719	-3.140330821	 0.288297
19.4244	70.4142	88.4654	124.3651	171.2832	203.4468	238.5654	270.6704	285.7903	299.5086	336.0766	354.3219	367.9332	429.339	522.6824	564.3737	590.1176	688.1643	785.4145	844.6987	925.6665	976.0162	989.5394	1003.9415	1035.0709	1062.9303	1086.1603	1137.7458	1186.5799	1211.0989	1216.0928	1289.5639	1353.1215	1357.0334	1378.5182	1405.2639	1409.5676	1418.9313	1474.904	1483.0987	1491.4122	1493.6916	1502.9442	1511.9309	2348.102	2972.157	3026.3226	3045.0494	3056.6277	3061.059	3067.4335	3109.387	3125.4381	3137.222	3138.0502	3806.948	3815.632
CCC(C)(O)C#CCO	CC[C@@](C)(O)C#CCO	
InChI=1S/C7H12O2/c1-3-7(2,9)5-4-6-8/h8-9H,3,6H2,1-2H3	InChI=1S/C7H12O2/c1-3-7(2,9)5-4-6-8/h8-9H,3,6H2,1-2H3/t7-/m1/s1
