17
gdb 5389	4.9935	1.51768	1.17586	1.7721	80.24	-0.1905	0.0108	0.2013	1013.9904	0.144989	-326.790318	-326.783071	-326.782127	-326.821626	27.973	
C	 0.0204190171	 1.4493765467	 0.1062184813	-0.322332
N	-0.1289585513	 0.0235305747	-0.0932370954	-0.368164
C	 0.5526771006	-0.6495068257	-1.0980916624	 0.370289
C	 1.1571824753	 0.0227640687	-2.1718817591	-0.203685
C	 1.7918819879	-0.6949571487	-3.182859258	-0.084408
C	 1.8502826763	-2.0841779381	-3.1508378777	-0.140313
C	 1.2569544062	-2.7562457673	-2.0812745648	-0.081704
C	 0.6176973126	-2.0545533153	-1.0705761566	-0.197216
H	 1.0683561318	 1.7687080874	 0.2220271663	 0.115657
H	-0.4086055191	 2.0064018229	-0.7343654553	 0.134062
H	-0.529564278	 1.7384733226	 1.0046324679	 0.122945
H	-0.2461553209	-0.5099736381	 0.7532207145	 0.23457
H	 1.1320165215	 1.1044818067	-2.2209320467	 0.084621
H	 2.2506342932	-0.1520615069	-4.0035675252	 0.087938
H	 2.3491490294	-2.6350958602	-3.9399294416	 0.08506
H	 1.2923776978	-3.8401732872	-2.0328439371	 0.088149
H	 0.1545791895	-2.5887391224	-0.24513282	 0.074532
101.5548	184.7894	238.0502	253.6787	393.2072	419.7602	466.0503	525.8096	594.8506	629.1236	710.6528	771.0922	810.3425	830.5975	876.1737	940.6884	970.4801	1003.4222	1047.6761	1087.4433	1100.6667	1152.2404	1179.9314	1182.3762	1206.4324	1300.7508	1348.6687	1360.3047	1453.2624	1470.61	1483.6469	1519.0347	1529.1983	1545.0653	1624.103	1651.2578	2977.5519	3056.3267	3118.4678	3154.3142	3168.8002	3177.9705	3197.2943	3205.0296	3623.9881
CNC1=CC=CC=C1	CNc1ccccc1	
InChI=1S/C7H9N/c1-8-7-5-3-2-4-6-7/h2-6,8H,1H3	InChI=1S/C7H9N/c1-8-7-5-3-2-4-6-7/h2-6,8H,1H3
