15
gdb 125510	4.09128	1.01412	0.90106	2.3146	73.28	-0.2805	-0.0237	0.2568	1291.8895	0.111952	-412.943548	-412.934929	-412.933985	-412.978453	29.809	
C	 0.0509225741	 1.4673072251	-0.0118576265	-0.479315
C	-0.0007612573	-0.0209469505	-0.006753706	 0.391742
N	 0.1125091455	-0.7755911329	-1.0958761871	-0.287757
N	 0.0015945642	-1.9977712369	-0.5873021362	 0.149974
C	 0.076627023	-3.2165140533	-1.3864224531	-0.298135
C	 1.4222698242	-3.5037447041	-1.8678179323	 0.327831
C	 2.5222653543	-3.757967245	-2.2739073342	-0.439322
N	-0.1690574657	-2.0210757348	 0.7284844887	-0.119504
N	-0.1748874993	-0.7724385285	 1.1130955547	-0.256079
H	 0.8716115685	 1.8260439487	 0.6161742979	 0.150932
H	 0.1963939644	 1.8339161478	-1.0288854587	 0.147055
H	-0.8761797165	 1.8873265953	 0.3890242564	 0.149818
H	-0.2878056429	-4.0169405476	-0.7371749961	 0.179057
H	-0.6182867763	-3.1089303415	-2.2248911429	 0.169339
H	 3.4984653998	-3.9783880018	-2.6303545744	 0.214364
40.7231	50.159	82.7786	211.2695	261.3362	313.2555	322.4263	410.1037	464.9347	632.1609	663.8812	688.2272	712.498	736.4336	809.4668	958.276	967.8955	1001.7058	1050.0238	1071.8548	1101.1402	1169.1838	1257.3561	1339.0734	1377.6477	1391.857	1403.934	1429.243	1458.5971	1478.6186	1484.9182	1549.0718	2252.6102	3053.6315	3063.6003	3112.5032	3114.5102	3150.3423	3503.8246
CC1=NN(CC#C)N=N1	Cc1nn(CC#C)nn1	
InChI=1S/C5H6N4/c1-3-4-9-7-5(2)6-8-9/h1H,4H2,2H3	InChI=1S/C5H6N4/c1-3-4-9-7-5(2)6-8-9/h1H,4H2,2H3
