17
gdb 80408	2.4963	1.78087	1.33755	3.2775	67.88	-0.2257	-0.0307	0.195	989.6964	0.135129	-458.954185	-458.946105	-458.945161	-458.986634	31.025	
C	 0.0238861739	 1.5142596308	 0.1328899524	-0.50386
C	 0.0027002321	 0.0257453763	-0.0135549928	 0.295707
C	 0.6529096642	-0.7944477257	-1.1609047559	-0.293576
C	 0.682179268	-1.8404182967	-0.0343842058	 0.025865
O	 0.8335908939	-0.7482271053	 0.9435149753	-0.348761
C	-0.7885350619	-2.2160567528	 0.2157593971	 0.066873
O	-1.0012843787	-2.8492407783	 1.4533092123	-0.43577
C	-1.3174755078	-0.7436923423	 0.1737310801	 0.361618
O	-2.430479512	-0.3222893981	 0.3125643201	-0.31872
H	 1.0335970856	 1.9107448113	 0.0003616087	 0.129943
H	-0.6374047196	 1.9659614093	-0.6126807917	 0.141597
H	-0.3437275511	 1.8021562658	 1.1221356891	 0.144784
H	 0.0697510302	-0.9985242241	-2.0633832654	 0.11383
H	 1.6477128238	-0.4179391682	-1.4051630906	 0.12437
H	 1.4355731212	-2.6215884829	 0.0549993649	 0.098218
H	-1.2420198593	-2.8439410151	-0.555864901	 0.108171
H	-0.5600726826	-2.3014903938	 2.1161364933	 0.28971
92.0362	156.5598	215.701	238.2711	264.1575	323.6461	428.5694	457.7604	503.4023	524.3442	631.9568	683.4176	709.7806	798.5952	833.4694	866.9418	889.7978	910.1971	976.3176	1000.5239	1023.8424	1061.3815	1104.0826	1130.3418	1188.9456	1212.5271	1246.488	1253.4926	1278.0766	1301.8295	1347.7683	1417.823	1429.8505	1474.3979	1484.1968	1487.178	1883.201	3047.4858	3061.7044	3087.4028	3120.4468	3127.81	3132.9921	3138.195	3768.0872
CC12CC(O1)C(O)C2=O	C[C@@]12C[C@@H](O1)[C@@H](O)C2=O	
InChI=1S/C6H8O3/c1-6-2-3(9-6)4(7)5(6)8/h3-4,7H,2H2,1H3	InChI=1S/C6H8O3/c1-6-2-3(9-6)4(7)5(6)8/h3-4,7H,2H2,1H3/t3-,4-,6+/m1/s1
