25
gdb 116196	2.10028	1.42492	1.08139	1.0279	88.38	-0.2456	0.0763	0.3219	1294.9668	0.228353	-389.506438	-389.496058	-389.495114	-389.541365	39.15	
C	 0.1546023361	 1.6054569117	-0.4303330853	-0.236996
O	-0.2868377469	 0.2734213485	-0.5422723468	-0.254704
C	 0.667549649	-0.6086122776	-1.0960609069	 0.153887
C	 1.8599650068	-0.9502703426	-0.1704561319	-0.24551
C	 2.2635564278	-2.403775878	-0.5435705772	-0.219974
C	 1.2614870529	-2.8503199655	-1.63780738	-0.229854
C	 0.0109339152	-1.9660788874	-1.4428354897	 0.259479
C	-0.8443895353	-2.4774141016	-0.2683674902	-0.41675
C	-0.8536064436	-1.8632737648	-2.703138236	-0.44346
H	 0.9958802466	 1.7095764745	 0.2706683749	 0.106278
H	 0.4681352693	 2.012896023	-1.4050438026	 0.101303
H	-0.6856117161	 2.1964372612	-0.0566470993	 0.123919
H	 1.0542374011	-0.1694791734	-2.0332127338	 0.052266
H	 2.6878172443	-0.2461919354	-0.2887244586	 0.093776
H	 1.5273716322	-0.8823234783	 0.8701468228	 0.106736
H	 3.2956372421	-2.466898633	-0.8983041528	 0.095797
H	 2.1983075718	-3.0552115101	 0.3323808455	 0.103139
H	 1.6849906679	-2.6649980403	-2.6325020418	 0.089446
H	 1.0265991436	-3.9179736519	-1.5871875796	 0.091196
H	-0.2595771183	-2.5936766243	 0.6491252812	 0.108017
H	-1.6610068445	-1.7844975602	-0.0532901783	 0.128797
H	-1.2740150647	-3.4545332685	-0.514043144	 0.103371
H	-1.3048315502	-2.8287566041	-2.9571703115	 0.105765
H	-1.6632571132	-1.1414410221	-2.5551413154	 0.121757
H	-0.261164054	-1.5344755696	-3.5646619926	 0.102318
85.8675	93.0654	145.8561	183.5572	205.9366	216.0494	235.4928	272.2848	326.8233	342.819	370.1036	474.4909	507.2743	555.3578	628.2074	729.0141	800.9773	839.021	902.3989	934.3601	951.3117	965.8025	990.3447	1007.184	1026.7607	1059.6696	1080.3241	1102.2163	1156.1043	1178.6536	1185.0305	1219.3632	1242.3329	1250.1051	1260.3922	1273.5394	1317.3769	1323.8334	1332.8359	1364.6077	1392.6173	1398.9938	1420.7132	1478.2927	1481.6487	1484.0023	1488.4189	1494.0196	1497.2068	1502.6508	1510.2077	1512.6998	1516.5171	2932.8388	2972.5334	3021.8145	3022.8408	3029.1505	3038.6266	3049.7307	3060.6688	3075.2526	3086.1306	3088.553	3099.8246	3101.4253	3106.6252	3108.7794	3125.8192
COC1CCCC1(C)C	CO[C@H]1CCCC1(C)C	
InChI=1S/C8H16O/c1-8(2)6-4-5-7(8)9-3/h7H,4-6H2,1-3H3	InChI=1S/C8H16O/c1-8(2)6-4-5-7(8)9-3/h7H,4-6H2,1-3H3/t7-/m0/s1
