18
gdb 13606	4.12189	1.39093	1.1708	3.3255	70.34	-0.2412	0.0502	0.2914	1077.3048	0.153136	-381.135158	-381.126102	-381.125158	-381.169196	31.779	
C	-0.1283735274	 1.2820895648	-0.1591668472	-0.323518
N	 0.1243831046	-0.1432528353	-0.0848445114	-0.327381
C	 0.7667402901	-0.8043663896	-1.1012415045	 0.436335
O	 1.0195100243	-0.3091784526	-2.183216557	-0.397538
N	 1.161790759	-2.1051576297	-0.744640349	-0.134037
C	 0.2492536433	-3.1410214664	-0.2759884219	-0.267771
C	 0.943988531	-3.2569353132	-1.6004552934	 0.02838
C	 0.1688104631	-3.1528640012	-2.8929387024	-0.399283
H	 0.6270539518	 1.8695523179	 0.3788760528	 0.121964
H	-0.099922112	 1.5657889356	-1.2115833985	 0.16826
H	-1.1143790374	 1.5185882425	 0.252827047	 0.120099
H	 0.135924074	-0.5791914413	 0.8227907411	 0.246796
H	 0.5824789082	-3.7182287197	 0.5831584268	 0.118057
H	-0.8166084313	-2.9213492129	-0.2970243574	 0.123115
H	 1.8103232826	-3.9155456734	-1.6461693546	 0.097459
H	-0.7373766842	-2.5534617113	-2.7723111668	 0.125052
H	 0.7740492908	-2.6804561593	-3.6700702367	 0.150142
H	-0.1206061706	-4.153681295	-3.230280197	 0.11387
66.4798	89.0475	122.046	156.143	203.2145	221.9461	307.6593	377.9518	407.3139	485.428	516.1321	606.9711	775.6767	806.9705	842.9319	912.7513	924.4876	1033.1967	1053.9145	1093.8824	1121.3414	1150.9869	1159.9438	1161.0899	1173.9837	1194.6793	1234.9235	1362.6525	1405.8575	1425.9071	1442.1526	1483.5857	1489.161	1490.4031	1501.5921	1512.9865	1553.1081	1782.0937	3016.8803	3043.4994	3079.5159	3093.7244	3106.041	3119.4634	3132.4295	3154.7105	3180.9644	3641.1566
CNC(=O)N1CC1C	CNC(=O)N1C[C@H]1C	
InChI=1S/C5H10N2O/c1-4-3-7(4)5(8)6-2/h4H,3H2,1-2H3,(H,6,8)	InChI=1S/C5H10N2O/c1-4-3-7(4)5(8)6-2/h4H,3H2,1-2H3,(H,6,8)/t4-,7?/m1/s1
