15
gdb 130401	2.35784	1.46688	0.9233	5.799	76.68	-0.233	-0.0073	0.2257	1202.2774	0.114041	-412.950864	-412.942611	-412.941666	-412.984081	30.323	
N	 0.0289495198	 1.9745727928	 0.0573031335	-0.524038
H	-0.1765927751	 2.0345442405	-0.9343089211	 0.242656
H	 1.8892193579	 1.5756927796	 1.787554745	 0.287781
H	-0.449948643	 2.7537054266	 0.4997684327	 0.241787
C	-0.4760599405	 0.7048071248	 0.5969309414	-0.302611
C	 0.1047169016	 0.4656324131	 1.9528035481	 0.25297
C	-0.3111160855	-0.249715689	 3.0635466255	 0.105628
N	 0.6548518227	-0.1338247314	 4.0383942117	-0.271679
N	 1.6208342749	 0.6066948425	 3.5914658552	-0.121698
N	 1.2971020542	 0.9668519783	 2.3325124476	-0.203495
C	-1.5064330613	-0.9845397302	 3.2276740041	 0.281225
C	-2.5327822077	-1.6025353344	 3.3450893334	-0.449523
H	-1.5709809482	 0.6274857548	 0.6658950317	 0.126131
H	-0.1529707876	-0.0953837327	-0.0813856918	 0.139916
H	-3.4333437822	-2.1527622152	 3.4617453329	 0.19495
75.2938	121.6997	175.7123	201.4585	260.2065	306.7924	404.3682	489.6602	560.6492	571.4597	613.5633	639.9239	676.3788	709.7895	739.5393	764.6973	872.8094	991.15	1022.1496	1047.6915	1068.0299	1163.0648	1183.845	1235.8863	1288.1991	1324.4474	1373.8982	1416.7911	1487.7106	1504.8963	1598.9612	1661.1204	2239.2283	2998.5516	3040.3878	3499.1203	3503.3012	3581.0742	3644.8134
[NH3+]CC1=C([N-]N=N1)C#C	NCc1c(nn[nH]1)C#C	
InChI=1S/C5H5N4/c1-2-4-5(3-6)8-9-7-4/h1H,3,6H2/q-1/p+1	InChI=1S/C5H6N4/c1-2-4-5(3-6)8-9-7-4/h1H,3,6H2,(H,7,8,9)
