13
gdb 11146	6.09574	1.38667	1.13761	3.621	70.32	-0.2349	-0.0439	0.191	975.6267	0.095891	-357.631921	-357.624752	-357.623807	-357.663379	26.514	
N	-0.0433017432	 1.2906314996	 0.006597517	-0.555093
C	 0.0069894535	 0.0227099237	 0.00050976	 0.377676
C	-1.1826429657	-0.9351179876	 0.0025330474	-0.245089
N	-0.638236701	-2.2967697139	-0.0068440496	-0.307396
C	 0.6380218018	-2.1626116663	-0.0131537041	 0.236498
N	 1.1001651542	-0.8446335413	-0.0093380675	-0.383919
C	 1.5811739411	-3.2306077498	-0.0233391697	 0.261118
C	 2.408771429	-4.1021523345	-0.0319905184	-0.369852
H	 0.8863020286	 1.7135949881	 0.0035290036	 0.208732
H	-1.8120135607	-0.7812970548	 0.8859491789	 0.151288
H	-1.8216090562	-0.7730502179	-0.872486166	 0.151289
H	 2.0688375335	-0.5726279181	-0.0137837125	 0.263137
H	 3.1248438851	-4.8873459774	-0.039625959	 0.21161
93.6878	148.2902	177.8261	354.1352	397.9542	406.9048	528.5194	549.1978	571.1583	651.9251	676.8255	686.4651	728.8621	853.0499	893.7592	977.7825	979.015	1041.6993	1091.0471	1179.8336	1203.8827	1284.8178	1318.2839	1431.1063	1447.8704	1656.6354	1763.8561	2246.0783	3050.3753	3080.9799	3457.2083	3497.5261	3664.7463
N=C1CN=C(N1)C#C	[NH][C]1CN=C(N1)C#C	
InChI=1S/C5H5N3/c1-2-5-7-3-4(6)8-5/h1H,3H2,(H2,6,7,8)	InChI=1S/C5H5N3/c1-2-5-7-3-4(6)8-5/h1H,3H2,(H2,6,7,8)
