14
gdb 10051	3.53222	1.2526	0.98575	4.7306	62.17	-0.3033	0.0022	0.3055	1116.4474	0.106546	-378.741184	-378.732667	-378.731723	-378.774918	29.016	
O	 0.1018071966	 1.4020282916	-0.0191986404	-0.40989
C	 0.0424840399	 0.0008183863	-0.0435486501	-0.070099
C	-1.415244359	-0.5292040249	 0.0033281979	-0.160288
C	-1.441957183	-2.0763185855	-0.0749855809	-0.356855
C	-2.7895830567	-2.6212022291	-0.2121150147	 0.272809
N	-3.8578418703	-3.0430366882	-0.3331825033	-0.286038
C	-2.060815869	-0.0348669557	 1.2215187531	 0.274834
N	-2.5039116967	 0.3892396337	 2.2011632983	-0.309962
H	-0.1826475178	 1.7069273383	 0.8504212262	 0.304387
H	 0.4905512396	-0.3150168809	-0.9908994328	 0.12908
H	 0.6187878547	-0.4589086988	 0.7737259887	 0.112613
H	-1.9525006576	-0.1133972189	-0.8556134908	 0.159967
H	-0.8479074435	-2.3923515777	-0.9396534701	 0.16612
H	-0.9710131371	-2.5059333903	 0.815408589	 0.173321
61.0845	97.2899	134.985	166.1512	234.1195	281.7731	381.1589	389.9592	400.8834	489.2342	556.6371	639.3112	787.7398	902.5582	940.9002	1043.4071	1053.957	1073.4744	1104.992	1199.1183	1228.6866	1275.6061	1349.8621	1367.7892	1397.8801	1422.9024	1465.0442	1502.8028	2357.2205	2369.9916	2993.1527	3050.4093	3067.6071	3085.6479	3097.0439	3798.1042
OCC(CC#N)C#N	OC[C@@H](CC#N)C#N	
InChI=1S/C5H6N2O/c6-2-1-5(3-7)4-8/h5,8H,1,4H2	InChI=1S/C5H6N2O/c6-2-1-5(3-7)4-8/h5,8H,1,4H2/t5-/m0/s1
