21
gdb 32973	3.22535	1.06661	0.85147	1.5987	87.36	-0.1852	0.0513	0.2365	1418.1303	0.183468	-383.299583	-383.28996	-383.289015	-383.334781	35.183	
C	 0.2446714695	 1.5640225281	-0.1944034985	-0.393161
C	 0.6993962597	 0.1088794375	-0.2238029513	-0.117641
N	 0.0517445369	-0.6165209203	-1.3299854135	-0.399544
C	 0.3970761476	-1.9766419549	-1.4601566148	 0.282289
C	-0.1426409438	-3.1252931651	-0.9169977718	-0.232612
C	 0.5912830367	-4.2267719489	-1.4341039766	-0.155321
C	 1.560594328	-3.7173452783	-2.2655503659	-0.108607
N	 1.4372074504	-2.3488329815	-2.2907074202	-0.004524
C	 2.2560862369	-1.439808201	-3.0628872723	-0.340671
H	 0.4693373156	 2.0612123885	-1.1426416882	 0.124115
H	-0.8362788361	 1.6358190301	-0.0251421534	 0.113257
H	 0.7420399986	 2.1090630656	 0.613171149	 0.118246
H	 1.7826375607	 0.058343295	-0.3820390798	 0.106874
H	 0.5035343882	-0.3709478675	 0.7491059029	 0.092951
H	-0.9548051769	-0.523819753	-1.2525750684	 0.22687
H	-0.9751991828	-3.1605255613	-0.2302916046	 0.080653
H	 0.4286049127	-5.272086221	-1.2203277442	 0.088431
H	 2.3288479711	-4.2067603477	-2.8431975486	 0.105613
H	 2.4694131484	-1.8732269256	-4.0435762478	 0.131881
H	 1.7042687931	-0.5071810074	-3.1924274363	 0.154188
H	 3.2082043755	-1.2208321614	-2.5641648957	 0.126713
51.9976	71.601	117.5058	138.145	186.4529	248.4507	299.7115	332.6968	371.4803	455.3196	622.1066	654.1705	667.169	702.8825	732.2744	755.6629	796.186	820.3972	827.3654	897.6941	928.4114	1027.5137	1064.5554	1071.5275	1113.2475	1136.9937	1151.8021	1157.8475	1229.1186	1256.3595	1290.8721	1334.5897	1373.6949	1393.0428	1411.188	1434.2079	1456.1015	1479.854	1492.4563	1494.4112	1497.6796	1515.1137	1523.3679	1541.8955	1593.9088	2969.2919	3024.0167	3032.3682	3054.7541	3093.0121	3099.7414	3118.7082	3141.7546	3234.9182	3246.9795	3264.4233	3534.0858
CCNC1=CC=CN1C	CCNc1cccn1C	
InChI=1S/C7H12N2/c1-3-8-7-5-4-6-9(7)2/h4-6,8H,3H2,1-2H3	InChI=1S/C7H12N2/c1-3-8-7-5-4-6-9(7)2/h4-6,8H,3H2,1-2H3
