20
gdb 88078	3.32884	1.24655	1.15301	0.9494	79.	-0.2429	0.0777	0.3206	1161.1545	0.172028	-403.12259	-403.114476	-403.113532	-403.155134	31.862	
C	-0.0832701304	 1.5144681474	-0.0738751705	-0.397049
C	-0.0331570069	 0.0162314352	 0.1062840659	-0.058329
N	 1.2704480238	-0.6450131634	-0.1117167041	-0.384769
C	 0.6636184676	-0.6475697356	 1.2351177731	 0.342437
C	 1.4085607237	 0.0584816724	 2.3712669197	-0.295282
C	 1.9107906726	-1.0844202105	 3.2940545813	-0.249656
C	 0.9359336638	-2.2203207276	 3.0450797559	 0.045093
O	-0.440462515	-1.8150177069	 3.0914325183	-0.262478
C	 0.1902458802	-1.9520923475	 1.808457824	-0.043893
H	 0.828841855	 1.9847520743	 0.3003628	 0.126735
H	-0.1838370303	 1.7721100114	-1.1335971663	 0.119789
H	-0.9391876862	 1.9410060371	 0.4601332809	 0.119946
H	-0.9109005953	-0.5091646171	-0.2713151257	 0.080167
H	 1.1422896577	-1.5477269372	-0.5655930869	 0.224209
H	 2.2242055358	 0.6734300364	 1.9890128804	 0.114731
H	 0.7181094566	 0.7042977813	 2.9199795766	 0.117445
H	 2.9151073284	-1.4146535175	 3.0035909641	 0.109716
H	 1.9516991815	-0.7881351257	 4.3463216946	 0.109666
H	 1.137299684	-3.2257432636	 3.4063549377	 0.093891
H	-0.2146381566	-2.7277598929	 1.160475041	 0.087631
95.4303	159.3685	193.1323	197.1187	310.0744	368.4961	375.521	451.1503	504.1726	551.6399	681.5254	757.9262	812.0981	829.1021	845.1723	869.0765	882.7428	929.0309	958.1865	990.2165	1031.1281	1037.2311	1043.1778	1073.3163	1098.5952	1104.7276	1132.1434	1192.207	1215.7504	1238.4613	1253.7724	1284.3657	1309.5754	1318.0196	1332.693	1370.1916	1408.5733	1429.9418	1468.951	1476.2966	1486.8692	1493.9717	1504.5816	3036.6719	3042.8679	3070.2682	3091.0573	3096.6911	3097.9429	3125.5506	3127.6402	3132.4199	3148.6179	3475.9986
CC1NC11CCC2OC12	C[C@H]1N[C@]21CC[C@H]1O[C@@H]21	
InChI=1S/C7H11NO/c1-4-7(8-4)3-2-5-6(7)9-5/h4-6,8H,2-3H2,1H3	InChI=1S/C7H11NO/c1-4-7(8-4)3-2-5-6(7)9-5/h4-6,8H,2-3H2,1H3/t4-,5-,6-,7+/m1/s1
