20
gdb 126436	2.0373	1.48817	0.92482	2.2869	82.77	-0.1861	0.0348	0.2209	1313.8383	0.172197	-399.34695	-399.337412	-399.336468	-399.381677	34.878	
C	 0.0640175972	 1.5284748957	 0.1138460227	-0.373339
C	-0.0546933016	 0.0064943047	-0.0861024652	-0.297399
C	 0.7224979804	-0.5043455292	-1.260859535	 0.278589
N	 0.1336457307	-0.7496911216	-2.4309639485	-0.288975
N	 1.1200240238	-1.168912858	-3.2362524394	-0.198748
C	 2.338753179	-1.1971528415	-2.6241204318	-0.119394
C	 2.119741247	-0.7712492099	-1.3269473196	 0.169573
N	 3.0312387997	-0.6808224632	-0.2698761453	-0.39194
C	 4.4397730679	-0.8038192997	-0.5978410476	-0.32334
H	 1.1048378495	 1.838628037	 0.2622762504	 0.104304
H	-0.3137242182	 2.0620456171	-0.7632418983	 0.129149
H	-0.5078023866	 1.8557784722	 0.9881395757	 0.111056
H	 0.2838887378	-0.5087508278	 0.8219111211	 0.102847
H	-1.1062984364	-0.259431178	-0.2296692755	 0.118625
H	 0.9011634028	-1.4380131132	-4.1789033699	 0.268411
H	 3.2289916823	-1.5156398226	-3.1400743457	 0.12115
H	 2.8435181976	 0.109418574	 0.3309616916	 0.234241
H	 4.6427037889	-1.8136694787	-0.972328565	 0.128978
H	 4.7818507591	-0.0869794254	-1.3636749299	 0.104983
H	 5.0361887993	-0.6588668519	 0.3061972249	 0.121229
56.1828	91.0169	151.1587	171.7717	207.6814	229.4895	294.7222	320.4717	385.4171	446.0039	490.0528	569.0298	642.0812	660.8998	714.5661	752.7478	776.7204	789.5674	947.9711	969.7426	1054.3714	1068.422	1083.5559	1089.0011	1141.4994	1163.2076	1206.2418	1233.4112	1285.5444	1336.4902	1354.4682	1405.3506	1413.9177	1456.6904	1464.5075	1474.4893	1481.14	1485.4721	1494.7584	1505.9225	1519.8887	1548.9636	1633.8532	2959.2088	3026.9232	3029.3522	3056.0699	3078.6513	3098.6748	3113.6798	3114.884	3272.5778	3578.7212	3688.5841
CCC1=NNC=C1NC	CCc1n[nH]cc1NC	
InChI=1S/C6H11N3/c1-3-5-6(7-2)4-8-9-5/h4,7H,3H2,1-2H3,(H,8,9)	InChI=1S/C6H11N3/c1-3-5-6(7-2)4-8-9-5/h4,7H,3H2,1-2H3,(H,8,9)
