17
gdb 17123	6.66362	1.11517	1.02046	3.9604	69.81	-0.2444	0.04	0.2844	1138.4756	0.142712	-363.873466	-363.865847	-363.864903	-363.905992	28.39	
O	-0.0518735561	-0.0670612584	 0.1030579574	-0.359021
C	-0.0537379488	 1.1327239053	 0.0439103456	 0.427841
C	-1.1202243594	 2.2554774866	 0.0791454658	-0.408687
C	 0.0774729337	 3.2498164378	-0.0427220146	 0.048233
N	 0.9495684019	 2.0640826776	-0.077817748	-0.325356
C	 0.1323523722	 4.1312564906	-1.260007669	 0.021717
C	-0.3787013012	 5.548000134	-1.1813686381	-0.267746
C	 1.1000646807	 5.2896763723	-1.3127417473	-0.27535
H	-1.8032225963	 2.2526021847	-0.7725029553	 0.130012
H	-1.6903853333	 2.3071843159	 1.0080492192	 0.130156
H	 0.2274358281	 3.8538805862	 0.8616599973	 0.077732
H	 1.9524375737	 1.9644647958	-0.1393434123	 0.247461
H	-0.0383755726	 3.6021609326	-2.1941529694	 0.088473
H	-0.9132984519	 5.9466930497	-2.0357951513	 0.118502
H	-0.7481462925	 5.9008980313	-0.2238993594	 0.115198
H	 1.7233820316	 5.4707900816	-0.4426406974	 0.112607
H	 1.5826040101	 5.5120850764	-2.2576694531	 0.118227
62.0971	81.2591	187.9005	278.9458	355.9116	396.2212	417.3419	518.2405	567.0007	737.516	770.1498	808.5807	831.5432	899.3947	928.39	963.1735	966.8458	999.7153	1038.9183	1060.2202	1080.7748	1090.5577	1135.9949	1175.5733	1193.2058	1198.557	1218.5575	1230.2802	1273.9271	1327.6143	1380.2807	1438.4834	1461.2226	1470.219	1506.3285	1896.2141	3016.9524	3086.4644	3130.1908	3135.2268	3140.9899	3145.4343	3209.9652	3224.9129	3606.1592
O=C1CC(N1)C1CC1	O=C1C[C@@H](N1)C1CC1	
InChI=1S/C6H9NO/c8-6-3-5(7-6)4-1-2-4/h4-5H,1-3H2,(H,7,8)	InChI=1S/C6H9NO/c8-6-3-5(7-6)4-1-2-4/h4-5H,1-3H2,(H,7,8)/t5-/m1/s1
