21
gdb 72619	2.42229	1.40972	1.1964	0.8674	90.59	-0.235	0.0502	0.2852	1172.5916	0.180321	-349.908787	-349.899195	-349.898251	-349.942355	36.958	
C	 0.0650716968	 1.5976526195	 0.0184905238	-0.496251
C	 0.1068567639	 0.097809624	 0.039181101	 0.293854
C	 0.5550623539	-0.7855930219	-1.1336354223	-0.286008
C	 1.1751316226	-1.7954988515	-0.1138431743	-0.285999
C	 0.7136765471	-0.8907123161	 1.0373434969	 0.293844
C	 1.4640991392	-0.6814534734	 2.3198326372	-0.496246
C	-0.8062707462	-0.7533360739	 0.9243968165	-0.310953
C	-1.5245908777	-0.1186987315	 1.9896001748	 0.298794
C	-2.1418175102	 0.4036609685	 2.8819610889	-0.426635
H	 1.0319019911	 2.0130135025	-0.2878123491	 0.113047
H	-0.6897409827	 1.957494498	-0.6914636539	 0.121248
H	-0.1879667762	 2.0039505068	 1.0012102668	 0.133345
H	-0.2400987439	-1.1597420737	-1.7871851447	 0.095589
H	 1.3155392063	-0.30415575	-1.7539264629	 0.102659
H	 0.7765692903	-2.8155650442	-0.1152004648	 0.095583
H	 2.2639792491	-1.8488571082	-0.1940560915	 0.102663
H	 2.4981508222	-0.3756458145	 2.1240653968	 0.113045
H	 0.9904658982	 0.0843508513	 2.9395579637	 0.133343
H	 1.4981885604	-1.6068868394	 2.9077737361	 0.121249
H	-1.3530402521	-1.5685401884	 0.449480472	 0.095283
H	-2.6911069121	 0.859859886	 3.6674925789	 0.188546
132.466	134.5887	180.109	188.1013	190.9291	217.9386	313.1861	334.5044	361.9057	440.0117	487.7668	522.4864	566.5731	647.6759	659.5365	680.8843	697.5336	781.2272	848.2138	920.5561	939.4409	965.6527	984.5583	1024.4947	1036.2969	1096.9843	1112.672	1147.8128	1184.8925	1219.512	1225.9751	1236.2961	1240.5317	1326.3842	1349.4366	1411.753	1413.9267	1433.1003	1479.12	1485.9071	1490.3953	1494.1203	1498.5707	1509.1219	2227.5499	3022.9511	3024.4747	3039.2147	3047.1425	3078.2937	3079.3108	3087.5207	3088.8817	3106.6988	3114.9224	3117.1204	3504.7568
CC12CCC1(C)C2C#C	C[C@@]12CC[C@]1(C)[C@H]2C#C	
InChI=1S/C9H12/c1-4-7-8(2)5-6-9(7,8)3/h1,7H,5-6H2,2-3H3	InChI=1S/C9H12/c1-4-7-8(2)5-6-9(7,8)3/h1,7H,5-6H2,2-3H3/t7-,8-,9+
