20
gdb 82377	2.38058	1.97003	1.35526	1.4724	77.86	-0.2192	0.0912	0.3105	1010.9786	0.172707	-403.114568	-403.106884	-403.105939	-403.146315	30.954	
C	-0.9191610077	 1.1482066602	 0.0882520729	-0.386467
C	 0.0110236322	-0.0613796905	-0.0375028155	 0.005767
C	 0.7930004178	-0.0272717126	-1.3394113831	 0.055845
O	 1.865995663	 0.9209552597	-1.4553197257	-0.261142
C	 2.1863283189	-0.4780863976	-1.4019604795	 0.04011
C	 2.8796002998	-0.9985421447	-0.1655192192	-0.269073
C	 2.1869177934	-0.6523709436	 1.1446358619	-0.016419
C	 1.8572612342	 0.7575364456	 1.5046304778	-0.255388
N	 0.7946001567	-0.205744593	 1.1943243675	-0.105436
H	-0.3442426665	 2.0788783393	 0.0845829582	 0.129854
H	-1.6270337107	 1.1821952127	-0.7457489647	 0.11135
H	-1.4824398985	 1.0914454197	 1.023216328	 0.125756
H	-0.6131479567	-0.9662719581	-0.0987531396	 0.084973
H	 0.176382853	-0.1099184031	-2.2368696049	 0.08768
H	 2.5645543903	-0.8739363873	-2.3451073576	 0.092199
H	 2.9332424184	-2.090975207	-0.2645979163	 0.110412
H	 3.9181876246	-0.6440521407	-0.1433206568	 0.118891
H	 2.4457842821	-1.3309485275	 1.9564619088	 0.087819
H	 1.8948427637	 1.0757354376	 2.5441352655	 0.103865
H	 2.0984889618	 1.5189422108	 0.7717854426	 0.139406
120.5468	213.7966	243.7436	251.8042	328.6468	339.153	407.3935	472.8782	509.9824	662.371	697.68	733.8397	757.8039	831.6866	851.6084	881.8315	929.1336	946.7079	973.2845	1025.4507	1042.2131	1056.6027	1087.4001	1112.1272	1130.287	1139.1646	1151.8072	1179.7228	1191.1311	1251.6065	1291.2976	1324.7231	1342.1923	1356.6152	1368.8251	1379.6163	1405.4445	1418.4623	1473.0275	1487.7887	1491.0987	1499.2289	1500.4627	2986.4591	3017.8197	3042.6425	3049.0847	3084.9724	3102.7147	3105.0516	3108.6102	3114.201	3125.0807	3212.9761
CC1C2OC2CC2CN12	C[C@H]1[C@H]2O[C@H]2C[C@H]2CN12	
InChI=1S/C7H11NO/c1-4-7-6(9-7)2-5-3-8(4)5/h4-7H,2-3H2,1H3	InChI=1S/C7H11NO/c1-4-7-6(9-7)2-5-3-8(4)5/h4-7H,2-3H2,1H3/t4-,5-,6-,7+,8?/m0/s1
