20
gdb 97454	9.64076	0.41979	0.40634	3.077	90.69	-0.2477	0.0247	0.2723	2673.308	0.167233	-403.121913	-403.110397	-403.109453	-403.162705	37.424	
C	 0.0050006611	 1.3896069421	-0.0482187051	-0.314469
N	 0.0631313178	-0.0565866348	-0.040259793	-0.204581
C	-1.0290546306	-0.678624506	-0.0205136872	 0.132738
O	-1.0539949112	-2.0268272297	-0.0119224478	-0.203317
C	-2.3477687612	-2.6275482067	 0.0105613634	-0.066593
C	-2.1397752291	-4.1433815071	 0.0169603834	-0.349302
C	-3.4063168135	-4.8646007752	 0.0397857059	 0.032336
C	-4.4670766747	-5.4335084865	 0.0586858489	 0.080846
C	-5.7410541033	-6.1381303676	 0.0814963848	-0.496579
H	 0.5425791149	 1.7844302537	 0.8215535956	 0.127823
H	 0.5168680167	 1.7737137834	-0.9380689835	 0.127823
H	-1.0189616795	 1.7988074274	-0.0357484617	 0.094582
H	-2.0235264432	-0.2038162587	-0.0088803274	 0.072516
H	-2.9005569305	-2.3164421533	 0.9060328162	 0.117307
H	-2.9263312579	-2.3274845079	-0.8723077866	 0.117308
H	-1.5529083608	-4.4179170645	-0.8678124322	 0.142454
H	-1.5274773897	-4.4070161858	 0.8877035954	 0.142453
H	-5.8562716335	-6.7815519153	-0.7976985906	 0.149409
H	-5.8297583038	-6.7722746129	 0.9704522953	 0.149412
H	-6.5829387781	-5.4370600847	 0.0904380065	 0.147832
11.2968	21.102	50.3298	58.8674	116.5729	154.8407	206.8963	224.8793	284.3468	291.3717	308.5099	392.4063	421.1884	510.3628	606.6525	787.491	793.4405	981.3898	1027.9759	1050.3006	1050.7497	1054.8078	1087.4822	1098.9573	1141.4718	1155.9912	1169.2535	1226.8599	1249.9481	1306.9139	1315.999	1393.7941	1415.5575	1430.4887	1450.7521	1478.2008	1479.1574	1479.3676	1480.5554	1505.2424	1519.2768	1782.0194	2377.2147	2963.4433	2983.5909	3014.2274	3027.0948	3033.0536	3050.9158	3056.4831	3075.6259	3075.9794	3087.75	3088.1785
CN=COCCC#CC	CN=COCCC#CC	
InChI=1S/C7H11NO/c1-3-4-5-6-9-7-8-2/h7H,5-6H2,1-2H3	InChI=1S/C7H11NO/c1-3-4-5-6-9-7-8-2/h7H,5-6H2,1-2H3
