20
gdb 102827	2.5897	1.04171	0.8107	2.5013	75.72	-0.2422	-0.0432	0.1991	1421.4214	0.169703	-440.258683	-440.249055	-440.248111	-440.293971	34.654	
O	 0.4415136427	 1.3519290812	 0.0536862847	-0.429379
C	 0.2385475652	 0.0127102818	-0.3240190112	-0.062863
C	-1.2031878012	-0.5004492447	-0.078170025	-0.056353
C	-2.1759258715	-0.236183761	-1.2447883568	-0.30083
C	-2.4706604029	 1.1870821021	-1.6393273731	 0.153805
O	-1.8899445602	 2.1783717437	-1.2616178175	-0.24664
C	-1.1984738995	-1.9900473588	 0.2176578229	 0.023969
C	-1.008041335	-2.4932137063	 1.5974971424	-0.251099
N	-2.3207901827	-2.6252212889	 0.9308366374	-0.329351
H	-0.25575069	 1.8767487971	-0.3676350293	 0.298428
H	 0.512904619	-0.1672333014	-1.3795123745	 0.074174
H	 0.9258967529	-0.5831681008	 0.2860068518	 0.107327
H	-1.5677033394	 0.0251954736	 0.814811915	 0.085881
H	-1.8156098283	-0.7313458785	-2.1619072826	 0.139893
H	-3.147691175	-0.7135202663	-1.0516554984	 0.133888
H	-3.3118987591	 1.2865636677	-2.3596097923	 0.099095
H	-0.8207081427	-2.607189227	-0.5979700162	 0.092229
H	-0.4886429514	-3.4305701703	 1.7736931143	 0.122639
H	-0.9022185768	-1.7605906935	 2.3936708501	 0.119174
H	-2.9455645641	-1.9047894898	 1.2886878081	 0.226013
61.7549	79.5475	108.8236	164.6332	171.6124	235.0526	258.8534	293.5438	417.4588	442.073	479.2955	588.6945	656.0694	748.6274	821.9709	842.992	873.2002	931.4398	952.8687	967.8408	976.5265	1046.0082	1094.7157	1109.4788	1114.3644	1133.2505	1165.7585	1195.6956	1216.6418	1250.8789	1271.4551	1273.3203	1311.8548	1329.5489	1372.3131	1398.5915	1424.395	1430.3806	1442.2378	1475.8441	1510.1346	1511.2777	1812.8492	2898.786	2934.464	2994.4121	3020.9772	3033.5422	3063.6386	3103.4689	3109.4972	3195.1593	3478.3294	3695.0502
OCC(CC=O)C1CN1	OC[C@@H](CC=O)[C@H]1CN1	
InChI=1S/C6H11NO2/c8-2-1-5(4-9)6-3-7-6/h2,5-7,9H,1,3-4H2	InChI=1S/C6H11NO2/c8-2-1-5(4-9)6-3-7-6/h2,5-7,9H,1,3-4H2/t5-,6-/m1/s1
