18
gdb 73755	2.47119	1.54923	1.03625	4.6367	85.01	-0.2412	-0.0355	0.2057	1158.6753	0.148643	-364.84346	-364.835312	-364.834367	-364.876073	31.145	
C	 0.0635367201	 1.495375329	 0.0903535694	-0.508942
C	 0.0058179988	 0.0067243361	 0.0157381509	 0.209395
C	-0.0333797476	-0.7578686867	-1.0955654729	 0.136634
C	-0.0633345507	-0.2577783805	-2.4254150484	 0.189971
N	-0.097711859	 0.1351139088	-3.5155412858	-0.354686
C	-0.0034352003	-2.2229318125	-0.7847269267	-0.142753
C	 1.2537501293	-2.7012467974	-0.0894371041	-0.278562
C	 0.0580280686	-2.2931494683	 0.7312765155	-0.044823
C	-0.0027050197	-0.8622873582	 1.2585967797	-0.309282
H	 0.9879898312	 1.8266607949	 0.5797844728	 0.137992
H	 0.0167098757	 1.9534040832	-0.9001179396	 0.15354
H	-0.7649277912	 1.8848335669	 0.6952229279	 0.136146
H	-0.5818122954	-2.9109507639	-1.3893717844	 0.104491
H	 1.4768270719	-3.7616768727	-0.1381273778	 0.118806
H	 2.1247617575	-2.0538748116	-0.1152563557	 0.1171
H	-0.4780715517	-3.0666974285	 1.2671142996	 0.095382
H	 0.8350487045	-0.6168136103	 1.924618652	 0.120338
H	-0.9167910622	-0.6809659281	 1.8409776476	 0.119251
130.931	142.351	157.8663	178.1175	307.8961	337.3126	403.5258	443.3693	506.2298	563.323	625.6324	686.5157	732.7301	806.8495	817.348	881.6437	922.6806	957.5578	977.6103	1015.4198	1058.6205	1068.275	1093.236	1101.7751	1129.9061	1180.2899	1191.4988	1205.0464	1238.0868	1328.6691	1359.3769	1379.9277	1415.4001	1467.6348	1477.8943	1479.2831	1483.432	1677.6071	2330.5438	3011.7739	3022.968	3041.3029	3069.163	3126.2095	3126.9652	3182.0602	3188.6471	3216.3818
CC1=C(C#N)C2CC2C1	CC1=C(C#N)[C@H]2C[C@H]2C1	
InChI=1S/C8H9N/c1-5-2-6-3-7(6)8(5)4-9/h6-7H,2-3H2,1H3	InChI=1S/C8H9N/c1-5-2-6-3-7(6)8(5)4-9/h6-7H,2-3H2,1H3/t6-,7+/m1/s1
