17
gdb 7067	3.37059	1.29404	0.99713	3.325	71.26	-0.2498	0.0257	0.2755	1154.4977	0.140073	-363.860356	-363.851203	-363.850259	-363.894531	32.562	
C	 0.0287975875	 1.5963541707	-0.0158043192	-0.397917
C	-0.0297910941	 0.066132923	-0.02643598	 0.073885
C	 0.6654115809	-0.4985133769	-1.2843644806	-0.380257
C	 0.7056945089	-1.955457544	-1.3313455948	 0.274827
C	 0.7467412851	-3.1571439192	-1.3310245785	-0.426716
N	 0.6025279856	-0.5056355669	 1.1636463675	-0.280078
C	 0.0666319517	-0.3794838429	 2.4065688148	 0.155443
O	-0.880856561	 0.3231867735	 2.6931548004	-0.325154
H	 1.0674585721	 1.943391207	-0.0020813833	 0.113523
H	-0.4613545785	 2.0003786972	-0.9075599763	 0.11222
H	-0.481462387	 1.9781629047	 0.8688367943	 0.160146
H	-1.0821725814	-0.2449899843	-0.0397888861	 0.110435
H	 0.1423949595	-0.1099544925	-2.1653224666	 0.143768
H	 1.688621825	-0.1021888001	-1.3341903624	 0.137023
H	 0.7748997833	-4.2186380548	-1.3534086667	 0.202994
H	 1.2516652189	-1.2653426965	 1.0202041964	 0.249813
H	 0.6116474436	-0.9911298681	 3.153788141	 0.076045
52.78	84.8383	135.2304	204.0604	239.4145	260.7588	319.7664	351.0508	363.7456	457.8034	520.373	536.0432	631.8731	651.7869	773.1102	852.7274	900.8207	932.7301	991.0616	1032.4373	1096.1613	1113.3363	1144.2531	1212.8165	1263.4611	1308.9062	1359.3219	1384.5322	1403.6745	1430.7937	1466.1655	1479.544	1510.909	1523.3372	1801.862	2235.9396	2929.4464	3017.9235	3029.9642	3039.9786	3069.2005	3106.4177	3152.2904	3504.2179	3607.8792
CC(CC#C)NC=O	C[C@@H](CC#C)NC=O	
InChI=1S/C6H9NO/c1-3-4-6(2)7-5-8/h1,5-6H,4H2,2H3,(H,7,8)	InChI=1S/C6H9NO/c1-3-4-6(2)7-5-8/h1,5-6H,4H2,2H3,(H,7,8)/t6-/m0/s1
