17
gdb 46744	2.81957	1.7683	1.37582	2.1992	70.53	-0.2318	-0.0287	0.2031	953.6051	0.136863	-421.806658	-421.799519	-421.798575	-421.838764	27.727	
O	-0.0751045721	 0.0576276934	 0.4181937968	-0.304665
C	-0.0893599081	 1.21224222	 0.0826043327	 0.360767
C	-1.3263673503	 1.9828427107	-0.4051656874	-0.18332
O	-0.9839990384	 3.354984281	-0.5025730817	-0.272754
C	 0.430418577	 3.5338099	-0.4010888113	 0.089516
C	 0.950905837	 4.2039475636	 0.8833191908	-0.056561
C	 0.43870459	 3.4817378051	 2.0944812497	-0.296791
C	 1.5688723417	 2.8676163358	 1.3208227705	-0.052624
C	 1.0706892151	 2.1946246352	 0.0219464682	-0.173594
H	-1.6383442342	 1.5766461053	-1.3806636187	 0.12493
H	-2.1610693355	 1.8490772492	 0.2932999578	 0.135194
H	 0.8140889369	 3.9868091073	-1.3198168918	 0.085861
H	 1.3694866034	 5.2007015378	 0.935567225	 0.093113
H	 0.7291018775	 3.9232079288	 3.0420865895	 0.12116
H	-0.5562012318	 3.0464572964	 2.1023581437	 0.123019
H	 2.5361679738	 2.6729711127	 1.7645313079	 0.100383
H	 1.873513868	 1.8174042978	-0.6134953216	 0.106366
74.6077	91.7518	212.2776	334.1963	443.8218	518.8102	569.8952	585.6793	647.0022	750.3662	760.0782	789.0588	821.976	899.8549	928.4511	946.4257	982.1015	993.9316	999.9058	1038.1344	1054.382	1065.9409	1079.6232	1101.1301	1164.206	1186.5698	1195.027	1206.8543	1251.8272	1268.0859	1294.2338	1325.5088	1355.4304	1367.014	1486.0176	1497.0189	1853.0815	2982.886	3054.7361	3062.6355	3104.6724	3125.9626	3192.2273	3200.3035	3212.2725
O=C1COC2C3CC3C12	O=C1CO[C@H]2[C@H]3C[C@H]3[C@@H]12	
InChI=1S/C7H8O2/c8-5-2-9-7-4-1-3(4)6(5)7/h3-4,6-7H,1-2H2	InChI=1S/C7H8O2/c8-5-2-9-7-4-1-3(4)6(5)7/h3-4,6-7H,1-2H2/t3-,4+,6+,7+/m1/s1
