18
gdb 30797	3.0294	1.18014	0.88736	2.112	77.97	-0.184	0.0218	0.2058	1309.0875	0.147625	-439.113188	-439.103907	-439.102963	-439.147282	34.184	
C	 0.1003891614	 1.4737849213	 0.0988233422	-0.491699
C	-0.0399029141	-0.0043515291	 0.0209981947	 0.355368
C	-1.1137410545	-0.827175684	-0.1424563097	-0.33654
C	-0.6079514661	-2.1705091442	-0.1360369569	 0.167903
N	-1.3509946565	-3.3536376573	-0.205331494	-0.613959
C	 0.7452202374	-2.0655225291	 0.0310469374	 0.231501
C	 1.8121684591	-3.0982897631	 0.1125424244	-0.188658
O	 1.6471791099	-4.1156606665	-0.8839980898	-0.413742
O	 1.0977657944	-0.7361503128	 0.1259345904	-0.220254
H	 0.747494917	 1.8602116137	-0.6971685249	 0.135363
H	-0.8796111549	 1.9461571445	 0.0020179025	 0.133484
H	 0.5380847952	 1.7856194815	 1.0540799056	 0.138284
H	-2.1430032514	-0.5196660336	-0.2510530981	 0.098702
H	-2.1728706217	-3.2744532122	-0.7891481631	 0.239737
H	-0.778621621	-4.1333062167	-0.5074126981	 0.251085
H	 2.7945654699	-2.609373016	 0.0428623609	 0.110272
H	 1.7885426805	-3.6478127	 1.0617599318	 0.123007
H	 1.6148492654	-3.6653046962	-1.7356690554	 0.280145
75.1707	113.6036	143.3678	197.4912	219.4406	266.1951	326.7432	334.0481	381.2238	434.7734	469.4988	593.6572	628.0673	659.9014	719.7896	769.1686	786.281	810.165	944.7461	992.075	1017.6668	1033.6997	1062.408	1072.3308	1165.0884	1185.2399	1242.3927	1279.7846	1313.1065	1364.4644	1410.148	1419.3089	1472.53	1474.3391	1497.0612	1502.545	1599.3177	1652.4784	1689.9903	3003.4531	3028.799	3044.9623	3078.0357	3128.9095	3245.0683	3529.133	3625.2067	3797.0203
CC1=CC(N)=C(CO)O1	Cc1cc(N)c(CO)o1	
InChI=1S/C6H9NO2/c1-4-2-5(7)6(3-8)9-4/h2,8H,3,7H2,1H3	InChI=1S/C6H9NO2/c1-4-2-5(7)6(3-8)9-4/h2,8H,3,7H2,1H3
