20
gdb 116020	2.48369	1.39695	0.93204	3.6291	82.69	-0.225	-0.0476	0.1774	1276.2331	0.171765	-403.176002	-403.167184	-403.16624	-403.209786	33.196	
C	 0.0677272807	 1.5517323931	 0.0539629579	-0.403791
C	 0.0037247513	 0.0273033148	-0.0747089148	-0.180412
C	-1.4164788417	-0.5410673215	-0.0391782591	-0.081893
N	-2.1600324603	-0.2005223294	-1.2530172045	-0.313487
C	-3.5410337188	-0.6561331379	-1.2501873234	-0.216624
C	-3.6190949915	-2.1193482795	-0.9389012524	-0.033597
C	-2.6134867879	-2.7759497582	-0.3510765295	-0.143034
C	-1.4070074005	-2.0702311648	 0.1228896816	 0.400848
O	-0.4974870482	-2.6530884869	 0.6784175769	-0.338513
H	 1.1065616193	 1.8943951312	 0.076869345	 0.120837
H	-0.4157071258	 2.064314462	-0.7858559511	 0.109627
H	-0.4150802757	 1.8940526254	 0.9764441716	 0.115386
H	 0.4784028301	-0.2938059194	-1.0090660342	 0.107367
H	 0.5613675325	-0.4436953435	 0.7388062466	 0.125413
H	-1.9187994851	-0.1591927605	 0.8780519906	 0.069519
H	-2.1277694513	 0.8003109117	-1.4080755017	 0.224154
H	-4.1885920441	-0.1193559046	-0.5233974376	 0.099747
H	-3.9793230891	-0.4682636916	-2.238298785	 0.11863
H	-4.5389685325	-2.6328467624	-1.2066779871	 0.111761
H	-2.6543409914	-3.8403483179	-0.1427131598	 0.10806
71.1259	90.2716	169.5597	208.0637	240.4087	318.8254	326.1233	393.9382	452.6229	503.0506	532.9316	634.7443	700.4661	739.921	773.8484	829.8025	883.9754	910.628	970.1096	992.8494	1019.5542	1035.0985	1060.421	1109.3167	1134.3138	1152.8761	1186.2645	1221.3729	1251.2695	1293.0945	1298.04	1331.2327	1378.4126	1398.6699	1413.7993	1416.7467	1479.0521	1481.539	1488.3691	1501.3686	1513.568	1690.0556	1778.7082	2846.4449	2870.146	3026.4896	3039.4981	3048.1878	3079.9746	3103.1644	3111.2455	3162.6266	3191.5052	3540.6024
CCC1NCC=CC1=O	CC[C@H]1NCC=CC1=O	
InChI=1S/C7H11NO/c1-2-6-7(9)4-3-5-8-6/h3-4,6,8H,2,5H2,1H3	InChI=1S/C7H11NO/c1-2-6-7(9)4-3-5-8-6/h3-4,6,8H,2,5H2,1H3/t6-/m1/s1
