20
gdb 73853	2.68848	1.30823	0.89936	3.9742	83.47	-0.2351	0.0198	0.2548	1302.4601	0.170939	-403.211245	-403.201663	-403.200719	-403.246538	34.633	
C	 0.1663252424	 1.5581762245	-0.1754675597	-0.481947
C	-0.0116832843	 0.0738219305	 0.0136888789	 0.205295
C	-1.1778777985	-0.5826090755	 0.0362580644	 0.189697
C	-2.5368062698	 0.0479500818	-0.1243199007	-0.478421
C	-1.2402631074	-2.0773173881	 0.2328117882	-0.404338
C	 0.0699939586	-2.8246809484	 0.4070228064	 0.392287
O	 0.1030350244	-4.0311710652	 0.570894189	-0.38321
N	 1.2011320272	-2.0695470964	 0.3693741111	-0.324852
C	 1.3070441256	-0.6381021361	 0.1828660723	-0.220402
H	 0.7841465002	 1.7675174445	-1.0584654425	 0.126262
H	-0.7751649637	 2.0923440133	-0.2974178087	 0.128561
H	 0.6908061604	 2.0003975193	 0.6815857253	 0.1262
H	-2.5088244405	 1.128094586	-0.2681944863	 0.123634
H	-3.0628582105	-0.3912983229	-0.9817672554	 0.128168
H	-3.1597033063	-0.1574247605	 0.7558595837	 0.128182
H	-1.8590331011	-2.3213998879	 1.1073515015	 0.13651
H	-1.7617167788	-2.5512274809	-0.6102754188	 0.13652
H	 2.0529807669	-2.5986994309	 0.4882627428	 0.24435
H	 1.9373243533	-0.4256398738	-0.6963275188	 0.11375
H	 1.8405440918	-0.1925760134	 1.0385630272	 0.113754
35.2351	92.712	115.0606	136.152	168.1441	303.1886	319.4315	350.5752	427.8969	464.3003	489.5341	532.7622	541.7104	658.6054	710.1066	750.664	858.3729	919.8099	927.3015	984.5067	1003.9594	1063.4144	1083.1078	1112.6242	1139.2411	1160.94	1220.8431	1242.1271	1262.9215	1339.9865	1362.3045	1399.3828	1410.1742	1422.9469	1450.9644	1478.2087	1484.3594	1485.7553	1493.8932	1499.2832	1532.8469	1762.1922	1791.9959	2962.8564	2971.2562	3015.139	3018.4221	3022.3078	3037.4559	3058.7855	3061.3982	3135.6129	3153.1826	3607.5038
CC1=C(C)CC(=O)NC1	CC1=C(C)CC(=O)NC1	
InChI=1S/C7H11NO/c1-5-3-7(9)8-4-6(5)2/h3-4H2,1-2H3,(H,8,9)	InChI=1S/C7H11NO/c1-5-3-7(9)8-4-6(5)2/h3-4H2,1-2H3,(H,8,9)
