23
gdb 94458	2.59227	1.39538	1.18742	1.3318	85.34	-0.2318	0.0803	0.3121	1189.4415	0.206898	-388.29896	-388.290134	-388.289189	-388.332523	34.43	
C	-0.7137584795	 1.1661552968	 0.0236197915	-0.429836
C	 0.1480855403	-0.0824502856	-0.0768682914	 0.007104
C	 1.558408476	-0.0108619901	-0.7231580105	-0.241418
C	 2.0315903459	-1.0888835216	 0.2869855721	-0.289416
C	 0.8105803096	-0.7407904027	 1.1795244867	 0.432712
C	 1.1035664237	 0.1656440053	 2.3885794378	-0.284422
C	-0.0075107497	-0.2105913208	 3.3787844858	-0.229824
C	-0.1540558961	-1.7063289969	 3.0933595644	-0.071316
O	 0.0852525774	-1.8545744754	 1.6974360878	-0.309637
H	-0.1725528786	 2.0040519856	 0.4768682411	 0.110619
H	-1.0399734045	 1.492736682	-0.970222145	 0.115291
H	-1.6150416031	 0.9840818195	 0.619976178	 0.116527
H	-0.4222801691	-0.8824485081	-0.5623579475	 0.082072
H	 1.6374593681	-0.2427511005	-1.7873148126	 0.096442
H	 2.0374882954	 0.9569951871	-0.5422880552	 0.095072
H	 1.9238121627	-2.0994062234	-0.1153932196	 0.109666
H	 3.0265972438	-0.9843205209	 0.7285097781	 0.087791
H	 2.0828106965	-0.0912818921	 2.8095218707	 0.100899
H	 1.123784296	 1.2277119867	 2.1366018138	 0.104272
H	 0.2452445424	 0.0044646935	 4.4200582121	 0.09897
H	-0.9365615872	 0.3162255253	 3.1368702557	 0.10847
H	 0.5818877997	-2.2882554945	 3.6708260973	 0.087977
H	-1.1493192298	-2.1033190393	 3.3182858691	 0.101982
63.1344	107.8698	187.6222	208.5643	243.1361	283.9279	331.3097	426.8835	452.734	501.3126	604.4432	659.7622	736.3348	789.5602	861.6542	873.9346	889.3882	898.6601	930.8486	938.8718	956.097	968.2711	1013.1956	1041.8767	1054.069	1117.4729	1135.4149	1158.5801	1163.792	1190.6092	1200.0338	1212.6613	1247.1343	1255.7527	1269.0042	1280.0789	1292.7213	1334.0022	1340.5543	1380.3019	1392.4364	1407.5962	1480.7355	1483.5203	1491.5902	1497.5749	1502.1294	1505.3166	1528.6126	2975.5248	3022.7162	3038.7558	3042.1646	3050.5178	3051.5392	3057.559	3069.517	3087.3064	3089.6753	3102.9187	3105.6874	3113.8073	3118.7484
CC1CCC11CCCO1	C[C@H]1CC[C@]21CCCO2	
InChI=1S/C8H14O/c1-7-3-5-8(7)4-2-6-9-8/h7H,2-6H2,1H3	InChI=1S/C8H14O/c1-7-3-5-8(7)4-2-6-9-8/h7H,2-6H2,1H3/t7-,8-/m0/s1
