21
gdb 103880	2.93204	0.95179	0.81929	4.882	84.22	-0.2466	0.026	0.2726	1471.6919	0.180796	-383.258689	-383.248563	-383.247619	-383.29401	36.947	
C	-0.1309807938	 1.4059744196	 0.2509842656	-0.390006
C	 0.2294719513	-0.081148392	 0.1262889027	-0.248554
C	 0.7589137746	-0.5009132624	-1.2409102928	 0.335658
C	 2.0372366236	 0.1881350951	-1.6817843484	-0.445479
C	 0.5145358008	-1.9056624843	-1.6888326538	-0.296277
N	-0.1490605205	-0.7928085773	-2.3684133962	-0.112299
C	-1.591915052	-0.6741165054	-2.2138630436	-0.296026
C	-2.2772759514	-1.4909134185	-3.2239285875	 0.284881
N	-2.829162365	-2.1401696646	-4.0034415383	-0.30166
H	 0.739638629	 2.0483383456	 0.0924470792	 0.128076
H	-0.8951546766	 1.7000259903	-0.4758418285	 0.119593
H	-0.5223257032	 1.6222927492	 1.2494075689	 0.120992
H	 1.0022977989	-0.3273781747	 0.865461126	 0.10831
H	-0.6366589076	-0.6925460489	 0.3990560914	 0.098706
H	 2.8341574044	 0.0295720638	-0.9465079805	 0.116158
H	 2.3674724371	-0.2054503238	-2.6453668835	 0.131129
H	 1.8914697279	 1.266782104	-1.7952068109	 0.12392
H	 1.2532513274	-2.4430188452	-2.2776191804	 0.121561
H	-0.0918917256	-2.5376378865	-1.0404722569	 0.11154
H	-1.9813965096	-0.9774610618	-1.2288740037	 0.133809
H	-1.8816165196	 0.3720045379	-2.3664218088	 0.155968
58.5043	81.8694	130.1257	173.9539	197.7461	215.5697	284.5537	289.1288	365.3833	389.6089	405.9731	433.3361	506.709	547.4318	703.4993	780.0636	800.89	883.7344	913.2263	951.1248	977.2103	1001.6833	1011.5745	1042.4751	1064.7424	1108.0327	1131.3189	1146.0626	1187.5042	1270.5257	1272.7472	1298.3853	1348.0943	1377.7423	1397.2651	1412.2236	1420.5749	1472.4553	1480.8894	1493.4414	1494.644	1504.1439	1511.4941	1514.844	2367.2942	2976.2151	3030.3104	3037.8816	3042.7199	3060.3059	3068.6052	3088.8734	3101.6216	3108.3515	3119.041	3129.2479	3177.33
CCC1(C)CN1CC#N	CC[C@@]1(C)CN1CC#N	
InChI=1S/C7H12N2/c1-3-7(2)6-9(7)5-4-8/h3,5-6H2,1-2H3	InChI=1S/C7H12N2/c1-3-7(2)6-9(7)5-4-8/h3,5-6H2,1-2H3/t7-,9?/m0/s1
