24
gdb 119981	1.87331	1.15257	0.8393	2.5925	86.94	-0.2131	0.0658	0.2788	1524.2559	0.215337	-405.514847	-405.503728	-405.502784	-405.551461	40.053	
C	-2.1410902982	 0.5099054199	 0.6295238439	-0.381565
C	-1.1202955105	-0.5839076445	 0.3070634785	-0.171015
C	-1.1476332381	-0.9959890311	-1.1668946019	-0.12659
N	-0.2186842516	-2.0951435748	-1.4043496241	-0.098451
C	 0.2396075234	-2.4249527194	-2.7533222148	-0.017418
C	-0.2138231257	-1.6908137386	-4.0004863504	-0.415219
C	 1.1860451121	-1.8494592013	-1.7456163826	-0.001676
C	 1.7965239809	-0.4780096728	-1.8924660108	-0.1065
O	 2.1833050085	-0.0381446229	-0.5932344153	-0.410917
H	-1.9542564912	 1.4177610205	 0.0441154566	 0.107119
H	-3.1636260836	 0.1818798885	 0.4093252589	 0.109915
H	-2.1033887957	 0.7868090873	 1.6875411172	 0.111707
H	-0.1083949529	-0.2428057103	 0.5506699864	 0.121887
H	-1.3097618471	-1.4732053759	 0.9187222898	 0.101871
H	-2.1488663399	-1.3598091153	-1.4327931266	 0.094657
H	-0.968176092	-0.1061578664	-1.7918967957	 0.073646
H	 0.3087512474	-3.5017109014	-2.9146067125	 0.085528
H	-0.2585388952	-0.6073309768	-3.8794011127	 0.118995
H	 0.4690409394	-1.9060829806	-4.8295254514	 0.120771
H	-1.2103645522	-2.0324331672	-4.3014388547	 0.124407
H	 1.8706846259	-2.5325667	-1.2425794132	 0.091819
H	 2.6743847182	-0.5572993073	-2.5542227435	 0.092741
H	 1.102781444	 0.2336730403	-2.3575520738	 0.087518
H	 2.6058434441	 0.82150238	-0.6816007969	 0.286769
63.5834	77.8456	108.9921	119.6108	166.0168	182.4784	232.6569	248.3146	271.1311	292.6801	327.236	395.8388	485.1532	528.0222	556.2894	738.1549	763.5885	806.3045	841.3096	899.0527	906.8619	985.5009	1025.8583	1043.0553	1053.9784	1067.9916	1074.205	1125.9573	1153.0343	1167.7294	1187.6729	1192.0335	1249.6035	1255.3358	1273.9262	1320.4484	1336.475	1350.912	1377.5005	1400.309	1410.4308	1418.4254	1432.1512	1466.7332	1489.9167	1495.8236	1498.5703	1499.7337	1504.4084	1511.3329	1525.4717	2962.9877	2972.2672	3025.0289	3028.013	3031.0704	3038.2314	3043.8482	3074.4843	3082.9817	3091.0255	3099.1994	3101.477	3104.2364	3135.777	3825.7434
CCCN1C(C)C1CO	CCCN1[C@@H](C)[C@H]1CO	
InChI=1S/C7H15NO/c1-3-4-8-6(2)7(8)5-9/h6-7,9H,3-5H2,1-2H3	InChI=1S/C7H15NO/c1-3-4-8-6(2)7(8)5-9/h6-7,9H,3-5H2,1-2H3/t6-,7+,8?/m0/s1
