17
gdb 43873	4.64842	1.10153	1.055	3.0016	72.37	-0.2368	-0.0247	0.2121	1151.2434	0.134303	-421.787822	-421.780284	-421.779339	-421.820162	29.684	
O	 0.0687971756	 0.0145873054	-0.3441016014	-0.28954
C	 0.0076707488	 1.1669800123	-0.0305480212	 0.403723
C	-1.1447546073	 2.1151102808	 0.3380126951	-0.414431
C	-0.0789659181	 3.1093174708	 0.8700211858	 0.438932
C	 1.0592024977	 2.2542455698	 0.248360681	-0.417984
O	-0.1606655458	 4.4880182331	 0.4336612913	-0.327549
C	 0.0345014683	 4.9377752136	 1.7799088455	 0.099754
C	-1.0985723953	 4.5017538821	 2.6506050696	-0.304168
C	 0.0251690929	 3.5336929698	 2.3303704217	-0.200802
H	-1.6474771041	 2.5058250587	-0.5535147482	 0.146685
H	-1.8965756433	 1.7402671075	 1.0370292065	 0.132612
H	 1.9044193248	 1.9768050211	 0.8834389863	 0.130765
H	 1.4374096158	 2.7051937746	-0.6752933013	 0.146183
H	 0.6809806188	 5.791350991	 1.9423699369	 0.109694
H	-1.0856360566	 4.8824955738	 3.6673152658	 0.119424
H	-2.086097292	 4.3707395377	 2.2169335456	 0.120254
H	 0.6417318099	 3.0601123979	 3.0822752208	 0.106448
54.2858	150.1992	236.1584	330.7638	393.639	414.3823	445.9105	481.9644	547.2419	649.6293	714.0721	758.4389	794.0537	826.1552	895.6875	923.8761	951.5543	961.9038	982.8413	992.7174	1042.2372	1045.5833	1058.3699	1086.4018	1104.8214	1120.9264	1154.0982	1184.4469	1201.1319	1212.2019	1264.5851	1332.7282	1352.9688	1411.8374	1432.5052	1473.9951	1899.0577	3053.4481	3059.0331	3116.6145	3117.6768	3117.7586	3188.6174	3202.6063	3213.0552
O=C1CC2(C1)OC1CC21	O=C1CC2(C1)O[C@H]1C[C@@H]21	
InChI=1S/C7H8O2/c8-4-2-7(3-4)5-1-6(5)9-7/h5-6H,1-3H2	InChI=1S/C7H8O2/c8-4-2-7(3-4)5-1-6(5)9-7/h5-6H,1-3H2/t5-,6+/m1/s1
