25
gdb 100312	2.20103	1.26891	1.03788	1.0928	88.55	-0.2427	0.0822	0.325	1344.7075	0.226676	-389.471946	-389.461025	-389.46008	-389.50761	40.951	
C	-0.0787759371	 1.5213393161	 0.1730340824	-0.399458
C	-0.1118705225	 0.0111466707	-0.0775207103	-0.203063
C	 0.7040481986	-0.4706771268	-1.3022927184	 0.370061
C	 0.2128707542	 0.2077339694	-2.5855757574	-0.436635
O	 2.0736379591	-0.0303366601	-1.2080599802	-0.279217
C	 2.8752262884	-0.5958883273	-0.1961949138	-0.24321
C	 0.6244842213	-1.9989149399	-1.3630835724	-0.007196
C	-0.2520727016	-2.7534417172	-2.3350362014	-0.283163
C	 1.2457593347	-2.7906435087	-2.4853785002	-0.276438
H	 0.9516736067	 1.8846386442	 0.2182098719	 0.128825
H	-0.5932808022	 2.0782953372	-0.6156501442	 0.115892
H	-0.5700674363	 1.7657106499	 1.1199166481	 0.106659
H	 0.2563796635	-0.5099115768	 0.8146518149	 0.09112
H	-1.1455177674	-0.3305168467	-0.2108171106	 0.098269
H	 0.4645518741	 1.2692430267	-2.5525382912	 0.127578
H	 0.6998578657	-0.2146348194	-3.4685165154	 0.117998
H	-0.8696756875	 0.1091680331	-2.6991421476	 0.112939
H	 2.4975062109	-0.3890124864	 0.8157510822	 0.100741
H	 2.9905040269	-1.6822127522	-0.3083779193	 0.107813
H	 3.8616183387	-0.1333671798	-0.2907087787	 0.121679
H	 0.70100846	-2.4646140836	-0.3839382388	 0.078975
H	-0.7586518286	-3.6415920386	-1.9732673504	 0.107809
H	-0.8179599607	-2.1920672583	-3.0687300518	 0.113609
H	 1.6878763196	-2.2392579403	-3.3077058359	 0.120972
H	 1.7720179513	-3.7052735651	-2.2349581717	 0.107439
67.4878	88.1159	111.684	173.7927	202.1688	210.6491	257.803	271.5802	304.5134	311.5462	352.0159	375.5669	436.3641	527.2414	549.2077	683.0653	778.6183	788.9783	833.759	857.8848	881.0509	945.9632	947.595	997.5492	1006.1194	1058.8316	1065.9233	1083.0664	1097.3634	1121.0286	1150.2908	1163.2647	1179.446	1183.8285	1201.7687	1208.8003	1240.132	1273.1264	1317.124	1371.0833	1390.8239	1406.701	1419.328	1468.687	1470.495	1482.3522	1491.7103	1492.4128	1500.396	1504.2591	1509.8055	1513.6455	1518.6047	2990.0105	3027.8386	3042.2459	3043.2503	3054.785	3058.8917	3102.3801	3105.5765	3118.9781	3124.9301	3130.4297	3135.6425	3137.589	3141.3501	3212.9873	3227.7183
CCC(C)(OC)C1CC1	CC[C@@](C)(OC)C1CC1	
InChI=1S/C8H16O/c1-4-8(2,9-3)7-5-6-7/h7H,4-6H2,1-3H3	InChI=1S/C8H16O/c1-4-8(2,9-3)7-5-6-7/h7H,4-6H2,1-3H3/t8-/m1/s1
