20
gdb 73027	3.0707	1.33531	1.10959	1.3543	79.69	-0.2105	0.0711	0.2816	1170.9121	0.170308	-403.063064	-403.054458	-403.053514	-403.09686	32.564	
C	-0.4408776723	 1.5613277771	-0.1711448352	-0.503247
C	-0.0628896049	 0.1162294166	-0.029483722	 0.226489
C	-0.7939053011	-1.0528980388	-0.6914867477	-0.12693
O	-0.6094128926	-1.8985491155	 0.476096069	-0.288098
C	 0.039546295	-0.82944832	 1.1665432934	 0.009256
C	 1.2850547095	-0.3776369648	 0.442608717	-0.034097
N	 2.1626385462	-1.1924806376	-0.3640098186	-0.099026
C	 3.3418440347	-1.7361511473	 0.3170763228	-0.223822
C	 2.2305039419	-2.6324965281	-0.0816923093	-0.207753
H	-0.1561215163	 1.9492095918	-1.1566712842	 0.127887
H	-1.520573642	 1.7084298433	-0.0527143507	 0.119477
H	 0.0643849453	 2.176272221	 0.5803309939	 0.120815
H	-1.8608961317	-0.863203516	-0.8554835578	 0.10455
H	-0.3421746308	-1.477888225	-1.5943549777	 0.116143
H	-0.1695115273	-0.7205845904	 2.2265180853	 0.096912
H	 1.8201026402	 0.4028456042	 0.9822800646	 0.091343
H	 4.2655852114	-1.7012828977	-0.2537585897	 0.112986
H	 3.4539776184	-1.5291382507	 1.3801639799	 0.107468
H	 1.59041614	-3.0254183076	 0.7000375928	 0.136039
H	 2.3242238163	-3.2663138244	-0.9590112956	 0.113609
35.3095	160.7662	163.6366	191.2725	250.3021	285.1723	341.8411	345.6565	491.9132	617.8041	626.6215	780.3735	793.7659	827.9096	846.6588	891.5546	906.7122	948.8761	969.4808	992.7756	1005.6638	1031.3259	1062.1626	1072.6511	1091.2529	1120.0773	1122.267	1139.0698	1168.6009	1177.9229	1194.6906	1245.0277	1279.2677	1297.1527	1323.7108	1355.3655	1417.8803	1467.6207	1486.9426	1495.0761	1498.3179	1509.7791	1523.8709	3020.8731	3028.2986	3079.6499	3082.0032	3094.7298	3098.0459	3119.4895	3123.7341	3155.9513	3180.1778	3219.5165
CC12COC1C2N1CC1	C[C@]12CO[C@H]1[C@H]2N1CC1	
InChI=1S/C7H11NO/c1-7-4-9-6(7)5(7)8-2-3-8/h5-6H,2-4H2,1H3	InChI=1S/C7H11NO/c1-7-4-9-6(7)5(7)8-2-3-8/h5-6H,2-4H2,1H3/t5-,6+,7-/m1/s1
