17
gdb 93292	2.11549	1.88913	1.26785	4.4975	67.78	-0.2615	-0.012	0.2495	1029.8156	0.135786	-458.984515	-458.976393	-458.975449	-459.017439	30.17	
C	 0.2536326608	 1.6592140545	-0.1027912695	-0.401827
C	 0.0092746434	 0.1516392836	 0.0461438608	-0.120642
C	 0.6534734007	-0.6552155049	-1.1035961542	-0.100001
O	 1.9597515366	-1.061086598	-0.6413760641	-0.230013
C	 2.027648006	-1.0301771657	 0.7132022762	 0.419093
O	 2.973203471	-1.4125290629	 1.3373398133	-0.344193
C	 0.7323659114	-0.442568238	 1.2402746208	 0.271908
C	 0.6054311163	-0.0673061712	 2.6494431737	-0.240843
O	 0.0311354047	-1.2819295128	 2.1642531438	-0.265358
H	 1.3237748873	 1.8803543422	-0.1779992484	 0.135001
H	-0.231568471	 2.0407690068	-1.0063955626	 0.124862
H	-0.1446081134	 2.2113985183	 0.7530165825	 0.12614
H	-1.0614006345	-0.0549321725	 0.1161292735	 0.106202
H	 0.0816258152	-1.5560504172	-1.3490032615	 0.128481
H	 0.7988581045	-0.0677678781	-2.0126156272	 0.126121
H	 1.4687603702	-0.1896518348	 3.3000560177	 0.144183
H	-0.1072211992	 0.7069879507	 2.9291528852	 0.120884
64.0139	162.9245	196.7801	239.2389	261.4762	270.0273	327.9751	472.9873	507.5389	572.1058	706.6137	709.9834	756.9502	843.6994	875.1273	901.7322	960.3124	976.4718	1008.5873	1046.7424	1093.421	1119.9647	1133.5574	1158.9562	1172.3397	1240.6016	1262.6056	1274.1895	1348.0254	1387.2249	1410.4149	1437.1911	1495.1973	1499.5276	1515.948	1520.1822	1887.0028	3036.9879	3050.9729	3082.899	3090.3603	3108.9988	3110.9884	3116.5752	3187.7889
CC1COC(=O)C11CO1	C[C@H]1COC(=O)[C@]21CO2	
InChI=1S/C6H8O3/c1-4-2-8-5(7)6(4)3-9-6/h4H,2-3H2,1H3	InChI=1S/C6H8O3/c1-4-2-8-5(7)6(4)3-9-6/h4H,2-3H2,1H3/t4-,6+/m0/s1
