23
gdb 96552	2.25434	1.43673	1.01457	2.173	81.54	-0.2406	0.0711	0.3117	1260.4612	0.206839	-425.429077	-425.419744	-425.4188	-425.462908	36.213	
C	-0.0041820379	 1.5991304167	 0.0264559092	-0.407315
C	 0.0407294667	 0.0642713892	 0.0080539611	 0.029688
C	 0.6100564	-0.4720578899	-1.3201509317	-0.09171
O	-0.007418346	-1.6809315416	-1.7345151102	-0.2441
C	 0.4389852932	-2.855235691	-1.0932798225	-0.058385
C	 0.2051244879	-2.9172794261	 0.4232395766	-0.220348
C	 1.122772835	-1.9797483613	 1.2229133056	-0.23557
C	 0.751799024	-0.4802163267	 1.2618526405	 0.115544
O	 1.9382638642	 0.2947786754	 1.4493600156	-0.433378
H	 0.9942086443	 2.0260855965	-0.0943417197	 0.134558
H	-0.6426737279	 1.9717702126	-0.7807676617	 0.10626
H	-0.4057104463	 1.9702571554	 0.9748536664	 0.109877
H	-0.9919835837	-0.3027604295	 0.0461153665	 0.081942
H	 0.3964548527	 0.2432971135	-2.1206852696	 0.099127
H	 1.703949512	-0.5850109583	-1.2627738261	 0.096244
H	-0.1047156357	-3.6705310066	-1.582275442	 0.101988
H	 1.5150212599	-3.0107759855	-1.290107161	 0.081477
H	-0.8524282483	-2.7270812274	 0.6417660357	 0.1058
H	 0.4045292073	-3.9503446349	 0.7348737846	 0.095468
H	 1.2013012829	-2.3374640385	 2.2574449668	 0.088033
H	 2.133591976	-2.0464826873	 0.8003447537	 0.10365
H	 0.0701300452	-0.3065013903	 2.1113458067	 0.060643
H	 2.4039070644	-0.0576373045	 2.2141431054	 0.280507
63.081	130.5534	222.1797	251.3144	256.9541	288.0393	307.5292	318.1776	368.8635	383.6037	441.1864	506.6371	551.3691	611.3532	745.947	816.3491	876.4137	910.4546	944.8608	960.2267	982.0459	1003.617	1013.3634	1080.65	1089.0777	1113.3	1128.8053	1160.3746	1171.7996	1222.4642	1242.6345	1259.6098	1290.2243	1322.8939	1333.8844	1351.3299	1368.795	1378.2128	1390.3807	1392.5038	1405.2439	1424.5322	1443.4493	1479.9888	1487.587	1491.261	1494.0725	1499.1593	1508.3031	2944.5669	2948.8086	2988.8014	3013.4171	3026.0884	3035.3427	3039.5313	3053.1082	3067.6597	3070.3157	3073.0591	3102.347	3125.2798	3818.9518
CC1COCCCC1O	C[C@H]1COCCC[C@H]1O	
InChI=1S/C7H14O2/c1-6-5-9-4-2-3-7(6)8/h6-8H,2-5H2,1H3	InChI=1S/C7H14O2/c1-6-5-9-4-2-3-7(6)8/h6-8H,2-5H2,1H3/t6-,7+/m0/s1
