25
gdb 81370	2.25112	1.52526	1.20339	0.0886	91.63	-0.2683	0.0829	0.3512	1213.489	0.231771	-352.367789	-352.359086	-352.358142	-352.400361	35.624	
C	-0.294345108	 1.6817305813	 0.5599584341	-0.427147
C	-0.0226335129	 0.2105096562	 0.2601375505	 0.041258
C	 1.3208362846	-0.0808285052	-0.4856905015	 0.001715
C	 1.9954585789	-0.1899704293	 0.9078980647	-0.243125
C	 0.5990490222	-0.6051702471	 1.4419678545	 0.001576
C	 0.4071981521	-2.1224462376	 1.2338343994	 0.039343
C	-0.8787905435	-2.6420062926	 1.8851764315	-0.408945
C	 0.4327014307	-2.4565780993	-0.2819683572	-0.204215
C	 1.2860847908	-1.477647963	-1.1279033285	-0.226452
H	 0.5662209796	 2.1783178435	 1.0191423925	 0.114241
H	-0.5385690495	 2.2285516672	-0.3578520031	 0.11038
H	-1.1418683462	 1.7904871188	 1.2460714844	 0.11081
H	-0.9183915047	-0.2239765846	-0.1972037289	 0.055496
H	 1.6950189686	 0.677626167	-1.1799685948	 0.050351
H	 2.8107319935	-0.9133084037	 1.0162344124	 0.080749
H	 2.3283756256	 0.7748584378	 1.2961671779	 0.091563
H	 0.3294025843	-0.3059216388	 2.4603085712	 0.046937
H	 1.2555029583	-2.6217371337	 1.7227496658	 0.065767
H	-1.7590926645	-2.1249142756	 1.4845689544	 0.112529
H	-1.0134210698	-3.7133821177	 1.6996836874	 0.108468
H	-0.8665407063	-2.4884252005	 2.9695886568	 0.107686
H	 0.7610280319	-3.489609895	-0.4365590815	 0.089523
H	-0.5991808123	-2.419419278	-0.649190014	 0.099691
H	 0.874255605	-1.426623834	-2.142757657	 0.089123
H	 2.3154852916	-1.843504826	-1.2299984709	 0.092677
134.4817	195.5522	215.2032	237.251	251.8591	289.6859	324.5494	392.9247	432.7659	446.0953	519.3072	593.5074	754.3726	783.1072	816.6657	834.2847	879.277	898.6515	908.8582	943.5734	965.4634	991.8003	1024.0265	1034.7899	1056.5964	1060.1944	1081.0349	1098.2547	1130.8086	1140.854	1154.7703	1193.2435	1209.1599	1237.2641	1259.1901	1277.5383	1284.6233	1309.3636	1324.9694	1339.853	1357.1578	1363.9639	1385.0238	1399.4441	1410.5413	1412.0991	1489.7273	1492.6313	1497.6238	1498.2814	1499.1363	1507.0554	1512.0006	2996.3349	3019.4039	3021.4249	3025.8514	3029.9622	3039.571	3039.7931	3048.2406	3053.018	3060.1684	3075.4703	3087.1386	3088.2066	3094.0503	3098.2745	3108.4626
CC1C2CC1C(C)CC2	C[C@H]1[C@H]2C[C@@H]1[C@@H](C)CC2	
InChI=1S/C9H16/c1-6-3-4-8-5-9(6)7(8)2/h6-9H,3-5H2,1-2H3	InChI=1S/C9H16/c1-6-3-4-8-5-9(6)7(8)2/h6-9H,3-5H2,1-2H3/t6-,7-,8+,9+/m0/s1
