20
gdb 54983	3.49744	1.11446	0.97941	3.063	81.23	-0.2404	0.0127	0.2532	1287.6658	0.169724	-403.145702	-403.136484	-403.13554	-403.180267	33.76	
C	-0.2970359471	 1.4945565198	-0.2121650658	-0.475075
C	-0.0474819988	 0.0138118901	 0.0067463594	 0.36337
O	 1.0004970778	-0.5341279705	-0.2614101902	-0.337566
N	-1.0977040307	-0.6658333866	 0.617091231	-0.128671
C	-2.4773648911	-0.7485049237	 0.1650568783	-0.327484
C	-1.5917882474	-1.9580136796	 0.239259502	 0.371241
C	-1.1501292863	-2.8365613946	-0.9390659217	-0.298909
C	-1.6566091933	-4.0685224833	-0.1303356056	-0.211823
C	-1.7342337376	-3.1816760293	 1.1497906166	-0.301539
H	 0.6558975563	 1.9958588719	-0.3819191966	 0.146509
H	-0.9306082953	 1.6416199324	-1.0943733269	 0.138364
H	-0.8142555623	 1.9391056675	 0.6420309748	 0.139911
H	-3.2392747803	-0.5777292244	 0.9226757465	 0.121577
H	-2.7172439477	-0.3586454675	-0.8230730555	 0.120998
H	-1.6153911038	-2.6420698893	-1.9086986064	 0.099804
H	-0.0646328572	-2.8190809445	-1.055263202	 0.142705
H	-2.6414048659	-4.4070893374	-0.4607014829	 0.105211
H	-0.9879336638	-4.9293919142	-0.0855522492	 0.10723
H	-0.8613309338	-3.3003410467	 1.7971892645	 0.121398
H	-2.6390246315	-3.2495749501	 1.7586106899	 0.10275
76.2359	89.5966	96.2201	133.0364	159.707	302.0529	343.0809	374.9672	414.472	523.3633	600.2341	652.5024	703.7339	726.2587	788.8879	878.6368	897.9107	908.29	931.4086	951.6707	1004.4777	1047.1405	1050.4929	1074.7573	1109.6261	1123.8816	1149.8505	1175.7988	1216.7413	1223.8294	1249.4772	1269.0616	1281.3588	1295.4884	1384.807	1439.2012	1468.5841	1472.2051	1479.2151	1481.9633	1503.7052	1518.1579	1782.5179	3044.0417	3061.5203	3066.0958	3073.9967	3087.2603	3110.1362	3110.8736	3121.8057	3135.8841	3159.7591	3174.2445
CC(=O)N1CC11CCC1	CC(=O)N1CC21CCC2	
InChI=1S/C7H11NO/c1-6(9)8-5-7(8)3-2-4-7/h2-5H2,1H3	InChI=1S/C7H11NO/c1-6(9)8-5-7(8)3-2-4-7/h2-5H2,1H3
