21
gdb 74541	3.17861	1.47369	1.33722	0.2411	89.57	-0.207	0.0203	0.2273	1077.8855	0.183649	-349.858317	-349.850795	-349.849851	-349.889712	31.697	
C	 0.13236916	 1.5058849154	 0.0245312135	-0.518957
C	 0.0507772387	 0.0188885209	 0.0177481278	 0.374845
C	 0.0500377837	-0.8753764666	-0.9742304884	-0.250925
C	-0.0226897925	-2.2447934586	-0.2680542717	 0.258813
C	-1.0268354678	-3.2284521584	-0.93889532	-0.320373
C	-2.1591368994	-2.3425151843	-0.2487229481	-0.278599
C	-1.0626056795	-1.9861694308	 0.8096540311	 0.046215
C	-0.0241947114	-0.8780546891	 1.2594267031	-0.18419
C	 1.0624892834	-2.0015505631	 0.8654581263	-0.306318
H	 1.0167870634	 1.8601690148	 0.5702366969	 0.124837
H	 0.1801860576	 1.9065488043	-0.9922584126	 0.123398
H	-0.7377270094	 1.9516173456	 0.5239469991	 0.126098
H	 0.1122622427	-0.7240591762	-2.0443826595	 0.083659
H	-1.0306582954	-3.2943389155	-2.0312323896	 0.094231
H	-1.0011798523	-4.2358946642	-0.5151729368	 0.104546
H	-2.4423754205	-1.5086401506	-0.8932770418	 0.115167
H	-3.0550185828	-2.8536850749	 0.1118836307	 0.091914
H	-1.0543248473	-2.7933545202	 1.5513574525	 0.070829
H	-0.0270906771	-0.4109598005	 2.2468195215	 0.057403
H	 1.1453161335	-2.808081603	 1.6006595444	 0.095178
H	 2.0496347024	-1.6358193649	 0.5683082918	 0.092229
149.3911	183.3255	252.9845	320.9664	330.1341	406.2173	502.6473	545.989	560.7569	615.5067	695.9009	719.8546	791.5884	799.2215	824.0307	852.4074	854.7361	883.3937	918.9685	981.6651	999.1941	1011.9885	1024.247	1060.5256	1074.0484	1086.0852	1108.6884	1125.7195	1158.4746	1175.6314	1203.2892	1204.7237	1218.2452	1227.2936	1238.8209	1266.6174	1310.7787	1391.5609	1412.5276	1471.9356	1477.6294	1484.6145	1487.3348	1490.8947	1696.8902	3011.5935	3029.8831	3042.4611	3049.1715	3055.0057	3068.0892	3090.2933	3103.6369	3107.4256	3112.6807	3135.0547	3209.6913
CC1=CC23CCC2C1C3	CC1=C[C@]23CC[C@@H]2[C@H]1C3	
InChI=1S/C9H12/c1-6-4-9-3-2-8(9)7(6)5-9/h4,7-8H,2-3,5H2,1H3	InChI=1S/C9H12/c1-6-4-9-3-2-8(9)7(6)5-9/h4,7-8H,2-3,5H2,1H3/t7-,8+,9-/m0/s1
