21
gdb 112588	3.3977	0.9188	0.85381	3.6419	84.74	-0.2311	0.0293	0.2605	1460.0051	0.18176	-383.269777	-383.260042	-383.259098	-383.304412	35.847	
C	 0.0127795894	 1.5128601205	 0.0018131471	-0.382824
C	 0.0356649874	-0.0111848826	 0.088139516	-0.12447
N	-1.3040661782	-0.5647696499	 0.1562144586	-0.070493
C	-2.0938730069	-0.370582807	 1.3855123522	-0.204236
C	-2.6840740056	-1.8044924763	 1.1884107916	 0.143117
C	-4.0254671637	-1.8157758299	 0.446055417	-0.446296
C	-1.4518819514	-2.0257368755	 0.252768525	-0.205003
C	-2.7292753272	-2.6378166017	 2.3815241064	 0.233305
N	-2.7692933486	-3.3005583681	 3.3283227301	-0.344678
H	 1.0297888197	 1.9090881713	-0.0698233603	 0.118776
H	-0.5537005787	 1.8410197521	-0.8743256813	 0.126705
H	-0.4521371641	 1.9527948164	 0.8905484956	 0.121443
H	 0.5195370024	-0.4274896448	-0.8039530166	 0.106411
H	 0.6458688487	-0.3278996955	 0.9574978716	 0.079213
H	-1.4817940311	-0.3006651799	 2.2982551906	 0.10539
H	-2.8094725913	 0.4573917396	 1.3633765223	 0.114193
H	-3.9504458101	-1.1829838876	-0.4417239888	 0.140756
H	-4.2906512134	-2.8300689789	 0.1344789413	 0.135295
H	-4.8275527676	-1.434128615	 1.0841882931	 0.135149
H	-1.6415193869	-2.5419432345	-0.6943342949	 0.11254
H	-0.6222627026	-2.5217408428	 0.7796240535	 0.105705
67.0252	96.3284	174.845	187.725	201.9114	238.7438	257.1938	314.7512	337.8144	389.6298	417.1425	533.5907	577.4629	593.6055	723.059	810.5382	889.8723	915.2091	940.7616	957.9053	976.1879	998.222	1047.0309	1110.7796	1127.4514	1156.7853	1168.2971	1178.4606	1209.5609	1251.1133	1282.9205	1291.5451	1316.6867	1345.1535	1394.2061	1408.9927	1415.7433	1489.6962	1491.9997	1493.4386	1494.0413	1504.2102	1509.344	1528.5046	2352.3443	2905.837	2978.8956	2988.8518	3039.1207	3045.0507	3045.3463	3064.5801	3070.2518	3107.3408	3118.8615	3120.7661	3130.6563
CCN1CC(C)(C1)C#N	CCN1CC(C)(C1)C#N	
InChI=1S/C7H12N2/c1-3-9-5-7(2,4-8)6-9/h3,5-6H2,1-2H3	InChI=1S/C7H12N2/c1-3-9-5-7(2,4-8)6-9/h3,5-6H2,1-2H3
