17
gdb 47643	2.4404	1.83425	1.19739	3.2792	78.91	-0.2443	-0.0646	0.1796	1028.9866	0.137612	-421.857771	-421.850211	-421.849267	-421.889845	29.169	
O	-0.3236279097	 0.0710497984	 0.1393900745	-0.337398
C	 0.0266796447	 1.2231086483	 0.1019173687	 0.37669
O	-0.8539872281	 2.2684234213	-0.0089626415	-0.235759
C	-1.5971945985	 2.3011389727	-1.2218353483	-0.083252
C	-0.6054375058	 2.5742978873	-2.3734275331	-0.298147
C	 0.2701071023	 3.7608252524	-2.0895584203	-0.046168
C	 1.3145677861	 3.8169429518	-1.2443290335	-0.05923
C	 1.9337098529	 2.7713645504	-0.4320531381	-0.063104
C	 1.4301373383	 1.6657950689	 0.1544892472	-0.164628
H	-2.13603387	 1.3603674714	-1.380848854	 0.126773
H	-2.31852103	 3.1136865301	-1.1084497712	 0.118066
H	 0.0103758471	 1.6736841237	-2.4957261634	 0.134096
H	-1.1610607248	 2.7149798796	-3.305871864	 0.10736
H	 0.0250811257	 4.6760365977	-2.6235738298	 0.100759
H	 1.8541820197	 4.7616991013	-1.205935394	 0.095678
H	 3.004565663	 2.9211125575	-0.2936266833	 0.110041
H	 2.1059647673	 0.9662180074	 0.6356877939	 0.118224
83.6299	203.1017	225.1091	237.661	331.3296	356.085	420.3796	532.8957	590.4895	628.2999	690.4128	758.8264	811.0607	840.2742	853.3634	879.1444	897.1079	964.1192	1006.5889	1018.0446	1024.4376	1069.3036	1112.9596	1189.3683	1242.7951	1256.5429	1267.4691	1297.5801	1339.9229	1393.3172	1421.3175	1452.8399	1487.2746	1503.5902	1648.3594	1685.2257	1801.5123	3025.9667	3047.7298	3083.5534	3114.6031	3122.6614	3137.7713	3161.3446	3189.1342
O=C1OCCC=CC=C1	O=C1OCCC=CC=C1	
InChI=1S/C7H8O2/c8-7-5-3-1-2-4-6-9-7/h1-3,5H,4,6H2/b2-1-,5-3-	InChI=1S/C7H8O2/c8-7-5-3-1-2-4-6-9-7/h1-3,5H,4,6H2/b2-1-,5-3-
