18
gdb 94532	2.26712	1.3221	1.14173	1.9649	73.85	-0.2246	-0.09	0.1346	1177.8854	0.145362	-439.070021	-439.060642	-439.059697	-439.105147	32.694	
C	-0.4060012725	 0.5868298822	-0.7609479851	-0.327241
N	-0.0702643938	-0.3831108823	 0.2585852639	-0.075307
C	-1.0292911906	-0.6377648163	 1.3518255078	-0.155679
C	 0.1601830786	-0.7482448284	 2.3363174046	-0.274648
C	 0.9998403658	-0.0561708946	 1.2189939542	-0.053577
C	 2.3556220408	-0.6110749545	 0.8355381757	 0.300389
O	 3.3681790847	 0.0509030301	 0.8041103456	-0.283274
C	 2.5014223803	-2.0966137376	 0.4564772471	 0.086461
O	 1.7639568027	-2.9796761516	 0.8041496569	-0.214317
H	 0.442671614	 0.7281292269	-1.4384334492	 0.125725
H	-1.24920495	 0.2174374471	-1.353631597	 0.128219
H	-0.682350372	 1.5743899162	-0.3463818114	 0.096345
H	-1.6739224126	 0.2293382841	 1.5676045849	 0.089496
H	-1.6591744959	-1.5213343165	 1.2101664788	 0.113264
H	 0.083640873	-0.2004339969	 3.2748626892	 0.114185
H	 0.4662157898	-1.7759007212	 2.5178176767	 0.144939
H	 1.1274994631	 1.0227088331	 1.3988968277	 0.078558
H	 3.4369849344	-2.2779586199	-0.1164711205	 0.106462
50.984	88.4653	97.7236	130.4917	211.355	226.9067	272.3451	338.9883	386.5365	438.7636	544.2603	602.7767	676.0459	767.1526	821.6995	921.1507	928.79	988.1702	991.5818	1019.7994	1080.2956	1136.4499	1163.0551	1202.7072	1218.7875	1247.1301	1261.079	1268.8467	1288.746	1328.9457	1348.358	1381.0651	1452.002	1482.0604	1485.5715	1499.576	1522.6244	1793.8155	1824.4466	2905.2122	2933.2951	2974.2131	2985.1155	3060.1265	3070.48	3102.2687	3107.8188	3178.5142
CN1CCC1C(=O)C=O	CN1CC[C@H]1C(=O)C=O	
InChI=1S/C6H9NO2/c1-7-3-2-5(7)6(9)4-8/h4-5H,2-3H2,1H3	InChI=1S/C6H9NO2/c1-7-3-2-5(7)6(9)4-8/h4-5H,2-3H2,1H3/t5-/m0/s1
