18
gdb 31247	2.56616	1.30195	0.91723	0.3193	76.33	-0.2044	0.0069	0.2113	1297.9454	0.147339	-439.116006	-439.10684	-439.105896	-439.151089	32.09	
C	-0.4117075653	 1.5727991452	-0.0907436728	-0.37154
C	 0.0879799262	 0.1240506215	 0.0513241852	-0.302288
C	 0.868601175	-0.3600731044	-1.114710594	 0.218784
C	 2.1583828471	-0.7515901702	-1.3156779181	 0.276926
O	 3.1249365604	-0.7955988156	-0.381056297	-0.273628
C	 4.4017188436	-1.2505176087	-0.819246847	-0.237996
N	 2.355462995	-1.1076654351	-2.6361082129	-0.344974
C	 1.1943958711	-0.9199608625	-3.1812506971	 0.064878
O	 0.2447543558	-0.47291418	-2.3436280441	-0.17974
H	 0.4272908631	 2.2660788149	-0.2022778036	 0.123099
H	-1.054669027	 1.6778631425	-0.9694182917	 0.127792
H	-0.988758161	 1.8705994735	 0.789954615	 0.113606
H	 0.7370105469	 0.0335491493	 0.9282790937	 0.127627
H	-0.7695691579	-0.5391951308	 0.2276675021	 0.115533
H	 4.3480850798	-2.2730015772	-1.2068611775	 0.132727
H	 4.8074852061	-0.6018969511	-1.6022842962	 0.133006
H	 5.0448501367	-1.2189910439	 0.0615163971	 0.12797
H	 0.9095811146	-1.0796053576	-4.2091163512	 0.14822
50.7452	56.3176	142.6121	171.2375	174.1187	237.5717	296.8703	316.1726	399.1613	547.4729	612.3372	662.365	730.4585	744.2771	783.9068	811.3827	956.7239	969.5288	1007.1112	1071.8055	1085.9377	1149.434	1177.5415	1180.3833	1202.5752	1232.4221	1291.4278	1332.0841	1351.9567	1401.2761	1413.6758	1472.8348	1482.715	1486.5049	1496.6126	1503.2024	1507.5234	1549.8399	1694.6692	3016.7325	3032.9071	3040.2923	3080.8622	3099.6281	3112.7757	3118.9517	3142.1231	3275.1934
CCC1=C(OC)N=CO1	CCc1c(OC)nco1	
InChI=1S/C6H9NO2/c1-3-5-6(8-2)7-4-9-5/h4H,3H2,1-2H3	InChI=1S/C6H9NO2/c1-3-5-6(8-2)7-4-9-5/h4H,3H2,1-2H3
