15
gdb 131629	1.90658	1.63691	0.95574	1.9321	63.91	-0.2696	-0.0479	0.2217	1178.6104	0.111536	-491.044314	-491.035551	-491.034607	-491.079015	30.528	
O	 0.2494164913	 1.2492341744	 0.3109422703	-0.401923
C	 0.0751047053	-0.0751632166	-0.1593416812	-0.183727
C	-1.3635591956	-0.4907268368	-0.1740837421	 0.328281
C	-2.2473192672	-0.8019646152	-1.1664472958	 0.12274
C	-2.0683027389	-0.858981808	-2.6542700931	-0.184908
O	-0.8432578248	-1.4701120586	-3.0367409114	-0.403728
N	-3.4413161159	-1.0963339929	-0.5436683998	-0.164007
N	-3.3474220346	-0.978876161	 0.7026644913	-0.016107
O	-1.9955928135	-0.5900365137	 0.9967077875	-0.224299
H	-0.0579691493	 1.2832290804	 1.2233412135	 0.297768
H	 0.4513194051	-0.1096591081	-1.1832311173	 0.155989
H	 0.6520351983	-0.7984193047	 0.4368973024	 0.118028
H	-2.942291641	-1.3614210882	-3.0895169807	 0.127096
H	-2.0293992012	 0.1500375947	-3.077834202	 0.139734
H	-0.8706062581	-2.3889781055	-2.7486448517	 0.289062
50.0637	57.2787	148.3268	165.235	236.0676	296.4329	366.2967	371.2225	431.2524	453.0787	628.9214	669.4751	697.4083	720.9533	820.7486	961.6527	981.6675	1014.6641	1060.3347	1066.4672	1163.0431	1176.2474	1225.6904	1269.8679	1356.0204	1377.747	1405.8221	1418.376	1419.9592	1465.3615	1499.5603	1503.3985	1637.7293	2993.3539	3023.9795	3076.6558	3127.5003	3808.2383	3812.4139
OCC1=C(CO)N=NO1	OCc1c(CO)nno1	
InChI=1S/C4H6N2O3/c7-1-3-4(2-8)9-6-5-3/h7-8H,1-2H2	InChI=1S/C4H6N2O3/c7-1-3-4(2-8)9-6-5-3/h7-8H,1-2H2
