14
gdb 34291	3.61621	1.52712	1.37034	3.659	65.42	-0.2732	-0.0279	0.2453	922.3025	0.102216	-436.675764	-436.669178	-436.668234	-436.706662	26.027	
N	 0.0479188287	-1.1147511626	 0.0372868302	-0.325538
C	 0.0428617527	 0.0394937817	 0.0128096441	 0.19318
C	-0.0318227383	 1.4878436584	-0.0085474865	 0.207064
C	-0.658480535	 2.1758564359	 1.2667407502	-0.105016
O	-0.1103205068	 3.487692146	 1.1735968352	-0.263557
C	 0.735433299	 3.4363773665	 0.0004902451	 0.109803
O	 1.2576106015	 2.1241483157	 0.0285320395	-0.244775
C	-0.2002497751	 3.4027837361	-1.2041501239	-0.078405
C	-0.7001807289	 2.1679180531	-1.2049486166	-0.132816
H	-1.751155346	 2.1965339661	 1.2378818926	 0.1233
H	-0.3072365048	 1.6842630676	 2.1783141534	 0.134409
H	 1.5139723856	 4.1907811607	 0.0754025989	 0.111725
H	-0.4819947689	 4.2521705143	-1.8092869803	 0.132666
H	-1.4906078735	 1.7302530406	-1.7963947219	 0.137961
151.3811	167.6194	290.5662	402.3399	476.7154	513.1149	538.4803	552.2861	644.919	720.7628	736.5821	816.8076	849.2574	861.564	911.1015	936.9419	941.2612	974.3875	1028.5753	1046.8885	1102.2742	1124.1652	1202.4886	1249.604	1279.1497	1308.7747	1327.1581	1354.8318	1511.14	1635.19	2375.2176	3054.1182	3111.8084	3172.9413	3236.1427	3260.9076
N#CC12COC(O1)C=C2	N#C[C@@]12CO[C@@H](O1)C=C2	
InChI=1S/C6H5NO2/c7-3-6-2-1-5(9-6)8-4-6/h1-2,5H,4H2	InChI=1S/C6H5NO2/c7-3-6-2-1-5(9-6)8-4-6/h1-2,5H,4H2/t5-,6-/m0/s1
