20
gdb 80601	2.78091	1.48022	1.26273	3.4422	78.84	-0.2065	-0.0063	0.2002	1086.0976	0.171205	-403.128136	-403.119763	-403.118818	-403.160706	32.726	
C	-0.0775755653	 1.5610972126	-0.1227622886	-0.420402
C	 0.082918024	 0.0434819932	-0.0381900644	 0.048495
C	 0.91295489	-0.5740318115	-1.1998365123	-0.170099
C	 2.3830718158	-0.3180716992	-0.7154677689	-0.266239
C	 1.946724735	-1.2380231204	 0.4769756407	-0.123322
N	 0.8527532319	-0.5039572772	 1.1378954778	-0.08148
C	 1.2780774849	 0.41469004	 2.1795032918	-0.325271
C	 1.1507953507	-1.9807366674	-0.6191126841	 0.460275
O	 0.9561489142	-3.1086121143	-0.9550399853	-0.324663
H	 0.8773505347	 2.0877854215	-0.1985065043	 0.120767
H	-0.6688371656	 1.8084987372	-1.0101749685	 0.1216
H	-0.6134720543	 1.9540758587	 0.7458284858	 0.125459
H	-0.9226796282	-0.3972110899	-0.0316623397	 0.091014
H	 0.5696439678	-0.3969636273	-2.2172186412	 0.08567
H	 3.1335219277	-0.7672148568	-1.3690304723	 0.119432
H	 2.6531725181	 0.7090065544	-0.4669062555	 0.110929
H	 2.6400574164	-1.7255769315	 1.158901124	 0.086936
H	 1.9743220908	 1.2073265027	 1.8541685966	 0.093085
H	 0.4055269321	 0.8961106672	 2.6298061435	 0.124402
H	 1.7742399394	-0.1591285917	 2.968866475	 0.123414
114.6372	144.1551	200.0772	245.0877	282.6686	294.6368	307.6233	472.1574	474.5964	511.8913	598.1675	646.9275	741.0008	769.5584	803.0551	843.1331	857.8204	927.0503	984.8863	1008.5635	1034.1736	1055.0991	1078.8189	1089.0847	1101.3389	1129.2954	1157.7721	1170.1033	1199.9545	1212.6823	1222.4437	1262.8124	1307.8103	1324.3716	1395.6462	1411.0146	1455.8806	1485.5117	1489.2389	1492.5723	1508.1869	1511.1489	1912.0691	2947.5656	3006.6853	3043.7177	3064.2751	3080.0997	3103.2149	3110.891	3121.3797	3143.5049	3144.4531	3149.6464
CC1C2CC(N1C)C2=O	C[C@H]1[C@H]2C[C@@H](N1C)C2=O	
InChI=1S/C7H11NO/c1-4-5-3-6(7(5)9)8(4)2/h4-6H,3H2,1-2H3	InChI=1S/C7H11NO/c1-4-5-3-6(7(5)9)8(4)2/h4-6H,3H2,1-2H3/t4-,5+,6+/m0/s1
