20
gdb 12705	2.36303	2.24404	1.63212	1.7223	70.44	-0.2386	0.0652	0.3038	914.1215	0.176765	-386.149233	-386.14056	-386.139616	-386.182042	32.551	
C	 0.7256362985	 1.4333548645	-0.3600750709	-0.395902
C	 0.0892231986	 0.1122187316	 0.0656338933	 0.137806
O	 0.1500594618	-0.8128557612	-1.0347545337	-0.27696
C	 0.9462949348	-1.9382941468	-0.698778008	-0.090089
C	 1.7487792502	-1.5608396898	 0.549267853	 0.09039
O	 2.9335894227	-0.8315985868	 0.2492906134	-0.42887
C	 0.7613756193	-0.6202707653	 1.2564537557	-0.010192
C	 1.3583270089	 0.2560849938	 2.3551216702	-0.41688
H	 1.7905297619	 1.299295031	-0.5610733703	 0.134234
H	 0.2376603241	 1.7915331011	-1.2710825367	 0.1161
H	 0.6028870054	 2.1981397981	 0.4137600078	 0.10508
H	-0.9721504775	 0.2855255859	 0.290072055	 0.068805
H	 0.3122578397	-2.8156637744	-0.4909717817	 0.086559
H	 1.5932156439	-2.1870707887	-1.5502302278	 0.088973
H	 1.9858054329	-2.4436614304	 1.1607410021	 0.062858
H	 3.4900254687	-1.3796350681	-0.3123255404	 0.284702
H	-0.002562732	-1.2693848697	 1.7031350777	 0.077778
H	 2.1799276141	 0.8654467057	 1.9755117512	 0.142179
H	 0.599080908	 0.9214819413	 2.779028721	 0.111929
H	 1.7484600162	-0.3618340315	 3.1703416992	 0.111502
71.708	143.1104	225.6598	251.9493	254.4169	260.7559	268.8097	379.6508	389.7357	431.9774	524.6704	705.1888	742.6973	782.439	860.0243	868.381	923.6923	981.3264	1011.8928	1018.8147	1050.8377	1078.6584	1110.1382	1145.425	1162.6303	1185.3774	1204.9901	1243.8572	1315.9359	1327.4513	1339.0184	1372.2794	1383.5119	1394.9438	1406.66	1413.4187	1427.3776	1484.3188	1496.8096	1503.421	1510.2693	1513.0451	2967.4229	2997.6029	2999.767	3028.3174	3033.8918	3040.584	3043.702	3098.0953	3109.5818	3138.3723	3141.4019	3824.7713
CC1OCC(O)C1C	C[C@H]1OC[C@@H](O)[C@H]1C	
InChI=1S/C6H12O2/c1-4-5(2)8-3-6(4)7/h4-7H,3H2,1-2H3	InChI=1S/C6H12O2/c1-4-5(2)8-3-6(4)7/h4-7H,3H2,1-2H3/t4-,5+,6+/m0/s1
