20
gdb 97806	2.754	0.72851	0.61252	2.817	86.43	-0.2431	0.023	0.2661	1854.1255	0.16949	-403.088459	-403.078018	-403.077074	-403.125814	36.538	
C	-0.0533135169	 1.4904513812	-0.0184489398	-0.377804
C	-0.110295606	 0.0493561366	 0.4998890641	-0.189008
C	-1.430585923	-0.6131439043	 0.1854052467	 0.016772
N	-1.6086780773	-1.1138883669	-1.1800786784	-0.319315
C	-1.5686197297	-2.0874848892	-0.0569816818	-0.272342
C	-0.4551833523	-2.9929007129	 0.0053223719	 0.114912
C	 0.4676046243	-3.766052134	 0.0744863676	 0.083779
C	 1.5870040542	-4.6964418403	 0.2056628493	-0.194242
O	 2.5173067041	-4.3316526449	 1.2174601797	-0.402362
H	 0.9129559865	 1.9518817949	 0.2056280976	 0.114271
H	-0.1976036336	 1.5122682385	-1.1029391191	 0.130973
H	-0.8324799087	 2.1118999892	 0.437735364	 0.10787
H	 0.6941386367	-0.5430019415	 0.0540832364	 0.122256
H	 0.0448924697	 0.0310055246	 1.5861987706	 0.09578
H	-2.2973644903	-0.1492816115	 0.6579563932	 0.084132
H	-2.5715713531	-0.9995236426	-1.4862157753	 0.234185
H	-2.5193187731	-2.5241193218	 0.2437003488	 0.104945
H	 1.1954833799	-5.713352564	 0.3706613697	 0.116753
H	 2.1605733891	-4.7282191167	-0.727447901	 0.142478
H	 2.0147827796	-4.1680792745	 2.0222771458	 0.285967
24.637	59.6774	84.1075	119.0703	165.037	215.3424	239.1213	272.8213	332.2757	360.5738	433.3288	493.2949	553.5977	626.4769	735.9224	769.1856	822.5236	879.0765	901.5807	950.0601	985.0042	1022.3164	1031.0067	1047.6722	1091.6583	1129.116	1153.4098	1204.8434	1216.0001	1236.4074	1264.0172	1305.3066	1345.2264	1356.1576	1407.7574	1412.751	1418.1829	1462.3675	1479.4256	1490.98	1499.073	1508.9364	2355.6484	2973.3014	3032.1263	3032.5788	3061.9457	3082.2728	3095.7333	3107.339	3114.6448	3119.0408	3500.7551	3816.9063
CCC1NC1C#CCO	CC[C@H]1N[C@H]1C#CCO	
InChI=1S/C7H11NO/c1-2-6-7(8-6)4-3-5-9/h6-9H,2,5H2,1H3	InChI=1S/C7H11NO/c1-2-6-7(8-6)4-3-5-9/h6-9H,2,5H2,1H3/t6-,7+/m1/s1
