17
gdb 108728	3.04667	1.2821	0.96266	6.3481	79.33	-0.2132	-0.0219	0.1913	1210.5469	0.137236	-418.008974	-418.000724	-417.99978	-418.041897	30.887	
C	-0.01274625	 1.408033387	 0.1498006276	-0.327027
N	-0.0421945299	-0.0243047745	-0.0674217613	-0.380947
C	 0.583662556	-0.6134488581	-1.1095056029	 0.4746
C	 1.2238115712	-0.0359334872	-2.1667514061	-0.370605
C	 1.7230944692	-1.0586877107	-3.0839571599	 0.448368
O	 2.2883201816	-0.9182633989	-4.1486611976	-0.367121
C	 1.3748137033	-2.4091403742	-2.4499065852	-0.168046
N	 2.0369727998	-2.6115763994	-1.1299598227	-0.327196
C	 0.6375128078	-2.1116458628	-1.2084579622	-0.185491
H	 1.0027418521	 1.7758347324	 0.3488113629	 0.139036
H	-0.3969568075	 1.9279378041	-0.7340098098	 0.148481
H	-0.6510943849	 1.6567447145	 0.9994917308	 0.132455
H	-0.2939408493	-0.6089706054	 0.7119621562	 0.251506
H	 1.4058325602	 1.0188404009	-2.3139972896	 0.095849
H	 1.166891455	-3.2649609176	-3.0808931616	 0.105203
H	 2.0079961298	-3.6103753868	-0.9193334078	 0.232619
H	-0.1800709244	-2.7199639433	-0.835970121	 0.098316
104.2587	134.12	178.2816	188.2102	242.8971	343.5796	367.9353	442.1291	460.754	597.9895	638.4803	694.6409	747.9553	815.9637	845.5782	851.826	878.3966	902.8939	925.7663	1035.8692	1069.9982	1121.2723	1145.3867	1151.4193	1170.0025	1194.9131	1261.4636	1292.8745	1312.2802	1352.9272	1398.6888	1458.7595	1480.7873	1512.2271	1551.1426	1652.5265	1799.3565	3013.8137	3078.1299	3133.3186	3167.0917	3192.6653	3235.9175	3449.2496	3645.8548
CNC1=CC(=O)C2NC12	CNC1=CC(=O)[C@H]2N[C@@H]12	
InChI=1S/C6H8N2O/c1-7-3-2-4(9)6-5(3)8-6/h2,5-8H,1H3	InChI=1S/C6H8N2O/c1-7-3-2-4(9)6-5(3)8-6/h2,5-8H,1H3/t5-,6+/m0/s1
