18
gdb 95606	2.31119	1.8023	1.04826	5.3734	75.98	-0.2324	-0.0263	0.206	1123.3074	0.150579	-435.314339	-435.305886	-435.304942	-435.347585	31.277	
C	-0.0400360647	 1.4542118253	 0.0244079096	-0.351425
N	 0.0159913715	 0.0053973032	-0.0889899824	-0.120155
C	-1.236721405	-0.7238637726	 0.0658711446	-0.143612
C	-1.1455761678	-2.0982870804	-0.5791929919	-0.185645
N	 0.0132242281	-2.7831112609	-0.0409269994	-0.332667
C	 1.2385811949	-2.1496674887	-0.0744776175	 0.262646
N	 2.3307079567	-2.8021331123	-0.0434660462	-0.508328
C	 1.2323595439	-0.61851333	-0.0951810531	 0.380175
O	 2.294608978	-0.020040175	-0.1213077023	-0.387624
H	 0.9697301116	 1.8445316517	-0.0900105156	 0.174871
H	-0.6890483945	 1.8710593527	-0.7537321956	 0.126358
H	-0.4353944759	 1.7558540828	 1.0031290428	 0.12762
H	-1.4953291915	-0.8247818996	 1.1304056956	 0.120375
H	-2.0318593871	-0.1442343623	-0.4147836416	 0.116721
H	-2.0444408329	-2.671958753	-0.3374721787	 0.120879
H	-1.1020966715	-1.987767267	-1.6750023533	 0.111363
H	 0.0806276051	-3.7793441245	-0.1993389329	 0.248787
H	 3.096332691	-2.1254118795	-0.0205939121	 0.23966
96.5751	108.52	134.3788	191.9066	298.7925	328.7562	386.2486	444.5163	457.0171	488.7655	554.7302	617.3088	689.7521	728.4469	802.6794	919.6313	922.5988	951.3175	999.6468	1092.8871	1106.6182	1115.3558	1155.7529	1204.1666	1240.625	1261.5419	1287.968	1353.784	1385.5844	1426.7677	1436.8969	1454.4833	1477.2626	1497.1091	1498.7075	1511.9487	1532.2489	1725.0795	1764.6148	2969.4732	2998.3137	3017.3244	3069.5431	3072.4476	3089.5909	3171.6807	3468.322	3588.6673
CN1CCNC(=N)C1=O	CN1CCN[C]([NH])C1=O	
InChI=1S/C5H9N3O/c1-8-3-2-7-4(6)5(8)9/h2-3H2,1H3,(H2,6,7)	InChI=1S/C5H9N3O/c1-8-3-2-7-4(6)5(8)9/h2-3H2,1H3,(H2,6,7)
