19
gdb 51602	4.52532	0.6199	0.5967	2.2093	78.22	-0.2503	-0.0296	0.2207	1825.3894	0.156051	-423.027797	-423.017881	-423.016937	-423.064943	33.943	
O	-0.5829868906	 0.2566059741	 0.0761927973	-0.235983
C	-0.0773523437	 1.3483402773	 0.0962956802	 0.164856
C	 1.3538274715	 1.6471592421	-0.3070320207	-0.301263
C	 1.4127275583	 2.7592085867	-1.3390656631	-0.027493
C	 1.3656197965	 4.2154035497	-0.9300155293	-0.289458
C	 2.6249623002	 3.6439216217	-1.5350987509	-0.027739
C	 3.8935412349	 3.5026716164	-0.7117857743	-0.303683
C	 4.6867902306	 4.7950104236	-0.7050304815	 0.168903
O	 5.0683520437	 5.360925676	 0.2855453686	-0.234239
H	-0.6546309377	 2.2448692593	 0.4204301247	 0.078087
H	 1.8872255236	 1.9489102867	 0.6041196566	 0.120736
H	 1.8086647842	 0.721303634	-0.6727163203	 0.123799
H	 0.884503186	 2.5164479275	-2.2577660101	 0.10224
H	 0.766587124	 4.9066313261	-1.5117839309	 0.121897
H	 1.3867583022	 4.4352390746	 0.1334173235	 0.123153
H	 2.8136016894	 3.9189142944	-2.5701499923	 0.096513
H	 3.6936780935	 3.2285141889	 0.3267100768	 0.122025
H	 4.5340314333	 2.7231280508	-1.1509910362	 0.124339
H	 4.90084595	 5.20697653	-1.7194069378	 0.07331
39.4022	51.6395	68.5554	76.4049	127.1891	212.7454	261.3733	330.0491	412.5637	486.5204	494.6948	548.6672	743.5479	778.1044	821.9612	853.511	878.4349	928.642	951.9002	1018.9993	1038.4083	1075.2369	1081.6346	1089.7721	1143.2405	1157.3009	1176.0514	1236.1265	1241.2213	1251.6845	1288.3732	1295.299	1394.503	1422.9637	1428.3174	1430.2054	1454.9609	1463.4558	1495.6991	1835.716	1839.3549	2856.0014	2868.0598	3006.4245	3027.5688	3091.1652	3106.8504	3129.8437	3130.4572	3141.7563	3215.8969
O=CCC1CC1CC=O	O=CC[C@H]1C[C@H]1CC=O	
InChI=1S/C7H10O2/c8-3-1-6-5-7(6)2-4-9/h3-4,6-7H,1-2,5H2	InChI=1S/C7H10O2/c8-3-1-6-5-7(6)2-4-9/h3-4,6-7H,1-2,5H2/t6-,7+
