21
gdb 110899	2.39704	1.51593	1.13315	1.2617	77.41	-0.2427	0.0756	0.3183	1153.9569	0.183496	-424.200348	-424.19182	-424.190876	-424.233271	33.301	
C	-0.114924319	 1.5330074058	-0.1302755799	-0.412649
C	 0.0435501002	 0.0172692404	-0.0082319125	-0.012392
C	 0.9867977744	-0.5734492648	-1.086014708	 0.080186
C	 1.2161733566	-2.0310642146	-0.6389233484	-0.249114
C	 1.9604950874	-1.2468917508	 0.4601945232	 0.0824
O	 2.3091333119	-0.2434453776	-0.5517096051	-0.305921
C	 0.8319753536	-0.5338617894	 1.2418074697	 0.020295
C	 1.3735764674	 0.4913160119	 2.2260089344	-0.109913
O	 2.0236754306	-0.238263222	 3.2629199533	-0.430624
H	 0.8587767206	 2.0266652869	-0.1922487164	 0.132222
H	-0.674238721	 1.782423673	-1.0386349117	 0.108697
H	-0.6635305567	 1.9579647622	 0.7159414787	 0.113691
H	-0.9450176773	-0.4507825999	-0.0677969319	 0.07081
H	 0.8393479081	-0.273814977	-2.1247649423	 0.073091
H	 0.3562735161	-2.6491540962	-0.3664955376	 0.092248
H	 1.9008963778	-2.561463581	-1.3012406926	 0.108704
H	 2.8097658581	-1.6318662387	 1.0218707993	 0.088515
H	 0.2328455204	-1.2540259524	 1.8084239724	 0.07785
H	 2.0764483747	 1.161637681	 1.7121806168	 0.102708
H	 0.5557006933	 1.1055554166	 2.6327508512	 0.083255
H	 2.4649625028	 0.3914059966	 3.8400498475	 0.285941
109.2148	136.7935	188.4185	246.0353	258.2283	280.6677	288.4678	432.8574	475.1838	476.0454	616.5648	714.5465	780.276	818.3323	844.9098	863.0534	877.2922	919.2935	960.0463	999.5239	1012.5416	1040.332	1045.8139	1059.5197	1086.2182	1102.5465	1129.9974	1149.6026	1195.3684	1211.6502	1229.4994	1254.5243	1259.4881	1270.0256	1297.4161	1312.5062	1326.1007	1370.1008	1372.9572	1407.6291	1454.6387	1487.4667	1498.7844	1509.6685	1526.35	2979.5325	3024.363	3035.4973	3041.6394	3058.9106	3066.0259	3095.5581	3110.3944	3120.1374	3139.7576	3145.3789	3831.7883
CC1C2CC(O2)C1CO	C[C@H]1[C@@H]2C[C@@H](O2)[C@H]1CO	
InChI=1S/C7H12O2/c1-4-5(3-8)7-2-6(4)9-7/h4-8H,2-3H2,1H3	InChI=1S/C7H12O2/c1-4-5(3-8)7-2-6(4)9-7/h4-8H,2-3H2,1H3/t4-,5+,6+,7-/m1/s1
