13
gdb 48385	2.29914	1.39843	0.98838	2.3611	65.44	-0.2797	-0.0829	0.1969	1133.8038	0.087121	-452.738669	-452.730179	-452.729234	-452.772444	29.154	
O	-0.3648524178	 0.1207032489	 0.4735924253	-0.243738
C	 0.3298103911	 0.6477454711	-0.3561535426	 0.122557
C	 1.2114412862	 1.820785431	-0.0412872252	 0.088506
N	 2.3043989005	 2.0908621895	-0.9846771376	-0.328142
C	 1.2082368443	 3.0378904496	-0.9629029653	-0.209389
C	 0.3457805168	 3.0948263421	-2.1202777202	 0.343847
N	-0.3619499936	 3.158905231	-3.0313963449	-0.310493
C	 1.4606982841	 2.1497479784	 1.4048164898	 0.092599
O	 2.3593515101	 2.8862701836	 1.7338442248	-0.262109
H	 0.3780057574	 0.3070750114	-1.4093842857	 0.125781
H	 3.0811196861	 2.4800931355	-0.445663045	 0.27129
H	 1.3494893086	 3.9868289226	-0.451085012	 0.166799
H	 0.7824425661	 1.6659790053	 2.1273071086	 0.142489
78.9219	109.0827	147.8862	174.2279	207.582	275.525	325.0768	354.3728	461.6589	549.4781	592.9227	685.1288	773.3181	786.9064	914.8326	978.5618	1005.3374	1044.8909	1058.4924	1107.247	1233.3771	1251.7955	1331.0227	1400.9373	1408.6307	1435.7418	1800.3827	1823.2189	2364.9507	2947.8564	3009.8457	3150.7675	3451.6014
O=CC1(NC1C#N)C=O	O=CC1(N[C@H]1C#N)C=O	
InChI=1S/C5H4N2O2/c6-1-4-5(2-8,3-9)7-4/h2-4,7H	InChI=1S/C5H4N2O2/c6-1-4-5(2-8,3-9)7-4/h2-4,7H/t4-/m0/s1
