16
gdb 99841	2.10054	1.35951	1.21116	5.7153	65.73	-0.2529	-0.0136	0.2393	1124.0358	0.122844	-471.227978	-471.218028	-471.217084	-471.262764	35.751	
N	-0.0427998046	 1.4845161392	 0.0245428189	-0.501273
C	 0.0465785389	 0.0374121176	-0.0389764496	-0.184876
C	 0.8182846176	-0.495504252	 1.1788935413	 0.088624
O	 2.1625314223	-0.0071900527	 1.1990184956	-0.459311
C	 0.2049232817	-0.0390798902	 2.4387019438	 0.339046
N	-0.2800380598	 0.2502009707	 3.4457475864	-0.328851
C	 0.7728408916	-2.0607149737	 1.1839513805	 0.360425
N	 1.9000005993	-2.6261636171	 1.6810356	-0.523371
O	-0.1858644849	-2.6679907218	 0.7603343951	-0.348644
H	 0.8786783774	 1.9039176137	-0.0345848994	 0.233954
H	-0.5977678677	 1.8440085295	-0.743029981	 0.239388
H	-0.9527948297	-0.4018389234	-0.0234358804	 0.156342
H	 0.5553258509	-0.3710208416	-0.9334947943	 0.084494
H	 2.5670608621	-0.2672713859	 0.3618483368	 0.292872
H	 2.6054445638	-2.048797539	 2.1078395893	 0.278026
H	 1.9106266313	-3.6225672531	 1.8268634371	 0.273154
58.3058	118.7856	144.0552	159.4527	199.4393	254.9564	291.7479	308.8804	363.4022	385.0454	435.2045	449.233	468.8519	603.6846	622.1058	627.284	695.9663	765.5842	824.2152	921.874	1001.3251	1062.4808	1080.748	1103.0618	1143.2084	1201.8368	1298.3775	1346.784	1379.6719	1412.315	1498.9732	1596.8275	1651.9621	1816.3956	2366.7316	2915.4693	3118.2599	3517.7561	3593.8096	3602.523	3730.0572	3785.6298
NCC(O)(C#N)C(N)=O	NC[C@@](O)(C#N)C(=O)N	
InChI=1S/C4H7N3O2/c5-1-4(9,2-6)3(7)8/h9H,1,5H2,(H2,7,8)	InChI=1S/C4H7N3O2/c5-1-4(9,2-6)3(7)8/h9H,1,5H2,(H2,7,8)/t4-/m1/s1
