15
gdb 75270	2.36325	1.75206	1.47137	4.0724	70.37	-0.2388	-0.0038	0.2351	945.4813	0.114863	-412.990117	-412.982561	-412.981617	-413.022103	28.754	
N	 0.0234639386	 1.3252718943	-0.105590899	-0.560133
C	-0.0605506957	-0.0297239299	-0.0142776452	 0.400832
N	-1.1295255443	-0.7279667267	 0.0012152961	-0.279307
C	-0.7357482576	-2.1366772219	 0.0225194329	-0.196538
C	 0.7965361429	-2.1278656049	-0.0201219458	-0.048713
C	 1.4756070524	-1.5055656326	-1.1993516881	-0.183318
C	 0.761279116	-1.2452028818	-2.4221752686	 0.325979
N	 0.2288500441	-1.0597725474	-3.4319296202	-0.337394
N	 1.2132061135	-0.7187014938	 0.0459192651	-0.170467
H	 0.8652934534	 1.7494272447	 0.2472429953	 0.267728
H	-0.8333059227	 1.8330920439	 0.0465206885	 0.27108
H	-1.0854397288	-2.6199134733	 0.9427559781	 0.118143
H	-1.1826550584	-2.6803594754	-0.8183735536	 0.132338
H	 1.3674057616	-2.8345370048	 0.5730927467	 0.115821
H	 2.5313485849	-1.7097447702	-1.351991252	 0.143951
103.5091	132.2721	234.0195	275.9238	360.0761	379.1416	428.9228	491.4431	568.9718	576.6861	682.8149	740.7666	751.445	792.606	839.8732	870.5562	950.2273	981.5538	988.3363	1049.1649	1081.6246	1127.3412	1173.9668	1209.7024	1245.175	1318.665	1344.8908	1363.1265	1404.9283	1497.5267	1614.6209	1748.9808	2354.6145	3029.7005	3058.7842	3155.1076	3170.8019	3600.6207	3720.49
NC1=NCC2C(C#N)N12	NC1=NC[C@H]2[C@@H](C#N)N12	
InChI=1S/C5H6N4/c6-1-3-4-2-8-5(7)9(3)4/h3-4H,2H2,(H2,7,8)	InChI=1S/C5H6N4/c6-1-3-4-2-8-5(7)9(3)4/h3-4H,2H2,(H2,7,8)/t3-,4+,9?/m1/s1
