18
gdb 88252	3.63452	0.66238	0.58854	3.5361	83.95	-0.2408	-0.0287	0.2121	1851.177	0.144989	-401.903836	-401.893832	-401.892888	-401.941596	34.302	
C	-0.4098847163	 1.4818184553	 0.3168390907	-0.397156
C	-0.0032942983	 0.0550366622	 0.0523327113	 0.019743
N	 1.3741247057	-0.1735712369	-0.3907766532	-0.31988
C	 0.9524732683	-0.6910429724	 0.9370506952	-0.258025
C	 1.5541292752	-0.1047852098	 2.102823732	 0.157275
C	 2.0542504576	 0.3556051034	 3.0978816474	 0.058169
C	 2.6149364311	 0.9532592041	 4.3000747909	-0.417196
C	 1.6031206057	 1.8276600657	 5.0455049656	 0.172528
O	 1.8902911749	 2.8522002944	 5.6011751252	-0.230208
H	 0.4024694417	 2.0289288011	 0.7996797548	 0.13916
H	-0.6565627783	 1.9894325526	-0.6213962067	 0.12261
H	-1.2908437207	 1.519459214	 0.9662528734	 0.118281
H	-0.7765198993	-0.5672735688	-0.3976448699	 0.088232
H	 1.4185226223	-0.946288119	-1.0502303588	 0.2353
H	 0.7824739641	-1.7633975445	 1.0134126712	 0.105974
H	 2.9279610747	 0.1660148735	 5.0036441034	 0.155222
H	 3.5020360963	 1.5598187941	 4.0897369939	 0.157735
H	 0.5661908454	 1.426505061	 5.0443542937	 0.092235
14.3264	42.148	80.7232	119.9876	161.2336	198.2011	268.9546	353.985	386.293	428.3219	453.0673	553.2639	591.7937	713.6963	763.8554	789.6238	864.9084	920.6834	983.2843	1009.437	1032.4571	1042.2945	1068.7212	1127.5769	1156.4426	1207.3742	1211.5588	1246.0269	1261.0618	1295.2777	1393.7845	1413.1173	1423.0148	1438.7232	1453.7816	1487.5222	1496.1414	1841.389	2364.122	2898.9083	2999.5844	3039.6987	3078.5988	3102.2228	3104.6516	3121.1142	3137.4838	3502.2787
CC1NC1C#CCC=O	C[C@H]1N[C@H]1C#CCC=O	
InChI=1S/C7H9NO/c1-6-7(8-6)4-2-3-5-9/h5-8H,3H2,1H3	InChI=1S/C7H9NO/c1-6-7(8-6)4-2-3-5-9/h5-8H,3H2,1H3/t6-,7+/m1/s1
