25
gdb 117652	2.63499	0.91728	0.80493	0.4118	85.03	-0.2572	0.0647	0.3219	1574.6005	0.225433	-426.628209	-426.61633	-426.615386	-426.665048	43.846	
C	 0.0276568413	 1.5591570003	-0.0142548475	-0.422395
C	-0.0057124568	 0.0212408084	 0.0278720623	 0.039869
C	 0.8259972057	-0.4686934679	 1.2246163635	-0.404974
C	-1.4602861939	-0.5552091274	 0.0418955091	 0.336588
C	-1.442119233	-2.084591886	 0.1549897139	-0.41357
O	-2.1577177399	-0.1117705005	 1.2165473571	-0.467734
C	-2.2286258563	-0.1078888078	-1.222100886	-0.209419
C	-3.6566483469	-0.6346782255	-1.3355248524	-0.092465
O	-4.2992508357	 0.121563515	-2.3562265912	-0.426375
H	 1.0637720041	 1.9102921519	-0.0348682711	 0.116398
H	-0.4731947343	 1.9750666296	-0.8917132526	 0.120668
H	-0.4333028859	 1.9926207797	 0.8820031168	 0.107293
H	 0.4651058637	-0.3458423044	-0.8945602803	 0.069352
H	 0.2993384027	-0.2640978177	 2.1619004197	 0.126844
H	 1.0325334895	-1.5404985643	 1.1781912065	 0.112502
H	 1.7904386994	 0.0479463032	 1.2556229761	 0.103794
H	-0.9830571653	-2.3969408889	 1.0939455349	 0.126203
H	-2.458317774	-2.4842709479	 0.1419935089	 0.120673
H	-0.8832109092	-2.5297112644	-0.6740443373	 0.109883
H	-2.2919058128	 0.8386039624	 1.1389524732	 0.27813
H	-2.3037313125	 0.9851695425	-1.2349629027	 0.10149
H	-1.663376074	-0.3869772011	-2.1190649488	 0.099752
H	-3.661133322	-1.7055360797	-1.5862147471	 0.086155
H	-4.1641785694	-0.5170651311	-0.367028201	 0.097683
H	-5.1975757944	-0.2085552485	-2.4493680442	 0.283655
53.3009	91.1237	94.7793	146.4788	191.7823	219.7096	234.3083	270.6585	289.5433	313.247	331.0585	331.846	374.5448	377.817	396.6559	455.8798	510.1561	613.4154	743.7987	794.6101	855.2985	923.5422	933.1668	946.2996	964.2138	991.8719	1021.8545	1060.4975	1073.948	1097.2033	1134.3449	1174.8008	1201.603	1209.1919	1239.1218	1255.9936	1311.2219	1334.4395	1347.1499	1350.8469	1380.8875	1398.0395	1413.4211	1421.7324	1455.6662	1476.2015	1487.6462	1490.0014	1495.469	1508.9106	1512.9834	1523.442	1535.4689	2984.7453	3008.5046	3017.6462	3029.055	3036.2828	3040.9222	3053.016	3079.4947	3092.488	3105.4528	3117.3402	3119.444	3124.8288	3140.7535	3813.5407	3829.1244
CC(C)C(C)(O)CCO	CC(C)[C@@](C)(O)CCO	
InChI=1S/C7H16O2/c1-6(2)7(3,9)4-5-8/h6,8-9H,4-5H2,1-3H3	InChI=1S/C7H16O2/c1-6(2)7(3,9)4-5-8/h6,8-9H,4-5H2,1-3H3/t7-/m0/s1
