20
gdb 55175	3.25143	1.26251	1.04085	3.7979	80.49	-0.2301	0.034	0.264	1209.1289	0.170962	-403.155161	-403.146228	-403.145284	-403.190154	32.353	
C	 0.0167537848	 1.4835129973	 0.1978147051	-0.489468
C	 0.0725683732	-0.0366358806	 0.2052786285	 0.362465
O	 1.0983133548	-0.6717690259	 0.3857846029	-0.373439
N	-1.1195898766	-0.6579365621	-0.0004560567	-0.055393
C	-2.48127925	-0.2170730224	-0.3254469591	-0.193736
C	-2.8573738287	-1.7029135324	-0.5591776393	-0.049428
C	-2.5387750516	-2.2372025054	-1.9846030961	-0.228741
C	-1.1209393536	-2.690924127	-1.5123915822	-0.222578
C	-1.4005580465	-2.0871376005	-0.1137476345	 0.014332
H	 1.0006807579	 1.8673980457	 0.4658121961	 0.146608
H	-0.2558999179	 1.8581046999	-0.7949758899	 0.134581
H	-0.7285781586	 1.860215551	 0.9060326772	 0.132256
H	-2.9970504154	 0.2597086091	 0.5180562992	 0.109951
H	-2.5625475377	 0.437998184	-1.2019902547	 0.108432
H	-3.7545873284	-2.0694804939	-0.0643220661	 0.079605
H	-3.1830888509	-3.0609797429	-2.2991743982	 0.107453
H	-2.5589547781	-1.4752367404	-2.7689852794	 0.101233
H	-1.0098855172	-3.7779385204	-1.4839480199	 0.106963
H	-0.2597609886	-2.2676480789	-2.0320290842	 0.119877
H	-1.1396972407	-2.6711621043	 0.7704682812	 0.089026
35.0944	79.4918	102.6971	120.9922	171.8442	329.2471	354.0646	427.6486	539.9666	595.1085	630.0982	713.9301	756.5787	795.1742	829.3986	884.752	940.9313	946.1007	953.6883	994.4384	1024.9685	1048.8064	1078.9142	1111.1303	1130.1412	1142.4742	1182.1342	1197.4343	1225.9185	1236.5579	1267.6405	1274.7724	1303.4635	1320.8671	1336.1172	1379.4756	1442.4046	1471.2383	1473.0806	1482.8254	1489.0628	1516.409	1762.5396	3005.5169	3040.0893	3046.4734	3058.2016	3068.3479	3096.1679	3100.4964	3105.5705	3128.8359	3134.1259	3160.1193
CC(=O)N1CC2CCC12	CC(=O)N1C[C@H]2CC[C@@H]12	
InChI=1S/C7H11NO/c1-5(9)8-4-6-2-3-7(6)8/h6-7H,2-4H2,1H3	InChI=1S/C7H11NO/c1-5(9)8-4-6-2-3-7(6)8/h6-7H,2-4H2,1H3/t6-,7-/m1/s1
