17
gdb 63790	3.54153	1.30291	1.22736	4.224	68.07	-0.2595	-0.0116	0.2478	1067.8035	0.134332	-458.968789	-458.960592	-458.959648	-459.001369	30.992	
C	 0.3892950547	 1.3840061962	-0.0005260157	-0.434282
C	 0.0559899228	-0.0937908004	 0.055682467	 0.368978
C	-1.4089660247	-0.3963173516	-0.2269018738	-0.425904
O	 0.9007567373	-0.8784580702	-0.868624982	-0.336583
C	 1.3461631449	-1.742808179	 0.1879295878	-0.073811
C	 0.6029319048	-0.9185345702	 1.2468386414	 0.011719
O	 1.867679615	-0.4295902498	 1.7781755266	-0.256905
C	 2.6078371375	-1.1867240146	 0.8806807179	 0.44598
O	 3.787367605	-1.2571338792	 0.7946422487	-0.309853
H	 1.4334121897	 1.5634338413	 0.2602969943	 0.145169
H	 0.2113611809	 1.7608687064	-1.0124110703	 0.132321
H	-0.2445407775	 1.947531849	 0.6914994888	 0.123875
H	-1.6700182161	-0.0655148422	-1.2361024678	 0.137181
H	-1.6112182821	-1.4695795438	-0.1591200518	 0.123711
H	-2.0541758475	 0.124768428	 0.4881081512	 0.123902
H	 1.2727072593	-2.8079928762	-0.0315229036	 0.116166
H	-0.0594535141	-1.2754377137	 2.0319536112	 0.108338
95.9756	179.7204	186.5451	232.7651	242.969	319.5388	368.5705	398.1871	456.84	516.8692	636.9338	732.7575	770.9049	819.2889	852.54	912.9258	937.3714	944.949	957.3992	992.2947	1011.3243	1031.6126	1094.7914	1165.3926	1191.3355	1214.0968	1234.3324	1285.601	1293.8452	1330.245	1403.3309	1417.4228	1473.6394	1479.0215	1495.8599	1502.8484	1947.2378	3037.1722	3046.986	3108.949	3113.8092	3117.9177	3120.3879	3143.3891	3149.1967
CC1(C)OC2C1OC2=O	CC1(C)O[C@@H]2[C@H]1OC2=O	
InChI=1S/C6H8O3/c1-6(2)4-3(9-6)5(7)8-4/h3-4H,1-2H3	InChI=1S/C6H8O3/c1-6(2)4-3(9-6)5(7)8-4/h3-4H,1-2H3/t3-,4-/m1/s1
