14
gdb 5147	5.79779	1.25508	1.1199	0.4713	67.94	-0.2261	0.0165	0.2425	1025.7413	0.107129	-345.39392	-345.386751	-345.385806	-345.426103	26.464	
C	-0.0860047986	-1.1962474218	-0.4050682857	-0.458107
C	-0.0362264335	-0.033784039	-0.105527804	 0.313663
C	 0.0289025079	 1.3846284422	 0.2435572592	-0.474207
C	 1.407203406	 1.9771555088	 0.100947739	 0.258211
C	 2.1066783814	 2.6538678493	 1.0496660445	-0.100322
O	 3.3068934055	 3.0683637868	 0.563655874	-0.142032
C	 3.3742321154	 2.6426425595	-0.7255905697	 0.007949
C	 2.2461613332	 1.9708656688	-1.0664776659	-0.273754
H	-0.1297570671	-2.2254368493	-0.6620330557	 0.197421
H	-0.6803311938	 1.9356493412	-0.3897601749	 0.143281
H	-0.3206872735	 1.523523127	 1.2737214341	 0.137527
H	 1.8981943995	 2.9129746328	 2.0748909776	 0.135134
H	 4.2794536485	 2.8931999698	-1.2534874262	 0.136719
H	 2.0277920691	 1.512712994	-2.0183529863	 0.118516
41.4077	107.3919	277.0438	305.526	335.118	452.8355	618.1692	622.2562	625.2927	641.7105	726.0433	741.9767	789.4472	834.8289	892.8822	930.8578	949.1215	996.8555	1055.6082	1102.0832	1194.411	1215.454	1268.6708	1281.8443	1337.815	1414.0798	1464.006	1538.3499	1636.6987	2241.2432	3009.8937	3052.075	3257.0026	3273.0115	3286.2582	3507.0309
C#CCC1=COC=C1	C#CCc1cocc1	
InChI=1S/C7H6O/c1-2-3-7-4-5-8-6-7/h1,4-6H,3H2	InChI=1S/C7H6O/c1-2-3-7-4-5-8-6-7/h1,4-6H,3H2
