15
gdb 28541	3.18306	1.44046	0.99494	2.7478	75.04	-0.193	-0.0223	0.1706	1112.762	0.115685	-450.196007	-450.188364	-450.18742	-450.227695	30.326	
N	-0.0011917376	 1.411467942	-0.036430096	-0.58911
C	-0.0244861473	 0.0060734744	-0.022808646	 0.290006
N	-1.1777995128	-0.6334436325	-0.0894121763	-0.293212
C	-1.1616549755	-1.9729301701	-0.1187110558	-0.124434
C	 0.043203071	-2.6614723614	-0.0550758998	 0.387429
O	 0.0526444872	-4.0144757502	-0.052527691	-0.425958
N	 1.219274561	-2.0335515762	-0.0083097146	-0.408003
C	 1.2005574555	-0.7062585515	-0.0046460866	 0.321553
N	 2.3984110884	-0.013867677	 0.0639644031	-0.577709
H	 0.5682485803	 1.8000387533	 0.7083413491	 0.248246
H	-0.9448322353	 1.776512708	 0.0198636491	 0.250416
H	-2.1077025138	-2.4979537572	-0.1822245838	 0.113741
H	 0.9815087212	-4.2776780002	-0.0147547595	 0.294735
H	 3.2022327915	-0.5922147252	-0.1393259071	 0.253554
H	 2.3951062862	 0.8589001337	-0.4483419447	 0.258748
136.8877	241.5968	268.9235	298.6161	341.774	394.0139	457.6754	481.5741	500.7725	512.2112	526.5566	596.671	666.6614	707.709	742.4173	781.2085	812.1547	846.8357	880.5927	1015.4878	1092.6383	1138.4616	1200.7399	1286.2093	1292.2498	1334.4705	1412.1346	1497.3598	1505.3966	1593.3002	1636.0842	1645.5648	1653.6941	3194.7036	3505.3424	3539.1486	3608.3025	3650.8442	3782.9824
NC1=NC=C(O)N=C1N	Nc1ncc(O)nc1N	
InChI=1S/C4H6N4O/c5-3-4(6)8-2(9)1-7-3/h1H,(H2,5,7)(H3,6,8,9)	InChI=1S/C4H6N4O/c5-3-4(6)8-2(9)1-7-3/h1H,(H2,5,7)(H3,6,8,9)
