20
gdb 120902	4.34824	0.84557	0.76773	1.7166	76.94	-0.2206	0.0614	0.282	1502.9136	0.16973	-440.221309	-440.212136	-440.211192	-440.256121	33.758	
O	 0.3539346073	 1.2886324312	-0.0435607549	-0.415407
C	 0.0527887951	-0.0916407657	 0.1115912988	-0.068507
C	-1.448204992	-0.3738314332	 0.1362794823	-0.144242
N	-2.0997744725	 0.0217056178	-1.0996327716	-0.096001
C	-2.4882839829	 1.4461763102	-1.2777297357	-0.261764
C	-3.843503561	 0.9707933706	-1.7973221737	 0.426827
C	-5.1196492725	 1.6543062032	-1.9742092727	-0.264462
O	-4.3186780912	 1.2529809518	-3.0981910137	-0.263435
C	-3.4928519933	-0.4382080956	-1.3194170606	-0.247207
H	 0.2182930881	 1.5098990465	-0.969546235	 0.292391
H	 0.5210436813	-0.6897973689	-0.6827864803	 0.096165
H	 0.4935080556	-0.3967264844	 1.0672289184	 0.105324
H	-1.5914327651	-1.4542060691	 0.264833669	 0.100621
H	-1.8976286976	 0.1258143683	 1.0166525041	 0.081175
H	-2.5464866017	 2.0098357782	-0.3350085174	 0.105769
H	-1.880038906	 2.009047084	-1.9948786759	 0.106888
H	-6.0523454325	 1.1058721765	-1.8460340596	 0.117161
H	-5.1875427207	 2.7291129357	-1.8093055848	 0.117913
H	-3.597798093	-1.2417042753	-2.0564075271	 0.117329
H	-4.0193074753	-0.7220732317	-0.3946309197	 0.093461
48.3055	67.2575	110.8351	220.4426	262.6949	297.8275	333.9732	354.9539	390.4766	413.6215	475.8582	570.9215	724.1754	827.0194	862.3442	892.7501	906.8904	940.4182	951.6602	980.6053	1051.2673	1064.9969	1102.6594	1118.8335	1125.1463	1130.6659	1158.7315	1186.6085	1196.4853	1197.5719	1235.1882	1268.7658	1313.4783	1324.1657	1396.242	1402.5168	1416.1026	1456.8035	1472.7897	1485.8404	1493.0809	1510.7359	1546.0627	2915.5656	2978.8519	2996.5462	3005.646	3049.3709	3054.5684	3063.1858	3073.1284	3078.8413	3164.2496	3835.2756
OCCN1CC2(CO2)C1	OCCN1CC2(CO2)C1	
InChI=1S/C6H11NO2/c8-2-1-7-3-6(4-7)5-9-6/h8H,1-5H2	InChI=1S/C6H11NO2/c8-2-1-7-3-6(4-7)5-9-6/h8H,1-5H2
