20
gdb 99536	2.17559	1.21467	0.83061	4.1676	85.26	-0.2732	0.03	0.3031	1413.2029	0.168175	-366.002705	-365.992087	-365.991143	-366.038603	38.093	
C	 0.0153034905	 1.6040210048	 0.0893034182	-0.393463
C	-0.0364830808	 0.0780395007	-0.0159481909	-0.191298
C	 0.7045045756	-0.4729984356	-1.2576239901	-0.158928
C	 2.1097858651	-0.0703488238	-1.2519091696	 0.332998
C	 3.2703933917	 0.239624361	-1.2164152363	-0.44808
C	 0.59741757	-2.0305104616	-1.3664249269	-0.143685
C	-0.8519005059	-2.5559601135	-1.4001951794	-0.409388
C	 1.3092932681	-2.5029570199	-2.5600797379	 0.278225
N	 1.833052812	-2.8910263666	-3.5142806681	-0.3251
H	 1.0458714866	 1.9607475511	 0.1623859361	 0.138355
H	-0.4420077541	 2.0758075534	-0.7873534315	 0.118381
H	-0.5292212782	 1.9464232113	 0.9740454308	 0.117281
H	 0.400094782	-0.3742024093	 0.8830747038	 0.108055
H	-1.0815627941	-0.2428704291	-0.0603335561	 0.106015
H	 0.2267774556	-0.0529869603	-2.1540293987	 0.119679
H	 4.2963219336	 0.514553424	-1.2113702173	 0.203322
H	 1.1117351205	-2.4569234686	-0.4963460497	 0.135065
H	-0.8575062072	-3.6327877637	-1.5838815986	 0.142381
H	-1.3555426681	-2.3721221336	-0.4496447796	 0.133091
H	-1.422560633	-2.0734557909	-2.1993161881	 0.137094
48.6789	90.2892	119.6489	158.7142	182.6184	203.0056	248.9654	253.7963	293.8943	328.0522	392.2597	480.6877	513.7	567.8844	605.4692	641.276	654.0665	768.483	837.365	858.6023	942.81	960.6404	1025.8502	1057.0164	1087.858	1121.5305	1137.25	1140.4627	1257.357	1284.7032	1320.0495	1342.3481	1360.9626	1366.4411	1411.4722	1414.4871	1484.8862	1494.5957	1497.3221	1501.5418	1507.9974	2236.3608	2358.606	3009.0447	3033.5093	3039.4777	3043.0815	3052.7194	3082.0321	3106.2876	3124.9889	3126.6077	3139.2241	3503.133
CCC(C#C)C(C)C#N	CC[C@@H](C#C)[C@@H](C)C#N	
InChI=1S/C8H11N/c1-4-8(5-2)7(3)6-9/h1,7-8H,5H2,2-3H3	InChI=1S/C8H11N/c1-4-8(5-2)7(3)6-9/h1,7-8H,5H2,2-3H3/t7-,8+/m0/s1
