17
gdb 29977	3.24187	1.59627	1.13267	1.0161	81.76	-0.1915	-0.0143	0.1773	1059.7867	0.138027	-384.723981	-384.716836	-384.715892	-384.75541	28.471	
C	-0.1005798587	 1.5931715302	-0.0357131131	-0.387518
C	 0.0057913145	 0.0587827381	 0.0144497529	-0.20027
C	 0.8460052415	-0.5232609924	-1.1238819602	-0.077355
C	 1.8653789487	-1.2787976039	-0.6601940507	-0.23061
C	 1.7680538031	-1.2476755817	 0.7845948164	 0.320671
C	 0.7198293433	-0.4920786069	 1.2208377376	 0.250594
C	 0.7614969194	-0.5561781897	 2.6457093701	-0.373899
C	 1.8359580125	-1.3484228062	 2.9425122354	-0.017979
O	 2.4693428355	-1.7864059469	 1.8039573446	-0.203014
H	 0.891389842	 2.0502009783	 0.01949272	 0.127728
H	-0.5792912384	 1.9206034763	-0.9640275878	 0.114864
H	-0.6966139508	 1.967086861	 0.802310819	 0.118757
H	-1.009871047	-0.3588447715	-0.0553464936	 0.103718
H	 0.6232296228	-0.3255743391	-2.164620324	 0.100002
H	 2.6077675017	-1.8055922732	-1.2434046303	 0.111247
H	 0.1069345345	-0.09494503	 3.3693314704	 0.110737
H	 2.2696229754	-1.6865913826	 3.8687174831	 0.132326
130.1719	163.5506	258.5102	288.7471	359.1804	463.1046	545.2011	605.1553	640.1258	680.7137	703.0131	707.2809	774.7886	801.3376	822.4352	902.9983	921.0842	930.2913	1004.4904	1041.0512	1058.5082	1074.2139	1094.519	1143.7323	1166.2326	1217.5429	1272.4377	1278.5159	1326.3743	1405.53	1411.8884	1482.3707	1486.9352	1497.6481	1501.3262	1558.1137	1618.2495	3003.7676	3036.9781	3105.8945	3117.7006	3211.9498	3238.3773	3248.4078	3286.3082
CC1C=CC2=C1C=CO2	C[C@H]1C=Cc2c1cco2	
InChI=1S/C8H8O/c1-6-2-3-8-7(6)4-5-9-8/h2-6H,1H3	InChI=1S/C8H8O/c1-6-2-3-8-7(6)4-5-9-8/h2-6H,1H3/t6-/m0/s1
