21
gdb 42000	3.26652	1.37191	1.02802	1.7235	84.37	-0.2317	0.0195	0.2512	1188.6423	0.186143	-387.116512	-387.108875	-387.107931	-387.148583	30.505	
C	 0.0424630003	 1.533215555	-0.0802203951	-0.104842
O	 1.4330489811	 1.8185219159	-0.2033889509	-0.263215
C	 2.1632057233	 0.8702807462	 0.5777806803	-0.159929
C	 1.1990594158	-0.2594335417	 0.8639081614	 0.311116
C	 1.2925060478	-1.2293122528	 1.7674636957	-0.207923
C	 0.1804847418	-2.216975581	 2.0219733084	-0.234392
C	-0.9844648241	-2.0858587759	 1.0231234478	-0.208265
C	-1.2794023676	-0.6176339712	 0.6714873497	-0.228143
C	-0.0385192695	 0.0052162414	 0.0341331036	-0.066763
H	-0.3822859576	 2.0089991423	 0.820272365	 0.0848
H	-0.4587985452	 1.9463222154	-0.9598711769	 0.105364
H	 3.037279235	 0.5570632468	-0.0074905988	 0.112685
H	 2.5315473216	 1.3310658252	 1.5070621493	 0.102485
H	 2.1805228457	-1.3157683675	 2.3916195746	 0.078264
H	 0.5738276703	-3.2417896416	 2.0034908431	 0.104022
H	-0.1864253438	-2.069696462	 3.0491053424	 0.106637
H	-0.7314268908	-2.621799068	 0.099556374	 0.100376
H	-1.8779406774	-2.571021275	 1.4294926442	 0.09311
H	-2.142295174	-0.5515206756	-0.0003069628	 0.093509
H	-1.5385163169	-0.0628473554	 1.583162788	 0.096154
H	 0.1020721942	-0.4110766205	-0.9748409029	 0.084949
98.7994	171.8978	226.5743	277.1547	323.6069	341.5067	443.4685	512.703	570.0408	636.0864	701.5013	781.4077	812.5252	866.0896	879.3577	920.2653	942.6949	951.7082	998.8998	1024.3732	1065.424	1076.756	1083.9577	1098.105	1116.8452	1157.8714	1173.5446	1209.3481	1225.1391	1243.9292	1270.4384	1306.294	1314.6683	1341.6562	1348.2595	1366.2237	1374.9981	1385.656	1411.983	1477.3179	1489.6844	1497.6686	1506.4823	1519.6868	1762.6691	2957.2678	2985.1206	2989.1416	2994.1012	3018.6432	3023.1066	3030.1867	3036.9971	3067.6446	3075.0299	3088.0164	3136.7019
C1OCC2=CCCCC12	C1OCC2=CCCC[C@@H]12	
InChI=1S/C8H12O/c1-2-4-8-6-9-5-7(8)3-1/h3,8H,1-2,4-6H2	InChI=1S/C8H12O/c1-2-4-8-6-9-5-7(8)3-1/h3,8H,1-2,4-6H2/t8-/m0/s1
