23
gdb 94871	2.61348	1.61849	1.28786	0.4283	88.42	-0.22	0.0811	0.3011	1112.6586	0.208073	-351.138826	-351.130746	-351.129802	-351.170774	33.526	
C	-0.0289668371	 1.5949899183	-0.021906551	-0.399417
C	 0.0283799334	 0.0650816405	-0.0128712638	-0.045129
C	 0.8218334004	-0.5370572319	-1.2189322242	-0.227809
C	 1.3147881093	-1.9465989422	-0.7749072716	-0.304929
C	 1.4736072288	-1.8114529039	 0.7259783051	 0.281799
C	 2.1943395502	-0.6135300467	 1.2825172447	-0.381674
C	 0.691775373	-0.5852292162	 1.188958551	 0.292514
C	 0.0650942145	-1.3950608675	 2.3417482146	-0.299594
C	 0.866480077	-2.6565185028	 1.8620715277	-0.291459
H	 0.9765451222	 2.0233199403	 0.0553994063	 0.111879
H	-0.4844327872	 1.9731076146	-0.9439231231	 0.10673
H	-0.6170165882	 1.9747593076	 0.8199867036	 0.112133
H	-1.0008596929	-0.3190529515	-0.058997304	 0.065641
H	 0.2148809943	-0.5755130282	-2.128577412	 0.095527
H	 1.6787568702	 0.1063965173	-1.4506126158	 0.100158
H	 0.5458578336	-2.6996154083	-0.9878208973	 0.09495
H	 2.2181684319	-2.2512217791	-1.3157690654	 0.094137
H	 2.6638275122	-0.682083717	 2.2604174553	 0.102473
H	 2.74520804	-0.001231621	 0.577288302	 0.110201
H	 0.266718988	-1.0335472479	 3.3556403542	 0.092438
H	-1.0150843953	-1.5223301395	 2.2321680442	 0.098322
H	 0.2104334402	-3.4498500606	 1.4947692822	 0.098459
H	 1.5739729116	-3.0973278142	 2.5723504774	 0.092649
132.9042	206.779	231.5885	244.1674	280.6943	319.5013	422.9743	448.9578	556.5106	570.1	613.7505	710.8289	734.5255	770.219	817.4977	844.2932	908.3643	912.9711	923.7067	943.2756	958.9228	962.1358	979.4684	1047.7187	1059.265	1070.8924	1087.5033	1118.6397	1129.2981	1202.6036	1219.4656	1227.3827	1239.086	1252.3648	1254.8051	1290.571	1316.8314	1335.2551	1349.1132	1377.1338	1380.5677	1409.026	1477.6064	1479.3096	1491.9723	1495.8861	1497.521	1499.9622	1512.7301	2997.635	3024.4191	3025.6878	3036.4293	3036.8138	3044.5076	3060.8442	3085.3068	3086.895	3092.6291	3097.8146	3105.9687	3116.3774	3205.6813
CC1CCC23CC12CC3	C[C@H]1CC[C@@]23C[C@@]12CC3	
InChI=1S/C9H14/c1-7-2-3-8-4-5-9(7,8)6-8/h7H,2-6H2,1H3	InChI=1S/C9H14/c1-7-2-3-8-4-5-9(7,8)6-8/h7H,2-6H2,1H3/t7-,8+,9-/m0/s1
