12
gdb 23946	9.34345	0.66444	0.62033	5.3584	85.8	-0.2496	-0.0615	0.1881	1624.868	0.079	-398.366148	-398.358863	-398.357919	-398.398707	26.145	
N	 0.0380379622	-3.7204158274	-0.0183418342	-0.336713
C	 0.0272639841	-2.5576723021	-0.0117276905	 0.157422
C	 0.0146379094	-1.1955662858	-0.0039789177	 0.24762
C	-0.0039394133	 0.0159748101	 0.0030078515	-0.082506
C	 0.0001115575	 1.4211713541	 0.0107360756	 0.083367
C	-1.0964315849	 2.2451789595	 0.0296754772	-0.103336
O	-0.71602215	 3.5354252654	 0.0318845867	-0.127008
C	 0.6484848855	 3.5593891039	 0.0140500681	 0.015459
C	 1.1466073575	 2.3017004829	 0.0005319138	-0.310342
H	-2.1556420221	 2.0503362825	 0.0424995052	 0.163747
H	 1.0971737921	 4.5383224727	 0.0135780677	 0.155627
H	 2.182731552	 2.0062207742	-0.0147275334	 0.136664
76.5779	85.1095	224.364	228.4716	424.4867	463.3243	501.4007	578.52	588.5893	615.57	658.563	747.4375	806.79	850.2009	889.3658	908.9387	1024.9392	1066.7397	1120.7347	1207.5394	1256.2587	1339.8341	1370.279	1544.7976	1600.9546	2259.9984	2380.7749	3271.8846	3286.7786	3297.6184
N#CC#CC1=COC=C1	N#CC#Cc1cocc1	
InChI=1S/C7H3NO/c8-4-1-2-7-3-5-9-6-7/h3,5-6H	InChI=1S/C7H3NO/c8-4-1-2-7-3-5-9-6-7/h3,5-6H
