19
gdb 121222	2.50383	0.93612	0.72889	2.6453	72.83	-0.2505	-0.0341	0.2163	1531.9554	0.157202	-460.139049	-460.129253	-460.128309	-460.175441	33.715	
O	-0.0325267182	 1.3975186717	 0.1063716741	-0.421366
C	-0.0014630328	-0.0200728736	 0.0687968646	-0.078698
C	-1.4422919309	-0.5085464388	-0.0399918903	-0.199473
C	-1.5195072941	-2.022854951	-0.0994640284	 0.128478
O	-1.0868062098	-2.6640252995	 1.1240554517	-0.286818
C	-2.2522934322	-3.5051465259	 1.1476449798	-0.089637
C	-2.9003463973	-2.7549940784	-0.0415280885	-0.173074
C	-4.0922774816	-1.9105556071	 0.3270328541	 0.163019
O	-5.0750089483	-1.7877363575	-0.357748285	-0.251742
H	 0.8643066081	 1.7142190521	 0.2474434728	 0.287812
H	 0.5795302243	-0.385662646	-0.7944796704	 0.084765
H	 0.4562508573	-0.4405096774	 0.9761333364	 0.110465
H	-2.0042891162	-0.1270919792	 0.8181313427	 0.112859
H	-1.8970424124	-0.0882911285	-0.9456974668	 0.119237
H	-0.9250529432	-2.3910534003	-0.9491760905	 0.083573
H	-2.015137789	-4.5549967149	 0.936706139	 0.112381
H	-2.7829466437	-3.4442943853	 2.1060644412	 0.111675
H	-3.1458465868	-3.3483153602	-0.9224095402	 0.101413
H	-4.0143760632	-1.3996944203	 1.3141964936	 0.08513
51.5541	57.3883	89.9173	104.5396	133.6602	259.3536	262.8461	320.6842	349.4664	417.19	462.5596	515.4784	783.2629	825.0065	866.272	875.1871	929.4408	985.1048	1010.8528	1040.5301	1057.9149	1083.3925	1097.4207	1141.4148	1155.8443	1176.5029	1219.2588	1223.7128	1247.2068	1278.5604	1309.4129	1323.5603	1326.7938	1364.6499	1408.9099	1434.6019	1462.8503	1479.1231	1525.0915	1529.941	1828.8797	2868.7276	2961.197	2986.5343	3012.4971	3015.66	3040.9767	3058.0029	3094.8434	3117.8521	3832.1463
OCCC1OCC1C=O	OCC[C@H]1OC[C@H]1C=O	
InChI=1S/C6H10O3/c7-2-1-6-5(3-8)4-9-6/h3,5-7H,1-2,4H2	InChI=1S/C6H10O3/c7-2-1-6-5(3-8)4-9-6/h3,5-7H,1-2,4H2/t5-,6-/m1/s1
