17
gdb 78877	2.85008	1.79732	1.36603	1.8131	71.99	-0.2374	0.0578	0.2952	955.7676	0.137086	-417.904937	-417.897644	-417.8967	-417.936465	28.885	
O	-0.2491904418	 1.5093340546	 0.0233013631	-0.425345
C	-0.1023047856	 0.116542562	 0.0958676879	 0.13636
C	 0.1058878756	-0.6008213338	 1.4248864281	-0.104933
C	-1.2264036592	-0.8331231627	 2.0578392625	-0.158244
N	-0.7381172031	-1.7639026324	 0.9727124906	-0.164331
C	-1.3918108022	-0.7164374453	 0.0009499068	-0.144143
C	-2.280599154	-0.2647393285	 1.1503566088	 0.442648
C	-3.7366090369	-0.4313282396	 1.3189447876	-0.327043
N	-3.1198045729	 0.9124881931	 1.2237221236	-0.369591
H	 0.6173839787	 1.9037714724	-0.1124393186	 0.286198
H	 0.6307947362	-0.2599678325	-0.629633513	 0.082045
H	 1.0332682966	-0.7633033119	 1.9636656293	 0.093181
H	-1.3299634329	-1.1701186175	 3.083618768	 0.098432
H	-1.8005205592	-1.0344774952	-0.9552092333	 0.088535
H	-4.3654788109	-0.7036972449	 0.4753225137	 0.121503
H	-4.0986002866	-0.7794953462	 2.2839275898	 0.112634
H	-3.0517053417	 1.3544028383	 2.137007345	 0.232093
137.1288	191.299	192.4901	269.8117	328.0192	376.3615	502.0919	586.9716	645.3585	745.391	766.2819	799.4423	814.5197	866.9738	900.8269	928.8823	963.2563	969.8617	980.9364	1006.1428	1035.3247	1040.4751	1068.5425	1124.3002	1129.0587	1150.1435	1168.6426	1182.0496	1237.0662	1248.6303	1279.3616	1302.5866	1311.1938	1363.0133	1438.6365	1457.4692	1526.5884	3021.632	3099.1182	3151.5478	3169.026	3180.9153	3183.6949	3503.9548	3828.6312
OC1C2C3N2C1C31CN1	O[C@H]1[C@H]2[C@@H]3N2[C@H]1[C@]13CN1	
InChI=1S/C6H8N2O/c9-3-2-4-6(1-7-6)5(3)8(2)4/h2-5,7,9H,1H2	InChI=1S/C6H8N2O/c9-3-2-4-6(1-7-6)5(3)8(2)4/h2-5,7,9H,1H2/t2-,3-,4-,5+,6+,8?/m0/s1
