18
gdb 15563	3.28404	1.75242	1.19961	0.7059	83.19	-0.2235	-0.0144	0.2091	1016.5139	0.153576	-310.662737	-310.654668	-310.653724	-310.694951	30.746	
C	-0.0797864978	 1.561511673	-0.0109551196	-0.399805
C	 0.0314724197	 0.0362185369	 0.0395224558	-0.085467
C	 0.7335205625	-0.5887993237	-1.1934324861	-0.218223
C	 1.5169125394	-1.8132913572	-0.6627731622	-0.25449
C	 1.6708964334	-1.505677118	 0.8029496857	-0.180619
C	 0.8694327649	-0.5053875867	 1.1999093173	 0.204028
C	 0.7298868927	-0.0144388126	 2.5203455961	 0.219504
C	 0.5742087935	 0.4386046946	 3.6268712995	-0.426605
H	 0.9099177557	 2.021795327	-0.1051081196	 0.114766
H	-0.6830034253	 1.8778981706	-0.8682577347	 0.111141
H	-0.5473500173	 1.9535324698	 0.8969547335	 0.125832
H	-0.984321978	-0.3745997374	 0.1399535871	 0.084536
H	 0.0304312318	-0.8435141978	-1.9907093998	 0.09757
H	 1.4391680556	 0.1421246483	-1.6043772908	 0.103585
H	 0.9555102099	-2.7495958141	-0.7982954166	 0.111206
H	 2.4760411246	-1.9586450112	-1.1725082128	 0.106499
H	 2.3228571375	-2.0656453191	 1.4633986856	 0.097333
H	 0.4500097472	 0.8248926077	 4.6078966017	 0.189208
93.4688	142.755	169.1204	237.6077	288.0339	335.5602	423.6426	505.3309	529.5423	581.6466	623.8946	633.1013	654.8645	774.8691	824.5269	869.8627	908.8908	937.3764	972.8014	1016.358	1051.4359	1098.6331	1119.6896	1167.9371	1206.6364	1236.3114	1272.5531	1315.2132	1323.1697	1331.7353	1364.6578	1409.6566	1480.5884	1494.282	1497.6637	1501.4751	1669.6488	2217.2652	2988.266	2999.9157	3031.2452	3040.2481	3057.3215	3095.8645	3100.6794	3111.0098	3202.0753	3503.8495
CC1CCC=C1C#C	C[C@H]1CCC=C1C#C	
InChI=1S/C8H10/c1-3-8-6-4-5-7(8)2/h1,6-7H,4-5H2,2H3	InChI=1S/C8H10/c1-3-8-6-4-5-7(8)2/h1,6-7H,4-5H2,2H3/t7-/m0/s1
