18
gdb 74204	2.40455	1.59116	1.01018	3.4971	86.06	-0.2271	-0.0524	0.1748	1177.1386	0.148871	-401.971202	-401.963021	-401.962077	-402.003963	31.261	
C	-0.1819068904	 1.4795745561	 0.0889759944	-0.478857
C	-0.0447325351	-0.0240835072	 0.0385002755	 0.262639
C	-0.383977181	-0.6901229165	-1.0876890017	-0.203615
C	-0.1890027819	-2.1003385558	-1.454375914	 0.35145
N	-0.1575176666	-2.4057846438	-2.6923148169	-0.514288
O	 0.007518609	-3.0570078193	-0.501167706	-0.250197
C	-0.5520549287	-2.8371424983	 0.8033151808	-0.164939
C	 0.2715995152	-1.9015676762	 1.6347159391	-0.084424
C	 0.4880904463	-0.6372681188	 1.2538714839	-0.098114
H	 0.7930659439	 1.9482323134	 0.2714217747	 0.134841
H	-0.5851514435	 1.8819564469	-0.842385231	 0.132254
H	-0.8372094686	 1.7882436143	 0.9122853519	 0.133394
H	-0.7402977174	-0.1147533764	-1.9357011852	 0.11529
H	-0.0196693915	-3.4138635442	-2.7902609279	 0.218133
H	-1.5752513719	-2.4509147756	 0.6920521856	 0.122446
H	-0.6077203399	-3.82934611	 1.2547590031	 0.122316
H	 0.6935975658	-2.2725301122	 2.5634589114	 0.10557
H	 1.0668179763	 0.0183332835	 1.9011200623	 0.096102
85.0268	150.337	189.9969	236.0927	293.4801	347.6823	374.8819	395.2055	480.1059	575.9067	634.4475	669.9262	717.4941	786.3072	846.0624	893.8439	902.4755	922.5804	954.5113	998.3481	1029.7936	1039.5216	1066.6056	1098.6406	1133.8309	1182.7575	1237.5379	1294.7571	1338.5981	1360.8106	1411.1786	1420.8386	1444.2362	1479.0378	1487.4245	1490.0587	1648.3233	1683.2652	1711.9863	3007.5233	3024.8108	3074.4195	3112.2894	3128.8478	3147.7146	3183.6173	3188.1033	3465.5375
CC1=CC(=N)OCC=C1	CC1=C[C]([NH])OCC=C1	
InChI=1S/C7H9NO/c1-6-3-2-4-9-7(8)5-6/h2-3,5,8H,4H2,1H3	InChI=1S/C7H9NO/c1-6-3-2-4-9-7(8)5-6/h2-3,5,8H,4H2,1H3
