21
gdb 33150	4.54615	0.78694	0.71528	1.7649	87.58	-0.1708	0.053	0.2238	1653.6188	0.183466	-383.30426	-383.294519	-383.293575	-383.339611	35.958	
C	-0.0042981317	 1.5460593348	-0.0261457499	-0.379724
C	 0.0382754408	 0.0163082877	-0.0195025442	-0.163381
C	 0.6973618314	-0.5420369564	 1.2498581174	-0.160585
N	 0.758919852	-1.9896190567	 1.2865953846	 0.034807
C	-0.16481722	-2.8141797294	 1.8638583414	-0.08549
C	 0.1779517232	-4.1209874958	 1.5931263036	-0.241839
C	 1.3683252099	-4.0911267732	 0.8114074762	 0.237134
N	 2.02306304	-5.2163047963	 0.2679775962	-0.605283
C	 1.7028743156	-2.7642189305	 0.6349667486	-0.185646
H	 1.0030859383	 1.9738796941	 0.0292322589	 0.116056
H	-0.4748926032	 1.9236617632	-0.9384492793	 0.119392
H	-0.5743256016	 1.9333538893	 0.825924193	 0.116017
H	-0.9758788978	-0.392360681	-0.0972634357	 0.109142
H	 0.5876117951	-0.3512368023	-0.8938362599	 0.109449
H	 1.7168520101	-0.1485561859	 1.3441256992	 0.110906
H	 0.1463865835	-0.2069781069	 2.1355808586	 0.111833
H	-0.9907938316	-2.4049945547	 2.4246647615	 0.107943
H	-0.3521597017	-5.0015385631	 1.923842787	 0.082232
H	 1.9909748911	-6.0102757094	 0.8956320077	 0.236847
H	 2.9923174499	-5.0252012585	 0.0465218082	 0.23381
H	 2.5259076966	-2.306646839	 0.1091111968	 0.09638
48.0067	78.1059	82.8271	171.9379	230.1985	263.557	284.8625	303.478	377.3358	427.4362	605.1283	616.7991	646.6547	659.9758	728.8872	748.9392	754.9221	771.8008	802.3052	880.3586	896.0332	996.7874	1015.4558	1042.7666	1083.804	1110.6214	1121.0167	1137.8873	1208.8232	1250.553	1298.3643	1321.6888	1330.0131	1380.2383	1403.1091	1414.6276	1437.3026	1454.6265	1480.7302	1493.6566	1499.6366	1510.9398	1545.3387	1621.8249	1657.5141	3026.8648	3030.1771	3040.3423	3061.543	3080.5863	3100.2062	3107.942	3237.1223	3251.8805	3259.5336	3526.1242	3613.0899
CCCN1C=CC(N)=C1	CCCn1ccc(N)c1	
InChI=1S/C7H12N2/c1-2-4-9-5-3-7(8)6-9/h3,5-6H,2,4,8H2,1H3	InChI=1S/C7H12N2/c1-2-4-9-5-3-7(8)6-9/h3,5-6H,2,4,8H2,1H3
