17
gdb 131794	3.02769	1.3023	0.96365	2.0673	71.06	-0.1964	0.0319	0.2282	1186.7758	0.137746	-455.161116	-455.152779	-455.151835	-455.194284	31.555	
O	-0.081580938	 0.3502474537	 1.2031626299	-0.413381
C	-0.0768270686	 0.1567923405	-0.2197682304	-0.086332
C	-1.3397359902	-0.6091983824	-0.6055780629	-0.315478
C	-1.3598849076	-2.0489111005	-0.1821958231	 0.223828
N	-1.5119523735	-3.015901604	-1.0923356594	-0.286618
N	-1.5260601239	-4.1548147253	-0.3872735358	-0.189813
C	-1.3769589412	-3.963758972	 0.9532563238	-0.115025
C	-1.2649801023	-2.5991580646	 1.1254599027	 0.187676
O	-1.1172077829	-1.957684728	 2.3086886351	-0.457768
H	 0.7910923392	 0.6434742602	 1.4815368358	 0.298426
H	-0.0651843332	 1.1349422616	-0.7202334136	 0.100518
H	 0.8155684469	-0.4023532612	-0.5299376508	 0.108686
H	-2.1963487838	-0.0672092657	-0.1824115559	 0.12006
H	-1.4472518679	-0.5803901014	-1.6939193971	 0.126191
H	-1.6360189641	-5.0273921889	-0.8728794219	 0.270633
H	-1.363651955	-4.7757277313	 1.6609787788	 0.127628
H	-0.7891813039	-1.0619039705	 2.1101089348	 0.300769
53.7537	165.1333	204.9756	245.0125	296.5932	307.4904	363.7657	435.3002	465.6019	491.6525	634.7152	639.3683	668.0916	719.1203	735.1129	766.2078	874.8767	940.718	957.0092	1048.5879	1070.4864	1079.6247	1151.729	1193.5826	1229.0248	1258.0614	1301.3083	1314.5845	1363.7479	1378.9159	1440.2438	1460.2196	1467.489	1479.3084	1516.1525	1537.2813	1654.2098	3001.0253	3019.5778	3049.0225	3096.1043	3273.6068	3593.1612	3686.1468	3835.6612
OCCC1=NNC=C1O	OCCc1n[nH]cc1O	
InChI=1S/C5H8N2O2/c8-2-1-4-5(9)3-6-7-4/h3,8-9H,1-2H2,(H,6,7)	InChI=1S/C5H8N2O2/c8-2-1-4-5(9)3-6-7-4/h3,8-9H,1-2H2,(H,6,7)
