16
gdb 14688	18.01944	0.53148	0.52132	0.9047	90.42	-0.2298	-0.0125	0.2173	2107.7913	0.127375	-346.546664	-346.536793	-346.535849	-346.584288	31.999	
C	-0.0033409098	 1.4289326701	-0.0118126035	-0.217459
O	-0.0247184043	 0.0212010014	 0.0494584245	-0.228826
C	 0.6174799787	-0.566759143	-1.0650524863	-0.229215
C	 0.5749312926	-2.0168627288	-0.9659109077	 0.16941
C	 0.5591594354	-3.2257630346	-0.9176630215	-0.06712
C	 0.5371463968	-4.5837985905	-0.8558925514	-0.2136
C	 0.5179579017	-5.7926975622	-0.8015722481	 0.251483
C	 0.4940084988	-7.2425039023	-0.7349115237	-0.518515
H	 1.0253857433	 1.8233273633	-0.0209701251	 0.105677
H	-0.5238520197	 1.8083496445	-0.9056916961	 0.105677
H	-0.515783068	 1.7974852028	 0.879291047	 0.133061
H	 0.1319563178	-0.2447823713	-2.0039059877	 0.119058
H	 1.667992344	-0.2298937091	-1.1266593427	 0.11906
H	 0.9827535845	-7.6854869525	-1.6100972357	 0.156974
H	 1.0149108357	-7.6076369443	 0.1574242603	 0.157147
H	-0.5337064675	-7.6213779836	-0.7005129423	 0.157187
6.7638	59.0828	64.4545	113.1012	160.4595	228.9535	251.4621	319.6147	349.1234	381.518	442.6662	558.7989	559.3863	668.6004	960.105	987.5547	1022.1323	1047.6952	1048.9545	1144.8491	1181.9653	1218.5295	1249.704	1289.3239	1405.0854	1418.1199	1471.142	1472.4884	1476.7778	1484.2695	1492.4216	1514.7882	2282.8968	2388.8957	2937.2208	2953.4482	2968.7519	3012.1204	3023.6868	3086.0156	3086.0396	3122.2971
COCC#CC#CC	COCC#CC#CC	
InChI=1S/C7H8O/c1-3-4-5-6-7-8-2/h7H2,1-2H3	InChI=1S/C7H8O/c1-3-4-5-6-7-8-2/h7H2,1-2H3
