23
gdb 86413	2.1036	1.82091	1.37255	1.6494	83.85	-0.235	0.0766	0.3116	1093.8565	0.207646	-388.293749	-388.285272	-388.284328	-388.326295	34.131	
C	-0.7895367118	 1.4195612057	-0.5414831778	-0.400357
C	-0.3042230185	-0.0346443046	-0.5748589974	 0.034306
C	 0.7567274582	-0.3109533293	-1.6871792763	-0.253182
C	 2.2348950557	-0.3262450416	-1.1831887479	 0.034306
C	 2.9831410225	 0.9862938364	-1.4453458245	-0.400357
C	 2.2413751125	-0.6617670157	 0.3116504476	 0.100016
C	 1.1659352203	-1.701405361	 0.6873316514	-0.279208
C	 0.2872158366	-0.4373441265	 0.7798335998	 0.100016
O	 1.4818407875	 0.364424072	 1.0156445469	-0.298643
H	 0.0327258472	 2.0959596689	-0.2932976809	 0.136365
H	-1.2024944697	 1.7177767634	-1.5103203035	 0.107409
H	-1.5734489778	 1.5561555489	 0.2122135195	 0.106456
H	-1.1727402598	-0.6799833946	-0.7650220534	 0.065615
H	 0.5370531334	-1.2838042994	-2.1377555053	 0.097031
H	 0.6473312513	 0.4205762789	-2.4944446951	 0.093957
H	 2.7653161708	-1.132243635	-1.7085137227	 0.065615
H	 2.5255209729	 1.809672903	-0.8904966467	 0.136366
H	 4.0303229326	 0.9125860221	-1.1303663543	 0.106456
H	 2.9719815164	 1.2383821781	-2.5104462165	 0.107409
H	 3.2518483571	-0.7716983974	 0.7177831145	 0.068286
H	 0.903491088	-2.4758120423	-0.036878551	 0.096742
H	 1.349781632	-2.1446686902	 1.667168319	 0.107108
H	-0.4318184771	-0.3486525898	 1.6003263444	 0.068286
99.8116	175.5458	217.9284	227.6375	276.641	339.952	357.24	408.307	425.1555	459.4751	585.9086	686.8055	729.5135	791.4742	849.6509	889.7101	903.3749	918.607	924.8154	930.1138	970.1157	1021.8278	1027.1434	1034.7912	1040.3024	1070.3484	1109.7339	1135.9262	1164.8424	1166.61	1219.6225	1236.2996	1263.7642	1292.744	1302.3354	1328.3136	1329.3153	1356.8689	1359.9649	1377.9905	1384.7006	1403.3132	1408.4438	1485.4865	1491.5052	1495.1559	1501.2737	1506.8644	1508.625	3003.9211	3007.5128	3031.9924	3032.4589	3044.5099	3058.2032	3058.4119	3073.4298	3078.1471	3093.9841	3095.6429	3119.6869	3123.4586	3132.7559
CC1CC(C)C2CC1O2	C[C@H]1C[C@@H](C)[C@@H]2C[C@H]1O2	
InChI=1S/C8H14O/c1-5-3-6(2)8-4-7(5)9-8/h5-8H,3-4H2,1-2H3	InChI=1S/C8H14O/c1-5-3-6(2)8-4-7(5)9-8/h5-8H,3-4H2,1-2H3/t5-,6+,7+,8-
