21
gdb 92150	2.88976	1.4889	1.42187	1.601	81.82	-0.231	0.0908	0.3218	1065.1893	0.18343	-387.074697	-387.066562	-387.065617	-387.106841	32.519	
C	-0.2663314771	 1.548289428	 0.0125755658	-0.397188
C	 0.0436750031	 0.054221726	-0.0373317224	 0.116242
O	 0.7295018279	-0.3035191986	-1.254107156	-0.284097
C	 2.0216591908	-0.7767179802	-0.905638867	 0.035432
C	 2.9013578911	 0.3466997727	-0.2738913427	-0.250477
C	 2.4249032419	-0.1413096335	 1.0954692316	-0.132939
C	 0.9362817759	-0.4856158312	 1.0738357267	-0.123219
C	 1.9188319833	-1.4528633239	 0.4946736633	 0.338101
C	 2.1316364408	-2.8906222309	 0.8576480958	-0.524163
H	 0.6446712106	 2.1476003397	 0.0829447877	 0.120788
H	-0.8135897904	 1.8514756656	-0.8846802314	 0.122579
H	-0.8905406453	 1.7724736317	 0.8847947143	 0.10871
H	-0.9089410199	-0.4963784731	-0.0306876729	 0.07338
H	 2.4271062047	-1.3333781269	-1.7505869379	 0.077307
H	 3.9687614869	 0.1455375544	-0.4104035301	 0.096708
H	 2.6837666604	 1.370028539	-0.5937846603	 0.0947
H	 2.9365405135	 0.0052935999	 2.0405059381	 0.080488
H	 0.4877079132	-0.7102899836	 2.0356683899	 0.083717
H	 1.3937846376	-3.5373485949	 0.3680163259	 0.125366
H	 3.1272029541	-3.2412583901	 0.5620314345	 0.118997
H	 2.0368623065	-3.0404522901	 1.9384742772	 0.119568
144.1203	190.8021	195.3443	213.1876	236.3712	309.1261	407.0131	443.8486	523.6802	595.9861	657.7985	687.143	780.9965	827.7129	838.4692	859.897	899.707	913.6399	946.4487	973.4178	1013.0982	1018.0553	1038.4492	1067.275	1091.7566	1114.9149	1130.8182	1137.7377	1162.5867	1185.998	1216.9676	1236.7461	1280.6338	1307.4009	1335.5852	1359.2615	1386.5811	1404.4187	1413.9982	1461.0654	1484.72	1486.9756	1493.284	1498.1828	1501.7626	2985.5865	3020.2604	3038.0203	3042.7819	3078.6489	3091.531	3092.5558	3106.2787	3117.3332	3127.6227	3165.7481	3177.3301
CC1OC2CC3C1C23C	C[C@H]1O[C@H]2C[C@H]3[C@@H]1[C@@]23C	
InChI=1S/C8H12O/c1-4-7-5-3-6(9-4)8(5,7)2/h4-7H,3H2,1-2H3	InChI=1S/C8H12O/c1-4-7-5-3-6(9-4)8(5,7)2/h4-7H,3H2,1-2H3/t4-,5+,6+,7-,8-/m1/s1
