15
gdb 50192	5.22583	1.07254	0.97162	2.7942	67.86	-0.2508	-0.05	0.2008	1160.2425	0.112702	-453.908839	-453.901344	-453.9004	-453.941331	27.694	
N	-0.2093582274	 1.0692905179	-0.7694088863	-0.539242
C	-0.0956961673	-0.0120420714	-0.1556547793	 0.476977
O	 1.0279874597	-0.6211115576	 0.4123812605	-0.271606
C	 0.2706036549	-1.8058524196	 0.7643635153	 0.073135
C	-0.3734395127	-1.7309405078	 2.1804333074	-0.088199
N	-1.5175075589	-0.9639957678	 1.6401639838	-0.327096
C	-1.0277149255	-1.1442235156	 0.2441868316	-0.141536
C	-0.7287476439	-3.0956284808	 2.721872841	 0.139295
O	-1.8455022558	-3.5481117132	 2.7054859127	-0.238399
H	 0.677440508	 1.5732633254	-0.822888777	 0.235079
H	 0.7505418407	-2.7195656174	 0.4167523381	 0.110333
H	 0.2395939271	-1.1980911248	 2.9190055881	 0.117235
H	-2.3829296987	-1.4706904679	 1.8081199667	 0.244723
H	-1.7215910564	-1.5467093169	-0.49121558	 0.114459
H	 0.1283195559	-3.6714769525	 3.1351243175	 0.094841
79.4733	122.5095	158.3823	272.0425	319.9436	346.9481	425.8812	636.3351	697.8095	741.8141	786.897	809.1193	832.889	868.856	898.0573	909.7826	948.3952	998.0574	1003.8759	1035.5243	1077.6662	1104.2489	1168.2753	1183.3115	1221.7269	1240.7432	1274.352	1293.3955	1341.8509	1407.6887	1417.0229	1819.7297	1839.0506	2896.1889	3033.5444	3125.1861	3142.7439	3479.3716	3511.8605
N=C1OC2C(NC12)C=O	[NH][C]1O[C@H]2[C@@H](N[C@@H]12)C=O	
InChI=1S/C5H6N2O2/c6-5-3-4(9-5)2(1-8)7-3/h1-4,6-7H	InChI=1S/C5H6N2O2/c6-5-3-4(9-5)2(1-8)7-3/h1-4,6-7H/t2-,3+,4-/m0/s1
