13
gdb 16481	3.02339	2.83376	1.79083	4.3091	57.5	-0.2401	-0.0056	0.2345	717.0515	0.095428	-398.534367	-398.528049	-398.527105	-398.564638	24.284	
O	-0.1547467472	 1.3463886087	 0.0410089897	-0.448999
C	 0.0459018576	-0.00533703	 0.0526706004	 0.243538
C	-0.0810120821	-0.8989809848	-1.2351628258	-0.147141
C	 0.6230697295	-2.2041962297	-0.8877836535	-0.19716
N	 0.0037732541	-2.0920226793	 0.5041457134	-0.22046
C	-1.0006532392	-1.0987158065	-0.0845999691	-0.066173
C	 0.7469400156	-0.8993334545	 1.0273371761	 0.361339
O	 1.5012898654	-0.809000697	 1.9403175868	-0.311964
H	 0.5817584182	 1.7714358603	-0.4129350433	 0.302389
H	-0.2807730503	-0.4188843126	-2.186981661	 0.108131
H	 0.2194081214	-3.0744330544	-1.4114352241	 0.124998
H	 1.7179103692	-2.2419678373	-0.8845489758	 0.120803
H	-2.0635680521	-1.0850248731	 0.1007336463	 0.130699
141.698	242.977	283.1626	312.8729	423.4422	501.1143	618.5486	683.1964	745.7419	791.9403	824.7509	880.274	888.8361	920.3171	944.6982	962.2997	980.7712	1017.1139	1092.2759	1131.6879	1161.9812	1204.6997	1274.5635	1291.5641	1311.3683	1448.284	1512.8149	1927.8442	3043.661	3105.4228	3176.6459	3244.8578	3796.7426
OC12C3CN(C13)C2=O	O[C@]12[C@H]3CN([C@@H]13)C2=O	
InChI=1S/C5H5NO2/c7-4-5(8)2-1-6(4)3(2)5/h2-3,8H,1H2	InChI=1S/C5H5NO2/c7-4-5(8)2-1-6(4)3(2)5/h2-3,8H,1H2/t2-,3+,5+/m0/s1
