20
gdb 7665	3.91472	1.71897	1.40495	1.8095	75.61	-0.235	0.0915	0.3265	972.1767	0.175366	-348.941647	-348.933378	-348.932434	-348.973493	32.369	
C	-0.2063754478	 1.5498165622	 0.7800701455	-0.432938
C	-0.1257339402	 0.0610940579	 0.4930127306	 0.029494
C	 1.0516604438	-0.472621723	-0.3724503794	-0.005823
O	 1.9709784115	-0.1344262799	 0.7409150028	-0.312617
C	 0.8138222198	-0.8205035242	 1.3648881125	-0.005842
C	 0.8919854601	-1.9094497019	 0.2377484113	 0.35607
C	-0.3208427347	-2.7752963481	-0.1016864579	-0.48066
C	 2.1562868114	-2.7679662489	 0.2388703661	-0.459692
H	 0.78275493	 1.9561233976	 0.9969122708	 0.138131
H	-0.6260590018	 2.086996375	-0.077707497	 0.112086
H	-0.8609449009	 1.7436269772	 1.6370728018	 0.112086
H	-1.1103120971	-0.3543721426	 0.2750307532	 0.066539
H	 1.3614570398	-0.1792074357	-1.378203132	 0.08323
H	 0.8373672034	-0.9457511165	 2.4499511944	 0.083229
H	-1.2715091108	-2.2413785134	-0.124957971	 0.118816
H	-0.1810371079	-3.2439799939	-1.0823573234	 0.120446
H	-0.4153592395	-3.5866199394	 0.6288905613	 0.120447
H	 2.0670346306	-3.5786393536	 0.9711822983	 0.108707
H	 2.3019040035	-3.2349498283	-0.7420323797	 0.108713
H	 3.0376910368	-2.1746008605	 0.4787082116	 0.139578
156.8736	188.9231	211.456	236.557	238.7712	261.7594	382.9396	401.7591	411.5449	531.7156	607.4966	724.3979	735.397	769.6198	807.4413	853.7103	883.372	950.8163	956.6546	1007.0099	1026.077	1053.5662	1093.1996	1111.5199	1122.3482	1148.881	1175.9279	1205.6773	1209.8088	1236.5763	1273.2596	1318.8778	1387.9026	1395.8017	1407.8953	1425.0464	1484.0112	1489.0378	1494.4234	1506.9665	1507.1947	1515.6582	3029.3961	3034.7474	3036.4437	3081.6386	3087.2583	3089.0712	3089.6756	3090.2547	3100.0726	3132.8922	3142.3284	3154.944
CC1C2OC1C2(C)C	C[C@H]1[C@H]2O[C@@H]1C2(C)C	
InChI=1S/C7H12O/c1-4-5-7(2,3)6(4)8-5/h4-6H,1-3H3	InChI=1S/C7H12O/c1-4-5-7(2,3)6(4)8-5/h4-6H,1-3H3/t4-,5+,6-
