15
gdb 69222	2.73425	1.67587	1.19176	3.7139	67.48	-0.2669	-0.0314	0.2355	1013.3249	0.113165	-453.971164	-453.963563	-453.962619	-454.003197	28.783	
C	-0.0524658801	 1.5436842684	 0.0078588782	-0.489522
C	 0.0941006406	 0.0495338838	 0.0134448708	 0.238015
N	-0.7640712747	-0.8255122306	 0.8497808562	-0.353223
C	 0.704255915	-0.7798857046	 1.0858173787	-0.277959
C	 1.3659337289	-1.9404764464	 0.4079964002	 0.493198
O	 2.0701335913	-2.7922636826	 0.8486841172	-0.317415
O	 1.0481483689	-1.8736392342	-0.9450790226	-0.233146
C	 0.4207800189	-0.6746818992	-1.2567044923	 0.426686
N	 0.2029194988	-0.2622104668	-2.4221467089	-0.530987
H	 0.846543799	 2.021090668	-0.3912274476	 0.146696
H	-0.8933696673	 1.837240407	-0.626072942	 0.159366
H	-0.2256781833	 1.91988897	 1.0207512367	 0.119973
H	-1.2083234059	-0.2420107798	 1.5585716547	 0.246244
H	 1.1108025707	-0.3977817493	 2.012796657	 0.130338
H	 0.5297895391	-0.9306075636	-3.1216648362	 0.241734
134.3516	147.184	191.7517	257.7394	307.9077	352.7524	409.569	532.4678	553.929	634.666	689.4773	741.8038	770.8751	839.4219	865.5091	890.9773	916.8551	969.5405	1011.2912	1017.2168	1055.5331	1103.1371	1123.1966	1177.7062	1277.4291	1313.652	1374.569	1413.995	1440.7988	1477.6438	1498.5218	1797.6671	1922.4766	3045.5888	3119.2628	3124.4872	3213.9417	3475.3242	3483.4712
CC12NC1C(=O)OC2=N	C[C@]12N[C@H]1C(=O)O[C]2[NH]	
InChI=1S/C5H6N2O2/c1-5-2(7-5)3(8)9-4(5)6/h2,6-7H,1H3	InChI=1S/C5H6N2O2/c1-5-2(7-5)3(8)9-4(5)6/h2,6-7H,1H3/t2-,5-/m0/s1
