23
gdb 58779	2.42875	1.25155	1.16634	1.1569	86.05	-0.2396	0.0709	0.3105	1250.8917	0.204171	-388.272477	-388.262456	-388.261512	-388.307118	38.145	
C	 0.0729343262	 1.4609354308	-0.1925758427	-0.404437
C	 0.0119170309	-0.0325616184	 0.141992415	-0.00016
O	 0.7022091269	-0.3130905684	 1.3618213041	-0.431108
C	-1.4001925451	-0.5585682062	 0.1645844301	 0.359041
C	-2.1193373921	-1.0121828708	-1.0810283289	-0.386502
C	-1.9215437064	-1.9987873684	 0.0410874458	 0.296764
C	-1.1826878191	-3.2959140533	-0.123120244	-0.492233
C	-2.9685420359	-1.7225271245	 1.1298275168	-0.274257
C	-2.4384547484	-0.2572561547	 1.2575142222	-0.301554
H	 1.1096510552	 1.8088340237	-0.189621631	 0.120099
H	-0.3651283185	 1.6621928726	-1.1748763783	 0.120676
H	-0.4876535794	 2.0469759149	 0.5466415228	 0.108866
H	 0.5733600028	-0.5886223253	-0.6194599754	 0.081876
H	 0.3353207875	 0.2628309111	 2.0409592583	 0.27558
H	-3.1076095383	-0.6241479695	-1.3228745575	 0.096449
H	-1.4838915813	-1.1704203574	-1.9484343824	 0.104284
H	-0.3540335728	-3.1980229501	-0.8320843522	 0.116062
H	-0.7656711889	-3.6391162881	 0.8301897823	 0.121327
H	-1.8456785571	-4.0842602014	-0.5012406646	 0.115534
H	-4.0161300143	-1.8444456142	 0.8335407891	 0.091431
H	-2.7955970564	-2.3028162055	 2.0398518704	 0.101091
H	-1.9903225235	-0.0755699368	 2.2384757854	 0.08915
H	-3.1485241518	 0.5493339098	 1.0453742947	 0.092023
55.009	112.7157	165.981	194.5358	227.0988	246.889	266.2247	273.8836	335.9762	370.4444	434.2265	498.4664	534.51	590.3724	704.57	735.3282	788.9246	847.5973	894.9376	920.2078	940.4858	964.8988	988.065	1008.9849	1021.5695	1055.5581	1074.283	1097.8525	1111.6332	1147.263	1163.8841	1224.3756	1240.1696	1242.8014	1266.4228	1296.9875	1335.475	1346.046	1397.8609	1399.5036	1414.2407	1431.6379	1477.8784	1484.2861	1486.8619	1490.734	1494.3716	1496.6691	1518.7533	3018.7506	3024.0551	3031.4167	3034.5889	3043.1194	3077.4335	3082.3599	3091.0937	3095.2285	3096.169	3103.1117	3118.92	3180.0143	3806.931
CC(O)C12CC1(C)CC2	C[C@@H](O)[C@@]12C[C@]1(C)CC2	
InChI=1S/C8H14O/c1-6(9)8-4-3-7(8,2)5-8/h6,9H,3-5H2,1-2H3	InChI=1S/C8H14O/c1-6(9)8-4-3-7(8,2)5-8/h6,9H,3-5H2,1-2H3/t6-,7+,8-/m1/s1
