15
gdb 125494	2.61222	1.4649	0.9441	6.8921	72.95	-0.2214	-0.0237	0.1977	1179.7412	0.112924	-450.166446	-450.158084	-450.15714	-450.199536	30.222	
C	-0.022473081	 1.4734057594	 0.0130530613	-0.500127
C	 0.002266992	-0.012753119	-0.0184397688	 0.409628
N	-0.0165635036	-0.7262778628	-1.0940309547	-0.258325
N	 0.0195403785	-2.0443273978	-0.6481901257	-0.102866
C	 0.013012123	-3.1294162442	-1.5209712474	 0.175629
O	-0.0235003446	-3.0371958961	-2.7183624032	-0.286074
C	 0.0620161046	-2.1387899634	 0.7551141572	 0.476778
N	 0.1005773222	-3.2219146157	 1.4201048744	-0.593106
N	 0.0486901774	-0.7936358059	 1.122841569	-0.413128
H	 0.8719163401	 1.8724034325	 0.5039841877	 0.14674
H	-0.0615149616	 1.8485268327	-1.0098038223	 0.174686
H	-0.8969799025	 1.8417577059	 0.5604531016	 0.146616
H	 0.0460606571	-4.0699636277	-0.9493417974	 0.134459
H	 0.1266240672	-3.0572097005	 2.4223754544	 0.218092
H	 0.0719055011	-0.4674381574	 2.072927224	 0.270999
110.1743	149.4465	158.431	191.5542	222.4638	300.9117	349.1999	394.516	421.2967	594.366	640.75	659.2041	705.6556	712.826	732.2129	887.7379	994.5316	1026.1584	1039.8553	1067.2654	1080.6111	1154.1337	1232.5002	1276.632	1386.1074	1412.4891	1430.8519	1453.985	1477.1928	1492.2023	1681.0327	1761.1787	1828.2359	3031.9124	3039.5245	3094.2516	3158.378	3533.5535	3684.5013
CC1=NN(C=O)C(=N)N1	CC1=NN(C=O)[C@H]([NH])N1	
InChI=1S/C4H6N4O/c1-3-6-4(5)8(2-9)7-3/h2H,1H3,(H2,5,6,7)	InChI=1S/C4H7N4O/c1-3-6-4(5)8(2-9)7-3/h2,4-5H,1H3,(H,6,7)/t4-/m1/s1
