20
gdb 59948	2.70803	0.95115	0.93379	6.258	76.03	-0.2824	0.033	0.3155	1395.6358	0.167892	-440.302489	-440.291991	-440.291047	-440.337976	38.746	
C	 0.1043748077	 1.5370101522	-0.024854242	-0.402261
C	 0.0372968288	 0.0304859695	 0.2102043893	 0.099339
O	 0.2442356128	-0.2740635715	 1.6029943989	-0.432014
C	-1.3371700435	-0.5511275829	-0.1293142709	-0.234259
C	-1.3567267067	-2.101438137	-0.2505264144	 0.203656
C	-0.840786708	-2.5816752585	-1.6165131683	-0.401811
O	-0.5753965418	-2.7325745615	 0.7474921494	-0.456322
C	-2.772401289	-2.5405109058	-0.104281196	 0.262418
N	-3.8751633318	-2.8686447012	 0.0046108345	-0.344363
H	 1.0721876403	 1.9358321463	 0.2978415357	 0.113275
H	-0.0163126347	 1.7710661924	-1.087183248	 0.124848
H	-0.6808796813	 2.0494573288	 0.5390036456	 0.134795
H	 0.8132415882	-0.4675103344	-0.3885743926	 0.087899
H	 1.1613938477	-0.0860111175	 1.8276714953	 0.293933
H	-2.0250603766	-0.2361455171	 0.6624412071	 0.134856
H	-1.7067390499	-0.123810326	-1.0657079511	 0.120455
H	 0.1721790945	-2.2043081655	-1.7804833555	 0.12112
H	-0.8061428252	-3.6730580202	-1.6279649228	 0.147224
H	-1.488372616	-2.2395617417	-2.4282527036	 0.128065
H	-0.3378446958	-2.0635936483	 1.4089244195	 0.299146
39.8322	103.5841	153.1699	198.1682	225.3343	240.2052	264.3114	308.4212	325.0072	359.7523	390.0631	394.0504	461.1638	495.767	514.1002	592.7738	605.3855	754.4157	847.2281	894.0815	902.1378	950.6172	982.2666	1025.4588	1088.8987	1098.3699	1136.0877	1168.3795	1198.9451	1243.371	1299.9624	1338.3523	1379.2085	1406.0804	1409.6784	1420.1781	1462.217	1471.284	1483.9227	1490.0598	1494.0945	1499.5268	2350.5078	3002.3225	3034.657	3049.7886	3055.5123	3101.9841	3105.4036	3119.8178	3127.551	3138.6125	3673.1962	3820.7807
CC(O)CC(C)(O)C#N	C[C@@H](O)C[C@@](C)(O)C#N	
InChI=1S/C6H11NO2/c1-5(8)3-6(2,9)4-7/h5,8-9H,3H2,1-2H3	InChI=1S/C6H11NO2/c1-5(8)3-6(2,9)4-7/h5,8-9H,3H2,1-2H3/t5-,6-/m1/s1
