13
gdb 17995	4.02557	1.91431	1.62245	4.7747	57.69	-0.274	-0.0099	0.2641	782.8358	0.096066	-398.552859	-398.546437	-398.545493	-398.583803	23.368	
N	 0.1550427793	-1.0861180901	 0.2971997414	-0.313048
C	 0.1068748564	 0.0593626742	 0.1567363163	 0.301062
C	 0.0323325743	 1.5045095829	-0.0414364994	-0.049592
O	-0.3610153652	 2.2378179552	 1.1452154934	-0.29315
C	 0.8287539274	 3.0531196615	 1.1051120224	 0.065088
C	 2.0149953044	 2.433523672	 1.8604687112	-0.094414
O	 2.4217774483	 1.7011382134	 0.667162925	-0.274518
C	 1.3789582784	 2.2816329427	-0.1094463699	 0.057443
H	-0.6465969579	 1.7254610853	-0.8747029696	 0.132177
H	 0.6157125421	 4.1185724909	 1.1865445348	 0.10692
H	 2.7941969566	 3.1398408214	 2.1684986271	 0.118284
H	 1.7446609342	 1.7742945249	 2.6902322743	 0.135458
H	 1.7054505117	 2.6647830056	-1.0765985071	 0.108288
90.6825	152.5662	240.0337	357.3292	395.6402	541.522	581.2288	725.1153	803.7326	808.038	897.1089	944.6627	973.7614	996.3798	1008.4916	1037.6624	1076.8042	1092.6463	1161.5124	1195.752	1213.0516	1268.8583	1291.3673	1327.3051	1349.2155	1360.5225	1503.5854	2363.1527	3033.2808	3036.8791	3103.3518	3111.3421	3125.5031
N#CC1OC2COC12	N#C[C@H]1O[C@H]2CO[C@@H]12	
InChI=1S/C5H5NO2/c6-1-3-5-4(8-3)2-7-5/h3-5H,2H2	InChI=1S/C5H5NO2/c6-1-3-5-4(8-3)2-7-5/h3-5H,2H2/t3-,4+,5+/m1/s1
