18
gdb 12264	4.10254	1.34992	1.10412	2.2297	68.51	-0.2466	-0.0264	0.2202	1097.5182	0.15209	-384.94921	-384.940402	-384.939457	-384.98275	31.579	
C	 0.0881852379	 1.4707768885	 0.2030648314	-0.385356
C	 0.0209151078	-0.0414153209	-0.037555861	-0.19454
C	-1.4043914163	-0.5815180332	 0.0098965711	-0.080312
C	-1.6802511909	-2.1203397416	-0.0878233367	-0.307407
C	-2.7906266718	-1.9883445136	 1.0163642391	 0.078778
O	-2.9444260488	-2.9426240372	 2.0205944264	-0.435219
C	-2.0912503474	-0.67824024	 1.3799260564	 0.329865
O	-1.8733749288	-0.1871503489	 2.455615059	-0.318032
H	 1.121644217	 1.828116453	 0.1663622122	 0.114132
H	-0.480581968	 2.0180266102	-0.5570948507	 0.111492
H	-0.325803673	 1.7233404988	 1.1829320635	 0.145103
H	 0.462936188	-0.2897303696	-1.0103609838	 0.101942
H	 0.6216665364	-0.5615233576	 0.7187080089	 0.103335
H	-2.0468386189	-0.0412149412	-0.6964805441	 0.100036
H	-2.0007648023	-2.5103881606	-1.0539129227	 0.114048
H	-0.8337949176	-2.7009959198	 0.2879544366	 0.119069
H	-3.758739291	-1.803741767	 0.532337774	 0.107695
H	-2.4980851225	-2.6011782993	 2.8059647604	 0.29537
75.5067	103.6469	150.5883	169.4551	225.4378	255.8466	288.8957	360.6047	397.8831	550.9884	576.5896	705.5015	764.1755	814.3406	830.5192	927.2469	964.124	971.8592	1010.4649	1021.3188	1079.8112	1120.5457	1137.1342	1164.4324	1201.6462	1236.861	1254.8946	1286.6187	1337.0629	1340.2831	1379.6104	1410.618	1412.5421	1482.3202	1487.5371	1499.1035	1512.0171	1856.8167	3023.813	3025.3531	3035.1409	3036.807	3061.581	3073.81	3101.8629	3123.7875	3142.3867	3770.3738
CCC1CC(O)C1=O	CC[C@H]1C[C@@H](O)C1=O	
InChI=1S/C6H10O2/c1-2-4-3-5(7)6(4)8/h4-5,7H,2-3H2,1H3	InChI=1S/C6H10O2/c1-2-4-3-5(7)6(4)8/h4-5,7H,2-3H2,1H3/t4-,5+/m0/s1
