18
gdb 10870	2.98614	1.96106	1.57303	3.1064	72.53	-0.2326	0.015	0.2476	900.5926	0.15308	-347.781039	-347.773087	-347.772142	-347.812951	30.075	
C	-0.1452446853	 1.5596383493	-0.0105299161	-0.443581
C	 0.0307470263	 0.0467912663	 0.0094150578	 0.009444
C	 1.2127100991	-0.6389806608	-0.7736242366	-0.188106
C	 2.1616938308	-0.1641163163	 0.3777034453	-0.28244
C	 0.8800003293	-0.6486941355	 1.1541044438	 0.181246
C	 0.6218292742	-0.6546392534	 2.6329620165	-0.519929
C	 0.9354280455	-1.8230284791	 0.1622962972	 0.425188
O	 0.8249055431	-3.0109786643	 0.1446018621	-0.333341
H	 0.7827342095	 2.1183389365	 0.1281648099	 0.122777
H	-0.5792565807	 1.8734892187	-0.9656207969	 0.125728
H	-0.8387042557	 1.8674448428	 0.7796816431	 0.124421
H	-0.9410991763	-0.4296108608	-0.1593323692	 0.083461
H	 1.4012766916	-0.6262082862	-1.844682647	 0.089036
H	 3.0796253726	-0.7350604314	 0.5331171618	 0.111136
H	 2.3586190202	 0.9063458685	 0.4164840931	 0.108077
H	 0.6086472726	 0.3610550647	 3.042649323	 0.122808
H	-0.3430238398	-1.1219003905	 2.8560283328	 0.131672
H	 1.3954389532	-1.2209523385	 3.1615799592	 0.132404
148.0132	166.4082	176.1212	182.9808	229.9067	322.2731	378.5549	514.5308	520.2748	630.8834	715.5386	737.4342	756.2196	782.6169	837.7048	898.0657	974.6956	1010.7746	1020.7728	1036.9049	1062.897	1103.06	1108.5347	1147.0007	1186.1482	1188.1813	1220.4106	1225.4231	1348.3344	1408.2029	1412.9479	1423.7692	1486.3664	1489.0457	1493.916	1497.6231	1529.4102	1909.905	3031.9195	3037.4604	3045.985	3078.8468	3095.283	3098.2976	3103.1576	3122.4563	3147.544	3151.7266
CC1C2CC1(C)C2=O	C[C@H]1[C@H]2C[C@]1(C)C2=O	
InChI=1S/C7H10O/c1-4-5-3-7(4,2)6(5)8/h4-5H,3H2,1-2H3	InChI=1S/C7H10O/c1-4-5-3-7(4,2)6(5)8/h4-5H,3H2,1-2H3/t4-,5+,7-/m0/s1
