21
gdb 38939	2.95671	1.80417	1.55357	1.3806	80.52	-0.2355	0.0861	0.3216	954.4581	0.187987	-387.086276	-387.079821	-387.078877	-387.116681	28.25	
C	-0.0817024474	 1.5806354549	 0.0801062639	-0.236678
C	 1.4701216683	 1.4775214263	-0.0109393238	-0.04041
C	 1.772106423	 0.8415265256	 1.3597723228	-0.260055
C	 0.7782517755	-0.3642515764	 1.2775836142	 0.138399
O	 1.3993703878	-1.6367623659	 1.1259634848	-0.274284
C	 2.4765695553	-1.6577935489	 0.2019314244	-0.07762
C	 2.1606319494	-0.9407031844	-1.1242600495	-0.265853
C	 1.2144443613	 0.2462940649	-0.9548465899	 0.024424
C	 0.0050111578	 0.0351351844	 0.0011960668	-0.042868
H	-0.5064647451	 2.0370324619	 0.9796062221	 0.086354
H	-0.5405922222	 2.0126002959	-0.8126573655	 0.095676
H	 2.0865928202	 2.3199352678	-0.3265715417	 0.05683
H	 2.8075992128	 0.5306555819	 1.5023155062	 0.102604
H	 1.5185578812	 1.5183177242	 2.1807227494	 0.095823
H	 0.1444680803	-0.4609054994	 2.1618238084	 0.074778
H	 3.3792814098	-1.2273117372	 0.6588984706	 0.091776
H	 2.6895611278	-2.7159913809	 0.0239762488	 0.103999
H	 3.0980826322	-0.6404119352	-1.6081379506	 0.096227
H	 1.6694695903	-1.6463310058	-1.8058924533	 0.104564
H	 0.8819410986	 0.6056686122	-1.9333816992	 0.067389
H	-0.8433566169	-0.5951614457	-0.2667350889	 0.058925
186.0237	283.8892	350.1926	394.9495	459.9788	486.6452	537.6728	669.3352	694.2694	782.2256	815.1604	832.1288	840.9334	870.5694	897.1326	940.9964	949.663	964.3436	971.3384	987.3144	1007.7591	1063.3171	1073.0711	1094.757	1106.901	1121.0828	1149.1139	1172.969	1198.2756	1210.2622	1230.1938	1259.9481	1271.8809	1281.1731	1286.8698	1322.4799	1332.7074	1347.6798	1374.5353	1400.2929	1422.4849	1478.9505	1492.2314	1509.9812	1533.5847	2991.9932	3020.491	3046.9018	3058.4976	3059.8253	3063.7518	3079.0182	3084.8471	3106.2211	3108.9318	3115.0308	3123.9658
C1C2CC3OCCC2C13	C1[C@H]2C[C@@H]3OCC[C@H]2[C@H]13	
InChI=1S/C8H12O/c1-2-9-8-4-5-3-7(8)6(1)5/h5-8H,1-4H2	InChI=1S/C8H12O/c1-2-9-8-4-5-3-7(8)6(1)5/h5-8H,1-4H2/t5-,6+,7-,8-/m0/s1
