16
gdb 48565	3.74199	1.51843	1.25708	3.4061	73.63	-0.2282	-0.0304	0.1978	982.8791	0.125326	-400.714302	-400.707482	-400.706538	-400.745498	27.079	
O	-0.0896968955	 0.0608938284	 0.2376951846	-0.262359
C	 0.0368846897	 1.228840235	-0.0349751907	 0.081586
C	 1.3364305339	 1.9486553097	-0.004767375	 0.213739
C	 2.521641475	 1.3762259892	 0.686206416	-0.155174
C	 3.3288758383	 2.3783063917	 1.0330552274	-0.086143
C	 2.7684278666	 3.6536977376	 0.4568221759	-0.064869
C	 2.9286481677	 3.6078374204	-1.1015950352	-0.247001
C	 1.5449591587	 2.9857430789	-1.1076141377	-0.072845
N	 1.2543698313	 3.4130608324	 0.2887479223	-0.167465
H	-0.8260740812	 1.8590259726	-0.3436146545	 0.084648
H	 2.6443833413	 0.3156780702	 0.851062664	 0.131467
H	 4.2980110543	 2.3068949519	 1.5096653598	 0.113099
H	 3.0087499961	 4.5857808737	 0.965174181	 0.092313
H	 2.8823439327	 4.6093743965	-1.5347292091	 0.124208
H	 3.7735623545	 3.0558921985	-1.5207709245	 0.111374
H	 0.8126494465	 3.0847045734	-1.9044414243	 0.103423
106.7372	195.64	263.3026	353.7544	387.7856	439.3813	559.8801	677.9328	710.844	730.9234	775.035	796.915	838.7306	867.7518	892.0639	907.6352	946.3853	979.3129	1003.3848	1030.1027	1041.3369	1072.2279	1103.8616	1135.0373	1206.7833	1209.6394	1252.5897	1262.9054	1332.0325	1337.5227	1380.3571	1425.7227	1484.0553	1658.2914	1818.4182	2894.621	3063.0426	3121.2493	3131.3716	3148.5381	3216.4711	3252.3655
O=CC12C=CC3CC1N23	O=C[C@@]12C=C[C@H]3C[C@@H]1N23	
InChI=1S/C7H7NO/c9-4-7-2-1-5-3-6(7)8(5)7/h1-2,4-6H,3H2	InChI=1S/C7H7NO/c9-4-7-2-1-5-3-6(7)8(5)7/h1-2,4-6H,3H2/t5-,6-,7-,8?/m0/s1
