19
gdb 83121	2.2388	1.64148	1.44818	1.3496	75.88	-0.2218	0.0146	0.2364	1022.9358	0.159688	-423.017394	-423.009103	-423.008159	-423.049647	33.016	
O	-0.2773374456	 1.5221487606	 0.1570373781	-0.428073
C	-0.1601320673	 0.1356053601	 0.0378955196	 0.054085
C	-0.4277355998	-0.82899801	 1.1820128898	-0.13704
C	-0.9216667962	-0.3117024426	 2.521339309	-0.274928
C	-2.191298698	 0.4929991438	 2.438996509	-0.085089
C	-2.996834294	 0.5156501049	 1.3747014444	-0.071666
C	-2.7509202331	-0.2677149141	 0.1122422113	-0.334759
C	-1.3369570179	-0.8070888944	-0.0286603282	 0.314337
O	-1.219695836	-1.9301043251	-0.866395906	-0.46643
H	-1.0194903576	 1.7171369816	 0.7425952208	 0.28776
H	 0.6768750605	-0.1105627875	-0.6080191628	 0.104397
H	 0.2448588987	-1.6796505423	 1.23241584	 0.096566
H	-1.0914346073	-1.1622222753	 3.1966358773	 0.122434
H	-0.1372953269	 0.2885281028	 3.003078061	 0.11752
H	-2.4591039152	 1.0655643554	 3.3237574317	 0.093702
H	-3.9084960788	 1.1073446912	 1.4048392589	 0.093792
H	-3.4318612925	-1.1293690391	 0.083943017	 0.128213
H	-3.0099652832	 0.347004414	-0.762537921	 0.105987
H	-1.3173817396	-1.6296882742	-1.77741118	 0.279191
136.1991	155.8105	215.8445	256.746	329.3674	361.8382	369.1707	397.5451	457.4015	483.0819	520.8355	607.6778	677.9714	692.8161	790.1749	855.5598	902.45	917.3429	947.3328	960.9241	998.8281	1018.7491	1024.459	1084.4996	1114.2382	1132.1776	1172.6887	1197.7222	1223.6028	1237.9907	1271.8538	1321.6424	1333.7099	1352.035	1370.0607	1401.1898	1416.7753	1461.6409	1474.3987	1492.5047	1716.377	2997.484	3005.3542	3026.4182	3030.1468	3145.8067	3154.8662	3165.3582	3168.7326	3761.4026	3785.9734
OC1C2CC=CCC12O	O[C@H]1[C@H]2CC=CC[C@@]12O	
InChI=1S/C7H10O2/c8-6-5-3-1-2-4-7(5,6)9/h1-2,5-6,8-9H,3-4H2	InChI=1S/C7H10O2/c8-6-5-3-1-2-4-7(5,6)9/h1-2,5-6,8-9H,3-4H2/t5-,6+,7+/m1/s1
