15
gdb 128913	7.14574	0.72423	0.67794	3.8305	71.25	-0.2782	-0.0205	0.2577	1541.3057	0.115227	-413.012242	-413.004191	-413.003246	-413.047301	27.86	
N	-0.0435631542	-1.1748005359	-0.0807035252	-0.303072
C	-0.0508119799	-0.0201869962	-0.0350789257	 0.256232
C	-0.0345950198	 1.4391543821	 0.024418821	-0.33169
C	 1.4025389896	 2.0099203685	 0.0050981485	-0.316147
C	 1.4087703967	 3.5067648702	 0.0431823415	 0.315853
N	 0.675152301	 4.2417401574	-0.8000095643	-0.272064
N	 0.9648877642	 5.4873310721	-0.4518336847	-0.06262
N	 1.8223121566	 5.6435810036	 0.5442291877	-0.188727
C	 2.1198172027	 4.3872197184	 0.8789717749	-0.137161
H	-0.5987478195	 1.8395502739	-0.8234191019	 0.175469
H	-0.5559956093	 1.7618680744	 0.9320049032	 0.156555
H	 1.9647123483	 1.622112794	 0.8589707907	 0.133773
H	 1.9120330228	 1.6515723541	-0.8959980225	 0.146051
H	 0.5500496396	 6.2767613606	-0.92076974	 0.297553
H	 2.8104945211	 4.1739935929	 1.6793308168	 0.129996
15.882	62.506	103.8387	199.6578	312.5234	376.2402	404.0683	515.5317	541.5216	700.6665	725.5279	764.7876	777.7007	882.2205	953.3646	997.524	1019.1265	1026.3007	1039.1014	1158.6914	1184.0617	1209.0604	1253.3223	1285.9323	1313.4755	1351.4828	1375.3873	1410.6806	1468.5986	1482.5773	1497.405	1563.0054	2363.3583	3048.3871	3060.0474	3090.1736	3110.037	3269.7498	3665.1324
N#CCCC1=NNN=C1	N#CCCc1n[nH]nc1	
InChI=1S/C5H6N4/c6-3-1-2-5-4-7-9-8-5/h4H,1-2H2,(H,7,8,9)	InChI=1S/C5H6N4/c6-3-1-2-5-4-7-9-8-5/h4H,1-2H2,(H,7,8,9)
