18
gdb 122474	3.69923	0.7023	0.63069	4.1848	74.53	-0.2639	-0.0045	0.2593	1754.8212	0.145487	-439.058827	-439.049086	-439.048142	-439.094906	33.316	
C	-0.0049157452	 1.309961236	-0.2698456477	-0.231485
O	-0.0677749971	 0.0023387645	 0.2496517213	-0.22963
C	-1.2806869498	-0.647463274	-0.0448145632	-0.047657
C	-1.2049131162	-2.0619857392	 0.5259922225	-0.255003
C	-2.4986677982	-2.8069065179	 0.3332007671	 0.066537
O	-2.8034987378	-3.2724597689	-0.9850691977	-0.231116
C	-2.5715148565	-4.2529473708	 0.0259600922	-0.105123
C	-1.3746188568	-5.0564921408	-0.1056674335	 0.305171
N	-0.4319970336	-5.7196775883	-0.1919283365	-0.324641
H	 0.9668715875	 1.7245157198	 0.0077813692	 0.13142
H	-0.0956479022	 1.3177021391	-1.367295028	 0.108594
H	-0.797877437	 1.952727415	 0.144509482	 0.104564
H	-2.1326121979	-0.0985153613	 0.3954877969	 0.083863
H	-1.451076494	-0.6902776287	-1.1331115443	 0.107195
H	-0.3814671632	-2.6019163454	 0.0505071088	 0.140834
H	-0.9836712549	-2.0010466139	 1.5980284882	 0.124484
H	-3.3656566122	-2.3986272877	 0.8564105109	 0.110976
H	-3.4500821649	-4.8160670476	 0.3359326818	 0.141015
49.1601	76.4659	92.8865	115.6001	164.9753	226.4231	238.0497	303.0454	334.6926	461.4337	471.7956	579.5245	621.684	783.3136	819.0953	843.648	956.8949	988.1423	1021.7163	1061.5146	1081.1604	1145.7169	1157.4948	1167.1729	1186.8947	1228.4523	1243.5015	1280.343	1306.655	1312.442	1382.2028	1426.0545	1462.7626	1479.0499	1482.2467	1486.7122	1504.4671	1533.7351	2361.4348	2941.9535	2972.3012	2986.4008	3017.1331	3049.9179	3091.8935	3111.8193	3118.7139	3132.7548
COCCC1OC1C#N	COCC[C@H]1O[C@H]1C#N	
InChI=1S/C6H9NO2/c1-8-3-2-5-6(4-7)9-5/h5-6H,2-3H2,1H3	InChI=1S/C6H9NO2/c1-8-3-2-5-6(4-7)9-5/h5-6H,2-3H2,1H3/t5-,6+/m1/s1
