17
gdb 85329	2.45066	1.71504	1.16193	1.4396	67.77	-0.2437	-0.0279	0.2157	1040.5914	0.136165	-458.962731	-458.9549	-458.953956	-458.995267	29.638	
O	-0.0843584425	 1.4348881172	 0.0378033348	-0.429697
C	 0.0122566686	 0.0303672651	 0.0475670202	 0.120915
C	 0.6639302	-0.593651963	 1.2947276919	-0.37645
C	 0.0880511795	-2.0125378049	 1.3337911828	 0.401036
O	 0.6223880993	-2.9912631867	 1.7855986655	-0.316694
C	-1.2887729563	-1.9821960031	 0.6692179859	-0.189261
C	-2.3866885244	-1.4326081686	 1.6149066632	-0.08328
O	-2.2522448213	-0.1082037419	 1.065780434	-0.282539
C	-1.3903176346	-0.5871200191	 0.0085120351	 0.103542
H	 0.8053918793	 1.8008975905	 0.0373863329	 0.289332
H	 0.5395196075	-0.339005278	-0.8502815898	 0.074441
H	 1.7553889227	-0.6059623039	 1.2969536663	 0.119937
H	 0.31758976	-0.048513758	 2.1819353898	 0.148905
H	-1.5097159292	-2.8951829449	 0.1188633367	 0.102874
H	-3.3797690297	-1.8573755751	 1.4231607058	 0.113445
H	-2.1820679922	-1.4666034396	 2.6910682082	 0.118048
H	-1.8706174166	-0.4982425058	-0.9708908232	 0.085444
95.0005	124.091	227.8042	232.984	248.8317	339.2009	462.2364	487.3407	525.2309	599.9747	671.1028	759.0503	835.6809	869.2693	887.6464	909.2637	952.6031	985.5225	1034.2281	1064.5054	1085.8973	1127.4664	1148.8988	1164.8792	1175.5743	1205.5463	1224.5196	1237.2942	1262.0535	1280.8577	1334.688	1357.4814	1379.7343	1429.9227	1453.8776	1526.4286	1847.4088	2943.9043	3017.876	3044.2435	3062.1779	3066.5028	3122.1085	3133.1643	3825.2344
OC1CC(=O)C2COC12	O[C@H]1CC(=O)[C@H]2CO[C@@H]12	
InChI=1S/C6H8O3/c7-4-1-5(8)6-3(4)2-9-6/h3,5-6,8H,1-2H2	InChI=1S/C6H8O3/c7-4-1-5(8)6-3(4)2-9-6/h3,5-6,8H,1-2H2/t3-,5+,6-/m1/s1
