17
gdb 78616	3.08281	1.39593	1.14085	0.9193	68.04	-0.2475	0.0626	0.31	1071.3799	0.134704	-458.875223	-458.867087	-458.866143	-458.907418	31.903	
O	-0.0065609524	 1.4732876085	-0.0970642511	-0.446801
C	 0.0521775879	 0.0691351233	-0.0162656348	 0.108878
C	 0.0283306656	-0.595645589	 1.3799265365	-0.137209
C	-1.5041099592	-0.2958136129	 1.557310518	-0.102146
C	-1.7943810351	-1.7681190171	 1.915033228	 0.067684
O	-3.0650374439	-2.3245237918	 1.6767913504	-0.45281
C	-0.7109491144	-1.8471427362	 0.8229524632	 0.349492
O	-0.0606769873	-2.9463274812	 0.3031166034	-0.47577
C	-1.3184796748	-0.6105197198	 0.0283900397	-0.169536
H	 0.8901673071	 1.8172863421	-0.039362452	 0.283372
H	 0.7739563171	-0.3506661123	-0.7291803235	 0.077501
H	 0.7755299884	-0.5994937201	 2.1743593645	 0.074791
H	-1.9298705501	 0.6126706067	 1.9719528085	 0.092052
H	-1.4941345492	-2.0995532959	 2.9142544317	 0.086644
H	-3.4287971318	-1.9173027766	 0.882708049	 0.283018
H	-0.7279528319	-3.5998694023	 0.0644379534	 0.291167
H	-2.0905402859	-0.6200967753	-0.7427627249	 0.069673
163.2121	188.7344	194.3592	263.7416	292.5928	311.1571	314.1771	388.9955	442.0866	536.5993	634.3661	670.0724	748.6305	801.9128	856.4962	878.4448	900.4626	932.9333	942.8326	983.0056	1021.625	1052.8433	1098.3973	1116.7968	1126.3274	1139.9645	1155.5313	1197.2193	1205.0315	1221.381	1270.4423	1283.5357	1306.3681	1317.2919	1390.4198	1438.5594	1450.6389	3019.4048	3069.254	3097.7485	3110.7308	3171.3824	3799.5191	3802.0836	3820.9346
OC1C2C3C(O)C2(O)C13	O[C@H]1[C@H]2[C@@H]3[C@@H](O)[C@@]2(O)[C@H]13	
InChI=1S/C6H8O3/c7-4-2-1-3(4)6(2,9)5(1)8/h1-5,7-9H	InChI=1S/C6H8O3/c7-4-2-1-3(4)6(2,9)5(1)8/h1-5,7-9H/t1-,2+,3-,4-,5-,6-/m1/s1
