14
gdb 43894	2.92376	1.49761	1.15344	3.0603	70.72	-0.2651	-0.0095	0.2556	1035.8103	0.099675	-436.609968	-436.60243	-436.601486	-436.642099	28.548	
N	 0.0382144548	 1.0819663197	-0.55066287	-0.540248
C	-0.0252235166	-0.0758908513	-0.0854481858	 0.435044
O	 0.9720513751	-0.9179618444	 0.3988048336	-0.292404
C	 0.0192431299	-2.0078890691	 0.6370831395	 0.204493
C	-0.6349342676	-1.8874977361	 2.0284834682	-0.123946
O	-1.6434111518	-0.980626282	 1.5221551946	-0.278287
C	-1.1401225334	-1.0705865919	 0.1785979849	-0.077362
C	 0.4230299603	-3.2708305094	 0.0964967998	 0.239689
C	 0.7420666562	-4.3441090499	-0.3395551927	-0.390541
H	 0.9929541673	 1.4456400526	-0.5429095051	 0.236931
H	-1.0841987958	-2.8169640439	 2.3926335546	 0.126552
H	 0.0036113952	-1.4383089291	 2.7949379749	 0.129732
H	-1.9030545467	-1.262605344	-0.5743238563	 0.122213
H	 1.0290342831	-5.2894913014	-0.7308154502	 0.208135
98.326	150.802	188.2456	249.6967	371.9063	403.257	476.1426	500.3029	580.0112	641.6676	659.064	683.7321	738.7683	828.2316	863.1682	872.4586	964.2166	984.9267	1009.0618	1028.2963	1056.1268	1080.2572	1148.6892	1167.2753	1253.4063	1264.881	1296.43	1354.2127	1499.0731	1834.9501	2244.4771	3043.378	3105.7827	3137.2249	3476.2107	3497.6194
N=C1OC2(COC12)C#C	[NH][C]1O[C@]2(CO[C@@H]12)C#C	
InChI=1S/C6H5NO2/c1-2-6-3-8-4(6)5(7)9-6/h1,4,7H,3H2	InChI=1S/C6H5NO2/c1-2-6-3-8-4(6)5(7)9-6/h1,4,7H,3H2/t4-,6-/m0/s1
