17
gdb 75745	2.89488	1.50282	1.09466	2.676	75.71	-0.2447	-0.0571	0.1876	1088.6951	0.135491	-421.84251	-421.834519	-421.833574	-421.875165	30.447	
C	-0.1814793262	 1.5836474645	-0.0594933104	-0.412439
C	 0.0714602294	 0.0794751174	 0.0252180073	-0.205553
C	 0.9326147367	-0.4420274538	-1.14611191	 0.373235
O	 0.8104108156	-0.1137783974	-2.3027535005	-0.332741
C	 1.9239576135	-1.3910687065	-0.5830628781	-0.202588
C	 1.8394534548	-1.4009300997	 0.7537425532	-0.114303
C	 0.8026700859	-0.4599371244	 1.2526383836	 0.400034
C	 0.9424361081	 0.2395814365	 2.5431126412	-0.239116
O	 0.0524189442	-0.8647913931	 2.4081032127	-0.276298
H	 0.7440854555	 2.1506375627	 0.0827547107	 0.120438
H	-0.5750624159	 1.8270881009	-1.0495959441	 0.144704
H	-0.9056394092	 1.9111003506	 0.6918784996	 0.121704
H	-0.8870637461	-0.4525816723	-0.0380364388	 0.127422
H	 2.605391837	-1.9595415385	-1.2027034587	 0.125865
H	 2.4310228276	-2.0003235131	 1.4367365283	 0.128033
H	 1.8216627393	 0.0639099844	 3.1626045453	 0.116377
H	 0.4717603097	 1.2126481119	 2.6713340985	 0.125226
60.235	208.0533	232.2013	240.2513	253.0721	313.173	375.8905	466.6364	511.9087	561.0121	679.0069	690.5548	768.6491	791.1551	830.761	876.0139	912.9067	957.2361	997.0598	1028.902	1075.2815	1098.9165	1114.6652	1132.0141	1159.2006	1169.6684	1242.5537	1263.9921	1334.6876	1342.4156	1399.0482	1416.096	1498.2881	1499.5347	1526.6909	1637.9415	1816.5859	3030.8717	3041.3381	3081.8303	3110.8878	3125.4671	3171.2372	3199.5583	3230.2185
CC1C(=O)C=CC11CO1	C[C@H]1C(=O)C=C[C@]21CO2	
InChI=1S/C7H8O2/c1-5-6(8)2-3-7(5)4-9-7/h2-3,5H,4H2,1H3	InChI=1S/C7H8O2/c1-5-6(8)2-3-7(5)4-9-7/h2-3,5H,4H2,1H3/t5-,7+/m0/s1
