19
gdb 121205	2.44094	1.01026	0.77574	1.991	77.39	-0.2523	0.034	0.2863	1470.2197	0.157209	-422.964036	-422.954221	-422.953277	-423.000002	34.896	
O	 0.1992070556	 1.3399199833	 0.1295883317	-0.420152
C	 0.0741884422	-0.0676761575	-0.0019128486	-0.066965
C	-1.3858764294	-0.5289266428	-0.0257646228	-0.219309
C	-1.5050471928	-2.0302432069	-0.203454414	 0.132057
O	-0.9431211974	-2.7721673238	 0.9064166233	-0.288746
C	-2.2009063594	-3.3936901585	 1.2159317931	-0.073923
C	-2.9020345426	-2.7057629981	 0.0113941654	-0.267708
C	-4.0503595168	-1.8703851704	 0.2888438016	 0.347534
C	-5.0057892339	-1.1814392864	 0.5314852722	-0.470661
H	-0.1386105957	 1.5836780849	 0.9971776773	 0.280856
H	 0.5619325786	-0.3193301334	-0.9506047782	 0.108295
H	 0.6149779296	-0.5995307216	 0.7937646521	 0.109865
H	-1.8837514292	-0.235594618	 0.9068673431	 0.098575
H	-1.9139110202	-0.0244631978	-0.8437915104	 0.112712
H	-1.0308446831	-2.3398921744	-1.1450825089	 0.081248
H	-2.1483021535	-4.4871232962	 1.1627306063	 0.108505
H	-2.5837735486	-3.0946328767	 2.1979498348	 0.112746
H	-3.1383210115	-3.4102595089	-0.7902529426	 0.113689
H	-5.8512315621	-0.5736054868	 0.7401425047	 0.201382
41.1554	89.1964	90.755	105.0833	179.0391	219.2885	294.349	324.5775	367.0268	482.6243	506.4781	566.9356	624.2471	643.1254	744.1156	787.5012	847.3244	892.6806	932.4389	1012.1858	1018.9567	1059.262	1074.1199	1083.1324	1099.3565	1136.7793	1165.2346	1175.0179	1224.6501	1255.2845	1300.4386	1311.6649	1349.1362	1360.0507	1385.0136	1412.8505	1422.2506	1471.5772	1513.9974	1526.2473	2234.7474	3003.2492	3007.198	3025.4815	3030.1517	3059.8037	3065.8298	3080.4408	3084.8899	3502.9006	3817.0752
OCCC1OCC1C#C	OCC[C@H]1OC[C@H]1C#C	
InChI=1S/C7H10O2/c1-2-6-5-9-7(6)3-4-8/h1,6-8H,3-5H2	InChI=1S/C7H10O2/c1-2-6-5-9-7(6)3-4-8/h1,6-8H,3-5H2/t6-,7-/m1/s1
