22
gdb 121971	5.58742	0.54267	0.51749	3.876	84.45	-0.2616	0.0324	0.294	2121.6355	0.192002	-404.361589	-404.350533	-404.349588	-404.398909	38.194	
C	 0.1053966084	 1.3629933521	 0.0990364534	-0.229309
O	 0.0326987572	-0.0424114959	 0.1072729977	-0.230018
C	-1.2825987486	-0.5263308735	-0.0505496827	-0.067001
C	-1.2240864751	-2.0501435422	-0.0500648828	-0.202061
C	-2.6004749552	-2.7348924714	-0.067016202	 0.016371
C	-3.4039266246	-2.4397209903	-1.3403817876	-0.40179
C	-2.400464146	-4.259852338	 0.1210407542	-0.346686
C	-3.6571589426	-4.9925862861	 0.2593533299	 0.263397
N	-4.6610880562	-5.5543176645	 0.371307596	-0.313573
H	 1.155195319	 1.6373192723	 0.22754396	 0.128876
H	-0.258909031	 1.7865805037	-0.8505544798	 0.104248
H	-0.4810980131	 1.8081773719	 0.9185692283	 0.104448
H	-1.9267778569	-0.1680719677	 0.7725961752	 0.086054
H	-1.7176751187	-0.1437490327	-0.9883693001	 0.089978
H	-0.6313244763	-2.381191272	-0.9126030267	 0.107015
H	-0.6702553067	-2.3558095621	 0.8456992674	 0.108307
H	-3.1755872374	-2.3761752704	 0.7968166202	 0.096368
H	-3.6306770098	-1.3743908675	-1.4319798539	 0.124666
H	-2.8437924402	-2.7408646676	-2.2338082802	 0.117829
H	-4.3541986554	-2.9812902271	-1.3397372312	 0.143584
H	-1.8499258414	-4.6723445482	-0.7336675015	 0.149491
H	-1.7909246993	-4.4529758928	 1.0109834663	 0.149807
48.3199	68.1445	91.545	98.8155	130.6285	179.8659	233.9301	245.6519	275.1752	304.9092	391.0772	400.8737	422.0817	489.4173	585.2709	794.3028	843.6503	891.4101	925.1483	968.0014	981.0187	991.8923	1063.5502	1116.787	1129.8174	1163.1387	1170.1989	1186.6906	1223.1326	1234.315	1262.5007	1285.6062	1313.4149	1335.8564	1372.6663	1377.8095	1420.2187	1429.5312	1463.7515	1482.1234	1486.1609	1488.1128	1499.4912	1504.1314	1508.5142	1533.5246	2359.6081	2942.5067	2969.6233	2980.7235	3012.7039	3018.4223	3025.1575	3033.3743	3039.3032	3067.7044	3079.2402	3103.9873	3115.2287	3119.2678
COCCC(C)CC#N	COCC[C@@H](C)CC#N	
InChI=1S/C7H13NO/c1-7(3-5-8)4-6-9-2/h7H,3-4,6H2,1-2H3	InChI=1S/C7H13NO/c1-7(3-5-8)4-6-9-2/h7H,3-4,6H2,1-2H3/t7-/m0/s1
