14
gdb 21104	3.51955	2.0827	1.32606	3.5014	60.64	-0.2094	0.0091	0.2185	870.4408	0.108124	-412.033168	-412.025258	-412.024314	-412.065394	27.983	
C	-0.0369775134	 1.412637947	-0.0475641403	-0.329977
N	 0.0154575074	-0.0297289795	 0.0449296701	 0.048282
N	-0.0233829718	-0.7914018685	-1.0588246715	-0.174321
N	 0.0446683914	-2.0464255661	-0.6694695625	-0.284503
C	 0.100650772	-2.0785800356	 0.6750879886	 0.32014
O	 0.1860901391	-3.2210626779	 1.3933678091	-0.443228
C	 0.0802886024	-0.7921993695	 1.1745139697	 0.198366
N	 0.1918634728	-0.2389935487	 2.4586050617	-0.617032
H	 0.6551613977	 1.844497775	 0.6783348347	 0.157517
H	 0.2525233052	 1.6880280359	-1.0614863717	 0.164962
H	-1.045514941	 1.7883720381	 0.1542894878	 0.139991
H	 0.2276971059	-3.9453353444	 0.7565946883	 0.305945
H	 0.6320391673	-0.9004842806	 3.0880399447	 0.261295
H	-0.7077553351	 0.0140475849	 2.8574787512	 0.252563
98.5785	146.7588	156.5197	249.1451	278.0458	291.5043	345.3183	378.7452	541.3196	604.0622	667.0889	729.4841	749.5643	803.1489	845.7426	1050.2622	1072.6567	1152.8512	1172.6652	1241.0196	1258.2704	1302.7256	1372.7382	1421.5201	1444.2674	1483.7643	1504.1674	1544.5346	1655.9722	1690.1005	3045.6315	3118.9194	3166.9646	3493.5469	3584.8875	3798.5332
CN1N=NC(O)=C1N	Cn1nnc(O)c1N	
InChI=1S/C3H6N4O/c1-7-2(4)3(8)5-6-7/h8H,4H2,1H3	InChI=1S/C3H6N4O/c1-7-2(4)3(8)5-6-7/h8H,4H2,1H3
