13
gdb 131013	3.50868	1.14137	0.86122	6.4197	71.33	-0.2641	-0.0856	0.1784	1225.8518	0.089318	-452.781674	-452.774194	-452.77325	-452.814299	26.38	
O	-0.0477887392	-0.0334650018	-0.0002622831	-0.233372
C	 0.007951754	 1.1573196005	 0.0092404699	 0.19853
N	 1.2059491703	 1.9087928896	 0.0017031652	-0.013998
C	 1.276075308	 3.2851820192	 0.0125846614	 0.011838
C	 2.6021009938	 3.6037546482	-0.0001807136	-0.31364
C	 3.274810531	 2.3438149505	-0.0185440588	 0.270983
C	 4.741525799	 2.1415051064	-0.0372184613	 0.100528
O	 5.2968530785	 1.0733972325	-0.0529681869	-0.239045
N	 2.4209496138	 1.3261566218	-0.0172762753	-0.266305
H	-0.8654944289	 1.8340095441	 0.0249718506	 0.110009
H	 0.3837865335	 3.8906338349	 0.0280555506	 0.161144
H	 3.0425424082	 4.5878958645	 0.0029899722	 0.134679
H	 5.313143398	 3.0965841095	-0.0356687809	 0.078649
109.4626	134.3193	142.0951	214.0302	283.5252	333.9656	467.5119	537.9231	636.3625	689.4961	749.1891	780.1311	843.4409	869.9021	998.172	1022.6163	1033.6087	1037.3626	1079.7983	1187.7039	1284.1153	1340.7966	1414.2237	1441.4792	1452.3066	1468.3648	1570.3975	1819.365	1865.7396	2881.6749	2979.5957	3259.5207	3278.0386
O=CN1C=CC(C=O)=N1	O=Cn1ccc(C=O)n1	
InChI=1S/C5H4N2O2/c8-3-5-1-2-7(4-9)6-5/h1-4H	InChI=1S/C5H4N2O2/c8-3-5-1-2-7(4-9)6-5/h1-4H
