23
gdb 110878	2.25053	1.37585	1.15245	1.5571	84.78	-0.2529	0.0705	0.3234	1228.6527	0.207085	-388.291674	-388.282502	-388.281558	-388.325623	35.536	
C	 0.2025314849	 1.3173837896	-0.2894052361	-0.370235
C	 0.1227901074	-0.1586994533	 0.1215579762	-0.228588
C	-1.3009819394	-0.6795190796	 0.0968372281	 0.016164
C	-2.0145005444	-1.2165937426	-1.1270312056	-0.062734
C	-1.2139691459	-1.6805682331	-2.3381912205	-0.231563
C	-0.305034604	-2.8514304483	-1.8846968225	 0.107505
O	 1.0555383825	-2.4379459172	-2.0199947797	-0.415076
C	-0.711681081	-3.1930210375	-0.4200662062	-0.256611
C	-1.7074354195	-2.1354249131	 0.0409354164	-0.081779
H	 1.2320479077	 1.6867411983	-0.2441902336	 0.10629
H	-0.1607008217	 1.4610770417	-1.312594752	 0.116488
H	-0.4073114544	 1.9487556226	 0.3671511912	 0.106291
H	 0.7676429879	-0.7538167284	-0.5294953447	 0.128346
H	 0.5204943957	-0.2717277967	 1.1397133988	 0.085266
H	-1.9620148202	-0.0918311517	 0.733604151	 0.07336
H	-3.0272069728	-0.8719083126	-1.308505095	 0.074551
H	-1.9034362674	-2.0174832568	-3.1187117108	 0.097445
H	-0.5889797629	-0.8989618989	-2.7819784773	 0.117785
H	-0.4651874705	-3.7271841608	-2.5289806378	 0.071472
H	 1.6145162007	-3.1539783718	-1.7016878976	 0.28001
H	-1.1900693401	-4.1778218008	-0.3812303705	 0.096145
H	 0.1823214742	-3.2504158585	 0.2129226492	 0.094385
H	-2.4942657667	-2.4597908506	 0.7143263691	 0.075084
79.5647	97.8009	125.9084	189.9147	253.9096	281.881	318.458	408.5601	424.8783	472.6396	515.8557	668.8369	690.4519	742.1239	769.8635	804.3557	813.4679	889.8949	900.8349	961.3628	982.8232	988.4243	1003.9826	1039.3908	1047.1666	1092.4777	1096.3523	1111.4608	1132.7543	1152.519	1194.493	1231.7687	1242.0476	1257.0627	1290.9655	1305.6461	1324.5005	1328.4992	1343.1367	1374.0791	1393.7294	1408.7214	1422.7444	1455.4035	1479.9423	1490.9361	1497.4218	1500.2341	1515.5118	2989.511	3011.2032	3027.3894	3029.1706	3049.2635	3067.4845	3084.3988	3086.5078	3097.3107	3101.3649	3114.9773	3149.1466	3161.1173	3816.0094
CCC1C2CC(O)CC12	CC[C@H]1[C@H]2C[C@@H](O)C[C@@H]12	
InChI=1S/C8H14O/c1-2-6-7-3-5(9)4-8(6)7/h5-9H,2-4H2,1H3	InChI=1S/C8H14O/c1-2-6-7-3-5(9)4-8(6)7/h5-9H,2-4H2,1H3/t5-,6+,7-,8+
