17
gdb 43372	3.03665	1.32388	0.96939	2.6771	74.45	-0.2427	-0.0512	0.1916	1177.935	0.136196	-421.836223	-421.828288	-421.827344	-421.86983	29.202	
O	-0.2053639507	-0.0087414502	 0.234245595	-0.334651
C	-0.1645348928	 1.1938772888	 0.1187701987	 0.369816
C	-1.3018325582	 2.1267753543	-0.0327347794	-0.176619
C	-0.8625480734	 3.3899473843	-0.0841070172	-0.048291
C	 0.636745081	 3.50671072	 0.0253458381	-0.299069
C	 1.1303681593	 2.0455700177	 0.1080188684	-0.131921
C	 2.0027827901	 1.7329496536	 1.2999759114	 0.09721
C	 2.9688043195	 0.632985358	 1.2800796381	-0.171575
O	 3.401220567	 1.9944323166	 1.167126192	-0.249278
H	-2.3284529914	 1.787728768	-0.081585483	 0.120136
H	-1.4947993117	 4.2657886631	-0.1875764913	 0.119167
H	 1.0584942045	 4.0469270505	-0.8297408811	 0.128656
H	 0.9173211065	 4.0882800936	 0.9131294736	 0.128874
H	 1.6907079291	 1.7744536934	-0.7932706756	 0.111684
H	 1.5866192535	 2.0284567922	 2.265480943	 0.095025
H	 3.2374657652	 0.1323365912	 2.2083132385	 0.118065
H	 3.0720042125	 0.030749675	 0.3796795509	 0.122771
53.9885	61.0094	158.6908	250.9969	315.1134	340.4722	409.4658	528.5408	609.2575	657.2066	759.936	788.7826	827.3748	850.6049	903.6221	921.8748	957.5916	960.935	1008.4732	1053.3695	1093.1961	1113.3701	1124.4129	1153.0222	1169.5178	1173.122	1204.6601	1217.381	1284.4289	1300.6563	1324.8121	1364.7737	1441.855	1473.302	1532.8518	1648.9294	1811.6292	3030.2006	3053.242	3066.6299	3087.6339	3095.1947	3182.5042	3189.2551	3229.2414
O=C1C=CCC1C1CO1	O=C1C=CC[C@H]1[C@H]1CO1	
InChI=1S/C7H8O2/c8-6-3-1-2-5(6)7-4-9-7/h1,3,5,7H,2,4H2	InChI=1S/C7H8O2/c8-6-3-1-2-5(6)7-4-9-7/h1,3,5,7H,2,4H2/t5-,7-/m1/s1
