18
gdb 8539	3.44512	2.2376	1.6432	1.5744	72.39	-0.2095	0.0774	0.2869	838.9252	0.153443	-343.864878	-343.85753	-343.856586	-343.895992	28.72	
C	-0.6462804587	 1.4300809815	-0.4269821295	-0.330161
N	-0.4283079494	 0.0212627192	-0.1210645502	-0.109311
C	-1.2355252279	-0.5868061233	 0.9760111673	-0.086264
C	-0.1277784035	-1.6488753117	 1.2457916504	-0.026441
N	-0.0300489143	-1.4274811033	 2.7180626838	-0.375492
C	-0.3338748605	-0.0555336253	 2.1786296431	 0.336666
C	-0.4684087378	 1.1084011447	 3.1196606576	-0.530624
C	 0.5888999141	-0.3142487292	 0.9175389086	-0.055663
H	 0.1818291024	 1.7916687129	-1.0459851086	 0.120778
H	-1.5647980094	 1.5278124738	-1.0155610295	 0.11958
H	-0.7315015543	 2.0945321713	 0.4466544943	 0.097757
H	-2.3198981301	-0.7182816653	 0.9270678569	 0.07378
H	 0.0103608576	-2.6118569752	 0.7564789874	 0.088054
H	-0.8579488977	-1.8085668887	 3.1856905634	 0.201781
H	 0.4302811959	 1.1877858639	 3.7402202711	 0.136695
H	-0.6106933379	 2.0542014183	 2.5930148547	 0.132027
H	-1.324905716	 0.9631997772	 3.7886418335	 0.121694
H	 1.6582594674	-0.1297947207	 0.8061343157	 0.085144
152.0602	177.0286	225.9439	234.1192	302.5605	342.2357	502.3583	534.7957	645.5168	732.148	735.7117	793.5912	824.8125	840.7532	896.0343	900.8884	952.5924	993.8367	1082.0707	1089.1332	1100.1414	1111.4884	1123.8425	1150.9108	1154.3443	1188.1824	1197.3089	1219.6966	1262.9885	1292.1102	1311.7181	1358.4713	1406.1975	1447.1302	1479.5884	1482.4293	1496.5397	1498.4544	2986.8789	3032.3131	3062.3429	3080.2511	3094.1553	3094.6196	3110.6026	3130.3346	3135.0593	3387.5694
CN1C2C3NC2(C)C13	CN1[C@H]2[C@@H]3N[C@@]2(C)[C@H]13	
InChI=1S/C6H10N2/c1-6-4-3(7-6)5(6)8(4)2/h3-5,7H,1-2H3	InChI=1S/C6H10N2/c1-6-4-3(7-6)5(6)8(4)2/h3-5,7H,1-2H3/t3-,4-,5+,6+
