16
gdb 83608	2.42045	1.75087	1.18004	1.3588	65.68	-0.2385	-0.0408	0.1977	1021.5881	0.123634	-474.982054	-474.973909	-474.972965	-475.01462	30.959	
O	 0.679516307	 0.8029440194	 0.5792869939	-0.435163
C	 0.1125153988	-0.3287784752	-0.0055480874	 0.056047
C	-1.4497526237	-0.402809605	-0.1880425664	-0.123148
N	-2.0455556983	-1.7224973389	 0.0083211341	-0.295831
C	-1.6902622843	-2.18445379	-1.356162352	-0.237483
C	-1.2574692229	-0.7650560908	-1.775060841	 0.328809
O	-1.8883749653	-0.2572398057	-2.8813465121	-0.457202
C	 0.1556952265	-0.292575099	-1.5380278388	 0.234185
O	 0.7856184142	 0.4783078082	-2.2264092685	-0.340336
H	 1.0801044719	 1.3155255701	-0.1372567712	 0.299068
H	 0.4920948726	-1.2428911147	 0.4680594988	 0.095096
H	-1.9934934373	 0.4712661361	 0.1722969228	 0.109026
H	-1.6416255647	-2.2610893848	 0.7681986369	 0.222779
H	-0.9051514665	-2.9463755569	-1.4252022728	 0.110902
H	-2.5611303577	-2.520735205	-1.927262634	 0.133607
H	-1.3316193603	 0.4551566221	-3.2276053423	 0.299643
90.5958	152.5528	235.4161	266.6614	281.2825	323.5639	373.0321	405.5458	449.0064	481.8541	572.1797	685.523	731.1269	782.0532	833.8305	868.0107	944.9135	968.5948	998.1625	1030.5856	1050.8705	1095.791	1128.1039	1133.4477	1168.5312	1220.1877	1254.5282	1302.7286	1335.0333	1367.7033	1374.9931	1400.8599	1414.2514	1507.9623	1800.9788	3023.3874	3028.7991	3082.6633	3113.6138	3514.2698	3735.9651	3739.7924
OC1C2NCC2(O)C1=O	O[C@H]1[C@@H]2NC[C@]2(O)C1=O	
InChI=1S/C5H7NO3/c7-2-3-5(9,1-6-3)4(2)8/h2-3,6-7,9H,1H2	InChI=1S/C5H7NO3/c7-2-3-5(9,1-6-3)4(2)8/h2-3,6-7,9H,1H2/t2-,3-,5+/m0/s1
