22
gdb 57893	2.3395	1.11069	1.0685	2.6505	83.15	-0.2338	-0.015	0.2188	1337.3288	0.192012	-404.350731	-404.340155	-404.339211	-404.386848	38.168	
C	-0.9285656663	-0.0466514705	-0.2937757108	-0.396564
C	 0.5238358418	-0.1781441008	 0.2167208208	-0.057855
C	 1.542191356	 0.0168375093	-0.9084304798	-0.391864
C	 0.716391495	 0.8547907313	 1.3233981503	 0.382685
O	 1.1873839944	 1.9517593599	 1.110094537	-0.331324
C	 0.2417238153	 0.5344261223	 2.7186937887	-0.128987
N	-0.3400429613	-0.7859180464	 3.0093982408	-0.338405
C	 0.9376190869	-0.4360991302	 3.6302334453	 0.021016
C	 2.1643036147	-1.2359378874	 3.2635153844	-0.405769
H	-1.1028102652	 0.9504799604	-0.7113488769	 0.126221
H	-1.1161787866	-0.7835463463	-1.0806868338	 0.118197
H	-1.6499138061	-0.2197125465	 0.5095074353	 0.127027
H	 0.6162494875	-1.1768581723	 0.6532117295	 0.099109
H	 1.4791752304	 1.0307509068	-1.3115726459	 0.134398
H	 2.566009334	-0.1307778051	-0.550960447	 0.113196
H	 1.3581682459	-0.6952806786	-1.7188209383	 0.105239
H	-0.1659538241	 1.4136469303	 3.2137212029	 0.103315
H	-1.1097769204	-0.7013679184	 3.6668633492	 0.237665
H	 0.9037931105	-0.1438949337	 4.6797279022	 0.09417
H	 2.1699854999	-1.5130268974	 2.2079659489	 0.134513
H	 3.0716281503	-0.6604334165	 3.4740329673	 0.128983
H	 2.2050179075	-2.1581923499	 3.8527543498	 0.125036
42.9973	62.0781	140.1525	157.4418	189.9199	199.1028	229.0544	261.1074	301.3053	332.8606	402.0234	431.5064	495.1861	575.9394	713.3342	751.6112	788.4853	855.6347	884.7103	931.8272	948.5556	971.0649	988.1252	1021.9526	1049.7195	1091.7134	1100.5962	1127.2219	1150.83	1189.7829	1225.3806	1245.3436	1266.2365	1322.796	1364.3797	1389.7326	1399.4805	1415.4219	1415.9919	1457.6411	1484.7037	1487.8727	1489.5881	1498.3502	1500.9182	1511.5768	1788.4999	3035.4896	3041.1235	3041.7463	3069.0889	3102.1556	3103.2863	3105.6534	3108.0256	3117.4245	3125.5898	3131.4783	3140.4527	3512.3406
CC(C)C(=O)C1NC1C	CC(C)C(=O)[C@H]1N[C@H]1C	
InChI=1S/C7H13NO/c1-4(2)7(9)6-5(3)8-6/h4-6,8H,1-3H3	InChI=1S/C7H13NO/c1-4(2)7(9)6-5(3)8-6/h4-6,8H,1-3H3/t5-,6-/m0/s1
