13
gdb 23932	9.33527	0.69478	0.64665	3.6693	99.62	-0.2179	-0.0461	0.1718	1611.5405	0.090127	-378.457809	-378.450092	-378.449148	-378.490516	28.496	
C	 0.1192815357	-3.7322581034	-0.019532227	-0.593944
C	 0.0585876572	-2.5252206689	-0.0119987626	 0.255122
C	-0.0058559502	-1.1701416587	-0.0035870504	 0.035622
C	-0.0657389107	 0.0420169449	 0.0039654578	 0.336628
C	-0.1037563009	 1.4476745079	 0.0122968029	 0.028222
N	-1.1815084305	 2.2219307909	 0.0304926026	-0.292042
C	-0.7128682069	 3.5036057681	 0.0316134144	-0.100979
C	 0.6630978715	 3.5232813681	 0.0140036732	-0.101017
N	 1.0414664921	 2.2093262063	 0.0017960437	-0.289799
H	 0.1679877031	-4.792871185	-0.0260946225	 0.194281
H	-1.3859252133	 4.3472594647	 0.0449892835	 0.114259
H	 1.3815232816	 4.3260046271	 0.0092296508	 0.137516
H	 1.9822405714	 1.8514840881	-0.0123021564	 0.276131
73.1106	85.6262	225.178	227.4179	436.3365	444.8579	492.2843	515.9924	536.8557	559.8135	595.4787	613.8295	644.4571	743.5484	753.765	868.0659	918.5211	948.2987	1046.1354	1112.6328	1145.0142	1192.9278	1289.8803	1407.673	1426.8172	1473.5162	1566.0775	2179.3529	2337.2031	3251.2599	3281.8553	3503.8297	3663.7183
C#CC#CC1=NC=CN1	C#CC#Cc1ncc[nH]1	
InChI=1S/C7H4N2/c1-2-3-4-7-8-5-6-9-7/h1,5-6H,(H,8,9)	InChI=1S/C7H4N2/c1-2-3-4-7-8-5-6-9-7/h1,5-6H,(H,8,9)
