21
gdb 109874	2.19247	1.51892	1.07006	0.8508	78.91	-0.2406	0.0811	0.3217	1210.9518	0.180555	-424.184219	-424.174515	-424.173571	-424.21843	36.285	
C	-0.112671986	 1.3970507657	 0.0326276355	-0.240415
O	 0.2325776218	 0.0383591475	-0.1293153259	-0.248479
C	 0.7143631804	-0.575418863	 1.041858097	 0.035429
C	-0.3078135261	-1.2771586473	 2.0319625724	-0.020376
C	-1.7980818707	-1.2067781389	 1.7208093519	-0.404391
C	 0.4351301651	-2.598608803	 1.7834015293	-0.125838
C	 0.4229696417	-2.9474524253	 0.3106520584	-0.347355
C	 1.3925461875	-1.9169735859	 0.8128270003	 0.379364
O	 2.7653481216	-2.0762011919	 0.7262952294	-0.468896
H	 0.7483619494	 1.9939323132	 0.3716543848	 0.105843
H	-0.4364610827	 1.7685030588	-0.9429800073	 0.125373
H	-0.9324444571	 1.538275107	 0.7513279044	 0.108761
H	 1.3810271019	 0.10767474	 1.5863359492	 0.070772
H	-0.1274871416	-0.9238983344	 3.0521665928	 0.071655
H	-2.0067774898	-1.4335909294	 0.6723216968	 0.124937
H	-2.3538118336	-1.9205850022	 2.338497932	 0.113528
H	-2.199313675	-0.2090376416	 1.9275147215	 0.11143
H	 0.6634227775	-3.3424135223	 2.5366026592	 0.091413
H	 0.8931833777	-3.8983440929	 0.0800043478	 0.111253
H	-0.4080267819	-2.6825606376	-0.3354870149	 0.118296
H	 3.0108185399	-2.0486714865	-0.2049474246	 0.287696
95.3847	113.0876	159.3812	190.581	223.7653	224.9146	262.9166	265.9991	332.5609	397.453	483.6597	518.0436	554.5153	657.3344	730.109	793.0873	851.4391	881.7975	954.2711	966.3026	994.8346	1006.8163	1035.1432	1069.9178	1081.6759	1105.9321	1144.056	1153.2671	1182.3461	1189.8722	1220.0643	1236.4552	1253.5637	1312.008	1322.769	1359.8258	1375.0338	1410.7748	1422.8198	1479.661	1486.3413	1493.2703	1496.3242	1503.1736	1511.9383	2978.4631	3007.1395	3029.9246	3035.6516	3052.3028	3094.4228	3111.2628	3118.4388	3124.7631	3190.1372	3210.5531	3797.0457
COC1C(C)C2CC12O	CO[C@H]1[C@@H](C)[C@H]2C[C@@]12O	
InChI=1S/C7H12O2/c1-4-5-3-7(5,8)6(4)9-2/h4-6,8H,3H2,1-2H3	InChI=1S/C7H12O2/c1-4-5-3-7(5,8)6(4)9-2/h4-6,8H,3H2,1-2H3/t4-,5+,6-,7-/m0/s1
