16
gdb 27739	2.31983	1.47388	0.91145	2.7033	77.63	-0.2505	-0.0594	0.191	1243.0093	0.122987	-437.95156	-437.942715	-437.941771	-437.985599	30.818	
C	 0.0702153725	 1.4244921127	-0.034172382	-0.491357
C	-0.0440355905	-0.0555439725	-0.0250233317	 0.386102
N	-1.1246084403	-0.776310522	-0.1390606354	-0.344187
C	-0.6870309429	-2.0861541177	-0.068595666	 0.200468
C	-1.6429760718	-3.2252346494	-0.161684777	-0.496725
C	 0.6755104844	-2.0867317152	 0.0889744099	 0.163841
O	 1.0851298837	-0.7720921432	 0.1163542775	-0.18732
C	 1.6603549721	-3.1417863219	 0.2179774183	 0.059542
O	 2.8532149617	-2.9775203827	 0.352451859	-0.282789
H	 0.7155069469	 1.757786366	-0.8531275922	 0.157494
H	-0.9215719732	 1.859337141	-0.1552791479	 0.161204
H	 0.5133061695	 1.7843211657	 0.8997990854	 0.157492
H	-2.1863492779	-3.1869860162	-1.1114619929	 0.151809
H	-1.1376843161	-4.1900015492	-0.0885028153	 0.13487
H	-2.3884815765	-3.1601687568	 0.6375532822	 0.151814
H	 1.2117778182	-4.1578968887	 0.1817624381	 0.077743
92.5696	108.57	134.731	165.6689	196.3214	231.8981	260.3417	384.9066	390.1286	538.6141	619.1431	677.6611	687.2301	705.1847	847.8846	988.3862	1006.3249	1013.6851	1053.7647	1061.0039	1066.9181	1123.007	1269.8407	1293.939	1388.9498	1413.2784	1426.125	1428.7431	1471.6159	1474.7195	1476.046	1481.2963	1594.6979	1631.4113	1781.4685	2896.453	3044.0877	3049.831	3100.2782	3106.5549	3137.2015	3164.5089
CC1=NC(C)=C(O1)C=O	Cc1nc(C)c(o1)C=O	
InChI=1S/C6H7NO2/c1-4-6(3-8)9-5(2)7-4/h3H,1-2H3	InChI=1S/C6H7NO2/c1-4-6(3-8)9-5(2)7-4/h3H,1-2H3
