15
gdb 132858	3.01474	1.35275	0.93919	5.0995	73.58	-0.2132	-0.0368	0.1764	1171.3661	0.11309	-461.983777	-461.976015	-461.975071	-462.016112	29.225	
C	-0.0170048768	 1.5548897264	 0.0203540852	-0.491651
C	-0.0012097805	 0.0504970302	-0.0085256204	 0.242238
C	-0.0322595756	-0.654670687	-1.1705382997	-0.051298
N	-0.0163371656	-2.0239845621	-1.1666671127	-0.373395
C	 0.0313059833	-2.8489236145	-0.0377899824	 0.339344
O	 0.041870031	-4.0637370841	-0.1255392849	-0.390145
C	 0.0633176006	-2.0621205762	 1.1898666524	 0.138689
F	 0.1090037605	-2.7634055407	 2.3167095369	-0.055773
C	 0.0482626704	-0.7070529311	 1.2059726778	-0.267815
H	 0.8793697008	 1.956350825	 0.5071505687	 0.135443
H	-0.0607359246	 1.9690178053	-0.9904312782	 0.125736
H	-0.8819164296	 1.9363856136	 0.5752638451	 0.135373
H	-0.070592768	-0.1862461926	-2.146310148	 0.129622
H	-0.0401329751	-2.531977312	-2.0401890306	 0.26465
H	 0.0745082192	-0.1983080603	 2.164941941	 0.118984
116.7439	142.7989	211.0737	278.108	315.6933	340.5479	424.746	459.3525	505.9519	582.5597	592.9741	692.9119	702.0751	777.0965	816.348	853.0936	933.3719	983.4595	1013.6514	1068.5567	1141.885	1183.8314	1235.1128	1298.1804	1360.3518	1421.2369	1431.7902	1468.3348	1480.0325	1500.3255	1610.8542	1697.0548	1787.6526	3026.979	3077.7252	3113.6583	3180.1966	3207.2053	3607.2476
CC1=CNC(=O)C(F)=C1	Cc1c[nH]c(=O)c(F)c1	
InChI=1S/C6H6FNO/c1-4-2-5(7)6(9)8-3-4/h2-3H,1H3,(H,8,9)	InChI=1S/C6H6FNO/c1-4-2-5(7)6(9)8-3-4/h2-3H,1H3,(H,8,9)
