21
gdb 104319	2.79318	1.40829	1.31596	1.2277	78.1	-0.2521	0.0862	0.3383	1108.7377	0.181789	-424.218867	-424.209889	-424.208944	-424.252298	34.385	
C	 0.0701212427	 1.324199629	-0.1545408498	-0.252601
O	-0.0327147236	-0.0838987009	-0.0264406074	-0.274056
C	-1.3277416542	-0.6109361772	 0.0840210058	 0.47112
C	-2.0587850732	-0.118443698	 1.3374594691	-0.445415
O	-2.0694101415	-0.2388038404	-1.0905386661	-0.304634
C	-2.9099371322	-1.3097947421	-1.503574611	-0.101596
C	-2.2449359793	-2.5778524124	-1.0019539038	-0.051894
C	-0.7694586329	-2.7024546806	-1.2750847131	-0.294159
C	-1.2437460047	-2.1296429525	 0.0325871965	-0.08016
H	 1.1187375237	 1.5347200111	-0.3778287883	 0.123191
H	-0.5544978255	 1.6987300614	-0.9723534866	 0.129927
H	-0.1981015976	 1.8496032776	 0.7722947883	 0.104472
H	-2.2662645701	 0.9519563925	 1.272664148	 0.124781
H	-3.0147784289	-0.639579614	 1.4419940703	 0.11929
H	-1.4585141556	-0.3119985038	 2.2313697735	 0.121281
H	-3.9179324998	-1.2099890558	-1.070594382	 0.091312
H	-3.0027098064	-1.253658841	-2.5942937041	 0.107378
H	-2.8500277966	-3.4663691495	-0.8656681492	 0.087293
H	-0.3404944513	-3.6977347433	-1.2536206517	 0.107979
H	-0.3118332278	-2.0198485085	-1.98264519	 0.129174
H	-1.083557755	-2.6646612815	 0.9602758116	 0.087318
84.9467	118.1609	176.6005	185.9138	235.7965	299.2148	329.1511	372.9869	381.3263	473.3917	529.6433	622.4447	697.2378	749.9274	814.4828	837.0764	888.3177	916.915	925.6412	985.0231	1012.5781	1035.6713	1070.3083	1078.1225	1092.8092	1111.5631	1123.4	1147.9459	1154.0683	1178.4223	1198.9666	1227.4653	1232.9116	1257.0567	1351.2486	1373.5911	1397.1876	1401.8722	1470.3711	1480.1519	1485.0099	1486.7437	1503.4559	1511.7358	1524.0234	2977.4512	3005.7653	3046.3178	3054.1322	3077.7713	3117.1465	3119.9538	3130.7079	3137.9107	3179.6307	3191.0431	3227.2738
COC1(C)OCC2CC12	CO[C@@]1(C)OC[C@H]2C[C@@H]12	
InChI=1S/C7H12O2/c1-7(8-2)6-3-5(6)4-9-7/h5-6H,3-4H2,1-2H3	InChI=1S/C7H12O2/c1-7(8-2)6-3-5(6)4-9-7/h5-6H,3-4H2,1-2H3/t5-,6-,7+/m1/s1
