17
gdb 35388	4.15009	1.30788	1.18878	4.8773	76.11	-0.2435	0.0297	0.2732	1048.4853	0.139393	-380.832207	-380.825522	-380.824578	-380.86341	26.958	
N	-0.1088582555	-1.1610494579	-0.1703998964	-0.330324
C	-0.0728346547	-0.0109873866	-0.0642821997	 0.309291
C	-0.0058682404	 1.4540753708	 0.0379074152	-0.181078
N	-0.4645083651	 1.9459715527	 1.362194798	-0.313576
C	 0.6872065534	 2.7365680251	 1.7882216342	 0.028739
C	 1.3845016319	 3.4582669992	 0.5804529429	-0.089982
C	 2.750758146	 3.2261133342	 1.2645113945	-0.247971
C	 1.9706961414	 1.9117825238	 1.5016356183	-0.045322
C	 1.4350272768	 1.9958313006	 0.0326105218	-0.016355
H	-0.5909853071	 1.8723948139	-0.790634374	 0.118967
H	-1.3002696618	 2.5125666457	 1.2670353629	 0.227621
H	 0.5554981015	 3.2446379587	 2.7435370621	 0.084398
H	 1.0372196434	 4.3421439139	 0.042177111	 0.072966
H	 3.6221092859	 3.1618983609	 0.6085979545	 0.101602
H	 2.9686344632	 3.8340671251	 2.1467403836	 0.098033
H	 2.2937296689	 1.0105743397	 2.022089582	 0.093315
H	 2.0789148323	 1.7360791601	-0.806959721	 0.089676
101.1317	160.8744	323.042	394.0435	410.7661	488.3268	570.3938	686.4417	713.741	760.1684	806.058	852.1331	882.4672	908.9447	915.4526	924.7257	966.6696	988.5073	1004.5148	1034.2585	1060.2361	1082.3306	1089.3599	1115.9727	1125.6389	1155.7838	1187.848	1221.9082	1238.1736	1256.546	1263.5633	1283.0247	1324.7016	1378.7471	1417.6939	1522.2817	2358.9088	3029.3051	3056.3481	3095.451	3117.1753	3119.0767	3126.4511	3134.6269	3532.6338
N#CC1NC2C3CC2C13	N#C[C@H]1N[C@@H]2[C@H]3C[C@@H]2[C@@H]13	
InChI=1S/C7H8N2/c8-2-5-6-3-1-4(6)7(3)9-5/h3-7,9H,1H2	InChI=1S/C7H8N2/c8-2-5-6-3-1-4(6)7(3)9-5/h3-7,9H,1H2/t3-,4+,5-,6-,7+/m1/s1
