16
gdb 74821	3.53438	1.26181	1.05289	3.2251	76.3	-0.2428	-0.0039	0.239	1137.5248	0.124957	-396.948459	-396.940365	-396.939421	-396.980997	30.506	
C	 0.0213406425	 1.4596372015	 0.0493913307	-0.485511
C	 0.0082164323	-0.0314061663	-0.0330951091	 0.352144
N	-0.0086271598	-0.7039882499	-1.1309895944	-0.274232
C	 0.0180970873	-2.0935166258	-0.8093549809	-0.048905
C	 1.200102138	-2.6474655627	-0.0606923562	-0.320499
C	 0.0165121485	-2.1791159566	 0.7574637349	 0.210865
N	 0.0622003857	-0.7878148804	 1.1333623877	-0.39002
C	-0.76807033	-3.0694211919	 1.5526320154	 0.203338
N	-1.4063359926	-3.7854716854	 2.2009966572	-0.344429
H	 0.9763189075	 1.8198318704	 0.4455750938	 0.148575
H	-0.1312770845	 1.8759652143	-0.945991847	 0.161192
H	-0.7687804973	 1.8230952092	 0.716104619	 0.134008
H	-0.5648713325	-2.7592946114	-1.4353289316	 0.121057
H	 1.3463500309	-3.719902256	-0.1166814731	 0.140902
H	 2.1046078034	-2.0522326824	 0.0074467531	 0.132569
H	-0.4039169195	-0.4829184464	 1.9744292906	 0.258944
119.9453	130.4934	156.4532	225.1233	326.6576	350.638	408.9936	444.1004	488.5314	549.2701	587.3748	651.8381	661.6542	737.5881	814.0763	880.702	962.4047	987.8322	1002.3433	1041.2463	1062.0683	1071.1742	1109.5548	1163.8898	1220.7855	1253.3592	1303.9954	1364.048	1412.6203	1442.2738	1464.7486	1481.2262	1484.0238	1672.1602	2344.4445	3041.7083	3097.4885	3135.5312	3161.5057	3180.6318	3233.8107	3621.3051
CC1=NC2CC2(N1)C#N	CC1=N[C@H]2C[C@]2(N1)C#N	
InChI=1S/C6H7N3/c1-4-8-5-2-6(5,3-7)9-4/h5H,2H2,1H3,(H,8,9)	InChI=1S/C6H7N3/c1-4-8-5-2-6(5,3-7)9-4/h5H,2H2,1H3,(H,8,9)/t5-,6-/m0/s1
