15
gdb 76290	2.42775	1.67974	1.13657	1.463	62.94	-0.2542	-0.0226	0.2316	1039.7361	0.11337	-491.119282	-491.111037	-491.110092	-491.152197	30.485	
N	 0.1577420122	 1.2949338515	 0.5301147476	-0.524751
C	-0.0569152123	-0.0279952562	-0.005622906	-0.120102
C	-1.5247300487	-0.4278042918	-0.1688517759	 0.030107
O	-2.2247678079	 0.7077614151	-0.6562159952	-0.431748
C	-1.4486396	-1.4751575003	-1.2682145792	 0.397365
N	-2.3251321201	-2.3411636102	-1.5130300587	-0.522782
O	-0.3005332203	-1.2731808028	-2.0144786486	-0.221285
C	 0.5016651641	-0.3118142041	-1.4082613211	 0.415458
O	 1.461326618	 0.1415771936	-1.9445352588	-0.312121
H	 1.1235895165	 1.5670354408	 0.3712957966	 0.247437
H	-0.4275953747	 1.9528691509	 0.0245640777	 0.253404
H	 0.4201355945	-0.7716860356	 0.6501028139	 0.130568
H	-1.9814357894	-0.8306319992	 0.7393353391	 0.112351
H	-3.1172862401	 0.4268832482	-0.8867388574	 0.305358
H	-2.0863927617	-2.89344842	-2.3389784741	 0.240742
77.9942	139.4049	240.398	246.377	264.1799	274.2106	346.3909	366.1315	484.2762	547.4388	621.2979	648.0684	704.4855	780.8974	828.6426	909.6652	914.548	925.768	959.0407	1052.8359	1076.8698	1104.8035	1175.566	1213.9676	1235.3967	1313.2525	1327.2291	1331.8526	1390.7458	1432.0737	1654.6388	1791.3721	1924.1257	3006.9103	3077.599	3474.4247	3503.3934	3583.0336	3814.2618
NC1C(O)C(=N)OC1=O	N[C@H]1[C@@H](O)[C]([NH])OC1=O	
InChI=1S/C4H6N2O3/c5-1-2(7)3(6)9-4(1)8/h1-2,6-7H,5H2	InChI=1S/C4H6N2O3/c5-1-2(7)3(6)9-4(1)8/h1-2,6-7H,5H2/t1-,2+/m0/s1
