24
gdb 118288	4.4199	0.58305	0.56849	3.6943	87.94	-0.2492	0.0336	0.2829	2056.5963	0.215922	-405.589642	-405.57826	-405.577316	-405.627711	39.981	
C	-0.1369836059	 1.5587505077	 0.0461031548	-0.378964
C	-0.1839131711	 0.0327770826	-0.0760054279	-0.177725
C	 0.7712925561	-0.5043683312	-1.1485682537	-0.157362
C	 0.8325028459	-2.0387529287	-1.2592708758	 0.012822
C	-0.5023842805	-2.6575952321	-1.6917975603	-0.384574
C	 1.9689150926	-2.4320016623	-2.2229990901	-0.167077
N	 2.224724304	-3.8628961647	-2.2785615127	-0.274598
C	 2.0417694153	-4.6186256349	-3.3945771582	 0.152964
O	 1.6469268378	-4.2097273561	-4.465934122	-0.323671
H	 0.8687002042	 1.9054058793	 0.3090102048	 0.112986
H	-0.4142377941	 2.0396286984	-0.8985773537	 0.115936
H	-0.8254827429	 1.9189196621	 0.816831036	 0.111798
H	 0.0687563195	-0.4203109152	 0.8922112627	 0.09229
H	-1.2108165424	-0.2787057072	-0.299387747	 0.102368
H	 0.4916398037	-0.0861195995	-2.1263270735	 0.097162
H	 1.7810022038	-0.1248046287	-0.9372421382	 0.087182
H	 1.0907471362	-2.434809784	-0.2640946944	 0.060166
H	-0.824903458	-2.2500045163	-2.6567591614	 0.12353
H	-0.414724943	-3.7417409731	-1.8040846687	 0.1175
H	-1.2921191726	-2.4630878868	-0.9613028306	 0.114063
H	 1.7247056527	-2.1296685026	-3.2450957164	 0.147216
H	 2.8912482766	-1.9122255079	-1.93322122	 0.101507
H	 2.5603347749	-4.3261953334	-1.448709459	 0.244016
H	 2.3019549275	-5.6811828054	-3.2134349547	 0.070465
35.8005	50.0336	70.8369	106.0911	135.4542	210.8326	221.1578	242.6636	264.4201	313.6255	334.6225	377.0222	433.2576	526.7558	543.0914	743.0322	759.9252	836.7627	871.3002	887.1192	931.3436	953.4349	998.195	1024.9458	1031.444	1046.5765	1083.7322	1148.443	1163.0491	1191.2863	1210.8119	1258.8597	1287.8843	1299.8391	1331.4494	1346.4596	1381.1214	1391.0782	1398.1568	1412.5212	1418.3245	1432.0218	1476.9386	1487.0217	1493.7941	1496.8048	1499.0362	1505.8034	1512.0338	1535.5217	1806.8237	2928.0357	2975.0552	2998.3168	3016.8835	3021.6278	3029.3636	3032.3226	3037.7812	3062.5184	3096.7519	3102.0675	3105.4181	3108.9498	3116.2157	3628.7573
CCCC(C)CNC=O	CCC[C@@H](C)CNC=O	
InChI=1S/C7H15NO/c1-3-4-7(2)5-8-6-9/h6-7H,3-5H2,1-2H3,(H,8,9)	InChI=1S/C7H15NO/c1-3-4-7(2)5-8-6-9/h6-7H,3-5H2,1-2H3,(H,8,9)/t7-/m1/s1
