19
gdb 99337	5.39841	0.62529	0.59576	5.8533	77.96	-0.2606	0.0142	0.2747	1861.0719	0.158101	-419.265127	-419.254625	-419.253681	-419.302568	35.795	
C	-0.6441223515	 1.1050341814	 0.2950666035	-0.368391
C	 0.4874131923	 0.1297427193	-0.0306483048	-0.300564
C	 0.9901084715	-0.6046391029	 1.2086780023	 0.419003
O	 0.928767949	-0.1360020282	 2.3327774914	-0.375041
N	 1.550036629	-1.8306498326	 0.9767616324	-0.319561
C	 2.1624057628	-2.5960465789	 2.044692563	-0.161132
C	 1.1058790066	-3.2346431288	 2.9781925701	-0.328701
C	 1.7230973943	-4.0579027642	 4.0128455358	 0.256335
N	 2.2375515608	-4.7106742739	 4.8157860992	-0.303324
H	-0.3411793073	 1.7735288935	 1.1031960494	 0.148047
H	-0.9049136779	 1.7025662612	-0.5824728283	 0.11257
H	-1.5411821009	 0.5726268344	 0.6247328587	 0.12331
H	 0.1815177932	-0.5905839199	-0.7988152269	 0.101624
H	 1.3448099857	 0.6751877288	-0.4473157827	 0.134168
H	 1.5685368983	-2.198043508	 0.0404914442	 0.251128
H	 2.7900879366	-3.3719435902	 1.6007691441	 0.126507
H	 2.8005356945	-1.9366990498	 2.6392229553	 0.153447
H	 0.5269915524	-2.4319633697	 3.4437052242	 0.18533
H	 0.4140193305	-3.8526875217	 2.3958325091	 0.145244
29.8908	58.7092	66.2269	85.3066	169.5546	201.3188	222.675	288.049	340.4581	389.0706	402.9084	455.9325	545.5261	621.7053	675.0158	761.8519	811.2878	881.9308	957.6164	995.9096	1019.781	1055.595	1088.1223	1098.3343	1123.7676	1218.5517	1247.4158	1286.6914	1296.046	1339.8556	1377.4833	1405.5633	1409.8281	1463.8962	1469.1863	1479.0639	1493.4984	1504.1463	1528.8597	1770.5797	2362.6748	3023.251	3050.153	3053.6414	3059.3286	3069.7539	3103.4616	3117.2419	3126.6707	3140.4168	3654.7063
CCC(=O)NCCC#N	CCC(=O)NCCC#N	
InChI=1S/C6H10N2O/c1-2-6(9)8-5-3-4-7/h2-3,5H2,1H3,(H,8,9)	InChI=1S/C6H10N2O/c1-2-6(9)8-5-3-4-7/h2-3,5H2,1H3,(H,8,9)
