18
gdb 38566	2.69401	2.39472	1.78913	0.4869	72.38	-0.2283	0.0728	0.3011	827.2459	0.152253	-401.929944	-401.924103	-401.923159	-401.959903	25.215	
C	-0.0548340729	 1.4971372428	-0.2131123454	-0.252421
C	 1.3512159295	 1.9868931277	 0.0922668403	-0.035517
C	 2.11090643	 1.6511835033	 1.3272956972	-0.035517
C	 1.5834383564	 0.7731798266	 2.4502299217	-0.252421
C	 1.0421704446	-0.4814433818	 1.7552807226	 0.102751
O	-0.3512693357	-0.356925237	 1.3991859975	-0.303502
C	-0.0142512055	-0.0146076691	 0.0378558302	 0.102751
C	 1.486354174	-0.3508080099	 0.2704907289	-0.076837
N	 2.3241928007	 0.8527648515	 0.0822787254	-0.132761
H	-0.8347111194	 1.963970935	 0.3956321938	 0.120787
H	-0.2779647358	 1.7077488001	-1.2648335435	 0.108412
H	 1.6835726419	 2.8690675241	-0.4500467867	 0.090021
H	 2.9326197249	 2.3171094739	 1.5805277903	 0.090021
H	 2.4160060959	 0.5172764413	 3.114764342	 0.108411
H	 0.8017532878	 1.2408111705	 3.0560362445	 0.120787
H	 1.2287006615	-1.4097961488	 2.3017429886	 0.080842
H	-0.6016072874	-0.6009776472	-0.673787677	 0.080842
H	 1.9118041595	-1.219784953	-0.2274195905	 0.08335
160.1058	358.6571	415.5733	425.6744	620.9685	624.8305	707.3042	715.4631	719.6404	814.8747	837.3309	842.4535	858.1764	901.6032	924.215	942.5823	998.8865	1000.9914	1032.6786	1043.0781	1052.416	1060.0299	1098.8866	1144.7774	1178.1415	1186.4725	1206.0148	1239.1695	1244.0425	1270.3687	1293.924	1305.5639	1329.8193	1336.3524	1362.2162	1380.2883	1425.3923	1468.8985	1476.1028	3044.5548	3045.2989	3071.996	3075.3659	3095.4279	3097.4303	3126.3147	3131.98	3138.7913
C1C2C3CC4OC1C4N23	C1[C@H]2[C@H]3C[C@H]4O[C@@H]1[C@H]4N23	
InChI=1S/C7H9NO/c1-3-4-2-6-7(8(3)4)5(1)9-6/h3-7H,1-2H2	InChI=1S/C7H9NO/c1-3-4-2-6-7(8(3)4)5(1)9-6/h3-7H,1-2H2/t3-,4+,5-,6+,7+,8?
