19
gdb 112541	2.97724	1.09936	0.99087	2.7026	72.22	-0.239	-0.0375	0.2016	1271.7464	0.156714	-460.165179	-460.15543	-460.154486	-460.199918	35.78	
C	 0.1823244374	 1.5780332637	-0.0006714409	-0.460855
C	 0.065101341	 0.0660099316	-0.0037114746	 0.300744
O	-1.2537223059	-0.3813620742	 0.3018154481	-0.466972
C	 0.5613414233	-0.7485515765	-1.2375426006	-0.297611
C	 1.325449616	-1.7462929189	-0.3070969492	-0.121529
C	 2.8049815876	-2.0624531423	-0.5348460052	-0.079741
O	 3.3559899989	-2.725483938	 0.5837578846	-0.421424
C	 1.0852883457	-0.7548256117	 0.8319287925	 0.357218
O	 1.6044295048	-0.5986593708	 1.9061949878	-0.331432
H	 1.1884136528	 1.8994421842	-0.2868639408	 0.124099
H	-0.5382200909	 2.0126503328	-0.7002403838	 0.132341
H	-0.0195514554	 1.9759214839	 1.0002333515	 0.126067
H	-1.4751813859	-0.0613801507	 1.1844410689	 0.288758
H	-0.2438747949	-1.1696291013	-1.838989865	 0.124426
H	 1.2337464774	-0.1668950433	-1.8733993987	 0.110796
H	 0.7704890172	-2.67588956	-0.1459539433	 0.121974
H	 2.9311023485	-2.7280526947	-1.3954038706	 0.113293
H	 3.3469131902	-1.1286958081	-0.7635894593	 0.083239
H	 3.1783963421	-2.1698711056	 1.3541849786	 0.296609
49.0586	119.8333	159.5301	172.815	206.3341	256.2949	271.4626	336.12	343.8927	378.7158	434.549	495.0871	536.5511	628.6681	721.1414	733.9095	814.6427	896.6044	934.514	945.5859	975.9132	1000.6359	1076.2124	1092.5915	1117.4934	1133.9924	1167.3454	1192.1188	1224.4988	1253.615	1276.38	1315.3967	1364.1374	1382.6224	1405.6349	1443.9494	1469.3191	1485.2998	1487.2229	1513.909	1857.4498	2956.1587	3032.4048	3062.7253	3073.3097	3075.2245	3101.9772	3115.8969	3146.1945	3762.5142	3792.0744
CC1(O)CC(CO)C1=O	C[C@@]1(O)C[C@@H](CO)C1=O	
InChI=1S/C6H10O3/c1-6(9)2-4(3-7)5(6)8/h4,7,9H,2-3H2,1H3	InChI=1S/C6H10O3/c1-6(9)2-4(3-7)5(6)8/h4,7,9H,2-3H2,1H3/t4-,6+/m0/s1
