17
gdb 70805	2.95207	1.54601	1.21925	4.813	72.92	-0.2339	0.0075	0.2414	1042.7864	0.134566	-421.798175	-421.79016	-421.789216	-421.830198	31.452	
C	-0.0082412893	 1.4591425444	 0.0548136887	-0.499768
C	-0.0146352579	-0.0411198713	 0.0070569473	 0.337053
C	-1.2433338021	-0.9387550874	-0.2130528364	-0.357508
C	-0.3496332646	-2.1161333868	 0.2555081194	 0.267821
O	-0.8397202912	-3.280702413	 0.784046359	-0.46117
C	 0.6324695629	-1.0253646834	 0.9245104047	-0.217828
C	 1.2093313833	-0.8274593065	-0.4955716833	-0.24178
C	 0.7336559339	-2.2046647765	-0.8435604927	 0.416815
O	 1.158796006	-3.1022740109	-1.5121576995	-0.338525
H	 0.9714764471	 1.8419670061	 0.3575423663	 0.126504
H	-0.2474528869	 1.886442904	-0.9250482517	 0.130386
H	-0.7490181732	 1.8279598201	 0.7727606014	 0.123927
H	-2.0205918913	-0.7063089574	 0.5253679337	 0.093929
H	-1.6865068731	-1.0083835904	-1.2131952069	 0.108467
H	-1.6103147189	-3.0813159149	 1.3262200139	 0.289071
H	 1.1587211798	-0.9704121255	 1.8654690258	 0.113541
H	 2.1335170456	-0.3371888605	-0.7683749197	 0.109066
141.3588	208.1054	214.9954	254.752	258.4846	300.0233	397.1064	428.3165	498.4013	532.8908	642.7247	712.3519	718.654	783.3253	812.6551	825.6297	853.4027	903.8586	949.8868	998.9974	1008.4637	1019.2493	1047.2936	1094.0193	1129.0572	1148.2671	1183.6179	1211.3955	1272.9442	1306.8952	1404.2923	1415.4703	1427.1316	1487.0297	1495.7787	1503.0022	1886.1088	3021.4273	3029.7106	3078.0578	3092.9519	3103.7628	3219.8326	3238.3982	3807.6223
CC12CC3(O)C1C2C3=O	C[C@]12C[C@]3(O)[C@H]1[C@H]2C3=O	
InChI=1S/C7H8O2/c1-6-2-7(9)4(6)3(6)5(7)8/h3-4,9H,2H2,1H3	InChI=1S/C7H8O2/c1-6-2-7(9)4(6)3(6)5(7)8/h3-4,9H,2H2,1H3/t3-,4-,6+,7-/m0/s1
