17
gdb 133836	3.94557	1.83165	1.72017	0.9626	81.91	-0.1958	-0.0449	0.1509	852.4265	0.136049	-347.361488	-347.355067	-347.354123	-347.391701	27.194	
C	 0.5086600146	-2.1918297589	 0.4846218698	-0.520006
C	 1.7631842805	-2.9425856713	 0.1730423445	 0.302459
C	 2.1000310586	-4.4398128463	 0.1154108468	-0.132361
C	 2.2727194246	-3.517722853	-1.098716036	-0.150344
C	 3.7513241171	-3.1449764832	-1.0820835082	 0.003447
C	 4.6180266797	-3.9462054224	-0.1479644748	-0.093455
C	 3.4706665059	-4.2610057279	 0.8400755653	-0.081203
C	 3.2222971202	-2.7545718761	 0.7286248998	 0.014995
C	 4.430753832	-2.3861646971	-0.0424531438	-0.143114
H	-0.3512002491	-2.6529628987	-0.0128553316	 0.123386
H	 0.5742772536	-1.1534594766	 0.1409143431	 0.128274
H	 0.3083634358	-2.1770355978	 1.561541886	 0.124651
H	 1.3956891678	-5.2641943933	 0.1522898106	 0.083595
H	 1.713235559	-3.6638341664	-2.0144611123	 0.08972
H	 5.5117796594	-4.4947629802	-0.4356089732	 0.080259
H	 3.6048637711	-4.7259317307	 1.8199078108	 0.067001
H	 5.0426618492	-1.4931567701	-0.0801584168	 0.102698
201.7754	221.9865	254.9376	495.3238	508.4889	548.6389	556.6823	618.4585	708.8065	766.6896	783.3791	811.9109	848.0415	877.9965	885.9194	898.0332	949.2402	967.3762	972.4323	1003.821	1023.9837	1038.1591	1050.9957	1102.0458	1108.8927	1143.6626	1163.5201	1180.3048	1185.6006	1203.3794	1244.9875	1256.6403	1372.9084	1405.6511	1437.7456	1482.4701	1495.482	3026.0508	3072.985	3089.5211	3097.3138	3130.2392	3168.6277	3173.2941	3184.416
CC12C3C1C1=CC3C2=C1	C[C@@]12[C@H]3[C@@H]1[C@]14[C@@H]5[C@H]3[C@]21[C@H]45	
InChI=1S/C9H8/c1-9-6-3-4-2-5(6)8(9)7(4)9/h2-3,5,7-8H,1H3	InChI=1S/C9H8/c1-7-3-2-4-6-8(4,5(3)7)9(2,6)7/h2-6H,1H3/t2-,3+,4+,5-,6-,7+,8-,9-/m0/s1
