19
gdb 97689	2.55877	0.83748	0.70633	2.3066	82.38	-0.2479	0.0254	0.2732	1642.731	0.157352	-422.971555	-422.961292	-422.960348	-423.008347	36.315	
O	 0.1294492385	 1.329585191	-0.3687613096	-0.401727
C	-0.0075936224	 0.0825124487	 0.3001891987	-0.197611
C	-1.3582228157	-0.4734581581	 0.2352330352	 0.072302
C	-2.4696729389	-0.9317636147	 0.1207016968	-0.028111
C	-3.8247975945	-1.4086745788	 0.0489684665	 0.146055
C	-4.782305673	-0.6791081635	 0.985615139	-0.123642
O	-4.8714937348	 0.7036140627	 0.7094934598	-0.415504
C	-4.3561887597	-1.8796957789	-1.2956688299	-0.283251
C	-4.0734862517	-2.8854073667	-0.2189877152	-0.297498
H	-0.2150039201	 1.2159863597	-1.2608188871	 0.286903
H	 0.7073542016	-0.6614208089	-0.0869015534	 0.118895
H	 0.2737057603	 0.2742799097	 1.3417231243	 0.140288
H	-5.7920916879	-1.0837258843	 0.8598947765	 0.102705
H	-4.475619807	-0.8622811128	 2.0273404513	 0.093864
H	-3.9780330924	 1.062272534	 0.7691931737	 0.288576
H	-5.38823033	-1.635295136	-1.5217144566	 0.127425
H	-3.6834005007	-1.8347733193	-2.1435468072	 0.123366
H	-3.2065875272	-3.5263284877	-0.3249903204	 0.125742
H	-4.9116904843	-3.341268846	 0.2976613475	 0.121224
26.6881	67.5739	97.7073	108.7959	206.022	222.7242	272.2292	304.0367	337.0878	382.9598	419.2723	502.2035	554.6818	560.1934	672.2814	782.4325	835.1586	911.3308	931.9461	949.4539	982.8713	1025.619	1038.5941	1058.6434	1078.8173	1085.0717	1090.4833	1191.4492	1204.096	1214.6732	1284.9606	1355.7224	1362.7818	1378.9506	1417.5949	1428.121	1465.2216	1490.0318	1492.0381	1505.749	2341.5155	2974.991	2982.2776	3061.1451	3072.1407	3137.1787	3141.9626	3222.2274	3236.5453	3788.584	3814.5428
OCC#CC1(CO)CC1	OCC#CC1(CO)CC1	
InChI=1S/C7H10O2/c8-5-1-2-7(6-9)3-4-7/h8-9H,3-6H2	InChI=1S/C7H10O2/c8-5-1-2-7(6-9)3-4-7/h8-9H,3-6H2
