21
gdb 88624	3.6806	1.1184	1.04785	2.7707	82.47	-0.223	0.0651	0.2881	1251.3544	0.183848	-383.190669	-383.182185	-383.181241	-383.224587	32.663	
C	 0.0154176576	 1.5732575789	-0.0710279521	-0.399569
C	-0.0073807363	 0.0699252276	 0.0593604883	-0.004614
N	 1.2488244843	-0.6310583197	-0.2311224631	-0.321155
C	 0.7110962953	-0.6564772074	 1.1484264112	-0.074279
C	 1.4421979811	 0.080759954	 2.2381516138	 0.010919
C	 2.1457281892	-0.57516787	 3.3624295173	-0.054912
C	 2.8277947542	-1.8747611957	 2.9403035346	-0.255316
C	 3.5478947952	-1.0304179324	 1.8592723634	-0.144322
N	 2.9117940204	 0.2519702703	 2.3402749844	-0.155692
H	 0.9774818973	 1.9751013381	 0.255735613	 0.146145
H	-0.1355180436	 1.8689883621	-1.1145259779	 0.119246
H	-0.77960369	 2.0325009662	 0.5270858828	 0.114164
H	-0.9246632015	-0.4026622004	-0.2905095735	 0.080861
H	 1.0667307233	-1.5212923496	-0.6868595671	 0.230236
H	 0.2519170269	-1.5912614548	 1.4673744966	 0.086041
H	 0.9635969157	 1.017054809	 2.5187687431	 0.096784
H	 2.0193604736	-0.241320273	 4.3884202661	 0.087852
H	 3.5091892573	-2.2649145055	 3.6983112191	 0.108407
H	 2.1724719814	-2.6884446049	 2.6118357488	 0.095168
H	 4.626837262	-0.9661812849	 2.0124236575	 0.106832
H	 3.3420166265	-1.2505923081	 0.8115636137	 0.127204
27.1956	134.5995	180.8659	204.9596	232.7928	319.3535	384.513	454.2486	497.3958	600.5021	743.1886	773.5279	784.134	785.339	808.7477	855.4473	884.1598	942.3597	966.1166	977.6209	1001.8026	1011.2673	1027.0467	1061.0949	1075.0164	1092.1877	1129.7239	1154.9006	1172.4899	1205.2799	1220.8746	1237.687	1261.1552	1264.8151	1271.3112	1295.1721	1355.3827	1381.6097	1409.1405	1436.3223	1466.468	1487.8153	1492.5138	1500.5863	1509.9549	3034.7454	3043.6503	3079.3926	3095.5965	3100.5742	3109.9317	3111.1241	3121.8075	3131.7565	3142.3804	3149.7351	3500.7039
CC1NC1C1C2CCN12	C[C@H]1N[C@H]1[C@H]1[C@H]2CCN12	
InChI=1S/C7H12N2/c1-4-6(8-4)7-5-2-3-9(5)7/h4-8H,2-3H2,1H3	InChI=1S/C7H12N2/c1-4-6(8-4)7-5-2-3-9(5)7/h4-8H,2-3H2,1H3/t4-,5-,6-,7-,9?/m1/s1
