14
gdb 130322	2.51277	1.83809	1.06672	2.9693	71.81	-0.2207	-0.0652	0.1555	1037.0563	0.102138	-466.125791	-466.118059	-466.117115	-466.157704	30.191	
N	 0.0150860564	 1.3162696401	-0.2633514061	-0.570161
C	 0.0324684786	-0.0557612263	-0.0379514286	 0.357129
N	-1.1041480295	-0.6758777143	 0.0216961657	-0.155578
O	-1.1094533211	-2.0379745714	 0.1393335941	-0.222701
N	 0.0410393122	-2.7823840521	 0.3340132865	-0.191276
C	 1.1794767798	-2.1572037644	 0.3435256236	 0.425535
N	 2.3263520437	-2.8471285183	 0.6042154188	-0.553382
C	 1.319749995	-0.7269681327	 0.0684019325	 0.167455
N	 2.4934184195	-0.2206454498	-0.0622934012	-0.550644
H	 0.6212863838	 1.8380561296	 0.3581679087	 0.256815
H	-0.9269274857	 1.6880522863	-0.2526541493	 0.265176
H	 2.2865107638	-3.8503054686	 0.5224558679	 0.265257
H	 3.1692217029	-2.3827175708	 0.2992790037	 0.279428
H	 2.4468436207	 0.7637869927	-0.3272552664	 0.226948
94.9507	241.3234	308.789	316.7252	334.1703	364.4933	433.4079	475.9202	485.1395	498.3211	547.6874	566.9761	572.7011	697.6416	747.5815	812.1437	886.9089	894.7813	911.4612	954.4015	1057.7734	1155.4631	1192.2735	1283.5948	1424.4332	1505.3874	1596.8139	1605.1226	1637.4247	1640.0401	1677.7345	3475.8711	3528.4834	3575.8017	3627.6957	3703.9386
NC1=NON=C(N)C1=N	NC1=NON=C(N)[C]1[NH]	
InChI=1S/C3H5N5O/c4-1-2(5)7-9-8-3(1)6/h4H,(H2,5,7)(H2,6,8)	InChI=1S/C3H5N5O/c4-1-2(5)7-9-8-3(1)6/h4H,(H2,5,7)(H2,6,8)
