19
gdb 14232	3.70099	1.87627	1.78309	1.4789	74.87	-0.2297	0.0959	0.3255	866.0634	0.165838	-327.871509	-327.864138	-327.863194	-327.902561	29.252	
C	-0.0606478313	 1.590663882	-0.0544368515	-0.41953
C	 0.087261922	 0.0797866994	-0.075840372	 0.098578
C	 0.7508357432	-0.6851369387	-1.2429638369	-0.102671
C	 2.1713469074	-0.0697263207	-1.3255039169	-0.294177
C	 2.3835239094	-0.6338992964	 0.0825249366	 0.35114
C	 3.6539850463	-0.7060078609	 0.8682160547	-0.498172
C	 1.3061384613	-1.6356862065	-0.1138839069	-0.097856
N	 1.0908207909	-0.5303460438	 0.8657934947	-0.195819
H	 0.8785688446	 2.1070600768	-0.2669037474	 0.119399
H	-0.8035951155	 1.9149411271	-0.7917138955	 0.114312
H	-0.4017548717	 1.9154449295	 0.9340183833	 0.126733
H	-0.8740262439	-0.3861870756	 0.1697347023	 0.076858
H	 0.2066465301	-0.9637830385	-2.1441535775	 0.06692
H	 2.7952213663	-0.6122991499	-2.0416884218	 0.101647
H	 2.2701653904	 1.0064196389	-1.5021515791	 0.091021
H	 3.9982390527	 0.2959646474	 1.1489564558	 0.121947
H	 3.5035657882	-1.2775241625	 1.7879756049	 0.132652
H	 4.4488224042	-1.1849213271	 0.2860411337	 0.115398
H	 1.2060538856	-2.6877803205	 0.1207746594	 0.091621
161.2301	187.754	193.4928	289.1038	309.7131	334.2394	480.4956	562.6521	600.8929	690.1395	715.6484	792.794	823.1634	882.8156	891.7868	926.1842	939.861	985.7007	1002.8173	1027.0051	1048.0102	1084.9727	1108.41	1134.8698	1144.1773	1166.9052	1168.5191	1213.9349	1248.106	1278.4637	1311.7634	1389.1221	1394.5332	1408.2498	1433.2014	1484.9119	1485.3871	1491.2533	1494.504	1514.2835	3029.7602	3034.6111	3038.5903	3045.2888	3089.3088	3095.6512	3101.0507	3116.803	3122.1962	3124.7868	3195.1937
CC1C2CC3(C)C2N13	C[C@H]1[C@H]2C[C@]3(C)[C@H]2N13	
InChI=1S/C7H11N/c1-4-5-3-7(2)6(5)8(4)7/h4-6H,3H2,1-2H3	InChI=1S/C7H11N/c1-4-5-3-7(2)6(5)8(4)7/h4-6H,3H2,1-2H3/t4-,5+,6-,7+,8?/m0/s1
