13
gdb 131299	4.02746	1.02259	0.91767	3.2321	65.23	-0.2519	-0.0249	0.227	1216.4507	0.090788	-448.93225	-448.924587	-448.923643	-448.965664	27.145	
O	 0.2040699487	 1.2719648861	 0.0214030727	-0.416658
C	 0.1072625902	-0.0650405562	 0.0411102146	 0.380101
N	 0.1343140678	-0.8190360935	-1.0506441798	-0.331557
N	-0.0115980675	-2.05893396	-0.558564472	 0.143537
C	 0.0620373059	-3.2282635544	-1.4036436496	-0.268666
C	 1.4398755854	-3.5871137826	-1.772112979	 0.282151
N	 2.5150771576	-3.8811525423	-2.0719833145	-0.289536
N	-0.1104049321	-2.1494261491	 0.7606423969	-0.208562
C	-0.0472016011	-0.8863800814	 1.1752810126	-0.120665
H	 0.3208441117	 1.5494183673	-0.895947917	 0.314809
H	-0.3958839583	-4.052995844	-0.8535328053	 0.190431
H	-0.5160339812	-3.0426165855	-2.3128834259	 0.183068
H	-0.1192078271	-0.6223870546	 2.2168428064	 0.141547
41.6775	72.	231.372	289.9694	348.4178	366.6705	393.5944	462.3945	493.605	652.2849	700.952	725.6153	809.4537	851.8857	930.0595	962.1148	1003.9826	1062.1771	1174.8724	1199.6211	1263.1556	1363.6387	1377.5341	1392.1306	1429.6556	1445.0214	1527.1356	1608.3516	2371.6476	3078.4063	3135.4084	3286.7704	3799.6103
OC1=NN(CC#N)N=C1	Oc1nn(CC#N)nc1	
InChI=1S/C4H4N4O/c5-1-2-8-6-3-4(9)7-8/h3H,2H2,(H,7,9)	InChI=1S/C4H4N4O/c5-1-2-8-6-3-4(9)7-8/h3H,2H2,(H,7,9)
