17
gdb 48599	2.59497	1.52154	1.24932	4.1813	74.44	-0.2462	-0.0399	0.2063	1054.1647	0.133956	-421.733216	-421.725312	-421.724368	-421.765853	30.142	
O	 0.0395845959	-0.0348531785	-0.0430789329	-0.234214
C	 0.0468452801	 1.1659328796	 0.0215868376	 0.036159
C	 1.2743185645	 2.0102537343	 0.0108211224	 0.2367
C	 1.7973904841	 2.9887861436	 1.1113074272	-0.264806
C	 2.8577740374	 2.8597899466	-0.0088955473	-0.045168
O	 2.6097990667	 1.3926625303	-0.0349573197	-0.326149
C	 1.7512039716	 3.0331391776	-1.0539171273	 0.403744
C	 1.7435496258	 3.0132879184	-2.5346492697	-0.354309
C	 1.1374749583	 4.1880005202	-1.7648549475	-0.362033
H	-0.8933724071	 1.7605113299	 0.0939989101	 0.079567
H	 1.2872750802	 3.9464952543	 1.2320705907	 0.10806
H	 2.0578428114	 2.5028760697	 2.0519890948	 0.119578
H	 3.8954714063	 3.1913185675	-0.0265774551	 0.10508
H	 2.6804377803	 3.1768806849	-3.0570014547	 0.125514
H	 1.0645008544	 2.3364204058	-3.0424474138	 0.128822
H	 0.0569692835	 4.2907112452	-1.7670619194	 0.121183
H	 1.6718702066	 5.1328171806	-1.7741157852	 0.122271
73.0255	155.8982	192.256	214.9645	264.8337	333.1692	468.7454	480.8522	579.7684	679.491	695.0399	747.602	778.0847	789.6775	907.903	916.4247	932.6696	969.3279	978.0076	1000.3511	1041.138	1049.3808	1068.281	1082.2011	1103.7306	1162.4234	1177.3026	1201.3181	1214.9922	1218.2151	1293.6654	1407.2609	1425.512	1461.7091	1478.0833	1521.3081	1829.3935	2863.6417	3072.9291	3125.3076	3128.8407	3132.3943	3159.9226	3203.8993	3218.8781
O=CC12CC(O1)C21CC1	O=C[C@@]12C[C@@H](O1)C12CC1	
InChI=1S/C7H8O2/c8-4-7-3-5(9-7)6(7)1-2-6/h4-5H,1-3H2	InChI=1S/C7H8O2/c8-4-7-3-5(9-7)6(7)1-2-6/h4-5H,1-3H2/t5-,7-/m1/s1
