17
gdb 19139	3.33985	1.66617	1.33578	3.9681	69.17	-0.2407	-0.0185	0.2221	956.9032	0.141787	-363.829529	-363.821675	-363.82073	-363.862031	28.927	
O	-0.1449266772	 0.2095181283	 0.7374323519	-0.283215
C	 0.1209771458	 1.002952317	-0.1373538297	 0.067646
C	 1.29300714	 1.9245744939	-0.0889306604	 0.287501
C	 1.7977022061	 2.2773518706	 1.304314993	-0.291182
C	 2.5652943202	 1.2982019678	 0.4874943764	-0.289096
C	 1.4337970135	 2.9477079672	-1.1775325993	-0.104907
N	 0.8920385126	 2.6111449849	-2.502220811	-0.318537
C	 0.2893284737	 3.7142190427	-1.7357447673	-0.248012
H	-0.4944841572	 1.0723208736	-1.0552532973	 0.104788
H	 2.1996075052	 3.2757209425	 1.4396448256	 0.116816
H	 1.2058647612	 1.8920297249	 2.1264996517	 0.141829
H	 2.4960011397	 0.2508518781	 0.7572777566	 0.141155
H	 3.5050364001	 1.6061915286	 0.0416021957	 0.11734
H	 2.3852670683	 3.4779184927	-1.1491492794	 0.081963
H	 1.4890320506	 2.9681920056	-3.2421858982	 0.236876
H	-0.7192965712	 3.5224381201	-1.3780698052	 0.122028
H	 0.4642230184	 4.7373903615	-2.0577096028	 0.117006
74.3201	110.7321	189.6536	221.185	268.9633	307.8994	388.353	495.4148	596.7324	729.4307	793.5118	821.7994	857.8182	865.7883	896.9561	949.0564	970.0763	990.773	1011.6626	1056.7629	1064.7703	1097.7576	1101.0775	1120.9889	1171.7229	1204.8414	1247.2007	1277.541	1286.6159	1336.1586	1434.8933	1450.0247	1453.0575	1483.5166	1515.6676	1797.8527	2947.0389	3103.9667	3106.5912	3135.1072	3136.7082	3189.1056	3224.0053	3237.8445	3516.4839
O=CC1(CC1)C1NC1	O=CC1(CC1)[C@H]1NC1	
InChI=1S/C6H9NO/c8-4-6(1-2-6)5-3-7-5/h4-5,7H,1-3H2	InChI=1S/C6H9NO/c8-4-6(1-2-6)5-3-7-5/h4-5,7H,1-3H2/t5-/m0/s1
