23
gdb 86261	1.71875	1.61024	1.11877	0.6837	92.1	-0.2484	0.0533	0.3018	1267.2317	0.203364	-351.126221	-351.115901	-351.114957	-351.160534	39.837	
C	-1.3264131361	 0.5728060638	-1.2975322122	-0.42154
C	-0.0832642832	-0.2367450752	-0.9663853463	 0.024275
C	 1.3201808729	 0.3076298815	-1.3359412649	-0.270566
C	 1.8794524712	-0.3347716236	-0.0409119841	 0.024281
C	 2.9871935808	 0.3573911737	 0.7364156731	-0.421536
C	 0.4055753275	-0.3759154463	 0.531308226	 0.102526
C	 0.0523567729	 0.8355377886	 1.4087803499	-0.446945
C	 0.0278877484	-1.6087627522	 1.2017366929	 0.266331
C	-0.2804287729	-2.6367741811	 1.7469437933	-0.460601
H	-1.2585401012	 1.6000764377	-0.9262924002	 0.113206
H	-1.468814824	 0.6244411827	-2.3827577015	 0.11548
H	-2.2252831429	 0.1170772119	-0.8678365306	 0.121477
H	-0.1917935473	-1.2483643537	-1.3698086473	 0.081711
H	 1.7527840399	-0.0115887186	-2.2872393176	 0.094891
H	 1.3544430006	 1.4019162509	-1.2926790452	 0.09479
H	 2.1762323303	-1.3666420184	-0.2531980658	 0.081708
H	 2.7419607529	 1.4001610585	 0.9604608821	 0.113207
H	 3.1883949445	-0.1534888817	 1.6844695072	 0.121475
H	 3.9169549876	 0.3558814152	 0.1565853543	 0.11548
H	 0.3270316375	 1.7779346065	 0.9264191376	 0.114052
H	-1.0213168077	 0.8602198957	 1.6144807428	 0.124705
H	 0.5752654105	 0.7803379344	 2.3675449731	 0.124709
H	-0.5521119223	-3.5438014002	 2.2271878033	 0.186883
105.5388	117.1073	163.9153	209.4739	215.4883	245.7444	261.2915	290.1245	315.4115	342.0172	451.031	456.3692	528.9027	537.0676	552.8956	614.9249	616.9296	668.1425	811.9734	865.5584	880.387	910.4289	945.1097	967.3552	988.9801	1048.4032	1075.77	1141.5609	1145.6832	1162.4668	1177.5367	1200.9156	1225.7876	1256.3899	1268.2207	1321.2936	1362.7122	1392.4008	1408.2137	1414.7772	1416.3739	1485.0434	1488.624	1495.1203	1495.3136	1498.6475	1505.1798	1508.9294	2223.9317	3028.9682	3029.023	3040.9035	3046.8303	3052.9531	3056.568	3091.7716	3091.9976	3099.1092	3103.8046	3106.4642	3117.0546	3117.3495	3502.0898
CC1CC(C)C1(C)C#C	C[C@H]1C[C@@H](C)[C@]1(C)C#C	
InChI=1S/C9H14/c1-5-9(4)7(2)6-8(9)3/h1,7-8H,6H2,2-4H3	InChI=1S/C9H14/c1-5-9(4)7(2)6-8(9)3/h1,7-8H,6H2,2-4H3/t7-,8+,9+
