16
gdb 15704	3.1328	1.79691	1.25803	3.0457	60.6	-0.2482	-0.0333	0.215	946.4297	0.130431	-420.891389	-420.883701	-420.882757	-420.923913	27.903	
O	-0.0626244214	 1.4086386986	-0.1536445937	-0.420465
C	 0.0061203538	 0.0011075926	-0.1267989676	-0.05843
C	-1.3635761165	-0.5968268729	 0.2234272434	-0.024482
O	-2.3561026901	-0.1363060684	-0.6917915528	-0.277389
C	-2.5688721495	-1.1428642561	-1.6937719294	-0.096955
C	-2.3785328124	-2.479912568	-0.9757834954	-0.334441
C	-1.3764140326	-2.123534313	 0.1232691431	 0.376642
O	-0.7020749849	-2.8754681484	 0.775109444	-0.305986
H	-0.8384283222	 1.6261164289	-0.6855082342	 0.289585
H	 0.3538534822	-0.4059489885	-1.0913128947	 0.084658
H	 0.7339176566	-0.288776232	 0.6363831054	 0.131202
H	-1.6510395028	-0.2668630404	 1.2279232596	 0.119294
H	-3.5718969436	-0.9905080912	-2.0970050819	 0.124186
H	-1.8463724279	-1.0318281875	-2.5152328699	 0.107702
H	-3.3067529618	-2.8069543659	-0.4924918574	 0.145635
H	-2.0129907968	-3.2969630477	-1.6000780885	 0.139244
73.9426	118.8688	164.1774	183.2018	316.3424	419.5397	458.8487	513.5295	545.1979	639.6983	653.2219	818.0302	831.3449	877.4014	943.3227	997.1534	1016.717	1075.4198	1092.0265	1107.0489	1156.2462	1205.3868	1219.0274	1237.6486	1257.8363	1284.4268	1335.6226	1383.188	1392.0131	1425.891	1447.6445	1500.9414	1523.7612	1854.6251	2961.6996	3002.1863	3050.8383	3056.9609	3095.7254	3107.91	3127.4496	3780.6301
OCC1OCCC1=O	OC[C@H]1OCCC1=O	
InChI=1S/C5H8O3/c6-3-5-4(7)1-2-8-5/h5-6H,1-3H2	InChI=1S/C5H8O3/c6-3-5-4(7)1-2-8-5/h5-6H,1-3H2/t5-/m1/s1
