20
gdb 81173	2.5723	1.47778	1.17433	3.3146	80.46	-0.2469	0.0263	0.2732	1124.4968	0.171347	-403.129313	-403.120621	-403.119677	-403.163049	32.971	
C	-0.1776832862	 1.5662001669	-0.2282811786	-0.434443
C	 0.0508788461	 0.0678742774	-0.1236945399	 0.029978
C	 1.3347768163	-0.6221074322	-0.6918475608	-0.056567
C	 2.1395153144	-0.0594825125	 0.5162495402	-0.256297
C	 0.7943462309	-0.589078863	 1.0960414837	 0.423257
C	 0.9865794382	-1.8439540344	 0.2101780013	-0.291728
N	 0.3926871896	-0.6250244521	 2.4695122373	-0.434533
C	 0.3945875514	 0.4619452825	 3.2885610199	 0.131796
O	 0.7091943317	 1.5852783168	 2.9580438585	-0.322551
H	-0.4549747741	 1.8327487398	-1.2547190003	 0.10627
H	-0.9994699364	 1.8704194346	 0.4271058169	 0.125748
H	 0.6923042369	 2.1594641722	 0.0560055788	 0.135082
H	-0.8684091349	-0.4696906323	-0.3884271371	 0.057873
H	 1.6514643616	-0.6560179532	-1.7325556571	 0.077584
H	 3.032909184	-0.6214391338	 0.8023464939	 0.088419
H	 2.3145897968	 1.0127993843	 0.5652294191	 0.118157
H	 0.0843972248	-2.4064109817	-0.0494610387	 0.090064
H	 1.8162673925	-2.5039403883	 0.4780667437	 0.091982
H	 0.1034861229	-1.5092856408	 2.8577164851	 0.246622
H	 0.0714012535	 0.20184655	 4.3171381441	 0.073289
43.5881	138.3448	156.3518	186.6372	240.7477	323.0506	354.6293	398.6022	509.8703	551.3816	583.3631	592.0982	750.1033	782.8651	807.3333	862.4809	914.0988	950.1051	979.0381	1000.7102	1009.7719	1030.9423	1047.594	1102.3367	1119.8643	1139.7444	1142.6535	1160.8397	1171.9002	1181.6209	1219.7373	1239.1845	1242.6478	1299.2914	1408.8236	1425.518	1434.0922	1484.527	1489.283	1504.9358	1511.1935	1547.8184	1803.217	2925.7575	3021.3599	3038.7532	3044.0905	3068.2095	3098.1306	3111.0983	3133.7067	3138.3186	3165.1941	3624.9128
CC1C2CC1(C2)NC=O	C[C@H]1[C@H]2C[C@@]1(C2)NC=O	
InChI=1S/C7H11NO/c1-5-6-2-7(5,3-6)8-4-9/h4-6H,2-3H2,1H3,(H,8,9)	InChI=1S/C7H11NO/c1-5-6-2-7(5,3-6)8-4-9/h4-6H,2-3H2,1H3,(H,8,9)/t5-,6-,7-/m0/s1
