22
gdb 120271	2.99908	1.07542	0.92002	1.6875	82.13	-0.2295	0.0746	0.3042	1372.929	0.193632	-404.287413	-404.277841	-404.276897	-404.322138	35.245	
C	-0.2764357806	 1.4482889597	 0.1831621025	-0.225891
O	-0.4357943406	 0.0535973696	 0.2857818732	-0.23417
C	-0.9411923394	-0.5316962696	-0.8973448352	-0.070098
C	-1.0521392605	-2.0258660046	-0.6525786644	 0.013329
C	-2.1868646884	-2.6273205738	 0.2398516805	-0.002573
C	-3.2186503306	-1.7332765566	 0.9186975743	-0.416461
C	-2.584268982	-3.4314027991	-1.0010141976	-0.030686
C	-2.849915567	-2.5628692753	-2.1610999947	-0.24506
N	-1.4408100782	-2.8732056694	-1.8393451776	-0.155398
H	 0.1146906311	 1.8049379014	 1.1391637766	 0.127258
H	 0.4322330276	 1.7200931009	-0.6150727974	 0.105807
H	-1.2325712853	 1.9559856185	-0.0215160397	 0.103311
H	-1.9086864545	-0.0754741372	-1.1590480256	 0.081724
H	-0.2597137411	-0.3566580391	-1.747701311	 0.098092
H	-0.0719224349	-2.3685811965	-0.311996073	 0.092452
H	-1.7380912079	-3.2835505644	 0.9904275817	 0.082546
H	-3.7639009471	-1.1097305731	 0.2035052486	 0.109557
H	-3.9579246891	-2.3352785207	 1.4581167653	 0.113045
H	-2.7305102012	-1.0669243181	 1.6360483679	 0.13157
H	-2.8183335917	-4.4914680154	-1.0117378676	 0.091199
H	-3.1718488584	-3.0427524496	-3.080294897	 0.120231
H	-3.2385041504	-1.5579125978	-2.0259233699	 0.110218
67.4839	95.3537	121.1929	188.6215	202.0193	227.3883	249.661	309.8729	371.0059	398.0288	535.2414	567.0209	703.6349	743.773	777.5338	804.0163	894.5007	960.7613	985.4793	1007.6011	1029.1151	1050.1794	1060.4232	1086.2489	1113.3071	1124.8907	1158.8528	1161.6432	1186.1119	1192.1012	1218.1504	1231.5289	1242.9286	1277.3048	1289.0175	1354.1816	1374.7213	1380.6365	1412.1619	1427.6505	1480.0922	1485.5636	1490.4742	1499.0289	1503.5231	1510.1113	1527.5773	2957.2951	2971.7026	2994.1046	3013.854	3035.0379	3060.3764	3079.3698	3100.3028	3112.4817	3113.5773	3120.0046	3156.8539	3201.9619
COCC1C(C)C2CN12	COC[C@H]1[C@@H](C)[C@H]2CN12	
InChI=1S/C7H13NO/c1-5-6-3-8(6)7(5)4-9-2/h5-7H,3-4H2,1-2H3	InChI=1S/C7H13NO/c1-5-6-3-8(6)7(5)4-9-2/h5-7H,3-4H2,1-2H3/t5-,6+,7-,8?/m0/s1
