14
gdb 132766	2.29592	1.7719	1.00629	1.638	67.27	-0.2563	-0.0331	0.2233	1061.8498	0.100048	-485.997376	-485.989719	-485.988774	-486.030473	27.878	
C	-0.0149689745	 1.5384002853	 0.0066569171	-0.50834
C	 0.0036196064	 0.0365217387	 0.0123482009	 0.009709
C	 0.0748791739	-0.7091518034	-1.1616207742	 0.197593
F	 0.1281359553	-0.0571359014	-2.3275726803	-0.069238
C	 0.0917087032	-2.0964230324	-1.1498901062	-0.095448
N	 0.0406070695	-2.7940401633	-0.0139538097	-0.264547
C	-0.0282939688	-2.1184939565	 1.1320054341	-0.098319
C	-0.0479331613	-0.7290748047	 1.1730667173	 0.204395
F	-0.1181590602	-0.1148675724	 2.3587903428	-0.074658
H	 0.8861727797	 1.9358235712	-0.4707679204	 0.150363
H	-0.8704827892	 1.9137285815	-0.5635696982	 0.150362
H	-0.0735524566	 1.9275723233	 1.0230332598	 0.14741
H	 0.147925819	-2.6443276664	-2.0856826758	 0.12541
H	-0.0700033759	-2.6839301196	 2.0582070323	 0.125308
36.1961	150.5608	251.22	264.7122	285.9465	324.8408	480.5188	505.3739	565.4068	586.268	615.9412	680.8445	748.9708	823.7203	905.8058	947.4266	949.2011	1061.3085	1129.0866	1180.0134	1218.1526	1274.0983	1314.9586	1328.5623	1412.5096	1459.9551	1483.7407	1488.3867	1524.3139	1619.2328	1640.6988	3048.5068	3102.1208	3154.2479	3174.4924	3178.6134
CC1=C(F)C=NC=C1F	Cc1c(F)cncc1F	
InChI=1S/C6H5F2N/c1-4-5(7)2-9-3-6(4)8/h2-3H,1H3	InChI=1S/C6H5F2N/c1-4-5(7)2-9-3-6(4)8/h2-3H,1H3
