19
gdb 18015	5.13926	1.35029	1.22588	2.0713	72.36	-0.2119	0.0753	0.2873	1048.0132	0.165704	-365.008179	-365.0005	-364.999556	-365.040314	28.864	
C	 0.0459153954	 1.5403507964	-0.0623731588	-0.380332
C	 0.0796653464	 0.0269225473	 0.1398527442	-0.123882
N	-1.2503865349	-0.5470293994	 0.0726845869	-0.076338
C	-2.1672620769	-0.313799914	 1.2201946354	-0.193064
C	-2.521476051	-1.8122849938	 1.2365160585	 0.105466
O	-3.51221974	-2.2075911358	 0.2692907203	-0.297549
C	-2.4957127586	-2.5739049767	-0.7012818507	-0.073257
C	-1.3867426442	-2.0157309414	 0.2043916582	-0.044891
H	 1.0563163943	 1.9585843038	-0.0222022015	 0.112181
H	-0.4006696262	 1.7879567422	-1.0295008071	 0.125726
H	-0.5472076334	 2.0291019929	 0.7179218756	 0.119725
H	 0.6836281019	-0.4375851043	-0.6493488171	 0.100169
H	 0.5831657783	-0.2031666277	 1.1015766588	 0.069316
H	-1.6379312197	-0.0133524153	 2.1392295583	 0.087364
H	-2.9879901578	 0.3839642666	 1.0273185683	 0.111635
H	-2.6429302144	-2.3174907591	 2.1968119716	 0.081612
H	-2.4705425511	-3.6614717658	-0.8513841123	 0.09466
H	-2.6246616202	-2.060367067	-1.6593734083	 0.108096
H	-0.4663173982	-2.583188679	 0.3591851097	 0.073364
90.1525	115.7917	195.5336	231.2243	295.3459	356.8905	401.0851	446.3888	668.2827	753.0105	805.6571	819.7864	834.6633	935.4253	953.8176	970.5844	988.3068	1008.4111	1039.2705	1057.2988	1074.1475	1117.3056	1150.573	1163.3869	1193.1398	1195.3261	1220.4393	1230.0192	1290.8498	1303.0525	1322.3244	1344.5802	1358.7988	1396.7425	1416.1301	1484.594	1489.809	1496.9414	1504.6302	1515.2555	2887.5782	2970.9413	3009.4557	3037.6935	3041.5527	3074.9104	3078.6782	3082.8874	3092.7099	3105.3181	3119.1146
CCN1CC2OCC12	CCN1C[C@H]2OC[C@@H]12	
InChI=1S/C6H11NO/c1-2-7-3-6-5(7)4-8-6/h5-6H,2-4H2,1H3	InChI=1S/C6H11NO/c1-2-7-3-6-5(7)4-8-6/h5-6H,2-4H2,1H3/t5-,6-/m1/s1
