17
gdb 54081	2.29673	1.02567	0.80238	1.5486	71.85	-0.2619	-0.0684	0.1934	1420.138	0.130637	-458.996568	-458.986309	-458.985365	-459.033481	34.26	
C	 0.0643902058	 1.4492721694	-0.3372977291	-0.4855
C	 0.1110693769	-0.0580736218	-0.2575369464	 0.36897
O	 1.1309655249	-0.7005731814	-0.2373314413	-0.281891
C	-1.2701071814	-0.7626405	-0.1774988808	-0.192784
C	-1.1721697275	-2.2124149063	-0.6723248637	-0.299476
C	-2.5088482091	-2.9206179386	-0.6642094509	 0.151713
O	-2.9714055325	-3.5149740418	-1.6019349864	-0.229811
C	-1.6955336525	-0.6630572097	 1.2884877684	 0.146896
O	-2.2805865021	 0.2761745537	 1.7594802345	-0.237609
H	 1.0576745834	 1.8658403647	-0.1675155267	 0.15012
H	-0.2851179477	 1.7437486956	-1.3343136714	 0.152407
H	-0.6562017376	 1.8487426546	 0.3831480857	 0.167235
H	-1.9883743715	-0.1735195962	-0.7564074953	 0.122819
H	-0.7545938588	-2.2548132115	-1.6804451558	 0.139576
H	-0.4827348375	-2.7588342764	-0.0146554523	 0.147476
H	-3.0644453886	-2.8625019213	 0.3022762381	 0.078795
H	-1.3732672142	-1.5225107831	 1.9176100335	 0.101065
55.2033	57.0829	70.6524	96.8439	155.3745	174.3982	229.574	269.2997	309.6524	382.834	454.7348	537.8887	583.1051	612.7849	775.8225	801.6567	893.7251	959.1284	993.3913	1014.0255	1079.7747	1105.7529	1108.94	1166.7066	1208.2771	1239.5277	1291.3368	1343.8449	1387.6454	1413.8309	1436.654	1456.6885	1465.6615	1473.39	1803.7739	1833.2084	1839.3621	2845.8009	2887.5596	3036.3597	3038.4399	3071.7447	3104.2018	3118.8253	3158.521
CC(=O)C(CC=O)C=O	CC(=O)[C@@H](CC=O)C=O	
InChI=1S/C6H8O3/c1-5(9)6(4-8)2-3-7/h3-4,6H,2H2,1H3	InChI=1S/C6H8O3/c1-5(9)6(4-8)2-3-7/h3-4,6H,2H2,1H3/t6-/m0/s1
