20
gdb 122709	7.70708	0.47806	0.45649	4.4478	80.94	-0.2617	-0.0234	0.2384	2352.6117	0.168255	-440.311105	-440.300518	-440.299573	-440.348233	35.838	
C	-0.1034982844	 1.4034346986	 0.1299775379	-0.383097
C	-0.1132629256	-0.1233244214	 0.2417959839	-0.173474
C	-1.3801154887	-0.7598894329	-0.3427549902	-0.184604
C	-1.3622779279	-2.2869502523	-0.216485094	-0.130475
N	-2.4913172844	-3.0498541485	-0.729826988	-0.242643
C	-3.4761069277	-2.4786555854	-1.2540508063	 0.140834
O	-4.5623630396	-3.1591803717	-1.7514606802	-0.199752
C	-4.788491025	-4.4509126974	-1.3435366752	 0.179978
O	-5.6420957138	-5.10877268	-1.8499546725	-0.254487
H	 0.8115058855	 1.8270138318	 0.5549425384	 0.116651
H	-0.1648864438	 1.7245389224	-0.9156462516	 0.116934
H	-0.9533631728	 1.845193843	 0.6618048472	 0.116451
H	 0.7668951696	-0.5343543699	-0.2696032478	 0.101578
H	-0.0154060139	-0.4147091516	 1.2957390329	 0.100849
H	-2.2602444377	-0.3515382189	 0.1722896714	 0.101261
H	-1.4741713548	-0.473075052	-1.3988539397	 0.103339
H	-0.4672976081	-2.6848844052	-0.7131093813	 0.121536
H	-1.2504414502	-2.5650558295	 0.840158226	 0.119817
H	-3.6267734857	-1.4111732466	-1.4199666047	 0.121187
H	-4.123392101	-4.7557554626	-0.5257432861	 0.128117
39.6006	80.5437	91.2388	110.4038	125.0091	186.7016	196.6761	249.5668	254.4931	333.4918	386.7502	482.8422	550.8713	741.5474	772.5872	789.3463	914.4036	939.6159	977.4413	990.6212	1033.0617	1046.3025	1060.7712	1098.5602	1126.0884	1168.4459	1194.1393	1257.5885	1288.8396	1326.2287	1332.6535	1378.0127	1390.4465	1396.5842	1412.7249	1417.0886	1476.8433	1487.1626	1498.9282	1500.1975	1512.7883	1756.5681	1871.7621	3006.3469	3013.9329	3022.443	3030.5993	3031.2597	3042.4726	3063.9043	3073.9549	3098.1212	3104.8689	3122.0303
CCCCN=COC=O	CCCCN=COC=O	
InChI=1S/C6H11NO2/c1-2-3-4-7-5-9-6-8/h5-6H,2-4H2,1H3	InChI=1S/C6H11NO2/c1-2-3-4-7-5-9-6-8/h5-6H,2-4H2,1H3
