19
gdb 97874	6.75789	0.41803	0.39755	1.5014	90.42	-0.2397	0.0275	0.2672	2706.5801	0.156036	-385.82624	-385.814894	-385.813949	-385.866869	37.602	
C	 0.0067557793	 1.6168485282	 0.0108603832	-0.364063
C	 0.0080744636	 0.0771948883	 0.0026098398	-0.312341
C	-1.3345193026	-0.4951644597	 0.0125815053	 0.08763
C	-2.4506262056	-0.9450406621	 0.0208638827	 0.059686
C	-3.8083105802	-1.4958298268	 0.0300790343	-0.495066
C	-3.8434374338	-2.9606257415	 0.0220989004	 0.086587
C	-3.885879659	-4.1621283419	 0.0159265265	 0.099089
C	-3.9081853527	-5.619439384	 0.0093154124	-0.213622
O	-5.2558073639	-6.0770902749	 0.0196833916	-0.409535
H	 1.0317361935	 1.9994239353	 0.0029947657	 0.114007
H	-0.5147391692	 2.0095240657	-0.8662560269	 0.127683
H	-0.4976363582	 2.0000586505	 0.9020521975	 0.127685
H	 0.5508787229	-0.2835538387	-0.8805086502	 0.128735
H	 0.5678266485	-0.2929141077	 0.8711530659	 0.128727
H	-4.3491765378	-1.1249039502	 0.9120689465	 0.156928
H	-4.3651001701	-1.1150139836	-0.8376712749	 0.156931
H	-3.3713237089	-5.9833759183	-0.8820422251	 0.115911
H	-3.3548651492	-5.9917302328	 0.8870613202	 0.115949
H	-5.2304049264	-7.0393926859	 0.014684855	 0.289082
5.9592	26.6623	45.6412	126.011	150.5504	162.5456	186.879	234.7474	254.7163	308.9949	364.928	384.297	492.3073	512.1777	546.8768	747.6927	783.1699	786.8376	933.8779	961.6595	1029.0138	1046.3098	1078.2784	1104.9488	1132.3832	1168.8403	1227.8308	1246.3857	1256.4497	1286.3105	1336.9922	1351.8505	1408.9521	1456.8749	1461.1225	1477.2298	1494.5842	1505.2352	1505.7879	2374.5012	2383.5922	2962.5235	2980.3153	3003.5657	3020.3456	3026.0824	3044.0909	3047.3018	3117.2632	3123.2324	3817.3349
CCC#CCC#CCO	CCC#CCC#CCO	
InChI=1S/C8H10O/c1-2-3-4-5-6-7-8-9/h9H,2,5,8H2,1H3	InChI=1S/C8H10O/c1-2-3-4-5-6-7-8-9/h9H,2,5,8H2,1H3
