20
gdb 105491	1.98525	1.67894	1.1991	4.8059	74.47	-0.2443	0.0185	0.2628	1132.4927	0.17136	-440.305454	-440.296389	-440.295445	-440.33924	34.068	
C	 1.1396443977	-0.6965793417	-1.3391235255	-0.33996
N	 0.3298338091	-0.0910019994	-0.2770303005	-0.380173
H	 1.4683680656	 1.2695351389	 0.4715210647	 0.30208
H	-0.6510640858	-0.1159339798	-0.5317089226	 0.227046
C	 0.5122167727	-0.6827321375	 1.0445773865	 0.159251
C	-0.6791563919	-0.4809233989	 2.0380017401	-0.271982
C	-0.4532847129	-1.9264966905	 2.5514324985	-0.210188
C	 0.3878928315	-2.221734909	 1.2822017905	-0.251449
C	 1.7910014476	-0.1024902714	 1.6751538828	 0.425675
O	 2.1203209399	 1.1040315231	 1.1867004298	-0.377687
O	 2.4143867825	-0.6407724883	 2.5517927754	-0.345844
H	 0.9791255697	-1.7786204886	-1.4520308045	 0.119844
H	 0.9077821809	-0.2094567037	-2.2896982007	 0.128459
H	 2.2011398125	-0.5325860944	-1.1285004987	 0.145586
H	-0.6039360783	 0.3422269261	 2.7514975521	 0.121267
H	-1.6192299145	-0.3799020872	 1.4848359149	 0.097048
H	 0.1680418865	-1.9408392895	 3.4471582592	 0.136772
H	-1.343820018	-2.5352382089	 2.7172128239	 0.098453
H	-0.2060700196	-2.6894023497	 0.4912133307	 0.092908
H	 1.3197641047	-2.7707835895	 1.4178522335	 0.122893
75.1063	140.2045	146.1127	202.0447	214.3862	230.5653	286.8911	372.1873	430.3244	489.9937	556.0603	649.6525	729.9435	749.0812	767.7271	797.7418	851.2406	867.684	907.2426	944.8611	969.4913	1035.1461	1061.4866	1065.0919	1123.1792	1157.9643	1176.1321	1206.1618	1214.8682	1220.0368	1255.9859	1277.2935	1284.833	1314.9229	1404.1567	1460.2212	1461.5507	1465.1023	1482.5778	1496.247	1497.6384	1518.2409	1860.0802	3000.2045	3043.3364	3059.5989	3080.3872	3081.719	3109.9174	3118.9914	3132.72	3147.5486	3492.7499	3533.8023
C[NH2+]C1(CCC1)C([O-])=O	CNC1(CCC1)C(=O)O	
InChI=1S/C6H11NO2/c1-7-6(5(8)9)3-2-4-6/h7H,2-4H2,1H3,(H,8,9)	InChI=1S/C6H11NO2/c1-7-6(5(8)9)3-2-4-6/h7H,2-4H2,1H3,(H,8,9)
