13
gdb 130274	2.07878	1.91111	0.99697	1.9465	68.41	-0.2321	-0.0099	0.2222	1081.3407	0.090534	-448.946642	-448.938528	-448.937583	-448.979137	30.211	
N	 0.0437783709	 1.3428084113	 0.1651388022	-0.593423
C	 0.0348732554	-0.0216117983	 0.0378201916	 0.374279
N	-1.0833633078	-0.7087382754	 0.0092936415	-0.245026
O	-0.6644553044	-2.0799094561	-0.044877431	-0.2179
C	 0.6592659083	-2.1346905917	-0.0632723561	 0.451957
N	 1.236878901	-3.3526754724	-0.1700386193	-0.59846
C	 1.1985616093	-0.8636225669	-0.0117484691	-0.078941
C	 2.5541075414	-0.4985154302	-0.002262634	 0.159034
N	 3.6747614682	-0.1952692104	 0.0020041001	-0.362842
H	 0.8440973346	 1.8129170338	-0.2299317061	 0.272201
H	-0.836552009	 1.7916238344	-0.0416827953	 0.269344
H	 0.6665026097	-4.151692704	 0.0575205799	 0.281698
H	 2.2145463023	-3.4225941542	 0.0626542257	 0.288079
112.9909	139.8023	207.6122	276.9618	339.5862	373.0126	381.134	411.9213	430.7529	535.8561	553.3111	572.7249	605.0546	665.1423	678.97	773.171	801.6152	898.8469	1057.3312	1124.5909	1135.7482	1288.5032	1410.7821	1521.793	1583.4663	1627.3758	1655.575	1682.992	2326.1954	3575.8282	3596.3783	3682.8039	3711.8543
NC1=NOC(N)=C1C#N	Nc1noc(N)c1C#N	
InChI=1S/C4H4N4O/c5-1-2-3(6)8-9-4(2)7/h7H2,(H2,6,8)	InChI=1S/C4H4N4O/c5-1-2-3(6)8-9-4(2)7/h7H2,(H2,6,8)
