19
gdb 53031	5.15488	0.89127	0.84611	0.2978	91.64	-0.2174	0.0496	0.267	1441.995	0.159479	-348.68536	-348.676993	-348.676049	-348.719672	31.531	
C	-0.0310115296	 1.4201888261	-0.0297042015	-0.51287
C	-0.0057211465	-0.0346966997	-0.0104688511	 0.317417
C	 0.0136150096	-1.2407595062	 0.0059966646	-0.321815
C	 0.0642685063	-2.6614406366	 0.0402456149	 0.280156
C	 1.1953145789	-3.5514619886	 0.5729320574	-0.294945
C	 0.491049822	-4.7205924142	-0.1617464144	-0.090788
C	-0.84737992	-4.8955292711	 0.6100214105	-0.231823
C	-1.2248257441	-3.5283742495	 0.048770566	-0.107467
C	-0.2375781417	-3.6545214987	-1.0785215823	-0.12302
H	 0.8762535766	 1.8363343389	 0.4228918772	 0.147246
H	-0.0935721724	 1.8071913561	-1.0533330797	 0.145183
H	-0.887867301	 1.8166844297	 0.5270982838	 0.144898
H	 2.1454351934	-3.2830599103	 0.1041250871	 0.104258
H	 1.3274602726	-3.6388451031	 1.6576304489	 0.090807
H	 1.0563141187	-5.5831277797	-0.5064529482	 0.073923
H	-1.4680873	-5.6821061054	 0.1712588857	 0.100775
H	-0.7905521114	-5.0313401874	 1.696189252	 0.090745
H	-2.1905841406	-3.0406788808	 0.0343102102	 0.091484
H	-0.3207433805	-3.5047088695	-2.144950251	 0.095837
23.7744	94.1985	100.7983	266.086	298.2783	390.5877	422.6949	448.4361	510.7517	530.8005	701.4959	737.9646	801.1432	832.8017	853.4592	919.9724	930.7751	955.5319	983.4481	987.4793	1008.5852	1019.4432	1053.4935	1054.4132	1074.0828	1111.2185	1131.6418	1142.9337	1174.6576	1198.3618	1230.5636	1273.7353	1284.3792	1300.772	1399.779	1420.201	1476.7212	1479.9412	1490.8111	1507.1246	2360.5962	3021.5496	3030.0755	3036.3864	3079.2015	3082.4159	3093.1771	3102.245	3143.4492	3203.4187	3227.3209
CC#CC12CC3CC1C23	CC#C[C@@]12C[C@H]3C[C@@H]1[C@@H]23	
InChI=1S/C9H10/c1-2-3-9-5-6-4-7(9)8(6)9/h6-8H,4-5H2,1H3	InChI=1S/C9H10/c1-2-3-9-5-6-4-7(9)8(6)9/h6-8H,4-5H2,1H3/t6-,7-,8+,9-/m1/s1
