20
gdb 122500	4.31437	0.60581	0.55866	3.9981	78.71	-0.2496	-0.0279	0.2217	1969.8111	0.168777	-440.252415	-440.242257	-440.241313	-440.289072	35.014	
C	-0.0535756252	 1.3946428603	 0.0807173132	-0.229851
O	 0.1788741555	 0.0149601351	-0.069581813	-0.2304
C	 0.6693225424	-0.5906786112	 1.1039808948	-0.045963
C	 0.8585237225	-2.0797710341	 0.8319907782	-0.217413
C	 1.4323956844	-2.7912489302	 2.03644459	-0.012069
N	 0.5075417266	-3.2187164174	 3.0796202609	-0.330301
C	 1.2478690518	-4.2557185863	 2.3286563372	-0.135795
C	 0.422586033	-5.1450426949	 1.4636389967	 0.174855
O	 0.7806577032	-6.2378335976	 1.1016273753	-0.257872
H	 0.8690170141	 1.9396155406	 0.3376788404	 0.102606
H	-0.429548119	 1.7693695084	-0.87430306	 0.128835
H	-0.8012518506	 1.6009520906	 0.8629879072	 0.105049
H	 1.6277141123	-0.1291217772	 1.4044122557	 0.07894
H	-0.0345181535	-0.4483748223	 1.9412951004	 0.099138
H	-0.1078047149	-2.5096719832	 0.5569257532	 0.118673
H	 1.5298313624	-2.2028167418	-0.0256398309	 0.117422
H	 2.3993779303	-2.4052147713	 2.3617909555	 0.096689
H	 0.9082490545	-3.1098952228	 4.00683964	 0.243616
H	 2.0843942392	-4.7638122952	 2.8025321661	 0.10532
H	-0.566797379	-4.7251698197	 1.1825392791	 0.088522
49.561	66.4033	86.3352	121.1371	124.5347	223.675	234.7669	273.6534	337.9768	388.6986	443.9374	503.049	535.2783	794.951	815.8197	865.4643	918.3341	978.1981	992.5001	1022.8528	1039.2541	1063.4959	1080.8496	1148.3707	1165.3545	1180.112	1204.5532	1224.9522	1232.9137	1241.654	1265.4935	1310.9465	1314.2802	1365.2034	1421.2658	1426.7034	1470.5488	1481.8689	1483.0938	1485.5878	1504.3815	1533.2191	1821.9015	2907.4877	2937.8521	2968.9483	2979.2499	3012.2451	3051.1867	3093.5969	3113.1762	3115.1275	3146.7491	3515.8809
COCCC1NC1C=O	COCC[C@H]1N[C@H]1C=O	
InChI=1S/C6H11NO2/c1-9-3-2-5-6(4-8)7-5/h4-7H,2-3H2,1H3	InChI=1S/C6H11NO2/c1-9-3-2-5-6(4-8)7-5/h4-7H,2-3H2,1H3/t5-,6+/m1/s1
