17
gdb 36457	3.65365	1.00641	0.86671	4.6687	73.31	-0.2639	0.0262	0.2901	1311.0252	0.135984	-417.966984	-417.958548	-417.957604	-418.000885	30.562	
N	 0.1328721781	-1.1814392557	-0.4625319546	-0.297956
C	 0.0678875179	-0.0350342418	-0.3362570857	 0.26928
C	-0.0085516443	 1.4132059307	-0.1571942442	-0.359794
C	 1.3629322232	 2.0421338669	 0.1174290879	 0.062634
O	 2.2276792776	 1.9874213489	-1.0308099432	-0.288214
C	 2.4166770102	 3.4253661398	-1.0454411322	-0.126905
C	 1.4505138514	 3.5714130434	 0.1239315363	 0.264281
C	 0.4103043738	 4.5767714152	 0.423303141	-0.304804
N	 1.6318144336	 4.4688113338	 1.2481027341	-0.350413
H	-0.4424749548	 1.8662405638	-1.054272093	 0.158081
H	-0.6829089019	 1.6247418745	 0.6816083375	 0.148523
H	 1.8254599581	 1.5608072343	 0.990997676	 0.100487
H	 3.4502237791	 3.7095737728	-0.8177091917	 0.122308
H	 2.1117896493	 3.8677402336	-2.000547539	 0.1149
H	 0.3405796948	 5.4822723651	-0.1734378033	 0.131644
H	-0.5356790693	 4.2356685215	 0.8376212072	 0.118427
H	 1.4332898232	 3.9975222731	 2.1280585368	 0.237522
61.4403	91.2113	112.9527	203.4687	273.8578	329.4175	382.1045	393.6632	471.4108	537.2726	583.8408	814.5068	836.3152	878.3711	914.4384	941.3	945.3243	977.424	1003.7068	1032.9346	1053.3299	1079.5875	1103.7183	1135.3711	1148.7427	1226.9775	1250.8096	1268.5642	1278.5206	1311.0091	1339.5981	1383.4967	1439.3975	1448.3206	1519.099	1520.6224	2366.0867	3003.9153	3028.9499	3041.8718	3078.5961	3093.9273	3103.8821	3188.5709	3492.2736
N#CCC1OCC11CN1	N#CC[C@H]1OC[C@]21CN2	
InChI=1S/C6H8N2O/c7-2-1-5-6(3-8-6)4-9-5/h5,8H,1,3-4H2	InChI=1S/C6H8N2O/c7-2-1-5-6(3-8-6)4-9-5/h5,8H,1,3-4H2/t5-,6+/m1/s1
