14
gdb 8136	4.42864	1.74972	1.46599	4.3616	56.98	-0.2641	0.0059	0.27	832.0746	0.107045	-419.698333	-419.691651	-419.690706	-419.72905	25.894	
O	-0.006805529	 1.4185868344	-0.1707852765	-0.463015
C	 0.0116717551	 0.0422919415	 0.0281341737	 0.368088
C	-0.3602330776	-0.8957249007	-1.1063573384	-0.370815
C	-1.2830353154	-0.7080397264	 0.0728395452	 0.047989
O	-1.2316067248	-1.6962708413	 1.08127535	-0.21326
C	-0.0241077326	-1.6674098053	 1.7301096052	 0.428167
O	 0.2494983448	-2.441344429	 2.5961341939	-0.321575
C	 0.8379853068	-0.5350253007	 1.1598385135	-0.447306
H	 0.7563047904	 1.6564737118	-0.7089336329	 0.28996
H	-0.6681333833	-0.4205838502	-2.0312620619	 0.12954
H	 0.1551546981	-1.8451923819	-1.2132806119	 0.129104
H	-2.2544641594	-0.2421620097	-0.0248161618	 0.129816
H	 1.8165424991	-0.9316157165	 0.8760561296	 0.140281
H	 0.9921165178	 0.218306704	 1.9389686223	 0.153025
113.54	243.8697	303.4842	341.1623	395.6428	446.9935	493.9163	555.1095	598.049	679.8379	744.8392	823.7958	897.3187	913.1776	929.0292	997.217	1013.1115	1036.1965	1079.3445	1127.5852	1152.9242	1162.0373	1236.833	1266.7901	1311.0134	1345.0177	1409.4001	1452.334	1485.1628	1893.341	3063.289	3108.6519	3129.917	3211.5256	3228.3048	3797.5076
OC12CC1OC(=O)C2	O[C@]12C[C@H]1OC(=O)C2	
InChI=1S/C5H6O3/c6-4-2-5(7)1-3(5)8-4/h3,7H,1-2H2	InChI=1S/C5H6O3/c6-4-2-5(7)1-3(5)8-4/h3,7H,1-2H2/t3-,5+/m1/s1
