15
gdb 7052	6.33967	0.84029	0.76542	5.8934	71.14	-0.2707	0.0147	0.2854	1430.8545	0.116341	-362.648802	-362.639334	-362.63839	-362.684462	31.508	
C	-0.0309395367	 1.4720111892	-0.0196509886	-0.500528
C	 0.0114399077	 0.0173706425	-0.0104774574	 0.107551
C	 0.051653288	-1.1860970287	 0.0194925191	 0.022401
C	 0.0592038417	-2.6491541641	 0.0097946717	-0.051849
O	-1.2321489185	-3.2047324326	 0.1882290209	-0.403804
C	 0.721300622	-3.1647153509	-1.2997114031	-0.346207
C	 0.8034417083	-4.6219376719	-1.3429693651	 0.265671
N	 0.8843095365	-5.7737502931	-1.3765609395	-0.301919
H	 0.8476708122	 1.8930272223	 0.4806325556	 0.15865
H	-0.0541853635	 1.8648842737	-1.041639049	 0.154069
H	-0.9197147003	 1.842388504	 0.5022168788	 0.15862
H	 0.6482995996	-3.0243434382	 0.8544064733	 0.137305
H	-1.8455262545	-2.7139240679	-0.3702160487	 0.28893
H	 0.1425030276	-2.8084705874	-2.1588718172	 0.150598
H	 1.7276904599	-2.743045617	-1.3915813008	 0.160513
30.9464	62.5115	80.8169	142.7513	176.981	276.176	294.7522	340.9361	373.0747	397.7625	474.897	544.8742	557.5424	798.0463	865.4028	957.1216	1009.8508	1050.981	1054.1348	1067.4654	1161.3177	1202.4855	1273.5132	1305.7381	1359.0563	1413.1979	1422.6135	1456.8553	1475.3963	1476.6561	2366.0465	2368.9198	3032.5672	3046.3451	3055.5519	3095.9903	3096.5843	3096.8315	3805.1994
CC#CC(O)CC#N	CC#C[C@@H](O)CC#N	
InChI=1S/C6H7NO/c1-2-3-6(8)4-5-7/h6,8H,4H2,1H3	InChI=1S/C6H7NO/c1-2-3-6(8)4-5-7/h6,8H,4H2,1H3/t6-/m1/s1
