22
gdb 32571	1.88192	1.82646	1.0155	2.0335	90.81	-0.1825	0.0481	0.2306	1256.0892	0.193974	-367.266808	-367.256904	-367.25596	-367.30135	36.76	
C	 0.008258583	 1.5985819282	-0.0305740838	-0.377166
C	 0.0304852415	 0.0656669091	-0.0505065528	-0.158008
N	 0.6953268158	-0.4893605888	-1.2175909137	-0.084394
C	 0.0849261465	-0.7610838778	-2.4312111009	 0.279806
C	-1.3834721604	-0.6001668368	-2.6543494212	-0.508038
C	 1.0613002977	-1.1977239374	-3.2965913837	-0.229961
C	 2.2974888881	-1.1893381443	-2.596381719	-0.229962
C	 2.0528400374	-0.7475102885	-1.3166216567	 0.279807
C	 2.9976414019	-0.5696748823	-0.173115979	-0.508037
H	 1.0236326255	 2.0047741378	-0.0348931998	 0.130575
H	-0.5148970412	 1.9938554538	-0.9058255577	 0.130576
H	-0.5027940844	 1.9600808218	 0.8676610069	 0.116391
H	 0.5342307219	-0.3119579629	 0.8440024026	 0.117592
H	-0.9915722334	-0.3228920504	-0.0199339833	 0.117588
H	-1.7315833569	 0.4298263376	-2.504970726	 0.122105
H	-1.6210006311	-0.8780214796	-3.6840139645	 0.132433
H	-1.9854275808	-1.2418430417	-1.997358782	 0.123935
H	 0.8954452248	-1.4983143974	-4.3205324212	 0.083143
H	 3.2640390948	-1.4821985687	-2.9789150276	 0.083143
H	 3.0378821062	 0.4631139184	 0.1958222246	 0.122109
H	 2.7504406314	-1.2086082253	 0.6850149558	 0.12393
H	 4.0056898016	-0.8391107948	-0.497269147	 0.132434
88.104	99.9187	152.6293	170.7491	183.3181	204.6052	273.9478	287.3507	316.1232	397.4478	468.0138	575.125	634.3561	652.1085	700.4969	714.8968	760.5887	795.9837	801.9688	962.1419	972.1025	990.9524	1024.2951	1046.9205	1057.1558	1065.0793	1098.5755	1166.9463	1217.4067	1241.8542	1300.4028	1329.4069	1391.5626	1410.7904	1414.8675	1422.2552	1425.7976	1444.66	1479.2969	1480.295	1484.3085	1491.2975	1495.5017	1502.9511	1513.4104	1553.3586	1618.6355	3008.3471	3010.6396	3040.9602	3049.6317	3050.813	3058.4651	3093.1281	3114.1094	3116.9407	3117.3819	3124.9568	3231.8679	3247.6859
CCN1C(C)=CC=C1C	CCn1c(C)ccc1C	
InChI=1S/C8H13N/c1-4-9-7(2)5-6-8(9)3/h5-6H,4H2,1-3H3	InChI=1S/C8H13N/c1-4-9-7(2)5-6-8(9)3/h5-6H,4H2,1-3H3
