18
gdb 104136	2.70808	1.33467	1.18536	4.208	68.24	-0.2594	0.0561	0.3155	1126.4297	0.146945	-476.277673	-476.268613	-476.267668	-476.31157	33.087	
C	 0.1241456361	 1.3593894872	-0.0379013739	-0.260609
O	 0.1642643527	-0.0597820922	 0.0393535965	-0.269508
C	 0.6631541472	-0.6095974979	 1.2287752451	 0.465509
C	-0.1639410878	-0.2575776834	 2.4575090037	-0.451948
C	 0.8106111149	-2.1263254525	 0.9551628032	-0.219327
N	 2.2087942058	-2.2008620008	 0.6030982925	-0.368766
C	 2.9132958275	-1.0943531319	 0.9964240741	 0.465482
O	 4.0979194556	-0.9140005486	 0.977804867	-0.393105
O	 2.0099915815	-0.1604083332	 1.4515889862	-0.268794
H	 1.0892372208	 1.8007706842	 0.2300681965	 0.141721
H	-0.1050205553	 1.5994094735	-1.0779347274	 0.133613
H	-0.6608719192	 1.783942569	 0.6009091617	 0.112262
H	-1.2014589932	-0.5690541303	 2.3072299231	 0.130973
H	 0.2379026219	-0.7623950469	 3.3386380753	 0.133067
H	-0.1420208393	 0.8174090275	 2.6471850402	 0.138944
H	 0.5642197773	-2.7215081711	 1.8436564277	 0.110259
H	 0.1518379211	-2.4138752489	 0.1327768818	 0.135178
H	 2.7026888323	-3.0579771237	 0.4255391565	 0.265048
79.3184	116.3262	129.5423	184.8853	231.5182	268.5668	325.6437	360.765	407.7316	439.1472	514.2608	574.6706	626.5682	736.5953	768.5479	821.6133	882.1418	935.455	957.8188	999.5102	1089.2843	1094.3993	1135.0071	1179.2992	1181.3543	1193.5713	1222.2554	1255.9643	1318.6936	1358.1618	1410.7162	1442.2938	1471.349	1483.9701	1486.4491	1507.4214	1513.1199	1523.3273	1899.1211	3017.1383	3020.9292	3056.2654	3090.2653	3100.9109	3132.3832	3133.3818	3141.5376	3682.0062
COC1(C)CNC(=O)O1	CO[C@@]1(C)CNC(=O)O1	
InChI=1S/C5H9NO3/c1-5(8-2)3-6-4(7)9-5/h3H2,1-2H3,(H,6,7)	InChI=1S/C5H9NO3/c1-5(8-2)3-6-4(7)9-5/h3H2,1-2H3,(H,6,7)/t5-/m1/s1
