14
gdb 5766	6.15645	1.61157	1.36027	1.5527	64.38	-0.2171	0.0148	0.2319	876.2161	0.109217	-378.719135	-378.712723	-378.711779	-378.750291	23.619	
C	-0.1498824433	 1.345834398	-0.2372767205	-0.230972
C	 1.2575047205	 0.903357842	-0.0323094632	-0.212409
N	 0.1644624998	-0.0481861052	 0.1128832401	-0.160017
C	-0.1220150194	-0.5064212663	 1.3832793451	 0.457706
N	 0.6822783833	-0.6858237643	 2.3864960841	-0.329943
C	-0.1288324007	-1.2525777312	 3.3666356094	-0.108188
C	-1.3873758774	-1.3747853451	 2.8940687387	-0.045529
O	-1.3995488276	-0.8970528657	 1.6045408745	-0.18189
H	-0.6000195368	 1.9652668532	 0.5334696525	 0.134514
H	-0.5463762457	 1.4847799673	-1.2375957497	 0.132237
H	 1.9015074576	 0.7276964939	-0.8879403697	 0.129649
H	 1.7603281817	 1.2136560266	 0.8783008559	 0.150427
H	 0.26005038	-1.5243891112	 4.3350859678	 0.121965
H	-2.323665832	-1.7388380718	 3.2788234249	 0.142449
59.0171	161.9106	217.1396	375.1379	506.0294	594.7359	625.9333	728.1211	770.8925	818.9252	860.2362	893.2533	914.292	941.9051	979.7881	1043.5683	1098.5311	1118.928	1138.5321	1141.7899	1166.7156	1174.9876	1189.7386	1230.1877	1320.0621	1417.8308	1493.227	1519.2472	1572.6224	1619.2125	3120.2608	3128.3657	3209.1473	3223.6486	3262.4346	3304.2143
C1CN1C1=NC=CO1	C1CN1c1ncco1	
InChI=1S/C5H6N2O/c1-4-8-5(6-1)7-2-3-7/h1,4H,2-3H2	InChI=1S/C5H6N2O/c1-4-8-5(6-1)7-2-3-7/h1,4H,2-3H2
