16
gdb 5072	3.39234	1.9427	1.25318	2.8618	68.58	-0.1748	0.0472	0.222	943.9948	0.131165	-379.950989	-379.942523	-379.941579	-379.983612	30.983	
C	 0.0485359818	 1.5440289318	 0.1228554704	-0.51083
C	 0.0238238059	 0.0603646274	-0.015000471	 0.213694
C	 0.0813982442	-0.7438996143	-1.1296786286	 0.253557
O	 0.1789530727	-0.3403378941	-2.4251974233	-0.461886
C	 0.0224854817	-2.1067257553	-0.7207523235	 0.07156
N	 0.0639454199	-3.1594969608	-1.686226906	-0.625992
C	-0.0713021109	-2.1093577033	 0.6563190621	-0.153616
N	-0.0695387076	-0.8027381379	 1.0667803854	-0.304376
H	 0.903008485	 1.8983950117	 0.7146511708	 0.118379
H	 0.1267293259	 1.9935440692	-0.8697715234	 0.14995
H	-0.8613318873	 1.9390260887	 0.5940652341	 0.118397
H	 0.1945594854	-1.1630059666	-2.937290058	 0.28969
H	-0.7702620551	-3.7366188769	-1.6572143271	 0.239465
H	 0.8581463341	-3.7752535351	-1.5452705799	 0.239461
H	-0.1379243254	-2.9219290837	 1.3620500667	 0.10802
H	-0.1270493704	-0.5022444407	 2.0231670315	 0.254527
100.0143	126.232	153.5352	240.0611	260.72	285.9776	307.3127	396.5713	526.2115	526.3961	572.1336	627.0716	683.2854	705.0248	748.6675	757.9226	842.6412	969.0885	1034.6374	1062.6256	1122.3371	1202.0255	1233.6518	1251.2885	1323.4796	1346.8797	1416.4828	1451.2277	1483.8798	1491.8266	1508.0997	1577.4874	1647.4335	1691.8167	3005.5702	3044.9705	3123.6041	3258.4229	3496.2902	3562.9391	3689.1876	3719.7801
CC1=C(O)C(N)=CN1	Cc1c(O)c(N)c[nH]1	
InChI=1S/C5H8N2O/c1-3-5(8)4(6)2-7-3/h2,7-8H,6H2,1H3	InChI=1S/C5H8N2O/c1-3-5(8)4(6)2-7-3/h2,7-8H,6H2,1H3
