19
gdb 106893	2.88252	1.27797	1.04961	4.6039	77.69	-0.2444	0.0011	0.2455	1204.6428	0.158295	-419.164223	-419.155036	-419.154092	-419.198336	34.048	
C	 0.1493936938	 1.5457857791	-0.2007020694	-0.377513
C	-0.0852399973	 0.0549411112	 0.0814623687	-0.295955
C	 0.6803877917	-0.4273257605	 1.2800813518	 0.315024
C	 2.0323443212	-1.0066256042	 1.2273265951	-0.286436
N	 0.8999108029	-1.9257604142	 1.5637147315	-0.186007
C	 0.6499457576	-1.6575962996	 2.9647884985	 0.363939
N	 0.7257485162	-2.4744723504	 3.9144989405	-0.508949
C	 0.2694220937	-0.1907508333	 2.7445079484	-0.066985
O	 0.9575181494	 0.7286698724	 3.5539829332	-0.422755
H	 1.2077577047	 1.7510871092	-0.3899091725	 0.12568
H	-0.4212693669	 1.8728050056	-1.0744608033	 0.12305
H	-0.1619615885	 2.1667204235	 0.6470144682	 0.10706
H	-1.1558559494	-0.1302248004	 0.236632725	 0.105973
H	 0.2082175583	-0.5427120837	-0.7886985344	 0.116753
H	 2.4522180216	-1.2145787778	 0.2481508912	 0.1297
H	 2.7605891005	-0.7809610597	 2.0011784685	 0.139662
H	 0.4901277785	-2.0118994265	 4.7950894864	 0.232105
H	-0.8214494319	-0.0648591804	 2.8173411737	 0.094444
H	 0.579280064	 1.6039083795	 3.422153899	 0.291211
65.5057	90.0397	168.9911	197.6471	228.7077	269.6727	272.4588	337.3186	372.04	503.5918	520.9052	652.6562	681.3198	728.4207	780.8657	787.5827	852.9225	907.5563	919.7872	970.3318	979.3128	1005.7671	1057.725	1089.8866	1113.7957	1133.8405	1147.324	1180.79	1239.6716	1257.2005	1291.6829	1328.6619	1354.458	1400.0493	1414.4465	1426.7902	1481.8231	1499.1985	1506.3102	1509.6609	1810.4458	2995.0021	3026.7554	3033.5013	3067.5697	3100.223	3114.2451	3120.4518	3211.0232	3462.2362	3815.411
CCC12CN1C(=N)C2O	CC[C@]12CN1[C]([NH])[C@H]2O	
InChI=1S/C6H10N2O/c1-2-6-3-8(6)5(7)4(6)9/h4,7,9H,2-3H2,1H3	InChI=1S/C6H10N2O/c1-2-6-3-8(6)5(7)4(6)9/h4,7,9H,2-3H2,1H3/t4-,6-,8?/m1/s1
