20
gdb 121301	4.31338	0.86879	0.75157	2.7028	76.66	-0.2456	0.0282	0.2738	1514.1475	0.171881	-440.285258	-440.276214	-440.27527	-440.31972	32.44	
C	-0.0354884247	 1.3831952522	 0.0161361974	-0.228934
O	-0.0240872348	-0.0246305447	-0.0064126053	-0.238112
C	 0.6623032424	-0.5542175408	-1.120145363	-0.071677
C	 0.6117904864	-2.074504618	-1.0515923036	-0.055197
C	-0.8248062951	-2.5886230899	-1.106543439	-0.069182
O	-0.8683697522	-4.0231626338	-1.0960791726	-0.22536
C	 0.1223617685	-4.6479606768	-1.7751003538	 0.129048
N	 1.1563195722	-4.1663047412	-2.3205773641	-0.275748
C	 1.4003425309	-2.7326425886	-2.1923966442	-0.16793
H	 0.9837315868	 1.7981364945	 0.06191912	 0.106812
H	-0.5360192474	 1.8022745818	-0.8711196647	 0.105692
H	-0.5830977009	 1.6919644982	 0.9096452845	 0.130369
H	 0.2003255918	-0.1998540527	-2.0596225381	 0.086181
H	 1.7109627717	-0.2104274715	-1.1285483834	 0.092061
H	 1.0467380479	-2.3876206651	-0.0943985219	 0.099599
H	-1.4062906835	-2.2586708116	-0.2455149395	 0.135097
H	-1.3223381676	-2.2328062154	-2.0200270189	 0.105143
H	-0.0729654389	-5.7185756701	-1.8058244906	 0.121938
H	 1.1592360824	-2.2507570265	-3.1512907793	 0.107736
H	 2.4767877342	-2.5876375501	-2.0447641198	 0.112463
74.5064	97.3312	112.8217	164.8114	199.4631	235.0742	322.1037	354.65	430.1384	490.2821	511.578	586.3069	800.3346	895.411	908.4976	936.5905	953.6817	972.5226	997.0187	1010.7154	1120.2768	1132.1433	1153.7823	1166.0194	1178.6402	1186.8166	1225.6204	1238.4897	1252.1821	1306.9587	1310.6904	1355.7827	1372.145	1408.4687	1420.618	1424.4064	1480.7744	1485.8541	1486.675	1502.1942	1513.5021	1526.8029	1736.4093	2938.1141	2969.3676	2973.3772	3001.5905	3009.6434	3016.3619	3038.9215	3055.3165	3117.0534	3130.9244	3157.1549
COCC1COC=NC1	COC[C@H]1COC=NC1	
InChI=1S/C6H11NO2/c1-8-3-6-2-7-5-9-4-6/h5-6H,2-4H2,1H3	InChI=1S/C6H11NO2/c1-8-3-6-2-7-5-9-4-6/h5-6H,2-4H2,1H3/t6-/m0/s1
