20
gdb 96026	2.68771	1.17157	0.89521	5.7443	79.24	-0.2593	0.0393	0.2986	1323.4444	0.171738	-403.175697	-403.166623	-403.165679	-403.210153	33.263	
C	-0.5823947611	 1.3956237345	-0.1266345371	-0.422483
C	 0.0689523969	 0.0144206744	-0.0870446238	-0.004637
C	 1.3292244184	-0.1475726006	-0.9538356507	-0.238452
C	 1.9444358675	-1.4204553584	-0.3727868981	-0.070829
O	 1.6032072136	-1.42704287	 1.0165965998	-0.266439
C	 0.5714957968	-0.4870734839	 1.2897283159	 0.123966
C	 1.1315546701	 0.6256807436	 2.2064309069	-0.365402
C	 1.676580191	 0.0884099379	 3.4504397173	 0.276818
N	 2.092092691	-0.3246992566	 4.4460985113	-0.306678
H	 0.1220576825	 2.1872791107	 0.1481142533	 0.121349
H	-0.9437373111	 1.6168210354	-1.1354772191	 0.123277
H	-1.4419973756	 1.4564488127	 0.5494169417	 0.123253
H	-0.667976874	-0.7227625961	-0.4303522438	 0.089852
H	 1.1047865098	-0.2321087862	-2.0199543855	 0.108646
H	 2.0008136725	 0.708910821	-0.8208484073	 0.105005
H	 1.5289120144	-2.3161400395	-0.8569843065	 0.099891
H	 3.0344432581	-1.463078664	-0.4606361743	 0.112751
H	-0.2282696317	-1.0014824399	 1.8366386924	 0.09535
H	 1.9215647493	 1.1799607354	 1.6882385143	 0.146736
H	 0.3401272117	 1.3399194397	 2.4587882133	 0.148025
56.9514	84.0661	131.8017	186.0534	228.9784	266.9523	331.5847	364.3042	402.9443	492.5609	540.2839	581.9172	687.8608	809.1723	839.9606	904.9702	928.2498	950.911	972.035	989.9809	995.7025	1019.7701	1088.95	1125.9609	1153.9353	1177.44	1193.8685	1232.0649	1246.0492	1291.4994	1307.7874	1338.4231	1348.5541	1378.4372	1394.5815	1403.3019	1421.1472	1457.4054	1494.756	1500.7158	1509.1837	1531.8939	2365.5943	2998.6626	3016.5316	3032.6517	3035.8705	3041.1034	3047.9479	3075.8843	3092.0035	3101.5309	3104.2559	3109.1696
CC1CCOC1CC#N	C[C@H]1CCO[C@H]1CC#N	
InChI=1S/C7H11NO/c1-6-3-5-9-7(6)2-4-8/h6-7H,2-3,5H2,1H3	InChI=1S/C7H11NO/c1-6-3-5-9-7(6)2-4-8/h6-7H,2-3,5H2,1H3/t6-,7-/m0/s1
