20
gdb 20020	4.99757	1.04669	0.96615	1.7902	76.48	-0.2526	0.0889	0.3415	1290.4519	0.176214	-348.976177	-348.9675	-348.966555	-349.010063	31.829	
C	 0.3786480197	 1.5310936368	 0.118841804	-0.374775
C	-0.3368812766	 0.2096387177	-0.1887557351	-0.212339
C	 0.2737280561	-0.4947076789	-1.3765409954	 0.066815
O	 1.5484314427	-1.1260817129	-1.1840654993	-0.271654
C	 0.4249229269	-1.9529804979	-1.5172970204	 0.056474
C	-0.0185451305	-2.9638934825	-0.5156047371	-0.005358
C	-1.0607161271	-3.9826134046	-0.9181078413	-0.26894
C	 0.3670836331	-4.4115899986	-0.7134851469	-0.266489
H	 1.4347158754	 1.3516567457	 0.3411349094	 0.134654
H	 0.3277902848	 2.2172634978	-0.7336975376	 0.114536
H	-0.0719283416	 2.0333431805	 0.9799388295	 0.112024
H	-0.3023137271	-0.4410122324	 0.6899296182	 0.104001
H	-1.3968274055	 0.3976249344	-0.4047034805	 0.100066
H	 0.2167452179	 0.0801904689	-2.3057461545	 0.08034
H	 0.4599447301	-2.343448147	-2.5388488344	 0.07913
H	-0.0501688419	-2.613385845	 0.5096017404	 0.089648
H	-1.8017417181	-4.2696044568	-0.1807983088	 0.115477
H	-1.4397022382	-3.9447314306	-1.9343166297	 0.113662
H	 0.95407726	-4.659286077	-1.5917780734	 0.116988
H	 0.6122633799	-4.9970151176	 0.1652658927	 0.115741
54.2318	74.2068	138.0293	186.8719	238.7949	288.2484	303.1349	418.2521	485.281	570.5893	749.286	758.7552	803.5199	827.9927	839.5422	899.5477	919.2421	949.7519	975.7099	1024.3418	1050.8906	1062.74	1078.4412	1110.1726	1126.977	1144.2971	1182.9738	1198.2353	1214.6148	1224.3003	1291.3905	1302.8662	1329.8646	1349.5218	1408.6667	1431.5799	1469.2638	1473.2107	1493.9598	1499.5126	1508.4253	1518.8295	3028.0909	3036.0095	3053.7431	3066.4883	3083.9085	3106.9063	3116.5725	3131.893	3136.1642	3176.3821	3210.664	3226.2175
CCC1OC1C1CC1	CC[C@H]1O[C@H]1C1CC1	
InChI=1S/C7H12O/c1-2-6-7(8-6)5-3-4-5/h5-7H,2-4H2,1H3	InChI=1S/C7H12O/c1-2-6-7(8-6)5-3-4-5/h5-7H,2-4H2,1H3/t6-,7+/m1/s1
