20
gdb 109053	3.41376	1.20834	1.06999	1.7147	80.76	-0.2268	0.0239	0.2507	1221.8968	0.172294	-403.15903	-403.150566	-403.149622	-403.192476	32.07	
C	 0.3518015406	 1.0838968095	 0.605031303	-0.377882
C	-0.3156835174	 0.2493357536	-0.4998950429	-0.249529
C	 0.6693142213	-0.3012514563	-1.4937136586	 0.385371
N	 0.6393358848	 0.0157305914	-2.7228890258	-0.300179
C	 1.6607955489	-0.4926713814	-3.5858724108	 0.016139
C	 3.1133503062	-0.1712154824	-3.2798952743	-0.298513
C	 2.5901429098	-1.5674994794	-3.0808810064	-0.057222
C	 2.2745207086	-2.078940954	-1.6967419211	-0.10007
O	 1.5789089825	-1.1213400452	-0.8845888558	-0.271667
H	 1.0802295745	 0.4866902189	 1.1590478465	 0.131404
H	 0.8713725922	 1.9488004141	 0.180688021	 0.122732
H	-0.3977851903	 1.4528678023	 1.3109543136	 0.114836
H	-0.853206712	-0.590765168	-0.0425756962	 0.110168
H	-1.0367699928	 0.8495400901	-1.0581422377	 0.12318
H	 1.3692891974	-0.5016173893	-4.6304806272	 0.092194
H	 3.7828210141	 0.0093964256	-4.1137271482	 0.114885
H	 3.3052398182	 0.4389666132	-2.4033959824	 0.125714
H	 2.9156889872	-2.3376214383	-3.774182362	 0.091567
H	 1.6520569611	-2.9812687929	-1.7739332174	 0.110425
H	 3.1747480153	-2.3369634518	-1.1298670572	 0.116447
61.9221	114.0014	141.1935	215.0321	252.7344	320.6108	375.8571	408.7298	526.175	590.2601	670.1017	736.754	763.8162	801.8057	819.6369	830.4772	908.4429	930.9074	977.851	995.5513	1020.3938	1052.1228	1080.4632	1097.6964	1104.1958	1125.9333	1142.4353	1181.2587	1222.7315	1236.7914	1282.6481	1295.5196	1354.4551	1375.6107	1394.719	1406.8253	1421.3434	1473.1764	1483.2488	1497.8324	1509.752	1515.467	1735.7665	3008.4975	3034.3808	3043.6582	3069.0583	3108.2422	3113.8054	3131.3068	3132.3476	3149.5938	3164.3168	3221.0311
CCC1=NC2CC2CO1	CCC1=N[C@H]2C[C@H]2CO1	
InChI=1S/C7H11NO/c1-2-7-8-6-3-5(6)4-9-7/h5-6H,2-4H2,1H3	InChI=1S/C7H11NO/c1-2-7-8-6-3-5(6)4-9-7/h5-6H,2-4H2,1H3/t5-,6-/m0/s1
