22
gdb 60436	3.97492	0.63598	0.59315	3.6674	80.33	-0.2394	0.0373	0.2767	1944.2427	0.191478	-441.527019	-441.515531	-441.514587	-441.565663	39.922	
C	-0.1176430662	 1.2980488216	-0.462348627	-0.405424
C	-0.0137510231	-0.1211387099	 0.0939765687	 0.138521
O	 0.562485489	-0.1233969366	 1.4026774208	-0.432656
C	-1.3586552057	-0.8564423944	 0.0772827659	-0.1886
C	-1.2318889172	-2.3116236582	 0.5467033997	-0.164114
N	-2.5036906585	-3.0167695905	 0.6001480974	-0.30848
C	-3.0825074803	-3.5412915662	-0.5177851565	 0.404589
C	-4.4123632195	-4.2479352802	-0.2985591008	-0.480509
O	-2.5659339964	-3.458160081	-1.6192988696	-0.381057
H	 0.8543787156	 1.7966436345	-0.4162375208	 0.123885
H	-0.4582216099	 1.291266589	-1.5024574626	 0.122769
H	-0.8357590489	 1.8915677172	 0.1182435583	 0.104024
H	 0.7031658364	-0.6886054213	-0.5131856924	 0.09517
H	 0.0251149947	 0.4564523739	 1.9542100735	 0.274098
H	-2.0708866748	-0.3195410654	 0.7211913171	 0.07387
H	-1.7733141245	-0.8495965765	-0.9360389747	 0.125278
H	-0.5811020728	-2.8567954561	-0.1438493063	 0.133051
H	-0.7735837462	-2.3425840005	 1.5379486334	 0.112992
H	-2.9868270746	-3.081394453	 1.4795984928	 0.242289
H	-5.1728129305	-3.7685255102	-0.9206628411	 0.150453
H	-4.3191342185	-5.2826688149	-0.6387280346	 0.152492
H	-4.749755918	-4.2452690113	 0.7413406287	 0.107359
34.9032	42.8029	58.4738	77.0573	117.6344	188.3585	243.8055	270.4363	297.2812	307.8326	387.1423	394.9009	436.3217	480.7627	508.7914	626.8195	652.1457	760.87	855.5738	886.7426	938.3819	977.3465	997.7767	1027.116	1051.4738	1083.5508	1110.1007	1120.4618	1163.7497	1217.1416	1273.0296	1289.2546	1315.9292	1347.2804	1378.4186	1395.2122	1401.5564	1410.0556	1421.2817	1469.1097	1470.6021	1484.384	1486.2614	1493.5224	1496.0238	1536.0625	1773.46	3001.9151	3021.7814	3035.664	3049.335	3062.089	3080.7814	3095.0684	3117.7166	3119.8831	3127.4575	3127.9821	3658.3034	3793.8945
CC(O)CCNC(C)=O	C[C@@H](O)CCNC(=O)C	
InChI=1S/C6H13NO2/c1-5(8)3-4-7-6(2)9/h5,8H,3-4H2,1-2H3,(H,7,9)	InChI=1S/C6H13NO2/c1-5(8)3-4-7-6(2)9/h5,8H,3-4H2,1-2H3,(H,7,9)/t5-/m1/s1
