19
gdb 57305	2.89715	1.10581	1.03322	3.5578	72.71	-0.247	-0.0325	0.2145	1264.1005	0.155022	-460.15327	-460.143067	-460.142123	-460.189316	36.61	
C	-0.047171733	 1.4872447852	 0.1111246428	-0.41305
C	 0.0206640392	-0.041541039	 0.0483665247	 0.239084
C	 0.9688444804	-0.6098269184	 1.1202304754	-0.419499
O	-1.2814585221	-0.6159360178	 0.1743680428	-0.463055
C	 0.5630899632	-0.4860045746	-1.3236484488	 0.355968
O	 1.4703333227	 0.1087191781	-1.8558067892	-0.326657
C	-0.057301048	-1.7050036778	-1.9611442642	-0.014343
C	-0.3008138539	-1.672291159	-3.4201095705	-0.160845
O	 0.7840279683	-2.4015505423	-2.8821225792	-0.215195
H	 0.921836108	 1.9219072076	-0.1408765895	 0.145786
H	-0.7920529827	 1.8603373291	-0.5968404213	 0.12613
H	-0.3307881611	 1.8132289488	 1.1179406224	 0.102284
H	 0.6162943375	-0.3232692627	 2.11801749	 0.110633
H	 1.0040062345	-1.7020228165	 1.0703487517	 0.131138
H	 1.9809152733	-0.2190639309	 0.9875879654	 0.143855
H	-1.6145254716	-0.4033438903	 1.0521739784	 0.283058
H	-0.6888694749	-2.3273872352	-1.3374459571	 0.120321
H	-1.1214104041	-2.2609071302	-3.8278269106	 0.121836
H	-0.0276938956	-0.7721755442	-3.9677313532	 0.132551
24.1938	55.4127	191.9354	209.8628	223.6595	232.2949	266.4421	274.8889	302.5848	318.3196	360.3739	428.0861	490.0994	585.1115	755.9127	767.0658	826.5186	874.7982	903.7479	930.0705	974.6643	1004.5369	1016.6488	1074.3166	1099.0326	1140.7764	1163.459	1172.4502	1186.2488	1224.6759	1277.4922	1367.7812	1390.2781	1404.9625	1415.1944	1477.8899	1481.3287	1495.9173	1508.7559	1511.1171	1808.6302	3030.4109	3039.6035	3086.5009	3102.1843	3111.536	3128.6337	3143.4942	3179.3349	3190.3103	3817.46
CC(C)(O)C(=O)C1CO1	CC(C)(O)C(=O)[C@H]1CO1	
InChI=1S/C6H10O3/c1-6(2,8)5(7)4-3-9-4/h4,8H,3H2,1-2H3	InChI=1S/C6H10O3/c1-6(2,8)5(7)4-3-9-4/h4,8H,3H2,1-2H3/t4-/m1/s1
