20
gdb 63898	2.40011	1.64997	1.35103	2.1245	78.3	-0.2381	-0.0226	0.2154	1056.0466	0.170805	-403.15403	-403.145392	-403.144448	-403.186889	33.493	
C	 0.473570474	 1.3684234367	-0.0327599146	-0.433777
C	 0.0045237756	-0.0980752793	-0.0419672823	 0.159814
C	-1.5338167253	-0.1410586134	 0.0095016173	-0.420796
C	 0.5615231139	-0.9461535426	-1.218647663	-0.221218
N	 1.4725608203	-2.0052989122	-0.6999935473	-0.09462
C	 2.6390259377	-1.46808176	-0.0206472225	-0.245233
C	 1.4560837127	-1.9261895828	 0.7744028756	-0.143534
C	 0.5319683752	-0.8360406074	 1.2134954536	 0.405017
O	 0.1952242059	-0.5983295634	 2.3468785843	-0.345056
H	 1.5620473587	 1.4591781571	-0.0976612558	 0.116802
H	 0.0437886495	 1.9112741939	-0.8813529979	 0.118018
H	 0.1495106794	 1.8608254476	 0.8888563963	 0.138697
H	-1.9602115003	 0.3788907821	-0.8548079993	 0.114343
H	-1.9060881429	-1.1705644158	 0.0029381734	 0.119532
H	-1.8911994882	 0.3413113786	 0.9232156748	 0.137815
H	-0.2525256833	-1.4557691053	-1.7419727932	 0.113875
H	 1.1008118903	-0.3439351132	-1.9563396328	 0.109816
H	 3.5208846092	-2.1019599997	-0.0358529145	 0.131159
H	 2.8452110135	-0.4022992333	-0.0798663054	 0.123383
H	 1.5002521542	-2.8415281175	 1.3545399434	 0.115963
79.6929	190.8509	205.6022	223.4425	253.71	296.3484	336.1006	352.5061	412.873	481.2194	602.6831	613.0556	683.777	762.9196	784.6384	858.5118	880.6002	929.6533	940.0598	964.2255	980.1271	996.2189	1037.6034	1061.7984	1100.8434	1136.2713	1156.6883	1201.1995	1227.6503	1234.8385	1250.1974	1284.7493	1328.4613	1365.9934	1393.4944	1418.813	1480.9658	1485.617	1497.0348	1501.6406	1507.6768	1516.4505	1830.2742	3031.4257	3034.3321	3050.4976	3091.3412	3099.6445	3102.4385	3109.6248	3114.6217	3122.0606	3175.2861	3196.5801
CC1(C)CN2CC2C1=O	CC1(C)CN2C[C@H]2C1=O	
InChI=1S/C7H11NO/c1-7(2)4-8-3-5(8)6(7)9/h5H,3-4H2,1-2H3	InChI=1S/C7H11NO/c1-7(2)4-8-3-5(8)6(7)9/h5H,3-4H2,1-2H3/t5-,8?/m0/s1
