17
gdb 131827	4.36784	0.83903	0.74314	1.3298	71.73	-0.2157	0.0241	0.2397	1482.7567	0.136962	-455.157881	-455.149171	-455.148226	-455.192189	31.715	
O	 0.1144135123	 1.3547497019	 0.0883943778	-0.408024
C	 0.0635593781	-0.0575382866	 0.1714694998	-0.06778
C	-1.3560970447	-0.5811693123	-0.0959804142	-0.176784
N	-1.4382612643	-2.0221259933	-0.012899593	 0.051074
C	-1.9591946624	-2.7822310151	 0.9779458837	-0.009531
C	-1.7396249469	-4.1046675714	 0.6503902568	-0.337257
C	-1.0586420799	-4.0306991589	-0.5820604306	 0.444514
O	-0.6325098039	-5.0845878802	-1.3089224173	-0.428221
N	-0.8691086223	-2.7826632619	-0.9887814466	-0.385159
H	 0.059052438	 1.601761374	-0.8400862628	 0.288524
H	 0.7647012604	-0.5451535893	-0.5182644787	 0.118519
H	 0.363617074	-0.3205650016	 1.190954016	 0.119171
H	-2.0498604131	-0.1546641146	 0.6331338003	 0.126907
H	-1.6819003881	-0.271816843	-1.0955973381	 0.11727
H	-2.4469097781	-2.3319936614	 1.828843926	 0.132782
H	-2.0290637872	-4.9845351711	 1.1988061272	 0.11188
H	-0.2102644019	-4.7289763852	-2.1007962164	 0.302113
55.5582	85.19	93.6766	268.5994	299.1892	310.8441	336.4176	381.4888	413.1711	470.0114	622.0583	682.612	715.1454	759.3618	781.4209	791.7936	827.3286	1009.409	1026.5742	1030.5138	1065.5907	1069.2833	1090.0248	1161.1045	1202.1343	1274.354	1297.2103	1340.8104	1351.1303	1400.2056	1415.7339	1426.6134	1479.633	1487.8232	1512.3552	1565.7735	1597.8828	3024.6603	3043.8482	3083.1848	3114.5141	3253.1986	3285.506	3797.2216	3819.3512
OCCN1C=CC(O)=N1	OCCn1ccc(O)n1	
InChI=1S/C5H8N2O2/c8-4-3-7-2-1-5(9)6-7/h1-2,8H,3-4H2,(H,6,9)	InChI=1S/C5H8N2O2/c8-4-3-7-2-1-5(9)6-7/h1-2,8H,3-4H2,(H,6,9)
