20
gdb 68234	3.15312	1.60227	1.38235	1.1865	77.51	-0.223	0.0738	0.2968	994.9374	0.173246	-403.112789	-403.105541	-403.104597	-403.143764	30.912	
O	 0.0002960313	 1.4405126031	-0.0155753626	-0.488872
C	-0.011150693	 0.0375400999	 0.029006213	 0.425869
C	 0.2516142847	-0.7072582629	 1.3781480959	-0.279704
C	-0.7586581586	-1.7605144642	 0.8490185496	 0.008306
C	-1.412414061	-0.597622056	 0.0347513053	-0.277781
N	 0.0138521582	-2.7437163962	 0.0736956309	-0.088126
C	-0.333367682	-2.9688763675	-1.3293591618	-0.255501
C	 0.846311459	-2.1290762572	-0.9736555324	-0.010387
C	 0.838678989	-0.6000701066	-1.0843866656	-0.301841
H	 0.9159062429	 1.737815	-0.0595640184	 0.273119
H	 1.2613753247	-1.0610592506	 1.602377437	 0.0938
H	-0.1492545338	-0.1318367883	 2.2150524719	 0.103995
H	-1.3936307549	-2.2906070594	 1.5601356552	 0.076961
H	-2.0855803976	-0.0267512985	 0.6791240628	 0.108452
H	-1.9095501757	-0.789121723	-0.9181898712	 0.094972
H	-0.1834155958	-3.9871035746	-1.6790597933	 0.112182
H	-1.2081042831	-2.4796128597	-1.7470330694	 0.113527
H	 1.827130095	-2.5882897636	-1.0744956521	 0.090447
H	 0.4729503476	-0.2592856322	-2.0604106953	 0.110368
H	 1.8714493831	-0.2394503424	-0.9872414294	 0.090215
207.0013	251.4019	275.3772	329.7316	404.074	416.1146	445.7128	469.9722	497.6584	606.1314	653.1592	733.5676	814.3709	840.2178	878.7618	879.1457	895.7118	937.9163	947.9176	973.7288	994.3663	1035.9274	1059.3668	1082.6269	1112.1413	1120.7398	1145.7204	1164.6584	1178.8888	1185.8466	1218.8588	1238.0199	1256.8805	1266.8783	1312.972	1337.7609	1340.4535	1394.4575	1401.2417	1467.969	1485.1269	1498.8593	1523.11	3013.4023	3056.641	3060.6348	3068.2874	3094.9786	3109.5989	3120.7938	3121.9915	3128.6169	3193.0285	3797.7804
OC12CC(C1)N1CC1C2	O[C@@]12C[C@@H](C1)N1C[C@H]1C2	
InChI=1S/C7H11NO/c9-7-1-5(2-7)8-4-6(8)3-7/h5-6,9H,1-4H2	InChI=1S/C7H11NO/c9-7-1-5(2-7)8-4-6(8)3-7/h5-6,9H,1-4H2/t5-,6-,7-,8?/m1/s1
