22
gdb 100769	2.81459	1.02959	0.805	1.3735	78.19	-0.2502	0.0649	0.3151	1449.0705	0.193247	-441.447223	-441.436917	-441.435973	-441.482605	38.198	
C	 0.5015323502	 1.6218637306	-0.2526158712	-0.411592
C	 0.0931486786	 0.154011134	-0.0514983112	-0.004026
C	 0.4935984059	-0.7509990025	-1.2418448284	 0.094513
O	 0.2191888077	-2.1219449248	-0.9796681282	-0.449605
C	-0.2644108963	-0.4599163177	-2.5469088145	-0.076101
O	 0.1005267589	 0.7531859531	-3.1834515927	-0.40995
C	 0.6928382557	-0.3809923869	 1.2360246896	-0.003886
C	 0.0026821556	-0.241197688	 2.5384552639	-0.252172
N	 0.1180112112	-1.5698858773	 1.9059147619	-0.341904
H	 1.5926342623	 1.7145853147	-0.3149871381	 0.107991
H	 0.082865329	 2.0298516072	-1.1727901776	 0.147053
H	 0.168306443	 2.2283426156	 0.5950656848	 0.111874
H	-1.0018618372	 0.0953666986	 0.0419939285	 0.068362
H	 1.5742088187	-0.6081137697	-1.4360293487	 0.050541
H	 0.6519142957	-2.3689702731	-0.1547584006	 0.30278
H	-0.1193957592	-1.3254133599	-3.2079631632	 0.105216
H	-1.3368670371	-0.3838221381	-2.3387608119	 0.114046
H	 1.0144992274	 0.6721703344	-3.4742168663	 0.284488
H	 1.7834807498	-0.3799970115	 1.2531170909	 0.090489
H	 0.5753717314	-0.1157733416	 3.4526249761	 0.120941
H	-0.9727495149	 0.2391432045	 2.545986416	 0.114775
H	-0.7676060166	-1.7993042918	 1.4592000613	 0.236167
50.6499	111.2843	128.4371	169.303	207.6645	245.1637	259.277	284.6792	315.009	375.3078	437.2223	454.4111	468.4925	478.1387	566.8697	791.5925	843.8195	848.4833	931.1154	958.2329	972.8055	986.288	1014.3379	1062.1355	1071.9489	1094.922	1115.538	1125.9559	1141.0054	1173.285	1187.5299	1237.742	1255.9965	1283.1123	1294.2769	1307.2136	1330.6309	1363.5907	1388.7776	1405.8171	1416.718	1430.7046	1432.6324	1494.7155	1505.5722	1507.7522	1511.5813	2914.6082	2995.9135	3012.5845	3033.1039	3080.3917	3093.6797	3099.473	3108.4887	3151.3465	3194.1823	3487.84	3799.696	3816.5665
CC(C(O)CO)C1CN1	C[C@@H]([C@@H](O)CO)[C@H]1CN1	
InChI=1S/C6H13NO2/c1-4(5-2-7-5)6(9)3-8/h4-9H,2-3H2,1H3	InChI=1S/C6H13NO2/c1-4(5-2-7-5)6(9)3-8/h4-9H,2-3H2,1H3/t4-,5-,6+/m1/s1
