15
gdb 123936	3.57059	1.6347	1.16026	4.565	67.51	-0.204	0.0024	0.2064	988.0368	0.115893	-453.924629	-453.918012	-453.917068	-453.955642	26.084	
C	-0.0205637994	 1.4437567279	 0.0256133728	-0.18504
C	 1.4361846089	 1.9506522569	 0.0058454046	-0.096423
O	 2.1638510342	 1.530170022	 1.1630708414	-0.277154
C	 1.9636127643	 0.1971801246	 1.3756817956	 0.168172
C	 0.9434071108	-0.5271797725	 0.8329138006	 0.387687
N	-0.1105445813	-0.0231326572	 0.0996412826	-0.410377
O	 1.0373436169	-1.8120683329	 1.1943586764	-0.228145
N	 2.1766092648	-1.9586759207	 2.0150342118	-0.154301
C	 2.7015353233	-0.7557856268	 2.1122195181	-0.083121
H	-0.5304962651	 1.8692610337	 0.8973255868	 0.137189
H	-0.541825957	 1.7904803504	-0.8696506847	 0.122305
H	 1.9432912937	 1.5804683858	-0.8966463363	 0.108412
H	 1.4623618582	 3.0424662541	 0.0078049801	 0.123613
H	-0.2856148681	-0.4924470556	-0.7797730391	 0.251707
H	 3.598152466	-0.6186936797	 2.6993607293	 0.135477
117.4702	239.1164	302.6346	385.3149	417.8949	463.2761	532.4339	564.0392	628.8629	703.592	716.6091	749.0241	870.4309	887.8109	897.7959	942.0364	953.8185	1040.1861	1067.6937	1121.1156	1198.7069	1217.6767	1271.6548	1287.1823	1327.2211	1376.9243	1392.9727	1438.5548	1447.7913	1481.8285	1492.4065	1552.5945	1699.3509	3007.1309	3047.1626	3112.5939	3113.7878	3247.4326	3556.8153
C1COC2=C(N1)ON=C2	C1COc2c(N1)onc2	
InChI=1S/C5H6N2O2/c1-2-8-4-3-7-9-5(4)6-1/h3,6H,1-2H2	InChI=1S/C5H6N2O2/c1-2-8-4-3-7-9-5(4)6-1/h3,6H,1-2H2
