25
gdb 95237	2.57946	1.32343	1.02499	0.18	91.96	-0.2581	0.0782	0.3363	1299.671	0.232102	-352.366711	-352.357978	-352.357034	-352.39956	35.704	
C	-0.352734233	 1.5346295846	 0.0239048274	-0.397079
C	-0.0471334571	 0.0285765188	 0.0037006786	 0.048779
C	 0.6456216521	-0.3441540779	-1.3201644446	-0.186713
C	 0.7271001667	-1.8377633781	-1.6631269961	-0.233035
C	 1.6384245822	-2.7281667861	-0.834547156	 0.006208
C	 2.8813858331	-2.2343833263	-0.1281941499	-0.30949
C	 1.7004119856	-2.735801893	 0.6727966648	 0.006211
C	 0.8605694023	-1.8542080137	 1.5823712182	-0.233036
C	 0.7518208502	-0.3572414087	 1.2623806542	-0.186712
H	 0.572820811	 2.12232134	-0.0111706595	 0.110965
H	-0.9638042328	 1.8301191695	-0.8353185036	 0.107337
H	-0.8910817498	 1.8211473229	 0.9333413798	 0.107337
H	-1.007321685	-0.5090991389	 0.0404605401	 0.064451
H	 0.093759009	 0.1403609176	-2.1355549865	 0.088134
H	 1.6491036089	 0.1029619087	-1.3413616742	 0.092165
H	-0.2889469976	-2.2582027291	-1.6384826693	 0.092128
H	 1.0518978219	-1.9186857943	-2.7091829459	 0.093368
H	 1.7395203417	-3.7155173661	-1.280549556	 0.076072
H	 3.7795611122	-2.8414631973	-0.1682035541	 0.10163
H	 3.0787663688	-1.1686159042	-0.1309055971	 0.109413
H	 1.8373889467	-3.727568435	 1.0989843106	 0.076072
H	-0.1542423469	-2.2748053289	 1.6369966852	 0.092128
H	 1.270137347	-1.9455645732	 2.5973504686	 0.093369
H	 1.753839498	 0.0900588229	 1.2056365078	 0.092164
H	 0.2689682144	 0.1187683959	 2.1251879177	 0.088134
86.3838	209.3687	225.3109	242.6563	264.6988	312.059	328.344	400.0893	418.9899	440.8794	566.1413	567.4971	714.0196	728.6744	793.7752	856.5249	857.4813	880.6281	882.3681	948.1619	977.4778	977.6215	1006.3812	1038.5433	1039.0265	1062.7341	1084.5865	1133.4793	1140.1678	1140.616	1168.6002	1170.9151	1195.9755	1255.2492	1265.5344	1288.0832	1291.1608	1332.9361	1347.5573	1385.3788	1387.9289	1390.4958	1401.0328	1402.9145	1418.0449	1433.0436	1479.6972	1485.8086	1485.9778	1497.274	1499.9718	1501.6792	1513.6338	2982.0306	2996.4838	2998.7668	3009.0437	3011.7885	3023.7085	3031.4623	3034.7112	3044.9853	3050.4092	3088.3463	3098.0502	3112.649	3124.4527	3135.6608	3215.0048
CC1CCC2CC2CC1	C[C@H]1CC[C@H]2C[C@H]2CC1	
InChI=1S/C9H16/c1-7-2-4-8-6-9(8)5-3-7/h7-9H,2-6H2,1H3	InChI=1S/C9H16/c1-7-2-4-8-6-9(8)5-3-7/h7-9H,2-6H2,1H3/t7-,8-,9+
