15
gdb 123851	3.61108	1.60428	1.14157	4.686	73.61	-0.2526	-0.0502	0.2025	1003.2601	0.115523	-416.79353	-416.787081	-416.786137	-416.824383	25.476	
C	-0.0235602804	 1.4916507581	 0.0844566888	-0.276038
C	 1.3682743234	 2.153697921	-0.0614498472	-0.333986
C	 2.1737069348	 1.4230479686	-1.0863969681	 0.28889
N	 3.1591362581	 1.8506270297	-1.8170686259	-0.176959
O	 3.5837695882	 0.7507866972	-2.5340444129	-0.161662
N	 2.8406973758	-0.3649442683	-2.2342058609	-0.189473
C	 1.9694267438	 0.0335330814	-1.3455519397	 0.307323
C	 0.9144307889	-0.711412939	-0.687690753	-0.151778
C	-0.0058973909	-0.0199327149	-0.0000575121	-0.070011
H	-0.4763638067	 1.8069369009	 1.0295544639	 0.120869
H	-0.6934156443	 1.8658006761	-0.7040916828	 0.134728
H	 1.2771116979	 3.2147888051	-0.3045438569	 0.137887
H	 1.8991069081	 2.0901605211	 0.8975111697	 0.138181
H	 0.8817881717	-1.7902135753	-0.7824101982	 0.119971
H	-0.8240846283	-0.5472502019	 0.4817781553	 0.112057
137.5213	207.5081	296.996	400.4414	429.8416	507.7326	587.8772	624.6979	693.7559	704.175	753.975	832.2376	861.3116	871.2485	918.7381	937.3315	998.4595	1019.2473	1038.763	1050.3943	1173.9464	1197.6213	1243.8811	1253.4561	1340.9421	1371.9561	1397.1463	1441.5694	1470.5935	1481.199	1550.9488	1628.8954	1687.636	3002.985	3028.1288	3076.4871	3105.592	3173.4639	3209.8792
C1CC2=NON=C2C=C1	C1Cc2nonc2C=C1	
InChI=1S/C6H6N2O/c1-2-4-6-5(3-1)7-9-8-6/h1,3H,2,4H2	InChI=1S/C6H6N2O/c1-2-4-6-5(3-1)7-9-8-6/h1,3H,2,4H2
