14
gdb 124382	4.99598	1.02146	0.99935	2.3536	63.22	-0.2655	-0.0006	0.2649	1197.0563	0.101435	-470.058702	-470.050641	-470.049697	-470.092936	27.71	
C	-0.1930488356	 1.42908023	-0.0852950631	-0.486099
C	 0.2381818554	-0.0099605414	-0.0099145494	 0.416208
O	 1.1389388573	-0.4643887728	 0.6305294778	-0.314069
O	-0.5831945385	-0.7786676959	-0.8124506151	-0.272304
C	-0.2861249363	-2.1029220514	-0.9076096423	 0.466494
N	-0.947803688	-3.0020019605	-0.205818592	-0.273192
N	-0.3841167703	-4.1491655202	-0.6577964034	-0.175814
C	 0.5579549311	-3.879748421	-1.5817813329	 0.031219
N	 0.644899121	-2.5765436884	-1.7701613492	-0.306567
H	 0.4252849795	 2.027906063	 0.5817085628	 0.152441
H	-0.0944416297	 1.7899293114	-1.1131046714	 0.159741
H	-1.2468418189	 1.5183889017	 0.1920544093	 0.157932
H	-0.694279235	-5.0346580355	-0.2928538583	 0.288634
H	 1.1380140281	-4.6412265591	-2.0805866627	 0.155375
42.8445	71.82	104.0765	118.535	338.0649	354.4186	467.7257	535.921	595.5952	598.7499	682.4002	713.7027	821.3763	855.5971	914.2549	995.1609	1005.5591	1043.2019	1063.7234	1109.4227	1182.8309	1217.7792	1302.3784	1356.4687	1394.8968	1468.5225	1474.0427	1476.4151	1495.3336	1565.6516	1869.7475	3059.6564	3125.6568	3173.5253	3262.9248	3667.0226
CC(=O)OC1=NNC=N1	CC(=O)Oc1n[nH]cn1	
InChI=1S/C4H5N3O2/c1-3(8)9-4-5-2-6-7-4/h2H,1H3,(H,5,6,7)	InChI=1S/C4H5N3O2/c1-3(8)9-4-5-2-6-7-4/h2H,1H3,(H,5,6,7)
