18
gdb 37746	3.50127	1.877	1.47145	1.0554	74.89	-0.2239	0.0782	0.3021	900.9249	0.150501	-401.838492	-401.832228	-401.831284	-401.868792	26.382	
C	-0.0440412359	 1.5643224183	 0.0029055086	-0.264576
N	 1.464096527	 1.2638398835	-0.0023773763	-0.180884
C	 1.1950757876	 0.0423411106	 0.9056365872	-0.024872
C	 1.8832602802	-0.9679297534	-0.0152540567	-0.078683
C	 1.1706861098	-2.3304224855	-0.0125350869	-0.095348
O	-0.1706132462	-2.2685827296	-0.5011152958	-0.263517
C	-0.9639443155	-1.1670439258	-0.0484575668	-0.211909
C	-0.0589755097	 0.0363656925	-0.0125889919	 0.279409
C	 1.1962387663	 0.0533482635	-0.9336156531	-0.017051
H	-0.3809507078	 2.0779551744	 0.9094717778	 0.102987
H	-0.3870166698	 2.0960300635	-0.8909639427	 0.104068
H	 1.2198439122	 0.1372756503	 1.9935943908	 0.077185
H	 2.9748068501	-1.0376951837	-0.0034173436	 0.07659
H	 1.6762441801	-3.0367178123	-0.6780540802	 0.115558
H	 1.1938201555	-2.7575833418	 1.0046195511	 0.091862
H	-1.7813665416	-1.0721353286	-0.7709214571	 0.113758
H	-1.403345188	-1.3739982902	 0.940980826	 0.09245
H	 1.2255580858	 0.1665475546	-2.0183157305	 0.082974
198.9958	240.2881	347.2365	391.3232	442.2375	488.0688	603.0668	740.8408	748.0825	811.9052	856.6331	860.5695	864.1298	878.2633	897.7305	930.3642	996.9348	1007.6184	1013.8355	1051.219	1078.5594	1099.2078	1106.8387	1127.4867	1149.9591	1190.5224	1200.4748	1208.8918	1245.7388	1248.0158	1262.4382	1298.0789	1334.1056	1343.0327	1383.1644	1415.509	1499.0029	1505.4444	1519.4459	2960.0108	2972.6254	3035.63	3067.5671	3068.3423	3079.4009	3090.2922	3096.0061	3106.957
C1N2C3C4COCC13C24	C1N2[C@@H]3[C@H]4COC[C@@]13[C@@H]24	
InChI=1S/C7H9NO/c1-4-5-7(3-9-1)2-8(5)6(4)7/h4-6H,1-3H2	InChI=1S/C7H9NO/c1-4-5-7(3-9-1)2-8(5)6(4)7/h4-6H,1-3H2/t4-,5-,6+,7+
