18
gdb 121666	2.71463	0.96652	0.76943	2.2665	70.3	-0.2456	0.0187	0.2643	1474.0078	0.14672	-476.222223	-476.212655	-476.21171	-476.258093	33.464	
O	 0.5197334869	 0.2243413103	-0.9090849098	-0.421644
C	-0.2492534136	-0.3356934178	 0.1488759872	-0.078222
C	-1.6283513194	 0.3040262824	 0.0800999055	-0.147838
N	-2.2542040479	 0.0498424842	-1.2014614601	-0.320887
C	-3.4616486716	-0.5541219881	-1.327388217	 0.379542
O	-4.1814934873	-0.8946757433	-0.4037463767	-0.387844
C	-3.8948544616	-0.7658960765	-2.759799197	-0.016981
C	-4.0651068931	 0.3776352569	-3.6721514828	-0.16801
O	-2.9406433964	-0.4939050531	-3.7910600654	-0.236077
H	 1.3364527937	-0.275314113	-0.9937227045	 0.293799
H	-0.3433063807	-1.4259242507	 0.039359173	 0.101513
H	 0.2029416813	-0.1265372959	 1.13038426	 0.094617
H	-2.2850895795	-0.1031264726	 0.8520849399	 0.144656
H	-1.5273734791	 1.3843769407	 0.2460358083	 0.115645
H	-1.6981326234	 0.1708000424	-2.035872884	 0.267107
H	-4.5115160165	-1.6500134038	-2.9033176927	 0.122406
H	-4.7932918253	 0.312993202	-4.4783240367	 0.12983
H	-3.8428593067	 1.380514286	-3.312886767	 0.128389
37.4952	75.5162	110.0694	115.1667	199.6169	255.2723	265.4359	301.9024	352.4253	476.4843	523.6264	615.9187	654.9395	750.2272	815.4118	871.3896	887.1536	920.0319	960.7125	1020.7255	1081.4829	1092.7822	1105.4848	1145.9428	1154.0301	1168.199	1218.5007	1249.9124	1261.9741	1270.3	1314.8124	1385.5882	1401.2612	1453.2795	1485.4346	1515.2475	1519.3591	1546.7437	1780.9427	2983.2982	3014.5584	3034.9874	3094.0502	3121.2444	3151.2506	3187.5935	3614.8577	3839.9204
OCCNC(=O)C1CO1	OCCNC(=O)[C@H]1CO1	
InChI=1S/C5H9NO3/c7-2-1-6-5(8)4-3-9-4/h4,7H,1-3H2,(H,6,8)	InChI=1S/C5H9NO3/c7-2-1-6-5(8)4-3-9-4/h4,7H,1-3H2,(H,6,8)/t4-/m1/s1
