18
gdb 38559	3.55948	2.06208	1.73148	1.4893	78.57	-0.2193	0.0043	0.2236	834.6376	0.151201	-364.731772	-364.726052	-364.725108	-364.761277	25.975	
C	-0.052062539	 1.5756262661	 0.1021364789	-0.341286
C	 1.4917199464	 1.3350991737	-0.0140957412	-0.006707
C	 1.8783924248	 0.6967840794	 1.3312901113	-0.246438
C	 0.9872489711	-0.5231871588	 1.122560952	-0.041062
C	 1.4787930222	-1.2103711475	-0.1767276504	-0.070272
C	 0.2403322539	-2.0251175795	-0.604031432	-0.073103
C	-0.7879767584	-1.18221066	-0.4416808695	-0.198054
C	-0.0526374128	 0.0514740231	 0.0371570819	 0.295385
N	 1.1682357052	 0.1114157754	-0.8864825853	-0.14711
H	-0.4305901222	 2.0785872575	 0.9948102228	 0.097544
H	-0.4641846468	 2.0203886745	-0.8054021921	 0.119826
H	 2.1499182935	 2.0812942305	-0.4566264061	 0.073351
H	 2.9427167363	 0.4521772205	 1.403767676	 0.099703
H	 1.6021790629	 1.3063915197	 2.1970305583	 0.097391
H	 0.6561084919	-1.1118397541	 1.9798893093	 0.062597
H	 2.4648010054	-1.6680166283	-0.2861421317	 0.059704
H	 0.2477665508	-3.0469996341	-0.9543255418	 0.106389
H	-1.8439079053	-1.3175970881	-0.6189564205	 0.112142
341.1767	388.9234	428.192	441.1496	536.7705	632.9864	638.7539	686.459	734.4771	764.5639	829.2741	841.5066	882.1968	889.6309	903.3539	907.2904	921.9118	950.9121	978.394	990.275	997.823	1022.7758	1046.7037	1074.445	1134.1287	1141.5312	1171.3049	1201.1599	1212.9253	1223.5043	1236.6464	1262.3216	1276.1032	1296.682	1312.2511	1347.852	1476.0589	1499.6597	1596.6016	3048.1916	3069.9631	3084.892	3092.4582	3102.0621	3126.3798	3137.4813	3231.1347	3258.4021
C1C2CC3C4C=CC13N24	C1[C@H]2C[C@@H]3[C@H]4C=C[C@@]13N24	
InChI=1S/C8H9N/c1-2-8-4-5-3-6(8)7(1)9(5)8/h1-2,5-7H,3-4H2	InChI=1S/C8H9N/c1-2-8-4-5-3-6(8)7(1)9(5)8/h1-2,5-7H,3-4H2/t5-,6-,7-,8-/m1/s1
