21
gdb 6332	3.46859	1.21581	1.0367	0.8157	78.2	-0.2382	0.034	0.2722	1258.6043	0.185012	-366.283776	-366.273182	-366.272238	-366.320128	36.598	
C	-0.0600964441	 1.4800188446	 0.0022743316	-0.32293
N	-0.0619131097	 0.0283384149	 0.0240630784	-0.289634
C	 0.5272669841	-0.5943861381	-0.9107911168	 0.408642
C	 1.2479788088	-0.0032299314	-2.0977093864	-0.488206
O	 0.5808269866	-1.9442491715	-0.942586026	-0.269041
C	-0.0447115524	-2.6818326264	 0.1337821722	 0.162433
C	-1.5403045317	-2.8263365686	-0.1331296367	-0.394214
C	 0.6842581197	-4.017123776	 0.2004771258	-0.392229
H	 0.9539758818	 1.9064389679	 0.0068137751	 0.10942
H	-0.5804866266	 1.8887355819	-0.8765816295	 0.11071
H	-0.5769293356	 1.852211392	 0.8908662194	 0.122192
H	 2.0781305835	 0.627711413	-1.7629721036	 0.141849
H	 1.6366199325	-0.7901797936	-2.7435952068	 0.139554
H	 0.5720782647	 0.6358412694	-2.6752047432	 0.140801
H	 0.1048948578	-2.1125256643	 1.0556422903	 0.10392
H	-2.0157787619	-1.8445885057	-0.1689779755	 0.136722
H	-1.7129658606	-3.3439768836	-1.0825352352	 0.113402
H	-2.0105172344	-3.4087044719	 0.6658542916	 0.111857
H	 1.7524436029	-3.8680106992	 0.3803654574	 0.119206
H	 0.2785724262	-4.6281547946	 1.0124211322	 0.115253
H	 0.5678801184	-4.5703823189	-0.7370492244	 0.120295
38.1429	68.439	84.0815	115.5359	167.3562	212.5603	244.8006	267.0496	283.8621	319.2557	397.6622	447.2535	489.9428	585.682	637.9743	799.7699	858.9782	930.6682	940.8994	950.1335	1029.3781	1050.4283	1099.6175	1114.028	1146.5894	1154.4531	1169.9372	1205.704	1307.7106	1357.2501	1382.3105	1398.2408	1401.1906	1415.0986	1444.0009	1478.7715	1480.1175	1481.4688	1486.3937	1487.8411	1495.4785	1510.4428	1512.4729	1736.9589	2980.2657	3026.9033	3037.139	3041.4698	3043.571	3070.4147	3093.9359	3099.523	3104.4042	3116.0616	3118.3689	3138.542	3154.2158
CN=C(C)OC(C)C	CN=C(C)OC(C)C	
InChI=1S/C6H13NO/c1-5(2)8-6(3)7-4/h5H,1-4H3	InChI=1S/C6H13NO/c1-5(2)8-6(3)7-4/h5H,1-4H3
