19
gdb 38269	3.13614	1.63943	1.35255	1.7006	74.72	-0.2341	0.0793	0.3133	984.7999	0.161669	-422.949504	-422.942738	-422.941794	-422.980289	28.573	
C	-0.0191898694	 1.6566752375	 0.2009717187	-0.279244
C	 1.4326772373	 1.1758820324	 0.04275398	-0.00735
O	 1.1015940854	 0.0173707928	 0.9325321171	-0.365037
C	-0.0073642078	 0.1178946202	-0.0481288088	 0.444738
C	-1.1409322068	-0.8238173207	-0.2890977944	-0.364114
C	-1.6525835543	-0.4452067358	-1.7083609412	-0.069129
O	-0.6321367794	-0.4087297843	-2.6961442832	-0.249992
C	 0.3640635279	 0.6009209972	-2.4925032367	-0.146608
C	 1.0370892517	 0.2775553998	-1.1661919739	 0.003813
H	-0.2948083638	 1.9457386187	 1.2156098658	 0.107925
H	-0.4423629299	 2.3218936848	-0.5537399635	 0.097086
H	 2.3663206115	 1.6973478189	 0.2539673598	 0.094037
H	-0.7729223092	-1.855282385	-0.2896564728	 0.122608
H	-1.9545970314	-0.7411226669	 0.4392452497	 0.106236
H	-2.3759300606	-1.1860647118	-2.0578942484	 0.116089
H	-2.165282478	 0.5294604791	-1.6582233834	 0.093897
H	 1.040871205	 0.521927951	-3.3470294762	 0.111434
H	-0.0949727851	 1.5998196252	-2.5134365194	 0.094651
H	 1.6806191568	-0.6012162729	-1.2496562291	 0.08896
169.5689	257.6714	341.1614	361.2722	387.9618	441.7203	514.2489	564.5799	631.5737	668.0538	711.8776	816.7544	850.1228	859.4271	906.8714	924.6411	938.3755	952.3458	988.5466	1012.8039	1058.1422	1079.4286	1111.5625	1119.3234	1128.6447	1156.8516	1198.468	1212.6934	1219.8787	1238.803	1277.8303	1293.9966	1307.1518	1350.5221	1381.0384	1388.6356	1422.0088	1478.2703	1487.0578	1497.2877	1515.6011	2972.408	3002.1758	3043.5934	3076.3326	3085.6078	3092.8882	3098.38	3101.0609	3118.9768	3150.108
C1C2OC11CCOCC21	C1[C@H]2O[C@]31CCOC[C@@H]23	
InChI=1S/C7H10O2/c1-2-8-4-5-6-3-7(1,5)9-6/h5-6H,1-4H2	InChI=1S/C7H10O2/c1-2-8-4-5-6-3-7(1,5)9-6/h5-6H,1-4H2/t5-,6+,7-/m0/s1
