15
gdb 24270	4.10352	1.6448	1.28468	4.6072	70.45	-0.1904	0.0246	0.215	934.1895	0.11636	-416.809859	-416.803623	-416.802679	-416.840312	25.467	
C	-0.0107592022	 1.474565797	 0.1116377661	-0.319976
C	 1.2918811967	 0.7321109915	 0.0438454221	 0.095279
O	 1.9974387873	 0.4131935747	 1.238899453	-0.264941
C	 1.1622324444	-0.4360419881	 1.9092945454	 0.367472
C	 0.0329565682	-0.7762127337	 1.227313736	 0.231891
N	-0.6512195288	-1.5971505678	 2.0987648091	-0.380276
C	 0.1308127257	-1.6983305725	 3.2223451422	-0.011932
N	 1.2461619138	-0.9841475458	 3.1416780389	-0.347295
C	-0.040077853	-0.0455929178	-0.0473050439	-0.229315
H	-0.3331933669	 1.8923719482	 1.0585357229	 0.129648
H	-0.2536876619	 2.069780012	-0.7626709956	 0.118392
H	 1.9621107115	 0.8698989263	-0.7946745	 0.111807
H	-1.5306182675	-2.0611169308	 1.9486354085	 0.268134
H	-0.1524710328	-2.3195053319	 4.0579167543	 0.131615
H	-0.3908306344	-0.4928907813	-0.9709588089	 0.099497
138.1456	274.1989	367.6293	456.1644	459.6301	482.639	625.8715	661.0015	703.2684	740.4719	756.0844	769.6386	788.677	822.8781	932.1801	959.9406	972.3735	1033.4017	1058.5267	1076.9542	1097.3081	1137.4299	1161.429	1183.3971	1233.6882	1299.5574	1349.3542	1388.854	1418.0084	1455.8529	1466.968	1528.5348	1622.3896	3131.6518	3161.6698	3200.0663	3226.0301	3260.4559	3674.012
C1C2OC3=C(NC=N3)C12	C1[C@H]2Oc3c([nH]cn3)[C@@H]12	
InChI=1S/C6H6N2O/c1-3-4(1)9-6-5(3)7-2-8-6/h2-4H,1H2,(H,7,8)	InChI=1S/C6H6N2O/c1-3-4(1)9-6-5(3)7-2-8-6/h2-4H,1H2,(H,7,8)/t3-,4+/m0/s1
