21
gdb 102682	2.66641	0.8054	0.67323	2.5	81.66	-0.2504	0.0572	0.3076	1702.0669	0.179258	-424.179415	-424.168475	-424.167531	-424.216344	38.715	
C	 0.002365548	 1.328315705	-0.1278168298	-0.242355
O	-0.0560648029	-0.0783686956	-0.0020673974	-0.256589
C	-1.3777026896	-0.6288225468	-0.0046437389	 0.075976
C	-1.8384237381	-0.8065975562	-1.4582710497	-0.070322
O	-0.9125408041	-1.5789047878	-2.1959346205	-0.419245
C	-1.3216978687	-1.9570475826	 0.7488633201	-0.180366
C	-0.8004102191	-1.8037261685	 2.1905392776	-0.360426
C	-0.7666524081	-3.0677797112	 2.9149489032	 0.292522
C	-0.748147969	-4.1226529255	 3.4911261279	-0.438499
H	 1.0567390494	 1.6108117049	-0.0776767546	 0.132847
H	-0.4105107195	 1.6853425584	-1.0816641258	 0.114275
H	-0.5384569636	 1.8260446138	 0.6904703297	 0.112966
H	-2.0632981534	 0.0633393024	 0.5117665855	 0.064776
H	-2.7998194438	-1.3305760367	-1.4864239173	 0.108943
H	-1.9919979717	 0.1818362337	-1.9213819788	 0.084377
H	-0.041948297	-1.2319139321	-1.9625524917	 0.287179
H	-2.3271966954	-2.3910010998	 0.7646469433	 0.109609
H	-0.6854993251	-2.6526748814	 0.1946151038	 0.127521
H	 0.2018599318	-1.3638173658	 2.1580075238	 0.144787
H	-1.4315701621	-1.0888922557	 2.7364806075	 0.120233
H	-0.7252331581	-5.0488040724	 4.0094076018	 0.191792
56.466	74.8462	90.4309	102.4014	138.1434	183.3444	244.047	265.3016	315.9606	346.4526	362.7551	459.7521	471.8969	548.95	614.12	635.0106	675.1567	759.5369	846.3471	916.4152	938.1557	971.3103	1040.6537	1073.6425	1101.2803	1106.661	1134.9538	1182.8249	1186.4344	1228.174	1241.3323	1261.819	1311.4887	1332.9389	1372.0756	1374.5788	1407.8667	1430.3607	1474.913	1480.3899	1486.1435	1490.43	1508.5268	1512.1958	2239.1293	2962.5081	2974.919	2991.0378	3014.9281	3040.9129	3053.9476	3071.8806	3073.4504	3108.692	3116.291	3508.1619	3772.7553
COC(CO)CCC#C	CO[C@@H](CO)CCC#C	
InChI=1S/C7H12O2/c1-3-4-5-7(6-8)9-2/h1,7-8H,4-6H2,2H3	InChI=1S/C7H12O2/c1-3-4-5-7(6-8)9-2/h1,7-8H,4-6H2,2H3/t7-/m1/s1
