16
gdb 41052	3.30284	2.16478	1.90462	0.6247	69.4	-0.2271	0.0454	0.2725	784.3147	0.12574	-400.598345	-400.592475	-400.591531	-400.62819	25.135	
C	 0.0299024946	 1.4861649889	 0.2742787657	-0.315961
C	 1.5198490912	 1.5960198505	-0.2476287273	-0.331063
C	 1.4559823208	 0.1157685766	-0.6759827263	 0.249591
C	 1.588579886	-1.2549748092	 0.0170749654	-0.009464
O	 0.552295844	-0.9361179976	 0.9823436293	-0.332802
C	 0.0753628252	-0.0183767511	-0.0494741586	 0.33348
C	-0.2847674495	-0.8012913333	-1.3190968292	-0.131536
C	 0.8747600461	-1.7393449952	-1.2897877249	-0.046952
N	 1.0095006286	-0.4484980181	-2.037608906	-0.215855
H	-0.1195689102	 1.7060975254	 1.3321794027	 0.128565
H	-0.6971844958	 2.0491135848	-0.3147676065	 0.122013
H	 1.6696309212	 2.2828945824	-1.0827458743	 0.131142
H	 2.2634233887	 1.8124397576	 0.5219391329	 0.126316
H	 2.4490198377	-1.7857125176	 0.4257117935	 0.086932
H	-1.2188044151	-0.9836337348	-1.8375133804	 0.09917
H	 0.9129442466	-2.6952404394	-1.794378006	 0.106422
182.5842	286.826	415.3055	518.5509	572.0921	627.6365	671.4071	735.9666	739.0678	761.1263	791.3072	828.4998	852.2008	875.6823	891.5439	893.8346	937.9842	967.066	1000.1579	1030.4397	1075.5333	1119.8193	1132.2389	1143.2992	1182.8118	1197.4865	1223.6756	1238.4414	1249.557	1264.9647	1293.5162	1315.8047	1326.7516	1450.2515	1464.1233	3075.125	3077.9702	3116.1632	3127.3266	3143.84	3181.5118	3214.1439
C1CC23C4OC12C1C4N31	C1C[C@@]23[C@H]4O[C@@]12[C@@H]1[C@H]4N31	
InChI=1S/C7H7NO/c1-2-7-4-3-5(9-7)6(1,7)8(3)4/h3-5H,1-2H2	InChI=1S/C7H7NO/c1-2-7-4-3-5(9-7)6(1,7)8(3)4/h3-5H,1-2H2/t3-,4+,5+,6-,7-,8?/m1/s1
