19
gdb 13426	3.48614	1.28461	1.11587	4.166	75.57	-0.2791	0.0396	0.3188	1129.0615	0.164831	-327.936291	-327.927234	-327.92629	-327.970262	32.548	
C	-0.3237222918	 1.0620420349	-1.5921923967	-0.414864
C	-0.0243679355	-0.1953009627	-0.8021450697	-0.009263
C	 1.3789795051	-0.622483706	-0.4175608787	-0.046418
C	 2.6197984181	 0.1631145336	-0.7900187316	-0.408584
C	 0.4002050293	-0.1785264893	 0.6521527264	-0.024547
C	 0.5929398851	 1.114733271	 1.4330193811	-0.364567
C	-0.6689082598	 1.6238694031	 1.9753741726	 0.265512
N	-1.671276624	 2.0119155714	 2.3998538349	-0.310057
H	 0.3582603869	 1.8854487151	-1.3661348564	 0.113222
H	-0.2475076706	 0.8672764972	-2.6672819955	 0.122492
H	-1.3402687608	 1.4143438116	-1.3884944915	 0.136604
H	-0.6930947506	-1.0141090737	-1.0555247404	 0.090346
H	 1.5473793196	-1.6965701887	-0.4374680752	 0.089786
H	 2.459454493	 1.2438980094	-0.8008294022	 0.115469
H	 3.4373243531	-0.0409341737	-0.0896049908	 0.121122
H	 2.9659258863	-0.1192668231	-1.7900820201	 0.124342
H	-0.0136968383	-0.969456767	 1.2709422087	 0.10065
H	 1.2833105444	 0.9523117223	 2.2696781362	 0.151548
H	 1.0375663204	 1.9003765946	 0.8164948587	 0.147209
49.2175	110.381	164.8646	172.2227	218.3299	220.6976	278.206	387.5655	419.041	484.4914	506.5876	567.0755	745.8397	774.0886	844.0372	905.7792	929.4653	970.8002	984.2454	1030.2121	1050.9328	1109.9866	1136.3417	1152.9752	1163.6613	1189.2427	1245.8642	1273.7675	1314.9164	1380.4866	1393.8245	1419.3467	1425.6733	1451.8484	1465.1999	1490.9168	1497.5833	1502.6913	1517.015	2360.5108	3034.8371	3038.9424	3043.6443	3090.4152	3096.5791	3097.0161	3107.56	3118.9279	3130.1527	3136.4169	3152.1724
CC1C(C)C1CC#N	C[C@H]1[C@@H](C)[C@H]1CC#N	
InChI=1S/C7H11N/c1-5-6(2)7(5)3-4-8/h5-7H,3H2,1-2H3	InChI=1S/C7H11N/c1-5-6(2)7(5)3-4-8/h5-7H,3H2,1-2H3/t5-,6+,7-
