18
gdb 111840	2.58988	1.5097	1.35641	2.9323	71.42	-0.2414	0.0116	0.253	1025.6206	0.150088	-439.071	-439.063101	-439.062156	-439.103824	29.854	
O	 0.1728661316	 1.1156541961	 0.6549814589	-0.425424
C	 0.0695759613	-0.0166491817	-0.1915203809	-0.089985
C	-1.3329740961	-0.5921878604	-0.1868895986	-0.058618
C	-1.6455123464	-2.073917045	-0.17244052	-0.118487
C	-0.5857332725	-3.1502973103	-0.0786929873	-0.095114
O	 0.2751420137	-3.0622745883	 1.0755186505	-0.22614
C	-0.0696336332	-2.2632098265	 2.1055922846	 0.119114
N	-1.0083578961	-1.4160528654	 2.1968140659	-0.268907
C	-1.8789280806	-1.2526182777	 1.0694672851	-0.017749
H	-0.0610257592	 0.8118159986	 1.540795915	 0.292711
H	 0.3208182333	 0.3320247818	-1.1988695823	 0.108464
H	 0.8129753171	-0.7812074933	 0.0726887972	 0.101038
H	-2.0575554087	 0.0220212754	-0.7146896496	 0.09882
H	-2.5145926656	-2.3909892516	-0.7411234905	 0.097802
H	-1.0797693266	-4.1271296622	-0.0273334054	 0.126129
H	 0.0868635083	-3.160052552	-0.9428582588	 0.124128
H	 0.6204838567	-2.4160747903	 2.9327495899	 0.130827
H	-2.8941595868	-1.0025059071	 1.3569952963	 0.101392
81.8492	109.9307	134.2993	243.8553	299.0103	437.421	452.1349	489.326	520.7947	624.5727	660.0231	760.7206	797.5379	841.2774	895.8742	938.8936	955.9897	965.597	989.6769	1038.4899	1068.4285	1073.3565	1115.3765	1122.0078	1142.4019	1199.1643	1223.6431	1251.3577	1279.4664	1352.6124	1364.9251	1388.2778	1411.4303	1419.7783	1434.4574	1448.2492	1513.1685	1516.3171	1716.6115	3015.2589	3035.4611	3069.5813	3071.8525	3143.4942	3151.7009	3164.7072	3169.5311	3781.1803
OCC1C2COC=NC12	OC[C@H]1[C@H]2COC=N[C@@H]12	
InChI=1S/C6H9NO2/c8-1-4-5-2-9-3-7-6(4)5/h3-6,8H,1-2H2	InChI=1S/C6H9NO2/c8-1-4-5-2-9-3-7-6(4)5/h3-6,8H,1-2H2/t4-,5+,6-/m0/s1
