16
gdb 72780	2.47043	1.78546	1.37204	2.6141	69.36	-0.2444	-0.0388	0.2056	968.2792	0.124227	-437.872809	-437.865076	-437.864132	-437.904974	29.094	
C	-0.2122335138	 1.5271184311	-0.1333131874	-0.456052
C	-0.0616747724	 0.0034360687	-0.105451544	 0.053151
C	 0.9671009123	-0.5538334552	-1.1391673561	-0.157285
O	 1.9301421318	-0.8205862059	-0.0377261467	-0.267732
C	 0.8955741387	-0.6312779397	 0.8385458975	 0.388417
N	 0.5354138427	-1.2192330391	 1.8987730238	-0.300367
C	-0.9296950434	-0.9961157531	 1.9394390829	-0.270188
C	-1.3469240041	-0.64923161	 0.4666415644	 0.314471
O	-2.407703401	-0.8369722113	-0.0520349293	-0.284871
H	 0.7608597002	 2.0099977712	-0.262481251	 0.137931
H	-0.8646795122	 1.8205247591	-0.9615379579	 0.14422
H	-0.6553184822	 1.9042091341	 0.7929447315	 0.137642
H	 0.7023913057	-1.493062892	-1.6289852896	 0.144631
H	 1.3706897192	 0.1708410004	-1.8475918083	 0.133458
H	-1.4376769367	-1.9037934134	 2.2774245627	 0.146101
H	-1.228180135	-0.1835403349	 2.6150792973	 0.136474
100.2936	196.7142	209.2627	216.0716	266.3646	307.732	402.7055	534.9211	566.5002	633.4463	664.8247	687.6012	790.4752	853.0821	859.5722	912.2176	964.5395	977.084	1009.9216	1057.9854	1115.2055	1140.9445	1177.4901	1190.1471	1218.7749	1236.8299	1270.8903	1359.5591	1413.5583	1466.6667	1489.5305	1493.2546	1504.0945	1753.2437	1874.8817	3026.108	3038.4672	3074.843	3096.3599	3113.7027	3115.129	3148.4895
CC12COC1=NCC2=O	C[C@@]12CO[C]1[N]CC2=O	
InChI=1S/C6H7NO2/c1-6-3-9-5(6)7-2-4(6)8/h2-3H2,1H3	InChI=1S/C6H7NO2/c1-6-3-9-5(6)7-2-4(6)8/h2-3H2,1H3/t6-/m0/s1
