13
gdb 27667	3.15082	1.3136	0.92922	6.1435	69.75	-0.2057	-0.0082	0.1976	1154.3494	0.091012	-448.976736	-448.968712	-448.967767	-449.009193	29.645	
N	 0.1126315442	 1.3217110567	 0.1455202983	-0.593664
C	-0.0399839434	-0.0350902251	 0.0189289589	 0.445093
N	-1.1169063456	-0.7366045347	 0.0142933213	-0.3779
C	-0.6509170354	-2.0677965925	-0.0067192802	 0.096859
C	-1.4740103717	-3.2122034722	 0.0040846947	 0.185885
N	-2.0992824604	-4.1894400028	 0.0150687257	-0.358323
C	 0.7148027437	-2.0608147971	-0.0459703331	 0.303415
N	 1.681829167	-3.0191101096	-0.1895910019	-0.600944
O	 1.1279594249	-0.762031564	-0.0239402275	-0.197894
H	 0.8852520782	 1.7117021832	-0.3761885722	 0.268119
H	-0.7544257157	 1.8182889364	-0.0022595224	 0.27751
H	 1.3323324473	-3.9606085464	-0.0740994537	 0.281423
H	 2.527633637	-2.8529245618	 0.339864682	 0.270421
131.2987	138.52	219.3292	250.4303	283.0733	326.9117	346.7472	440.6875	535.4125	536.4745	616.7803	619.912	649.0032	681.2059	726.7529	740.0699	835.0093	965.8084	1048.7306	1139.9764	1199.0034	1284.3058	1376.3059	1451.7041	1608.524	1619.488	1673.7897	1733.9777	2330.0553	3549.7685	3565.2387	3653.501	3671.9103
NC1=NC(C#N)=C(N)O1	Nc1nc(C#N)c(N)o1	
InChI=1S/C4H4N4O/c5-1-2-3(6)9-4(7)8-2/h6H2,(H2,7,8)	InChI=1S/C4H4N4O/c5-1-2-3(6)9-4(7)8-2/h6H2,(H2,7,8)
