19
gdb 93404	2.85232	1.33374	0.93935	5.753	81.12	-0.2139	-0.0051	0.2088	1234.5345	0.161622	-419.266297	-419.257684	-419.25674	-419.29918	33.663	
C	-0.0089254305	 1.5845191598	-0.0441250388	-0.428611
C	 0.024150117	 0.0514102866	 0.032577792	-0.055164
C	 0.6724206477	-0.5311458845	-1.2293705713	-0.168777
N	 0.7992040669	-1.9720748569	-1.1199962972	-0.348875
C	 1.391990267	-2.5346862081	 0.0020501525	 0.39575
O	 1.8535639847	-3.6652614153	-0.0209645481	-0.398652
C	 1.3812049502	-1.6868091115	 1.1969377182	-0.307106
C	 0.734962862	-0.500641037	 1.2587449435	 0.358186
N	 0.5734818675	 0.2004833511	 2.4334039242	-0.571696
H	 0.9998485036	 2.0109328358	-0.0127305908	 0.126407
H	-0.4739361853	 1.9026333733	-0.9821573974	 0.127176
H	-0.5993758	 2.0246900819	 0.7650590815	 0.123132
H	-1.0124528111	-0.3130235878	 0.0801835589	 0.112976
H	 0.0517043649	-0.2949635726	-2.099335993	 0.107092
H	 1.6501448019	-0.0410249697	-1.381034841	 0.096448
H	 0.9916829818	-2.4911542783	-1.9648375047	 0.237754
H	 1.8608813366	-2.1144302311	 2.070780358	 0.084692
H	 1.1296962476	-0.1096863466	 3.216297322	 0.256305
H	 0.4937274675	 1.2026062108	 2.3709257017	 0.252964
86.1421	170.4779	225.3941	231.4412	312.5045	341.1961	352.7271	407.4138	421.6679	487.0126	522.4767	551.7684	583.4227	647.4394	733.0788	750.57	756.5701	863.1848	908.8796	915.1099	973.3841	1083.1684	1096.1015	1119.2957	1127.1994	1158.7168	1259.2148	1271.0504	1290.1453	1322.8865	1359.5662	1390.0059	1401.4637	1417.3585	1466.2515	1498.1304	1509.9459	1512.9834	1639.767	1683.6695	1771.1472	2948.7505	3005.3764	3033.7856	3069.7638	3104.2103	3105.428	3187.8068	3578.6801	3604.3821	3685.8889
CC1CNC(=O)C=C1N	C[C@H]1CNC(=O)C=C1N	
InChI=1S/C6H10N2O/c1-4-3-8-6(9)2-5(4)7/h2,4H,3,7H2,1H3,(H,8,9)	InChI=1S/C6H10N2O/c1-4-3-8-6(9)2-5(4)7/h2,4H,3,7H2,1H3,(H,8,9)/t4-/m0/s1
