14
gdb 133131	2.59636	1.57195	0.98509	2.2197	67.31	-0.2621	-0.0638	0.1983	1095.6185	0.101468	-478.016862	-478.009405	-478.008461	-478.049469	27.244	
O	 0.2161439485	 1.1144886747	 0.8729035485	-0.426049
C	-0.0120540073	 0.2297585504	-0.1873503893	-0.121421
C	-1.382246828	-0.4040922062	-0.1143686156	 0.157168
N	-2.1718531298	-0.0641419452	 0.8952956031	-0.318555
C	-3.3873371822	-0.6252572794	 0.9615984199	-0.025133
C	-3.8126707245	-1.5341591725	 0.0064009686	-0.028206
N	-3.0267533052	-1.8901412428	-1.0226061955	-0.289618
C	-1.8497853854	-1.3281588553	-1.0609651104	 0.307923
F	-1.0436079887	-1.6561509567	-2.0655781341	-0.056634
H	-0.590488171	 1.1032717096	 1.4105308344	 0.295129
H	 0.0837144606	 0.7480222365	-1.1551414041	 0.121198
H	 0.7454480902	-0.5704853266	-0.1970574484	 0.121299
H	-4.0224338435	-0.337449678	 1.7929400212	 0.129909
H	-4.7959322736	-1.9910883886	 0.0553419216	 0.132992
61.1592	150.7591	196.8315	280.6588	343.5421	353.4389	485.9664	527.8971	578.2777	586.0554	612.6393	784.148	795.0477	882.4166	901.935	978.2422	1029.2417	1096.0867	1113.816	1169.4466	1241.135	1248.5013	1297.1433	1313.6909	1345.52	1445.3057	1470.3661	1486.9429	1506.0211	1596.9704	1626.1435	2977.2513	2988.9273	3177.7361	3195.9087	3694.329
OCC1=NC=CN=C1F	OCc1nccnc1F	
InChI=1S/C5H5FN2O/c6-5-4(3-9)7-1-2-8-5/h1-2,9H,3H2	InChI=1S/C5H5FN2O/c6-5-4(3-9)7-1-2-8-5/h1-2,9H,3H2
