17
gdb 19851	4.60372	1.9706	1.65842	1.4399	74.47	-0.2231	0.0136	0.2366	814.2275	0.144702	-326.66001	-326.653853	-326.652909	-326.689994	25.317	
C	-0.0278462604	 1.4677509681	 0.0443213397	-0.237495
C	 1.4690429089	 1.9356244886	 0.1103660339	-0.253729
C	 2.1773505273	 0.7989049605	-0.6386555509	-0.021992
C	 3.3970823159	-0.0841070135	-0.2520449706	-0.088411
N	 3.1553298339	-0.6811343208	 1.07574456	-0.322545
C	 2.5015740974	-1.2859793191	-0.1391121715	-0.193411
C	 1.3012570109	-0.3962297629	-0.3299966023	 0.340068
C	 0.0732855161	-0.0610166315	 0.0446943504	-0.221643
H	-0.613255881	 1.8338478467	 0.8948393823	 0.103726
H	-0.5245860599	 1.8492639508	-0.8600278254	 0.101407
H	 1.6219486966	 2.9323335265	-0.3133443988	 0.086856
H	 1.7923103061	 1.9455986409	 1.1559251462	 0.118871
H	 2.226226953	 0.9804764287	-1.7214832449	 0.078399
H	 4.4008761636	-0.0155793895	-0.6539744011	 0.089507
H	 3.9669604751	-1.2656034594	 1.2840115168	 0.227312
H	 2.6743869625	-2.3236788762	-0.3927717725	 0.099014
H	-0.728447286	-0.708258048	 0.3799766488	 0.094066
167.5187	211.9814	299.8159	439.9182	524.3492	614.8238	654.3382	681.7715	788.5629	818.7343	823.5765	860.5559	876.2537	881.2301	899.5322	930.7581	956.4531	1013.2623	1034.9193	1059.0295	1102.0169	1107.7585	1114.1629	1162.9161	1165.4762	1212.7991	1246.2909	1271.4535	1289.4408	1307.0624	1317.5316	1357.3855	1363.5126	1476.3497	1489.2761	1736.5705	2999.2704	3008.0896	3051.2939	3064.6725	3105.0987	3182.0672	3199.5085	3201.6347	3447.7096
C1CC2C3NC3C2=C1	C1C[C@H]2[C@H]3N[C@H]3[C]2[CH]1	
InChI=1S/C7H9N/c1-2-4-5(3-1)7-6(4)8-7/h2,5-8H,1,3H2	InChI=1S/C7H9N/c1-2-4-5(3-1)7-6(4)8-7/h2,5-8H,1,3H2/t5-,6+,7-/m1/s1
