20
gdb 12804	3.24794	2.00279	1.54846	0.2862	80.19	-0.2264	0.0256	0.252	916.2359	0.178964	-311.877911	-311.870448	-311.869504	-311.909107	29.969	
C	-0.0814937773	 1.527575763	 0.0282938187	-0.463722
C	-0.0104589158	 0.0110176669	 0.0062733942	 0.335943
C	-0.8407647143	-0.7486603021	 1.0239691432	-0.326238
C	 0.6678800273	-0.7121847301	 1.1487281794	-0.062745
C	 1.493801466	-1.9605562124	 0.8361375198	-0.226629
C	 2.1491739125	-1.9045058446	-0.557294824	-0.25452
C	 1.1727437228	-1.4421414797	-1.6127489848	-0.057887
C	 0.1849256215	-0.5881129787	-1.3432774339	-0.133474
H	 0.8350444975	 1.9739258099	-0.3735415625	 0.117004
H	-0.9207578711	 1.8921687598	-0.5763595273	 0.113363
H	-0.2201325231	 1.9010945848	 1.0480983541	 0.110664
H	-1.4346368619	-0.1717560557	 1.7263915385	 0.102194
H	-1.2920077969	-1.686239734	 0.714923019	 0.107476
H	 1.0614682328	-0.0783508725	 1.9381987675	 0.076665
H	 2.2619111071	-2.0997026767	 1.6042866955	 0.093966
H	 0.8526902177	-2.848528696	 0.8798111416	 0.101031
H	 3.0156423812	-1.2269111975	-0.5380166603	 0.107934
H	 2.5503669042	-2.8902229709	-0.8186179361	 0.097236
H	 1.2960447738	-1.8287925188	-2.6212127727	 0.083522
H	-0.501677114	-0.2736746347	-2.1275543299	 0.078219
130.0944	184.2673	228.4404	280.3275	328.2664	419.5012	452.6024	498.5991	527.2952	647.0538	730.7369	767.7594	783.3682	859.3154	896.0805	931.2617	939.058	966.2185	978.4956	998.9039	1031.4977	1051.4812	1064.8203	1111.842	1120.9593	1130.8865	1197.0463	1217.081	1242.7906	1273.5867	1317.0866	1348.9283	1374.7041	1407.0324	1412.7412	1424.402	1478.3392	1485.8791	1489.1463	1495.1062	1503.8031	1712.0229	2998.9073	3020.1219	3030.7148	3056.5066	3071.0881	3081.3169	3096.54	3118.2239	3132.0522	3142.2358	3162.9812	3206.6913
CC12CC1CCC=C2	C[C@]12C[C@H]1CCC=C2	
InChI=1S/C8H12/c1-8-5-3-2-4-7(8)6-8/h3,5,7H,2,4,6H2,1H3	InChI=1S/C8H12/c1-8-5-3-2-4-7(8)6-8/h3,5,7H,2,4,6H2,1H3/t7-,8+/m1/s1
