21
gdb 79327	2.75683	1.78689	1.60113	0.44	85.15	-0.2188	0.0268	0.2456	970.0464	0.186501	-349.978313	-349.971312	-349.970368	-350.009094	30.18	
C	-0.0655697622	 1.5395136546	 0.0073900774	-0.412379
C	 0.027893964	 0.0100915762	-0.0073206296	 0.031229
C	 0.8604239629	-0.5071894635	-1.1712687333	-0.05129
C	 2.2622397771	-0.7452343459	-0.6743089514	-0.056583
C	 2.2947879377	-0.3881317353	 0.7999957092	-0.225819
C	 0.8046502205	-0.5851840088	 1.21463113	-0.086475
C	 0.537232146	-2.069943591	 1.2531154138	-0.114048
C	 0.8262682581	-2.732406528	 0.1284079063	-0.046151
C	 1.3633715099	-1.9428885191	-1.0038467655	-0.095616
H	 0.9231600458	 2.0091388456	 0.0208219583	 0.116545
H	-0.5899819191	 1.9070506482	-0.8813323372	 0.111515
H	-0.6172368936	 1.8896093802	 0.8865845336	 0.10942
H	-0.987170468	-0.4049345518	-0.0280623298	 0.068461
H	 0.65617142	-0.1512003576	-2.1749374427	 0.076804
H	 3.1333569488	-0.5763374827	-1.296278162	 0.079097
H	 2.9652919661	-1.0220334651	 1.3888271581	 0.096607
H	 2.6081937068	 0.6525675501	 0.9335310001	 0.096825
H	 0.5533407931	-0.0871845145	 2.1530680937	 0.05747
H	 0.1420590386	-2.5488114459	 2.1420808447	 0.082088
H	 0.687934973	-3.8028643863	 0.0169196082	 0.085154
H	 1.5971645247	-2.4724184694	-1.9204149719	 0.077146
186.9002	221.725	281.4845	355.7786	379.2846	439.6	541.5044	580.5482	676.6596	695.8323	739.5413	779.3226	794.849	801.9967	864.2694	879.5737	906.435	942.1246	954.6919	971.1177	999.9387	1018.8917	1026.6819	1054.9043	1066.2864	1090.0793	1108.8439	1123.9257	1144.8938	1153.8522	1185.4333	1208.1596	1280.6615	1293.5346	1311.129	1325.24	1350.8662	1377.8108	1395.9024	1409.7673	1410.7393	1489.3357	1495.8851	1505.7515	1679.5417	3028.1943	3029.643	3045.2297	3084.5613	3089.0203	3093.7506	3103.3595	3164.1312	3168.9234	3174.8432	3185.1004	3196.5901
CC1C2C3CC1C=CC23	C[C@H]1[C@H]2[C@H]3C[C@@H]1C=C[C@@H]23	
InChI=1S/C9H12/c1-5-6-2-3-7-8(4-6)9(5)7/h2-3,5-9H,4H2,1H3	InChI=1S/C9H12/c1-5-6-2-3-7-8(4-6)9(5)7/h2-3,5-9H,4H2,1H3/t5-,6+,7-,8+,9-/m1/s1
