22
gdb 119169	3.38681	0.97671	0.84822	2.3935	83.03	-0.2357	0.081	0.3167	1454.6765	0.193814	-404.297258	-404.287537	-404.286593	-404.332434	35.715	
C	-0.2941515138	 1.4250718057	 0.0249892047	-0.22656
O	-0.0706409428	 0.0353103796	-0.0118744108	-0.242335
C	 0.4641714157	-0.4754653272	 1.1903690775	-0.133495
C	 0.716919601	-1.9667392078	 1.0489975947	 0.289137
C	-0.2020017028	-2.7690509138	 0.2039167165	-0.270571
N	 1.1716001358	-2.4641894757	-0.2560888848	-0.357388
C	 1.3809610892	-2.5675559618	 2.2562832396	-0.062771
C	 2.1737132995	-3.8414829391	 2.1464336053	-0.273662
C	 2.8868271891	-2.5351649268	 2.3845746815	-0.263804
H	 0.6368145206	 1.9816323246	 0.2142624148	 0.108717
H	-0.6912117686	 1.718552486	-0.9496093133	 0.129987
H	-1.0224592773	 1.6988737304	 0.8038523114	 0.108578
H	 1.4122085977	 0.0346918118	 1.4325907268	 0.095596
H	-0.2271098818	-0.2901958157	 2.0306410026	 0.091956
H	-0.3768640718	-3.8122791457	 0.4512336151	 0.110785
H	-1.0231073661	-2.2561778192	-0.2859536969	 0.120496
H	 1.1167532724	-1.6963366927	-0.9220929909	 0.237294
H	 0.819175072	-2.4279860044	 3.1772946275	 0.077527
H	 2.1088530679	-4.5533468773	 2.9618143444	 0.102923
H	 2.2656611395	-4.2739168828	 1.1571363295	 0.135625
H	 3.4443718868	-2.1240987061	 1.5498369346	 0.117058
H	 3.3206833176	-2.3440126921	 3.3598445904	 0.104906
57.2239	87.9504	100.2602	144.4116	221.3705	237.4426	250.3852	346.6781	352.0815	394.2478	475.5708	575.9091	706.4935	792.8088	826.5164	848.403	866.072	929.1763	952.3746	968.2441	995.444	1010.9985	1026.5624	1061.9327	1091.2896	1110.8299	1132.0997	1137.3521	1141.3045	1161.9422	1186.5097	1203.1803	1218.8522	1229.2817	1256.9384	1288.2615	1303.6032	1377.4125	1403.8146	1439.8323	1455.1147	1478.3686	1485.7805	1495.7824	1501.0429	1505.417	1524.6085	2948.8726	2976.7467	2977.3626	3022.1802	3116.7956	3116.942	3127.5927	3132.7423	3140.0409	3210.5909	3216.1446	3233.8835	3497.2523
COCC1(CN1)C1CC1	COC[C@]1(CN1)C1CC1	
InChI=1S/C7H13NO/c1-9-5-7(4-8-7)6-2-3-6/h6,8H,2-5H2,1H3	InChI=1S/C7H13NO/c1-9-5-7(4-8-7)6-2-3-6/h6,8H,2-5H2,1H3/t7-/m1/s1
