19
gdb 124464	3.17447	1.25547	1.11612	5.269	76.57	-0.2433	0.0283	0.2716	1164.0637	0.160508	-415.41189	-415.40298	-415.402035	-415.445329	33.882	
C	-0.2194188795	 1.5056889672	-0.2049101207	-0.396912
C	 0.0066506407	 0.0146031382	 0.1121711252	 0.112072
C	 0.8194120551	-0.1357707292	 1.4092642623	-0.407948
N	-1.31988817	-0.6417443367	 0.1665113166	-0.552547
H	-1.9407352487	-0.0907113059	 0.7526864263	 0.231108
H	-0.8793976732	-1.3502026317	-2.137957238	 0.276455
H	-1.231547594	-1.5460278808	 0.62460479	 0.230691
C	 0.7560624011	-0.6203160076	-1.0351585754	 0.422187
N	 0.1187581675	-1.2261370644	-2.0788027558	-0.296866
C	 1.1160854118	-1.6206691161	-2.9204196717	 0.012552
N	 2.2831069871	-1.2813443688	-2.4354417347	-0.215279
N	 2.0520289668	-0.643386137	-1.2298328755	-0.299278
H	 0.7375970278	 2.0096330116	-0.3552347661	 0.145182
H	-0.8218279461	 1.6214049205	-1.110172642	 0.121645
H	-0.7419626263	 1.9961940206	 0.6244891663	 0.109631
H	 0.3028321249	 0.3640112407	 2.2354191423	 0.101575
H	 0.9470839924	-1.1923512936	 1.6653157148	 0.115335
H	 1.8159885288	 0.2975605679	 1.2971089351	 0.151681
H	 0.9435869938	-2.1433563951	-3.848144799	 0.138716
59.7648	145.9574	201.541	231.2622	271.2667	294.825	326.0298	349.716	365.1513	458.3033	498.7618	606.3223	638.31	706.1676	762.0101	830.3898	837.0897	929.5754	936.8338	969.8809	976.526	1020.0865	1028.0567	1043.6593	1083.1869	1095.9915	1180.5492	1226.628	1253.6812	1316.2688	1374.6195	1395.1825	1415.4253	1421.0655	1475.479	1484.5912	1496.9125	1504.0942	1520.0359	1566.1253	1656.0814	3032.1128	3037.2438	3103.2384	3107.3647	3129.5689	3137.0435	3267.1765	3477.3133	3556.9431	3653.4182
CC(C)([NH3+])C1=NC=N[N-]1	CC(C)(N)c1[nH]cnn1	
InChI=1S/C5H9N4/c1-5(2,6)4-7-3-8-9-4/h3H,6H2,1-2H3/q-1/p+1	InChI=1S/C5H10N4/c1-5(2,6)4-7-3-8-9-4/h3H,6H2,1-2H3,(H,7,8,9)
