17
gdb 23204	2.14619	1.57139	1.00092	1.5571	73.34	-0.2382	-0.0052	0.233	1168.6392	0.135135	-455.044107	-455.035459	-455.034515	-455.077658	32.222	
O	 0.0809874998	 1.4082145107	 0.0841645526	-0.413647
C	 0.0124823613	-0.0008044616	-0.0486124129	-0.180911
C	-1.4182655277	-0.4616784431	 0.0536699449	 0.231485
C	-2.0726934513	-1.1097120595	 1.2196806553	-0.276758
N	-1.9192675101	-1.9178359992	 0.0028987055	-0.172336
C	-3.041068862	-1.4701345722	-0.9116331612	-0.260524
C	-2.4515112577	-0.0752380964	-0.9360020862	 0.385428
N	-2.4944193958	 0.9612814726	-1.6645650409	-0.27584
O	-3.5351448854	 0.8866926608	-2.6048603166	-0.389454
H	-0.4728441907	 1.7816284541	-0.6141707992	 0.296812
H	 0.4331984336	-0.3391232104	-1.0081794768	 0.100263
H	 0.6200217918	-0.4314760483	 0.7527265125	 0.116565
H	-1.4138633148	-1.4219144601	 2.0249239556	 0.133635
H	-3.0686701021	-0.8060799111	 1.5361275041	 0.120542
H	-2.9843266806	-1.9695203465	-1.8818119344	 0.145092
H	-4.0415496354	-1.6032631956	-0.4892695099	 0.129229
H	-3.446116253	 1.7195800058	-3.0808481624	 0.310421
73.4156	112.8158	159.7583	199.644	272.0116	325.0091	371.4767	432.3592	456.9424	474.8308	511.8668	537.6425	704.4737	763.1723	786.6919	865.4535	889.3011	974.6494	982.7091	1000.6007	1051.6118	1067.923	1095.4087	1107.1663	1131.3609	1185.1946	1200.7171	1261.6253	1324.969	1352.9782	1381.9499	1425.8965	1440.846	1473.9425	1500.4067	1508.9627	1788.6539	2986.2081	3057.9634	3085.8113	3101.0715	3117.5124	3195.5705	3762.2762	3816.6147
OCC12CN1CC2=NO	OC[C@]12CN1CC2=NO	
InChI=1S/C5H8N2O2/c8-3-5-2-7(5)1-4(5)6-9/h8-9H,1-3H2	InChI=1S/C5H8N2O2/c8-3-5-2-7(5)1-4(5)6-9/h8-9H,1-3H2/t5-,7?/m0/s1
