17
gdb 85198	2.65257	1.2106	0.89349	4.183	73.91	-0.2637	0.007	0.2707	1283.0701	0.133904	-421.822727	-421.813629	-421.812685	-421.857179	32.871	
C	 0.1327844871	 1.4896982309	-0.2816675487	-0.403055
C	-0.0702811184	 0.0397966413	 0.1007000689	 0.118666
O	 0.6230754329	-0.8693330874	-0.8269388853	-0.256261
C	 1.3783291295	-1.4169501488	 0.1801507739	 0.45661
O	 2.2215858555	-2.2477762346	 0.0847819076	-0.315165
C	 0.7243581563	-0.5754216594	 1.2824342809	-0.210775
C	 1.6443364638	 0.3110994837	 2.1372431385	-0.386664
C	 2.3565627686	-0.4500711482	 3.1556791502	 0.30087
C	 2.9258546787	-1.0860441154	 4.0005262278	-0.417172
H	 1.1936603399	 1.7459352341	-0.3436849404	 0.132648
H	-0.3199370158	 1.6845468123	-1.2578354398	 0.139014
H	-0.3452747522	 2.1481989158	 0.4510207699	 0.128353
H	-1.1335449888	-0.2161090404	 0.1161792923	 0.101596
H	 0.1018711136	-1.1923576938	 1.9351739319	 0.126489
H	 2.3652890584	 0.8361489025	 1.500457459	 0.143416
H	 1.0359609106	 1.0871582472	 2.6195042195	 0.139289
H	 3.4419772905	-1.6499226799	 4.7375803538	 0.202142
59.2665	89.4023	115.5647	207.7663	214.8611	243.7354	338.6587	359.1538	468.2271	470.9376	524.5345	628.8492	651.9177	695.785	742.0442	817.0677	855.7508	890.1395	957.4775	999.6481	1042.6892	1046.8099	1124.9463	1144.4062	1159.5465	1189.4398	1248.3892	1305.2779	1329.9049	1370.7485	1388.4344	1416.137	1469.5697	1485.7224	1499.2947	1938.6065	2245.8289	3024.3095	3044.0732	3061.3228	3068.8878	3092.8085	3115.3778	3126.9789	3506.8252
CC1OC(=O)C1CC#C	C[C@H]1OC(=O)[C@H]1CC#C	
InChI=1S/C7H8O2/c1-3-4-6-5(2)9-7(6)8/h1,5-6H,4H2,2H3	InChI=1S/C7H8O2/c1-3-4-6-5(2)9-7(6)8/h1,5-6H,4H2,2H3/t5-,6+/m1/s1
