13
gdb 6244	4.58286	1.24057	0.98228	5.945	64.01	-0.2563	-0.0577	0.1986	1113.5082	0.092516	-398.617103	-398.608448	-398.607504	-398.651246	29.292	
C	-0.0068813833	 1.5058912544	-0.1753895085	-0.505239
C	-0.0150956299	 0.0234903001	 0.1624793511	 0.415423
O	-0.0395129866	-0.4117069515	 1.2824663538	-0.287561
N	 0.0092902872	-0.7877804775	-0.9881177767	-0.38583
C	 0.009941057	-2.1843428671	-1.0486211962	 0.316443
O	-0.0109365991	-2.9271418355	-0.1012103157	-0.292574
C	 0.0397939651	-2.6589531246	-2.4283794597	 0.188034
C	 0.0641696309	-3.0770734009	-3.5555607643	-0.382624
H	 0.8915700908	 1.7709820725	-0.7430236048	 0.145723
H	-0.8777668255	 1.7716993134	-0.7841399482	 0.14561
H	-0.0281631176	 2.0737022766	 0.7537035296	 0.161554
H	 0.0288828636	-0.3175889867	-1.8811783719	 0.263225
H	 0.0855978374	-3.4649711531	-4.5452375085	 0.217815
53.3513	92.0857	103.9936	122.5148	222.2515	259.0778	362.8574	426.4785	573.13	585.3808	624.7935	633.2354	667.2961	689.211	766.6129	888.2806	927.9088	1029.7611	1052.562	1179.3293	1217.137	1386.7619	1465.7071	1482.2264	1500.7068	1793.474	1856.3082	2223.0231	3041.7488	3104.892	3168.6154	3493.5922	3615.6628
CC(=O)NC(=O)C#C	CC(=O)NC(=O)C#C	
InChI=1S/C5H5NO2/c1-3-5(8)6-4(2)7/h1H,2H3,(H,6,7,8)	InChI=1S/C5H5NO2/c1-3-5(8)6-4(2)7/h1H,2H3,(H,6,7,8)
