17
gdb 125988	4.42791	1.14523	0.97303	2.75	76.17	-0.2098	0.0295	0.2393	1206.8969	0.1376	-417.998406	-417.990493	-417.989549	-418.031252	29.865	
C	-0.3126159316	 1.4919877347	 0.0790293486	-0.397862
C	-0.0148281213	-0.0002786001	-0.0016679039	-0.140934
C	 0.8292379246	-0.4858491323	-1.2583210227	-0.183305
N	 1.7754609684	-1.0212771867	-0.2727800516	 0.065101
N	 3.0626080627	-1.3972391701	-0.0822398207	-0.405414
C	 3.2004308933	-1.1794215516	 1.2307652842	 0.446462
O	 4.3433470644	-1.5016389839	 1.8717194593	-0.42446
C	 2.0568526821	-0.6103424084	 1.8659624844	-0.49822
C	 1.1655273707	-0.5269614481	 0.814222127	 0.389578
H	 0.596701257	 2.0846664585	-0.0606105562	 0.129502
H	-1.0382251161	 1.786490542	-0.6860651387	 0.122535
H	-0.7332302052	 1.7478891076	 1.0563574706	 0.130334
H	-0.9330842524	-0.5813056568	 0.1284143594	 0.100104
H	 0.3790618612	-1.2380851161	-1.9121113518	 0.124245
H	 1.2328517849	 0.3385508005	-1.8542992478	 0.129553
H	 4.9421519448	-1.8669524318	 1.2082558967	 0.303373
H	 1.9538230826	-0.3455805775	 2.9036534731	 0.109408
52.5867	131.6929	215.2503	256.8187	305.0899	372.3506	413.9477	445.3028	536.5639	593.3056	684.1477	717.6562	741.7201	767.5878	810.4806	866.9155	921.604	1002.4045	1011.3939	1086.4091	1107.719	1122.6717	1150.2041	1167.8982	1217.6594	1230.9421	1271.0841	1313.1426	1365.0117	1412.0213	1439.4932	1480.6526	1493.145	1497.137	1519.6694	1535.6924	1593.7014	3036.6429	3048.1223	3057.1869	3103.5264	3107.1858	3113.6336	3287.1847	3794.8115
CC1CN2N=C(O)C=C12	C[C@H]1Cn2nc(O)cc12	
InChI=1S/C6H8N2O/c1-4-3-8-5(4)2-6(9)7-8/h2,4H,3H2,1H3,(H,7,9)	InChI=1S/C6H8N2O/c1-4-3-8-5(4)2-6(9)7-8/h2,4H,3H2,1H3,(H,7,9)/t4-/m0/s1
