21
gdb 110991	2.65283	1.42773	1.1321	1.6645	82.43	-0.2309	0.0052	0.2362	1184.0549	0.181613	-387.054671	-387.045961	-387.045017	-387.087687	34.286	
C	 0.1203283471	 1.5785244674	 0.1019394179	-0.386913
C	-0.1448633628	 0.0859800782	-0.1306143936	-0.208254
C	 0.6391911851	-0.4747468934	-1.3089313584	-0.0009
C	 2.1468902252	-0.8250127665	-1.0560772671	 0.000703
O	 1.7004833322	-2.0471136257	-0.3883557157	-0.319353
C	 0.6809288027	-2.047795313	-1.4536176854	 0.356261
C	-0.4858402146	-2.9676006969	-1.2286702957	-0.517872
C	 1.5694774007	-2.1934083423	-2.7081519421	-0.125319
C	 2.5719985291	-1.3572961621	-2.4345601244	-0.087156
H	 1.1761896281	 1.7664399043	 0.3247322403	 0.116327
H	-0.1413255031	 2.1722206025	-0.7810960479	 0.11328
H	-0.4672221131	 1.9574102052	 0.9437390883	 0.113936
H	 0.1025480929	-0.4868428359	 0.7684929672	 0.114059
H	-1.2169378395	-0.0635471886	-0.3173389524	 0.092578
H	 0.4305443863	 0.0782848334	-2.2302888863	 0.063664
H	 2.8269068446	-0.2102635044	-0.4672347604	 0.075174
H	-1.0240314409	-2.7080517168	-0.3134326757	 0.130333
H	-1.1844046671	-2.9108757678	-2.0699324709	 0.121567
H	-0.1399909826	-4.0023924102	-1.1408154202	 0.134055
H	 1.3742138454	-2.8155966168	-3.5698558394	 0.105749
H	 3.4468594243	-1.0831850702	-3.0055146782	 0.108079
92.2545	151.5337	189.0505	203.6659	262.2707	271.1453	332.0047	400.8915	481.9394	550.7076	624.277	641.8703	701.7172	740.9095	773.1489	821.5548	862.4605	867.9882	891.5307	897.4367	902.0667	959.9181	983.6425	1058.6733	1066.0134	1084.3067	1113.4455	1128.9366	1158.4528	1205.6842	1222.159	1258.0065	1283.9329	1293.846	1331.3785	1338.663	1392.2412	1411.2893	1415.0729	1480.1335	1488.2619	1495.2888	1500.7215	1506.1593	1618.4371	3017.3137	3030.2934	3040.7317	3056.1441	3077.9164	3100.6387	3103.8537	3108.6827	3121.6744	3128.9698	3224.4702	3253.2206
CCC1C2OC1(C)C=C2	CC[C@H]1[C@H]2O[C@]1(C)C=C2	
InChI=1S/C8H12O/c1-3-6-7-4-5-8(6,2)9-7/h4-7H,3H2,1-2H3	InChI=1S/C8H12O/c1-3-6-7-4-5-8(6,2)9-7/h4-7H,3H2,1-2H3/t6-,7-,8+/m0/s1
