18
gdb 92991	3.29616	1.0817	0.89031	3.8799	77.42	-0.2626	0.0012	0.2638	1289.0386	0.148337	-401.974074	-401.965575	-401.96463	-402.007697	31.856	
O	 0.0469468071	 1.4541857732	 0.0667684569	-0.426921
C	 0.0144261044	 0.0337030297	 0.038432894	 0.095499
C	 0.6523513948	-0.5711908068	 1.3115425758	-0.287254
C	-0.5409087708	-0.7605770378	 2.2219811095	-0.089388
C	-1.6867551222	-0.7287384149	 1.5406330783	-0.074391
C	-1.4431469799	-0.5198255974	 0.0597532498	-0.058271
C	-2.4521936788	 0.3948192735	-0.665163191	-0.344708
C	-3.8109192386	-0.1396995677	-0.6200336856	 0.259417
N	-4.8795820682	-0.5772208644	-0.5682663735	-0.315336
H	-0.2611893629	 1.7343797907	 0.9369420329	 0.284715
H	 0.5421442307	-0.2438452304	-0.8773515892	 0.090819
H	 1.1367881316	-1.5338898184	 1.0974621003	 0.117967
H	 1.4282339839	 0.0915825789	 1.7091859328	 0.114015
H	-0.4486256867	-0.9418828285	 3.2867307904	 0.103456
H	-2.6778915513	-0.8783038838	 1.9533948513	 0.120949
H	-1.4580032253	-1.4952493376	-0.4477181886	 0.105056
H	-2.4468397344	 1.3942826991	-0.2218101294	 0.15001
H	-2.1574630935	 0.5209095024	-1.7126538547	 0.154366
62.7205	109.0333	123.1375	245.9605	271.6374	385.3174	388.1758	394.4164	425.9591	497.888	572.7682	726.3152	771.949	790.4867	835.9399	862.3692	907.7514	949.5619	953.3189	980.4574	998.9685	1051.4061	1084.8677	1095.2243	1138.0831	1174.3714	1206.7533	1238.3284	1244.7338	1306.6658	1308.9813	1330.7746	1359.2585	1387.1693	1432.0377	1459.0139	1477.3041	1672.7283	2359.2098	3001.8535	3017.1929	3057.8281	3071.8343	3087.8909	3103.0787	3190.3369	3214.1484	3787.168
OC1CC=CC1CC#N	O[C@H]1CC=C[C@H]1CC#N	
InChI=1S/C7H9NO/c8-5-4-6-2-1-3-7(6)9/h1-2,6-7,9H,3-4H2	InChI=1S/C7H9NO/c8-5-4-6-2-1-3-7(6)9/h1-2,6-7,9H,3-4H2/t6-,7-/m0/s1
