17
gdb 125888	3.67109	1.24235	1.08331	5.8653	72.78	-0.2764	-0.0147	0.2618	1132.6222	0.137125	-414.156883	-414.148989	-414.148045	-414.190129	28.866	
C	-0.2048744485	 1.5252683715	-0.1024631125	-0.411295
C	-0.0222193854	 0.0285410713	 0.0040249639	 0.009192
C	 1.3137488032	-0.6121784784	-0.281405002	-0.321456
C	 0.7704355042	-0.5992828296	 1.125508473	 0.017379
N	 1.4018661022	 0.2331949796	 2.1081970563	 0.031231
C	 2.704328351	 0.4377853363	 2.384136814	 0.060696
N	 2.8086979842	 1.2358606643	 3.4222952542	-0.226578
N	 1.5289250938	 1.5166232336	 3.7924922427	-0.090493
N	 0.6795354837	 0.925358095	 3.0224026049	-0.126397
H	 0.7074753106	 2.0651733629	 0.1653866082	 0.128249
H	-0.4674834224	 1.8023184056	-1.1282881815	 0.125346
H	-1.0008991806	 1.8714941518	 0.562899662	 0.145805
H	-0.8938487448	-0.5532681364	-0.2818964843	 0.104608
H	 1.3595885043	-1.5671568256	-0.791543837	 0.131249
H	 2.1390414503	 0.0561786083	-0.5029651565	 0.129929
H	 0.4045528043	-1.5313224682	 1.5423087087	 0.128414
H	 3.5140572498	 0.002475468	 1.8228243061	 0.164121
52.2736	103.8043	158.9987	206.5263	263.8805	349.5763	417.192	531.2164	649.669	701.9816	740.3552	789.1339	841.7009	872.7584	894.4034	940.2933	984.1298	1027.9174	1036.3496	1078.2262	1090.6505	1114.3479	1119.5891	1150.8761	1188.2704	1196.901	1210.1743	1243.0197	1321.4401	1389.1724	1413.5797	1423.4605	1451.9023	1485.1814	1491.1473	1498.6558	1514.0144	3043.2217	3110.1546	3117.5346	3139.653	3151.5251	3167.3723	3227.6862	3290.9155
CC1CC1N1C=NN=N1	C[C@H]1C[C@H]1n1cnnn1	
InChI=1S/C5H8N4/c1-4-2-5(4)9-3-6-7-8-9/h3-5H,2H2,1H3	InChI=1S/C5H8N4/c1-4-2-5(4)9-3-6-7-8-9/h3-5H,2H2,1H3/t4-,5+/m0/s1
