17
gdb 34492	4.70761	1.00873	0.89503	0.9995	89.21	-0.2119	-0.0252	0.1867	1296.9727	0.134539	-384.649002	-384.640726	-384.639782	-384.682061	31.696	
C	 0.0893395032	-1.1854094945	 0.0422053546	-0.413986
C	-0.0072277023	 0.0158575472	 0.0217992783	 0.218965
C	-0.0576748305	 1.4252163036	 0.0054494551	 0.139221
C	-1.122304277	 2.2278700962	-0.1309687868	-0.299656
C	-0.6948883466	 3.6353924382	-0.0887238065	 0.456067
C	-1.2975386629	 4.7310034157	-0.9338197569	-0.324442
C	-1.4821381635	 4.7419996286	 0.569551267	-0.324443
O	 0.7084273553	 3.6334680672	 0.0836242167	-0.309949
C	 1.1809263506	 2.2917392185	 0.1510635923	-0.182197
H	 0.1579863587	-2.24481373	 0.0581667176	 0.19382
H	-2.1504609013	 1.9170430982	-0.2548679907	 0.120281
H	-0.5948658423	 5.4412935496	-1.3548560181	 0.129804
H	-2.1460344378	 4.4938047726	-1.5666188056	 0.116818
H	-2.4589396556	 4.5124559774	 0.9816347695	 0.116821
H	-0.9009377257	 5.4595212819	 1.1377947541	 0.129807
H	 1.6922662933	 2.1182861729	 1.1091263093	 0.116539
H	 1.9081593644	 2.1057342265	-0.6526697599	 0.11653
67.7937	122.3147	136.4884	262.5917	298.3635	347.8586	467.5208	524.2357	527.7149	538.4847	590.191	593.1605	642.7148	763.7683	836.1812	839.8471	906.4126	909.6998	913.5467	914.6445	973.9882	1046.1583	1050.7662	1063.5709	1085.4269	1144.3566	1192.423	1195.9684	1239.581	1284.7567	1371.7466	1388.7703	1449.8278	1487.0965	1524.0439	1671.8654	2223.3724	2990.3666	3014.557	3131.8706	3134.1009	3218.0942	3231.9267	3234.1279	3503.5187
C#CC1=CC2(CC2)OC1	C#CC1=CC2(CC2)OC1	
InChI=1S/C8H8O/c1-2-7-5-8(3-4-8)9-6-7/h1,5H,3-4,6H2	InChI=1S/C8H8O/c1-2-7-5-8(3-4-8)9-6-7/h1,5H,3-4,6H2
