19
gdb 61833	2.17577	1.23262	0.8724	5.6371	73.31	-0.2605	0.0194	0.2799	1341.3497	0.15674	-460.168526	-460.158705	-460.157761	-460.203793	35.221	
C	-0.2836140251	 1.522820438	 0.2810929914	-0.392279
C	-0.0536653742	 0.0576916569	-0.067006209	 0.087249
O	 0.5605286094	 0.0488202937	-1.3786641219	-0.20027
C	 0.3386683679	-1.0163060297	-2.1748139633	 0.147681
O	 0.8183053816	-1.103032439	-3.2674194353	-0.285
C	 0.8526586869	-0.6483384588	 0.9171172226	-0.0146
C	 0.3111638569	-1.1083207703	 2.2569869952	-0.336294
C	 0.6972809708	-2.1156462332	 1.2048416096	 0.082479
O	-0.315150659	-2.7880749501	 0.5096710237	-0.413997
H	 0.6676844334	 2.0620159931	 0.3151834336	 0.130986
H	-0.9195008258	 1.9977016039	-0.4703485975	 0.129153
H	-0.7667427118	 1.6090761737	 1.258006347	 0.121341
H	-1.0110705408	-0.4720776987	-0.1214026713	 0.099887
H	-0.3166196018	-1.7755376241	-1.7140656505	 0.10554
H	 1.8712106694	-0.2706130011	 0.9070904311	 0.104888
H	 0.9280861106	-0.9924546378	 3.1409873595	 0.120303
H	-0.7539660552	-0.9815799172	 2.4251640701	 0.118518
H	 1.6077321733	-2.6942537224	 1.3538280138	 0.099326
H	-0.6946166666	-3.4526039468	 1.0937724111	 0.295089
53.2412	83.9922	136.1351	176.8543	212.4411	222.9172	253.7521	289.2087	343.4449	387.1579	443.7443	463.2386	607.6138	651.9259	779.9499	829.7059	853.7215	933.4708	980.2437	1009.7543	1025.3869	1058.7622	1061.6651	1097.7876	1120.3063	1140.0608	1168.8612	1195.8582	1210.5737	1234.0177	1286.7458	1315.6993	1362.7956	1408.7536	1411.0629	1427.8388	1449.8981	1484.9117	1489.5464	1499.7495	1854.1339	3003.7856	3047.4448	3053.5808	3112.4618	3122.7696	3128.0665	3130.3895	3153.6215	3219.7681	3811.897
CC(OC=O)C1CC1O	C[C@@H](OC=O)[C@H]1C[C@H]1O	
InChI=1S/C6H10O3/c1-4(9-3-7)5-2-6(5)8/h3-6,8H,2H2,1H3	InChI=1S/C6H10O3/c1-4(9-3-7)5-2-6(5)8/h3-6,8H,2H2,1H3/t4-,5-,6-/m1/s1
