22
gdb 78669	2.5375	1.57938	1.20946	1.5604	86.	-0.2296	0.0891	0.3187	1151.8681	0.193577	-367.162676	-367.153748	-367.152804	-367.195508	35.067	
C	-0.1340852797	 1.4394593549	 0.0473306553	-0.402929
C	 0.0075469829	-0.0661005556	-0.0970354685	 0.082243
C	 0.8866921969	-0.5434400083	-1.2686324938	-0.109121
C	 2.0649067118	-0.510230546	-0.2228429049	-0.113602
N	 1.0413219766	-0.5918429338	 0.8635057021	-0.192928
C	 1.5999146729	-1.8447919435	 0.222424174	 0.335502
C	 2.240757186	-2.8499362043	 1.126912086	-0.50374
C	 0.8941329842	-2.094855049	-1.1200195455	-0.02707
C	-0.3846519378	-2.9194477443	-1.2167128559	-0.433179
H	 0.8309623511	 1.9422817083	-0.0734720695	 0.116978
H	-0.822878737	 1.8339542205	-0.7072665063	 0.109627
H	-0.5261492507	 1.6942256829	 1.0366515125	 0.123466
H	-0.9749504548	-0.5408129434	 0.0126342222	 0.061936
H	 0.8516919322	-0.0760776315	-2.2526260343	 0.063491
H	 3.0102400165	 0.0106991653	-0.142207164	 0.09072
H	 2.7759091199	-2.3498159195	 1.9385789313	 0.132767
H	 1.4900718181	-3.5085758332	 1.5782743247	 0.123141
H	 2.9510320458	-3.4758143452	 0.5753349261	 0.11507
H	 1.6432241241	-2.5013036302	-1.8108682187	 0.072179
H	-1.1462296347	-2.6016172016	-0.5000323201	 0.123237
H	-0.8177446864	-2.8516338533	-2.2211612096	 0.114947
H	-0.1743628279	-3.9768649692	-1.0218762632	 0.117267
166.6859	179.8054	194.6608	207.83	217.9921	234.6981	252.6532	335.5433	389.3385	509.2399	574.632	628.5518	688.1674	759.0785	790.5653	821.4858	840.5884	886.0474	914.3902	932.6926	994.2551	1014.4736	1019.421	1046.0768	1075.7504	1084.7101	1104.6937	1124.216	1145.6362	1155.3994	1171.3302	1217.3965	1241.3667	1284.9124	1296.1697	1373.6325	1379.8506	1403.0715	1407.9905	1412.6867	1440.9223	1485.6962	1489.9133	1491.413	1495.3989	1496.1784	1502.3447	3027.1984	3028.854	3029.5903	3033.9199	3036.0004	3088.8375	3091.2152	3103.6152	3109.6094	3114.2057	3115.5663	3116.462	3195.8793
CC1C2C3N1C3(C)C2C	C[C@H]1[C@H]2[C@H]3N1[C@@]3(C)[C@H]2C	
InChI=1S/C8H13N/c1-4-6-5(2)9-7(6)8(4,9)3/h4-7H,1-3H3	InChI=1S/C8H13N/c1-4-6-5(2)9-7(6)8(4,9)3/h4-7H,1-3H3/t4-,5-,6-,7+,8-,9?/m0/s1
