20
gdb 103662	2.59316	1.18947	0.9719	3.2848	79.37	-0.2744	0.032	0.3064	1271.6425	0.170098	-403.154831	-403.145247	-403.144303	-403.189304	35.498	
C	-0.4848868169	 1.6429745073	 0.0242841565	-0.462564
C	 0.097164144	 0.23453789	 0.0632474284	 0.353153
C	-0.9880864447	-0.8183176313	-0.1587850336	-0.132261
O	-1.5379669199	-0.6165320232	-1.4517987186	-0.42574
C	 1.3343480335	-0.0234483664	-0.8516362565	-0.266718
C	 2.1009537313	-0.6518205112	 0.3610811196	-0.150197
C	 0.9703930446	-0.1192282187	 1.3059033301	-0.295542
C	 2.2247370758	-2.0999861214	 0.3210558317	 0.278392
N	 2.3070268099	-3.2536675169	 0.2887644592	-0.339763
H	 0.2982786222	 2.3973619131	 0.1535774734	 0.105619
H	-0.9867815192	 1.8248273567	-0.9297847252	 0.141718
H	-1.22153257	 1.7835765923	 0.8241884616	 0.113122
H	-0.5564760756	-1.8263903355	-0.0663960621	 0.107814
H	-1.7565593693	-0.7145477182	 0.6257571369	 0.086908
H	-2.1509834673	-1.3334830193	-1.6369085936	 0.292909
H	 1.1661209797	-0.6715091633	-1.7120721456	 0.132166
H	 1.8153271362	 0.8970801035	-1.1890030611	 0.107551
H	 3.0895639596	-0.2268166033	 0.5486961657	 0.122583
H	 1.297242097	 0.7643588737	 1.858511475	 0.110827
H	 0.554841869	-0.8413380778	 2.0125970185	 0.120023
54.3056	127.405	144.4352	218.4582	233.2829	243.8721	246.0141	324.2036	356.1276	374.4369	460.0998	526.8846	568.8229	672.5641	774.6513	822.5695	827.98	909.8805	928.7852	963.1945	979.8259	996.263	1033.5574	1075.4433	1100.2726	1151.3386	1155.841	1193.9286	1203.993	1251.9865	1255.9099	1272.2207	1307.5538	1328.2588	1354.8076	1404.9457	1456.9419	1474.6452	1489.8505	1492.1442	1502.7862	1520.4789	2347.5351	2960.9744	3006.7907	3027.9548	3066.3718	3075.4786	3085.3651	3090.9469	3119.3685	3123.8783	3141.2106	3837.5583
CC1(CO)CC(C1)C#N	C[C@@]1(CO)C[C@@H](C1)C#N	
InChI=1S/C7H11NO/c1-7(5-9)2-6(3-7)4-8/h6,9H,2-3,5H2,1H3	InChI=1S/C7H11NO/c1-7(5-9)2-6(3-7)4-8/h6,9H,2-3,5H2,1H3/t6-,7+
