18
gdb 13908	3.38906	1.37427	1.18659	3.5572	69.84	-0.2296	0.0289	0.2585	1084.0917	0.152827	-381.132795	-381.123783	-381.122839	-381.166256	32.692	
C	 0.2840252431	 1.8153626122	-0.6132354629	-0.418656
C	-0.0359317618	 0.339883929	-0.5238003496	 0.020366
C	 0.8238086295	-0.68550997	-1.2069312117	-0.129658
N	 0.7527394607	-0.6148963053	 0.252060478	-0.115346
C	 1.9390605412	-0.1795504169	 0.9778779938	-0.318359
C	 0.2427306303	-1.8939853144	-1.8959095247	 0.393139
N	-0.5195242316	-2.6755844661	-1.0806373534	-0.533058
O	 0.4240880545	-2.1036490716	-3.080737193	-0.374508
H	 1.3487183518	 2.0083225721	-0.7612627223	 0.125716
H	-0.2525761708	 2.2549773044	-1.459812137	 0.136051
H	-0.0372824098	 2.3417650521	 0.2923983152	 0.126162
H	-1.1023054911	 0.122944924	-0.4777594928	 0.100079
H	 1.7145902756	-0.3038700367	-1.702695066	 0.098192
H	 2.5478364269	 0.5659784235	 0.4476250609	 0.110583
H	 1.6385157846	 0.2423243988	 1.9420636377	 0.126674
H	 2.5695041566	-1.0528958989	 1.1705276492	 0.130943
H	-0.4462795893	-2.5333362926	-0.0847541306	 0.264565
H	-0.8630619702	-3.5486122336	-1.4443825009	 0.257115
76.8469	146.8115	160.9422	181.016	186.1015	262.2992	312.905	351.4592	389.9249	463.8394	528.1015	558.5761	639.6657	711.0332	776.8332	846.0938	883.8737	994.9841	1017.5214	1049.9567	1091.6532	1114.6916	1131.3789	1161.9496	1180.598	1194.096	1273.4947	1344.7249	1384.4058	1407.2168	1432.3919	1461.1625	1486.1177	1488.8472	1501.1258	1506.3327	1587.5774	1800.7166	3001.2681	3039.5579	3076.065	3100.5309	3106.7279	3109.2366	3129.6068	3136.7577	3575.6781	3720.7159
CC1C(N1C)C(N)=O	C[C@H]1[C@@H](N1C)C(=O)N	
InChI=1S/C5H10N2O/c1-3-4(5(6)8)7(3)2/h3-4H,1-2H3,(H2,6,8)	InChI=1S/C5H10N2O/c1-3-4(5(6)8)7(3)2/h3-4H,1-2H3,(H2,6,8)/t3-,4+,7?/m0/s1
