19
gdb 73970	2.80121	1.64933	1.20821	1.6945	82.95	-0.2201	0.009	0.2291	1072.0541	0.1599	-385.837856	-385.830106	-385.829162	-385.869994	30.336	
C	-0.1103259463	 1.4502123459	-0.0158738936	-0.494406
C	-0.0699397208	-0.0397815608	 0.057303622	 0.141091
C	-1.0211220307	-0.9446531653	 0.2711303505	 0.131245
C	-2.4243816619	-1.3891480231	-0.0635850862	-0.167112
C	-2.37732982	-1.7890708158	-1.5240603455	-0.267331
C	-1.8400030968	-2.7575123089	-0.5136695588	-0.099475
C	-0.4841628898	-2.3260794538	 0.0986732779	 0.102146
O	 0.75399357	-2.1822514175	-0.5785821162	-0.282126
C	 1.1970895106	-0.8507254409	-0.2582002998	-0.149467
H	 0.5156887057	 1.9088570805	 0.7607606585	 0.130582
H	 0.2744353469	 1.8107146786	-0.9784777573	 0.127071
H	-1.1282920913	 1.827448985	 0.1112082967	 0.129425
H	-3.3490713335	-1.1839741321	 0.4588851476	 0.098442
H	-3.3299204734	-2.0748057169	-1.9607390136	 0.113091
H	-1.709058986	-1.2644386008	-2.1997259567	 0.119523
H	-2.275629123	-3.7405777894	-0.3848108628	 0.087276
H	-0.3479121041	-2.8722010416	 1.0469293927	 0.075027
H	 1.7281797816	-0.4422543303	-1.1278159419	 0.108806
H	 1.9110967528	-0.8760018529	 0.5831820165	 0.096192
117.1663	160.2569	186.9728	208.9351	265.0886	380.6496	471.6813	546.092	592.7712	665.6954	690.2952	755.8053	792.1781	844.0672	904.7342	915.7897	962.0826	971.7274	988.6652	1002.8342	1033.6624	1059.7165	1076.2972	1087.5804	1090.7852	1113.8619	1131.2802	1186.7659	1195.7767	1230.5285	1238.0932	1276.6255	1325.2145	1357.9506	1373.8608	1412.6858	1478.141	1481.0422	1489.0181	1509.3199	1763.6121	2952.1244	2962.0951	3015.0212	3034.5086	3059.3112	3113.3128	3120.116	3187.2742	3199.4601	3209.613
CC1=C2C3CC3C2OC1	C[C]1[C]2[C@H]3C[C@H]3[C@H]2OC1	
InChI=1S/C8H10O/c1-4-3-9-8-6-2-5(6)7(4)8/h5-6,8H,2-3H2,1H3	InChI=1S/C8H10O/c1-4-3-9-8-6-2-5(6)7(4)8/h5-6,8H,2-3H2,1H3/t5-,6+,8+/m0/s1
