21
gdb 119480	4.77833	0.76569	0.73111	1.7528	79.23	-0.2466	0.0751	0.3216	1584.0326	0.181645	-424.188485	-424.17892	-424.177976	-424.223215	35.702	
O	-0.1607889163	 1.5013708563	-0.0830247591	-0.419924
C	-0.0289626487	 0.0902351386	-0.1689558845	-0.065954
C	-1.3835143693	-0.5268454318	 0.1707204343	-0.304066
C	-1.3607687499	-2.0292726625	 0.1422382757	 0.374257
C	-1.5198911628	-2.8399551879	-1.1149300891	-0.321033
C	-2.5256625063	-3.01979147	-0.008708209	-0.126092
C	-1.9472278399	-3.8979552217	 1.0899394156	 0.126504
O	-1.7100606344	-5.2303283648	 0.6855441166	-0.433357
C	-0.7242816445	-2.9221746924	 1.2212850206	-0.339438
H	 0.6885197966	 1.8965197493	-0.2996125747	 0.284582
H	 0.2755173819	-0.2250495559	-1.1795331158	 0.088949
H	 0.7355363301	-0.2821316633	 0.5324651389	 0.086346
H	-1.6859733412	-0.167030596	 1.1625597017	 0.102052
H	-2.1254435492	-0.1471541726	-0.5419232965	 0.104311
H	-1.8905845028	-2.2926803037	-1.9763942395	 0.107345
H	-0.8302919533	-3.644005058	-1.3557490059	 0.116052
H	-3.5801401341	-2.8197811962	-0.1585049675	 0.082211
H	-2.5668866632	-3.8680252463	 1.9961835728	 0.068067
H	-1.3095224858	-5.7008597963	 1.4236009765	 0.281204
H	 0.2506063568	-3.3555731233	 0.9743913675	 0.091358
H	-0.6680685439	-2.4488603217	 2.2056909013	 0.096626
69.7081	91.6446	100.9207	174.6604	263.0558	269.2865	298.1919	317.9121	359.0585	408.9692	433.5695	563.8101	662.9722	733.9554	799.6471	823.9344	864.6644	913.336	961.1531	972.7561	985.2027	1000.3435	1023.1523	1043.187	1075.1159	1078.1438	1095.8631	1123.3854	1166.8467	1199.926	1215.0804	1237.9243	1242.7975	1267.1481	1284.9912	1310.9397	1336.5389	1342.0388	1410.7261	1423.1792	1458.9605	1475.3936	1486.7473	1504.7793	1527.9417	2964.23	2992.0724	3005.2023	3024.0173	3040.1973	3067.9818	3096.9453	3116.9096	3178.1863	3202.3958	3813.9115	3831.2945
OCCC12CC1C(O)C2	OCC[C@]12C[C@H]1[C@@H](O)C2	
InChI=1S/C7H12O2/c8-2-1-7-3-5(7)6(9)4-7/h5-6,8-9H,1-4H2	InChI=1S/C7H12O2/c8-2-1-7-3-5(7)6(9)4-7/h5-6,8-9H,1-4H2/t5-,6-,7+/m0/s1
