17
gdb 71381	2.63932	1.80137	1.27727	3.7924	72.41	-0.2234	0.0017	0.2251	1005.1093	0.133684	-421.786954	-421.778612	-421.777668	-421.819617	31.418	
C	-0.0651365394	 1.4213971388	-0.0794279306	-0.507117
C	 0.0342272017	-0.0654616577	-0.0235148097	 0.43178
O	-0.5322505769	-0.8257111038	-1.1068107511	-0.32185
C	-0.4235998421	-1.9934145926	-0.2493798991	-0.08705
C	-0.2739551092	-1.0813894526	 1.0153510501	-0.234964
C	 1.222992432	-0.8570167659	 0.5427946612	 0.087886
C	 2.3981267598	-0.303175211	 1.285741036	-0.514777
C	 1.1050113418	-2.1971730551	-0.1197713291	 0.427083
O	 1.8472759183	-3.1321428516	-0.2312865721	-0.338592
H	 0.5049674586	 1.8096404423	-0.929409815	 0.143273
H	-1.1092856373	 1.7257705688	-0.194534477	 0.142178
H	 0.3295665135	 1.8725082725	 0.8346278382	 0.132791
H	-1.1392948883	-2.7855333322	-0.449655953	 0.10569
H	-0.670964	-1.0918609294	 2.0200074499	 0.124538
H	 2.8840818867	-1.0891896552	 1.8723694586	 0.144004
H	 3.1420602203	 0.1030507407	 0.5923972731	 0.140388
H	 2.1068214904	 0.5004646941	 1.9688002797	 0.124739
123.0046	138.3821	167.9863	211.0096	241.468	266.0744	329.2712	470.3764	513.6684	556.6166	667.5108	700.4617	722.2004	784.8478	810.908	825.6026	860.8103	911.9819	957.5807	986.9581	1001.8307	1072.3848	1098.6097	1122.4173	1131.4091	1172.836	1178.5467	1259.9517	1364.4724	1406.4023	1417.9329	1453.5371	1471.8618	1483.746	1491.3024	1504.4595	1876.6591	3035.4048	3044.6676	3100.0423	3107.1386	3113.8126	3126.9237	3172.2458	3225.2794
CC12OC3C1C2(C)C3=O	C[C@]12O[C@@H]3[C@H]1[C@@]2(C)C3=O	
InChI=1S/C7H8O2/c1-6-4-3(5(6)8)9-7(4,6)2/h3-4H,1-2H3	InChI=1S/C7H8O2/c1-6-4-3(5(6)8)9-7(4,6)2/h3-4H,1-2H3/t3-,4+,6+,7+/m1/s1
