14
gdb 62364	2.39893	1.82502	1.18432	3.8648	66.66	-0.2803	-0.0378	0.2425	997.1017	0.098902	-436.631875	-436.624034	-436.62309	-436.664184	29.142	
C	-0.0707539478	 1.5431274906	-0.0032226861	-0.474807
C	-0.0487785146	 0.0159787212	-0.0086517836	 0.17337
C	-1.342756184	-0.5623731304	-0.3572239043	 0.222498
N	-2.3702186141	-1.0136711426	-0.6339407845	-0.31949
C	 1.2181869469	-0.6670954766	-0.6400753032	-0.101538
O	 1.9963863269	-0.2081558569	 0.5338716648	-0.298075
C	 0.7393836125	-0.6803875503	 1.159411775	-0.10154
C	 0.9416874062	-1.9219632213	 0.2405784566	 0.475274
O	 1.0369977818	-3.098893649	 0.2572446711	-0.288574
H	 0.9158336415	 1.9239009195	 0.2621669492	 0.156402
H	-0.3499370255	 1.9222006502	-0.9898330464	 0.145876
H	-0.8048043788	 1.9095803743	 0.7192177762	 0.145877
H	 1.6482133666	-0.5262589741	-1.6289419653	 0.132365
H	 0.6206146823	-0.5547887746	 2.2330661405	 0.132365
113.5695	150.6579	198.5388	233.0981	255.7869	318.9075	470.1494	498.1911	533.0481	538.8618	604.4262	702.3539	765.6501	796.0629	844.996	884.2457	929.5608	940.9557	1040.3593	1108.3534	1117.8478	1133.4905	1154.0204	1212.2457	1235.8906	1265.8334	1401.4567	1492.4871	1495.2606	1957.1798	2355.2254	3056.4463	3124.2308	3156.5315	3161.6193	3165.2864
CC1(C#N)C2OC1C2=O	C[C@@]1(C#N)[C@H]2O[C@@H]1C2=O	
InChI=1S/C6H5NO2/c1-6(2-7)4-3(8)5(6)9-4/h4-5H,1H3	InChI=1S/C6H5NO2/c1-6(2-7)4-3(8)5(6)9-4/h4-5H,1H3/t4-,5+,6+
