17
gdb 117742	2.26423	1.06754	0.94209	2.5746	71.54	-0.2599	-0.0455	0.2145	1319.6371	0.130718	-458.918095	-458.907474	-458.90653	-458.954111	37.148	
O	 0.0627419323	 1.553752057	-0.2124704506	-0.418749
C	 0.0861944259	 0.1358958593	-0.2131476877	-0.077977
C	-1.3111463765	-0.4499525785	 0.0223571179	-0.241015
C	-1.343174788	-1.9893298053	-0.011678584	 0.071461
O	-0.6465863287	-2.534106324	-1.1326248919	-0.453599
C	-0.6216846383	-2.6027396009	 1.2140158006	 0.158806
O	-0.4496969891	-2.0312490702	 2.2541292124	-0.24307
C	-2.718987721	-2.4933676623	 0.0421877577	 0.293883
C	-3.8419204052	-2.9224554768	 0.07690979	-0.445553
H	-0.146392444	 1.8438606254	 0.681184725	 0.284286
H	 0.451938692	-0.1619157666	-1.1985534633	 0.121082
H	 0.7933167431	-0.2549532532	 0.5318929815	 0.104364
H	-1.6862573438	-0.1353028383	 1.0024879151	 0.120857
H	-1.9970768187	-0.0571668143	-0.7350166226	 0.110354
H	-1.2328766898	-2.495848891	-1.8959058621	 0.294596
H	-0.2866973777	-3.6437468788	 1.0272088584	 0.109585
H	-4.8366150426	-3.2950255014	 0.1085801335	 0.210687
72.8039	86.0568	96.866	118.2267	172.6965	210.5226	232.291	264.9682	318.8764	350.9488	377.6258	434.4044	479.7509	553.232	618.322	639.7082	672.1624	782.9313	809.0233	938.9482	955.1713	1021.2642	1068.1083	1095.3575	1110.0826	1152.8821	1188.6575	1292.4909	1324.3585	1355.0943	1393.0275	1403.7431	1417.2364	1469.0476	1512.3277	1842.6158	2224.2575	2931.7618	3010.4514	3048.0636	3089.7382	3112.1329	3497.2909	3815.8144	3817.3587
OCCC(O)(C=O)C#C	OCC[C@@](O)(C=O)C#C	
InChI=1S/C6H8O3/c1-2-6(9,5-8)3-4-7/h1,5,7,9H,3-4H2	InChI=1S/C6H8O3/c1-2-6(9,5-8)3-4-7/h1,5,7,9H,3-4H2/t6-/m1/s1
