13
gdb 24184	4.249	1.75503	1.24202	2.2818	73.41	-0.2273	-0.0695	0.1579	899.6552	0.094125	-411.850355	-411.844637	-411.843693	-411.880422	22.568	
C	-0.0131949271	 1.3558195374	 0.0097708702	 0.003953
N	 1.2114523513	 1.835385433	 0.0009556361	-0.253332
C	 2.0681348474	 0.7692471421	-0.013387421	-0.173244
C	 1.3589747612	-0.4129224464	-0.0135463881	 0.369769
N	 1.6768437121	-1.7255598243	-0.0242051693	-0.300454
C	 0.6776036256	-2.5616431026	-0.0195868327	 0.03591
N	-0.6665319911	-2.2439261498	-0.0049786589	-0.271901
C	-0.9655549477	-0.9868512422	 0.0051817977	 0.109209
N	-0.0061740992	-0.0141458117	 0.0017392923	-0.083888
H	-0.9271507771	 1.9296875909	 0.0217848484	 0.146067
H	 3.1388735566	 0.8928341349	-0.0228275264	 0.132875
H	 0.9011544667	-3.6236673308	-0.0278871005	 0.13177
H	-2.0015547586	-0.6569998205	 0.0169257221	 0.153266
198.4869	226.0185	428.3852	432.633	586.7944	596.0112	651.6677	672.7852	756.3441	779.2655	780.6917	850.5174	898.9416	929.0607	933.1511	980.0595	1087.909	1145.7914	1236.7888	1253.5804	1267.8932	1319.5654	1354.8229	1417.9173	1438.3676	1461.7324	1513.1186	1578.1703	1653.2739	3168.9852	3190.5128	3255.7606	3271.0187
C1=NC=C2N=CN=CN12	c1ncc2ncncn12	
InChI=1S/C5H4N4/c1-5-8-2-7-4-9(5)3-6-1/h1-4H	InChI=1S/C5H4N4/c1-5-8-2-7-4-9(5)3-6-1/h1-4H
