23
gdb 110842	2.58193	1.20179	1.05276	0.3207	91.57	-0.2142	0.0274	0.2415	1317.312	0.20622	-351.167999	-351.158774	-351.157829	-351.20194	35.643	
C	-0.0144919194	 1.4851549886	 0.2931765151	-0.371799
C	-0.0041132516	 0.0407086018	-0.2209308427	-0.20068
C	-1.3620935226	-0.6193970458	-0.117555489	 0.011797
C	-1.5965356953	-2.1110593138	-0.1281817245	-0.091476
C	-0.4421045544	-3.0592420683	 0.20037619	-0.318463
C	-0.0737832411	-2.7275221661	 1.6377870013	 0.32377
C	 1.076691255	-3.3925001715	 2.3253056211	-0.490789
C	-0.8894742538	-1.7886453726	 2.1334510236	-0.177888
C	-1.8885850133	-1.3107906145	 1.1374976702	-0.093917
H	 0.9685175906	 1.9542528708	 0.1838760449	 0.106467
H	-0.7387592657	 2.0976069003	-0.2556737764	 0.109825
H	-0.2889837804	 1.519601127	 1.3527139654	 0.11744
H	 0.3181554839	 0.0265236656	-1.2708653212	 0.090977
H	 0.7391851949	-0.5358598666	 0.3377433788	 0.099835
H	-2.1380720651	-0.067936814	-0.6473630324	 0.076063
H	-2.4046580561	-2.4871177697	-0.7452686274	 0.078456
H	-0.7491077182	-4.1100178047	 0.1044344503	 0.100971
H	 0.4159885954	-2.9332092382	-0.4748841285	 0.103791
H	 2.0256288446	-3.187295547	 1.8128613108	 0.123407
H	 1.1755136293	-3.0573763921	 3.3615376912	 0.121678
H	 0.9588464607	-4.4841778323	 2.3297036622	 0.121429
H	-0.8256355199	-1.3890975069	 3.1404658238	 0.081412
H	-2.8996751575	-1.0847694501	 1.4607254632	 0.077694
67.133	120.297	156.4853	190.1837	215.2234	278.0599	312.3121	330.2844	421.3411	506.5761	538.2536	615.0832	719.6782	744.4009	792.6725	803.0204	858.9682	862.8873	898.248	945.0513	960.6427	979.4164	1007.2286	1016.7004	1043.2078	1059.8282	1083.1047	1099.1171	1119.5746	1133.815	1189.7112	1199.2308	1230.2244	1284.3597	1299.411	1322.467	1337.501	1355.7878	1374.8944	1408.4905	1414.2039	1439.0656	1474.971	1479.2607	1486.4505	1490.0992	1498.0428	1506.3174	1705.1476	3003.0559	3013.2516	3018.5038	3026.6725	3029.5975	3055.6388	3074.3215	3097.939	3102.798	3107.209	3111.8844	3152.6738	3169.4329	3182.7041
CCC1C2CC(C)=CC12	CC[C@H]1[C@H]2CC(=C[C@@H]12)C	
InChI=1S/C9H14/c1-3-7-8-4-6(2)5-9(7)8/h4,7-9H,3,5H2,1-2H3	InChI=1S/C9H14/c1-3-7-8-4-6(2)5-9(7)8/h4,7-9H,3,5H2,1-2H3/t7-,8+,9-/m1/s1
