15
gdb 35645	2.50319	1.53336	1.28576	3.7033	72.19	-0.2644	-0.0251	0.2392	1021.6481	0.113529	-416.806544	-416.798691	-416.797747	-416.839898	28.366	
N	 0.268070861	-1.1506274056	-0.0133752798	-0.312126
C	 0.0893851955	-0.0090962102	-0.0080702784	 0.268229
C	-0.1306994114	 1.4545364195	-0.0178042978	-0.075166
O	-0.9849089633	 1.8200074254	 1.0620482593	-0.228174
C	-0.5672039881	 1.7638351451	 2.3689298889	 0.132423
N	 0.5372291444	 1.9728669697	 2.9229937297	-0.242557
C	 1.7770490264	 2.4116808969	 2.334035548	-0.206505
C	 1.9747005594	 2.5622299263	 0.8528816745	-0.043141
C	 1.1900319266	 2.1742835043	-0.145124015	-0.093276
H	-0.733841651	 1.6769590244	-0.9045055377	 0.152067
H	-1.4347385992	 1.5253191974	 2.983513673	 0.134258
H	 2.0085461397	 3.3786849803	 2.8056623793	 0.140902
H	 2.5714358744	 1.7465551182	 2.7071885158	 0.145759
H	 2.9169074942	 3.0433188759	 0.593562932	 0.109975
H	 1.5087946316	 2.3298644924	-1.1714383719	 0.11733
40.8325	88.7728	173.5477	247.4906	324.9257	379.8844	428.0469	465.4387	560.0117	583.1983	703.9457	743.4527	814.6612	875.8352	924.9623	945.5224	960.4329	991.5647	995.2237	1020.9664	1086.9414	1136.1538	1250.678	1290.4172	1315.197	1376.616	1389.8858	1412.4588	1434.1695	1446.9255	1751.2889	1792.8268	2354.7178	2995.6714	3008.1387	3061.3344	3137.7574	3145.7839	3177.6016
N#CC1OC=NCC=C1	N#C[C@H]1OC=NCC=C1	
InChI=1S/C6H6N2O/c7-4-6-2-1-3-8-5-9-6/h1-2,5-6H,3H2	InChI=1S/C6H6N2O/c7-4-6-2-1-3-8-5-9-6/h1-2,5-6H,3H2/t6-/m0/s1
