18
gdb 51920	3.92504	0.62644	0.57054	3.9681	85.57	-0.2492	0.0202	0.2694	1935.8131	0.146402	-401.897879	-401.888173	-401.887229	-401.935109	33.377	
N	-0.3861165403	 0.6615447179	-1.0249577381	-0.438887
C	-0.6459194026	-0.3059864672	-0.2581909639	 0.137464
O	-0.1547468167	-1.531861607	-0.5364333362	-0.172318
C	-0.5130079162	-2.5729637128	 0.3843929323	-0.240133
C	-1.9177349747	-2.9542775272	 0.3244152026	 0.081615
C	-3.0844066006	-3.2550628664	 0.2680391343	 0.064618
C	-4.4682173968	-3.6162509715	 0.1987193332	-0.160167
C	-5.1554896924	-3.7305061359	-1.1553633389	-0.249993
C	-4.8761036145	-4.9708502243	-0.3646232174	-0.250641
H	-0.8191696172	 1.5109712418	-0.6683408486	 0.228161
H	-1.2520982824	-0.2713345667	 0.6566884547	 0.091303
H	 0.1305480374	-3.4134243903	 0.1097968562	 0.151154
H	-0.241738774	-2.275228959	 1.4070293885	 0.1341
H	-5.0841168847	-3.2377928292	 1.0091940576	 0.112731
H	-6.1764907201	-3.372078544	-1.2189755084	 0.12296
H	-4.5488336678	-3.5344588369	-2.031018505	 0.135249
H	-4.0791437239	-5.6226436892	-0.7013828383	 0.130391
H	-5.7027672926	-5.4760674821	 0.1216574054	 0.122393
21.6218	50.3391	76.4228	109.2813	132.5495	224.7137	291.5642	323.7939	423.9027	506.6326	545.1545	651.0328	719.5545	796.2633	818.7238	823.7	893.0605	900.8282	950.5078	1025.5846	1040.0486	1057.7788	1063.9902	1083.6913	1115.0308	1117.4983	1185.838	1201.7003	1232.8925	1244.3495	1316.1239	1389.4987	1395.8878	1428.0693	1467.5566	1482.9703	1497.4215	1748.0006	2354.6395	3008.4514	3032.9082	3087.9766	3142.95	3144.7618	3149.4976	3228.242	3243.1598	3517.1002
N=COCC#CC1CC1	[NH][CH]OCC#CC1CC1	
InChI=1S/C7H9NO/c8-6-9-5-1-2-7-3-4-7/h6-8H,3-5H2	InChI=1S/C7H9NO/c8-6-9-5-1-2-7-3-4-7/h6-8H,3-5H2
