15
gdb 50691	2.20088	1.84723	1.21393	2.6446	61.15	-0.2537	-0.0554	0.1983	1000.2238	0.110513	-494.895937	-494.887552	-494.886607	-494.930375	28.682	
O	-0.6809099346	 0.7152895075	-0.6383444308	-0.233413
C	 0.3402005955	 0.7752542808	-0.0037974043	 0.129232
C	 1.2239264497	 2.0152649525	 0.0662756539	-0.017853
O	 2.567245787	 1.6676791176	 0.3514823809	-0.255181
C	 3.2990942792	 1.8991421194	-0.8420367101	 0.012385
O	 2.69912396	 3.0168579069	-1.4482114695	-0.225623
C	 1.3069992096	 2.8796289976	-1.2454838672	-0.020588
C	 0.6197433595	 2.260127852	-2.4719966189	 0.150641
O	 1.2054751797	 1.5574274044	-3.252238466	-0.245538
H	 0.7080782559	-0.0687217736	 0.6170075392	 0.114021
H	 0.8443566756	 2.6199065716	 0.9020376937	 0.129334
H	 4.3316186652	 2.1418550831	-0.5811203845	 0.130737
H	 3.2514411063	 1.0242261771	-1.5066264237	 0.117412
H	 0.8857954752	 3.8770554678	-1.0810083177	 0.113889
H	-0.4437264537	 2.5398033954	-2.6073473948	 0.100546
44.5437	74.5646	88.5737	196.7814	224.0816	308.2768	318.5558	396.1966	587.7871	660.4191	724.3274	766.8551	796.7143	864.5993	956.8631	977.8559	1013.0053	1048.1154	1085.8467	1103.3347	1132.1557	1190.9884	1228.4199	1257.4877	1298.2207	1333.4115	1360.2946	1390.3859	1407.8415	1426.2894	1541.4262	1824.6338	1834.056	2921.5975	2936.2583	3002.8436	3012.0365	3061.1129	3112.9925
O=CC1OCOC1C=O	O=C[C@H]1OCO[C@H]1C=O	
InChI=1S/C5H6O4/c6-1-4-5(2-7)9-3-8-4/h1-2,4-5H,3H2	InChI=1S/C5H6O4/c6-1-4-5(2-7)9-3-8-4/h1-2,4-5H,3H2/t4-,5+
