16
gdb 31552	3.32207	1.17744	0.88286	1.2623	69.99	-0.17	0.0449	0.215	1274.5171	0.124678	-471.224406	-471.215237	-471.214293	-471.258329	33.021	
C	-0.1146207579	 1.4063198003	-0.1747433916	-0.329395
N	-0.0919464777	 0.013338947	 0.2447072792	-0.380366
C	-1.2117044004	-0.7644351098	 0.1381598764	 0.493801
N	-1.2530051324	-2.0630549075	 0.0525343566	-0.411454
C	-2.6149059541	-2.3545894923	 0.0641930718	 0.180725
N	-3.0562683932	-3.6774490335	 0.0483019983	-0.607099
C	-3.3255537729	-1.2079957664	 0.1482560693	 0.227273
O	-4.6364285979	-0.9019945057	 0.0742830323	-0.423507
O	-2.4047001428	-0.1464961515	 0.1886538483	-0.212595
H	 0.8344256181	 1.8697317645	 0.1029818635	 0.130008
H	-0.2687457074	 1.5358647345	-1.2558288402	 0.122517
H	-0.916739953	 1.9306545246	 0.3484133853	 0.152505
H	 0.7424194717	-0.5073771227	 0.0192832693	 0.256287
H	-2.3911150848	-4.2737665925	-0.4275530693	 0.250112
H	-3.9754978879	-3.7748657327	-0.3633827128	 0.246873
H	-4.9824989274	-0.7171077362	 0.9574360736	 0.304314
79.1226	123.5407	179.5505	202.8612	215.558	252.5407	281.8555	309.643	383.9813	394.5639	539.6681	578.3248	640.6317	666.6907	700.8859	749.0841	784.6122	838.5147	998.506	1045.1523	1103.0547	1135.4892	1157.8523	1186.6273	1249.0135	1340.9438	1410.2039	1420.761	1440.0761	1484.6975	1493.5274	1515.8479	1632.753	1670.8682	1769.7087	2999.5266	3097.5543	3138.9919	3537.2875	3622.4168	3634.5572	3720.3438
CNC1=NC(N)=C(O)O1	CNc1nc(N)c(O)o1	
InChI=1S/C4H7N3O2/c1-6-4-7-2(5)3(8)9-4/h8H,5H2,1H3,(H,6,7)	InChI=1S/C4H7N3O2/c1-6-4-7-2(5)3(8)9-4/h8H,5H2,1H3,(H,6,7)
