21
gdb 64315	2.5385	1.46531	1.22555	1.1828	85.69	-0.2213	-0.0186	0.2026	1125.247	0.182885	-387.09991	-387.091151	-387.090207	-387.132753	35.117	
C	 0.8288953066	 1.0319353438	 0.0037292918	-0.428801
C	-0.242087928	-0.0781728671	-0.0328632208	 0.3529
O	-1.5414264264	 0.5309786055	 0.0295676967	-0.472886
C	-0.2261346234	-0.8041152324	-1.4082315748	-0.215353
C	 0.4203012934	-2.1995276322	-1.4253865772	-0.260413
C	 1.801030889	-2.2957497948	-0.8292065695	-0.070228
C	 2.0258675833	-2.1506373888	 0.4842331826	-0.084132
C	 0.9677843377	-1.8087146051	 1.4335539809	-0.091254
C	-0.0566738735	-0.980410277	 1.1819271556	-0.119176
H	 1.8301172886	 0.6134831612	-0.1222139511	 0.130441
H	 0.6389021049	 1.7508257371	-0.7993633564	 0.117651
H	 0.8048394835	 1.5629582422	 0.9625244645	 0.100736
H	-1.5321357959	 1.1712849363	 0.749431729	 0.271681
H	-1.2681483789	-0.9038817782	-1.7276907399	 0.114647
H	 0.2640362499	-0.1499922866	-2.1385513569	 0.09385
H	-0.23806788	-2.8722718445	-0.8585206573	 0.1172
H	 0.4311338994	-2.5629430872	-2.4578695764	 0.0948
H	 2.6275649816	-2.5491482234	-1.4878782699	 0.089525
H	 3.0211305749	-2.3261735577	 0.8870051983	 0.086429
H	 1.0277053338	-2.2658964841	 2.4199666047	 0.089915
H	-0.8049277605	-0.8237344769	 1.9561255059	 0.082469
68.6967	190.0694	264.8173	279.1661	295.4608	327.4232	341.6745	361.2973	403.1296	438.208	457.2736	572.6903	634.389	684.6386	712.3017	789.8929	824.2554	883.1729	893.0277	942.046	952.7822	988.2858	994.2278	1003.4972	1018.1685	1066.3255	1098.9091	1126.9466	1171.4271	1213.0625	1233.2403	1271.517	1281.2377	1349.8584	1359.8995	1373.3111	1390.3337	1413.4642	1439.4617	1476.9368	1484.9229	1494.3134	1496.6037	1663.743	1695.9086	3011.5875	3027.3849	3035.7375	3074.0853	3085.7611	3098.1209	3127.4274	3128.6189	3142.4532	3154.6448	3168.8759	3800.6251
CC1(O)CCC=CC=C1	C[C@@]1(O)CCC=CC=C1	
InChI=1S/C8H12O/c1-8(9)6-4-2-3-5-7-8/h2-4,6,9H,5,7H2,1H3	InChI=1S/C8H12O/c1-8(9)6-4-2-3-5-7-8/h2-4,6,9H,5,7H2,1H3/t8-/m0/s1
