17
gdb 17341	3.46015	2.14836	1.80183	1.3027	66.73	-0.2316	0.0721	0.3038	792.7597	0.143977	-363.823487	-363.816901	-363.815956	-363.853667	27.275	
O	-0.1048891036	 1.4230833003	 0.0986241233	-0.472233
C	-0.0375951019	 0.0292361546	 0.058610022	 0.406888
C	-0.3136726857	-0.7330437615	-1.2097220142	-0.352085
C	-1.2971040647	-0.7934932728	-0.0512676377	-0.084379
C	-1.2343819113	-1.9464397732	 0.9567549811	-0.233838
C	 0.1260733309	-1.8296377047	 1.6437438005	-0.022742
N	 1.2851764735	-2.0128027353	 0.7435839834	-0.339754
C	 0.8423745241	-0.6471518615	 1.1004742113	-0.123236
H	 0.6159889002	 1.7693675707	-0.438427817	 0.282051
H	-0.6357284585	-0.1413020827	-2.0607800341	 0.102289
H	 0.3007533572	-1.5960761761	-1.4353386712	 0.136472
H	-2.2468038309	-0.2919004962	-0.199381745	 0.091499
H	-2.0256614644	-1.8221570364	 1.7043241588	 0.10245
H	-1.3717301455	-2.9290328665	 0.4928127397	 0.109521
H	 0.2247681297	-2.1414666068	 2.6791338474	 0.085113
H	 2.1029287999	-2.2593430458	 1.2963349039	 0.228564
H	 1.4802349812	-0.011686906	 1.7054182076	 0.08342
202.7236	268.9998	302.2955	356.5582	382.6812	431.4227	509.5449	597.9593	687.6827	717.4199	808.0577	832.5957	852.9306	870.0077	906.834	913.5893	946.8669	972.0883	1026.0623	1056.056	1068.515	1078.8476	1099.2626	1131.2707	1165.8325	1213.9029	1229.4416	1243.1131	1263.5299	1319.6717	1334.9706	1353.088	1404.4337	1418.5625	1473.0119	1484.7199	3041.0938	3079.9318	3132.1699	3152.4882	3172.3827	3174.7899	3231.7599	3493.2162	3796.0177
OC12CC1CC1NC21	O[C@]12C[C@H]1C[C@H]1N[C@@H]21	
InChI=1S/C6H9NO/c8-6-2-3(6)1-4-5(6)7-4/h3-5,7-8H,1-2H2	InChI=1S/C6H9NO/c8-6-2-3(6)1-4-5(6)7-4/h3-5,7-8H,1-2H2/t3-,4-,5-,6-/m1/s1
