21
gdb 81136	2.44506	1.60285	1.20137	0.7288	88.9	-0.2505	0.0485	0.299	1122.4906	0.183494	-349.921226	-349.912854	-349.91191	-349.953591	33.948	
C	-0.1714957959	 1.5332305586	-0.0164033915	-0.435846
C	 0.0047313655	 0.0219300189	-0.0104242604	 0.012038
C	 1.1444440862	-0.5938209735	-0.883124959	-0.046522
C	 2.1173673501	-0.2733745697	 0.2852516818	-0.275214
C	 0.860474814	-0.604544788	 1.1591957659	 0.275348
C	 0.6868870681	-2.1181139365	 0.8663621942	-0.269778
C	 0.9049258857	-2.1024164272	-0.6832466921	-0.226784
C	 0.7263111217	-0.1607044037	 2.5217994425	 0.07044
C	 0.6027629321	 0.2225325524	 3.6561269912	-0.369
H	 0.7742107137	 2.077220772	 0.0527436225	 0.119178
H	-0.6695954856	 1.8531309759	-0.9380084475	 0.113992
H	-0.7937591851	 1.8483136359	 0.8276185874	 0.127268
H	-0.9750535559	-0.4546592768	-0.1360367524	 0.063149
H	 1.3341951814	-0.2421794787	-1.897668302	 0.059691
H	 2.9936749182	-0.914975278	 0.4151701899	 0.092951
H	 2.4130906686	 0.772895314	 0.3463849279	 0.108653
H	 1.4291127657	-2.7188115551	 1.3980174558	 0.104415
H	-0.3056458836	-2.4718460382	 1.156612557	 0.104761
H	 0.0293746919	-2.460165913	-1.232631509	 0.097111
H	 1.7644626988	-2.7050068231	-0.9901146354	 0.096911
H	 0.4985873542	 0.557050734	 4.6582836433	 0.177237
124.9818	148.178	195.1267	266.8103	277.6981	312.7294	454.4133	465.7128	513.809	537.4824	571.6504	620.366	631.0374	660.3613	777.2345	821.3899	842.3794	880.2847	898.1724	934.4556	972.0836	973.3181	1006.1918	1037.0447	1067.6504	1096.5647	1114.205	1144.6823	1163.4593	1192.7635	1217.4838	1236.7004	1243.8292	1265.8213	1270.5164	1313.3698	1325.7723	1391.4813	1415.039	1490.3075	1492.6674	1496.944	1507.5263	1524.9999	2229.7715	3025.9045	3037.0008	3051.6149	3062.8811	3066.5928	3090.4325	3097.4971	3111.0414	3111.8866	3114.3762	3147.6366	3503.067
CC1C2CC1(CC2)C#C	C[C@H]1[C@H]2C[C@@]1(CC2)C#C	
InChI=1S/C9H12/c1-3-9-5-4-8(6-9)7(9)2/h1,7-8H,4-6H2,2H3	InChI=1S/C9H12/c1-3-9-5-4-8(6-9)7(9)2/h1,7-8H,4-6H2,2H3/t7-,8+,9-/m0/s1
