16
gdb 6335	4.28611	1.22238	0.96591	2.1453	64.73	-0.2561	-0.0114	0.2448	1165.0347	0.129613	-417.09817	-417.089154	-417.08821	-417.132721	31.203	
C	 0.102995323	 1.3841719418	 0.0970175815	-0.4941
C	-0.4379448277	 0.0399133722	-0.3612713719	 0.405894
O	-0.7386378636	-0.1945943763	-1.5145777269	-0.347593
N	-0.5505523943	-0.8839491578	 0.6575238835	-0.341764
C	-0.9849202689	-2.2149647649	 0.6072163798	 0.324925
N	-0.951564028	-2.8684637399	 1.6973138744	-0.503112
C	-1.4611547451	-2.7744988815	-0.7308432907	-0.154275
O	-1.9401536024	-4.0971335853	-0.5823192113	-0.406165
H	 0.1304556109	 2.0581045548	-0.7580728317	 0.156338
H	-0.5284422062	 1.8148583305	 0.8809227417	 0.14453
H	 1.1133260387	 1.2762609411	 0.5054275808	 0.147376
H	-0.2571592719	-0.6124568073	 1.5863336513	 0.258446
H	-1.2674838301	-3.8212248638	 1.5102850636	 0.228612
H	-2.2021965518	-2.1043593991	-1.1773236344	 0.136229
H	-0.6232720942	-2.8062722189	-1.4324390021	 0.152849
H	-2.8429293384	-4.0526065057	-0.2518081177	 0.291812
50.3961	69.8591	105.0514	169.9852	188.4279	297.797	314.9582	359.1671	415.1148	524.0473	577.9423	599.6241	692.4283	692.9466	821.3094	913.2533	980.4726	998.9564	1005.6795	1053.3787	1091.9836	1138.7591	1211.0998	1248.5437	1344.3272	1387.1544	1390.9157	1436.1776	1453.2152	1466.8189	1482.552	1508.9808	1720.0676	1795.1488	3044.77	3062.8223	3107.6378	3108.3758	3167.8137	3477.0363	3594.854	3823.8485
CC(=O)NC(=N)CO	CC(=O)NC(=N)CO	
InChI=1S/C4H8N2O2/c1-3(8)6-4(5)2-7/h7H,2H2,1H3,(H2,5,6,8)	InChI=1S/C4H8N2O2/c1-3(8)6-4(5)2-7/h7H,2H2,1H3,(H2,5,6,8)
