18
gdb 18896	3.03976	2.57086	1.78155	0.3412	75.14	-0.2107	0.0891	0.2999	815.5081	0.152602	-310.568948	-310.561638	-310.560694	-310.599868	28.957	
C	 0.0571826351	 1.5220147962	-0.0397534147	-0.523342
C	 0.0031532655	 0.0296971878	-0.0143990495	 0.30195
C	 0.841888032	-1.000481789	-0.7606223901	-0.146722
C	 0.8435785251	-0.9746121347	 0.7644755881	-0.146725
C	-0.3496719582	-1.9728744048	 0.782762984	-0.146722
C	-0.3512952937	-1.9988234638	-0.7423337197	-0.146725
C	-1.2038793331	-0.9801650051	 0.0040125856	 0.30195
C	-2.6825535307	-0.7701833847	 0.0019985005	-0.523342
H	 1.0973389894	 1.8674254693	-0.0469839795	 0.120524
H	-0.4319080779	 1.9314594561	-0.9319244253	 0.118548
H	-0.429572659	 1.9614868881	 0.8393132329	 0.118548
H	 1.659158531	-0.8466290577	-1.4535673803	 0.078609
H	 1.6623838197	-0.7973868549	 1.4499851594	 0.07861
H	-0.6561627634	-2.7370525947	 1.4855215158	 0.07861
H	-0.6592526162	-2.7864608566	-1.4180290028	 0.07861
H	-3.2060277749	-1.7329801404	 0.018824032	 0.120524
H	-3.0134596232	-0.2001489772	 0.8785747213	 0.118547
H	-3.0152975374	-0.2301060439	-0.8926647378	 0.118548
183.4545	193.3097	200.9337	225.3725	286.5518	344.6649	558.7079	615.0426	649.5091	767.193	779.0833	816.0376	842.4087	846.256	847.7891	862.4444	878.3379	926.7053	959.7052	988.9021	1011.0696	1041.5748	1091.0977	1109.2648	1132.6629	1166.8511	1187.17	1219.6856	1259.8889	1261.9564	1401.0421	1403.499	1428.3476	1434.6321	1478.5914	1482.8223	1496.7116	1499.6353	3012.8232	3015.9218	3070.143	3073.0501	3084.2519	3085.8818	3178.3654	3191.8767	3192.0291	3201.4814
CC12C3C1C1C3C21C	C[C@@]12[C@H]3[C@@H]1[C@@H]1[C@H]3[C@]21C	
InChI=1S/C8H10/c1-7-3-4(7)6-5(3)8(6,7)2/h3-6H,1-2H3	InChI=1S/C8H10/c1-7-3-4(7)6-5(3)8(6,7)2/h3-6H,1-2H3/t3-,4+,5-,6+,7+,8-
