18
gdb 28906	2.36306	1.7739	1.02615	1.5565	82.88	-0.223	-0.0099	0.2131	1150.6068	0.147875	-402.026254	-402.017535	-402.016591	-402.059376	32.736	
C	 0.0690450909	 1.5016296293	 0.0228138875	-0.523416
C	 0.0312377168	-0.0068690939	 0.0130151719	 0.232085
N	-0.0532084318	-0.6145682199	-1.1745877168	-0.325139
C	-0.0876893461	-1.9477996362	-1.1999593155	-0.024397
C	-0.0401204433	-2.7335599962	-0.0540625826	-0.193815
C	 0.0479232116	-2.1281012506	 1.1970645747	 0.223764
C	 0.1036830343	-2.9073427038	 2.4818278628	-0.486556
C	 0.0834326605	-0.7303882385	 1.2132774305	 0.231288
O	 0.1697653534	-0.1205954437	 2.4326786551	-0.435618
H	 0.9929953114	 1.8888180994	 0.4736081009	 0.127499
H	 0.017788222	 1.8627689875	-1.0047928907	 0.153201
H	-0.7758737951	 1.9325547507	 0.5771262349	 0.127452
H	-0.1563727201	-2.4082549056	-2.1821023594	 0.100732
H	-0.0713558317	-3.8157962507	-0.1316010104	 0.091882
H	 1.0201182976	-2.6838297821	 3.0384554591	 0.140374
H	-0.7303028878	-2.6413848385	 3.1401573847	 0.140361
H	 0.0664609325	-3.9821883234	 2.2902280991	 0.120931
H	 0.1852557348	 0.8336569062	 2.3097320843	 0.299372
106.8389	126.4195	151.5611	233.1057	276.348	300.4245	309.9286	346.9837	487.7886	513.5151	532.1284	557.5757	588.0632	689.4946	779.3844	853.4486	857.673	918.9015	962.9895	989.8689	1037.0618	1055.5957	1061.8408	1127.2052	1239.9435	1250.609	1292.9222	1308.6372	1345.3553	1400.1999	1413.7898	1447.8641	1476.5965	1478.8962	1490.2774	1491.2261	1520.0305	1616.2363	1644.5311	3006.2416	3037.3976	3052.5602	3090.8904	3124.5295	3144.9542	3156.165	3182.0898	3833.6492
CC1=NC=CC(C)=C1O	Cc1nccc(C)c1O	
InChI=1S/C7H9NO/c1-5-3-4-8-6(2)7(5)9/h3-4,9H,1-2H3	InChI=1S/C7H9NO/c1-5-3-4-8-6(2)7(5)9/h3-4,9H,1-2H3
