21
gdb 117085	2.87974	1.00512	0.95294	2.111	75.56	-0.2544	0.0099	0.2644	1399.2404	0.178613	-461.409122	-461.398105	-461.397161	-461.445906	39.414	
C	-0.0986470271	 1.1305503113	 0.1853910983	-0.385264
C	-0.0333113941	-0.1095544421	-0.6918845999	-0.06108
O	-1.3036214718	-0.7987123561	-0.7212464556	-0.271754
C	-1.5391223588	-1.6897214029	 0.2683158362	 0.436935
O	-0.7540331364	-1.9465328411	 1.1446301725	-0.371056
C	-2.9066332438	-2.366287844	 0.0697719964	 0.233258
C	-2.6825819862	-3.5918380849	-0.839749289	-0.414073
C	-3.483436494	-2.7743750523	 1.423624034	-0.39255
O	-3.8347526302	-1.4694728863	-0.5243829231	-0.462231
H	 0.8504681867	 1.6729507765	 0.1289340396	 0.123523
H	-0.8979819652	 1.8003086902	-0.1443102942	 0.128168
H	-0.2749264014	 0.8547297713	 1.2276876525	 0.147288
H	 0.1644923441	 0.1461259548	-1.7354833442	 0.115171
H	 0.729897077	-0.8049722423	-0.3357773021	 0.135908
H	-1.98702969	-4.3030272324	-0.3844489816	 0.129299
H	-3.6416620024	-4.0886075958	-1.0085357494	 0.127541
H	-2.2776780395	-3.2829787208	-1.8086049916	 0.115755
H	-3.6683053577	-1.889592553	 2.037638785	 0.125102
H	-4.4330420108	-3.2939797275	 1.2712050111	 0.119947
H	-2.7914625026	-3.4299225471	 1.9542594261	 0.134097
H	-3.3676246057	-0.9974065453	-1.2226645009	 0.286017
30.1075	66.0829	90.6505	186.5361	193.3275	229.5308	240.7399	270.259	313.2868	331.355	351.6306	369.451	407.5836	452.6331	518.0096	596.8512	769.9373	775.534	831.1457	865.6229	906.5955	933.5381	983.132	1014.5282	1043.4246	1115.4664	1137.3005	1178.7753	1198.2005	1214.6752	1263.0375	1330.0166	1381.8739	1396.9151	1401.1533	1415.8934	1421.0524	1475.3881	1481.0636	1485.1701	1487.609	1495.1381	1505.8105	1507.5594	1820.839	3038.1951	3046.7235	3056.1922	3071.4608	3113.0261	3114.1196	3122.4301	3124.5516	3128.8904	3141.9345	3149.8011	3810.4969
CCOC(=O)C(C)(C)O	CCOC(=O)C(C)(C)O	
InChI=1S/C6H12O3/c1-4-9-5(7)6(2,3)8/h8H,4H2,1-3H3	InChI=1S/C6H12O3/c1-4-9-5(7)6(2,3)8/h8H,4H2,1-3H3
