19
gdb 98846	2.67838	1.2565	1.02188	3.5852	72.87	-0.2299	0.0259	0.2558	1231.7882	0.159982	-456.351057	-456.341693	-456.340749	-456.386539	33.6	
C	-0.6393667147	 1.6297528247	-0.3094762317	-0.332806
N	-1.3106531272	 0.3490005806	-0.3720937778	-0.300287
C	-0.7781067638	-0.7875998871	 0.1142401995	 0.422903
O	 0.3035340923	-0.8779914659	 0.6918296483	-0.421811
C	-1.613555413	-2.0386980333	-0.1181782376	-0.14972
N	-2.6728675806	-1.8985090237	-1.154283452	-0.343303
C	-1.9573119917	-2.8607991924	-2.0537748855	-0.180605
C	-0.8656585363	-3.1050421315	-0.981994222	 0.138009
O	 0.4376400868	-2.8016533474	-1.3838706016	-0.439488
H	-0.3832556012	 1.995151124	-1.3104091645	 0.130004
H	-1.2652585345	 2.3797219554	 0.1857781974	 0.127107
H	 0.2789470259	 1.4939409808	 0.2638853738	 0.167277
H	-2.1527669814	 0.2205567841	-0.9194668083	 0.256836
H	-1.9509782208	-2.4001330022	 0.8583536482	 0.100929
H	-3.5684216322	-2.2547696577	-0.8417045559	 0.22727
H	-2.5442169669	-3.7362947606	-2.344970357	 0.105297
H	-1.5659614967	-2.3727267582	-2.9510145754	 0.120367
H	-0.9258702789	-4.108477812	-0.5381647981	 0.071037
H	 0.8562537449	-2.3333128275	-0.6434676699	 0.300986
29.1294	78.7395	99.2535	151.2572	196.0053	242.8603	331.1218	382.8973	428.7543	509.3359	543.2199	574.2711	680.5275	706.6777	784.4739	824.3616	854.41	911.9232	964.5004	982.6175	1026.2249	1067.2985	1111.3168	1138.0729	1151.7041	1172.2716	1183.9349	1227.5627	1262.8716	1264.668	1295.0013	1331.5909	1373.026	1395.7901	1426.2531	1441.0704	1496.7575	1499.3665	1501.65	1581.0514	1745.3436	2995.894	3029.3965	3050.1585	3061.1075	3082.7355	3104.3385	3147.4568	3542.0689	3562.5148	3678.9755
CNC(=O)C1NCC1O	CNC(=O)[C@H]1NC[C@H]1O	
InChI=1S/C5H10N2O2/c1-6-5(9)4-3(8)2-7-4/h3-4,7-8H,2H2,1H3,(H,6,9)	InChI=1S/C5H10N2O2/c1-6-5(9)4-3(8)2-7-4/h3-4,7-8H,2H2,1H3,(H,6,9)/t3-,4+/m1/s1
