17
gdb 70063	3.07547	1.6454	1.31326	0.9826	73.74	-0.2284	-0.0038	0.2246	980.347	0.136509	-421.763771	-421.756558	-421.755614	-421.79501	29.218	
O	-0.169520301	 1.439575204	 0.0236388843	-0.473716
C	-0.0453712536	 0.0505194179	 0.0756088044	 0.359463
C	-0.3291717292	-0.7557822711	-1.1619182489	-0.335979
C	-1.3185661648	-0.8014113024	 0.000266435	-0.115741
C	-1.0847215398	-1.9954425222	 0.8799912432	-0.194724
C	 0.0535747961	-1.8245150106	 1.5527317584	 0.143154
C	 1.3992866896	-2.4755577705	 1.7690151284	-0.145503
O	 1.9875458647	-1.3682680638	 1.0175293624	-0.30846
C	 0.7661235109	-0.5546069244	 1.203265221	 0.02782
H	 0.5828566591	 1.7853035394	-0.4690643445	 0.286793
H	-0.627587964	-0.1701450814	-2.0250942283	 0.116754
H	 0.2676718018	-1.6361605067	-1.3734578673	 0.124088
H	-2.2864251639	-0.3310363609	-0.1298638837	 0.101811
H	-1.6424219258	-2.9189887756	 0.7713836228	 0.104072
H	 1.7704433742	-2.490129888	 2.8021265039	 0.107639
H	 1.5763937109	-3.4466452805	 1.2962304443	 0.118665
H	 0.9379889247	 0.1917005568	 1.9897749847	 0.083863
162.5693	203.6912	278.4178	288.8814	355.7519	376.9766	480.1479	490.8201	587.1685	658.2128	743.3603	793.1025	832.6774	845.9873	865.0008	917.9445	923.5426	957.3427	975.7005	988.4055	1019.8956	1049.2682	1068.7377	1073.925	1122.4037	1140.1506	1211.6236	1226.7694	1273.4496	1292.909	1319.3308	1321.2	1332.5702	1402.2459	1467.3595	1513.4013	1715.8622	3013.0102	3024.3483	3079.9712	3130.3765	3179.2683	3193.8943	3225.5213	3797.4327
OC12CC1C=C1COC21	O[C@]12C[C@H]1[CH][C]1CO[C@@H]21	
InChI=1S/C7H8O2/c8-7-2-5(7)1-4-3-9-6(4)7/h1,5-6,8H,2-3H2	InChI=1S/C7H8O2/c8-7-2-5(7)1-4-3-9-6(4)7/h1,5-6,8H,2-3H2/t5-,6-,7-/m1/s1
