19
gdb 77496	1.95871	1.7457	1.28416	2.1287	71.59	-0.2414	0.0678	0.3092	1078.6666	0.156838	-460.111973	-460.102454	-460.101509	-460.145385	36.245	
C	 0.0229554965	 1.4898228432	 0.0040760925	-0.520321
C	 0.0217421042	-0.0123375035	-0.0186993352	 0.281969
C	 0.5287575687	-0.9553978031	-1.16296567	-0.35332
C	 0.0301085197	-1.8980926417	-0.0315031133	 0.289894
O	 0.0691896058	-3.2816408347	 0.0483229414	-0.478394
C	 0.7392659047	-0.9638671201	 0.9836761641	 0.067598
O	 2.1437102061	-0.8808073061	 0.9785073996	-0.450514
C	-1.2078095015	-0.956448705	 0.086358484	 0.033498
O	-1.9407823516	-0.8986930707	 1.2859532641	-0.448265
H	 1.0468674954	 1.8760249424	-0.0165746888	 0.131536
H	-0.5130207553	 1.8995819839	-0.8585724325	 0.116593
H	-0.4627065158	 1.8617355926	 0.912184358	 0.130806
H	-0.0528358432	-0.9453935865	-2.0903696974	 0.080034
H	 1.6014596992	-0.9464450584	-1.3416884493	 0.119568
H	-0.2476552615	-3.6475819582	-0.7845258423	 0.284059
H	 0.3333475882	-0.972039799	 1.9982052648	 0.079861
H	 2.4853751252	-1.6434786487	 1.455433039	 0.288435
H	-1.8687455018	-0.9422021972	-0.7921363246	 0.059177
H	-2.322245993	-1.7690826289	 1.4412532859	 0.287787
152.1158	179.9143	195.9504	201.4147	208.949	261.238	264.0841	271.3999	292.7843	389.7392	449.6008	527.6574	563.9789	598.7892	676.945	694.3904	770.7655	823.3626	884.6167	969.7935	980.5321	1035.8502	1063.2217	1090.099	1123.7249	1134.2922	1154.102	1159.2903	1195.7866	1205.8941	1243.5113	1286.7404	1321.7185	1352.8664	1367.8237	1406.7918	1411.0209	1448.5419	1488.7738	1492.89	1523.3137	2998.6428	3032.5852	3055.195	3080.5635	3100.0313	3105.5979	3166.3678	3807.03	3810.4056	3823.2735
CC12CC(O)(C1O)C2O	C[C@@]12C[C@@](O)([C@H]1O)[C@H]2O	
InChI=1S/C6H10O3/c1-5-2-6(9,3(5)7)4(5)8/h3-4,7-9H,2H2,1H3	InChI=1S/C6H10O3/c1-5-2-6(9,3(5)7)4(5)8/h3-4,7-9H,2H2,1H3/t3-,4-,5-,6-/m0/s1
