13
gdb 132885	3.06371	1.33543	0.93004	1.9974	67.19	-0.1975	-0.0428	0.1547	1108.539	0.089527	-502.026424	-502.01933	-502.018386	-502.058063	27.416	
F	 0.0220640843	-0.0054370572	 0.0026253564	-0.079929
C	-0.0213001091	 1.3317425337	 0.0102650523	 0.218014
C	-1.2007287935	 1.990939866	 0.0296018393	-0.094413
N	-1.2020765076	 3.3625704521	 0.0368219924	-0.357616
C	-0.0736797483	 4.1804973894	 0.0260652835	 0.299216
N	-0.2158415654	 5.4558254461	 0.0349141586	-0.573889
C	 1.1624503981	 3.4069176556	 0.005346499	 0.215499
F	 2.2796308138	 4.1335104674	-0.0057852038	-0.070724
C	 1.2074539145	 2.0564615793	-0.0024124622	-0.334606
H	-2.1586091574	 1.4907952151	 0.039828881	 0.147477
H	-2.0777329581	 3.8646993778	 0.0513587922	 0.270673
H	 0.6973572928	 5.9039437408	 0.0250953297	 0.222713
H	 2.1538416059	 1.5292150738	-0.0179111082	 0.137586
115.9008	226.6141	312.8497	339.0879	340.931	419.4972	459.6839	507.032	565.1679	588.411	624.3673	711.4416	744.2304	791.0857	822.5003	845.1202	899.8	984.6036	1065.7314	1176.3534	1215.9714	1288.1537	1316.9829	1378.292	1454.1175	1480.3305	1619.5427	1679.8105	1725.9461	3211.1295	3239.8071	3524.9207	3622.4219
FC1=CNC(=N)C(F)=C1	FC1=CNC(=C(F)C1)[NH]	
InChI=1S/C5H4F2N2/c6-3-1-4(7)5(8)9-2-3/h1-2H,(H2,8,9)	InChI=1S/C5H5F2N2/c6-3-1-4(7)5(8)9-2-3/h2,8-9H,1H2
