23
gdb 119467	4.77758	0.8277	0.78776	0.7713	87.19	-0.238	0.0929	0.3309	1589.5012	0.204291	-388.261035	-388.251205	-388.250261	-388.296072	36.864	
C	-0.1610200693	 1.5665816946	-0.0659733321	-0.3864
C	-0.0631543963	 0.05452328	-0.1662885097	-0.05877
O	-1.3091720589	-0.500999708	 0.2414460835	-0.293793
C	-1.35460874	-1.8761033506	 0.1650250753	 0.468395
C	-1.5674472181	-2.6037067785	-1.133031737	-0.341727
C	-2.5861252688	-2.7418794845	-0.0164627022	-0.160376
C	-2.0866405925	-3.7094296563	 1.0718419759	 0.041606
C	-1.9270385902	-5.1859312408	 0.7315843847	-0.402187
C	-0.797559181	-2.8245749927	 1.237606969	-0.328569
H	 0.7814241242	 2.0309834306	-0.3715579106	 0.113689
H	-0.9597664088	 1.9427340441	-0.7116805471	 0.125616
H	-0.3809240586	 1.8704167268	 0.9614366864	 0.1264
H	 0.1631158847	-0.2577584087	-1.1971769517	 0.091835
H	 0.747426686	-0.3244904293	 0.4753204734	 0.092231
H	-1.8962488078	-1.965047926	-1.9468522052	 0.112255
H	-0.9381828301	-3.4363617284	-1.4388169668	 0.100605
H	-3.6163912327	-2.440917916	-0.1649730393	 0.088223
H	-2.7088014207	-3.6091533839	 1.9666097765	 0.076637
H	-1.3174294063	-5.3319060205	-0.1661372615	 0.113808
H	-1.4432328416	-5.7272925716	 1.5520952975	 0.112513
H	-2.9005679663	-5.6549500501	 0.5509300561	 0.114025
H	 0.1606540522	-3.3059328696	 1.0138290051	 0.08863
H	-0.7398682193	-2.3550976407	 2.2222753896	 0.105355
57.9387	78.0432	102.5604	199.7754	220.597	239.3761	257.7539	330.8045	385.5225	414.4566	418.8143	521.5643	638.412	712.2568	796.1853	818.9106	849.3136	877.4067	916.7526	925.9244	962.849	972.2309	996.7731	1020.659	1063.9605	1080.2011	1089.3714	1106.9296	1121.706	1150.9561	1184.0462	1187.3089	1221.8353	1238.2706	1265.3083	1293.7239	1305.4753	1364.363	1377.5434	1401.6277	1412.2685	1433.0112	1475.6031	1482.8353	1494.8287	1495.8839	1499.4826	1503.699	1528.2175	2978.2566	3008.8663	3028.3057	3041.1325	3043.9764	3050.5066	3092.3806	3099.4842	3107.3563	3109.2727	3118.0592	3120.6899	3180.4977	3201.3972
CCOC12CC1C(C)C2	CCO[C@]12C[C@H]1[C@@H](C)C2	
InChI=1S/C8H14O/c1-3-9-8-4-6(2)7(8)5-8/h6-7H,3-5H2,1-2H3	InChI=1S/C8H14O/c1-3-9-8-4-6(2)7(8)5-8/h6-7H,3-5H2,1-2H3/t6-,7-,8+/m0/s1
