19
gdb 111096	3.72976	1.09563	1.04932	2.6364	77.8	-0.2283	0.0095	0.2378	1249.8163	0.15795	-422.96829	-422.959688	-422.958743	-423.001696	32.191	
C	-0.2026935954	 1.3381142174	 0.1404131814	-0.244166
O	 0.3580619552	 0.0618718333	-0.0851489198	-0.248323
C	 0.8390034013	-0.5442785556	 1.0670497482	 0.187804
C	-0.1755028103	-1.4264354571	 1.9080926342	-0.031267
O	-0.0696950481	-2.4305494912	 0.8488998516	-0.279611
C	 1.3267437294	-2.0073589569	 0.8223756291	-0.085316
C	 1.8166560511	-2.3759872564	 2.235277314	 0.350358
C	 3.1284696252	-2.9848201131	 2.5855271451	-0.517203
C	 0.7727581235	-1.972426865	 2.9734018227	-0.205364
H	 0.522131074	 2.02179427	 0.6089359636	 0.106518
H	-0.4919245864	 1.7400727571	-0.8329052358	 0.132528
H	-1.0946152886	 1.2871376385	 0.7817999057	 0.110051
H	 1.4954543413	 0.1272251998	 1.639309385	 0.064226
H	-1.1929890949	-1.1283278048	 2.1565397689	 0.079615
H	 1.8845556738	-2.3090546718	-0.0636582238	 0.08069
H	 3.9635665663	-2.3641468743	 2.2367767786	 0.130353
H	 3.233284524	-3.1145345034	 3.6662647347	 0.129192
H	 3.2502693285	-3.9666227956	 2.1109400861	 0.135617
H	 0.6294209999	-1.9783240808	 4.0444493906	 0.104298
74.5989	150.1008	161.4736	170.5068	205.626	284.0564	337.9425	423.658	487.5587	561.108	592.6332	671.8292	785.6976	817.9895	849.6761	887.7023	918.2202	927.4	953.325	1011.7764	1019.1773	1060.4406	1067.2327	1139.5095	1150.0693	1179.7356	1184.3208	1202.5593	1224.1764	1235.6819	1248.5336	1295.0525	1303.8081	1384.5261	1414.0778	1478.5245	1482.095	1485.6994	1489.7606	1507.0976	1678.1364	2978.5703	3003.2196	3018.0574	3029.7793	3064.4394	3108.9861	3122.2143	3132.9131	3136.9828	3233.6719
COC1C2OC1C(C)=C2	CO[C@H]1[C@H]2O[C@@H]1C(=C2)C	
InChI=1S/C7H10O2/c1-4-3-5-7(8-2)6(4)9-5/h3,5-7H,1-2H3	InChI=1S/C7H10O2/c1-4-3-5-7(8-2)6(4)9-5/h3,5-7H,1-2H3/t5-,6+,7-/m0/s1
