17
gdb 37224	3.33208	1.61126	1.29841	1.9609	73.99	-0.2381	-0.0014	0.2367	983.188	0.137097	-421.766438	-421.759477	-421.758533	-421.79785	27.644	
C	-0.0291956886	 1.3175664789	 0.0923360601	-0.062011
C	 1.2810864687	 2.1358056077	 0.1322306633	-0.266842
C	 2.2633350978	 1.4376926951	 1.0529826705	-0.237084
C	 2.2234082906	 0.1159136574	 0.9925066873	 0.28897
C	 2.428815316	-1.1243886557	 1.8202854154	-0.105956
O	 1.1142814018	-1.3862960272	 2.3658989981	-0.234662
C	 1.3864914265	-1.8386520117	 1.041150653	-0.017529
C	 1.3217579718	-0.6488696791	 0.0447478117	 0.059557
O	 0.1366206856	-0.0237301479	-0.3752730526	-0.275319
H	-0.4668199342	 1.3118716961	 1.1003566862	 0.107839
H	-0.7493933376	 1.7733729092	-0.5936607787	 0.105521
H	 1.6781791378	 2.2526479958	-0.8846769101	 0.118405
H	 1.053648064	 3.142147488	 0.4994807728	 0.109827
H	 2.8481379664	 1.9979967987	 1.7756185336	 0.099959
H	 3.2828013781	-1.5020469349	 2.3668415784	 0.11329
H	 1.2643419197	-2.8960703194	 0.8377583668	 0.10598
H	 1.8868949955	-0.9588450008	-0.8493669058	 0.090057
101.2732	172.3562	253.8376	321.9277	404.4742	461.1938	539.8704	599.5424	679.3502	713.9883	783.9791	841.8761	852.3225	863.0742	883.9731	910.8027	959.1001	966.5242	1020.2496	1032.2819	1038.2173	1078.0712	1099.8607	1138.4148	1202.3344	1216.6027	1231.2179	1258.6793	1282.3369	1306.3222	1336.4154	1358.4742	1370.1921	1411.251	1469.5087	1504.5181	1772.6129	2972.5371	3006.6675	3023.7263	3077.5705	3083.4664	3175.6533	3189.1391	3212.9448
C1CC=C2C3OC3C2O1	C1C[CH][C]2[C@H]3O[C@H]3[C@H]2O1	
InChI=1S/C7H8O2/c1-2-4-5(8-3-1)7-6(4)9-7/h2,5-7H,1,3H2	InChI=1S/C7H8O2/c1-2-4-5(8-3-1)7-6(4)9-7/h2,5-7H,1,3H2/t5-,6+,7-/m0/s1
