16
gdb 9729	2.88025	2.06633	1.70981	1.1391	65.61	-0.2581	0.0405	0.2986	846.4477	0.128841	-383.706378	-383.698309	-383.697365	-383.739058	29.398	
C	 0.038465589	 1.5549730163	-0.0454868424	-0.43211
C	 0.0538648464	 0.0366032744	-0.0144231657	 0.218818
O	 0.754855769	-0.452145656	-1.1442731649	-0.255187
C	 1.2693842035	-1.7286023172	-0.7799674926	-0.111027
C	 1.3011407231	-1.6970075445	 0.7712084519	-0.111171
O	 0.8025830236	-0.4056823408	 1.1038286933	-0.255072
C	-1.3141619856	-0.5354245808	 0.0264018634	 0.360528
C	-2.4188302029	-1.0076817149	 0.0596327835	-0.483485
H	 1.0686531118	 1.9152431965	-0.0745676523	 0.131235
H	-0.4975283757	 1.9022522943	-0.930918566	 0.13836
H	-0.4602361728	 1.9390418134	 0.8465161719	 0.138347
H	 0.6211301115	-2.532032064	-1.15021476	 0.111928
H	 2.2587689942	-1.8323116166	-1.2322920179	 0.118638
H	 0.6680965109	-2.4832755031	 1.2000165333	 0.111942
H	 2.3081007339	-1.7843867319	 1.1866566943	 0.118666
H	-3.39723435	-1.4206023952	 0.0890657202	 0.199591
56.8018	120.5311	189.6318	210.4695	216.0735	320.3452	423.9692	527.3894	567.2269	649.292	656.8075	659.2017	745.4921	794.0242	845.3328	871.4151	912.5428	951.4922	1063.8614	1068.8631	1132.0376	1165.552	1190.6422	1223.2068	1240.5323	1253.9684	1370.0641	1378.2896	1404.4204	1479.147	1480.1206	1515.9859	1528.3774	2228.005	3024.678	3036.1345	3062.5326	3086.4889	3105.9929	3148.6026	3150.1823	3498.9921
CC1(OCCO1)C#C	CC1(OCCO1)C#C	
InChI=1S/C6H8O2/c1-3-6(2)7-4-5-8-6/h1H,4-5H2,2H3	InChI=1S/C6H8O2/c1-3-6(2)7-4-5-8-6/h1H,4-5H2,2H3
