20
gdb 66353	2.31124	1.39598	1.30475	3.2456	78.38	-0.2597	0.0363	0.296	1117.6988	0.172371	-403.180279	-403.171699	-403.170755	-403.213048	33.199	
C	-0.017503204	 1.5526759218	 0.01077149	-0.4264
C	-0.021779134	 0.0117233012	 0.002537726	 0.084388
C	 0.6896199904	-0.5401011072	-1.2620629343	-0.219574
C	 0.8730940834	-2.0575482058	-1.1880188758	-0.095049
O	 1.5789823442	-2.4397815907	-0.0203111475	-0.243153
C	 0.8873310179	-2.0701272498	 1.1598981168	-0.09505
C	 0.7048890395	-0.5535761107	 1.2524239089	-0.219572
C	-1.4216620884	-0.4499344341	 0.0085430674	 0.276378
N	-2.5214356453	-0.8073215991	 0.0134403923	-0.352134
H	 1.0145002657	 1.9158440963	 0.0064491727	 0.124544
H	-0.5286069809	 1.9508288227	-0.8701909567	 0.133802
H	-0.5178412813	 1.9413308892	 0.9020954352	 0.133804
H	 0.1301092376	-0.2683523629	-2.1633300982	 0.113433
H	 1.6744115345	-0.0630370388	-1.3229768613	 0.110378
H	-0.1082774627	-2.558265945	-1.221951875	 0.112264
H	 1.4635691925	-2.4138621785	-2.0364370152	 0.112928
H	-0.0935972738	-2.5712290829	 1.2003616519	 0.112267
H	 1.4880237637	-2.4354811978	 1.9972262373	 0.112927
H	 1.6903832867	-0.0771378367	 1.3064954263	 0.110381
H	 0.1563794044	-0.2915378213	 2.1632786091	 0.113435
117.1474	150.1981	203.8388	238.9201	266.571	299.312	337.3978	391.4084	411.1126	473.2786	561.3743	596.99	632.844	669.0598	815.9377	849.3928	891.6068	899.2096	1001.0354	1006.3632	1019.6702	1040.7524	1062.3276	1128.0029	1133.8692	1196.4816	1203.6054	1227.8105	1278.1721	1316.9597	1328.7503	1346.6336	1375.4016	1388.2523	1411.929	1426.3666	1464.7999	1479.9527	1490.3327	1493.8229	1496.9805	1506.9143	2347.097	2978.2154	2982.7627	3037.8161	3038.4805	3043.7338	3087.8347	3089.3806	3091.9797	3094.0973	3118.4475	3121.2756
CC1(CCOCC1)C#N	CC1(CCOCC1)C#N	
InChI=1S/C7H11NO/c1-7(6-8)2-4-9-5-3-7/h2-5H2,1H3	InChI=1S/C7H11NO/c1-7(6-8)2-4-9-5-3-7/h2-5H2,1H3
