23
gdb 58563	2.11312	1.3767	1.2253	0.7073	81.2	-0.2463	0.067	0.3134	1216.4225	0.20318	-425.412232	-425.401864	-425.40092	-425.446815	39.308	
C	-2.1064032021	-1.2494136836	 0.2835851956	-0.40869
C	-0.8877134283	-0.3086851597	 0.2579709145	 0.00653
C	-1.369352296	 1.1514425015	 0.2475872372	-0.391314
C	 0.1237742325	-0.5637263333	 1.3949093366	 0.313746
O	 1.0030983752	 0.5378529412	 1.4158266345	-0.478856
C	-0.4712179605	-1.0347698007	 2.7520692654	-0.129187
O	-0.0884386018	-2.3968738003	 2.4749955918	-0.291798
C	 0.8154013084	-1.9639416237	 1.4319254327	 0.121142
C	 0.9183881373	-2.9058646578	 0.2513179223	-0.429793
H	-2.8274502093	-0.929332016	 1.0434013764	 0.113997
H	-2.6217539856	-1.2152052311	-0.6811516007	 0.110785
H	-1.8489090575	-2.287237384	 0.4999891109	 0.133387
H	-0.3367402405	-0.4824656215	-0.6762269672	 0.081479
H	-1.8782837872	 1.4034180091	 1.185570331	 0.108113
H	-0.5412969166	 1.8482564829	 0.1170485928	 0.133685
H	-2.0865262727	 1.3013944139	-0.5661499007	 0.103974
H	 1.6777978233	 0.3715965077	 2.0827231395	 0.276795
H	 0.0783384937	-0.6192882798	 3.6112447176	 0.082407
H	-1.5450933829	-0.936033227	 2.9319814666	 0.108304
H	 1.8282310179	-1.8307605791	 1.8571896096	 0.052057
H	-0.0341302209	-3.0503161793	-0.2604235682	 0.128873
H	 1.645723327	-2.5171889784	-0.4692394893	 0.124691
H	 1.2745236263	-3.8835086309	 0.592160781	 0.129673
78.1467	131.8026	176.7718	186.8868	206.0926	245.8962	255.8086	301.2419	320.5386	335.4419	375.9587	413.5692	445.0475	510.817	535.1436	651.2633	745.2277	860.1672	870.0648	919.8952	942.7763	960.7581	978.2584	1010.6788	1019.9531	1097.1777	1104.1013	1121.2553	1136.6346	1168.4593	1184.2455	1202.0084	1207.0026	1274.9016	1330.2391	1343.6087	1367.3638	1382.2247	1398.942	1400.6995	1418.6983	1430.3237	1483.026	1487.1763	1492.7781	1495.8228	1501.3231	1512.8456	1526.7601	2913.7764	2982.2836	3011.6834	3032.0841	3042.7387	3044.341	3086.0836	3090.5994	3101.3554	3105.8059	3134.9762	3145.3491	3145.8935	3803.0298
CC(C)C1(O)COC1C	CC(C)[C@@]1(O)CO[C@H]1C	
InChI=1S/C7H14O2/c1-5(2)7(8)4-9-6(7)3/h5-6,8H,4H2,1-3H3	InChI=1S/C7H14O2/c1-5(2)7(8)4-9-6(7)3/h5-6,8H,4H2,1-3H3/t6-,7-/m0/s1
