17
gdb 84948	2.13024	1.75736	1.31814	3.8464	69.86	-0.2318	-0.0359	0.1958	1020.8332	0.135871	-458.955158	-458.946779	-458.945835	-458.988213	31.193	
O	-0.0012388657	 1.345832644	-0.2883808505	-0.436358
C	 0.0299859914	-0.0655939012	-0.0566368451	-0.01448
C	 0.7259445983	-0.4054662987	 1.2483425378	-0.119708
C	 0.3023436523	-0.0021109645	 2.4470194511	-0.058408
C	-0.9846360099	 0.7630818112	 2.7032136392	-0.118021
O	-2.1453337182	 0.1099437326	 2.2145733838	-0.244366
C	-2.4084932777	 0.2567504272	 0.8279755088	-0.172106
C	-1.4309574981	-0.541326628	-0.043866714	 0.391943
O	-1.7779869609	-1.5020727189	-0.6852939097	-0.2992
H	 0.8572125266	 1.7006475362	-0.0340646938	 0.287903
H	 0.5181882287	-0.5869054267	-0.8886732743	 0.091901
H	 1.6347383175	-0.9952617521	 1.1697806206	 0.107834
H	 0.8998059105	-0.2471551945	 3.3216532271	 0.107336
H	-1.1403613959	 0.8581683916	 3.7811965121	 0.115319
H	-0.911807589	 1.7767674632	 2.2811801477	 0.112075
H	-3.407831107	-0.1484056093	 0.6573843834	 0.127041
H	-2.3800864528	 1.3152173079	 0.5322985661	 0.121296
93.1412	96.2709	207.1222	225.4067	260.2456	329.63	347.1515	394.4756	465.2307	495.7913	619.5424	659.7238	676.167	767.1653	878.5688	891.9048	925.1301	981.2331	989.2942	993.2343	1043.6628	1077.4116	1143.3239	1178.221	1242.9553	1251.5062	1285.5376	1328.7466	1350.8967	1370.3944	1386.0527	1397.4019	1411.9572	1471.1331	1484.626	1705.1628	1825.809	2995.3065	3009.1317	3035.6607	3088.4354	3119.6962	3152.9204	3177.212	3811.0504
OC1C=CCOCC1=O	O[C@H]1C=CCOCC1=O	
InChI=1S/C6H8O3/c7-5-2-1-3-9-4-6(5)8/h1-2,5,7H,3-4H2	InChI=1S/C6H8O3/c7-5-2-1-3-9-4-6(5)8/h1-2,5,7H,3-4H2/t5-/m0/s1
