20
gdb 87560	2.50209	1.56973	1.27488	1.9257	79.36	-0.2358	0.0605	0.2963	1085.9463	0.170215	-403.083383	-403.074661	-403.073717	-403.116305	33.844	
C	-0.1261410025	 1.5157821862	-0.098069939	-0.39704
C	 0.0045548382	 0.0136694153	 0.0344400088	-0.051997
C	 1.3492103674	-0.6706374958	-0.1366460312	-0.379218
C	 0.6823753336	-0.6401000457	 1.1997261679	 0.36417
C	 1.2288923951	-0.0732780228	 2.5122380911	-0.004437
O	 0.7315125121	 1.1985785659	 2.8726000698	-0.427355
C	 0.6242500628	-1.3145128063	 3.1766082986	-0.071259
C	-0.8049002459	-1.4471975868	 2.8324913299	-0.239644
N	 0.1894889489	-1.8939844521	 1.8361580468	-0.162509
H	 0.7297421574	 2.0281695051	 0.3472517871	 0.124298
H	-0.1902608548	 1.8044985133	-1.1532996811	 0.10861
H	-1.0230857411	 1.884122707	 0.4097678205	 0.118991
H	-0.8416470535	-0.5543589272	-0.3472936571	 0.090669
H	 1.3846593821	-1.6253256183	-0.6501921446	 0.120096
H	 2.2229265873	-0.040482995	-0.2787843922	 0.108281
H	 2.3266149601	-0.0905857747	 2.539668136	 0.078124
H	 1.1135722412	 1.4445396706	 3.7216292883	 0.283827
H	 1.1131845054	-1.9318080432	 3.9233969069	 0.090487
H	-1.3505806475	-2.2693704513	 3.2849305566	 0.117623
H	-1.3901129662	-0.5548416542	 2.6279220468	 0.128284
107.1363	150.2149	202.8904	207.7708	237.9492	267.9209	299.4548	392.9075	430.7474	508.023	593.4254	607.27	768.608	775.7481	793.4857	823.3477	877.2412	917.4568	959.1145	968.51	1010.0342	1019.0721	1049.2934	1058.9418	1096.7572	1109.4698	1123.3508	1129.5643	1153.2818	1183.5336	1195.8091	1204.8783	1243.4919	1300.0673	1325.6747	1366.9634	1406.3532	1420.5749	1437.0427	1483.6258	1486.9167	1496.7995	1507.1959	3011.7406	3033.1751	3093.9108	3116.1029	3116.4883	3119.9599	3134.0915	3162.5275	3208.3581	3211.8068	3809.5886
CC1CC11C(O)C2CN12	C[C@H]1C[C@]21[C@@H](O)[C@H]1CN21	
InChI=1S/C7H11NO/c1-4-2-7(4)6(9)5-3-8(5)7/h4-6,9H,2-3H2,1H3	InChI=1S/C7H11NO/c1-4-2-7(4)6(9)5-3-8(5)7/h4-6,9H,2-3H2,1H3/t4-,5+,6-,7-,8?/m0/s1
