20
gdb 90124	3.69742	1.40191	1.30596	2.2574	79.74	-0.207	0.0823	0.2893	1065.5824	0.172128	-403.07005	-403.062645	-403.061701	-403.101454	30.347	
C	-0.0230450147	 1.5556494109	 0.1620140875	-0.322408
N	 0.0490051863	 0.114143781	 0.1083878698	-0.079666
C	-1.2190900572	-0.659022546	 0.2819950869	-0.27751
C	-0.4072567181	-1.6659198114	 1.0946330637	 0.395232
C	-0.3785496248	-2.5361635238	 2.3409538195	-0.313688
C	 1.2040332246	-2.6189951876	 2.3961145575	-0.214939
C	 1.535679518	-1.8461368485	 1.0739970333	 0.032462
O	 0.5152243533	-2.3920271477	 0.1995901679	-0.325826
C	 0.6737428664	-0.5827503174	 1.2603984128	 0.002662
H	 0.9866955479	 1.9766391618	 0.1114344351	 0.122514
H	-0.5837685654	 1.9300382327	-0.7010569697	 0.122443
H	-0.5110011493	 1.9456238587	 1.0773209803	 0.084657
H	-1.9670545812	-0.1309360679	 0.8955713463	 0.090856
H	-1.676514137	-1.0125250011	-0.64639374	 0.116235
H	-0.8129832377	-2.0531953712	 3.2195209192	 0.102567
H	-0.8426973019	-3.5145503297	 2.2015417257	 0.111732
H	 1.6219446979	-2.1529512812	 3.2934631775	 0.098725
H	 1.5660279519	-3.6465735089	 2.3338616994	 0.112534
H	 2.5539042699	-1.8995834592	 0.6838512873	 0.07801
H	 0.777835021	 0.0163879963	 2.1726684602	 0.063409
144.7672	216.0549	248.5871	295.8725	329.1799	355.3626	462.3771	471.8858	591.0834	675.2008	731.9436	798.5798	822.6529	861.4683	868.3664	887.2199	922.8734	944.2823	979.3764	990.5318	1004.8499	1046.2041	1067.8002	1124.6365	1152.2372	1156.1752	1166.1696	1193.6684	1211.3517	1221.2002	1234.0419	1259.7572	1281.2023	1292.623	1297.3879	1345.6082	1360.9497	1452.5842	1476.991	1481.6341	1497.1334	1499.1529	1501.5101	2908.3401	2974.2152	3034.6736	3054.1789	3060.9762	3071.4639	3085.1837	3097.9776	3101.5044	3114.321	3130.2124
CN1CC23CCC(O2)C13	CN1C[C@@]23CC[C@@H](O2)[C@@H]13	
InChI=1S/C7H11NO/c1-8-4-7-3-2-5(9-7)6(7)8/h5-6H,2-4H2,1H3	InChI=1S/C7H11NO/c1-8-4-7-3-2-5(9-7)6(7)8/h5-6H,2-4H2,1H3/t5-,6-,7-/m1/s1
