18
gdb 49088	3.41585	1.48675	1.2336	3.3739	75.75	-0.2454	-0.0254	0.22	1029.2629	0.149453	-401.932926	-401.925741	-401.924796	-401.964517	28.443	
O	-0.1013873505	 0.1156146018	 0.3276395369	-0.265626
C	 0.0616878622	 1.2528953725	-0.0404165988	 0.085766
C	 1.3748694273	 1.9472568995	-0.0415265031	 0.247882
C	 2.5757888941	 1.3113657425	 0.6421302488	-0.320949
C	 3.3048459469	 2.5313658144	 1.2575467559	-0.209968
C	 2.76122092	 3.6946450014	 0.4373648197	 0.012966
C	 3.0034997838	 3.5249998441	-1.0881878719	-0.262232
C	 1.5938107254	 2.9554968211	-1.1327777546	-0.066303
N	 1.2638330032	 3.4190860653	 0.249327675	-0.18321
H	-0.7822282584	 1.8763537254	-0.4087368824	 0.083454
H	 2.242159415	 0.5879858268	 1.388378493	 0.132147
H	 3.2052070915	 0.7717466479	-0.0715842216	 0.11344
H	 3.0294758608	 2.6565226044	 2.3096979954	 0.115828
H	 4.3948011801	 2.456553872	 1.2007875725	 0.1065
H	 2.9442203118	 4.685306456	 0.852677711	 0.087615
H	 3.055998697	 4.4848444258	-1.6059295984	 0.120051
H	 3.8354454169	 2.894091142	-1.4160354548	 0.105681
H	 0.8871763231	 3.062785877	-1.9518464825	 0.096958
102.9225	194.6852	217.9092	294.1878	357.5211	421.8361	455.1571	616.5222	657.8044	733.2544	771.1772	817.806	840.1611	843.2433	893.4086	908.9775	957.2775	983.0749	1017.2971	1022.7208	1045.4355	1061.8727	1100.3204	1134.3525	1164.2323	1175.5034	1238.6525	1252.1794	1270.3846	1277.244	1319.666	1344.7331	1355.0543	1372.4563	1430.0585	1482.6892	1488.3143	1511.4205	1816.9931	2896.2651	3050.5913	3051.7922	3063.5186	3096.9365	3110.8478	3119.1886	3122.257	3142.2587
O=CC12CCC3CC1N23	O=C[C@@]12CC[C@H]3C[C@@H]1N23	
InChI=1S/C7H9NO/c9-4-7-2-1-5-3-6(7)8(5)7/h4-6H,1-3H2	InChI=1S/C7H9NO/c9-4-7-2-1-5-3-6(7)8(5)7/h4-6H,1-3H2/t5-,6-,7-,8?/m0/s1
