17
gdb 70437	2.94286	1.48568	1.27891	1.9976	67.6	-0.2352	0.054	0.2892	1021.6454	0.134576	-458.88311	-458.875225	-458.874281	-458.915553	30.262	
O	-0.1366432507	 1.4423893954	-0.0190556781	-0.440553
C	 0.037679592	 0.0785338455	 0.0165997107	 0.249667
C	-0.87188221	-0.7945774888	 0.8385892437	-0.332734
C	 0.6207740952	-0.8975365921	 1.0160028825	 0.001563
O	 1.1784593792	-1.7067483779	-0.0306990861	-0.319618
C	 0.7369306907	-0.7737381036	-1.0405655463	 0.3025
C	 0.0881283496	-1.2986505316	-2.3295602586	-0.132467
O	 1.0483674746	-0.5858793766	-3.1406278246	-0.271844
C	 1.8018350216	-0.1822448171	-1.9822396145	-0.141468
H	 0.7273546836	 1.8641689887	-0.0902548163	 0.292194
H	-1.384766378	-0.245022724	 1.6224181626	 0.126468
H	-1.427974527	-1.6200071142	 0.4017446423	 0.118991
H	 1.1678524034	-0.811004344	 1.9461378391	 0.115211
H	 0.1683375198	-2.3862772109	-2.4471681829	 0.114005
H	-0.9418526232	-0.9771984392	-2.5233528529	 0.111874
H	 1.9526933759	 0.9049577678	-1.9485420785	 0.09127
H	 2.7711229933	-0.6904141974	-1.9048926121	 0.114942
90.2565	136.338	189.6717	253.0701	319.1691	383.7147	422.5079	450.2604	481.6714	543.4504	651.3012	798.5135	845.6335	880.5218	902.4072	912.2673	946.4389	975.6412	990.6352	1017.2492	1032.0606	1054.2061	1084.8335	1112.7538	1133.8945	1151.1356	1171.3435	1201.1313	1250.0148	1283.246	1299.5943	1340.9111	1387.0513	1413.6342	1488.623	1493.5408	1518.7707	3003.2547	3021.8192	3055.9123	3071.5357	3112.0641	3198.1197	3210.3762	3791.5077
OC12CC1OC21COC1	O[C@]12C[C@H]1OC12COC1	
InChI=1S/C6H8O3/c7-6-1-4(6)9-5(6)2-8-3-5/h4,7H,1-3H2	InChI=1S/C6H8O3/c7-6-1-4(6)9-5(6)2-8-3-5/h4,7H,1-3H2/t4-,6-/m1/s1
