16
gdb 11006	4.0441	1.75619	1.4843	3.2137	64.69	-0.2392	-0.0271	0.2121	876.7797	0.130116	-383.760764	-383.753541	-383.752596	-383.792063	27.487	
C	 0.0293910217	 1.5089300043	-0.0500128678	-0.483052
C	-0.0724207419	 0.0167696504	 0.0975538322	 0.414261
C	-1.3164879075	-0.7336390051	-0.3750707979	-0.281187
C	-1.174922884	-2.1544160851	 0.2156451679	-0.337082
C	-0.2441632375	-1.9920922509	 1.4249216416	 0.422629
O	-0.2184473395	-2.6765254026	 2.415148053	-0.316851
C	 0.5783363732	-0.7532793301	 1.1814136205	-0.146273
O	 1.1150930026	-0.7379931174	-0.1587754601	-0.285464
H	 0.986556153	 1.8702465143	 0.333124092	 0.137272
H	-0.0464409018	 1.7937764452	-1.1051926185	 0.133056
H	-0.7799835117	 2.0084692936	 0.4918679309	 0.128995
H	-2.2104106166	-0.2363678754	 0.0175793341	 0.113695
H	-1.3895822218	-0.7266525236	-1.4669375859	 0.115677
H	-2.1187281148	-2.6066101495	 0.5241735616	 0.130171
H	-0.6960862183	-2.8344059131	-0.4960180731	 0.145654
H	 1.1974867149	-0.3239736651	 1.9627584994	 0.108499
111.6739	176.9493	200.7221	284.3841	378.4144	399.2301	465.0634	525.6907	578.1213	652.9993	708.5383	804.786	821.7429	852.4733	910.5639	986.3504	996.5668	1015.3845	1071.8141	1085.1683	1165.3987	1179.4448	1219.4607	1240.8114	1277.3546	1286.1219	1332.8134	1407.7135	1435.6072	1452.5884	1483.2575	1487.3936	1498.7708	1846.2869	3037.5599	3046.9651	3066.0779	3089.6294	3101.687	3128.5123	3129.2693	3174.8925
CC12CCC(=O)C1O2	C[C@]12CCC(=O)[C@H]1O2	
InChI=1S/C6H8O2/c1-6-3-2-4(7)5(6)8-6/h5H,2-3H2,1H3	InChI=1S/C6H8O2/c1-6-3-2-4(7)5(6)8-6/h5H,2-3H2,1H3/t5-,6+/m1/s1
