17
gdb 50628	3.10974	1.24499	0.95967	3.5858	71.76	-0.2535	-0.029	0.2245	1202.5302	0.135025	-458.954484	-458.946097	-458.945153	-458.988293	30.215	
O	-0.4529108275	 1.1005289411	 1.1364127104	-0.245009
C	 0.1332763819	 1.0619475043	 0.089197276	 0.1658
C	 1.4510571248	 1.7892700608	-0.1741732097	 0.102571
O	 2.3720351266	 0.7945557335	-0.5184173366	-0.243426
C	 3.7379859394	 1.1262232672	-0.3414452893	-0.134324
C	 4.2283055043	 2.392704563	-0.987753085	-0.064962
C	 3.5541170335	 3.4632705946	-1.404615311	-0.064959
C	 2.0799550067	 3.7590865113	-1.3666391942	-0.134323
O	 1.2000166243	 2.6556447504	-1.2430638282	-0.243425
H	-0.2327371489	 0.4895895383	-0.7888369289	 0.099703
H	 1.7598555178	 2.3364073566	 0.7315931271	 0.078271
H	 3.9745786592	 1.174110555	 0.7370811498	 0.114921
H	 4.2942614398	 0.2715384975	-0.7412322285	 0.128263
H	 5.3144229473	 2.4253314241	-1.0627040002	 0.098855
H	 4.1340865561	 4.2996287557	-1.7925256575	 0.098855
H	 1.892661353	 4.4801202854	-0.5502324395	 0.114922
H	 1.7825881117	 4.2599309011	-2.2942630446	 0.128264
64.3426	75.8856	162.0779	185.1066	253.0422	354.5418	360.4708	401.4162	461.4873	558.767	624.1487	686.614	821.0542	836.2362	905.5236	972.4533	1003.6945	1006.4611	1028.7021	1030.1315	1064.8493	1128.2387	1139.0043	1162.1062	1264.856	1272.2858	1287.6874	1349.8447	1371.8453	1410.7015	1412.8543	1414.7427	1421.9337	1483.7855	1484.3089	1747.1626	1853.1357	2922.202	2945.3458	2946.3041	2983.7514	3065.8284	3066.4715	3127.5616	3150.1054
O=CC1OCC=CCO1	O=C[C@H]1OCC=CCO1	
InChI=1S/C6H8O3/c7-5-6-8-3-1-2-4-9-6/h1-2,5-6H,3-4H2	InChI=1S/C6H8O3/c7-5-6-8-3-1-2-4-9-6/h1-2,5-6H,3-4H2
