20
gdb 86975	3.18863	1.13957	0.90368	3.8744	83.07	-0.2389	0.0126	0.2515	1315.4783	0.172329	-403.193187	-403.18455	-403.183606	-403.22674	32.596	
C	-0.1192185262	 1.5319966141	 0.0017171347	-0.400185
C	 0.0025405966	 0.0024392623	 0.0272834935	-0.027315
C	 0.7205720743	-0.5176856592	-1.2296295282	-0.188269
N	 1.0572976424	-1.923593203	-1.1058984079	-0.051342
C	 1.8998940173	-2.3122580868	 0.0161860351	-0.208873
C	 1.596114982	-1.4972717303	 1.2412632054	-0.083994
C	 0.7355287488	-0.4816482595	 1.2564954972	-0.044005
C	 0.598049515	-2.8682751691	-1.9708474414	 0.147564
O	 0.8447591341	-4.0554561859	-1.9114874373	-0.345707
H	 0.8691697489	 2.004531334	-0.0060668988	 0.122076
H	-0.6644685474	 1.8715199	-0.8852020008	 0.116233
H	-0.6559416744	 1.8950342476	 0.8836089263	 0.120347
H	-1.0137461193	-0.4192868587	 0.0357599162	 0.093161
H	 0.0963518849	-0.3880093766	-2.1190613114	 0.114504
H	 1.6376077852	 0.0702277198	-1.3841435142	 0.10729
H	 1.7285208144	-3.3785980126	 0.1933507025	 0.154752
H	 2.9659130765	-2.2148282191	-0.2482624068	 0.118005
H	 2.1234239653	-1.7907695167	 2.1447794237	 0.097761
H	 0.5414826309	 0.0502472679	 2.1852415134	 0.088721
H	-0.0458759593	-2.4249914283	-2.7568435711	 0.069277
61.0242	103.2828	230.5501	233.8157	283.0187	292.7224	334.0045	353.6724	436.6683	462.1665	513.6676	678.9918	715.8625	768.3434	845.3641	872.9574	937.5755	960.0664	997.4729	1001.6804	1017.9306	1030.84	1075.0335	1112.0931	1146.6964	1190.9325	1213.8839	1246.4619	1284.5089	1318.5558	1339.5972	1367.7982	1395.3819	1403.0619	1422.1892	1436.3368	1455.4131	1488.4446	1495.2867	1498.5043	1500.6806	1724.5282	1791.525	2927.9936	2970.2723	2986.2653	2999.7251	3030.9478	3080.9056	3082.3679	3100.3697	3105.505	3146.4449	3174.1527
CC1CN(CC=C1)C=O	C[C@H]1CN(CC=C1)C=O	
InChI=1S/C7H11NO/c1-7-3-2-4-8(5-7)6-9/h2-3,6-7H,4-5H2,1H3	InChI=1S/C7H11NO/c1-7-3-2-4-8(5-7)6-9/h2-3,6-7H,4-5H2,1H3/t7-/m1/s1
