23
gdb 95577	2.19084	1.57761	1.13405	1.1397	87.	-0.241	0.0181	0.2591	1202.8997	0.206107	-388.299638	-388.290245	-388.289301	-388.333737	36.106	
C	-0.2030149623	 1.6765629952	 0.0800724134	-0.389071
C	-0.0441420297	 0.1524018226	-0.0116276531	 0.027122
C	 0.5375585129	-0.2774328807	-1.3739254578	-0.282721
C	 1.9584427086	 0.1214898327	-1.6961709161	-0.048238
C	 3.0156922889	 0.1636453806	-0.8847948155	-0.0603
C	 3.0763826191	-0.1442300271	 0.5922752394	-0.126667
O	 1.9792839736	 0.2656501741	 1.3791355271	-0.249066
C	 0.7565903696	-0.4322311511	 1.1729221006	 0.129243
C	 0.0011084172	-0.3822820242	 2.4992864476	-0.404473
H	 0.7703352707	 2.1707878994	 0.0545032147	 0.133586
H	-0.8013773231	 2.0487242847	-0.7580803812	 0.102667
H	-0.7069962421	 1.9757180994	 1.0034553448	 0.110727
H	-1.0444536895	-0.2996779325	 0.0426795312	 0.066421
H	 0.466830247	-1.3739305899	-1.451977922	 0.10628
H	-0.1181231353	 0.1086788933	-2.1633832939	 0.097196
H	 2.1363382661	 0.3544136301	-2.74461151	 0.086177
H	 3.9805403332	 0.4147423573	-1.3227416348	 0.085226
H	 3.2503019957	-1.2289487279	 0.7276993206	 0.095192
H	 3.943747336	 0.3650873011	 1.0260486317	 0.10945
H	 0.9830258893	-1.4886559653	 0.944530932	 0.056062
H	-0.1892597735	 0.6507378324	 2.8028853915	 0.127749
H	-0.9574513013	-0.9044083613	 2.4224321126	 0.109591
H	 0.5945132587	-0.8572516526	 3.2849624771	 0.117846
47.2069	125.4609	196.2092	203.4578	242.8874	286.9958	307.1758	335.7838	366.2793	390.2164	450.0451	563.8866	629.4764	716.6989	739.2488	790.397	849.4367	855.674	918.1895	942.6025	974.1798	1000.8373	1006.052	1038.0362	1044.301	1092.7326	1108.3049	1146.1581	1163.124	1177.4394	1252.9741	1263.1606	1292.2219	1311.8893	1343.0779	1369.7234	1385.9484	1392.6361	1408.441	1415.0758	1418.3905	1428.3724	1473.2398	1478.658	1484.8144	1493.3764	1504.222	1508.0113	1731.0434	2920.9792	2944.5443	2982.5743	3007.6003	3042.1675	3044.8034	3048.2821	3061.4561	3104.2606	3118.3122	3122.6935	3125.1997	3134.134	3149.9058
CC1CC=CCOC1C	C[C@H]1CC=CCO[C@H]1C	
InChI=1S/C8H14O/c1-7-5-3-4-6-9-8(7)2/h3-4,7-8H,5-6H2,1-2H3	InChI=1S/C8H14O/c1-7-5-3-4-6-9-8(7)2/h3-4,7-8H,5-6H2,1-2H3/t7-,8-/m0/s1
