16
gdb 11002	3.99716	1.78521	1.52196	2.5289	65.27	-0.2357	-0.0198	0.2159	864.5346	0.129939	-383.751659	-383.744441	-383.743497	-383.782935	27.581	
C	-0.0363744716	 1.4911799696	-0.0838856225	-0.462521
C	-0.0005346591	-0.0020218211	 0.0611509781	 0.449012
C	-0.7970461208	-0.7500781631	 1.0747463735	-0.349982
C	 0.7424342642	-0.7605833035	 1.1422124119	-0.237092
C	 1.3923766701	-1.9033861001	 0.444536872	 0.393498
O	 2.2201963137	-2.667181455	 0.8717685895	-0.320881
C	 0.8510592297	-1.8914953145	-0.9953373495	-0.205965
O	 0.1763990719	-0.6576894411	-1.1829331661	-0.298324
H	 0.8970050159	 1.8593880228	-0.5195626568	 0.131781
H	-0.8600863102	 1.7854539015	-0.7421491206	 0.136642
H	-0.1855822641	 1.9707868139	 0.8869580987	 0.122824
H	-1.2850334288	-0.1855673956	 1.8615035512	 0.129369
H	-1.3114790912	-1.6592895456	 0.7823774504	 0.128818
H	 1.2421937577	-0.3039223229	 1.9864360661	 0.114561
H	 1.6758718888	-1.9754521887	-1.710308319	 0.140496
H	 0.1795510036	-2.7481764565	-1.1520469769	 0.127765
118.7927	155.2369	210.9024	293.7823	362.3896	417.6225	460.1061	544.4254	613.77	634.6123	697.9111	785.575	836.1514	904.5165	918.4829	946.4898	1014.6765	1020.3992	1048.6573	1070.0771	1100.7898	1117.6202	1175.4355	1205.6842	1229.0764	1270.8468	1343.4838	1387.787	1430.5023	1476.9939	1481.3176	1492.3288	1503.071	1843.0212	3006.8136	3042.512	3076.4547	3110.3979	3125.2965	3134.407	3203.5355	3224.7722
CC12CC1C(=O)CO2	C[C@]12C[C@H]1C(=O)CO2	
InChI=1S/C6H8O2/c1-6-2-4(6)5(7)3-8-6/h4H,2-3H2,1H3	InChI=1S/C6H8O2/c1-6-2-4(6)5(7)3-8-6/h4H,2-3H2,1H3/t4-,6-/m0/s1
