25
gdb 122130	3.07342	0.66166	0.56949	1.28	86.54	-0.2432	0.0807	0.3238	2019.633	0.225724	-426.617918	-426.605738	-426.604793	-426.656931	41.963	
C	-0.547466034	 1.1537131971	 0.3568711336	-0.391231
C	-0.2060053875	-0.3001903931	 0.025284134	-0.168477
C	 0.6083659825	-0.4617044158	-1.2636296643	 0.120178
C	 0.9742100103	-1.9278807655	-1.5251369395	-0.187708
C	 1.8350974884	-2.1385700543	-2.7726305375	-0.174848
C	 2.1758435488	-3.6030211797	-3.0137016624	-0.076175
O	 2.9758066231	-3.6807034648	-4.1847065916	-0.422266
O	-0.1602670626	 0.0370358526	-2.361647338	-0.252772
C	 0.4332657135	 1.0893981988	-3.0883676172	-0.236537
H	 0.3581051999	 1.7519831864	 0.5103036534	 0.107512
H	-1.1207587953	 1.6087920197	-0.4555042791	 0.129097
H	-1.1463219603	 1.2201452582	 1.2703320968	 0.109857
H	 0.3559028925	-0.75286003	 0.8517752483	 0.089689
H	-1.1303650853	-0.8815034254	-0.0822010751	 0.10188
H	 1.5356466375	 0.1266756683	-1.1747597806	 0.062718
H	 1.4947529814	-2.3186553673	-0.6406673317	 0.0888
H	 0.0407737656	-2.4985939457	-1.618516934	 0.100661
H	 1.3101307506	-1.7546495311	-3.653216742	 0.118828
H	 2.7739914388	-1.576615686	-2.6880012529	 0.097437
H	 2.7103630888	-4.0112034816	-2.1394678439	 0.080106
H	 1.2468235336	-4.1861477895	-3.1260264231	 0.084126
H	 3.1823323114	-4.6056614767	-4.3465577064	 0.284063
H	 0.6157004971	 1.9753867717	-2.4619597274	 0.103752
H	 1.3858288402	 0.7915655533	-3.5505230735	 0.108043
H	-0.2662721491	 1.3646184303	-3.8828558861	 0.123265
39.5013	56.0958	77.6676	96.6759	111.7167	144.3015	170.601	228.6796	235.9736	265.7054	285.5567	317.248	337.0584	450.2918	504.2104	549.6916	756.061	761.116	832.3577	898.9093	936.567	998.1916	1016.0149	1027.7018	1064.9536	1075.8197	1115.115	1126.6349	1139.4592	1169.2846	1181.3633	1209.611	1229.3906	1237.0801	1283.4001	1295.9297	1309.3561	1324.1971	1331.1671	1382.1547	1396.1348	1399.4672	1406.9872	1461.2829	1469.2743	1480.2061	1483.825	1488.6193	1496.9655	1500.5934	1507.5737	1514.5572	1528.7351	2954.37	2971.0451	2979.9341	2984.358	3012.5337	3025.1094	3027.6842	3032.287	3033.0093	3050.4064	3063.9347	3090.5994	3098.046	3103.3093	3116.8748	3830.9381
CCC(CCCO)OC	CC[C@@H](CCCO)OC	
InChI=1S/C7H16O2/c1-3-7(9-2)5-4-6-8/h7-8H,3-6H2,1-2H3	InChI=1S/C7H16O2/c1-3-7(9-2)5-4-6-8/h7-8H,3-6H2,1-2H3/t7-/m0/s1
