13
gdb 128528	2.30175	1.38236	0.86839	2.1085	75.24	-0.2293	-0.0752	0.1541	1240.0612	0.085537	-452.713448	-452.704031	-452.703087	-452.748428	31.708	
C	-0.1182175449	 1.3703108205	 0.1909143538	-0.245058
O	 0.0475013144	-0.0268493394	-0.0844004906	-0.245314
C	 0.6960920996	-0.3043217623	-1.226563795	 0.441372
C	 0.8132038631	-1.761684563	-1.4141802825	-0.108692
N	 1.4433113056	-2.1090119655	-2.5238693908	 0.208487
N	 1.982833162	-2.389510604	-3.4727512127	-0.186159
O	 1.128478809	 0.5172567983	-2.0005743085	-0.405481
C	 0.3409659651	-2.782529375	-0.5659866395	 0.348332
C	-0.0607603346	-3.658923197	 0.1560805047	-0.439304
H	 0.8531239761	 1.8636852252	 0.2761120499	 0.144964
H	-0.6915176567	 1.8538934096	-0.6038092303	 0.145077
H	-0.6571734318	 1.4195972838	 1.1366910705	 0.139004
H	-0.4190816667	-4.4232401312	 0.8000145511	 0.202772
74.8601	97.1278	118.0153	126.7435	137.2743	216.7151	280.8305	369.3718	440.6058	470.0245	504.0365	517.2998	548.1525	629.0644	711.612	759.3019	817.2265	1002.3443	1166.0158	1178.9994	1218.416	1301.8057	1316.6039	1472.9478	1480.6637	1497.8258	1788.2155	2212.0489	2243.1821	3053.6131	3129.1431	3163.7648	3502.6576
COC1=C(N=NO1)C#C	COC(=O)[C]([N][N])C#C	
InChI=1S/C5H4N2O2/c1-3-4-5(8-2)9-7-6-4/h1H,2H3	InChI=1S/C5H4N2O2/c1-3-4(7-6)5(8)9-2/h1H,2H3
