21
gdb 39963	4.43686	0.99837	0.96958	1.8905	82.84	-0.2564	0.0769	0.3333	1306.3476	0.182438	-387.048124	-387.039886	-387.038942	-387.081188	32.529	
C	 0.1577919825	 1.5558849154	 0.0608278939	-0.267165
O	 1.2679549791	 0.6459444705	 0.0090570337	-0.274343
C	-0.039152336	 0.1067605922	 0.0133541853	 0.475463
C	-0.6090649818	-0.8201330232	 1.0874722655	-0.380669
C	-1.5426682382	-1.4110923384	-0.0159182897	 0.383026
C	-1.9215197059	-2.910802826	 0.017351783	-0.291551
C	-3.3079786324	-2.5154800144	 0.5952560184	-0.206103
C	-3.0527764962	-1.0650199849	 0.1035433077	-0.274313
C	-0.652517532	-0.7433763422	-1.0993908927	-0.402136
H	 0.0378379429	 2.0906067232	 1.0027145705	 0.112641
H	 0.0047243154	 2.1550716395	-0.8363723613	 0.112927
H	 0.1416874899	-1.5437931554	 1.4225043498	 0.109853
H	-1.0790124464	-0.3626522108	 1.9626162196	 0.101968
H	-2.0045439905	-3.3265152775	-0.9923214415	 0.099964
H	-1.2863879844	-3.5722442409	 0.6135759104	 0.095079
H	-4.185827085	-3.0331408742	 0.2025556685	 0.097032
H	-3.327903139	-2.5794422294	 1.686603723	 0.104207
H	-3.3307186101	-0.2418167693	 0.7680492707	 0.094832
H	-3.5013634226	-0.8850116495	-0.8789235916	 0.098081
H	-1.1592628965	-0.227826209	-1.9202566284	 0.10029
H	 0.0817701068	-1.4414491958	-1.5161043649	 0.110915
56.8436	106.493	220.9611	292.2783	307.4134	340.5082	379.7776	416.373	442.5937	623.1759	693.9666	775.0824	807.7172	851.171	863.4556	867.9539	894.4318	902.9394	912.4784	936.3607	959.1363	977.914	1034.5787	1082.1315	1125.546	1128.9406	1146.1767	1158.169	1176.0373	1199.5249	1207.0961	1217.6182	1239.4409	1255.2459	1260.4249	1280.6164	1289.33	1307.7117	1434.6421	1461.6112	1473.7948	1481.8924	1488.9649	1505.5409	1537.7537	3039.3284	3040.181	3043.1308	3047.1251	3060.8008	3074.9724	3088.9031	3092.4211	3096.1931	3098.3066	3116.8953	3161.1001
C1OC11CC2(CCC2)C1	C1OC21CC1(CCC1)C2	
InChI=1S/C8H12O/c1-2-7(3-1)4-8(5-7)6-9-8/h1-6H2	InChI=1S/C8H12O/c1-2-7(3-1)4-8(5-7)6-9-8/h1-6H2
