22
gdb 33149	4.51564	0.7805	0.71245	1.9603	91.05	-0.1947	0.0506	0.2453	1697.5706	0.194329	-367.260968	-367.251057	-367.250112	-367.296753	36.031	
C	-0.0459232092	 1.5588879531	 0.0143468815	-0.379859
C	-0.0193084196	 0.0290741676	-0.0147434227	-0.16399
C	 0.7435118348	-0.5164429392	-1.2300787727	-0.161356
N	 0.7839086736	-1.9660119156	-1.2879087641	 0.031131
C	 1.7325669096	-2.7643248346	-0.699231573	-0.089887
C	 1.3728477903	-4.0781217298	-0.8884971203	-0.266351
C	 0.1483770988	-4.0906366189	-1.6208446691	 0.267016
C	-0.6223660157	-5.2940310631	-2.0748258977	-0.497267
C	-0.1827815345	-2.7719870203	-1.843835334	-0.195123
H	 0.9671004689	 1.9747837003	 0.0548590926	 0.116915
H	-0.5345572189	 1.9670191932	-0.877557787	 0.117019
H	-0.5905101698	 1.9272819985	 0.8883806896	 0.120013
H	 0.4482276711	-0.3592796168	 0.8975270343	 0.109208
H	-1.0407517194	-0.3681049819	-0.0326786596	 0.109306
H	 0.2842651362	-0.1499985731	-2.1552568835	 0.114079
H	 1.7751681467	-0.1472724735	-1.22068841	 0.113647
H	 2.5836435932	-2.3257929669	-0.2012815598	 0.108466
H	 1.9309538027	-4.9408145678	-0.5553550644	 0.086072
H	-0.9245911548	-5.9261986157	-1.231279947	 0.120665
H	-1.532064144	-5.0023363734	-2.6085175242	 0.113994
H	-0.0334425033	-5.9259732893	-2.7504796227	 0.120895
H	-1.0272722467	-2.3393132828	-2.3588377663	 0.105407
48.4307	79.7816	82.4445	100.4138	228.5527	244.9259	263.2888	292.4791	369.4628	398.3235	614.504	635.2536	645.8768	679.3858	747.412	751.6371	762.4921	801.8381	881.3556	896.6386	980.0451	1012.3625	1018.1691	1043.6204	1062.5226	1092.929	1122.105	1133.5357	1190.2281	1248.6427	1277.1018	1320.0266	1330.0921	1365.1754	1402.8574	1408.171	1414.9371	1421.6996	1436.8635	1480.0962	1483.6751	1493.2093	1499.4094	1499.9607	1510.6329	1540.1446	1608.3129	3020.6452	3030.1826	3031.8203	3041.8021	3062.3971	3067.1517	3082.7054	3099.297	3101.0226	3108.6501	3233.5575	3243.2164	3256.9115
CCCN1C=CC(C)=C1	CCCn1ccc(C)c1	
InChI=1S/C8H13N/c1-3-5-9-6-4-8(2)7-9/h4,6-7H,3,5H2,1-2H3	InChI=1S/C8H13N/c1-3-5-9-6-4-8(2)7-9/h4,6-7H,3,5H2,1-2H3
