16
gdb 6570	3.05804	2.02842	1.53846	3.9015	60.58	-0.2472	0.062	0.3093	846.0621	0.128802	-420.816105	-420.808199	-420.807255	-420.847728	30.541	
O	 0.2083760283	 1.3732399087	-0.1705690083	-0.444366
C	 0.0399510468	-0.0022346803	-0.0199797362	 0.107777
C	-0.025995465	-0.681167305	 1.3795545124	 0.364245
O	 1.0073370313	-0.6477820152	 2.2888016341	-0.467213
C	-1.4789973531	-0.1190053786	 1.5406267649	-0.400852
C	-1.3681651213	-0.6596537176	 0.0748129445	 0.364228
O	-2.3054578891	-0.5946736176	-0.9316074326	-0.467213
C	-0.6489362982	-1.9162087943	 0.657117153	-0.361792
H	-0.3739288083	 1.8414868049	 0.4358421022	 0.285046
H	 0.7235360613	-0.4730224266	-0.7309236087	 0.089511
H	 0.7455493095	-1.1393989565	 3.0746457734	 0.285679
H	-2.1415014216	-0.6725058243	 2.2130021732	 0.087198
H	-1.6038261427	 0.9577771599	 1.6868067315	 0.084927
H	-3.0916951468	-1.0777171861	-0.6554357512	 0.28568
H	 0.0016643893	-2.473333805	-0.0213359029	 0.101809
H	-1.2623870904	-2.5752510764	 1.2773007107	 0.085335
130.6147	237.1513	238.4101	250.453	252.3173	297.1337	377.1403	442.5416	524.4357	539.0662	614.7588	639.1871	666.9584	716.385	820.4174	888.7358	973.7496	1005.1193	1014.8767	1090.0855	1110.7377	1114.6359	1115.5878	1116.4997	1140.5571	1183.6815	1275.4973	1283.9343	1334.1588	1355.7701	1406.2923	1463.8801	1500.5189	1560.215	3044.9133	3054.8291	3091.3275	3101.8752	3125.0871	3807.4132	3808.0442	3822.5802
OC1C2(O)CC1(O)C2	O[C@H]1[C@@]2(O)C[C@]1(O)C2	
InChI=1S/C5H8O3/c6-3-4(7)1-5(3,8)2-4/h3,6-8H,1-2H2	InChI=1S/C5H8O3/c6-3-4(7)1-5(3,8)2-4/h3,6-8H,1-2H2/t3-,4-,5+
