19
gdb 73319	3.00502	1.97322	1.42613	1.545	78.8	-0.2286	0.0768	0.3055	947.5941	0.160086	-385.796175	-385.789263	-385.788318	-385.826913	29.171	
C	 0.0215244585	 1.6178683746	-0.1147067909	-0.503074
C	 0.0443694086	 0.1134950015	 0.0224172746	 0.23395
C	 0.5443017229	-0.7102551249	-1.2145759193	-0.13411
O	 0.4508107611	-2.1032713991	-0.7789774506	-0.344993
C	-0.0391306072	-1.8741572682	 0.5096322558	 0.456576
C	-0.4947161158	-2.5240002519	 1.8218104576	-0.337785
C	-0.6429882874	-0.9629261899	 2.0148237957	-0.11907
C	 0.6587133584	-0.6773518133	 1.2090232632	-0.12298
C	-1.1237388992	-0.7647808956	 0.5468633112	-0.12298
H	 1.022826779	 2.0144129506	-0.3202955516	 0.116716
H	-0.6333309489	 1.9331805779	-0.9355986348	 0.116716
H	-0.342578103	 2.0899916454	 0.8029862611	 0.121922
H	-0.0880038253	-0.5692348059	-2.0989946914	 0.105665
H	 1.5849724489	-0.4871754485	-1.4775081239	 0.105665
H	-1.4211849994	-3.1051886045	 1.7980370744	 0.103807
H	 0.2690953402	-3.0222835389	 2.4259587784	 0.103807
H	-0.998955776	-0.4502795811	 2.9053544292	 0.082937
H	 1.6841890072	-0.6849443736	 1.581160291	 0.068614
H	-2.1384915723	-0.8724474445	 0.1610796502	 0.068614
214.1302	247.7641	248.6028	284.0874	436.1057	448.7207	457.0181	595.39	689.2568	721.999	727.61	817.6026	831.8567	842.8506	883.6688	890.9207	917.6705	942.8648	974.1792	995.2555	1009.2059	1039.0839	1070.6287	1112.5258	1117.1307	1128.4478	1148.872	1162.435	1185.3773	1204.9014	1214.2441	1230.665	1232.7812	1300.7403	1334.3441	1379.7369	1415.616	1492.8138	1493.336	1503.8398	1510.45	3022.1991	3027.2846	3047.1971	3073.0268	3083.0757	3100.336	3101.8825	3105.4786	3110.6684	3143.6341
CC12COC34CC(C13)C24	C[C@@]12CO[C@@]34C[C@@H]([C@H]13)[C@@H]24	
InChI=1S/C8H10O/c1-7-3-9-8-2-4(5(7)8)6(7)8/h4-6H,2-3H2,1H3	InChI=1S/C8H10O/c1-7-3-9-8-2-4(5(7)8)6(7)8/h4-6H,2-3H2,1H3/t4-,5+,6-,7+,8-
