18
gdb 127460	3.52164	1.06067	0.84308	1.9613	77.11	-0.2029	0.0371	0.24	1358.5962	0.148131	-435.277067	-435.267452	-435.266508	-435.312147	34.081	
C	 0.1403304793	 1.3543367393	-0.0678519475	-0.333357
N	 0.0255183769	-0.081269504	 0.0251579918	 0.008399
N	 0.0729907597	-0.8505994691	-1.0953118245	-0.350635
C	-0.0526250256	-2.0972478788	-0.6532441253	 0.37423
C	-0.100014297	-3.2389733223	-1.6169817632	-0.187926
O	 0.6898986347	-4.3049363158	-1.0979172847	-0.419775
C	-0.1511297231	-2.151715776	 0.7547206949	-0.378285
C	-0.0861509661	-0.8301338904	 1.1546088092	 0.381642
N	-0.1908121177	-0.2209163508	 2.4112427901	-0.610655
H	 1.1742843329	 1.6951850916	 0.0710628182	 0.128181
H	-0.1949072245	 1.6545321555	-1.0607355703	 0.157709
H	-0.4932830645	 1.8201008053	 0.6916942434	 0.14565
H	-1.1434115128	-3.5684004823	-1.7543505663	 0.092484
H	 0.2654358778	-2.8882491205	-2.5925835986	 0.104309
H	 0.5544220362	-5.0702039722	-1.664548367	 0.285389
H	-0.2298918905	-3.0249944206	 1.3806310735	 0.098064
H	-0.2948055224	-0.9110616024	 3.143376547	 0.254693
H	 0.5991469167	 0.3744316037	 2.6351376291	 0.249883
46.591	86.0769	133.3142	177.4131	213.037	221.0902	267.0321	279.1726	344.6189	403.0528	515.372	624.892	650.2021	666.0391	725.6849	757.5879	799.4814	823.3723	1012.9697	1024.2972	1041.2327	1084.1717	1105.9252	1149.2811	1174.4957	1237.8214	1240.7595	1262.814	1314.9927	1426.5535	1437.1097	1453.3875	1489.9118	1507.0357	1512.1977	1516.7271	1552.9959	1599.0219	1657.6496	2959.5983	3017.3005	3020.6705	3097.3474	3155.8431	3270.4605	3519.3205	3619.6904	3826.5687
CN1N=C(CO)C=C1N	Cn1nc(CO)cc1N	
InChI=1S/C5H9N3O/c1-8-5(6)2-4(3-9)7-8/h2,9H,3,6H2,1H3	InChI=1S/C5H9N3O/c1-8-5(6)2-4(3-9)7-8/h2,9H,3,6H2,1H3
