16
gdb 21033	3.86939	1.80753	1.25387	3.2202	67.87	-0.2168	0.0347	0.2515	960.3693	0.131901	-376.142836	-376.134573	-376.133629	-376.175487	29.304	
C	-0.0578341562	 1.4049742982	-0.0441369969	-0.336445
N	-0.0123951769	-0.0360866228	 0.0128228677	 0.005598
N	 0.017367645	-0.7965011184	-1.1298266368	-0.316947
C	 0.0289142026	-2.0288545926	-0.6541581207	 0.34882
C	 0.0463279203	-3.2266259866	-1.5428122703	-0.481138
N	 0.0284449843	-2.1194558739	 0.712478402	-0.370603
C	 0.006540258	-0.8531798753	 1.0879008007	 0.386122
N	-0.0724682406	-0.3928041391	 2.3930307779	-0.60445
H	 0.9454323305	 1.8474156623	-0.0602658644	 0.135326
H	-0.5828037993	 1.6963547151	-0.9546079293	 0.16306
H	-0.6050858728	 1.783110886	 0.8235320388	 0.145353
H	 0.9292132977	-3.8434981637	-1.3465609101	 0.133463
H	-0.8325760494	-3.8544227833	-1.3638351306	 0.134725
H	 0.0544793198	-2.9174451184	-2.5893706327	 0.13538
H	 0.0394303548	-1.1593928191	 3.0433844849	 0.266962
H	 0.5648623422	 0.3610739015	 2.6139113198	 0.254774
100.4672	115.8579	152.8355	216.9999	264.2275	279.1692	290.1605	358.6068	510.4676	625.0523	661.3736	676.9814	713.4871	780.8433	841.1238	1002.3277	1035.5745	1063.6716	1068.4942	1126.2616	1152.4523	1262.1965	1309.5559	1378.5042	1417.7152	1441.4585	1477.7855	1480.7404	1488.356	1501.914	1520.4433	1578.3307	1594.7616	1653.2224	3028.8729	3043.7147	3098.0769	3101.7057	3142.7089	3150.0662	3547.6942	3643.644
CN1N=C(C)N=C1N	Cn1nc(C)nc1N	
InChI=1S/C4H8N4/c1-3-6-4(5)8(2)7-3/h1-2H3,(H2,5,6,7)	InChI=1S/C4H8N4/c1-3-6-4(5)8(2)7-3/h1-2H3,(H2,5,6,7)
