19
gdb 53458	3.76872	0.56032	0.50577	0.4117	94.43	-0.2301	0.0457	0.2758	2203.1502	0.156995	-348.690268	-348.679731	-348.678786	-348.730006	35.813	
C	-0.02309406	 1.3101707205	-0.5796310261	-0.495793
C	-0.0425264022	-0.0630232702	-0.0963253498	 0.061761
C	-0.0630679234	-1.1975763186	 0.3026560578	 0.087652
C	-0.080660277	-2.57986124	 0.7895889154	-0.499441
C	-1.3603761057	-3.2646723257	 0.5904799629	 0.074642
C	-2.4114410939	-3.8306168306	 0.4291608868	 0.085983
C	-3.6643977337	-4.5030450361	 0.2412917925	-0.154378
C	-4.4970676342	-4.2362558039	-1.0031626754	-0.250908
C	-3.8135525468	-5.5612904558	-0.8410135798	-0.252339
H	 0.7237211598	 1.4451215958	-1.3698889185	 0.146187
H	-0.9965006306	 1.5983279825	-0.9917370374	 0.149001
H	 0.2161956051	 2.0135191715	 0.2256484841	 0.146553
H	 0.7199361929	-3.1501348049	 0.2969313656	 0.152228
H	 0.1720180097	-2.5928464493	 1.8595018757	 0.15396
H	-4.228524598	-4.6822130013	 1.1522120142	 0.107847
H	-5.572984613	-4.1875270828	-0.8788428937	 0.116955
H	-4.090952726	-3.5374705853	-1.7244767552	 0.127941
H	-2.9429797175	-5.7641470719	-1.4530836737	 0.125396
H	-4.4155402256	-6.431482434	-0.6046240554	 0.116752
10.3857	15.6861	49.8102	120.813	143.3623	197.4044	238.9522	290.9346	350.1025	373.4678	440.5367	509.555	546.3663	705.9757	765.0192	795.515	821.3829	896.4606	905.3766	929.9041	1051.0472	1053.8173	1054.7553	1062.6322	1079.6637	1118.7076	1157.0281	1185.0555	1201.0465	1228.8357	1232.3625	1338.257	1393.2743	1415.1285	1453.4757	1466.8708	1478.7874	1479.277	1497.472	2367.8219	2381.5493	2998.6168	3020.0892	3026.1815	3086.2376	3087.219	3139.6732	3140.7044	3145.972	3224.4645	3239.6085
CC#CCC#CC1CC1	CC#CCC#CC1CC1	
InChI=1S/C9H10/c1-2-3-4-5-6-9-7-8-9/h9H,4,7-8H2,1H3	InChI=1S/C9H10/c1-2-3-4-5-6-9-7-8-9/h9H,4,7-8H2,1H3
