11
gdb 21421	4.06028	2.07496	1.3732	4.46	57.09	-0.2696	-0.0879	0.1816	796.464	0.0741	-426.898652	-426.892342	-426.891398	-426.929466	23.115	
N	-0.0975480813	 1.3666024821	 0.0109709482	-0.543336
C	-0.0057322758	 0.1019269044	 0.003515102	 0.499671
N	 1.1544122576	-0.6776491135	-0.0073567778	-0.297273
N	 1.2242989451	-2.027534989	-0.0151467781	 0.002505
N	 0.1783184961	-2.7233497758	-0.0129865033	-0.241435
C	-1.1163658601	-2.0929303984	-0.0021090613	 0.49431
O	-2.1231219983	-2.7486667878	 6.8744*^-6	-0.33289
N	-1.1240929503	-0.7080440483	 0.0054535968	-0.382292
H	 0.8091131792	 1.8271341862	 0.0083344872	 0.226921
H	 2.0582708449	-0.2313464023	-0.0100602063	 0.286677
H	-2.0228991071	-0.2438255974	 0.0131196881	 0.287142
106.7425	124.3027	376.363	393.2965	524.4941	546.0972	562.2348	579.6927	676.1161	715.0379	740.6842	767.8356	803.713	940.5798	1030.2509	1056.4629	1118.372	1249.3896	1373.5837	1405.4558	1448.0142	1592.8372	1769.8892	1845.6827	3528.9877	3603.2817	3646.7964
N=C1NN=NC(=O)N1	[NH][C]1NN=NC(=O)N1	
InChI=1S/C2H3N5O/c3-1-4-2(8)6-7-5-1/h(H3,3,4,5,6,8)	InChI=1S/C2H3N5O/c3-1-4-2(8)6-7-5-1/h(H3,3,4,5,6,8)
