17
gdb 74194	2.39029	1.61795	1.01942	1.7343	78.22	-0.25	-0.0423	0.2076	1146.0157	0.13776	-418.05669	-418.048621	-418.047677	-418.089431	30.304	
C	 0.0125833201	 1.5262767648	 0.0183919709	-0.478173
C	-0.0198299061	 0.0259121471	-0.0071031153	 0.285083
C	 0.0415127993	-0.6598133412	-1.1577672845	-0.219965
C	 0.0475272893	-2.1209708751	-1.3310048254	 0.379304
O	 0.4684787711	-2.6547853179	-2.339884518	-0.36189
N	-0.5095128453	-2.9289823278	-0.325438832	-0.347576
C	-1.3310827047	-2.5670445939	 0.742189535	 0.083949
N	-1.2513036497	-1.5525845801	 1.4959610386	-0.216632
C	-0.0933347254	-0.6723094819	 1.3357158797	-0.268367
H	 0.8575897324	 1.8851843237	 0.6195716226	 0.138547
H	 0.0923621783	 1.9538662061	-0.9834175054	 0.131799
H	-0.8946712247	 1.9171459822	 0.4958110499	 0.14544
H	 0.1602928132	-0.1361060056	-2.1009341585	 0.11243
H	-0.5941651026	-3.8842579019	-0.6501617237	 0.254711
H	-2.125096825	-3.2920147148	 0.9291329934	 0.123993
H	 0.8293474375	-1.255683706	 1.4835854785	 0.125468
H	-0.1331567675	 0.0731798824	 2.133892134	 0.111881
92.4861	149.5909	164.3974	217.7342	308.1781	359.6902	368.8179	471.6412	494.3694	547.0689	600.2052	673.1547	742.9203	809.4113	878.6426	898.5373	907.3293	957.7757	969.5509	993.8466	1061.5151	1075.9422	1121.4517	1179.8525	1256.978	1301.103	1345.0149	1379.6137	1408.159	1430.6108	1461.7387	1475.4194	1482.8431	1494.784	1700.1171	1748.4361	1776.4576	2982.2917	3021.2547	3070.9802	3084.3462	3117.6215	3125.421	3185.4276	3576.9859
CC1=CC(=O)NC=NC1	CC1=CC(=O)NC=NC1	
InChI=1S/C6H8N2O/c1-5-2-6(9)8-4-7-3-5/h2,4H,3H2,1H3,(H,7,8,9)	InChI=1S/C6H8N2O/c1-5-2-6(9)8-4-7-3-5/h2,4H,3H2,1H3,(H,7,8,9)
