19
gdb 38079	2.452	1.76011	1.52825	0.5027	88.94	-0.2098	-0.0312	0.1786	990.1641	0.161866	-348.745579	-348.738314	-348.73737	-348.776888	29.973	
C	 0.1998067864	 1.4196495628	 0.343542589	-0.230823
C	 1.6982134938	 1.3854204978	-0.1165681391	-0.159163
C	 1.9025266452	 1.9583064364	-1.50090266	-0.080317
C	 1.1734169676	 1.6584343201	-2.5876217606	-0.075307
C	 0.057324628	 0.7171597167	-2.6702375945	-0.075307
C	-0.4513201089	-0.0268449392	-1.6751395624	-0.080317
C	 2.3724889718	-1.1357515296	 0.1064481082	-0.480862
C	 1.5422052688	-0.131560608	-0.1180068984	 0.422519
C	 0.0258809039	-0.0249629747	-0.2403574056	-0.159163
H	 0.1273524596	 1.4099795728	 1.4325340643	 0.10759
H	-0.4311420717	 2.2045904842	-0.0758082074	 0.107353
H	 2.4325931736	 1.7936269804	 0.5807269827	 0.071728
H	 2.7097685667	 2.6779981572	-1.6061020231	 0.091119
H	 1.4313582604	 2.1567883902	-3.5185826535	 0.085619
H	-0.3945921399	 0.6168402444	-3.6537446059	 0.085619
H	-1.2825472786	-0.6889849278	-1.901622673	 0.091119
H	 2.0233574845	-2.1629958123	 0.152286892	 0.103433
H	 3.4354264811	-0.9721071497	 0.2568116945	 0.103433
H	-0.5564913721	-0.7272565218	 0.3594699029	 0.071728
128.3663	174.3505	271.8449	342.7791	361.3255	412.8722	474.1387	605.4899	651.912	678.1743	723.479	770.0026	782.8383	798.5445	834.8773	870.4755	907.5576	909.8827	920.3233	943.1193	987.9779	988.3847	997.7948	1048.4511	1087.9445	1128.1162	1143.8288	1207.3397	1231.9702	1234.3275	1247.734	1266.3336	1325.5662	1336.8632	1404.5055	1443.9046	1449.9523	1477.7168	1656.0751	1697.8638	1758.634	3070.5001	3082.4074	3084.9327	3135.0657	3138.9592	3143.6486	3152.8777	3167.9949	3176.9931	3213.9138
C1C2C=CC3C4CC23C14	C1[C@@H]2C=CC=C[C@H]1C2=C	
InChI=1S/C9H10/c1-2-7-6-4-9(7)5(1)3-8(6)9/h1-2,5-8H,3-4H2	InChI=1S/C9H10/c1-7-8-4-2-3-5-9(7)6-8/h2-5,8-9H,1,6H2/t8-,9+
