17
gdb 5122	3.298	2.01219	1.26956	1.5699	72.14	-0.1756	0.0515	0.2271	946.7891	0.141495	-363.897709	-363.888925	-363.88798	-363.931155	31.174	
C	-0.0339988105	 1.4365286726	 0.0129863766	-0.335565
N	 0.0058344394	-0.0076889932	 0.0144614083	-0.033061
C	 0.002555156	-0.8005103013	-1.100107805	-0.095319
C	 0.0480788063	-2.1193495849	-0.7031810225	-0.308606
C	 0.0799471362	-2.1094284807	 0.7163946779	 0.245627
O	 0.1288842821	-3.1797230237	 1.5707876509	-0.456208
C	 0.0535446881	-0.8013653878	 1.1516433151	 0.212389
C	 0.0699940003	-0.2583208331	 2.5395865014	-0.512541
H	 0.8538533958	 1.861924267	 0.4940964439	 0.135301
H	-0.0677704224	 1.7879529066	-1.0198505305	 0.137261
H	-0.9205893954	 1.8129522792	 0.5354336217	 0.135314
H	-0.0318698146	-0.3632737431	-2.0854745821	 0.111114
H	 0.0572715491	-2.9827132832	-1.3519451063	 0.084842
H	 0.1395471311	-3.98397804	 1.0456785597	 0.293117
H	 0.9410705313	 0.3806844768	 2.7369734873	 0.11895
H	-0.8243458595	 0.333410965	 2.7763459502	 0.118935
H	 0.1080424066	-1.0932266163	 3.2428920534	 0.148449
59.9146	113.0639	147.701	176.4848	227.0083	251.6716	294.6519	329.1532	504.0584	577.4468	605.4752	660.164	690.3106	723.3994	746.6918	753.2978	947.6236	1049.6342	1062.4274	1095.3819	1101.4235	1149.7658	1177.1102	1260.2557	1298.6303	1378.2974	1416.1171	1417.6836	1459.8888	1475.9485	1488.9636	1489.1111	1492.1118	1525.0157	1541.2612	1664.3495	3004.59	3026.3073	3042.6138	3077.5791	3125.0421	3132.8786	3233.544	3260.2805	3854.7339
CN1C=CC(O)=C1C	Cn1ccc(O)c1C	
InChI=1S/C6H9NO/c1-5-6(8)3-4-7(5)2/h3-4,8H,1-2H3	InChI=1S/C6H9NO/c1-5-6(8)3-4-7(5)2/h3-4,8H,1-2H3
