21
gdb 57880	2.49814	1.28959	1.00638	1.2673	78.64	-0.2416	-0.0237	0.2179	1282.5978	0.178978	-424.232628	-424.222204	-424.22126	-424.268278	37.733	
C	-1.8007848006	 1.1908460704	-1.342633816	-0.402801
C	-1.1145087141	 0.5834996007	-0.0993654286	-0.058503
C	-1.0042428503	 1.6108176429	 1.0311096385	-0.388953
C	-1.8497680757	-0.6650445418	 0.3884263069	 0.292644
O	-2.5361506172	-0.6677257865	 1.3867969733	-0.317885
C	-1.6678372783	-1.972734945	-0.371245438	 0.330213
C	-1.3876279961	-3.171957437	 0.5070469899	-0.463009
C	-2.3471738318	-2.149453206	-1.6692776986	-0.215513
O	-0.9429718812	-1.9013268057	-1.6059627299	-0.266455
H	-1.300818387	 2.1257586905	-1.6138037258	 0.121519
H	-1.7431030429	 0.5226617057	-2.2035342268	 0.137518
H	-2.851416654	 1.4231685839	-1.137981326	 0.123279
H	-0.1142664641	 0.2577527164	-0.4108903194	 0.102272
H	-0.4435684836	 2.4865302637	 0.6903937831	 0.106938
H	-1.995268707	 1.9371631608	 1.3571794781	 0.131055
H	-0.4947978963	 1.1926860116	 1.903484063	 0.119174
H	-2.1705173132	-3.2637462555	 1.2629180242	 0.151386
H	-1.3466355114	-4.0839020167	-0.0929976768	 0.12436
H	-0.429419958	-3.0557263446	 1.0238048764	 0.129751
H	-2.6326578869	-3.1557165866	-1.9732534034	 0.122788
H	-2.9514097902	-1.3488744013	-2.0905700543	 0.120222
48.0992	61.4116	179.6194	184.029	201.4518	212.8288	248.4729	265.8834	313.0634	325.7031	371.9773	387.0775	513.8214	527.2253	682.2841	757.0228	808.9833	853.5236	895.713	931.1148	932.0983	971.128	995.7663	1060.4282	1086.9625	1117.2303	1127.5487	1138.1322	1168.5451	1195.66	1271.8567	1315.9267	1362.2447	1375.2254	1395.7071	1402.9264	1417.897	1479.8998	1485.9212	1487.2545	1496.1683	1502.528	1511.651	1529.7006	1789.9681	3034.7082	3040.6115	3045.2144	3047.0533	3088.9133	3103.6466	3115.5396	3116.5663	3123.9231	3137.2065	3142.958	3178.196
CC(C)C(=O)C1(C)CO1	CC(C)C(=O)[C@@]1(C)CO1	
InChI=1S/C7H12O2/c1-5(2)6(8)7(3)4-9-7/h5H,4H2,1-3H3	InChI=1S/C7H12O2/c1-5(2)6(8)7(3)4-9-7/h5H,4H2,1-3H3/t7-/m1/s1
