20
gdb 122921	4.26374	0.63144	0.57152	3.3508	77.5	-0.2597	0.0177	0.2774	1884.0988	0.171156	-436.450886	-436.440428	-436.439484	-436.487495	36.809	
N	-0.0240744434	 1.5319938831	-0.0495611955	-0.501324
C	-0.0445644381	 0.0695588824	 0.0044752413	-0.136705
C	-1.4494622621	-0.5718743141	 0.130763958	-0.13677
N	-2.0931940298	-0.1049621805	 1.3533342246	-0.318191
C	-3.504271522	-0.487844962	 1.4775369695	-0.152343
C	-4.1129121499	 0.2196810247	 2.6859117572	-0.06038
O	-4.0066963992	 1.6222653532	 2.5711473312	-0.416445
C	 0.6419515382	-0.4834206348	-1.1705786545	 0.290071
N	 1.1468272398	-0.935016528	-2.1061707777	-0.313196
H	-0.4378450118	 1.8454960154	-0.9238934962	 0.239784
H	-0.6325558375	 1.8663619095	 0.693394129	 0.238472
H	 0.5409662605	-0.2331846471	 0.8851038009	 0.130024
H	-2.0584569577	-0.254987101	-0.7235445606	 0.122389
H	-1.3603901011	-1.6699266328	 0.075661123	 0.107443
H	-1.5856730151	-0.4714439999	 2.1557838136	 0.222976
H	-4.0214656643	-0.1523486482	 0.5713889827	 0.119967
H	-3.6504429323	-1.5783675284	 1.5588457187	 0.091311
H	-5.1769904618	-0.0258448164	 2.7641311962	 0.113648
H	-3.6263105366	-0.1475409189	 3.6079820018	 0.080128
H	-3.1167309759	 1.7816590337	 2.2317103767	 0.279143
44.7256	60.9513	102.5639	125.2505	191.0729	198.2888	249.425	262.0936	328.0918	345.8933	435.4334	463.4245	517.0423	580.4202	591.8892	800.179	856.0905	892.5633	900.6979	903.757	950.9959	1041.3648	1051.423	1095.5856	1123.0535	1143.8786	1163.2598	1198.7675	1227.913	1246.8521	1309.303	1322.6142	1358.3862	1377.9163	1398.1393	1420.5126	1441.7853	1485.8451	1494.1656	1507.4954	1516.675	1660.3302	2365.8385	2939.6696	2962.3188	2965.7199	3006.4475	3063.82	3067.5587	3077.5484	3479.7195	3483.1277	3564.8934	3766.0009
NC(CNCCO)C#N	N[C@@H](CNCCO)C#N	
InChI=1S/C5H11N3O/c6-3-5(7)4-8-1-2-9/h5,8-9H,1-2,4,7H2	InChI=1S/C5H11N3O/c6-3-5(7)4-8-1-2-9/h5,8-9H,1-2,4,7H2/t5-/m1/s1
