18
gdb 12878	2.65894	2.31161	1.73133	1.875	66.74	-0.2336	0.0796	0.3131	846.2159	0.154278	-384.925218	-384.917666	-384.916722	-384.956617	29.278	
C	 0.009035615	 1.5578807283	 0.0046189079	-0.488699
C	-0.0102605807	 0.0489040046	 0.0171848266	 0.264904
C	-1.3184108401	-0.7008852168	-0.2601890524	-0.30543
C	-1.4052991404	-1.6987129897	 0.9094536427	-0.07422
O	-0.0492729781	-1.945704578	 1.3235095739	-0.275896
C	 0.6942746244	-0.7737196591	 1.0745472013	-0.023068
C	 1.2532676196	-0.7374797284	-0.324530491	 0.059749
O	 1.1974730016	-1.8979493822	-1.089697426	-0.430692
H	 0.9974459152	 1.9447825343	 0.273782831	 0.117403
H	-0.2358821099	 1.947844932	-0.9899171547	 0.124492
H	-0.7140204355	 1.9746084458	 0.7159161538	 0.116206
H	-2.1725200867	-0.0187634151	-0.2747465421	 0.102664
H	-1.2736366372	-1.2209211797	-1.2218163484	 0.121952
H	-1.9698946947	-1.2707910306	 1.7503200374	 0.100973
H	-1.8495105068	-2.6625255841	 0.6466154199	 0.110943
H	 1.2066091596	-0.3615805371	 1.9391731169	 0.093326
H	 2.1541059232	-0.1557770581	-0.5066370967	 0.092533
H	 0.9025158314	-2.595028806	-0.4855615999	 0.292859
139.1166	202.2447	203.2955	243.347	287.0324	314.2834	457.1116	514.7119	576.81	630.8004	659.9601	758.2747	821.1665	859.4206	875.482	945.8758	971.8564	1003.8002	1015.3669	1035.2864	1079.3043	1118.3826	1144.2141	1169.3989	1205.58	1237.3248	1267.7168	1273.6332	1313.0574	1321.9721	1366.1637	1399.038	1418.0785	1445.5031	1484.3558	1492.2444	1498.903	1517.1247	3001.7583	3020.677	3054.627	3081.7185	3091.0687	3094.3395	3107.2917	3131.9946	3147.3087	3721.9822
CC12CCOC1C2O	C[C@]12CCO[C@H]1[C@H]2O	
InChI=1S/C6H10O2/c1-6-2-3-8-5(6)4(6)7/h4-5,7H,2-3H2,1H3	InChI=1S/C6H10O2/c1-6-2-3-8-5(6)4(6)7/h4-5,7H,2-3H2,1H3/t4-,5+,6-/m1/s1
