19
gdb 89810	3.19575	1.35673	1.13166	1.3951	74.69	-0.2401	0.0703	0.3104	1111.0405	0.161836	-419.159622	-419.15194	-419.150996	-419.191661	30.988	
O	-0.0172297997	 1.4173201733	-0.0430443889	-0.443498
C	 0.012108412	 0.0052284152	-0.0871973924	 0.159526
C	 0.7855215223	-0.6442474838	 1.0983801127	-0.366169
C	 0.0793145741	-1.9698156158	 1.3690298309	 0.400559
C	 0.7671133863	-3.277601922	 1.2201656183	-0.300207
N	 0.3467850007	-2.7930815736	 2.5505047615	-0.366952
C	-1.3381116328	-1.78123037	 0.9085888193	-0.107455
N	-1.9258197808	-0.4911610779	 1.3504907235	-0.359577
C	-1.3725122586	-0.62797383	-0.0175275191	-0.082259
H	-0.5678047419	 1.6440691336	 0.717300294	 0.286659
H	 0.4859751708	-0.2524187801	-1.0403273078	 0.090495
H	 1.8514442836	-0.759418431	 0.8872598168	 0.100785
H	 0.6834789405	 0.011664647	 1.9691120658	 0.116319
H	 0.2254864762	-4.1503014748	 0.8627779322	 0.113995
H	 1.8238470231	-3.2677354235	 0.9644863652	 0.110617
H	 1.1481837671	-2.4234345685	 3.0570113861	 0.230794
H	-1.9886182648	-2.6420493966	 0.7976537456	 0.09142
H	-2.9393324121	-0.5641307225	 1.3117732306	 0.235527
H	-2.0395899158	-0.5714735489	-0.8710161844	 0.089424
96.526	159.551	253.7401	293.1689	351.279	410.8861	436.6239	456.261	521.912	590.8968	643.5094	782.4706	818.82	846.0838	884.3134	889.1292	912.4311	925.7629	955.2204	980.1847	988.3928	1023.2986	1037.7276	1095.7085	1098.0472	1119.5425	1140.4479	1151.9823	1184.0408	1248.9296	1262.7665	1269.6544	1298.3647	1330.7889	1335.7238	1350.438	1393.6548	1440.2339	1448.2397	1481.5191	1514.8287	3052.641	3058.697	3098.2921	3105.1317	3166.7925	3177.3648	3182.6206	3492.5224	3505.7723	3774.7461
OC1CC2(CN2)C2NC12	O[C@H]1C[C@]2(CN2)[C@H]2N[C@@H]12	
InChI=1S/C6H10N2O/c9-3-1-6(2-7-6)5-4(3)8-5/h3-5,7-9H,1-2H2	InChI=1S/C6H10N2O/c9-3-1-6(2-7-6)5-4(3)8-5/h3-5,7-9H,1-2H2/t3-,4-,5-,6-/m0/s1
