17
gdb 28318	3.17973	1.46903	1.03271	1.7266	78.56	-0.1739	0.0364	0.2103	1124.9744	0.137494	-417.991273	-417.982919	-417.981975	-418.023894	31.669	
N	 0.0366979473	 1.4505862125	 0.0478698737	-0.614888
C	-0.0466578811	 0.0517391236	-0.0364981045	 0.228939
C	-1.1753348819	-0.7515310131	-0.0126296617	-0.233893
N	-0.7261524157	-2.0576447149	 0.0017673018	-0.005762
C	-0.9049871237	-3.3311612844	-0.744959899	-0.161818
C	 0.6536134431	-3.4950879546	-0.7255579505	-0.352899
C	 0.6501497122	-2.0867090712	-0.1517611167	 0.102419
C	 1.1052782732	-0.7934480155	-0.1888733234	 0.144781
O	 2.363734746	-0.2586490091	-0.2931462258	-0.461047
H	 0.9612412871	 1.7478652404	 0.33427653	 0.248482
H	-0.6572886885	 1.8570467557	 0.6610460324	 0.239775
H	-2.2088684766	-0.4854294697	 0.1454671342	 0.100462
H	-1.5048043343	-4.0752595373	-0.2140230435	 0.114046
H	-1.3023167226	-3.183749318	-1.7536518614	 0.123378
H	 1.0287775388	-4.288428638	-0.0722600739	 0.113278
H	 1.1039620179	-3.6068939943	-1.7150484918	 0.118194
H	 3.0084109388	-0.9688201422	-0.2302601198	 0.296551
123.4429	170.1448	186.667	207.8041	249.5622	279.2089	328.6071	379.0398	564.8878	577.3569	622.739	666.764	675.4516	692.9101	771.8529	794.9765	827.8357	898.561	961.9597	1021.9285	1054.1883	1098.747	1133.8813	1169.5599	1188.4905	1218.3525	1241.3134	1277.8922	1299.5179	1368.0036	1388.3221	1471.242	1488.2379	1512.4718	1577.3711	1644.5069	1663.9826	3047.281	3052.1433	3093.0983	3108.4656	3247.3926	3533.5566	3627.4645	3845.737
NC1=CN2CCC2=C1O	NC1=C([C]2N([CH]1)CC2)O	
InChI=1S/C6H8N2O/c7-4-3-8-2-1-5(8)6(4)9/h3,9H,1-2,7H2	InChI=1S/C6H8N2O/c7-4-3-8-2-1-5(8)6(4)9/h3,9H,1-2,7H2
