20
gdb 75581	2.40545	1.50417	0.96875	3.296	83.44	-0.2137	-0.0479	0.1658	1234.4345	0.172161	-403.170408	-403.161546	-403.160602	-403.204973	33.326	
C	 0.0137505961	 1.4615529433	 0.4372722688	-0.455616
C	 0.0370973309	 0.0277213844	-0.0480535432	 0.181385
C	-1.056789318	-0.7408100959	 0.1041482293	-0.114869
C	-1.3763595069	-2.1696881028	-0.2292184621	-0.263287
C	-0.4680620147	-2.9215138795	-1.2064653058	-0.168535
N	 0.9460002578	-2.9252356616	-0.8763354869	-0.276479
C	 1.6763975897	-1.7338563721	-1.2497750965	-0.27677
C	 1.3541786575	-0.3526547104	-0.6492196536	 0.287893
O	 2.2371390279	 0.4854171375	-0.6996939795	-0.309249
H	 0.7944152117	 1.6343255848	 1.1843422631	 0.136155
H	 0.2250875714	 2.153956936	-0.3832077527	 0.137271
H	-0.9557103864	 1.7138479633	 0.8730942741	 0.106838
H	-1.894842547	-0.2494660481	 0.5998723822	 0.094937
H	-1.4149174008	-2.7244003594	 0.7232945427	 0.116287
H	-2.4091888674	-2.2062980103	-0.6048007065	 0.111992
H	-0.8240662413	-3.9576089569	-1.2724847608	 0.102303
H	-0.5701631362	-2.4931675269	-2.2110642191	 0.108915
H	 1.093862614	-3.1578954013	 0.0994713349	 0.217844
H	 2.7433825942	-1.8847097259	-1.0583471893	 0.130511
H	 1.5881938573	-1.6060529081	-2.338601559	 0.132474
20.1368	106.9591	176.4939	245.2456	284.2871	322.355	348.0036	367.0024	397.6763	500.2629	537.9464	612.2213	664.0134	696.9484	724.3295	817.6228	870.9048	930.6454	955.8552	963.8138	1030.6591	1073.4582	1084.1079	1106.6087	1119.7465	1185.246	1208.3128	1254.8898	1287.7793	1337.0954	1351.9346	1377.1715	1404.138	1409.3725	1420.9451	1442.5856	1457.6911	1470.917	1488.1325	1490.2461	1503.0864	1698.5703	1738.6312	2974.9725	3010.3172	3013.0817	3024.0705	3044.2242	3062.066	3084.221	3102.7277	3113.3664	3127.0911	3529.7606
CC1=CCCNCC1=O	CC1=CCCNCC1=O	
InChI=1S/C7H11NO/c1-6-3-2-4-8-5-7(6)9/h3,8H,2,4-5H2,1H3	InChI=1S/C7H11NO/c1-6-3-2-4-8-5-7(6)9/h3,8H,2,4-5H2,1H3
