12
gdb 12170	3.80004	1.5677	1.22446	2.7466	57.22	-0.2947	-0.0187	0.276	922.5128	0.082913	-414.650609	-414.64302	-414.642076	-414.683238	26.022	
O	 0.0466642366	 1.2574231542	 0.2498678737	-0.418248
C	 0.1123290055	-0.1147219296	-0.0023333413	-0.01905
C	-1.2807465671	-0.7702332709	-0.2199317324	-0.023639
O	-0.8717929816	-1.1967772983	-1.5593432818	-0.250152
C	 0.3411255111	-0.5389057584	-1.4445293567	 0.420757
N	 1.2571932608	-0.3288406315	-2.2660877401	-0.539485
C	-1.6500244453	-1.8920560752	 0.6319484283	 0.287505
N	-1.9384057061	-2.769584927	 1.3253057051	-0.304216
H	 0.8342042738	 1.6634251263	-0.1315977744	 0.311276
H	 0.7373149726	-0.6546982836	 0.719807109	 0.130854
H	-2.085332811	-0.0333364272	-0.2741623252	 0.158621
H	 1.0627075909	-0.722062069	-3.1878397243	 0.245778
71.3575	95.3452	157.6076	227.5105	261.7709	367.9289	435.6346	502.6393	568.8398	684.0867	729.2263	868.044	882.2442	941.5049	998.3136	1006.6775	1048.1053	1140.6215	1195.4529	1204.7901	1270.1955	1338.1245	1349.194	1405.8379	1846.4479	2367.4543	3037.0138	3099.9366	3489.6183	3802.9974
OC1C(OC1=N)C#N	O[C@H]1[C@@H](O[C]1[NH])C#N	
InChI=1S/C4H4N2O2/c5-1-2-3(7)4(6)8-2/h2-3,6-7H	InChI=1S/C4H4N2O2/c5-1-2-3(7)4(6)8-2/h2-3,6-7H/t2-,3-/m0/s1
