17
gdb 57080	2.57855	1.39049	1.17015	3.9341	71.96	-0.2625	0.0051	0.2675	1107.0448	0.137002	-418.038391	-418.029868	-418.028923	-418.072313	30.373	
C	-0.0467569946	 1.5505621209	-0.0237154378	-0.393449
C	 0.0478114624	 0.0138045102	-0.0179837347	-0.154219
C	 0.7330487573	-0.4777046941	-1.2187499138	 0.286401
N	 1.2671566336	-0.8801930635	-2.1614582057	-0.33251
C	 0.7384234361	-0.5164527346	 1.2646536506	 0.005024
C	 0.8838756805	-2.0622804756	 1.3376082789	-0.131632
O	 2.3077101141	-2.2724809092	 1.4936919738	-0.214633
C	 2.8559270206	-1.0398199885	 1.4809374499	 0.140353
N	 2.118262022	-0.0137162328	 1.3763348236	-0.269882
H	 0.9506878737	 1.9890339559	 0.0318172505	 0.164958
H	-0.5450313405	 1.9062942949	-0.9283316095	 0.134169
H	-0.6218875272	 1.8857269584	 0.8443145106	 0.123162
H	-0.9670536015	-0.4054872524	-0.0402730372	 0.1259
H	 0.1524519546	-0.1322059644	 2.1075206759	 0.099492
H	 0.3780852731	-2.504857916	 2.1986093404	 0.126027
H	 0.5650799607	-2.5747361812	 0.4255941311	 0.138617
H	 3.9362896852	-1.029038918	 1.5706689932	 0.152222
61.5227	76.4771	153.8433	202.0838	217.5403	254.2749	357.1378	382.0145	498.3459	573.8097	682.4854	715.9887	783.1232	876.6578	885.3928	961.1916	967.2077	973.4756	1014.1812	1030.0498	1069.2193	1111.0867	1147.1053	1158.1725	1224.3382	1274.7635	1308.0767	1314.3248	1334.4946	1372.8971	1388.7578	1410.226	1491.1942	1502.0704	1513.6838	1701.7836	2356.0088	3023.9873	3036.6946	3054.067	3061.9891	3113.5705	3126.0949	3152.8918	3222.5224
CC(C#N)C1COC=N1	C[C@@H](C#N)[C@H]1COC=N1	
InChI=1S/C6H8N2O/c1-5(2-7)6-3-9-4-8-6/h4-6H,3H2,1H3	InChI=1S/C6H8N2O/c1-5(2-7)6-3-9-4-8-6/h4-6H,3H2,1H3/t5-,6+/m0/s1
