19
gdb 26358	2.58142	1.34446	1.07377	2.5812	78.83	-0.1852	0.0468	0.232	1195.7954	0.159546	-419.21877	-419.209518	-419.208573	-419.253302	34.633	
C	 0.0224584678	 1.4584747326	-0.0800987662	-0.323635
N	-0.0600146584	 0.0031788033	 0.0144064133	-0.176529
C	 0.8410585381	-0.5368154046	 1.0294847802	-0.323746
C	-1.3885842733	-0.5046550501	 0.0821144197	 0.133044
C	-2.3810626672	-0.3733730288	 1.0374931751	-0.152086
N	-3.4676757501	-1.0712733327	 0.5927557944	-0.238887
C	-3.2070716773	-1.6569488069	-0.6343329443	-0.186872
C	-1.9189471733	-1.3137554443	-0.9647108655	 0.27142
O	-1.2215708865	-1.6550810922	-2.0777419667	-0.454404
H	 1.0498559473	 1.7538787917	-0.3212471932	 0.112553
H	-0.6368948387	 1.8110005261	-0.8765873287	 0.127891
H	-0.2649433604	 1.9694045611	 0.8558882145	 0.095597
H	 0.6132635079	-0.1729855749	 2.0470592871	 0.095656
H	 0.7739611094	-1.6271802287	 1.0350108026	 0.127963
H	 1.8728740399	-0.251926203	 0.7946211081	 0.112496
H	-2.3994495965	 0.1509394991	 1.9790693708	 0.116257
H	-4.3385868184	-1.1507924934	 1.0847969803	 0.261359
H	-3.9428611667	-2.2499704927	-1.1490694516	 0.119056
H	-0.3578396536	-1.2293201916	-1.9584392497	 0.282866
25.1801	146.6438	154.5167	240.1222	241.3994	289.6772	298.4315	372.1711	375.5713	476.3838	527.4391	546.6381	601.8735	627.322	640.4228	728.5332	735.3303	763.914	896.701	958.8863	1057.5588	1067.4917	1115.3581	1119.3226	1176.5247	1186.9697	1221.2135	1232.3751	1278.3287	1309.075	1370.0138	1440.1778	1454.687	1466.8652	1479.4769	1479.8476	1496.811	1497.891	1512.6097	1573.573	1658.3418	2948.1123	2953.4771	3054.4004	3057.1393	3116.6554	3119.1192	3263.2015	3281.8989	3696.555	3700.2169
CN(C)C1=CNC=C1O	CN(C)c1c[nH]cc1O	
InChI=1S/C6H10N2O/c1-8(2)5-3-7-4-6(5)9/h3-4,7,9H,1-2H3	InChI=1S/C6H10N2O/c1-8(2)5-3-7-4-6(5)9/h3-4,7,9H,1-2H3
