15
gdb 27238	2.21002	2.00802	1.0798	5.2371	69.65	-0.1836	0.0331	0.2167	1054.4703	0.114042	-453.953758	-453.945914	-453.94497	-453.98662	28.676	
N	 0.0830520954	 1.4144703433	-0.0183114237	-0.596531
C	-0.0734892192	 0.0372781221	 0.0265544802	 0.229579
C	-1.1020005971	-0.8223775898	 0.0492204178	 0.161524
C	-2.4903815944	-1.3039238719	-0.3301637763	-0.365339
C	-1.7966799694	-2.6913949142	-0.6151463326	-0.166163
N	-0.5511587412	-2.1215121144	-0.0493703572	-0.138023
C	 0.7959420736	-2.0644619237	-0.2629454696	 0.461695
O	 1.6278863259	-2.8901559798	-0.5107215068	-0.394491
O	 1.0988907946	-0.6940233743	-0.0527564166	-0.247747
H	 0.993896213	 1.6989205804	 0.3198662294	 0.264173
H	-0.647117699	 1.910693111	 0.4741390204	 0.258255
H	-3.2214741602	-1.3375937092	 0.4818169699	 0.127215
H	-2.9435284124	-0.8242124285	-1.1999153044	 0.132355
H	-2.1773245574	-3.551179524	-0.0612739461	 0.133781
H	-1.7081026324	-2.938612637	-1.6760367044	 0.139716
82.8602	99.8167	169.9717	243.5313	274.1959	324.1261	403.4816	612.2368	630.4009	667.3326	690.0821	717.7587	728.985	741.7972	791.4203	903.584	907.9514	987.7133	1050.5967	1057.5498	1141.358	1192.7637	1216.1597	1235.5975	1280.5173	1322.2461	1331.6928	1372.5163	1486.3615	1512.481	1634.8061	1780.5982	1902.8655	3062.8322	3068.8617	3111.274	3130.6661	3546.2231	3643.4302
NC1=C2CCN2C(=O)O1	N[C]1[C]2CCN2C(=O)O1	
InChI=1S/C5H6N2O2/c6-4-3-1-2-7(3)5(8)9-4/h1-2,6H2	InChI=1S/C5H6N2O2/c6-4-3-1-2-7(3)5(8)9-4/h1-2,6H2
