22
gdb 122824	4.7622	0.55678	0.54931	2.2121	80.96	-0.2463	0.0644	0.3107	2140.5391	0.192628	-441.537608	-441.526296	-441.525352	-441.576448	38.362	
C	-0.2779501227	 1.3104572867	-0.7192748714	-0.38016
C	-0.141039133	-0.0125192781	 0.0390056699	-0.160624
C	-1.4530680035	-0.7998698989	 0.1123860735	-0.16348
C	-1.3072978532	-2.1227819419	 0.8748120135	-0.167396
N	-2.5401140681	-2.884018113	 0.96486694	-0.362427
C	-2.8441776827	-3.8694921528	 0.0775355402	 0.518087
O	-2.1063652495	-4.3097218762	-0.77707927	-0.418915
O	-4.1106614132	-4.3131223357	 0.2992550278	-0.267402
C	-4.5265985591	-5.3739984765	-0.5615599496	-0.231031
H	 0.6743838289	 1.8481886183	-0.7589677649	 0.112804
H	-0.609279015	 1.1424061716	-1.7498273384	 0.117739
H	-1.0120334213	 1.9676328452	-0.2397995687	 0.113041
H	 0.6256035483	-0.6336598447	-0.4423247404	 0.103376
H	 0.2234219136	 0.1842971595	 1.0563157786	 0.093864
H	-2.2261835504	-0.1850641412	 0.5942940444	 0.085888
H	-1.8151734153	-1.0187127142	-0.8997620689	 0.111462
H	-0.5802912069	-2.7664506582	 0.3731269446	 0.143688
H	-0.9369011811	-1.9340925081	 1.8899662235	 0.102237
H	-3.2879442289	-2.5535688896	 1.5525639534	 0.249103
H	-5.5496097305	-5.6103587042	-0.2661902762	 0.126561
H	-4.4966817638	-5.0627554245	-1.6091610148	 0.136469
H	-3.8852785029	-6.2510358734	-0.4401085061	 0.137117
20.3651	53.0797	80.8646	91.822	112.5628	146.1195	199.0176	229.0559	255.1608	311.0992	361.7279	422.636	470.8063	560.3555	685.8655	740.0333	782.3243	796.6867	903.9086	914.9789	977.1549	1003.8781	1045.9959	1063.4737	1128.9574	1168.0442	1183.575	1187.636	1215.1251	1244.0198	1268.3861	1296.4895	1328.3938	1339.7835	1385.4759	1408.1069	1416.0449	1468.4212	1475.9127	1480.7687	1485.5869	1497.3245	1500.3618	1501.8584	1511.5294	1552.2303	1814.7408	3008.7911	3015.2694	3030.2047	3030.3881	3040.9006	3047.6466	3064.1321	3097.2274	3103.1926	3111.6057	3119.9942	3149.9151	3647.0834
CCCCNC(=O)OC	CCCCNC(=O)OC	
InChI=1S/C6H13NO2/c1-3-4-5-7-6(8)9-2/h3-5H2,1-2H3,(H,7,8)	InChI=1S/C6H13NO2/c1-3-4-5-7-6(8)9-2/h3-5H2,1-2H3,(H,7,8)
