17
gdb 26324	3.55173	1.03743	0.94389	6.0914	70.79	-0.2116	0.0244	0.236	1277.7181	0.136919	-455.196624	-455.187997	-455.187053	-455.230156	32.174	
C	 0.0463479041	 1.5204862343	 0.213926397	-0.374335
C	-0.0728243671	-0.0074613849	 0.0980230342	-0.101369
N	-1.4933564058	-0.3617886628	-0.059216165	-0.525467
H	-0.7622250576	-0.0854338731	-2.6092773449	 0.280425
H	-1.6120556331	-1.368802205	 0.005146906	 0.236558
H	-2.0353274489	 0.0464115779	 0.6962789726	 0.233444
C	 0.668182289	-0.5330552856	-1.0912671735	 0.340054
C	 1.8457847369	-1.1580720491	-1.2249248331	-0.152704
O	 2.1059031899	-1.4054151173	-2.5576988098	-0.212484
C	 1.0351361947	-0.9386129202	-3.30510736	 0.484136
O	 0.9438189474	-1.0378312212	-4.4974643878	-0.401788
N	 0.1751140546	-0.376047079	-2.3889633655	-0.409076
H	 1.0928379909	 1.8168236375	 0.3169632034	 0.12948
H	-0.3709231985	 2.0079117685	-0.6714503669	 0.131486
H	-0.4998562829	 1.8797521812	 1.0929062964	 0.114153
H	 0.3933381779	-0.453320351	 0.9916854359	 0.078402
H	 2.5920499284	-1.4700837002	-0.5156036288	 0.149085
68.8533	114.849	165.2541	233.6407	236.2707	304.9096	360.6946	431.9385	480.3251	510.8055	533.1143	652.4187	662.4828	724.0161	756.5691	774.3203	869.5942	907.1884	923.1035	995.619	1016.4957	1062.5317	1096.5399	1121.0434	1179.8167	1212.2448	1264.0489	1321.601	1353.3598	1398.9877	1405.4376	1428.2452	1490.8623	1495.6444	1654.416	1708.1372	1897.7046	2963.5373	3039.1686	3110.5041	3132.4673	3293.7174	3491.2901	3573.5961	3683.3457
CC([NH3+])C1=COC([O-])=N1	C[C@@H](N)c1coc(=O)[nH]1	
InChI=1S/C5H8N2O2/c1-3(6)4-2-9-5(8)7-4/h2-3H,6H2,1H3,(H,7,8)	InChI=1S/C5H8N2O2/c1-3(6)4-2-9-5(8)7-4/h2-3H,6H2,1H3,(H,7,8)/t3-/m1/s1
