20
gdb 26091	3.08806	1.27606	1.12836	1.2984	80.39	-0.2357	0.0097	0.2454	1182.4065	0.170327	-403.197011	-403.187879	-403.186934	-403.231017	34.438	
C	 0.1450105022	 1.5404946658	 0.1529462002	-0.396389
C	 0.0030533722	 0.0207155585	-0.0260958279	 0.129243
C	 0.6102564152	-0.7149902573	 1.1898067746	-0.407694
C	-1.4883111182	-0.3593588755	-0.1666598406	-0.407725
C	 0.7369437803	-0.3978996873	-1.271268975	 0.421765
N	 1.4041154647	 0.3260123673	-2.1148757919	-0.32265
C	 1.8683168976	-0.5732652221	-3.0684111313	-0.121994
C	 1.4488126144	-1.8156821985	-2.7438742426	-0.046218
O	 0.7200292401	-1.7232242585	-1.5913730156	-0.191419
H	 1.1942854197	 1.8311830965	 0.24607186	 0.126547
H	-0.2716281494	 2.0797602186	-0.7013084305	 0.126568
H	-0.3859839948	 1.854992918	 1.0570612975	 0.104809
H	 0.0748345098	-0.4335801575	 2.1022509709	 0.113579
H	 0.5393708161	-1.7996414678	 1.0720071625	 0.125353
H	 1.6649469597	-0.4536020698	 1.3203698871	 0.121261
H	-1.9473185114	 0.1579572455	-1.0148592376	 0.121277
H	-1.6101128559	-1.4354807541	-0.3167029343	 0.125339
H	-2.0333696898	-0.0759966592	 0.7395068739	 0.113584
H	 2.4648553613	-0.2545967161	-3.908281068	 0.122086
H	 1.5571604964	-2.7981653065	-3.1695574014	 0.142677
36.8271	145.6524	198.2167	213.1447	267.192	273.1359	328.2999	331.1098	333.0115	429.3162	481.2429	596.8909	631.5223	753.1273	779.3466	833.0265	861.2632	930.8451	934.6493	947.2809	947.6012	965.0771	1044.0359	1048.9316	1109.741	1136.6691	1159.2087	1172.071	1226.5503	1246.3527	1294.7586	1378.3205	1394.5523	1401.0213	1430.8963	1474.7686	1484.2394	1488.2196	1498.0701	1502.1065	1517.5435	1558.665	1608.9445	3034.3759	3036.9352	3045.0522	3105.069	3107.3929	3115.7404	3116.8986	3119.959	3126.9685	3262.8383	3300.2295
CC(C)(C)C1=NC=CO1	CC(C)(C)c1ncco1	
InChI=1S/C7H11NO/c1-7(2,3)6-8-4-5-9-6/h4-5H,1-3H3	InChI=1S/C7H11NO/c1-7(2,3)6-8-4-5-9-6/h4-5H,1-3H3
