19
gdb 73010	2.75113	1.46892	1.16541	2.4538	75.29	-0.2327	0.06	0.2926	1105.6952	0.15854	-422.9519	-422.943549	-422.942605	-422.984923	31.254	
C	 0.0017021012	 1.5928427019	-0.0019986423	-0.501816
C	 0.0029282906	 0.0927599654	 0.0248103217	 0.163382
C	-0.7970693088	-0.817144734	-0.9102848446	-0.12736
O	-1.035814168	-1.782987767	 0.1504137792	-0.289825
C	-0.367722428	-0.9320962075	 1.0859660643	-0.019489
C	 1.0584641026	-0.7598823448	 0.6904850603	 0.237823
C	 2.0421402724	-1.795950596	 0.159678938	-0.144286
O	 3.0562034042	-1.3199864511	 1.0778831454	-0.276859
C	 2.19822407	-0.2768379619	 1.5841806068	-0.157602
H	 0.5877373865	 1.9773938973	-0.8454653908	 0.126901
H	-1.0162534767	 1.9867250424	-0.0947445911	 0.12512
H	 0.4361765703	 2.0081552569	 0.9125741731	 0.126761
H	-1.7427297787	-0.3712249252	-1.2406966347	 0.108892
H	-0.2769226352	-1.2578250954	-1.7693594398	 0.106208
H	-0.7660214027	-0.8601171071	 2.0931969716	 0.104056
H	 1.7741104503	-2.8432589994	 0.3399121464	 0.115992
H	 2.3528481779	-1.6749152401	-0.886848112	 0.098325
H	 2.59442361	 0.7230266519	 1.3589281284	 0.099372
H	 2.0385030919	-0.3598293862	 2.6674614202	 0.104405
91.6016	155.3017	170.6936	178.8772	239.0153	260.8975	332.5147	421.0266	500.4892	569.8934	656.0851	761.1619	855.4409	900.5409	920.933	954.3734	977.7604	981.4413	995.7033	1010.1817	1027.1279	1034.8951	1117.9886	1131.2817	1142.7802	1148.7672	1153.4063	1161.4164	1202.1536	1231.3879	1290.2674	1308.5357	1331.412	1374.268	1418.4239	1477.6785	1487.2314	1501.2074	1510.0769	1515.7972	1534.5623	2993.8637	3007.795	3018.0455	3025.3302	3034.7489	3060.1285	3067.3655	3083.6533	3101.6444	3163.7119
CC12COC1C21COC1	C[C@]12CO[C@H]1C12COC1	
InChI=1S/C7H10O2/c1-6-2-9-5(6)7(6)3-8-4-7/h5H,2-4H2,1H3	InChI=1S/C7H10O2/c1-6-2-9-5(6)7(6)3-8-4-7/h5H,2-4H2,1H3/t5-,6+/m1/s1
