16
gdb 105722	2.44949	1.53543	1.24993	3.959	71.16	-0.2786	-0.0214	0.2572	1059.1838	0.122989	-437.886716	-437.878108	-437.877163	-437.920289	30.865	
C	-0.0476741502	 1.3597699455	-0.1729177003	-0.264205
O	-0.1113237577	-0.0634281773	-0.0856605975	-0.25433
C	-1.3886791931	-0.5957450356	 0.0886987723	 0.318301
O	-2.2695865883	-0.2689820945	-0.970418053	-0.281716
C	-2.6103305966	-1.4428797835	-1.7134253357	-0.137808
C	-1.969985423	-2.5730039897	-0.9655727176	-0.090213
C	-1.2916823728	-2.1045568294	 0.0723280557	-0.124391
C	-1.9937218888	-0.0806707869	 1.3560769358	 0.248292
N	-2.4441933177	 0.2884645477	 2.3537880409	-0.346533
H	 1.0055350233	 1.6059367593	-0.3141044005	 0.136116
H	-0.6308469641	 1.7264954877	-1.0233853929	 0.135541
H	-0.4110681425	 1.8315869103	 0.7484190092	 0.138053
H	-3.7039884928	-1.5263631266	-1.7582857031	 0.13134
H	-2.2377564796	-1.3584449449	-2.7439395711	 0.127305
H	-2.059541364	-3.6081882322	-1.2681776279	 0.127768
H	-0.7110081622	-2.6448363798	 0.8053687757	 0.136479
81.5769	111.1259	158.9232	166.6049	192.774	247.4078	358.6763	461.4782	483.8235	514.7897	566.3752	657.8487	743.1957	784.7977	832.7974	953.7703	957.5433	982.439	1022.7724	1041.0326	1080.1444	1107.0402	1138.5945	1176.2114	1184.771	1201.8998	1230.4678	1350.0244	1376.8793	1472.4066	1486.9039	1508.3272	1510.5378	1693.5159	2353.2017	3009.7557	3023.8647	3042.4299	3096.0463	3143.6411	3222.5476	3256.9526
COC1(OCC=C1)C#N	CO[C@]1(OCC=C1)C#N	
InChI=1S/C6H7NO2/c1-8-6(5-7)3-2-4-9-6/h2-3H,4H2,1H3	InChI=1S/C6H7NO2/c1-8-6(5-7)3-2-4-9-6/h2-3H,4H2,1H3/t6-/m1/s1
