18
gdb 99490	2.45669	1.11203	0.80801	4.4126	75.88	-0.2486	0.0248	0.2734	1408.8888	0.145083	-439.078303	-439.067764	-439.06682	-439.114958	36.702	
C	 0.8352722078	 1.5024987308	-0.4867945756	-0.338055
N	 0.9056563724	 0.0747408693	-0.7271791689	-0.330468
C	-0.1209732043	-0.7630752989	-0.4451090458	 0.444332
O	-1.1876513194	-0.4098375635	 0.0263887825	-0.385235
C	 0.1092794759	-2.2580803525	-0.7647149719	-0.332685
C	-1.042428762	-2.7605978071	-1.6792762461	-0.055217
O	-1.0052341463	-4.1556658917	-1.8655323036	-0.420898
C	 1.4046806345	-2.586671624	-1.3471176665	 0.297172
C	 2.450701303	-2.8761365653	-1.8691695534	-0.443843
H	 1.620363395	 1.8259295058	 0.2051866559	 0.12913
H	 0.9361574067	 2.067861695	-1.4198542317	 0.128835
H	-0.13959442	 1.713626662	-0.045971075	 0.172623
H	 1.7442833039	-0.3235254032	-1.1195518499	 0.254877
H	 0.0032302338	-2.7864445261	 0.1907654435	 0.145228
H	-1.9849922454	-2.5206317141	-1.1856744876	 0.144404
H	-1.0028680907	-2.2157833085	-2.6345494669	 0.096062
H	-0.1732256829	-4.3700083941	-2.3029671528	 0.286737
H	 3.3838603981	-3.1330093537	-2.3075709963	 0.207
33.018	75.0839	106.0742	131.121	138.3147	186.7608	236.3834	290.8497	349.1691	392.29	401.4025	492.868	514.3449	555.9433	631.3718	660.2802	670.4351	774.137	837.4551	901.1086	1037.6874	1066.6371	1085.1491	1097.4001	1153.6052	1177.1088	1194.449	1239.9495	1264.8154	1329.9473	1385.8965	1410.1375	1438.7088	1494.5042	1500.0944	1508.5062	1570.9699	1777.2347	2219.1244	2992.6607	3030.3264	3044.7338	3083.4462	3131.8923	3154.2445	3497.4488	3625.8089	3793.2048
CNC(=O)C(CO)C#C	CNC(=O)[C@@H](CO)C#C	
InChI=1S/C6H9NO2/c1-3-5(4-8)6(9)7-2/h1,5,8H,4H2,2H3,(H,7,9)	InChI=1S/C6H9NO2/c1-3-5(4-8)6(9)7-2/h1,5,8H,4H2,2H3,(H,7,9)/t5-/m1/s1
