20
gdb 29750	2.96241	1.48615	1.07984	2.1907	87.07	-0.1939	0.0541	0.2479	1162.6876	0.172162	-366.026218	-366.017776	-366.016832	-366.059268	32.496	
C	-0.4138713992	 1.6596963967	-0.116355713	-0.401812
C	 0.0483403851	 0.2187516275	 0.0100324119	 0.038168
C	 0.8178577137	-0.4808678452	-1.2007531227	-0.183187
C	 1.0809902735	 0.3310040294	-2.4652121367	-0.397724
C	 1.9534439805	-0.6450322542	-0.2005502024	 0.34781
C	 3.1229686566	-1.1612001176	 0.3112944389	-0.34243
C	 3.1222023427	-0.778253579	 1.6917984534	-0.125526
C	 1.9600175056	-0.0768159629	 1.978067471	-0.168445
N	 1.2866535282	 0.0078900857	 0.7903668871	 0.017432
H	 0.3932501106	 2.3117403494	-0.4591978575	 0.130676
H	-1.2458950784	 1.730887031	-0.8245269801	 0.123681
H	-0.7659947493	 2.0345430443	 0.8502307617	 0.125002
H	-0.7698930292	-0.4087909796	 0.3817401858	 0.095489
H	 0.3365939435	-1.4278967753	-1.4702862771	 0.087716
H	 1.5766063664	 1.279827927	-2.2429579074	 0.123344
H	 1.7341653185	-0.2310440985	-3.1403300517	 0.124734
H	 0.1505618885	 0.5424614258	-3.0033438709	 0.11271
H	 3.8857315835	-1.7290921496	-0.1976459287	 0.090787
H	 3.9113956349	-0.980484748	 2.4015508146	 0.088887
H	 1.6122639843	 0.3775709432	 2.8913699538	 0.112689
74.5874	115.4918	206.5785	220.9383	248.4025	263.5737	384.0199	461.8901	532.578	604.2821	669.8883	694.1105	696.1553	744.0176	759.221	763.0349	823.0238	921.4633	959.1465	997.2116	1028.4946	1047.7381	1060.275	1082.7718	1112.3532	1140.0588	1164.4433	1217.058	1232.0808	1260.7555	1300.5587	1350.8193	1369.594	1405.3067	1410.8813	1418.539	1437.0323	1481.4874	1483.747	1490.1798	1496.2313	1506.3704	1576.4819	3031.491	3034.7307	3039.0666	3045.8011	3099.78	3105.2431	3115.1326	3127.2335	3233.3484	3256.1346	3269.4614
CC1C(C)C2=CC=CN12	C[C@H]1[C@@H](C)c2cccn12	
InChI=1S/C8H11N/c1-6-7(2)9-5-3-4-8(6)9/h3-7H,1-2H3	InChI=1S/C8H11N/c1-6-7(2)9-5-3-4-8(6)9/h3-7H,1-2H3/t6-,7+/m1/s1
