20
gdb 16518	3.42475	2.28889	1.77006	0.1917	77.54	-0.2456	0.0956	0.3412	836.5689	0.179571	-311.860085	-311.853274	-311.85233	-311.890451	28.299	
C	-0.0299619599	 1.4541813287	 0.0405188322	-0.493091
C	 0.0003983495	-0.05458736	-0.0218441232	 0.376254
C	 1.0272813661	-0.7333685722	-0.9377591228	-0.288588
C	 0.3491924827	-2.0637567331	-1.3619314196	-0.20372
C	-0.7420518887	-2.2659115479	-0.3025923776	-0.040577
C	-0.1235042811	-2.2954154352	 1.1347012114	-0.243626
C	-0.409233384	-0.7984263437	 1.2447972054	-0.095097
C	-1.284495472	-0.8399404656	-0.0006595894	-0.114744
H	 0.9123228232	 1.8559761634	 0.4317495666	 0.115437
H	-0.186272653	 1.8888515187	-0.953781366	 0.112769
H	-0.8354408995	 1.8112492732	 0.6908148117	 0.113488
H	 1.2514543096	-0.0999500563	-1.8026467817	 0.091221
H	 1.9780422631	-0.9050556895	-0.420143536	 0.096062
H	-0.1064037084	-1.9602641058	-2.353595688	 0.092773
H	 1.0501331958	-2.9040615395	-1.4074532345	 0.090961
H	-1.4588921884	-3.0555679177	-0.5285161862	 0.062215
H	-0.7438255586	-2.8694676522	 1.8283105282	 0.097002
H	 0.915106299	-2.6365931403	 1.2254664953	 0.083679
H	-0.5738758587	-0.2508058206	 2.1669469476	 0.07259
H	-2.2741278667	-0.4406172444	-0.1833265233	 0.074992
194.5245	215.2262	264.8858	317.2074	364.5863	425.6971	561.6023	611.8441	698.7184	758.2717	826.1258	843.3309	855.5099	866.4198	890.3202	925.9448	955.9993	968.6383	998.5847	1019.5716	1037.0621	1056.9436	1075.3311	1096.733	1132.7531	1162.9897	1178.1227	1222.2474	1238.5751	1253.1683	1264.385	1280.4745	1306.2816	1327.5114	1345.8231	1411.597	1417.8668	1484.273	1489.8959	1494.2276	1501.1741	1511.8137	3019.0826	3023.3665	3029.5084	3037.6474	3063.8737	3076.9806	3082.3708	3087.8356	3093.0301	3108.8584	3157.5095	3190.1781
CC12CCC3CC1C23	C[C@@]12CC[C@H]3C[C@@H]1[C@@H]23	
InChI=1S/C8H12/c1-8-3-2-5-4-6(8)7(5)8/h5-7H,2-4H2,1H3	InChI=1S/C8H12/c1-8-3-2-5-4-6(8)7(5)8/h5-7H,2-4H2,1H3/t5-,6+,7-,8+/m0/s1
