18
gdb 74655	4.57035	1.41266	1.24698	1.4503	76.46	-0.2422	0.0195	0.2617	1035.1444	0.149968	-401.928823	-401.921899	-401.920955	-401.959982	27.993	
C	 0.0046479717	 1.4624343754	 0.0663990122	-0.465484
C	-0.0087434831	-0.0272475253	-0.0630635508	 0.396198
N	-0.0278569276	-0.6435639598	-1.1742770742	-0.335027
C	-0.0368120996	-2.0843196389	-1.0569085048	 0.049785
C	-0.9757124577	-2.7180808604	 0.0283745873	-0.112695
C	-0.0360084109	-3.9466314568	 0.0393639924	-0.236087
C	 0.9208438245	-2.7318649101	 0.0035788012	-0.112735
C	-0.009067514	-2.0714471205	 1.0576299835	 0.146966
O	 0.0023370503	-0.6533215414	 1.1466262205	-0.278286
H	 0.8996071522	 1.7892848161	 0.6058170335	 0.139411
H	-0.0121621247	 1.9127275995	-0.9253678153	 0.147426
H	-0.8621551602	 1.8021881817	 0.6424188111	 0.139284
H	-0.0531169285	-2.5576461367	-2.0401928727	 0.074833
H	-2.0650255138	-2.694090492	 0.0445321829	 0.080448
H	-0.0285266366	-4.5536019855	 0.9489094093	 0.095505
H	-0.0522590263	-4.5691483276	-0.8580185458	 0.102928
H	 2.0104419523	-2.723732677	-0.0087576217	 0.08044
H	 0.0015319522	-2.4516869608	 2.0798216915	 0.087089
129.5902	155.4622	312.5436	314.7573	421.5908	432.9647	500.0026	604.907	659.5963	778.6396	787.3778	811.9266	847.8428	879.2614	905.5058	907.6624	962.1131	1002.0247	1007.879	1039.7532	1063.9889	1083.7212	1105.6747	1109.1246	1135.0809	1175.603	1183.6205	1202.3691	1239.3718	1247.6063	1254.0488	1260.0822	1361.2707	1406.7275	1411.1746	1474.923	1475.6575	1511.6613	1730.6065	3046.8405	3054.8827	3092.7847	3103.2986	3107.8164	3117.4854	3120.6427	3125.2356	3165.8204
CC1=NC2C3CC2C3O1	C[C]1[N][C@@H]2[C@H]3C[C@@H]2[C@H]3O1	
InChI=1S/C7H9NO/c1-3-8-6-4-2-5(6)7(4)9-3/h4-7H,2H2,1H3	InChI=1S/C7H9NO/c1-3-8-6-4-2-5(6)7(4)9-3/h4-7H,2H2,1H3/t4-,5+,6-,7+
