19
gdb 88026	2.32061	1.35824	1.08897	2.0439	81.56	-0.2505	0.0188	0.2693	1204.3866	0.157099	-385.818629	-385.809488	-385.808543	-385.85266	34.14	
C	-0.0858790724	 1.5009746419	-0.0823826056	-0.409738
C	 0.0963977878	-0.0001628549	-0.0565810154	-0.055364
C	 1.4759478563	-0.6148227906	-0.1649290798	-0.355836
C	 0.7175749548	-0.6776129258	 1.124770565	 0.279202
C	 1.0552010841	-0.1097739612	 2.4970301558	-0.141727
O	 0.5039213121	-1.2809009586	 3.1439037231	-0.286406
C	 0.2163203709	-1.9245073344	 1.8742673429	-0.122243
C	-1.1776852814	-2.3014776898	 1.7063489927	 0.339032
C	-2.3262053476	-2.6145338498	 1.5371490445	-0.449694
H	 0.7486465041	 2.0131843097	 0.4086315843	 0.114673
H	-0.1394322381	 1.8718610585	-1.1114056688	 0.121848
H	-1.0072387594	 1.7995146322	 0.429437889	 0.125089
H	-0.7055743527	-0.5634653726	-0.528454802	 0.098151
H	 1.5956569577	-1.5317120164	-0.7340084216	 0.116033
H	 2.3297546872	 0.0555850901	-0.2149118235	 0.112426
H	 2.1243094392	 0.0091847092	 2.7160602158	 0.102248
H	 0.5233803391	 0.8038530572	 2.7907140742	 0.10902
H	 0.8573622399	-2.8074655426	 1.7392342251	 0.102037
H	-3.3417950117	-2.8946773421	 1.4017685143	 0.20125
68.2507	99.1631	163.4746	187.9838	203.5237	241.5308	322.8403	401.5375	434.3331	503.7841	542.252	591.2592	618.8187	673.2471	783.7349	830.285	873.0708	894.7214	929.3476	960.7136	1009.1051	1024.4929	1038.139	1056.7304	1092.4827	1119.684	1130.4071	1155.3757	1182.0196	1221.3521	1244.3786	1313.7662	1353.9194	1366.5557	1413.0652	1437.0383	1490.5814	1493.5825	1510.3834	1524.3946	2232.052	2996.2641	3008.5778	3028.478	3049.5416	3093.5236	3094.7426	3115.8146	3137.3258	3200.2445	3500.7117
CC1CC11COC1C#C	C[C@H]1C[C@]21CO[C@H]2C#C	
InChI=1S/C8H10O/c1-3-7-8(5-9-7)4-6(8)2/h1,6-7H,4-5H2,2H3	InChI=1S/C8H10O/c1-3-7-8(5-9-7)4-6(8)2/h1,6-7H,4-5H2,2H3/t6-,7-,8+/m0/s1
