12
gdb 48380	2.72728	1.26241	0.98924	3.3684	68.14	-0.2845	-0.0711	0.2134	1138.1151	0.073604	-435.430809	-435.422244	-435.4213	-435.464475	29.874	
O	-0.4801129037	 0.6016228894	 0.8558026868	-0.218224
C	 0.2270817414	 0.9007381886	-0.063053064	 0.124162
C	 1.3231236086	 1.9469743039	 0.0287544036	 0.05342
O	 2.4062245723	 1.7036647297	-0.8930698698	-0.238005
C	 1.5685756669	 2.8048190189	-1.1795023554	-0.137764
C	 0.7384890104	 2.7254480448	-2.3638350178	 0.308595
N	 0.0787681938	 2.6965467527	-3.3120770853	-0.309083
C	 1.6587469268	 2.4566436	 1.3270665644	 0.28235
C	 1.9318667865	 2.8775058212	 2.4175325261	-0.370474
H	 0.160500794	 0.4335890167	-1.0661932921	 0.121909
H	 2.0008331881	 3.7860902899	-0.9940928429	 0.164612
H	 2.1699317451	 3.2430356743	 3.3869377363	 0.218502
83.4331	111.1103	131.5494	163.8218	240.1195	285.7059	339.7098	431.9665	464.3594	556.9563	593.6717	599.8894	659.6369	690.9326	752.9663	819.4995	917.4666	990.2843	1033.0378	1065.3047	1244.2433	1283.5981	1385.6568	1422.1098	1845.4497	2250.2786	2362.0551	2944.4617	3143.0842	3495.9551
O=CC1(OC1C#N)C#C	O=C[C@]1(O[C@H]1C#N)C#C	
InChI=1S/C6H3NO2/c1-2-6(4-8)5(3-7)9-6/h1,4-5H	InChI=1S/C6H3NO2/c1-2-6(4-8)5(3-7)9-6/h1,4-5H/t5-,6+/m0/s1
