22
gdb 70426	2.64931	1.51708	1.29029	1.6633	85.92	-0.2187	0.0766	0.2953	1110.2446	0.194846	-367.163469	-367.154971	-367.154027	-367.196176	33.913	
C	-0.0588155507	 1.5183236959	-0.2170667644	-0.515424
C	 0.138410119	 0.0402701949	-0.0746972088	 0.276455
N	-0.864715276	-0.8039622116	 0.6295680648	-0.373638
C	 0.5527632554	-0.7996367879	 1.0830186018	-0.099444
C	 1.2791614877	-1.7898280363	 0.1732261096	-0.320924
C	 0.8380553242	-0.9301705856	-1.0560433792	 0.361217
C	 0.0404579101	-1.4542166163	-2.2741899614	-0.274526
C	 0.8461843355	-0.4817246445	-3.1801006427	-0.210797
C	 1.8874809573	-0.3427505508	-2.0360280904	-0.297605
H	 0.8644129353	 2.0214001608	-0.521933484	 0.12714
H	-0.8276749342	 1.7493266953	-0.9645236491	 0.127103
H	-0.3777466051	 1.9602307062	 0.733730261	 0.115352
H	-1.3776441303	-0.1840421417	 1.2579250786	 0.217829
H	 0.8031466805	-0.5125758172	 2.0979869827	 0.08584
H	 2.3653394458	-1.7823414376	 0.3027049895	 0.095825
H	 0.9102152024	-2.8188300257	 0.2101067482	 0.101444
H	 0.275589192	-2.501232568	-2.4899388273	 0.095939
H	-1.0453690055	-1.3453679536	-2.2284464787	 0.105001
H	 1.2046216106	-0.8621232559	-4.1394417174	 0.094161
H	 0.3078490421	 0.4531386696	-3.3604690747	 0.099533
H	 2.2898812761	 0.6515018018	-1.8213859948	 0.091884
H	 2.7290073377	-1.0307839517	-2.1668187533	 0.097635
109.8347	126.4021	196.5843	205.6942	265.1025	314.6191	391.4723	444.4066	451.9682	542.3372	634.4307	684.6912	745.4022	785.2638	838.8203	858.132	884.0779	901.2802	912.0264	933.2304	956.9178	967.8214	1017.3475	1032.9566	1055.1008	1091.6318	1107.3439	1147.281	1167.0429	1172.5577	1189.3106	1218.5402	1236.0759	1244.1216	1254.5425	1274.8848	1294.6259	1314.9495	1349.2888	1404.3466	1436.4908	1471.443	1475.0888	1482.384	1489.9722	1496.5806	1506.8137	3020.8446	3044.7784	3048.3223	3052.8818	3058.0048	3080.5472	3089.2868	3095.8975	3103.7409	3105.2439	3117.3861	3175.5718	3453.9367
CC12NC1CC21CCC1	C[C@]12N[C@H]1CC12CCC1	
InChI=1S/C8H13N/c1-7-6(9-7)5-8(7)3-2-4-8/h6,9H,2-5H2,1H3	InChI=1S/C8H13N/c1-7-6(9-7)5-8(7)3-2-4-8/h6,9H,2-5H2,1H3/t6-,7-/m0/s1
