17
gdb 61488	3.33598	0.85916	0.7099	2.7355	77.14	-0.2539	0.0147	0.2687	1524.9894	0.131965	-421.742793	-421.732806	-421.731862	-421.777855	36.77	
O	 0.3024980263	 1.514721806	 0.1402324161	-0.437242
C	 0.1773325379	 0.1037080197	 0.0924155068	-0.069831
C	 0.7419496459	-0.4895715166	-1.2186786448	-0.221936
C	-0.0816903541	-0.0841852725	-2.4564065305	-0.077146
O	-0.1670686281	 1.3438621908	-2.6103075233	-0.420592
C	 0.4361523121	-0.7119567525	-3.6712913861	 0.284829
C	 0.9050873009	-1.2046032905	-4.6621866168	-0.41687
C	 0.8696734158	-0.4677349798	 1.2481223613	 0.338478
C	 1.4407071126	-0.9692132178	 2.1781325905	-0.436002
H	-0.025946281	 1.8351301023	-0.7128745734	 0.289841
H	-0.8869899959	-0.1891756903	 0.1607745408	 0.091431
H	 1.780003883	-0.161400706	-1.3393020482	 0.119875
H	 0.747423259	-1.5819642612	-1.1509092679	 0.127404
H	-1.1219980065	-0.3983098515	-2.3038722318	 0.128275
H	 0.6733784758	 1.6460990823	-2.9752652012	 0.295754
H	 1.3021214474	-1.6460883945	-5.5432228052	 0.206802
H	 1.939628889	-1.4005679178	 3.0104868535	 0.196931
61.1521	98.1588	109.4661	178.2008	234.9359	249.1116	287.6802	307.4532	348.039	441.6769	483.4525	566.2022	571.2809	596.4811	606.6763	627.7285	637.7987	669.4492	683.1274	852.2279	870.0074	976.714	998.0476	1048.338	1069.2214	1112.5078	1194.194	1256.7713	1289.2767	1320.87	1348.5714	1368.6574	1415.5301	1460.7729	1477.8123	2236.2507	2244.2859	2924.4302	3034.8504	3052.6427	3103.3749	3500.6382	3504.5507	3710.655	3796.8024
OC(CC(O)C#C)C#C	O[C@@H](C[C@@H](O)C#C)C#C	
InChI=1S/C7H8O2/c1-3-6(8)5-7(9)4-2/h1-2,6-9H,5H2	InChI=1S/C7H8O2/c1-3-6(8)5-7(9)4-2/h1-2,6-9H,5H2/t6-,7+
