21
gdb 88972	3.2416	0.92434	0.86478	2.631	78.52	-0.2481	0.0721	0.3202	1429.5351	0.180798	-424.186694	-424.177077	-424.176133	-424.221653	36.711	
O	-0.2145424822	 1.3980718414	 0.3927978901	-0.415485
C	-0.1231304807	 0.0131890553	 0.2155572018	 0.086162
C	-0.8279439402	-0.9060548834	 1.181043846	-0.328876
C	-1.3687440468	-0.69922913	-0.225651583	-0.035469
C	-2.6598759519	 0.0617223342	-0.4641092041	-0.275529
C	-3.9022162853	-0.7461736945	-0.1339403211	 0.431173
O	-3.9753404929	-1.9942194158	-0.7813543501	-0.473974
C	-4.5448180922	-0.6460923627	 1.2293800588	-0.316463
C	-5.2236845066	-0.0587035949	 0.0045265917	-0.303401
H	 0.3098267694	 1.6326394461	 1.1651502728	 0.288529
H	 0.8222091982	-0.3251621216	-0.2087200955	 0.085773
H	-0.366001691	-1.8522709066	 1.4425624857	 0.107578
H	-1.3741816822	-0.4287617251	 1.9879363493	 0.115803
H	-1.2009664638	-1.5184487378	-0.9196528876	 0.090354
H	-2.6527451419	 0.9859652432	 0.1202686826	 0.109388
H	-2.7029181761	 0.3559475368	-1.5207974081	 0.104757
H	-3.3359638334	-2.5759472151	-0.3557540962	 0.282004
H	-4.971082739	-1.5540945828	 1.6414301587	 0.109568
H	-4.1236095699	 0.0341891789	 1.9618954797	 0.106547
H	-5.257963289	 1.0203125608	-0.1011019421	 0.110989
H	-6.0864291027	-0.5857067464	-0.3857102295	 0.120576
39.0254	83.5331	127.4414	210.6558	273.5838	296.3826	323.2968	338.01	368.1011	428.7593	445.5989	511.1484	550.5415	747.2679	766.8388	780.1431	834.4147	867.2112	889.945	922.0739	935.0643	936.3869	981.8863	998.7501	1040.4619	1045.1195	1063.3497	1078.5195	1123.0613	1138.0399	1184.6009	1189.7485	1222.445	1238.8342	1284.9613	1298.8083	1306.426	1334.9056	1374.6868	1406.4498	1425.1569	1451.9672	1476.9922	1490.696	1500.2465	3026.5935	3094.7063	3096.1332	3128.3165	3130.2943	3137.7393	3142.3255	3214.8973	3217.8629	3231.4671	3798.2464	3810.9781
OC1CC1CC1(O)CC1	O[C@H]1C[C@H]1CC1(O)CC1	
InChI=1S/C7H12O2/c8-6-3-5(6)4-7(9)1-2-7/h5-6,8-9H,1-4H2	InChI=1S/C7H12O2/c8-6-3-5(6)4-7(9)1-2-7/h5-6,8-9H,1-4H2/t5-,6-/m0/s1
