19
gdb 115431	4.99347	0.84522	0.7694	2.0572	77.94	-0.2533	0.0442	0.2975	1464.1687	0.158935	-422.993752	-422.984635	-422.983691	-423.028532	33.747	
O	 0.6719446077	 0.8289199352	 0.9615697446	-0.42312
C	 0.2264870241	-0.2986016279	 0.2411328575	-0.058784
C	-1.244560444	-0.1723216269	-0.1442186193	 0.10279
C	-1.8547527143	-1.4549006441	-0.7499187866	-0.273205
C	-2.7506933697	-2.0047021793	 0.391108651	-0.177466
C	-3.141124855	-0.6957580024	 1.1080200769	-0.080923
O	-1.9678810523	 0.0946933284	 1.0725868087	-0.283839
C	-3.8760072093	-2.8107758708	-0.0487922344	 0.301452
C	-4.8183398571	-3.4611648417	-0.4149882843	-0.445019
H	 0.020026863	 0.9686798821	 1.6591964073	 0.292983
H	 0.843216532	-0.3708139885	-0.6616088597	 0.107036
H	 0.3637010648	-1.2304554551	 0.8171847749	 0.079036
H	-1.3674110722	 0.686832056	-0.8169191112	 0.083604
H	-2.4683709012	-1.2266359168	-1.6242172369	 0.121731
H	-1.092274052	-2.1761456686	-1.0550101932	 0.118836
H	-2.1296022641	-2.5911580668	 1.0788736038	 0.113045
H	-3.9727773995	-0.208462347	 0.5768786359	 0.103195
H	-3.4288936732	-0.8414142999	 2.1520294893	 0.120711
H	-5.6477986876	-4.0419454559	-0.7348092042	 0.197938
28.4499	113.4971	136.7083	153.8626	226.1132	277.9558	364.1522	458.4443	463.0606	507.227	531.6377	545.5811	634.2697	638.0621	702.3431	814.1566	874.7625	888.9362	981.2402	1002.8611	1042.1383	1061.809	1074.9998	1088.2157	1110.0324	1134.4025	1188.9064	1239.2238	1251.5036	1280.9817	1299.9459	1326.0802	1332.3308	1356.3635	1390.0288	1403.4936	1441.0002	1494.6777	1498.1249	1518.698	2239.0446	2954.0035	2992.7072	3016.3362	3034.9288	3066.7322	3072.1599	3101.3603	3117.0769	3504.252	3789.5586
OCC1CC(CO1)C#C	OC[C@H]1C[C@@H](CO1)C#C	
InChI=1S/C7H10O2/c1-2-6-3-7(4-8)9-5-6/h1,6-8H,3-5H2	InChI=1S/C7H10O2/c1-2-6-3-7(4-8)9-5-6/h1,6-8H,3-5H2/t6-,7+/m0/s1
