19
gdb 90788	3.78227	1.3122	1.21195	1.5419	73.71	-0.2471	0.0754	0.3225	1065.0947	0.1603	-423.001383	-422.993648	-422.992704	-423.033114	31.587	
O	 0.0681932217	 1.421881746	-0.0260865016	-0.44168
C	 0.042037767	 0.0013847052	-0.0253179588	 0.152419
C	 0.7010869265	-0.6017061356	 1.2482084061	-0.277193
C	-0.4866364217	-0.9588517521	 2.1399472516	-0.11924
C	-1.7938867996	-0.4780929577	 1.5311585511	-0.167749
C	-1.3945314173	-0.5354637483	 0.0273949241	-0.066046
C	-1.4256975002	-2.0999190938	 0.1108963062	-0.320333
C	-1.5124134296	-1.9586778047	 1.6301581518	 0.406907
O	-2.1376002013	-2.8587816486	 2.474057858	-0.468391
H	-0.4195044344	 1.7181068633	 0.7515020084	 0.279727
H	 0.5615593445	-0.294227465	-0.9416651949	 0.083248
H	 1.3224854846	-1.4727627351	 1.0128739172	 0.097187
H	 1.3529715033	 0.1472106919	 1.7072545939	 0.105057
H	-0.3960410351	-0.9295986733	 3.2202933074	 0.086225
H	-2.5418121912	 0.1308520712	 2.020515476	 0.092785
H	-2.0561269153	-0.0786345595	-0.7071584272	 0.076978
H	-2.3604605939	-2.4980416963	-0.29080824	 0.110924
H	-0.5823640334	-2.6522922141	-0.321683429	 0.085339
H	-1.4854837046	-3.5043338834	 2.7681738794	 0.283837
119.9211	208.1665	276.4124	290.4507	324.2995	353.3271	421.5881	430.592	469.3118	619.7759	681.645	737.7743	742.5739	825.9036	851.3191	863.7374	914.4152	927.6388	950.1492	969.9867	984.3182	1010.8496	1025.0651	1071.4817	1084.5103	1114.8918	1174.5054	1181.6207	1191.5054	1222.4235	1237.9732	1260.9072	1284.9061	1291.2367	1310.0415	1323.8255	1328.7486	1426.4674	1443.5419	1484.9328	1504.6688	3026.3544	3041.5129	3072.8055	3089.8749	3103.7252	3126.3212	3177.0332	3207.0564	3787.8463	3793.691
OC1CC2C3C1CC23O	O[C@H]1C[C@H]2[C@H]3[C@@H]1C[C@@]23O	
InChI=1S/C7H10O2/c8-5-1-4-6-3(5)2-7(4,6)9/h3-6,8-9H,1-2H2	InChI=1S/C7H10O2/c8-5-1-4-6-3(5)2-7(4,6)9/h3-6,8-9H,1-2H2/t3-,4+,5+,6-,7-/m1/s1
