16
gdb 43649	3.54742	1.06292	0.85625	4.071	77.38	-0.2455	-0.0328	0.2127	1293.1172	0.124074	-400.762426	-400.754057	-400.753113	-400.796024	31.132	
O	-0.0559503617	-0.0700772542	-0.0477330977	-0.381745
C	-0.0048678887	 1.1403658501	-0.0212339453	 0.401994
N	-1.0742646967	 2.0117395869	 0.0064919621	-0.322892
C	-0.6897962407	 3.4016026794	 0.052035795	-0.023445
C	-1.2356247753	 4.1403646629	 1.3025889713	-0.354542
C	-2.6922508448	 4.155221321	 1.3324832406	 0.285321
C	-3.8941325482	 4.1366140794	 1.3203849746	-0.430058
C	 0.8174152132	 3.303594619	 0.0334552538	-0.083419
C	 1.2017165051	 2.0280262555	-0.0085013703	-0.19636
H	-2.0298209832	 1.6988207795	 0.0434421775	 0.261107
H	-1.0474546756	 3.9425980213	-0.8371535052	 0.112092
H	-0.8435591765	 3.6472510122	 2.1996120903	 0.145
H	-0.849698794	 5.1673885451	 1.303314134	 0.135065
H	-4.9561879741	 4.1358966804	 1.3293661138	 0.204065
H	 1.4463874121	 4.1846413519	 0.0547158566	 0.120511
H	 2.2058363493	 1.6293322995	-0.0311550009	 0.127306
60.1906	94.3928	124.1804	238.0522	320.9859	357.8729	427.0626	444.3225	483.7047	552.331	632.0187	657.0631	672.1371	699.6544	779.2046	830.2917	889.3876	930.1735	959.5559	974.2355	990.6885	1045.0994	1084.3402	1129.4104	1214.503	1225.2237	1267.1632	1327.6898	1344.8104	1377.4543	1415.1577	1464.6818	1655.2211	1825.894	2238.2255	2991.9952	3029.3824	3072.0167	3212.8757	3250.3006	3504.4552	3668.6145
O=C1NC(CC#C)C=C1	O=C1N[C@@H](CC#C)C=C1	
InChI=1S/C7H7NO/c1-2-3-6-4-5-7(9)8-6/h1,4-6H,3H2,(H,8,9)	InChI=1S/C7H7NO/c1-2-3-6-4-5-7(9)8-6/h1,4-6H,3H2,(H,8,9)/t6-/m0/s1
