13
gdb 11168	4.05	1.61427	1.41383	3.6249	59.78	-0.2557	0.0009	0.2566	869.2326	0.097832	-394.806673	-394.799852	-394.798908	-394.838091	24.75	
N	-0.2323698422	 1.1288058491	 0.3866276221	-0.579055
C	-0.0679512871	-0.0722901197	 0.0450871331	 0.471611
N	-0.9819457779	-0.8242680607	-0.6905867079	-0.319887
C	-0.6706730815	-2.2352178355	-0.5706416599	-0.148214
C	 0.8546513743	-2.1320219365	-0.3168054709	-0.09394
O	 1.0227744758	-0.8601392096	 0.3057136893	-0.236771
C	-1.3897951061	-2.9133303294	 0.5268589421	 0.27257
N	-1.9721391258	-3.4411316381	 1.3739245602	-0.305133
H	 0.5872348373	 1.4835379373	 0.8731509345	 0.233845
H	-1.941315473	-0.5149266475	-0.6485790948	 0.275068
H	-0.8792221463	-2.7767435109	-1.4982352385	 0.145445
H	 1.2368875186	-2.9083446312	 0.3462596055	 0.15073
H	 1.393162544	-2.1543969173	-1.2702178247	 0.133731
86.3519	142.317	213.9846	277.4192	440.9382	470.6864	544.2597	587.2123	715.6552	725.1621	796.7508	798.7767	835.5887	916.704	984.5981	1011.3415	1073.8707	1109.5895	1132.8513	1233.8109	1241.0649	1307.4818	1368.1763	1403.8068	1423.9122	1513.4249	1803.2788	2354.573	3050.3585	3069.4896	3137.9364	3537.1525	3634.9277
N=C1NC(CO1)C#N	[NH][C]1N[C@@H](CO1)C#N	
InChI=1S/C4H5N3O/c5-1-3-2-8-4(6)7-3/h3H,2H2,(H2,6,7)	InChI=1S/C4H5N3O/c5-1-3-2-8-4(6)7-3/h3H,2H2,(H2,6,7)/t3-/m1/s1
