20
gdb 37447	2.46186	1.91724	1.90295	1.63	76.05	-0.2357	0.0716	0.3073	896.9609	0.176081	-403.134148	-403.127541	-403.126596	-403.164667	28.321	
C	-0.0456845857	 1.5616161708	 0.0356763121	-0.202781
C	 1.4051277772	 2.1250980894	 0.022101005	-0.208025
C	 2.3850793444	 0.9489132532	-0.0662261158	 0.099721
O	 2.2055316923	 0.0914408729	 1.0757863316	-0.284542
C	 0.8856489771	-0.4608079683	 1.1541273783	-0.053989
C	 0.0171742372	 0.023645176	-0.0252651189	-0.059456
C	 0.7496433283	-0.4319564434	-1.2854783914	-0.023718
N	 1.1186138267	 0.6080692814	-2.2659379828	-0.345978
C	 2.1315893796	 0.1056165079	-1.3123049964	-0.044302
H	-0.570293572	 1.8570709624	 0.9501673906	 0.088199
H	-0.6143104481	 1.9438979872	-0.813435163	 0.112621
H	 1.5550577731	 2.7982313435	-0.8247897029	 0.111627
H	 1.6240966344	 2.6780304793	 0.939973578	 0.095144
H	 3.4223391974	 1.285723744	 0.0005887305	 0.069797
H	 0.965609374	-1.5572842991	 1.1577533099	 0.088772
H	 0.4342567208	-0.1560996429	 2.1088880176	 0.092218
H	-0.9828496313	-0.4143626615	 0.0488580007	 0.062809
H	 0.5557658226	-1.4383745829	-1.6458699754	 0.084199
H	 1.2714733741	 0.1732396817	-3.1721248102	 0.231247
H	 2.9493742077	-0.5017475216	-1.6874660176	 0.086439
182.7376	293.7802	313.1164	339.501	390.633	520.3685	548.0565	584.8823	668.1336	773.4653	801.8297	815.463	863.8194	879.2774	889.4304	904.4479	924.9582	948.7493	983.2685	1004.8277	1033.7394	1052.7381	1094.6755	1099.6502	1117.6623	1147.2404	1149.5072	1201.2505	1223.2906	1252.755	1263.8437	1275.1169	1320.1605	1337.3641	1345.1507	1351.2443	1381.4405	1389.299	1405.1568	1440.5173	1468.3917	1494.1833	1524.5495	2990.1624	3021.097	3045.1102	3058.4446	3063.558	3081.4046	3102.7367	3120.7341	3142.6312	3158.2508	3506.807
C1CC2OCC1C1NC21	C1C[C@H]2OC[C@@H]1[C@H]1N[C@@H]21	
InChI=1S/C7H11NO/c1-2-5-7-6(8-7)4(1)3-9-5/h4-8H,1-3H2	InChI=1S/C7H11NO/c1-2-5-7-6(8-7)4(1)3-9-5/h4-8H,1-3H2/t4-,5-,6-,7+/m1/s1
