19
gdb 56318	5.58767	0.51304	0.48646	5.9204	74.71	-0.2565	-0.0211	0.2354	2180.7545	0.155316	-460.20887	-460.198148	-460.197204	-460.247771	35.355	
C	 0.0007563175	 1.394949286	-0.1657879628	-0.473835
C	 0.0222171395	-0.1226757121	-0.14262166	 0.379249
O	 1.0346532886	-0.7545630218	-0.3333866934	-0.282114
C	-1.3124183778	-0.8105157302	 0.1359533027	-0.310137
C	-1.2008379424	-2.3322875889	 0.2200148188	-0.181424
C	-2.5530108335	-2.9908376427	 0.4633160861	-0.096451
O	-2.4027531495	-4.4054076412	 0.6403525594	-0.173124
C	-2.7585644555	-5.2114214258	-0.376498843	 0.172541
O	-2.6394417755	-6.3983122895	-0.3359235711	-0.272458
H	 0.9881291562	 1.775134884	-0.4294603334	 0.14777
H	-0.7420498376	 1.7612888106	-0.8829866494	 0.137767
H	-0.2894753421	 1.7831924589	 0.8172966585	 0.141745
H	-1.7289726909	-0.3895935432	 1.0619738926	 0.122872
H	-2.0143769603	-0.5061839515	-0.6544289745	 0.122789
H	-0.7605716874	-2.7210013845	-0.7038466638	 0.125021
H	-0.5141457614	-2.6119836782	 1.0245741427	 0.133911
H	-3.0170872145	-2.6183776961	 1.3821067522	 0.124354
H	-3.2460904578	-2.7905973276	-0.3655621336	 0.108235
H	-3.1772666356	-4.6535756861	-1.2384394178	 0.07329
22.727	34.3494	74.0983	91.1129	114.6807	122.8827	167.7444	273.9854	318.0687	383.6177	456.6224	477.8102	596.6153	672.7399	731.2736	819.8001	827.6733	940.5923	968.2851	1034.5993	1046.5462	1061.4501	1084.7193	1122.5421	1159.6553	1177.3	1248.9481	1287.4019	1311.216	1331.5647	1379.5051	1388.3772	1411.9962	1435.3088	1451.7787	1465.4764	1477.3026	1488.068	1509.1364	1815.8	1868.8987	2933.1149	3007.379	3013.3196	3036.317	3037.6355	3060.3872	3076.5188	3096.8218	3108.3542	3153.8873
CC(=O)CCCOC=O	CC(=O)CCCOC=O	
InChI=1S/C6H10O3/c1-6(8)3-2-4-9-5-7/h5H,2-4H2,1H3	InChI=1S/C6H10O3/c1-6(8)3-2-4-9-5-7/h5H,2-4H2,1H3
