18
gdb 56515	2.60897	1.23564	1.05467	5.1286	77.74	-0.2829	0.009	0.2919	1195.9655	0.143759	-401.927245	-401.91682	-401.915876	-401.962036	37.972	
C	-0.0900208479	 1.5751868172	 0.0967285852	-0.427616
C	-0.0092356333	 0.0363667951	 0.0452690507	 0.062594
C	 0.7199770713	-0.5214672585	 1.2855269289	-0.419169
C	-1.3741470897	-0.5147372716	 0.0155561734	 0.277378
N	-2.4437136981	-0.9519392677	 0.0284715241	-0.342315
C	 0.7090536952	-0.4451236557	-1.2676333271	-0.041728
O	 0.0018270789	-0.0465022389	-2.4294049305	-0.416897
C	 2.1065647435	-0.0099407394	-1.3099686903	 0.284439
C	 3.2407417392	 0.3826890885	-1.3812420106	-0.43337
H	 0.9185379622	 1.9977040263	 0.0992961315	 0.134196
H	-0.6401398614	 1.9669292085	-0.7621996056	 0.133695
H	-0.6066953088	 1.900159319	 1.0028378769	 0.138855
H	 0.1852624775	-0.2444604725	 2.1972672748	 0.137981
H	 0.7846078904	-1.6127159492	 1.2485142147	 0.135639
H	 1.7324070138	-0.1137456388	 1.3341768745	 0.137816
H	 0.6761285022	-1.5410235522	-1.2680972593	 0.135034
H	 0.2967015642	 0.8370785526	-2.673650385	 0.293996
H	 4.2495143308	 0.7103151774	-1.4477530062	 0.209473
70.0946	125.5698	172.007	189.1801	212.9605	226.2633	239.6784	267.9201	286.4745	334.3044	356.7805	420.1985	490.3093	573.7142	581.1579	621.0252	646.2164	678.959	750.5634	850.3567	953.4811	957.793	975.2458	1033.2491	1082.6052	1160.8886	1215.2977	1230.6711	1268.7068	1341.5546	1396.75	1416.5731	1420.2981	1484.1738	1487.715	1500.1208	1512.9238	2231.0768	2356.6726	3044.6552	3048.7516	3051.8166	3123.6567	3129.6576	3130.6901	3134.7392	3498.3667	3821.034
CC(C)(C#N)C(O)C#C	CC(C)(C#N)[C@@H](O)C#C	
InChI=1S/C7H9NO/c1-4-6(9)7(2,3)5-8/h1,6,9H,2-3H3	InChI=1S/C7H9NO/c1-4-6(9)7(2,3)5-8/h1,6,9H,2-3H3/t6-/m0/s1
