18
gdb 104246	3.07415	1.14113	1.01196	2.7249	72.23	-0.2693	0.0128	0.2822	1209.3754	0.1464	-439.080558	-439.071268	-439.070324	-439.115102	33.618	
C	-0.3718404824	 1.6244055219	 0.1736094838	-0.438085
C	-0.1302109095	 0.1296945541	 0.1084517505	 0.385158
C	-1.3694623073	-0.6588104483	-0.3241853827	-0.089129
O	-1.7103813742	-0.3437377362	-1.655365805	-0.416184
O	 0.9517109429	-0.1970915205	-0.8182072994	-0.32545
C	 1.7338406516	-0.8257851791	 0.2101831047	-0.077009
C	 0.6558825715	-0.5386719893	 1.2894306784	-0.294616
C	 1.053756425	 0.3021869479	 2.4025932031	 0.292808
N	 1.3755939276	 0.9749843909	 3.2860571579	-0.329583
H	 0.5574682177	 2.1660440788	 0.3624935517	 0.136108
H	-0.7952120599	 1.958116065	-0.776784359	 0.143293
H	-1.0808163832	 1.8635674809	 0.9727068762	 0.13196
H	-1.1731451471	-1.7367648515	-0.2035854787	 0.084038
H	-2.2289650336	-0.3996307707	 0.3035252191	 0.118135
H	-0.912388861	-0.4989406083	-2.1771992083	 0.295822
H	 1.9102652651	-1.8886920967	 0.0142843286	 0.120598
H	 2.6908564741	-0.3192036235	 0.3686425599	 0.131616
H	 0.1660415728	-1.4364042354	 1.6744628492	 0.130521
43.6979	111.014	146.1526	177.7991	216.4013	251.5071	315.4825	342.9731	395.9853	444.1923	485.2256	525.7883	615.3189	688.6076	789.3895	875.6669	889.6814	936.1871	968.2077	1016.098	1055.9954	1065.7404	1089.2161	1135.423	1163.9309	1175.9921	1196.4708	1246.2654	1277.5731	1341.346	1359.0057	1387.6096	1412.836	1430.079	1475.8949	1490.3724	1500.6228	1525.3856	2356.8336	2970.0579	3037.8532	3048.0768	3074.6925	3079.4092	3093.6643	3122.52	3139.2504	3774.6789
CC1(CO)OCC1C#N	C[C@@]1(CO)OC[C@H]1C#N	
InChI=1S/C6H9NO2/c1-6(4-8)5(2-7)3-9-6/h5,8H,3-4H2,1H3	InChI=1S/C6H9NO2/c1-6(4-8)5(2-7)3-9-6/h5,8H,3-4H2,1H3/t5-,6+/m1/s1
