19
gdb 72094	2.92631	1.71055	1.5706	2.2873	73.33	-0.23	0.0868	0.3169	949.7975	0.161701	-423.030602	-423.023432	-423.022488	-423.061868	29.096	
C	-0.0489513374	 1.5182687801	 0.0154096695	-0.494266
C	 0.0048676747	 0.0129348755	 0.0251766435	 0.274635
C	 1.1659426097	-0.7294446071	-0.6237091539	-0.304748
C	 0.9417505696	-2.1478693354	-0.0673237023	 0.169552
O	 0.5469170449	-1.9494941966	 1.2837303355	-0.254083
C	-0.3212596454	-0.8356844139	 1.2310428926	 0.064075
C	-1.2631651373	-0.8362600327	 0.0547274565	-0.164807
C	-1.317900556	-2.1026645135	-0.7826403512	-0.089618
O	-0.0712979554	-2.8086308793	-0.7869000488	-0.265331
H	 0.8774405008	 1.9478759519	 0.4144250494	 0.120042
H	-0.186447557	 1.9090953627	-0.9996286374	 0.12047
H	-0.8787044083	 1.8906149243	 0.6253023137	 0.116237
H	 1.1505957583	-0.7343619549	-1.7168129849	 0.109683
H	 2.122749558	-0.3171906355	-0.2842542142	 0.104598
H	 1.8079987671	-2.8091611071	-0.0789505487	 0.093265
H	-0.5834995124	-0.4524815177	 2.2093975836	 0.100239
H	-2.2075111898	-0.3097905534	 0.1578992736	 0.087681
H	-2.0836870605	-2.7816840316	-0.3855412315	 0.111461
H	-1.5928155035	-1.8685171858	-1.8211483949	 0.100915
143.565	201.6595	222.7179	288.8139	391.036	419.9124	500.3541	550.6802	603.9252	686.2808	711.8698	794.2144	846.6311	873.1557	881.9115	915.8373	954.5165	987.2928	995.7465	1024.1732	1033.8474	1051.4171	1097.7523	1113.8293	1123.1462	1156.0487	1203.0998	1220.1774	1251.5028	1266.3619	1303.3143	1313.1329	1351.134	1371.5133	1412.77	1421.9954	1451.845	1488.2437	1489.7381	1503.1327	1524.7951	2993.7913	3020.8728	3029.826	3044.2632	3080.7064	3093.5972	3100.6925	3126.3701	3152.5556	3192.8207
CC12CC3OC1C2CO3	C[C@@]12C[C@H]3O[C@@H]1[C@@H]2CO3	
InChI=1S/C7H10O2/c1-7-2-5-8-3-4(7)6(7)9-5/h4-6H,2-3H2,1H3	InChI=1S/C7H10O2/c1-7-2-5-8-3-4(7)6(7)9-5/h4-6H,2-3H2,1H3/t4-,5+,6+,7-/m0/s1
