18
gdb 96609	2.77128	1.21909	0.87177	3.2298	83.95	-0.2297	-0.0377	0.192	1325.7723	0.147431	-398.12366	-398.114251	-398.113307	-398.158557	32.6	
C	-0.0205392977	 1.3900060003	-0.094426808	-0.339665
N	 0.0261966442	-0.0545703585	-0.0565947829	-0.298416
C	 0.5154144405	-0.671373155	 0.9472042659	 0.280913
C	 1.1133118191	-0.021180329	 2.1108106556	 0.244278
N	 1.5973287627	 0.5122264945	 3.0156024789	-0.345117
N	 0.4949618033	-2.0355310995	 1.0377482353	-0.101159
C	 0.2540430999	-2.948266019	-0.0857373504	-0.160796
C	 1.0621789125	-4.0334273033	 0.6788260281	-0.239868
C	 1.4467350445	-2.9368219685	 1.7121010426	-0.174819
H	 0.4844034503	 1.7416263335	-1.0016519799	 0.131436
H	-1.0646079852	 1.717411971	-0.1697662855	 0.132347
H	 0.4357970889	 1.8877251132	 0.7726059763	 0.1282
H	-0.8036812484	-3.1534849667	-0.2727514305	 0.123788
H	 0.7118278868	-2.5970313911	-1.0177161548	 0.123476
H	 0.4452220968	-4.8297250766	 1.0963033777	 0.122763
H	 1.8953800907	-4.4739924102	 0.1321403047	 0.120899
H	 2.4891089202	-2.6033195692	 1.6481645599	 0.123333
H	 1.2040507908	-3.140057946	 2.7590515071	 0.128406
84.3572	86.5736	125.8587	133.8246	165.4888	175.3875	237.6587	350.3424	364.4806	466.0221	519.9202	683.0693	719.2873	757.6296	842.647	871.0639	938.9952	942.3582	1018.1287	1066.5344	1129.8222	1140.7038	1142.8482	1167.0563	1187.102	1202.8587	1234.3965	1271.4073	1299.7081	1337.3688	1412.2347	1447.3046	1482.7696	1491.7016	1504.1234	1510.234	1532.6418	1702.7228	2341.6936	2997.8413	3031.0105	3039.9969	3065.6212	3072.3985	3083.796	3087.2215	3096.8349	3151.8195
CN=C(C#N)N1CCC1	CN=C(C#N)N1CCC1	
InChI=1S/C6H9N3/c1-8-6(5-7)9-3-2-4-9/h2-4H2,1H3	InChI=1S/C6H9N3/c1-8-6(5-7)9-3-2-4-9/h2-4H2,1H3
