21
gdb 100584	3.88252	0.78947	0.72305	4.442	81.78	-0.2488	-0.0198	0.229	1632.4927	0.181599	-420.450553	-420.440086	-420.439142	-420.486792	37.214	
C	-0.0853512968	 1.5147397909	 0.283390111	-0.398974
C	 0.0026622801	-0.0134130311	 0.2344901067	-0.159848
C	 0.6536641419	-0.5595793465	-1.0465481793	-0.056113
C	 2.1391195632	-0.1603467565	-1.1757400305	-0.391928
C	 0.5296922741	-2.0748981867	-1.1258567719	 0.369949
N	 0.3557291687	-2.7925950549	-0.0967325142	-0.500692
N	 0.6621419776	-2.5628505593	-2.453531774	-0.337728
C	 0.6503488534	-3.8722815445	-2.8616112782	 0.165989
O	 0.529026315	-4.8397875085	-2.144066504	-0.299735
H	 0.9012536955	 1.9883183889	 0.3000471678	 0.116806
H	-0.6308394479	 1.9134790741	-0.5802122109	 0.108727
H	-0.6152112165	 1.8384919546	 1.1843242388	 0.118083
H	 0.5563688074	-0.3928916868	 1.098875884	 0.121517
H	-1.0012580922	-0.441572041	 0.3195196605	 0.107707
H	 0.1133958106	-0.1386006877	-1.9093626753	 0.070573
H	 2.2532445209	 0.9255837773	-1.2186843627	 0.124662
H	 2.7045257619	-0.5335197463	-0.3160663719	 0.137813
H	 2.59619503	-0.5758289257	-2.0797452331	 0.105773
H	 0.325835326	-3.7825602838	-0.3413796573	 0.251469
H	 0.7649973346	-1.8737222164	-3.1835653357	 0.254446
H	 0.7668601827	-3.9535235	-3.9601091301	 0.091504
49.7644	64.5661	87.6643	155.7226	216.2966	227.1063	254.0051	264.8036	281.6744	321.7824	359.5309	452.2924	557.6347	596.1807	698.0532	754.0259	790.2315	858.6374	922.4158	964.5132	971.4284	987.3096	1009.5857	1025.1948	1050.6929	1113.1391	1141.6061	1184.6316	1197.0043	1276.6367	1297.1967	1345.4325	1351.6274	1403.8744	1407.8289	1416.8559	1440.7198	1479.2887	1494.5708	1497.789	1505.7427	1507.9564	1511.2181	1735.5026	1813.2984	2942.47	2978.4077	3030.6379	3040.1165	3054.8049	3081.6348	3101.9584	3104.3626	3109.5361	3123.4146	3488.8829	3613.3645
CCC(C)C(=N)NC=O	CC[C@@H](C)C(=N)NC=O	
InChI=1S/C6H12N2O/c1-3-5(2)6(7)8-4-9/h4-5H,3H2,1-2H3,(H2,7,8,9)	InChI=1S/C6H12N2O/c1-3-5(2)6(7)8-4-9/h4-5H,3H2,1-2H3,(H2,7,8,9)/t5-/m1/s1
