17
gdb 73661	2.71081	1.59576	1.31696	1.9403	68.4	-0.2483	-0.0309	0.2174	997.7148	0.135985	-458.969465	-458.961639	-458.960695	-459.001715	30.064	
O	 0.3099432909	 1.2889204049	-0.4253546005	-0.475768
C	 0.1057402151	-0.0399519755	-0.0599879099	 0.288142
C	 0.7488140592	-0.9867145656	-1.1086411891	-0.137481
O	-0.0947177343	-2.112672648	-1.2585612416	-0.246345
C	-1.4323256002	-1.6628611509	-1.0623455515	-0.106938
C	-1.3328186172	-0.6981368344	 0.1117623393	-0.099627
C	-0.8600184726	-1.3370089804	 1.4587001996	-0.353377
C	 0.3171495255	-0.3632637322	 1.4169229656	 0.324744
O	 0.9521022235	 0.226065139	 2.249616935	-0.319808
H	 0.5248190146	 1.7775713633	 0.3797077279	 0.297023
H	 0.8172726012	-0.3982727273	-2.0362003591	 0.116492
H	 1.7470328361	-1.3416370314	-0.8407020774	 0.123925
H	-1.8124691741	-1.1461051032	-1.957887758	 0.102738
H	-2.0519490423	-2.543671263	-0.8731069354	 0.116503
H	-2.1510857919	 0.013519867	 0.2129386625	 0.093739
H	-1.5093506181	-1.2490347208	 2.3313649254	 0.132128
H	-0.5508757053	-2.3788129616	 1.3299727774	 0.14391
94.9648	164.6718	231.9473	237.2977	318.9563	331.2997	390.9264	450.4817	502.3501	632.5264	673.6197	705.6105	758.7503	815.4129	861.9539	897.5125	944.2906	1005.6485	1023.4247	1057.7753	1071.4209	1094.4783	1117.3699	1148.2912	1164.019	1205.0377	1215.1507	1269.3091	1280.7578	1310.2321	1351.4666	1383.6825	1394.1874	1438.1715	1499.9819	1514.4888	1861.9839	2982.9119	2996.952	3064.698	3092.1652	3100.4208	3126.1063	3137.5341	3770.3197
OC12COCC1CC2=O	O[C@]12COC[C@H]1CC2=O	
InChI=1S/C6H8O3/c7-5-1-4-2-9-3-6(4,5)8/h4,8H,1-3H2	InChI=1S/C6H8O3/c7-5-1-4-2-9-3-6(4,5)8/h4,8H,1-3H2/t4-,6-/m1/s1
