18
gdb 92306	2.31025	1.92002	1.29912	1.8337	72.37	-0.2614	0.0155	0.2769	1009.4954	0.148882	-439.092563	-439.084723	-439.083779	-439.125282	29.721	
C	 0.1137569601	 1.5430550098	-0.1700925262	-0.402675
C	 0.0368424804	 0.0501738146	 0.0511371956	 0.149504
O	 0.872853055	-0.7097524329	-0.8642483751	-0.311069
C	 1.4261148032	-1.4901764446	 0.2111681048	 0.107146
C	 2.9211392424	-1.265286197	 0.4077466221	-0.113061
O	 3.0482197837	-0.0955565256	 1.232939736	-0.243063
C	 1.8710825416	 0.1981929596	 1.8674628942	 0.42319
N	 1.7491372411	 1.0449001202	 2.7962194622	-0.547186
C	 0.7442496678	-0.6079422908	 1.2723558284	-0.204383
H	 1.1465670631	 1.8966246039	-0.1222585805	 0.133409
H	-0.2940052095	 1.7926846331	-1.1546106808	 0.124921
H	-0.4682038737	 2.0690612413	 0.5927732333	 0.135752
H	-1.0033646872	-0.2945442537	-0.0237254331	 0.083169
H	 1.1536478226	-2.5477206274	 0.1386554513	 0.087003
H	 3.3918585231	-2.1131579941	 0.9204700314	 0.111787
H	 3.4341656207	-1.0806929381	-0.5392062517	 0.132907
H	 2.6540743166	 1.4617855951	 3.022800089	 0.223609
H	 0.101290419	-1.0446143332	 2.0332228289	 0.109041
64.8447	145.5838	162.1406	209.9236	343.6639	365.2616	411.1257	481.9337	577.9051	686.9989	725.7394	777.2122	844.9022	854.4635	895.5503	900.3952	918.8597	950.4571	979.8371	1021.5156	1071.3019	1085.0274	1104.3362	1123.7081	1154.5493	1210.142	1227.3222	1258.5346	1276.4185	1281.4555	1334.5279	1343.7714	1388.7775	1406.7338	1414.7344	1473.3822	1492.8231	1501.7187	1771.534	3008.9282	3030.3361	3043.8221	3061.8226	3109.0878	3116.449	3129.0472	3143.5837	3469.3089
CC1OC2COC(=N)C12	C[C@H]1O[C@H]2CO[C]([NH])[C@@H]12	
InChI=1S/C6H9NO2/c1-3-5-4(9-3)2-8-6(5)7/h3-5,7H,2H2,1H3	InChI=1S/C6H9NO2/c1-3-5-4(9-3)2-8-6(5)7/h3-5,7H,2H2,1H3/t3-,4+,5+/m1/s1
