18
gdb 127109	4.01711	1.10893	0.88414	3.0182	77.25	-0.2192	0.0184	0.2376	1325.0258	0.147023	-435.281931	-435.272409	-435.271465	-435.316741	32.936	
C	-0.0502451397	 1.4307425539	 0.010451409	-0.344094
N	 0.0934091432	-0.0143222577	-0.03670516	-0.18243
C	-0.0254216263	-0.7472600994	 1.2113838034	-0.348583
C	 0.0210699026	-0.6444838609	-1.2270146322	 0.567755
N	-0.0160286669	-0.099467479	-2.4205806856	-0.430702
C	-0.0376520008	-1.206497092	-3.2319691912	 0.371384
C	-0.075347979	-1.1170553704	-4.7192126233	-0.486484
N	-0.0249975224	-2.3603599988	-2.6182260119	-0.19905
O	 0.0097184697	-1.9851410997	-1.241358069	-0.240367
H	 0.6652641801	 1.8466333765	 0.7277035535	 0.127988
H	 0.1474623577	 1.8398643272	-0.9791711686	 0.176416
H	-1.062600475	 1.7243153628	 0.3210850739	 0.125692
H	-1.0532851632	-0.7261200856	 1.6004185757	 0.129217
H	 0.2713452322	-1.7847378089	 1.0641779288	 0.168573
H	 0.6333690946	-0.2938759757	 1.9589184509	 0.131864
H	 0.7998601211	-0.5735591004	-5.0877971774	 0.14358
H	-0.091011249	-2.1152197994	-5.1591334028	 0.145842
H	-0.963434249	-0.5656763724	-5.0424988433	 0.1434
72.4502	94.1853	141.1899	146.7109	160.5842	197.5433	228.8592	340.2658	356.1411	364.9525	542.1181	580.8152	664.8295	723.0137	769.2968	894.2085	950.4578	1001.3445	1048.7944	1070.0828	1075.3961	1093.8856	1132.9631	1179.5675	1234.8804	1287.6072	1370.8836	1406.0986	1444.6198	1449.479	1470.6564	1474.3762	1475.7141	1487.152	1498.2041	1502.4128	1516.0141	1600.4595	1680.8107	3005.098	3010.4315	3050.6447	3073.058	3077.7195	3110.2523	3150.0278	3162.742	3166.4711
CN(C)C1=NC(C)=NO1	CN(C)c1nc(C)no1	
InChI=1S/C5H9N3O/c1-4-6-5(8(2)3)9-7-4/h1-3H3	InChI=1S/C5H9N3O/c1-4-6-5(8(2)3)9-7-4/h1-3H3
