20
gdb 110587	3.09181	1.34459	1.09691	1.5334	79.21	-0.2199	0.0693	0.2892	1176.8332	0.16893	-403.035409	-403.026867	-403.025923	-403.068419	33.029	
C	 0.0656140755	 1.6166057264	 0.0836274592	-0.380735
C	 0.0628514102	 0.08944144	 0.0937479212	-0.124153
N	 0.6553343789	-0.444704651	-1.1346759857	-0.155198
C	-0.2515083863	-0.5046652482	-2.3200109431	-0.07398
C	 0.4999041106	-1.7347116405	-2.8941212179	 0.030693
O	-0.6981832718	-2.5268814841	-3.1254214656	-0.331252
C	-0.9952341929	-1.8188778408	-1.8884776007	 0.02571
C	 0.4890099308	-1.9195208302	-1.3436620589	 0.324707
C	 1.1300516285	-2.9837369404	-0.5091363567	-0.538722
H	 1.0812622606	 1.9945067393	-0.0633684114	 0.12725
H	-0.5601958088	 2.0098241685	-0.724558583	 0.115463
H	-0.3226033207	 2.0119859036	 1.0272292062	 0.112325
H	 0.6693791141	-0.271005478	 0.9335875703	 0.100901
H	-0.9654356305	-0.2800186678	 0.2642512353	 0.077304
H	-0.6363854343	 0.3699662624	-2.8443149919	 0.09062
H	 1.3249915473	-1.7879045773	-3.6027873504	 0.100874
H	-1.9643967469	-1.9972162742	-1.4224858154	 0.096875
H	 0.8957519444	-3.9671415399	-0.9285721731	 0.140751
H	 2.2175076062	-2.8603035213	-0.492251949	 0.133773
H	 0.766397715	-2.9574836864	 0.5233078507	 0.126794
85.0606	162.187	182.3506	220.3008	232.2602	258.1353	323.2269	382.2692	533.8491	583.9589	669.1131	736.1866	764.5323	782.1082	812.2517	819.1641	831.3498	883.0262	911.7266	949.1784	971.9219	1006.8984	1077.6899	1102.7176	1112.5927	1123.8451	1139.1741	1161.3749	1170.225	1177.931	1200.6474	1269.8082	1293.1241	1310.5601	1372.2339	1388.2956	1409.1293	1412.8556	1481.8783	1489.517	1490.4588	1493.1276	1511.2452	2930.6234	3034.7703	3037.8812	3043.5384	3103.3733	3104.6503	3112.3628	3113.2188	3118.9522	3123.1122	3139.6372
CCN1C2C3OC2C13C	CCN1[C@H]2[C@@H]3O[C@H]2[C@]13C	
InChI=1S/C7H11NO/c1-3-8-4-5-7(8,2)6(4)9-5/h4-6H,3H2,1-2H3	InChI=1S/C7H11NO/c1-3-8-4-5-7(8,2)6(4)9-5/h4-6H,3H2,1-2H3/t4-,5-,6+,7+
