21
gdb 69776	3.118	1.35189	1.26347	1.7383	81.53	-0.2516	0.0916	0.3432	1127.5949	0.182359	-387.08791	-387.079495	-387.078551	-387.120244	33.767	
C	-0.1042070344	 1.5149287563	 0.0366789304	-0.485512
C	 0.0348242617	 0.0120800896	-0.005314883	 0.373777
C	-0.7606298487	-0.8410089801	 0.9574897111	-0.337015
C	 0.74388525	-0.7583702007	 1.092860482	-0.108634
C	 1.5041341821	-1.8664039342	 0.4371130628	-0.031628
O	 2.5256744078	-1.406973453	-0.465069537	-0.306659
C	 1.2666380075	-1.8331847182	-1.0165044455	 0.423657
C	 1.3148615463	-3.0328865447	-1.9230866169	-0.484324
C	 0.3620429785	-0.6458602372	-1.3522330302	-0.359986
H	 0.8007538478	 2.003189884	-0.3426690807	 0.122503
H	-0.9476734663	 1.8536124576	-0.5768290239	 0.115553
H	-0.2753233267	 1.8720986762	 1.0573468554	 0.112875
H	-1.3559090736	-0.3281034987	 1.7056882831	 0.109801
H	-1.1973463734	-1.7708645764	 0.6036730156	 0.1044
H	 1.1756623365	-0.2471280049	 1.9470975922	 0.088558
H	 1.7375909316	-2.7864084196	 0.9701368331	 0.087061
H	 1.9973598776	-3.7890050874	-1.5273491939	 0.128549
H	 0.3205717553	-3.4785812456	-2.0346535254	 0.118787
H	 1.6660379309	-2.747994181	-2.9214154011	 0.126622
H	-0.5409534141	-0.9734683959	-1.8819472211	 0.095471
H	 0.8930085136	 0.0504076141	-2.0120919772	 0.106145
124.7502	184.7867	212.4186	222.7429	287.2964	354.2838	378.3935	396.5366	415.3388	466.3186	561.4553	627.937	721.4352	770.8035	815.2472	855.0082	871.0092	908.851	933.8132	954.64	977.1796	1018.5948	1025.3239	1036.8603	1060.151	1074.9169	1102.7166	1125.0558	1147.5052	1215.1701	1220.0388	1268.7207	1283.3451	1318.2425	1327.7426	1398.2752	1412.2765	1420.1115	1450.6302	1478.9618	1486.9475	1489.9538	1493.4861	1498.5468	1502.9482	3020.548	3025.55	3033.2661	3064.5354	3081.4665	3093.199	3096.7264	3117.7692	3122.4491	3126.9437	3162.5424	3204.727
CC12CC1C1OC1(C)C2	C[C@]12C[C@H]1[C@@H]1O[C@]1(C)C2	
InChI=1S/C8H12O/c1-7-3-5(7)6-8(2,4-7)9-6/h5-6H,3-4H2,1-2H3	InChI=1S/C8H12O/c1-7-3-5(7)6-8(2,4-7)9-6/h5-6H,3-4H2,1-2H3/t5-,6-,7+,8+/m0/s1
