18
gdb 93072	2.23676	1.66131	0.99661	2.0195	75.17	-0.2397	0.0001	0.2399	1168.9111	0.150466	-435.322886	-435.314509	-435.313565	-435.356121	31.445	
C	-0.1632133269	 1.499525663	 0.0542161945	-0.416023
C	 0.0594305255	-0.0116238204	-0.0235828534	 0.017883
C	 0.5945481069	-0.4147509228	-1.4074947417	-0.138962
N	 0.6228411615	-1.8290359594	-1.7170392318	-0.251446
C	 0.8398981686	-2.7295480503	-0.8548808447	 0.099737
N	 1.0934390698	-2.6896109858	 0.513955269	-0.354977
C	 1.3219865124	-1.6535412701	 1.4310559009	 0.444386
O	 1.8055794177	-1.9117888038	 2.517836937	-0.399461
N	 0.983781408	-0.3910795627	 1.0420975443	-0.341674
H	 0.7757479809	 2.0390025976	-0.1109197953	 0.131365
H	-0.8799129526	 1.819152307	-0.7059673918	 0.133406
H	-0.5598857713	 1.7900966917	 1.0324393091	 0.124408
H	-0.9062938946	-0.5177033282	 0.1230881081	 0.098291
H	-0.0326825171	 0.0661090873	-2.1678573395	 0.105995
H	 1.6033055097	 0.0048627393	-1.5265431867	 0.11665
H	 0.8382829106	-3.7653591789	-1.2014847392	 0.115315
H	 1.3204402166	-3.5772702361	 0.9382813629	 0.261963
H	 1.1220164042	 0.2722699426	 1.7893385585	 0.253143
80.0038	107.7084	158.8042	230.1494	286.0101	364.5232	391.7948	430.1753	488.6444	529.8184	538.8297	616.8141	650.2064	767.8362	819.368	862.1955	919.0578	943.4381	957.1551	973.686	1039.4707	1084.4565	1133.8273	1171.5311	1212.6774	1267.2828	1329.8853	1358.4958	1376.5984	1407.4723	1412.3688	1456.9427	1467.4579	1479.9448	1487.6542	1496.6587	1504.4901	1771.3943	1805.7537	2991.3813	3011.9727	3037.0154	3048.8907	3103.9987	3104.1264	3125.5246	3616.8047	3626.4733
CC1CN=CNC(=O)N1	C[C@H]1CN=CNC(=O)N1	
InChI=1S/C5H9N3O/c1-4-2-6-3-7-5(9)8-4/h3-4H,2H2,1H3,(H2,6,7,8,9)	InChI=1S/C5H9N3O/c1-4-2-6-3-7-5(9)8-4/h3-4H,2H2,1H3,(H2,6,7,8,9)/t4-/m0/s1
