19
gdb 89994	3.42181	1.24036	1.08848	3.5698	70.74	-0.2446	0.0457	0.2903	1151.8769	0.159194	-460.12947	-460.121124	-460.120179	-460.162763	32.291	
O	 0.4294565534	 0.711736698	-0.9798620395	-0.442616
C	-0.0084029729	-0.3285795496	-0.1583998199	 0.152283
C	 0.2938968699	-0.2448493845	 1.3721656368	-0.351603
C	-1.1824251212	-0.5630298847	 1.6687432998	 0.424852
C	-1.6914708878	-1.8082316454	 2.4149195457	-0.361318
C	-2.5591071639	-0.8093201031	 3.2032161533	-0.075256
O	-1.8917086547	 0.3161466679	 2.5747100657	-0.323111
C	-1.5363485066	-0.3224163304	 0.16975517	 0.009242
O	-2.0677262417	 0.9736419497	-0.0126612506	-0.449463
H	-0.2294880272	 1.4131908729	-0.8664698534	 0.28737
H	 0.3225808696	-1.2753724379	-0.5957268118	 0.080887
H	 1.0433615537	-0.924324225	 1.7853607329	 0.102348
H	 0.5354984513	 0.7789000894	 1.6710234384	 0.117754
H	-2.218773381	-2.5491860723	 1.8113303407	 0.117154
H	-0.9283258482	-2.3053960611	 3.016565165	 0.118962
H	-3.6286975531	-0.8300446361	 2.9652234688	 0.112527
H	-2.4311528254	-0.7912275794	 4.2895763024	 0.116825
H	-2.166635527	-1.0693988969	-0.3289386097	 0.064645
H	-2.3576582472	 1.2648612984	 0.8672016352	 0.29852
52.5081	99.3339	228.7461	268.0981	274.1412	349.4291	391.1398	438.4903	475.8172	547.6473	574.1077	652.513	742.6687	773.0944	832.9254	869.8014	894.0419	910.848	937.5891	974.6906	1008.7822	1044.1977	1108.4534	1131.2337	1147.1318	1162.4715	1181.9387	1191.1908	1206.1961	1226.2724	1258.4995	1263.408	1299.6455	1341.537	1346.0134	1352.4805	1403.9919	1450.1451	1462.0914	1488.703	1528.5524	3019.55	3034.1146	3060.9801	3065.3415	3076.3209	3086.1211	3120.8212	3132.3021	3674.466	3717.6752
OC1CC2(CCO2)C1O	O[C@H]1C[C@]2(CCO2)[C@H]1O	
InChI=1S/C6H10O3/c7-4-3-6(5(4)8)1-2-9-6/h4-5,7-8H,1-3H2	InChI=1S/C6H10O3/c7-4-3-6(5(4)8)1-2-9-6/h4-5,7-8H,1-3H2/t4-,5-,6+/m0/s1
