16
gdb 33023	5.35642	0.94543	0.81178	1.5977	72.82	-0.2642	-0.0497	0.2145	1371.8232	0.125397	-434.098074	-434.089885	-434.088941	-434.132151	28.272	
C	 0.4014782264	 1.4249819332	-0.0419273308	-0.226803
O	 0.6142957984	 0.0336335329	-0.1049157078	-0.214474
C	 0.1763814749	-0.626698521	 1.0432123654	-0.131326
C	 0.4161703248	-2.1133888276	 0.9490897859	 0.329366
N	 0.020004155	-2.8195047178	 2.0178357632	-0.276846
C	 0.2339523054	-4.1272004331	 1.9280436905	 0.0801
N	 0.7914466774	-4.763258857	 0.8942256661	-0.240076
C	 1.1414447182	-3.9533267497	-0.1037521778	 0.079665
N	 0.9831958738	-2.629565229	-0.1400705181	-0.25231
H	 0.9434659831	 1.8836858011	 0.800206236	 0.107324
H	 0.7728786928	 1.8503734665	-0.9765228444	 0.134695
H	-0.6671190472	 1.6707138735	 0.0632355335	 0.107327
H	 0.6885941841	-0.260763695	 1.9508956261	 0.118896
H	-0.9023552457	-0.4714155038	 1.2230548331	 0.118908
H	-0.0731938134	-4.7375717552	 2.7748750882	 0.132251
H	 1.6015014219	-4.4147452381	-0.9752682291	 0.133302
43.1645	75.0932	148.0134	181.0247	233.5294	341.7918	352.2875	412.5964	497.7596	663.2745	703.6285	787.4806	866.2979	976.8552	1006.063	1021.6611	1044.355	1049.2477	1167.7466	1181.5007	1184.7296	1192.8928	1235.1387	1253.762	1282.9891	1321.8077	1410.7325	1424.2816	1467.768	1475.4607	1486.7631	1494.2622	1517.3867	1583.7615	1609.3306	2948.6565	2967.7224	2971.9584	3015.868	3123.1658	3158.7134	3162.4805
COCC1=NC=NC=N1	COCc1ncncn1	
InChI=1S/C5H7N3O/c1-9-2-5-7-3-6-4-8-5/h3-4H,2H2,1H3	InChI=1S/C5H7N3O/c1-9-2-5-7-3-6-4-8-5/h3-4H,2H2,1H3
