16
gdb 34560	3.76116	1.28894	1.22568	3.7073	75.94	-0.2604	-0.055	0.2055	1036.6611	0.127423	-400.764292	-400.757561	-400.756617	-400.795503	26.747	
N	 0.0675983377	-1.1272225417	 0.0888316657	-0.340311
C	-0.0091242518	 0.0278353053	 0.0337865719	 0.179524
C	-0.0579249117	 1.4403410986	-0.0514948578	 0.234903
C	-1.1438672047	 2.2360768267	-0.0400560154	-0.169972
C	-0.6133682246	 3.6597009538	 0.0017265819	 0.063998
C	 0.645158079	 3.5380062772	-0.8694672903	-0.231234
C	 1.1697902172	 2.350879973	-0.0207059498	-0.164992
C	 1.1273968663	 3.0291713513	 1.380357924	-0.075775
O	-0.0500139792	 3.8471941447	 1.3305128623	-0.273318
H	-2.1773489411	 1.9317642051	 0.0537748099	 0.132585
H	-1.3171284181	 4.4674642065	-0.1853407605	 0.090295
H	 0.4422684272	 3.2641187118	-1.9054853416	 0.11689
H	 1.2765944066	 4.4286389178	-0.8215066047	 0.113888
H	 2.1208261622	 1.8958382032	-0.2889365017	 0.09604
H	 1.0508415815	 2.3066883568	 2.1996595171	 0.11682
H	 2.0074328335	 3.66290521	 1.5423655691	 0.110659
116.7708	162.3188	297.3699	386.4415	455.9623	471.0438	539.6931	567.2567	639.8735	730.3758	805.6528	851.187	859.4057	878.2034	890.5054	946.9974	952.5881	962.7174	990.8222	1031.1423	1068.8698	1125.4091	1144.2135	1198.2428	1223.7295	1247.9011	1275.6123	1280.6737	1294.9961	1330.6281	1363.5611	1488.8586	1525.4538	1637.8973	2335.4479	3028.0896	3074.491	3076.8988	3141.1584	3147.1949	3153.988	3232.7507
N#CC1=CC2CC1CO2	N#CC1=C[C@@H]2C[C@H]1CO2	
InChI=1S/C7H7NO/c8-3-5-1-7-2-6(5)4-9-7/h1,6-7H,2,4H2	InChI=1S/C7H7NO/c8-3-5-1-7-2-6(5)4-9-7/h1,6-7H,2,4H2/t6-,7+/m0/s1
