20
gdb 88117	2.5873	1.44322	1.09375	3.571	80.12	-0.2372	0.0345	0.2718	1174.4459	0.172567	-403.194926	-403.186256	-403.185311	-403.228257	32.92	
C	 0.0266527527	 1.4693960888	-0.3260919653	-0.415607
C	 0.1163649505	-0.0198899027	-0.0841771622	-0.032125
C	 1.4420223399	-0.7164453797	 0.0126428357	-0.332732
C	 0.5730034669	-0.564145939	 1.2494141118	 0.221792
C	 0.945481704	 0.2729559912	 2.4654974914	-0.316058
C	 0.9235598876	-0.7480163678	 3.6312484708	-0.170121
N	 0.0400730122	-1.7903190616	 3.1319509231	-0.328756
C	-0.0858114142	-1.8150579035	 1.7662843899	 0.376971
O	-0.6238716191	-2.6846236544	 1.1107958067	-0.399574
H	 0.8529985769	 2.0068992964	 0.1502737529	 0.112682
H	 0.0643393897	 1.6903304963	-1.3981509179	 0.122821
H	-0.9097811355	 1.8830426417	 0.0643261344	 0.12041
H	-0.6738328505	-0.614277376	-0.5361839834	 0.109415
H	 1.5305516364	-1.7128598386	-0.40599724	 0.13061
H	 2.3428056675	-0.1110519812	-0.0291705289	 0.106664
H	 1.916688401	 0.7653613392	 2.3822416045	 0.109291
H	 0.1939531927	 1.049899045	 2.6429403893	 0.115057
H	 1.9306344636	-1.1375101085	 3.8378266713	 0.107724
H	 0.5392334434	-0.3096711114	 4.5573218412	 0.112927
H	-0.1887795953	-2.6139921641	 3.6657784646	 0.248612
81.2422	149.1846	167.3476	184.3506	196.3683	289.7591	354.7641	416.9867	502.2409	527.1585	570.8333	696.0454	708.6137	732.8053	809.6164	871.2599	897.3861	917.9278	934.7174	960.13	1027.7822	1042.9815	1073.4669	1079.0323	1117.7728	1133.3903	1183.7855	1192.2988	1218.294	1237.8378	1291.3145	1315.6944	1329.0231	1369.9819	1407.8683	1428.0636	1445.735	1480.1963	1489.3143	1496.6927	1505.5497	1535.2969	1816.8206	2998.3037	3028.9298	3044.7064	3069.6877	3091.2845	3097.1176	3103.5996	3123.4121	3147.337	3218.1696	3638.482
CC1CC11CCNC1=O	C[C@H]1C[C@]21CCNC2=O	
InChI=1S/C7H11NO/c1-5-4-7(5)2-3-8-6(7)9/h5H,2-4H2,1H3,(H,8,9)	InChI=1S/C7H11NO/c1-5-4-7(5)2-3-8-6(7)9/h5H,2-4H2,1H3,(H,8,9)/t5-,7-/m0/s1
