23
gdb 106615	2.25094	1.54088	1.14421	1.3883	85.16	-0.2607	0.0751	0.3358	1188.1528	0.207088	-388.281506	-388.272586	-388.271642	-388.314662	35.306	
C	-0.1650501066	 1.5408382703	-0.0249351438	-0.437502
C	 0.006257361	 0.0262056209	 0.0142452966	-0.004491
C	 1.1390152367	-0.5936208059	-0.8678705259	-0.022479
C	 2.1180523786	-0.2754987402	 0.2977973252	-0.267859
C	 0.8660652759	-0.5974750933	 1.1707029609	 0.378447
C	 0.7385098837	-0.1352496871	 2.5985934659	-0.204788
O	 1.7407088195	-0.7922915966	 3.3676202833	-0.424903
C	 0.6880129307	-2.106132567	 0.8882023795	-0.250849
C	 0.8975901664	-2.1017883778	-0.663692427	-0.224154
H	 0.7756363514	 2.0844684137	 0.0976242714	 0.11733
H	-0.5982661156	 1.8485406943	-0.9832483535	 0.114013
H	-0.8470791302	 1.8805330379	 0.7628038087	 0.112485
H	-0.9774836443	-0.443672225	-0.1153876801	 0.0534
H	 1.319776555	-0.2445856718	-1.8861051917	 0.050597
H	 2.9951392632	-0.9171161042	 0.4179298427	 0.092394
H	 2.4223233335	 0.7705457429	 0.3475990101	 0.091732
H	 0.8559817106	 0.9588173156	 2.6524671654	 0.081094
H	-0.2710293137	-0.3746028828	 2.9754709249	 0.079746
H	 1.667550832	-0.4887671104	 4.2769877367	 0.286622
H	 1.4284893649	-2.7054947617	 1.4217728912	 0.109954
H	-0.3063433019	-2.4607291965	 1.1791133586	 0.085976
H	 0.0197390768	-2.4604749939	-1.2095276864	 0.090349
H	 1.7551450922	-2.7061844815	-0.9735541623	 0.092888
93.1385	152.8606	204.4355	228.2557	256.8049	261.5824	303.8369	343.5574	444.5357	458.6156	528.6303	617.6209	688.1517	776.3988	822.6902	841.5301	878.3955	900.0824	930.2923	937.3016	969.9115	990.6978	1010.9807	1051.5518	1065.7728	1070.1098	1098.2191	1134.2362	1153.6225	1167.0422	1181.0559	1211.328	1222.3654	1239.981	1259.1999	1273.6339	1286.8647	1293.264	1317.2904	1344.7758	1394.9966	1412.1009	1465.0834	1491.1966	1493.73	1497.6425	1506.6759	1516.5745	1523.4921	2950.084	2985.0946	3011.9463	3030.4495	3044.7058	3053.5683	3064.8936	3085.5101	3087.1321	3097.204	3106.7201	3111.8524	3129.7629	3830.0185
CC1C2CC1(CO)CC2	C[C@H]1[C@H]2C[C@]1(CO)CC2	
InChI=1S/C8H14O/c1-6-7-2-3-8(6,4-7)5-9/h6-7,9H,2-5H2,1H3	InChI=1S/C8H14O/c1-6-7-2-3-8(6,4-7)5-9/h6-7,9H,2-5H2,1H3/t6-,7+,8-/m0/s1
