20
gdb 95261	2.67011	1.83596	1.43073	1.5511	77.48	-0.2296	0.0819	0.3115	987.8431	0.173377	-403.106636	-403.099263	-403.098319	-403.138143	30.022	
C	-0.0923024501	 1.5260193827	-0.0373158582	-0.3956
C	-0.0042888832	 0.0040303261	-0.0098839837	 0.099888
O	 0.4892897397	-0.4010211652	-1.2828718862	-0.262896
C	 0.9539368411	-1.7389959173	-1.3556263348	-0.091605
C	 2.0341529052	-1.9876845262	-0.3068654999	-0.062075
C	 2.9204011838	-0.7494132775	-0.0091091073	-0.159139
N	 2.275291099	-0.5234847831	 1.3364905373	-0.166373
C	 1.5005922866	-1.8130562659	 1.122523759	-0.073939
C	 0.7987897632	-0.5213164461	 1.1721909522	-0.011182
H	 0.9054108046	 1.9685288616	-0.1050798325	 0.130946
H	-0.6770696512	 1.8510402388	-0.9018170842	 0.124284
H	-0.574999545	 1.8988021861	 0.8709969573	 0.115359
H	-1.0213732176	-0.410674354	 0.1229598814	 0.07052
H	 0.1248466508	-2.4555012625	-1.2258485101	 0.088146
H	 1.3460667252	-1.8539019001	-2.3711827849	 0.107398
H	 2.5764419766	-2.9155685928	-0.4945882874	 0.076731
H	 3.9673427319	-1.009202381	 0.1612023831	 0.107654
H	 2.857433003	 0.0941808238	-0.6994328195	 0.116125
H	 1.4292274631	-2.5816264775	 1.8854930069	 0.088725
H	 0.3280173532	-0.2736234101	 2.1214915313	 0.097032
110.7906	211.7572	255.3439	296.5329	350.7527	375.5121	446.5008	520.1417	597.8765	676.0849	763.6848	771.1749	799.0107	821.114	864.1916	908.3978	932.4817	973.0205	988.4961	1022.6503	1041.2883	1065.1204	1080.8734	1093.3263	1119.1537	1149.7808	1168.1888	1192.3411	1217.2397	1244.2693	1298.0876	1300.5692	1321.6957	1331.0403	1357.7105	1371.7014	1407.6721	1410.3075	1438.1307	1484.8194	1493.0135	1496.2171	1500.2641	2922.7976	2963.2306	3045.2306	3067.9787	3073.0231	3099.6652	3119.3937	3124.7908	3126.009	3132.7804	3160.4287
CC1OCC2CN3C2C13	C[C@H]1OC[C@H]2CN3[C@H]2[C@H]13	
InChI=1S/C7H11NO/c1-4-6-7-5(3-9-4)2-8(6)7/h4-7H,2-3H2,1H3	InChI=1S/C7H11NO/c1-4-6-7-5(3-9-4)2-8(6)7/h4-7H,2-3H2,1H3/t4-,5-,6+,7-,8?/m1/s1
