17
gdb 20217	3.43658	2.96159	2.08983	1.7144	69.33	-0.2129	0.0709	0.2837	705.2124	0.14588	-326.657812	-326.652133	-326.651188	-326.687323	23.846	
C	 0.0021464679	 1.5254551948	 0.2250643678	-0.242587
C	 1.29711341	 2.215874705	-0.2354537704	-0.230427
C	 2.4414949422	 1.2423721015	-0.4065689715	-0.008537
C	 2.5483616463	-0.1003230819	 0.2133769	-0.05776
C	 1.2041316574	-0.8264275821	 0.4003062402	-0.107935
C	 0.0582187741	 0.0392770629	-0.0593102527	-0.030145
C	 0.9703698479	-0.6027222447	-1.0738231269	-0.030644
N	 2.3319332394	 0.042850627	-1.2730023306	-0.167568
H	-0.1503961783	 1.6709597787	 1.3010898941	 0.10215
H	-0.8634991478	 1.9718824111	-0.2747509354	 0.101347
H	 1.1441348609	 2.7123391335	-1.2015265025	 0.110748
H	 1.5938298813	 2.9997894821	 0.4691026822	 0.104573
H	 3.4018570886	 1.7233541797	-0.5854816944	 0.092822
H	 3.4839166599	-0.4975760547	 0.5957286008	 0.09089
H	 1.0826785126	-1.7225549715	 0.9937785497	 0.089758
H	-0.8953374639	-0.4796774937	 0.0083228643	 0.087709
H	 0.6300461214	-1.2742335376	-1.8519492346	 0.095607
133.65	335.8036	478.0259	497.662	567.5864	681.3348	707.5169	727.1718	751.2579	783.4253	855.8201	877.7844	898.9161	922.727	964.7953	980.1301	1012.3375	1045.8957	1056.2025	1063.6772	1073.5794	1099.7318	1124.8634	1150.4057	1223.7906	1239.4222	1269.7352	1284.4705	1313.0571	1332.442	1345.8627	1380.4831	1436.0114	1443.307	1485.6697	1503.5498	3025.6725	3030.5917	3060.906	3077.346	3118.8956	3135.8699	3149.8903	3184.8706	3201.8331
C1CC2C3C4C1C4N23	C1C[C@H]2[C@H]3[C@H]4[C@@H]1[C@H]4N23	
InChI=1S/C7H9N/c1-2-4-7-5-3(1)6(5)8(4)7/h3-7H,1-2H2	InChI=1S/C7H9N/c1-2-4-7-5-3(1)6(5)8(4)7/h3-7H,1-2H2/t3-,4+,5+,6-,7+,8?/m1/s1
