19
gdb 90383	2.11907	1.51226	1.28713	0.7038	81.76	-0.2343	0.0474	0.2817	1110.1578	0.157207	-385.826525	-385.817414	-385.816469	-385.859661	35.336	
C	-0.362981009	 1.523078125	-0.0421635769	-0.429948
C	 0.0022306554	 0.0443290595	-0.0250483355	-0.032294
C	 1.1763022044	-0.514977895	-0.9070115694	-0.267618
C	 1.7347252207	-1.2368286744	 0.3264623842	-0.123133
C	 2.1444091524	-0.2154724795	 1.3840491594	-0.291093
C	 2.7684017282	 1.0437160544	 1.0929911548	 0.341977
C	 3.3289204863	 2.0855156943	 0.8681696806	-0.456394
C	 0.6779864959	-0.5941429888	 1.1987341685	 0.358328
O	-0.0157400361	-1.1912209315	 2.23562467	-0.458707
H	 0.5068984702	 2.1561324407	 0.1451058238	 0.138307
H	-0.7871612058	 1.8049202441	-1.0122258961	 0.113054
H	-1.1183805368	 1.7459308975	 0.7205514925	 0.107006
H	-0.8903899725	-0.5565195298	-0.2310681146	 0.085778
H	 0.8380680287	-1.187293145	-1.6972429714	 0.105025
H	 1.8431367207	 0.2376646553	-1.3364123212	 0.113195
H	 2.1354436912	-2.2424234576	 0.3571485727	 0.099371
H	 2.5332548394	-0.7050498664	 2.2747547709	 0.114909
H	 3.8152302195	 3.0080061098	 0.6689289319	 0.193205
H	-0.2188514127	-0.5178641727	 2.8946258258	 0.289032
128.1477	138.0966	186.4836	204.4432	229.6281	268.1381	338.1469	371.5128	402.3186	440.854	554.9244	579.3014	581.2514	637.7813	648.5395	714.0297	801.0646	822.823	868.3211	902.5713	949.6524	986.2569	1014.7151	1057.4065	1104.6103	1117.2768	1120.0981	1178.6016	1204.8718	1225.167	1241.4402	1292.8435	1307.5042	1325.3019	1378.4704	1410.6027	1449.9443	1495.526	1497.3827	1504.5921	2224.7118	3029.8993	3045.8862	3065.3237	3086.2671	3121.1664	3131.9026	3132.3243	3191.5852	3502.5645	3793.4911
CC1CC2C(C#C)C12O	C[C@H]1C[C@H]2[C@@H](C#C)[C@@]12O	
InChI=1S/C8H10O/c1-3-6-7-4-5(2)8(6,7)9/h1,5-7,9H,4H2,2H3	InChI=1S/C8H10O/c1-3-6-7-4-5(2)8(6,7)9/h1,5-7,9H,4H2,2H3/t5-,6+,7-,8-/m0/s1
