17
gdb 26426	2.93508	1.346	0.95199	3.4403	74.77	-0.2181	-0.0433	0.1748	1193.3513	0.13675	-418.059321	-418.050984	-418.05004	-418.093216	30.313	
C	-0.536603722	 1.6613089067	-0.3356564749	-0.402551
C	 0.0303169639	 0.2558505636	-0.0502982079	-0.242352
C	-1.0447922602	-0.6179621618	 0.5737194599	 0.178057
O	-1.2461854205	-1.7875189344	 0.3507250175	-0.268931
C	 0.7326962831	-0.3307883254	-1.2390587732	 0.332367
C	 1.5001924172	 0.2490837011	-2.2226614496	-0.177646
N	 1.9807910759	-0.6977535932	-3.0946450078	-0.258987
C	 1.5103392499	-1.841929049	-2.64973731	 0.007648
N	 0.7601209032	-1.6799702763	-1.5274188364	-0.306168
H	 0.2655837612	 2.3437968318	-0.6230968664	 0.142337
H	-1.2633935318	 1.629006593	-1.1517801942	 0.141034
H	-1.0236508254	 2.073554459	 0.5537008459	 0.120401
H	 0.7474038161	 0.3711793451	 0.7851200405	 0.129726
H	-1.6561571999	-0.0804097075	 1.3323831997	 0.094766
H	 1.7381765411	 1.2945215078	-2.3494886595	 0.101987
H	 1.6768367145	-2.8112181765	-3.0955288866	 0.128179
H	 0.2094542339	-2.360848114	-1.0263801471	 0.280134
34.4571	121.6853	171.4096	198.5616	235.4421	293.3624	362.0714	432.9414	578.926	629.262	663.3135	695.7989	717.1693	816.8094	846.4717	905.7801	917.0049	935.434	995.5059	1039.0515	1098.1342	1117.4207	1140.9924	1157.1654	1243.0895	1266.6325	1288.0165	1330.2107	1377.6369	1408.7695	1423.6226	1438.1033	1487.7623	1498.9188	1507.3706	1598.1859	1813.153	2889.5384	2929.6565	3046.0683	3117.3421	3134.2588	3244.4342	3252.2341	3627.1669
CC(C=O)C1=CN=CN1	C[C@@H](C=O)c1cnc[nH]1	
InChI=1S/C6H8N2O/c1-5(3-9)6-2-7-4-8-6/h2-5H,1H3,(H,7,8)	InChI=1S/C6H8N2O/c1-5(3-9)6-2-7-4-8-6/h2-5H,1H3,(H,7,8)/t5-/m0/s1
