12
gdb 130841	2.32172	1.5912	0.94414	4.5127	73.95	-0.2685	-0.0966	0.1719	1122.4959	0.076253	-435.45235	-435.444791	-435.443847	-435.484827	27.132	
O	-0.0208269384	-0.0649329454	-0.0010375935	-0.246384
C	-0.0185702044	 1.1413892929	 0.0095385616	 0.063838
C	 1.1952259753	 1.9697598952	 0.0030499802	 0.259072
C	 1.3433387611	 3.3396886801	 0.013443194	-0.027364
C	 2.7623784302	 3.5022747817	-0.0013420359	-0.047924
N	 3.3852503899	 2.3521231342	-0.0184137809	-0.103851
O	 2.4013882808	 1.3815632859	-0.0157798749	-0.188705
C	 0.3478460075	 4.3366103324	 0.0335136497	 0.226267
C	-0.4871117031	 5.2035832807	 0.0506395277	-0.408616
H	-0.9488299033	 1.7434575279	 0.0253944316	 0.108128
H	 3.3293884063	 4.4214268844	 0.0002558826	 0.157079
H	-1.2281207719	 5.9647815999	 0.065872548	 0.20846
116.8529	129.256	169.545	214.7549	266.9863	423.4168	468.4393	566.1794	599.4091	608.2517	645.6431	671.5705	709.1915	778.606	912.377	958.4996	962.4003	1024.1495	1131.6588	1199.2372	1273.7341	1399.7555	1412.3498	1486.8994	1611.2447	1796.1071	2237.5767	2938.71	3259.9919	3498.1874
O=CC1=C(C=NO1)C#C	O=Cc1c(cno1)C#C	
InChI=1S/C6H3NO2/c1-2-5-3-7-9-6(5)4-8/h1,3-4H	InChI=1S/C6H3NO2/c1-2-5-3-7-9-6(5)4-8/h1,3-4H
