19
gdb 94929	2.2625	1.468	1.18928	4.667	76.1	-0.2363	-0.0104	0.2259	1120.2572	0.159914	-423.029546	-423.021107	-423.020163	-423.062937	31.874	
O	 0.4049018803	 1.081019601	 0.0533282597	-0.428176
C	 0.2473191023	-0.3312118843	 0.0197736437	 0.11388
C	 0.8864917044	-1.0624311333	 1.2368691421	-0.27407
C	-0.1354128642	-2.1237576896	 1.7118291223	-0.228038
C	-1.4662801833	-1.7488139514	 1.064544975	-0.07088
C	-2.0641114048	-0.3592262509	 1.2763462553	-0.109022
C	-1.6746360758	 0.5940490248	 2.3447972291	 0.163304
O	-2.475180144	 1.3134097688	 2.8950907697	-0.279628
C	-1.228621216	-0.6860697732	 0.0379994005	-0.064311
H	 1.3415601841	 1.2825476614	-0.0400922403	 0.285066
H	 0.6703848155	-0.728467732	-0.915714283	 0.07349
H	 1.8455391324	-1.5173398012	 0.9730997841	 0.100625
H	 1.0925062888	-0.3230720177	 2.0150037793	 0.120242
H	 0.1493746335	-3.1183133544	 1.3523860298	 0.109483
H	-0.1911310568	-2.1900138388	 2.8030975998	 0.112673
H	-2.1866086091	-2.5421942661	 0.8979329644	 0.0971
H	-3.1304875481	-0.2996589049	 1.0802426205	 0.106744
H	-0.6065890049	 0.6201389151	 2.6323486483	 0.072288
H	-1.7609801644	-0.6630811633	-0.9057043501	 0.099229
64.9844	117.9829	165.2875	195.2213	287.3285	294.835	389.3626	411.3146	478.7422	561.4541	640.9645	696.1178	750.1004	814.9104	848.2692	869.8361	941.6285	967.7319	978.568	1006.558	1031.5537	1040.7209	1087.019	1100.1378	1121.6049	1130.7798	1198.7922	1232.2628	1237.1098	1239.4328	1289.6718	1325.1655	1339.8306	1343.1577	1351.7377	1408.0351	1434.0408	1454.907	1495.635	1511.1079	1802.0733	2948.637	2976.4896	3044.1048	3061.7568	3076.8196	3105.6695	3158.7367	3167.7964	3182.1679	3815.8564
OC1CCC2C(C=O)C12	O[C@H]1CC[C@H]2[C@@H](C=O)[C@@H]12	
InChI=1S/C7H10O2/c8-3-5-4-1-2-6(9)7(4)5/h3-7,9H,1-2H2	InChI=1S/C7H10O2/c8-3-5-4-1-2-6(9)7(4)5/h3-7,9H,1-2H2/t4-,5+,6-,7-/m0/s1
