16
gdb 104556	2.56174	1.26451	1.01592	4.2724	70.39	-0.2642	0.0081	0.2723	1180.5791	0.124503	-434.091177	-434.082348	-434.081404	-434.124999	32.217	
N	-0.1048069643	 0.9330767954	-0.0076020791	-0.521819
H	-0.0345027767	-1.1135990202	 1.9727977024	 0.268375
H	 0.8104729741	 1.3056927664	-0.2439063152	 0.249829
H	-0.7049293221	 1.101811263	-0.8074367053	 0.242991
C	-0.6341156993	 1.6042736784	 1.1766188259	-0.206367
C	 0.0837533141	 1.0675279568	 2.4244046847	 0.183656
C	-0.644285877	 1.3100764733	 3.7900463936	-0.451873
C	-0.8717804837	-0.2237667507	 3.7946032033	 0.441703
O	-1.4662715243	-1.0034504184	 4.481325883	-0.340603
N	-0.1177472619	-0.365829121	 2.6472891727	-0.325014
C	 1.5011982042	 1.4608880388	 2.3972407866	 0.268917
N	 2.6068350968	 1.7926915697	 2.3391309254	-0.337629
H	-0.5567598652	 2.7035032749	 1.1668607624	 0.109607
H	-1.6931686626	 1.3453616391	 1.2772884011	 0.119404
H	-0.0128663813	 1.6798958125	 4.5978608248	 0.155174
H	-1.5537211909	 1.908689002	 3.7180791437	 0.14365
65.869	108.6854	164.0256	187.4135	244.0516	264.7181	381.5675	425.4409	449.0747	469.1691	522.7843	562.9556	597.5497	665.5344	783.0791	850.4321	892.3785	934.5543	962.4027	1047.8025	1050.8798	1074.7473	1105.3206	1152.3301	1195.2964	1236.7619	1275.5373	1331.4133	1348.9628	1417.811	1458.5329	1494.4152	1661.4921	1911.6974	2353.1095	2974.5719	3076.7164	3095.7619	3160.3464	3502.1053	3584.0911	3609.2579
[NH3+]CC1(CC(=O)[N-]1)C#N	NC[C@]1(CC(=O)N1)C#N	
InChI=1S/C5H7N3O/c6-2-5(3-7)1-4(9)8-5/h1-2,6H2,(H,8,9)	InChI=1S/C5H7N3O/c6-2-5(3-7)1-4(9)8-5/h1-2,6H2,(H,8,9)/t5-/m1/s1
