19
gdb 103327	2.13567	1.90211	1.20658	2.832	71.13	-0.2429	0.0459	0.2888	1058.407	0.157802	-460.074516	-460.065793	-460.064849	-460.10736	33.969	
C	 0.3266717502	 1.3275430231	-0.7590554151	-0.481267
C	-0.0618532755	 0.0298283483	-0.056342796	 0.354736
C	-1.4661690573	-0.447698734	-0.507497787	-0.162094
O	-2.4468592496	-0.3762714033	 0.5119408933	-0.426509
C	 1.1034518152	-0.9993347581	 0.1477867982	-0.062935
O	 1.7481438369	-0.0542684888	 1.0833473754	-0.305987
C	 0.3127221412	-0.0477303958	 1.4633940748	-0.028417
C	 0.4140276724	-1.5892445032	 1.4222533314	 0.108794
O	-0.7669331017	-2.3523949477	 1.3920372092	-0.432078
H	 1.3055275499	 1.6834634108	-0.4374060081	 0.136219
H	 0.3464733517	 1.1809786837	-1.8452721351	 0.11209
H	-0.4193572311	 2.1026918974	-0.5508227867	 0.123643
H	-1.8167867757	 0.2143031764	-1.3053005951	 0.100504
H	-1.4072730089	-1.4586519361	-0.9321371049	 0.083114
H	-2.2837307964	-1.1389725543	 1.0804213363	 0.294832
H	 1.7452151911	-1.4850896612	-0.5901551435	 0.087444
H	 0.0137212916	 0.602447049	 2.285476235	 0.100645
H	 1.139530647	-1.9794253263	 2.1414138806	 0.098742
H	-0.5377597912	-3.2848061298	 1.3390640671	 0.298525
119.5844	145.5596	197.002	253.1888	256.6427	268.2955	348.1665	375.3853	393.6285	475.8014	566.8042	604.7642	667.5052	669.893	747.3765	839.0738	872.6927	890.0778	905.1492	938.7762	959.1585	1054.7647	1081.3096	1087.392	1126.034	1138.7493	1151.9028	1167.5793	1186.62	1226.6202	1239.4597	1265.5261	1294.8747	1327.8047	1396.3157	1400.276	1424.0647	1450.2458	1490.5212	1501.8465	1509.0791	3007.9075	3030.5142	3072.3578	3075.8448	3085.9276	3098.0872	3125.2702	3146.5841	3775.9187	3833.3318
CC1(CO)C2OC1C2O	C[C@@]1(CO)[C@H]2O[C@@H]1[C@H]2O	
InChI=1S/C6H10O3/c1-6(2-7)4-3(8)5(6)9-4/h3-5,7-8H,2H2,1H3	InChI=1S/C6H10O3/c1-6(2-7)4-3(8)5(6)9-4/h3-5,7-8H,2H2,1H3/t3-,4-,5+,6+
