22
gdb 62662	3.15786	1.29311	1.16793	1.6429	86.57	-0.2124	0.0707	0.2831	1195.1442	0.192692	-367.127015	-367.117888	-367.116944	-367.160079	36.223	
C	-0.1177382635	 1.372572044	 0.3476721445	-0.446937
C	-0.0276475579	-0.1118487718	-0.0133094221	 0.320413
C	-1.3447061842	-0.6060698368	-0.6207319156	-0.492091
C	 1.4118412299	-0.4350485656	-0.3908398277	-0.055615
C	 0.8581580266	-0.8493796506	 0.9606364191	-0.180266
C	 1.2679779691	-2.2896715617	 0.5709518539	 0.314396
C	 2.0281268822	-3.1434277501	 1.5435623225	-0.473168
C	 0.7608128714	-2.7876949134	-0.7298374843	-0.300049
N	 1.8872665518	-1.8293136446	-0.7266020106	-0.187522
H	 0.8208630735	 1.7517400454	 0.7626042624	 0.116628
H	-0.361779572	 1.969557294	-0.5380314979	 0.119208
H	-0.9052978169	 1.538947703	 1.0911662345	 0.117555
H	-1.294002922	-0.689628611	-1.7114136693	 0.128427
H	-1.6644348696	-1.5675783051	-0.2151016542	 0.131102
H	-2.1398610681	 0.1116101618	-0.3934016984	 0.110131
H	 2.1024438466	 0.3602930675	-0.6464557983	 0.093704
H	 1.0952431017	-0.4553122405	 1.9425885202	 0.081998
H	 1.3573125803	-3.5541809526	 2.3079673931	 0.118331
H	 2.5149433645	-3.9771019113	 1.0298187468	 0.126148
H	 2.8027834177	-2.5600734623	 2.0537169421	 0.122749
H	 1.0963420412	-3.7838128373	-1.0099900875	 0.114688
H	-0.1935332424	-2.517826901	-1.151409323	 0.12017
93.5773	181.11	188.1757	219.3245	258.3414	287.0561	314.5306	381.5626	389.876	403.3793	494.3504	554.8854	616.1367	673.1901	721.7542	779.4563	833.618	862.5992	893.36	925.3524	964.3374	983.936	988.7341	1010.7374	1037.9539	1061.0175	1075.3016	1097.6139	1103.0133	1133.7256	1143.9923	1180.7258	1223.1082	1287.7433	1303.6721	1354.2832	1394.9101	1405.2001	1414.991	1428.6054	1479.4942	1492.1024	1493.9575	1498.502	1501.1853	1505.8824	1519.7654	3024.1595	3025.4368	3034.7968	3084.4188	3088.5572	3089.7444	3106.4552	3112.5408	3120.6781	3127.0471	3164.5246	3176.5397	3271.1272
CC1(C)C2C1C1(C)CN21	CC1(C)[C@H]2[C@@H]1[C@@]1(C)CN21	
InChI=1S/C8H13N/c1-7(2)5-6(7)9-4-8(5,9)3/h5-6H,4H2,1-3H3	InChI=1S/C8H13N/c1-7(2)5-6(7)9-4-8(5,9)3/h5-6H,4H2,1-3H3/t5-,6+,8+,9?/m0/s1
