25
gdb 113087	4.63478	0.74806	0.68927	0.1796	95.93	-0.2336	0.0267	0.2602	1781.4129	0.229072	-352.382416	-352.372252	-352.371308	-352.417989	38.145	
C	 0.0031861952	 1.590824286	 0.203162784	-0.386662
C	-0.0112319513	 0.0671671623	 0.0488225252	-0.176067
C	 0.6447257893	-0.4404210479	-1.2459744003	-0.009676
C	 0.7458834272	-1.9866097776	-1.3245103252	-0.257158
C	 0.5399462249	-2.371791789	-2.8132431025	-0.009675
C	-0.2154551667	-3.6971920657	-3.0058798535	-0.176066
C	-0.3087727292	-4.1593774074	-4.4630124045	-0.386662
C	-0.1542051023	-1.1422517321	-3.3624284224	-0.076217
C	-0.0981585109	-0.1091704513	-2.5241044086	-0.076221
H	 1.0274043741	 1.9802707331	 0.1835379907	 0.113074
H	-0.5530837009	 2.0854209104	-0.5999186438	 0.116662
H	-0.4496254047	 1.896235311	 1.1517163506	 0.111056
H	 0.5099012053	-0.3855934669	 0.9025802216	 0.092477
H	-1.0445901195	-0.3016929291	 0.09056762	 0.093143
H	 1.6533336716	 0.0018485754	-1.2978383443	 0.070646
H	 1.6833071866	-2.3714292158	-0.9129629566	 0.091316
H	-0.0691217145	-2.4228811712	-0.7323988252	 0.094277
H	 1.5188457846	-2.4771212327	-3.3094725229	 0.070646
H	 0.288154384	-4.4729480066	-2.4142260388	 0.092477
H	-1.2232754384	-3.5953203631	-2.5821464635	 0.093143
H	-0.8528079233	-3.4393510079	-5.0831654181	 0.116662
H	 0.6874231646	-4.2864590636	-4.9017840519	 0.113074
H	-0.830199002	-5.1186202801	-4.5407039706	 0.111056
H	-0.6059885236	-1.117166899	-4.3485608835	 0.087347
H	-0.4977191402	 0.8785134588	-2.7291072059	 0.087347
42.0168	95.9894	100.9932	188.5969	198.5618	233.0913	245.8903	263.8345	316.0756	399.2855	459.0562	549.3834	588.427	719.3072	758.0593	783.2743	799.4431	851.5612	859.0068	938.9941	947.464	970.0151	975.8992	986.628	1013.3263	1053.8834	1071.6329	1092.8143	1125.6363	1132.5386	1154.1739	1171.9938	1204.4559	1269.7771	1276.0383	1277.5631	1303.8471	1324.3895	1335.7268	1355.9276	1372.7113	1378.4034	1397.3748	1411.6776	1411.8246	1483.4057	1486.4004	1489.7478	1499.8967	1499.9038	1506.9083	1506.9474	1682.4081	2961.0101	2962.2453	3012.1924	3013.2105	3027.1432	3030.9231	3031.141	3046.89	3047.0783	3086.3816	3096.6568	3096.8724	3101.6212	3101.8945	3173.8267	3199.6276
CCC1CC(CC)C=C1	CC[C@H]1C[C@@H](CC)C=C1	
InChI=1S/C9H16/c1-3-8-5-6-9(4-2)7-8/h5-6,8-9H,3-4,7H2,1-2H3	InChI=1S/C9H16/c1-3-8-5-6-9(4-2)7-8/h5-6,8-9H,3-4,7H2,1-2H3/t8-,9+
