18
gdb 77143	2.90819	1.19217	0.98531	4.5611	74.6	-0.2413	-0.0287	0.2126	1244.4075	0.145296	-439.129761	-439.120026	-439.119082	-439.165336	33.623	
C	-0.0739639793	 1.4253040811	 0.1111667027	-0.355423
N	-0.0189584337	-0.011803389	 0.0097035303	-0.043131
C	-1.0509050662	-1.0374359343	 0.096872562	-0.093577
C	 0.0938012575	-2.1025278272	-0.0224699467	-0.403602
C	 1.0398527654	-0.8788943789	-0.092773986	 0.421747
O	 2.2243581327	-0.7038398489	-0.1965407763	-0.367381
C	-1.8268599743	-1.0818335246	 1.4091091384	 0.371991
C	-3.0110575167	-2.028276831	 1.444161892	-0.483308
O	-1.5042147122	-0.4003583315	 2.3540052326	-0.293144
H	 0.9513622589	 1.795884432	 0.041794002	 0.161772
H	-0.6614485455	 1.8621978562	-0.70559113	 0.122753
H	-0.5046085451	 1.7304051531	 1.0691524975	 0.153345
H	-1.7471363446	-1.0468268664	-0.7527949984	 0.090611
H	 0.2438054695	-2.7265020839	 0.8609068396	 0.140095
H	 0.0677110688	-2.7232493747	-0.9189688892	 0.136655
H	-2.744642356	-3.0115463834	 1.0418464165	 0.14232
H	-3.3769581925	-2.1264497656	 2.4665834525	 0.150408
H	-3.8148291967	-1.633010663	 0.8113253805	 0.147868
47.9717	83.0626	108.9514	133.9118	147.205	204.1152	242.29	287.3533	354.5969	478.456	556.8809	585.023	606.2915	710.875	763.0778	806.9919	939.9755	957.0124	969.901	1027.2796	1041.2262	1072.3695	1112.2318	1149.5645	1187.1665	1194.3706	1221.9696	1299.883	1360.0732	1380.4933	1411.0551	1444.9071	1461.7608	1466.2215	1474.0447	1481.9897	1517.7279	1813.5085	1887.5157	3012.8894	3024.613	3036.007	3085.3599	3093.801	3096.213	3136.6525	3147.163	3155.399
CN1C(CC1=O)C(C)=O	CN1[C@@H](CC1=O)C(=O)C	
InChI=1S/C6H9NO2/c1-4(8)5-3-6(9)7(5)2/h5H,3H2,1-2H3	InChI=1S/C6H9NO2/c1-4(8)5-3-6(9)7(5)2/h5H,3H2,1-2H3/t5-/m0/s1
