19
gdb 118938	2.4082	1.34441	1.12209	0.8905	72.83	-0.246	0.0191	0.265	1170.5478	0.159058	-456.318985	-456.309533	-456.308588	-456.353369	34.402	
C	 0.2149933397	 0.7591354615	 0.4570410572	-0.262263
O	-0.4217708152	 0.2257769156	-0.6977115548	-0.240524
C	 0.4039935483	-0.542580305	-1.5377490433	-0.107376
C	 0.5238701795	-2.0191534051	-1.1081210825	 0.139875
N	-0.8012531622	-2.5426539978	-0.8773140975	-0.560164
C	 1.4366096712	-2.826473577	-2.0712587849	-0.106585
O	 2.4573606888	-2.9363543163	-1.0308528621	-0.254633
C	 1.6434175649	-2.3301307702	-0.101389489	 0.377846
N	 1.7958478697	-2.1784367567	 1.1355040685	-0.547699
H	 0.5365818299	-0.0235869475	 1.1523066136	 0.158855
H	 1.089367214	 1.3645018215	 0.1755886221	 0.106014
H	-0.5190149705	 1.406650223	 0.9425450158	 0.124718
H	-0.0774857955	-0.5333982353	-2.5224580856	 0.119502
H	 1.4054124587	-0.0978917081	-1.6355715908	 0.097919
H	-0.7764381583	-3.3486782921	-0.2617459325	 0.236008
H	-1.3550178285	-1.824413918	-0.4188289014	 0.248457
H	 1.0433711112	-3.8080366934	-2.3451013254	 0.124462
H	 1.8231494432	-2.3047082527	-2.9512657037	 0.116827
H	 2.6799019612	-2.5753934661	 1.4587518263	 0.228762
77.8106	100.41	130.4312	185.2342	208.0918	254.0352	287.062	302.2847	347.6695	425.8804	472.7281	527.4576	691.0176	735.1957	763.4484	859.6017	872.7293	897.2833	941.8199	960.225	978.3286	1011.442	1071.8137	1100.337	1148.4141	1153.7419	1188.419	1224.2933	1236.7647	1265.7103	1318.8092	1333.0381	1393.1851	1404.1836	1473.1908	1485.2982	1501.1543	1513.2643	1518.0165	1659.8008	1808.124	2992.0035	2998.3272	3057.1603	3066.7765	3077.8403	3122.6208	3124.0079	3471.4468	3500.0327	3580.5767
COCC1(N)COC1=N	COC[C@@]1(N)CO[C]1[NH]	
InChI=1S/C5H10N2O2/c1-8-2-5(7)3-9-4(5)6/h6H,2-3,7H2,1H3	InChI=1S/C5H10N2O2/c1-8-2-5(7)3-9-4(5)6/h6H,2-3,7H2,1H3/t5-/m1/s1
