17
gdb 124663	3.13488	1.11791	0.90846	1.6868	75.14	-0.2364	-0.0207	0.2157	1267.0672	0.136606	-418.037918	-418.029307	-418.028363	-418.072933	30.698	
C	 0.2414964805	 1.6268254127	-0.1971832589	-0.416859
C	-0.0295799138	 0.133250161	 0.0452837971	-0.172558
C	 0.4300447656	-0.6734536264	-1.1655263704	 0.167711
O	-0.2765953082	-1.3821548194	-1.8328484606	-0.252782
C	 0.6849359071	-0.4045351849	 1.2591451772	 0.184181
C	 0.3971039993	-1.5749341812	 1.9413101498	-0.123427
N	 1.3097980919	-1.6774311836	 2.9339365574	-0.173542
N	 2.1877605323	-0.6585535356	 2.9578031851	-0.224227
C	 1.8143192735	 0.1128007719	 1.9408290086	-0.087981
H	 1.2985693119	 1.8072916668	-0.4200786167	 0.126794
H	-0.3468337344	 1.9944952007	-1.0424257145	 0.128842
H	-0.0201447118	 2.2125051712	 0.6882581452	 0.133434
H	-1.1065978047	-0.0378556452	 0.140213633	 0.097646
H	 1.5185736461	-0.564275266	-1.383737489	 0.074977
H	-0.3730791416	-2.3156480091	 1.7927304812	 0.14633
H	 1.3871869367	-2.4030596999	 3.6265334806	 0.278694
H	 2.3619941898	 1.0206430069	 1.736520585	 0.112768
22.1336	59.944	153.847	199.3617	236.875	301.1437	380.539	407.8271	478.9784	541.0144	666.0185	700.4349	714.5225	800.2863	881.0254	893.9385	943.5583	959.9234	1000.4185	1060.9867	1071.5433	1093.5235	1144.9113	1173.0512	1246.6021	1264.6878	1297.1123	1355.159	1383.1302	1403.8549	1412.3497	1421.3827	1493.5042	1497.5296	1503.311	1596.3132	1831.6708	2857.5438	3039.0502	3061.0159	3108.7076	3121.2526	3250.1895	3260.2132	3672.6632
CC(C=O)C1=CNN=C1	C[C@@H](C=O)c1c[nH]nc1	
InChI=1S/C6H8N2O/c1-5(4-9)6-2-7-8-3-6/h2-5H,1H3,(H,7,8)	InChI=1S/C6H8N2O/c1-5(4-9)6-2-7-8-3-6/h2-5H,1H3,(H,7,8)/t5-/m0/s1
