17
gdb 31551	3.40935	1.11136	0.86555	1.5364	73.12	-0.1675	0.0614	0.2288	1317.2972	0.137508	-451.348783	-451.339485	-451.33854	-451.383212	33.853	
C	 0.1514829767	 1.2224525454	 0.3561023029	-0.333131
N	-0.1018421752	 0.0369871027	-0.4598121728	-0.37699
C	-1.2355892364	-0.7204244038	-0.1831360886	 0.394671
N	-1.2801329293	-2.0223674502	-0.0725523621	-0.372934
C	-2.6301490359	-2.3352776606	 0.0937151691	 0.081635
N	-3.1841393103	-3.6278202581	 0.265028257	-0.620019
C	-3.3689848243	-1.1937636212	 0.0979789402	 0.365214
O	-4.6911946178	-0.9581560859	 0.2499141597	-0.444189
N	-2.4843213694	-0.1479877404	-0.0729724764	-0.360752
H	 1.1042702771	 1.6610533596	 0.050304923	 0.131337
H	-0.6198704721	 1.9788084739	 0.177358691	 0.120965
H	 0.1858381093	 1.0194870879	 1.437369683	 0.118947
H	 0.6930609246	-0.5887011917	-0.4884646927	 0.246328
H	-2.7601172188	-4.1010762788	 1.0589454515	 0.23745
H	-2.9965750012	-4.2142137524	-0.544432146	 0.237773
H	-5.0881856102	-1.8305712792	 0.3806117256	 0.306256
H	-2.7349823167	 0.814669753	-0.2176762945	 0.26744
37.9311	132.0244	182.587	213.5717	241.1106	249.7856	273.7879	349.8141	377.2031	420.2829	469.0666	549.642	598.7354	671.7718	673.9268	739.9375	757.4222	834.8994	887.0954	1004.5897	1071.5551	1137.5504	1153.4056	1171.5708	1208.3147	1220.7384	1270.1594	1347.5122	1415.229	1456.6509	1492.2091	1508.3211	1512.8639	1520.0376	1631.7025	1652.9644	1722.5417	2986.7155	3070.2107	3118.14	3473.2479	3529.6905	3578.84	3677.0507	3766.806
CNC1=NC(N)=C(O)N1	CNc1nc(N)c(O)[nH]1	
InChI=1S/C4H8N4O/c1-6-4-7-2(5)3(9)8-4/h9H,5H2,1H3,(H2,6,7,8)	InChI=1S/C4H8N4O/c1-6-4-7-2(5)3(9)8-4/h9H,5H2,1H3,(H2,6,7,8)
