17
gdb 8821	2.81385	1.62001	1.09467	3.0037	71.82	-0.2429	0.0308	0.2737	1091.2571	0.139895	-363.867661	-363.858131	-363.857187	-363.902623	33.263	
C	-0.1482364888	 1.4193406614	 0.8996590059	-0.336595
N	 0.1520695799	 0.0205952534	 1.1295387735	-0.326278
C	 0.6667814845	-0.7818544813	 0.1674008601	 0.44537
O	 0.9247650926	-0.416403929	-0.9660639315	-0.38676
C	 0.9194497326	-2.2585645177	 0.5714019629	-0.300384
C	 2.3674653362	-2.647088007	 0.2011010467	-0.382989
C	 0.6049519964	-2.5755866507	 1.9604610752	 0.31709
C	 0.3571402572	-2.8294075011	 3.1105938382	-0.448996
H	 0.1057821648	 1.6433460355	-0.1370077286	 0.170663
H	-1.2113128599	 1.6286998559	 1.0621456953	 0.127126
H	 0.439999281	 2.0657402363	 1.5605035735	 0.127103
H	-0.0154830518	-0.3841760136	 2.0375318052	 0.254841
H	 0.2433324747	-2.8336143277	-0.0753152488	 0.138197
H	 3.0824243109	-2.1264237984	 0.8441810196	 0.126891
H	 2.5168277331	-3.7225888202	 0.3202105183	 0.123213
H	 2.5527688939	-2.3624232153	-0.8356241335	 0.149813
H	 0.1368886125	-3.0714207706	 4.1211231079	 0.201695
36.4148	73.5588	136.6383	143.7413	212.6698	238.5843	267.1352	311.5922	395.0296	491.0178	511.176	558.01	621.4452	629.3669	650.3596	755.9841	826.219	899.8821	1007.4617	1073.142	1103.6033	1127.3851	1155.1942	1178.7214	1260.5087	1281.2666	1317.9064	1397.41	1438.6374	1493.1778	1495.1962	1500.0559	1500.7911	1571.6543	1778.8532	2225.1617	3025.321	3028.7582	3053.8621	3080.8847	3127.4279	3151.857	3152.9703	3499.822	3620.9919
CNC(=O)C(C)C#C	CNC(=O)[C@@H](C)C#C	
InChI=1S/C6H9NO/c1-4-5(2)6(8)7-3/h1,5H,2-3H3,(H,7,8)	InChI=1S/C6H9NO/c1-4-5(2)6(8)7-3/h1,5H,2-3H3,(H,7,8)/t5-/m0/s1
