20
gdb 12544	3.23768	1.78512	1.22466	1.2088	76.98	-0.2408	0.0222	0.263	1026.2031	0.178242	-349.008063	-349.000054	-348.99911	-349.040488	30.487	
C	 0.005661679	 1.6098647752	-0.0669444433	-0.40162
C	-0.0167051594	 0.0754420943	-0.0265163423	 0.018991
C	 0.8516786938	-0.5009330403	-1.1518989723	-0.074054
O	 0.5264204593	-1.8400474551	-1.4654586385	-0.236939
C	 1.1680194519	-2.8288776549	-0.6945202607	-0.132815
C	 0.8382364803	-2.8866238809	 0.775878645	-0.055089
C	 0.5093878675	-1.9034175987	 1.6139562656	-0.068085
C	 0.3874187756	-0.4205132609	 1.3709095424	-0.24352
H	 1.0240529338	 1.9948185395	 0.0661265189	 0.113297
H	-0.3709372029	 1.9878164613	-1.0227944877	 0.114165
H	-0.6130899245	 2.0357641537	 0.7292396767	 0.114505
H	-1.0385020964	-0.2684434662	-0.2320264759	 0.086241
H	 0.6754083391	 0.0689467323	-2.0716296775	 0.098878
H	 1.9235447996	-0.4046657757	-0.905711269	 0.080496
H	 0.8853371435	-3.7804861406	-1.1585008607	 0.111833
H	 2.2664111011	-2.7430663735	-0.8077123522	 0.095238
H	 0.9340879313	-3.8876664811	 1.1950565769	 0.085079
H	 0.3539938568	-2.1879627129	 2.6537254691	 0.08533
H	 1.3533128711	 0.0421621724	 1.6362643604	 0.107312
H	-0.3248882505	-0.0110161182	 2.0985238251	 0.100757
70.6506	119.2435	211.4689	285.7035	301.2498	353.4941	392.1584	419.2083	427.8855	546.642	677.3912	767.4826	820.6806	871.6128	895.5909	915.6704	953.4868	994.3981	1003.5712	1036.8348	1041.158	1094.5284	1124.7537	1169.0649	1186.3822	1236.3196	1270.4888	1295.1853	1312.0672	1332.2472	1366.6299	1387.2699	1403.6744	1409.2601	1426.5513	1430.3042	1470.7326	1478.8295	1493.8107	1498.4055	1502.9377	1738.1063	2915.6813	2957.8215	2970.1654	3023.8569	3029.0053	3038.597	3053.2561	3058.2109	3091.7843	3103.6547	3119.5767	3144.2852
CC1COCC=CC1	C[C@H]1COCC=CC1	
InChI=1S/C7H12O/c1-7-4-2-3-5-8-6-7/h2-3,7H,4-6H2,1H3	InChI=1S/C7H12O/c1-7-4-2-3-5-8-6-7/h2-3,7H,4-6H2,1H3/t7-/m1/s1
