22
gdb 116726	5.40339	0.65209	0.61664	2.7313	88.78	-0.2425	0.0246	0.2671	1884.3756	0.194187	-404.36046	-404.350414	-404.349469	-404.398478	34.892	
C	-0.4282140086	 1.6037464525	-0.0089488141	-0.248996
O	-0.0804681215	 0.2284052654	 0.0801306977	-0.19386
C	-1.1129952056	-0.6372916631	 0.0199628443	 0.117284
N	-0.9171456846	-1.8775659966	 0.0882944494	-0.215626
C	-2.0680168685	-2.7512792563	 0.0178225476	 0.057536
C	-1.964675354	-3.7696666871	-1.1320338198	-0.201025
C	-2.9819996758	-4.8663508292	-0.7605365259	-0.206355
C	-3.073748467	-4.8435795176	 0.796571943	-0.206055
C	-2.1858967251	-3.6634741693	 1.2541690016	-0.201708
H	 0.5062861748	 2.1622512997	 0.0564909094	 0.145721
H	-0.9171556976	 1.8352144786	-0.9633869142	 0.125838
H	-1.0851788705	 1.9079685569	 0.8153348399	 0.125819
H	-2.100947345	-0.1613278019	-0.0903944725	 0.070282
H	-3.0086758533	-2.179834131	-0.0973988716	 0.047895
H	-2.1488748996	-3.3207746109	-2.1124565292	 0.087806
H	-0.9426987201	-4.1650633233	-1.1399222935	 0.109291
H	-3.9597230587	-4.6418684401	-1.199521273	 0.095673
H	-2.6854700917	-5.8451675647	-1.1468712799	 0.097101
H	-4.1105125965	-4.6998536476	 1.1159575347	 0.095823
H	-2.7413087349	-5.785631939	 1.2409472186	 0.098881
H	-1.1778163128	-4.0059772383	 1.5115284746	 0.110566
H	-2.5818758034	-3.1372796769	 2.1274967226	 0.088111
14.3932	39.0679	63.5408	98.887	145.1507	210.2413	233.028	350.071	392.5529	424.5209	532.9348	629.5249	670.3272	770.8564	818.3537	882.5725	900.2918	953.8961	974.274	980.5924	989.2125	1041.8109	1059.5344	1096.9027	1097.9507	1177.1465	1178.3263	1197.1834	1203.3477	1233.2179	1259.407	1277.4019	1296.4411	1310.8055	1328.473	1333.527	1344.7659	1377.1964	1427.012	1484.8341	1485.9684	1494.4511	1495.1961	1497.637	1501.1378	1519.7136	1771.147	2912.5576	2981.0562	3012.456	3041.3188	3043.1435	3047.3742	3056.8565	3072.8602	3074.7158	3088.557	3093.6774	3105.9065	3142.9424
COC=NC1CCCC1	COC=NC1CCCC1	
InChI=1S/C7H13NO/c1-9-6-8-7-4-2-3-5-7/h6-7H,2-5H2,1H3	InChI=1S/C7H13NO/c1-9-6-8-7-4-2-3-5-7/h6-7H,2-5H2,1H3
