22
gdb 6713	5.8086	0.66882	0.62911	2.8415	80.28	-0.2475	-0.0186	0.2289	1798.7261	0.197421	-350.22905	-350.218726	-350.217782	-350.265435	35.986	
C	-0.0969763426	 1.5883029149	-0.0318725016	-0.388585
C	 0.0140787264	 0.0576101915	-0.0080353654	 0.03842
C	 0.9836912689	-0.394664584	 1.093280841	-0.381952
C	-1.3812642813	-0.5777476407	 0.1356946134	-0.161393
C	-1.4184167911	-2.1029660005	-0.0189043126	-0.203007
C	-2.8506839185	-2.665438943	 0.0311210843	-0.271375
C	-2.8654239015	-4.1751583196	-0.0152338657	 0.158935
O	-3.4529212107	-4.8401967313	-0.8289187554	-0.237783
H	 0.8833145474	 2.0547539561	-0.1741989074	 0.110697
H	-0.7521246559	 1.9295697994	-0.8402729705	 0.110437
H	-0.5089857945	 1.9656780572	 0.9118945391	 0.111783
H	 0.427033379	-0.2642776211	-0.9754017895	 0.072871
H	 0.6016898748	-0.1220837691	 2.0848508975	 0.110717
H	 1.1465571641	-1.4763616258	 1.0838923445	 0.113297
H	 1.9607887299	 0.0845561907	 0.973177029	 0.112699
H	-1.8029419646	-0.3022172731	 1.1134379168	 0.091125
H	-2.0472256865	-0.1337357307	-0.6160753076	 0.094465
H	-0.9541405579	-2.3863870286	-0.9724675867	 0.10968
H	-0.82062443	-2.5780263504	 0.768550487	 0.104775
H	-3.3212118697	-2.3598881361	 0.9776566229	 0.116488
H	-3.4640244915	-2.283493251	-0.7904137117	 0.120493
H	-2.2600270642	-4.660364485	 0.7880635185	 0.067214
49.337	52.3322	91.2109	125.9458	138.3093	224.7619	248.3613	279.9448	285.6797	398.5279	418.4292	460.0446	525.6623	741.6972	807.627	821.8734	890.8967	927.1181	948.5875	965.1497	990.8387	1033.0931	1053.1968	1074.7491	1151.5548	1165.9096	1193.4079	1220.8088	1255.479	1291.2164	1322.622	1333.4391	1363.9293	1373.5886	1394.7447	1401.8344	1422.9221	1430.9489	1463.8191	1478.3148	1489.0714	1495.2514	1503.2018	1505.6066	1511.7348	1836.2781	2842.4076	2992.6355	3002.3094	3006.1397	3022.1618	3024.054	3028.0282	3035.7879	3063.5989	3087.4204	3093.2847	3096.4442	3099.1968	3105.3775
CC(C)CCCC=O	CC(C)CCCC=O	
InChI=1S/C7H14O/c1-7(2)5-3-4-6-8/h6-7H,3-5H2,1-2H3	InChI=1S/C7H14O/c1-7(2)5-3-4-6-8/h6-7H,3-5H2,1-2H3
