20
gdb 88793	2.65039	1.36697	1.07783	3.4814	79.56	-0.2366	-0.0153	0.2213	1193.4358	0.17046	-403.13181	-403.122846	-403.121901	-403.165967	33.483	
C	 0.1125893492	 1.4269631318	-0.388078783	-0.424283
C	 0.0933966209	-0.0274828614	 0.0150372827	 0.005843
N	 1.3739062132	-0.7597188937	 0.0902812283	-0.34301
C	 0.5737390385	-0.572147541	 1.3148426141	-0.029234
C	 1.2017378072	 0.2183100332	 2.4452704702	-0.138842
C	 2.1182544	-0.6415236616	 3.3841499434	-0.241564
C	 3.3909155608	 0.0459191974	 2.8073454477	-0.317323
C	 2.471432899	 1.0467142137	 2.1058300499	 0.416474
O	 2.650107455	 2.1209049428	 1.609818812	-0.298528
H	 0.9219686918	 1.9753971224	 0.0951331777	 0.16958
H	 0.233948256	 1.5157774014	-1.473161126	 0.116361
H	-0.8382326448	 1.9018147539	-0.1203521943	 0.109628
H	-0.7402066665	-0.5874341843	-0.4105049746	 0.080345
H	 1.2717477238	-1.7036663817	-0.2709224446	 0.229072
H	 0.0249866767	-1.4404928844	 1.6822295437	 0.083824
H	 0.4364020066	 0.8072008209	 2.9631338656	 0.098789
H	 1.96003427	-0.4307610174	 4.4434843857	 0.110722
H	 2.0545624604	-1.7193713225	 3.2250503986	 0.103642
H	 4.1205444484	 0.4681865922	 3.5024300497	 0.124534
H	 3.9163925337	-0.5723352618	 2.0726996831	 0.14397
60.8753	78.5954	150.0591	184.8296	208.2059	251.2976	375.124	420.9661	450.1497	504.4257	570.881	702.4482	718.9747	761.8526	777.7548	855.9759	890.3401	925.0982	937.6667	983.381	1004.9543	1044.0174	1051.5896	1078.3323	1086.0229	1109.9079	1150.4865	1182.2117	1195.5108	1227.6458	1240.8577	1261.069	1270.1513	1274.7559	1317.9698	1398.1201	1429.7487	1435.1623	1462.1517	1489.6046	1502.3994	1508.529	1886.0777	3034.3148	3050.6281	3061.5214	3076.6428	3085.6681	3090.7664	3098.4156	3114.89	3132.9842	3152.9197	3508.2485
CC1NC1C1CCC1=O	C[C@H]1N[C@H]1[C@H]1CCC1=O	
InChI=1S/C7H11NO/c1-4-7(8-4)5-2-3-6(5)9/h4-5,7-8H,2-3H2,1H3	InChI=1S/C7H11NO/c1-4-7(8-4)5-2-3-6(5)9/h4-5,7-8H,2-3H2,1H3/t4-,5+,7-/m1/s1
