14
gdb 46642	2.43691	1.75246	1.51701	4.7053	67.13	-0.2754	-0.0177	0.2577	916.5361	0.10251	-432.859348	-432.852128	-432.851184	-432.89143	26.618	
N	-0.068370385	 1.208631478	 0.375737305	-0.522184
C	 0.001428985	 0.0235507281	-0.030259223	 0.445364
O	 1.132347591	-0.6230676021	-0.4558777227	-0.237432
C	 0.8255381344	-1.9377781187	-0.9284072784	-0.122169
C	-0.6509989537	-2.1151910634	-0.6169414846	-0.055784
C	-1.0851735401	-2.0014848543	 0.8085591067	-0.17805
C	-0.1162927811	-2.0733491838	 1.8720673744	 0.325755
N	 0.6520496302	-2.1607710866	 2.7316703123	-0.33047
N	-1.1463579352	-0.8322323613	-0.1192729195	-0.138688
H	 0.8506349959	 1.6493194166	 0.3536816317	 0.240305
H	 1.0027331616	-1.9880385983	-2.0075097411	 0.135551
H	 1.4770920644	-2.655282635	-0.4211519195	 0.149185
H	-1.2793526588	-2.654703271	-1.3174113752	 0.131406
H	-2.0701016086	-2.3658796282	 1.0827238941	 0.157212
95.6358	126.439	148.5104	271.7457	355.1913	455.9883	543.7455	576.1443	689.8923	728.7709	756.7235	778.9899	844.2224	870.9651	878.8755	959.8304	981.7531	994.1414	1050.7934	1078.3114	1117.7173	1136.0241	1224.1553	1224.5679	1299.2034	1354.2236	1372.3399	1408.9231	1518.0544	1794.0939	2357.2077	3051.1774	3098.1385	3166.8365	3176.6725	3510.5832
N=C1OCC2C(C#N)N12	[NH][C]1OC[C@H]2[C@@H](C#N)N12	
InChI=1S/C5H5N3O/c6-1-3-4-2-9-5(7)8(3)4/h3-4,7H,2H2	InChI=1S/C5H5N3O/c6-1-3-4-2-9-5(7)8(3)4/h3-4,7H,2H2/t3-,4+,8?/m1/s1
