16
gdb 15954	3.24737	1.86306	1.37041	1.1651	70.51	-0.2331	0.0365	0.2696	917.1171	0.128926	-346.530328	-346.522683	-346.521738	-346.562405	28.859	
C	-0.0763380577	-1.1322913785	-0.3572434454	-0.463943
C	-0.0653191181	 0.0514253231	-0.1459002839	 0.347124
C	-0.03473353	 1.4758630109	 0.1053789694	-0.334667
C	 0.0228607108	 1.9727867266	 1.5791970361	-0.083664
O	 1.1968062205	 2.7660439274	 1.3103764408	-0.302042
C	 1.3113310501	 2.2154662182	-0.000337213	 0.472613
C	 2.6049544061	 1.7310193773	-0.5572614495	-0.336159
C	 1.9134430476	 2.961769895	-1.137793594	-0.337845
H	-0.092075952	-2.178219524	-0.5401225801	 0.20018
H	-0.821459045	 1.9820067658	-0.4625871049	 0.114225
H	-0.8206122495	 2.5858608285	 1.9110111635	 0.112183
H	 0.219231729	 1.1788087428	 2.3077089709	 0.114933
H	 3.491743771	 1.8958912575	 0.0450404521	 0.125704
H	 2.6007049973	 0.8100547443	-1.1309195052	 0.126423
H	 1.4468992331	 2.8861374737	-2.1149777032	 0.118215
H	 2.3478579366	 3.9304297613	-0.9140470535	 0.126718
72.5716	124.814	188.1561	275.6562	298.048	413.6312	486.5302	533.4755	585.5823	623.0015	640.6992	747.7287	756.5938	868.102	877.885	908.7371	973.3529	987.7267	1017.2342	1047.5442	1067.3077	1071.9802	1087.9969	1163.4754	1185.382	1217.1558	1219.8902	1331.0929	1351.0547	1382.3163	1447.1714	1494.0128	1526.3481	2236.7338	3035.0568	3056.5289	3091.2949	3126.2958	3131.9856	3211.3541	3226.9109	3503.3633
C#CC1COC11CC1	C#C[C@H]1COC21CC2	
InChI=1S/C7H8O/c1-2-6-5-8-7(6)3-4-7/h1,6H,3-5H2	InChI=1S/C7H8O/c1-2-6-5-8-7(6)3-4-7/h1,6H,3-5H2/t6-/m0/s1
