16
gdb 109498	2.29956	1.60597	0.98438	3.1381	66.68	-0.2627	-0.0502	0.2125	1136.182	0.124411	-475.052922	-475.044753	-475.043809	-475.086384	29.951	
O	-0.0378543054	 1.4938426802	 0.1520563315	-0.420921
C	 0.0552273923	 0.0962125849	 0.0991267951	-0.05459
C	-1.3422287373	-0.5569632742	 0.0013718681	-0.275256
C	-2.0481158848	-0.2302278868	-1.2900648601	 0.433867
N	-2.0987682878	 0.923298579	-1.804914286	-0.545958
O	-2.598059453	-1.3481930547	-1.8510723938	-0.237133
C	-2.254349256	-2.5301067208	-1.1231302617	-0.200133
C	-1.3559097278	-2.0761887071	 0.0309152328	 0.379261
O	-0.7771741704	-2.802938944	 0.7914568189	-0.297387
H	-0.5875182665	 1.7623531867	-0.6026012917	 0.30141
H	 0.668541199	-0.2499046743	-0.7488846439	 0.091752
H	 0.5366552773	-0.2479865615	 1.018682432	 0.130019
H	-1.9372632396	-0.1875898868	 0.8470251212	 0.153754
H	-2.591103148	 0.9191577684	-2.6987798742	 0.23336
H	-3.1616027407	-3.0149118153	-0.7457535128	 0.153086
H	-1.7296373014	-3.2309744338	-1.7803787853	 0.154868
52.241	149.1283	150.6321	174.9041	265.1826	341.5169	419.7146	512.2142	548.2568	588.4153	604.913	658.5517	689.112	794.432	858.0535	886.2503	962.4425	986.0725	1047.9743	1076.3106	1097.57	1111.4126	1161.819	1196.2914	1203.0824	1227.3842	1273.7729	1316.1941	1377.6133	1390.4238	1467.5369	1482.6935	1512.0601	1766.6319	1866.6487	2970.5294	3037.8846	3046.3796	3093.0703	3093.7616	3485.7561	3665.2157
OCC1C(=N)OCC1=O	OC[C@H]1[C]([NH])OCC1=O	
InChI=1S/C5H7NO3/c6-5-3(1-7)4(8)2-9-5/h3,6-7H,1-2H2	InChI=1S/C5H7NO3/c6-5-3(1-7)4(8)2-9-5/h3,6-7H,1-2H2/t3-/m1/s1
