17
gdb 105301	2.67436	1.09073	0.95734	3.6961	72.55	-0.2562	-0.0488	0.2074	1273.736	0.132095	-458.953032	-458.943541	-458.942597	-458.987798	33.238	
C	 0.1328910462	 1.2961227109	 0.2428088263	-0.261594
O	-0.2863939393	-0.0017120567	-0.1751204563	-0.283431
C	 0.439747559	-0.5343019423	-1.2217759572	 0.321938
C	 1.7886490159	-1.1569436892	-0.9352982875	-0.361906
C	 0.6073304997	-2.0588195661	-1.2092204247	-0.17652
C	 0.0115099869	-2.8302164242	-0.0817493659	 0.179086
O	-0.4625481072	-3.9297570506	-0.2136967842	-0.260064
C	 0.246825253	 0.0691939436	-2.5742362733	 0.130105
O	-0.443566873	 1.0287773636	-2.7997037465	-0.263356
H	 1.1923504142	 1.2954272921	 0.5335975259	 0.108057
H	-0.0313060741	 2.0362038884	-0.5448617169	 0.149316
H	-0.4759384756	 1.5461420943	 1.1134053794	 0.137425
H	 2.5741171356	-1.1062532593	-1.6809244535	 0.140435
H	 2.1218458635	-1.0810014215	 0.0943707959	 0.145414
H	 0.5627233216	-2.5689431156	-2.1655695401	 0.121655
H	 0.0480918884	-2.3195586522	 0.9015833024	 0.092506
H	 0.8137178453	-0.4514152252	-3.3806817339	 0.080935
75.8075	107.1998	110.9162	175.0122	182.5623	222.4111	252.4557	323.6953	367.1003	390.6115	446.585	552.2606	599.8418	804.4047	830.2333	861.1384	904.4702	972.6934	1025.3881	1039.2137	1061.3614	1076.5336	1098.4594	1173.9844	1177.6546	1210.4529	1224.9022	1319.9666	1351.3327	1427.6089	1437.8968	1464.2924	1481.4931	1483.4312	1512.818	1820.1205	1827.2752	2863.8941	2931.7083	3009.7853	3099.0664	3137.0006	3141.3879	3177.2949	3229.4518
COC1(CC1C=O)C=O	CO[C@]1(C[C@H]1C=O)C=O	
InChI=1S/C6H8O3/c1-9-6(4-8)2-5(6)3-7/h3-5H,2H2,1H3	InChI=1S/C6H8O3/c1-9-6(4-8)2-5(6)3-7/h3-5H,2H2,1H3/t5-,6+/m0/s1
