19
gdb 107100	2.74259	1.27075	1.0169	3.08	76.65	-0.24	-0.029	0.211	1231.3315	0.156861	-422.994328	-422.985303	-422.984359	-423.028698	32.971	
C	-0.0378981688	 1.5289280418	 0.1582254829	-0.378597
C	-0.020488151	 0.0179478398	-0.1116207941	-0.291708
C	-1.3823417154	-0.5901479689	-0.0036923847	 0.49692
C	-2.091536893	-1.0666553249	 1.2270577383	-0.342972
C	-1.9206327543	-2.0060392196	 0.0462239905	-0.214682
C	-2.8425066293	-1.5406593336	-1.0881640248	 0.017421
O	-2.3616208666	-0.1920865704	-0.9862188021	-0.311482
C	-2.4961672959	-2.2034159114	-2.4073417184	 0.142631
O	-1.7711417397	-1.7411298129	-3.2452927623	-0.22876
H	 0.9619999598	 1.9558136775	 0.0394560206	 0.113849
H	-0.7091739649	 2.0354374195	-0.540943737	 0.141192
H	-0.3824461226	 1.7452715811	 1.1745576564	 0.116842
H	 0.3670042422	-0.177550431	-1.1178544603	 0.124976
H	 0.6442986683	-0.4889487117	 0.5977918237	 0.101288
H	-1.4543832994	-1.3030121941	 2.0741619331	 0.119792
H	-3.0709161489	-0.6704285116	 1.4807926354	 0.117034
H	-1.410895402	-2.9586508961	 0.1020354063	 0.109021
H	-3.9257859452	-1.6232755425	-0.9132182899	 0.094867
H	-2.9672825832	-3.2089571712	-2.5246896737	 0.072369
62.1811	79.348	123.7439	194.2042	215.2036	249.0861	326.216	373.012	406.1283	455.0827	650.0311	729.2874	783.5274	785.9441	843.8941	871.1444	886.614	955.2752	968.2481	980.4964	992.378	1003.5687	1054.3539	1065.9775	1076.3365	1099.3184	1131.0694	1194.6888	1234.0351	1257.8848	1298.9161	1344.9043	1362.428	1405.0237	1414.873	1415.5258	1473.103	1486.3626	1497.6664	1510.3605	1845.6258	2846.3691	3000.3026	3035.3024	3041.1299	3074.8201	3111.5162	3113.8084	3121.0406	3198.5681	3207.9032
CCC12CC1C(O2)C=O	CC[C@]12C[C@H]1[C@@H](O2)C=O	
InChI=1S/C7H10O2/c1-2-7-3-5(7)6(4-8)9-7/h4-6H,2-3H2,1H3	InChI=1S/C7H10O2/c1-2-7-3-5(7)6(4-8)9-7/h4-6H,2-3H2,1H3/t5-,6-,7-/m0/s1
