16
gdb 17009	4.03309	2.19037	1.90375	2.5592	63.52	-0.2479	0.0665	0.3144	750.6316	0.131795	-383.687925	-383.68166	-383.680716	-383.718002	24.884	
C	-0.0427803835	 1.5798937548	-0.1690296338	-0.291592
C	 1.5290609276	 1.6089829912	-0.1838367227	-0.291592
C	 1.5088431779	 0.1086561663	 0.1767375918	 0.271177
C	 1.9818481302	-0.7549818455	 1.3137106894	-0.154551
O	 0.8180906074	-1.4964660491	 1.7076153038	-0.260461
C	-0.3795138716	-0.7986804457	 1.3359573613	-0.154551
C	 0.0397183011	 0.0814681484	 0.1905776399	 0.271177
O	 0.7774065603	-0.5905112234	-0.8312847515	-0.286135
H	-0.4653205365	 2.1886000835	 0.6331916772	 0.113395
H	-0.5575084777	 1.8039608482	-1.1051741276	 0.117668
H	 2.0174251692	 1.8516128046	-1.1294310365	 0.117668
H	 1.9438248045	 2.233185529	 0.6104961763	 0.113395
H	 2.7528331863	-1.4880447604	 1.0584807409	 0.121203
H	 2.3571813781	-0.1176042209	 2.1303129329	 0.095997
H	-1.1275216538	-1.559853442	 1.0950393316	 0.121203
H	-0.7627234996	-0.1753389987	 2.1597052471	 0.095997
200.1535	206.4841	285.5784	317.7533	477.9662	498.5138	640.5601	681.6133	744.269	760.7988	839.25	885.4289	908.2926	937.7967	947.0959	964.7363	1008.4355	1051.2044	1102.0146	1128.1608	1179.5416	1213.4463	1219.2397	1230.4492	1232.3328	1263.8229	1273.3898	1352.234	1393.9737	1416.2382	1462.5823	1482.8403	1502.2284	1511.0878	2978.1757	2984.5838	3070.8168	3076.8748	3078.6645	3081.3982	3122.449	3138.7697
C1CC23COCC12O3	C1C[C@@]23COC[C@@]12O3	
InChI=1S/C6H8O2/c1-2-6-4-7-3-5(1,6)8-6/h1-4H2	InChI=1S/C6H8O2/c1-2-6-4-7-3-5(1,6)8-6/h1-4H2/t5-,6+
