14
gdb 15763	3.10964	1.37921	1.02651	3.1803	68.55	-0.2588	-0.0581	0.2007	1128.0191	0.104443	-382.503023	-382.494416	-382.493472	-382.538312	28.416	
C	-0.0275048984	 0.8440099464	-1.1397445901	-0.503953
C	 0.0120219686	-0.3329616162	-0.2905709098	 0.06043
C	 0.0441642933	-1.3082389753	 0.4196868202	 0.058462
C	 0.0436313136	-2.4630351365	 1.289585002	 0.210193
O	-0.8321639976	-2.679078071	 2.1019222129	-0.290171
C	 1.195243435	-3.4194208948	 1.1401804706	-0.006609
C	 1.679429956	-3.8154857957	-0.1984582018	-0.186294
O	 2.4182721965	-2.9127854107	 0.6082029642	-0.216252
H	 0.9686335319	 1.0953428333	-1.5179596352	 0.163423
H	-0.6834123479	 0.6755237695	-2.0010693544	 0.163691
H	-0.4156500714	 1.7087639377	-0.5914133747	 0.165728
H	 1.2843948361	-4.1212819638	 1.9670394713	 0.121264
H	 2.1098996014	-4.8080267821	-0.3208742163	 0.130322
H	 1.2168212929	-3.3805178708	-1.0822989689	 0.129767
19.6073	75.8688	81.7471	140.4454	231.0709	272.548	352.8511	404.8758	443.6171	605.5965	646.3029	751.4937	880.3291	887.382	946.3123	1044.7939	1052.4041	1058.6268	1095.4099	1155.2249	1165.6248	1253.5164	1281.8696	1385.354	1409.3136	1468.4433	1473.0446	1514.3138	1755.4836	2340.7265	3033.1889	3090.1659	3096.4799	3102.6849	3143.6645	3184.7884
CC#CC(=O)C1CO1	CC#CC(=O)[C@H]1CO1	
InChI=1S/C6H6O2/c1-2-3-5(7)6-4-8-6/h6H,4H2,1H3	InChI=1S/C6H6O2/c1-2-3-5(7)6-4-8-6/h6H,4H2,1H3/t6-/m1/s1
