20
gdb 105893	2.55158	1.62363	1.18285	1.5896	78.98	-0.2318	0.0628	0.2946	1102.8642	0.170988	-403.046223	-403.037874	-403.03693	-403.079235	32.414	
C	-0.2068173193	 1.5759446717	-0.0952931144	-0.431966
C	-0.0308594067	 0.0752693735	 0.0691319741	-0.044238
C	 1.1674985179	-0.6262461369	-0.575109278	-0.01288
C	 2.1855975743	-0.1850623868	 0.5199591181	-0.113858
C	 2.5931393952	-1.6421076797	 0.6855475087	-0.19792
N	 1.0903662525	-1.8024965966	 0.4376592458	-0.217648
C	 0.8173489017	-0.4802260917	 1.2302143924	 0.339469
C	 0.445841729	-0.5319161533	 2.6910619687	-0.209673
O	 1.2000617802	-1.4750650933	 3.4356991065	-0.40885
H	 0.736131969	 2.1131309551	 0.0509228584	 0.117947
H	-0.5756350243	 1.8180900558	-1.0977597444	 0.121484
H	-0.931875021	 1.9707254217	 0.6244378584	 0.120535
H	-0.9735507945	-0.4689576586	-0.0664798814	 0.077173
H	 1.3803664412	-0.8321372708	-1.6265803018	 0.078137
H	 2.7872334341	 0.7285541551	 0.5612721881	 0.065894
H	 3.199199252	-2.0893769272	-0.1100751251	 0.094473
H	 2.924080044	-1.9805783327	 1.6682594391	 0.111763
H	 0.6225064306	 0.4436625805	 3.1578936715	 0.11783
H	-0.6339531786	-0.7390310485	 2.7673007814	 0.096476
H	 1.0089884827	-2.3405703475	 3.0566829339	 0.295849
56.916	169.3699	207.8935	222.1723	245.3457	296.9947	374.6217	447.5305	500.7559	531.6323	656.3847	707.8177	737.4244	821.9531	853.7764	876.2652	917.9519	926.6299	956.3219	998.006	1036.5849	1054.9645	1061.4365	1086.8932	1099.109	1117.5738	1147.6934	1153.603	1174.693	1219.2348	1227.7752	1247.1434	1271.3429	1290.9116	1313.5658	1383.1505	1398.6465	1414.486	1426.9207	1490.338	1495.5285	1500.7943	1516.873	2973.5595	3030.8267	3037.5472	3040.5229	3053.471	3066.104	3090.8174	3094.9062	3101.8692	3127.5062	3802.8222
CC1C2C3CN2C13CO	C[C@H]1[C@H]2[C@@H]3CN2[C@]13CO	
InChI=1S/C7H11NO/c1-4-6-5-2-8(6)7(4,5)3-9/h4-6,9H,2-3H2,1H3	InChI=1S/C7H11NO/c1-4-6-5-2-8(6)7(4,5)3-9/h4-6,9H,2-3H2,1H3/t4-,5-,6-,7+/m0/s1
