19
gdb 81021	2.56688	1.80291	1.35526	2.349	75.26	-0.2336	0.0185	0.2521	990.8513	0.160365	-423.022284	-423.014521	-423.013577	-423.053734	32.143	
O	-0.198700864	 1.3742177403	-0.0330050523	-0.463951
C	-0.0118079749	-0.029822461	 0.0093870031	 0.090236
C	 0.1397543444	-0.6291394939	 1.4454724722	-0.119893
C	-1.4110051306	-0.503405994	 1.5730026969	-0.279906
C	-1.4312614903	-0.6705569815	 0.0186222147	 0.412867
O	-2.4249699651	-0.0556121366	-0.7437669674	-0.502932
C	-1.3380444935	-2.1536506517	-0.3549554012	-0.296249
C	-0.2177379126	-2.8117027531	 0.4170067805	-0.067991
C	 0.4956887426	-2.0892244114	 1.2829407946	-0.070337
H	 0.6422321627	 1.8054174319	 0.1445379278	 0.288436
H	 0.7071321262	-0.3647794984	-0.7490667626	 0.063493
H	 0.7695776603	-0.0920021871	 2.156436578	 0.05717
H	-1.9299406776	-1.2478449069	 2.1801502972	 0.094269
H	-1.7142360481	 0.505770917	 1.856124513	 0.101485
H	-2.2682141502	 0.8948188776	-0.6768613893	 0.288822
H	-2.3010752754	-2.6422542281	-0.1533931878	 0.114339
H	-1.1748210052	-2.2402153281	-1.4375365656	 0.112234
H	-0.020554315	-3.8658232225	 0.2465358947	 0.090674
H	 1.3139924761	-2.5150758725	 1.8547024034	 0.087234
216.6066	217.534	246.9581	261.9296	355.8949	384.8216	408.0606	446.2513	483.4632	494.0752	539.971	651.3803	717.9405	744.1742	853.3476	878.937	909.4986	930.4673	951.5483	970.6851	981.3713	1007.6742	1052.3959	1070.097	1096.7933	1136.3917	1161.8598	1170.7715	1183.9121	1212.3117	1227.0496	1256.5862	1294.505	1307.4114	1352.9193	1385.5275	1406.5684	1423.0083	1472.2607	1488.8899	1695.7315	3013.5392	3021.4442	3041.7331	3071.9391	3094.8968	3137.6427	3164.183	3187.8667	3780.1018	3831.2455
OC1C2CC1(O)CC=C2	O[C@H]1[C@H]2C[C@]1(O)CC=C2	
InChI=1S/C7H10O2/c8-6-5-2-1-3-7(6,9)4-5/h1-2,5-6,8-9H,3-4H2	InChI=1S/C7H10O2/c8-6-5-2-1-3-7(6,9)4-5/h1-2,5-6,8-9H,3-4H2/t5-,6+,7-/m1/s1
