21
gdb 76202	2.16787	1.47374	1.21707	1.2546	79.46	-0.2194	0.0648	0.2842	1172.2335	0.179843	-424.194829	-424.184848	-424.183904	-424.229291	36.897	
C	 0.044902688	 1.6195007475	-0.1959913338	-0.423483
C	 0.0273542039	 0.1124345785	-0.0712856981	-0.16822
C	 1.3175353311	-0.7173353813	-0.1521321347	 0.281025
C	 1.3149643428	-2.041868382	-0.8764958133	-0.450274
O	 2.53906235	-0.0200096304	-0.1862804375	-0.461578
C	 0.5874395579	-0.5717883263	 1.1437438451	 0.420108
C	 1.1062095395	-0.0032330106	 2.4574924987	-0.351777
C	 0.434239539	-1.2513666221	 3.0708383841	-0.077543
O	-0.070548968	-1.6705882538	 1.7785759078	-0.314242
H	 0.9850794082	 2.0296951861	 0.1816466129	 0.12878
H	-0.0597716238	 1.9333584757	-1.2409459392	 0.112318
H	-0.7770108739	 2.0746064556	 0.367447934	 0.118633
H	-0.8447771247	-0.3841557426	-0.4923635621	 0.089884
H	 1.4024749723	-1.901466987	-1.9611444919	 0.103391
H	 2.1583691855	-2.6549440103	-0.5427462638	 0.123713
H	 0.3936361978	-2.5937959888	-0.6755168614	 0.136894
H	 2.6843169578	 0.2813692701	-1.090513735	 0.281719
H	 2.1917606977	 0.0535980157	 2.5415265929	 0.127707
H	 0.666756229	 0.9504521825	 2.756839321	 0.111134
H	 1.1198323535	-1.993193736	 3.4963295859	 0.106422
H	-0.3803980434	-1.0639850905	 3.7786284283	 0.105387
86.3142	151.6063	155.7753	161.9136	189.7096	213.2589	226.2717	260.8326	293.3423	388.9691	454.9964	505.7369	545.4654	619.3115	700.2387	786.7018	811.1099	873.9498	936.3971	959.6686	969.9448	1006.0431	1023.9478	1067.6623	1079.3191	1110.8614	1139.5706	1163.158	1170.5724	1185.1311	1210.9553	1240.652	1254.1688	1287.5821	1344.7018	1360.8525	1408.4862	1412.332	1467.5763	1481.2919	1492.8966	1496.802	1501.0777	1513.9837	1533.6534	3023.7379	3026.7484	3029.0569	3070.527	3079.7352	3083.8702	3089.03	3113.7535	3124.6618	3134.6979	3137.0698	3784.4268
CC1C(C)(O)C11CCO1	C[C@H]1[C@@](C)(O)[C@]21CCO2	
InChI=1S/C7H12O2/c1-5-6(2,8)7(5)3-4-9-7/h5,8H,3-4H2,1-2H3	InChI=1S/C7H12O2/c1-5-6(2,8)7(5)3-4-9-7/h5,8H,3-4H2,1-2H3/t5-,6+,7+/m0/s1
