19
gdb 84660	2.30402	1.79937	1.31123	2.8565	75.8	-0.2397	-0.0057	0.234	1023.5126	0.160886	-423.019089	-423.010982	-423.010038	-423.051404	32.307	
O	 0.1074093318	 1.2929309187	-0.3407264033	-0.451014
C	 0.0409148195	-0.1307533169	-0.0850098437	 0.043094
C	 0.8490349372	-0.5069031529	 1.1245372389	-0.148036
C	 0.2955248963	-0.6793605259	 2.3294118529	-0.036392
C	-1.1567594961	-0.5570119394	 2.5892392598	-0.081325
C	-1.8579402166	 0.7628442937	 2.2725003276	-0.293029
C	-2.0648478595	-0.4296272912	 1.385429966	-0.047487
C	-1.4439605472	-0.5617603368	 0.0035154421	 0.108693
O	-2.1967590135	 0.11702875	-0.9844083779	-0.442896
H	 0.4033848813	 1.718399813	 0.4694568965	 0.286678
H	 0.4609571442	-0.5934335507	-0.9849724748	 0.093215
H	 1.9248018103	-0.5859067895	 0.9966514904	 0.095829
H	 0.9287953719	-0.9178703595	 3.1806363063	 0.098344
H	-1.5262220294	-1.0971729326	 3.4546235396	 0.089027
H	-2.6777149038	 1.0614738148	 2.9170361783	 0.116907
H	-1.2453857629	 1.5846661389	 1.9225924921	 0.101317
H	-3.0383817051	-0.9046217865	 1.458181169	 0.095338
H	-1.4806891681	-1.6259392307	-0.2630346631	 0.086068
H	-1.8504499103	 1.0201844134	-0.9868518267	 0.285669
99.7465	146.3295	239.1451	272.4063	289.2763	347.7488	419.6126	465.6801	498.04	501.6447	601.7295	698.0592	741.846	771.8063	786.7188	834.0401	865.2958	916.5788	955.282	975.5831	1005.4751	1032.7593	1044.8801	1064.4122	1094.5265	1105.4169	1127.2456	1147.9554	1194.5226	1234.8824	1239.6753	1278.0881	1333.291	1361.722	1396.661	1398.0345	1413.5821	1431.4311	1444.5976	1486.3216	1701.0388	3022.8601	3046.6148	3139.3127	3147.4031	3152.7404	3163.37	3176.4642	3228.9352	3748.1933	3831.8113
OC1C=CC2CC2C1O	O[C@H]1C=C[C@H]2C[C@H]2[C@H]1O	
InChI=1S/C7H10O2/c8-6-2-1-4-3-5(4)7(6)9/h1-2,4-9H,3H2	InChI=1S/C7H10O2/c8-6-2-1-4-3-5(4)7(6)9/h1-2,4-9H,3H2/t4-,5+,6-,7+/m0/s1
