21
gdb 95779	2.16275	1.60968	0.99592	3.0751	78.39	-0.2552	-0.0236	0.2316	1224.4196	0.183265	-424.27485	-424.265957	-424.265013	-424.308153	34.426	
C	-0.1078949741	 1.5408480654	 0.0363504792	-0.399864
C	 0.0516114814	 0.0213542491	 0.0275734697	-0.080834
C	 0.7586892493	-0.5112428835	-1.245111701	-0.195118
C	 0.9518261432	-2.0327883225	-1.2112499221	-0.222124
C	 1.7325492172	-2.4683786129	 0.0342410075	-0.213993
C	 1.0341986595	-1.9963911486	 1.3253046485	 0.060296
O	 1.776490795	-2.3227633601	 2.4665430402	-0.444209
C	 0.7976692792	-0.489090157	 1.2492942479	 0.359446
O	 1.2294653821	 0.2283367316	 2.1284133153	-0.338429
H	 0.8677024012	 2.0347492026	 0.0070991971	 0.128689
H	-0.6870393515	 1.869527291	-0.8316816258	 0.110658
H	-0.6167342604	 1.8786775987	 0.9423384193	 0.129155
H	-0.9424789643	-0.4508397528	 0.0614272262	 0.097737
H	 0.1767571933	-0.212972837	-2.1238921151	 0.103186
H	 1.7361866176	-0.0184818622	-1.3360625972	 0.10713
H	-0.0293082807	-2.5267678504	-1.2245923771	 0.099461
H	 1.4754065638	-2.3619957747	-2.1149674476	 0.103897
H	 1.849950102	-3.5555085361	 0.0750996154	 0.111285
H	 2.7424316809	-2.0393007218	 0.0201148437	 0.107841
H	 0.039280378	-2.4755169834	 1.3705094451	 0.08533
H	 1.9211688674	-1.4780173254	 2.9234506308	 0.290459
89.6835	131.3646	187.1119	238.231	281.952	305.2139	347.9328	375.9532	408.2495	420.1906	465.0887	549.249	620.7792	677.9434	793.7673	841.9427	874.9443	902.3112	913.5735	988.6163	1008.9065	1028.981	1075.8216	1100.7978	1116.0359	1149.5331	1153.1357	1165.1639	1235.0474	1257.0357	1287.953	1317.3631	1334.6111	1346.4423	1371.9783	1376.6477	1389.9754	1413.7469	1443.1427	1485.9797	1489.0843	1490.9478	1495.4589	1503.7795	1791.0442	2940.7466	2993.367	3016.4032	3022.658	3034.6	3045.8276	3069.8732	3074.049	3087.7021	3115.8045	3125.0414	3675.0913
CC1CCCC(O)C1=O	C[C@H]1CCC[C@@H](O)C1=O	
InChI=1S/C7H12O2/c1-5-3-2-4-6(8)7(5)9/h5-6,8H,2-4H2,1H3	InChI=1S/C7H12O2/c1-5-3-2-4-6(8)7(5)9/h5-6,8H,2-4H2,1H3/t5-,6+/m0/s1
