19
gdb 53958	2.45629	1.26454	1.17885	4.6691	70.79	-0.2463	0.0154	0.2617	1158.3485	0.159147	-456.346849	-456.337513	-456.336568	-456.381114	34.996	
C	-0.0979938677	 1.4275040906	 0.0936808159	-0.415762
C	 0.0038295158	-0.1077983538	 0.0130065368	 0.033052
N	 0.836727496	-0.5755939787	 1.1327637717	-0.570542
H	 0.7223543693	-0.0017921451	 1.9598296583	 0.246586
H	 0.6513557249	-1.5414923373	 1.3809086976	 0.246755
H	 2.1825472715	-0.7259867444	-0.1965795265	 0.305575
C	-1.4037527517	-0.7044899363	-0.0605025376	 0.040499
C	-1.7536338409	-2.0432741396	 0.4639204282	-0.265671
N	-2.24675122	-0.8226207965	 1.1367661016	-0.327481
C	 0.7349912563	-0.44236122	-1.3171673757	 0.452225
O	 2.0276837592	-0.7540398509	-1.165527759	-0.375589
O	 0.1933176126	-0.3883288675	-2.388829935	-0.349464
H	 0.8968334316	 1.8781990357	 0.1592816128	 0.129926
H	-0.596661424	 1.8148916594	-0.7964489563	 0.156414
H	-0.6803720044	 1.7227013972	 0.9728860612	 0.123973
H	-1.9386405981	-0.3614212471	-0.9401653447	 0.123456
H	-2.5144087482	-2.6333432424	-0.037898014	 0.13323
H	-0.9969763404	-2.6428477807	 0.9655737771	 0.101308
H	-1.6825629716	-0.6575521925	 1.9694254076	 0.211511
64.6654	73.1329	178.8545	232.578	253.3947	265.3346	316.5566	327.5319	374.948	414.6787	481.1378	520.6144	638.477	725.6801	761.9812	796.5021	848.151	863.2203	879.4084	917.5547	962.5559	974.8294	984.2148	1020.5098	1102.8625	1136.5108	1166.4044	1178.219	1215.1273	1236.8389	1260.6395	1296.6047	1310.9965	1396.038	1407.9761	1421.1096	1490.5425	1498.2908	1518.61	1644.4623	1863.089	3038.3813	3104.9413	3109.3173	3142.1632	3167.7718	3190.2821	3468.4053	3494.6744	3516.9249	3603.6813
CC([NH3+])(C1CN1)C([O-])=O	C[C@@](N)([C@H]1CN1)C(=O)O	
InChI=1S/C5H10N2O2/c1-5(6,4(8)9)3-2-7-3/h3,7H,2,6H2,1H3,(H,8,9)	InChI=1S/C5H10N2O2/c1-5(6,4(8)9)3-2-7-3/h3,7H,2,6H2,1H3,(H,8,9)/t3-,5-/m1/s1
