19
gdb 123400	4.74471	0.88487	0.8295	2.666	81.36	-0.2305	0.0263	0.2568	1424.9696	0.161905	-382.080827	-382.072642	-382.071698	-382.115236	30.614	
C	-0.0591376088	 1.5574209619	-0.1333593374	-0.357584
C	-0.1394989618	 0.0393711355	-0.2207079691	 0.043107
C	-0.2165256001	-0.7889769834	 1.0337743387	-0.24775
C	-1.4207222219	-0.6721260529	 0.1298357274	-0.276678
C	 1.3353164417	 2.073134169	 0.0564513071	 0.386766
C	 2.0530846521	 2.4193115392	 1.1864865158	-0.29814
C	 3.3288055759	 2.7903056758	 0.7116714206	-0.001961
N	 3.4155557456	 2.6902547449	-0.6112770712	-0.232415
N	 2.1951570117	 2.2515519185	-0.9816573441	-0.244405
H	-0.4974368427	 2.0007925166	-1.0378569152	 0.106393
H	-0.6756730463	 1.901523926	 0.7040415759	 0.115661
H	 0.4378038207	-0.389008185	-1.0360590786	 0.083552
H	 0.3171563914	-1.7321021841	 1.0651230084	 0.115368
H	-0.243254569	-0.2652424181	 1.9838783575	 0.112382
H	-2.2560325843	-0.0704503929	 0.4738462341	 0.111251
H	-1.7111977474	-1.5349491434	-0.4592118623	 0.113537
H	 1.697614677	 2.4060802706	 2.2043462628	 0.096758
H	 4.1837503126	 3.1305194892	 1.2778139303	 0.107099
H	 2.0078139634	 2.1093725425	-1.9601103406	 0.26706
26.1112	69.056	110.49	273.0579	302.6223	347.4292	402.0511	521.1681	659.6524	689.7346	742.4723	772.2611	795.8387	807.513	844.4783	890.4567	893.549	938.0478	954.7582	991.1921	1036.8436	1057.4346	1063.2119	1079.3751	1107.9638	1135.8346	1142.6388	1195.7476	1222.5245	1238.3444	1248.7406	1305.2889	1332.7695	1371.6551	1406.7143	1442.0798	1468.7578	1480.9232	1495.2514	1507.8874	1604.2874	3015.2852	3070.3277	3129.593	3134.0176	3139.5086	3207.7538	3222.7909	3241.4208	3265.192	3665.8194
C(C1CC1)C1=CC=NN1	C(C1CC1)c1ccn[nH]1	
InChI=1S/C7H10N2/c1-2-6(1)5-7-3-4-8-9-7/h3-4,6H,1-2,5H2,(H,8,9)	InChI=1S/C7H10N2/c1-2-6(1)5-7-3-4-8-9-7/h3-4,6H,1-2,5H2,(H,8,9)
