17
gdb 47142	3.04605	1.42535	1.02174	1.5543	76.96	-0.239	-0.0567	0.1823	1151.1087	0.136863	-418.011582	-418.003567	-418.002622	-418.044828	29.351	
O	 0.0817749757	-0.042773504	 0.1710281672	-0.310163
C	 0.0563205299	 1.1600141815	 0.1248608058	 0.342253
C	-1.1341860139	 2.0845030988	-0.1011902054	-0.346417
C	-0.489854296	 3.4842804741	-0.1339120935	-0.170669
N	 0.9583354354	 3.3309408024	 0.0802515202	-0.263396
C	 1.2407093964	 2.0931603068	 0.2441697679	 0.238644
N	 2.4807593673	 1.595577278	 0.5767372018	-0.1041
C	 3.2116779622	 0.6899326244	-0.298189398	-0.219085
C	 3.6983774115	 2.0829850376	-0.0419152474	-0.222136
H	-1.6454624712	 1.8128541743	-1.0291307485	 0.140132
H	-1.8557971551	 1.9554294338	 0.7112819159	 0.143245
H	-0.648601863	 3.9954898171	-1.0899135399	 0.12017
H	-0.8885973989	 4.1490990742	 0.6403686824	 0.122314
H	 3.6810810256	-0.1559201509	 0.1937115526	 0.132872
H	 2.7863647946	 0.4767289292	-1.2749222888	 0.131443
H	 3.5867563207	 2.8188704976	-0.8334898337	 0.135959
H	 4.5314426687	 2.2498888648	 0.6338415914	 0.128934
76.5806	86.7911	157.7511	177.8022	259.9594	355.9408	433.9904	534.5751	573.3902	662.1372	696.4357	751.7868	808.6876	826.4028	888.2331	934.1994	972.0061	1024.1999	1029.1386	1050.7224	1068.3967	1128.5455	1132.7677	1171.1172	1172.9789	1179.5439	1233.7711	1249.7827	1253.875	1336.2212	1428.3757	1445.8595	1495.9794	1496.377	1523.7303	1683.0322	1838.3893	3040.3727	3065.0405	3066.7409	3107.1272	3117.9371	3121.3144	3202.3177	3215.5951
O=C1CCN=C1N1CC1	O=C1CCN=C1N1CC1	
InChI=1S/C6H8N2O/c9-5-1-2-7-6(5)8-3-4-8/h1-4H2	InChI=1S/C6H8N2O/c9-5-1-2-7-6(5)8-3-4-8/h1-4H2
