23
gdb 115395	3.14469	0.97118	0.86264	2.2848	81.19	-0.2548	0.0639	0.3187	1425.889	0.206888	-425.44304	-425.433494	-425.43255	-425.477153	36.714	
O	-0.0243252669	 1.436136365	-0.0184241763	-0.424408
C	 0.0362485847	 0.0176398111	 0.0311580099	-0.096543
C	-1.3870165826	-0.5292865248	-0.0101504952	 0.057377
C	-2.1212439262	-0.1336348802	-1.3029667637	-0.203948
C	-3.552407136	-0.689799645	-1.3376591301	-0.229147
C	-3.5877073739	-2.2137643122	-1.1406844749	 0.147089
O	-3.0947389683	-2.9102336769	-2.285281332	-0.444823
C	-2.8347645791	-2.6160861128	 0.1389862611	-0.221771
C	-1.4047846785	-2.0556865074	 0.171405076	-0.221296
H	 0.8744321422	 1.7768365269	-0.0330353207	 0.287068
H	 0.61089952	-0.3853514735	-0.8204082607	 0.079063
H	 0.5347552401	-0.3248969243	 0.9526672739	 0.08211
H	-1.9260823565	-0.0772777856	 0.8358643755	 0.078969
H	-2.1281864866	 0.9544165426	-1.4055256499	 0.116441
H	-1.5510291139	-0.5113503415	-2.1665975304	 0.076366
H	-4.1419887721	-0.2190891398	-0.5399775902	 0.093559
H	-4.0394890718	-0.4412489752	-2.2863387174	 0.098986
H	-4.6295182279	-2.5421744424	-1.0592420575	 0.077267
H	-2.1954238223	-2.6135093397	-2.455114328	 0.277994
H	-3.3910890701	-2.237672318	 1.0067737995	 0.092119
H	-2.8214998871	-3.708136049	 0.2153375075	 0.099301
H	-0.8074172527	-2.524086861	-0.6254290919	 0.0847
H	-0.9167022046	-2.3343001865	 1.1127018555	 0.093525
82.3983	121.0129	185.6641	206.8213	232.9567	238.5451	267.9072	353.932	392.9363	402.6254	442.1217	491.3146	517.6946	676.6331	778.4741	794.568	813.0656	897.1516	937.8045	950.4492	962.825	1001.2937	1038.5413	1061.6	1080.4106	1084.2889	1101.7808	1137.8759	1158.2007	1189.3789	1214.8762	1256.8903	1263.8241	1283.1448	1302.4549	1325.1811	1341.0494	1348.3389	1374.296	1377.7515	1387.5525	1401.3975	1429.7356	1460.5337	1471.8809	1483.6379	1492.1577	1504.3649	1519.1872	2951.4224	2979.0048	2982.8097	2993.239	3009.7931	3020.2298	3024.434	3051.3026	3056.3037	3075.805	3078.8881	3095.5787	3821.3977	3834.4752
OCC1CCC(O)CC1	OC[C@H]1CC[C@@H](O)CC1	
InChI=1S/C7H14O2/c8-5-6-1-3-7(9)4-2-6/h6-9H,1-5H2	InChI=1S/C7H14O2/c8-5-6-1-3-7(9)4-2-6/h6-9H,1-5H2/t6-,7+
