19
gdb 109269	3.21338	1.17825	0.92968	1.3764	87.33	-0.2112	-0.0255	0.1857	1273.5313	0.160365	-385.902509	-385.89404	-385.893096	-385.935573	32.412	
O	 0.0583181773	 1.422292694	-0.2270760998	-0.415306
C	 0.0141049155	 0.0213367815	-0.0293260809	-0.156585
C	-1.4187680478	-0.4613579509	 0.0506271406	 0.273998
C	-2.4423658372	 0.409382489	 0.1441388548	-0.151951
C	-3.8803312271	-0.0381275944	 0.0906462033	-0.309385
C	-4.17318434	-0.8588580451	 1.3215819171	-0.080509
C	-3.5896215329	-2.0539812187	 1.5278282852	-0.061611
C	-2.5308907993	-2.6096789145	 0.7164947448	-0.094157
C	-1.5776523541	-1.9031229842	 0.0538978502	-0.157182
H	 0.9661083879	 1.7115974157	-0.1021538	 0.289335
H	 0.5155850652	-0.5144646217	-0.8548863946	 0.09275
H	 0.5481574486	-0.262236707	 0.8931112721	 0.100654
H	-2.2226894783	 1.4668129156	 0.2384326582	 0.11029
H	-4.5511295682	 0.821560475	 0.0252717665	 0.099434
H	-4.0427197377	-0.655858555	-0.8039892814	 0.114808
H	-4.8855756902	-0.4741592648	 2.0464450047	 0.091821
H	-3.9136197266	-2.6567652792	 2.3737867777	 0.087302
H	-2.4278467783	-3.692744877	 0.729133408	 0.087773
H	-0.7748519969	-2.4729929782	-0.4131690364	 0.078522
77.2148	145.267	209.4012	222.6148	254.4573	296.4966	359.3365	420.4873	450.2875	473.9156	636.7323	638.8914	736.3236	770.5882	821.4401	858.8886	913.4495	948.518	961.6777	980.4014	1001.6384	1035.5899	1047.9355	1076.7592	1088.8058	1153.3019	1218.4633	1235.3725	1248.515	1260.4517	1265.3068	1326.989	1346.444	1408.8222	1454.5861	1476.0687	1478.0445	1511.3037	1587.426	1673.2595	1687.5971	2943.1029	2966.7448	2999.4612	3095.2591	3122.3685	3139.4559	3153.9454	3171.1242	3199.2618	3842.3842
OCC1=CCC=CC=C1	OCC1=CCC=CC=C1	
InChI=1S/C8H10O/c9-7-8-5-3-1-2-4-6-8/h1-3,5-6,9H,4,7H2	InChI=1S/C8H10O/c9-7-8-5-3-1-2-4-6-8/h1-3,5-6,9H,4,7H2
