15
gdb 25696	6.47162	0.75093	0.67611	1.4677	81.84	-0.2016	0.0011	0.2027	1616.1631	0.112692	-416.824541	-416.815716	-416.814772	-416.85989	31.177	
C	-0.0405210533	 1.4520998639	-0.0273442595	-0.511325
C	-0.0022000787	-0.0011373111	-0.0107583583	 0.269885
C	 0.0256823066	-1.206638468	 0.0008265787	-0.166343
C	 0.0548547671	-2.6194878752	 0.015169661	 0.132055
C	 1.1211088204	-3.4336662206	 0.2239540098	-0.148355
O	 0.6827390446	-4.7377542966	 0.1457887795	-0.174481
C	-0.6427031383	-4.6230596287	-0.1074581	 0.44687
N	-1.3304772315	-5.7928682572	-0.302674274	-0.601064
N	-1.0889457005	-3.4109584187	-0.1940529922	-0.384197
H	 0.6179777553	 1.8604687156	-0.8024215159	 0.149949
H	-1.0543858326	 1.8149827476	-0.2282557805	 0.154184
H	 0.2780591681	 1.8716560802	 0.9337185057	 0.149379
H	 2.1654264602	-3.2837492876	 0.4287534675	 0.145657
H	-0.9737572844	-6.586217978	 0.2094550485	 0.264969
H	-2.330153333	-5.6774515459	-0.2273674803	 0.272817
14.8389	87.2484	95.9298	235.8267	283.8615	308.1367	335.0627	408.1069	454.7914	477.1539	557.1591	593.7651	665.0059	730.1194	745.4531	771.444	940.2953	961.8282	1047.3135	1051.584	1052.241	1118.4039	1145.1123	1240.4939	1310.3342	1412.6068	1431.4131	1474.8946	1476.6803	1601.687	1612.3809	1691.2246	2365.2121	3024.2217	3082.1347	3089.5194	3308.5664	3577.4796	3686.4482
CC#CC1=COC(N)=N1	CC#Cc1coc(N)n1	
InChI=1S/C6H6N2O/c1-2-3-5-4-9-6(7)8-5/h4H,1H3,(H2,7,8)	InChI=1S/C6H6N2O/c1-2-3-5-4-9-6(7)8-5/h4H,1H3,(H2,7,8)
