18
gdb 7108	7.25894	0.85731	0.77774	4.8956	72.47	-0.2385	-0.0098	0.2287	1464.6879	0.152733	-381.157322	-381.147833	-381.146889	-381.19323	32.268	
C	-0.1633070525	 1.6745477656	 0.0137183847	-0.38928
C	 0.0216554745	 0.1555744945	 0.003858107	-0.154363
C	-1.3077143241	-0.5984457891	 0.0114938277	-0.318846
C	-1.1262261338	-2.1175356946	 0.0005735864	 0.428472
O	-0.0511775153	-2.6612815411	-0.0153868588	-0.305543
N	-2.3474610754	-2.7992720469	 0.0108606493	-0.329293
C	-2.596046621	-4.1698746387	 0.0052091585	 0.085615
N	-1.7012669104	-5.0663204925	-0.0084348121	-0.39799
H	 0.8030374345	 2.1875041126	 0.0079283696	 0.118272
H	-0.7250143389	 2.015987737	-0.8633418765	 0.111872
H	-0.7093586791	 2.0064612579	 0.9042187437	 0.111855
H	 0.5976502785	-0.1514411745	-0.8750087353	 0.118341
H	 0.6130613079	-0.1607879544	 0.8690955426	 0.118185
H	-1.9017364183	-0.3232149249	 0.8947907115	 0.117194
H	-1.917478158	-0.3129203723	-0.8577266175	 0.117374
H	-3.1715629606	-2.2193326277	 0.0234983797	 0.250083
H	-3.6787669728	-4.3548443264	 0.0147202324	 0.090379
H	-2.1419452253	-5.9850967444	-0.0095017129	 0.227674
26.2203	51.9512	99.6662	125.4001	174.6198	235.2414	249.3859	324.5283	389.2285	540.001	540.958	598.7993	748.6104	775.1477	822.5106	887.7758	908.0888	937.9594	1039.774	1052.7134	1062.7473	1113.4284	1135.1968	1173.7735	1251.7921	1263.2472	1318.3034	1326.665	1393.1278	1415.1454	1433.316	1463.4797	1486.677	1501.311	1508.2582	1534.3334	1738.2235	1834.6218	3005.5473	3020.4017	3027.8207	3035.8716	3055.2004	3077.6267	3103.2486	3105.4351	3494.9495	3633.8115
CCCC(=O)NC=N	CCCC(=O)NC=N	
InChI=1S/C5H10N2O/c1-2-3-5(8)7-4-6/h4H,2-3H2,1H3,(H2,6,7,8)	InChI=1S/C5H10N2O/c1-2-3-5(8)7-4-6/h4H,2-3H2,1H3,(H2,6,7,8)
