19
gdb 96460	2.538	1.6863	1.15272	3.1357	71.85	-0.2633	0.0802	0.3435	1089.4337	0.159814	-460.138837	-460.130768	-460.129824	-460.171481	30.861	
C	 0.4778790503	 1.5921499466	-0.0554287548	-0.400662
C	-0.0723412709	 0.1674054719	-0.0656205127	 0.072903
O	 0.4122760999	-0.434214533	-1.2517623561	-0.230114
C	-0.0719990024	-1.7073538483	-1.5643893975	 0.016905
O	 0.6522138202	-2.7485245231	-0.971746433	-0.21459
C	 0.2845964919	-3.0838279915	 0.3441985348	-0.136925
C	 0.469830086	-2.0094516272	 1.3962517826	 0.040946
O	 1.602733284	-1.144662161	 1.3259458749	-0.242582
C	 0.3023536149	-0.5613527333	 1.216849851	 0.054609
H	 1.5691275825	 1.5663080719	 0.0076534512	 0.144511
H	 0.1931110097	 2.1080881566	-0.9752269403	 0.125716
H	 0.0889464039	 2.1547912961	 0.7979778062	 0.114187
H	-1.1770446127	 0.2037593037	-0.0958031599	 0.070255
H	-1.1450727291	-1.7883287319	-1.3089474852	 0.071848
H	 0.0671419484	-1.8258449263	-2.6416199148	 0.116878
H	-0.7687872897	-3.4142400688	 0.3902079244	 0.09431
H	 0.9060730022	-3.945374665	 0.6115401435	 0.124645
H	 0.2669029212	-2.3996664109	 2.398940709	 0.088479
H	-0.0062950203	 0.0016742033	 2.1029691867	 0.088679
77.7963	178.0449	211.4526	242.2097	280.0443	300.3375	395.1865	398.7646	459.0132	605.0127	665.5445	679.3207	756.8718	808.4952	878.9257	933.2908	944.0378	990.3111	1026.4244	1046.9378	1071.3939	1111.5383	1133.3891	1150.0715	1167.5637	1189.5286	1228.2308	1287.7663	1305.3394	1338.4022	1348.8408	1383.4808	1395.1057	1408.523	1410.5448	1452.5351	1481.8721	1485.4503	1495.8562	1502.3587	1506.236	2928.8948	2937.3131	2951.952	3048.2702	3052.4871	3065.7668	3072.6633	3101.9767	3125.5171	3133.4357
CC1OCOCC2OC12	C[C@H]1OCOC[C@H]2O[C@@H]12	
InChI=1S/C6H10O3/c1-4-6-5(9-6)2-7-3-8-4/h4-6H,2-3H2,1H3	InChI=1S/C6H10O3/c1-4-6-5(9-6)2-7-3-8-4/h4-6H,2-3H2,1H3/t4-,5-,6+/m1/s1
