19
gdb 110717	2.56329	1.37681	1.12303	2.2523	75.93	-0.2293	0.0123	0.2416	1142.3748	0.159619	-422.976457	-422.968188	-422.967244	-423.009186	32.513	
O	 0.2893343735	 0.7325151689	 0.9618480012	-0.426051
C	-0.0587500424	 0.380515969	-0.3734156339	-0.134119
C	-1.3945659467	-0.3295371122	-0.310152437	 0.04701
C	-2.0261735504	-1.0077045657	-1.5722026597	-0.152489
C	-0.9960368453	-2.0834193551	-1.8972702968	-0.091812
C	-0.6749483692	-2.5868359168	-0.6966992395	-0.088656
C	-1.5290298642	-1.7819852836	 0.2722271097	-0.124707
C	-2.9005496508	-1.8492016121	-0.5351544744	 0.189875
O	-4.0506455825	-1.285121647	 0.0141456804	-0.444692
H	 1.1612696795	 1.1373352031	 0.9467777814	 0.286999
H	-0.1564472674	 1.2775708954	-1.0077753029	 0.080542
H	 0.6987957695	-0.2697006638	-0.8288732294	 0.094218
H	-2.0987453508	 0.3571440836	 0.1768922858	 0.057772
H	-2.4788364483	-0.4358216026	-2.3824083959	 0.061829
H	-0.6757828801	-2.3864063137	-2.8840349613	 0.099472
H	-0.0175514254	-3.4064080591	-0.4438338483	 0.100062
H	-1.473074224	-1.9891092547	 1.3397096629	 0.070386
H	-3.1835669301	-2.844408635	-0.8826240209	 0.088196
H	-3.845495015	-0.4173071188	 0.3770171385	 0.286166
84.3275	153.6545	224.1257	262.3442	276.1386	298.7755	372.4375	414.9563	499.8118	559.1956	588.611	714.4708	733.1826	789.1809	841.2	857.989	911.7634	915.3941	930.6154	951.0122	993.364	1044.959	1063.4119	1092.682	1097.3612	1124.213	1132.049	1158.6156	1203.6105	1214.6367	1245.4643	1245.8612	1252.8518	1270.5239	1294.0248	1335.2314	1403.2926	1428.5025	1463.7262	1522.4467	1610.6508	2961.7006	3021.052	3040.2229	3103.7691	3118.0197	3133.7937	3218.7162	3244.5115	3814.2661	3831.7435
OCC1C2C=CC1C2O	OC[C@H]1[C@H]2C=C[C@@H]1[C@H]2O	
InChI=1S/C7H10O2/c8-3-6-4-1-2-5(6)7(4)9/h1-2,4-9H,3H2	InChI=1S/C7H10O2/c8-3-6-4-1-2-5(6)7(4)9/h1-2,4-9H,3H2/t4-,5+,6+,7+
