20
gdb 82243	2.48679	1.95456	1.43652	1.4941	76.97	-0.2258	0.0732	0.2991	980.9117	0.173315	-403.110339	-403.102912	-403.101968	-403.141883	30.045	
C	 0.0242336497	 1.5997501267	-0.015988217	-0.393995
C	 0.0827607678	 0.0753674235	-0.002087502	 0.016211
C	 0.7499314923	-0.5603335792	-1.2322066884	 0.100005
O	 1.9383485911	 0.103685491	-1.7410861969	-0.295731
C	 2.7168846116	-1.1054472921	-1.5813146698	-0.095551
C	 1.6028699815	-1.751291602	-0.7333666171	-0.079162
C	 1.6716274574	-1.540889953	 0.7753878459	-0.039751
C	 2.1911874046	-0.2417085391	 1.2837644606	-0.258845
N	 0.7419760328	-0.4727315541	 1.2083665027	-0.107765
H	 1.0184994845	 2.031077497	-0.1524714466	 0.133454
H	-0.6077288393	 1.9514242724	-0.8373246537	 0.116642
H	-0.3954283693	 1.9691068584	 0.9233904688	 0.12532
H	-0.9426573607	-0.3176000206	 0.0298086483	 0.081545
H	 0.0379617779	-0.748129519	-2.0455146921	 0.074714
H	 2.8865116838	-1.5977515776	-2.5474538818	 0.101834
H	 3.6788640308	-0.9217805293	-1.0916728588	 0.107744
H	 1.3010257745	-2.7648710317	-0.9983572695	 0.077719
H	 1.7155930216	-2.422129323	 1.408871037	 0.088644
H	 2.584326773	-0.178491527	 2.2950854059	 0.111044
H	 2.6483794144	 0.4394461585	 0.5734775744	 0.135923
133.1392	214.9629	223.4762	245.5612	291.2766	407.9231	478.3223	512.995	646.0185	683.6439	729.7948	809.3077	812.7738	853.1266	889.3858	903.7217	944.3306	953.1254	998.641	1017.8981	1046.6899	1060.6813	1087.8283	1104.4987	1126.5337	1133.5529	1161.1277	1168.8804	1173.2193	1219.4258	1244.9969	1274.7697	1320.3104	1331.7175	1343.7305	1359.6317	1364.7236	1388.4764	1407.3856	1490.9378	1499.0963	1501.9248	1521.1275	3007.5214	3016.0923	3030.8738	3048.5153	3073.1711	3106.8514	3112.2424	3116.0915	3133.4055	3146.8748	3204.0848
CC1C2OCC2C2CN12	C[C@H]1[C@H]2OC[C@H]2[C@H]2CN12	
InChI=1S/C7H11NO/c1-4-7-5(3-9-7)6-2-8(4)6/h4-7H,2-3H2,1H3	InChI=1S/C7H11NO/c1-4-7-5(3-9-7)6-2-8(4)6/h4-7H,2-3H2,1H3/t4-,5-,6+,7+,8?/m0/s1
