23
gdb 101239	2.29963	1.30829	1.02882	3.0814	81.97	-0.2364	0.0703	0.3066	1292.6005	0.204532	-425.409198	-425.399145	-425.398201	-425.444186	37.664	
C	 0.1592462382	 1.2161459899	-0.3409349493	-0.242383
O	 0.3653391852	-0.1770852718	-0.2455828363	-0.253877
C	 0.7388704877	-0.6508256379	 1.0551849723	 0.116832
C	-0.4708823157	-0.7136463332	 1.9902655736	-0.404472
C	 1.4148884742	-2.0112049836	 0.8882017402	-0.008943
C	 0.6508961123	-3.0548528874	 0.012857575	-0.258975
C	 1.6859472919	-2.8394334451	-1.1336818967	 0.156155
O	 1.2153279695	-2.0925380764	-2.2268967208	-0.443498
C	 2.5895047513	-2.0535936866	-0.1340384273	-0.270416
H	 1.0446279932	 1.7768901602	-0.0062317242	 0.111497
H	-0.0257886013	 1.4438645007	-1.3934474076	 0.132899
H	-0.706923481	 1.5515247216	 0.2452689911	 0.115076
H	 1.4820009009	 0.0504911271	 1.4712000919	 0.067735
H	-0.1603395181	-1.0382483195	 2.9882675696	 0.118741
H	-0.9529030464	 0.2622505713	 2.0961215917	 0.115971
H	-1.212877134	-1.4227659145	 1.6115456893	 0.130117
H	 1.675433684	-2.3674392184	 1.8890540877	 0.067062
H	 0.6748823459	-4.0618154214	 0.4377661407	 0.094047
H	-0.3789971908	-2.8134286677	-0.2618570336	 0.104398
H	 2.1240853838	-3.7491819379	-1.5523354947	 0.075126
H	 0.8192394808	-1.2932949553	-1.8498618329	 0.286675
H	 2.946855842	-1.091018778	-0.5095777975	 0.097248
H	 3.4444470465	-2.6324655258	 0.2259551879	 0.092986
72.5607	82.5778	130.1805	181.1983	196.1815	208.1795	256.5192	341.765	375.396	400.4923	407.6217	480.8911	554.6369	572.1674	739.0271	756.4893	815.9427	863.9691	869.9551	939.6196	964.2528	992.3787	997.5341	1059.9347	1072.202	1097.5069	1128.4382	1134.8401	1167.1596	1178.5739	1184.9417	1192.2631	1229.9525	1253.8248	1272.4275	1276.4591	1343.8287	1350.2034	1372.8049	1389.2326	1405.8688	1456.2493	1469.1239	1481.1671	1482.2761	1487.0908	1494.0065	1504.053	1513.6445	2959.7277	2990.2718	3040.9905	3046.4652	3052.1312	3054.7771	3065.3877	3076.2933	3111.8169	3112.3739	3115.2617	3116.5468	3119.6044	3720.0698
COC(C)C1CC(O)C1	CO[C@@H](C)[C@H]1C[C@@H](O)C1	
InChI=1S/C7H14O2/c1-5(9-2)6-3-7(8)4-6/h5-8H,3-4H2,1-2H3	InChI=1S/C7H14O2/c1-5(9-2)6-3-7(8)4-6/h5-8H,3-4H2,1-2H3/t5-,6-,7+/m0/s1
