19
gdb 60330	3.14684	0.81998	0.68876	1.9463	74.05	-0.2646	-0.0838	0.1808	1645.9667	0.155591	-460.203377	-460.192929	-460.191985	-460.240367	35.734	
C	 0.1975235194	 1.6335410909	 0.3354743508	-0.38786
C	 0.0178691947	 0.1247556082	 0.1255567193	 0.010516
C	 0.5545428898	-0.3265744283	-1.2393677236	-0.395771
C	 0.6975003362	-0.6789772331	 1.2277586429	-0.05822
O	 0.0882560459	-0.3215652285	 2.4904685791	-0.21982
C	 0.586266319	-0.9130246955	 3.5704414059	 0.337334
O	 1.4848860835	-1.7178324648	 3.5989468617	-0.341794
C	-0.1120792885	-0.4623205307	 4.8592415927	 0.091234
O	-0.9963538509	 0.3447964156	 4.9101845801	-0.212192
H	 1.2573255461	 1.911085209	 0.2827222718	 0.111735
H	-0.3325496571	 2.1973284396	-0.4381177098	 0.115717
H	-0.1870865962	 1.9450085499	 1.3095950042	 0.137468
H	-1.0544851556	-0.1064474679	 0.1716518959	 0.091508
H	 1.6301919219	-0.1325374874	-1.3244250154	 0.119063
H	 0.3920503032	-1.3965720809	-1.4059638192	 0.116889
H	 0.0564278376	 0.2178003553	-2.0468916655	 0.12156
H	 0.5808933692	-1.7575872646	 1.0804370567	 0.123422
H	 1.7708006696	-0.4643485571	 1.2852308705	 0.123961
H	 0.3093051821	-0.9775502497	 5.745733932	 0.115249
33.6796	57.3834	99.989	113.8915	192.3032	214.3692	223.9871	251.7662	265.9606	363.9579	422.77	447.0993	514.0739	603.9789	716.0403	826.7223	912.0909	920.0064	934.3875	961.4467	977.8384	1029.9506	1031.0934	1153.3196	1187.7243	1201.7358	1274.7382	1306.7622	1331.6576	1373.7321	1378.0516	1399.7285	1407.6257	1428.34	1487.8221	1491.1638	1502.7265	1505.2437	1514.5324	1805.5736	1842.6097	2945.2532	3021.9963	3028.4758	3032.4344	3042.958	3088.064	3094.673	3100.9161	3109.0764	3124.9271
CC(C)COC(=O)C=O	CC(C)COC(=O)C=O	
InChI=1S/C6H10O3/c1-5(2)4-9-6(8)3-7/h3,5H,4H2,1-2H3	InChI=1S/C6H10O3/c1-5(2)4-9-6(8)3-7/h3,5H,4H2,1-2H3
