17
gdb 63995	3.51146	1.09654	1.02736	5.3546	75.42	-0.2718	-0.0522	0.2195	1218.0789	0.135143	-418.043824	-418.035071	-418.034127	-418.077628	32.09	
C	-0.2134101545	 1.604618898	-0.111295103	-0.427822
C	 0.035946414	 0.1032272252	-0.0336947819	 0.33638
C	-1.2462642827	-0.6983776262	 0.1554518641	-0.427816
C	 0.9336017832	-0.4336240258	-1.1925127756	-0.228205
N	 2.1691139962	-0.9152898436	-0.5613943572	-0.30632
C	 2.0150453353	-0.7018204618	 0.6818227691	 0.316113
O	 0.8829051106	-0.1394906572	 1.1502611975	-0.276231
C	 2.9990146404	-1.0280421786	 1.6791248174	 0.280418
N	 3.7844245696	-1.2875262319	 2.4850984199	-0.313348
H	 0.7308434479	 2.1492272139	-0.2000066157	 0.132601
H	-0.8276609305	 1.8367424169	-0.9871744345	 0.127609
H	-0.736587624	 1.9599100505	 0.7806465695	 0.135115
H	-1.9034898244	-0.5618092493	-0.7092774866	 0.127608
H	-1.0245530553	-1.7648555026	 0.253197782	 0.13261
H	-1.782165587	-0.3717474889	 1.0507881745	 0.135116
H	 0.4589607093	-1.2562563819	-1.7382890599	 0.128085
H	 1.1776924918	 0.3449133033	-1.9234015498	 0.128088
42.5293	148.1137	155.9567	218.7826	259.8133	308.7405	321.6794	381.938	411.4286	476.7769	547.9993	566.703	638.8245	720.3095	812.0736	872.4707	926.4615	951.3764	962.8897	993.3002	1028.9332	1029.6697	1163.7107	1171.8879	1252.2097	1282.7435	1290.1248	1356.9891	1403.7486	1419.8928	1475.7333	1483.4648	1491.9881	1495.7596	1507.4583	1696.8664	2373.5238	3038.8049	3039.6298	3045.4606	3074.9025	3113.5498	3117.8654	3122.2146	3125.6347
CC1(C)CN=C(O1)C#N	CC1(C)CN=C(O1)C#N	
InChI=1S/C6H8N2O/c1-6(2)4-8-5(3-7)9-6/h4H2,1-2H3	InChI=1S/C6H8N2O/c1-6(2)4-8-5(3-7)9-6/h4H2,1-2H3
