18
gdb 108014	3.60265	1.57489	1.42764	2.7243	73.62	-0.2329	0.0749	0.3078	952.16	0.149471	-401.85397	-401.847145	-401.8462	-401.885062	28.172	
O	 0.0017121144	 1.3476982033	 0.2051691325	-0.419973
C	-0.010414284	-0.0371862071	-0.0827267369	-0.166801
C	-1.4246780519	-0.5537182898	-0.1318331083	 0.325385
C	-2.5233323509	 0.0557394325	-1.0265603928	-0.28323
C	-3.438761904	-0.4005461585	 0.1194286764	-0.011319
C	-3.283200795	-1.9196246691	 0.2991905251	-0.096238
C	-2.3464119646	-1.7179099699	 1.451401015	-0.028545
C	-1.75757178	-2.0357850623	 0.1090347695	-0.161393
N	-2.2793832607	-0.2321646847	 1.1271132156	-0.230222
H	-0.6059214997	 1.4570595032	 0.9498462232	 0.290787
H	 0.4879855611	-0.1731028011	-1.0498646696	 0.107886
H	 0.5590066334	-0.6115618278	 0.6672377203	 0.087571
H	-2.4296185264	 1.143320758	-1.0681477167	 0.122195
H	-2.6794190525	-0.3617989854	-2.0238284287	 0.09911
H	-4.3924217611	 0.0746226314	 0.3487683121	 0.07937
H	-3.9680248021	-2.7306019209	 0.0906006147	 0.094543
H	-2.259439876	-2.1619594976	 2.4345007996	 0.098916
H	-1.2720443998	-2.9342490243	-0.2484546309	 0.091959
112.9992	178.7587	268.6675	369.7709	458.7118	499.6916	546.8742	659.3036	741.6232	793.2734	801.83	809.6815	817.8866	836.1782	856.6495	915.7489	932.0717	943.3906	994.1636	1007.4834	1016.5217	1040.9074	1043.0675	1065.6544	1075.8192	1109.6811	1148.4375	1189.5046	1208.5229	1214.3949	1229.5153	1268.8622	1292.7526	1310.5495	1361.5211	1379.9958	1443.4954	1478.6659	1499.0952	2964.5974	3057.4945	3067.988	3116.2437	3133.2458	3190.4396	3198.2355	3212.4491	3747.6253
OCC12CC3C4C(C14)N23	OC[C@@]12C[C@H]3[C@@H]4[C@@H]([C@H]14)N23	
InChI=1S/C7H9NO/c9-2-7-1-3-4-5(7)6(4)8(3)7/h3-6,9H,1-2H2	InChI=1S/C7H9NO/c9-2-7-1-3-4-5(7)6(4)8(3)7/h3-6,9H,1-2H2/t3-,4-,5+,6-,7-/m0/s1
