19
gdb 31960	4.73888	0.88824	0.78952	2.2294	80.04	-0.1928	0.0505	0.2433	1496.8104	0.159927	-419.251081	-419.241723	-419.240779	-419.285767	33.508	
C	 0.2687771839	 1.5233237209	 0.1886742846	-0.367374
C	-0.0712204206	 0.0472427686	-0.0868974724	-0.304925
C	 0.5573512264	-0.5033144081	-1.3234337362	 0.312041
C	 0.0422946286	-0.9451796226	-2.5081227703	-0.192288
N	 1.0413105357	-1.3610836943	-3.3788895816	-0.369209
C	 2.1473009414	-1.1666938311	-2.7143539235	 0.484697
N	 1.9379959903	-0.6523077052	-1.4716879296	-0.399356
O	 3.4048657685	-1.4087639718	-3.1071452408	-0.273046
C	 3.5211802971	-1.9507267315	-4.4235082593	-0.233622
H	 1.3461649362	 1.6690777489	 0.3221121782	 0.107983
H	-0.0492763072	 2.1565281477	-0.6446575595	 0.127402
H	-0.2278083233	 1.8743995751	 1.098607421	 0.114763
H	 0.2124669149	-0.556542728	 0.7869392832	 0.10387
H	-1.155483537	-0.0640928672	-0.1909982989	 0.118659
H	-0.9981134004	-0.9932627677	-2.7928465097	 0.101094
H	 2.65352996	-0.437195066	-0.798638897	 0.262819
H	 4.5894826275	-2.088016916	-4.5944401292	 0.127235
H	 2.9954458535	-2.9072824923	-4.4963120651	 0.139502
H	 3.0997425946	-1.2642346897	-5.1636190239	 0.139757
65.9163	80.337	136.2785	156.5502	185.0716	239.1147	279.7042	339.2327	424.9904	456.6492	494.5156	634.3419	680.3051	726.2635	732.4743	784.9938	825.577	954.5856	989.5554	1034.944	1066.5316	1080.1064	1090.0731	1175.9275	1184.288	1216.8082	1231.2037	1265.4203	1292.4729	1359.8744	1388.5716	1409.3707	1460.1523	1476.7514	1479.6732	1493.2599	1498.6335	1504.4025	1509.2587	1603.4499	1639.0826	3004.5512	3035.0428	3041.8416	3072.2194	3103.1979	3112.3961	3115.6366	3150.209	3245.578	3672.5278
CCC1=CN=C(N1)OC	CCc1cnc([nH]1)OC	
InChI=1S/C6H10N2O/c1-3-5-4-7-6(8-5)9-2/h4H,3H2,1-2H3,(H,7,8)	InChI=1S/C6H10N2O/c1-3-5-4-7-6(8-5)9-2/h4H,3H2,1-2H3,(H,7,8)
