19
gdb 64170	2.23553	1.48745	1.34682	3.645	75.38	-0.2619	0.0171	0.2791	1084.7733	0.157321	-419.201265	-419.191522	-419.190578	-419.235407	36.239	
C	-0.1779163289	 1.5044716911	 0.075545043	-0.430831
C	-0.0147761419	-0.0099171195	-0.004435845	 0.390387
C	-1.3033559135	-0.6971484528	-0.4198233739	-0.436539
O	 1.0810287386	-0.3627006619	-0.8960789976	-0.314412
C	 1.9458569142	-0.7292706182	 0.1819767471	-0.106322
C	 0.7840016945	-0.6228471651	 1.2222650877	 0.020566
N	 0.8952721856	 0.2106408541	 2.4056820958	-0.560617
C	 0.3036354599	-1.9415627592	 1.6366008109	 0.294133
N	-0.0451132476	-2.9925395082	 1.9674810082	-0.344795
H	 0.7770530015	 2.0053533639	 0.258890294	 0.110784
H	-0.5629100991	 1.8737798485	-0.8793414564	 0.131434
H	-0.8767794129	 1.7827821704	 0.868690214	 0.138522
H	-1.6247004473	-0.3132846965	-1.3929530011	 0.12638
H	-1.1679278446	-1.7771486185	-0.5025151964	 0.143021
H	-2.09683387	-0.4990272206	 0.307760219	 0.131322
H	 2.4025484046	-1.7137516387	 0.0391040192	 0.124129
H	 2.7342987595	 0.0147297933	 0.3685069825	 0.095285
H	 1.3607715404	-0.2874604759	 3.1570904515	 0.247763
H	 1.4400926269	 1.041968464	 2.2046049276	 0.23979
59.5965	148.7935	187.1794	197.1429	216.0246	243.0052	287.0877	300.7861	352.1969	372.5602	418.9501	472.2409	539.9877	574.359	652.0227	685.3724	816.4794	858.4623	884.2119	937.0697	974.0112	992.6096	1000.9767	1038.3578	1075.842	1156.8493	1174.6376	1202.6559	1223.5714	1271.7273	1335.3661	1350.1752	1400.9196	1415.6313	1471.1538	1482.3814	1492.8234	1506.0228	1517.9479	1656.7292	2357.0788	2992.0767	3041.939	3046.7474	3075.2564	3111.6357	3114.3744	3129.3267	3136.8533	3511.123	3595.8036
CC1(C)OCC1(N)C#N	CC1(C)OC[C@]1(N)C#N	
InChI=1S/C6H10N2O/c1-5(2)6(8,3-7)4-9-5/h4,8H2,1-2H3	InChI=1S/C6H10N2O/c1-5(2)6(8,3-7)4-9-5/h4,8H2,1-2H3/t6-/m1/s1
