19
gdb 110594	3.28358	1.39225	1.17186	2.0785	75.44	-0.2457	0.0606	0.3062	1090.0956	0.159535	-422.943899	-422.935985	-422.935041	-422.9761	31.62	
O	 0.4856724543	 0.2883668585	 0.9330582688	-0.420325
C	-0.0787009817	 0.3558636475	-0.3867756505	-0.116331
C	-1.468292126	-0.2568908862	-0.3970987467	-0.106795
C	-2.0048347781	-1.0410411575	-1.6197160843	-0.075822
C	-1.1046181923	-2.2936309921	-1.3519732445	-0.120188
C	-2.3057700481	-3.2592180993	-1.3962301794	-0.276921
C	-2.8680127403	-1.9964977255	-0.7140601112	-0.090929
C	-1.5457643896	-1.7220556028	 0.0641377465	 0.439854
O	-1.2316734376	-2.2083488906	 1.3126870081	-0.486459
H	-0.0325276592	 0.8694302888	 1.5002973444	 0.287628
H	-0.0765501254	 1.3905977224	-0.7577730965	 0.093944
H	 0.6045434044	-0.2202699962	-1.0179488033	 0.11653
H	-2.202881384	 0.4074675156	 0.0803892485	 0.057648
H	-2.2989119565	-0.6664173994	-2.5980686875	 0.077256
H	-0.0882743448	-2.4509674972	-1.7141634863	 0.071058
H	-2.7038273031	-3.4998250624	-2.3871596883	 0.088264
H	-2.2361098721	-4.1589078713	-0.7789900506	 0.105519
H	-3.8759750472	-1.7851931676	-0.3531944347	 0.06977
H	-0.4283833926	-1.7398429748	 1.5794895673	 0.2863
104.5153	144.7483	227.4816	275.3877	317.6184	361.5972	382.3337	493.6052	513.8263	582.5473	659.9923	738.173	747.1247	863.9782	874.3079	887.6743	912.6344	929.0453	944.2587	1000.8924	1011.8511	1025.6157	1062.909	1074.6639	1084.3467	1102.6699	1141.2246	1150.6048	1156.3551	1200.7314	1214.4436	1224.4847	1243.2913	1278.2321	1303.961	1369.6116	1405.3643	1417.0506	1429.3515	1505.5637	1507.599	2999.3401	3009.8503	3045.1386	3088.1622	3101.1698	3105.5871	3108.1659	3139.1248	3750.3527	3809.066
OCC1C2C3CC2C13O	OC[C@H]1[C@H]2[C@@H]3C[C@H]2[C@]13O	
InChI=1S/C7H10O2/c8-2-5-6-3-1-4(6)7(3,5)9/h3-6,8-9H,1-2H2	InChI=1S/C7H10O2/c8-2-5-6-3-1-4(6)7(3,5)9/h3-6,8-9H,1-2H2/t3-,4+,5-,6-,7-/m0/s1
