20
gdb 5955	2.73862	1.41247	1.19379	4.2485	72.26	-0.2671	0.0121	0.2791	1123.5262	0.17357	-386.177898	-386.16802	-386.167076	-386.2123	35.414	
C	 0.0901449815	 1.5568178048	 0.0842745036	-0.401186
C	 0.0453349487	 0.0328110825	-0.0551514237	-0.178029
C	 0.6704504035	-0.5347197687	-1.3428653802	 0.34435
C	 0.6044046719	-2.0661552783	-1.3156843679	-0.417867
C	 0.0080575122	 0.0382256201	-2.6018602487	-0.42158
O	 2.0690241611	-0.1024269946	-1.2596094037	-0.224269
C	 2.9393078327	-0.4035583437	-2.2326288957	 0.165172
O	 4.0883611316	-0.068908806	-2.190524352	-0.284311
H	 1.1140768173	 1.9253676821	-0.0149129687	 0.143088
H	-0.5283570371	 2.0572297163	-0.6669563189	 0.11518
H	-0.2848209636	 1.8564505259	 1.0672805706	 0.116151
H	 0.5723612266	-0.4235053764	 0.7903063982	 0.109494
H	-0.9917473628	-0.3200686494	-0.0054854423	 0.096867
H	-0.4378936901	-2.394090199	-1.2570244321	 0.125008
H	 1.0402367047	-2.5116004553	-2.2143210523	 0.118851
H	 1.1372041299	-2.4553801125	-0.4436649398	 0.133501
H	 0.1849309723	 1.1129715327	-2.6830575137	 0.138243
H	 0.3784049378	-0.4399019511	-3.5128018339	 0.120491
H	-1.0724647032	-0.1301997883	-2.5593413827	 0.125704
H	 2.5050451052	-0.9818524212	-3.0668076561	 0.07514
89.9414	96.6275	127.8097	167.7094	228.6138	238.3087	255.7322	269.5579	345.4355	358.6885	385.9063	458.3555	527.1363	572.5361	762.961	796.4636	891.2333	928.7815	960.1254	1002.6614	1012.9536	1046.701	1076.1531	1081.6094	1174.5511	1215.714	1222.4473	1267.0469	1327.5378	1378.5436	1400.2568	1410.6076	1416.0652	1434.6342	1470.8875	1482.1713	1491.1451	1498.6813	1503.6596	1507.6368	1514.3237	1849.4913	2979.5487	3032.7397	3042.2986	3045.5233	3049.6514	3071.6991	3108.8166	3110.3368	3116.5057	3122.3416	3129.2312	3132.4479
CCC(C)(C)OC=O	CCC(C)(C)OC=O	
InChI=1S/C6H12O2/c1-4-6(2,3)8-5-7/h5H,4H2,1-3H3	InChI=1S/C6H12O2/c1-4-6(2,3)8-5-7/h5H,4H2,1-3H3
