23
gdb 89174	2.23016	1.52644	1.15142	1.4256	86.54	-0.2402	0.0748	0.3149	1201.6371	0.204076	-388.269457	-388.259509	-388.258565	-388.303157	38.732	
C	-0.0785634564	 1.5633616021	 0.1072095407	-0.459963
C	 0.0453037601	 0.0472450573	 0.0695817207	 0.285156
C	-1.1671483618	-0.5972472806	-0.5919959803	-0.456787
C	 1.3375164227	-0.6882183705	-0.2355965652	-0.155913
C	 2.5760479745	-0.0373570685	 0.3534807445	 0.114804
O	 2.9757711674	 1.1700156917	-0.2674483798	-0.431398
C	 1.8934111002	-0.0040255495	 1.7636596002	-0.352015
C	 0.6914465726	-0.7625516595	 1.1722287408	 0.307459
C	 0.0541461422	-1.906959261	 1.9132519998	-0.496731
H	 0.8214046436	 2.0571268402	 0.4686851041	 0.13141
H	-0.2694539821	 1.9485693696	-0.9009388442	 0.111262
H	-0.9248013541	 1.8621102778	 0.7386166225	 0.100115
H	-1.3189650966	-0.1724262451	-1.5904507594	 0.11586
H	-1.0571457073	-1.6783448998	-0.7104633783	 0.112848
H	-2.0797456845	-0.4129103613	-0.0130644945	 0.112102
H	 1.3630901498	-1.4402245671	-1.0176168102	 0.072428
H	 3.4097891554	-0.7528103891	 0.3621825884	 0.070197
H	 3.7843909265	 1.4712729132	 0.1592248569	 0.28056
H	 2.4413798073	-0.5907533993	 2.5064405428	 0.092992
H	 1.6920136646	 0.9864034192	 2.1812810468	 0.095783
H	-0.4702656729	-1.5439855319	 2.8065270189	 0.117997
H	-0.6731804898	-2.4519011377	 1.3072526552	 0.119273
H	 0.8103017285	-2.6251878803	 2.2518325297	 0.112562
137.64	175.2224	178.71	197.4504	201.438	239.0586	282.9478	312.5571	315.7534	371.9725	409.5212	435.3259	461.7004	574.6435	631.2949	674.6132	694.1548	846.7445	882.906	937.9703	950.5534	971.2158	984.0851	990.3436	1031.7673	1034.6242	1054.3101	1123.6954	1146.8807	1155.7745	1176.5121	1198.9901	1219.4799	1253.799	1274.662	1307.2911	1329.0267	1405.2152	1415.7706	1424.1087	1430.0577	1440.2464	1480.756	1486.0872	1489.1298	1492.5203	1503.6021	1512.0191	1520.3541	2998.2622	3019.3661	3023.0566	3028.517	3051.3039	3069.7378	3077.1631	3085.2987	3099.6897	3106.3008	3120.1224	3158.6917	3164.3525	3812.43
CC1(C)C2C(O)CC12C	CC1(C)[C@H]2[C@@H](O)C[C@@]12C	
InChI=1S/C8H14O/c1-7(2)6-5(9)4-8(6,7)3/h5-6,9H,4H2,1-3H3	InChI=1S/C8H14O/c1-7(2)6-5(9)4-8(6,7)3/h5-6,9H,4H2,1-3H3/t5-,6+,8+/m0/s1
