20
gdb 7203	3.24831	0.93435	0.76119	0.8363	68.75	-0.2567	0.0709	0.3275	1501.6881	0.174242	-423.253592	-423.243235	-423.242291	-423.289611	35.519	
C	-0.3705803117	 1.1904087309	 0.7219930908	-0.224061
O	-0.2152583641	-0.2038421408	 0.8366999047	-0.230677
C	 1.04047193	-0.6592703052	 0.3899946303	-0.073827
C	 1.1105637161	-2.1790368997	 0.5590725147	 0.086912
O	 2.3030934097	-2.6714099939	-0.0475482128	-0.433211
C	 0.9764010304	-2.609163123	 2.0192481304	-0.183977
C	 0.9116388978	-4.1208966197	 2.1918854635	-0.07756
O	 0.8459717644	-4.3957478347	 3.5844359809	-0.424118
H	-0.2785531523	 1.526390304	-0.3228742717	 0.105604
H	-1.3696698723	 1.4401396077	 1.0870620079	 0.128389
H	 0.3746845852	 1.7348813677	 1.323405055	 0.10466
H	 1.1995162785	-0.4111828507	-0.6715202011	 0.09497
H	 1.8560488989	-0.1817770796	 0.9656639774	 0.071285
H	 0.2942058967	-2.6177928206	-0.027506263	 0.098002
H	 3.0465498062	-2.3774979497	 0.4912558813	 0.279039
H	 1.8315149195	-2.2234368766	 2.5935239626	 0.088088
H	 0.0792652372	-2.1499428247	 2.4450470478	 0.127627
H	 0.0260779777	-4.5134297111	 1.6652798459	 0.084861
H	 1.7963258948	-4.5829717492	 1.7304887104	 0.093579
H	 0.8281486774	-5.3501668711	 3.699397915	 0.284413
71.1228	81.7496	83.2065	117.4814	171.6778	204.2494	237.7129	265.5999	309.2724	327.0407	362.8482	445.7864	494.0462	546.808	799.0897	880.892	975.8453	997.6688	1023.6314	1063.2243	1083.6183	1117.5752	1132.2125	1170.9178	1183.3073	1209.0576	1228.3147	1233.4396	1256.5319	1294.3343	1318.3982	1326.7257	1382.0136	1411.6324	1421.303	1459.5586	1480.7324	1486.1608	1489.0541	1502.4706	1525.1126	1531.2651	2928.0359	2965.8324	2970.9921	2992.8392	3006.6073	3015.2174	3015.7703	3048.7556	3096.9932	3115.1347	3794.1615	3830.2115
COCC(O)CCO	COC[C@@H](O)CCO	
InChI=1S/C5H12O3/c1-8-4-5(7)2-3-6/h5-7H,2-4H2,1H3	InChI=1S/C5H12O3/c1-8-4-5(7)2-3-6/h5-7H,2-4H2,1H3/t5-/m0/s1
