19
gdb 77543	2.96493	1.2934	1.06417	1.0869	83.7	-0.2488	0.0457	0.2945	1175.8658	0.1575	-385.813561	-385.804641	-385.803697	-385.846578	35.002	
C	-0.1402284446	 1.5769534276	-0.0333837552	-0.448125
C	 0.0335015824	 0.06873009	-0.0114008096	-0.01985
C	 1.2041066629	-0.6443982975	-0.7399569648	 0.357665
O	 1.3723267221	-0.5841232673	-2.1076715785	-0.471799
C	 2.1764011786	-0.1578039103	 0.3801835776	-0.339898
C	 0.8818990901	-0.6560527282	 1.1062800185	 0.255072
C	 0.9156046861	-1.894023167	 0.1499347094	-0.327856
C	 0.6282563538	-0.6566166006	 2.5138438657	 0.054864
C	 0.4057382343	-0.6434174359	 3.6963738537	-0.357934
H	 0.791180762	 2.1280087031	 0.1151770847	 0.120141
H	-0.5588846657	 1.8893530397	-0.995699022	 0.128437
H	-0.8394520785	 1.8878278248	 0.7498766766	 0.125829
H	-0.9322773172	-0.4217527259	-0.1766984327	 0.073008
H	 2.1617223138	-1.0822098091	-2.3456208199	 0.284379
H	 3.0702355346	-0.7643594123	 0.5500792385	 0.092989
H	 2.4043718815	 0.9060195312	 0.4390647673	 0.104872
H	-0.0357921361	-2.4068304139	-0.0098930684	 0.100939
H	 1.7402277461	-2.5936764804	 0.3097607598	 0.091817
H	 0.2121069437	-0.635879678	 4.7401816291	 0.17545
117.8605	139.5547	163.105	204.6973	258.5566	316.0109	375.1891	394.9269	510.0786	521.9317	537.2579	550.6878	603.9185	623.4266	627.6149	652.6206	757.8437	803.0461	816.1186	973.8827	985.7291	1000.1194	1058.2625	1074.6517	1103.432	1118.301	1132.0541	1141.262	1146.009	1158.2255	1177.6359	1276.5182	1320.0932	1372.2821	1408.4042	1428.0893	1487.1088	1493.639	1509.78	1549.7892	2234.2251	3039.5037	3044.1765	3054.3707	3067.3083	3100.6272	3120.2581	3126.8794	3145.2161	3502.5257	3809.7078
CC1C2(O)CC1(C2)C#C	C[C@H]1[C@@]2(O)C[C@@]1(C2)C#C	
InChI=1S/C8H10O/c1-3-7-4-8(9,5-7)6(7)2/h1,6,9H,4-5H2,2H3	InChI=1S/C8H10O/c1-3-7-4-8(9,5-7)6(7)2/h1,6,9H,4-5H2,2H3/t6-,7-,8-/m1/s1
