17
gdb 65694	2.60296	1.20469	1.05573	6.5524	74.25	-0.2646	0.0079	0.2725	1189.2036	0.134873	-418.037225	-418.027986	-418.027042	-418.0716	33.248	
C	 0.0894822407	 1.5328844936	-0.3319498942	-0.454112
C	 0.025603768	 0.0494052092	-0.0323013991	 0.327537
C	 1.2579710979	-0.8028969243	-0.1158121481	-0.34144
C	 0.6573449022	-0.4948521346	 1.2485320724	-0.180588
C	 1.3492193587	 0.3835374414	 2.1479590356	 0.301108
N	 1.917576907	 1.0902660599	 2.8662105642	-0.340323
N	-1.1973548202	-0.6075638457	-0.4141761939	-0.33259
C	-2.3838648874	-0.4011772478	 0.232548292	 0.151905
O	-2.5157583945	 0.2520569872	 1.2422531915	-0.312115
H	 1.0326354129	 1.965715142	 0.0093091516	 0.143015
H	-0.0016939309	 1.7056955291	-1.409245485	 0.117166
H	-0.7287256046	 2.0468049563	 0.1783185904	 0.163298
H	 1.1616304111	-1.8246546807	-0.4651920899	 0.128623
H	 2.1900478462	-0.3136762516	-0.3718006117	 0.145706
H	 0.1123496594	-1.2948432105	 1.7349508783	 0.146808
H	-1.2220027746	-1.078815281	-1.3061144601	 0.251892
H	-3.2206373619	-0.9251376324	-0.2713016741	 0.084109
55.9396	102.3192	141.139	195.4539	219.6651	226.3083	320.0082	363.4282	409.8868	421.4374	517.9237	552.4713	563.014	694.7704	786.1975	824.4566	906.0878	937.5051	952.5624	1010.1889	1033.4187	1082.1825	1088.9623	1110.9166	1130.4104	1176.8847	1276.6081	1315.2918	1387.9063	1416.8947	1430.1213	1471.7743	1485.3057	1503.332	1504.0398	1811.5075	2355.5028	2936.3075	3044.7747	3117.8626	3137.4416	3144.4961	3189.9815	3238.4107	3611.2512
CC1(CC1C#N)NC=O	C[C@]1(C[C@H]1C#N)NC=O	
InChI=1S/C6H8N2O/c1-6(8-4-9)2-5(6)3-7/h4-5H,2H2,1H3,(H,8,9)	InChI=1S/C6H8N2O/c1-6(8-4-9)2-5(6)3-7/h4-5H,2H2,1H3,(H,8,9)/t5-,6+/m0/s1
