20
gdb 62171	5.73204	0.54801	0.52134	0.6813	78.63	-0.2385	-0.0338	0.2047	2026.4661	0.166766	-440.279951	-440.269271	-440.268327	-440.31751	36.089	
C	-0.0141374443	 1.4830914808	-0.0759101912	-0.334839
N	-0.0157701436	 0.0271411786	 0.0318770477	-0.076131
C	 0.6901390459	-0.4551636366	 1.2156118182	-0.140842
C	 2.2022233905	-0.1826051054	 1.1606109886	-0.287996
C	 2.947690182	-1.0061117321	 2.1877767007	 0.157564
O	 3.6810745885	-0.5598303482	 3.0303290067	-0.229822
C	-1.3664561254	-0.5009123956	-0.0673316928	-0.232852
C	-1.8954399186	-0.4001379007	-1.4914000739	 0.150954
O	-3.0568516689	-0.2865408864	-1.7795644008	-0.234703
H	 1.0080272087	 1.8614954493	-0.1449538706	 0.131091
H	-0.5397246345	 1.7876801633	-0.9860115378	 0.132163
H	-0.5103839383	 1.9750425023	 0.7812316932	 0.10537
H	 0.2768538437	-0.0272929734	 2.1487763986	 0.09861
H	 0.5336762076	-1.5393467497	 1.2715247328	 0.10442
H	 2.5612365196	-0.4802147603	 0.1654352799	 0.130547
H	 2.4485013281	 0.8690898446	 1.3220828865	 0.127184
H	 2.7670313533	-2.1049080514	 2.1100260779	 0.073502
H	-1.3449651895	-1.5741554913	 0.1693894566	 0.128278
H	-2.095386532	-0.0338796981	 0.6183634997	 0.110501
H	-1.095268653	-0.4718084296	-2.2631795999	 0.087004
43.9433	56.8235	72.7618	88.3479	121.2066	173.8161	241.0748	272.7139	293.9736	353.6262	378.8214	457.1293	529.8683	574.6827	755.0984	798.0643	857.5545	879.9624	1002.1042	1046.237	1065.3007	1072.2045	1089.0643	1110.2876	1155.7697	1186.68	1214.5095	1243.4879	1284.325	1300.853	1338.3116	1348.6777	1398.2498	1418.696	1430.6493	1455.4804	1467.8213	1472.2144	1492.1586	1504.7123	1507.6187	1838.9856	1842.2028	2848.6638	2878.9076	2926.1018	2940.5915	2956.1851	3025.2325	3032.8303	3043.9558	3074.9612	3113.9005	3124.4408
CN(CCC=O)CC=O	CN(CCC=O)CC=O	
InChI=1S/C6H11NO2/c1-7(4-6-9)3-2-5-8/h5-6H,2-4H2,1H3	InChI=1S/C6H11NO2/c1-7(4-6-9)3-2-5-8/h5-6H,2-4H2,1H3
