20
gdb 82570	4.06824	1.06089	0.9888	1.2105	78.99	-0.2356	0.0628	0.2984	1272.7179	0.170929	-403.078985	-403.070625	-403.069681	-403.112271	31.673	
C	-0.0738660175	 1.4551825269	 0.0571975026	-0.417986
C	 0.0355748324	-0.0453285022	-0.0531196443	 0.017951
C	 0.8125304612	-0.6491678174	-1.1582458967	-0.123464
N	 1.3663873157	-0.5966107645	 0.2614290968	-0.141445
C	 1.1817314236	-2.0902561705	 0.323549874	-0.250464
C	 0.7209954827	-2.1664604509	-1.1506316084	 0.28921
C	-0.4981998791	-2.9503809984	-1.6746192374	-0.136166
O	 0.3125946594	-3.6737558893	-2.6222200034	-0.274062
C	 1.5084698188	-3.0046602643	-2.1768610373	-0.134269
H	 0.8327345189	 1.935073994	-0.3213820579	 0.129809
H	-0.9297394748	 1.8263766701	-0.5161918417	 0.118375
H	-0.2032956177	 1.7574185635	 1.101197987	 0.126344
H	-0.8276631192	-0.5982166828	 0.3216513115	 0.080756
H	 1.2387771612	-0.0518394885	-1.9603856397	 0.093137
H	 2.140433973	-2.5835461717	 0.503762672	 0.113985
H	 0.4629930277	-2.4133811456	 1.0858349652	 0.103734
H	-0.975613431	-3.6201721726	-0.9467272212	 0.099442
H	-1.2722641044	-2.3456708266	-2.1651487389	 0.101419
H	 1.9893307469	-2.4371241263	-2.9847054394	 0.103389
H	 2.2394821421	-3.7042544131	-1.7491798529	 0.100303
65.9311	109.2725	185.6344	220.9972	246.8915	311.8386	371.293	422.3814	439.1771	549.757	737.6681	812.1658	829.7334	869.1624	873.8247	918.6778	953.6561	978.327	984.6158	1003.4977	1035.071	1038.1992	1041.8782	1124.4846	1144.085	1150.9642	1158.3227	1162.5148	1200.8827	1207.8307	1228.702	1259.9048	1285.4272	1307.4802	1339.3864	1384.6636	1412.6671	1440.3934	1488.4254	1491.9216	1498.979	1505.9507	1532.3131	2993.4088	3005.7518	3031.8771	3038.0345	3041.3906	3044.1334	3083.6666	3097.6415	3104.3368	3121.4436	3142.3676
CC1C2N1CC21COC1	C[C@H]1[C@H]2N1CC12COC1	
InChI=1S/C7H11NO/c1-5-6-7(2-8(5)6)3-9-4-7/h5-6H,2-4H2,1H3	InChI=1S/C7H11NO/c1-5-6-7(2-8(5)6)3-9-4-7/h5-6H,2-4H2,1H3/t5-,6+,8?/m0/s1
