19
gdb 78108	2.27098	1.6024	1.14834	1.4956	71.63	-0.2326	0.0689	0.3015	1109.7739	0.156563	-460.123294	-460.114045	-460.1131	-460.156278	36.397	
C	-0.1849387757	 1.5694975727	 0.0484176729	-0.464931
C	 0.0788769056	 0.0708532438	 0.0143487563	 0.427298
O	-1.1315072876	-0.6511192391	-0.2040488229	-0.482648
C	 1.2208287194	-0.4650252074	-0.9245111302	-0.358756
C	 1.8249305389	-1.2091346438	 0.2705979161	 0.324321
O	 2.4139422918	-2.4567779555	 0.2207238072	-0.459405
C	 2.2015568729	-0.2631479165	 1.3506579082	 0.054068
O	 2.674418619	 1.0411867541	 1.1373092289	-0.419672
C	 0.7452909452	-0.6004498177	 1.2190419055	-0.21093
H	 0.7324521275	 2.1214962725	 0.2552132188	 0.148493
H	-0.5851470043	 1.9090277726	-0.9164609242	 0.095512
H	-0.9235355623	 1.8027660467	 0.8218034674	 0.119401
H	-1.5742993847	-0.2502961445	-0.9602994629	 0.271943
H	 0.7983387354	-1.1403831685	-1.6720405073	 0.094559
H	 1.8714729813	 0.2688999524	-1.4093089289	 0.091499
H	 1.7760396369	-3.0748575583	-0.1542438824	 0.28811
H	 2.6598321266	-0.7713149563	 2.2007225448	 0.09826
H	 3.5835414329	 0.9773651199	 0.8253851426	 0.288609
H	 0.1803337913	-1.0296438974	 2.0383574802	 0.094271
133.7737	178.6556	231.0256	246.3445	277.0026	294.0368	307.3667	344.1166	368.4272	381.4357	415.8263	450.6773	525.8069	583.2444	630.6903	683.9903	798.0061	853.4982	883.0641	912.2796	945.8375	977.414	997.0366	1048.2011	1079.4911	1103.3024	1123.1792	1163.389	1209.4285	1223.8482	1246.3902	1263.4474	1295.5175	1320.4143	1371.866	1395.7794	1404.5935	1454.5868	1487.6574	1501.1323	1508.9934	3017.5561	3050.4828	3090.2244	3099.0446	3114.1244	3152.091	3185.1932	3789.6879	3799.1409	3804.9242
CC1(O)CC2(O)C(O)C12	C[C@@]1(O)C[C@@]2(O)[C@@H](O)[C@@H]12	
InChI=1S/C6H10O3/c1-5(8)2-6(9)3(5)4(6)7/h3-4,7-9H,2H2,1H3	InChI=1S/C6H10O3/c1-5(8)2-6(9)3(5)4(6)7/h3-4,7-9H,2H2,1H3/t3-,4-,5+,6-/m0/s1
