21
gdb 85061	2.3337	1.52108	1.07436	4.2901	78.04	-0.2582	0.0181	0.2764	1199.0943	0.182185	-424.291884	-424.2826	-424.281656	-424.325514	35.271	
C	-0.3150116102	 1.4845371266	-0.0832705798	-0.41168
C	 0.0260566005	 0.0146282087	 0.0716239735	 0.130359
O	 0.7544234698	-0.4174865305	-1.1051106911	-0.239221
C	 1.6024982688	-1.4318220757	-0.7909095529	 0.441626
O	 2.2992550487	-1.967231919	-1.6050031594	-0.348595
C	 1.4907239336	-1.731832344	 0.7041328029	-0.138208
C	 2.7766717634	-2.3029623282	 1.2936051905	-0.414835
C	 0.9191913419	-0.4089895806	 1.2636637063	-0.037483
C	 1.9951089438	 0.6193081032	 1.6292245577	-0.406081
H	 0.5861648334	 2.0928897754	-0.1880117389	 0.133946
H	-0.9345996881	 1.6353261127	-0.9711074918	 0.134487
H	-0.8755978302	 1.835191002	 0.7891553185	 0.120956
H	-0.9043466905	-0.5699390751	 0.1061048397	 0.086228
H	 0.7010251666	-2.494300077	 0.7844312088	 0.107674
H	 3.6050715745	-1.5937786024	 1.2208380393	 0.128897
H	 2.6434191985	-2.570762515	 2.3460273582	 0.113123
H	 3.0654072282	-3.199489607	 0.7396498106	 0.142067
H	 0.2907424647	-0.592186827	 2.1411521624	 0.078674
H	 2.6437168734	 0.8521879626	 0.777757255	 0.133318
H	 1.5437735372	 1.5543321983	 1.9716977086	 0.120698
H	 2.6291640721	 0.246082492	 2.4378096216	 0.124049
87.1558	136.2643	202.7748	230.6927	247.4744	254.2113	259.4458	316.7005	326.4486	452.9641	491.2945	531.6971	605.7987	673.4979	721.8902	764.1007	818.0588	851.961	952.2238	977.2147	1021.6179	1026.1539	1063.4619	1074.8115	1101.8275	1144.5384	1165.0262	1189.1806	1205.352	1259.7869	1307.9196	1342.649	1366.0946	1381.7148	1389.2423	1408.9357	1417.2659	1420.4061	1483.2961	1490.6532	1494.8032	1495.9653	1507.796	1514.852	1875.128	2996.3179	3000.2718	3040.608	3048.2494	3048.8312	3055.6316	3110.2487	3115.8446	3119.0114	3120.115	3129.5269	3134.8731
CC1OC(=O)C(C)C1C	C[C@H]1OC(=O)[C@@H](C)[C@H]1C	
InChI=1S/C7H12O2/c1-4-5(2)7(8)9-6(4)3/h4-6H,1-3H3	InChI=1S/C7H12O2/c1-4-5(2)7(8)9-6(4)3/h4-6H,1-3H3/t4-,5+,6-/m1/s1
