21
gdb 99668	1.93939	1.41093	0.96649	3.203	83.24	-0.2349	0.033	0.2679	1315.4871	0.182575	-383.265024	-383.255341	-383.254396	-383.300035	34.921	
C	-0.1019582445	 1.5284817828	-0.0016865681	-0.389532
C	 0.0002525648	 0.0026883689	 0.0233882278	-0.181396
C	 0.739423974	-0.5583107754	-1.2092059477	-0.112622
C	 0.996633586	-2.0134806043	-1.0369676849	 0.25958
N	 1.1625365751	-3.1552715878	-0.9553544834	-0.337161
N	 0.0292697784	-0.2646626391	-2.4382084561	-0.061177
C	-1.242078811	-0.954258848	-2.7657171975	-0.17618
C	-0.8240242792	-0.9254883136	-4.2562413927	-0.227132
C	 0.6101595475	-0.6477621087	-3.7442612045	-0.173367
H	 0.8910765878	 1.9902636785	 0.0309924105	 0.116591
H	-0.5997205532	 1.8717722199	-0.9114216273	 0.137098
H	-0.6661319128	 1.8907932123	 0.862377838	 0.117655
H	 0.5266705297	-0.3326459149	 0.9231291886	 0.11836
H	-0.9978589619	-0.4487957634	 0.0640641152	 0.117579
H	 1.7210901206	-0.0705467088	-1.27808877	 0.123618
H	-1.2942055333	-1.9793471035	-2.3702154433	 0.113861
H	-2.1448454365	-0.4097898861	-2.4727955174	 0.106168
H	-0.9752521473	-1.8407401701	-4.8277211963	 0.115239
H	-1.2502600718	-0.0797422092	-4.7979621204	 0.115719
H	 1.1922131796	 0.1422531285	-4.2295928651	 0.105721
H	 1.2156499079	-1.5651802879	-3.6975261754	 0.111378
76.9764	96.4061	108.8763	148.6819	173.6928	193.7982	242.3266	326.2068	351.3427	439.8118	533.6431	571.0736	678.806	744.6369	820.6144	849.4242	871.8477	921.9098	941.9262	955.0909	986.8641	1025.5038	1059.4673	1103.8114	1134.5061	1157.4367	1162.8237	1209.5431	1221.9356	1226.7255	1267.7463	1276.9961	1295.3535	1317.7216	1347.0322	1367.3412	1374.2677	1409.8509	1485.9625	1488.6944	1493.1909	1504.963	1509.7518	1531.4301	2337.576	2992.9962	2999.963	3023.3455	3040.0969	3044.2263	3066.8565	3071.3837	3080.4683	3091.5546	3107.1028	3131.1653	3148.604
CCC(C#N)N1CCC1	CC[C@@H](C#N)N1CCC1	
InChI=1S/C7H12N2/c1-2-7(6-8)9-4-3-5-9/h7H,2-5H2,1H3	InChI=1S/C7H12N2/c1-2-7(6-8)9-4-3-5-9/h7H,2-5H2,1H3/t7-/m0/s1
