21
gdb 108506	2.79688	1.42463	1.19571	0.9046	77.26	-0.246	0.0755	0.3215	1138.1649	0.183276	-424.223991	-424.215507	-424.214563	-424.257048	32.657	
C	 0.0437349214	 1.5518220744	 0.1073597123	-0.386085
C	-0.1170701416	 0.0372283361	-0.0634981662	-0.254564
C	 0.6412078527	-0.510345452	-1.2607932822	 0.419181
C	 0.1738135126	-0.0560866821	-2.6465877371	-0.272595
C	 0.6332046818	-1.2115951488	-3.5478521966	-0.097577
O	 0.5074745757	-2.3914483442	-2.7496473278	-0.264437
C	 0.8202646732	-2.0478895054	-1.419177954	 0.018106
C	 2.3063743243	-1.7703744811	-1.1143178806	-0.114821
O	 2.0845180757	-0.3433395519	-1.1073904835	-0.337984
H	 1.1030056799	 1.814552438	 0.1781160925	 0.138244
H	-0.3853014847	 2.099642508	-0.7379964018	 0.116067
H	-0.4563209008	 1.8980354011	 1.0165831194	 0.112007
H	 0.2462249599	-0.4713957377	 0.837766043	 0.098491
H	-1.1771521186	-0.2269497672	-0.1697493792	 0.097979
H	-0.9174594217	 0.0348751304	-2.6611584001	 0.104827
H	 0.6123302987	 0.9031306561	-2.9298565495	 0.116222
H	 0.0215926485	-1.3514814837	-4.4421771022	 0.110693
H	 1.6768940707	-1.0637388418	-3.8593608265	 0.104701
H	 0.2892085636	-2.7280642306	-0.7510714609	 0.085845
H	 2.6574995228	-2.1344261758	-0.1404179479	 0.099717
H	 3.0081768261	-2.0850022319	-1.8951917913	 0.105985
91.5932	124.6822	175.3277	218.5167	229.6859	317.6415	359.4021	385.3251	449.8085	606.2148	647.8451	670.6241	783.8205	828.3386	839.2545	900.4337	919.8962	959.3802	970.5506	996.8093	1014.9537	1020.2385	1051.6196	1059.05	1116.3574	1139.3824	1164.9402	1177.5435	1207.2797	1225.0791	1241.8143	1257.2227	1305.7631	1325.3699	1336.7286	1353.7592	1380.5771	1397.1061	1407.7826	1466.1848	1476.5482	1498.5669	1509.4395	1510.198	1521.4334	3006.6969	3014.6763	3021.6323	3039.9817	3052.7376	3058.7519	3066.7296	3098.5273	3102.9359	3106.5489	3119.6304	3120.0302
CCC12CCOC1CO2	CC[C@]12CCO[C@H]1CO2	
InChI=1S/C7H12O2/c1-2-7-3-4-8-6(7)5-9-7/h6H,2-5H2,1H3	InChI=1S/C7H12O2/c1-2-7-3-4-8-6(7)5-9-7/h6H,2-5H2,1H3/t6-,7-/m0/s1
