19
gdb 22151	5.65316	0.54319	0.52304	3.2903	79.13	-0.2511	0.0027	0.2538	2060.5175	0.156185	-456.301628	-456.290808	-456.289864	-456.340356	36.291	
C	-0.1728480764	 1.5048529641	-0.013134056	-0.471591
C	 0.0011678245	 0.0089050884	 0.0063292323	 0.340677
C	 0.0739517258	-0.7301126923	 1.3174584394	-0.280475
C	 1.3802872819	-0.4541107552	 2.0614610739	-0.074654
O	 1.2957138774	-1.0967284715	 3.3333219149	-0.180455
C	 2.4459126414	-1.2251244291	 4.0214080273	 0.128669
N	 2.432277791	-1.6899049506	 5.1945963739	-0.436795
N	 0.0964702604	-0.7100846413	-1.047045351	-0.156655
O	 0.030287516	 0.0693519101	-2.2117737533	-0.397843
H	 0.7104670915	 1.9939114724	-0.4381775633	 0.147411
H	-1.014256379	 1.7765618566	-0.6577034955	 0.153345
H	-0.3468543287	 1.9016319554	 0.9890633117	 0.121399
H	-0.7584497786	-0.4255452675	 1.9633171602	 0.124528
H	-0.0145698388	-1.8032494759	 1.1348424192	 0.132186
H	 2.2301973133	-0.8474644784	 1.4885647835	 0.118274
H	 1.533701472	 0.6244609644	 2.2029031961	 0.111397
H	 3.3332124226	-0.9032922265	 3.4575569535	 0.083526
H	 3.3814718525	-1.7382181127	 5.5588770442	 0.229067
H	 0.0813091311	-0.5974167605	-2.9047137508	 0.307987
17.5894	54.8519	66.1151	76.9586	115.9514	136.0376	224.6979	285.3763	334.8642	374.9971	394.4682	441.4547	552.2485	614.281	680.7642	798.7323	822.1346	832.547	981.3316	995.7244	1008.5094	1030.3822	1044.6254	1080.6963	1101.3655	1140.9628	1223.6625	1268.2646	1291.455	1317.0824	1322.4906	1398.1856	1402.8752	1409.593	1433.881	1474.0155	1481.0094	1485.8008	1517.4728	1728.2638	1749.3335	3001.4225	3018.6349	3040.5478	3042.3528	3052.1756	3100.186	3118.4081	3132.8427	3518.4759	3821.3162
CC(CCOC=N)=NO	CC(=NO)CCO[CH][NH]	
InChI=1S/C5H10N2O2/c1-5(7-8)2-3-9-4-6/h4,6,8H,2-3H2,1H3	InChI=1S/C5H10N2O2/c1-5(7-8)2-3-9-4-6/h4,6,8H,2-3H2,1H3
