18
gdb 109401	3.32276	1.17921	0.91074	3.0542	70.57	-0.2569	0.0055	0.2624	1254.3858	0.148576	-476.222176	-476.213792	-476.212848	-476.255567	31.003	
O	 0.0973281736	 1.3628385539	 0.5196693891	-0.421487
C	 0.0762222075	 0.0127212938	 0.1605183691	-0.10836
C	-1.329332203	-0.4881823697	-0.0998489983	 0.36442
N	-2.2845701372	 0.3381687229	-0.0594884378	-0.323977
C	-3.6953259945	 0.0056840181	-0.1182418773	-0.158688
C	-4.1259670197	-1.0229111227	-1.1584014752	-0.100946
O	-3.57706359	-2.3095943816	-0.9058505031	-0.212113
C	-2.2403078274	-2.4160243395	-1.238444773	 0.011722
O	-1.3310876214	-1.8343596267	-0.3028249217	-0.253461
H	-0.8286969111	 1.6482874188	 0.4466179944	 0.28637
H	 0.6739316585	-0.1715837788	-0.7476691663	 0.107198
H	 0.5146578359	-0.617380952	 0.9498326793	 0.117835
H	-4.003990966	-0.3577777726	 0.8718986201	 0.129808
H	-4.2534243714	 0.9309740892	-0.3030054514	 0.113351
H	-5.2129126372	-1.1421536943	-1.1264458438	 0.119017
H	-3.8420173882	-0.6876782241	-2.1681448581	 0.101807
H	-1.9853550175	-3.4764126881	-1.2390377137	 0.130785
H	-2.045221011	-1.9651990765	-2.2250123822	 0.096718
68.8552	131.6795	160.7264	216.5721	242.1758	352.7156	374.8479	418.5687	438.2594	516.5939	593.6327	618.4569	701.8165	782.5942	883.0073	923.7307	985.6587	1023.204	1040.7936	1082.3703	1121.7382	1123.1578	1146.9271	1191.4776	1231.5985	1244.5169	1267.987	1312.6082	1322.9649	1344.1191	1383.0536	1403.6225	1455.1033	1473.4788	1477.4561	1485.7211	1502.1028	1505.1914	1770.8897	2973.2154	2973.5665	2990.5495	3001.8494	3017.0419	3062.1496	3091.7454	3130.2394	3656.9017
OCC1=NCCOCO1	OCC1=NCCOCO1	
InChI=1S/C5H9NO3/c7-3-5-6-1-2-8-4-9-5/h7H,1-4H2	InChI=1S/C5H9NO3/c7-3-5-6-1-2-8-4-9-5/h7H,1-4H2
