16
gdb 43070	2.86122	2.0908	1.58572	3.6118	72.	-0.2189	-0.0036	0.2153	857.2851	0.127153	-400.743656	-400.737405	-400.736461	-400.774136	25.605	
O	 0.0207727108	 0.0199430418	 0.2257039572	-0.319368
C	-0.0565356836	 1.1961465863	 0.0391987091	 0.407499
C	-1.1689147642	 2.2371129394	-0.0653585066	-0.193579
C	-1.4376221315	 2.8859953503	 1.3432332049	-0.244817
C	-0.1980887067	 3.8456991722	 1.1625410387	-0.082098
C	 1.088543272	 3.421150753	 1.8459105391	-0.09594
C	 1.7101494223	 2.4888923374	 1.1205262385	-0.073657
N	 0.9906029291	 2.1910565489	-0.0951820729	-0.148135
C	-0.0259767415	 3.2759982324	-0.2656944179	 0.004912
H	-2.0188952062	 2.0632574208	-0.7229846931	 0.096811
H	-2.3804085306	 3.4371078549	 1.3329878612	 0.117308
H	-1.427892674	 2.212776103	 2.2021356459	 0.121304
H	-0.4346190473	 4.9050390948	 1.2652296601	 0.084986
H	 1.4309534799	 3.804481511	 2.7982095975	 0.108731
H	 2.6148727231	 1.9416868893	 1.345782256	 0.130183
H	 0.1182553682	 3.9114334644	-1.1387201677	 0.08586
143.5154	220.3937	304.185	407.2691	547.4315	609.6305	615.2686	710.3634	749.8305	779.2343	799.9134	847.4151	871.0417	893.5931	902.4162	931.2295	934.1626	989.1088	1002.737	1039.3062	1053.8197	1112.1441	1118.2601	1152.6864	1155.1436	1216.2379	1230.6804	1247.2853	1264.0349	1289.0478	1291.6499	1347.9477	1478.5909	1646.0695	1896.9376	3070.1068	3104.0414	3118.2316	3127.672	3134.9689	3215.7625	3244.4026
O=C1C2CC3C=CN1C23	O=C1[C@H]2C[C@H]3C=CN1[C@@H]23	
InChI=1S/C7H7NO/c9-7-5-3-4-1-2-8(7)6(4)5/h1-2,4-6H,3H2	InChI=1S/C7H7NO/c9-7-5-3-4-1-2-8(7)6(4)5/h1-2,4-6H,3H2/t4-,5+,6-/m1/s1
