17
gdb 43206	2.34096	1.63838	1.18647	2.8428	78.66	-0.2366	-0.027	0.2096	1072.4861	0.134916	-384.64633	-384.638192	-384.637248	-384.679616	30.845	
O	-0.0474157125	 0.0529164562	-0.4812965281	-0.288419
C	-0.065508005	 1.2056050782	-0.1749108941	 0.395304
C	-1.170973149	 2.2212359366	 0.1116255651	-0.159624
C	-1.6355788411	 2.1661480968	 1.6030908185	-0.228715
C	-0.5189158153	 3.1805183916	 1.9916911906	-0.230878
C	-0.0646745065	 3.2686892754	 0.5129314429	-0.045611
C	 1.0615006963	 2.2604402957	 0.0959817101	-0.30613
C	 2.1437404398	 1.940051365	 0.9950826199	 0.326148
C	 3.0191988722	 1.660097157	 1.771105751	-0.442525
H	-1.931593788	 2.3600417605	-0.6572500112	 0.095982
H	-2.6448249754	 2.5614784141	 1.7324490866	 0.115624
H	-1.5922918324	 1.1794778636	 2.0695983753	 0.122211
H	-0.9055138521	 4.1231919185	 2.3840899479	 0.108229
H	 0.2456995736	 2.8104321574	 2.678536799	 0.122594
H	 0.0104650843	 4.2568718076	 0.0623637607	 0.080635
H	 1.453304079	 2.5502956689	-0.8892350642	 0.134908
H	 3.8012098521	 1.4102492969	 2.44465141	 0.200267
45.7165	123.286	152.6397	190.6843	330.239	366.7813	496.8177	512.6797	591.5578	609.7571	611.9325	645.8905	716.8349	798.3596	819.6182	836.744	860.9123	930.0189	955.5854	1004.9116	1022.8151	1050.7333	1069.0839	1095.4454	1131.6132	1187.3055	1193.6915	1215.0863	1246.5677	1271.1058	1283.3982	1302.6931	1312.64	1478.9175	1495.5091	1895.0062	2231.0147	3016.1247	3068.3236	3072.9007	3106.6279	3114.1005	3123.599	3133.024	3503.1806
O=C1C2CCC2C1C#C	O=C1[C@H]2CC[C@H]2[C@H]1C#C	
InChI=1S/C8H8O/c1-2-5-6-3-4-7(6)8(5)9/h1,5-7H,3-4H2	InChI=1S/C8H8O/c1-2-5-6-3-4-7(6)8(5)9/h1,5-7H,3-4H2/t5-,6+,7+/m1/s1
