18
gdb 8446	4.13178	1.77327	1.55827	3.1833	71.75	-0.2318	-0.0032	0.2286	876.2447	0.154909	-347.823449	-347.816499	-347.815555	-347.854176	27.992	
C	-0.0157352915	 1.5205112878	 0.0228538048	-0.49278
C	 0.0125197898	 0.0100802854	 0.0265715023	 0.337223
C	 0.9604910901	-0.8063778434	-0.9094718743	-0.267649
C	 0.7099735556	-1.9505705283	 0.1279445191	-0.126207
C	 0.6532258533	-0.8069139652	 1.1942399087	-0.267651
C	-0.7765096256	-2.1868337859	-0.0891982174	 0.437713
O	-1.3790805683	-3.2222554171	-0.1776191638	-0.336442
C	-1.3219490961	-0.7432414758	-0.1685506825	-0.369943
H	 0.9874363499	 1.935153706	 0.1692018366	 0.11421
H	-0.4032296649	 1.9065492115	-0.9268229749	 0.119314
H	-0.6582396112	 1.9060647757	 0.8226046039	 0.119317
H	 0.6554683182	-0.97057229	-1.9473813177	 0.101678
H	 1.9918457572	-0.4468728767	-0.8713741635	 0.10468
H	 1.3457544138	-2.8280138246	 0.2205786393	 0.080687
H	 1.6523673022	-0.4474706238	 1.4528991361	 0.104678
H	 0.0640935413	-0.9715950144	 2.1014656744	 0.101675
H	-2.057296996	-0.5519624194	 0.6201647661	 0.119746
H	-1.8009421978	-0.5515468918	-1.1345811472	 0.119753
137.7558	217.0568	265.6303	299.0486	406.1954	466.2646	494.3054	538.734	622.7592	653.7827	768.4556	808.7236	813.6686	864.2744	933.8311	940.8174	948.6165	974.944	1024.1146	1045.8404	1060.6228	1090.6783	1130.0266	1143.3619	1194.3688	1216.1142	1232.9729	1242.8834	1262.4424	1281.9222	1341.5978	1416.5617	1459.8522	1489.0764	1492.9432	1493.3615	1525.6147	1869.946	3024.4655	3046.1944	3049.2249	3054.3699	3089.6257	3092.764	3094.5624	3112.1589	3115.2674	3149.4462
CC12CC(C1)C(=O)C2	C[C@@]12C[C@@H](C1)C(=O)C2	
InChI=1S/C7H10O/c1-7-2-5(3-7)6(8)4-7/h5H,2-4H2,1H3	InChI=1S/C7H10O/c1-7-2-5(3-7)6(8)4-7/h5H,2-4H2,1H3/t5-,7+
