19
gdb 92418	2.32964	1.50438	1.23209	1.3623	76.24	-0.2522	-0.0345	0.2177	1104.1359	0.158122	-423.008129	-422.999585	-422.998641	-423.041526	32.017	
C	-0.6325906603	 1.4063361367	 0.0141331081	-0.412496
C	 0.0276040896	 0.0458390728	-0.0394971579	 0.100609
O	 1.1821594788	 0.0013679505	-0.9170794777	-0.308163
C	 1.9806606837	-0.6487711778	 0.0811590208	 0.080869
C	 2.8739454576	 0.3195806455	 0.8836643777	-0.227982
C	 1.736580279	 0.5005454443	 1.9354334466	-0.309532
C	 0.8411595121	-0.4994506977	 1.1642941319	 0.176004
C	 0.2917557625	-1.6743549896	 1.8997817974	 0.062064
O	 0.5039510588	-1.9237625306	 3.0614499638	-0.255341
H	 0.0679108459	 2.1844462243	 0.3272720519	 0.127687
H	-1.0087201486	 1.6705854754	-0.9790987255	 0.134458
H	-1.4800721191	 1.3933772769	 0.7078124362	 0.124094
H	-0.7066937381	-0.7073178469	-0.367089192	 0.078046
H	 2.390763113	-1.6035992882	-0.2596330525	 0.086622
H	 3.7743955647	-0.1491098355	 1.2885744908	 0.110662
H	 3.1567924862	 1.2061186038	 0.312678627	 0.11571
H	 1.9842532938	 0.1127081123	 2.9246154625	 0.135866
H	 1.3339639495	 1.5086219714	 2.0479607224	 0.106791
H	-0.3331704591	-2.3553514077	 1.2753763782	 0.074031
80.3158	90.2509	202.0263	219.316	226.8815	280.5446	339.4885	397.9427	489.5187	520.2489	621.6485	724.93	739.0164	812.8165	848.4013	870.4523	894.6427	952.7052	959.5149	1034.8711	1041.6984	1081.5393	1099.4143	1111.1834	1126.3308	1190.0012	1209.7121	1236.322	1241.7012	1259.1383	1278.1752	1314.6712	1350.6504	1393.2628	1413.1373	1428.0876	1464.1129	1480.2624	1483.9725	1504.8012	1810.503	2854.4765	2970.9015	3040.8342	3062.9355	3073.3402	3083.3469	3110.2854	3121.4405	3125.011	3140.7263
CC1OC2CCC12C=O	C[C@H]1O[C@H]2CC[C@@]12C=O	
InChI=1S/C7H10O2/c1-5-7(4-8)3-2-6(7)9-5/h4-6H,2-3H2,1H3	InChI=1S/C7H10O2/c1-5-7(4-8)3-2-6(7)9-5/h4-6H,2-3H2,1H3/t5-,6+,7-/m1/s1
