17
gdb 71313	3.26113	1.49873	1.17864	3.0244	76.93	-0.252	0.0197	0.2717	1042.0536	0.136339	-380.790192	-380.782633	-380.781689	-380.822091	29.31	
C	 0.0511401324	 1.5407664868	-0.1397656689	-0.533962
C	 0.0442747164	 0.0356051876	-0.0932770377	 0.300212
C	 0.5303779307	-0.9770141364	-1.1318758735	-0.223648
N	 0.0410839167	-1.9283239613	-0.0451783561	-0.163383
C	 0.5538063114	-0.9375126606	 1.0261521224	-0.0505
C	-0.7980788692	-1.0170548989	 1.7652918787	-0.168095
C	-1.2055311713	 0.0745763247	 2.6307589925	 0.272623
N	-1.5312234669	 0.9421265115	 3.3226650975	-0.340624
C	-1.1209636601	-0.9536056849	 0.2579870758	-0.050503
H	 1.0737071087	 1.916318848	-0.2546542596	 0.127265
H	-0.5344608839	 1.9008598384	-0.9925765674	 0.127263
H	-0.3707783892	 1.974861189	 0.7706410729	 0.154778
H	-0.028666692	-1.0643797005	-2.0694965544	 0.106965
H	 1.6069648688	-1.048666928	-1.319285582	 0.106965
H	 1.5579921762	-1.0297096189	 1.441924581	 0.09977
H	-1.0005055588	-1.9875513845	 2.226957366	 0.135101
H	-2.08956901	-1.0647619219	-0.2310978571	 0.09977
124.4663	146.4633	197.6331	271.524	302.6094	416.6071	416.9442	511.7151	567.7341	626.0592	719.5113	800.3179	858.2386	860.1851	869.16	920.4502	927.3387	936.9509	1013.0135	1025.3828	1057.5381	1082.4679	1103.0721	1141.3388	1153.4016	1181.8777	1208.5974	1215.8619	1252.4169	1270.4688	1340.1728	1359.7751	1415.1089	1489.5161	1490.9703	1520.7397	2353.4842	3034.4227	3037.9536	3081.6743	3096.4402	3098.5071	3110.7837	3115.4	3121.6749
CC12CN3C1C(C#N)C23	C[C@@]12CN3[C@@H]1[C@@H](C#N)[C@@H]23	
InChI=1S/C7H8N2/c1-7-3-9-5(7)4(2-8)6(7)9/h4-6H,3H2,1H3	InChI=1S/C7H8N2/c1-7-3-9-5(7)4(2-8)6(7)9/h4-6H,3H2,1H3/t4-,5-,6+,7-
