21
gdb 121094	4.19808	0.82778	0.76723	1.2058	83.05	-0.2454	0.0165	0.2618	1599.4936	0.181005	-424.239091	-424.229296	-424.228352	-424.274511	35.126	
C	 0.2790367479	 1.4776729473	 0.0734227568	-0.384224
C	 0.1349667597	-0.0322048391	-0.0059616086	-0.036624
O	 0.6830154829	-0.5965000445	 1.1786338292	-0.252586
C	 0.5521094173	-1.9917669644	 1.2576436367	 0.191753
O	 1.3554246312	-2.6703451022	 0.2994111352	-0.271266
C	 2.4532608055	-3.2981769262	 0.9493751988	-0.158662
C	 2.1720070177	-3.1812239414	 2.4267328372	 0.307603
C	 3.0601475925	-3.7966573204	 3.4577933917	-0.494275
C	 1.0684276464	-2.45695456	 2.5894819795	-0.231404
H	 1.3328240706	 1.7582582162	 0.1579729433	 0.125967
H	-0.1334942254	 1.9471762647	-0.8248534951	 0.112681
H	-0.2500444005	 1.8712319462	 0.9462266345	 0.122332
H	-0.9264416685	-0.3175739853	-0.0977299321	 0.08299
H	 0.6579944251	-0.4299818965	-0.8858070688	 0.106473
H	-0.4963727246	-2.2625076058	 1.0463122983	 0.065319
H	 2.512052966	-4.3434535236	 0.6134136406	 0.107366
H	 3.4058825714	-2.8147611647	 0.6784451563	 0.106445
H	 4.0823282744	-3.4056389994	 3.3806539023	 0.133689
H	 2.6968511775	-3.5992185026	 4.4691697583	 0.131897
H	 3.1298416761	-4.8833886689	 3.32492459	 0.130783
H	 0.6073456567	-2.1670433794	 3.5242488058	 0.103741
55.959	82.0382	101.4637	159.6758	167.1089	233.6383	254.0427	300.5034	353.7837	404.5477	468.4042	589.8488	615.698	794.8987	819.528	834.3722	903.2698	908.6489	939.6844	986.6898	994.8489	1028.0451	1046.9734	1077.5067	1092.6494	1126.7618	1147.3927	1187.1582	1205.2265	1212.8765	1290.3776	1294.0798	1357.9794	1374.1887	1389.4131	1403.9491	1417.0476	1441.2795	1481.1762	1483.1519	1488.73	1500.5214	1512.8701	1528.4283	1734.3695	2955.3495	2967.9335	2975.704	3013.2731	3023.3664	3031.8588	3043.0155	3070.0507	3116.6259	3119.3524	3119.5645	3225.3129
CCOC1OCC(C)=C1	CCO[C@H]1OCC(=C1)C	
InChI=1S/C7H12O2/c1-3-8-7-4-6(2)5-9-7/h4,7H,3,5H2,1-2H3	InChI=1S/C7H12O2/c1-3-8-7-4-6(2)5-9-7/h4,7H,3,5H2,1-2H3/t7-/m0/s1
