25
gdb 119900	2.54793	0.8564	0.79184	1.3067	90.04	-0.2521	0.0784	0.3305	1635.9026	0.226309	-389.483755	-389.47222	-389.471276	-389.52048	41.98	
C	-0.4231095561	 0.9859294764	-1.9402547121	-0.41614
C	-0.1132208187	-0.1763737943	-1.0196190631	-0.046146
C	 1.2821365704	-0.4793932025	-0.4933274372	-0.061223
C	 2.5048152466	 0.3466503656	-0.8374026245	-0.206245
C	 3.1817938719	-0.1327644212	-2.1179728262	-0.067041
O	 4.3315583199	 0.67317082	-2.3315182005	-0.423002
C	 0.1914359846	-0.0220607505	 0.4601409142	 0.297647
C	 0.2524712239	 1.3549172235	 1.0974164535	-0.451286
C	-0.3843494289	-1.0741575563	 1.392835357	-0.445836
H	 0.1900705646	 1.86680285	-1.7378930245	 0.118232
H	-0.2571320427	 0.7077529605	-2.9873560737	 0.114114
H	-1.4718010379	 1.290130587	-1.8454246084	 0.115148
H	-0.7013432	-1.0604097647	-1.2595998374	 0.072775
H	 1.5118373671	-1.5421577659	-0.4217609158	 0.070264
H	 2.264429086	 1.406394721	-0.9599739639	 0.103002
H	 3.2379686338	 0.2913183349	-0.0226786005	 0.103876
H	 3.4537678916	-1.1965837689	-2.0172138118	 0.081458
H	 2.4767286491	-0.0567465767	-2.9611657489	 0.088012
H	 4.7606131241	 0.3772980568	-3.1394381176	 0.283947
H	 0.6618996285	 2.1208999598	 0.4367801325	 0.11507
H	-0.7490429647	 1.6830538391	 1.4007074798	 0.111042
H	 0.8747995323	 1.3344714627	 2.0000368162	 0.113704
H	 0.2174761244	-1.1671466408	 2.3053160575	 0.110313
H	-1.406476762	-0.8169728709	 1.6971703004	 0.109785
H	-0.4175347977	-2.0583348047	 0.9148235449	 0.108531
60.1557	85.7586	108.7967	141.2803	172.5507	204.3341	227.3958	244.8211	261.9638	278.3682	292.0813	344.9148	396.3991	472.2234	486.6093	566.1704	684.6472	770.3233	794.2516	852.7552	946.7568	968.557	979.8509	998.785	1020.6642	1047.9175	1056.3064	1075.1684	1100.9046	1135.1024	1156.2414	1180.4469	1181.1384	1224.603	1237.8614	1271.8363	1312.2344	1323.6662	1335.015	1391.1304	1409.8512	1416.4524	1427.5243	1457.9065	1460.4268	1478.8983	1488.2849	1489.9798	1498.2976	1502.1546	1506.8831	1519.5869	1526.6274	2960.9004	2988.9066	3014.895	3025.2169	3029.8749	3034.1556	3072.2691	3076.6071	3080.8149	3086.1791	3094.4828	3103.2528	3110.8091	3123.4626	3133.0587	3830.37
CC1C(CCO)C1(C)C	C[C@H]1[C@@H](CCO)C1(C)C	
InChI=1S/C8H16O/c1-6-7(4-5-9)8(6,2)3/h6-7,9H,4-5H2,1-3H3	InChI=1S/C8H16O/c1-6-7(4-5-9)8(6,2)3/h6-7,9H,4-5H2,1-3H3/t6-,7+/m0/s1
