18
gdb 102844	1.82208	1.2742	0.79846	5.9077	73.8	-0.2864	-0.0023	0.2842	1415.8296	0.145145	-439.129418	-439.119346	-439.118402	-439.165649	34.426	
C	 0.2557439909	 1.5324142173	-0.146340832	-0.402531
C	 0.1102566022	 0.0112452129	-0.06927877	-0.184677
C	-1.3432969905	-0.4493743018	 0.038662311	 0.103566
C	-1.4542036801	-1.9874159544	 0.0763649187	-0.345123
C	-2.8410713438	-2.4428522461	 0.0382428926	 0.259804
N	-3.9480211475	-2.7707516969	-0.0064679813	-0.296668
O	-1.8973890252	 0.0752437012	 1.2504854039	-0.194015
C	-3.110807011	 0.6774250527	 1.2116789109	 0.176812
O	-3.6214919551	 1.1400509339	 2.1833506307	-0.264932
H	 1.3085427246	 1.8139262329	-0.233315484	 0.126831
H	-0.2704064778	 1.9390850364	-1.0170693653	 0.119546
H	-0.1487339281	 2.0104590273	 0.7493227386	 0.146235
H	 0.5472703786	-0.454999328	-0.960326833	 0.107973
H	 0.6618132308	-0.3767366156	 0.795460837	 0.120251
H	-1.9191041328	-0.0688237235	-0.8160638192	 0.106203
H	-0.9164326709	-2.415920977	-0.7759875672	 0.157366
H	-0.9766471885	-2.3584587013	 0.9893252921	 0.169704
H	-3.5498018256	 0.69334084	 0.1967636165	 0.093656
51.3894	64.8879	104.3641	123.0451	157.7519	221.0136	237.4757	275.38	337.2161	389.5015	421.92	476.2268	581.0555	612.3565	789.621	892.8766	916.5635	946.6877	1000.3451	1030.1355	1037.9599	1080.552	1128.7382	1131.3967	1179.643	1240.371	1281.8215	1308.8277	1355.4688	1382.9353	1391.3521	1414.0442	1441.8043	1452.6993	1478.8084	1499.0424	1509.5491	1873.3346	2365.1516	2968.2925	3018.1416	3032.8797	3041.3049	3054.8775	3072.4862	3100.2845	3110.6364	3128.9851
CCC(CC#N)OC=O	CC[C@@H](CC#N)OC=O	
InChI=1S/C6H9NO2/c1-2-6(3-4-7)9-5-8/h5-6H,2-3H2,1H3	InChI=1S/C6H9NO2/c1-2-6(3-4-7)9-5-8/h5-6H,2-3H2,1H3/t6-/m0/s1
