19
gdb 20025	4.3409	1.29489	1.15998	1.5002	72.3	-0.2246	0.0887	0.3134	1102.2589	0.164753	-365.005245	-364.996891	-364.995947	-365.038351	30.555	
C	 0.4603029178	 1.389334465	 0.2897677574	-0.373129
C	-0.197299033	 0.0567404939	-0.0590686365	-0.128349
N	 0.4199249481	-0.5029424766	-1.264587792	-0.094408
C	 1.5765277383	-1.3775903622	-1.081646754	-0.258184
C	 0.2748404945	-1.9329027736	-1.5425203622	-0.026211
C	-0.5205121197	-2.8561055981	-0.6682595467	 0.045954
C	 0.0145333192	-4.1602561861	-0.2484363911	-0.174542
O	-0.0833942299	-3.0744388424	 0.6747693952	-0.222846
H	 1.5203800268	 1.2501707766	 0.5263231182	 0.117189
H	 0.3909175473	 2.0853624539	-0.5510107501	 0.123485
H	-0.0230717112	 1.8423077719	 1.1608687249	 0.110182
H	-0.1420802864	-0.6258791	 0.8012217207	 0.117042
H	-1.2602210256	 0.2150230349	-0.2797150264	 0.097254
H	 2.3973821114	-1.2405691461	-1.7806444371	 0.11048
H	 1.8668548701	-1.6260336388	-0.0624558359	 0.125538
H	 0.1402072151	-2.1513907184	-2.6024824269	 0.09311
H	-1.6043402046	-2.768720303	-0.7642317523	 0.100779
H	-0.6637208802	-4.9913151149	-0.0628183776	 0.117985
H	 1.0276666022	-4.434822196	-0.5373465677	 0.118673
80.5944	100.4221	136.0763	205.9375	245.1048	267.9468	333.0998	417.6718	538.4076	622.623	728.8783	763.6974	817.0911	859.1273	899.7813	933.2104	959.3099	1016.1131	1032.2955	1056.7404	1100.5109	1109.8432	1116.5187	1140.6378	1152.6323	1168.1181	1173.5384	1203.7532	1286.3221	1315.8722	1323.8547	1391.1745	1400.1738	1411.8009	1428.1228	1489.2628	1492.1272	1501.6774	1518.6584	1525.3813	3003.4761	3038.2421	3047.9805	3087.3505	3091.2199	3096.1878	3101.5019	3107.2772	3118.132	3178.3967	3184.1653
CCN1CC1C1CO1	CCN1C[C@H]1[C@H]1CO1	
InChI=1S/C6H11NO/c1-2-7-3-5(7)6-4-8-6/h5-6H,2-4H2,1H3	InChI=1S/C6H11NO/c1-2-7-3-5(7)6-4-8-6/h5-6H,2-4H2,1H3/t5-,6+,7?/m0/s1
