20
gdb 69597	3.37529	1.28739	1.17466	2.9017	78.81	-0.2396	0.08	0.3196	1142.7836	0.171685	-403.125172	-403.117039	-403.116095	-403.157465	32.337	
C	 0.0622977768	 1.501509399	-0.0807992909	-0.484872
C	-0.063653707	 0.0139243101	 0.0958293746	 0.413635
C	-1.3230032457	-0.7187235227	-0.3594507872	-0.276537
C	-1.164419652	-2.1491108827	 0.2092475973	-0.32465
C	-0.2856185412	-1.9745758393	 1.4498911636	 0.369296
C	-0.7705228549	-2.2862897935	 2.8197207172	-0.299844
N	 0.2840558391	-3.1039508724	 2.1884408149	-0.365334
C	 0.5590961778	-0.7664275481	 1.1764035427	-0.082217
O	 1.1253933302	-0.7609911689	-0.1470819491	-0.304724
H	 1.0109610066	 1.8589173036	 0.3270144345	 0.131398
H	 0.0272720953	 1.7679123688	-1.1431461664	 0.126717
H	-0.7572668547	 2.0254414661	 0.4224746978	 0.120374
H	-2.1990671537	-0.2180917296	 0.0699345088	 0.102783
H	-1.4377912449	-0.707183209	-1.4480723881	 0.106181
H	-2.1213954232	-2.627385539	 0.4341159709	 0.096963
H	-0.6352266834	-2.7749495718	-0.5154201598	 0.123715
H	-0.440071056	-1.6985912609	 3.6728122402	 0.116144
H	-1.7712337399	-2.7000498158	 2.9181526766	 0.109752
H	-0.1099508588	-3.9765143048	 1.8432439607	 0.230487
H	 1.1773079193	-0.3326457292	 1.9581291718	 0.090734
110.4867	180.4872	197.0727	244.1918	324.423	345.6953	375.591	396.6337	470.7635	563.1001	585.3251	707.1782	766.0593	850.0683	855.6656	874.5302	911.372	920.1906	942.7486	977.1782	981.2331	1013.062	1019.9737	1055.2195	1079.5702	1114.5828	1136.0594	1191.9005	1212.2987	1236.0921	1258.9932	1272.5037	1316.1311	1332.0764	1341.8052	1400.7601	1416.3673	1458.2851	1477.3958	1488.3114	1490.6722	1501.1715	1513.4486	3032.7844	3038.3857	3056.2763	3080.9425	3095.2606	3098.7601	3104.3905	3123.6378	3151.3055	3182.8482	3489.5419
CC12CCC3(CN3)C1O2	C[C@]12CC[C@]3(CN3)[C@H]1O2	
InChI=1S/C7H11NO/c1-6-2-3-7(4-8-7)5(6)9-6/h5,8H,2-4H2,1H3	InChI=1S/C7H11NO/c1-6-2-3-7(4-8-7)5(6)9-6/h5,8H,2-4H2,1H3/t5-,6-,7-/m0/s1
