18
gdb 47443	3.01699	1.26401	0.93419	3.2169	72.2	-0.2439	0.0271	0.271	1226.3229	0.149159	-439.108458	-439.100245	-439.0993	-439.142113	30.263	
O	-0.2886881757	-0.0226245454	 0.3519778845	-0.382481
C	-0.1748533751	 1.1796917738	 0.2550976932	 0.39949
N	-1.1932335605	 2.0918221208	 0.2232285458	-0.308102
C	-0.7794392597	 3.465862093	-0.0077845456	-0.174546
C	 0.7108991438	 3.4310919193	 0.3947850892	-0.237336
C	 1.1390019436	 1.9768398163	 0.1262912557	-0.129996
C	 2.2236880404	 1.4408203281	 1.0235674629	 0.099587
C	 3.101391406	 0.3471702811	 0.6048963979	-0.170113
O	 3.5734552152	 1.6991617743	 0.6284822026	-0.251802
H	-2.1486727383	 1.7788126094	 0.1536408494	 0.253057
H	-0.9043503383	 3.754959705	-1.0612334395	 0.109864
H	-1.3605140998	 4.1652078951	 0.6010046901	 0.11697
H	 1.3080829809	 4.1652062448	-0.1481471704	 0.121136
H	 0.804463338	 3.6483462208	 1.4643090506	 0.115826
H	 1.4734112782	 1.8620487891	-0.9129725397	 0.10643
H	 2.0409829385	 1.5672109668	 2.0925139	 0.094531
H	 3.5338441205	-0.3136700501	 1.353712089	 0.117763
H	 2.9754726524	-0.0895531923	-0.3838849557	 0.119721
56.8692	92.7784	154.39	176.0553	286.8877	324.6062	406.8337	502.6364	556.0354	577.4784	677.2109	702.6101	823.8633	861.0532	871.2307	916.2402	942.6148	965.1315	1001.9377	1066.5393	1086.2404	1120.0165	1147.4554	1159.8593	1179.1674	1195.0127	1222.752	1247.2476	1274.1542	1292.3865	1302.8162	1341.1917	1370.2807	1446.1474	1450.2055	1495.2591	1532.5333	1536.4417	1826.6787	2999.4828	3031.3268	3051.7484	3073.2604	3090.3644	3095.2447	3121.8435	3181.0845	3640.0678
O=C1NCCC1C1CO1	O=C1NCC[C@H]1[C@H]1CO1	
InChI=1S/C6H9NO2/c8-6-4(1-2-7-6)5-3-9-5/h4-5H,1-3H2,(H,7,8)	InChI=1S/C6H9NO2/c8-6-4(1-2-7-6)5-3-9-5/h4-5H,1-3H2,(H,7,8)/t4-,5+/m0/s1
