20
gdb 15403	4.2677	0.90651	0.80037	3.4136	77.61	-0.244	-0.0153	0.2286	1458.6296	0.175633	-349.011479	-349.002335	-349.001391	-349.045939	32.733	
C	-0.1805001916	 1.5503661041	 0.0770087024	-0.38356
C	-0.1752402454	 0.0300815914	-0.1012796441	-0.158175
C	 0.8975215432	-0.4516864449	-1.0885418233	-0.201274
C	 0.9044099158	-1.9609797436	-1.2352390683	 0.003812
C	 0.0648315886	-2.6627782274	-2.2482099548	-0.297504
C	 1.5842512405	-2.694103663	-2.3959671031	-0.120888
C	 2.2040359509	-1.9589820364	-3.5189397936	 0.165132
O	 3.2186812968	-2.2986732677	-4.0783315318	-0.272352
H	 0.7849671415	 1.9082481839	 0.4511954016	 0.116942
H	-0.3752271547	 2.0603845938	-0.8730291297	 0.115675
H	-0.9507654731	 1.865640057	 0.7874170299	 0.11456
H	-0.0131000411	-0.4541320562	 0.870795582	 0.097049
H	-1.1602475877	-0.3074138489	-0.4475481313	 0.100735
H	 0.7287510861	 0.026953967	-2.0603578878	 0.098486
H	 1.8843890356	-0.1112668367	-0.7476986642	 0.10545
H	 1.0274404613	-2.4852183372	-0.2899727172	 0.098256
H	-0.4267458432	-3.5953478915	-1.996411973	 0.126715
H	-0.4776494863	-2.0495016465	-2.962396238	 0.121622
H	 2.0958211496	-3.6191051486	-2.1528315656	 0.10537
H	 1.6525742431	-1.0472549386	-3.8450013201	 0.063948
70.3509	87.6258	98.1249	150.0923	243.3997	255.8259	266.529	349.761	403.9378	447.453	534.5093	747.1436	805.1674	842.2694	859.3972	877.0566	895.6499	948.0992	983.6107	1046.1294	1048.6674	1064.9227	1074.5904	1122.2865	1141.8572	1189.5125	1198.7027	1231.8846	1270.2551	1306.6335	1329.0003	1346.5148	1385.9429	1412.7833	1419.4077	1450.7453	1481.7903	1489.7269	1494.3998	1500.0522	1510.6873	1813.7429	2862.8181	3015.419	3022.4269	3031.2092	3044.5409	3066.9186	3097.9364	3104.476	3127.2234	3131.4502	3176.2448	3217.2163
CCCC1CC1C=O	CCC[C@H]1C[C@H]1C=O	
InChI=1S/C7H12O/c1-2-3-6-4-7(6)5-8/h5-7H,2-4H2,1H3	InChI=1S/C7H12O/c1-2-3-6-4-7(6)5-8/h5-7H,2-4H2,1H3/t6-,7-/m0/s1
