18
gdb 24595	4.96651	1.11385	0.94458	3.4788	79.78	-0.1825	0.0517	0.2342	1235.7505	0.150744	-398.145529	-398.137725	-398.136781	-398.178518	29.251	
C	-0.062144351	 1.5951458033	 0.0597020787	-0.232865
C	 1.485691338	 1.5720438587	-0.0479384063	-0.154477
N	 1.4613975791	 0.1620267307	 0.3849422073	-0.166439
C	 0.0019261854	 0.0502821169	 0.1755340777	-0.18428
C	 2.378253569	-0.7441847664	-0.1010834533	 0.44397
N	 3.5117908509	-0.4457988608	-0.6970961453	-0.339949
C	 4.1161134792	-1.6646192424	-0.948302423	-0.084338
C	 3.3400271784	-2.6969015561	-0.5131562162	-0.118294
N	 2.2114428977	-2.0944584111	 0.0332365765	-0.318718
H	-0.4276172882	 2.0788107727	 0.9668360707	 0.116148
H	-0.6016669347	 1.9902320327	-0.8007914828	 0.113973
H	 1.8661251584	 1.6897583934	-1.0690468814	 0.122449
H	 2.0479447187	 2.2337065474	 0.6164435222	 0.114173
H	-0.5429359647	-0.4100070785	 1.0070479745	 0.104462
H	-0.2618812018	-0.4713219097	-0.7553938632	 0.104143
H	 5.0760207153	-1.7179911558	-1.438991515	 0.100695
H	 3.4540219802	-3.7672013684	-0.5406955499	 0.119311
H	 1.45753638	-2.5585297966	 0.5091513387	 0.260034
62.0475	97.0099	161.9864	190.763	333.3959	443.4174	460.7051	500.3252	628.685	676.7699	739.7291	753.7079	844.1081	846.1856	877.8531	920.8658	943.0185	944.1557	990.4925	1076.1652	1090.6867	1118.903	1134.8613	1142.5287	1156.9173	1202.0413	1204.981	1230.1956	1268.9292	1292.2455	1310.9078	1345.4992	1378.9803	1476.6797	1489.9832	1510.8806	1533.9882	1551.4438	1617.9261	2998.5222	3038.6987	3054.0791	3085.3035	3091.9992	3145.2326	3247.0332	3283.1719	3675.1594
C1CN(C1)C1=NC=CN1	C1CN(C1)c1ncc[nH]1	
InChI=1S/C6H9N3/c1-4-9(5-1)6-7-2-3-8-6/h2-3H,1,4-5H2,(H,7,8)	InChI=1S/C6H9N3/c1-4-9(5-1)6-7-2-3-8-6/h2-3H,1,4-5H2,(H,7,8)
