19
gdb 121472	2.80194	0.80111	0.70885	2.1259	80.93	-0.2642	0.0068	0.271	1675.4494	0.156865	-419.222886	-419.212451	-419.211507	-419.259752	35.908	
C	 0.6659663003	 1.1801215154	-0.6936241373	-0.377538
C	 0.320168995	-0.0612239462	 0.1155858473	-0.075176
O	-0.2257775865	-1.0970883937	-0.713992807	-0.200996
C	 0.6492610077	-1.9438486156	-1.2706548614	 0.132453
N	 0.2473259946	-2.8133086089	-2.0934775849	-0.248044
C	 1.1824513625	-3.7538318119	-2.686473233	-0.062851
C	 1.0866649755	-3.683640699	-4.2215284966	-0.374124
C	 2.5894650185	-3.5946115059	-2.254515517	 0.244105
N	 3.6756236518	-3.4297830949	-1.8934253981	-0.334666
H	 1.4621825745	 0.9720740133	-1.4150472325	 0.130742
H	-0.2107349329	 1.5369364912	-1.2408343335	 0.139306
H	 1.0095390814	 1.9779605001	-0.027665643	 0.126262
H	 1.1969001221	-0.4421419326	 0.65465019	 0.118235
H	-0.4585390654	 0.1534662191	 0.8516523282	 0.127353
H	 1.6891489721	-1.8189170346	-0.939401756	 0.11014
H	 0.8736918799	-4.7609323193	-2.3752985277	 0.137475
H	 1.4142887926	-2.7039589826	-4.5780138727	 0.135559
H	 1.7066127593	-4.4547001242	-4.6860476	 0.130876
H	 0.044474697	-3.8301603696	-4.5121530748	 0.140889
35.509	52.1793	113.5866	125.4996	188.5076	214.9843	232.5851	242.4749	292.8136	356.3041	422.1224	444.8405	525.3077	572.9504	667.8461	797.3112	804.2674	888.8881	957.1748	1006.7736	1050.5715	1063.4638	1099.3837	1112.3332	1135.4549	1178.7128	1257.4566	1312.9182	1337.2729	1342.499	1399.0669	1403.4851	1413.2581	1433.0863	1485.013	1485.7472	1493.5316	1495.5337	1513.7842	1761.2985	2343.0176	3018.938	3026.9922	3035.0674	3042.7628	3053.4777	3096.874	3117.8698	3128.2504	3133.5175	3143.359
CCOC=NC(C)C#N	CCOC=N[C@@H](C)C#N	
InChI=1S/C6H10N2O/c1-3-9-5-8-6(2)4-7/h5-6H,3H2,1-2H3	InChI=1S/C6H10N2O/c1-3-9-5-8-6(2)4-7/h5-6H,3H2,1-2H3/t6-/m0/s1
