13
gdb 44655	2.68156	1.82483	1.23055	4.9156	63.87	-0.267	-0.0823	0.1848	944.0426	0.090391	-456.61301	-456.606412	-456.605468	-456.644392	24.902	
O	-0.0062027639	 0.0769652459	-0.5196232573	-0.300415
C	 0.0110202849	 1.1893421742	-0.1124285716	 0.453243
O	-1.0378266764	 1.9243171845	 0.3882552493	-0.254922
C	-0.1629167389	 3.0984526781	 0.6055059239	 0.069693
C	 0.1420353779	 3.3172377877	 2.062642271	-0.070124
C	 1.3432257296	 2.8332206702	 2.3987758668	-0.164494
C	 2.0184613353	 2.1991087555	 1.2300059475	 0.385032
O	 3.1087615326	 1.6921780731	 1.2012440726	-0.301472
C	 1.0368458583	 2.3284373863	 0.0498572935	-0.352993
H	-0.5540735856	 3.9611283936	 0.0660398821	 0.118242
H	-0.5667859514	 3.7855601033	 2.7353308225	 0.138851
H	 1.7992587075	 2.8428218303	 3.3806770054	 0.137826
H	 1.5217953604	 2.6418923673	-0.8730724558	 0.141532
105.313	146.1182	251.53	377.1994	455.1846	478.5579	599.9371	627.6668	704.8451	726.0929	821.4734	829.6208	863.6338	903.2851	931.5714	978.6764	1007.1419	1020.8892	1084.8171	1105.4938	1165.604	1169.0903	1225.3562	1286.4792	1324.3169	1359.9117	1646.8581	1831.576	1947.2153	3119.3288	3144.5319	3206.2532	3231.6885
O=C1OC2C=CC(=O)C12	O=C1O[C@H]2C=CC(=O)[C@@H]12	
InChI=1S/C6H4O3/c7-3-1-2-4-5(3)6(8)9-4/h1-2,4-5H	InChI=1S/C6H4O3/c7-3-1-2-4-5(3)6(8)9-4/h1-2,4-5H/t4-,5+/m0/s1
