15
gdb 43993	3.22977	1.61102	1.45481	2.9895	63.77	-0.2701	-0.0058	0.2644	912.2532	0.11403	-457.741404	-457.734725	-457.733781	-457.772467	26.142	
O	-0.1311268174	 0.1078509398	-0.1213592158	-0.321752
C	-0.0020951953	 1.2777048709	 0.0232481267	 0.421317
O	-1.0125026899	 2.2189458858	 0.2367628877	-0.284812
C	-0.0401666284	 3.2865981116	 0.0508941823	 0.331798
C	 0.9727968985	 3.2824116174	 1.1248882429	-0.356125
C	 1.1125399999	 2.2963042925	-0.040848228	-0.023162
C	 1.9130915935	 2.6993756324	-1.2584227329	-0.15517
O	 1.426563706	 4.0155778852	-1.5914607108	-0.261788
C	 0.0540106868	 4.1284691973	-1.1949443074	-0.153625
H	 1.7005315986	 4.0876447391	 1.1166704782	 0.153576
H	 0.6977498934	 2.9055104638	 2.1027249744	 0.148749
H	 2.9897735904	 2.7973967299	-1.1010118146	 0.12828
H	 1.7388816752	 1.9855468062	-2.0754743357	 0.122677
H	-0.6373186528	 3.7211823697	-1.9477841841	 0.120953
H	-0.1473845186	 5.1941260283	-1.062230803	 0.129083
125.6551	212.976	247.8747	354.4625	401.5509	439.7856	592.2407	640.8897	666.4054	688.234	779.7927	853.2584	859.7864	899.4602	911.0034	952.4088	966.9252	1010.3933	1036.5635	1051.3962	1097.2853	1149.0523	1199.5561	1219.3675	1256.9496	1294.4951	1352.3759	1369.9102	1383.0138	1471.2263	1508.0587	1520.562	1941.3551	3003.1495	3016.0847	3099.8112	3102.703	3140.4315	3236.7515
O=C1OC23CC12COC3	O=C1O[C@@]23C[C@@]12COC3	
InChI=1S/C6H6O3/c7-4-5-1-6(5,9-4)3-8-2-5/h1-3H2	InChI=1S/C6H6O3/c7-4-5-1-6(5,9-4)3-8-2-5/h1-3H2/t5-,6-/m1/s1
