23
gdb 119066	2.01559	1.21198	0.86774	2.9974	83.45	-0.2452	0.0736	0.3188	1449.2809	0.203907	-425.401567	-425.390876	-425.389932	-425.437384	38.862	
C	 0.0022894546	 1.4203153333	-0.0460618249	-0.230018
O	 0.1734328461	 0.0214751102	-0.0854146559	-0.243121
C	 0.4513130753	-0.5439040299	 1.1930653218	-0.144388
C	 0.5212376855	-2.0460716183	 1.0563862189	 0.297437
C	-0.7594127637	-2.6734604374	 0.5242964751	-0.121322
O	-0.9728935955	-2.4336671714	-0.8541302521	-0.429108
C	 1.8269359535	-2.6795436838	 0.6333042351	-0.314416
C	 1.3362422529	-2.8569820934	 2.0482112547	-0.051052
C	 2.0763548189	-2.2647152051	 3.2298487198	-0.41826
H	 0.9074171524	 1.924785084	 0.3251408885	 0.109851
H	-0.1965138129	 1.7557969975	-1.0663935205	 0.132732
H	-0.8423800615	 1.7097619948	 0.5978490127	 0.109933
H	 1.3917008042	-0.1255503949	 1.580053673	 0.087895
H	-0.3496959283	-0.2595078221	 1.8974305954	 0.089591
H	-0.7169897527	-3.7618480727	 0.645384111	 0.09393
H	-1.6125464283	-2.3153760273	 1.1284846572	 0.073751
H	-0.7928207373	-1.4941239711	-0.9898048549	 0.2879
H	 1.7824840963	-3.5158535856	-0.0554141322	 0.121147
H	 2.6754245009	-2.020037167	 0.4781934019	 0.106778
H	 0.9027070679	-3.830647138	 2.266199278	 0.085021
H	 2.5878382722	-1.3320298405	 2.9760277041	 0.116708
H	 1.4021414182	-2.060167597	 4.0692926285	 0.11759
H	 2.8413360212	-2.9640174442	 3.5848619646	 0.12142
76.5505	95.0722	111.3011	138.6718	183.2196	200.5057	233.4342	242.036	330.6838	339.667	374.2513	415.787	463.3973	504.094	558.3887	743.0682	840.5014	894.618	913.7028	946.9516	982.0833	985.2316	994.6349	1034.1323	1060.6251	1081.8019	1125.0286	1131.7499	1144.9351	1182.673	1190.6115	1222.5896	1228.9164	1247.3511	1307.3875	1351.8797	1374.5466	1409.2628	1421.1144	1434.8869	1466.1509	1482.0828	1486.5459	1488.6088	1493.6408	1499.7307	1506.5165	1509.6284	1525.5525	2937.9444	2954.5867	2978.9915	3010.1934	3026.2442	3029.9026	3054.227	3087.2538	3102.0629	3120.2646	3127.2621	3130.5726	3213.0455	3756.6498
COCC1(CO)CC1C	COC[C@@]1(CO)C[C@H]1C	
InChI=1S/C7H14O2/c1-6-3-7(6,4-8)5-9-2/h6,8H,3-5H2,1-2H3	InChI=1S/C7H14O2/c1-6-3-7(6,4-8)5-9-2/h6,8H,3-5H2,1-2H3/t6-,7+/m1/s1
