15
gdb 9218	7.20285	0.90321	0.81065	3.6395	59.88	-0.2523	-0.0038	0.2485	1335.8558	0.117325	-436.993677	-436.98471	-436.983765	-437.029318	29.272	
C	 0.0404999607	 1.3558470677	 0.0074894931	-0.243424
O	-0.0474073957	-0.0780900025	 0.0028062861	-0.224726
C	-1.2862043459	-0.5811570972	 0.012214748	 0.438015
O	-2.2958777777	 0.080939456	 0.0239630433	-0.364874
C	-1.2535183374	-2.0962813817	 0.0059715533	-0.251537
N	-2.6064397148	-2.5946753604	 0.016553865	-0.282078
C	-2.8830725135	-3.9207199915	 0.0072350047	 0.156684
O	-2.0423362844	-4.7962363995	-0.0085973438	-0.327267
H	 1.1054767094	 1.5848520868	-0.000606117	 0.142693
H	-0.4493003651	 1.7716317831	-0.8760993776	 0.147234
H	-0.4343933123	 1.7649345343	 0.9022622997	 0.147251
H	-0.7010796697	-2.4424421249	-0.8761303595	 0.158016
H	-0.6845101919	-2.4489858572	 0.8748754675	 0.157832
H	-3.3387955766	-1.8995192938	 0.0271368248	 0.265912
H	-3.9726691251	-4.1190965592	 0.0157529823	 0.080268
17.1343	78.0263	114.6331	130.2718	166.6231	238.6734	293.9458	320.2432	430.5132	562.4708	588.6668	671.8506	815.1889	927.6949	1009.1769	1019.7624	1035.5748	1082.5288	1179.0668	1209.0728	1224.5818	1228.4531	1254.6958	1380.0298	1423.5499	1476.8446	1483.2157	1486.3849	1496.6362	1522.0233	1797.4736	1818.8351	2945.96	3037.4215	3057.156	3061.3236	3134.3458	3167.9694	3611.5941
COC(=O)CNC=O	COC(=O)CNC=O	
InChI=1S/C4H7NO3/c1-8-4(7)2-5-3-6/h3H,2H2,1H3,(H,5,6)	InChI=1S/C4H7NO3/c1-8-4(7)2-5-3-6/h3H,2H2,1H3,(H,5,6)
