18
gdb 85617	2.315	1.56065	0.99036	3.9036	74.92	-0.2569	-0.0104	0.2465	1169.8121	0.148211	-439.08207	-439.073636	-439.072692	-439.115429	31.942	
O	-0.1510661577	 1.4796839433	-0.1265632325	-0.436467
C	 0.0415580693	 0.0764190877	-0.0191928561	 0.061698
C	-1.3658739248	-0.532130781	 0.0995787572	-0.23506
C	-1.4442026246	-1.9696640016	 0.5643517055	 0.334166
N	-2.2545419262	-2.2866535612	 1.4848582038	-0.470028
O	-0.7421030651	-2.9384393469	-0.1107514896	-0.253549
C	 0.6763871911	-2.7961516193	-0.3195351568	-0.140277
C	 1.0718528032	-1.7712655141	-1.3505012705	-0.077212
C	 0.7926935349	-0.4789023113	-1.2068611295	-0.085984
H	 0.7146035714	 1.9001928953	-0.1417792395	 0.284188
H	 0.59587172	-0.1580492177	 0.9072077752	 0.085159
H	-1.9405866745	 0.0607594526	 0.8118425134	 0.142487
H	-1.8536800903	-0.4553132006	-0.87945108	 0.128284
H	-2.2141050482	-3.2974352572	 1.6385397772	 0.217757
H	 1.1536297218	-2.5809099983	 0.6478277623	 0.116269
H	 0.9979403485	-3.7930461287	-0.6261817896	 0.124155
H	 1.5882072389	-2.1274069802	-2.2366804269	 0.103132
H	 1.0540591424	 0.2401881193	-1.9797129037	 0.101281
55.5233	132.7877	176.637	270.7569	283.0321	322.9794	357.0925	406.9627	458.5609	497.8692	583.5074	632.8395	686.7131	759.341	820.4553	899.0957	943.1058	947.1731	981.193	1004.8841	1020.1404	1045.581	1090.6363	1091.6847	1134.7784	1191.6461	1224.0185	1263.6879	1289.1573	1308.4449	1340.3096	1352.3857	1396.6459	1415.8274	1420.3486	1471.6416	1496.2069	1719.592	1735.3314	2935.9846	2995.9243	3046.6993	3109.598	3135.286	3153.7299	3180.6576	3451.7908	3818.6666
OC1CC(=N)OCC=C1	O[C@H]1C[C]([NH])OCC=C1	
InChI=1S/C6H9NO2/c7-6-4-5(8)2-1-3-9-6/h1-2,5,7-8H,3-4H2	InChI=1S/C6H9NO2/c7-6-4-5(8)2-1-3-9-6/h1-2,5,7-8H,3-4H2/t5-/m1/s1
