23
gdb 86911	5.20971	0.66394	0.649	1.3208	86.77	-0.2514	0.0784	0.3298	1806.1487	0.205609	-388.265944	-388.256411	-388.255466	-388.301169	36.131	
O	-0.0252950528	 1.3134398439	-0.3014057533	-0.432425
C	 0.0739923069	-0.0595009285	 0.0000654806	 0.14693
C	 0.2134666072	-0.5050131043	 1.4819833557	-0.293022
C	-0.8271237618	-1.6235380032	 1.1893900604	 0.054355
C	-1.867563415	-1.955246664	 2.2539682279	-0.236693
C	-2.8941120771	-2.9693017412	 1.7918242071	 0.042111
C	-2.6104935874	-4.4473110384	 1.9053416885	-0.255282
C	-3.6532000996	-3.8055479104	 2.7891595737	-0.278301
C	-1.2658420289	-0.8160036593	-0.0684523635	-0.2459
H	 0.852457285	 1.7024249412	-0.2330499858	 0.279813
H	 0.8340441737	-0.5491517342	-0.6265756388	 0.062804
H	 1.2006083528	-0.7944994278	 1.8525076385	 0.087276
H	-0.2090013704	 0.2634186877	 2.138212351	 0.101117
H	-0.3159850263	-2.5428469111	 0.881870644	 0.069626
H	-1.360992816	-2.3392189605	 3.1506282912	 0.087515
H	-2.3735832864	-1.028933397	 2.5609190812	 0.09115
H	-3.4546112975	-2.6657641107	 0.9106700747	 0.08387
H	-2.9426558335	-5.1059465884	 1.1103820246	 0.108274
H	-1.6748712716	-4.7479550117	 2.3665975995	 0.107035
H	-3.4163469468	-3.6779880656	 3.8407096939	 0.107976
H	-4.6977131503	-4.0235392601	 2.5949949601	 0.108703
H	-2.0831397607	-0.1275032776	 0.1713245354	 0.107559
H	-1.5082128334	-1.3547647287	-0.9869915865	 0.095509
54.512	60.3168	104.0755	142.9561	261.7419	290.1294	309.789	375.3394	417.1075	423.4927	467.473	607.4612	769.096	791.8362	804.5185	812.7642	835.0776	873.7403	926.7404	932.3031	960.6381	977.0987	1014.7029	1025.0958	1054.5062	1074.1432	1076.5212	1112.1871	1134.5778	1143.2083	1176.1095	1198.235	1206.2621	1218.6456	1227.505	1251.6157	1265.6005	1266.9659	1294.1062	1316.2036	1335.6399	1383.4956	1415.8001	1430.478	1468.8343	1470.3093	1481.2934	1502.1225	1507.0657	2987.2267	2999.4912	3028.607	3044.4174	3046.0566	3054.0141	3103.6573	3113.556	3125.7365	3129.6059	3133.8914	3203.3085	3218.7308	3814.1562
OC1CC(CC2CC2)C1	O[C@H]1C[C@@H](CC2CC2)C1	
InChI=1S/C8H14O/c9-8-4-7(5-8)3-6-1-2-6/h6-9H,1-5H2	InChI=1S/C8H14O/c9-8-4-7(5-8)3-6-1-2-6/h6-9H,1-5H2/t7-,8+
