16
gdb 131520	3.10342	1.57249	1.1699	2.322	69.93	-0.2565	-0.0173	0.2392	1023.6921	0.126619	-437.880384	-437.873272	-437.872327	-437.912002	27.643	
O	-0.469967922	 1.3856609364	-0.4394854001	-0.42941
C	 0.0378339571	 0.1203471952	-0.0239764046	-0.011099
C	-1.17105846	-0.8177317545	 0.2285817835	-0.218803
C	-1.4837277488	-1.5473084673	-1.119528221	-0.358302
C	-0.1472336318	-1.5133476929	-1.8012636065	 0.169465
C	 0.6143793197	-1.9997908308	-2.8086091226	-0.094822
O	 1.838550298	-1.4198882521	-2.7784350014	-0.173879
N	 1.9014922952	-0.512176246	-1.7126230036	-0.257142
C	 0.7213704162	-0.5921438299	-1.163312166	 0.357183
H	 0.2669394452	 1.8980456227	-0.7894716865	 0.292598
H	 0.670855103	 0.2279511925	 0.8657304645	 0.086866
H	-0.8870443488	-1.5586867706	 0.9821533537	 0.113868
H	-2.0188281953	-0.2486017505	 0.6152714455	 0.120745
H	-1.8771518174	-2.5540762625	-0.956398923	 0.117829
H	-2.233162199	-0.995453128	-1.6973480443	 0.132633
H	 0.4735126387	-2.7248778115	-3.5948791177	 0.152271
113.7076	153.6657	254.3286	317.8477	355.6533	436.1631	461.9389	597.7879	621.9264	697.546	711.0673	804.0844	830.5264	840.0214	886.1554	911.0976	961.0428	974.6145	998.9993	1083.6924	1106.1959	1126.8522	1177.8953	1213.9177	1240.7791	1279.0977	1309.3494	1336.7584	1344.1808	1393.4272	1429.4996	1473.3068	1491.1193	1546.0827	1666.3338	3025.2836	3048.5701	3063.6741	3093.3261	3123.7976	3265.8536	3812.2663
OC1CCC2=CON=C12	O[C@H]1CCc2conc12	
InChI=1S/C6H7NO2/c8-5-2-1-4-3-9-7-6(4)5/h3,5,8H,1-2H2	InChI=1S/C6H7NO2/c8-5-2-1-4-3-9-7-6(4)5/h3,5,8H,1-2H2/t5-/m0/s1
