12
gdb 21419	3.35236	2.47059	1.42236	4.1659	61.22	-0.2261	-0.0401	0.186	785.357	0.086691	-410.863551	-410.857148	-410.856204	-410.894307	23.891	
N	-0.0527098485	 1.2546315355	 0.3797685717	-0.498642
C	-0.004668134	 0.0300697588	 0.0313820978	 0.284207
N	 1.1331200627	-0.6974809273	-0.2950938224	-0.320809
N	 1.2240052035	-2.0083530303	-0.6729111547	-0.214182
C	 0.1141086601	-2.6430007464	-0.7317801846	 0.11382
N	-1.1105516791	-2.0776936774	-0.4418011049	-0.369659
C	-1.2953596217	-0.7564528168	-0.0500352916	 0.429011
O	-2.3864884191	-0.3090702938	 0.193723173	-0.319446
H	 0.8768676753	 1.6798347301	 0.3988380143	 0.210608
H	 2.0260021589	-0.2296980823	-0.2600999897	 0.264434
H	 0.1213212313	-3.6846485568	-1.0251430394	 0.150712
H	-1.9544471493	-2.6304846334	-0.5051650696	 0.269945
95.2094	163.8452	352.1221	428.6588	499.7721	510.213	540.6321	572.9565	607.5402	666.9743	727.616	798.3586	852.9333	871.8537	947.5853	1065.605	1095.0852	1167.8813	1219.4996	1368.77	1400.6489	1461.4177	1473.3465	1707.2598	1717.443	1836.093	3225.5078	3451.2407	3604.8676	3622.2176
N=C1NN=CNC1=O	[NH][C]1NN=CNC1=O	
InChI=1S/C3H4N4O/c4-2-3(8)5-1-6-7-2/h1H,(H2,4,7)(H,5,6,8)	InChI=1S/C3H4N4O/c4-2-3(8)5-1-6-7-2/h1H,(H2,4,7)(H,5,6,8)
