23
gdb 114865	2.68587	1.29909	1.19614	1.3955	84.31	-0.2369	0.0767	0.3136	1208.0446	0.207375	-388.296074	-388.287374	-388.286429	-388.32961	33.886	
C	-0.4025775226	 1.3728302065	-0.3280920234	-0.381915
C	-0.2685434739	-0.1507296176	-0.3791080869	-0.183108
C	 0.9564583382	-0.6120097291	-1.1806134352	 0.126058
C	 1.0949383425	-2.1480141544	-1.3121230173	-0.266593
C	 0.5653035839	-2.4714422623	-2.7147724193	-0.022958
C	-0.9765698375	-2.5941550677	-2.9122953733	-0.235527
C	-0.9879277183	-1.245657787	-3.6901282973	-0.24011
C	 0.5432033274	-1.0953430806	-3.4444060062	 0.121113
O	 0.9430585125	-0.1011662873	-2.5208475497	-0.273996
H	 0.4667257141	 1.8279411005	 0.1602777437	 0.110886
H	-0.4677284466	 1.7854318688	-1.338208021	 0.132622
H	-1.2946739968	 1.6758405981	 0.2284132856	 0.106052
H	-0.1752864959	-0.5540818933	 0.6378653734	 0.090856
H	-1.1774256513	-0.5928917249	-0.8040967724	 0.097926
H	 1.847931654	-0.1808149292	-0.7064759545	 0.07404
H	 2.1480020559	-2.434446295	-1.2350295943	 0.102207
H	 0.5518812843	-2.6766615743	-0.5228623176	 0.101143
H	 1.1397847054	-3.2627763973	-3.1989071597	 0.068383
H	-1.2845238865	-3.4601503713	-3.5026488793	 0.099232
H	-1.5522383247	-2.6015503049	-1.9828320418	 0.098098
H	-1.2545652308	-1.3427514292	-4.7458413566	 0.097386
H	-1.5847641153	-0.4407051195	-3.25638276	 0.106653
H	 1.1512215919	-0.9724133992	-4.3452336467	 0.07155
74.958	108.5974	127.7961	213.7472	233.3505	341.4811	363.6428	384.2962	459.6607	622.8057	713.9355	734.1141	743.3388	766.0194	814.8056	847.7219	876.4807	910.5483	926.4227	958.8358	969.7131	991.1401	1016.0679	1059.4687	1063.6013	1090.5698	1107.2821	1148.008	1161.9206	1198.2383	1218.1969	1233.0405	1256.9122	1267.0183	1276.7456	1293.006	1298.9908	1325.6233	1338.5475	1350.681	1382.9964	1403.6464	1412.3364	1466.9701	1481.1786	1488.0701	1496.4386	1497.1586	1509.2406	3012.0277	3022.0935	3034.4756	3050.6484	3056.5751	3058.9057	3064.5276	3067.7895	3087.6957	3095.0031	3099.4235	3106.1636	3121.7818	3124.4583
CCC1CC2CCC2O1	CC[C@H]1C[C@H]2CC[C@H]2O1	
InChI=1S/C8H14O/c1-2-7-5-6-3-4-8(6)9-7/h6-8H,2-5H2,1H3	InChI=1S/C8H14O/c1-2-7-5-6-3-4-8(6)9-7/h6-8H,2-5H2,1H3/t6-,7+,8-/m1/s1
