18
gdb 109825	3.54036	0.87937	0.80728	6.0266	73.46	-0.2528	0.0393	0.2921	1443.8386	0.14595	-439.061017	-439.051343	-439.050399	-439.096928	34.038	
C	 0.3839223202	 1.2240596026	 0.2626044051	-0.248024
O	-0.1834853799	-0.0042904956	-0.1771544589	-0.255523
C	 0.4923969794	-0.5514728146	-1.2730673422	 0.034421
C	 1.4268536411	-1.6956377752	-0.9528000436	 0.08616
O	 1.5552255382	-2.0504546669	 0.387389487	-0.422735
C	 0.1020301396	-1.9552884257	-1.6625580977	-0.12479
C	-1.022522608	-2.6673935122	-0.923592974	-0.341679
C	-1.2576558593	-4.0086868864	-1.4558787641	 0.255718
N	-1.4457385381	-5.0626805875	-1.8904071814	-0.309254
H	 1.4337941171	 1.1032926145	 0.5610533309	 0.125323
H	 0.3280497072	 1.9861735692	-0.5265097645	 0.124492
H	-0.2028029414	 1.5552559809	 1.1216634069	 0.139597
H	 0.7324611915	 0.1642424953	-2.0582837001	 0.098852
H	 2.3509901209	-1.8270491799	-1.5061938303	 0.111442
H	 1.0220234471	-1.4214607364	 0.8925092271	 0.295693
H	 0.1570937362	-2.1688420332	-2.7249640055	 0.115975
H	-0.769464773	-2.7578872375	 0.1371734794	 0.157087
H	-1.9570753888	-2.0991556612	-0.984264804	 0.157245
25.8163	87.2157	95.8325	175.0105	190.552	208.6387	272.4057	318.1375	380.7037	456.7638	483.2634	569.0208	602.6606	662.357	772.1257	802.6904	893.2523	934.817	967.471	1034.279	1072.2468	1088.7624	1116.6494	1129.515	1152.8986	1183.8099	1214.0642	1249.1697	1252.8177	1298.3558	1333.1149	1368.3689	1392.9492	1449.9407	1460.3954	1483.6754	1487.6865	1509.6406	2364.0891	3000.25	3052.4641	3058.362	3093.1515	3110.0457	3131.2765	3160.6984	3169.8844	3747.1536
COC1C(O)C1CC#N	CO[C@H]1[C@@H](O)[C@H]1CC#N	
InChI=1S/C6H9NO2/c1-9-6-4(2-3-7)5(6)8/h4-6,8H,2H2,1H3	InChI=1S/C6H9NO2/c1-9-6-4(2-3-7)5(6)8/h4-6,8H,2H2,1H3/t4-,5+,6-/m1/s1
