19
gdb 51632	4.57578	0.94811	0.91852	3.8879	75.98	-0.2427	-0.0181	0.2247	1310.8928	0.159795	-423.011774	-423.003889	-423.002945	-423.045197	30.017	
O	-0.2509640772	 0.0528150819	-0.2229956682	-0.2434
C	-0.0115796379	 1.22614207	-0.0890099406	 0.156884
C	 1.3770017696	 1.8287681649	-0.1626933505	-0.306532
C	 1.4607480766	 2.9434700395	-1.2095181081	 0.131823
O	 0.4984660829	 3.9940313226	-0.9328442508	-0.300586
C	 1.3345538954	 5.1675317542	-0.9131072319	 0.118703
C	 2.2606860705	 4.9657085161	-2.1366384987	-0.239182
C	 2.7541132765	 3.7775608268	-1.2471641561	-0.079015
C	 2.5326923845	 4.7389061438	-0.0342619704	-0.238015
H	-0.819419354	 1.9637455932	 0.1022005949	 0.097841
H	 1.6151092865	 2.2380485142	 0.8272635037	 0.117952
H	 2.0900510173	 1.0318452346	-0.3952029406	 0.117397
H	 1.2441157098	 2.5162394855	-2.1980614483	 0.086886
H	 0.7213271194	 6.0494199093	-0.7374739598	 0.084336
H	 1.7839577669	 4.7351513806	-3.0923722457	 0.103812
H	 3.0105692505	 5.7497859847	-2.2501907975	 0.105383
H	 3.6890581739	 3.2487753682	-1.4270932212	 0.078356
H	 3.3115306234	 5.4995234108	 0.0349816498	 0.106428
H	 2.3143751653	 4.3210864489	 0.9503915701	 0.100929
52.8119	71.7141	168.8864	218.2612	337.1778	432.3807	489.0929	530.8387	542.2681	654.9914	815.1653	832.542	842.343	854.3971	864.782	877.4387	938.3086	967.6505	985.2157	1021.8568	1037.0624	1051.4962	1072.0641	1100.3504	1107.0038	1123.439	1144.2845	1211.2245	1223.4694	1241.6135	1248.4239	1280.3996	1288.8153	1299.527	1354.1492	1399.732	1422.1315	1451.9279	1479.5142	1514.7531	1829.5077	2915.2637	3008.2597	3034.5487	3070.008	3079.4437	3100.3233	3130.282	3137.3767	3142.1377	3145.0751
O=CCC1OC2CC1C2	O=CC[C@H]1O[C@@H]2C[C@H]1C2	
InChI=1S/C7H10O2/c8-2-1-7-5-3-6(4-5)9-7/h2,5-7H,1,3-4H2	InChI=1S/C7H10O2/c8-2-1-7-5-3-6(4-5)9-7/h2,5-7H,1,3-4H2/t5-,6+,7-/m1/s1
