20
gdb 88379	2.11057	1.40616	1.20527	4.3288	78.94	-0.2737	0.0342	0.308	1183.3879	0.168118	-403.150777	-403.140582	-403.139638	-403.185858	37.023	
C	-1.5790516468	-1.1613566103	 2.6224818165	-0.448287
C	-0.6822225804	-1.2306593263	 1.4137913492	 0.061508
O	-0.5874841388	-0.0800676583	 0.5529078426	-0.260171
C	 0.5944999774	-0.5270641339	 1.2010660189	 0.070903
C	 1.3423388258	 0.4291643674	 2.136877172	 0.027226
C	 2.1990324839	-0.3982725606	 3.1222133311	-0.406667
C	 2.2450404573	 1.3398711176	 1.2663318751	-0.408135
C	 0.441461844	 1.3080786154	 2.8973115346	 0.295541
N	-0.2052297125	 2.0354713994	 3.5205271521	-0.354205
H	-1.4790559273	-0.225767925	 3.1702012462	 0.168197
H	-2.6229922829	-1.263782926	 2.308127214	 0.133886
H	-1.3551573722	-1.9953848032	 3.2970126092	 0.121377
H	-0.7843357301	-2.1615288402	 0.8499917358	 0.093741
H	 1.3072602479	-1.0200185098	 0.5328484355	 0.09126
H	 2.8625209333	-1.0643345444	 2.5618384978	 0.125406
H	 2.8152184223	 0.2569562968	 3.7429053593	 0.138602
H	 1.5708150038	-1.0066115845	 3.7772076458	 0.13863
H	 1.6449054267	 1.8995832813	 0.5451073561	 0.152935
H	 2.7943120574	 2.0498449825	 1.8895787394	 0.135809
H	 2.9672908411	 0.7256882923	 0.7198954389	 0.122445
41.0248	145.2018	154.4362	190.9098	195.4645	225.868	231.5486	261.7471	313.5159	340.3728	392.8319	436.3824	520.4441	592.9515	635.2913	692.0842	784.5882	827.8451	936.8623	940.9969	951.8072	1004.4402	1032.343	1045.2264	1094.4483	1161.8649	1170.9409	1185.908	1208.2005	1264.5851	1331.6233	1394.5284	1397.3795	1416.6861	1428.6607	1468.2268	1481.7222	1485.065	1494.3061	1499.7577	1508.4518	1512.1792	2355.0216	3041.7393	3043.671	3045.7407	3056.6989	3077.2148	3097.6562	3118.5327	3122.3712	3131.2728	3134.8912	3171.696
CC1OC1C(C)(C)C#N	C[C@H]1O[C@H]1C(C)(C)C#N	
InChI=1S/C7H11NO/c1-5-6(9-5)7(2,3)4-8/h5-6H,1-3H3	InChI=1S/C7H11NO/c1-5-6(9-5)7(2,3)4-8/h5-6H,1-3H3/t5-,6-/m1/s1
