17
gdb 79889	2.53726	1.77751	1.44999	1.4719	66.95	-0.2328	0.0495	0.2823	945.5501	0.135815	-458.883682	-458.876017	-458.875072	-458.915726	30.165	
O	 0.1356455632	 1.3489562943	-0.0995115737	-0.437466
C	-0.1170445262	-0.0213735162	-0.0227760333	 0.037169
C	-0.466532332	-0.7830940385	 1.2249051218	-0.22037
C	-1.5744586558	-0.0797199015	 2.0134446035	 0.115625
O	-1.5815280978	 1.396046919	 2.0084624156	-0.328137
C	-2.6280969281	 1.4188673227	 0.9855816664	-0.123457
C	-2.5411781584	-0.1103442612	 0.8240997775	-0.134217
C	-1.4322053918	-0.7313513989	-0.045716119	 0.336375
O	-1.7656929305	-1.7009289722	-0.9676719428	-0.456964
H	-0.1787077397	 1.7255146548	 0.7367896701	 0.300728
H	 0.6128982843	-0.5653371627	-0.6255175921	 0.100684
H	 0.1778410882	-1.5560707632	 1.6288359035	 0.092284
H	-1.809489082	-0.4812894238	 3.0000703162	 0.092287
H	-3.5721359708	 1.7655255002	 1.4197010056	 0.110761
H	-2.3542065534	 2.0410431807	 0.1301855849	 0.125056
H	-3.452176499	-0.7054196429	 0.843620496	 0.095154
H	-1.2679732401	-1.5470645207	-1.7771274003	 0.29449
82.726	183.7267	252.0522	265.5542	310.3822	362.0786	395.9232	532.445	587.0596	644.1503	675.8914	720.3157	768.0982	833.3503	871.1026	881.7887	890.2493	939.3793	971.2063	980.1315	999.0175	1050.1406	1083.7416	1111.7348	1162.457	1185.6086	1190.4885	1230.8233	1248.5386	1288.6347	1302.7282	1310.8273	1342.3235	1383.668	1426.4064	1482.1517	1510.6253	3040.4067	3095.8192	3100.9395	3106.6508	3138.0561	3172.8183	3688.5776	3815.0416
OC1C2C3OCC3C12O	O[C@H]1[C@H]2[C@H]3OC[C@H]3[C@@]12O	
InChI=1S/C6H8O3/c7-5-3-4-2(1-9-4)6(3,5)8/h2-5,7-8H,1H2	InChI=1S/C6H8O3/c7-5-3-4-2(1-9-4)6(3,5)8/h2-5,7-8H,1H2/t2-,3-,4+,5+,6+/m1/s1
