17
gdb 13493	3.10274	1.7002	1.43661	2.6625	64.59	-0.2402	-0.0306	0.2097	940.7194	0.140636	-400.987335	-400.9789	-400.977956	-401.020532	30.697	
C	 0.0197823205	 1.2864997701	 0.855756381	-0.422625
C	-0.1529284624	 0.3738728968	-0.3599148661	 0.132618
O	 0.85197325	-0.63010971	-0.4107473548	-0.434814
C	-1.5580223142	-0.246595222	-0.3974978329	-0.100581
N	-1.8941863963	-1.0389104761	-1.6139255389	-0.322169
C	-2.2923374096	-2.2374290738	-0.8288438964	-0.279084
C	-1.733154606	-1.541955201	 0.4178739242	 0.388729
O	-1.4513309803	-1.8752650339	 1.5317410781	-0.300833
H	 1.0397526416	 1.6784342975	 0.8846141609	 0.128216
H	-0.6763681371	 2.1311035905	 0.824940023	 0.114804
H	-0.1667310442	 0.7306202006	 1.781961495	 0.134692
H	-0.0214628201	 0.9490345207	-1.2840070816	 0.097037
H	 0.8801059804	-1.0567051814	 0.4538814906	 0.288065
H	-2.3112117254	 0.5088503868	-0.1275915749	 0.089787
H	-2.6489194787	-0.6418713887	-2.1601926682	 0.224399
H	-3.3723412188	-2.4255871494	-0.7499018719	 0.122215
H	-1.7931110994	-3.1659225565	-1.1264199869	 0.139544
64.6555	93.4909	134.5397	232.7371	252.4768	346.2418	363.4885	432.3485	442.2238	497.5648	629.9397	646.2671	728.6382	806.2859	883.8323	924.0378	980.2157	1013.266	1025.8711	1053.4587	1082.6888	1089.742	1104.0184	1158.1583	1221.3743	1259.3272	1298.9735	1334.6502	1340.8273	1379.3514	1402.8646	1426.3637	1469.6926	1492.5169	1500.5464	1898.7896	2994.9523	3010.8403	3032.4754	3045.8934	3071.7239	3101.8054	3121.2708	3550.9036	3790.8861
CC(O)C1NCC1=O	C[C@@H](O)[C@H]1NCC1=O	
InChI=1S/C5H9NO2/c1-3(7)5-4(8)2-6-5/h3,5-7H,2H2,1H3	InChI=1S/C5H9NO2/c1-3(7)5-4(8)2-6-5/h3,5-7H,2H2,1H3/t3-,5-/m1/s1
