18
gdb 30347	2.99287	1.56781	1.075	1.9359	78.03	-0.1899	0.0278	0.2176	1106.0506	0.150638	-401.970092	-401.962617	-401.961673	-402.001885	29.633	
C	-0.2714554724	 1.5387866689	-0.0203043323	-0.398187
C	 0.034386144	 0.0402164515	 0.0091683	-0.126341
C	 0.9717699698	-0.4255802701	-1.1516691081	-0.178647
N	 1.7022987995	-1.6036313909	-0.6241634516	-0.418198
C	 1.7790983778	-1.412431789	 0.7612801626	 0.215269
C	 2.4400543692	-1.8552055152	 1.8601985062	-0.147716
O	 1.9173606558	-1.2214335742	 2.9707993391	-0.165317
C	 0.9255647875	-0.3892150223	 2.546338533	-0.170612
C	 0.8041118171	-0.4649755791	 1.1996648027	 0.250729
H	 0.6465368044	 2.1264026095	 0.0812232851	 0.120253
H	-0.7583246151	 1.8229397049	-0.9593937671	 0.114466
H	-0.9421040312	 1.8179530617	 0.7981612322	 0.119447
H	-0.9120516662	-0.512840152	-0.069576977	 0.095955
H	 0.4165806819	-0.6900760697	-2.0562272273	 0.106193
H	 1.661495215	 0.3962556787	-1.4023189627	 0.094301
H	 2.575321926	-1.794828825	-1.0968870498	 0.233632
H	 3.2458496544	-2.5418912692	 2.0501788598	 0.123832
H	 0.4302950223	 0.1733966714	 3.3205652449	 0.13094
120.8166	174.6427	223.6899	264.0307	326.1332	441.6941	504.4276	549.2623	587.1795	611.0962	658.8947	680.2047	733.4709	762.6964	792.7135	902.4592	923.3172	953.4403	1010.3237	1040.6375	1055.9947	1112.5883	1127.1447	1143.8519	1154.9733	1225.3277	1249.1713	1294.9368	1310.0205	1324.9822	1361.517	1400.5089	1413.3722	1443.5683	1495.7929	1499.7965	1513.9326	1610.8494	1690.2572	2972.5547	3002.7731	3033.117	3079.2151	3100.9668	3108.3878	3270.0254	3289.9808	3575.7566
CC1CNC2=COC=C12	C[C@H]1CNc2cocc12	
InChI=1S/C7H9NO/c1-5-2-8-7-4-9-3-6(5)7/h3-5,8H,2H2,1H3	InChI=1S/C7H9NO/c1-5-2-8-7-4-9-3-6(5)7/h3-5,8H,2H2,1H3/t5-/m0/s1
