25
gdb 36975	4.83753	0.62158	0.60557	0.1559	93.65	-0.2667	0.0898	0.3566	1973.0132	0.229719	-352.33758	-352.327891	-352.326947	-352.373258	36.564	
C	-0.0321009311	 1.5593678291	 0.180991857	-0.20425
C	 0.0289513744	 0.0275700975	 0.0939030377	-0.20438
C	-1.3432763211	-0.6308248251	 0.0551626335	 0.064828
C	-2.2360460247	-0.4587193005	-1.2103139169	-0.214669
C	-2.6791243849	-1.9379074581	-1.053226377	-0.210416
C	-1.4409611992	-2.1703817443	-0.1464183172	-0.237228
C	 1.3330825126	 2.2141031556	 0.2076717157	 0.038433
C	 2.0634308293	 2.5123117719	-1.0784174618	-0.254009
C	 1.5125129175	 3.641478251	-0.2406715495	-0.277995
H	-0.601117709	 1.9505752387	-0.6733342487	 0.092746
H	-0.5964667996	 1.8484076579	 1.0788589128	 0.091745
H	 0.5954237154	-0.2616033592	-0.8021321038	 0.090383
H	 0.5955989689	-0.3620144053	 0.9516679852	 0.088309
H	-1.9153978786	-0.3415450298	 0.9460964099	 0.06425
H	-3.010216787	 0.3126532481	-1.1958629513	 0.09172
H	-1.6215871252	-0.3159213677	-2.1062157869	 0.093959
H	-3.6136649365	-2.0220173816	-0.490834023	 0.099436
H	-2.7671793098	-2.5417344458	-1.9595743793	 0.093227
H	-0.5872672837	-2.5471503199	-0.7202047689	 0.095315
H	-1.5632710922	-2.7961140601	 0.7415776407	 0.091213
H	 1.9600660364	 1.9005494286	 1.039692455	 0.077364
H	 3.1382882852	 2.3724451022	-1.1137658228	 0.107791
H	 1.5571020149	 2.2826311809	-2.0108488743	 0.106866
H	 0.6389866368	 4.1672246298	-0.6129363241	 0.107593
H	 2.211187081	 4.2718836859	 0.2984532481	 0.107768
56.4534	59.7594	96.4466	126.4651	168.0556	240.8437	299.8571	365.2803	419.6839	456.716	633.1338	756.3952	766.7304	774.5676	788.5344	819.0244	839.8288	894.071	910.1599	931.8313	936.2315	963.6858	975.2253	994.7982	1023.6608	1043.2392	1062.6987	1076.3751	1111.7808	1126.7487	1142.1323	1184.5947	1198.4659	1204.0458	1224.7174	1231.7473	1255.3097	1259.3944	1265.2575	1269.8923	1290.1344	1301.6022	1329.6258	1366.2753	1392.7246	1417.8619	1468.3666	1477.3569	1479.754	1485.6702	1496.5018	1508.2652	1510.3229	3000.1097	3006.8919	3016.386	3030.2874	3040.0375	3045.2844	3053.0203	3055.7905	3091.9181	3096.2735	3113.6327	3126.1523	3126.4123	3132.1793	3203.4676	3218.7955
C(CC1CCC1)C1CC1	C(CC1CCC1)C1CC1	
InChI=1S/C9H16/c1-2-8(3-1)4-5-9-6-7-9/h8-9H,1-7H2	InChI=1S/C9H16/c1-2-8(3-1)4-5-9-6-7-9/h8-9H,1-7H2
