18
gdb 113692	3.57682	0.88325	0.74187	3.679	70.77	-0.265	-0.0114	0.2536	1496.934	0.145776	-476.20952	-476.199801	-476.198857	-476.245167	34.117	
O	 0.0360186246	 1.2954762701	 0.3943790722	-0.414969
C	-0.1623300889	 0.0882907766	-0.3125552129	-0.066178
C	-1.4073760327	-0.6200873416	 0.1622916311	-0.026589
C	-1.5835279093	-2.1121367659	 0.1083430525	-0.27178
N	-1.265057903	-1.437162208	 1.3509518269	-0.087807
C	-2.0229361654	-1.3248080871	 2.4953291701	 0.346594
O	-2.2475953574	-0.2539624239	 3.0283615142	-0.362119
C	-2.485831376	-2.6248827879	 3.1420514609	-0.129544
O	-3.1238179388	-2.3677901866	 4.3571288859	-0.417841
H	-0.0398415677	 1.0976591022	 1.3356113856	 0.295517
H	-0.2627422455	 0.3604725241	-1.3687653918	 0.116864
H	 0.697250071	-0.5943432318	-0.2188135846	 0.092817
H	-2.3157791804	-0.0213044952	 0.1139156746	 0.122432
H	-2.5931656081	-2.4934307798	-0.0248659813	 0.13732
H	-0.7970826427	-2.7395045493	-0.3029872451	 0.13513
H	-3.1606192421	-3.1444620198	 2.4413163147	 0.110268
H	-1.6105504007	-3.2791726308	 3.2747001447	 0.123801
H	-3.1025681269	-1.4018090053	 4.4522448524	 0.296084
62.714	70.9764	86.4764	125.3314	165.3066	239.0518	331.0895	356.9966	380.3202	417.2242	438.573	513.9934	573.6218	624.0489	813.7609	828.9105	899.0413	972.899	1031.2248	1033.424	1075.1218	1087.9999	1121.7141	1139.2058	1145.9048	1154.6303	1206.5004	1238.6891	1247.9582	1308.4564	1348.3746	1380.3432	1419.6393	1456.1984	1473.3519	1498.7952	1500.3617	1515.3859	1765.6362	2972.3366	2981.5013	3003.4265	3073.5916	3105.899	3133.665	3194.569	3683.7116	3790.4786
OCC1CN1C(=O)CO	OC[C@H]1CN1C(=O)CO	
InChI=1S/C5H9NO3/c7-2-4-1-6(4)5(9)3-8/h4,7-8H,1-3H2	InChI=1S/C5H9NO3/c7-2-4-1-6(4)5(9)3-8/h4,7-8H,1-3H2/t4-,6?/m1/s1
