23
gdb 117685	3.87458	0.73214	0.71936	1.4551	87.9	-0.2598	0.0483	0.3081	1670.252	0.201702	-388.259265	-388.247848	-388.246904	-388.295665	41.935	
C	 0.0444515261	 1.615318891	 0.0970223506	-0.412718
C	 0.034315151	 0.0762595249	 0.1157680893	 0.237224
C	 0.8132788897	-0.441912238	 1.3380038249	-0.412715
C	-1.4114158616	-0.4731441833	 0.1007087729	-0.170662
C	-2.3012103865	-0.0942512024	 1.280603385	-0.105561
O	-3.5661843106	-0.7035618624	 1.0533029306	-0.419718
C	 0.7107327179	-0.4562931392	-1.1861046489	-0.376846
C	 2.0984948518	-0.0492294735	-1.37055671	 0.309742
C	 3.2431908735	 0.2888027878	-1.5189467614	-0.448132
H	 1.0656092126	 1.992211986	-0.0101437883	 0.128103
H	-0.5466655002	 2.0039257273	-0.7401094478	 0.108933
H	-0.3684733854	 2.0317968345	 1.0205657532	 0.110676
H	 0.4071332972	-0.0436413127	 2.2725198965	 0.110666
H	 0.7762144237	-1.5357978266	 1.3951516328	 0.108924
H	 1.864218036	-0.1446991737	 1.2789289125	 0.128109
H	-1.9171868284	-0.1364700172	-0.8132680347	 0.10001
H	-1.3817689867	-1.5690943459	 0.0505384912	 0.099987
H	-1.860696916	-0.4476244417	 2.2250318197	 0.087833
H	-2.4009562838	 0.9992290882	 1.3530026257	 0.087833
H	-4.143199287	-0.4776983036	 1.7885326949	 0.284935
H	 0.6568865898	-1.5528116441	-1.1872973654	 0.125647
H	 0.1223609717	-0.1216902705	-2.0504637372	 0.125651
H	 4.2539909754	 0.5822089752	-1.6584877961	 0.192079
65.9844	75.7094	111.2268	113.8616	201.3982	243.4206	259.4569	268.911	311.1844	319.5487	330.1077	355.2916	395.9849	400.7796	438.0179	611.4441	611.6884	638.3013	759.9704	795.1967	884.0056	892.3067	946.8753	973.0394	992.8798	999.5484	1036.9428	1068.3241	1071.5186	1178.7178	1191.058	1229.3651	1233.4222	1263.34	1297.2672	1334.5125	1344.1104	1352.3148	1399.5039	1421.9811	1460.2877	1462.3569	1483.9965	1485.3032	1495.4505	1507.0013	1512.9566	1529.9784	2232.4461	2978.5229	3004.854	3012.9348	3020.3377	3029.5048	3035.241	3047.431	3063.3615	3096.7339	3099.8758	3110.508	3114.5455	3505.6963	3829.3149
CC(C)(CCO)CC#C	CC(C)(CCO)CC#C	
InChI=1S/C8H14O/c1-4-5-8(2,3)6-7-9/h1,9H,5-7H2,2-3H3	InChI=1S/C8H14O/c1-4-5-8(2,3)6-7-9/h1,9H,5-7H2,2-3H3
