12
gdb 131935	4.65603	1.13127	0.91073	6.1283	61.8	-0.2428	-0.0784	0.1644	1153.0702	0.078064	-505.888985	-505.881668	-505.880723	-505.92126	26.567	
N	 0.0418833914	 1.3080995018	 0.1427830495	-0.589662
C	-0.0681790561	-0.0445303867	 0.0461927565	 0.491244
N	-1.1462273321	-0.7669504349	 0.0296758362	-0.36073
C	-0.6489126668	-2.0510906782	 0.0020576029	 0.333774
C	 0.703094232	-2.0625144754	-0.0047190276	-0.069148
O	 1.0978883576	-0.7507128723	 0.0253365239	-0.175994
N	-1.4954002111	-3.220087328	-0.02394702	 0.339974
O	-2.7033609768	-3.0539911159	-0.0180837772	-0.337804
O	-0.914189547	-4.3034755719	-0.0509591456	-0.381031
H	 0.8889459024	 1.7138261681	-0.2238494889	 0.276687
H	-0.8042261114	 1.8102194459	-0.0778381981	 0.285623
H	 1.4628781476	-2.8206569426	-0.0300305615	 0.187068
73.1521	164.2511	194.3105	313.2279	345.3002	396.5498	429.0862	525.3536	564.1234	607.949	736.3069	752.7057	769.7273	812.1916	839.8776	942.6095	1008.0855	1113.8014	1131.8531	1209.0435	1321.8434	1403.5892	1436.334	1598.092	1606.0983	1642.2071	1703.9178	3328.5385	3591.6438	3704.3041
NC1=NC(=CO1)N(=O)=O	Nc1nc(co1)N(=O)=O	
InChI=1S/C3H3N3O3/c4-3-5-2(1-9-3)6(7)8/h1H,(H2,4,5)	InChI=1S/C3H3N3O3/c4-3-5-2(1-9-3)6(7)8/h1H,(H2,4,5)
