16
gdb 47293	3.33358	1.30823	1.00477	1.7865	67.11	-0.268	-0.0073	0.2607	1129.254	0.125287	-475.053384	-475.045436	-475.044492	-475.086704	29.059	
N	-0.1308660219	 1.3694129787	-0.5651360268	-0.499675
C	-0.0308759291	 0.2795097104	 0.0652789524	 0.392624
C	-1.0733946747	-0.8010850855	-0.0353545546	-0.318095
C	-1.6100176879	-1.1867894307	 1.3441616836	-0.063212
O	-0.8156441519	-2.1209700992	 2.0923025711	-0.219669
C	 0.5274376898	-2.1865553546	 2.1037295472	 0.386893
O	 1.0693544651	-3.0259985264	 2.770581853	-0.30712
C	 1.3938817876	-1.2749902184	 1.2233850153	-0.235266
O	 0.96805717	 0.0598181145	 0.9752444978	-0.234308
H	 0.6592729604	 1.9793870634	-0.3435493128	 0.227879
H	-1.8888376966	-0.407691578	-0.644721769	 0.152672
H	-0.6901394792	-1.6936079585	-0.5444239302	 0.13362
H	-1.7679494788	-0.2923256623	 1.956838223	 0.137476
H	-2.5703992789	-1.6952101628	 1.2357168498	 0.136801
H	 2.3444542258	-1.1897044542	 1.7488985973	 0.165477
H	 1.5852902904	-1.8068697265	 0.2818477429	 0.143903
50.45	95.4516	177.1685	245.7607	307.5762	355.8684	415.6193	489.8526	542.9732	574.6704	676.7285	689.1033	763.2175	806.3174	921.7393	932.8223	956.2561	1018.7132	1054.9925	1073.9986	1104.7267	1142.4945	1208.8641	1245.6486	1289.2899	1299.48	1335.4257	1365.7516	1398.3798	1435.133	1462.544	1479.8275	1512.582	1763.3655	1831.6013	3025.2439	3044.1252	3053.5787	3110.4629	3127.0676	3145.3553	3464.3581
N=C1CCOC(=O)CO1	[NH][C]1CCOC(=O)CO1	
InChI=1S/C5H7NO3/c6-4-1-2-8-5(7)3-9-4/h6H,1-3H2	InChI=1S/C5H7NO3/c6-4-1-2-8-5(7)3-9-4/h6H,1-3H2
