15
gdb 66422	2.54192	1.18435	1.08839	2.8194	71.12	-0.2332	-0.0743	0.1589	1172.8719	0.109494	-453.90064	-453.891162	-453.890218	-453.935982	33.676	
O	 0.200201538	 1.2141044556	 0.104654167	-0.480393
C	-0.2068670483	-0.1336202911	-0.0353061383	 0.263609
C	-1.6488060099	-0.4484596352	 0.1656078501	-0.203086
N	 0.2985907208	-2.1486684836	-1.2475096459	-0.533673
C	 0.5742857866	-0.9107830865	-1.0792339238	 0.277219
N	 1.5355727373	-0.1631378436	-1.7144978448	-0.546371
H	 1.9284485168	-0.5232545159	-2.5689116949	 0.247145
H	 1.4481152084	 0.8378807817	-1.6360130114	 0.260553
C	-0.8393326778	-0.8570108684	 1.0992920396	 0.150886
C	-0.6133139293	-1.5442868623	 2.3687393483	 0.067688
O	 0.4359094887	-1.5154472431	 2.9658367647	-0.264534
H	 0.8876008128	 1.2445636209	 0.7795710239	 0.295261
H	-2.6373908576	-0.3714257931	-0.2536341815	 0.16825
H	 0.8808635601	-2.5636040585	-1.9767206789	 0.19836
H	-1.4955614166	-2.092979617	 2.7571868659	 0.099085
33.825	70.0109	108.6918	144.5657	231.8364	282.5298	343.5044	391.4747	440.5982	447.3989	481.4675	562.1973	563.9608	582.7084	668.399	710.7225	785.9878	841.726	861.3908	990.1862	1023.844	1078.5464	1098.163	1113.9501	1148.3886	1236.2125	1306.6309	1413.1027	1422.6771	1607.7048	1715.1799	1783.7844	1811.4793	2922.0481	3288.8078	3456.578	3582.5019	3706.7224	3803.0217
OC12C(NC1=[NH2+])[C-]2C=O	O[C@@]1(C=C1C=O)C(=N)N	
InChI=1S/C5H5N2O2/c6-4-5(9)2(1-8)3(5)7-4/h1,3,9H,(H2,6,7)/q-1/p+1	InChI=1S/C5H6N2O2/c6-4(7)5(9)1-3(5)2-8/h1-2,9H,(H3,6,7)/t5-/m1/s1
