13
gdb 44871	3.65925	1.70602	1.55775	1.9653	55.15	-0.2756	-0.0139	0.2617	829.4192	0.090973	-493.697298	-493.691539	-493.690595	-493.727466	23.168	
O	-0.020890584	 0.021248596	 0.031466345	-0.327545
C	 0.0135069492	 1.2112022468	 0.0127819226	 0.469446
O	-1.0961474322	 2.0257954981	 0.0377424846	-0.246686
C	-0.5530633779	 3.3732132139	 0.0486446345	 0.146154
O	 0.6073427637	 3.2789313136	-0.7326185979	-0.214879
C	 1.2007654911	 2.2020587954	-0.0008618757	-0.156107
C	 1.2085246755	 2.7514336665	 1.4462361919	 0.030389
O	 1.2795115351	 4.1725507157	 1.5109320618	-0.224907
C	-0.0090401548	 3.5640115002	 1.4803256159	 0.003914
H	-1.2760052533	 4.0679473116	-0.3701075582	 0.122855
H	 2.1228646613	 1.8538696292	-0.4554953363	 0.129933
H	 1.5984792237	 2.1775662515	 2.2785141352	 0.136951
H	-0.6611244974	 3.6850979814	 2.3371791466	 0.130481
155.7928	316.9127	367.2642	476.2629	494.458	604.8622	671.9386	741.2622	787.8199	830.0937	849.1524	877.2426	883.8537	909.2912	930.4455	977.2738	990.8569	1047.6215	1068.2246	1083.3928	1155.5461	1197.3156	1242.9952	1258.9337	1276.8714	1320.2331	1336.5908	1412.2138	1916.207	3172.8132	3185.4856	3190.5877	3202.7083
O=C1OC2OC1C1OC21	O=C1O[C@@H]2O[C@H]1[C@H]1O[C@@H]21	
InChI=1S/C5H4O4/c6-4-2-1-3(7-1)5(8-2)9-4/h1-3,5H	InChI=1S/C5H4O4/c6-4-2-1-3(7-1)5(8-2)9-4/h1-3,5H/t1-,2+,3-,5+/m1/s1
