23
gdb 118780	2.77503	1.04903	0.88702	1.5615	83.48	-0.2383	0.0775	0.3157	1440.5206	0.201456	-425.413023	-425.40193	-425.400985	-425.448788	41.05	
C	-0.0119431422	 1.4998611616	-0.225131336	-0.384559
C	-0.1482337166	-0.0134989938	-0.2002330686	-0.046865
O	 0.9350691881	-0.564508291	-0.9348420327	-0.294557
C	 0.8732252709	-1.9500537644	-1.1425260337	 0.402812
C	 1.1071000675	-2.7950891673	 0.0907102022	-0.454386
C	-0.0838212435	-2.4348417678	-2.2253684111	-0.41486
C	 1.415931748	-2.3918353274	-2.4740073927	 0.331069
C	 1.9943425392	-1.3886397618	-3.4446755965	-0.439331
O	 2.1049539248	-3.6180536976	-2.4407484598	-0.467162
H	 0.9427492384	 1.8057088222	 0.2122304176	 0.127566
H	-0.0521545498	 1.8746119244	-1.2520706198	 0.122099
H	-0.8205550034	 1.9648914201	 0.3469281534	 0.113334
H	-0.1374270395	-0.3788053644	 0.8373877183	 0.092663
H	-1.1049118174	-0.3268006978	-0.645997775	 0.08832
H	 0.2747030011	-2.7104279432	 0.7970030869	 0.110866
H	 1.2226015797	-3.8437165854	-0.1841189422	 0.13685
H	 2.021499578	-2.4697194731	 0.5974108452	 0.122443
H	-0.5429278286	-3.4091603677	-2.0940055455	 0.108205
H	-0.7002637908	-1.6933068228	-2.7227013496	 0.109848
H	 1.496765605	-0.4226937174	-3.353717765	 0.130428
H	 3.0617883458	-1.248208607	-3.2479564866	 0.125247
H	 1.8818869911	-1.7443551826	-4.4764043748	 0.099693
H	 1.946311844	-4.0626473158	-3.280731794	 0.280276
67.0643	97.7555	126.0098	183.3226	187.7445	205.8477	254.0785	263.9156	278.088	322.1743	331.1514	400.459	423.1184	454.2049	463.7653	572.4232	708.0127	739.6285	821.8953	871.037	908.2559	921.8119	924.6845	977.4802	999.1188	1020.7454	1077.5953	1095.0787	1116.0413	1153.7885	1177.0238	1189.1862	1223.3625	1287.1535	1293.8887	1303.4044	1394.0689	1400.2052	1404.9016	1416.5311	1426.2415	1472.5659	1483.9292	1484.911	1489.7277	1495.0103	1500.6039	1515.3543	1529.9024	2981.2484	3011.3445	3027.9092	3041.2916	3043.3686	3093.2337	3100.0535	3117.321	3120.1913	3125.5061	3147.7151	3150.3854	3219.0095	3795.9972
CCOC1(C)CC1(C)O	CCO[C@@]1(C)C[C@]1(C)O	
InChI=1S/C7H14O2/c1-4-9-7(3)5-6(7,2)8/h8H,4-5H2,1-3H3	InChI=1S/C7H14O2/c1-4-9-7(3)5-6(7,2)8/h8H,4-5H2,1-3H3/t6-,7-/m0/s1
