20
gdb 10983	2.62497	2.27184	1.86446	1.4695	73.73	-0.2475	0.0671	0.3146	854.9154	0.178514	-349.004578	-348.996991	-348.996047	-349.035709	30.559	
C	-0.0277000828	 1.5133453549	 0.0549059423	-0.502546
C	-0.0292348188	 0.0037094	 0.0002809297	 0.305426
C	 0.3523896085	-0.8069061201	-1.2771808095	-0.264178
C	-0.4199182781	-1.9569090798	-0.5719270444	-0.066615
C	 0.475458242	-2.2331706021	 0.6511635449	-0.236415
C	 0.7679846631	-0.7579673494	 1.0844307767	-0.264803
C	-1.3547083791	-0.827904728	-0.0472023259	 0.149074
O	-2.1615067371	-0.99255629	 1.0881408344	-0.451812
H	 0.9908225935	 1.9164514626	 0.0109873093	 0.112209
H	-0.5934640737	 1.9435204917	-0.7783673551	 0.112528
H	-0.4848610033	 1.8689155284	 0.985588888	 0.120253
H	-0.1496951715	-0.4398792426	-2.1758318534	 0.095424
H	 1.4160029538	-0.9629323268	-1.4774920803	 0.089539
H	-0.8066439764	-2.8168423833	-1.1189093553	 0.059657
H	-0.0359845684	-2.8166929704	 1.424799075	 0.089755
H	 1.3824233055	-2.7819194156	 0.3838346953	 0.100782
H	 1.8332642494	-0.511044285	 1.0543572984	 0.098536
H	 0.4138002992	-0.5263101327	 2.095650344	 0.08832
H	-2.0199802416	-0.4607013951	-0.8330637128	 0.081737
H	-1.6241796943	-1.3424529568	 1.8056294288	 0.283128
188.5549	209.1438	231.8126	254.3934	281.9704	306.4888	438.2115	462.3427	583.3495	596.5465	735.3929	791.0911	808.0143	843.2392	856.1285	890.3408	919.7675	950.2203	970.0573	988.273	1007.439	1068.0633	1097.1617	1143.1621	1147.959	1164.1173	1183.5041	1218.1316	1238.9019	1251.6412	1262.2395	1280.7787	1301.1548	1321.6026	1357.0509	1413.2076	1444.4348	1491.5354	1494.1533	1499.2823	1502.1998	1525.506	3022.1882	3032.3011	3045.2451	3055.5415	3075.5596	3082.7242	3085.2016	3092.7047	3094.9028	3113.7361	3117.4433	3822.2601
CC12CC(CC1)C2O	C[C@@]12C[C@@H](CC1)[C@H]2O	
InChI=1S/C7H12O/c1-7-3-2-5(4-7)6(7)8/h5-6,8H,2-4H2,1H3	InChI=1S/C7H12O/c1-7-3-2-5(4-7)6(7)8/h5-6,8H,2-4H2,1H3/t5-,6-,7+/m1/s1
