22
gdb 77937	2.21598	1.69593	1.1013	2.066	84.74	-0.1943	0.0711	0.2654	1189.2967	0.191427	-404.263029	-404.253203	-404.252259	-404.296913	37.879	
C	-0.2508464761	 1.5347029936	 0.2141411161	-0.425615
C	-0.0148317007	 0.046228551	 0.0328959551	 0.052639
C	 1.3200721033	-0.4629588696	-0.6076491931	-0.12829
N	 1.9789350941	 0.0295495694	 0.6610284397	-0.099756
C	 3.3560360948	-0.2803963074	 1.0336249679	-0.328612
C	 0.7716706711	-0.7590094865	 1.1216914195	-0.099639
C	 1.0246992495	-1.8721634001	 0.0505345292	 0.447379
C	-0.0868337347	-2.785802917	-0.4725748568	-0.477249
O	 2.1266210155	-2.6996213707	 0.3700665874	-0.470055
H	 0.6472269048	 2.0288646752	 0.5837566224	 0.136278
H	-0.5434385134	 1.9935016206	-0.7372838473	 0.105991
H	-1.0693985472	 1.7083526291	 0.9220743145	 0.106719
H	-0.9176956663	-0.4391912537	-0.3332065422	 0.060015
H	 1.7250698791	-0.236693877	-1.5978946357	 0.066485
H	 3.6877673001	-1.3106574252	 0.8917981597	 0.121871
H	 4.0085814855	 0.3887826781	 0.4597910691	 0.106847
H	 3.4799103914	-0.0148835472	 2.0899931724	 0.111397
H	 0.5302715791	-0.8860850632	 2.1799215796	 0.072356
H	-1.0144993379	-2.2825669551	-0.7413613082	 0.128097
H	 0.2667862085	-3.3087151501	-1.3714998104	 0.106942
H	-0.3110140983	-3.5465099382	 0.2817430013	 0.13046
H	 2.284318568	-3.284997386	-0.3779984603	 0.275739
92.2946	145.7377	182.2213	200.0125	240.0524	240.9686	265.6351	299.0142	326.2855	398.6506	429.313	458.5387	528.0592	631.14	677.541	730.5334	755.5477	788.8477	798.8988	881.27	960.6932	1026.8513	1033.0226	1068.5913	1071.8001	1074.3442	1103.3128	1122.5057	1135.6573	1157.5651	1192.2784	1205.8216	1209.8629	1221.9369	1239.5221	1284.2816	1371.2081	1389.9354	1400.3282	1426.1119	1440.1185	1477.8799	1489.0185	1494.7443	1498.4326	1510.1013	1520.723	3020.3256	3021.2264	3030.8601	3074.6074	3076.8809	3082.1727	3086.4422	3088.8598	3115.0393	3119.203	3150.4317	3157.6304	3805.8905
CC1C2N(C)C1C2(C)O	C[C@H]1[C@H]2N(C)[C@@H]1[C@]2(C)O	
InChI=1S/C7H13NO/c1-4-5-7(2,9)6(4)8(5)3/h4-6,9H,1-3H3	InChI=1S/C7H13NO/c1-4-5-7(2,9)6(4)8(5)3/h4-6,9H,1-3H3/t4-,5+,6-,7+
