20
gdb 88277	3.74937	0.95693	0.89689	2.6133	82.82	-0.2528	-0.0257	0.2271	1389.2114	0.171084	-403.135385	-403.126318	-403.125374	-403.169768	33.606	
C	-0.1510248066	 1.6304968221	 0.2053687492	-0.418668
C	-0.0980867467	 0.1231282275	 0.1095804695	 0.015037
C	 1.1052488282	-0.5954494343	-0.3948043571	-0.287296
C	 0.7426247616	-0.7377123233	 1.0744530552	-0.135024
C	 1.6114331777	-0.0957819404	 2.0904990288	 0.396415
O	 2.3751121146	 0.8231443367	 1.8364277915	-0.369384
C	 1.5206967131	-0.6271346517	 3.4893132284	-0.109338
C	 2.8232883949	-0.9638296484	 4.153252534	-0.219724
N	 2.069486267	 0.2116538526	 4.5628748244	-0.305137
H	 0.8183302842	 2.0448097524	 0.4874271149	 0.15576
H	-0.4391912279	 2.0553679389	-0.7624268403	 0.118125
H	-0.8912862145	 1.9543907241	 0.9447330266	 0.117551
H	-1.0518571627	-0.3431159253	-0.1244909414	 0.095916
H	 0.9832521839	-1.4697836639	-1.0241712815	 0.116652
H	 1.9929321482	-0.0015574567	-0.5853391532	 0.139195
H	 0.2782931799	-1.6658245694	 1.390424929	 0.08944
H	 0.6347188577	-1.2004672764	 3.7452170487	 0.097752
H	 2.8490745816	-1.7800198069	 4.8695760495	 0.1247
H	 3.7230254976	-0.8258770401	 3.5600399436	 0.130722
H	 2.4766143583	 1.0288544926	 4.10465014	 0.247307
52.4031	78.2944	173.0353	185.0468	237.3569	261.6472	299.5202	357.8092	383.5262	425.2827	666.3989	732.1875	775.4733	802.9132	843.1678	857.7819	872.7586	900.6824	949.3275	977.1804	998.902	1013.1099	1072.4435	1087.7183	1106.0162	1117.9468	1124.3883	1141.0559	1146.0312	1181.3126	1208.0057	1238.2215	1288.9402	1323.668	1375.8618	1394.478	1423.315	1431.6138	1477.5302	1496.0872	1501.6128	1505.0286	1748.7045	3036.3616	3092.4873	3111.3194	3130.6813	3135.5803	3147.6812	3154.1324	3167.0532	3204.8712	3228.8325	3454.6129
CC1CC1C(=O)C1CN1	C[C@H]1C[C@H]1C(=O)[C@H]1CN1	
InChI=1S/C7H11NO/c1-4-2-5(4)7(9)6-3-8-6/h4-6,8H,2-3H2,1H3	InChI=1S/C7H11NO/c1-4-2-5(4)7(9)6-3-8-6/h4-6,8H,2-3H2,1H3/t4-,5+,6+/m0/s1
