19
gdb 83941	2.24807	1.69728	1.48406	2.6512	73.86	-0.2336	-0.0186	0.2149	998.8908	0.161324	-423.038762	-423.030972	-423.030028	-423.070709	30.95	
O	 0.1374262955	 1.4063008939	-0.1231755932	-0.435279
C	 0.005993015	 0.0192425559	 0.0117237654	 0.152284
C	 0.234866397	-0.6751615426	 1.3999817016	-0.184911
C	-0.452949293	 0.1612747748	 2.5038855106	-0.234329
C	-1.9870422716	 0.1818204146	 2.2987738502	-0.216421
C	-2.3989661601	 0.1804795693	 0.8067093196	-0.23436
C	-1.4082019239	-0.6588884921	-0.0330342173	-0.184914
C	-0.7629938411	-1.7225548475	 0.873672922	 0.423616
O	-0.890172413	-2.9057161786	 1.0060418015	-0.321526
H	-0.4221811946	 1.8480242955	 0.52251597	 0.286755
H	 0.6633544378	-0.4112895276	-0.7468847413	 0.103615
H	 1.2411891471	-0.9952197827	 1.673352749	 0.087602
H	-0.2195286304	-0.2536727621	 3.4884040388	 0.117238
H	-0.0266707547	 1.1729634777	 2.4917185351	 0.104443
H	-2.3952493676	-0.7260243156	 2.7565519788	 0.127434
H	-2.4411968266	 1.0245721815	 2.8290498359	 0.099478
H	-3.4106372788	-0.2222435702	 0.7053147282	 0.117252
H	-2.4336352176	 1.1967293678	 0.3926720372	 0.10442
H	-1.8193593696	-0.964912832	-0.9959224423	 0.087604
140.8972	172.2567	191.971	285.4236	298.7077	312.1351	470.8184	499.3445	542.8146	544.198	665.2539	714.298	787.4961	799.8025	814.3911	864.4383	889.9213	917.2851	1018.5687	1026.878	1059.29	1081.8342	1099.8612	1109.8484	1121.7079	1135.3347	1212.3742	1215.7974	1239.3125	1256.6769	1296.5375	1299.381	1310.672	1353.1488	1370.6084	1373.319	1444.4765	1493.1939	1501.8653	1515.437	1889.4699	3022.3544	3022.4819	3041.5192	3077.8709	3082.6543	3088.2214	3091.5525	3105.6257	3109.2725	3834.517
OC1C2CCCC1C2=O	O[C@H]1[C@H]2CCC[C@@H]1C2=O	
InChI=1S/C7H10O2/c8-6-4-2-1-3-5(6)7(4)9/h4-6,8H,1-3H2	InChI=1S/C7H10O2/c8-6-4-2-1-3-5(6)7(4)9/h4-6,8H,1-3H2/t4-,5+,6+
