19
gdb 60732	3.9731	0.969	0.83373	2.163	82.05	-0.246	-0.0147	0.2313	1401.1252	0.159678	-419.230895	-419.221583	-419.220639	-419.265792	33.613	
C	-0.2870374259	 1.5146643547	 0.0485216631	-0.354757
N	 0.0627364517	 0.0950863666	 0.0137186567	-0.137221
C	 0.10326027	-0.6143539278	 1.2140068885	 0.100625
N	-0.1543285558	-0.0616078581	 2.3302328733	-0.480629
C	 0.3604071062	-0.5960396796	-1.1640422642	 0.462884
O	 0.6476232008	-1.7812309949	-1.1527688172	-0.386692
C	 0.3133025336	 0.174802605	-2.4398208711	-0.159132
C	 1.3055859783	-0.246975823	-3.5146463468	-0.245615
C	-0.1336292245	-0.5973852968	-3.6733121514	-0.245612
H	 0.5279817245	 2.1330300906	-0.3378946653	 0.135934
H	-1.1953494147	 1.713063283	-0.5273052521	 0.135932
H	-0.4644792011	 1.7723804201	 1.0916668015	 0.180431
H	 0.3752870674	-1.6556299037	 1.0474918705	 0.145452
H	-0.0709585796	-0.7431925612	 3.0815060627	 0.230935
H	 0.0539141082	 1.222537206	-2.4010697879	 0.095853
H	 1.7275912943	 0.5407751841	-4.1278185731	 0.117722
H	 1.9833830188	-1.0451334316	-3.237257082	 0.14309
H	-0.4153736871	-1.6291766679	-3.5017050557	 0.143087
H	-0.7311383449	-0.0579307157	-4.3989760293	 0.117715
48.8151	60.5659	162.5256	189.5166	190.1933	270.686	311.5836	318.3185	346.4399	410.1962	542.693	698.5749	749.4047	782.5102	810.1328	831.1945	832.5114	898.4963	912.5994	996.2737	1066.3672	1087.2451	1099.8697	1100.1831	1122.1556	1124.9061	1155.5106	1180.9093	1211.401	1229.0544	1311.4623	1359.6457	1399.2578	1427.8074	1452.3232	1458.3877	1485.1841	1506.917	1511.1072	1709.9057	1758.6973	3043.9132	3107.5211	3144.6835	3146.7086	3150.9573	3162.776	3218.2795	3234.4899	3249.0932	3510.4803
CN(C=N)C(=O)C1CC1	CN(C=N)C(=O)C1CC1	
InChI=1S/C6H10N2O/c1-8(4-7)6(9)5-2-3-5/h4-5,7H,2-3H2,1H3	InChI=1S/C6H10N2O/c1-8(4-7)6(9)5-2-3-5/h4-5,7H,2-3H2,1H3
