19
gdb 12008	3.17699	2.05206	1.79344	2.7173	70.77	-0.2365	0.0745	0.311	851.2706	0.165733	-365.049694	-365.041986	-365.041042	-365.081055	30.309	
C	 0.1187604578	 1.5200635595	-0.0091911862	-0.419465
C	-0.0108367148	 0.0002950809	 0.04034546	 0.395923
C	-1.4761613626	-0.4543264934	 0.0088186881	-0.423927
O	 0.6879273783	-0.5125668453	-1.1139800651	-0.299202
C	 1.3311378442	-1.7440446581	-0.8108553573	-0.085793
C	 1.5462776178	-1.7359103466	 0.6871961291	-0.051022
N	 2.1774469679	-0.4823372675	 1.152367517	-0.338233
C	 0.7111716663	-0.6401318299	 1.2217195315	-0.087417
H	 1.1716312103	 1.7997324115	 0.0611718429	 0.138874
H	-0.2863472849	 1.9020177099	-0.9507431162	 0.118875
H	-0.4315622396	 1.9852789856	 0.8151817555	 0.10266
H	-1.9566282792	-0.0990163306	-0.9069229881	 0.124217
H	-1.5499656636	-1.546308724	 0.03168608	 0.111922
H	-2.0322241475	-0.0583911769	 0.8655238637	 0.108984
H	 0.7099105793	-2.6102453845	-1.0918488142	 0.086866
H	 2.2618340128	-1.7829171486	-1.3871720992	 0.110907
H	 1.7172918027	-2.6636175687	 1.2228788773	 0.090654
H	 2.5706341476	-0.6333551003	 2.0785501101	 0.230267
H	 0.2154951872	-0.6963384931	 2.185381491	 0.084909
140.0178	206.1126	215.149	243.3081	321.607	348.4863	376.1251	402.9882	521.9327	601.3078	725.9228	783.666	822.9676	853.1144	879.9305	900.754	931.0746	950.6858	980.9389	1009.1908	1033.2652	1075.1087	1099.7993	1118.8031	1156.6589	1204.0313	1218.5254	1233.6688	1251.5421	1267.8316	1363.015	1387.6751	1392.6945	1409.5241	1432.0769	1477.4783	1483.919	1495.9149	1505.6165	1512.8389	2971.509	3033.4686	3043.2238	3064.5229	3101.1756	3110.6074	3117.3476	3138.5326	3162.1078	3173.7397	3497.0855
CC1(C)OCC2NC12	CC1(C)OC[C@H]2N[C@@H]12	
InChI=1S/C6H11NO/c1-6(2)5-4(7-5)3-8-6/h4-5,7H,3H2,1-2H3	InChI=1S/C6H11NO/c1-6(2)5-4(7-5)3-8-6/h4-5,7H,3H2,1-2H3/t4-,5-/m1/s1
