22
gdb 116338	2.67373	1.40053	1.10798	1.1817	81.09	-0.2218	0.0772	0.2989	1181.8034	0.196586	-404.327028	-404.318468	-404.317524	-404.360091	33.695	
O	 0.2371440669	 1.3993137387	 0.1318068353	-0.420479
C	 0.0614092092	-0.0071597927	 0.0266515698	-0.0864
C	-1.4036110404	-0.4575048123	 0.0472349695	 0.04709
C	-2.141301346	-0.0540896026	 1.3339461799	-0.211575
C	-3.6080124976	-0.4854901119	 1.2482896629	-0.201452
C	-4.3238925349	 0.2237762437	 0.0869966378	-0.228309
C	-3.4981840824	 0.2470164302	-1.2027960768	-0.006526
C	-2.4888128035	 1.3256953685	-1.4038382102	-0.269382
N	-2.0612714377	-0.0605295668	-1.2066048933	-0.102994
H	 0.0076017436	 1.7817970303	-0.7196930233	 0.29231
H	 0.5412690451	-0.3981770133	-0.8813588136	 0.096708
H	 0.5756501575	-0.4405134679	 0.8917503769	 0.103665
H	-1.3811256959	-1.5579990479	 0.0184685201	 0.075708
H	-1.6471582594	-0.5367315896	 2.1850843172	 0.093727
H	-2.0592541686	 1.0261803308	 1.4994307687	 0.109522
H	-3.648658009	-1.572777418	 1.0980501977	 0.096283
H	-4.1338563156	-0.2791659853	 2.1862640532	 0.092755
H	-5.2828421405	-0.2644306504	-0.1122318418	 0.100709
H	-4.5604268004	 1.251986541	 0.3863303533	 0.104635
H	-4.0089578152	-0.1357153226	-2.0840244972	 0.088329
H	-2.2956776195	 1.7351473958	-2.3934178089	 0.107376
H	-2.3772396854	 2.0381104921	-0.5893919672	 0.1183
85.3646	112.9483	199.5174	264.4062	284.0965	302.693	361.8115	385.8616	445.612	488.6716	600.5297	665.8986	727.269	785.1475	822.1146	874.0715	888.4833	908.4033	955.6175	962.8817	989.26	1005.9932	1072.8625	1089.0714	1102.1989	1116.6738	1126.0904	1140.4054	1165.4173	1191.1188	1211.0464	1247.2728	1280.3886	1317.8687	1334.1897	1356.6066	1366.943	1375.1136	1381.3384	1398.7495	1410.0405	1416.4236	1486.9195	1489.0935	1490.2205	1501.3488	1519.1023	2982.5251	3009.1677	3016.2958	3029.1759	3034.9712	3067.8096	3070.5887	3074.665	3080.4515	3089.8921	3119.2142	3173.213	3840.1178
OCC1CCCC2CN12	OC[C@H]1CCC[C@H]2CN12	
InChI=1S/C7H13NO/c9-5-7-3-1-2-6-4-8(6)7/h6-7,9H,1-5H2	InChI=1S/C7H13NO/c9-5-7-3-1-2-6-4-8(6)7/h6-7,9H,1-5H2/t6-,7+,8?/m0/s1
