20
gdb 16159	4.15724	1.57698	1.35372	0.2037	79.89	-0.2228	0.025	0.2479	1000.0106	0.178109	-311.875064	-311.867367	-311.866423	-311.906847	30.282	
C	 0.1059201841	 1.4990727211	 0.3232740633	-0.374929
C	 0.0037845428	 0.0482670041	-0.1658143614	-0.279804
C	-1.4075372736	-0.5011907374	-0.1344312866	 0.358497
C	-1.9982271887	-1.0228344248	 1.1651357957	-0.316561
C	-1.7448637887	-1.9789461934	 0.0257667299	-0.103013
C	-2.9036841138	-2.3091126242	-0.9137914944	-0.276255
C	-3.2683168304	-0.9616601229	-1.5031286731	-0.08028
C	-2.44065747	 0.002864252	-1.0956982786	-0.13872
H	 1.1418480226	 1.8515304113	 0.2985900749	 0.109048
H	-0.4876408255	 2.1756404603	-0.3006017627	 0.115928
H	-0.2592988897	 1.5919868376	 1.3512657424	 0.117772
H	 0.401167914	-0.0238332542	-1.1868273335	 0.096102
H	 0.644598408	-0.5879291502	 0.4572770718	 0.092789
H	-1.3321853533	-1.0989031706	 2.0200058742	 0.102793
H	-3.020625903	-0.754178395	 1.4120944379	 0.106363
H	-0.9518445348	-2.7077485156	 0.1520822473	 0.080084
H	-2.6008924086	-3.0187638182	-1.6960556555	 0.104378
H	-3.7493461709	-2.7742126459	-0.3899478003	 0.106877
H	-4.1207961582	-0.8221024848	-2.1586275174	 0.089569
H	-2.5023949824	 1.0448868009	-1.3905051638	 0.089363
83.9948	162.8559	207.0452	281.6126	289.721	362.5372	428.8808	480.7541	629.4633	718.4793	747.1083	766.1347	789.0099	828.0696	892.8595	920.9907	934.0971	950.9102	964.1702	988.9088	1007.5444	1039.6692	1064.1532	1084.6439	1091.4141	1121.2955	1136.0198	1192.8796	1248.1383	1257.4165	1308.307	1315.0993	1358.2203	1374.6787	1406.0634	1411.0077	1471.811	1480.6162	1489.2163	1498.8643	1506.9175	1669.9511	3009.6961	3015.7617	3033.9207	3036.346	3049.8737	3101.8191	3104.9812	3114.5694	3165.8882	3179.1164	3202.2588	3204.8824
CCC12CC1CC=C2	CC[C@]12C[C@H]1CC=C2	
InChI=1S/C8H12/c1-2-8-5-3-4-7(8)6-8/h3,5,7H,2,4,6H2,1H3	InChI=1S/C8H12/c1-2-8-5-3-4-7(8)6-8/h3,5,7H,2,4,6H2,1H3/t7-,8+/m1/s1
