14
gdb 50514	4.40987	0.96506	0.89314	2.7564	66.38	-0.2647	-0.0854	0.1793	1254.5334	0.099755	-473.84378	-473.835673	-473.834729	-473.877702	27.709	
O	-0.7737123391	 1.1054220728	 1.0631673406	-0.226297
C	 0.0125478662	 0.9020580776	 0.1774481221	 0.155793
C	 1.2636452158	 1.7500642883	-0.0626911897	-0.096288
C	 1.6299714349	 2.682254419	 1.1145520474	-0.130356
O	 2.9292685612	 2.1966307765	 1.54126584	-0.235031
C	 3.2376145023	 1.192235401	 0.7050888377	 0.323211
C	 4.5446527354	 0.4918798954	 0.895839686	 0.105611
O	 5.3404100183	 0.7796988209	 1.7490887472	-0.228731
N	 2.4254762769	 0.8608224072	-0.2236699667	-0.308363
H	-0.1097208849	 0.070208232	-0.5458929732	 0.110666
H	 1.0923789474	 2.2906722879	-1.0041150597	 0.123899
H	 1.7359848442	 3.7310031829	 0.8312228455	 0.132561
H	 0.9247147116	 2.5896956471	 1.9432298768	 0.155107
H	 4.6967367198	-0.3210785287	 0.1607475558	 0.118218
50.7233	101.0787	121.3916	175.8048	231.9935	273.9369	372.8337	497.3767	610.1744	652.0845	706.6408	757.4633	845.495	927.4163	949.3581	1008.1616	1026.2407	1042.2961	1075.911	1093.4034	1211.6525	1243.9769	1288.6188	1346.0567	1389.9862	1396.7153	1406.6985	1520.982	1683.089	1823.6365	1836.2387	2932.4125	2964.2423	3013.5663	3077.5625	3132.3597
O=CC1COC(C=O)=N1	O=C[C@H]1COC(=N1)C=O	
InChI=1S/C5H5NO3/c7-1-4-3-9-5(2-8)6-4/h1-2,4H,3H2	InChI=1S/C5H5NO3/c7-1-4-3-9-5(2-8)6-4/h1-2,4H,3H2/t4-/m0/s1
