14
gdb 116992	4.80843	0.61213	0.54672	4.7134	80.15	-0.2994	-0.0939	0.2055	1904.7361	0.099073	-436.698167	-436.688813	-436.687869	-436.733795	31.257	
C	-0.2072169787	 1.510780902	 0.0124962525	-0.396184
C	-0.0433240433	 0.0048904022	 0.0025300096	-0.052094
O	-1.371923032	-0.5777394696	 0.012423199	-0.22432
C	-1.4167332	-1.9117226526	 0.0052822038	 0.24254
O	-0.4693973681	-2.6557745088	-0.0082604808	-0.338019
C	-2.7921895012	-2.3809935772	 0.0160798968	-0.074423
C	-3.9029681057	-2.8548520073	 0.0237951477	 0.280478
C	-5.1652201181	-3.374595208	 0.0330531455	 0.200281
N	-6.2399704366	-3.8144454956	 0.0409443864	-0.318512
H	 0.7785240016	 1.9847641328	 0.0054632016	 0.132357
H	-0.7598762866	 1.8501453145	-0.8675434354	 0.138503
H	-0.7424876106	 1.8403100782	 0.9069040214	 0.138505
H	 0.4829719554	-0.3511440705	-0.888089123	 0.135445
H	 0.5004410437	-0.3609622802	 0.878553095	 0.135444
61.9906	62.0402	79.7856	163.8718	182.808	255.316	266.0182	337.4728	368.091	417.2783	541.47	587.2164	595.7316	769.8257	810.6167	838.4538	877.8558	1028.913	1101.6976	1136.7963	1179.664	1283.8535	1293.8773	1399.4092	1425.3818	1485.9761	1495.3449	1515.9999	1793.7015	2264.5905	2396.74	3051.1228	3058.8411	3099.9909	3126.2451	3133.8914
CCOC(=O)C#CC#N	CCOC(=O)C#CC#N	
InChI=1S/C6H5NO2/c1-2-9-6(8)4-3-5-7/h2H2,1H3	InChI=1S/C6H5NO2/c1-2-9-6(8)4-3-5-7/h2H2,1H3
