19
gdb 108642	2.68489	1.37409	0.98593	1.5905	78.29	-0.2234	0.0104	0.2338	1211.8969	0.158195	-423.01274	-423.003785	-423.00284	-423.046743	33.217	
C	 0.2394190119	 1.5471672605	-0.1491848937	-0.496351
C	 0.0481958526	 0.0678899058	-0.0194853051	 0.199635
C	-1.0859963828	-0.6546878656	-0.0339196595	 0.215799
C	-2.5211844794	-0.2364096063	-0.1423316994	-0.198425
O	-2.7163365835	 1.1023859898	 0.2865937028	-0.40695
C	-0.7607210724	-2.1164333654	-0.0013440143	-0.05501
O	 0.0119480362	-2.5658435298	-1.1422098122	-0.261075
C	 0.7013447303	-2.2404770189	 0.0670339888	 0.034606
C	 1.2717438708	-0.8329012349	 0.103759934	-0.322662
H	 0.8199352039	 1.7771482681	-1.052612013	 0.120313
H	-0.7105881024	 2.0754001258	-0.1952022788	 0.152569
H	 0.8206456746	 1.9378050627	 0.6965617208	 0.117858
H	-2.8578263356	-0.3693934058	-1.1857720442	 0.108711
H	-3.1303208137	-0.9295944074	 0.4640357499	 0.092942
H	-3.6231405451	 1.3480499172	 0.0817880473	 0.289542
H	-1.4557130315	-2.8517251273	 0.3964795065	 0.087868
H	 1.2114599263	-3.0683112906	 0.5522173291	 0.092748
H	 1.9872811865	-0.6611807779	-0.710129509	 0.120054
H	 1.8107157833	-0.64694916	 1.0428908099	 0.107826
45.6675	153.3477	156.0391	196.1447	234.9468	257.0626	336.487	346.4061	395.2445	434.8708	566.765	644.2949	686.7304	765.4202	833.4209	861.3508	898.9808	929.1383	980.7132	1005.9511	1019.86	1056.3707	1075.3849	1103.5563	1126.3764	1174.7811	1188.6445	1229.4529	1237.6865	1260.5013	1278.2261	1315.9385	1346.3649	1405.3433	1419.7284	1459.0943	1467.8244	1484.2667	1494.9549	1508.7855	1719.7161	2941.4495	2955.2357	3013.4171	3019.1557	3053.1265	3056.4446	3141.1541	3153.5268	3173.1017	3831.0937
CC1=C(CO)C2OC2C1	CC1=C(CO)[C@H]2O[C@H]2C1	
InChI=1S/C7H10O2/c1-4-2-6-7(9-6)5(4)3-8/h6-8H,2-3H2,1H3	InChI=1S/C7H10O2/c1-4-2-6-7(9-6)5(4)3-8/h6-8H,2-3H2,1H3/t6-,7+/m0/s1
