19
gdb 64931	4.17723	0.70919	0.66321	2.2893	88.4	-0.2285	0.0309	0.2595	1743.5563	0.159143	-381.986154	-381.976766	-381.975822	-382.022121	34.003	
C	 0.3020295326	 1.241287057	 0.6274797585	-0.459085
C	-0.020669188	-0.0442793191	-0.1158120328	 0.095202
C	 0.5103151202	-0.222299715	-1.5030751898	-0.259309
N	 1.0832985843	-0.9995185028	-0.3977800999	-0.328835
C	-1.277987539	-0.657635495	 0.2406172857	 0.07248
C	-2.34120848	-1.1385848993	 0.5463339987	 0.119877
C	-3.5982083353	-1.7164461231	 0.9288445297	-0.165605
C	-3.7647968038	-3.2015287299	 0.9254658329	-0.225762
N	-3.7135259486	-2.4781229769	 2.1992855629	-0.308392
H	 1.2472965918	 1.6657896054	 0.2731557726	 0.11127
H	-0.4852283752	 1.9861416923	 0.4770198136	 0.135883
H	 0.385617569	 1.0557363182	 1.7029951402	 0.133284
H	-0.0585982138	-0.8033859677	-2.2219465558	 0.127366
H	 1.0820567829	 0.6004004297	-1.9259732071	 0.11372
H	 1.9602352816	-0.5779229162	-0.0984057325	 0.230786
H	-4.474643556	-1.107654815	 0.7210644056	 0.114976
H	-4.734231546	-3.6231911079	 0.6752373432	 0.123707
H	-2.9088635576	-3.7961103763	 0.6209768575	 0.127958
H	-2.7847457392	-2.5711449784	 2.6043802668	 0.240482
18.45	81.1969	90.4027	201.6083	203.5721	236.1465	328.1267	354.2065	452.6487	482.9579	551.1655	573.3649	615.4383	783.2645	812.0095	823.2196	876.4071	930.4767	956.1662	972.0799	984.3381	1005.1045	1052.5964	1064.3214	1114.1125	1122.6375	1141.4672	1153.7048	1203.6229	1254.2311	1265.2535	1299.796	1315.6542	1362.6911	1406.6863	1415.4642	1480.4189	1500.3489	1504.3978	1507.3223	2356.0394	3032.5652	3104.6535	3108.1613	3109.0827	3114.5403	3136.1483	3200.6066	3205.9226	3488.5635	3502.4958
CC1(CN1)C#CC1CN1	C[C@]1(CN1)C#C[C@H]1CN1	
InChI=1S/C7H10N2/c1-7(5-9-7)3-2-6-4-8-6/h6,8-9H,4-5H2,1H3	InChI=1S/C7H10N2/c1-7(5-9-7)3-2-6-4-8-6/h6,8-9H,4-5H2,1H3/t6-,7+/m0/s1
