19
gdb 59192	3.85657	1.11478	0.9963	2.1331	77.79	-0.211	-0.0007	0.2104	1232.1277	0.15893	-419.122754	-419.11411	-419.113166	-419.156155	32.535	
C	-0.2104510715	 1.261976898	 1.0070070341	-0.329468
N	-0.1397327688	 0.3395671014	-0.1141680452	-0.087681
C	 1.0995600632	-0.424096059	-0.1319664284	-0.303275
C	-1.3906501837	-0.3004033602	-0.3742808814	 0.135508
C	-1.5167201014	-1.4454814825	-1.4189181584	-0.219066
N	-0.9651541483	-2.4017981605	-0.3606588093	-0.315562
C	-1.9594798578	-1.5566392408	 0.4318811692	-0.204694
C	-2.8906359651	-1.7660579374	-0.7758664691	 0.443853
O	-3.9704741149	-2.1831365123	-1.0614269958	-0.326971
H	 0.678732287	 1.9005798422	 1.0107840339	 0.121066
H	-1.0900183113	 1.9065692109	 0.9080652488	 0.118621
H	-0.2671094967	 0.7583745698	 1.989513816	 0.098988
H	 1.2192534672	-1.1017355137	 0.7274198211	 0.106044
H	 1.163480195	-1.0249648552	-1.0392793734	 0.127612
H	 1.934250686	 0.2866440795	-0.1279928883	 0.106182
H	-2.1476556952	 0.4814195713	-0.4906494825	 0.09405
H	-1.1826651985	-1.4720494335	-2.4545729719	 0.102477
H	-1.3198910085	-3.3517379461	-0.5026595125	 0.232394
H	-2.1203485466	-1.7022327119	 1.4979641229	 0.099921
64.0146	139.5047	152.8733	238.2484	264.1563	287.5111	354.2344	389.9101	392.5683	505.1291	561.6448	670.6705	708.4411	784.7991	809.8199	864.6164	903.615	945.5996	997.9298	1036.6649	1073.7531	1083.4719	1108.5877	1123.5395	1127.8486	1172.5914	1177.244	1184.0727	1197.159	1250.6021	1262.964	1276.9533	1353.4541	1440.9426	1453.3013	1476.0436	1481.1862	1492.8964	1502.9877	1519.8874	1903.4726	2938.2635	2982.857	3054.0375	3054.7186	3059.8883	3100.0016	3137.7465	3141.9325	3148.9822	3408.812
CN(C)C1C2NC1C2=O	CN(C)[C@H]1[C@H]2N[C@@H]1C2=O	
InChI=1S/C6H10N2O/c1-8(2)5-3-6(9)4(5)7-3/h3-5,7H,1-2H3	InChI=1S/C6H10N2O/c1-8(2)5-3-6(9)4(5)7-3/h3-5,7H,1-2H3/t3-,4+,5+
