12
gdb 21447	6.21336	1.48077	1.19579	6.3944	62.34	-0.2364	-0.034	0.2024	915.238	0.084302	-410.810537	-410.803618	-410.802673	-410.842366	24.425	
N	 0.1982387573	 1.3566262641	 0.0056159617	-0.408144
C	 0.051943437	 0.0999671248	 0.0023240716	 0.076951
N	-1.1869503099	-0.5325316828	 0.0123311472	-0.390994
C	-2.4420275622	 0.0174769277	 0.027111221	 0.525415
C	-3.6612479064	-0.6232016468	 0.037238722	-0.230186
N	-4.6054596318	 0.3589834018	 0.0502849116	-0.090088
N	-4.1028199973	 1.5023042393	 0.0493189944	-0.026063
O	-2.6262730399	 1.3196501417	 0.0337582963	-0.198265
H	 1.186949528	 1.5972442845	-0.0035240874	 0.237244
H	 0.8535893773	-0.6477069744	-0.0087411454	 0.104467
H	-1.1692984432	-1.5392718698	 0.0081470908	 0.271056
H	-3.9056295388	-1.67113722	 0.0359673462	 0.128607
49.4666	164.5946	172.946	332.9872	339.2456	491.3277	513.0844	602.3211	674.4339	731.5421	745.422	809.4913	831.7401	970.9084	1022.977	1051.6776	1099.9104	1143.1255	1223.1656	1319.9561	1400.7212	1420.5981	1483.2112	1525.8392	1631.0468	1743.8483	3051.9921	3286.6512	3518.8444	3651.3227
N=CNC1=CN=NO1	N=CNc1cnno1	
InChI=1S/C3H4N4O/c4-2-5-3-1-6-7-8-3/h1-2H,(H2,4,5)	InChI=1S/C3H4N4O/c4-2-5-3-1-6-7-8-3/h1-2H,(H2,4,5)
