16
gdb 73894	2.30286	1.65691	1.0342	6.2545	75.24	-0.2178	-0.0374	0.1804	1112.9651	0.124083	-437.894596	-437.886414	-437.885469	-437.9273	30.609	
N	 0.0852862683	 1.3383102009	-0.0304212448	-0.579801
C	-0.0071309146	-0.0115224806	 0.007785663	 0.281963
C	-1.1284473273	-0.8014453084	 0.0189915872	 0.150175
C	-2.5015793709	-0.3662589578	 0.0331774014	 0.043737
O	-3.4713777525	-1.1024585429	 0.0491686326	-0.301834
C	-0.7136471088	-2.231915372	-0.0089141814	-0.058894
O	 0.058836204	-2.5963005504	-1.1866111951	-0.26275
C	 0.7540837853	-2.2759091375	 0.014436626	 0.029962
C	 1.2653118237	-0.8409292044	 0.0652995225	-0.34234
H	 0.9797948853	 1.7730344381	-0.1738775593	 0.268434
H	-0.7239069283	 1.9041612279	-0.2218787315	 0.272553
H	-2.6478269039	 0.7424379363	 0.0459207504	 0.023866
H	-1.3621057108	-3.0099009636	 0.3758027728	 0.115369
H	 1.3366331671	-3.0762575908	 0.4620797945	 0.099116
H	 1.9366046862	-0.6122830447	-0.7708779217	 0.132749
H	 1.813449967	-0.63862327	 0.9944844735	 0.127696
116.2883	160.0069	174.9682	207.9859	239.9121	328.7379	375.3497	438.3454	500.7568	534.6263	611.1076	638.527	709.4036	792.6336	840.6428	874.7722	902.6718	936.1789	1009.3129	1022.3485	1036.5374	1106.6221	1181.7432	1192.2959	1241.8193	1269.6332	1290.0924	1313.3715	1409.9369	1428.5115	1452.3144	1473.6165	1622.7643	1674.345	1758.4731	2804.4708	3029.7553	3071.1361	3151.8373	3197.9292	3614.3506	3729.9995
NC1=C(C=O)C2OC2C1	NC1=C(C=O)[C@H]2O[C@H]2C1	
InChI=1S/C6H7NO2/c7-4-1-5-6(9-5)3(4)2-8/h2,5-6H,1,7H2	InChI=1S/C6H7NO2/c7-4-1-5-6(9-5)3(4)2-8/h2,5-6H,1,7H2/t5-,6+/m0/s1
