18
gdb 47310	2.99911	1.27839	0.97044	2.4808	72.63	-0.2447	-0.0246	0.2201	1186.5257	0.149365	-439.149152	-439.14083	-439.139886	-439.182798	31.059	
O	 0.0238576411	-0.0979083605	 0.0644949779	-0.295922
C	-0.0089058014	 1.1113316171	 0.0440992793	 0.3769
C	-1.3384869142	 1.8570676064	 0.0443788025	-0.280151
C	-1.5261690156	 2.7955389383	-1.166408549	-0.189478
N	-0.7385444455	 4.0140546176	-1.1128195893	-0.285631
C	 0.6244414147	 4.1359068977	-1.1647174148	 0.37315
O	 1.1642210366	 5.226081281	-1.1316824972	-0.361854
C	 1.4187447801	 2.8366571118	-1.2392770649	-0.318124
C	 1.2739193501	 1.9311419339	 0.0096961118	-0.293343
H	-2.1278719045	 1.1010430171	 0.0515670179	 0.125686
H	-1.4192769353	 2.4540929142	 0.9613678779	 0.1226
H	-1.3291484899	 2.2423161347	-2.0941935426	 0.128149
H	-2.5749393469	 3.0988013026	-1.2084692006	 0.126569
H	-1.2227118238	 4.8965046134	-1.0437603485	 0.250499
H	 1.1494203807	 2.2723145008	-2.1407797574	 0.122836
H	 2.4613668635	 3.1392605635	-1.3424674597	 0.140283
H	 1.3291113956	 2.5551515139	 0.9110981821	 0.127505
H	 2.1005250247	 1.2182233264	 0.0438355444	 0.130325
50.8683	85.2302	158.6625	253.0034	300.6613	340.477	433.7066	459.2171	496.3042	525.578	583.7672	657.4385	716.0412	740.6259	786.9471	863.1216	916.6246	950.0547	982.484	1006.417	1065.2828	1117.0488	1146.6538	1187.502	1229.3719	1255.9097	1276.6204	1315.7982	1351.4516	1353.1618	1370.9355	1411.069	1453.2846	1465.8016	1475.1474	1480.3898	1504.6452	1789.7438	1808.0616	3018.6009	3030.6946	3037.5494	3041.8211	3098.4809	3109.3824	3112.3653	3128.2327	3621.2058
O=C1CCNC(=O)CC1	O=C1CCNC(=O)CC1	
InChI=1S/C6H9NO2/c8-5-1-2-6(9)7-4-3-5/h1-4H2,(H,7,9)	InChI=1S/C6H9NO2/c8-5-1-2-6(9)7-4-3-5/h1-4H2,(H,7,9)
