13
gdb 23942	9.36875	0.66663	0.62235	0.8938	94.21	-0.2218	-0.0369	0.185	1657.1637	0.088942	-382.266257	-382.258524	-382.257579	-382.298984	28.654	
C	 0.0563535301	-3.7635850603	-0.0184602448	-0.609273
C	 0.0393418644	-2.5551326179	-0.0116172423	 0.261032
C	 0.0210158173	-1.1977850831	-0.0039399116	-0.077208
C	-0.0065346331	 0.0154385714	 0.0030650473	 0.334701
C	-0.0045379542	 1.4224818034	 0.0106583735	 0.032868
C	-1.0967624396	 2.2508285857	 0.0294387659	-0.11724
O	-0.7141307451	 3.54491893	 0.0314791294	-0.133391
C	 0.6490838442	 3.5630136077	 0.0136874616	 0.009755
C	 1.1426239858	 2.3030333064	 0.0002938671	-0.316296
H	 0.0703335624	-4.825073256	-0.0244549523	 0.190156
H	-2.156624718	 2.0604837507	 0.042305843	 0.151869
H	 1.1019303906	 4.5402228236	 0.0130641946	 0.146104
H	 2.1781143651	 2.0048098484	-0.0149637213	 0.126924
75.2914	85.2311	227.1225	228.9266	428.7273	440.9965	478.6533	503.046	531.27	585.9942	603.145	614.7011	659.5623	739.3072	795.9521	844.3883	888.7886	912.1756	1025.4608	1069.0272	1116.9213	1204.915	1254.6268	1334.5427	1369.3512	1543.4317	1603.61	2179.7895	2342.3342	3268.4185	3286.221	3294.2131	3504.9302
C#CC#CC1=COC=C1	C#CC#Cc1cocc1	
InChI=1S/C8H4O/c1-2-3-4-8-5-6-9-7-8/h1,5-7H	InChI=1S/C8H4O/c1-2-3-4-8-5-6-9-7-8/h1,5-7H
