14
gdb 60681	2.06868	1.5962	1.1302	2.091	62.81	-0.2937	-0.0731	0.2207	1073.7817	0.097947	-473.801385	-473.792671	-473.791727	-473.835298	30.706	
O	-0.2139219114	 1.4738503243	-0.090128046	-0.437277
C	-0.1352857992	 0.085464944	-0.1175605545	 0.107511
C	 0.7598710312	-0.4008005311	 1.0497670225	 0.14719
O	 1.2806897085	 0.3970873212	 1.7793643227	-0.241738
C	-1.4671955405	-0.5369369148	 0.0544464245	 0.248368
N	-2.4881105057	-1.0608130019	 0.1892244254	-0.312626
C	 0.4843597582	-0.4365914997	-1.4273483839	 0.040762
C	 0.6253477253	 0.4492334295	-2.584877445	-0.163969
O	 1.7443904832	 0.124628849	-1.7469735238	-0.236226
H	 0.3423786787	 1.7538261474	 0.6577987193	 0.310397
H	 0.8924713261	-1.4928062078	 1.1494763788	 0.135243
H	 0.3923926203	-1.5135631815	-1.5709495952	 0.120708
H	 0.6506038618	 0.0144201244	-3.5817085073	 0.130892
H	 0.2756243435	 1.473499847	-2.5033550975	 0.150763
71.3439	93.7803	139.9047	181.2964	240.228	281.1037	337.5704	409.7929	444.6371	493.574	512.713	570.5265	653.6948	826.567	855.9873	888.4442	955.7652	997.1096	1011.246	1091.1708	1108.9845	1167.3471	1168.6268	1215.4728	1290.6387	1373.3923	1411.5127	1427.3775	1512.366	1832.7694	2353.7943	2985.849	3106.9921	3115.2075	3215.5652	3651.5338
OC(C=O)(C#N)C1CO1	O[C@@](C=O)(C#N)[C@H]1CO1	
InChI=1S/C5H5NO3/c6-2-5(8,3-7)4-1-9-4/h3-4,8H,1H2	InChI=1S/C5H5NO3/c6-2-5(8,3-7)4-1-9-4/h3-4,8H,1H2/t4-,5-/m1/s1
