17
gdb 46662	2.95204	1.7874	1.3667	3.8463	74.37	-0.2463	0.0138	0.2601	949.0651	0.139116	-417.915073	-417.908484	-417.90754	-417.945921	27.081	
N	-0.105792459	 1.2495696358	 0.1239818267	-0.543435
C	-0.0541755857	-0.003415765	 0.0075097847	 0.286682
O	 1.1100715005	-0.7529823672	-0.0432896204	-0.269934
C	 0.8709817103	-2.1784378587	-0.3159281133	-0.136282
C	-0.5501706973	-2.1868177149	-0.8716236683	-0.045907
C	-1.9438041894	-2.6253649393	-0.2886018583	-0.070616
C	-1.5761613754	-1.9735439272	 1.0543773092	-0.235032
C	-1.1445412547	-1.0091475777	-0.0958939886	 0.294657
N	-2.523774691	-1.2522111379	-0.6892360517	-0.381272
H	 0.8352406563	 1.6470857232	 0.1600681396	 0.226237
H	 1.6320468788	-2.4861539002	-1.0355098351	 0.12317
H	 1.0145831298	-2.7385854365	 0.6113180611	 0.123925
H	-0.5585844226	-2.0520929122	-1.9582185079	 0.085049
H	-2.5082582773	-3.5385168829	-0.4797642271	 0.093157
H	-2.4166581824	-1.6157954444	 1.6466124815	 0.126097
H	-0.7985553583	-2.4386968102	 1.6574616381	 0.109754
H	-2.4633225227	-1.1476609747	-1.7082807801	 0.21375
143.4638	202.2267	304.6968	352.6881	479.6831	549.2365	587.4775	615.8168	666.2213	699.1161	744.412	827.4511	875.7575	884.8635	902.7953	930.6895	961.6515	972.1815	1010.7748	1018.8835	1056.4685	1098.0932	1110.0991	1146.1754	1159.9926	1193.583	1202.3435	1208.5898	1221.7209	1275.3806	1277.8091	1326.8964	1365.5415	1400.9978	1493.9344	1525.2826	1791.4648	3054.6819	3066.5893	3101.8759	3114.6221	3119.2525	3179.8011	3378.758	3464.6287
N=C1OCC2C3CC12N3	[NH][C]1OC[C@H]2[C@H]3C[C@@]12N3	
InChI=1S/C6H8N2O/c7-5-6-1-4(8-6)3(6)2-9-5/h3-4,7-8H,1-2H2	InChI=1S/C6H8N2O/c7-5-6-1-4(8-6)3(6)2-9-5/h3-4,7-8H,1-2H2/t3-,4+,6-/m0/s1
