15
gdb 85479	2.54913	1.5017	1.11431	4.1048	67.25	-0.2758	-0.0117	0.2641	1082.3427	0.112777	-453.975491	-453.967392	-453.966448	-454.008625	29.322	
C	-0.4416767346	 1.5365424184	 0.0563224694	-0.423737
C	 0.1853270466	 0.1638858764	-0.0600987232	 0.097013
O	 1.2753040492	 0.1912897126	-0.9883356274	-0.230854
C	 2.2130831775	-0.7077605649	-0.6171954482	 0.500638
N	 3.1707055108	-1.0466332232	-1.3486516399	-0.563928
O	 1.9440998984	-1.1764349729	 0.6524354782	-0.244509
C	 0.8654619966	-0.4250728849	 1.2031439227	-0.07024
C	 1.3701739217	 0.5867610736	 2.14617617	 0.292064
N	 1.7450508494	 1.3813025967	 2.8958207624	-0.311198
H	 0.2902322291	 2.2732454109	 0.3946073441	 0.161517
H	-0.8309170255	 1.8450206164	-0.9165668665	 0.149009
H	-1.2727431315	 1.5129253639	 0.7674788375	 0.136834
H	-0.5502980732	-0.5694484254	-0.4148801888	 0.113674
H	 3.7871166846	-1.6908343531	-0.8595684337	 0.242023
H	 0.2048181011	-1.1083070946	 1.7423841433	 0.151694
77.205	115.5174	152.3038	220.3899	258.5565	295.0375	414.923	483.4836	501.8512	589.5733	698.9681	714.0394	746.3129	812.1989	854.8165	886.4016	949.4522	970.4508	1034.9691	1065.1223	1094.7216	1143.5368	1166.9524	1249.4366	1296.735	1359.1863	1381.4631	1392.9177	1423.2353	1482.5558	1497.2302	1818.2062	2363.0513	3027.2299	3054.9483	3092.0639	3129.6106	3144.5751	3544.3465
CC1OC(=N)OC1C#N	C[C@H]1O[C]([NH])O[C@H]1C#N	
InChI=1S/C5H6N2O2/c1-3-4(2-6)9-5(7)8-3/h3-4,7H,1H3	InChI=1S/C5H6N2O2/c1-3-4(2-6)9-5(7)8-3/h3-4,7H,1H3/t3-,4+/m1/s1
