15
gdb 14888	4.82576	1.4617	1.16724	4.176	69.94	-0.2685	-0.0434	0.2251	978.5654	0.120731	-362.685782	-362.678799	-362.677854	-362.717093	25.866	
N	 0.1124593822	-1.1553520866	 0.0576446671	-0.329929
C	 0.007685448	-0.0018225351	 0.02933934	 0.217494
C	-0.0632957504	 1.4221866101	-0.0017648995	 0.135823
C	-1.2347908207	 2.0725580247	 0.0006557216	-0.12861
C	-1.2969819293	 3.5718663949	 0.0253299425	-0.256899
C	 0.0667325802	 4.1524092593	 0.4083779719	-0.0883
O	 1.100883735	 3.5345221948	-0.3407864536	-0.239952
C	 1.2592421003	 2.1716692173	-0.0278409084	-0.15945
H	-2.1649708719	 1.5129587242	-0.0076886425	 0.119794
H	-1.6075329498	 3.9449234463	-0.9601505264	 0.134166
H	-2.064650528	 3.9042292192	 0.735047433	 0.120096
H	 0.1233898631	 5.2208061535	 0.1871222622	 0.118493
H	 0.24242948	 4.0163559396	 1.4876150403	 0.100059
H	 1.7702283127	 2.0415168121	 0.9422794737	 0.117025
H	 1.9124608085	 1.7475675758	-0.7970695219	 0.140191
111.0037	159.0904	208.3639	303.0997	382.5284	422.6579	503.9271	556.2915	563.5268	621.3376	802.931	888.1871	893.6556	938.2823	980.3889	1031.5783	1055.7117	1085.5148	1141.9894	1166.042	1227.8605	1261.4988	1316.0742	1342.517	1364.977	1387.5866	1419.4314	1460.62	1486.268	1502.3615	1699.5066	2335.0065	2955.9624	2980.7074	3019.9321	3057.3395	3077.0772	3101.9438	3182.099
N#CC1=CCCOC1	N#CC1=CCCOC1	
InChI=1S/C6H7NO/c7-4-6-2-1-3-8-5-6/h2H,1,3,5H2	InChI=1S/C6H7NO/c7-4-6-2-1-3-8-5-6/h2H,1,3,5H2
