20
gdb 110234	2.04704	1.54321	1.04126	3.9231	79.96	-0.2399	0.012	0.2519	1232.1342	0.17011	-403.156231	-403.147045	-403.1461	-403.190291	34.544	
C	 0.3676926363	 1.3306585302	 0.3191338601	-0.372133
C	-0.1883469486	-0.036192312	-0.096970313	-0.222037
C	 0.5310680175	-0.616735912	-1.2977744307	-0.036624
C	 1.9471617013	-1.2214934287	-1.2515623723	-0.301745
C	 2.0512110912	-2.0641454441	 0.0070783503	 0.427125
O	 2.7447062244	-2.0888300503	 0.9845964404	-0.350416
N	 0.957951323	-2.8635849567	-0.38150825	-0.38835
C	 0.7286767769	-2.0737143736	-1.6053561191	 0.330978
C	 0.3678476809	-2.7670064311	-2.8837620906	-0.48182
H	 1.4212780821	 1.2498017953	 0.6034420957	 0.135854
H	 0.2950994747	 2.0556341756	-0.498970845	 0.112812
H	-0.1832469806	 1.7350676564	 1.1734142323	 0.115476
H	-0.1236673512	-0.7277747256	 0.7498376065	 0.105143
H	-1.2550596367	 0.0547392386	-0.3396279058	 0.098643
H	 0.404235345	-0.0206403798	-2.2027130182	 0.093161
H	 2.7560152568	-0.8702350984	-1.8772104618	 0.111056
H	 0.2250854798	-3.1424221987	 0.2623348764	 0.236636
H	-0.6634631282	-3.1378130043	-2.8541629408	 0.12538
H	 0.446131288	-2.0797392935	-3.7312611668	 0.125776
H	 1.0283612973	-3.6210415373	-3.0611107876	 0.135086
56.4586	131.2097	163.3495	201.9926	212.6963	257.7237	298.2218	315.1675	465.998	484.249	529.5538	570.7952	678.5256	705.5743	762.7692	783.1752	834.5108	892.0493	918.9644	930.4778	972.224	988.812	1059.6085	1070.9987	1100.3833	1119.1846	1132.8894	1141.7146	1218.231	1275.5574	1287.0961	1310.5671	1333.3035	1359.222	1411.9797	1416.6554	1469.3901	1480.4492	1484.9654	1498.9639	1500.2429	1507.1374	1893.4623	3024.3489	3031.3262	3035.4305	3066.0638	3093.122	3101.9573	3107.4315	3114.1602	3116.8692	3216.6312	3535.7909
CCC1C2C(=O)NC12C	CC[C@H]1[C@H]2C(=O)N[C@@]12C	
InChI=1S/C7H11NO/c1-3-4-5-6(9)8-7(4,5)2/h4-5H,3H2,1-2H3,(H,8,9)	InChI=1S/C7H11NO/c1-3-4-5-6(9)8-7(4,5)2/h4-5H,3H2,1-2H3,(H,8,9)/t4-,5-,7-/m0/s1
