16
gdb 110085	2.08383	1.42933	1.11183	5.1731	72.04	-0.2562	-0.0033	0.2529	1139.6799	0.123564	-434.034031	-434.024913	-434.023968	-434.06832	32.086	
O	-0.1105502287	 1.1779710698	 0.8636110188	-0.409462
C	-0.0298376268	-0.0284179245	 0.1184018943	-0.103807
C	-1.4057753109	-0.556605916	-0.2293260562	-0.049655
C	-1.7074081117	-2.0446817153	-0.2219135008	-0.180014
C	-0.6467369266	-2.9816887113	 0.0757788466	 0.329371
N	 0.2089281945	-3.7418900976	 0.2375083017	-0.337367
N	-2.2472398428	-1.1503296523	 0.7838834009	-0.053634
C	-1.9420368503	-1.2048297292	 2.1463901078	 0.047073
N	-1.9045390274	-2.3048290658	 2.7736954788	-0.409362
H	-0.453802856	 1.8694398231	 0.2881098651	 0.290165
H	 0.5569009654	 0.0984199601	-0.8028184609	 0.113113
H	 0.5021123257	-0.7425181066	 0.7524398607	 0.147974
H	-1.9521400875	 0.0373810675	-0.9632946576	 0.108784
H	-2.4356403826	-2.4324490885	-0.9294823154	 0.147525
H	-1.8137790719	-0.2022618844	 2.5662230275	 0.124575
H	-1.7449279324	-2.144204889	 3.7668631085	 0.234719
89.3967	105.2515	122.8092	134.2626	206.245	243.4293	298.7202	318.3694	385.2345	485.2812	564.4861	612.0779	659.9	773.0136	839.2114	864.5487	885.5002	1001.592	1039.17	1057.3699	1064.9783	1079.2412	1109.2668	1147.4491	1223.4997	1237.3987	1346.9348	1359.1949	1390.5582	1404.5749	1412.5856	1448.6012	1495.1956	1713.753	2358.8603	3007.4596	3082.3266	3094.0356	3111.5086	3147.027	3503.9556	3814.0985
OCC1C(C#N)N1C=N	OC[C@H]1[C@@H](C#N)N1[CH][NH]	
InChI=1S/C5H7N3O/c6-1-4-5(2-9)8(4)3-7/h3-5,7,9H,2H2	InChI=1S/C5H7N3O/c6-1-4-5(2-9)8(4)3-7/h3-5,7,9H,2H2/t4-,5+,8?/m1/s1
