15
gdb 26608	2.37394	1.88708	1.05569	4.9799	74.12	-0.1953	-0.0286	0.1667	1056.4725	0.114716	-454.00975	-454.001923	-454.000979	-454.041732	30.345	
N	-0.0186081136	 1.4046064666	-0.1032403917	-0.587716
C	 0.0036892959	 0.0264674375	-0.0327502633	 0.288995
C	-1.1716876857	-0.6802613055	 0.0460327832	 0.017775
N	-2.4173838968	-0.0119100113	 0.1158402749	-0.609402
C	-1.1797962634	-2.1166442216	 0.1262361847	 0.395458
O	-2.1602756011	-2.8170343032	 0.2400245366	-0.381679
O	 0.0726794973	-2.7445301257	 0.093602171	-0.21998
C	 1.209002923	-2.0396113422	-0.0249608364	 0.078008
C	 1.2417632144	-0.6963185191	-0.0912603087	-0.249226
H	 0.8297853169	 1.8746429848	 0.17544376	 0.253602
H	-0.8544835929	 1.8121437772	 0.298826959	 0.263433
H	-2.6302611025	 0.4857490594	-0.7446237112	 0.245561
H	-3.1458489681	-0.7026622852	 0.2715494998	 0.260235
H	 2.0818951902	-2.6794309859	-0.061900502	 0.139214
H	 2.1886730163	-0.1798183858	-0.1850389958	 0.105722
136.4992	194.5152	218.3371	277.1024	295.6784	343.0948	458.0794	489.2798	510.454	529.8788	565.5536	626.9702	697.945	702.8256	762.1181	783.1208	844.3384	895.6239	911.9514	965.3041	1070.0184	1094.7089	1150.8496	1273.3498	1282.3677	1333.5529	1393.4964	1485.3447	1607.332	1635.4863	1647.844	1705.2453	1798.7959	3203.8702	3223.8004	3480.9502	3534.1657	3568.9224	3655.6146
NC1=C(N)C(=O)OC=C1	Nc1c(N)c(=O)occ1	
InChI=1S/C5H6N2O2/c6-3-1-2-9-5(8)4(3)7/h1-2H,6-7H2	InChI=1S/C5H6N2O2/c6-3-1-2-9-5(8)4(3)7/h1-2H,6-7H2
