14
gdb 24470	3.98869	1.72975	1.20653	4.8077	80.35	-0.2105	-0.0467	0.1638	937.8904	0.106406	-395.793008	-395.787129	-395.786185	-395.823091	23.972	
N	 0.0059054158	 1.3163420336	 0.0096144455	-0.277902
C	 1.1561613638	 2.0660392505	 0.0022113694	 0.053309
N	 2.3537353027	 1.5671099445	-0.0124217199	-0.326626
C	 2.4359832786	 0.206584997	-0.0205992789	 0.314445
C	 3.5075531993	-0.6653328915	-0.0360124336	-0.30536
C	 2.9154451361	-1.9599109444	-0.037071726	-0.025741
N	 1.5768877568	-1.9767037144	-0.0238650876	-0.360506
C	 1.2433084786	-0.6557331131	-0.0133817294	 0.260695
C	 0.0228643359	-0.0521059927	 0.0020448021	-0.093596
H	-0.8797414795	 1.7981848375	 0.0210435133	 0.276456
H	 1.0062420799	 3.1408071964	 0.0095130112	 0.131983
H	 4.5592238981	-0.4248433079	-0.0452091231	 0.101277
H	 3.4631343783	-2.8969204315	-0.0476018413	 0.101441
H	-0.9301199744	-0.5655607441	 0.0087591418	 0.150125
211.0833	257.9922	416.385	443.8357	562.4667	572.9024	617.8341	622.289	643.6474	775.8085	784.437	814.9442	885.0891	887.9919	907.5021	916.8339	950.3302	1036.4483	1050.1774	1159.7696	1215.5389	1256.1694	1302.8745	1330.3387	1397.3305	1419.3449	1420.497	1497.0986	1586.5433	1600.1023	1678.2505	3187.9069	3188.3597	3219.7661	3255.7027	3633.4012
N1C=NC2=CC=NC2=C1	[nH]1cnc2ccnc2c1	
InChI=1S/C6H5N3/c1-2-8-6-3-7-4-9-5(1)6/h1-4H,(H,7,9)	InChI=1S/C6H5N3/c1-2-8-6-3-7-4-9-5(1)6/h1-4H,(H,7,9)
