16
gdb 25887	4.33742	1.01281	0.82829	4.8467	74.67	-0.199	0.0028	0.2018	1321.1213	0.126375	-434.135335	-434.126685	-434.125741	-434.168855	32.324	
N	-0.0519660946	 1.347970615	-0.0262289745	-0.543242
C	 0.020215613	-0.0226933182	 0.1477639151	 0.297597
O	 1.0833511085	-0.5862598284	 0.3420856033	-0.366482
C	-1.2678794425	-0.7414661692	 0.1208369634	 0.202555
C	-2.5481559693	-0.2245683601	 0.1749782032	-0.194514
N	-3.4207129766	-1.2781757059	 0.135107811	-0.272752
C	-2.7256820832	-2.4664050959	 0.0493295194	 0.307075
N	-3.4464110651	-3.6769725349	 0.0483916578	-0.60891
C	-1.3871026016	-2.1636587914	 0.0409826605	-0.314374
H	 0.8406354555	 1.7969954403	-0.1665897164	 0.251684
H	-0.8189677511	 1.7261267309	-0.5583859608	 0.246349
H	-2.9043288376	 0.7875271406	 0.2793463892	 0.123926
H	-4.4177422307	-1.2261518495	 0.2588380994	 0.261986
H	-3.8368394041	-3.8949582877	-0.8642339619	 0.245459
H	-2.8452604034	-4.4468607873	 0.3155311359	 0.252206
H	-0.5623563771	-2.8541903584	-0.0311664647	 0.111437
67.8759	124.8862	150.6064	164.801	294.7576	359.7436	404.4814	420.9438	502.0163	523.831	535.7458	628.6657	651.0731	652.7745	708.4639	728.4317	784.5482	822.1917	847.0935	972.1302	998.2802	1085.2371	1127.4396	1134.3092	1164.9109	1264.7623	1287.0822	1387.0085	1432.4937	1457.6223	1548.8541	1616.1133	1623.8011	1657.9693	1775.0404	3260.9775	3267.0142	3490.8933	3578.6592	3596.2893	3670.5142	3701.9677
NC(=O)C1=CNC(N)=C1	NC(=O)c1c[nH]c(N)c1	
InChI=1S/C5H7N3O/c6-4-1-3(2-8-4)5(7)9/h1-2,8H,6H2,(H2,7,9)	InChI=1S/C5H7N3O/c6-4-1-3(2-8-4)5(7)9/h1-2,8H,6H2,(H2,7,9)
