23
gdb 122086	3.05803	0.73612	0.6278	1.3041	89.37	-0.2511	0.0561	0.3073	1886.8534	0.202076	-388.257838	-388.246346	-388.245402	-388.295444	40.438	
C	-0.0546625176	 1.5190541466	-0.013737309	-0.384655
C	-0.0118012575	 0.000988971	 0.0271062965	-0.027958
O	-1.3367858395	-0.4872240733	-0.0229804359	-0.241775
C	-1.4175733339	-1.8902268575	 0.0111327679	-0.058058
C	-2.8973106953	-2.3026671615	 0.038398209	-0.168545
C	-3.0439153192	-3.8321745024	-0.1409964063	-0.178269
C	-4.4958691085	-4.2979870984	-0.2600154979	-0.389595
C	-3.5481766372	-1.8389426201	 1.2625656303	 0.363254
C	-4.0789694084	-1.493898425	 2.2847103646	-0.494128
H	 0.958199802	 1.9307223218	 0.0272198686	 0.113093
H	-0.533769008	 1.8646034518	-0.9341903617	 0.125931
H	-0.6241095702	 1.9078065555	 0.8350378903	 0.130292
H	 0.5721594344	-0.3931444014	-0.8226459531	 0.082768
H	 0.4861992365	-0.3483777402	 0.9474610384	 0.087018
H	-0.9366739653	-2.3290379917	-0.880106442	 0.081938
H	-0.9008622386	-2.2926364837	 0.8982781438	 0.091381
H	-3.3768502352	-1.8068749003	-0.8172058175	 0.111395
H	-2.487159377	-4.1217551776	-1.0404993714	 0.09601
H	-2.5604169042	-4.3345299859	 0.7054279968	 0.10611
H	-4.5478181828	-5.3841572827	-0.3809079559	 0.11202
H	-5.0681971095	-4.0261105717	 0.6312426307	 0.134369
H	-4.9875070057	-3.84131751	-1.1261632208	 0.114138
H	-4.5487972492	-1.1683912033	 3.1794609046	 0.193266
49.5275	65.8751	84.5384	116.4725	134.576	167.8507	217.4253	243.8645	249.8135	262.5759	319.4438	396.1236	475.6103	538.8243	596.6341	624.6481	633.0579	763.2479	822.1825	839.856	897.8694	930.1648	1008.568	1021.9385	1053.9494	1096.7647	1123.2347	1133.8546	1166.445	1174.9335	1189.5713	1255.1944	1273.8837	1297.5708	1299.5794	1366.8417	1377.2856	1385.1997	1405.8332	1413.4929	1448.2562	1483.1141	1485.6439	1497.6175	1499.6018	1507.8098	1511.5644	1536.0855	2233.6102	2945.0663	2957.0952	2976.3985	2984.3702	3016.1799	3027.5506	3036.503	3045.38	3065.6346	3103.1133	3118.935	3119.5141	3122.8307	3505.1211
CCOCC(CC)C#C	CCOC[C@@H](CC)C#C	
InChI=1S/C8H14O/c1-4-8(5-2)7-9-6-3/h1,8H,5-7H2,2-3H3	InChI=1S/C8H14O/c1-4-8(5-2)7-9-6-3/h1,8H,5-7H2,2-3H3/t8-/m1/s1
