19
gdb 55923	4.05666	0.92798	0.85522	3.5287	78.	-0.2338	0.0385	0.2724	1400.5449	0.15962	-419.197859	-419.188887	-419.187943	-419.233344	32.578	
C	 0.0453659938	 1.5053427184	-0.1055992792	-0.484568
C	 0.1235572015	-0.007573345	 0.0369231797	 0.407601
O	 0.3698181846	-0.5448256	 1.1029900527	-0.379697
N	-0.1179073297	-0.7087643267	-1.1098599426	-0.312397
C	-0.1064731969	-2.1438835764	-1.1750715447	 0.046122
C	-1.4337928916	-2.8914903495	-1.6008436686	-0.246704
C	-0.6801912005	-3.4351304818	-2.8147211727	-0.039826
N	-0.2143100433	-2.2426456381	-3.5691091417	-0.350576
C	 0.5736058959	-2.7434263945	-2.4126771825	-0.070219
H	 0.9108220897	 1.9490500588	 0.3912233187	 0.149723
H	 0.0080138154	 1.8466040355	-1.1434375673	 0.112438
H	-0.8491027293	 1.8632342722	 0.4134083247	 0.149712
H	-0.3110872162	-0.227333719	-1.9741426791	 0.252172
H	 0.2858212897	-2.5129113849	-0.2286272077	 0.121894
H	-1.7182154501	-3.6586093058	-0.877833702	 0.113176
H	-2.2924946266	-2.2549696166	-1.8267446842	 0.104456
H	-0.8111144559	-4.3861976407	-3.3143152046	 0.099032
H	 0.2493045122	-2.5766720441	-4.4131519928	 0.232079
H	 1.6123148273	-3.0270663816	-2.5311270663	 0.095582
32.8975	48.9691	99.2556	113.2636	232.4081	347.7821	363.4951	445.8943	532.8169	580.1717	600.1718	653.3231	702.5732	809.1803	832.7764	868.4824	902.9481	932.4181	968.3375	987.9689	996.8378	1009.893	1050.2119	1054.916	1094.965	1117.8419	1145.0982	1181.1007	1205.3289	1248.3696	1261.0164	1302.2235	1327.6238	1353.8824	1381.5962	1395.443	1469.8772	1474.0603	1486.0376	1531.3947	1775.1541	3048.2307	3068.3755	3119.6056	3126.5621	3137.2398	3142.0339	3186.1221	3204.4928	3479.9758	3634.4366
CC(=O)NC1CC2NC12	CC(=O)N[C@H]1C[C@H]2N[C@@H]12	
InChI=1S/C6H10N2O/c1-3(9)7-4-2-5-6(4)8-5/h4-6,8H,2H2,1H3,(H,7,9)	InChI=1S/C6H10N2O/c1-3(9)7-4-2-5-6(4)8-5/h4-6,8H,2H2,1H3,(H,7,9)/t4-,5+,6-/m0/s1
