19
gdb 26103	3.18308	1.21788	1.08814	3.5357	77.15	-0.2207	0.0315	0.2522	1184.024	0.159222	-419.253878	-419.244821	-419.243877	-419.287426	34.583	
C	-0.2809314683	 1.4814067528	-0.0997194408	-0.418023
C	 0.030730536	-0.0163360503	 0.0287433053	 0.242142
C	 0.9046896039	-0.287390774	 1.2587271185	-0.388735
O	-1.1746725233	-0.7615776018	 0.244083367	-0.456886
C	 0.7137353302	-0.5237719989	-1.220275362	 0.266798
C	 0.4103927939	-1.6516178098	-1.9393312965	-0.206575
N	 1.3251824652	-1.6844222503	-2.9710829201	-0.239467
C	 2.1285433298	-0.5938790772	-2.8325669829	 0.007638
N	 1.7886950094	 0.127498993	-1.7899647327	-0.319163
H	 0.6341323863	 2.0497434546	-0.2811611912	 0.140588
H	-0.9539317063	 1.6631500747	-0.9459214045	 0.099218
H	-0.7617630741	 1.8439093502	 0.8134432521	 0.111385
H	 0.4201633181	 0.0999450218	 2.1599288391	 0.111631
H	 1.0559271758	-1.3634301597	 1.3785392696	 0.117381
H	 1.8793387122	 0.1920452706	 1.1399699838	 0.129337
H	-1.7863839791	-0.521507696	-0.4607347328	 0.27123
H	-0.3343373488	-2.4160944976	-1.8036942622	 0.136425
H	 1.3836176398	-2.3840616079	-3.6915485471	 0.266176
H	 2.9345303395	-0.3790001644	-3.5186409925	 0.128897
59.239	148.3153	189.9616	222.8415	268.811	314.4609	327.2601	354.1522	356.3083	470.1215	495.9575	520.0743	612.9194	664.6119	728.5649	767.7479	823.0492	855.4184	932.6955	947.5605	960.2426	980.3514	1016.4801	1086.4244	1114.795	1132.4318	1176.2607	1201.5817	1244.5284	1313.422	1345.5418	1362.1004	1392.181	1408.5966	1456.1144	1478.6869	1480.5236	1494.4033	1503.7614	1524.8674	1589.6841	3030.8485	3044.3324	3100.8368	3119.0572	3130.6912	3135.887	3248.2777	3291.1097	3667.801	3798.7028
CC(C)(O)C1=CNC=N1	CC(C)(O)c1c[nH]cn1	
InChI=1S/C6H10N2O/c1-6(2,9)5-3-7-4-8-5/h3-4,9H,1-2H3,(H,7,8)	InChI=1S/C6H10N2O/c1-6(2,9)5-3-7-4-8-5/h3-4,9H,1-2H3,(H,7,8)
