16
gdb 69618	3.63602	1.19708	1.15613	4.2741	75.55	-0.2253	0.0021	0.2274	1108.6374	0.123954	-396.835954	-396.828137	-396.827193	-396.868094	30.247	
C	-0.07697568	 1.540270912	 0.0387615472	-0.511359
C	 0.0818824903	 0.0543207416	 0.0203749533	 0.345218
N	-0.8210452856	-0.8882256538	 0.7186324919	-0.340397
C	 0.6284707869	-0.9033761431	 1.0075344649	-0.190177
C	 1.3460563455	-1.6998521998	-0.1364458879	 0.246616
N	 0.3296798422	-2.1385035752	-1.1346341925	-0.332964
C	 0.7805550102	-0.7437695671	-1.1400389807	-0.168315
C	 2.6483224824	-2.259525098	-0.0665998418	 0.17904
N	 3.7134445772	-2.7090734459	 0.0105594835	-0.346818
H	 0.8422059576	 2.0385878233	-0.2882257998	 0.134064
H	-0.8874752307	 1.8604378865	-0.6260436121	 0.138532
H	-0.3075584952	 1.8939870753	 1.0489637844	 0.126962
H	-1.2613934098	-0.3669624314	 1.477913014	 0.234166
H	 1.036501125	-0.7528950609	 1.9979842819	 0.11297
H	 0.8365313978	-2.6247101894	-1.8761643283	 0.249966
H	 1.2795448862	-0.2975641241	-1.9908188481	 0.122498
111.3725	153.3182	207.2696	253.3082	293.374	399.535	444.7293	482.5803	541.5701	557.5892	589.0616	678.0535	780.9086	806.67	849.0203	863.1685	893.7244	937.2288	955.6236	994.0332	1018.4838	1047.5406	1083.9567	1111.4104	1141.3035	1227.1699	1251.2261	1269.8033	1345.5182	1376.7483	1414.0824	1449.9237	1481.249	1497.6877	2337.9173	3026.3963	3089.5518	3101.4862	3203.425	3210.5536	3465.0202	3467.0943
CC12NC1C1(NC21)C#N	C[C@]12N[C@H]1[C@]1(N[C@@H]21)C#N	
InChI=1S/C6H7N3/c1-5-3(8-5)6(2-7)4(5)9-6/h3-4,8-9H,1H3	InChI=1S/C6H7N3/c1-5-3(8-5)6(2-7)4(5)9-6/h3-4,8-9H,1H3/t3-,4+,5+,6-/m1/s1
