22
gdb 107246	2.80041	1.4129	1.09711	1.8968	85.76	-0.1975	0.0763	0.2738	1206.2531	0.193535	-367.138174	-367.129149	-367.128205	-367.171521	35.561	
C	 2.6325770418	 1.5696971915	 0.4628557821	-0.398576
C	 1.3471114342	 1.3598670801	-0.3450805177	-0.304611
C	 1.4658939302	 0.3813295522	-1.4805717924	 0.292458
N	 2.1823029867	-0.9162142823	-1.3702476194	-0.384262
C	 2.5547409817	 0.0670709063	-2.4282702664	-0.115793
C	 1.5509997532	-0.060633424	-3.6051711452	-0.111068
C	 0.4778281846	-1.0840913132	-3.325518759	-0.338414
C	 0.4096763471	 0.2605938358	-2.6478248398	 0.304965
C	-0.7319594864	 1.2222492721	-2.8163287959	-0.497205
H	 2.9359514094	 0.6622032925	 0.9955535585	 0.120852
H	 3.4619622816	 1.8786041089	-0.1822302883	 0.121398
H	 2.4878353753	 2.3505051244	 1.2148585734	 0.119397
H	 0.5431365845	 1.0312334279	 0.3285191803	 0.107362
H	 1.0206466174	 2.3249900286	-0.7515343728	 0.107584
H	 2.8720701411	-0.8163393822	-0.6263194424	 0.222411
H	 3.5657758878	 0.4493492544	-2.4950055072	 0.087467
H	 1.7341711771	 0.3491661397	-4.5905803034	 0.081844
H	-0.2394416038	-1.2077776376	-4.132102042	 0.098479
H	 0.7095578419	-1.9833263132	-2.7699940218	 0.137221
H	-1.5241343538	 1.0466793075	-2.0776957402	 0.117821
H	-0.4110516923	 2.2657677806	-2.7151755093	 0.113389
H	-1.1807244094	 1.1133926298	-3.8090886211	 0.11728
74.8817	142.8404	182.312	209.6075	239.3129	293.7879	315.6962	394.5104	448.5613	457.772	534.3045	617.2267	635.7442	768.2493	777.381	828.7161	844.5715	870.8713	891.1737	914.8537	948.1671	957.0851	970.8147	1005.1191	1030.6213	1044.9987	1079.9267	1096.7203	1111.8476	1129.7755	1153.8015	1195.2938	1246.3259	1266.6758	1290.735	1320.6005	1361.0484	1380.8026	1408.139	1417.8392	1436.8589	1472.0943	1485.2019	1489.7316	1500.9062	1502.7935	1510.5748	3008.9754	3016.6052	3035.2195	3046.6792	3070.7806	3092.5847	3101.0317	3109.5455	3131.695	3182.1357	3192.5448	3229.8584	3477.7293
CCC12NC1C1CC21C	CC[C@]12N[C@H]1[C@H]1C[C@@]21C	
InChI=1S/C8H13N/c1-3-8-6(9-8)5-4-7(5,8)2/h5-6,9H,3-4H2,1-2H3	InChI=1S/C8H13N/c1-3-8-6(9-8)5-4-7(5,8)2/h5-6,9H,3-4H2,1-2H3/t5-,6+,7-,8+/m1/s1
