19
gdb 97941	2.65114	0.96733	0.81459	2.8253	79.36	-0.2313	0.0194	0.2507	1459.5066	0.157397	-422.966132	-422.956051	-422.955106	-423.002805	35.912	
O	-1.449684441	 0.6538621295	 1.5397296878	-0.396805
C	-1.0051640459	 0.3721146341	 0.2188264078	-0.20092
C	-1.8364255796	-0.6278400392	-0.4544934652	 0.074609
C	-2.5670153366	-1.4565267925	-0.9394029897	 0.011748
C	-3.4577717114	-2.4673581495	-1.5040959315	-0.352927
C	-4.2076886356	-3.315744485	-0.4760753022	-0.058975
C	-3.6097337443	-3.6323955614	 0.8862202381	-0.338718
C	-4.8142945008	-2.7324032809	 0.777394344	 0.148513
O	-4.79217353	-1.3758891928	 1.0937177401	-0.428036
H	-1.4170955351	-0.1676429913	 2.0414355237	 0.290431
H	-1.0531396271	 1.3251796319	-0.3188427019	 0.146441
H	 0.0483015913	 0.0526261364	 0.2065287259	 0.12151
H	-4.1868734637	-1.9766725785	-2.1625577317	 0.140727
H	-2.8662736505	-3.1334068325	-2.1463482262	 0.137283
H	-4.7762300518	-4.1108165056	-0.9512793275	 0.090336
H	-3.7194228798	-4.6314997991	 1.2945459743	 0.110599
H	-2.6626625795	-3.1548528853	 1.1175035051	 0.109998
H	-5.7672146601	-3.1497749679	 1.0880407765	 0.103569
H	-3.9571545685	-0.9900779803	 0.8005973928	 0.290618
23.6409	54.9772	79.4542	172.8795	187.4372	226.3148	291.1754	325.1299	381.9912	406.0015	440.0922	455.0758	553.6602	649.1687	732.6462	773.0021	795.0708	837.9826	935.4176	982.0822	1007.0959	1038.797	1045.1972	1057.787	1090.9939	1131.3072	1143.8363	1158.6681	1210.3153	1240.1604	1250.2659	1320.0494	1348.6727	1365.7099	1387.914	1412.2542	1444.2496	1471.8771	1491.2327	1492.8996	2351.8626	2986.9078	3012.9716	3041.392	3068.6905	3126.3183	3137.1697	3159.5879	3213.5008	3764.4695	3814.1318
OCC#CCC1CC1O	OCC#CC[C@H]1C[C@H]1O	
InChI=1S/C7H10O2/c8-4-2-1-3-6-5-7(6)9/h6-9H,3-5H2	InChI=1S/C7H10O2/c8-4-2-1-3-6-5-7(6)9/h6-9H,3-5H2/t6-,7+/m0/s1
