21
gdb 120954	4.20762	0.94645	0.91031	1.2078	79.17	-0.2385	0.0838	0.3223	1386.8062	0.183334	-424.19029	-424.181856	-424.180912	-424.224017	32.019	
C	 0.5922725818	 1.3143682827	-0.0119966745	-0.222424
O	 0.714923974	-0.077077612	-0.1794116526	-0.238195
C	-0.2064324365	-0.6040089798	-1.1100305216	-0.092173
C	 0.0109689628	-2.108201486	-1.1638971433	 0.122802
O	-0.9952726283	-2.7309332574	-1.9986262613	-0.304598
C	-0.1863437975	-3.4837043382	-2.9238032721	 0.117422
C	 0.8926271505	-4.1242821659	-2.0170587536	-0.236954
C	 1.285920181	-2.6190916988	-1.8546542626	-0.065642
C	 0.8958600358	-2.4696142491	-3.3614081804	-0.239128
H	 0.7717196834	 1.8575654164	-0.9535836116	 0.103497
H	-0.4067078498	 1.5946538033	 0.358157163	 0.105071
H	 1.3404954198	 1.6241677731	 0.7218194115	 0.126125
H	-1.2447274685	-0.4012107148	-0.7992802577	 0.095922
H	-0.0682279785	-0.1452999227	-2.102008682	 0.08691
H	-0.0654494597	-2.4961054373	-0.1395991626	 0.080779
H	-0.8310665616	-4.0349816865	-3.6062832159	 0.078191
H	 0.5450843714	-4.6670460755	-1.13440784	 0.099543
H	 1.6374910318	-4.7029593854	-2.5656705393	 0.099613
H	 2.239716913	-2.290135513	-1.4475058206	 0.083858
H	 1.6466841788	-2.8982943036	-4.0270574161	 0.100589
H	 0.557078196	-1.5010719894	-3.7343033963	 0.098792
66.1076	84.9418	128.7012	217.0484	257.6583	327.3858	368.6572	485.3742	517.6057	560.1346	666.0037	818.3707	836.5916	842.4037	868.076	902.7431	930.0987	972.4033	982.2969	1006.1269	1031.4425	1038.4003	1071.0498	1095.0561	1111.8695	1127.7154	1148.3833	1170.1968	1186.1174	1211.5642	1226.0454	1237.5834	1246.3973	1253.9225	1286.0371	1290.2171	1336.9811	1379.7936	1431.0929	1475.006	1481.2593	1484.9894	1502.3263	1510.4704	1525.811	2962.2694	2974.2476	2995.6823	3012.7108	3022.0641	3065.8474	3076.333	3112.3829	3132.2355	3137.4917	3139.0983	3145.4855
COCC1OC2CC1C2	COC[C@H]1O[C@@H]2C[C@H]1C2	
InChI=1S/C7H12O2/c1-8-4-7-5-2-6(3-5)9-7/h5-7H,2-4H2,1H3	InChI=1S/C7H12O2/c1-8-4-7-5-2-6(3-5)9-7/h5-7H,2-4H2,1H3/t5-,6+,7-/m1/s1
