13
gdb 128615	2.76342	1.55528	1.00156	5.268	66.63	-0.2512	-0.0892	0.162	1087.1905	0.08662	-489.828889	-489.820885	-489.819941	-489.861815	28.604	
C	-0.0481447043	 1.4022514036	 0.0688479267	-0.257812
O	 0.0081798977	-0.0143831943	-0.010301027	-0.232923
C	 0.6186523645	-0.5558671769	-1.0795155076	 0.154797
C	 1.1934702965	 0.1253121379	-2.1042985356	-0.000386
O	 1.7889661477	-0.4592794652	-3.1465601586	-0.238425
N	 1.8282940113	-1.9425022284	-3.1934674311	 0.052704
N	 1.31488054	-2.5565260588	-2.2781512255	-0.130448
C	 0.6465916087	-2.0050424493	-1.107260168	 0.389094
O	 0.1900679884	-2.7604322765	-0.2901108224	-0.308832
H	 0.9578760464	 1.8400009494	 0.1032398637	 0.133189
H	-0.600324754	 1.827368999	-0.7792451533	 0.133189
H	-0.5746456052	 1.6306301239	 0.9951948626	 0.156985
H	 1.2237653325	 1.2071342457	-2.1740811139	 0.148869
74.987	115.9935	217.7964	239.5253	324.6182	342.2764	353.4765	380.0656	510.0644	537.7198	557.3894	586.3536	773.5481	790.5969	875.3092	880.9307	1007.8536	1107.4728	1175.8084	1187.0741	1236.549	1308.0241	1413.1008	1481.8294	1492.1059	1503.8814	1636.1957	1663.1284	1825.8499	3006.8252	3068.8534	3153.8941	3192.8568
COC1=CON=NC1=O	COc1connc1=O	
InChI=1S/C4H4N2O3/c1-8-3-2-9-6-5-4(3)7/h2H,1H3	InChI=1S/C4H4N2O3/c1-8-3-2-9-6-5-4(3)7/h2H,1H3
