18
gdb 77880	2.08234	1.6525	1.2988	3.3423	73.16	-0.2273	0.0124	0.2397	1078.6965	0.145668	-439.070753	-439.061401	-439.060457	-439.104489	34.067	
C	 0.1441213461	 1.5784983138	-0.1880891971	-0.425919
C	 0.1621450251	 0.0687240453	-0.0936823449	-0.089032
C	 0.7381615175	-0.875143474	-1.1278089995	-0.095494
N	 1.9630779348	-0.3450405339	-1.7336972541	-0.077621
C	 2.117138746	 0.4755147159	-2.9150031423	-0.348359
C	 2.6127022048	-0.2057837094	-0.5103406867	 0.32151
O	 3.6851157418	 0.2509207129	-0.2183736504	-0.371265
C	 1.3940873536	-0.790309281	 0.2317388117	 0.218405
O	 1.4106571914	-1.7578634827	 1.2082813674	-0.446654
H	 1.0670472685	 1.9723427363	-0.620460362	 0.138967
H	-0.694894785	 1.922579185	-0.8027735343	 0.12207
H	 0.0331226645	 2.0247966828	 0.8057012097	 0.125189
H	-0.7142863706	-0.363398427	 0.3906680751	 0.101382
H	 0.2161286844	-1.7157776823	-1.5668053007	 0.118887
H	 1.3557504334	 1.2641162004	-2.9763739983	 0.12217
H	 3.1054285569	 0.9403002201	-2.8675358258	 0.156741
H	 2.0608675612	-0.1318018861	-3.8242484271	 0.130451
H	 1.5623401756	-1.3284270662	 2.0575549193	 0.298571
130.8587	133.4357	148.2655	195.7161	211.8333	230.637	241.2531	272.5278	324.176	402.6334	513.3721	605.2873	610.1094	707.0876	749.6305	798.7516	889.105	924.2464	941.8078	972.0554	1003.0963	1063.5958	1106.0354	1121.4906	1151.4489	1197.6528	1240.1776	1257.6188	1287.0079	1353.5376	1374.2305	1414.8403	1444.9093	1474.3231	1483.9887	1489.605	1501.0517	1517.2875	1877.261	3013.351	3035.5371	3075.9553	3094.3776	3108.9981	3124.3978	3127.254	3199.4266	3799.821
CC1C2N(C)C(=O)C12O	C[C@H]1[C@H]2N(C)C(=O)[C@@]12O	
InChI=1S/C6H9NO2/c1-3-4-6(3,9)5(8)7(4)2/h3-4,9H,1-2H3	InChI=1S/C6H9NO2/c1-3-4-6(3,9)5(8)7(4)2/h3-4,9H,1-2H3/t3-,4+,6+/m0/s1
