20
gdb 120346	4.09318	0.98499	0.8745	1.5076	80.98	-0.2195	0.0124	0.2319	1377.936	0.171329	-403.109132	-403.100556	-403.099612	-403.142866	32.063	
C	 0.8451680328	 1.2871675944	-2.5878444766	-0.225516
O	 0.8835617783	-0.0767859485	-2.243724601	-0.234428
C	-0.2332442262	-0.4845276977	-1.4836063558	-0.062645
C	-0.0740411424	-1.9782980506	-1.2008756511	-0.033708
C	 1.1124288485	-2.3565361065	-0.3375179311	-0.088348
C	 0.7271499192	-3.1488938256	 0.6627802512	-0.087771
C	-0.7535843355	-3.3274058047	 0.6332755619	-0.063522
C	-1.5350807124	-2.07375502	 0.8361843779	-0.24343
N	-1.2625180165	-2.5581538951	-0.5267577387	-0.11612
H	-0.0413711792	 1.5298722388	-3.1947881584	 0.105739
H	 0.8364992141	 1.9345514672	-1.6964228133	 0.103868
H	 1.743071228	 1.5031421608	-3.1719662734	 0.127406
H	-0.2915505494	 0.0921072058	-0.5465171478	 0.083982
H	-1.1708599228	-0.3142894736	-2.0374529565	 0.098758
H	 0.0120098562	-2.4637109592	-2.1836129345	 0.099789
H	 2.1160465863	-2.0049391188	-0.539755105	 0.11127
H	 1.365255585	-3.5936097826	 1.4166075647	 0.101355
H	-1.1996449315	-4.2990713555	 0.8283192672	 0.09446
H	-2.5856093905	-2.1167792073	 1.1113761676	 0.114546
H	-0.9894975022	-1.2185581212	 1.2259056727	 0.114315
76.0229	91.397	130.1676	194.4799	236.7111	312.9155	345.2558	422.7146	459.1123	599.6891	701.9481	758.1916	774.0761	796.5874	833.9118	881.4581	927.8591	961.0593	984.7734	1029.6762	1054.1726	1070.9446	1099.9762	1102.9176	1114.5618	1133.4793	1160.9548	1167.4764	1185.943	1229.1776	1248.5745	1257.2279	1304.8127	1325.0767	1359.7277	1370.9863	1414.9163	1480.979	1485.7392	1489.7832	1504.0709	1528.5591	1666.0641	2961.3955	2973.9065	2990.4208	3008.4932	3014.5081	3102.9311	3113.6881	3141.6969	3192.1754	3202.6582	3228.8552
COCC1C=CC2CN12	COC[C@H]1C=C[C@H]2CN12	
InChI=1S/C7H11NO/c1-9-5-7-3-2-6-4-8(6)7/h2-3,6-7H,4-5H2,1H3	InChI=1S/C7H11NO/c1-9-5-7-3-2-6-4-8(6)7/h2-3,6-7H,4-5H2,1H3/t6-,7+,8?/m0/s1
