16
gdb 65795	2.22274	1.63371	1.40654	4.3065	77.9	-0.2229	-0.0354	0.1875	1013.2921	0.123145	-400.748143	-400.739618	-400.738674	-400.780965	32.394	
C	-0.0474847539	 1.5877307305	 0.063243854	-0.410292
C	 0.003208685	 0.0552096887	-0.0133283976	-0.035224
N	 0.8486812917	-0.4232058076	-1.1258745726	-0.305267
C	 1.8002053358	-1.2728101476	-0.6281220266	 0.010482
C	 1.8497118908	-1.3249851819	 0.7266037554	-0.266929
C	 0.7750495157	-0.5036823548	 1.2539559982	 0.377191
O	 0.4782935275	-0.21301346	 2.3894510646	-0.354778
C	-1.3287210713	-0.5314221859	-0.0952969741	 0.363181
C	-2.4295043676	-1.0073482022	-0.1776468426	-0.498177
H	 0.9679978151	 1.9920465412	 0.0443772178	 0.127945
H	-0.6143006945	 2.0053033063	-0.7725376913	 0.12014
H	-0.5250203116	 1.8729593943	 1.0034448539	 0.15459
H	 0.4030523598	-0.636833109	-2.0058048978	 0.256283
H	 2.4425726838	-1.7954449205	-1.3273587609	 0.137891
H	 2.5727914272	-1.8544385957	 1.3264085419	 0.118224
H	-3.4016749636	-1.4318995955	-0.2308632123	 0.204738
94.2931	132.6563	182.5362	234.686	244.7349	311.22	394.9964	456.7697	491.7432	545.3848	568.4761	619.6787	620.4301	658.76	682.792	736.3967	794.4549	810.877	917.0472	951.1799	966.2965	1091.6719	1105.7241	1136.4899	1165.2659	1182.5129	1211.3052	1372.1067	1397.6024	1444.9014	1485.6306	1487.403	1612.6434	1809.2476	2231.8438	3048.5841	3128.3839	3140.2773	3208.939	3265.3605	3500.6942	3612.3763
CC1(NC=CC1=O)C#C	C[C@]1(NC=CC1=O)C#C	
InChI=1S/C7H7NO/c1-3-7(2)6(9)4-5-8-7/h1,4-5,8H,2H3	InChI=1S/C7H7NO/c1-3-7(2)6(9)4-5-8-7/h1,4-5,8H,2H3/t7-/m0/s1
