19
gdb 92550	3.29584	1.40177	1.10514	1.9804	77.23	-0.2481	0.003	0.2511	1129.8737	0.159972	-423.010017	-423.002122	-423.001178	-423.042607	30.477	
C	-0.2075385565	 1.5124323634	-0.0275715547	-0.399788
C	 0.0168345579	 0.0042517997	 0.0113924326	 0.08571
O	 0.7079316244	-0.3327337804	-1.1895674442	-0.275041
C	 1.0853137449	-1.6846043005	-1.2937512299	 0.055418
C	 2.4533817545	-1.8276491359	-1.9787338248	-0.091993
O	 3.0977460029	-2.1783012223	-0.733768207	-0.299583
C	 1.8145235828	-2.2451277314	-0.0536532167	 0.082915
C	 1.6890752579	-1.417652357	 1.1805185957	-0.109379
C	 0.8068229417	-0.422473586	 1.2277955587	-0.058826
H	 0.7520984766	 2.0372240592	-0.0282594832	 0.131559
H	-0.7554373245	 1.7877354036	-0.9320208854	 0.126228
H	-0.7843086962	 1.8356218462	 0.8441253555	 0.115445
H	-0.9680651227	-0.4981148176	 0.0183436	 0.076445
H	 0.2607008168	-2.2951944576	-1.6852396765	 0.070077
H	 2.5206127865	-2.6374866968	-2.7160689366	 0.097097
H	 2.8412875775	-0.8974148011	-2.405495968	 0.115942
H	 1.5596699817	-3.2938531729	 0.1597512451	 0.078014
H	 2.2976082025	-1.6859384624	 2.0395815084	 0.102507
H	 0.6429663015	 0.1417122799	 2.1423791111	 0.097254
74.0378	130.1426	219.9904	249.7862	285.2011	384.65	402.9965	470.0281	530.0307	573.325	720.1286	779.6757	803.1172	839.077	876.3989	917.1203	950.3697	988.5865	990.7083	1013.6308	1042.0457	1069.7748	1078.2718	1117.167	1141.3245	1157.8864	1188.5207	1213.557	1270.1719	1284.0686	1324.3254	1339.8554	1347.3525	1367.4487	1387.3686	1406.2343	1420.1574	1483.8973	1499.647	1507.4189	1713.3734	2928.4029	2987.1995	3008.4934	3024.9995	3045.4356	3084.821	3120.8209	3128.6206	3154.4452	3177.3167
CC1OC2COC2C=C1	C[C@H]1O[C@H]2CO[C@H]2C=C1	
InChI=1S/C7H10O2/c1-5-2-3-6-7(9-5)4-8-6/h2-3,5-7H,4H2,1H3	InChI=1S/C7H10O2/c1-5-2-3-6-7(9-5)4-8-6/h2-3,5-7H,4H2,1H3/t5-,6+,7+/m1/s1
