17
gdb 18302	3.09222	2.18544	1.87754	3.4002	63.34	-0.2107	0.0603	0.2711	790.2275	0.144739	-400.956014	-400.949245	-400.948301	-400.986738	26.923	
O	 0.1066680757	 1.3204829386	 0.235506247	-0.426808
C	 0.080869009	-0.0529171578	 0.0336622541	 0.072485
C	-1.3075412768	-0.7000772381	-0.0167603126	-0.141107
N	-2.3826688218	 0.2676909911	 0.0385888871	-0.320066
C	-2.9778566505	 0.5301713939	-1.2751843182	-0.172761
C	-1.8825402514	 1.0554441489	-2.1971672793	-0.052501
O	-0.8283727912	 0.1160399212	-2.3751921051	-0.261105
C	-0.4491626773	-0.6346964804	-1.2622182367	 0.087279
H	-0.8142287031	 1.5525497054	 0.455711287	 0.278409
H	 0.8921640736	-0.5823914872	 0.5279310263	 0.090637
H	-1.4910147093	-1.66329303	 0.4522937398	 0.087468
H	-3.0765087772	 0.0054310099	 0.7247129153	 0.234257
H	-3.434501276	-0.3673938176	-1.7235667271	 0.096165
H	-3.7551838122	 1.293736636	-1.1688536384	 0.106059
H	-2.2848381172	 1.2440842559	-3.1970403072	 0.107162
H	-1.4861269884	 1.9970997704	-1.7962122324	 0.111716
H	 0.004275404	-1.5657435203	-1.5898473295	 0.102709
138.147	171.2364	261.9297	354.5412	428.7154	504.58	556.1486	594.3944	634.0885	699.1951	718.5534	767.6525	802.22	846.9987	926.6083	949.1175	1021.05	1063.6631	1073.1005	1106.2586	1108.8776	1120.3299	1167.1697	1180.897	1244.8023	1262.3618	1279.6108	1333.1142	1349.6625	1365.9609	1407.2637	1421.9443	1445.8917	1485.0931	1495.5884	1507.0972	2969.5312	3026.2432	3076.3143	3086.6227	3123.531	3130.6358	3151.2444	3576.7445	3598.2724
OC1C2NCCOC12	O[C@H]1[C@H]2NCCO[C@@H]12	
InChI=1S/C5H9NO2/c7-4-3-5(4)8-2-1-6-3/h3-7H,1-2H2	InChI=1S/C5H9NO2/c7-4-3-5(4)8-2-1-6-3/h3-7H,1-2H2/t3-,4+,5-/m1/s1
