16
gdb 13583	3.6096	1.37289	1.24307	1.7448	67.57	-0.2472	-0.091	0.1563	1026.7972	0.12857	-383.753331	-383.745056	-383.744111	-383.786469	29.405	
C	-0.0121985821	 1.6652281294	 0.0928507791	-0.420431
C	-0.0696474985	 0.1599026153	 0.2095697571	 0.014319
C	 1.0525665996	-0.7091220023	-0.231514785	-0.286899
C	 0.7527397464	-0.6191084546	 1.2601219478	-0.138364
C	 1.7076925418	 0.0841891606	 2.1303930286	 0.286886
O	 2.4956353612	 0.9458664523	 1.7887971827	-0.315247
C	 1.7105704357	-0.3150916384	 3.6147795336	 0.094224
O	 1.0096266412	-1.1699560613	 4.0884468974	-0.220374
H	 0.9954570066	 2.0420226412	 0.2774451591	 0.154852
H	-0.3139406659	 1.9710715044	-0.9148370753	 0.122093
H	-0.6938000096	 2.1435849938	 0.8040101761	 0.120063
H	-1.0640841035	-0.261831322	 0.087854446	 0.102999
H	 0.8422151552	-1.6554179872	-0.716835172	 0.124003
H	 1.9690442536	-0.2183895894	-0.5431677767	 0.139082
H	 0.249998689	-1.4508750303	 1.7373246703	 0.116958
H	 2.4440064194	 0.2734523585	 4.2056811811	 0.105837
57.3969	136.0503	175.778	179.38	228.6952	256.6205	358.7587	406.1962	520.5372	620.1011	640.2037	741.6492	767.3294	864.4611	873.4339	953.2554	994.3091	1035.5565	1078.2983	1089.319	1123.1843	1149.6124	1163.1596	1209.6648	1233.6206	1363.0951	1392.5937	1420.0962	1429.7009	1478.279	1501.1673	1504.6732	1769.7683	1824.4145	2924.0646	3037.4961	3094.7675	3130.6602	3134.2789	3148.5306	3198.0983	3227.6114
CC1CC1C(=O)C=O	C[C@H]1C[C@H]1C(=O)C=O	
InChI=1S/C6H8O2/c1-4-2-5(4)6(8)3-7/h3-5H,2H2,1H3	InChI=1S/C6H8O2/c1-4-2-5(4)6(8)3-7/h3-5H,2H2,1H3/t4-,5+/m0/s1
