18
gdb 32334	4.48684	0.97063	0.8502	4.3189	84.06	-0.2099	-0.0357	0.1743	1369.6582	0.149687	-402.030212	-402.021988	-402.021044	-402.063441	31.13	
C	 0.0715921413	 1.5719583268	 0.1359293658	-0.366435
C	 0.016472031	 0.0507341252	-0.0840122104	-0.295081
C	-1.384264905	-0.5094046465	-0.0515581238	 0.234122
C	-2.015463071	-0.9520966746	-1.1746344841	-0.048159
N	-3.2889528383	-1.4363158936	-1.1290361685	-0.359934
C	-4.0879463955	-1.5425057545	 0.0256509483	 0.420892
O	-5.2201774551	-1.9927895996	-0.0481870488	-0.402332
C	-3.4016161844	-1.0738472495	 1.2155509395	-0.24498
C	-2.1308337237	-0.589851387	 1.1671903654	-0.113817
H	 1.1054326892	 1.9310877294	 0.1273333442	 0.115818
H	-0.4811366211	 2.0997481102	-0.647564711	 0.120396
H	-0.3718405919	 1.8502685287	 1.0974532246	 0.121621
H	 0.4811397823	-0.1941413702	-1.0459213179	 0.101568
H	 0.6257335618	-0.4444530369	 0.6831517649	 0.109094
H	-1.5468357722	-0.9453085705	-2.1525350998	 0.126691
H	-3.7387392695	-1.7627596903	-1.973078214	 0.259689
H	-3.9579890374	-1.1365462184	 2.142668085	 0.115433
H	-1.6551154405	-0.2544616987	 2.0857917508	 0.105414
62.3997	99.5808	196.3686	212.5039	323.9509	369.749	404.1286	456.1292	483.1509	542.7797	639.8912	708.204	740.0396	765.6922	787.7905	825.5853	858.802	894.718	972.299	995.1249	1004.1872	1067.0469	1087.2167	1138.7911	1213.0902	1224.6335	1250.1397	1281.5283	1351.679	1381.9909	1409.7537	1452.2703	1464.547	1484.0053	1496.7428	1505.8914	1579.9941	1683.4061	1783.4411	3020.9912	3035.6245	3060.5434	3107.267	3110.2208	3156.7966	3192.5181	3214.4559	3607.253
CCC1=CNC(=O)C=C1	CCc1c[nH]c(=O)cc1	
InChI=1S/C7H9NO/c1-2-6-3-4-7(9)8-5-6/h3-5H,2H2,1H3,(H,8,9)	InChI=1S/C7H9NO/c1-2-6-3-4-7(9)8-5-6/h3-5H,2H2,1H3,(H,8,9)
