21
gdb 102767	2.30028	0.79733	0.61976	2.9086	89.29	-0.2432	-0.0238	0.2194	1825.2845	0.17842	-387.085201	-387.073741	-387.072796	-387.124489	38.538	
C	 0.8187494166	-0.3104190077	 1.3819647504	-0.387881
C	 0.1591986827	-0.1342472335	 0.014007078	-0.166111
C	-1.2968935137	-0.6549654492	-0.0442420661	-0.185028
C	-1.9573813339	-0.3192257528	-1.4057232897	-0.279147
C	-2.1463376867	 1.1679998622	-1.6045903008	 0.156825
O	-1.8552272526	 1.7785312501	-2.5999284982	-0.240003
C	-1.3753716636	-2.0905084851	 0.2226341833	 0.058793
C	-1.4315042464	-3.278515717	 0.4142917577	 0.091012
C	-1.5063232661	-4.7128131549	 0.6560114499	-0.499382
H	 1.8460313927	 0.0656495093	 1.3714496593	 0.115542
H	 0.2719460051	 0.2359203911	 2.1588032946	 0.113176
H	 0.8446547204	-1.3650714284	 1.6707465411	 0.131141
H	 0.1560905139	 0.9278338207	-0.2617326113	 0.105492
H	 0.7432430797	-0.652535716	-0.7557284049	 0.109469
H	-1.8687046643	-0.1302223781	 0.7373018214	 0.101255
H	-1.3795404364	-0.7252605655	-2.2404306226	 0.128326
H	-2.95570817	-0.7766394782	-1.4332412351	 0.129913
H	-2.6114411787	 1.6871983872	-0.7314128315	 0.07001
H	-2.3155715362	-5.171909761	 0.0774540579	 0.148774
H	-0.5736296779	-5.2135041748	 0.373766567	 0.149093
H	-1.6915541246	-4.9297600784	 1.7138367295	 0.148731
17.0498	57.2338	65.78	81.8173	110.1402	142.5699	210.945	242.5065	258.7697	303.5345	336.2676	413.3796	445.933	521.2794	576.0007	704.2207	769.7423	831.5686	880.5237	992.9691	1003.3451	1035.119	1053.2418	1053.4804	1079.4086	1105.5833	1135.8128	1182.7818	1215.264	1263.8121	1288.9107	1328.7179	1367.2811	1377.2355	1412.6963	1415.4613	1428.6088	1458.2305	1478.5281	1479.0932	1483.6888	1497.6199	1507.3184	1836.2373	2367.9787	2836.7199	2980.7576	3025.8563	3027.2105	3027.7835	3035.2384	3064.7376	3087.9083	3088.1895	3102.2709	3105.8739	3116.9322
CCC(CC=O)C#CC	CC[C@@H](CC=O)C#CC	
InChI=1S/C8H12O/c1-3-5-8(4-2)6-7-9/h7-8H,4,6H2,1-2H3	InChI=1S/C8H12O/c1-3-5-8(4-2)6-7-9/h7-8H,4,6H2,1-2H3/t8-/m1/s1
