20
gdb 56846	2.79718	1.29424	1.06072	1.3381	84.93	-0.2374	0.0527	0.29	1211.8315	0.169581	-365.927612	-365.918668	-365.917723	-365.961456	34.343	
C	-0.0109085802	 1.4240779793	-0.0740397661	-0.386832
C	 0.1500903315	-0.0850131065	 0.1657240291	-0.14658
C	 0.751052256	-0.3653131717	 1.4704753134	 0.375834
C	 1.254231848	-0.5929332847	 2.5376837725	-0.479226
N	-1.1772556349	-0.7117839094	 0.0980955236	-0.068134
C	-1.766744725	-1.1641822843	-1.1451786624	-0.045701
C	-0.7538250574	-1.8141743528	-2.1089178409	-0.248544
C	-0.3419215992	-2.8038018168	-0.9736543173	-0.244702
C	-1.3765972359	-2.1334638809	-0.0480695568	-0.031748
H	 0.9582407027	 1.9268220794	-0.0246717745	 0.121947
H	-0.4457460374	 1.596860337	-1.06311584	 0.116891
H	-0.6748357404	 1.8544983998	 0.6789605988	 0.135978
H	 0.8353525278	-0.4763704163	-0.6022350721	 0.094562
H	 1.697403586	-0.7946247867	 3.4813454199	 0.195534
H	-2.7401295683	-0.7720725205	-1.4204751856	 0.091895
H	-1.2533106773	-2.3251285675	-2.934784085	 0.107465
H	 0.0204243262	-1.1636977572	-2.5277874329	 0.102022
H	-0.6060127278	-3.8359611352	-1.2119436866	 0.105572
H	 0.6962547284	-2.7816974556	-0.6299654306	 0.109887
H	-1.9902266627	-2.6401294196	 0.6888546035	 0.093878
44.9534	130.8862	168.7504	211.3304	225.41	281.926	307.8842	432.0752	505.4936	516.0159	569.19	620.3749	651.8992	749.6818	778.1832	792.7808	838.4582	852.4831	901.3942	948.2618	960.2687	967.4349	1015.5005	1048.2762	1061.9198	1098.4342	1100.9094	1134.6026	1142.6406	1217.0585	1221.3096	1250.232	1276.3146	1282.4751	1334.8555	1350.8308	1386.932	1402.0277	1478.4387	1486.5206	1494.0397	1498.8259	2239.1165	2979.416	3046.4571	3051.9591	3062.2906	3102.6793	3120.745	3121.0244	3136.8604	3161.5515	3174.3914	3503.7721
CC(C#C)N1C2CCC12	C[C@@H](C#C)N1[C@H]2CC[C@@H]12	
InChI=1S/C8H11N/c1-3-6(2)9-7-4-5-8(7)9/h1,6-8H,4-5H2,2H3	InChI=1S/C8H11N/c1-3-6(2)9-7-4-5-8(7)9/h1,6-8H,4-5H2,2H3/t6-,7-,8+,9?/m0/s1
