23
gdb 79256	2.29145	1.96034	1.48933	0.0477	87.23	-0.2581	0.0821	0.3402	1029.1275	0.208363	-351.181159	-351.173256	-351.172311	-351.212707	33.369	
C	-0.1438800486	 1.5619133618	-0.0336193617	-0.425632
C	 0.0264220734	 0.0430131982	 0.0003461529	 0.017129
C	 0.9169833923	-0.526472766	-1.1019730467	-0.059503
C	 2.3261650616	-0.6231909709	-0.5422716364	-0.059379
C	 2.2739414498	-0.1242939241	 0.8956542088	-0.253057
C	 0.8166463998	-0.5582189107	 1.2089969584	 0.280845
C	 0.2888773313	-0.2611420728	 2.5993809362	-0.488203
C	 0.8701436703	-2.0542493965	 0.7940292513	-0.249639
C	 1.4437514758	-1.8571815964	-0.603873341	-0.073809
H	 0.8170029425	 2.0850532939	-0.0352643803	 0.117486
H	-0.6781733256	 1.8647385967	-0.9407860172	 0.111094
H	-0.7249279183	 1.9212383168	 0.8224125806	 0.111109
H	-0.9706875174	-0.4176329817	-0.0333319515	 0.059605
H	 0.7316164164	-0.3388103369	-2.1523132814	 0.072752
H	 3.1994710715	-0.5152808171	-1.1722749881	 0.07521
H	 2.9948213033	-0.6308459535	 1.5478996887	 0.088336
H	 2.4311951317	 0.9543280731	 0.9927247336	 0.090614
H	 0.3064195221	 0.8120544257	 2.8171469009	 0.113526
H	-0.7452418913	-0.606184252	 2.7135548398	 0.110063
H	 0.8904999618	-0.761828478	 3.3662408654	 0.110769
H	 1.5224576315	-2.6427755761	 1.4494350128	 0.086744
H	-0.1228935103	-2.5182495336	 0.7907265345	 0.08766
H	 1.6537560064	-2.67912242	-1.2759070497	 0.076279
182.5426	214.2723	238.9746	245.472	302.4161	331.6957	434.1617	461.6049	521.1284	599.7292	648.0123	687.734	745.6238	814.2069	816.1546	843.5204	888.5547	898.0356	953.1109	958.527	985.2403	990.0266	1003.5682	1027.5081	1056.7227	1064.4952	1078.6516	1095.4676	1120.2757	1142.3355	1146.347	1165.1269	1214.9941	1249.6714	1268.7705	1275.4124	1305.7214	1312.8145	1339.0888	1375.9357	1395.1516	1408.4467	1417.9034	1485.0039	1493.4383	1495.5054	1499.1386	1504.8185	1514.163	3005.6663	3023.6803	3029.5908	3031.9396	3039.9298	3071.3917	3079.8949	3086.9489	3090.3967	3094.6062	3108.5392	3185.7411	3191.1502	3204.0655
CC1C2C3CC1(C)CC23	C[C@H]1[C@H]2[C@H]3C[C@]1(C)C[C@@H]23	
InChI=1S/C9H14/c1-5-8-6-3-9(5,2)4-7(6)8/h5-8H,3-4H2,1-2H3	InChI=1S/C9H14/c1-5-8-6-3-9(5,2)4-7(6)8/h5-8H,3-4H2,1-2H3/t5-,6-,7+,8-,9+/m0/s1
