16
gdb 46970	3.04857	1.74582	1.19372	4.1324	69.43	-0.2402	0.0057	0.2459	987.1338	0.128779	-434.124512	-434.117578	-434.116634	-434.1562	26.375	
O	 0.1270081298	-0.0055770337	 0.2062087255	-0.389142
C	 0.0349289928	 1.1615735451	-0.0829736139	 0.435078
N	-1.1144144544	 1.9265775071	-0.1696545971	-0.346963
C	-0.8304442299	 3.3583112832	-0.0967415572	-0.201297
C	 0.6241221305	 3.4077545534	-0.6192268269	 0.017148
C	 1.694781966	 4.2408256926	 0.1398596349	-0.195819
N	 2.6853261089	 3.2739823516	 0.6555706232	-0.239494
C	 2.2767648258	 2.1094470666	 0.3477258502	 0.052286
N	 1.1017158289	 2.0295177111	-0.4111635624	-0.134124
H	-1.9456962377	 1.5344683424	 0.2445372773	 0.260036
H	-1.5125312396	 3.9356766234	-0.725818053	 0.124532
H	-0.9011432693	 3.7409842456	 0.9326230602	 0.11328
H	 0.6225392909	 3.6353674673	-1.6893454711	 0.10419
H	 2.1882033921	 4.9596587771	-0.5197225065	 0.125697
H	 1.276261384	 4.8084259867	 0.980937432	 0.116357
H	 2.7709767012	 1.1868087206	 0.6296939948	 0.158235
97.4727	148.2253	190.4472	314.9881	431.2782	514.4115	523.7484	593.7952	675.6256	697.22	770.5485	781.0034	876.027	919.9255	945.3925	969.4571	985.9537	1045.4366	1071.8302	1110.4144	1137.3063	1200.5839	1219.0364	1238.105	1261.2175	1307.26	1313.2302	1336.1178	1357.0606	1388.944	1433.8114	1493.329	1530.1266	1690.2275	1853.7595	2991.2132	3027.1055	3048.9043	3086.6364	3092.284	3218.5406	3639.4572
O=C1NCC2CN=CN12	O=C1NC[C@H]2CN=CN12	
InChI=1S/C5H7N3O/c9-5-7-2-4-1-6-3-8(4)5/h3-4H,1-2H2,(H,7,9)	InChI=1S/C5H7N3O/c9-5-7-2-4-1-6-3-8(4)5/h3-4H,1-2H2,(H,7,9)/t4-/m1/s1
