21
gdb 75459	2.1268	1.51544	1.23536	2.5486	85.	-0.2307	-0.0244	0.2064	1155.0838	0.181005	-387.12743	-387.117789	-387.116844	-387.161997	35.668	
C	-0.0886927978	 1.479964241	 0.0685492826	-0.499351
C	 0.0025648646	-0.0129965381	-0.0044197801	 0.299593
C	-0.0350554198	-0.7745294895	-1.100187503	-0.173178
C	 0.054350103	-2.2499645261	-0.8081319488	-0.25999
C	 0.4233059841	-2.2821411882	 0.6966417805	-0.271672
C	 0.0915593802	-0.8706807471	 1.2668677957	 0.121943
C	 1.1031638268	-0.3665599316	 2.2999646062	-0.449482
C	-1.3186435944	-0.8721879871	 1.8525484256	 0.139084
O	-1.6639905013	-0.2830326701	 2.8447134891	-0.262379
H	 0.8232033056	 1.9158518593	 0.4937960959	 0.132213
H	-0.2416410797	 1.9165657236	-0.9217803436	 0.123968
H	-0.9145379553	 1.7976532868	 0.716823925	 0.140039
H	-0.1311418716	-0.3839019396	-2.1085018692	 0.090588
H	-0.9013460867	-2.7523396681	-1.0102267775	 0.109426
H	 0.7994024418	-2.7606830578	-1.4293397215	 0.106092
H	-0.0888827628	-3.0817909735	 1.2414097492	 0.102392
H	 1.4970041018	-2.4544629945	 0.8159375544	 0.110377
H	 2.0915344845	-0.2528797057	 1.8444280852	 0.110556
H	 0.7941784271	 0.5923895779	 2.7214823516	 0.13466
H	 1.18763622	-1.0735011535	 3.13130635	 0.120818
H	-2.05320298	-1.4553910282	 1.2490309126	 0.074305
54.5783	81.7307	173.956	202.9536	238.0801	252.4303	254.8533	277.1009	335.2742	409.8659	463.3168	560.8533	612.8223	687.3418	736.5432	799.3193	851.0443	894.392	921.8945	929.3443	984.4785	1014.0793	1031.0151	1040.2637	1071.8793	1111.2106	1130.953	1185.4148	1216.3171	1229.854	1260.4024	1297.1047	1324.94	1353.8259	1404.0437	1417.5985	1428.9224	1475.9666	1483.1635	1486.5982	1490.7893	1501.5923	1503.8242	1716.1974	1819.837	2857.61	3014.1669	3024.9344	3040.9942	3045.1801	3052.7104	3073.5588	3091.8578	3107.9355	3114.5545	3129.9762	3180.5333
CC1=CCCC1(C)C=O	CC1=CCC[C@]1(C)C=O	
InChI=1S/C8H12O/c1-7-4-3-5-8(7,2)6-9/h4,6H,3,5H2,1-2H3	InChI=1S/C8H12O/c1-7-4-3-5-8(7,2)6-9/h4,6H,3,5H2,1-2H3/t8-/m1/s1
