17
gdb 80827	2.05652	1.81929	1.62555	2.9545	67.67	-0.2274	-0.0163	0.2111	958.2751	0.134556	-458.960704	-458.952412	-458.951468	-458.993297	31.503	
C	-0.041366753	 1.4922650336	-0.0263401403	-0.515322
C	-0.0809302812	-0.0025927925	 0.0256909703	 0.233083
O	 0.3636150037	-0.7253315436	-1.178544649	-0.330595
C	-0.3110331994	-1.8836131788	-0.585425197	 0.044394
C	 0.5983969374	-2.2066546046	 0.6106317554	-0.344021
C	 0.7594569416	-0.7481575598	 1.0835164042	 0.433637
O	 1.3762806965	-0.2922894143	 2.0049512193	-0.330519
C	-1.3594477586	-0.9037294545	-0.0268482564	 0.072641
O	-2.0206840115	-1.2967028276	 1.1414147692	-0.426675
H	 0.9828162245	 1.8401951886	-0.1897873813	 0.146898
H	-0.6764404295	 1.8806235529	-0.8270757663	 0.125281
H	-0.3788834488	 1.9029743109	 0.9303774723	 0.135945
H	-0.5550209317	-2.6692128397	-1.2983269743	 0.091872
H	 0.1414594568	-2.8271836788	 1.3847056999	 0.141597
H	 1.5498915217	-2.643938225	 0.2995356537	 0.133559
H	-2.0325661736	-0.5508311204	-0.8166674391	 0.091701
H	-2.6334730447	-0.6037402565	 1.4058273093	 0.296524
110.6653	139.2002	216.9853	231.9887	240.712	256.7433	376.1811	450.6291	478.0474	558.19	628.0978	663.0002	684.9899	769.966	818.0077	847.7076	879.1575	923.7247	959.4323	989.5922	1039.8994	1106.43	1112.215	1141.021	1156.798	1186.9901	1243.8914	1272.1864	1277.2695	1317.0947	1352.8564	1413.3167	1422.5336	1446.7852	1474.1677	1487.5588	1880.0645	3044.0599	3047.5337	3077.9073	3116.34	3122.3457	3133.3401	3138.1457	3829.2788
CC12OC(CC1=O)C2O	C[C@@]12O[C@@H](CC1=O)[C@H]2O	
InChI=1S/C6H8O3/c1-6-4(7)2-3(9-6)5(6)8/h3,5,8H,2H2,1H3	InChI=1S/C6H8O3/c1-6-4(7)2-3(9-6)5(6)8/h3,5,8H,2H2,1H3/t3-,5+,6+/m0/s1
