16
gdb 47173	2.48306	1.91731	1.14565	5.0047	71.43	-0.2338	-0.0121	0.2217	1021.4511	0.125983	-437.881856	-437.87459	-437.873646	-437.913775	27.749	
O	 0.0174395802	-0.0385890264	-0.2413290486	-0.325377
C	-0.0239706591	 1.1231098461	 0.0467644129	 0.43678
O	-1.2067042213	 1.6999374692	 0.3944204565	-0.240281
C	-1.3215191991	 3.0758349627	 0.8265985404	-0.103
C	-0.101463661	 3.5952170814	 1.5490349561	-0.275987
C	 1.0535640438	 3.1267712564	 1.1143291859	 0.334533
C	 2.5029751917	 2.8983908324	 1.4754148558	-0.264081
N	 2.4281929293	 1.6209591434	 0.6914185366	-0.315527
C	 1.1629266691	 2.0706322616	 0.0529164191	-0.199857
H	-1.5683802096	 3.6881582987	-0.0518112625	 0.127818
H	-2.1957433579	 3.0825002097	 1.4827536561	 0.136243
H	-0.2297437838	 4.2573774776	 2.3979999634	 0.111684
H	 3.1813990639	 3.6518460651	 1.0496700178	 0.111491
H	 2.7442172005	 2.7649576165	 2.5348712233	 0.129868
H	 3.1948716134	 1.4708421128	 0.0455482044	 0.228485
H	 1.2813972899	 2.4750843428	-0.9655326971	 0.107207
100.4173	142.7915	231.4539	259.2551	340.5828	469.5227	486.1754	521.2054	609.3446	689.448	712.7441	779.6735	832.3405	889.9508	939.7979	963.6256	987.765	1012.301	1021.059	1052.1599	1087.1601	1120.5442	1142.5092	1170.0674	1216.3874	1255.0005	1270.5034	1334.6941	1339.0557	1380.5989	1409.8942	1499.2469	1500.2948	1795.1148	1861.7628	2968.9796	2998.1607	3010.0903	3070.4873	3093.6272	3193.1558	3541.0533
O=C1OCC=C2CNC12	O=C1OC[CH][C]2CN[C@@H]12	
InChI=1S/C6H7NO2/c8-6-5-4(3-7-5)1-2-9-6/h1,5,7H,2-3H2	InChI=1S/C6H7NO2/c8-6-5-4(3-7-5)1-2-9-6/h1,5,7H,2-3H2/t5-/m1/s1
