16
gdb 81118	2.60979	1.70623	1.27039	3.5613	74.2	-0.2512	-0.0093	0.2419	990.5176	0.125257	-400.727613	-400.720206	-400.719261	-400.759235	29.412	
O	 0.1342712444	 1.3787893737	 0.0435769697	-0.430756
C	 0.0539900986	-0.0101210276	 0.0361540534	 0.132607
C	 0.0173755438	-0.6255915259	 1.4777324602	-0.116287
C	-1.4861976737	-0.1994244652	 1.5254707993	-0.251293
C	-1.426066341	-0.6415954603	 0.0180278293	 0.162738
C	-1.0441695041	-2.1175051323	 0.1527598167	-0.133535
C	-0.1046447354	-2.1023201485	 1.1043255486	-0.100677
C	-2.3943893024	-0.2207189151	-0.9622421998	 0.125783
N	-3.1404557448	 0.1568253274	-1.7618449141	-0.343228
H	 0.0492244692	 1.700528779	-0.8605990584	 0.300458
H	 0.7453814992	-0.4757488634	-0.6762754793	 0.084342
H	 0.7348410489	-0.3196506918	 2.2360469901	 0.083894
H	-2.1534741838	-0.7747401299	 2.1685245273	 0.109794
H	-1.627221019	 0.8751367665	 1.6407209782	 0.133331
H	-1.4406104701	-2.9264688329	-0.4423882886	 0.12595
H	 0.4781845402	-2.9178908936	 1.5066529275	 0.116881
118.6126	162.7434	277.885	312.3979	329.3449	451.9389	490.4468	520.0167	545.8016	561.2053	620.8917	702.887	712.6948	860.7451	862.3165	910.4211	915.5731	933.4271	959.1855	1013.0275	1063.7971	1066.8718	1114.9619	1140.5922	1167.0039	1207.7195	1223.5376	1250.0409	1258.2608	1290.2263	1334.5574	1412.8903	1487.0793	1617.3824	2348.33	3039.8767	3087.1214	3146.8456	3163.2611	3232.1731	3257.9124	3809.2591
OC1C2CC1(C=C2)C#N	O[C@H]1[C@H]2C[C@@]1(C=C2)C#N	
InChI=1S/C7H7NO/c8-4-7-2-1-5(3-7)6(7)9/h1-2,5-6,9H,3H2	InChI=1S/C7H7NO/c8-4-7-2-1-5(3-7)6(7)9/h1-2,5-6,9H,3H2/t5-,6+,7+/m1/s1
