19
gdb 40110	3.05397	1.52976	1.158	1.9869	81.55	-0.2301	0.0163	0.2465	1084.4076	0.160259	-385.851108	-385.843667	-385.842723	-385.882971	29.9	
C	 0.0841486045	 1.5219087306	 0.0741164498	-0.243498
O	 1.2427453848	 0.6812922657	 0.1016722223	-0.283263
C	-0.0351473362	 0.0587853904	 0.0310763037	 0.42488
C	-0.5136717681	-0.7813284662	 1.2422764386	-0.332398
C	-1.6365470728	-1.6200129011	 0.6449585754	-0.239457
C	-1.5155760464	-1.6422447693	-0.6797994409	 0.303729
C	-2.295324282	-1.6350376015	-1.9735115983	-0.318409
C	-1.4871340524	-0.3220792212	-2.3057373757	-0.242119
C	-0.4384620764	-0.7355286866	-1.2086717484	-0.13871
H	-0.1293593515	 2.0554531068	 1.000161131	 0.109815
H	-0.0468695475	 2.1051207868	-0.8369810945	 0.112051
H	 0.3200808052	-1.38294169	 1.6299636063	 0.11926
H	-0.8573578913	-0.1526663801	 2.0711709483	 0.106416
H	-2.4502332036	-2.025282007	 1.2352377814	 0.093623
H	-2.0190054651	-2.4473340184	-2.6540619323	 0.114353
H	-3.3846508899	-1.575796146	-1.9163124906	 0.111151
H	-1.1201187545	-0.2156126991	-3.328898568	 0.103879
H	-2.0448775552	 0.5726546132	-2.0193773173	 0.108972
H	 0.4271817581	-1.2386480369	-1.6550609806	 0.089724
82.1552	204.8149	243.4871	281.7508	333.3712	402.5635	473.3324	496.1633	628.7701	692.3799	732.1674	785.9944	829.5535	854.0757	874.1489	897.4068	911.4703	938.9223	963.8784	995.2554	1010.6609	1054.8616	1076.4051	1120.0966	1129.5482	1158.6258	1161.7518	1181.9409	1209.6378	1211.4255	1234.375	1251.8216	1289.1802	1306.3963	1322.6907	1411.8583	1472.9173	1483.2668	1485.9436	1529.9517	1732.5336	3012.8253	3038.3885	3048.1533	3061.3788	3064.3348	3074.2531	3104.3523	3128.4967	3159.8285	3196.1065
C1OC11CC=C2CCC12	C1O[C@]21C[CH][C]1CC[C@@H]21	
InChI=1S/C8H10O/c1-2-7-6(1)3-4-8(7)5-9-8/h3,7H,1-2,4-5H2	InChI=1S/C8H10O/c1-2-7-6(1)3-4-8(7)5-9-8/h3,7H,1-2,4-5H2/t7-,8+/m1/s1
