19
gdb 68749	2.39292	1.72886	1.22881	2.3703	75.99	-0.2327	-0.018	0.2147	1069.7566	0.157391	-423.04605	-423.037082	-423.036137	-423.079387	33.732	
C	-0.0828412289	 1.4951120721	-0.1104524999	-0.463778
C	 0.0483952301	 0.0054312087	 0.0155242074	 0.407703
C	 1.3290429886	-0.7330781801	-0.1955432818	-0.388675
C	 0.6591022753	-0.7316878079	 1.1947770296	 0.124175
C	 1.3446408862	-0.1384993357	 2.3985114751	-0.482087
C	-0.2411735769	-1.9050275573	 1.4003031683	 0.343611
O	-0.2369974725	-2.6712241218	 2.3315374321	-0.324411
C	-1.24371711	-1.9128935542	 0.23867125	-0.207853
O	-1.1196841203	-0.6671941716	-0.4269343717	-0.300961
H	 0.8283835316	 1.9970602763	 0.2242024712	 0.122554
H	-0.259411125	 1.7691638441	-1.1554455651	 0.136618
H	-0.9251442718	 1.8604528485	 0.4845202821	 0.130343
H	 1.3277370503	-1.6421410275	-0.7877076868	 0.124335
H	 2.2465976823	-0.1566997668	-0.2539376041	 0.124014
H	 1.983401368	 0.7047696458	 2.1217231856	 0.115695
H	 0.6169139851	 0.2123621963	 3.1370434198	 0.13021
H	 1.9679940885	-0.8949494153	 2.8851225313	 0.141858
H	-1.0361845398	-2.7564378351	-0.4359293367	 0.127009
H	-2.2636605508	-2.0300300284	 0.6189640036	 0.13964
105.3642	130.5024	160.8282	189.2358	207.3535	258.1711	330.5228	370.9003	454.2548	475.2419	542.8543	598.8736	636.951	684.3885	704.9082	823.6217	876.116	929.2173	950.5898	965.4926	1014.8228	1034.3351	1092.4915	1096.6796	1100.7684	1114.2173	1175.71	1203.6397	1211.9664	1333.5405	1354.9142	1388.4408	1415.8782	1428.679	1474.2302	1479.3285	1485.3092	1491.503	1493.0041	1506.1168	1835.2707	3004.1607	3038.6424	3043.0058	3075.6906	3105.4968	3109.2888	3113.3913	3125.6642	3128.3357	3216.6468
CC12CC1(C)C(=O)CO2	C[C@@]12C[C@]1(C)C(=O)CO2	
InChI=1S/C7H10O2/c1-6-4-7(6,2)9-3-5(6)8/h3-4H2,1-2H3	InChI=1S/C7H10O2/c1-6-4-7(6,2)9-3-5(6)8/h3-4H2,1-2H3/t6-,7-/m1/s1
