21
gdb 39960	4.57759	0.97277	0.94414	1.8675	82.79	-0.2421	0.0725	0.3146	1327.1249	0.182529	-387.040169	-387.031746	-387.030802	-387.07416	32.374	
C	 0.6557937345	 1.4868344294	-0.0358027455	-0.331512
C	 1.4098295005	 0.1748217681	-0.071465502	-0.316931
C	-0.0897553804	 0.1892394621	-0.0003564965	 0.391597
C	-0.9382561385	-0.3999971149	 1.1346028741	-0.378095
C	-1.6973120741	-1.2450105577	 0.0759756252	 0.317654
C	-1.5683384427	-2.7828784314	 0.069971096	-0.122157
O	-2.9981826693	-2.9525442927	 0.1377970157	-0.275247
C	-3.2077202643	-1.525818587	 0.1476207012	-0.139739
C	-1.0418424524	-0.4001526894	-1.049848336	-0.378096
H	 0.7007261288	 2.0769559267	 0.8744077267	 0.11104
H	 0.6143901962	 2.0768262234	-0.9462646268	 0.11104
H	 1.8762543652	-0.1204026747	-1.006366116	 0.111186
H	 1.962630118	-0.1202728885	 0.8151456894	 0.111186
H	-0.4113032693	-0.9604954619	 1.9133702703	 0.100855
H	-1.5863336683	 0.3407435684	 1.6168928698	 0.099507
H	-1.1455878816	-3.2194656899	-0.8450889564	 0.096883
H	-1.060879558	-3.2193364969	 0.9409768354	 0.096883
H	-3.7075663542	-1.1890214998	 1.0662378831	 0.096793
H	-3.7922500196	-1.1891621266	-0.719629855	 0.096792
H	-1.7326545943	 0.34052378	-1.4687538957	 0.099507
H	-0.5909427163	-0.9607651967	-1.8749055671	 0.100855
37.1424	59.6578	216.4108	246.9246	305.1231	324.8309	381.2591	403.1464	415.3546	636.0993	774.831	812.6714	821.3033	856.6717	879.1342	884.1306	909.7485	913.1413	930.1966	980.9076	1000.4839	1008.2851	1039.1456	1051.1666	1076.1434	1098.0619	1149.6039	1150.1128	1158.5637	1175.5305	1187.3317	1199.3735	1239.2476	1257.4724	1264.3365	1298.7467	1309.9478	1374.7417	1393.1805	1464.0985	1470.1357	1488.9213	1504.7622	1506.6945	1532.2131	2988.4129	3000.9909	3027.1924	3033.6916	3035.7198	3037.9974	3081.6284	3082.0455	3118.0199	3122.1161	3195.5997	3210.6799
C1CC11CC2(COC2)C1	C1CC21CC1(COC1)C2	
InChI=1S/C8H12O/c1-2-7(1)3-8(4-7)5-9-6-8/h1-6H2	InChI=1S/C8H12O/c1-2-7(1)3-8(4-7)5-9-6-8/h1-6H2
