16
gdb 14866	2.51452	2.16752	1.2877	2.2218	61.18	-0.2486	-0.0367	0.2119	937.192	0.128232	-420.844783	-420.836505	-420.835561	-420.878063	28.536	
C	-0.6492043376	 1.0933671619	-0.3705469901	-0.259573
O	 0.3506529577	 0.1692465878	 0.0384871763	-0.235868
C	 0.9015921069	-0.5613332508	-1.0097901019	 0.080571
C	 2.0660027758	-1.4674519023	-0.5821363343	-0.105172
O	 1.4083841455	-2.6436260462	-1.10642857	-0.28627
C	 0.2137202889	-1.910483839	-1.4246993612	-0.006458
C	-0.9639361964	-2.3222371996	-0.5619970505	 0.142012
O	-2.075198996	-1.8779764324	-0.696062014	-0.241861
H	-0.2437174304	 1.8127573209	-1.0973483298	 0.108616
H	-1.5128395346	 0.5815848047	-0.810208653	 0.143375
H	-0.9659711348	 1.6318124613	 0.5247355971	 0.134263
H	 1.1167582458	 0.0810454222	-1.8739427561	 0.085363
H	 3.0332617174	-1.2886559047	-1.0621552286	 0.113612
H	 2.191059288	-1.5097421642	 0.5061310571	 0.120715
H	-0.0627971587	-1.9975461631	-2.482758166	 0.108524
H	-0.7095944573	-3.0774201467	 0.2143215248	 0.098152
78.1524	98.8718	147.6727	169.4545	207.329	274.8093	307.7099	423.3378	486.3585	573.5084	753.4068	821.5542	909.9003	965.3296	990.374	1036.8461	1055.3942	1076.4243	1114.8464	1160.1166	1170.8782	1188.6589	1212.8322	1253.1657	1268.0469	1311.5155	1340.3235	1384.2512	1405.0589	1483.0733	1493.0262	1512.6824	1516.8198	1824.6225	2896.6537	2994.981	3012.9842	3031.6547	3040.1977	3073.3968	3088.9159	3132.1827
COC1COC1C=O	CO[C@H]1CO[C@H]1C=O	
InChI=1S/C5H8O3/c1-7-5-3-8-4(5)2-6/h2,4-5H,3H2,1H3	InChI=1S/C5H8O3/c1-7-5-3-8-4(5)2-6/h2,4-5H,3H2,1H3/t4-,5-/m0/s1
