23
gdb 93742	2.62703	1.26218	0.8932	1.2703	89.91	-0.2238	0.0315	0.2554	1385.0635	0.204651	-388.31847	-388.308455	-388.307511	-388.353016	37.499	
C	-0.507845689	 1.3296304234	 0.1372228763	-0.402667
C	-0.1761548037	-0.1496291583	 0.0153229778	 0.128539
C	 0.6414182697	-0.4899349497	-1.2316056863	-0.282216
C	 1.2154392333	-1.8911086643	-1.1803724598	 0.197867
C	 1.7129311586	-2.408271781	-2.5041514825	-0.483971
C	 1.2560053964	-2.5574155274	-0.0195297728	 0.190414
C	 1.7477673278	-3.9656026465	 0.186123705	-0.485911
C	 0.7728198662	-1.9056848967	 1.2588327226	-0.146244
O	 0.5573195236	-0.5157016654	 1.1768300367	-0.257988
H	 0.4116660643	 1.9197279254	 0.2035379828	 0.122609
H	-1.0775538772	 1.6702482278	-0.7328125477	 0.111464
H	-1.0997469285	 1.5163991053	 1.0372721841	 0.120311
H	-1.1141236966	-0.7328537856	-0.0132043654	 0.059461
H	 0.0072753948	-0.3858122424	-2.1230833141	 0.094707
H	 1.4529682402	 0.2434058044	-1.3516083887	 0.103889
H	 2.4288636438	-1.7009894629	-2.9431875584	 0.122786
H	 2.2080418759	-3.3779066573	-2.4366373637	 0.119864
H	 0.8892055169	-2.497785018	-3.2248129058	 0.120894
H	 2.6701772004	-3.9799775504	 0.7819065672	 0.124891
H	 1.0087204219	-4.5515453663	 0.7484930294	 0.122227
H	 1.9431784861	-4.4957777518	-0.7465573041	 0.124215
H	-0.1474668008	-2.419398328	 1.6005854293	 0.086706
H	 1.5187527557	-2.0505347043	 2.0512053081	 0.108152
98.4295	111.5982	142.6622	149.368	215.9234	237.0824	267.149	316.53	333.8251	372.623	431.232	473.0674	488.7951	538.4554	671.232	714.0389	840.0876	889.7476	912.0768	952.4101	968.5948	997.7078	1039.6553	1061.632	1083.4753	1117.0798	1139.8484	1162.5972	1165.7397	1168.3562	1241.6742	1257.7445	1281.1847	1334.5593	1380.4268	1392.1776	1403.6812	1411.0982	1412.5456	1422.0956	1469.7384	1478.6042	1481.4687	1483.9444	1487.1439	1490.2652	1500.1255	1501.615	1753.4842	2908.5181	2939.1466	2995.0112	3013.0986	3015.9021	3029.9173	3033.5181	3040.7979	3054.2587	3055.2984	3113.9395	3119.8567	3127.0442	3140.6816
CC1CC(C)=C(C)CO1	C[C@H]1CC(=C(C)CO1)C	
InChI=1S/C8H14O/c1-6-4-8(3)9-5-7(6)2/h8H,4-5H2,1-3H3	InChI=1S/C8H14O/c1-6-4-8(3)9-5-7(6)2/h8H,4-5H2,1-3H3/t8-/m0/s1
