19
gdb 47562	2.65141	1.56838	1.07201	4.5741	76.25	-0.2319	0.0268	0.2587	1121.242	0.162436	-419.210956	-419.203156	-419.202212	-419.243411	30.398	
O	 0.0255168511	-0.151261434	 0.0066941811	-0.365529
C	-0.0284287801	 1.0650569366	-0.0372635994	 0.385176
C	-1.3787169728	 1.7826997919	 0.0491036442	-0.264676
N	-1.6125490393	 2.7470237592	-1.0236590933	-0.084576
C	-2.2899964546	 3.990014038	-0.6475813078	-0.265508
C	-0.8406756298	 3.9900112745	-0.9789699321	 0.029256
C	 0.2371167339	 4.1617272016	 0.067753412	-0.244977
C	 1.4189542325	 3.2292834061	-0.2065840344	-0.140028
N	 1.126648956	 1.8031990575	-0.0898331496	-0.300521
H	-2.1312012355	 0.995629342	-0.0233444655	 0.136129
H	-1.4636597534	 2.221932775	 1.0573010349	 0.100129
H	-3.0216637706	 4.3656181515	-1.3574093023	 0.12018
H	-2.5640730482	 4.1188459483	 0.3989290302	 0.109776
H	-0.5445236737	 4.3362740037	-1.9695255263	 0.093078
H	 0.6109722329	 5.191368139	 0.0411247647	 0.111751
H	-0.1490636732	 3.9983887414	 1.07780005	 0.112504
H	 1.8046827282	 3.4451702009	-1.2147231962	 0.111978
H	 2.2289693317	 3.4625512653	 0.4954697388	 0.111165
H	 1.932301345	 1.1947324012	-0.141658809	 0.244691
90.6721	112.7652	226.5148	291.6648	334.2456	367.8521	441.864	490.6881	525.7935	579.0286	646.4838	682.8936	766.8688	806.0453	844.1375	914.5912	944.0004	954.6749	989.4843	1025.9623	1061.9592	1106.3847	1126.5973	1139.1211	1153.7403	1171.0335	1238.1455	1248.4161	1276.5972	1327.6238	1340.0134	1360.4751	1369.5343	1414.8021	1434.9238	1473.8153	1497.9063	1500.188	1515.4206	1531.0887	1775.1069	2960.0235	2985.3235	3034.5349	3052.4627	3087.2587	3091.2468	3105.4915	3112.7266	3180.8134	3591.9923
O=C1CN2CC2CCN1	O=C1CN2C[C@H]2CCN1	
InChI=1S/C6H10N2O/c9-6-4-8-3-5(8)1-2-7-6/h5H,1-4H2,(H,7,9)	InChI=1S/C6H10N2O/c9-6-4-8-3-5(8)1-2-7-6/h5H,1-4H2,(H,7,9)/t5-,8?/m1/s1
