18
gdb 130116	5.59286	0.92761	0.85024	2.3068	80.78	-0.195	0.0324	0.2275	1370.7993	0.150189	-398.138401	-398.130048	-398.129104	-398.17167	31.915	
N	-0.061103811	 1.3841033175	 0.1505023272	-0.590445
C	 0.0486654336	-0.0041310445	 0.0471568686	 0.379165
N	-1.0349584281	-0.7712928347	 0.0180115375	-0.310938
N	-0.537423251	-2.0402858298	 0.0001040375	-0.294985
C	 0.8182310798	-2.0880825568	 0.0008886731	 0.439945
C	 1.2405177528	-0.771971323	 0.033655246	-0.406604
C	 1.6034719693	-3.334987766	-0.0221104417	-0.086228
C	 1.1359848181	-4.5827683364	 0.7022810824	-0.270945
C	 1.1413365256	-4.5527697943	-0.7996354827	-0.272029
H	 0.6177175955	 1.8784551811	-0.4128036606	 0.242361
H	-0.997650109	 1.6950102779	-0.075453858	 0.246808
H	-1.1861503794	-2.8064012296	-0.0218356325	 0.264083
H	 2.2596237467	-0.4209699562	 0.0605251453	 0.091454
H	 2.672592085	-3.1552597904	-0.0145884729	 0.095872
H	 1.8824399933	-5.1812614347	 1.2122876666	 0.121625
H	 0.1828518145	-4.5330496506	 1.2181112631	 0.115335
H	 0.1917224436	-4.4829948934	-1.3197062022	 0.114353
H	 1.8914531307	-5.1306796262	-1.3277634867	 0.121175
47.152	146.4092	162.8253	257.1638	301.2629	322.1477	334.256	459.5003	477.2533	596.8008	675.84	697.2518	735.961	758.0918	789.3913	795.7891	820.3948	908.6183	910.516	1000.5333	1027.9654	1059.2539	1073.8901	1075.0678	1100.6891	1129.0929	1167.8728	1201.541	1208.0059	1225.6132	1330.7612	1355.1899	1461.7706	1475.4009	1499.4942	1516.317	1544.4849	1620.3446	1648.8289	3132.1604	3136.7319	3172.5258	3210.6282	3227.2294	3258.5396	3540.4056	3635.6972	3692.57
NC1=NNC(=C1)C1CC1	Nc1n[nH]c(c1)C1CC1	
InChI=1S/C6H9N3/c7-6-3-5(8-9-6)4-1-2-4/h3-4H,1-2H2,(H3,7,8,9)	InChI=1S/C6H9N3/c7-6-3-5(8-9-6)4-1-2-4/h3-4H,1-2H2,(H3,7,8,9)
