16
gdb 11055	3.55185	2.46078	2.08293	1.3956	63.82	-0.2426	0.0028	0.2454	727.0773	0.13132	-383.737311	-383.73094	-383.729996	-383.767312	25.906	
C	 0.0703944253	 1.489742201	 0.0132404633	-0.492436
C	-0.040431357	-0.0070750315	 0.0421807811	 0.450246
O	 0.6271656623	-0.5888521773	-1.1201796312	-0.305806
C	 0.9647326164	-1.912666982	-0.7065780102	-0.081058
C	 0.3553948632	-1.9604842027	 0.7330103117	-0.035733
O	 0.6442049707	-0.60885878	 1.1245287297	-0.25844
C	-1.1545055683	-1.9258416361	 0.5420751866	-0.097998
C	-1.409104771	-0.6924704287	 0.1047529928	-0.105079
H	 1.1224119007	 1.7824912585	 0.0113234655	 0.139121
H	-0.4052620389	 1.8795947443	-0.8900521658	 0.133373
H	-0.4235873562	 1.9201894114	 0.8876565789	 0.132683
H	 0.5329318203	-2.6564977605	-1.3844144539	 0.101625
H	 2.0537771188	-2.0251583769	-0.6745361288	 0.108717
H	 0.7868986867	-2.6814153415	 1.4240686639	 0.090563
H	-1.8171975681	-2.7771763184	 0.6132602951	 0.109296
H	-2.3335308052	-0.2710224396	-0.2651353986	 0.110925
186.3582	257.5397	303.0995	331.8849	420.7103	513.9336	632.0827	646.5692	721.1238	730.1062	782.8053	845.3208	855.1027	870.8599	897.1123	908.8828	931.0672	1001.8272	1014.8522	1048.4839	1098.3582	1118.8068	1175.1635	1191.9816	1247.8482	1285.3272	1321.6381	1346.9933	1351.0599	1425.5142	1481.3954	1485.7289	1510.2781	1638.6374	3034.1261	3058.2758	3082.9348	3135.3624	3142.339	3148.7138	3218.6081	3244.2109
CC12OCC(O1)C=C2	C[C@@]12OC[C@@H](O1)C=C2	
InChI=1S/C6H8O2/c1-6-3-2-5(8-6)4-7-6/h2-3,5H,4H2,1H3	InChI=1S/C6H8O2/c1-6-3-2-5(8-6)4-7-6/h2-3,5H,4H2,1H3/t5-,6+/m0/s1
