16
gdb 16146	4.11516	1.69874	1.43094	2.6652	65.35	-0.2563	-0.0351	0.2212	888.0358	0.130834	-383.751229	-383.74424	-383.743295	-383.782463	26.393	
O	-0.6386820708	 0.7745105496	 0.5557203222	-0.258975
C	 0.3326197799	 0.8800039103	-0.1512461359	 0.087976
C	 1.3903798729	 1.9052866757	 0.0387907327	 0.31674
C	 1.4739448669	 2.7757561476	 1.2744965975	-0.289426
C	 2.4889445245	 3.877671107	 0.8859735731	-0.223016
C	 2.3709238242	 4.0268901377	-0.6497604636	-0.240551
C	 1.942008447	 2.6511231521	-1.1227191536	 0.002346
O	 2.6669736208	 1.5721148051	-0.5465536724	-0.288493
H	 0.5166707655	 0.2078709278	-1.0181258391	 0.085063
H	 0.4759658891	 3.18136112	 1.4716729909	 0.126143
H	 1.7771088555	 2.213877315	 2.1620928503	 0.119121
H	 2.3068345907	 4.8175396857	 1.4114560024	 0.106269
H	 3.4982204924	 3.5483389366	 1.1415529097	 0.123998
H	 1.5912168181	 4.7460300728	-0.9285756002	 0.11252
H	 3.3036635383	 4.3559085046	-1.1179735725	 0.117317
H	 1.594216165	 2.4877201324	-2.1406480016	 0.102969
107.217	185.4105	211.8573	253.727	369.7216	429.9573	481.5433	633.7714	654.8876	739.7513	811.4179	851.1104	884.1945	891.5603	941.4476	965.0368	1004.7791	1037.0676	1053.6315	1118.274	1164.8811	1203.6186	1246.1954	1263.3845	1278.8418	1323.013	1339.3779	1349.1474	1392.4754	1437.3695	1478.2131	1484.6535	1500.8119	1817.3104	2897.3779	3040.6769	3058.3399	3075.2778	3088.5609	3100.0677	3123.9532	3139.7638
O=CC12CCCC1O2	O=C[C@]12CCC[C@H]1O2	
InChI=1S/C6H8O2/c7-4-6-3-1-2-5(6)8-6/h4-5H,1-3H2	InChI=1S/C6H8O2/c7-4-6-3-1-2-5(6)8-6/h4-5H,1-3H2/t5-,6-/m1/s1
