15
gdb 77057	3.23202	1.03353	0.84823	5.4071	66.1	-0.269	-0.0173	0.2517	1294.2293	0.112577	-453.973299	-453.964504	-453.96356	-454.007868	30.583	
N	 0.1184697802	 1.483324515	 0.2009870684	-0.515966
C	 0.0473291922	 0.0546219786	 0.0285177553	-0.187778
C	-1.336148923	-0.6543935761	 0.1076010536	 0.123932
C	-2.5537455569	 0.2640254795	 0.1054784444	-0.346009
C	-3.8156025478	-0.4717460688	 0.0892115447	 0.263542
N	-4.810119112	-1.0590787753	 0.0893288113	-0.292585
O	-1.0959766793	-1.2685712415	-1.1976440251	-0.246562
C	 0.0833479536	-0.5811440799	-1.3790496209	 0.424234
O	 0.7677876233	-0.5443587956	-2.3480787077	-0.312141
H	 1.0388769874	 1.7713876007	 0.5079676092	 0.254945
H	-0.0766516581	 1.9795085755	-0.6616581644	 0.251246
H	 0.7693051332	-0.4347506348	 0.6868217399	 0.132068
H	-1.4282853204	-1.430714709	 0.8698135312	 0.120692
H	-2.5103805222	 0.8984530095	 0.9977142857	 0.174711
H	-2.5180627001	 0.9328206123	-0.7608916956	 0.15567
51.329	97.4639	123.8619	133.5183	220.0142	242.8975	369.7737	387.3437	453.2886	529.7689	568.3573	702.3378	761.1299	799.4171	842.371	862.7395	940.414	959.8141	993.9061	1080.7125	1122.6649	1179.126	1186.355	1222.3598	1229.4154	1286.63	1337.7665	1401.0523	1422.7903	1444.7198	1675.5913	1940.0783	2368.8423	3054.1613	3087.1471	3093.8147	3106.3719	3527.2248	3608.8604
NC1C(CC#N)OC1=O	N[C@H]1[C@@H](CC#N)OC1=O	
InChI=1S/C5H6N2O2/c6-2-1-3-4(7)5(8)9-3/h3-4H,1,7H2	InChI=1S/C5H6N2O2/c6-2-1-3-4(7)5(8)9-3/h3-4H,1,7H2/t3-,4+/m1/s1
