17
gdb 87959	3.24648	1.25297	1.03605	3.4896	71.13	-0.2132	0.0429	0.2562	1158.468	0.136653	-455.147487	-455.13921	-455.138266	-455.18041	31.81	
N	-0.1842717882	 1.2624706758	-0.160788041	-0.579544
C	-0.1590934889	-0.097629687	-0.0701727048	 0.475888
N	-1.1394159051	-0.8663490555	 0.2237973575	-0.408297
C	-0.6320425519	-2.2126739669	 0.075219913	 0.279736
C	-1.2171874724	-3.3205747481	 0.9228667282	-0.383278
C	-1.5822183165	-3.202968308	-0.5440494306	 0.089176
O	-2.841220191	-2.75372725	-0.9256212587	-0.435706
C	 0.8552848142	-2.0804174148	-0.2607392921	-0.177057
O	 1.0428695886	-0.6500252307	-0.3779488319	-0.255933
H	 0.7023050142	 1.7266161285	-0.0428552011	 0.267597
H	-0.9682699115	 1.7015546495	 0.2944906553	 0.272103
H	-0.5621306519	-4.1314682529	 1.2296271481	 0.105105
H	-1.9729372899	-3.0322448049	 1.6454289363	 0.123391
H	-1.182736297	-3.9506408419	-1.2264679314	 0.092402
H	-2.8531673737	-1.805835776	-0.7253495776	 0.292038
H	 1.5133834117	-2.4479915547	 0.5340732749	 0.118712
H	 1.1438480191	-2.5436321225	-1.2092792544	 0.123668
64.9221	156.8774	198.3973	232.9262	321.3633	382.3462	401.0416	443.9087	458.204	493.1253	522.7227	605.0853	722.3175	732.6585	809.3121	828.7793	875.5884	922.465	945.6679	1005.3399	1029.2343	1040.0262	1085.0892	1096.1953	1141.9221	1164.7073	1208.7259	1233.3244	1291.9897	1339.4609	1384.5169	1428.6913	1438.4403	1484.6454	1523.3205	1618.5947	1745.4799	3036.7636	3083.6021	3116.9751	3125.6814	3218.3282	3598.5028	3712.7242	3713.8892
NC1=NC2(CC2O)CO1	NC1=N[C@]2(C[C@H]2O)CO1	
InChI=1S/C5H8N2O2/c6-4-7-5(2-9-4)1-3(5)8/h3,8H,1-2H2,(H2,6,7)	InChI=1S/C5H8N2O2/c6-4-7-5(2-9-4)1-3(5)8/h3,8H,1-2H2,(H2,6,7)/t3-,5-/m1/s1
