17
gdb 87541	2.78279	1.50359	1.15868	3.5716	75.08	-0.2497	-0.0103	0.2394	1088.3909	0.135081	-417.941758	-417.933659	-417.932715	-417.974398	30.631	
C	-0.0116686612	 1.5686559045	-0.0546783321	-0.419742
C	-0.0842430041	 0.0714048589	 0.0831414073	-0.026325
O	 1.1406045533	-0.662550459	-0.0989288771	-0.287924
C	 0.5605022688	-0.65071504	 1.18616025	 0.410452
C	 1.2766987614	-0.182120285	 2.441841462	-0.141044
C	 0.3354004256	-0.1930772051	 3.5736890334	-0.251633
N	 0.9268039757	-1.4960163892	 3.154058096	-0.179615
C	 0.2011938693	-1.9027529899	 1.9482730845	 0.280918
N	-0.3904010311	-2.9655074294	 1.6459298327	-0.525048
H	 0.8583602861	 1.970490883	 0.4709518935	 0.128445
H	 0.0623115562	 1.8525313012	-1.1092818329	 0.138213
H	-0.9149049943	 2.0324915159	 0.3556839857	 0.127876
H	-0.9449645949	-0.4145711368	-0.3776675454	 0.114378
H	 2.2826153859	 0.2158853091	 2.4812145751	 0.127261
H	 0.6927666048	 0.1274345161	 4.5472065728	 0.139388
H	-0.7235555826	-0.021409139	 3.3961797306	 0.130959
H	-0.368265099	-3.6264220652	 2.4270712339	 0.233441
108.7825	142.2988	177.8396	189.6438	270.2981	292.2846	431.7493	448.9019	536.8706	598.9586	678.8803	707.4124	781.584	812.4097	834.594	885.8199	945.3542	953.7802	976.6172	1020.3357	1028.5743	1046.0806	1117.2523	1126.2888	1134.4647	1138.4174	1180.7693	1228.1407	1269.6787	1301.4605	1363.275	1411.7843	1473.6939	1488.5417	1501.6678	1520.9749	1816.2239	3039.562	3105.3905	3107.4407	3111.9798	3128.8981	3200.415	3209.5439	3448.8118
CC1OC11C2CN2C1=N	C[C@H]1O[C@]21[C@H]1CN1[C]2[NH]	
InChI=1S/C6H8N2O/c1-3-6(9-3)4-2-8(4)5(6)7/h3-4,7H,2H2,1H3	InChI=1S/C6H8N2O/c1-3-6(9-3)4-2-8(4)5(6)7/h3-4,7H,2H2,1H3/t3-,4-,6-,8?/m1/s1
