18
gdb 117804	2.26978	1.17655	1.0393	1.9469	68.25	-0.2701	0.0133	0.2834	1255.6204	0.144874	-476.209494	-476.19911	-476.198166	-476.245339	36.267	
C	-0.1548365355	 0.9508845905	-0.8583460404	-0.249975
O	-1.3002646919	 0.2374200625	-0.4194282398	-0.242223
C	-1.0929344826	-0.6003673928	 0.6924876179	-0.112689
C	-1.125519739	-2.0864404231	 0.2886070184	 0.184777
O	-0.9381953989	-2.8426670931	 1.4634045146	-0.446902
C	-2.4715759099	-2.470837195	-0.3642446178	-0.104622
O	-2.5440053891	-3.8788524125	-0.5213306953	-0.429658
C	-0.0445102675	-2.3915261506	-0.6881620851	 0.258603
N	 0.7685208477	-2.6744906129	-1.4602301937	-0.350964
H	-0.4730210637	 1.5637436736	-1.7045416397	 0.134398
H	 0.2302374343	 1.6102144046	-0.0676228114	 0.114308
H	 0.6479598215	 0.2797361797	-1.187274049	 0.137932
H	-0.1463091641	-0.3910273226	 1.2051288361	 0.121475
H	-1.9067430042	-0.4478788808	 1.4116609936	 0.120816
H	-1.2937696081	-3.722732516	 1.2682223281	 0.298544
H	-3.270456871	-2.1965704742	 0.3310986226	 0.12832
H	-2.6138068543	-1.928125715	-1.3039038302	 0.132993
H	-1.996210894	-4.1267620323	-1.2756163391	 0.304867
62.1532	83.0821	110.3826	127.2003	178.0775	186.5325	238.8331	272.5223	362.1862	378.1276	394.4815	459.4587	479.7691	556.2757	607.1079	665.6396	720.4689	884.4847	948.9056	969.3621	1065.1625	1087.4695	1107.7871	1133.3509	1178.5332	1189.9001	1222.9373	1246.3477	1311.1569	1363.0431	1386.7825	1403.3552	1414.6961	1481.1009	1490.5969	1491.6521	1504.0804	1510.1247	2342.1463	2998.5836	3024.2379	3052.6059	3065.8082	3074.4202	3111.0165	3125.9654	3727.8988	3796.6197
COCC(O)(CO)C#N	COC[C@@](O)(CO)C#N	
InChI=1S/C5H9NO3/c1-9-4-5(8,2-6)3-7/h7-8H,3-4H2,1H3	InChI=1S/C5H9NO3/c1-9-4-5(8,2-6)3-7/h7-8H,3-4H2,1H3/t5-/m0/s1
