22
gdb 120296	3.37117	0.90918	0.83107	0.3149	82.57	-0.2222	0.0773	0.2995	1485.6892	0.193584	-404.301367	-404.291674	-404.29073	-404.336122	36.142	
C	-0.0877219489	 1.4413203898	 0.1322401902	-0.488196
C	-0.0391421024	-0.0506136893	-0.0243374061	 0.327706
C	-0.8998599124	-0.8353382722	-1.0205767204	-0.308365
C	-1.1616537261	-1.8347448956	 0.1301236535	-0.152099
N	-0.3681554588	-1.0187835154	 1.117249727	-0.194761
C	 1.0133104624	-0.9003692413	 0.5749881907	-0.03548
C	 1.7786701995	-2.0173906855	-0.0985533028	-0.226728
C	 2.2239657242	-3.0889031643	 0.893161043	-0.062026
O	 2.9756838598	-4.0551598766	 0.1743468776	-0.42301
H	 0.4256787425	 1.9363092536	-0.7011908521	 0.120129
H	-1.1213993515	 1.8039908843	 0.1514389067	 0.119638
H	 0.3981459735	 1.7531127512	 1.0614122878	 0.126744
H	-1.7982063086	-0.2883746272	-1.3151578287	 0.106422
H	-0.4037906161	-1.1990185445	-1.9254834223	 0.102244
H	-2.204368985	-1.8682790885	 0.4518034618	 0.108373
H	-0.8069592964	-2.8618333732	-0.000196128	 0.103824
H	 1.6219787348	-0.3656301413	 1.3046413801	 0.087036
H	 1.2041853744	-2.4972123899	-0.8951180875	 0.110052
H	 2.6717226471	-1.5953369255	-0.5755723166	 0.108686
H	 2.8256792541	-2.6264589695	 1.6924971387	 0.08599
H	 1.3421194206	-3.5404454925	 1.3737762168	 0.098034
H	 3.2475974332	-4.7424868267	 0.7892532607	 0.285787
69.2241	96.6773	120.3485	177.6192	222.3311	265.8969	278.1428	303.2082	327.2776	384.9888	475.6174	588.5742	619.1565	708.5398	786.0256	787.7063	810.4047	878.5558	948.9046	959.9843	972.4272	1010.9214	1024.062	1072.3355	1081.4857	1112.606	1123.5927	1150.4136	1179.8526	1218.3344	1225.1393	1236.889	1246.6732	1281.5165	1310.5542	1321.1282	1329.7734	1343.9527	1412.7823	1459.2671	1469.1761	1480.9196	1483.6925	1492.6524	1499.5342	1519.6218	1526.622	2967.0828	2996.3484	3024.1901	3041.7439	3050.1187	3056.8606	3084.5059	3092.9121	3098.1205	3106.406	3111.3765	3117.1889	3831.4983
CC12CCN1C2CCO	C[C@]12CCN1[C@H]2CCO	
InChI=1S/C7H13NO/c1-7-3-4-8(7)6(7)2-5-9/h6,9H,2-5H2,1H3	InChI=1S/C7H13NO/c1-7-3-4-8(7)6(7)2-5-9/h6,9H,2-5H2,1H3/t6-,7+,8?/m0/s1
