16
gdb 68525	2.97054	1.79826	1.46734	2.7829	69.61	-0.2611	-0.0236	0.2375	924.9019	0.124905	-437.8937	-437.886632	-437.885687	-437.924822	28.548	
C	-0.0795671774	 1.4787916644	-0.0694395988	-0.497905
C	 0.0558629713	-0.0110563377	 0.0187403645	 0.447221
O	 0.6975990087	-0.6020194979	-1.0861596098	-0.251879
C	 0.4959931964	-1.9608887252	-0.6483270736	-0.107682
C	 1.0384088517	-1.9147774072	 0.7832198606	-0.097009
C	 0.7610685279	-0.6824398294	 1.2049502897	-0.115207
C	-1.0279633769	-1.9173158838	-0.4775730437	 0.452161
N	-1.843853029	-2.8544282613	-0.6848773745	-0.559431
O	-1.29040925	-0.6492781348	-0.0455562507	-0.295095
H	 0.9106295001	 1.9404401119	-0.0504458829	 0.141478
H	-0.5863175824	 1.7509374531	-0.9973720613	 0.14852
H	-0.6611258548	 1.852155082	 0.7767497119	 0.139859
H	 0.8827829421	-2.6919278776	-1.3507827065	 0.115186
H	 1.4378997293	-2.7586527275	 1.3260163182	 0.131478
H	 0.8868129613	-0.2398881945	 2.1825386689	 0.122109
H	-2.7995019381	-2.5553520144	-0.4808103319	 0.226196
153.5645	189.6595	275.7342	295.6904	384.7594	446.5723	501.9742	606.5663	622.5572	671.6622	709.1273	749.7652	772.445	816.4855	858.4855	885.1176	893.1099	902.9882	922.2926	948.832	1015.5769	1030.6265	1096.8858	1119.719	1177.0675	1216.8189	1276.6255	1298.3178	1318.6539	1349.2136	1427.1984	1480.1105	1485.1116	1638.4607	1798.3422	3060.5284	3138.5176	3146.4459	3188.4375	3232.4903	3258.3474	3466.223
CC12OC(C=C1)C(=N)O2	C[C@@]12O[C@@H](C=C1)[C]([NH])O2	
InChI=1S/C6H7NO2/c1-6-3-2-4(8-6)5(7)9-6/h2-4,7H,1H3	InChI=1S/C6H7NO2/c1-6-3-2-4(8-6)5(7)9-6/h2-4,7H,1H3/t4-,6-/m0/s1
