15
gdb 22210	1.99886	1.49604	0.8968	5.6163	76.49	-0.1958	-0.056	0.1398	1220.5867	0.111747	-450.101916	-450.092781	-450.091837	-450.136013	33.286	
N	 0.0397189577	 1.207667535	 0.5600756272	-0.559386
C	-0.0394956482	-0.1056139734	 0.228578394	 0.371953
N	 1.1342172271	-0.7870708012	 0.1493610465	-0.533791
H	 1.9633757259	-0.2731732317	-0.1045371552	 0.261295
H	 1.0274130695	-1.7125251087	-0.2499480817	 0.279363
C	-1.2508160413	-0.7629264174	-0.0243702214	 0.245923
C	-2.6404633195	-0.1849045029	 0.1179428371	-0.462371
C	-2.8266188786	 0.6857687719	 1.2715614099	 0.251285
N	-2.9110526911	 1.4181949116	 2.1641409191	-0.33244
N	-1.1100140409	-2.0460915621	-0.4705776978	-0.078642
O	-2.1425380612	-2.6925198948	-0.7003411502	-0.35328
H	 0.8838176914	 1.5162058476	 1.0180265397	 0.268225
H	-0.7988734476	 1.6662288993	 0.8873018696	 0.29142
H	-2.9516928699	 0.3688458039	-0.778612087	 0.161001
H	-3.3032435832	-1.059836727	 0.1766980303	 0.189447
60.5709	113.3511	147.1416	212.8655	263.7807	286.9259	366.6103	389.5399	427.8683	441.5537	470.2507	480.2732	566.9871	591.3246	674.9205	686.0188	737.6824	791.1268	937.9403	970.6418	1069.3482	1105.5776	1178.6846	1270.7752	1277.1651	1308.0551	1462.2681	1482.4471	1510.8857	1599.5922	1650.4617	1691.1824	2341.1505	3010.8891	3040.9839	3526.6667	3564.5693	3670.29	3672.9803
NC(=[NH2+])C(CC#N)=N[O-]	NC(=[NH2])C(=N[O])CC#N	
InChI=1S/C4H6N4O/c5-2-1-3(8-9)4(6)7/h9H,1H2,(H3,6,7)	InChI=1S/C4H6N4O/c5-2-1-3(8-9)4(6)7/h1,6-7H2
