16
gdb 18227	4.43449	1.5524	1.30622	3.1452	64.67	-0.2473	-0.0238	0.2235	928.0424	0.131021	-383.74372	-383.736714	-383.73577	-383.775442	26.008	
O	 0.0366507973	-0.0748614963	 0.0546808717	-0.250511
C	 0.092135704	 1.1276924264	 0.079652079	 0.151497
C	 1.3693891258	 1.9379449477	 0.0443726587	-0.088742
C	 1.4198328019	 2.8908358595	-1.1868057531	-0.247032
C	 2.225866357	 4.131710326	-0.732095925	-0.244699
C	 1.9926952191	 4.1901472568	 0.7623309634	 0.056079
O	 0.6169506418	 4.0269093225	 1.137052098	-0.257251
C	 1.4902500726	 2.8921005763	 1.2286035063	 0.019004
H	-0.8298243369	 1.7505590224	 0.1291239493	 0.090478
H	 2.2143337462	 1.2412963789	 0.0537897814	 0.09495
H	 1.8533856335	 2.3980852492	-2.0589912781	 0.11674
H	 0.4028636425	 3.1921733939	-1.4523223425	 0.123765
H	 3.2989967812	 4.0030035704	-0.9175014433	 0.110804
H	 1.9092593551	 5.0433087054	-1.247542527	 0.11729
H	 2.5708149811	 4.8547648651	 1.3990283316	 0.1006
H	 1.6594082478	 2.5083570758	 2.2311870297	 0.107028
76.1027	108.9719	230.5418	319.057	369.7702	427.532	471.91	666.4358	691.6411	824.8039	831.3894	868.4235	899.3549	924.1834	948.5185	1000.2085	1011.4357	1041.5483	1084.0496	1110.0838	1132.3662	1185.6665	1219.9912	1255.7354	1276.519	1302.0632	1314.3016	1331.0638	1361.6855	1421.1101	1430.2941	1480.292	1492.9572	1830.7519	2879.4512	3041.7007	3063.032	3068.0901	3091.1103	3121.289	3146.7831	3159.3765
O=CC1CCC2OC12	O=C[C@H]1CC[C@H]2O[C@@H]12	
InChI=1S/C6H8O2/c7-3-4-1-2-5-6(4)8-5/h3-6H,1-2H2	InChI=1S/C6H8O2/c7-3-4-1-2-5-6(4)8-5/h3-6H,1-2H2/t4-,5-,6+/m1/s1
