21
gdb 82515	3.15409	1.38203	1.29244	1.8023	81.55	-0.2478	0.0796	0.3275	1109.6636	0.182725	-387.075669	-387.067223	-387.066279	-387.108209	33.437	
C	-0.3414002514	 1.5036063856	-0.1993530988	-0.4188
C	-0.0000582488	 0.0464290865	 0.0397597318	 0.001362
C	 1.3197622082	-0.6277435342	-0.2493320859	-0.077875
C	 2.6377308768	 0.1564509617	-0.3146496946	-0.304822
C	 2.9357075495	 0.6491676128	 1.1074715076	 0.407874
C	 4.3560560759	 0.8561492322	 1.5591756644	-0.480058
O	 1.9872974264	 1.6244617486	 1.5761376829	-0.292231
C	 1.8057206272	 0.2523883898	 1.9702522696	-0.035074
C	 0.7996569388	-0.551906196	 1.18518166	-0.0825
H	 0.5129602616	 2.1636809006	-0.0723160969	 0.144711
H	-0.7360590195	 1.6227720314	-1.2152368358	 0.103367
H	-1.1198387104	 1.8359914598	 0.496379841	 0.113637
H	-0.8346232302	-0.6041081639	-0.2203555023	 0.082721
H	 1.2882893034	-1.5628981466	-0.7988796692	 0.081154
H	 3.4416296042	-0.5113897028	-0.6424228306	 0.102134
H	 2.6124158653	 0.9953806877	-1.0194225476	 0.112702
H	 4.8502833542	 1.6249308586	 0.9543219132	 0.126197
H	 4.3800439544	 1.1810331119	 2.6024313219	 0.129088
H	 4.9358248563	-0.0681494748	 1.4642720239	 0.11982
H	 1.9159221669	 0.0688821781	 3.0366317156	 0.088092
H	 0.393409571	-1.423459587	 1.6874675697	 0.078501
128.1896	147.9821	182.6565	197.778	280.4592	309.0306	373.2899	400.9105	466.4748	571.9337	630.0845	695.7054	727.0981	738.3024	779.5668	841.9557	863.425	900.7919	928.6943	962.9307	992.2679	1009.8557	1032.6699	1063.7207	1072.4097	1098.4596	1121.0184	1126.1605	1148.5112	1216.6184	1229.571	1247.294	1287.2467	1322.3767	1350.8551	1373.5888	1406.0827	1415.2699	1430.0771	1457.664	1474.9127	1485.9255	1491.3642	1497.4452	1509.3684	3031.8323	3032.1294	3040.6624	3077.4563	3083.1163	3093.7902	3102.4617	3121.6077	3136.5455	3152.5366	3166.9389	3179.8135
CC1C2CC3(C)OC3C12	C[C@H]1[C@H]2C[C@@]3(C)O[C@H]3[C@@H]12	
InChI=1S/C8H12O/c1-4-5-3-8(2)7(9-8)6(4)5/h4-7H,3H2,1-2H3	InChI=1S/C8H12O/c1-4-5-3-8(2)7(9-8)6(4)5/h4-7H,3H2,1-2H3/t4-,5+,6-,7-,8+/m0/s1
