20
gdb 11070	2.45088	2.14738	1.65164	1.223	75.7	-0.2293	0.0731	0.3024	922.2089	0.175732	-348.982434	-348.973733	-348.972789	-349.01473	33.29	
C	-0.0543324406	 1.5712401758	 0.0627353925	-0.510273
C	 0.0713718523	 0.0756085718	 0.0529007065	 0.267728
C	 0.5652531028	-0.7678713305	-1.1277099344	-0.286587
C	 1.2418145607	-1.7583795619	-0.1251260385	-0.284557
C	 0.7397256709	-0.9076354955	 1.0478583825	 0.285365
C	 1.4848213773	-0.6816925731	 2.3313149623	-0.498022
C	-0.7588998223	-0.8204717475	 0.9495036725	 0.01005
O	-1.3697493701	-0.2257951099	 2.0608956191	-0.432559
H	 0.8923880722	 2.0558664365	-0.2016618793	 0.117392
H	-0.8062557468	 1.910740642	-0.6622518927	 0.111953
H	-0.3516744161	 1.9342170404	 1.050758665	 0.123457
H	-0.2122951091	-1.1817877566	-1.7807346014	 0.08828
H	 1.2945565392	-0.2436591136	-1.7510913541	 0.100322
H	 0.8954339929	-2.7980285443	-0.1473453882	 0.091077
H	 2.331492373	-1.7553237302	-0.2114894097	 0.101015
H	 2.4848999541	-0.2735751259	 2.1452671283	 0.108698
H	 0.9434202908	 0.0077944273	 2.9827370592	 0.135781
H	 1.6106027654	-1.6248993871	 2.877918642	 0.116439
H	-1.3273450474	-1.6515318661	 0.5177609771	 0.066403
H	-2.1254483591	 0.2831051983	 1.7491299713	 0.288037
160.2062	179.8676	181.7963	201.2761	255.1843	264.3968	309.3017	317.0224	398.3558	447.6033	541.7283	639.816	671.2837	707.0086	780.5019	853.2093	924.5307	946.8064	982.9531	989.9547	1036.4375	1065.1764	1107.6255	1133.1453	1162.6768	1200.7874	1223.5504	1238.8239	1242.2259	1252.1264	1278.7476	1340.2188	1369.4344	1404.8227	1420.4947	1453.1576	1479.8519	1490.6439	1493.7526	1496.7218	1498.6817	1512.6687	3012.8508	3020.5765	3026.4933	3027.4846	3037.4781	3068.8001	3073.1595	3080.8457	3100.4863	3106.2103	3125.0121	3803.2725
CC12CCC1(C)C2O	C[C@@]12CC[C@]1(C)[C@H]2O	
InChI=1S/C7H12O/c1-6-3-4-7(6,2)5(6)8/h5,8H,3-4H2,1-2H3	InChI=1S/C7H12O/c1-6-3-4-7(6,2)5(6)8/h5,8H,3-4H2,1-2H3/t5-,6-,7+
