15
gdb 15246	3.14851	1.53892	1.38886	3.7536	61.83	-0.2702	0.0183	0.2885	935.0056	0.118304	-399.786527	-399.778267	-399.777323	-399.819483	29.488	
O	 0.063483858	 1.2449044396	-0.4883240394	-0.421786
C	-0.0118226876	 0.0576459272	 0.2779053918	-0.091755
C	-1.3999641959	-0.5584247241	 0.2040968808	-0.074697
C	-1.8514941564	-1.1513514236	-1.0884229278	 0.08717
O	-0.9274601094	-1.0929846153	-2.1265346538	-0.409943
C	-1.5878719467	-2.0775024399	 0.1028701881	-0.251344
C	-0.4600465524	-2.9602826588	 0.0436966733	 0.292859
N	 0.4324505772	-3.6934717821	-0.0318901633	-0.341738
H	-0.0072803386	 0.9755877142	-1.4115203274	 0.297503
H	 0.7441960236	-0.6734098309	-0.0321625741	 0.122401
H	 0.2085341607	 0.3387512092	 1.3120935826	 0.117903
H	-2.1621585589	-0.050269736	 0.7858796629	 0.114644
H	-2.8934720501	-1.0411414052	-1.3846024482	 0.111526
H	-0.9167608508	-1.9312928048	-2.6017653564	 0.308546
H	-2.4562056825	-2.5016353995	 0.5959854008	 0.138711
81.1978	111.0312	127.8562	218.2762	263.6961	307.4028	377.8972	399.1796	463.6131	593.9037	622.2547	667.5648	773.7796	795.5571	872.6823	945.3734	1011.3271	1025.9995	1074.598	1109.8108	1120.1613	1153.6719	1232.1269	1240.5989	1299.3721	1350.3254	1364.4147	1412.6302	1430.168	1445.1715	1501.8798	2349.0926	3035.7955	3089.2976	3117.5324	3164.0609	3173.5278	3802.7198	3804.1205
OCC1C(O)C1C#N	OC[C@H]1[C@@H](O)[C@H]1C#N	
InChI=1S/C5H7NO2/c6-1-3-4(2-7)5(3)8/h3-5,7-8H,2H2	InChI=1S/C5H7NO2/c6-1-3-4(2-7)5(3)8/h3-5,7-8H,2H2/t3-,4+,5-/m0/s1
