16
gdb 55242	3.25148	1.24625	1.03198	6.9981	64.95	-0.2476	0.0114	0.2589	1137.4435	0.126425	-471.284681	-471.276166	-471.275222	-471.318508	31.082	
N	 0.0928265966	 1.1682183387	-0.4238480342	-0.521002
C	 0.055001144	-0.1051452292	 0.0590275202	 0.400609
O	 1.0379273958	-0.6892626007	 0.4668686286	-0.353425
C	-1.3468211537	-0.7537597988	 0.100386326	-0.106812
C	-2.0690983368	-0.8462009808	-1.2725220636	-0.184817
N	-1.6795546508	-2.1717788395	-1.705376018	-0.332019
C	-1.3160597867	-2.9756615513	-0.6325458693	 0.433851
O	-1.0939520589	-4.1615179598	-0.6638605668	-0.397367
N	-1.265843633	-2.1449948055	 0.4949997943	-0.325463
H	 0.9671167782	 1.6665363397	-0.3823627098	 0.269477
H	-0.7381407848	 1.6811555783	-0.6612642717	 0.262181
H	-1.9518883956	-0.170337849	 0.8059169839	 0.108892
H	-3.1551001118	-0.7447210508	-1.1364790696	 0.113551
H	-1.7355551901	-0.0732487834	-1.9715633866	 0.114306
H	-2.117615818	-2.6189434849	-2.4941760779	 0.255349
H	-0.5224653443	-2.3735533128	 1.1424025645	 0.26269
52.2324	86.2492	163.9735	191.2599	259.7789	326.5925	396.6612	463.8275	513.1666	535.1379	571.0959	635.2321	667.0741	732.1425	770.0933	781.6427	846.7353	958.1602	987.4822	1048.074	1085.2079	1094.2955	1156.5842	1226.7857	1250.5518	1277.4181	1306.2854	1368.3233	1392.7256	1417.0749	1444.3129	1529.7035	1619.0761	1803.1604	1861.8364	2997.2016	3025.2002	3070.1646	3594.9004	3600.7731	3652.2973	3733.4695
NC(=O)C1CNC(=O)N1	NC(=O)[C@H]1CNC(=O)N1	
InChI=1S/C4H7N3O2/c5-3(8)2-1-6-4(9)7-2/h2H,1H2,(H2,5,8)(H2,6,7,9)	InChI=1S/C4H7N3O2/c5-3(8)2-1-6-4(9)7-2/h2H,1H2,(H2,5,8)(H2,6,7,9)/t2-/m1/s1
