16
gdb 10092	2.58376	1.67633	1.02972	5.2761	66.73	-0.2541	-0.0327	0.2214	1092.8489	0.129025	-417.08022	-417.071293	-417.070349	-417.114164	30.824	
C	 0.0755687061	 1.3413111789	 0.0166112675	-0.352914
N	 0.0477497488	-0.1062509397	 0.0999095992	-0.292321
C	-1.0535357661	-0.7405634903	 0.1620594268	 0.377193
C	-0.986275043	-2.2563826193	 0.2469060554	-0.106102
O	 0.3415243294	-2.6923220658	 0.2404361502	-0.427084
N	-2.3064857323	-0.1132287865	 0.1556550707	-0.358432
C	-3.5613584346	-0.6854102486	 0.2187602315	 0.161504
O	-3.8041943431	-1.8635539468	 0.291756321	-0.280278
H	 1.1125132082	 1.6804283485	-0.027083284	 0.14172
H	-0.4311978865	 1.7183420452	-0.8850219718	 0.121836
H	-0.3893647431	 1.8199607654	 0.8922330636	 0.121807
H	-1.5121060449	-2.5836478145	 1.1550355977	 0.125344
H	-1.5533387645	-2.6831452287	-0.5925195806	 0.125314
H	 0.8727492452	-1.8798768054	 0.1813777314	 0.288941
H	-2.2938364919	 0.8948596538	 0.0984383814	 0.256832
H	-4.3464353578	 0.0950331739	 0.1931908898	 0.096641
64.9971	116.9012	132.6762	193.0508	226.1641	229.8793	264.2651	303.1442	422.5453	457.4499	582.475	607.092	636.4598	786.0799	835.1806	1019.3542	1031.8408	1068.999	1109.055	1112.558	1137.1444	1186.8865	1255.2625	1270.8206	1325.1925	1432.6807	1445.1735	1469.2236	1480.9215	1489.6419	1509.3474	1520.9288	1740.2888	1828.5068	2948.7271	2974.2279	3008.9888	3024.2017	3026.9287	3113.1701	3608.9544	3638.1675
CN=C(CO)NC=O	CN=C(CO)NC=O	
InChI=1S/C4H8N2O2/c1-5-4(2-7)6-3-8/h3,7H,2H2,1H3,(H,5,6,8)	InChI=1S/C4H8N2O2/c1-5-4(2-7)6-3-8/h3,7H,2H2,1H3,(H,5,6,8)
