19
gdb 61573	3.44507	0.85506	0.74414	3.9034	71.68	-0.2518	0.0142	0.2661	1515.8598	0.160079	-456.347035	-456.337748	-456.336804	-456.382317	33.735	
N	 0.1035551332	 0.8592949887	 0.0772029108	-0.542586
H	-1.3369865473	-0.3603730394	 0.2319969518	 0.306865
H	 1.0922404615	 0.8162119345	 0.2946771087	 0.255785
H	 0.0133058315	 1.3082006298	-0.8300647933	 0.244161
C	-0.6446322489	 1.6011901689	 1.1061554441	-0.132871
C	-0.6842349075	 3.1288889458	 0.9385821215	-0.234449
C	 0.6687062191	 3.7793202495	 1.105935558	 0.024066
C	 0.7948426202	 5.1380568972	 1.6834973157	-0.245886
N	 1.2447849151	 3.9606702523	 2.4513418723	-0.319359
C	-2.0746095933	 1.0236909732	 1.2142917118	 0.441315
O	-2.2130724359	-0.1747007977	 0.6376835246	-0.36877
O	-2.9682573998	 1.5874082998	 1.7889023476	-0.343768
H	-0.1724496678	 1.3691536349	 2.0697068825	 0.127292
H	-1.0946718962	 3.3664231006	-0.0533427909	 0.104672
H	-1.3948462759	 3.527988993	 1.6693544005	 0.13218
H	 1.4159614536	 3.4796765484	 0.3716033269	 0.080072
H	 1.5895046326	 5.801955879	 1.3556412107	 0.121481
H	-0.1171490703	 5.6418490971	 1.9936420176	 0.118139
H	 0.544294936	 3.7339190144	 3.1551917589	 0.23166
52.9823	63.4237	91.8141	140.5488	253.4181	299.3883	324.9457	351.3166	430.3986	440.5791	533.3907	616.3645	723.4725	794.0809	823.1094	848.589	858.8549	880.6237	920.0689	942.8751	974.1996	1026.4345	1060.5223	1110.2575	1128.5857	1133.0143	1167.7544	1220.2482	1228.3681	1249.6456	1269.3926	1284.3193	1311.6161	1356.4308	1397.5714	1428.8852	1429.2856	1475.41	1513.6596	1653.689	1864.4671	3011.0548	3037.289	3085.4291	3108.5808	3111.1014	3195.6963	3470.5966	3478.3433	3502.7022	3591.7657
[NH3+]C(CC1CN1)C([O-])=O	N[C@@H](C[C@H]1CN1)C(=O)O	
InChI=1S/C5H10N2O2/c6-4(5(8)9)1-3-2-7-3/h3-4,7H,1-2,6H2,(H,8,9)	InChI=1S/C5H10N2O2/c6-4(5(8)9)1-3-2-7-3/h3-4,7H,1-2,6H2,(H,8,9)/t3-,4-/m0/s1
