18
gdb 133801	2.93326	0.8978	0.80528	1.9419	61.8	-0.2647	0.0827	0.3474	1440.122	0.141878	-570.594118	-570.584099	-570.583155	-570.629943	34.879	
C	-0.030686278	 1.3912377151	 0.0286824165	-0.232486
O	 0.0041248986	-0.0166870425	 0.0063376375	-0.236849
C	 0.6224435755	-0.5295812901	-1.1512438108	-0.068479
C	 0.5679018557	-2.0588324108	-1.0713776458	-0.143338
C	-0.8703276216	-2.5890699429	-1.065607471	-0.409734
C	 1.3713527461	-2.669948273	-2.2084319168	 0.280677
F	 2.6571916581	-2.2768550188	-2.1775920105	-0.083982
F	 1.3661984866	-4.010506154	-2.1515579019	-0.080946
F	 0.8809951396	-2.3195670581	-3.4120558338	-0.088107
H	 0.9815277109	 1.8242736115	 0.0057443509	 0.108347
H	-0.5975138435	 1.7985564365	-0.8231263018	 0.108004
H	-0.522712694	 1.6903073032	 0.9570324544	 0.130595
H	 0.1029487253	-0.1808269355	-2.0589809811	 0.099294
H	 1.6673277318	-0.1892161003	-1.2166540259	 0.10284
H	 1.0753135727	-2.3623290811	-0.1487069296	 0.114783
H	-1.4247848584	-2.1183739049	-0.2527151973	 0.141691
H	-1.3722879308	-2.3536138447	-2.0092380765	 0.128022
H	-0.8889737546	-3.6724562698	-0.9288547964	 0.129665
61.7589	79.7697	96.4295	144.3474	213.3673	228.1754	246.374	282.8339	331.7154	335.1579	424.8526	484.7021	568.1879	580.3366	666.9671	813.214	914.2158	940.8571	993.6886	1031.2696	1117.5471	1148.5577	1171.4161	1172.5796	1196.0823	1205.8307	1238.7165	1265.1462	1283.7116	1343.3983	1376.2204	1404.6389	1428.2455	1480.9904	1485.4039	1499.6807	1503.6015	1506.8019	1533.0789	2965.6436	2977.2973	3006.8052	3019.3949	3053.0334	3061.5149	3118.4532	3125.8652	3149.335
COCC(C)C(F)(F)F	COC[C@@H](C)C(F)(F)F	
InChI=1S/C5H9F3O/c1-4(3-9-2)5(6,7)8/h4H,3H2,1-2H3	InChI=1S/C5H9F3O/c1-4(3-9-2)5(6,7)8/h4H,3H2,1-2H3/t4-/m1/s1
