16
gdb 43247	3.71134	1.68607	1.39944	3.0513	76.1	-0.2261	-0.0543	0.1718	908.318	0.126736	-400.694065	-400.687792	-400.686848	-400.724512	25.856	
O	-0.07869578	 0.0895858984	 0.4360480006	-0.33929
C	-0.0698014878	 1.2225397242	 0.0167592483	 0.3869
C	-1.2349184854	 2.1180585022	-0.2672013615	-0.271757
C	-0.7739832004	 3.2706028481	-0.7896639945	 0.133533
C	-0.6918093781	 4.6834486306	-0.237005464	-0.21935
N	 0.7880114493	 4.3840950394	-0.0263644296	-0.136393
C	 1.1199706962	 3.3181122565	 0.9921589919	-0.179469
C	 1.1557327442	 2.1508351917	-0.0902525593	-0.169867
C	 0.7121884823	 3.2633752679	-1.0454281346	-0.019818
H	-2.2014587535	 1.9509864628	 0.191928935	 0.115218
H	-0.7690622576	 5.5049605411	-0.9533339554	 0.131741
H	-1.2804023008	 4.9047914662	 0.6570428794	 0.127459
H	 2.1030664224	 3.5212735222	 1.4200748751	 0.133001
H	 0.3918509018	 3.2007302969	 1.8002748345	 0.121285
H	 2.1106123463	 1.6418088756	-0.2050462868	 0.09201
H	 1.1297686611	 3.4281254762	-2.038998389	 0.094796
144.6811	274.2908	346.4479	379.5907	443.9456	570.6907	604.1165	701.663	720.2913	763.3413	780.4585	830.0078	850.8705	887.2487	901.4835	926.9354	966.747	971.6829	1000.627	1019.1334	1081.3484	1140.9815	1167.0842	1173.9423	1181.8744	1210.6357	1237.6275	1251.2174	1265.8611	1299.0978	1305.5848	1482.8297	1494.129	1622.3946	1808.8826	3057.1285	3062.1241	3106.7345	3120.5622	3121.6498	3141.7187	3212.8554
O=C1C=C2CN3CC1C23	O=C1[CH][C]2CN3C[C@@H]1[C@@H]23	
InChI=1S/C7H7NO/c9-6-1-4-2-8-3-5(6)7(4)8/h1,5,7H,2-3H2	InChI=1S/C7H7NO/c9-6-1-4-2-8-3-5(6)7(4)8/h1,5,7H,2-3H2/t5-,7+/m0/s1
