20
gdb 90721	4.18705	1.13334	1.03435	2.4137	79.12	-0.2192	0.0671	0.2864	1220.6785	0.170715	-403.08274	-403.074577	-403.073633	-403.115617	31.835	
C	-0.5435084795	 1.1611708889	-0.2524664693	-0.393907
C	 0.2685749287	-0.1149889935	-0.1293718482	 0.081046
C	 1.6724133225	-0.1436301768	-0.7997672257	-0.2701
C	 2.2282548763	-0.5592820521	 0.5738632339	-0.077539
N	 0.8812755627	-0.3032340547	 1.2370191275	-0.142564
C	 0.8268085653	-1.7220948442	 1.7152118627	-0.276774
C	 2.1225683052	-2.0376811781	 0.9609608358	 0.439176
C	 2.5747605253	-3.2417836521	 0.2607295238	-0.267575
O	 3.1855705477	-2.8065837537	 1.4840683056	-0.267772
H	 0.0530023342	 2.0274772579	 0.0499113834	 0.120693
H	-0.8781946769	 1.3121648206	-1.2851622946	 0.109567
H	-1.4269881511	 1.1203549451	 0.3928217541	 0.119468
H	-0.3500562807	-0.9760619251	-0.4166403343	 0.066873
H	 1.819184563	-0.8465930624	-1.6229606387	 0.102488
H	 2.0125355071	 0.8457430612	-1.1162347134	 0.107699
H	 3.1043009714	-0.0380013636	 0.96983235	 0.089352
H	 0.943456182	-1.7838768047	 2.8022468931	 0.120391
H	-0.075406747	-2.2707380122	 1.4224075506	 0.105636
H	 1.9911889689	-4.1592018456	 0.3304735742	 0.116704
H	 3.1976109048	-3.1532928449	-0.6288779406	 0.117138
53.7911	154.5614	225.6311	262.8594	287.5665	338.4045	361.2953	397.9699	479.097	567.7557	697.4348	763.2436	807.3038	856.4138	866.0592	888.6134	907.2383	935.0212	948.6125	990.552	1015.5414	1033.6726	1074.0747	1107.3802	1125.7495	1135.4335	1160.0374	1175.5904	1190.9244	1204.9151	1223.3245	1258.1129	1279.2894	1292.4745	1322.5689	1376.3569	1407.3496	1434.1963	1479.8795	1483.488	1487.9654	1495.7334	1533.8584	3003.9429	3029.4604	3032.3569	3059.6374	3071.6539	3078.105	3083.4701	3100.1304	3108.6672	3116.0707	3164.5748
CC1CC2N1CC21CO1	C[C@H]1C[C@H]2N1C[C@]12CO1	
InChI=1S/C7H11NO/c1-5-2-6-7(4-9-7)3-8(5)6/h5-6H,2-4H2,1H3	InChI=1S/C7H11NO/c1-5-2-6-7(4-9-7)3-8(5)6/h5-6H,2-4H2,1H3/t5-,6+,7+/m0/s1
