17
gdb 79615	2.33208	1.87742	1.4676	3.5325	72.17	-0.2221	-0.0382	0.1839	955.9663	0.136714	-417.951401	-417.943785	-417.942841	-417.983531	29.346	
C	-0.2000300882	 1.5198024067	 0.0943913331	-0.302521
N	 0.0478044153	 0.0904686503	-0.0713256725	-0.085517
C	 0.5356000323	-0.6332065387	-1.2149755738	-0.033297
C	 1.3721089429	 0.014904149	-2.3211071915	-0.051763
N	 1.6054372323	 1.4582402994	-2.159348598	-0.331125
C	 2.6528369378	 0.4901052108	-1.7371770888	-0.169055
C	 2.6458645309	 0.1124982164	-0.2626673721	 0.427239
O	 3.6016991574	 0.1762139195	 0.4688355184	-0.31453
C	 1.3272589491	-0.5767369615	 0.0743749645	-0.173757
H	 0.6609720163	 2.1653339475	-0.0853591798	 0.13736
H	-0.9942669146	 1.8164854016	-0.5961142837	 0.123589
H	-0.564845656	 1.6689058723	 1.1163748765	 0.116983
H	-0.0435771091	-1.5093415365	-1.4987082142	 0.098128
H	 1.3202615576	-0.4103229855	-3.3174316215	 0.097134
H	 1.8941669659	 1.8563025778	-3.050903589	 0.242784
H	 3.6068970757	 0.4854492651	-2.2521681029	 0.111227
H	 1.3917519844	-1.3653336642	 0.8212323751	 0.107119
104.5058	124.7401	175.1058	295.1854	324.0957	385.2719	440.6425	549.2452	572.1553	675.9673	697.5811	751.2195	798.6713	835.5254	860.9046	889.0672	920.1007	948.3378	1003.3769	1025.754	1070.8547	1100.7263	1124.0075	1148.6075	1151.3846	1177.7395	1194.6958	1244.6816	1286.6399	1333.8918	1356.5098	1393.7986	1405.8654	1463.2111	1487.304	1493.9677	1830.4672	3035.5237	3104.2782	3124.2614	3128.9655	3132.988	3171.5069	3183.3224	3488.0294
CN1C2C3NC3C(=O)C12	CN1[C@H]2[C@H]3N[C@H]3C(=O)[C@@H]12	
InChI=1S/C6H8N2O/c1-8-4-2-3(7-2)6(9)5(4)8/h2-5,7H,1H3	InChI=1S/C6H8N2O/c1-8-4-2-3(7-2)6(9)5(4)8/h2-5,7H,1H3/t2-,3+,4-,5-,8?/m0/s1
