17
gdb 121440	2.11068	1.09432	0.7448	2.6166	74.37	-0.2669	-0.0585	0.2085	1472.2671	0.134304	-455.143401	-455.133465	-455.132521	-455.179397	34.039	
C	-0.0978740368	 1.3997374747	 0.1477715916	-0.240722
O	-0.0889672322	-0.0233372514	-0.0093406881	-0.235528
C	-1.2835691772	-0.6294449941	 0.041241618	 0.352565
N	-2.3797818344	-0.0260118078	 0.2167980033	-0.335918
C	-3.64918872	-0.7343332131	 0.2744270284	-0.184052
C	-4.4686460151	-0.1683437857	 1.4383457864	-0.044194
O	-4.6827741734	 1.2191062752	 1.2983811915	-0.417409
C	-1.1326950164	-2.0651937361	-0.137772051	 0.257837
N	-1.0756091262	-3.2115299714	-0.2723074854	-0.328378
H	 0.9445378684	 1.7053485029	 0.0639181608	 0.146698
H	-0.7029059759	 1.8690854204	-0.632391523	 0.146028
H	-0.5021845246	 1.6765413681	 1.1254177383	 0.141329
H	-4.1893179593	-0.5280406188	-0.6580359968	 0.129657
H	-3.537182311	-1.8227321354	 0.3735242154	 0.120718
H	-5.4528897223	-0.647234154	 1.4580844761	 0.113445
H	-3.9603268117	-0.4082632413	 2.3867001101	 0.089463
H	-3.8184765517	 1.6020166279	 1.1052287444	 0.288461
40.2854	94.3569	119.6554	144.6995	153.7429	197.7755	226.2111	334.6935	350.4685	373.813	433.4888	526.3062	539.834	622.4189	727.0377	757.4129	900.2148	930.2315	1027.8784	1082.121	1096.4486	1116.4674	1177.0988	1215.2041	1225.0758	1270.0172	1302.748	1374.7211	1389.2386	1434.3141	1473.392	1478.4187	1479.3179	1496.7542	1507.5404	1729.9865	2354.9319	2972.3523	3009.9099	3048.3021	3062.597	3080.672	3122.214	3165.2899	3786.9261
COC(=NCCO)C#N	COC(=NCCO)C#N	
InChI=1S/C5H8N2O2/c1-9-5(4-6)7-2-3-8/h8H,2-3H2,1H3	InChI=1S/C5H8N2O2/c1-9-5(4-6)7-2-3-8/h8H,2-3H2,1H3
