17
gdb 57136	3.6612	0.75931	0.64857	5.5216	87.95	-0.2583	-0.0418	0.2164	1666.1211	0.134933	-380.825185	-380.815974	-380.815029	-380.859904	32.895	
C	 0.0370355838	 1.4087472059	 0.031874504	-0.388625
C	-0.0719928704	-0.1242281871	-0.0039380327	-0.188191
C	-1.4700806385	-0.5546934764	 0.0004581832	 0.175213
C	-2.6254111626	-0.9066696586	 0.0213021257	 0.028056
C	-3.931682436	-1.3034176515	 0.0433084212	 0.204943
N	-5.0429145439	-1.6415406888	 0.0651114964	-0.33643
N	 0.5935016617	-0.6389040509	-1.2062267703	-0.057076
C	 2.0262122214	-0.8984468598	-1.0665607352	-0.224355
C	 1.0552570939	-2.0235317928	-1.1473426916	-0.216056
H	 1.0910907683	 1.6974287733	 0.0640321083	 0.128144
H	-0.4164797044	 1.8365000177	-0.8646716499	 0.146959
H	-0.4648551973	 1.8119086242	 0.9145651734	 0.133098
H	 0.3939205248	-0.530672571	 0.9148187826	 0.100644
H	 2.6360125658	-0.6268543301	-1.9225890535	 0.127975
H	 2.4876977137	-0.7096795961	-0.0983919537	 0.115781
H	 0.8691123337	-2.5863764198	-0.2343819209	 0.120482
H	 0.939933206	-2.5926933083	-2.064246507	 0.129436
60.9837	86.9311	122.6466	199.597	230.4743	238.0451	272.0738	345.8743	418.3454	467.4323	536.0841	579.4002	595.1602	721.348	756.3748	830.4292	909.3905	950.8624	1009.5771	1043.0961	1076.2525	1101.0664	1114.8983	1124.7115	1169.0022	1182.0245	1204.0038	1309.1952	1328.0504	1352.3117	1403.757	1486.9265	1492.5316	1494.6158	1519.6779	2265.4528	2402.6542	2908.007	3053.1485	3098.8425	3105.4666	3130.1426	3143.2827	3187.1915	3201.3721
CC(C#CC#N)N1CC1	C[C@@H](C#CC#N)N1CC1	
InChI=1S/C7H8N2/c1-7(3-2-4-8)9-5-6-9/h7H,5-6H2,1H3	InChI=1S/C7H8N2/c1-7(3-2-4-8)9-5-6-9/h7H,5-6H2,1H3/t7-/m0/s1
