17
gdb 99356	6.18505	0.63725	0.60522	5.2865	70.85	-0.2711	0.031	0.3021	1777.6531	0.134938	-455.201939	-455.191737	-455.190792	-455.238853	33.877	
C	-0.4310830039	 1.1161035886	 0.2251022916	-0.235586
O	 0.4176042232	-0.0090157728	-0.0251249988	-0.265984
C	 0.7454438996	-0.7246241361	 1.0752898776	 0.524346
O	 0.3803609086	-0.4721892509	 2.203525	-0.415958
N	 1.5441197366	-1.7747493411	 0.7359473582	-0.366011
C	 2.0670504737	-2.6714792875	 1.74312012	-0.159798
C	 0.9813380173	-3.6304052841	 2.2891225021	-0.331083
C	 1.525537748	-4.566433851	 3.2672404818	 0.256452
N	 1.9849158903	-5.3009449354	 4.0320250854	-0.302389
H	 0.0555164692	 1.8273914046	 0.8970101725	 0.143164
H	-0.6074004943	 1.5733168428	-0.748696744	 0.133862
H	-1.3757082842	 0.7981241124	 0.6733735507	 0.141492
H	 1.7774550718	-1.9026313294	-0.2337560002	 0.261496
H	 2.8853496142	-3.2441115304	 1.3013760751	 0.130869
H	 2.4721896654	-2.0894883846	 2.5755194835	 0.153898
H	 0.1928419085	-3.0317062791	 2.7545813792	 0.183176
H	 0.5307614861	-4.194714676	 1.4655673852	 0.148053
42.4573	58.1283	73.2315	102.3981	150.9577	170.7754	219.1631	300.44	355.8334	393.243	403.9228	488.2804	591.4632	687.4402	775.5833	787.9963	925.406	957.9832	1015.639	1036.0974	1095.4816	1172.5157	1183.2462	1216.5424	1231.1362	1274.5972	1296.83	1343.7794	1408.0189	1467.2782	1470.1859	1481.1042	1482.109	1500.3575	1543.3851	1807.5746	2362.748	3052.5919	3053.8611	3070.7733	3101.4701	3127.1819	3127.505	3157.9396	3666.2951
COC(=O)NCCC#N	COC(=O)NCCC#N	
InChI=1S/C5H8N2O2/c1-9-5(8)7-4-2-3-6/h2,4H2,1H3,(H,7,8)	InChI=1S/C5H8N2O2/c1-9-5(8)7-4-2-3-6/h2,4H2,1H3,(H,7,8)
