18
gdb 51026	2.00754	1.43909	1.01405	3.6269	76.37	-0.2624	-0.0399	0.2224	1212.639	0.146562	-401.961841	-401.952716	-401.951772	-401.996983	32.445	
O	-0.5603026256	 1.4172212028	 0.9981281097	-0.238898
C	 0.1061150906	 1.1890281988	 0.0211294997	 0.153634
C	 1.4114606682	 1.896531104	-0.2888511067	-0.33395
C	 1.2659870073	 2.8857665959	-1.4703995206	 0.143433
C	 0.3979549515	 4.1436164123	-1.1080800831	-0.257934
C	 1.7030103405	 4.9432618943	-0.8550798706	-0.218289
C	 2.5030170592	 3.8434415335	-1.6011955322	-0.257515
C	 0.8908294826	 2.1821147748	-2.6920795002	 0.240001
N	 0.5988192604	 1.634399536	-3.6682411753	-0.345887
H	-0.2186176976	 0.4448057265	-0.737939487	 0.108593
H	 1.7251202834	 2.4448110692	 0.6033448018	 0.12929
H	 2.1763255827	 1.151447001	-0.5400515334	 0.13111
H	-0.1589737101	 4.5093596707	-1.9724244235	 0.129267
H	-0.2900784148	 4.0101182344	-0.271314862	 0.135497
H	 1.748622171	 5.9478260262	-1.2775724921	 0.116541
H	 1.9592121269	 5.0051035137	 0.2049851262	 0.118777
H	 3.4279121384	 3.4818177453	-1.1466613994	 0.116362
H	 2.6985573155	 4.1000869806	-2.6440699213	 0.129968
34.5754	77.5004	115.0237	168.287	182.8365	235.5989	336.0693	356.9159	497.3766	541.3891	563.2	610.9469	705.0046	794.0028	843.2152	866.2167	922.5058	947.271	952.66	965.9052	1017.2206	1054.5448	1104.0804	1134.4976	1190.8317	1216.7506	1249.2362	1262.4118	1275.4071	1277.1651	1306.2863	1316.263	1426.423	1464.682	1476.6812	1486.1252	1506.0751	1828.3393	2345.4987	2904.6029	3037.796	3071.4085	3076.5822	3080.8541	3111.4075	3119.2876	3132.8084	3143.3125
O=CCC1(CCC1)C#N	O=CCC1(CCC1)C#N	
InChI=1S/C7H9NO/c8-6-7(4-5-9)2-1-3-7/h5H,1-4H2	InChI=1S/C7H9NO/c8-6-7(4-5-9)2-1-3-7/h5H,1-4H2
