17
gdb 76582	2.9965	1.22368	1.20247	2.2991	64.22	-0.2284	0.0392	0.2676	1102.4846	0.135273	-496.056453	-496.048029	-496.047085	-496.089806	31.283	
O	 0.0530572558	 1.2508693769	-0.1841766369	-0.424323
C	-0.0468457022	-0.1348884262	-0.0621345315	-0.004064
C	-0.4949557377	-0.6923863103	 1.282822605	-0.065465
O	-0.8209078019	 0.2522796009	 2.2713699547	-0.425795
C	-1.4208392962	-0.7526633818	 0.1127601332	 0.329593
C	-2.6951389323	 0.0810756712	-0.0361478974	-0.170592
O	-3.5903615623	-0.8077210719	-0.703673854	-0.24262
C	-2.7834433816	-1.7844492006	-1.3092396543	 0.008545
O	-1.7105443039	-2.0221640644	-0.4187216401	-0.27512
H	-0.1834724985	 1.6164957424	 0.6800410692	 0.287388
H	 0.7019838843	-0.6769443653	-0.6321933888	 0.112112
H	-0.0747647442	-1.6324880225	 1.6341777705	 0.110268
H	-0.0452735139	 0.3775819081	 2.8295574539	 0.301194
H	-3.140722494	 0.3666710875	 0.9195871183	 0.130939
H	-2.501041142	 0.9828761283	-0.631004748	 0.118897
H	-3.3568105893	-2.7065418805	-1.4321674499	 0.12199
H	-2.3997825806	-1.4323340716	-2.2840987638	 0.087054
60.2069	141.1257	179.6993	227.6035	245.2893	294.3601	324.0875	429.567	482.0631	517.1567	594.3784	653.8604	744.1569	794.2318	853.626	902.3268	964.7279	970.6814	1026.2074	1065.3248	1086.2827	1104.5689	1130.7064	1158.4008	1166.2585	1199.5077	1218.878	1244.2725	1246.3441	1293.7506	1328.5426	1363.2986	1399.0538	1426.0585	1487.7676	1527.0407	1539.5469	2938.5512	3024.4472	3098.3526	3102.6715	3129.7924	3157.6554	3734.3142	3801.3604
OC1C(O)C11COCO1	O[C@H]1[C@@H](O)[C@]21COCO2	
InChI=1S/C5H8O4/c6-3-4(7)5(3)1-8-2-9-5/h3-4,6-7H,1-2H2	InChI=1S/C5H8O4/c6-3-4(7)5(3)1-8-2-9-5/h3-4,6-7H,1-2H2/t3-,4+,5+
