19
gdb 110844	2.72518	1.35537	1.1706	1.4496	75.56	-0.2154	0.0532	0.2686	1148.1959	0.160614	-419.2163	-419.207829	-419.206884	-419.249743	32.463	
C	 0.0571775357	 1.3631439674	-0.3330018252	-0.37198
C	-0.0232227942	-0.0148603985	 0.3349738116	-0.209052
C	-1.3842442198	-0.6591886935	 0.1797239634	-0.055457
C	-1.875726525	-1.2803911904	-1.1028505375	 0.033771
O	-0.8867036903	-1.6800226056	-2.0466911855	-0.242195
C	-0.1724430827	-2.662511937	-1.4197869542	 0.44761
N	 0.907460713	-3.1088118053	-2.1329729857	-0.579014
N	-0.5258260014	-3.0219745231	-0.2437078983	-0.340509
C	-1.629124523	-2.1629892501	 0.1098513172	-0.06168
H	 1.0423100423	 1.8164610039	-0.1843595332	 0.109998
H	-0.1190301762	 1.2835448236	-1.4103866609	 0.123524
H	-0.6910230818	 2.0503800019	 0.0776378744	 0.10893
H	 0.7522355395	-0.6686157274	-0.0737300572	 0.121946
H	 0.1970088166	 0.0763335091	 1.4058430158	 0.09936
H	-2.185982442	-0.1349075331	 0.6980267257	 0.087198
H	-2.8192874718	-1.0345247689	-1.5732298999	 0.1031
H	 0.8042453698	-3.0615110967	-3.135680483	 0.262623
H	 1.2824364266	-3.9802031498	-1.7904973497	 0.268917
H	-2.4106296652	-2.6078308862	 0.7151004123	 0.092909
48.1613	134.7081	153.5151	235.7837	294.5241	311.0041	358.4976	436.0503	556.5122	565.3405	602.2168	692.3397	742.768	746.878	775.1894	800.8567	811.0392	894.2973	928.2461	972.9046	1015.9122	1032.4381	1048.3224	1083.7778	1087.5979	1120.5515	1144.5942	1197.267	1220.378	1285.2554	1293.6159	1329.0431	1369.2321	1407.8483	1421.148	1429.1715	1486.8491	1500.1488	1507.8227	1613.8992	1732.7795	3031.4793	3033.1213	3080.7403	3101.5237	3108.5379	3120.8155	3170.6229	3191.1174	3580.8799	3694.1491
CCC1C2OC(N)=NC12	CC[C@H]1[C@H]2OC(=N[C@@H]12)N	
InChI=1S/C6H10N2O/c1-2-3-4-5(3)9-6(7)8-4/h3-5H,2H2,1H3,(H2,7,8)	InChI=1S/C6H10N2O/c1-2-3-4-5(3)9-6(7)8-4/h3-5H,2H2,1H3,(H2,7,8)/t3-,4+,5-/m1/s1
