14
gdb 42969	3.35996	1.39797	1.06498	3.7534	78.21	-0.2398	-0.0699	0.1699	1076.4579	0.100858	-399.510871	-399.503432	-399.502488	-399.542807	28.493	
O	-0.0158933284	 0.0102088607	-0.1236537524	-0.308209
C	-0.0225223814	 1.210440605	-0.050051801	 0.36425
C	-1.2395252425	 2.1174219982	-0.0050704091	-0.167518
N	-1.2783127374	 2.9383207659	 1.2389584596	-0.321841
C	-0.7323714285	 3.5050934342	-0.0277705818	-0.089939
C	 0.7570431239	 3.4158444508	-0.0643218652	-0.148712
C	 1.1779085823	 2.1337351985	-0.0348381424	 0.031921
C	 2.5039489806	 1.6526022086	 0.0167455735	 0.246033
C	 3.6216684688	 1.2069328671	 0.0578340969	-0.400889
H	-2.1626554835	 1.7960346113	-0.4711177655	 0.117295
H	-2.2381356387	 3.2650693628	 1.3589634914	 0.240529
H	-1.2583693889	 4.3158063201	-0.5174375362	 0.109793
H	 1.4053299435	 4.2831229982	-0.0594293244	 0.128479
H	 4.6075822201	 0.8142370987	 0.0967386164	 0.198808
111.0032	136.6692	191.5528	305.3363	383.0518	411.8216	512.0498	533.2226	592.4333	617.2861	640.0557	677.3994	744.6052	803.9584	827.0161	864.8886	893.8295	916.1671	954.1553	1016.0904	1071.5636	1128.1052	1154.0204	1212.5643	1258.6311	1307.422	1348.5541	1385.9276	1639.7372	1838.0176	2230.4815	3187.2226	3200.4402	3216.4791	3457.2937	3502.3413
O=C1C2NC2C=C1C#C	O=C1[C@H]2N[C@H]2C=C1C#C	
InChI=1S/C7H5NO/c1-2-4-3-5-6(8-5)7(4)9/h1,3,5-6,8H	InChI=1S/C7H5NO/c1-2-4-3-5-6(8-5)7(4)9/h1,3,5-6,8H/t5-,6-/m0/s1
