15
gdb 35836	2.08099	1.60206	1.02576	6.101	77.62	-0.2846	-0.0622	0.2224	1138.1687	0.114307	-379.715741	-379.707796	-379.706852	-379.748837	28.707	
N	 0.1820437325	-1.1309568372	 0.745233594	-0.313486
C	 0.1151556967	-0.0362392889	 0.3810964617	 0.281578
C	 0.017934826	 1.3602938591	-0.0591184053	-0.260479
C	-0.7876395851	 2.2505063571	 0.9382975004	-0.235237
C	 0.276239279	 2.975146683	 1.7963341421	-0.256061
C	 1.5141044895	 2.9078905368	 0.9469783348	-0.141298
C	 1.3916407863	 2.0407500497	-0.0654141751	 0.199714
C	 2.3830032439	 1.7315700975	-1.0339115679	 0.224499
N	 3.1668743845	 1.4735355572	-1.8464588048	-0.32317
H	-0.4356180303	 1.3604002986	-1.0552381771	 0.145637
H	-1.3550219139	 2.9822433572	 0.3579035492	 0.129155
H	-1.4956235227	 1.667162301	 1.5276841039	 0.13816
H	-0.0108393217	 4.0035312699	 2.0370735569	 0.130682
H	 0.4512122483	 2.4697440722	 2.7557649291	 0.144068
H	 2.4111547471	 3.4797671467	 1.151760878	 0.136238
71.2066	116.1181	163.8526	201.2097	240.6803	377.8397	456.8377	488.524	562.7206	570.8215	661.9541	691.5751	796.2567	861.8697	883.2518	930.8752	937.553	990.2906	1042.4167	1067.403	1146.1878	1181.35	1235.4726	1251.621	1284.9896	1318.0822	1341.104	1350.4014	1476.3932	1495.2166	1680.3617	2342.4069	2357.7289	3026.0315	3063.4763	3073.069	3084.6572	3136.9807	3216.2789
N#CC1CCC=C1C#N	N#C[C@H]1CCC=C1C#N	
InChI=1S/C7H6N2/c8-4-6-2-1-3-7(6)5-9/h2,7H,1,3H2	InChI=1S/C7H6N2/c8-4-6-2-1-3-7(6)5-9/h2,7H,1,3H2/t7-/m1/s1
