21
gdb 92194	3.14	1.53772	1.30612	1.726	82.27	-0.2357	0.0873	0.3231	1058.2526	0.184489	-387.032419	-387.025059	-387.024115	-387.063729	31.022	
C	 0.0418212508	 1.640580229	-0.0934884013	-0.410973
C	 0.0290864819	 0.1229715525	-0.006476771	-0.101233
C	 1.0422347349	-0.7170477724	-0.8928942975	-0.317671
C	 1.0705699045	-1.7264930843	 0.2970743405	 0.152014
O	 2.1450470991	-2.3505150372	 1.0145234302	-0.303006
C	 2.0605077911	-1.5929554072	 2.2521285384	 0.10255
C	 2.088018143	-0.1451334506	 1.7345628731	-0.257866
C	 0.6778095671	-0.5853153855	 1.2132953916	 0.287431
C	 0.5281052054	-1.3558244074	 2.5588627018	-0.346077
H	 1.045235265	 2.0405885125	 0.0846997483	 0.117297
H	-0.2806299936	 1.9793024498	-1.0841023086	 0.116522
H	-0.6334864534	 2.0847979026	 0.6461212198	 0.116872
H	-0.9855885047	-0.255452425	-0.1749487756	 0.080896
H	 0.680013566	-1.091368008	-1.8525796855	 0.097715
H	 1.9813903146	-0.1820941056	-1.043768351	 0.112463
H	 0.2703158412	-2.462612271	 0.1509015111	 0.073053
H	 2.7560252703	-2.0018972247	 2.9832775995	 0.082316
H	 2.0138877856	 0.6118471695	 2.5185114831	 0.096707
H	 2.8805708392	 0.101245077	 1.0261614009	 0.100713
H	-0.1360075302	-2.2234579056	 2.5695197516	 0.100214
H	 0.3938068624	-0.7476599985	 3.4559086905	 0.10006
158.6394	209.5728	217.4639	312.6509	407.1688	443.6246	475.1441	523.2536	564.1945	625.2519	655.3268	772.6022	798.8206	847.006	874.1629	884.0291	920.5467	928.0548	934.618	980.8138	1005.9992	1025.166	1048.1615	1069.4865	1104.7057	1118.958	1128.4143	1142.5783	1162.2136	1182.8445	1213.2675	1221.0137	1228.324	1256.9707	1271.0005	1277.4825	1314.7666	1366.8866	1397.8143	1410.0868	1474.4838	1488.7178	1494.9681	1496.8993	1514.4863	3017.9496	3028.4248	3042.6399	3062.3308	3069.499	3076.78	3093.9525	3101.7051	3127.6792	3132.3419	3139.2298	3140.101
CC1CC2OC3CC12C3	C[C@H]1C[C@H]2O[C@H]3C[C@@]12C3	
InChI=1S/C8H12O/c1-5-2-7-8(5)3-6(4-8)9-7/h5-7H,2-4H2,1H3	InChI=1S/C8H12O/c1-5-2-7-8(5)3-6(4-8)9-7/h5-7H,2-4H2,1H3/t5-,6-,7+,8+/m0/s1
