18
gdb 17459	4.17932	1.99764	1.70069	1.2899	70.42	-0.2291	0.0812	0.3103	830.1491	0.154376	-347.775837	-347.76897	-347.768026	-347.806328	28.056	
C	-0.0491797433	 1.4932168988	-0.0361201804	-0.459839
C	 0.0252539003	-0.0061444794	 0.039569725	 0.438079
C	-0.8333457074	-0.8146653861	 0.9799801065	-0.355291
C	 0.6800879011	-0.8218189954	 1.1303220809	-0.117687
C	 1.5093320695	-1.8745254891	 0.4287840631	-0.069449
C	 0.8304626527	-2.9354729311	-0.4183570174	-0.327622
C	 1.2767265161	-1.6395060065	-1.0427855852	 0.095351
O	 0.3420763761	-0.6016935299	-1.2080882218	-0.296532
H	 0.9014800639	 1.9145529876	-0.3788131924	 0.121291
H	-0.8311169863	 1.806548408	-0.7360500727	 0.128464
H	-0.2851308872	 1.9162135182	 0.9444586876	 0.115116
H	-1.3911797877	-0.2651459712	 1.7320045776	 0.108269
H	-1.3446597966	-1.6934955632	 0.6065469399	 0.116643
H	 1.1139000724	-0.3512799504	 2.0049890629	 0.088205
H	 2.4951649291	-2.0776614615	 0.8289697307	 0.089863
H	 1.4192154959	-3.8161926874	-0.6547531369	 0.110339
H	-0.2283995788	-3.1292732847	-0.298320377	 0.119365
H	 2.0556303601	-1.6302691167	-1.7981496203	 0.095435
176.3283	203.874	241.1031	332.2423	370.2709	474.3292	501.7898	616.7333	703.1248	715.0985	776.9693	792.6303	828.4572	843.551	926.3058	947.8163	957.5739	977.1882	1003.8859	1017.5285	1042.3392	1058.0448	1094.4201	1095.4199	1120.6517	1129.188	1155.803	1198.2674	1233.8208	1283.1127	1342.4618	1372.2206	1386.5123	1420.3054	1470.3396	1478.6253	1493.5152	1501.4235	3034.2049	3098.809	3114.5212	3131.3699	3136.7218	3160.1698	3171.9249	3186.4664	3219.3068	3226.5498
CC12CC1C1CC1O2	C[C@]12C[C@H]1[C@H]1C[C@H]1O2	
InChI=1S/C7H10O/c1-7-3-5(7)4-2-6(4)8-7/h4-6H,2-3H2,1H3	InChI=1S/C7H10O/c1-7-3-5(7)4-2-6(4)8-7/h4-6H,2-3H2,1H3/t4-,5+,6-,7+/m1/s1
