21
gdb 106688	2.40425	1.45016	1.16649	1.6219	82.44	-0.2484	0.07	0.3184	1162.1338	0.182244	-387.044909	-387.035965	-387.035021	-387.078456	34.618	
C	 0.0599927875	 1.4961970352	 0.0750724994	-0.491078
C	-0.006394068	-0.0070480839	 0.0757237062	 0.289494
C	 1.175736858	-0.8867318352	-0.2496922937	-0.381664
C	 0.5380045965	-1.0208808411	 1.1135427655	 0.277334
C	 1.2887871382	-0.7618894707	 2.387982391	-0.170927
O	 2.1739738347	-1.8193025921	 2.7486169702	-0.414021
C	-0.7444505095	-1.8204103376	 0.9973790521	-0.126668
C	-1.9434751224	-0.9653148451	 1.3179260467	-0.297563
C	-1.2825874133	-0.8156769922	-0.028180903	-0.103949
H	 1.0364250427	 1.8567924341	 0.414405011	 0.118619
H	-0.1007193129	 1.8941381806	-0.9342838918	 0.121122
H	-0.7054995158	 1.9312701537	 0.7270385625	 0.117274
H	 1.0830946903	-1.6894962449	-0.9766629852	 0.101451
H	 2.1417796435	-0.3889121673	-0.261410327	 0.110403
H	 1.9253995538	 0.1228759574	 2.2787301918	 0.104548
H	 0.5788886389	-0.553004446	 3.2046551605	 0.084277
H	 1.6448133496	-2.6174677273	 2.8452712987	 0.28082
H	-0.8132838431	-2.9018442382	 0.9407866449	 0.081716
H	-2.9003081007	-1.4795665815	 1.3147247653	 0.108399
H	-1.8683899176	-0.1718953381	 2.0572862405	 0.106641
H	-1.8107358303	-1.0395097798	-0.9489585654	 0.083769
61.113	134.6293	207.0003	209.8279	232.7191	260.681	313.1304	384.2406	420.5637	518.2389	545.1717	592.1391	729.2566	767.2662	817.6908	833.282	854.0661	924.0653	937.0141	969.8126	980.3177	998.4276	1016.6453	1044.624	1057.6781	1079.2512	1081.8779	1091.054	1117.0357	1132.6046	1177.4297	1219.9511	1248.5658	1286.6368	1339.5356	1351.9049	1372.465	1384.2838	1416.7845	1431.3833	1485.8903	1488.4565	1491.7533	1501.0654	1502.3418	2971.444	3022.7138	3065.6021	3080.2326	3097.4681	3108.4431	3110.4476	3157.5197	3168.0123	3191.5892	3196.8818	3815.8214
CC12CC1(CO)C1CC21	C[C@@]12C[C@]1(CO)[C@H]1C[C@@H]21	
InChI=1S/C8H12O/c1-7-3-8(7,4-9)6-2-5(6)7/h5-6,9H,2-4H2,1H3	InChI=1S/C8H12O/c1-7-3-8(7,4-9)6-2-5(6)7/h5-6,9H,2-4H2,1H3/t5-,6+,7+,8+/m1/s1
