15
gdb 19808	4.10153	2.05096	1.81865	4.0909	64.16	-0.222	-0.0148	0.2071	756.1089	0.11962	-362.605335	-362.599166	-362.598222	-362.635574	24.64	
O	-0.0034264997	 0.0083832084	 0.0822560616	-0.300653
C	-0.0149217325	 1.2026382007	 0.0868375471	 0.429627
C	-1.1401866443	 2.263866272	 0.0977553417	-0.360089
C	-0.049532855	 3.3702879791	 0.0117993952	-0.039525
C	 0.5528801304	 3.8892302754	 1.3418079935	-0.05038
N	 0.5264391917	 2.760151478	 2.3010697299	-0.336023
C	 1.6244134815	 2.8576045636	 1.3085508332	-0.045372
C	 1.0882543787	 2.2868731606	-0.0268939086	-0.167518
H	-1.7672923172	 2.1968150397	-0.797348227	 0.123502
H	-1.7723807561	 2.2512586026	 0.9870926331	 0.140303
H	-0.1348573472	 4.1092283966	-0.7821825502	 0.080969
H	 0.5744254296	 4.9129635651	 1.6950460128	 0.096379
H	 0.888802273	 3.1032661595	 3.1892876836	 0.235346
H	 2.6578062654	 2.8931602431	 1.6292213058	 0.101016
H	 1.8083562618	 2.2083101456	-0.8413044017	 0.092416
100.9905	252.4414	328.9796	425.4941	482.2044	581.0464	634.9883	730.981	758.7133	800.5301	808.3477	869.0385	889.5954	900.479	935.5303	977.3422	1000.523	1030.2955	1043.8308	1085.96	1093.9329	1114.8712	1153.0369	1188.3697	1203.6129	1225.9984	1256.4049	1303.5996	1326.3148	1371.0425	1420.9525	1895.3904	3059.7983	3119.9279	3130.5986	3138.6913	3183.2697	3198.1929	3485.8858
O=C1CC2C3NC3C12	O=C1C[C@H]2[C@H]3N[C@H]3[C@@H]12	
InChI=1S/C6H7NO/c8-3-1-2-4(3)6-5(2)7-6/h2,4-7H,1H2	InChI=1S/C6H7NO/c8-3-1-2-4(3)6-5(2)7-6/h2,4-7H,1H2/t2-,4-,5-,6+/m1/s1
