16
gdb 28599	4.12658	1.15658	0.973	3.0438	73.99	-0.198	0.0263	0.2244	1194.6503	0.125906	-434.06557	-434.057772	-434.056827	-434.098255	29.457	
N	 0.0363506049	 1.3190683383	-0.2896018521	-0.586821
C	-0.0676039473	-0.0355895338	-0.0782227743	 0.452794
N	-1.1188637118	-0.7078977818	 0.269136011	-0.339557
C	-0.6839058664	-2.0345729366	 0.244789617	-0.180838
C	 0.6162627762	-2.0955760884	-0.1077601743	 0.359319
O	 1.0381872238	-0.7727553474	-0.3275060816	-0.22479
N	 1.5041995453	-3.1448636682	-0.2665378951	-0.189682
C	 2.5216032308	-3.0748834581	-1.3250568047	-0.227842
C	 2.9141307361	-2.9610316464	 0.1050362442	-0.228162
H	 0.9442072218	 1.7091250082	-0.0805804823	 0.260793
H	-0.7223720173	 1.8307025136	 0.13748708	 0.269737
H	-1.3383017469	-2.8551966821	 0.4891804537	 0.122221
H	 2.6819294513	-4.0031946964	-1.865186036	 0.125443
H	 2.5582779857	-2.1714503871	-1.9264108385	 0.133288
H	 3.2152194355	-1.9809963804	 0.4630851625	 0.128896
H	 3.3641693383	-3.8048071236	 0.6196218404	 0.125201
66.1979	150.0922	160.2105	272.4238	299.5448	376.5837	450.12	488.094	584.623	624.2122	673.9805	737.1402	768.8104	819.9028	837.2794	867.3201	900.5732	944.5399	1001.5345	1036.9633	1085.5345	1104.3474	1129.8944	1138.8458	1181.2355	1195.0491	1204.6503	1252.1836	1345.5912	1433.4064	1486.8841	1512.6439	1603.1447	1675.2789	1689.4804	3115.3026	3118.8737	3201.2539	3216.2597	3273.0529	3568.0719	3675.1247
NC1=NC=C(O1)N1CC1	Nc1ncc(o1)N1CC1	
InChI=1S/C5H7N3O/c6-5-7-3-4(9-5)8-1-2-8/h3H,1-2H2,(H2,6,7)	InChI=1S/C5H7N3O/c6-5-7-3-4(9-5)8-1-2-8/h3H,1-2H2,(H2,6,7)
