19
gdb 61893	3.39189	0.75199	0.65633	2.6302	78.92	-0.2592	-0.0315	0.2277	1687.9603	0.155073	-423.016744	-423.00622	-423.005276	-423.053229	37.322	
C	 0.022129828	 1.4329084687	 0.0780726807	-0.482309
C	 0.045915701	-0.0662356556	-0.1017169516	 0.364729
O	 1.071168848	-0.6807388413	-0.3102993438	-0.317194
C	-1.2717595512	-0.8440065843	-0.0160906525	 0.030918
O	-1.0319002556	-2.2039021296	-0.2571698479	-0.436907
C	-1.9620610401	-0.6423110506	 1.3457332284	-0.203036
C	-3.2582986654	-1.4709440767	 1.4430008	-0.352602
C	-3.9278549305	-1.3119235363	 2.7271549275	 0.287776
C	-4.4591199548	-1.1608862812	 3.7948790084	-0.433947
H	 0.9485782618	 1.8635979657	-0.3038998901	 0.152047
H	-0.8411415273	 1.8829552493	-0.4207625666	 0.141587
H	-0.0596767906	 1.6708516841	 1.1450060151	 0.160082
H	-1.9343792461	-0.4372894828	-0.8021173114	 0.087245
H	-0.0700191295	-2.2718545988	-0.3805444591	 0.293908
H	-1.2777185467	-0.9492257056	 2.1444507263	 0.119755
H	-2.1943309229	 0.4169809186	 1.4975359513	 0.108934
H	-3.9401021411	-1.1775561293	 0.6334871493	 0.126864
H	-3.0119411071	-2.5237986968	 1.2709595135	 0.158606
H	-4.9396229798	-1.0411609574	 4.7339564827	 0.193546
51.9567	79.8484	94.3386	105.7155	122.9395	213.2829	258.4983	325.2371	350.6206	399.7168	445.6439	477.8919	502.444	597.1986	615.7607	637.8714	640.7227	774.6964	816.7273	938.3959	957.7645	973.9308	999.8561	1055.6044	1088.8463	1140.1082	1186.0348	1220.891	1252.0163	1293.4024	1313.9433	1361.7291	1376.0025	1386.8626	1438.0985	1463.8908	1470.1173	1475.6319	1487.2411	1795.0695	2239.0091	2939.4175	3021.26	3041.1447	3044.6087	3074.6834	3096.5544	3106.8461	3153.1687	3507.5179	3658.4791
CC(=O)C(O)CCC#C	CC(=O)[C@@H](O)CCC#C	
InChI=1S/C7H10O2/c1-3-4-5-7(9)6(2)8/h1,7,9H,4-5H2,2H3	InChI=1S/C7H10O2/c1-3-4-5-7(9)6(2)8/h1,7,9H,4-5H2,2H3/t7-/m0/s1
