19
gdb 83258	1.78798	1.76661	1.55	0.7027	70.2	-0.2292	0.0663	0.2955	1032.0515	0.157849	-460.133394	-460.124159	-460.123215	-460.167355	34.447	
C	-0.3520286321	 1.4660023309	 0.0365039962	-0.446139
C	-0.0370522214	-0.0102903435	 0.1447229775	-0.075324
C	 1.2906527511	-0.6061706529	-0.2850261067	-0.006548
O	 2.362763101	 0.2836837562	-0.4528350959	-0.262543
C	 2.8085980096	 0.7572387638	 0.8237977215	-0.114405
C	 1.8874047006	 0.1766076064	 1.9322944105	 0.030373
O	 1.3640548976	 1.1438334904	 2.8242645363	-0.432788
C	 0.8743108192	-0.6649929213	 1.1611442598	 0.31272
O	 0.3506188615	-1.8051756625	 1.769739622	-0.466903
H	 0.5465395327	 2.0871434263	 0.0779430112	 0.132592
H	-0.8309672857	 1.6775623156	-0.9250515725	 0.129473
H	-1.0460262611	 1.7917897025	 0.8202553899	 0.123679
H	-0.8781212818	-0.6652099749	-0.0709951035	 0.103533
H	 1.3294494964	-1.4718274248	-0.9384219092	 0.102661
H	 3.852289468	 0.4516963243	 0.9650978619	 0.108016
H	 2.7725900678	 1.8526801743	 0.8463968935	 0.108703
H	 2.4597495136	-0.4992935311	 2.5780703311	 0.08577
H	 0.7090620333	 1.6659213341	 2.3504695825	 0.286019
H	 1.0784472098	-2.4065962734	 1.9659667239	 0.281111
50.5574	156.3305	165.8166	193.4179	233.5668	258.7819	300.8229	325.2999	359.9822	422.5549	548.9531	569.6566	600.9878	686.7273	742.2018	796.7324	891.3107	916.9885	979.0552	993.6436	1024.8432	1048.7771	1058.2101	1103.1741	1121.5117	1129.5051	1153.4625	1206.9467	1224.2361	1245.6829	1296.5136	1306.483	1318.3789	1352.1757	1378.1969	1410.9253	1434.1908	1472.0817	1494.6077	1507.6982	1526.4274	3021.7426	3030.0748	3040.8136	3065.5452	3088.2275	3112.6347	3143.0241	3163.9849	3785.1114	3828.9332
CC1C2OCC(O)C12O	C[C@H]1[C@H]2OC[C@@H](O)[C@@]12O	
InChI=1S/C6H10O3/c1-3-5-6(3,8)4(7)2-9-5/h3-5,7-8H,2H2,1H3	InChI=1S/C6H10O3/c1-3-5-6(3,8)4(7)2-9-5/h3-5,7-8H,2H2,1H3/t3-,4+,5+,6-/m0/s1
