19
gdb 93641	2.226	1.51916	1.25728	1.4943	75.83	-0.2495	0.0308	0.2803	1095.9884	0.158179	-422.994667	-422.985454	-422.98451	-423.028613	34.722	
C	 0.7632251096	 1.3119872038	-0.2509076256	-0.419313
C	-0.0415879459	 0.0781366388	 0.1549729458	 0.086805
O	-0.1268346768	-0.902142903	-0.8759411144	-0.257438
C	 1.0554061783	-1.6897444278	-0.8477770799	-0.092803
C	 1.554405764	-1.7067829721	 0.6298540446	-0.248354
C	 2.9427536649	-1.2981384748	 0.7747027321	 0.315324
C	 4.0762049886	-0.917610826	 0.9171246261	-0.462682
C	 0.5647868413	-0.7078453382	 1.3434657653	 0.115794
O	 1.1170787761	 0.0673360969	 2.3729960528	-0.429778
H	 1.8049762938	 1.0658919271	-0.4805494207	 0.121723
H	 0.3169909253	 1.7723266634	-1.1363797194	 0.124047
H	 0.7606236315	 2.0415537014	 0.5636593483	 0.128386
H	-1.0720586851	 0.373963448	 0.3754846233	 0.086605
H	 0.7967761677	-2.6881656564	-1.2094958209	 0.114859
H	 1.8289279753	-1.273609454	-1.5059645771	 0.108029
H	 1.4370536155	-2.7036864785	 1.0635731619	 0.117592
H	 5.0882302968	-0.6137542384	 1.0270366039	 0.2064
H	-0.2329355937	-1.3001839771	 1.8006380913	 0.098377
H	 2.0296352727	 0.277689727	 2.1341543026	 0.286426
50.4987	140.7633	162.4673	207.2943	228.0004	251.2277	331.1418	369.4634	410.8146	480.4472	506.7197	571.7629	625.3935	655.4189	664.1463	733.8427	779.5047	836.4942	880.3986	967.81	1027.392	1045.6133	1056.7595	1100.1477	1114.3414	1132.5132	1157.7924	1222.0296	1247.4251	1285.3054	1318.1513	1333.1904	1347.3871	1380.4842	1391.6744	1407.2026	1438.5708	1493.0039	1498.0241	1522.3245	2222.9172	3016.3849	3044.0149	3054.1782	3061.9162	3075.4801	3093.9136	3116.6248	3125.3066	3499.1921	3749.7667
CC1OCC(C#C)C1O	C[C@H]1OC[C@@H](C#C)[C@H]1O	
InChI=1S/C7H10O2/c1-3-6-4-9-5(2)7(6)8/h1,5-8H,4H2,2H3	InChI=1S/C7H10O2/c1-3-6-4-9-5(2)7(6)8/h1,5-8H,4H2,2H3/t5-,6-,7+/m1/s1
