17
gdb 75585	2.55005	1.6134	1.05994	4.4692	72.36	-0.2673	-0.0414	0.2259	1115.5033	0.136365	-458.997192	-458.989011	-458.988066	-459.030221	30.23	
C	 0.0935262647	 1.2857592291	 0.4998437062	-0.459223
C	 0.0671838712	-0.1153520452	-0.0655868651	 0.117429
C	-1.0303337483	-0.8756796637	 0.0502741572	-0.138897
C	-1.3364839659	-2.2536332294	-0.4458497566	-0.146411
O	-0.3082207521	-2.9094095235	-1.1585191872	-0.223854
C	 0.9370150517	-2.8353699946	-0.5490863683	 0.006776
O	 1.7042303097	-1.7397061784	-1.0221945512	-0.217171
C	 1.3323615602	-0.4522542665	-0.8008857052	 0.375195
O	 2.064937248	 0.4203028658	-1.192204596	-0.320971
H	 0.9247722394	 1.4105711811	 1.2016398093	 0.137417
H	 0.2544753224	 2.0143587261	-0.2990432787	 0.155172
H	-0.8403799455	 1.5177490775	 1.016673886	 0.113026
H	-1.8724963595	-0.4426499743	 0.589953522	 0.105518
H	-1.6556326268	-2.8671396259	 0.415653444	 0.114362
H	-2.1956353796	-2.2138393794	-1.1270386159	 0.140598
H	 0.8499920982	-2.7914487066	 0.5456434885	 0.106026
H	 1.5101589222	-3.7136517422	-0.8498316989	 0.135007
73.5764	128.1291	170.3117	253.3501	294.3711	326.7636	366.1617	400.3137	441.08	544.4944	620.1128	720.2553	744.4085	773.2764	860.86	898.6638	988.9277	1032.1899	1063.1173	1072.9439	1075.1079	1103.1383	1151.8054	1202.3897	1254.8901	1277.6266	1333.0523	1378.9637	1407.0466	1417.7559	1455.9108	1469.5032	1483.2584	1489.5252	1512.2913	1720.3106	1805.1684	2950.4603	3008.8461	3044.3932	3049.0342	3106.0508	3124.6813	3128.6712	3134.3131
CC1=CCOCOC1=O	CC1=CCOCOC1=O	
InChI=1S/C6H8O3/c1-5-2-3-8-4-9-6(5)7/h2H,3-4H2,1H3	InChI=1S/C6H8O3/c1-5-2-3-8-4-9-6(5)7/h2H,3-4H2,1H3
