17
gdb 80697	2.33162	1.5709	1.36226	4.1322	68.93	-0.2381	-0.0413	0.1968	1030.5191	0.133343	-458.917959	-458.909291	-458.908347	-458.951237	31.925	
C	-0.0697750988	 1.5529123125	-0.0226052303	-0.501922
C	-0.0245234552	 0.0557562289	 0.0512311191	 0.166733
C	-0.8667507374	-0.8128262472	 0.9852760518	 0.083422
O	-1.70670108	-1.8449212175	 0.6075888818	-0.435922
C	 0.6165141724	-0.9247924246	 1.0476695697	-0.005969
O	 1.0687845868	-1.7980841292	-0.0001435958	-0.293187
C	 0.624993174	-0.8671817741	-1.002148702	-0.027352
C	-0.2559304449	-1.4541206592	-2.0802124576	 0.157639
O	-0.7031821209	-2.5724108882	-2.06894838	-0.251947
H	 0.9003931418	 1.9737883607	-0.3114612415	 0.123588
H	-0.8159556951	 1.8957605119	-0.7487648079	 0.132688
H	-0.3415386536	 1.9803481271	 0.9475991052	 0.131625
H	-1.3060163073	-0.2272475624	 1.7895849192	 0.111736
H	-1.1945761672	-2.4802034608	 0.0847955393	 0.306607
H	 1.2713869594	-0.7968930465	 1.9030315834	 0.108183
H	 1.4863261854	-0.3783479312	-1.4838409389	 0.104397
H	-0.4681525894	-0.7495349001	-2.9162253055	 0.089681
86.8726	141.496	178.5124	196.9623	216.4022	266.0705	301.7728	328.1668	504.0759	512.4925	601.9907	656.7095	746.3429	756.6961	789.6894	861.0752	919.3843	958.8325	983.1126	1011.3821	1038.3768	1071.212	1105.2802	1130.3104	1165.959	1206.5164	1235.5795	1280.8777	1300.7313	1351.2285	1390.2728	1414.7159	1423.0149	1473.7557	1485.8642	1496.9834	1826.4013	2878.7667	2989.791	3023.1696	3082.3784	3100.7229	3147.8251	3171.306	3721.6318
CC12C(O)C1OC2C=O	C[C@]12[C@@H](O)[C@H]1O[C@H]2C=O	
InChI=1S/C6H8O3/c1-6-3(2-7)9-5(6)4(6)8/h2-5,8H,1H3	InChI=1S/C6H8O3/c1-6-3(2-7)9-5(6)4(6)8/h2-5,8H,1H3/t3-,4-,5+,6-/m0/s1
