17
gdb 74528	4.4158	1.42137	1.31157	1.5196	73.66	-0.2234	0.0429	0.2663	988.6788	0.138811	-417.944266	-417.937628	-417.936684	-417.97484	28.074	
N	 0.0354389369	 1.2912173728	-0.2723180896	-0.582347
C	-0.0369170866	-0.0431448804	-0.0143368608	 0.448832
N	-1.1036955435	-0.7706200718	 0.0007353943	-0.454373
C	-0.5132778536	-2.0874293775	 0.0491465342	 0.350722
C	-0.5542381418	-3.5179962543	 0.6639499949	-0.306693
C	 0.8877580177	-3.3395711084	 0.0091760699	-0.110803
C	 0.1737975484	-2.7310688641	-1.2119949465	-0.256962
C	 0.8521890541	-1.9340109582	 0.6830045866	 0.102577
O	 1.2135494805	-0.6295843553	 0.1734365661	-0.292092
H	 0.8121921704	 1.7804484005	 0.1441644786	 0.264723
H	-0.8503787203	 1.7710566247	-0.2493632992	 0.271393
H	-0.5980176277	-3.5903184745	 1.7539455039	 0.101095
H	-1.1903283928	-4.2619669766	 0.1803104278	 0.105825
H	 1.688964937	-4.0775932436	 0.0229354764	 0.081358
H	-0.4428950955	-3.4076670842	-1.8068141299	 0.09213
H	 0.7580762808	-2.0551083413	-1.837217232	 0.108018
H	 0.939238566	-1.9144801478	 1.7733245053	 0.076597
162.3067	312.1236	316.7317	417.0281	444.7931	483.086	514.3767	531.5547	562.0394	726.5311	744.8088	766.0119	779.5781	842.0825	867.3098	901.518	924.4076	956.9262	978.7432	1013.5726	1034.4583	1066.5819	1085.4476	1115.1346	1124.2502	1147.1865	1175.3407	1196.2524	1224.2328	1241.8559	1290.6731	1349.8371	1419.1077	1493.5457	1533.9157	1595.5622	1699.1939	3057.0871	3065.021	3073.8214	3121.6592	3131.0374	3144.4307	3590.9235	3709.105
NC1=NC23CC(C2)C3O1	N[C]1[N][C@@]23C[C@@H](C2)[C@H]3O1	
InChI=1S/C6H8N2O/c7-5-8-6-1-3(2-6)4(6)9-5/h3-4H,1-2H2,(H2,7,8)	InChI=1S/C6H8N2O/c7-5-8-6-1-3(2-6)4(6)9-5/h3-4H,1-2H2,(H2,7,8)/t3-,4-,6-/m1/s1
