19
gdb 67608	2.68305	2.15892	1.67013	1.4008	76.54	-0.2325	0.0973	0.3297	890.8461	0.162323	-385.874546	-385.868089	-385.867145	-385.904951	27.692	
C	-0.0191524106	 1.4708352373	 0.0231122577	-0.510648
C	 0.0466464905	-0.0300660543	 0.0398891394	 0.319325
C	-0.3490560644	-0.9281433428	-1.1148663693	 0.013505
O	 0.5027356217	-2.0441100953	-1.1845885607	-0.24278
C	 0.7754453897	-2.2110868783	 0.17973074	 0.098054
C	-0.5451066494	-2.090454157	 1.028061306	-0.085567
C	 0.3051915167	-1.3398717874	 2.0905333585	-0.242663
C	 1.0868070517	-0.8268452475	 0.8502469093	-0.140018
C	-1.1547972159	-0.9749703473	 0.169979817	-0.156795
H	 0.893461104	 1.905741368	-0.400836309	 0.120933
H	-0.8634127219	 1.8231322384	-0.5791396837	 0.116705
H	-0.1450387311	 1.8796038926	 1.0324988864	 0.119361
H	-0.7196749333	-0.5795063871	-2.0701317236	 0.100937
H	 1.4431415916	-3.0499819268	 0.3596015512	 0.086015
H	-1.1692473158	-2.9500387618	 1.2694596215	 0.064683
H	-0.1999926858	-0.6009259708	 2.7177811121	 0.097055
H	 0.8975883535	-2.0161629161	 2.7143606376	 0.096007
H	 2.094213467	-0.4152099286	 0.9146109388	 0.061193
H	-2.1822931481	-0.6450489753	 0.2460383207	 0.084699
204.7013	217.1366	271.8932	420.0833	475.62	577.7788	594.9599	684.3056	721.5318	734.1865	803.1293	832.8796	860.2776	876.0032	889.1646	897.9395	945.3312	959.805	998.0315	1010.9952	1025.8679	1047.9541	1056.4164	1073.0413	1091.9859	1111.6134	1128.4431	1170.0871	1198.3258	1213.0319	1234.1608	1241.4688	1257.0211	1275.436	1303.1476	1352.5774	1418.6407	1427.9545	1489.0916	1500.643	1501.3683	3020.9587	3052.9421	3079.8842	3090.808	3109.5523	3113.0256	3121.4906	3160.1401	3199.6624	3209.1913
CC12C3OC4C(CC14)C23	C[C@@]12[C@H]3O[C@@H]4[C@@H](C[C@H]14)[C@@H]23	
InChI=1S/C8H10O/c1-8-4-2-3-5(8)7(8)9-6(3)4/h3-7H,2H2,1H3	InChI=1S/C8H10O/c1-8-4-2-3-5(8)7(8)9-6(3)4/h3-7H,2H2,1H3/t3-,4-,5+,6+,7-,8+/m0/s1
