20
gdb 58092	2.17942	1.3724	1.23392	4.9404	70.29	-0.2551	0.0202	0.2752	1151.0227	0.169339	-477.464236	-477.454149	-477.453205	-477.498849	37.881	
C	 0.1765060764	 1.4126961594	-0.275276648	-0.416507
C	 0.136372459	-0.0893828284	 0.0147419422	 0.004738
N	 0.7362815528	-0.3301644301	 1.3392278455	-0.535632
H	 1.0738176456	-1.2824839333	 1.4270524317	 0.242744
H	 1.5293521842	 0.2833083404	 1.4880473636	 0.240034
H	-1.173830721	-0.0846769445	 1.908065645	 0.291272
C	-1.3215137065	-0.6560910178	 0.0884779379	 0.228716
C	-1.3352393414	-2.1890676509	 0.0319499846	-0.426146
O	-1.924124936	-0.1904567384	 1.2927512775	-0.491697
C	-2.1414038678	-0.1065718889	-1.0922416998	 0.41475
O	-1.9242677189	-0.4159686572	-2.2345329964	-0.360902
O	-3.0994270587	 0.7607103054	-0.7409682958	-0.377494
H	 1.2102990041	 1.7738226784	-0.2604734109	 0.111249
H	-0.2356415044	 1.6323356741	-1.2619776066	 0.158286
H	-0.3913518313	 1.9703888674	 0.4755014115	 0.125869
H	 0.6554377652	-0.620273215	-0.7935463909	 0.091719
H	-0.7068343194	-2.6140872775	 0.8207399398	 0.105384
H	-2.352971883	-2.557155159	 0.1860227959	 0.133223
H	-0.9817356811	-2.5348221112	-0.941777768	 0.143962
H	-3.058326368	 0.819000177	 0.2328694413	 0.316432
77.6212	80.9384	170.2101	219.9189	232.4074	268.3629	270.4071	291.3119	339.5878	367.1355	394.3034	434.6213	519.2884	543.6397	660.0509	674.3682	735.9169	757.0585	776.7715	862.6915	869.071	929.5673	967.5185	1011.8085	1034.2616	1101.2995	1126.1674	1162.728	1202.0394	1223.2894	1269.8539	1340.6856	1376.2429	1398.41	1400.2332	1410.4797	1424.9334	1484.5957	1495.5397	1500.3645	1504.0803	1652.1276	1860.7325	3021.6051	3041.1062	3045.9589	3106.535	3115.2248	3138.1718	3140.2763	3516.4612	3576.1575	3595.8255	3611.4126
CC([NH3+])C(C)(O)C([O-])=O	C[C@@H](N)[C@@](C)(O)C(=O)O	
InChI=1S/C5H11NO3/c1-3(6)5(2,9)4(7)8/h3,9H,6H2,1-2H3,(H,7,8)	InChI=1S/C5H11NO3/c1-3(6)5(2,9)4(7)8/h3,9H,6H2,1-2H3,(H,7,8)/t3-,5-/m1/s1
