17
gdb 76035	2.75882	1.14822	1.0367	3.1296	77.68	-0.2515	-0.0306	0.2209	1205.1735	0.13177	-421.788371	-421.77854	-421.777596	-421.823191	35.358	
C	-0.09902926	 1.5710774154	-0.0237427661	-0.46702
C	-0.0265406797	 0.0632423981	-0.0017160515	 0.153646
C	-1.2088204574	-0.6694646155	-0.5242780294	 0.125831
O	-2.1884743929	-0.1492606219	-0.9968881961	-0.261609
C	 1.3190360222	-0.6438567524	-0.2211409452	 0.092901
O	 2.4564833056	 0.1037952509	-0.4585738556	-0.416788
C	 0.7033158672	-0.6832834641	 1.1522189605	-0.334751
C	 1.330326449	 0.0777449105	 2.187417827	 0.286787
C	 1.9194376115	 0.7217041258	 3.017167705	-0.399238
H	 0.8991071069	 2.0111525874	-0.025038067	 0.126073
H	-0.6232288868	 1.8875392244	-0.9283895542	 0.144985
H	-0.6522844005	 1.9570242966	 0.8368714095	 0.132267
H	-1.1258827577	-1.7809965552	-0.4599704147	 0.065632
H	 1.3048315976	-1.5662187746	-0.7954978689	 0.119072
H	 2.7973021947	 0.4188118452	 0.3899675911	 0.296905
H	 0.2593658986	-1.6247252307	 1.4648288524	 0.125595
H	 2.4039420316	 1.2883092103	 3.7740339332	 0.20971
71.9662	86.0688	130.5425	142.8953	211.6831	264.3582	271.876	317.845	347.0673	386.9024	435.2911	531.0971	608.314	631.9361	654.6345	674.7927	760.043	768.7143	846.016	953.4244	1008.6004	1019.7533	1066.2368	1097.2604	1124.5101	1158.995	1231.3705	1329.8898	1349.5051	1354.752	1410.6253	1433.7974	1442.0732	1485.9574	1494.8805	1815.8432	2228.2505	2840.8681	3057.5506	3124.9116	3138.5001	3145.9311	3146.2944	3499.1512	3739.1492
CC1(C=O)C(O)C1C#C	C[C@@]1(C=O)[C@@H](O)[C@H]1C#C	
InChI=1S/C7H8O2/c1-3-5-6(9)7(5,2)4-8/h1,4-6,9H,2H3	InChI=1S/C7H8O2/c1-3-5-6(9)7(5,2)4-8/h1,4-6,9H,2H3/t5-,6+,7+/m1/s1
