19
gdb 96676	3.7545	0.77182	0.65499	2.8223	76.22	-0.2422	0.0278	0.27	1705.7601	0.15577	-456.379542	-456.3683	-456.367355	-456.418324	37.496	
C	 0.0590525352	 1.4506124058	-0.1089679378	-0.326146
N	 0.0574176862	 0.0036806198	-0.0714298653	-0.292073
C	 0.4836394148	-0.6128015089	 0.9489186401	 0.414701
C	 1.032410221	-0.0664115094	 2.2467968318	-0.49078
O	 0.491077864	-1.9685631451	 0.9788583042	-0.22807
C	 0.0300708148	-2.625843912	-0.1837976978	-0.159745
C	 0.2704497818	-4.1265488201	-0.0051285141	 0.36942
N	-0.4564714173	-4.8891500407	-0.8776219641	-0.525489
O	 1.0604486153	-4.5941211241	 0.7836963023	-0.334828
H	 0.6595700677	 1.7920193039	-0.9607494055	 0.125569
H	-0.9619579217	 1.8118105404	-0.2817762832	 0.124111
H	 0.4437100533	 1.9445633525	 0.7936663543	 0.10255
H	 0.3026648803	 0.5852571232	 2.7355412793	 0.142492
H	 1.2795312094	-0.8891268781	 2.9170955404	 0.153559
H	 1.935172093	 0.5245786231	 2.0665334702	 0.145357
H	-1.0304392221	-2.4040256168	-0.35732589	 0.114556
H	 0.571650212	-2.2681880818	-1.0681625067	 0.142219
H	-1.2117910565	-4.5099541184	-1.421757001	 0.259432
H	-0.3694721711	-5.8899905935	-0.811185507	 0.263165
22.0722	48.0157	73.7927	79.4243	118.2528	164.8447	172.1871	236.7691	276.5762	320.5451	355.0573	488.1226	524.7602	576.8308	584.088	637.044	662.3583	825.6488	880.2386	989.5074	1012.1168	1055.8736	1087.3978	1110.2478	1132.9146	1134.6535	1159.8524	1249.9388	1279.4192	1318.21	1396.7092	1414.1179	1448.4094	1478.2529	1479.641	1493.6	1500.2677	1506.756	1617.9844	1755.5195	1824.7142	3001.0122	3025.8352	3053.3772	3060.9519	3063.4729	3067.3969	3114.57	3159.2617	3601.3385	3735.196
CN=C(C)OCC(N)=O	CN=C(C)OCC(=O)N	
InChI=1S/C5H10N2O2/c1-4(7-2)9-3-5(6)8/h3H2,1-2H3,(H2,6,8)	InChI=1S/C5H10N2O2/c1-4(7-2)9-3-5(6)8/h3H2,1-2H3,(H2,6,8)
