21
gdb 57471	2.4353	1.37436	1.09004	3.77	78.91	-0.2358	-0.0179	0.2179	1209.1064	0.179077	-424.242928	-424.232827	-424.231883	-424.278064	37.724	
C	-0.241720296	 1.4677581366	-0.0114911818	-0.401021
C	-0.0179195176	-0.0452098578	 0.0612837532	 0.318836
C	 0.7847494515	-0.4255565492	 1.3115415484	-0.433711
O	-1.3272016919	-0.6279533351	 0.12674147	-0.460416
C	 0.6978600713	-0.5359344288	-1.2137835888	-0.105163
C	 0.7955326096	-2.0708419562	-1.4980810361	-0.26375
C	 0.1916972537	-1.8699254954	-2.9197358715	-0.336053
C	-0.0606738325	-0.3997107215	-2.5542981987	 0.40785
O	-0.6473551095	 0.4959560275	-3.0887552909	-0.298478
H	 0.7136334253	 1.9982535693	-0.070343366	 0.106224
H	-0.8315215739	 1.7204156035	-0.8944714535	 0.156211
H	-0.7746608625	 1.8054631558	 0.8816720409	 0.114209
H	 0.2457454277	-0.1115270046	 2.2106638443	 0.125096
H	 0.9434643186	-1.5094617686	 1.3660763864	 0.10847
H	 1.7688061499	 0.053132995	 1.3142207365	 0.118841
H	-1.2441737825	-1.513372205	 0.4941059436	 0.278841
H	 1.6762243179	-0.0457321901	-1.2923769955	 0.09722
H	 1.7998466393	-2.4944073412	-1.4645983818	 0.108292
H	 0.1455244964	-2.6665555379	-0.853030362	 0.094151
H	 0.9089235218	-1.9768908521	-3.7397446387	 0.131226
H	-0.7043551268	-2.4443921745	-3.169167858	 0.133126
41.3577	80.0708	151.004	210.0886	228.7552	250.621	271.1906	297.6189	338.1381	380.9537	432.4955	445.243	521.8649	575.9967	656.6915	694.7993	754.6453	842.3895	903.2163	935.3296	938.925	955.1625	997.3115	1003.9366	1023.3878	1056.4868	1085.1494	1133.0697	1179.1843	1204.767	1226.203	1238.2321	1244.1083	1265.9916	1311.8717	1363.3251	1400.0669	1419.1012	1434.9002	1481.4022	1484.4694	1488.2363	1496.7247	1507.2112	1885.6367	3024.7011	3037.1979	3046.8287	3058.4398	3074.1209	3092.6621	3109.3662	3110.6697	3117.6749	3130.9595	3144.1377	3821.4636
CC(C)(O)C1CCC1=O	CC(C)(O)[C@H]1CCC1=O	
InChI=1S/C7H12O2/c1-7(2,9)5-3-4-6(5)8/h5,9H,3-4H2,1-2H3	InChI=1S/C7H12O2/c1-7(2,9)5-3-4-6(5)8/h5,9H,3-4H2,1-2H3/t5-/m0/s1
