15
gdb 52025	2.72253	1.00012	0.76556	1.9819	68.53	-0.2751	-0.0662	0.2089	1403.1964	0.110052	-453.950364	-453.940829	-453.939885	-453.986673	31.518	
N	-0.3599351556	 1.1597763831	 0.1305396767	-0.432793
C	-0.4175213145	-0.0858256635	 0.2971349147	 0.129531
O	-0.9104405949	-0.8689426248	-0.6959617765	-0.184706
C	-1.0503580876	-2.2511572729	-0.4374264745	-0.09514
C	-2.4970202548	-2.5930119637	-0.021783575	-0.24786
C	-2.7812759234	-4.1044527352	-0.1153263821	 0.160259
O	-2.0492531853	-4.8699211881	-0.6774431812	-0.220733
C	-2.8355390159	-2.1056632114	 1.3138057332	 0.262878
N	-3.0846436931	-1.7538880226	 2.3861458389	-0.303651
H	 0.0460360631	 1.6048554317	 0.9507307739	 0.238277
H	-0.0945279822	-0.653707054	 1.1793564732	 0.102689
H	-0.8286494731	-2.7828946697	-1.3633902497	 0.154746
H	-0.3465307816	-2.5921557985	 0.3303968291	 0.133388
H	-3.1772853245	-2.1065032539	-0.7372228958	 0.176204
H	-3.7278127367	-4.4272699665	 0.3630721352	 0.12691
44.8831	53.6082	80.1469	126.3143	155.1864	188.3285	248.1128	344.0666	364.569	509.9543	560.4992	587.1667	691.1498	776.9811	819.3968	884.937	970.5435	1035.8973	1039.3075	1078.718	1106.7565	1152.5935	1223.6215	1241.309	1296.0182	1346.2376	1392.5628	1417.5573	1424.5397	1498.1706	1751.2483	1838.8067	2357.5728	2937.0954	3015.53	3036.6239	3050.4512	3135.4951	3525.4829
N=COCC(C=O)C#N	[NH][CH]OC[C@@H](C=O)C#N	
InChI=1S/C5H6N2O2/c6-1-5(2-8)3-9-4-7/h2,4-5,7H,3H2	InChI=1S/C5H6N2O2/c6-1-5(2-8)3-9-4-7/h2,4-5,7H,3H2/t5-/m1/s1
