22
gdb 116382	2.71134	1.27034	0.93734	2.9325	83.84	-0.2554	0.0196	0.2751	1319.2601	0.195873	-404.378988	-404.369941	-404.368997	-404.412882	34.487	
C	 0.0860377763	 1.5617222978	-0.2454560974	-0.389734
C	 0.0319952881	 0.0590792478	 0.0461288635	-0.175559
C	-1.3880439577	-0.5184529946	 0.1651458664	-0.040724
C	-1.4264634878	-2.0396575202	-0.082591351	-0.224128
C	-2.8573090105	-2.5619538659	 0.0515064412	-0.222451
C	-3.4015167247	-2.1975346202	 1.4243622801	-0.069986
O	-3.2742990142	-0.7990180093	 1.7216798116	-0.256234
C	-2.0744610446	-0.1789024354	 1.4787012835	 0.37768
N	-1.6301370955	 0.6983261014	 2.2764928508	-0.495437
H	 1.1224067291	 1.8968344099	-0.355569298	 0.104635
H	-0.4383710339	 1.8004616423	-1.1784545048	 0.100339
H	-0.3746549694	 2.1273965762	 0.5659454928	 0.149712
H	 0.5432393187	-0.4819021109	-0.7607160336	 0.082341
H	 0.5806473909	-0.1578506376	 0.9688489443	 0.109874
H	-2.0168104214	-0.0592954722	-0.6146852789	 0.095669
H	-1.0226201413	-2.2544639125	-1.0772599322	 0.101981
H	-0.7730864841	-2.5474737491	 0.6402212914	 0.103392
H	-3.4909540223	-2.1169223135	-0.7254095831	 0.108001
H	-2.9019180049	-3.649504599	-0.0740651269	 0.102557
H	-4.4691273793	-2.4134843223	 1.5128579072	 0.116392
H	-2.8751840185	-2.7686605949	 2.2033727788	 0.104326
H	-2.2563923532	 0.7775180422	 3.0808250043	 0.217354
72.7467	103.9274	145.9485	212.1852	237.2047	300.1522	320.1791	373.9096	433.5723	456.7527	529.3624	573.5668	667.7789	734.3665	805.628	885.6917	889.1494	903.0706	925.6569	950.9617	980.4793	1039.286	1042.718	1063.3455	1110.3053	1121.6419	1142.906	1156.2731	1208.3083	1239.557	1269.8994	1292.9737	1307.7524	1313.776	1362.1218	1378.816	1381.1828	1391.5764	1407.3702	1427.6608	1476.6571	1481.4484	1494.7526	1496.823	1512.7007	1516.615	1740.2041	2979.9153	2998.9749	3016.6667	3022.236	3031.8073	3032.0782	3070.5262	3074.3848	3079.7637	3094.5822	3097.5764	3142.7549	3457.9871
CCC1CCCOC1=N	CC[C@H]1CCCO[C]1[NH]	
InChI=1S/C7H13NO/c1-2-6-4-3-5-9-7(6)8/h6,8H,2-5H2,1H3	InChI=1S/C7H13NO/c1-2-6-4-3-5-9-7(6)8/h6,8H,2-5H2,1H3/t6-/m0/s1
