12
gdb 27973	4.09493	1.22142	0.9408	3.4421	63.61	-0.2722	-0.1001	0.1721	1118.72	0.079226	-468.870199	-468.863224	-468.86228	-468.90221	24.909	
O	 0.0427499516	 1.2559244958	-0.1984958834	-0.372255
C	 0.0266426168	-0.0668264495	-0.0782208585	 0.46519
N	-0.0982487448	-0.7609638469	-1.2093761208	-0.300556
C	-0.1084667926	-2.0811758181	-1.0324963568	 0.245752
C	-0.2492689125	-2.8872343554	-2.3046592181	 0.125878
O	-0.2779270437	-4.0862634979	-2.3386902065	-0.219592
N	-0.008056701	-2.7258421012	 0.132911317	-0.265547
C	 0.1112013514	-1.9162667185	 1.1829456927	 0.079704
N	 0.1357270613	-0.5849253635	 1.1493230144	-0.32946
H	 0.137563881	 1.6188970742	 0.6941971679	 0.316799
H	-0.3236359211	-2.2465917285	-3.2061545663	 0.109095
H	 0.1974676136	-2.3812380805	 2.1621982683	 0.144992
82.2925	178.1833	203.3118	226.8182	401.1021	439.5449	502.3168	593.6843	597.9286	675.5512	721.9671	845.4037	852.0632	989.2165	1006.0621	1018.5802	1049.6322	1174.3297	1267.444	1307.0594	1372.5945	1387.9692	1438.9458	1503.392	1598.2827	1620.8204	1838.3996	2945.4588	3172.3096	3765.6759
OC1=NC(C=O)=NC=N1	Oc1nc(C=O)ncn1	
InChI=1S/C4H3N3O2/c8-1-3-5-2-6-4(9)7-3/h1-2H,(H,5,6,7,9)	InChI=1S/C4H3N3O2/c8-1-3-5-2-6-4(9)7-3/h1-2H,(H,5,6,7,9)
