23
gdb 53377	4.19967	0.7102	0.64506	0.0883	95.87	-0.2359	0.0632	0.2992	1843.5022	0.20551	-351.159168	-351.148668	-351.147724	-351.19805	37.288	
C	 0.4583757425	 1.6018021137	-0.6274130022	-0.499559
C	 0.2291797506	 0.2026056983	-0.2944203836	 0.115221
C	 0.0416348163	-0.9567522625	-0.0252241178	 0.015563
C	-0.1963419651	-2.3516882234	 0.3184106332	-0.162643
C	 0.4598407336	-2.8058614058	 1.6582595727	-0.216052
C	-0.4498879471	-3.9380864059	 2.2095571705	-0.215694
C	-1.6082318247	-4.1062193994	 1.1931137159	 0.05468
C	-2.9208793719	-4.5833675893	 1.8114209093	-0.415745
C	-1.6819489724	-2.7356594035	 0.5027510807	-0.20429
H	 1.5209425053	 1.8012332024	-0.8069398537	 0.14452
H	-0.0881288324	 1.8920423136	-1.5319421337	 0.144494
H	 0.1312800262	 2.2648739019	 0.1814577503	 0.143895
H	 0.2052001308	-2.9821383367	-0.4874496431	 0.094059
H	 1.4930675669	-3.1259932806	 1.5020601998	 0.101539
H	 0.4912028608	-1.9597078626	 2.3497115308	 0.108107
H	 0.0932274126	-4.875830199	 2.3592791449	 0.09566
H	-0.8558666085	-3.6543450063	 3.1870540929	 0.096586
H	-1.2963070896	-4.8398577895	 0.4361946509	 0.068558
H	-3.2779495503	-3.8724531045	 2.565952375	 0.112134
H	-3.705704773	-4.6890419693	 1.0547287522	 0.111037
H	-2.8001789282	-5.5553184724	 2.3021191409	 0.111465
H	-2.1695244505	-2.0037675454	 1.1595603748	 0.098994
H	-2.233374552	-2.7511583938	-0.4417715308	 0.09747
6.3487	32.5818	76.3261	93.4332	183.8541	232.434	263.8216	314.2892	327.5094	408.6171	436.1288	514.3537	521.916	573.7317	781.016	806.9993	841.8058	897.5043	922.5414	925.1418	971.3449	1002.6634	1023.9825	1049.0318	1053.9819	1054.0626	1116.9355	1149.6389	1180.0205	1200.779	1220.2529	1268.5797	1278.9267	1288.6747	1308.3588	1323.2971	1351.6042	1374.5066	1384.3512	1411.8131	1415.3591	1479.7722	1479.986	1488.484	1490.2781	1496.9553	1498.9661	1512.7499	2368.5371	2996.5297	2999.6478	3022.9303	3023.5305	3032.2866	3038.7911	3063.9339	3077.3921	3082.3571	3082.7413	3088.2138	3092.778	3094.5223	3108.5554
CC#CC1CCC(C)C1	CC#C[C@H]1CC[C@@H](C)C1	
InChI=1S/C9H14/c1-3-4-9-6-5-8(2)7-9/h8-9H,5-7H2,1-2H3	InChI=1S/C9H14/c1-3-4-9-6-5-8(2)7-9/h8-9H,5-7H2,1-2H3/t8-,9+/m1/s1
