18
gdb 116705	2.69053	1.01649	0.8257	2.3135	81.33	-0.2533	-0.0048	0.2485	1430.3456	0.146717	-398.109852	-398.100559	-398.099615	-398.144798	33.144	
C	 0.0392996155	 0.7829976435	-1.065825302	-0.399167
C	-0.7083898273	 0.3811911192	 0.2077053022	-0.110755
N	-1.7093343766	-0.6733875044	 0.1298477222	-0.195448
C	-1.9253726694	-1.27780732	-0.9558779496	 0.050555
N	-2.8159794328	-2.3682677925	-1.0239126579	-0.084088
C	-4.0078841999	-2.3702028369	-0.214829477	-0.223824
C	-4.1061495135	-2.2340738625	-1.7130535374	-0.164038
C	-4.495835528	-0.9643185524	-2.2777857349	 0.294915
N	-4.7970102137	 0.0422231145	-2.7613639953	-0.327497
H	 0.7372327172	 1.5940621285	-0.8380875517	 0.11793
H	 0.6213294965	-0.0479348688	-1.478346815	 0.122219
H	-0.6446216567	 1.1411275576	-1.8424084076	 0.131528
H	 0.0122892723	 0.0743473008	 0.9775551942	 0.117057
H	-1.2168522362	 1.2592479393	 0.6266573859	 0.120152
H	-1.4335227651	-1.087253091	-1.9133163657	 0.109128
H	-4.2814611678	-3.3203967625	 0.2331977377	 0.138743
H	-4.1983741611	-1.4845092664	 0.3837090969	 0.157733
H	-4.3974839533	-3.092942036	-2.310876935	 0.144857
53.564	66.1036	152.3537	190.7407	203.3283	233.3736	283.7232	304.2427	398.4639	484.2612	544.46	586.926	631.524	778.8724	779.9084	850.1809	903.2456	937.0482	986.2673	1030.541	1058.2175	1077.4831	1101.9389	1129.7222	1137.0848	1147.7878	1162.1018	1312.753	1344.1109	1371.3148	1377.8956	1387.969	1413.204	1477.3763	1496.4308	1501.4748	1506.9642	1741.1506	2353.9328	3019.4216	3034.892	3041.3776	3092.6426	3104.7332	3110.4226	3124.5444	3154.4696	3220.6789
CCN=CN1CC1C#N	CCN=CN1C[C@H]1C#N	
InChI=1S/C6H9N3/c1-2-8-5-9-4-6(9)3-7/h5-6H,2,4H2,1H3	InChI=1S/C6H9N3/c1-2-8-5-9-4-6(9)3-7/h5-6H,2,4H2,1H3/t6-,9?/m1/s1
