17
gdb 68907	2.62531	1.61972	1.22736	5.2993	68.31	-0.2725	0.0415	0.314	1050.1975	0.134499	-459.010897	-459.002645	-459.0017	-459.043398	31.362	
C	-0.0905923615	 1.5139739431	-0.0949099118	-0.471923
C	 0.0142646415	 0.0251179503	 0.0436306888	 0.353819
C	 1.2514139709	-0.7926113599	-0.2644758827	-0.406263
C	 0.6699611645	-0.7712487294	 1.1339523094	 0.353816
C	 1.3831756839	-0.2760210359	 2.3558173816	-0.471924
O	-0.2323075342	-1.8367628937	 1.4025864083	-0.276045
C	-1.3225707691	-1.7394493885	 0.5918879837	 0.470275
O	-2.2346366334	-2.5010713979	 0.5840967753	-0.367503
O	-1.2080531851	-0.651677533	-0.2199091779	-0.276044
H	 0.8536648424	 1.9899823565	 0.1814313236	 0.128458
H	-0.3173626544	 1.7880188705	-1.1297694743	 0.144957
H	-0.8827851913	 1.9095158571	 0.5475642693	 0.139371
H	 1.1440820705	-1.694075459	-0.8583469838	 0.138681
H	 2.1736702459	-0.2420121844	-0.4169487195	 0.127538
H	 2.0125335138	 0.5825423783	 2.1081349828	 0.128458
H	 0.6689259782	 0.0250792226	 3.1278167658	 0.139368
H	 2.0265471673	-1.0591651668	 2.7683917913	 0.144961
137.3431	188.7951	189.104	202.4824	203.9864	319.3567	353.8884	448.5991	473.2964	525.3465	604.6204	646.2243	745.3994	775.6466	785.9534	877.0243	922.4566	941.598	961.5908	972.3229	1031.4607	1038.8144	1095.7541	1123.3687	1136.5208	1226.7607	1256.9309	1305.5923	1397.212	1417.9552	1431.5972	1473.8658	1475.618	1486.4948	1495.0205	1514.1444	1928.5084	3043.709	3045.8056	3113.0667	3113.9364	3124.3326	3127.017	3132.7141	3226.8818
CC12CC1(C)OC(=O)O2	C[C@@]12C[C@]1(C)OC(=O)O2	
InChI=1S/C6H8O3/c1-5-3-6(5,2)9-4(7)8-5/h3H2,1-2H3	InChI=1S/C6H8O3/c1-5-3-6(5,2)9-4(7)8-5/h3H2,1-2H3/t5-,6+
