21
gdb 73528	2.44043	2.05394	1.33495	0.7843	88.49	-0.2186	-0.0001	0.2185	1021.6704	0.184216	-349.898079	-349.890585	-349.889641	-349.929269	31.709	
C	 0.0801588144	 1.4358927824	 0.0577485515	-0.473858
C	-0.0235048639	-0.0801116637	-0.028975156	 0.369084
C	 1.0187533967	-0.7160900197	-0.9765097988	-0.282805
C	 0.3138293313	-1.6939527681	-1.9799372861	-0.243627
C	-0.3493241885	-2.6833374843	-1.0570272849	-0.130244
C	-1.1489967109	-2.1528848505	-0.1288070091	 0.150186
C	-0.9088245124	-2.214504696	 1.3709946317	-0.294854
C	-0.6976971344	-0.6737627598	 1.2484317286	-0.098739
C	-1.4101299016	-0.6512552222	-0.0923824831	-0.185627
H	 1.0248280494	 1.7447108497	 0.5199340616	 0.117754
H	 0.038176119	 1.8864060052	-0.9407836828	 0.11483
H	-0.7367750319	 1.862101773	 0.6489519689	 0.112994
H	 1.5315321898	 0.0845709313	-1.5241206876	 0.090137
H	 1.7935512453	-1.2652660386	-0.4304277817	 0.101748
H	-0.3973769185	-1.1268167769	-2.5894161794	 0.109976
H	 1.0354766037	-2.1593489136	-2.6562490715	 0.094418
H	 0.1403138071	-3.6394424752	-0.8834319134	 0.086271
H	-1.8001856132	-2.3843743731	 1.9867057748	 0.104452
H	-0.0914645879	-2.8517504741	 1.7244261227	 0.093604
H	-0.8630243458	-0.000014253	 2.0842527296	 0.081688
H	-2.3038807177	-0.1202195827	-0.3981624749	 0.082611
181.14	229.9925	269.5036	283.813	351.0964	402.8258	454.3459	467.7802	501.7222	607.2814	696.6714	725.4827	816.3629	840.0577	841.6479	869.0898	880.953	898.2442	938.7388	958.301	986.2569	998.5379	1033.9672	1054.7581	1067.0342	1074.0194	1094.1402	1115.9281	1154.6211	1193.832	1200.987	1231.5545	1250.0369	1271.1416	1301.6236	1329.6948	1343.2035	1370.9109	1414.4674	1484.6717	1487.4516	1492.1209	1496.8433	1499.0889	1690.8222	3019.9127	3023.0364	3026.3722	3047.9611	3067.3954	3076.8026	3081.6585	3096.5285	3100.0738	3145.704	3146.9388	3176.1112
CC12CCC=C3CC1C23	C[C@@]12CC[CH][C]3C[C@@H]1[C@@H]23	
InChI=1S/C9H12/c1-9-4-2-3-6-5-7(9)8(6)9/h3,7-8H,2,4-5H2,1H3	InChI=1S/C9H12/c1-9-4-2-3-6-5-7(9)8(6)9/h3,7-8H,2,4-5H2,1H3/t7-,8+,9-/m1/s1
