15
gdb 130318	3.16138	1.2845	0.91636	4.7911	71.13	-0.2138	0.001	0.2148	1193.5221	0.114657	-450.115915	-450.107866	-450.106921	-450.148756	29.936	
N	 0.1660256189	 1.3925063363	 0.0851154787	-0.605441
C	 0.0352569406	 0.003292443	 0.0149420375	 0.313672
N	-1.1270787833	-0.6040421005	 0.0194414757	-0.211336
O	-0.8347804817	-1.9650768012	 0.0166542943	-0.180916
C	 0.5018770735	-2.1385115434	 0.0008502499	 0.03029
C	 1.1201933115	-0.926432003	 0.0102811797	 0.177692
N	 2.4625058007	-0.5576123342	 0.0353101293	-0.414177
C	 3.5193822173	-1.430341028	 0.0054492524	 0.075355
N	 3.3648779598	-2.6871693952	-0.1474948982	-0.458311
H	 0.6781728093	 1.771212801	-0.7047030084	 0.25268
H	-0.7443818647	 1.836575799	 0.1323934552	 0.26277
H	 0.8756105925	-3.1457527487	-0.0132084848	 0.178655
H	 2.6476334559	 0.3892191569	 0.3259430986	 0.257985
H	 4.4776557255	-0.9100371624	 0.1134227462	 0.094846
H	 4.267735434	-3.1542920096	-0.1711103759	 0.226236
73.6648	162.6457	201.0428	242.9325	259.6406	301.2368	415.9189	462.931	488.7891	590.7004	597.5084	705.8019	714.58	798.571	827.0494	834.5659	867.7868	927.1283	951.7635	1035.022	1104.4582	1131.5716	1168.7734	1231.05	1235.9896	1297.564	1408.3726	1474.5474	1531.265	1582.8074	1640.0661	1691.4711	1719.778	3058.179	3322.3803	3511.0756	3522.1494	3600.9766	3637.0072
NC1=NOC=C1NC=N	Nc1nocc1NC=N	
InChI=1S/C4H6N4O/c5-2-7-3-1-9-8-4(3)6/h1-2H,(H2,5,7)(H2,6,8)	InChI=1S/C4H6N4O/c5-2-7-3-1-9-8-4(3)6/h1-2H,(H2,5,7)(H2,6,8)
