13
gdb 21119	1.85423	1.50779	0.85569	3.6998	66.62	-0.2392	-0.0377	0.2015	1254.4052	0.089025	-394.815606	-394.804688	-394.803743	-394.855921	31.506	
C	 0.21210045	 1.2462215405	 0.1691281506	-0.334571
N	-0.3657306129	-0.0119808167	-0.2631778754	-0.265086
C	 0.1096658998	-1.1039067654	-0.3984698313	 0.458953
C	 0.5387888057	-2.3451034327	-0.6138908857	-0.375746
C	 1.1049399495	-2.7340346146	-1.9022275159	 0.152111
O	 1.2565122371	-2.0091843844	-2.8645979362	-0.302381
N	 0.8988146711	 0.8462251235	-4.5109658598	 0.008535
N	 0.8348813628	 1.0510335712	-3.4337577276	-0.01049
H	-0.4292277725	 1.6818415362	 0.9386831535	 0.152599
H	 1.2287245972	 1.1268637936	 0.5562065279	 0.143209
H	 0.2272982246	 1.9232299276	-0.6882798029	 0.171435
H	 0.4677795151	-3.0742811497	 0.1844973485	 0.130365
H	 1.4062588925	-3.8033349892	-1.9406566357	 0.071065
16.6836	42.0133	51.8326	57.7273	75.0089	104.2475	113.6481	154.8231	216.8925	278.9366	448.9484	617.57	694.2636	754.8228	881.1455	999.9742	1024.8955	1133.4839	1144.3872	1201.5693	1429.2035	1436.0776	1449.8288	1487.7732	1495.9205	1761.1743	2183.8585	2434.5956	2892.6735	3040.099	3122.5773	3132.7372	3198.2211	16.6834	42.0124	51.8322	57.7266	75.0082	104.2441	113.6472	154.8233	216.8923	278.9364	448.9484	617.57	694.2633	754.8225	881.1452	999.9739	1024.8944	1133.4842	1144.3876	1201.5689	1429.2024	1436.0777	1449.829	1487.774	1495.9212	1761.1738	2183.8584	2434.5955	2892.6732	3040.099	3122.5772	3132.7372	3198.2211
CN=C1C=CON=N1	C[N][C][CH]C=O.N#N	
InChI=1S/C4H5N3O/c1-5-4-2-3-8-7-6-4/h2-3H,1H3	InChI=1S/C4H5NO.N2/c1-5-3-2-4-6;1-2/h2,4H,1H3;
