19
gdb 70357	2.83071	1.68297	1.39296	1.2084	73.86	-0.2359	0.0664	0.3023	1000.1464	0.159983	-422.994386	-422.986769	-422.985825	-423.026325	30.128	
C	-0.1696373714	 1.4874340669	 0.0312389193	-0.498615
C	 0.0416154457	-0.0078587024	 0.0002806927	 0.315461
C	-0.7607113359	-0.9388628907	 0.8952226856	-0.362342
C	 0.7184853459	-0.7843040546	 1.104119145	 0.059421
O	 1.589096273	-1.7656809765	 0.5903990739	-0.270905
C	 1.5894131762	-1.7210288235	-0.8251460476	 0.064372
C	 0.6705919495	-2.72146047	-1.5509020743	-0.107965
O	-0.2760120893	-1.6774702666	-1.8798639356	-0.288419
C	 0.5588484004	-0.6572493587	-1.2775633436	 0.005336
H	 0.7178818738	 2.0253193911	-0.3218735566	 0.11845
H	-1.0139862922	 1.7828062944	-0.6019560981	 0.127575
H	-0.3834501934	 1.8338880994	 1.047091602	 0.118123
H	-1.4190701879	-0.4725412935	 1.6215726148	 0.110579
H	-1.1396951068	-1.8549121376	 0.4579546075	 0.131833
H	 1.1070007488	-0.3171150826	 2.0031284285	 0.099094
H	 2.6205438821	-1.662652767	-1.1834633646	 0.088741
H	 1.100233561	-3.1740823185	-2.4528276753	 0.103296
H	 0.2399832284	-3.5008454908	-0.9126935686	 0.110643
H	 0.869603952	 0.0871792811	-2.0177433951	 0.075323
100.8885	182.2054	200.7068	267.4013	294.0384	386.631	445.8858	493.2785	575.8057	670.637	737.5616	794.3735	843.7124	852.2032	885.8307	915.9167	958.0186	968.8483	989.6624	1012.3525	1027.3535	1037.8407	1069.344	1092.4169	1101.2138	1128.1932	1155.399	1179.5963	1226.6787	1242.0698	1270.4131	1296.0265	1320.9429	1351.3062	1365.6718	1411.6812	1420.7	1486.8051	1491.0046	1500.6298	1511.1956	3021.6087	3023.9051	3054.2638	3071.0119	3081.523	3084.5817	3099.705	3133.2553	3164.8418	3227.4279
CC12CC1OC1COC21	C[C@]12C[C@H]1O[C@H]1CO[C@@H]21	
InChI=1S/C7H10O2/c1-7-2-5(7)9-4-3-8-6(4)7/h4-6H,2-3H2,1H3	InChI=1S/C7H10O2/c1-7-2-5(7)9-4-3-8-6(4)7/h4-6H,2-3H2,1H3/t4-,5+,6+,7-/m0/s1
