18
gdb 116126	2.59071	1.30548	0.9077	1.9833	70.08	-0.2607	0.0105	0.2712	1251.2142	0.14837	-476.219492	-476.210962	-476.210018	-476.253162	31.613	
O	 0.0135306119	 1.3982709544	 0.0369388084	-0.41921
C	 0.0361548144	-0.0111809264	 0.0904667826	-0.067637
C	-1.3554237546	-0.6068993528	-0.0829109388	 0.086784
C	-1.3985478465	-2.1242684163	-0.0353201758	-0.111299
O	-2.7425199289	-2.5623810344	-0.0566179093	-0.239974
C	-3.4248281423	-2.1354829589	 1.1056289982	-0.159437
C	-3.311209124	-0.6465094343	 1.3712985619	 0.369187
N	-4.2151142639	-0.0420782062	 2.0136963107	-0.498817
O	-2.1534616817	-0.0357487419	 0.9834278369	-0.282281
H	-0.6400806178	 1.6856273162	 0.6848922545	 0.293168
H	 0.6818040552	-0.3512864486	-0.7261082688	 0.11637
H	 0.4660771986	-0.3763572626	 1.0372751159	 0.095237
H	-1.7854312899	-0.2614834783	-1.0318448752	 0.106245
H	-0.9088730107	-2.5431905489	-0.9187227162	 0.124958
H	-0.8808457587	-2.4976877397	 0.8644416257	 0.097908
H	-4.4775546514	-2.3922828298	 0.9899490811	 0.150843
H	-3.0357997826	-2.6649691459	 1.9926168823	 0.118395
H	-3.9587578071	 0.9366699144	 2.160043426	 0.21956
87.6011	95.532	120.4634	195.6441	302.3543	364.1585	415.8607	424.4051	444.4895	480.4684	519.4399	556.9412	656.831	818.2637	900.4004	920.1133	932.2404	978.7837	1020.1009	1078.3085	1094.6387	1098.2657	1119.6376	1142.3216	1165.7119	1232.2058	1251.703	1288.5072	1318.1512	1327.1955	1373.5768	1389.4504	1405.0081	1421.0673	1441.558	1474.7837	1488.273	1497.8788	1759.8388	2961.6066	2967.3882	2978.9939	3036.0032	3077.3879	3097.5668	3140.0553	3462.1024	3803.4979
OCC1COCC(=N)O1	OC[C@H]1COC[C]([NH])O1	
InChI=1S/C5H9NO3/c6-5-3-8-2-4(1-7)9-5/h4,6-7H,1-3H2	InChI=1S/C5H9NO3/c6-5-3-8-2-4(1-7)9-5/h4,6-7H,1-3H2/t4-/m0/s1
