15
gdb 28625	5.10777	1.03168	0.85859	5.3989	82.96	-0.2274	-0.0495	0.1779	1261.1521	0.11466	-416.891301	-416.883672	-416.882728	-416.923387	28.906	
N	-0.0300482719	 1.3704785101	 0.1173933208	-0.556687
C	 0.0252459974	 0.0076586771	 0.0472170855	 0.405276
N	-1.1631444989	-0.6256397017	 0.041143912	-0.337025
C	-1.1548535585	-1.9517096256	 0.0156808885	-0.042497
C	 0.0068151926	-2.7338111496	-0.0104423486	 0.133524
C	-0.0613534482	-4.1992860339	-0.0426614587	 0.082813
O	-1.0819835089	-4.8524959035	-0.0487454917	-0.28255
C	 1.2343591121	-2.0564473449	-0.008570708	-0.146188
C	 1.257807112	-0.6792778083	 0.0209363657	-0.188546
H	 0.7771037178	 1.9130189295	-0.1377078514	 0.260358
H	-0.9325483703	 1.7833811758	-0.0557553803	 0.266017
H	-2.1210477659	-2.4493805932	 0.0113795658	 0.137946
H	 0.9358153209	-4.6984396833	-0.0621233815	 0.060563
H	 2.1625398544	-2.6217016375	-0.0306091599	 0.111705
H	 2.1917421154	-0.1280167209	 0.028159032	 0.095293
100.8131	182.394	192.2617	316.9343	347.7163	380.7489	426.8489	438.8766	480.0482	548.4852	624.8093	655.0738	786.9398	813.0759	843.1588	878.3548	975.5507	999.6015	1027.3289	1043.9754	1056.8486	1162.817	1238.2582	1321.8348	1338.0881	1368.5651	1424.2821	1455.528	1527.5035	1596.575	1630.7778	1650.4054	1789.2096	2854.0577	3163.3471	3173.1419	3187.5569	3601.1585	3727.1837
NC1=NC=C(C=O)C=C1	Nc1ncc(C=O)cc1	
InChI=1S/C6H6N2O/c7-6-2-1-5(4-9)3-8-6/h1-4H,(H2,7,8)	InChI=1S/C6H6N2O/c7-6-2-1-5(4-9)3-8-6/h1-4H,(H2,7,8)
