17
gdb 96781	2.78031	1.61857	1.17973	1.2996	75.63	-0.2307	0.0204	0.2511	1061.5477	0.135553	-417.921483	-417.913503	-417.912559	-417.953832	30.599	
C	-0.0571386827	 1.3977146667	-0.0305230745	-0.340612
N	-0.0451605926	-0.0473299911	-0.2154352195	-0.371943
C	-1.1243264657	-0.6786104619	-0.1558048089	 0.355749
N	-2.5257151405	-0.2842569279	 0.1906176772	-0.223846
C	-3.2638604917	-0.7490760751	-1.064249621	-0.185338
C	-2.9271179774	-2.1787461837	-0.6685581767	-0.126197
C	-2.6889191807	-1.7124092087	 0.7346151985	-0.112425
C	-1.4839998728	-2.1149545245	-0.131730775	 0.312475
O	-0.6977600533	-3.231800636	-0.1306428219	-0.455028
H	 0.6714895596	 1.6634705183	 0.7429664827	 0.12434
H	 0.2750429183	 1.8793224298	-0.9571019076	 0.126632
H	-1.0400236229	 1.7941357139	 0.2484862817	 0.132874
H	-4.327187813	-0.5131501834	-0.9739164557	 0.117441
H	-2.8604538263	-0.3409019239	-1.9971568384	 0.114108
H	-3.3314505641	-3.1257464692	-1.0059145238	 0.10979
H	-3.0076311309	-1.9838989068	 1.7293524159	 0.119002
H	 0.0739069166	-3.0448628264	 0.417633987	 0.302978
111.17	160.7605	180.2188	253.5776	270.1589	322.3911	353.4968	475.4491	529.6687	605.2554	703.2171	734.5721	760.7818	825.9851	854.7016	894.9681	921.9534	935.3278	944.6919	983.9518	1013.2687	1062.3948	1097.4531	1126.0964	1133.8194	1164.0602	1167.9244	1184.7861	1278.6881	1299.2215	1357.1777	1433.1699	1459.5796	1491.9842	1497.469	1507.3133	1838.4658	3017.9414	3044.2794	3082.8389	3092.9327	3107.9461	3189.8296	3239.5451	3790.3515
CN=C1N2CC3C2C13O	CN=C1N2C[C@@H]3[C@H]2[C@]13O	
InChI=1S/C6H8N2O/c1-7-5-6(9)3-2-8(5)4(3)6/h3-4,9H,2H2,1H3	InChI=1S/C6H8N2O/c1-7-5-6(9)3-2-8(5)4(3)6/h3-4,9H,2H2,1H3/t3-,4+,6+/m1/s1
