19
gdb 68848	2.40996	1.86148	1.44744	2.0174	74.36	-0.2208	0.0748	0.2956	985.5134	0.158283	-422.996807	-422.988572	-422.987628	-423.028918	32.963	
C	-0.1268128345	 1.4843000615	 0.0436416694	-0.462449
C	 0.0013377861	-0.009752051	 0.0998424737	 0.385688
C	 1.3239727134	-0.7111410792	-0.1773650535	-0.414492
C	 0.6864732594	-0.765113117	 1.2016770915	 0.32538
O	 1.2529873234	-0.0609601047	 2.2649959523	-0.475202
C	-0.1668427182	-1.9770626543	 1.4626266094	-0.150095
C	-1.5664540543	-1.6688899182	 1.9664669836	-0.330118
C	-1.3078054082	-1.8471184242	 0.4942040046	 0.110019
O	-1.1693227047	-0.6952284605	-0.3106358391	-0.30083
H	 0.7610441385	 1.9548919567	 0.4719937597	 0.13015
H	-0.2425746007	 1.8258338013	-0.9899344145	 0.124488
H	-1.0018240486	 1.8144677383	 0.6117440813	 0.125176
H	 1.3260901979	-1.6054335106	-0.7914044823	 0.112989
H	 2.1899869979	-0.065909203	-0.2833760035	 0.112851
H	 2.0574390955	-0.5191078646	 2.5318331037	 0.282079
H	 0.2993370166	-2.9324968395	 1.6842328253	 0.084642
H	-2.0995790049	-2.4626586737	 2.4785592008	 0.111755
H	-1.7633712992	-0.6694717029	 2.33845335	 0.128359
H	-1.7302299155	-2.6856288145	-0.0466820025	 0.099611
146.9909	183.8404	198.5041	215.1361	279.1288	362.8847	400.9624	431.6006	476.7819	493.808	561.9922	664.6165	721.5322	765.615	800.2433	830.6698	884.5659	921.906	944.8133	948.6384	978.3013	1013.0812	1027.0541	1046.3748	1060.8802	1106.1928	1119.2428	1144.607	1150.0492	1194.2986	1242.1474	1260.461	1286.2705	1360.2921	1381.6277	1401.5413	1423.8515	1471.7382	1476.2045	1483.3727	1505.5858	3041.4772	3105.3813	3126.3224	3131.4833	3133.7469	3146.9903	3182.654	3222.747	3225.008	3795.0062
CC12CC1(O)C1CC1O2	C[C@@]12C[C@]1(O)[C@H]1C[C@H]1O2	
InChI=1S/C7H10O2/c1-6-3-7(6,8)4-2-5(4)9-6/h4-5,8H,2-3H2,1H3	InChI=1S/C7H10O2/c1-6-3-7(6,8)4-2-5(4)9-6/h4-5,8H,2-3H2,1H3/t4-,5+,6+,7-/m0/s1
