27
gdb 94540	2.29652	1.23359	1.0528	0.1101	95.32	-0.2744	0.0703	0.3446	1366.0525	0.250804	-353.557365	-353.546613	-353.545669	-353.592196	42.017	
C	 1.0968229187	 1.6513793244	-0.5814235041	-0.39795
C	 1.1248331274	 0.1533740652	-0.2804981318	-0.019315
C	 2.474756957	-0.5145783482	-0.6842759632	-0.222228
C	 2.9106389817	-0.4887839604	 0.803811124	-0.256078
C	 1.4128685425	-0.3380576242	 1.1877581883	 0.076562
C	 0.9597908908	 0.3564212359	 2.4912344958	 0.22232
C	 1.5512343303	 1.7647849126	 2.6936868128	-0.414005
C	-0.5786938233	 0.4426487675	 2.5009054372	-0.406362
C	 1.4171118964	-0.5290228916	 3.670051659	-0.398435
H	 1.9835258911	 2.1681109834	-0.2012212178	 0.116365
H	 1.0718299023	 1.8046120497	-1.6666905445	 0.108896
H	 0.2142703877	 2.1443731523	-0.1615567897	 0.115062
H	 0.2351378689	-0.304651446	-0.7248354507	 0.062317
H	 2.3374127825	-1.5352290927	-1.0520925291	 0.095773
H	 3.0957480824	 0.0314034183	-1.4000769254	 0.089603
H	 3.4497630228	-1.3559373281	 1.1935920059	 0.091544
H	 3.4931316845	 0.4081462854	 1.0336974583	 0.100228
H	 0.9958009525	-1.3533546766	 1.2348991704	 0.065008
H	 1.190662615	 2.4776804775	 1.9499933069	 0.113004
H	 1.2677203215	 2.1498614545	 3.6797332813	 0.104354
H	 2.6451373106	 1.7552483571	 2.6521517271	 0.108392
H	-1.0301682782	-0.5505816574	 2.3977932015	 0.105397
H	-0.9406924727	 0.8762046756	 3.4399978999	 0.105364
H	-0.9528699861	 1.0654811623	 1.6821779172	 0.113088
H	 2.5081879839	-0.6203714279	 3.69930476	 0.111748
H	 1.0932991464	-0.1032705631	 4.6261612125	 0.104515
H	 0.9988364832	-1.5388715957	 3.5946982782	 0.104831
70.0717	122.6005	167.8094	217.7925	235.8367	249.0153	277.9874	279.6562	302.6496	322.4891	358.3208	360.1588	399.5002	460.0763	548.4361	635.5927	729.2365	791.3096	815.9661	889.3631	915.0679	928.7149	933.9979	954.6156	957.6745	958.0915	1002.2146	1021.819	1036.9883	1065.9747	1105.0505	1122.96	1165.7997	1207.7817	1222.9069	1245.0494	1254.3124	1266.5874	1276.9623	1287.8618	1299.0457	1372.7886	1382.848	1396.0406	1401.1706	1411.5299	1433.8745	1478.9232	1483.4552	1484.9609	1485.878	1496.7836	1499.8327	1502.1047	1507.1548	1514.1855	1520.8649	2999.3843	3021.6651	3025.4066	3027.4436	3036.8997	3040.2469	3050.6709	3057.994	3087.1315	3087.3024	3089.1419	3093.5344	3094.7859	3095.812	3098.7629	3104.2576	3112.2749	3131.6189
CC1CCC1C(C)(C)C	C[C@H]1CC[C@H]1C(C)(C)C	
InChI=1S/C9H18/c1-7-5-6-8(7)9(2,3)4/h7-8H,5-6H2,1-4H3	InChI=1S/C9H18/c1-7-5-6-8(7)9(2,3)4/h7-8H,5-6H2,1-4H3/t7-,8+/m0/s1
