23
gdb 111409	1.86646	1.49041	0.96033	1.1776	85.17	-0.2494	0.0752	0.3246	1328.7927	0.205653	-388.257621	-388.247957	-388.247013	-388.292181	36.58	
C	 1.2387650276	 0.637107916	 1.0374944609	-0.385488
C	 0.1299184539	 0.3693618252	 0.0145911059	-0.191075
C	 0.6528195787	-0.3216160322	-1.2431204516	 0.018255
C	 1.0990351917	-1.7937161771	-1.1576994486	-0.053088
C	-0.0645140437	-2.703020295	-0.8808999426	-0.284812
C	 0.1288584474	-2.1777247956	-2.277915417	-0.079815
C	-0.3341572439	-0.7215561278	-2.4093066615	-0.00929
C	-1.8190396817	-0.4243954738	-2.300582381	-0.097295
O	-1.9899506418	 0.9826991049	-2.4395014133	-0.422018
H	 1.7192693001	-0.2953233555	 1.353853093	 0.116476
H	 2.0171278223	 1.2838830752	 0.6166618261	 0.111187
H	 0.8466680209	 1.1290844997	 1.933214549	 0.107602
H	-0.6516969102	-0.2401588297	 0.4847394518	 0.084694
H	-0.3527695877	 1.3083895188	-0.278550878	 0.109948
H	 1.4596224011	 0.2886751729	-1.6626630464	 0.069591
H	 2.1196922361	-2.1284151422	-1.0155965947	 0.080572
H	 0.1930871358	-3.749513992	-0.7506733496	 0.108372
H	-0.8979920841	-2.3819002944	-0.262628961	 0.104187
H	 0.2948413398	-2.8490791467	-3.1123486606	 0.081047
H	 0.0173982152	-0.2834949643	-3.3481413916	 0.079818
H	-2.3536287653	-0.9699198528	-3.0961440532	 0.083456
H	-2.2225685306	-0.7759655265	-1.3399192732	 0.082419
H	-2.9201309813	 1.1874195429	-2.3072300828	 0.285255
80.5151	103.1078	127.9418	171.4153	215.8669	233.14	270.5198	297.2995	344.1982	452.6649	507.8988	548.8467	674.0125	743.5622	792.6296	811.473	821.9767	904.8512	933.9058	962.8631	991.6298	1003.107	1023.4182	1047.3292	1051.7649	1069.7065	1077.5284	1085.9283	1111.1469	1128.9499	1165.9609	1176.5702	1224.2574	1245.7099	1259.5427	1275.6896	1282.4186	1313.9957	1339.8283	1361.0804	1373.8648	1396.218	1409.4867	1458.3659	1487.4743	1495.9824	1498.8858	1508.9891	1521.2106	2962.653	3004.1042	3027.1026	3029.9847	3041.5215	3064.2136	3069.2948	3095.9761	3099.7047	3115.0082	3170.1923	3179.0327	3198.643	3829.255
CCC1C2CC2C1CO	CC[C@H]1[C@H]2C[C@H]2[C@H]1CO	
InChI=1S/C8H14O/c1-2-5-6-3-7(6)8(5)4-9/h5-9H,2-4H2,1H3	InChI=1S/C8H14O/c1-2-5-6-3-7(6)8(5)4-9/h5-9H,2-4H2,1H3/t5-,6+,7+,8-/m0/s1
