19
gdb 62869	2.85631	1.87466	1.46706	4.0557	74.25	-0.2398	0.0645	0.3044	943.6117	0.161506	-419.134972	-419.127865	-419.126921	-419.165911	30.269	
C	-0.0200532323	 1.5793879409	 0.0140442802	-0.424398
C	-0.0777120611	 0.0560648702	-0.027887126	 0.435528
O	-1.3874741081	-0.2664513951	-0.3438841111	-0.489531
C	 1.1480479457	-0.6055870464	-0.7834286301	-0.095985
N	 1.9398969188	-0.2247542969	 0.4444305123	-0.310771
C	 0.6849973334	-0.6419193972	 1.1730400295	-0.095985
C	 0.6360359332	-2.1602227518	 0.8608893523	-0.047912
N	-0.3660820996	-2.6082999905	-0.1455506484	-0.369257
C	 0.9769671727	-2.1334690873	-0.5799526272	-0.047918
H	 0.9731126386	 1.9513896219	 0.2560020698	 0.135593
H	-0.332934386	 1.9704597342	-0.9590924696	 0.114925
H	-0.7390536036	 1.9385951136	 0.7569002234	 0.114924
H	-1.4237486094	-1.2423206567	-0.3706405835	 0.300739
H	 1.511560769	-0.2549186605	-1.7499997408	 0.068467
H	 2.703978177	-0.880711916	 0.6130932369	 0.203883
H	 0.5739160374	-0.3284912077	 2.2116891905	 0.068467
H	 1.0255444243	-2.885406809	 1.566638863	 0.100897
H	-0.3920524439	-3.6257160063	-0.1705590751	 0.237438
H	 1.6473859539	-2.8366160495	-1.0614235461	 0.100897
182.6862	199.7079	321.5209	324.6264	423.8977	428.0067	472.5392	554.8296	606.4384	676.0891	719.8562	750.2235	770.5517	813.6777	832.3766	855.0404	893.9632	911.2587	916.5884	933.6664	982.373	1034.6998	1047.6106	1063.9847	1091.5854	1108.8616	1142.6663	1150.6687	1152.7221	1222.7732	1226.1033	1267.7681	1274.4259	1301.3069	1314.6365	1330.1893	1387.2135	1397.0316	1481.3413	1493.5846	1499.7752	3047.3873	3105.9338	3111.8612	3114.4859	3170.4994	3173.1184	3181.226	3435.9416	3484.3989	3509.0793
CC1(O)C2NC1C1NC21	C[C@@]1(O)[C@H]2N[C@@H]1[C@H]1N[C@@H]21	
InChI=1S/C6H10N2O/c1-6(9)4-2-3(7-2)5(6)8-4/h2-5,7-9H,1H3	InChI=1S/C6H10N2O/c1-6(9)4-2-3(7-2)5(6)8-4/h2-5,7-9H,1H3/t2-,3+,4+,5-,6-
