18
gdb 58393	1.87172	1.37868	0.90761	4.2476	74.11	-0.256	0.0029	0.2589	1299.3985	0.146668	-435.296048	-435.285813	-435.284868	-435.331981	35.812	
C	-0.2315705155	 1.4616463396	-0.0554535757	-0.402007
C	-0.0457174387	-0.0592352655	 0.0012459761	 0.02079
N	 0.6251545	-0.5536229623	 1.2032220095	-0.499213
C	-1.4103891515	-0.8015160656	-0.081936621	-0.107888
N	-2.2517467218	-0.3829177661	-1.1943367031	-0.29069
C	-3.3785087059	 0.3627480901	-0.999999496	 0.160049
O	-3.7298910265	 0.8155585463	 0.067027741	-0.315409
C	-1.2096976536	-2.2569989707	-0.1467289173	 0.300975
N	-1.0742759706	-3.3974188922	-0.2711335551	-0.322496
H	 0.7393129762	 1.953524293	 0.0571908365	 0.114315
H	-0.6677602284	 1.7877456653	-1.0035313394	 0.122059
H	-0.8888084188	 1.8047246665	 0.7509678094	 0.135717
H	 0.5581056475	-0.3811301266	-0.8562860345	 0.094827
H	 1.6094968839	-0.3100105984	 1.1837352484	 0.238054
H	 0.23265828	-0.1107238621	 2.0302775742	 0.231924
H	-1.9802686413	-0.5614291355	 0.8233252764	 0.160765
H	-2.0739339436	-0.7717917288	-2.1073923775	 0.264139
H	-3.9357262314	 0.519762813	-1.942452552	 0.09409
48.3818	59.5504	138.2285	158.4363	184.3134	219.4417	229.5214	294.8177	314.2321	366.2322	431.7111	465.4732	520.5953	542.7376	574.2694	748.9341	840.6579	884.7341	933.4225	998.0322	1029.3623	1032.913	1059.6957	1110.8642	1168.072	1195.5189	1219.4582	1309.8484	1334.2894	1373.8535	1402.1468	1411.1613	1425.0041	1484.6325	1499.1683	1515.503	1661.1841	1802.8187	2363.091	2962.6643	3033.2089	3037.9523	3064.2124	3110.6041	3117.9082	3489.7272	3578.3062	3632.9004
CC(N)C(NC=O)C#N	C[C@@H](N)[C@@H](NC=O)C#N	
InChI=1S/C5H9N3O/c1-4(7)5(2-6)8-3-9/h3-5H,7H2,1H3,(H,8,9)	InChI=1S/C5H9N3O/c1-4(7)5(2-6)8-3-9/h3-5H,7H2,1H3,(H,8,9)/t4-,5+/m1/s1
