14
gdb 15024	2.52228	1.9904	1.16578	4.3178	68.1	-0.2663	-0.0023	0.264	980.2603	0.105546	-341.513024	-341.5051	-341.504156	-341.545651	28.388	
C	-0.1840822597	-1.0983886258	 0.0475924427	-0.408973
C	-0.0477277306	 0.0928421863	 0.0150730478	 0.359209
C	 0.0867937816	 1.5510904333	-0.003248077	-0.326708
C	 1.50945809	 1.9516262647	-0.0000203404	 0.319922
N	 2.612611149	 2.2900361921	 0.0270810299	-0.317605
N	-0.5701365672	 2.1246104963	-1.1847918269	-0.055589
C	-2.0064591101	 2.3569925473	-1.0363277743	-0.217321
C	-1.051305042	 3.4981757386	-1.0254612274	-0.218606
H	-0.2938629217	-2.1550190302	 0.068069332	 0.212777
H	-0.3475696435	 1.9472692123	 0.9352256752	 0.133804
H	-2.6015911355	 2.1379163309	-1.9167484853	 0.133812
H	-2.4723338504	 2.0855187609	-0.0910075932	 0.124005
H	-0.8756923406	 3.9950233019	-0.0731451661	 0.125279
H	-0.9300813592	 4.1313132813	-1.8980689971	 0.135994
74.7754	126.3578	155.549	179.763	339.1399	349.9798	367.2195	512.9459	533.9274	573.3694	651.2417	680.7328	768.6781	869.3056	906.8273	913.6633	1005.7266	1027.8051	1077.7644	1114.1896	1123.4356	1176.1738	1178.538	1304.6586	1321.6368	1325.3556	1493.7694	1519.5909	2252.851	2371.5124	2911.0272	3106.0859	3110.5646	3195.3374	3208.5911	3501.1831
C#CC(C#N)N1CC1	C#C[C@@H](C#N)N1CC1	
InChI=1S/C6H6N2/c1-2-6(5-7)8-3-4-8/h1,6H,3-4H2	InChI=1S/C6H6N2/c1-2-6(5-7)8-3-4-8/h1,6H,3-4H2/t6-/m0/s1
