18
gdb 28014	4.66983	1.00332	0.86421	1.7441	79.26	-0.184	0.0434	0.2274	1326.8761	0.148464	-401.957811	-401.949532	-401.948587	-401.991004	31.763	
O	 1.1432790118	 0.9957980281	 0.1704810257	-0.448933
C	 0.4038877188	-0.1512493942	 0.101348166	 0.301069
C	 0.5882857924	-1.1297693632	-0.8470201027	-0.188338
N	-0.319765412	-2.1415483749	-0.5823638038	 0.01893
C	-1.0760545885	-1.7934150356	 0.504214138	-0.07033
C	-0.6508863154	-0.5651788124	 0.9618603271	-0.317458
C	-0.5462526418	-3.2751069016	-1.4247811828	 0.025905
C	 0.5811591967	-4.2458265984	-1.6600364041	-0.268324
C	-0.5950177365	-4.6459263087	-0.8044694957	-0.274216
H	 0.8181181074	 1.5191379116	 0.9081237877	 0.294028
H	 1.2800495546	-1.1967440245	-1.6688802421	 0.116044
H	-1.8559319084	-2.4470581493	 0.8598804006	 0.117407
H	-1.0356587703	-0.0347612892	 1.8205827779	 0.087346
H	-1.2155533503	-3.0880206753	-2.2615128086	 0.106814
H	 0.6788443974	-4.676507059	-2.6497710397	 0.119664
H	 1.5182548604	-4.0437030906	-1.1552608512	 0.13167
H	-0.4327866446	-4.712118098	 0.264670032	 0.128962
H	-1.3140709917	-5.353565255	-1.2005409444	 0.119761
63.5256	106.4526	177.958	211.6227	303.9437	356.7243	383.0037	495.8411	578.7758	622.7495	632.9765	670.189	700.9467	749.2947	774.4418	786.3552	836.7249	892.4171	962.5936	1001.1419	1005.7962	1060.7653	1080.8215	1085.5005	1095.7124	1132.1795	1172.8742	1197.9338	1206.8275	1247.2507	1290.3564	1365.2362	1393.994	1417.7466	1453.5017	1462.4542	1501.0953	1537.9763	1644.5271	3121.3259	3143.3876	3147.8085	3227.24	3232.7157	3240.8053	3267.7756	3280.6681	3846.0016
OC1=CN(C=C1)C1CC1	Oc1cn(cc1)C1CC1	
InChI=1S/C7H9NO/c9-7-3-4-8(5-7)6-1-2-6/h3-6,9H,1-2H2	InChI=1S/C7H9NO/c9-7-3-4-8(5-7)6-1-2-6/h3-6,9H,1-2H2
