18
gdb 53050	3.58396	0.97371	0.87074	1.2012	82.35	-0.2245	0.0272	0.2516	1394.9567	0.146974	-401.872148	-401.863221	-401.862276	-401.90744	31.977	
C	 0.0762124742	 1.5208748165	-0.1552884054	-0.504864
C	 0.0286092778	 0.0697938154	-0.0593493035	 0.171523
C	-0.0147486123	-1.1309126503	 0.032552236	-0.029234
C	-0.0620356074	-2.5690540764	 0.1193382504	 0.076752
C	 0.4443614267	-3.3846266242	-1.103293804	-0.113859
O	-0.7452381318	-4.2025946721	-1.1230436025	-0.284351
C	-1.3178595322	-3.5032389438	-0.0099336953	 0.052206
C	-0.919261361	-4.1225020795	 1.3423673772	-0.18631
N	 0.2125438295	-3.1600092312	 1.4525535299	-0.365071
H	 0.8712998606	 1.8516211636	-0.8326596075	 0.148841
H	-0.8700560525	 1.9236507234	-0.5333931047	 0.15085
H	 0.26188086	 1.9755238912	 0.8239824675	 0.152855
H	 0.545781466	-2.8030259391	-2.0268349256	 0.109896
H	 1.3596142787	-3.9663701588	-0.9317437772	 0.095646
H	-2.3442559088	-3.1787350203	-0.1874943611	 0.091148
H	-1.6411769695	-4.0011253941	 2.1579810495	 0.108124
H	-0.6536434163	-5.180924859	 1.2487152028	 0.108001
H	 1.1371319083	-3.5657365314	 1.5568720734	 0.217848
22.4576	84.3957	99.3882	143.0815	265.9596	302.0417	358.2475	380.2733	479.1734	522.0272	527.989	625.789	774.5302	831.9794	895.8396	929.7902	970.4887	975.1461	1006.588	1018.3075	1050.8841	1053.3324	1055.6281	1086.4655	1125.2412	1162.0114	1164.5978	1198.8082	1292.775	1307.7704	1323.1412	1359.573	1370.444	1413.8711	1476.4644	1477.5326	1502.6666	1511.8265	2365.5337	3007.6343	3025.9596	3027.096	3064.1094	3075.4998	3087.4199	3089.8206	3105.7749	3518.6111
CC#CC12COC1CN2	CC#C[C@]12CO[C@H]1CN2	
InChI=1S/C7H9NO/c1-2-3-7-5-9-6(7)4-8-7/h6,8H,4-5H2,1H3	InChI=1S/C7H9NO/c1-2-3-7-5-9-6(7)4-8-7/h6,8H,4-5H2,1H3/t6-,7-/m0/s1
