21
gdb 73084	2.37927	1.7812	1.38678	1.0601	83.53	-0.239	0.0223	0.2613	1046.0756	0.183501	-387.092676	-387.08454	-387.083596	-387.124894	32.706	
C	 0.0210167458	 1.5143591852	-0.056907409	-0.462822
C	-0.0132263095	-0.0023119185	 0.0482894225	 0.405096
C	-1.320485921	-0.6920014229	 0.5139857319	-0.258091
C	-0.4771269351	-1.6742009265	 1.3707694698	-0.243087
C	 0.7321535852	-0.68978796	 1.2324315818	-0.061879
C	 2.0995368431	-1.1982316398	 0.9151085912	-0.084331
C	 2.5747735396	-1.1466311215	-0.3273696666	-0.07617
C	 1.7407359611	-0.6379176491	-1.470991674	-0.131857
O	 0.3525912369	-0.6151362201	-1.1896524574	-0.304234
H	 1.0364807442	 1.8801197861	-0.2449731108	 0.117982
H	-0.6199342475	 1.8502596257	-0.8785810724	 0.121886
H	-0.3315720846	 1.9772199058	 0.869967131	 0.110526
H	-1.9340555994	-0.0250229087	 1.1258093515	 0.09457
H	-1.9304112749	-1.1122735795	-0.2876755635	 0.106996
H	-0.8284895239	-1.8878151216	 2.3823108398	 0.093839
H	-0.2867166745	-2.6151677232	 0.8514329718	 0.111201
H	 0.7649138958	-0.0195234164	 2.0992475576	 0.072138
H	 2.7038750167	-1.5985261876	 1.7257900338	 0.08721
H	 3.5831530469	-1.4745011505	-0.5653967384	 0.090033
H	 2.0998866048	 0.3568180492	-1.7911057076	 0.096996
H	 1.8512328203	-1.297007036	-2.3404174133	 0.113999
103.7104	184.6305	204.8404	230.1362	313.8217	361.1993	373.7311	468.4353	500.1477	532.1248	613.6194	702.6771	717.3331	770.6837	831.238	864.5086	909.1284	928.5427	947.5047	958.251	978.3403	992.2356	1042.6059	1061.4659	1097.1007	1108.3679	1154.7805	1170.0158	1204.748	1210.6569	1242.369	1253.5389	1265.002	1276.2689	1299.8577	1352.1219	1393.4045	1400.5754	1413.8171	1466.6493	1482.7435	1487.758	1489.642	1499.8754	1718.8144	2943.0942	3030.2733	3036.2309	3047.4623	3062.4494	3072.0845	3098.4599	3107.991	3118.7777	3134.5671	3145.3253	3171.7812
CC12CCC1C=CCO2	C[C@]12CC[C@H]1C=CCO2	
InChI=1S/C8H12O/c1-8-5-4-7(8)3-2-6-9-8/h2-3,7H,4-6H2,1H3	InChI=1S/C8H12O/c1-8-5-4-7(8)3-2-6-9-8/h2-3,7H,4-6H2,1H3/t7-,8+/m1/s1
