21
gdb 91073	2.68924	1.5436	1.48719	1.4596	80.34	-0.2367	0.0695	0.3062	1023.9025	0.18529	-387.065671	-387.058095	-387.057151	-387.097466	31.347	
O	-0.6114731944	 1.2417670483	 0.8287763679	-0.415502
C	-0.0852154561	 0.1004609397	 0.1464137042	 0.113264
C	 0.8299043612	-0.7867572248	 1.0411042871	-0.268405
C	 0.0113110361	-2.0203951178	 1.4657619945	-0.009731
C	-0.8320007051	-2.0365122108	 2.7568540394	-0.065689
C	-1.8019553264	-0.8899718885	 2.834418305	-0.304533
C	-2.1239648366	-2.0471506165	 1.9319128319	-0.060477
C	-1.307697763	-2.0233410011	 0.6224848035	-0.016264
C	-1.2778768217	-0.7860319672	-0.2948651409	-0.241096
H	 0.1325159897	 1.7534704817	 1.1622428283	 0.27939
H	 0.4742544058	 0.4551052561	-0.7307457811	 0.065769
H	 1.7028596404	-1.1039533232	 0.4596513263	 0.094575
H	 1.2075981633	-0.2099788395	 1.8928444488	 0.093395
H	 0.5891073629	-2.9418271516	 1.3668587773	 0.065808
H	-0.5864151738	-2.6279772506	 3.6312133057	 0.075774
H	-2.3859176054	-0.8678613376	 3.7501332061	 0.100824
H	-1.5612529295	 0.0878387652	 2.4323957671	 0.139166
H	-3.0124356168	-2.6497458268	 2.0798357597	 0.076542
H	-1.453918436	-2.9445827518	 0.0546254862	 0.064734
H	-2.1969274962	-0.194931315	-0.2593516359	 0.11835
H	-1.1318197383	-1.0974360579	-1.3341011812	 0.094108
114.5178	127.1104	264.034	331.3563	380.4751	394.4995	414.5715	524.483	607.6514	705.0704	707.0593	760.6708	779.0163	791.2503	853.012	859.0587	920.4446	940.9403	971.6215	978.0767	1001.0942	1016.8406	1050.9293	1066.8484	1080.3457	1087.4031	1107.5175	1118.9649	1154.771	1170.1484	1196.1341	1213.411	1256.4806	1261.8509	1288.6634	1300.6455	1312.3043	1332.6963	1357.7518	1370.0844	1376.2501	1421.5913	1468.7261	1478.1565	1507.8975	2987.9689	3034.481	3050.4965	3067.9552	3076.9783	3086.9672	3103.8386	3125.1922	3167.6475	3178.8037	3213.7534	3816.4842
OC1CC2C3CC3C2C1	O[C@H]1C[C@H]2[C@H]3C[C@H]3[C@H]2C1	
InChI=1S/C8H12O/c9-4-1-5-6(2-4)8-3-7(5)8/h4-9H,1-3H2	InChI=1S/C8H12O/c9-4-1-5-6(2-4)8-3-7(5)8/h4-9H,1-3H2/t4-,5+,6-,7+,8-
