19
gdb 100380	2.53981	1.07585	0.91645	3.8854	76.41	-0.2506	-0.0376	0.213	1342.3486	0.15606	-419.214372	-419.20382	-419.202876	-419.250413	36.923	
C	-0.0294273794	 1.4589306162	-0.1720403083	-0.340742
N	 0.0493000261	 0.0130861198	 0.0262290563	-0.300645
C	 0.6789882305	-0.4544813379	 1.2679188486	 0.072022
C	 0.0153541542	 0.0583506945	 2.5695861507	-0.414627
C	 0.648225531	-2.006444383	 1.2230785004	-0.300321
C	 1.383290437	-2.6878015585	 2.360539077	 0.145246
O	 0.8938379351	-3.5349840132	 3.0618946123	-0.240498
C	 2.0902931375	-0.0053471506	 1.2479579879	 0.313412
N	 3.1913169278	 0.3451541414	 1.2576439317	-0.347299
H	 0.9803235096	 1.8796566871	-0.1817341127	 0.153352
H	-0.4762153779	 1.6468405909	-1.151858045	 0.132342
H	-0.6199181424	 2.0026460172	 0.5815897069	 0.107052
H	-0.875983987	-0.3994384889	-0.0316223081	 0.22593
H	-1.0268491112	-0.2752090595	 2.5969555119	 0.126455
H	 0.5222097765	-0.3316753785	 3.4568557129	 0.144737
H	 0.0376049565	 1.1484733362	 2.6216378412	 0.141449
H	-0.3917979245	-2.3462780004	 1.2364199495	 0.123106
H	 1.1057317682	-2.3207551874	 0.2771493858	 0.150158
H	 2.4369442924	-2.3614250554	 2.499644521	 0.108871
57.2798	77.0041	102.9369	154.8897	164.6802	211.0448	219.8908	260.0172	297.0875	357.5868	393.8003	419.6099	495.7015	579.8853	618.517	690.0973	727.4605	819.0507	910.4759	944.8402	962.5839	1047.6498	1091.5499	1126.9333	1134.5567	1163.7538	1187.2535	1225.9951	1268.6817	1312.1822	1406.3576	1429.4812	1457.0888	1458.5129	1473.0414	1482.8938	1494.5238	1509.4467	1523.7612	1831.7696	2355.6909	2903.4796	2983.2355	3040.7864	3044.7054	3080.4302	3103.8703	3116.7042	3120.4795	3137.0104	3525.9871
CNC(C)(CC=O)C#N	CN[C@@](C)(CC=O)C#N	
InChI=1S/C6H10N2O/c1-6(5-7,8-2)3-4-9/h4,8H,3H2,1-2H3	InChI=1S/C6H10N2O/c1-6(5-7,8-2)3-4-9/h4,8H,3H2,1-2H3/t6-/m0/s1
