20
gdb 92521	2.72618	1.59182	1.16872	3.5888	79.59	-0.234	0.0327	0.2666	1107.1186	0.173246	-403.189265	-403.181035	-403.180091	-403.222196	31.146	
C	-0.1885991015	 1.389781134	-0.1347698887	-0.343365
N	-0.1185148853	-0.0440676096	 0.0108498391	-0.06965
C	-1.238341201	-0.8288002392	 0.5025001688	-0.188518
C	-0.7657521861	-2.2783422601	 0.3271727154	-0.017177
C	-0.8873176617	-2.8972812286	-1.0992828345	-0.2288
C	 0.6546535519	-3.1033122745	-1.1353373511	-0.220995
C	 0.7729345773	-2.2136367727	 0.1318924401	-0.142297
C	 1.0486358494	-0.7446418884	-0.176170124	 0.402707
O	 2.1055990771	-0.2648336807	-0.536383877	-0.403488
H	 0.7870333759	 1.7336361569	-0.4828630302	 0.164712
H	-0.9575079343	 1.6768732133	-0.8626672833	 0.120568
H	-0.4237969519	 1.8770052198	 0.8207978818	 0.120008
H	-1.4570202688	-0.5832589087	 1.5530998689	 0.10037
H	-2.1473197681	-0.6183110823	-0.0774459689	 0.105289
H	-1.1251631651	-2.9335152004	 1.1210499111	 0.075874
H	-1.4999150586	-3.7975280126	-1.1810375287	 0.102527
H	-1.2408420136	-2.1731713664	-1.8391499593	 0.106033
H	 0.945210397	-4.137751194	-0.9374179548	 0.104994
H	 1.1918862438	-2.7534624223	-2.019421578	 0.118241
H	 1.4427675137	-2.5562555036	 0.9231350835	 0.092968
99.3041	117.4748	158.9295	188.6742	254.2856	307.8145	352.6727	470.5497	606.4215	614.7461	690.8198	731.8329	772.5276	792.7998	878.0273	895.813	945.6192	964.1308	980.6813	1003.9203	1069.9872	1071.3691	1124.4516	1139.2802	1159.3534	1190.6126	1216.7477	1235.6139	1250.2611	1260.7158	1269.1372	1297.3002	1302.1002	1323.9951	1343.8796	1429.8453	1448.3128	1480.4809	1493.3621	1498.5139	1510.8794	1540.4139	1797.1427	2981.555	3009.4031	3022.7726	3057.2112	3058.3058	3067.1149	3089.1389	3100.9392	3111.4686	3126.1926	3141.364
CN1CC2CCC2C1=O	CN1C[C@H]2CC[C@H]2C1=O	
InChI=1S/C7H11NO/c1-8-4-5-2-3-6(5)7(8)9/h5-6H,2-4H2,1H3	InChI=1S/C7H11NO/c1-8-4-5-2-3-6(5)7(8)9/h5-6H,2-4H2,1H3/t5-,6-/m1/s1
