19
gdb 94054	3.30509	1.02182	0.97022	2.5224	77.38	-0.2403	0.0591	0.2994	1295.5782	0.158059	-422.993743	-422.98456	-422.983616	-423.02815	34.134	
O	-0.7528423694	 1.3322612988	 0.7088106262	-0.430356
C	-0.1016838033	 0.1775232992	 0.1899161403	 0.108345
C	 0.6667165438	-0.6041507667	 1.2588146834	-0.087035
O	-0.2892708874	-1.3944787857	 1.9466857723	-0.264936
C	-1.4707495649	-1.5546324411	 1.1534613624	 0.136946
C	-2.6812627766	-0.9733524057	 1.9126139449	-0.367086
C	-2.9379237444	-1.6410473067	 3.1814120296	 0.311031
C	-3.1555246456	-2.2070702807	 4.2190497693	-0.447595
C	-1.190258703	-0.8317122609	-0.1815311144	-0.268111
H	-0.0909359966	 1.8914809986	 1.1277319838	 0.285233
H	 0.5386739264	 0.4422280584	-0.6627097198	 0.069685
H	 1.4342220073	-1.2384682883	 0.785788499	 0.09016
H	 1.1695811242	 0.0498966093	 1.9818750645	 0.097296
H	-1.6351256755	-2.6278484949	 0.9985275895	 0.08344
H	-2.4999080525	 0.0956272959	 2.0664345372	 0.147113
H	-3.5671994157	-1.0593296773	 1.269421341	 0.1203
H	-3.3422113726	-2.6993613631	 5.1406750898	 0.189731
H	-2.0687701475	-0.3350617187	-0.5979099031	 0.119665
H	-0.8054021768	-1.5345666205	-0.9255472259	 0.106173
60.4526	82.5417	116.3208	165.9384	291.4601	318.9835	344.4033	380.1886	389.9814	408.0955	515.3642	609.0523	631.0712	728.4919	794.2664	818.2945	855.4767	866.4223	941.2633	981.5319	992.4704	998.1883	1005.4056	1060.5221	1109.313	1140.3317	1187.167	1200.1306	1237.3892	1261.1227	1291.1019	1325.8571	1337.2497	1354.8958	1389.6141	1395.4746	1419.152	1466.3622	1479.315	1513.0444	2239.87	2968.7418	3010.2906	3022.1778	3025.2823	3045.5154	3070.0818	3082.3798	3123.7103	3509.0417	3818.891
OC1COC(CC#C)C1	O[C@H]1CO[C@@H](CC#C)C1	
InChI=1S/C7H10O2/c1-2-3-7-4-6(8)5-9-7/h1,6-8H,3-5H2	InChI=1S/C7H10O2/c1-2-3-7-4-6(8)5-9-7/h1,6-8H,3-5H2/t6-,7+/m1/s1
