23
gdb 98273	2.7648	0.9912	0.85384	1.5033	82.74	-0.264	0.0181	0.2821	1499.177	0.20278	-425.4749	-425.46352	-425.462576	-425.512258	40.096	
C	 0.2047512503	 1.3826816703	 0.1365079102	-0.240874
O	 0.3814837413	-0.0364698513	 0.0449781104	-0.235238
C	 0.4882616828	-0.525871784	-1.2093477417	 0.444238
O	 0.4589779979	 0.1706173763	-2.1943363102	-0.373104
C	 0.5867181977	-2.044447426	-1.199226157	-0.080264
C	-0.8547849949	-2.5902490569	-1.2833524269	-0.416039
C	 1.511796745	-2.5384903878	-2.3342156315	 0.055495
C	 2.9407325994	-2.005928459	-2.147774708	-0.403962
C	 1.5281603386	-4.0691594368	-2.4461076447	-0.407927
H	 1.0530926186	 1.9070144948	-0.3106469051	 0.139827
H	-0.7077235676	 1.69302061	-0.379171534	 0.138963
H	 0.1363397944	 1.6058966431	 1.2013559607	 0.131428
H	 1.0086358085	-2.3401947926	-0.2315712957	 0.088971
H	-1.3029479649	-2.3515458018	-2.2533112417	 0.131046
H	-0.8725138449	-3.674253285	-1.1518149593	 0.124016
H	-1.4795315353	-2.1497261241	-0.5008611097	 0.124575
H	 1.1160947748	-2.1223692721	-3.2688355984	 0.094115
H	 3.3817809071	-2.3802196641	-1.2156795818	 0.108113
H	 3.5852712572	-2.3308311864	-2.9706949083	 0.111213
H	 2.9630689743	-0.9131898602	-2.1222606253	 0.12714
H	 0.5505958124	-4.4804275768	-2.7109875869	 0.115303
H	 2.2358804675	-4.3842996064	-3.2195309545	 0.113058
H	 1.8446447898	-4.5328193032	-1.5034479007	 0.10991
28.1722	65.9145	112.825	132.7707	177.5408	214.3313	216.0854	240.6218	245.8255	300.3943	325.6339	347.3029	396.432	439.7327	479.1473	698.8034	769.4926	808.6089	863.9327	926.0647	929.1402	966.9222	989.6781	1014.1521	1050.4855	1102.0871	1142.6532	1174.2662	1179.1228	1200.9332	1205.5435	1218.0051	1308.1015	1337.4081	1355.4422	1388.3636	1398.1612	1406.2709	1422.1581	1471.9299	1481.3098	1486.6932	1491.3899	1497.5946	1499.2244	1504.7837	1507.0706	1519.4691	1811.4456	3024.9744	3027.5013	3033.5575	3042.1023	3048.8839	3050.889	3088.9434	3096.7085	3109.9489	3112.5652	3115.4104	3124.4805	3127.5235	3157.1881
COC(=O)C(C)C(C)C	COC(=O)[C@@H](C)C(C)C	
InChI=1S/C7H14O2/c1-5(2)6(3)7(8)9-4/h5-6H,1-4H3	InChI=1S/C7H14O2/c1-5(2)6(3)7(8)9-4/h5-6H,1-4H3/t6-/m0/s1
