17
gdb 128767	3.31526	1.0922	0.84868	4.2979	72.15	-0.2569	-0.0319	0.225	1335.163	0.134106	-455.119236	-455.110092	-455.109148	-455.154136	31.591	
C	-0.1737825331	 1.4059145747	-0.2867380456	-0.227321
O	-0.1753574779	 0.0051835428	-0.4538678942	-0.233657
C	-1.1100770495	-0.6391001324	 0.3884736254	-0.18163
C	-1.0729535024	-2.1098829321	 0.129938165	 0.155561
C	-0.9050743679	-2.8238039119	-1.0217890057	 0.341941
C	-0.6832689386	-2.4442067339	-2.4409796451	-0.498377
O	-0.9616221272	-4.1213779267	-0.7102214671	-0.20994
N	-1.1799190892	-4.2028680189	 0.7000237559	-0.022101
N	-1.2328284514	-3.0271442922	 1.1427470788	-0.176648
H	 0.5694426889	 1.8137605928	-0.9751381098	 0.133207
H	-1.1565427488	 1.8456048036	-0.5178998303	 0.109398
H	 0.0974121718	 1.6898586722	 0.7414078211	 0.114042
H	-0.8805334883	-0.4630128016	 1.4505810403	 0.121351
H	-2.1208755068	-0.2325138361	 0.2086244225	 0.106434
H	 0.2045568142	-2.9455134684	-2.8384291344	 0.154519
H	-1.5356305927	-2.7417871546	-3.060994213	 0.149826
H	-0.542955321	-1.3657772873	-2.5083330337	 0.163396
46.7823	91.8028	128.2297	140.4809	228.7196	243.9244	267.7586	325.984	372.4525	420.8332	664.1306	671.2345	681.6299	716.8182	785.9713	985.1211	1002.1792	1029.5894	1035.5783	1071.864	1148.7234	1181.5217	1202.1203	1228.7648	1239.3165	1263.0048	1367.4983	1413.5355	1433.6161	1464.4034	1477.9479	1484.701	1486.8414	1489.2673	1503.7049	1525.0493	1652.915	2948.8706	2977.5464	3003.8886	3025.4758	3046.0595	3102.9759	3122.9823	3164.0767
COCC1=C(C)ON=N1	COCc1c(C)onn1	
InChI=1S/C5H8N2O2/c1-4-5(3-8-2)6-7-9-4/h3H2,1-2H3	InChI=1S/C5H8N2O2/c1-4-5(3-8-2)6-7-9-4/h3H2,1-2H3
