16
gdb 37758	3.02642	1.74804	1.17796	3.2253	76.38	-0.203	-0.0201	0.1829	1001.911	0.127436	-396.938755	-396.931833	-396.930889	-396.97013	27.374	
C	-0.0590099606	 1.7085139167	-0.3950619374	-0.253285
N	 1.2111352604	 1.7229692654	 0.349639992	-0.365667
C	 1.7114530357	 0.4495761669	 0.3978263002	 0.400399
N	 2.4277931928	-0.164151826	 1.2749900715	-0.347645
C	 2.3005473792	-1.5376330164	 0.9042225429	-0.020101
C	 1.4770845121	-1.7738576055	-0.1373069954	-0.178507
N	-1.3493916557	-0.3482876062	-1.1273611053	-0.473225
C	-0.2792525969	 0.2251642359	-0.7836019716	 0.28682
C	 1.0895668044	-0.4192120587	-0.6648944564	-0.148094
H	-0.8902472079	 2.0822649627	 0.2135350441	 0.131231
H	-0.0027479738	 2.3288477472	-1.2995021403	 0.136276
H	 1.2747539212	 2.2826693709	 1.1872210194	 0.256534
H	 2.8386296058	-2.2715092763	 1.4913549571	 0.105557
H	 1.2533697567	-2.7198384002	-0.6047352628	 0.108004
H	-2.1389446621	 0.3038312282	-1.1290663819	 0.221669
H	 1.5970718486	-0.2420524148	-1.6286073962	 0.140033
103.8125	164.6736	276.9595	347.5815	422.3853	477.9292	558.8148	585.648	624.3246	675.7979	714.6787	752.6429	788.1547	868.0224	906.6425	936.7032	949.4444	984.6716	1011.7376	1028.7042	1066.1461	1091.4461	1134.0825	1175.7386	1203.0362	1237.8276	1289.2571	1308.7184	1339.6589	1393.0353	1417.4681	1495.4838	1581.8213	1682.618	1773.2096	2978.384	3016.2815	3063.3428	3214.5598	3262.2741	3422.5326	3611.7684
C1NC2=NC3C4NC13C24	C1NC2=NC=C[C@H]2[C]1[NH]	
InChI=1S/C6H7N3/c1-6-2-3(9-6)4(6)8-5(2)7-1/h2-4,9H,1H2,(H,7,8)	InChI=1S/C6H7N3/c7-5-3-9-6-4(5)1-2-8-6/h1-2,4,7H,3H2,(H,8,9)/t4-/m0/s1
