22
gdb 58731	2.87764	1.41659	1.20946	1.6716	85.08	-0.2303	0.0792	0.3095	1153.5509	0.194674	-367.157127	-367.148507	-367.147563	-367.190329	33.76	
C	 0.2630635396	 1.4109784199	 0.2711084506	-0.396595
C	-0.0708070935	-0.0591741406	-0.0280576985	-0.127007
C	-1.5882739125	-0.3016226218	-0.0465335764	-0.391412
C	 0.5626611807	-0.5130176791	-1.306496448	 0.403165
C	 1.0012510598	-1.8261230919	-1.8387882416	-0.104539
C	 0.3909506338	-1.557093909	-3.211376086	-0.240815
C	 0.4800331905	-0.0554987244	-2.8303222694	-0.132375
C	 1.9952840708	 0.1557459478	-2.7058329045	-0.150381
N	 2.0204647864	-0.7534437155	-1.5135711027	-0.200728
H	 1.3452072151	 1.5641172299	 0.3131649972	 0.129259
H	-0.14645189	 2.0717121335	-0.5018309344	 0.112032
H	-0.1634093365	 1.7197151644	 1.2309404933	 0.110342
H	 0.3706359768	-0.6765671261	 0.7664331905	 0.086775
H	-2.068849169	 0.2846034573	-0.8382257942	 0.114858
H	-1.8213010166	-1.3566741257	-0.220355296	 0.11555
H	-2.0405986171	-0.0059010461	 0.9053599747	 0.112891
H	 1.132493967	-2.7678805486	-1.3212386112	 0.094046
H	 0.9280315461	-1.8826173657	-4.1094826728	 0.092286
H	-0.6425858715	-1.9110023757	-3.2501623583	 0.104765
H	-0.1857361031	 0.678431736	-3.2813316978	 0.07035
H	 2.6309183283	-0.1508839548	-3.5457855623	 0.091537
H	 2.2759308151	 1.1597173764	-2.3779479821	 0.105995
63.5013	132.3001	169.6222	230.5006	264.6815	309.2569	341.7316	434.4553	462.5125	511.5238	588.6384	719.6539	753.4167	829.8222	854.7622	886.4931	923.0954	927.7723	936.1321	966.0951	976.1433	983.5012	993.2302	1026.7655	1043.9792	1087.3427	1119.976	1133.7939	1149.3801	1181.8019	1188.3314	1192.9059	1226.8955	1255.7595	1279.4403	1311.9001	1324.596	1338.6683	1394.8209	1414.126	1443.662	1488.4323	1490.9793	1493.6422	1502.9571	1513.6825	1515.7888	3013.3669	3025.3625	3027.5495	3031.9029	3038.2132	3093.0607	3098.3976	3099.3167	3101.7651	3106.2602	3112.6431	3127.6757	3198.0066
CC(C)C12C3CC1CN23	CC(C)[C@@]12[C@H]3C[C@@H]1CN23	
InChI=1S/C8H13N/c1-5(2)8-6-3-7(8)9(8)4-6/h5-7H,3-4H2,1-2H3	InChI=1S/C8H13N/c1-5(2)8-6-3-7(8)9(8)4-6/h5-7H,3-4H2,1-2H3/t6-,7-,8+,9?/m1/s1
