14
gdb 129474	4.46547	1.02366	0.88511	4.4539	63.57	-0.2506	-0.0398	0.2108	1227.4562	0.102017	-470.041066	-470.033266	-470.032322	-470.074649	27.918	
N	 0.2676073513	 0.124571213	 1.0241418833	-0.512573
C	 0.0469863542	 0.1669511212	-0.3146982175	 0.38506
O	 0.5650200616	 0.9695143282	-1.0624710526	-0.350559
C	-0.9876595962	-0.8495876154	-0.8452378782	-0.411537
C	-0.9148817531	-2.225521764	-0.2733881473	 0.379778
N	-0.7612693574	-3.2877243841	-1.0194929017	-0.166319
O	-0.7599654987	-4.3443546881	-0.0946514927	-0.14829
C	-0.9092688075	-3.7894437729	 1.1028241727	 0.110049
N	-1.0145776545	-2.4993981995	 1.0817872967	-0.320666
H	 0.9333990853	 0.7724659765	 1.4117522205	 0.261568
H	-0.1413554029	-0.5918727278	 1.6048322047	 0.277508
H	-1.9808481941	-0.4343664522	-0.6326996855	 0.15508
H	-0.8662264435	-0.8946360728	-1.9267342039	 0.164708
H	-0.9303421244	-4.4493074521	 1.9578079915	 0.176193
45.2706	68.4754	157.2406	303.4949	330.8844	360.3645	394.234	516.7891	581.5606	631.1406	674.1004	723.7019	808.2207	869.276	903.7937	907.9	951.6624	983.3107	1010.6675	1120.7787	1160.8826	1197.446	1292.0174	1311.9804	1344.1673	1372.3289	1452.8847	1521.2849	1602.2687	1629.2897	1812.7971	3044.869	3153.4116	3266.5532	3563.8211	3711.6332
NC(=O)CC1=NOC=N1	NC(=O)Cc1nocn1	
InChI=1S/C4H5N3O2/c5-3(8)1-4-6-2-9-7-4/h2H,1H2,(H2,5,8)	InChI=1S/C4H5N3O2/c5-3(8)1-4-6-2-9-7-4/h2H,1H2,(H2,5,8)
