19
gdb 39221	2.657	1.98726	1.47102	2.3876	74.17	-0.2444	0.0707	0.3151	941.5321	0.161826	-422.986588	-422.979701	-422.978757	-423.017559	28.483	
C	-0.0452737187	 1.4667407253	 0.108725862	-0.319843
C	 1.2989193667	 0.7917722441	 0.0535464822	 0.096603
O	 2.0589670686	 0.8617950363	 1.2249971361	-0.235764
C	 2.4797044107	-0.3455675213	 1.8239778437	-0.096115
C	 1.3042667186	-1.24713157	 2.2808816526	 0.0898
C	 0.6755937977	-2.1443252851	 1.195685075	-0.2653
C	-0.334925108	-0.98380252	 1.0820819389	 0.073028
O	 0.076415896	-0.4843129079	 2.3805569421	-0.278025
C	 0.0317150763	-0.0333595927	-0.0339277139	-0.050733
H	-0.3140574612	 1.8414387173	 1.0899500112	 0.13864
H	-0.3843964975	 2.0603417536	-0.7326606901	 0.109272
H	 1.8937769807	 0.887868049	-0.8549154409	 0.08443
H	 3.1471213664	-0.9253072977	 1.1646033855	 0.087012
H	 3.0651716785	-0.0281030259	 2.6921493589	 0.112677
H	 1.5555387121	-1.7363030012	 3.227873483	 0.080416
H	 1.2749270939	-2.3787080103	 0.3130874112	 0.099882
H	 0.2400682684	-3.0568374804	 1.6072714142	 0.106826
H	-1.4011664766	-1.2340931299	 1.0712846639	 0.079302
H	-0.1860459525	-0.4400454032	-1.0198954155	 0.087891
164.1574	187.3412	323.2199	333.8123	386.1059	400.2001	478.6396	603.4919	712.2761	740.9536	771.5444	805.2648	840.7445	891.0462	916.97	923.7328	952.6958	983.3921	1013.5294	1015.1214	1067.431	1075.25	1105.7768	1113.5395	1123.8181	1130.9431	1150.8305	1187.8694	1224.8336	1241.0024	1261.1488	1283.9925	1325.7827	1348.662	1360.6946	1382.6226	1399.2771	1412.4586	1474.7386	1486.5263	1497.9747	2967.5437	3046.9131	3047.9994	3069.8398	3081.232	3095.4473	3124.9368	3127.1981	3139.1994	3233.8085
C1C2OCC3CC(O3)C12	C1[C@H]2OC[C@@H]3C[C@@H](O3)[C@@H]12	
InChI=1S/C7H10O2/c1-4-3-8-6-2-5(6)7(1)9-4/h4-7H,1-3H2	InChI=1S/C7H10O2/c1-4-3-8-6-2-5(6)7(1)9-4/h4-7H,1-3H2/t4-,5-,6+,7+/m0/s1
