16
gdb 85622	3.52527	1.07431	0.8587	2.5502	80.23	-0.2606	-0.094	0.1666	1289.86	0.124511	-400.808283	-400.799937	-400.798992	-400.841837	30.295	
C	-0.1401107909	 1.5490989593	 0.0224691866	-0.399364
C	 0.0739463162	 0.0340171159	-0.0337239471	-0.111121
C	 0.8997103726	-0.4812757724	-1.231171925	-0.337221
C	 1.966142409	-1.3602217019	-0.5995656881	 0.194255
C	 1.921258556	-1.3609940246	 0.7436509199	-0.278469
C	 0.8198837639	-0.4834940057	 1.211253374	 0.405159
O	 0.554091661	-0.2123101704	 2.3575802004	-0.326849
C	 2.9027017657	-2.0767736973	-1.3942060289	 0.232253
N	 3.64896258	-2.6480606474	-2.0711764534	-0.315448
H	 0.8152625415	 2.0824641419	-0.0258219932	 0.12415
H	-0.763040022	 1.8916435445	-0.8085584452	 0.122238
H	-0.6290134056	 1.8178683196	 0.9621744557	 0.147455
H	-0.9054203717	-0.4605758877	-0.0250441162	 0.119591
H	 0.3073809366	-1.0486808388	-1.955922116	 0.139668
H	 1.372492393	 0.3356203045	-1.7891799364	 0.140794
H	 2.5843172647	-1.8920736596	 1.4132550427	 0.142907
55.8341	120.4897	146.685	223.3892	246.9059	316.784	377.5432	453.1753	490.0911	574.9948	586.8047	616.915	705.3628	775.7734	876.0829	913.216	922.304	932.6447	1034.3939	1096.3315	1121.7888	1129.1861	1177.2858	1209.0375	1262.2	1279.0538	1320.7	1334.2843	1406.8406	1475.6504	1495.8917	1499.8294	1649.8487	1814.835	2337.7336	3033.5044	3039.9475	3043.8688	3082.7313	3109.2833	3128.4818	3236.245
CC1CC(=CC1=O)C#N	C[C@H]1CC(=CC1=O)C#N	
InChI=1S/C7H7NO/c1-5-2-6(4-8)3-7(5)9/h3,5H,2H2,1H3	InChI=1S/C7H7NO/c1-5-2-6(4-8)3-7(5)9/h3,5H,2H2,1H3/t5-/m0/s1
