17
gdb 100236	2.5035	1.22817	1.00378	2.0655	76.4	-0.252	0.021	0.273	1218.3497	0.130808	-421.743531	-421.733023	-421.732079	-421.77914	37.989	
O	 0.833258683	 0.4132038157	 0.671453578	-0.421398
C	-0.0629721917	 0.4311896109	-0.4098797623	-0.051191
C	-1.3689888021	-0.3294308513	-0.091751484	 0.082821
O	-0.9427208951	-1.6725948147	 0.1355241352	-0.446458
C	-2.1039251972	 0.2542865529	 1.1605714948	-0.412402
C	-1.5401069936	-0.1535009191	 2.440842627	 0.329694
C	-1.1443026355	-0.5208154288	 3.5146426629	-0.466791
C	-2.2710713851	-0.2484695879	-1.2480624105	 0.323015
C	-3.0096514784	-0.1660822132	-2.1928733963	-0.433974
H	 0.8877879714	-0.5046035032	 0.9653486979	 0.294718
H	-0.2940705796	 1.4771721643	-0.6306906179	 0.114865
H	 0.3666925097	-0.023065363	-1.315201749	 0.105583
H	-1.6401443169	-2.1481774396	 0.5995358297	 0.291824
H	-2.1186731326	 1.3463255407	 1.0741798469	 0.150395
H	-3.1514416	-0.0681905958	 1.1178469249	 0.139476
H	-0.7683225431	-0.8215631503	 4.4611064252	 0.198812
H	-3.6572885133	-0.1035249676	-3.0327507726	 0.20101
43.9156	102.3454	124.6464	140.5144	170.1116	215.7661	263.9217	334.5566	349.598	364.2502	448.4455	479.1844	490.6747	552.449	571.2295	618.8365	643.0483	653.6885	668.8525	784.0186	891.6328	930.4783	978.4436	1050.2061	1090.135	1105.6032	1128.0941	1207.8622	1263.5962	1330.4313	1364.6062	1385.943	1434.0222	1465.31	1497.9601	2230.2741	2237.8558	2997.2423	3033.2693	3072.8897	3093.297	3498.8081	3504.7608	3790.6422	3814.6547
OCC(O)(CC#C)C#C	OC[C@@](O)(CC#C)C#C	
InChI=1S/C7H8O2/c1-3-5-7(9,4-2)6-8/h1-2,8-9H,5-6H2	InChI=1S/C7H8O2/c1-3-5-7(9,4-2)6-8/h1-2,8-9H,5-6H2/t7-/m0/s1
