14
gdb 5277	4.91198	1.65838	1.24928	2.1726	67.32	-0.24	-0.0497	0.1903	917.6051	0.108528	-378.79148	-378.784294	-378.78335	-378.823574	25.585	
C	-0.0115134059	 1.4866974555	 0.0083366406	-0.47847
C	-0.0005063017	-0.0230391253	 0.0020828154	 0.320962
O	 1.0208250809	-0.6888238447	-0.0089313829	-0.34418
C	-1.3052183827	-0.7022218912	 0.01024189	 0.251794
N	-2.5161713901	-0.1656682419	 0.0223675316	-0.296599
C	-3.3803306483	-1.220969085	 0.025387092	-0.092998
C	-2.6867167431	-2.4153243501	 0.0150012054	-0.091844
N	-1.3700061438	-2.0664888705	 0.0055531662	-0.254603
H	 1.0140526642	 1.8565244961	 0.0002776935	 0.136205
H	-0.5593845488	 1.8631087386	-0.861025094	 0.153801
H	-0.5428116417	 1.8558348812	 0.8910250899	 0.153797
H	-4.4504168423	-1.0788698531	 0.0347646712	 0.117518
H	-3.0120215675	-3.4425761525	 0.0136744319	 0.141246
H	-0.5544825192	-2.659072717	-0.0034627407	 0.283372
59.0523	121.7825	186.4607	187.2652	369.5666	519.3541	560.9051	634.9036	635.2106	684.3181	743.0601	772.8984	870.2111	925.9166	955.9416	985.4854	1045.4601	1094.8043	1115.8983	1174.9182	1193.0117	1315.0706	1384.9945	1428.3648	1441.1854	1457.8525	1466.0579	1480.659	1562.1989	1759.6935	3050.9552	3114.1298	3160.0993	3249.6029	3279.1767	3651.8478
CC(=O)C1=NC=CN1	CC(=O)c1ncc[nH]1	
InChI=1S/C5H6N2O/c1-4(8)5-6-2-3-7-5/h2-3H,1H3,(H,6,7)	InChI=1S/C5H6N2O/c1-4(8)5-6-2-3-7-5/h2-3H,1H3,(H,6,7)
