14
gdb 131064	5.28138	0.84993	0.78162	4.4925	64.09	-0.2601	-0.0394	0.2206	1375.5584	0.10204	-470.025218	-470.017342	-470.016398	-470.05978	26.95	
O	-0.0563529971	 0.4376464376	-0.7860134691	-0.317661
C	 0.0875439697	 1.2660489977	 0.0864834071	 0.162807
N	 1.2751777569	 1.5953151791	 0.6644205986	-0.280237
C	 2.5326843613	 1.0125345827	 0.2373889385	-0.265357
C	 3.5591833193	 2.0782706049	 0.004045099	 0.378848
N	 4.3888973648	 2.0657647362	-1.0028101749	-0.169087
O	 5.166422679	 3.2158405656	-0.7964192791	-0.147959
C	 4.6982990479	 3.7848257823	 0.3115446158	 0.114874
N	 3.714992268	 3.1490939883	 0.8641029439	-0.31927
H	-0.7500439151	 1.8483686239	 0.5169387617	 0.082583
H	 1.3071377383	 2.3268664594	 1.3574326169	 0.265849
H	 2.9147479261	 0.3119666011	 0.9925677829	 0.140461
H	 2.3480607062	 0.4492482478	-0.6783138849	 0.180087
H	 5.1715170045	 4.7003600534	 0.6350721638	 0.174064
27.5744	50.7002	136.4682	233.8805	270.9341	321.3883	424.6166	545.0208	633.1534	679.1783	734.4884	830.9684	900.6488	908.8463	981.2202	991.4423	995.8868	1034.5687	1057.8305	1153.9394	1215.2746	1242.0092	1299.8202	1355.9132	1376.836	1426.8359	1489.7665	1523.4847	1529.4216	1606.6001	1807.6983	2948.4668	3014.4835	3137.9623	3268.0004	3635.0772
O=CNCC1=NOC=N1	O=CNCc1nocn1	
InChI=1S/C4H5N3O2/c8-2-5-1-4-6-3-9-7-4/h2-3H,1H2,(H,5,8)	InChI=1S/C4H5N3O2/c8-2-5-1-4-6-3-9-7-4/h2-3H,1H2,(H,5,8)
