15
gdb 33573	2.17131	1.6399	1.19212	1.1608	73.04	-0.2641	0.0034	0.2675	1064.9712	0.110064	-420.537219	-420.528646	-420.527701	-420.570801	31.558	
C	 0.0775960752	-1.2138358973	-0.0305068972	-0.467755
C	 0.0414059767	-0.0137790969	-0.030932501	 0.345941
C	-0.0206270883	 1.452174389	-0.0044993863	-0.00152
C	-0.6089688735	 1.9871591673	 1.3508521403	-0.148782
O	 0.5435724433	 2.2253128459	 2.1263615199	-0.228922
C	 1.4780217845	 2.7256781992	 1.2086446386	 0.015958
O	 1.3171819361	 1.9843368065	 0.0093405609	-0.274916
C	-0.7726681066	 1.9605056952	-1.1547224798	 0.322115
C	-1.4093115224	 2.3934288234	-2.0762665241	-0.45514
H	 0.1167168715	-2.2753461986	-0.0394801671	 0.204906
H	-1.1704381609	 2.9121305093	 1.1600732268	 0.112871
H	-1.2402979152	 1.2571389648	 1.8555405913	 0.143758
H	 1.3033231758	 3.7979117881	 1.0117273559	 0.09563
H	 2.4861611838	 2.5663263203	 1.5998789559	 0.130307
H	-1.9643311101	 2.7662602339	-2.901810474	 0.205549
53.004	123.8723	162.6913	172.7234	252.6873	289.8866	455.3115	485.8072	505.3652	558.9162	575.6581	640.6662	643.5242	665.3496	670.878	733.2657	775.0618	931.5353	969.0019	1011.1232	1045.2248	1101.3794	1113.2737	1170.1755	1190.434	1218.8888	1278.3104	1352.5526	1423.7933	1503.604	1542.6331	2240.8133	2242.6398	2952.1555	3013.8708	3098.0779	3147.1995	3500.1227	3500.924
C#CC1(COCO1)C#C	C#CC1(COCO1)C#C	
InChI=1S/C7H6O2/c1-3-7(4-2)5-8-6-9-7/h1-2H,5-6H2	InChI=1S/C7H6O2/c1-3-7(4-2)5-8-6-9-7/h1-2H,5-6H2
