17
gdb 11594	5.80085	0.94955	0.86151	1.9843	66.84	-0.2458	0.0322	0.278	1322.0888	0.140814	-401.010811	-401.001839	-401.000895	-401.046542	30.472	
C	-0.2133898519	 1.4382225412	 0.1585487843	-0.481502
C	-0.0434808654	-0.0373595345	-0.1675380063	 0.408472
O	 0.7907914812	-0.4331390078	-0.9617480629	-0.372405
N	-0.8887605518	-0.879998459	 0.5002101044	-0.313024
C	-0.8885564712	-2.3158995168	 0.293662044	-0.186128
C	-2.2301187975	-2.7987942406	-0.2002458177	 0.088006
C	-2.8228899246	-4.0542402484	 0.2712209391	-0.176225
O	-3.2817994682	-2.798334481	 0.7754627449	-0.243414
H	 0.7285509653	 1.8187485262	 0.5625092544	 0.153665
H	-0.4125813948	 1.9809570254	-0.7690700848	 0.153259
H	-1.0153485306	 1.6436503422	 0.8722233818	 0.112263
H	-1.5817670072	-0.4999197938	 1.123887444	 0.253886
H	-0.1055895804	-2.5218528298	-0.4409439342	 0.15316
H	-0.6376450053	-2.8365946235	 1.2263108601	 0.107805
H	-2.5330316905	-2.4149359797	-1.1750635283	 0.103983
H	-3.5266183239	-4.5902788823	-0.3632609047	 0.120998
H	-2.2771953231	-4.672124768	 0.9833717316	 0.117201
33.6311	46.3317	62.2597	100.7443	243.0916	266.5353	345.1697	437.4076	472.5918	521.156	622.5597	640.9359	790.8443	860.8471	881.1668	949.249	994.0224	1020.9257	1051.0483	1095.6353	1115.7099	1144.5053	1162.245	1173.3769	1253.019	1281.3802	1294.5455	1357.8115	1396.5143	1449.6035	1470.676	1475.041	1485.737	1526.5774	1539.2202	1780.2742	3027.507	3050.6571	3085.6553	3106.5651	3117.2122	3128.4471	3130.7512	3172.7543	3648.0651
CC(=O)NCC1CO1	CC(=O)NC[C@H]1CO1	
InChI=1S/C5H9NO2/c1-4(7)6-2-5-3-8-5/h5H,2-3H2,1H3,(H,6,7)	InChI=1S/C5H9NO2/c1-4(7)6-2-5-3-8-5/h5H,2-3H2,1H3,(H,6,7)/t5-/m0/s1
