18
gdb 39872	3.4075	1.61555	1.47845	0.7706	75.02	-0.2351	0.0633	0.2984	944.7955	0.149658	-401.862646	-401.855998	-401.855054	-401.893485	27.553	
C	 0.0235384307	 1.5185572621	-0.0056869519	-0.309444
N	 1.2350725931	 0.6632832307	 0.0272155471	-0.378338
C	-0.0938520298	 0.0510629224	 0.0172876701	 0.385086
C	-0.5165851624	-0.9393189553	 1.1091902073	-0.144334
C	-2.061439505	-0.9808968189	 1.2842263791	-0.243727
C	-2.1797192084	-1.7462773652	-0.0554865694	 0.103338
O	-2.0256127521	-0.8699549429	-1.1981189974	-0.30052
C	-0.5848359905	-0.900115151	-1.0767460518	-0.011295
C	-0.6529592518	-2.0410633662	-0.019052959	-0.087866
H	-0.1459770549	 2.0942604116	 0.9004162862	 0.120014
H	-0.2275746528	 2.0382420143	-0.9271663593	 0.116795
H	 1.6482155936	 0.6183322252	-0.9029179666	 0.228822
H	 0.1241812377	-1.016189786	 1.986230771	 0.0817
H	-2.337224639	-1.6336424298	 2.1192428684	 0.10297
H	-2.6014867648	-0.0338831998	 1.3665641534	 0.105559
H	-2.9891068703	-2.4635205079	-0.201853306	 0.079354
H	-0.0828329536	-0.9142058305	-2.0488475372	 0.07171
H	-0.1561862495	-3.005694513	-0.062369614	 0.080177
132.5711	214.1951	294.7331	385.6726	394.9799	452.7527	598.8695	693.5247	761.1298	821.3951	827.4397	835.5291	858.4682	889.9847	920.4891	933.2824	950.3161	964.5814	984.2608	994.3001	1006.5214	1049.7619	1101.7715	1109.2574	1125.2892	1136.1544	1151.3439	1177.5368	1187.1361	1241.1166	1260.8764	1264.9094	1276.1094	1288.6854	1305.1248	1331.4583	1424.7651	1467.9086	1512.1846	3045.9585	3064.2731	3095.2098	3104.1249	3106.6536	3125.703	3161.5463	3188.6013	3473.7751
C1NC11C2CC3OC1C23	C1N[C@]21[C@H]1C[C@H]3O[C@@H]2[C@@H]13	
InChI=1S/C7H9NO/c1-3-5-4(1)9-6(5)7(3)2-8-7/h3-6,8H,1-2H2	InChI=1S/C7H9NO/c1-3-5-4(1)9-6(5)7(3)2-8-7/h3-6,8H,1-2H2/t3-,4+,5-,6+,7+/m0/s1
