18
gdb 67478	2.56085	1.71678	1.58204	1.8145	69.98	-0.2041	0.0682	0.2723	943.3584	0.149721	-439.027134	-439.019701	-439.018757	-439.05875	29.622	
O	 0.0097425303	 1.4198340171	-0.0420264979	-0.462078
C	 0.0268012127	 0.0395101636	-0.0133385672	 0.313241
C	-1.121287381	-0.9732594715	 0.0480299665	-0.126556
N	-0.6282395228	-1.6500365262	-1.1510955534	-0.319268
C	 0.6307471614	-0.8403294194	-1.1284845879	-0.053279
C	 1.8901951388	-1.5757883268	-0.6626157854	-0.250084
C	 1.5962336522	-2.4252767882	 0.5823168031	-0.072444
O	 0.8755510875	-1.7418998965	 1.6018167754	-0.267014
C	-0.1046238318	-0.8320196728	 1.1835251173	 0.02831
H	 0.6292523893	 1.7477351116	 0.6182401806	 0.290135
H	-2.1845785829	-0.8344506262	 0.2143624718	 0.098944
H	-0.4911848286	-2.651221021	-1.0434427793	 0.212482
H	 0.7863291208	-0.3084040895	-2.0713413914	 0.086394
H	 2.2849288041	-2.2338934776	-1.4461283899	 0.104495
H	 2.6678673702	-0.8328504685	-0.4462532939	 0.107775
H	 1.0503411687	-3.3363695933	 0.2938360335	 0.093235
H	 2.5308493425	-2.7520772631	 1.0484615127	 0.10989
H	-0.5297372612	-0.3432206617	 2.0566330852	 0.10582
130.8085	162.4119	251.4965	290.6546	325.8573	383.6116	449.3829	504.4778	595.4541	654.8532	703.5793	749.1937	800.2233	823.5727	886.9451	922.342	942.7159	957.853	992.4422	1011.4469	1038.1608	1090.6711	1102.1708	1130.2749	1145.0491	1192.3358	1202.661	1250.5325	1261.8218	1286.8667	1307.061	1337.6266	1349.4051	1367.5103	1378.4954	1418.0062	1476.4852	1489.1963	1518.2684	2983.5906	3025.8201	3064.7179	3068.5116	3076.0969	3151.8452	3167.0968	3494.8388	3805.5756
OC12C3NC1CCOC23	O[C@@]12[C@H]3N[C@@H]1CCO[C@@H]23	
InChI=1S/C6H9NO2/c8-6-3-1-2-9-5(6)4(6)7-3/h3-5,7-8H,1-2H2	InChI=1S/C6H9NO2/c8-6-3-1-2-9-5(6)4(6)7-3/h3-5,7-8H,1-2H2/t3-,4+,5-,6-/m1/s1
