15
gdb 17119	4.71945	1.47619	1.39581	3.418	62.48	-0.2645	0.0269	0.2914	914.4486	0.118982	-399.771385	-399.76434	-399.763396	-399.803227	25.85	
N	 0.3770906806	 0.9342428552	 0.5664971564	-0.537251
C	 0.1107412746	-0.1566184725	 0.0148821749	 0.453997
C	-1.0529637953	-1.12218118	 0.0515107077	-0.375701
C	-0.2126505287	-1.9169167642	-0.9780242763	 0.086722
O	 0.8358197348	-0.9005162247	-0.9025910446	-0.262741
C	 0.267414116	-3.2800033386	-0.5601141953	 0.056796
C	 1.6945304287	-3.6050110715	-0.452345068	-0.167953
O	 0.8993113183	-3.3598200476	 0.7130588487	-0.231586
H	 1.2877459342	 1.2902450063	 0.2716194428	 0.229563
H	-1.1899571887	-1.6200731034	 1.0121462185	 0.154551
H	-2.0008360116	-0.7169441767	-0.3037857072	 0.138041
H	-0.6293214005	-1.9533525763	-1.9897887175	 0.097801
H	-0.4406589418	-4.0839771161	-0.7710376365	 0.10043
H	 2.0220113869	-4.6344827453	-0.5860356775	 0.119561
H	 2.4253000825	-2.8332695847	-0.6786403661	 0.137769
77.0163	97.6629	219.0474	245.6628	408.9854	492.2721	500.7294	604.2621	700.7801	782.4837	855.203	865.739	905.8653	935.3046	961.0948	995.1048	1011.6968	1032.84	1090.9776	1100.2964	1141.0219	1167.4906	1171.303	1218.1378	1239.4433	1286.7091	1310.2421	1378.7129	1433.3262	1458.5073	1521.3176	1834.6454	3060.6159	3092.6381	3095.6653	3101.6874	3154.5867	3198.4218	3479.7413
N=C1CC(O1)C1CO1	[NH][C]1C[C@@H](O1)[C@H]1CO1	
InChI=1S/C5H7NO2/c6-5-1-3(8-5)4-2-7-4/h3-4,6H,1-2H2	InChI=1S/C5H7NO2/c6-5-1-3(8-5)4-2-7-4/h3-4,6H,1-2H2/t3-,4-/m1/s1
