16
gdb 27896	2.01196	1.95654	0.99849	1.5925	75.92	-0.2333	-0.0038	0.2295	1144.5374	0.12634	-430.349372	-430.34061	-430.339666	-430.383687	32.136	
C	-0.01131265	 1.4690671649	 0.0057633221	-0.457445
C	 0.0072372533	-0.0337211591	-0.0074311857	 0.341945
N	-0.0049655851	-0.638022066	-1.1956665114	-0.35462
C	 0.0169614887	-1.9842983591	-1.130415399	 0.428689
N	 0.0443625019	-2.6484167269	-2.3123775426	-0.556685
N	 0.037686648	-2.7183242447	-0.0138031538	-0.370829
C	 0.0420812702	-1.9876830654	 1.1083199155	 0.423806
N	 0.0290861499	-2.663035511	 2.2849404413	-0.557025
N	 0.0338524779	-0.6453811844	 1.1794039117	-0.357965
H	 0.8628364482	 1.8485520677	 0.5438490204	 0.138338
H	-0.0171538426	 1.8605665589	-1.0114360573	 0.131451
H	-0.8946776877	 1.8266595284	 0.5441746287	 0.138926
H	-0.1449754509	-2.1225267054	-3.1476566492	 0.264323
H	-0.1191152186	-3.6400110715	-2.3035338474	 0.261933
H	 0.2219005846	-3.6492523208	 2.2661833151	 0.26154
H	 0.2118904323	-2.1401796955	 3.1236604017	 0.263618
19.6313	182.5246	189.1993	202.4183	284.4133	295.4648	300.6592	332.6878	502.2886	548.7136	559.3865	573.6917	585.9394	635.3742	660.3249	766.2267	845.3308	972.8179	981.0152	993.4271	1063.9523	1095.3802	1108.6392	1170.8254	1288.3032	1385.4655	1439.3105	1454.459	1478.1466	1483.2557	1512.1162	1595.884	1603.3639	1631.7941	1654.3948	3048.9056	3107.3068	3157.0149	3618.3095	3619.8188	3753.7361	3754.8778
CC1=NC(N)=NC(N)=N1	Cc1nc(N)nc(N)n1	
InChI=1S/C4H7N5/c1-2-7-3(5)9-4(6)8-2/h1H3,(H4,5,6,7,8,9)	InChI=1S/C4H7N5/c1-2-7-3(5)9-4(6)8-2/h1H3,(H4,5,6,7,8,9)
