18
gdb 69078	2.72905	1.64838	1.22404	2.4369	78.75	-0.2408	-0.0357	0.2051	1041.8149	0.147504	-401.952527	-401.944473	-401.943529	-401.984618	31.408	
C	-0.0592150828	 1.5078675313	 0.1950344754	-0.505463
C	 0.07951437	 0.0136639015	 0.0673930155	 0.253254
N	-0.7170549536	-0.884940756	 0.9119867132	-0.392622
C	 0.74942731	-0.9092269048	 1.0945790619	 0.193598
C	 1.4719728963	-2.0131894507	 0.335651126	-0.351325
C	 1.1494120494	-1.7148532194	-1.1123878199	-0.074709
C	 0.4192792596	-0.6086882685	-1.2528475589	-0.089061
C	 1.2994034284	-0.3380944414	 2.3370337392	 0.071612
O	 0.6648785521	 0.3514451343	 3.1074378026	-0.287022
H	 0.7713185436	 2.0230726229	-0.2978179692	 0.127331
H	-0.98820959	 1.8391538124	-0.2832097406	 0.130586
H	-0.0874968576	 1.8121236547	 1.2440808933	 0.153288
H	-1.0828305297	-0.3433854509	 1.6996328199	 0.24197
H	 2.553814227	-1.9817143695	 0.5278376911	 0.11125
H	 1.1218378798	-3.0080021726	 0.6361736557	 0.129777
H	 1.4692016029	-2.3622467647	-1.9207055199	 0.104146
H	 0.0783590022	-0.1851044886	-2.1903001262	 0.103489
H	 2.3671468322	-0.5793716999	 2.5300302209	 0.079902
142.7437	190.4502	211.763	245.6414	261.1788	299.5324	399.0759	409.7884	492.9747	525.6394	629.488	713.8696	722.5473	764.8635	779.1779	879.6614	937.6896	950.8296	956.5659	977.8698	1029.7546	1072.6323	1076.3662	1105.4304	1124.2374	1158.5885	1197.9076	1259.4305	1306.7037	1345.3242	1366.5561	1394.6884	1417.3104	1433.4788	1462.1725	1494.6672	1497.5991	1674.4861	1777.5684	2896.8955	3012.2427	3033.7704	3058.2463	3095.0024	3127.7469	3191.0699	3215.2127	3430.2454
CC12NC1(CC=C2)C=O	C[C@]12N[C@]1(CC=C2)C=O	
InChI=1S/C7H9NO/c1-6-3-2-4-7(6,5-9)8-6/h2-3,5,8H,4H2,1H3	InChI=1S/C7H9NO/c1-6-3-2-4-7(6,5-9)8-6/h2-3,5,8H,4H2,1H3/t6-,7-/m1/s1
