17
gdb 85384	2.00447	1.77448	0.97224	1.7348	72.44	-0.2563	-0.0124	0.2439	1176.2833	0.137142	-455.209128	-455.200923	-455.199979	-455.2421	30.934	
C	-0.0663992737	 1.5021135023	 0.0722107161	-0.40275
C	-0.000529922	-0.0091082383	-0.0576496221	 0.111007
C	 0.8767578808	-0.493629125	-1.2079688076	-0.332272
C	 1.0213285628	-2.0005589102	-1.1661687884	 0.400816
O	 1.2262543311	-2.7088311035	-2.1246822063	-0.347319
N	 0.8894739623	-2.5277044849	 0.1098104961	-0.392489
C	 0.7474731313	-1.8253678571	 1.3176699915	 0.469393
N	 0.8248096359	-2.3186164404	 2.4807911643	-0.537682
O	 0.5304709642	-0.501534342	 1.1887010945	-0.233765
H	 0.9356286835	 1.9178969041	 0.2125995896	 0.133801
H	-0.5044511039	 1.9388589418	-0.8297668269	 0.126191
H	-0.6805900147	 1.7828751204	 0.9310264415	 0.141109
H	-1.0147415746	-0.4158632302	-0.1782174157	 0.100248
H	 0.4642991831	-0.21686284	-2.1804678192	 0.14246
H	 1.8747481168	-0.0449317046	-1.126889775	 0.143233
H	 1.0062060445	-3.5295718706	 0.1710610159	 0.261099
H	 1.0668996027	-3.3064365319	 2.4535100119	 0.21692
107.3101	120.9264	146.4761	228.4623	274.3699	359.4512	445.2778	461.9055	480.5746	563.0592	577.7036	640.4982	685.2149	724.5002	801.3827	871.2008	887.6312	923.3945	939.9351	1033.762	1074.8596	1109.7557	1132.7652	1162.4602	1220.8513	1286.4602	1305.1685	1368.9118	1391.1113	1407.646	1415.2221	1420.8404	1454.8631	1484.3942	1498.9716	1758.3179	1822.3566	3006.7299	3045.0966	3049.3801	3119.8713	3125.6777	3132.4164	3520.6294	3610.509
CC1CC(=O)NC(=N)O1	C[C@H]1CC(=O)N[C]([NH])O1	
InChI=1S/C5H8N2O2/c1-3-2-4(8)7-5(6)9-3/h3H,2H2,1H3,(H2,6,7,8)	InChI=1S/C5H8N2O2/c1-3-2-4(8)7-5(6)9-3/h3H,2H2,1H3,(H2,6,7,8)/t3-/m0/s1
