18
gdb 22301	2.59333	1.27829	0.8848	1.8472	82.74	-0.2242	-0.0312	0.1931	1293.3296	0.147285	-439.057564	-439.048874	-439.04793	-439.090871	32.606	
C	 0.0252048496	 1.5043770147	 0.0784822394	-0.47741
C	-0.024602912	 0.0096324965	-0.0292599275	 0.259284
C	-0.0981911457	-0.6475139055	-1.1978381419	-0.223376
C	-0.0541090552	-2.1018324448	-1.228520499	 0.347344
C	 0.2704650051	-2.7735482625	 0.0852976253	-0.170537
O	-0.3764990483	-2.1083133666	 1.1565639245	-0.241012
C	 0.0160606207	-0.7584450708	 1.270931607	-0.153291
N	-0.2161239675	-2.8675048463	-2.2450332376	-0.213569
O	-0.4684660777	-2.143890399	-3.4201292242	-0.393517
H	 0.9212101175	 1.8307319206	 0.6226461342	 0.13239
H	 0.035137872	 1.9765385631	-0.9066322423	 0.133281
H	-0.8358972185	 1.8902078344	 0.6391090787	 0.133905
H	-0.1697427216	-0.1171796886	-2.139747159	 0.110214
H	-0.0767132132	-3.8078291213	 0.0854568605	 0.130376
H	 1.3636321924	-2.7731576244	 0.2414565717	 0.098687
H	 1.0328004184	-0.6801953491	 1.70388832	 0.099901
H	-0.6685975636	-0.3027261092	 1.9961868915	 0.12006
H	-0.5534898025	-2.8456805514	-4.0734464113	 0.30727
92.9932	144.6908	186.2787	201.6504	246.8829	329.3525	345.4697	393.1458	420.8727	452.8745	485.2677	572.7884	601.0699	688.9237	872.506	892.5801	898.5111	951.2435	981.3586	1001.2614	1028.5607	1051.4678	1088.9921	1144.7348	1181.0426	1241.5464	1296.3381	1306.9858	1345.539	1367.2653	1401.0537	1411.4215	1422.7787	1474.7483	1477.5653	1483.5667	1489.2914	1694.8289	1711.9044	2915.1003	2951.1513	3016.2982	3052.1418	3062.4931	3120.2067	3121.6743	3206.5919	3825.6349
CC1=CC(COC1)=NO	CC1=CC(=NO)COC1	
InChI=1S/C6H9NO2/c1-5-2-6(7-8)4-9-3-5/h2,8H,3-4H2,1H3	InChI=1S/C6H9NO2/c1-5-2-6(7-8)4-9-3-5/h2,8H,3-4H2,1H3
