18
gdb 108092	2.56449	1.55438	1.27539	1.5717	71.97	-0.2084	0.0665	0.2749	1058.7672	0.147197	-438.982242	-438.973991	-438.973047	-439.014959	31.696	
C	-0.2571342375	 1.1879205298	 0.0846597883	-0.257661
O	 0.3181256701	-0.1040652981	-0.0403678571	-0.286229
C	 0.9033300469	-0.5606753684	 1.1097811209	 0.393547
C	 2.2228742555	-0.1366619211	 1.7515013344	-0.277706
C	 2.0352961883	-1.3973427004	 2.6368458741	-0.132414
N	 0.8566533232	-1.0178107978	 3.4908632026	-0.305555
C	 0.0448988915	-1.1790966046	 2.2685117969	-0.213602
C	 1.0602654697	-1.9998995269	 1.5020318351	 0.274134
O	 1.0505397031	-3.1134280881	 0.7089776159	-0.441394
H	 0.5001262608	 1.9451916838	 0.3283187777	 0.117092
H	-0.7050897732	 1.4297307344	-0.8813759904	 0.128499
H	-1.0328795105	 1.2066292949	 0.8621419667	 0.113534
H	 3.0529979027	-0.2482698279	 1.049328042	 0.107831
H	 2.285071212	 0.8127009312	 2.2901138366	 0.101922
H	 2.8803517299	-1.878859344	 3.1237832139	 0.079149
H	 0.6511366836	-1.8053180182	 4.1058924487	 0.210319
H	-1.0370333351	-1.1467573546	 2.2347212115	 0.097131
H	 0.7465991789	-3.8643230141	 1.2317520622	 0.291403
92.5014	146.1204	170.9392	232.811	278.4568	339.222	394.6887	422.5376	465.1625	565.7687	593.6352	679.5782	717.2867	790.8714	830.5569	897.1895	931.5505	946.2851	999.0152	1013.3873	1044.9803	1065.5164	1076.8857	1121.8685	1133.717	1166.4672	1175.8234	1181.2445	1216.6205	1238.2641	1278.3848	1312.2426	1331.6847	1362.3834	1469.542	1478.0701	1487.3434	1505.2431	1528.6789	2999.2921	3053.7992	3057.6066	3119.9617	3125.6011	3144.7829	3198.9554	3445.1035	3784.3051
COC12CC3NC1C23O	CO[C@@]12C[C@H]3N[C@@H]1[C@@]23O	
InChI=1S/C6H9NO2/c1-9-5-2-3-6(5,8)4(5)7-3/h3-4,7-8H,2H2,1H3	InChI=1S/C6H9NO2/c1-9-5-2-3-6(5,8)4(5)7-3/h3-4,7-8H,2H2,1H3/t3-,4+,5+,6-/m1/s1
