21
gdb 104675	2.03255	1.63946	1.11448	1.5765	77.82	-0.2373	0.0669	0.3042	1175.2673	0.181546	-424.1453	-424.136172	-424.135228	-424.179222	34.896	
C	 0.7308326304	-0.7892324621	 1.4685564833	-0.380795
C	 0.063696681	-0.0994839842	 0.2703249077	-0.286271
C	-1.3494542517	-0.6200320335	-0.0244649972	 0.345577
C	-2.3765805637	 0.0450048291	 0.8980657818	-0.149303
O	-2.4387199855	 1.4555484683	 0.6967758762	-0.420721
C	-1.8200149674	-0.8252641885	-1.5100846199	-0.014478
C	-0.8608179287	-2.0292827222	-1.6699102203	-0.235678
C	-1.604088909	-2.1408659401	-0.3194292939	-0.008326
O	-2.8531859917	-1.7731854607	-1.0344423312	-0.314218
H	 1.7041960127	-0.3383287966	 1.6838238742	 0.116521
H	 0.1238278729	-0.7055350677	 2.3757058143	 0.121927
H	 0.8943150166	-1.855679292	 1.2775290028	 0.114167
H	-0.0280490709	 0.9741962118	 0.4651235827	 0.121254
H	 0.7141752956	-0.1938663503	-0.6035374505	 0.093061
H	-3.3563938589	-0.4209960094	 0.7656204638	 0.115833
H	-2.0749499352	-0.0850857662	 1.9429998055	 0.104803
H	-2.8886715054	 1.6090990475	-0.1397643791	 0.283857
H	-2.1262715962	-0.0863069234	-2.253842849	 0.086166
H	-1.1833008979	-2.7562949077	-2.4154324095	 0.109728
H	 0.2167303642	-1.8667650665	-1.6798528206	 0.103611
H	-1.6589535013	-2.9822931556	 0.373005879	 0.093285
74.0808	94.8037	157.5636	200.9796	225.8944	294.6448	328.1404	355.5051	403.3397	468.7069	548.0991	616.866	692.0372	757.1583	791.2787	814.9892	868.4963	884.8676	911.5108	936.3696	994.0622	997.2185	1035.9672	1048.7805	1057.8	1096.6137	1116.579	1127.7993	1168.2768	1171.1775	1206.9963	1219.7557	1240.1961	1274.1558	1288.2961	1337.9644	1364.4038	1395.4268	1406.7715	1416.0511	1481.3373	1495.9544	1500.8383	1506.9004	1519.5804	3033.4103	3047.7301	3053.0212	3077.6888	3086.1989	3094.7377	3098.1568	3103.0613	3108.8339	3110.3873	3160.8379	3821.263
CCC1(CO)C2CC1O2	CC[C@@]1(CO)[C@H]2C[C@@H]1O2	
InChI=1S/C7H12O2/c1-2-7(4-8)5-3-6(7)9-5/h5-6,8H,2-4H2,1H3	InChI=1S/C7H12O2/c1-2-7(4-8)5-3-6(7)9-5/h5-6,8H,2-4H2,1H3/t5-,6+,7-
