16
gdb 14213	2.77782	2.521	1.86318	2.4083	64.46	-0.2282	0.0667	0.2949	784.802	0.129727	-383.67019	-383.663111	-383.662167	-383.700991	27.751	
C	-0.0510981614	 1.3981935319	-0.0477998327	-0.510173
C	-0.0284170988	-0.090267509	-0.012835415	 0.418239
O	 0.9537140113	-0.8041215445	-0.7670688169	-0.317135
C	 0.2033981126	-2.0158951073	-0.4906188399	-0.005957
C	 0.4434463778	-2.2532302445	 1.0221793126	-0.229965
C	-0.369917266	-0.9787726892	 1.233938316	-0.237593
C	-1.0758947751	-1.1355327483	-0.1122459266	 0.265757
O	-2.3801646666	-1.0701571557	-0.5166682124	-0.449427
H	 0.8586928518	 1.815177734	 0.3963947447	 0.131839
H	-0.1299495649	 1.7597713301	-1.0776661325	 0.135905
H	-0.9108446119	 1.7740985712	 0.5142494476	 0.130443
H	 0.3200340044	-2.7870302648	-1.2490675244	 0.087404
H	-0.0824572615	-3.1389755105	 1.3900531793	 0.095616
H	 1.4913545727	-2.2709398349	 1.3358186083	 0.102932
H	-0.7441379612	-0.5400856459	 2.1507180604	 0.090419
H	-2.8946437631	-1.7136657926	-0.0152970086	 0.291695
174.4286	179.8647	253.0682	292.6288	334.0622	371.0241	486.8993	562.9044	616.4231	662.3893	713.9172	799.858	852.3388	899.1281	908.3513	935.7639	943.7684	995.913	1023.6892	1066.5997	1105.8658	1113.0784	1131.4537	1175.2062	1212.9039	1262.1133	1287.8514	1299.0626	1337.442	1415.6718	1472.1276	1486.2222	1493.932	1539.8274	3037.9572	3049.6698	3103.781	3107.912	3117.7212	3146.5466	3196.6205	3777.4784
CC12OC3CC1C23O	C[C@@]12O[C@H]3C[C@@H]1[C@@]23O	
InChI=1S/C6H8O2/c1-5-3-2-4(8-5)6(3,5)7/h3-4,7H,2H2,1H3	InChI=1S/C6H8O2/c1-5-3-2-4(8-5)6(3,5)7/h3-4,7H,2H2,1H3/t3-,4-,5+,6-/m0/s1
