21
gdb 38926	2.71064	1.88409	1.3787	1.2922	80.07	-0.2385	0.0704	0.3089	994.3848	0.186565	-387.063274	-387.056319	-387.055375	-387.094531	29.102	
C	 0.0018421746	 1.5762164692	 0.2482759772	-0.255359
C	 1.5075196285	 1.5900665366	-0.1020798827	-0.005374
C	 2.4514410297	 1.1368356448	 1.0520165686	-0.260346
C	 2.4892596224	-0.3169457176	 0.4726134688	-0.019731
C	 2.11380001	-1.5167882799	 1.3629549189	-0.096305
O	 0.7720831592	-1.9436687753	 1.1887131672	-0.237169
C	-0.1433643756	-0.8653925544	 1.2547298755	-0.102069
C	-0.0319430441	 0.0335584053	 0.0098181856	-0.010866
C	 1.4196458503	 0.0960293511	-0.5670644051	-0.030827
H	-0.2717889229	 1.925434097	 1.2504111461	 0.089783
H	-0.6039729499	 2.1226428194	-0.4799272339	 0.097845
H	 1.8795363065	 2.3959991374	-0.7358530733	 0.060439
H	 3.424033207	 1.6344025736	 1.069038108	 0.099658
H	 2.0145821976	 1.2240875227	 2.0526621483	 0.093314
H	 3.4561483592	-0.505153692	-0.0009486955	 0.073142
H	 2.7245733924	-2.3915510987	 1.1211968298	 0.104476
H	 2.2926621565	-1.266743295	 2.4238677509	 0.082752
H	-1.1379806706	-1.3138918079	 1.3328914144	 0.104936
H	 0.0248723834	-0.2817494211	 2.1760688144	 0.08073
H	-0.7680461008	-0.2780895871	-0.7340562676	 0.072713
H	 1.5408631866	-0.2321249082	-1.5995204653	 0.058257
87.424	263.448	302.1077	334.3921	385.3762	447.1327	494.3696	599.222	690.3021	756.8802	771.1049	794.9119	850.9494	874.1412	889.3537	941.6366	952.8903	969.048	987.2869	1004.4634	1031.3837	1063.8487	1084.2121	1117.0915	1137.8635	1143.587	1152.7161	1186.3371	1213.1629	1226.3238	1256.9788	1260.0628	1272.9493	1293.5549	1298.9159	1313.2917	1330.0707	1342.3532	1353.1853	1388.6663	1415.9895	1478.7345	1487.7504	1495.9184	1507.1889	2944.4872	2954.5623	3033.9932	3041.5872	3056.7914	3063.9016	3078.7198	3080.2595	3087.8089	3092.9422	3099.2079	3109.6484
C1C2CC3COCC1C23	C1[C@H]2C[C@H]3COC[C@@H]1[C@@H]23	
InChI=1S/C8H12O/c1-5-2-7-4-9-3-6(1)8(5)7/h5-8H,1-4H2	InChI=1S/C8H12O/c1-5-2-7-4-9-3-6(1)8(5)7/h5-8H,1-4H2/t5-,6+,7-,8+
