19
gdb 90155	2.90167	1.57493	1.36774	2.6796	74.19	-0.2459	0.0697	0.3157	1021.8111	0.159792	-422.979093	-422.971402	-422.970458	-423.010961	30.44	
C	-0.3133174259	 1.4954836465	-0.1931084854	-0.409295
C	-0.0699450405	 0.0050866487	-0.0014075359	-0.045739
C	 0.9991481059	-0.6233765592	-0.9751969817	-0.319431
C	 1.8520991559	-0.9729037404	 0.2589531113	 0.273946
C	 3.2174598456	-0.6299214713	 0.7885794883	-0.1555
O	 2.9768324505	-0.1642647871	 2.1244457689	-0.262038
C	 1.6306022493	 0.3164424412	 2.2646238876	-0.162462
C	 0.866570222	-0.3833406464	 1.1738285361	 0.266122
O	 1.0738148769	-1.7964289258	 1.1299335389	-0.293104
H	 0.6270395841	 2.0573819746	-0.2254430764	 0.116927
H	-0.8418057979	 1.6810555586	-1.1337447063	 0.123649
H	-0.9208746226	 1.9067319392	 0.6201522524	 0.122255
H	-1.0184264844	-0.5374511634	 0.0350051341	 0.087377
H	 0.6894328044	-1.4742069124	-1.5853524274	 0.113501
H	 1.4643119	 0.1331828192	-1.6127730039	 0.109497
H	 3.9151061866	-1.4692386361	 0.8662634836	 0.120248
H	 3.673214476	 0.1507908206	 0.1588269791	 0.095261
H	 1.3135611395	 0.0760851533	 3.2839061342	 0.119984
H	 1.5723476246	 1.4070541204	 2.1260954625	 0.098802
121.1812	186.0685	225.8838	248.1675	304.4808	360.8799	431.179	482.9922	512.5361	622.0928	669.8028	729.3568	824.2767	848.0387	881.2037	901.9913	907.6231	937.9873	1000.4256	1006.0751	1044.7375	1063.8927	1096.341	1116.1224	1184.2856	1204.5053	1215.367	1222.3851	1245.1054	1261.558	1272.9366	1343.573	1353.0842	1393.915	1412.0264	1416.476	1473.9924	1495.1068	1497.2506	1503.2216	1512.2228	2980.4026	2992.1635	3028.3608	3064.084	3067.2434	3076.8431	3079.4451	3096.2212	3101.4957	3123.8821
CC1CC23COCC12O3	C[C@H]1C[C@@]23COC[C@@]12O3	
InChI=1S/C7H10O2/c1-5-2-6-3-8-4-7(5,6)9-6/h5H,2-4H2,1H3	InChI=1S/C7H10O2/c1-5-2-6-3-8-4-7(5,6)9-6/h5H,2-4H2,1H3/t5-,6+,7+/m0/s1
