14
gdb 129976	4.11486	1.00098	0.87235	2.8482	69.26	-0.2472	0.0011	0.2483	1283.0746	0.100659	-432.842913	-432.834688	-432.833744	-432.876312	30.198	
N	-0.0709570285	 1.3240077462	-0.01885788	-0.593553
C	-0.0695588563	-0.030476147	 0.0412432326	 0.49819
N	-1.0595115629	-0.8421758925	-0.216476696	-0.373443
C	-0.4905985593	-2.0573520452	 0.07216816	 0.377432
C	-1.2282185982	-3.3611064277	-0.0447815261	-0.448301
C	-1.6403243329	-3.6631737994	-1.4124143467	 0.31842
C	-1.9759852571	-3.9214498663	-2.5358422228	-0.457066
N	 0.7496844161	-2.0245459561	 0.478194932	-0.190388
O	 1.0476176904	-0.6337460612	 0.459723156	-0.208831
H	 0.8258698888	 1.7786627282	-0.0803356843	 0.278215
H	-0.8119486372	 1.7297801796	-0.567406988	 0.283091
H	-0.5804969893	-4.1544331363	 0.3419722847	 0.160788
H	-2.1120269787	-3.3173040807	 0.6039154622	 0.155437
H	-2.2745335651	-4.1469899116	-3.5294544436	 0.200009
50.3343	92.1168	215.9625	270.3458	329.6872	354.5916	377.2083	440.5422	457.8297	470.8123	620.2521	636.7177	656.3934	737.2347	767.402	828.0327	895.0354	942.0016	965.8615	1018.7075	1046.4133	1123.7177	1216.514	1328.8099	1375.2479	1444.0234	1453.5475	1579.1242	1608.6984	1686.8751	2247.5825	3034.399	3085.7941	3507.4087	3601.7213	3717.4402
NC1=NC(CC#C)=NO1	Nc1nc(CC#C)no1	
InChI=1S/C5H5N3O/c1-2-3-4-7-5(6)9-8-4/h1H,3H2,(H2,6,7,8)	InChI=1S/C5H5N3O/c1-2-3-4-7-5(6)9-8-4/h1H,3H2,(H2,6,7,8)
