20
gdb 66370	2.24346	1.38514	1.31629	3.3576	78.14	-0.2917	0.0184	0.3101	1122.1874	0.172417	-403.188304	-403.179698	-403.178754	-403.221082	33.7	
O	-0.0804979825	 1.4098750928	 0.0083881782	-0.455251
C	 0.024253336	-0.0073694873	-0.0216780566	 0.234151
C	 0.790669485	-0.5458312303	 1.2060758093	-0.23618
C	 0.7444909185	-2.0779764272	 1.3039439088	-0.212867
C	-0.701632058	-2.5925027554	 1.2922080949	-0.182279
C	-1.465918666	-2.0797911465	 0.0633581026	-0.216476
C	-1.4166736292	-0.5492744282	-0.0334261253	-0.208068
C	 0.7293948361	-0.41423064	-1.2639481139	 0.250587
N	 1.3026292362	-0.7131061402	-2.2225141394	-0.349494
H	 0.8094292129	 1.7811418849	 0.0207238783	 0.288098
H	 1.8266768531	-0.1882974456	 1.1757811302	 0.100659
H	 0.3142213828	-0.09221461	 2.0832155509	 0.11235
H	 1.2966591289	-2.51323013	 0.4615122661	 0.121437
H	 1.2607417579	-2.3992465632	 2.2145104656	 0.101755
H	-0.7112946023	-3.6873348121	 1.3116821305	 0.099455
H	-1.2138702298	-2.2576488062	 2.2046729478	 0.09614
H	-1.0341248696	-2.5167377933	-0.8460486911	 0.120304
H	-2.5106895644	-2.4052582162	 0.0987125913	 0.102527
H	-1.9175324919	-0.0936936871	 0.8288226005	 0.112791
H	-1.9253133436	-0.187256339	-0.9312302685	 0.12036
109.6583	141.6963	207.6603	249.8087	305.6723	326.5548	337.1907	384.9165	423.7118	453.4074	526.4465	590.852	632.3135	667.9726	791.5931	827.7727	860.2117	908.7097	940.9893	953.0972	982.8389	1037.7665	1064.7682	1084.7352	1104.4504	1148.4062	1177.2538	1191.3483	1284.8404	1285.6883	1295.5349	1339.9455	1358.4924	1372.8773	1378.288	1382.8191	1400.284	1478.4681	1485.5189	1487.0471	1493.7428	1505.4184	2345.4578	3015.5625	3029.4007	3031.3679	3033.1018	3044.2415	3072.0868	3072.594	3077.8958	3083.264	3098.6002	3797.9202
OC1(CCCCC1)C#N	OC1(CCCCC1)C#N	
InChI=1S/C7H11NO/c8-6-7(9)4-2-1-3-5-7/h9H,1-5H2	InChI=1S/C7H11NO/c8-6-7(9)4-2-1-3-5-7/h9H,1-5H2
