16
gdb 112080	2.46918	1.41944	1.0402	2.1732	65.62	-0.2575	-0.0425	0.215	1128.6018	0.124016	-475.028656	-475.020292	-475.019347	-475.062645	29.64	
O	 0.077833696	 1.3686471865	-0.1186768755	-0.420234
C	 0.0922417467	-0.0370924688	-0.052671569	-0.072159
C	-1.3395589932	-0.575561267	 0.0676790543	-0.030474
N	-2.1185126491	-0.126340983	-1.1014292376	-0.282719
C	-2.6835256764	-1.1548812267	-1.5760102162	 0.12965
O	-2.4965307476	-2.3568463411	-0.9853309983	-0.201979
C	-1.5232587254	-2.1366834471	 0.0505469822	-0.023767
C	-0.2551581658	-2.9203154897	-0.2513426	 0.13988
O	-0.0178960417	-3.4619246642	-1.2958202254	-0.228046
H	-0.5675703744	 1.5971295614	-0.8001714062	 0.298815
H	 0.5758500044	-0.4842385121	-0.9366184188	 0.106949
H	 0.6835776878	-0.3089205125	 0.8288025305	 0.110271
H	-1.7849231414	-0.1415898184	 0.9696553333	 0.108561
H	-3.3381137564	-1.1774883107	-2.4395136271	 0.156206
H	-1.9332619365	-2.501636487	 0.9985466967	 0.119807
H	 0.4573231431	-2.9493740997	 0.6045740871	 0.089239
56.3309	85.1686	128.4641	191.3663	249.362	282.8692	392.7796	425.8303	474.9964	581.6576	706.2019	740.726	805.9648	846.703	897.2184	968.536	982.5654	1009.0435	1051.1422	1069.9257	1098.2163	1123.1674	1140.3015	1224.4729	1246.8712	1296.4687	1329.7536	1333.036	1365.1031	1392.3474	1418.6236	1442.1141	1507.6985	1709.3802	1844.0511	2873.045	2973.9555	3042.6096	3059.076	3069.9048	3225.2142	3774.3463
OCC1N=COC1C=O	OC[C@H]1N=CO[C@H]1C=O	
InChI=1S/C5H7NO3/c7-1-4-5(2-8)9-3-6-4/h2-5,7H,1H2	InChI=1S/C5H7NO3/c7-1-4-5(2-8)9-3-6-4/h2-5,7H,1H2/t4-,5+/m1/s1
