19
gdb 105783	2.26911	1.50771	1.24446	1.9865	71.58	-0.2375	-0.0292	0.2083	1119.6274	0.157322	-460.17374	-460.164398	-460.163453	-460.208463	33.265	
C	 0.0999517049	 1.4986659691	 0.2337611257	-0.393755
C	-0.009404198	-0.0037354617	-0.0440390943	-0.241573
C	 0.7104888633	-0.4304350315	-1.3166292304	 0.378005
O	 2.0706209407	-0.1203910866	-1.2401574254	-0.265998
C	 2.7486015462	-1.0871186354	-2.0371949179	-0.120332
C	 1.9091474815	-2.3522936445	-1.8112637877	-0.09766
O	 0.6077231686	-1.8522840256	-1.496138681	-0.311662
C	 0.0502727965	 0.1504268634	-2.585528508	 0.135933
O	 0.6314207632	 0.7600205864	-3.4423114447	-0.256762
H	 1.1463218805	 1.7973486153	 0.3331545547	 0.143252
H	-0.3411873258	 2.09416977	-0.5728018336	 0.125266
H	-0.4224647	 1.7562339414	 1.1590438107	 0.118425
H	 0.4236367577	-0.586003858	 0.7754165482	 0.114169
H	-1.0582894279	-0.3088273504	-0.1329207393	 0.111234
H	 2.7548904784	-0.7829698332	-3.0893613769	 0.128402
H	 3.7745104577	-1.1715431502	-1.6734764603	 0.119453
H	 1.8531220454	-2.9930764033	-2.6964601182	 0.116397
H	 2.2818528991	-2.9432721317	-0.9657920865	 0.111706
H	-1.0330661021	-0.0953614932	-2.6656938251	 0.085499
64.0737	82.1566	105.9919	185.8328	204.0257	207.9278	289.1095	301.2932	383.6375	426.6297	587.5484	669.5918	702.3633	776.1963	825.4783	891.8107	925.3112	936.9641	954.6446	987.5949	1021.857	1062.0499	1081.3413	1115.2973	1157.857	1202.3541	1224.9674	1240.8319	1249.5703	1311.5452	1359.3874	1375.7372	1377.4736	1409.1858	1416.9859	1478.0391	1497.9261	1506.7477	1515.8075	1527.3519	1842.418	2876.6072	3027.5725	3042.6851	3046.2874	3050.1629	3083.3305	3086.5325	3110.0227	3120.1765	3129.9912
CCC1(OCCO1)C=O	CCC1(OCCO1)C=O	
InChI=1S/C6H10O3/c1-2-6(5-7)8-3-4-9-6/h5H,2-4H2,1H3	InChI=1S/C6H10O3/c1-2-6(5-7)8-3-4-9-6/h5H,2-4H2,1H3
