17
gdb 75370	2.73604	1.84942	1.44885	1.1952	68.59	-0.2274	0.0225	0.2498	934.407	0.13953	-455.156042	-455.148979	-455.148035	-455.187311	28.271	
N	 0.018288156	 1.3435848729	-0.0893635539	-0.562052
C	-0.0613696562	-0.0296439905	-0.0315962591	 0.395933
N	-1.1858707124	-0.6331601683	-0.0242264251	-0.311809
C	-1.1541347399	-2.0940427945	-0.0538559273	-0.159163
C	 0.2456579513	-2.6804150452	 0.1488438069	 0.027855
C	 0.8461931454	-2.3529720217	 1.5407887425	-0.098907
O	 1.5889614598	-1.1436154164	 1.3211607988	-0.262438
C	 1.2827213372	-0.7720145755	-0.0141943147	 0.066561
O	 1.1450248472	-1.9723474473	-0.7229677863	-0.235746
H	 0.8328859122	 1.7676869119	 0.328390509	 0.255613
H	-0.8488559901	 1.8197831962	 0.1176199195	 0.254451
H	-1.8306288081	-2.4763961915	 0.7217851092	 0.103612
H	-1.5594832885	-2.4371093449	-1.01568831	 0.111062
H	 0.2924136102	-3.7421242303	-0.1009882278	 0.090785
H	 0.0724142469	-2.1946298572	 2.2995955722	 0.113211
H	 1.5393150463	-3.1258029585	 1.8863849344	 0.113681
H	 2.1078416626	-0.1877107193	-0.4290224383	 0.097349
118.7804	225.2586	267.9347	352.0293	367.91	414.7726	468.4166	518.3387	589.8512	667.5293	712.7923	771.8615	813.9471	836.557	900.029	926.5006	938.9356	976.0443	1009.6126	1033.6833	1059.5235	1089.4482	1136.296	1199.1529	1212.2438	1234.1665	1291.0235	1293.9662	1325.4963	1345.5645	1359.8939	1385.4469	1423.1328	1483.227	1522.2739	1630.5006	1739.8967	3010.0532	3037.3035	3042.9992	3085.9259	3091.868	3102.0514	3559.952	3674.4608
NC1=NCC2COC1O2	NC1=NC[C@@H]2CO[C@H]1O2	
InChI=1S/C5H8N2O2/c6-4-5-8-2-3(9-5)1-7-4/h3,5H,1-2H2,(H2,6,7)	InChI=1S/C5H8N2O2/c6-4-5-8-2-3(9-5)1-7-4/h3,5H,1-2H2,(H2,6,7)/t3-,5+/m1/s1
