19
gdb 53241	6.57782	0.6374	0.6322	0.9006	93.05	-0.2399	0.0407	0.2805	1814.3472	0.157135	-348.689737	-348.679779	-348.678835	-348.726676	35.415	
C	 0.6431525421	 1.3416872206	-0.7470306218	-0.498426
C	 0.2703165921	 0.0082671505	-0.2967159455	 0.095909
C	-0.0338801036	-1.0983476167	 0.0712078367	 0.03572
C	-0.4170560155	-2.4163734264	 0.5325271286	-0.141073
C	-0.3200537943	-2.7444352092	 2.0563235383	-0.230357
C	-1.6641145884	-3.5403615938	 1.9447993764	-0.187537
C	-1.9330743786	-2.7854466148	 0.599361225	-0.230357
C	-1.4936833796	-4.9738523535	 1.7964666908	 0.34269
C	-1.3409228118	-6.1594171324	 1.6607185543	-0.490133
H	 1.3755224839	 1.2984870777	-1.5609363378	 0.147097
H	-0.2272998405	 1.8962475599	-1.1153282696	 0.146405
H	 1.0870430826	 1.9276046306	 0.0657000076	 0.146412
H	 0.1154005687	-3.1867745375	-0.0352793689	 0.108554
H	 0.5581803097	-3.2950747219	 2.3948967396	 0.115934
H	-0.4468145067	-1.8452577436	 2.6628863528	 0.11217
H	-2.3867661594	-3.3346338087	 2.7390627024	 0.102886
H	-2.5486592733	-1.8986967309	 0.7643950557	 0.11217
H	-2.3430834082	-3.3688380587	-0.2256707342	 0.115935
H	-1.2136506293	-7.2075369312	 1.5493248598	 0.196001
15.2474	48.8584	81.6881	134.1246	187.7882	234.0418	297.0703	313.5082	424.0024	498.3443	515.7549	538.4512	593.2073	616.8776	627.6317	800.9532	825.095	842.2499	925.0439	929.79	977.9424	1013.1788	1052.7143	1052.7317	1082.9043	1108.3848	1186.7439	1190.7934	1194.6487	1251.4521	1258.457	1266.1437	1341.4102	1369.1334	1415.1501	1471.9401	1478.5377	1479.1355	1493.0863	2231.03	2366.4416	3024.1979	3047.1511	3062.9158	3073.8846	3080.568	3083.712	3084.4039	3139.2925	3141.2035	3505.1869
CC#CC1CC(C1)C#C	CC#C[C@H]1C[C@@H](C1)C#C	
InChI=1S/C9H10/c1-3-5-9-6-8(4-2)7-9/h2,8-9H,6-7H2,1H3	InChI=1S/C9H10/c1-3-5-9-6-8(4-2)7-9/h2,8-9H,6-7H2,1H3/t8-,9-
