16
gdb 74164	2.69806	1.29923	0.94298	3.3601	77.42	-0.2546	-0.0612	0.1934	1204.3179	0.12411	-400.80905	-400.800614	-400.79967	-400.842691	30.54	
C	 0.0403649999	 1.4738015803	 0.061573499	-0.49641
C	 0.0224529292	-0.0130331125	-0.0424673441	 0.335774
C	-0.0635205457	-0.7678703714	-1.1454166975	-0.293883
C	-0.0543756607	-2.2099530883	-0.8280487256	 0.392911
O	-0.1643653232	-3.1335975943	-1.5972170399	-0.32072
C	 0.1242151916	-2.3373394858	 0.6948464578	-0.356393
C	 0.0732222174	-0.8823230568	 1.2217256073	-0.239569
C	 1.1969229531	-0.5263587176	 2.0906778605	 0.273996
N	 2.0865893467	-0.2348246902	 2.76853315	-0.324319
H	 0.9505535369	 1.8130485885	 0.569875465	 0.167561
H	-0.0113752312	 1.946388363	-0.9210903394	 0.142773
H	-0.8037683688	 1.8304884233	 0.665200217	 0.14444
H	-0.1455553519	-0.4015873485	-2.1610441558	 0.123566
H	-0.6562347357	-2.9707643905	 1.1213393778	 0.146368
H	 1.0843018798	-2.8156035441	 0.9049802322	 0.160597
H	-0.8429455574	-0.7101913454	 1.8026661359	 0.143307
55.5442	137.0845	142.2165	181.7588	230.2705	294.6966	434.5343	450.2973	507.9145	539.6572	570.5304	603.2046	672.8176	798.8001	843.3364	880.4716	944.4451	996.2239	1015.5592	1053.811	1070.1238	1150.5842	1179.9293	1190.0194	1242.3418	1268.5015	1314.2293	1324.2159	1413.3995	1457.0922	1474.5233	1478.3439	1689.7221	1823.0265	2356.7732	3021.5126	3028.382	3080.1446	3080.4108	3127.868	3133.2761	3220.2318
CC1=CC(=O)CC1C#N	CC1=CC(=O)C[C@H]1C#N	
InChI=1S/C7H7NO/c1-5-2-7(9)3-6(5)4-8/h2,6H,3H2,1H3	InChI=1S/C7H7NO/c1-5-2-7(9)3-6(5)4-8/h2,6H,3H2,1H3/t6-/m0/s1
