20
gdb 68228	3.16146	1.64351	1.4091	2.8818	77.62	-0.2325	0.0732	0.3057	997.5839	0.173009	-403.118659	-403.111304	-403.11036	-403.149861	30.699	
C	-0.0120231588	 1.5489008428	 0.0495481296	-0.469807
C	 0.0116401237	 0.041287007	-0.0511514135	 0.405334
C	 0.9395105998	-0.6411761796	-1.0943322439	-0.289523
C	 1.1905101984	-1.6111212967	 0.0798789144	 0.079062
O	 0.8058507011	-0.5774203608	 1.0127071696	-0.304573
C	 0.1144399581	-2.6910000787	 0.042875788	-0.046032
N	-0.7642039622	-2.7701952182	 1.2170259835	-0.318743
C	-1.2627429808	-2.1353821264	-0.0234214413	-0.042825
C	-1.3837120796	-0.6117626628	-0.0248616939	-0.240438
H	 1.0060887045	 1.9464360011	 0.0799975914	 0.120761
H	-0.533052771	 1.9852025343	-0.809519907	 0.115336
H	-0.5318295491	 1.8646981704	 0.9602039512	 0.127056
H	 0.4980227019	-1.0406392632	-2.0109041818	 0.092251
H	 1.8082641846	-0.0210164391	-1.3221677643	 0.103319
H	 2.1970171259	-1.9910451348	 0.2742860617	 0.073331
H	 0.3570423313	-3.5973675732	-0.5075298985	 0.0804
H	-1.146112552	-3.710641273	 1.2868354562	 0.227397
H	-2.01633521	-2.6783676828	-0.5874706224	 0.081943
H	-1.9263041331	-0.2700519753	 0.8637860054	 0.112449
H	-1.9533670527	-0.2918215108	-0.9058797442	 0.093302
173.8205	201.5032	277.0591	295.234	374.4256	400.8313	434.7663	471.1885	568.6831	649.3602	695.3346	775.4888	817.1123	836.0207	869.7635	888.795	912.6589	937.9892	940.3994	970.3974	993.0975	1008.3111	1026.9654	1070.9641	1108.5533	1135.4197	1158.9089	1184.627	1214.7262	1235.1821	1242.0729	1247.0746	1260.654	1301.4315	1344.3848	1367.8082	1386.0507	1408.0437	1444.8342	1462.5964	1479.9824	1486.7999	1494.4333	3028.4266	3035.3516	3062.3503	3073.7059	3074.9611	3103.8604	3116.1388	3129.4403	3129.5771	3141.0159	3493.7949
CC12CC(O1)C1NC1C2	C[C@@]12C[C@@H](O1)[C@H]1N[C@H]1C2	
InChI=1S/C7H11NO/c1-7-2-4-6(8-4)5(3-7)9-7/h4-6,8H,2-3H2,1H3	InChI=1S/C7H11NO/c1-7-2-4-6(8-4)5(3-7)9-7/h4-6,8H,2-3H2,1H3/t4-,5+,6-,7+/m0/s1
