20
gdb 74323	3.24213	0.94001	0.76174	4.3692	86.64	-0.2416	0.0173	0.2589	1500.268	0.171374	-366.056164	-366.047022	-366.046078	-366.090615	33.636	
C	-0.0366584737	 1.5354737904	 0.0865429351	-0.490106
C	 0.0346606905	 0.0432512733	 0.0175048088	 0.32639
C	-0.0276659798	-0.7213671076	-1.0747556301	-0.175705
C	 0.0225776662	-2.1983554429	-0.7590162725	-0.018336
C	 0.9752946706	-3.0146236731	-1.663861023	-0.351032
C	 0.5504187116	-3.034015755	-3.0621490428	 0.263444
N	 0.1958350407	-3.035619669	-4.1622804789	-0.314693
C	 0.4648459763	-2.2157384826	 0.7284629291	-0.240192
C	 0.1363114187	-0.8048961921	 1.2699182295	-0.30024
H	 0.8567433968	 1.9517369544	 0.5691790598	 0.126299
H	-0.1293404321	 1.9834799794	-0.9061481627	 0.128097
H	-0.8939261542	 1.8617696723	 0.6893910124	 0.127726
H	-0.1484578062	-0.3526349502	-2.0880650751	 0.106513
H	-0.9793206172	-2.6379713971	-0.8683768311	 0.096828
H	 1.9866820197	-2.5947734754	-1.6118427613	 0.148121
H	 1.0379712998	-4.0494699414	-1.307318796	 0.14858
H	-0.0094488675	-3.0184099179	 1.2989403772	 0.103581
H	 1.5473766898	-2.3808287163	 0.7781713366	 0.103026
H	 0.8940136109	-0.4354382219	 1.9711384376	 0.103209
H	-0.8173336308	-0.7886448072	 1.8169265574	 0.108492
62.8439	93.1694	137.84	166.7338	193.7796	271.5739	357.7641	386.1134	399.526	459.9206	529.2018	590.9462	651.8214	821.0469	858.0672	862.5943	891.3208	922.2348	933.598	983.8105	1007.2296	1027.9994	1051.3753	1073.8625	1105.5792	1173.2298	1187.7515	1212.769	1248.6894	1279.368	1285.086	1326.0135	1339.5158	1354.2393	1374.8996	1416.0685	1464.5133	1479.8657	1483.1792	1487.7047	1499.8854	1722.1094	2359.289	2996.2587	3006.0626	3018.4725	3034.2609	3039.2162	3053.0086	3063.6301	3078.9045	3097.5072	3114.4112	3188.7845
CC1=CC(CC#N)CC1	CC1=C[C@@H](CC#N)CC1	
InChI=1S/C8H11N/c1-7-2-3-8(6-7)4-5-9/h6,8H,2-4H2,1H3	InChI=1S/C8H11N/c1-7-2-3-8(6-7)4-5-9/h6,8H,2-4H2,1H3/t8-/m1/s1
