16
gdb 14117	4.01043	1.7711	1.38922	2.9241	65.31	-0.2396	0.0186	0.2582	893.0386	0.131889	-379.919561	-379.912151	-379.911207	-379.951265	28.095	
N	 0.5196112433	 0.2829182453	-0.9960157559	-0.540168
C	-0.0553978752	 0.2047249512	 0.2338164325	 0.312114
O	 0.4282654559	 0.6694973794	 1.2510624142	-0.372961
C	-1.3486285107	-0.5475153834	 0.2586633692	 0.263197
C	-2.3104311757	-0.5930518841	 1.4512140362	-0.300074
C	-2.6228732857	-2.0896925872	 1.1156785105	-0.241161
C	-1.6406297057	-2.0022163534	-0.059742772	-0.071839
N	-1.9969905096	-0.9438512571	-0.9906315009	-0.375542
H	 1.3697494701	 0.8104601837	-1.0987174671	 0.258339
H	-0.0051192449	-0.0090181391	-1.8041348488	 0.270138
H	-1.7802434672	-0.4738126023	 2.3960833772	 0.140808
H	-3.1414991229	 0.1184247031	 1.4150058676	 0.098479
H	-2.2926194784	-2.7709423535	 1.9023075577	 0.118972
H	-3.6534742058	-2.3411539552	 0.84421611	 0.10174
H	-0.9634975784	-2.7741766316	-0.4072522433	 0.106777
H	-2.993830079	-0.7338946256	-0.9997811471	 0.23118
75.7064	168.0183	205.8774	293.0681	317.1694	386.2091	480.6462	506.9253	626.0604	648.3456	739.9035	759.995	780.2542	847.0247	905.4724	940.9684	948.4027	1031.1258	1055.2708	1077.3701	1102.778	1113.1549	1167.186	1203.4689	1227.1575	1235.0193	1267.2845	1296.0233	1342.2071	1449.942	1478.7672	1497.5796	1593.8265	1788.1543	3048.6565	3058.4379	3113.4049	3142.5006	3182.1251	3460.6114	3594.0378	3736.5992
NC(=O)C12CCC1N2	NC(=O)[C@]12CC[C@H]1N2	
InChI=1S/C5H8N2O/c6-4(8)5-2-1-3(5)7-5/h3,7H,1-2H2,(H2,6,8)	InChI=1S/C5H8N2O/c6-4(8)5-2-1-3(5)7-5/h3,7H,1-2H2,(H2,6,8)/t3-,5+/m1/s1
