27
gdb 42139	1.68513	1.68439	0.96759	0.0004	94.66	-0.2948	0.0834	0.3782	1362.76	0.256285	-353.570421	-353.561255	-353.560311	-353.60358	37.439	
C	-0.1068253216	 1.5932971822	 0.0115114858	-0.194148
C	 1.2591184965	 2.3040255203	 0.0889270368	-0.17832
C	 2.1779165308	 1.8425190383	 1.2476263313	-0.178381
C	 3.5858259884	 1.3786625107	 0.8236814578	-0.194127
C	 3.6468519714	 0.2483683224	-0.2230998084	-0.178396
C	 2.8874088665	-1.046806557	 0.1590057347	-0.178404
C	 1.8473671752	-1.5276056519	-0.8726601436	-0.194075
C	 0.753383872	-0.5143136999	-1.2645551984	-0.178367
C	-0.0724087511	 0.0548230141	-0.083883557	-0.178357
H	-0.7019369501	 1.8680827097	 0.8926899514	 0.089335
H	-0.650980514	 1.9918073827	-0.8552511736	 0.089323
H	 1.7814957935	 2.1829218496	-0.8661513514	 0.09582
H	 1.0713938838	 3.3803861997	 0.1731270023	 0.090232
H	 2.2981771558	 2.6575299385	 1.9702271076	 0.090269
H	 1.6886017778	 1.0388491993	 1.8082410388	 0.095821
H	 4.1409793567	 2.2402491749	 0.429196062	 0.089355
H	 4.1264091927	 1.0593486833	 1.7247949431	 0.08933
H	 3.2732985986	 0.6255229926	-1.1812066496	 0.095833
H	 4.7027313574	 0.0171511733	-0.403464283	 0.090271
H	 3.6034108713	-1.8615079001	 0.3155093338	 0.09029
H	 2.3962613641	-0.9134475305	 1.1287942216	 0.095838
H	 2.3699929469	-1.8370560662	-1.7876890156	 0.089342
H	 1.3686804952	-2.433991699	-0.4783758838	 0.089358
H	 1.2101493492	 0.3084688548	-1.8248071379	 0.095819
H	 0.084180254	-1.0053778817	-1.9800097477	 0.090269
H	 0.303061762	-0.3554268226	 0.8597520508	 0.095816
H	-1.1072893529	-0.2988148774	-0.1532236777	 0.090255
165.817	167.727	172.3969	175.2569	270.4785	314.3814	340.9495	344.6832	357.4906	457.6165	461.8954	506.7549	700.3591	704.2729	741.2821	797.6399	798.6678	818.8265	892.4959	928.4589	929.1421	974.9703	1020.3153	1021.5693	1045.5613	1060.1545	1085.6874	1087.0296	1116.896	1117.6448	1177.5236	1178.9228	1223.0775	1223.1654	1241.6663	1270.5279	1310.5496	1325.8345	1328.2547	1329.5309	1359.745	1361.5817	1372.0927	1390.0788	1391.8347	1393.6839	1399.6748	1400.1573	1481.5377	1482.2666	1486.9502	1487.6607	1488.5467	1495.8215	1496.383	1514.8519	1523.4575	3007.5453	3007.8663	3008.6062	3029.6153	3029.9836	3032.0165	3035.2126	3036.005	3039.3892	3045.2331	3045.4937	3048.3399	3059.6958	3061.229	3070.2864	3071.2209	3078.2429	3078.3792
C1CCCCCCCC1	C1CCCCCCCC1	
InChI=1S/C9H18/c1-2-4-6-8-9-7-5-3-1/h1-9H2	InChI=1S/C9H18/c1-2-4-6-8-9-7-5-3-1/h1-9H2
