22
gdb 7549	2.84138	1.42348	1.13799	0.9308	79.43	-0.2417	0.0886	0.3303	1188.231	0.197559	-350.196583	-350.186672	-350.185727	-350.231159	36.221	
C	-0.2126625585	 1.5103427342	 0.0888591586	-0.383961
C	-0.0899722043	 0.0033795942	 0.2432497639	-0.046569
O	-1.2512810265	-0.5915107575	-0.315762895	-0.290121
C	-1.3687412992	-1.9762729187	-0.1300545226	 0.441674
C	-0.4221006653	-2.8114215975	-0.9664887821	-0.454281
C	-1.783823194	-2.453576009	 1.2453802192	-0.352766
C	-2.7776816112	-2.457632864	 0.0962362841	-0.050288
C	-3.9499815566	-1.502831409	 0.0936387805	-0.400269
H	 0.6720407579	 2.0089647895	 0.4963719942	 0.112597
H	-0.3082212254	 1.7809911022	-0.9665771841	 0.126289
H	-1.0957576969	 1.8814494994	 0.6170619927	 0.123067
H	 0.815807193	-0.3568422769	-0.2676399701	 0.089208
H	 0.0031603378	-0.2741047057	 1.3043715794	 0.08794
H	 0.6236891721	-2.6540221999	-0.6809902999	 0.116028
H	-0.6382840359	-3.8765614816	-0.8444994813	 0.115494
H	-0.5268756495	-2.5587090278	-2.0270230932	 0.122159
H	-1.3958588522	-3.3962230935	 1.6174947801	 0.104827
H	-1.9255345603	-1.6927240315	 2.006324692	 0.110439
H	-2.9929896973	-3.4356143792	-0.3280932146	 0.078617
H	-3.6485965565	-0.5183438915	 0.4571494602	 0.125591
H	-4.351420334	-1.3730151977	-0.9174043839	 0.114693
H	-4.7595583271	-1.8762139185	 0.730294862	 0.109634
59.6905	101.5953	143.1638	187.0593	200.8029	226.6867	251.5126	259.2508	324.3311	409.7283	428.2433	457.0314	556.7494	709.0875	786.9797	818.6723	867.3548	877.9497	928.3567	939.2876	988.0844	1020.7224	1043.467	1093.7604	1113.8205	1128.798	1138.5053	1156.1567	1188.741	1191.2616	1264.1694	1292.0137	1304.4809	1397.1571	1401.4953	1406.9564	1421.9355	1428.2041	1481.3199	1483.6802	1483.8306	1494.0404	1498.8667	1500.3734	1508.012	1530.3573	2979.664	3008.5023	3031.9975	3033.3571	3043.3211	3088.9482	3094.2583	3110.7836	3117.3172	3119.8502	3121.0291	3125.616	3138.5157	3211.4484
CCOC1(C)CC1C	CCO[C@@]1(C)C[C@H]1C	
InChI=1S/C7H14O/c1-4-8-7(3)5-6(7)2/h6H,4-5H2,1-3H3	InChI=1S/C7H14O/c1-4-8-7(3)5-6(7)2/h6H,4-5H2,1-3H3/t6-,7+/m1/s1
