15
gdb 15028	2.6893	1.75699	1.20327	2.645	67.36	-0.2529	-0.0389	0.214	986.4648	0.116854	-362.599895	-362.591611	-362.590667	-362.633426	29.18	
O	-0.2182725731	 0.1373294597	 0.1993931186	-0.235452
C	-0.0358114687	 1.2982598092	-0.041848927	 0.166189
C	 1.3596772417	 1.9469270695	-0.0768964817	-0.258419
C	 1.4806348742	 2.7784862394	-1.2667231899	 0.277603
C	 1.518960082	 3.4760579694	-2.2458430018	-0.437209
C	 1.5529701814	 2.7313606183	 1.2308598837	 0.004942
C	 2.5213695039	 3.847706103	 1.3281006625	-0.251828
N	 1.0707746066	 4.1089851186	 1.3799732069	-0.315139
H	-0.8719672432	 2.0044430333	-0.231460805	 0.10014
H	 2.084031712	 1.124159816	-0.1016564442	 0.13388
H	 1.5748139861	 4.0748481972	-3.121894891	 0.211774
H	 1.3858457689	 2.1095246345	 2.1076037337	 0.11512
H	 3.0539526992	 4.0154911886	 2.2594437073	 0.125372
H	 3.0618271074	 4.1264584629	 0.4281585888	 0.126529
H	 0.7717115816	 4.4628345703	 0.472376039	 0.236499
50.4965	88.8761	142.3012	172.2055	229.4873	346.298	385.6521	463.3569	506.9408	624.5372	650.0077	658.1568	772.1944	846.1124	923.9593	960.2497	968.8303	990.0111	1043.9815	1094.426	1126.27	1151.1655	1193.9481	1234.7052	1269.1096	1305.7994	1314.3533	1398.4521	1414.131	1505.9689	1839.6819	2229.9647	2909.7533	3047.0966	3116.8258	3134.6934	3205.704	3478.8262	3498.508
O=CC(C#C)C1CN1	O=C[C@@H](C#C)[C@H]1CN1	
InChI=1S/C6H7NO/c1-2-5(4-8)6-3-7-6/h1,4-7H,3H2	InChI=1S/C6H7NO/c1-2-5(4-8)6-3-7-6/h1,4-7H,3H2/t5-,6-/m1/s1
