20
gdb 83986	2.54235	1.56407	1.28403	2.1132	80.1	-0.2225	0.0269	0.2493	1077.0898	0.172935	-403.141998	-403.133747	-403.132803	-403.17504	31.676	
C	 0.2115736099	 1.5456978284	 0.2588983604	-0.405596
C	 0.0185656591	 0.0735095839	-0.0239555133	-0.032957
C	 0.4390999453	-0.5666334458	-1.3353387308	-0.073162
C	 1.1166246896	 0.2020846219	-2.4558049847	-0.250908
C	 2.5368275301	-0.2894734614	-2.7149946458	-0.062355
O	 3.5005091789	 0.2343827401	-1.7918837502	-0.223592
C	 3.4003770731	 0.0192895731	-0.4575819317	 0.120761
N	 2.49883588	-0.4401791647	 0.296169814	-0.252339
C	 1.1918054842	-0.88876828	-0.0550471545	-0.008931
H	 1.1961486091	 1.9032512701	-0.0521969082	 0.126559
H	-0.5464538612	 2.1505943532	-0.2516349226	 0.11295
H	 0.1266913225	 1.7401767206	 1.3328889244	 0.122985
H	-0.889310389	-0.3355977351	 0.4115391552	 0.083706
H	-0.2060574373	-1.3679395586	-1.6868953696	 0.081575
H	 0.5395416482	 0.0820965567	-3.3795290395	 0.106644
H	 1.1557381562	 1.2785956512	-2.2588017689	 0.114787
H	 2.5752159725	-1.3861106705	-2.6924203984	 0.112364
H	 2.8997264389	 0.0463114697	-3.6904934393	 0.112898
H	 4.3349877619	 0.3523262984	-0.0046393585	 0.118684
H	 0.9902167681	-1.8617690714	 0.3860522218	 0.095925
56.4067	137.7751	182.9972	233.5631	283.4363	325.8542	391.9556	421.0224	512.3704	586.162	639.9687	735.6857	754.8538	785.2283	848.7424	858.7699	942.1585	967.2032	976.4433	986.5153	1007.264	1069.8443	1085.0914	1100.9835	1135.7564	1152.0049	1163.0937	1187.7448	1242.7575	1262.4141	1304.9793	1351.3982	1371.6098	1395.0019	1415.4126	1419.3562	1432.7942	1444.9602	1474.1136	1491.9142	1501.3834	1502.3724	1759.6917	3026.3412	3033.5007	3041.7998	3080.6084	3092.5185	3092.9735	3113.5342	3123.4217	3128.3713	3132.5999	3145.1425
CC1C2CCOC=NC12	C[C@H]1[C@H]2CCOC=N[C@@H]12	
InChI=1S/C7H11NO/c1-5-6-2-3-9-4-8-7(5)6/h4-7H,2-3H2,1H3	InChI=1S/C7H11NO/c1-5-6-2-3-9-4-8-7(5)6/h4-7H,2-3H2,1H3/t5-,6+,7-/m0/s1
