17
gdb 49675	2.27521	1.67385	1.52101	4.3915	72.94	-0.2384	-0.0444	0.194	975.5773	0.136162	-421.855807	-421.847927	-421.846983	-421.888616	29.406	
O	-1.0062442253	 1.2975659562	-0.1534068445	-0.266399
C	 0.1332424475	 1.0933865162	 0.1943841825	 0.141692
C	 1.2618348186	 2.0454592117	 0.0660939953	-0.107264
C	 1.5274460499	 2.8539856635	-1.2030730677	-0.070654
C	 0.4237723253	 2.9523293896	-2.2657681285	-0.238691
C	-0.710157887	 3.8024533855	-1.6526187386	-0.3091
C	-0.2861228558	 4.1421588284	-0.2192055657	 0.419224
O	-0.8887687134	 4.8452583356	 0.5494003527	-0.321707
C	 1.090355769	 3.5684663217	 0.0379150805	-0.177814
H	 0.4191306656	 0.115674692	 0.6411818347	 0.08761
H	 2.1614517779	 1.7177514764	 0.5792560157	 0.105401
H	 2.5601173287	 2.8754005869	-1.5318015494	 0.10594
H	 0.8418423116	 3.4341523089	-3.1535611352	 0.111179
H	 0.070393101	 1.9651678028	-2.5737346276	 0.123272
H	-0.8442668461	 4.7494181069	-2.186585648	 0.124982
H	-1.675542884	 3.2974636956	-1.6333912127	 0.155567
H	 1.7464171164	 4.1347898421	 0.6878560865	 0.116761
75.7984	106.0696	163.9893	204.8179	281.736	376.2855	445.8077	546.0597	591.1501	677.9551	736.1198	751.7988	764.0437	813.9901	843.6872	908.775	955.2668	980.1312	1008.0393	1030.8133	1044.9997	1072.1442	1119.3327	1159.4766	1186.7729	1195.651	1257.9678	1261.7876	1310.3645	1333.1888	1357.0329	1410.4994	1431.5998	1446.3781	1496.3857	1807.6853	1839.1421	2888.4167	3056.2783	3067.2796	3102.3204	3141.7854	3151.2433	3175.3339	3192.971
O=CC1C2CCC(=O)C12	O=C[C@H]1[C@H]2CCC(=O)[C@@H]12	
InChI=1S/C7H8O2/c8-3-5-4-1-2-6(9)7(4)5/h3-5,7H,1-2H2	InChI=1S/C7H8O2/c8-3-5-4-1-2-6(9)7(4)5/h3-5,7H,1-2H2/t4-,5+,7-/m1/s1
