23
gdb 96065	2.51319	1.48109	1.15036	1.3787	85.02	-0.2493	0.0718	0.3211	1180.7644	0.207373	-388.299568	-388.290791	-388.289847	-388.332315	35.572	
C	-0.0150163829	 1.5251398258	 0.0225839635	-0.464844
C	-0.0244993667	 0.0089612432	 0.0146479173	 0.348812
C	-0.8723969241	-0.6864225958	 1.0449650878	-0.310859
C	 0.6348930333	-0.7079438307	 1.1841772645	-0.06175
C	 1.3891759919	-2.021496531	 0.9974041272	 0.095532
O	 0.6063267527	-3.0620933122	 1.5914024351	-0.433633
C	 1.6899084515	-2.3285189991	-0.4781777195	-0.211072
C	 0.4697394494	-2.0929431442	-1.3714134498	-0.217178
C	 0.0986998287	-0.6032724981	-1.3756509099	-0.255182
H	 0.9151081492	 1.9202396684	-0.4035912729	 0.109598
H	-0.8464107168	 1.9265269783	-0.5698879535	 0.112426
H	-0.1123111393	 1.9202389039	 1.0388473041	 0.110134
H	-1.4339413963	-0.0738758338	 1.7428379104	 0.099435
H	-1.354514908	-1.6230623849	 0.7925327725	 0.123037
H	 1.0409524874	-0.067760322	 1.9614142817	 0.075246
H	 2.3461984632	-1.9399437939	 1.5347285403	 0.058206
H	 1.1001676983	-3.8836912869	 1.498678435	 0.275583
H	 2.5168823681	-1.6864977013	-0.8107908663	 0.091694
H	 2.0469915593	-3.3634047125	-0.5622057335	 0.076117
H	 0.6750299334	-2.4203709257	-2.3960109075	 0.089368
H	-0.3654818438	-2.7035775741	-1.0100399622	 0.10882
H	-0.8329057483	-0.4403441186	-1.9330332596	 0.091635
H	 0.88043838	-0.0568405447	-1.9230104447	 0.088876
99.1999	169.6315	229.9367	261.0249	293.4877	323.0886	359.999	366.5371	394.2968	455.2876	477.2235	535.7415	677.0171	697.5636	757.6613	851.7257	855.3749	890.0775	906.6959	926.8102	951.8111	976.6908	1020.9986	1036.3045	1056.2508	1070.2349	1081.826	1111.5961	1125.7278	1141.05	1193.9139	1202.3851	1244.6008	1258.9759	1291.4372	1326.692	1351.5816	1371.8153	1378.1988	1392.4369	1414.5643	1421.5527	1432.357	1477.9143	1487.1349	1489.8863	1490.6782	1501.0047	1514.415	2972.0177	2998.9808	3011.7106	3016.9823	3031.9468	3041.0495	3051.6135	3074.6148	3079.1579	3095.3565	3134.1644	3145.918	3224.8851	3805.4313
CC12CC1C(O)CCC2	C[C@]12C[C@H]1[C@@H](O)CCC2	
InChI=1S/C8H14O/c1-8-4-2-3-7(9)6(8)5-8/h6-7,9H,2-5H2,1H3	InChI=1S/C8H14O/c1-8-4-2-3-7(9)6(8)5-8/h6-7,9H,2-5H2,1H3/t6-,7-,8-/m0/s1
