20
gdb 73308	3.13779	1.52118	1.32381	2.3523	77.84	-0.2172	0.0674	0.2846	1043.7212	0.171459	-403.117966	-403.109929	-403.108985	-403.149736	32.689	
C	-0.049295643	 1.4668214881	 0.0255920685	-0.476901
C	-0.0396649411	-0.0360054525	-0.0818625827	 0.354743
C	 0.956275609	-0.7064356441	-1.0344006561	-0.298308
C	 0.2893353582	-2.0523019408	-1.4103539969	-0.273112
C	-0.7218693653	-2.2634182437	-0.2769592183	 0.388473
O	-1.6850248747	-3.2585506545	-0.4767889796	-0.495672
C	 0.0000315247	-2.1749657837	 1.0944017409	-0.215693
N	-0.3334577635	-0.7148840948	 1.2247324261	-0.185447
C	-1.2659314212	-0.8502901547	 0.0470577968	-0.139074
H	 0.9268597058	 1.8372823601	 0.3584479336	 0.120654
H	-0.27352784	 1.9271491288	-0.9429161385	 0.113148
H	-0.7965750087	 1.7952724196	 0.7518646011	 0.131064
H	 1.1241943324	-0.0759206977	-1.9123033172	 0.105653
H	 1.9316704456	-0.8432699379	-0.5538240268	 0.106868
H	-0.2474493818	-1.9762517053	-2.3623643177	 0.105389
H	 1.0057235402	-2.8793179486	-1.4857548013	 0.088094
H	-1.233453578	-4.0757024247	-0.7132923823	 0.279081
H	-0.5425374121	-2.7188103051	 1.8714073619	 0.112398
H	 1.0675346894	-2.4223580207	 1.1453254952	 0.086383
H	-2.2981089059	-0.5195327178	 0.0595852335	 0.092259
200.904	209.1294	214.3742	228.7628	295.9422	339.3711	390.2207	419.8705	454.1454	550.0917	583.3798	640.7352	697.4574	794.5842	817.8796	869.6748	880.6988	932.2865	951.042	985.0332	997.5986	1002.7333	1032.0384	1043.4171	1101.3788	1141.5333	1153.5033	1167.8665	1207.0118	1220.8657	1245.2902	1274.0548	1281.3354	1323.4614	1329.4692	1394.4923	1401.4938	1419.5676	1483.9605	1488.1012	1491.1098	1495.6182	1513.1362	3025.265	3028.1485	3030.8999	3044.2398	3071.8129	3089.5225	3092.0888	3104.3287	3123.0873	3180.0844	3807.8998
CC12CCC3(O)CN1C23	C[C@@]12CC[C@@]3(O)CN1[C@@H]23	
InChI=1S/C7H11NO/c1-6-2-3-7(9)4-8(6)5(6)7/h5,9H,2-4H2,1H3	InChI=1S/C7H11NO/c1-6-2-3-7(9)4-8(6)5(6)7/h5,9H,2-4H2,1H3/t5-,6-,7+,8?/m0/s1
