18
gdb 114986	2.2577	1.49612	1.05141	3.4919	73.86	-0.2437	-0.0362	0.2075	1158.0203	0.149272	-439.127078	-439.118586	-439.117642	-439.160507	31.882	
O	-0.0371568757	 1.4806255558	 0.0492420442	-0.421935
C	 0.0159103912	 0.0781544382	-0.1328005312	-0.068862
C	-1.3799182838	-0.5697392348	-0.0333691955	-0.005177
C	-1.3067306321	-2.0989093039	-0.1627740038	-0.277926
C	-0.9625323413	-2.7630026673	 1.1435593412	-0.071123
C	-1.2017334071	-2.1761828113	 2.3179512818	-0.134891
C	-1.8513842138	-0.8437982849	 2.4164256232	 0.376655
O	-2.2210907472	-0.367009725	 3.4762898721	-0.37895
N	-2.0474993534	-0.2050612693	 1.2145709737	-0.332826
H	-0.1840336194	 1.6457442748	 0.9861057381	 0.288527
H	 0.4170473256	-0.088237554	-1.1386417295	 0.110941
H	 0.6995045735	-0.3981304152	 0.5853971623	 0.100242
H	-1.984838007	-0.1632134113	-0.8506055227	 0.096515
H	-2.2676218773	-2.4955995067	-0.5188482082	 0.130464
H	-0.5703595698	-2.3630575223	-0.9306399194	 0.117203
H	-0.5411499457	-3.7644132674	 1.1044200639	 0.109409
H	-0.9885040629	-2.6514883724	 3.2681633174	 0.11537
H	-2.4459908538	 0.719197867	 1.2887912023	 0.246363
74.9081	103.2795	150.1351	235.7014	277.2671	333.5001	355.09	450.7879	475.0157	541.9465	574.379	592.3422	657.4692	767.408	824.2096	853.0868	899.8845	929.4111	970.651	1012.9907	1025.5498	1077.2642	1087.5257	1133.6578	1160.3543	1203.5215	1250.2011	1286.5836	1321.6474	1354.3319	1391.8819	1403.9445	1411.4827	1417.2819	1465.0491	1472.8457	1498.361	1692.5888	1780.5069	2999.0606	3014.114	3051.1347	3060.0429	3076.4123	3159.6406	3211.0164	3617.9555	3819.3827
OCC1CC=CC(=O)N1	OC[C@H]1CC=CC(=O)N1	
InChI=1S/C6H9NO2/c8-4-5-2-1-3-6(9)7-5/h1,3,5,8H,2,4H2,(H,7,9)	InChI=1S/C6H9NO2/c8-4-5-2-1-3-6(9)7-5/h1,3,5,8H,2,4H2,(H,7,9)/t5-/m1/s1
