17
gdb 67485	2.565	1.66235	1.2499	3.8787	77.17	-0.2395	0.0032	0.2427	1034.7104	0.135453	-380.79291	-380.784996	-380.784052	-380.825037	30.74	
C	 0.0094043227	 1.4561397901	 0.0628114421	-0.48371
C	-0.0412777232	-0.0341644994	-0.1051541715	 0.305326
C	-1.3888181742	-0.7832267146	-0.0522757446	-0.129999
C	-1.2974986719	-2.2463729563	-0.3837744099	-0.323978
C	-0.7146245066	-1.7444124804	 0.9027765202	 0.002225
N	 0.5965062553	-0.9763325401	 0.8793762745	-0.192821
C	 1.163730185	-0.8257713593	-0.4931650431	-0.1882
C	 1.3289253132	-1.8410304501	-1.5026331626	 0.296495
N	 1.5657356866	-2.6124666802	-2.3324254249	-0.348568
H	 1.0191010133	 1.7917122495	 0.3134640625	 0.134437
H	-0.3057066504	 1.9578195389	-0.8590835193	 0.134685
H	-0.6642059691	 1.7702384671	 0.8671247103	 0.135228
H	-2.3247310608	-0.251029115	 0.0507327282	 0.103575
H	-2.2359906441	-2.7704234159	-0.2225522646	 0.125135
H	-0.7230883738	-2.6411035035	-1.2085269545	 0.167134
H	-1.0180166979	-2.1061822759	 1.8758277368	 0.11572
H	 2.0821023557	-0.245356735	-0.4136688696	 0.147315
121.0651	178.1059	190.8652	213.7523	302.1915	375.0146	392.1669	450.2147	548.4568	606.2959	631.6107	706.3332	720.1784	766.8449	851.5717	879.9012	934.8969	955.3044	967.3919	1005.1065	1041.1526	1058.105	1068.8466	1083.9294	1092.5522	1125.1328	1183.3323	1225.7266	1295.64	1320.392	1339.9789	1410.3106	1434.7944	1478.5559	1490.7452	1496.9341	2341.1935	3033.0425	3098.113	3117.8139	3122.6678	3141.9016	3199.7635	3210.15	3248.8836
CC12C3CC3N1C2C#N	C[C@]12[C@H]3C[C@H]3N1[C@H]2C#N	
InChI=1S/C7H8N2/c1-7-4-2-5(4)9(7)6(7)3-8/h4-6H,2H2,1H3	InChI=1S/C7H8N2/c1-7-4-2-5(4)9(7)6(7)3-8/h4-6H,2H2,1H3/t4-,5+,6-,7+,9?/m0/s1
