18
gdb 72187	3.11329	2.03872	1.64039	1.7999	73.42	-0.2207	0.0686	0.2893	873.4467	0.149405	-401.894269	-401.887738	-401.886794	-401.924705	27.58	
C	 0.0069880591	 1.4819318453	-0.0624792801	-0.494587
C	-0.0478134809	-0.017161034	 0.0035183248	 0.460254
O	 0.2108857072	-0.6810212382	-1.2535146842	-0.342411
C	-0.6780386613	-1.7574318371	-0.836077226	 0.065898
C	 0.1657893696	-2.7839556053	-0.0918856563	-0.158679
N	 0.4746522459	-2.1664252005	 1.2138409843	-0.118394
C	-0.6542444298	-1.350858886	 1.6305847166	-0.074939
C	 0.642298437	-0.703174321	 1.2227788399	-0.110903
C	-1.2983550981	-0.8788068084	 0.3012178914	-0.176352
H	 1.0266707167	 1.8125366847	-0.2902801582	 0.131784
H	-0.6587418966	 1.8568200161	-0.8447688086	 0.127821
H	-0.2873658741	 1.9213972799	 0.8958475239	 0.124682
H	-1.2927933559	-2.1264066701	-1.6598009728	 0.079562
H	-0.3804716652	-3.7141092656	 0.1018028457	 0.102828
H	 1.0834486586	-3.0120002957	-0.6396013978	 0.120202
H	-1.11755973	-1.4885925056	 2.5996582365	 0.095453
H	 1.456017051	-0.2987403185	 1.8163605912	 0.088972
H	-2.3166511932	-0.50666691	 0.2320609499	 0.078811
206.3515	235.6918	260.5469	362.2333	443.1926	537.9439	555.9127	697.1638	737.2204	754.7645	789.8442	839.2653	850.9162	862.7409	878.6906	905.6444	915.565	938.437	968.7835	982.4944	1030.3513	1045.636	1058.9365	1086.454	1149.3227	1172.0872	1183.2327	1206.1725	1222.3229	1234.7978	1283.5965	1300.4664	1318.985	1328.0045	1374.2765	1409.4546	1477.7571	1479.0645	1490.3818	3034.1218	3043.2176	3089.8147	3102.8482	3110.9577	3118.6251	3157.5134	3159.2126	3190.324
CC12OC3CN4C(C14)C23	C[C@@]12O[C@H]3CN4[C@@H]([C@H]14)[C@@H]23	
InChI=1S/C7H9NO/c1-7-4-3(9-7)2-8-5(4)6(7)8/h3-6H,2H2,1H3	InChI=1S/C7H9NO/c1-7-4-3(9-7)2-8-5(4)6(7)8/h3-6H,2H2,1H3/t3-,4-,5+,6+,7-,8?/m0/s1
