15
gdb 52979	5.07601	0.90074	0.8448	3.6133	76.5	-0.2342	0.0078	0.242	1374.3386	0.109499	-420.500302	-420.492067	-420.491123	-420.534738	29.842	
C	 0.0183734721	 1.4750528919	-0.077115448	-0.514554
C	-0.0329974598	 0.0232443996	-0.0212487978	 0.344642
C	-0.0827852548	-1.1809483168	 0.008794704	-0.255795
C	-0.0920077072	-2.5937703348	 0.1032788759	 0.315416
O	-0.3333425137	-3.4254233314	-1.0441409494	-0.262341
C	-1.1644830692	-3.607254147	 0.091524156	-0.126061
C	-0.3747615306	-4.4668747888	 1.1563742551	-0.011049
O	 0.9093236266	-4.7687360424	 0.6108132211	-0.205877
C	 0.7004253777	-3.4794550739	 1.1677988329	-0.108525
H	 0.975599827	 1.8525418171	 0.2986383518	 0.154788
H	-0.0974524032	 1.8296152112	-1.1071006498	 0.159442
H	-0.7791994203	 1.9270833278	 0.5228233702	 0.153073
H	-2.2365597975	-3.5004131713	-0.0191197973	 0.123054
H	-0.7781051075	-5.1063232908	 1.930650062	 0.118366
H	 1.3591530403	-3.1211481803	 1.9486244534	 0.115421
21.8346	91.507	100.6019	268.1225	297.4749	403.6972	415.9592	428.1891	505.8525	551.0969	688.9979	765.3256	791.2659	815.2694	851.3092	888.9262	911.8772	932.6387	990.184	1009.5547	1033.3809	1050.8157	1053.5047	1158.9082	1201.8806	1218.5079	1254.8651	1369.3103	1410.4618	1446.9793	1473.7451	1475.9628	2364.3457	3028.6709	3090.043	3093.4611	3195.3315	3200.5852	3214.063
CC#CC12OC1C1OC21	CC#C[C@]12O[C@H]1[C@H]1O[C@@H]21	
InChI=1S/C7H6O2/c1-2-3-7-5-4(8-5)6(7)9-7/h4-6H,1H3	InChI=1S/C7H6O2/c1-2-3-7-5-4(8-5)6(7)9-7/h4-6H,1H3/t4-,5+,6-,7+/m0/s1
