19
gdb 31258	2.30776	1.38302	0.91874	0.9248	80.86	-0.1793	0.0289	0.2082	1305.5155	0.1599	-419.213512	-419.204119	-419.203175	-419.24834	33.871	
C	 0.1785049365	 1.0796046242	-0.4624634278	-0.325833
N	-0.0873058812	 0.0055859289	 0.5042384438	-0.391147
C	-1.2235570028	-0.7629136265	 0.2779913316	 0.22003
C	-1.3427019412	-2.0662199442	-0.1196753185	 0.246925
N	-0.2861978388	-2.9234428105	-0.4227802569	-0.395929
C	-0.423773068	-4.3301915841	-0.0760434058	-0.323701
C	-2.7520660058	-2.3321579056	-0.2187003501	-0.257494
C	-3.3767171932	-1.1711208255	 0.1135341689	-0.010897
O	-2.4857423332	-0.1999690691	 0.4082854508	-0.176334
H	 1.1234492849	 1.5679705729	-0.2050896637	 0.114269
H	 0.2787235877	 0.6420772543	-1.4595395663	 0.13414
H	-0.6121336456	 1.842462723	-0.5003617888	 0.116579
H	-0.0524490249	 0.3658660434	 1.4524275635	 0.229943
H	 0.5868740249	-2.5225623744	-0.1027833142	 0.232848
H	-0.6316706787	-4.5118604382	 0.9910416088	 0.106321
H	-1.2341721817	-4.7813244564	-0.6573771234	 0.12892
H	 0.4985197715	-4.8526084601	-0.343384357	 0.12129
H	-3.2296221479	-3.2577070953	-0.4979553256	 0.103156
H	-4.4171057926	-0.8980150868	 0.1878547407	 0.126912
58.9381	80.5898	144.9099	164.3941	174.1368	208.7285	303.4202	334.1746	386.2433	534.6423	601.07	627.5611	672.332	690.685	730.5018	771.2382	794.695	808.02	905.3089	1009.4885	1037.9152	1092.8967	1098.1419	1142.0326	1153.3735	1169.2919	1174.1937	1199.2523	1252.377	1327.2738	1438.192	1449.9928	1469.5757	1478.0863	1487.7256	1492.1222	1498.6036	1517.9857	1521.0692	1546.8212	1701.4053	2970.2754	3000.2405	3069.9193	3077.0994	3112.8496	3116.2199	3253.3386	3275.9216	3505.4219	3557.4128
CNC1=C(NC)C=CO1	CNc1c(NC)cco1	
InChI=1S/C6H10N2O/c1-7-5-3-4-9-6(5)8-2/h3-4,7-8H,1-2H3	InChI=1S/C6H10N2O/c1-7-5-3-4-9-6(5)8-2/h3-4,7-8H,1-2H3
