21
gdb 103931	3.28246	1.10836	1.04469	1.7147	78.72	-0.246	0.0634	0.3094	1282.295	0.17956	-424.199479	-424.189779	-424.188835	-424.23346	36.989	
C	 0.1208494146	 1.5257170947	-0.0668559616	-0.406049
C	 0.0120553046	 0.0042253057	 0.0809059531	-0.224197
C	-1.420925861	-0.5171513986	 0.0338170359	 0.400841
O	-2.2101738908	-0.0530422217	 1.11557767	-0.494118
C	-2.1901526595	-0.4385223103	-1.3482985594	-0.360153
C	-2.3316511653	-1.9702439517	-1.3022669957	 0.423864
C	-3.3931906583	-2.8278264477	-1.907650378	-0.502404
O	-0.9859735293	-2.4858641104	-1.2502647579	-0.292806
C	-1.5948757464	-2.046690338	-0.0309872852	-0.079091
H	 1.1667064682	 1.8454616848	-0.0511878549	 0.121747
H	-0.3171038071	 1.8714288101	-1.0097827746	 0.120325
H	-0.3838270669	 2.0513221271	 0.7525447149	 0.106261
H	 0.574739136	-0.4917106088	-0.7160377886	 0.117161
H	 0.4566650948	-0.3061535097	 1.0346658312	 0.099374
H	-2.2596501678	 0.9068974711	 1.0597973139	 0.279968
H	-3.1407225625	 0.0864665398	-1.2272704883	 0.102693
H	-1.6476404027	-0.0498699538	-2.2142861155	 0.097944
H	-3.3309746925	-2.8112474475	-3.0017935241	 0.128761
H	-3.2817128127	-3.8635407311	-1.5758010881	 0.134541
H	-4.3877682099	-2.471029729	-1.6215759017	 0.127075
H	-1.6494192954	-2.743715465	 0.7984751747	 0.098261
92.0377	122.8818	161.9367	197.2552	232.7132	273.9405	290.0626	320.0702	328.623	387.5171	446.2622	457.9112	552.3237	617.5925	682.9635	781.4613	782.9972	865.4378	880.6718	917.5666	972.8987	984.8121	999.3775	1012.7158	1031.8439	1058.1778	1095.1898	1149.321	1161.455	1199.9529	1229.4014	1244.5166	1269.5926	1303.6882	1340.7915	1395.6606	1403.8722	1410.4596	1447.0186	1473.2555	1480.909	1485.7086	1497.7064	1501.1784	1509.6641	3026.3244	3032.9719	3033.5556	3057.9987	3077.1413	3096.2762	3098.7535	3107.0165	3120.5523	3122.3077	3179.0757	3814.2028
CCC1(O)CC2(C)OC12	CC[C@@]1(O)C[C@@]2(C)O[C@@H]12	
InChI=1S/C7H12O2/c1-3-7(8)4-6(2)5(7)9-6/h5,8H,3-4H2,1-2H3	InChI=1S/C7H12O2/c1-3-7(8)4-6(2)5(7)9-6/h5,8H,3-4H2,1-2H3/t5-,6-,7-/m1/s1
