17
gdb 79941	2.08208	1.84137	1.47458	3.3333	74.5	-0.2405	-0.0607	0.1798	986.1299	0.135455	-421.84207	-421.833892	-421.832948	-421.874438	31.418	
C	-0.034103426	 1.528426	-0.0173021395	-0.482665
C	 0.0560804247	 0.0234137568	 0.0294198984	 0.128621
C	-0.8257536355	-0.7838605168	 0.9768695202	 0.102032
O	-1.5917632438	-1.8835396531	 0.6402422242	-0.410315
C	 0.6918541986	-0.7954648302	 1.1486493944	-0.204263
C	 1.3799015571	-1.9287990227	 0.4744027539	-0.059558
C	 1.2077384773	-1.9142513652	-0.858932007	-0.238933
C	 0.4368193991	-0.7012148944	-1.25184086	 0.352959
O	 0.1667415558	-0.3338962705	-2.3726908159	-0.337194
H	 0.947350855	 1.9802845432	-0.1967204635	 0.125999
H	-0.6949617679	 1.8332227378	-0.8340515132	 0.148253
H	-0.4278222209	 1.9360885123	 0.9185622551	 0.11445
H	-1.3692516881	-0.1826722278	 1.7003572234	 0.120427
H	-1.0693340539	-2.4690688928	 0.0772706237	 0.290116
H	 1.1245783055	-0.3461995628	 2.0357054123	 0.102292
H	 1.9032361906	-2.6985269947	 1.031233959	 0.12524
H	 1.5634964926	-2.641601609	-1.5768571754	 0.12254
118.9477	161.6649	202.9963	230.618	254.6862	313.5448	357.4222	448.0993	499.7958	578.23	594.383	664.5467	734.6635	777.6711	803.9297	835.8365	867.5585	894.5781	980.0472	990.4594	1025.5665	1052.9933	1098.7373	1117.2838	1118.8891	1154.2702	1212.6588	1275.947	1311.9511	1364.1743	1372.3362	1412.4553	1454.5083	1484.4712	1498.9786	1617.5777	1804.5657	3035.1154	3099.672	3115.7791	3157.7815	3173.2578	3193.6789	3230.5006	3765.0433
CC12C(O)C1C=CC2=O	C[C@]12[C@@H](O)[C@H]1C=CC2=O	
InChI=1S/C7H8O2/c1-7-4(6(7)9)2-3-5(7)8/h2-4,6,9H,1H3	InChI=1S/C7H8O2/c1-7-4(6(7)9)2-3-5(7)8/h2-4,6,9H,1H3/t4-,6+,7+/m1/s1
