19
gdb 64508	3.53113	1.21378	1.09253	2.6986	74.84	-0.2394	0.0718	0.3113	1158.7611	0.158238	-422.949699	-422.94132	-422.940376	-422.983294	31.671	
C	-0.1598726257	 1.6858924657	-0.7339899159	-0.485326
C	-0.0939993787	 0.2761843604	-0.177488976	 0.268317
C	-1.3944909427	-0.1851400819	 0.414367846	 0.020783
C	-1.5393019335	-1.0382690121	 1.6025080615	-0.183899
O	-1.7831193774	 0.3644053916	 1.6795210468	-0.240028
C	 0.6695501033	-0.8594839601	-0.8637319826	-0.175956
C	 1.9750114277	-0.3355115119	-1.4482293706	-0.108332
O	 2.3290119098	 0.2957003144	-0.1863931944	-0.290685
C	 1.1689545338	-0.2660374733	 0.4337371279	 0.055859
H	 0.833610476	 2.0521122812	-0.9979765749	 0.139783
H	-0.801739651	 1.7359066599	-1.6208285617	 0.112185
H	-0.5750891031	 2.3596702695	 0.0220720124	 0.136352
H	-2.2150984841	-0.2081859086	-0.3068894487	 0.095087
H	-2.4184577673	-1.6753211833	 1.6960578622	 0.113408
H	-0.6631786636	-1.3922862987	 2.141648957	 0.116072
H	 0.2184375061	-1.8207736754	-1.0720298628	 0.097579
H	 2.6919259435	-1.128179278	-1.6889850199	 0.113743
H	 1.9220993392	 0.3804626351	-2.2762190158	 0.109023
H	 1.2858214477	-0.6509900446	 1.4395854296	 0.106036
34.7316	157.1835	184.8455	203.6048	259.8085	290.2727	348.1172	455.036	468.7997	568.1928	675.6115	765.5464	801.2904	855.5099	883.3639	916.4013	949.9822	963.6958	981.3077	992.3372	1014.7287	1041.3623	1075.8394	1090.2539	1101.2572	1124.0423	1155.7079	1160.8889	1175.1926	1219.9957	1246.6055	1265.1828	1300.6347	1339.4902	1402.8644	1410.7632	1442.1113	1488.0732	1504.2811	1520.6219	1532.5836	3028.6855	3036.105	3076.172	3077.0264	3086.8169	3098.2372	3136.1625	3168.7442	3183.2131	3199.0718
CC1(C2CO2)C2COC12	C[C@@]1([C@H]2CO2)[C@H]2CO[C@@H]12	
InChI=1S/C7H10O2/c1-7(5-3-8-5)4-2-9-6(4)7/h4-6H,2-3H2,1H3	InChI=1S/C7H10O2/c1-7(5-3-8-5)4-2-9-6(4)7/h4-6H,2-3H2,1H3/t4-,5+,6+,7-/m0/s1
