18
gdb 121464	5.27065	0.79311	0.70719	5.0383	81.01	-0.2382	-0.0364	0.2019	1568.1114	0.148143	-439.099661	-439.091094	-439.09015	-439.134281	31.172	
O	-0.3809322691	 1.5520386565	 0.2264076565	-0.424928
C	 0.0870280471	 0.2200867151	 0.1982681176	-0.049143
C	-1.0307454378	-0.7466279296	-0.195977571	-0.158082
N	-1.6015266218	-0.2822699752	-1.4542769538	-0.373834
C	-2.2662098379	-1.0795343004	-2.1749245769	 0.455799
O	-2.5142064489	-2.3973386307	-1.8631919864	-0.256176
C	-3.2844292986	-2.9968801468	-2.908323234	-0.132127
C	-3.4967023985	-1.8980004238	-3.9086189409	-0.097628
C	-2.9000713693	-0.7913119887	-3.4656513373	-0.163325
H	-0.895746732	 1.6462878297	-0.5867988953	 0.287011
H	 0.9273256001	 0.1049056863	-0.5070866453	 0.079167
H	 0.4589580978	-0.0194140107	 1.2004883429	 0.096732
H	-0.6540206407	-1.7764961202	-0.2586799644	 0.101582
H	-1.8087113845	-0.7284095224	 0.5803513958	 0.112308
H	-2.7302143072	-3.8505022503	-3.3213558369	 0.132517
H	-4.2233863362	-3.3799990993	-2.4867793189	 0.13313
H	-4.050135388	-2.0319313616	-4.828108107	 0.126798
H	-2.8500839845	 0.182681322	-3.9285050747	 0.130198
26.8734	101.9827	134.0527	178.9621	226.9648	299.6113	404.9594	460.5769	506.2416	515.5719	673.2944	728.7165	796.9043	799.7247	861.5711	900.2219	916.3462	952.6839	973.0989	1029.0087	1048.0801	1072.5546	1093.8766	1107.5632	1118.1909	1189.6615	1198.6768	1226.7392	1259.0791	1362.7418	1372.4877	1376.3671	1384.2839	1445.7173	1467.9517	1498.2918	1509.5642	1659.868	1776.4029	2961.9337	3000.0527	3013.4082	3042.3597	3043.2612	3068.1875	3230.1981	3262.9485	3749.2563
OCCN=C1OCC=C1	OCCN=C1OCC=C1	
InChI=1S/C6H9NO2/c8-4-3-7-6-2-1-5-9-6/h1-2,8H,3-5H2	InChI=1S/C6H9NO2/c8-4-3-7-6-2-1-5-9-6/h1-2,8H,3-5H2
