18
gdb 61002	2.15979	1.18887	0.84058	5.0139	74.22	-0.2549	-0.0335	0.2214	1361.5944	0.144568	-439.072578	-439.062808	-439.061864	-439.109022	33.811	
C	-0.0396791337	 1.5299747587	 0.0599777034	-0.416044
C	 0.1073981891	 0.0130708203	-0.1654609261	-0.07417
C	 0.9143249035	-0.2368174804	-1.4281092893	 0.168234
O	 0.4866399238	-0.7482917838	-2.4285605144	-0.239724
C	 0.7978805174	-0.6253858806	 1.03023253	-0.022548
N	-0.0209552433	-0.902859702	 2.199450452	-0.335223
C	 0.5902239151	-2.0447292665	 1.483360084	-0.132361
C	-0.363692625	-2.9786172805	 0.8161849289	 0.176098
O	-0.0965507191	-4.1269521971	 0.5693073398	-0.252228
H	 0.9390335611	 2.0164598613	 0.1434503676	 0.12053
H	-0.582034857	 1.9986791272	-0.765608407	 0.136082
H	-0.5908234519	 1.7122113293	 0.9864330879	 0.142867
H	-0.8789883796	-0.4326142559	-0.3112757085	 0.106996
H	 1.9718567259	 0.1183672956	-1.3711410897	 0.071531
H	 1.8079475884	-0.2506887355	 1.2038864558	 0.100255
H	 0.481464151	-0.7215768291	 3.0637246112	 0.247567
H	 1.4524215555	-2.5446077426	 1.9182567847	 0.109895
H	-1.3548212611	-2.5375416783	 0.5783344395	 0.092245
27.4744	50.5217	86.9201	168.3771	205.5536	227.8765	283.7066	306.4468	323.6233	440.264	456.0361	524.9098	550.7899	800.7341	883.9482	895.7599	917.1251	942.493	971.3969	993.7349	1037.9808	1072.0819	1096.505	1148.5482	1152.3131	1200.1037	1228.1515	1249.5147	1275.7173	1325.3493	1365.5395	1398.2747	1418.2349	1431.2684	1467.8847	1496.2154	1500.3171	1823.8702	1840.6517	2839.2004	2911.6327	3034.7923	3088.2728	3096.9109	3111.4594	3124.7626	3148.473	3516.3606
CC(C=O)C1NC1C=O	C[C@@H](C=O)[C@H]1N[C@H]1C=O	
InChI=1S/C6H9NO2/c1-4(2-8)6-5(3-9)7-6/h2-7H,1H3	InChI=1S/C6H9NO2/c1-4(2-8)6-5(3-9)7-6/h2-7H,1H3/t4-,5-,6+/m0/s1
