22
gdb 22682	2.8249	0.89058	0.75031	0.6209	86.12	-0.2386	0.0153	0.2539	1594.0981	0.192658	-404.302138	-404.291851	-404.290906	-404.338313	37.676	
C	-1.526019104	 0.3209405286	-0.4479037527	-0.376077
C	-0.1056531148	-0.0904363599	-0.015667475	-0.265982
C	 0.7122831267	-0.5958913175	-1.1792044086	 0.356085
C	 0.8373856389	-2.0799085416	-1.4330591384	-0.297827
C	 1.6586006976	-2.8093916104	-0.3810480257	 0.035079
C	 1.0139150953	-3.4411599971	 0.829558836	-0.250774
C	 1.575489414	-4.3101110337	-0.2679255542	-0.280563
N	 1.3195591959	 0.1561495789	-2.0175795382	-0.174763
O	 1.1530868602	 1.5236112193	-1.7207585844	-0.402917
H	-1.4803420705	 1.125487797	-1.1854022507	 0.139615
H	-2.0683584375	-0.5202021617	-0.8922719964	 0.113722
H	-2.1023055431	 0.6734501726	 0.4129145199	 0.11322
H	 0.3994435183	 0.7752570201	 0.4217980273	 0.12586
H	-0.1592584151	-0.8685715989	 0.7502811408	 0.107314
H	-0.1663789415	-2.5268206879	-1.4747369207	 0.098152
H	 1.2941134724	-2.2143045308	-2.4186210463	 0.117611
H	 2.6436332157	-2.378712527	-0.2218945885	 0.091461
H	 1.5386510719	-3.3997360333	 1.7776756768	 0.112881
H	-0.0662404036	-3.3845224782	 0.9199832807	 0.109848
H	 0.8718123163	-4.8268680228	-0.9128231632	 0.111285
H	 2.4874048354	-4.8638958913	-0.0745899967	 0.112801
H	 1.6737282715	 1.9411162757	-2.4144148817	 0.303968
40.327	67.5198	102.9144	126.6964	213.9082	230.4622	292.3583	307.9358	344.9059	345.9402	410.4748	431.5358	599.1494	698.1035	758.9969	782.8019	801.9288	818.4496	838.6924	894.7319	941.9935	963.7783	988.4507	1014.2181	1055.4884	1066.8586	1081.0665	1096.998	1138.6979	1151.4002	1200.7153	1224.9824	1236.2392	1267.0322	1296.6781	1319.4261	1352.3748	1400.4504	1404.6853	1408.6783	1465.1177	1472.6904	1488.3184	1497.088	1506.2479	1510.2081	1724.2265	3006.5248	3039.4889	3062.1156	3079.9149	3098.6806	3110.2975	3127.66	3132.4206	3132.8425	3143.482	3205.6801	3221.1227	3825.0176
CCC(CC1CC1)=NO	CCC(=NO)CC1CC1	
InChI=1S/C7H13NO/c1-2-7(8-9)5-6-3-4-6/h6,9H,2-5H2,1H3	InChI=1S/C7H13NO/c1-2-7(8-9)5-6-3-4-6/h6,9H,2-5H2,1H3
