14
gdb 69228	2.77778	1.64768	1.16967	1.9312	62.86	-0.2746	-0.051	0.2236	1006.2283	0.100675	-473.877395	-473.869763	-473.868819	-473.909554	28.353	
C	-0.0893944408	 1.5381032673	 0.03275997	-0.493769
C	 0.1455945181	 0.0602046031	 0.0122135635	 0.280357
O	-0.7043947294	-0.788779291	 0.8065065311	-0.271812
C	 0.705155258	-0.7865508239	 1.0788089561	-0.188701
C	 1.3972952061	-1.9636494764	 0.4163584605	 0.465021
O	 2.0526015972	-2.8331587993	 0.9252890188	-0.336745
N	 1.1360728143	-1.82333197	-0.9483958253	-0.394659
C	 0.4795601022	-0.645319259	-1.3001475972	 0.4249
O	 0.2455437305	-0.268674812	-2.4180099944	-0.337836
H	 0.8076352293	 2.0749013489	-0.2895191901	 0.142548
H	-0.8991091803	 1.7958110631	-0.6553863596	 0.158302
H	-0.3596372309	 1.8636536127	 1.0393849135	 0.141143
H	 1.0239198458	-0.4408886236	 2.0556386324	 0.133306
H	 1.41933603	-2.51326526	-1.6297601593	 0.277944
137.1594	138.9238	172.0521	246.0791	311.2043	350.3859	430.2195	539.074	549.6282	622.9885	632.7697	709.5243	756.9178	777.9112	822.7437	890.9418	921.4199	1012.637	1053.0703	1098.3487	1122.5069	1246.9871	1274.2694	1339.2443	1354.0893	1406.4755	1448.3153	1477.9977	1491.4754	1844.2138	1882.7485	3052.2396	3121.8817	3140.5685	3192.8082	3621.5129
CC12OC1C(=O)NC2=O	C[C@]12O[C@H]1C(=O)NC2=O	
InChI=1S/C5H5NO3/c1-5-2(9-5)3(7)6-4(5)8/h2H,1H3,(H,6,7,8)	InChI=1S/C5H5NO3/c1-5-2(9-5)3(7)6-4(5)8/h2H,1H3,(H,6,7,8)/t2-,5-/m0/s1
