15
gdb 42232	3.5947	1.06864	0.84141	1.3642	76.08	-0.2429	-0.0463	0.1965	1280.6955	0.110461	-416.764607	-416.756044	-416.7551	-416.798392	31.041	
N	-0.0335459317	 1.3405233915	 0.0582031429	-0.519164
C	 0.0658509068	 0.0630797734	 0.0912350577	 0.17963
C	-1.1296480494	-0.7431812279	 0.0858967996	 0.345132
C	-2.1082139363	-1.4410405024	 0.0730362481	-0.431077
N	 1.2329597837	-0.6717390452	 0.1663374765	-0.11311
C	 1.4533226502	-2.0652521251	-0.2690185951	-0.29824
C	 2.9021995548	-1.6448594496	-0.584209139	 0.393554
O	 3.880493887	-2.2116271191	-0.9563752437	-0.264083
C	 2.5665338774	-0.1842193462	-0.2156878144	-0.315835
H	 0.8888663612	 1.7801822687	 0.0734344946	 0.217031
H	-2.9888563967	-2.0356056471	 0.064392398	 0.212402
H	 1.3399402924	-2.8199978601	 0.5161559455	 0.150043
H	 0.8756031169	-2.3724505426	-1.1494935864	 0.150922
H	 2.5700510914	 0.5015301585	-1.0755206246	 0.143781
H	 3.1598477924	 0.2519331231	 0.5957102903	 0.149015
69.4344	95.4243	126.6863	191.9961	243.2393	294.6154	441.7239	445.7531	468.7294	539.6128	652.4284	657.6569	667.851	713.3481	733.7932	781.741	841.9612	903.0665	985.5665	1045.4076	1063.4847	1102.0786	1138.38	1159.0255	1222.9896	1262.5609	1295.0825	1408.9573	1464.024	1487.6263	1661.3848	1933.7613	2239.2308	3006.0904	3032.4646	3068.7867	3083.1974	3459.2662	3498.4364
N=C(C#C)N1CC(=O)C1	[NH][C](C#C)N1CC(=O)C1	
InChI=1S/C6H6N2O/c1-2-6(7)8-3-5(9)4-8/h1,7H,3-4H2	InChI=1S/C6H6N2O/c1-2-6(7)8-3-5(9)4-8/h1,7H,3-4H2
