22
gdb 117960	3.70465	0.7109	0.64412	2.4556	80.26	-0.2585	0.0338	0.2923	1789.6206	0.192177	-441.488666	-441.477487	-441.476542	-441.525879	39.05	
C	 0.0686527201	 1.3160266241	 0.0518095026	-0.226219
O	-0.0945625487	-0.1018437555	 0.0652537778	-0.241234
C	-1.3583928546	-0.561218608	-0.0669825329	 0.401555
N	-2.3290038983	 0.2435670683	-0.2124750405	-0.541929
C	-1.3560286292	-2.0825592536	 0.0092577121	-0.068354
C	-1.0016283128	-2.5227903801	 1.4448309007	-0.396988
C	-2.6720767769	-2.6871936531	-0.4982946248	-0.193832
C	-2.6185433276	-4.1962536949	-0.7116442668	-0.089416
O	-3.8664046297	-4.5872159415	-1.2643192397	-0.420588
H	 1.1385195122	 1.4921237081	 0.1736297163	 0.12216
H	-0.2855149222	 1.7387761701	-0.8924582917	 0.136124
H	-0.4932090037	 1.7808874237	 0.8667795798	 0.134879
H	-3.2097649669	-0.2573087113	-0.298119517	 0.225082
H	-0.5409503951	-2.4109344341	-0.6492909847	 0.095936
H	-0.0726992649	-2.0500364669	 1.7704907806	 0.134627
H	-1.7953493482	-2.2362158151	 2.1434314176	 0.121577
H	-0.8714188591	-3.606431782	 1.5063712394	 0.116841
H	-3.4877912746	-2.467849736	 0.202103883	 0.109405
H	-2.9445923915	-2.2311967493	-1.4567714487	 0.116592
H	-1.7857238729	-4.4438628303	-1.3909210605	 0.086878
H	-2.4299475249	-4.7169479009	 0.2392721216	 0.090237
H	-3.8616096306	-5.5425445417	-1.3730814042	 0.286665
41.0526	80.4562	97.28	123.9618	144.1643	180.8709	223.4662	258.9401	262.7058	300.5732	327.4749	356.8506	379.872	536.3206	645.4052	723.6426	801.7135	845.2995	860.5158	907.7533	971.7658	997.6483	1027.7333	1051.0071	1090.7244	1118.3079	1133.7366	1179.7806	1184.3018	1216.987	1230.5655	1242.9273	1294.5202	1316.8537	1333.0308	1349.418	1399.6235	1411.0135	1463.7255	1475.6508	1476.7939	1495.0858	1498.3601	1499.6404	1510.7964	1529.8128	1719.8225	2961.6602	2998.8968	3020.1118	3030.542	3042.0414	3044.2997	3077.4687	3110.7828	3115.9439	3132.1038	3145.8695	3526.6748	3831.8083
COC(=N)C(C)CCO	CO[C]([NH])[C@@H](C)CCO	
InChI=1S/C6H13NO2/c1-5(3-4-8)6(7)9-2/h5,7-8H,3-4H2,1-2H3	InChI=1S/C6H13NO2/c1-5(3-4-8)6(7)9-2/h5,7-8H,3-4H2,1-2H3/t5-/m0/s1
