23
gdb 108816	3.08972	0.99475	0.82013	1.4813	88.34	-0.2235	0.0347	0.2582	1487.9502	0.205118	-388.307067	-388.29701	-388.296066	-388.341893	37.707	
C	-0.876906104	 1.1310332385	-0.0100076217	-0.410945
C	 0.1167363428	-0.0290243255	-0.0419041251	 0.032995
C	 1.2761883548	 0.1413515081	-1.0567337152	-0.321164
C	 2.3874460731	-0.6865511005	-0.448162422	 0.310795
C	 3.6065225705	-1.0456229758	-1.2321669201	-0.181186
O	 4.5167906654	-1.7617719687	-0.4168745579	-0.413799
C	 2.1279383968	-0.9860338042	 0.8248934375	-0.159881
C	 0.8240657912	-0.3873024148	 1.3062034489	-0.039325
C	 1.0733901286	 0.7983204143	 2.2566482555	-0.386498
H	-0.3925134434	 2.0748469568	 0.2611386974	 0.11526
H	-1.3411312973	 1.270401507	-0.9924716539	 0.108583
H	-1.6817679379	 0.9499997746	 0.7108300447	 0.110856
H	-0.4287254959	-0.9319878536	-0.3434754768	 0.074668
H	 0.9930447411	-0.1860838178	-2.0652785611	 0.093023
H	 1.5824708025	 1.1944686719	-1.1539844197	 0.097192
H	 3.3069354878	-1.6386868132	-2.1154537911	 0.091669
H	 4.0645805349	-0.1214806242	-1.6303061831	 0.091269
H	 5.2751960717	-2.0015883031	-0.9563322296	 0.288089
H	 2.7994606374	-1.5377139897	 1.4717393104	 0.099855
H	 0.2237328937	-1.1258550529	 1.8541698544	 0.065481
H	 1.6483542568	 1.5901944644	 1.764926677	 0.112984
H	 0.1350819984	 1.2313464092	 2.6183079921	 0.109211
H	 1.647565961	 0.4716282691	 3.1299512294	 0.110869
69.562	110.8449	139.2279	177.314	232.9836	246.6923	249.9751	274.054	320.7893	373.5551	422.7155	468.9793	513.2027	619.2151	681.4535	749.9457	851.9727	875.2551	907.8083	935.1837	951.9526	997.6552	1018.4108	1035.6225	1065.2131	1088.8218	1094.9525	1129.5001	1151.1536	1186.0492	1212.8484	1216.4612	1252.2415	1285.8596	1302.1307	1321.4818	1346.7695	1360.8425	1372.5621	1402.8181	1414.5785	1466.3656	1488.4816	1490.1499	1494.3078	1505.416	1506.4132	1507.0141	1725.9603	2931.8202	2942.5308	2987.9612	3003.0123	3020.1534	3027.7779	3030.9161	3040.5367	3090.5569	3096.8492	3100.8579	3102.4295	3209.1	3839.0643
CC1CC(CO)=CC1C	C[C@H]1CC(=C[C@H]1C)CO	
InChI=1S/C8H14O/c1-6-3-8(5-9)4-7(6)2/h3,6-7,9H,4-5H2,1-2H3	InChI=1S/C8H14O/c1-6-3-8(5-9)4-7(6)2/h3,6-7,9H,4-5H2,1-2H3/t6-,7+/m1/s1
