20
gdb 78383	3.86683	1.25528	1.16537	1.5901	78.5	-0.2303	0.0846	0.3149	1141.1544	0.171027	-403.078799	-403.07065	-403.069705	-403.111217	31.795	
C	-0.1417953607	 1.5524691462	-0.0966745402	-0.406851
C	 0.0739537404	 0.0561262364	 0.0105795783	 0.148839
O	 1.1427741218	-0.4310634559	-0.841843983	-0.314487
C	 1.7606598857	-1.1396094716	 0.2486928373	 0.097879
C	 2.861556031	-0.3052276936	 0.9094434147	-0.079823
C	 1.8511058508	 0.2594758904	 1.8944435028	-0.0503
C	 0.7231490565	-0.5683927806	 1.2715806505	-0.147687
N	 2.9717019954	-0.5469260453	 2.3270346917	-0.088936
C	 2.8272093786	-1.8687700431	 2.9247629638	-0.315365
H	 0.7687732021	 2.105116241	 0.1476583314	 0.127223
H	-0.4352268457	 1.8142999008	-1.1181451952	 0.127664
H	-0.9429638371	 1.8730194711	 0.5784848723	 0.115913
H	-0.8567559859	-0.4713153002	-0.2432131723	 0.076522
H	 1.9281187828	-2.1948993348	 0.0180974036	 0.079352
H	 3.6729549457	 0.1870513166	 0.3837279335	 0.099281
H	 1.7641647343	 1.2643476404	 2.2939156376	 0.094047
H	 0.0762739372	-1.1584004494	 1.921696075	 0.07578
H	 2.0269276483	-2.4921798702	 2.5035842472	 0.110444
H	 3.7736774764	-2.4061192604	 2.8103504347	 0.126227
H	 2.6363636523	-1.7477968879	 3.9957381164	 0.124275
118.3651	162.6073	186.1909	210.8253	247.3569	319.2807	381.1884	448.0435	496.0011	588.0475	665.7018	729.5027	817.5153	851.0625	881.8695	907.9906	917.1282	934.0976	980.7668	996.8249	1028.1129	1051.4301	1070.161	1100.9254	1106.0305	1140.4646	1162.2361	1173.4463	1183.5123	1210.1819	1236.1726	1274.0904	1286.4985	1310.708	1343.505	1369.9721	1387.9679	1407.2378	1451.6632	1482.0628	1493.2145	1499.294	1501.9451	2993.8651	3007.7706	3037.5761	3071.5463	3076.9286	3101.2422	3105.2102	3105.5657	3124.681	3162.1363	3174.4344
CC1OC2C3C(C12)N3C	C[C@H]1O[C@H]2[C@H]3[C@@H]([C@@H]12)N3C	
InChI=1S/C7H11NO/c1-3-4-5-6(8(5)2)7(4)9-3/h3-7H,1-2H3	InChI=1S/C7H11NO/c1-3-4-5-6(8(5)2)7(4)9-3/h3-7H,1-2H3/t3-,4-,5-,6-,7-,8?/m1/s1
