19
gdb 69633	3.49455	1.17167	1.13484	3.3436	81.93	-0.218	-0.0221	0.1959	1168.9301	0.157806	-385.840416	-385.832051	-385.831107	-385.873056	32.568	
C	 0.1075667788	 1.4879673018	-0.0695170545	-0.492707
C	 0.0264033184	-0.0089599286	-0.0035344579	 0.34997
C	-0.9665324758	-0.7647609565	 0.8412951869	-0.360944
C	 0.5068882162	-0.9647678813	 1.0786316064	-0.168281
C	 1.2053835653	-1.8642246036	 0.0282385049	 0.238251
C	 0.3102551086	-2.3242786533	-1.1051141843	-0.351142
C	 0.697748319	-0.8941332486	-1.0889584072	-0.126495
C	 2.5906872971	-2.3271188588	 0.1211419126	 0.059083
O	 3.1859127016	-2.918632979	-0.7550692158	-0.287722
H	 1.1290081744	 1.8226582301	-0.2857820428	 0.121876
H	-0.5451905065	 1.8890278494	-0.8547281142	 0.124153
H	-0.1982856868	 1.9392128921	 0.8794700522	 0.120928
H	-1.4497756662	-0.1482433405	 1.5940710518	 0.116856
H	-1.6125553381	-1.545367651	 0.4550087949	 0.114667
H	 0.9814330502	-0.7175802597	 2.0213653658	 0.092055
H	 0.852757833	-2.9289799498	-1.8246706119	 0.148685
H	-0.7016031123	-2.6568355349	-0.9063748968	 0.122388
H	 1.3444241095	-0.4710983925	-1.8480150917	 0.11457
H	 3.0945565136	-2.0780040452	 1.0833349614	 0.063809
102.2091	158.976	192.5832	218.452	270.297	309.6376	354.9808	442.7402	461.2333	522.1317	606.2403	693.0069	742.0048	784.2422	810.9163	873.9451	910.7356	927.4469	955.9663	975.0082	1001.0517	1021.4416	1031.4636	1052.3274	1079.0481	1091.7677	1100.3688	1137.4273	1176.3402	1213.9671	1259.4681	1323.9552	1336.7422	1401.527	1424.4438	1434.0191	1474.5901	1484.6831	1500.4625	1509.4837	1779.2631	2862.8169	3019.2706	3075.2151	3101.2352	3124.4227	3140.9893	3176.6525	3193.3078	3203.0702	3225.1275
CC12CC1C1(CC21)C=O	C[C@]12C[C@H]1[C@]1(C[C@@H]21)C=O	
InChI=1S/C8H10O/c1-7-2-5(7)8(4-9)3-6(7)8/h4-6H,2-3H2,1H3	InChI=1S/C8H10O/c1-7-2-5(7)8(4-9)3-6(7)8/h4-6H,2-3H2,1H3/t5-,6+,7+,8+/m1/s1
