17
gdb 69352	2.84913	1.33043	1.10085	4.1537	73.1	-0.2673	0.0277	0.295	1119.8909	0.135652	-417.978013	-417.969402	-417.968458	-418.010849	33.111	
N	-0.1252612939	 1.4725338297	 0.0157988871	-0.539958
C	-0.0506714597	 0.015021759	-0.0118798202	 0.136775
C	 0.2469716123	-0.6451974713	 1.389493993	-0.335342
C	-1.1320384027	-1.3133096886	 1.3359661513	 0.417569
O	-1.3620407851	-2.6151541208	 1.7309380401	-0.45978
C	-2.2218460408	-0.296092999	 1.1782197135	-0.354745
C	-1.4130579505	-0.7127784291	-0.0322236603	-0.130609
C	 0.8487141759	-0.4868266195	-1.0621794203	 0.232376
N	 1.5629129827	-0.8329858451	-1.903928313	-0.344768
H	 0.8056585784	 1.865913704	 0.1265373206	 0.242544
H	-0.4828692976	 1.819618157	-0.8704938586	 0.241998
H	 1.0568252114	-1.3734203786	 1.3331752613	 0.136425
H	 0.4323597447	 0.0668658705	 2.1988488657	 0.105526
H	-1.70142377	-2.6069587557	 2.6325486232	 0.290531
H	-3.2222182481	-0.7169967618	 1.1892324883	 0.119437
H	-2.1288977232	 0.7098577088	 1.5748868674	 0.129996
H	-1.858671774	-1.1559945296	-0.9129429792	 0.112025
100.2404	156.9913	212.8908	230.9956	247.8723	312.9368	376.5792	407.7411	420.11	459.6997	511.008	572.1055	631.8461	693.8083	776.8566	849.7209	879.4056	905.0362	911.7661	960.3664	976.0599	1019.1192	1039.2643	1079.6193	1102.1598	1153.4678	1210.839	1225.9206	1260.8124	1267.7882	1303.1616	1325.0976	1407.6586	1467.6482	1497.9144	1654.411	2339.842	3060.4599	3125.5409	3138.0846	3205.1254	3219.4158	3483.5814	3563.4667	3799.7005
NC1(CC2(O)CC12)C#N	N[C@]1(C[C@@]2(O)C[C@@H]12)C#N	
InChI=1S/C6H8N2O/c7-3-5(8)2-6(9)1-4(5)6/h4,9H,1-2,8H2	InChI=1S/C6H8N2O/c7-3-5(8)2-6(9)1-4(5)6/h4,9H,1-2,8H2/t4-,5+,6-/m0/s1
