21
gdb 90854	3.74399	1.42568	1.32743	0.3273	85.91	-0.2139	0.0176	0.2315	1058.1005	0.185448	-349.940335	-349.933218	-349.932274	-349.971381	30.263	
C	-0.1357727956	 1.5218271922	 0.0076543581	-0.411068
C	 0.0565907366	 0.0051683137	 0.0422496774	 0.024767
C	 0.9578941535	-0.5673918001	-1.1029849349	-0.258124
C	 2.0104530487	-1.2934049683	-0.2693543681	 0.005432
C	 1.2240858471	-2.0089957617	 0.8960915055	-0.080686
C	 2.3183083231	-2.3385602209	 1.9035212425	-0.105934
C	 3.0693976946	-1.2344809343	 1.9168058189	-0.101978
C	 2.376350279	-0.3193347705	 0.9143333028	-0.07612
C	 0.8457147949	-0.5194975774	 1.2455330284	 0.002914
H	 0.8243724372	 2.0484056685	 0.0356138503	 0.114394
H	-0.6548212009	 1.8308413514	-0.9061002764	 0.111846
H	-0.7296949106	 1.8668280804	 0.8611440527	 0.110797
H	-0.9321146839	-0.4697080997	 0.017976774	 0.066222
H	 0.4146254238	-1.2420007442	-1.7725735363	 0.093955
H	 1.3939975987	 0.2266478253	-1.7194971324	 0.09369
H	 2.8080050659	-1.8303109402	-0.7876688126	 0.056329
H	 0.4502433749	-2.7493141286	 0.6830464684	 0.051738
H	 2.4246290493	-3.2610686586	 2.4562620219	 0.097184
H	 3.9605462707	-1.0042713699	 2.4832145131	 0.096623
H	 2.796373718	 0.6694394393	 0.7229967135	 0.05422
H	 0.4774575248	-0.2791661263	 2.2459312229	 0.053798
153.7962	217.3784	240.8856	332.4375	389.1653	441.9932	527.8015	596.6755	642.3216	695.406	742.5022	805.9724	822.4174	902.7942	905.8117	911.7971	916.1452	919.5495	933.9168	952.9756	973.327	994.2555	1022.3606	1039.2148	1060.4934	1094.657	1109.515	1136.0597	1183.0909	1198.3535	1203.9243	1217.2999	1237.1515	1248.6707	1264.9195	1281.6104	1308.4563	1324.2212	1347.4222	1376.3791	1410.0911	1494.2449	1497.6392	1499.1132	1631.1905	3019.7288	3026.7418	3038.0156	3078.2885	3086.1604	3090.4997	3093.5291	3093.8955	3099.0213	3105.1966	3219.2036	3246.6239
CC1CC2C3C=CC2C13	C[C@H]1C[C@@H]2[C@H]3C=C[C@@H]2[C@@H]13	
InChI=1S/C9H12/c1-5-4-8-6-2-3-7(8)9(5)6/h2-3,5-9H,4H2,1H3	InChI=1S/C9H12/c1-5-4-8-6-2-3-7(8)9(5)6/h2-3,5-9H,4H2,1H3/t5-,6-,7+,8-,9+/m0/s1
