16
gdb 83220	2.77128	1.53042	1.30367	5.223	68.1	-0.2569	0.0039	0.2608	998.5074	0.125483	-437.873826	-437.866248	-437.865304	-437.905958	28.981	
O	 0.1103862157	 1.3708208817	-0.1185028069	-0.426694
C	-0.002963317	-0.0082945447	 0.010394171	 0.140226
C	-0.4336852901	-0.7011677462	 1.2782337982	-0.134296
C	-1.1899159019	 0.1597939955	 2.2700097444	-0.113835
O	-2.153271656	 0.8926460897	 1.4931577187	-0.278164
C	-2.5460565962	 0.0649503614	 0.3936198741	-0.052588
C	-3.0511449688	 0.9309109721	-0.6816362184	 0.288012
N	-3.4739740119	 1.5745926114	-1.5419432595	-0.313238
C	-1.315052608	-0.7554752378	 0.0316653981	-0.129853
H	-0.6246863415	 1.7870602228	 0.3503919356	 0.304149
H	 0.7922951196	-0.4920938861	-0.5467652505	 0.119175
H	 0.0947399676	-1.5725120082	 1.647416282	 0.104525
H	-1.693480183	-0.4597465843	 3.025047169	 0.115793
H	-0.5741596206	 0.9059349591	 2.7806567406	 0.1333
H	-3.3654794715	-0.6083258115	 0.6897291093	 0.131299
H	-1.4611684664	-1.6554179548	-0.5532872957	 0.112189
95.0857	153.6514	216.3615	234.9285	296.1731	457.3442	487.6973	508.3846	535.5161	562.5218	724.4518	750.9519	778.5186	804.4974	886.4969	937.0815	965.1712	1006.6761	1028.2362	1055.0629	1061.9729	1080.8369	1117.6548	1119.681	1193.5134	1233.9578	1288.121	1313.3208	1327.835	1346.3344	1364.1586	1400.7509	1466.4068	1516.391	2368.0802	2987.4996	3011.9829	3089.1826	3172.26	3179.5001	3191.4555	3765.1157
OC1C2COC(C#N)C12	O[C@H]1[C@H]2CO[C@@H](C#N)[C@@H]12	
InChI=1S/C6H7NO2/c7-1-4-5-3(2-9-4)6(5)8/h3-6,8H,2H2	InChI=1S/C6H7NO2/c7-1-4-5-3(2-9-4)6(5)8/h3-6,8H,2H2/t3-,4-,5-,6-/m0/s1
