22
gdb 121639	4.19877	0.6758	0.59289	2.4738	82.32	-0.2361	0.0327	0.2688	1920.7629	0.191466	-441.502824	-441.491327	-441.490382	-441.540943	38.637	
C	-0.0715973813	 1.3828611441	 0.0357297437	-0.227222
O	-0.0058531888	-0.0217479182	 0.0060837658	-0.240072
C	 0.6431040415	-0.5112752753	-1.1499232659	-0.051005
C	 0.6477652955	-2.031901809	-1.0588913463	-0.354294
C	 1.3323637859	-2.654798628	-2.2728005076	 0.430594
O	 1.7904468668	-1.9469376238	-3.1582008691	-0.385822
N	 1.4102037236	-4.0241897246	-2.3262893432	-0.0908
C	 2.0558351703	-4.6510155287	-3.4674014137	-0.343509
C	 0.8967749589	-4.9361963058	-1.3248694586	-0.338753
H	 0.9307366973	 1.840332195	 0.030874429	 0.103692
H	-0.6324113533	 1.7852089979	-0.8230963492	 0.103695
H	-0.5851194784	 1.6688148316	 0.9572364302	 0.1228
H	 0.1234802021	-0.1843589553	-2.0626524366	 0.103247
H	 1.672317916	-0.1288600937	-1.2166026253	 0.103217
H	 1.1535869217	-2.3317682328	-0.1338949648	 0.129641
H	-0.3858464348	-2.38653856	-0.973657391	 0.129671
H	 2.9131854534	-5.2544713094	-3.1427218126	 0.118799
H	 1.3543538165	-5.3111734144	-3.9934492708	 0.118802
H	 2.3956501961	-3.8676650419	-4.1422269551	 0.169954
H	 0.4271167588	-4.4013768499	-0.5026895009	 0.145207
H	 0.1507595075	-5.6132793847	-1.7626682858	 0.126092
H	 1.7051070848	-5.5553249832	-0.9126016823	 0.126065
41.6109	69.8745	89.4021	102.4399	113.8402	140.5949	166.0333	232.8289	240.9174	268.6786	306.8331	390.2397	428.8351	525.3377	578.4957	621.3605	805.4219	830.6388	978.8931	994.1455	1075.1827	1077.4109	1083.8977	1131.8835	1151.2294	1167.0381	1178.3259	1183.5015	1223.5934	1231.7757	1283.6182	1308.1656	1318.7997	1415.2284	1428.3307	1439.5345	1467.0744	1481.6441	1484.7306	1484.8036	1485.4082	1503.2634	1504.1095	1505.653	1525.3123	1545.3358	1743.7486	2966.5999	2993.6209	3003.7955	3010.7153	3013.7716	3022.2833	3039.0601	3043.5222	3057.773	3079.9999	3110.1354	3172.2258	3175.4096
COCCC(=O)N(C)C	COCCC(=O)N(C)C	
InChI=1S/C6H13NO2/c1-7(2)6(8)4-5-9-3/h4-5H2,1-3H3	InChI=1S/C6H13NO2/c1-7(2)6(8)4-5-9-3/h4-5H2,1-3H3
