18
gdb 87352	2.0893	1.3182	0.93366	2.0781	76.3	-0.2567	-0.0402	0.2166	1288.4446	0.144557	-439.08009	-439.070453	-439.069509	-439.115095	34.086	
C	-0.0308728233	 1.383100923	 0.0606967063	-0.409665
C	 0.1978225057	-0.1099659864	 0.0669326335	-0.033948
C	 1.5761996968	-0.689724759	 0.06591258	-0.33466
C	 0.7240369674	-0.796284314	 1.3235889168	 0.274261
O	 0.9957649549	 0.0348696877	 2.4214247195	-0.233407
C	 2.1438823471	-0.2104979905	 3.1041295447	 0.106513
N	 2.4155338995	 0.473556005	 4.1259933622	-0.433913
C	 0.135186178	-2.1187876489	 1.670299914	 0.105387
O	-0.1357564479	-2.9678136627	 0.8560566592	-0.265035
H	 0.7215303286	 1.9053637688	 0.6555421482	 0.138908
H	 0.0133922092	 1.7646339058	-0.9645474497	 0.12672
H	-1.0138878101	 1.6318835426	 0.4717662066	 0.132614
H	-0.5512521363	-0.7077751512	-0.4444866073	 0.119467
H	 1.7544931008	-1.6176977404	-0.4657142626	 0.144601
H	 2.4127226888	-0.0008690848	 0.1203699452	 0.130851
H	 2.7446825323	-1.0167564304	 2.6648666915	 0.100435
H	 3.3046174755	 0.1734500289	 4.5205195586	 0.235063
H	-0.049986127	-2.2590337235	 2.7577856034	 0.09581
67.418	106.1913	127.1686	147.5493	184.7273	205.6903	219.6496	290.6934	399.9886	421.4572	470.9231	547.9887	681.2136	748.1055	791.4094	826.1842	874.2534	922.1919	965.8593	1004.4153	1047.7719	1060.7236	1071.0285	1085.8076	1102.0909	1143.7315	1200.8442	1252.5296	1276.9206	1285.4532	1396.5365	1410.2438	1414.1817	1424.0457	1461.4052	1491.363	1500.6267	1746.3165	1810.8607	2900.1243	3042.6421	3043.5832	3106.2189	3128.8074	3134.2095	3159.4464	3232.2464	3520.2113
CC1CC1(OC=N)C=O	C[C@H]1C[C@]1(O[CH][NH])C=O	
InChI=1S/C6H9NO2/c1-5-2-6(5,3-8)9-4-7/h3-5,7H,2H2,1H3	InChI=1S/C6H9NO2/c1-5-2-6(5,3-8)9-4-7/h3-5,7H,2H2,1H3/t5-,6-/m0/s1
