17
gdb 63120	2.25023	1.71227	1.22475	0.5606	76.85	-0.2264	0.0121	0.2385	1060.1447	0.132662	-421.74314	-421.734175	-421.733231	-421.776239	34.105	
C	 0.004928236	 1.5688798794	 0.0186375966	-0.459594
C	 0.0404685314	 0.0625169207	-0.0691303715	 0.306051
O	-1.1035833854	-0.5890701215	 0.4073375769	-0.459623
C	 0.627297802	-0.7277273193	-1.21498589	-0.226078
C	 1.9183115911	-0.0964611244	-1.7066260417	-0.115397
O	 2.4569667757	-0.0280423421	-0.3556636814	-0.322263
C	 1.3187339356	-0.735397878	 0.1563788286	 0.23336
C	 1.4744976491	-1.7079622146	 1.1767357885	 0.243544
C	 1.5844737811	-2.4988065279	 2.0779599114	-0.42465
H	 0.9628860825	 2.0083527182	-0.2652409658	 0.140681
H	-0.7828645306	 1.9713038108	-0.625739024	 0.126716
H	-0.2111465133	 1.874529801	 1.0482648058	 0.117588
H	-1.0308241243	-0.6606193825	 1.3669369947	 0.289799
H	 0.0593156457	-1.5122302768	-1.6950481808	 0.121273
H	 2.5243440889	-0.7688558961	-2.3232100303	 0.121313
H	 1.8587755061	 0.8896052891	-2.1798978147	 0.110637
H	 1.6951547583	-3.2141051957	 2.8550554875	 0.196643
109.2309	136.3049	182.8876	228.3192	246.3835	261.9836	341.2948	377.5023	414.5567	481.1243	501.4974	566.4645	572.5848	630.6508	691.4057	704.343	784.4698	920.8179	937.2696	970.783	981.1307	993.0757	1038.7443	1086.346	1094.5849	1158.3268	1188.4337	1213.4854	1284.4234	1331.7138	1347.374	1405.7476	1427.2017	1487.8752	1494.6654	1519.8668	2226.548	3033.7753	3039.0705	3082.4697	3100.077	3138.4945	3219.0063	3500.312	3779.1986
CC1(O)C2COC12C#C	C[C@@]1(O)[C@H]2CO[C@@]12C#C	
InChI=1S/C7H8O2/c1-3-7-5(4-9-7)6(7,2)8/h1,5,8H,4H2,2H3	InChI=1S/C7H8O2/c1-3-7-5(4-9-7)6(7,2)8/h1,5,8H,4H2,2H3/t5-,6-,7-/m1/s1
