16
gdb 45627	4.7895	1.06578	0.91786	3.5871	72.3	-0.2422	-0.0037	0.2385	1233.2117	0.125902	-434.091529	-434.083825	-434.082881	-434.124272	28.67	
O	-0.0057461336	 0.0658883933	-0.1092898065	-0.359546
C	 0.0211831371	 1.2688704417	-0.0491206547	 0.404492
C	-1.0929929619	 2.3045341992	-0.2679975927	-0.298387
N	-0.4983218049	 3.6215805025	-0.0381159443	-0.308607
C	 0.728306642	 3.4040758883	 0.2577662005	 0.439448
N	 1.121100918	 2.0652959017	 0.2524074348	-0.383143
N	 1.6744378253	 4.3481032717	 0.632742774	-0.160125
C	 2.5948354797	 4.8717176326	-0.3917100484	-0.241269
C	 1.4955647249	 5.7129071928	 0.1584991277	-0.2092
H	-1.4928913498	 2.2208117435	-1.2850042554	 0.145166
H	-1.926178811	 2.1128068144	 0.4179513553	 0.147206
H	 2.0198115888	 1.7159737451	 0.543305875	 0.269811
H	 3.6186172624	 5.0134524224	-0.0604912931	 0.131787
H	 2.4792337655	 4.497482409	-1.4053639849	 0.136856
H	 0.6319933128	 5.897269528	-0.4720114721	 0.154997
H	 1.7198106244	 6.4809526437	 0.8914440349	 0.130514
68.8966	116.3347	189.3123	210.1018	324.6251	403.3514	489.6554	519.7632	563.4964	596.1649	682.9319	755.0907	821.3062	869.7569	895.7585	913.8374	981.1545	987.6478	1038.8479	1072.0197	1119.8536	1138.8082	1158.733	1181.0389	1181.7896	1195.2674	1238.0295	1286.3677	1337.1637	1446.2453	1457.7599	1491.3185	1516.0488	1693.9036	1858.9398	3045.3206	3077.8256	3117.3704	3131.44	3207.6508	3227.123	3656.3855
O=C1CN=C(N1)N1CC1	O=C1CN=C(N1)N1CC1	
InChI=1S/C5H7N3O/c9-4-3-6-5(7-4)8-1-2-8/h1-3H2,(H,6,7,9)	InChI=1S/C5H7N3O/c9-4-3-6-5(7-4)8-1-2-8/h1-3H2,(H,6,7,9)
