16
gdb 48719	4.33319	1.28788	1.14539	4.9187	69.27	-0.2519	-0.0397	0.2122	1050.5884	0.124362	-437.844808	-437.837551	-437.836607	-437.876652	27.958	
O	 0.1502318983	 0.1048301972	-0.7818825675	-0.252208
C	 0.3185576612	 0.8706305483	 0.1313822436	 0.081397
C	 1.3725133637	 1.930143975	 0.1579521895	 0.29489
C	 1.6919107463	 2.7059248709	 1.4340584733	-0.317167
C	 2.1076329027	 4.105768767	 0.9740435911	-0.039133
N	 3.3435397627	 4.1503588784	 0.1787249976	-0.310706
C	 2.0397614756	 4.1751641036	-0.5148032062	-0.085101
C	 1.5985347653	 2.8205443322	-1.0237037113	 0.011206
O	 2.4700545102	 1.7471688983	-0.7375251684	-0.24299
H	-0.3362914312	 0.8578616003	 1.0327466938	 0.071686
H	 0.7919301649	 2.7688471542	 2.0567413446	 0.109976
H	 2.4758139734	 2.2170908785	 2.0200887925	 0.135334
H	 1.8586160261	 4.9574127048	 1.599651353	 0.095799
H	 3.7217663053	 5.0948909979	 0.2026490367	 0.235943
H	 1.7221550568	 5.0638499043	-1.0482418998	 0.094013
H	 1.0107642887	 2.7262642091	-1.9328159723	 0.117063
88.7403	172.0481	205.4867	301.9914	323.8536	411.5934	457.4848	595.9424	701.167	718.2894	763.8406	793.4789	843.5634	861.1323	882.1186	912.2312	950.977	969.4965	1000.2933	1041.7186	1069.3582	1076.6636	1141.7761	1162.0309	1179.0355	1214.6967	1225.945	1283.6318	1325.6622	1365.9504	1404.5156	1422.6893	1431.658	1463.3563	1825.2301	2868.316	3046.547	3097.0713	3154.838	3157.2137	3181.9407	3495.0606
O=CC12CC3NC3C1O2	O=C[C@]12C[C@H]3N[C@H]3[C@H]1O2	
InChI=1S/C6H7NO2/c8-2-6-1-3-4(7-3)5(6)9-6/h2-5,7H,1H2	InChI=1S/C6H7NO2/c8-2-6-1-3-4(7-3)5(6)9-6/h2-5,7H,1H2/t3-,4-,5-,6-/m1/s1
