21
gdb 72924	2.59054	1.94384	1.54572	1.6776	80.69	-0.2407	0.0886	0.3293	965.3876	0.185059	-387.066657	-387.059456	-387.058511	-387.097677	30.495	
C	-0.1767795193	 1.4358704904	 0.0257367368	-0.471123
C	 0.069298896	-0.0567160218	-0.0056104646	 0.479396
O	-1.1604517318	-0.7943065551	 0.2665825441	-0.346127
C	-0.5836345386	-1.4273202928	 1.4306007522	-0.120392
C	 0.7968431837	-0.8107186804	 1.1515903483	-0.097742
C	 1.8189561402	-1.607027439	 0.3181953534	-0.044242
C	 0.9996311153	-2.0970425135	-0.91365045	-0.238745
C	 0.8863407917	-0.5785170909	-1.2082139574	-0.071558
C	 2.3363891127	-0.4759061421	-0.6276452353	-0.227983
H	 0.7424030405	 1.9982178109	-0.1662682224	 0.11596
H	-0.9079535943	 1.7055935681	-0.7442351407	 0.126617
H	-0.5792315314	 1.7479885796	 0.9939800695	 0.117622
H	-1.0614108103	-1.0757809427	 2.353995991	 0.096783
H	-0.6558521232	-2.5212552443	 1.3886689646	 0.097059
H	 1.2496879847	-0.2292005436	 1.956489182	 0.071588
H	 2.5005192091	-2.2699728441	 0.8524032858	 0.060325
H	 1.6342864547	-2.6096453446	-1.6396111179	 0.092752
H	 0.0757682203	-2.6549815324	-0.7594755174	 0.111514
H	 0.6267143058	-0.1950126059	-2.1956715084	 0.059068
H	 2.6554264712	 0.4681828382	-0.1750762303	 0.090129
H	 3.0920354129	-0.8251659539	-1.3343595731	 0.099098
199.3762	211.6415	250.1865	293.8537	359.5292	425.6325	487.0115	533.2382	586.3099	661.7565	785.6902	839.7363	846.1933	858.1162	862.4422	885.5855	909.4575	935.3856	977.4904	1003.9745	1017.8546	1031.7711	1041.6622	1057.1577	1074.8436	1084.5177	1120.5718	1142.2031	1167.4997	1175.1912	1209.8176	1223.2892	1230.7143	1245.1528	1258.1021	1305.0462	1320.4136	1337.5287	1362.1866	1408.2004	1482.6667	1486.4225	1492.5775	1518.5747	1525.5804	3008.5585	3033.7171	3048.6954	3052.3932	3076.8457	3092.2131	3101.6971	3106.6595	3109.3195	3111.4271	3119.6487	3137.9712
CC12OCC1C1CC2C1	C[C@]12OC[C@H]1[C@H]1C[C@@H]2C1	
InChI=1S/C8H12O/c1-8-6-2-5(3-6)7(8)4-9-8/h5-7H,2-4H2,1H3	InChI=1S/C8H12O/c1-8-6-2-5(3-6)7(8)4-9-8/h5-7H,2-4H2,1H3/t5-,6+,7-,8+/m0/s1
