21
gdb 126149	3.66751	0.91276	0.8847	1.9362	84.8	-0.2388	0.0279	0.2667	1443.6289	0.183772	-383.304997	-383.29563	-383.294686	-383.339949	34.669	
C	 0.0984636299	 1.5236941646	 0.0089998829	-0.390007
C	 0.0086739998	 0.0005989559	-0.1267512446	-0.16608
C	-1.4231455084	-0.5705621239	-0.0097829602	-0.069581
C	-2.3482888694	-0.0821773458	-1.1387484791	-0.395714
C	-1.3912482889	-2.0741505021	 0.05112853	 0.346287
N	-1.7581265617	-2.7114246547	 1.1629311158	-0.301303
N	-1.5994248402	-4.019967149	 0.8777711422	-0.184089
C	-1.1448499346	-4.2373504835	-0.3787374744	-0.0186
C	-0.9948006632	-2.9947927169	-0.9532485314	-0.284451
H	 1.1419299084	 1.8540929749	-0.008074165	 0.110398
H	-0.4212738572	 2.0421551932	-0.8025670447	 0.116385
H	-0.3407173274	 1.8618158287	 0.9545115308	 0.114892
H	 0.4414112472	-0.3108874995	-1.086952252	 0.090428
H	 0.6257146584	-0.4662115619	 0.6497958071	 0.102109
H	-1.8411301193	-0.2367147996	 0.9477931273	 0.086029
H	-2.4504374812	 1.0067156998	-1.129089014	 0.113254
H	-1.9594529725	-0.3729364635	-2.1213771442	 0.11005
H	-3.3479691786	-0.513836143	-1.0347093965	 0.11959
H	-1.8234253061	-4.7023054315	 1.581264654	 0.272449
H	-0.9692770538	-5.2327712514	-0.7556188676	 0.129121
H	-0.650324961	-2.7832017209	-1.9524960362	 0.098832
34.474	92.0473	122.6668	192.0586	216.7341	274.3573	291.0965	344.4082	399.4059	480.7814	495.1254	664.0291	690.7144	745.9066	774.9578	784.07	842.4729	852.6855	944.4812	960.0239	974.5885	994.0749	1032.3255	1064.5487	1074.2306	1119.5834	1134.8898	1176.3981	1203.6614	1288.4308	1298.4015	1307.0301	1357.131	1374.0575	1405.9334	1410.588	1414.3018	1469.536	1482.4362	1488.8046	1494.9774	1500.5738	1506.6502	1512.2087	1574.2161	3016.8146	3030.8479	3033.6668	3037.681	3059.5086	3097.3507	3101.362	3105.6894	3114.6008	3253.6908	3273.3406	3680.0642
CCC(C)C1=NNC=C1	CC[C@@H](C)c1n[nH]cc1	
InChI=1S/C7H12N2/c1-3-6(2)7-4-5-8-9-7/h4-6H,3H2,1-2H3,(H,8,9)	InChI=1S/C7H12N2/c1-3-6(2)7-4-5-8-9-7/h4-6H,3H2,1-2H3,(H,8,9)/t6-/m1/s1
