22
gdb 14996	3.99234	1.38046	1.10692	1.1829	78.6	-0.2419	0.0892	0.331	1153.6552	0.201949	-350.229994	-350.221684	-350.22074	-350.26256	32.024	
C	-0.0528124975	 1.5652107369	 0.0049714484	-0.385495
C	 0.0140554461	 0.0361288186	-0.0115440404	-0.186076
C	 0.7196669605	-0.526611811	-1.2423132873	 0.156543
C	 0.8677506709	-2.0531437106	-1.2085619605	-0.198516
C	 1.4824154995	-2.571682055	-2.5163403511	-0.211676
C	 0.7017066532	-2.0271321628	-3.7206210616	-0.192169
C	 0.5658149687	-0.5073917179	-3.6093507513	-0.06204
O	-0.0323579921	-0.1219862252	-2.3843617205	-0.26086
H	 0.9512743793	 2.0041962441	 0.0220866871	 0.107462
H	-0.5651127646	 1.9356530942	-0.886129012	 0.133978
H	-0.5891930024	 1.9271730027	 0.8874220843	 0.106576
H	 0.5380665221	-0.3298082744	 0.8800567374	 0.090925
H	-0.9989544299	-0.3835660227	 0.0229379123	 0.101015
H	 1.7305099426	-0.0799603964	-1.3119934289	 0.052962
H	 1.4824101086	-2.3440958859	-0.3487709459	 0.089892
H	-0.1263266338	-2.4957988445	-1.0627852762	 0.097328
H	 2.5275619332	-2.2386941982	-2.5825600004	 0.09335
H	 1.5019602646	-3.6666984873	-2.5271562726	 0.093378
H	 1.1963774629	-2.2877005067	-4.6635154441	 0.090701
H	-0.3018949731	-2.4696523014	-3.7446913518	 0.101335
H	 1.5601609352	-0.036268777	-3.7079559136	 0.080193
H	-0.0734897938	-0.1043455695	-4.4009134211	 0.101194
93.7676	127.4304	193.5201	235.242	243.2028	335.8203	367.1228	455.5362	459.738	488.3905	568.2075	758.8262	815.9116	848.4762	859.2533	901.9462	930.4367	932.5775	1004.0872	1015.9313	1045.72	1065.5616	1106.3832	1117.2052	1137.1638	1188.6466	1200.6418	1230.8659	1277.2093	1288.6928	1316.2598	1320.4284	1358.4691	1372.8573	1376.9185	1388.0295	1404.2959	1407.8482	1420.0048	1469.9846	1476.5052	1482.1952	1491.0238	1495.7811	1502.2064	1509.812	2914.0141	2948.6012	3012.5549	3019.6935	3026.7522	3028.0447	3035.1515	3060.9272	3064.9957	3069.8796	3074.3347	3078.345	3098.9977	3126.7783
CCC1CCCCO1	CC[C@H]1CCCCO1	
InChI=1S/C7H14O/c1-2-7-5-3-4-6-8-7/h7H,2-6H2,1H3	InChI=1S/C7H14O/c1-2-7-5-3-4-6-8-7/h7H,2-6H2,1H3/t7-/m0/s1
