18
gdb 27162	2.93341	1.39208	1.02111	2.6697	81.64	-0.1682	0.0478	0.216	1173.7181	0.149216	-398.118238	-398.10974	-398.108795	-398.151466	32.494	
N	-0.0036412875	 1.4293627187	 0.027806273	-0.615266
C	 0.0579082117	 0.0231428753	 0.0056847412	 0.189284
C	-1.0204687461	-0.8273951528	 0.1312037132	 0.275835
N	-0.5278211386	-2.1280739625	 0.1545941282	-0.313991
C	 0.8356388825	-2.0983877084	 0.0245268345	-0.088981
C	 1.2314178714	-0.7840724977	-0.0636473225	-0.207648
N	-2.3685658324	-0.4467085754	 0.2344682887	-0.17108
C	-3.4311378396	-1.3165852756	-0.2688958136	-0.230633
C	-3.2582725774	-1.1064931034	 1.1958091626	-0.22647
H	 0.5563900366	 1.848864573	-0.7050305869	 0.234216
H	-0.9650314586	 1.7352129561	-0.0765512767	 0.240205
H	-1.0792784094	-2.9627642529	 0.2347394975	 0.254352
H	 1.4114433836	-3.0095845836	 0.0050829384	 0.11172
H	 2.2468232976	-0.4308598938	-0.1588322844	 0.085484
H	-4.2321823761	-0.8154108403	-0.8057203119	 0.121799
H	-3.1537568456	-2.2846149084	-0.6812736682	 0.10667
H	-2.8515834544	-1.9279816386	 1.7816999573	 0.111841
H	-3.9313349777	-0.4499963196	 1.7402683595	 0.122663
56.7616	157.1709	170.3832	254.2764	257.3665	292.1241	329.486	440.0776	500.1032	565.6832	633.1404	664.4502	702.3494	715.5808	799.5567	810.3381	834.7081	851.6489	894.0466	928.1471	1025.4297	1052.2077	1086.8933	1106.5128	1113.7031	1131.9319	1158.1886	1175.3227	1213.1576	1240.2576	1310.8621	1359.199	1444.6383	1495.7285	1498.2358	1517.4062	1522.8622	1633.4994	1667.764	3097.2864	3102.667	3176.4079	3193.593	3244.2922	3268.2296	3509.7629	3599.4704	3695.3207
NC1=C(NC=C1)N1CC1	Nc1c([nH]cc1)N1CC1	
InChI=1S/C6H9N3/c7-5-1-2-8-6(5)9-3-4-9/h1-2,8H,3-4,7H2	InChI=1S/C6H9N3/c7-5-1-2-8-6(5)9-3-4-9/h1-2,8H,3-4,7H2
