15
gdb 124893	3.78733	1.26088	1.0556	3.479	67.93	-0.27	-0.0431	0.2269	1104.6065	0.111154	-453.903253	-453.895388	-453.894444	-453.936189	28.715	
C	-0.2720495746	 1.4269416422	-0.5691150805	-0.473533
C	-0.0413537111	 0.01755719	-0.0734093356	 0.276209
C	 1.0145628777	-0.8331278727	-0.664598167	-0.205316
O	 1.1865726551	-0.2301409031	 0.61720407	-0.256885
C	-1.1973596227	-0.6605176654	 0.5583476038	 0.381937
C	-1.2907191273	-1.4923007355	 1.6332298496	-0.210053
N	-2.618876507	-1.8161200495	 1.7652161975	-0.105308
N	-3.3140730575	-1.2596732389	 0.8843382711	-0.013932
O	-2.4144199375	-0.476513886	 0.0556682198	-0.23203
H	 0.6475750206	 1.8234520153	-1.0042896201	 0.135182
H	-1.0627206008	 1.442859066	-1.3241134137	 0.148348
H	-0.5767490485	 2.0783737064	 0.2553436108	 0.143279
H	 0.8997858916	-1.9151111007	-0.6624982586	 0.129604
H	 1.6306341026	-0.4224359527	-1.4631167776	 0.128207
H	-0.5310981505	-1.8561125654	 2.3014004705	 0.154291
56.7989	145.6114	174.3844	196.934	313.9284	354.4374	406.3199	463.805	557.1506	605.9598	694.9576	740.7521	813.0437	836.9894	871.2932	929.7518	983.1215	1014.3073	1035.822	1102.6793	1113.3267	1138.0539	1165.1179	1175.6051	1291.3019	1348.118	1386.9959	1415.4219	1466.1341	1479.113	1496.0441	1521.5925	1604.0413	3050.2844	3089.2862	3121.3147	3139.1321	3184.1657	3308.0452
CC1(CO1)C1=CN=NO1	C[C@]1(CO1)c1cnno1	
InChI=1S/C5H6N2O2/c1-5(3-8-5)4-2-6-7-9-4/h2H,3H2,1H3	InChI=1S/C5H6N2O2/c1-5(3-8-5)4-2-6-7-9-4/h2H,3H2,1H3/t5-/m0/s1
