18
gdb 91828	3.71106	1.15945	1.04903	3.83	76.82	-0.2533	0.0276	0.2809	1180.452	0.148139	-401.95853	-401.950219	-401.949275	-401.992048	31.306	
C	 0.5767036439	 1.4747727234	 0.1382817042	-0.395025
C	-0.0476711042	 0.09135638	 0.0007434953	 0.131377
C	 0.4022978205	-0.6900739684	-1.2678159616	-0.339633
C	 1.112983872	-1.9326649813	-0.735263108	 0.158712
C	 2.346805957	-1.6894283947	 0.1394504493	-0.353138
C	 1.0013292168	-1.8484034599	 0.7785839272	 0.083586
O	 0.2853594148	-0.7188823429	 1.1477656919	-0.268105
C	 0.9873945951	-3.1697686323	-1.444939481	 0.203056
N	 0.8867307599	-4.169808	-2.0191646707	-0.348493
H	 1.6696194056	 1.4268090693	 0.1017727426	 0.120466
H	 0.2348437025	 2.1252566104	-0.6736557514	 0.121582
H	 0.2849400094	 1.9287510628	 1.0889715278	 0.133961
H	-1.1392552955	 0.196427304	 0.007778363	 0.096392
H	-0.4566590554	-0.9876747469	-1.8730486238	 0.132898
H	 1.0581922342	-0.0829557098	-1.8987389885	 0.121849
H	 3.0459183826	-2.5133383149	 0.2281112899	 0.141726
H	 2.7963417393	-0.703549284	 0.100356213	 0.130504
H	 0.7826318616	-2.7173569449	 1.388714221	 0.128286
36.2787	133.9916	163.6218	236.6738	279.6374	350.4479	405.0979	433.5633	503.8466	557.5283	579.6899	681.6897	732.7022	798.2757	853.2022	884.6513	921.8615	935.4067	952.9071	1024.3766	1041.689	1069.1475	1086.4151	1107.5406	1125.4734	1178.7776	1223.1838	1256.0195	1267.6474	1321.6843	1346.0541	1384.3504	1406.6159	1413.6692	1468.5391	1486.4721	1495.127	1503.3799	2347.8784	3027.9536	3038.4457	3061.3186	3109.6005	3111.7141	3123.3415	3138.7382	3185.0185	3234.1448
CC1CC2(CC2O1)C#N	C[C@H]1C[C@]2(C[C@H]2O1)C#N	
InChI=1S/C7H9NO/c1-5-2-7(4-8)3-6(7)9-5/h5-6H,2-3H2,1H3	InChI=1S/C7H9NO/c1-5-2-7(4-8)3-6(7)9-5/h5-6H,2-3H2,1H3/t5-,6+,7-/m0/s1
