18
gdb 117307	4.55397	0.76965	0.69938	3.5799	70.55	-0.2468	-0.0032	0.2436	1611.4033	0.146165	-476.300645	-476.290744	-476.289799	-476.337049	34.739	
C	 0.5945155413	 1.0297485265	 0.1569816514	-0.388138
C	-0.2883086985	-0.2051251763	 0.0680728916	-0.057908
O	-0.1625319224	-0.8530798911	-1.2209687261	-0.231838
C	 0.8584856191	-1.7056037716	-1.3730129681	 0.446109
O	 1.6553325227	-1.9661066171	-0.4961125865	-0.379021
C	 0.8896483881	-2.2726838358	-2.776974188	-0.417762
C	 1.2290148257	-3.7695694244	-2.9103740839	 0.384963
N	 2.1915276275	-4.2212471005	-2.0669921849	-0.51184
O	 0.6969269951	-4.444390845	-3.7682693891	-0.357423
H	 1.6501790281	 0.7532261255	 0.10853656	 0.144959
H	 0.3708041719	 1.7276437458	-0.6547918063	 0.130258
H	 0.4168378973	 1.540985643	 1.1082981278	 0.126219
H	-0.0396418154	-0.9274918742	 0.8484325761	 0.135501
H	-1.3472145485	 0.0528441517	 0.1351349727	 0.121525
H	-0.0575880087	-2.0990920955	-3.2844121047	 0.155426
H	 1.6641315005	-1.7182569244	-3.3232005825	 0.162155
H	 2.4567312417	-3.6576029138	-1.2710683274	 0.278861
H	 2.3923775246	-5.2079837129	-2.0801021522	 0.257955
37.4298	52.6061	72.4458	120.1651	189.8178	244.3844	312.5239	359.0406	385.6175	444.1318	453.3479	519.0911	580.972	623.4616	706.702	747.6377	808.3834	848.5268	903.62	946.269	965.9529	1045.1066	1116.4065	1127.8029	1177.0032	1198.8681	1235.6123	1327.3357	1334.8484	1358.7234	1400.9724	1421.5846	1446.8893	1485.7396	1489.5565	1507.521	1613.3719	1782.01	1811.3766	3043.7523	3047.7318	3076.4428	3116.4116	3124.5697	3144.6462	3156.549	3545.7826	3700.3212
CCOC(=O)CC(N)=O	CCOC(=O)CC(=O)N	
InChI=1S/C5H9NO3/c1-2-9-5(8)3-4(6)7/h2-3H2,1H3,(H2,6,7)	InChI=1S/C5H9NO3/c1-2-9-5(8)3-4(6)7/h2-3H2,1H3,(H2,6,7)
