21
gdb 39498	2.27374	1.77109	1.27187	1.7271	77.57	-0.2227	0.0735	0.2962	1069.6686	0.184821	-424.183318	-424.17535	-424.174406	-424.215376	32.041	
C	 0.0145373503	 1.5687305911	-0.3109282731	-0.348444
C	 1.260271842	 0.7563394974	 0.0221650989	-0.032238
C	 2.0606020841	 0.9144424176	 1.3213686036	-0.270512
C	 1.7313250072	-0.0322079976	 2.4947385418	-0.041704
O	 0.7330354106	 0.3984493469	 3.4198968926	-0.256735
C	-0.3756977381	 1.1040556114	 2.9202986581	-0.093407
C	-1.3310905932	 0.2764969223	 2.0514343983	-0.075046
O	-0.7085178461	-0.5053330185	 1.0499660639	-0.245936
C	-0.0972472092	 0.0912589727	-0.0553106372	 0.11663
H	-0.3502517999	 2.2654596048	 0.4324200083	 0.120275
H	-0.1222048634	 1.9174854637	-1.3291593146	 0.112594
H	 1.8925677634	 0.5481495832	-0.8361650012	 0.086788
H	 3.1062118408	 0.7071412153	 1.0690066246	 0.106448
H	 2.0551687974	 1.9515370261	 1.6776648706	 0.112316
H	 1.480011815	-1.0241738324	 2.1016798146	 0.111243
H	 2.6303756046	-0.1341694311	 3.1124280368	 0.096755
H	-0.9375575531	 1.4417205702	 3.7997271255	 0.10759
H	-0.0534337367	 2.0108235922	 2.3924456266	 0.089088
H	-1.8425475181	-0.4577980718	 2.6816524472	 0.115104
H	-2.0931806435	 0.9454651401	 1.6200713806	 0.0905
H	-0.2698461941	-0.5359685735	-0.9257127457	 0.098692
132.1889	208.1268	225.7801	245.471	289.9197	315.2932	362.0702	463.0191	498.4497	594.2425	650.6441	700.6929	743.4745	803.9127	833.4684	854.0511	871.8706	947.4488	976.8083	1007.1578	1036.526	1065.125	1074.8374	1088.3688	1138.5882	1140.6056	1156.8218	1167.3764	1205.353	1242.188	1276.9348	1304.0275	1316.4036	1326.639	1359.4784	1384.7437	1398.6434	1417.8941	1420.9092	1435.1923	1476.0851	1478.3269	1488.1821	1507.249	1509.7946	2980.4291	3016.0483	3029.4358	3033.0258	3054.6022	3067.3333	3070.1794	3084.2146	3133.2721	3139.2472	3147.7879	3230.9147
C1C2CCOCCOC12	C1[C@H]2CCOCCO[C@@H]12	
InChI=1S/C7H12O2/c1-2-8-3-4-9-7-5-6(1)7/h6-7H,1-5H2	InChI=1S/C7H12O2/c1-2-8-3-4-9-7-5-6(1)7/h6-7H,1-5H2/t6-,7+/m1/s1
