20
gdb 111432	2.94225	1.46178	1.17548	3.0266	77.49	-0.2378	0.0688	0.3066	1118.176	0.172178	-403.106904	-403.098939	-403.097994	-403.139524	31.276	
C	-0.1327075849	 1.5113192534	 0.0589799257	-0.390565
C	-0.0127920239	-0.0131410404	-0.0208700625	-0.169969
C	 0.7479479567	-0.5106379449	-1.2593982026	-0.021565
C	 0.9307432824	-2.0356999931	-1.3034131922	-0.071406
N	-0.3206588321	-2.8168621919	-1.3183878857	-0.312761
C	 0.3982318344	-2.5694348628	-2.586131089	-0.084242
C	-0.1427964186	-1.3947026408	-3.3785635743	 0.04468
O	-1.2380735883	-0.7112916556	-2.7675927167	-0.237383
C	 0.0744185244	-0.167097488	-2.5939160001	 0.022544
H	 0.8523598566	 1.9927952366	 0.0676895943	 0.106409
H	-0.6923287932	 1.9138904256	-0.7916742487	 0.123571
H	-0.6570888142	 1.8156140947	 0.9700520096	 0.113175
H	 0.4959994665	-0.3875783498	 0.8763854339	 0.086745
H	-1.0052369233	-0.4729948969	-0.0333067041	 0.135353
H	 1.749208138	-0.0566677551	-1.2780471936	 0.069998
H	 1.8024635574	-2.4666381602	-0.8192813739	 0.084834
H	-0.1201134263	-3.7655465737	-1.0089165049	 0.230089
H	 0.8575815011	-3.3969322732	-3.1156062467	 0.085469
H	-0.1487429412	-1.4258289285	-4.4648466433	 0.092459
H	 0.2305186989	 0.8097925947	-3.0471156354	 0.092564
77.8051	141.7907	168.4218	246.9986	298.8949	326.8605	442.2959	532.404	567.5026	696.4959	705.8563	777.8067	795.6381	846.1721	860.1693	869.1481	883.196	912.3692	951.688	957.2061	985.8704	1048.5764	1051.2641	1064.7323	1096.0735	1123.6889	1141.4029	1154.7578	1173.8934	1227.5885	1260.2752	1274.765	1300.1184	1313.2308	1346.9858	1373.1767	1379.5458	1410.983	1421.9814	1428.9767	1489.165	1500.7926	1506.7234	3008.6302	3028.0438	3028.702	3082.044	3102.7396	3105.6318	3128.3732	3145.5958	3149.1606	3175.0838	3489.9956
CCC1C2NC2C2OC12	CC[C@H]1[C@H]2N[C@H]2[C@H]2O[C@@H]12	
InChI=1S/C7H11NO/c1-2-3-4-5(8-4)7-6(3)9-7/h3-8H,2H2,1H3	InChI=1S/C7H11NO/c1-2-3-4-5(8-4)7-6(3)9-7/h3-8H,2H2,1H3/t3-,4+,5+,6-,7+/m0/s1
