18
gdb 14464	3.72357	2.17401	2.15651	1.2828	69.92	-0.2265	0.0967	0.3232	762.942	0.156451	-347.81453	-347.808267	-347.807323	-347.844442	26.126	
C	-0.0138502474	 1.4650693618	-0.0377984538	-0.499415
C	 0.0057880496	-0.0284921758	 0.0209471987	 0.470371
O	 0.2140489358	-0.6754710463	-1.2292988804	-0.295643
C	 0.1735135298	-2.045767584	-0.8020106865	 0.053931
C	 1.2175653174	-2.0788897514	 0.3366406751	-0.225113
C	 0.6321409058	-0.8933132755	 1.094078	-0.149311
C	-0.8854627589	-0.9225672404	 0.8564948953	-0.149313
C	-1.1665264882	-2.1247553406	-0.0366863331	-0.225111
H	 0.9357076852	 1.8532411386	-0.420670478	 0.127019
H	-0.8154941122	 1.8195203765	-0.6940470618	 0.127009
H	-0.1775508936	 1.8834515814	 0.9592581198	 0.11977
H	 0.3197023804	-2.7058350331	-1.6544763586	 0.077021
H	 1.2010913529	-3.0171893542	 0.8987130251	 0.097588
H	 2.2305546925	-1.8923814444	-0.0309441918	 0.103097
H	 1.0718759149	-0.4795706193	 1.9917435461	 0.083707
H	-1.5936379898	-0.530965346	 1.5744707783	 0.083709
H	-2.0249907202	-1.9742052409	-0.6973139906	 0.1031
H	-1.2874002541	-3.0650810263	 0.5090021161	 0.097583
192.4972	228.108	302.6582	419.6077	453.3743	580.2497	585.6185	699.0251	702.1036	803.1566	849.084	871.1594	893.6898	903.5338	921.8167	945.6457	952.3516	986.2408	1008.1757	1022.8993	1038.4479	1086.4331	1121.295	1144.3302	1167.1265	1179.5002	1210.3604	1216.3785	1270.2921	1315.7915	1318.4533	1336.351	1407.4159	1452.2658	1476.7345	1478.3408	1495.584	1504.0544	3035.7317	3054.0639	3059.2248	3099.0037	3104.5957	3108.864	3115.5921	3147.6851	3200.131	3208.8029
CC12OC3CC1C2C3	C[C@@]12O[C@H]3C[C@@H]1[C@@H]2C3	
InChI=1S/C7H10O/c1-7-5-2-4(8-7)3-6(5)7/h4-6H,2-3H2,1H3	InChI=1S/C7H10O/c1-7-5-2-4(8-7)3-6(5)7/h4-6H,2-3H2,1H3/t4-,5+,6-,7+
