19
gdb 13194	5.42064	1.09924	1.07428	3.3261	73.83	-0.2411	0.031	0.2722	1193.1282	0.166055	-365.088732	-365.079944	-365.079	-365.12325	31.06	
C	 0.2515694874	 1.4396591214	-0.3969720809	-0.333641
N	 0.0379617935	 0.0201010445	-0.1974150494	-0.32143
C	-1.0814035615	-0.481110841	 0.4025358478	 0.41299
O	-1.9857287569	 0.22816376	 0.815915281	-0.388716
C	-1.1369283497	-1.9913438554	 0.5274385587	-0.083606
C	-1.4668132189	-2.5535299795	 1.944143425	-0.214335
C	-2.4350741447	-3.5711223504	 1.2874063296	-0.214124
C	-2.4428103347	-2.6768029067	 0.0207046991	-0.214347
H	 0.3471848789	 1.6849706059	-1.4608533257	 0.123557
H	-0.6180020493	 1.9559863253	 0.0113134103	 0.17202
H	 1.1514893225	 1.7866334109	 0.1235117731	 0.12356
H	 0.741983411	-0.6251349056	-0.5136474704	 0.243513
H	-0.2467372882	-2.4701627446	 0.1064231278	 0.052071
H	-0.6342522025	-2.9391981313	 2.5371318307	 0.093415
H	-2.0043342418	-1.7968291354	 2.5202217026	 0.12858
H	-1.9515280391	-4.5351931091	 1.1038340848	 0.097983
H	-3.3909886497	-3.7519512268	 1.7840336237	 0.100514
H	-3.2633452875	-1.9558545222	 0.0390702097	 0.128581
H	-2.4071882588	-3.1631466801	-0.9569062276	 0.093415
29.9921	87.3571	120.5234	131.1449	240.6312	251.2779	327.9055	386.7352	476.592	597.6935	713.2	730.4947	798.9017	813.2328	892.5315	937.4899	941.5776	950.015	1010.6461	1041.3045	1082.172	1135.872	1153.7723	1171.7038	1211.1315	1218.2373	1250.7385	1252.7911	1261.6498	1281.7258	1288.2543	1384.5164	1436.3375	1471.7024	1485.29	1492.4573	1500.4022	1506.5068	1558.2965	1767.5582	3025.0868	3045.2182	3055.6176	3063.7371	3068.3643	3075.8704	3102.9428	3124.2966	3132.2652	3153.2896	3652.6523
CNC(=O)C1CCC1	CNC(=O)C1CCC1	
InChI=1S/C6H11NO/c1-7-6(8)5-3-2-4-5/h5H,2-4H2,1H3,(H,7,8)	InChI=1S/C6H11NO/c1-7-6(8)5-3-2-4-5/h5H,2-4H2,1H3,(H,7,8)
