13
gdb 24473	4.05578	1.77901	1.23659	6.7784	74.02	-0.2428	-0.0601	0.1827	904.1798	0.095266	-411.854858	-411.849209	-411.848265	-411.884811	22.56	
N	 0.0098562176	 1.3142496858	 0.0095264543	-0.267882
C	 1.1670423743	 2.0447535116	 0.0021659658	 0.065012
N	 2.3626833091	 1.5316263882	-0.0123077877	-0.307257
C	 2.4123659051	 0.1770031613	-0.0201246122	 0.331728
N	 3.4862964674	-0.6017953168	-0.0348998802	-0.341338
C	 2.9312831314	-1.8556442674	-0.0362357107	 0.024251
N	 1.6019278335	-1.9731407062	-0.0238289095	-0.356742
C	 1.2156954689	-0.6661381855	-0.0129959016	 0.251999
C	-0.0017159297	-0.0539367611	 0.0022261106	-0.099864
H	-0.8677232543	 1.8123371982	 0.0208122889	 0.282678
H	 1.0326900389	 3.1215962083	 0.0093114196	 0.142995
H	 3.569464506	-2.7319427479	-0.0472322663	 0.116588
H	-0.9656908981	-0.5463594483	 0.008994729	 0.157832
218.3911	269.7995	413.85	472.0561	564.2159	594.672	639.5838	642.5883	663.8246	790.4517	830.7902	899.1194	912.9484	923.646	935.4061	971.8032	1055.3917	1153.3692	1189.102	1251.66	1268.7941	1319.7525	1391.5648	1404.8324	1442.0664	1497.3379	1571.3975	1597.9229	1680.9789	3190.6125	3213.8575	3219.8824	3625.386
N1C=NC2=NC=NC2=C1	[nH]1cnc2ncnc2c1	
InChI=1S/C5H4N4/c1-4-5(8-2-6-1)9-3-7-4/h1-3H,(H,6,7,8,9)	InChI=1S/C5H4N4/c1-4-5(8-2-6-1)9-3-7-4/h1-3H,(H,6,7,8,9)
