21
gdb 89484	2.89548	1.53097	1.35483	1.5654	76.88	-0.2462	0.0841	0.3303	1067.1751	0.183632	-424.251571	-424.243381	-424.242436	-424.283859	32.755	
C	-0.2043334984	 1.5642645335	 0.0099986704	-0.423448
C	 0.0396351294	 0.0562835715	-0.0035155495	 0.042298
C	 0.7861982647	-0.4978149423	-1.2578442428	-0.281898
C	 1.9023127521	-1.3350387012	-0.5892938911	 0.479669
C	 2.5551256041	-2.4375898422	-1.3793918659	-0.474755
O	 2.8962592209	-0.413616637	-0.1046525311	-0.30826
C	 2.3367277828	 0.1346843298	 1.0963001007	-0.091935
C	 0.9443685862	-0.518179525	 1.1179030193	 0.014845
O	 1.2748655614	-1.8136443192	 0.5942439704	-0.278946
H	 0.7166505297	 2.1300890038	-0.1629394911	 0.124883
H	-0.9112262201	 1.8457783385	-0.7769375291	 0.120986
H	-0.6286496386	 1.8936426495	 0.965277845	 0.113475
H	-0.9249155193	-0.4530509713	 0.088498194	 0.080869
H	 0.1386365565	-1.1184274812	-1.8828260865	 0.099635
H	 1.2172829708	 0.2911083273	-1.8789116827	 0.105417
H	 3.0584283747	-2.020122755	-2.2550673648	 0.130567
H	 3.2948707314	-2.9487463547	-0.7594973397	 0.134917
H	 1.805169186	-3.1583460899	-1.7141014331	 0.125822
H	 2.9378466023	-0.1697134603	 1.9616059187	 0.102591
H	 2.3159092525	 1.2276532778	 1.0450552981	 0.101704
H	 0.482272731	-0.6092712223	 2.100744421	 0.081564
101.6033	191.6671	220.5906	239.2732	292.0811	316.1111	381.4062	422.5089	479.9763	545.7169	628.5902	653.2349	749.3857	813.456	832.6034	868.4265	889.1215	911.682	928.3579	949.4317	1006.5579	1022.814	1042.5754	1059.7362	1084.0129	1133.8905	1162.136	1186.4309	1187.6301	1218.1619	1235.0361	1287.3554	1301.1558	1342.709	1351.7747	1368.521	1376.0093	1411.9104	1422.95	1480.7299	1485.2962	1488.4157	1497.0911	1498.9013	1526.0969	3026.6327	3031.3318	3047.1689	3056.0184	3062.6836	3076.7536	3094.7415	3104.6812	3112.9096	3125.6766	3133.7949	3139.6645
CC1CC2(C)OCC1O2	C[C@H]1C[C@@]2(C)OC[C@@H]1O2	
InChI=1S/C7H12O2/c1-5-3-7(2)8-4-6(5)9-7/h5-6H,3-4H2,1-2H3	InChI=1S/C7H12O2/c1-5-3-7(2)8-4-6(5)9-7/h5-6H,3-4H2,1-2H3/t5-,6-,7-/m0/s1
