20
gdb 120351	3.94057	0.91271	0.81609	1.9617	80.31	-0.2314	0.012	0.2434	1432.7105	0.172044	-403.11754	-403.108894	-403.10795	-403.151436	32.668	
O	-0.0847594179	 1.4971529379	-0.1400153055	-0.420533
C	 0.0277650162	 0.095654058	 0.0630006231	-0.079871
C	-1.3748975556	-0.4948252434	-0.0082593635	-0.169271
C	-1.4103231987	-2.0323462421	 0.0490091529	-0.047336
C	-0.8967037839	-2.6507379843	 1.3429363849	-0.082387
C	-1.776572829	-3.4828907138	 1.9037641844	-0.057624
C	-3.041410202	-3.5190861857	 1.1122294679	-0.08837
N	-3.7163434684	-2.1868324972	 1.0700549168	-0.328253
C	-2.8292783778	-2.6029486018	-0.0384612646	-0.065598
H	 0.7902608029	 1.8848712307	-0.0478417566	 0.283708
H	 0.6684950421	-0.3660752927	-0.7078583748	 0.078
H	 0.4854853987	-0.1243599593	 1.0402096617	 0.085552
H	-1.9861742589	-0.0908414318	 0.8036140568	 0.127794
H	-1.8291545277	-0.1603693823	-0.9489347877	 0.09962
H	-0.8205555688	-2.41893467	-0.7969246445	 0.075801
H	 0.0769048157	-2.4088634553	 1.7543472851	 0.095032
H	-1.630631753	-4.0369993534	 2.8233271767	 0.096246
H	-3.6518732056	-4.4137506512	 1.0530318825	 0.086967
H	-4.6802078366	-2.3217725349	 0.7678628831	 0.226156
H	-3.2695283917	-2.7874655875	-1.0127468986	 0.084369
75.0861	82.1918	129.5929	195.2115	260.3169	297.9236	344.0782	425.2176	471.6032	605.7409	701.8001	753.259	774.1898	804.0253	825.7256	860.3025	890.4749	915.1031	948.091	969.2299	979.5838	1035.7854	1064.0547	1074.0057	1093.344	1106.9224	1129.7284	1155.4047	1168.1086	1221.4754	1231.2067	1250.9114	1300.6447	1306.0788	1318.1601	1336.1357	1362.3001	1396.6597	1411.1951	1462.5073	1497.0503	1527.6612	1666.0931	2951.2928	2981.1529	2988.2776	3039.484	3102.4375	3159.2414	3170.7216	3187.1482	3213.2932	3472.409	3829.1577
OCCC1C=CC2NC12	OCC[C@H]1C=C[C@H]2N[C@@H]12	
InChI=1S/C7H11NO/c9-4-3-5-1-2-6-7(5)8-6/h1-2,5-9H,3-4H2	InChI=1S/C7H11NO/c9-4-3-5-1-2-6-7(5)8-6/h1-2,5-9H,3-4H2/t5-,6-,7+/m1/s1
