18
gdb 81813	2.13767	1.71621	1.16631	6.1788	76.55	-0.2347	0.0329	0.2676	1099.86	0.148401	-398.097321	-398.088585	-398.08764	-398.130481	33.017	
C	-0.0967698	 1.5071711637	 0.0473925393	-0.511941
C	 0.1201697156	 0.0275404732	 0.0119822734	 0.346945
N	-0.7239691697	-0.9250373831	 0.7674658707	-0.370307
C	 0.7458035309	-0.9235641371	 0.9710029917	-0.135371
C	 1.3003542594	-1.8123093256	-0.1641723641	 0.021283
N	 0.8871603	-3.1835971784	-0.3011269902	-0.505923
C	 0.6557296337	-0.779215746	-1.1918644432	-0.239096
C	-0.3221988457	-1.2717561056	-2.1480473321	 0.312553
N	-1.1063962931	-1.6441017871	-2.9113483011	-0.341981
H	 0.773047864	 2.0430747521	-0.3467881402	 0.130284
H	-0.9672015004	 1.7909857025	-0.5546461131	 0.146567
H	-0.268367123	 1.8518145361	 1.0726720685	 0.123828
H	-1.1487263848	-0.4125637139	 1.5391266186	 0.233057
H	 1.1730740414	-0.7415121744	 1.9505741018	 0.09713
H	 2.3895674572	-1.7539487486	-0.2279492556	 0.090599
H	 1.3835304885	-3.7749368687	 0.3573989345	 0.229226
H	-0.1060498346	-3.2572246609	-0.096028368	 0.252347
H	 1.4391644506	-0.2350955482	-1.7259246209	 0.1208
101.6428	125.0987	173.1145	209.5891	236.0913	302.2033	339.3749	382.7179	396.9191	535.2878	555.6409	581.5809	698.2265	725.0119	804.5636	832.2816	860.4718	912.4289	940.6034	969.9845	1016.8223	1028.8872	1067.6257	1103.7616	1108.0603	1140.5105	1162.1719	1227.1887	1244.9169	1294.93	1316.1998	1342.4683	1409.9394	1420.1591	1456.1864	1481.7113	1497.4409	1657.7614	2356.8866	3028.8838	3075.3951	3088.9515	3094.9618	3101.0883	3180.2593	3484.7884	3491.856	3578.0124
CC12NC1C(N)C2C#N	C[C@]12N[C@H]1[C@@H](N)[C@H]2C#N	
InChI=1S/C6H9N3/c1-6-3(2-7)4(8)5(6)9-6/h3-5,9H,8H2,1H3	InChI=1S/C6H9N3/c1-6-3(2-7)4(8)5(6)9-6/h3-5,9H,8H2,1H3/t3-,4+,5+,6-/m1/s1
