21
gdb 81987	2.35656	1.41487	1.27413	0.6364	88.25	-0.2457	0.0566	0.3024	1148.5125	0.180732	-349.896847	-349.887538	-349.886593	-349.930064	36.614	
C	-0.4446212691	 1.5140645891	 0.4001130253	-0.413381
C	-0.1168036032	 0.0400029198	 0.2001022733	-0.028116
C	 0.2937967928	-0.4519292763	-1.194487745	-0.04209
C	 1.6209218589	 0.1128994463	-1.6142623607	-0.30794
C	 1.5925655979	-1.0352348773	-0.6459926557	-0.064778
C	 1.2458214214	-0.5632262605	 0.7891439716	 0.093055
C	 2.2364268805	 0.3930092733	 1.4680389585	-0.446027
C	 0.9739876941	-1.6938283172	 1.6665602182	 0.291393
C	 0.7578219738	-2.6261671182	 2.3957056806	-0.464703
H	 0.3387361427	 2.1730142348	 0.0145706259	 0.113926
H	-1.3732938333	 1.766701913	-0.1236147378	 0.117281
H	-0.588451764	 1.7482605012	 1.4603211422	 0.118765
H	-0.9417866831	-0.5663356065	 0.5805929606	 0.088729
H	-0.3883020039	-0.8887171308	-1.9140100509	 0.083368
H	 1.9355642053	-0.1526063865	-2.6186634206	 0.112515
H	 1.9362052952	 1.1066213385	-1.3097424763	 0.105636
H	 2.05738201	-1.9886745678	-0.8640193389	 0.092297
H	 2.4782071117	 1.2450030152	 0.8285692918	 0.112353
H	 1.824844508	 0.7754787937	 2.4068284947	 0.12372
H	 3.1675501148	-0.1327168538	 1.6998349384	 0.125143
H	 0.5647066694	-3.4483693403	 3.0390552947	 0.188854
120.3831	151.2692	195.4033	204.5862	210.2197	245.5477	296.5271	349.5108	445.6036	479.2211	525.3984	539.3089	612.2491	616.9092	623.9124	709.3684	788.4425	804.035	860.9464	915.747	937.4015	961.1098	999.2613	1007.2999	1040.7608	1069.1503	1084.317	1101.4499	1119.2296	1143.1695	1158.176	1203.7984	1216.9914	1259.6747	1306.208	1359.5233	1370.7087	1405.8362	1415.354	1484.3293	1486.1511	1488.297	1501.566	1506.4178	2227.935	3032.2513	3043.3825	3077.1693	3094.1211	3109.6471	3111.9447	3118.5393	3124.946	3176.8996	3188.6088	3203.3475	3502.5157
CC1C2CC2C1(C)C#C	C[C@H]1[C@H]2C[C@H]2[C@]1(C)C#C	
InChI=1S/C9H12/c1-4-9(3)6(2)7-5-8(7)9/h1,6-8H,5H2,2-3H3	InChI=1S/C9H12/c1-4-9(3)6(2)7-5-8(7)9/h1,6-8H,5H2,2-3H3/t6-,7+,8+,9+/m0/s1
