19
gdb 121489	4.83497	0.6128	0.54942	1.3322	77.56	-0.2489	0.0106	0.2595	1996.7772	0.157282	-456.393312	-456.382761	-456.381817	-456.430006	36.394	
C	-0.1791674024	 1.3401168296	-0.067965047	-0.391255
C	-0.2617389387	-0.0287154731	-0.7500587001	-0.184592
C	 1.1299226117	-0.636231675	-0.9650972723	-0.114496
N	 1.2465630913	-1.938982969	-1.602134426	-0.23359
C	 0.2199636333	-2.5547703267	-1.9704004171	 0.119167
O	 0.3892971889	-3.7828530148	-2.5691731191	-0.239011
C	-0.7515877176	-4.4498540093	-2.9569474905	 0.51069
N	-0.3905933928	-5.6134137858	-3.5516609947	-0.563501
O	-1.8782753714	-4.0481108049	-2.8032958798	-0.384096
H	 0.3036571709	 1.266299138	 0.9127198385	 0.117709
H	 0.4008578913	 2.0487585384	-0.6693775326	 0.117828
H	-1.1741780127	 1.7688307931	 0.0829297685	 0.116507
H	-0.872775038	-0.7058484705	-0.139904763	 0.10579
H	-0.7760955457	 0.0727692457	-1.7140521961	 0.105922
H	 1.7408898027	 0.0590208423	-1.5574936667	 0.113666
H	 1.6452354442	-0.712292598	 0.0025154982	 0.113389
H	-0.8267872123	-2.2665450247	-1.8917855629	 0.138464
H	 0.5664523794	-5.9183485362	-3.5270921826	 0.275761
H	-1.1178416121	-6.2655077191	-3.7847135345	 0.27565
45.3377	81.6027	91.081	121.9802	171.8254	192.5462	227.3694	237.0896	296.2892	311.6985	403.0116	468.57	547.0898	629.4562	666.4893	748.4254	776.9133	882.1659	893.1754	957.8885	998.5606	1031.0691	1074.5177	1112.9613	1117.1974	1163.672	1190.87	1283.967	1319.7149	1328.8905	1347.5107	1377.2523	1407.4518	1415.6164	1477.7901	1493.7434	1500.8115	1510.1644	1606.7261	1781.1803	1852.7217	3008.0995	3022.0352	3027.7983	3031.6467	3059.2049	3097.9666	3106.2411	3153.1062	3626.6971	3763.4665
CCCN=COC(N)=O	CCCN=COC(=O)N	
InChI=1S/C5H10N2O2/c1-2-3-7-4-9-5(6)8/h4H,2-3H2,1H3,(H2,6,8)	InChI=1S/C5H10N2O2/c1-2-3-7-4-9-5(6)8/h4H,2-3H2,1H3,(H2,6,8)
