19
gdb 70069	2.80178	1.47401	1.12897	3.7702	82.81	-0.2338	-0.0481	0.1857	1120.9196	0.160084	-385.923125	-385.915122	-385.914178	-385.955403	31.697	
C	 0.0405214634	 1.5049044981	-0.033241358	-0.462452
C	-0.0513456399	-0.005536875	 0.0647404373	 0.316655
C	-0.8085367471	-0.5825290383	 1.2235272095	-0.317579
C	 0.7189193229	-0.690452207	 1.1843792177	-0.116411
C	 1.3116294594	-2.0127653317	 0.9220208181	-0.033611
C	 1.0469248011	-2.7374603729	-0.1768821532	-0.18118
C	 0.2012053723	-2.2246649422	-1.2684317303	 0.354687
O	-0.1975541116	-2.9383267946	-2.1686886335	-0.337728
C	-0.08808797	-0.7211574487	-1.2762693802	-0.385473
H	 0.9413321749	 1.811287021	-0.5769125904	 0.120549
H	-0.8254356537	 1.9150512441	-0.5658818783	 0.123534
H	 0.071413239	 1.9688904314	 0.9575560331	 0.115285
H	-1.2420524396	 0.1039153314	 1.9431876432	 0.116337
H	-1.3582685038	-1.5079968194	 1.0874044699	 0.1263
H	 1.2582474781	-0.0579510742	 1.8821118687	 0.090048
H	 1.9640045695	-2.4209738176	 1.6910782192	 0.108212
H	 1.4371138274	-3.7408758296	-0.3104639372	 0.107081
H	-1.046104724	-0.5666542486	-1.7834758792	 0.128536
H	 0.6761368819	-0.2829725563	-1.9350547263	 0.127212
90.2076	171.7607	230.0419	282.4635	324.5838	349.8173	392.2978	455.8334	477.7704	525.0664	616.3864	666.5239	751.3001	800.592	806.0549	862.5004	890.755	921.1888	965.6565	986.9416	1004.3362	1028.8891	1066.0868	1077.3564	1100.407	1112.9376	1174.0599	1212.4699	1233.6963	1251.8048	1322.0944	1345.742	1400.215	1417.7347	1429.8983	1455.878	1487.0211	1492.7953	1504.065	1668.8818	1767.7131	3010.3089	3024.2499	3076.1183	3086.7989	3100.2921	3127.9247	3146.5478	3161.6099	3193.9132	3219.0569
CC12CC1C=CC(=O)C2	C[C@]12C[C@H]1C=CC(=O)C2	
InChI=1S/C8H10O/c1-8-4-6(8)2-3-7(9)5-8/h2-3,6H,4-5H2,1H3	InChI=1S/C8H10O/c1-8-4-6(8)2-3-7(9)5-8/h2-3,6H,4-5H2,1H3/t6-,8-/m1/s1
