19
gdb 72447	2.49416	2.17469	1.5641	1.4677	73.32	-0.2465	0.0891	0.3356	920.8806	0.161113	-423.026995	-423.01996	-423.019016	-423.057901	29.442	
C	 0.0539379261	 1.4753335869	 0.0115681359	-0.475961
C	-0.0347363479	-0.0262722827	 0.0247089686	 0.481909
O	 0.6505813986	-0.5821120916	-1.11372425	-0.30717
C	 1.0454747613	-1.8990006404	-0.6985219813	-0.082313
C	 0.4630514602	-1.9689438286	 0.7339438831	 0.005071
O	 0.6459767296	-0.60291264	 1.1331570636	-0.280355
C	-1.0548962027	-2.0848583097	 0.5876019326	-0.042074
C	-1.8943103934	-1.1582597258	 1.4274729198	-0.32059
C	-1.4120563399	-0.7019289122	 0.0745769195	-0.086798
H	 1.1003688613	 1.7871132586	 0.0362081933	 0.134983
H	-0.4081474031	 1.8639465956	-0.8992465288	 0.131142
H	-0.4694571253	 1.8908697554	 0.8759555754	 0.129849
H	 0.6238942978	-2.6565265261	-1.3686463055	 0.099587
H	 2.1389418519	-1.9739867606	-0.7053933324	 0.103417
H	 0.9661255382	-2.6389087019	 1.4306052587	 0.08703
H	-1.4778547036	-2.9860901089	 0.1606887469	 0.092157
H	-2.9472738212	-1.407512194	 1.5009135356	 0.110888
H	-1.4637439775	-0.7154691544	 2.3180592131	 0.124745
H	-2.0969110806	-0.5433173497	-0.748492928	 0.094484
192.4459	218.5314	287.9192	289.2719	363.5098	406.3846	498.9123	609.2583	645.83	665.9481	771.3472	786.3025	825.5091	839.2646	870.0284	885.5564	917.9823	935.6114	983.4433	997.8835	1023.2514	1039.0945	1053.8598	1083.451	1093.5925	1112.7488	1138.0443	1182.1287	1189.3663	1198.8665	1261.9566	1272.5307	1321.461	1334.1416	1351.5685	1385.9314	1424.4379	1470.1194	1481.3639	1486.4044	1517.2465	3027.0112	3057.44	3071.9614	3126.6728	3134.9662	3138.0379	3140.2589	3185.961	3198.8659	3226.9128
CC12OCC(O1)C1CC21	C[C@@]12OC[C@@H](O1)[C@H]1C[C@@H]21	
InChI=1S/C7H10O2/c1-7-5-2-4(5)6(9-7)3-8-7/h4-6H,2-3H2,1H3	InChI=1S/C7H10O2/c1-7-5-2-4(5)6(9-7)3-8-7/h4-6H,2-3H2,1H3/t4-,5+,6+,7+/m0/s1
