19
gdb 133797	2.87684	0.85625	0.77258	0.9789	64.74	-0.2564	0.0791	0.3355	1519.3915	0.155011	-550.726104	-550.716029	-550.715084	-550.761861	36.09	
C	-0.0395242978	 1.5876733351	 0.0446841008	-0.383852
C	 0.0190044349	 0.0582851689	 0.0342121546	-0.171291
C	 0.6662177259	-0.4964359249	-1.2386343665	-0.171593
C	 0.6856668002	-2.0299523935	-1.2866757386	-0.132408
N	-0.6683231319	-2.5722760757	-1.3218739443	-0.507765
C	 1.5356294575	-2.5257776853	-2.4603227402	 0.271395
F	 2.8069020512	-2.1032641977	-2.381159987	-0.077452
F	 1.5642804351	-3.8708244494	-2.4994580081	-0.086968
F	 1.0416724137	-2.1068024012	-3.639514988	-0.08905
H	 0.9618118233	 2.0267686929	-0.0291094039	 0.113834
H	-0.6282867068	 1.9674669647	-0.7978980153	 0.114279
H	-0.4992884446	 1.960364601	 0.9651061863	 0.114059
H	 0.5842227701	-0.2942207966	 0.9071606928	 0.093872
H	-0.9874775807	-0.3601000976	 0.1328306531	 0.120107
H	 0.130880883	-0.1251305361	-2.1227581084	 0.101848
H	 1.69486823	-0.1295964689	-1.326173582	 0.111541
H	 1.18086881	-2.412709445	-0.3853606276	 0.106573
H	-1.1252381264	-2.2867903725	-2.1842896589	 0.23422
H	-0.6367097968	-3.5870916882	-1.3324109588	 0.238652
62.5344	81.088	96.9799	136.6099	238.9811	250.2862	265.6151	300.7797	316.452	344.0075	421.4809	488.0316	570.2641	579.506	682.3475	750.2831	816.5393	863.4142	902.4479	924.8545	971.63	1052.1626	1061.3396	1102.3402	1158.6102	1162.6304	1200.6665	1232.0632	1272.6531	1297.4291	1306.3136	1340.076	1369.7281	1401.3453	1407.8934	1415.1798	1486.4735	1495.8764	1500.4577	1513.0275	1664.7935	3018.8867	3026.4923	3030.1916	3043.1695	3067.715	3081.822	3100.7601	3104.2488	3490.414	3572.9244
CCCC(N)C(F)(F)F	CCC[C@@H](N)C(F)(F)F	
InChI=1S/C5H10F3N/c1-2-3-4(9)5(6,7)8/h4H,2-3,9H2,1H3	InChI=1S/C5H10F3N/c1-2-3-4(9)5(6,7)8/h4H,2-3,9H2,1H3/t4-/m1/s1
