17
gdb 32230	2.67575	1.52552	0.97988	1.9563	81.25	-0.1909	-0.001	0.1899	1171.9869	0.13832	-418.075154	-418.067061	-418.066116	-418.107682	31.	
C	-0.160156441	 1.4557693505	 0.0213636102	-0.324668
N	 0.164084435	 0.0475017913	 0.0712951535	-0.374365
C	 0.6882525107	-0.6087582826	-1.0247741778	 0.244904
C	 1.2441067503	 0.0126872554	-2.1395764848	-0.182611
C	 1.7864993882	-0.766141231	-3.1687045963	-0.119164
C	 1.7467723317	-2.1428365945	-3.0629502819	-0.035834
N	 1.2008743795	-2.7655163871	-2.0007061907	-0.357891
C	 0.7022750794	-2.025950351	-1.0389666372	 0.373323
O	 0.1410017496	-2.6485842501	 0.0335966777	-0.439665
H	 0.7481061564	 2.0606314039	-0.0851022327	 0.132907
H	-0.8375240769	 1.7174298364	-0.8072050249	 0.116844
H	-0.6370898668	 1.7419856082	 0.9609819384	 0.128461
H	-0.4278061753	-0.5291854526	 0.6471431394	 0.254028
H	 1.2596388503	 1.0938213693	-2.2089780508	 0.095985
H	 2.2265831461	-0.2938058552	-4.0393975711	 0.090751
H	 2.1529567482	-2.7849431131	-3.8379679689	 0.1007
H	 0.2179961845	-3.595884028	-0.1432053022	 0.296295
101.0215	162.2799	198.761	218.4619	319.7754	337.8634	435.5192	458.6128	529.9446	534.2947	567.6888	594.6477	605.3466	779.6929	787.2156	810.5682	880.7581	908.7077	952.8353	1065.0004	1098.1583	1113.0453	1153.7998	1180.1409	1190.8363	1268.3378	1301.1609	1344.998	1404.6754	1463.0865	1475.3188	1484.3542	1506.1221	1520.7426	1542.0735	1630.4789	1650.5577	2976.643	3051.5414	3123.3348	3173.1618	3193.2122	3208.0328	3637.1685	3775.4785
CNC1=CC=CN=C1O	CNc1cccnc1O	
InChI=1S/C6H8N2O/c1-7-5-3-2-4-8-6(5)9/h2-4,7H,1H3,(H,8,9)	InChI=1S/C6H8N2O/c1-7-5-3-2-4-8-6(5)9/h2-4,7H,1H3,(H,8,9)
