13
gdb 20390	3.53544	1.91755	1.26888	4.8016	67.01	-0.223	-0.0574	0.1655	883.071	0.097093	-394.797191	-394.790161	-394.789217	-394.828855	24.923	
C	 0.0265955673	 1.4612013235	 0.1069803177	-0.155426
C	 1.5469435605	 1.7206280852	-0.0844569536	-0.32175
C	 2.0976855255	 0.321855711	 0.0291226282	 0.200749
C	 1.0303890343	-0.6933964937	-0.0768530689	 0.351923
N	-0.1314314348	 0.0493605449	-0.2123772941	-0.328271
O	 1.117253002	-1.9014201701	-0.0679854907	-0.386329
N	 4.4348982273	-0.3006206851	 0.2351168322	-0.245969
N	 3.342810265	 0.0005952593	 0.1385908114	 0.131956
H	-0.27251184	 1.6786477774	 1.1416293588	 0.115813
H	-0.5742825419	 2.0885127997	-0.5573516603	 0.121743
H	 1.7443065619	 2.1571963843	-1.0710963129	 0.131023
H	 1.9346059073	 2.4113588068	 0.6687772942	 0.129198
H	-1.0082447444	-0.4272982333	-0.0704207221	 0.255339
97.1461	148.3155	169.5745	208.1882	414.1221	483.7739	521.4313	544.2741	636.1241	706.3473	725.5909	750.175	872.3519	941.6332	1074.1456	1075.5533	1138.3146	1196.4386	1234.349	1257.3523	1305.6185	1353.3718	1427.4628	1444.6374	1498.7571	1532.7411	1816.0429	2208.0404	3004.5926	3026.3924	3076.995	3090.3851	3638.8564
C1CC2=C(N1)ON=N2	C1C[C](C(=O)N1)[N][N]	
InChI=1S/C4H5N3O/c1-2-5-4-3(1)6-7-8-4/h5H,1-2H2	InChI=1S/C4H5N3O/c5-7-3-1-2-6-4(3)8/h1-2H2,(H,6,8)
