16
gdb 37654	3.29718	2.37605	2.1144	2.7839	68.17	-0.2295	0.0528	0.2823	732.1602	0.128235	-400.658817	-400.653793	-400.652849	-400.687875	22.729	
O	-0.0484804161	 1.440745761	-0.1082470025	-0.296028
C	 1.4064757955	 1.4335150785	 0.0225817659	 0.072709
C	 2.0312162187	 1.2057508754	-1.3368823266	-0.055802
C	 2.6459144458	-0.1311788736	-1.4717463391	-0.053721
C	 1.9475426791	-0.9611420284	-0.376983295	-0.09183
C	 1.3921052963	 0.0227379777	 0.6946526168	-0.115966
C	-0.0217177851	 0.0182448431	 0.0630074841	 0.116971
C	 0.6213401823	-0.7395731165	-1.1550277232	-0.030515
N	 1.3277593413	 0.1674801214	-2.1518417891	-0.145069
H	 1.7719638861	 2.3092982306	 0.5621284783	 0.082595
H	 2.3729045531	 2.0451301955	-1.9323301427	 0.101585
H	 3.5440999662	-0.3633805647	-2.0327617164	 0.098283
H	 2.3231236558	-1.9360398204	-0.0769782631	 0.076335
H	 1.6117071348	-0.0650882002	 1.7571094376	 0.08116
H	-0.9367911315	-0.3888920929	 0.4969041242	 0.079139
H	 0.0660492378	-1.5245455067	-1.6666622091	 0.080154
372.7648	446.5141	597.7344	637.4815	682.8506	704.1202	722.1875	760.317	811.8663	833.4463	841.0446	868.9643	893.6429	897.7703	957.8714	963.1682	974.7938	976.9143	1009.1632	1024.9513	1053.8126	1084.8393	1123.5787	1149.5654	1181.7864	1195.5292	1217.1589	1234.8014	1249.4102	1263.5153	1271.1468	1302.4277	1318.3005	1343.0913	1382.5453	3093.9598	3095.211	3118.0709	3129.0897	3148.873	3171.4306	3182.8839
O1C2C3C4C5C2C1C5N34	O1[C@@H]2[C@H]3[C@H]4[C@H]5[C@@H]2[C@@H]1[C@H]5N34	
InChI=1S/C7H7NO/c9-6-2-1-3-5(7(2)9)8(3)4(1)6/h1-7H	InChI=1S/C7H7NO/c9-6-2-1-3-5(7(2)9)8(3)4(1)6/h1-7H/t1-,2-,3-,4+,5-,6-,7+,8?/m1/s1
