18
gdb 118637	1.85246	1.16498	0.76608	0.6833	70.43	-0.2609	-0.0425	0.2184	1445.0516	0.145323	-476.249124	-476.238997	-476.238053	-476.285317	34.648	
O	 0.1768084089	 1.0969726666	-0.1196260125	-0.423832
C	 0.10498953	-0.320534142	-0.0667655626	-0.083372
C	-1.3693671888	-0.6728514971	 0.1059732314	-0.179025
C	-1.6555605424	-2.1900007615	 0.0929022839	-0.084695
N	-1.1445876032	-2.9122403313	 1.240018477	-0.272794
C	 0.0729586961	-3.515036431	 1.2352412254	 0.152873
O	 0.9169802228	-3.3664789787	 0.3744626994	-0.328316
C	-3.1570010986	-2.4019902351	 0.0183805113	 0.161672
O	-3.7926567336	-3.0028031544	 0.8472958538	-0.254899
H	 1.1047030019	 1.3463639172	-0.1563469013	 0.288962
H	 0.4918981954	-0.782387139	-0.9874285021	 0.101528
H	 0.6943989747	-0.7249519084	 0.7658199174	 0.110434
H	-1.7388065069	-0.2396649255	 1.0421718343	 0.117794
H	-1.9273413419	-0.1973351112	-0.7104543741	 0.113466
H	-1.2085914351	-2.6138455766	-0.8184559042	 0.12916
H	-1.8493282249	-3.2322053622	 1.8918131765	 0.260362
H	 0.2230628585	-4.1554880816	 2.1255368191	 0.087781
H	-3.645923753	-1.9304774281	-0.8592617928	 0.102899
63.0285	82.6368	90.6455	107.7193	181.1749	216.3183	248.4847	255.7618	291.079	348.9936	394.8366	521.3796	602.2826	703.5171	772.9244	798.005	876.1782	945.7238	985.545	1034.1675	1053.3364	1081.8174	1118.7549	1140.8263	1215.0956	1221.7853	1238.6042	1284.8456	1318.3747	1344.5819	1362.3916	1412.7249	1427.3785	1462.9612	1479.2276	1513.838	1519.2704	1792.299	1826.5782	2922.6885	2951.9085	2993.9705	3014.1885	3031.0405	3041.8897	3084.6865	3581.5209	3832.2747
OCCC(NC=O)C=O	OCC[C@@H](NC=O)C=O	
InChI=1S/C5H9NO3/c7-2-1-5(3-8)6-4-9/h3-5,7H,1-2H2,(H,6,9)	InChI=1S/C5H9NO3/c7-2-1-5(3-8)6-4-9/h3-5,7H,1-2H2,(H,6,9)/t5-/m1/s1
