16
gdb 15884	2.8416	1.87595	1.25236	3.7586	60.44	-0.2761	0.0021	0.2781	959.256	0.130071	-420.902774	-420.894738	-420.893793	-420.935452	28.864	
C	 0.1190911216	 1.4784069641	-0.3117092694	-0.404671
C	-0.0637083454	 0.0408740182	 0.1223455882	 0.113282
O	 0.6963683614	-0.8894057716	-0.7453582073	-0.254031
C	 1.4065731664	-1.3692674573	 0.3162430117	 0.464269
O	 2.3092759015	-2.1507739331	 0.3114567496	-0.343559
C	 0.6961626812	-0.5126202869	 1.3556626709	-0.230283
C	 1.6609492438	 0.3335705065	 2.1931060988	-0.082748
O	 2.437907996	-0.506481255	 3.0209043601	-0.417671
H	 1.1745510088	 1.7591099966	-0.3450636442	 0.136036
H	-0.304406425	 1.6260742873	-1.3091641528	 0.141063
H	-0.3999305048	 2.1493401546	 0.3805011118	 0.131947
H	-1.1178941679	-0.2472356233	 0.1008779574	 0.105204
H	 0.0710848853	-1.1079178841	 2.0259076697	 0.123496
H	 2.2927656552	 0.9549478956	 1.5410864909	 0.098403
H	 1.1086250656	 1.0076578545	 2.8555693073	 0.117609
H	 2.8785993163	-1.1488785259	 2.4491203374	 0.301654
100.8894	108.3511	156.3227	208.2587	233.2078	338.8666	396.3062	464.9535	473.4816	535.2586	700.6893	746.902	838.728	848.8343	882.2205	1007.7068	1044.9538	1048.4582	1075.5007	1137.767	1158.9577	1164.8111	1190.3335	1247.3592	1313.3309	1336.2706	1384.9495	1391.6774	1416.6735	1440.0124	1483.3735	1498.2506	1514.9431	1909.1899	2991.804	3046.3132	3072.6138	3076.9106	3094.672	3116.173	3131.5914	3766.7275
CC1OC(=O)C1CO	C[C@H]1OC(=O)[C@H]1CO	
InChI=1S/C5H8O3/c1-3-4(2-6)5(7)8-3/h3-4,6H,2H2,1H3	InChI=1S/C5H8O3/c1-3-4(2-6)5(7)8-3/h3-4,6H,2H2,1H3/t3-,4+/m1/s1
