22
gdb 30704	3.62666	0.94096	0.91298	2.2306	88.68	-0.1978	0.0517	0.2495	1430.128	0.194942	-367.256506	-367.24707	-367.246125	-367.291388	35.502	
C	 0.0401492294	 1.5520502131	 0.0928321885	-0.390402
C	-0.0136167642	 0.0237214657	 0.0097136854	-0.167039
C	-1.4406591299	-0.5529143991	-0.0663731999	 0.02652
C	-2.201116297	-0.1368071042	-1.3317166079	-0.389276
N	-1.4174304279	-2.0091650419	 0.0747112641	 0.038437
C	-0.8710308855	-2.9036018713	-0.8153213109	-0.102641
C	-1.0327045011	-4.1738630949	-0.3098735663	-0.168876
C	-1.7023970192	-4.0494846198	 0.9369320904	-0.180334
C	-1.9235852399	-2.7071702903	 1.1443035191	-0.096457
H	 1.069950948	 1.8933509277	 0.2338022263	 0.119625
H	-0.3405676336	 2.0283401001	-0.8156363961	 0.121271
H	-0.5498803557	 1.9253910143	 0.9377701466	 0.116152
H	 0.5589037284	-0.3222340267	-0.8596878864	 0.101713
H	 0.4729081207	-0.4095372525	 0.8906618754	 0.111408
H	-1.9984636258	-0.1878259683	 0.8038668729	 0.088194
H	-2.3285925534	 0.9482699998	-1.3683981475	 0.121253
H	-1.6648047705	-0.4434507709	-2.2354384181	 0.12166
H	-3.1914052322	-0.5992130908	-1.3510053627	 0.130021
H	-0.4158410061	-2.5652698258	-1.7320267603	 0.110542
H	-0.7077976016	-5.0871542783	-0.784695195	 0.088792
H	-1.9915723502	-4.8480779637	 1.602776108	 0.089509
H	-2.3992265624	-2.1837244522	 1.9590582848	 0.109926
41.291	84.0954	105.94	207.297	220.7766	272.7226	289.8989	349.9108	392.8123	486.7973	623.5358	647.305	679.3964	701.216	739.9192	784.3078	793.1907	843.8127	849.1967	885.8315	954.5135	975.9884	991.3535	1033.7251	1074.1115	1088.1889	1108.6744	1119.8961	1151.3608	1187.5496	1270.3547	1290.7253	1301.8979	1322.4583	1355.3304	1374.6958	1410.6701	1416.6351	1423.5508	1448.2667	1481.2153	1494.4319	1499.0422	1504.5516	1510.645	1525.9641	1559.2637	3029.9212	3034.2839	3041.1416	3046.163	3071.2095	3101.4375	3111.2179	3117.2516	3125.849	3237.1688	3247.7801	3261.3006	3270.7182
CCC(C)N1C=CC=C1	CC[C@@H](C)n1cccc1	
InChI=1S/C8H13N/c1-3-8(2)9-6-4-5-7-9/h4-8H,3H2,1-2H3	InChI=1S/C8H13N/c1-3-8(2)9-6-4-5-7-9/h4-8H,3H2,1-2H3/t8-/m1/s1
