23
gdb 104868	2.21998	1.34336	1.07558	1.3641	86.77	-0.233	0.0307	0.2636	1269.7796	0.205668	-388.301906	-388.292038	-388.291094	-388.336663	37.197	
C	 0.8470022831	-0.7619471244	-1.1960753137	-0.398475
C	 0.0316179298	-0.1328394465	-0.0604370947	-0.211722
C	-1.4861217372	-0.4320255214	-0.0839097242	 0.27639
C	-2.1274376576	 0.081335839	-1.385599004	-0.108465
O	-1.8910148	 1.4792522404	-1.4866490922	-0.428304
C	-1.8127221543	-1.9466914673	 0.1099470273	-0.273412
C	-2.9570471051	-2.0298378538	 1.1553702705	-0.261411
C	-2.9606151726	-0.6527211928	 1.7720309488	-0.082468
C	-2.1806279891	 0.1986727707	 1.1116401285	-0.088414
H	 1.9154248499	-0.5749101395	-1.0490775143	 0.110421
H	 0.7072058027	-1.8472096034	-1.2469650549	 0.111598
H	 0.5748219412	-0.3419466007	-2.1692426239	 0.119958
H	 0.4223553674	-0.4799348513	 0.9040670984	 0.08859
H	 0.1695430473	 0.9531035557	-0.081498113	 0.110924
H	-1.7004622341	-0.454348602	-2.2477462264	 0.08291
H	-3.2064030882	-0.1372091747	-1.3621282863	 0.083763
H	-2.3215738152	 1.8024118031	-2.282954182	 0.286952
H	-2.0740760908	-2.4394569012	-0.8317247713	 0.091599
H	-0.9254061444	-2.4585381216	 0.4950981219	 0.10145
H	-3.9274071072	-2.2529284573	 0.6902001641	 0.102322
H	-2.7883964573	-2.8246948431	 1.8915115248	 0.100965
H	-3.5671196273	-0.402299693	 2.6362522081	 0.087675
H	-2.0512481211	 1.248996995	 1.3460564184	 0.097154
63.3504	90.3459	139.5053	183.1627	213.4091	242.7938	275.4025	299.5438	347.5568	378.1796	451.7981	513.1525	631.2566	718.4524	761.0412	783.3179	801.0778	839.7585	910.7391	929.1513	955.1464	972.911	986.2141	1007.6216	1045.0153	1052.5595	1080.0106	1117.8591	1135.9446	1167.6765	1177.3123	1216.7099	1242.1871	1272.9573	1281.4633	1311.7809	1322.0681	1331.9513	1373.581	1385.7614	1407.025	1447.7827	1480.6982	1487.6577	1498.2944	1502.1786	1506.6799	1521.4077	1690.9735	2967.6662	2999.05	3008.4504	3029.7128	3034.804	3041.6796	3051.3809	3074.7642	3087.2276	3100.2968	3107.4971	3179.1954	3209.027	3834.6658
CCC1(CO)CCC=C1	CC[C@@]1(CO)CCC=C1	
InChI=1S/C8H14O/c1-2-8(7-9)5-3-4-6-8/h3,5,9H,2,4,6-7H2,1H3	InChI=1S/C8H14O/c1-2-8(7-9)5-3-4-6-8/h3,5,9H,2,4,6-7H2,1H3/t8-/m0/s1
