18
gdb 99727	1.75471	1.64093	0.98204	1.723	69.75	-0.2329	0.0116	0.2445	1229.9155	0.147989	-472.471036	-472.461348	-472.460404	-472.50602	35.384	
C	 0.1312146473	-1.5660501086	 0.8238584422	-0.32413
N	 0.4319083064	-0.3204326577	 0.1249728292	-0.306319
C	 0.7661468222	-0.4771697001	-1.2777008253	-0.181441
C	-0.050532091	 0.5413232485	-2.1218969079	 0.395859
N	 0.2719154704	 0.5686240068	-3.4322106267	-0.515899
O	-0.9363666937	 1.2015297518	-1.6069060197	-0.373162
C	 2.2766002395	-0.345203714	-1.5733470996	 0.403567
N	 3.0103041542	 0.0005510766	-0.500337846	-0.503845
O	 2.7290067299	-0.5474162299	-2.6939058995	-0.395928
H	-0.6636615459	-2.1617526143	 0.344765705	 0.109854
H	 1.028980836	-2.191258918	 0.8813037693	 0.124173
H	-0.1810910755	-1.3390316344	 1.8469249699	 0.124862
H	-0.3571865966	 0.321945092	 0.1636970884	 0.245611
H	 0.4891447629	-1.4705173011	-1.664781267	 0.117773
H	 1.1384912755	 0.1278653347	-3.7211191968	 0.283634
H	-0.1668385078	 1.2664340332	-4.0109688457	 0.260141
H	 2.5109000875	 0.2025280951	 0.3548981775	 0.272
H	 3.9991544688	 0.1553919695	-0.5990895171	 0.263251
58.5706	81.0039	100.4559	201.0857	210.5789	250.9847	349.5409	365.7204	402.1884	414.4076	465.6904	533.0161	542.3314	601.9338	618.8812	683.8793	733.4193	747.8825	842.6134	924.4189	944.25	1033.3571	1102.2035	1144.3363	1150.6344	1171.173	1200.8043	1262.3744	1322.5674	1349.0461	1382.6803	1460.0426	1484.8858	1498.1192	1517.1617	1565.6017	1613.456	1771.4429	1799.1223	2967.638	2985.7244	3062.0714	3109.1833	3476.4813	3502.6618	3550.5373	3686.3464	3717.1652
CNC(C(N)=O)C(N)=O	CNC(C(=O)N)C(=O)N	
InChI=1S/C4H9N3O2/c1-7-2(3(5)8)4(6)9/h2,7H,1H3,(H2,5,8)(H2,6,9)	InChI=1S/C4H9N3O2/c1-7-2(3(5)8)4(6)9/h2,7H,1H3,(H2,5,8)(H2,6,9)
