14
gdb 130991	7.41141	0.74999	0.68396	4.9831	65.05	-0.2389	-0.0342	0.2047	1508.8982	0.100298	-469.991417	-469.983255	-469.982311	-470.026093	27.78	
O	-0.1658835898	 0.1912082779	 0.5614028797	-0.234305
C	 0.0692783469	 1.111694359	-0.1738261114	 0.140473
C	 1.3777682263	 1.8781269593	-0.1496888492	-0.160774
O	 1.2920273842	 2.8827721402	-1.1547203037	-0.281257
C	 2.3668281503	 3.6777723276	-1.2862295096	 0.41681
C	 2.5180937197	 4.7134641564	-2.1832356293	-0.200115
N	 3.762819728	 5.1720814366	-1.89583968	-0.139561
N	 4.3418518573	 4.4856209615	-0.906487733	-0.122921
N	 3.4858836584	 3.5667089718	-0.5304618204	-0.268974
H	-0.6569828489	 1.4761957103	-0.9333672143	 0.097073
H	 1.5363377735	 2.3187543038	 0.8425002562	 0.155257
H	 2.2160810065	 1.1958038728	-0.3377842929	 0.155072
H	 1.8856864117	 5.1295581699	-2.946454145	 0.154202
H	 4.2664598259	 5.9318132628	-2.3255593271	 0.289024
45.8062	49.7739	104.3122	121.0137	303.7135	339.037	397.6314	575.931	581.8318	685.1713	720.9674	729.4164	757.375	760.6637	986.171	1022.7498	1057.0835	1063.6414	1100.5497	1108.3143	1139.0034	1232.6252	1277.817	1333.3492	1347.9016	1362.388	1410.1037	1472.1572	1508.9289	1624.8654	1848.2198	2898.6575	3030.4795	3069.8761	3302.158	3656.2464
O=CCOC1=CNN=N1	O=CCOc1c[nH]nn1	
InChI=1S/C4H5N3O2/c8-1-2-9-4-3-5-7-6-4/h1,3H,2H2,(H,5,6,7)	InChI=1S/C4H5N3O2/c8-1-2-9-4-3-5-7-6-4/h1,3H,2H2,(H,5,6,7)
