13
gdb 132160	3.23007	1.3586	0.95701	6.2036	65.35	-0.2339	-0.0288	0.2051	1103.438	0.08925	-497.887269	-497.879804	-497.87886	-497.919157	28.379	
N	 0.0836903671	 1.3676724249	 0.1746925616	-0.565487
C	-0.0373504287	 0.0059149193	 0.0636269494	 0.457222
C	-1.1953744372	-0.7044400122	 0.0307919669	-0.363299
C	-1.2067592563	-2.1530679097	-0.0134991064	 0.299919
O	-2.2035639366	-2.8587702414	-0.0432793529	-0.383965
C	 0.1617441503	-2.714493357	-0.0258646348	 0.093149
F	 0.2887151232	-4.0342376349	-0.0675100153	-0.053754
C	 1.2534640097	-1.9402395075	-0.0019247972	-0.070238
O	 1.1808496393	-0.5785753027	 0.0423108312	-0.218506
H	 0.9555756546	 1.7525532471	-0.156748371	 0.268129
H	-0.7311491635	 1.9028905712	-0.0793581197	 0.272602
H	-2.1460573219	-0.1861456255	 0.0438479606	 0.110841
H	 2.2727015499	-2.2991452916	-0.0136241425	 0.153388
123.1044	176.0627	293.9953	307.7991	353.5293	382.4011	407.8398	436.4019	509.2298	531.844	607.9231	694.3967	739.8265	753.3905	793.9472	843.9772	862.8101	928.4257	1091.1759	1175.1523	1244.8131	1282.3974	1296.2031	1393.7415	1450.4916	1621.392	1665.7901	1719.3132	1750.5599	3209.9127	3240.8169	3586.911	3700.4717
NC1=CC(=O)C(F)=CO1	Nc1cc(=O)c(F)co1	
InChI=1S/C5H4FNO2/c6-3-2-9-5(7)1-4(3)8/h1-2H,7H2	InChI=1S/C5H4FNO2/c6-3-2-9-5(7)1-4(3)8/h1-2H,7H2
