18
gdb 92067	3.01178	1.55793	1.10347	4.7633	72.24	-0.2414	0.0503	0.2917	1094.0338	0.148987	-439.112149	-439.104006	-439.103062	-439.145208	30.287	
C	-0.0369937284	 1.4471795734	-0.094473769	-0.333663
N	 0.011028076	 0.0209411993	 0.1825087177	-0.145947
C	-1.2565613428	-0.704968584	 0.1265055642	-0.186885
C	-1.1687867621	-2.0020492675	 0.9065228541	-0.069905
C	-0.919975916	-3.3100161106	 0.1830626461	-0.311855
C	 0.196254316	-2.6157228267	 0.9008768545	 0.111396
O	 1.1847069678	-1.9856308307	 0.124585193	-0.248773
C	 1.2109712073	-0.620126381	 0.0009852455	 0.464066
O	 2.2509597431	-0.074266654	-0.2731988282	-0.389395
H	 0.9645860582	 1.8575242798	 0.0196210417	 0.169472
H	-0.3839356282	 1.6533908274	-1.1169478611	 0.120768
H	-0.7205887437	 1.9357566723	 0.6079420815	 0.119447
H	-2.0235605434	-0.0565895781	 0.5604096209	 0.118572
H	-1.5524653956	-0.885743294	-0.9183325297	 0.114472
H	-1.7257745188	-2.0362226071	 1.8357678935	 0.104303
H	-1.316732017	-4.2217487499	 0.6143444176	 0.122492
H	-0.8942518684	-3.2855864642	-0.9012468432	 0.129445
H	 0.6087220961	-3.0498951244	 1.8060277608	 0.111991
79.5152	114.8701	138.6901	204.4408	274.0768	356.0889	431.0338	439.2786	508.6871	563.0015	698.1907	760.5881	775.6879	827.1408	848.6273	918.4066	932.6886	1011.5517	1025.2585	1049.0394	1079.6921	1118.7882	1136.2762	1149.106	1168.1439	1181.6793	1238.714	1251.5083	1293.1844	1308.1117	1377.6587	1405.2324	1434.7114	1457.1615	1478.8482	1496.5174	1504.6251	1531.7691	1827.6733	2982.8497	3006.0648	3071.4517	3071.7772	3137.3284	3157.2794	3171.2601	3173.6969	3229.5799
CN1CC2CC2OC1=O	CN1C[C@H]2C[C@H]2OC1=O	
InChI=1S/C6H9NO2/c1-7-3-4-2-5(4)9-6(7)8/h4-5H,2-3H2,1H3	InChI=1S/C6H9NO2/c1-7-3-4-2-5(4)9-6(7)8/h4-5H,2-3H2,1H3/t4-,5-/m1/s1
