20
gdb 87874	3.21963	1.21162	1.19005	1.7976	78.93	-0.2409	0.0679	0.3088	1159.2971	0.171203	-403.087391	-403.079176	-403.078232	-403.120281	31.817	
C	-0.1059148666	 1.5528569009	 0.1517172589	-0.391458
C	-0.0867242862	 0.0449229411	 0.2061275924	-0.072816
N	 1.162653815	-0.6192695812	-0.2264503873	-0.39361
C	 0.7432292379	-0.7123430341	 1.1720060488	 0.358245
C	 1.6310729583	-0.2284145402	 2.3343343106	-0.312081
C	 1.2051220029	-1.4848758733	 3.1293913271	 0.120379
O	 0.0046644806	-1.283932201	 3.9057161807	-0.293075
C	-0.8230097309	-1.8698181714	 2.8742513588	-0.076992
C	 0.3742180416	-2.0048715748	 1.9176551429	-0.187205
H	 0.8621975932	 1.9606333034	 0.4538217687	 0.128601
H	-0.3159539209	 1.9036772973	-0.8643740478	 0.120153
H	-0.8765544806	 1.9581428028	 0.8164776518	 0.117193
H	-1.0206892756	-0.4347649	-0.0889434536	 0.078227
H	 0.9526625917	-1.4865265047	-0.7162273498	 0.225355
H	 2.6913929436	-0.2172973206	 2.0653016815	 0.111099
H	 1.3630862554	 0.7180414746	 2.8101435062	 0.112297
H	 1.9648881703	-2.0521228464	 3.6721562016	 0.078362
H	-1.2484939126	-2.8263298767	 3.2048778767	 0.098566
H	-1.6355548339	-1.2041225895	 2.5586373626	 0.10204
H	 0.5345765068	-2.955357976	 1.4071627993	 0.076718
74.5367	144.8989	183.3859	197.4481	261.7881	361.6657	410.2111	447.41	471.1222	556.0583	719.8672	779.6778	808.4679	827.8743	863.9685	913.8948	936.6399	968.687	973.6196	1007.559	1024.4667	1034.1133	1057.8855	1072.3753	1077.1066	1123.1297	1143.264	1157.6455	1176.5335	1213.3065	1231.9687	1252.355	1273.4538	1284.7028	1306.7871	1351.6871	1361.0768	1409.7342	1455.1071	1471.6772	1489.3642	1501.0405	1520.7188	3006.8687	3034.01	3053.9387	3056.756	3079.8979	3093.9861	3096.4922	3103.5096	3118.0596	3123.633	3483.7828
CC1NC11CC2OCC12	C[C@H]1N[C@]21C[C@H]1OC[C@@H]21	
InChI=1S/C7H11NO/c1-4-7(8-4)2-6-5(7)3-9-6/h4-6,8H,2-3H2,1H3	InChI=1S/C7H11NO/c1-4-7(8-4)2-6-5(7)3-9-6/h4-6,8H,2-3H2,1H3/t4-,5-,6-,7+/m1/s1
