15
gdb 128556	3.963	1.19477	0.92338	2.7557	76.35	-0.2213	-0.0519	0.1694	1206.5149	0.112422	-453.913232	-453.90517	-453.904226	-453.946453	29.164	
C	-0.0048245668	 1.4262492207	-0.0105642645	-0.245765
O	 0.014620759	-0.0073175189	-0.0241374376	-0.254308
C	 0.5948888117	-0.6411936688	-1.0400315106	 0.522729
C	 0.6475674254	-1.9887763184	-1.1162750768	-0.334729
C	 1.2937190974	-2.5978539207	-2.2481887104	 0.29463
N	 1.3956828047	-3.8714341181	-2.4121262722	-0.539922
C	 1.8210500773	-1.5950152291	-3.1908013394	-0.007608
N	 1.7607567524	-0.3183032014	-3.1004333254	-0.072559
O	 1.1136256416	 0.1977868259	-1.9653777879	-0.281433
H	 1.0090933292	 1.834150832	 0.0032277468	 0.147516
H	-0.5424815821	 1.8214275042	-0.8762276759	 0.147498
H	-0.5276108849	 1.691602709	 0.9079168063	 0.146882
H	 0.207933349	-2.5901969191	-0.3335369527	 0.127933
H	 1.8900370576	-4.0818241479	-3.2813791416	 0.208303
H	 2.3333937984	-1.9328868893	-4.0902923181	 0.140832
58.428	133.8033	159.5515	208.3609	223.905	386.6993	405.9452	483.2986	511.6314	590.7112	667.5603	712.603	730.8482	820.6775	865.9906	917.5234	934.4317	956.4836	989.016	1042.1264	1155.9379	1173.3839	1202.2152	1274.1679	1302.8943	1345.4795	1422.1299	1488.0853	1488.3804	1498.8802	1640.3628	1670.7461	1704.7435	3050.1233	3125.97	3155.3808	3161.8612	3239.7031	3447.4709
COC1=CC(=N)C=NO1	CO[C]1C=C([NH])C=NO1	
InChI=1S/C5H6N2O2/c1-8-5-2-4(6)3-7-9-5/h2-3,6H,1H3	InChI=1S/C5H6N2O2/c1-8-5-2-4(6)3-7-9-5/h2-3,6H,1H3
