13
gdb 10375	2.5153	2.17961	1.41974	4.7663	62.79	-0.2684	-0.0172	0.2512	864.7466	0.096677	-357.630714	-357.623424	-357.62248	-357.662487	25.845	
N	 0.0386765101	-1.1939921214	 0.0181890748	-0.317305
C	 0.0051436574	-0.0397368316	 0.0046439946	 0.283541
C	-0.0228268106	 1.4207861575	 0.0027560494	-0.016998
C	-0.1586545948	 2.0369006307	 1.4464836804	-0.187338
N	 1.30701254	 2.181820224	 1.4895931334	-0.29982
C	 1.414778727	 2.0651888061	 0.024734305	-0.187319
C	-0.9429304626	 1.9324014099	-1.0052299006	 0.251974
N	-1.6606288002	 2.3804435645	-1.7915649725	-0.319798
H	-0.7284304468	 2.9735183488	 1.406173183	 0.129716
H	-0.5835415823	 1.3758485429	 2.2051383716	 0.147213
H	 1.6511115658	 3.0474307429	 1.8876306904	 0.239181
H	 2.2253588998	 1.4263627494	-0.3329512666	 0.147226
H	 1.4135861873	 3.0120385962	-0.5293373128	 0.129728
116.064	136.1467	185.2989	197.4856	273.1016	476.9858	506.9008	531.2589	584.0818	595.5476	677.7586	882.8511	935.9449	943.2777	993.7697	1013.7112	1062.1632	1127.1603	1133.8686	1190.2947	1266.0416	1277.1158	1358.5425	1385.4264	1505.0341	1527.3156	2364.2334	2369.0237	3024.4573	3030.178	3106.7079	3107.2736	3551.2723
N#CC1(CNC1)C#N	N#CC1(CNC1)C#N	
InChI=1S/C5H5N3/c6-1-5(2-7)3-8-4-5/h8H,3-4H2	InChI=1S/C5H5N3/c6-1-5(2-7)3-8-4-5/h8H,3-4H2
