14
gdb 10290	2.19029	2.02437	1.28751	5.3554	58.89	-0.2624	-0.0123	0.25	957.8899	0.105562	-415.883087	-415.874287	-415.873343	-415.917103	30.018	
C	 0.6839403977	 0.5498599787	-0.0648737492	-0.252158
O	-0.2845901582	-0.1599096883	-0.8275741739	-0.241629
C	-1.4885051614	-0.3815896863	-0.1241708247	-0.114766
C	-2.5581231512	-0.5883476781	-1.1099182436	 0.290649
N	-3.3996723201	-0.7649208126	-1.8804391629	-0.306159
C	-1.4395134773	-1.613936462	 0.832982246	 0.365375
N	-0.4968906931	-2.5187198961	 0.4801666156	-0.507742
O	-2.1928505679	-1.7000771407	 1.7754522709	-0.339391
H	 1.5549086741	 0.675362991	-0.7101080816	 0.146183
H	 0.3067692008	 1.5385451092	 0.228351613	 0.131142
H	 0.9777789841	-0.003784949	 0.8366563861	 0.128917
H	-1.759763187	 0.4776731463	 0.5042087632	 0.146084
H	 0.0479394431	-2.3810796431	-0.3547516686	 0.278843
H	-0.4345033136	-3.3841275491	 0.9904937997	 0.274653
45.5065	104.8715	142.6768	170.0389	190.2697	288.7717	336.1443	372.92	422.0987	471.7178	551.5482	579.6495	613.6198	741.0053	884.0319	987.292	1006.2542	1092.7834	1134.1074	1179.3127	1217.9292	1274.4162	1344.0013	1349.1182	1478.6404	1489.0134	1504.2978	1598.7958	1829.8373	2368.2436	3003.5258	3028.123	3064.1828	3138.5801	3597.5898	3735.2946
COC(C#N)C(N)=O	CO[C@@H](C#N)C(=O)N	
InChI=1S/C4H6N2O2/c1-8-3(2-5)4(6)7/h3H,1H3,(H2,6,7)	InChI=1S/C4H6N2O2/c1-8-3(2-5)4(6)7/h3H,1H3,(H2,6,7)/t3-/m0/s1
