14
gdb 57230	3.0671	0.81671	0.74471	4.2372	81.3	-0.2892	-0.0654	0.2238	1499.2281	0.099756	-395.714087	-395.704657	-395.703713	-395.74866	33.134	
C	-0.0286855636	 1.549422456	 0.0214221704	-0.389816
C	 0.0049150352	 0.0026651483	 0.0122893548	-0.158804
N	 0.6879191464	-0.4627988492	 1.2283182676	-0.495749
C	-1.383377644	-0.5118506514	 0.0468317418	 0.330005
N	-2.4681846539	-0.9060328552	 0.0689406943	-0.321092
C	 0.6482174744	-0.4780341546	-1.2262681267	 0.217983
C	 1.2426992379	-0.8692857003	-2.2024449017	-0.0359
C	 1.9115666781	-1.3117654481	-3.3079865188	 0.215311
N	 2.4851932298	-1.6854333055	-4.2460932157	-0.3241
H	 0.9949880808	 1.9312387803	-0.0155922231	 0.139095
H	-0.5772028281	 1.930123541	-0.841465104	 0.155969
H	-0.5076019874	 1.8846405508	 0.9429124747	 0.160739
H	 0.7366074214	-1.4777708961	 1.2384830265	 0.256835
H	 1.6435990631	-0.116521676	 1.2218828001	 0.249525
70.1529	89.5253	178.6802	186.3992	237.0151	242.3205	265.3565	294.1141	364.5934	453.5638	490.9807	519.7206	573.326	583.788	609.2271	654.024	829.0565	875.4312	965.6803	1026.8078	1068.6792	1175.1553	1218.4712	1324.5154	1404.6215	1484.793	1486.2754	1656.1237	2262.1936	2369.3061	2398.9563	3058.4384	3141.2716	3159.1246	3492.2026	3577.8257
CC(N)(C#N)C#CC#N	C[C@@](N)(C#N)C#CC#N	
InChI=1S/C6H5N3/c1-6(9,5-8)3-2-4-7/h9H2,1H3	InChI=1S/C6H5N3/c1-6(9,5-8)3-2-4-7/h9H2,1H3/t6-/m0/s1
