23
gdb 121139	2.99502	0.86861	0.80241	2.2399	82.7	-0.242	0.066	0.308	1586.8065	0.20328	-425.417487	-425.406916	-425.405971	-425.453359	38.778	
C	-0.2848885012	 1.5063175796	-0.0974974333	-0.38416
C	 0.1754073216	 0.046667317	-0.0959178555	-0.162816
C	 0.4372985987	-0.4978516459	 1.3149441093	-0.205699
C	 0.9195776004	-1.9343571763	 1.2943310785	 0.133131
O	 2.2155695967	-2.0913634521	 0.6618460158	-0.300485
C	 2.6362955019	-3.0329011859	 1.6675596081	-0.111695
C	 1.427547646	-2.6607137455	 2.5679432699	 0.305445
C	 1.7805260273	-1.7893646344	 3.7648219181	-0.456639
O	 0.5558063233	-3.7120424101	 2.92839988	-0.472759
H	 0.467252878	 2.1593679153	 0.3592369013	 0.11334
H	-0.4626431871	 1.8664641134	-1.1156393063	 0.112002
H	-1.2159291086	 1.6307270476	 0.467211006	 0.111026
H	-0.5799557952	-0.5792069017	-0.5888272733	 0.0949
H	 1.0924722244	-0.0566767641	-0.6868154168	 0.119403
H	 1.1797276447	 0.1336551491	 1.8174353447	 0.093289
H	-0.484363438	-0.4493405848	 1.9111914175	 0.098251
H	 0.1739419107	-2.5749556789	 0.7987398038	 0.077149
H	 2.5889537957	-4.0713359455	 1.3137416178	 0.096044
H	 3.6427248827	-2.8119998256	 2.0425980656	 0.093726
H	 2.4402850291	-0.9658949883	 3.4792172556	 0.133922
H	 0.8794029603	-1.3734100533	 4.2251986231	 0.127506
H	 2.3091743151	-2.3843752554	 4.5208200606	 0.107486
H	 0.8458180536	-4.0742953142	 3.7721574995	 0.277633
62.6476	85.0038	106.5814	119.7297	242.6689	250.4854	254.8347	274.7723	290.3673	322.6299	357.1867	405.3524	513.7681	538.1205	653.0278	747.526	815.7088	852.8729	898.8479	908.9857	938.068	958.2596	981.8673	1019.6947	1049.6406	1088.2922	1104.0004	1127.9364	1153.4584	1176.9032	1197.4473	1216.487	1260.8086	1289.6573	1303.7902	1327.0919	1342.8037	1382.5775	1392.8961	1407.6756	1410.1069	1420.7056	1470.6762	1492.1924	1493.6179	1497.5096	1499.7046	1509.9754	1515.9182	2987.339	3007.7929	3014.9554	3024.2378	3024.4434	3028.0819	3055.1835	3061.5677	3072.1659	3092.6016	3096.841	3100.9974	3123.3593	3809.2396
CCCC1OCC1(C)O	CCC[C@H]1OC[C@]1(C)O	
InChI=1S/C7H14O2/c1-3-4-6-7(2,8)5-9-6/h6,8H,3-5H2,1-2H3	InChI=1S/C7H14O2/c1-3-4-6-7(2,8)5-9-6/h6,8H,3-5H2,1-2H3/t6-,7+/m1/s1
