18
gdb 22415	4.63116	0.84648	0.8023	1.5424	77.28	-0.2476	-0.0017	0.2459	1450.9742	0.144698	-439.016143	-439.007094	-439.006149	-439.050213	33.733	
C	 0.2546586792	 1.5236737144	-0.3340088694	-0.417252
C	 0.0929964809	 0.0513020155	-0.0646979548	-0.02167
O	 1.302738189	-0.7199532706	 0.0821909056	-0.290508
C	 0.4589260547	-0.5763633814	 1.2066081195	 0.430234
C	 0.9023338693	 0.0742082992	 2.5353084668	-0.403981
C	 0.1103668896	-1.0206388056	 3.2280330702	 0.417193
C	-0.1970092216	-1.7633303829	 1.9384489066	-0.408616
N	-0.1921955111	-1.1556296905	 4.4487829151	-0.234497
O	-0.9750925081	-2.3081726693	 4.6466054857	-0.392356
H	 1.0133471104	 1.9612470154	 0.3198543596	 0.129295
H	 0.5593650631	 1.6927068024	-1.3719431686	 0.133168
H	-0.6932429094	 2.0487461268	-0.1729432406	 0.123979
H	-0.6682201034	-0.4526366455	-0.6639804317	 0.092521
H	 1.9834502819	 0.0088343821	 2.6973575834	 0.136546
H	 0.5789454778	 1.102319209	 2.7206994574	 0.127056
H	-1.2539638589	-1.9593941352	 1.7376931098	 0.131516
H	 0.3602639114	-2.6999350758	 1.8288922827	 0.140061
H	-1.136438415	-2.2830160481	 5.5959339823	 0.30731
44.0709	153.8899	175.0299	198.897	223.1288	266.4602	343.9843	386.8022	439.2919	459.7585	471.0944	487.1454	612.2804	744.7058	776.5339	808.179	859.8168	938.0394	957.052	970.5821	1027.4258	1034.3901	1072.8451	1099.4337	1132.1389	1163.753	1189.4759	1201.7403	1218.1363	1240.248	1352.6175	1403.8619	1410.3888	1440.3057	1455.7139	1476.2795	1489.9664	1524.1226	1792.406	3037.1218	3048.4654	3053.4145	3086.9292	3100.2547	3101.528	3102.547	3125.5864	3817.3478
CC1OC11CC(C1)=NO	C[C@H]1O[C@]21CC(=NO)C2	
InChI=1S/C6H9NO2/c1-4-6(9-4)2-5(3-6)7-8/h4,8H,2-3H2,1H3	InChI=1S/C6H9NO2/c1-4-6(9-4)2-5(3-6)7-8/h4,8H,2-3H2,1H3/t4-,6-/m1/s1
