25
gdb 101682	2.76408	0.74514	0.69091	1.347	86.36	-0.2484	0.0779	0.3263	1800.5043	0.225575	-426.62041	-426.608422	-426.607478	-426.65844	42.433	
C	-0.1559569681	 1.42480671	 0.0666824326	-0.233562
O	 0.1373038056	 0.052572159	-0.0372576868	-0.24109
C	 0.6858213187	-0.5362207752	 1.1377430567	 0.130672
C	-0.3875523964	-0.777052732	 2.204127632	-0.40135
C	 1.3508857474	-1.8452701916	 0.7043525627	-0.203115
C	 2.4852123069	-1.6884922476	-0.3220282596	 0.040053
C	 3.7107808868	-0.9609110981	 0.2464466142	-0.396157
C	 2.8782743324	-3.0621051074	-0.86812174	-0.083065
O	 3.8349402809	-2.8826217902	-1.9039047659	-0.424075
H	 0.7261455069	 2.0077763091	 0.3760493798	 0.102023
H	-0.4687630061	 1.763228285	-0.9246316066	 0.12576
H	-0.9701435269	 1.634837167	 0.7759670093	 0.104144
H	 1.4480181602	 0.1443156597	 1.5526834813	 0.064646
H	-1.1633015667	-1.4457770116	 1.8173894788	 0.121087
H	 0.0530470348	-1.2354456422	 3.095269279	 0.113567
H	-0.8649294358	 0.1565195695	 2.5154121359	 0.113879
H	 1.7290845679	-2.353703597	 1.6012979122	 0.087666
H	 0.5654752974	-2.4879732553	 0.2849087775	 0.095879
H	 2.0938141219	-1.1087239788	-1.1656741619	 0.098734
H	 4.0851545632	-1.4670870513	 1.1456715115	 0.09998
H	 4.5156875602	-0.9469475038	-0.4914827696	 0.133268
H	 3.4806594757	 0.0735017957	 0.5174131733	 0.108199
H	 3.2907049878	-3.6804950349	-0.0520308864	 0.076373
H	 1.9811783253	-3.5768747586	-1.248092977	 0.08175
H	 4.1222787901	-3.7502476894	-2.2014382728	 0.284736
36.4834	71.2054	84.3883	127.8124	146.5684	202.13	229.3507	232.4203	240.8496	258.6396	299.1698	324.5814	341.6097	421.4626	453.9327	530.8523	545.8113	801.6986	839.2574	887.6431	914.2959	933.6059	968.8886	1015.0838	1057.177	1075.0466	1119.7891	1121.7086	1150.9539	1170.3172	1176.5956	1185.2954	1215.4543	1239.9367	1266.5675	1292.035	1306.9286	1348.4682	1381.8083	1390.9827	1400.6495	1402.5559	1412.8879	1458.6527	1469.1251	1477.8326	1483.1402	1492.7177	1495.4496	1503.9563	1509.592	1513.2543	1520.9063	2949.893	2962.5349	2974.8587	2983.8215	3012.6637	3021.2722	3025.8303	3038.4804	3047.0062	3062.9655	3096.0411	3107.1486	3109.1253	3112.8629	3129.1037	3834.6523
COC(C)CC(C)CO	CO[C@@H](C)C[C@@H](C)CO	
InChI=1S/C7H16O2/c1-6(5-8)4-7(2)9-3/h6-8H,4-5H2,1-3H3	InChI=1S/C7H16O2/c1-6(5-8)4-7(2)9-3/h6-8H,4-5H2,1-3H3/t6-,7+/m1/s1
