18
gdb 34725	3.53249	1.43973	1.40881	4.2187	77.89	-0.282	0.0364	0.3184	982.2033	0.151853	-364.844465	-364.837866	-364.836922	-364.875366	27.291	
N	-0.0662079466	-1.1756229091	-0.1180500928	-0.337907
C	-0.0430295624	-0.0215982328	-0.049923493	 0.268824
C	-0.0152111151	 1.436088581	 0.0310659152	-0.150306
C	-0.4773802525	 2.0026285292	 1.3802556643	-0.056845
C	 0.75292771	 2.1214233304	 2.2578859311	-0.046056
C	 1.937644212	 1.6096781014	 1.4432100967	-0.233223
C	 1.4191108012	 2.0532533372	 0.0559396687	-0.056822
C	 1.0839894437	 3.5431521039	 0.2971636066	-0.234001
C	 0.2152445168	 3.3428092023	 1.5355385568	-0.07202
H	-0.6025622978	 1.8355835817	-0.8033488359	 0.117911
H	-1.4622910697	 1.7997569102	 1.7766735436	 0.101323
H	 0.6895957785	 2.0150796848	 3.3321281229	 0.091393
H	 2.880231656	 2.1008834869	 1.7040376516	 0.101911
H	 2.0741644237	 0.5270327162	 1.5176767698	 0.12505
H	 2.0455231438	 1.8196894587	-0.8028662544	 0.084672
H	 1.9804294107	 4.1390849477	 0.4952033506	 0.103903
H	 0.5434943898	 3.9979077866	-0.5395356454	 0.100745
H	-0.256584562	 4.1623138235	 2.0606427637	 0.091449
131.866	156.834	378.7829	413.9061	432.8652	499.8197	541.4093	663.3208	705.2712	796.3406	816.3998	823.8593	881.5028	910.5472	917.5862	922.2285	944.8168	953.3859	994.8963	1019.7257	1029.7528	1052.9269	1073.877	1083.9058	1088.2408	1150.3229	1153.1837	1198.6416	1238.1931	1258.0338	1282.7884	1284.635	1313.7813	1332.6977	1350.5889	1389.3951	1489.2971	1506.969	2353.4856	3045.2498	3051.1508	3055.8922	3090.3879	3102.5697	3140.2002	3203.5323	3209.1361	3221.5262
N#CC1C2C3CC1CC23	N#C[C@H]1[C@H]2[C@H]3C[C@@H]1C[C@@H]23	
InChI=1S/C8H9N/c9-3-7-4-1-5-6(2-4)8(5)7/h4-8H,1-2H2	InChI=1S/C8H9N/c9-3-7-4-1-5-6(2-4)8(5)7/h4-8H,1-2H2/t4-,5+,6-,7-,8+/m1/s1
