16
gdb 68563	2.53835	1.65739	1.38474	3.1088	73.03	-0.2515	-0.0153	0.2362	973.566	0.124896	-400.72669	-400.719268	-400.718323	-400.758294	29.576	
O	 0.0687457035	 1.398749239	-0.0868393263	-0.475975
C	 0.0386202632	 0.0204225906	-0.0280321489	 0.371829
C	 0.3540367419	-0.8067413414	-1.3089528101	-0.251504
C	-0.3322011166	-1.9386754612	-0.4668230496	-0.093268
C	 0.6315257245	-2.0237823746	 0.726962602	-0.07194
C	 0.8744647127	-0.745833209	 1.0181293209	-0.160796
C	-1.3222195476	-0.813781368	 0.018300642	-0.208137
C	-2.0403790291	-0.9538253138	 1.2725406963	 0.25502
N	-2.6199009764	-1.0354611232	 2.2701694418	-0.327309
H	-0.0852063128	 1.7544543776	 0.7956844417	 0.293444
H	-0.2260655284	-0.489804992	-2.1804848376	 0.109753
H	 1.4068668369	-0.943660598	-1.556646556	 0.111586
H	-0.7086230417	-2.8530311399	-0.9176064701	 0.088534
H	 0.9948018231	-2.9292168288	 1.1903341773	 0.119438
H	 1.4957573228	-0.2944143829	 1.7785844334	 0.114598
H	-2.0076005761	-0.4941276044	-0.771666927	 0.124727
124.9871	150.6409	282.7598	324.3384	356.2209	408.7545	472.638	487.1177	552.8498	608.9297	633.4813	718.0727	768.8614	822.0536	825.4557	888.4635	911.3297	916.5923	944.9238	1001.8795	1042.1516	1063.4241	1080.7947	1086.048	1148.0519	1171.4088	1221.8579	1256.376	1263.7035	1332.952	1364.2316	1371.5878	1503.4419	1634.5171	2349.4954	3063.6064	3084.0854	3144.8676	3158.0522	3225.8555	3253.0165	3803.18
OC12CC(C=C1)C2C#N	O[C@@]12C[C@@H](C=C1)[C@H]2C#N	
InChI=1S/C7H7NO/c8-4-6-5-1-2-7(6,9)3-5/h1-2,5-6,9H,3H2	InChI=1S/C7H7NO/c8-4-6-5-1-2-7(6,9)3-5/h1-2,5-6,9H,3H2/t5-,6-,7-/m1/s1
