23
gdb 118703	3.17246	1.03974	0.90849	1.9295	85.64	-0.2334	0.0837	0.3171	1405.49	0.204526	-388.224577	-388.215135	-388.214191	-388.259151	36.222	
C	-2.3419651436	 1.6058176366	-1.1902740723	-0.380051
C	-2.3944063404	 0.0776965358	-1.1116736617	-0.160537
C	-1.4618218076	-0.496042186	-0.0329394401	-0.280566
C	-1.4350084122	-2.0316019872	 0.0155573755	 0.368485
C	-0.5262019123	-2.6055736657	-1.0700758177	-0.472711
C	-1.3726680515	-2.763793676	 1.4031679242	-0.006252
C	-2.816992311	-2.3163797003	 1.7371394694	-0.237123
C	-2.7621410265	-2.8314652921	 0.2811459775	 0.010275
O	-1.9509016443	-3.9723522307	 0.769596953	-0.313534
H	-3.0189351471	 1.9893984148	-1.9599600839	 0.112426
H	-2.6294757846	 2.0625091694	-0.2365493408	 0.113473
H	-1.331688546	 1.9550048911	-1.4309088016	 0.115295
H	-3.4240933109	-0.2418646382	-0.9047329999	 0.097708
H	-2.1370973977	-0.344781697	-2.0903957089	 0.101755
H	-0.4393289758	-0.1430779774	-0.2217699836	 0.093197
H	-1.7447644452	-0.0688181521	 0.9341637315	 0.094224
H	 0.5066868017	-2.2720423256	-0.9166825865	 0.11
H	-0.5455665808	-3.694931669	-1.0597405486	 0.140301
H	-0.8323709075	-2.260365478	-2.0633414076	 0.112592
H	-0.5205584232	-2.910873105	 2.0697363681	 0.087381
H	-3.3376591422	-2.9848057882	 2.4228203598	 0.107308
H	-3.032105424	-1.266035414	 1.9326555488	 0.098155
H	-3.5807673172	-3.0623248452	-0.4028391846	 0.0882
55.9002	77.7524	134.684	208.2852	241.5105	258.8446	298.8914	369.9438	395.9776	418.7784	536.2347	647.6598	688.0116	738.5711	743.857	803.4602	861.6148	869.6889	881.572	904.0685	915.8239	963.3133	1012.0113	1017.0426	1048.7764	1057.3648	1085.2059	1117.28	1124.4893	1158.437	1170.0543	1206.3576	1212.2388	1228.1428	1259.2335	1278.5691	1314.1774	1318.8014	1349.3896	1388.7769	1400.3737	1412.8911	1476.0487	1489.4473	1491.9864	1499.6688	1504.7003	1507.3207	1519.4287	3016.2784	3025.6424	3030.0209	3034.0153	3048.353	3070.7185	3086.8107	3087.5152	3096.6997	3097.1484	3102.1219	3107.0566	3152.5444	3158.8776
CCCC1(C)C2CC1O2	CCC[C@@]1(C)[C@H]2C[C@@H]1O2	
InChI=1S/C8H14O/c1-3-4-8(2)6-5-7(8)9-6/h6-7H,3-5H2,1-2H3	InChI=1S/C8H14O/c1-3-4-8(2)6-5-7(8)9-6/h6-7H,3-5H2,1-2H3/t6-,7+,8+
