23
gdb 78026	2.38123	1.4552	1.26089	1.4169	85.73	-0.2419	0.0842	0.3261	1176.2488	0.20573	-388.29822	-388.288866	-388.287921	-388.331444	36.457	
C	-0.2374349934	 1.5590731789	 0.0338512806	-0.429289
C	-0.0013483511	 0.0606466555	 0.0621205903	-0.052167
C	 1.3069066966	-0.6513243357	-0.2302477149	-0.131249
C	 2.6207780207	 0.1073875085	-0.1277572045	 0.133664
C	 2.9782253119	 1.0508235376	-1.2677761786	-0.404627
O	 2.520854386	 0.8614620999	 1.0852778375	-0.268999
C	 1.6943841026	 0.1474244189	 1.9976171767	-0.141286
C	 0.720249362	-0.6818865439	 1.1668886134	 0.297252
C	 0.1195344023	-1.909246673	 1.8087179384	-0.487242
H	 0.6046203184	 2.1160815192	 0.445609028	 0.144307
H	-0.4063583213	 1.9067164507	-0.9916179407	 0.112466
H	-1.1328021986	 1.812085932	 0.6134610829	 0.108323
H	-0.8552034905	-0.5000276666	-0.315898518	 0.077963
H	 1.2888900674	-1.5323407006	-0.8639464748	 0.078406
H	 3.4290135258	-0.6397108096	-0.0261576318	 0.062991
H	 2.1872007709	 1.7841022647	-1.4398223124	 0.124716
H	 3.9044359215	 1.585985317	-1.0387310911	 0.122919
H	 3.1314403344	 0.4826219297	-2.1906942618	 0.112103
H	 2.2960994109	-0.5253917814	 2.6318350195	 0.087008
H	 1.2143179833	 0.8858433713	 2.6505412132	 0.10256
H	-0.5372568893	-1.6430949962	 2.6459219761	 0.118413
H	-0.4808456391	-2.4760588037	 1.0905423223	 0.116998
H	 0.8957773482	-2.5786261833	 2.1986739497	 0.114768
142.1457	186.5737	206.5642	209.9332	220.1365	243.0513	251.7758	272.096	346.5488	418.9642	472.3375	534.2318	596.2897	669.6682	728.5184	786.3919	839.8064	877.3434	940.9262	958.9082	973.2957	994.4435	1037.7864	1058.2642	1071.5742	1085.7526	1120.1389	1136.5146	1142.4262	1164.8109	1173.3814	1239.3216	1256.5047	1300.4627	1348.4322	1350.1315	1373.7095	1393.9276	1409.2995	1416.8256	1420.6325	1468.3399	1486.482	1489.8314	1497.2367	1499.3646	1505.6214	1514.1138	1522.7745	2929.3875	2961.4107	3019.1404	3029.7973	3045.2097	3050.8229	3074.7181	3080.2164	3098.9555	3110.1134	3112.6949	3132.3268	3147.4171	3159.3742
CC1C2C(C)OCC12C	C[C@H]1[C@H]2[C@@H](C)OC[C@@]12C	
InChI=1S/C8H14O/c1-5-7-6(2)9-4-8(5,7)3/h5-7H,4H2,1-3H3	InChI=1S/C8H14O/c1-5-7-6(2)9-4-8(5,7)3/h5-7H,4H2,1-3H3/t5-,6+,7-,8-/m0/s1
