23
gdb 119093	2.42215	1.14396	0.94402	2.8649	82.58	-0.2478	0.0722	0.32	1382.2317	0.20505	-425.403102	-425.393027	-425.392083	-425.438332	37.154	
C	 0.1140871399	 1.441596724	 0.2739764915	-0.229571
O	-0.0100405073	 0.0493834466	 0.0866377058	-0.248406
C	 0.7642991517	-0.4438396442	-0.9992561598	-0.130321
C	 0.5890169684	-1.9500864288	-1.1151413577	 0.283176
C	 1.0186495277	-2.6676973035	 0.1740260724	-0.101041
O	 0.1265489542	-2.4743615301	 1.2523579384	-0.431125
C	-0.7890614254	-2.4606762634	-1.6355720593	-0.246293
C	-0.0458273228	-3.3760327585	-2.6463225021	-0.210671
C	 1.2608926318	-2.5799373321	-2.374758049	-0.277716
H	 1.1519431142	 1.729987111	 0.5000969193	 0.110722
H	-0.2116808704	 1.9954853523	-0.6192676883	 0.111546
H	-0.5245497233	 1.7186598305	 1.1157304894	 0.132935
H	 0.4478719611	 0.0518044759	-1.9320494359	 0.085253
H	 1.8293434674	-0.1974602602	-0.8414130969	 0.087973
H	 1.058507893	-3.7491254616	-0.001955842	 0.096596
H	 2.0451582244	-2.3488193057	 0.4315781581	 0.073919
H	-0.0500434914	-1.5245717792	 1.2848029176	 0.28859
H	-1.4246611157	-2.9381033911	-0.887870581	 0.116378
H	-1.3632458412	-1.670819892	-2.128483797	 0.091984
H	 0.017678126	-4.4130454719	-2.3075308149	 0.107209
H	-0.4117960804	-3.3783921315	-3.6753348259	 0.096825
H	 1.4658063454	-1.8361261934	-3.1512712754	 0.094386
H	 2.1767917127	-3.1530421332	-2.2022372975	 0.097652
70.8087	98.9384	109.7308	155.3996	173.0133	226.3583	248.0115	312.966	355.8271	371.2023	422.2419	490.2195	546.282	677.3895	752.4496	792.7222	855.8671	903.8066	942.5234	957.9985	968.1422	982.3129	989.9371	1063.3735	1077.2755	1108.9045	1142.0437	1169.6987	1188.8673	1202.4246	1210.4003	1228.2639	1241.3586	1255.7019	1264.8392	1277.7344	1322.0877	1336.2524	1373.4374	1418.0376	1463.4358	1477.4739	1480.3933	1484.984	1485.5221	1499.6267	1503.6596	1511.1886	1526.6712	2935.5337	2947.2896	2980.5295	2983.6447	3029.6103	3042.8611	3050.8835	3059.0188	3066.1478	3088.4766	3110.6788	3120.3871	3125.5002	3748.2742
COCC1(CO)CCC1	COCC1(CO)CCC1	
InChI=1S/C7H14O2/c1-9-6-7(5-8)3-2-4-7/h8H,2-6H2,1H3	InChI=1S/C7H14O2/c1-9-6-7(5-8)3-2-4-7/h8H,2-6H2,1H3
