23
gdb 90041	2.83928	1.41248	1.17604	0.2178	92.03	-0.2254	0.0785	0.3039	1186.0954	0.205752	-351.047197	-351.038601	-351.037657	-351.07966	35.066	
C	-0.2182660079	 1.6296557006	-0.1734902533	-0.410277
C	-0.0158884934	 0.1219873044	-0.0550643636	-0.013915
C	 1.0156095261	-0.5845938921	-1.0497160739	-0.357155
C	 1.9061469279	-0.8286097977	 0.1856924634	 0.305099
C	 2.5822002777	-1.7265534507	 1.2620346797	-0.343766
C	 2.0417985975	-0.4164405132	 2.0189507851	 0.302484
C	 2.1745298012	-0.1252269266	 3.4929273778	-0.506934
C	 2.643750036	 0.3822991642	 0.8453850586	-0.282441
C	 0.7388497083	-0.6107853769	 1.1481835162	-0.07434
H	 0.7142322953	 2.1908048165	-0.2626341088	 0.121383
H	-0.8150006301	 1.8570501627	-1.0647775434	 0.112469
H	-0.7621916921	 2.0172613991	 0.6946132229	 0.117763
H	-1.0040076507	-0.341143047	-0.1343314958	 0.078454
H	 0.5920278408	-1.4934135763	-1.4863368495	 0.102895
H	 1.44141366	 0.028849041	-1.8500603504	 0.096394
H	 2.0758076695	-2.6667239484	 1.4984576667	 0.090609
H	 3.6712053737	-1.8486886145	 1.2456924307	 0.085221
H	 3.2262840452	-0.1284479652	 3.8018647773	 0.115248
H	 1.7569597412	 0.858571904	 3.7333015389	 0.118248
H	 1.6442659555	-0.8719411859	 4.0939076996	 0.116087
H	 3.7350862818	 0.3788430863	 0.7558941035	 0.079378
H	 2.2479689981	 1.3829606957	 0.6816143746	 0.089697
H	 0.1768329782	-1.5112194401	 1.4188659437	 0.057399
146.0157	158.0964	202.5018	229.315	265.4734	305.9104	353.2424	392.34	470.4938	526.2798	569.4771	629.42	681.6744	739.5637	780.6614	800.9627	867.5978	875.6915	914.9486	942.26	962.7101	1000.567	1007.0328	1038.1483	1064.3508	1069.8866	1077.5021	1101.4123	1134.2425	1159.9762	1164.8838	1175.2136	1198.9616	1208.5025	1228.646	1249.2323	1265.0474	1308.4097	1354.9616	1384.1282	1403.2141	1414.4094	1476.2077	1485.6842	1488.5479	1489.4473	1493.2971	1505.0713	1540.931	3023.0491	3027.1229	3029.8307	3031.6635	3043.5608	3049.8024	3056.5732	3088.2193	3090.1996	3095.1403	3102.3141	3104.0407	3117.5751	3153.0536
CC1CC23CC(C)(C2)C13	C[C@H]1C[C@@]23C[C@@](C)(C2)[C@@H]13	
InChI=1S/C9H14/c1-6-3-9-4-8(2,5-9)7(6)9/h6-7H,3-5H2,1-2H3	InChI=1S/C9H14/c1-6-3-9-4-8(2,5-9)7(6)9/h6-7H,3-5H2,1-2H3/t6-,7+,8-,9+/m0/s1
