23
gdb 63200	2.60786	1.54034	1.49518	0.1826	89.82	-0.2308	0.0227	0.2535	1071.1779	0.207417	-351.159715	-351.151468	-351.150523	-351.191553	34.558	
C	-0.0868553208	 1.5544387446	 0.0087348357	-0.421329
C	-0.005343175	 0.013081253	 0.0030343159	 0.257029
C	-1.4457521741	-0.5415522021	 0.0106414537	-0.42133
C	 0.7313756245	-0.4656818076	-1.2380742031	-0.079585
C	 1.8462179212	-1.1883473334	-1.1238353338	-0.089015
C	 2.3546976357	-1.5167461098	 0.2641543675	-0.050947
C	 1.1428006064	-2.000266716	 1.1164466201	-0.235732
C	 0.7738447718	-0.4909571093	 1.2486676335	-0.026075
C	 2.3021993303	-0.2119530487	 1.1148280806	-0.235731
H	 0.9039966717	 2.0158025775	 0.012159876	 0.116027
H	-0.6189211151	 1.9181988316	-0.8771277521	 0.108445
H	-0.6312818372	 1.9084254159	 0.8919658587	 0.107313
H	-1.9957141682	-0.2054212551	-0.8752058553	 0.108444
H	-1.4625555768	-1.6344157381	 0.0154988401	 0.116026
H	-1.9903806893	-0.1878528528	 0.893862643	 0.107313
H	 0.3159741871	-0.1972482372	-2.2069110584	 0.07858
H	 2.3910645105	-1.542366208	-1.9939269347	 0.083796
H	 3.2701921791	-2.1102842039	 0.2580560831	 0.054631
H	 0.4335581512	-2.6811769848	 0.6414864869	 0.093725
H	 1.4598286704	-2.4116806976	 2.0789209605	 0.091303
H	 0.2742297544	-0.1662160862	 2.166420228	 0.052085
H	 2.8079715312	-0.3322379491	 2.0770396134	 0.091302
H	 2.6339581609	 0.7128276571	 0.6384171105	 0.093725
160.8224	217.8018	222.0514	251.0593	339.1637	349.3991	372.4598	410.5901	434.6609	486.4028	590.4716	637.5262	707.7527	750.0259	818.6109	847.1826	888.8951	900.8816	915.006	935.4527	942.3306	966.9764	977.8299	990.4774	1030.6982	1048.4656	1083.7833	1097.8915	1108.7051	1130.9531	1178.1638	1182.5303	1216.5137	1245.1865	1262.4483	1265.5769	1283.6619	1326.6311	1348.9685	1391.6306	1393.4868	1422.0995	1472.2707	1482.6879	1488.9833	1495.9995	1505.3133	1513.5487	1695.7351	3023.3411	3028.2133	3048.9859	3052.2114	3064.2951	3086.0473	3091.5134	3092.8619	3107.9878	3110.7869	3116.6684	3117.6314	3143.8288	3175.4047
CC1(C)C=CC2CC1C2	CC1(C)C=C[C@@H]2C[C@H]1C2	
InChI=1S/C9H14/c1-9(2)4-3-7-5-8(9)6-7/h3-4,7-8H,5-6H2,1-2H3	InChI=1S/C9H14/c1-9(2)4-3-7-5-8(9)6-7/h3-4,7-8H,5-6H2,1-2H3/t7-,8+
