21
gdb 68789	2.31717	1.44714	1.31747	1.2072	78.83	-0.2424	0.0699	0.3123	1120.3251	0.179705	-424.203185	-424.193423	-424.192478	-424.23668	38.117	
C	 0.0784489074	 1.5491283433	 0.0396050864	-0.512276
C	-0.023474919	 0.0509055742	 0.0835853425	 0.291359
C	 1.1259932047	-0.8457191471	-0.3432809297	-0.398138
C	 0.5780066535	-0.9630180553	 1.0495928419	 0.35562
O	 1.3238460333	-0.6792183323	 2.1822305493	-0.467708
C	-0.6965041491	-1.807678665	 1.0437917858	-0.362624
C	-1.3242684482	-0.7724235459	 0.0325862218	 0.348034
C	-2.5497728782	-0.0560671799	 0.5882373946	-0.457709
O	-1.5770218598	-1.2580331244	-1.2779693986	-0.47833
H	 1.0761294214	 1.8718182913	 0.3527492322	 0.124216
H	-0.0938653454	 1.9316201214	-0.9730816457	 0.123951
H	-0.6454062804	 2.0291397563	 0.7064927625	 0.116141
H	 0.9733850084	-1.6269720825	-1.0818625385	 0.116288
H	 2.0779482499	-0.3267806973	-0.407673055	 0.104877
H	 2.0303499726	-1.3304501064	 2.2506742561	 0.284612
H	-0.6045740027	-2.835398506	 0.6758895855	 0.084085
H	-1.2071561415	-1.8060290283	 2.0102059059	 0.099974
H	-2.3510616349	 0.3733418917	 1.5745913555	 0.12539
H	-2.8648245829	 0.7464164165	-0.0856562236	 0.12449
H	-3.3839961241	-0.760574424	 0.6964080587	 0.103555
H	-2.372113065	-1.8008372103	-1.2456457376	 0.274193
115.2667	166.4194	181.4418	230.614	259.6754	263.5076	284.521	308.8061	361.4032	377.3562	406.7545	449.7505	478.379	547.114	594.6935	662.462	738.1251	788.0658	838.0498	921.6477	922.7363	954.1911	970.329	992.0486	1043.4869	1067.1324	1090.4416	1112.4804	1158.2532	1179.9461	1227.2626	1229.697	1249.9781	1293.5464	1323.0058	1379.9127	1405.0971	1410.3898	1424.539	1471.2563	1485.3496	1487.4909	1498.0761	1502.7009	1516.3367	3023.3419	3028.2311	3037.3085	3087.4701	3091.6172	3102.45	3103.3178	3116.2328	3116.6625	3206.0005	3796.3056	3802.7689
CC12CC1(O)CC2(C)O	C[C@@]12C[C@]1(O)C[C@]2(C)O	
InChI=1S/C7H12O2/c1-5-3-7(5,9)4-6(5,2)8/h8-9H,3-4H2,1-2H3	InChI=1S/C7H12O2/c1-5-3-7(5,9)4-6(5,2)8/h8-9H,3-4H2,1-2H3/t5-,6-,7-/m0/s1
