19
gdb 89590	4.44222	0.99871	0.95824	0.7562	71.08	-0.2476	0.0731	0.3206	1265.0081	0.159415	-460.146112	-460.137821	-460.136877	-460.179523	31.476	
O	 0.8000104698	 0.5520370378	-0.8139111488	-0.4336
C	 0.0434109038	-0.2767790542	 0.0286661571	 0.176853
C	 0.1095010921	-0.0822652995	 1.568076349	-0.335198
C	-1.4114862894	-0.3861989864	 1.6229571428	 0.422252
C	-1.4995025162	-0.0975033378	 0.1057477234	-0.345143
C	-1.8133586748	-1.7936997596	 2.0873955329	-0.167956
O	-2.1672221009	-1.5944501332	 3.4469514253	-0.236206
C	-2.8108498743	-0.3469702817	 3.4541533791	 0.011732
O	-2.1774254763	 0.45879731	 2.4751562792	-0.304061
H	 0.6108585657	 1.4670533396	-0.5799780644	 0.277658
H	 0.3087610821	-1.2989503084	-0.2567970556	 0.092824
H	 0.7890177283	-0.7060577551	 2.153769231	 0.105799
H	 0.2799235086	 0.969678323	 1.8199152041	 0.103995
H	-1.77955591	 0.9480953869	-0.0573342401	 0.108594
H	-2.135576657	-0.7387897715	-0.5103186611	 0.101331
H	-2.6741282358	-2.1635527235	 1.5065947546	 0.095422
H	-1.0071645758	-2.5285671859	 2.0419907109	 0.122312
H	-3.8825600176	-0.4523721844	 3.2068130097	 0.086273
H	-2.6973101723	 0.1029875942	 4.4458950807	 0.117117
59.5387	80.4927	212.1066	278.494	289.6057	333.5111	348.1865	421.6496	474.7277	486.7872	679.9698	741.5804	784.2308	815.1445	872.8715	913.4536	953.0887	982.1882	1001.2808	1026.5641	1034.4058	1066.6406	1101.2744	1117.0589	1148.1549	1168.4335	1187.4292	1203.5948	1215.373	1250.0945	1264.6186	1276.4265	1308.33	1335.4157	1366.8246	1433.118	1439.2495	1460.0809	1488.1744	1508.625	1548.5049	2940.0274	2973.9101	3048.9465	3055.3129	3068.2197	3070.126	3108.0759	3110.5753	3116.1273	3806.6649
OC1CC2(C1)COCO2	O[C@H]1C[C@@]2(C1)COCO2	
InChI=1S/C6H10O3/c7-5-1-6(2-5)3-8-4-9-6/h5,7H,1-4H2	InChI=1S/C6H10O3/c7-5-1-6(2-5)3-8-4-9-6/h5,7H,1-4H2/t5-,6+
