21
gdb 60580	3.64608	0.96686	0.86099	2.5921	79.54	-0.2326	0.0547	0.2873	1408.2778	0.182008	-420.335232	-420.325533	-420.324589	-420.3701	35.662	
C	 2.488587828	-0.7884605083	 0.0412111134	-0.324082
N	 1.1200477813	-1.1344317947	 0.4011489948	-0.092884
C	 0.9360366664	-2.126935551	 1.4512173311	-0.255308
C	 0.5538266719	-0.7058665188	 1.6877903478	-0.018706
C	 1.304251677	 0.1523048296	 2.6880644135	 0.066871
O	 1.2557828934	 1.528025986	 2.3131890329	-0.448977
C	 0.6786497442	 0.0326669268	 4.06803741	 0.024387
C	 0.8036714379	 1.1261010896	 5.0583614742	-0.251298
N	-0.4960154914	 0.8454217818	 4.4132157783	-0.324736
H	 3.2144279193	-0.8338079334	 0.8676660385	 0.108884
H	 2.8263110852	-1.4828323007	-0.7344323342	 0.131688
H	 2.515054266	 0.2202484799	-0.3873568063	 0.115329
H	 0.1765067207	-2.8838558445	 1.2758103539	 0.121335
H	 1.827084255	-2.4894449355	 1.9650565141	 0.106874
H	-0.5002981713	-0.4405317994	 1.6159027013	 0.10478
H	 2.3503589917	-0.1834705301	 2.7580825732	 0.075069
H	 1.4113042813	 1.5863376297	 1.3662356423	 0.293499
H	 0.6295602593	-0.9938831962	 4.4251264493	 0.091522
H	 0.8505244163	 0.8913127633	 6.1179702816	 0.112171
H	 1.3393911159	 2.0195861706	 4.7548281255	 0.12622
H	-0.6228551778	 1.5309526453	 3.6703399249	 0.237364
64.9115	82.5185	124.772	197.1932	215.2038	226.2238	261.4715	282.7383	373.5537	400.7528	439.6383	539.454	647.7362	751.5855	800.5904	849.6939	867.6408	908.411	942.7345	991.3458	1006.9634	1035.7025	1073.4926	1078.2556	1113.622	1124.8637	1129.0568	1149.9493	1161.3288	1183.3969	1197.6036	1205.2549	1245.9616	1281.9259	1308.9009	1319.3315	1331.4348	1381.9964	1416.9965	1442.7925	1451.1034	1487.8071	1501.832	1504.084	1511.8662	2973.347	2991.4162	3058.6383	3082.5188	3094.4611	3116.4559	3116.9414	3130.5212	3174.9842	3209.1824	3488.613	3841.404
CN1CC1C(O)C1CN1	CN1C[C@H]1[C@@H](O)[C@H]1CN1	
InChI=1S/C6H12N2O/c1-8-3-5(8)6(9)4-2-7-4/h4-7,9H,2-3H2,1H3	InChI=1S/C6H12N2O/c1-8-3-5(8)6(9)4-2-7-4/h4-7,9H,2-3H2,1H3/t4-,5+,6+,8?/m1/s1
