20
gdb 126767	2.46263	1.33733	0.93244	1.9497	84.06	-0.1905	0.0363	0.2268	1308.7311	0.171732	-399.364643	-399.354978	-399.354034	-399.399544	35.407	
C	 0.2025834759	 1.57435659	-0.0221111227	-0.372691
C	 0.0200506529	 0.0595890686	 0.1014102894	-0.140235
N	 0.6447754668	-0.4869028319	 1.2895822002	-0.019302
N	 2.0025810116	-0.6188062389	 1.3084246579	-0.353924
C	 2.2812080338	-1.0604387432	 2.5299682513	 0.381673
N	 3.6040671353	-1.25330176	 2.9352824817	-0.591324
C	 1.1095794717	-1.2222394696	 3.3059845934	-0.394778
C	 0.0756189427	-0.8398377193	 2.4710867603	 0.395953
C	-1.3964954303	-0.7914132276	 2.726693536	-0.507839
H	 1.2667176509	 1.8222491121	-0.0212928601	 0.147032
H	-0.2418450338	 1.9364955015	-0.954573841	 0.113619
H	-0.2728400546	 2.0982282782	 0.8128638706	 0.120057
H	-1.0410415989	-0.2031227592	 0.1286035929	 0.113119
H	 0.4634703234	-0.4443637619	-0.7628037367	 0.126083
H	 4.2285738551	-1.2941993478	 2.1396033969	 0.245828
H	 3.7248830558	-2.0711881133	 3.5175057218	 0.241626
H	 1.0255496894	-1.5624228481	 4.3258972877	 0.08925
H	-1.8030536539	 0.2209327904	 2.6206490243	 0.134442
H	-1.9560786527	-1.4422262153	 2.0445443839	 0.134324
H	-1.6027161811	-1.1256848447	 3.7456042122	 0.137087
43.4675	103.1544	125.7483	196.5909	213.0558	255.651	279.0591	308.6904	329.2659	421.4077	500.9436	604.2529	635.144	646.9648	683.5711	744.1045	775.6522	787.6472	820.9542	970.6041	991.6454	1029.7541	1060.4722	1076.9401	1099.6223	1142.5956	1176.8086	1215.073	1281.6485	1342.3975	1391.4109	1405.1395	1415.1705	1446.2672	1476.5119	1483.035	1487.8788	1489.3942	1507.2396	1526.6287	1534.7311	1603.9139	1647.6624	3026.8734	3041.5914	3056.536	3075.4177	3098.3284	3113.9547	3126.388	3134.4045	3255.4769	3539.7216	3635.1712
CCN1N=C(N)C=C1C	CCn1nc(N)cc1C	
InChI=1S/C6H11N3/c1-3-9-5(2)4-6(7)8-9/h4H,3H2,1-2H3,(H2,7,8)	InChI=1S/C6H11N3/c1-3-9-5(2)4-6(7)8-9/h4H,3H2,1-2H3,(H2,7,8)
