19
gdb 126221	3.04833	1.19332	0.90929	3.7378	80.16	-0.2068	0.0069	0.2137	1324.7826	0.15861	-419.216138	-419.206408	-419.205463	-419.251148	34.905	
C	 0.2212075597	 1.5939474283	-0.2416358099	-0.370201
C	-0.1118923465	 0.1319112846	 0.1018484577	-0.303982
C	 0.537945261	-0.3436674853	 1.3563454109	 0.4008
C	 0.0693178502	-0.8949296107	 2.5123856619	-0.056939
N	-1.2333535409	-1.2768870098	 2.8778657541	-0.611257
C	 1.2471776805	-1.1183820118	 3.2926282929	 0.377744
C	 1.3342334863	-1.7135714233	 4.6593837292	-0.503456
N	 2.3241648331	-0.7270213712	 2.653708606	-0.215548
O	 1.8893667926	-0.2480127987	 1.4270103917	-0.232225
H	 1.3001753604	 1.7266180341	-0.3520689149	 0.143433
H	-0.2597212651	 1.8879529348	-1.1790600834	 0.114362
H	-0.1211142312	 2.2701683359	 0.5474832115	 0.120551
H	-1.1963627468	 0.0096504197	 0.207104626	 0.101431
H	 0.1861871578	-0.5144697856	-0.7342130055	 0.128015
H	-1.9354075956	-0.9189797084	 2.2422477763	 0.24217
H	-1.4716732642	-0.9838729906	 3.818347018	 0.246019
H	 0.8654789149	-2.7032144217	 4.6824093259	 0.14199
H	 2.3789846575	-1.8086022063	 4.9608672505	 0.15093
H	 0.8187110665	-1.091239604	 5.4008529512	 0.126162
44.4015	111.999	134.4827	172.6599	192.7287	235.1983	239.5416	288.5008	346.5614	383.4941	508.9219	568.3725	648.7032	702.8497	718.5948	750.1496	787.9245	791.1696	951.4518	967.8036	1009.8544	1033.488	1066.4756	1068.3135	1090.8945	1220.7355	1223.8304	1290.1236	1306.7277	1361.3196	1408.149	1413.0193	1468.2077	1475.5965	1481.098	1496.4922	1501.5632	1511.5701	1548.7216	1647.0388	1701.8415	3020.2838	3030.917	3044.7284	3058.1065	3084.7743	3114.7486	3129.3486	3138.9056	3520.2006	3609.0875
CCC1=C(N)C(C)=NO1	CCc1c(N)c(C)no1	
InChI=1S/C6H10N2O/c1-3-5-6(7)4(2)8-9-5/h3,7H2,1-2H3	InChI=1S/C6H10N2O/c1-3-5-6(7)4(2)8-9-5/h3,7H2,1-2H3
