19
gdb 111548	2.67767	1.46194	1.13969	0.7932	73.86	-0.2192	0.0679	0.2871	1131.889	0.158178	-422.952685	-422.944348	-422.943403	-422.985591	32.375	
C	 0.0137928876	 1.5770344791	-0.1571296268	-0.381139
C	 0.0349012689	 0.0567927987	 0.0361143108	-0.21425
C	-1.3557144578	-0.56388232	 0.0509601392	-0.043513
C	-2.1350468408	-0.7408284256	-1.2899982505	 0.047162
O	-1.2189355681	-1.4909823823	-2.1456743911	-0.290065
C	-1.480059301	-2.6022011913	-1.2890927675	 0.008331
C	-2.7640901446	-2.0705758191	-0.7363365772	-0.195808
C	-1.5434494461	-2.0827848965	 0.1660882883	 0.308934
O	-1.3667735599	-2.8891786339	 1.269193399	-0.457435
H	 1.0262583052	 1.9920886119	-0.1572870137	 0.112891
H	-0.4538001511	 1.8483739519	-1.1098132272	 0.118689
H	-0.5494302357	 2.0725300221	 0.6417541527	 0.112135
H	 0.6161382216	-0.413028164	-0.7644212825	 0.11216
H	 0.5393459534	-0.1848930614	 0.9812426745	 0.089108
H	-2.0125940799	-0.0714630104	 0.7780351363	 0.076908
H	-2.6370358607	 0.0779458903	-1.799919981	 0.087197
H	-1.1642758699	-3.5960053603	-1.5794397241	 0.110376
H	-3.7673957137	-2.459811409	-0.6406157664	 0.106929
H	-0.4408746374	-3.1529834902	 1.3105940971	 0.29139
75.1766	155.0833	183.03	249.4824	274.1539	280.8696	342.5491	424.6223	557.7012	562.0842	644.3088	740.1417	761.4556	803.2686	820.7586	839.1416	877.2762	916.7754	940.1693	944.4175	972.3969	1021.5936	1032.1722	1079.3443	1101.2114	1125.1863	1142.6462	1152.7426	1194.3446	1210.4812	1272.2803	1288.9533	1305.6109	1313.4301	1339.8089	1399.6111	1413.8464	1444.0098	1485.7161	1500.9488	1504.8071	3019.6194	3030.3342	3043.0138	3072.5575	3099.2054	3103.4379	3149.4394	3203.2217	3222.2951	3795.256
CCC1C2OC3C2C13O	CC[C@H]1[C@H]2O[C@@H]3[C@H]2[C@]13O	
InChI=1S/C7H10O2/c1-2-3-5-4-6(9-5)7(3,4)8/h3-6,8H,2H2,1H3	InChI=1S/C7H10O2/c1-2-3-5-4-6(9-5)7(3,4)8/h3-6,8H,2H2,1H3/t3-,4-,5+,6+,7+/m0/s1
