17
gdb 46127	3.08427	1.14188	0.91612	3.9963	74.12	-0.2472	0.0386	0.2859	1255.0211	0.137243	-418.026422	-418.017985	-418.017041	-418.059879	31.723	
O	 0.2444420478	 0.0395028701	 0.1230429553	-0.404796
C	 0.1183743669	 1.2399451596	 0.0552281287	 0.427765
N	-1.0097723318	 1.9803871655	 0.3997608339	-0.339078
C	-0.8835490052	 3.3567556104	-0.0509247543	-0.187302
C	 0.6548499611	 3.5239432684	-0.0982976569	 0.023533
C	 1.2264558595	 4.0693333753	 1.2358205228	-0.357335
C	 2.6826687372	 4.0444192228	 1.2561008704	 0.276765
C	 3.8837021052	 3.9957996147	 1.2274869203	-0.427719
N	 1.0678000927	 2.1593928397	-0.3802127133	-0.333286
H	-1.8948608112	 1.5004705004	 0.3632429096	 0.253838
H	-1.3157786466	 3.5158304485	-1.0486365032	 0.111213
H	-1.3516054853	 4.0610491378	 0.6439458491	 0.11482
H	 0.9542691164	 4.1964345107	-0.9073282756	 0.100301
H	 0.8673820954	 5.0959369859	 1.3827553873	 0.131822
H	 0.8284446591	 3.468682341	 2.0630404096	 0.148686
H	 4.9453335726	 3.9658704009	 1.2263956914	 0.202602
H	 2.0391711861	 1.9015011583	-0.290449495	 0.258171
64.4788	126.0522	133.8252	198.493	316.0357	350.6538	395.7937	476.7086	528.534	535.3452	568.3364	628.5937	654.5446	709.2095	758.275	770.4411	847.8567	936.0428	961.3573	972.2178	1006.6007	1064.697	1102.6952	1127.5247	1211.799	1233.9746	1255.5139	1275.5387	1323.2857	1366.3531	1391.7489	1422.8363	1439.4147	1468.5165	1524.5901	1855.1702	2236.4141	3002.495	3023.6163	3054.6715	3069.5913	3073.5436	3504.6697	3629.2021	3645.5165
O=C1NCC(CC#C)N1	O=C1NC[C@@H](CC#C)N1	
InChI=1S/C6H8N2O/c1-2-3-5-4-7-6(9)8-5/h1,5H,3-4H2,(H2,7,8,9)	InChI=1S/C6H8N2O/c1-2-3-5-4-7-6(9)8-5/h1,5H,3-4H2,(H2,7,8,9)/t5-/m1/s1
