17
gdb 8305	6.43496	0.90035	0.84851	4.1759	65.95	-0.2482	0.036	0.2842	1317.8594	0.141642	-401.016029	-401.007508	-401.006564	-401.049805	30.255	
O	-0.045166579	 1.4626536651	 0.0504143526	-0.416179
C	 0.0159631042	 0.0532573853	-0.0867774427	-0.074052
C	-1.3821830484	-0.4986684583	 0.164632874	-0.181773
C	-1.4521506462	-2.017070586	 0.0792828942	 0.054676
C	-2.8697167584	-2.6639246143	 0.092784183	-0.409484
C	-2.5063555023	-3.2345887602	-1.3002798288	 0.431074
O	-3.0266686746	-3.9560088402	-2.1067613603	-0.356193
N	-1.2899299193	-2.5925557315	-1.2686072314	-0.327208
H	 0.8293411434	 1.8226735669	-0.123477562	 0.288171
H	 0.3528161048	-0.2347015486	-1.0965471602	 0.082965
H	 0.7253704311	-0.3897423789	 0.6324188326	 0.085266
H	-1.7069003806	-0.1812084369	 1.1627850723	 0.113966
H	-2.0750640517	-0.0562509752	-0.5600585757	 0.112584
H	-0.772036901	-2.4737070173	 0.8100505307	 0.083548
H	-3.0366811761	-3.4258341568	 0.8558052282	 0.132196
H	-3.7014186121	-1.9566835123	 0.0887997126	 0.132465
H	-0.4903524038	-2.6688054606	-1.880239099	 0.247979
57.9837	97.6933	107.7479	170.0071	266.7702	327.9847	355.8871	381.7193	483.5187	519.7604	564.3942	729.8232	807.5968	837.072	927.2142	942.9857	999.0623	1034.5765	1075.5784	1078.6333	1094.3946	1157.1132	1186.2425	1198.8945	1226.1335	1242.9914	1280.6047	1317.2707	1334.4533	1384.127	1405.3927	1460.2824	1465.6761	1482.494	1526.7974	1897.9622	2954.1112	2979.9874	3018.5494	3037.5323	3086.2021	3086.466	3145.3289	3607.3518	3831.3198
OCCC1CC(=O)N1	OCC[C@H]1CC(=O)N1	
InChI=1S/C5H9NO2/c7-2-1-4-3-5(8)6-4/h4,7H,1-3H2,(H,6,8)	InChI=1S/C5H9NO2/c7-2-1-4-3-5(8)6-4/h4,7H,1-3H2,(H,6,8)/t4-/m0/s1
