17
gdb 131525	3.08844	1.61777	1.17249	1.3632	74.44	-0.2413	0.014	0.2553	1031.9446	0.139679	-418.034232	-418.026877	-418.025933	-418.066265	28.119	
O	-0.2906559205	 1.4931810167	-0.2145879263	-0.426079
C	 0.0546266413	 0.1286743464	 0.0049376175	-0.005754
C	-1.1846582939	-0.8159942438	 0.1519377887	-0.246931
C	-1.3545835023	-1.5434267554	-1.205556899	-0.181366
N	-0.0283665052	-1.3829773166	-1.7787077503	 0.060308
N	 0.5081536375	-1.9318612374	-2.8721571589	-0.29425
C	 1.7197410539	-1.3636205864	-2.9404112721	 0.009999
C	 1.9467992274	-0.4462894023	-1.890633742	-0.390702
C	 0.7771474292	-0.4913364421	-1.1527555854	 0.357561
H	-0.5006224271	 1.599920898	-1.1486041798	 0.282539
H	 0.6422170108	 0.1354547061	 0.9265450355	 0.104456
H	-0.9884475058	-1.5502937793	 0.9381205372	 0.120752
H	-2.0648973036	-0.2387032782	 0.4385609907	 0.123304
H	-1.605342495	-2.6013541327	-1.1005273301	 0.136385
H	-2.1080217283	-1.0791015389	-1.8517291174	 0.126854
H	 2.3903307594	-1.6397046003	-3.7413946115	 0.112228
H	 2.8287254918	 0.1429270165	-1.7007434867	 0.110695
91.0224	150.228	191.8235	252.4224	335.5872	430.7139	468.699	631.5532	664.952	687.5422	735.1379	791.1316	800.0436	815.9214	889.7185	925.7605	953.6955	993.7024	1021.4334	1053.2629	1086.9163	1125.9233	1196.0329	1205.9109	1223.0945	1269.3987	1273.5024	1320.8427	1328.5636	1343.4006	1359.6484	1424.1188	1442.3698	1478.0612	1490.6847	1531.0609	1574.5052	3043.9862	3066.4485	3082.429	3103.4506	3132.2698	3241.9739	3274.3099	3808.85
OC1CCN2N=CC=C12	O[C@H]1CCn2nccc12	
InChI=1S/C6H8N2O/c9-6-2-4-8-5(6)1-3-7-8/h1,3,6,9H,2,4H2	InChI=1S/C6H8N2O/c9-6-2-4-8-5(6)1-3-7-8/h1,3,6,9H,2,4H2/t6-/m0/s1
