16
gdb 31205	2.25079	1.73606	0.98621	2.0275	80.92	-0.1849	0.0306	0.2155	1146.6543	0.123716	-400.7437	-400.734884	-400.73394	-400.777754	32.53	
C	-0.3952148798	 0.3558857914	 0.5907868894	-0.251727
O	 0.0976332879	 0.6756103087	-0.7067429552	-0.272959
C	 0.6252668271	-0.3229422491	-1.4358716022	 0.309809
C	 0.8381380706	-1.6863471096	-1.2483960857	 0.046188
C	 1.4608379947	-2.1527250151	-2.464899502	-0.243963
C	 1.5969446996	-1.0939886255	-3.3122263409	-0.083626
N	 1.0822925153	 0.0202297159	-2.6721313071	-0.313041
C	 0.5330550584	-2.4957650541	-0.1314806394	 0.170566
C	 0.2982610082	-3.2397193088	 0.7888804873	-0.449138
H	-1.2019193956	-0.3809498068	 0.5352959945	 0.144027
H	 0.4014580095	-0.0373359665	 1.2290766457	 0.144145
H	-0.7737372377	 1.29307706	 1.0014171594	 0.129729
H	 1.7598377863	-3.1717632665	-2.6506581585	 0.103707
H	 2.0074162203	-1.0201344763	-4.3050979424	 0.123788
H	 1.0365656029	 0.9566466761	-3.0345928763	 0.267229
H	 0.0884210623	-3.8872292738	 1.6028088434	 0.175265
30.4682	152.8008	165.4027	186.5919	245.9738	287.1004	422.9503	443.9638	451.6723	499.6226	517.9598	626.743	629.2179	655.6981	659.4974	697.5665	721.23	824.0121	908.3733	1048.7484	1092.1338	1097.8433	1171.7447	1178.5412	1226.5159	1278.4804	1299.6171	1394.4484	1472.3047	1486.0517	1497.359	1518.4712	1549.988	1617.4583	2218.8929	3039.2339	3113.4175	3143.4691	3260.7474	3283.662	3505.2299	3684.0163
COC1=C(C=CN1)C#C	COc1c(cc[nH]1)C#C	
InChI=1S/C7H7NO/c1-3-6-4-5-8-7(6)9-2/h1,4-5,8H,2H3	InChI=1S/C7H7NO/c1-3-6-4-5-8-7(6)9-2/h1,4-5,8H,2H3
