21
gdb 83639	2.17573	1.65122	1.35661	0.4333	77.42	-0.232	0.0728	0.3049	1081.5359	0.181192	-424.194451	-424.185337	-424.184393	-424.22787	35.267	
C	-0.6090367905	 1.3782466482	 0.0977525528	-0.428224
C	-0.052218386	-0.030788199	-0.0499062953	-0.006076
C	 0.7659761897	-0.4118425006	-1.3205290522	-0.105618
C	 1.7820593468	 0.6219900515	-1.8341301387	-0.085754
O	 2.789174702	 0.1802398583	-0.8910094429	-0.288889
C	 1.9381300732	-0.8823069748	-0.4164429724	 0.058153
C	 1.1283181204	-0.5192061758	 0.8669377863	 0.357332
C	 1.7814262147	 0.4635809744	 1.8232853796	-0.454066
O	 0.6729600627	-1.6864371578	 1.541211421	-0.474895
H	 0.1652993195	 2.1476353059	 0.0215710264	 0.119792
H	-1.3549124778	 1.5813022522	-0.6787458239	 0.115699
H	-1.1016396871	 1.5020529175	 1.0677114739	 0.122686
H	-0.861523681	-0.7544659937	 0.0791920603	 0.093531
H	 0.2698593518	-1.0331032272	-2.064501573	 0.07663
H	 2.110491016	 0.4498355514	-2.8670118448	 0.101632
H	 1.5362460536	 1.6838514272	-1.7156358805	 0.100954
H	 2.4196236472	-1.8649400854	-0.4401495022	 0.066242
H	 2.1751712924	 1.332948376	 1.2936705341	 0.134376
H	 1.0660126928	 0.793652737	 2.5824913012	 0.119419
H	 2.6274090551	-0.01175058	 2.3361602765	 0.103911
H	 1.4121180448	-2.0389992351	 2.0503018438	 0.273164
62.4392	200.2799	209.1243	217.3623	235.8503	267.5116	300.5378	330.9204	373.4047	441.5953	473.9188	531.7458	607.4542	727.7797	779.7419	846.5919	868.7253	901.3637	947.0168	955.7907	1002.981	1012.0607	1017.9337	1034.082	1088.2022	1118.8546	1150.7866	1157.7886	1184.2732	1189.8235	1197.8031	1235.2568	1256.0104	1294.6536	1318.654	1339.8566	1364.5825	1377.9486	1404.4454	1413.9111	1480.9724	1487.5427	1498.9119	1501.9343	1524.4094	3012.4613	3025.7569	3033.8897	3055.3081	3059.7385	3069.6579	3092.3573	3096.6511	3108.2053	3120.3402	3137.1547	3789.5781
CC1C2COC2C1(C)O	C[C@H]1[C@H]2CO[C@H]2[C@]1(C)O	
InChI=1S/C7H12O2/c1-4-5-3-9-6(5)7(4,2)8/h4-6,8H,3H2,1-2H3	InChI=1S/C7H12O2/c1-4-5-3-9-6(5)7(4,2)8/h4-6,8H,3H2,1-2H3/t4-,5+,6+,7+/m0/s1
