23
gdb 111543	2.53615	1.44633	1.11549	0.2791	89.03	-0.2366	0.0886	0.3252	1221.5434	0.206199	-351.116477	-351.107663	-351.106719	-351.149703	34.847	
C	 0.005102613	 1.5656053221	-0.2123931705	-0.377384
C	 0.0349317264	 0.0622446589	 0.0856499534	-0.21497
C	-1.3467636574	-0.5845073077	 0.0227592297	-0.009278
C	-2.1395849112	-0.6967993181	-1.3183708873	-0.081436
C	-1.2234541718	-1.5137246486	-2.2702029215	-0.239398
C	-1.4347583695	-2.6731109531	-1.3003530344	-0.107162
C	-2.7237331715	-2.0680704523	-0.7860353116	-0.137482
C	-1.5248329439	-2.1039753447	 0.1312371597	 0.339503
C	-1.2970561846	-2.9610947116	 1.3416223825	-0.512036
H	 1.0026716323	 2.009223326	-0.1358246244	 0.109356
H	-0.3689668749	 1.762258369	-1.2230827446	 0.11697
H	-0.6495682063	 2.0948143132	 0.4893211444	 0.111784
H	 0.7200445815	-0.4390027725	-0.6074708955	 0.096759
H	 0.4515712627	-0.1025625076	 1.0884438726	 0.091624
H	-2.0023058798	-0.10979095	 0.7660775545	 0.059253
H	-2.7198549731	 0.1447156311	-1.6919692408	 0.063283
H	-1.7240072634	-1.7076442867	-3.2236015093	 0.095061
H	-0.2099073245	-1.1450921871	-2.4650232834	 0.085844
H	-1.2165352471	-3.7227827339	-1.4558501941	 0.076905
H	-3.7240291507	-2.4651922264	-0.6875812683	 0.082941
H	-1.6693114632	-3.9791332706	 1.1820089839	 0.116415
H	-0.2312700269	-3.0365440953	 1.5880745406	 0.118659
H	-1.8131651861	-2.5542443342	 2.2191727746	 0.114791
78.1771	148.6886	187.9926	210.9406	239.3553	258.8367	309.0636	386.4829	492.4513	544.5641	595.948	697.1661	760.2408	786.1176	812.9535	829.8068	852.3339	886.5462	917.8562	935.1742	959.4797	983.2293	999.9507	1026.987	1041.8771	1070.7124	1087.9147	1107.8824	1115.0168	1147.2	1150.3039	1171.9705	1204.7491	1235.4051	1262.1219	1273.9204	1287.7735	1316.2246	1343.2931	1389.4215	1410.2679	1413.7652	1436.074	1484.5707	1487.739	1499.0424	1500.0537	1504.3203	1518.5289	3007.7854	3017.9022	3021.164	3029.1519	3032.7579	3063.3485	3077.1969	3086.2912	3087.6465	3096.4422	3100.9657	3130.3501	3184.3359	3215.0527
CCC1C2CC3C2C13C	CC[C@H]1[C@H]2C[C@@H]3[C@H]2[C@]13C	
InChI=1S/C9H14/c1-3-6-5-4-7-8(5)9(6,7)2/h5-8H,3-4H2,1-2H3	InChI=1S/C9H14/c1-3-6-5-4-7-8(5)9(6,7)2/h5-8H,3-4H2,1-2H3/t5-,6+,7-,8+,9-/m1/s1
