17
gdb 45984	2.85551	1.33516	0.98482	2.6845	76.35	-0.2478	-0.0624	0.1854	1168.5961	0.136454	-421.873872	-421.865804	-421.86486	-421.907448	29.94	
O	-0.380195454	-0.109690016	-0.0559344064	-0.300393
C	-0.0967707115	 1.0648212234	-0.0272495909	 0.380954
C	-1.1529059011	 2.1459440054	-0.1389467315	-0.312084
C	-1.5413315398	 2.6570967092	 1.2625261585	-0.312534
C	-0.5561525274	 3.5961852218	 1.9474482915	 0.363149
O	-0.9805167218	 4.4655573607	 2.6852074726	-0.317775
C	 0.9143762249	 3.4866027283	 1.7673666983	-0.147896
C	 1.6759893256	 2.6575831951	 1.0402087503	-0.046172
C	 1.3494437094	 1.5103157245	 0.1281772806	-0.361097
H	-0.7977344048	 2.9788320492	-0.7565688896	 0.114964
H	-2.0289632115	 1.7010056846	-0.6157567725	 0.132821
H	-2.4904682595	 3.19643579	 1.2212380284	 0.137444
H	-1.7028884194	 1.7979441227	 1.9278094741	 0.143851
H	 1.422990431	 4.2466019135	 2.3550607208	 0.112434
H	 2.7501712779	 2.8263024643	 1.1100117364	 0.118312
H	 1.9378616481	 0.6313205876	 0.4155948518	 0.146478
H	 1.7061229839	 1.7797503357	-0.8801682024	 0.147543
45.4932	75.0185	172.577	297.1458	320.8383	341.2154	430.2945	471.8708	517.4509	588.5974	638.9777	658.0294	738.653	815.0664	835.7926	910.3842	917.1772	953.5155	1006.247	1040.8453	1054.5936	1127.5335	1184.8002	1203.9786	1211.0354	1264.1275	1299.0867	1343.0067	1355.3959	1362.4101	1423.7589	1433.7399	1463.0021	1480.1544	1696.8585	1754.5206	1815.4292	2985.8317	3029.1611	3045.9792	3065.189	3105.2409	3115.962	3130.5162	3169.7412
O=C1CCC(=O)C=CC1	O=C1CCC(=O)C=CC1	
InChI=1S/C7H8O2/c8-6-2-1-3-7(9)5-4-6/h1-2H,3-5H2	InChI=1S/C7H8O2/c8-6-2-1-3-7(9)5-4-6/h1-2H,3-5H2
