18
gdb 69252	2.85247	1.56103	1.19684	2.3743	73.78	-0.2583	0.0135	0.2718	1064.0556	0.148385	-439.088043	-439.080081	-439.079136	-439.120467	30.879	
C	-0.0259417965	 1.4699784116	-0.1132203206	-0.452701
C	-0.0298650433	-0.0299343944	 0.0269115767	 0.400188
C	-0.8035003131	-0.7348710854	 1.0941567342	-0.326404
C	 0.7266671943	-0.7360681807	 1.1317378385	-0.167397
C	 1.4748135885	-1.9821808358	 0.8173650035	 0.388098
N	 2.1133615305	-2.6205664325	 1.7029999391	-0.5254
O	 1.4035257205	-2.4090224043	-0.4860844523	-0.244401
C	 1.1715068834	-1.3778163367	-1.4437835058	-0.012011
O	-0.0257360782	-0.7077200992	-1.2169722123	-0.270648
H	 0.8756457035	 1.8143674104	-0.6306387998	 0.12425
H	-0.8964628315	 1.7971190793	-0.6905151805	 0.134345
H	-0.0621829199	 1.951722255	 0.8679699726	 0.123217
H	-1.3072995005	-0.14992553	 1.8551172252	 0.122248
H	-1.2983153128	-1.6549612846	 0.8074455808	 0.136952
H	 1.1857900048	-0.1382790253	 1.9092326698	 0.120595
H	 2.5657126044	-3.4366983067	 1.2853278785	 0.220921
H	 2.0276048621	-0.6855734076	-1.4329287172	 0.099105
H	 1.0944237338	-1.8748674831	-2.4114151203	 0.129043
85.4519	147.2467	222.4276	258.0811	319.1656	346.9573	410.8669	433.1117	496.6698	550.3107	667.2639	701.8853	756.4646	791.4769	858.3289	907.927	920.485	931.0719	955.5293	1018.3838	1026.9271	1065.8617	1098.6284	1112.493	1127.6408	1146.1651	1195.8373	1239.3842	1274.4273	1304.7112	1345.8859	1396.8316	1424.4678	1453.3579	1478.179	1480.113	1499.391	1517.6945	1754.8952	2983.8308	3036.1648	3103.6377	3117.514	3130.7222	3143.5163	3193.1796	3239.3548	3463.4461
CC12CC1C(=N)OCO2	C[C@]12C[C@H]1[C]([NH])OCO2	
InChI=1S/C6H9NO2/c1-6-2-4(6)5(7)8-3-9-6/h4,7H,2-3H2,1H3	InChI=1S/C6H9NO2/c1-6-2-4(6)5(7)8-3-9-6/h4,7H,2-3H2,1H3/t4-,6-/m0/s1
