19
gdb 69838	3.16313	1.53139	1.27243	0.4838	74.29	-0.2329	0.0734	0.3063	1029.025	0.160479	-422.992803	-422.985292	-422.984348	-423.024148	31.164	
O	-0.1215653669	 1.3877184148	 0.2167304917	-0.466757
C	-0.0200510034	 0.0101094214	-0.0065002676	 0.371025
C	-0.4127788363	-0.5748375056	-1.3364944286	-0.369648
C	-1.3032796715	-0.7608701535	-0.1152283414	-0.076643
C	-1.4078587901	-2.0511202447	 0.6578960567	-0.056017
C	-0.9758047288	-3.3951764232	 0.1095505153	-0.319149
C	-0.1107351134	-2.6743106509	 1.1035742095	 0.094093
O	 1.0616679377	-2.0858894604	 0.6088613447	-0.255163
C	 1.0877004623	-0.6733838749	 0.7812918125	-0.145701
H	 0.5976252009	 1.8202987044	-0.2577866457	 0.282513
H	-0.7774791417	 0.1136463652	-2.0906318137	 0.11078
H	 0.1568159281	-1.4170027948	-1.7122589586	 0.124934
H	-2.2035768809	-0.1561278195	-0.1209140506	 0.097358
H	-2.2229797337	-2.0668373832	 1.3742178447	 0.090227
H	-1.513260126	-4.2771599001	 0.4400338136	 0.111397
H	-0.613810919	-3.4393835326	-0.9112342739	 0.123033
H	-0.0152058914	-3.065174727	 2.1156607285	 0.086324
H	 2.0752150482	-0.348629145	 0.433403311	 0.098947
H	 0.9923419158	-0.3973016103	 1.8429531818	 0.098446
184.0399	206.2967	285.9449	302.151	360.3602	375.709	424.0644	461.8169	491.9405	532.7168	676.0001	716.8188	775.4992	802.7001	830.3839	901.6825	921.4461	944.1846	960.9577	1001.4659	1038.4869	1049.4921	1063.9719	1071.6374	1092.0827	1112.4883	1122.8247	1137.5811	1175.0784	1219.7024	1241.0887	1283.2517	1297.0068	1342.3875	1362.8655	1386.3176	1402.538	1420.1211	1479.4758	1487.5197	1502.6728	2988.0963	3058.876	3106.9063	3136.6788	3139.422	3153.2873	3171.8088	3227.4416	3230.4426	3784.5772
OC12CC1C1CC1OC2	O[C@]12C[C@H]1[C@H]1C[C@H]1OC2	
InChI=1S/C7H10O2/c8-7-2-5(7)4-1-6(4)9-3-7/h4-6,8H,1-3H2	InChI=1S/C7H10O2/c8-7-2-5(7)4-1-6(4)9-3-7/h4-6,8H,1-3H2/t4-,5+,6-,7+/m1/s1
