20
gdb 100817	3.1839	0.85978	0.77196	6.2925	76.67	-0.2743	0.0374	0.3117	1530.0325	0.168327	-440.292869	-440.282214	-440.28127	-440.329194	37.447	
C	 0.1031517874	 1.3372209011	-0.2118397047	-0.239322
O	 0.0101968321	-0.0438796898	 0.0642291829	-0.269959
C	-1.3042947632	-0.596061365	 0.0374077956	 0.108685
C	-1.8668805842	-0.7067881557	-1.3790097394	-0.413461
C	-1.1483737814	-1.9795336534	 0.6954738507	 0.13412
O	-0.1850717352	-2.7499546705	 0.0112561432	-0.428476
C	-0.7895130344	-1.8310234727	 2.1938267384	-0.368972
C	-0.6388013582	-3.117677579	 2.8657246955	 0.268003
N	-0.534582086	-4.1322315056	 3.4084426356	-0.307582
H	 1.1420372198	 1.6278919908	-0.0390323618	 0.135404
H	-0.1581758714	 1.5763309445	-1.2511525995	 0.119081
H	-0.5457761685	 1.9240476639	 0.4553023818	 0.11136
H	-1.9721381545	 0.0268965685	 0.6556354322	 0.068853
H	-1.9166456867	 0.268633301	-1.8694075751	 0.118856
H	-1.2440308732	-1.3762188254	-1.9769180857	 0.14114
H	-2.8825297932	-1.1135231024	-1.348411213	 0.123948
H	-2.0946327646	-2.52380978	 0.6108841474	 0.104586
H	 0.5818281234	-2.1753912683	-0.1128998535	 0.293625
H	 0.1424838607	-1.2630595017	 2.2783605494	 0.157106
H	-1.5670983087	-1.2560224001	 2.7105950301	 0.143006
60.9744	67.1537	93.3395	129.0317	190.7824	215.7986	219.372	269.763	321.3253	348.1553	397.5472	410.0445	462.7069	491.7778	563.4485	690.1338	817.4715	867.0965	931.0705	946.1374	1011.9073	1033.008	1068.3587	1121.5702	1136.8192	1163.3082	1181.3961	1197.6815	1215.1012	1281.6098	1320.8155	1349.5318	1370.7165	1388.6524	1407.5436	1436.7687	1465.8556	1478.6008	1483.522	1493.6369	1504.4031	1512.4313	2365.7043	2966.8744	2990.1809	3044.8529	3045.2034	3051.3342	3065.248	3096.2002	3116.4034	3118.7638	3137.4592	3772.6012
COC(C)C(O)CC#N	CO[C@@H](C)[C@@H](O)CC#N	
InChI=1S/C6H11NO2/c1-5(9-2)6(8)3-4-7/h5-6,8H,3H2,1-2H3	InChI=1S/C6H11NO2/c1-5(9-2)6(8)3-4-7/h5-6,8H,3H2,1-2H3/t5-,6-/m0/s1
