14
gdb 44035	3.26161	1.7585	1.53275	2.7344	66.22	-0.2323	-0.0579	0.1744	861.7238	0.099405	-436.50554	-436.498942	-436.497997	-436.536576	26.16	
O	 0.0076927797	 0.0511723536	-0.4316131199	-0.255167
C	-0.0022263235	 1.1898304212	-0.0945072045	 0.342831
C	-1.1199808194	 2.1812529436	 0.4071618087	-0.447369
C	 0.0050066363	 3.1429045264	 0.8236491156	 0.320346
O	 0.6609234848	 2.9489801369	 2.1207883741	-0.338582
C	 1.7709769004	 3.0930283181	 1.2017601461	 0.050219
C	 1.0600966539	 4.1666491855	 0.2785275426	-0.124225
N	 1.3715093727	 3.3986232639	-0.9733356532	-0.364184
C	 1.0697651826	 2.3258177714	 0.0438860271	 0.063973
H	-1.7524482271	 2.5335928069	-0.4133844011	 0.152179
H	-1.7589705765	 1.8183714933	 1.2147771482	 0.165387
H	 2.789863325	 3.062609557	 1.5916783505	 0.115633
H	 1.0944270978	 5.2575424343	 0.3339481642	 0.10069
H	 0.5955759932	 3.4909394081	-1.6358362985	 0.218267
82.7301	247.3348	314.6898	374.3009	442.545	469.0137	571.1309	602.8681	694.5451	701.4617	766.1008	808.1863	842.1705	887.4748	925.8684	933.4274	964.4273	1002.6198	1024.8619	1060.5605	1101.0566	1117.4479	1149.485	1177.5349	1191.4032	1232.2785	1263.5198	1284.3564	1302.2724	1406.1273	1895.4986	3068.0355	3086.7326	3111.4597	3133.3838	3396.8461
O=C1CC23OC4C2NC134	O=C1C[C@]23O[C@@H]4[C@H]2N[C@]134	
InChI=1S/C6H5NO2/c8-2-1-5-3-4(9-5)6(2,5)7-3/h3-4,7H,1H2	InChI=1S/C6H5NO2/c8-2-1-5-3-4(9-5)6(2,5)7-3/h3-4,7H,1H2/t3-,4-,5+,6+/m1/s1
