17
gdb 35318	4.40191	1.01953	0.92145	1.8767	81.31	-0.2504	0.0006	0.2511	1267.9387	0.135095	-384.643995	-384.635915	-384.634971	-384.676966	31.149	
C	 0.0164859596	-1.2436860537	 0.1102934135	-0.462851
C	 0.0124424223	-0.0434603271	 0.0440420271	 0.319284
C	 0.0158787673	 1.4137303209	-0.0315127096	-0.216907
C	-0.7109790601	 2.1200894669	 1.1574025301	-0.326888
C	 0.1791697403	 3.3148923997	 1.5052838992	 0.429681
C	-0.3220615193	 4.6595043636	 1.8363598529	-0.250382
O	 0.1723940208	 3.7912197638	 2.8572125275	-0.28072
C	 1.4821716653	 3.0661862202	 0.835444108	-0.15123
C	 1.410809744	 2.0279507798	 0.0065207971	-0.077209
H	 0.0193124901	-2.3038812781	 0.1696729965	 0.197286
H	-0.4674701405	 1.7017777302	-0.9766041288	 0.116323
H	-1.7362734608	 2.4010171205	 0.9094209161	 0.113022
H	-0.7441791829	 1.450730186	 2.0206793099	 0.138892
H	 0.2902093817	 5.5372869611	 1.6294452332	 0.112359
H	-1.3969804944	 4.839668186	 1.8515670458	 0.113734
H	 2.3507383371	 3.687911156	 1.0165346389	 0.110593
H	 2.2123697294	 1.6442157442	-0.6125751473	 0.115012
50.113	135.204	183.4165	281.3937	339.8841	342.9646	442.1575	471.8321	536.7369	589.1337	621.9425	640.7155	689.4659	781.4666	817.0032	832.5873	858.7567	913.4395	944.6472	972.1843	1012.9309	1035.5029	1057.1323	1121.5727	1129.4702	1162.276	1181.9124	1243.7432	1262.7976	1280.4643	1322.354	1346.2917	1424.9565	1483.2431	1526.9283	1680.2405	2236.7237	2992.4957	3071.5823	3073.8812	3122.938	3157.7451	3199.6433	3223.6131	3504.3617
C#CC1CC2(CO2)C=C1	C#C[C@H]1C[C@]2(CO2)C=C1	
InChI=1S/C8H8O/c1-2-7-3-4-8(5-7)6-9-8/h1,3-4,7H,5-6H2	InChI=1S/C8H8O/c1-2-7-3-4-8(5-7)6-9-8/h1,3-4,7H,5-6H2/t7-,8+/m1/s1
