19
gdb 113477	2.71881	1.49557	1.20079	2.7255	75.33	-0.2358	0.0667	0.3024	1089.7598	0.159043	-422.956837	-422.948762	-422.947817	-422.989484	31.76	
O	 0.1873128581	 0.1985904792	 1.0323726736	-0.425537
C	-0.299069536	 0.1600928898	-0.2996552533	-0.083067
C	-1.6498337083	-0.5334644807	-0.3948458679	-0.114809
C	-1.8641045896	-1.6470312104	-1.4213464753	-0.39198
C	-1.6980627659	-1.9634190975	 0.0231609387	 0.477229
O	-0.5009965388	-2.6152762644	 0.524107102	-0.331956
C	-1.3169726035	-3.3882001621	 1.421484467	 0.102282
C	-2.0487652753	-2.5075338236	 2.3848181087	-0.309417
C	-2.5907213138	-2.7110247445	 0.9802058609	-0.22163
H	 0.3405254573	-0.7258451807	 1.2686546561	 0.289539
H	-0.3807099439	 1.1994886236	-0.632616739	 0.109212
H	 0.4191729514	-0.3400792488	-0.9661295459	 0.091943
H	-2.5105757781	 0.0747071699	-0.1305237277	 0.095839
H	-2.8465161593	-1.7699551466	-1.8659405274	 0.117955
H	-1.0339857984	-1.8816649894	-2.0804748519	 0.126386
H	-1.0448995917	-4.4251645291	 1.5737541939	 0.11259
H	-2.596372021	-3.0246853521	 3.1665931206	 0.117627
H	-1.6234072947	-1.5477803609	 2.6651137721	 0.130909
H	-3.5676579486	-3.1169905416	 0.757344165	 0.106885
96.0492	119.2821	184.016	197.9179	324.7515	393.4947	446.5689	501.9875	512.479	566.2028	637.5462	759.2508	794.5704	808.6155	856.0113	903.3602	909.6611	937.8846	964.6941	977.4884	1006.554	1040.016	1048.7259	1053.5875	1063.7376	1073.3166	1090.728	1094.3453	1136.469	1168.4255	1189.3732	1240.9313	1273.5276	1314.2478	1344.8011	1392.14	1426.1844	1446.4271	1468.2202	1493.2605	1506.8983	2993.2963	3076.9429	3117.7189	3123.8714	3146.9994	3191.7895	3207.3772	3212.4793	3216.6659	3760.9448
OCC1CC11OC2CC12	OC[C@H]1C[C@]21O[C@H]1C[C@@H]21	
InChI=1S/C7H10O2/c8-3-4-2-7(4)5-1-6(5)9-7/h4-6,8H,1-3H2	InChI=1S/C7H10O2/c8-3-4-2-7(4)5-1-6(5)9-7/h4-6,8H,1-3H2/t4-,5-,6+,7-/m1/s1
