19
gdb 106939	3.68971	1.0909	0.98298	3.3164	75.93	-0.2341	-0.0084	0.2257	1234.0862	0.15949	-423.044679	-423.036136	-423.035192	-423.07802	32.466	
O	-0.0454295063	 1.3475962876	 0.4685140064	-0.420538
C	-0.0064889405	 0.0239177567	-0.0492822268	-0.176937
C	-1.4084205604	-0.5193365992	-0.0344540213	 0.364682
C	-1.9392743287	-1.1717163881	 1.1984937695	-0.321222
C	-1.6715873411	-2.0204317034	-0.0428779579	-0.210117
C	-2.8533138814	-2.2644854175	-0.9252385623	 0.425311
O	-3.1806701227	-3.3244495861	-1.3984363673	-0.332557
C	-3.5410783049	-0.9132170651	-1.1843115926	-0.352045
C	-2.4538375156	 0.1515260871	-0.9339048701	-0.272602
H	 0.8240873611	 1.7416677307	 0.351314503	 0.289704
H	 0.3799476306	 0.0158206387	-1.0813818692	 0.089902
H	 0.6501723258	-0.6236675469	 0.5538116801	 0.085624
H	-1.2493699989	-1.3233237482	 2.0213834765	 0.124929
H	-2.9652679337	-0.9976454032	 1.5053014722	 0.120616
H	-0.8904531766	-2.7698098354	-0.0075209178	 0.101757
H	-3.9574177282	-0.8955097825	-2.1930400361	 0.129757
H	-4.3866567831	-0.813730486	-0.4932075235	 0.129962
H	-2.8409187556	 1.0705111497	-0.4864582527	 0.117952
H	-1.97786545	 0.4302545011	-1.8809637202	 0.105823
76.7558	112.1856	151.0917	230.4974	254.3522	347.0917	365.1381	385.213	471.5656	529.9069	605.1571	650.3116	712.9326	776.2935	816.8931	906.0198	913.2379	942.03	951.1442	998.9641	1031.7216	1040.1972	1063.4475	1068.61	1077.1892	1161.3993	1181.8248	1214.7862	1228.353	1241.4452	1254.4224	1284.8118	1312.7207	1346.1847	1400.2828	1460.7545	1470.2708	1487.9185	1503.8158	1519.6131	1833.307	2962.5024	2992.9457	3042.7123	3045.8328	3095.2236	3119.0276	3131.3608	3193.0292	3216.7472	3828.6431
OCC12CC1C(=O)CC2	OC[C@]12C[C@H]1C(=O)CC2	
InChI=1S/C7H10O2/c8-4-7-2-1-6(9)5(7)3-7/h5,8H,1-4H2	InChI=1S/C7H10O2/c8-4-7-2-1-6(9)5(7)3-7/h5,8H,1-4H2/t5-,7-/m0/s1
