15
gdb 130039	3.3044	1.66945	1.11754	2.795	73.82	-0.2187	-0.0066	0.2122	1013.0279	0.11742	-413.019723	-413.012882	-413.011938	-413.050664	27.276	
N	 0.0386391681	 1.338518187	 0.1241582099	-0.576222
C	 0.0122215773	-0.0276035985	 0.0380633903	 0.297605
N	-1.0685384295	-0.7369405836	 0.0149341683	-0.329365
C	-0.7073064358	-2.1695079861	-0.0058144724	-0.293139
C	 0.7965849767	-2.1945820849	-0.0118366224	 0.206652
C	 1.9635285288	-2.9178605589	-0.0355405236	-0.219907
N	 2.9700432251	-1.9869697582	-0.0206399446	-0.185378
N	 2.5405465823	-0.7049147871	 0.0133757398	-0.353581
C	 1.2223224923	-0.8558841224	 0.0188386184	 0.274119
H	 0.8705886838	 1.7948388714	-0.2142648664	 0.263425
H	-0.8293502278	 1.8024376431	-0.0969193606	 0.25687
H	-1.141917674	-2.6714629786	 0.8680223907	 0.123133
H	-1.1505440998	-2.6450238048	-0.8897925253	 0.121767
H	 2.1873219482	-3.9726331582	-0.0615431041	 0.139126
H	 3.9609113744	-2.1644513004	-0.0304675182	 0.274894
194.9644	229.808	262.638	295.5167	417.8354	493.8508	507.6947	532.5	617.9564	634.8442	651.9846	677.1554	778.4405	788.5126	796.9839	960.1696	980.0542	980.2285	1056.6616	1100.9132	1154.7459	1180.9009	1182.5957	1268.3852	1296.6463	1375.578	1448.1889	1468.9468	1476.7792	1526.2277	1612.2644	1627.7041	1681.8026	3025.3651	3048.5902	3259.5677	3583.584	3664.1615	3700.7248
NC1=NCC2=CNN=C12	NC1=NCc2c[nH]nc12	
InChI=1S/C5H6N4/c6-5-4-3(1-7-5)2-8-9-4/h2H,1H2,(H2,6,7)(H,8,9)	InChI=1S/C5H6N4/c6-5-4-3(1-7-5)2-8-9-4/h2H,1H2,(H2,6,7)(H,8,9)
