18
gdb 74500	3.57325	1.17519	0.99496	1.2616	86.42	-0.2239	0.0073	0.2312	1230.8042	0.147032	-364.769947	-364.761547	-364.760603	-364.80257	32.848	
C	 0.0891108899	 1.5095273125	 0.0789101008	-0.487235
C	-0.0144612507	 0.0202452802	 0.0002354779	 0.314601
C	-0.130404204	-0.7255317797	-1.1030673778	-0.254743
C	-0.1164074379	-2.1867474812	-0.7809204075	 0.203745
N	 1.1784084406	-2.6032197991	-0.1327448219	-0.374867
C	 0.0227999664	-2.2685459404	 0.7127070504	-0.108261
C	 0.0404766267	-0.844997466	 1.2514270165	-0.307928
C	-0.8436700169	-3.1408880102	-1.5601930561	 0.191382
C	-1.44120384	-3.9353474103	-2.2384841643	-0.409756
H	 1.0517622669	 1.8164295622	 0.507011508	 0.131286
H	-0.0051314526	 1.9718674967	-0.9070919813	 0.1268
H	-0.6891622301	 1.9270161106	 0.7306168254	 0.124476
H	-0.1897388454	-0.3548154953	-2.1188010458	 0.09861
H	 1.2439586257	-3.6190443955	-0.1943619967	 0.232839
H	-0.462763936	-3.059965388	 1.2727494322	 0.10041
H	 0.9455766779	-0.649654256	 1.8396101438	 0.120711
H	-0.8174579835	-0.6517516687	 1.9092433001	 0.107796
H	-1.9754704368	-4.6361109919	-2.8307196437	 0.190134
116.285	142.2354	181.7512	193.9858	313.6394	351.8188	416.0219	477.7218	486.7382	515.0183	575.1008	587.3798	637.3521	659.1813	743.9396	795.4382	860.2776	881.6982	905.7383	936.7002	985.1243	1012.5959	1041.7291	1073.7128	1079.1444	1156.6864	1165.7123	1196.6469	1251.7108	1285.1814	1339.6391	1346.6883	1407.5475	1414.5432	1464.3454	1478.9427	1487.4172	1706.1838	2234.3129	3016.3917	3021.0101	3057.0142	3064.462	3114.0536	3174.9245	3210.3705	3472.1649	3503.3955
CC1=CC2(NC2C1)C#C	CC1=C[C@]2(N[C@H]2C1)C#C	
InChI=1S/C8H9N/c1-3-8-5-6(2)4-7(8)9-8/h1,5,7,9H,4H2,2H3	InChI=1S/C8H9N/c1-3-8-5-6(2)4-7(8)9-8/h1,5,7,9H,4H2,2H3/t7-,8+/m0/s1
