19
gdb 31521	3.11188	1.08276	0.85796	2.2814	80.34	-0.1858	0.0471	0.233	1394.0185	0.158578	-419.260166	-419.250218	-419.249274	-419.295904	35.341	
C	 0.1502123711	 1.3197375573	-0.6009690778	-0.371993
C	-0.0966251608	 0.1359490759	 0.3513908351	-0.290984
C	-1.4785840746	-0.4265892053	 0.2679728018	 0.327223
N	-2.4151573453	-0.3258165579	 1.1789491899	-0.345036
C	-3.5385389246	-0.9699991912	 0.6797913863	 0.142196
C	-4.8147085083	-1.0632088864	 1.4504974034	-0.498847
C	-3.2455855738	-1.4611218827	-0.5642030068	 0.296988
O	-3.9270494094	-2.1628598037	-1.5062321841	-0.43962
N	-1.9427583795	-1.1184886213	-0.8292211916	-0.337946
H	 1.1699053405	 1.7012937059	-0.4900440545	 0.115293
H	 0.0163112148	 1.0286640876	-1.6484757129	 0.106654
H	-0.5469041647	 2.1360893455	-0.3911469454	 0.131982
H	 0.6443841789	-0.6506220652	 0.1540499392	 0.101285
H	 0.0467599203	 0.4540727411	 1.3871668772	 0.132557
H	-5.2225305338	-0.0712936604	 1.6756803312	 0.134433
H	-5.583641453	-1.6139974679	 0.8953994174	 0.089204
H	-4.6702223956	-1.5788050257	 2.4065588623	 0.134887
H	-4.8159323487	-2.3254448297	-1.1753436844	 0.306705
H	-1.4435665136	-1.3521366861	-1.6709897963	 0.265017
32.545	72.4069	119.0033	194.6841	196.9898	239.2025	254.3356	274.0543	312.3887	416.9368	468.9459	501.7097	602.9766	646.6408	679.8469	728.2865	786.2081	798.6462	962.2553	987.4887	1023.764	1060.0211	1071.9699	1090.8365	1140.5886	1214.7726	1238.9558	1288.0332	1310.2761	1352.3624	1407.5281	1419.7647	1447.1193	1467.8617	1475.5197	1496.6491	1498.7353	1503.8213	1521.1288	1582.5255	1667.9532	3016.1763	3019.3039	3034.4332	3079.1384	3080.6725	3091.146	3109.4784	3117.7769	3664.8243	3838.9511
CCC1=NC(C)=C(O)N1	CCc1nc(C)c(O)[nH]1	
InChI=1S/C6H10N2O/c1-3-5-7-4(2)6(9)8-5/h9H,3H2,1-2H3,(H,7,8)	InChI=1S/C6H10N2O/c1-3-5-7-4(2)6(9)8-5/h9H,3H2,1-2H3,(H,7,8)
