14
gdb 20951	7.81782	1.16858	1.02975	4.2179	61.95	-0.2426	-0.0227	0.2199	1093.1478	0.105657	-415.833772	-415.826059	-415.825114	-415.866566	26.66	
C	-0.0053657134	 1.4949733448	 0.0339946656	-0.39251
C	-0.0124423141	-0.0184903377	-0.0225205158	-0.062894
O	 0.6861584472	-0.4953786681	 1.1535313749	-0.263267
C	 0.7990255274	-1.8016968038	 1.3054274303	 0.506912
C	 1.4133361612	-2.4881424723	 2.3297341065	-0.247007
N	 1.2650900233	-3.8083353459	 2.0364314795	-0.070273
N	 0.6474965965	-4.0201024211	 0.9800076891	-0.034346
O	 0.2962691029	-2.6350822097	 0.4257228966	-0.252218
H	 1.0179903137	 1.8794873637	 0.0355900142	 0.138454
H	-0.525109221	 1.8964885631	-0.84046091	 0.13209
H	-0.5129878314	 1.8532124773	 0.9334883229	 0.138455
H	-1.0289081544	-0.4245671663	-0.0155312105	 0.133852
H	 0.4991300616	-0.3982203065	-0.9125983753	 0.133852
H	 1.9212089306	-2.1262216376	 3.204697042	 0.1389
58.6097	92.8521	140.2079	250.0957	292.9713	307.0293	368.278	512.5491	667.5247	742.1515	742.18	755.2471	813.7519	904.2312	950.2263	1034.9806	1073.1602	1130.5995	1147.2345	1179.1194	1295.6105	1323.7998	1391.5174	1411.208	1420.4598	1484.5262	1492.9862	1497.7313	1518.0491	1617.9329	3049.2542	3051.5302	3092.8358	3128.0276	3133.1678	3306.5465
CCOC1=CN=NO1	CCOc1cnno1	
InChI=1S/C4H6N2O2/c1-2-7-4-3-5-6-8-4/h3H,2H2,1H3	InChI=1S/C4H6N2O2/c1-2-7-4-3-5-6-8-4/h3H,2H2,1H3
