16
gdb 75667	2.93165	1.35797	1.12238	3.3089	77.88	-0.2359	-0.0034	0.2325	1105.9911	0.122524	-400.706258	-400.69767	-400.696725	-400.739464	31.778	
C	 0.2434611522	 1.3639397611	-0.0020252932	-0.353954
N	-0.2164344311	-0.0079736607	 0.0138046037	-0.142827
C	-0.0804384315	-0.9708499627	-0.985897075	 0.428629
O	-0.0283445455	-0.8748405405	-2.1806516687	-0.361631
C	 0.0301265245	-2.0970879007	 0.0421661249	-0.292672
C	 1.2045540066	-1.7659743285	 0.9507046389	-0.316508
C	-0.0862106467	-0.9939271623	 1.0977537877	 0.18901
C	-0.88282586	-0.9323432065	 2.2743614642	 0.232368
C	-1.5357270126	-0.8572739839	 3.2816517899	-0.405697
H	 1.2722801291	 1.4625507883	 0.3706605432	 0.121767
H	 0.2093060251	 1.7105718116	-1.0374801423	 0.160246
H	-0.4118050619	 1.9964988741	 0.6035945326	 0.139689
H	-0.4552239834	-3.0618829183	 0.0278930472	 0.132813
H	 1.4128489378	-2.5003881255	 1.7228548375	 0.13995
H	 2.0785410367	-1.2631317368	 0.5471403247	 0.131253
H	-2.1238979094	-0.7968635487	 4.1638646547	 0.197564
105.9934	120.893	144.5298	169.522	233.4601	270.5114	412.7059	449.2285	496.7808	538.0469	586.6812	623.7973	680.8417	706.5211	737.7183	786.9856	884.8443	918.561	945.4742	965.778	1016.0634	1053.0595	1098.6201	1150.7798	1161.1142	1222.5625	1243.1514	1349.2627	1361.5514	1442.6501	1480.3883	1482.4824	1512.9151	1889.06	2240.1166	3009.1174	3086.3637	3120.8291	3133.7063	3213.1697	3235.1144	3500.7205
CN1C(=O)C2CC12C#C	CN1C(=O)[C@H]2C[C@@]12C#C	
InChI=1S/C7H7NO/c1-3-7-4-5(7)6(9)8(7)2/h1,5H,4H2,2H3	InChI=1S/C7H7NO/c1-3-7-4-5(7)6(9)8(7)2/h1,5H,4H2,2H3/t5-,7-/m1/s1
