17
gdb 42832	2.63169	1.81371	1.63333	3.1553	71.49	-0.2359	-0.0005	0.2354	903.9791	0.139394	-417.973925	-417.967246	-417.966302	-418.004787	27.335	
O	 0.082781192	 0.0122250203	-0.1990876595	-0.324127
C	 0.0227809846	 1.1773968663	 0.0535936843	 0.445571
C	-1.1009842463	 2.2355711092	 0.0525587415	-0.134337
C	-1.3757873754	 2.8191950775	 1.4449778113	-0.198808
C	-0.0694937042	 3.1548083355	 2.1518027441	-0.028106
N	 0.7995762943	 2.0163831466	 2.4988756212	-0.332368
C	 1.1987773481	 2.9281001009	 1.4086498529	-0.003225
C	 1.0165414319	 2.360547239	 0.012493215	-0.159171
N	-0.1036672737	 3.1402210379	-0.6464685414	-0.319154
H	-2.0169613242	 2.0135846862	-0.4995251373	 0.088075
H	-1.961070552	 3.7364023179	 1.3189080854	 0.112502
H	-1.9695181702	 2.116696489	 2.040559653	 0.117913
H	-0.1044713527	 3.9876474978	 2.8487702553	 0.09121
H	 1.3252909459	 2.2141196126	 3.3456868278	 0.234424
H	 2.033685455	 3.6041750747	 1.5673982971	 0.091274
H	 1.9401882108	 2.2591285869	-0.5597914252	 0.086411
H	-0.1080755939	 2.9049494316	-1.6378201955	 0.231917
142.9034	199.4279	311.472	388.5232	433.9085	476.9139	510.558	554.5508	709.2867	775.31	788.7545	819.7702	852.7085	867.6331	880.6889	906.3876	965.293	982.6103	999.9849	1040.4903	1069.3474	1076.1202	1113.0174	1127.4259	1153.5642	1170.1319	1213.0632	1236.6316	1262.7811	1279.2495	1336.614	1347.3762	1377.9633	1396.8812	1447.5906	1467.4164	1893.8115	3039.9635	3085.5805	3094.356	3103.9369	3141.1496	3154.4605	3478.8398	3512.2744
O=C1C2CC3NC3C1N2	O=C1[C@H]2C[C@H]3N[C@H]3[C@@H]1N2	
InChI=1S/C6H8N2O/c9-6-3-1-2-4(7-2)5(6)8-3/h2-5,7-8H,1H2	InChI=1S/C6H8N2O/c9-6-3-1-2-4(7-2)5(6)8-3/h2-5,7-8H,1H2/t2-,3-,4-,5+/m1/s1
