14
gdb 44557	3.63477	1.58262	1.50883	5.8127	60.12	-0.2615	0.0514	0.3129	878.2914	0.102731	-473.823126	-473.816781	-473.815837	-473.85396	24.988	
O	 0.0308939836	 0.0055812781	 0.1844403707	-0.37826
C	-0.0201151676	 1.1936424459	 0.0656970182	 0.479642
N	-1.1479774842	 1.9885853175	-0.0508209166	-0.345081
C	-0.8445356993	 3.3861799331	 0.0239680355	-0.082968
C	-0.753176555	 4.0671434485	 1.4187206187	 0.000398
O	-0.0252043212	 3.1804880704	 2.2605952741	-0.215782
C	 0.7269934056	 4.0220213854	 1.3893198921	-0.001975
C	 0.7186350674	 3.3533300518	-0.0011724991	 0.063477
O	 1.0995731962	 1.9932238572	-0.0440511324	-0.236129
H	-2.0288086658	 1.5858617041	 0.2232304443	 0.264753
H	-1.3331587414	 3.9927499213	-0.7419468138	 0.101212
H	-1.4307863736	 4.7709309662	 1.8875483229	 0.120523
H	 1.4726642758	 4.6685988922	 1.8356881997	 0.121015
H	 1.2155885995	 3.9161190283	-0.7920895643	 0.109174
116.5684	191.7123	318.1919	426.8674	435.6481	541.2782	637.8996	686.7378	726.4868	768.9692	783.2888	842.8642	883.6212	895.7026	908.5195	926.0841	952.1224	1018.0643	1038.6999	1095.9562	1118.4317	1186.948	1194.5673	1229.8518	1236.551	1281.1832	1342.2445	1371.0249	1383.5703	1402.0655	1904.3638	3082.4319	3113.0049	3187.3053	3202.7768	3661.9369
O=C1NC2C3OC3C2O1	O=C1N[C@H]2[C@H]3O[C@H]3[C@H]2O1	
InChI=1S/C5H5NO3/c7-5-6-1-2-4(8-2)3(1)9-5/h1-4H,(H,6,7)	InChI=1S/C5H5NO3/c7-5-6-1-2-4(8-2)3(1)9-5/h1-4H,(H,6,7)/t1-,2+,3-,4+/m0/s1
