14
gdb 6243	4.47732	1.23937	0.9766	5.2364	68.71	-0.2458	-0.0435	0.2022	1132.3333	0.104885	-378.718797	-378.709985	-378.709041	-378.753316	30.278	
C	 0.0876301576	 1.4926926467	-0.1541950861	-0.506656
C	 0.0832448806	 0.013484768	 0.2108036004	 0.410158
O	 0.0892842599	-0.3937274945	 1.3433416086	-0.293793
N	 0.0711273551	-0.8081698967	-0.9219239633	-0.362392
C	 0.0634377908	-2.2056194564	-0.9969847567	 0.250494
N	 0.0669766464	-2.9624465149	 0.0287706442	-0.466492
C	 0.0511677638	-2.6771302614	-2.3613551114	 0.258108
C	 0.0409037414	-3.0921295881	-3.4906302562	-0.438747
H	 0.9682295827	 1.7461117441	-0.7542137111	 0.141196
H	-0.8018403882	 1.7551788603	-0.7370188278	 0.141381
H	 0.0994186145	 2.0745912233	 0.7662988692	 0.157776
H	 0.0671847095	-0.3409124249	-1.8146731523	 0.259744
H	 0.0597953987	-3.9366403498	-0.2701676499	 0.233604
H	 0.0317449273	-3.4733453658	-4.4826899474	 0.215619
38.2124	75.6766	108.1605	128.3701	230.0283	275.4587	368.9907	415.1525	546.1228	581.8538	599.8853	630.071	652.0583	668.7336	722.004	875.1143	883.6511	933.6238	1016.6973	1049.9418	1117.5278	1227.984	1323.6176	1384.8602	1470.0371	1483.4441	1533.3739	1688.2024	1838.0213	2225.0442	3040.748	3103.5594	3167.7012	3495.8757	3501.0427	3638.566
CC(=O)NC(=N)C#C	CC(=O)NC(=N)C#C	
InChI=1S/C5H6N2O/c1-3-5(6)7-4(2)8/h1H,2H3,(H2,6,7,8)	InChI=1S/C5H6N2O/c1-3-5(6)7-4(2)8/h1H,2H3,(H2,6,7,8)
