16
gdb 49181	3.9657	1.25049	1.0495	4.0896	73.36	-0.2488	-0.0646	0.1842	1118.2336	0.125254	-437.889291	-437.881796	-437.880852	-437.921595	28.065	
O	-0.8457866553	 1.1220659469	-0.1922015259	-0.2496
C	 0.251215522	 0.97126149	 0.278019266	 0.117524
C	 1.4398822036	 1.8242476662	-0.042991029	 0.28599
N	 2.5379688384	 1.5494836974	 0.5433154778	-0.279466
C	 3.690346654	 2.313810877	 0.1990264454	 0.011183
C	 4.1383521099	 2.3422454813	-1.2576300016	-0.295527
C	 3.5169758071	 3.5593674864	-0.6399704022	-0.059138
C	 2.0845117531	 3.9258245834	-0.9500568152	-0.105261
O	 1.2022156114	 2.7878510181	-0.9575472608	-0.251799
H	 0.5054206466	 0.1734682715	 1.0034445396	 0.103698
H	 4.4683347298	 2.2837126662	 0.9530108923	 0.104381
H	 5.2049127801	 2.3488455061	-1.451234874	 0.125948
H	 3.551389456	 1.7607914173	-1.9603819561	 0.138108
H	 4.1584423419	 4.4090710472	-0.4262960239	 0.102462
H	 1.7148351932	 4.6395653893	-0.2023871479	 0.122307
H	 1.9731542783	 4.3770823558	-1.9396444745	 0.129189
87.6076	137.4358	204.3586	215.8573	315.9992	393.0887	470.6409	553.9171	613.0221	665.5554	765.5296	780.2704	826.1847	827.9767	918.0042	945.0726	1000.8221	1004.0534	1031.497	1057.6081	1097.6943	1123.97	1134.3153	1177.6576	1218.9744	1278.0757	1283.8719	1373.1896	1385.8088	1392.5602	1420.0852	1485.3406	1513.9508	1694.8613	1822.6783	2949.8002	3023.7326	3089.4548	3138.8159	3155.663	3175.2919	3229.701
O=CC1=NC2CC2CO1	O=CC1=N[C@H]2C[C@H]2CO1	
InChI=1S/C6H7NO2/c8-2-6-7-5-1-4(5)3-9-6/h2,4-5H,1,3H2	InChI=1S/C6H7NO2/c8-2-6-7-5-1-4(5)3-9-6/h2,4-5H,1,3H2/t4-,5-/m0/s1
