19
gdb 82186	2.80887	1.58719	1.28461	0.5466	73.62	-0.2494	0.0779	0.3272	1040.9554	0.159107	-422.99829	-422.990296	-422.989352	-423.030225	32.173	
C	 0.0301416536	 1.5774100031	-0.0261029098	-0.391604
C	 0.0273908468	 0.0453060762	 0.015520628	-0.028416
C	 0.6817795073	-0.6052998931	-1.2034677643	 0.040204
O	 2.090288565	-0.3496534987	-1.3409561621	-0.258271
C	 1.6732291774	-1.5958505239	-0.7650279181	-0.05242
C	 1.7101270313	-1.6315374765	 0.7563654368	 0.367841
O	 1.7545215171	-2.8852434364	 1.3631048277	-0.470534
C	 2.2376148015	-0.3928995128	 1.432655335	-0.353703
C	 0.7419089472	-0.5784844512	 1.2258562281	-0.104127
H	 1.0522796536	 1.959695103	-0.0930495575	 0.131792
H	-0.526407644	 1.9498121586	-0.8926832131	 0.111891
H	-0.4318931294	 1.9942067037	 0.8740292341	 0.114945
H	-1.0137590131	-0.3048073313	 0.0342505778	 0.080723
H	 0.1372573377	-0.668614971	-2.1437240706	 0.09366
H	 1.9315685963	-2.4941532063	-1.3199367898	 0.095476
H	 2.6770742124	-3.157792876	 1.4184723429	 0.285117
H	 2.5813038527	-0.5178236785	 2.454421091	 0.108105
H	 2.7844886615	 0.3261282983	 0.8361386437	 0.13443
H	 0.1563269352	-0.7580568873	 2.12061245	 0.094891
145.4733	191.3167	221.531	270.1991	305.4272	322.2712	379.0382	439.5968	502.6244	536.2308	605.9901	674.3945	739.3335	790.0656	843.3474	867.1243	906.3278	915.4018	949.6462	967.4801	995.8307	1022.1043	1049.0305	1072.3795	1087.6429	1098.8341	1139.9272	1148.118	1218.8154	1253.9347	1264.4434	1298.341	1323.745	1340.099	1346.8458	1396.3625	1414.4719	1423.1603	1478.1767	1496.3232	1501.4875	3015.9841	3037.8815	3101.9828	3120.4016	3129.2057	3136.7774	3152.1253	3172.2252	3235.986	3794.6246
CC1C2OC2C2(O)CC12	C[C@H]1[C@H]2O[C@H]2[C@@]2(O)C[C@@H]12	
InChI=1S/C7H10O2/c1-3-4-2-7(4,8)6-5(3)9-6/h3-6,8H,2H2,1H3	InChI=1S/C7H10O2/c1-3-4-2-7(4,8)6-5(3)9-6/h3-6,8H,2H2,1H3/t3-,4+,5-,6-,7-/m1/s1
