14
gdb 28193	5.30023	1.28158	1.03314	3.827	69.72	-0.1726	0.0415	0.2142	1058.1073	0.103773	-432.899583	-432.892302	-432.891358	-432.930976	28.072	
O	 0.1712315236	 1.3087481261	 0.2020630698	-0.435192
C	 0.1413266933	-0.0337752564	 0.0025575925	 0.393138
C	 0.0858691745	-0.8092643775	-1.1266664088	-0.451156
C	-0.0049695269	-2.1641301358	-0.6433183616	 0.296689
C	-0.0132418246	-2.1084572048	 0.734261692	 0.345395
N	 0.064220885	-3.3994528989	 1.1910961314	-0.392857
C	 0.0458661293	-4.1793645763	 0.0418991794	-0.017027
N	 0.0258961886	-3.4769264123	-1.0678054863	-0.346491
N	 0.1461107168	-0.8081246725	 1.1636161153	-0.443738
H	 0.0566923271	 1.7415407755	-0.6493634935	 0.309129
H	 0.122465191	-0.4556503084	-2.1448563702	 0.095134
H	-0.0093276809	-3.737639943	 2.1346137356	 0.26271
H	 0.0252058221	-5.2568674208	 0.1080639694	 0.12206
H	-0.119862889	-0.4213439848	 2.053959795	 0.262206
130.8598	218.1367	252.3906	327.2779	331.1794	374.2145	390.8897	529.786	568.9635	630.0106	648.984	719.9014	741.1122	766.9758	772.7906	838.987	954.5685	1005.6014	1070.4757	1142.6069	1162.7823	1181.1427	1258.16	1310.8127	1370.4609	1422.6963	1492.4591	1494.1568	1531.8695	1601.8551	1621.6592	3251.9109	3252.8092	3657.6022	3677.4684	3847.7439
OC1=CC2=C(NC=N2)N1	Oc1cc2c([nH]cn2)[nH]1	
InChI=1S/C5H5N3O/c9-4-1-3-5(8-4)7-2-6-3/h1-2,8-9H,(H,6,7)	InChI=1S/C5H5N3O/c9-4-1-3-5(8-4)7-2-6-3/h1-2,8-9H,(H,6,7)
