19
gdb 108975	5.04824	1.07612	0.99605	1.5299	81.45	-0.2079	0.0171	0.225	1225.6223	0.160264	-385.826471	-385.818869	-385.817925	-385.858731	30.059	
O	-0.0007198907	 1.4328143999	 0.0515807675	-0.41231
C	-0.0123633347	 0.0170033067	 0.0149710309	-0.203474
C	-1.4175544766	-0.4685457939	 0.004657321	 0.319975
C	-2.5756283134	 0.1969796331	 0.0246192557	-0.218301
C	-3.6267927396	-0.900793792	-0.0029110575	-0.049098
C	-3.0974711484	-2.0725131353	 0.9062915038	-0.03261
C	-3.7114640278	-3.1098597973	-0.0620841612	-0.256978
C	-3.1009530089	-2.0219712647	-0.9756481745	-0.032603
C	-1.8425984887	-1.9319463717	-0.03389824	-0.122161
H	 0.9156118726	 1.723100769	 0.0616631104	 0.288447
H	 0.5151795502	-0.3664029974	-0.8778783263	 0.094456
H	 0.5180841077	-0.4120655836	 0.8849978518	 0.094474
H	-2.7425083028	 1.2631083976	 0.0534914235	 0.11161
H	-4.688675914	-0.6509121367	 0.0057610262	 0.05847
H	-3.0861802585	-2.089456871	 1.9996977967	 0.065444
H	-3.2416490181	-4.0974328473	-0.0894801244	 0.086872
H	-4.801925816	-3.1964312631	-0.0623881338	 0.089011
H	-3.0937038005	-1.9802044702	-2.0684204964	 0.065464
H	-1.0918474919	-2.7247635419	-0.0565798733	 0.053312
71.7453	173.9934	175.3117	247.0511	353.7168	419.791	444.2777	527.8277	671.2907	721.8882	752.7284	790.3553	825.2094	861.1513	878.7896	903.4439	918.4758	962.689	973.8093	1009.2533	1038.2851	1056.2035	1069.9671	1072.8648	1098.3838	1124.9618	1152.7023	1169.128	1191.7685	1197.4666	1220.4315	1228.5086	1243.3649	1259.755	1261.8263	1311.9856	1325.4013	1466.3754	1505.7834	1516.8364	1699.0645	2929.0012	2936.8207	3043.0523	3072.2884	3076.1945	3096.4973	3102.0763	3110.6558	3250.2274	3837.2285
OCC1=CC2C3CC2C13	OCC1=C[C@@H]2[C@H]3C[C@@H]2[C@@H]13	
InChI=1S/C8H10O/c9-3-4-1-5-6-2-7(5)8(4)6/h1,5-9H,2-3H2	InChI=1S/C8H10O/c9-3-4-1-5-6-2-7(5)8(4)6/h1,5-9H,2-3H2/t5-,6-,7+,8+
