20
gdb 98443	2.85992	1.0714	1.05305	3.7545	75.85	-0.2486	0.0255	0.2741	1287.5079	0.169572	-440.295315	-440.285133	-440.284189	-440.331832	35.395	
C	-0.175838018	 1.4556114433	-0.0037551812	-0.336387
N	-0.1848675979	 0.0243997351	-0.2395447701	-0.314316
C	 0.7890004009	-0.6124548213	-0.9527604856	 0.352036
O	 1.7363183481	-0.0322532501	-1.4548043103	-0.381947
C	 0.6344655967	-2.1294557204	-1.0435634646	 0.169575
C	 1.1968140293	-2.7860187044	 0.2203381104	-0.457039
C	-0.7367398173	-2.687048565	-1.5187920943	-0.122424
O	-0.1408779803	-3.2899915404	-2.6769088402	-0.272282
C	 1.1556318467	-2.7276294011	-2.3693739808	-0.107644
H	 0.7053368728	 1.8588644074	-0.503782754	 0.173907
H	-1.0717381761	 1.9330012947	-0.4155762003	 0.127408
H	-0.1166221739	 1.6843718693	 1.0662448358	 0.126225
H	-0.9415085351	-0.5204303452	 0.1393631159	 0.248035
H	 0.6461607452	-2.4738761413	 1.1144002176	 0.113279
H	 1.1323282972	-3.8760166501	 0.1442740537	 0.128161
H	 2.2473643339	-2.5117979905	 0.3585952194	 0.140106
H	-1.2024790058	-3.4297798273	-0.8572929401	 0.096656
H	-1.4853016559	-1.9291160804	-1.7881447408	 0.094599
H	 1.4779919699	-1.9831569613	-3.1035348311	 0.123636
H	 1.9243866695	-3.502804461	-2.2707944291	 0.098418
35.5554	53.5754	84.4517	118.696	173.1079	242.8012	252.9581	304.1141	330.8482	339.2197	456.0424	479.2691	516.4858	767.4032	775.2685	851.7465	888.4329	926.2708	957.6809	987.4332	1009.2008	1044.3811	1058.4682	1151.2203	1152.8245	1164.2526	1168.1524	1190.9605	1206.6418	1230.575	1304.1778	1313.2837	1375.6948	1411.7962	1438.3305	1488.4197	1492.3971	1498.9691	1500.2539	1516.625	1539.6316	1561.2594	1770.9567	2993.8928	3028.3033	3028.858	3032.7001	3036.8927	3080.9658	3089.4029	3100.3435	3110.4912	3155.1367	3646.6088
CNC(=O)C1(C)COC1	CNC(=O)C1(C)COC1	
InChI=1S/C6H11NO2/c1-6(3-9-4-6)5(8)7-2/h3-4H2,1-2H3,(H,7,8)	InChI=1S/C6H11NO2/c1-6(3-9-4-6)5(8)7-2/h3-4H2,1-2H3,(H,7,8)
