19
gdb 99117	3.41667	0.96686	0.85957	2.1753	72.67	-0.2648	0.0118	0.2765	1409.2649	0.156449	-460.179158	-460.169193	-460.168249	-460.215613	34.868	
C	-0.0993995321	 0.012932266	 1.2967201729	-0.239705
O	-0.1941114292	-1.1394199465	 0.448153506	-0.223114
C	 0.930528835	-1.4536908438	-0.2218647302	 0.456317
O	 1.9571475255	-0.827357563	-0.1278949649	-0.358604
C	 0.7214705965	-2.6958752058	-1.0727375575	-0.398281
C	 1.2355526046	-2.5305674728	-2.4976340593	 0.425808
C	 2.7323557311	-2.4244818692	-2.6869347955	-0.466652
C	 0.3917726052	-3.0260916694	-3.5963197998	-0.225785
O	 0.44608913	-1.630775778	-3.2900903196	-0.272543
H	 0.6723799644	-0.1304505669	 2.0571228755	 0.140371
H	 0.1464582444	 0.9011778523	 0.7098772778	 0.145642
H	-1.0797311708	 0.1196709935	 1.7608184959	 0.133975
H	 1.2583758355	-3.5187985045	-0.5845208803	 0.133309
H	-0.3405047061	-2.9448290131	-1.0780149701	 0.127255
H	 3.225965116	-3.3454517529	-2.35668445	 0.11449
H	 2.9663613597	-2.2631419611	-3.7419836536	 0.121301
H	 3.1319102372	-1.5967072656	-2.0982084152	 0.163137
H	 0.856592785	-3.3158835465	-4.5381615068	 0.113044
H	-0.5565889218	-3.5172255029	-3.3801141453	 0.110034
22.0304	59.235	110.9353	148.1829	195.781	205.3683	281.4842	330.7778	347.6898	385.2502	414.9086	463.3933	608.5511	718.5651	768.014	842.1901	897.0221	919.5316	934.5699	945.5144	1028.6755	1057.2592	1108.614	1137.234	1153.8885	1178.4325	1190.6081	1209.4508	1236.8265	1300.2322	1347.6646	1404.2164	1424.8547	1456.1776	1472.9239	1480.7062	1481.9799	1496.268	1506.6886	1533.6358	1815.0088	3040.2219	3044.9513	3053.6416	3077.2731	3112.9911	3125.0985	3129.2207	3145.6797	3161.2336	3162.4946
COC(=O)CC1(C)CO1	COC(=O)C[C@@]1(C)CO1	
InChI=1S/C6H10O3/c1-6(4-9-6)3-5(7)8-2/h3-4H2,1-2H3	InChI=1S/C6H10O3/c1-6(4-9-6)3-5(7)8-2/h3-4H2,1-2H3/t6-/m0/s1
