12
gdb 16793	3.70586	2.1683	1.48728	2.753	55.49	-0.2666	-0.0394	0.2273	776.1418	0.08609	-414.699747	-414.693729	-414.692785	-414.729985	22.838	
O	 0.0423338434	-0.0308965296	-0.0721921922	-0.34452
C	 0.0315513286	 1.1696190254	-0.0049500769	 0.475322
N	-1.1029188482	 1.972514734	 0.1278999748	-0.37553
C	-0.8744206903	 3.3454827251	 0.0180194624	 0.475302
O	-1.7192550607	 4.1999451726	-0.0269716836	-0.34451
C	 0.6289823413	 3.4991279657	-0.0588210833	-0.176666
N	 1.2722882968	 2.9504850402	 1.1597565892	-0.320904
C	 1.1991487676	 2.129697784	-0.073416334	-0.176697
H	-2.0279028289	 1.5860887157	 0.2495986388	 0.276465
H	 1.0513798436	 4.3498452407	-0.5770672537	 0.129965
H	 2.2114782706	 3.3407629639	 1.2285961826	 0.25181
H	 2.0964942361	 1.8396520024	-0.6038530741	 0.129962
141.6639	210.9527	332.8232	392.3643	499.6899	605.1167	621.2494	640.6218	761.2884	764.0081	855.5545	862.642	878.6367	892.9682	928.5665	1023.4355	1119.9998	1130.2726	1179.3717	1252.2595	1341.225	1347.1168	1357.5264	1384.0943	1845.9369	1884.3303	3208.3393	3216.4859	3482.2952	3628.3365
O=C1NC(=O)C2NC12	O=C1NC(=O)[C@H]2N[C@@H]12	
InChI=1S/C4H4N2O2/c7-3-1-2(5-1)4(8)6-3/h1-2,5H,(H,6,7,8)	InChI=1S/C4H4N2O2/c7-3-1-2(5-1)4(8)6-3/h1-2,5H,(H,6,7,8)/t1-,2+
