16
gdb 44361	3.61829	1.68425	1.42094	4.6951	68.89	-0.2431	0.0538	0.2969	915.18	0.126865	-437.86629	-437.859838	-437.858893	-437.897261	26.172	
N	-0.0961891045	 1.2042662238	 0.7386768747	-0.550819
C	 0.0197438044	 0.1579917661	 0.0451371804	 0.459837
O	-1.0910954014	-0.3948850637	-0.5011788881	-0.240977
C	-1.1121698383	-1.770515873	-0.8252087561	 0.111913
C	-0.5530606326	-2.2699504675	-2.1223783741	-0.093282
C	 0.6091790236	-1.3649895526	-2.5297700111	-0.270093
C	 1.2211506404	-1.565515206	-1.103386769	 0.096704
O	 1.2152964338	-0.4349660287	-0.2290238207	-0.271777
C	 0.1332102495	-2.578188163	-0.7690296298	-0.141525
H	 0.8276138705	 1.5349186742	 1.0099518077	 0.225336
H	-2.0300744549	-2.2262456264	-0.4724508268	 0.121337
H	-1.1102845808	-2.9367280354	-2.7676121523	 0.10099
H	 1.2478309272	-1.8095287449	-3.2955130674	 0.116786
H	 0.3619021605	-0.3388997515	-2.8133653493	 0.12596
H	 2.247750169	-1.9261312928	-1.0964840726	 0.105539
H	 0.2426455536	-3.4901243987	-0.1970180555	 0.104072
84.3155	211.4324	373.3921	418.4124	461.298	530.8723	582.1231	707.5312	728.0706	748.0138	809.3166	824.869	827.7939	859.4221	880.1809	953.0507	968.4131	1001.764	1023.9585	1031.4302	1051.9549	1077.0595	1084.8607	1127.0969	1162.9019	1216.0956	1229.2226	1257.5966	1275.3781	1302.0986	1347.9382	1404.6967	1430.0058	1485.4197	1766.6567	3068.8653	3122.6076	3137.9428	3184.6866	3196.0329	3207.9077	3524.8246
N=C1OC2C3CC(O1)C23	[NH][C]1O[C@H]2[C@H]3C[C@@H](O1)[C@@H]23	
InChI=1S/C6H7NO2/c7-6-8-3-1-2-4(3)5(2)9-6/h2-5,7H,1H2	InChI=1S/C6H7NO2/c7-6-8-3-1-2-4(3)5(2)9-6/h2-5,7H,1H2/t2-,3+,4-,5-/m0/s1
