18
gdb 91575	2.79177	1.30876	1.05147	1.4929	76.87	-0.2399	0.0369	0.2768	1169.8159	0.14615	-401.863536	-401.854688	-401.853744	-401.897419	33.396	
O	 0.1703550247	 1.4527369742	 0.248946843	-0.431055
C	 0.0426308013	 0.0580229253	 0.1070365351	 0.051581
C	 0.1734051148	-0.7413433704	 1.4215558367	-0.179284
N	-1.1733507292	-1.3959917902	 1.2261319275	-0.183496
C	-2.1353435425	-0.2726527883	 1.2123318632	-0.281151
C	-1.3618629627	-0.5388258483	-0.0139049359	 0.329302
C	-1.9514657311	-1.0555108042	-1.3062116175	-0.466234
C	-2.1717369468	 0.0405889302	-2.2476437629	 0.302068
C	-2.3168122002	 0.9697169714	-2.9971489432	-0.459675
H	-0.1279505084	 1.8586106053	-0.5730961722	 0.286396
H	 0.7077896594	-0.327317875	-0.6784268519	 0.074614
H	 0.9672553661	-1.4896752566	 1.4184633775	 0.113305
H	 0.2406803364	-0.1329440308	 2.3280533173	 0.117111
H	-3.1702384393	-0.6011367959	 1.2266317804	 0.119701
H	-1.9230066213	 0.6140119686	 1.8045243417	 0.125851
H	-1.2728187749	-1.7931650252	-1.7548856307	 0.13767
H	-2.8914877511	-1.5822343616	-1.1050284666	 0.141553
H	-2.4689950255	 1.7738699116	-3.6740357318	 0.201742
50.5502	85.5187	165.3641	242.4655	286.2429	319.0729	347.9967	382.3381	426.653	489.9329	548.0269	626.6266	649.7792	704.5711	745.6678	805.3769	871.2603	890.7856	926.3632	953.494	975.1255	1010.7648	1053.1005	1105.3832	1117.9635	1132.0236	1177.8509	1201.1118	1227.0967	1268.5485	1294.9308	1318.2434	1346.8094	1398.319	1423.8662	1464.6154	1485.4833	1510.6435	2234.1549	3002.1237	3020.1112	3061.8573	3062.051	3110.4396	3127.9345	3202.2571	3503.0674	3798.5371
OC1CN2CC12CC#C	O[C@H]1CN2C[C@@]12CC#C	
InChI=1S/C7H9NO/c1-2-3-7-5-8(7)4-6(7)9/h1,6,9H,3-5H2	InChI=1S/C7H9NO/c1-2-3-7-5-8(7)4-6(7)9/h1,6,9H,3-5H2/t6-,7-,8?/m0/s1
