21
gdb 111784	2.97731	1.18508	1.07243	2.2891	78.41	-0.2351	0.0723	0.3074	1230.8573	0.183364	-424.194324	-424.185664	-424.18472	-424.2277	33.399	
C	 0.0480643477	 1.7081113256	 0.4086823336	-0.438368
C	 0.0306179706	 0.1976071213	 0.2387763632	 0.024522
C	 0.7556683925	-0.5168689821	-0.9596159093	-0.084479
C	 2.1835684151	 0.0052252277	-0.7734740113	-0.098729
O	 2.3157425807	-0.1238685405	 0.6659499593	-0.281637
C	 1.0384156163	-0.6827328723	 1.0268681008	 0.058336
C	 0.8450630589	-1.788710759	-0.046097948	 0.053106
C	-0.3563747637	-2.7105112208	 0.0202253731	-0.140059
O	-0.4379572588	-3.3778404097	-1.2348858908	-0.419539
H	 1.0664053643	 2.090221662	 0.5097630992	 0.13583
H	-0.4275972757	 2.2082136046	-0.4424278514	 0.113329
H	-0.5035039193	 1.998867211	 1.309407539	 0.113251
H	-0.9874425494	-0.1816083565	 0.3371259171	 0.072748
H	 0.345048089	-0.5484539718	-1.9676195399	 0.077081
H	 2.9382874303	-0.6103210737	-1.2761328753	 0.10215
H	 2.3222661304	 1.0501063715	-1.0718001853	 0.097793
H	 1.0072007243	-0.8497338275	 2.1037149609	 0.07126
H	 1.7386818853	-2.4002988434	-0.2049346744	 0.080412
H	-0.2082630974	-3.4309164189	 0.8412522129	 0.087789
H	-1.287485072	-2.1666594416	 0.2331428122	 0.088602
H	-1.1634324692	-4.0078644559	-1.1926344258	 0.286602
64.3164	157.8613	172.6956	231.4271	259.5697	281.9058	311.6278	381.8199	412.9696	540.0194	602.2376	689.561	747.9024	779.0368	843.8855	912.3734	923.6434	948.1713	962.6084	1006.1146	1026.458	1044.2342	1048.9533	1073.6697	1082.4019	1105.9026	1128.9245	1159.1191	1184.0916	1198.5783	1211.6019	1247.9845	1255.7759	1269.5158	1277.6369	1295.2967	1355.8838	1389.7661	1401.4898	1409.5509	1463.6678	1489.864	1505.96	1522.3105	1538.1457	2968.0821	3006.6632	3029.4755	3034.3324	3063.3781	3069.5532	3089.8696	3097.748	3121.3876	3128.7115	3134.843	3827.1237
CC1C2COC1C2CO	C[C@H]1[C@H]2CO[C@@H]1[C@H]2CO	
InChI=1S/C7H12O2/c1-4-6-3-9-7(4)5(6)2-8/h4-8H,2-3H2,1H3	InChI=1S/C7H12O2/c1-4-6-3-9-7(4)5(6)2-8/h4-8H,2-3H2,1H3/t4-,5-,6+,7-/m0/s1
