23
gdb 108987	2.58404	1.42714	1.15648	0.3273	91.29	-0.2109	0.0228	0.2336	1204.7307	0.206192	-351.138047	-351.129121	-351.128177	-351.171335	35.428	
C	 0.0300722881	 1.4985738236	-0.0989652915	-0.373661
C	-0.0071883429	-0.0334869437	 0.0661955129	-0.318722
C	 0.7253605357	-0.5279841228	 1.2719722959	 0.319093
C	 0.2643710927	-0.9584531577	 2.4520293655	-0.206136
C	 1.53260299	-1.3040041624	 3.2400868497	-0.067333
C	 2.3425198924	-2.0602780332	 2.1362009216	-0.23576
C	 2.2676513843	-0.6522062378	 1.4376498326	 0.248776
C	 3.188954579	-0.2757411957	 0.2985397108	-0.515116
C	 2.4270881471	-0.0689089292	 2.8892024447	-0.240671
H	 1.0544791777	 1.8688491971	-0.1995682639	 0.121093
H	-0.5255036531	 1.8062114979	-0.9907508896	 0.110663
H	-0.4176286253	 1.990001021	 0.7701915944	 0.119935
H	-1.0525295184	-0.357587509	 0.1303654477	 0.102479
H	 0.405246313	-0.497114108	-0.8402295916	 0.09994
H	-0.7567739386	-1.0599172734	 2.7943712975	 0.089907
H	 1.4333305381	-1.6839890907	 4.2563206824	 0.055428
H	 3.3597772494	-2.329709399	 2.4426787645	 0.083952
H	 1.8513252053	-2.898896255	 1.6358581317	 0.086055
H	 2.9560607271	-0.8428325784	-0.6101608705	 0.116383
H	 3.1185717269	 0.789279956	 0.0522976952	 0.119872
H	 4.2321629738	-0.4844466342	 0.5579109231	 0.113177
H	 2.0135294095	 0.9245320094	 3.0815251832	 0.086357
H	 3.4514479782	-0.1453362548	 3.2716208738	 0.084289
76.6353	127.0491	191.9485	207.5511	256.4105	275.2116	339.7684	386.7972	493.9997	505.2479	583.07	629.276	649.7557	758.0956	788.7961	805.5437	832.1322	848.6638	873.5671	909.5061	945.1308	957.3905	990.7725	1026.7954	1055.9285	1059.0686	1082.7423	1083.4549	1113.3513	1175.486	1188.9628	1193.3205	1229.3802	1234.5605	1249.4776	1280.8722	1294.5054	1342.746	1350.5825	1402.6506	1413.7494	1476.4193	1476.6375	1490.5175	1494.0286	1500.0377	1506.4834	1515.4607	1681.5008	3012.3355	3026.1147	3028.3746	3037.7233	3040.5635	3055.566	3089.0923	3094.2971	3102.6761	3107.1816	3108.3636	3116.2896	3120.0847	3218.1505
CCC1=CC2CC1(C)C2	CCC1=C[C@H]2C[C@]1(C)C2	
InChI=1S/C9H14/c1-3-8-4-7-5-9(8,2)6-7/h4,7H,3,5-6H2,1-2H3	InChI=1S/C9H14/c1-3-8-4-7-5-9(8,2)6-7/h4,7H,3,5-6H2,1-2H3/t7-,9+
