19
gdb 70367	2.7389	1.69575	1.37801	1.1862	73.52	-0.2461	0.0707	0.3168	990.6034	0.160768	-422.999637	-422.992241	-422.991297	-423.031057	30.277	
O	 0.0235520338	 1.355758084	-0.1365903515	-0.478069
C	-0.0166602527	-0.0324699154	 0.018734145	 0.400284
C	-0.4733482976	-0.8873984031	-1.1404811569	-0.36187
C	-1.3587720171	-0.7230255417	 0.0789556274	-0.075858
C	-1.3133025607	-1.8190288585	 1.1355116642	-0.251991
C	 0.1481305968	-1.8888195415	 1.60181418	 0.121577
O	 1.0009324513	-2.7800486384	 0.8328585216	-0.295582
C	 1.9315965547	-1.7060497895	 0.564266482	-0.097838
C	 0.9148430391	-0.657976446	 1.0569695527	-0.146181
H	 0.7447753314	 1.5697891644	-0.7381701332	 0.281096
H	-0.7778459835	-0.3461029717	-2.0301469679	 0.108919
H	-0.0087591781	-1.8509931697	-1.3178611693	 0.131807
H	-2.2631437748	-0.1364975098	-0.0359790071	 0.09218
H	-1.955784234	-1.5527696458	 1.9825162928	 0.102553
H	-1.6425655491	-2.7967954815	 0.7674265223	 0.115771
H	 0.244368878	-2.1009877252	 2.6734389726	 0.074862
H	 2.8303111119	-1.789046736	 1.1895847005	 0.097678
H	 2.2265042614	-1.6678832921	-0.4905795867	 0.10008
H	 1.2651424791	 0.1014081273	 1.7570739215	 0.080583
146.4817	200.84	284.1832	289.9041	344.7387	371.4165	428.9676	459.3113	590.0625	665.8665	696.365	782.4772	837.7519	844.4854	874.1709	921.1413	924.8351	946.677	990.9978	1008.0374	1023.596	1044.9371	1068.1902	1075.0767	1093.7231	1101.576	1167.8758	1196.2835	1208.9189	1222.4001	1255.5899	1272.9756	1310.3131	1321.5227	1339.8534	1357.5812	1364.2167	1405.8921	1468.9261	1482.7311	1520.6382	3009.4126	3025.5982	3043.6446	3061.5535	3081.6968	3107.8618	3130.2155	3177.1252	3223.2936	3797.1545
OC12CC1CC1OCC21	O[C@]12C[C@H]1C[C@H]1OC[C@@H]21	
InChI=1S/C7H10O2/c8-7-2-4(7)1-6-5(7)3-9-6/h4-6,8H,1-3H2	InChI=1S/C7H10O2/c8-7-2-4(7)1-6-5(7)3-9-6/h4-6,8H,1-3H2/t4-,5-,6-,7-/m1/s1
