17
gdb 76320	2.2129	1.52393	1.29005	0.9976	64.53	-0.2441	-0.0424	0.2017	1059.2557	0.132505	-496.09152	-496.081929	-496.080985	-496.125462	35.298	
C	-0.7728839579	 1.4643320247	 0.0395975717	-0.470283
C	-0.0828968172	 0.1223962723	-0.0377495954	 0.26122
O	-0.9529336028	-0.99118649	 0.1471543291	-0.472982
C	 0.7959038898	-0.2265329492	-1.2873756453	 0.070552
O	 1.3586373033	 0.919982244	-1.8641237675	-0.437757
C	 1.8417210488	-0.9310274784	-0.3463198992	-0.000353
O	 3.1922764593	-0.6744608098	-0.6351898787	-0.440987
C	 1.2170398236	-0.100901305	 0.7814428757	 0.301157
O	 1.7075577645	 0.3981545368	 1.7555378734	-0.31248
H	-0.091768173	 2.2574819405	-0.2747230131	 0.149074
H	-1.6499876734	 1.4712725066	-0.6142196745	 0.131226
H	-1.0961843038	 1.6722112308	 1.0656551844	 0.120781
H	-1.369273897	-0.901117869	 1.0118682836	 0.289799
H	 0.2891749014	-0.8676362155	-2.0161553839	 0.086617
H	 2.3138544144	 0.759396467	-1.894122392	 0.294162
H	 1.6423606633	-2.0033883191	-0.2555072143	 0.124251
H	 3.5565426669	-0.1876103167	 0.1158376359	 0.306004
85.6727	133.7177	185.5417	206.6207	218.4448	255.1722	283.4422	310.4406	325.4733	359.6257	447.3039	491.8194	527.2528	570.1567	650.0507	748.6937	813.3375	839.1386	920.5789	929.6073	982.6089	1075.2443	1111.4867	1138.2381	1150.8523	1179.9942	1221.4445	1263.8044	1315.562	1346.1924	1362.1608	1365.9659	1402.9861	1409.6861	1481.8778	1490.7557	1873.5946	3039.0447	3054.1447	3068.4591	3108.0579	3141.0072	3711.3701	3764.8761	3801.4408
CC1(O)C(O)C(O)C1=O	C[C@@]1(O)[C@@H](O)[C@@H](O)C1=O	
InChI=1S/C5H8O4/c1-5(9)3(7)2(6)4(5)8/h2-3,6-7,9H,1H3	InChI=1S/C5H8O4/c1-5(9)3(7)2(6)4(5)8/h2-3,6-7,9H,1H3/t2-,3+,5-/m1/s1
