16
gdb 26969	3.1625	1.32847	1.00939	1.4676	72.5	-0.1925	0.0311	0.2236	1151.1996	0.124045	-437.865895	-437.85783	-437.856886	-437.899159	30.018	
O	 0.0215204624	 1.3197876727	-0.2486032235	-0.421343
C	-0.0294624123	-0.0088786098	-0.0797592885	 0.363111
C	-1.0791343152	-0.8467450311	 0.1522686123	 0.128862
C	-0.4879026846	-2.1652910724	 0.2407129898	-0.24454
C	 0.8433323311	-2.0138966769	 0.0579225432	-0.031125
O	 1.1410488228	-0.6835610987	-0.1417192068	-0.190685
N	-2.4221861229	-0.4214178917	 0.2661522122	-0.174585
C	-3.4742205652	-1.3015360158	-0.2500747079	-0.224534
C	-3.2930939369	-1.1218873567	 1.2143893937	-0.224526
H	 0.9424281979	 1.5673257384	-0.3921544047	 0.307143
H	-0.9990594024	-3.0992111232	 0.418001295	 0.108979
H	 1.685082164	-2.6837021311	 0.0358738015	 0.134446
H	-4.2841095766	-0.7990163956	-0.7717506063	 0.119448
H	-3.1746118836	-2.2538139021	-0.6818392246	 0.114932
H	-2.870252015	-1.9522859369	 1.7753008547	 0.114945
H	-3.9683953236	-0.4859246192	 1.78010563	 0.119471
44.9819	158.0522	168.0742	197.1817	282.3754	302.988	454.4451	519.1872	560.1273	625.5789	651.3267	719.9148	727.3204	815.3416	821.5722	859.4096	891.1662	923.8522	1032.7931	1054.3048	1061.7922	1106.4118	1119.8832	1153.2848	1174.2835	1176.6414	1229.6676	1238.5463	1303.7757	1371.0783	1456.2082	1490.5446	1516.2373	1571.2374	1725.5317	3100.7547	3104.4614	3180.8183	3196.1156	3248.5767	3295.8913	3817.8481
OC1=C(C=CO1)N1CC1	Oc1c(cco1)N1CC1	
InChI=1S/C6H7NO2/c8-6-5(1-4-9-6)7-2-3-7/h1,4,8H,2-3H2	InChI=1S/C6H7NO2/c8-6-5(1-4-9-6)7-2-3-7/h1,4,8H,2-3H2
