17
gdb 16748	4.64253	1.56246	1.38937	4.1023	69.11	-0.2389	0.0287	0.2676	917.9552	0.144684	-363.886984	-363.880078	-363.879134	-363.918425	26.25	
O	 0.4368318499	 0.2544164751	-1.1559663651	-0.340897
C	 0.3728417929	 1.3933045341	-0.738843792	 0.141275
N	 1.2196473156	 1.9394434019	 0.1697353212	-0.047909
C	 2.3969296364	 1.2309350138	 0.6740224832	-0.178363
C	 3.3815668346	 2.3496338434	 0.9740172514	-0.040288
C	 3.6243213415	 3.3488920185	-0.1278528455	-0.286614
C	 2.6142644329	 3.655034165	 0.9482406303	-0.036452
C	 1.1627806463	 3.3212942405	 0.6434416885	-0.189311
H	-0.4002786415	 2.1157160211	-1.0704002734	 0.068017
H	 2.1618375236	 0.6675699917	 1.5876005043	 0.112434
H	 2.7295222456	 0.5158901832	-0.082713316	 0.140352
H	 4.1583772522	 2.1641432975	 1.7055867055	 0.093715
H	 4.5567595106	 3.9011768198	-0.1027853546	 0.11773
H	 3.2666360683	 3.1150931261	-1.1263505267	 0.122535
H	 2.814323199	 4.4467319696	 1.6598513641	 0.093607
H	 0.710399342	 3.9631412705	-0.1202602702	 0.119783
H	 0.55933952	 3.4106004783	 1.5586044552	 0.110384
58.4086	230.9868	244.1297	298.4554	340.5389	382.3283	527.8941	641.6849	738.1182	791.0947	827.1185	867.9776	876.7955	929.9263	959.2867	1029.3138	1034.814	1057.0658	1079.8818	1093.6887	1113.3749	1114.4576	1189.406	1197.6719	1212.8509	1244.1872	1332.5456	1341.7373	1356.8059	1401.5896	1416.7836	1447.97	1488.0539	1512.6404	1521.8963	1791.0645	2926.289	2994.1363	3011.8079	3063.4265	3098.2642	3129.4362	3183.3296	3190.724	3219.0657
O=CN1CC2CC2C1	O=CN1C[C@H]2C[C@H]2C1	
InChI=1S/C6H9NO/c8-4-7-2-5-1-6(5)3-7/h4-6H,1-3H2	InChI=1S/C6H9NO/c8-4-7-2-5-1-6(5)3-7/h4-6H,1-3H2/t5-,6+
