17
gdb 84168	2.83509	1.42183	0.99485	3.3071	70.79	-0.2262	-0.0222	0.2039	1162.7263	0.13582	-455.183091	-455.174346	-455.173402	-455.216854	32.388	
C	-0.5622034147	 1.4103237437	 0.0058233034	-0.384875
C	 0.2197739108	 0.1001987275	-0.0102194938	-0.059012
N	 1.0506242366	-0.0015619953	-1.2084900902	-0.346457
C	 1.9492293371	-0.9005189144	-1.2145172776	 0.449619
N	 2.7345981807	-1.1706486152	-2.3065650966	-0.559271
O	 2.284299431	-1.7161939453	-0.1678860124	-0.260231
C	 2.1952338308	-1.0924592321	 1.1128898541	-0.180732
C	 1.0486302255	-0.0932566608	 1.2536969761	 0.349254
O	 0.8702735335	 0.4813765047	 2.2994812699	-0.306365
H	 0.1248902788	 2.2608777023	 0.0038652491	 0.125263
H	-1.1900298189	 1.4741239352	-0.8857985776	 0.118437
H	-1.1879696327	 1.4750769545	 0.8982615567	 0.126361
H	-0.5018209351	-0.7381890384	-0.0058742611	 0.104302
H	 2.3377471054	-0.9047719362	-3.1934773376	 0.266578
H	 3.2244676261	-2.0501694254	-2.2858937593	 0.261976
H	 2.0688742545	-1.8920087286	 1.847577864	 0.150364
H	 3.1337001605	-0.5697726462	 1.3389188128	 0.144791
45.8646	128.1177	173.319	203.0914	264.7158	333.7528	370.0736	404.2827	439.0402	492.0918	519.6706	542.6211	607.5288	706.3262	734.5054	761.1529	865.4306	927.6841	950.3225	1045.348	1092.0765	1103.0661	1134.2461	1186.9904	1219.6946	1254.766	1292.1696	1330.8692	1339.5058	1392.2393	1406.0297	1469.952	1483.8479	1494.3596	1616.1686	1755.8815	1823.1963	2927.3139	3031.0441	3054.7705	3105.1124	3128.6181	3141.6478	3599.7423	3719.696
CC1N=C(N)OCC1=O	C[C@H]1N=C(N)OCC1=O	
InChI=1S/C5H8N2O2/c1-3-4(8)2-9-5(6)7-3/h3H,2H2,1H3,(H2,6,7)	InChI=1S/C5H8N2O2/c1-3-4(8)2-9-5(6)7-3/h3H,2H2,1H3,(H2,6,7)/t3-/m1/s1
