19
gdb 34364	2.60011	1.60863	1.27261	0.7044	86.29	-0.2412	0.0206	0.2618	1060.4827	0.159873	-348.724982	-348.717054	-348.71611	-348.7572	31.765	
C	 0.0173942332	-1.1200379712	-0.4757542249	-0.426586
C	 0.0059473711	 0.049121302	-0.1905842	 0.220272
C	-0.0064787624	 1.4554440168	 0.149944369	 0.153015
C	-0.4116920448	 2.3991505255	-1.0417416352	-0.261469
C	 1.0607754498	 2.8619342317	-1.194647303	-0.218272
C	 1.3997443459	 2.1872020651	 0.165547476	-0.09086
C	 1.2952578793	 3.0716656883	 1.3754643565	-0.080659
C	 0.1814988059	 2.8683711173	 2.0792315654	-0.067203
C	-0.6904662486	 1.7766793527	 1.5064761186	-0.329177
H	 0.0265205829	-2.1517277456	-0.7257720248	 0.186278
H	-0.8569603145	 1.8981166756	-1.9022777831	 0.110538
H	-1.08198976	 3.1956260938	-0.7097898867	 0.104468
H	 1.5675884568	 2.3764930736	-2.0324218171	 0.107237
H	 1.2326945172	 3.9391492159	-1.2580211835	 0.09723
H	 2.294317691	 1.5577934475	 0.1712881123	 0.082693
H	 2.063430049	 3.7972372901	 1.6234474912	 0.093702
H	-0.0866190693	 3.4016790196	 2.9851987119	 0.094155
H	-1.7313424835	 2.0923785919	 1.3617914862	 0.107888
H	-0.719902939	 0.8988628996	 2.1640326211	 0.11675
94.1308	147.3887	180.2658	250.1073	343.995	433.0408	500.5464	511.6713	542.6394	608.3995	617.8586	648.2508	726.9828	746.9742	773.084	844.0326	874.6337	915.654	952.0117	959.4532	974.0959	984.2431	1022.0447	1041.9033	1093.37	1113.6937	1132.027	1174.066	1190.6405	1224.9009	1261.1889	1267.4497	1272.6392	1302.2834	1339.2086	1367.8246	1471.476	1485.5842	1491.2338	1681.0107	2228.7278	3022.2317	3052.0038	3057.7775	3064.6221	3070.3198	3109.0965	3132.6873	3173.8416	3199.5932	3503.0771
C#CC12CCC1C=CC2	C#C[C@]12CC[C@H]1C=CC2	
InChI=1S/C9H10/c1-2-9-6-3-4-8(9)5-7-9/h1,3-4,8H,5-7H2	InChI=1S/C9H10/c1-2-9-6-3-4-8(9)5-7-9/h1,3-4,8H,5-7H2/t8-,9+/m1/s1
