20
gdb 57898	3.0063	1.02062	0.96603	1.9315	77.96	-0.2399	-0.0398	0.2001	1337.8356	0.168601	-440.270484	-440.260606	-440.259662	-440.305584	36.114	
C	-1.7486927385	 1.1910450732	 1.2223130601	-0.40078
C	-0.560190899	 0.5759812467	 0.4618030702	 0.052806
O	 0.5257933809	 0.3715754115	 1.3236070818	-0.439874
C	-0.9566568545	-0.7485272973	-0.193935184	 0.36348
O	-0.4406099233	-1.779706655	 0.2023707913	-0.358999
C	-1.9686186004	-0.7003984191	-1.2861443595	-0.100475
C	-1.9838559929	-1.8199580287	-2.2912910231	-0.236482
N	-3.0846483258	-1.6673130479	-1.376852578	-0.080317
C	-3.2712818521	-2.6755828577	-0.3350787057	-0.329159
H	-1.4153574994	 2.1100488265	 1.7102381535	 0.137804
H	-2.5832910697	 1.4321880627	 0.5575516801	 0.121151
H	-2.0991395295	 0.5008948877	 1.9956127594	 0.128401
H	-0.2672072179	 1.2670299109	-0.3470997165	 0.09131
H	 0.6543460922	-0.5907747935	 1.3458592274	 0.291363
H	-2.2436837607	 0.2992754454	-1.6117409574	 0.099748
H	-2.1825181325	-1.580547315	-3.3328807676	 0.124602
H	-1.2693628545	-2.6216742878	-2.1124358424	 0.136497
H	-2.3390088458	-3.0958308539	 0.0582697626	 0.145245
H	-3.836561519	-2.2308962779	 0.4895907428	 0.125277
H	-3.8752372678	-3.4806724308	-0.7642274351	 0.128402
51.6397	68.6664	174.576	186.1696	217.0474	235.3552	282.9894	309.0998	372.7182	390.3242	416.4969	435.2643	473.5923	678.1411	715.9705	739.0543	827.4154	867.2217	922.6433	992.7994	1023.9982	1040.4957	1066.7246	1093.5802	1102.9804	1128.0845	1139.9918	1171.4668	1184.9906	1217.301	1277.6186	1330.7623	1350.4138	1396.8059	1400.115	1439.538	1446.2659	1486.5815	1489.5217	1495.8961	1497.9214	1511.8029	1761.1141	2961.6075	3028.0376	3043.5904	3095.7415	3100.8227	3109.4978	3119.5347	3128.7843	3143.6746	3189.3146	3675.6266
CC(O)C(=O)C1CN1C	C[C@@H](O)C(=O)[C@H]1CN1C	
InChI=1S/C6H11NO2/c1-4(8)6(9)5-3-7(5)2/h4-5,8H,3H2,1-2H3	InChI=1S/C6H11NO2/c1-4(8)6(9)5-3-7(5)2/h4-5,8H,3H2,1-2H3/t4-,5-,7?/m1/s1
