21
gdb 109939	2.40715	1.32253	0.96801	0.5031	78.79	-0.2578	0.072	0.3298	1273.2362	0.180956	-424.189557	-424.180008	-424.179064	-424.22402	35.637	
C	-0.7860206653	 1.160765756	-0.0511455278	-0.401211
C	 0.1421830548	-0.0451989873	-0.0350396025	 0.037488
C	 1.5430891055	 0.0879315879	-0.7142294426	-0.339708
C	 2.1253150094	-0.6811335097	 0.4684661628	 0.457917
C	 3.0577717543	-1.808141374	 0.4757746683	-0.266195
O	 3.4414968104	-0.5185364012	 0.9763092708	-0.277175
C	 0.8480603644	-0.4891792025	 1.2980192936	-0.116003
C	 1.0027046134	 0.5611441372	 2.3863874257	-0.083314
O	-0.2596489213	 0.7244351502	 3.0188729733	-0.424732
H	-0.2890725614	 2.0607198256	 0.3247581772	 0.110794
H	-1.1178606559	 1.3716297785	-1.0740438683	 0.106684
H	-1.6690048924	 0.9892692483	 0.5701274902	 0.129686
H	-0.3841703447	-0.9100761508	-0.4513476534	 0.075372
H	 1.671340534	-0.3383168315	-1.7122742192	 0.102185
H	 1.89694857	 1.1242870625	-0.7269883165	 0.110034
H	 2.9602372901	-2.5908271795	 1.2276737755	 0.113641
H	 3.5482239075	-2.1108565013	-0.4489507854	 0.113408
H	 0.4357167264	-1.3940118871	 1.7546509227	 0.077022
H	 1.7695193107	 0.2192217222	 3.0974447572	 0.100948
H	 1.3643222403	 1.5101159095	 1.9602538065	 0.087168
H	-0.1693218405	 1.398453577	 3.6988377519	 0.285992
57.6608	115.6296	144.1154	207.1851	233.6602	250.0589	274.3802	332.6694	345.3394	369.68	480.5362	506.7916	582.2807	735.7978	807.1881	843.1602	873.2023	893.2918	933.3756	961.098	987.888	1029.254	1065.7593	1103.6061	1111.6868	1122.3994	1132.613	1166.3412	1173.8917	1200.1681	1225.8256	1237.3493	1247.6027	1272.963	1294.4908	1351.0136	1368.7297	1414.262	1435.6531	1458.566	1482.6004	1487.2572	1496.1837	1523.8644	1534.3418	2975.5228	3006.4	3033.2905	3044.5332	3050.0453	3064.7338	3075.5988	3095.5972	3105.2853	3117.5127	3161.9582	3828.4679
CC1CC2(CO2)C1CO	C[C@H]1C[C@]2(CO2)[C@H]1CO	
InChI=1S/C7H12O2/c1-5-2-7(4-9-7)6(5)3-8/h5-6,8H,2-4H2,1H3	InChI=1S/C7H12O2/c1-5-2-7(4-9-7)6(5)3-8/h5-6,8H,2-4H2,1H3/t5-,6-,7-/m0/s1
