21
gdb 72847	2.99675	1.19578	1.02817	0.9338	89.18	-0.249	0.0495	0.2985	1257.1986	0.181612	-349.903416	-349.89448	-349.893536	-349.937045	34.981	
C	-0.8442183059	 1.479337081	 0.0080158786	-0.493057
C	-0.1548490889	 0.1335687291	-0.0348351735	 0.38376
C	-1.0648675822	-1.1307525794	 0.1071405166	-0.282531
C	-0.278311537	-1.5660938058	 1.3805675261	-0.227007
C	 0.7400159947	-0.4341284853	 1.1321531258	-0.072031
C	 1.8482077714	-0.7941995662	 0.0779745522	-0.167517
C	 1.016416023	-0.0542718862	-1.0291494971	-0.297326
C	 3.1785762897	-0.2827466063	 0.3322133127	 0.290402
C	 4.2734475781	 0.1670332923	 0.5488403348	-0.438712
H	-0.1199366862	 2.2967611781	 0.0954292413	 0.11639
H	-1.4292194781	 1.6493152804	-0.9048099236	 0.11577
H	-1.5332831559	 1.5495260523	 0.8576438098	 0.112379
H	-2.1208753365	-0.9075981784	 0.2796037582	 0.099007
H	-1.0008301413	-1.8250697506	-0.7358929797	 0.095919
H	-0.854568162	-1.4138958088	 2.2970727958	 0.101486
H	 0.1209120192	-2.584741169	 1.3961747455	 0.096515
H	 1.0802752839	 0.1665596622	 1.9760807772	 0.07272
H	 1.9002785731	-1.8753753149	-0.0920742498	 0.096981
H	 0.8120078384	-0.6230547626	-1.9409410727	 0.09711
H	 1.4830116182	 0.8949365438	-1.3039699534	 0.109206
H	 5.2442263141	 0.5526758243	 0.7379625952	 0.190534
47.5207	147.4248	169.0674	224.0606	254.2398	325.4944	351.553	362.69	461.6956	514.2206	590.3812	616.2167	618.3378	649.5117	733.0371	793.1197	845.4103	886.4747	892.9836	926.1285	955.0249	965.0579	986.4351	1023.0613	1051.2414	1073.7215	1123.7459	1163.5344	1167.3834	1210.2283	1231.6967	1234.6925	1246.0132	1255.3589	1278.1808	1284.7144	1336.0527	1352.9245	1411.3565	1474.463	1480.1032	1490.8312	1491.8603	1497.7583	2230.1861	3015.2998	3038.0859	3046.4366	3050.7033	3054.5191	3077.6995	3088.1441	3089.6549	3105.0724	3109.3473	3112.6044	3505.506
CC12CCC1C(C2)C#C	C[C@]12CC[C@H]1[C@@H](C2)C#C	
InChI=1S/C9H12/c1-3-7-6-9(2)5-4-8(7)9/h1,7-8H,4-6H2,2H3	InChI=1S/C9H12/c1-3-7-6-9(2)5-4-8(7)9/h1,7-8H,4-6H2,2H3/t7-,8+,9-/m1/s1
