20
gdb 116725	3.50175	0.87161	0.82014	2.8354	84.69	-0.2405	0.0184	0.2589	1505.126	0.170784	-403.149313	-403.139946	-403.139002	-403.184901	33.211	
C	 0.2806506353	 0.4260332841	-0.6760506631	-0.249246
O	-0.1570947702	 0.0159337371	 0.6120191746	-0.194296
C	 0.6260183529	-0.8978754897	 1.2268769044	 0.129392
N	 0.3193479076	-1.3167012462	 2.3723164538	-0.243782
C	 1.1536534436	-2.3224416713	 3.0372610739	 0.020513
C	 0.4141659682	-3.6909550808	 3.1182258092	-0.211416
C	 1.0914397844	-4.603684116	 2.0653071957	-0.249185
C	 2.4145582632	-3.9173704891	 1.8210806697	-0.05532
C	 2.4583537406	-2.6984595926	 2.3570404886	-0.105917
H	 0.3174052348	-0.41622344	-1.3783057703	 0.124396
H	-0.4496353	 1.1537899527	-1.0322980986	 0.143905
H	 1.2683359989	 0.9022104795	-0.6348472359	 0.124013
H	 1.5003135377	-1.2113001576	 0.6410957469	 0.075118
H	 1.328771915	-1.930386663	 4.0462862471	 0.083177
H	 0.5578315929	-4.119015642	 4.1146087143	 0.10169
H	-0.6582147169	-3.5631724604	 2.9614293094	 0.112507
H	 1.2127343411	-5.6312636201	 2.4260536651	 0.104248
H	 0.5122870726	-4.6752993328	 1.1342594919	 0.108058
H	 3.2188076731	-4.3829786674	 1.2601037102	 0.092023
H	 3.3008490651	-2.0172404944	 2.2961389932	 0.090124
41.9757	65.4589	101.4039	147.432	152.7805	235.7769	271.6355	393.5382	408.9072	502.8365	585.1835	724.0754	738.331	808.4322	811.5192	889.6119	920.554	972.7544	985.1463	988.0435	1005.6644	1057.6617	1063.3126	1082.0036	1130.9943	1166.1072	1177.395	1187.6941	1220.1495	1276.1434	1280.3394	1313.5101	1324.4474	1346.8084	1378.6904	1406.1594	1478.1143	1485.3058	1494.6637	1495.7862	1501.5913	1681.8175	1767.0357	3007.5901	3014.8034	3023.6121	3030.8082	3051.9296	3068.0808	3071.0433	3122.1756	3141.215	3170.7051	3196.8611
COC=NC1CCC=C1	COC=N[C@H]1CCC=C1	
InChI=1S/C7H11NO/c1-9-6-8-7-4-2-3-5-7/h2,4,6-7H,3,5H2,1H3	InChI=1S/C7H11NO/c1-9-6-8-7-4-2-3-5-7/h2,4,6-7H,3,5H2,1H3/t7-/m1/s1
