14
gdb 13049	4.27446	1.41347	1.12103	2.6113	61.28	-0.2671	-0.0028	0.2643	1008.973	0.107062	-415.839949	-415.832363	-415.831419	-415.872874	26.192	
N	 0.0202514303	 1.2042083111	-0.0371177106	-0.432854
C	-0.0754723792	-0.0358977213	-0.2348093026	 0.121126
O	-1.0925935838	-0.7184373781	 0.3571002395	-0.195826
C	-1.0899458071	-2.1154904574	 0.1738822375	-0.02171
C	-2.4239267432	-2.7776947069	 0.5541417797	-0.109831
O	-2.5599391976	-3.2936233102	-0.8107410052	-0.248003
C	-1.416163645	-2.646532449	-1.2194253121	 0.430895
N	-0.871157991	-2.5373500722	-2.3408157423	-0.541384
H	 0.8170449797	 1.5756855061	-0.5505530075	 0.234868
H	 0.5687621518	-0.6626341302	-0.8601878349	 0.124122
H	-0.2034024326	-2.5760747658	 0.6232609023	 0.12061
H	-2.3868638433	-3.5906539113	 1.2807069366	 0.132158
H	-3.216160167	-2.0652952868	 0.7899155426	 0.147315
H	-1.3984843118	-3.013442578	-3.074660773	 0.238512
72.6612	87.4799	115.3873	191.9625	279.58	384.1404	464.6914	549.398	707.6699	756.6907	826.8721	856.2195	873.9561	952.3313	962.508	1012.1317	1037.5331	1044.5636	1103.4798	1155.0802	1189.6886	1230.3057	1249.2883	1286.9728	1340.0883	1389.1962	1429.4084	1507.1789	1748.4503	1830.7053	3051.1697	3076.6992	3082.5132	3150.5143	3479.5613	3518.5028
N=COC1COC1=N	[NH][CH]O[C@H]1CO[C]1[NH]	
InChI=1S/C4H6N2O2/c5-2-8-3-1-7-4(3)6/h2-3,5-6H,1H2	InChI=1S/C4H6N2O2/c5-2-8-3-1-7-4(3)6/h2-3,5-6H,1H2/t3-/m0/s1
