21
gdb 40047	3.12647	1.50794	1.42861	1.5212	81.02	-0.2357	0.0914	0.3272	1025.3024	0.18575	-387.090307	-387.083147	-387.082203	-387.121584	30.16	
C	 0.0118771659	 1.512712926	 0.01543874	-0.33517
C	 1.3088778625	 0.7337257091	-0.0166295113	-0.344764
C	-0.0102654006	 0.0110101191	 0.0128033594	 0.431549
C	-0.4511263756	-0.8305943875	 1.2329904512	-0.304529
C	-1.1225838092	-2.0333224233	 0.5371739087	 0.108848
C	-0.2476667658	-2.2397614878	-0.7090031681	-0.237826
C	-0.50381483	-0.7952733819	-1.1941317557	-0.121289
C	-2.0421433928	-0.7846977916	-1.1625612924	-0.072849
O	-2.3727391142	-1.5896473744	-0.0137520019	-0.282992
H	-0.2522960792	 2.0289023903	 0.9329254439	 0.111224
H	-0.287888369	 2.0355010898	-0.8878649623	 0.107908
H	 1.8803299614	 0.7337043998	-0.939831188	 0.108009
H	 1.917148984	 0.7194070265	 0.8825203794	 0.108583
H	 0.40007594	-1.1426268101	 1.848621043	 0.09412
H	-1.1688570389	-0.312347136	 1.8747091426	 0.107228
H	-1.3203842009	-2.8966019041	 1.1732474187	 0.071602
H	 0.8026146284	-2.4386731269	-0.4828216443	 0.10009
H	-0.6403340516	-3.010522721	-1.3768570587	 0.099701
H	-0.071974679	-0.499705757	-2.1516383692	 0.061169
H	-2.4550999844	 0.2235355055	-1.0408605883	 0.098821
H	-2.4815306611	-1.2360828943	-2.0624682067	 0.090566
112.0239	232.7171	279.5551	306.9812	390.1186	426.5699	493.1104	530.0563	664.0876	776.1272	784.5192	800.7797	846.996	874.6989	892.6062	926.8532	932.5407	934.5329	949.299	962.8739	977.8458	1001.911	1028.1033	1053.3304	1060.2591	1078.3549	1092.8913	1130.0837	1170.8576	1186.874	1195.5115	1217.3083	1249.8117	1268.2504	1279.1687	1296.7216	1310.8804	1332.9335	1380.6974	1390.5326	1467.4061	1476.915	1491.3003	1505.1524	1528.995	3005.7864	3038.6389	3053.0629	3065.4144	3094.2654	3103.0471	3116.6588	3117.8924	3122.5494	3122.6737	3195.3556	3210.492
C1CC11CC2CC1CO2	C1CC21C[C@@H]1C[C@H]2CO1	
InChI=1S/C8H12O/c1-2-8(1)4-7-3-6(8)5-9-7/h6-7H,1-5H2	InChI=1S/C8H12O/c1-2-8(1)4-7-3-6(8)5-9-7/h6-7H,1-5H2/t6-,7-/m0/s1
