17
gdb 29969	6.1671	0.82748	0.75019	4.8067	80.22	-0.2081	0.0219	0.23	1491.6488	0.13623	-418.030523	-418.021709	-418.020765	-418.065162	31.298	
C	-0.2312385715	 1.3950785446	 0.1210699559	-0.335281
N	 0.0123792146	-0.0275539593	 0.0048603459	 0.025599
C	 0.0136125739	-0.7414940566	-1.1630153008	-0.073108
C	 0.2064123458	-2.0740800711	-0.8689623846	-0.294802
C	 0.3123535673	-2.1537206754	 0.54515654	 0.312349
O	 0.5751712512	-3.2660818947	 1.3103871756	-0.213971
C	-0.1590274308	-4.3778692113	 1.0661079987	 0.107434
N	 0.1392063712	-5.4592050027	 1.6420470135	-0.437977
C	 0.1865086887	-0.8860615075	 1.0643874109	-0.20371
H	 0.4496575888	 1.8344640511	 0.8550807335	 0.144968
H	-0.0501731188	 1.8701417502	-0.8451061036	 0.142961
H	-1.2618899295	 1.6060411665	 0.4281679109	 0.141533
H	-0.1150687893	-0.242567466	-2.1104053599	 0.121751
H	 0.299354003	-2.882321409	-1.5766777847	 0.108223
H	-0.9822209865	-4.2003508561	 0.3636595043	 0.096591
H	-0.5197597115	-6.185942024	 1.3704085465	 0.229511
H	 0.2176202336	-0.5374703586	 2.082893458	 0.127926
48.7365	72.4323	107.8221	142.1636	194.6597	300.0441	379.2458	444.1322	480.6685	617.2227	636.8044	670.7428	695.1432	761.7773	790.0054	801.2727	826.1871	991.3098	1012.0141	1050.7263	1061.1664	1084.9173	1107.2891	1150.1136	1201.0054	1263.0022	1287.1822	1385.7667	1407.5602	1416.3009	1420.0475	1458.0104	1485.9744	1517.8245	1546.4473	1604.5935	1744.3707	3033.1815	3050.9055	3099.0246	3135.5204	3251.2816	3269.3165	3275.875	3518.2361
CN1C=CC(OC=N)=C1	Cn1ccc(O[CH][NH])c1	
InChI=1S/C6H8N2O/c1-8-3-2-6(4-8)9-5-7/h2-5,7H,1H3	InChI=1S/C6H8N2O/c1-8-3-2-6(4-8)9-5-7/h2-5,7H,1H3
