12
gdb 12620	3.52593	2.07145	1.35226	3.4185	57.52	-0.2429	-0.1017	0.1411	827.5422	0.083137	-418.501641	-418.494684	-418.49374	-418.53311	25.023	
O	 0.4480146771	 1.3851589271	-0.0688470631	-0.432518
C	 0.2281547074	 0.0035854407	 0.0747248505	-0.000047
C	 0.6651660869	-0.5226963979	 1.4199186468	-0.071717
C	-0.2344781141	-1.338058588	 1.996069669	-0.179575
C	-1.4788844718	-1.4035813204	 1.2035459819	 0.298596
O	-2.4682431592	-2.0703818278	 1.3717312022	-0.294682
C	-1.260276507	-0.3696883401	 0.0659731687	 0.268694
O	-2.0948004023	 0.1433660777	-0.6277489821	-0.286967
H	-0.2427272548	 1.7133459454	-0.6603840424	 0.302707
H	 0.7368793136	-0.5642201921	-0.725844452	 0.114593
H	 1.6332831942	-0.2601492745	 1.8323210398	 0.142338
H	-0.11272155	-1.8657831501	 2.9334877307	 0.138578
68.5405	206.5156	248.9352	304.5603	330.896	340.7144	497.6883	558.1001	668.8883	706.9801	722.4124	745.7129	895.6661	978.9521	1012.8932	1018.5902	1085.5036	1147.8109	1196.4276	1216.8905	1331.7815	1361.9327	1409.8031	1628.4084	1825.1956	1860.5506	2936.2602	3197.942	3226.3646	3762.0018
OC1C=CC(=O)C1=O	O[C@H]1C=CC(=O)C1=O	
InChI=1S/C5H4O3/c6-3-1-2-4(7)5(3)8/h1-3,6H	InChI=1S/C5H4O3/c6-3-1-2-4(7)5(3)8/h1-3,6H/t3-/m0/s1
