21
gdb 82321	2.47855	1.71838	1.28329	1.5627	80.86	-0.2545	0.0801	0.3346	1062.7393	0.184291	-387.076695	-387.068702	-387.067758	-387.108763	32.829	
O	 0.5899420061	 0.5399167001	-0.8519732039	-0.433474
C	 0.1814101692	-0.4877028227	 0.0358706841	 0.057307
C	 0.613889788	-0.3008013309	 1.4813656019	-0.064525
C	-0.1894934458	 0.6747802378	 2.3173098255	-0.307764
C	-0.4953649226	-0.7994716296	 2.3786474216	-0.030124
C	-1.6290302401	-1.3120543063	 1.4956243691	-0.299672
C	-1.3440493037	-0.7040342892	 0.1231113678	 0.325356
C	-2.2834177385	 0.3065379259	-0.4935425777	-0.303748
C	-2.1407469606	-1.0691187657	-1.0944864512	-0.337596
H	 0.3994486766	 1.3791445827	-0.4181293451	 0.279284
H	 0.6520275298	-1.3951524527	-0.3635820396	 0.087165
H	 1.6588496827	-0.4527906164	 1.7264890006	 0.084681
H	 0.3145118208	 1.1145361235	 3.1707744337	 0.11054
H	-0.9016102188	 1.3360794595	 1.8334747224	 0.114603
H	-0.2699159666	-1.3342002691	 3.2945109253	 0.081808
H	-1.5821241694	-2.4078746338	 1.4480581412	 0.100475
H	-2.6241230697	-1.0483371164	 1.8723087812	 0.096846
H	-3.1964225764	 0.5456864335	 0.0423706605	 0.105778
H	-1.8516078822	 1.1313021474	-1.0494039965	 0.109056
H	-1.608060871	-1.1449273434	-2.0373847819	 0.118099
H	-2.9603271477	-1.7717206543	-0.9815986589	 0.105907
97.0743	196.0488	236.9876	274.3588	332.0397	361.198	383.2009	428.1831	523.4811	583.3766	609.5987	755.877	778.135	793.0764	834.259	868.3116	901.1962	924.0041	928.9692	936.8266	990.4421	1016.7825	1043.6109	1058.3686	1062.016	1084.532	1087.7938	1093.3681	1110.4287	1123.3166	1192.8769	1197.8436	1203.241	1259.6682	1284.1827	1299.6572	1311.5978	1346.8373	1365.4034	1396.2147	1430.8765	1454.6363	1480.5808	1497.1172	1500.1841	3017.1952	3027.6019	3056.0663	3121.4238	3127.5922	3127.7996	3167.2998	3176.6112	3202.1303	3213.3607	3218.3459	3801.2466
OC1C2CC2CC11CC1	O[C@H]1[C@H]2C[C@H]2CC21CC2	
InChI=1S/C8H12O/c9-7-6-3-5(6)4-8(7)1-2-8/h5-7,9H,1-4H2	InChI=1S/C8H12O/c9-7-6-3-5(6)4-8(7)1-2-8/h5-7,9H,1-4H2/t5-,6-,7-/m0/s1
