20
gdb 10880	2.62966	1.91635	1.65458	1.566	75.3	-0.2466	0.0736	0.3202	933.1446	0.176303	-348.960266	-348.951875	-348.95093	-348.992354	32.518	
C	-0.1557320821	 1.5611245591	-0.049106738	-0.447651
C	 0.0352874199	 0.0506128714	-0.0125502622	 0.007305
C	 1.216662937	-0.6576852141	-0.7540497417	-0.115088
C	 2.1540813958	-0.1620052147	 0.3818825415	-0.270757
C	 0.8717185286	-0.6554681042	 1.1196705869	 0.280927
C	 0.5908249247	-0.6639500932	 2.5982897968	-0.519777
C	 0.9611332432	-1.8945007468	 0.161498591	 0.158509
O	-0.1174056279	-2.7666861217	-0.0272358164	-0.453035
H	 0.7680500065	 2.1236903833	 0.1042662605	 0.120123
H	-0.5715165208	 1.8694464641	-1.0148331044	 0.117989
H	-0.8658186185	 1.8751071962	 0.7244182717	 0.117624
H	-0.9468753947	-0.4091245493	-0.1883899361	 0.032465
H	 1.4210146257	-0.6548843328	-1.8259032283	 0.067249
H	 3.0641240705	-0.7456954796	 0.5517025264	 0.088655
H	 2.3700540433	 0.904784071	 0.4185461073	 0.096339
H	 0.5190949819	 0.3524208203	 3.001302237	 0.117394
H	-0.3530922985	-1.1785689528	 2.8103815792	 0.120359
H	 1.3836776661	-1.1857314644	 3.1454655709	 0.120595
H	 1.8312399657	-2.5363196652	 0.3250145964	 0.076843
H	-0.9078708963	-2.2594770566	-0.2368721985	 0.283931
173.4531	175.0802	187.2802	197.2265	238.6029	254.9042	340.044	399.733	446.272	547.2479	629.1825	632.0182	755.5969	773.6691	796.0099	866.3302	896.4766	941.0499	1003.7391	1008.904	1017.1124	1085.8298	1096.4811	1108.1681	1120.4054	1159.1937	1178.4807	1189.3303	1222.1378	1235.0102	1252.4768	1281.75	1325.6614	1406.8499	1411.2214	1432.4228	1458.0348	1488.5288	1489.4415	1496.6165	1500.1431	1532.6787	2995.4846	3024.3637	3033.2388	3057.4847	3077.8758	3087.415	3090.9466	3092.9518	3102.4328	3115.2564	3143.0533	3816.6532
CC1C2CC1(C)C2O	C[C@H]1[C@H]2C[C@]1(C)[C@H]2O	
InChI=1S/C7H12O/c1-4-5-3-7(4,2)6(5)8/h4-6,8H,3H2,1-2H3	InChI=1S/C7H12O/c1-4-5-3-7(4,2)6(5)8/h4-6,8H,3H2,1-2H3/t4-,5+,6-,7-/m0/s1
