13
gdb 12660	3.49649	2.03931	1.33576	2.7723	56.63	-0.27	-0.0827	0.1873	847.633	0.09559	-435.752156	-435.745112	-435.744168	-435.783623	25.619	
O	 0.2233919915	 1.2866613795	 0.431272073	-0.434027
C	 0.0007555932	-0.0335859336	 0.0382967165	 0.046645
C	-1.47421719	-0.3974105255	-0.1764008105	-0.12949
O	-1.4572726532	-1.4707547055	-1.1513825112	-0.244033
C	-0.3397256805	-1.4057335299	-1.9297439444	 0.343188
N	-0.0880243914	-2.1001027881	-2.9512178005	-0.502356
C	 0.5730649833	-0.3573375963	-1.3345455839	 0.28142
O	 1.5144400798	 0.1949683244	-1.8365448575	-0.292455
H	 0.9885136876	 1.596070575	-0.0760029556	 0.300828
H	 0.4426958623	-0.7535857821	 0.7508987247	 0.11676
H	-1.9833986401	-0.7739998462	 0.7104788699	 0.137892
H	-2.0185550965	 0.4642624705	-0.5775358815	 0.137526
H	-0.8578944861	-2.7407573421	-3.1590699191	 0.238101
86.6894	170.3841	235.0266	321.7543	338.4333	365.9956	469.2316	553.1955	589.8996	639.0513	734.2965	813.6924	909.4889	969.6926	990.5866	1032.6906	1064.2943	1109.9463	1181.6024	1208.6517	1250.8941	1283.9978	1351.4289	1397.9304	1409.775	1520.4723	1763.389	1863.3289	2946.4668	3056.9481	3139.6676	3462.595	3727.6428
OC1COC(=N)C1=O	O[C@H]1CO[C]([NH])C1=O	
InChI=1S/C4H5NO3/c5-4-3(7)2(6)1-8-4/h2,5-6H,1H2	InChI=1S/C4H5NO3/c5-4-3(7)2(6)1-8-4/h2,5-6H,1H2/t2-/m0/s1
