20
gdb 83754	2.46104	1.83344	1.45066	1.6678	77.72	-0.2306	0.0627	0.2934	1001.8556	0.17243	-403.127897	-403.119807	-403.118863	-403.159992	32.004	
C	-0.0564201336	 1.4816307609	 0.0053528996	-0.507813
C	 0.0869930916	-0.0104380621	 0.0754006744	 0.338154
C	 0.7799103096	-0.8138261298	-0.9675766433	-0.065978
C	 1.5348942773	-2.0892277328	-0.6159860986	-0.242275
C	 0.4399594226	-2.9713817163	 0.0351782594	-0.199038
C	-0.6765716663	-1.9738951296	 0.3207990873	-0.048773
C	-0.2297348089	-0.8477223569	 1.2975050509	 0.04859
O	 0.845136075	-1.057606716	 2.1920605148	-0.435234
N	-0.6895962657	-0.9700079427	-0.8291205402	-0.193554
H	 0.7639946421	 1.973094336	 0.5406932633	 0.127788
H	-0.0405380176	 1.827737911	-1.0321554089	 0.126598
H	-0.9996153775	 1.8095988145	 0.4562813396	 0.118228
H	 1.0755700996	-0.2615750097	-1.8551644214	 0.085293
H	 1.9511896091	-2.5510603009	-1.5157301032	 0.099437
H	 2.3578413302	-1.8905593693	 0.0740536552	 0.121599
H	 0.0877218913	-3.7413264127	-0.6579759572	 0.1025
H	 0.7863819091	-3.4640967663	 0.9473229666	 0.098544
H	-1.6579159227	-2.4137636123	 0.5017754381	 0.06764
H	-1.0970135415	-0.4240584382	 1.8210469883	 0.073796
H	 0.4987998162	-1.436950117	 3.005705215	 0.284498
155.306	164.9787	221.6445	231.9609	260.7888	264.6611	330.5226	494.8515	540.2903	580.8502	696.3022	713.2084	772.7665	806.9831	821.5113	850.9718	871.1675	922.1659	959.159	984.8782	1033.0554	1056.3179	1071.0789	1074.4262	1089.5442	1140.3401	1161.6716	1199.3019	1230.5539	1245.4449	1262.8646	1276.0887	1292.7159	1323.8942	1337.6142	1356.9768	1408.5285	1418.594	1464.1902	1473.424	1484.6375	1493.086	1499.5964	3013.1288	3028.3935	3052.5586	3063.8165	3090.5518	3097.4095	3105.531	3110.2007	3115.2783	3152.6907	3819.4656
CC12C3CCC(C1O)N23	C[C@@]12[C@H]3CC[C@@H]([C@H]1O)N23	
InChI=1S/C7H11NO/c1-7-5-3-2-4(6(7)9)8(5)7/h4-6,9H,2-3H2,1H3	InChI=1S/C7H11NO/c1-7-5-3-2-4(6(7)9)8(5)7/h4-6,9H,2-3H2,1H3/t4-,5+,6+,7+,8?/m0/s1
