19
gdb 26169	2.59012	1.36902	1.09349	2.9282	79.21	-0.1908	0.0423	0.233	1185.3762	0.160714	-415.406655	-415.397383	-415.396439	-415.44077	34.281	
C	 0.2752088203	 1.0023897881	-0.5338736877	-0.319948
N	 0.0415708651	-0.1572942884	 0.3271592605	-0.185113
C	 0.5053365961	 0.0809932572	 1.6947812685	-0.320745
C	-1.2877475262	-0.6346400246	 0.2667918442	 0.251813
C	-1.6577064311	-1.867748161	-0.2114780055	 0.225435
N	-0.9013141597	-2.9550150556	-0.6672583861	-0.611451
N	-3.026308242	-1.9173063333	-0.0716885616	-0.287081
C	-3.4194868339	-0.7224460532	 0.4788410906	-0.007778
N	-2.4006138599	 0.0671409126	 0.6982006735	-0.295417
H	 1.34549264	 1.2364778937	-0.5464658565	 0.106363
H	-0.039048938	 0.7681962837	-1.554590501	 0.111915
H	-0.272730203	 1.8990596894	-0.2020088066	 0.114859
H	-0.0241519445	 0.9124204445	 2.1871216661	 0.115012
H	 0.3555520092	-0.821880518	 2.2927039713	 0.116947
H	 1.5760052184	 0.3130968933	 1.6801593681	 0.106068
H	 0.0791880754	-2.7027881982	-0.5832793005	 0.252337
H	-1.0821919733	-3.174716067	-1.643065148	 0.241428
H	-3.6064437699	-2.7158667399	-0.2664176044	 0.262657
H	-4.4575374929	-0.4994117235	 0.675395965	 0.122698
46.6742	152.9985	154.37	227.4381	237.757	269.2164	276.8262	296.6156	380.5249	455.847	486.3531	537.8425	616.8203	667.2882	734.0956	755.3252	781.1941	875.4916	932.9375	973.9133	1055.7682	1078.8557	1107.9507	1115.1462	1177.0122	1196.7303	1223.0942	1226.6433	1284.8014	1352.7763	1396.5571	1435.6003	1460.8028	1477.5374	1482.7227	1494.2102	1500.4114	1512.8203	1541.7504	1635.9681	1674.5534	2975.3878	2981.335	3059.5151	3061.3766	3106.8129	3110.4186	3246.3719	3480.3592	3567.1222	3665.2492
CN(C)C1=C(N)NC=N1	CN(C)c1c(N)[nH]cn1	
InChI=1S/C5H10N4/c1-9(2)5-4(6)7-3-8-5/h3H,6H2,1-2H3,(H,7,8)	InChI=1S/C5H10N4/c1-9(2)5-4(6)7-3-8-5/h3H,6H2,1-2H3,(H,7,8)
