21
gdb 80653	2.46458	1.71014	1.25308	2.7139	81.32	-0.2336	-0.0154	0.2182	1078.1956	0.18411	-387.118426	-387.110417	-387.109472	-387.151053	32.062	
C	-0.5263973579	 1.3672186719	-0.0250337982	-0.406268
C	 0.0734588827	-0.0445819517	 0.0025147134	-0.081885
C	 0.899322128	-0.3899451334	-1.2472872517	-0.011399
C	 1.513262881	-1.8106468626	-1.1109395535	-0.238598
C	 2.668654351	-1.1342666212	-0.3228046468	-0.014371
C	 2.3489039244	 0.1640583527	-1.1180034187	-0.235684
C	 2.2589045533	-0.9545022899	 1.1404400492	-0.313604
C	 0.9001410408	-0.2576353292	 1.2867763647	 0.392244
O	 0.4965099974	 0.1097552904	 2.3650701127	-0.324908
H	 0.2511336522	 2.1251821872	-0.1693137204	 0.11764
H	-1.246421859	 1.4639866411	-0.843214159	 0.110807
H	-1.0319949378	 1.5785455403	 0.9193029454	 0.141087
H	-0.7581691344	-0.7621916163	 0.0760804208	 0.100334
H	 0.3414930873	-0.1588619939	-2.158612475	 0.062387
H	 0.9225162018	-2.5787335938	-0.5999018155	 0.089068
H	 1.8521116374	-2.200934726	-2.0740937698	 0.099069
H	 3.670700011	-1.5607665643	-0.4098867645	 0.065059
H	 2.8606442809	 0.1865322626	-2.0832905455	 0.101051
H	 2.4961827465	 1.1254424391	-0.6148593993	 0.095562
H	 2.1941966261	-1.9209339685	 1.6576309268	 0.125792
H	 2.9889421671	-0.3578769143	 1.6998201751	 0.126616
49.2075	192.9724	219.4283	275.0404	332.4821	362.1218	415.9846	460.1732	497.2091	559.6849	600.1587	695.8418	825.0794	829.6901	859.6147	865.3967	892.8086	917.1385	959.2786	979.0876	1017.2628	1045.3092	1068.8091	1076.2114	1093.1818	1116.5761	1124.884	1147.9276	1200.0077	1214.9207	1252.2869	1265.6758	1288.8665	1296.2257	1318.619	1328.6823	1359.1276	1365.2768	1401.6201	1446.4838	1480.9935	1495.1523	1502.0316	1511.2915	1809.587	2991.9775	3027.1582	3038.0464	3039.7455	3044.6981	3067.5518	3068.9182	3076.1098	3101.0007	3103.0977	3106.5012	3134.7203
CC1C2CC(C2)CC1=O	C[C@H]1[C@@H]2C[C@@H](C2)CC1=O	
InChI=1S/C8H12O/c1-5-7-2-6(3-7)4-8(5)9/h5-7H,2-4H2,1H3	InChI=1S/C8H12O/c1-5-7-2-6(3-7)4-8(5)9/h5-7H,2-4H2,1H3/t5-,6-,7+/m0/s1
