17
gdb 45592	2.75423	1.63552	1.26199	3.5035	68.32	-0.2467	-0.0242	0.2225	1007.5335	0.137042	-458.965587	-458.958307	-458.957363	-458.99756	28.152	
O	-0.0420866261	-0.0722659636	-0.0817926513	-0.291477
C	-0.0603642869	 1.1158867658	 0.0335975771	 0.39733
C	-1.1593945723	 2.1709403392	 0.2615149778	-0.34873
C	-0.0383645164	 3.1301851375	 0.734941352	 0.080758
O	 0.0124581909	 3.0803096238	 2.1524745502	-0.252681
C	 1.3246593169	 3.1119584141	 2.6595590876	 0.016733
O	 2.0645209088	 1.9852678745	 2.2856775177	-0.225947
C	 2.3214077155	 1.9767217174	 0.8887781992	-0.118751
C	 1.0413271662	 2.1974567187	 0.0937641878	-0.150145
H	-1.6170601934	 2.4778332217	-0.6846292167	 0.129844
H	-1.9363903028	 1.9419100431	 0.9925169534	 0.143717
H	-0.0731998316	 4.167309664	 0.3831152666	 0.077025
H	 1.8407043468	 4.0343272894	 2.3312287121	 0.075918
H	 1.237267136	 3.0952823032	 3.7470788256	 0.124409
H	 3.0580846316	 2.7588132482	 0.6429725233	 0.096637
H	 2.7586462155	 1.0029623297	 0.6519614206	 0.135619
H	 1.2715147914	 2.5124257134	-0.9310556528	 0.10974
89.6541	138.2355	213.2483	356.6897	393.4443	417.9524	450.1674	512.2871	560.2031	702.7428	725.7705	753.4011	817.4372	882.3406	932.3144	954.9753	1003.8363	1021.1008	1021.9511	1063.2756	1088.5352	1130.9316	1153.705	1182.7527	1208.4079	1238.2576	1264.9346	1284.2014	1313.3123	1334.8183	1361.3911	1400.3335	1428.2559	1443.999	1489.0561	1509.0456	1903.1204	2924.137	2974.1509	3039.0885	3051.4296	3065.9134	3094.8461	3121.4321	3137.3861
O=C1CC2OCOCC12	O=C1C[C@H]2OCOC[C@@H]12	
InChI=1S/C6H8O3/c7-5-1-6-4(5)2-8-3-9-6/h4,6H,1-3H2	InChI=1S/C6H8O3/c7-5-1-6-4(5)2-8-3-9-6/h4,6H,1-3H2/t4-,6+/m0/s1
