23
gdb 96357	2.08454	1.69102	1.21841	1.7095	80.89	-0.2531	0.077	0.3301	1153.8371	0.205546	-425.442618	-425.433175	-425.432231	-425.475914	36.885	
C	-0.0726209966	 1.5321536362	-0.144751242	-0.419399
C	 0.0476560309	 0.0225636581	 0.003853032	 0.121492
O	 0.7091590217	-0.4530013851	-1.1721656264	-0.25487
C	 0.7806177041	-1.8507001462	-1.205853231	 0.011466
O	 1.5031204968	-2.3804876292	-0.127404045	-0.239451
C	 0.8938372862	-2.0215216827	 1.103677737	-0.105072
C	 0.7894359091	-0.4892686478	 1.2720291269	 0.237578
C	 2.2008902846	 0.1100817131	 1.3838726101	-0.417961
C	-0.0261001921	-0.1953011088	 2.5387427283	-0.436694
H	 0.9119399911	 1.998360679	-0.2307708878	 0.13069
H	-0.635949707	 1.7657011972	-1.0521487286	 0.124683
H	-0.5965891965	 1.972047617	 0.7077151694	 0.117219
H	-0.9684725491	-0.4128029528	 0.0264251149	 0.057858
H	-0.2422848487	-2.2772575524	-1.2133570101	 0.07173
H	 1.3123913739	-2.1266517378	-2.118820452	 0.114454
H	-0.1130911152	-2.4704575982	 1.1651086369	 0.080971
H	 1.5092596149	-2.4595074059	 1.8953457435	 0.105857
H	 2.77600838	-0.0788800995	 0.4752558576	 0.136707
H	 2.1677240887	 1.1900139832	 1.5554281413	 0.109635
H	 2.738585386	-0.3386424822	 2.2263139722	 0.106122
H	 0.4312902615	-0.6764914523	 3.4107787329	 0.115308
H	-0.073435921	 0.8775416601	 2.7473754771	 0.119756
H	-1.0533412735	-0.568336973	 2.4547328129	 0.111921
124.3118	179.1621	203.5922	219.2912	224.0713	273.9261	286.376	327.1245	365.5641	388.3133	434.8726	453.5685	524.8394	553.9865	681.2579	747.0705	849.452	893.7543	921.1981	952.4402	974.9368	991.7314	1016.1222	1057.1127	1072.4525	1091.5097	1118.2711	1156.6205	1200.513	1218.6625	1245.4528	1250.1868	1299.4407	1338.0237	1367.6189	1379.066	1392.6964	1401.6457	1411.5184	1427.7994	1445.3341	1482.2177	1485.708	1486.1777	1494.3484	1505.144	1506.5517	1509.0572	1513.9326	2904.7845	2928.3149	2956.5302	3025.6166	3038.5931	3053.5802	3079.2567	3087.6387	3098.4173	3105.2233	3110.4186	3124.3127	3132.4959	3134.9852
CC1OCOCC1(C)C	C[C@H]1OCOCC1(C)C	
InChI=1S/C7H14O2/c1-6-7(2,3)4-8-5-9-6/h6H,4-5H2,1-3H3	InChI=1S/C7H14O2/c1-6-7(2,3)4-8-5-9-6/h6H,4-5H2,1-3H3/t6-/m1/s1
