20
gdb 39652	4.37125	1.10558	1.02201	2.3823	79.64	-0.2183	0.0805	0.2988	1215.5945	0.172112	-403.035101	-403.027533	-403.026589	-403.067633	29.702	
C	-0.0195058724	 0.9503806804	-0.8851514711	-0.105597
O	 0.8507611821	 1.8937743615	-0.2367169367	-0.276484
C	 0.9729681912	 1.0426602548	 0.9226970726	-0.084736
C	 0.3370000782	-0.14444626	 0.1678425117	-0.00075
N	-0.6185326884	-0.9330480191	 0.9239538147	-0.113178
C	-1.1187206393	-2.245203971	 0.3467356298	-0.012104
C	-2.2737096423	-2.1436457886	 1.3745735263	-0.213227
C	-2.1153362322	-0.755289305	 0.702419829	-0.021554
C	-2.0181126477	-1.4889653892	-0.6705185882	-0.23463
H	-1.0682667928	 1.2779904301	-0.8523898004	 0.096679
H	 0.2662375555	 0.7701452345	-1.9283125498	 0.101237
H	 2.0108066777	 0.9419803009	 1.2579664271	 0.102944
H	 0.3513235533	 1.3902981339	 1.7598163159	 0.096277
H	 1.1083455085	-0.8190867086	-0.2166107298	 0.088949
H	-0.4388445349	-3.080969477	 0.1696649559	 0.081094
H	-3.1857667177	-2.6980236585	 1.1487904628	 0.096179
H	-1.9795538818	-2.1961852363	 2.4225860308	 0.10668
H	-2.6316310392	 0.1736757133	 0.9484386151	 0.087328
H	-1.5138582913	-0.9695439905	-1.4855568769	 0.10981
H	-2.9160395664	-2.0011199654	-1.0293852486	 0.095082
71.59	117.8651	180.3112	235.2696	355.8897	391.395	538.1501	578.4479	728.4091	763.1747	783.4632	841.7643	872.2979	885.9552	889.7467	906.1734	916.3783	995.1558	1004.217	1013.1384	1028.6581	1048.699	1059.754	1090.7935	1110.1832	1124.1095	1145.1319	1154.5541	1179.4432	1190.0803	1198.2151	1217.196	1225.3322	1257.6399	1266.3087	1277.305	1299.2459	1345.4077	1395.2948	1480.5674	1503.9619	1526.1846	1532.3247	2994.9932	3008.0552	3045.7789	3055.5136	3059.7522	3074.5172	3079.6004	3096.4586	3107.6163	3139.3436	3161.5299
C1OCC1N1C2CC1C2	C1OCC1N1[C@H]2C[C@@H]1C2	
InChI=1S/C7H11NO/c1-5-2-6(1)8(5)7-3-9-4-7/h5-7H,1-4H2	InChI=1S/C7H11NO/c1-5-2-6(1)8(5)7-3-9-4-7/h5-7H,1-4H2/t5-,6+
