16
gdb 52521	3.87864	0.83486	0.69296	5.1605	79.22	-0.2607	-0.0579	0.2028	1569.863	0.121487	-437.913705	-437.903409	-437.902465	-437.952955	33.652	
C	-0.0402749853	 1.4856614488	 0.0361784401	-0.507813
C	 0.0171848783	 0.0347296342	 0.0208502297	 0.183389
C	 0.056558909	-1.1705612769	 0.0080469692	-0.075775
C	-0.0044743884	-2.6148364804	-0.0051311003	 0.283375
O	-1.0575371209	-3.2190251172	 0.0103132228	-0.336474
N	 1.2416292328	-3.2593597091	-0.0371783991	-0.148318
C	 2.5020127071	-2.5186806201	-0.055440051	-0.351031
C	 1.2786719901	-4.6546602089	-0.0521684609	 0.17333
O	 2.3019651494	-5.2949475914	-0.0797188878	-0.320387
H	 0.9612301909	 1.9273864772	 0.0482008801	 0.160877
H	-0.5674235203	 1.8597339072	-0.8480066046	 0.168783
H	-0.5809746403	 1.8411055487	 0.9198125823	 0.168809
H	 2.6010829024	-1.8982312714	 0.8383145531	 0.143276
H	 3.3010888688	-3.2587533881	-0.079326182	 0.173046
H	 2.5646937169	-1.8801160299	-0.9396752164	 0.143284
H	 0.2709369497	-5.0877293229	-0.0360401753	 0.141628
3.1456	50.3242	81.7596	100.1763	154.3143	192.4061	261.6566	318.6266	321.0186	364.9668	397.1901	433.8933	515.3842	658.2075	769.5811	800.5695	922.1205	1044.8843	1050.4128	1056.3752	1058.2806	1157.3855	1188.1833	1297.2718	1334.6886	1410.1644	1419.2033	1448.3568	1469.3017	1471.5724	1499.3207	1505.1645	1754.0027	1805.6779	2349.4894	3034.7076	3056.8679	3076.1172	3099.854	3103.0791	3123.5476	3167.438
CC#CC(=O)N(C)C=O	CC#CC(=O)N(C)C=O	
InChI=1S/C6H7NO2/c1-3-4-6(9)7(2)5-8/h5H,1-2H3	InChI=1S/C6H7NO2/c1-3-4-6(9)7(2)5-8/h5H,1-2H3
