17
gdb 73068	3.39111	1.0709	0.95763	2.8652	69.37	-0.2645	0.0014	0.2659	1237.8238	0.134345	-458.944638	-458.936007	-458.935063	-458.978482	31.472	
O	-0.1634728834	 1.4435602725	-0.3005720079	-0.459182
C	 0.0027324773	 0.0929954177	-0.0654982684	 0.350848
C	 0.7099143228	-0.8771482794	-1.0194133059	-0.292665
C	-0.3961656833	-1.9395437013	-0.7220350467	-0.227092
C	-1.0945259196	-0.9512748246	 0.2204796016	-0.161103
C	-0.1433209632	-0.4913954304	 1.2958638033	 0.023938
O	 0.8773382726	-1.3124306465	 1.8407889485	-0.193966
C	 0.4747789825	-2.3329546338	 2.6296470925	 0.175937
O	 1.2447109113	-3.0642046602	 3.1751830587	-0.274273
H	 0.6047914379	 1.9127725506	 0.045258327	 0.29139
H	 0.6674354953	-0.5176710829	-2.0489338992	 0.117401
H	 1.7388431256	-1.1420401877	-0.7642919055	 0.115867
H	-0.999387057	-2.1707656716	-1.6011806993	 0.115883
H	-0.0595468285	-2.8762835237	-0.2704106027	 0.114442
H	-2.1647669024	-0.8286877395	 0.3369294234	 0.10283
H	-0.5742951785	 0.1933741602	 2.02182531	 0.115214
H	-0.6264421993	-2.4058542894	 2.7047473906	 0.084533
55.079	132.4164	138.2761	209.4753	244.357	258.6628	315.5844	377.4866	478.3086	512.8136	622.5343	706.534	782.0107	799.2276	837.6273	911.8018	945.3052	964.652	1001.8364	1032.7468	1053.6769	1067.5949	1125.863	1142.9951	1164.4829	1209.4915	1227.5773	1237.1325	1253.2943	1302.8781	1315.116	1333.8246	1419.2278	1456.9485	1476.9207	1510.1227	1866.7878	2966.4781	3066.6291	3072.6001	3117.6273	3135.4734	3148.4967	3186.669	3786.1907
OC12CCC1C2OC=O	O[C@]12CC[C@H]1[C@H]2OC=O	
InChI=1S/C6H8O3/c7-3-9-5-4-1-2-6(4,5)8/h3-5,8H,1-2H2	InChI=1S/C6H8O3/c7-3-9-5-4-1-2-6(4,5)8/h3-5,8H,1-2H2/t4-,5+,6+/m0/s1
