24
gdb 103965	2.42675	1.35375	1.07668	1.6937	88.64	-0.2209	0.073	0.2939	1273.8988	0.216694	-368.372826	-368.362988	-368.362044	-368.407084	38.028	
C	-0.7247235036	 1.2754200679	 0.2468908622	-0.388385
C	-0.593829843	-0.2469556273	 0.1082924138	-0.249046
C	 0.2408595395	-0.7063646134	-1.0968392527	 0.341394
C	-0.4585452095	-0.3598238752	-2.4185713197	-0.443131
C	 1.7562063447	-0.3483682254	-1.1766214972	-0.228961
N	 2.1523764815	-1.7818650726	-1.4344272258	-0.155024
C	 1.80006681	-2.564665572	-0.2309883897	 0.020816
C	 2.0788452881	-2.1506152231	 1.1968790309	-0.429176
C	 0.6998195835	-2.1729619021	-1.1408511967	-0.106836
H	 0.2589272125	 1.7543477029	 0.3089278687	 0.116539
H	-1.2575659612	 1.7227852256	-0.5973130045	 0.119755
H	-1.2755370111	 1.5354675944	 1.1560561581	 0.113517
H	-0.166465963	-0.6484002292	 1.0310880442	 0.09799
H	-1.5941706958	-0.693320897	 0.0251014971	 0.092412
H	-0.5655793247	 0.721976939	-2.5438393737	 0.11517
H	 0.1127769546	-0.739583434	-3.2711023842	 0.126942
H	-1.460091064	-0.8041743065	-2.4589270123	 0.109337
H	 2.0216773898	 0.2667957859	-2.0391771366	 0.105194
H	 2.2146752057	 0.0928765282	-0.2862423678	 0.09592
H	 2.0999522738	-3.5991812745	-0.4030027148	 0.093309
H	 1.8610286978	-1.1045930473	 1.4101834801	 0.124695
H	 1.4851029208	-2.7608403567	 1.8859494241	 0.123248
H	 3.1358393566	-2.3230069093	 1.4285162093	 0.123099
H	 0.1951465468	-2.9224794283	-1.7479711528	 0.081223
67.5134	125.3451	152.5224	206.5137	239.601	250.4583	282.4678	300.1952	357.99	389.8954	424.4503	480.6368	595.3484	628.4893	691.4957	773.0229	779.6659	838.3477	892.5939	912.2119	945.6069	949.3244	972.6185	1012.3135	1021.27	1042.2908	1074.4332	1080.5172	1113.4354	1131.5222	1183.0656	1196.6824	1218.1946	1262.3202	1266.7521	1289.3967	1316.0356	1362.9996	1378.4364	1406.4478	1409.7997	1415.0854	1444.587	1480.0735	1491.0574	1494.4078	1498.7081	1501.1506	1509.1249	1513.5989	1518.2525	3019.45	3028.2292	3035.4196	3037.7598	3050.1694	3083.3052	3092.4958	3094.3337	3095.9484	3099.7284	3102.6096	3107.3413	3114.0529	3122.0543	3146.6062
CCC1(C)CN2C(C)C12	CC[C@@]1(C)CN2[C@@H](C)[C@@H]12	
InChI=1S/C8H15N/c1-4-8(3)5-9-6(2)7(8)9/h6-7H,4-5H2,1-3H3	InChI=1S/C8H15N/c1-4-8(3)5-9-6(2)7(8)9/h6-7H,4-5H2,1-3H3/t6-,7-,8-,9?/m0/s1
