15
gdb 17221	5.63326	1.68002	1.53116	1.1398	72.44	-0.2266	0.0329	0.2595	836.0245	0.11942	-325.412098	-325.405717	-325.404773	-325.442305	25.67	
C	 0.0558134826	-1.145659644	-0.0512621148	-0.373776
C	 0.0327298813	 0.0570972604	-0.0008884866	 0.095312
C	-0.0294507896	 1.4730667091	 0.08090579	 0.229426
C	-1.1065053037	 2.3694821267	 0.6891549493	-0.235375
N	-0.5357045408	 3.541476711	-0.0764741794	-0.17726
C	 0.8157995402	 3.7056946259	 0.5958010544	-0.180806
C	 1.2387350734	 2.376520762	-0.0011163552	-0.128241
C	 0.143574545	 2.5145454964	-1.0067536865	-0.073689
H	 0.0804579367	-2.2059228263	-0.0987760299	 0.182839
H	-2.1003748661	 2.1283058467	 0.3058320532	 0.119764
H	-1.1456252575	 2.5045575685	 1.7754984801	 0.104505
H	 1.342276243	 4.550811938	 0.1447088769	 0.116432
H	 0.7735638873	 3.83097203	 1.6830329477	 0.104657
H	 2.2161891309	 1.9281636136	-0.1242433861	 0.104425
H	 0.0736214575	 2.4743070522	-2.0841555629	 0.111786
156.4423	157.8492	381.5549	470.42	493.53	521.8033	546.729	578.19	656.3904	707.0699	779.0386	835.8308	845.9973	881.6225	918.334	934.5442	969.9767	1003.1258	1035.6538	1084.0453	1095.7776	1129.2863	1156.818	1186.3824	1207.4566	1230.0016	1278.4041	1304.2438	1386.957	1499.96	1521.1075	2231.6156	3038.8257	3047.3417	3103.3915	3112.7035	3200.7205	3226.8695	3503.2245
C#CC12CN3CC1C23	C#C[C@@]12CN3C[C@@H]1[C@@H]23	
InChI=1S/C7H7N/c1-2-7-4-8-3-5(7)6(7)8/h1,5-6H,3-4H2	InChI=1S/C7H7N/c1-2-7-4-8-3-5(7)6(7)8/h1,5-6H,3-4H2/t5-,6+,7-/m1/s1
