21
gdb 64277	2.82667	1.50473	1.35332	1.6267	77.66	-0.2407	0.0825	0.3231	1072.9757	0.182088	-424.222463	-424.213897	-424.212952	-424.254966	34.266	
C	 0.0383551788	 1.5062567086	 0.0036836862	-0.412664
C	-0.0259051368	-0.0139120252	-0.0159498455	 0.424357
C	-1.4699160896	-0.5297084724	 0.0729393304	-0.428938
O	 0.6160305902	-0.4114616195	-1.216819082	-0.275353
C	 0.6811232964	-1.8163962265	-1.422274432	-0.111755
C	 1.1593943187	-2.5485941898	-0.1860848992	-0.069428
C	 2.4379313923	-2.1433164706	 0.5119714661	-0.309983
C	 1.1047366474	-1.7927988295	 1.1187823862	 0.102545
O	 0.7279621342	-0.4442423199	 1.1155423075	-0.282018
H	 1.0767465047	 1.8231870708	-0.1106648988	 0.128779
H	-0.5527868946	 1.920632731	-0.8163491372	 0.119196
H	-0.3465913182	 1.8843010772	 0.9533528238	 0.122333
H	-2.0323746158	-0.2428801644	-0.8200921735	 0.122028
H	-1.509302481	-1.6163677349	 0.1758806353	 0.12117
H	-1.9553166874	-0.0935132802	 0.9494855491	 0.123772
H	-0.3015637419	-2.2077068164	-1.7250673773	 0.095031
H	 1.3645258417	-1.9575233057	-2.2659225113	 0.11233
H	 0.8921897114	-3.6006911653	-0.1551438121	 0.090167
H	 3.0399037292	-2.9178828607	 0.9740740771	 0.108992
H	 2.9921741616	-1.3109276191	 0.0919524686	 0.127418
H	 0.7843526286	-2.3119417675	 2.0183680885	 0.092022
111.3304	181.1105	197.3799	252.1398	287.3382	319.4855	339.3468	394.5707	447.4639	509.0641	517.0357	548.1982	706.8596	757.1727	777.2799	814.202	837.7308	895.0096	930.4698	941.0152	979.9263	1001.0373	1024.5655	1040.3983	1065.2075	1108.0905	1127.6745	1144.1716	1176.4331	1182.7563	1212.1149	1239.2197	1270.5746	1302.2453	1372.2893	1391.799	1397.5365	1410.6389	1419.3778	1473.9739	1479.1365	1480.7494	1494.0729	1498.2998	1518.476	2991.8984	3051.0945	3058.8838	3067.4176	3125.4273	3130.286	3131.685	3134.5279	3139.0901	3143.5329	3151.6376	3226.7548
CC1(C)OCC2CC2O1	CC1(C)OC[C@H]2C[C@H]2O1	
InChI=1S/C7H12O2/c1-7(2)8-4-5-3-6(5)9-7/h5-6H,3-4H2,1-2H3	InChI=1S/C7H12O2/c1-7(2)8-4-5-3-6(5)9-7/h5-6H,3-4H2,1-2H3/t5-,6-/m1/s1
