18
gdb 111478	2.74745	1.52931	1.1056	1.1595	71.94	-0.2234	-0.0352	0.1882	1110.1084	0.14721	-439.062491	-439.054147	-439.053202	-439.095966	30.944	
C	 0.0321734773	 1.2524184265	-0.2694757716	-0.245841
O	-0.0592751904	-0.1444293242	-0.0303209317	-0.244462
C	 0.6352267577	-0.5855629411	 1.1122971295	 0.006798
C	 0.2004131799	-1.9725457069	 1.5228831809	-0.052151
C	 0.5276610647	-3.0747066119	 0.5844687001	-0.242747
N	 1.3724412793	-2.8591772788	 1.7653323943	-0.104952
C	 2.5872535808	-2.0939759322	 1.4603644622	-0.271361
C	 2.1615852071	-0.7470178068	 0.8705493177	 0.359521
O	 2.8682366252	 0.0497488321	 0.311348226	-0.302517
H	 1.059969393	 1.5641150083	-0.4778687388	 0.143857
H	-0.5974396263	 1.4596601691	-1.1377686087	 0.127489
H	-0.3484776069	 1.8249455019	 0.5908496446	 0.102805
H	 0.4965889643	 0.1251256212	 1.9461829876	 0.088587
H	-0.6235235393	-2.0753434466	 2.2208819738	 0.100678
H	-0.0590552936	-3.9874976224	 0.6034051016	 0.125585
H	 0.9180365062	-2.805261057	-0.3954036973	 0.127762
H	 3.1455617941	-1.9124438374	 2.3881518205	 0.13907
H	 3.2524374967	-2.6318331236	 0.7782181791	 0.141879
49.3255	125.0641	172.7781	186.7104	257.02	337.711	388.6017	449.0806	460.9006	571.9733	637.776	661.8286	752.6987	787.8204	854.3929	960.4661	969.2693	971.7713	1023.7677	1062.9282	1092.2036	1110.97	1143.028	1156.3113	1163.4557	1182.2073	1217.3334	1226.6537	1271.7887	1289.3418	1300.5681	1362.6292	1392.6166	1455.9426	1475.0005	1482.7066	1512.0537	1518.7437	1849.2515	2949.6445	2985.7909	3029.6836	3083.3579	3091.4026	3103.8762	3128.7468	3163.5068	3196.9514
COC1C2CN2CC1=O	CO[C@H]1[C@H]2CN2CC1=O	
InChI=1S/C6H9NO2/c1-9-6-4-2-7(4)3-5(6)8/h4,6H,2-3H2,1H3	InChI=1S/C6H9NO2/c1-9-6-4-2-7(4)3-5(6)8/h4,6H,2-3H2,1H3/t4-,6+,7?/m1/s1
