14
gdb 28224	5.03386	1.30013	1.0503	1.2982	65.33	-0.1904	0.0014	0.1918	1079.2655	0.101304	-473.810839	-473.803409	-473.802465	-473.843029	26.774	
C	 0.1281982862	 1.4218244921	 0.0882036171	-0.489271
C	-0.0290879035	-0.044165591	-0.0608615603	 0.347876
N	-0.1683846791	-0.7485024503	-1.1550416364	-0.377266
C	-0.1492849775	-2.0337187763	-0.6925904808	 0.255009
C	-0.0159121825	-2.0587592349	 0.6302660976	 0.315615
O	-0.221211961	-3.2737095911	 1.19692347	-0.287592
C	-0.1547500727	-4.1010153467	-0.0164016966	 0.009585
O	-0.446651454	-3.2933249299	-1.172790617	-0.277252
O	 0.0501764568	-0.8073537185	 1.11146819	-0.221306
H	 1.1508853988	 1.693343096	 0.3755411421	 0.146767
H	-0.0992935883	 1.8925830358	-0.869038442	 0.161066
H	-0.5470797131	 1.8169563556	 0.8535604501	 0.146874
H	 0.8721535596	-4.4843421127	-0.0939115805	 0.123387
H	-0.8910673396	-4.8995290081	 0.0685666468	 0.146507
103.8923	121.699	209.0366	229.7528	279.1368	313.3292	507.0234	563.0106	645.673	680.3056	710.2846	756.7754	824.7256	854.4966	902.0661	1025.884	1037.3409	1059.8897	1123.7863	1145.4014	1208.5467	1252.5247	1379.4618	1404.9819	1425.2939	1470.2595	1477.5712	1489.0119	1516.8233	1585.628	1734.338	3006.4623	3034.3712	3090.5369	3145.7231	3152.2291
CC1=NC2=C(OCO2)O1	Cc1nc2c(OCO2)o1	
InChI=1S/C5H5NO3/c1-3-6-4-5(9-3)8-2-7-4/h2H2,1H3	InChI=1S/C5H5NO3/c1-3-6-4-5(9-3)8-2-7-4/h2H2,1H3
