20
gdb 99693	1.86319	1.14119	0.73705	3.9029	84.86	-0.2348	0.0346	0.2694	1566.8496	0.168284	-403.171942	-403.160672	-403.159727	-403.210231	38.735	
C	 0.149932499	 1.4946384786	 0.5792137822	-0.392494
C	 0.134648801	-0.0174492417	 0.3593248144	-0.161758
C	 0.5397628029	-0.4319349081	-1.0786367167	-0.309147
C	 1.9163907478	-0.0651365568	-1.4022324319	 0.079813
C	 3.0559556196	 0.2397239123	-1.6537417965	 0.076777
C	 4.4261961101	 0.629008913	-1.9604800777	-0.50165
C	 0.2040145912	-1.9311421941	-1.2866672326	 0.428043
N	 1.2061052166	-2.7033007132	-1.7733164046	-0.537328
O	-0.9059511657	-2.3551724625	-1.0280873335	-0.371377
H	 1.1458855637	 1.9128862863	 0.4037057676	 0.123113
H	-0.5492705519	 1.999655085	-0.0969007744	 0.114624
H	-0.1435365903	 1.739258715	 1.604575213	 0.114802
H	 0.8121207851	-0.5077916333	 1.0681266483	 0.100697
H	-0.8641452576	-0.4263480216	 0.5320344802	 0.130239
H	-0.1347810786	 0.0928493369	-1.7703287964	 0.129101
H	 4.7008258498	 0.353541314	-2.9846722456	 0.149348
H	 4.5578115132	 1.712292871	-1.8642283645	 0.154415
H	 5.1405654618	 0.148185795	-1.2832528062	 0.149832
H	 2.1156698716	-2.3154722266	-1.9573504229	 0.263845
H	 1.0290582807	-3.682481369	-1.922371112	 0.259106
27.916	36.7107	80.6529	109.4422	130.3501	191.4524	239.741	256.6768	280.1086	320.8051	344.8594	401.7026	466.2876	509.8198	566.2042	618.8327	706.1076	748.13	839.3748	875.8409	931.7706	1037.1653	1052.0466	1055.1566	1092.8349	1101.4721	1109.97	1180.9342	1257.419	1274.2348	1341.3732	1350.3017	1362.9723	1411.4838	1415.3673	1478.4365	1478.982	1490.8284	1496.8242	1507.4551	1600.2237	1795.8493	2357.0406	3009.3766	3027.9279	3032.6297	3043.37	3088.7308	3089.9669	3092.2298	3104.881	3116.6239	3596.2151	3734.9028
CCC(C#CC)C(N)=O	CC[C@@H](C#CC)C(=O)N	
InChI=1S/C7H11NO/c1-3-5-6(4-2)7(8)9/h6H,4H2,1-2H3,(H2,8,9)	InChI=1S/C7H11NO/c1-3-5-6(4-2)7(8)9/h6H,4H2,1-2H3,(H2,8,9)/t6-/m0/s1
