16
gdb 56060	3.82602	0.76464	0.64022	2.9927	77.03	-0.2435	0.005	0.2485	1657.2354	0.122853	-434.07439	-434.064673	-434.063729	-434.10979	34.603	
N	-0.2578117275	 1.413640369	 0.3456417974	-0.569258
C	 0.0222081106	 0.2291675958	-0.3067428372	 0.475722
O	 0.5985025014	 0.1720256661	-1.3724808899	-0.37235
N	-0.3814324527	-0.8994528127	 0.4004200528	-0.372022
C	-0.1783138454	-2.1849861154	-0.0661516494	 0.148367
N	-0.5216367864	-3.1765112491	 0.6452235514	-0.292937
C	-0.306168548	-4.5282211014	 0.1379399522	-0.257434
C	 0.3011448862	-4.6701936663	-1.1872095941	 0.283145
C	 0.8011455984	-4.7563322269	-2.2773496153	-0.457328
H	-0.1381543761	 2.2280046487	-0.2362646574	 0.268501
H	-1.0372844796	 1.4552428269	 0.9835407162	 0.253777
H	-0.7654922282	-0.8205509987	 1.3305625176	 0.253794
H	 0.2813566893	-2.2181024538	-1.0546988016	 0.153686
H	 0.3085278059	-5.0639994507	 0.8739857886	 0.141259
H	-1.2763473529	-5.0433857635	 0.1454848202	 0.140369
H	 1.2434352451	-4.8459057481	-3.2389185016	 0.202708
49.6371	85.4762	91.1308	175.0269	191.5788	291.5357	326.9614	330.3481	379.7361	385.2336	507.5792	510.4791	591.2952	621.016	656.7792	666.2169	679.1214	771.6359	925.0723	961.8634	978.5669	1044.1755	1049.4451	1106.7293	1262.8977	1268.7528	1294.842	1336.6857	1378.9728	1468.0988	1518.8053	1627.2213	1755.3631	1820.9584	2229.488	3013.6177	3031.0946	3135.7591	3502.396	3584.4907	3617.0876	3703.2264
NC(=O)NC=NCC#C	NC(=O)NC=NCC#C	
InChI=1S/C5H7N3O/c1-2-3-7-4-8-5(6)9/h1,4H,3H2,(H3,6,7,8,9)	InChI=1S/C5H7N3O/c1-2-3-7-4-8-5(6)9/h1,4H,3H2,(H3,6,7,8,9)
