15
gdb 43314	2.96246	1.86442	1.30474	0.6694	70.69	-0.2258	-0.0578	0.168	926.1839	0.116012	-416.84907	-416.842395	-416.841451	-416.880425	25.871	
O	 0.0351654425	-0.0170423094	 0.1155180316	-0.336486
C	-0.0231144393	 1.187016731	 0.0180290273	 0.366243
C	-1.2279214733	 2.0439337345	-0.020280871	-0.182438
C	-0.8887857978	 3.3388348503	 0.0093732377	-0.038325
C	 0.6082774048	 3.5643308714	 0.0560906438	-0.047709
N	 1.0132750871	 4.1149419176	 1.3704565048	-0.261177
C	 1.7137407815	 3.1999015285	 1.9260856941	 0.067783
N	 2.0138872156	 2.0703859161	 1.1879007392	-0.295701
C	 1.2022921798	 2.1306843492	-0.0287339443	-0.119684
H	-2.2290194747	 1.632223217	-0.0281148007	 0.123315
H	-1.5795722705	 4.1737511673	 0.0424602152	 0.130283
H	 0.9387292039	 4.2364837673	-0.7428739682	 0.097509
H	 2.1227645234	 3.2920874161	 2.9286039129	 0.131398
H	 2.1370797019	 1.1771515374	 1.6440884144	 0.25706
H	 1.8003097751	 1.9255132858	-0.9211853967	 0.107927
76.3217	209.0672	238.7646	365.1725	487.1401	507.1502	544.7094	586.3414	688.466	726.3147	802.5664	836.6692	865.5674	894.3518	930.7403	959.2218	1000.8253	1002.4859	1029.7515	1058.6213	1106.1635	1124.2163	1179.6217	1241.1921	1276.0695	1285.6343	1327.1542	1344.457	1354.9695	1420.4864	1639.5758	1672.1683	1811.5266	3046.6828	3067.376	3182.9935	3201.622	3229.4017	3601.614
O=C1C=CC2N=CNC12	O=C1C=C[C@H]2N=CN[C@@H]12	
InChI=1S/C6H6N2O/c9-5-2-1-4-6(5)8-3-7-4/h1-4,6H,(H,7,8)	InChI=1S/C6H6N2O/c9-5-2-1-4-6(5)8-3-7-4/h1-4,6H,(H,7,8)/t4-,6-/m1/s1
