22
gdb 6566	2.88523	1.9259	1.45864	0.1144	83.2	-0.2773	0.0905	0.3678	995.4561	0.199454	-313.040661	-313.031951	-313.031007	-313.072937	34.071	
C	-0.1639199791	 1.5811201291	-0.0113168046	-0.447628
C	 0.0192472634	 0.0702895951	 0.0144098195	-0.004835
C	 1.1847840321	-0.6396121727	-0.7584812148	 0.331982
C	 1.4282509453	-0.6398120153	-2.2447024544	-0.513721
C	 2.1542348188	-0.1511498272	 0.36191136	-0.304664
C	 0.8795254674	-0.6447413681	 1.113706003	 0.331979
C	 0.6382784029	-0.6530846181	 2.6002659584	-0.513721
C	 0.9081940577	-1.872714829	 0.1540294534	-0.291685
H	 0.764630611	 2.1372726284	 0.1417869843	 0.115399
H	-0.5836104242	 1.9006619325	-0.9721194424	 0.114931
H	-0.8676221368	 1.8958492311	 0.7678723666	 0.11493
H	-0.9530292749	-0.4151890868	-0.1454519009	 0.050545
H	 1.5829602598	 0.3774900971	-2.6218046717	 0.116112
H	 2.3171407991	-1.2277107107	-2.4994953435	 0.116172
H	 0.5767009649	-1.0702012043	-2.7838530887	 0.11491
H	 3.0587363204	-0.7506099186	 0.5077482501	 0.080287
H	 2.3926492715	 0.9137677459	 0.4036996676	 0.084186
H	 0.66431904	 0.3620544531	 3.0124055587	 0.116112
H	-0.3400640456	-1.0855861457	 2.8386859384	 0.11491
H	 1.4006930512	-1.243123153	 3.1210805433	 0.116171
H	-0.0406454972	-2.396803227	-0.0021137035	 0.078746
H	 1.7360260917	-2.5764374661	 0.287078796	 0.078885
166.3634	183.4759	198.9038	201.5966	213.2144	217.3662	348.1986	358.2259	424.8227	546.5305	578.7398	583.3032	647.1899	739.7807	777.7894	788.2431	909.6424	915.9972	997.8486	999.2378	1014.4489	1019.0728	1041.2868	1098.1071	1111.229	1128.3015	1145.3304	1152.9582	1175.8329	1200.3297	1208.2135	1229.6095	1307.4981	1345.7095	1404.0468	1407.2576	1407.8167	1425.2091	1487.9068	1488.7833	1490.0616	1490.1922	1493.8975	1496.3385	1511.5384	1552.111	3007.8334	3022.1964	3022.2892	3029.9236	3032.3198	3049.0934	3083.5038	3088.4884	3088.6393	3089.4513	3089.9868	3095.0904	3104.5897	3117.0284
CC1C2(C)CC1(C)C2	C[C@H]1[C@@]2(C)C[C@]1(C)C2	
InChI=1S/C8H14/c1-6-7(2)4-8(6,3)5-7/h6H,4-5H2,1-3H3	InChI=1S/C8H14/c1-6-7(2)4-8(6,3)5-7/h6H,4-5H2,1-3H3/t6-,7-,8+
