20
gdb 91703	2.57123	1.76335	1.56051	2.0995	77.3	-0.2432	0.0237	0.2669	974.4704	0.174711	-403.181663	-403.174381	-403.173437	-403.213084	29.776	
C	-0.2581834712	 1.5442134248	-0.0147020003	-0.408966
C	 0.0315997674	 0.0450068613	 0.008630272	 0.047318
C	 0.8622930335	-0.4774957399	-1.212452981	-0.242028
C	 1.9374617149	-1.3972107586	-0.6034542314	 0.113982
C	 1.3274407125	-1.8397113094	 0.7294839172	-0.255646
C	 0.8505953761	-0.463666018	 1.2232749495	 0.006561
N	 2.0201384792	 0.3945239311	 1.4817293283	-0.264529
C	 3.0203070353	 0.2163358476	 0.7250078107	 0.115936
O	 3.1411875929	-0.6328233396	-0.3235819331	-0.240538
H	 0.6688525102	 2.1237412188	-0.0124782996	 0.12908
H	-0.8308768522	 1.8143242494	-0.9083273135	 0.107975
H	-0.8414365252	 1.8473456176	 0.8608328798	 0.115187
H	-0.9266151318	-0.4902107678	 0.0309818638	 0.070392
H	 0.2342492894	-1.0334155469	-1.9152150928	 0.102244
H	 1.3356934087	 0.3337438858	-1.7724975888	 0.11342
H	 2.2669920314	-2.2008856393	-1.2624341246	 0.084523
H	 0.4883957531	-2.5224910208	 0.560573589	 0.100973
H	 2.049971656	-2.3195359371	 1.3939357226	 0.110815
H	 0.2521135374	-0.5015970888	 2.1367173564	 0.06984
H	 3.9441644525	 0.7741360995	 0.8679780558	 0.123461
107.2499	233.8915	243.2233	329.1186	376.7333	410.1896	453.2541	464.9697	608.3484	663.1656	720.6472	805.4172	821.7581	853.6295	892.9196	916.4651	922.0533	958.9903	969.301	982.2981	1005.4767	1050.5611	1073.1605	1101.0276	1141.8559	1165.3136	1187.0326	1231.5669	1235.0005	1263.3292	1306.0293	1329.5023	1334.6555	1353.8579	1367.4813	1380.6226	1404.1498	1413.5462	1478.4975	1491.1983	1495.8307	1499.3535	1709.5966	3012.6152	3035.9973	3053.0481	3055.5443	3077.7166	3097.961	3101.1287	3111.8355	3113.9028	3119.5472	3157.6494
CC1CC2CC1N=CO2	C[C@H]1C[C@@H]2C[C@H]1N=CO2	
InChI=1S/C7H11NO/c1-5-2-6-3-7(5)8-4-9-6/h4-7H,2-3H2,1H3	InChI=1S/C7H11NO/c1-5-2-6-3-7(5)8-4-9-6/h4-7H,2-3H2,1H3/t5-,6+,7+/m0/s1
