22
gdb 6934	4.82608	0.94529	0.88284	1.6692	79.6	-0.2538	0.0917	0.3455	1431.9678	0.197534	-350.207384	-350.197375	-350.196431	-350.242338	36.182	
C	 0.093632433	 1.5275731411	 0.2372369476	-0.383039
C	-0.0650909132	 0.0055988867	 0.2352471456	-0.153308
C	-1.3747622999	-0.4608589831	-0.4179800748	-0.217995
C	-1.4998013544	-1.9654865317	-0.4168734314	 0.017174
O	-1.7711143136	-2.6072880381	 0.8389900725	-0.30266
C	-2.7375386954	-2.7457852939	-0.2192801266	 0.394609
C	-4.0785474185	-2.0902610865	 0.0326765825	-0.455595
C	-2.8190714532	-4.1405041267	-0.806184237	-0.450861
H	 1.033423088	 1.8293140326	 0.7099804686	 0.112873
H	 0.0897091299	 1.929451852	-0.7823804477	 0.111631
H	-0.7237309652	 2.0103996606	 0.7845384953	 0.114625
H	 0.7838585522	-0.4529119195	-0.2888310677	 0.093722
H	-0.0331055298	-0.3761564433	 1.2623646077	 0.115724
H	-2.2222111237	-0.0060117569	 0.1040924338	 0.098719
H	-1.4149813317	-0.1077644366	-1.4580711918	 0.095034
H	-0.7092584888	-2.4639035364	-0.9866320673	 0.075238
H	-3.9740841482	-1.1250457654	 0.529483769	 0.128409
H	-4.6216038039	-1.9440215127	-0.9075471812	 0.118303
H	-4.692762089	-2.7322852992	 0.6738353626	 0.123165
H	-3.3851907942	-4.8022846905	-0.1412791607	 0.122442
H	-3.3278274883	-4.1274300999	-1.7764134157	 0.116992
H	-1.821395552	-4.5652911225	-0.9409458934	 0.124799
59.9673	87.0568	114.0978	159.507	201.6736	240.0682	248.6091	296.3058	312.256	372.6245	426.1032	493.957	532.8359	702.1959	745.8995	805.7232	868.7626	900.5183	920.1081	945.1339	987.7945	1016.0627	1049.179	1079.041	1115.348	1149.6953	1156.9041	1161.9575	1257.4467	1267.9851	1304.6386	1327.1078	1359.0734	1387.315	1409.0046	1413.7032	1419.0759	1467.8118	1470.5463	1476.126	1487.051	1493.3069	1499.7768	1502.0829	1509.6013	1522.368	3014.8332	3021.8465	3028.5002	3031.3211	3037.7921	3053.2948	3059.4688	3084.8694	3091.6497	3096.7958	3097.7538	3101.9442	3122.2839	3141.4729
CCCC1OC1(C)C	CCC[C@H]1OC1(C)C	
InChI=1S/C7H14O/c1-4-5-6-7(2,3)8-6/h6H,4-5H2,1-3H3	InChI=1S/C7H14O/c1-4-5-6-7(2,3)8-6/h6H,4-5H2,1-3H3/t6-/m1/s1
