16
gdb 16583	2.6363	2.17816	1.73201	2.8495	65.11	-0.2364	-0.0102	0.2262	834.6424	0.129545	-383.72652	-383.718864	-383.71792	-383.758244	28.745	
C	-0.2220098957	 1.6263273386	 0.0047229985	-0.421803
C	 0.0432650696	 0.1264657212	-0.0235588516	-0.094817
C	 0.6815563844	-0.5698802583	-1.2443427101	-0.115089
C	 2.1185959116	-0.2522913646	-1.397176524	 0.111225
O	 2.6113931347	 1.0198155823	-1.0962576951	-0.411422
C	 1.7483286005	-1.263537518	-0.3252518371	-0.258465
C	 1.1485720997	-0.5271251579	 0.8433865428	 0.407591
O	 1.3597467735	-0.5461131435	 2.0228076538	-0.321696
H	 0.6730410761	 2.1882123271	-0.2627363824	 0.147218
H	-1.0220602305	 1.8926590795	-0.6941033332	 0.113484
H	-0.5413099152	 1.9273831918	 1.0076464237	 0.127653
H	-0.8742482926	-0.4176203959	 0.2419187601	 0.105925
H	 0.1166962505	-1.0360756227	-2.0420048026	 0.103585
H	 2.5900482265	-0.717593967	-2.2644634278	 0.102339
H	 3.476483013	 0.9186967632	-0.6846592365	 0.294626
H	 2.1523791038	-2.2687037859	-0.3238679987	 0.109645
107.7452	182.4025	194.4494	218.9337	279.462	345.2181	400.126	480.355	630.9255	650.5742	686.6211	712.0292	807.0693	828.1386	922.1579	933.3754	974.452	995.5606	1051.9162	1066.6997	1093.6594	1113.0234	1159.1446	1210.4669	1211.6346	1268.531	1302.5327	1337.3629	1355.8092	1404.9189	1453.9053	1493.6594	1508.6754	1883.1807	3017.2248	3041.8324	3091.9337	3101.0269	3153.7485	3187.9855	3197.2821	3807.8305
CC1C2C(O)C2C1=O	C[C@H]1[C@H]2[C@@H](O)[C@H]2C1=O	
InChI=1S/C6H8O2/c1-2-3-4(5(2)7)6(3)8/h2-4,6,8H,1H3	InChI=1S/C6H8O2/c1-2-3-4(5(2)7)6(3)8/h2-4,6,8H,1H3/t2-,3+,4+,6+/m0/s1
