14
gdb 26837	3.57272	1.17477	0.88851	4.8327	75.61	-0.2108	-0.0579	0.153	1217.589	0.101453	-470.042383	-470.034028	-470.033084	-470.075458	30.145	
N	 0.1249566036	 1.363992632	 0.1026079462	-0.596223
C	-0.0097255215	 0.0075082649	 0.0297444814	 0.365582
C	-1.1205141417	-0.8106440627	-0.0004929073	 0.136796
N	-2.4552613	-0.3583770666	-0.0494503649	-0.614978
N	-0.6914025816	-2.1103543595	-0.0081223583	-0.298776
C	 0.6129889662	-2.0540948948	 0.0158805941	 0.260685
O	 1.0907505025	-0.759249852	 0.0545779481	-0.178348
C	 1.5450456754	-3.1658872456	-0.0031317106	 0.068014
O	 2.7530312624	-3.0678101129	 0.0226710902	-0.286054
H	 0.9773853014	 1.7389575803	-0.2889364408	 0.272751
H	-0.7104432903	 1.8546157412	-0.1865379825	 0.275349
H	-2.8925508309	-0.3748759278	 0.8681758766	 0.249203
H	-3.0099341357	-0.9589751004	-0.6510288376	 0.251554
H	 1.0173521403	-4.1402922362	-0.0431588047	 0.094445
109.9834	123.5498	165.1377	227.9189	252.9759	290.8424	338.5701	392.6518	428.2552	552.4268	599.8055	671.1397	695.26	735.7688	744.5642	850.1799	864.7656	966.5618	1016.1457	1074.5832	1171.8796	1246.5214	1269.5829	1372.2365	1392.1302	1484.3637	1558.1597	1611.0514	1650.8326	1688.2705	1778.325	2932.8849	3487.7056	3556.9142	3564.4463	3666.5336
NC1=C(N)N=C(O1)C=O	Nc1c(N)nc(o1)C=O	
InChI=1S/C4H5N3O2/c5-3-4(6)9-2(1-8)7-3/h1H,5-6H2	InChI=1S/C4H5N3O2/c5-3-4(6)9-2(1-8)7-3/h1H,5-6H2
