22
gdb 36982	5.64568	0.66249	0.6239	1.8372	83.9	-0.2297	0.0866	0.3163	1832.8028	0.19422	-404.294984	-404.285664	-404.284719	-404.330575	33.742	
C	 0.0737900936	 1.4318953139	-0.1436947503	-0.203919
C	 0.1040213388	-0.0615031667	 0.1840031039	-0.140932
N	-1.2479778312	-0.6020703873	 0.2695752565	-0.058844
C	-1.8213762106	-1.1131621872	-0.9711379475	-0.220985
C	-1.3793598795	-2.0434311823	 0.104532318	-0.220136
C	 1.4609535124	 2.047189335	-0.1664881919	 0.162915
C	 1.5737165502	 3.5884693717	-0.1887067008	-0.299939
C	 2.3515144314	 3.4081620241	 1.1300022356	-0.056519
O	 2.1180852551	 1.9850896532	 1.1267851931	-0.294063
H	-0.3977498661	 1.5906303112	-1.1232353659	 0.094209
H	-0.5431402039	 1.9476700248	 0.6008345599	 0.107889
H	 0.7144593037	-0.5971960592	-0.5683636778	 0.071928
H	 0.5907665994	-0.2041142767	 1.1546458212	 0.125116
H	-2.8766045057	-0.9091990822	-1.1293561749	 0.114602
H	-1.2096569428	-1.073058491	-1.8720484768	 0.104781
H	-0.4744348396	-2.6205626809	-0.0815518599	 0.107941
H	-2.1052617605	-2.5313515142	 0.7489451835	 0.115342
H	 2.0821987591	 1.5525597148	-0.9286155152	 0.06833
H	 2.1303533162	 4.0192390689	-1.0221072038	 0.108399
H	 0.6168790819	 4.1053644956	-0.0887079624	 0.110267
H	 3.4217669596	 3.6458252232	 1.0751282971	 0.099283
H	 1.9286368385	 3.891512181	 2.0184810784	 0.104333
54.9999	61.1712	89.7992	124.3139	137.8102	261.1921	307.4983	404.4016	444.7483	483.615	734.6978	773.1599	784.0456	823.0771	842.7171	879.546	910.1408	935.0706	975.5587	995.7962	1023.8776	1030.8942	1050.6372	1095.1173	1107.0019	1113.3346	1117.0848	1143.2571	1165.0145	1172.5452	1193.865	1218.8668	1244.3744	1256.8035	1277.9992	1305.0168	1317.1945	1325.9425	1366.1212	1393.2301	1411.7074	1474.0232	1490.359	1491.55	1501.4892	1525.1852	1532.6749	2916.0988	2983.3663	3012.9134	3020.2218	3053.9529	3065.532	3075.9611	3080.8852	3088.9257	3094.5455	3131.95	3172.727	3187.0727
C(CN1CC1)C1CCO1	C(CN1CC1)[C@H]1CCO1	
InChI=1S/C7H13NO/c1(3-8-4-5-8)7-2-6-9-7/h7H,1-6H2	InChI=1S/C7H13NO/c1(3-8-4-5-8)7-2-6-9-7/h7H,1-6H2/t7-/m0/s1
