21
gdb 68082	2.43503	1.65967	1.20163	2.0553	77.35	-0.2548	0.0684	0.3232	1089.8436	0.183531	-424.231166	-424.222847	-424.221903	-424.263146	34.389	
O	-0.0753400955	 1.4155321991	-0.021782587	-0.487875
C	 0.0198666937	 0.0146298873	 0.0437480231	 0.428474
C	 0.209616652	-0.6789821792	 1.4317083175	-0.333695
C	-0.708734335	-1.7895315991	 0.8687085459	 0.428373
O	-1.5193986252	-2.4187468454	 1.8306714777	-0.486367
C	-1.3392542047	-0.7074766277	-0.0546798708	-0.312108
C	 0.093079013	-2.7806215052	 0.0074233565	-0.270558
C	 1.2706090252	-2.0705420797	-0.7051492593	-0.215573
C	 0.9868466869	-0.5761836599	-0.995756236	-0.263123
H	 0.8145225582	 1.7811821186	 0.03098807	 0.271378
H	 1.2132068465	-0.943604721	 1.7751940865	 0.085188
H	-0.3160911434	-0.1154924266	 2.2053749906	 0.110866
H	-2.06775708	-3.0711461302	 1.3807611237	 0.272348
H	-2.1088601598	-0.1467478535	 0.4805986221	 0.108269
H	-1.6978063242	-1.0015098679	-1.0460531697	 0.081504
H	 0.4748334446	-3.5834838151	 0.6472218926	 0.101289
H	-0.5861139663	-3.2446013002	-0.7208482715	 0.088197
H	 2.1477581701	-2.1336445366	-0.053922368	 0.108895
H	 1.5414192331	-2.5970188083	-1.6248445894	 0.09864
H	 0.5536322779	-0.4307491823	-1.9919995801	 0.104828
H	 1.933185503	-0.0188461371	-0.9809541443	 0.081049
185.406	225.0785	247.3256	255.6711	298.2518	321.5722	408.2385	412.8964	416.4016	472.7342	490.6397	556.2419	606.6377	711.2022	773.7409	829.3358	890.2474	906.8777	928.1107	938.146	955.0578	984.0041	1011.7158	1029.9243	1066.5397	1078.1171	1141.0409	1164.2601	1189.2275	1208.6151	1229.6367	1234.471	1248.6837	1271.327	1294.8803	1340.6206	1355.2845	1371.3872	1389.2004	1396.6409	1471.3648	1490.0924	1494.1653	1498.7501	1525.2252	3011.6706	3013.4661	3046.6938	3048.0809	3060.2471	3061.8118	3069.3937	3093.0769	3119.1302	3126.9834	3796.991	3798.4
OC12CC(O)(C1)CCC2	O[C@@]12C[C@@](O)(C1)CCC2	
InChI=1S/C7H12O2/c8-6-2-1-3-7(9,4-6)5-6/h8-9H,1-5H2	InChI=1S/C7H12O2/c8-6-2-1-3-7(9,4-6)5-6/h8-9H,1-5H2/t6-,7+
