16
gdb 81522	3.73667	1.28638	1.07548	3.1587	71.74	-0.2499	0.0197	0.2696	1092.3379	0.123056	-437.767765	-437.759681	-437.758737	-437.79991	31.986	
O	 0.1935214821	 1.4078216507	-0.1050088576	-0.452941
C	 0.1032002796	 0.0279035662	-0.0507200527	 0.180515
C	 0.0007877094	-0.6552130353	 1.3515303318	-0.147881
N	-1.3714291939	-0.0119765507	 1.4438797056	-0.373095
C	-1.3194336739	-0.6198204584	 0.0513924953	-0.121512
C	-0.6484409123	-1.8970327252	 0.6345186837	 0.2819
O	 0.1151722392	-2.6408952996	-0.286085517	-0.47841
C	-1.4699097518	-2.7605520349	 1.4742906192	 0.24649
C	-2.0968124976	-3.5268184078	 2.1582936588	-0.44065
H	-0.4440920589	 1.7287343672	 0.5508697064	 0.291282
H	 0.795180955	-0.4082801323	-0.7652700192	 0.115687
H	 0.7018279224	-0.6439508008	 2.1877175824	 0.088546
H	-1.9851427548	-0.5613437231	 2.0506519077	 0.22349
H	-2.1624955329	-0.5654218652	-0.6383146901	 0.093519
H	 0.4537852601	-3.4212757367	 0.1650601166	 0.29058
H	-2.6641505316	-4.196370474	 2.7572531991	 0.202479
132.2643	144.9355	247.0136	262.7328	312.1922	357.4702	367.5259	481.698	523.3189	550.7441	603.947	617.5484	651.7477	685.0538	720.6281	771.1819	825.9656	868.737	911.4206	958.1488	1013.5128	1061.4056	1107.3923	1124.3545	1140.2763	1156.5935	1190.3611	1205.6517	1218.456	1271.3408	1279.1375	1344.7711	1369.4744	1460.2052	2223.9645	3107.114	3116.933	3173.719	3420.7938	3497.6984	3719.0915	3818.6274
OC1C2NC1C2(O)C#C	O[C@H]1[C@H]2N[C@@H]1[C@]2(O)C#C	
InChI=1S/C6H7NO2/c1-2-6(9)4-3(8)5(6)7-4/h1,3-5,7-9H	InChI=1S/C6H7NO2/c1-2-6(9)4-3(8)5(6)7-4/h1,3-5,7-9H/t3-,4+,5-,6-
