23
gdb 80146	2.12915	1.60959	1.39157	0.3058	90.87	-0.2203	0.0256	0.2459	1127.3428	0.207139	-351.168004	-351.159087	-351.158143	-351.20087	35.474	
C	-0.1273223684	 1.5251008289	-0.0301014294	-0.425369
C	-0.0006042023	 0.0165601795	 0.0225511579	-0.045164
C	 1.3114618194	-0.7345172872	-0.2724388886	-0.129427
C	 2.5883178332	-0.0003013123	-0.4120501053	-0.043906
C	 3.1053704163	 0.7687436548	 0.5502267272	-0.077374
C	 2.4346080078	 0.9704588032	 1.8823949869	-0.279203
C	 1.461172093	-0.1684226592	 2.2518240139	-0.261537
C	 0.6742697457	-0.7938621385	 1.1037806526	 0.311061
C	-0.0114163156	-2.0888937859	 1.5027485839	-0.459742
H	 0.8436911063	 2.0234625267	-0.0475393314	 0.13214
H	-0.6589100366	 1.8235935162	-0.9398726786	 0.112315
H	-0.6973118637	 1.9122296332	 0.822665949	 0.112239
H	-0.873801397	-0.4871620554	-0.3869158695	 0.078302
H	 1.2131305813	-1.6124500816	-0.905130183	 0.073323
H	 3.1109202487	-0.1005624387	-1.3602147609	 0.081221
H	 4.0402708309	 1.2954038059	 0.3775306814	 0.082268
H	 3.1910102095	 1.0612721102	 2.6715491316	 0.099077
H	 1.9051837073	 1.9326341013	 1.8845812796	 0.111143
H	 2.0457997695	-0.9798224029	 2.7048821792	 0.100369
H	 0.7719988886	 0.175964392	 3.0330873354	 0.093988
H	-0.7485730232	-1.918499052	 2.2973267688	 0.111628
H	-0.5363968575	-2.5414193729	 0.6557451632	 0.110004
H	 0.7132580468	-2.8220321355	 1.8768046462	 0.112644
120.5728	152.3122	199.2003	219.7034	246.5095	255.015	326.2715	398.9926	437.9613	474.1727	501.1916	592.7392	655.3367	727.8967	756.0664	774.6969	832.3595	877.4677	920.8922	955.8171	977.9848	991.8065	1011.2051	1039.1879	1058.534	1075.7107	1108.6878	1109.9822	1117.428	1143.008	1197.9378	1214.8006	1235.1955	1279.9197	1324.0789	1354.7723	1367.776	1381.494	1412.236	1416.1526	1426.3243	1452.4042	1479.3767	1487.9943	1490.5663	1497.2895	1507.3877	1514.1882	1708.6963	3010.9578	3013.4003	3017.3411	3030.8173	3039.6874	3051.9855	3074.5425	3084.0524	3095.3442	3114.5108	3130.6732	3136.1891	3147.3678	3169.27
CC1C2C=CCCC12C	C[C@H]1[C@H]2C=CCC[C@@]12C	
InChI=1S/C9H14/c1-7-8-5-3-4-6-9(7,8)2/h3,5,7-8H,4,6H2,1-2H3	InChI=1S/C9H14/c1-7-8-5-3-4-6-9(7,8)2/h3,5,7-8H,4,6H2,1-2H3/t7-,8+,9-/m0/s1
