16
gdb 127664	2.7855	1.58953	1.02483	0.2614	73.18	-0.2652	-0.0639	0.2013	1115.8055	0.124691	-434.119581	-434.110927	-434.109983	-434.15375	29.957	
C	 0.0461754153	 1.4690640146	-0.0196376071	-0.314844
N	-0.035537667	 0.0178746711	 0.0571897666	-0.014932
N	-0.1605958591	-0.7108798852	-1.0653940746	-0.232041
C	-0.2023566068	-1.9600166114	-0.6078909012	 0.017403
N	-0.1120574256	-2.075382086	 0.7329510391	-0.312062
C	-0.0071802764	-0.8100781598	 1.1343115225	 0.275985
C	 0.1218714152	-0.3527572606	 2.5365961626	 0.315824
C	 0.1330897892	-1.4360424623	 3.5886168172	-0.473086
O	 0.2118611165	 0.831495777	 2.7976579123	-0.328652
H	 0.9871486165	 1.8180822085	 0.4078052114	 0.161041
H	-0.0172586012	 1.7312881611	-1.0747635419	 0.156965
H	-0.7721118875	 1.923976818	 0.5400997382	 0.1612
H	-0.3014492325	-2.8022416717	-1.2759773429	 0.133727
H	 0.9576870737	-2.1317572198	 3.405817791	 0.157353
H	 0.231247841	-0.9785774527	 4.5732774553	 0.138768
H	-0.7856618314	-2.0277208007	 3.5313645712	 0.15735
61.3543	89.6054	111.7432	180.6923	193.2522	242.8704	319.3207	411.3497	515.5609	565.4741	640.7619	691.9924	728.6555	749.3537	906.6649	953.6448	992.9218	1040.9753	1045.7211	1118.3463	1152.2196	1199.8011	1282.3041	1312.1399	1325.3993	1384.4987	1395.692	1445.4524	1455.481	1464.1716	1478.3019	1487.2674	1490.1663	1533.3213	1773.8113	3051.8995	3074.0761	3115.4668	3148.2958	3161.8914	3178.1283	3262.7837
CN1N=CN=C1C(C)=O	Cn1ncnc1C(=O)C	
InChI=1S/C5H7N3O/c1-4(9)5-6-3-7-8(5)2/h3H,1-2H3	InChI=1S/C5H7N3O/c1-4(9)5-6-3-7-8(5)2/h3H,1-2H3
