17
gdb 112307	3.18696	1.24917	0.98097	2.8763	68.97	-0.2475	-0.0332	0.2143	1190.6629	0.134936	-458.953403	-458.945193	-458.944249	-458.986646	30.206	
C	 0.0669733649	 1.3043469599	 0.1653599645	-0.23847
O	-0.1501622061	-0.0655379215	-0.0986734437	-0.248114
C	 0.5504941162	-0.5505738881	-1.2160682887	 0.122895
C	 2.0828882586	-0.7127725633	-1.0330551867	-0.380088
C	 2.4445200715	-1.9349319807	-1.8863476275	 0.414244
O	 3.4824553888	-2.1383178724	-2.4592450236	-0.311049
C	 1.2066192116	-2.7951674429	-1.9635762638	-0.088715
O	 0.6006300965	-2.9441203243	-0.6665110294	-0.23834
C	 0.0680359028	-1.9564586174	-1.5385994602	 0.018981
H	 1.111940848	 1.5143359883	 0.434987391	 0.113616
H	-0.2005772312	 1.9304677971	-0.7002076618	 0.10739
H	-0.5733205848	 1.5733896215	 1.0080988368	 0.134953
H	 0.353480095	 0.0909518964	-2.0929174296	 0.077818
H	 2.6741751318	 0.1515146267	-1.3363888554	 0.128656
H	 2.2945710739	-0.9362762133	 0.0177266294	 0.153739
H	 1.137989201	-3.638268146	-2.6430121439	 0.119042
H	-0.9462098985	-2.12591979	-1.8887802775	 0.113441
90.8406	99.664	154.7367	190.167	257.6381	343.3579	399.608	458.4366	494.4688	546.6299	655.0854	693.158	814.8763	836.4467	869.5232	885.7623	972.0354	993.1916	1039.2071	1074.2717	1091.3168	1150.1472	1163.2676	1183.2747	1199.7068	1222.4219	1241.8627	1247.9572	1309.9762	1338.3148	1382.5477	1410.3956	1449.9176	1481.9602	1490.621	1508.6886	1850.6021	2952.7338	2979.7918	3031.7792	3067.031	3122.859	3138.3559	3161.5535	3183.9708
COC1CC(=O)C2OC12	CO[C@H]1CC(=O)[C@H]2O[C@@H]12	
InChI=1S/C6H8O3/c1-8-4-2-3(7)5-6(4)9-5/h4-6H,2H2,1H3	InChI=1S/C6H8O3/c1-8-4-2-3(7)5-6(4)9-5/h4-6H,2H2,1H3/t4-,5+,6-/m0/s1
