21
gdb 59736	2.52865	1.34239	0.92645	4.0679	78.31	-0.2605	0.014	0.2745	1295.5766	0.182791	-424.286494	-424.277318	-424.276374	-424.320529	34.392	
C	 0.009550906	 1.5557078153	-0.015450237	-0.395117
C	 0.0747456302	 0.0248930123	 0.0915862128	 0.024763
C	 0.6957993964	-0.3903559674	 1.4336236127	-0.403136
C	-1.3178143833	-0.6052960963	-0.1109885369	-0.136449
C	-2.1058111169	-0.1583659426	-1.3526801166	-0.257694
C	-3.0270018565	-1.3561419497	-1.6009858165	-0.092743
O	-2.292443841	-2.502278303	-1.1411041036	-0.217495
C	-1.3043608876	-2.1312893767	-0.2814586653	 0.445344
O	-0.5772409732	-2.9410642436	 0.2201159161	-0.338727
H	 1.0020624909	 1.9903632999	 0.1393654469	 0.11669
H	-0.3503260963	 1.8914531435	-0.9925545879	 0.11215
H	-0.6558171461	 1.9738792794	 0.7497628255	 0.111828
H	 0.7210921966	-0.3467741379	-0.7158743339	 0.081414
H	 1.7019592608	 0.029376274	 1.5337785144	 0.106838
H	 0.0955643239	-0.0092459312	 2.269404196	 0.104146
H	 0.7571714158	-1.4753252036	 1.5216942135	 0.15653
H	-1.9231602528	-0.4075690567	 0.7875257869	 0.104566
H	-2.6600625636	 0.7715890311	-1.2151337103	 0.116868
H	-1.4246266152	-0.025789155	-2.2009082403	 0.118646
H	-3.9596356775	-1.2834844475	-1.0281068697	 0.11567
H	-3.2745058904	-1.5188624643	-2.6519939969	 0.125908
67.5038	106.9329	189.8603	205.2757	233.1091	249.8638	293.4273	332.4413	365.803	442.8891	543.6895	567.3712	667.4863	709.9206	807.845	862.0291	894.4209	932.649	956.8135	969.2928	979.8005	1000.744	1064.4314	1088.5542	1145.4805	1152.6219	1183.0968	1198.2219	1211.6754	1240.7981	1280.2887	1302.0596	1342.7518	1344.3672	1380.2693	1398.6141	1402.4829	1420.3842	1488.8128	1491.0701	1496.0136	1503.8391	1518.8376	1525.5214	1868.0923	2990.5522	3010.8094	3025.4544	3030.9979	3033.0184	3048.1259	3088.2726	3095.6186	3106.4398	3107.7084	3119.6052	3151.8934
CC(C)C1CCOC1=O	CC(C)[C@H]1CCOC1=O	
InChI=1S/C7H12O2/c1-5(2)6-3-4-9-7(6)8/h5-6H,3-4H2,1-2H3	InChI=1S/C7H12O2/c1-5(2)6-3-4-9-7(6)8/h5-6H,3-4H2,1-2H3/t6-/m1/s1
