21
gdb 41365	2.36684	1.83326	1.78234	0.0948	85.94	-0.232	0.0255	0.2576	961.305	0.184981	-349.936782	-349.92947	-349.928526	-349.968289	30.556	
C	 0.0574463704	 1.4888867197	-0.3094545226	-0.29276
C	 1.4750823099	 1.6046826949	 0.3472391478	-0.290989
C	 1.4545583071	 0.0680419559	 0.6175631001	 0.316113
C	 0.8705855253	-0.3731037579	 1.9956512142	-0.290989
C	-0.546454742	-0.4869081614	 1.3373258987	-0.292761
C	 0.0451460404	-0.0412980166	-0.0304776001	 0.336177
C	 0.1417863441	-1.040832615	-1.1942753025	-0.381284
C	 1.6087493254	-1.4525412452	-1.1502995303	-0.047024
C	 2.3138683176	-0.8583221758	-0.1787782918	-0.204345
H	-0.7361351235	 2.058354832	 0.1835748884	 0.094313
H	 0.0428196057	 1.740928291	-1.3736494681	 0.098234
H	 2.2599365865	 1.923498744	-0.3427154138	 0.100472
H	 1.5289041502	 2.2317344726	 1.2418068576	 0.093154
H	 1.267832787	-1.3224241068	 2.3626156189	 0.100472
H	 0.9593247919	 0.3681221565	 2.7950581159	 0.093153
H	-0.9489759879	-1.5038564436	 1.3308136479	 0.098234
H	-1.3112942297	 0.1765525407	 1.7520355285	 0.094314
H	-0.5226426296	-1.9072052287	-1.0697959248	 0.100108
H	-0.1215730413	-0.594973245	-2.1635089062	 0.100108
H	 2.0211980862	-2.1674058036	-1.8567493046	 0.088345
H	 3.3707787061	-1.0286262877	 0.0044670566	 0.086955
77.6	213.8156	267.5375	329.168	336.4785	465.9332	520.1294	635.5122	659.1185	660.0139	738.4826	740.2974	769.0967	811.2134	888.7765	890.1627	919.1386	932.1494	935.7232	939.6171	959.1986	975.3047	999.937	1026.09	1104.0874	1119.3082	1145.4874	1167.0727	1200.6766	1224.4253	1239.0757	1241.7139	1247.335	1248.0134	1276.1025	1287.0791	1293.3422	1314.5013	1373.3146	1466.5527	1473.0512	1479.4272	1484.3395	1497.4452	1649.1092	3002.2319	3027.1824	3042.4249	3044.566	3052.1803	3055.8158	3088.2958	3091.1996	3109.7492	3114.4477	3160.9897	3186.1935
C1CC23CCC12CC=C3	C1C[C@@]23CC[C@@]12CC=C3	
InChI=1S/C9H12/c1-2-8-4-6-9(8,3-1)7-5-8/h1-2H,3-7H2	InChI=1S/C9H12/c1-2-8-4-6-9(8,3-1)7-5-8/h1-2H,3-7H2/t8-,9+
