20
gdb 8483	2.99451	1.84889	1.45551	1.0296	75.41	-0.2357	0.0795	0.3153	969.3101	0.175637	-348.984135	-348.975428	-348.974484	-349.016516	33.419	
C	-0.1656354393	 1.5779156135	 0.0279563647	-0.41633
C	 0.0551476132	 0.0704453978	-0.0010688998	-0.017429
C	 1.1723884671	-0.5351745204	-0.9246548805	-0.305615
C	 1.7631614542	-1.2808763076	 0.2832993031	 0.307673
C	 2.2945923858	-2.6840863555	 0.2647700212	-0.496886
C	 2.1838497185	-0.2497964324	 1.3123953375	-0.401202
C	 0.7297469453	-0.6235774566	 1.1900792178	 0.347942
O	 0.0331930711	-1.2156707534	 2.2331664115	-0.467219
H	 0.764593717	 2.1184249564	 0.2336655065	 0.112183
H	-0.5517848758	 1.9391968284	-0.9314987087	 0.114405
H	-0.8916595661	 1.8557344635	 0.800706006	 0.110692
H	-0.8923429506	-0.4393895068	-0.2040638069	 0.078816
H	 0.7728544352	-1.1982912838	-1.6963552136	 0.098759
H	 1.8404224924	 0.1923247553	-1.3994213609	 0.089491
H	 3.2789316039	-2.7357027538	-0.2161179559	 0.11584
H	 2.3986512128	-3.0760659665	 1.2815704161	 0.123527
H	 1.6225874409	-3.3548156063	-0.2830003188	 0.115718
H	 2.6671554347	-0.6678310495	 2.1908592397	 0.106785
H	 2.560728914	 0.726511545	 1.0135053978	 0.098895
H	 0.0060799758	-0.5985348874	 2.9720719031	 0.283954
140.6089	174.5931	191.0842	212.2015	225.1548	253.4854	327.0242	350.6603	434.2309	453.9708	559.6544	568.4826	681.8604	739.3506	809.6837	842.6931	891.1898	929.28	966.8627	982.3453	1022.4575	1051.043	1066.3745	1102.0027	1132.5703	1170.8187	1199.9802	1214.9662	1236.5472	1247.9787	1306.5393	1336.8204	1371.8602	1405.0378	1412.4915	1427.934	1480.1542	1487.4694	1495.9868	1497.5014	1498.9498	1519.5685	3020.4698	3025.5658	3037.307	3050.3284	3077.3149	3089.0135	3093.4395	3096.2227	3098.6792	3100.4509	3189.6601	3798.0003
CC1CC2(C)CC12O	C[C@H]1C[C@@]2(C)C[C@@]12O	
InChI=1S/C7H12O/c1-5-3-6(2)4-7(5,6)8/h5,8H,3-4H2,1-2H3	InChI=1S/C7H12O/c1-5-3-6(2)4-7(5,6)8/h5,8H,3-4H2,1-2H3/t5-,6-,7+/m0/s1
