21
gdb 94616	3.6023	0.85915	0.76589	1.6819	78.92	-0.2431	0.085	0.3281	1532.9313	0.181585	-424.184544	-424.175207	-424.174263	-424.219865	33.772	
C	-0.3223915229	 1.5261289413	-0.1081321136	-0.404179
C	 0.0913392744	 0.0735292675	 0.0116166042	 0.139657
O	 1.3085343807	-0.2214507261	-0.7167871835	-0.291535
C	 1.8467722689	-0.9595201018	 0.396492759	-0.082548
C	 0.7049002583	-0.4897566588	 1.3260850021	-0.044553
C	 1.0990686733	 0.5071503633	 2.4162667295	-0.250082
C	 1.8081839933	-0.173516779	 3.5632785613	 0.097185
C	 1.6091800686	 0.2239586929	 4.9615774316	-0.181486
O	 0.9881764809	-0.9530644667	 4.440794526	-0.237281
H	 0.4603857418	 2.2022899224	 0.2452456558	 0.119611
H	-0.5248712362	 1.7636063866	-1.1573279058	 0.12775
H	-1.2375047505	 1.7158168324	 0.4634251118	 0.116702
H	-0.7270916105	-0.566992827	-0.3509912198	 0.070556
H	 1.8693555179	-2.040042571	 0.2018872326	 0.098941
H	 2.8605647908	-0.6268429045	 0.6547913433	 0.095147
H	 0.1217631231	-1.2961070975	 1.7767405542	 0.092227
H	 1.7559672237	 1.2837087516	 2.0041098021	 0.107919
H	 0.2054797271	 1.0094102696	 2.8046240424	 0.104451
H	 2.7545296346	-0.6563048369	 3.3100891792	 0.093367
H	 2.3965078916	 0.0532935145	 5.6946078774	 0.115235
H	 0.9321813111	 1.0458120171	 5.19239547	 0.112914
52.5791	73.8834	90.5249	134.2573	206.1804	234.3832	319.6495	365.7012	416.7625	471.0044	511.5376	738.243	793.7608	832.418	863.8256	873.8396	891.4049	927.4631	964.101	1000.3971	1023.4457	1039.3119	1091.6687	1095.6291	1129.9495	1154.9498	1156.9606	1162.2725	1172.0986	1186.8097	1244.9977	1259.5052	1294.7563	1298.9341	1318.2328	1360.8671	1388.6915	1392.2709	1409.9912	1448.3187	1469.7498	1482.9492	1498.8623	1526.5478	1530.079	2978.9291	3002.9924	3024.8854	3038.4028	3041.8087	3065.2532	3080.6541	3087.1014	3092.6369	3105.5644	3121.8339	3166.903
CC1OCC1CC1CO1	C[C@H]1OC[C@H]1C[C@H]1CO1	
InChI=1S/C7H12O2/c1-5-6(3-8-5)2-7-4-9-7/h5-7H,2-4H2,1H3	InChI=1S/C7H12O2/c1-5-6(3-8-5)2-7-4-9-7/h5-7H,2-4H2,1H3/t5-,6-,7+/m1/s1
