22
gdb 55461	2.95493	1.21338	0.93825	3.6399	84.06	-0.2294	0.0356	0.2651	1311.9301	0.196427	-404.406182	-404.397271	-404.396327	-404.440097	34.131	
C	 0.0313374393	 1.5278100502	-0.0262004309	-0.501452
C	 0.0554924986	 0.0036024835	-0.0389197227	 0.398271
O	 1.1163060636	-0.5988509289	-0.0863950552	-0.377158
N	-1.1515833711	-0.6503208143	 0.0120517079	-0.080209
C	-2.4643971656	-0.0196293544	 0.0293883372	-0.171796
C	-3.3040109978	-0.5233804623	 1.2135407179	-0.18492
C	-3.3824936158	-2.0560705152	 1.2172521203	-0.189953
C	-1.9766092401	-2.6695904164	 1.1663833209	-0.190877
C	-1.1766361601	-2.1119417053	-0.016228887	-0.168157
H	 1.0672274296	 1.86334349	-0.0577170411	 0.146233
H	-0.5011932993	 1.9363932413	-0.8909007824	 0.136031
H	-0.4434372884	 1.9243870608	 0.8767565434	 0.13521
H	-2.3564007101	 1.0630743363	 0.0729063859	 0.11527
H	-2.9903707899	-0.2543140787	-0.9104854275	 0.100275
H	-2.844016564	-0.1743953382	 2.1468114662	 0.101767
H	-4.3055070693	-0.081962035	 1.1602733207	 0.09601
H	-3.9273558665	-2.4086520202	 2.0993300204	 0.096545
H	-3.9553395933	-2.3897768984	 0.3405426772	 0.094461
H	-1.4395706182	-2.4437036723	 2.0960644826	 0.105832
H	-2.0329923216	-3.7605013561	 1.0836390816	 0.096907
H	-1.6366809325	-2.4437464068	-0.9604759643	 0.094544
H	-0.1417180174	-2.4511195197	-0.0067505614	 0.147166
52.136	100.6379	183.5204	200.3752	259.5943	314.5925	370.5053	397.3905	441.5569	472.3863	534.1697	591.5448	603.0382	716.2011	817.4792	840.6283	862.5417	897.518	955.027	968.5307	996.2803	1041.1577	1047.323	1068.0567	1078.0287	1151.7306	1167.8185	1182.0795	1262.4569	1282.4762	1288.2862	1307.9497	1355.8541	1376.8176	1379.9815	1383.1992	1388.7845	1406.7436	1459.8314	1474.7692	1477.7801	1485.9213	1486.1736	1491.7622	1498.3377	1509.6381	1753.883	2971.9907	2982.3415	3011.9488	3026.2935	3030.3586	3043.8108	3068.5934	3073.0269	3078.758	3106.8391	3138.1491	3145.879	3161.1814
CC(=O)N1CCCCC1	CC(=O)N1CCCCC1	
InChI=1S/C7H13NO/c1-7(9)8-5-3-2-4-6-8/h2-6H2,1H3	InChI=1S/C7H13NO/c1-7(9)8-5-3-2-4-6-8/h2-6H2,1H3
