16
gdb 54085	1.96713	1.43421	0.88654	3.9907	69.56	-0.2507	-0.0354	0.2154	1252.2922	0.122797	-471.2383	-471.228904	-471.22796	-471.273539	33.106	
N	-0.3561125212	 1.3206113312	-0.2293654305	-0.555868
C	-0.0525660518	-0.0276656008	-0.1144884335	 0.421123
N	 1.0989307121	-0.567528	-0.2022312409	-0.537467
N	-1.1976576223	-0.8421032176	 0.0384484387	-0.124511
C	-2.5467401177	-0.3199913697	-0.1134550269	-0.290563
C	-2.80611291	 0.3056428963	-1.4756070171	 0.164668
O	-3.5773140699	 1.2106848403	-1.6492139104	-0.240785
C	-1.0515005103	-2.1974677128	 0.32621229	 0.173669
O	-1.9890296682	-2.952339169	 0.4405016136	-0.324999
H	 0.4451537339	 1.9328240901	-0.2289089539	 0.26039
H	-1.1373260267	 1.6864826855	 0.2938721861	 0.268793
H	 1.8373884044	 0.1296732024	-0.2520376127	 0.215102
H	-3.2038141971	-1.1929085379	-0.010482282	 0.186081
H	-2.8261385909	 0.3894329069	 0.6742264292	 0.132327
H	-2.2455160335	-0.1699455494	-2.3101368212	 0.099307
H	 0.0016679391	-2.4810528554	 0.4328725416	 0.152732
43.4779	74.2602	111.5991	151.2675	221.2533	272.1579	331.1926	379.5256	407.5187	456.2123	460.7498	523.0236	595.8283	655.2604	722.4935	745.3312	784.7139	905.7929	1039.9345	1054.5888	1066.1683	1093.2616	1106.9714	1167.851	1259.1801	1315.5919	1329.2957	1405.3927	1412.0923	1445.1944	1475.2373	1640.0745	1734.2399	1796.2884	1838.8635	2899.391	3030.9662	3075.5443	3089.664	3520.937	3578.1716	3684.9746
NC(=N)N(CC=O)C=O	NC(=N)N(CC=O)C=O	
InChI=1S/C4H7N3O2/c5-4(6)7(3-9)1-2-8/h2-3H,1H2,(H3,5,6)	InChI=1S/C4H7N3O2/c5-4(6)7(3-9)1-2-8/h2-3H,1H2,(H3,5,6)
