19
gdb 5945	4.4071	1.14643	1.12741	4.7773	71.76	-0.2836	0.0256	0.3092	1141.785	0.162905	-365.088675	-365.079051	-365.078107	-365.122619	35.012	
C	 0.1143709565	 1.540794309	-0.104276446	-0.395606
C	-0.0212480932	 0.0221383389	 0.032097613	-0.202057
C	-1.4781651104	-0.4895985298	 0.0716599949	 0.344376
C	-2.2712047891	 0.0831963652	 1.2474397272	-0.407959
O	-2.1860499776	-0.0882726592	-1.0971170931	-0.446234
C	-1.4372195494	-2.0447669366	 0.1473634726	-0.380854
C	-2.75863169	-2.6648690693	 0.1033047227	 0.279223
N	-3.8004681858	-3.1637125063	 0.0764166181	-0.31407
H	 1.1587448819	 1.8186301068	-0.272863247	 0.115524
H	-0.4793941862	 1.9066360279	-0.9461938868	 0.130917
H	-0.2234835318	 2.0615247175	 0.7961956659	 0.124332
H	 0.4815839219	-0.4628467927	-0.8174769056	 0.086146
H	 0.5044577139	-0.3248994188	 0.9303731059	 0.100522
H	-2.363748564	 1.1661470911	 1.1469969653	 0.133657
H	-3.2778260851	-0.3411800234	 1.2672662681	 0.150457
H	-1.7766365972	-0.14065353	 2.1973382485	 0.113642
H	-1.7063629305	-0.402517006	-1.8719002844	 0.28069
H	-0.8444691581	-2.4337573151	-0.6899086001	 0.137125
H	-0.9291216757	-2.3633834592	 1.0644712506	 0.150168
74.3297	109.7334	129.6537	205.1575	235.2947	265.7768	311.6959	335.3772	346.061	397.9864	400.6253	426.173	452.8906	617.8547	766.0036	788.4524	870.6394	906.9998	951.2134	966.6525	1009.3749	1032.6517	1072.6053	1137.8842	1173.7107	1184.321	1243.7653	1290.5087	1331.3655	1371.558	1388.5597	1410.3428	1426.2699	1458.6158	1480.9216	1486.9327	1496.1146	1507.3311	1514.0502	2363.5816	3000.3309	3034.9293	3047.5264	3049.6084	3053.8506	3078.9629	3113.3192	3124.7119	3127.4312	3141.0926	3796.4274
CCC(C)(O)CC#N	CC[C@@](C)(O)CC#N	
InChI=1S/C6H11NO/c1-3-6(2,8)4-5-7/h8H,3-4H2,1-2H3	InChI=1S/C6H11NO/c1-3-6(2,8)4-5-7/h8H,3-4H2,1-2H3/t6-/m1/s1
