20
gdb 61601	3.25707	0.82794	0.7184	5.4551	79.81	-0.2666	0.0411	0.3077	1575.1552	0.169572	-403.14814	-403.13819	-403.137246	-403.183705	36.134	
C	-0.107936588	 1.6141850251	 0.2295585173	-0.387656
C	-0.0274878364	 0.0914111562	 0.0082701568	-0.144666
C	 0.7686798003	-0.6604755311	 1.1052152268	-0.195839
C	 2.2360420303	-0.2859491574	 1.1385215513	-0.031528
C	 2.7543722359	 0.8216780998	 2.0425532855	-0.324293
C	 3.0687403213	-0.6218631237	 2.3424786976	 0.083335
O	 2.4104978419	-1.2672522285	 3.3931386811	-0.415651
C	-1.377034485	-0.4753910177	-0.0980402562	 0.263958
N	-2.4416567184	-0.9199383003	-0.1704223323	-0.325493
H	 0.8957389324	 2.043385635	 0.2382505134	 0.135058
H	-0.6855574478	 2.0929558339	-0.5650302131	 0.134763
H	-0.5904700429	 1.8403874226	 1.1848752856	 0.132989
H	 0.4645325168	-0.092448084	-0.9564879697	 0.12297
H	 0.3108550248	-0.4771926109	 2.0811624452	 0.125218
H	 0.6754364889	-1.7368608893	 0.9221555047	 0.124459
H	 2.7456484805	-0.3942184368	 0.1834777678	 0.089224
H	 3.5456007843	 1.4720929555	 1.6853524684	 0.113867
H	 2.0296538878	 1.2998814645	 2.6935708304	 0.11773
H	 4.0873987029	-0.96578238	 2.163696509	 0.090195
H	 2.7744925703	-0.9384240629	 4.2215021403	 0.291362
46.7064	79.2093	103.4789	191.8507	213.2029	234.0451	282.927	293.8394	314.2296	389.4658	460.9099	512.1258	561.9614	601.1635	769.1238	815.737	831.3055	874.8839	895.1982	928.42	979.3883	1002.8098	1047.3213	1070.3748	1099.4981	1127.5551	1138.0358	1174.336	1177.1049	1238.8931	1247.5998	1297.7377	1304.6263	1333.0954	1361.5976	1401.4958	1412.4516	1427.726	1483.276	1489.0083	1497.5888	1500.6497	2355.0869	3020.307	3047.2634	3051.7145	3097.3947	3098.9241	3123.6074	3128.0452	3132.1883	3139.2974	3217.8864	3809.9976
CC(CC1CC1O)C#N	C[C@@H](C[C@H]1C[C@H]1O)C#N	
InChI=1S/C7H11NO/c1-5(4-8)2-6-3-7(6)9/h5-7,9H,2-3H2,1H3	InChI=1S/C7H11NO/c1-5(4-8)2-6-3-7(6)9/h5-7,9H,2-3H2,1H3/t5-,6-,7+/m0/s1
