16
gdb 5861	4.76054	0.91109	0.90498	2.0833	82.8	-0.2428	-0.0167	0.2261	1330.685	0.126278	-346.551582	-346.542172	-346.541228	-346.585215	34.424	
C	-0.038159186	 1.5439344771	 0.0075196168	-0.404997
C	-0.011287803	 0.0025999174	 0.0211663691	 0.089737
C	 0.7362222345	-0.5288481859	 1.2602877205	-0.404963
O	-1.3477484272	-0.5127867809	-0.0054280374	-0.452273
C	 0.6415686929	-0.4893384849	-1.196383572	 0.638613
C	 1.2229716988	-0.8704912391	-2.1859995452	-0.420232
C	 1.8706711348	-1.3033754258	-3.302010673	 0.312428
C	 2.4463605522	-1.6865149418	-4.2917635313	-0.580211
H	 0.9731006382	 1.957576513	-0.031943006	 0.129486
H	-0.6002891724	 1.8996238272	-0.858373612	 0.138496
H	-0.5234541374	 1.9119431606	 0.9190305983	 0.106995
H	 0.2501386575	-0.1587304574	 2.1705228296	 0.106997
H	 0.7148060242	-1.6205155519	 1.2691616728	 0.138496
H	 1.7771239352	-0.1945503311	 1.2687721514	 0.129476
H	-1.787232299	-0.1948815451	 0.7915734678	 0.280178
H	 2.9501313968	-2.0251717013	-5.1627176593	 0.191773
90.7496	91.3091	229.9624	231.2994	236.8763	239.8828	278.1045	346.5335	355.8217	397.8887	513.5845	514.7981	553.5939	573.5416	610.8585	615.8423	632.5973	843.4923	918.1608	960.5639	1016.4376	1072.9257	1172.9746	1178.2621	1195.5433	1389.2525	1390.1098	1411.3219	1475.5401	1478.8128	1492.3086	1507.9368	2182.9824	2366.6993	3031.2057	3036.2847	3105.064	3111.485	3136.6156	3138.637	3505.4504	3798.4558
CC(C)(O)C#CC#C	CC(C)(O)C#CC#C	
InChI=1S/C7H8O/c1-4-5-6-7(2,3)8/h1,8H,2-3H3	InChI=1S/C7H8O/c1-4-5-6-7(2,3)8/h1,8H,2-3H3
