15
gdb 17719	4.9504	2.6033	2.13893	1.7476	68.41	-0.225	-0.0045	0.2205	659.1838	0.120727	-325.383571	-325.378436	-325.377492	-325.412292	22.365	
C	-0.0453573128	 1.5700499015	-0.0101781407	-0.271784
N	 1.4729702855	 1.3044240728	-0.0381642005	-0.200722
C	 1.2574899829	 0.1670294975	 0.9898909694	 0.019052
C	 1.7717184455	-1.0304847765	 0.1549336719	-0.149075
C	 0.6275387251	-2.0707497325	 0.2838670113	-0.081501
C	-0.5320277033	-1.39149389	 0.2639586071	-0.25738
C	-0.0224370189	 0.0367056363	 0.1224823721	 0.254807
C	 1.1959666979	 0.0079939507	-0.8378822905	 0.019052
H	-0.3670441122	 2.1582536408	 0.8548331367	 0.107595
H	-0.4274686556	 2.0020529308	-0.9402726009	 0.107597
H	 1.3195621555	 0.3525212819	 2.0649156854	 0.081014
H	 2.8050628782	-1.3779126949	 0.1503788099	 0.069119
H	 0.7707006898	-3.1389523897	 0.3718970562	 0.10893
H	-1.5430099153	-1.7653148417	 0.330550923	 0.112278
H	 1.1850800077	 0.0048852029	-1.9304983402	 0.081016
365.4329	413.0391	436.7813	541.6586	666.9467	693.3715	751.7745	771.3948	827.1156	835.3643	858.3876	880.3558	894.8476	898.404	906.0462	936.6337	994.9918	1042.5871	1061.3135	1088.8566	1108.6967	1125.8978	1169.6261	1175.6924	1190.3522	1215.7164	1239.2187	1281.4436	1297.5484	1315.7002	1511.9346	1580.5191	3043.1394	3086.0602	3089.4136	3107.2702	3115.584	3223.0972	3250.686
C1N2C3C4C=CC13C24	C1N2[C@@H]3[C@H]4C=C[C@@]13[C@@H]24	
InChI=1S/C7H7N/c1-2-7-3-8-5(7)4(1)6(7)8/h1-2,4-6H,3H2	InChI=1S/C7H7N/c1-2-7-3-8-5(7)4(1)6(7)8/h1-2,4-6H,3H2/t4-,5-,6+,7-
