21
gdb 114117	3.32175	1.01044	0.88074	2.6394	79.	-0.2391	0.0672	0.3063	1401.0629	0.181519	-424.187045	-424.177673	-424.176729	-424.221491	35.202	
C	-0.0846023375	 1.5042649477	-0.0203208751	-0.375842
C	-0.073001913	-0.0238020992	-0.1681299253	-0.287517
C	-1.4364878134	-0.6173862293	-0.0011610526	 0.503844
C	-2.1158787844	-1.0010615678	 1.27591288	-0.341693
C	-1.9794184938	-2.0229128927	 0.1571509708	-0.238963
C	-2.9109444559	-1.6621087359	-0.9954068941	 0.122307
C	-4.421671202	-1.7109413097	-0.8534095195	-0.083441
O	-5.0358596848	-0.9455338217	-1.8745004164	-0.42151
O	-2.4250827618	-0.2822831932	-0.9976719463	-0.361693
H	 0.9146820524	 1.9196738909	-0.1791805367	 0.112495
H	-0.7611464841	 1.9552801137	-0.7518953859	 0.135705
H	-0.4221720178	 1.8005125634	 0.9779284432	 0.1188
H	 0.3170230924	-0.2981026933	-1.1557835863	 0.107712
H	 0.5950540338	-0.4723951807	 0.5764592731	 0.10241
H	-1.4544368221	-1.1846092306	 2.1173986514	 0.115012
H	-3.0767101699	-0.5690931985	 1.5379197947	 0.115041
H	-1.4621849299	-2.9648352637	 0.2807851591	 0.100343
H	-2.6114050825	-2.1410720856	-1.9359151697	 0.088684
H	-4.7734111465	-2.7424307864	-0.9683157479	 0.107844
H	-4.7221290319	-1.3641174298	 0.1464017929	 0.086612
H	-4.6191290474	-0.0758267976	-1.8395777394	 0.293851
71.6744	94.2203	134.224	147.2742	221.5751	256.1613	339.089	364.9498	432.4338	440.5955	505.302	528.0755	665.4511	724.0537	788.6108	854.8191	865.9393	890.8395	960.1901	970.0159	992.6517	1006.085	1017.217	1037.1187	1069.6506	1072.7359	1099.601	1113.6186	1125.0725	1196.2137	1221.0119	1268.3174	1290.0204	1299.8345	1343.0671	1356.4094	1396.7228	1405.2603	1415.9872	1437.9363	1473.5067	1489.5188	1498.0349	1502.331	1511.4349	2994.7015	3029.4441	3031.7065	3040.9449	3068.1129	3070.6599	3111.4834	3118.8591	3120.1469	3199.6462	3209.2384	3787.7398
CCC12CC1C(CO)O2	CC[C@]12C[C@H]1[C@@H](CO)O2	
InChI=1S/C7H12O2/c1-2-7-3-5(7)6(4-8)9-7/h5-6,8H,2-4H2,1H3	InChI=1S/C7H12O2/c1-2-7-3-5(7)6(4-8)9-7/h5-6,8H,2-4H2,1H3/t5-,6+,7-/m0/s1
