21
gdb 42047	2.82244	1.49867	1.08194	2.1419	78.03	-0.2441	0.0695	0.3136	1150.8587	0.185113	-424.216164	-424.208336	-424.207392	-424.24854	30.934	
C	 0.1641076778	 1.5439563228	 0.230479133	-0.104782
O	 1.4128314862	 1.4803315413	-0.4904075955	-0.297401
C	 1.3424604915	 0.036838007	-0.5949013736	 0.116898
C	 2.4792307531	-0.6748728574	 0.1222649642	-0.21212
C	 2.2503170751	-2.1939496203	 0.2208350553	-0.206245
C	 1.2897801635	-2.6104143591	 1.3459995624	-0.184212
C	-0.1276926559	-2.0413627752	 1.2497488037	-0.074285
O	-0.1601142168	-0.6206788575	 1.3375617395	-0.250202
C	-0.0470620469	 0.029329363	 0.1015231924	 0.063359
H	 0.2935202631	 1.874730514	 1.2677768489	 0.11112
H	-0.5702467293	 2.1839272517	-0.2714229143	 0.101824
H	 1.3102645495	-0.2711699208	-1.6497681834	 0.069924
H	 3.4070204089	-0.4649081052	-0.4219874764	 0.10119
H	 2.5933700601	-0.2461656374	 1.1238116636	 0.107343
H	 1.8812623062	-2.57422193	-0.7427524328	 0.092753
H	 3.211688925	-2.6915353479	 0.3895076352	 0.099712
H	 1.2111665031	-3.7052163902	 1.3742343272	 0.092885
H	 1.711906053	-2.3019828087	 2.31073189	 0.107303
H	-0.6173907604	-2.3726215651	 0.3197940817	 0.086899
H	-0.7286381228	-2.4129243421	 2.0869527138	 0.105819
H	-0.870033864	-0.2668174228	-0.5640901549	 0.072219
83.8252	158.3174	241.6856	276.0882	309.4656	328.2815	424.3509	432.55	509.5317	588.9778	749.9448	767.0314	828.0668	861.2934	878.0367	916.8547	945.0953	979.691	991.7473	1026.2888	1047.81	1066.6022	1095.6095	1106.2802	1150.7369	1161.3033	1178.2569	1205.7874	1233.8627	1270.6019	1280.0292	1290.3422	1317.3024	1341.8774	1353.6508	1376.311	1387.9232	1394.7301	1397.9128	1424.1626	1472.3951	1487.3328	1490.3565	1499.4047	1516.2677	2977.246	2990.0585	3004.9008	3008.7232	3018.646	3025.7685	3037.2473	3058.8078	3063.0439	3069.2141	3073.9192	3083.6225
C1OC2CCCCOC12	C1O[C@H]2CCCCO[C@@H]12	
InChI=1S/C7H12O2/c1-2-4-8-7-5-9-6(7)3-1/h6-7H,1-5H2	InChI=1S/C7H12O2/c1-2-4-8-7-5-9-6(7)3-1/h6-7H,1-5H2/t6-,7-/m0/s1
