19
gdb 40606	3.92447	1.19362	1.14405	2.2715	80.37	-0.2009	0.0633	0.2642	1151.0559	0.159459	-381.931793	-381.924209	-381.923265	-381.964416	30.463	
C	 0.7861524739	 1.7687129776	 0.2760485919	-0.269312
C	 1.385940348	 0.4631666592	-0.180991764	-0.269344
C	-0.1110561023	 0.6106470311	-0.0800562497	 0.060269
N	-0.7179107929	-0.0592164097	 1.0376123949	-0.070876
C	-2.0260890581	 0.0124373558	 1.611122292	-0.061261
C	-3.2315228054	-0.2162281824	 0.6238582661	-0.077003
N	-2.7147484666	-0.3454667518	-0.7603780227	-0.331353
C	-2.6453811886	-1.4933810602	 0.1763209442	-0.077
C	-1.4252130287	-1.2969151312	 1.1523994417	-0.061298
H	 0.8753591691	 2.0141220328	 1.3279263704	 0.111476
H	 0.8069344559	 2.6194213035	-0.3959430743	 0.106012
H	 1.8242294992	 0.4051990489	-1.1710763255	 0.106019
H	 1.8697329358	-0.1501222539	 0.5703094588	 0.111477
H	-0.6752277201	 0.673550224	-0.9994911591	 0.119262
H	-2.1607092654	 0.3982036894	 2.6166617092	 0.092891
H	-4.262553462	 0.0427550384	 0.8260703334	 0.093142
H	-3.5216619088	-0.5042444807	-1.3639921239	 0.230863
H	-3.1236071963	-2.4388668032	-0.0435565515	 0.093138
H	-1.0093707165	-2.1109202877	 1.7376432279	 0.092897
40.2544	158.3614	188.2386	313.829	347.831	388.6483	560.5618	651.9529	688.4689	722.993	740.4903	778.8947	797.5082	834.8165	849.9842	875.8291	886.8223	909.9632	935.4765	937.5466	992.1811	1019.703	1026.2217	1037.0212	1053.8385	1071.0503	1104.0119	1107.5065	1147.739	1148.9352	1197.7922	1221.5353	1229.6274	1231.676	1293.6306	1297.6646	1336.8758	1372.3012	1427.4278	1456.4319	1492.8437	3135.6519	3140.11	3152.3609	3162.6762	3193.4108	3206.8863	3210.0104	3219.093	3234.695	3464.8213
C1CC1N1C2C3NC3C12	C1CC1N1[C@H]2[C@H]3N[C@H]3[C@@H]12	
InChI=1S/C7H10N2/c1-2-3(1)9-6-4-5(8-4)7(6)9/h3-8H,1-2H2	InChI=1S/C7H10N2/c1-2-3(1)9-6-4-5(8-4)7(6)9/h3-8H,1-2H2/t4-,5+,6-,7+,9?
