19
gdb 40125	2.85309	1.6311	1.28462	1.7868	79.83	-0.2352	0.0024	0.2377	1035.4851	0.160789	-385.871297	-385.86392	-385.862976	-385.902862	30.123	
C	-0.1002714021	 1.5019094266	-0.0086708229	-0.318028
C	 1.2657524329	 0.8649229432	-0.0610406805	-0.304905
C	 0.0263630998	-0.0013254004	 0.0082923194	 0.36227
C	-0.2908530278	-0.7498575121	 1.301291711	-0.358508
C	 0.0962695387	-2.2066274067	 1.2366197905	-0.082782
C	 0.1021862231	-2.8901617918	 0.0910479467	-0.0419
C	-0.2600354774	-2.2356711687	-1.1905760311	-0.012836
O	-1.5210178659	-1.5185676024	-1.2317820561	-0.267476
C	-0.3121812053	-0.7627317181	-1.2349264945	-0.018056
H	-0.4023958907	 1.9923578245	 0.910995207	 0.113003
H	-0.4819268829	 1.9739847239	-0.9080124206	 0.1153
H	 1.8147733568	 0.9057518463	-0.9964041082	 0.112169
H	 1.8933239835	 0.9170493769	 0.822057193	 0.113726
H	 0.2081298922	-0.2598152819	 2.1446060252	 0.100253
H	-1.3691229071	-0.6784780523	 1.5007495575	 0.131162
H	 0.3443252937	-2.7038152195	 2.1702621229	 0.094864
H	 0.3718164102	-3.9413943634	 0.0645697335	 0.088857
H	-0.0473588558	-2.7832722429	-2.1064682839	 0.090299
H	-0.0942061259	-0.2546328011	-2.176183959	 0.082587
105.552	202.7346	276.6027	290.7605	326.8571	417.3602	503.7527	529.335	543.5949	702.259	714.8103	775.6352	809.0699	834.8616	859.6165	914.6989	926.572	947.0257	971.8998	983.8802	987.564	1012.1959	1020.0119	1059.5439	1072.6173	1080.0745	1133.3004	1187.5433	1193.8066	1219.2216	1269.5625	1293.6443	1326.6836	1345.2215	1394.3151	1420.3224	1456.7991	1467.3522	1477.7002	1503.4448	1708.1129	3012.0656	3059.5834	3089.28	3125.7428	3129.4635	3130.8711	3159.4886	3184.2866	3203.6114	3218.0358
C1CC11CC=CC2OC12	C1CC21CC=C[C@H]1O[C@@H]21	
InChI=1S/C8H10O/c1-2-6-7(9-6)8(3-1)4-5-8/h1-2,6-7H,3-5H2	InChI=1S/C8H10O/c1-2-6-7(9-6)8(3-1)4-5-8/h1-2,6-7H,3-5H2/t6-,7-/m1/s1
