22
gdb 122822	4.14748	0.55455	0.5423	4.1009	81.22	-0.2402	0.0264	0.2667	2148.5814	0.191856	-441.512862	-441.50124	-441.500296	-441.552808	39.227	
C	-0.1732497517	 1.3880409139	-0.591339562	-0.380256
C	-0.0949714809	 0.0205374761	 0.0926356888	-0.160766
C	-1.4315227914	-0.7281307994	 0.0891048481	-0.163819
C	-1.3423002635	-2.097918361	 0.7731616747	-0.167016
N	-2.6031317124	-2.8234369994	 0.78322	-0.321978
C	-2.9261647391	-3.7292326925	-0.1867526782	 0.407989
O	-2.1821167741	-4.0310702527	-1.0973561288	-0.359062
C	-4.2911432989	-4.4008966635	 0.0180811102	-0.18095
O	-4.877752775	-4.6179148976	-1.2426727611	-0.391088
H	 0.7949535437	 1.8979994688	-0.5758467771	 0.112324
H	-0.4812863195	 1.2885880425	-1.6378115733	 0.119426
H	-0.9007205564	 2.0390628883	-0.0936507829	 0.112181
H	 0.6642524788	-0.5959573622	-0.4058804774	 0.10438
H	 0.2494439233	 0.147574222	 1.1280075662	 0.092008
H	-2.1971490155	-0.1187775246	 0.5895833653	 0.083343
H	-1.7746849292	-0.8777763446	-0.941502193	 0.11986
H	-0.6252102336	-2.7310714626	 0.2446109564	 0.143889
H	-0.9951800163	-1.9846051947	 1.8073976568	 0.099021
H	-3.3211591061	-2.5240364	 1.4226464738	 0.24038
H	-4.1004403957	-5.343885163	 0.5544764865	 0.116297
H	-4.932514408	-3.7814010304	 0.6678142185	 0.080783
H	-5.5482232285	-5.2997073632	-1.1486089515	 0.293053
16.5891	30.9754	66.4176	80.0709	111.2525	142.2293	199.9663	236.5825	252.1524	298.4821	338.3655	423.4369	432.1069	503.3776	614.8654	712.2386	741.4168	794.0277	890.7567	910.2042	969.9086	994.1174	1015.0581	1061.4243	1068.8604	1127.3092	1134.2529	1181.9742	1220.1106	1227.1855	1260.0208	1291.9913	1302.2311	1327.8935	1339.7458	1385.0052	1407.4835	1415.7954	1456.3817	1471.1572	1485.4071	1494.9609	1496.6816	1500.2042	1511.1942	1541.0975	1797.5715	2953.3046	2994.9875	3008.3389	3014.0405	3029.9172	3030.8661	3042.1239	3068.0113	3096.9165	3102.6468	3111.873	3638.4341	3843.1506
CCCCNC(=O)CO	CCCCNC(=O)CO	
InChI=1S/C6H13NO2/c1-2-3-4-7-6(9)5-8/h8H,2-5H2,1H3,(H,7,9)	InChI=1S/C6H13NO2/c1-2-3-4-7-6(9)5-8/h8H,2-5H2,1H3,(H,7,9)
