17
gdb 98811	3.0315	1.24985	0.90013	1.4084	72.52	-0.2527	-0.011	0.2417	1265.9534	0.136327	-455.214402	-455.205278	-455.204334	-455.249206	31.599	
C	-0.0075390356	 1.43153691	-0.0907298087	-0.330668
N	 0.0863360346	-0.0089726699	 0.0286096629	-0.360822
C	 0.6279351719	-0.6030568262	 1.1218200528	 0.490366
O	 1.0864388197	-0.0507065854	 2.1021857836	-0.404394
N	 0.6183580672	-2.0094403926	 1.0287454014	-0.169846
C	 1.0986978879	-3.024662606	 1.9752431454	-0.161219
C	 0.629589918	-4.1011659552	 0.9483546661	-0.376126
C	 0.181106118	-2.9151983603	 0.0776432421	 0.431882
O	-0.3410616783	-2.744219041	-0.9959520819	-0.377779
H	 0.5525322189	 1.7953293533	-0.9593323014	 0.128897
H	-1.0499692032	 1.754772046	-0.1874034899	 0.128896
H	 0.4169359911	 1.8689669886	 0.8134310924	 0.168984
H	-0.2552329649	-0.6102854751	-0.7105975124	 0.272074
H	 2.1748749692	-2.9759623485	 2.1527823037	 0.135396
H	 0.5656310198	-3.0144327783	 2.9280301147	 0.135419
H	 1.4199542516	-4.7080143044	 0.5036822053	 0.14447
H	-0.1857121259	-4.7471745452	 1.2778866838	 0.14447
71.0081	85.3758	101.1268	149.1937	161.589	201.7156	301.7129	372.9468	435.5297	535.2465	604.5862	613.5437	762.9974	779.9276	811.1649	821.0746	930.0375	1021.6201	1051.5878	1060.4011	1155.0822	1158.5303	1176.2207	1182.1809	1183.154	1227.696	1235.7001	1322.3698	1372.2531	1445.396	1459.2321	1498.5751	1502.9719	1525.14	1597.0248	1801.2273	1856.1661	3028.9042	3075.6815	3080.0576	3092.6346	3126.6083	3150.761	3154.5466	3560.0713
CNC(=O)N1CCC1=O	CNC(=O)N1CCC1=O	
InChI=1S/C5H8N2O2/c1-6-5(9)7-3-2-4(7)8/h2-3H2,1H3,(H,6,9)	InChI=1S/C5H8N2O2/c1-6-5(9)7-3-2-4(7)8/h2-3H2,1H3,(H,6,9)
