14
gdb 33311	7.8497	0.66846	0.62227	5.5568	87.51	-0.2437	-0.0789	0.1647	1678.2839	0.102911	-395.72461	-395.716635	-395.715691	-395.757942	28.273	
N	 0.154001052	-3.6770837182	-0.1115186129	-0.325446
C	 0.0847853507	-2.5180289522	-0.0726302733	 0.178663
C	 0.0120608744	-1.1564767659	-0.0276448681	 0.334945
C	-0.0561841475	 0.0495858544	 0.0107446972	-0.071864
C	-0.0968082664	 1.4747889854	 0.0448662045	 0.163395
N	-1.1787935588	 2.1490400289	-0.1021022268	-0.292114
C	-0.7856060069	 3.5632708573	 0.028920739	-0.178601
C	 0.7651952341	 3.5854776364	-0.0408996666	-0.192933
N	 1.0749155503	 2.1866641288	 0.2928729423	-0.358408
H	-1.2607768566	 4.1647666216	-0.7499557671	 0.125363
H	-1.1482573681	 3.9349125262	 0.9959551098	 0.12816
H	 1.122928397	 3.8449414846	-1.0464477614	 0.113675
H	 1.2180931326	 4.2733946397	 0.6767316443	 0.123295
H	 1.9439548431	 1.791215233	-0.0362084708	 0.251871
75.199	79.7098	170.281	217.1287	228.5904	406.091	420.0782	498.6249	547.5019	581.6957	585.2606	697.2782	745.5289	862.424	894.0054	945.2144	990.157	1036.6112	1079.7942	1104.8806	1197.8193	1240.8283	1279.8849	1313.5994	1353.3566	1458.8645	1489.4998	1525.4543	1652.5117	2267.4288	2394.8392	3010.6397	3027.9356	3089.9315	3099.9737	3604.0124
N#CC#CC1=NCCN1	N#CC#C[C]1[N]CCN1	
InChI=1S/C6H5N3/c7-3-1-2-6-8-4-5-9-6/h4-5H2,(H,8,9)	InChI=1S/C6H5N3/c7-3-1-2-6-8-4-5-9-6/h4-5H2,(H,8,9)
