19
gdb 32421	2.85708	1.22801	0.92419	0.5109	78.79	-0.1734	0.0611	0.2345	1286.6524	0.160006	-419.240926	-419.231411	-419.230467	-419.275219	35.655	
C	 0.015825585	 1.497594577	 0.1553394341	-0.361197
C	-0.026341794	-0.0305272449	-0.0228023004	-0.301653
C	 0.6827457645	-0.5122767177	-1.2541521543	 0.22942
C	 0.1014889464	-0.9518354179	-2.4177390555	-0.203952
N	 1.1092415816	-1.287177437	-3.314145828	-0.321945
C	 2.3124213115	-1.067246753	-2.7206298016	 0.401793
O	 3.4682668458	-1.3223685121	-3.3698660694	-0.44075
C	 2.1077497407	-0.5856531923	-1.4502157834	-0.033434
N	 3.2160843841	-0.2820964676	-0.6009334838	-0.634278
H	 1.0466572575	 1.8593394863	 0.2323901102	 0.105181
H	-0.4458972473	 2.0003759292	-0.6999409264	 0.118568
H	-0.5145779517	 1.8055043033	 1.0627739339	 0.105626
H	 0.4129373047	-0.5015693383	 0.8673713513	 0.088886
H	-1.0711291165	-0.3603679653	-0.0544931502	 0.098631
H	-0.9354042123	-1.0611356086	-2.6904847385	 0.110209
H	 0.986565943	-1.6505319637	-4.2422669111	 0.263315
H	 4.159309677	-1.0952476484	-2.7292302361	 0.302379
H	 3.1911196408	-0.8151213295	 0.2634316486	 0.236148
H	 3.2414216689	 0.6988978105	-0.3385620893	 0.237053
49.4971	119.165	187.5508	222.059	243.9594	268.6059	283.5238	291.788	357.1777	449.0804	517.998	519.2449	569.5846	633.3254	679.621	709.0422	726.2522	757.5571	794.9096	850.959	957.3001	1038.6661	1073.7112	1083.3015	1098.8139	1190.7018	1207.7263	1246.5426	1266.6952	1306.8484	1356.3651	1395.7432	1400.9821	1409.2079	1479.1251	1495.3349	1503.8607	1572.6664	1582.7461	1633.4484	1690.7593	3008.7403	3030.3606	3054.3432	3097.3669	3108.2526	3263.7675	3481.6202	3542.0212	3693.5882	3732.8384
CCC1=CNC(O)=C1N	CCc1c[nH]c(O)c1N	
InChI=1S/C6H10N2O/c1-2-4-3-8-6(9)5(4)7/h3,8-9H,2,7H2,1H3	InChI=1S/C6H10N2O/c1-2-4-3-8-6(9)5(4)7/h3,8-9H,2,7H2,1H3
