23
gdb 122934	5.25311	0.51603	0.48506	2.9596	84.37	-0.2527	-0.0259	0.2267	2303.4971	0.201611	-425.437285	-425.425741	-425.424796	-425.475815	39.464	
C	 0.0084825832	 1.6110810422	-0.0274318743	-0.379623
C	-0.1274167489	 0.0888963914	-0.120969123	-0.166987
C	 0.7486984955	-0.5196768901	-1.2206239575	-0.177403
C	 0.6142222076	-2.033420942	-1.3119588299	-0.060442
O	 1.4523974852	-2.4964525393	-2.3560699275	-0.264879
C	 1.5699067815	-3.8996535431	-2.4600947945	 0.046295
C	 0.3464747289	-4.5995092126	-3.0528169668	-0.404593
C	 2.8251636362	-4.1469338867	-3.2927985947	 0.148181
O	 3.0662583168	-5.1751882975	-3.8678387665	-0.246227
H	 1.0416900356	 1.9030121043	 0.190226656	 0.116456
H	-0.2786752691	 2.0919796953	-0.9689004829	 0.116704
H	-0.6273539654	 2.0201947491	 0.7636354362	 0.113153
H	 0.1338717751	-0.3614746234	 0.8458373181	 0.096962
H	-1.1777856716	-0.1737837792	-0.3036885621	 0.097581
H	 0.4857533444	-0.086599068	-2.1935506528	 0.106425
H	 1.8026108553	-0.2719064996	-1.0443692458	 0.103538
H	 0.9082507616	-2.5054579004	-0.3585234167	 0.08545
H	-0.434881322	-2.3100849664	-1.5000478543	 0.092877
H	 1.7854910199	-4.3294324822	-1.4620556679	 0.092042
H	 0.5974782478	-5.6424611708	-3.2601991546	 0.14381
H	-0.5045427778	-4.5712406126	-2.3681102204	 0.118392
H	 0.0584362784	-4.118215901	-3.9919845568	 0.129978
H	 3.5180986619	-3.2773721776	-3.3054200213	 0.09231
41.7491	46.1639	73.6024	102.628	119.246	138.907	212.362	235.1409	249.1468	252.2989	318.8103	390.7717	454.1692	491.9146	618.0595	743.466	813.4321	831.224	901.7117	917.3632	938.848	952.1079	1026.8858	1070.9927	1080.8552	1114.2978	1138.3467	1151.7024	1172.7242	1195.6623	1251.6009	1291.3295	1312.4356	1323.0701	1330.2788	1338.4443	1382.9266	1389.8127	1403.3445	1413.1215	1438.7147	1487.1185	1489.2247	1495.2948	1497.8637	1500.0022	1510.2017	1527.8772	1840.5201	2903.0855	2917.4081	2955.7517	2994.7732	3013.8004	3029.5524	3033.615	3040.0818	3050.5069	3075.0101	3099.2383	3104.5227	3125.3954	3136.6975
CCCCOC(C)C=O	CCCCO[C@@H](C)C=O	
InChI=1S/C7H14O2/c1-3-4-5-9-7(2)6-8/h6-7H,3-5H2,1-2H3	InChI=1S/C7H14O2/c1-3-4-5-9-7(2)6-8/h6-7H,3-5H2,1-2H3/t7-/m0/s1
