19
gdb 62562	1.88103	1.65447	1.60824	2.3845	71.91	-0.2174	0.0469	0.2642	1037.9845	0.156114	-460.115515	-460.106016	-460.105071	-460.148804	36.221	
C	-0.0355812818	 1.579077165	 0.0982897502	-0.459194
C	 0.0543709667	 0.0766194919	 0.0427210447	 0.304056
O	-1.0916395914	-0.5151279091	-0.5161225383	-0.478538
C	 1.3056611967	-0.7372580058	-0.2749955147	 0.150369
O	 1.2849716935	-1.7157681349	-1.2614256955	-0.456412
C	 2.5402380741	-0.1448416568	 0.380323298	-0.156874
O	 1.8536869615	-0.0852631778	 1.6584730417	-0.316832
C	 0.705839582	-0.7745595669	 1.1220558704	 0.332237
C	 0.0307489902	-1.7932142199	 1.975819961	-0.491346
H	 0.7712958844	 1.9910108598	 0.7075011751	 0.13658
H	 0.0059017548	 2.0193556679	-0.903629407	 0.109921
H	-0.9882462809	 1.8700196908	 0.5523509765	 0.130315
H	-0.7911979002	-1.2289627997	-1.0949898336	 0.284713
H	 1.4444103135	-1.2912582974	-2.1141689049	 0.295205
H	 3.3799923537	-0.8493011654	 0.4199213787	 0.115032
H	 2.8907748771	 0.8387985495	 0.0459599587	 0.102778
H	-0.2715497581	-1.3355915584	 2.9245862832	 0.133564
H	-0.8665663504	-2.1593791451	 1.4724871921	 0.138725
H	 0.6903813745	-2.6370217677	 2.1996381338	 0.1257
156.6228	174.9987	189.7349	195.6165	230.1547	243.6217	278.6372	303.0624	314.8359	418.9791	451.3649	494.7802	516.8008	573.8699	671.8422	683.3152	710.4854	752.1721	907.4198	966.906	984.3155	1022.4177	1075.6122	1103.868	1128.533	1147.2466	1160.5781	1199.6485	1251.8898	1268.7498	1295.2178	1342.4325	1382.3228	1403.6379	1409.6214	1475.6442	1482.9051	1485.2653	1492.8672	1510.524	1529.8653	3018.2684	3036.9221	3038.5174	3068.1894	3098.3484	3098.7936	3135.3076	3136.2054	3744.0652	3762.9086
CC1(O)C2(O)COC12C	C[C@@]1(O)[C@@]2(O)CO[C@@]12C	
InChI=1S/C6H10O3/c1-4(7)5(2)6(4,8)3-9-5/h7-8H,3H2,1-2H3	InChI=1S/C6H10O3/c1-4(7)5(2)6(4,8)3-9-5/h7-8H,3H2,1-2H3/t4-,5-,6-/m0/s1
