18
gdb 40680	4.13152	0.9355	0.8738	2.1878	73.	-0.2516	0.0644	0.316	1358.8237	0.147206	-439.003296	-438.995006	-438.994062	-439.037117	30.398	
C	-0.1901727782	 1.530566491	-0.0348331173	-0.236421
N	 1.1796326131	 1.0174491765	 0.1084788547	-0.317718
C	 0.0573885428	 0.0666489019	 0.0262825031	-0.040004
C	-0.2017636604	-0.7133889024	 1.270653837	-0.017024
O	-1.4054509933	-1.5117673317	 1.2876478942	-0.283305
C	-0.1602213944	-2.1740806027	 1.3024576221	 0.34862
C	 0.2991551238	-3.2089030694	 0.2786328666	-0.153435
O	 0.7954517255	-4.0488245103	 1.3442725297	-0.275182
C	 0.2966523328	-3.1612557458	 2.3714564154	-0.153823
H	-0.5761610822	 2.0491988352	 0.8385331367	 0.125339
H	-0.5013259721	 1.9519093096	-0.9868386506	 0.11839
H	 1.6705278917	 1.0581758749	-0.7800345917	 0.238798
H	-0.0808477896	-0.4926840824	-0.8967844051	 0.090931
H	-0.0035755284	-0.1691657662	 2.1950294939	 0.103344
H	-0.5182210313	-3.6803871933	-0.2820413349	 0.114114
H	 1.0941902511	-2.9065239678	-0.4140933929	 0.108263
H	 1.0889289123	-2.8268483204	 3.0513768809	 0.11373
H	-0.5230316932	-3.6073542667	 2.9490462782	 0.115384
55.5352	103.7252	130.8939	155.8841	295.2731	343.117	378.8014	412.4401	506.7567	602.6898	823.0582	854.1929	865.4587	885.8424	908.4113	915.0696	946.8578	960.7546	1009.898	1022.2438	1031.6152	1078.5617	1120.2604	1128.5391	1142.263	1145.0526	1166.1192	1184.9143	1231.5186	1242.9841	1285.0853	1297.8066	1310.2133	1352.0473	1429.7324	1498.2178	1510.2536	1523.5624	1545.1728	3008.7302	3020.8614	3058.7373	3066.2939	3107.2335	3110.5083	3131.0162	3196.1961	3515.3571
C1NC1C1OC11COC1	C1N[C@H]1[C@H]1OC21COC2	
InChI=1S/C6H9NO2/c1-4(7-1)5-6(9-5)2-8-3-6/h4-5,7H,1-3H2	InChI=1S/C6H9NO2/c1-4(7-1)5-6(9-5)2-8-3-6/h4-5,7H,1-3H2/t4-,5-/m1/s1
