21
gdb 64019	1.92068	1.83999	1.4902	2.0128	79.1	-0.2429	0.0112	0.2542	1050.6276	0.179794	-424.233682	-424.223948	-424.223003	-424.266993	38.266	
C	 0.0485902733	 1.5379523462	-0.1255876865	-0.44678
C	 0.0132295751	 0.0083174589	-0.0043898241	 0.360063
O	-1.3320855718	-0.4346290841	 0.0458468995	-0.471187
C	 0.8467316365	-0.6336336579	-1.1535335253	-0.312562
C	 2.2249288344	-0.7279802594	-0.5493780386	-0.069447
C	 2.1826073	-0.6186543886	 0.777822941	-0.126291
C	 0.7549245149	-0.5013364928	 1.2807864954	 0.352032
C	 0.5747177064	 0.3568035051	 2.5315895172	-0.456637
O	 0.229459311	-1.8141635644	 1.5415914853	-0.468166
H	 1.0715535298	 1.9239801745	-0.1173842048	 0.123964
H	-0.4102874126	 1.8397937514	-1.0751845597	 0.102415
H	-0.5132593872	 2.0069675596	 0.6854643203	 0.124813
H	-1.8174814926	 0.0302793501	-0.643012055	 0.273912
H	 0.4448059327	-1.6280828973	-1.3797607984	 0.126302
H	 0.8153664348	-0.0450442034	-2.0780677225	 0.087321
H	 3.1218086407	-0.8816585743	-1.1400102514	 0.095034
H	 3.0315627746	-0.6727687097	 1.4521851319	 0.08703
H	 1.000025229	 1.3579011865	 2.4171091807	 0.113579
H	-0.4880397483	 0.4437012605	 2.7735138528	 0.135126
H	 1.0757816505	-0.1209846486	 3.3811978509	 0.099237
H	 0.8621341989	-2.2627976823	 2.1122531612	 0.270243
109.3044	177.3537	232.6086	243.3246	249.1861	259.3969	290.073	300.5511	352.0731	363.9055	388.0208	444.2026	518.6115	535.3552	591.5149	660.6674	719.6359	775.2797	860.9277	900.8456	938.1581	953.0474	966.1456	971.449	980.1164	1069.339	1091.7723	1114.8831	1136.7361	1164.8855	1180.6209	1212.0457	1237.2412	1292.1689	1337.1869	1366.203	1396.4085	1399.0995	1408.2314	1474.0605	1485.4952	1487.6473	1498.6065	1510.0813	1676.7838	3026.2199	3031.1598	3032.8323	3068.1755	3094.4542	3099.5453	3123.2743	3129.1929	3170.3664	3196.867	3810.2584	3816.902
CC1(O)CC=CC1(C)O	C[C@@]1(O)CC=C[C@]1(C)O	
InChI=1S/C7H12O2/c1-6(8)4-3-5-7(6,2)9/h3-4,8-9H,5H2,1-2H3	InChI=1S/C7H12O2/c1-6(8)4-3-5-7(6,2)9/h3-4,8-9H,5H2,1-2H3/t6-,7+/m0/s1
