21
gdb 5801	3.34071	1.30239	1.19174	3.3959	75.	-0.2433	0.0309	0.2743	1136.3092	0.186012	-366.314543	-366.304315	-366.303371	-366.350085	37.496	
C	-0.1420151249	 1.5741729692	 0.1420437122	-0.40949
C	-0.0059265336	 0.0426129978	 0.0466706305	 0.271751
C	 0.6830385374	-0.5070093501	 1.3098172905	-0.409736
C	-1.410981488	-0.5789271222	-0.0713725403	-0.401848
C	 0.7842548653	-0.3583280212	-1.2206132539	-0.327635
C	 2.2487480951	 0.0799611579	-1.3059054441	 0.402509
N	 2.9419695346	-0.5234078787	-2.3192649542	-0.515041
O	 2.783710779	 0.8840878302	-0.5648638855	-0.354174
H	 0.8376143265	 2.0477820298	 0.2151595913	 0.148929
H	-0.6569425283	 1.9771384044	-0.7384211752	 0.09518
H	-0.7325513862	 1.8491378096	 1.0229471133	 0.101084
H	 0.0912766715	-0.2694652113	 2.2004967602	 0.103717
H	 0.7821541635	-1.5981493297	 1.2617057317	 0.096513
H	 1.6779884911	-0.0752641476	 1.4316978844	 0.143836
H	-1.9332140102	-0.2214569759	-0.9663755428	 0.103149
H	-1.3632399624	-1.6727480735	-0.1249460578	 0.102832
H	-2.0225290122	-0.3146909768	 0.7978808645	 0.110534
H	 0.7536820173	-1.4499599484	-1.3375281351	 0.10615
H	 0.2760310434	 0.0495402485	-2.1061051692	 0.116505
H	 2.4963251618	-1.120673311	-2.9932385753	 0.256298
H	 3.8834961694	-0.2136755411	-2.4963951952	 0.258936
15.2098	119.5732	162.5392	189.0845	224.4076	268.1602	275.1793	306.3756	325.0542	330.8059	397.7179	400.2001	483.873	508.1401	628.8797	646.0662	764.8029	842.6705	910.0281	932.8491	944.2007	961.3916	964.3912	1044.6752	1065.9924	1090.1961	1182.9658	1216.1025	1275.5134	1294.5875	1310.4215	1392.559	1395.247	1397.8856	1428.3638	1454.7912	1478.0466	1488.8102	1494.7001	1504.7181	1511.2782	1527.5848	1615.7132	1787.2901	3006.1946	3018.4104	3023.5269	3030.4208	3042.8746	3081.4783	3085.2109	3086.3845	3095.3658	3136.2036	3146.3126	3600.7741	3737.5469
CC(C)(C)CC(N)=O	CC(C)(C)CC(=O)N	
InChI=1S/C6H13NO/c1-6(2,3)4-5(7)8/h4H2,1-3H3,(H2,7,8)	InChI=1S/C6H13NO/c1-6(2,3)4-5(7)8/h4H2,1-3H3,(H2,7,8)
