13
gdb 7871	3.80441	1.82512	1.24293	6.5175	63.54	-0.2372	-0.0868	0.1503	908.8516	0.095146	-398.663468	-398.656148	-398.655204	-398.695124	26.432	
C	-0.0196156315	 1.5047544647	 0.0574201513	-0.497372
C	-0.0019406125	 0.0216250675	-0.0604564161	 0.377425
C	-0.0383069982	-0.7470230295	-1.1775168655	-0.349346
C	 0.0010583943	-2.1462544222	-0.7733999304	 0.301082
O	-0.0119080761	-3.1689174321	-1.4139227533	-0.30427
C	 0.0679332994	-2.1066385212	 0.8021150398	 0.324639
O	 0.1139692781	-3.0193466473	 1.5802638551	-0.31356
N	 0.0597141581	-0.7495765967	 1.1026581363	-0.389976
H	 0.8815082059	 1.8626315338	 0.5696475278	 0.152775
H	-0.0711756985	 1.9712605407	-0.9270604548	 0.155014
H	-0.8815390203	 1.8354142674	 0.6491917482	 0.152652
H	-0.0880054924	-0.3844178409	-2.1921163909	 0.123432
H	 0.0939019036	-0.3821266144	 2.0395622425	 0.267506
114.8083	138.525	178.0712	292.3115	309.5973	370.3957	480.017	565.0932	580.8508	610.3534	642.1842	745.0827	755.6662	845.4054	986.8495	1007.0948	1054.3415	1059.6719	1171.4211	1247.3098	1303.2763	1404.8913	1430.2597	1474.1355	1483.0047	1653.0236	1820.4783	1867.147	3031.3846	3083.983	3146.7236	3258.7377	3652.0063
CC1=CC(=O)C(=O)N1	CC1=CC(=O)C(=O)N1	
InChI=1S/C5H5NO2/c1-3-2-4(7)5(8)6-3/h2H,1H3,(H,6,7,8)	InChI=1S/C5H5NO2/c1-3-2-4(7)5(8)6-3/h2H,1H3,(H,6,7,8)
