12
gdb 29114	3.14131	1.48117	1.00656	4.9426	61.29	-0.2185	-0.0611	0.1574	1050.5626	0.077011	-509.819449	-509.811707	-509.810763	-509.852106	28.03	
O	 0.0235004878	 1.3860304859	-0.0652194843	-0.409707
C	-0.0821050787	 0.0519790131	 0.0426550312	 0.433463
C	-1.2005439207	-0.646115806	-0.1596235709	-0.186783
N	-1.1571275369	-2.0389557716	-0.0097327294	-0.351977
C	-0.0501951713	-2.7619606306	 0.3319465015	 0.300753
O	-0.0279015133	-3.9657552254	 0.4579924261	-0.338105
C	 1.213272191	-1.9221708516	 0.5552979434	 0.331727
O	 2.2695915918	-2.3754268285	 0.8583160441	-0.269809
O	 1.0937685542	-0.5467225146	 0.3887030604	-0.2526
H	 0.9360734941	 1.629195134	 0.1333440121	 0.3175
H	-2.1365343271	-0.1882755602	-0.4331381883	 0.151523
H	-1.9961932709	-2.5800972545	-0.1596869459	 0.274015
76.0064	136.686	155.9496	333.8534	338.2049	357.8106	415.9782	470.935	493.4475	614.728	624.6108	633.6059	690.3176	739.5949	798.0675	812.3621	1012.5123	1049.5792	1116.4873	1208.8462	1319.8229	1345.4658	1404.9526	1463.4137	1784.563	1813.7476	1886.2092	3271.7125	3621.9034	3812.511
OC1=CNC(=O)C(=O)O1	Oc1c[nH]c(=O)c(=O)o1	
InChI=1S/C4H3NO4/c6-2-1-5-3(7)4(8)9-2/h1,6H,(H,5,7)	InChI=1S/C4H3NO4/c6-2-1-5-3(7)4(8)9-2/h1,6H,(H,5,7)
