20
gdb 82847	3.07281	1.75446	1.73316	0.6108	77.07	-0.205	0.0928	0.2978	918.1508	0.174752	-403.129967	-403.123296	-403.122352	-403.160554	28.548	
C	-0.1497586833	 1.5938865445	-0.0342724921	-0.431856
C	 0.0455546373	 0.0902238649	-0.0363608282	 0.065033
C	 0.645673497	-0.6204833282	-1.2602303288	 0.073923
O	 1.8105236267	 0.0882990734	-1.7215593333	-0.286047
C	 2.8607120084	-0.2494873653	-0.7933345057	 0.083003
C	 2.7013902831	-1.770374532	-0.6468765149	-0.239894
C	 1.2408046201	-1.6412776749	-0.2530806505	-0.016062
N	 1.1400498022	-0.5371296386	 0.8157544747	-0.161438
C	 2.4187821884	 0.2063220069	 0.608111215	-0.183188
H	 0.6601937896	 2.1099438458	-0.5540705821	 0.13282
H	-1.0851156864	 1.8427662061	-0.5464304675	 0.116645
H	-0.2177089792	 1.9764766423	 0.989654184	 0.124245
H	-0.8882470678	-0.4025861567	 0.26237668	 0.074939
H	 0.0347253013	-0.8995793254	-2.1239160478	 0.066841
H	 3.8037643455	 0.1407278429	-1.1765733711	 0.076569
H	 2.8393459711	-2.3040111976	-1.5900453219	 0.108928
H	 3.3328477511	-2.2075076204	 0.1299024998	 0.108645
H	 0.6648303127	-2.5309045459	-0.0056962077	 0.079344
H	 3.1479694657	-0.0938907539	 1.3696866575	 0.099006
H	 2.2678817367	 1.2826999021	 0.6947545305	 0.108545
190.8649	219.2897	270.9907	436.3497	449.5653	471.5532	537.3968	610.2687	652.9862	765.2696	789.7226	812.8996	845.4249	860.6486	880.2189	912.8838	927.3273	945.0871	974.696	988.679	1004.6995	1036.4469	1057.6075	1095.4606	1115.032	1151.3349	1156.3687	1207.2078	1220.6007	1233.0303	1241.1077	1282.4858	1297.6695	1302.2941	1305.8667	1334.4795	1367.2714	1391.0347	1409.51	1475.2935	1488.0022	1499.256	1519.3009	3020.6	3035.262	3039.4184	3060.5619	3072.7782	3100.8072	3119.8918	3125.0105	3129.7916	3133.3915	3136.2825
CC1C2OC3CC2N1C3	C[C@H]1[C@H]2O[C@@H]3C[C@H]2N1C3	
InChI=1S/C7H11NO/c1-4-7-6-2-5(9-7)3-8(4)6/h4-7H,2-3H2,1H3	InChI=1S/C7H11NO/c1-4-7-6-2-5(9-7)3-8(4)6/h4-7H,2-3H2,1H3/t4-,5+,6+,7+/m0/s1
