18
gdb 110498	4.75924	1.15622	1.12588	2.7441	75.9	-0.2247	-0.014	0.2108	1119.7344	0.149469	-401.853146	-401.846024	-401.84508	-401.88479	28.829	
O	-0.0334666139	 1.4417862216	 0.2350103144	-0.42217
C	 0.1008566131	 0.078998304	-0.1338562971	-0.10005
C	-1.254536883	-0.601955141	-0.0917984343	 0.037098
C	-1.4759068569	-2.1070202427	 0.1259785568	-0.097605
C	-1.0837478563	-1.9039513806	 1.6251778952	-0.044303
C	-1.9940017291	-2.7539618121	 2.4855734992	-0.090373
C	-3.1783754137	-2.6283101646	 1.88578482	-0.09597
C	-2.8688014738	-1.7162941354	 0.7198964001	-0.025359
N	-1.9180751203	-0.6173502697	 1.297714969	-0.176094
H	-0.5962351645	 1.4529265988	 1.0195323125	 0.29363
H	 0.4948696537	 0.0651908334	-1.1563766104	 0.105956
H	 0.8371799891	-0.4356910034	 0.5015215236	 0.084858
H	-1.9135275645	-0.1281681624	-0.8288091372	 0.078115
H	-1.2352920826	-2.9558034725	-0.5268158742	 0.06618
H	-0.0530507131	-1.7436646106	 1.9340467119	 0.079471
H	-1.7144842023	-3.2911125291	 3.380256702	 0.114001
H	-4.1453277528	-3.0325623614	 2.1472251303	 0.115375
H	-3.6657418792	-1.3456281926	 0.0743727383	 0.07724
81.1364	159.0275	275.3792	354.1209	429.9089	467.704	491.4635	561.7775	674.8902	688.3754	755.3911	780.3475	794.8036	827.4708	907.42	920.4954	924.0317	951.2076	958.705	1005.6985	1039.884	1071.6773	1093.0186	1107.2235	1130.9852	1143.3531	1157.073	1194.6295	1212.4024	1245.9346	1254.0522	1270.276	1326.8292	1331.7485	1354.9745	1416.251	1451.3251	1516.2371	1636.8555	2992.3345	3024.4626	3040.6356	3064.2288	3118.355	3145.7556	3229.2065	3255.8449	3774.5235
OCC1C2C3C=CC2N13	OC[C@H]1[C@H]2[C@@H]3C=C[C@H]2N13	
InChI=1S/C7H9NO/c9-3-6-7-4-1-2-5(7)8(4)6/h1-2,4-7,9H,3H2	InChI=1S/C7H9NO/c9-3-6-7-4-1-2-5(7)8(4)6/h1-2,4-7,9H,3H2/t4-,5+,6-,7-/m0/s1
