16
gdb 43583	3.42094	1.24979	1.01904	2.5292	72.94	-0.2579	-0.0313	0.2266	1128.2609	0.125679	-400.784012	-400.77647	-400.775526	-400.816368	28.689	
O	 0.0414629056	 0.019465174	 0.0992523434	-0.318631
C	 0.0073277002	 1.2161213762	-0.0247714375	 0.417221
C	-1.273643049	 2.0487763857	-0.2229128016	-0.361362
C	-0.8044942413	 3.3301664669	-0.9620814982	-0.169802
C	-1.5772226787	 4.5239386808	-0.6177350787	 0.278066
N	-2.1848551097	 5.4656304057	-0.3352380315	-0.321087
C	 0.6932654084	 3.4672837158	-0.6343384753	-0.039628
C	 1.0799785318	 3.380133854	 0.8016442544	-0.28637
C	 1.1811477009	 2.1393594372	-0.0803468682	-0.153276
H	-2.0169305339	 1.4792696304	-0.7813209406	 0.149641
H	-1.7096155428	 2.2810475536	 0.754035821	 0.153949
H	-0.905566008	 3.1714138838	-2.0415438098	 0.137906
H	 1.3039849169	 4.045562746	-1.3163901134	 0.117447
H	 2.0240954004	 3.8252884723	 1.0923778914	 0.138918
H	 0.3151528193	 3.4210457338	 1.5697403939	 0.13811
H	 2.1553044701	 1.7225157937	-0.2999418893	 0.118896
83.4201	133.3835	172.2332	276.4558	358.6144	434.3051	487.7237	525.544	557.2588	604.6793	672.5898	776.0372	805.0199	837.9391	885.9813	914.1428	968.8119	994.0227	1012.4128	1040.1428	1069.693	1105.7265	1112.7703	1167.7877	1191.7977	1202.9197	1256.3251	1285.61	1327.8487	1346.5322	1375.2265	1461.4276	1494.6141	1843.3936	2358.1635	3050.0766	3069.1823	3137.1193	3141.8565	3191.1469	3207.5921	3229.1688
O=C1CC(C#N)C2CC12	O=C1C[C@@H](C#N)[C@H]2C[C@@H]12	
InChI=1S/C7H7NO/c8-3-4-1-7(9)6-2-5(4)6/h4-6H,1-2H2	InChI=1S/C7H7NO/c8-3-4-1-7(9)6-2-5(4)6/h4-6H,1-2H2/t4-,5+,6+/m0/s1
