19
gdb 94664	3.57509	0.84514	0.74604	2.9785	72.66	-0.2517	-0.0313	0.2204	1519.5187	0.156508	-460.141489	-460.131871	-460.130927	-460.177653	33.869	
O	-0.051537483	 0.7391248768	-0.9791627823	-0.427294
C	-0.1012290254	-0.3050493877	-0.0450158659	 0.142493
C	 0.0035045904	 0.02991608	 1.4700116359	-0.25978
C	-1.1658364909	-0.9588882419	 1.7367736164	-0.251672
C	-1.4982972074	-0.9639633845	 0.2279395068	 0.095542
O	-2.5586115719	-0.0618909815	-0.0450674769	-0.277707
C	-3.0784911357	-0.1665895762	-1.3547457008	-0.168671
C	-4.2724360991	 0.7655316753	-1.4602957185	 0.138192
O	-4.866776561	 0.9740264474	-2.4838159851	-0.234944
H	-0.7477123043	 1.3593247692	-0.7312816358	 0.283957
H	 0.6412372595	-1.043828798	-0.3592663234	 0.09297
H	 0.9598848118	-0.1625349452	 1.9602251766	 0.105788
H	-0.2840498106	 1.0676565391	 1.6631012341	 0.105494
H	-0.8316432761	-1.9390130993	 2.084668918	 0.110144
H	-1.975807779	-0.610963324	 2.3799357013	 0.115785
H	-1.7019269488	-1.9342019228	-0.2434905699	 0.065858
H	-2.3372295516	 0.0931875406	-2.1227524588	 0.142441
H	-3.4228057847	-1.1934230833	-1.5655679199	 0.126891
H	-4.5576156024	 1.2364955961	-0.4931428218	 0.094513
45.1598	58.2938	66.2331	129.3399	160.9952	226.0743	335.0066	358.7233	399.6222	449.3331	546.288	604.8238	691.0452	733.888	747.201	854.9217	905.2879	931.1734	954.506	1019.4321	1044.1533	1071.6954	1115.7357	1122.6088	1137.2599	1161.146	1199.0249	1228.5125	1235.2865	1253.7167	1276.7835	1286.3607	1320.2547	1335.8192	1387.7112	1417.4766	1431.9541	1467.8552	1485.2057	1488.1243	1845.382	2893.2874	2971.4492	3013.7435	3037.4147	3061.0679	3073.6447	3078.5968	3116.2804	3134.5412	3789.4713
OC1CCC1OCC=O	O[C@H]1CC[C@H]1OCC=O	
InChI=1S/C6H10O3/c7-3-4-9-6-2-1-5(6)8/h3,5-6,8H,1-2,4H2	InChI=1S/C6H10O3/c7-3-4-9-6-2-1-5(6)8/h3,5-6,8H,1-2,4H2/t5-,6+/m0/s1
