19
gdb 79318	3.42961	1.21966	1.14972	3.4009	82.29	-0.241	-0.0147	0.2264	1150.9845	0.159532	-385.859243	-385.851265	-385.850321	-385.891856	30.786	
C	 0.0275665241	 1.6367107198	-0.0279850881	-0.427113
C	 0.0947185244	 0.1152463422	 0.0013572113	 0.036242
C	 0.8084311073	-0.6575722401	-1.1164041247	-0.13355
C	 2.2606894809	-0.8139551044	-0.7361158059	-0.119417
C	 2.474781822	-0.1476918992	 0.6250709261	-0.237287
C	 1.0457827394	-0.6378133786	 0.9863308914	-0.148146
C	 1.2093554435	-1.7487139052	-0.1122792858	 0.313086
C	 1.070660874	-3.1899930048	-0.1959271246	-0.005188
O	 0.7437238092	-3.9201262731	 0.7132384317	-0.281797
H	 1.0070943429	 2.0930871341	-0.1936599739	 0.120248
H	-0.6331816625	 1.9763824518	-0.8330414858	 0.1185
H	-0.3730432912	 2.0264682538	 0.9144098744	 0.119878
H	-0.9120213367	-0.3001314846	 0.1174783814	 0.085265
H	 0.4727052751	-0.8241791114	-2.1328453269	 0.098585
H	 3.0071678988	-1.0966956003	-1.4677170618	 0.101622
H	 3.2322157229	-0.6824096587	 1.2028899682	 0.11371
H	 2.6798246199	 0.9270250301	 0.6580276406	 0.097243
H	 0.7551362066	-0.807942422	 2.0194865767	 0.089188
H	 1.2995658192	-3.5949631094	-1.2106547944	 0.058931
81.9482	141.4612	186.2516	234.222	271.3545	305.6944	442.2378	497.6073	574.6561	651.7977	689.7008	747.3029	805.485	816.3034	871.8326	916.209	935.8841	978.1848	990.8242	1006.4269	1034.6037	1045.5701	1058.522	1087.6218	1110.711	1117.3787	1134.5762	1171.4204	1205.5586	1234.0599	1255.3754	1319.2938	1325.2377	1381.5657	1400.0637	1413.1196	1450.5799	1490.2927	1494.2646	1513.4427	1788.1577	2842.5279	3033.3014	3050.0757	3052.9154	3094.5826	3109.1815	3116.9521	3157.1373	3190.3498	3202.5354
CC1C2C3CC1C23C=O	C[C@H]1[C@H]2[C@H]3C[C@@H]1[C@@]23C=O	
InChI=1S/C8H10O/c1-4-5-2-6-7(4)8(5,6)3-9/h3-7H,2H2,1H3	InChI=1S/C8H10O/c1-4-5-2-6-7(4)8(5,6)3-9/h3-7H,2H2,1H3/t4-,5+,6-,7+,8-/m1/s1
