16
gdb 14884	4.8351	1.45202	1.16181	1.1739	76.39	-0.2314	-0.0183	0.213	1005.7881	0.130906	-346.580212	-346.572849	-346.571905	-346.611691	28.049	
C	 0.1214179219	-1.2014532202	 0.0363372024	-0.414998
C	-0.0120124455	-0.003843227	 0.0112470887	 0.226671
C	-0.0889076154	 1.4140205251	-0.0174157151	 0.120219
C	-1.2491570771	 2.0871883602	-0.0093655484	-0.148241
C	-1.2943360699	 3.5885167419	 0.022387929	-0.251572
C	 0.0737015416	 4.1487127268	 0.4170214447	-0.084464
O	 1.1036369668	 3.5299287858	-0.3352153518	-0.242825
C	 1.2379189309	 2.15746658	-0.0425833066	-0.164845
H	 0.2171566449	-2.2585961984	 0.05978898	 0.194734
H	-2.1873821986	 1.5408758575	-0.0164494656	 0.097304
H	-1.593235754	 3.9785738294	-0.9606490004	 0.12296
H	-2.0586666267	 3.9297701935	 0.7323282538	 0.108849
H	 0.1438960115	 5.2200753892	 0.2114005293	 0.109296
H	 0.243206121	 3.9957587791	 1.4955852334	 0.092915
H	 1.7542826848	 2.0077465866	 0.9224040329	 0.105694
H	 1.8820192738	 1.7356433105	-0.8208909662	 0.128302
112.1068	150.3627	203.2153	299.1556	371.5474	427.1277	494.828	527.547	538.8999	589.4636	622.4632	643.3026	805.1352	879.64	894.9813	937.8792	978.814	1030.6768	1056.0918	1086.0041	1140.0539	1169.2189	1227.4637	1260.7579	1314.4408	1337.5689	1364.6021	1384.1267	1418.5439	1465.5808	1485.8235	1501.7132	1696.364	2218.8306	2948.9259	2972.8155	3011.5502	3047.6729	3073.2335	3092.9113	3175.9259	3503.5201
C#CC1=CCCOC1	C#CC1=CCCOC1	
InChI=1S/C7H8O/c1-2-7-4-3-5-8-6-7/h1,4H,3,5-6H2	InChI=1S/C7H8O/c1-2-7-4-3-5-8-6-7/h1,4H,3,5-6H2
