17
gdb 19796	2.947	2.66968	1.86047	1.1836	66.05	-0.2262	0.058	0.2843	763.3422	0.144095	-363.80998	-363.803427	-363.802483	-363.840294	26.684	
O	-0.1977383484	 1.4513512459	-0.1808155698	-0.426514
C	-0.01497433	 0.0458160262	-0.0355478322	 0.065166
C	-1.3749922329	-0.6511470109	 0.0391523215	-0.034858
C	-2.3490540057	-0.3635901412	-1.0776126227	-0.295211
C	-1.458656774	-1.5783720559	-1.1469857487	 0.000132
N	-0.1861363758	-1.5954699321	-1.8780050427	-0.101166
C	 0.2066347713	-0.3762589782	-2.594559253	-0.251181
C	 0.7067257461	-0.6263163899	-1.2176808226	-0.05788
H	 0.6696804494	 1.8486955147	-0.3091590593	 0.28284
H	 0.5471662621	-0.1629830022	 0.886165861	 0.069473
H	-1.7538426646	-0.9236378151	 1.0170142591	 0.087868
H	-3.3979959481	-0.550594765	-0.8724202366	 0.111111
H	-2.1762314509	 0.4996764832	-1.7064745991	 0.131097
H	-1.9173322326	-2.5581116613	-1.076544599	 0.095137
H	 0.8624626149	-0.5489798549	-3.444029968	 0.113212
H	-0.5135571175	 0.4206335489	-2.7418621256	 0.126206
H	 1.7347207067	-0.9473649322	-1.0625447922	 0.084569
157.6304	210.0108	282.2135	374.1983	415.1927	519.7654	552.0285	656.1756	700.6698	731.1241	801.0855	815.7231	842.4626	870.4278	958.9591	968.0107	998.4423	1032.7167	1038.1433	1054.8191	1089.5844	1106.1646	1113.6113	1122.3264	1137.7734	1160.5772	1197.0821	1240.5671	1283.6935	1325.3813	1333.9459	1380.9359	1388.5736	1413.9209	1479.6008	1518.4799	2993.6998	3115.2927	3124.2146	3143.2837	3168.192	3179.0816	3206.6452	3232.4825	3815.3276
OC1C2CC2N2CC12	O[C@H]1[C@H]2C[C@H]2N2C[C@@H]12	
InChI=1S/C6H9NO/c8-6-3-1-4(3)7-2-5(6)7/h3-6,8H,1-2H2	InChI=1S/C6H9NO/c8-6-3-1-4(3)7-2-5(6)7/h3-6,8H,1-2H2/t3-,4+,5-,6-,7?/m0/s1
