14
gdb 52379	5.21352	0.59576	0.55058	1.3299	65.62	-0.2952	-0.1036	0.1916	1832.1171	0.097871	-473.856491	-473.847049	-473.846105	-473.893211	30.615	
O	 0.2423459951	 0.0076222419	-0.1861762806	-0.261231
C	 0.2213890815	 1.1965711517	-0.2593004423	 0.170725
O	 0.9198035678	 1.9895974138	 0.5829710709	-0.179783
C	 0.8333083991	 3.4035746597	 0.4096668656	-0.095663
C	 2.2300142995	 3.9501807869	 0.1282611323	-0.314148
C	 2.2353944358	 5.4535090975	-0.0032031474	 0.286469
O	 1.2573847522	 6.1530994584	 0.0805782414	-0.260989
C	 3.5643744745	 6.050286366	-0.254870733	 0.237733
N	 4.6102898493	 6.5013779427	-0.4530680157	-0.283659
H	-0.3590995844	 1.7737700838	-1.0057083667	 0.085107
H	 0.1458856155	 3.6558897891	-0.4057608082	 0.133802
H	 0.4291638594	 3.8327913043	 1.3298966461	 0.148904
H	 2.9270305114	 3.6631224469	 0.9259911188	 0.170799
H	 2.6465089734	 3.5186589874	-0.7916763311	 0.161934
30.5716	53.4053	77.1844	110.2189	161.1447	217.5279	273.9797	328.2894	371.2626	472.4251	575.9724	614.0947	660.0558	795.9079	846.1257	1033.7607	1041.5711	1043.3539	1070.5294	1111.4351	1154.7461	1252.1874	1321.7854	1333.9208	1407.7694	1435.5333	1448.4959	1502.8645	1795.1607	1875.5885	2340.0932	2946.548	3034.101	3046.7462	3067.5435	3108.4882
O=COCCC(=O)C#N	O=COCCC(=O)C#N	
InChI=1S/C5H5NO3/c6-3-5(8)1-2-9-4-7/h4H,1-2H2	InChI=1S/C5H5NO3/c6-3-5(8)1-2-9-4-7/h4H,1-2H2
