22
gdb 58128	2.76679	1.0773	0.96527	3.3352	79.	-0.2477	0.0275	0.2753	1329.1951	0.191145	-441.51572	-441.50474	-441.503795	-441.551142	40.641	
C	-0.0931308977	 1.5670455732	-0.0539081868	-0.421462
C	-0.0221150201	 0.0389689393	 0.0177515018	 0.105772
O	 0.4311675341	-0.4974574488	-1.2161824852	-0.429958
C	 0.8030658259	-0.5330035208	 1.2136512291	 0.254832
C	 0.7738442163	-2.0711156072	 1.1562551883	-0.407371
C	 2.2568538966	-0.0306617881	 1.1872507347	-0.42721
N	 0.12687267	-0.0689806043	 2.4417525733	-0.30421
C	 0.525956763	-0.3277249465	 3.714900061	 0.161082
O	 1.5519459827	-0.8847112232	 4.0486233012	-0.332414
H	 0.8942960705	 1.9974854609	-0.253756037	 0.119954
H	-0.7608809575	 1.8614148966	-0.8676937245	 0.130342
H	-0.4605141461	 2.014580511	 0.873814172	 0.116646
H	-1.042253806	-0.3565724852	 0.1260076707	 0.084516
H	 1.2333701374	-0.0273946433	-1.4675519715	 0.283654
H	 1.2345775053	-2.4234785624	 0.2317218485	 0.126065
H	 1.3096544256	-2.4848960738	 2.0123976854	 0.143949
H	-0.2584167525	-2.4362790648	 1.1810957557	 0.102638
H	 2.3102674723	 1.0557132692	 1.2971573627	 0.113711
H	 2.8192591474	-0.4799993434	 2.0055930419	 0.162212
H	 2.7337253369	-0.314451398	 0.2434075198	 0.101715
H	-0.8083555228	 0.2961276137	 2.3438309771	 0.241413
H	-0.2113028714	 0.0541125059	 4.4515958019	 0.074125
71.0046	86.7934	168.086	209.7276	224.7565	232.9337	248.0031	260.3105	296.4864	308.8427	335.6605	354.4837	414.3315	455.902	477.8508	517.9579	565.0252	698.6155	831.6471	839.2707	922.7468	935.4507	985.8584	1003.7868	1029.9974	1050.3997	1088.6738	1117.7342	1183.9778	1201.238	1219.9248	1272.4294	1306.9565	1360.4048	1391.4478	1406.7173	1414.0089	1427.257	1436.6639	1477.9831	1489.5383	1490.0566	1493.7652	1500.3045	1520.619	1529.9864	1800.1654	2914.8352	3007.6061	3038.6191	3043.9563	3047.6636	3105.6492	3114.2685	3121.1163	3123.0617	3150.0031	3155.5845	3613.5164	3811.4468
CC(O)C(C)(C)NC=O	C[C@@H](O)C(C)(C)NC=O	
InChI=1S/C6H13NO2/c1-5(9)6(2,3)7-4-8/h4-5,9H,1-3H3,(H,7,8)	InChI=1S/C6H13NO2/c1-5(9)6(2,3)7-4-8/h4-5,9H,1-3H3,(H,7,8)/t5-/m1/s1
