14
gdb 132382	2.04598	1.82829	0.96626	3.2176	69.14	-0.2181	0.0041	0.2222	1110.937	0.102915	-474.240489	-474.232863	-474.231919	-474.272278	29.764	
N	 0.01628953	 1.3539384599	 0.1336247513	-0.568195
C	-0.0120740959	-0.0108231671	 0.0619277161	 0.417331
C	-1.2241679765	-0.7208836937	 0.028805355	-0.379523
C	-1.0828168766	-2.094355466	-0.0073810675	 0.343894
F	-2.1789180634	-2.8431469356	-0.0533177835	-0.070122
N	 0.0564643637	-2.7511444881	-0.0041487791	-0.383464
C	 1.1479636777	-1.9651514282	 0.0390387968	 0.440653
N	 2.3495836174	-2.6059665587	 0.090536413	-0.556064
N	 1.1762386696	-0.6278290117	 0.0594815499	-0.385782
H	 0.9080305955	 1.7821088121	-0.0569002951	 0.259355
H	-0.7998248563	 1.8693004202	-0.1493250086	 0.258141
H	-2.1940147026	-0.2440991566	 0.030643475	 0.098765
H	 2.3578346612	-3.581818372	-0.1520842974	 0.264513
H	 3.1705607762	-2.0576766845	-0.0997895558	 0.260497
182.8554	211.571	234.0142	325.8274	344.5026	354.557	385.2046	477.8284	510.0789	527.7907	562.0585	582.6758	657.0311	707.0356	716.5848	788.4427	819.6645	981.6962	1002.8801	1040.6875	1130.9235	1172.0063	1212.0053	1338.5068	1460.9172	1488.9084	1505.7356	1608.1098	1623.2341	1650.7888	1658.5951	3226.3832	3600.0852	3615.2627	3723.322	3746.517
NC1=CC(F)=NC(N)=N1	Nc1cc(F)nc(N)n1	
InChI=1S/C4H5FN4/c5-2-1-3(6)9-4(7)8-2/h1H,(H4,6,7,8,9)	InChI=1S/C4H5FN4/c5-2-1-3(6)9-4(7)8-2/h1H,(H4,6,7,8,9)
