18
gdb 40470	3.75509	1.31841	1.19826	1.49	75.69	-0.2359	0.0544	0.2903	1078.3632	0.148032	-401.813725	-401.806502	-401.805558	-401.845745	28.796	
C	-0.1745933407	 1.4135471901	-0.112292872	-0.264084
C	 1.255912125	 1.0141543355	 0.1393309326	-0.276975
C	 0.1733514239	-0.0399479443	 0.1016370771	-0.153735
C	-0.2564866225	-0.7244671281	 1.3426823847	 0.334899
N	-0.3020791882	-0.0759945734	 2.7003660434	-0.386239
C	-0.7889869793	-1.4678449723	 2.9740290145	-0.080326
C	-1.570858046	-1.5289133359	 1.6350928543	 0.060103
O	-1.021484506	-2.8138311171	 1.2229310264	-0.331701
C	 0.0960924892	-2.1612788666	 1.8900234244	 0.02389
H	-0.700282589	 1.9151933456	 0.6922355798	 0.133187
H	-0.4581663285	 1.7276242939	-1.1104121994	 0.113648
H	 1.9597186505	 1.0467758246	-0.6847745092	 0.115865
H	 1.6856392762	 1.2714825321	 1.1015732062	 0.112184
H	 0.150267304	-0.6867766498	-0.7706166337	 0.099176
H	 0.6469645626	 0.0351776527	 3.0668771867	 0.210842
H	-1.0849703234	-1.8228960283	 3.9608031195	 0.092349
H	-2.6095315886	-1.2946516224	 1.4075587683	 0.103276
H	 1.0484431906	-2.6889881562	 1.9670743365	 0.093639
68.7691	159.5494	177.5514	301.0292	399.2718	502.8052	575.3925	629.2109	756.5524	779.1648	795.4685	811.9417	831.4899	846.1263	875.4507	888.4159	906.2327	937.0689	949.117	978.521	1033.5081	1063.4964	1078.1573	1086.1004	1106.9647	1127.1487	1134.986	1162.7946	1170.5927	1189.5283	1201.7402	1216.9303	1250.7952	1274.6339	1318.3829	1328.004	1446.7118	1466.2991	1504.937	3104.1505	3124.8627	3134.2504	3139.8361	3142.3605	3152.7497	3214.7095	3232.4981	3402.1097
C1CC1C12NC3C1OC23	C1CC1[C@@]12N[C@H]3[C@@H]1O[C@@H]23	
InChI=1S/C7H9NO/c1-2-3(1)7-5-4(8-7)6(7)9-5/h3-6,8H,1-2H2	InChI=1S/C7H9NO/c1-2-3(1)7-5-4(8-7)6(7)9-5/h3-6,8H,1-2H2/t4-,5-,6+,7+
