19
gdb 11902	4.71747	1.44989	1.26235	1.7364	78.1	-0.2242	0.0205	0.2447	1022.5464	0.166781	-327.916375	-327.908828	-327.907883	-327.948115	29.553	
C	 0.0451548697	 1.5952389443	-0.0179254372	-0.396654
C	 0.0298577939	 0.0633446237	 0.028751329	-0.017172
C	 0.7072868572	-0.6125799875	-1.1965321758	-0.324524
C	 1.4669932858	-1.8155841222	-0.6263432779	 0.332184
C	 1.3432203517	-3.1891746329	-1.1930230369	-0.290248
N	 2.6027931455	-2.4360166265	-1.3305018729	-0.364242
C	 1.5749853214	-1.5471369761	 0.8333876854	-0.123055
C	 0.7938869154	-0.5310088029	 1.1964883467	-0.0812
H	 1.072289381	 1.9730555358	-0.0673725775	 0.117531
H	-0.4955825588	 1.9690138164	-0.8940401655	 0.112762
H	-0.4276002102	 2.0234946042	 0.872450184	 0.112581
H	-1.020179318	-0.2599820823	 0.0923438844	 0.081202
H	-0.0034186641	-0.8844086514	-1.9820502348	 0.097774
H	 1.4300472171	 0.0883852651	-1.6345921197	 0.103166
H	 1.4001162595	-4.0591052888	-0.5434472845	 0.114492
H	 0.7088079804	-3.3193773081	-2.0668727066	 0.10761
H	 2.6718570361	-2.0495859677	-2.269713567	 0.22665
H	 2.2018749703	-2.1477464747	 1.4818863911	 0.100316
H	 0.6721901362	-0.1615054583	 2.2094241256	 0.090829
68.7042	199.4542	237.7924	274.0455	318.9123	373.1953	413.4863	478.6429	581.0129	678.2007	771.8628	806.7861	845.6687	850.7721	902.0703	927.5756	932.016	963.9604	970.2665	983.1105	1025.6076	1076.7446	1098.7409	1117.1429	1138.9498	1141.7552	1210.1599	1263.8622	1289.4902	1292.428	1321.5534	1334.7005	1355.7587	1403.7961	1424.0514	1484.7634	1497.2871	1499.3333	1508.5966	1678.3635	2983.6718	3020.0749	3027.1607	3085.2945	3096.4137	3096.5405	3098.7775	3180.7899	3181.9327	3211.7683	3485.4578
CC1CC2(CN2)C=C1	C[C@H]1C[C@]2(CN2)C=C1	
InChI=1S/C7H11N/c1-6-2-3-7(4-6)5-8-7/h2-3,6,8H,4-5H2,1H3	InChI=1S/C7H11N/c1-6-2-3-7(4-6)5-8-7/h2-3,6,8H,4-5H2,1H3/t6-,7+/m1/s1
