21
gdb 108825	2.85808	1.19449	0.95984	1.4653	80.1	-0.2134	0.0606	0.274	1317.8676	0.18311	-420.433398	-420.423856	-420.422911	-420.467608	35.43	
C	 0.065552232	 1.2371249982	-0.137899776	-0.23272
O	-0.0641128585	-0.1570461417	 0.1519891873	-0.26552
C	-1.3139695301	-0.6264109358	 0.1199698421	 0.47525
N	-2.3700671573	 0.0369371223	-0.1553326736	-0.383844
C	-3.4785018505	-0.9263691051	-0.0153632938	 0.056125
C	-4.5719669725	-0.6949711052	-1.0521727273	-0.394399
C	-2.7972749516	-2.3422630452	-0.0221776729	 0.010305
C	-2.746836284	-3.0470013919	-1.3808349711	-0.401101
N	-1.4528835798	-1.9669659956	 0.453891771	-0.368886
H	 1.1310065577	 1.4578819994	-0.0641290273	 0.126789
H	-0.3045474572	 1.4579412338	-1.1428075511	 0.137999
H	-0.5024816999	 1.8329080875	 0.5813094694	 0.14097
H	-3.9230722229	-0.7829764331	 0.9813051736	 0.078725
H	-4.1871506422	-0.7904704609	-2.0712294756	 0.116249
H	-5.3986799106	-1.4020257608	-0.9236429723	 0.105209
H	-4.9691753958	 0.3174776888	-0.9410436141	 0.124639
H	-3.2797122936	-3.0010309279	 0.7068078348	 0.078896
H	-2.2892848183	-2.4078929888	-2.1427814119	 0.127375
H	-2.158218825	-3.9686166626	-1.3103676818	 0.1092
H	-3.7492357167	-3.3224761373	-1.721395193	 0.123184
H	-0.6780818831	-2.5684101681	 0.2058523638	 0.235556
85.5722	125.2393	133.4091	203.9103	212.8728	247.7814	267.3492	274.7846	371.9614	423.5363	489.1325	515.1137	599.8077	694.3464	728.4934	752.8389	759.8847	909.073	938.6951	1000.227	1009.9935	1039.5989	1078.3718	1111.768	1128.5169	1148.8937	1162.6134	1183.82	1223.1961	1284.927	1310.651	1327.1006	1369.7709	1386.8205	1407.16	1409.8609	1447.3254	1476.1117	1482.7524	1488.5785	1496.5553	1500.0489	1506.0469	1509.686	1713.9209	2976.1681	3031.6045	3039.1739	3047.2614	3049.7627	3097.6989	3108.3593	3116.3115	3120.835	3121.253	3151.9491	3577.6721
COC1=NC(C)C(C)N1	CO[C]1[N][C@@H](C)[C@@H](C)N1	
InChI=1S/C6H12N2O/c1-4-5(2)8-6(7-4)9-3/h4-5H,1-3H3,(H,7,8)	InChI=1S/C6H12N2O/c1-4-5(2)8-6(7-4)9-3/h4-5H,1-3H3,(H,7,8)/t4-,5+
