18
gdb 47825	2.45993	1.72869	1.14277	4.6509	72.47	-0.2515	0.0002	0.2518	1069.5432	0.150184	-439.093259	-439.085555	-439.084611	-439.126013	29.439	
O	 0.0373557693	 0.1729920193	 0.9614668605	-0.325414
C	-0.0530593708	 1.0398198239	 0.1314831814	 0.42284
O	-1.2786048309	 1.4688373933	-0.2369979581	-0.225483
C	-1.5853796499	 1.9888045924	-1.5381488918	-0.07385
C	-0.9886771967	 3.3542609782	-1.8653345614	-0.217077
C	 0.4347925269	 3.2741287912	-2.4146840466	-0.219709
C	 1.4537061154	 2.7101112741	-1.4517303354	-0.026923
N	 1.3741022171	 3.1322284763	-0.0590493583	-0.324626
C	 1.2075303063	 1.6937287653	-0.3804701283	-0.148001
H	-1.3035536732	 1.2480630133	-2.2986858214	 0.108498
H	-2.6759853417	 2.0487337517	-1.5266889739	 0.12638
H	-1.6296066703	 3.8276161414	-2.6180818273	 0.103155
H	-1.020924803	 3.9806523482	-0.9691769713	 0.138288
H	 0.4428275794	 2.6622145405	-3.3267829884	 0.103884
H	 0.7719363172	 4.2750332734	-2.7125704371	 0.108318
H	 2.4515467487	 2.6275182024	-1.8844531935	 0.090517
H	 2.2906393723	 3.2943956018	 0.3472666764	 0.243798
H	 2.0469915539	 1.0439271836	-0.1493140955	 0.115407
46.9091	147.4204	236.1969	265.3425	334.9748	349.4784	427.1766	474.7347	565.0667	672.8577	690.7426	762.297	786.353	849.4471	888.0865	921.3603	936.4845	970.113	994.0246	1053.3348	1085.2867	1103.5976	1125.6871	1177.7619	1195.0132	1222.5293	1254.0159	1288.7407	1303.1258	1322.3999	1387.5571	1400.034	1404.1753	1430.9916	1458.9851	1477.1632	1484.4369	1506.0579	1817.7217	3016.1161	3019.0522	3043.8349	3054.1772	3096.151	3101.9932	3104.6555	3152.2688	3517.345
O=C1OCCCC2NC12	O=C1OCCC[C@H]2N[C@@H]12	
InChI=1S/C6H9NO2/c8-6-5-4(7-5)2-1-3-9-6/h4-5,7H,1-3H2	InChI=1S/C6H9NO2/c8-6-5-4(7-5)2-1-3-9-6/h4-5,7H,1-3H2/t4-,5-/m1/s1
