18
gdb 40390	4.16654	1.23175	1.14162	1.2992	75.44	-0.2222	0.0566	0.2788	1107.3805	0.147652	-401.830355	-401.822904	-401.821959	-401.862514	29.463	
C	 0.4566493204	 1.4280087523	 0.0298808774	-0.17564
O	 1.0114806939	 0.1985612636	-0.4465002358	-0.234868
C	-0.3115275032	 0.1747845783	 0.0917398755	-0.021474
C	-0.4922044391	-0.5820896965	 1.3558646455	 0.369978
C	 0.6236392876	-0.9303517121	 2.2956515293	-0.366711
C	-0.2152147117	-2.0314493473	 1.6977526417	-0.132092
C	-1.6387362646	-2.0796976635	 2.2815543329	-0.031318
C	-1.9395469105	-1.0529511642	 3.2994457576	-0.251336
N	-1.9244138839	-0.6563341307	 1.8762194483	-0.195409
H	 0.9077855964	 1.8187934019	 0.9401901071	 0.114951
H	 0.2291780768	 2.1639977202	-0.7394136106	 0.118691
H	-1.1013259938	 0.0219066726	-0.6440963339	 0.100448
H	 1.5916630236	-0.8305053909	 1.8145573473	 0.139916
H	 0.6313791799	-0.6947336183	 3.354111284	 0.111612
H	 0.1993214513	-2.8115648185	 1.0736255799	 0.10456
H	-2.3395134766	-2.8687742739	 2.028371616	 0.101505
H	-2.9487318932	-1.0470674385	 3.7022484742	 0.124683
H	-1.1907506233	-0.6837657044	 3.9900082436	 0.122504
66.0889	158.6017	192.1258	315.6179	346.8727	449.491	471.9977	537.6407	654.2927	705.286	746.9272	798.6869	829.1076	868.631	891.2623	915.5719	946.0879	954.5655	980.3306	1011.0323	1042.6053	1054.698	1068.824	1084.5384	1101.4674	1109.4152	1138.6032	1149.0889	1162.1667	1172.367	1224.2102	1263.9855	1282.5142	1351.2144	1377.227	1441.5589	1483.1348	1517.5164	1521.4203	3087.951	3110.4934	3121.8409	3134.7338	3159.8798	3179.5502	3204.0435	3209.5491	3216.9988
C1OC1C12CC1C1CN21	C1O[C@H]1[C@]12C[C@H]1[C@H]1CN21	
InChI=1S/C7H9NO/c1-4-5-2-8(5)7(1,4)6-3-9-6/h4-6H,1-3H2	InChI=1S/C7H9NO/c1-4-5-2-8(5)7(1,4)6-3-9-6/h4-6H,1-3H2/t4-,5+,6+,7-,8?/m0/s1
