17
gdb 70071	2.77952	1.62611	1.19248	4.8417	75.39	-0.256	-0.0456	0.2104	1048.6185	0.13618	-421.864177	-421.856475	-421.855531	-421.896198	30.115	
C	-0.0217611439	 1.4142547035	-0.1361154073	-0.444346
C	-0.0891542569	-0.0702940669	 0.1112545514	 0.417202
C	-0.7864849052	-0.6193957506	 1.3131796841	-0.334047
C	 0.7411046601	-0.7217858681	 1.1995645387	-0.154968
C	 1.3331940672	-2.02395897	 0.862909863	-0.047837
C	 1.0487514379	-2.6388256835	-0.2904627917	-0.218877
C	 0.2179084463	-2.0203797641	-1.338747256	 0.402023
O	-0.0448140363	-2.5535136154	-2.38571073	-0.337126
O	-0.2299790202	-0.7460446995	-1.1235033168	-0.280227
H	 0.8454611308	 1.662651493	-0.7549958761	 0.134461
H	-0.922468104	 1.7515055492	-0.6578329111	 0.140005
H	 0.0556889438	 1.9587088137	 0.808710058	 0.119356
H	-1.1901878497	 0.0829142924	 2.0340344535	 0.125317
H	-1.3403775869	-1.5449914013	 1.2038779582	 0.134299
H	 1.3228641302	-0.0753846102	 1.848577253	 0.10336
H	 2.0112044685	-2.4810671505	 1.5789139719	 0.117266
H	 1.4509715086	-3.6093423417	-0.5524311628	 0.12414
104.2064	163.9618	220.2708	287.345	321.0081	406.8744	413.7448	490.8857	521.494	538.7959	666.4591	712.5092	801.3453	807.5244	834.7004	877.4037	881.9802	935.9307	1001.4546	1020.8665	1027.4364	1051.281	1085.6199	1100.1755	1121.4138	1172.3851	1235.9251	1259.8432	1313.1577	1392.6675	1415.1099	1437.7942	1473.576	1479.4371	1502.4566	1686.0262	1821.631	3043.2711	3114.7995	3123.343	3135.2611	3156.4533	3168.1883	3219.2689	3230.9873
CC12CC1C=CC(=O)O2	C[C@]12C[C@H]1C=CC(=O)O2	
InChI=1S/C7H8O2/c1-7-4-5(7)2-3-6(8)9-7/h2-3,5H,4H2,1H3	InChI=1S/C7H8O2/c1-7-4-5(7)2-3-6(8)9-7/h2-3,5H,4H2,1H3/t5-,7+/m1/s1
