17
gdb 73300	2.85399	1.8817	1.31549	0.2751	66.65	-0.2452	0.0612	0.3064	946.5782	0.13616	-458.905525	-458.898377	-458.897433	-458.936506	29.846	
O	 0.1089339375	 1.3484385572	 0.0777950421	-0.491065
C	 0.0697059037	-0.0301091263	 0.0737209345	 0.46012
C	 0.9833539446	-0.7424240169	 1.0592203812	-0.290864
C	 0.6365428396	-2.2269328837	 0.7327535464	-0.290864
C	-0.3966307139	-2.0262380461	-0.3652579974	 0.460123
O	-0.9456612473	-3.1657013302	-0.9149303251	-0.491066
C	-1.2903326361	-0.7913957508	-0.0253493267	-0.108124
O	-1.394647464	-0.4507887496	-1.463394812	-0.362257
C	 0.0256461225	-0.8251639	-1.269790743	-0.108123
H	-0.521684047	 1.6373907473	-0.5968981518	 0.289117
H	 2.0335378686	-0.4985131247	 0.8778727224	 0.115375
H	 0.7507040618	-0.4655948649	 2.0909690206	 0.115375
H	 1.4963582064	-2.7978849125	 0.3722031958	 0.115374
H	 0.2135246044	-2.7649704944	 1.5853005228	 0.115374
H	-1.5734179267	-2.8645179776	-1.5869375074	 0.289117
H	-2.1933474062	-0.7140400608	 0.5821881167	 0.091195
H	 0.6842070322	-0.787878576	-2.1389445789	 0.091195
210.5823	249.0988	280.0049	288.8347	381.4084	465.8274	509.2435	510.8744	516.7704	596.9105	690.5351	695.4706	700.4275	759.4895	810.7908	836.9327	889.3766	951.8671	964.6938	1044.0545	1045.985	1055.7165	1099.6763	1110.1475	1134.7131	1152.1665	1208.1658	1209.0003	1235.3193	1262.8154	1266.4976	1342.414	1393.665	1395.4545	1434.888	1489.1696	1515.5187	3060.237	3068.5375	3097.9461	3107.6715	3115.0262	3115.5097	3747.8104	3750.2851
OC12CCC3(O)C1OC23	O[C@@]12CC[C@@]3(O)[C@@H]1O[C@@H]23	
InChI=1S/C6H8O3/c7-5-1-2-6(8)3(5)9-4(5)6/h3-4,7-8H,1-2H2	InChI=1S/C6H8O3/c7-5-1-2-6(8)3(5)9-4(5)6/h3-4,7-8H,1-2H2/t3-,4+,5+,6-
