18
gdb 98487	2.36068	1.33299	0.92219	1.6523	77.97	-0.2668	-0.0322	0.2346	1281.8251	0.145746	-401.980806	-401.971305	-401.970361	-402.015814	34.025	
C	 0.0795877585	 1.5372069788	 0.1105336084	-0.383731
C	 0.3256643454	 0.0318777457	 0.0685670433	-0.309182
C	 0.5673127246	-0.4974191298	-1.3295402245	 0.331416
O	 0.5648044313	 0.2081941251	-2.3132941451	-0.317846
C	 0.8228887242	-1.9848736886	-1.4852666544	 0.083667
C	 0.3153104096	-2.6106354261	-2.7954371056	-0.272088
C	 1.7685883242	-2.3780286817	-2.632760967	-0.272096
C	 0.8232649953	-2.8098008628	-0.3092816967	 0.210591
N	 0.8220137976	-3.4679256409	 0.6428244243	-0.350773
H	 0.9342464906	 2.0846328291	-0.294731352	 0.133547
H	-0.7937058523	 1.8075661565	-0.4883205413	 0.133532
H	-0.0886040131	 1.8676719923	 1.138751513	 0.117383
H	 1.1862134901	-0.2553963992	 0.6882862541	 0.144438
H	-0.5164747988	-0.528450072	 0.4974494121	 0.144427
H	-0.0673091777	-3.6215784711	-2.7280971712	 0.14753
H	-0.2382793264	-1.9244610192	-3.4250155093	 0.155826
H	 2.2056556265	-1.5332793083	-3.1514494974	 0.155833
H	 2.4202871603	-3.2234318579	-2.4496768904	 0.147526
47.2226	78.3916	130.401	184.8885	212.984	220.6287	270.8481	301.6022	368.0585	506.5686	538.5862	568.2748	597.2517	709.1701	790.6379	791.8648	845.7567	858.2345	959.6096	986.203	1003.6456	1051.435	1080.245	1091.7801	1113.0199	1124.5598	1209.8607	1268.3177	1279.3616	1302.5175	1381.2287	1415.1738	1440.6099	1447.6639	1476.9126	1492.1001	1497.5474	1793.7774	2346.5888	3024.6179	3049.5533	3054.0708	3127.2723	3128.5439	3151.74	3152.0696	3245.087	3258.4893
CCC(=O)C1(CC1)C#N	CCC(=O)C1(CC1)C#N	
InChI=1S/C7H9NO/c1-2-6(9)7(5-8)3-4-7/h2-4H2,1H3	InChI=1S/C7H9NO/c1-2-6(9)7(5-8)3-4-7/h2-4H2,1H3
