15
gdb 26549	2.38606	1.88504	1.05991	4.3899	72.33	-0.2196	-0.029	0.1906	1058.9201	0.113194	-453.984751	-453.976625	-453.975681	-454.017488	29.937	
C	-0.0190281002	 1.5492032427	 0.0250042547	-0.481385
C	 0.0020873273	 0.0496982469	-0.0062120812	 0.080361
C	-0.0153703871	-0.6576775923	-1.1477454937	 0.381756
O	-0.0529277512	-0.1358944772	-2.3825638576	-0.407573
O	 0.0036170966	-2.0261494357	-1.1846977366	-0.231964
C	 0.0421287065	-2.6617905984	 0.0243414006	 0.113293
N	 0.0620594885	-2.1178490434	 1.1631188988	-0.304195
C	 0.0439438815	-0.6972283249	 1.2508924127	 0.276049
N	 0.0630533223	-0.0927933159	 2.3776261993	-0.520762
H	 0.8677689744	 1.9283779851	 0.5427626002	 0.144302
H	-0.0566422164	 1.9723229002	-0.9799334095	 0.127306
H	-0.8825342072	 1.9019115345	 0.5977354822	 0.144622
H	-0.0591582992	-0.8599045311	-3.0203662962	 0.311753
H	 0.054043746	-3.7376373524	-0.1198920509	 0.148342
H	 0.0913116981	-0.7877705783	 3.1254632173	 0.218094
98.7532	124.8256	180.5915	256.2229	280.0622	302.2246	361.9963	477.5592	510.1978	526.4755	549.1181	650.1402	684.0965	768.1353	882.7926	902.9057	921.1535	952.8001	1005.8909	1066.0438	1068.1207	1163.7446	1218.2533	1286.097	1313.2676	1407.784	1415.9238	1430.7635	1475.8142	1487.4329	1684.1966	1692.1346	1775.7712	3045.7357	3098.1613	3142.7663	3195.3922	3471.8599	3811.3484
CC1=C(O)OC=NC1=N	CC1=C(N=CO[C@@H]1O)[NH]	
InChI=1S/C5H6N2O2/c1-3-4(6)7-2-9-5(3)8/h2,6,8H,1H3	InChI=1S/C5H7N2O2/c1-3-4(6)7-2-9-5(3)8/h2,5-6,8H,1H3/t5-/m0/s1
