19
gdb 115357	2.46977	1.3384	1.06261	2.6708	66.68	-0.2548	0.0572	0.312	1172.6089	0.159708	-497.289104	-497.280295	-497.27935	-497.322919	33.512	
O	 0.1504695818	 1.2265441152	-0.3817627991	-0.427422
C	 0.0669912826	-0.1712373236	-0.1814643234	-0.054099
C	-1.3673280312	-0.6108037156	 0.0585917501	 0.05143
O	-2.134439455	-0.2403841305	-1.1088073484	-0.296496
C	-3.2271140909	-1.1509930626	-1.1725168754	-0.130805
C	-2.5634090106	-2.4957737281	-0.911023829	 0.093963
O	-1.8143005175	-2.9280489349	-2.0453279684	-0.44605
C	-1.5853095206	-2.1474340619	 0.2504382716	 0.075826
O	-0.4120874534	-2.9226732979	 0.205647907	-0.432236
H	-0.4925124136	 1.4441022888	-1.0661674125	 0.290702
H	 0.4788606499	-0.7303513092	-1.0356487531	 0.075014
H	 0.6792655368	-0.4149925701	 0.6905059623	 0.124825
H	-1.7733571322	-0.0596502105	 0.9192958078	 0.08073
H	-3.9841837538	-0.9240645002	-0.4049698018	 0.103183
H	-3.6862745399	-1.0790661966	-2.1614214829	 0.122067
H	-3.2535362222	-3.3045413402	-0.6645545438	 0.098053
H	-1.4438855105	-2.1316744925	-2.4493242602	 0.293874
H	-2.0664269086	-2.3301725856	 1.2171592073	 0.088732
H	-0.3663664112	-3.2674543541	-0.6992806979	 0.288708
52.1294	118.9623	184.9751	189.059	295.2396	308.7957	408.5095	415.5217	420.1209	463.0336	504.3114	555.054	616.1048	731.7581	780.3959	827.2751	864.3541	888.2415	947.8336	997.6145	1037.6524	1065.2346	1087.8638	1110.5117	1136.0669	1140.4184	1217.5304	1226.4818	1250.7686	1261.4732	1289.2156	1321.4372	1342.442	1357.163	1379.8106	1397.2849	1427.2437	1436.475	1446.4523	1490.3268	1503.225	2983.7921	2985.8694	3001.8532	3051.6264	3102.8317	3104.9577	3108.7798	3702.2226	3764.6293	3802.8008
OCC1OCC(O)C1O	OC[C@H]1OC[C@@H](O)[C@H]1O	
InChI=1S/C5H10O4/c6-1-4-5(8)3(7)2-9-4/h3-8H,1-2H2	InChI=1S/C5H10O4/c6-1-4-5(8)3(7)2-9-4/h3-8H,1-2H2/t3-,4-,5-/m1/s1
