21
gdb 83956	2.16466	1.63189	1.39682	2.5111	76.53	-0.2496	0.0611	0.3106	1063.1372	0.184884	-424.219104	-424.21087	-424.209926	-424.251211	33.329	
O	 0.1496702108	 1.39501868	-0.1229229161	-0.441456
C	 0.0091984634	 0.0073400765	 0.0280982897	 0.168252
C	 0.2158885275	-0.6827046565	 1.4121486886	-0.108579
C	-0.4535816854	 0.1536661072	 2.5153126841	-0.237857
C	-1.9872259052	 0.2375654657	 2.3033637507	-0.207418
C	-2.3967785204	 0.1575909152	 0.8103559823	-0.242363
C	-1.3927733554	-0.6780928428	 0.0005298978	-0.066957
C	-0.7555436194	-1.7832181089	 0.8830961983	 0.137676
O	-0.1327084137	-2.7422857801	 0.0470814137	-0.451584
H	-0.4243576798	 1.8428446288	 0.5058690275	 0.281972
H	 0.6621141756	-0.4394810749	-0.7208706053	 0.100376
H	 1.2297682653	-0.9905356909	 1.6865140615	 0.054075
H	-0.243866117	-0.2731291578	 3.5019590788	 0.09763
H	 0.0021358562	 1.1528916461	 2.5208064767	 0.099541
H	-2.4512563385	-0.6024445869	 2.8294772605	 0.111524
H	-2.3944434957	 1.1398661681	 2.7706902979	 0.094999
H	-3.40230742	-0.2683965233	 0.7293960863	 0.101399
H	-2.4610484208	 1.1577091723	 0.3611119377	 0.098772
H	-1.7914513323	-0.9917943033	-0.9665551326	 0.071444
H	-1.4039745356	-2.2735308651	 1.6208490132	 0.05876
H	 0.4814945103	-3.2507665193	 0.5865001685	 0.279796
164.5249	216.1945	225.0706	272.1542	281.0762	286.1473	320.5602	393.3976	440.9986	557.6897	561.4771	616.7664	729.1025	798.0937	843.5939	850.5814	875.997	912.3277	935.4023	989.425	998.5747	1054.2176	1056.1034	1071.6395	1118.4455	1133.2748	1141.6732	1153.7411	1190.419	1236.3074	1243.335	1254.4707	1263.2426	1306.1984	1314.6203	1320.7557	1335.0122	1357.818	1372.4448	1374.4797	1423.4823	1440.0858	1499.3868	1505.4908	1520.861	3007.141	3017.2628	3018.5861	3044.0483	3052.9449	3062.883	3064.1352	3085.4998	3088.8091	3122.3606	3811.5647	3822.7506
OC1C2CCCC1C2O	O[C@H]1[C@H]2CCC[C@@H]1[C@H]2O	
InChI=1S/C7H12O2/c8-6-4-2-1-3-5(6)7(4)9/h4-9H,1-3H2	InChI=1S/C7H12O2/c8-6-4-2-1-3-5(6)7(4)9/h4-9H,1-3H2/t4-,5+,6-,7-
