19
gdb 96642	2.2224	1.30835	0.88014	1.9251	85.05	-0.2339	-0.012	0.2219	1345.9185	0.158116	-415.393831	-415.38361	-415.382665	-415.429514	35.726	
C	-0.0997461804	 1.2827455833	 0.5144086067	-0.326697
N	-0.0746988027	-0.1642450851	 0.3954513773	-0.257042
C	-1.1262397423	-0.7811871262	 0.0411103895	 0.367036
C	-2.4588698243	-0.1549053564	-0.2904664545	-0.46495
N	-1.0029551794	-2.1939001152	-0.1390525071	-0.120303
C	-2.0200342469	-3.0943862414	 0.1802152019	 0.08527
N	-3.0925516739	-2.7390145022	 0.7640722116	-0.469615
C	 0.2432500842	-2.7041488408	-0.5335180475	 0.10749
N	 0.4781933603	-3.9515827361	-0.5838414213	-0.474344
H	 0.8249391655	 1.6128186789	 0.9940742546	 0.12869
H	-0.154167914	 1.7708827478	-0.4690845795	 0.123943
H	-0.9439051491	 1.6496628558	 1.112777392	 0.123153
H	-3.0747816074	-0.8083944912	-0.9046149677	 0.145816
H	-3.0245086453	 0.056077976	 0.621045196	 0.163846
H	-2.2882625926	 0.7888025324	-0.8169083829	 0.124861
H	-1.7457884816	-4.1067887755	-0.1169176588	 0.149236
H	-3.6957141656	-3.5500803013	 0.889761825	 0.231344
H	 0.9354601483	-1.9008092829	-0.7812350698	 0.130071
H	 1.4179641373	-4.1134102298	-0.9388261655	 0.232196
62.0014	92.2447	108.6974	135.0661	171.6928	192.1678	244.7131	268.104	324.3049	339.4607	433.482	450.1049	571.862	624.8606	695.3137	774.3596	811.4498	837.0977	952.0603	1041.7853	1059.0674	1070.132	1081.5002	1096.2308	1119.02	1146.1887	1178.1918	1242.2271	1326.2727	1385.2054	1405.791	1414.0172	1422.6925	1438.0328	1462.0315	1474.3256	1492.0758	1510.0465	1702.4041	1723.1307	1736.3195	2996.5395	3049.3685	3056.6908	3104.4367	3118.7809	3135.8103	3143.7365	3170.7035	3499.9653	3513.046
CN=C(C)N(C=N)C=N	CN=C(C)N(C=N)C=N	
InChI=1S/C5H10N4/c1-5(8-2)9(3-6)4-7/h3-4,6-7H,1-2H3	InChI=1S/C5H10N4/c1-5(8-2)9(3-6)4-7/h3-4,6-7H,1-2H3
