22
gdb 66931	2.16997	1.91481	1.48117	1.6559	84.74	-0.2345	0.0834	0.3179	1043.2545	0.193825	-367.171625	-367.162823	-367.161879	-367.204107	35.12	
C	 0.0594240271	 1.4829054726	 0.1304311202	-0.512504
C	-0.0422775913	-0.003253014	-0.0383565903	 0.320601
C	-0.9805028813	-0.839310696	 0.7804936281	-0.093945
C	-1.0826399724	-2.2335562757	 0.191798807	-0.263564
C	 0.3923624501	-2.0058652951	-0.1773618306	-0.038857
N	 0.5115024503	-0.9604298985	 0.982105983	-0.204663
C	 0.4580905372	-0.8513477892	-1.2149001564	 0.269667
C	-0.3852789569	-0.9234414093	-2.4867089157	-0.469823
C	 1.9190995441	-0.5301475117	-1.5503448081	-0.447985
H	 1.0605440361	 1.8452997776	-0.1240132403	 0.125919
H	-0.6635145472	 2.0021091434	-0.5091844199	 0.120356
H	-0.144032953	 1.7658943645	 1.1678894192	 0.129148
H	-1.6094415037	-0.3941754795	 1.5447012978	 0.08884
H	-1.1725913694	-2.9766558579	 0.9889096085	 0.110067
H	-1.8090440525	-2.4526400385	-0.5964505264	 0.094881
H	 1.1036773972	-2.8300851165	-0.2250317841	 0.072983
H	-1.4455907522	-1.0834190949	-2.2767104328	 0.116276
H	-0.2998768351	 0.009207013	-3.0559804659	 0.114974
H	-0.0421910762	-1.7346841728	-3.1396148983	 0.113741
H	 2.3357274109	-1.2979664346	-2.2118697497	 0.109467
H	 2.0068586238	 0.4314118859	-2.0681665183	 0.110251
H	 2.5333372645	-0.4882014232	-0.6465403069	 0.134173
170.427	172.2688	196.5355	225.6029	247.9867	269.7989	308.3131	353.7568	388.3042	478.9199	546.948	609.8931	633.9435	757.4452	788.8925	806.9279	823.0524	924.2134	935.5584	950.8736	968.1915	997.0472	998.4046	1014.1454	1026.9893	1058.4949	1087.5687	1131.1463	1175.274	1187.8175	1209.0332	1235.1966	1246.7546	1269.6984	1285.5885	1351.0556	1396.0928	1400.8664	1418.8904	1426.426	1480.4642	1484.7722	1486.8211	1492.5935	1504.3345	1505.8792	1518.0349	3026.1142	3029.3844	3032.0002	3050.3593	3084.6561	3090.0132	3095.0121	3100.2611	3107.4858	3113.9332	3115.9075	3119.8457	3166.9245
CC12C3CC(N13)C2(C)C	C[C@]12[C@H]3C[C@H](N13)C2(C)C	
InChI=1S/C8H13N/c1-7(2)5-4-6-8(7,3)9(5)6/h5-6H,4H2,1-3H3	InChI=1S/C8H13N/c1-7(2)5-4-6-8(7,3)9(5)6/h5-6H,4H2,1-3H3/t5-,6+,8+,9?/m0/s1
