18
gdb 15777	3.27851	1.3944	1.11018	5.1752	72.63	-0.2412	0.0411	0.2823	1099.7502	0.153205	-343.967397	-343.958823	-343.957879	-344.000969	31.017	
C	 0.2234637745	 1.5759933429	-0.0080297644	-0.426021
C	 0.0602236721	 0.0495738443	-0.0720791934	 0.059541
C	 0.6667964764	-0.5890944549	 1.198755478	-0.340658
C	 0.7563405862	-2.0454959943	 1.1259502797	 0.277829
N	 0.8607364793	-3.194829295	 1.0734456708	-0.311709
N	-1.2927727311	-0.4871145433	-0.2268480509	-0.060253
C	-2.4661984703	 0.2542831709	 0.2187294049	-0.227379
C	-2.1940840472	 0.0423928877	-1.2330159045	-0.225634
H	 1.2856010968	 1.8374450195	-0.0343078697	 0.126429
H	-0.2533102278	 2.070532966	-0.8587230727	 0.127331
H	-0.1978602252	 1.9938127389	 0.9120697192	 0.124981
H	 0.6242564775	-0.3216242387	-0.9359489604	 0.107872
H	 1.6709987122	-0.1887822813	 1.3765650076	 0.145372
H	 0.0546532851	-0.3153267024	 2.066157536	 0.149947
H	-3.2209358517	-0.3342407572	 0.7327177139	 0.124494
H	-2.3478225625	 1.2672411535	 0.5963082139	 0.11143
H	-1.8922868896	 0.9156787055	-1.8088782507	 0.11086
H	-2.7479166149	-0.7008519522	-1.8001631172	 0.125568
58.3282	81.8524	142.7007	240.4165	258.4457	291.3981	341.82	391.5144	411.7327	513.6576	568.2841	695.8765	817.3097	870.0436	888.4753	917.628	947.1586	984.7066	1030.5145	1067.4886	1108.2548	1113.0032	1121.6715	1143.4336	1169.7992	1181.8272	1245.4372	1305.6162	1336.9435	1369.7923	1377.965	1405.1964	1459.5379	1485.9696	1495.3667	1508.6245	1525.8522	2366.3519	3036.8923	3039.7415	3047.2505	3084.8348	3096.0418	3106.7427	3110.8123	3116.8108	3176.6048	3193.3768
CC(CC#N)N1CC1	C[C@@H](CC#N)N1CC1	
InChI=1S/C6H10N2/c1-6(2-3-7)8-4-5-8/h6H,2,4-5H2,1H3	InChI=1S/C6H10N2/c1-6(2-3-7)8-4-5-8/h6H,2,4-5H2,1H3/t6-/m0/s1
