25
gdb 121872	3.59495	0.61451	0.58055	2.4976	90.37	-0.2369	-0.0071	0.2298	2071.9032	0.225497	-389.529057	-389.517106	-389.516162	-389.567833	41.756	
C	-0.1026719415	 1.5838073008	 0.066416062	-0.380636
C	-0.0810867668	 0.0562442596	-0.0334998473	-0.161464
C	 0.7641477166	-0.4600808308	-1.2042217374	-0.180344
C	 0.788911947	-1.9900857299	-1.2891364973	-0.171587
C	 1.5339398146	-2.5554457926	-2.510148332	-0.087609
C	 3.0384617591	-2.2074945114	-2.5125016477	-0.39502
C	 1.4076439543	-4.0818349464	-2.5623621963	 0.387259
C	 1.34179305	-4.7123734852	-3.9427146309	-0.480884
O	 1.375172663	-4.7514230597	-1.554901728	-0.310811
H	 0.9071545105	 1.9857228047	 0.2060381886	 0.11263
H	-0.5133074517	 2.0347458847	-0.8440839836	 0.111874
H	-0.7140827735	 1.9212789419	 0.9091794988	 0.111415
H	 0.3037668473	-0.367994662	 0.9031650905	 0.097637
H	-1.1075047521	-0.320111456	-0.1354057648	 0.094762
H	 0.3710959776	-0.0443188633	-2.1434696099	 0.087074
H	 1.7845674581	-0.0689783218	-1.1032691751	 0.09529
H	 1.2351024682	-2.413858745	-0.382626424	 0.11513
H	-0.2442150735	-2.3606420525	-1.3106879911	 0.093517
H	 1.0913646699	-2.1460543698	-3.4287121675	 0.072003
H	 3.1906607263	-1.1267770384	-2.5673629816	 0.124983
H	 3.5151067085	-2.577673395	-1.5991715651	 0.133575
H	 3.5556080675	-2.6553445876	-3.367354046	 0.115202
H	 2.1164405496	-4.3078212755	-4.6025629263	 0.134358
H	 1.4397824118	-5.7960498239	-3.8670995426	 0.140076
H	 0.3767508292	-4.4688806148	-4.4040303857	 0.141572
34.7153	47.1182	78.7951	99.454	127.703	147.8349	210.9698	218.57	248.192	268.8419	298.615	313.536	417.0571	480.7427	601.1399	603.0084	733.3208	769.4291	793.8779	883.0072	903.7194	916.5363	953.3625	985.8653	1021.0826	1038.473	1049.0745	1068.461	1121.5423	1135.82	1164.3972	1204.1527	1250.5373	1273.9499	1309.3924	1329.8097	1332.3776	1352.684	1378.3322	1387.9751	1398.4087	1404.1326	1412.2624	1462.4406	1475.9036	1479.3685	1485.7193	1497.9135	1500.1723	1501.102	1502.3283	1512.7157	1808.8907	3001.0948	3011.4072	3016.0045	3024.2389	3028.1155	3033.9057	3034.944	3038.9325	3053.8151	3078.6616	3094.4873	3094.8333	3100.9048	3104.7889	3120.1913	3150.5112
CCCCC(C)C(C)=O	CCCC[C@@H](C)C(=O)C	
InChI=1S/C8H16O/c1-4-5-6-7(2)8(3)9/h7H,4-6H2,1-3H3	InChI=1S/C8H16O/c1-4-5-6-7(2)8(3)9/h7H,4-6H2,1-3H3/t7-/m1/s1
