20
gdb 22843	2.94441	1.18385	0.89565	1.0474	87.67	-0.2241	-0.0263	0.1978	1315.1265	0.172801	-403.12868	-403.120222	-403.119278	-403.161893	32.89	
O	 0.0167784781	 1.3238910165	 0.7050804369	-0.395149
N	 0.0617978422	-0.0699383389	 0.5635013615	-0.177694
C	-0.9980553249	-0.5549042062	 0.0128486528	 0.316663
C	-0.9807714435	-2.0579830946	-0.1259774478	-0.271546
C	-1.2909276033	-2.6069533675	-1.5266928696	-0.196632
C	-2.7616680605	-2.4698315104	-1.9348987745	-0.19026
C	-3.2140981132	-1.0555134521	-2.3185590531	-0.251974
C	-3.0786707471	 0.0496981663	-1.3036364166	-0.061086
C	-2.1491199981	 0.2693166886	-0.3636440036	-0.114013
H	 0.8410385697	 1.5017563915	 1.1695521433	 0.305758
H	 0.0065544412	-2.3948911694	 0.2010225678	 0.112742
H	-1.7124977048	-2.4798664288	 0.5779704156	 0.105737
H	-0.6437629706	-2.1246594802	-2.2709776397	 0.099706
H	-1.0260671281	-3.6706385578	-1.5320168782	 0.097504
H	-2.9571602959	-3.1213582343	-2.7948562935	 0.094244
H	-3.3933822181	-2.842424887	-1.1176657159	 0.097755
H	-2.668492824	-0.7422442271	-3.2233821316	 0.118871
H	-4.2653325762	-1.1022683719	-2.6276893799	 0.103744
H	-3.826599741	 0.8337592366	-1.4146538106	 0.094662
H	-2.2074399816	 1.2048379967	 0.1830328169	 0.110969
61.2966	129.1698	215.5061	277.6131	312.1066	341.2157	363.0128	389.4126	436.4146	482.3643	566.9205	633.8614	706.9789	719.2755	804.2193	834.0019	882.348	894.9295	930.5105	959.1849	995.8224	1025.0118	1050.3022	1090.2351	1108.0915	1165.4548	1224.7496	1245.3616	1272.9603	1303.2211	1316.8288	1360.438	1376.7357	1383.7655	1399.8248	1414.2909	1440.7653	1470.0319	1474.4439	1489.5371	1494.2663	1670.1472	1707.0644	2984.1149	3006.8083	3016.6123	3021.8501	3045.6656	3059.2155	3064.8185	3093.238	3131.1742	3184.9907	3822.8307
ON=C1CCCCC=C1	ON=C1CCCCC=C1	
InChI=1S/C7H11NO/c9-8-7-5-3-1-2-4-6-7/h3,5,9H,1-2,4,6H2	InChI=1S/C7H11NO/c9-8-7-5-3-1-2-4-6-7/h3,5,9H,1-2,4,6H2
