23
gdb 104449	2.93097	1.20796	1.09924	0.1336	81.6	-0.2316	0.0817	0.3133	1252.4399	0.205759	-425.433889	-425.424487	-425.423543	-425.467496	36.464	
C	 0.0685610929	 1.5454754527	 0.0436558093	-0.393564
C	-0.0529921485	 0.0183658366	 0.046778286	-0.202207
C	-1.4903300918	-0.5117898453	-0.0596266323	 0.354927
C	-2.2016264869	-0.0231570404	-1.3314913012	-0.436656
C	-1.4789584415	-2.0507730118	-0.0104027168	-0.107062
O	-2.7843086301	-2.5819178786	 0.1535356051	-0.254024
C	-3.3658138372	-2.1135645642	 1.3600279779	-0.079291
C	-3.4385248887	-0.5919906639	 1.3523688923	-0.085663
O	-2.1569182529	-0.0294746041	 1.1235761072	-0.297355
H	 1.1038582829	 1.8472874336	 0.2286399764	 0.109259
H	-0.2334741164	 1.977975946	-0.9149496481	 0.113922
H	-0.5595657517	 1.9796907858	 0.8253771493	 0.135166
H	 0.5349444661	-0.4082303294	-0.775897662	 0.091872
H	 0.3732595157	-0.373404999	 0.9776044529	 0.099864
H	-1.5666014504	-0.1894273963	-2.2076328372	 0.112655
H	-3.1355522157	-0.566009092	-1.4930875066	 0.127534
H	-2.4230966959	 1.0445517869	-1.2638144983	 0.122915
H	-1.0887547266	-2.4662363507	-0.9445294056	 0.104859
H	-0.8322297278	-2.3814563197	 0.8188486433	 0.085858
H	-4.3641452096	-2.5567195274	 1.4274014268	 0.105269
H	-2.7688268842	-2.4524118427	 2.2231088523	 0.091004
H	-4.1599480042	-0.2596256539	 0.5910654763	 0.095668
H	-3.7721332177	-0.2133793221	 2.3242257731	 0.105051
97.2734	135.1264	186.3442	209.1274	234.0864	266.9901	321.1222	350.3459	365.8239	419.4925	452.3908	472.6218	531.3764	630.7883	748.0856	777.8023	868.4317	889.8538	908.8501	918.6831	955.7613	995.6164	1012.5578	1062.7326	1081.5945	1117.5184	1132.6119	1141.0331	1200.0192	1206.9496	1234.0253	1261.8917	1290.9948	1316.1002	1343.7482	1373.2297	1381.7943	1395.847	1405.7879	1409.9327	1422.4215	1471.0275	1480.3366	1484.281	1489.9601	1493.085	1503.2027	1508.3025	1514.3755	2967.9529	2973.898	2997.3439	3024.7616	3044.0686	3047.0488	3063.6243	3075.7931	3083.398	3085.6376	3107.4572	3115.2777	3127.1464	3132.9392
CCC1(C)COCCO1	CC[C@@]1(C)COCCO1	
InChI=1S/C7H14O2/c1-3-7(2)6-8-4-5-9-7/h3-6H2,1-2H3	InChI=1S/C7H14O2/c1-3-7(2)6-8-4-5-9-7/h3-6H2,1-2H3/t7-/m0/s1
