16
gdb 16539	2.89594	2.31812	1.5961	2.0372	64.47	-0.2438	-0.028	0.2158	831.3588	0.130011	-383.723029	-383.715732	-383.714787	-383.754768	26.852	
C	 0.2274989745	 1.6243095969	-0.0640327557	-0.412987
C	 0.1135806182	 0.1084634752	-0.0105719348	-0.113951
C	 0.6703862706	-0.7701592848	-1.1656944758	 0.094484
O	 1.8997515311	-0.2575627424	-1.7194540766	-0.285151
C	 2.7000017823	-1.1483174265	-0.9102186906	-0.082978
C	 1.4534523452	-1.6705804426	-0.159702883	-0.21671
C	 1.017486	-0.6961487951	 0.9510428179	 0.388199
O	 1.2896618451	-0.5937066827	 2.1115397284	-0.299266
H	 1.215539524	 1.9149458138	-0.4293066563	 0.138731
H	-0.5236669406	 2.056464687	-0.7320944187	 0.121188
H	 0.0841367381	 2.0498975581	 0.9333221489	 0.135338
H	-0.9208111548	-0.2051137656	 0.1969260302	 0.107169
H	-0.019871183	-1.1285566839	-1.9315705824	 0.083811
H	 3.1896546843	-1.9115238489	-1.5267125503	 0.114446
H	 3.4551307472	-0.6220826089	-0.3163007649	 0.122884
H	 1.3375222178	-2.7418222896	-0.0054056063	 0.104793
84.8195	172.5703	188.5714	211.2838	240.7121	471.6306	485.7447	624.1086	630.6416	731.2904	829.2465	835.684	896.947	929.9198	950.1972	993.5706	1022.1867	1038.6877	1070.797	1110.3406	1133.3889	1142.2192	1167.9394	1196.862	1240.3101	1254.7776	1305.4744	1324.1249	1355.1957	1401.0925	1489.2875	1502.1498	1525.3532	1889.2008	3006.7964	3023.3123	3044.6659	3074.6417	3095.8563	3112.7273	3128.6898	3135.1896
CC1C2OCC2C1=O	C[C@H]1[C@H]2OC[C@H]2C1=O	
InChI=1S/C6H8O2/c1-3-5(7)4-2-8-6(3)4/h3-4,6H,2H2,1H3	InChI=1S/C6H8O2/c1-3-5(7)4-2-8-6(3)4/h3-4,6H,2H2,1H3/t3-,4+,6-/m1/s1
