19
gdb 90790	2.33389	1.9745	1.36115	3.4553	78.14	-0.2309	0.0027	0.2336	998.9944	0.160852	-385.900579	-385.893129	-385.892185	-385.932343	29.945	
C	-0.0974174596	 1.5834216449	 0.0060405148	-0.40909
C	 0.0215902072	 0.0595602412	-0.0152942381	 0.035007
C	 0.83971516	-0.5125786908	-1.2081988736	-0.263242
C	 1.6076402355	-1.6923879083	-0.6137231547	-0.038625
C	 1.202282752	-1.960477355	 0.7888204858	-0.091742
C	 2.6296717886	-1.4146582838	 0.5024431932	-0.199157
C	 2.2471338735	-0.1785220729	 1.2443800598	 0.440611
O	 2.8754859712	 0.66265833	 1.8285817657	-0.347361
C	 0.7383572449	-0.5387478126	 1.2144292768	-0.177833
H	 0.8877111255	 2.0543832871	 0.085604945	 0.13619
H	-0.5780075412	 1.952520516	-0.9058765012	 0.113344
H	-0.6960496654	 1.9214765402	 0.8582244592	 0.116225
H	-0.9861158048	-0.3750026399	-0.0480064156	 0.07584
H	 0.1857669677	-0.8416253047	-2.0216275698	 0.103156
H	 1.5203187923	 0.238479557	-1.6244669876	 0.109743
H	 1.8914179632	-2.5236417048	-1.2505644878	 0.09751
H	 0.9451766771	-2.9063218333	 1.2429672835	 0.106616
H	 3.5868007091	-1.921581988	 0.5239015069	 0.105752
H	 0.2216116733	-0.407524932	 2.1655384079	 0.087056
119.7304	125.6644	235.0459	303.2251	358.8731	416.5348	489.7096	509.434	617.9541	683.8535	739.9641	789.3967	819.0605	833.827	852.3881	886.7751	931.8866	943.4036	955.0867	969.0708	993.5723	1053.4067	1064.2701	1087.0956	1108.59	1132.429	1140.747	1172.7206	1213.3528	1246.3872	1253.5542	1297.6174	1306.9188	1343.0884	1357.6181	1394.091	1414.0281	1496.1612	1496.721	1501.5217	1864.8175	3012.3518	3032.9165	3041.921	3083.6242	3100.2778	3107.4604	3119.392	3170.4113	3192.7936	3225.2456
CC1CC2C3C2C(=O)C13	C[C@H]1C[C@@H]2[C@H]3[C@@H]2C(=O)[C@@H]13	
InChI=1S/C8H10O/c1-3-2-4-6-5(3)8(9)7(4)6/h3-7H,2H2,1H3	InChI=1S/C8H10O/c1-3-2-4-6-5(3)8(9)7(4)6/h3-7H,2H2,1H3/t3-,4+,5-,6+,7+/m0/s1
