13
gdb 5156	5.85291	1.31397	1.21649	3.3754	63.45	-0.2418	-0.0035	0.2383	953.9763	0.097818	-357.680373	-357.673588	-357.672644	-357.712649	23.892	
N	-0.0882181067	-1.1510829675	 0.363786385	-0.28671
C	-0.0347364209	-0.0147490288	 0.1668285486	 0.278064
C	 0.0167054039	 1.4356697158	-0.0710466023	-0.309539
N	 1.3587787483	 1.9750470987	-0.0242489934	 0.018186
C	 2.1573329542	 2.1170360295	 1.0947438159	-0.122355
C	 3.3258684619	 2.6617542294	 0.63791038	-0.079856
N	 3.2723012693	 2.8586868152	-0.7242169702	-0.265154
C	 2.0885615867	 2.4346374422	-1.0881656675	 0.015325
H	-0.4086569124	 1.6484772839	-1.0560864411	 0.177647
H	-0.6185456992	 1.9342143754	 0.6693587224	 0.177086
H	 1.8196345844	 1.8163404026	 2.0727961587	 0.141076
H	 4.2016640292	 2.9266019197	 1.2100857999	 0.119652
H	 1.6889239012	 2.4328905638	-2.092200346	 0.136578
31.6325	97.8365	254.0311	326.1911	369.059	485.9062	626.4918	674.1351	725.5672	759.7158	813.1552	866.4632	910.8802	929.2717	967.8065	1040.525	1100.8941	1142.5139	1216.7304	1266.6255	1306.3675	1373.0451	1402.3376	1411.6147	1461.0689	1525.7938	1550.9233	2369.7087	3053.1236	3102.166	3242.8307	3252.5943	3280.3256
N#CCN1C=CN=C1	N#CCn1ccnc1	
InChI=1S/C5H5N3/c6-1-3-8-4-2-7-5-8/h2,4-5H,3H2	InChI=1S/C5H5N3/c6-1-3-8-4-2-7-5-8/h2,4-5H,3H2
