16
gdb 34119	3.48352	1.48361	1.37675	4.4721	72.88	-0.2626	0.0205	0.2831	955.8721	0.12682	-400.722081	-400.715623	-400.714679	-400.752867	26.349	
N	 0.031425776	-1.1226169159	-0.0711178032	-0.343568
C	 0.0166188456	 0.0336957961	-0.028995971	 0.148859
C	-0.0290967358	 1.4700950773	 0.0130100215	 0.167468
C	-0.8838544774	 2.2410974503	 1.0625999623	-0.28701
C	-0.8564090728	 3.3775869487	 0.0315901951	-0.092643
C	 0.6211237728	 3.557275298	-0.5063295318	 0.060661
C	 1.2907094502	 2.2806102581	 0.034738883	-0.251878
O	 0.2029092179	 3.1106262713	-1.8341911891	-0.277926
C	-0.7758919925	 2.368816774	-1.1302719611	 0.080811
H	-1.8895166158	 1.826537288	 1.1643908672	 0.126193
H	-0.4372097656	 2.3868404995	 2.0488788147	 0.115909
H	-1.5171106082	 4.2408041785	 0.0360469192	 0.095292
H	 1.1606706226	 4.501943733	-0.5064355442	 0.097612
H	 1.7057725139	 2.3640656333	 1.0415262223	 0.115562
H	 2.0496488171	 1.9157709398	-0.6580569298	 0.133014
H	-1.582867478	 1.9317301502	-1.7143427351	 0.111644
147.577	163.006	386.152	427.5181	467.1843	549.0591	551.1482	581.7439	671.3363	715.8019	807.2437	836.7534	852.9616	890.5699	923.877	932.3237	967.1368	991.3377	1023.3674	1048.1347	1058.2995	1105.7227	1126.0861	1158.1951	1196.6656	1216.359	1219.4094	1239.8439	1263.6725	1282.9246	1324.4224	1335.6764	1477.9079	1504.2039	2347.7014	3067.1392	3080.1592	3126.3746	3144.0909	3147.0525	3150.5722	3160.8715
N#CC12CC3C(C1)OC23	N#C[C@@]12C[C@H]3[C@@H](C1)O[C@@H]23	
InChI=1S/C7H7NO/c8-3-7-1-4-5(2-7)9-6(4)7/h4-6H,1-2H2	InChI=1S/C7H7NO/c8-3-7-1-4-5(2-7)9-6(4)7/h4-6H,1-2H2/t4-,5+,6+,7+/m0/s1
