14
gdb 49493	2.31823	1.65116	1.17771	4.7139	67.39	-0.2675	-0.0602	0.2073	1024.6504	0.099541	-436.620997	-436.613345	-436.6124	-436.653733	27.904	
O	-0.7178780474	 0.7832846992	 0.4586397553	-0.239012
C	 0.2076331937	 0.945250533	-0.2962145536	 0.123816
C	 1.3135413616	 1.9515022899	-0.1128497177	-0.124927
C	 1.1233360398	 3.4643299878	-0.496641735	 0.010598
C	 0.1923179044	 3.6736415384	 0.7179721832	-0.267355
C	 1.4334013355	 2.8476452071	 1.1551759739	 0.336012
O	 2.2841575996	 3.7747528837	 0.3663404726	-0.322065
C	 1.8618626342	 2.4680629128	 2.4784737689	 0.185655
N	 2.1878366811	 2.1490532725	 3.539824938	-0.334666
H	 0.3066544719	 0.3353036395	-1.2214916561	 0.098769
H	 2.2751366163	 1.566771226	-0.4607675567	 0.122524
H	 1.0998607478	 3.9095304835	-1.4887260245	 0.125505
H	 0.1812431196	 4.6919249333	 1.104389633	 0.134533
H	-0.773914128	 3.1742571531	 0.7426576088	 0.150613
69.1196	120.9812	180.4794	224.1974	278.7614	418.779	508.7757	529.6201	546.8001	585.1996	706.4899	750.3067	794.8576	891.4153	909.3213	943.8682	975.1398	1009.8405	1067.0011	1087.4117	1105.8309	1146.8725	1211.4616	1214.4816	1235.3769	1266.4184	1370.0471	1424.6045	1492.1213	1820.3949	2364.4674	2888.4471	3099.7588	3106.5586	3154.7955	3193.6406
O=CC1C2CC1(O2)C#N	O=C[C@H]1[C@H]2C[C@@]1(O2)C#N	
InChI=1S/C6H5NO2/c7-3-6-1-5(9-6)4(6)2-8/h2,4-5H,1H2	InChI=1S/C6H5NO2/c7-3-6-1-5(9-6)4(6)2-8/h2,4-5H,1H2/t4-,5+,6+/m0/s1
