18
gdb 120412	3.17177	0.94578	0.82287	2.6567	69.86	-0.2512	0.0181	0.2693	1422.3532	0.145995	-476.221238	-476.2115	-476.210556	-476.256747	33.887	
C	-0.1869106891	 1.3265275516	-0.1015330618	-0.227643
O	-0.1132207104	-0.0804604647	-0.1305916634	-0.247013
C	 0.8185025147	-0.5628539631	-1.0764496266	-0.049694
C	 0.7788812623	-2.0771049766	-1.0076613698	-0.014341
N	-0.4915214399	-2.6728887966	-1.4556254631	-0.322613
C	 0.0079398159	-3.2195658817	-2.6071046164	 0.388997
O	-0.4821169629	-3.7312381194	-3.580024663	-0.369088
C	 1.4544213798	-2.8358400061	-2.1962452569	-0.031576
O	 2.1554129361	-2.0440062502	-3.1208482615	-0.430027
H	 0.7792658842	 1.7785363589	 0.1714003203	 0.108645
H	-0.4957033257	 1.7387579589	-1.0747702895	 0.108697
H	-0.9303225739	 1.5994976251	 0.6511634685	 0.129145
H	 0.5653239668	-0.2211096251	-2.0908016429	 0.096966
H	 1.8365166036	-0.2050193303	-0.8513664609	 0.100174
H	 1.0788196002	-2.4155186385	-0.0111829549	 0.09389
H	-1.4378079252	-2.468851383	-1.1673486525	 0.25971
H	 2.0524536601	-3.6938123566	-1.8634288479	 0.101807
H	 1.8788184735	-2.3253956927	-4.0010729477	 0.303965
52.0346	99.5368	105.0312	129.8968	179.4321	232.2505	239.7884	285.4822	353.7906	421.8818	498.4411	531.3096	563.4662	722.4839	778.969	866.9798	898.7616	931.5608	997.1415	1065.7972	1112.4099	1146.6422	1165.8782	1182.3898	1188.3116	1206.7853	1224.1811	1249.597	1271.4881	1346.0654	1357.3715	1381.5507	1387.9539	1431.8835	1481.2695	1486.5448	1501.0555	1519.6833	1889.8099	2970.3956	2980.6775	3017.5126	3022.1279	3025.7707	3067.9953	3116.5878	3606.0317	3792.3749
COCC1NC(=O)C1O	COC[C@H]1NC(=O)[C@H]1O	
InChI=1S/C5H9NO3/c1-9-2-3-4(7)5(8)6-3/h3-4,7H,2H2,1H3,(H,6,8)	InChI=1S/C5H9NO3/c1-9-2-3-4(7)5(8)6-3/h3-4,7H,2H2,1H3,(H,6,8)/t3-,4+/m1/s1
