18
gdb 119542	3.17478	1.07896	0.89049	3.584	72.65	-0.2345	0.0018	0.2363	1333.5176	0.146982	-439.071244	-439.062512	-439.061568	-439.105317	32.104	
C	 0.1652122147	 1.6256745137	 0.0172633082	-0.397195
C	 0.2011810217	 0.1031376837	 0.085006256	-0.124297
N	 0.4783170254	-0.4650734004	-1.2431675358	-0.39264
C	 0.5589079346	-1.8691407258	-1.2888705156	 0.164139
C	 1.8270500604	-2.6154787899	-0.8278763685	-0.313985
C	 1.312903668	-2.8189655558	-2.201424178	 0.026754
O	 0.2283216426	-3.7861076562	-2.1566078145	-0.268049
C	-0.5489747019	-2.9035995602	-1.4051917398	 0.409693
O	-1.6939221138	-3.0191827491	-1.1121046371	-0.33042
H	 1.1088697678	 2.0195205542	-0.3711749971	 0.126725
H	-0.6422230135	 1.9729383416	-0.6377819167	 0.117701
H	-0.0101989252	 2.0508678484	 1.0095167399	 0.122181
H	 1.0051354217	-0.2249183306	 0.7540976749	 0.110038
H	-0.7408168132	-0.2777049878	 0.5096426331	 0.110524
H	-0.1996908944	-0.1216839267	-1.916345895	 0.228222
H	 2.6785242002	-1.9486737479	-0.7301295249	 0.137229
H	 1.7696939565	-3.4256441791	-0.1085047494	 0.136656
H	 1.8031059985	-2.6594367122	-3.1503533196	 0.136724
64.588	87.7045	131.9217	188.0869	252.0773	285.9057	341.6309	382.7732	469.6547	526.7317	662.7842	723.0222	754.491	786.597	815.9912	852.4282	902.7251	914.6143	946.1498	957.7118	1020.9883	1047.8932	1062.218	1079.6221	1093.1087	1142.9071	1185.6743	1231.8367	1277.4126	1294.454	1376.6532	1410.2069	1420.6514	1478.449	1487.2206	1497.9942	1504.4848	1522.4743	1933.9154	2983.3052	3035.3585	3054.7744	3103.2179	3121.6068	3127.438	3223.1998	3237.9003	3515.0572
CCNC12CC1OC2=O	CCN[C@]12C[C@H]1OC2=O	
InChI=1S/C6H9NO2/c1-2-7-6-3-4(6)9-5(6)8/h4,7H,2-3H2,1H3	InChI=1S/C6H9NO2/c1-2-7-6-3-4(6)9-5(6)8/h4,7H,2-3H2,1H3/t4-,6-/m1/s1
