15
gdb 79276	2.76107	1.67126	1.35889	4.0453	65.1	-0.2497	-0.0426	0.2071	949.0062	0.111409	-457.693768	-457.686483	-457.685539	-457.725702	27.996	
O	 0.1139540974	 1.3929226689	-0.0347763682	-0.434853
C	 0.0001856452	 0.0101257746	-0.0155552587	 0.141025
C	-1.370663667	-0.664285247	-0.0626366836	-0.182454
C	-1.6893501645	-0.7440043444	-1.5589593447	 0.088914
O	-0.6403231857	-0.0757585574	-2.2757064885	-0.317212
C	 0.2794212544	-0.7427455078	-1.3740443314	 0.270647
C	 1.6591618074	-0.9837697647	-1.8774802569	 0.038378
O	 2.0910042774	-0.5727062674	-2.9217002281	-0.234897
C	-0.8204490656	-1.7852545187	-0.9478484663	-0.202569
H	-0.2790039105	 1.6796725864	-0.8713288531	 0.293765
H	 0.6172843758	-0.3833072697	 0.7955049355	 0.105344
H	-2.1258744895	-0.7212372651	 0.7100884099	 0.105841
H	-2.6782320153	-0.7827547316	-1.9938678572	 0.12556
H	 2.2817308667	-1.5787560957	-1.170599476	 0.082841
H	-0.8502019762	-2.8629993104	-0.8891938528	 0.119669
81.5652	178.4585	214.5015	242.7579	346.9189	440.3116	504.574	590.6225	647.6038	720.2755	776.2979	783.6978	791.0565	819.7797	849.8114	939.573	957.024	982.202	1018.0304	1027.9445	1042.9559	1057.0161	1074.3363	1148.5171	1168.7348	1185.925	1258.2135	1295.8033	1324.4539	1357.3242	1424.9831	1435.878	1828.9959	2872.2836	3100.015	3208.2571	3220.2283	3235.286	3750.5652
OC1C2C3OC1(C=O)C23	O[C@H]1[C@H]2[C@H]3O[C@]1(C=O)[C@@H]23	
InChI=1S/C6H6O3/c7-1-6-3-2(5(6)8)4(3)9-6/h1-5,8H	InChI=1S/C6H6O3/c7-1-6-3-2(5(6)8)4(3)9-6/h1-5,8H/t2-,3+,4-,5+,6-/m1/s1
