13
gdb 133605	3.23355	1.30378	1.15828	2.3085	50.79	-0.2699	0.0025	0.2724	1005.3611	0.087097	-584.265469	-584.258047	-584.257103	-584.298462	26.35	
F	 0.0282907345	 0.0421720928	 0.1319681975	-0.079075
C	-0.0228738525	 1.3797955134	 0.0782467723	 0.279833
F	 1.2222578186	 1.8408703495	-0.0252566891	-0.062617
F	-0.6825779987	 1.7129108788	-1.048160129	-0.087188
C	-0.7472820015	 1.9590639801	 1.2898586068	-0.128313
C	-2.1929367967	 1.4092291059	 1.4251003816	-0.132657
O	-2.1720468482	 0.7089447214	 2.6918363604	-0.211738
C	-0.927368894	 0.8840962407	 3.1812442942	 0.132274
N	-0.0700950517	 1.5543577374	 2.5292594611	-0.264683
H	-0.7172997757	 3.04681124	 1.1770873926	 0.121001
H	-2.9466322724	 2.1970046081	 1.4803800424	 0.132959
H	-2.4654840379	 0.6997517062	 0.6417360554	 0.1453
H	-0.7544902337	 0.4194863358	 4.1453197237	 0.154902
69.4066	77.0615	189.4244	244.7676	343.6881	394.7906	480.2582	535.4676	574.0591	687.6101	762.6788	816.9451	895.5725	962.382	973.1467	995.4034	1027.6622	1053.1576	1145.5552	1163.5968	1218.7706	1227.9311	1282.2498	1291.1396	1319.7038	1381.6728	1393.6972	1514.9543	1701.3982	3070.1686	3080.0041	3131.8891	3224.7438
FC(F)(F)C1COC=N1	FC(F)(F)[C@H]1COC=N1	
InChI=1S/C4H4F3NO/c5-4(6,7)3-1-9-2-8-3/h2-3H,1H2	InChI=1S/C4H4F3NO/c5-4(6,7)3-1-9-2-8-3/h2-3H,1H2/t3-/m1/s1
