22
gdb 13714	5.38696	0.76596	0.72151	1.2954	79.32	-0.2515	0.0823	0.3337	1643.0621	0.19898	-350.194524	-350.184774	-350.183829	-350.229787	35.313	
C	-0.2650250957	 1.5382844416	 0.1382567228	-0.379291
C	 0.1198434891	 0.0669155134	-0.0378313614	-0.161874
C	 0.7128706877	-0.5581726125	 1.2293562895	-0.152526
C	 1.0987921768	-2.0322066199	 1.0543671161	-0.202132
C	 1.6963126697	-2.6418045666	 2.3056712868	-0.012929
C	 0.7949920098	-3.1552206005	 3.415729947	-0.325579
C	 1.6010150295	-4.1151878329	 2.5750694429	 0.08786
O	 0.9567652518	-4.897799512	 1.6095596558	-0.41753
H	 0.6055464933	 2.1449128667	 0.4122116058	 0.111784
H	-0.6851216254	 1.9564446578	-0.7820280195	 0.109086
H	-1.0122487582	 1.6599727317	 0.930595641	 0.111672
H	-0.7629253713	-0.5095476699	-0.3451654859	 0.093184
H	 0.8418680385	-0.0274439619	-0.8599246703	 0.093212
H	 1.5967814495	 0.0180514634	 1.5377961538	 0.086634
H	-0.0074243614	-0.467637228	 2.0538608163	 0.091937
H	 0.2228069558	-2.6165241543	 0.7537497491	 0.105334
H	 1.8189167052	-2.1239526117	 0.2297182293	 0.094044
H	 2.6223919624	-2.1746016755	 2.6333372363	 0.081756
H	 1.0736670852	-2.9954401832	 4.451844923	 0.106683
H	-0.2732135085	-3.1291989917	 3.2224904958	 0.110022
H	 2.4608973967	-4.5954371406	 3.0428331776	 0.081901
H	 0.4400599294	-5.5672463734	 2.0693605381	 0.286753
49.069	78.3997	102.1208	131.8728	207.9528	246.1241	276.6483	296.6234	374.1064	394.1242	467.4841	583.1705	734.0911	765.7358	790.3014	835.8461	873.5456	911.1644	919.0427	980.0247	999.4288	1028.8347	1045.702	1067.1614	1088.3457	1125.131	1143.0226	1177.9422	1198.8496	1239.089	1247.8762	1274.3098	1300.0994	1314.6161	1328.426	1353.4591	1392.2981	1405.5733	1414.1103	1426.0752	1481.7265	1486.1342	1490.9266	1500.3212	1500.9463	1512.5	3002.6212	3012.3892	3017.9097	3027.817	3029.7738	3050.7771	3078.1345	3091.2658	3093.9649	3099.2408	3124.4273	3131.4318	3213.021	3809.1064
CCCCC1CC1O	CCCC[C@H]1C[C@H]1O	
InChI=1S/C7H14O/c1-2-3-4-6-5-7(6)8/h6-8H,2-5H2,1H3	InChI=1S/C7H14O/c1-2-3-4-6-5-7(6)8/h6-8H,2-5H2,1H3/t6-,7+/m0/s1
