14
gdb 49958	2.84747	1.25768	0.99844	3.5754	70.64	-0.2784	-0.0625	0.2158	1153.5078	0.099199	-432.848604	-432.83997	-432.839025	-432.882464	30.03	
N	-0.543444336	 1.1662549686	 0.794094399	-0.396676
C	-0.2095780256	 0.1165281518	 0.1728049625	 0.053166
N	-1.133370929	-0.5628664262	-0.6431836458	-0.089658
C	-2.5095665547	-0.6502807676	-0.2630978628	-0.246197
C	-1.6340774708	-1.8980826681	-0.2649582515	 0.029494
C	-1.7679728597	-2.8519094168	-1.4250643144	 0.130286
O	-1.7568164508	-4.0459925987	-1.3252904139	-0.222511
C	-1.2674575484	-2.4681496579	 1.010545031	 0.265535
N	-0.9464523892	-2.9204704969	 2.0241143398	-0.323202
H	 0.2590688492	 1.5717736534	 1.2740088703	 0.243977
H	 0.7841251646	-0.3395268598	 0.1383302277	 0.127716
H	-2.7894914509	-0.2589443121	 0.7107201925	 0.174356
H	-3.2396254697	-0.5349781798	-1.0591878307	 0.147975
H	-1.8858465292	-2.3189551798	-2.3922593737	 0.105739
81.3854	91.9084	145.6121	172.4664	207.4505	271.4807	335.0251	356.2324	437.1375	551.1433	576.6954	684.1032	743.9552	787.8368	858.2117	922.9476	945.4482	1027.7472	1048.7685	1068.7558	1124.8378	1149.9265	1222.8415	1281.4848	1368.6447	1405.9846	1411.5352	1498.3566	1712.0817	1843.367	2362.5716	2920.6226	3088.2388	3119.1048	3217.8889	3501.6306
N=CN1CC1(C=O)C#N	[NH][CH]N1C[C@]1(C=O)C#N	
InChI=1S/C5H5N3O/c6-1-5(3-9)2-8(5)4-7/h3-4,7H,2H2	InChI=1S/C5H5N3O/c6-1-5(3-9)2-8(5)4-7/h3-4,7H,2H2/t5-,8?/m0/s1
