21
gdb 80673	3.06195	1.18016	1.05649	1.3842	82.83	-0.2256	0.075	0.3006	1239.2527	0.183922	-383.188708	-383.180218	-383.179274	-383.222092	32.846	
C	-0.5996503031	 1.0055651506	 0.773586214	-0.426323
C	 0.0310979265	-0.3691765035	 0.7410603179	 0.03385
C	 0.6205759547	-1.0330687328	-0.4367270702	-0.042654
C	 1.393776493	-0.0631964383	-1.3295563626	-0.304738
C	 2.282553322	 0.2252674109	-0.0873675272	 0.061355
C	 2.5652761391	 1.6199169746	 0.4006963441	 0.009
C	 3.6895495092	 1.832397248	 1.3469892291	-0.240069
N	 3.7973111999	 2.303940605	-0.0430430272	-0.325598
N	 1.4747929023	-0.7073095926	 0.7928991157	-0.17909
H	-0.2797398591	 1.6526166887	-0.0449391462	 0.127483
H	-1.6873027315	 0.8989330383	 0.6978582298	 0.120201
H	-0.3833839533	 1.5156234214	 1.7181088562	 0.13008
H	-0.4817652854	-1.063956158	 1.4051795788	 0.097216
H	 0.3891285258	-2.0594174832	-0.7047811619	 0.092022
H	 1.937354902	-0.547148233	-2.1423976962	 0.110219
H	 0.8213654635	 0.7708079946	-1.7469420328	 0.108108
H	 3.2514281131	-0.2740288957	-0.2119221447	 0.074217
H	 1.7195399604	 2.2958763769	 0.4668008842	 0.0901
H	 3.6296322736	 2.6180935153	 2.0943677148	 0.118746
H	 4.2620356115	 0.9598585953	 1.6516092982	 0.118297
H	 4.3732465757	 1.6562627174	-0.5777155239	 0.227579
55.2129	142.2783	158.48	233.8507	271.2405	294.8964	344.7853	423.6652	460.4061	580.7603	694.5202	745.4604	769.7917	809.7956	859.5128	886.9024	901.1249	933.014	959.5819	978.7614	992.6255	1011.9494	1068.0807	1074.3815	1087.1646	1107.7986	1126.4154	1146.0281	1151.4557	1166.2117	1242.9212	1252.8465	1255.4885	1274.331	1285.3492	1296.3505	1347.3304	1359.3061	1408.31	1441.7036	1446.3032	1491.2762	1496.076	1505.8576	1514.0106	3017.3439	3037.8771	3055.5633	3094.8061	3110.2166	3110.7839	3117.4414	3131.5724	3156.4157	3168.8817	3196.7349	3481.2279
CC1C2CC(C3CN3)N12	C[C@H]1[C@H]2C[C@@H]([C@H]3CN3)N12	
InChI=1S/C7H12N2/c1-4-6-2-7(9(4)6)5-3-8-5/h4-8H,2-3H2,1H3	InChI=1S/C7H12N2/c1-4-6-2-7(9(4)6)5-3-8-5/h4-8H,2-3H2,1H3/t4-,5+,6+,7-,9?/m0/s1
