18
gdb 39870	3.42463	1.67489	1.53521	0.542	75.19	-0.2126	0.0635	0.2761	926.8939	0.149025	-401.854409	-401.847752	-401.846808	-401.885186	27.686	
C	 0.0229603033	 1.5354392514	 0.0630663565	-0.331927
C	 1.3004825374	 0.7178663034	 0.0165466531	-0.342449
C	-0.0389646149	 0.0475632907	 0.0380340419	 0.400773
C	-0.5282254361	-0.957042346	 1.0682479902	-0.018419
O	-1.9671308364	-0.8837490311	 1.2493963866	-0.303889
C	-2.1997780515	-1.59173352	 0.0094209449	 0.089976
C	-2.0112771588	-0.6739254362	-1.2111708781	-0.187573
N	-0.5030153437	-0.7771653461	-1.1122500398	-0.213906
C	-0.6971990713	-1.934720632	-0.1195758088	-0.043471
H	-0.2401206546	 2.0467031839	 0.98305362	 0.122613
H	-0.2669782321	 2.0588723436	-0.8423783171	 0.121205
H	 1.8448438628	 0.6874488256	-0.9206194122	 0.125273
H	 1.9160792142	 0.6701489748	 0.9090603439	 0.11356
H	 0.0025397719	-1.1100827691	 2.0104620409	 0.078747
H	-3.0455173271	-2.2790538326	 0.076618788	 0.081899
H	-2.341792525	-1.1435236254	-2.1436203683	 0.107175
H	-2.4144974765	 0.3397220977	-1.1415597019	 0.114086
H	-0.2155289618	-2.8945952427	-0.2900479998	 0.086325
142.627	218.2926	261.8219	391.9526	410.2495	470.4535	602.6843	706.5098	760.1101	775.7902	826.4755	833.4885	855.5541	863.9382	897.6442	916.7194	951.3189	988.1988	989.7344	995.0123	1012.5244	1025.2243	1048.6837	1073.0405	1096.9292	1166.0011	1179.3693	1183.1636	1187.8431	1200.8449	1250.5688	1252.2027	1267.9824	1303.7666	1325.8381	1385.9791	1454.122	1476.813	1498.6091	3042.9603	3084.8916	3089.0859	3108.6835	3128.9533	3131.4954	3144.0216	3210.5184	3225.7912
C1CC11C2OC3CN1C23	C1CC21[C@H]1O[C@H]3CN2[C@@H]13	
InChI=1S/C7H9NO/c1-2-7(1)6-5-4(9-6)3-8(5)7/h4-6H,1-3H2	InChI=1S/C7H9NO/c1-2-7(1)6-5-4(9-6)3-8(5)7/h4-6H,1-3H2/t4-,5+,6-/m0/s1
