16
gdb 128745	7.11596	0.73186	0.6676	4.6258	81.64	-0.2127	-0.023	0.1897	1619.4652	0.125163	-434.080565	-434.07187	-434.070926	-434.116106	29.809	
C	 0.1913154547	 1.0813098901	 0.574746794	-0.253179
O	-0.1782525659	 0.4442868398	-0.6458341028	-0.188021
C	 0.6290741685	-0.5410106058	-1.0585388541	 0.131249
N	 0.3416961794	-1.1886278878	-2.1083496404	-0.341977
C	 1.187041267	-2.1828319469	-2.5627697743	 0.430456
C	 2.4730283325	-2.6299741985	-2.2726083426	-0.296882
C	 2.6840980269	-3.6980457846	-3.1639713332	-0.001286
N	 1.6321359395	-3.9142495772	-3.9537049603	-0.228256
N	 0.7451128338	-2.9804366555	-3.5711729842	-0.247458
H	 0.1425072139	 0.3827100439	 1.4178820901	 0.135516
H	 1.1986504819	 1.5089896288	 0.5119052811	 0.133938
H	-0.5301411786	 1.8834806025	 0.7302214236	 0.153426
H	 1.5113164744	-0.7138808898	-0.428714439	 0.09882
H	 3.1585668336	-2.2332470345	-1.5418492998	 0.092324
H	 3.5628328187	-4.3183485936	-3.266485003	 0.107882
H	-0.1573545404	-2.9183058707	-4.013316975	 0.27345
18.6353	66.8415	113.311	147.7257	173.2706	320.9305	377.6406	399.0823	520.3086	553.2759	686.2327	713.173	781.1202	795.3364	890.5097	931.9849	980.1146	1036.1946	1057.7315	1078.688	1138.5841	1166.443	1176.2451	1254.9469	1276.6675	1313.4443	1361.3729	1406.0918	1426.8518	1480.6325	1494.4935	1498.8409	1502.4822	1587.1674	1745.5318	3018.5449	3039.0408	3087.6877	3152.5175	3238.794	3266.2064	3665.6911	18.6373	66.8419	113.3111	147.7261	173.271	320.9306	377.6406	399.0823	520.3085	553.2759	686.2327	713.1729	781.1199	795.3364	890.5102	931.9849	980.1144	1036.1948	1057.7316	1078.6882	1138.5841	1166.443	1176.245	1254.9469	1276.6677	1313.4443	1361.3727	1406.0914	1426.8518	1480.6324	1494.4933	1498.8407	1502.4821	1587.1674	1745.532	3018.5449	3039.0408	3087.6878	3152.5176	3238.7941	3266.2064	3665.6911
COC=NC1=CC=NN1	COC=Nc1ccn[nH]1	
InChI=1S/C5H7N3O/c1-9-4-6-5-2-3-7-8-5/h2-4H,1H3,(H,7,8)	InChI=1S/C5H7N3O/c1-9-4-6-5-2-3-7-8-5/h2-4H,1H3,(H,7,8)
