19
gdb 91398	3.03589	1.36112	1.30673	2.1237	74.12	-0.2365	-0.0159	0.2206	1051.6804	0.160559	-423.036011	-423.027939	-423.026995	-423.068711	31.207	
O	 0.3182846082	 1.1968477692	-0.4709079192	-0.434905
C	 0.0201436407	-0.1114416236	 0.0156316456	 0.133891
C	 0.7318600549	-0.3956911501	 1.3698702372	-0.250537
C	-0.2171354993	-0.2717714902	 2.5853798493	-0.136735
C	-1.3096004091	 0.8176270928	 2.3364637394	-0.260825
C	-2.0912654511	-0.2476291928	 1.5019292385	-0.136734
C	-1.5138076854	-0.3667345544	 0.0716261923	-0.25051
C	-1.3561199112	-1.2786683519	 2.3702208373	 0.436067
O	-1.6061771416	-2.3757730801	 2.7783238143	-0.323097
H	-0.0304694777	 1.8451268249	 0.1475704187	 0.278046
H	 0.4532083448	-0.762836694	-0.748017296	 0.095329
H	 1.1642137245	-1.4026474491	 1.3660719892	 0.119081
H	 1.566486732	 0.306839599	 1.4576434886	 0.114955
H	 0.3208994525	-0.2914685783	 3.5346804203	 0.088984
H	-1.8375877084	 1.0803338395	 3.2556315465	 0.118726
H	-1.0083657732	 1.7404871253	 1.8359140424	 0.085246
H	-3.1825883206	-0.2463378522	 1.5092754187	 0.088983
H	-1.992602773	 0.3527565049	-0.5998939951	 0.114963
H	-1.745644107	-1.3651190991	-0.3161703381	 0.119072
102.3634	107.1059	155.2334	204.6848	380.8973	383.6241	414.2472	453.2569	470.6578	580.6991	720.3562	748.1754	788.1631	793.9858	865.0927	887.9669	894.2758	920.3653	966.7004	1009.2993	1049.0884	1061.9239	1077.962	1088.1623	1092.3813	1136.899	1161.6633	1186.0681	1252.9541	1253.4526	1268.0367	1280.465	1325.1851	1327.1578	1354.5286	1368.5491	1437.1942	1480.7921	1487.4894	1505.2552	1892.5932	3038.9925	3039.2536	3068.1604	3072.0448	3084.0425	3087.7987	3099.7965	3101.2909	3119.0012	3832.0712
OC1CC2CC(C1)C2=O	O[C@H]1C[C@H]2C[C@@H](C1)C2=O	
InChI=1S/C7H10O2/c8-6-2-4-1-5(3-6)7(4)9/h4-6,8H,1-3H2	InChI=1S/C7H10O2/c8-6-2-4-1-5(3-6)7(4)9/h4-6,8H,1-3H2/t4-,5+,6+
