21
gdb 38725	2.50106	2.02318	1.55265	1.6108	80.51	-0.2281	0.0782	0.3063	956.4219	0.186616	-387.074021	-387.067158	-387.066214	-387.104705	29.707	
C	-0.0178837368	 1.5129127629	 0.1272943896	-0.413236
C	 1.3350239621	 0.8340572479	 0.0106424851	 0.093
O	 2.1297559935	 0.34421509	 1.0691123555	-0.280849
C	 1.6298515224	-0.9994201192	 1.2796236883	 0.112207
C	 0.1196101438	-0.7777419806	 1.2447649954	-0.264534
C	 0.0801069083	 0.0162277178	-0.0742389376	 0.295131
C	-0.0084391778	-0.9182927129	-1.2612846112	-0.305823
C	 1.3423829787	-1.7051301861	-1.257415344	-0.192328
C	 1.9673529038	-2.0017666004	 0.1467239459	-0.214
H	-0.3895383692	 1.8535312801	 1.0884942911	 0.116026
H	-0.2768498247	 2.159421736	-0.7074964237	 0.110199
H	 1.902172323	 1.0592145724	-0.8884549474	 0.088243
H	 2.047871945	-1.3408530019	 2.2308829289	 0.071233
H	-0.4649648741	-1.6999062037	 1.1934591093	 0.094463
H	-0.2174761494	-0.1933774847	 2.1041849486	 0.097785
H	-0.8709727685	-1.5902030463	-1.1759001136	 0.094608
H	-0.1146093881	-0.3859598906	-2.212663862	 0.095773
H	 1.2403273177	-2.6471174804	-1.8073342201	 0.090651
H	 2.0635879797	-1.1068309368	-1.8227990434	 0.108726
H	 3.0535670364	-2.0888762121	 0.0376803789	 0.103273
H	 1.6157015141	-2.9775561715	 0.5062609563	 0.099452
195.9083	242.0124	336.7509	350.9413	395.9322	458.9621	464.7957	580.78	635.0968	727.1028	762.3639	769.1177	821.9323	852.5317	879.6991	892.4384	927.4742	931.9144	957.6447	981.8075	1016.0763	1036.4898	1044.3899	1055.7407	1076.136	1102.6335	1116.006	1135.8127	1177.3948	1217.7939	1243.0802	1272.0504	1295.0505	1308.8827	1328.686	1340.4964	1352.8431	1369.955	1372.2958	1417.8871	1473.5358	1478.4155	1489.6907	1499.0856	1509.2798	3024.1649	3026.7964	3042.5868	3059.1398	3063.7282	3071.0781	3079.9559	3087.8806	3110.7503	3113.5876	3137.2961	3202.857
C1C2OC3CC12CCC3	C1[C@H]2O[C@H]3C[C@@]12CCC3	
InChI=1S/C8H12O/c1-2-6-4-8(3-1)5-7(8)9-6/h6-7H,1-5H2	InChI=1S/C8H12O/c1-2-6-4-8(3-1)5-7(8)9-6/h6-7H,1-5H2/t6-,7-,8+/m1/s1
