16
gdb 8490	3.02862	1.94635	1.5006	1.0458	61.	-0.2254	0.0683	0.2938	867.5098	0.128308	-420.829366	-420.821111	-420.820167	-420.861621	31.045	
O	-0.0864288422	 1.4358255203	-0.1301091058	-0.438407
C	 0.0023100459	 0.034325259	 0.0195883215	 0.046625
C	 0.2842634445	-0.5597436441	 1.4528846843	-0.311913
C	-1.0558902256	-1.2760095625	 1.3811730421	 0.370469
O	-1.1827352648	-2.5505461584	 1.8964878902	-0.460252
C	-2.1665239167	-0.2703966495	 1.2207378157	-0.416647
C	-1.3413863362	-0.6735083809	 0.005558969	 0.307664
O	-1.9087143657	-1.2706330371	-1.1053608491	-0.467404
H	 0.80220893	 1.8026170639	-0.0847625432	 0.28496
H	 0.6775655533	-0.4075795102	-0.7248604073	 0.078544
H	 1.1310542048	-1.2494188485	 1.4617879498	 0.1102
H	 0.3924884941	 0.177490364	 2.2540985089	 0.098205
H	-2.0207059847	-2.9204159585	 1.5978540436	 0.289163
H	-3.1597678335	-0.7128679332	 1.2032635212	 0.102222
H	-2.1187941911	 0.73042124	 1.6434835651	 0.117375
H	-2.4529630121	-0.6154120044	-1.5572082461	 0.289197
100.8251	134.4592	219.5688	252.9614	286.9866	313.3653	347.3883	405.282	448.6583	473.4776	580.7601	627.4101	696.7553	774.8292	826.4327	863.889	940.6404	979.6307	999.9738	1044.0461	1104.773	1120.8627	1146.8455	1158.9145	1216.5346	1223.886	1272.7276	1289.932	1331.1566	1400.7606	1411.6878	1437.6839	1470.9317	1527.932	3017.6507	3054.1439	3099.4768	3118.8409	3188.6877	3783.1102	3811.1429	3815.6155
OC1CC2(O)CC12O	O[C@H]1C[C@@]2(O)C[C@@]12O	
InChI=1S/C5H8O3/c6-3-1-4(7)2-5(3,4)8/h3,6-8H,1-2H2	InChI=1S/C5H8O3/c6-3-1-4(7)2-5(3,4)8/h3,6-8H,1-2H2/t3-,4+,5+/m0/s1
