18
gdb 7252	4.29111	1.19652	1.03196	4.5225	70.63	-0.2497	-0.0201	0.2296	1168.9011	0.15316	-381.163674	-381.154578	-381.153634	-381.197711	32.313	
C	-0.0342911439	 1.7030548952	 0.1105703517	-0.379261
C	-0.1028858607	 0.1768779294	 0.0320751028	-0.054642
C	 0.6510353667	-0.4789477774	 1.2079073679	-0.38482
C	-1.5418032692	-0.31843512	-0.0062642731	 0.3811
N	-2.5125162393	 0.3979341181	 0.3793851418	-0.500456
N	-1.6441256085	-1.6509862487	-0.4868740177	-0.337075
C	-2.7830621664	-2.4066098498	-0.6021377888	 0.16596
O	-3.9025032083	-2.0555488085	-0.3036594687	-0.299221
H	 1.0094117877	 2.0322745248	 0.1215017519	 0.103167
H	-0.538180072	 2.1657386943	-0.7413903877	 0.123621
H	-0.5280424065	 2.0627828301	 1.0159467382	 0.142736
H	 0.3805569616	-0.1473264846	-0.902149016	 0.076337
H	 0.6222984922	-1.5727504521	 1.1637394098	 0.104742
H	 1.7009708261	-0.1715547046	 1.2061714209	 0.121967
H	 0.2060158668	-0.1720503242	 2.1595089566	 0.138201
H	-3.3941494579	-0.1103604155	 0.3070836469	 0.251736
H	-0.7883762659	-2.0938299575	-0.786875151	 0.254363
H	-2.5610787225	-3.4104982291	-1.0141425955	 0.091543
56.9779	76.6119	187.374	209.4874	229.083	251.1842	270.1966	325.8928	333.4885	430.8409	551.6863	594.938	691.7809	733.7569	889.9714	924.959	935.0293	970.8795	972.6078	1014.57	1025.6182	1120.6981	1135.0607	1185.5956	1202.3783	1303.961	1331.1222	1391.0724	1403.2708	1420.9778	1440.895	1482.5403	1485.511	1498.2818	1502.6417	1512.0992	1736.7008	1813.7873	2942.1486	2987.804	3034.6149	3047.8247	3101.6257	3114.6908	3119.6778	3135.1948	3488.7447	3613.4546
CC(C)C(=N)NC=O	CC(C)C(=N)NC=O	
InChI=1S/C5H10N2O/c1-4(2)5(6)7-3-8/h3-4H,1-2H3,(H2,6,7,8)	InChI=1S/C5H10N2O/c1-4(2)5(6)7-3-8/h3-4H,1-2H3,(H2,6,7,8)
