16
gdb 34503	4.32816	1.34037	1.17486	1.5664	83.32	-0.2128	-0.0328	0.18	1040.5718	0.125615	-363.541123	-363.534239	-363.533294	-363.572254	27.967	
C	 0.096835296	-1.1900947212	-0.0122833064	-0.418596
C	-0.0027148798	 0.0115345651	-0.011042818	 0.205381
C	-0.0562417085	 1.419790701	-0.0345295102	 0.210352
C	-1.1206581184	 2.2308412376	 0.0961699637	-0.200936
C	-0.6530724921	 3.6363194221	 0.0682466261	-0.067365
C	 0.5219645383	 4.0496505661	 0.9235087786	-0.040468
C	 1.3766343851	 2.888980974	 1.3991976273	-0.245056
C	 1.1806227843	 2.3058154281	-0.0376394277	-0.131334
N	 0.7058298607	 3.6810110267	-0.5248459646	-0.136132
H	 0.1670996876	-2.2494942285	-0.009977115	 0.193439
H	-2.1514272562	 1.930080866	 0.2231884666	 0.115316
H	-1.3213875108	 4.43090768	-0.2486046688	 0.097776
H	 0.6096137638	 5.0761156834	 1.2678636911	 0.097846
H	 2.4066096595	 3.219866275	 1.5469555318	 0.11978
H	 1.0534162892	 2.2882420595	 2.253843066	 0.108805
H	 2.0517999313	 1.9160646852	-0.5600088804	 0.09119
118.5451	153.6353	339.8335	358.6563	487.8212	492.9347	545.1497	579.0506	622.7143	643.0455	743.8698	748.8915	780.6253	804.5029	834.9632	880.9792	908.5395	937.5499	979.6048	1005.0495	1031.6276	1062.2444	1095.3606	1141.6497	1160.5284	1177.7159	1225.1752	1257.7421	1265.5057	1313.9095	1345.2111	1370.3773	1487.2084	1652.0611	2218.9585	3058.757	3119.0877	3136.7866	3151.3358	3165.796	3232.7837	3502.9377
C#CC1=CC2C3CC1N23	C#CC1=C[C@H]2[C@H]3C[C@@H]1N23	
InChI=1S/C8H7N/c1-2-5-3-7-8-4-6(5)9(7)8/h1,3,6-8H,4H2	InChI=1S/C8H7N/c1-2-5-3-7-8-4-6(5)9(7)8/h1,3,6-8H,4H2/t6-,7-,8+,9?/m0/s1
