17
gdb 50430	3.28641	1.29276	1.03506	2.6416	73.9	-0.2513	-0.0289	0.2224	1134.573	0.136199	-421.825843	-421.818074	-421.81713	-421.85884	29.155	
O	-0.222051079	 0.0736718754	 0.123898703	-0.24434
C	-0.0443430712	 1.2619651691	 0.0631143844	 0.149531
C	 1.3159615563	 1.9363180887	 0.021367707	-0.106225
C	 1.4505459911	 2.7615904064	-1.2846207986	-0.288763
C	 2.6219004628	 3.706870242	-1.2570889471	-0.092594
C	 3.0458891525	 4.278102166	-0.1288192099	-0.035241
C	 2.385249681	 3.9838186185	 1.1641249643	-0.006684
O	 0.9421261856	 4.1142485618	 1.2212460101	-0.253682
C	 1.5019730171	 2.8062533149	 1.2554696751	 0.02395
H	-0.9005372751	 1.9752458231	 0.032581484	 0.089135
H	 2.0737675283	 1.1450009707	 0.0511491659	 0.101781
H	 1.5288464745	 2.0770707583	-2.1350537193	 0.120286
H	 0.5269852027	 3.3367933486	-1.4338299509	 0.135556
H	 3.1085609022	 3.9299465383	-2.202009013	 0.104248
H	 3.8872050649	 4.9633004727	-0.1238786737	 0.097216
H	 2.8810614607	 4.3292284535	 2.0684325791	 0.100372
H	 1.4089983655	 2.292427052	 2.2130282698	 0.105455
54.2632	93.0325	211.6327	283.5735	299.6637	368.7859	450.8888	509.8415	520.9135	674.0629	712.152	743.7086	827.6352	844.4837	900.8449	935.9659	955.7744	983.6112	1013.9913	1029.1078	1056.2967	1097.2235	1136.5173	1138.3706	1194.1991	1217.4826	1260.7425	1282.4925	1336.7266	1342.0263	1378.1536	1415.7285	1422.3873	1450.7255	1475.332	1708.2943	1834.0105	2868.0818	3021.9794	3053.5942	3077.8894	3104.441	3139.367	3166.9456	3191.3504
O=CC1CC=CC2OC12	O=C[C@H]1CC=C[C@H]2O[C@@H]12	
InChI=1S/C7H8O2/c8-4-5-2-1-3-6-7(5)9-6/h1,3-7H,2H2	InChI=1S/C7H8O2/c8-4-5-2-1-3-6-7(5)9-6/h1,3-7H,2H2/t5-,6-,7+/m1/s1
