22
gdb 22243	3.0709	0.71866	0.67935	1.6643	82.8	-0.2448	0.0099	0.2548	1785.9065	0.190383	-441.451698	-441.440203	-441.439259	-441.489146	40.601	
C	 0.16296888	 1.5686394511	 0.0987363955	-0.384435
C	 0.048165147	 0.0455373943	 0.0003104115	-0.160034
C	 0.7937510008	-0.5331689658	-1.2080120879	-0.205134
C	 0.645003488	-2.0569534468	-1.3366848978	 0.024325
O	-0.7217162393	-2.453105608	-1.4482439127	-0.429721
C	 1.4681833487	-2.6215578369	-2.4790590081	 0.371431
C	 1.0850629559	-2.3483606361	-3.9078073898	-0.475495
N	 2.4741403192	-3.3292038601	-2.1343173246	-0.174107
O	 3.1872470476	-3.7964759993	-3.2512835091	-0.400859
H	 1.2085065846	 1.8846535801	 0.1866071829	 0.114566
H	-0.2542721777	 2.057285537	-0.7891933349	 0.110946
H	-0.3747971356	 1.9519889809	 0.9714285164	 0.114153
H	 0.4432860712	-0.4146358543	 0.9151850478	 0.099903
H	-1.0049259108	-0.2504563687	-0.0549411414	 0.105658
H	 0.4318765996	-0.0526375336	-2.1299803295	 0.084417
H	 1.8626100601	-0.294725114	-1.1402017309	 0.109045
H	 1.007487529	-2.5300862687	-0.4192651219	 0.104906
H	-1.12970262	-1.9319023546	-2.1482648581	 0.280518
H	 0.1939899569	-1.7212934834	-3.9818598283	 0.100831
H	 1.9061304002	-1.8544601048	-4.4368780958	 0.149457
H	 0.8954250138	-3.2884717011	-4.434852474	 0.1534
H	 3.8873193908	-4.3149336872	-2.8409464194	 0.306229
51.5746	75.2429	86.9143	102.5982	120.4339	212.2646	249.1489	257.8803	275.0819	292.598	327.6907	360.2601	387.0472	452.5431	548.8418	585.6605	680.8277	748.8806	817.3355	859.853	902.7717	944.3261	997.5916	1027.5718	1034.0963	1048.0947	1083.2611	1104.4586	1126.1372	1238.178	1259.8007	1284.2259	1299.7321	1335.2909	1347.7559	1389.5387	1397.0814	1404.5837	1412.378	1414.5428	1468.7103	1478.3623	1489.7186	1494.4809	1500.269	1511.462	1728.5274	2995.0648	3026.8013	3029.7347	3045.2977	3048.3484	3070.274	3079.4839	3096.9302	3102.4374	3105.2293	3126.9482	3805.3164	3820.8124
CCCC(O)C(C)=NO	CCC[C@@H](O)C(=NO)C	
InChI=1S/C6H13NO2/c1-3-4-6(8)5(2)7-9/h6,8-9H,3-4H2,1-2H3	InChI=1S/C6H13NO2/c1-3-4-6(8)5(2)7-9/h6,8-9H,3-4H2,1-2H3/t6-/m1/s1
