20
gdb 84231	3.05819	1.50468	1.33749	0.8578	86.51	-0.206	-0.033	0.173	1068.3546	0.170341	-365.900986	-365.892796	-365.891852	-365.933147	32.586	
C	 0.0744694603	 1.5837173959	-0.0173097446	-0.401525
C	-0.0027172531	 0.053351195	-0.0475680936	-0.027257
C	 0.8543336767	-0.5184437368	-1.1764488741	-0.121816
C	 1.5603029671	-1.5733902258	-0.7139226889	-0.03866
C	 2.9187444724	-1.2272669312	-0.1065399899	-0.173808
N	 2.1602698511	-1.1270671221	 1.2251474717	-0.193684
C	 0.6630378787	-0.6816508285	 1.1378377305	-0.073213
C	 1.0858390386	-2.0095014239	 0.684432317	 0.30958
C	 0.7758149502	-3.3801097043	 1.1962867916	-0.512852
H	 1.1140963806	 1.9268339106	-0.014315119	 0.122743
H	-0.4260550213	 2.0195993701	-0.8876875771	 0.119593
H	-0.4108486572	 1.9753160727	 0.882544441	 0.118355
H	-1.0642466921	-0.2389444982	-0.0450809368	 0.086815
H	 1.2864212059	 0.1712481852	-1.898797534	 0.090546
H	 3.6460667808	-2.0343226982	 0.0259590014	 0.114615
H	 3.4137729518	-0.3190770002	-0.4614294483	 0.108213
H	 0.3134179048	-0.5087077742	 2.1532602243	 0.09306
H	-0.1823419959	-3.7365969744	 0.802677439	 0.125592
H	 1.54677927	-4.098488879	 0.897041042	 0.125062
H	 0.7194646103	-3.3742103627	 2.2889084277	 0.128642
121.5491	194.1834	210.0663	228.5581	238.4882	316.9995	387.5078	474.4938	528.9264	552.5647	588.6372	659.9292	725.2433	780.8131	810.8988	867.2492	870.3876	897.4903	930.0152	975.6828	1013.6709	1023.6096	1050.0576	1059.6275	1106.9347	1111.7274	1117.1763	1124.2413	1216.2619	1233.2815	1253.4818	1278.6911	1297.9342	1332.9469	1401.4258	1406.4528	1442.149	1482.5228	1492.2505	1493.4742	1496.9057	1509.2444	1577.9649	2977.4855	3030.6533	3033.073	3041.3223	3093.8142	3103.1952	3104.3372	3106.8467	3110.5458	3141.3636	3146.8368
CC1C=C2CN3C1C23C	C[C@H]1[CH][C]2CN3[C@@H]1[C@@]23C	
InChI=1S/C8H11N/c1-5-3-6-4-9-7(5)8(6,9)2/h3,5,7H,4H2,1-2H3	InChI=1S/C8H11N/c1-5-3-6-4-9-7(5)8(6,9)2/h3,5,7H,4H2,1-2H3/t5-,7-,8+,9?/m0/s1
