18
gdb 120131	3.41578	0.91426	0.84623	2.006	73.6	-0.2619	0.0138	0.2756	1397.701	0.147227	-439.045075	-439.036418	-439.035474	-439.079364	31.92	
O	 0.0745789923	 1.3438430578	 0.0228257536	-0.415662
C	-0.0790963737	-0.0482270285	 0.2368383388	-0.052854
C	-1.4114417309	-0.5836911396	-0.2998077565	-0.242378
C	-1.5192135533	-2.0866045811	-0.160068547	-0.047058
C	-1.9479562331	-2.7949056629	 1.078115327	 0.072958
O	-2.9438290566	-2.0121868833	 1.7899553343	-0.274858
C	-3.8251537001	-2.1604418259	 0.7129839139	 0.450612
N	-5.0283927235	-1.8316754051	 0.6043900395	-0.553311
C	-2.8372605933	-2.8804212484	-0.1443871807	-0.238674
H	-0.6071172165	 1.7968658244	 0.5294989439	 0.283718
H	 0.7569665032	-0.5215931096	-0.2906558802	 0.108731
H	 0.0222809219	-0.3081160435	 1.3024124827	 0.095559
H	-2.2351047946	-0.1012833355	 0.2373276202	 0.111274
H	-1.5075500938	-0.3024078793	-1.3542622786	 0.11647
H	-0.7550390913	-2.6445466779	-0.7012580863	 0.105835
H	-1.420959951	-3.5501142825	 1.6451506249	 0.124202
H	-5.3674504665	-1.3787576212	 1.454769256	 0.231183
H	-3.0507836091	-3.6887412478	-0.8277622055	 0.124252
57.5894	89.0128	98.9406	192.9539	260.1032	308.7831	380.9567	408.2421	440.3121	602.3695	682.8776	738.2297	778.6916	795.0985	828.0915	867.4508	900.7383	936.3804	957.3305	990.9848	1026.6004	1039.4412	1061.1983	1066.4317	1077.6953	1106.8723	1143.3004	1196.198	1222.2369	1280.801	1307.0512	1317.8008	1335.8247	1395.4831	1424.9141	1444.5667	1480.953	1511.9578	1831.3007	2981.8632	3045.0631	3059.8535	3090.7356	3121.5228	3212.9815	3233.9951	3479.2999	3814.1771
OCCC1C2OC(=N)C12	OCC[C@H]1[C@H]2O[C]([NH])[C@@H]12	
InChI=1S/C6H9NO2/c7-6-4-3(1-2-8)5(4)9-6/h3-5,7-8H,1-2H2	InChI=1S/C6H9NO2/c7-6-4-3(1-2-8)5(4)9-6/h3-5,7-8H,1-2H2/t3-,4+,5-/m1/s1
