22
gdb 91917	2.41723	1.44601	1.01769	2.1447	81.23	-0.243	0.0682	0.3113	1234.4973	0.196524	-404.345123	-404.336511	-404.335567	-404.378004	34.38	
C	 0.0096510244	 1.5863291456	-0.0201951492	-0.402432
C	-0.0027685764	 0.0553882388	 0.0040278232	 0.025957
C	 0.7029121445	-0.5298090193	-1.2357493558	-0.198449
C	 0.9514812744	-2.0285827807	-1.1388806108	-0.047142
N	 2.1271773112	-2.4581557353	-0.3505522349	-0.34811
C	 0.7693879511	-2.7598118119	 0.1438839269	-0.051168
C	 0.4019694012	-2.0220836454	 1.4162368261	 0.12999
O	 1.1061080616	-2.5693049766	 2.5247493075	-0.445762
C	 0.6235163358	-0.5085521082	 1.2883173676	-0.224353
H	 1.0348792037	 1.9700009078	 0.0399167695	 0.114853
H	-0.4366887615	 1.974497074	-0.9423426187	 0.108321
H	-0.5508618452	 2.000758637	 0.8242001886	 0.111224
H	-1.052195538	-0.275468225	-0.0252365812	 0.068514
H	 0.1026832938	-0.3203029993	-2.1285726158	 0.093162
H	 1.6665167356	-0.0248074319	-1.3793367568	 0.105994
H	 0.7545448272	-2.5951283557	-2.0464994393	 0.083586
H	 2.5416444591	-3.2881485412	-0.7651055394	 0.231087
H	 0.4391151219	-3.7956655404	 0.1051298464	 0.083008
H	-0.6577661387	-2.2099486595	 1.6304912994	 0.082943
H	 2.0408466851	-2.527273457	 2.2875119539	 0.282361
H	 1.7024566885	-0.3080053966	 1.2881723184	 0.100995
H	 0.2048226606	-0.0196912093	 2.1743843145	 0.095422
95.5032	152.8344	219.2977	245.2659	265.4564	359.6135	385.9078	409.658	428.5385	441.9776	455.3465	621.9039	640.0838	776.1879	823.4054	863.6102	870.8321	906.4607	940.0008	945.2155	957.6862	1008.3424	1039.6633	1070.2328	1083.7247	1115.3604	1136.3224	1163.9747	1170.7869	1189.2716	1222.6613	1266.1585	1274.0638	1288.8931	1322.7775	1329.7643	1376.3003	1377.3583	1390.6487	1396.7357	1410.525	1436.5023	1453.7395	1476.0726	1489.0234	1498.0948	1500.8553	2985.6524	3022.345	3024.8582	3029.754	3035.1141	3064.7457	3078.7731	3091.257	3097.4094	3121.4191	3133.6586	3505.8966	3780.6667
CC1CC2NC2C(O)C1	C[C@H]1C[C@H]2N[C@H]2[C@@H](O)C1	
InChI=1S/C7H13NO/c1-4-2-5-7(8-5)6(9)3-4/h4-9H,2-3H2,1H3	InChI=1S/C7H13NO/c1-4-2-5-7(8-5)6(9)3-4/h4-9H,2-3H2,1H3/t4-,5+,6-,7+/m0/s1
