19
gdb 122038	2.75592	0.83465	0.66572	3.3756	80.45	-0.2495	-0.0276	0.2219	1685.1588	0.15465	-422.991034	-422.980307	-422.979363	-423.028164	36.704	
C	 0.0873579203	 1.5229767594	-0.0093460469	-0.385716
C	 0.0031508659	 0.0068269097	-0.0119966775	-0.033566
O	 0.6569677551	-0.4779165985	-1.1720412635	-0.243031
C	 0.6419532963	-1.8784415527	-1.2818532778	-0.069543
C	 1.406302639	-2.2410656717	-2.5653542094	-0.25395
C	 2.8427394554	-1.6994593525	-2.4765044897	 0.183335
O	 3.3552476395	-1.0020581564	-3.3048478826	-0.235767
C	 1.4621667142	-3.6857441893	-2.749616397	 0.287008
C	 1.545870751	-4.8788067131	-2.8700320401	-0.445064
H	 1.1310517263	 1.8490823663	-0.0040716085	 0.132438
H	-0.3960650775	 1.9354763908	-0.8991572215	 0.131384
H	-0.409221925	 1.9288079386	 0.8768666391	 0.117905
H	 0.4781807472	-0.4124926175	 0.8904534071	 0.090992
H	-1.0480484725	-0.3258894648	-0.0080364743	 0.091625
H	 1.1299280361	-2.3526560587	-0.4135075547	 0.100651
H	-0.3845642639	-2.272352063	-1.3363039712	 0.108253
H	 0.9296691576	-1.7544469353	-3.4226309385	 0.133594
H	 3.3847784305	-2.0339584746	-1.5634762507	 0.084444
H	 1.6075583746	-5.9316100466	-2.9963454624	 0.205008
49.5946	70.9896	78.898	97.7214	144.5943	173.492	217.4698	248.0924	284.6413	382.9643	411.4872	482.7752	492.9697	581.1051	646.741	647.3224	821.3738	871.2754	898.3397	953.0311	1030.9575	1049.6285	1080.332	1116.2442	1152.3008	1164.8769	1188.0364	1234.0874	1277.2599	1297.6046	1304.8954	1380.1515	1405.3775	1416.3121	1444.2665	1483.6087	1499.3258	1513.2734	1535.8233	1850.1942	2234.8755	2880.8731	2958.0104	2969.0404	2988.4513	3005.175	3047.6143	3068.6913	3122.7664	3125.5841	3502.8775
CCOCC(C=O)C#C	CCOC[C@@H](C=O)C#C	
InChI=1S/C7H10O2/c1-3-7(5-8)6-9-4-2/h1,5,7H,4,6H2,2H3	InChI=1S/C7H10O2/c1-3-7(5-8)6-9-4-2/h1,5,7H,4,6H2,2H3/t7-/m1/s1
