20
gdb 118359	2.92861	0.93847	0.77567	2.7197	76.49	-0.2496	-0.036	0.2136	1511.1087	0.168637	-440.244205	-440.234012	-440.233067	-440.28086	35.015	
C	-0.0634094874	 1.4227234883	-0.0808815526	-0.231586
O	 0.043976362	 0.0191968293	-0.0061858183	-0.238601
C	 0.68541782	-0.5507723858	-1.1249909813	-0.079619
C	 0.6694512975	-2.0659417026	-0.93853126	-0.110461
C	-0.7718909801	-2.5564213931	-0.8311389108	 0.143297
O	-1.0893039272	-3.638302498	-0.4064213034	-0.252859
C	 1.4376763795	-2.767920077	-2.0569628978	-0.000883
C	 1.3119581501	-4.2189113518	-2.3219720634	-0.253672
N	 0.7939281194	-3.2397682938	-3.2980706185	-0.325042
H	 0.9259374733	 1.9029292536	-0.131145114	 0.109607
H	-0.6451224278	 1.7405303557	-0.9600173938	 0.108759
H	-0.5749323979	 1.7591673136	 0.8236629369	 0.133782
H	 0.1605750259	-0.2754966965	-2.0572430145	 0.095595
H	 1.7200814697	-0.1831393322	-1.2173530191	 0.097545
H	 1.1566405927	-2.3035041126	 0.0156577805	 0.121257
H	-1.5414542473	-1.8407560591	-1.1968108473	 0.090826
H	 2.40726333	-2.3080277417	-2.243275089	 0.096058
H	 2.1800109104	-4.7794106594	-2.6570076019	 0.119123
H	 0.6003750318	-4.7772798667	-1.7219775678	 0.14505
H	-0.2195881846	-3.1900211302	-3.217785454	 0.231822
45.8325	58.7524	87.9073	108.7297	149.0285	211.2724	227.6481	267.638	333.9913	362.7196	417.2975	521.6512	622.2811	776.3412	835.1735	879.7063	927.1679	954.0516	980.5995	994.0258	1054.6831	1094.861	1115.1271	1135.9005	1156.7729	1164.3169	1184.6477	1198.1203	1226.3933	1243.8321	1257.9152	1283.426	1303.4426	1331.3347	1402.0103	1415.8382	1442.9842	1481.0453	1485.9735	1502.7945	1513.7011	1527.8973	1823.2149	2884.0799	2949.5863	2977.1383	2989.1831	3023.5715	3040.466	3111.0341	3119.3911	3120.7868	3211.4366	3488.2155
COCC(C=O)C1CN1	COC[C@@H](C=O)[C@H]1CN1	
InChI=1S/C6H11NO2/c1-9-4-5(3-8)6-2-7-6/h3,5-7H,2,4H2,1H3	InChI=1S/C6H11NO2/c1-9-4-5(3-8)6-2-7-6/h3,5-7H,2,4H2,1H3/t5-,6-/m1/s1
