15
gdb 13180	3.71476	1.46124	1.12503	2.6627	61.06	-0.2635	0.0018	0.2653	1007.5591	0.118499	-399.775519	-399.767523	-399.766578	-399.808684	27.804	
O	-0.2633446957	 1.3135629307	 0.047385128	-0.411129
C	 0.0224502657	-0.0709505262	 0.000669569	-0.023888
C	 0.6950364517	-0.4421523505	-1.2627719922	 0.251988
N	 1.2570396236	-0.7140024409	-2.2352204601	-0.312108
C	 0.8426075314	-0.545908076	 1.2038388164	-0.051713
C	 0.0688996244	-0.4878996885	 2.536855403	-0.09384
O	-0.0612355818	-1.9245826358	 2.5666254838	-0.268539
C	 0.8316346717	-2.0717540027	 1.4441316285	-0.087364
H	 0.565233244	 1.7996879635	-0.0386493165	 0.296584
H	-0.9540682026	-0.5689658429	 0.0204118268	 0.150106
H	 1.8267467062	-0.070707911	 1.1932133683	 0.091496
H	 0.6523672795	-0.1107085675	 3.3860187418	 0.105969
H	-0.9000723351	 0.0225206057	 2.5116649982	 0.122231
H	 0.4029114089	-2.6917258598	 0.6475592477	 0.117963
H	 1.8011050282	-2.4921797479	 1.7380818373	 0.112243
73.1796	79.1626	134.7239	219.8189	258.6192	313.9383	358.2561	446.2781	526.2432	603.7929	824.8446	847.9771	880.2172	933.7096	968.7953	1031.7054	1043.0441	1078.4022	1089.4872	1145.2853	1158.7382	1171.6185	1241.1613	1269.845	1302.845	1309.8582	1372.1483	1388.9589	1421.9181	1514.8001	1539.6043	2354.4111	3015.1398	3024.2097	3054.3864	3061.7974	3071.3985	3085.9178	3798.6015
OC(C#N)C1COC1	O[C@@H](C#N)C1COC1	
InChI=1S/C5H7NO2/c6-1-5(7)4-2-8-3-4/h4-5,7H,2-3H2	InChI=1S/C5H7NO2/c6-1-5(7)4-2-8-3-4/h4-5,7H,2-3H2/t5-/m0/s1
