19
gdb 80180	2.40545	1.61517	1.3617	3.7419	75.4	-0.2185	0.0617	0.2802	1049.1363	0.160223	-419.242645	-419.233765	-419.232821	-419.276304	32.732	
C	-0.0852273613	 1.5768083294	 0.0209275152	-0.431637
C	 0.0224287111	 0.0710042443	 0.0571941192	-0.052088
C	 1.320045738	-0.6852363003	-0.2073069707	-0.042339
N	 2.5800740387	-0.027375598	-0.0287992172	-0.353974
C	 2.7213948445	 0.4825595063	 1.2613342107	 0.426734
O	 3.5983950287	 1.2227137511	 1.6551323311	-0.424967
N	 1.6589721655	-0.0122461404	 1.9993101421	-0.08152
C	 1.4198454662	 0.3805227543	 3.3661369959	-0.344248
C	 0.7120367978	-0.6990681687	 1.1761588076	-0.03825
H	 0.7926063769	 2.0643028113	 0.4515158336	 0.143665
H	-0.1898915638	 1.9346534928	-1.0091033185	 0.121043
H	-0.9613140809	 1.9182473882	 0.5821597864	 0.122514
H	-0.8441668565	-0.4561578907	-0.3359431951	 0.090016
H	 1.3189228452	-1.5600007699	-0.8481965501	 0.105278
H	 3.0458336586	 0.4667371677	-0.7721210738	 0.254531
H	 2.3004926006	 0.9292128772	 3.7050965902	 0.164805
H	 0.5391339269	 1.0295721667	 3.457808224	 0.120034
H	 1.2712598095	-0.4952848835	 4.0093887187	 0.11995
H	 0.2503353644	-1.5820058778	 1.6067786105	 0.100454
83.2074	123.7137	125.9357	160.5569	213.6952	272.8688	294.8934	421.4049	457.0747	527.2485	611.2351	659.1983	717.327	758.1591	767.9277	793.5961	831.8845	902.2506	1000.806	1015.3224	1048.329	1086.06	1114.0476	1125.3037	1146.0748	1160.9774	1201.6924	1219.8035	1275.6633	1330.8285	1369.9222	1380.9291	1414.4364	1424.04	1433.7782	1461.0743	1491.2038	1494.2224	1500.5256	1523.9507	1826.4576	3009.1221	3036.6028	3057.6687	3092.9903	3118.9669	3136.0936	3140.5324	3151.3777	3165.618	3653.0999
CC1C2NC(=O)N(C)C12	C[C@H]1[C@H]2NC(=O)N(C)[C@@H]12	
InChI=1S/C6H10N2O/c1-3-4-5(3)8(2)6(9)7-4/h3-5H,1-2H3,(H,7,9)	InChI=1S/C6H10N2O/c1-3-4-5(3)8(2)6(9)7-4/h3-5H,1-2H3,(H,7,9)/t3-,4+,5-/m0/s1
