16
gdb 45076	2.43825	1.74661	1.16154	3.8265	74.	-0.2416	0.0183	0.2599	1040.5295	0.124821	-400.739655	-400.731884	-400.730939	-400.772064	30.159	
O	-0.0707590158	 0.0055705985	 0.2336495613	-0.35734
C	-0.0409229921	 1.2010522225	 0.0815826046	 0.391579
N	-1.1196806541	 2.0250832327	-0.1238471093	-0.308217
C	-0.8221832493	 3.4266284777	-0.0728671213	-0.011208
C	-0.2388012844	 3.956517094	 1.2157503971	-0.301102
C	 0.6726337578	 3.5344752257	 0.0852428308	-0.042732
C	 1.2312449954	 2.111984845	 0.0834268358	-0.327218
C	 2.1340276805	 1.7943807061	 1.1784898554	 0.358443
C	 2.8765626723	 1.5512439076	 2.0908432699	-0.460649
H	-2.0469418616	 1.6571651292	 0.0261091768	 0.256201
H	-1.3827320032	 4.0641795262	-0.7465585355	 0.108551
H	-0.3140217852	 5.0214372513	 1.4071121734	 0.121271
H	-0.3004178865	 3.3272697671	 2.0976190038	 0.132502
H	 1.2285885016	 4.2988231433	-0.4418662315	 0.106868
H	 1.7447738298	 1.9241895679	-0.8690246805	 0.134535
H	 3.5334032448	 1.3225280054	 2.8931438294	 0.198515
76.8362	133.8493	164.6816	312.9218	390.458	434.5293	472.4311	497.066	543.6118	624.6798	632.6759	641.427	698.0964	714.3462	788.0426	830.075	857.648	949.0811	959.3165	1030.6991	1044.1182	1062.8542	1090.6566	1093.1635	1137.3535	1204.8859	1233.5243	1251.1213	1310.213	1358.5083	1386.5739	1418.5934	1481.4996	1843.2916	2243.0289	3022.6757	3132.1523	3174.8443	3193.4343	3224.0245	3505.3365	3625.7176
O=C1NC2CC2C1C#C	O=C1N[C@H]2C[C@H]2[C@H]1C#C	
InChI=1S/C7H7NO/c1-2-4-5-3-6(5)8-7(4)9/h1,4-6H,3H2,(H,8,9)	InChI=1S/C7H7NO/c1-2-4-5-3-6(5)8-7(4)9/h1,4-6H,3H2,(H,8,9)/t4-,5+,6+/m1/s1
