18
gdb 41712	3.93421	1.48649	1.26564	2.7473	77.03	-0.2144	0.0041	0.2185	1010.9452	0.150027	-401.927578	-401.920728	-401.919783	-401.958555	27.821	
C	-0.0135756577	 1.4838395145	 0.0852732609	-0.093262
O	 1.3385375164	 1.9420366694	 0.0436772608	-0.259497
C	 2.1648376303	 0.9983654027	-0.6304260614	-0.164624
C	 1.4366017118	-0.3210512061	-0.5404098128	 0.313214
C	 1.7015083329	-1.5828860357	-1.2699908481	-0.181121
C	 1.3535748546	-2.6244003278	-0.5129769082	-0.093284
C	 0.8594788772	-2.1572939747	 0.8406707779	-0.219001
N	 0.9534450025	-0.6766885861	 0.8281464653	-0.151894
C	 0.0426264676	-0.0140044177	-0.1153791538	-0.089968
H	-0.4289588762	 1.783777461	 1.0531625983	 0.113824
H	-0.6157332702	 1.9405651288	-0.7165001888	 0.089851
H	 2.312884862	 1.2706348105	-1.6890492276	 0.088431
H	 3.1394626225	 0.9980584864	-0.1308930656	 0.114169
H	 2.0956209466	-1.6187402954	-2.2778020704	 0.105259
H	 1.3773281661	-3.6659595657	-0.8109164519	 0.104412
H	-0.1706127001	-2.4788904117	 1.0464775657	 0.114129
H	 1.4782653575	-2.5450373971	 1.6603661912	 0.11848
H	-0.8057792239	-0.5552284652	-0.5249160314	 0.090883
170.969	206.9297	254.9932	295.5394	361.6716	471.2036	499.7397	644.9701	733.2703	746.6068	771.6889	793.9756	819.221	914.8283	923.4199	930.8669	950.1521	972.2337	1011.3495	1037.6054	1057.3416	1076.5067	1092.415	1104.7714	1125.8157	1200.5504	1220.7237	1233.612	1238.447	1273.3845	1327.1869	1349.3243	1366.6455	1380.9007	1428.3859	1490.1624	1501.7527	1512.4244	1665.6392	2963.7421	2978.9289	3011.0333	3036.2217	3064.8093	3068.2355	3152.7135	3197.9547	3223.2978
C1OCC23C=CCN2C13	C1OC[C@@]23C=CCN2[C@@H]13	
InChI=1S/C7H9NO/c1-2-7-5-9-4-6(7)8(7)3-1/h1-2,6H,3-5H2	InChI=1S/C7H9NO/c1-2-7-5-9-4-6(7)8(7)3-1/h1-2,6H,3-5H2/t6-,7+,8?/m0/s1
