16
gdb 30429	3.29176	1.19118	0.88541	3.1861	71.43	-0.2	0.0399	0.24	1285.0795	0.121764	-475.039554	-475.030139	-475.029195	-475.074584	32.672	
C	 0.1192386463	 1.4031683438	 0.1058599056	-0.330224
N	 0.2686451347	-0.0389787106	 0.0875791824	-0.357738
C	 0.7109716606	-0.6076431282	-0.9333087964	 0.525954
O	 0.8899447518	-1.9538030336	-1.026025318	-0.253876
C	 1.3631788383	-2.23415052	-2.3136437058	 0.206635
C	 1.62591912	-3.6432433787	-2.6751244823	-0.499722
C	 1.4928497687	-1.0749276065	-2.9517503333	 0.260149
O	 1.9851056009	-0.7667092635	-4.1577780687	-0.416712
O	 1.0984157782	-0.0300166202	-2.1329248904	-0.256016
H	 0.6750639175	 1.8135472849	 0.9564600203	 0.127754
H	 0.4635096702	 1.9062493472	-0.8062914002	 0.115774
H	-0.9351997892	 1.6587018822	 0.2633244346	 0.125909
H	 0.7232710165	-4.2551380117	-2.5675899634	 0.144214
H	 1.9617155567	-3.6952950732	-3.7131112356	 0.147479
H	 2.4013358273	-4.0828801827	-2.0373452409	 0.145873
H	 1.4244855014	-0.095509639	-4.5681879378	 0.314546
33.2877	108.2684	174.4173	181.25	208.167	216.5871	249.176	257.5133	345.8813	401.7418	572.2893	609.8166	643.2017	665.4604	720.8532	811.0169	902.5832	969.5292	1026.1319	1070.9278	1118.6816	1138.1392	1152.7153	1225.5178	1256.0068	1318.3816	1360.3379	1428.4887	1448.3312	1469.518	1494.2026	1494.9407	1503.4658	1818.7431	1878.5161	3009.8606	3030.4847	3071.6751	3076.2839	3081.4569	3133.0599	3771.3197
CN=C1OC(C)=C(O)O1	CN=c1oc(C)c(O)o1	
InChI=1S/C5H7NO3/c1-3-4(7)9-5(6-2)8-3/h7H,1-2H3	InChI=1S/C5H7NO3/c1-3-4(7)9-5(6-2)8-3/h7H,1-2H3
