18
gdb 52820	3.13712	0.99575	0.92414	2.2695	81.25	-0.2472	0.0227	0.2698	1368.4603	0.146276	-401.944464	-401.93497	-401.934025	-401.980641	33.331	
C	 0.1095556138	 1.5611800113	-0.0905425924	-0.499686
C	 0.0572210216	 0.1077802666	-0.037481791	 0.037238
C	 0.0011618729	-1.0940840385	 0.0073072407	 0.094122
C	-0.0213983394	-2.5501383386	 0.0659583224	 0.171371
C	 0.5520500615	-3.181840409	-1.2044174873	-0.42614
C	 0.6193348296	-3.1249404592	 1.379467296	-0.220889
N	-0.4450632143	-3.8937251522	 2.0343655954	-0.263637
C	-1.4748720841	-3.7411562305	 1.313303355	 0.116805
O	-1.4200515146	-2.9981805705	 0.1857931148	-0.243068
H	 0.7360786112	 1.9670971241	 0.7110626544	 0.151861
H	 0.5181242436	 1.910896459	-1.044788428	 0.151391
H	-0.8914813261	 1.9920428513	 0.020149915	 0.156054
H	 1.5966904026	-2.883275601	-1.3300740903	 0.129654
H	 0.5029394671	-4.2722749749	-1.1310965897	 0.126751
H	-0.011812202	-2.8585344094	-2.082261564	 0.13609
H	 1.4730404057	-3.7724594784	 1.1535098334	 0.116906
H	 0.9686727905	-2.3280669945	 2.0416098174	 0.126158
H	-2.4509556996	-4.1686672358	 1.517121468	 0.139017
20.1223	53.5146	106.3784	122.5684	249.0537	285.1453	294.9629	348.627	370.7284	471.8024	500.2548	535.0232	598.4015	762.2087	835.2573	853.8246	943.1514	951.1501	976.0611	992.3578	1050.6688	1053.692	1067.5883	1092.3473	1149.6519	1178.849	1205.884	1297.8682	1321.111	1335.9308	1403.3088	1413.6004	1475.8398	1477.791	1481.1755	1490.1136	1498.9946	1709.7463	2370.7857	3029.7428	3043.9043	3048.1917	3091.0464	3091.8355	3092.9086	3121.1435	3133.562	3209.8371
CC#CC1(C)CN=CO1	CC#C[C@@]1(C)CN=CO1	
InChI=1S/C7H9NO/c1-3-4-7(2)5-8-6-9-7/h6H,5H2,1-2H3	InChI=1S/C7H9NO/c1-3-4-7(2)5-8-6-9-7/h6H,5H2,1-2H3/t7-/m0/s1
