13
gdb 131371	3.51838	1.68083	1.13781	5.1835	64.84	-0.212	0.0148	0.2268	961.1688	0.092842	-448.941495	-448.934547	-448.933603	-448.972611	26.538	
O	 0.098603189	 1.310389657	-0.1327878843	-0.416374
C	 0.0581634239	-0.0329873888	-0.0136465281	 0.313797
N	 0.015160157	-0.7821208207	-1.099873539	-0.295276
N	 0.0350376957	-2.1013162744	-0.6607074918	-0.374393
C	 0.0010442363	-2.1247575185	 0.6905024112	 0.457298
C	 0.0530611551	-0.8300978996	 1.1668374207	 0.101016
N	 0.1054253388	-0.8120358619	 2.54870268	-0.359596
C	 0.0828487527	-2.0765102163	 2.8802356557	-0.006281
N	 0.0292733705	-2.9449446812	 1.7862319764	-0.41046
H	 0.1243740292	 1.6841099156	 0.7542315814	 0.31324
H	-0.2320195204	-2.8090552209	-1.3210464597	 0.270823
H	 0.0973328708	-2.4661999064	 3.8875580854	 0.13457
H	-0.0169378188	-3.948165104	 1.8259047119	 0.271636
185.5794	217.3267	268.1551	287.5672	320.2637	385.0938	457.5598	566.5658	634.6474	660.13	666.5196	703.9113	765.0582	800.1405	844.435	952.4631	1042.5292	1063.8869	1142.6501	1220.734	1273.9392	1327.2213	1341.3633	1379.4482	1490.8527	1514.0933	1535.9965	1594.7597	1656.1199	3250.3578	3679.8446	3689.2839	3834.6155
OC1=NNC2=C1N=CN2	Oc1n[nH]c2c1nc[nH]2	
InChI=1S/C4H4N4O/c9-4-2-3(7-8-4)6-1-5-2/h1H,(H3,5,6,7,8,9)	InChI=1S/C4H4N4O/c9-4-2-3(7-8-4)6-1-5-2/h1H,(H3,5,6,7,8,9)
