15
gdb 7932	3.54338	1.92596	1.3301	0.6639	65.78	-0.2471	0.0057	0.2527	898.8864	0.12039	-396.024741	-396.017384	-396.01644	-396.056505	27.414	
C	-0.0340426511	 1.5496209349	-0.0113562295	-0.39402
C	 0.0425773402	 0.0320931837	 0.0165228033	 0.043408
O	 0.816066205	-0.4656515745	-1.0992974969	-0.25559
C	 1.8430269888	-1.2408548214	-0.659035492	 0.467315
N	 2.7108461544	-1.8407743235	-1.350426673	-0.584174
N	 1.7897390116	-1.2703378648	 0.7286257525	-0.376178
C	 0.7529186725	-0.5225146092	 1.2446959361	 0.38769
N	 0.3882948762	-0.2843160464	 2.4356895099	-0.550365
H	 0.9679016134	 1.9864861199	 0.0219661628	 0.130243
H	-0.537850587	 1.8902646203	-0.9192411227	 0.131223
H	-0.5935365905	 1.8917766285	 0.8625516694	 0.153011
H	-0.9600930966	-0.404113391	-0.0543187271	 0.126207
H	 2.551982781	-1.677743986	-2.3421248665	 0.231605
H	 2.4759964906	-1.7780077298	 1.2617095575	 0.274186
H	 0.9871943114	-0.7425177608	 3.1232346364	 0.215442
89.4607	125.4705	224.6213	249.8357	359.377	406.8551	493.7806	528.9811	635.9694	651.7834	707.0747	718.037	803.3604	818.7416	856.4561	913.6378	980.1905	1061.3871	1079.9408	1102.9759	1124.4571	1136.1469	1268.2925	1352.5027	1359.8731	1362.5807	1402.253	1427.8929	1485.7881	1493.4368	1773.4133	1805.437	3050.2763	3052.2183	3129.8291	3140.0529	3472.6954	3531.3714	3668.8457
CC1OC(=N)NC1=N	C[C@H]1O[C]([NH])N[C]1[NH]	
InChI=1S/C4H7N3O/c1-2-3(5)7-4(6)8-2/h2H,1H3,(H3,5,6,7)	InChI=1S/C4H7N3O/c1-2-3(5)7-4(6)8-2/h2H,1H3,(H3,5,6,7)/t2-/m1/s1
