18
gdb 48634	3.43025	1.42843	1.20375	2.6514	71.38	-0.2185	-0.0385	0.18	1046.2911	0.148406	-439.046409	-439.038719	-439.037775	-439.078974	29.493	
O	-0.4091079199	 0.3868920357	-0.606304472	-0.262331
C	 0.0668816744	 1.0756660776	 0.2602668928	 0.092329
C	 1.3360185344	 1.8680574995	 0.0694643157	 0.315959
C	 2.6239314967	 1.1779139923	-0.4633297653	-0.23809
N	 3.0026024494	 2.4896877627	-1.1081429174	-0.126263
C	 1.5213689805	 2.7809296741	-1.1676717426	-0.208728
C	 3.5635811938	 3.3613069267	-0.0544533104	-0.185063
C	 2.9217263529	 3.1090214838	 1.3389393696	-0.094141
O	 1.5821775357	 2.6108071078	 1.2508883062	-0.319138
H	-0.3945763199	 1.1745424104	 1.2668432793	 0.092221
H	 3.3345878842	 0.7678792327	 0.2574290197	 0.114932
H	 2.3936236875	 0.4339400136	-1.228040418	 0.13384
H	 1.0876997695	 2.3642445429	-2.0794764193	 0.126858
H	 1.2405344101	 3.8296654341	-1.0435557184	 0.109284
H	 4.6434582113	 3.1894987618	 0.0152077597	 0.110737
H	 3.4188258223	 4.3971943497	-0.3768428622	 0.115275
H	 3.5293726685	 2.3892749765	 1.9034394618	 0.105752
H	 2.8768706885	 4.0282141582	 1.9296450408	 0.116565
53.5443	175.4742	200.985	207.5787	378.206	393.2432	462.7024	468.4125	535.9756	636.3	721.672	805.7973	822.9224	834.3494	871.0618	908.6891	928.2546	957.0439	975.7409	1031.2457	1077.639	1089.4432	1131.4731	1163.2013	1195.8469	1229.3019	1241.244	1263.463	1268.1932	1289.288	1308.5727	1362.691	1393.9947	1406.9897	1479.9207	1495.8471	1505.0418	1528.4738	1827.9932	2901.3183	3007.7894	3038.9776	3059.7969	3073.571	3076.4807	3092.5936	3129.1508	3135.2194
O=CC12CN(C1)CCO2	O=C[C@@]12CN(C1)CCO2	
InChI=1S/C6H9NO2/c8-5-6-3-7(4-6)1-2-9-6/h5H,1-4H2	InChI=1S/C6H9NO2/c8-5-6-3-7(4-6)1-2-9-6/h5H,1-4H2
