12
gdb 132321	2.03918	1.73082	0.93619	2.1047	63.05	-0.2252	-0.0467	0.1785	1090.2125	0.076199	-521.904854	-521.897883	-521.896939	-521.936576	26.421	
F	 0.1085567521	 0.0833222587	 0.0018034859	-0.030564
C	-0.0549967432	 1.383659929	 0.0111041081	 0.433648
C	-1.2575440826	 1.9826480487	 0.0310870199	-0.520264
C	-1.22203054	 3.414857637	 0.038362462	 0.363134
F	-2.3960076477	 4.0327509586	 0.058049638	-0.060239
C	-0.0720582018	 4.1194591469	 0.0261851905	-0.33454
C	 1.1966295445	 3.4349603985	 0.0048205923	 0.411246
N	 2.3348721862	 3.9835217704	-0.0080192445	-0.529519
O	 1.1121779318	 2.006534078	-0.0017460725	-0.250443
H	-2.1787025088	 1.4219980156	 0.0408684969	 0.144286
H	-0.0579524666	 5.1993748123	 0.0318505082	 0.141583
H	 3.0857374362	 3.2955327865	-0.0221911948	 0.231672
136.7989	197.5091	214.7482	336.6524	348.2594	465.2383	520.4553	570.4447	619.1632	625.7513	658.4069	694.9611	772.0649	814.2856	858.4673	863.0972	995.7918	1025.1169	1082.7445	1178.6457	1210.9964	1260.9002	1395.22	1460.5016	1634.2383	1708.0286	1769.8917	3249.868	3263.2109	3516.0615
FC1=CC(F)=CC(=N)O1	FC1=C[C@@H](F)C=C([NH])O1	
InChI=1S/C5H3F2NO/c6-3-1-4(7)9-5(8)2-3/h1-2,8H	InChI=1S/C5H4F2NO/c6-3-1-4(7)9-5(8)2-3/h1-3,8H/t3-/m1/s1
