17
gdb 20241	3.26376	3.09736	2.5291	1.6339	68.87	-0.2201	0.0912	0.3113	662.0808	0.146968	-326.714006	-326.708822	-326.707878	-326.742848	22.739	
C	-0.0267344767	 1.5552789525	-0.1321921178	-0.245138
C	 1.4229746298	 1.9769718544	 0.0666413984	-0.064862
C	 2.1126151212	 1.3962745582	 1.2758673825	-0.069562
C	 1.2671433717	 0.438909663	 2.1024216817	-0.175804
N	 0.6871578757	-0.5451586882	 1.1710396032	-0.117717
C	 0.0014381124	 0.0403939178	 0.0044008939	-0.039251
C	 1.4088711127	-0.4487358419	-0.1164475125	-0.055288
C	 2.3214066625	 0.7602299087	-0.0847927687	-0.070489
H	-0.7066966168	 2.0258554511	 0.5892503535	 0.104582
H	-0.3798002828	 1.8281450066	-1.1336156465	 0.103591
H	 1.7444976139	 2.9493774186	-0.2900532799	 0.081891
H	 2.9020755731	 1.9660621753	 1.7546340141	 0.082707
H	 1.8844004552	-0.0994399226	 2.8303241238	 0.1057
H	 0.4641662713	 0.9394395965	 2.6564503882	 0.104979
H	-0.8554503591	-0.5316764397	-0.3421299543	 0.08535
H	 1.7047251365	-1.3692910491	-0.6064203956	 0.085673
H	 3.2656380996	 0.7755532489	-0.6117944341	 0.083639
284.0583	426.9929	448.131	633.5571	689.8421	712.4115	740.789	757.8583	771.1484	804.699	839.2599	911.6216	930.7511	951.6356	957.7378	995.0785	1011.4086	1034.0996	1049.5717	1061.8912	1091.2804	1096.2478	1110.1315	1120.8907	1206.303	1225.6612	1256.6618	1281.1301	1300.5269	1309.378	1327.3223	1334.2134	1386.8186	1421.1356	1485.6223	1506.5365	3026.0267	3033.2302	3061.1846	3068.1837	3136.4345	3160.1855	3170.5032	3174.8887	3208.6507
C1C2C3CN4C1C4C23	C1[C@H]2[C@H]3CN4[C@@H]1[C@H]4[C@@H]23	
InChI=1S/C7H9N/c1-3-4-2-8-5(1)7(8)6(3)4/h3-7H,1-2H2	InChI=1S/C7H9N/c1-3-4-2-8-5(1)7(8)6(3)4/h3-7H,1-2H2/t3-,4+,5-,6-,7-,8?/m0/s1
