23
gdb 119871	2.88048	0.95057	0.77639	1.2602	88.5	-0.2266	0.0279	0.2545	1540.7962	0.205799	-388.306749	-388.296779	-388.295835	-388.342042	36.927	
C	-0.1217930842	 1.5593287222	-0.129285909	-0.403227
C	 0.0202174552	 0.0388110791	 0.0007836775	-0.056526
C	 0.7737121573	-0.6112918688	-1.1876748996	-0.213102
C	 1.5285109322	-1.8239684982	-0.5938086585	-0.253575
C	 1.6009398084	-1.4804258949	 0.873001372	-0.16983
C	 0.7974917603	-0.4688136155	 1.2125557668	 0.315475
C	 0.5920670254	 0.0664701839	 2.6036659484	-0.299523
C	 1.5315668097	 1.2236277572	 2.9570404983	-0.064905
O	 1.2238345998	 1.6338395629	 4.2812811608	-0.419341
H	 0.8591747522	 2.0419580479	-0.2054910488	 0.112162
H	-0.6894433127	 1.8170240665	-1.0300479741	 0.111476
H	-0.6491902092	 1.9943725042	 0.7259031273	 0.116154
H	-0.9984161342	-0.3782910828	 0.0647320165	 0.075291
H	 0.1096140235	-0.8786934013	-2.0142727442	 0.092255
H	 1.5005213357	 0.1108547161	-1.5780210886	 0.096865
H	 0.9747458853	-2.76266061	-0.7428903036	 0.102294
H	 2.5120102862	-1.9757558853	-1.0534917442	 0.098266
H	 2.2027567052	-2.0482810928	 1.5763197944	 0.080977
H	-0.4393453414	 0.4161463562	 2.7345968651	 0.106154
H	 0.7532091834	-0.7250983294	 3.3433572219	 0.110687
H	 2.5739180915	 0.8786092375	 2.8732538127	 0.088055
H	 1.4025899614	 2.0513883532	 2.2439445955	 0.089047
H	 1.8070696791	 2.3622484621	 4.5131298933	 0.284871
72.1046	82.8396	94.3154	145.9792	247.9587	254.284	268.1456	286.5423	343.7288	370.3461	378.7718	585.4075	592.0573	715.4954	770.6195	809.1716	826.4401	859.7962	911.5128	935.8628	970.9732	1003.7839	1010.8864	1056.6048	1063.9122	1074.2325	1103.8302	1117.7145	1170.2097	1207.9623	1213.6298	1236.643	1242.5268	1282.0032	1307.276	1316.6249	1324.8068	1335.2491	1347.1576	1370.8639	1409.3107	1449.4695	1484.2524	1488.8591	1498.8577	1501.7227	1503.4115	1527.3566	1708.9234	2961.5132	2976.8193	2999.087	3008.214	3025.3259	3032.2319	3034.1346	3051.6376	3078.8211	3089.7756	3093.5645	3098.6667	3174.5593	3830.5136
CC1CCC=C1CCO	C[C@H]1CCC=C1CCO	
InChI=1S/C8H14O/c1-7-3-2-4-8(7)5-6-9/h4,7,9H,2-3,5-6H2,1H3	InChI=1S/C8H14O/c1-7-3-2-4-8(7)5-6-9/h4,7,9H,2-3,5-6H2,1H3/t7-/m0/s1
