19
gdb 114172	3.47679	1.04938	0.88832	4.2765	78.66	-0.2451	-0.026	0.2191	1346.1113	0.157411	-422.999274	-422.990398	-422.989454	-423.033146	32.865	
C	-0.0712181962	 1.4978177716	-0.1607077183	-0.38042
C	 0.0143337962	 0.008757636	 0.1909660497	-0.204091
C	-1.3328396857	-0.6802175895	 0.086968249	 0.14332
O	-1.9166477509	-0.6316323499	-1.2548502268	-0.324017
C	-2.1747177619	-2.024228616	-1.2166607111	 0.38811
C	-0.8854945067	-2.8110375235	-1.1333245837	-0.342605
C	-1.4407077688	-2.2087689052	 0.1202167259	-0.199235
C	-3.4557581294	-2.5872629173	-1.6595191289	 0.061646
O	-4.3627058618	-1.9588414483	-2.1448822225	-0.26464
H	 0.9108721247	 1.9740722518	-0.0923043389	 0.115038
H	-0.446740776	 1.6293841574	-1.1790980645	 0.143539
H	-0.7491849903	 2.0269147418	 0.5177624148	 0.117489
H	 0.7329832108	-0.4919006695	-0.4669957901	 0.101786
H	 0.3797865163	-0.1215425701	 1.2180339948	 0.102557
H	-2.0482711211	-0.2307413326	 0.7881106019	 0.093054
H	-0.9858984854	-3.8897691386	-1.2017390356	 0.130736
H	-0.0158727873	-2.393738238	-1.6304787908	 0.133837
H	-1.7392603336	-2.8004958349	 0.9750862101	 0.115688
H	-3.5157323631	-3.689643825	-1.5009076149	 0.068208
93.7251	99.7725	121.2052	188.0492	232.7339	255.4463	311.158	402.32	452.7999	512.0031	537.2537	682.942	781.6894	790.7811	800.7167	887.6158	899.8063	946.8166	951.1607	988.383	1014.3302	1030.4557	1045.6043	1069.0793	1098.0731	1112.8528	1167.0488	1193.6527	1281.0501	1294.0462	1304.9398	1346.2612	1361.6068	1409.1886	1417.4985	1436.6317	1471.648	1479.433	1499.075	1508.6809	1815.1487	2855.6004	3020.9158	3028.144	3039.8703	3072.5005	3108.0194	3123.7198	3128.3996	3205.1817	3220.3389
CCC1OC2(CC12)C=O	CC[C@H]1O[C@]2(C[C@@H]12)C=O	
InChI=1S/C7H10O2/c1-2-6-5-3-7(5,4-8)9-6/h4-6H,2-3H2,1H3	InChI=1S/C7H10O2/c1-2-6-5-3-7(5,4-8)9-6/h4-6H,2-3H2,1H3/t5-,6+,7+/m0/s1
