16
gdb 10837	4.7585	1.54249	1.223	3.9208	61.54	-0.253	0.0081	0.2611	963.838	0.130676	-420.911743	-420.904221	-420.903277	-420.943704	27.488	
C	-0.206979372	 1.4870405136	 0.0330453621	-0.408999
C	 0.0412520703	-0.0119366038	-0.0097961102	 0.098307
C	 0.8549134359	-0.4310468278	-1.2232722501	-0.060929
O	 1.1921371769	-1.830085192	-1.2063094076	-0.227303
C	 1.3183877138	-2.494609359	-0.0377843957	 0.385058
O	 1.6681850514	-3.6423873969	-0.0305045155	-0.321357
C	 0.9379269871	-1.7679679953	 1.250175595	-0.217793
O	 0.7776665808	-0.3705000603	 1.1515720275	-0.251705
H	 0.7416090097	 2.031778118	 0.0491900303	 0.133564
H	-0.7841319945	 1.8105859274	-0.837955859	 0.124776
H	-0.7652050726	 1.7455791824	 0.9358358043	 0.137336
H	-0.9213080149	-0.5525375022	-0.0171951786	 0.08009
H	 0.3041974176	-0.2704344251	-2.1542911434	 0.124329
H	 1.7857806133	 0.1475408403	-1.2589521943	 0.121955
H	 0.0149207669	-2.2508302886	 1.6129520382	 0.130185
H	 1.7211383402	-1.9636863306	 1.9856447069	 0.152488
83.7672	158.3527	201.6955	224.0215	288.0476	406.5525	452.6001	479.4181	526.5161	566.4668	725.9533	777.184	867.8849	918.6971	951.4886	1020.6256	1080.1883	1101.6155	1146.0058	1158.4697	1169.5025	1238.6953	1269.5297	1285.7539	1353.582	1369.6325	1398.9641	1412.5313	1435.3645	1467.8561	1483.3741	1499.8746	1503.656	1851.4978	2956.456	2976.0945	3037.8364	3048.3966	3098.7883	3113.7217	3122.4449	3130.9402
CC1COC(=O)CO1	C[C@H]1COC(=O)CO1	
InChI=1S/C5H8O3/c1-4-2-8-5(6)3-7-4/h4H,2-3H2,1H3	InChI=1S/C5H8O3/c1-4-2-8-5(6)3-7-4/h4H,2-3H2,1H3/t4-/m0/s1
