16
gdb 60724	3.3446	1.09095	0.85168	2.52	68.62	-0.2546	-0.0866	0.168	1304.5045	0.121173	-475.085827	-475.075978	-475.075034	-475.121981	33.309	
C	-0.1873422272	 1.5429803858	 0.1093272314	-0.337834
N	-0.0813584894	 0.0807197486	 0.0088692167	-0.162021
C	 0.0751991323	-0.6407434063	 1.2044302703	 0.174187
O	 0.1206873593	-0.1211074532	 2.2905438962	-0.304479
C	-0.1510543202	-0.6429593848	-1.1761871564	 0.347992
O	-0.1558887231	-1.8573194927	-1.2163863102	-0.336142
C	-0.1665814961	 0.1323338451	-2.5197274361	 0.286527
C	-0.752944593	-0.6444972867	-3.6706243866	-0.470375
O	 0.3203194374	 1.2318076103	-2.6227005822	-0.279727
H	 0.7310510523	 2.0265185324	-0.2227181602	 0.159359
H	-1.0148832603	 1.9098606032	-0.4974170552	 0.141443
H	-0.3673211031	 1.7661526272	 1.160268007	 0.165902
H	 0.1521362534	-1.7195765208	 1.0240964062	 0.144148
H	-0.2309843437	-1.5987308896	-3.7787309666	 0.173164
H	-1.8003726577	-0.8898676013	-3.4622653626	 0.152692
H	-0.6784071009	-0.0531012972	-4.5830585118	 0.145164
29.6234	53.2655	125.5824	159.9189	179.9137	202.45	294.7569	319.0267	335.0246	371.9091	396.0143	497.8595	594.6297	635.1096	725.484	796.8612	911.1546	986.4236	1035.2352	1056.0402	1096.6627	1153.5305	1213.0934	1276.6771	1352.9294	1384.2178	1420.8996	1453.1116	1459.5389	1460.5332	1492.3954	1506.309	1757.7165	1814.5589	1816.5497	3049.4351	3078.4955	3081.3068	3117.0744	3157.6872	3167.2297	3172.7591
CN(C=O)C(=O)C(C)=O	CN(C=O)C(=O)C(=O)C	
InChI=1S/C5H7NO3/c1-4(8)5(9)6(2)3-7/h3H,1-2H3	InChI=1S/C5H7NO3/c1-4(8)5(9)6(2)3-7/h3H,1-2H3
