21
gdb 100905	2.00184	1.32572	0.85905	0.957	82.15	-0.2436	0.0334	0.277	1398.0993	0.177819	-424.168598	-424.157352	-424.156408	-424.205234	39.537	
C	 0.6716951011	 1.4057279826	-1.5469374263	-0.240164
O	 0.200164118	 0.5514099484	-0.5220630213	-0.246552
C	 0.8994091681	-0.6697247593	-0.3651287185	 0.100439
C	 0.9626589225	-0.9686771877	 1.1296460694	-0.405473
C	 0.172389358	-1.7865465051	-1.1534646418	-0.057248
O	 0.2239269748	-1.4386962792	-2.5283588237	-0.230673
C	-0.6426448083	-2.1987849099	-3.3460768017	-0.241786
C	 0.7550909238	-3.1148561192	-0.9200712645	 0.341714
C	 1.2437859742	-4.2015315945	-0.7574499157	-0.480134
H	 1.7352690488	 1.6521367477	-1.4046064661	 0.100182
H	 0.541348527	 0.966194484	-2.540723613	 0.127322
H	 0.0899564303	 2.3288827782	-1.4767714586	 0.118902
H	 1.9150892222	-0.5846060755	-0.7782772998	 0.083136
H	 1.4960608617	-1.9004069561	 1.3277501964	 0.130576
H	 1.4731109813	-0.1492956758	 1.6412355111	 0.121505
H	-0.0480445083	-1.047120789	 1.5432743795	 0.123527
H	-0.8768005541	-1.7884036291	-0.8125382573	 0.097624
H	-1.6930980321	-2.0762239947	-3.0410931814	 0.108082
H	-0.5231412625	-1.8280215313	-4.366487508	 0.128186
H	-0.3917276307	-3.2676242423	-3.3199935695	 0.120574
H	 1.6717746742	-5.1618530421	-0.6057994892	 0.200261
50.4882	96.8977	103.6563	142.0345	180.1387	187.0717	191.0859	210.3549	261.8757	316.2304	342.9914	358.123	456.6121	504.5589	533.3375	597.7376	634.3388	676.9659	864.1381	887.6798	972.5306	989.2764	1069.577	1118.8993	1131.1818	1141.3085	1164.2125	1179.5777	1184.8081	1217.9186	1234.9671	1288.1422	1336.6833	1362.3205	1383.9536	1407.9387	1474.6466	1478.7879	1483.6495	1485.4224	1486.8679	1497.2763	1510.8542	1518.2091	2225.9686	2963.4244	2985.8053	2986.9736	3006.329	3047.2513	3048.3358	3074.8064	3116.338	3119.5416	3121.4522	3141.1183	3500.8533
COC(C)C(OC)C#C	CO[C@@H](C)[C@@H](OC)C#C	
InChI=1S/C7H12O2/c1-5-7(9-4)6(2)8-3/h1,6-7H,2-4H3	InChI=1S/C7H12O2/c1-5-7(9-4)6(2)8-3/h1,6-7H,2-4H3/t6-,7-/m0/s1
