19
gdb 93008	2.63744	1.50821	1.11675	1.6752	76.42	-0.2285	0.0162	0.2447	1113.2938	0.15946	-423.018118	-423.009785	-423.008841	-423.050429	33.35	
O	-0.1680716359	 1.4431272403	 0.175125216	-0.434716
C	-0.023758893	 0.0323154969	 0.0288008326	 0.104101
C	 0.9007917655	-0.5492111234	 1.1169974429	-0.31373
C	 0.7851619553	-2.0459268467	 1.2550988698	-0.084291
C	-0.3385730444	-2.6964919106	 0.9519022607	-0.109028
C	-1.5604225781	-2.0037987201	 0.4632231904	 0.353236
O	-2.4352379369	-2.7758140552	-0.315534423	-0.475378
C	-2.1542459089	-0.890907022	 1.313246225	-0.343371
C	-1.4085930968	-0.570385883	 0.0377868525	-0.055566
H	 0.7022328959	 1.8409721249	 0.0684937221	 0.278886
H	 0.4194207396	-0.197770629	-0.9537541687	 0.072348
H	 1.9377792477	-0.2652164119	 0.8992798154	 0.094284
H	 0.6486227778	-0.0548667633	 2.0657888957	 0.121732
H	 1.6437715514	-2.5883307602	 1.6397754059	 0.090097
H	-0.4092513354	-3.7754889502	 1.062282501	 0.084611
H	-2.9201024439	-3.3607137353	 0.2770459087	 0.281126
H	-3.2327570215	-0.7791687217	 1.2840119524	 0.113177
H	-1.6931956207	-0.6752509966	 2.270407772	 0.118428
H	-2.0298806378	-0.276970953	-0.8015241316	 0.104054
127.5677	174.9601	261.7886	272.6302	280.6848	313.8372	379.484	404.2323	440.3347	468.9468	542.4613	585.865	674.5294	716.3055	759.179	861.8166	913.2432	922.9686	946.7258	951.3806	979.9632	994.9181	1020.5905	1054.2599	1068.2243	1108.9702	1132.2828	1180.9605	1209.3558	1234.2054	1258.8796	1270.6529	1318.2497	1344.1578	1373.9443	1406.9356	1420.1745	1442.4421	1479.623	1492.3213	1708.4316	2964.0414	3011.256	3047.2478	3134.4411	3154.2016	3173.0286	3177.7099	3226.8552	3796.3762	3811.0822
OC1CC=CC2(O)CC12	O[C@H]1CC=C[C@@]2(O)C[C@@H]12	
InChI=1S/C7H10O2/c8-6-2-1-3-7(9)4-5(6)7/h1,3,5-6,8-9H,2,4H2	InChI=1S/C7H10O2/c8-6-2-1-3-7(9)4-5(6)7/h1,3,5-6,8-9H,2,4H2/t5-,6-,7+/m0/s1
