25
gdb 118847	2.66357	0.8098	0.69743	1.2952	90.27	-0.2483	0.0766	0.3249	1787.1513	0.22658	-389.488802	-389.477583	-389.476639	-389.525406	41.367	
C	 0.0933937812	 1.5767057478	 0.2341268428	-0.38313
C	-0.0020299744	 0.0502437726	 0.2977775325	-0.176539
C	-1.3343567177	-0.4901783065	-0.2412021066	-0.225782
C	-1.4427271189	-2.001987327	-0.172605551	 0.385175
O	-0.4728303014	-2.6778856898	-0.9421172563	-0.477031
C	-1.8939335133	-2.6895480389	 1.0987098967	-0.3563
C	-2.7629499931	-2.7166470655	-0.1491859446	-0.025113
C	-4.1128344198	-2.0306300645	-0.193965412	-0.20594
C	-5.2386479857	-2.926194352	 0.3378462469	-0.371821
H	 1.0554828433	 1.9331869865	 0.6152071998	 0.111096
H	-0.011371981	 1.9366717547	-0.7952989787	 0.116714
H	-0.6962311016	 2.0481237628	 0.8298616632	 0.113854
H	 0.8243222769	-0.3843616639	-0.2794289133	 0.090822
H	 0.1312909228	-0.2856020059	 1.3346516763	 0.095797
H	-2.1575033713	-0.0362658395	 0.3216870477	 0.092562
H	-1.4555233068	-0.1764510894	-1.286612939	 0.099963
H	 0.3717873564	-2.5995942694	-0.4859791021	 0.280238
H	-1.3843955685	-3.602618434	 1.3867063757	 0.10651
H	-2.2199099885	-2.0684317626	 1.9283458188	 0.10304
H	-2.7278414605	-3.6592185201	-0.6906189867	 0.09193
H	-4.085523221	-1.1040495349	 0.3907479097	 0.093896
H	-4.3395517301	-1.733726065	-1.2264230168	 0.099544
H	-6.2053058859	-2.4143854399	 0.2983604726	 0.108071
H	-5.3228977204	-3.8454194028	-0.2520364513	 0.115042
H	-5.0517659007	-3.2170636027	 1.3769358955	 0.117404
64.2242	86.0424	97.9611	108.5762	178.7419	214.7399	247.584	259.0031	289.0219	308.4845	331.5347	395.1337	431.182	453.8682	581.0751	720.3222	754.5805	785.1706	817.6753	872.6994	899.2372	919.0183	933.0992	946.2713	975.2245	1035.6139	1046.9434	1055.3657	1062.1874	1115.1331	1123.6534	1141.1319	1193.0895	1226.937	1283.1204	1292.6374	1294.7058	1315.1002	1334.8073	1339.969	1361.2767	1397.1349	1409.2792	1412.9827	1425.0011	1472.0271	1484.5761	1491.1	1494.3225	1497.7972	1499.9838	1507.3682	1510.6699	3012.9343	3018.4712	3022.8814	3030.2237	3031.5181	3043.4909	3056.1346	3073.9362	3097.4309	3100.3068	3101.7863	3103.8267	3119.0278	3137.7779	3210.0584	3802.9364
CCCC1(O)CC1CC	CCC[C@@]1(O)C[C@H]1CC	
InChI=1S/C8H16O/c1-3-5-8(9)6-7(8)4-2/h7,9H,3-6H2,1-2H3	InChI=1S/C8H16O/c1-3-5-8(9)6-7(8)4-2/h7,9H,3-6H2,1-2H3/t7-,8-/m1/s1
