21
gdb 71235	2.74019	1.80224	1.62351	1.4768	80.46	-0.2298	0.0893	0.319	963.8014	0.185019	-387.078624	-387.071424	-387.070479	-387.109558	30.681	
C	 0.1328881905	 1.4867688616	-0.1792990556	-0.476407
C	 0.0144641253	-0.0053836546	 0.0179023179	 0.424572
C	-1.3882463399	-0.5882923624	-0.1785573692	-0.251054
C	-1.2476908965	-2.131668085	-0.2198357738	-0.204721
C	-0.0378267619	-2.5308595741	 0.6347393202	-0.068389
C	-0.0631976045	-1.7537003856	 1.9849999819	-0.255222
C	 0.7284127884	-0.6418715369	 1.2751695511	-0.112662
C	 1.1963956528	-1.6343859222	 0.1998787545	 0.129475
O	 0.9056129475	-0.7520084051	-0.8881153062	-0.334339
H	 1.1647580139	 1.8171802298	-0.030933266	 0.12137
H	-0.1742082394	 1.7648457433	-1.1928837157	 0.124552
H	-0.5091865334	 2.0180344389	 0.5318820522	 0.116536
H	-2.0426664683	-0.264245835	 0.6387454179	 0.09823
H	-1.8250421436	-0.2093518504	-1.1083032778	 0.098475
H	-2.1567247474	-2.6217957089	 0.1439674412	 0.090585
H	-1.087692886	-2.457897444	-1.2511335615	 0.110822
H	 0.1125945108	-3.6114025193	 0.6737412226	 0.061997
H	-1.04030441	-1.523700773	 2.4211379796	 0.092845
H	 0.5560023022	-2.232094647	 2.7494728889	 0.099142
H	 1.3887012904	 0.0330823032	 1.8220656705	 0.06347
H	 2.1785522292	-2.1063269333	 0.1336728074	 0.07072
198.6975	236.3981	279.7385	290.7297	373.6333	412.5383	461.6245	505.3841	615.217	663.6837	713.0881	797.5113	805.6742	825.115	836.7569	872.1886	911.2444	929.8019	971.5499	983.3005	988.2898	1022.6228	1042.8414	1060.7865	1077.5566	1116.2993	1143.8667	1188.2183	1205.2104	1212.4788	1223.0928	1250.1815	1259.6413	1282.0737	1302.3114	1312.9382	1336.8295	1361.9581	1375.2324	1407.7269	1474.2743	1480.3274	1484.3652	1492.5395	1504.3321	3031.6187	3036.9553	3045.766	3050.1841	3074.6065	3082.4321	3090.1112	3093.8348	3097.9462	3102.3731	3103.8294	3114.2223
CC12CCC3CC1C3O2	C[C@]12CC[C@@H]3C[C@H]1[C@@H]3O2	
InChI=1S/C8H12O/c1-8-3-2-5-4-6(8)7(5)9-8/h5-7H,2-4H2,1H3	InChI=1S/C8H12O/c1-8-3-2-5-4-6(8)7(5)9-8/h5-7H,2-4H2,1H3/t5-,6+,7-,8+/m1/s1
