14
gdb 44302	4.03512	1.77458	1.55996	2.5109	62.16	-0.2585	-0.006	0.2525	823.463	0.104116	-436.659974	-436.654463	-436.653518	-436.689839	22.767	
O	-0.0409904714	-0.0379321614	-0.2192416102	-0.335129
C	-0.012217101	 1.1420585131	-0.0428905232	 0.449448
O	-1.1501054446	 1.8987738882	 0.1324504161	-0.239547
C	-0.7484029899	 3.2524324697	 0.3608646067	 0.086124
C	 0.0187722911	 3.4888491953	 1.6587988813	-0.069095
C	 1.289861646	 2.7355741638	 1.4583620829	-0.04706
C	 1.1705442903	 2.096056398	 0.0575614185	-0.207534
C	 0.6203966377	 3.4881968654	-0.3122728903	-0.02932
N	 1.1876013695	 4.1451165755	 0.9669432312	-0.171747
H	-1.5745868349	 3.9213793712	 0.1339543897	 0.112049
H	-0.3416598333	 3.8197021601	 2.6241113038	 0.113801
H	 1.9494619269	 2.4494836984	 2.2672412678	 0.120047
H	 2.0933506037	 1.7407041038	-0.3914208313	 0.113304
H	 0.74610553	 3.956200579	-1.2847946528	 0.104658
156.988	355.1584	431.1652	510.1265	616.7635	701.0941	720.3304	788.3168	797.6762	837.292	839.4121	885.8925	890.0878	929.9746	936.0296	966.1476	1015.8422	1035.9031	1040.0602	1050.9506	1132.3878	1135.6714	1159.5267	1201.0113	1228.111	1234.3935	1272.8607	1316.8855	1352.8294	1363.4184	1897.0828	3155.1554	3162.5592	3171.8615	3200.9433	3211.8647
O=C1OC2C3C4C1C2N34	O=C1O[C@H]2[C@H]3[C@H]4[C@@H]1[C@@H]2N34	
InChI=1S/C6H5NO2/c8-6-1-2-4-5(9-6)3(1)7(2)4/h1-5H	InChI=1S/C6H5NO2/c8-6-1-2-4-5(9-6)3(1)7(2)4/h1-5H/t1-,2-,3+,4-,5-,7?/m1/s1
