16
gdb 85581	2.79236	1.46227	1.13937	2.7959	66.77	-0.2709	-0.0105	0.2604	1073.5506	0.124507	-475.064731	-475.056543	-475.055599	-475.097877	29.944	
C	 0.0218499062	 1.6212272978	 0.2885226822	-0.413052
C	 0.0865207861	 0.1205498094	-0.0066138517	-0.035687
O	 0.7634049277	-0.1493908111	-1.2477690904	-0.247655
C	 2.1101511974	-0.3125548384	-1.2394893353	 0.388753
N	 2.8025629353	-0.4517822808	-2.2865061465	-0.508158
C	 2.7681185946	-0.3194521299	 0.1168865363	-0.178474
O	 1.972049725	-0.9611282368	 1.1233538221	-0.21696
C	 0.6566433165	-0.6673449219	 1.1708620088	 0.424155
O	-0.0221554921	-1.0166551661	 2.0948332806	-0.323973
H	 1.0134492196	 2.0487682017	 0.4628278455	 0.131508
H	-0.4327800031	 2.1393048093	-0.5592706411	 0.142955
H	-0.5887735406	 1.7908484703	 1.1790429604	 0.15552
H	-0.9253369465	-0.2600731148	-0.1561600725	 0.139238
H	 2.2150976226	-0.3790964718	-3.1196012732	 0.22948
H	 3.7024870343	-0.8736551028	 0.0548660211	 0.170034
H	 2.995734547	 0.7059698859	 0.4343158937	 0.142316
75.7267	102.3196	189.4708	221.0852	239.3928	366.7863	406.7587	421.7715	451.8567	561.1229	596.7496	724.2515	749.3345	786.3894	851.42	913.8085	927.9866	1016.1611	1045.0179	1064.8567	1100.4216	1123.2886	1156.0671	1238.5946	1266.3023	1317.0029	1338.8414	1395.1508	1406.7299	1411.2813	1485.1953	1492.7531	1498.7164	1765.6629	1859.7332	3033.8585	3049.9782	3102.8611	3128.8053	3137.3016	3160.7167	3470.8052
CC1OC(=N)COC1=O	C[C@H]1O[C]([NH])COC1=O	
InChI=1S/C5H7NO3/c1-3-5(7)8-2-4(6)9-3/h3,6H,2H2,1H3	InChI=1S/C5H7NO3/c1-3-5(7)8-2-4(6)9-3/h3,6H,2H2,1H3/t3-/m1/s1
