22
gdb 118529	1.67873	1.23822	0.76433	3.4693	83.58	-0.259	0.0324	0.2915	1549.4267	0.191549	-404.369756	-404.358598	-404.357654	-404.40753	38.643	
C	-1.0575342568	 1.1170382267	 0.6348183832	-0.384756
C	-0.9619662044	-0.3931089705	 0.7620923033	-0.057157
O	 0.3593855425	-0.7150191915	 1.1904246757	-0.263339
C	 0.6393169753	-2.090662642	 1.3621552963	 0.121406
C	 2.0215455388	-2.3850309398	 0.7696202437	-0.17581
C	 2.0923580847	-2.1103886445	-0.7332854566	-0.394437
C	 0.6168715444	-2.4528989114	 2.8684757489	-0.344405
C	-0.6951943177	-2.2933559759	 3.4893936046	 0.270261
N	-1.7388118483	-2.1770072947	 3.972660168	-0.317692
H	-0.3230454537	 1.4923043642	-0.0837334149	 0.123322
H	-2.0566157337	 1.404446738	 0.2942554937	 0.119065
H	-0.8700258156	 1.5952967989	 1.6001385915	 0.130889
H	-1.701727841	-0.7651331555	 1.4824719139	 0.123999
H	-1.1653128062	-0.8768399107	-0.2062325374	 0.089527
H	-0.1154530973	-2.6989233314	 0.8417501233	 0.085492
H	 2.7573884884	-1.764657742	 1.2965777226	 0.10851
H	 2.2806126435	-3.4305586333	 0.9767402816	 0.095909
H	 1.4012947337	-2.7545306789	-1.2884050646	 0.113541
H	 1.8300140254	-1.07042516	-0.9425945996	 0.134901
H	 3.0996513946	-2.2939613474	-1.117908835	 0.116375
H	 0.9415283712	-3.4900670193	 3.0085235734	 0.146827
H	 1.3339953721	-1.810249449	 3.3907398444	 0.157573
32.9127	61.9334	79.0784	107.4682	128.7552	191.1715	229.3211	244.928	251.9097	327.9517	392.8856	412.3048	444.0109	467.2879	582.8289	769.4727	819.5478	836.3808	911.0394	918.601	943.9433	999.6653	1025.6924	1070.7442	1102.2999	1121.8174	1140.797	1168.277	1186.317	1240.1632	1282.3111	1300.5486	1307.5544	1349.6742	1374.4345	1387.0878	1403.4483	1406.4107	1444.3439	1452.3541	1477.9624	1483.0962	1496.3994	1499.3348	1510.578	1529.4673	2358.505	2978.6631	2996.7497	3025.769	3038.4464	3042.8738	3045.5953	3046.9551	3064.6445	3092.4193	3104.8652	3120.1102	3123.2747	3126.6902
CCOC(CC)CC#N	CCO[C@@H](CC)CC#N	
InChI=1S/C7H13NO/c1-3-7(5-6-8)9-4-2/h7H,3-5H2,1-2H3	InChI=1S/C7H13NO/c1-3-7(5-6-8)9-4-2/h7H,3-5H2,1-2H3/t7-/m0/s1
