21
gdb 71493	2.8794	1.75284	1.62395	0.2544	86.03	-0.225	0.02	0.245	963.5056	0.185734	-349.954205	-349.947254	-349.94631	-349.984882	30.231	
C	-0.0285816426	 1.5291376215	 0.0231023869	-0.501761
C	 0.0126006809	 0.0195397761	-0.0047990152	 0.337032
C	 0.9544310903	-0.7833199501	-0.9490024652	-0.275023
C	 0.7413925408	-1.9074366909	 0.0833753815	-0.022775
C	 0.6930822055	-0.8243595785	 1.1971708255	-0.078392
C	-0.1965338167	-1.389446646	 2.2638568676	-0.101239
C	-1.0317287868	-2.2553033366	 1.676634346	-0.086639
C	-0.7974223058	-2.1838527486	 0.1783399089	-0.072386
C	-1.3002495561	-0.7477321623	-0.2397266708	-0.246417
H	 0.9692255018	 1.9538747236	 0.178697328	 0.110061
H	-0.4193448456	 1.9355972296	-0.9174346285	 0.114097
H	-0.6758826613	 1.8891163201	 0.8312322957	 0.115734
H	 0.6315257822	-0.9366069745	-1.9835061678	 0.082836
H	 1.9833454061	-0.4119036073	-0.9325746166	 0.089621
H	 1.3986890208	-2.7744048709	 0.1688971696	 0.058862
H	 1.6492132169	-0.3954560324	 1.5009432605	 0.058187
H	-0.1751934406	-1.1082415488	 3.3095049559	 0.091643
H	-1.8421998033	-2.8031491571	 2.1424681882	 0.090662
H	-1.1957361635	-3.0053792138	-0.4174801542	 0.056808
H	-2.1366816375	-0.4099094391	 0.3771636331	 0.089065
H	-1.5994012054	-0.6945156341	-1.2915993992	 0.090023
204.4842	225.7608	278.0063	378.376	405.3978	451.4466	506.639	593.4573	619.6355	712.3799	759.1293	788.5959	815.8558	822.4759	850.928	888.9377	902.9199	936.2068	937.9315	948.6946	978.0704	986.7819	1017.8605	1034.8417	1072.3784	1084.4021	1114.9752	1130.6761	1147.5029	1177.7571	1223.4903	1228.7444	1241.4855	1256.3327	1273.2141	1286.4964	1317.0458	1348.6564	1357.6953	1412.4296	1485.462	1492.4325	1494.6394	1508.993	1637.447	3019.3626	3040.4796	3047.1796	3081.9405	3088.1487	3094.5822	3096.4322	3098.5577	3104.1411	3111.143	3191.3426	3217.5009
CC12CC3C1C=CC3C2	C[C@@]12C[C@H]3[C@@H]1C=C[C@H]3C2	
InChI=1S/C9H12/c1-9-4-6-2-3-8(9)7(6)5-9/h2-3,6-8H,4-5H2,1H3	InChI=1S/C9H12/c1-9-4-6-2-3-8(9)7(6)5-9/h2-3,6-8H,4-5H2,1H3/t6-,7+,8-,9+/m0/s1
