22
gdb 76204	2.24875	1.38701	1.1937	2.0736	82.9	-0.2252	0.0672	0.2924	1201.9436	0.191644	-404.300636	-404.290614	-404.289669	-404.335016	37.13	
C	-0.0269314053	 0.5977157459	-2.1177256145	-0.324326
N	 0.14080215	-0.3931427036	-1.0652452005	-0.171742
C	 1.376847308	-0.4662557957	-0.2622151364	 0.240915
C	 1.8393996051	-1.881852019	 0.0252671231	-0.442024
C	 2.5085660137	 0.523464237	-0.4738112135	-0.462536
C	 0.0930481202	 0.0187712975	 0.3190096005	 0.246136
C	-0.2444985202	 1.3871137023	 0.9200934179	-0.152861
O	-1.0436785969	 0.7556299008	 1.9411984939	-0.27721
C	-0.8260304494	-0.5634982086	 1.3889219626	-0.14532
H	 0.3609401405	 1.5998181813	-1.8832297253	 0.103157
H	 0.4710784788	 0.2445108638	-3.0259964515	 0.124757
H	-1.0945384549	 0.6969395585	-2.3393760392	 0.126977
H	 2.4641485154	-2.2577018641	-0.7932133509	 0.116428
H	 2.4343421706	-1.921680775	 0.9448836797	 0.113728
H	 0.9854461449	-2.5546358698	 0.1309599499	 0.125814
H	 2.1611254262	 1.5494544933	-0.6121528194	 0.121013
H	 3.1773272296	 0.5171717527	 0.3935859434	 0.124843
H	 3.1071210864	 0.2482908692	-1.3499116168	 0.122077
H	 0.5894928999	 1.9603040964	 1.3452763033	 0.102123
H	-0.8424455427	 2.051884066	 0.2812435184	 0.101073
H	-1.7503264162	-1.0124378491	 1.0033119537	 0.105294
H	-0.3669753839	-1.2431757697	 2.1179235517	 0.101686
99.0537	148.5897	169.1674	174.835	191.7887	196.6139	227.531	266.8995	282.4962	363.0382	450.9145	493.1356	515.007	568.3399	692.8965	730.7739	866.7749	946.2253	948.1976	960.0231	991.5589	999.1457	1028.8926	1096.1962	1113.7465	1129.4742	1146.8683	1150.4323	1157.6897	1166.0723	1191.1562	1219.8296	1263.0215	1304.4106	1355.5452	1406.9134	1418.545	1445.2105	1471.1389	1479.2058	1485.4385	1495.7347	1497.0217	1504.534	1509.4546	1520.3156	1530.4473	2989.2983	2997.9947	3012.1654	3027.3503	3034.6714	3039.064	3054.5813	3068.7847	3086.6448	3091.9583	3101.6051	3122.5726	3124.8454
CN1C(C)(C)C11COC1	CN1C(C)(C)C21COC2	
InChI=1S/C7H13NO/c1-6(2)7(8(6)3)4-9-5-7/h4-5H2,1-3H3	InChI=1S/C7H13NO/c1-6(2)7(8(6)3)4-9-5-7/h4-5H2,1-3H3
