18
gdb 24606	4.85267	1.005	0.89402	1.2629	77.1	-0.2366	0.0075	0.2441	1301.6039	0.150028	-401.969765	-401.962199	-401.961255	-402.002928	28.445	
C	-0.0207027114	 1.6157054048	-0.0125933603	-0.213574
C	 1.5281843289	 1.529258158	 0.0235675443	-0.213014
C	 1.3861697383	 0.0585725102	 0.5348826197	-0.078501
C	-0.0692313089	 0.063793353	-0.0092805226	-0.235553
C	 2.350459975	-0.9694860557	 0.0661483934	 0.244889
C	 2.1969743215	-1.9754494922	-0.8310295037	-0.121784
O	 3.3852625781	-2.6500049381	-0.9356538453	-0.141744
C	 4.2056084189	-2.0018037139	-0.0811696652	 0.073089
N	 3.6657282779	-1.0083149943	 0.5412410275	-0.308321
H	-0.4247997442	 2.033382849	 0.9140352373	 0.104475
H	-0.4807114226	 2.1347285404	-0.8561095771	 0.098114
H	 1.9591957745	 1.5518804746	-0.9813477794	 0.103192
H	 2.0736524647	 2.2310996036	 0.6572013106	 0.104921
H	 1.3795412883	 0.0645398622	 1.6302220182	 0.091265
H	-0.8365015954	-0.4307750287	 0.5907292172	 0.099961
H	-0.1149441809	-0.3303236146	-1.0294695495	 0.099645
H	 1.3863374361	-2.341960684	-1.4354540595	 0.144198
H	 5.2154656411	-2.3735925344	-0.0030121056	 0.148743
41.1644	112.9096	143.3564	224.6093	368.8976	419.6199	542.7464	640.2739	693.4543	727.3145	769.6304	791.0396	849.1678	864.1391	909.3227	933.9106	935.8754	954.767	982.1515	1035.9669	1041.3784	1096.6227	1119.9813	1139.3589	1198.6958	1223.1527	1244.7949	1251.4	1257.7517	1258.1155	1283.2079	1284.634	1339.3479	1385.0124	1477.8043	1486.9128	1509.3375	1560.4965	1625.8799	3045.2978	3052.2013	3059.0481	3063.2139	3101.7497	3112.0653	3125.4711	3272.3489	3298.9479
C1CC(C1)C1=COC=N1	C1CC(C1)c1cocn1	
InChI=1S/C7H9NO/c1-2-6(3-1)7-4-9-5-8-7/h4-6H,1-3H2	InChI=1S/C7H9NO/c1-2-6(3-1)7-4-9-5-8-7/h4-6H,1-3H2
