17
gdb 19109	4.5214	2.1844	2.12396	1.8084	69.57	-0.2199	0.078	0.2979	730.0328	0.144112	-326.636426	-326.630457	-326.629512	-326.66615	24.63	
C	-0.0644795504	 1.6280472669	 0.017456934	-0.425958
C	 0.0402352111	 0.1141608556	 0.0196148527	 0.02834
C	 1.093340393	-0.6170452571	-0.8385198888	-0.026887
C	 2.4977218194	-0.2285559487	-0.3504852017	-0.094143
C	 2.2391739693	-0.2443217948	 1.1728751862	-0.094136
C	 2.6026065242	-1.4978643331	 0.4378810621	-0.028559
N	 1.1261217864	-1.7747826277	 0.1844505205	-0.189576
C	 0.753728478	-0.6376836754	 1.1623159105	-0.02689
H	 0.9138790231	 2.0892400363	 0.1882665772	 0.120287
H	-0.4476230336	 1.9969824759	-0.940066717	 0.117409
H	-0.7433226273	 1.9790104979	 0.8021613465	 0.117409
H	-0.9331268906	-0.3606036408	-0.1505053987	 0.086448
H	 0.9367248028	-0.8592673782	-1.8901663885	 0.07151
H	 3.2699935979	 0.373881267	-0.809891309	 0.088989
H	 2.8145898731	 0.3461003798	 1.8733650718	 0.088989
H	 3.3796733496	-2.2410499107	 0.5620726197	 0.095262
H	 0.259727804	-0.900406803	 2.0983177526	 0.071508
193.006	203.7209	255.4274	540.6236	570.6507	703.5073	757.2232	787.3594	793.1887	809.0871	815.9907	854.072	911.1032	915.4644	929.9882	946.1385	970.6166	1016.9803	1023.1844	1054.9583	1054.9789	1080.615	1086.6365	1147.2632	1153.0634	1187.8349	1204.3932	1227.2501	1230.3447	1294.1572	1312.1621	1361.7222	1375.6279	1408.2146	1494.5352	1498.4757	3029.7862	3048.7461	3094.7192	3101.3788	3107.0919	3110.6862	3187.9958	3196.9798	3210.7671
CC1C2C3C4C3N2C14	C[C@H]1[C@H]2[C@H]3[C@@H]4[C@H]3N2[C@H]14	
InChI=1S/C7H9N/c1-2-5-3-4-6(2)8(5)7(3)4/h2-7H,1H3	InChI=1S/C7H9N/c1-2-5-3-4-6(2)8(5)7(3)4/h2-7H,1H3/t2-,3+,4-,5-,6+,7-
