18
gdb 40108	2.96279	1.64724	1.21766	1.4168	77.67	-0.2393	-0.0002	0.239	1031.0247	0.149246	-401.87977	-401.872478	-401.871534	-401.91148	28.952	
C	-0.0792129272	 1.4734585789	-0.0331700529	-0.275947
N	 1.2242139359	 0.7907599229	 0.0953950345	-0.378713
C	 0.0008710668	-0.0046639358	 0.0174447391	 0.301554
C	-0.4525314017	-0.8372997306	 1.24563133	-0.311844
C	-1.6449224513	-1.6104415991	 0.6875575379	-0.2046
C	-1.541235825	-1.6596254603	-0.6364061109	 0.192829
C	-2.2754717216	-1.4274821816	-1.9331387717	-0.153915
O	-1.3070095792	-0.3735232043	-2.2422506332	-0.309953
C	-0.4086389066	-0.8550290225	-1.1812128877	 0.014517
H	-0.3911904741	 2.029755178	 0.8469541024	 0.115843
H	-0.3473463086	 1.9263630682	-0.9834636826	 0.129362
H	 1.708270315	 0.789175414	-0.7995698368	 0.232029
H	 0.362757044	-1.4808832333	 1.6007816412	 0.119324
H	-0.738675941	-0.2003617202	 2.0891005353	 0.114114
H	-2.4869419423	-1.9243377134	 1.2930155156	 0.103093
H	-2.2224529266	-2.2332865025	-2.6766165766	 0.110082
H	-3.3023938859	-1.0536195509	-1.8670001393	 0.122703
H	 0.4405983595	-1.3818460475	-1.6406152142	 0.079522
91.0553	203.2418	256.8227	275.0322	325.1698	392.8134	482.1291	508.191	646.1794	746.6492	779.5962	833.8824	864.4882	893.6478	914.6246	928.0949	942.3308	952.6313	981.8161	994.8279	1015.3936	1023.2785	1059.6805	1111.3484	1127.1109	1137.8634	1162.1058	1229.595	1261.123	1276.9679	1280.8146	1302.0158	1336.6029	1344.5118	1397.689	1484.6752	1510.3151	1514.2198	1740.6165	2992.2508	3016.5349	3024.6153	3073.2427	3077.0218	3107.7862	3197.3127	3201.6854	3492.0176
C1NC11CC=C2COC12	C1N[C@]21C[CH][C]1CO[C@@H]21	
InChI=1S/C7H9NO/c1-2-7(4-8-7)6-5(1)3-9-6/h1,6,8H,2-4H2	InChI=1S/C7H9NO/c1-2-7(4-8-7)6-5(1)3-9-6/h1,6,8H,2-4H2/t6-,7+/m1/s1
