17
gdb 94506	3.07402	0.86401	0.77519	3.6007	80.84	-0.265	-0.0656	0.1994	1490.2174	0.134418	-421.791209	-421.781966	-421.781022	-421.826876	32.434	
O	 0.4682432874	 1.2534835592	-0.3052819911	-0.420745
C	 0.1246719345	 0.0237898865	 0.2444415136	 0.168938
C	-0.4763867967	-0.0724413019	 1.6704667152	-0.254144
C	-1.3803584533	-1.2285634965	 1.173111261	-0.227476
C	-1.1347562805	-0.7638942823	-0.3071792496	-0.245235
C	-2.1555006421	 0.1280958204	-0.8050604944	 0.116291
C	-2.9697155766	 0.9388002755	-1.18699226	 0.00144
C	-3.9621701339	 1.8650118453	-1.665078661	 0.026017
O	-4.011129572	 3.0339273562	-1.3542982031	-0.232671
H	-0.3256817589	 1.8022105097	-0.3380666882	 0.290879
H	 1.0062114377	-0.6159551573	 0.1462898333	 0.10146
H	 0.2088795603	-0.2680118813	 2.4971784945	 0.109689
H	-1.0645020522	 0.8209838701	 1.9009971832	 0.115859
H	-0.9358905271	-2.2122842814	 1.3388939688	 0.116908
H	-2.4164158301	-1.2431970717	 1.5106052146	 0.121637
H	-0.9267758153	-1.5526493627	-1.0350965546	 0.110194
H	-4.7025875512	 1.4203787622	-2.360448122	 0.100961
34.7925	65.1353	90.2353	150.4722	186.4614	269.498	337.0089	391.7729	425.9029	458.3751	572.3414	622.2708	684.2335	747.0634	784.7825	878.5094	916.2822	953.9094	972.8674	1021.7043	1045.1543	1069.3742	1139.2444	1160.8336	1191.3064	1221.4853	1242.3008	1258.9438	1260.3576	1334.1736	1351.6652	1422.1038	1439.362	1481.1756	1495.9531	1763.4711	2309.662	2922.5538	3062.5367	3068.2275	3076.8463	3083.7267	3122.3206	3143.8971	3772.3087
OC1CCC1C#CC=O	O[C@H]1CC[C@H]1C#CC=O	
InChI=1S/C7H8O2/c8-5-1-2-6-3-4-7(6)9/h5-7,9H,3-4H2	InChI=1S/C7H8O2/c8-5-1-2-6-3-4-7(6)9/h5-7,9H,3-4H2/t6-,7+/m1/s1
