17
gdb 99491	2.49701	1.11247	0.81028	2.1121	70.84	-0.2685	0.0074	0.2759	1385.6858	0.134622	-455.184646	-455.174367	-455.173423	-455.22132	34.807	
C	-0.2084889822	 1.4059774271	 0.1371744054	-0.340434
N	-0.1631158824	-0.0340363296	 0.3187174102	-0.336113
C	 0.9426365843	-0.6719303189	 0.7682667947	 0.4475
O	 1.9877330142	-0.123669762	 1.0651078547	-0.377836
C	 0.8443876376	-2.2101846693	 0.9149372233	-0.297455
C	 1.2695209534	-2.6273205846	 2.3522544395	-0.063258
O	 1.3868814009	-4.0215983629	 2.4882636549	-0.415598
C	-0.4644066488	-2.7687668078	 0.5909450057	 0.271472
N	-1.5175913763	-3.1920178377	 0.3655914097	-0.336895
H	 0.7719554764	 1.80296957	 0.4007781077	 0.175586
H	-0.4340104443	 1.661954062	-0.903031544	 0.136583
H	-0.9663100523	 1.8600425188	 0.7841520221	 0.136195
H	-0.9842078422	-0.5775222199	 0.1027853726	 0.271356
H	 1.5813649368	-2.637969182	 0.2260776034	 0.164962
H	 2.2542088736	-2.1927578374	 2.5282145583	 0.154524
H	 0.5659262171	-2.1941904923	 3.0769988543	 0.110689
H	 0.5040400741	-4.4074530335	 2.4806259774	 0.29872
35.15	64.6976	98.8893	130.3205	135.9041	186.604	248.9186	293.5944	351.6818	370.0002	406.3331	503.5865	517.9971	573.91	667.7121	774.5225	833.7353	900.1556	1029.4853	1058.8459	1083.6437	1096.6444	1153.4157	1176.3808	1188.0202	1237.3912	1270.0695	1329.8534	1391.0804	1404.5989	1440.5107	1494.8075	1499.0236	1506.2153	1575.6909	1783.752	2342.3028	3010.2152	3037.3862	3064.6503	3093.6959	3135.9477	3159.9598	3627.6281	3807.1559
CNC(=O)C(CO)C#N	CNC(=O)[C@@H](CO)C#N	
InChI=1S/C5H8N2O2/c1-7-5(9)4(2-6)3-8/h4,8H,3H2,1H3,(H,7,9)	InChI=1S/C5H8N2O2/c1-7-5(9)4(2-6)3-8/h4,8H,3H2,1H3,(H,7,9)/t4-/m1/s1
