18
gdb 69813	3.25683	1.6113	1.26879	3.0572	76.92	-0.2423	-0.0027	0.2396	1019.943	0.14882	-401.915289	-401.907863	-401.906918	-401.946754	29.964	
C	-0.0820060351	 1.5190444904	 0.0241725498	-0.480064
C	 0.0488001722	 0.0142876118	 0.0005711564	 0.371889
O	-0.7035460612	-0.6668901129	 1.0334398132	-0.271944
C	 0.7131153566	-0.714113041	 1.1080525481	-0.013708
C	 1.3945278777	-2.0277828371	 0.8403681174	-0.075972
N	 0.539882819	-3.1808490183	 0.5378292673	-0.317365
C	 1.3553838782	-2.5803362017	-0.5502480927	-0.102229
C	 0.6511337959	-1.8008833106	-1.5906126838	-0.041631
C	 0.055429722	-0.6303670671	-1.3391898899	-0.118952
H	 0.7315459075	 1.9921744013	-0.5360057304	 0.123071
H	-1.0285345345	 1.8276071652	-0.4337840784	 0.127952
H	-0.065198994	 1.8913338629	 1.0511788811	 0.128037
H	 1.1477813984	-0.1251652444	 1.9167740021	 0.081959
H	 2.3001902183	-2.1939494406	 1.4183659939	 0.082005
H	 0.999144718	-4.0292695621	 0.8617364273	 0.23267
H	 2.2116260344	-3.1577879301	-0.8910667931	 0.087224
H	 0.6448638009	-2.2051712742	-2.5992435052	 0.096564
H	-0.4328796443	-0.0868234215	-2.1440024331	 0.090495
161.5459	176.6259	204.3106	313.3025	343.218	391.4579	481.8955	499.8442	569.5482	660.1235	700.6775	720.6891	796.0159	821.6103	831.8525	878.3357	906.6786	928.3738	963.4655	984.703	1011.5427	1042.2552	1072.7223	1089.2494	1118.1573	1170.9223	1189.9989	1218.7808	1233.1857	1254.8464	1331.3753	1394.6007	1410.3434	1428.6379	1446.7488	1458.8935	1484.794	1496.6616	1700.256	3033.6173	3095.6039	3096.5607	3125.273	3127.917	3140.8233	3151.291	3173.1197	3491.7678
CC12OC1C1NC1C=C2	C[C@]12O[C@H]1[C@H]1N[C@H]1C=C2	
InChI=1S/C7H9NO/c1-7-3-2-4-5(8-4)6(7)9-7/h2-6,8H,1H3	InChI=1S/C7H9NO/c1-7-3-2-4-5(8-4)6(7)9-7/h2-6,8H,1H3/t4-,5-,6-,7+/m0/s1
