21
gdb 94568	3.13181	1.11375	0.90084	2.7069	77.89	-0.2421	0.0667	0.3088	1333.3163	0.182466	-424.18219	-424.172981	-424.172037	-424.218567	32.683	
C	-0.3541770265	 1.4695484798	-0.1187511685	-0.414093
C	-0.0069533857	-0.0120821092	-0.0510590799	-0.058056
C	 1.3049602417	-0.4546997696	-0.7370941212	-0.076245
O	 1.8690790826	-0.9071350577	 0.510259156	-0.298423
C	 0.6604696333	-0.5810496393	 1.237305958	 0.12774
C	 0.9412818005	 0.3212186742	 2.4195702639	-0.039655
C	-0.2235342009	 0.4905117645	 3.4221536909	-0.089806
O	 0.4628426013	-0.2812655849	 4.4255426517	-0.272539
C	 1.6473859559	-0.3773296679	 3.6046080864	-0.087555
H	 0.5002052944	 2.1017262433	 0.1425486423	 0.123718
H	-0.6645708494	 1.7408276109	-1.1335257775	 0.120189
H	-1.1799249883	 1.7211458248	 0.5553527667	 0.122111
H	-0.8710347987	-0.605812223	-0.359876112	 0.081638
H	 1.2117491693	-1.2704508891	-1.4648095444	 0.100253
H	 1.8988601667	 0.3527744406	-1.1853319844	 0.098429
H	 0.172591571	-1.4987442911	 1.6001566832	 0.075805
H	 1.415765509	 1.2486841213	 2.0955352969	 0.077717
H	-0.4094437315	 1.5219680009	 3.7486063361	 0.097972
H	-1.180254094	 0.0341647475	 3.1347814747	 0.098049
H	 1.9523407301	-1.4166200954	 3.4354264449	 0.113441
H	 2.4904653195	 0.1765987996	 4.0357166662	 0.099309
18.2168	54.8511	64.807	148.5874	225.6953	255.2298	307.9938	359.9854	419.4629	500.0169	745.8699	805.5332	834.7888	879.8607	888.7518	918.0519	930.5525	961.3073	1006.6267	1020.3146	1040.1347	1046.0691	1061.4131	1080.5812	1128.214	1154.2464	1157.0443	1163.8896	1189.7187	1211.9458	1246.4919	1269.2539	1288.472	1308.8438	1313.0891	1352.3086	1377.665	1382.8937	1413.7649	1421.516	1496.3767	1501.2771	1512.4583	1527.3036	1538.2834	2979.9346	3001.1565	3007.047	3018.5831	3032.4362	3040.9053	3045.9584	3061.8669	3071.8432	3096.0203	3097.9504	3109.8355
CC1COC1C1COC1	C[C@H]1CO[C@H]1C1COC1	
InChI=1S/C7H12O2/c1-5-2-9-7(5)6-3-8-4-6/h5-7H,2-4H2,1H3	InChI=1S/C7H12O2/c1-5-2-9-7(5)6-3-8-4-6/h5-7H,2-4H2,1H3/t5-,7+/m0/s1
