21
gdb 31615	2.88999	1.18237	0.89744	1.366	88.67	-0.1819	0.0531	0.235	1373.8571	0.182598	-383.301523	-383.291397	-383.290453	-383.336903	36.354	
C	 0.2259558119	 0.845108722	-0.6568827205	-0.325842
N	-0.4519839941	 0.1023033364	 0.413389438	-0.383196
C	 0.3954185401	-0.5397887334	 1.3386570491	 0.286998
C	 0.9343047471	-0.1263273367	 2.5396509911	-0.342345
C	 1.6908789353	-1.2093798036	 3.0763405695	 0.287607
C	 2.4503940413	-1.2295821967	 4.3685276388	-0.497824
C	 1.5920342902	-2.240613735	 2.1701915273	-0.201486
N	 0.7971261687	-1.8417235556	 1.1196099638	-0.012949
C	 0.4328744553	-2.6515954552	-0.0216292369	-0.339858
H	 0.8025697448	 0.1506746368	-1.2751692163	 0.126198
H	-0.5251088807	 1.3185304418	-1.296610493	 0.115387
H	 0.915832785	 1.6181132103	-0.2856701972	 0.110504
H	-1.0918144355	 0.7133168758	 0.9055013559	 0.232419
H	 0.795191984	 0.8479870466	 2.9858751322	 0.077913
H	 1.7946183566	-1.0562392971	 5.2304525973	 0.119171
H	 2.943791331	-2.194543166	 4.520190892	 0.114035
H	 3.226453991	-0.4551442409	 4.3995780863	 0.119004
H	 2.0221998552	-3.2303189849	 2.1871684607	 0.103363
H	 0.2462957419	-3.6806990036	 0.2971829914	 0.131278
H	-0.4783149352	-2.2398148148	-0.4591810948	 0.154419
H	 1.2188690763	-2.6624663963	-0.7871484946	 0.125207
57.4625	102.2771	127.0455	137.605	166.1273	182.0861	254.5179	265.3445	308.1789	405.36	487.5755	574.7654	633.5648	636.8815	669.5571	708.2841	766.7181	779.3459	805.7607	991.0701	1014.2052	1037.5908	1061.9156	1073.0145	1138.2003	1153.5553	1157.0391	1168.3926	1223.9282	1244.3772	1372.7345	1393.2298	1418.3967	1425.3408	1445.9137	1454.0681	1482.6019	1483.6127	1487.16	1495.9283	1509.5496	1513.2728	1521.3779	1561.2055	1622.0263	2987.2918	3018.6279	3020.7707	3064.408	3073.3139	3089.7318	3098.2396	3109.9116	3140.1267	3230.0317	3246.9414	3553.5907
CNC1=CC(C)=CN1C	CNc1cc(C)cn1C	
InChI=1S/C7H12N2/c1-6-4-7(8-2)9(3)5-6/h4-5,8H,1-3H3	InChI=1S/C7H12N2/c1-6-4-7(8-2)9(3)5-6/h4-5,8H,1-3H3
