17
gdb 76059	2.72903	1.29031	1.12389	1.4157	75.66	-0.2243	0.0344	0.2586	1140.7191	0.133254	-421.74749	-421.738435	-421.737491	-421.781514	33.177	
O	 0.0442760712	 1.4681775742	 0.0363218722	-0.4206
C	 0.0162186346	 0.0789791033	-0.0141088133	 0.015334
C	-0.5344594333	-0.7097078212	 1.1918445742	-0.370279
C	-0.9532450895	 0.0229667518	 2.3428435236	 0.315559
C	-1.2853573154	 0.7055511345	 3.2789573653	-0.445951
C	-1.3062374231	-0.5912414635	-0.1181087656	 0.429278
C	-2.6663192591	 0.0311549136	-0.371010256	-0.35451
C	-2.886267756	-1.2262188186	-1.2437850085	-0.078657
O	-1.5571942809	-1.7253627603	-0.931111257	-0.309288
H	 0.1167288615	 1.7351556016	 0.961762436	 0.295228
H	 0.859305305	-0.3797026517	-0.5286711877	 0.110172
H	-0.0662548972	-1.6747366908	 1.3639685713	 0.127433
H	-1.5966397134	 1.2739477482	 4.1202145303	 0.201375
H	-3.3095974568	 0.1207702831	 0.5054427178	 0.125989
H	-2.6332216052	 0.9829613788	-0.9023164942	 0.131741
H	-3.6629205972	-1.9170770347	-0.9001929529	 0.11278
H	-3.0020650754	-1.0484369382	-2.3176679153	 0.114398
79.0423	107.0205	113.5922	175.4555	194.8266	258.0693	346.7249	381.9048	457.8514	513.2625	581.6466	627.5571	651.4585	659.3216	794.0516	806.0534	865.5704	882.1172	927.3736	960.5821	1008.8678	1049.0121	1081.269	1113.721	1130.0247	1161.861	1182.2303	1207.2254	1237.9667	1297.183	1332.4745	1358.0937	1370.1138	1444.6576	1491.7084	1529.4864	2221.5716	3038.8091	3086.2036	3087.385	3120.1106	3143.1512	3153.778	3501.582	3759.7312
OC1C(C#C)C11CCO1	O[C@H]1[C@@H](C#C)[C@]21CCO2	
InChI=1S/C7H8O2/c1-2-5-6(8)7(5)3-4-9-7/h1,5-6,8H,3-4H2	InChI=1S/C7H8O2/c1-2-5-6(8)7(5)3-4-9-7/h1,5-6,8H,3-4H2/t5-,6+,7+/m1/s1
