15
gdb 124269	4.35947	1.08384	0.87744	1.5176	70.02	-0.2751	-0.084	0.191	1279.1662	0.110834	-453.972723	-453.964084	-453.96314	-454.006853	29.909	
C	-0.0262481617	 1.4780323405	-0.1048347656	-0.486838
C	-0.0674736631	-0.0262288584	 0.0298566793	 0.296469
O	-0.1280891967	-0.6108089032	 1.0826211998	-0.261042
C	-0.0287392343	-0.8112225915	-1.2514478719	 0.32171
N	-0.051383711	-2.0998924426	-1.4091045047	-0.317329
C	 0.006319125	-2.229681853	-2.7780994028	 0.3552
C	 0.0070443566	-3.5439575527	-3.4772665197	-0.48959
N	 0.0612045228	-1.0879195586	-3.4238024533	-0.158406
O	 0.0381697006	-0.1342643394	-2.4090779373	-0.194068
H	 0.8836325676	 1.7893256504	-0.6286701727	 0.158199
H	-0.8704545327	 1.8303975903	-0.7067851691	 0.15821
H	-0.060001538	 1.9255135419	 0.8883139477	 0.151503
H	-0.899751213	-4.1029191933	-3.2288195617	 0.156326
H	 0.0581764051	-3.3999036876	-4.5571987423	 0.153333
H	 0.8617447128	-4.1434276228	-3.1508236456	 0.156323
52.6522	128.0179	131.665	150.5136	161.6674	310.3182	314.4129	391.3295	488.5886	551.1594	616.1638	689.1571	716.4092	746.9305	939.3093	952.5902	998.394	1033.1791	1045.2256	1054.6669	1071.8906	1174.6041	1281.9587	1362.6548	1387.9886	1417.0837	1458.7954	1468.4271	1472.2916	1475.2038	1537.8018	1609.431	1815.0293	3045.8982	3055.3453	3108.025	3117.2566	3154.4203	3164.2151
CC(=O)C1=NC(C)=NO1	CC(=O)c1nc(C)no1	
InChI=1S/C5H6N2O2/c1-3(8)5-6-4(2)7-9-5/h1-2H3	InChI=1S/C5H6N2O2/c1-3(8)5-6-4(2)7-9-5/h1-2H3
