18
gdb 19719	3.38195	2.40581	2.37893	1.4027	68.46	-0.2463	0.0814	0.3277	721.6692	0.158111	-347.792647	-347.787026	-347.786082	-347.821911	24.596	
C	-0.0149969298	 1.5226743793	 0.1532933281	-0.302429
C	 1.3046594811	 0.8074828131	 0.0019746547	-0.035487
C	 0.0086392925	 0.0209527746	 0.0112888589	-0.035487
C	 0.0287752104	-0.6293623242	-1.3883833556	 0.06779
C	-0.2604977579	 0.3896113354	-2.515054021	-0.226261
C	 1.0753243178	 1.200318261	-2.5246446481	-0.226266
C	 1.8574924852	 0.4804623781	-1.4015337979	 0.067792
O	 1.4338024852	-0.8852699341	-1.5909762114	-0.263213
H	-0.2430955022	 1.9102630366	 1.1420350808	 0.109135
H	-0.3977565198	 2.1438923401	-0.6473866287	 0.11433
H	 1.9924152916	 0.7795996369	 0.8391528274	 0.08747
H	-0.2753043648	-0.5966388838	 0.8554515797	 0.08747
H	-0.5256741214	-1.5651860866	-1.4529582407	 0.072463
H	-0.4086325533	-0.1374899908	-3.4597472477	 0.103777
H	-1.145429429	 1.0022056813	-2.3276630578	 0.101339
H	 1.601339853	 1.0823734064	-3.4741810368	 0.103776
H	 0.9423624372	 2.2692833207	-2.3426187696	 0.10134
H	 2.9428501142	 0.5398023861	-1.4778900643	 0.072462
281.638	339.4217	360.4139	495.4345	596.0946	620.5129	731.169	743.6977	790.3783	810.681	834.6201	877.7358	897.8226	921.1768	927.0403	949.6314	970.6992	991.4425	1008.8951	1042.3869	1083.4944	1084.9815	1099.7017	1110.4293	1136.6958	1203.558	1229.709	1232.1234	1252.9589	1299.3951	1301.5876	1332.261	1337.9698	1338.6748	1374.64	1486.21	1487.4844	1512.839	3066.8851	3075.2541	3105.7675	3122.4578	3122.5332	3127.6128	3128.1607	3170.379	3178.614	3209.5795
C1C2C1C1CCC2O1	C1[C@H]2[C@@H]1[C@H]1CC[C@@H]2O1	
InChI=1S/C7H10O/c1-2-7-5-3-4(5)6(1)8-7/h4-7H,1-3H2	InChI=1S/C7H10O/c1-2-7-5-3-4(5)6(1)8-7/h4-7H,1-3H2/t4-,5+,6-,7+
