19
gdb 53166	3.88525	0.97713	0.93326	2.1447	83.5	-0.2412	0.0433	0.2845	1347.8074	0.159866	-385.849726	-385.841217	-385.840273	-385.885534	31.425	
C	 0.0792225592	 1.6007767101	-0.1008251752	-0.500721
C	 0.0433220716	 0.1459904601	-0.0567112654	 0.089201
C	 0.0207409886	-1.0589720023	-0.0281160773	 0.047176
C	-0.0141117507	-2.5043035583	 0.0147173507	-0.18406
C	 0.0927227602	-3.3025158289	 1.3527482185	 0.068098
C	-0.9910351233	-2.6815273809	 2.2546450737	-0.220088
C	-2.1483327302	-2.684719516	 1.2045028294	-0.220088
C	-1.3537684287	-3.3065259158	 0.0402010986	 0.068097
O	-0.6289632798	-4.3881553376	 0.6980678666	-0.299394
H	 1.0931888272	 1.9783026724	 0.0718890357	 0.150307
H	-0.2516249877	 1.9766887195	-1.0753633406	 0.150279
H	-0.5724487973	 2.0401481446	 0.6623997256	 0.148646
H	 0.6548817654	-2.9562933006	-0.7211601159	 0.107055
H	 1.0496753508	-3.5949691916	 1.7839677014	 0.082157
H	-1.1967520108	-3.3189558831	 3.1165737762	 0.106148
H	-0.7258836309	-1.6810209884	 2.6032847237	 0.109442
H	-2.9843640444	-3.3238674636	 1.4944961265	 0.106143
H	-2.5240070383	-1.6859728032	 0.9716087171	 0.109447
H	-1.874757811	-3.6030790364	-0.869669049	 0.082155
6.2533	90.6055	98.458	254.4012	263.6321	330.2265	397.544	472.0937	493.0739	531.8218	740.7718	782.8417	835.0529	838.8297	863.6781	866.5429	902.1903	924.3872	988.9209	992.6094	1002.162	1046.7321	1052.2871	1054.5928	1125.5404	1136.3332	1194.3654	1197.7295	1218.2751	1249.3849	1267.8184	1303.736	1306.7934	1335.655	1361.5368	1414.8525	1472.912	1477.7941	1478.104	1493.7635	2362.6936	3026.3674	3071.6081	3078.8134	3086.3966	3087.0986	3087.6927	3118.1	3125.6781	3130.3465	3134.0003	6.2203	90.6052	98.4578	254.4013	263.6321	330.2268	397.5445	472.0938	493.0745	531.8219	740.7718	782.8418	835.0529	838.8298	863.678	866.5429	902.1903	924.3872	988.9209	992.6094	1002.162	1046.7322	1052.2873	1054.593	1125.5405	1136.3332	1194.3655	1197.7296	1218.2751	1249.385	1267.8184	1303.7361	1306.7935	1335.6551	1361.5367	1414.8527	1472.9121	1477.7945	1478.1043	1493.7635	2362.6938	3026.3674	3071.6081	3078.8134	3086.3966	3087.0986	3087.6926	3118.1	3125.6781	3130.3465	3134.0003
CC#CC1C2CCC1O2	CC#C[C@H]1[C@H]2CC[C@@H]1O2	
InChI=1S/C8H10O/c1-2-3-6-7-4-5-8(6)9-7/h6-8H,4-5H2,1H3	InChI=1S/C8H10O/c1-2-3-6-7-4-5-8(6)9-7/h6-8H,4-5H2,1H3/t6-,7+,8-
