22
gdb 116318	2.90557	1.25326	0.9712	1.98	81.74	-0.239	0.0683	0.3073	1287.8806	0.196486	-404.330745	-404.322109	-404.321164	-404.364098	33.459	
C	-0.0931992691	 1.5498787631	 0.0706399639	-0.392649
C	-0.0119600799	 0.0223611241	-0.0257416754	-0.178666
C	 0.7594537058	-0.5033773021	-1.2474947295	 0.015232
C	 2.239046379	-0.0814785587	-1.2528390314	-0.099479
O	 2.9373901788	-0.6733556188	-2.3356305377	-0.251869
C	 3.1175805909	-2.0690801624	-2.1744040726	-0.077075
C	 1.8369330038	-2.8039870706	-1.8024924763	-0.064883
N	 1.4679483231	-2.7789634842	-0.3723477598	-0.336473
C	 0.6636343603	-2.0161986479	-1.3430491343	-0.034677
H	 0.8921554119	 2.004960034	 0.2110930883	 0.121167
H	-0.5318553703	 1.9824585855	-0.8358086483	 0.113495
H	-0.7159223588	 1.8541971055	 0.917657944	 0.112356
H	 0.4502398892	-0.3879724485	 0.8803619394	 0.111525
H	-1.0302425247	-0.3874890889	-0.0582556397	 0.087591
H	 0.3035604871	-0.094461364	-2.1605943237	 0.073838
H	 2.3322097023	 0.9983685653	-1.3915170904	 0.104059
H	 2.7087197077	-0.3503146725	-0.2937498378	 0.102497
H	 3.4918937097	-2.4316757452	-3.1367088043	 0.103758
H	 3.8835085076	-2.270551282	-1.408084423	 0.096126
H	 1.6467707521	-3.7238229433	-2.3504963154	 0.086144
H	 0.9905364713	-3.6384128702	-0.1154549644	 0.229366
H	-0.3257215376	-2.4018913981	-1.5851621815	 0.078617
82.1171	111.9978	169.0406	223.7144	275.7612	299.0549	364.6041	395.7027	434.9077	483.7661	602.8309	687.9499	774.4477	780.9129	830.3994	882.4772	918.0897	926.4505	944.3491	981.0518	988.2573	1016.0011	1056.5526	1080.0593	1117.1307	1125.3779	1142.0235	1154.7123	1195.9641	1224.3021	1261.4456	1264.7496	1281.4319	1318.2958	1337.8131	1356.0464	1367.5608	1393.5193	1408.9443	1414.6696	1419.0576	1460.4637	1486.9259	1490.148	1498.876	1504.1763	1508.4342	2974.7201	2988.7107	3007.6611	3017.3023	3031.7971	3057.3391	3076.8625	3094.6418	3098.3743	3106.5598	3110.6238	3133.1851	3507.1365
CCC1COCC2NC12	CC[C@H]1COC[C@H]2N[C@@H]12	
InChI=1S/C7H13NO/c1-2-5-3-9-4-6-7(5)8-6/h5-8H,2-4H2,1H3	InChI=1S/C7H13NO/c1-2-5-3-9-4-6-7(5)8-6/h5-8H,2-4H2,1H3/t5-,6+,7-/m0/s1
