24
gdb 6234	2.38188	1.81908	1.79081	0.0443	84.38	-0.2733	0.0745	0.3478	996.2306	0.221949	-314.276806	-314.26739	-314.266446	-314.309393	37.575	
C	-0.6157697703	 1.4171193203	 0.1765173174	-0.455022
C	-0.013635761	 0.0250994659	-0.0090393157	 0.313327
C	-1.0599446199	-0.8948417016	-0.651098045	-0.436945
C	 1.3377277621	-0.0578269902	-0.7839382285	-0.256451
C	 1.848883878	-1.0937762831	 0.2480082803	-0.256451
C	 0.7274589521	-0.642624768	 1.2341101825	 0.313327
C	 1.2712930889	 0.3858417288	 2.2340073778	-0.436945
C	-0.0025274777	-1.7469304535	 1.9972252574	-0.455022
H	 0.1021188152	 2.1311180887	 0.5881192008	 0.109175
H	-0.9581914228	 1.8139895169	-0.7866208431	 0.108152
H	-1.4850937023	 1.3922765193	 0.8449033356	 0.108367
H	-1.3969736847	-0.4676104546	-1.6025821156	 0.107277
H	-0.6633384659	-1.8920240536	-0.8649395917	 0.110668
H	-1.941372966	-1.0152671647	-0.0117726809	 0.110085
H	 1.2814621888	-0.3763015091	-1.8287715295	 0.088148
H	 1.8975258592	 0.8810139728	-0.743251731	 0.09322
H	 1.7113389592	-2.1238163567	-0.0933866576	 0.09322
H	 2.8790135785	-0.9856389863	 0.5993024442	 0.088148
H	 1.8584200449	 1.1705559771	 1.7472807839	 0.110668
H	 0.465621311	 0.8706494798	 2.7961546764	 0.110085
H	 1.9279221673	-0.1104171403	 2.9578875147	 0.107277
H	 0.6716745448	-2.2154585626	 2.7240861051	 0.108152
H	-0.8579352187	-1.3495767021	 2.5571080693	 0.108367
H	-0.3721678308	-2.5361449632	 1.3376186931	 0.109175
122.9719	201.4992	215.1888	270.2305	271.4254	283.1814	299.0273	344.5221	347.7102	365.9674	379.0766	450.6604	460.256	592.9891	650.4884	743.5862	845.0208	883.5331	909.6218	942.7994	946.5774	957.1237	964.3375	993.1672	1000.6122	1038.8982	1045.9307	1173.2832	1181.5195	1221.1156	1222.8311	1234.31	1248.3446	1282.9829	1293.201	1304.2056	1398.498	1403.1482	1413.5148	1425.2282	1478.9099	1479.6976	1482.9524	1487.9716	1493.1725	1500.6681	1501.9749	1507.7649	1511.224	1518.5618	3019.3759	3020.4214	3024.6684	3028.0454	3045.8367	3052.7119	3076.629	3077.1241	3086.4325	3087.64	3089.1545	3098.0643	3098.8665	3105.1361	3110.7801	3111.9686
CC1(C)CCC1(C)C	CC1(C)CCC1(C)C	
InChI=1S/C8H16/c1-7(2)5-6-8(7,3)4/h5-6H2,1-4H3	InChI=1S/C8H16/c1-7(2)5-6-8(7,3)4/h5-6H2,1-4H3
