20
gdb 85959	2.93255	1.17601	0.99574	4.7951	74.91	-0.2492	0.0202	0.2694	1262.344	0.171025	-440.317286	-440.308096	-440.307151	-440.351278	34.961	
C	 0.0402917698	 1.6903985925	 0.1292377672	-0.414032
C	 0.0316840134	 0.1714829602	 0.076164928	 0.068401
C	 0.9549086459	-0.5480111201	-0.9460594777	-0.274823
C	 1.3137459689	-1.5987148592	 0.1477596932	 0.135954
N	 2.6966820704	-2.0291933582	 0.3629077737	-0.602396
H	 3.2409845018	-1.2927245684	 0.7990178016	 0.239205
H	 1.8713306478	-3.6674313175	 0.8675499374	 0.304038
H	 3.1470049534	-2.2487652339	-0.5220313258	 0.244075
C	 0.7423401398	-0.6109326853	 1.2156090118	-0.268686
C	 0.4155243238	-2.8456318043	 0.0656277707	 0.425179
O	 0.9667153688	-3.9426124208	 0.602753392	-0.375639
O	-0.6942997409	-2.8366794574	-0.4005754761	-0.348036
H	 1.0596477184	 2.0782020281	 0.243433086	 0.104184
H	-0.3783635759	 2.1203249132	-0.7873360796	 0.120384
H	-0.5539946362	 2.0627204969	 0.9711989039	 0.118413
H	-0.9870104213	-0.2045231433	-0.0400968282	 0.107259
H	 0.4921229592	-0.931612399	-1.8563639959	 0.119984
H	 1.8326701811	 0.0559207513	-1.2006800627	 0.084717
H	 1.5546013225	-0.0257279391	 1.6630128296	 0.091606
H	 0.1314950192	-1.0324145856	 2.0166153611	 0.120215
65.1708	87.6652	200.768	227.6628	253.3437	293.127	302.6321	364.7904	395.6235	415.1094	461.5938	561.597	645.5194	752.1832	758.6775	826.2008	831.8776	855.5564	895.0114	900.5628	941.3043	946.349	1001.5453	1065.7868	1086.3845	1137.1413	1156.6847	1201.0103	1216.6234	1229.0851	1250.3342	1288.4246	1301.0732	1327.7076	1374.8845	1410.7461	1422.9415	1462.1052	1486.8129	1495.7892	1497.1144	1649.7447	1856.1247	3021.2946	3035.2141	3046.8097	3077.6223	3093.5742	3097.6189	3113.0822	3128.3417	3485.192	3497.126	3575.0312
CC1CC([NH3+])(C1)C([O-])=O	C[C@H]1C[C@@](N)(C1)C(=O)O	
InChI=1S/C6H11NO2/c1-4-2-6(7,3-4)5(8)9/h4H,2-3,7H2,1H3,(H,8,9)	InChI=1S/C6H11NO2/c1-4-2-6(7,3-4)5(8)9/h4H,2-3,7H2,1H3,(H,8,9)/t4-,6+
