15
gdb 50515	4.2275	0.92233	0.80193	0.8521	72.6	-0.2521	-0.0815	0.1706	1347.9916	0.110426	-457.779086	-457.770626	-457.769682	-457.813421	29.088	
O	-0.9376382957	 0.8927169303	-0.1386533194	-0.232058
C	 0.2569618944	 0.7920178579	-0.0851411585	 0.127475
C	 1.2066515019	 1.9982064236	-0.0010527787	 0.012809
O	 2.5140627362	 1.5696624681	 0.3387517567	-0.280993
C	 3.4535131114	 1.9639864071	-0.669531006	-0.163787
C	 2.6201012825	 2.6450208711	-1.723296976	 0.212487
C	 3.171070742	 3.1938119558	-2.9652398369	 0.073766
O	 4.3466054433	 3.1421915868	-3.2504812383	-0.257463
C	 1.3414467728	 2.6762697669	-1.3353672572	-0.213687
H	 0.7925643559	-0.1824755221	-0.1050347897	 0.103236
H	 0.8004422746	 2.679120947	 0.7639447362	 0.127247
H	 4.2081396846	 2.6369499829	-0.2409561367	 0.130637
H	 3.9797949794	 1.0823126933	-1.0562212677	 0.132494
H	 2.4278246107	 3.6690232106	-3.6404790994	 0.083393
H	 0.499724226	 3.0971134106	-1.8704316884	 0.144443
57.5904	75.5438	126.7194	164.265	201.7273	270.2335	366.7207	444.3245	496.6657	517.3482	708.27	787.0133	858.6173	897.5051	911.8412	962.2541	1013.9223	1035.0228	1044.201	1064.0464	1110.6267	1189.2124	1208.2111	1257.7065	1291.0909	1318.4665	1379.2066	1387.6543	1418.6522	1519.0974	1684.8339	1783.3573	1838.8538	2901.6099	2904.6226	2982.6835	3016.9638	3047.5691	3227.2462
O=CC1OCC(C=O)=C1	O=C[C@H]1OCC(=C1)C=O	
InChI=1S/C6H6O3/c7-2-5-1-6(3-8)9-4-5/h1-3,6H,4H2	InChI=1S/C6H6O3/c7-2-5-1-6(3-8)9-4-5/h1-3,6H,4H2/t6-/m0/s1
