18
gdb 90987	2.75654	1.87631	1.37251	2.4127	70.55	-0.2292	0.0534	0.2827	960.1479	0.148321	-439.015315	-439.007791	-439.006847	-439.046844	30.267	
C	-0.0958713982	 1.5443146023	-0.0711775606	-0.397171
C	 0.0095592233	 0.0305853673	 0.0103556322	 0.064954
O	 0.8583598325	-0.495740869	-1.0318141594	-0.29292
C	 1.8562471383	-1.19229788	-0.3174764318	 0.152991
C	 1.257027801	-1.9590619495	 0.8874550906	-0.156422
N	 2.5467431001	-1.7434511037	 1.6376215106	-0.348519
C	 2.2759598485	-0.4212962412	 0.9632120211	-0.119413
C	 0.7425101069	-0.5118275327	 1.2420510071	 0.363412
O	 0.3022687708	-0.1770208571	 2.5162711655	-0.482654
H	 0.8914466974	 2.0075689327	 0.0151527719	 0.123774
H	-0.5359965498	 1.8475119296	-1.0250054683	 0.126526
H	-0.7260356113	 1.922343997	 0.7401516419	 0.118671
H	-0.9889431485	-0.4223396542	-0.0888194645	 0.071158
H	 2.5952501905	-1.6485645898	-0.9696423514	 0.106355
H	 0.7120747748	-2.9046840592	 0.8976125007	 0.076542
H	 2.3222906781	-1.6389660371	 2.6310151634	 0.218764
H	 2.9344608485	 0.4416364585	 1.0646324326	 0.084425
H	-0.5778140426	-0.5468215239	 2.6485072683	 0.289527
144.3984	208.3945	230.9022	279.2075	322.3682	370.8353	437.0554	488.4471	506.2647	672.2376	685.6581	708.5485	798.7922	844.9228	860.396	887.6516	914.1777	940.2809	984.8347	1034.0031	1070.3311	1084.3503	1091.0346	1124.5496	1142.9143	1150.2149	1167.3959	1176.378	1229.8669	1269.8906	1292.9107	1306.2978	1325.052	1328.7036	1377.9116	1401.4067	1406.858	1484.2837	1494.3977	2984.191	3041.6305	3100.1766	3114.5135	3116.9217	3121.7544	3176.4271	3405.599	3799.8864
CC1OC2C3NC2C13O	C[C@H]1O[C@@H]2[C@H]3N[C@@H]2[C@@]13O	
InChI=1S/C6H9NO2/c1-2-6(8)4-3(9-2)5(6)7-4/h2-5,7-8H,1H3	InChI=1S/C6H9NO2/c1-2-6(8)4-3(9-2)5(6)7-4/h2-5,7-8H,1H3/t2-,3-,4-,5+,6-/m1/s1
