18
gdb 30746	3.13135	1.25558	0.91872	0.5737	76.71	-0.1778	0.0473	0.2251	1267.3324	0.146565	-439.101752	-439.092028	-439.091084	-439.137038	34.632	
C	-0.0665249654	 1.3826380042	 0.1298828059	-0.250666
O	 0.3825734657	 0.0518087347	-0.1262042551	-0.271445
C	 0.8303076076	-0.6392862649	 0.931651139	 0.37883
C	 0.8000677244	-1.9806588616	 1.1594901436	 0.05874
C	 0.1676371936	-3.0392232921	 0.3146490159	-0.521728
C	 1.5006200347	-2.1525706102	 2.4119041699	 0.151119
N	 1.6337412622	-3.3830910077	 3.0704620217	-0.605438
C	 1.8824010173	-0.915978196	 2.8306369057	-0.121258
O	 1.4650683142	 0.0349662729	 1.9131207657	-0.20148
H	 0.7544792365	 2.0185669921	 0.473560445	 0.139086
H	-0.4494454348	 1.7572297136	-0.820347402	 0.134032
H	-0.8656104484	 1.3900705129	 0.880256807	 0.126775
H	 0.9085737629	-3.7087034244	-0.1427856283	 0.116606
H	-0.5139542688	-3.6660071491	 0.9018000993	 0.129374
H	-0.4040610268	-2.5848777024	-0.4984733804	 0.13529
H	 1.844206273	-4.1420945836	 2.4342451615	 0.24404
H	 2.3288697675	-3.3639595854	 3.8054416473	 0.241513
H	 2.3831198744	-0.5376996631	 3.7042623084	 0.116611
26.7059	130.9732	136.4378	174.3185	205.2579	220.5873	245.8033	289.6661	347.313	390.7	547.2249	576.8953	579.7518	634.6707	691.7963	727.2616	747.2463	776.1268	927.2608	1040.1829	1067.2432	1091.4544	1117.9286	1174.117	1176.4067	1194.0836	1220.6846	1295.7232	1346.8971	1414.8274	1446.8008	1484.7409	1485.6611	1497.5369	1502.0622	1505.2317	1624.7913	1658.307	1712.4818	3011.2664	3027.5141	3059.5343	3100.076	3116.945	3144.0659	3289.0254	3531.3985	3621.8294
COC1=C(C)C(N)=CO1	COc1c(C)c(N)co1	
InChI=1S/C6H9NO2/c1-4-5(7)3-9-6(4)8-2/h3H,7H2,1-2H3	InChI=1S/C6H9NO2/c1-4-5(7)3-9-6(4)8-2/h3H,7H2,1-2H3
