17
gdb 38116	3.05808	1.97691	1.41313	1.7993	77.35	-0.2387	-0.0043	0.2343	915.7178	0.139277	-380.864055	-380.857595	-380.856651	-380.894644	26.655	
C	-0.1380611868	 1.447206937	 0.1287672838	-0.316039
N	 1.2300459812	 0.9084374307	-0.1013728292	-0.163565
C	 1.9145844796	 0.5714972774	 1.1042264955	 0.028158
N	 1.4952097157	-0.391014184	 1.8259194051	-0.212965
C	 0.2572937495	-0.8907453677	 1.202884688	-0.045881
C	 0.3169605064	-2.3381168375	 0.6371952612	-0.285347
C	-0.1461399893	-2.1811448883	-0.795489485	-0.073623
C	-0.2926202405	-0.9071807236	-1.1661764326	-0.173357
C	 0.0434683527	-0.0075617677	-0.0396001395	 0.32723
H	-0.3706444962	 1.8214353765	 1.1240070057	 0.123714
H	-0.5156688695	 2.0542899995	-0.6894449486	 0.12587
H	 2.8157468168	 1.13135134	 1.3408409077	 0.125568
H	-0.5505005693	-0.8129712705	 1.9377257575	 0.093009
H	 1.3399682977	-2.729463913	 0.6837281519	 0.12865
H	-0.3107782036	-3.0332664824	 1.2049927372	 0.111462
H	-0.3108195356	-3.0358055714	-1.4421562225	 0.102749
H	-0.5800450887	-0.5540331151	-2.1486139962	 0.104366
144.6164	229.7571	329.384	387.1789	453.1543	515.4902	588.8595	626.0039	689.2397	761.3326	789.4599	827.0488	844.3704	906.4117	931.613	941.8259	954.7424	959.5374	971.9335	1034.925	1054.934	1064.9874	1117.2588	1124.3491	1155.3298	1180.6607	1232.7058	1263.7131	1309.5822	1314.5473	1324.7357	1336.1065	1423.8698	1481.5021	1498.6845	1656.3221	1669.3124	3038.9888	3049.8084	3074.9049	3097.1165	3178.5358	3188.7483	3192.2058	3219.5392
C1N2C=NC3CC=CC123	C1N2C=N[C@@H]3CC=C[C@]123	
InChI=1S/C7H8N2/c1-2-6-7(3-1)4-9(7)5-8-6/h1,3,5-6H,2,4H2	InChI=1S/C7H8N2/c1-2-6-7(3-1)4-9(7)5-8-6/h1,3,5-6H,2,4H2/t6-,7-,9?/m1/s1
