13
gdb 43428	3.28045	1.30119	0.93165	5.5018	80.11	-0.2666	-0.1029	0.1638	1147.128	0.091402	-411.834187	-411.82668	-411.825735	-411.866372	27.786	
N	-0.0768189854	 1.3058847545	 0.0104124013	-0.524839
C	 0.0007411404	 0.0348867764	 0.0032985779	 0.408405
N	 1.1148033766	-0.8085571408	-0.0067374827	-0.418476
C	 0.7588474952	-2.1568137492	-0.0121169009	 0.324867
N	 1.4696889409	-3.2085469696	-0.0212523711	-0.516055
C	-0.7321887192	-2.1448772676	-0.0045738391	 0.175556
C	-1.1638908708	-0.8698518765	 0.00432408	-0.25929
C	-1.5141208559	-3.3279788484	-0.0069194016	 0.262779
N	-2.1683992567	-4.2821368292	-0.0086949212	-0.323105
H	 0.8439563842	 1.7483262441	 0.0081495307	 0.222893
H	 2.0671958007	-0.4834521548	-0.0098152517	 0.260787
H	 2.4697605027	-3.0032236849	-0.0251667823	 0.225247
H	-2.1804141525	-0.5075516539	 0.0113270307	 0.16123
130.2464	139.8965	143.1723	318.0396	345.022	375.1628	440.5847	522.2043	531.3147	611.3974	666.9401	690.4769	771.5716	789.2939	855.1674	876.7291	931.8098	952.1755	1082.5435	1101.7948	1157.9006	1222.7499	1335.0746	1365.9182	1406.2977	1645.451	1735.108	1746.685	2355.6877	3269.2855	3466.5202	3475.4541	3663.1957
N=C1NC(=N)C(=C1)C#N	[NH]c1[nH]c([NH])c(c1)C#N	
InChI=1S/C5H4N4/c6-2-3-1-4(7)9-5(3)8/h1H,(H3,7,8,9)	InChI=1S/C5H4N4/c6-2-3-1-4(7)9-5(3)8/h1H,(H3,7,8,9)
