25
gdb 105049	2.41859	1.32166	1.02134	0.136	92.02	-0.2395	0.0871	0.3267	1323.2456	0.228459	-352.330907	-352.32106	-352.320116	-352.365175	39.269	
C	-0.1235095341	 1.5466950453	 0.1242681499	-0.409251
C	-0.2008643733	 0.0515899009	-0.2051825795	-0.260973
C	 0.7087992095	-0.4760338833	-1.3200471682	 0.303944
C	 0.7867609345	 0.3368063483	-2.5955599739	-0.314651
C	 1.9695913809	 0.2922242606	-1.6601977077	-0.300526
C	 0.7920315737	-2.0006831782	-1.4214912882	 0.314744
C	 1.2569625319	-2.5760784725	-2.7509110822	-0.476966
C	 1.2337674206	-2.7718989633	-0.1947928288	-0.296123
C	-0.1943294976	-2.8749039573	-0.6727776847	-0.310487
H	 0.8539023167	 1.8278330113	 0.5269040374	 0.12096
H	-0.326430258	 2.180452032	-0.7444771979	 0.119797
H	-0.8706712724	 1.7939413762	 0.8848275656	 0.113113
H	 0.009645921	-0.4985758441	 0.7203416591	 0.099848
H	-1.2376104096	-0.1920555823	-0.4701877876	 0.102854
H	 0.8660160268	-0.1771722959	-3.5450354414	 0.108677
H	 0.2162879064	 1.2574570422	-2.6508834935	 0.104173
H	 2.2100833343	 1.1848044603	-1.0952068642	 0.106233
H	 2.8414304182	-0.2750194151	-1.9681823346	 0.106537
H	 2.2231314854	-2.1682681666	-3.0679586046	 0.116213
H	 1.3769271604	-3.6605027289	-2.6695008755	 0.109384
H	 0.5318874064	-2.3869100062	-3.5494968715	 0.118696
H	 1.892822435	-3.6221595184	-0.3364112818	 0.103454
H	 1.4211784505	-2.220728659	 0.7207762172	 0.109016
H	-0.9653862538	-2.4172822012	-0.0661108396	 0.109481
H	-0.5095637434	-3.794324185	-1.1556429837	 0.101851
52.7557	100.9056	213.4073	233.5712	264.7207	290.3501	315.4708	347.4374	357.3957	366.0935	401.3652	450.9165	515.8033	595.4467	759.4792	781.0168	789.0524	801.0727	859.2621	886.3229	902.3271	920.9113	950.3025	953.8912	972.9099	1032.4373	1036.9495	1052.8431	1066.028	1079.1827	1080.0116	1090.0282	1118.349	1138.8337	1187.6938	1189.4848	1195.6293	1279.4393	1322.9559	1328.0828	1349.6196	1392.5295	1413.9126	1421.3566	1464.4208	1468.3542	1490.9122	1497.0455	1501.3904	1504.1028	1509.4709	1513.6759	1517.4986	3015.8706	3028.4998	3040.7424	3047.574	3090.1034	3100.1837	3103.4446	3111.1114	3126.5205	3136.7743	3138.2631	3145.1149	3204.95	3214.6162	3224.5435	3228.9806
CCC1(CC1)C1(C)CC1	CCC1(CC1)C1(C)CC1	
InChI=1S/C9H16/c1-3-9(6-7-9)8(2)4-5-8/h3-7H2,1-2H3	InChI=1S/C9H16/c1-3-9(6-7-9)8(2)4-5-8/h3-7H2,1-2H3
