17
gdb 9074	5.84337	0.89517	0.80757	2.8133	73.54	-0.2652	0.0183	0.2836	1377.613	0.139494	-363.826649	-363.8172	-363.816256	-363.862276	32.457	
C	-0.0903004438	 1.5451943112	 0.0469932481	-0.391196
C	-0.0224398522	 0.0069400475	-0.0057631446	-0.161994
C	-1.4193576729	-0.6295533364	 0.0552446221	-0.072513
O	-2.0066980385	-0.2686757378	 1.3042552121	-0.185029
C	-3.3343785885	-0.4606509435	 1.4283554891	 0.128932
N	-3.9014902975	-0.2483866067	 2.5351541287	-0.437407
C	 0.6698510248	-0.4667562199	-1.2020569515	 0.308194
C	 1.2156677786	-0.8514042765	-2.2014650201	-0.463409
H	 0.9150632551	 1.9724197147	 0.0582575998	 0.129066
H	-0.6156018572	 1.9371383138	-0.8295451622	 0.122773
H	-0.6209214408	 1.8628293183	 0.9469286907	 0.14358
H	 0.5241076844	-0.3460811955	 0.8787759302	 0.125865
H	-2.034085413	-0.266541522	-0.7790895665	 0.115017
H	-1.3402088329	-1.7205497584	-0.0208461768	 0.121723
H	-3.817960225	-0.7936361857	 0.4991369095	 0.086693
H	-4.9006081145	-0.4239786952	 2.4521057084	 0.230311
H	 1.7129875537	-1.1916247778	-3.0759383669	 0.199395
23.5958	69.5117	99.8148	150.8834	196.3611	221.0337	267.8659	323.1327	409.6212	508.8989	529.9745	632.9925	651.3731	652.5213	823.3092	829.043	928.6556	946.5575	1001.9936	1044.5647	1090.3324	1123.0081	1137.3682	1169.1553	1261.3448	1296.3859	1314.9308	1347.5769	1393.6872	1408.468	1429.9611	1494.0819	1499.1437	1510.3764	1748.6727	2238.0384	3007.7648	3022.3327	3026.2219	3048.6928	3065.9295	3122.0073	3140.4304	3504.0692	3519.2623
CC(COC=N)C#C	C[C@@H](CO[CH][NH])C#C	
InChI=1S/C6H9NO/c1-3-6(2)4-8-5-7/h1,5-7H,4H2,2H3	InChI=1S/C6H9NO/c1-3-6(2)4-8-5-7/h1,5-7H,4H2,2H3/t6-/m1/s1
