18
gdb 87374	2.21702	1.5905	1.08678	3.4616	73.03	-0.2664	-0.0013	0.2651	1147.9907	0.146869	-439.095066	-439.086268	-439.085323	-439.128465	32.522	
C	-0.0517372496	 1.4857470933	-0.325994118	-0.395947
C	-0.0002563697	 0.0013766352	-0.0604594943	-0.067797
N	 1.3064137226	-0.6528164452	-0.2056381683	-0.37712
C	 0.6933888645	-0.592165836	 1.1132487064	 0.10442
C	 1.2923317378	-0.0626126855	 2.4189707346	 0.078783
C	 0.7612621563	 1.2089130415	 3.0395309177	-0.406799
O	 0.7461423984	-1.2631295333	 3.0971658224	-0.275827
C	 0.2353633951	-1.7695675428	 1.9285111574	 0.426474
O	-0.3236599224	-2.8056543572	 1.7470463592	-0.349902
H	 0.8718257142	 1.9711070478	-0.0017086434	 0.130349
H	-0.1699284854	 1.6714458671	-1.3984398195	 0.131028
H	-0.8964263676	 1.949671039	 0.1928976769	 0.126069
H	-0.8706103516	-0.5625017337	-0.3947203734	 0.112745
H	 1.2115291791	-1.594213882	-0.5828810657	 0.251685
H	 2.3843335912	-0.1110756217	 2.4403886462	 0.111578
H	-0.3299766905	 1.247433588	 2.9800914291	 0.129801
H	 1.0539829295	 1.2641431949	 4.0918933912	 0.139039
H	 1.1720604582	 2.0831512705	 2.5258190915	 0.131422
106.6948	132.5582	158.3389	205.6208	234.5865	255.7567	284.8056	330.4541	421.1089	504.7322	577.6197	633.3965	725.8616	739.2813	837.6075	848.6848	889.1673	901.8549	1006.433	1043.7449	1058.2446	1074.4318	1106.5953	1119.8424	1144.9737	1148.8693	1238.3213	1249.3564	1290.4168	1357.6123	1387.4071	1410.3891	1413.4748	1470.0404	1484.2422	1492.167	1498.4861	1507.2243	1926.9871	3040.9356	3045.7385	3080.0659	3105.7479	3113.1046	3119.7066	3126.1624	3133.156	3486.0151
CC1NC11C(C)OC1=O	C[C@H]1N[C@]21[C@@H](C)OC2=O	
InChI=1S/C6H9NO2/c1-3-6(7-3)4(2)9-5(6)8/h3-4,7H,1-2H3	InChI=1S/C6H9NO2/c1-3-6(7-3)4(2)9-5(6)8/h3-4,7H,1-2H3/t3-,4-,6-/m1/s1
