23
gdb 114801	2.55382	1.19689	1.06194	1.2775	85.32	-0.2544	0.0764	0.3308	1284.7494	0.205608	-388.263936	-388.254472	-388.253528	-388.298326	36.219	
C	 0.0824671747	 1.5903078412	-0.0006982163	-0.496113
C	 0.0198943635	 0.0777382326	 0.0315512106	 0.346704
C	-1.3758465659	-0.5451165351	 0.375609132	-0.290266
C	-0.7652341171	-1.2556267707	 1.620383069	-0.215739
C	 0.6453765183	-0.8073754731	 1.1801968359	-0.058267
C	 1.3052065121	-1.7079457363	 0.0969177731	-0.249205
C	 0.8704744949	-0.7048296953	-1.0110306344	 0.004694
C	 0.2390149826	-1.2376969954	-2.281455034	-0.1061
O	 1.263311417	-1.8821409772	-3.0302611536	-0.423007
H	 1.1179685223	 1.9469520858	-0.0397706567	 0.112163
H	-0.4392264065	 1.9901657511	-0.8798103384	 0.112977
H	-0.3892835512	 2.0288930181	 0.8863990261	 0.110529
H	-2.1393095541	 0.2011890388	 0.6108751972	 0.097441
H	-1.7921619475	-1.2143676738	-0.3813025137	 0.095137
H	-1.0843816066	-0.7958525825	 2.5598986677	 0.096385
H	-0.924125252	-2.3355533624	 1.6997733864	 0.092022
H	 1.3145135789	-0.3971966763	 1.9391931954	 0.056353
H	 2.3831900667	-1.8511596449	 0.1917972796	 0.102029
H	 0.8417245349	-2.6964409504	 0.0086593473	 0.091916
H	 1.7248789077	-0.0854725514	-1.3075825218	 0.074779
H	-0.5693154512	-1.9459773922	-2.0414577747	 0.080212
H	-0.2113761035	-0.4085832859	-2.8534860475	 0.080858
H	 0.8600039621	-2.2876952148	-3.8032716894	 0.284501
58.5457	83.6898	178.5303	200.4064	227.2655	265.7598	305.8454	319.0509	373.7188	432.4197	465.091	592.0364	656.6005	741.695	788.685	826.1089	860.5808	884.7078	889.1135	945.4137	962.9238	990.7869	1016.5759	1034.5896	1062.0254	1093.4955	1127.7304	1140.3214	1155.6619	1183.8824	1193.3424	1218.3509	1247.478	1250.8928	1261.4712	1273.6965	1278.2584	1283.9379	1309.3313	1339.0047	1370.4138	1408.554	1460.005	1477.7422	1484.7491	1490.6985	1493.5216	1499.3782	1520.3409	2955.257	2989.9221	3012.727	3038.2998	3044.9161	3046.9735	3059.2141	3074.2625	3080.2112	3085.8952	3090.2939	3108.6542	3112.6445	3827.7182
CC12CCC1CC2CO	C[C@]12CC[C@H]1C[C@H]2CO	
InChI=1S/C8H14O/c1-8-3-2-6(8)4-7(8)5-9/h6-7,9H,2-5H2,1H3	InChI=1S/C8H14O/c1-8-3-2-6(8)4-7(8)5-9/h6-7,9H,2-5H2,1H3/t6-,7-,8-/m0/s1
