23
gdb 58126	2.75453	0.96591	0.86356	3.2938	82.23	-0.2406	-0.0191	0.2215	1461.0553	0.201234	-425.443954	-425.432662	-425.431717	-425.480319	41.391	
C	 0.0634275249	 1.570329864	 0.0085682069	-0.403996
C	-0.0001088805	 0.0357371134	 0.0636375175	 0.00953
C	 0.870002402	-0.4941473948	 1.2135267244	-0.407759
C	-1.4665880726	-0.4926876323	 0.0671874015	 0.334351
C	-2.2829517061	-0.0038228988	 1.2671475474	-0.407779
O	-2.1517696556	 0.0277186942	-1.0828226425	-0.460775
C	-1.4904320355	-2.0410633795	-0.0046231921	-0.318471
C	-2.8829247295	-2.617233158	-0.1662821363	 0.154434
O	-3.3032861428	-3.5530885939	 0.4669678706	-0.249411
H	 1.0791040314	 1.8980596873	-0.2340021281	 0.110446
H	-0.6190559515	 1.9683074387	-0.7453941108	 0.124954
H	-0.1995301195	 2.0163029531	 0.9733944802	 0.118183
H	 0.4362288512	-0.3447959568	-0.8747013438	 0.057754
H	 0.9466519363	-1.584468817	 1.2175032168	 0.119452
H	 1.885753889	-0.0955929722	 1.1260832975	 0.117113
H	 0.4811230237	-0.1783969073	 2.1874870844	 0.122236
H	-2.3075047476	 1.087025399	 1.3017116253	 0.128418
H	-3.3150539207	-0.3571039444	 1.1895924223	 0.132035
H	-1.8681753223	-0.3788560318	 2.2059951113	 0.123222
H	-1.6161076936	-0.1669749239	-1.8604881516	 0.275061
H	-0.9063001554	-2.3552176697	-0.8840829501	 0.105068
H	-1.0371185214	-2.5047371509	 0.8741300758	 0.123738
H	-3.5048759337	-2.1150615183	-0.9362824967	 0.092194
56.3627	77.4363	90.42	167.5568	202.8313	233.3166	247.5527	288.0716	291.5049	329.1141	339.8166	362.3329	404.0498	424.8331	475.9605	512.6007	576.0647	712.2701	815.0617	872.8973	918.2794	931.5603	935.4204	963.0073	978.4981	1046.5617	1074.8146	1115.7999	1146.5817	1159.6559	1193.3261	1209.6715	1226.0079	1302.8504	1336.1361	1349.8976	1389.0499	1397.2978	1417.4941	1423.5211	1429.7168	1453.9128	1483.3	1489.346	1492.5036	1505.911	1510.3496	1517.4837	1825.2598	2919.3435	2963.7662	2995.7138	3037.7211	3042.0943	3055.1996	3098.4787	3103.5257	3107.6613	3119.8457	3122.8213	3129.6974	3139.7593	3792.6447
CC(C)C(C)(O)CC=O	CC(C)[C@@](C)(O)CC=O	
InChI=1S/C7H14O2/c1-6(2)7(3,9)4-5-8/h5-6,9H,4H2,1-3H3	InChI=1S/C7H14O2/c1-6(2)7(3,9)4-5-8/h5-6,9H,4H2,1-3H3/t7-/m0/s1
