15
gdb 67926	1.97453	1.78188	1.14964	3.4953	72.38	-0.2468	-0.0194	0.2273	1064.4794	0.109875	-420.572971	-420.564667	-420.563723	-420.605755	31.667	
O	-0.1110710956	 1.4080756466	-0.0475917743	-0.45079
C	-0.0063256401	 0.036885951	-0.0499557639	 0.386534
C	 0.7159634372	-0.7873297417	-1.1319367778	-0.438328
C	-0.5113311846	-1.7387812892	-1.1027335236	 0.443192
O	-0.8452838305	-2.6639437452	-1.7825874107	-0.305358
C	-1.1954105576	-0.9337076872	-0.0302408746	-0.25702
C	-0.2442784642	-0.79018332	 1.1847679767	-0.304114
C	 0.6228712814	-1.8352916947	 1.6480785083	 0.337019
C	 1.3621248493	-2.7017140685	 2.0346573474	-0.435714
H	 0.6958642853	 1.778102881	 0.328846697	 0.296682
H	 0.751624061	-0.2593898877	-2.0892231579	 0.13934
H	 1.6952186637	-1.2071777305	-0.8915673685	 0.131305
H	-2.2565922789	-0.7617293033	 0.0995394778	 0.122847
H	-0.7316210011	-0.2137152881	 1.9681992341	 0.130757
H	 2.0050918646	-3.4751499724	 2.37562293	 0.203648
86.7048	148.4008	159.939	258.1019	314.7525	362.7607	377.5173	462.9095	482.5901	542.8812	602.5265	607.0634	629.0667	663.5381	685.3594	765.2778	828.9749	905.9861	954.5942	978.9886	1019.8144	1061.5482	1101.0159	1105.117	1189.2901	1202.5972	1243.8613	1301.6199	1319.8625	1433.1147	1470.5712	1895.3997	2235.6342	3066.7896	3128.3628	3139.0173	3203.0077	3502.8006	3792.3659
OC12CC(=O)C1C2C#C	O[C@]12CC(=O)[C@H]1[C@H]2C#C	
InChI=1S/C7H6O2/c1-2-4-6-5(8)3-7(4,6)9/h1,4,6,9H,3H2	InChI=1S/C7H6O2/c1-2-4-6-5(8)3-7(4,6)9/h1,4,6,9H,3H2/t4-,6-,7+/m1/s1
