14
gdb 52351	8.65674	0.45073	0.43074	3.5786	77.96	-0.2737	-0.0605	0.2132	2295.8713	0.097416	-436.655208	-436.645534	-436.64459	-436.69194	31.204	
O	-0.1803869973	 0.1943832034	 0.6038668036	-0.229991
C	 0.0741158103	 1.0640827032	-0.1837581783	 0.140149
C	 1.3399368782	 1.9042444758	-0.113614102	-0.138726
O	 1.3118166672	 2.8211782281	-1.1840553847	-0.244721
C	 2.4472711671	 3.658863321	-1.2173624759	-0.217605
C	 2.347772955	 4.5752364281	-2.3441624624	 0.014978
C	 2.2918996928	 5.3467072271	-3.2701283058	 0.136038
C	 2.2263373539	 6.2190002194	-4.319035109	 0.212198
N	 2.1727399925	 6.9616356441	-5.2102277543	-0.327523
H	-0.5936983489	 1.3294515802	-1.0315565791	 0.108228
H	 1.3764743796	 2.4133495081	 0.8636367356	 0.131527
H	 2.2150804371	 1.235791829	-0.1671240005	 0.131514
H	 2.5367348233	 4.240397485	-0.2838476581	 0.141966
H	 3.3730045293	 3.0659470275	-1.3128006389	 0.141968
45.7373	54.6811	79.7127	87.6275	156.2627	160.5583	253.7503	353.9548	357.8945	455.094	562.0917	575.0855	589.8651	745.1886	762.3077	1003.1704	1017.8994	1073.6387	1114.1247	1150.2081	1180.6304	1234.9547	1250.9702	1341.374	1396.5848	1426.0816	1476.2341	1498.8178	1848.3459	2273.258	2409.7238	2911.3654	2957.6002	2971.5417	2979.6703	3004.5205
O=CCOCC#CC#N	O=CCOCC#CC#N	
InChI=1S/C6H5NO2/c7-3-1-2-5-9-6-4-8/h4H,5-6H2	InChI=1S/C6H5NO2/c7-3-1-2-5-9-6-4-8/h4H,5-6H2
