16
gdb 112247	2.22871	1.44207	0.92885	6.5375	68.24	-0.2515	-0.0329	0.2186	1207.0523	0.122946	-475.056844	-475.047913	-475.046969	-475.091096	31.272	
O	-0.0925947605	 1.4270762161	 0.2505214011	-0.416292
C	 0.016802531	 0.049124495	-0.0642917808	-0.087006
C	-1.380077372	-0.5379660035	-0.0137144262	 0.040582
C	-1.4873948843	-2.0832037003	-0.1210846758	-0.419286
C	-2.0861047954	-2.0519966108	 1.2990250228	 0.439829
O	-2.5060699208	-2.8526176464	 2.0753575619	-0.310155
N	-1.9575526542	-0.6450136115	 1.347371098	-0.131131
C	-2.313761086	 0.3334543658	 2.267842112	 0.14278
O	-2.7998875866	 0.1097914937	 3.3452893771	-0.272233
H	 0.7903754147	 1.7945234441	 0.3517869867	 0.298528
H	 0.4300826865	-0.1056027323	-1.0736712603	 0.103155
H	 0.6607901167	-0.4829681352	 0.6523726969	 0.101621
H	-2.0355382491	 0.008960245	-0.6980418529	 0.111125
H	-2.1689517117	-2.4597526962	-0.8850438736	 0.146956
H	-0.5360405865	-2.6161902321	-0.1876405653	 0.140625
H	-2.0846363017	 1.3420799185	 1.8811194384	 0.110901
74.5023	102.2839	141.2139	176.5539	206.1134	232.827	257.6566	373.6326	431.3761	493.0273	540.3578	572.6443	726.4786	789.9839	879.1133	979.8336	1007.1693	1034.4658	1060.224	1072.4774	1096.683	1129.5742	1148.6999	1222.5173	1251.9624	1263.4777	1278.5853	1345.467	1375.9705	1430.9312	1459.0544	1464.1459	1513.1948	1804.3943	1918.5371	2975.1979	2989.2599	3012.8401	3072.2093	3084.3385	3143.466	3834.4772
OCC1CC(=O)N1C=O	OC[C@H]1CC(=O)N1C=O	
InChI=1S/C5H7NO3/c7-2-4-1-5(9)6(4)3-8/h3-4,7H,1-2H2	InChI=1S/C5H7NO3/c7-2-4-1-5(9)6(4)3-8/h3-4,7H,1-2H2/t4-/m1/s1
