21
gdb 40290	2.54164	1.58435	1.20563	1.0237	78.29	-0.2411	0.0846	0.3257	1107.7789	0.183717	-424.202357	-424.194056	-424.193112	-424.235165	32.607	
C	 0.0479633951	 1.563375911	 0.1334996649	-0.316618
C	 1.3352448279	 0.7734376012	 0.0347210473	-0.325766
C	 0.0154601958	 0.0628923106	-0.03657706	 0.403739
C	-0.4044266456	-0.8249570058	 1.1169227905	-0.12604
O	-1.7402564937	-0.6906054581	 1.5795945839	-0.263008
C	-2.7702958513	-0.4566281066	 0.6336388403	-0.049297
C	-2.6099385461	-1.1155986537	-0.7413915456	-0.236424
C	-1.6498642365	-0.3805722046	-1.6808546321	-0.078927
O	-0.2823365809	-0.4504474866	-1.3087119419	-0.289159
H	-0.2425308819	 1.9754986063	 1.0936431615	 0.123539
H	-0.2289726448	 2.1665668312	-0.7236019214	 0.11921
H	 1.8856399204	 0.8410596318	-0.8962622724	 0.124921
H	 1.9462599667	 0.6514585564	 0.9221441493	 0.113956
H	-0.2041900812	-1.8647094352	 0.8154952649	 0.097496
H	 0.2160653447	-0.6097516173	 1.9924006755	 0.102012
H	-3.681494853	-0.8298229029	 1.1137697279	 0.103874
H	-2.9059272508	 0.627681917	 0.4853210828	 0.088147
H	-2.3114040531	-2.1647874516	-0.6332945473	 0.114924
H	-3.5978796495	-1.1146419696	-1.2198217417	 0.101827
H	-1.6926117253	-0.8184597942	-2.6827806628	 0.105614
H	-1.967148437	 0.6722743207	-1.7617047636	 0.085983
79.1253	131.4916	195.5523	262.6661	310.5189	331.7368	366.9486	413.1585	473.5317	532.3659	573.2231	739.0847	779.0206	784.6072	866.3821	899.1099	913.171	936.533	951.0684	990.4055	1010.0295	1029.1661	1033.7671	1052.4532	1079.734	1109.944	1151.2458	1163.7599	1189.7777	1234.0223	1255.5142	1295.8083	1314.7135	1321.0798	1348.2323	1375.7213	1403.5554	1419.6681	1431.6573	1455.6625	1462.8121	1489.4344	1493.8954	1501.4472	1514.1503	2962.7925	2972.2527	2987.6009	3027.7138	3059.9343	3073.6468	3076.8457	3082.1505	3136.7173	3140.3946	3220.5843	3234.998
C1CC11COCCCO1	C1CC21COCCCO2	
InChI=1S/C7H12O2/c1-4-8-6-7(2-3-7)9-5-1/h1-6H2	InChI=1S/C7H12O2/c1-4-8-6-7(2-3-7)9-5-1/h1-6H2
