18
gdb 72189	3.05213	2.00543	1.58049	2.5517	73.11	-0.2197	0.0698	0.2895	879.8087	0.150194	-401.898309	-401.891843	-401.890899	-401.928605	27.813	
O	-0.1620265775	 1.3527226737	 0.1128837664	-0.486075
C	 0.0479489422	-0.0202961002	 0.0236258516	 0.4298
C	 1.1812780964	-0.7234445178	 0.7904820022	-0.308142
C	 1.1683074193	-1.8105293133	-0.3287271686	-0.059183
C	 0.1508649166	-2.9115826112	-0.0106167608	-0.230491
C	-1.1678133187	-2.2202450502	-0.278325747	-0.031229
C	-1.300280008	-0.7627297484	-0.0222804814	-0.092996
N	-1.067506231	-1.2901534494	-1.4276784842	-0.153371
C	 0.3709718022	-0.8237913423	-1.2686839802	-0.086104
H	 0.6846772159	 1.7964056732	-0.0046544615	 0.279119
H	 2.09848351	-0.1234343692	 0.7573534849	 0.087801
H	 1.0014877259	-1.0457877338	 1.8209236055	 0.097516
H	 2.13535553	-2.1782359339	-0.6695620023	 0.074525
H	 0.2564651224	-3.7649758288	-0.6901520036	 0.107209
H	 0.2436443055	-3.2845782083	 1.0146259523	 0.105171
H	-2.0838311059	-2.80459346	-0.2645693431	 0.093163
H	-2.2365693324	-0.2919591233	 0.260337051	 0.098504
H	 0.8303428074	-0.4232015869	-2.1700403713	 0.074785
231.8373	268.8051	331.5026	369.2446	420.0667	479.1898	553.9455	660.0793	699.3866	736.4577	746.1509	826.0152	833.9573	844.2885	877.7251	926.3842	953.7754	958.3028	973.4611	1011.4879	1046.1661	1065.25	1087.3716	1097.2477	1112.4434	1128.6958	1169.6688	1186.5012	1222.4026	1236.4275	1241.645	1273.4711	1292.1364	1325.6636	1347.278	1400.8089	1407.0546	1481.1725	1491.9076	3029.1065	3038.5811	3081.1521	3087.0955	3113.451	3137.1889	3150.4163	3166.6801	3808.6269
OC12CC3CC4C1N4C23	O[C@@]12C[C@H]3C[C@H]4[C@@H]1N4[C@@H]23	
InChI=1S/C7H9NO/c9-7-2-3-1-4-6(7)8(4)5(3)7/h3-6,9H,1-2H2	InChI=1S/C7H9NO/c9-7-2-3-1-4-6(7)8(4)5(3)7/h3-6,9H,1-2H2/t3-,4+,5-,6+,7-,8?/m1/s1
