20
gdb 121180	2.50028	0.98919	0.76995	4.3786	79.22	-0.2774	0.0008	0.2782	1516.9338	0.170241	-403.145052	-403.135366	-403.134421	-403.180892	34.088	
C	-0.1180127571	 1.566803182	 0.034509461	-0.382745
C	-0.0354599095	 0.039292857	-0.0206921942	-0.175296
C	 0.755996744	-0.4716120532	-1.2316242974	-0.199052
C	 0.8197283833	-1.9910417039	-1.2872487882	-0.056148
C	-0.4564699912	-2.7665117954	-1.6879108758	-0.078848
O	 0.2351198439	-3.4419097235	-2.7669394804	-0.271878
C	 1.4385482416	-2.690605018	-2.5388145664	-0.032756
C	 1.785698225	-1.8237205806	-3.6718326253	 0.288546
N	 2.0683656189	-1.1337656074	-4.5549915556	-0.32773
H	 0.8798989847	 2.0149663512	 0.0922512535	 0.119705
H	-0.6088056008	 1.9688889752	-0.8583048046	 0.121597
H	-0.685649525	 1.9024340232	 0.9075495252	 0.115824
H	 0.4275948686	-0.3390378632	 0.9002720345	 0.098733
H	-1.0499057031	-0.3807663284	-0.0445914943	 0.101235
H	 0.3058693731	-0.0892297243	-2.1564260332	 0.118856
H	 1.77583072	-0.0665070694	-1.2004948772	 0.110349
H	 1.2723349919	-2.3852075044	-0.3734504827	 0.095158
H	-0.8540339988	-3.4783251997	-0.9577378274	 0.115187
H	-1.273067499	-2.1383835629	-2.0654051789	 0.11362
H	 2.2929562596	-3.3464709243	-2.3337645625	 0.125642
48.5567	87.3701	90.2645	102.3002	183.4505	238.574	247.508	316.4332	358.6104	431.71	535.1997	589.1622	743.5469	800.1161	815.8806	863.427	896.5343	919.3997	980.154	993.426	1028.1622	1036.8624	1055.8591	1110.5646	1140.662	1158.527	1184.2698	1230.5141	1260.2997	1272.693	1309.6687	1329.9874	1348.9538	1358.0743	1381.2739	1403.6719	1416.1755	1481.0541	1492.5238	1499.8062	1509.1486	1526.4664	2352.7439	3011.2375	3023.1821	3024.1391	3033.5824	3037.678	3038.315	3060.815	3072.7592	3087.8675	3100.7885	3107.0327
CCCC1COC1C#N	CCC[C@H]1CO[C@H]1C#N	
InChI=1S/C7H11NO/c1-2-3-6-5-9-7(6)4-8/h6-7H,2-3,5H2,1H3	InChI=1S/C7H11NO/c1-2-3-6-5-9-7(6)4-8/h6-7H,2-3,5H2,1H3/t6-,7-/m0/s1
