19
gdb 113562	3.13796	1.01877	0.90824	3.1461	72.3	-0.2563	0.0525	0.3088	1337.7935	0.157561	-460.121254	-460.111937	-460.110993	-460.155744	34.323	
O	 0.0287927517	 1.326559871	-0.4921613489	-0.418306
C	 0.041776784	 0.1472003817	 0.2951004671	-0.080299
C	-1.3275681544	-0.4769827693	 0.3610622901	-0.063788
O	-1.7619468855	-1.0985301186	-0.8744583402	-0.31272
C	-1.5596637447	-1.9191503213	 0.2594381175	 0.415849
C	-0.585578117	-3.095559698	 0.3889401581	-0.328693
C	-1.533287143	-3.6632739295	 1.4877927914	-0.262536
C	-2.6548111742	-2.7053382581	 0.9740145295	 0.048339
O	-3.4103086632	-1.9618358273	 1.8955763005	-0.427978
H	-0.3280222662	 1.0770546509	-1.3523685642	 0.292552
H	 0.7661187015	-0.5852625662	-0.090696851	 0.089748
H	 0.3656150908	 0.4485889829	 1.2974898133	 0.112598
H	-2.0997780517	 0.1262323289	 0.8367857635	 0.115758
H	-0.5767969677	-3.7082816293	-0.5168510046	 0.117817
H	 0.4440616594	-2.8766530731	 0.6760313582	 0.114648
H	-1.7394110808	-4.7347193794	 1.4712810326	 0.101076
H	-1.2183196827	-3.3655945772	 2.4906032061	 0.115696
H	-3.2943066982	-3.2101728755	 0.2358374983	 0.080857
H	-4.1867625081	-2.4716583327	 2.1445949127	 0.289382
63.9808	105.9792	142.0871	148.4038	216.6865	236.4661	307.4984	402.1745	413.7657	455.6939	512.5142	546.8173	580.1006	722.7035	794.5434	826.3668	869.0221	918.967	952.2261	989.2018	1037.5579	1068.9405	1088.2859	1090.4589	1111.9519	1160.5275	1165.2451	1205.3197	1211.6546	1224.8468	1246.9192	1265.6639	1297.23	1333.263	1378.627	1424.4188	1435.2166	1476.8045	1486.4445	1492.4617	1524.1127	2996.493	3003.8115	3067.2013	3071.742	3074.0596	3119.5037	3131.7262	3136.2945	3799.6613	3829.5731
OCC1OC11CCC1O	OC[C@H]1O[C@]21CC[C@H]2O	
InChI=1S/C6H10O3/c7-3-5-6(9-5)2-1-4(6)8/h4-5,7-8H,1-3H2	InChI=1S/C6H10O3/c7-3-5-6(9-5)2-1-4(6)8/h4-5,7-8H,1-3H2/t4-,5-,6-/m1/s1
