21
gdb 60797	2.09495	1.25616	1.10656	3.0488	79.2	-0.2479	-0.0301	0.2178	1246.7324	0.177584	-424.251039	-424.240084	-424.239139	-424.287479	38.881	
C	-0.1741561276	 1.5295922119	 0.060849357	-0.439969
C	-0.0518215229	-0.0034501651	 0.0893513489	-0.06109
C	 0.4415445652	-0.4897596568	-1.2627964027	 0.147951
O	-0.0118977426	-1.4277632899	-1.8672071016	-0.255868
C	 0.8516019889	-0.5517494213	 1.2371519744	 0.130314
C	 0.9764195567	-2.0942569609	 1.1541139654	-0.424617
C	 2.2632237677	 0.0681532399	 1.2721004641	-0.4389
C	 0.1882521376	-0.2897782726	 2.5887249197	 0.15918
O	-0.9351109029	 0.1007682155	 2.7676177907	-0.257349
H	 0.7739291035	 2.0095448542	-0.2027254803	 0.118797
H	-0.9137529062	 1.8350371406	-0.6857918515	 0.128524
H	-0.5017340256	 1.9118100924	 1.0286281412	 0.147465
H	-1.0428687051	-0.4419174676	 0.238414635	 0.111859
H	 1.2845971706	 0.1043248395	-1.6904283404	 0.071179
H	 1.5730158309	-2.3887141513	 0.2867331174	 0.13768
H	 1.4691704724	-2.4919990143	 2.0478945062	 0.117348
H	-0.0053309532	-2.5668002157	 1.0620758953	 0.141906
H	 2.2353509152	 1.1565446343	 1.3700417889	 0.130732
H	 2.8314674131	-0.3282932074	 2.1204191897	 0.124377
H	 2.8212751076	-0.1785304608	 0.3640520851	 0.128943
H	 0.8523098168	-0.5344008247	 3.4522772078	 0.081538
38.205	70.0609	99.3809	189.1477	200.1708	223.179	234.8918	264.1234	282.2208	326.947	343.2935	364.5885	406.9955	436.5518	544.4785	616.1395	734.579	881.9585	910.1182	926.0081	948.5178	963.8134	969.0544	1023.9202	1083.4055	1094.2107	1154.3122	1185.8267	1210.8838	1250.2489	1300.2965	1351.1535	1399.2938	1405.2966	1412.5507	1429.6313	1437.2834	1481.8968	1485.4852	1496.9432	1503.3212	1509.6821	1513.4254	1827.1026	1831.3716	2842.0104	2846.8082	3036.4325	3039.7499	3045.4416	3073.8513	3102.0862	3105.8405	3108.0138	3120.2207	3124.1343	3143.7542
CC(C=O)C(C)(C)C=O	C[C@@H](C=O)C(C)(C)C=O	
InChI=1S/C7H12O2/c1-6(4-8)7(2,3)5-9/h4-6H,1-3H3	InChI=1S/C7H12O2/c1-6(4-8)7(2,3)5-9/h4-6H,1-3H3/t6-/m0/s1
