14
gdb 64906	2.07022	1.71036	1.11212	6.1323	68.62	-0.2663	-0.0149	0.2514	1063.474	0.099391	-432.854882	-432.845867	-432.844923	-432.888366	32.669	
N	 0.0682241663	 1.4284567197	 0.0120693602	-0.551498
C	 0.0412509978	-0.0050298442	 0.0215380024	 0.13215
C	-0.4931184735	-0.7256789504	 1.234039033	-0.361736
C	-1.3242058331	-0.7535553063	-0.0362646066	 0.19552
O	-2.3999466448	 0.1263560461	-0.1308554437	-0.443703
C	-1.4668085264	-1.9871673621	-0.7695638041	 0.262481
N	-1.6101522041	-2.9784661477	-1.3481985973	-0.33459
C	 1.1554783435	-0.6072211958	-0.6738053787	 0.295046
N	 2.0454678889	-1.0785512291	-1.2401814365	-0.326067
H	 0.1544563765	 1.7674075213	-0.9422075447	 0.256392
H	-0.8120280854	 1.7837274501	 0.3726513396	 0.254387
H	 0.0013252752	-1.6374629452	 1.5459167479	 0.167447
H	-0.874996141	-0.0991828165	 2.0334447853	 0.145874
H	-3.1472226501	-0.2469805498	 0.3519569732	 0.308297
103.6895	115.3927	185.3386	201.3252	217.6354	268.1146	320.6586	343.0823	428.5342	434.7579	472.0867	568.8774	593.2119	639.8337	673.5685	753.2066	830.9353	874.9408	927.1581	966.9353	1051.7455	1089.545	1193.8245	1225.2114	1307.4305	1347.9781	1395.0659	1460.0227	1665.4638	2347.6111	2366.1104	3141.6632	3243.3829	3499.5958	3582.4097	3791.0651
NC1(CC1(O)C#N)C#N	N[C@]1(C[C@]1(O)C#N)C#N	
InChI=1S/C5H5N3O/c6-2-4(8)1-5(4,9)3-7/h9H,1,8H2	InChI=1S/C5H5N3O/c6-2-4(8)1-5(4,9)3-7/h9H,1,8H2/t4-,5+/m1/s1
