21
gdb 37043	2.70771	1.73702	1.43089	1.5044	81.15	-0.228	0.0832	0.3112	1013.7476	0.185201	-387.066639	-387.059256	-387.058312	-387.097963	30.915	
C	 0.0108677601	 1.4322456339	 0.1264271039	-0.376925
C	 1.3642900015	 0.7726995097	-0.0474392004	 0.26186
C	 1.7731234881	 0.1379274589	 1.295373094	-0.291339
C	 0.4869899758	-0.7661205295	 1.2527699603	-0.293277
C	 0.0954768416	-0.0592584476	-0.04663567	 0.396452
O	-0.4326784623	-0.6572759644	-1.1807815109	-0.295708
C	 0.5697366632	-0.8749710879	-2.1801197839	-0.080149
C	 1.3608018065	 0.3986361493	-2.512721097	-0.216158
C	 2.1939068017	 0.8880729151	-1.3021405501	-0.309434
H	-0.2573309842	 1.8744229675	 1.0836673578	 0.098643
H	-0.381741546	 1.9547181627	-0.7387699307	 0.113374
H	 2.6942039537	-0.4471009392	 1.2307018399	 0.099357
H	 1.8561883624	 0.8264929355	 2.1426048314	 0.095856
H	 0.7373053045	-1.8178023456	 1.0944126574	 0.105958
H	-0.2176893612	-0.6931789773	 2.087467177	 0.094937
H	 1.2622825305	-1.6694562522	-1.8557919175	 0.086747
H	 0.0300359328	-1.2387877057	-3.0585592371	 0.107168
H	 2.0199628111	 0.1987242959	-3.3646380906	 0.099129
H	 0.6534563776	 1.1724594446	-2.8342295073	 0.108945
H	 2.5750765568	 1.9009979715	-1.4792814673	 0.098396
H	 3.0725415759	 0.2376216248	-1.1982711389	 0.09617
138.8603	192.396	290.2624	331.0888	368.5508	406.896	476.7332	487.6883	541.0968	619.7472	709.4416	725.926	780.6015	851.0929	869.1815	898.557	901.4777	922.2941	951.928	975.5632	977.8619	1044.1513	1047.543	1060.1524	1102.0718	1119.179	1159.2328	1198.7476	1221.3115	1227.5257	1230.7172	1247.225	1265.0539	1300.5765	1310.5535	1364.6066	1372.5487	1389.8001	1417.1905	1476.4596	1478.5645	1484.4414	1491.5867	1503.4311	1515.1704	2969.2637	3013.4122	3034.0663	3041.0457	3049.1163	3050.2108	3080.0826	3091.4368	3092.1495	3104.3341	3112.5732	3211.0327
C1C23CCC12OCCC3	C1[C@@]23CC[C@@]12OCCC3	
InChI=1S/C8H12O/c1-2-7-3-4-8(7,6-7)9-5-1/h1-6H2	InChI=1S/C8H12O/c1-2-7-3-4-8(7,6-7)9-5-1/h1-6H2/t7-,8-/m1/s1
