21
gdb 38429	3.8618	1.26714	1.16279	0.3034	87.97	-0.2317	0.026	0.2576	1146.1423	0.184744	-349.937388	-349.929842	-349.928898	-349.969276	31.015	
C	 0.2589269803	 1.6108815515	 0.1269991321	-0.292553
C	 1.4857174995	 0.7504634787	 0.0378674796	-0.032316
C	 1.6578241984	-0.0410941297	 1.3384346821	-0.301339
C	 0.2421354282	-0.7125053643	 1.1061633883	 0.346214
C	 0.2795160418	-2.2415568953	 0.8500010686	-0.288088
C	-0.2643407643	-2.9028127165	 2.1401589303	-0.265184
C	-1.038279066	-1.7768854109	 2.784833296	-0.074917
C	-0.7716013072	-0.6015724945	 2.2168941045	-0.12896
C	 0.0980714513	 0.1437355495	-0.165925306	-0.09789
H	-0.0523211282	 2.0302189684	 1.0813194754	 0.102406
H	 0.0848885273	 2.2679439038	-0.7194560745	 0.108065
H	 2.2627089668	 0.9362062554	-0.6934621132	 0.081127
H	 2.464080495	-0.7777596387	 1.3074985136	 0.100526
H	 1.7691764033	 0.5604020397	 2.2472871623	 0.090346
H	-0.3989133267	-2.4714250419	 0.0201103146	 0.100219
H	 1.2714862106	-2.6005654874	 0.5627123377	 0.093825
H	-0.8820683825	-3.7831789852	 1.9294921275	 0.101073
H	 0.5431562135	-3.2477749805	 2.8014992914	 0.104875
H	-1.6991952507	-1.9287972371	 3.6316860724	 0.088967
H	-1.1842167028	 0.3516446502	 2.5296098391	 0.08716
H	-0.3720220676	-0.2029146954	-1.0803168718	 0.076445
96.1461	145.3323	211.2516	305.0736	391.2807	417.546	460.874	517.3931	670.4784	741.198	753.4745	784.1183	793.5928	836.2812	861.4476	903.5229	928.5952	936.4608	958.0527	971.3963	976.6693	991.9662	1005.9837	1028.8179	1063.2086	1082.106	1088.2132	1103.366	1142.5216	1149.9808	1190.3713	1202.3954	1214.7046	1247.5687	1259.2687	1300.2003	1314.2301	1320.1707	1358.7595	1388.0758	1476.0379	1484.4604	1495.1151	1499.6729	1679.0182	3007.2135	3034.1208	3039.0632	3055.9761	3090.1218	3102.3736	3103.443	3159.5935	3175.1756	3181.8443	3196.4533	3201.3237
C1C2CC3(CCC=C3)C12	C1[C@H]2C[C@]3(CCC=C3)[C@@H]12	
InChI=1S/C9H12/c1-2-4-9(3-1)6-7-5-8(7)9/h1,3,7-8H,2,4-6H2	InChI=1S/C9H12/c1-2-4-9(3-1)6-7-5-8(7)9/h1,3,7-8H,2,4-6H2/t7-,8-,9-/m0/s1
