19
gdb 33037	4.61857	0.79863	0.71343	3.8529	80.28	-0.1881	0.0346	0.2227	1609.2864	0.159312	-419.242193	-419.232865	-419.231921	-419.277051	33.948	
C	 0.0621841621	 1.553405392	 0.098200202	-0.381311
C	 0.0891350869	 0.0241887413	 0.0601093697	-0.159874
C	 0.6083706075	-0.5231650077	-1.2842936473	-0.314979
C	 0.6511009485	-2.0108861266	-1.3545428789	 0.316424
C	-0.0282344639	-2.8819261827	-2.1117703679	-0.146038
O	 0.3476463554	-4.1828343787	-1.8072902837	-0.215569
C	 1.3090426332	-4.1289654191	-0.8178525019	 0.468309
N	 1.9143095334	-5.0993282663	-0.2710454028	-0.611317
N	 1.4807876695	-2.7894152809	-0.5401753172	-0.388375
H	 1.0631885319	 1.9727858501	-0.0523069477	 0.117264
H	-0.5865776722	 1.9575865436	-0.6867189165	 0.118576
H	-0.3108991086	 1.9185973965	 1.0595008578	 0.119431
H	 0.7164721252	-0.35434518	 0.8766377594	 0.099093
H	-0.915438388	-0.3762248478	 0.2389755193	 0.110581
H	-0.029279699	-0.1612612106	-2.098120483	 0.117857
H	 1.6116969035	-0.1157131106	-1.4747160008	 0.112189
H	-0.7760654927	-2.7587270052	-2.874643471	 0.143723
H	 1.5999601781	-5.9829754874	-0.6623643263	 0.222712
H	 2.1567757091	-2.4644531799	 0.126754487	 0.271305
68.3886	80.2177	90.7917	143.4839	243.8639	280.5337	299.3806	335.6853	389.9842	480.2645	611.8032	674.9787	702.6342	711.8272	744.8603	752.8451	769.1056	873.1878	897.1118	924.45	1018.5853	1043.9754	1060.894	1087.8189	1108.6377	1114.6396	1226.2182	1241.7142	1269.3267	1311.9458	1328.0148	1362.0866	1388.4582	1413.9225	1435.5842	1475.7704	1491.3197	1499.7335	1509.7006	1714.443	1790.8329	3006.4671	3028.738	3032.2538	3058.6042	3077.8487	3100.0983	3108.3734	3300.1683	3542.8579	3705.4426
CCCC1=COC(=N)N1	CCCC1=CO[C@H]([NH])N1	
InChI=1S/C6H10N2O/c1-2-3-5-4-9-6(7)8-5/h4H,2-3H2,1H3,(H2,7,8)	InChI=1S/C6H11N2O/c1-2-3-5-4-9-6(7)8-5/h4,6-8H,2-3H2,1H3/t6-/m1/s1
