18
gdb 14920	4.33395	1.4318	1.15234	4.5744	72.05	-0.2383	0.0289	0.2672	1033.7656	0.157125	-344.0087	-344.001357	-344.000413	-344.04022	28.302	
N	 0.02233037	-1.1633797	-0.0066813792	-0.319526
C	 0.017017674	-0.0081384536	-0.0104924703	 0.26949
C	-0.0043768377	 1.4597480097	 0.0296185555	-0.103808
C	-0.7745560269	 1.9669336819	 1.2735042436	-0.191378
C	-0.7434840032	 3.5013312358	 1.3157188115	-0.211406
C	 0.6959882047	 4.027123163	 1.2204137064	-0.190528
C	 1.4050813562	 3.4381936547	-0.0092334795	-0.158532
N	 1.3658240522	 1.9730181985	-0.0799094155	-0.28826
H	-0.543038451	 1.799807742	-0.867199343	 0.127732
H	-1.8036295898	 1.5929883591	 1.2526898347	 0.114407
H	-0.2990170727	 1.5521985997	 2.1709729485	 0.109414
H	-1.3309686372	 3.8969718387	 0.47556155	 0.10108
H	-1.2284451443	 3.8588439161	 2.2297305073	 0.104021
H	 0.7039252822	 5.1219639538	 1.170469876	 0.099181
H	 1.2513137968	 3.746611988	 2.1259060317	 0.095537
H	 0.9334341736	 3.8247662844	-0.9235153063	 0.107988
H	 2.454474104	 3.746621689	-0.0428321577	 0.109641
H	 1.9280641491	 1.5767059891	 0.6685700763	 0.224947
109.9063	159.9387	233.9533	272.8614	365.5962	403.466	444.1817	532.9984	548.761	559.2488	750.1677	809.7455	847.5259	865.9967	919.1494	934.8458	940.8135	1045.1243	1063.3981	1067.5185	1112.1846	1141.3129	1171.0704	1229.3833	1278.4982	1286.116	1322.4344	1357.9633	1362.9576	1374.5471	1378.706	1391.2466	1473.0654	1482.2628	1485.184	1495.515	1499.4905	2363.0641	3004.2551	3012.0363	3014.2003	3019.8012	3033.0958	3066.682	3073.8099	3081.7961	3083.2804	3500.9385
N#CC1CCCCN1	N#C[C@H]1CCCCN1	
InChI=1S/C6H10N2/c7-5-6-3-1-2-4-8-6/h6,8H,1-4H2	InChI=1S/C6H10N2/c7-5-6-3-1-2-4-8-6/h6,8H,1-4H2/t6-/m1/s1
