17
gdb 91718	2.65708	1.66385	1.50216	3.7467	66.08	-0.2631	0.0044	0.2674	956.8113	0.137987	-459.012604	-459.005483	-459.004539	-459.044138	28.018	
C	-0.1355696428	 1.5669912852	 0.0157343266	-0.41596
C	 0.0405308124	 0.0508254348	-0.0077636481	 0.004377
C	 0.8846170249	-0.5170663372	-1.1955897551	-0.264826
C	 1.9553401838	-1.3361116262	-0.4241339972	-0.093793
O	 1.2235994596	-1.8164757071	 0.7167167848	-0.242098
C	 0.8454730311	-0.5396293903	 1.173135701	 0.175715
O	 2.0995344124	 0.1788276775	 1.2812944166	-0.243402
C	 2.865299222	-0.3049479182	 0.2515140689	 0.461026
O	 3.961919012	 0.0817392368	-0.0146736238	-0.339736
H	 0.8303156331	 2.0790010833	 0.0235966399	 0.141675
H	-0.6942300733	 1.9024340618	-0.8630920892	 0.123482
H	-0.6916068854	 1.8858839616	 0.90372771	 0.121366
H	-0.940998895	-0.4328016846	 0.0057858573	 0.094158
H	 0.2973113809	-1.1756782234	-1.8374199247	 0.121699
H	 1.329917166	 0.2652968396	-1.8149450711	 0.129185
H	 2.4652489509	-2.1395682508	-0.9472124849	 0.11785
H	 0.3750960677	-0.5820771029	 2.1533405491	 0.10928
110.6777	196.8166	234.4192	266.724	371.8705	449.9913	505.0364	556.8524	608.474	728.2757	767.7504	780.2168	849.1381	863.7891	894.8156	916.5901	943.6629	958.0166	1014.5166	1030.6523	1078.5604	1101.9132	1129.9772	1155.4905	1200.6021	1236.1474	1259.544	1299.8915	1313.2364	1329.9259	1354.6239	1376.2698	1418.2425	1490.4801	1497.6665	1501.6206	1910.9478	3040.2392	3060.1679	3075.325	3104.4842	3123.3983	3127.6729	3155.4438	3178.9974
CC1CC2OC1OC2=O	C[C@H]1C[C@@H]2O[C@H]1OC2=O	
InChI=1S/C6H8O3/c1-3-2-4-5(7)9-6(3)8-4/h3-4,6H,2H2,1H3	InChI=1S/C6H8O3/c1-3-2-4-5(7)9-6(3)8-4/h3-4,6H,2H2,1H3/t3-,4-,6-/m0/s1
