19
gdb 63017	2.26091	1.79691	1.40476	4.0372	74.04	-0.2652	0.0116	0.2768	1018.8408	0.158922	-423.064867	-423.056502	-423.055558	-423.097366	32.593	
C	 0.0480941733	 1.5652278646	-0.0042608647	-0.417529
C	 0.0213080893	 0.0314585904	-0.0391035214	 0.107534
C	-1.4349706693	-0.4771936332	-0.0176333725	-0.429399
C	 0.7934904887	-0.6127195447	-1.181373173	-0.081764
C	 2.2981364689	-0.4216698311	-1.2537509631	-0.342769
C	 1.7207948675	-1.6093648281	-0.5457706152	 0.087613
O	 1.6295684778	-1.498962055	 0.8632373877	-0.222302
C	 0.7274878683	-0.533722333	 1.2122796344	 0.418598
O	 0.5463283148	-0.2147834954	 2.3508288651	-0.34721
H	 1.0673169125	 1.9542240138	-0.0785811714	 0.119072
H	-0.5327928774	 1.9748712331	-0.8363863689	 0.114721
H	-0.3829263909	 1.9237361717	 0.9344182948	 0.141307
H	-1.982226612	-0.0870435767	-0.8819156976	 0.118179
H	-1.477641566	-1.57034519	-0.0515493668	 0.124002
H	-1.9392507392	-0.1430223949	 0.8927296117	 0.141106
H	 0.2602963738	-0.8515744736	-2.0940702601	 0.097939
H	 2.7673550181	-0.5884881192	-2.2170899789	 0.124775
H	 2.7713287245	 0.3423730315	-0.6450729	 0.130719
H	 1.8717872273	-2.6299030903	-0.87213652	 0.115408
98.4258	204.8023	213.7225	231.1818	250.6888	296.3021	326.1638	395.2122	476.7181	518.961	593.8591	700.5279	718.5853	754.9673	790.1679	821.3236	898.786	948.6962	959.0425	986.8139	1022.1121	1030.8892	1044.1217	1068.3623	1087.9564	1118.6271	1148.2146	1184.7452	1204.9998	1235.6681	1266.8065	1356.7066	1383.0201	1395.2442	1419.7059	1473.4944	1483.0621	1487.5386	1501.8997	1508.822	1875.941	3035.6256	3042.8354	3105.4219	3113.5937	3122.0988	3125.3721	3130.8637	3177.0178	3201.3143	3221.589
CC1(C)C2CC2OC1=O	CC1(C)[C@H]2C[C@H]2OC1=O	
InChI=1S/C7H10O2/c1-7(2)4-3-5(4)9-6(7)8/h4-5H,3H2,1-2H3	InChI=1S/C7H10O2/c1-7(2)4-3-5(4)9-6(7)8/h4-5H,3H2,1-2H3/t4-,5+/m0/s1
