17
gdb 35478	2.73449	1.52705	1.36955	4.6878	76.75	-0.2294	-0.0073	0.2222	1003.3467	0.13886	-380.862735	-380.855345	-380.854401	-380.894497	29.226	
N	 0.3608743995	-0.5717846704	 1.3989581882	-0.337953
C	 0.1425864209	 0.3209572418	 0.6979905819	 0.321732
C	-0.094865106	 1.449134385	-0.2301059794	-0.215097
N	-1.1800732412	 2.3134073228	 0.2654915628	-0.292767
C	-0.7807407873	 3.3660543042	 1.1714069642	 0.013609
C	 0.1931008183	 3.1453150434	 2.2762572145	-0.30541
C	 0.6161770778	 3.9776358898	 1.0611833878	-0.092935
C	 1.4859521846	 3.3538252452	 0.0455961668	-0.041417
C	 1.1952285399	 2.1893413847	-0.5412418038	-0.095545
H	-0.4665028878	 0.9870783281	-1.1530173203	 0.134737
H	-1.6073349414	 2.7467477777	-0.5466486883	 0.23214
H	-1.6049772715	 4.0426746414	 1.3707401528	 0.104417
H	 0.0159884746	 3.6767714211	 3.2047829491	 0.121805
H	 0.6600558479	 2.1758615777	 2.400654042	 0.154016
H	 0.7367084988	 5.044439574	 1.2144217134	 0.088968
H	 2.3898243485	 3.8851805857	-0.2396485263	 0.102362
H	 1.8534377145	 1.7448735578	-1.2797860755	 0.107338
106.8489	142.5316	253.8325	270.5348	392.6244	421.717	492.9087	532.7805	618.1643	628.1777	716.3268	759.4387	777.0336	791.3727	807.7793	879.7015	910.0304	955.2175	982.4289	994.8646	1055.8415	1066.0823	1085.412	1095.2785	1120.0581	1179.9089	1200.3769	1244.1156	1287.6883	1318.8875	1364.8626	1418.0278	1426.6628	1479.6583	1506.9343	1698.8681	2352.0641	3036.4564	3143.8406	3155.6325	3164.3048	3171.0239	3191.438	3235.1528	3519.5255
N#CC1NC2CC2C=C1	N#C[C@H]1N[C@H]2C[C@H]2C=C1	
InChI=1S/C7H8N2/c8-4-6-2-1-5-3-7(5)9-6/h1-2,5-7,9H,3H2	InChI=1S/C7H8N2/c8-4-6-2-1-5-3-7(5)9-6/h1-2,5-7,9H,3H2/t5-,6+,7+/m1/s1
