14
gdb 14811	2.61334	2.09485	1.32501	6.4095	65.83	-0.3212	-0.0015	0.3197	902.4579	0.108326	-341.600395	-341.593042	-341.592098	-341.632499	26.176	
N	-0.6497146749	-0.9188074751	-0.763205978	-0.312673
C	-0.3712851832	 0.1356071125	-0.380544641	 0.286153
C	-0.0328052135	 1.4565800871	 0.115934961	-0.144459
C	 0.1362711812	 1.670724085	 1.651242649	-0.224912
C	 1.3201434884	 2.6251775475	 1.354861029	-0.229431
C	 1.4277390659	 2.0196015744	-0.0860498584	-0.178087
C	 2.4618424466	 1.0050247435	-0.2115955026	 0.292408
N	 3.2981707305	 0.211505262	-0.2946442134	-0.312641
H	-0.738825001	 2.181961417	-0.2973822737	 0.140134
H	-0.7275721748	 2.0722792687	 2.1812989628	 0.128499
H	 0.4649054738	 0.7523475105	 2.141016475	 0.148478
H	 1.0143726842	 3.6724036709	 1.3079153623	 0.126251
H	 2.2064694481	 2.5368044575	 1.9817925831	 0.141422
H	 1.5284991086	 2.7330747685	-0.9063597852	 0.138858
82.7725	107.5286	194.8149	216.2462	282.7212	457.4343	493.4236	543.0467	603.1015	691.6575	753.538	796.9625	903.0889	939.7959	956.6695	1009.1614	1071.745	1085.3796	1103.3592	1200.3221	1233.5737	1236.7434	1271.9622	1277.345	1334.3341	1359.4556	1483.8555	1497.7837	2359.2066	2360.8278	3076.3339	3083.1973	3087.9883	3096.1819	3142.3342	3155.5593
N#CC1CCC1C#N	N#C[C@H]1CC[C@H]1C#N	
InChI=1S/C6H6N2/c7-3-5-1-2-6(5)4-8/h5-6H,1-2H2	InChI=1S/C6H6N2/c7-3-5-1-2-6(5)4-8/h5-6H,1-2H2/t5-,6+
