20
gdb 105459	2.65074	0.93722	0.77892	4.4149	79.49	-0.2783	0.0371	0.3153	1497.7529	0.169391	-403.150661	-403.140773	-403.139829	-403.186438	35.384	
C	-0.5406169462	 1.2889123392	-0.8702899778	-0.391911
C	-0.0794585815	-0.0186696993	-0.2151127185	-0.248612
C	 0.7406030349	-0.928369181	-1.1146519686	 0.409416
C	 2.0604885562	-0.3885163228	-1.6674617326	-0.288139
C	 1.900596963	 0.2054414031	-3.0857168992	-0.329688
C	 3.1760321944	 0.6488941039	-3.6410075562	 0.255685
N	 4.1944858561	 0.9956987619	-4.0631119434	-0.307123
C	 0.568730094	-2.3849759996	-0.9842406352	-0.224942
O	-0.0294282775	-1.6782940489	-2.0735753181	-0.27679
H	 0.3007071209	 1.9439957693	-1.118911815	 0.121189
H	-1.1038362453	 1.087962998	-1.7868298097	 0.133786
H	-1.1931182347	 1.8462196658	-0.1920619812	 0.122329
H	 0.5122664281	 0.2039847809	 0.6823865455	 0.105691
H	-0.9567957657	-0.5828613034	 0.1181693938	 0.109684
H	 2.4627850666	 0.3713841572	-0.9904398164	 0.125084
H	 2.8026160923	-1.1902019641	-1.7159435433	 0.126462
H	 1.4640904552	-0.5538933196	-3.7414449135	 0.171714
H	 1.2086553556	 1.0528905468	-3.0818246692	 0.153961
H	 1.3866394438	-3.0523517209	-1.253085574	 0.116643
H	-0.1294805502	-2.7845501566	-0.2495771475	 0.11556
50.3873	73.4372	91.5387	132.2695	197.8895	246.6881	255.0581	360.5633	367.5248	400.7523	449.3355	508.0875	551.3403	724.2676	761.992	785.7371	857.2262	905.8418	936.0653	971.1695	999.4017	1020.2266	1029.3586	1083.2625	1103.744	1135.4848	1164.8889	1186.4658	1252.9179	1284.89	1297.9003	1331.0102	1350.9595	1377.0246	1409.065	1425.4405	1470.5736	1473.6775	1493.0681	1503.5172	1508.62	1531.2075	2361.7856	3026.6998	3037.7361	3055.7481	3067.7385	3072.294	3079.5187	3092.8881	3106.3275	3113.5393	3113.9969	3165.8217
CCC1(CCC#N)CO1	CC[C@@]1(CCC#N)CO1	
InChI=1S/C7H11NO/c1-2-7(6-9-7)4-3-5-8/h2-4,6H2,1H3	InChI=1S/C7H11NO/c1-2-7(6-9-7)4-3-5-8/h2-4,6H2,1H3/t7-/m1/s1
