19
gdb 79934	2.82189	1.64583	1.50388	1.3646	80.51	-0.2291	-0.0001	0.2289	979.3593	0.160709	-385.837132	-385.829603	-385.828659	-385.868899	29.925	
C	-0.0677772887	 1.5899596682	 0.0623098757	-0.410917
C	 0.0896520884	 0.0848358072	 0.0319220036	-0.002592
C	 1.3745038758	-0.6659080792	-0.2846760082	-0.099442
C	 2.6248556199	 0.1449589763	-0.1144473759	-0.19995
C	 2.8446371447	 0.3528681726	 1.1837275041	 0.149696
C	 3.0418907303	 1.4589901516	 2.1924913384	-0.150295
O	 1.7367483002	 1.1050898187	 2.7454677336	-0.308678
C	 1.7754468828	-0.2153824682	 2.0647815603	 0.113129
C	 0.7219491445	-0.7508453378	 1.1206559001	-0.115843
H	 0.8026256833	 2.0945672103	 0.4782818644	 0.134687
H	-0.2437857806	 1.9755437899	-0.9483714645	 0.108497
H	-0.9292767181	 1.8649177514	 0.6794913408	 0.121485
H	-0.7820570554	-0.4141777661	-0.3880675233	 0.088771
H	 1.3253588156	-1.4948168271	-0.9835056794	 0.086795
H	 3.1170879143	 0.6417644251	-0.9430602496	 0.100326
H	 3.8386208143	 1.3005017619	 2.9314823728	 0.106079
H	 3.0782655329	 2.4892054232	 1.8242169424	 0.116613
H	 2.0697327634	-0.9705820122	 2.8051785505	 0.078415
H	 0.1989654224	-1.653106236	 1.4150629442	 0.083225
129.7374	160.5266	171.4822	283.4907	302.5902	375.2902	504.922	549.9414	651.4344	699.5359	738.6923	771.3967	820.2256	844.3241	880.432	891.4175	911.4459	943.698	961.4873	992.7938	1008.5712	1036.2777	1074.8487	1085.9034	1106.2085	1130.9403	1140.6954	1141.2476	1227.1815	1244.8919	1283.8148	1322.3546	1331.4864	1345.4879	1375.1316	1417.8947	1430.9768	1486.9199	1498.3546	1514.4422	1716.7578	3008.4637	3015.7396	3037.7477	3076.0608	3092.64	3116.5241	3156.3535	3163.5428	3177.7103	3193.086
CC1C2C=C3COC3C12	C[C@H]1[C@H]2[CH][C]3CO[C@H]3[C@@H]12	
InChI=1S/C8H10O/c1-4-6-2-5-3-9-8(5)7(4)6/h2,4,6-8H,3H2,1H3	InChI=1S/C8H10O/c1-4-6-2-5-3-9-8(5)7(4)6/h2,4,6-8H,3H2,1H3/t4-,6+,7-,8+/m0/s1
