23
gdb 122428	5.40917	0.56045	0.53911	1.6406	83.95	-0.2502	0.0764	0.3265	2095.5965	0.204213	-425.402712	-425.392258	-425.391314	-425.439206	37.544	
C	 0.0718638303	 1.3723388102	 0.0580905243	-0.22718
O	-0.0610288611	-0.0231771131	-0.0461637311	-0.229007
C	 0.6804841803	-0.5677012773	-1.1164295464	-0.047354
C	 0.4761862739	-2.0773458123	-1.135290645	-0.223623
C	 1.2345139182	-2.7638903124	-2.2630350919	 0.037657
C	 2.7893300674	-2.8473716407	-2.1960003304	-0.246028
C	 2.6972296331	-4.2709852693	-2.7764699031	 0.146695
O	 3.6096432764	-5.1821698821	-2.2094023114	-0.431674
C	 1.206372099	-4.31690108	-2.340482656	-0.290448
H	 1.1180844834	 1.6737401015	 0.2293825259	 0.101384
H	-0.2857681976	 1.8878921657	-0.8481655449	 0.100354
H	-0.5317983436	 1.6980195281	 0.9090195878	 0.124888
H	 0.3528536672	-0.1242418879	-2.0740225001	 0.07948
H	 1.7514840586	-0.3241540618	-1.0029181014	 0.087144
H	 0.7946664421	-2.4870900041	-0.1687867447	 0.102308
H	-0.5979635713	-2.2822060238	-1.2252830339	 0.103332
H	 0.9274898765	-2.3396800398	-3.2267879592	 0.067799
H	 3.385079588	-2.1070609007	-2.7345110187	 0.095479
H	 3.1344602045	-2.9010672213	-1.1582115754	 0.110842
H	 2.7818813026	-4.2547576762	-3.8731346804	 0.063445
H	 3.4804585112	-6.0397807952	-2.6268357852	 0.280519
H	 1.129182837	-4.7581777695	-1.3413757909	 0.104539
H	 0.4788634337	-4.7920304179	-3.0039245877	 0.08945
50.4082	71.3486	93.6363	114.1556	152.0432	234.8546	260.554	279.5112	303.7975	374.972	415.2859	463.6007	488.1853	610.4475	789.8019	806.8514	811.8648	915.8928	953.904	969.7733	987.9749	1023.5443	1029.8122	1076.1954	1100.5824	1126.9298	1162.8768	1173.7818	1182.636	1208.3961	1217.0488	1228.1817	1250.8649	1255.087	1268.0788	1280.3928	1309.8318	1314.4145	1335.1144	1386.7087	1426.9413	1432.3204	1470.932	1481.6935	1485.3471	1490.1717	1502.0516	1506.1461	1531.8024	2938.0751	2963.893	2966.3795	2987.5081	3005.4134	3024.4386	3028.9705	3046.9558	3054.924	3069.7118	3106.4753	3110.3883	3113.7991	3815.3075
COCCC1CC(O)C1	COCC[C@H]1C[C@@H](O)C1	
InChI=1S/C7H14O2/c1-9-3-2-6-4-7(8)5-6/h6-8H,2-5H2,1H3	InChI=1S/C7H14O2/c1-9-3-2-6-4-7(8)5-6/h6-8H,2-5H2,1H3/t6-,7+
