20
gdb 59219	2.40164	1.45519	1.01651	3.5445	79.5	-0.2345	-0.0183	0.2162	1218.2018	0.16977	-403.123803	-403.114707	-403.113762	-403.15774	34.191	
C	-0.022526826	 1.6312738694	 0.1608904814	-0.394419
C	 0.0231341222	 0.107099382	-0.0102061702	 0.019963
C	 0.8329030155	-0.561634016	 1.1097390399	-0.396816
C	-1.3898927068	-0.4791296505	-0.0682528709	-0.107903
C	-2.3217548074	-0.1381312197	-1.2490954036	-0.077281
N	-1.6604277025	-0.6544373053	-2.452358454	-0.325818
C	-2.5039747235	-1.583936895	-1.6170541044	-0.190048
C	-1.6066158764	-1.9765530419	-0.4631144345	 0.440429
O	-1.3046871529	-3.0163613465	 0.0463016799	-0.316446
H	 0.9884324919	 2.0516846162	 0.176273388	 0.114299
H	-0.5700358432	 2.112338716	-0.6563960197	 0.112222
H	-0.511265592	 1.9080564944	 1.1031240963	 0.108396
H	 0.5043797253	-0.1147087721	-0.9695654829	 0.097105
H	 1.8687158568	-0.2071530568	 1.1046724803	 0.108156
H	 0.4072083178	-0.3281340558	 2.093473647	 0.107411
H	 0.8391168114	-1.6494232896	 1.0012889046	 0.140946
H	-1.9096565015	-0.3257939519	 0.8881682181	 0.096491
H	-3.0649744886	 0.6469689762	-1.2956581895	 0.108012
H	-2.2364657378	-0.4133403802	-3.259423873	 0.240049
H	-3.3422595724	-2.1099882929	-2.0554979527	 0.115252
65.5578	114.9025	156.293	206.6509	229.365	252.525	296.6251	339.0071	410.7374	510.009	534.4618	610.2639	696.3499	786.9591	831.0657	855.9018	870.9452	899.1523	927.0468	937.7357	967.1022	993.5165	1029.1398	1050.7221	1097.6958	1104.6844	1132.7383	1161.9002	1181.5565	1199.5862	1256.3967	1299.1042	1316.7917	1352.2426	1359.0091	1383.7528	1401.2303	1422.7842	1489.0206	1492.1403	1504.5508	1511.3656	1888.5102	3020.2431	3022.3202	3027.1913	3046.9214	3087.3788	3094.9577	3099.2508	3120.0336	3198.5064	3209.9724	3466.4451
CC(C)C1C2NC2C1=O	CC(C)[C@H]1[C@H]2N[C@H]2C1=O	
InChI=1S/C7H11NO/c1-3(2)4-5-6(8-5)7(4)9/h3-6,8H,1-2H3	InChI=1S/C7H11NO/c1-3(2)4-5-6(8-5)7(4)9/h3-6,8H,1-2H3/t4-,5+,6+/m0/s1
