21
gdb 68528	2.52168	1.93505	1.63972	0.1793	85.21	-0.2355	0.0199	0.2554	958.8847	0.185085	-349.942666	-349.935547	-349.934603	-349.973404	31.074	
C	-0.0466490344	 1.5041747854	 0.0247575698	-0.501924
C	 0.0371951488	-0.0132958801	 0.0309123094	 0.295927
C	 0.7052094065	-0.715357655	-1.1939220845	-0.219347
C	 0.5368960872	-2.1348502163	-0.5851540238	-0.086219
C	 1.1709731537	-1.8954563004	 0.7759456112	-0.094402
C	 0.8688523004	-0.6458991491	 1.1419879066	-0.115766
C	-1.0239546578	-2.1565323991	-0.4340791607	-0.035035
C	-1.6848239662	-1.8930205025	 0.8947778197	-0.308034
C	-1.3573200576	-0.7411863688	-0.020497445	-0.054389
H	 0.9493587213	 1.9557070711	-0.0336227636	 0.113898
H	-0.6281392586	 1.8639216196	-0.8313142873	 0.111556
H	-0.5304670563	 1.8787235025	 0.9337049417	 0.116321
H	 0.1391553749	-0.5752323742	-2.121537787	 0.081388
H	 1.7495671459	-0.422484947	-1.3427949722	 0.085505
H	 0.9306275935	-2.9762698533	-1.1556545925	 0.055957
H	 1.6778914594	-2.6490945545	 1.3659515339	 0.093356
H	 1.0797261357	-0.1666227157	 2.090981066	 0.090185
H	-1.5825684387	-2.67291645	-1.2063927651	 0.082057
H	-2.734068698	-2.1627557217	 0.9704074151	 0.100721
H	-1.1210956102	-2.026860871	 1.8104331624	 0.110561
H	-2.1683473296	-0.18570145	-0.4795518041	 0.077686
217.4676	244.0342	280.6289	335.7101	350.9982	479.9714	515.1804	534.5852	596.9568	663.6105	734.5191	744.897	777.7689	803.9466	822.8711	866.9619	897.5545	925.6915	931.5424	940.229	960.5237	982.4475	1026.9771	1045.64	1060.3603	1087.2689	1097.108	1097.8299	1114.342	1147.9345	1190.2596	1203.4765	1221.1894	1244.3655	1268.8322	1274.7769	1287.8991	1358.967	1374.0941	1413.4987	1471.5571	1493.0501	1494.6947	1497.3012	1639.4051	3025.4621	3036.6892	3090.3533	3092.9635	3096.4589	3109.666	3127.2954	3157.8902	3171.8396	3187.5593	3213.1298	3214.8206
CC12CC(C=C1)C1CC21	C[C@@]12C[C@@H](C=C1)[C@H]1C[C@@H]21	
InChI=1S/C9H12/c1-9-3-2-6(5-9)7-4-8(7)9/h2-3,6-8H,4-5H2,1H3	InChI=1S/C9H12/c1-9-3-2-6(5-9)7-4-8(7)9/h2-3,6-8H,4-5H2,1H3/t6-,7-,8-,9+/m1/s1
