19
gdb 30936	2.25427	1.39785	0.91449	3.7872	81.69	-0.1827	0.0377	0.2204	1308.7399	0.158611	-419.252607	-419.242935	-419.241991	-419.287478	34.929	
C	 0.2975484519	 1.6273193315	-0.16118882	-0.370366
C	-0.0367447113	 0.1382956546	 0.0396090109	-0.297987
C	 0.5427136858	-0.4352234224	 1.281064488	 0.263314
C	 0.0275691087	-0.9633050894	 2.4028024232	 0.204003
C	-1.3758411018	-1.1941934574	 2.8387392505	-0.504203
N	 1.1181126339	-1.3100771997	 3.2106294798	-0.382855
C	 2.3002991704	-1.0001973758	 2.5789485011	 0.452235
N	 3.4727114137	-1.1891496274	 3.0249118765	-0.612052
O	 1.9377053518	-0.4464468379	 1.3694335708	-0.255851
H	 1.3798354493	 1.7794970092	-0.1831777719	 0.136929
H	-0.1188755209	 1.9928548378	-1.1045267981	 0.113608
H	-0.1113391924	 2.232789839	 0.6533676522	 0.119206
H	-1.1220269744	-0.003361865	 0.0686660717	 0.110021
H	 0.3280261659	-0.4310212922	-0.8260971669	 0.118975
H	-1.5673218896	-2.2575022827	 3.0286349105	 0.136794
H	-1.6030310371	-0.6507124545	 3.7639981025	 0.13734
H	-2.0767332623	-0.8591369317	 2.0719221852	 0.141932
H	 1.0895873621	-1.754418993	 4.1100577203	 0.268684
H	 4.1649463962	-0.8688981929	 2.3532901739	 0.220272
62.7559	91.8355	128.1589	174.2317	196.6834	236.7758	266.6254	287.049	336.8957	431.5392	522.2341	606.2376	626.2877	659.1618	711.2188	746.8384	779.3012	808.7565	953.3438	974.0191	990.7829	1032.3211	1065.1764	1068.6189	1084.5957	1151.016	1250.5395	1258.5741	1288.3486	1358.1824	1367.8665	1405.4661	1416.7147	1441.3615	1470.2183	1475.5255	1495.4095	1497.7118	1508.2256	1758.9196	1793.6509	3016.5514	3022.8066	3042.4177	3068.3566	3075.2295	3113.375	3124.8938	3132.5936	3541.4834	3705.4561
CCC1=C(C)NC(=N)O1	CCC1=C(C)N[C@@H]([NH])O1	
InChI=1S/C6H10N2O/c1-3-5-4(2)8-6(7)9-5/h3H2,1-2H3,(H2,7,8)	InChI=1S/C6H11N2O/c1-3-5-4(2)8-6(7)9-5/h6-8H,3H2,1-2H3/t6-/m1/s1
