16
gdb 9791	3.15651	1.78835	1.35197	4.8254	64.55	-0.2757	0.0213	0.2969	924.4206	0.130267	-379.906936	-379.898835	-379.89789	-379.939299	29.988	
C	-0.083514417	 1.5394984028	-0.218607146	-0.487355
C	-0.0198561437	 0.0394873235	-0.0456621659	 0.296096
C	 0.8141166114	-0.7771215947	-0.9621777578	-0.27818
N	 1.2044377012	-0.6018379334	 0.4520142383	-0.361023
C	-1.2705648112	-0.6333490658	 0.5514188818	-0.050212
O	-1.0513648107	-1.9935909895	 0.8161458305	-0.411164
C	-1.6954485782	 0.0830116401	 1.7814497444	 0.263662
N	-2.0142221504	 0.646364115	 2.7386977423	-0.329029
H	 0.8326079004	 1.9129408487	-0.6856573792	 0.120821
H	-0.9242114414	 1.8226022916	-0.8618170454	 0.134907
H	-0.2146835848	 2.0449350678	 0.742914913	 0.156962
H	 0.5123592323	-1.7862756362	-1.2216881493	 0.139336
H	 1.3809178426	-0.2493190133	-1.7239215132	 0.122096
H	 1.9602769117	 0.0684126986	 0.5567766052	 0.242913
H	-2.0954249402	-0.5674874057	-0.1682323885	 0.137185
H	-0.1490079321	-2.0348692294	 1.1773361299	 0.302987
76.5953	147.4654	213.3999	241.75	279.0144	344.4398	354.6744	395.951	458.906	555.2732	587.1712	620.8769	760.8216	847.7894	877.5172	943.5987	963.7187	977.9768	999.3944	1053.864	1101.7487	1126.837	1156.8714	1253.3232	1260.094	1328.4067	1332.6138	1377.4177	1423.5326	1447.9928	1486.6241	1500.56	1508.3416	2352.3818	3035.3981	3049.1407	3101.761	3115.7667	3122.1179	3214.5521	3523.1077	3662.0161
CC1(CN1)C(O)C#N	C[C@]1(CN1)[C@@H](O)C#N	
InChI=1S/C5H8N2O/c1-5(3-7-5)4(8)2-6/h4,7-8H,3H2,1H3	InChI=1S/C5H8N2O/c1-5(3-7-5)4(8)2-6/h4,7-8H,3H2,1H3/t4-,5-/m0/s1
