14
gdb 25027	4.34908	1.07985	0.91788	4.8377	64.89	-0.2219	0.002	0.2239	1198.0376	0.101588	-473.847983	-473.840606	-473.839662	-473.880433	27.243	
O	-0.0750515881	 0.0058312719	-0.0815029647	-0.392354
C	-0.0639472664	 1.2032142274	-0.0510684894	 0.493757
N	-1.0997113984	 2.1075452714	-0.1682085	-0.437481
C	-0.623703292	 3.4101304996	-0.0022714181	 0.321074
C	 0.7030011578	 3.3001468252	 0.1611174385	-0.12244
O	 1.0767287887	 1.9759903646	 0.1164598036	-0.209607
C	-1.5111023948	 4.5775057265	-0.0668404511	-0.042379
C	-2.5967001888	 4.6859472616	-1.0591413273	-0.187068
O	-2.8780466526	 4.3339114526	 0.2969905951	-0.239982
H	-2.0664579849	 1.8389775035	-0.092631389	 0.284576
H	 1.4858650016	 4.0270201699	 0.2876984388	 0.157738
H	-1.0855823516	 5.4981785083	 0.3285760722	 0.114954
H	-2.9377411005	 5.6728015791	-1.3670866636	 0.131907
H	-2.73524198	 3.8915367784	-1.7900557549	 0.127303
85.5722	131.7233	148.0001	253.5196	404.7966	446.1149	489.3444	520.1253	647.0359	648.0145	729.7172	755.656	773.026	841.3798	890.1844	914.4282	981.9072	1026.463	1091.8221	1099.3955	1152.8173	1166.0851	1181.1963	1242.1957	1274.321	1320.0827	1421.5359	1437.405	1523.698	1707.4717	1905.7796	3091.5149	3132.2066	3183.8715	3296.3636	3677.3229
O=C1NC(=CO1)C1CO1	O=c1[nH]c(co1)[C@H]1CO1	
InChI=1S/C5H5NO3/c7-5-6-3(1-9-5)4-2-8-4/h1,4H,2H2,(H,6,7)	InChI=1S/C5H5NO3/c7-5-6-3(1-9-5)4-2-8-4/h1,4H,2H2,(H,6,7)/t4-/m1/s1
