21
gdb 88551	3.4865	1.1061	1.07414	1.6111	83.1	-0.242	0.0847	0.3267	1250.87	0.182259	-387.045801	-387.037134	-387.03619	-387.079301	33.324	
C	 0.3921764467	 1.4144498806	-0.5127977259	-0.430552
C	 0.029773938	 0.0363205451	-0.0236391467	 0.089864
O	 1.0907317167	-0.9091677689	 0.1627609346	-0.26161
C	 0.3526038129	-0.4927030243	 1.3179252798	-0.097145
C	 1.0816993141	 0.2519568076	 2.3779716149	 0.386523
C	 2.4680112711	 0.8058284744	 2.2162684497	-0.323453
C	 2.2318688924	-0.2286368772	 3.2812456143	-0.112582
C	 1.5689295593	 0.4123383944	 4.5052077163	-0.219221
C	 0.3924353616	 0.8943976245	 3.5942356285	-0.299685
H	 1.2223328931	 1.8377347102	 0.0534475915	 0.139523
H	 0.6751708722	 1.3788983244	-1.5702777007	 0.126652
H	-0.4709126609	 2.0831657708	-0.4219334376	 0.119668
H	-0.8449208051	-0.3996439472	-0.5123782036	 0.084886
H	-0.3190395193	-1.2645008033	 1.7047369957	 0.081605
H	 2.9881237218	 0.4459867147	 1.335356889	 0.129787
H	 2.6874299096	 1.8369904564	 2.4892204785	 0.097123
H	 2.7479881566	-1.1812349259	 3.2641740565	 0.09154
H	 1.2413001114	-0.313697975	 5.2523114273	 0.10328
H	 2.1518515041	 1.1902848178	 5.0096027215	 0.096155
H	 0.2159221081	 1.9732752031	 3.5287956423	 0.09463
H	-0.5512382043	 0.4058391779	 3.8517339642	 0.103014
60.4139	133.2742	161.7926	201.1071	211.7057	324.9574	376.3045	389.0661	451.1717	519.5426	702.9687	721.3113	781.5844	789.1295	831.7066	860.0216	894.8465	932.3827	947.984	970.2805	979.3389	1017.4527	1023.1048	1054.0474	1090.7856	1097.9844	1103.7114	1151.1984	1169.1084	1173.9793	1207.6961	1224.4163	1245.6596	1268.5107	1290.2892	1302.1197	1383.6675	1404.1687	1423.0301	1466.4515	1480.8741	1482.9226	1490.519	1501.0431	1511.665	3038.9444	3039.3489	3047.5117	3059.4562	3080.1654	3089.2772	3094.7716	3096.6746	3110.2943	3150.0684	3181.4564	3209.3455
CC1OC1C12CC1CC2	C[C@H]1O[C@H]1[C@]12C[C@H]1CC2	
InChI=1S/C8H12O/c1-5-7(9-5)8-3-2-6(8)4-8/h5-7H,2-4H2,1H3	InChI=1S/C8H12O/c1-5-7(9-5)8-3-2-6(8)4-8/h5-7H,2-4H2,1H3/t5-,6-,7-,8-/m1/s1
