15
gdb 12299	3.00241	2.28402	1.35908	5.0918	63.55	-0.2544	-0.0639	0.1905	870.1483	0.119911	-399.82559	-399.818499	-399.817555	-399.857764	26.074	
N	-0.0233867215	 1.2044635237	 0.476079546	-0.460305
C	 0.0059653982	 0.0383355566	-0.0142053065	 0.281242
O	 1.1828914463	-0.5727568506	-0.3330183646	-0.254145
C	 1.1971863751	-1.8037138344	-1.0691131201	-0.069783
C	 0.1341122576	-2.7710092286	-0.5783044155	-0.238597
C	-1.2408437715	-2.1306721968	-0.7741344771	-0.3106
C	-1.3139065317	-0.7256737438	-0.1948862003	 0.334342
O	-2.3574366838	-0.2114473319	 0.111381862	-0.266073
H	 0.9283088564	 1.5732400632	 0.5493128469	 0.228847
H	 1.056825822	-1.5862350897	-2.137684888	 0.112423
H	 2.2066413476	-2.1990380009	-0.9354864743	 0.126134
H	 0.2096689976	-3.7138883347	-1.129495375	 0.116766
H	 0.3101094958	-2.9965492152	 0.4798701946	 0.124504
H	-1.4514749322	-2.0359406857	-1.8494802451	 0.137276
H	-2.0587778459	-2.7156820014	-0.3462928531	 0.137969
40.4573	104.0951	296.239	352.5999	401.8699	429.0596	458.8914	536.9971	591.0343	666.5072	705.8917	876.3638	885.3183	919.2167	951.7612	961.25	1050.164	1087.2512	1141.0217	1157.7819	1201.5369	1240.4596	1293.3464	1319.8658	1346.6619	1376.6867	1423.943	1454.1416	1485.3962	1514.2003	1715.0875	1826.8257	3007.4239	3016.2804	3043.3865	3089.4344	3103.4846	3105.6488	3457.0904
N=C1OCCCC1=O	[NH][C]1OCCCC1=O	
InChI=1S/C5H7NO2/c6-5-4(7)2-1-3-8-5/h6H,1-3H2	InChI=1S/C5H7NO2/c6-5-4(7)2-1-3-8-5/h6H,1-3H2
