18
gdb 86280	1.9836	1.54481	1.19068	2.3494	73.06	-0.2673	0.004	0.2713	1138.8721	0.144953	-439.085225	-439.075588	-439.074644	-439.119511	35.038	
C	-0.4159844846	 1.2358026277	-1.3325074949	-0.425404
C	 0.2917298185	-0.0408653021	-0.9407118791	 0.120166
O	 1.6924480883	-0.0409184524	-1.2808017756	-0.308829
C	 2.0768033223	-0.5178334468	 0.0266081433	 0.129314
C	 3.2284905466	 0.2514089402	 0.6314303014	-0.407402
C	 0.6387222204	-0.2636827089	 0.5720375519	 0.159664
O	 0.6037390631	 0.8836710851	 1.3855011532	-0.448549
C	-0.0321608949	-1.3932186227	 1.222062777	 0.232616
N	-0.5890297774	-2.2692292295	 1.7311238913	-0.333759
H	 0.0298059122	 2.0962555394	-0.8293618646	 0.136948
H	-0.3312745876	 1.3788576014	-2.4137667915	 0.140996
H	-1.4810351205	 1.180970594	-1.0816742517	 0.121005
H	-0.2120218489	-0.9197977707	-1.3660765543	 0.087625
H	 2.2977032239	-1.5932089956	-0.0056561079	 0.092282
H	 2.983344217	 1.3095692527	 0.7303319282	 0.141327
H	 3.4797894831	-0.1487376584	 1.6183852255	 0.129861
H	 4.1039689631	 0.1468784522	-0.0164720637	 0.132691
H	-0.3106550845	 1.0631612446	 1.6326302413	 0.299448
73.4207	124.0306	163.8471	190.7401	200.1457	250.9108	262.6444	288.1469	359.6442	374.0136	485.6675	504.6592	548.8153	579.9623	624.6901	769.5144	880.2853	882.0243	949.9525	997.8675	1038.3238	1069.8345	1088.0078	1128.8783	1137.3193	1169.5749	1205.9712	1277.5134	1327.2119	1346.7456	1369.0432	1397.9719	1400.9224	1420.4017	1479.3107	1485.6116	1488.7172	1493.9967	2349.5714	3008.9915	3016.9255	3042.0625	3049.82	3111.168	3117.8397	3138.007	3150.3778	3806.1231
CC1OC(C)C1(O)C#N	C[C@H]1O[C@@H](C)[C@]1(O)C#N	
InChI=1S/C6H9NO2/c1-4-6(8,3-7)5(2)9-4/h4-5,8H,1-2H3	InChI=1S/C6H9NO2/c1-4-6(8,3-7)5(2)9-4/h4-5,8H,1-2H3/t4-,5+,6+
