18
gdb 85505	2.55759	1.32868	1.01541	2.3331	73.95	-0.2596	-0.0373	0.2223	1191.5048	0.146976	-439.120533	-439.111739	-439.110795	-439.154745	31.976	
C	-0.5186764036	 1.488490607	 0.1409449343	-0.411603
C	 0.147392343	 0.1312781512	-0.0001760678	 0.109886
O	 1.1800870691	 0.2069759257	-1.0044268213	-0.246721
C	 2.197947363	-0.6621612925	-0.7246449368	 0.414554
N	 3.2076710481	-0.8532760158	-1.4554076078	-0.538487
C	 1.9247455296	-1.3435395533	 0.6010165405	-0.331771
C	 0.8564017192	-0.4473295912	 1.2558564112	-0.126733
C	 1.4998155348	 0.6312136463	 2.1065036615	 0.167728
O	 1.1226221225	 0.9368931318	 3.2079010267	-0.254658
H	 0.20226512	 2.2606892708	 0.4225689369	 0.136552
H	-0.9817829332	 1.7812002215	-0.8046610444	 0.135506
H	-1.296040035	 1.4457384563	 0.9095255607	 0.137222
H	-0.593565872	-0.6064494135	-0.3382007049	 0.097609
H	 3.1503513279	-0.2890850014	-2.3050437705	 0.225214
H	 1.5263769711	-2.3470647314	 0.4194740432	 0.142687
H	 2.8441323688	-1.4568527628	 1.1783011178	 0.14608
H	 0.1491135803	-0.9882717013	 1.8872416335	 0.103797
H	 2.3783285663	 1.1342586127	 1.6407137273	 0.093136
60.9259	79.7598	112.2091	223.028	233.8276	304.8298	310.833	428.4076	474.0686	492.9702	525.8013	649.8493	703.8621	825.8047	863.9293	896.9105	905.8765	932.6367	985.5049	997.8822	1061.3706	1072.9494	1111.2357	1118.0882	1161.4685	1203.747	1236.3151	1278.1075	1303.8703	1327.0633	1377.4199	1389.7338	1418.3055	1435.3952	1472.4344	1481.7865	1501.8007	1781.3617	1832.6279	2869.1804	3005.6262	3049.5854	3063.2241	3103.5689	3122.2337	3125.2584	3128.6294	3473.8868
CC1OC(=N)CC1C=O	C[C@H]1O[C]([NH])C[C@H]1C=O	
InChI=1S/C6H9NO2/c1-4-5(3-8)2-6(7)9-4/h3-5,7H,2H2,1H3	InChI=1S/C6H9NO2/c1-4-5(3-8)2-6(7)9-4/h3-5,7H,2H2,1H3/t4-,5+/m1/s1
