18
gdb 91437	3.0106	1.30658	1.06297	3.5498	74.08	-0.247	0.0194	0.2664	1151.0694	0.147406	-439.073045	-439.064746	-439.063801	-439.106717	30.456	
C	 0.2089052118	 1.5169647961	-0.3045645737	-0.414418
C	 0.0239618744	 0.0628730537	 0.060719141	 0.147916
O	 0.7261430813	-0.854685157	-0.830808546	-0.312965
C	 1.3282154668	-1.5577121281	 0.2648251001	 0.098976
C	 2.7506110151	-1.0484280142	 0.6106605115	-0.191201
N	 2.1171224015	-0.0627913984	 1.5002054924	-0.032049
C	 2.6742172395	 0.7601486242	 2.4192392192	 0.128478
O	 3.8676719244	 0.9191983215	 2.5654037884	-0.326236
C	 0.7527171859	-0.5405824348	 1.2887519864	-0.098712
H	 1.2623396905	 1.803503289	-0.2549260385	 0.136063
H	-0.1520364805	 1.6940456336	-1.3220855985	 0.136159
H	-0.3640417648	 2.1567041853	 0.3754637117	 0.121173
H	-1.0430966755	-0.200936548	 0.0823814739	 0.084027
H	 1.1394785065	-2.6316373165	 0.2525094722	 0.096683
H	 3.3861124446	-1.7573906752	 1.1525192316	 0.125779
H	 3.3010884065	-0.621832804	-0.231673968	 0.134767
H	 1.9041069566	 1.2756583272	 3.0304543106	 0.06771
H	 0.1772322453	-0.7672997344	 2.1870237657	 0.097849
41.9452	111.4814	188.1769	218.1814	236.915	312.6518	366.6268	397.1435	468.5443	621.9627	674.1062	784.5262	822.1799	852.8281	875.679	916.0162	966.0807	1006.2783	1031.9176	1052.163	1064.4677	1097.5737	1139.1958	1153.5817	1175.7066	1191.8067	1229.1566	1287.4357	1292.6453	1323.7323	1336.0357	1380.6066	1400.088	1409.2836	1444.2777	1483.2288	1493.0359	1496.0732	1794.0148	2916.4707	3002.0857	3041.036	3044.6808	3101.5217	3107.3473	3110.8002	3113.9032	3128.7105
CC1OC2CN(C=O)C12	C[C@H]1O[C@H]2CN(C=O)[C@@H]12	
InChI=1S/C6H9NO2/c1-4-6-5(9-4)2-7(6)3-8/h3-6H,2H2,1H3	InChI=1S/C6H9NO2/c1-4-6-5(9-4)2-7(6)3-8/h3-6H,2H2,1H3/t4-,5+,6+/m1/s1
