16
gdb 87471	3.7681	1.21629	1.09581	3.2644	70.69	-0.2606	-0.0181	0.2424	1121.6529	0.122628	-437.787074	-437.779161	-437.778217	-437.819616	29.885	
C	-0.0600634518	 1.5316109532	-0.0771661325	-0.392081
C	-0.0072088042	 0.0291320843	 0.0388100631	-0.111343
N	 1.3279728913	-0.6103767506	-0.1626000551	-0.404646
C	 0.6871368396	-0.6686911605	 1.1279786435	 0.445139
C	 1.2040617034	-0.2508607009	 2.5160670086	-0.178924
O	-0.0776279635	-0.7712186861	 3.0703752141	-0.293706
C	 0.2637510581	-1.8118006975	 2.064584347	-0.207086
C	 1.6939438084	-1.7211464635	 2.6913565123	 0.483539
O	 2.5622577483	-2.3783360874	 3.1553655706	-0.302671
H	 0.8434587729	 1.9816050427	 0.3418401857	 0.12863
H	-0.1343137503	 1.8355236293	-1.126347237	 0.126952
H	-0.9294535338	 1.9293440159	 0.4561931762	 0.128984
H	-0.8617176696	-0.4980463817	-0.3840722669	 0.097835
H	 1.2475474303	-1.4935434222	-0.6611329325	 0.24069
H	 1.575575567	 0.6997463432	 2.8892687808	 0.121915
H	-0.432800986	-2.6355202382	 1.9225809221	 0.116773
101.4563	133.6014	179.9406	196.3977	287.6431	382.7618	430.8909	481.03	531.3922	587.7974	684.0457	772.2235	796.2576	819.2137	831.2115	865.6402	911.1115	963.6382	1013.0126	1037.7921	1068.0124	1083.6988	1107.0887	1131.805	1148.7975	1173.0449	1219.3377	1225.0192	1240.2678	1363.4518	1413.1696	1480.4751	1491.2262	1526.6028	1940.8599	3039.5802	3105.4302	3110.3911	3129.9991	3152.9984	3169.9878	3499.3845
CC1NC11C2OC1C2=O	C[C@H]1N[C@]21[C@H]1O[C@@H]2C1=O	
InChI=1S/C6H7NO2/c1-2-6(7-2)4-3(8)5(6)9-4/h2,4-5,7H,1H3	InChI=1S/C6H7NO2/c1-2-6(7-2)4-3(8)5(6)9-4/h2,4-5,7H,1H3/t2-,4-,5+,6+/m1/s1
