12
gdb 132322	2.06355	1.76053	0.95002	2.8719	62.19	-0.2318	-0.0462	0.1857	1085.9103	0.076527	-517.795531	-517.788433	-517.787488	-517.827226	26.993	
O	 0.0346100389	 1.3217839764	 0.0078063787	-0.387321
C	-0.0492946434	-0.0074067947	 0.0009919978	 0.530061
C	-1.2383303523	-0.6689346643	 0.0037752844	-0.462372
C	-1.1474938719	-2.0784295443	-0.0043459285	 0.390836
F	-2.2916337114	-2.7493074469	-0.0017791611	-0.058777
C	 0.0282154749	-2.767543808	-0.0144193944	-0.446915
C	 1.2740749073	-2.0708889728	-0.0174890171	 0.445606
O	 2.3998792673	-2.4710245266	-0.0255168447	-0.329375
O	 1.1263766943	-0.6157687842	-0.0086648311	-0.277028
H	 0.9716540246	 1.5620455243	 0.0040738815	 0.32039
H	-2.1817445731	-0.146831435	 0.0116978385	 0.138009
H	 0.0522491246	-3.8474213338	-0.0203179839	 0.136887
153.919	191.5429	220.0146	330.8085	363.1737	452.457	454.7435	521.6299	578.0718	618.1733	651.6907	691.5082	732.8067	780.9387	798.0232	821.8048	997.6636	1026.7259	1115.2763	1176.1644	1245.0452	1268.053	1418.9569	1502.9834	1601.1306	1705.974	1883.0985	3245.2585	3263.246	3780.4839
OC1=CC(F)=CC(=O)O1	Oc1cc(F)cc(=O)o1	
InChI=1S/C5H3FO3/c6-3-1-4(7)9-5(8)2-3/h1-2,7H	InChI=1S/C5H3FO3/c6-3-1-4(7)9-5(8)2-3/h1-2,7H
