18
gdb 33548	2.32776	1.46726	1.12882	2.9121	75.48	-0.269	0.0193	0.2883	1135.294	0.147865	-401.922013	-401.913503	-401.912559	-401.955741	31.19	
N	-0.1453338983	-1.237276659	 0.0533054105	-0.355479
C	-0.1022879283	-0.0817992833	 0.0546728934	 0.235741
C	-0.0467780026	 1.373297466	 0.0577035073	 0.106924
C	-0.0465404667	 2.0398250533	 1.4702188346	-0.107815
O	 1.1716852698	 2.7446059138	 1.1803026692	-0.264263
C	 1.3867025824	 1.9882572407	-0.0224202736	-0.107819
C	-1.0332911067	 2.0005169475	-0.9112173076	-0.036711
C	-1.3557694615	 1.3788148065	-2.2456331722	-0.285417
C	-2.4005665523	 1.4164816697	-1.1574531174	-0.285413
H	-0.886989134	 2.7140399536	 1.6644805329	 0.119605
H	 0.0664761629	 1.3355306406	 2.3027443317	 0.120379
H	 2.1983825956	 1.2588243063	 0.0824878145	 0.120379
H	 1.5693359276	 2.6256603915	-0.8936375323	 0.119604
H	-0.9703038034	 3.0850847091	-0.8882818519	 0.103482
H	-1.466234101	 2.0388723559	-3.0982905442	 0.120092
H	-0.9174496508	 0.4142071854	-2.47750738	 0.13831
H	-2.6473514352	 0.4765726852	-0.6757614487	 0.138308
H	-3.2337371874	 2.1025860774	-1.2574022161	 0.120092
74.6364	85.2927	140.6752	186.6522	211.8198	300.741	348.2012	442.7953	542.0573	569.531	620.1025	780.7515	805.8362	836.6952	871.6589	930.0394	954.2141	976.489	982.5949	1042.9263	1062.015	1063.7896	1084.589	1092.9592	1139.4579	1145.648	1160.2752	1168.1663	1199.9679	1234.2074	1300.5439	1307.9004	1373.1872	1396.6569	1468.6982	1505.6553	1510.5691	1535.9574	2352.3241	3022.6343	3032.3416	3083.9119	3085.0949	3138.122	3140.0961	3145.7591	3218.8497	3232.2592
N#CC1(COC1)C1CC1	N#CC1(COC1)C1CC1	
InChI=1S/C7H9NO/c8-3-7(4-9-5-7)6-1-2-6/h6H,1-2,4-5H2	InChI=1S/C7H9NO/c8-3-7(4-9-5-7)6-1-2-6/h6H,1-2,4-5H2
