20
gdb 121312	3.00896	0.98597	0.81666	1.8044	76.59	-0.2681	0.0204	0.2885	1462.5308	0.171136	-440.306663	-440.297404	-440.29646	-440.341585	33.246	
C	 0.0078904024	 1.4855797129	 0.2587295714	-0.384192
C	-0.0081509648	-0.0222250532	-0.0036131313	-0.171435
C	-1.4222156536	-0.6106680381	-0.0023203161	-0.18225
C	-1.4353937261	-2.1244995653	-0.2357764402	 0.004263
O	-0.7729069624	-2.858787826	 0.8004523327	-0.254568
C	-1.7672164169	-3.3377887136	 1.6622614816	 0.015801
O	-2.9601383235	-3.4790092398	 0.8911300986	-0.234914
C	-2.8357208994	-2.708436273	-0.2284078675	 0.388162
N	-3.7228686028	-2.5084678392	-1.0999391539	-0.538927
H	 1.028842059	 1.8792983743	 0.2476182595	 0.11459
H	-0.5672192101	 2.0273571643	-0.5002831619	 0.117108
H	-0.4292630881	 1.722990957	 1.2350570005	 0.114375
H	 0.4667343745	-0.2333937443	-0.9709740935	 0.097898
H	 0.5926932734	-0.5405622823	 0.7521816308	 0.112088
H	-1.9217788829	-0.3873438497	 0.9500834137	 0.095091
H	-2.0346554152	-0.1543255745	-0.7888880617	 0.126639
H	-0.930372115	-2.3620701174	-1.1770948505	 0.117279
H	-1.473108041	-4.317235981	 2.0502058506	 0.129755
H	-1.9683438249	-2.6433137384	 2.4933536045	 0.105467
H	-4.5896315426	-2.9923226427	-0.8617566273	 0.227769
64.405	93.8787	116.3223	133.8993	173.612	247.9504	276.8447	325.0178	412.762	512.9023	650.6305	674.7127	747.7733	755.7629	842.4472	884.1305	893.1548	927.5902	948.8067	998.765	1026.352	1054.1172	1079.547	1115.2985	1135.0905	1154.4246	1180.0161	1219.7659	1258.3326	1265.7684	1300.73	1326.4078	1340.0935	1372.7592	1398.739	1414.7434	1445.9297	1475.9135	1493.9212	1500.1486	1510.4072	1547.6933	1794.0205	2977.5519	3016.2057	3025.758	3031.1167	3056.9263	3067.4937	3080.439	3087.7938	3099.2592	3104.2758	3481.4025
CCCC1OCOC1=N	CCC[C@H]1OCO[C]1[NH]	
InChI=1S/C6H11NO2/c1-2-3-5-6(7)9-4-8-5/h5,7H,2-4H2,1H3	InChI=1S/C6H11NO2/c1-2-3-5-6(7)9-4-8-5/h5,7H,2-4H2,1H3/t5-/m1/s1
