21
gdb 114875	4.00623	0.98284	0.87803	2.3835	77.93	-0.2406	0.0733	0.3139	1360.0352	0.184011	-424.213542	-424.204996	-424.204052	-424.247278	32.383	
O	-0.1165016788	 1.4892153464	 0.0023607655	-0.423451
C	-0.0012383442	 0.0786490337	-0.1232277258	-0.095329
C	-1.3811671384	-0.5276575415	 0.0728787792	 0.047115
C	-1.4154318027	-2.0637470675	-0.0818757187	-0.257852
C	-2.741612739	-2.4877135751	 0.5772060034	-0.067567
C	-2.6623910633	-3.4371241852	 1.7877288049	-0.085235
O	-2.7306630314	-2.3341705764	 2.7151025664	-0.295788
C	-3.0294816201	-1.3993987545	 1.6442468134	 0.127978
C	-1.9966995384	-0.2758088531	 1.4687871944	-0.234426
H	 0.759689135	 1.8735196164	-0.092653921	 0.286731
H	 0.393194973	-0.2006114476	-1.1141094395	 0.082802
H	 0.6878279023	-0.3341765133	 0.6329776642	 0.083862
H	-2.0442600937	-0.0848393369	-0.6828154842	 0.080645
H	-1.3342448142	-2.3843634506	-1.1244367898	 0.098189
H	-0.5674582137	-2.5049211004	 0.4585739412	 0.099294
H	-3.5268587529	-2.6986187474	-0.150442719	 0.074057
H	-3.5233102214	-4.110262619	 1.8969929433	 0.094404
H	-1.7390278395	-4.0194506777	 1.9008271339	 0.096631
H	-4.0618459481	-1.0391722956	 1.7232704668	 0.069834
H	-1.2345313397	-0.3875747222	 2.2483515849	 0.109391
H	-2.4203855908	 0.7259732975	 1.5596054467	 0.108713
75.4711	87.1495	123.5825	206.5868	264.1995	340.3984	392.3399	406.2637	425.0786	570.2764	641.5926	751.7529	840.4819	848.3086	863.2405	893.9877	928.14	951.9491	993.332	1021.3171	1038.9027	1054.2833	1080.6009	1090.7087	1103.094	1122.5701	1161.5199	1189.1319	1207.6012	1220.1098	1244.4686	1259.8273	1280.0529	1289.7241	1306.0385	1339.6033	1346.5758	1348.4679	1366.426	1385.5197	1459.5423	1479.2432	1495.6847	1520.3926	1524.3581	2953.6516	2980.954	3001.9964	3014.4548	3025.0433	3031.5828	3045.4856	3050.4581	3079.6193	3099.9499	3116.7364	3831.5836
OCC1CC2COC2C1	OC[C@H]1C[C@H]2CO[C@H]2C1	
InChI=1S/C7H12O2/c8-3-5-1-6-4-9-7(6)2-5/h5-8H,1-4H2	InChI=1S/C7H12O2/c8-3-5-1-6-4-9-7(6)2-5/h5-8H,1-4H2/t5-,6-,7-/m0/s1
