16
gdb 72115	2.79012	1.88318	1.49981	2.0801	67.95	-0.2382	-0.0254	0.2128	896.6271	0.125668	-437.82986	-437.823001	-437.822057	-437.860868	27.644	
O	 0.0978619067	 1.4105192617	-0.0748669265	-0.478005
C	 0.0138207473	 0.0403609404	-0.0271277478	 0.276811
C	 0.7977872791	-0.7851201108	-1.0630229733	-0.212168
N	 0.0787698145	-2.0923122689	-0.9043526497	-0.147329
C	-1.31589992	-1.6647470894	-1.330301691	-0.187526
C	-1.3561709246	-0.8380122651	-0.0533331933	-0.113273
C	-0.404661907	-1.9348681154	 0.5595220425	-0.139521
C	 0.3208561502	-0.7783733529	 1.2241555329	 0.370647
O	 0.6420385268	-0.4917800742	 2.343582091	-0.337776
H	 0.0676241592	 1.7429786797	 0.8312566336	 0.299388
H	 0.704776058	-0.4156627907	-2.0863174884	 0.12021
H	 1.8581695522	-0.8834546287	-0.8140630113	 0.119443
H	-1.3699355755	-1.1733864128	-2.3066303059	 0.111534
H	-1.9912213551	-2.5236495322	-1.3117294364	 0.118688
H	-2.2283260236	-0.4230590561	 0.4497464499	 0.092052
H	-0.7174316782	-2.8533561947	 1.0461031036	 0.106823
147.2883	191.0465	294.4855	339.9388	371.6173	471.5595	526.1753	573.0215	646.8336	700.2688	772.5138	787.4704	805.4706	831.4943	855.4109	916.0642	962.047	1003.002	1006.2698	1041.2907	1065.6367	1083.7756	1123.5232	1141.098	1175.6469	1201.3677	1225.9052	1248.7073	1270.2753	1288.8992	1354.9059	1409.4166	1505.2755	1529.4401	1876.0844	3050.0268	3063.5094	3108.353	3118.693	3129.3785	3175.8532	3772.6852
OC12CN3CC1C3C2=O	O[C@]12CN3C[C@H]1[C@@H]3C2=O	
InChI=1S/C6H7NO2/c8-5-4-3-1-7(4)2-6(3,5)9/h3-4,9H,1-2H2	InChI=1S/C6H7NO2/c8-5-4-3-1-7(4)2-6(3,5)9/h3-4,9H,1-2H2/t3-,4+,6+/m0/s1
