16
gdb 89951	3.43126	1.31331	1.12553	3.1904	69.07	-0.2791	-0.0064	0.2727	1071.036	0.124241	-437.853668	-437.845702	-437.844758	-437.887066	29.777	
O	 0.3022159696	 1.220110567	-0.4485973071	-0.422969
C	 0.0328065221	-0.0870690779	-0.0207794723	 0.127991
C	 0.1499086104	-0.3865350014	 1.508952207	-0.321631
C	-1.3657143409	-0.6640050011	 1.5513275301	 0.308221
O	-2.1315001799	 0.5568833575	 1.6915698339	-0.326076
C	-2.4656022084	 0.5666396133	 0.2730569767	-0.106679
C	-1.4698746389	-0.5553046951	-0.0063277615	-0.154636
C	-1.8794280284	-1.7621902604	 2.3504599855	 0.226361
N	-2.269450696	-2.6552720597	 2.9724046006	-0.33506
H	-0.0501769495	 1.8343577312	 0.2048981252	 0.294235
H	 0.65704868	-0.7385469606	-0.6350906571	 0.109504
H	 0.7590267901	-1.2661093789	 1.7302800432	 0.131759
H	 0.4666113137	 0.443699763	 2.1449577836	 0.125699
H	-3.5139095623	 0.2903809947	 0.1145372145	 0.124064
H	-2.2664937633	 1.5359325667	-0.1943022618	 0.115932
H	-1.7512872282	-1.3749732083	-0.6635729704	 0.103285
28.1328	137.8807	180.8582	270.1039	333.2489	374.8982	412.6418	451.6343	546.1923	559.6802	600.2307	669.2444	778.2209	822.4938	914.694	925.5789	982.4552	988.7657	1008.9278	1044.3165	1092.8794	1108.8131	1139.7319	1151.639	1171.237	1211.4738	1247.6099	1283.1928	1290.04	1322.1159	1351.0253	1434.9101	1454.9174	1525.9994	2352.3655	3036.8161	3067.597	3089.5926	3095.1247	3129.9015	3143.4179	3804.7886
OC1CC2(OCC12)C#N	O[C@H]1C[C@]2(OC[C@@H]12)C#N	
InChI=1S/C6H7NO2/c7-3-6-1-5(8)4(6)2-9-6/h4-5,8H,1-2H2	InChI=1S/C6H7NO2/c7-3-6-1-5(8)4(6)2-9-6/h4-5,8H,1-2H2/t4-,5-,6-/m0/s1
