17
gdb 30202	2.67415	1.75067	1.17927	3.7783	75.93	-0.1887	0.0257	0.2144	1042.4938	0.137018	-417.997473	-417.989694	-417.98875	-418.029956	29.831	
C	-0.4280194036	 1.5322576551	-0.116110947	-0.399144
C	-0.0497336124	 0.0618276281	-0.0962747225	 0.042284
C	 0.9372058625	-0.431520997	-1.2325176671	-0.384187
C	 1.971732425	-0.5216853552	-0.1270995347	 0.263449
C	 3.1847148611	-0.4025511147	 0.4158867846	-0.184757
O	 3.0075821969	-0.0863708544	 1.772127921	-0.235816
C	 1.6498199122	 0.1249774381	 2.0247557882	 0.444085
N	 1.1279896222	 0.5644080458	 3.0918444474	-0.604616
N	 1.0270002496	-0.2914763673	 0.8686656027	-0.089343
H	 0.4484889074	 2.1609203527	-0.3027113887	 0.127805
H	-1.166611113	 1.7212025227	-0.9015286737	 0.123774
H	-0.8590928612	 1.8245757926	 0.8453050934	 0.157713
H	-0.9330781973	-0.5683054112	 0.037145697	 0.104336
H	 0.6558425109	-1.3830278089	-1.6883460204	 0.133039
H	 1.1449900945	 0.3005885239	-2.0146968401	 0.133236
H	 4.1996452506	-0.4771169633	 0.070564828	 0.143942
H	 1.8461426447	 0.7847582531	 3.777374342	 0.224201
71.8511	122.0521	221.388	287.1915	289.3677	371.6889	413.3	560.0978	595.682	664.4342	691.3743	705.657	719.8522	751.1288	790.3593	830.8886	901.6932	932.2509	1019.538	1026.2114	1063.9377	1089.2044	1092.6874	1170.9964	1187.2084	1218.7352	1238.0845	1280.8256	1331.8866	1365.3768	1384.9536	1410.6278	1477.1487	1486.173	1495.4539	1707.769	1779.9703	3039.2983	3069.4313	3079.3034	3113.3805	3123.4986	3132.9874	3305.5038	3533.6347
CC1CC2=COC(=N)N12	C[C@H]1C[C@H]2CO[C@H]([NH])N12	
InChI=1S/C6H8N2O/c1-4-2-5-3-9-6(7)8(4)5/h3-4,7H,2H2,1H3	InChI=1S/C6H11N2O/c1-4-2-5-3-9-6(7)8(4)5/h4-7H,2-3H2,1H3/t4-,5-,6+/m0/s1
