17
gdb 95794	2.26537	1.68956	1.03905	0.5749	64.64	-0.2675	-0.0448	0.2227	1105.056	0.136018	-496.115184	-496.106962	-496.106018	-496.147807	31.395	
O	 0.0620201009	 1.3759471845	 0.1231403779	-0.432323
C	 0.0359301369	-0.017552367	 0.0176322796	 0.037211
C	-1.4226241317	-0.552999383	-0.0496455778	-0.113879
O	-1.4406973225	-1.9516925685	-0.2376551106	-0.233349
C	-0.8848708912	-2.337168474	-1.476397006	-0.113875
C	 0.6258054292	-1.9746600379	-1.5474477604	 0.037209
O	 1.1639718464	-2.2802446785	-2.800704051	-0.432324
C	 0.7344730259	-0.4988184995	-1.2346397139	 0.312231
O	 1.2526329843	 0.2798716286	-2.0130873507	-0.355737
H	 0.5377573273	 1.6939248211	-0.6596592939	 0.298394
H	 0.5192207437	-0.4843203108	 0.8896051372	 0.110138
H	-1.9358710297	-0.3415638132	 0.8904166786	 0.1315
H	-1.9488330508	-0.0273106161	-0.8616563378	 0.107386
H	-1.0086663119	-3.4178328	-1.5695839317	 0.1315
H	-1.3989129511	-1.8518831537	-2.3207100278	 0.107388
H	 1.1386896829	-2.5395188863	-0.7539323981	 0.110135
H	 1.4825382515	-1.4405274858	-3.1662199836	 0.298394
106.9656	140.1752	238.7924	304.8152	332.2935	343.6074	377.1037	402.0584	405.1542	429.6063	448.0653	575.0956	663.013	723.3543	844.5652	961.552	969.1552	1019.7969	1037.2809	1046.4006	1099.5366	1131.117	1167.5701	1170.5189	1217.7196	1274.1526	1279.2551	1299.391	1318.6793	1338.6024	1372.5726	1389.0176	1433.3431	1437.8773	1495.7157	1509.2277	1779.7782	2985.313	2989.9817	2996.3521	3006.1632	3114.9694	3117.1508	3702.3943	3709.8913
OC1COCC(O)C1=O	O[C@H]1COC[C@@H](O)C1=O	
InChI=1S/C5H8O4/c6-3-1-9-2-4(7)5(3)8/h3-4,6-7H,1-2H2	InChI=1S/C5H8O4/c6-3-1-9-2-4(7)5(3)8/h3-4,6-7H,1-2H2/t3-,4+
