22
gdb 63577	3.0941	1.2603	1.05821	1.3652	90.03	-0.2149	0.0184	0.2333	1243.56	0.194333	-367.213675	-367.20453	-367.203586	-367.247201	35.563	
C	 0.0249107749	 1.5117334568	-0.203238663	-0.434964
C	-0.0432115773	 0.0063930783	-0.0236047777	 0.264545
C	-1.1656232133	-0.6437537454	-0.8099799095	-0.462564
N	 1.2749798106	-0.6587457545	 0.017875987	-0.4171
C	 0.4450231263	-0.6024996165	 1.2542534611	 0.301591
C	 0.9802365509	 0.2134367582	 2.4438697105	-0.289858
C	 0.9561449334	-0.7528550344	 3.6592025206	-0.273196
C	 0.1701767878	-1.9383670485	 3.1551990865	-0.078972
C	-0.1055303912	-1.848716827	 1.8535829948	-0.150201
H	 0.8914493274	 1.9338179664	 0.3082657709	 0.127389
H	 0.1084191623	 1.7632429446	-1.2667581364	 0.113818
H	-0.8794525518	 1.9946419941	 0.1844568752	 0.110915
H	-1.04702538	-0.4335821995	-1.8796837612	 0.119277
H	-1.1885717756	-1.729150419	-0.6855275539	 0.112163
H	-2.1417798258	-0.2501735459	-0.5050374326	 0.121785
H	 1.2104526202	-1.588944954	-0.3938062849	 0.216884
H	 1.9793592218	 0.5974558888	 2.2298949091	 0.115659
H	 0.3303717255	 1.0733393	 2.6344967806	 0.104005
H	 1.964829379	-1.0579531587	 3.9682235167	 0.110524
H	 0.4955296095	-0.2947436612	 4.5421675194	 0.104842
H	-0.1085598705	-2.7692573719	 3.793947926	 0.093098
H	-0.6359228539	-2.5975930408	 1.277250621	 0.090357
73.6893	160.2667	165.548	195.2158	216.1706	262.1325	347.46	380.8347	413.6332	465.4193	504.2663	549.7896	669.3831	747.2388	765.7061	812.6089	820.0671	870.9792	924.6593	953.157	958.4726	965.1841	988.1236	1001.5821	1047.4048	1068.4211	1078.1034	1118.7294	1147.4812	1163.5183	1178.7419	1241.8062	1261.4617	1293.7015	1310.0918	1335.4694	1370.763	1409.4905	1420.6327	1432.7363	1477.3037	1479.2333	1488.8864	1496.9694	1502.8575	1511.6282	1677.6624	3018.0966	3025.8779	3031.4014	3045.699	3059.8492	3082.9889	3088.3784	3113.6779	3115.516	3135.2688	3184.4785	3209.632	3466.9135
CC1(C)NC11CCC=C1	CC1(C)N[C@]21CCC=C2	
InChI=1S/C8H13N/c1-7(2)8(9-7)5-3-4-6-8/h3,5,9H,4,6H2,1-2H3	InChI=1S/C8H13N/c1-7(2)8(9-7)5-3-4-6-8/h3,5,9H,4,6H2,1-2H3/t8-/m0/s1
