16
gdb 30994	2.02642	1.21721	0.76348	2.2971	76.43	-0.2405	-0.063	0.1775	1442.4014	0.12151	-471.229624	-471.219187	-471.218243	-471.266351	35.742	
N	-0.0463871191	-0.2681668284	-0.6627926112	-0.721283
H	 0.4035886743	-0.5449550437	 0.2072234751	 0.263298
H	 0.6835144915	-0.2683688919	-1.3704173112	 0.237251
H	-0.6740007656	-1.0286523127	-0.9102652752	 0.237252
C	-0.6121612545	 2.129589436	 1.6239338121	-0.434842
C	 0.0666840554	 1.4934152915	 2.5738528089	 0.326826
C	 0.3363499228	 1.8567072394	 3.9652889242	 0.332631
O	-0.1174030666	 2.9857677637	 4.4892994521	-0.390257
N	 1.0412732616	 0.9732808288	 4.5844605238	-0.400558
C	 1.2867815076	-0.0390721691	 3.639874793	 0.445629
N	 1.9273944869	-1.1184917088	 3.7471941786	-0.534784
O	 0.6938542734	 0.2809659919	 2.4224413383	-0.239375
H	-1.0671550854	 3.0834178447	 1.8560805842	 0.137427
H	-0.7088281716	 1.6999644454	 0.631726332	 0.181312
H	 0.1759318063	 3.0217268723	 5.4114640145	 0.320554
H	 2.2924573727	-1.1953168791	 4.6946964909	 0.238921
38.9777	68.1333	114.1611	115.725	149.1074	180.8317	208.707	280.55	304.509	370.7001	414.2133	571.4898	580.4155	640.554	684.4837	730.5523	745.3114	803.1964	823.8534	855.5414	921.1146	956.4868	1018.1965	1059.5205	1118.6474	1204.7877	1243.2643	1332.246	1417.8194	1515.1301	1661.3118	1676.3051	1692.5853	1728.887	1783.4949	3150.212	3266.6618	3461.4847	3525.0726	3577.9235	3581.6959	3762.7242
[NH3+]CC1=C(O)[N-]C(=N)O1	N.[CH2]c1c(O)nc([NH])o1	
InChI=1S/C4H6N3O2/c5-1-2-3(8)7-4(6)9-2/h1,5H2,(H2-,6,7,8)/q-1/p+1	InChI=1S/C4H4N2O2.H3N/c1-2-3(7)6-4(5)8-2;/h1H2,(H2,5,6,7);1H3
