18
gdb 14167	3.32399	2.26918	1.86902	1.5786	66.46	-0.2404	0.0799	0.3203	791.3143	0.155014	-384.919861	-384.912971	-384.912027	-384.950319	28.347	
C	-0.1467346658	 1.5748972018	-0.0060980339	-0.457833
C	-0.0013908568	 0.0631370666	 0.029536378	 0.468707
O	-1.2605953336	-0.4591978399	 0.3645388388	-0.496552
C	 0.786690602	-0.5984198527	-1.1850380827	-0.126859
C	 2.0941263987	-0.2430484333	-0.412628594	-0.252838
C	 1.1982954573	-0.5691842506	 0.7966071311	 0.031917
O	 0.9169683888	-1.9801408982	 0.6366342124	-0.30483
C	 0.657290043	-2.0704784318	-0.7981024971	-0.10495
H	 0.7500891482	 2.0893055161	-0.3535768188	 0.116454
H	-0.9706763602	 1.835304549	-0.6775721232	 0.131224
H	-0.4022027146	 1.9494268484	 0.9898032984	 0.124802
H	-1.0928547142	-1.3210637718	 0.7694757539	 0.2911
H	 0.611614207	-0.3233806574	-2.2243817921	 0.072956
H	 2.9558513782	-0.8969142408	-0.5602049843	 0.105324
H	 2.3902935925	 0.8012558238	-0.4849127761	 0.109725
H	 1.4442461206	-0.3657577399	 1.8383140998	 0.079536
H	-0.3431808406	-2.4807673473	-0.967667639	 0.106397
H	 1.4013396296	-2.7210216321	-1.269373521	 0.105717
177.7454	226.3929	284.7059	340.0141	393.6281	441.6656	489.1626	556.6714	570.2765	654.2215	715.1035	805.1417	843.5968	877.3067	906.0265	935.798	949.2182	972.4985	986.0134	1030.5367	1064.5225	1081.3079	1120.3329	1125.2901	1157.1392	1199.8777	1215.3479	1235.5163	1257.2087	1272.9423	1288.737	1365.5055	1395.2169	1425.6236	1482.0721	1488.7881	1504.9062	1528.0515	3039.897	3048.0424	3083.5568	3087.3472	3108.9332	3127.6145	3132.7078	3138.5793	3163.8338	3748.5921
CC1(O)C2CC1OC2	C[C@@]1(O)[C@H]2C[C@@H]1OC2	
InChI=1S/C6H10O2/c1-6(7)4-2-5(6)8-3-4/h4-5,7H,2-3H2,1H3	InChI=1S/C6H10O2/c1-6(7)4-2-5(6)8-3-4/h4-5,7H,2-3H2,1H3/t4-,5-,6+/m0/s1
