17
gdb 67135	2.11066	1.84294	1.49723	3.7293	73.11	-0.2283	0.008	0.2363	982.4657	0.134885	-421.79502	-421.786839	-421.785895	-421.827432	31.265	
C	-0.1353716851	 1.5042879046	-0.1157026895	-0.526203
C	 0.0271398017	 0.0273125752	 0.0115384072	 0.297664
C	 0.5623514172	-1.0716833627	-0.8603159609	-0.187317
C	 1.3358758868	-1.7150125426	 0.2913827329	-0.246192
C	 0.3623431406	-0.9384807037	 1.2222786046	-0.234479
C	-1.0220056125	-1.5723005824	 0.9294405264	 0.366326
O	-1.8936437992	-2.0196472655	 1.6204657461	-0.346121
C	-0.9381597497	-1.0831721781	-0.4843448313	 0.22642
O	-1.9286499123	-0.9023477301	-1.4137403701	-0.456132
H	 0.8180817478	 2.0279233531	 0.0121910793	 0.12803
H	-0.5333523977	 1.7560687709	-1.1037764228	 0.140117
H	-0.835088728	 1.8894927939	 0.633710461	 0.137597
H	 0.8177367897	-1.0141339502	-1.9127065058	 0.096521
H	 1.3395476976	-2.8077565003	 0.3755002922	 0.102322
H	 2.3593882557	-1.3347548475	 0.3525054771	 0.109698
H	 0.6212809182	-0.6421032422	 2.234932369	 0.094205
H	-1.9514199307	-1.6646748826	-2.0026936953	 0.297544
111.1805	171.7719	190.9815	235.5259	257.3364	293.9424	337.3115	436.4835	523.7692	596.0045	617.628	669.6196	708.3064	785.4342	796.0353	865.2796	926.9623	942.731	957.6084	987.5948	1046.0994	1076.4348	1109.0095	1119.2536	1153.5177	1164.0246	1199.0458	1238.6159	1268.2446	1293.5989	1385.3578	1421.5826	1469.4188	1485.1387	1493.7924	1498.6834	1875.4091	3030.1227	3035.6447	3092.5315	3095.9449	3105.9354	3164.1067	3178.0212	3796.7788
CC12C3CC1C(=O)C23O	C[C@@]12[C@H]3C[C@@H]1C(=O)[C@@]23O	
InChI=1S/C7H8O2/c1-6-3-2-4(6)7(6,9)5(3)8/h3-4,9H,2H2,1H3	InChI=1S/C7H8O2/c1-6-3-2-4(6)7(6,9)5(3)8/h3-4,9H,2H2,1H3/t3-,4-,6+,7-/m1/s1
