22
gdb 57433	2.51462	1.27766	1.09945	0.7457	89.33	-0.223	0.034	0.257	1241.2582	0.190451	-367.152347	-367.14202	-367.141076	-367.186693	39.814	
C	-0.0354810956	 1.556577845	 0.4002707486	-0.432549
C	-0.1116415052	 0.041548432	 0.1269212466	 0.27959
C	 0.4324765089	-0.7471539701	 1.3273974308	-0.399367
C	-1.5786708807	-0.3457055064	-0.1309682856	-0.382936
N	 0.6234007119	-0.4374594479	-1.069460325	-0.095986
C	 0.9726341168	 0.4125071152	-2.1834219684	-0.252833
C	 2.048028843	-0.216205001	-1.3389267155	-0.182308
C	 2.9300907057	 0.5976465483	-0.542117116	 0.338425
C	 3.7400266239	 1.2130868663	 0.1018875877	-0.46376
H	 0.9917219843	 1.9018902926	 0.5297071925	 0.133934
H	-0.4992583988	 2.1334122604	-0.4063760726	 0.10946
H	-0.5858212099	 1.7865274393	 1.3182445593	 0.111655
H	-0.1706161039	-0.5494847991	 2.2188882979	 0.108183
H	 0.4011907355	-1.8207422088	 1.1198897338	 0.117638
H	 1.466685701	-0.468071686	 1.5460640742	 0.126344
H	-1.9631417209	 0.1620180424	-1.0218054101	 0.109563
H	-1.668785894	-1.4233339374	-0.2901154833	 0.117883
H	-2.2081983963	-0.0606974516	 0.7182594704	 0.106263
H	 0.7694887698	 0.018759411	-3.17712162	 0.116179
H	 0.8644573863	 1.4904181064	-2.0876438677	 0.120949
H	 2.5388583863	-1.1072475947	-1.7280191317	 0.114947
H	 4.4395101318	 1.7700265342	 0.6750115142	 0.198725
72.343	133.0216	194.0613	202.3986	233.9952	257.3492	264.8485	291.1708	327.2966	357.6592	388.9851	428.5791	469.8645	533.9588	594.455	636.9844	646.9015	660.5134	784.6788	814.6398	912.6112	921.7398	933.3816	960.919	1002.5862	1030.8257	1044.4068	1058.9749	1115.4434	1121.4688	1154.7212	1222.7815	1249.1377	1262.4798	1330.9742	1370.8912	1394.4282	1395.9527	1425.409	1474.1994	1485.375	1488.6759	1498.2494	1502.9663	1507.4396	1521.7797	2224.1674	3032.8249	3038.4291	3044.2837	3093.5026	3096.9981	3103.2572	3108.9561	3112.5862	3119.8931	3122.5216	3139.2299	3179.3033	3500.9775
CC(C)(C)N1CC1C#C	CC(C)(C)N1C[C@H]1C#C	
InChI=1S/C8H13N/c1-5-7-6-9(7)8(2,3)4/h1,7H,6H2,2-4H3	InChI=1S/C8H13N/c1-5-7-6-9(7)8(2,3)4/h1,7H,6H2,2-4H3/t7-,9?/m1/s1
