17
gdb 46549	3.84972	1.16883	1.0577	3.3727	67.95	-0.2631	0.0052	0.2682	1143.1224	0.136595	-458.989408	-458.981733	-458.980788	-459.022325	28.584	
O	 0.0515557306	 0.1950649146	-0.681683216	-0.325718
C	-0.0489778393	 1.2641508404	-0.1595457969	 0.417244
C	-1.2935929107	 1.9478562265	 0.3963551625	-0.364215
C	-0.8576843401	 3.4070523896	 0.5432801398	-0.297106
C	 0.6625288623	 3.2875590782	 0.7173534817	 0.349972
C	 1.5506935687	 4.4966275679	 0.3779813296	-0.127696
O	 1.9173888124	 4.6641526165	 1.7622226327	-0.267325
C	 1.2687716096	 3.4326925168	 2.1339866461	-0.120669
O	 1.0286042113	 2.0838711128	 0.0376384817	-0.253135
H	-2.1451415805	 1.781421093	-0.2639604624	 0.145188
H	-1.5295988873	 1.4838249231	 1.3608807062	 0.144949
H	-1.074548151	 3.9639320646	-0.3744477216	 0.123181
H	-1.3270396311	 3.9369801807	 1.3739658764	 0.125019
H	 2.4066855054	 4.2400214655	-0.257606238	 0.12106
H	 1.0391183698	 5.3784939809	-0.0254384631	 0.107313
H	 0.5668527879	 3.5680390746	 2.9653737819	 0.104797
H	 1.985145332	 2.638414324	 2.3767282294	 0.11714
72.938	95.0844	132.4118	275.4499	348.7399	420.509	450.0746	518.3297	540.6493	660.011	754.0133	804.5359	847.8234	901.3172	934.7506	951.8807	986.6586	996.8925	1010.6211	1037.3572	1097.1162	1140.7689	1147.2085	1155.0729	1171.7046	1205.1207	1255.0796	1289.8904	1303.8483	1306.3205	1340.8089	1385.7706	1465.9055	1493.9141	1502.3205	1525.9692	1892.7982	3013.045	3024.4163	3052.2881	3057.6791	3069.3536	3071.8401	3116.6922	3133.2698
O=C1CCC2(COC2)O1	O=C1CCC2(COC2)O1	
InChI=1S/C6H8O3/c7-5-1-2-6(9-5)3-8-4-6/h1-4H2	InChI=1S/C6H8O3/c7-5-1-2-6(9-5)3-8-4-6/h1-4H2
