15
gdb 131898	4.46394	1.07384	0.87028	4.8117	77.1	-0.2412	-0.075	0.1662	1264.0834	0.113063	-453.914078	-453.906093	-453.905149	-453.947218	28.918	
C	-0.0042958417	 1.5146431786	-0.0230999507	-0.49986
C	-0.0003393126	 0.0162909526	 0.0357069507	 0.276919
C	-0.0752026793	-0.8480323418	-1.0502787502	-0.140503
N	-0.043936083	-2.1304592547	-0.5974234738	-0.309505
C	 0.0498850588	-2.103569096	 0.7648338286	 0.451722
C	 0.0795965141	-0.792500137	 1.195227888	-0.304775
N	 0.0997102489	-3.3218234723	 1.4895904248	 0.343251
O	 0.0540089137	-4.3661315298	 0.8291785476	-0.406782
O	 0.1840116762	-3.2598948207	 2.711888032	-0.373476
H	 0.908636658	 1.936944205	 0.410622831	 0.137074
H	-0.0744880585	 1.8673745427	-1.0556903017	 0.125913
H	-0.8500547235	 1.9370495102	 0.5302366596	 0.137076
H	-0.1478147886	-0.6308129401	-2.1045834551	 0.139172
H	-0.0804921414	-2.9896444585	-1.1215933739	 0.288118
H	 0.1504676988	-0.4758118382	 2.223031423	 0.135655
76.4325	104.0737	156.168	186.4521	296.1435	338.3431	424.7586	551.3126	553.2432	620.7743	646.0667	671.9911	762.4352	796.6215	826.4636	865.5401	983.8262	998.9185	1002.8097	1065.7184	1120.6069	1144.0634	1254.4841	1321.0856	1395.2977	1412.8526	1426.5602	1475.0343	1483.5777	1498.5707	1522.389	1602.7314	1608.5635	3034.154	3087.3804	3113.0128	3259.4602	3273.9756	3667.2149
CC1=CNC(=C1)N(=O)=O	Cc1c[nH]c(c1)N(=O)=O	
InChI=1S/C5H6N2O2/c1-4-2-5(6-3-4)7(8)9/h2-3,6H,1H3	InChI=1S/C5H6N2O2/c1-4-2-5(6-3-4)7(8)9/h2-3,6H,1H3
