19
gdb 64346	2.50084	1.48101	1.19309	3.5298	72.02	-0.2617	0.0133	0.275	1116.1039	0.157896	-460.216355	-460.207448	-460.206504	-460.250056	33.637	
C	 0.13795655	 1.4161572562	 0.0990019039	-0.406484
C	-0.1298268849	-0.0742743293	-0.0510930262	 0.42513
C	-1.6237190559	-0.3894493262	-0.1695521357	-0.415138
O	 0.6042727543	-0.4991651047	-1.1676997539	-0.261938
C	 0.7671051607	-1.9056046483	-1.267579604	-0.114835
C	 1.577338938	-2.387480574	-0.0701747149	-0.332074
C	 1.0449801855	-1.8405641159	 1.2430709776	 0.39639
O	 1.2642057518	-2.3483744027	 2.3085529692	-0.3244
O	 0.3323472145	-0.6903397778	 1.1875435751	-0.26482
H	 1.2128999566	 1.5855200762	 0.1882242493	 0.132054
H	-0.2329950093	 1.9502760559	-0.7790806853	 0.128271
H	-0.3601613876	 1.7995401399	 0.9915847454	 0.133531
H	-2.0309443899	 0.0860119519	-1.0655756409	 0.12894
H	-1.8072974499	-1.464854843	-0.2265417436	 0.124149
H	-2.1508622101	-0.0092490799	 0.7080423911	 0.138547
H	-0.2022821126	-2.4189488175	-1.3223536298	 0.107537
H	 1.2908338654	-2.0860680538	-2.2090604138	 0.121881
H	 1.6115714321	-3.476500914	 0.0067200353	 0.136758
H	 2.6102382714	-2.0319818831	-0.162873149	 0.146502
57.738	99.1818	192.8772	231.5093	278.126	307.5627	339.1606	383.8591	445.8042	469.2888	498.9375	529.7383	578.4038	666.0579	750.1915	816.1476	892.1849	926.4406	933.1023	977.8582	1003.3036	1010.7869	1080.1319	1099.2673	1151.801	1219.0938	1222.0242	1259.2141	1289.8713	1302.3432	1348.636	1401.8538	1406.4081	1417.4	1453.6634	1473.8702	1475.386	1492.3749	1497.5124	1520.4077	1844.7649	3018.0795	3052.6596	3055.3273	3060.7305	3102.2488	3118.4514	3131.5161	3135.8919	3141.3423	3147.9608
CC1(C)OCCC(=O)O1	CC1(C)OCCC(=O)O1	
InChI=1S/C6H10O3/c1-6(2)8-4-3-5(7)9-6/h3-4H2,1-2H3	InChI=1S/C6H10O3/c1-6(2)8-4-3-5(7)9-6/h3-4H2,1-2H3
