18
gdb 65746	2.77245	1.18793	1.08103	1.0672	73.55	-0.2435	-0.0489	0.1946	1182.6889	0.144891	-439.087872	-439.078418	-439.077474	-439.122655	33.616	
C	-0.1504650506	 1.6941347243	 0.1647711131	-0.434222
C	-0.0118224272	 0.1784031558	 0.0561158425	 0.182172
C	-1.385512253	-0.5555770245	 0.0847466869	-0.318975
C	-2.1534888709	-0.2904891893	-1.1922939731	 0.142719
O	-1.8980311232	-0.8418546256	-2.2362261708	-0.242145
N	 0.8974803244	-0.2822055205	-1.0329891584	-0.352837
C	 1.7065701611	-1.1341634009	-0.1251572558	-0.287747
C	 0.9630501383	-0.4923796517	 1.0549330281	 0.360589
O	 1.0799752873	-0.4812139469	 2.242448837	-0.29261
H	 0.8361096184	 2.1627988459	 0.1441961388	 0.133615
H	-0.7276312065	 2.0994583406	-0.6726744322	 0.125703
H	-0.6501311081	 1.9695001917	 1.0988788946	 0.129345
H	-1.2181924109	-1.6355938262	 0.157330612	 0.12877
H	-1.9566534168	-0.2286948027	 0.9588039067	 0.124085
H	-2.9621904873	 0.4699427718	-1.1370899823	 0.095369
H	 0.4185455722	-0.7807622456	-1.7758387215	 0.241216
H	 1.5338503756	-2.2175307011	-0.1917328145	 0.128182
H	 2.7859111773	-0.952460515	-0.1663856312	 0.136769
71.7745	85.6099	112.9591	153.4631	182.0691	218.9946	263.61	332.3593	395.6522	505.213	533.5681	564.9407	634.3296	714.1204	754.7125	869.2689	937.8621	944.8256	961.0865	977.8516	1011.4158	1019.7873	1055.8742	1126.7919	1145.5211	1168.7704	1192.9271	1258.6961	1304.0071	1308.8858	1384.0915	1408.6574	1422.8284	1467.8257	1475.3316	1482.7553	1496.522	1806.8953	1912.1718	2896.8928	3010.3553	3038.3552	3045.7268	3069.4188	3103.4969	3108.7599	3127.2328	3535.6602
CC1(CC=O)NCC1=O	C[C@@]1(CC=O)NCC1=O	
InChI=1S/C6H9NO2/c1-6(2-3-8)5(9)4-7-6/h3,7H,2,4H2,1H3	InChI=1S/C6H9NO2/c1-6(2-3-8)5(9)4-7-6/h3,7H,2,4H2,1H3/t6-/m0/s1
