17
gdb 128422	5.00762	0.9353	0.84979	12.9936	75.73	-0.1589	-0.0019	0.157	1357.6845	0.136875	-451.255041	-451.246704	-451.24576	-451.288907	30.216	
C	-0.5654261238	 0.8940428723	-0.1868239775	-0.348934
N	 0.6406488225	 0.0856579962	 0.1248525249	-0.238514
H	 1.2438850113	 0.5728981174	 0.7831343185	 0.292988
H	 0.3158218184	-0.8857048119	 0.5142111589	 0.316694
C	 1.4141391665	-0.3917431558	-1.088205307	-0.319787
C	 0.9939367869	-1.8279186591	-1.2368249931	 0.409896
N	 0.2519501007	-2.2676124958	-0.2351129566	-0.277033
O	 0.0162513299	-3.6054270558	-0.5796160865	-0.288327
C	 0.6785259354	-3.8254740484	-1.8262687572	 0.41827
N	 0.6572153302	-4.9482494411	-2.422451717	-0.597145
N	 1.2949840873	-2.650096647	-2.2150875575	-0.428765
H	-0.2791656672	 1.8182814914	-0.6914589963	 0.166294
H	-1.204154443	 0.2887530695	-0.8307019925	 0.200362
H	-1.0925611077	 1.1206729715	 0.7413860071	 0.168044
H	 1.1611980538	 0.2257105334	-1.9527630777	 0.160919
H	 2.4833273336	-0.288888627	-0.8871630746	 0.161651
H	 0.1160637451	-5.6180177099	-1.8785544258	 0.203384
41.9225	98.4436	168.6604	201.4571	250.186	290.4506	369.4438	440.259	534.4225	618.5439	703.4464	733.6119	761.9955	765.3878	831.3884	864.4333	905.9392	986.0567	1002.6237	1040.5339	1056.8985	1082.5723	1135.1033	1187.3253	1247.2137	1261.6515	1316.9033	1399.721	1427.1006	1469.0045	1478.3877	1490.031	1497.2578	1511.365	1516.8525	1618.3638	1750.909	2400.608	3069.5	3075.8229	3126.3737	3158.9173	3172.621	3507.1616	3514.4437
C[NH2+]CC1=NOC(=N)[N-]1	C[NH2]Cc1noc([NH])n1	
InChI=1S/C4H7N4O/c1-6-2-3-7-4(5)9-8-3/h6H,2H2,1H3,(H-,5,7,8)/q-1/p+1	InChI=1S/C4H8N4O/c1-6-2-3-7-4(5)9-8-3/h5H,2,6H2,1H3
