12
gdb 124066	3.90412	1.67737	1.18198	4.3929	61.9	-0.2674	-0.06	0.2075	919.5389	0.080056	-468.76638	-468.760228	-468.759284	-468.797608	22.741	
C	 0.0046279307	 1.479588181	 0.1163581464	-0.171147
O	 1.2680458705	 2.0277154444	-0.3364332185	-0.229826
C	 2.2746629335	 1.2438816079	-0.7631643435	 0.140489
N	 2.3455911948	-0.0292157031	-0.8591691421	-0.339122
C	 1.1919042424	-0.6750138979	-0.4537163965	 0.354642
N	 0.9737115545	-1.9642707417	-0.4402538137	-0.169447
O	-0.3032473319	-2.0994377223	 0.039904574	-0.151597
N	-0.8804741252	-0.8775714153	 0.3264648017	-0.172375
C	 0.0323259187	-0.0080797488	 0.0251293659	 0.258346
H	-0.1451327517	 1.8291189042	 1.1428285604	 0.162707
H	-0.7769779782	 1.9188285767	-0.5116521269	 0.16271
H	 3.119056732	 1.863581395	-1.0519738772	 0.154619
59.4458	229.8878	295.7776	444.3792	489.9153	540.3437	621.4569	636.7532	756.4039	768.619	865.2535	870.5094	923.7132	960.5103	973.4708	1033.8631	1062.6483	1144.1631	1238.226	1285.588	1386.1701	1405.3955	1449.0817	1504.03	1553.9062	1647.2366	1665.1508	3049.2743	3087.7098	3191.7047
C1OC=NC2=NON=C12	C1OC=Nc2nonc12	
InChI=1S/C4H3N3O2/c1-3-4(5-2-8-1)7-9-6-3/h2H,1H2	InChI=1S/C4H3N3O2/c1-3-4(5-2-8-1)7-9-6-3/h2H,1H2
