20
gdb 6050	3.00682	1.50926	1.2802	2.0802	66.58	-0.2581	0.0519	0.3101	1041.9134	0.174365	-423.275933	-423.26616	-423.265216	-423.309551	36.952	
C	-0.1876600447	 1.5553193504	-0.1004836042	-0.417248
C	-0.0318743386	 0.0333475086	-0.0454569501	 0.137883
O	 0.6727469592	-0.4345462089	-1.1893972011	-0.442961
C	 0.682625813	-0.4876419016	 1.2271268409	 0.331599
C	 0.6557100297	-2.0248280516	 1.2480582805	-0.437109
O	 2.0341765074	-0.0317758603	 1.1073690571	-0.489662
C	 0.1026699617	 0.0889719896	 2.529229205	-0.124239
O	 0.9398079378	-0.2354940721	 3.6393413796	-0.42974
H	 0.7722177671	 2.0456051217	 0.0875281084	 0.126916
H	-0.5348915684	 1.8376283672	-1.0974236376	 0.122171
H	-0.9159197532	 1.9241968471	 0.6289460025	 0.110106
H	-1.0220027343	-0.4350761986	-0.1018136985	 0.078531
H	 1.5978522843	-0.2001241268	-1.0399959698	 0.290924
H	 1.0422651151	-2.4081517675	 0.3028664148	 0.14373
H	 1.2822554606	-2.4174904024	 2.0560377349	 0.095149
H	-0.3638325833	-2.4034949416	 1.3829374345	 0.108287
H	 2.4057620753	-0.0666232167	 1.9984977567	 0.287654
H	 0.0997154223	 1.1797308755	 2.4868432203	 0.120324
H	-0.9290829639	-0.2546297818	 2.6877447079	 0.095766
H	 0.8116367828	-1.1657011503	 3.8504798885	 0.291921
93.1466	113.7038	192.3972	228.9517	246.8886	281.7117	312.3645	336.5724	344.3234	373.8969	392.5402	448.4196	466.1703	492.8215	526.1993	649.0425	758.5081	864.4116	911.2491	931.7622	964.8205	1011.6419	1045.8453	1088.6444	1102.5769	1121.0063	1162.6032	1216.4092	1245.5613	1292.5855	1351.8443	1371.1059	1388.3025	1395.0593	1401.1239	1421.6529	1435.4746	1487.93	1489.9483	1496.7675	1503.1174	1504.6898	3010.0666	3030.4087	3038.0037	3040.3114	3094.0575	3107.9942	3117.6599	3126.4799	3142.9667	3766.3874	3776.8224	3822.2836
CC(O)C(C)(O)CO	C[C@@H](O)[C@@](C)(O)CO	
InChI=1S/C5H12O3/c1-4(7)5(2,8)3-6/h4,6-8H,3H2,1-2H3	InChI=1S/C5H12O3/c1-4(7)5(2,8)3-6/h4,6-8H,3H2,1-2H3/t4-,5+/m1/s1
