16
gdb 129929	3.11716	1.27382	0.98636	2.3965	76.6	-0.1947	0.026	0.2207	1173.0132	0.125194	-396.910635	-396.902034	-396.901089	-396.943911	32.371	
N	 0.1993291223	 1.3671982279	-0.3389230599	-0.619311
C	 0.0572053957	-0.0140853048	-0.1362725853	 0.130499
C	-1.0918293329	-0.7555709378	 0.0600981663	-0.107363
N	-0.6815495379	-2.0352560483	 0.2936027144	-0.191171
N	 0.6486604438	-2.1782526167	 0.2542829768	-0.290799
C	 1.1119247504	-0.9549027696	 0.0000145438	 0.316421
C	 2.5929458419	-0.7015487654	-0.0877540644	-0.452235
C	 2.9913830753	-0.0016474846	-1.3097294553	 0.300528
C	 3.2967703128	 0.5968031975	-2.3074377095	-0.466126
H	 0.9744953441	 1.5762869026	-0.9584608406	 0.251452
H	-0.6415123586	 1.7981891817	-0.7005891946	 0.238564
H	-2.1343558364	-0.4804877633	 0.0530718221	 0.120569
H	-1.2548090766	-2.8404518941	 0.4736416915	 0.272314
H	 2.9277284708	-0.112017599	 0.7775117756	 0.144502
H	 3.1060872875	-1.6669558387	-0.0243887698	 0.154089
H	 3.5876496978	 1.1018301425	-3.1951121312	 0.198068
62.2709	113.0583	225.5795	257.0666	259.6343	331.9688	337.1971	427.3361	430.708	466.7407	615.3835	635.6228	650.5785	669.4187	710.4942	735.2797	765.7156	806.4432	928.6265	953.1544	958.9979	1072.3573	1112.6591	1182.8874	1234.2	1250.6138	1328.8586	1343.9177	1425.6397	1455.6126	1474.9003	1536.0154	1630.8913	1663.6819	2232.0064	3009.196	3075.2699	3261.1132	3504.06	3518.4447	3613.5764	3686.7434
NC1=CNN=C1CC#C	Nc1c[nH]nc1CC#C	
InChI=1S/C6H7N3/c1-2-3-6-5(7)4-8-9-6/h1,4H,3,7H2,(H,8,9)	InChI=1S/C6H7N3/c1-2-3-6-5(7)4-8-9-6/h1,4H,3,7H2,(H,8,9)
