16
gdb 62010	2.80017	0.97376	0.83997	2.6344	65.75	-0.2775	0.0193	0.2968	1379.2261	0.124193	-471.24981	-471.240027	-471.239083	-471.28643	33.959	
N	-0.0457162928	 1.5131524873	-1.347247913	-0.501543
C	-0.2512356393	 0.7097830238	-0.1446901142	-0.137366
C	-1.7331620987	 0.7823370783	 0.2513660131	-0.066119
O	-1.9150334469	 0.057056387	 1.4627121984	-0.263247
C	-2.9913710205	-0.7861107864	 1.5093481547	 0.509203
N	-3.0221801791	-1.4081518781	 2.7207727159	-0.559379
O	-3.8004152396	-0.9209497881	 0.6246241552	-0.387766
C	 0.1868563711	-0.6977249807	-0.2786000747	 0.264194
N	 0.5489459548	-1.7850100932	-0.4314693075	-0.324003
H	 0.9439040331	 1.5760806208	-1.5632280177	 0.250177
H	-0.4890456751	 1.0657637264	-2.1448780114	 0.248026
H	 0.3371685945	 1.1551397469	 0.6654563281	 0.140658
H	-1.9955546116	 1.8322534384	 0.4083553002	 0.132354
H	-2.3757854829	 0.3634986731	-0.5265459526	 0.150977
H	-2.1892751518	-1.4089859833	 3.2849897921	 0.269501
H	-3.6454796753	-2.1934154221	 2.7985075334	 0.274334
17.2627	53.5357	99.3257	158.1637	238.8161	266.1672	283.8595	321.3597	354.3516	378.0038	497.1368	534.5913	575.9486	604.5503	672.6481	777.9121	791.5293	877.9191	907.2157	1007.7379	1064.467	1113.2034	1129.7696	1140.5166	1222.733	1265.8714	1334.4707	1349.9834	1389.1267	1413.1871	1510.1026	1614.7253	1666.1488	1847.1669	2347.519	3056.0747	3066.4833	3127.4441	3500.2813	3580.8959	3614.0132	3742.2632
NC(COC(N)=O)C#N	N[C@@H](COC(=O)N)C#N	
InChI=1S/C4H7N3O2/c5-1-3(6)2-9-4(7)8/h3H,2,6H2,(H2,7,8)	InChI=1S/C4H7N3O2/c5-1-3(6)2-9-4(7)8/h3H,2,6H2,(H2,7,8)/t3-/m1/s1
