17
gdb 77485	2.01049	1.89553	1.20255	1.3551	68.84	-0.2361	-0.0006	0.2355	1054.6107	0.133229	-458.92856	-458.919261	-458.918317	-458.962462	33.943	
C	-0.0146682539	 1.4969601998	 0.0172915609	-0.517768
C	 0.0108184742	-0.0004617444	-0.0498492399	 0.149079
C	 0.5689978222	-0.9196505637	-1.2040801491	-0.334729
C	 0.0574423508	-1.9495952306	-0.1190576308	 0.227734
O	 0.1360592842	-3.3194267191	-0.1253392834	-0.473059
C	 0.7058070242	-0.9916271653	 0.9460116138	 0.061524
O	 2.1032598613	-0.8823034352	 0.981228639	-0.439926
C	-1.1429540067	-1.0147863296	-0.0246838657	 0.344186
O	-2.3375266683	-1.0662373585	-0.004242323	-0.341016
H	 1.0010223914	 1.904010809	 0.0212412283	 0.138302
H	-0.5482666669	 1.9176693434	-0.8404934225	 0.132258
H	-0.5210117521	 1.8371133425	 0.9263565167	 0.131837
H	 0.0445376409	-0.8922926398	-2.1602829546	 0.108096
H	 1.6508749373	-0.8888734595	-1.308460963	 0.131533
H	-0.7389462129	-3.6738675746	-0.3218856671	 0.303337
H	 0.279188428	-1.0400397562	 1.9558509322	 0.081967
H	 2.4584879763	-1.7149678885	 1.3099918981	 0.296645
73.0086	151.3559	163.3758	184.5598	209.5741	237.2538	254.4602	306.3957	372.1893	430.5255	556.2953	604.1813	611.943	654.0365	742.4131	777.8368	821.4311	859.1813	950.9386	956.0757	1034.5873	1070.0033	1107.6294	1114.7126	1128.9546	1172.3128	1182.7829	1267.6505	1313.4793	1360.6558	1393.4349	1415.7982	1446.8801	1488.2099	1491.6265	1511.8197	1905.9314	3025.6528	3038.2239	3089.0557	3106.0394	3110.5407	3180.3656	3796.3528	3810.9455
CC12CC(O)(C1O)C2=O	C[C@@]12C[C@@](O)([C@H]1O)C2=O	
InChI=1S/C6H8O3/c1-5-2-6(9,3(5)7)4(5)8/h3,7,9H,2H2,1H3	InChI=1S/C6H8O3/c1-5-2-6(9,3(5)7)4(5)8/h3,7,9H,2H2,1H3/t3-,5+,6+/m0/s1
