23
gdb 70418	2.7623	1.4119	1.23104	0.3094	89.37	-0.2382	0.087	0.3252	1161.9874	0.206327	-351.123278	-351.114658	-351.113714	-351.156097	34.601	
C	-0.0639614575	 1.5638110544	 0.0887683798	-0.505907
C	 0.0471123027	 0.0667634809	 0.0279240897	 0.292916
C	-0.8670022866	-0.849713186	 0.8015411353	-0.328962
C	 0.6159485141	-0.9308627985	 1.042430644	-0.092715
C	 1.2726739779	-1.7368930179	-0.0806470908	-0.304894
C	 0.6841919111	-0.7259456717	-1.1238820945	 0.339311
C	-0.0950826705	-1.254501646	-2.3599069145	-0.286088
C	 1.1759098333	-1.0142691276	-3.2179400522	-0.2131
C	 1.7033848921	-0.076947953	-2.0991020969	-0.290801
H	 0.8931839473	 2.0513780886	-0.1283553202	 0.11697
H	-0.7991429582	 1.9429711096	-0.6324309052	 0.1158
H	-0.384712283	 1.8916570447	 1.0832230582	 0.11509
H	-1.4429723384	-0.3664069356	 1.5852468979	 0.103141
H	-1.3891521074	-1.6687006115	 0.3105185082	 0.100474
H	 1.0475246552	-0.7387086315	 2.0180918942	 0.07908
H	 2.3653728244	-1.7083846992	-0.0541019356	 0.09798
H	 0.9519274958	-2.7816290094	-0.1708412148	 0.088769
H	-0.4913384968	-2.2722988338	-2.3092999793	 0.091616
H	-0.9101988775	-0.5786135751	-2.6397490671	 0.096424
H	 1.7816807164	-1.920009529	-3.3102770739	 0.102284
H	 1.0420694322	-0.5854160709	-4.2136969811	 0.094023
H	 1.4535539323	 0.9689842018	-2.3052025342	 0.097338
H	 2.7631022412	-0.1329868933	-1.8335072671	 0.091252
111.1269	124.3687	185.5306	203.4713	259.3586	327.8216	386.0219	406.8663	454.8062	513.053	614.8415	693.5626	770.757	793.3995	831.1325	853.5886	879.4223	890.3392	909.9997	936.7277	964.5632	973.0001	978.6336	1021.0569	1037.923	1048.0492	1087.1545	1106.4357	1122.2581	1156.1756	1174.9914	1192.4067	1207.427	1240.1237	1251.9194	1260.9333	1272.1334	1279.2319	1284.0433	1326.4475	1383.016	1420.8167	1471.8432	1478.5863	1484.3685	1487.6504	1498.9883	1503.652	1506.3896	3016.8183	3027.0188	3039.6643	3044.8139	3059.6821	3073.918	3086.5115	3089.0007	3092.6178	3094.0267	3100.2562	3115.0589	3171.2425	3190.2529
CC12CC1CC21CCC1	C[C@]12C[C@H]1CC12CCC1	
InChI=1S/C9H14/c1-8-5-7(8)6-9(8)3-2-4-9/h7H,2-6H2,1H3	InChI=1S/C9H14/c1-8-5-7(8)6-9(8)3-2-4-9/h7H,2-6H2,1H3/t7-,8-/m0/s1
