17
gdb 42110	2.44303	1.78706	1.14574	1.3339	77.7	-0.2351	-0.0374	0.1977	1046.3016	0.137393	-421.766203	-421.758398	-421.757454	-421.798256	29.94	
C	 0.0561861477	 1.431331875	 0.065093135	 0.030551
O	 1.3947969757	 1.8358969531	-0.0508015378	-0.248217
C	 2.3384966687	 1.417829377	 0.9436366371	-0.12059
C	 2.2969239829	 2.1385492217	 2.2783204239	-0.070456
C	 1.5184335886	 1.7455728843	 3.3054000079	-0.184641
C	 0.5882203203	 0.7085315014	 3.0482626674	 0.126635
C	-0.0987551296	-0.0801290246	 2.4386603712	-0.037253
C	-0.7423558295	-0.5581156023	 1.2140749424	-0.192785
O	-0.1076949557	 0.0220253481	 0.0692156235	-0.24609
H	-0.4265113566	 1.8726269715	 0.9455047887	 0.102327
H	-0.411788328	 1.8142505388	-0.8479251083	 0.111829
H	 2.2341791576	 0.3405678804	 1.1103244609	 0.122621
H	 3.3084390005	 1.5990508382	 0.472889123	 0.109585
H	 2.9626992681	 2.9864110271	 2.4155530754	 0.106799
H	 1.5489764831	 2.2458444907	 4.2678329964	 0.117621
H	-0.6514974382	-1.6400122394	 1.0797094032	 0.143245
H	-1.8168369357	-0.3209370811	 1.22892124	 0.128819
141.752	171.0485	209.8726	247.1011	274.3477	361.065	390.8989	434.4336	535.753	580.3872	597.7165	657.9522	754.8357	815.7811	899.5435	907.7096	961.9865	982.9135	1000.6712	1031.0127	1057.5733	1126.1046	1164.4229	1171.6023	1227.004	1259.2172	1302.4835	1331.7636	1373.0244	1391.1348	1414.426	1449.1593	1484.334	1492.2755	1509.1825	1630.9905	2295.5167	2994.2282	3023.2125	3047.7833	3077.8129	3080.5302	3098.2229	3163.9007	3185.7499
C1OCC=CC#CCO1	C1OC[CH]C=C=[C]CO1	
InChI=1S/C7H8O2/c1-2-4-6-9-7-8-5-3-1/h1,3H,5-7H2/b3-1-	InChI=1S/C7H8O2/c1-2-4-6-9-7-8-5-3-1/h1,3H,5-7H2
