15
gdb 19117	3.45519	3.44518	3.44502	1.8198	64.99	-0.2075	0.0492	0.2566	568.513	0.122191	-325.38813	-325.383723	-325.382778	-325.416265	19.808	
C	-0.0393818584	 1.5468963593	 0.0380557961	-0.063233
C	-0.0661563698	 1.567955522	-1.5353759156	-0.068043
C	-0.00846226	 0.0100465471	-1.538980233	-0.006383
C	-0.021195885	-0.0267533093	 0.0197211152	-0.068389
C	 1.5361573803	 0.010509266	-0.0427436079	-0.006125
C	 1.5342913552	 1.5682749047	 0.0145693918	-0.068155
C	 1.4927957139	 1.5501512286	-1.5438801999	-0.006535
N	 1.5236731208	 0.0180722051	-1.5751415541	-0.183903
H	-0.6652396323	 2.1592063769	 0.6839145648	 0.065805
H	-0.7108100617	 2.1941500899	-2.1500812447	 0.065604
H	-0.5464259616	-0.6597377493	-2.2104710761	 0.06938
H	-0.6296128807	-0.6753210516	 0.6479578299	 0.065636
H	 2.2244686341	-0.6589153693	 0.4739915702	 0.069327
H	 2.1690450169	 2.1947728177	 0.6391908025	 0.065618
H	 2.1465726083	 2.1030899022	-2.2189241391	 0.069395
625.8463	627.3456	663.8166	729.2976	730.5296	843.5713	846.6084	847.1964	847.7369	854.7717	880.6786	880.9177	888.7826	889.0886	965.7315	966.3014	1024.4319	1065.0381	1101.5101	1102.1277	1124.4425	1159.0183	1159.2508	1168.4815	1182.1224	1182.5544	1215.8494	1216.3241	1240.2009	1259.8412	1282.4086	1282.6512	3095.5068	3096.0032	3096.2382	3118.7629	3118.8944	3119.1672	3136.4837
C12C3C4C1C1C2C3N41	[C@H]12[C@@H]3[C@@H]4[C@H]1[C@@H]1[C@H]2[C@H]3N41	
InChI=1S/C7H7N/c1-2-5-3(1)7-4(1)6(2)8(5)7/h1-7H	InChI=1S/C7H7N/c1-2-5-3(1)7-4(1)6(2)8(5)7/h1-7H/t1-,2+,3-,4+,5+,6-,7+
