18
gdb 18513	5.16918	1.10882	1.0369	0.0821	80.62	-0.2377	0.0565	0.2942	1204.515	0.153641	-310.61643	-310.608218	-310.607274	-310.650305	29.762	
C	 0.0087925344	 1.5319549479	-0.0488628985	-0.497242
C	 0.0111518895	 0.0765417105	-0.0024882182	 0.039325
C	 0.0167157106	-1.1284141308	 0.0272689713	 0.101551
C	 0.012565164	-2.5799185789	 0.0879981034	-0.177155
C	 0.2252705513	-3.2815193389	 1.4878535167	-0.243506
C	-1.1117039774	-4.0060181108	 1.3079272847	-0.038744
C	-2.2214952723	-3.0062430377	 1.1376426397	-0.273467
C	-1.3401059253	-3.3167099959	-0.0365008458	-0.043843
H	 0.8981297319	 1.9170363893	-0.5604332597	 0.145341
H	-0.8692660686	 1.9124011437	-0.5829202305	 0.14603
H	-0.0054682311	 1.9643149963	 0.9580323462	 0.144846
H	 0.7318411016	-2.9842664637	-0.6308323618	 0.097435
H	 1.0935045767	-3.94343561	 1.477096215	 0.104308
H	 0.2978525538	-2.6125190035	 2.3499594662	 0.102003
H	-1.3056614218	-5.0355633986	 1.5825444946	 0.084179
H	-3.2215120875	-3.4244452116	 1.0842301152	 0.10877
H	-2.1670259799	-2.0323620835	 1.618339028	 0.114411
H	-1.7321863798	-3.7178717239	-0.9631119467	 0.085758
29.0769	84.7065	110.0818	214.3534	289.198	335.4439	407.3564	472.1793	531.1318	662.1519	754.0399	784.2945	801.148	910.7571	930.1866	962.4904	969.4102	1006.1471	1029.896	1051.6138	1053.0914	1061.8769	1079.7748	1084.7434	1137.2364	1184.3931	1205.4105	1220.262	1258.4168	1294.4456	1344.9851	1364.627	1415.1289	1479.1734	1479.439	1481.677	1497.9029	2363.4683	3023.9507	3052.4917	3058.6178	3083.2202	3083.6308	3111.8244	3115.9738	3178.2425	3186.5549	3204.5411
CC#CC1CC2CC12	CC#C[C@H]1C[C@H]2C[C@@H]12	
InChI=1S/C8H10/c1-2-3-6-4-7-5-8(6)7/h6-8H,4-5H2,1H3	InChI=1S/C8H10/c1-2-3-6-4-7-5-8(6)7/h6-8H,4-5H2,1H3/t6-,7-,8-/m0/s1
