20
gdb 71888	2.78578	1.70104	1.29822	2.3763	78.27	-0.2045	0.0706	0.2751	1035.3683	0.170921	-403.090086	-403.082022	-403.081078	-403.122016	32.525	
C	 0.000463662	 1.5563218488	 0.0952405819	-0.500112
C	-0.0483328851	 0.0482177611	 0.0123665079	 0.345386
C	 0.3283307869	-0.6586939994	-1.3092477543	-0.215855
N	-0.7821216718	-1.6606646895	-1.1765903765	-0.14398
C	-0.3963213757	-2.7406739713	-0.2033788168	-0.23364
C	-0.6810973309	-1.8196770812	 1.0019582424	 0.400038
O	-1.3748457202	-2.3158853485	 2.1079264748	-0.483193
C	 0.4452526212	-0.7787255178	 1.2382271519	-0.353637
C	-1.3406356657	-0.8419728787	-0.0155832597	-0.102147
H	 1.0375003518	 1.9146258664	 0.0996554369	 0.11752
H	-0.5067598211	 2.0187540221	-0.7587841085	 0.118286
H	-0.4784999343	 1.9221914912	 1.0100385832	 0.117294
H	 0.1434723878	-0.0271482649	-2.185390485	 0.102385
H	 1.3333507955	-1.0890479729	-1.3960037261	 0.09251
H	-1.1233111116	-3.5575722834	-0.256632026	 0.109784
H	 0.6146887942	-3.1444662909	-0.3343778405	 0.089354
H	-0.747419939	-2.7660130591	 2.6848674122	 0.277715
H	 1.4849352732	-1.1242985166	 1.2420192242	 0.085874
H	 0.2381702382	-0.2364278321	 2.1666571424	 0.103393
H	-2.3792704355	-0.5139601834	-0.0265241543	 0.073026
157.5024	196.5733	214.3873	228.5163	291.1675	358.4062	395.2319	417.0304	448.2591	549.0779	589.2314	674.8881	759.7937	810.8623	844.465	898.0236	908.6438	920.5084	940.4917	965.9175	983.8284	993.6495	1041.42	1061.3336	1107.5538	1159.4358	1172.6035	1185.0048	1191.967	1200.6888	1235.93	1246.2815	1263.5482	1271.8582	1309.2808	1351.2168	1375.9716	1413.0239	1477.6403	1488.3876	1492.4211	1493.8932	1507.5493	3017.0671	3020.4812	3025.3555	3033.3064	3069.0251	3081.8347	3083.2666	3090.853	3094.3637	3122.8942	3793.6265
CC12CN3CC(O)(C1)C23	C[C@@]12CN3C[C@@](O)(C1)[C@@H]23	
InChI=1S/C7H11NO/c1-6-2-7(9)4-8(3-6)5(6)7/h5,9H,2-4H2,1H3	InChI=1S/C7H11NO/c1-6-2-7(9)4-8(3-6)5(6)7/h5,9H,2-4H2,1H3/t5-,6+,7+/m1/s1
