25
gdb 59642	2.83519	1.00558	0.87054	1.3218	88.64	-0.2593	0.0744	0.3337	1481.7124	0.229278	-389.515218	-389.505163	-389.504219	-389.550329	38.772	
C	 0.0478196167	 1.5092304122	-0.1110800657	-0.392924
C	 0.011570491	-0.0197933175	 0.0250685733	 0.021297
C	 0.7611253035	-0.4532775204	 1.2938389094	-0.391673
C	-1.4281564084	-0.5651501642	 0.0047243689	 0.075898
C	-2.2618407002	-0.1590817651	-1.2322565233	-0.218604
C	-3.3574847775	-1.2305061089	-1.2949698516	-0.240957
C	-2.5869162398	-2.5297041347	-1.0072854118	 0.124188
O	-1.8761298112	-2.9775898731	-2.1638608152	-0.44149
C	-1.5250012443	-2.1218172304	 0.0352378119	-0.232397
H	 1.0785589444	 1.8786136167	-0.0883480242	 0.106585
H	-0.4057221134	 1.8479825629	-1.0467114605	 0.113415
H	-0.4920710691	 1.9880982265	 0.7153263029	 0.107387
H	 0.5333051656	-0.4505126824	-0.8427468875	 0.074284
H	 0.2746298299	-0.0488910142	 2.1902023607	 0.107324
H	 0.7976034582	-1.54163022	 1.3977217383	 0.114619
H	 1.7925841906	-0.0854253629	 1.2849137699	 0.107219
H	-1.94104645	-0.1718669531	 0.8949893197	 0.058059
H	-2.6573184096	 0.8577759129	-1.1690760968	 0.090593
H	-1.6427328611	-0.223861566	-2.1349364756	 0.104457
H	-4.1016747198	-1.0625622267	-0.5055860784	 0.092334
H	-3.895465557	-1.2656773172	-2.2489653003	 0.080344
H	-3.2427885634	-3.3312257902	-0.6391529054	 0.054135
H	-2.5230656146	-3.1612093984	-2.8529280292	 0.277031
H	-0.5786015476	-2.5936657157	-0.2433525665	 0.114492
H	-1.7897863327	-2.4883476903	 1.0304896169	 0.094383
40.4524	87.1131	184.3947	194.6517	227.635	248.8774	320.439	323.5664	342.1188	399.7851	418.0995	432.4203	465.9021	574.8617	706.3528	792.8185	843.6334	860.2713	883.5756	922.9689	929.9808	955.8553	966.7091	976.3725	1012.2094	1029.4826	1041.2956	1071.5741	1108.4127	1157.2797	1189.6541	1199.2335	1205.8808	1225.6157	1257.9665	1296.634	1304.2248	1319.8464	1340.6116	1350.3242	1355.5487	1368.5734	1389.436	1399.3831	1419.1832	1420.8029	1476.8671	1482.4485	1488.2605	1492.9952	1496.2374	1505.6015	1512.2888	2982.421	2992.3575	2999.2325	3023.0435	3026.0124	3028.1134	3039.3833	3059.4675	3070.5924	3084.9721	3091.2433	3097.5058	3103.9317	3107.1903	3109.4907	3809.6569
CC(C)C1CCC(O)C1	CC(C)[C@H]1CC[C@@H](O)C1	
InChI=1S/C8H16O/c1-6(2)7-3-4-8(9)5-7/h6-9H,3-5H2,1-2H3	InChI=1S/C8H16O/c1-6(2)7-3-4-8(9)5-7/h6-9H,3-5H2,1-2H3/t7-,8+/m0/s1
