13
gdb 124097	3.72951	1.65193	1.18194	3.9841	59.88	-0.2475	-0.0483	0.1992	939.1231	0.090956	-489.842582	-489.836259	-489.835315	-489.873426	24.135	
C	 0.0256106326	 1.3865707468	 0.0172750333	-0.003304
O	 1.3091965485	 1.9425669243	-0.0064075026	-0.234177
C	 2.0861003195	 1.6620395133	 1.1628577414	-0.19651
C	 1.8587528264	 0.2247291224	 1.4829263678	 0.249405
C	 0.906728665	-0.5106323203	 0.8546930575	 0.32432
O	 0.0342108368	-0.0485697244	-0.058486636	-0.251292
N	 0.9850456461	-1.7898689909	 1.3216902683	-0.197273
N	 1.9046474633	-1.8762595963	 2.1802709895	-0.017839
O	 2.5103416653	-0.5635058586	 2.3290897304	-0.222608
H	-0.5117635188	 1.6720914037	 0.9348755217	 0.111227
H	-0.4932379755	 1.7335066248	-0.8747049707	 0.145977
H	 3.1264439863	 1.8700195565	 0.8973964213	 0.157539
H	 1.8061989246	 2.3232506986	 1.9966032181	 0.134537
130.4972	224.7801	324.5468	397.2453	408.7711	477.2204	572.6904	600.1834	652.6945	720.6268	740.1347	786.0733	940.1666	983.354	1005.3013	1027.6809	1094.99	1146.0938	1218.974	1250.9372	1292.5482	1317.0429	1353.6031	1429.8727	1442.5099	1478.4406	1491.4566	1509.1197	1671.5152	2988.9735	2997.3493	3092.1791	3157.669
C1OCC2=C(O1)N=NO2	C1OCc2c(O1)nno2	
InChI=1S/C4H4N2O3/c1-3-4(5-6-9-3)8-2-7-1/h1-2H2	InChI=1S/C4H4N2O3/c1-3-4(5-6-9-3)8-2-7-1/h1-2H2
