16
gdb 86847	2.86394	1.27641	1.07524	4.0707	70.24	-0.2541	0.0071	0.2612	1141.1582	0.126086	-434.12523	-434.116792	-434.115848	-434.158708	30.143	
C	-0.0488664755	 1.3878725489	 0.0738399378	-0.343389
N	-0.0406282464	-0.0553868215	 0.1267681858	-0.10282
C	-1.2108275388	-0.847760513	-0.1795113807	-0.176018
C	-0.6671928812	-2.2951958644	-0.0223501772	-0.141368
N	 0.7415708822	-2.1007409619	-0.3261949706	-0.349117
C	 1.1232897012	-0.77780182	-0.0538631936	 0.461994
O	 2.256796865	-0.3616678469	-0.0083528882	-0.407062
C	-0.8977325052	-2.8319376483	 1.3339396687	 0.275136
N	-1.0701560591	-3.2778358903	 2.3859204383	-0.309583
H	 0.9765608672	 1.7272349721	 0.2284253912	 0.171267
H	-0.4047196138	 1.7595912707	-0.8977360752	 0.120891
H	-0.6894384123	 1.8004850587	 0.860205163	 0.131361
H	-2.040626852	-0.643627692	 0.5020336061	 0.140888
H	-1.5583419693	-0.6900818005	-1.2118776234	 0.118476
H	-1.1449158321	-2.9726957609	-0.7359840717	 0.142533
H	 1.4091310702	-2.8141777007	-0.0734321905	 0.266811
75.5529	118.8539	156.6063	185.45	235.0366	287.3472	297.8658	446.0485	490.9375	552.9868	604.3121	679.4813	750.6742	782.8035	802.9204	848.4494	985.6678	1027.158	1069.943	1116.3562	1154.6846	1164.1052	1226.4974	1273.1482	1301.6695	1313.4447	1364.5863	1401.0358	1433.8802	1456.0498	1491.4261	1510.7928	1536.3775	1847.8932	2355.3282	2988.8816	3003.2898	3069.3075	3073.2514	3089.4847	3147.026	3628.5539
CN1CC(NC1=O)C#N	CN1C[C@@H](NC1=O)C#N	
InChI=1S/C5H7N3O/c1-8-3-4(2-6)7-5(8)9/h4H,3H2,1H3,(H,7,9)	InChI=1S/C5H7N3O/c1-8-3-4(2-6)7-5(8)9/h4H,3H2,1H3,(H,7,9)/t4-/m0/s1
