21
gdb 97203	2.41253	1.35386	0.91572	2.5482	82.71	-0.2214	0.0234	0.2448	1322.8939	0.183216	-420.415166	-420.405723	-420.404779	-420.449785	34.783	
C	 0.0211665646	 1.4680372917	 0.169434802	-0.326277
N	 0.0075207245	 0.0151810651	 0.1290611311	-0.286809
C	-1.0768836638	-0.6033494618	-0.064454043	 0.378902
C	-1.118016526	-2.1196098944	-0.0400018759	-0.255689
N	-2.0962882561	-2.7286761673	-0.9428926247	-0.29372
C	-3.39178858	-2.0718500175	-0.7928794344	-0.17455
C	-3.3153116394	-0.5615395616	-1.0136006466	 0.125957
C	-4.6042248167	 0.1740067496	-0.6866005691	-0.397817
O	-2.2833923887	 0.0347318667	-0.1958230821	-0.272722
H	 0.9235709034	 1.8258934807	-0.3367510658	 0.118382
H	-0.8591776428	 1.937855046	-0.2828800402	 0.114847
H	 0.0878981669	 1.8034205923	 1.2121591624	 0.12434
H	-0.1162792275	-2.4951177791	-0.2520106627	 0.13157
H	-1.3730814627	-2.4300242193	 0.9836920839	 0.125301
H	-1.7771125323	-2.6260198182	-1.9028088316	 0.218598
H	-4.1082732656	-2.5071174613	-1.4978028182	 0.106435
H	-3.762691648	-2.2735858495	 0.2212617819	 0.110076
H	-3.0419107891	-0.3794941906	-2.065375887	 0.075768
H	-4.891678488	-0.0012876223	 0.3546969619	 0.127509
H	-4.4777046024	 1.250068769	-0.830653995	 0.130621
H	-5.4153909904	-0.1702165582	-1.335411807	 0.119277
65.21	89.2699	113.9116	201.0193	225.4195	234.6339	312.867	324.9541	420.4739	434.5306	478.1926	543.9043	574.7744	669.2187	790.4985	840.6736	882.0929	919.3867	959.1243	966.895	1016.3392	1041.2052	1114.404	1126.1348	1137.2999	1148.0911	1160.1473	1169.3467	1224.4833	1256.0399	1326.6678	1341.1004	1354.155	1381.9598	1405.1033	1409.4898	1433.981	1462.6794	1474.2214	1484.323	1486.695	1490.948	1496.1268	1500.3295	1767.9231	2974.1192	3008.4529	3015.4769	3021.2264	3043.2026	3072.1704	3077.8782	3092.2743	3116.9768	3123.6392	3127.5066	3493.3883
CN=C1CNCC(C)O1	CN=C1CNC[C@@H](C)O1	
InChI=1S/C6H12N2O/c1-5-3-8-4-6(7-2)9-5/h5,8H,3-4H2,1-2H3	InChI=1S/C6H12N2O/c1-5-3-8-4-6(7-2)9-5/h5,8H,3-4H2,1-2H3/t5-/m1/s1
