20
gdb 55798	4.24851	0.92791	0.84113	3.4438	82.45	-0.2402	0.0343	0.2745	1428.9816	0.171337	-403.133389	-403.124502	-403.123558	-403.170006	32.622	
C	-0.0089682858	 1.5224461426	-0.0382818742	-0.486831
C	 0.0848160023	 0.0066860151	-0.1398747424	 0.404886
O	 1.1088523143	-0.5507964172	-0.4901837707	-0.372244
N	-1.0631878016	-0.6669667798	 0.1848540699	-0.362167
C	-1.1602464543	-2.1004218366	 0.1350019559	 0.117848
C	-1.8428905453	-2.8928154043	 1.2962002138	-0.071952
C	-3.2202724258	-2.3923762334	 0.762539703	-0.238189
C	-2.4063192717	-2.7921891618	-0.506348027	-0.072003
C	-1.9740548692	-4.0633951224	 0.2797012086	-0.210334
H	 0.7989663522	 1.8802618175	 0.6046929886	 0.152784
H	 0.1513331032	 1.9514523536	-1.0313747669	 0.152411
H	-0.9639114694	 1.8836666944	 0.3529859165	 0.1083
H	-1.8658052807	-0.1291911433	 0.463952038	 0.242377
H	-0.1881391609	-2.4704843402	-0.1894774806	 0.116124
H	-1.5155151514	-2.9518063718	 2.3350606832	 0.07497
H	-4.0850861982	-3.0185376539	 0.9978761524	 0.096473
H	-3.4766357215	-1.3382236087	 0.9016049107	 0.078682
H	-2.7288800582	-2.7351151038	-1.546828907	 0.074891
H	-1.0480668274	-4.5502663904	-0.0369233305	 0.098945
H	-2.7635288103	-4.7890869655	 0.4859514586	 0.09503
11.771	26.3625	92.883	152.0195	298.353	364.0937	367.5598	450.8306	541.3267	579.96	627.6266	640.7866	761.896	801.3679	883.1243	883.769	901.1359	904.7495	966.6673	1003.0136	1005.6596	1027.05	1040.9786	1049.6645	1088.8366	1108.1049	1122.4842	1147.1343	1175.2576	1187.9368	1215.2076	1246.4676	1252.4465	1255.4899	1270.8548	1387.4509	1400.5583	1469.7098	1487.0577	1499.5098	1542.6684	1548.6599	1782.0453	3047.5062	3049.1718	3058.2374	3102.4406	3103.216	3107.1734	3123.1981	3126.3061	3130.0498	3132.7419	3657.5758
CC(=O)NC1C2CC1C2	CC(=O)N[C@H]1[C@H]2C[C@@H]1C2	
InChI=1S/C7H11NO/c1-4(9)8-7-5-2-6(7)3-5/h5-7H,2-3H2,1H3,(H,8,9)	InChI=1S/C7H11NO/c1-4(9)8-7-5-2-6(7)3-5/h5-7H,2-3H2,1H3,(H,8,9)/t5-,6+,7-
