17
gdb 53761	6.21917	0.47022	0.45099	2.9565	82.28	-0.2589	-0.0543	0.2046	2321.7012	0.1315	-421.827179	-421.816578	-421.815633	-421.866295	34.552	
C	-0.0279129512	 1.4994368446	-0.1454863982	-0.477803
C	 0.0569890383	 0.0310034494	 0.2170063683	 0.249529
O	 1.0967531612	-0.5174539674	 0.5138333395	-0.273821
C	-1.2014742286	-0.6939166952	 0.1869313549	 0.097459
C	-2.2474252639	-1.2963593317	 0.1654161219	 0.014087
C	-3.4829611154	-2.0638698799	 0.1410862083	-0.372814
C	-3.2623869174	-3.5366690904	-0.278357789	-0.263727
C	-4.5359938915	-4.3453638622	-0.1526995218	 0.155667
O	-5.0057927946	-5.0275467224	-1.0240115995	-0.225896
H	 0.9648323438	 1.9482212124	-0.0896076365	 0.144376
H	-0.4357327982	 1.6137195052	-1.1557031314	 0.146979
H	-0.713098943	 2.01587611	 0.5354338323	 0.146298
H	-3.9395100512	-2.0313280617	 1.139931698	 0.147661
H	-4.2020778223	-1.5891668276	-0.538007703	 0.151752
H	-2.89083519	-3.6079049768	-1.3028421217	 0.140697
H	-2.5136768585	-3.9828652975	 0.3893709713	 0.144315
H	-5.0298802476	-4.267932579	 0.8455499167	 0.075242
13.2956	51.377	56.5845	76.2561	121.7329	143.8048	175.3556	268.8065	363.6273	406.6952	447.2426	529.3509	601.3047	610.8603	681.3002	756.3015	844.8441	956.2524	985.3837	1043.0147	1056.9554	1075.9847	1089.7716	1197.4114	1245.8493	1264.013	1304.3826	1360.6257	1382.1316	1430.0986	1459.5475	1460.4195	1468.8897	1473.8766	1769.1417	1842.0353	2334.1421	2847.8334	3017.505	3035.8429	3039.4261	3054.6238	3103.5184	3122.0162	3152.4744
CC(=O)C#CCCC=O	CC(=O)C#CCCC=O	
InChI=1S/C7H8O2/c1-7(9)5-3-2-4-6-8/h6H,2,4H2,1H3	InChI=1S/C7H8O2/c1-7(9)5-3-2-4-6-8/h6H,2,4H2,1H3
