16
gdb 112070	2.25507	1.51844	1.01624	3.8868	69.65	-0.253	-0.012	0.241	1137.8427	0.126129	-434.079039	-434.070756	-434.069812	-434.112477	30.127	
O	-0.0412332171	 1.5392991551	-0.0174620467	-0.421186
C	 0.0663518087	 0.1461154425	 0.162753497	-0.070509
C	-1.3070314757	-0.5086425769	-0.0032445693	 0.00595
N	-1.8287536767	-0.2273424823	-1.3522170447	-0.258067
C	-2.3247349022	-1.3145111743	-1.7911928272	 0.069894
N	-2.3035749828	-2.4135708556	-0.9417768041	-0.29997
C	-1.3774939508	-2.074680376	 0.1504264542	-0.160294
C	-0.0867662136	-2.7674005394	-0.0014252825	 0.279192
N	 0.9059566994	-3.3464433095	-0.1263658631	-0.321604
H	-0.5109932628	 1.6634675865	-0.8522367745	 0.297429
H	 0.7734376089	-0.3082080064	-0.5479353337	 0.108325
H	 0.454439398	-0.0215758647	 1.1731215796	 0.114373
H	-1.9883103753	-0.0575604854	 0.7283442416	 0.111021
H	-2.7981645555	-1.4159777778	-2.7632265604	 0.142218
H	-2.2536282436	-3.3405046481	-1.34098721	 0.261128
H	-1.7942011188	-2.3557644477	 1.1209773439	 0.1421
72.4971	119.5562	126.3385	208.5161	238.5135	362.548	406.6762	461.7354	472.2075	562.8708	579.6752	620.1744	800.5025	816.3068	859.6678	897.0126	955.7698	1031.3639	1038.9695	1051.8175	1092.9968	1106.9196	1136.5222	1220.8716	1237.7363	1286.7898	1330.0784	1342.0312	1360.9635	1391.8918	1424.3319	1443.675	1504.1173	1699.999	2349.7365	2992.9243	3036.1866	3075.2136	3079.6264	3191.9215	3601.3022	3775.5341
OCC1N=CNC1C#N	OC[C@H]1[N][CH]N[C@H]1C#N	
InChI=1S/C5H7N3O/c6-1-4-5(2-9)8-3-7-4/h3-5,9H,2H2,(H,7,8)	InChI=1S/C5H7N3O/c6-1-4-5(2-9)8-3-7-4/h3-5,9H,2H2,(H,7,8)/t4-,5+/m0/s1
