25
gdb 112618	2.58288	1.02329	0.89522	1.4125	89.29	-0.2381	0.0803	0.3183	1504.1108	0.226934	-389.499761	-389.489031	-389.488087	-389.53577	40.035	
C	 0.0105583226	 1.3337006082	 0.6642535721	-0.37926
C	-0.030815012	-0.1333627717	 0.2278685445	-0.190499
C	-1.417269205	-0.5638968911	-0.2215982814	 0.176668
C	-1.6945651908	-2.0680733005	-0.4147204703	-0.379666
C	-2.7985855806	-1.8735561253	 0.6569988711	 0.4552
C	-4.2227200328	-1.9456989409	 0.1151592541	-0.437273
C	-2.5997110343	-2.6651298868	 1.9513392567	-0.215688
C	-3.4349143032	-2.154488815	 3.1298619318	-0.389134
O	-2.3999452118	-0.478857082	 0.8401230662	-0.345409
H	 1.005887173	 1.615312256	 1.0205062298	 0.109037
H	-0.249814525	 2.000953103	-0.1650745247	 0.111518
H	-0.7057964352	 1.5080818014	 1.4719719444	 0.135905
H	 0.6694958476	-0.3072680626	-0.6004961275	 0.092387
H	 0.2888670143	-0.7791305701	 1.0551905289	 0.094894
H	-1.7331282521	 0.0524245711	-1.07709618	 0.065383
H	-2.0416450211	-2.3715443484	-1.4040181267	 0.100406
H	-0.8739497051	-2.7200520567	-0.1049637859	 0.099661
H	-4.5169604205	-2.984726963	-0.0708773447	 0.110896
H	-4.9323716678	-1.5073885027	 0.822151645	 0.126041
H	-4.3031176334	-1.3922247569	-0.8249220186	 0.114662
H	-2.8223387197	-3.7219249517	 1.7513041212	 0.091235
H	-1.5373237378	-2.6138698329	 2.2164060745	 0.093402
H	-3.2596025773	-1.0853978393	 3.281050989	 0.135882
H	-4.5069555717	-2.3034432032	 2.9690380897	 0.114555
H	-3.1646905107	-2.6782179189	 4.051700311	 0.109196
42.8715	89.8236	103.741	162.8204	216.1378	228.4673	234.324	274.0749	314.4624	349.5261	383.5129	397.9808	486.4734	493.5403	639.9545	759.9785	783.2078	796.8469	875.6494	895.4931	915.021	951.4546	962.5301	981.2047	998.7546	1023.2437	1052.5961	1068.8423	1095.7645	1109.9884	1173.4128	1199.384	1217.7956	1256.4393	1270.7983	1280.9251	1310.375	1322.6085	1350.4432	1372.477	1403.7342	1406.3936	1406.5747	1412.292	1470.3146	1474.4501	1486.6565	1490.2233	1494.2414	1498.0003	1506.9385	1508.5821	1511.6823	2981.2227	3015.7636	3018.0784	3034.8577	3035.6606	3042.4359	3055.3556	3058.555	3065.4176	3101.731	3104.6685	3107.3949	3117.0349	3118.8567	3120.2046	3122.3211
CCC1CC(C)(CC)O1	CC[C@H]1C[C@@](C)(CC)O1	
InChI=1S/C8H16O/c1-4-7-6-8(3,5-2)9-7/h7H,4-6H2,1-3H3	InChI=1S/C8H16O/c1-4-7-6-8(3,5-2)9-7/h7H,4-6H2,1-3H3/t7-,8+/m0/s1
