21
gdb 79837	2.63648	1.6535	1.42208	1.6843	81.4	-0.2204	0.0906	0.311	1045.917	0.183532	-387.069907	-387.061802	-387.060858	-387.10195	32.446	
C	-0.1585844332	 1.5805742005	-0.0379019332	-0.423926
C	 0.0697757834	 0.0722209551	-0.0293897465	 0.034619
C	 0.7632172222	-0.5964154048	-1.2196566568	-0.173293
C	 2.2706380503	-0.4680971255	-1.0762285851	 0.06459
O	 2.811471607	 0.574333256	-0.2879049731	-0.272553
C	 2.3733593347	 0.3319556722	 1.0572522342	-0.084912
C	 1.1576883315	-0.5774678269	 0.9028630089	-0.149513
C	 1.5714641912	-1.509303484	-0.2783943932	 0.30346
C	 1.8039003777	-2.9894821787	-0.2504160886	-0.519223
H	 0.7621359436	 2.1221858588	-0.2670896948	 0.138281
H	-0.9002398788	 1.8462286563	-0.7996945027	 0.109935
H	-0.5412237705	 1.9326315806	 0.9272629077	 0.106493
H	-0.880064059	-0.4414451408	 0.1563448035	 0.070998
H	 0.3042290025	-0.842256824	-2.1727242174	 0.07395
H	 2.8930913308	-0.7286622501	-1.92481484	 0.096897
H	 3.1721567414	-0.1572537373	 1.6367086454	 0.089598
H	 2.1467709388	 1.2964647878	 1.5226948628	 0.10635
H	 0.8065919859	-1.0299128363	 1.8308542342	 0.067204
H	 0.9163212403	-3.5316163132	 0.0963520025	 0.118377
H	 2.0515235177	-3.366629839	-1.2482628879	 0.121186
H	 2.6343336025	-3.2515113369	 0.4162861701	 0.121482
155.6538	190.4035	218.2848	229.3523	252.8614	275.8731	341.4041	465.2101	549.2173	588.9475	631.8729	720.6173	767.1771	789.3241	857.0298	881.1221	910.8079	934.7508	962.8807	989.1777	1009.0506	1026.4698	1046.5508	1053.8215	1080.6597	1116.0788	1121.2213	1146.8735	1171.7918	1211.6902	1221.4481	1236.9725	1290.9875	1292.467	1325.4515	1362.4249	1382.7666	1405.9517	1415.5552	1467.0965	1487.2215	1492.726	1498.409	1505.4384	1520.2569	2979.7907	3018.8937	3027.3742	3038.086	3073.0252	3076.4795	3085.9265	3092.2654	3109.4653	3125.1193	3150.8686	3182.7486
CC1C2C3OCC1C23C	C[C@H]1[C@H]2[C@H]3OC[C@@H]1[C@@]23C	
InChI=1S/C8H12O/c1-4-5-3-9-7-6(4)8(5,7)2/h4-7H,3H2,1-2H3	InChI=1S/C8H12O/c1-4-5-3-9-7-6(4)8(5,7)2/h4-7H,3H2,1-2H3/t4-,5+,6+,7-,8+/m1/s1
