15
gdb 28720	6.0339	0.83928	0.76179	3.3159	71.05	-0.2273	-0.0145	0.2128	1431.4158	0.11241	-454.004637	-453.996184	-453.99524	-454.038681	29.553	
C	 0.0700673957	 1.5493522821	-0.292582928	-0.497679
C	 0.0387253655	 0.0783618499	-0.0510996553	 0.3535
N	-0.3240860724	-0.8404113397	-0.9178558344	-0.283141
C	-0.1824144179	-2.0569085901	-0.2829796876	-0.200441
C	 0.2655228162	-1.8533714358	 0.990745513	 0.35002
N	 0.4033221531	-0.4929896059	 1.1423464508	-0.346195
O	 0.5930908815	-2.6809594359	 2.0258981855	-0.221718
C	-0.3603614838	-3.5777424631	 2.4381820738	 0.157262
O	-0.1323697145	-4.39054467	 3.274076412	-0.248068
H	 1.0809445606	 1.9590964796	-0.1850142313	 0.136199
H	-0.2721367128	 1.7377971903	-1.3107706044	 0.162657
H	-0.5836961901	 2.0922963298	 0.3995838065	 0.134419
H	-0.3932203484	-2.9923975492	-0.7766583461	 0.121298
H	 0.735387211	-0.0320082777	 1.9737145502	 0.274687
H	-1.3126016739	-3.4346581942	 1.8988629254	 0.1072
55.8049	90.5916	124.3912	161.0801	235.8461	292.5752	405.736	446.1063	493.7774	511.0378	666.006	691.2691	699.5324	825.5725	830.7241	988.8661	996.9872	1043.9301	1062.9425	1063.6154	1099.3669	1174.2752	1211.0526	1287.0254	1397.8156	1405.6242	1428.7184	1430.3674	1482.0327	1494.4708	1560.5501	1622.1303	1883.218	2999.5171	3031.7455	3081.8993	3150.822	3257.6715	3657.6341
CC1=NC=C(N1)OC=O	Cc1ncc([nH]1)OC=O	
InChI=1S/C5H6N2O2/c1-4-6-2-5(7-4)9-3-8/h2-3H,1H3,(H,6,7)	InChI=1S/C5H6N2O2/c1-4-6-2-5(7-4)9-3-8/h2-3H,1H3,(H,6,7)
