16
gdb 14467	3.84653	2.1624	2.12511	0.7075	62.07	-0.2197	0.0746	0.2942	723.076	0.132846	-383.729384	-383.723467	-383.722523	-383.758939	24.947	
O	-0.0740925702	 1.3654686128	 0.0765541272	-0.47372
C	 0.0497814051	-0.0139718706	 0.0527483884	 0.355379
C	 1.1181083763	-0.7885864472	 0.822953445	-0.294442
C	 0.6395708962	-2.1793847731	 0.3538211675	 0.05456
C	-0.8545811664	-2.1758482851	 0.7597896336	-0.224394
C	-1.1957680885	-0.8909332658	 0.0166695322	-0.146932
C	-0.2287356774	-0.8805619639	-1.1570081518	 0.007896
O	 0.5838615757	-2.0371752213	-1.0799348604	-0.259653
H	 0.6619429959	 1.7421622146	-0.4189323649	 0.284508
H	 2.1340818154	-0.5648148453	 0.4821149332	 0.096419
H	 1.0543564053	-0.6556685329	 1.906176856	 0.106118
H	 1.2432247373	-3.0465544868	 0.6125465766	 0.08277
H	-1.3869017895	-3.0496436983	 0.3745526164	 0.107108
H	-0.9946980385	-2.1097302687	 1.8421599943	 0.103049
H	-2.1858677409	-0.4619802395	-0.0503658719	 0.097165
H	-0.4508453759	-0.5276068289	-2.1540936815	 0.104169
257.6821	316.4449	353.3295	419.0192	464.8355	550.0107	586.5099	666.3735	725.5103	799.5168	873.7027	886.8551	897.9822	916.1337	937.6027	952.6714	978.3197	1000.2993	1020.5438	1057.1139	1082.6855	1130.7252	1148.5583	1170.1165	1216.026	1234.3087	1272.4011	1282.997	1308.982	1329.3376	1343.4567	1440.7974	1477.0329	1499.1304	3052.5032	3061.4209	3107.8915	3113.2708	3148.996	3216.2035	3225.9253	3789.4744
OC12CC3CC1C2O3	O[C@@]12C[C@H]3C[C@@H]1[C@@H]2O3	
InChI=1S/C6H8O2/c7-6-2-3-1-4(6)5(6)8-3/h3-5,7H,1-2H2	InChI=1S/C6H8O2/c7-6-2-3-1-4(6)5(6)8-3/h3-5,7H,1-2H2/t3-,4-,5+,6+/m1/s1
