22
gdb 118429	2.40954	0.95518	0.74653	3.7911	79.53	-0.2374	0.0339	0.2712	1592.4761	0.192954	-441.526164	-441.515253	-441.514308	-441.562777	39.318	
C	-0.1463478874	 1.5919763764	-0.0461062179	-0.381792
C	-0.0849213315	 0.0625982582	-0.0360740333	-0.17276
C	 0.7616721811	-0.5010647177	-1.1839109993	-0.172931
C	 0.8286429319	-2.0345016036	-1.2089517464	-0.097267
C	 1.3462268913	-2.551847952	-2.5606786848	-0.105464
O	 1.0474349972	-3.9455307037	-2.6710928668	-0.422288
C	 1.6896879543	-2.5732946978	-0.0480708258	 0.38762
N	 1.6649713797	-3.9309939955	 0.0903063191	-0.516243
O	 2.3222323894	-1.8471327976	 0.6979017303	-0.368699
H	 0.8536197278	 2.0268741002	 0.0598466017	 0.117916
H	-0.574023248	 1.9700338361	-0.9821118033	 0.105952
H	-0.7611854168	 1.970624449	 0.7764667944	 0.109496
H	 0.3339746857	-0.2838506882	 0.9130341398	 0.126249
H	-1.1029051904	-0.345118254	-0.1043944337	 0.084282
H	 0.3480451574	-0.15095378	-2.1389957511	 0.078501
H	 1.7796521795	-0.1032563301	-1.1074943349	 0.112633
H	-0.1834635777	-2.4463471912	-1.0953423973	 0.101059
H	 0.8495486981	-1.9970002641	-3.368762577	 0.100697
H	 2.4283020111	-2.3731457178	-2.6464451946	 0.104956
H	 1.5136998867	-4.2981973704	-3.434461019	 0.293588
H	 1.363528327	-4.4881484514	-0.696379393	 0.264675
H	 2.3191820036	-4.3279344548	 0.746761563	 0.249818
47.815	79.0455	93.12	127.222	173.3856	233.0588	246.406	272.7478	296.4327	320.668	375.4918	388.5415	481.1336	537.2462	603.8247	621.5678	731.2418	746.3379	780.1692	879.621	902.1802	1008.7912	1012.4666	1036.8665	1064.1157	1101.8646	1110.3741	1129.552	1164.6461	1221.2176	1250.6847	1267.6799	1300.0771	1310.1756	1335.3313	1346.526	1393.8168	1400.2513	1413.5842	1449.9875	1474.2488	1494.0675	1500.3575	1508.6754	1519.9788	1624.0209	1786.6906	2987.7822	3013.6469	3015.1154	3020.3045	3027.2148	3032.582	3072.1266	3081.3737	3100.8023	3104.6424	3551.1101	3691.5652	3835.2517
CCCC(CO)C(N)=O	CCC[C@@H](CO)C(=O)N	
InChI=1S/C6H13NO2/c1-2-3-5(4-8)6(7)9/h5,8H,2-4H2,1H3,(H2,7,9)	InChI=1S/C6H13NO2/c1-2-3-5(4-8)6(7)9/h5,8H,2-4H2,1H3,(H2,7,9)/t5-/m0/s1
