22
gdb 86984	5.39164	0.59731	0.58431	4.4104	87.94	-0.2967	0.0394	0.336	1940.7671	0.194114	-367.2314	-367.221625	-367.220681	-367.266919	35.792	
C	 0.0328550739	 1.6115891596	 0.1127274864	-0.407685
C	 0.0815033094	 0.093320941	 0.050305756	 0.057367
C	 1.0906013983	-0.5950088383	-0.9121794537	-0.26283
C	 1.3430892268	-1.6737129967	 0.1769339392	 0.043859
C	 2.7611614923	-2.191909465	 0.3731589563	-0.211415
C	 2.8653349176	-3.1496094159	 1.5788315432	-0.339998
C	 4.2226283924	-3.645832944	 1.7927420821	 0.257505
N	 5.3025749054	-4.0276488706	 1.9463658332	-0.30665
C	 0.7386851669	-0.6909390533	 1.221664205	-0.244102
H	 1.0298457869	 2.0296693932	 0.2934086334	 0.111373
H	-0.3416696267	 2.0372796364	-0.8249879957	 0.11624
H	-0.6239028174	 1.9562100388	 0.9193992998	 0.115589
H	-0.9239804051	-0.3028664995	-0.1326651372	 0.073344
H	 0.7300996817	-0.9272553253	-1.888965534	 0.097984
H	 1.9793483078	 0.0287731825	-1.0633179206	 0.097682
H	 0.6608410136	-2.5195249436	 0.0258130112	 0.071552
H	 3.1007219948	-2.7138853557	-0.5290829764	 0.118919
H	 3.4471985369	-1.3504095465	 0.525371211	 0.114763
H	 2.5332260169	-2.6432952543	 2.4926021113	 0.155084
H	 2.1997346691	-4.0094379937	 1.4376186521	 0.149741
H	 1.5242353262	-0.0941212221	 1.7009653271	 0.096002
H	 0.0854528023	-1.0947937169	 1.9996194402	 0.095675
49.5935	87.5876	89.1283	137.5895	212.0024	235.2691	294.7622	371.5263	380.4418	405.919	431.2959	530.3348	614.1307	764.3055	786.6106	811.2828	896.2045	906.4074	928.574	954.8683	961.0435	986.8367	1013.0604	1074.7553	1084.1177	1138.2632	1142.7439	1152.5584	1214.9552	1234.8158	1252.2073	1263.1756	1273.1141	1288.4026	1305.2746	1324.0303	1362.4067	1373.6156	1399.7525	1412.5128	1467.8219	1476.2887	1492.1032	1495.1565	1495.8489	1505.3656	2361.4249	3022.1967	3024.4558	3031.3192	3032.8958	3034.7487	3042.1732	3044.7458	3066.4411	3087.9946	3089.9016	3091.1435	3095.4052	3103.3728
CC1CC(CCC#N)C1	C[C@H]1C[C@@H](CCC#N)C1	
InChI=1S/C8H13N/c1-7-5-8(6-7)3-2-4-9/h7-8H,2-3,5-6H2,1H3	InChI=1S/C8H13N/c1-7-5-8(6-7)3-2-4-9/h7-8H,2-3,5-6H2,1H3/t7-,8+
