14
gdb 10438	2.86264	1.76315	1.27314	4.6412	67.81	-0.2587	0.0157	0.2745	947.7357	0.106177	-341.534712	-341.526773	-341.525828	-341.567328	28.699	
C	 0.0163247447	-1.2412840059	 0.2598677972	-0.438025
C	-0.0180218583	-0.0417995505	 0.1863332374	 0.294989
C	-0.0699629919	 1.3923293273	 0.0725136039	 0.12791
C	-1.3072812967	 1.9626863998	-0.6217617757	-0.400969
C	-1.4489158924	 1.498439408	-2.00197089	 0.278095
N	-1.5650716811	 1.1322101309	-3.0911250055	-0.30505
C	 0.6023777293	 2.2073676019	 1.1319260869	-0.270852
N	 1.1764356224	 2.1323533193	-0.2140368524	-0.329516
H	 0.0490043965	-2.3014611719	 0.3190075307	 0.208732
H	-2.2082897196	 1.687486698	-0.062867211	 0.158734
H	-1.2338416277	 3.0541946357	-0.6254740496	 0.162298
H	 0.1852599027	 3.1744235649	 1.4003273958	 0.128408
H	 1.0786516212	 1.6684749711	 1.9449538203	 0.134543
H	 1.962085211	 1.4874149014	-0.234550298	 0.250703
62.4243	115.5238	178.3603	223.8504	323.2167	355.3354	387.1419	474.1446	544.636	570.2489	615.4889	675.0739	726.2755	828.6718	893.7247	925.6694	957.5729	986.7152	994.3377	1082.261	1136.8324	1215.5882	1261.7804	1307.646	1337.2552	1367.8525	1450.7649	1505.8872	2238.661	2368.2221	3054.4842	3103.3116	3113.3524	3206.2316	3500.1376	3517.585
C#CC1(CC#N)CN1	C#C[C@@]1(CC#N)CN1	
InChI=1S/C6H6N2/c1-2-6(3-4-7)5-8-6/h1,8H,3,5H2	InChI=1S/C6H6N2/c1-2-6(3-4-7)5-8-6/h1,8H,3,5H2/t6-/m1/s1
