19
gdb 34392	2.5766	1.56332	1.29321	1.7935	80.88	-0.2449	0.0399	0.2847	1064.8062	0.159549	-385.852959	-385.844885	-385.84394	-385.885611	31.79	
C	 0.0930431093	-1.2408844765	-0.3797422287	-0.401886
C	 0.0613385221	-0.0666842183	-0.1241116362	 0.242749
C	 0.0486791343	 1.3603915862	 0.1343109631	 0.231714
C	-0.4757806389	 2.2759369195	-1.0253346923	-0.272762
C	 0.8557476395	 3.0755009738	-1.0093506081	-0.232805
C	 1.4166067393	 2.1498060862	 0.1082151259	-0.074291
C	 1.5137411427	 2.7426360258	 1.5150016868	-0.232534
C	 0.0452479438	 2.7765088057	 1.9629967594	-0.094659
O	-0.5528808624	 1.6130603198	 1.4001175364	-0.293232
H	 0.1143595317	-2.2809987038	-0.5926161054	 0.190456
H	-0.6718309071	 1.7338584203	-1.9515912891	 0.114173
H	-1.3734185516	 2.8301312341	-0.7423130489	 0.112596
H	 1.4184174785	 3.0371414464	-1.943995966	 0.106754
H	 0.7582084379	 4.1245266249	-0.7154978444	 0.098904
H	 2.2905011444	 1.5644284074	-0.1759394441	 0.083867
H	 2.089073651	 2.0781909642	 2.1669876519	 0.112988
H	 1.9820760368	 3.7311807185	 1.5316206067	 0.102941
H	-0.0907572044	 2.7262079236	 3.0462346595	 0.112767
H	-0.4553598072	 3.6876140524	 1.5986892336	 0.092259
68.8056	146.9374	172.4347	219.4957	337.9953	389.0374	493.6601	503.0832	563.6989	608.844	617.7476	649.1986	657.4684	743.7283	804.8855	837.0621	891.1927	912.5819	955.3566	962.4492	1002.8532	1021.378	1033.0676	1081.1782	1099.3602	1134.838	1158.2054	1221.2671	1226.4852	1234.9255	1253.7045	1270.4564	1301.7075	1312.5718	1336.9032	1384.4621	1468.3181	1483.5422	1491.4126	1521.9779	2237.664	2977.9051	3052.091	3058.8957	3074.413	3093.266	3102.5465	3105.1579	3119.0986	3136.7095	3502.0146
C#CC12CCC1CCO2	C#C[C@]12CC[C@H]1CCO2	
InChI=1S/C8H10O/c1-2-8-5-3-7(8)4-6-9-8/h1,7H,3-6H2	InChI=1S/C8H10O/c1-2-8-5-3-7(8)4-6-9-8/h1,7H,3-6H2/t7-,8-/m0/s1
