22
gdb 119630	4.0108	0.88556	0.81318	2.011	81.51	-0.2373	0.0729	0.3102	1481.0835	0.196017	-404.338908	-404.329888	-404.328944	-404.372985	34.444	
O	 0.0726835338	 1.4584076986	 0.207000609	-0.420364
C	 0.0222158791	 0.0408325132	 0.2603489003	-0.058556
C	-1.2842368747	-0.5259394712	-0.3060395428	-0.291671
C	-1.3499172898	-2.0344250134	-0.2402861546	 0.345843
C	-0.4088446815	-2.8686899327	-1.1077554524	-0.273428
C	-0.9910418228	-4.3015002592	-1.0838395511	-0.242726
C	-2.5074656283	-4.1187469855	-0.8335684924	-0.227209
C	-2.6125911251	-2.8093035588	-0.0698043626	-0.062382
N	-1.7124918864	-2.5978062495	 1.0769075977	-0.377671
H	-0.6279030595	 1.795110971	 0.7747337799	 0.280274
H	 0.8763276736	-0.3027090143	-0.3330973687	 0.107637
H	 0.1651396756	-0.3311862615	 1.2862539084	 0.100104
H	-2.1232976559	-0.1147304704	 0.2688163001	 0.092281
H	-1.3999236042	-0.1857462573	-1.3427360327	 0.099339
H	-0.4199226955	-2.4620621186	-2.1270315512	 0.104326
H	 0.6319924893	-2.8386735533	-0.7665715304	 0.102259
H	-0.784395341	-4.8490955048	-2.0064565716	 0.105165
H	-0.537648771	-4.8853197849	-0.2761958201	 0.104486
H	-3.0510748427	-4.0202674738	-1.7812713525	 0.104848
H	-2.9498170489	-4.9660029659	-0.2978628373	 0.102131
H	-3.5816794424	-2.3249597776	 0.0168209929	 0.083404
H	-1.1811063719	-3.43954954	 1.2863918418	 0.22191
69.7456	98.0984	119.884	220.389	256.7648	293.7538	334.43	343.5901	413.5491	452.4389	635.4746	652.6848	723.0648	781.399	806.4031	865.7111	876.9872	898.5905	932.967	952.1105	1005.3237	1024.0743	1045.4012	1067.264	1072.6231	1079.1507	1109.2135	1137.5346	1175.0302	1186.9301	1221.3661	1255.8033	1286.7195	1295.6568	1310.6071	1319.1805	1328.7764	1341.1478	1361.7875	1397.8466	1422.5709	1441.3548	1475.0299	1487.1336	1495.3139	1511.6597	1514.0842	2992.3019	3022.2269	3026.5908	3031.1296	3046.6194	3057.0122	3067.0506	3071.8664	3080.7275	3101.5803	3143.5169	3489.8571	3814.5476
OCCC12CCCC1N2	OCC[C@]12CCC[C@H]1N2	
InChI=1S/C7H13NO/c9-5-4-7-3-1-2-6(7)8-7/h6,8-9H,1-5H2	InChI=1S/C7H13NO/c9-5-4-7-3-1-2-6(7)8-7/h6,8-9H,1-5H2/t6-,7-/m1/s1
