15
gdb 32020	3.91685	1.1807	0.91741	4.4046	69.76	-0.2859	-0.0826	0.2033	1219.893	0.112592	-454.014243	-454.006154	-454.005209	-454.047863	28.587	
C	 0.1338494736	 1.5160031258	 0.0067934069	-0.377762
C	-0.0639806689	 0.0018655413	 0.0038005681	-0.292304
C	-1.4971281993	-0.4362375004	 0.0143220184	 0.456653
N	-2.4907210638	 0.3939850485	 0.024273823	-0.323904
C	-3.7267579973	-0.2009741104	 0.0328207118	 0.086274
N	-4.004335821	-1.4675463072	 0.0319135161	-0.304978
C	-2.9508006551	-2.3535874208	 0.0213152925	 0.453166
O	-2.9945581865	-3.5415695332	 0.0186451543	-0.312174
O	-1.6368203256	-1.7607204422	 0.0123050584	-0.22726
H	 1.2013757449	 1.7504801588	-0.001455791	 0.122171
H	-0.3296378735	 1.9755904723	-0.869010052	 0.139042
H	-0.3148061352	 1.9701809115	 0.8930869725	 0.139008
H	 0.4069347338	-0.4633328087	-0.8718426228	 0.149021
H	 0.421446994	-0.4687472115	 0.8685403698	 0.14901
H	-4.56865703	 0.4894854862	 0.0411176039	 0.144037
52.7522	98.9094	143.6444	190.7741	221.7649	361.7629	405.8356	525.2019	567.7895	616.3385	621.8712	767.08	796.9805	798.1705	820.9285	944.2881	991.5261	1033.7466	1041.4987	1096.7022	1111.2782	1255.1512	1275.4939	1281.8331	1397.5325	1420.1013	1427.2093	1451.2851	1492.0859	1499.4285	1565.1551	1664.8057	1905.0478	3034.8079	3057.8859	3061.172	3130.8706	3136.6565	3156.7167
CCC1=NC=NC(=O)O1	CCc1ncnc(=O)o1	
InChI=1S/C5H6N2O2/c1-2-4-6-3-7-5(8)9-4/h3H,2H2,1H3	InChI=1S/C5H6N2O2/c1-2-4-6-3-7-5(8)9-4/h3H,2H2,1H3
