14
gdb 123702	4.15016	1.61879	1.26955	3.363	67.04	-0.2203	-0.0144	0.2059	926.5908	0.103266	-436.637486	-436.631484	-436.63054	-436.667798	24.321	
C	-0.0036507238	 1.4787813505	 0.1005428238	-0.315988
C	 1.2951248803	 0.7401019161	 0.0150221291	 0.084279
O	 2.0250823654	 0.453857226	 1.21095304	-0.269552
C	 1.2031854107	-0.3713284161	 1.9238468508	 0.219644
C	 0.0662271677	-0.7228832161	 1.2798898623	 0.338393
O	-0.6607819126	-1.5612801353	 2.0216267011	-0.223043
N	 0.040839276	-1.7763014845	 3.2239637343	-0.142475
C	 1.1455022251	-1.0513064105	 3.1566437052	-0.111267
C	-0.0373706259	-0.0445499723	-0.0196881072	-0.235117
H	-0.3037942179	 1.9210434496	 1.0434690161	 0.139475
H	-0.2817823386	 2.0425526308	-0.7832507562	 0.13077
H	 1.9510863563	 0.857396638	-0.8376580399	 0.12132
H	 1.8328612405	-1.0727938027	 3.9888467651	 0.14229
H	-0.4296032532	-0.5273920035	-0.9060730646	 0.12127
154.2734	276.3619	384.4309	435.8547	456.0136	610.8901	628.428	704.8179	721.7766	761.0087	782.712	819.659	866.5172	887.9066	938.3996	955.5248	975.3779	1035.4538	1057.7506	1078.6561	1126.7492	1165.5258	1184.034	1199.6332	1268.993	1358.2431	1395.7992	1430.1459	1463.1357	1526.8423	1656.3951	3138.7004	3189.0311	3204.2129	3232.3494	3257.0864
C1C2OC3=C(ON=C3)C12	C1[C@H]2Oc3c(onc3)[C@@H]12	
InChI=1S/C6H5NO2/c1-3-4(1)8-5-2-7-9-6(3)5/h2-4H,1H2	InChI=1S/C6H5NO2/c1-3-4(1)8-5-2-7-9-6(3)5/h2-4H,1H2/t3-,4+/m0/s1
