16
gdb 32500	2.12973	1.59889	0.921	5.7724	79.96	-0.1949	-0.0014	0.1935	1214.1728	0.126358	-396.977574	-396.969079	-396.968135	-397.010828	31.361	
C	 0.0291829116	 1.3682154739	-0.070314143	-0.326688
N	-0.0074716259	-0.0545644175	 0.2006626138	-0.39881
C	-1.2147611708	-0.7202381094	 0.0890801421	 0.228377
C	-2.4874563915	-0.190163091	 0.0634258649	-0.165856
N	-3.3805128102	-1.2499689511	 0.0055657473	-0.243607
C	-2.7208412778	-2.4294157855	-0.0200896162	-0.158402
C	-1.3621450819	-2.1519137134	 0.0299864412	 0.086027
C	-0.2987247625	-3.0791466577	 0.0117845424	 0.187091
N	 0.6091689117	-3.8012627404	-0.0095782806	-0.373632
H	 1.0601524245	 1.721105194	 0.0003516962	 0.129992
H	-0.3683506579	 1.6347039031	-1.0632668472	 0.111247
H	-0.5580174209	 1.906927498	 0.6826481195	 0.129799
H	 0.7759546964	-0.5748342925	-0.1660801955	 0.250092
H	-2.8325244849	 0.8282558541	 0.0907905875	 0.125331
H	-4.3799296322	-1.1519858393	-0.020146657	 0.271854
H	-3.2322659578	-3.3758406953	-0.0736613653	 0.147183
94.2992	119.2465	164.9905	194.4308	231.8792	323.4144	407.5491	459.2843	504.7241	547.2554	553.9202	617.2147	627.3472	630.1457	729.1297	750.3855	769.9902	907.687	1058.6231	1087.7741	1127.1161	1159.0832	1174.0118	1218.687	1283.2235	1352.6706	1364.5291	1460.9876	1479.8528	1486.6469	1508.9115	1527.7976	1569.2401	1634.3306	2330.3043	2971.3039	3053.833	3123.2459	3278.9167	3289.4314	3600.2419	3691.1824
CNC1=CNC=C1C#N	CNc1c[nH]cc1C#N	
InChI=1S/C6H7N3/c1-8-6-4-9-3-5(6)2-7/h3-4,8-9H,1H3	InChI=1S/C6H7N3/c1-8-6-4-9-3-5(6)2-7/h3-4,8-9H,1H3
