17
gdb 55827	4.0273	0.97986	0.89136	2.4985	69.78	-0.2295	0.0559	0.2854	1305.6355	0.136684	-455.129901	-455.121562	-455.120618	-455.163817	31.207	
N	-0.0909970197	 1.3147377349	-0.1611599175	-0.569536
C	-0.0205929832	-0.0465763491	 0.1135834032	 0.456179
O	 0.9781328964	-0.5781923641	 0.562334797	-0.392996
N	-1.1704180211	-0.7356979616	-0.2010289406	-0.358202
C	-1.1930851125	-2.1635702273	-0.159159757	 0.050136
C	-2.2509299459	-2.9581818779	 0.5915838203	-0.156654
C	-3.5878619093	-2.2436624549	 0.4550951896	-0.09631
O	-3.4347625333	-2.1414106592	-0.992792938	-0.299871
C	-2.2253806036	-2.9110680253	-0.9292090742	 0.030435
H	 0.6571734362	 1.8312551336	 0.2758466669	 0.260331
H	-0.9933157374	 1.7606817639	-0.0877213532	 0.246745
H	-1.8570540452	-0.3109429619	-0.8065821404	 0.252797
H	-0.201490643	-2.6005041771	-0.1210864767	 0.136412
H	-2.014625359	-3.7535738396	 1.2851345864	 0.105992
H	-4.4534150298	-2.8681694332	 0.6970223978	 0.117333
H	-3.6853516117	-1.2620869896	 0.9328145897	 0.10757
H	-2.0579777278	-3.6483718015	-1.7065267133	 0.10964
38.8701	98.6051	132.1788	234.6806	275.432	389.0904	417.9611	494.1009	526.7562	555.715	627.1944	644.2151	765.758	770.4357	795.7609	811.1426	945.7858	963.0542	972.6333	1009.4988	1019.1991	1046.0106	1058.0814	1092.0165	1109.9504	1130.6766	1166.1713	1225.1364	1252.8028	1293.0866	1315.4598	1353.5501	1430.3701	1510.4784	1533.1972	1627.2288	1801.024	3033.6827	3087.1408	3173.0766	3190.9879	3208.6681	3573.4488	3608.6517	3688.2375
NC(=O)NC1C2COC12	NC(=O)N[C@H]1[C@H]2CO[C@@H]12	
InChI=1S/C5H8N2O2/c6-5(8)7-3-2-1-9-4(2)3/h2-4H,1H2,(H3,6,7,8)	InChI=1S/C5H8N2O2/c6-5(8)7-3-2-1-9-4(2)3/h2-4H,1H2,(H3,6,7,8)/t2-,3+,4-/m1/s1
