21
gdb 12107	4.03362	1.2818	1.19159	0.9362	79.2	-0.2305	0.0836	0.3141	1125.0218	0.188284	-329.083955	-329.075385	-329.074441	-329.117045	32.577	
C	 0.0656272531	 1.5735185715	 0.1498849043	-0.452531
C	-0.0329094733	 0.0661982486	 0.0136943815	 0.381616
C	-1.4085826109	-0.4490348812	-0.3692195846	-0.217709
N	-1.8685988224	 0.117957646	-1.6343076735	-0.056515
C	-1.5910520558	-0.6485942619	-2.8424161014	-0.213915
C	-2.9725372123	-0.5678749469	-2.2913613372	-0.220936
C	 1.1744929871	-0.6882480118	-0.4937091822	-0.29196
C	 0.7749016871	-0.7888489911	 0.9596092368	-0.31254
H	 1.0822965419	 1.8804198004	 0.4145948836	 0.10428
H	-0.2136478125	 2.0653302083	-0.7859261698	 0.132882
H	-0.60903042	 1.9410677927	 0.9327198283	 0.108926
H	-1.3972875285	-1.5547429784	-0.3951253062	 0.069633
H	-2.1348595965	-0.1545578841	 0.4003589455	 0.100139
H	-1.3082267503	-0.0726306389	-3.7189696922	 0.114928
H	-1.0725127303	-1.6004440062	-2.7373058535	 0.106534
H	-3.3699058304	-1.4660012781	-1.819560654	 0.105575
H	-3.7201446878	 0.0695678711	-2.7553435326	 0.114911
H	 1.0176648338	-1.5578021035	-1.1231169395	 0.104714
H	 2.0637456893	-0.1189720447	-0.7429518856	 0.108475
H	 1.3907855481	-0.2850413007	 1.6971724518	 0.108348
H	 0.3474006406	-1.7245066513	 1.3062797502	 0.105146
69.9911	100.9371	164.9955	212.0076	297.7063	311.4133	343.9008	384.0235	407.3998	485.014	733.7068	768.539	784.6216	837.0596	869.756	902.6597	920.2004	950.373	956.7208	997.9521	1032.1937	1042.0597	1053.2065	1078.5972	1082.7017	1113.5079	1118.2354	1132.0112	1171.5623	1177.8495	1188.7028	1266.6697	1322.3831	1325.5431	1357.6459	1395.2409	1419.1961	1468.1196	1479.871	1489.1015	1493.8112	1502.1794	1511.6235	1523.3632	2924.46	3025.8798	3029.6293	3089.127	3089.5912	3095.8007	3115.1209	3124.5342	3130.764	3172.3024	3187.0652	3201.8904	3216.5992
CC1(CN2CC2)CC1	CC1(CN2CC2)CC1	
InChI=1S/C7H13N/c1-7(2-3-7)6-8-4-5-8/h2-6H2,1H3	InChI=1S/C7H13N/c1-7(2-3-7)6-8-4-5-8/h2-6H2,1H3
