20
gdb 32761	3.05628	1.05186	0.80493	1.8039	84.53	-0.1924	0.0452	0.2377	1454.6159	0.170798	-403.179344	-403.169696	-403.168752	-403.214594	34.566	
C	 0.0407987281	 1.3428804343	 0.204056061	-0.222697
O	-0.0708866234	-0.0527225371	 0.3538745687	-0.243548
C	-1.2470003514	-0.5777758337	-0.2448665764	-0.188486
C	-1.2198653985	-2.062837889	-0.1238132423	 0.219486
C	-2.2224598963	-2.9975381955	 0.0495128536	 0.187383
C	-3.6918129572	-2.73412186	 0.1976501619	-0.510615
C	-1.5924858821	-4.2790012708	 0.0329367035	-0.229867
C	-0.2432058571	-4.0852854949	-0.1433303203	-0.090416
N	-0.0298856311	-2.7377060821	-0.2561144091	-0.278928
H	 0.9768709646	 1.6491406753	 0.677220462	 0.12759
H	 0.0620975667	 1.6405343244	-0.8564884122	 0.104678
H	-0.792755166	 1.8728946933	 0.6907534346	 0.107543
H	-2.1501396437	-0.1748258451	 0.2403957187	 0.102002
H	-1.2855314668	-0.2540953333	-1.3019176867	 0.094464
H	-4.2373610505	-2.8761659654	-0.7440636276	 0.122556
H	-4.1408529933	-3.4118737637	 0.9314491469	 0.12284
H	-3.8905038053	-1.7108631088	 0.5327854446	 0.115631
H	-2.0871550758	-5.2327262325	 0.1433040207	 0.086019
H	 0.5759837772	-4.7851989731	-0.1833019673	 0.112173
H	 0.8603509722	-2.2709211122	-0.2769848743	 0.262189
56.3711	89.5389	96.7989	131.1371	223.4544	236.7929	255.7695	308.3587	355.7842	459.469	522.4016	635.8209	644.7262	663.2994	716.0205	788.2445	818.0843	920.9095	974.1085	986.227	1017.4992	1061.2192	1081.7485	1113.0005	1146.4233	1181.391	1189.2983	1219.1141	1252.137	1267.4488	1309.9433	1398.4736	1419.6783	1439.9035	1478.2144	1483.4294	1485.27	1490.2337	1498.5363	1503.4741	1514.3425	1523.5178	1632.9208	2921.775	2970.9297	2988.0417	3016.4258	3018.3031	3069.6945	3095.9995	3114.9593	3237.0649	3266.739	3681.1877
COCC1=C(C)C=CN1	COCc1c(C)cc[nH]1	
InChI=1S/C7H11NO/c1-6-3-4-8-7(6)5-9-2/h3-4,8H,5H2,1-2H3	InChI=1S/C7H11NO/c1-6-3-4-8-7(6)5-9-2/h3-4,8H,5H2,1-2H3
