12
gdb 129087	3.88191	1.25671	0.94937	1.6167	67.98	-0.2823	-0.1094	0.1729	1115.7975	0.077211	-468.780577	-468.773282	-468.772338	-468.813074	25.828	
N	-0.3294294096	 1.3482641097	-0.2706677511	-0.499006
C	-0.0925291607	 0.0989164537	-0.1882417216	 0.31965
C	-1.1891374022	-0.8342268283	 0.0955919984	 0.054117
N	-1.0823160155	-2.1045371024	 0.2036279884	-0.065033
O	 0.2244530394	-2.6215191668	 0.0276561143	-0.241098
C	 1.2249631689	-1.7680509528	-0.2325612473	 0.337282
C	 2.5648493558	-2.4456239184	-0.4004363368	 0.121221
O	 2.7343465976	-3.6291469674	-0.3128305759	-0.217753
N	 1.1698955776	-0.4942286831	-0.3500741377	-0.344023
H	 0.5409099369	 1.8473729294	-0.4720893976	 0.237536
H	-2.1930300777	-0.4427032562	 0.2315011601	 0.171682
H	 3.3656513694	-1.7119055475	-0.6136358631	 0.125422
85.111	99.2059	189.5223	233.3656	384.3552	402.3272	482.4959	534.0197	589.1797	677.7987	750.1572	760.2214	896.9358	932.5765	932.7415	973.58	991.4851	1026.4415	1131.0252	1249.3761	1304.228	1379.9315	1396.1744	1640.7637	1681.3653	1718.3466	1833.9643	2964.7841	3194.3217	3455.7654
N=C1C=NOC(C=O)=N1	[NH]C1=N[C](ON=C1)C=O	
InChI=1S/C4H3N3O2/c5-3-1-6-9-4(2-8)7-3/h1-2,5H	InChI=1S/C4H3N3O2/c5-3-1-6-9-4(2-8)7-3/h1-2,5H
