19
gdb 70002	2.9471	1.68783	1.5808	2.4938	72.56	-0.2455	0.0764	0.3219	938.5265	0.161912	-423.007891	-423.000974	-423.00003	-423.038636	29.547	
O	-0.2046238215	 1.3750901467	 0.1492540454	-0.469724
C	-0.0833630542	-0.0039886216	-0.0127889195	 0.414669
C	-0.5236446222	-0.6555065727	-1.29822211	-0.372683
C	-1.3061127615	-0.8798244082	-0.0138290622	-0.097909
C	-0.9044242021	-1.9994842763	 0.9676666842	 0.073078
C	 0.1317816883	-2.9713636749	 0.3545676315	-0.227477
C	 1.4082377271	-2.0715366809	 0.3554447358	-0.230853
C	 0.843299647	-0.768313925	 0.967603852	-0.003432
O	-0.0954784949	-1.2885741197	 1.927725373	-0.260009
H	 0.466751772	 1.8005152425	-0.3947474265	 0.282228
H	-0.9982552983	 0.0119481074	-2.0116333676	 0.113079
H	 0.0456441121	-1.4564911304	-1.755036683	 0.113157
H	-2.2941664694	-0.4430719749	 0.0683287139	 0.100644
H	-1.7446044218	-2.4714839185	 1.4757122438	 0.076244
H	 0.2589625759	-3.836587128	 1.008064817	 0.105703
H	-0.1510115236	-3.3347546618	-0.6359095089	 0.10224
H	 2.1774965559	-2.4803684945	 1.0135434718	 0.106456
H	 1.8506171251	-1.9330125609	-0.6339786416	 0.098457
H	 1.563567536	-0.1188950283	 1.4640992109	 0.076133
196.1408	288.8824	303.5451	308.8274	384.2493	420.9244	484.4044	576.4205	608.2286	682.3601	746.0775	790.0518	833.1461	869.0751	883.5065	901.0627	918.6698	937.2369	950.1887	977.7532	992.5906	1005.8527	1015.3221	1063.6662	1073.8568	1096.3596	1135.7434	1209.4547	1225.2328	1234.8309	1238.5409	1260.5395	1301.1147	1315.794	1319.2299	1334.7153	1337.6013	1402.9515	1486.3677	1488.593	1510.4239	3067.293	3075.9006	3106.4674	3123.6302	3127.1959	3128.7316	3131.9228	3187.1375	3214.376	3799.0457
OC12CC1C1CCC2O1	O[C@]12C[C@H]1[C@H]1CC[C@@H]2O1	
InChI=1S/C7H10O2/c8-7-3-4(7)5-1-2-6(7)9-5/h4-6,8H,1-3H2	InChI=1S/C7H10O2/c8-7-3-4(7)5-1-2-6(7)9-5/h4-6,8H,1-3H2/t4-,5+,6-,7+/m0/s1
