23
gdb 59564	3.24962	1.1124	1.0822	1.3219	84.85	-0.2326	0.0819	0.3145	1285.0356	0.205943	-388.288256	-388.279101	-388.278157	-388.322222	35.496	
C	 0.0003201822	 1.5067058472	-0.0248144299	-0.3917
C	 0.0157080627	-0.0221972144	 0.1261174601	 0.013437
C	 0.7506056389	-0.4323735008	 1.4100294475	-0.39184
C	-1.4116922571	-0.5797854781	 0.0466808351	 0.166218
C	-1.5719648955	-2.1187349237	-0.0100236852	-0.287547
C	-2.8788030132	-2.362368038	 0.7434892984	-0.064421
C	-2.8376992972	-2.2742968068	 2.2583685967	-0.305287
C	-3.1946709472	-1.0671218527	 1.4354687156	 0.102231
O	-2.1575132806	-0.1519200053	 1.2005896794	-0.278333
H	 1.0168354413	 1.9126388201	-0.0116868602	 0.105457
H	-0.4712432857	 1.8095104455	-0.9658885302	 0.105841
H	-0.5610906093	 1.9660412464	 0.794397347	 0.133145
H	 0.5526918789	-0.4450771228	-0.7351686651	 0.070468
H	 0.8400228498	-1.5183696201	 1.5108196208	 0.107698
H	 1.7643414725	-0.0195847457	 1.4165723993	 0.10746
H	 0.2219358258	-0.0545973173	 2.2892621907	 0.132369
H	-1.8944470392	-0.1535090668	-0.8487612825	 0.060978
H	-1.6327542539	-2.4652380988	-1.0454433282	 0.1026
H	-0.7283679774	-2.6347823524	 0.4590268625	 0.105111
H	-3.6535574002	-2.9594155628	 0.2778017641	 0.089311
H	-3.6296677621	-2.7696946486	 2.8110124242	 0.108198
H	-1.869325271	-2.2691405273	 2.7477694835	 0.116918
H	-4.1871761123	-0.628595897	 1.4729838163	 0.091686
65.8089	79.0839	197.1739	210.1184	247.8553	275.9389	302.3244	339.3771	432.0193	453.8796	580.2123	602.3391	703.0275	780.7755	806.7149	811.9555	878.6785	915.3927	925.5689	944.4518	965.2366	976.4452	1003.7698	1024.6878	1041.3723	1066.9774	1084.9637	1101.5259	1140.634	1148.2929	1155.2907	1202.5879	1209.1327	1221.2644	1282.4273	1318.1795	1334.3175	1347.0548	1369.9464	1388.555	1393.4428	1398.5943	1422.0445	1472.3999	1484.9938	1492.9258	1497.1897	1506.5649	1515.9817	2952.5611	3004.76	3031.9414	3039.1831	3051.838	3093.3326	3097.8614	3101.3151	3112.1634	3121.6784	3124.8619	3151.4047	3179.6718	3216.6792
CC(C)C1CC2CC2O1	CC(C)[C@H]1C[C@H]2C[C@H]2O1	
InChI=1S/C8H14O/c1-5(2)7-3-6-4-8(6)9-7/h5-8H,3-4H2,1-2H3	InChI=1S/C8H14O/c1-5(2)7-3-6-4-8(6)9-7/h5-8H,3-4H2,1-2H3/t6-,7+,8+/m0/s1
