17
gdb 54841	2.6309	1.35792	1.21901	6.0682	68.37	-0.2125	0.0141	0.2266	1084.5022	0.13649	-455.109943	-455.101489	-455.100545	-455.143348	31.993	
N	 0.0891150932	 0.9835636513	-0.0196373975	-0.600748
H	 0.1251228632	-0.028460537	-0.0524145842	 0.237289
H	 1.0327796097	 1.3366107397	-0.1441655507	 0.236371
H	-3.0254161366	 1.5206551241	 0.6604079679	 0.309098
C	-0.5052728101	 1.4610336138	 1.1813536268	 0.247644
C	-0.8173324565	 2.9506352484	 1.3908205822	-0.218248
N	-0.743145474	 2.7905866334	 2.8798964082	-0.312047
C	-0.2633080404	 1.4079158229	 2.7117125985	-0.076224
C	-1.3588246218	 0.5975989441	 2.0734508578	-0.22424
C	-2.8257439569	 0.7793833535	 2.4047707453	 0.436025
O	-3.3215669293	 0.4199477877	 3.4332819568	-0.322446
O	-3.580877958	 1.3486340871	 1.4304903665	-0.374877
H	-0.0054906594	 3.5676863613	 0.9897736385	 0.105379
H	-1.7712996781	 3.3487615368	 1.0269952733	 0.109901
H	-0.0224289531	 3.3859299382	 3.2726938871	 0.227215
H	 0.5036811214	 0.9710535094	 3.3404842419	 0.101151
H	-1.0942711034	-0.457343995	 2.0134324916	 0.118758
52.2821	126.0293	171.7627	246.1673	249.5581	322.5279	375.2987	443.4233	522.2184	546.2906	595.6801	625.5658	727.0919	764.969	800.8845	844.7273	849.9932	885.3141	926.2489	972.9719	1003.178	1024.2767	1037.4039	1082.2973	1135.433	1144.7376	1194.2869	1248.6206	1272.6883	1304.514	1327.3499	1347.9417	1374.0857	1471.436	1513.7216	1654.1116	1876.3835	3030.0679	3074.905	3129.4844	3185.1467	3502.435	3533.991	3593.4936	3801.3132
[NH3+]C12CNC1C2C([O-])=O	N[C@]12CN[C@H]1[C@H]2C(=O)O	
InChI=1S/C5H8N2O2/c6-5-1-7-3(5)2(5)4(8)9/h2-3,7H,1,6H2,(H,8,9)	InChI=1S/C5H8N2O2/c6-5-1-7-3(5)2(5)4(8)9/h2-3,7H,1,6H2,(H,8,9)/t2-,3-,5-/m0/s1
