20
gdb 112461	2.47133	1.3635	0.9613	3.2029	83.11	-0.2495	0.0108	0.2603	1274.7641	0.171252	-403.175351	-403.166274	-403.16533	-403.210905	33.352	
C	-0.169369462	 1.4909155689	 0.1044178272	-0.386212
C	-0.1637522286	-0.0365002128	 0.1966872766	-0.17229
C	 0.9218042343	-0.5862295113	 1.1374637741	 0.081532
O	 0.7297638746	-0.0168515687	 2.4472597211	-0.270617
C	 0.4219563249	-0.7361542084	 3.560439467	 0.385778
N	 0.3959204244	-0.1881854887	 4.7024710354	-0.513184
C	 0.0792277039	-2.203034668	 3.4182935153	-0.338435
C	 0.5905412046	-2.8238804824	 2.1540446541	-0.082049
C	 0.9753124142	-2.0816677637	 1.1238965651	-0.077032
H	 0.7836843053	 1.86633924	-0.2847478292	 0.114393
H	-0.9628948205	 1.8379995277	-0.5636702714	 0.114639
H	-0.3293047043	 1.9390013668	 1.0880812577	 0.135795
H	-1.1360127221	-0.4053808215	 0.5447300137	 0.105722
H	 0.0000724663	-0.4742462018	-0.7958009388	 0.099686
H	 1.8924256077	-0.1886907767	 0.8056515034	 0.097371
H	 0.6380102308	 0.8014756231	 4.6203161432	 0.214439
H	 0.4599390976	-2.7144711362	 4.306582772	 0.1458
H	-1.0145190865	-2.3048311558	 3.4718325884	 0.142515
H	 0.6237302876	-3.9081685231	 2.103105419	 0.101391
H	 1.330957448	-2.5300481174	 0.200888546	 0.100756
23.7543	46.4825	104.8002	190.7755	228.2792	311.4546	394.5473	450.8037	456.405	515.1203	546.874	574.4843	701.3185	730.9269	814.8512	877.6529	893.1859	902.7065	959.1258	969.9637	984.9854	1004.5061	1035.502	1064.5159	1112.1415	1130.9025	1144.7505	1202.6062	1217.0812	1290.1841	1303.0892	1319.605	1346.9178	1378.0796	1405.8711	1414.8393	1421.7993	1460.6402	1475.4669	1496.878	1508.3561	1740.2642	1746.4125	2994.1568	3009.8382	3029.7615	3038.565	3068.4914	3089.2033	3104.8758	3127.4838	3162.6096	3184.4193	3462.5173
CCC1OC(=N)CC=C1	CC[C@H]1O[C]([NH])CC=C1	
InChI=1S/C7H11NO/c1-2-6-4-3-5-7(8)9-6/h3-4,6,8H,2,5H2,1H3	InChI=1S/C7H11NO/c1-2-6-4-3-5-7(8)9-6/h3-4,6,8H,2,5H2,1H3/t6-/m1/s1
