17
gdb 99401	2.06717	1.4385	0.85732	2.5394	82.45	-0.2293	-0.0717	0.1575	1321.4888	0.132382	-417.975453	-417.964882	-417.963938	-418.012232	36.156	
C	 1.3793978529	-0.6672773584	 0.2705745908	-0.304651
N	 0.0451583999	-0.1099935815	 0.0804810783	-0.366099
C	-1.1602126191	-0.744728747	-0.0184995105	 0.327007
N	-2.3040469253	-0.1815755056	-0.1868685016	-0.282435
C	-2.3490888131	 1.2602193574	-0.2840961649	-0.347788
C	-1.1960210842	-2.2513905624	 0.0735982056	 0.147971
O	-0.2037900163	-2.9341299686	 0.2324627753	-0.315796
C	-2.5094194927	-2.8557949333	-0.040280308	 0.331219
C	-3.5316530712	-3.4861408237	-0.1187322773	-0.410929
H	 2.0799148556	 0.1711914109	 0.2977265658	 0.115338
H	 1.4642036331	-1.224255586	 1.206408801	 0.145789
H	 1.6664959531	-1.3366283302	-0.5434966971	 0.145823
H	-0.0015708356	 0.8914176916	 0.0114782143	 0.247415
H	-1.9636660195	 1.754220033	 0.6243132966	 0.11367
H	-1.7599343089	 1.6418769998	-1.1355811557	 0.11368
H	-3.3821050754	 1.5863927512	-0.424490178	 0.130453
H	-4.4492037934	-4.017212787	-0.1913206048	 0.209333
21.1353	75.5821	136.5557	139.9526	172.6629	198.5398	230.0534	261.1747	274.5082	343.1419	364.1835	436.2305	548.7579	582.163	633.3493	651.6535	710.2515	732.5526	817.794	1013.9603	1054.4517	1093.0375	1135.8595	1153.7448	1174.3719	1218.9513	1396.3452	1428.4545	1466.8251	1481.8815	1483.5562	1500.4493	1504.3705	1523.8165	1689.6392	1747.711	2214.2063	2947.4528	2989.3584	3048.8155	3104.8906	3117.9927	3124.076	3497.5256	3666.8296
CNC(=NC)C(=O)C#C	CNC(=NC)C(=O)C#C	
InChI=1S/C6H8N2O/c1-4-5(9)6(7-2)8-3/h1H,2-3H3,(H,7,8)	InChI=1S/C6H8N2O/c1-4-5(9)6(7-2)8-3/h1H,2-3H3,(H,7,8)
