20
gdb 106428	2.88134	1.32201	1.14857	2.8978	79.88	-0.2271	0.0658	0.2929	1153.5408	0.170737	-403.040548	-403.032069	-403.031125	-403.073652	32.949	
O	-0.0872503486	 1.4487380196	 0.0464451166	-0.419727
C	 0.0030394564	 0.0328203124	-0.0258109375	-0.225778
C	-1.3971952508	-0.5162727929	-0.0141390355	 0.234393
C	-2.5006795477	-0.3770098142	 1.0646786067	-0.199783
N	-3.2072193718	-1.2442607802	-0.00003292	-0.192394
C	-2.5584612872	-0.2735740036	-1.0108824617	-0.199766
C	-1.8744516223	-1.9712815863	-0.0733138453	 0.406345
C	-1.5740727884	-3.1593887249	-0.9089463288	-0.378262
C	-1.5314744012	-3.2356549388	 0.6222802053	-0.378257
H	 0.8046528233	 1.8080018913	 0.0403949173	 0.290516
H	 0.5164560101	-0.2926139263	-0.9457877024	 0.089148
H	 0.5655124606	-0.3800133178	 0.8280252035	 0.089155
H	-2.3555916285	-0.892405957	 2.0170813239	 0.099705
H	-2.9597284611	 0.6053701572	 1.1959901808	 0.104992
H	-3.0213533218	 0.7157268906	-1.0182683342	 0.105006
H	-2.4678774936	-0.6913911206	-2.0163537439	 0.09971
H	-2.4033669331	-3.6508335887	-1.4074320144	 0.125667
H	-0.6324450356	-3.2057304445	-1.447129167	 0.111833
H	-0.5615773665	-3.3326100777	 1.1001409208	 0.11183
H	-2.3332001025	-3.7764568676	 1.1147266358	 0.125667
70.921	129.144	212.7413	240.5659	251.5586	256.8483	335.7175	439.6059	508.1772	610.7847	620.1095	692.7911	768.5909	778.1535	794.5993	895.5579	899.2701	906.7058	959.1863	973.6937	987.9511	1028.7092	1044.2242	1074.8473	1078.1757	1102.4402	1124.4933	1147.0356	1158.8081	1181.3895	1183.9849	1190.6479	1234.2552	1267.4229	1267.599	1316.0099	1400.8894	1451.6385	1465.0994	1501.1637	1508.2392	1512.3395	1549.4298	2956.1524	2984.5452	3057.7003	3062.235	3123.1147	3126.1534	3129.3284	3132.593	3203.2648	3216.6725	3831.6407
OCC12CN(C1)C21CC1	OC[C@@]12CN(C1)C12CC1	
InChI=1S/C7H11NO/c9-5-6-3-8(4-6)7(6)1-2-7/h9H,1-5H2	InChI=1S/C7H11NO/c9-5-6-3-8(4-6)7(6)1-2-7/h9H,1-5H2
