18
gdb 72455	2.38956	2.16916	1.52854	2.0859	69.34	-0.2378	0.0711	0.3088	903.826	0.150621	-439.053252	-439.046497	-439.045553	-439.083846	28.779	
O	 0.0923938775	 1.356437752	-0.0971086971	-0.501566
C	 0.0558373066	-0.039220373	 0.0101044933	 0.381377
C	 0.8143420036	-0.709407563	-1.1582501989	-0.089375
O	 1.0505949862	-2.0534978631	-0.7018481019	-0.282062
C	 0.4892205743	-2.1284500446	 0.6300241036	 0.091571
C	 0.7749167989	-0.7344271179	 1.1938010309	-0.310415
C	-1.0306057187	-2.1206324892	 0.4296329498	-0.037029
N	-1.7784279133	-1.2115059587	 1.3309005906	-0.358596
C	-1.3179970102	-0.7267123701	 0.0097746948	-0.114261
H	-0.3968671577	 1.7226502199	 0.6471836454	 0.284445
H	 0.2320271701	-0.7252472732	-2.0870805319	 0.097833
H	 1.766261153	-0.197786705	-1.345366132	 0.106507
H	 0.9228815212	-2.9933953021	 1.1308548018	 0.077506
H	 1.8425442245	-0.5101441883	 1.2152018725	 0.104163
H	 0.3120689301	-0.5393791288	 2.1594521726	 0.124669
H	-1.5245841527	-2.9782117662	-0.0119985088	 0.097679
H	-2.7676925741	-1.4386521276	 1.2595145679	 0.234599
H	-2.0366765294	-0.4784765711	-0.7644012426	 0.092955
235.1413	291.8897	308.8191	339.8279	397.2209	421.7726	491.0314	557.0256	586.6537	626.3467	762.8825	787.7056	862.0743	881.2202	900.245	909.5647	926.8728	949.2684	963.2682	983.1998	1025.6788	1054.5367	1072.3069	1097.3061	1138.7188	1151.2762	1165.9412	1215.9552	1231.9114	1243.556	1262.7225	1294.0998	1319.3107	1352.4341	1370.2367	1387.3984	1412.3117	1480.3063	1528.1532	3021.3377	3063.2904	3093.3957	3123.9481	3162.9413	3166.2286	3185.0372	3499.8753	3812.6074
OC12COC(C1)C1NC21	O[C@@]12CO[C@@H](C1)[C@H]1N[C@@H]21	
InChI=1S/C6H9NO2/c8-6-1-3(9-2-6)4-5(6)7-4/h3-5,7-8H,1-2H2	InChI=1S/C6H9NO2/c8-6-1-3(9-2-6)4-5(6)7-4/h3-5,7-8H,1-2H2/t3-,4+,5+,6+/m0/s1
