20
gdb 114211	2.7329	1.27448	1.09722	3.4216	76.15	-0.2416	0.0738	0.3153	1204.0514	0.169866	-440.22728	-440.218002	-440.217058	-440.261409	34.49	
C	-0.2109873905	 1.2825184512	 0.1282511447	-0.233962
O	 0.3457147054	-0.0015136155	-0.0357483297	-0.243014
C	 0.8644206036	-0.5490701436	 1.1492979009	 0.078038
C	-0.2268325095	-1.2325787158	 2.0406416651	-0.355041
C	 0.0898164987	-2.5425958151	 1.3143691154	 0.308732
C	-0.3819031266	-3.9266726287	 1.4856704343	-0.32628
N	-0.7679029597	-3.1404188994	 0.2892839268	-0.35954
C	 1.436190778	-1.9779848143	 0.8363449644	 0.090739
O	 1.8541888478	-2.2948726999	-0.4468057711	-0.424215
H	 0.5345297302	 1.9994530501	 0.50559471	 0.107977
H	-0.5554113527	 1.6138006755	-0.8544123497	 0.129439
H	-1.066721974	 1.2830686397	 0.8204924656	 0.102295
H	 1.5354331027	 0.1629941457	 1.6497738811	 0.05887
H	 0.0438637502	-1.2528960411	 3.1007292779	 0.108765
H	-1.243454921	-0.8427475417	 1.9391828073	 0.105001
H	 0.2863396946	-4.7596608508	 1.2835903526	 0.12578
H	-1.1399917164	-4.124282723	 2.2398717062	 0.112867
H	-1.7220154708	-2.8006992229	 0.3816880467	 0.231332
H	 2.2500352335	-2.2128962997	 1.5312720002	 0.086975
H	 1.0455144262	-2.3937807308	-0.9687352087	 0.295243
70.3417	116.4799	144.6544	179.9611	208.7438	242.285	326.8362	341.3713	386.1828	411.7865	508.0385	592.0411	667.8371	767.3798	804.917	839.6565	868.5673	916.8549	953.4346	975.1974	992.1892	1026.602	1076.821	1107.1299	1138.239	1155.3703	1172.2956	1178.613	1185.9768	1225.9215	1248.9657	1253.1583	1269.7267	1299.5611	1343.625	1374.6057	1413.0998	1447.0408	1472.8604	1481.2796	1487.9788	1509.0471	1512.2204	2975.586	3002.3318	3022.3238	3049.0278	3056.9903	3103.1919	3105.6672	3114.4936	3187.937	3499.6792	3750.5945
COC1CC2(CN2)C1O	CO[C@H]1C[C@]2(CN2)[C@H]1O	
InChI=1S/C6H11NO2/c1-9-4-2-6(3-7-6)5(4)8/h4-5,7-8H,2-3H2,1H3	InChI=1S/C6H11NO2/c1-9-4-2-6(3-7-6)5(4)8/h4-5,7-8H,2-3H2,1H3/t4-,5-,6-/m0/s1
