18
gdb 14851	2.91995	1.59688	1.14215	0.7938	73.76	-0.2544	0.047	0.3014	1057.1586	0.152729	-347.753015	-347.744426	-347.743482	-347.786136	31.741	
O	-0.0707118209	 1.3949559422	-0.3348931079	-0.424749
C	 0.0153676424	-0.0237750993	-0.3337920823	-0.090538
C	-1.3293042363	-0.5549158471	 0.1321024493	 0.008677
C	-2.4749500576	-0.3512737091	-0.8976908809	-0.22284
C	-2.3132668033	-1.8260180071	-1.350577545	-0.22694
C	-1.509134589	-2.1077687858	-0.0386437121	-0.17824
C	-0.3437764832	-2.9672292599	-0.0979294492	 0.320622
C	 0.6270093704	-3.6755133779	-0.1633115878	-0.464655
H	 0.7721207939	 1.7454291702	-0.6368466829	 0.286331
H	 0.2492638205	-0.4095688276	-1.3389210847	 0.088445
H	 0.8076440576	-0.380985094	 0.3410083436	 0.096079
H	-1.5220189939	-0.1785876508	 1.1400779294	 0.079849
H	-3.4376873157	-0.1694993413	-0.4132301436	 0.100977
H	-2.3098984719	 0.4272027969	-1.6444582629	 0.11259
H	-3.2180391073	-2.4185552616	-1.50037233	 0.103707
H	-1.6795737692	-1.9287804142	-2.2340690034	 0.113375
H	-2.1896910159	-2.4732532157	 0.7375876203	 0.10467
H	 1.4798704695	-4.3056431476	-0.2163487803	 0.19264
95.8525	113.8051	123.7116	200.9421	245.0642	265.7316	344.1035	427.7571	506.4418	558.254	614.6575	628.2777	669.5628	759.9568	834.2659	888.8473	925.7907	950.5138	959.6953	1047.9125	1060.4659	1085.5537	1101.9883	1149.633	1192.6386	1224.7619	1235.1759	1256.1077	1261.5365	1284.6828	1291.7165	1346.1247	1366.5154	1462.5023	1486.0011	1499.8101	1519.6805	2227.5032	2973.807	3007.4161	3046.2715	3065.5937	3070.9424	3078.5873	3116.1284	3131.7293	3504.6862	3831.3945
OCC1CCC1C#C	OC[C@H]1CC[C@H]1C#C	
InChI=1S/C7H10O/c1-2-6-3-4-7(6)5-8/h1,6-8H,3-5H2	InChI=1S/C7H10O/c1-2-6-3-4-7(6)5-8/h1,6-8H,3-5H2/t6-,7-/m1/s1
