19
gdb 69057	3.35174	1.02565	0.89592	3.1885	77.11	-0.2431	-0.0253	0.2178	1338.7483	0.156277	-423.010073	-423.000813	-422.999869	-423.044892	33.668	
C	-0.2210710653	 1.4621288743	 0.1824336407	-0.499242
C	 0.1544985684	 0.0266225012	 0.0135754874	 0.34185
C	 0.4824855735	-0.7335018672	-1.2846549458	-0.278486
C	 1.3660405133	-1.7154118785	-0.4399665503	-0.284861
C	 0.9872296941	-0.9028057983	 0.8100812439	 0.331616
C	 1.7464413058	-0.7488090636	 2.0955307054	-0.393283
C	 1.6514073384	-1.9948995868	 2.9618888614	 0.160373
O	 2.5963116382	-2.5562970531	 3.451582868	-0.236797
O	-0.4515773692	-0.9399008273	 0.8925131319	-0.326975
H	 0.4712026665	 2.1116034945	-0.3627525439	 0.126443
H	-1.2296614083	 1.6442238139	-0.2057477783	 0.13586
H	-0.2118836382	 1.7451744982	 1.2385907509	 0.131224
H	-0.3830527474	-1.1641081847	-1.7934541258	 0.111133
H	 1.0690631676	-0.1451451952	-1.9945737961	 0.105848
H	 1.0601835053	-2.7640746122	-0.4211330029	 0.113065
H	 2.4272355152	-1.6498285917	-0.6921900448	 0.110025
H	 2.8023365055	-0.5274173434	 1.9150897439	 0.124172
H	 1.3041521706	 0.0790223586	 2.6662591048	 0.129813
H	 0.6124943462	-2.3587768386	 3.1198454297	 0.098221
50.693	67.2867	137.5281	183.3217	202.7535	244.2654	323.5806	337.701	444.7696	498.0408	507.3608	605.922	711.0851	721.1471	775.8647	831.6802	878.5796	899.7543	936.5644	969.7608	998.1046	1049.7562	1087.0306	1101.3666	1159.195	1183.6647	1205.1722	1217.9827	1223.0557	1269.38	1288.9474	1318.3065	1408.9345	1421.0318	1439.991	1462.4277	1464.0598	1479.5332	1490.1694	1516.7073	1834.4304	2898.3712	3025.4518	3034.3101	3062.7137	3069.9426	3096.9845	3100.6759	3114.1548	3117.9386	3130.3225
CC12CCC1(CC=O)O2	C[C@@]12CC[C@]1(CC=O)O2	
InChI=1S/C7H10O2/c1-6-2-3-7(6,9-6)4-5-8/h5H,2-4H2,1H3	InChI=1S/C7H10O2/c1-6-2-3-7(6,9-6)4-5-8/h5H,2-4H2,1H3/t6-,7-/m1/s1
