17
gdb 85503	2.51288	1.43051	1.07574	4.8304	68.76	-0.2477	-0.0456	0.2021	1125.0005	0.136265	-455.202978	-455.194351	-455.193407	-455.236614	31.585	
C	 0.1412712749	 1.5392677489	-0.190062542	-0.405892
C	-0.0437901771	 0.0357978204	 0.0500592754	-0.001786
N	 0.5018571813	-0.7787070223	-1.0328429524	-0.341516
C	 1.8112046657	-1.1786805643	-0.74983262	 0.43254
O	 2.6479771274	-1.525929809	-1.5484819011	-0.39552
N	 1.9366383175	-1.1318944958	 0.6299692479	-0.341767
C	 0.7844553083	-0.5373141012	 1.2584438762	-0.063121
C	 1.1499587994	 0.4770615034	 2.3207933682	 0.149615
O	 2.2838810736	 0.7500512065	 2.6197509249	-0.245012
H	 1.2028737216	 1.7995394718	-0.2497013624	 0.144788
H	-0.333701768	 1.8303612676	-1.1324227916	 0.124688
H	-0.3193493906	 2.1332282824	 0.6060840525	 0.123728
H	-1.1055813112	-0.1838242083	 0.1967810526	 0.09536
H	 0.3442242155	-0.4913414162	-1.9874112718	 0.250478
H	 2.8493408094	-1.0116340216	 1.0400539671	 0.267757
H	 0.1678999222	-1.2965300421	 1.7704475646	 0.112691
H	 0.2831330101	 0.9334679499	 2.8463210619	 0.09297
71.8581	103.5364	136.0086	241.8045	252.62	287.5278	340.5615	407.8427	448.0625	514.0051	552.3396	671.7303	699.1859	727.851	772.8661	807.5562	916.0598	983.5213	993.6356	1004.3775	1060.9629	1115.0352	1142.3529	1192.4357	1257.0591	1271.8293	1320.9049	1368.2203	1392.1234	1401.6146	1409.16	1414.1023	1430.4724	1491.6742	1497.5024	1827.5636	1858.4575	2897.5306	2950.8406	3034.1344	3054.4632	3103.9285	3115.0609	3623.1521	3649.6905
CC1NC(=O)NC1C=O	C[C@H]1NC(=O)N[C@H]1C=O	
InChI=1S/C5H8N2O2/c1-3-4(2-8)7-5(9)6-3/h2-4H,1H3,(H2,6,7,9)	InChI=1S/C5H8N2O2/c1-3-4(2-8)7-5(9)6-3/h2-4H,1H3,(H2,6,7,9)/t3-,4+/m1/s1
