18
gdb 71312	3.25955	1.47599	1.16398	1.6782	82.45	-0.2358	0.0406	0.2764	1074.4104	0.146591	-364.68257	-364.674651	-364.673707	-364.714631	31.403	
C	 0.0753606228	 1.5360969324	-0.1932806918	-0.529292
C	 0.0546690321	 0.0320428933	-0.1163022442	 0.306498
C	 0.5320851463	-1.0019913461	-1.13609876	-0.224825
N	 0.035767096	-1.9293391026	-0.0335256375	-0.167582
C	 0.5541584809	-0.9229400617	 1.0221982232	-0.053975
C	-0.7980216185	-0.9743251013	 1.7655256308	-0.190665
C	-1.2048893356	 0.1121403268	 2.6302763319	 0.290679
C	-1.5524467199	 0.9949774184	 3.3699698293	-0.439497
C	-1.1183844668	-0.9391739692	 0.2556585616	-0.053983
H	 1.1009606518	 1.9022736975	-0.3149105659	 0.12042
H	-0.5070923688	 1.8866265796	-1.0527061908	 0.120415
H	-0.3437591045	 1.9848740226	 0.7107088707	 0.141088
H	-0.0273425934	-1.101148756	-2.073031032	 0.099246
H	 1.6084881102	-1.0852818143	-1.3233219235	 0.099246
H	 1.5619077092	-1.014086597	 1.4321110007	 0.087019
H	-0.996479305	-1.9514121592	 2.2192380812	 0.112909
H	-1.85805658	 1.7767115936	 4.0204420695	 0.195279
H	-2.0851679371	-1.049489707	-0.2393710132	 0.08702
128.6305	138.4482	197.7078	263.769	297.1683	400.266	407.4763	503.2194	535.9106	626.4393	627.436	638.0332	716.4096	799.5937	859.4187	860.231	867.424	916.4212	926.654	937.4983	1013.2112	1038.776	1058.4971	1082.7609	1102.4129	1143.3439	1152.7774	1183.8555	1210.0386	1216.9359	1252.725	1270.9807	1344.2647	1363.352	1409.8018	1489.8382	1491.578	1520.5661	2232.3391	3028.7206	3032.1935	3054.6235	3087.0446	3092.0135	3096.2195	3101.9629	3124.0017	3503.0099
CC12CN3C1C(C#C)C23	C[C@@]12CN3[C@@H]1[C@@H](C#C)[C@@H]23	
InChI=1S/C8H9N/c1-3-5-6-8(2)4-9(6)7(5)8/h1,5-7H,4H2,2H3	InChI=1S/C8H9N/c1-3-5-6-8(2)4-9(6)7(5)8/h1,5-7H,4H2,2H3/t5-,6-,7+,8-
