17
gdb 12940	2.50609	2.19514	1.71392	3.6084	68.84	-0.2393	0.0113	0.2506	868.7331	0.141729	-363.865882	-363.857917	-363.856973	-363.897854	29.678	
C	 0.0755935363	 1.5760393119	 0.0633261662	-0.424833
C	 0.1032640099	 0.0637905441	 0.0831772181	-0.050278
C	 1.3126144392	-0.7851236135	-0.1922682774	-0.065429
N	 2.5428011036	-0.2074884556	 0.3570770681	-0.341039
C	 1.9937247941	-0.1259664538	 1.651400894	 0.36339
O	 2.4270782864	 0.3216038898	 2.6757716304	-0.344604
C	 0.6997072049	-0.8039310243	 1.2052110041	 0.146133
C	-0.0561931419	-1.855040092	 1.9630265218	-0.498837
H	 1.0139547972	 2.0095326986	 0.4189528991	 0.128546
H	-0.1041090884	 1.9454677271	-0.9522084881	 0.120798
H	-0.7257864839	 1.9570443039	 0.7042338308	 0.130198
H	-0.8132511147	-0.3913752117	-0.2939101422	 0.093891
H	 1.3632572895	-1.5905716104	-0.9141783642	 0.109589
H	 3.0531960098	 0.5565849149	-0.0721622234	 0.239746
H	-0.5370528835	-1.4232101853	 2.8471890923	 0.138998
H	-0.83867983	-2.3046015607	 1.3438732388	 0.120608
H	 0.6083641615	-2.6552308131	 2.3046811514	 0.133124
138.7548	160.1466	173.7581	204.6752	235.1998	278.2725	385.3005	483.8429	533.863	630.0684	686.8511	725.9969	750.7512	792.1485	867.9434	909.6991	951.725	983.6567	1030.2104	1087.2994	1095.0111	1118.5329	1136.759	1156.2141	1255.5298	1283.2289	1322.0483	1344.6726	1416.819	1418.273	1455.1861	1485.4731	1490.4552	1496.7479	1502.098	1890.4857	3033.412	3037.4634	3097.7745	3098.2942	3103.1943	3106.2633	3122.7204	3194.6183	3540.4218
CC1C2NC(=O)C12C	C[C@H]1[C@H]2NC(=O)[C@@]12C	
InChI=1S/C6H9NO/c1-3-4-6(3,2)5(8)7-4/h3-4H,1-2H3,(H,7,8)	InChI=1S/C6H9NO/c1-3-4-6(3,2)5(8)7-4/h3-4H,1-2H3,(H,7,8)/t3-,4+,6-/m0/s1
