20
gdb 102511	1.69347	1.24763	0.90438	4.5732	75.61	-0.2801	0.0147	0.2948	1391.0215	0.168648	-440.290631	-440.279766	-440.278821	-440.327008	38.14	
C	 0.7865175595	 1.2929132645	-0.2142383867	-0.392533
C	 0.314849797	-0.1654505155	-0.1842290197	-0.224179
C	-1.2057478929	-0.33486379	-0.0157978942	 0.025922
C	-1.9857202372	 0.0433535321	-1.276468846	-0.103407
O	-3.368849219	 0.028581102	-0.9478417293	-0.42504
C	-1.5943650642	-1.7804096533	 0.3857263888	-0.034596
O	-1.1717087717	-2.7571672471	-0.5532551714	-0.420314
C	-1.1034371361	-2.1053309232	 1.7393994098	 0.264208
N	-0.6847700685	-2.3580329851	 2.7868342945	-0.329319
H	 1.8762969969	 1.3436650264	-0.2956624396	 0.120845
H	 0.3688797608	 1.8455563696	-1.0610106716	 0.122175
H	 0.4963173482	 1.816914769	 0.7023698811	 0.127163
H	 0.6392877446	-0.6730032908	-1.102373524	 0.099186
H	 0.8168833386	-0.674204258	 0.6483012472	 0.119755
H	-1.55141091	 0.3202512085	 0.7944912623	 0.103685
H	-1.6765316859	 1.0393738649	-1.6226636293	 0.093871
H	-1.7549941737	-0.6814820573	-2.0702194192	 0.106734
H	-3.8770351904	 0.0912914579	-1.7613374526	 0.293239
H	-2.6863887148	-1.8372213773	 0.3946915309	 0.155474
H	-0.211546971	-2.8265710972	-0.5080432308	 0.29713
65.0098	67.0139	118.0611	141.5028	176.7617	215.3956	224.9668	255.9755	259.6254	308.2117	328.9642	371.7337	477.5994	511.0005	591.6923	675.461	767.9854	804.3136	917.5716	968.5188	990.7782	1001.6601	1049.556	1073.8239	1117.2998	1133.1934	1137.0754	1244.3789	1252.4473	1273.3537	1292.1177	1310.7415	1340.989	1366.37	1395.9219	1417.0385	1431.1297	1451.1729	1493.4788	1501.8284	1508.4818	1517.4962	2351.3644	2995.7556	3015.8377	3025.8431	3037.7776	3042.4017	3055.3697	3090.629	3108.5365	3110.8486	3806.5902	3839.1372
CCC(CO)C(O)C#N	CC[C@@H](CO)[C@@H](O)C#N	
InChI=1S/C6H11NO2/c1-2-5(4-8)6(9)3-7/h5-6,8-9H,2,4H2,1H3	InChI=1S/C6H11NO2/c1-2-5(4-8)6(9)3-7/h5-6,8-9H,2,4H2,1H3/t5-,6-/m0/s1
