18
gdb 49735	2.73814	1.31717	1.27304	3.4568	73.19	-0.2359	-0.0321	0.2038	1083.6468	0.148882	-439.055717	-439.047958	-439.047014	-439.088203	29.554	
O	-0.4139827963	 0.8038730277	-1.2883716985	-0.268743
C	 0.0156058683	 1.0886582652	-0.1943958104	 0.132595
C	 1.2940904313	 1.8358378003	-0.0221129292	-0.109688
C	 1.4527863219	 2.8602938595	 1.0723936871	-0.040898
C	 0.3886259497	 3.1146471583	 2.1298130943	-0.126535
O	-0.0380911848	 1.928577049	 2.7742160685	-0.233671
C	 1.0748825696	 1.2127433392	 3.2885349841	-0.084586
C	 1.9237075415	 0.6360768455	 2.1554472417	-0.167055
N	 2.2268282234	 1.6320341881	 1.1059475043	-0.114238
H	-0.5300192509	 0.8234831766	 0.7302275707	 0.104442
H	 1.7927930669	 2.016637641	-0.9716521366	 0.110326
H	 2.0298580814	 3.7488053857	 0.8157057233	 0.106094
H	 0.8052304624	 3.8118882431	 2.8759655003	 0.105635
H	-0.500909075	 3.5821935151	 1.6971531498	 0.129038
H	 1.6840731276	 1.8799374172	 3.9195759794	 0.099498
H	 0.6777969248	 0.4149361326	 3.9218180931	 0.119517
H	 2.880731926	 0.2889305309	 2.5624125839	 0.115946
H	 1.4300667322	-0.235934505	 1.7166360942	 0.122321
91.1788	122.3744	207.4724	248.4393	333.229	399.7259	413.5407	464.6191	526.0404	535.6663	690.2133	744.9873	805.4489	868.3689	906.5544	944.6051	960.1055	1014.6105	1045.7137	1088.3251	1101.6561	1107.3358	1135.3374	1159.9711	1179.1323	1254.0488	1267.0959	1304.7381	1325.9874	1334.5169	1365.1432	1378.7135	1401.1803	1432.0057	1445.3471	1491.2785	1499.7803	1506.91	1798.7245	2966.4067	2967.663	2979.4644	3035.2175	3079.2511	3082.1928	3097.877	3102.887	3140.5337
O=CC1C2COCCN12	O=C[C@H]1[C@H]2COCCN12	
InChI=1S/C6H9NO2/c8-3-5-6-4-9-2-1-7(5)6/h3,5-6H,1-2,4H2	InChI=1S/C6H9NO2/c8-3-5-6-4-9-2-1-7(5)6/h3,5-6H,1-2,4H2/t5-,6+,7?/m0/s1
