18
gdb 41291	2.96921	2.05713	1.83871	1.3893	74.38	-0.24	0.0638	0.3038	837.3736	0.150718	-401.831916	-401.825869	-401.824925	-401.861824	26.448	
C	 0.0717342626	 1.5494929965	-0.1297474606	-0.196665
O	 1.5333548887	 1.5475055687	 0.0091142722	-0.346302
C	 1.4988419094	 0.2350286649	 0.5898821901	 0.383569
C	 1.7160033851	-0.3097109122	 1.9830437275	-0.249239
N	 1.0025046245	-1.5436466915	 1.4327159909	-0.15343
C	-0.3920141873	-0.9551250771	 1.2366405116	-0.241115
C	 0.024297277	 0.0373053179	 0.1530642231	 0.180354
C	 0.519924149	-0.9332476375	-0.9668124693	-0.28263
C	 1.6384260991	-1.2104928956	 0.0295564035	-0.04703
H	-0.3923711335	 2.1845015904	 0.6346776081	 0.108921
H	-0.2314310191	 1.8816380287	-1.1268243649	 0.113099
H	 2.7579649701	-0.5587066898	 2.2006330999	 0.112043
H	 1.2444965168	 0.1487205406	 2.8572212054	 0.104525
H	-1.0937814766	-1.7261048084	 0.9113637675	 0.105582
H	-0.7435380651	-0.525149116	 2.1761412125	 0.109113
H	-0.1434735037	-1.7422835264	-1.283746277	 0.100048
H	 0.9083839567	-0.3973657516	-1.8357421977	 0.118786
H	 2.5465065564	-1.7873040816	-0.1441955127	 0.080371
258.1187	318.4591	370.9526	430.2209	499.3535	513.8642	603.0464	672.0287	710.7987	753.8082	807.5726	830.4599	867.9989	883.1017	925.2609	937.4866	956.683	976.8461	982.1841	1017.9439	1052.705	1095.0569	1120.1331	1127.5485	1149.6872	1163.1948	1179.3225	1212.0819	1221.5382	1239.8946	1261.6105	1282.6994	1293.6037	1311.7273	1336.3536	1478.5433	1500.8084	1507.299	1526.0818	3024.1828	3052.1339	3059.7753	3073.3373	3090.8056	3111.5373	3119.8616	3122.6648	3127.393
C1OC23CN4CC12CC34	C1O[C@@]23CN4C[C@@]12C[C@@H]34	
InChI=1S/C7H9NO/c1-5-7-3-8(5)2-6(1,7)4-9-7/h5H,1-4H2	InChI=1S/C7H9NO/c1-5-7-3-8(5)2-6(1,7)4-9-7/h5H,1-4H2/t5-,6-,7+/m0/s1
