18
gdb 31026	2.37054	1.33728	0.90586	2.8909	75.55	-0.2096	0.0291	0.2386	1300.6625	0.14684	-439.139524	-439.130275	-439.129331	-439.173827	33.452	
C	 0.2645044912	 1.5741438459	 0.2741334351	-0.367859
C	-0.0935468803	 0.1139190343	-0.0464735426	-0.294182
C	 0.5728038161	-0.3856699467	-1.2873560267	 0.18741
C	 0.0320489275	-0.8070980232	-2.4554424868	 0.237225
C	-1.3350602581	-0.971325685	-3.0052770089	-0.496132
O	 1.094485017	-1.1587843081	-3.2928812229	-0.23906
C	 2.1895844399	-0.9125144807	-2.5438034649	 0.455991
O	 3.3746076798	-1.1631125936	-3.1013841033	-0.404117
N	 1.9747541145	-0.4596001888	-1.3609586666	-0.386902
H	 1.3479371958	 1.6885337067	 0.3626529064	 0.142734
H	-0.0814516238	 2.2457375213	-0.5181148796	 0.112724
H	-0.1955297325	 1.8903960259	 1.2153072905	 0.10827
H	 0.2098704557	-0.5215923153	 0.7950178801	 0.117489
H	-1.1790113426	 0.0050057564	-0.145636634	 0.09756
H	-1.4938963262	-0.3535767658	-3.8972719803	 0.136271
H	-1.5399168585	-2.0115161109	-3.285375037	 0.136332
H	-2.070833159	-0.6738996286	-2.2548490958	 0.140976
H	 3.2253944234	-1.4985494238	-3.9933978428	 0.315272
58.9253	133.6732	149.219	195.262	203.7215	264.3538	279.8477	325.2321	338.4783	424.3953	531.9887	607.8872	639.8504	695.1469	742.3936	785.2702	815.9305	962.0722	981.9868	1007.4182	1066.1459	1069.6762	1086.2201	1147.3863	1213.4411	1227.1708	1297.9395	1319.9262	1369.3534	1405.1007	1416.3162	1428.9031	1470.0807	1477.2983	1493.8667	1494.8529	1509.296	1696.5744	1709.8767	3023.9827	3028.1647	3039.5394	3069.9565	3070.7994	3107.6988	3125.523	3128.0513	3819.0636
CCC1=C(C)OC(O)=N1	CCc1c(C)oc(O)n1	
InChI=1S/C6H9NO2/c1-3-5-4(2)9-6(8)7-5/h3H2,1-2H3,(H,7,8)	InChI=1S/C6H9NO2/c1-3-5-4(2)9-6(8)7-5/h3H2,1-2H3,(H,7,8)
