18
gdb 67782	2.73869	2.39479	1.67004	1.5376	78.08	-0.2295	0.0031	0.2326	856.8419	0.149447	-364.754327	-364.747832	-364.746888	-364.784585	27.903	
C	 0.0337592077	 1.4841383793	-0.0160507724	-0.487509
C	-0.0573445915	-0.0176446474	 0.1049769496	 0.340987
C	-1.4108117228	-0.6660187982	 0.0499878061	-0.12839
C	-1.307260497	-1.9139463648	 0.5266503422	-0.093887
C	 0.1298190671	-2.1529110646	 0.891339272	-0.095237
C	 1.0838242591	-2.0716957264	-0.3496771499	-0.055573
C	 1.8871594457	-0.9763030138	 0.2248345874	-0.070712
C	 0.7193507181	-0.745075465	 1.2327495181	-0.126474
N	 0.9470521069	-0.6920824441	-0.8948106771	-0.177291
H	 1.0709725361	 1.8215167215	 0.0730561073	 0.120974
H	-0.342776045	 1.8156280227	-0.989097931	 0.126694
H	-0.5568446365	 1.9717833809	 0.7665723274	 0.115467
H	-2.2879679658	-0.2070337992	-0.3907713765	 0.097184
H	-2.0863708615	-2.6666229413	 0.5480200738	 0.101612
H	 0.3683320216	-2.967916604	 1.5737719543	 0.071947
H	 1.3439882788	-2.8592799776	-1.0447655455	 0.096479
H	 2.9411742315	-0.7358926303	 0.2118513833	 0.095292
H	 0.7530436075	-0.3778453577	 2.2584262709	 0.068437
213.7905	269.4974	274.3068	380.4127	429.9101	534.9875	619.023	684.7408	702.6701	730.4453	800.8072	813.3573	835.0339	845.3303	856.1888	899.6416	903.153	938.1258	946.4638	959.9388	990.7968	1010.9097	1035.9858	1071.8605	1108.878	1129.5652	1149.8784	1186.1039	1201.1374	1224.2034	1250.7324	1279.1486	1291.171	1331.5961	1375.3608	1413.4752	1486.5602	1489.7088	1634.4747	3033.9988	3104.0236	3107.4914	3114.7406	3124.8624	3190.1672	3196.4472	3213.5882	3215.1104
CC12C=CC3C4C(C13)N24	C[C@]12C=C[C@H]3[C@@H]4[C@H]([C@@H]13)N24	
InChI=1S/C8H9N/c1-8-3-2-4-5(8)7-6(4)9(7)8/h2-7H,1H3	InChI=1S/C8H9N/c1-8-3-2-4-5(8)7-6(4)9(7)8/h2-7H,1H3/t4-,5+,6-,7+,8+,9?/m1/s1
