21
gdb 38873	2.6465	2.07993	1.88874	1.4409	79.09	-0.2342	0.0877	0.3219	879.3118	0.189163	-387.100445	-387.094548	-387.093604	-387.130194	27.14	
C	-0.0132896939	 1.5976910247	 0.0162074025	-0.209066
C	 1.5280651809	 1.711995479	 0.0138043341	-0.029593
C	 1.7817482891	 1.0381190513	 1.3791510279	-0.223818
C	 1.1350749132	-0.3251495059	 1.0501486013	 0.114118
O	 2.1491217923	-1.1508069547	 0.460581502	-0.274745
C	 2.9026942561	-0.3989419069	-0.5003817191	-0.089023
C	 1.9689942828	 0.6614228228	-1.1026254284	-0.045244
C	 0.6634015977	-0.1344089404	-1.3880211783	-0.194835
C	 0.0046951403	 0.0504599352	-0.0103097936	-0.045658
H	-0.4621233274	 2.0414642752	 0.9087922017	 0.087772
H	-0.5082628551	 2.0182975382	-0.8631864154	 0.088884
H	 1.9544345567	 2.7080893315	-0.1125274857	 0.056821
H	 2.8250150914	 0.9178459142	 1.6767655655	 0.101281
H	 1.2659191989	 1.5745097059	 2.1806071863	 0.090496
H	 0.7543604764	-0.8830515206	 1.9063313771	 0.074098
H	 3.799708006	 0.0407068235	-0.0411395265	 0.087123
H	 3.2352738838	-1.1097622388	-1.2647363663	 0.100558
H	 2.4151638038	 1.1373454121	-1.9779010359	 0.06486
H	 0.0486601286	 0.3063651812	-2.1774728883	 0.086607
H	 0.8682109349	-1.1740408162	-1.6495058261	 0.102471
H	-0.9459890367	-0.4635434911	 0.1379842452	 0.056892
306.1481	366.5399	428.5612	483.4513	526.3767	542.6264	606.573	635.0108	752.351	775.8545	836.169	855.9898	860.401	897.4595	908.0307	922.2432	934.5435	959.1288	960.3951	992.3571	1001.6939	1031.0697	1048.4421	1078.5484	1102.781	1122.115	1131.3506	1180.0145	1182.5202	1206.837	1226.3005	1237.7728	1276.0112	1288.4164	1301.1999	1314.3355	1320.4504	1323.0154	1337.404	1355.1619	1394.3972	1490.8584	1504.2897	1525.6982	1540.9999	2995.1837	3053.6824	3058.9112	3059.4044	3063.0874	3088.0644	3097.2149	3101.135	3103.4709	3111.856	3113.4074	3115.7909
C1C2CC3OCC2CC13	C1[C@H]2C[C@@H]3OC[C@H]2C[C@H]13	
InChI=1S/C8H12O/c1-5-3-8-6(1)2-7(5)4-9-8/h5-8H,1-4H2	InChI=1S/C8H12O/c1-5-3-8-6(1)2-7(5)4-9-8/h5-8H,1-4H2/t5-,6-,7+,8-/m0/s1
