20
gdb 19971	3.5996	1.49226	1.16565	1.7964	74.77	-0.2394	0.0876	0.327	1076.4107	0.177132	-348.974273	-348.965967	-348.965023	-349.007798	30.712	
C	-0.4510033	 1.4054109014	 0.0699632105	-0.397642
C	 0.1144684985	 0.0006728618	 0.0075291709	 0.147362
O	 1.316678137	-0.0775187375	-0.7969034291	-0.292858
C	 2.0398298596	-0.7503423728	 0.2510240347	-0.086217
C	 0.8568725029	-0.6093309868	 1.2372079702	-0.067623
C	 1.0884448266	 0.2538389524	 2.4478398213	 0.03234
C	 0.1153847483	 0.2339908008	 3.6016716231	-0.27367
C	 1.4831940133	-0.3807590963	 3.7604995826	-0.28097
H	 0.281076091	 2.1174313214	 0.4598059561	 0.117931
H	-0.7384623281	 1.7314056224	-0.9347533062	 0.123931
H	-1.3415242387	 1.4347634896	 0.7066147552	 0.116893
H	-0.6502308222	-0.6827262322	-0.3906720011	 0.067427
H	 2.3033093427	-1.779934153	-0.0245720175	 0.093631
H	 2.9564210449	-0.2139597172	 0.5283415229	 0.097399
H	 0.432524897	-1.5671509763	 1.5525987728	 0.067369
H	 1.5526431852	 1.213852482	 2.2382918355	 0.08612
H	-0.0949574071	 1.165487663	 4.1151848144	 0.113284
H	-0.7355781685	-0.4362505944	 3.5349048062	 0.110803
H	 1.5509184928	-1.4631541068	 3.799819356	 0.111585
H	 2.2092972749	 0.1310250485	 4.3821415116	 0.112905
42.8591	81.8299	160.5311	223.5563	248.5207	298.3757	369.0748	418.9192	524.333	747.2917	755.1586	809.1187	831.0369	877.9195	891.7809	927.6277	928.2607	1002.2414	1024.597	1037.6007	1060.1343	1068.1627	1080.8804	1097.575	1142.8949	1154.9256	1162.2435	1198.4626	1221.0925	1236.1027	1250.8215	1288.5641	1316.4872	1361.2058	1386.4699	1408.1986	1437.8027	1469.973	1481.0256	1499.0492	1506.2382	1526.9365	2983.581	3004.5305	3039.1378	3042.4667	3061.951	3107.3407	3121.5855	3129.0801	3133.6845	3143.0558	3207.3589	3222.4516
CC1OCC1C1CC1	C[C@H]1OC[C@H]1C1CC1	
InChI=1S/C7H12O/c1-5-7(4-8-5)6-2-3-6/h5-7H,2-4H2,1H3	InChI=1S/C7H12O/c1-5-7(4-8-5)6-2-3-6/h5-7H,2-4H2,1H3/t5-,7-/m1/s1
