15
gdb 20600	3.38855	2.01185	1.27899	3.6916	64.93	-0.2111	0.0156	0.2267	916.2659	0.119526	-395.978521	-395.970404	-395.96946	-396.010812	29.564	
C	 0.0434610418	 1.4894178437	-0.0349502997	-0.500812
C	-0.0642056197	 0.0068320545	-0.0393183016	 0.403801
C	-1.1192699826	-0.8488541444	 0.0428324742	-0.031999
N	-2.5124157299	-0.634874314	 0.1063980147	-0.625997
C	-0.5105273687	-2.1418312762	-0.0346230422	 0.400671
N	-1.1964291064	-3.3407767155	 0.0684775342	-0.595157
N	 0.7943195616	-2.0688635259	-0.1523464075	-0.244153
O	 1.0830218735	-0.6951527581	-0.1644948208	-0.233499
H	 0.83850616	 1.8158277937	 0.6425693342	 0.151185
H	 0.2741721251	 1.8860725488	-1.0303835312	 0.146869
H	-0.8964949092	 1.9380214086	 0.2993475578	 0.122917
H	-2.7556197473	 0.3416870889	-0.0065182356	 0.24187
H	-2.9054288925	-0.9605169445	 0.9845492977	 0.249574
H	-2.0954970972	-3.3098220795	-0.3959630645	 0.256463
H	-0.6470440484	-4.1359756102	-0.2301033096	 0.258266
104.9231	143.6416	158.85	237.4196	264.3266	312.0792	360.9925	398.8739	513.6084	585.4998	602.9383	687.4647	720.3114	763.6338	795.465	825.4399	933.5196	1000.7726	1038.8398	1059.8608	1147.8526	1239.1143	1253.136	1336.6076	1414.2522	1471.8486	1488.8917	1519.6286	1576.0594	1637.8986	1645.2299	1716.5584	3032.5261	3091.3074	3115.5724	3497.2567	3537.5988	3596.207	3639.6323
CC1=C(N)C(N)=NO1	Cc1c(N)c(N)no1	
InChI=1S/C4H7N3O/c1-2-3(5)4(6)7-8-2/h5H2,1H3,(H2,6,7)	InChI=1S/C4H7N3O/c1-2-3(5)4(6)7-8-2/h5H2,1H3,(H2,6,7)
