17
gdb 117440	5.08321	0.60503	0.54617	3.3542	71.88	-0.2699	-0.0024	0.2675	1906.509	0.133936	-455.145082	-455.13503	-455.134086	-455.181663	34.033	
O	-0.3655209649	 1.4559682024	 0.0134499008	-0.422699
C	-0.0356965043	 0.0748799092	 0.0033236596	-0.074499
C	-1.3557574911	-0.6838114499	 0.0107788391	-0.266142
C	-1.1922664364	-2.1773702283	 0.0012201098	 0.432154
N	-0.0616123947	-2.7453399751	-0.0126922825	-0.52515
O	-2.4328224747	-2.7653199376	 0.0099319954	-0.23504
C	-2.4755348357	-4.1805493612	 0.0026269909	-0.236654
C	-3.877527975	-4.5987111571	 0.0140793067	 0.278736
N	-4.9710391355	-4.9675558332	 0.0229316892	-0.281354
H	 0.4544396674	 1.9577206879	 0.0099685243	 0.288879
H	 0.5460667202	-0.2009304778	-0.887012751	 0.104793
H	 0.5613988674	-0.2102303072	 0.880490324	 0.104741
H	-1.9437406632	-0.3991398263	 0.891025556	 0.140566
H	-1.958924372	-0.3896812945	-0.856000772	 0.14059
H	-0.0963978174	-3.7623356352	-0.0178725751	 0.226035
H	-1.9874253804	-4.5886981135	-0.8931215395	 0.162522
H	-1.9700169698	-4.5984076227	 0.8841371645	 0.162522
43.6181	75.4386	90.1532	92.9405	150.1726	196.0006	263.047	303.0223	349.615	387.9104	413.0565	544.1796	553.4199	683.8567	804.8079	851.9203	921.1771	972.3222	999.7524	1040.8463	1046.61	1081.488	1099.006	1126.6201	1213.5352	1227.7374	1256.1853	1272.9249	1301.2701	1366.216	1411.5931	1464.5407	1471.2713	1496.757	1523.2904	1739.8431	2378.6486	3001.8734	3009.253	3032.3266	3046.3344	3048.3216	3084.0311	3517.2154	3836.8494
OCCC(=N)OCC#N	OCC[C]([NH])OCC#N	
InChI=1S/C5H8N2O2/c6-2-4-9-5(7)1-3-8/h7-8H,1,3-4H2	InChI=1S/C5H8N2O2/c6-2-4-9-5(7)1-3-8/h7-8H,1,3-4H2
