18
gdb 8506	3.66889	2.14054	1.65001	1.5488	72.09	-0.2233	0.0959	0.3192	848.1608	0.152264	-347.731455	-347.724006	-347.723061	-347.7625	29.382	
C	 0.0557620007	 1.4071266053	-0.1413474498	-0.525508
C	 0.0014471123	-0.0802364455	-0.0036326012	 0.471393
O	 0.5380882315	-0.9106571646	-1.0828430945	-0.390893
C	 0.0601547177	-1.8747711605	-0.090744692	 0.471406
C	 0.2108183614	-3.335133594	-0.3714781061	-0.525507
C	 0.5199628504	-1.0189850442	 1.1368408711	-0.172232
C	-0.8727769522	-1.0966238809	 1.7974983408	-0.286263
C	-1.2041587757	-1.0343316811	 0.2913397896	-0.172246
H	 1.0917590789	 1.745321737	-0.2415643643	 0.133607
H	-0.4998053197	 1.7303979433	-1.0270994092	 0.133669
H	-0.382970226	 1.888286727	 0.7384142416	 0.127064
H	 1.2661217288	-3.5930536067	-0.5038657041	 0.133644
H	-0.1897632373	-3.9266287949	 0.4577687156	 0.127064
H	-0.3279646116	-3.6075747602	-1.2842765442	 0.133627
H	 1.5137364859	-1.0083078406	 1.5871821879	 0.074324
H	-1.118398485	-2.0280817918	 2.3152352603	 0.096264
H	-1.1769516753	-0.2376589546	 2.4021880384	 0.096263
H	-2.1687058048	-1.0411530631	-0.2186682599	 0.074327
194.3225	198.2286	215.479	229.0261	254.5287	350.1121	485.4422	540.052	593.1186	658.4874	714.9843	759.966	761.6787	847.7371	870.1105	888.9564	928.9841	985.5949	1002.8591	1074.9872	1076.5418	1099.3981	1119.3623	1121.2859	1138.3719	1171.8399	1209.3258	1240.3605	1255.9022	1276.8186	1389.2611	1408.1197	1445.6988	1473.1411	1474.6708	1490.2072	1492.9962	1508.6692	3037.7157	3037.8311	3048.7203	3102.6264	3104.8943	3110.1493	3110.2828	3110.3308	3113.4574	3113.6765
CC12OC3(C)C1CC23	C[C@@]12O[C@@]3(C)[C@@H]1C[C@@H]23	
InChI=1S/C7H10O/c1-6-4-3-5(6)7(4,2)8-6/h4-5H,3H2,1-2H3	InChI=1S/C7H10O/c1-6-4-3-5(6)7(4,2)8-6/h4-5H,3H2,1-2H3/t4-,5+,6-,7+
