15
gdb 11371	4.48156	1.44425	1.13465	2.7625	64.47	-0.2301	-0.0072	0.2229	1008.0806	0.120257	-396.000749	-395.993188	-395.992244	-396.032974	27.646	
O	 0.5277934251	 0.1166146525	 0.8837990218	-0.415273
C	-0.1889501541	 0.3735922049	-0.3167489929	-0.170327
C	-1.5482363753	-0.2683834156	-0.3061257095	 0.326539
N	-2.6104824847	 0.2222049346	-0.8203460944	-0.300542
C	-3.6645378083	-0.7771874915	-0.5935359264	-0.239366
C	-3.0249548829	-1.9160938838	 0.2007415346	 0.377387
N	-3.6132676338	-2.9492023496	 0.6450240574	-0.549274
N	-1.6897951928	-1.5185563142	 0.2881857456	-0.356373
H	 0.1179978715	 0.6292641511	 1.5886105457	 0.295416
H	-0.3064370773	 1.4415794012	-0.5310606723	 0.133544
H	 0.4132262691	-0.0657041224	-1.1201908184	 0.139707
H	-4.5075096312	-0.3381422544	-0.0501881395	 0.144052
H	-4.0588989081	-1.1430962889	-1.5481965466	 0.145415
H	-2.9710919075	-3.570852094	 1.1391232424	 0.207506
H	-0.9705149997	-1.9565416698	 0.8399254426	 0.26159
78.9706	109.7438	182.3579	261.5818	342.7581	402.2338	475.8933	484.247	517.6399	616.6927	669.432	737.721	855.0687	888.0126	967.0933	984.1798	986.3543	1025.9197	1070.8858	1094.3067	1178.964	1191.6716	1230.5781	1283.9033	1319.9033	1370.5834	1405.9911	1449.8017	1454.8903	1485.6573	1710.9389	1763.7049	3040.7044	3050.8253	3084.0964	3086.1019	3456.5618	3657.8053	3813.0319
OCC1=NCC(=N)N1	OCC1=NC[C]([NH])N1	
InChI=1S/C4H7N3O/c5-3-1-6-4(2-8)7-3/h8H,1-2H2,(H2,5,6,7)	InChI=1S/C4H7N3O/c5-3-1-6-4(2-8)7-3/h8H,1-2H2,(H2,5,6,7)
