20
gdb 56818	2.37537	1.25068	0.94752	1.3323	81.88	-0.2202	0.0278	0.248	1299.2484	0.167404	-403.070267	-403.059712	-403.058768	-403.105989	38.192	
C	-1.2198088976	 1.5677963234	-0.1810526941	-0.420247
C	-0.9840690394	 0.071336499	-0.1701169978	 0.004047
C	-1.6275931551	-0.8776660828	-1.1342217648	-0.032875
C	-2.559878017	-0.4214195934	-2.2496952221	-0.086724
O	-2.4084525885	-1.2361398625	-3.4125731178	-0.419756
C	-3.9460863449	-0.4050493561	-1.7700992361	 0.303767
C	-5.0767039857	-0.4387585549	-1.3623924546	-0.435054
N	-0.1889938034	-0.6448582978	-1.1703190021	-0.109851
C	 0.4271918283	 0.0471498493	-2.293984605	-0.313882
H	-0.3511893039	 2.0922522267	 0.2317791584	 0.125192
H	-1.4123266816	 1.9788336928	-1.1734509964	 0.122621
H	-2.0824434256	 1.8093622655	 0.4482914362	 0.132443
H	-0.8191237464	-0.3126469309	 0.8369914025	 0.090149
H	-1.9022240369	-1.8690416189	-0.7678442502	 0.085897
H	-2.2924574265	 0.5820020799	-2.5895930898	 0.114555
H	-2.702332694	-2.1252360941	-3.1826896928	 0.284383
H	-6.0794966831	-0.4502039311	-1.0124447456	 0.199781
H	-0.0866088143	 0.9553636663	-2.6393737674	 0.099313
H	 1.4459344552	 0.3297846866	-2.0105820943	 0.117891
H	 0.4813855601	-0.6443130971	-3.1389259662	 0.13835
43.9239	98.3786	141.6484	154.7015	185.3452	194.4778	239.9515	269.2471	299.3714	325.059	454.2404	491.3722	503.0858	551.2134	599.2062	633.4054	667.86	742.5509	779.6686	912.3495	951.463	987.5024	1042.3058	1055.3413	1085.8199	1135.7505	1149.4277	1169.3718	1175.6972	1195.4031	1251.0809	1286.2454	1350.8089	1391.8665	1408.2619	1420.4454	1432.4523	1460.3066	1483.6046	1497.7576	1505.0936	1510.0967	2230.528	2998.9603	3041.1407	3071.2685	3072.0957	3089.8011	3093.5297	3098.1765	3115.9391	3135.1606	3502.8352	3799.3894
CC1C(C(O)C#C)N1C	C[C@H]1[C@@H]([C@@H](O)C#C)N1C	
InChI=1S/C7H11NO/c1-4-6(9)7-5(2)8(7)3/h1,5-7,9H,2-3H3	InChI=1S/C7H11NO/c1-4-6(9)7-5(2)8(7)3/h1,5-7,9H,2-3H3/t5-,6-,7-,8?/m0/s1
