17
gdb 74342	3.22294	1.12156	0.90245	2.6595	82.37	-0.2414	-0.0457	0.1957	1286.9891	0.134331	-384.701265	-384.692336	-384.691392	-384.735388	32.718	
C	 0.0156423916	 1.5454628386	-0.0723121575	-0.49191
C	-0.0068149664	 0.0537392536	-0.0065279327	 0.204017
C	-1.0516739405	-0.7816335003	 0.0194841449	-0.156674
C	-0.663980987	-2.2537261729	 0.0571044594	-0.209532
C	 0.8838986173	-2.2141754039	 0.1664022964	-0.348698
C	 1.255824088	-0.73408758	 0.0241375593	 0.330122
O	 2.3758238995	-0.2844248448	-0.0492799947	-0.323561
C	-1.3309067336	-2.9811066132	 1.1334616158	 0.321195
C	-1.8834230862	-3.5688266273	 2.0244812909	-0.470118
H	 0.5941820042	 1.8795046909	-0.9401135817	 0.146179
H	-0.9904634503	 1.9667905902	-0.1332724826	 0.123195
H	 0.5178075013	 1.9604563495	 0.8084216742	 0.145599
H	-2.0959344321	-0.4882689107	 0.0089653056	 0.120583
H	-0.9574640099	-2.7183834383	-0.8951464595	 0.123163
H	 1.2245229069	-2.5763000021	 1.1400684418	 0.148997
H	 1.3859915318	-2.8126628693	-0.5972298281	 0.1362
H	-2.3690319746	-4.09345356	 2.8097600584	 0.201242
56.8423	100.8696	118.4322	183.8853	253.4606	272.7485	335.8649	434.1112	469.4422	560.6947	588.4476	606.0588	627.701	641.3569	710.4529	755.9983	844.2822	885.9735	965.8429	995.0783	1039.1115	1054.9358	1069.6322	1084.9831	1169.8372	1211.7427	1250.6463	1278.636	1324.0927	1344.366	1413.2754	1453.4881	1473.1159	1482.8806	1702.0395	1812.5458	2236.9303	3000.1863	3039.0427	3075.4973	3093.8374	3121.2333	3125.9682	3195.1369	3503.6296
CC1=CC(CC1=O)C#C	CC1=C[C@@H](CC1=O)C#C	
InChI=1S/C8H8O/c1-3-7-4-6(2)8(9)5-7/h1,4,7H,5H2,2H3	InChI=1S/C8H8O/c1-3-7-4-6(2)8(9)5-7/h1,4,7H,5H2,2H3/t7-/m0/s1
