12
gdb 133388	3.34072	1.38857	0.981	0.8839	61.14	-0.248	-0.057	0.1909	1059.7846	0.076597	-513.912522	-513.905045	-513.904101	-513.944602	27.716	
N	 0.034143526	 1.3123249693	 0.0700887555	-0.53839
C	-0.0409291507	-0.0302602951	 0.0228553377	 0.328928
N	-1.2055319635	-0.6136945786	 0.0108109995	-0.204104
O	-1.1731538911	-2.0330907689	-0.0059544502	-0.231514
C	-0.0299558194	-2.675360627	-0.0158059599	 0.450408
F	-0.2389895136	-3.9695846738	-0.0274314407	-0.027749
C	 1.2106023888	-2.1355868412	-0.017456426	-0.477857
C	 1.3057332222	-0.7094661757	-0.0054279964	 0.381852
O	 2.3209295452	-0.0275805803	-0.0207529037	-0.383873
H	 0.9607891869	 1.6981437356	-0.0313334966	 0.284091
H	-0.7862328209	 1.8839691063	-0.0256481842	 0.274808
H	 2.0884591001	-2.7648873106	-0.032432645	 0.143399
104.2796	177.6528	205.303	325.4828	327.9047	376.7934	456.8698	465.7542	519.0873	580.534	606.6366	684.7091	695.4423	789.5184	806.6029	847.0947	921.2774	1029.244	1126.05	1218.8729	1278.051	1410.893	1459.0927	1574.9119	1643.9397	1664.8693	1757.7872	3243.4762	3587.0539	3737.1256
NC1=NOC(F)=CC1=O	Nc1noc(F)cc1=O	
InChI=1S/C4H3FN2O2/c5-3-1-2(8)4(6)7-9-3/h1H,(H2,6,7)	InChI=1S/C4H3FN2O2/c5-3-1-2(8)4(6)7-9-3/h1H,(H2,6,7)
