21
gdb 39395	2.29753	2.16513	1.42835	1.4494	82.04	-0.232	0.0835	0.3155	983.8743	0.185489	-387.043361	-387.036192	-387.035248	-387.074371	30.471	
C	 0.0287402832	 1.5220653092	 0.0110592357	-0.450806
C	 1.2723365478	 0.6661251998	-0.0732973112	 0.094549
O	 2.1392562451	 0.4720379494	 0.9951829114	-0.26365
C	 2.5338985752	-0.9057717214	 1.1594914752	-0.065431
C	 1.8213660266	-1.9831523655	 0.300890151	-0.234342
C	 0.2628519707	-2.0014785727	 0.2744488735	 0.001312
C	-0.3124779351	-0.8910231243	 1.1990795069	-0.268324
C	-0.0775239031	 0.0226891721	-0.0028059722	 0.329971
C	-0.3106771905	-1.1715450839	-0.9293756026	-0.305797
H	-0.2058060046	 1.9931292675	 0.9605752153	 0.121247
H	-0.2198003962	 2.1176721925	-0.8618248803	 0.113543
H	 1.7553839395	 0.6653357737	-1.0531645137	 0.074845
H	 3.6100721983	-0.9759300894	 0.9493939694	 0.098017
H	 2.4007781115	-1.136957837	 2.2235127467	 0.1056
H	 2.1982310765	-1.9341320317	-0.72727249	 0.106023
H	 2.1871799875	-2.9362441033	 0.7015551718	 0.101274
H	-0.1245208766	-3.0167169253	 0.3934944514	 0.059964
H	-1.3809357518	-1.0362244875	 1.3888096821	 0.090701
H	 0.1945953636	-0.6625625776	 2.1369887408	 0.107918
H	 0.233319386	-1.1975937433	-1.8785893528	 0.089957
H	-1.3672076835	-1.4028435913	-1.1033427985	 0.093432
174.1911	221.4137	303.3477	357.7382	366.7679	387.5483	448.947	519.0417	590.6812	644.6896	745.6444	796.3341	819.6769	841.4998	860.2249	875.7229	907.9023	935.4104	964.4234	1009.909	1033.6664	1054.7581	1058.0858	1070.7754	1099.3296	1111.2304	1124.2588	1152.2789	1169.1814	1195.5338	1219.7775	1241.4201	1249.4646	1275.681	1290.8444	1338.5441	1355.8846	1372.5714	1400.9599	1432.3164	1479.1513	1483.0994	1490.6578	1509.2341	1523.6323	3005.7718	3029.0926	3034.4072	3039.7116	3051.4456	3061.6248	3068.215	3075.0719	3090.8783	3123.9523	3125.0831	3211.6269
C1C2OCCC3CC12C3	C1[C@H]2OCC[C@H]3C[C@@]12C3	
InChI=1S/C8H12O/c1-2-9-7-5-8(7)3-6(1)4-8/h6-7H,1-5H2	InChI=1S/C8H12O/c1-2-9-7-5-8(7)3-6(1)4-8/h6-7H,1-5H2/t6-,7-,8+/m1/s1
