21
gdb 59087	1.8043	1.39939	1.05773	3.0222	80.33	-0.2384	-0.0169	0.2215	1279.9133	0.180217	-424.223042	-424.212819	-424.211874	-424.258863	37.357	
C	-0.0511618088	 1.2889073517	 0.2403091787	-0.416158
C	 0.0684797852	-0.2363841739	 0.2354775819	 0.101324
O	-1.1840242691	-0.8444277133	 0.5432277358	-0.425132
C	 0.6922486909	-0.7345133589	-1.0676978711	-0.032945
C	 0.884280126	-2.1690112627	-1.4537073734	-0.054617
C	 0.4494105132	-3.3256961512	-0.5742758727	-0.428768
C	-0.1051367484	-1.3161387217	-2.2475717881	-0.131383
C	-1.5688517888	-1.5697439454	-2.2124499514	 0.125249
O	-2.3376515321	-1.0828807954	-3.0115645534	-0.283301
H	 0.9280593103	 1.7653534999	 0.1348694274	 0.123775
H	-0.6783849008	 1.6286053818	-0.593072293	 0.126735
H	-0.5004960418	 1.6279038368	 1.1778631193	 0.126561
H	 0.7294489801	-0.5393906182	 1.0584169735	 0.097935
H	-1.8758753007	-0.3437214259	 0.0966475656	 0.292459
H	 1.4873894107	-0.0702755971	-1.3995702372	 0.095019
H	 1.8047585988	-2.3698431968	-1.997116664	 0.093045
H	-0.4161303152	-3.0771789675	 0.0404660283	 0.155713
H	 0.211239393	-4.2091343074	-1.1760814124	 0.119751
H	 1.2661347916	-3.6003783975	 0.1023056291	 0.118359
H	 0.2075635408	-0.9567210992	-3.2232404264	 0.105611
H	-1.9317485048	-2.262471798	-1.4300513262	 0.09077
43.028	46.5361	143.99	202.542	231.21	245.3235	259.3553	297.3414	323.1342	368.6917	402.244	416.3139	506.5611	565.5659	652.0624	731.6271	777.3485	880.0364	910.0342	941.2062	979.6231	1004.0776	1045.0829	1056.1571	1066.3871	1092.4996	1116.7789	1152.4478	1173.8417	1189.6622	1254.6462	1307.2729	1337.3553	1349.6608	1383.9737	1405.6199	1410.9333	1420.3754	1440.2721	1452.8946	1494.2327	1496.9885	1503.1439	1517.4214	1791.9179	2950.3069	3020.7772	3030.4408	3037.7121	3090.6353	3101.3132	3118.3147	3122.2435	3131.5384	3151.538	3160.7979	3802.8733
CC(O)C1C(C)C1C=O	C[C@@H](O)[C@H]1[C@@H](C)[C@H]1C=O	
InChI=1S/C7H12O2/c1-4-6(3-8)7(4)5(2)9/h3-7,9H,1-2H3	InChI=1S/C7H12O2/c1-4-6(3-8)7(4)5(2)9/h3-7,9H,1-2H3/t4-,5+,6+,7+/m0/s1
