19
gdb 67740	3.25427	1.54101	1.35537	1.1292	79.55	-0.2238	0.0167	0.2405	1018.313	0.158878	-385.862531	-385.854665	-385.85372	-385.894118	32.267	
C	-0.0389465149	 1.4772032944	 0.0444707522	-0.495851
C	-0.0055756942	-0.0301666179	-0.0419478894	 0.319012
C	 0.9708818965	-0.7192815704	-0.9406623338	-0.143329
C	 0.5544543231	-1.9599043778	-1.2080561709	-0.182864
C	-0.6878609612	-2.2388494335	-0.3865339916	 0.364948
O	-1.6014412564	-3.1927341508	-0.845235559	-0.498334
C	-0.2207430585	-2.3093784318	 1.1275566562	-0.293174
C	-0.4812012711	-0.8108176947	 1.2197279136	-0.107246
C	-1.2803220361	-0.8327198901	-0.0628734631	-0.145738
H	 0.8932350103	 1.8730514102	 0.4634939224	 0.118592
H	-0.1779737543	 1.9263137578	-0.9451104276	 0.121301
H	-0.8596340372	 1.8188896432	 0.6833274686	 0.117143
H	 1.8977330912	-0.2629288066	-1.2684933778	 0.094756
H	 1.0901288827	-2.7245690932	-1.7597253604	 0.089763
H	-1.1397815249	-4.0317634659	-0.9475744177	 0.277579
H	-0.9759486232	-2.8535748536	 1.7013536601	 0.106807
H	 0.7801904508	-2.7002778539	 1.3408491039	 0.083352
H	-0.6776452181	-0.2599326973	 2.1325697499	 0.084044
H	-2.2696634346	-0.4653589881	-0.3082567257	 0.089241
176.6189	199.9596	215.3764	283.3428	312.3116	349.3025	396.043	432.0127	557.4496	565.0651	628.1476	716.422	729.2382	743.9587	818.9513	842.3147	865.4773	908.8115	919.7289	933.2198	967.7278	987.8776	1011.1526	1033.7045	1090.6701	1093.688	1098.5004	1137.6826	1159.3833	1228.9583	1235.2337	1241.8713	1308.2817	1340.0777	1370.446	1393.733	1418.7454	1480.8004	1490.4895	1502.0721	1647.4506	3025.8514	3034.1001	3086.4893	3099.0725	3103.6428	3169.9379	3182.8352	3187.1644	3208.833	3809.1152
CC12C=CC3(O)CC1C23	C[C@@]12C=C[C@@]3(O)C[C@@H]1[C@@H]23	
InChI=1S/C8H10O/c1-7-2-3-8(9)4-5(7)6(7)8/h2-3,5-6,9H,4H2,1H3	InChI=1S/C8H10O/c1-7-2-3-8(9)4-5(7)6(7)8/h2-3,5-6,9H,4H2,1H3/t5-,6+,7-,8-/m1/s1
