19
gdb 15364	5.54991	0.89079	0.8329	3.0688	73.26	-0.2383	-0.022	0.2162	1400.2157	0.163192	-365.039191	-365.030046	-365.029101	-365.074022	31.951	
C	 0.0874306634	-2.8624535707	-0.3582655166	-0.382653
C	 0.8620457715	-1.5395800432	-0.3992120378	-0.199103
C	 1.2873251961	-1.0990736508	 0.9875340542	 0.033843
C	 2.6199029391	-1.469673377	 1.5466049594	-0.257596
N	 2.3046299003	-0.0763818824	 1.2339999727	-0.105836
C	 2.9981987477	 0.5513917641	 0.1232508084	-0.231124
C	 4.1488627101	 1.3986677407	 0.6477788028	 0.158311
O	 5.1357296988	 1.663073111	 0.012948829	-0.240293
H	-0.8039184777	-2.7787620364	 0.2728015372	 0.120177
H	-0.2397998081	-3.1580177335	-1.3592952395	 0.117513
H	 0.7066458929	-3.6689915441	 0.0475140189	 0.122266
H	 1.7357538818	-1.6473969329	-1.0502303204	 0.102072
H	 0.231098513	-0.7615961043	-0.849161013	 0.104212
H	 0.4563402337	-1.0281291661	 1.6902731067	 0.091387
H	 2.7457555899	-1.7064958351	 2.5996693736	 0.118461
H	 3.3032887325	-1.9943581383	 0.878750244	 0.111574
H	 3.3954061611	-0.1288492984	-0.644488796	 0.115043
H	 2.3052516056	 1.2420764332	-0.3803074727	 0.132409
H	 3.9890882782	 1.7730153441	 1.6831624792	 0.089337
53.6797	76.2229	94.6469	116.5105	214.8236	250.4594	296.684	335.7499	442.6308	505.196	560.8584	720.4284	767.8596	799.9562	855.1791	915.7011	961.205	1007.3382	1038.8296	1058.0937	1070.1057	1113.5093	1121.8216	1154.2341	1174.6369	1196.8446	1252.8813	1290.521	1330.9377	1341.8808	1348.4307	1402.0308	1411.2505	1431.2267	1454.9959	1486.6992	1498.5647	1507.9265	1513.017	1839.0552	2896.0883	2987.3739	3022.063	3032.0831	3035.4006	3069.5676	3087.0084	3096.222	3107.1391	3110.7593	3176.7055
CCC1CN1CC=O	CC[C@H]1CN1CC=O	
InChI=1S/C6H11NO/c1-2-6-5-7(6)3-4-8/h4,6H,2-3,5H2,1H3	InChI=1S/C6H11NO/c1-2-6-5-7(6)3-4-8/h4,6H,2-3,5H2,1H3/t6-,7?/m0/s1
