21
gdb 80008	2.79153	1.75067	1.55871	0.221	84.89	-0.2305	0.0174	0.2479	982.3309	0.185865	-349.940666	-349.933621	-349.932676	-349.971421	30.595	
C	-0.0499116367	 1.5909908496	 0.0118963618	-0.431891
C	 0.0453320637	 0.0674793463	 0.0125322283	 0.041933
C	 1.0343245786	-0.574068842	-1.0015264602	-0.090784
C	 2.3668074378	-0.1503631783	-0.3709935621	-0.072898
C	 2.1999506225	-0.1602319946	 0.9556906046	-0.072897
C	 0.7536216592	-0.5906832114	 1.2303780974	-0.090783
C	 0.7369312009	-2.0970986819	 0.8440653457	-0.011685
C	-0.3377556034	-2.6658880111	-0.0559948877	-0.333687
C	 0.9252742073	-2.0859498738	-0.653498329	-0.011684
H	 0.9243668282	 2.0677684214	 0.1379314232	 0.121194
H	-0.4833702921	 1.9465854944	-0.9295278643	 0.10813
H	-0.703550647	 1.9335517638	 0.8218484708	 0.10813
H	-0.9685996872	-0.3159430287	-0.1178419572	 0.065707
H	 0.8951122401	-0.3206441648	-2.0539586108	 0.054031
H	 3.2806817627	 0.0330367841	-0.9217134046	 0.089832
H	 2.9486653555	 0.0133968101	 1.7181690771	 0.089832
H	 0.3576872478	-0.3524546338	 2.2191655693	 0.054031
H	 1.2973112033	-2.7771013806	 1.4767217823	 0.081628
H	-0.4049356736	-3.7501401389	-0.0725169963	 0.105256
H	-1.3012519942	-2.1845977585	-0.1735859355	 0.114977
H	 1.6261031764	-2.7576420114	-1.137597483	 0.081628
208.0509	261.6308	271.9377	313.5727	351.5295	481.1275	500.9113	546.5664	657.1527	715.8092	749.3323	749.4626	824.3204	835.3629	861.7774	888.8384	896.8865	921.9318	933.1002	944.8596	977.5722	986.9619	1033.9369	1045.903	1071.385	1075.295	1092.3328	1117.4921	1121.2313	1134.9063	1200.7096	1203.3641	1238.1476	1241.3779	1272.5625	1280.7104	1313.8605	1349.2292	1359.4327	1403.4487	1407.5577	1493.7759	1505.2529	1506.7451	1631.8752	3032.2468	3081.1028	3087.7873	3095.4614	3098.5713	3126.5929	3129.4104	3158.2223	3167.8239	3197.1788	3208.4174	3223.2826
CC1C2C=CC1C1CC21	C[C@H]1[C@H]2C=C[C@@H]1[C@H]1C[C@@H]21	
InChI=1S/C9H12/c1-5-6-2-3-7(5)9-4-8(6)9/h2-3,5-9H,4H2,1H3	InChI=1S/C9H12/c1-5-6-2-3-7(5)9-4-8(6)9/h2-3,5-9H,4H2,1H3/t5-,6+,7-,8-,9+
