14
gdb 7239	4.85886	1.34168	1.05137	0.926	62.44	-0.2484	-0.0407	0.2077	1044.6072	0.108999	-412.093436	-412.085547	-412.084603	-412.125863	28.467	
N	-0.1184274668	 1.4900633672	 0.0851978005	-0.521933
C	-0.0215206902	 0.1522053574	 0.0080264516	 0.405018
O	 1.0172122064	-0.4918820712	-0.0336409792	-0.393892
C	-1.3773826863	-0.5477756895	-0.0264329598	 0.287703
N	-2.4505442877	 0.1337016854	 0.0177442891	-0.533013
N	-1.200180284	-1.9184991817	-0.1064219938	-0.317392
C	-2.176963838	-2.8810211805	-0.1573427929	 0.100549
N	-3.4226965498	-2.6069314702	-0.1359487077	-0.452795
H	 0.7128040802	 2.0541570909	 0.1145111748	 0.26789
H	-1.0414155421	 1.8967902631	 0.1130482728	 0.285361
H	-3.26861884	-0.478459702	-0.0139612392	 0.25895
H	-0.2225888099	-2.1852559863	-0.1260082394	 0.273849
H	-1.7533901447	-3.8897510538	-0.2172994862	 0.106894
H	-3.9768561471	-3.4581728089	-0.1823990407	 0.232812
89.1306	111.4333	195.0765	226.2646	301.06	336.0597	375.4199	486.8926	516.9572	570.3041	672.5969	693.1562	705.0558	814.1223	829.9621	899.8079	971.9285	1035.7602	1053.6553	1101.7455	1167.4207	1261.5837	1306.996	1407.4029	1422.9926	1556.2832	1588.8773	1695.5335	1743.4471	1794.5628	3060.285	3454.4309	3521.7375	3558.8898	3582.1039	3736.1123
NC(=O)C(=N)NC=N	NC(=O)C(=N)NC=N	
InChI=1S/C3H6N4O/c4-1-7-2(5)3(6)8/h1H,(H2,6,8)(H3,4,5,7)	InChI=1S/C3H6N4O/c4-1-7-2(5)3(6)8/h1H,(H2,6,8)(H3,4,5,7)
