19
gdb 93653	2.48869	1.47005	1.19284	1.2325	71.24	-0.2526	-0.0368	0.2158	1115.0688	0.156956	-460.188863	-460.179498	-460.178554	-460.222665	34.974	
C	 0.0106949536	 1.5595131327	 0.0117654064	-0.414771
C	 0.0202385729	 0.0240855028	 0.0095935444	 0.270661
C	-1.3943622581	-0.554443798	 0.0252235637	-0.42097
O	 0.7116000112	-0.4842578511	-1.1437319019	-0.297338
C	 2.0729480001	-0.7521339907	-0.8020392212	-0.135689
C	 1.9876059434	-1.3417660916	 0.6093517257	 0.0506
O	 3.1539228119	-1.2704472357	 1.3766027562	-0.438259
C	 0.8591053994	-0.4897073503	 1.1821465432	 0.321863
O	 0.748835153	-0.2132469417	 2.3505824045	-0.343342
H	 1.025086731	 1.9619904682	-0.0618392452	 0.124449
H	-0.5671808274	 1.9235746631	-0.8419808753	 0.127382
H	-0.4368069314	 1.9328936693	 0.9367371529	 0.137652
H	-1.9454524278	-0.2074148447	-0.8533580885	 0.131401
H	-1.3671883921	-1.6470702794	 0.0033414537	 0.124135
H	-1.9237558518	-0.2311435388	 0.9255848461	 0.135725
H	 2.4721747189	-1.4361120293	-1.5525656187	 0.122436
H	 2.68932713	 0.1593782382	-0.7864530742	 0.10676
H	 1.6120127752	-2.3779731995	 0.5311231082	 0.103029
H	 2.8746368882	-1.0015418335	 2.2645068698	 0.294275
66.9745	171.2299	189.7964	193.2337	222.423	259.7556	291.0056	329.351	371.2966	388.6815	443.8882	514.3571	560.1386	615.1293	700.0087	775.2304	839.3934	919.7645	939.5894	987.4385	1015.4109	1036.421	1065.4041	1081.1429	1168.0217	1177.556	1200.6232	1220.0727	1258.2619	1285.7346	1323.3493	1385.7594	1390.603	1406.9348	1412.3434	1473.9984	1480.0473	1493.9962	1503.9137	1519.5003	1845.1061	2946.2064	2998.3571	3043.6003	3046.7921	3117.6773	3119.8312	3121.8306	3126.7397	3131.5863	3720.0544
CC1(C)OCC(O)C1=O	CC1(C)OC[C@@H](O)C1=O	
InChI=1S/C6H10O3/c1-6(2)5(8)4(7)3-9-6/h4,7H,3H2,1-2H3	InChI=1S/C6H10O3/c1-6(2)5(8)4(7)3-9-6/h4,7H,3H2,1-2H3/t4-/m1/s1
