20
gdb 7159	5.91769	0.79164	0.73672	1.4539	77.47	-0.2595	0.0524	0.3118	1526.8985	0.174123	-348.971334	-348.961221	-348.960277	-349.006601	35.983	
C	-0.0760684823	 1.6207472184	 0.0347900831	-0.392932
C	-0.015068031	 0.088830852	-0.0199589042	 0.022029
C	 0.6759435837	-0.437368695	-1.2880441659	-0.163944
C	-0.0346059299	-0.0859916212	-2.590247879	-0.091236
O	 0.6484952397	-0.7554985918	-3.6408272336	-0.420662
C	 0.7053143196	-0.4827282898	 1.2281547854	-0.362122
C	 0.0327942207	-0.1824117785	 2.4862917007	 0.299371
C	-0.5421093303	 0.0665756767	 3.5126618802	-0.44174
H	 0.929065646	 2.0533242547	-0.0425605737	 0.111719
H	-0.6791671797	 2.0316192199	-0.7797092761	 0.113963
H	-0.5151211674	 1.9564858735	 0.9781998238	 0.130995
H	-1.0431290046	-0.2978487051	-0.0015938645	 0.083984
H	 1.7058181737	-0.0597019263	-1.337260994	 0.101699
H	 0.7481707178	-1.5309500725	-1.2412452645	 0.103722
H	-1.0890233775	-0.4050809397	-2.5338132789	 0.084176
H	-0.0315041828	 1.0023840248	-2.7515382235	 0.088827
H	 0.2348086772	-0.5088753633	-4.4730120931	 0.285329
H	 0.7983677874	-1.5710839805	 1.1224086077	 0.127557
H	 1.7319710735	-0.0921430267	 1.2597928544	 0.126913
H	-1.0399016338	 0.2811190203	 4.4255075358	 0.192352
60.4781	78.6108	113.2587	116.6181	204.8624	236.3163	265.3813	308.8819	350.9683	365.0083	390.4361	446.2031	575.671	612.9926	636.1334	793.1522	845.7093	892.5039	922.6724	973.7616	988.0875	1032.8283	1063.6003	1114.0475	1128.1905	1172.0451	1219.5855	1242.4189	1262.6189	1296.5136	1316.7726	1345.1844	1371.659	1379.8211	1415.9632	1461.1015	1468.0682	1489.4279	1497.8728	1507.1748	1529.1532	2235.3775	2959.7897	2998.8685	3008.0768	3014.3796	3022.9278	3031.2838	3047.9935	3066.4518	3098.814	3117.5017	3506.9724	3830.9557
CC(CCO)CC#C	C[C@@H](CCO)CC#C	
InChI=1S/C7H12O/c1-3-4-7(2)5-6-8/h1,7-8H,4-6H2,2H3	InChI=1S/C7H12O/c1-3-4-7(2)5-6-8/h1,7-8H,4-6H2,2H3/t7-/m1/s1
