16
gdb 84326	2.60353	1.54395	1.11333	3.6388	73.79	-0.2761	-0.0621	0.2141	1088.1427	0.124843	-437.943889	-437.935862	-437.934918	-437.977065	29.734	
C	-0.0154836812	 1.5345744545	 0.0453686936	-0.396018
C	 0.0208990321	-0.0140067496	-0.0020272071	-0.128721
C	 0.7205471153	-0.492662395	-1.2364892549	-0.060012
C	 1.9437342395	-1.0213000436	-1.2015096865	-0.201113
C	 2.6889643276	-1.1643061004	 0.0578775818	 0.419688
O	 3.834013837	-1.5060002665	 0.1460252044	-0.31398
O	 2.0016578986	-0.8718820351	 1.2245938234	-0.247606
C	 0.6524229519	-0.5664999181	 1.2559866323	 0.383013
N	-0.0077845169	-0.6882820458	 2.3222209046	-0.490491
H	 0.9964963248	 1.9455382057	 0.1019417694	 0.135292
H	-0.4964232308	 1.9319997076	-0.8532783169	 0.1252
H	-0.5793972687	 1.8598447774	 0.9221477574	 0.151354
H	-1.0150747847	-0.3673992446	-0.0047510471	 0.130503
H	 0.2055128789	-0.3529828562	-2.1833162875	 0.125796
H	 2.4808490501	-1.3381349577	-2.0868037655	 0.132289
H	 0.5851865767	-1.0411907825	 3.0758203388	 0.234807
48.7603	115.3677	221.5055	227.8569	255.1232	371.5079	403.4383	502.0818	527.9509	543.326	677.7339	705.0342	718.0278	834.6131	848.1492	906.2088	926.2688	939.9131	1015.1975	1019.6974	1078.3862	1081.9178	1118.3123	1151.4656	1223.8575	1301.9362	1342.3829	1355.1006	1393.4388	1411.8407	1492.0986	1498.7623	1702.1122	1760.7167	1850.7851	3044.6439	3064.3903	3119.3167	3138.2849	3168.7124	3219.0182	3474.6318
CC1C=CC(=O)OC1=N	C[C@H]1C=CC(=O)O[C]1[NH]	
InChI=1S/C6H7NO2/c1-4-2-3-5(8)9-6(4)7/h2-4,7H,1H3	InChI=1S/C6H7NO2/c1-4-2-3-5(8)9-6(4)7/h2-4,7H,1H3/t4-/m0/s1
