13
gdb 24956	5.27295	1.34456	1.07137	4.2857	65.31	-0.189	0.0338	0.2227	1015.6972	0.091789	-452.803604	-452.796586	-452.795642	-452.835491	26.37	
O	 0.0663353191	-0.0065083313	 0.002439693	-0.381836
C	-0.0272813368	 1.186546294	 0.0097619581	 0.451339
N	-1.1471433718	 1.9924827753	 0.029613157	-0.51325
C	-0.7634783523	 3.3427308243	 0.0312564706	 0.295726
C	 0.5935556205	 3.3042104494	 0.0120336122	 0.385916
N	 1.1053991752	 4.5607587112	 0.0109743623	-0.390868
C	 0.0194138609	 5.4306748924	 0.0303608115	-0.073395
C	-1.1599885329	 4.7046796613	 0.0435459482	-0.304903
O	 1.1034903757	 2.0456237155	-0.0016449658	-0.259611
H	-2.0688373133	 1.5944983431	 0.0406937087	 0.276068
H	 2.0745468955	 4.8234760219	-0.0011514226	 0.278194
H	 0.1797289311	 6.4952063099	 0.0333779305	 0.129041
H	-2.1536343111	 5.1213898929	 0.0596071762	 0.10758
54.4359	150.2836	324.9531	353.2641	363.944	410.1323	588.6812	591.1803	601.9672	627.251	716.9105	746.2447	765.9408	790.5616	838.6357	861.9861	948.9048	1062.2025	1080.5263	1117.3586	1248.6374	1265.7982	1327.3137	1374.4198	1483.3236	1505.805	1587.8531	1642.5279	1907.7249	3264.3329	3287.9297	3697.0937	3702.3775
O=C1NC2=C(NC=C2)O1	O=c1[nH]c2c([nH]cc2)o1	
InChI=1S/C5H4N2O2/c8-5-7-3-1-2-6-4(3)9-5/h1-2,6H,(H,7,8)	InChI=1S/C5H4N2O2/c8-5-7-3-1-2-6-4(3)9-5/h1-2,6H,(H,7,8)
