16
gdb 27929	2.59603	1.31398	0.87778	4.5802	78.63	-0.2009	-0.023	0.178	1268.6089	0.123669	-437.940731	-437.932002	-437.931058	-437.974047	31.94	
C	 0.1346341911	 1.4660688888	 0.0088622176	-0.489886
C	-0.0635899179	-0.003204375	-0.0249272249	 0.366166
C	-1.1296391795	-0.822303921	-0.1051001878	-0.384197
C	-0.637987174	-2.1840814828	-0.0886971135	 0.128416
C	-1.4061766455	-3.4028236052	-0.138195122	 0.055314
O	-2.6180309363	-3.4693975779	-0.2121935664	-0.302003
C	 0.7361580065	-2.0651679458	-0.0005966529	 0.315016
N	 1.7617382585	-2.9711892819	-0.014153185	-0.592044
O	 1.1031454493	-0.7739448912	 0.039785015	-0.214182
H	 0.7464127353	 1.8126403674	-0.8322982944	 0.138295
H	-0.8353522687	 1.9648203528	-0.0462178205	 0.142848
H	 0.6331921276	 1.7880276612	 0.9307912847	 0.136111
H	-2.1669326736	-0.534937925	-0.1662520548	 0.132698
H	-0.7958206314	-4.3388627878	-0.1009476417	 0.028244
H	 1.5133240776	-3.9138734031	 0.2431025759	 0.271241
H	 2.6196404809	-2.6478870234	 0.4090147807	 0.267964
123.2067	154.543	157.9513	194.7718	215.1988	268.5495	304.9749	373.0413	392.7423	538.7862	545.6216	626.8058	640.3569	669.0918	719.5797	839.9809	857.9451	939.7329	1010.5011	1021.1415	1067.185	1073.3073	1163.6342	1190.1936	1248.2526	1343.1209	1419.5602	1436.3114	1470.7815	1481.5049	1500.6196	1601.5567	1666.1959	1679.7095	1769.7386	2811.9222	3026.5426	3074.611	3131.4591	3271.0853	3576.3182	3686.067
CC1=CC(C=O)=C(N)O1	Cc1cc(C=O)c(N)o1	
InChI=1S/C6H7NO2/c1-4-2-5(3-8)6(7)9-4/h2-3H,7H2,1H3	InChI=1S/C6H7NO2/c1-4-2-5(3-8)6(7)9-4/h2-3H,7H2,1H3
