23
gdb 108667	1.78033	1.58525	0.96783	1.8094	89.79	-0.2189	0.0277	0.2466	1344.6708	0.204227	-388.316007	-388.305621	-388.304677	-388.351721	37.754	
C	-0.258133555	 1.62029478	-0.1245367963	-0.373303
C	 0.077478067	 0.1256303557	 0.0362885759	-0.300728
C	 0.7619616028	-0.4673382274	-1.1602176598	 0.205918
C	 2.0100916277	-0.9321812313	-1.2664915809	 0.170057
C	 3.0944145953	-1.0208424542	-0.2409556899	-0.499203
C	 2.2493566475	-1.3988735314	-2.6785898651	-0.150584
O	 1.0187133756	-1.219803546	-3.3621324626	-0.279496
C	 0.0617450207	-0.5998086501	-2.4985750446	 0.056423
C	-1.2184047355	-1.4373409979	-2.4761832712	-0.392506
H	 0.648686345	 2.2071164201	-0.3005919096	 0.120697
H	-0.9344945782	 1.7931089326	-0.9673175447	 0.122728
H	-0.7444491315	 2.006409929	 0.7765783363	 0.113513
H	 0.7038278946	-0.0076355361	 0.9243619261	 0.101919
H	-0.8520865597	-0.4242435534	 0.2359783324	 0.107865
H	 3.4350091434	-2.0567051375	-0.115782201	 0.128023
H	 3.9740166069	-0.4394457573	-0.5463598822	 0.128261
H	 2.7742211007	-0.6528505884	 0.7366056871	 0.12698
H	 3.0499923283	-0.8185841288	-3.1700235324	 0.093562
H	 2.5529347836	-2.4577266084	-2.7257673834	 0.096621
H	-0.1850781688	 0.3951172746	-2.9092548757	 0.074326
H	-1.0278956214	-2.419018897	-2.0316526753	 0.115241
H	-2.0064484114	-0.9378831148	-1.9027035139	 0.109527
H	-1.5819803578	-1.5835634019	-3.4971425895	 0.12416
50.6693	73.4189	148.2434	159.3567	174.7369	211.8743	238.8181	258.6532	295.6209	369.6395	421.1837	431.9945	552.4102	626.4203	654.9683	766.5832	784.2803	871.927	912.2131	955.2786	976.8641	995.3846	1042.8455	1065.1001	1091.1606	1093.2903	1099.4465	1122.0286	1155.6231	1200.2731	1209.7808	1271.6619	1298.1005	1347.752	1361.3504	1371.9896	1387.4611	1397.72	1408.3842	1416.6644	1478.1186	1480.6453	1486.7097	1492.5942	1495.8036	1498.0921	1508.6371	1525.5795	1750.0399	2937.701	2948.8192	2970.596	3017.0139	3018.6275	3035.5398	3038.2317	3060.5197	3067.1291	3107.5548	3108.7553	3112.0236	3116.9843	3118.281
CCC1=C(C)COC1C	CCC1=C(C)CO[C@H]1C	
InChI=1S/C8H14O/c1-4-8-6(2)5-9-7(8)3/h7H,4-5H2,1-3H3	InChI=1S/C8H14O/c1-4-8-6(2)5-9-7(8)3/h7H,4-5H2,1-3H3/t7-/m0/s1
