19
gdb 23351	5.73492	0.77772	0.7095	1.7252	81.75	-0.2394	0.0089	0.2483	1566.4154	0.158085	-419.118654	-419.109816	-419.108872	-419.152913	33.064	
O	-0.2215990747	 1.3739038149	 0.1715025433	-0.396161
N	 0.0040627097	-0.0177202295	 0.1474805414	-0.232968
C	-1.0784640903	-0.6461292965	-0.039529136	 0.411742
C	-2.520238311	-0.2780673805	-0.3219700094	-0.333525
C	-2.7349362892	-1.7569265732	-0.7736705549	 0.055748
C	-1.3281311319	-2.1295667786	-0.2019933436	-0.328787
N	-3.8487002464	-2.4354440147	-0.1458230861	-0.061646
C	-5.1133295174	-2.4147207938	-0.8777992527	-0.22363
C	-4.306243808	-3.6624326087	-0.7949038088	-0.223649
H	 0.6680963868	 1.7189872905	 0.3011567371	 0.305072
H	-3.0845086346	-0.0478314348	 0.587504982	 0.132866
H	-2.6864996986	 0.5135384151	-1.0559194416	 0.123316
H	-2.75504413	-1.8409875999	-1.8726005197	 0.06065
H	-0.6454224386	-2.6841566938	-0.8495539954	 0.117878
H	-1.4217832518	-2.6508112158	 0.7562552563	 0.129774
H	-6.0065863865	-2.2929335206	-0.2723914111	 0.119723
H	-5.1388793196	-1.9019794057	-1.8380181024	 0.112168
H	-3.792175174	-3.9832265432	-1.6996182282	 0.111857
H	-4.5999040438	-4.4675532814	-0.1279824099	 0.119572
45.2138	75.2967	166.9703	225.9613	258.9206	292.1019	337.2228	384.2388	462.1485	474.3887	549.5834	652.7813	752.3882	787.2753	813.7931	889.5874	900.2049	939.8664	962.1639	973.481	1027.7252	1056.3899	1071.0446	1077.841	1112.7227	1118.7677	1163.4084	1174.2312	1181.8347	1207.7244	1220.9648	1252.0766	1278.9087	1323.4124	1377.1107	1403.8406	1443.6622	1465.2814	1490.6413	1518.2859	1788.4359	2959.2073	3053.9989	3059.1274	3095.7979	3100.3814	3114.2123	3116.1376	3180.4537	3194.6501	3819.2944
ON=C1CC(C1)N1CC1	ON=C1C[C@@H](C1)N1CC1	
InChI=1S/C6H10N2O/c9-7-5-3-6(4-5)8-1-2-8/h6,9H,1-4H2	InChI=1S/C6H10N2O/c9-7-5-3-6(4-5)8-1-2-8/h6,9H,1-4H2/t6-
