17
gdb 24142	5.45532	0.98013	0.88162	2.2113	74.71	-0.2004	0.0511	0.2515	1312.5502	0.137385	-418.022162	-418.014277	-418.013332	-418.055567	29.627	
C	-0.3461688025	 1.1629720414	-0.112476553	-0.275328
C	 1.121420109	 1.0576644004	 0.2609445176	-0.300249
C	 0.3201642771	-0.1731723924	-0.0006162099	 0.159267
O	 0.050039137	-0.964758653	 1.1386819121	-0.282539
C	-0.9518626841	-1.8479039503	 0.9947355489	 0.486752
N	-1.6732758116	-2.0957278416	-0.0654247073	-0.357061
C	-2.5376963969	-3.104729334	 0.3326481795	-0.093726
C	-2.3214725436	-3.4502817177	 1.6332340661	-0.10953
N	-1.2864592721	-2.6254166148	 2.0587685544	-0.336031
H	-1.0379051105	 1.4338256213	 0.6766287687	 0.123727
H	-0.6188328836	 1.5166062396	-1.1001159509	 0.122628
H	 1.875231186	 1.3424751258	-0.4640482943	 0.119414
H	 1.3842154887	 1.2587185862	 1.2932690507	 0.124094
H	 0.4855823618	-0.7603122761	-0.896907363	 0.119825
H	-3.2637312103	-3.5145567552	-0.3522793222	 0.105973
H	-2.7797200559	-4.1706341676	 2.2890635394	 0.126086
H	-0.8512986583	-2.601825252	 2.9646970232	 0.2667
51.5745	65.202	150.3987	279.5489	355.0042	385.9549	465.8222	484.2839	634.8894	682.6512	727.2142	739.4034	761.9798	826.4667	840.1999	846.1126	922.732	976.6987	987.3491	1032.4672	1058.353	1073.683	1082.8668	1117.2359	1135.7158	1180.1173	1189.3817	1196.1225	1240.5419	1290.9853	1376.3317	1392.5034	1454.6507	1492.5024	1507.78	1548.7563	1610.5173	3140.9111	3144.5546	3176.4514	3224.0541	3238.4096	3252.5698	3286.4461	3677.6123
C1CC1OC1=NC=CN1	C1CC1Oc1ncc[nH]1	
InChI=1S/C6H8N2O/c1-2-5(1)9-6-7-3-4-8-6/h3-5H,1-2H2,(H,7,8)	InChI=1S/C6H8N2O/c1-2-5(1)9-6-7-3-4-8-6/h3-5H,1-2H2,(H,7,8)
