12
gdb 43657	3.20019	1.32148	1.04581	4.7521	63.63	-0.2922	-0.064	0.2281	1079.8951	0.076404	-472.617674	-472.6101	-472.609156	-472.650513	27.314	
N	-0.0287688129	 1.3033797066	 0.0162330123	-0.493015
C	 0.0003956374	 0.0477641769	 0.0092134843	 0.278627
O	 1.1000882374	-0.7569189161	 0.0019492191	-0.22787
C	 0.6798664324	-2.1287000462	-0.037348521	 0.019133
O	-0.7431137624	-2.1315727668	 0.0138855439	-0.216368
C	-1.2151029771	-0.84659794	 0.0225065127	 0.392786
O	-2.3684047802	-0.5647171962	 0.0462499088	-0.288985
C	 1.1672028764	-2.7882655389	-1.2409992499	 0.344405
C	 1.5850169401	-3.3502771394	-2.2148749362	-0.426875
H	 0.9119873688	 1.7012976267	 0.0051870431	 0.244961
H	 1.057123713	-2.6230955667	 0.8643913602	 0.148327
H	 1.949971517	-3.84473175	-3.0824534872	 0.224873
58.9274	103.9951	193.035	252.844	335.5236	426.6945	464.4729	506.1469	621.1708	635.8317	677.4173	704.5706	753.1423	797.7822	828.4334	911.0436	947.5993	972.6606	1023.8785	1098.2326	1171.0685	1309.767	1353.3204	1385.9209	1787.4824	1924.9958	2253.684	3057.6215	3483.8332	3496.4517
N=C1OC(OC1=O)C#C	[NH][C]1O[C@@H](OC1=O)C#C	
InChI=1S/C5H3NO3/c1-2-3-8-4(6)5(7)9-3/h1,3,6H	InChI=1S/C5H3NO3/c1-2-3-8-4(6)5(7)9-3/h1,3,6H/t3-/m0/s1
