18
gdb 16248	3.0407	2.06261	1.51574	2.2729	66.66	-0.2472	0.0749	0.3221	887.8053	0.153815	-384.925377	-384.917723	-384.916778	-384.958083	28.779	
C	 0.3109541858	 1.4219922265	-0.3629621123	-0.401514
C	-0.1018346813	 0.0486591668	 0.1726988999	 0.045288
O	-0.0215313545	-0.9469388957	-0.848511512	-0.260374
C	 1.2703062942	-1.5412836229	-0.784220153	-0.088749
C	 1.6042002252	-1.6310292575	 0.7119385274	-0.318518
C	 0.7879615877	-0.4840463156	 1.3066968184	 0.417221
C	 1.1875693465	 0.3006811882	 2.4792539934	-0.249023
O	 0.17722179	-0.7074063965	 2.579608078	-0.271297
H	 1.3678799739	 1.4415936433	-0.6480808043	 0.114627
H	-0.286725918	 1.6665085135	-1.2451450023	 0.128029
H	 0.1492283306	 2.2010818631	 0.3882584578	 0.116502
H	-1.1421131951	 0.0777214243	 0.5119113761	 0.099064
H	 1.2130589482	-2.5132480573	-1.2799526658	 0.114247
H	 2.0135387537	-0.9299236146	-1.3199288849	 0.091781
H	 1.2408729574	-2.5689825313	 1.1414275519	 0.129577
H	 2.6742546894	-1.5515965543	 0.9184588035	 0.107694
H	 2.1276595126	 0.0749569783	 2.9824771191	 0.112136
H	 0.8386689638	 1.3255016818	 2.602390989	 0.113309
26.0717	193.6717	212.6778	252.1143	318.4868	344.9814	418.5534	494.5015	534.9193	648.5723	751.7771	826.522	856.6868	880.5347	906.4741	954.1303	978.4014	1010.8123	1044.421	1092.403	1119.8355	1131.861	1138.0834	1170.0882	1208.5794	1232.0352	1250.7836	1290.8369	1313.7465	1364.5158	1387.4773	1400.0215	1426.1522	1481.4881	1489.9739	1492.9626	1522.5307	1535.2486	2976.7649	3039.1794	3060.8626	3063.2523	3075.7334	3095.934	3110.0965	3113.3048	3120.3045	3158.8166
CC1OCCC11CO1	C[C@H]1OCC[C@]21CO2	
InChI=1S/C6H10O2/c1-5-6(4-8-6)2-3-7-5/h5H,2-4H2,1H3	InChI=1S/C6H10O2/c1-5-6(4-8-6)2-3-7-5/h5H,2-4H2,1H3/t5-,6-/m1/s1
