18
gdb 14128	3.83508	1.57469	1.33745	2.262	67.23	-0.232	0.069	0.301	964.3239	0.152625	-384.890125	-384.882032	-384.881087	-384.922629	30.501	
C	 0.0028575103	 1.5436237137	-0.0954984964	-0.410095
C	-0.0899102604	 0.0200211052	 0.0143173794	 0.002945
O	 0.3313585892	-0.618350381	-1.1872198104	-0.424351
C	 0.6621304466	-0.5085236458	 1.2132912395	 0.291119
C	 2.1093647826	-0.9699888521	 1.1932216691	-0.359917
C	 1.0273926655	-1.9095757963	 1.6345254911	 0.054609
O	 0.6841522892	-1.681271752	 3.0050716019	-0.287993
C	 0.235394967	-0.3404719744	 2.6726056588	-0.139527
H	 1.0486357622	 1.8597143946	-0.1936896978	 0.113217
H	-0.5531136852	 1.8956797307	-0.968838863	 0.125004
H	-0.407309179	 2.0301999954	 0.7955913388	 0.122527
H	-1.1457917292	-0.2620675392	 0.1200099303	 0.091506
H	 1.1644604034	-0.2149889623	-1.4541162066	 0.280965
H	 2.5035666107	-1.1721039094	 0.2024249517	 0.107934
H	 2.8295964485	-0.6004708327	 1.9185447423	 0.111809
H	 0.8223726145	-2.8839518479	 1.2071850552	 0.111534
H	 0.7363330262	 0.4304917179	 3.2704470653	 0.103174
H	-0.8513248721	-0.2573802844	 2.7995548409	 0.105539
57.704	158.7478	208.7401	262.2225	293.7827	306.834	335.2554	440.1924	475.7164	492.1433	668.7836	759.5146	854.5625	867.7398	917.6164	930.0254	985.4084	999.3758	1007.5311	1037.562	1052.5229	1075.8071	1079.759	1110.6992	1132.1349	1159.0802	1213.0515	1269.5404	1307.397	1310.7224	1363.3157	1400.8223	1405.1097	1419.0279	1477.955	1491.2157	1495.9943	1516.818	3012.461	3022.1752	3027.8298	3061.6775	3095.638	3113.7596	3117.0483	3187.3072	3210.8718	3805.4074
CC(O)C12CC1OC2	C[C@@H](O)[C@]12C[C@H]1OC2	
InChI=1S/C6H10O2/c1-4(7)6-2-5(6)8-3-6/h4-5,7H,2-3H2,1H3	InChI=1S/C6H10O2/c1-4(7)6-2-5(6)8-3-6/h4-5,7H,2-3H2,1H3/t4-,5-,6-/m1/s1
