19
gdb 56207	4.83169	0.7372	0.66169	2.8355	73.69	-0.2403	0.0589	0.2993	1668.7554	0.159938	-456.364942	-456.35545	-456.354505	-456.40116	33.742	
N	-0.1077683826	 1.3108255301	 0.2601563488	-0.566018
C	 0.0086539584	-0.0306700949	-0.092257151	 0.455978
O	 0.980916245	-0.4732090497	-0.6768933502	-0.395514
N	-1.0585338273	-0.8023201257	 0.3016225275	-0.341319
C	-1.0360967783	-2.244181794	 0.171965653	-0.15879
C	-2.4228460072	-2.7489334345	-0.1834930123	 0.150705
C	-2.7177780705	-4.2473179259	 0.0381409063	-0.301642
C	-3.7497805177	-3.7492592321	 1.0699448936	-0.057874
O	-3.3917829175	-2.369823093	 0.8318276484	-0.306283
H	 0.5528630171	 1.891374981	-0.2340773144	 0.258909
H	-1.0373331018	 1.7014596344	 0.3062741617	 0.246321
H	-1.7176167152	-0.4326824766	 0.9688199562	 0.249956
H	-0.3137382357	-2.4924140449	-0.6098908201	 0.144716
H	-0.7016314665	-2.7261079624	 1.1032588853	 0.096599
H	-2.722723415	-2.3544329167	-1.1627931045	 0.081947
H	-3.1244667086	-4.780278131	-0.8216752581	 0.11593
H	-1.8838537704	-4.817515444	 0.4528449147	 0.114732
H	-4.7994824334	-3.94416101	 0.8190679229	 0.10528
H	-3.574868293	-4.0444282003	 2.1111637423	 0.106366
29.7278	62.7528	82.2768	91.4589	233.3344	244.0739	335.879	383.3904	453.5233	479.2081	542.8397	566.2579	658.4233	759.8691	777.4682	802.2031	873.5897	900.6491	941.6109	974.529	1016.6251	1060.5071	1087.3975	1104.8941	1142.104	1169.0764	1171.8898	1215.655	1243.8761	1260.2948	1295.3907	1315.1906	1346.8598	1368.9229	1420.3034	1489.8777	1492.4434	1531.7816	1541.9412	1627.6867	1800.3102	2987.875	3018.5352	3027.346	3059.575	3080.1838	3110.6165	3137.371	3571.1391	3630.4256	3685.5762
NC(=O)NCC1CCO1	NC(=O)NC[C@H]1CCO1	
InChI=1S/C5H10N2O2/c6-5(8)7-3-4-1-2-9-4/h4H,1-3H2,(H3,6,7,8)	InChI=1S/C5H10N2O2/c6-5(8)7-3-4-1-2-9-4/h4H,1-3H2,(H3,6,7,8)/t4-/m1/s1
