20
gdb 12415	2.85394	1.99718	1.43925	1.9723	70.52	-0.2376	0.0639	0.3016	942.8043	0.178303	-386.151437	-386.143354	-386.14241	-386.1833	31.343	
C	-0.0050133664	 1.5525308843	-0.0050970667	-0.40856
C	 0.0538091081	 0.0232583294	 0.0117905842	 0.017076
C	 0.7304155863	-0.5351478455	-1.2488452194	-0.075659
O	 0.7601824327	-1.9543468315	-1.2557447046	-0.253937
C	 1.4910873803	-2.4750691694	-0.1596941143	-0.059242
C	 0.866034068	-2.0572849786	 1.1739074692	-0.242055
C	 0.7614925372	-0.5266815909	 1.2620040286	 0.114912
O	 2.0538747029	 0.0781348584	 1.3187756366	-0.437567
H	 1.000198233	 1.9814987527	-0.0058925464	 0.135954
H	-0.5371868045	 1.9146278763	-0.891040116	 0.108108
H	-0.5288218699	 1.9334768248	 0.8780454261	 0.109303
H	-0.9688505537	-0.3757454804	 0.0331254132	 0.075688
H	 0.1755093114	-0.2384296848	-2.1441120381	 0.099809
H	 1.751939669	-0.1309501568	-1.3292109447	 0.099777
H	 1.4848498157	-3.5629495621	-0.273892096	 0.10117
H	 2.53689708	-2.1313523322	-0.2011639565	 0.092056
H	-0.1365793699	-2.4929081212	 1.259915591	 0.103971
H	 1.4617615066	-2.4464579748	 2.0106277229	 0.080204
H	 0.1798745873	-0.2450141168	 2.154546625	 0.056518
H	 2.512287816	-0.269772041	 2.0897338757	 0.282474
138.6509	194.1329	211.7678	256.328	268.1248	315.2126	331.0709	404.0604	439.8975	514.5429	573.9009	668.0784	791.8567	870.7389	872.7749	907.053	963.8942	987.0717	1005.8678	1037.9721	1059.9928	1112.7814	1125.9256	1152.461	1172.7442	1212.3574	1243.7219	1273.2512	1315.3845	1326.9302	1350.4739	1366.1965	1385.2363	1397.3858	1406.3811	1418.7745	1443.3863	1471.233	1489.8756	1494.6386	1503.4662	1507.9417	2962.3737	2982.5409	2987.0575	3017.2531	3025.7421	3035.7153	3066.05	3079.461	3085.3161	3096.6765	3123.2391	3821.044
CC1COCCC1O	C[C@H]1COCC[C@H]1O	
InChI=1S/C6H12O2/c1-5-4-8-3-2-6(5)7/h5-7H,2-4H2,1H3	InChI=1S/C6H12O2/c1-5-4-8-3-2-6(5)7/h5-7H,2-4H2,1H3/t5-,6+/m0/s1
