21
gdb 40240	2.73959	1.63091	1.24528	1.2679	82.23	-0.2343	0.0815	0.3158	1082.7053	0.184589	-387.070575	-387.062862	-387.061918	-387.102476	31.75	
C	 0.03590294	 1.4985456936	 0.0220907863	-0.330084
C	 1.3191632053	 0.6859260016	 0.0114941748	-0.330874
C	-0.030789368	 0.0067983472	-0.0425088797	 0.444097
O	-0.4745515387	-0.6047774142	 1.1419973327	-0.292786
C	-0.0413872459	-1.9591272792	 1.2195182918	-0.084674
C	-0.7754691979	-2.8374228703	 0.2007517864	-0.230433
C	-0.8441516206	-2.1683161319	-1.1720047924	-0.036527
C	-1.9054188526	-1.1267945471	-1.4394583364	-0.296648
C	-0.4673508977	-0.7025407205	-1.2895581656	-0.079708
H	-0.2532926541	 1.95606686	 0.9613913338	 0.121779
H	-0.2319917463	 2.0631615202	-0.8644153034	 0.111148
H	 1.9353624926	 0.6994483434	-0.8814853002	 0.108028
H	 1.8674278266	 0.6181250165	 0.9444301406	 0.11599
H	 1.0452380295	-2.0050836811	 1.0509437324	 0.090515
H	-0.2416333039	-2.2879477333	 2.2431824265	 0.1007
H	-0.2561819741	-3.7992984211	 0.1260482047	 0.097153
H	-1.7862168619	-3.053489754	 0.5653883433	 0.105868
H	-0.5757214808	-2.8006440047	-2.0120414344	 0.082727
H	-2.3550670546	-1.0841686119	-2.4254403701	 0.103796
H	-2.5785682304	-0.8893278014	-0.6218023191	 0.120075
H	 0.0563120736	-0.3943368015	-2.189160862	 0.079854
96.4317	189.3969	241.873	289.7799	334.15	383.3025	433.0182	482.2254	550.1819	640.0766	719.2578	768.14	777.0468	825.9768	856.2073	867.036	895.6226	930.2829	947.9741	969.3467	1000.6826	1026.9789	1047.79	1054.7011	1068.3612	1074.1543	1094.2458	1114.8903	1130.1793	1146.5757	1188.643	1219.5212	1250.4912	1274.725	1285.8392	1305.8015	1363.4612	1378.993	1416.4383	1425.5685	1450.914	1477.4958	1488.4468	1494.717	1507.7852	2990.5263	3032.2537	3070.7462	3088.1557	3127.558	3128.7156	3135.4003	3148.426	3157.8175	3214.8184	3216.2045	3229.8388
C1CC11OCCC2CC12	C1CC21OCC[C@H]1C[C@@H]21	
InChI=1S/C8H12O/c1-4-9-8(2-3-8)7-5-6(1)7/h6-7H,1-5H2	InChI=1S/C8H12O/c1-4-9-8(2-3-8)7-5-6(1)7/h6-7H,1-5H2/t6-,7+/m0/s1
