20
gdb 102213	3.19539	0.74452	0.64605	3.6542	88.32	-0.2537	0.0357	0.2894	1805.5507	0.16838	-366.016179	-366.005055	-366.004111	-366.055054	37.609	
C	-0.1318738909	 1.5651732344	 0.067148053	-0.403563
C	 0.0240590653	 0.0443544907	 0.0151417748	-0.178879
C	 0.7126536229	-0.4685540272	-1.2697536149	-0.128346
C	 0.9353165144	-2.0063804839	-1.2232862327	-0.370898
C	 1.6938695695	-2.5192965442	-2.355748968	 0.021388
C	 2.3240945314	-2.9136536043	-3.30230541	 0.126147
C	 3.0749761991	-3.3989473032	-4.4509231385	-0.498617
C	-0.059382885	-0.0929045071	-2.4589225808	 0.29391
N	-0.6926480085	 0.2131055929	-3.376194363	-0.33395
H	 0.8412002815	 2.0654223371	 0.0142662534	 0.119724
H	-0.7424286129	 1.9295110648	-0.7641726737	 0.147216
H	-0.6141532139	 1.8712641479	 0.9998035266	 0.121677
H	 0.6238357729	-0.2998793738	 0.8657359129	 0.106035
H	-0.9563302375	-0.4378509034	 0.1054646721	 0.117256
H	 1.6955597124	 0.0103480496	-1.3600363879	 0.132649
H	 1.4565813212	-2.2326378184	-0.2848275346	 0.13196
H	-0.0415544148	-2.5019081354	-1.1625655735	 0.142074
H	 2.7591011427	-4.4094816005	-4.7321290544	 0.150851
H	 2.9248512252	-2.7509059565	-5.321149481	 0.15621
H	 4.149762825	-3.4326168095	-4.2416385998	 0.147154
12.2574	45.7472	68.1977	101.3449	157.816	200.7092	217.4615	230.5892	271.145	309.1506	371.7157	384.399	468.4595	550.275	607.716	754.7649	768.3959	823.7642	913.967	983.6137	1009.314	1052.0939	1054.1064	1066.8327	1117.3534	1132.3304	1174.5204	1215.2589	1270.3187	1294.0054	1348.345	1368.0234	1375.1419	1414.8336	1417.9654	1471.0528	1477.7296	1478.116	1487.572	1498.6395	1506.8758	2355.7388	2377.6729	3022.0738	3029.2351	3031.6676	3038.1143	3040.352	3059.3479	3074.3329	3090.1127	3092.4848	3108.1147	3119.1666
CCC(CC#CC)C#N	CC[C@@H](CC#CC)C#N	
InChI=1S/C8H11N/c1-3-5-6-8(4-2)7-9/h8H,4,6H2,1-2H3	InChI=1S/C8H11N/c1-3-5-6-8(4-2)7-9/h8H,4,6H2,1-2H3/t8-/m0/s1
