21
gdb 95836	2.85426	1.15314	0.87883	1.3601	74.46	-0.2438	0.0682	0.3121	1323.4023	0.183298	-461.353347	-461.344218	-461.343274	-461.387271	35.04	
O	-0.1975286474	 1.4962148845	-0.2351821168	-0.430844
C	 0.0022044834	 0.1029141311	-0.0106572905	 0.10191
C	-1.3926281397	-0.5013039617	 0.1633054584	-0.209807
C	-1.4638177401	-1.8780108249	 0.8469878325	-0.215785
C	-0.4265236199	-2.9351799787	 0.4272744787	 0.11455
O	-1.0732776158	-4.1950871707	 0.5882242081	-0.433625
C	 0.1243562289	-2.7860830644	-1.0021679429	-0.104216
O	 1.1666862887	-1.8295365394	-1.0716090211	-0.243204
C	 0.7602399663	-0.4863198526	-1.2135704586	-0.097853
H	 0.6651067435	 1.9121055518	-0.3357343757	 0.282894
H	 0.5990616027	-0.0625288551	 0.9015784429	 0.068917
H	-1.9808445653	 0.2086717287	 0.7528998334	 0.111966
H	-1.8692282757	-0.5396777963	-0.823960715	 0.10201
H	-1.4043076237	-1.7544038942	 1.9335893963	 0.10549
H	-2.4487227108	-2.3119147581	 0.6444237852	 0.117673
H	 0.4517936892	-2.8680030183	 1.0878878872	 0.073823
H	-0.4063224264	-4.8856682801	 0.515211466	 0.281689
H	 0.5750115162	-3.7415504698	-1.2966067161	 0.091086
H	-0.6767933648	-2.5626382318	-1.722735141	 0.096879
H	 0.1343241593	-0.3528007699	-2.1114979637	 0.095899
H	 1.6870215013	 0.08032731	-1.3674968874	 0.090547
47.7127	161.235	178.9211	280.0311	299.3634	308.7819	323.3682	330.5726	350.4386	423.5682	453.51	472.9034	539.8963	580.2212	788.1973	850.5272	909.1023	918.5029	962.8011	1010.9962	1032.6085	1068.4891	1076.4447	1094.7112	1110.7026	1130.3369	1169.5274	1206.7028	1239.1944	1251.9931	1278.7526	1301.1789	1323.8594	1342.4687	1349.287	1360.6296	1369.6568	1402.9799	1416.7529	1440.6903	1443.5624	1484.4883	1487.9682	1490.8142	1509.6215	2962.9057	2974.5534	2977.8074	2996.1102	3034.1772	3042.6522	3049.2941	3055.8881	3077.5879	3090.2512	3810.9152	3812.3245
OC1CCC(O)COC1	O[C@H]1CC[C@@H](O)COC1	
InChI=1S/C6H12O3/c7-5-1-2-6(8)4-9-3-5/h5-8H,1-4H2	InChI=1S/C6H12O3/c7-5-1-2-6(8)4-9-3-5/h5-8H,1-4H2/t5-,6+
