19
gdb 52915	2.73442	0.99763	0.83986	2.7496	86.37	-0.2399	-0.0239	0.216	1455.5784	0.156811	-385.868781	-385.858782	-385.857838	-385.906	34.73	
C	 0.2614754752	 1.7216203166	-0.062883582	-0.503482
C	 0.1499712621	 0.2718283687	 0.0046416883	 0.169316
C	 0.0450081655	-0.9275723973	 0.0663795239	-0.097024
C	-0.0570122108	-2.3726324275	 0.1181726882	 0.071185
C	-0.0243498334	-3.0561363381	 1.5464926606	-0.25947
C	-1.1620918688	-4.0004788192	 1.0837364186	-0.218248
C	-1.4416923266	-3.05578075	-0.1138965283	-0.254538
C	 1.0476729108	-2.9928115628	-0.7317428613	 0.11328
O	 0.8990749197	-3.9212670133	-1.4820162171	-0.250926
H	 0.7667093814	 2.0395957902	-0.9814889575	 0.151603
H	-0.7261321424	 2.1956202129	-0.0471317368	 0.151379
H	 0.8325511173	 2.1173035407	 0.784275851	 0.14994
H	 0.9261612976	-3.5015976758	 1.8530186562	 0.110133
H	-0.3415834276	-2.342440659	 2.3091345408	 0.119155
H	-0.7847707731	-4.9711745543	 0.7555265557	 0.122218
H	-1.9777267746	-4.1610986352	 1.7907604119	 0.103174
H	-2.2588559096	-2.358185934	 0.0760870592	 0.109196
H	-1.564403615	-3.5170601669	-1.0943351684	 0.125899
H	 2.0429567625	-2.5210710858	-0.576720603	 0.08721
12.952	65.866	91.2438	106.7102	153.7698	258.411	281.9645	299.2728	316.9059	441.2334	500.0496	519.4183	609.5227	724.4823	793.2501	850.8961	870.0807	887.5909	949.6572	975.1594	1042.8106	1043.9332	1052.7127	1055.2823	1080.7216	1175.3634	1215.0851	1237.3547	1254.0404	1269.7327	1280.7955	1294.9228	1412.9143	1415.5915	1465.9165	1476.9279	1477.9933	1481.0855	1500.4671	1824.5538	2360.1022	2892.1678	3026.9986	3059.5175	3075.1241	3082.954	3088.09	3088.8725	3113.6817	3130.3913	3147.4175
CC#CC1(CCC1)C=O	CC#CC1(CCC1)C=O	
InChI=1S/C8H10O/c1-2-4-8(7-9)5-3-6-8/h7H,3,5-6H2,1H3	InChI=1S/C8H10O/c1-2-4-8(7-9)5-3-6-8/h7H,3,5-6H2,1H3
