16
gdb 18782	3.76142	2.29955	1.88609	3.1605	67.63	-0.2346	-0.0148	0.2199	746.5749	0.132477	-346.580731	-346.574775	-346.573831	-346.610641	24.152	
O	 0.0281064478	 0.0257815572	-0.1044317732	-0.318559
C	-0.0017621774	 1.2189670295	 0.0042394626	 0.425757
C	-1.1446047625	 2.2407190095	 0.0349808233	-0.163473
C	-1.2939744641	 2.8990250298	 1.4402966193	-0.234072
C	-0.0320558172	 3.7602130441	 1.1872184862	-0.033403
C	 1.2909615062	 2.971969968	 1.3497903473	-0.234072
C	 1.0810626961	 2.3035295837	-0.042946938	-0.163472
C	-0.0732885276	 3.3426892149	-0.3268597341	-0.041359
H	-2.0480033825	 2.0041149241	-0.5271829557	 0.088662
H	-2.191149309	 3.5238380427	 1.4593362999	 0.111811
H	-1.3068038663	 2.2406988465	 2.3145468867	 0.106692
H	-0.0483901125	 4.788134239	 1.5491737939	 0.071858
H	 2.1506532668	 3.6463603992	 1.307316428	 0.111811
H	 1.4019168614	 2.3171357138	 2.2197058944	 0.106692
H	 1.954853482	 2.1170780618	-0.6673379159	 0.088662
H	-0.1220473416	 3.9984645665	-1.190886115	 0.076464
134.2144	247.97	362.4099	437.3894	518.8021	588.4807	723.3416	751.4842	818.5973	825.1293	843.3593	885.176	899.9509	942.7397	959.2078	964.3199	981.2633	1034.7875	1067.1219	1107.3075	1114.5571	1124.7927	1157.718	1179.6416	1198.6728	1221.7011	1245.1592	1254.7128	1284.4031	1311.5566	1316.2336	1481.0407	1494.8216	1877.9452	3047.1051	3048.6993	3097.6884	3099.5655	3107.9905	3114.7445	3115.7064	3163.3029
O=C1C2CC3CC1C23	O=C1[C@H]2C[C@H]3C[C@@H]1[C@@H]23	
InChI=1S/C7H8O/c8-7-4-1-3-2-5(7)6(3)4/h3-6H,1-2H2	InChI=1S/C7H8O/c8-7-4-1-3-2-5(7)6(3)4/h3-6H,1-2H2/t3-,4-,5+,6+
