22
gdb 111509	2.43556	1.48456	1.14626	2.5497	82.	-0.23	0.0701	0.3001	1182.0642	0.19521	-404.324279	-404.315279	-404.314335	-404.357893	34.414	
C	-0.319450036	 1.2925076	-1.0139201318	-0.233939
O	-0.5154570722	 0.718877692	 0.2551247435	-0.23768
C	-1.3379346306	-0.4280951099	 0.2506056423	 0.161452
C	-0.7623860123	-1.6669905545	-0.4247313118	-0.077146
N	 0.2849858957	-2.3469642054	 0.369271596	-0.324698
C	-1.1045660177	-2.8497279723	 0.399576684	-0.029553
C	-1.8798388277	-2.4015955563	 1.6261785518	-0.222323
C	-1.6688900155	-0.8621913211	 1.7128210834	-0.051517
C	-0.595609372	-0.4590459592	 2.7326066219	-0.383083
H	 0.2560647364	 2.2103054459	-0.8691437352	 0.126132
H	 0.2428180251	 0.631910058	-1.6908011957	 0.103416
H	-1.2759301185	 1.5474269606	-1.4993436799	 0.098338
H	-2.2790732438	-0.1898512152	-0.2783867585	 0.055541
H	-0.7190757473	-1.7245903474	-1.5078289058	 0.080773
H	 0.8388002786	-2.9318851288	-0.2518070178	 0.228649
H	-1.3200417811	-3.8122624167	-0.0545198858	 0.080462
H	-2.9390522928	-2.6453051548	 1.4816357779	 0.093747
H	-1.5500966121	-2.9086028521	 2.5388752379	 0.10344
H	-2.6069212182	-0.3827301329	 2.0105463971	 0.071321
H	 0.3608808089	-0.9305607008	 2.5018387245	 0.144315
H	-0.4541517803	 0.6236931998	 2.7387743651	 0.119207
H	-0.9075642268	-0.7712787391	 3.7353840168	 0.093147
78.7295	113.6166	185.3968	204.2791	235.9328	243.26	323.461	360.8399	395.7424	469.5036	542.6702	630.5524	744.6931	786.204	819.4911	863.9917	881.4408	917.9606	950.4956	959.7735	993.1127	1021.1697	1066.241	1088.3705	1107.7524	1131.3344	1137.1821	1160.8176	1173.3208	1183.8935	1223.7592	1242.7353	1260.8616	1279.3437	1327.5896	1341.4164	1365.8396	1372.3421	1397.1056	1403.3171	1438.1077	1479.0122	1485.0095	1488.856	1494.0469	1510.1694	1513.513	2928.333	2967.7057	3016.5319	3031.336	3040.3019	3050.2863	3078.5039	3109.7328	3115.3989	3147.8756	3149.2221	3160.9015	3497.1034
COC1C2NC2CC1C	CO[C@H]1[C@H]2N[C@H]2C[C@H]1C	
InChI=1S/C7H13NO/c1-4-3-5-6(8-5)7(4)9-2/h4-8H,3H2,1-2H3	InChI=1S/C7H13NO/c1-4-3-5-6(8-5)7(4)9-2/h4-8H,3H2,1-2H3/t4-,5+,6+,7-/m1/s1
