15
gdb 66735	2.75731	1.67437	1.27491	4.7245	71.25	-0.2323	-0.0173	0.215	975.9381	0.110679	-420.519235	-420.511854	-420.51091	-420.551107	28.569	
O	-0.1119818275	 1.3575553133	 0.0883409083	-0.44137
C	 0.0368427093	 0.0027771915	 0.0421893958	 0.31767
C	 0.9552170397	-1.0058915323	 0.8255678016	-0.174222
C	 0.7925409417	-1.9954839528	-0.3177282531	-0.078581
C	-0.1816659424	-2.0190537733	 0.8499361862	-0.155567
C	-1.1069660782	-1.0254466109	 0.1164553342	 0.25836
C	-2.5425319126	-0.8103465693	 0.0701455396	 0.008995
O	-3.3559934719	-1.4572581643	 0.69312596	-0.280657
C	-0.1001840933	-0.9787129944	-1.0852362568	-0.244163
H	 0.559990083	 1.7631727461	-0.4727246487	 0.297585
H	 1.7752767822	-0.8708883259	 1.5169159816	 0.103185
H	 1.4776543687	-2.7526824315	-0.6730683918	 0.100869
H	-0.3990105827	-2.7961942396	 1.5688435514	 0.109769
H	-2.8514686981	 0.0225060162	-0.6014663065	 0.068652
H	-0.3572961878	-0.8436892228	-2.1276186718	 0.109472
98.539	149.701	240.7987	265.164	331.2685	370.021	497.3182	603.7656	672.3544	694.6536	732.051	760.4329	791.333	812.4316	843.5394	905.7078	909.5545	929.7958	973.3274	1009.4174	1017.6661	1042.1488	1047.7109	1123.5211	1175.0911	1196.9063	1235.4698	1283.5729	1314.995	1378.2844	1424.4885	1465.873	1783.9115	2871.0909	3201.7991	3211.2943	3212.7787	3225.7323	3778.8149
OC12C3C4C3C1(C=O)C24	O[C@@]12[C@@H]3[C@H]4[C@@H]3[C@]1(C=O)[C@@H]24	
InChI=1S/C7H6O2/c8-1-6-3-2-4(3)7(6,9)5(2)6/h1-5,9H	InChI=1S/C7H6O2/c8-1-6-3-2-4(3)7(6,9)5(2)6/h1-5,9H/t2-,3+,4-,5+,6-,7-/m1/s1
