21
gdb 95036	2.50162	1.72618	1.22257	1.6715	81.89	-0.2413	0.0211	0.2624	1086.0806	0.185313	-387.113043	-387.105159	-387.104215	-387.145759	31.242	
C	-0.0787319003	 1.5783182111	-0.1485961652	-0.418204
C	 0.1023146168	 0.0660282061	-0.037574272	 0.026137
C	 0.8692275918	-0.5782880455	-1.2001828181	-0.096483
O	 1.1764748474	-1.888102338	-0.753788897	-0.263837
C	 1.5200871265	-1.7953225402	 0.6367370419	 0.071343
C	 2.9994449438	-1.6033261126	 0.8575368244	-0.082172
C	 3.2779808683	-0.4427580191	 1.4453409991	-0.06351
C	 2.0446137024	 0.3659144286	 1.7578681428	-0.274389
C	 0.8685518119	-0.4859986793	 1.1982462186	-0.072386
H	 0.8739243256	 2.0985812425	-0.2892950691	 0.120109
H	-0.7124090162	 1.8257208477	-1.0070332706	 0.115628
H	-0.5581634942	 1.9919426379	 0.7445170359	 0.116664
H	-0.8919993708	-0.3971091302	-0.0206810017	 0.079789
H	 0.2845286842	-0.6660987404	-2.1205707512	 0.103498
H	 1.7840693527	-0.0038627751	-1.4259266932	 0.08408
H	 1.145214374	-2.7150526209	 1.0993992733	 0.076851
H	 3.7220323513	-2.3452545409	 0.5372156266	 0.096573
H	 4.2743392278	-0.0900805447	 1.692937749	 0.09366
H	 1.9364903585	 0.5235452637	 2.8385696291	 0.107073
H	 2.1025117462	 1.3692395534	 1.3209065319	 0.105024
H	 0.1619938423	-0.7086883142	 2.0000376456	 0.07455
45.1012	173.6451	221.8018	273.3319	290.1232	334.4042	474.0965	504.8878	532.6058	622.1646	714.7411	758.4931	794.6166	841.9903	865.7886	901.0465	946.6242	957.4246	970.0531	980.1698	1002.2383	1012.3024	1037.0911	1081.5834	1118.7961	1128.1176	1137.6483	1165.9651	1199.1756	1234.0602	1245.7284	1296.5833	1316.8763	1327.0677	1331.8622	1353.3527	1359.0707	1384.5619	1398.5403	1415.8317	1483.7055	1499.1674	1509.5247	1514.7823	1692.0269	2958.5239	3023.9618	3025.3248	3034.113	3040.1526	3057.1167	3081.8168	3086.5447	3097.4047	3105.875	3176.0296	3207.4672
CC1COC2C=CCC12	C[C@H]1CO[C@H]2C=CC[C@@H]12	
InChI=1S/C8H12O/c1-6-5-9-8-4-2-3-7(6)8/h2,4,6-8H,3,5H2,1H3	InChI=1S/C8H12O/c1-6-5-9-8-4-2-3-7(6)8/h2,4,6-8H,3,5H2,1H3/t6-,7-,8-/m0/s1
