18
gdb 54278	2.35633	1.3796	1.00806	2.0886	77.64	-0.2557	-0.0262	0.2295	1202.5741	0.144951	-401.911213	-401.901625	-401.900681	-401.946091	34.967	
C	-0.1465120376	 0.1726691953	-1.3806199792	-0.499232
C	-0.1161079652	-0.3711012431	 0.0292402299	 0.333459
O	 0.9290749081	-0.5536520328	 0.6209739165	-0.324205
C	-1.4243254571	-0.6891654581	 0.7210913318	 0.222327
C	-2.7396003449	-0.1124690011	 0.1994956381	-0.456915
C	-3.2437086651	-0.7578677404	-1.0094099482	 0.312864
C	-3.6625099221	-1.3026186843	-1.995842101	-0.454377
C	-1.4408472363	-2.0175180803	 1.416260425	-0.242508
N	-1.3357760446	-0.7864038644	 2.188950467	-0.342629
H	 0.87298808	 0.2407914462	-1.7607059076	 0.143258
H	-0.7624907845	-0.4554029467	-2.0300366951	 0.161493
H	-0.6007444101	 1.1707431288	-1.3884197491	 0.14527
H	-3.4734294812	-0.2208436857	 1.0053803181	 0.155317
H	-2.6380860218	 0.9673028852	 0.0312622311	 0.133994
H	-4.0404979612	-1.7797826718	-2.8660118031	 0.201732
H	-2.3877246648	-2.5450858606	 1.4949344541	 0.128211
H	-0.5582993762	-2.6413758462	 1.3116384	 0.132981
H	-0.3538340454	-0.6467360799	 2.4318151617	 0.248959
51.5085	73.1775	127.803	151.8196	246.1511	288.2331	326.3313	348.3683	359.3974	398.891	464.1486	590.8504	623.0889	631.1325	645.6283	688.2502	841.4219	887.2463	922.073	956.5163	973.6998	994.2233	1022.9571	1042.8211	1104.3711	1123.1279	1187.5799	1208.8942	1301.6616	1323.4136	1352.283	1369.4926	1389.389	1458.6961	1465.8407	1476.4968	1499.9938	1779.0635	2237.1061	3028.1644	3040.7162	3073.2858	3108.2994	3112.5943	3159.6328	3207.2374	3459.2915	3503.7628
CC(=O)C1(CC#C)CN1	CC(=O)[C@@]1(CC#C)CN1	
InChI=1S/C7H9NO/c1-3-4-7(5-8-7)6(2)9/h1,8H,4-5H2,2H3	InChI=1S/C7H9NO/c1-3-4-7(5-8-7)6(2)9/h1,8H,4-5H2,2H3/t7-/m1/s1
