20
gdb 58502	2.37485	1.13633	0.98233	4.6169	76.83	-0.2445	-0.0247	0.2198	1310.5556	0.167635	-440.269053	-440.258679	-440.257734	-440.304813	37.457	
C	-0.134359827	 1.4853007672	 0.1176628645	-0.428085
C	-0.2216567247	-0.0276102666	-0.0844696186	 0.095613
O	-1.564986401	-0.4749120244	-0.2265022636	-0.430998
C	 0.6467593651	-0.5173438544	-1.2479292355	 0.31301
C	 0.2945701165	 0.029378043	-2.6184158861	-0.490404
N	 2.0498698931	-0.7101070502	-0.8966951043	-0.36935
C	 1.2333303021	-1.9053301832	-1.2182459603	-0.164784
C	 1.015999419	-2.8850564618	-0.1168669426	 0.174345
O	 0.7565313899	-4.0461868428	-0.3119344068	-0.261109
H	 0.9060348652	 1.7946793939	 0.2536771708	 0.135802
H	-0.5429854966	 2.0328291412	-0.7398878433	 0.109236
H	-0.7044064272	 1.7745924154	 1.0043985975	 0.12972
H	 0.1451792801	-0.5084350143	 0.8258042857	 0.096114
H	-2.0195552691	 0.119270737	-0.8324579786	 0.281679
H	 0.4468814837	 1.1127028253	-2.6676747911	 0.129534
H	 0.9116221344	-0.4314321997	-3.3952694133	 0.124269
H	-0.7520062006	-0.1793233249	-2.8630134788	 0.130561
H	 2.6629675969	-0.4911812052	-1.6784044552	 0.237531
H	 1.360612954	-2.3834149769	-2.1869272784	 0.100393
H	 1.1321761462	-2.4756682585	 0.908959208	 0.086925
35.3728	88.0769	139.4945	195.699	218.2872	229.5133	240.9608	275.1246	286.0981	363.2174	398.811	417.3299	487.1717	523.3441	571.4692	696.4627	830.0485	872.5929	925.6279	966.6141	977.0117	1020.8641	1037.4006	1054.5245	1069.1397	1092.3013	1128.9137	1138.7786	1222.4388	1255.3094	1301.3081	1344.9412	1367.3414	1391.8707	1396.9541	1407.414	1411.0137	1458.6608	1483.187	1493.1665	1497.3751	1506.217	1819.8293	2907.4966	3030.2259	3036.1817	3079.8271	3100.4482	3105.6794	3109.1322	3124.6463	3141.1544	3496.8362	3814.2271
CC(O)C1(C)NC1C=O	C[C@@H](O)[C@@]1(C)N[C@H]1C=O	
InChI=1S/C6H11NO2/c1-4(9)6(2)5(3-8)7-6/h3-5,7,9H,1-2H3	InChI=1S/C6H11NO2/c1-4(9)6(2)5(3-8)7-6/h3-5,7,9H,1-2H3/t4-,5+,6-/m1/s1
