16
gdb 34437	3.02156	1.73647	1.26879	5.1481	72.57	-0.2547	0.017	0.2718	967.9215	0.125983	-400.705489	-400.698689	-400.697745	-400.73664	27.042	
N	 0.0026490129	-1.1317119995	 0.017471576	-0.331647
C	 0.0027014974	 0.024306956	 0.0230176659	 0.188588
C	-0.0277308355	 1.467864403	 0.0632227964	 0.213301
C	-0.9379741865	 2.1649686802	 1.077624144	-0.307887
C	-0.6313024544	 3.6568779287	 0.7435948694	-0.26101
C	 0.3803257645	 3.4872259488	-0.3811780737	-0.045673
C	 1.3123421413	 2.2747863969	-0.0900868247	 0.021787
O	 1.3938168565	 1.9473442581	-1.5140794034	-0.305084
C	-0.0123097451	 2.2800812247	-1.2823127309	 0.021794
H	-1.9871308364	 1.8997908795	 0.9240513	 0.126465
H	-0.6764664226	 1.8945011811	 2.1038246121	 0.126463
H	-1.5217063425	 4.2013154548	 0.4172136999	 0.117274
H	-0.2108004688	 4.1959786379	 1.5970052138	 0.117273
H	 0.822829276	 4.3535955205	-0.8689896627	 0.096108
H	 2.2175904922	 2.2005374174	 0.5120348283	 0.111122
H	-0.706411979	 2.2122255517	-2.1196633703	 0.111125
149.2897	151.4697	245.9462	352.563	420.8785	510.3002	539.4887	623.6079	678.7553	710.7497	733.0509	800.3895	824.8436	904.1716	905.4532	914.0883	942.3145	1010.9291	1043.5844	1047.3007	1075.8572	1140.1254	1171.1154	1172.9753	1185.9382	1221.31	1221.3562	1251.6316	1269.0776	1287.8987	1333.8197	1354.9141	1490.225	1511.321	2357.2025	3059.1561	3069.7446	3095.7848	3116.2007	3125.5997	3128.4301	3151.1836
N#CC12CCC3C1OC23	N#C[C@@]12CC[C@H]3[C@@H]1O[C@@H]23	
InChI=1S/C7H7NO/c8-3-7-2-1-4-5(7)9-6(4)7/h4-6H,1-2H2	InChI=1S/C7H7NO/c8-3-7-2-1-4-5(7)9-6(4)7/h4-6H,1-2H2/t4-,5-,6+,7-
