25
gdb 89410	2.54083	1.3794	1.05336	0.2759	91.83	-0.2491	0.0756	0.3247	1287.3276	0.229417	-352.368157	-352.358596	-352.357652	-352.401805	38.112	
C	-0.0162899316	 1.5712356766	-0.0683287328	-0.414591
C	 0.1051426262	 0.0491879506	-0.0034865286	 0.053685
C	 0.8110859175	-0.5911822168	-1.2233625226	-0.303222
C	 1.2533968327	-1.9836435983	-0.7501730996	 0.377994
C	 0.7515120489	-3.194750324	-1.5010617243	-0.488667
C	 2.5848861809	-2.0256402368	-0.0461973596	-0.332165
C	 1.3106985783	-1.9218336783	 0.7650682017	-0.081163
C	 0.8259364959	-0.5471457194	 1.250892504	-0.011635
C	 1.927635483	 0.3344667591	 1.8563116072	-0.395221
H	 0.9656919618	 2.0532808312	-0.1176538626	 0.114514
H	-0.5771340959	 1.8770448163	-0.9582298201	 0.109234
H	-0.5419941079	 1.9722542162	 0.8052198497	 0.109924
H	-0.9110936319	-0.3672221081	 0.0143799438	 0.06906
H	 0.1367217666	-0.6541406884	-2.0837407813	 0.092295
H	 1.6683068488	 0.0156815592	-1.5430753005	 0.090274
H	 1.1492826151	-3.2265938483	-2.5227571392	 0.113772
H	 1.0516430054	-4.1224673636	-1.0024568379	 0.110374
H	-0.342940722	-3.194934568	-1.5733073417	 0.110813
H	 3.1076294821	-2.9770898455	-0.0136883288	 0.100024
H	 3.2454882689	-1.1676225331	-0.1215900643	 0.101876
H	 1.0369289762	-2.7917349244	 1.354361858	 0.073571
H	 0.0792489045	-0.7055669861	 2.0380046744	 0.0659
H	 2.688159729	 0.6184466779	 1.1222664135	 0.112335
H	 1.5130782863	 1.2583268308	 2.2715512535	 0.109399
H	 2.4375425112	-0.1964241886	 2.6665864382	 0.111619
71.8915	158.0538	220.1612	243.1292	249.6064	257.001	274.9175	321.7488	373.1542	392.4411	451.7101	491.2317	553.8375	627.0755	719.6577	756.288	821.8093	859.4678	884.138	930.7552	944.5657	959.4487	966.5561	1005.6789	1019.646	1037.7427	1062.4388	1073.3629	1090.3403	1111.6736	1117.8	1158.2688	1182.2839	1198.8975	1272.4761	1293.9407	1300.8962	1314.7123	1347.654	1369.2598	1373.6662	1396.316	1408.705	1415.6277	1421.7189	1484.0588	1488.7481	1491.4774	1494.4632	1499.9485	1501.5674	1506.4219	1513.0001	3000.1951	3015.0822	3019.4263	3027.6688	3029.8412	3035.2347	3070.3689	3072.829	3091.0078	3091.6372	3097.5336	3102.4623	3103.5641	3117.9554	3147.0713	3199.0658
CC1CC2(C)CC2C1C	C[C@H]1C[C@@]2(C)C[C@H]2[C@H]1C	
InChI=1S/C9H16/c1-6-4-9(3)5-8(9)7(6)2/h6-8H,4-5H2,1-3H3	InChI=1S/C9H16/c1-6-4-9(3)5-8(9)7(6)2/h6-8H,4-5H2,1-3H3/t6-,7-,8-,9-/m0/s1
