20
gdb 12116	2.95884	1.78301	1.6217	2.975	74.26	-0.2371	0.072	0.3091	935.7448	0.176918	-345.13532	-345.126746	-345.125802	-345.168223	32.802	
C	 0.2884460327	 0.9445093106	 1.1450313584	-0.46504
C	-0.0042965533	-0.0182642046	 0.0062986237	 0.252896
C	 0.6861506745	 0.2261352062	-1.289169003	-0.297147
N	 1.0854463049	-0.9079008856	-0.4380029184	-0.339317
C	-1.3679822354	-0.6782743599	 0.0818966739	 0.309244
C	-1.5018957866	-1.7081540111	 1.1869090413	-0.456419
C	-2.5475023995	 0.1306327766	-0.3284904844	-0.27706
N	-2.1136709786	-1.0219834784	-1.1379099333	-0.3521
H	 1.2759410663	 1.4024071668	 1.0257307137	 0.109925
H	-0.454070022	 1.7481124675	 1.1839316892	 0.126865
H	 0.2715864259	 0.4314925005	 2.1122972198	 0.128083
H	 0.243010684	-0.0554407668	-2.240547621	 0.115271
H	 1.3377118862	 1.0948074351	-1.3514962263	 0.109706
H	 1.9458590269	-0.6865959138	 0.0581593949	 0.226277
H	-1.3802812641	-1.2587000713	 2.1782397871	 0.108031
H	-2.4860088815	-2.179704677	 1.1407815655	 0.125188
H	-0.7404554367	-2.4846530807	 1.0648100783	 0.135236
H	-3.5003942381	 0.0068898959	 0.1797776607	 0.112575
H	-2.3691022774	 1.1308979905	-0.7170445073	 0.103336
H	-1.6298315384	-0.6944883106	-1.9684917229	 0.224452
42.4454	195.8204	210.1603	223.9822	260.4143	298.3998	348.8037	370.1359	421.0658	486.2461	522.3857	602.3057	802.2026	831.4532	853.5233	904.0176	920.5744	934.9052	967.5614	979.9441	998.1077	1038.0282	1056.4029	1075.1527	1113.9705	1120.8756	1138.9137	1152.0492	1251.4889	1263.7224	1277.4004	1321.4874	1365.2356	1400.2515	1410.1955	1415.0435	1479.9138	1489.8171	1499.2701	1503.2327	1512.5909	1522.4317	3030.6801	3038.8907	3097.6132	3098.2532	3101.7186	3103.2505	3106.1718	3128.2574	3180.0926	3181.6855	3488.9579	3520.643
CC1(CN1)C1(C)CN1	C[C@]1(CN1)[C@@]1(C)CN1	
InChI=1S/C6H12N2/c1-5(3-7-5)6(2)4-8-6/h7-8H,3-4H2,1-2H3	InChI=1S/C6H12N2/c1-5(3-7-5)6(2)4-8-6/h7-8H,3-4H2,1-2H3/t5-,6+
