19
gdb 43356	2.84917	1.60478	1.13049	3.5489	80.78	-0.2324	-0.0432	0.1892	1085.4841	0.162571	-385.945948	-385.938634	-385.937689	-385.978152	28.939	
O	-0.0090166197	-0.0315433159	-0.0377010914	-0.340073
C	-0.0452835031	 1.1778237152	-0.0307429089	 0.371622
C	-1.2552841308	 2.0361932557	-0.0731979892	-0.186545
C	-0.9143156976	 3.3295743078	-0.0167687792	-0.066412
C	 0.5744486417	 3.5513997134	 0.0774716624	-0.053784
C	 1.0721947088	 4.1928023904	 1.4038651159	-0.223092
C	 2.3580552184	 3.4140288609	 1.7306475531	-0.197492
C	 2.0123444959	 1.9661795323	 1.3409976203	-0.214453
C	 1.1691409856	 2.1154356563	 0.0497021621	-0.120858
H	-2.2558386274	 1.6248266576	-0.1216025994	 0.113526
H	-1.6157083105	 4.1587405673	-0.0184229664	 0.113506
H	 0.9213440345	 4.153463582	-0.7705803665	 0.08617
H	 1.2268137983	 5.2717090421	 1.3185675883	 0.099311
H	 0.3318303443	 4.0303620972	 2.1959642639	 0.103035
H	 3.1840574091	 3.7821217095	 1.1092362651	 0.099992
H	 2.6662499328	 3.516565696	 2.7753671134	 0.098679
H	 2.8902231119	 1.3333348481	 1.1953550737	 0.109347
H	 1.4105636182	 1.4999847368	 2.1295866897	 0.109363
H	 1.7906141496	 1.9482466072	-0.8350559469	 0.09816
53.1361	189.6438	209.5396	280.4517	367.2731	474.815	537.6173	559.0303	669.6053	690.2422	729.0538	789.1465	822.0036	872.9875	879.6462	921.882	927.5304	947.8742	999.5576	1007.4858	1030.9181	1045.9953	1093.3454	1124.5659	1154.6749	1180.0331	1193.8707	1215.4173	1251.8927	1287.5504	1306.0395	1312.0372	1330.9271	1340.126	1348.8632	1367.3637	1490.7005	1492.7651	1509.786	1643.6218	1808.7871	3029.7889	3029.935	3039.8093	3045.2117	3065.985	3087.5185	3096.802	3109.3311	3177.1613	3221.0005
O=C1C=CC2CCCC12	O=C1C=C[C@H]2CCC[C@@H]12	
InChI=1S/C8H10O/c9-8-5-4-6-2-1-3-7(6)8/h4-7H,1-3H2	InChI=1S/C8H10O/c9-8-5-4-6-2-1-3-7(6)8/h4-7H,1-3H2/t6-,7-/m1/s1
