23
gdb 59517	3.48133	1.00173	0.87423	1.1722	85.71	-0.2452	0.0812	0.3264	1421.9259	0.204364	-388.266169	-388.256427	-388.255483	-388.300306	37.793	
C	 0.0339171321	 1.5155104031	-0.0428800762	-0.38896
C	 0.066969679	-0.0140261918	 0.082388712	 0.024413
C	 0.735260891	-0.446964301	 1.3943398358	-0.389423
C	-1.3424998617	-0.6003706209	-0.0305027936	 0.056461
C	-2.1085393558	-0.5020162983	-1.4000726838	-0.340185
C	-2.2837020027	-2.0258378192	-1.3755278505	 0.406365
O	-3.4585273818	-2.6777571172	-1.7126090833	-0.465784
C	-0.9543583378	-2.7211116413	-1.3386062084	-0.344726
C	-1.5262169879	-2.1284740332	-0.0631111179	-0.138134
H	 1.0433349067	 1.9380149931	-0.0010375165	 0.107871
H	-0.4233016494	 1.8334465979	-0.9853525065	 0.113467
H	-0.545758512	 1.9612850042	 0.7746021205	 0.109958
H	 0.6701688139	-0.4065134431	-0.7484091416	 0.066355
H	 0.1714438451	-0.07892223	 2.2604271577	 0.108789
H	 0.7925677419	-1.5372385624	 1.4719752447	 0.117885
H	 1.7532198969	-0.050432015	 1.4706236181	 0.107154
H	-1.9633939706	-0.1715967639	 0.7650616482	 0.069854
H	-3.0605249655	 0.0251839761	-1.3091586042	 0.107181
H	-1.5535770246	-0.0913708403	-2.2515377571	 0.086156
H	-3.4216355821	-2.8998953072	-2.6495093429	 0.283122
H	-1.0222345488	-3.8036161085	-1.3840799139	 0.110642
H	-0.0735602983	-2.3027667623	-1.8203907554	 0.10243
H	-1.7337014777	-2.7571743488	 0.7942218948	 0.089109
79.0566	122.5896	145.1327	231.1762	248.2905	255.7133	295.0847	328.0776	360.9569	401.0684	419.0189	451.9728	522.0121	626.7561	697.9151	794.6813	851.0769	889.8811	913.8411	929.3377	951.1685	960.2741	972.9929	974.0626	1016.0892	1029.5493	1057.8857	1083.2307	1098.7987	1141.4095	1184.7694	1207.8866	1221.4187	1235.601	1254.6166	1295.4867	1306.1595	1319.0268	1346.7949	1386.4209	1397.28	1411.4219	1420.6514	1477.9594	1488.3325	1492.1814	1503.8151	1506.8497	1511.2874	3002.648	3021.9664	3025.5497	3033.9797	3034.7985	3086.0896	3092.3754	3099.8401	3101.9377	3104.9349	3110.1539	3183.2785	3199.7213	3790.9575
CC(C)C1CC2(O)CC12	CC(C)[C@H]1C[C@@]2(O)C[C@@H]12	
InChI=1S/C8H14O/c1-5(2)6-3-8(9)4-7(6)8/h5-7,9H,3-4H2,1-2H3	InChI=1S/C8H14O/c1-5(2)6-3-8(9)4-7(6)8/h5-7,9H,3-4H2,1-2H3/t6-,7+,8-/m1/s1
