12
gdb 48232	2.78198	1.3781	0.92158	1.4482	64.99	-0.2769	-0.0851	0.1919	1140.5352	0.074198	-472.639595	-472.630779	-472.629835	-472.675766	29.638	
O	-0.3441876004	 0.0293441824	 0.0070186763	-0.269588
C	-0.1765203124	 1.2158358075	 0.0107746289	 0.175372
N	 1.0888310417	 1.8574446508	 0.0016668907	-0.229776
C	 1.102659106	 3.2798750259	 0.0084290337	 0.188968
O	 0.1029670668	 3.9457321758	 0.0213783619	-0.291307
C	 2.3513147	 1.1926994634	-0.0136564325	 0.333873
O	 3.3784691472	 1.8330409056	-0.019015302	-0.315056
C	 2.3612694746	-0.2455857972	-0.0225856102	 0.222004
C	 2.5661309793	-1.4301851708	-0.0318921007	-0.355547
H	-0.978239769	 1.9663943369	 0.0218229096	 0.153928
H	 2.1255413501	 3.6738769663	 0.0003659283	 0.161502
H	 2.6995103861	-2.4850767565	-0.0391422539	 0.225629
4.8071	140.0425	159.4393	174.2652	236.2472	243.3963	288.0661	300.6335	443.1194	461.351	621.7879	655.2002	731.4927	738.3803	774.3536	794.5046	1053.8747	1059.1462	1070.9989	1229.262	1237.0667	1417.8958	1431.7855	1763.0268	1820.4991	1848.5011	2226.3186	3063.0056	3086.9565	3493.7549
O=CN(C=O)C(=O)C#C	O=CN(C=O)C(=O)C#C	
InChI=1S/C5H3NO3/c1-2-5(9)6(3-7)4-8/h1,3-4H	InChI=1S/C5H3NO3/c1-2-5(9)6(3-7)4-8/h1,3-4H
