16
gdb 46441	3.49785	1.18974	1.08476	3.2768	74.23	-0.2581	-0.0376	0.2206	1121.5682	0.125438	-400.787698	-400.780071	-400.779127	-400.819994	29.056	
O	 0.0325564703	 0.005906525	 0.042497402	-0.313778
C	-0.000662721	 1.2058127159	-0.0385919296	 0.428031
C	-1.2669104196	 2.0686095365	-0.159867864	-0.355387
C	-0.819520119	 3.3775134804	-0.8389263143	-0.285464
C	 0.6962411792	 3.4726737571	-0.5891545787	 0.182692
C	 1.1590168148	 3.3091050216	 0.8338713927	-0.320711
C	 1.1958168449	 2.1107365151	-0.0918847638	-0.182661
C	 1.4861608211	 4.2609126073	-1.4918023282	 0.211779
N	 2.1079278336	 4.9028770456	-2.2263936003	-0.337336
H	-2.0314990885	 1.526307853	-0.71808653	 0.145458
H	-1.67036745	 2.2394435623	 0.8449168934	 0.139836
H	-0.9946065963	 3.3261945162	-1.916964416	 0.137284
H	-1.3417171803	 4.2611869815	-0.4628053126	 0.126253
H	 2.1203565647	 3.7349172755	 1.0943043942	 0.153614
H	 0.4158579303	 3.3504040546	 1.6230513727	 0.136273
H	 2.1524901258	 1.6973853424	-0.3826727575	 0.134116
96.99	140.7916	159.6653	272.129	342.2479	433.7514	475.748	532.6989	560.8881	578.4063	646.507	671.9944	769.5313	812.9999	885.4416	925.2633	944.6405	980.9977	1002.129	1047.6205	1059.3973	1080.3073	1165.0045	1176.6963	1226.1256	1234.9659	1263.7643	1290.5995	1317.776	1385.4278	1458.6725	1484.4264	1502.9164	1844.1777	2353.5403	3051.4717	3064.1046	3105.6177	3127.1216	3140.5438	3213.1262	3234.5991
O=C1CCC2(CC12)C#N	O=C1CC[C@]2(C[C@@H]12)C#N	
InChI=1S/C7H7NO/c8-4-7-2-1-6(9)5(7)3-7/h5H,1-3H2	InChI=1S/C7H7NO/c8-4-7-2-1-6(9)5(7)3-7/h5H,1-3H2/t5-,7-/m0/s1
