17
gdb 66110	2.69266	1.51281	1.36406	4.0204	72.03	-0.2623	0.022	0.2843	1013.4406	0.136574	-417.998201	-417.990201	-417.989257	-418.030563	30.546	
C	 0.0714322591	 1.4977157205	-0.0312899565	-0.429675
C	 0.0196599904	-0.028683294	 0.0070804899	 0.240839
O	 0.7394095491	-0.5235188383	-1.1203953624	-0.279565
C	 1.3647694871	-1.7709571548	-0.8053776333	-0.094029
C	 1.5577502589	-1.7552078589	 0.6950821544	-0.04658
N	 2.1639240882	-0.4912400982	 1.1631587707	-0.339257
C	 0.704587239	-0.6685862273	 1.2188094348	-0.093419
C	-1.3857608432	-0.510270963	-0.037743324	 0.252079
N	-2.4750950148	-0.895091817	-0.0658749419	-0.337201
H	 1.1128080043	 1.8046360154	 0.0793637432	 0.151786
H	-0.3158474892	 1.8617469257	-0.9852350212	 0.14457
H	-0.527577892	 1.9251783223	 0.7772534934	 0.128783
H	 0.727565494	-2.6190259116	-1.0946489624	 0.114099
H	 2.2982853699	-1.8115339217	-1.3735739195	 0.125424
H	 1.7240197057	-2.6788640739	 1.2375896334	 0.106958
H	 2.5500391906	-0.6232709384	 2.0948430674	 0.240696
H	 0.1789145629	-0.720391767	 2.1649961241	 0.114493
107.7252	146.4451	207.0892	234.4896	263.8964	341.3372	390.5956	463.9378	489.1148	567.3753	634.2771	724.9157	787.6338	826.0345	873.0113	881.911	898.2394	920.5971	981.6855	1022.6542	1063.9105	1094.656	1112.1233	1152.3056	1160.9484	1186.7321	1205.8907	1233.8286	1257.5829	1351.3104	1385.781	1400.8027	1429.4805	1481.8883	1491.5408	1504.1887	2350.4214	3007.9216	3056.5227	3092.1284	3134.7321	3152.8319	3180.6025	3191.2645	3506.8952
CC1(OCC2NC12)C#N	C[C@]1(OC[C@H]2N[C@@H]12)C#N	
InChI=1S/C6H8N2O/c1-6(3-7)5-4(8-5)2-9-6/h4-5,8H,2H2,1H3	InChI=1S/C6H8N2O/c1-6(3-7)5-4(8-5)2-9-6/h4-5,8H,2H2,1H3/t4-,5-,6+/m1/s1
