18
gdb 99694	2.13955	1.02071	0.78869	5.129	78.06	-0.2438	0.0102	0.254	1517.9521	0.14553	-439.085864	-439.075377	-439.074432	-439.123817	35.426	
C	 0.1269301708	 1.4301395157	-0.4562324311	-0.329115
N	 0.012645375	 0.0547252964	 0.0325200927	-0.317826
H	 0.6381370022	-0.5614280592	-0.4722185087	 0.24078
H	-0.3792600509	 0.1072665433	 1.9010478336	 0.3073
C	-1.3583081523	-0.4839977131	-0.0264788742	-0.277754
C	-1.3389902013	-1.9350722862	-0.1692848096	 0.054868
C	-1.3057686511	-3.1338895872	-0.27254282	 0.101574
C	-1.287546962	-4.5835347922	-0.3974203528	-0.49996
C	-2.1119896734	-0.1095318734	 1.2875688685	 0.432216
O	-1.2785209667	 0.1627580505	 2.2972076495	-0.362637
O	-3.3064998977	-0.083588067	 1.3744730391	-0.333904
H	 1.1714268813	 1.7465244769	-0.4007137654	 0.132338
H	-0.2262969711	 1.556560485	-1.4910970521	 0.119692
H	-0.4594247446	 2.09514655	 0.1858482331	 0.145557
H	-1.9430948011	-0.0428598494	-0.8477706335	 0.119807
H	-2.3053589841	-4.9874020187	-0.3773427351	 0.161198
H	-0.8226544796	-4.8976429955	-1.3381359637	 0.150968
H	-0.7296586536	-5.0459165159	 0.4237834794	 0.154897
16.9058	51.0609	79.9137	110.1236	126.1189	205.0623	252.9343	280.9981	331.5334	353.9782	415.4314	476.6915	528.9746	645.6869	701.786	763.2443	862.1002	869.2334	888.2228	987.1184	1050.7236	1054.0073	1114.0565	1142.789	1174.5417	1178.0585	1229.0215	1283.9519	1326.0385	1410.4556	1416.4635	1460.4584	1465.1077	1475.6347	1476.8821	1495.7023	1513.3249	1884.5286	2373.471	2989.6839	2991.1143	3031.6339	3078.6047	3093.8546	3096.6969	3121.6033	3451.1465	3553.5021
C[NH2+]C(C#CC)C([O-])=O	CN[C@@H](C#CC)C(=O)O	
InChI=1S/C6H9NO2/c1-3-4-5(7-2)6(8)9/h5,7H,1-2H3,(H,8,9)	InChI=1S/C6H9NO2/c1-3-4-5(7-2)6(8)9/h5,7H,1-2H3,(H,8,9)/t5-/m0/s1
