18
gdb 41388	2.69303	1.95764	1.35091	1.6709	77.85	-0.2233	0.0047	0.2279	965.1474	0.149819	-401.888689	-401.881721	-401.880777	-401.919876	28.183	
C	-0.1431323166	 1.4324332346	 0.0467207098	-0.261851
N	 1.3688311728	 1.4397225682	 0.0635109347	-0.398315
C	 1.3935463919	 0.1613821791	-0.6819315657	 0.277036
C	 1.8522603471	 0.0165736708	-2.1424108031	-0.144885
O	 2.2763678777	-1.3372540665	-1.901291841	-0.290763
C	 2.0650612889	-1.2299608662	-0.4706101762	 0.041225
C	 0.9331215286	-2.1682851027	 0.0340343091	-0.267381
C	-0.2912587204	-1.2663664363	 0.1774069183	-0.202014
C	-0.0262626879	-0.0444962662	-0.2704777367	 0.194596
H	-0.6098378393	 1.7053453557	 0.997521641	 0.120404
H	-0.5739738175	 2.0449514442	-0.7561449488	 0.106621
H	 1.7879379812	 2.2173008952	-0.4400346069	 0.216984
H	 1.0928633782	 0.0911737478	-2.9305719615	 0.104165
H	 2.7027283325	 0.6680714139	-2.3959105854	 0.092436
H	 3.0050041371	-1.323656097	 0.0823835663	 0.080489
H	 0.8079998909	-2.9931349149	-0.6772499229	 0.124531
H	 1.1702725844	-2.6204927007	 1.0056490278	 0.107591
H	-1.1824156796	-1.5883558391	 0.7047561311	 0.099132
127.0996	226.8463	239.8029	278.8664	392.9221	457.8404	516.8496	616.4636	681.8551	689.6083	788.8932	819.9412	847.4228	871.6362	919.7977	934.7829	958.4757	984.6738	990.8798	1016.7704	1035.7968	1055.1562	1094.8235	1123.4758	1149.0244	1158.8824	1177.8222	1212.8644	1234.9656	1274.6388	1296.6909	1325.7213	1344.3663	1353.0506	1376.1445	1466.7079	1502.8902	1515.9021	1739.1611	2982.4428	3013.1752	3023.9877	3046.6233	3058.6245	3066.3973	3083.436	3193.3989	3495.5514
C1NC23COC2CC=C13	C1N[C@@]23CO[C@@H]2C[CH][C]13	
InChI=1S/C7H9NO/c1-2-6-7(4-9-6)5(1)3-8-7/h1,6,8H,2-4H2	InChI=1S/C7H9NO/c1-2-6-7(4-9-6)5(1)3-8-7/h1,6,8H,2-4H2/t6-,7-/m1/s1
