14
gdb 24831	2.72234	1.65453	1.02909	5.2112	75.64	-0.2523	-0.0699	0.1824	1064.7041	0.102662	-436.698078	-436.69079	-436.689846	-436.731143	26.964	
N	-0.0562288528	 1.1293422578	 0.8719783181	-0.448653
C	-0.0145417298	 0.1123923458	 0.0964629741	 0.146756
C	 1.2387158449	-0.4846940618	-0.3653497791	-0.169915
C	 1.5387534437	-1.5222984657	-1.1579594962	 0.04199
O	 0.7581612174	-2.4031611913	-1.8254112106	-0.1917
C	-0.5899929128	-2.4060090338	-1.8203663977	 0.05833
C	-1.481764907	-1.6124710922	-1.2107201905	-0.208493
C	-1.3726851792	-0.4458298486	-0.3219118486	 0.319807
O	-2.3879952794	 0.078149971	 0.0829310723	-0.29424
H	 0.8903625536	 1.4417260206	 1.1051531159	 0.220838
H	 2.1251529422	 0.0187844838	 0.0138343609	 0.110007
H	 2.5755396433	-1.7708247887	-1.3528751333	 0.141302
H	-0.9315194725	-3.225512516	-2.4432331173	 0.144554
H	-2.5179345619	-1.8718888608	-1.4029390581	 0.129418
25.1228	110.2646	343.8712	353.9825	360.7795	383.0814	426.377	528.6483	572.8877	647.3347	756.1313	800.6128	816.3569	874.1551	877.9967	936.9109	941.6125	974.6551	994.1985	1004.1737	1155.9977	1251.0944	1293.8806	1383.7135	1392.6899	1431.819	1453.5976	1648.0152	1675.5894	1701.0356	1762.9777	3152.5438	3184.7063	3206.3397	3210.4108	3429.8874
N=C1C=COC=CC1=O	[NH]C1=C[CH]OC=CC1=O	
InChI=1S/C6H5NO2/c7-5-1-3-9-4-2-6(5)8/h1-4,7H	InChI=1S/C6H5NO2/c7-5-1-3-9-4-2-6(5)8/h1-4,7H
