20
gdb 99166	5.13006	0.68954	0.67756	2.9237	77.58	-0.2495	0.0251	0.2746	1730.7001	0.17011	-440.298291	-440.288406	-440.287461	-440.335033	34.362	
C	 0.0046176655	 1.5775309559	 0.109170244	-0.367721
C	-0.0866249696	 0.0666466797	-0.103438492	-0.304832
C	 0.6129409739	-0.3803086648	-1.3857418093	 0.424241
O	 0.7640727059	 0.3540638997	-2.3444611207	-0.369031
N	 1.0340783262	-1.6864676704	-1.3803795072	-0.334375
C	 1.6558389671	-2.3166348896	-2.5100198505	 0.002096
C	 2.9641528223	-3.1136457495	-2.2915068086	-0.091701
O	 2.4164573124	-4.2614510936	-2.9686274722	-0.267865
C	 1.1018352479	-3.67337434	-3.0088195762	-0.091033
H	 1.038452061	 1.8887591845	 0.285197099	 0.123907
H	-0.3506868536	 2.1037754798	-0.7788540796	 0.14576
H	-0.5961851704	 1.8846239888	 0.9695661939	 0.109338
H	 0.3191296413	-0.4791663957	 0.7569626804	 0.101369
H	-1.1385811931	-0.2376189133	-0.1896822979	 0.130443
H	 0.879685665	-2.2372676108	-0.5503798103	 0.24156
H	 1.7281620773	-1.5594751698	-3.2893349363	 0.135922
H	 3.8695180153	-2.7348477802	-2.7780031803	 0.115628
H	 3.1849275425	-3.3214671092	-1.2338098116	 0.090541
H	 0.4090028181	-4.1557273125	-2.3030443922	 0.090337
H	 0.664292415	-3.6979607893	-4.0127181224	 0.115416
35.4199	50.45	80.1403	87.1378	172.0063	204.7283	290.3036	316.3582	385.3808	450.9946	477.2219	590.0789	683.2788	758.0708	812.8618	883.5616	885.0592	909.2813	994.6153	1021.0398	1023.4173	1035.439	1082.3876	1098.0878	1123.5927	1151.1512	1158.7077	1189.5258	1237.5386	1278.743	1286.6738	1300.6049	1339.913	1373.7934	1398.0846	1410.9328	1465.2062	1493.0092	1504.631	1506.8313	1533.5237	1538.7023	1782.3113	2985.9554	2997.2856	3022.0738	3050.4243	3058.5752	3064.7567	3065.8569	3117.1703	3139.9931	3140.7027	3625.891
CCC(=O)NC1COC1	CCC(=O)NC1COC1	
InChI=1S/C6H11NO2/c1-2-6(8)7-5-3-9-4-5/h5H,2-4H2,1H3,(H,7,8)	InChI=1S/C6H11NO2/c1-2-6(8)7-5-3-9-4-5/h5H,2-4H2,1H3,(H,7,8)
