14
gdb 116824	18.9694	0.39481	0.38865	6.5397	101.91	-0.2672	-0.0809	0.1863	2617.9044	0.09916	-399.49739	-399.487891	-399.486947	-399.532957	31.543	
C	-0.0317274546	 1.4172966023	 0.00981618	-0.222799
O	 0.0489021389	 0.0067407638	 0.0015230871	-0.22959
C	-1.2242119048	-0.5963320863	 0.0101224698	-0.225254
C	-1.0874348373	-2.0449933599	 0.0012230911	 0.120877
C	-1.0094771444	-3.2538251349	-0.005868867	-0.07531
C	-0.9152682696	-4.6013837903	-0.0138549523	-0.207487
C	-0.8331298579	-5.8143454861	-0.0210916099	 0.453077
C	-0.741806418	-7.1703739812	-0.0291912767	 0.076455
N	-0.6648022825	-8.3313982653	-0.0362069835	-0.325169
H	 0.9927462424	 1.7935802512	 0.0023409507	 0.141989
H	-0.5614164771	 1.7997771066	-0.8761529959	 0.113198
H	-0.5448785939	 1.7902220351	 0.90948564	 0.113198
H	-1.8017374836	-0.2937929018	 0.9021494609	 0.133407
H	-1.8181139174	-0.2844630932	-0.8678278344	 0.133409
48.8437	58.6784	96.508	133.6862	204.4624	233.0641	262.676	334.8302	358.7018	429.932	533.6347	535.2226	619.6639	627.2911	649.9407	949.5322	985.4434	1015.5715	1147.1687	1181.765	1219.2506	1248.6769	1307.1443	1411.9142	1476.3482	1486.2609	1488.8644	1513.0534	2219.5062	2346.2315	2360.2295	2942.9061	2960.8045	2979.0368	3027.3382	3132.1885
COCC#CC#CC#N	COCC#CC#CC#N	
InChI=1S/C7H5NO/c1-9-7-5-3-2-4-6-8/h7H2,1H3	InChI=1S/C7H5NO/c1-9-7-5-3-2-4-6-8/h7H2,1H3
