19
gdb 107753	2.78315	1.45988	1.29965	1.5935	75.11	-0.2258	0.0733	0.2991	1070.4148	0.158423	-422.955634	-422.947255	-422.94631	-422.988458	32.477	
C	-0.0155851148	 1.4214827219	 0.022389897	-0.265925
O	 0.0069901278	 0.0061140698	 0.0347584152	-0.297612
C	 0.6249823397	-0.5540903764	-1.0634695288	 0.338865
C	-0.0118331588	-0.5061044007	-2.4880487514	-0.291215
C	 0.6701057044	-1.8527821639	-2.7194607214	-0.154597
C	 2.0441347259	-1.7949709325	-1.9784910895	-0.114441
C	 2.1568632117	-0.4156662491	-1.3291254855	-0.293529
C	 0.7903929714	-2.1348452835	-1.2423946779	 0.315468
O	 0.5238283354	-3.208344419	-0.4388770671	-0.446915
H	 0.9992947089	 1.8434094593	 0.0102930214	 0.115315
H	-0.5665366987	 1.8124611909	-0.8449758687	 0.11295
H	-0.5209324592	 1.7413675459	 0.9361859447	 0.129128
H	-1.100090924	-0.6060999427	-2.4371812175	 0.096476
H	 0.2585852433	 0.3350561269	-3.1360500512	 0.087846
H	 0.5222898911	-2.5536328607	-3.5304799508	 0.089271
H	 2.8398982626	-2.4695129926	-2.2648572548	 0.09242
H	 2.4979189254	 0.4290259299	-1.9382875521	 0.085899
H	 2.7226948488	-0.4625389689	-0.3946621893	 0.107786
H	-0.4325821109	-3.3130392046	-0.3750815223	 0.292811
77.5621	146.9209	188.9768	232.1047	273.2474	332.7759	391.7617	399.5004	489.2468	509.0384	583.6314	688.8823	710.6585	742.6257	857.7166	889.2086	913.7715	924.3879	966.57	989.4372	1009.9815	1052.9625	1088.3807	1093.5086	1102.6369	1130.9063	1155.1899	1180.7779	1201.4802	1217.7899	1230.4708	1258.2549	1270.665	1315.1204	1339.3765	1481.0285	1484.5698	1489.0097	1491.0574	1505.8381	1515.8484	2990.4627	3029.2565	3037.8987	3043.3406	3095.2702	3103.1077	3121.3481	3200.3629	3209.8563	3786.0098
COC12CC3C(C1)C23O	CO[C@@]12C[C@H]3[C@@H](C1)[C@@]23O	
InChI=1S/C7H10O2/c1-9-6-2-4-5(3-6)7(4,6)8/h4-5,8H,2-3H2,1H3	InChI=1S/C7H10O2/c1-9-6-2-4-5(3-6)7(4,6)8/h4-5,8H,2-3H2,1H3/t4-,5+,6-,7+
