15
gdb 46479	3.05385	1.51081	1.09731	6.8767	67.58	-0.2343	-0.0681	0.1662	1052.7056	0.113886	-453.961146	-453.953434	-453.95249	-453.993874	28.532	
O	 0.0021432286	-0.0436657205	-0.0230523143	-0.350366
C	-0.0015295696	 1.1633001633	-0.008633017	 0.343067
N	-1.0915535369	 1.9909508209	-0.0216765349	-0.343186
C	-0.8395393285	 3.4237663552	 0.0261718569	-0.266346
C	 0.6855039391	 3.5109665001	 0.0041379209	 0.197233
C	 1.4365378048	 4.5799525398	-0.7182233215	-0.262053
N	 1.4374534226	 4.5422076025	 0.7425614355	-0.3205
C	 1.2195211199	 2.1071392911	 0.0303838362	 0.259022
O	 2.3694484103	 1.7652302237	 0.0464625921	-0.286064
H	-2.0234199199	 1.6061006222	-0.0369332292	 0.263547
H	-1.2997745734	 3.9362068963	-0.8272009116	 0.127478
H	-1.2501698617	 3.8649223134	 0.9449484102	 0.125139
H	 2.383882999	 4.3131040121	-1.1780037471	 0.151098
H	 0.8556310341	 5.3408123261	-1.2338467396	 0.12338
H	 0.7820425817	 5.2305971537	 1.1094532736	 0.238551
54.4889	134.0137	227.988	255.012	321.4445	334.3759	449.1916	465.3027	576.8088	588.7181	653.7203	733.8285	776.8519	863.2591	868.7708	943.5337	976.3964	1000.8242	1039.6159	1070.1375	1111.6789	1141.3292	1217.0678	1235.761	1269.9956	1294.9246	1341.3075	1393.6608	1453.7478	1496.3455	1528.0044	1844.2467	1862.1429	3002.7928	3042.2049	3106.2304	3202.7695	3479.6697	3631.9133
O=C1NCC2(CN2)C1=O	O=C1NC[C@]2(CN2)C1=O	
InChI=1S/C5H6N2O2/c8-3-4(9)6-1-5(3)2-7-5/h7H,1-2H2,(H,6,9)	InChI=1S/C5H6N2O2/c8-3-4(9)6-1-5(3)2-7-5/h7H,1-2H2,(H,6,9)/t5-/m0/s1
