19
gdb 119529	4.31376	1.00175	0.89896	2.3347	76.9	-0.2442	0.0032	0.2475	1340.17	0.158364	-423.000867	-422.992282	-422.991337	-423.034575	31.899	
C	 0.0125807541	 1.3533568585	 0.2335830419	-0.220047
O	 0.010321244	-0.0512318148	 0.1461963919	-0.236561
C	-1.2790857909	-0.5848586065	-0.0705843215	-0.165012
C	-1.1661536006	-2.0781529453	-0.1633365885	 0.41798
C	-0.2247938776	-2.7231509896	-1.1815911472	-0.32174
C	-0.8847232749	-4.0569069746	-1.4660668112	-0.080963
C	-2.0370551287	-4.2035333227	-0.8068765312	-0.079699
C	-2.2861478512	-3.0127585013	 0.060244461	-0.08273
O	-1.2625155657	-2.8105082261	 1.0638351351	-0.296693
H	 1.0463806372	 1.669513395	 0.3914384575	 0.129316
H	-0.3663577176	 1.8213370256	-0.6895214278	 0.10175
H	-0.6013900554	 1.7112807987	 1.075025288	 0.106777
H	-1.9610433664	-0.3203124678	 0.7527527421	 0.096671
H	-1.7058612783	-0.1817649658	-1.0065332988	 0.086303
H	-0.1328876861	-2.1083457941	-2.0859269753	 0.112077
H	 0.7848453481	-2.8331525063	-0.7716088722	 0.13568
H	-0.431899239	-4.8013991536	-2.1113994369	 0.102231
H	-2.693293126	-5.0638982752	-0.8434159231	 0.102598
H	-3.2845185849	-2.7031333243	 0.3569239564	 0.09206
66.9493	99.3268	123.6325	224.3116	255.2444	324.9617	351.3173	382.8499	423.4258	532.3742	700.9709	726.5539	742.6233	821.0543	864.838	914.0022	940.0513	945.1333	967.3563	982.6014	1000.8704	1044.23	1073.7418	1136.8114	1153.8376	1174.4312	1190.8185	1215.5178	1231.8048	1255.5287	1280.8774	1325.5634	1367.2874	1395.7229	1448.8453	1467.2353	1481.0388	1485.7229	1496.1085	1518.4419	1661.0268	2944.1947	2968.8354	2999.0988	3012.6195	3034.163	3078.3065	3116.27	3153.2469	3191.194	3220.9998
COCC12CC=CC1O2	COC[C@]12CC=C[C@H]1O2	
InChI=1S/C7H10O2/c1-8-5-7-4-2-3-6(7)9-7/h2-3,6H,4-5H2,1H3	InChI=1S/C7H10O2/c1-8-5-7-4-2-3-6(7)9-7/h2-3,6H,4-5H2,1H3/t6-,7-/m1/s1
