18
gdb 108027	4.01343	1.46407	1.34822	1.4705	73.38	-0.2293	0.0702	0.2996	992.6173	0.148519	-401.867979	-401.86082	-401.859876	-401.899548	28.649	
C	 0.0429388103	 1.2650586566	-0.2284351545	-0.256352
O	-0.1008935829	-0.0554944165	 0.2689952858	-0.299487
C	-1.3814795659	-0.5611697387	 0.172441968	 0.417737
C	-2.5491485015	-0.0651660469	 1.019668917	-0.234264
N	-3.6247757197	-0.9637691664	 0.600036025	-0.124938
C	-3.4295536038	-1.3323305496	-0.8215339398	-0.064645
C	-3.0473620222	-2.2821869844	 0.2604314689	-0.068037
C	-1.5448095863	-2.0441798782	-0.0412655201	-0.157852
C	-1.9372606126	-1.0766365174	-1.1496429853	-0.16833
H	 1.1052337876	 1.5105834359	-0.1664973587	 0.129873
H	-0.2856054883	 1.3382228348	-1.273963586	 0.111802
H	-0.5241604937	 1.9918650533	 0.3689139315	 0.115516
H	-2.3602820895	-0.1761979471	 2.0920634094	 0.112299
H	-2.8297273277	 0.9719542186	 0.8101140405	 0.104686
H	-4.2743624021	-1.306970595	-1.4981394921	 0.094751
H	-3.5155470703	-3.1843881653	 0.6327955554	 0.095283
H	-0.7284651203	-2.7503337396	-0.003004179	 0.09849
H	-1.479249351	-0.919915844	-2.1153278361	 0.093469
92.4518	173.0876	190.9845	349.1853	371.5367	460.3776	544.0163	604.8745	721.0931	728.7237	776.6884	787.0219	807.1317	836.2203	865.0715	921.0934	930.9014	951.5994	998.63	1003.7181	1042.1116	1046.0809	1065.4517	1086.7919	1154.6306	1180.3512	1186.2478	1197.7549	1209.267	1228.3744	1254.1957	1275.2205	1283.5627	1330.6333	1402.1116	1481.6099	1491.1193	1496.733	1507.644	2998.2845	3047.7204	3054.8501	3097.3068	3124.4168	3185.1302	3197.7989	3221.2364	3231.3426
COC12CN3C4C3C1C24	CO[C@]12CN3[C@@H]4[C@H]3[C@H]1[C@H]24	
InChI=1S/C7H9NO/c1-9-7-2-8-5-3(7)4(7)6(5)8/h3-6H,2H2,1H3	InChI=1S/C7H9NO/c1-9-7-2-8-5-3(7)4(7)6(5)8/h3-6H,2H2,1H3/t3-,4+,5-,6+,7-,8?
