18
gdb 84157	2.84173	1.3558	0.97921	3.6127	75.9	-0.2511	0.0028	0.2539	1207.3893	0.147564	-439.104898	-439.096302	-439.095358	-439.138167	32.473	
C	 0.4371355996	 1.5181047132	 0.1624515966	-0.485211
C	 0.0679215828	 0.0739791733	-0.0154196131	 0.282608
C	 0.2569157127	-0.6358930543	-1.1247662815	-0.19055
C	-0.2214874025	-2.0640897893	-1.1919928301	 0.022683
O	 0.4062244644	-2.7836904845	-2.2172033611	-0.43911
C	 0.0052896494	-2.7314075339	 0.1563166991	 0.381601
N	 0.439562611	-3.9212266203	 0.1799167614	-0.55125
O	-0.2650440579	-2.0169836103	 1.2653830261	-0.243285
C	-0.5929538981	-0.6177487315	 1.1504838763	-0.162979
H	 1.1711487254	 1.6449536954	 0.968130278	 0.13236
H	 0.8598521481	 1.9327545855	-0.7557336766	 0.134267
H	-0.4365689034	 2.1243338319	 0.4349523568	 0.129358
H	 0.7277870476	-0.2330194681	-2.0153350123	 0.109744
H	-1.3180636717	-2.0563183494	-1.3575948758	 0.100565
H	 0.6628764423	-3.6278373633	-1.8087149031	 0.296339
H	 0.5735193298	-4.2628444804	 1.1307547678	 0.227584
H	-0.2796126204	-0.1796525254	 2.1024970531	 0.128198
H	-1.6877537592	-0.5243388184	 1.0925564683	 0.127079
77.6971	128.6865	175.2225	199.8777	286.0384	335.1086	402.9458	415.5448	438.6682	490.1883	495.7912	566.6976	608.7427	744.1904	808.6247	871.3904	895.4902	914.3001	961.8014	1007.7015	1034.4838	1078.007	1088.3679	1119.6854	1139.22	1206.8695	1249.2665	1260.6389	1288.7226	1328.3162	1366.9815	1414.663	1430.535	1458.7382	1479.2487	1489.471	1503.8486	1741.8317	1749.201	2889.8625	2996.6304	3017.6524	3064.1365	3084.0403	3120.5253	3190.6678	3500.6191	3656.1101
CC1=CC(O)C(=N)OC1	CC1=C[C@@H](O)[C]([NH])OC1	
InChI=1S/C6H9NO2/c1-4-2-5(8)6(7)9-3-4/h2,5,7-8H,3H2,1H3	InChI=1S/C6H9NO2/c1-4-2-5(8)6(7)9-3-4/h2,5,7-8H,3H2,1H3/t5-/m1/s1
