19
gdb 66366	2.29551	1.42948	1.34406	4.7216	75.04	-0.2509	0.0262	0.2771	1087.0017	0.1612	-419.221261	-419.212753	-419.211809	-419.253975	32.855	
N	-0.0470237	 1.4740351842	 0.0458440755	-0.535825
C	 0.0074685206	 0.0089035899	 0.0206059224	 0.06259
C	-1.4314975523	-0.5563865943	 0.0532374338	-0.210861
C	-1.4369068211	-2.0805485819	-0.1237407604	-0.227204
C	-0.6273950536	-2.4772578898	-1.3583894161	-0.066216
O	 0.6964503134	-1.9630594092	-1.3019898483	-0.232982
C	 0.7227743648	-0.559272292	-1.2390947095	-0.101016
C	 0.7404239887	-0.4326211823	 1.2227137702	 0.309718
N	 1.3267688186	-0.7764114324	 2.1569097003	-0.342646
H	 0.891101901	 1.8650388705	 0.0310416955	 0.24169
H	-0.5219341636	 1.8043298382	-0.7900702351	 0.234053
H	-1.9231800266	-0.2494326485	 0.9795533689	 0.129382
H	-1.9771333303	-0.0848122772	-0.7755482155	 0.096599
H	-1.0004043744	-2.5590212091	 0.7598032927	 0.134314
H	-2.4646811422	-2.4466403213	-0.2205008885	 0.104634
H	-0.5254039242	-3.5625136286	-1.4366423326	 0.116851
H	-1.1285566712	-2.1142584157	-2.2727186108	 0.08658
H	 0.2251323999	-0.1123018104	-2.1189101558	 0.081866
H	 1.7744635127	-0.2581872499	-1.2475270265	 0.118476
113.7861	145.8009	211.7715	245.1521	267.7651	322.8762	340.3288	407.1506	424.0719	452.8087	551.2686	594.0345	642.1164	690.2902	841.8669	852.303	879.506	900.801	926.4604	986.1742	1038.8402	1044.4992	1101.2746	1130.888	1138.4084	1183.6556	1224.6181	1244.3906	1271.2623	1324.4508	1348.6312	1359.507	1390.0872	1391.8215	1415.5519	1478.2407	1481.9237	1487.8192	1502.5843	1649.9986	2359.0738	2943.589	2958.153	3019.8319	3044.7572	3087.1172	3088.9933	3098.4961	3102.6119	3482.8381	3568.5508
NC1(CCCOC1)C#N	N[C@]1(CCCOC1)C#N	
InChI=1S/C6H10N2O/c7-4-6(8)2-1-3-9-5-6/h1-3,5,8H2	InChI=1S/C6H10N2O/c7-4-6(8)2-1-3-9-5-6/h1-3,5,8H2/t6-/m1/s1
