15
gdb 117001	4.36904	0.59731	0.53982	3.5228	76.66	-0.2834	-0.0801	0.2032	1970.0711	0.109166	-457.766152	-457.756203	-457.755259	-457.80314	32.311	
C	-0.0810399234	 1.5060585453	 0.3717723722	-0.395135
C	 0.0042707182	 0.0200826127	 0.0887655473	-0.049918
O	 0.7077959009	-0.593586257	 1.1970746269	-0.228291
C	 0.8606697862	-1.9196210639	 1.1199446303	 0.274708
O	 0.4728415565	-2.6241197442	 0.2219517214	-0.346754
C	 1.5705113313	-2.4273750232	 2.2776266032	-0.029581
C	 2.1465418763	-2.9272772321	 3.2143233361	 0.190226
C	 2.8689486182	-3.5142230101	 4.3188256044	 0.015253
O	 2.3512810742	-3.872544058	 5.349174097	-0.213432
H	 0.9161020947	 1.9460198868	 0.4585726195	 0.135846
H	-0.6086279745	 2.0050021012	-0.4462496474	 0.129803
H	-0.625333026	 1.6962166593	 1.3006435579	 0.13749
H	-0.9828127243	-0.4440057503	 0.0045023488	 0.133497
H	 0.5522169755	-0.1965894943	-0.8331494528	 0.131681
H	 3.9584684262	-3.6111141722	 4.1418360353	 0.114606
44.3261	61.0113	77.1042	83.2075	151.5406	201.2628	250.6687	297.8072	306.9089	373.4257	414.6962	589.8879	688.5089	768.5581	809.9766	868.5267	885.2319	1016.8286	1028.4435	1093.2747	1135.5315	1180.5196	1274.7478	1293.2585	1398.92	1417.8617	1424.6063	1485.9167	1495.6137	1517.2429	1773.4842	1792.377	2318.8049	2933.6831	3050.1761	3058.2024	3098.5562	3125.1026	3132.319
CCOC(=O)C#CC=O	CCOC(=O)C#CC=O	
InChI=1S/C6H6O3/c1-2-9-6(8)4-3-5-7/h5H,2H2,1H3	InChI=1S/C6H6O3/c1-2-9-6(8)4-3-5-7/h5H,2H2,1H3
