19
gdb 57761	2.84929	0.70621	0.64744	1.9763	87.	-0.2539	0.0121	0.2659	1823.2193	0.155248	-385.82273	-385.811763	-385.810819	-385.860859	38.699	
C	-0.4106309874	 1.4063784287	 0.0426303704	-0.375072
C	 0.0840893253	-0.0498295108	-0.0688753703	-0.127571
C	 0.9730573525	-0.2490987427	-1.3124904454	-0.374192
C	 0.7811116296	-0.4595274867	 1.1505579484	 0.093698
C	 1.3648563352	-0.7792048685	 2.154692209	 0.058622
C	 2.0619065191	-1.2085275962	 3.3748703782	-0.235402
O	 1.7055043894	-2.532001855	 3.7680622861	-0.39065
C	 3.5187864572	-1.054936553	 3.2303582379	 0.332843
C	 4.7109933221	-0.9585546738	 3.1187738178	-0.45801
H	 0.4347526426	 2.0929967867	 0.148990403	 0.126566
H	-0.9684767338	 1.6848653096	-0.856950802	 0.114131
H	-1.0639039203	 1.5352820196	 0.9093809717	 0.125969
H	-0.7983812691	-0.6957745385	-0.1785870146	 0.10876
H	 1.8650423886	 0.3819674515	-1.2532240879	 0.127244
H	 1.2991688167	-1.2886056208	-1.4015688575	 0.123147
H	 0.4209333642	 0.0195565406	-2.2186764132	 0.113581
H	 1.7302006481	-0.5821415965	 4.2131407845	 0.146421
H	 1.9557668894	-3.1188495646	 3.0449627074	 0.287998
H	 5.7647145905	-0.8666314195	 3.0221995367	 0.201918
9.3798	65.4875	88.9773	168.2232	196.781	207.3603	227.2618	265.813	286.7804	342.0452	346.1031	460.4883	502.9008	540.9077	583.1281	596.4965	637.402	671.0901	748.1837	862.0709	930.6632	932.0442	964.7639	1035.3258	1073.2089	1120.5132	1150.4877	1206.7845	1258.0759	1310.5438	1323.1566	1348.6297	1395.9616	1413.0427	1418.1997	1485.6073	1489.1107	1498.6026	1510.0892	2236.9478	2359.5956	3005.5619	3027.8899	3037.0356	3040.3828	3108.7397	3113.6529	3119.3538	3121.5892	3503.035	3800.5926
CC(C)C#CC(O)C#C	CC(C)C#C[C@@H](O)C#C	
InChI=1S/C8H10O/c1-4-8(9)6-5-7(2)3/h1,7-9H,2-3H3	InChI=1S/C8H10O/c1-4-8(9)6-5-7(2)3/h1,7-9H,2-3H3/t8-/m0/s1
