17
gdb 56734	1.98433	1.60843	1.12214	2.1548	75.	-0.2513	-0.0183	0.233	1130.6416	0.132571	-421.781724	-421.772256	-421.771312	-421.816088	34.613	
O	-0.3861944456	 1.2122566602	 0.1854232535	-0.438512
C	 0.0721137065	-0.1249102726	-0.0139710714	-0.115375
C	 0.9377236655	-0.2092018001	-1.1944664235	 0.317605
C	 1.6217333898	-0.2261886421	-2.1824898273	-0.470291
C	 0.7988739842	-0.5712487282	 1.2526598947	 0.252854
C	 1.8186819844	 0.3518646341	 1.8980403199	-0.296024
C	 0.511535371	 0.1317186162	 2.5780675098	-0.316112
C	 1.0509362781	-2.0266912801	 1.3539315973	 0.111323
O	 0.6783198756	-2.8492435629	 0.5531743607	-0.273423
H	-0.5984913717	 1.575897529	-0.6798677985	 0.29379
H	-0.7797581549	-0.8042929432	-0.1635887398	 0.117442
H	 2.2300880697	-0.2640687292	-3.0524123013	 0.204075
H	 2.7129131531	-0.0986698648	 2.3154559631	 0.1218
H	 1.969603592	 1.2968953166	 1.3904175284	 0.143598
H	-0.2256427024	 0.9224638835	 2.5363689002	 0.154729
H	 0.4828516105	-0.4872413161	 3.4687275212	 0.121646
H	 1.6196579442	-2.3233806203	 2.2664428229	 0.070872
54.7147	120.5351	144.9367	187.1936	225.6348	249.8142	282.2765	316.4114	361.4201	430.8276	506.7626	562.2185	634.1165	646.6185	677.1886	774.8508	788.2234	853.5887	928.4061	936.5877	985.3806	1020.0451	1049.5666	1063.9551	1084.9321	1096.8261	1201.1695	1231.4398	1312.7717	1322.7201	1345.6778	1407.3669	1442.9878	1456.061	1490.2627	1812.6134	2234.6729	2855.9141	2999.2444	3139.7155	3143.8923	3231.4487	3248.7124	3502.1583	3830.2207
OC(C#C)C1(CC1)C=O	O[C@@H](C#C)C1(CC1)C=O	
InChI=1S/C7H8O2/c1-2-6(9)7(5-8)3-4-7/h1,5-6,9H,3-4H2	InChI=1S/C7H8O2/c1-2-6(9)7(5-8)3-4-7/h1,5-6,9H,3-4H2/t6-/m0/s1
