23
gdb 113146	3.15965	0.74254	0.6785	0.1731	97.6	-0.2217	0.0636	0.2853	1823.6104	0.202883	-351.132965	-351.121609	-351.120665	-351.171308	40.149	
C	-0.0329784664	 1.5432739095	-0.3007478673	-0.371316
C	-0.0188729553	 0.0993103049	 0.2174120613	-0.207789
C	-1.3877059501	-0.54582897	 0.1403562116	-0.004685
C	-1.8700590106	-1.2389298138	-1.1049302165	-0.318144
C	-1.6089202293	-2.0591811264	 0.1550226821	 0.126834
C	-0.4281020553	-3.0213424142	 0.1720686397	-0.459489
C	-2.7603580264	-2.5303430655	 0.8846026802	 0.008596
C	-3.7078308222	-2.9422730759	 1.5060335839	 0.081977
C	-4.856175726	-3.4358136047	 2.2533259617	-0.500062
H	 0.9606957179	 1.9973316387	-0.2351135867	 0.109971
H	-0.354717162	 1.5821060223	-1.346714217	 0.11854
H	-0.7230514259	 2.1645849057	 0.2804764244	 0.115286
H	 0.7082555433	-0.482006498	-0.3596207973	 0.095683
H	 0.334258497	 0.0878535014	 1.2568246404	 0.100171
H	-2.1541275853	 0.0037949546	 0.6812465008	 0.088879
H	-2.8974085335	-1.1037247092	-1.4218175867	 0.11587
H	-1.1597565528	-1.3668852904	-1.9168092114	 0.107266
H	 0.4030243741	-2.654209328	-0.4347173045	 0.11262
H	-0.0638306357	-3.1775966375	 1.1925817247	 0.122865
H	-0.7298784651	-3.9947257053	-0.2270311213	 0.12427
H	-4.6393514498	-4.404158001	 2.7184135049	 0.145397
H	-5.1429503404	-2.74429656	 3.0539075253	 0.143483
H	-5.7298396703	-3.5714293676	 1.6054951978	 0.143777
13.7041	63.1525	91.0782	99.6431	161.857	204.8894	215.1712	256.9414	285.5591	309.2064	327.5666	391.506	429.5158	536.6808	553.9055	632.6173	770.2027	805.5705	826.3595	896.6937	937.2652	950.0535	996.5584	1044.0597	1052.2263	1054.5099	1060.912	1083.3277	1107.3866	1123.5427	1135.1289	1197.7261	1284.258	1294.4091	1315.8385	1350.2375	1407.7937	1414.238	1415.974	1425.7115	1478.3235	1479.2773	1480.5418	1486.3783	1492.3754	1497.9881	1502.4765	1508.9184	2363.234	3021.5268	3021.8854	3031.4018	3038.0971	3063.0377	3079.01	3081.9194	3100.3117	3101.0843	3104.337	3119.3816	3125.4114	3137.7127	3217.849
CCC1CC1(C)C#CC	CC[C@H]1C[C@]1(C)C#CC	
InChI=1S/C9H14/c1-4-6-9(3)7-8(9)5-2/h8H,5,7H2,1-3H3	InChI=1S/C9H14/c1-4-6-9(3)7-8(9)5-2/h8H,5,7H2,1-3H3/t8-,9-/m0/s1
