17
gdb 43137	2.49444	1.98953	1.63024	2.8157	71.93	-0.2203	-0.0163	0.204	899.422	0.137046	-421.765005	-421.758167	-421.757223	-421.795949	27.831	
O	 0.0720657473	 0.0058864595	 0.0963186064	-0.325424
C	-0.0084224168	 1.1955487675	 0.0789927979	 0.393168
C	-1.0967107755	 2.2663168962	-0.0038540269	-0.236752
C	-0.6728667227	 3.0431990752	 1.2986602059	-0.095743
O	 0.798981366	 3.0315340004	 1.2454619814	-0.34406
C	 0.9613244609	 2.4252328782	-0.0268631991	 0.356891
C	 2.0360648433	 2.34832687	-1.0975581073	-0.332978
C	 0.8141590665	 2.3449121686	-2.1085919157	-0.281946
C	-0.0973213098	 2.9744272475	-0.984381233	-0.055194
H	-2.1615717423	 2.0834666066	-0.142021505	 0.092829
H	-1.021795463	 4.0814193444	 1.3076137414	 0.11543
H	-1.0089644499	 2.5340762715	 2.2060232356	 0.127807
H	 2.625500731	 3.2642711185	-1.1872353691	 0.121197
H	 2.6978016088	 1.479890191	-1.0852151249	 0.12278
H	 0.9287903135	 2.9786057238	-2.9876428493	 0.114662
H	 0.5307268033	 1.3410748886	-2.4286335618	 0.135756
H	-0.2023751705	 4.0572809226	-1.0670054865	 0.091577
149.0616	220.4848	276.2184	288.8499	399.5657	483.8519	526.4846	636.419	659.6608	746.1511	753.3745	774.6303	847.384	867.7935	870.7612	882.4269	905.598	979.2088	1005.9364	1029.7166	1059.0134	1086.6395	1092.9656	1152.1002	1176.3046	1186.8766	1204.6915	1227.6309	1231.5521	1252.7371	1304.9456	1324.4625	1355.028	1476.44	1490.2535	1514.586	1910.8906	3039.0466	3068.1849	3089.1501	3098.5792	3103.3146	3124.4017	3132.2704	3150.4209
O=C1C2COC11CCC21	O=C1[C@H]2CO[C@]31CC[C@@H]23	
InChI=1S/C7H8O2/c8-6-4-3-9-7(6)2-1-5(4)7/h4-5H,1-3H2	InChI=1S/C7H8O2/c8-6-4-3-9-7(6)2-1-5(4)7/h4-5H,1-3H2/t4-,5-,7+/m0/s1
