17
gdb 133842	2.85108	1.84002	1.24849	3.2329	77.94	-0.2175	-0.0503	0.1672	992.6623	0.135944	-380.81106	-380.803258	-380.802314	-380.843393	29.851	
C	 6.1562530621	 1.2165972424	 0.0727927438	-0.495802
C	 4.842495702	 0.5398862279	-0.1525764036	 0.356567
C	 3.6418936705	 1.3235878734	-0.5766610182	-0.108429
C	 2.4786967457	 0.2050832914	-0.7777672485	 0.001273
C	 3.1299161783	-1.1327460868	-0.3754081862	-0.253655
C	 4.5478743152	-0.7577085177	-0.0238930419	-0.159746
C	 2.9739930912	 1.1897913314	-2.3650136878	 0.386844
N	 2.133310486	 0.2717356982	-2.293379915	-0.358376
N	 3.8431065835	 2.0044918473	-2.015044327	-0.364065
H	 6.4754232829	 1.7302317434	-0.8407463324	 0.156317
H	 6.9316340919	 0.5036129447	 0.3634479491	 0.125443
H	 6.0807531582	 1.9814284999	 0.8557311715	 0.127639
H	 3.361292814	 2.146492222	 0.0827067826	 0.117825
H	 1.5713856006	 0.4424202482	-0.2222023583	 0.114781
H	 3.0801911258	-1.8433409992	-1.2065018058	 0.137775
H	 2.6055929247	-1.5971505996	 0.470146854	 0.113305
H	 5.2610683276	-1.5028840469	 0.3145997437	 0.102303
65.6205	171.8752	208.7153	231.8262	309.6053	376.3587	402.2159	535.6973	574.0948	591.9064	649.7101	710.9602	750.8967	822.2451	837.0081	853.368	914.3777	962.3978	1001.3033	1033.0871	1040.9201	1065.9945	1161.4001	1180.0785	1208.3955	1223.1123	1262.1093	1266.7322	1305.8475	1327.1802	1355.9175	1412.6706	1476.7409	1482.934	1491.2142	1714.1403	1982.0525	3022.243	3027.2498	3075.3471	3082.609	3091.6507	3106.7718	3121.5534	3184.3293
CC12C3C4CC1C(=N4)N23	CC1=CC[C@H]2[C@@H]1N=[C][N]2	
InChI=1S/C7H8N2/c1-7-3-2-4-5(7)9(7)6(3)8-4/h3-5H,2H2,1H3	InChI=1S/C7H8N2/c1-5-2-3-6-7(5)9-4-8-6/h2,6-7H,3H2,1H3/t6-,7+/m0/s1
