20
gdb 102186	2.18261	1.26123	0.86318	1.8676	80.93	-0.244	0.0491	0.2931	1362.5642	0.168581	-403.071236	-403.061155	-403.060211	-403.106743	36.311	
C	-1.5341488525	-0.2612993006	 0.5145049725	-0.239262
O	-0.5116330421	-1.1796361664	 0.1912652716	-0.240742
C	 0.4732546262	-0.6922027041	-0.7037572772	 0.0818
C	 1.6006673106	-1.74493156	-0.6565761604	-0.363187
C	 2.8423316542	-1.3004158511	-1.2756864709	 0.297831
C	 3.8718032093	-0.91837353	-1.765465687	-0.449996
C	-0.0870242673	-0.4924338595	-2.1008746375	 0.010389
C	-0.5199776284	 0.8546846651	-2.5582476841	-0.247921
N	 0.6823701479	 0.2295298005	-3.1225423886	-0.312103
H	-1.1210706281	 0.6783041452	 0.9134609101	 0.103469
H	-2.1705829295	-0.0211630602	-0.3469161867	 0.118479
H	-2.1476296319	-0.7313939636	 1.2868485903	 0.129335
H	 0.8741041069	 0.2697939069	-0.3378114418	 0.069309
H	 1.7752249016	-1.9869626151	 0.3977672402	 0.140294
H	 1.2445985554	-2.6659246681	-1.1338918759	 0.139642
H	 4.7824558302	-0.5985916998	-2.2081452167	 0.199047
H	-0.6124566553	-1.3677275576	-2.4809553261	 0.09693
H	-1.3527514785	 0.9550295324	-3.2487618126	 0.119097
H	-0.4041177893	 1.6857573124	-1.865743596	 0.10976
H	 1.5252943106	 0.6209941837	-2.7089759232	 0.237826
59.5983	89.2249	101.5665	136.9743	193.3538	210.7557	263.6199	322.4339	353.4583	373.8526	436.2761	466.2069	584.1534	620.9971	650.7324	792.2382	864.3054	910.8144	945.7413	947.7307	960.4402	1010.2027	1062.887	1079.7541	1126.9201	1144.3643	1155.8759	1180.0537	1189.7213	1220.8818	1237.5095	1259.1511	1293.8479	1304.3034	1339.1262	1365.1105	1430.3431	1471.501	1478.566	1488.6932	1508.5154	1511.8778	2237.5362	2946.913	2983.1699	3035.7408	3046.8946	3074.4857	3100.9548	3116.4101	3117.3288	3186.2114	3504.005	3505.0271
COC(CC#C)C1CN1	CO[C@@H](CC#C)[C@H]1CN1	
InChI=1S/C7H11NO/c1-3-4-7(9-2)6-5-8-6/h1,6-8H,4-5H2,2H3	InChI=1S/C7H11NO/c1-3-4-7(9-2)6-5-8-6/h1,6-8H,4-5H2,2H3/t6-,7+/m1/s1
