16
gdb 13806	3.39683	1.65593	1.30764	6.8094	61.71	-0.2391	0.0218	0.261	942.7793	0.13231	-417.063064	-417.055503	-417.054559	-417.095162	28.039	
N	-0.7187995727	 0.9866589994	 0.736423765	-0.510128
H	-2.0367301184	 1.1453769752	 1.7840775164	 0.333326
H	-0.3044564736	 0.0760704876	 0.5716150291	 0.248581
H	-1.0563069304	 1.3600391933	-0.1451482688	 0.260215
C	 0.2567529842	 1.913554862	 1.3219334929	-0.193338
C	-0.3703658176	 3.2774066357	 1.5715304739	-0.019714
N	-1.571666353	 3.5955306231	 0.8054206342	-0.345136
C	-1.6631711259	 3.547481238	 2.2809815534	-0.141779
C	-2.5994872858	 2.57307518	 2.9741519821	 0.410837
O	-3.2310818404	 2.9606749587	 3.9280876571	-0.346786
O	-2.6959469074	 1.3329827181	 2.5153868344	-0.391753
H	 0.6154713746	 1.4910951569	 2.2673593154	 0.132544
H	 1.1384702481	 2.0571532136	 0.678641162	 0.106795
H	 0.3744134739	 4.0614359162	 1.7012788166	 0.098637
H	-1.5787583901	 4.5572101235	 0.4798033969	 0.245621
H	-1.7082297554	 4.5020266687	 2.7977749093	 0.112078
78.841	137.7486	223.5695	254.1896	309.3923	353.977	404.7302	474.5298	593.2966	672.8992	736.2723	785.9678	831.2741	874.1448	921.3731	956.0284	978.7885	1014.4353	1043.2677	1065.6878	1104.9612	1180.3495	1195.7605	1216.5824	1256.9425	1324.3723	1336.4448	1396.3716	1428.0629	1455.7507	1502.2301	1510.9899	1624.8003	1832.6633	2981.669	3051.2043	3064.9876	3117.3648	3155.0147	3510.4394	3520.9967	3598.816
[NH3+]CC1NC1C([O-])=O	NC[C@H]1N[C@H]1C(=O)O	
InChI=1S/C4H8N2O2/c5-1-2-3(6-2)4(7)8/h2-3,6H,1,5H2,(H,7,8)	InChI=1S/C4H8N2O2/c5-1-2-3(6-2)4(7)8/h2-3,6H,1,5H2,(H,7,8)/t2-,3-/m1/s1
