20
gdb 67037	2.11056	2.01548	1.61188	1.9588	77.71	-0.2298	0.0695	0.2993	973.4581	0.171552	-403.121017	-403.112898	-403.111953	-403.152957	32.606	
C	-0.0427960636	 1.5096229447	-0.0020220723	-0.515851
C	 0.0448700905	 0.0170968116	 0.0055020739	 0.3053
C	 0.5497516905	-1.003557208	-0.964161906	-0.094704
C	 1.2886407429	-1.771042865	 0.1397877283	-0.315125
C	 0.5073437946	-0.9011958618	 1.1822209367	 0.360821
O	 1.2409567604	-0.2483745665	 2.1801908858	-0.496088
C	-0.7700708694	-1.6266975594	 1.6173372827	-0.283156
C	-1.4829725405	-1.833611259	 0.2589650709	-0.1674
N	-0.8935029858	-0.8540599732	-0.6873172557	-0.143601
H	 0.9103280116	 1.953337547	 0.3014859279	 0.130392
H	-0.2973647328	 1.8690842746	-1.0027763298	 0.128235
H	-0.8120290437	 1.8653269646	 0.6928515418	 0.121337
H	 0.8685061362	-0.8940144853	-1.9956540834	 0.088124
H	 1.1769708179	-2.8606211184	 0.1881679778	 0.084479
H	 2.3496425986	-1.5086908648	 0.1505089623	 0.107944
H	 1.5216132904	-0.900578137	 2.8305149	 0.279209
H	-0.5653094717	-2.5696862182	 2.1368104681	 0.089974
H	-1.3507941198	-0.9844950893	 2.2887533235	 0.103812
H	-1.3534928811	-2.8477397118	-0.1316403676	 0.106588
H	-2.5577019349	-1.6441294049	 0.3256348651	 0.10971
172.166	187.4149	211.9923	234.3942	237.211	327.8119	394.6713	445.7362	472.3773	582.0089	619.8192	657.725	729.7777	753.503	806.6091	846.9876	908.7354	921.8835	945.6649	961.5932	974.0774	1001.7018	1068.2833	1085.5033	1120.2584	1125.5044	1171.5694	1187.7383	1207.1738	1218.3785	1235.2215	1253.1862	1273.766	1309.0608	1340.8497	1371.5385	1404.8243	1453.1706	1481.0318	1485.1764	1489.5431	1492.9012	1517.2252	3028.8196	3032.8257	3034.4067	3054.6228	3075.6266	3096.3993	3098.1952	3104.0782	3119.7337	3160.6298	3811.6558
CC12C3CC1(O)CCN23	C[C@@]12[C@H]3C[C@]1(O)CCN23	
InChI=1S/C7H11NO/c1-6-5-4-7(6,9)2-3-8(5)6/h5,9H,2-4H2,1H3	InChI=1S/C7H11NO/c1-6-5-4-7(6,9)2-3-8(5)6/h5,9H,2-4H2,1H3/t5-,6-,7-,8?/m1/s1
