14
gdb 127684	2.59141	1.87633	1.09576	2.6233	68.38	-0.2346	-0.0602	0.1744	1019.3095	0.101681	-470.02581	-470.017992	-470.017048	-470.058635	28.076	
C	-0.35567363	 1.3790923595	-0.0276095101	-0.316051
N	 0.004920839	-0.0302021054	-0.0148059931	-0.065745
N	 0.075054877	-0.6593986516	-1.2188367414	-0.224576
C	 0.3879552116	-1.8901383941	-1.2343804329	 0.119777
O	 0.66928183	-2.672024924	-0.1464219949	-0.208799
C	 0.6224047481	-2.119211071	 1.1058697947	 0.407552
O	 0.8654841354	-2.7889755275	 2.0647405699	-0.308263
C	 0.2555888214	-0.6579699982	 1.187566346	 0.248746
N	 0.1781058096	-0.0283401361	 2.294094029	-0.524442
H	 0.440743508	 1.9766406814	 0.4251602101	 0.153251
H	-0.5074285378	 1.6669018991	-1.0662656491	 0.150166
H	-1.267818199	 1.5406405071	 0.5539763099	 0.153265
H	 0.4572048799	-2.435012722	-2.1643171974	 0.166681
H	 0.3995170167	-0.6719176473	 3.0540708594	 0.248439
76.7163	120.3533	160.4926	191.2752	321.8028	363.8841	491.1537	491.4557	522.9694	588.1909	590.6265	711.9939	785.1524	844.7851	879.3503	881.0907	966.2844	1060.2259	1135.6579	1146.7222	1153.4558	1230.617	1303.8721	1394.1068	1430.4574	1462.6361	1471.3187	1508.6155	1683.2872	1706.8077	1867.1514	3050.4335	3109.7465	3176.7919	3257.2541	3495.8631
CN1N=COC(=O)C1=N	CN1N=COC(=O)[C]1[NH]	
InChI=1S/C4H5N3O2/c1-7-3(5)4(8)9-2-6-7/h2,5H,1H3	InChI=1S/C4H5N3O2/c1-7-3(5)4(8)9-2-6-7/h2,5H,1H3
