15
gdb 48400	2.40153	1.71805	1.22565	3.5038	71.84	-0.2525	-0.0386	0.214	1018.0841	0.109286	-420.540866	-420.532667	-420.531723	-420.573725	30.582	
O	-0.130516615	 0.0909586268	-0.3881752816	-0.245254
C	 0.0307140823	 1.1738314011	 0.1023385608	 0.124635
C	 1.3304267416	 1.9755176669	 0.0038138466	 0.114474
O	 2.4569509971	 1.2117787874	-0.4918937051	-0.304321
C	 2.60453306	 2.1038787505	-1.6047103987	 0.114305
C	 1.4071290081	 2.0531891022	-2.4915654335	-0.315327
C	 1.3822059893	 2.9076599759	-1.2373138821	-0.18033
C	 1.6170003255	 2.6403018957	 1.2642737096	 0.280628
C	 1.8033982068	 3.1841321382	 2.3195573072	-0.397056
H	-0.7781188743	 1.7161167073	 0.6392789025	 0.095362
H	 3.6094265513	 2.3919067379	-1.8866557407	 0.115517
H	 1.4771502748	 2.6316708583	-3.4077012061	 0.123159
H	 0.8274904394	 1.1379597591	-2.5547402497	 0.148597
H	 1.2004523398	 3.9721207209	-1.2143353888	 0.119249
H	 1.9884380835	 3.6625456819	 3.2500637897	 0.206362
88.7642	129.2886	158.106	195.1105	242.3672	366.6327	453.9535	475.628	517.0129	536.2452	630.1726	678.0824	699.2427	762.0345	824.9001	876.1497	920.529	963.1349	971.0002	1008.273	1048.1868	1050.0346	1074.0176	1095.5606	1117.052	1159.2939	1216.8332	1259.6288	1342.4371	1408.8539	1467.4329	1838.1966	2234.926	2896.0132	3127.237	3195.6499	3218.7737	3226.4054	3497.853
O=CC1(OC2CC12)C#C	O=C[C@]1(O[C@H]2C[C@@H]12)C#C	
InChI=1S/C7H6O2/c1-2-7(4-8)5-3-6(5)9-7/h1,4-6H,3H2	InChI=1S/C7H6O2/c1-2-7(4-8)5-3-6(5)9-7/h1,4-6H,3H2/t5-,6+,7-/m1/s1
