23
gdb 87621	2.31794	1.45845	1.11803	0.2055	92.1	-0.2158	0.0282	0.2441	1231.4841	0.205989	-351.164273	-351.155122	-351.154178	-351.197794	36.008	
C	-0.017118522	 1.6706829817	 0.2644750427	-0.410251
C	-0.1050325729	 0.1601596563	 0.2546092045	-0.035377
C	 0.9878093945	-0.684108403	-0.3474197587	-0.349446
C	 0.7674050676	-0.7118922404	 1.1490308321	 0.322485
C	 1.7413850024	-0.1147638682	 2.1032881257	-0.128859
C	 1.663890604	-0.6759934475	 3.31017848	-0.094955
C	 0.595490817	-1.7411776182	 3.3630378095	-0.275492
C	 0.2443872578	-1.9794260838	 1.8673036069	-0.042193
C	-1.2168177662	-2.3530391579	 1.6284997706	-0.413563
H	 1.0161809226	 2.0170877192	 0.3598823244	 0.113169
H	-0.4176637822	 2.0889183577	-0.6658752294	 0.114398
H	-0.5869742379	 2.100170949	 1.0960311541	 0.117174
H	-1.1126136965	-0.2169493013	 0.1010187069	 0.081352
H	 0.7085777553	-1.5664725812	-0.916660772	 0.103619
H	 1.8753201838	-0.1803467958	-0.7202545529	 0.103345
H	 2.4149865494	 0.6891388263	 1.8288189438	 0.090393
H	 2.2589844471	-0.393039376	 4.1711405533	 0.088403
H	 0.9256830043	-2.6612441491	 3.8590373452	 0.099167
H	-0.279842588	-1.3862078036	 3.9283595313	 0.099423
H	 0.8699430861	-2.8120972449	 1.518206995	 0.077289
H	-1.8924173693	-1.5634861778	 1.9749910328	 0.11673
H	-1.4259622417	-2.5345683904	 0.5682922564	 0.112579
H	-1.4710629453	-3.269811541	 2.1710551981	 0.110611
71.1567	153.3128	168.4587	203.9334	244.3302	284.3875	316.5384	383.1457	407.6191	470.1744	505.1417	545.0418	659.6795	741.2402	771.7572	818.9326	859.8042	883.5742	909.9204	919.7402	943.3335	965.7373	972.9794	1009.1849	1041.7846	1054.7653	1088.1445	1111.0843	1125.3001	1133.7506	1144.9956	1189.3981	1201.3775	1253.6899	1284.2365	1310.083	1323.4667	1366.2662	1388.2003	1404.5336	1411.4684	1422.4987	1482.152	1487.7668	1492.137	1499.7171	1500.9603	1503.5466	1678.5663	2989.9205	3005.0484	3026.2126	3028.0964	3051.5928	3086.4839	3090.1837	3097.5739	3101.4912	3109.2054	3143.1333	3181.3661	3193.0505	3206.4956
CC1CC11C=CCC1C	C[C@H]1C[C@]21C=CC[C@H]2C	
InChI=1S/C9H14/c1-7-4-3-5-9(7)6-8(9)2/h3,5,7-8H,4,6H2,1-2H3	InChI=1S/C9H14/c1-7-4-3-5-9(7)6-8(9)2/h3,5,7-8H,4,6H2,1-2H3/t7-,8+,9-/m1/s1
