17
gdb 26300	3.42523	1.06407	0.97002	2.3884	72.85	-0.1961	0.0231	0.2193	1261.4624	0.135313	-455.168303	-455.15919	-455.158246	-455.20256	33.337	
C	-0.0716764152	 1.5689168262	 0.1499520489	-0.401123
C	-0.0249660038	 0.0385083122	 0.0567551244	 0.00216
O	 0.6885953178	-0.5224377158	 1.1586012831	-0.425901
C	-1.3817475102	-0.563768476	-0.0728401681	 0.36049
C	-1.98400132	-1.339588518	-0.9806629263	-0.211589
N	-3.2741234175	-1.5891424902	-0.5188339634	-0.331954
C	-3.4664988277	-0.9695167481	 0.6968037173	 0.462076
N	-4.5174261799	-0.992884957	 1.4032509273	-0.604265
O	-2.2749349038	-0.3213434346	 0.9726192011	-0.267354
H	 0.9411975154	 1.9581754782	 0.2793939408	 0.126325
H	-0.5087361349	 2.0036936659	-0.7542197854	 0.120373
H	-0.6802284596	 1.8827948721	 1.0039015067	 0.12675
H	 0.545496061	-0.2553711428	-0.8309517259	 0.102239
H	 0.1577212584	-0.3725602825	 1.9492475335	 0.288045
H	-1.614816598	-1.7363385198	-1.910532918	 0.152707
H	-3.9881853114	-2.1374578967	-0.9615941397	 0.277291
H	-4.3959625107	-0.4494721933	 2.2529528039	 0.22373
54.5887	108.3843	139.8984	160.8116	249.2473	295.1598	314.4094	350.6424	443.5542	448.7516	519.7678	638.8357	672.4461	710.1695	739.5587	761.3284	774.541	897.0577	940.7119	957.6976	1002.8877	1049.3652	1079.661	1088.8276	1099.8475	1208.5754	1266.5035	1286.4388	1333.7525	1376.6504	1398.954	1407.721	1421.4276	1489.1104	1496.037	1723.2336	1794.5615	3040.7932	3060.5264	3114.5917	3127.7531	3288.8331	3547.9156	3712.0626	3802.0728
CC(O)C1=CNC(=N)O1	C[C@@H](O)C1=CN[C@H]([NH])O1	
InChI=1S/C5H8N2O2/c1-3(8)4-2-7-5(6)9-4/h2-3,8H,1H3,(H2,6,7)	InChI=1S/C5H9N2O2/c1-3(8)4-2-7-5(6)9-4/h2-3,5-8H,1H3/t3-,5+/m1/s1
