23
gdb 64059	2.50961	1.40437	1.13892	0.2059	93.06	-0.2321	0.0234	0.2555	1217.8217	0.206116	-351.170099	-351.160809	-351.159865	-351.203956	36.501	
C	 0.0608997313	 1.525735121	 0.1591710246	-0.399603
C	-0.0554432599	-0.0061607051	-0.0021538946	 0.215775
C	-1.5506574141	-0.3918787748	 0.000326517	-0.41279
C	 0.5423868119	-0.4566657364	-1.3587470185	-0.267682
C	 1.9856134299	-0.1061096488	-1.6187407115	-0.076002
C	 3.0337340769	-0.3964854531	-0.850982719	-0.039363
C	 3.0566216433	-1.1246555498	 0.4643490383	-0.311168
C	 1.8393200381	-1.1559340493	 1.3488343149	-0.072696
C	 0.6006222547	-0.6933061111	 1.1797117529	-0.051029
H	 1.1049417091	 1.8455587897	 0.1219247079	 0.121408
H	-0.4871955809	 2.0413483239	-0.6386860555	 0.102579
H	-0.3588858004	 1.8497273945	 1.1172188708	 0.107257
H	-2.0802729531	 0.0917397595	-0.8274564304	 0.106997
H	-1.6812040335	-1.4746995765	-0.1007883675	 0.112458
H	-2.0338669838	-0.0818157096	 0.9330529956	 0.109086
H	 0.4099189203	-1.5441513991	-1.4389928079	 0.107327
H	-0.071554635	-0.0214286562	-2.1559066713	 0.090928
H	 2.1830328235	 0.417505028	-2.5518122956	 0.081814
H	 4.0192113447	-0.1047149765	-1.2103541361	 0.082532
H	 3.3826954477	-2.1643350785	 0.2841092601	 0.121822
H	 3.8761440826	-0.7073401097	 1.069008186	 0.115811
H	 2.0471950197	-1.6251515135	 2.3104981847	 0.081434
H	-0.0703315331	-0.8165520585	 2.0301746252	 0.073105
41.7611	132.6129	222.1249	245.6911	271.3535	284.0906	323.1206	373.5826	382.4419	407.6647	447.5456	498.7043	630.057	676.4663	736.7826	789.7432	819.1573	851.8285	898.294	903.9613	942.8735	963.4694	993.4923	996.053	1006.7244	1023.0623	1035.9413	1072.5981	1152.4007	1188.967	1223.96	1235.7754	1266.4142	1288.893	1323.4563	1357.1433	1392.722	1401.1667	1409.517	1424.3013	1448.1941	1454.4263	1475.7665	1485.3364	1489.0961	1501.2261	1510.1759	1735.7995	1744.6184	2958.1776	2998.8094	3011.0731	3023.2102	3027.6319	3052.6363	3089.1609	3096.5172	3097.2092	3105.9351	3121.157	3127.4542	3131.8277	3153.2359
CC1(C)CC=CCC=C1	CC1(C)CC=CCC=C1	
InChI=1S/C9H14/c1-9(2)7-5-3-4-6-8-9/h3,5-6,8H,4,7H2,1-2H3	InChI=1S/C9H14/c1-9(2)7-5-3-4-6-8-9/h3,5-6,8H,4,7H2,1-2H3
