22
gdb 7487	3.91657	1.1057	1.04806	1.3516	77.98	-0.2613	0.0781	0.3394	1239.9263	0.199556	-350.193896	-350.184588	-350.183644	-350.227834	34.693	
C	 0.0285235444	 1.6031257322	 0.1056033896	-0.445901
C	-0.0125760269	 0.0744956981	 0.007265333	 0.354114
C	-1.4253427647	-0.4566132856	-0.2478918193	-0.238977
C	-2.0596033616	-0.0037921131	-1.5589715884	-0.083202
O	-3.2876144064	-0.7056689195	-1.7042863772	-0.419396
C	 1.1179981991	-0.4808772908	-0.9241470762	-0.24763
C	 1.993808848	-0.7541679315	 0.327170878	-0.213475
C	 0.7299998651	-0.590588168	 1.2128214575	-0.257953
H	 1.0354615709	 1.9550842829	 0.3542157589	 0.110747
H	-0.2591718559	 2.0806142376	-0.8371650702	 0.111897
H	-0.6507798309	 1.9637393025	 0.8869063768	 0.111426
H	-1.4022596533	-1.5533106637	-0.2581315365	 0.098153
H	-2.0872872643	-0.1683036671	 0.5794732901	 0.09759
H	-2.2293320595	 1.0834857961	-1.5504743645	 0.085418
H	-1.3777828419	-0.220998648	-2.3978983631	 0.085843
H	-3.710854279	-0.4040668539	-2.5132622625	 0.283508
H	 0.8151991549	-1.406227193	-1.4237923488	 0.095623
H	 1.5190109024	 0.2020578574	-1.6787438361	 0.089438
H	 2.508514222	-1.7165481984	 0.371021165	 0.095867
H	 2.7326360405	 0.0326849624	 0.50077692	 0.101211
H	 0.8255985528	 0.0101793267	 2.121964385	 0.090536
H	 0.2864377143	-1.5538960933	 1.4821027389	 0.095165
81.1851	95.4273	123.2076	176.7593	258.464	269.246	315.8644	324.1108	356.8081	416.5188	428.4507	658.9615	724.6544	790.118	801.6431	865.7488	903.7813	924.0114	945.4729	969.9915	991.2496	1012.0329	1025.2031	1064.9969	1082.5673	1161.7057	1192.2958	1208.6235	1219.7492	1240.6123	1253.4173	1259.2788	1277.3121	1294.7393	1310.0525	1336.3421	1352.0018	1410.9628	1460.1108	1474.2592	1480.2222	1487.8392	1498.2745	1501.9719	1508.4562	1527.7348	2963.085	2994.9649	3019.301	3024.2288	3043.7076	3048.5553	3062.0107	3062.7744	3088.6301	3089.9063	3093.2843	3096.4958	3116.7076	3829.0257
CC1(CCO)CCC1	CC1(CCO)CCC1	
InChI=1S/C7H14O/c1-7(5-6-8)3-2-4-7/h8H,2-6H2,1H3	InChI=1S/C7H14O/c1-7(5-6-8)3-2-4-7/h8H,2-6H2,1H3
