15
gdb 24405	3.7393	1.6749	1.17772	2.8206	74.62	-0.1827	-0.0042	0.1786	977.0436	0.116293	-416.84469	-416.838092	-416.837148	-416.875587	26.16	
C	 0.0403752565	 1.4822098136	 0.1395642518	-0.145228
O	 1.3613297286	 2.0890533944	 0.0394055929	-0.283105
C	 2.127032264	 1.4362612703	-0.8465544554	 0.401878
C	 2.0146736727	 0.1303066439	-1.2553309112	 0.149096
C	 0.9723114952	-0.6737435016	-0.6602880303	-0.138034
C	 0.0522192046	-0.0299740025	 0.0762638941	-0.130289
N	 3.0619429318	-0.1847090723	-2.1007338799	-0.323217
C	 3.7792082104	 0.9065108702	-2.1861629946	-0.01396
N	 3.2544157023	 1.9384455529	-1.4245586823	-0.364506
H	-0.3616600121	 1.8463851773	 1.0872204371	 0.126087
H	-0.5741557738	 1.9038580062	-0.6746819256	 0.112259
H	 0.9895919699	-1.7535094124	-0.75810953	 0.106978
H	-0.7317757974	-0.5525878495	 0.61204351	 0.09911
H	 4.674394549	 1.0393323109	-2.7736518842	 0.130377
H	 3.6094255883	 2.8753514686	-1.3302509326	 0.272555
141.3266	176.1396	318.1604	410.6047	449.9572	494.1868	524.9128	606.9286	656.9131	672.564	727.4978	745.5174	775.9349	832.4838	917.0978	956.5678	972.2055	1003.5808	1027.7093	1071.1591	1164.834	1199.4307	1267.1079	1270.4407	1305.3455	1361.3488	1396.3372	1417.9449	1483.3517	1500.1051	1544.3459	1616.1592	1673.1213	2946.207	3102.3799	3186.2863	3205.6108	3259.0156	3665.7759
C1OC2=C(C=C1)N=CN2	C1Oc2c(C=C1)nc[nH]2	
InChI=1S/C6H6N2O/c1-2-5-6(9-3-1)8-4-7-5/h1-2,4H,3H2,(H,7,8)	InChI=1S/C6H6N2O/c1-2-5-6(9-3-1)8-4-7-5/h1-2,4H,3H2,(H,7,8)
