15
gdb 31369	4.1484	1.18437	0.92675	5.3271	74.42	-0.2187	-0.0285	0.1902	1201.0861	0.113387	-453.965492	-453.957438	-453.956493	-453.999475	28.711	
C	 0.012217446	 1.4412013567	 0.0653885551	-0.246463
O	 0.0229999427	 0.011079913	 0.0288964669	-0.260485
C	 0.613993804	-0.6621425027	 1.0142518044	 0.495893
C	 0.6753699693	-2.0024570304	 1.0730418747	-0.314365
C	 1.3437744492	-2.6450722059	 2.1905145319	 0.345243
N	 1.4326730764	-3.9152128719	 2.2981363856	-0.532285
N	 1.9004437488	-1.7667323657	 3.1699321362	-0.299988
C	 1.7837432762	-0.5206662482	 3.0138714596	 0.117673
O	 1.1637667895	 0.1329421638	 1.9790860087	-0.231042
H	 1.0276746578	 1.8466251188	 0.049373207	 0.141596
H	-0.5213235865	 1.743623076	-0.8354043874	 0.149132
H	-0.5127628363	 1.811984294	 0.9501176055	 0.141551
H	 0.2289273907	-2.5996512777	 0.2914159855	 0.128545
H	 1.9404175215	-4.1376476137	 3.1561602062	 0.216933
H	 2.1816944709	 0.204085464	 3.7175004604	 0.148063
23.8175	127.3427	154.3161	203.9174	225.7236	395.9311	430.5981	466.1437	557.441	602.1476	664.3515	737.2104	791.0543	855.1599	881.0338	904.0476	943.7508	955.4163	1027.1692	1079.5762	1151.2632	1173.6668	1202.4507	1266.0244	1315.6413	1391.7536	1414.9895	1488.8231	1489.7569	1499.445	1667.8462	1704.6348	1749.4143	3044.7364	3117.885	3159.2834	3193.7247	3244.4841	3469.0893
COC1=CC(=N)N=CO1	CO[C@H]1C=C([NH])N=CO1	
InChI=1S/C5H6N2O2/c1-8-5-2-4(6)7-3-9-5/h2-3,6H,1H3	InChI=1S/C5H7N2O2/c1-8-5-2-4(6)7-3-9-5/h2-3,5-6H,1H3/t5-/m1/s1
