21
gdb 6727	6.46703	0.7444	0.69868	2.7327	80.85	-0.2455	0.0276	0.2731	1691.0948	0.185874	-366.267864	-366.25756	-366.256616	-366.304176	35.58	
C	-0.0244436492	 1.3832869979	-0.058968982	-0.313763
N	 0.0338805867	-0.0473356761	 0.1516899638	-0.206662
C	-1.0349372701	-0.6953783555	 0.0124780355	 0.133356
O	-1.0569094842	-2.0327093813	 0.1696630721	-0.208374
C	-2.3387474252	-2.660858992	 0.093467546	-0.063021
C	-2.1377726606	-4.1711575814	-0.0038842956	 0.020654
C	-3.495386358	-4.8821301835	 0.0591769521	-0.39517
C	-1.3548899102	-4.5505398717	-1.2665350892	-0.385443
H	 0.6651575248	 1.6663574924	-0.8627131551	 0.126652
H	-1.0281383608	 1.7595903219	-0.318774353	 0.093448
H	 0.3130205852	 1.9032104391	 0.8451142566	 0.126515
H	-2.0090628111	-0.2505969074	-0.2490220577	 0.06939
H	-2.9247172472	-2.4078435313	 0.9879359158	 0.10292
H	-2.8861124207	-2.2913779127	-0.7866959963	 0.100025
H	-1.5467007173	-4.4685824824	 0.8721746694	 0.092303
H	-4.1288837901	-4.6006262037	-0.7905381314	 0.114771
H	-3.364662181	-5.967785184	 0.0257384838	 0.119811
H	-4.0390997985	-4.6387185876	 0.9782578533	 0.113733
H	-1.1606584512	-5.6272265152	-1.2946743853	 0.112141
H	-1.9218062609	-4.2909089048	-2.1691412481	 0.107486
H	-0.3970815104	-4.0267430507	-1.3051487646	 0.139229
26.1041	64.787	106.0593	150.4262	207.1501	224.0629	241.7071	255.9146	310.3618	316.4953	392.6194	413.9652	478.0125	625.3822	833.1143	922.1639	933.8773	961.8763	975.2823	984.4315	1032.9956	1076.3246	1141.2394	1151.1569	1157.9157	1185.1242	1201.9605	1257.7547	1279.9347	1330.4468	1375.5346	1392.81	1399.7314	1417.1394	1436.3075	1451.1853	1480.5294	1488.8788	1491.5355	1504.5682	1505.3771	1511.0605	1515.1824	1780.0339	2962.2183	2977.273	2992.747	3019.7486	3026.4591	3030.9545	3038.9462	3055.4061	3074.7285	3090.9735	3096.7493	3107.1984	3127.2288
CN=COCC(C)C	CN=COCC(C)C	
InChI=1S/C6H13NO/c1-6(2)4-8-5-7-3/h5-6H,4H2,1-3H3	InChI=1S/C6H13NO/c1-6(2)4-8-5-7-3/h5-6H,4H2,1-3H3
