20
gdb 15189	8.87107	0.67342	0.65781	1.1952	73.33	-0.252	0.092	0.344	1738.5981	0.175136	-386.111552	-386.102116	-386.101171	-386.146889	32.517	
C	-0.0329595912	 1.4651334161	 0.0783427193	-0.38437
C	-0.1046836861	-0.0509863521	 0.1470759622	-0.02932
O	 0.7989621932	-0.5008149516	 1.1357306477	-0.244737
C	 0.8057088396	-1.9018510487	 1.2889820409	-0.043759
C	 1.7914883972	-2.2604365653	 2.3966837241	-0.237737
C	 1.8924579172	-3.7506571041	 2.6023922765	 0.095268
C	 2.0706732051	-4.3522593466	 3.9287753689	-0.179778
O	 0.7984917602	-4.3803753634	 3.2806522869	-0.236089
H	 0.9802805142	 1.7899269134	-0.1749544336	 0.12536
H	-0.7207549188	 1.8459831368	-0.6825287614	 0.113971
H	-0.3022936966	 1.9057026584	 1.0424656035	 0.126484
H	-1.1292123849	-0.3799413727	 0.3907651452	 0.086517
H	 0.1493307639	-0.4952354145	-0.8308234661	 0.083569
H	-0.1992305303	-2.2727095282	 1.5486397471	 0.103436
H	 1.0972566519	-2.3923825641	 0.3429407521	 0.080488
H	 2.778721764	-1.8581501489	 2.1385021656	 0.109864
H	 1.4741748894	-1.7801725434	 3.3279749021	 0.112464
H	 2.2539760638	-4.3194796594	 1.7427608707	 0.090554
H	 2.5687314936	-5.3160431047	 4.0264436894	 0.113823
H	 2.1352199149	-3.7067965371	 4.8040788788	 0.113994
51.7916	67.0073	104.1201	124.8096	144.3109	228.223	247.2977	324.9282	405.1285	459.2299	516.6488	778.9054	817.9518	825.4335	870.0382	905.2892	950.6238	1016.616	1044.8736	1066.1014	1101.496	1148.7108	1157.5118	1160.2251	1171.086	1177.507	1193.8713	1244.9598	1291.2174	1296.7475	1306.7126	1311.8807	1390.7072	1408.8038	1446.7795	1455.7082	1477.8094	1483.6155	1500.0692	1518.0697	1532.0542	1540.2166	2941.5562	2955.5469	2976.8059	2988.1398	3039.2457	3044.8047	3077.9551	3082.5257	3096.8159	3119.1632	3121.1837	3167.0544
CCOCCC1CO1	CCOCC[C@H]1CO1	
InChI=1S/C6H12O2/c1-2-7-4-3-6-5-8-6/h6H,2-5H2,1H3	InChI=1S/C6H12O2/c1-2-7-4-3-6-5-8-6/h6H,2-5H2,1H3/t6-/m0/s1
