20
gdb 40252	2.72094	1.60011	1.22016	1.3694	78.33	-0.2446	0.0688	0.3133	1075.767	0.173599	-403.120657	-403.11308	-403.112136	-403.15256	30.664	
C	 0.1397981073	 1.4634757289	-0.0268890267	-0.249813
O	 1.2460318308	 0.5547818994	-0.0358564041	-0.288032
C	-0.0898288425	 0.0147434824	 0.0052593365	 0.473119
C	-0.4626008454	-0.6992792963	 1.2881558317	-0.286871
C	 0.0324821202	-2.1529633207	 1.233615587	-0.20695
C	-0.6410993855	-2.9523237432	 0.103005685	-0.202333
C	-0.743928607	-2.1734724343	-1.2040997553	-0.026958
N	-1.85904234	-1.210388121	-1.2976167844	-0.346172
C	-0.4754685987	-0.7065433845	-1.2510301801	-0.111206
H	 0.0207535649	 2.0465494316	 0.8860180964	 0.110014
H	-0.0161563605	 2.0196286103	-0.9511622081	 0.106485
H	-0.0125932151	-0.1665611901	 2.1311366898	 0.100392
H	-1.5512798017	-0.6734187972	 1.4108512176	 0.117582
H	 1.1179608657	-2.1387798492	 1.0768029867	 0.111565
H	-0.1413498542	-2.6512920757	 2.1928303064	 0.092635
H	-0.0823603411	-3.8783188173	-0.0705952195	 0.096113
H	-1.6534523612	-3.2454606095	 0.4043959297	 0.109551
H	-0.5087615592	-2.7322592097	-2.1071176528	 0.085566
H	-2.2134491849	-1.1653910562	-2.2489476739	 0.232071
H	-0.0386083718	-0.2904433177	-2.1560437321	 0.083241
91.5903	196.802	230.5942	313.3582	357.2485	382.8286	440.371	470.6426	516.1036	646.8405	713.013	779.6446	809.2709	847.4352	873.7862	892.2484	928.2853	929.629	940.6091	988.7641	1000.5115	1059.3898	1064.3574	1117.3709	1129.5733	1153.2413	1160.1083	1169.3133	1202.3648	1232.7027	1259.8007	1285.2145	1305.2136	1335.9976	1373.974	1376.4206	1387.4459	1424.0673	1460.2456	1479.3281	1481.485	1497.9578	1533.5424	3031.8083	3034.3203	3043.7081	3069.9407	3074.6624	3082.6546	3095.1789	3126.1304	3137.8837	3158.8292	3507.2428
C1OC11CCCC2NC12	C1O[C@]21CCC[C@H]1N[C@@H]21	
InChI=1S/C7H11NO/c1-2-5-6(8-5)7(3-1)4-9-7/h5-6,8H,1-4H2	InChI=1S/C7H11NO/c1-2-5-6(8-5)7(3-1)4-9-7/h5-6,8H,1-4H2/t5-,6-,7+/m1/s1
