24
gdb 101731	2.85428	0.86195	0.71819	1.242	87.12	-0.2231	0.0891	0.3123	1678.2765	0.214749	-405.509929	-405.498902	-405.497958	-405.546832	39.594	
C	-0.0018622774	 0.8857171883	 0.8653608194	-0.237243
O	 0.927247334	 0.1465129112	 0.1087349842	-0.244347
C	 0.4687057265	-0.2500841619	-1.179607978	 0.129788
C	 1.7014947537	-0.4176019527	-2.0584688049	-0.395315
C	-0.3661281932	-1.5381652855	-1.07079929	-0.153858
N	-0.9650307936	-1.8702280611	-2.3590709686	-0.086978
C	-0.4073076502	-2.9828038865	-3.1239291539	-0.251166
C	-1.7543625849	-3.0970187659	-2.4984694478	 0.031203
C	-2.011119951	-4.0434385611	-1.3461327707	-0.411968
H	-0.3145303055	 1.8027714914	 0.3416306451	 0.104176
H	-0.9068968543	 0.3117445844	 1.1151969878	 0.10273
H	 0.493341669	 1.1664153994	 1.7987765762	 0.124122
H	-0.1759373512	 0.5352893709	-1.6043362599	 0.070991
H	 1.4153029607	-0.7104559516	-3.0714749016	 0.12752
H	 2.2595979331	 0.5211153737	-2.107624208	 0.117009
H	 2.3630325089	-1.1852840461	-1.6428588758	 0.11564
H	 0.2775972332	-2.333511634	-0.6612255842	 0.088919
H	-1.1766291656	-1.3741277833	-0.3515757524	 0.097739
H	-0.2933670189	-2.824075756	-4.1935953852	 0.111028
H	 0.3973098327	-3.5574819087	-2.6648121879	 0.106064
H	-2.6186343025	-2.9585866691	-3.1479391567	 0.087554
H	-1.1131310534	-4.2293458158	-0.7520833363	 0.122206
H	-2.7856597125	-3.6513862328	-0.6771951373	 0.122184
H	-2.3642416175	-5.0076149871	-1.7270045936	 0.122001
44.6821	71.5459	88.7715	125.5564	184.5039	202.5463	227.1741	237.2211	275.5943	325.2361	395.9487	419.7743	451.1605	493.1172	526.5233	758.7288	811.6156	852.5774	900.2644	914.1148	927.5385	953.3352	1034.7509	1052.0697	1084.2807	1116.4454	1130.4189	1144.9752	1148.2597	1155.2416	1181.4836	1188.9437	1194.4265	1232.7001	1279.5871	1335.0714	1335.5313	1380.0042	1388.8498	1403.383	1413.2265	1421.9633	1478.7598	1481.1602	1488.9749	1490.9639	1492.9864	1498.7924	1501.0413	1510.3769	1514.0642	2966.3572	2973.8699	2987.4847	3019.248	3034.4424	3041.9724	3059.0492	3082.0163	3091.6329	3096.9931	3106.651	3112.7432	3126.1459	3131.2403	3167.6034
COC(C)CN1CC1C	CO[C@@H](C)CN1C[C@H]1C	
InChI=1S/C7H15NO/c1-6-4-8(6)5-7(2)9-3/h6-7H,4-5H2,1-3H3	InChI=1S/C7H15NO/c1-6-4-8(6)5-7(2)9-3/h6-7H,4-5H2,1-3H3/t6-,7+,8?/m1/s1
