20
gdb 56762	2.81369	1.2853	1.03862	3.7869	82.73	-0.2633	0.0363	0.2996	1215.8364	0.171212	-366.006166	-365.997307	-365.996362	-366.039921	33.436	
C	-0.2307960443	 1.6117709119	-0.1457123882	-0.391213
C	-0.0180170094	 0.0862948796	-0.0363304673	-0.259723
C	-1.30136061	-0.604365824	 0.1336819727	 0.2769
N	-2.3135939509	-1.1500642489	 0.251628283	-0.337585
C	 0.7458445977	-0.4668592541	-1.2250170965	 0.393852
C	 0.1093078498	-0.8384553604	-2.5356705689	-0.327973
C	 0.8735829105	-1.8896185695	-1.7729569971	-0.110125
C	 2.3796723864	-1.6966880556	-1.9831421423	-0.221069
C	 2.2531244195	-0.238837338	-1.4284947577	-0.30383
H	 0.7381618308	 2.1100742109	-0.2373866458	 0.129692
H	-0.8286923897	 1.85288933	-1.0281545799	 0.14042
H	-0.740184882	 2.002845022	 0.7384262605	 0.134105
H	 0.5672180408	-0.1153130104	 0.8719153878	 0.122692
H	-0.9696641029	-0.9539484775	-2.5133606443	 0.134457
H	 0.5013298881	-0.4411814039	-3.4698147419	 0.103866
H	 0.387554404	-2.7940722479	-1.4273288044	 0.103147
H	 2.9927042127	-2.3303946062	-1.3391039449	 0.107856
H	 2.7332983174	-1.8011266889	-3.0138118759	 0.101296
H	 2.5301018045	 0.5779748046	-2.1027259286	 0.099962
H	 2.7936020369	-0.1096286038	-0.4866104503	 0.103271
55.0763	122.8631	165.0511	206.4959	232.2744	265.0766	332.5237	386.1169	428.7267	502.5401	572.2823	688.4747	712.3263	787.0461	831.617	860.9114	888.6633	930.6269	948.1381	976.1959	999.6582	1023.132	1043.2193	1079.0209	1095.0192	1108.6467	1121.6796	1157.1866	1199.1887	1225.1188	1243.2105	1269.4976	1286.5527	1320.1196	1350.1555	1388.4339	1409.4085	1482.1865	1485.9033	1494.005	1498.0571	1512.2879	2355.2007	3011.6633	3042.7641	3049.4343	3053.2631	3090.493	3104.2378	3114.008	3126.1208	3132.2845	3186.372	3203.0417
CC(C#N)C12CC1CC2	C[C@@H](C#N)[C@]12C[C@H]1CC2	
InChI=1S/C8H11N/c1-6(5-9)8-3-2-7(8)4-8/h6-7H,2-4H2,1H3	InChI=1S/C8H11N/c1-6(5-9)8-3-2-7(8)4-8/h6-7H,2-4H2,1H3/t6-,7+,8-/m0/s1
