15
gdb 46657	2.44769	1.61883	1.43325	4.4053	70.63	-0.2617	0.0002	0.2619	968.9711	0.11292	-420.621565	-420.614081	-420.613137	-420.653696	28.485	
O	 0.0179057778	 0.0132618425	 0.1985679596	-0.340646
C	 0.0208731746	 1.1887581627	-0.0179890031	 0.455572
O	-1.1187582057	 1.8882573272	-0.2947200459	-0.222194
C	-0.8384595143	 3.2341608763	-0.7071254225	-0.101741
C	 0.6510749492	 3.4560022713	-0.4965710038	-0.096984
C	 1.1504542428	 3.2987664634	 0.9233773032	-0.218144
C	 0.265501549	 3.3329357419	 2.0505709627	 0.345297
C	-0.4788507139	 3.383216784	 2.9933126919	-0.446854
C	 1.1932125991	 2.1246174664	-0.0617695738	-0.214965
H	-1.1084839366	 3.3365611665	-1.7631934038	 0.124204
H	-1.4605879398	 3.9063012944	-0.108923712	 0.135998
H	 1.1844010848	 4.1137018966	-1.1711812756	 0.114835
H	 2.130808809	 3.7308935026	 1.1035592464	 0.13063
H	-1.1326336205	 3.4083574908	 3.8299637075	 0.207058
H	 2.1535902344	 1.7165160433	-0.3444445509	 0.127934
96.0293	126.8675	186.2475	257.3532	336.8156	469.3667	507.133	562.6905	614.8452	669.2938	669.9146	715.7999	771.0554	783.7176	816.6865	862.1808	950.4095	981.0848	991.7724	1009.3582	1072.8891	1097.8737	1106.7541	1172.2329	1186.9966	1239.3426	1319.336	1348.3011	1375.2978	1422.2038	1510.4484	1885.372	2240.6899	3048.6319	3095.5845	3149.2299	3194.8988	3219.2034	3502.4035
O=C1OCC2C(C#C)C12	O=C1OC[C@H]2[C@@H](C#C)[C@@H]12	
InChI=1S/C7H6O2/c1-2-4-5-3-9-7(8)6(4)5/h1,4-6H,3H2	InChI=1S/C7H6O2/c1-2-4-5-3-9-7(8)6(4)5/h1,4-6H,3H2/t4-,5+,6-/m1/s1
