20
gdb 73316	2.88712	2.04652	1.4415	1.5474	82.83	-0.2242	0.0832	0.3074	958.2527	0.172574	-365.927049	-365.919972	-365.919028	-365.957919	29.84	
C	-0.0401020595	 1.5521048457	-0.0565388328	-0.497044
C	 0.1257404977	 0.0558020358	 0.0293389743	 0.342965
C	 0.5707406975	-0.6988313907	-1.2533685889	-0.254832
C	 0.4582161435	-2.2013815815	-0.8037100971	-0.34449
C	 0.0004296808	-1.9079894954	 0.6058537247	 0.345063
C	-0.5611028706	-2.3766597086	 1.9558435029	-0.347129
C	-0.5855862976	-0.8271925131	 1.9820861145	-0.027847
C	 0.7513566868	-0.683525136	 1.2190667741	-0.124207
N	-1.0654897245	-0.7843550514	 0.5125064495	-0.21065
H	 0.9084332533	 2.0373676239	-0.3130229457	 0.115222
H	-0.7725179947	 1.8163049987	-0.827278363	 0.123806
H	-0.3854274892	 1.9694515796	 0.8946539151	 0.118071
H	-0.09732582	-0.4720115261	-2.0895317268	 0.107866
H	 1.587992977	-0.4265599534	-1.5514602777	 0.098343
H	-0.2812633399	-2.75787034	-1.3845561318	 0.112293
H	 1.4122132539	-2.7332850364	-0.8467403529	 0.102335
H	-1.5352405672	-2.8725627236	 1.9317054823	 0.10912
H	 0.1335585427	-2.8750604044	 2.6365882783	 0.099089
H	-1.0202343548	-0.1766446922	 2.7421549423	 0.079226
H	 1.7722456549	-0.6609320308	 1.6191187989	 0.052803
200.7524	216.2329	255.6807	287.8909	370.8848	451.3378	462.0224	606.685	666.7384	713.4909	723.1337	789.8422	829.9906	848.0513	861.9688	873.4873	906.1303	929.4823	940.0256	999.2526	1011.9695	1027.3475	1064.417	1069.5146	1119.6411	1135.6844	1153.7443	1168.8724	1195.4149	1201.3738	1226.9789	1232.0624	1250.245	1271.1049	1288.5691	1335.5511	1349.9337	1412.1434	1474.4189	1487.6389	1491.0796	1492.9191	1499.5595	3025.6283	3028.6544	3050.9826	3055.7789	3065.7948	3092.0842	3094.9822	3100.7797	3104.8485	3115.8253	3122.7988
CC12CCC34CC(C13)N24	C[C@@]12CC[C@@]34C[C@@H]([C@H]13)N24	
InChI=1S/C8H11N/c1-7-2-3-8-4-5(6(7)8)9(7)8/h5-6H,2-4H2,1H3	InChI=1S/C8H11N/c1-7-2-3-8-4-5(6(7)8)9(7)8/h5-6H,2-4H2,1H3/t5-,6+,7+,8+/m0/s1
