14
gdb 29260	3.22147	1.44296	0.99657	2.3931	70.32	-0.2249	-0.0276	0.1973	1093.5723	0.102355	-470.027276	-470.019584	-470.018639	-470.059602	29.268	
O	-0.0936654795	 1.3706258624	-0.1798193861	-0.408589
C	-0.0011134256	 0.0290938116	-0.0120268689	 0.250533
C	 1.1424845805	-0.6583431892	 0.0989904558	-0.073926
O	 1.2125738574	-2.0201642458	 0.2687849915	-0.226929
C	 0.0702142695	-2.7684942857	 0.3346051485	 0.470072
N	 0.0712125212	-4.0245059599	 0.4890815027	-0.5744
N	-1.1114068249	-2.0625637893	 0.2208037567	-0.41626
C	-1.2821291824	-0.6884878998	 0.0472895505	 0.358601
N	-2.3953007213	-0.077150632	-0.0535809496	-0.521818
H	 0.7913661459	 1.7511258834	-0.206296966	 0.301714
H	 2.1309306847	-0.217561884	 0.067164694	 0.127601
H	 1.0227107552	-4.3773586915	 0.5542806811	 0.231519
H	-1.9354521453	-2.6432879503	 0.273363801	 0.269312
H	-3.1859655754	-0.7210853098	 0.007838209	 0.212569
88.0017	117.0142	296.3035	325.1639	340.9282	371.5195	394.4847	453.3875	545.5615	572.1781	604.1015	703.3108	743.1501	747.0821	793.155	804.657	831.4418	856.6231	914.9871	1064.6148	1148.4579	1179.0828	1216.065	1307.7121	1322.0461	1412.5198	1418.89	1488.532	1704.1826	1737.2957	1774.3208	3213.2188	3461.6266	3538.9608	3624.7286	3813.5109
OC1=COC(=N)NC1=N	OC1=C(N[C@@H](OC1)[NH])[NH]	
InChI=1S/C4H5N3O2/c5-3-2(8)1-9-4(6)7-3/h1,8H,(H3,5,6,7)	InChI=1S/C4H7N3O2/c5-3-2(8)1-9-4(6)7-3/h4-8H,1H2/t4-/m0/s1
