18
gdb 39795	3.44461	1.46151	1.19032	0.7668	77.27	-0.2336	0.0686	0.3022	1056.2902	0.149447	-397.97771	-397.970434	-397.96949	-398.009165	29.514	
C	-0.0221326688	 1.5225552722	-0.0099679549	-0.344466
N	 1.2565345008	 0.7435346675	 0.0389764682	-0.4041
C	-0.0111277735	 0.0615823858	 0.0028501114	 0.530799
C	-0.5581052646	-1.0271031596	 0.9399091358	-0.255885
N	-1.7938367893	-1.0196482764	 0.0333913757	-0.322292
C	-0.6005708905	-1.0146827043	-0.9231644788	-0.261989
C	 0.0982586863	-2.0483782136	-0.0119403359	 0.458268
C	 1.3312617464	-2.8419873206	-0.0247421808	-0.339399
N	-0.0183427787	-3.4893448732	-0.0725908955	-0.408879
H	-0.2402325694	 2.084795686	 0.8931806001	 0.125524
H	-0.2855511578	 2.0282001176	-0.9352515875	 0.118131
H	 1.7017062648	 0.7394693097	-0.8758687557	 0.233095
H	-0.6287445055	-1.0298386647	 2.0278673498	 0.087436
H	-2.1875204307	-1.9659824061	 0.0277064453	 0.218592
H	-0.7214659557	-1.0109708494	-2.0066781312	 0.088482
H	 1.9142134118	-2.953918699	-0.9348479614	 0.122474
H	 1.9071756817	-2.9174328521	 0.8939367281	 0.121768
H	-0.2452550375	-3.8748080597	 0.8417374073	 0.232442
125.5105	224.7492	239.0019	276.5848	343.9883	386.0099	477.6852	520.9161	665.5689	707.7495	761.8437	777.9217	850.3416	872.0065	886.4323	905.4685	938.6939	949.9126	968.2611	975.4577	1020.8191	1062.0833	1075.1433	1100.709	1117.6214	1121.4565	1131.847	1158.3792	1206.4241	1221.7786	1245.8375	1250.9923	1257.6311	1287.1081	1301.0415	1434.8154	1462.6966	1520.4624	1545.8404	3108.6123	3111.601	3117.1306	3121.3125	3192.9972	3196.7843	3393.4698	3486.7944	3494.2716
C1NC11C2NC1C21CN1	C1N[C@]21[C@H]1N[C@@H]2[C@]21CN2	
InChI=1S/C6H9N3/c1-5(7-1)3-6(2-8-6)4(5)9-3/h3-4,7-9H,1-2H2	InChI=1S/C6H9N3/c1-5(7-1)3-6(2-8-6)4(5)9-3/h3-4,7-9H,1-2H2/t3-,4+,5-,6-
