16
gdb 20224	4.33534	2.74173	2.36637	0.2964	70.28	-0.2317	0.0162	0.2479	650.6439	0.133961	-309.416542	-309.411537	-309.410593	-309.445149	22.364	
C	-0.0480807878	 1.558239279	-0.0342552924	-0.088827
C	 1.1977573414	 2.0520661633	-0.0440261499	-0.088831
C	 2.1689555397	 0.9002701906	-0.0173474739	-0.068964
C	 2.1034720538	 0.0471403169	 1.2936203055	-0.069205
C	 0.6839051647	-0.515557501	 1.3047436753	-0.069203
C	 1.7816586399	-1.2275955744	 0.5595444884	-0.111718
C	 1.4065176919	-0.305222626	-0.6557035234	-0.060226
C	 0.0339902317	 0.0540093118	-0.0006131681	-0.068965
H	-0.9670435995	 2.1285872636	 0.034839536	 0.091773
H	 1.4772764888	 3.0974697272	 0.0156711878	 0.091773
H	 3.1845571755	 1.0805613767	-0.370405871	 0.061587
H	 2.6699827377	 0.1855722324	 2.2051617954	 0.083134
H	 0.1888041896	-0.7979372035	 2.2246037834	 0.083134
H	 2.1790572649	-2.2286892657	 0.63311099	 0.086682
H	 1.4878553859	-0.531430293	-1.7180212222	 0.06627
H	-0.8340117583	-0.512320528	-0.3389103509	 0.061587
371.3757	408.4872	551.0932	657.9541	716.6264	731.8308	769.3065	807.5458	810.6762	823.534	842.5705	874.9529	885.5779	945.815	951.1307	961.1797	978.7117	989.2504	1009.5814	1025.8623	1041.0094	1044.043	1124.9662	1132.422	1163.467	1178.4305	1213.1895	1236.3013	1251.3711	1286.74	1296.603	1358.0451	1360.5946	1634.4056	3108.7345	3109.2391	3126.1545	3186.3242	3194.3454	3201.3164	3211.7945	3229.3126
C1=CC2C3C4C3C2C14	C1=C[C@H]2[C@H]3[C@@H]4[C@H]3[C@H]2[C@H]14	
InChI=1S/C8H8/c1-2-4-5-3(1)6-7(4)8(5)6/h1-8H	InChI=1S/C8H8/c1-2-4-5-3(1)6-7(4)8(5)6/h1-8H/t3-,4+,5-,6+,7-,8+
