23
gdb 86185	2.36037	1.28907	1.04322	0.8862	81.09	-0.2496	0.0667	0.3163	1286.1093	0.204943	-425.451192	-425.44122	-425.440276	-425.485888	38.546	
C	-0.1715194771	 1.5417356407	-0.0443212791	-0.404898
C	 0.0393381616	 0.02944791	-0.0200138563	 0.038377
C	 0.8030064899	-0.5413583439	-1.2242419701	-0.253257
C	 1.162894889	-1.9596324132	-0.7663768909	 0.100357
O	 2.1790726002	-2.6040388278	-1.5066138841	-0.449049
C	 1.5343777772	-1.8025639803	 0.7508405513	 0.383491
C	 1.1085265839	-3.011052488	 1.5798706219	-0.467699
O	 2.9552107724	-1.6153103779	 0.8543767735	-0.483108
C	 0.8726528572	-0.4716362364	 1.1829992981	-0.253603
H	 0.7889726035	 2.0679354571	-0.091609016	 0.1145
H	-0.7643186182	 1.8484604748	-0.9126370239	 0.111983
H	-0.6953332934	 1.8857655094	 0.8542027912	 0.111842
H	-0.9468600967	-0.4558861105	 0.0127318445	 0.069302
H	 0.235919381	-0.525272644	-2.1590430545	 0.096201
H	 1.7271290134	 0.0323909352	-1.3837592668	 0.0926
H	 0.2827848773	-2.6071766522	-0.8556127008	 0.082395
H	 2.9723426139	-2.0701321243	-1.3726120545	 0.272665
H	 1.5298581403	-3.9334407811	 1.1610760778	 0.118074
H	 1.4495863309	-2.9090134138	 2.6148090795	 0.121114
H	 0.0189400637	-3.1186671587	 1.5843764283	 0.117147
H	 3.3600728283	-2.4834156642	 0.7423377484	 0.276351
H	 1.6748126476	 0.2405355124	 1.4024168119	 0.112625
H	 0.2756069441	-0.5778742333	 2.0931955604	 0.092589
39.2076	133.0274	167.2282	233.8919	241.2259	269.5101	281.6712	312.4869	348.7093	404.3152	427.9427	473.2702	505.4045	564.158	600.5311	605.0145	735.7062	851.5615	869.0354	905.1456	935.9374	944.2468	965.076	1013.4922	1036.3048	1060.0079	1100.2386	1115.9762	1142.5331	1151.0404	1196.782	1213.4843	1250.8346	1266.6348	1306.4843	1319.0034	1348.9562	1351.0694	1381.2197	1390.2332	1404.0513	1409.4453	1440.9439	1478.8491	1490.5757	1493.6832	1496.6817	1497.8634	1499.5855	2994.2308	3015.2863	3021.8874	3024.7676	3045.007	3049.2307	3088.9207	3090.4873	3092.581	3094.6943	3098.7141	3108.3816	3773.331	3791.8659
CC1CC(O)C(C)(O)C1	C[C@H]1C[C@@H](O)[C@@](C)(O)C1	
InChI=1S/C7H14O2/c1-5-3-6(8)7(2,9)4-5/h5-6,8-9H,3-4H2,1-2H3	InChI=1S/C7H14O2/c1-5-3-6(8)7(2,9)4-5/h5-6,8-9H,3-4H2,1-2H3/t5-,6+,7-/m0/s1
