17
gdb 6819	2.9623	1.74145	1.44663	4.4082	68.6	-0.2763	0.0279	0.3042	928.393	0.141108	-363.874681	-363.866298	-363.865354	-363.907211	31.018	
C	 0.3408024754	 1.4704452414	-0.2331024335	-0.457276
C	-0.0117780211	 0.0010092438	-0.0466594234	 0.400326
O	-1.3967901399	-0.187332162	 0.1304555734	-0.469724
C	 0.7009590652	-0.9507819581	-1.0599716465	-0.277763
C	 1.7686389184	-1.267765985	 0.0181680682	-0.24109
C	 0.7839117527	-0.719592149	 1.0961875521	-0.161338
C	 1.3061899422	 0.0660969037	 2.1989192594	 0.268133
N	 1.7350617776	 0.7149418434	 3.0550868012	-0.338936
H	 1.4203895389	 1.6197084239	-0.3243594814	 0.134181
H	-0.1229029786	 1.8508562661	-1.151547378	 0.112687
H	-0.0147101434	 2.0627038013	 0.6147647283	 0.146422
H	-1.8682984069	 0.4217158964	-0.4475134218	 0.282239
H	 0.0633940154	-1.8120007023	-1.272368032	 0.116485
H	 1.045917056	-0.5130072743	-1.9993289986	 0.103281
H	 2.0792067572	-2.3058427673	 0.1378122577	 0.120681
H	 2.6573472941	-0.640282645	-0.0708728972	 0.126073
H	 0.1516400769	-1.5222083969	 1.4848200421	 0.135619
102.2517	135.6207	168.0307	211.2271	265.9564	301.8242	354.3412	395.0858	428.2048	533.0888	579.2182	610.1377	731.747	797.0827	887.0064	899.7723	950.4353	957.9696	994.2065	1058.2261	1081.938	1119.3357	1160.5178	1185.0191	1214.3747	1244.6696	1267.9008	1288.5871	1351.3419	1368.8749	1414.5832	1478.4099	1489.6268	1493.7752	1498.9796	2350.5733	3028.7745	3067.8344	3083.0855	3086.63	3100.1115	3122.5717	3124.4448	3144.7712	3811.0166
CC1(O)CCC1C#N	C[C@@]1(O)CC[C@H]1C#N	
InChI=1S/C6H9NO/c1-6(8)3-2-5(6)4-7/h5,8H,2-3H2,1H3	InChI=1S/C6H9NO/c1-6(8)3-2-5(6)4-7/h5,8H,2-3H2,1H3/t5-,6+/m0/s1
