17
gdb 51934	5.92799	0.45927	0.44478	2.1916	84.39	-0.2498	-0.0285	0.2213	2349.9222	0.131727	-384.634158	-384.62369	-384.622745	-384.673338	35.126	
O	-0.0298742752	-0.0096843281	 0.1979041244	-0.231176
C	 0.1673499076	 0.9115038263	-0.5502446836	 0.155569
C	 1.4409971528	 1.7249499224	-0.6083149612	-0.261463
C	 1.1547709527	 3.2430010106	-0.5255375596	-0.364753
C	 2.3549615981	 4.0510203627	-0.6988439551	 0.032998
C	 3.3601826012	 4.6945762751	-0.8477860992	 0.138592
C	 4.5771952165	 5.4901551497	-1.0232999343	-0.491766
C	 4.9071628631	 5.7555812853	-2.4251358097	 0.316844
C	 5.1877830928	 5.9790883982	-3.5707106899	-0.444399
H	-0.6130736868	 1.2321160862	-1.2816867401	 0.072229
H	 2.1112866237	 1.400687111	 0.1908977843	 0.134309
H	 1.9284360632	 1.5137862159	-1.5696610729	 0.136554
H	 0.4150686077	 3.5153990343	-1.2903609231	 0.137023
H	 0.6902475674	 3.4724742821	 0.4418655181	 0.143443
H	 4.4710154405	 6.4449124595	-0.4897926609	 0.162474
H	 5.4230308866	 4.9782830922	-0.5436914154	 0.162024
H	 5.4329330281	 6.1752970167	-4.585028852	 0.201498
6.6356	51.8458	62.6203	82.9114	114.769	245.6227	262.2617	295.5379	322.4087	378.2	437.4587	529.1359	566.0319	623.895	650.3894	755.3986	788.7335	849.4622	934.4334	946.3907	991.3324	1075.4649	1093.3337	1164.1087	1198.8097	1231.1097	1263.8866	1304.6836	1335.7075	1364.2589	1430.1718	1452.9171	1461.54	1480.2474	1839.2442	2247.4936	2378.8021	2845.1773	3007.7324	3015.4143	3030.2209	3031.728	3049.5476	3117.4577	3506.8445
O=CCCC#CCC#C	O=CCCC#CCC#C	
InChI=1S/C8H8O/c1-2-3-4-5-6-7-8-9/h1,8H,3,6-7H2	InChI=1S/C8H8O/c1-2-3-4-5-6-7-8-9/h1,8H,3,6-7H2
