20
gdb 56174	3.23447	0.98481	0.90552	7.0749	75.44	-0.2386	0.0348	0.2734	1360.7066	0.170842	-440.309299	-440.300161	-440.299217	-440.343608	34.233	
C	 0.1625733564	 1.1455812769	 1.1919178106	-0.462342
C	-0.0888997486	 0.4097872841	-0.1086002451	 0.331352
C	-1.2998085233	 0.9254268272	-0.8813274826	-0.264159
C	-1.769079106	 0.1284222668	-2.1186841394	-0.350269
C	-2.7168313928	-1.0430013435	-1.8308837782	 0.389641
O	-2.2316067777	-2.022932282	-1.0627164065	-0.378437
O	-3.8344903528	-1.0845974206	-2.2797675408	-0.333252
C	 1.0787028696	-0.1856130267	-0.809626811	-0.279699
N	 0.1113987989	-1.0562140108	-0.1126221309	-0.350888
H	 0.480120529	-1.3873544358	 0.7740607857	 0.244437
H	-1.3081214851	-1.8061965389	-0.7664401594	 0.323869
H	 1.056944479	 0.7696046203	 1.6991797103	 0.116186
H	 0.3060759646	 2.2160086474	 1.0109639218	 0.134924
H	-0.6894939675	 1.035734646	 1.8717326947	 0.135199
H	-2.1391001279	 1.0247012093	-0.1812931663	 0.121082
H	-1.0591035286	 1.9464010308	-1.2019202754	 0.114834
H	-2.322710978	 0.7963371379	-2.7801083242	 0.132169
H	-0.9102943961	-0.2453665806	-2.6887589502	 0.117091
H	 1.0922779703	-0.2893129916	-1.8899434	 0.134231
H	 2.0596103665	-0.0633090364	-0.3596266333	 0.124031
53.1679	89.491	176.6899	217.7331	238.9796	244.5347	343.036	371.2856	403.5288	436.7357	488.8946	595.2289	674.5254	725.5722	810.7294	837.1992	880.343	917.6025	930.7363	958.2857	986.9036	1001.5429	1015.9929	1059.8496	1071.1014	1122.2584	1140.9227	1176.5517	1249.6948	1263.4444	1292.0433	1313.5889	1354.094	1377.7776	1404.6031	1420.7328	1472.4739	1481.9381	1486.4238	1492.6331	1502.2851	1520.601	1850.4065	3024.5322	3031.1931	3044.7109	3062.236	3098.8258	3103.7473	3120.5983	3122.4707	3203.2616	3210.2894	3516.8311
CC1(CCC([O-])=O)C[NH2+]1	C[C@@]1(CCC(=O)O)CN1	
InChI=1S/C6H11NO2/c1-6(4-7-6)3-2-5(8)9/h7H,2-4H2,1H3,(H,8,9)	InChI=1S/C6H11NO2/c1-6(4-7-6)3-2-5(8)9/h7H,2-4H2,1H3,(H,8,9)/t6-/m1/s1
