14
gdb 67355	3.01493	1.95036	1.36303	2.5462	60.62	-0.2492	-0.0138	0.2354	881.3689	0.1014	-473.777677	-473.770948	-473.770004	-473.808614	26.729	
N	 0.1533825059	 1.4625600731	-0.0120943448	-0.621369
C	 0.0386091868	 0.058285605	-0.0306014265	 0.176286
C	 0.0130709028	-0.7979562076	 1.2816912563	 0.009012
O	-1.4234951009	-0.5562979268	 1.4792191573	-0.324033
C	-1.3059777856	-0.8112504898	 0.0419399395	-0.026578
C	-0.3065703382	-1.9586113706	 0.3058675856	 0.063524
O	 0.6673539637	-2.023974079	-0.7382905296	-0.236694
C	 0.915935656	-0.6994332095	-1.007623354	 0.440568
O	 1.6469202598	-0.3043170388	-1.8632392818	-0.335232
H	 0.2292211113	 1.8448242158	-0.9475872354	 0.251732
H	-0.6165443309	 1.8953044803	 0.4847674275	 0.248814
H	 0.6722378156	-0.7491423692	 2.1478516254	 0.116017
H	-2.2066563728	-0.7729439675	-0.5708494037	 0.111319
H	-0.6171994834	-2.9386180756	 0.6522378244	 0.126636
158.5832	184.025	307.0185	375.0007	382.2986	416.5827	537.9822	644.3274	662.1999	707.2718	725.8718	768.017	816.0398	870.414	883.6355	899.2116	920.0473	944.0658	1037.412	1061.7633	1088.0073	1124.5888	1148.0104	1162.767	1205.463	1266.5572	1313.9891	1356.3119	1409.6904	1628.8392	1910.7669	3125.6635	3134.4963	3196.0719	3521.881	3614.5796
NC12C3OC1C3OC2=O	N[C@@]12[C@H]3O[C@@H]1[C@H]3OC2=O	
InChI=1S/C5H5NO3/c6-5-2-1(3(5)9-2)8-4(5)7/h1-3H,6H2	InChI=1S/C5H5NO3/c6-5-2-1(3(5)9-2)8-4(5)7/h1-3H,6H2/t1-,2-,3+,5-
