25
gdb 118071	3.23474	0.79554	0.67516	0.1154	87.23	-0.247	0.09	0.3371	1782.9596	0.224704	-426.620824	-426.608679	-426.607735	-426.659502	42.317	
C	-0.069621589	 1.4945918691	-0.0960392539	-0.384251
C	-0.0112381676	-0.0061736047	 0.1386279817	-0.034158
O	-1.3114406835	-0.533047673	-0.0364142379	-0.262667
C	-1.4078911118	-1.9498469557	 0.0182698715	 0.131843
C	-1.335795382	-2.4759755597	 1.4523593654	-0.411005
C	-2.7372601644	-2.3138098889	-0.6671120355	 0.128693
C	-2.8114906116	-1.7880429147	-2.1008707992	-0.410044
O	-2.8309038939	-3.7316206043	-0.6128535353	-0.249204
C	-4.1254804379	-4.2480504329	-0.8090272564	-0.233812
H	 0.9211045033	 1.9402561125	 0.0348585792	 0.11316
H	-0.4187514437	 1.7124179576	-1.1094796356	 0.123906
H	-0.758040711	 1.9659867345	 0.6112448742	 0.125997
H	 0.6870963243	-0.4818962516	-0.5703525037	 0.084754
H	 0.3665983675	-0.2146378015	 1.1515741853	 0.08973
H	-0.5932834976	-2.3974506674	-0.5765022173	 0.068033
H	-2.1111262626	-2.0038120237	 2.0651310024	 0.114029
H	-1.4910377843	-3.5562252977	 1.4595647308	 0.134626
H	-0.3641018264	-2.2641119534	 1.9070212259	 0.10986
H	-3.5534333426	-1.8692698635	-0.0718497405	 0.067347
H	-2.6614035413	-0.7071849511	-2.1067167464	 0.134195
H	-2.0336741933	-2.2560157301	-2.7136626508	 0.114785
H	-3.7820729118	-2.0033655444	-2.5564143036	 0.109096
H	-4.0697369271	-5.3271227935	-0.6429791631	 0.124673
H	-4.8470198408	-3.8174123931	-0.0968512801	 0.102901
H	-4.5026977511	-4.0737789888	-1.8270684472	 0.107512
35.9011	53.1937	69.0844	87.7902	152.8771	185.0543	203.7216	217.7421	247.6523	267.6989	295.5675	339.9422	347.2543	421.6991	462.2027	522.8799	553.7054	818.3647	834.4593	852.9799	896.793	953.9003	986.5715	1035.83	1085.4628	1102.4134	1130.8889	1143.5863	1148.1703	1162.753	1182.3854	1187.5097	1203.873	1236.2074	1295.6072	1313.8816	1357.8456	1369.9869	1395.2383	1397.1645	1399.4542	1402.3098	1434.93	1476.6988	1483.059	1484.574	1491.5327	1494.47	1498.9304	1500.3926	1503.6096	1513.3612	1530.6088	2952.3518	2961.4262	2968.8504	2977.2264	2995.0002	3026.019	3043.6429	3043.9705	3044.8621	3107.3325	3110.5823	3111.3988	3117.9962	3119.9944	3141.0886	3142.2767
CCOC(C)C(C)OC	CCO[C@@H](C)[C@@H](C)OC	
InChI=1S/C7H16O2/c1-5-9-7(3)6(2)8-4/h6-7H,5H2,1-4H3	InChI=1S/C7H16O2/c1-5-9-7(3)6(2)8-4/h6-7H,5H2,1-4H3/t6-,7+/m1/s1
