21
gdb 114086	3.17993	1.29678	1.12778	0.7878	79.26	-0.2442	0.0937	0.3379	1187.3222	0.18235	-424.212675	-424.204074	-424.20313	-424.245652	33.483	
C	-0.0906986565	 1.3214736562	-0.1912483664	-0.245746
O	-0.0418664532	-0.0721807948	 0.0549721498	-0.246413
C	-1.2920116232	-0.6843568696	 0.04195032	 0.256511
O	-1.8999295908	-0.6674022657	-1.2619435902	-0.335605
C	-1.9794556976	-2.0814892675	-1.5844039228	 0.440954
C	-2.5743360291	-2.2771013791	-2.9494364426	-0.492395
C	-2.5501205771	-2.6675091867	-0.261523503	-0.269152
C	-1.162569974	-2.192798676	 0.2653135826	-0.112447
C	-0.5956194705	-2.6143680294	-1.125222886	-0.264075
H	 0.9320741846	 1.6964593972	-0.1138066756	 0.12462
H	-0.4838149335	 1.5364932357	-1.1917800047	 0.128428
H	-0.7172914073	 1.8373027462	 0.5525187665	 0.103842
H	-1.9671700513	-0.1724146667	 0.74624244	 0.060795
H	-1.9519823591	-1.7974077443	-3.7112455158	 0.128159
H	-2.6520097119	-3.3423824232	-3.1847557258	 0.116733
H	-3.5745186224	-1.8355939222	-2.9997966374	 0.126868
H	-3.4519083194	-2.1967181213	 0.139292928	 0.096401
H	-2.6468422459	-3.7550707277	-0.2692827638	 0.099402
H	-0.7347958867	-2.5178898304	 1.2115749909	 0.077292
H	-0.5021425012	-3.6971781197	-1.2261737302	 0.094492
H	 0.2906340661	-2.097461721	-1.4940661435	 0.111335
96.2602	155.1228	179.646	210.3812	228.6649	300.8481	334.1177	421.5971	487.8639	524.6768	543.0234	650.3398	701.6917	823.8553	852.8378	861.3447	894.0636	926.2055	942.4457	970.4869	997.762	1023.1276	1031.7727	1059.1446	1101.5145	1111.429	1146.4493	1178.636	1190.8059	1200.4952	1217.3219	1229.8825	1242.1907	1297.3413	1329.2562	1350.0941	1404.6005	1419.4748	1469.3758	1478.6832	1481.5089	1484.2741	1492.6965	1508.5693	1514.0039	2974.5372	2989.6457	3039.8702	3060.0404	3063.6042	3079.8473	3110.1396	3116.9007	3124.3798	3126.9175	3140.7962	3149.6174
COC1OC2(C)CC1C2	CO[C@H]1O[C@]2(C)C[C@H]1C2	
InChI=1S/C7H12O2/c1-7-3-5(4-7)6(8-2)9-7/h5-6H,3-4H2,1-2H3	InChI=1S/C7H12O2/c1-7-3-5(4-7)6(8-2)9-7/h5-6H,3-4H2,1-2H3/t5-,6-,7+/m0/s1
