21
gdb 84447	2.6642	1.50929	1.23517	1.6587	82.99	-0.241	0.0114	0.2525	1108.6984	0.183277	-387.092465	-387.083971	-387.083027	-387.125094	33.84	
C	-0.1718295489	 1.5226638483	-0.0203837873	-0.468497
C	-0.0071505206	 0.0065429325	-0.0017520888	 0.310192
C	-1.2600752343	-0.8328182091	 0.3999501476	-0.266914
C	-0.362252368	-1.691379524	 1.3318548656	-0.231718
C	 0.801098962	-0.6681607251	 1.1607132335	-0.072564
C	 2.1272653945	-1.1948706572	 0.5635264422	 0.076987
O	 2.5525529636	-2.4645093961	 1.042394904	-0.431715
C	 1.8506135685	-1.1516877208	-0.9279196765	-0.12888
C	 0.7122949666	-0.5245949136	-1.2217556702	-0.12779
H	 0.7942566085	 2.0263279078	-0.1346099093	 0.117418
H	-0.811206275	 1.8391038035	-0.8533387481	 0.113796
H	-0.6345065341	 1.8787094824	 0.9064004348	 0.112031
H	-1.9900128476	-0.2347311053	 0.9537090936	 0.096812
H	-1.7829220392	-1.3563997036	-0.4054849767	 0.093544
H	-0.7218617263	-1.8383750903	 2.3517946297	 0.104599
H	-0.1422052448	-2.677070007	 0.9123224527	 0.082872
H	 0.9507227759	-0.0468778719	 2.0456931904	 0.06319
H	 2.9612261551	-0.5303330682	 0.8235378635	 0.090223
H	 1.8962681873	-3.1145460448	 0.7697777645	 0.277262
H	 2.5378397598	-1.5919217956	-1.6430435845	 0.096868
H	 0.321094787	-0.3722780218	-2.2241106708	 0.092285
91.4567	178.9466	216.0818	241.429	280.2864	296.3819	331.7758	373.7086	486.2008	527.6105	598.1849	661.0072	712.0484	769.3589	788.5034	828.278	873.6496	898.3429	924.8629	955.7906	963.4869	985.328	993.0569	1062.2578	1071.0147	1095.7524	1130.8936	1153.0273	1182.1939	1205.3107	1230.7801	1256.1221	1258.7375	1271.0356	1284.5786	1298.3922	1334.6445	1375.0671	1406.7826	1430.1136	1475.8126	1490.5093	1493.0981	1497.1898	1675.3511	3020.5515	3022.5682	3047.0836	3057.6333	3084.8678	3087.8948	3094.1149	3096.973	3116.9587	3162.4387	3195.7408	3807.8741
CC12CCC1C(O)C=C2	C[C@]12CC[C@H]1[C@@H](O)C=C2	
InChI=1S/C8H12O/c1-8-4-2-6(8)7(9)3-5-8/h3,5-7,9H,2,4H2,1H3	InChI=1S/C8H12O/c1-8-4-2-6(8)7(9)3-5-8/h3,5-7,9H,2,4H2,1H3/t6-,7-,8+/m0/s1
