21
gdb 111764	2.41107	1.2264	0.97104	1.3381	78.78	-0.2401	0.0724	0.3125	1301.3224	0.181445	-424.175475	-424.165893	-424.164949	-424.210209	35.367	
C	 0.0184597083	 1.3497306178	-0.1708669278	-0.257091
O	-0.0293548299	-0.0218594504	 0.1853087579	-0.277232
C	-1.2933646289	-0.5661746858	 0.1060044902	 0.418027
C	-2.3318125536	-0.4705145685	 1.2364035019	-0.304652
C	-2.7038206434	-1.9668365263	 0.9721676986	-0.228308
C	-1.6393573002	-2.027984883	-0.1336414193	-0.179921
C	-1.892812273	-0.9795981822	-1.2126379813	-0.10176
C	-3.2579286303	-0.623011972	-1.752613875	-0.089222
O	-3.7376767537	-1.5906049049	-2.6783932296	-0.42032
H	 1.0603368685	 1.6659759144	-0.0852468851	 0.128379
H	-0.3234647035	 1.5080870243	-1.2033223444	 0.111507
H	-0.5963492091	 1.9666164395	 0.4998025014	 0.111864
H	-1.8422280435	-0.3419104836	 2.2043614017	 0.112248
H	-3.1246295091	 0.277008432	 1.1384927408	 0.097071
H	-2.4649031197	-2.6085896295	 1.8222825767	 0.110039
H	-3.7363417521	-2.167850827	 0.6698191318	 0.097206
H	-0.9692562417	-2.8594960766	-0.3149152051	 0.09567
H	-1.1273334834	-1.0300094942	-1.9848843292	 0.098328
H	-3.978093328	-0.4694785558	-0.9355162176	 0.088095
H	-3.2079093374	 0.3179115442	-2.3115999365	 0.107797
H	-3.6673610463	-2.4499917525	-2.2493295	 0.282274
64.2963	89.2354	142.2083	171.8062	197.6508	245.9586	278.7881	319.8323	363.543	414.6617	474.1205	548.9404	651.2162	732.5317	790.0037	839.3799	890.6613	926.4019	952.0709	968.439	1021.032	1035.3895	1047.8898	1059.3767	1107.8957	1127.0814	1141.0147	1180.5565	1197.9182	1204.0996	1220.2105	1232.0316	1237.9672	1258.7157	1300.8405	1320.2536	1368.882	1417.7541	1449.131	1479.7337	1485.6699	1488.7591	1502.9063	1508.0231	1516.9446	2991.3194	2993.654	3044.3167	3049.3884	3057.3892	3062.7961	3101.4136	3119.4321	3122.1918	3135.2013	3187.7088	3808.4344
COC12CCC1C2CO	CO[C@]12CC[C@H]1[C@H]2CO	
InChI=1S/C7H12O2/c1-9-7-3-2-5(7)6(7)4-8/h5-6,8H,2-4H2,1H3	InChI=1S/C7H12O2/c1-9-7-3-2-5(7)6(7)4-8/h5-6,8H,2-4H2,1H3/t5-,6+,7+/m0/s1
