17
gdb 56088	7.22334	0.4727	0.44729	4.79	81.89	-0.2591	-0.0603	0.1988	2305.3296	0.131334	-421.830126	-421.819408	-421.818463	-421.869782	34.628	
C	-0.0548196195	 1.5241769161	 0.0109319373	-0.47558
C	 0.0709852343	 0.0129032185	 0.0012793486	 0.379072
O	 1.1437567193	-0.5458658504	-0.0119966959	-0.283748
C	-1.2355871359	-0.7737061874	 0.0095596942	-0.295949
C	-1.0038976115	-2.2932008786	-0.0009621826	-0.369612
C	-2.2402763326	-3.0577569508	 0.0065708058	 0.047877
C	-3.2709687794	-3.6886324378	 0.0135531418	 0.086971
C	-4.5157308501	-4.4108981318	 0.0213855983	 0.015351
O	-4.6128234789	-5.6169765765	 0.0163793701	-0.228306
H	 0.9365291782	 1.9780599976	 0.0040913476	 0.149178
H	-0.6234399068	 1.865245818	-0.8614620397	 0.142697
H	-0.6068197706	 1.8554277315	 0.8976653357	 0.142699
H	-1.8205292588	-0.4771001093	 0.889257157	 0.136435
H	-1.8373485653	-0.4674964167	-0.8553845283	 0.136424
H	-0.4067970405	-2.567230844	-0.8782601756	 0.160691
H	-0.3899727518	-2.5766907564	 0.8616118536	 0.160709
H	-5.4152206799	-3.761368642	 0.0330049619	 0.09509
13.2819	31.8	58.4096	62.7197	111.5615	166.2007	182.3818	212.4091	355.9012	407.2353	476.3432	498.4712	558.7206	617.197	734.637	810.4108	858.6259	912.8607	943.8665	1022.038	1056.3357	1072.874	1159.6079	1178.47	1182.5682	1297.2219	1299.7075	1377.5437	1385.6503	1423.6759	1445.0121	1455.1765	1464.8782	1475.7691	1767.3675	1811.3446	2330.1782	2912.2698	3031.666	3039.8457	3048.0824	3061.6003	3082.8346	3098.5865	3155.6665
CC(=O)CCC#CC=O	CC(=O)CCC#CC=O	
InChI=1S/C7H8O2/c1-7(9)5-3-2-4-6-8/h6H,3,5H2,1H3	InChI=1S/C7H8O2/c1-7(9)5-3-2-4-6-8/h6H,3,5H2,1H3
