23
gdb 104660	1.88928	1.34768	1.0508	1.9895	81.66	-0.2271	0.0539	0.2809	1315.5614	0.203349	-425.408161	-425.397366	-425.396422	-425.443745	40.198	
C	-1.5166188346	-0.1827945612	-0.1133451728	-0.38619
C	 0.0055541279	-0.0813589134	 0.0491950363	-0.241278
C	 0.7900783839	-0.6233321853	-1.1367307666	 0.266577
C	 0.7248870615	 0.1736556239	-2.4360170462	-0.248421
C	 1.3014150343	 1.5910242248	-2.3333752793	-0.38247
C	 2.110010649	-1.3451341388	-0.8759775201	 0.045397
O	 2.5671134022	-1.5640173458	 0.4231547714	-0.436989
C	 0.8909124145	-2.1240327551	-1.3184663884	-0.028589
O	 0.2987734988	-2.9250068226	-0.3192644534	-0.430649
H	-1.8734916231	 0.3754835695	-0.9853398655	 0.110098
H	-1.8228955502	-1.2260358975	-0.2312414282	 0.130237
H	-2.0270794458	 0.2238334537	 0.7656733104	 0.107309
H	 0.293599886	 0.9638887391	 0.2126844782	 0.09682
H	 0.3094612393	-0.6119819912	 0.9543369049	 0.09988
H	 1.2744332523	-0.3745101057	-3.212376043	 0.089226
H	-0.3140061957	 0.2205913771	-2.7879239259	 0.099215
H	 0.7208248927	 2.2177107127	-1.6501112756	 0.121654
H	 2.3339373798	 1.57171241	-1.9689978577	 0.121338
H	 1.2982371556	 2.0817581856	-3.3116118734	 0.109991
H	 2.9299309322	-1.1836102234	-1.5711405105	 0.093046
H	 1.958743792	-2.2064197959	 0.8147673883	 0.283161
H	 0.8218614674	-2.5339731325	-2.3246103483	 0.084524
H	 0.6356405802	-3.8215183881	-0.4249618145	 0.296115
57.7601	97.0308	135.1633	178.9308	205.0366	222.8102	255.5792	276.0005	289.437	310.3128	346.2663	372.2046	494.3901	532.12	582.3062	663.7537	682.734	767.8051	784.0009	835.6753	880.2135	939.0691	982.5022	1025.3304	1049.9028	1057.9137	1065.506	1090.1659	1121.2863	1151.5078	1177.9548	1219.4338	1245.4342	1278.2228	1310.1026	1326.9529	1329.0251	1363.6358	1387.9926	1406.0033	1409.3447	1412.3705	1469.9092	1483.0155	1484.6342	1501.1545	1502.0334	1506.7458	1512.8109	3012.7187	3035.0569	3036.5513	3041.6608	3043.4337	3088.4229	3104.5296	3105.2483	3109.6529	3110.8502	3118.7977	3138.1859	3732.4344	3803.0328
CCC1(CC)C(O)C1O	CCC1(CC)[C@@H](O)[C@H]1O	
InChI=1S/C7H14O2/c1-3-7(4-2)5(8)6(7)9/h5-6,8-9H,3-4H2,1-2H3	InChI=1S/C7H14O2/c1-3-7(4-2)5(8)6(7)9/h5-6,8-9H,3-4H2,1-2H3/t5-,6+
