21
gdb 103763	3.059	1.12619	0.99346	2.4746	79.08	-0.226	0.0732	0.2992	1284.3443	0.180832	-424.188805	-424.179136	-424.178192	-424.223336	35.904	
C	-0.1268679209	 1.5901676734	 0.1505876911	-0.459479
C	-0.0640811966	 0.0773230462	 0.0811442249	 0.215135
C	-1.3501696186	-0.5961377884	-0.3586817217	-0.12087
O	-1.7354108821	-0.2250136526	-1.6775573575	-0.421997
C	 1.2440099349	-0.5796290539	-0.3812526075	-0.419065
C	 0.809535972	-0.6634565343	 1.0468797416	 0.424596
C	 1.4924268966	-0.1845508833	 2.3245642204	-0.359836
C	 1.017348437	-1.5385426936	 2.8945272517	-0.072435
O	 0.4139030278	-1.9089344949	 1.6325819288	-0.306635
H	 0.8437457269	 2.0282611547	 0.4019647975	 0.109118
H	-0.4472200489	 1.9971414453	-0.8132806064	 0.131338
H	-0.8500761366	 1.9193008342	 0.9065010385	 0.114961
H	-1.2587805472	-1.6854238663	-0.2547709753	 0.104961
H	-2.1780071869	-0.2768875785	 0.2846395783	 0.106783
H	-1.0182512481	-0.484282802	-2.2660787858	 0.280461
H	 1.175452645	-1.4970342171	-0.9595552344	 0.115234
H	 2.0866692631	 0.0561693963	-0.6363755396	 0.1103
H	 2.5749464186	-0.0605352956	 2.25785125	 0.115156
H	 1.0541352712	 0.7014465734	 2.7880227862	 0.116354
H	 1.8083001029	-2.2391365927	 3.1838516236	 0.108099
H	 0.2738583699	-1.4818184404	 3.6975431252	 0.107821
77.2857	101.4183	129.3478	176.1002	193.9129	226.924	293.4854	325.3289	385.4305	404.5406	423.5556	499.9165	648.7817	717.8331	793.4019	857.6932	874.008	897.1284	924.0732	955.1137	964.0535	992.7922	1018.7941	1031.0489	1054.3977	1099.7663	1107.788	1149.0011	1165.0978	1174.4564	1216.2698	1237.5402	1256.4875	1301.067	1354.6486	1370.8954	1405.5237	1413.207	1424.7092	1477.3252	1486.0616	1491.9357	1507.1147	1507.4724	1533.2801	3017.0261	3026.6183	3028.1242	3067.6986	3071.0295	3074.354	3090.5713	3109.3462	3112.4322	3127.2161	3200.3849	3805.3923
CC1(CO)CC11CCO1	C[C@@]1(CO)C[C@]21CCO2	
InChI=1S/C7H12O2/c1-6(5-8)4-7(6)2-3-9-7/h8H,2-5H2,1H3	InChI=1S/C7H12O2/c1-6(5-8)4-7(6)2-3-9-7/h8H,2-5H2,1H3/t6-,7-/m0/s1
