20
gdb 13145	3.95184	1.16174	0.98788	1.9822	71.93	-0.2412	0.0847	0.3259	1239.5986	0.175674	-386.110412	-386.10124	-386.100296	-386.144961	32.106	
C	 0.0560875369	 1.3721920241	 0.1877756316	-0.227558
O	 0.0098489193	-0.0276233877	 0.0499092711	-0.235111
C	-1.3076419606	-0.5359958454	 0.0288226929	-0.072817
C	-1.2125414764	-2.0463583274	-0.078542976	-0.067886
C	-0.788837278	-2.7625976343	 1.2189182328	-0.073422
O	-2.1148759769	-3.3023870009	 1.405849508	-0.293435
C	-2.5249510726	-2.8618404505	 0.0892457239	 0.143039
C	-3.8836108641	-2.1875923388	 0.0949849554	-0.406636
H	 1.1083984144	 1.666491787	 0.1943551552	 0.127899
H	-0.4503295445	 1.8825235341	-0.6470910791	 0.103448
H	-0.4127652786	 1.7069066818	 1.1268402008	 0.104511
H	-1.8426046798	-0.2424240312	 0.9477558161	 0.091187
H	-1.8701824174	-0.1165807169	-0.8233679225	 0.085501
H	-0.6248467904	-2.3005174887	-0.9633909824	 0.082067
H	-0.039322516	-3.5534640531	 1.0858739069	 0.096624
H	-0.4826300854	-2.1172483495	 2.0500479725	 0.105849
H	-2.5497828593	-3.7173487292	-0.6028658579	 0.070395
H	-3.9060577213	-1.3232393596	 0.7636554466	 0.121531
H	-4.159325516	-1.8625642503	-0.9140918299	 0.115948
H	-4.6414638135	-2.8985260435	 0.4391744139	 0.128868
60.8035	90.5296	105.1415	134.4136	220.6955	230.0321	262.0535	344.652	385.4478	457.8995	509.1245	738.9593	864.6362	877.465	894.8378	942.2982	977.4329	1019.2361	1020.6342	1091.5941	1114.5268	1151.5748	1157.1695	1162.4272	1178.2639	1199.7449	1225.4092	1247.6203	1270.6916	1295.9172	1348.9842	1368.1077	1389.711	1407.6743	1429.5719	1480.8363	1483.0584	1485.2928	1498.0241	1503.5348	1522.9763	1532.6489	2948.073	2970.3405	2978.4139	2979.5357	3012.3032	3012.9687	3038.0261	3060.8878	3088.5345	3105.8092	3114.1322	3121.3938
COCC1COC1C	COC[C@H]1CO[C@H]1C	
InChI=1S/C6H12O2/c1-5-6(3-7-2)4-8-5/h5-6H,3-4H2,1-2H3	InChI=1S/C6H12O2/c1-5-6(3-7-2)4-8-5/h5-6H,3-4H2,1-2H3/t5-,6-/m0/s1
