15
gdb 24230	4.12033	1.60052	1.25999	1.4252	70.	-0.2234	-0.0037	0.2197	945.0394	0.116264	-416.796599	-416.790495	-416.78955	-416.827029	24.518	
C	 0.0806189409	 1.4817111368	-0.0448089142	-0.232066
C	 1.34041385	 0.6861151766	 0.0119904584	-0.168093
N	-0.006949598	 0.018026882	-0.0449880926	-0.104508
C	-0.1919808789	-0.6210792259	-1.3868759234	-0.292241
C	 1.092971279	-0.2866520391	-2.0712514796	 0.275907
C	 1.9527695298	 0.4115774606	-1.3068734149	 0.264074
N	 3.1066611893	 0.6838925392	-2.0224818447	-0.344341
C	 2.8659066022	 0.1416718449	-3.1765306662	 0.033147
O	 1.6454511001	-0.4698993594	-3.298955994	-0.193528
H	-0.3127537193	 1.949861907	 0.854008612	 0.122278
H	-0.1190807373	 2.0211026844	-0.9690004436	 0.115351
H	 1.9002593126	 0.5812869138	 0.935691141	 0.11092
H	-0.3479295822	-1.6977693734	-1.2501366125	 0.131142
H	-1.0843811246	-0.216360792	-1.8773959019	 0.130489
H	 3.5031107765	 0.1068188946	-4.0460444938	 0.151469
157.8134	228.5519	351.9187	423.9383	454.0275	589.3384	643.3033	695.1684	725.6426	742.1147	793.6989	809.9115	833.0646	946.5724	958.3255	1016.6509	1028.4806	1067.3457	1077.8421	1118.9909	1128.627	1148.2157	1195.374	1248.9215	1267.735	1279.398	1305.1021	1390.8345	1430.8425	1489.7313	1501.3034	1519.9699	1651.8863	3028.4074	3064.7935	3094.352	3162.9618	3184.1128	3278.8297
C1C2N1CC1=C2N=CO1	C1[C@H]2N1Cc1c2nco1	
InChI=1S/C6H6N2O/c1-4-6-5(2-8(1)4)9-3-7-6/h3-4H,1-2H2	InChI=1S/C6H6N2O/c1-4-6-5(2-8(1)4)9-3-7-6/h3-4H,1-2H2/t4-,8?/m1/s1
