13
gdb 25045	5.79334	1.05652	0.89356	4.2079	80.94	-0.2341	-0.0778	0.1562	1200.713	0.089174	-415.597484	-415.589996	-415.589051	-415.629876	27.997	
N	-0.0323746838	 1.3297081665	 0.0101016185	-0.508292
C	-0.0514599979	 0.0681630042	 0.0035342677	 0.439316
O	 1.1922573669	-0.6390576038	-0.0076036953	-0.216815
C	 1.2165022225	-1.9685768556	-0.0148215664	 0.028641
C	 0.0873355585	-2.7217321539	-0.0121645489	-0.01461
C	-1.149098845	-1.9604116617	-0.000842195	-0.021905
N	-1.2149329786	-0.6740341617	 0.0063922599	-0.254071
C	 0.1041281104	-4.1371890259	-0.0197895227	 0.217864
C	 0.0825583934	-5.3411657242	-0.0260613605	-0.402469
H	 0.9257402948	 1.6766350517	 0.0062994819	 0.232888
H	 2.223182223	-2.3719772644	-0.0229104336	 0.156408
H	-2.0900681645	-2.5092809359	 0.0017608776	 0.140083
H	 0.0705987202	-6.4027998654	-0.0316299833	 0.202962
55.1453	140.2794	185.1141	361.1789	438.5968	445.7939	447.3693	521.9968	524.4421	574.1935	644.5815	671.9889	710.5949	754.5887	773.008	856.9988	938.773	953.215	998.7858	1023.9346	1172.9279	1249.3517	1290.0541	1364.5717	1422.9397	1572.1871	1699.7741	1752.1161	2231.1537	3144.0052	3204.5044	3504.8253	3513.7866
N=C1OC=C(C=N1)C#C	[NH]C1=NC=C(CO1)C#C	
InChI=1S/C6H4N2O/c1-2-5-3-8-6(7)9-4-5/h1,3-4,7H	InChI=1S/C6H5N2O/c1-2-5-3-8-6(7)9-4-5/h1,3,7H,4H2
