16
gdb 55335	2.34913	1.52806	1.04616	6.7418	70.36	-0.2574	0.0143	0.2717	1129.7795	0.125146	-434.098423	-434.089636	-434.088692	-434.132552	31.277	
N	-0.0329160741	 1.2912116737	-0.0049597832	-0.560874
C	 0.0109314537	-0.0764834674	 0.1922077019	 0.438039
O	 1.0350522056	-0.7085985124	 0.3589210804	-0.386343
N	-1.2246109238	-0.6896602246	 0.1619094018	-0.098805
C	-2.5154047654	-0.3003397354	-0.4214913788	-0.180769
C	-2.9252938141	-1.797304894	-0.3846302295	-0.253821
C	-1.4442826658	-2.1275353752	 0.0141017923	-0.121001
C	-0.6778953848	-2.7831921728	-1.0532821679	 0.299319
N	-0.1387258054	-3.3281989078	-1.9177679591	-0.323197
H	 0.8296532965	 1.7563343435	 0.2326939095	 0.267837
H	-0.8703347474	 1.7920410333	 0.2485573328	 0.254896
H	-3.1106608017	 0.3743818151	 0.2031846923	 0.116235
H	-2.4327869797	 0.1219684752	-1.4299963435	 0.13258
H	-3.6335349143	-2.0418728484	 0.4063257862	 0.132045
H	-3.257084715	-2.2275982431	-1.3273843886	 0.143992
H	-1.3121949242	-2.6956757097	 0.9395782335	 0.139868
73.8416	79.9007	122.3714	162.7642	215.6128	263.5373	397.6541	410.796	482.4498	521.0442	544.3949	624.4067	694.2554	761.7117	775.8922	833.486	923.4476	949.1896	1010.0174	1085.3715	1090.7263	1154.7242	1177.761	1195.3034	1216.2856	1257.8596	1270.9072	1328.0949	1358.082	1432.3375	1486.1597	1527.5224	1623.3737	1798.9176	2357.5428	3025.9986	3067.4651	3069.3715	3107.7239	3172.2393	3582.3673	3699.8504
NC(=O)N1CCC1C#N	NC(=O)N1CC[C@H]1C#N	
InChI=1S/C5H7N3O/c6-3-4-1-2-8(4)5(7)9/h4H,1-2H2,(H2,7,9)	InChI=1S/C5H7N3O/c6-3-4-1-2-8(4)5(7)9/h4H,1-2H2,(H2,7,9)/t4-/m0/s1
