17
gdb 48542	2.91718	1.535	1.49748	3.5356	72.69	-0.226	-0.0361	0.1899	960.5666	0.137218	-417.924862	-417.917716	-417.916772	-417.956768	27.803	
O	 0.0002538119	-0.1151368475	-0.0007353516	-0.239601
C	 0.0269577872	 1.089261644	 0.0079867583	 0.012425
C	 1.2491186116	 1.9277522773	-0.0004518873	 0.297392
C	 1.6746163542	 3.004615517	 1.0641261184	-0.090845
C	 2.9657567483	 2.1772134725	 1.2074134316	-0.15628
N	 2.6650248199	 1.3657896941	-0.0273689556	-0.183883
C	 2.9308136645	 2.2077130824	-1.249798469	-0.156286
C	 1.6443855014	 3.0305749902	-1.0495016756	-0.09116
N	 1.8436719207	 4.0586754525	 0.0175095226	-0.31748
H	-0.9141764308	 1.6905854626	 0.0244582346	 0.06673
H	 1.1062438326	 3.2922539614	 1.9501513734	 0.085188
H	 3.9076958864	 2.7312187934	 1.1823545178	 0.114093
H	 2.9430264104	 1.5185918883	 2.0807898962	 0.118517
H	 3.8731430503	 2.7614723582	-1.2376031972	 0.114115
H	 2.8833501568	 1.5708338869	-2.1381748078	 0.118429
H	 1.0512190889	 3.3398743684	-1.9116704585	 0.08511
H	 1.0344622256	 4.6733642584	 0.0366517695	 0.223536
65.6642	158.5535	231.7527	351.5781	363.276	405.9112	484.1434	643.5385	681.6917	708.5262	809.1634	836.7055	839.5972	859.1095	876.9223	964.0757	967.0415	984.0061	1014.5185	1051.5075	1058.958	1097.8004	1125.2746	1144.7655	1171.4208	1179.946	1220.4817	1239.2362	1269.4348	1287.0607	1309.8109	1365.2243	1397.2668	1425.4321	1478.208	1492.1228	1817.3305	2837.2981	3048.3091	3051.9474	3094.2146	3095.4185	3111.1895	3114.4497	3501.677
O=CC12C3CN1CC2N3	O=C[C@@]12[C@H]3CN1C[C@@H]2N3	
InChI=1S/C6H8N2O/c9-3-6-4-1-8(6)2-5(6)7-4/h3-5,7H,1-2H2	InChI=1S/C6H8N2O/c9-3-6-4-1-8(6)2-5(6)7-4/h3-5,7H,1-2H2/t4-,5+,6+
