21
gdb 118273	2.58224	0.78198	0.67927	3.6938	80.78	-0.2438	0.0289	0.2727	1693.3574	0.181787	-420.401448	-420.39101	-420.390065	-420.43812	36.917	
C	 0.3362890895	 1.4551586938	-0.0072592726	-0.336218
N	 0.1084491825	 0.0139648086	 0.0308772061	-0.079067
C	 0.7506801997	-0.6278343146	 1.1880890376	-0.169314
C	 1.131341008	-2.0714329486	 0.8511184102	-0.054966
O	 1.9305826513	-2.1163474905	-0.3109415967	-0.41846
C	-1.3074960615	-0.3248476543	-0.0835789295	-0.144757
C	-1.7898167422	-0.2713432867	-1.5490593058	-0.344334
C	-3.2046890165	-0.6125356691	-1.6684296491	 0.258677
N	-4.3251331328	-0.8859042552	-1.7391024561	-0.301495
H	 1.4101740839	 1.6584569644	-0.0037278743	 0.133404
H	-0.0764008593	 1.8836569643	-0.9252514684	 0.122736
H	-0.1210302527	 1.9844625027	 0.8475234053	 0.107357
H	 1.6711885689	-0.0759953716	 1.4012380999	 0.112865
H	 0.1231131126	-0.5856517114	 2.0950023686	 0.090723
H	 1.7115034246	-2.4992581275	 1.6758964344	 0.10931
H	 0.2265091231	-2.6934583209	 0.7401086299	 0.086082
H	 1.5361491736	-1.459488689	-0.9021127751	 0.274096
H	-1.4598312494	-1.3414411561	 0.2860978527	 0.12989
H	-1.9379742403	 0.3372026414	 0.534585321	 0.109136
H	-1.6389483437	 0.7264273174	-1.9734641206	 0.154687
H	-1.1980497992	-0.9676091271	-2.1522948774	 0.159645
47.954	57.2144	98.2999	125.0085	147.8969	221.4182	269.4472	276.6033	378.118	391.7708	410.7471	443.3228	517.7341	543.7596	554.8614	777.8158	803.3473	889.3687	951.2771	964.2551	1025.8746	1050.9112	1059.3065	1082.3721	1102.4603	1150.1425	1175.2615	1203.6838	1249.0729	1267.9295	1299.8761	1315.8598	1345.9468	1374.3837	1395.0353	1414.5238	1444.6467	1459.7454	1468.4759	1491.3452	1493.3206	1500.353	1506.7547	1520.6282	2364.0423	2951.394	2954.2433	2959.994	2966.9447	3056.5745	3067.0856	3075.9096	3082.0403	3091.0287	3109.295	3117.8111	3730.8807
CN(CCO)CCC#N	CN(CCO)CCC#N	
InChI=1S/C6H12N2O/c1-8(5-6-9)4-2-3-7/h9H,2,4-6H2,1H3	InChI=1S/C6H12N2O/c1-8(5-6-9)4-2-3-7/h9H,2,4-6H2,1H3
