21
gdb 70928	3.36074	1.44181	1.23773	1.814	83.01	-0.2399	0.0921	0.332	1090.4344	0.184288	-387.026341	-387.018601	-387.017657	-387.058248	31.431	
C	 0.0721951893	 1.5128729375	 0.0118834768	-0.509244
C	 0.0268767101	 0.0076099904	-0.0035209601	 0.30429
C	 0.60776137	-0.9457833629	-1.124510522	-0.344195
C	-0.029300317	-1.8730911747	-0.0546724176	 0.310999
C	 0.6497492594	-0.9732091961	 1.0248968383	-0.292422
C	-0.6016560996	-3.2336224612	 0.2266978998	-0.195653
O	-1.6986964947	-2.9371701212	 1.1167069496	-0.28611
C	-2.077429248	-1.5333086506	 1.0813080901	-0.121085
C	-1.2453166835	-0.9218423044	-0.0387998778	-0.059003
H	 1.1057294585	 1.8753983969	-0.0178410665	 0.119483
H	-0.4568856485	 1.9331692944	-0.850324935	 0.118924
H	-0.3961340284	 1.9090568545	 0.9195026059	 0.12025
H	 0.116569266	-0.9079579138	-2.1010751183	 0.093577
H	 1.6968943365	-0.9678789833	-1.220330922	 0.091493
H	 1.7424157742	-1.008550697	 1.0592345413	 0.08472
H	 0.2287035387	-0.982534723	 2.0308921312	 0.101865
H	-0.968483925	-3.7240418993	-0.6872430007	 0.09299
H	 0.0711240869	-3.9211847621	 0.7496021939	 0.104356
H	-3.1513286943	-1.4761303935	 0.8741201836	 0.098254
H	-1.9025471956	-1.1005235363	 2.0732097872	 0.099627
H	-1.8003411151	-0.8754919242	-0.9817539978	 0.066884
106.2934	203.7548	212.5113	231.7897	343.9756	360.1114	460.1593	508.0306	564.9216	610.5264	682.7845	718.1322	782.8943	815.0745	869.0995	872.3465	917.5917	964.827	990.2577	1000.9857	1014.9215	1034.954	1058.5642	1084.3711	1106.6289	1112.0439	1141.0573	1158.9138	1168.2131	1182.6723	1200.4131	1204.6825	1245.065	1282.9776	1314.2463	1353.041	1375.0923	1401.9915	1413.4047	1487.855	1489.9238	1495.292	1514.428	1523.9951	1550.6142	2991.5773	3025.7478	3027.1388	3039.6325	3046.5797	3060.9899	3067.1714	3068.5711	3094.0363	3095.3273	3113.4012	3131.5894
CC12CC3(C1)COCC23	C[C@@]12C[C@]3(C1)COC[C@@H]23	
InChI=1S/C8H12O/c1-7-3-8(4-7)5-9-2-6(7)8/h6H,2-5H2,1H3	InChI=1S/C8H12O/c1-7-3-8(4-7)5-9-2-6(7)8/h6H,2-5H2,1H3/t6-,7-,8+/m0/s1
