22
gdb 101577	2.71558	0.86837	0.76467	2.1945	80.52	-0.2471	0.0647	0.3118	1632.6039	0.191954	-441.540747	-441.529408	-441.528464	-441.579123	39.116	
C	 0.0303766306	 1.5887705891	 0.1576195536	-0.382918
C	 0.0568612915	 0.064352454	 0.0297906611	-0.174029
C	 0.7624362389	-0.6489222289	 1.1942376952	 0.05085
C	 0.6228942044	-2.1741625734	 1.1001425693	-0.393739
N	 2.1642031446	-0.2509327424	 1.2647705055	-0.365264
C	 2.7826941518	 0.0636847739	 2.4348200891	 0.526049
O	 2.2495678997	 0.1748430455	 3.5174360669	-0.421128
O	 4.1115893193	 0.2558471959	 2.2140944344	-0.270736
C	 4.8591838468	 0.6180562256	 3.3757665958	-0.231246
H	 1.0432024423	 1.9976326564	 0.2158236153	 0.122652
H	-0.4710235136	 2.0466879754	-0.7003546052	 0.111414
H	-0.5033916219	 1.8986194246	 1.0624315861	 0.121883
H	-0.9673851168	-0.321921638	-0.0322746481	 0.100637
H	 0.5444332895	-0.2252994317	-0.9124068461	 0.087496
H	 0.3259996751	-0.3121319586	 2.1393528537	 0.120008
H	-0.4313486898	-2.4688606738	 1.1009070652	 0.117221
H	 1.0764970856	-2.5547199092	 0.1772128723	 0.107561
H	 1.1152578957	-2.6586453938	 1.9477082074	 0.127803
H	 2.7566753283	-0.4002130109	 0.4628693556	 0.245583
H	 4.7933486885	-0.1590225558	 4.1419560372	 0.136495
H	 5.8906672484	 0.7314128102	 3.0397830246	 0.126473
H	 4.4934514012	 1.5571205158	 3.7995666112	 0.136934
18.3908	53.8127	97.1112	109.3286	148.6675	155.3248	213.1588	230.5664	251.514	321.3828	358.6065	420.6197	465.8246	496.7915	500.8443	714.6121	779.198	787.0076	839.9396	924.7295	966.7835	985.3465	1009.2826	1037.8467	1124.1558	1126.3609	1183.2289	1183.7047	1196.7615	1214.308	1244.3087	1299.6449	1332.1085	1377.8753	1387.704	1409.1787	1413.1476	1466.4398	1480.8163	1481.3708	1492.7334	1496.0226	1498.4329	1502.4745	1507.9155	1545.0683	1812.6087	3007.0533	3029.3615	3038.5005	3047.6186	3055.1309	3078.4883	3101.4105	3105.4665	3114.6429	3117.5681	3119.9535	3149.7295	3630.2266
CCC(C)NC(=O)OC	CC[C@@H](C)NC(=O)OC	
InChI=1S/C6H13NO2/c1-4-5(2)7-6(8)9-3/h5H,4H2,1-3H3,(H,7,8)	InChI=1S/C6H13NO2/c1-4-5(2)7-6(8)9-3/h5H,4H2,1-3H3,(H,7,8)/t5-/m1/s1
