19
gdb 94034	4.62376	0.8631	0.7878	1.5399	84.36	-0.231	0.0121	0.2431	1480.7639	0.157352	-385.864661	-385.855303	-385.854359	-385.89956	34.215	
C	 0.3121884227	 1.594784029	-0.3403421383	-0.386854
C	-0.0304448634	 0.1600307906	 0.0621184635	 0.11157
O	 0.3902403479	-0.7476302484	-0.9651225038	-0.280605
C	 1.21562801	-1.7691433813	-0.4208759471	-0.154577
C	 1.3825824916	-1.417669967	 1.0356954826	 0.315836
C	 2.2519613201	-2.2168169388	 1.9705172433	-0.460008
C	 1.8762401123	-3.6291740855	 2.0387617207	 0.310961
C	 1.5594315323	-4.787394354	 2.0819647241	-0.458507
C	 0.6657552948	-0.3315138081	 1.3029620248	-0.228094
H	 1.3951626552	 1.7195877841	-0.4319958378	 0.116894
H	-0.1487430918	 1.8331284393	-1.3030213568	 0.126578
H	-0.0617149373	 2.3049610372	 0.4050170029	 0.109632
H	-1.1257684184	 0.0811220005	 0.1744872343	 0.081031
H	 0.7446598519	-2.7561170683	-0.5493348101	 0.11434
H	 2.1779825085	-1.7996324297	-0.9570477578	 0.100616
H	 3.30022387	-2.1482168941	 1.6435388978	 0.141579
H	 2.2147190733	-1.7753333259	 2.973004726	 0.139739
H	 1.2820235133	-5.8113848177	 2.126049995	 0.199999
H	 0.5703920669	 0.1576324982	 2.2649591767	 0.099868
42.6736	86.0455	96.1565	182.0115	228.878	276.016	338.7166	350.7302	384.1259	478.5589	515.1816	623.1371	642.6268	679.5781	727.266	842.3667	849.9709	886.4322	914.4279	944.3779	971.4689	1020.4811	1048.2156	1072.9815	1104.4041	1135.0261	1190.7034	1209.4642	1212.1868	1297.6071	1326.1785	1346.258	1372.1621	1390.5632	1399.2901	1459.3917	1485.4879	1494.4835	1522.8509	1732.2154	2239.7027	2946.2264	2972.2474	2993.6464	2999.9579	3036.1546	3058.0157	3109.4651	3120.7216	3206.7473	3505.9577
CC1OCC(CC#C)=C1	C[C@H]1OCC(=C1)CC#C	
InChI=1S/C8H10O/c1-3-4-8-5-7(2)9-6-8/h1,5,7H,4,6H2,2H3	InChI=1S/C8H10O/c1-3-4-8-5-7(2)9-6-8/h1,5,7H,4,6H2,2H3/t7-/m1/s1
