21
gdb 60375	3.16905	0.76496	0.6993	2.1001	76.17	-0.2605	-0.0343	0.2262	1676.6785	0.178027	-461.364856	-461.353778	-461.352834	-461.40265	38.577	
C	-0.2677297298	 1.5093416427	 0.0046656709	-0.394511
C	 0.0943365298	 0.029689014	-0.149576532	 0.132233
O	 0.9340399655	-0.1912275608	-1.2736706568	-0.437254
C	 0.7491980018	-0.5514121103	 1.1045963319	-0.083864
O	 1.9962184543	 0.109205199	 1.2670031212	-0.28153
C	 2.7548713064	-0.276713956	 2.3974379591	 0.048232
C	 3.4516014118	-1.6294806704	 2.259175503	-0.404302
C	 3.7505203073	 0.856417727	 2.6361137041	 0.146382
O	 4.7633121752	 0.7430441289	 3.2733527881	-0.241103
H	 0.6190688882	 2.0972224038	 0.2584829704	 0.121974
H	-0.6808150518	 1.8880138165	-0.9333431739	 0.125616
H	-1.0113204549	 1.6538266142	 0.7960910732	 0.108181
H	-0.8176192436	-0.5478532873	-0.343483809	 0.087147
H	 1.8096112908	 0.1224360448	-1.0170446118	 0.284495
H	 0.1150020877	-0.3955512119	 1.9919876398	 0.090263
H	 0.8974976172	-1.6310157863	 0.9679826961	 0.104315
H	 2.100539422	-0.2902908732	 3.2896077903	 0.098746
H	 2.736295464	-2.4549851824	 2.268124181	 0.122876
H	 4.0187763924	-1.6656654704	 1.3246076173	 0.131677
H	 4.1473799028	-1.7571214587	 3.0917429299	 0.147248
H	 3.4395820029	 1.8186922968	 2.1733459174	 0.093178
26.0868	55.2118	80.6863	120.8163	151.0231	205.0739	232.5703	253.8809	269.8359	367.6596	392.2203	401.3056	440.4228	447.7055	559.9232	673.9682	823.4271	838.098	909.7806	922.5639	933.6093	970.8067	1021.6177	1086.7555	1120.37	1130.3348	1140.6617	1155.1848	1172.6124	1262.515	1301.1395	1330.7623	1337.7085	1368.5762	1383.0501	1397.937	1403.9011	1423.4213	1431.9278	1487.605	1488.5984	1494.2481	1499.9948	1510.7787	1842.0479	2901.2182	2933.2727	2977.5444	3032.0579	3039.263	3044.1638	3052.6509	3110.123	3127.8514	3129.1254	3138.4337	3790.7014
CC(O)COC(C)C=O	C[C@@H](O)CO[C@@H](C)C=O	
InChI=1S/C6H12O3/c1-5(8)4-9-6(2)3-7/h3,5-6,8H,4H2,1-2H3	InChI=1S/C6H12O3/c1-5(8)4-9-6(2)3-7/h3,5-6,8H,4H2,1-2H3/t5-,6+/m1/s1
