14
gdb 19030	4.30169	2.3606	2.02423	4.145	61.58	-0.261	0.0226	0.2836	690.3513	0.109842	-378.687037	-378.681561	-378.680617	-378.716496	22.201	
N	-0.0540157319	 1.2839324927	-0.067038787	-0.539781
C	 0.009020843	 0.0304693534	 0.012129553	 0.441356
O	 1.1608809922	-0.7243602841	 0.0550153264	-0.244156
C	 0.7568635547	-2.0382676573	 0.4528336655	 0.052759
C	 0.1272770824	-1.9668367306	 1.8766460565	-0.260022
C	-1.2267518555	-1.7685445783	 1.1845983715	-0.049977
C	-0.6711610373	-2.1963438998	-0.1311991617	-0.059332
N	-1.1375126906	-0.8232435538	 0.0302989142	-0.143669
H	 0.8855701092	 1.6816436705	-0.0641401778	 0.229727
H	 1.5561416223	-2.7430905287	 0.2409073925	 0.103656
H	 0.1620971166	-2.9349184097	 2.3831047139	 0.119484
H	 0.5062543114	-1.1825001085	 2.5375181996	 0.120681
H	-2.2141787655	-1.9064416451	 1.6062117863	 0.116651
H	-1.0447633613	-2.8214264608	-0.9319037429	 0.112623
146.2933	353.6357	439.2418	463.7445	671.5022	690.6961	697.0096	787.4133	836.1663	853.2488	875.424	886.46	914.4527	922.1334	961.8859	990.8976	1008.9013	1027.1241	1054.5213	1105.6618	1148.1737	1174.6117	1197.2315	1231.5518	1273.626	1289.16	1345.7429	1356.1335	1482.3536	1789.6906	3059.6019	3118.4825	3163.5456	3195.7118	3208.0789	3494.9672
N=C1OC2CC3C2N13	[NH][C]1O[C@H]2C[C@@H]3[C@H]2N13	
InChI=1S/C5H6N2O/c6-5-7-2-1-3(8-5)4(2)7/h2-4,6H,1H2	InChI=1S/C5H6N2O/c6-5-7-2-1-3(8-5)4(2)7/h2-4,6H,1H2/t2-,3+,4-,7?/m1/s1
