20
gdb 108022	3.88613	1.39009	1.27419	1.6518	80.47	-0.2193	0.0763	0.2956	1071.4132	0.172603	-365.963256	-365.955853	-365.954909	-365.995061	30.162	
C	 0.1549322758	 1.3751392043	 0.4449319669	-0.384468
C	-0.1283185006	 0.0622699105	-0.2957516251	-0.278916
C	-1.5277590528	-0.4587548616	-0.0807365623	 0.333042
C	-2.0305952595	-0.9014536648	 1.281814817	-0.298123
C	-3.3823878473	-1.4374202355	 0.8672261056	-0.079284
C	-3.9334862157	-0.6477329281	-0.31512662	-0.114389
C	-3.2804020961	-1.9850212497	-0.5315356555	-0.019961
N	-2.0496721034	-1.3674943636	-1.1591881925	-0.204477
C	-2.6727238454	-0.0198253577	-0.9270639743	-0.09182
H	 1.1657655108	 1.7331891488	 0.2281597976	 0.114811
H	-0.5504697402	 2.1573468292	 0.1452034806	 0.117171
H	 0.0733804491	 1.2522223163	 1.5297896925	 0.117571
H	 0.0251668314	 0.1984740359	-1.371596283	 0.110745
H	 0.5884017177	-0.7064815781	 0.0197285235	 0.101265
H	-1.3906020474	-1.6745494744	 1.7225489626	 0.104514
H	-2.0999781872	-0.0643916155	 1.984646141	 0.10654
H	-4.0756728507	-1.8854765605	 1.5679000427	 0.089928
H	-4.9594588869	-0.3286794823	-0.429280678	 0.091913
H	-3.6521827963	-2.9375731683	-0.8841019838	 0.095687
H	-2.6343571154	 0.7590150452	-1.6808661556	 0.088249
80.4228	163.6428	215.4999	308.4776	350.9799	432.1502	543.5776	603.8487	703.8018	726.2977	763.5414	778.7215	787.2425	807.8343	842.9701	898.3291	923.429	939.3144	966.4416	968.1709	998.4852	1019.4297	1036.7752	1041.9481	1058.6176	1063.5004	1087.6402	1106.2122	1184.5447	1197.1194	1228.0421	1243.607	1276.1518	1286.9656	1333.6779	1357.6435	1380.4821	1405.3777	1412.1862	1486.2801	1489.0663	1499.8646	1509.2177	3028.829	3035.5022	3039.7904	3069.809	3082.8017	3105.0465	3107.9211	3168.0857	3196.352	3202.1908	3219.9875
CCC12CC3C4C3N1C24	CC[C@]12C[C@H]3[C@@H]4[C@H]3N1[C@H]24	
InChI=1S/C8H11N/c1-2-8-3-4-5-6(4)9(8)7(5)8/h4-7H,2-3H2,1H3	InChI=1S/C8H11N/c1-2-8-3-4-5-6(4)9(8)7(5)8/h4-7H,2-3H2,1H3/t4-,5+,6-,7-,8+,9?/m0/s1
