14
gdb 21167	3.35857	1.88672	1.29028	3.5378	60.44	-0.2087	0.0049	0.2136	910.1918	0.108635	-412.022649	-412.014984	-412.01404	-412.055506	27.141	
C	 0.2860466614	 1.1968071221	 0.4104300683	-0.331499
N	-0.4357719199	 0.2554908925	-0.4588447053	-0.400128
C	 0.3489496794	-0.6093289817	-1.2230080996	 0.258701
C	 0.6636636753	-1.9509336794	-1.1368085076	 0.307684
O	 0.2628858048	-2.8131458499	-0.1758097287	-0.443561
N	 1.4342455794	-2.3110700471	-2.1847474037	-0.276368
N	 1.6454881475	-1.2588882561	-2.94057245	-0.135299
N	 0.983386568	-0.2405138537	-2.3727989325	-0.199426
H	 0.9381449995	 0.7041275718	 1.1458752414	 0.123653
H	 0.9036435348	 1.8603708317	-0.2012946543	 0.128755
H	-0.4434828041	 1.814902585	 0.9397423567	 0.130293
H	-1.1039323146	-0.2836507636	 0.0782427266	 0.249249
H	 0.6054545173	-3.6814432869	-0.4215189001	 0.307159
H	 0.985645111	 0.6655761752	-2.813620111	 0.280788
32.1469	159.5048	164.2055	257.6574	307.0259	331.9127	431.0381	485.6991	560.0615	647.8681	702.8419	717.7048	746.4595	807.6561	1000.5216	1043.9426	1105.8069	1137.7073	1158.0131	1167.8897	1250.9269	1285.6405	1375.0343	1393.7275	1459.6252	1482.5053	1493.2803	1517.7533	1546.3685	1690.4998	3000.2253	3086.1705	3122.904	3559.7885	3655.1725	3800.1012
CNC1=C(O)N=NN1	CNc1c(O)nn[nH]1	
InChI=1S/C3H6N4O/c1-4-2-3(8)6-7-5-2/h1H3,(H3,4,5,6,7,8)	InChI=1S/C3H6N4O/c1-4-2-3(8)6-7-5-2/h1H3,(H3,4,5,6,7,8)
