16
gdb 130939	6.35566	0.69075	0.65648	4.4922	72.12	-0.2474	-0.0228	0.2246	1618.6018	0.124649	-434.076011	-434.06759	-434.066646	-434.111173	29.075	
O	-0.302394866	 0.0220882181	-0.0611226359	-0.235903
C	-0.0404599422	 1.189838768	 0.0684669394	 0.154728
C	 1.3277687272	 1.8003460328	-0.1224874156	-0.264013
C	 1.3033142983	 2.9485929278	-1.1556861718	-0.32532
C	 2.6050084545	 3.6826880811	-1.219661479	 0.330083
C	 3.5132878832	 3.7998442941	-2.2458140532	-0.178981
N	 4.4974815456	 4.5716539096	-1.725959745	-0.147877
N	 4.2321040835	 4.9196180895	-0.4550104174	-0.108179
N	 3.0881409444	 4.3818776182	-0.1484352004	-0.248516
H	-0.832271158	 1.9256759386	 0.3479452923	 0.07226
H	 1.6505731818	 2.2177630503	 0.8406242732	 0.148387
H	 2.0319971798	 1.0155539823	-0.4109656631	 0.12181
H	 1.0556944061	 2.5533232433	-2.1461095239	 0.117457
H	 0.5070909456	 3.6539692673	-0.8870238897	 0.128702
H	 3.5387590368	 3.4190468958	-3.252778898	 0.149909
H	 5.3483053492	 4.8944461033	-2.1584287519	 0.285452
34.1665	67.6027	72.9914	123.9801	281.4105	318.0659	367.2096	518.0264	575.5124	677.3037	718.1251	748.6876	771.597	804.8446	853.401	988.3054	992.4591	1039.7519	1049.2915	1071.2641	1088.9597	1131.9046	1187.5522	1263.7189	1270.5515	1292.6427	1321.2311	1356.0597	1380.763	1429.3636	1464.6209	1486.4881	1488.7569	1595.0581	1837.0689	2847.1145	3029.4637	3035.693	3079.7774	3111.1437	3284.2509	3658.434
O=CCCC1=CNN=N1	O=CCCc1c[nH]nn1	
InChI=1S/C5H7N3O/c9-3-1-2-5-4-6-8-7-5/h3-4H,1-2H2,(H,6,7,8)	InChI=1S/C5H7N3O/c9-3-1-2-5-4-6-8-7-5/h3-4H,1-2H2,(H,6,7,8)
