17
gdb 55585	3.39746	0.83184	0.74598	3.9665	71.06	-0.2514	-0.0553	0.1961	1518.3209	0.130906	-459.008588	-458.998374	-458.99743	-459.046386	34.12	
C	 0.502025883	 0.9227753959	-0.1626365806	-0.475581
C	-0.3602851776	-0.0337947026	 0.6264984908	 0.375316
O	-0.0751528031	-0.4276438392	 1.7330066866	-0.290801
C	-1.6261826554	-0.5450589435	-0.0854664931	-0.383212
C	-1.352304835	-1.978574138	-0.5503402835	 0.370062
O	-0.9781500502	-2.2154795181	-1.674473474	-0.290947
C	-1.5333917233	-3.0604282008	 0.5013499734	-0.396259
C	-0.988582089	-4.4067939353	 0.0659938798	 0.173606
O	-1.5910593195	-5.4408264578	 0.1831735862	-0.236761
H	 1.4128597102	 1.1565048735	 0.3891002343	 0.149016
H	 0.7472099561	 0.4771674527	-1.1338735848	 0.161889
H	-0.0550713457	 1.8435664959	-0.3705368732	 0.149329
H	-2.4468506899	-0.5289800037	 0.6362746676	 0.141282
H	-1.8681929559	 0.061307129	-0.9592088376	 0.1325
H	-1.0207890066	-2.7270026375	 1.4162210383	 0.174676
H	-2.5948767639	-3.1586431502	 0.756588114	 0.150625
H	 0.0353742857	-4.3750578301	-0.3610080341	 0.095261
24.7854	43.1504	66.8628	79.8342	152.0389	183.2254	210.4715	308.6386	404.0874	452.7869	497.5462	513.3358	567.4508	648.9805	740.7788	798.7458	869.5922	904.337	964.0213	1007.805	1055.5169	1074.9265	1095.5924	1159.9016	1191.721	1231.5815	1270.1964	1327.7819	1382.9079	1423.7414	1432.5274	1459.4328	1470.5486	1472.2686	1791.4561	1817.501	1840.638	2919.1972	3019.4468	3035.0356	3072.0282	3079.6644	3096.1252	3144.6046	3158.1276
CC(=O)CC(=O)CC=O	CC(=O)CC(=O)CC=O	
InChI=1S/C6H8O3/c1-5(8)4-6(9)2-3-7/h3H,2,4H2,1H3	InChI=1S/C6H8O3/c1-5(8)4-6(9)2-3-7/h3H,2,4H2,1H3
