15
gdb 45063	2.61223	1.89912	1.29421	4.4767	65.	-0.2679	-0.0159	0.252	951.3213	0.112831	-457.76059	-457.753615	-457.752671	-457.792089	27.08	
O	 0.0143096834	 0.0460298944	-0.3958963932	-0.331717
C	 0.0219232037	 1.1820920802	-0.0299024162	 0.392976
O	-1.102011671	 1.8504513764	 0.365935104	-0.224684
C	-0.7947482338	 3.1772397932	 0.7635519709	 0.090205
C	 0.0047059221	 3.319767827	 2.0199581527	-0.329391
C	 0.6919239468	 3.399653684	 0.6643315401	-0.17698
C	 1.2155906159	 2.1188286196	 0.1032983181	 0.28972
C	 2.573008714	 1.5692440743	 0.2137850609	-0.232095
O	 2.1070401666	 2.1451807526	-1.0068807854	-0.263636
H	-1.5521620167	 3.8863933722	 0.4578471376	 0.126202
H	-0.0885305602	 4.2479765836	 2.5724439454	 0.132762
H	 0.1487406665	 2.4346157822	 2.6313971588	 0.136182
H	 1.1224839891	 4.3308742496	 0.3205075256	 0.122868
H	 3.3280990611	 2.1442656518	 0.7470349155	 0.124674
H	 2.7032865126	 0.4892833188	 0.1944638152	 0.142913
99.2967	192.7069	262.7992	274.2117	385.7407	470.6697	491.5052	563.9737	700.5603	722.6007	747.2563	802.9686	819.5816	876.6286	913.8783	949.2955	992.3225	1010.9884	1044.0152	1062.2066	1083.7738	1107.6191	1131.6432	1145.6094	1168.0972	1190.6702	1267.5414	1299.7015	1375.3488	1435.1457	1473.9697	1516.62	1892.9686	3091.7299	3133.7393	3191.0442	3202.0449	3208.9097	3227.4878
O=C1OC2CC2C11CO1	O=C1O[C@H]2C[C@H]2[C@]21CO2	
InChI=1S/C6H6O3/c7-5-6(2-8-6)3-1-4(3)9-5/h3-4H,1-2H2	InChI=1S/C6H6O3/c7-5-6(2-8-6)3-1-4(3)9-5/h3-4H,1-2H2/t3-,4+,6+/m1/s1
