18
gdb 11972	2.87066	1.97166	1.75119	2.4142	67.89	-0.2267	0.0665	0.2931	868.0129	0.151644	-384.904857	-384.896617	-384.895673	-384.93706	31.46	
C	-0.1643316349	 1.5196914814	 0.0340696009	-0.457256
C	-0.0147846104	 0.0052210932	-0.0048194266	 0.250026
O	-1.2392748843	-0.640273663	-0.2770601348	-0.468216
C	 1.2295812319	-0.5051210594	-0.785380878	-0.120264
O	 1.9089462432	-0.8279081279	 0.4500335973	-0.311398
C	 0.7102548748	-0.6081030839	 1.1941077032	 0.449135
C	 0.7110188993	-0.2506555603	 2.6398966724	-0.350671
C	 0.1764608454	-1.5994169717	 2.1708395117	-0.326404
H	 0.7837050044	 1.9977470973	 0.2947642555	 0.136611
H	-0.47661552	 1.9044148682	-0.9453236138	 0.108846
H	-0.9153146686	 1.812355513	 0.7746286452	 0.125826
H	-1.7247041246	-0.112753503	-0.9196334102	 0.279659
H	 1.0132725425	-1.3985985453	-1.382909731	 0.103073
H	 1.7901396549	 0.2244613626	-1.3801523334	 0.096117
H	 1.6732786122	-0.2408244959	 3.1408385028	 0.123382
H	 0.0068755365	 0.4952904371	 2.9950976894	 0.113133
H	-0.8946983979	-1.7679296017	 2.1819735741	 0.127604
H	 0.7871554956	-2.4737472608	 2.3682180951	 0.120796
79.1777	188.2351	220.0969	238.0951	265.332	289.7438	349.206	406.5068	442.5752	537.4456	593.4038	666.8246	759.0075	865.2735	871.4698	896.1195	918.0593	967.7531	987.2017	995.5252	1014.4396	1045.8772	1064.6083	1112.3481	1154.818	1184.5809	1189.5741	1225.1439	1246.5027	1316.6122	1346.4844	1406.3577	1425.0244	1446.4837	1485.7621	1492.2537	1500.1325	1520.4489	3019.9592	3023.602	3077.61	3092.0699	3120.6449	3126.019	3134.8785	3210.9831	3229.5028	3814.1849
CC1(O)COC11CC1	C[C@@]1(O)COC21CC2	
InChI=1S/C6H10O2/c1-5(7)4-8-6(5)2-3-6/h7H,2-4H2,1H3	InChI=1S/C6H10O2/c1-5(7)4-8-6(5)2-3-6/h7H,2-4H2,1H3/t5-/m1/s1
