17
gdb 16828	3.64522	1.9437	1.43181	3.2173	68.73	-0.2167	-0.0142	0.2026	884.5373	0.142751	-363.862743	-363.855546	-363.854602	-363.893995	27.682	
C	 0.073615974	 1.5104443447	-0.0034000075	-0.31745
N	 0.0583815994	 0.0600829712	 0.0319143651	-0.06415
C	 0.5453423954	-0.596598533	-1.1778580234	-0.293561
C	 1.0947172727	-1.9526068835	-0.707662686	 0.416895
O	 1.2297346849	-2.9321634125	-1.3950941469	-0.325744
C	 1.3567869161	-1.8316452811	 0.7576818247	-0.171887
C	 2.2185818693	-0.6344468928	 1.1757002843	-0.308553
C	 0.7207462958	-0.5308875917	 1.1763979173	 0.011046
H	 1.0855885942	 1.9370755189	-0.1327200966	 0.095573
H	-0.5514899525	 1.8656950374	-0.8286185052	 0.12468
H	-0.3439214174	 1.9049336819	 0.928420049	 0.121504
H	-0.2466914758	-0.7396361372	-1.919587224	 0.134702
H	 1.3621459821	-0.0432599861	-1.67793697	 0.108959
H	 1.3626427201	-2.7288640094	 1.3621015522	 0.113037
H	 2.7286855941	-0.7401176429	 2.1266678091	 0.126476
H	 2.7909776735	-0.1165286433	 0.4136853711	 0.125056
H	 0.1898250941	-0.4375348107	 2.1184687667	 0.103416
113.2817	176.6997	231.6656	275.4252	310.436	455.1346	471.0185	549.7846	567.4398	660.7082	766.8571	800.0137	850.32	891.5684	923.2931	979.1477	1012.0819	1041.7711	1048.4353	1094.0675	1108.5346	1146.9577	1168.8063	1197.3581	1199.3457	1213.429	1270.3519	1318.4774	1339.1838	1381.0148	1457.9624	1478.8881	1484.3386	1497.5647	1505.2497	1845.1348	2930.6897	2937.0598	3062.0174	3069.6909	3104.8896	3135.0572	3158.4859	3207.2275	3223.5543
CN1CC(=O)C2CC12	CN1CC(=O)[C@H]2C[C@@H]12	
InChI=1S/C6H9NO/c1-7-3-6(8)4-2-5(4)7/h4-5H,2-3H2,1H3	InChI=1S/C6H9NO/c1-7-3-6(8)4-2-5(4)7/h4-5H,2-3H2,1H3/t4-,5+/m0/s1
