15
gdb 127670	3.21587	1.30268	1.02439	2.8258	70.46	-0.2708	-0.0111	0.2597	1123.3796	0.114344	-413.029323	-413.021024	-413.02008	-413.063666	28.472	
C	 0.295791195	 1.3547188585	 0.1319834118	-0.349703
N	 0.1002392454	-0.0838528675	 0.0799717885	-0.002134
N	-0.0677982659	-0.7117094708	-1.1107460138	-0.239899
C	-0.2317612423	-1.9735084281	-0.750493784	 0.024932
N	-0.1803312119	-2.2013687683	 0.5883925003	-0.309423
C	 0.0279909658	-0.9917558499	 1.0796857185	 0.360378
C	 0.1350629237	-0.6796910657	 2.5451104766	-0.442441
C	 1.3876666082	-0.0157252437	 2.9152188646	 0.267332
N	 2.3684488498	 0.5284052635	 3.1917799051	-0.305894
H	 1.1780484015	 1.599478673	 0.7274368442	 0.175735
H	 0.4361966005	 1.6960576515	-0.8923732129	 0.174636
H	-0.5802350317	 1.8521863843	 0.5601537671	 0.1461
H	-0.3905848786	-2.7550428299	-1.4779933115	 0.133397
H	-0.6992710785	-0.048705285	 2.8768478655	 0.171278
H	 0.0550740791	-1.6290580619	 3.0810152	 0.195706
43.0797	57.5026	114.4989	212.918	249.2258	295.3049	376.5483	427.7061	482.1462	665.0181	694.0774	721.8146	788.5854	905.5946	931.2602	949.3487	993.0155	1032.5254	1152.7412	1172.5513	1217.4463	1234.2405	1314.0646	1316.15	1323.9084	1420.9809	1449.2185	1454.7808	1490.2772	1499.8228	1518.5941	1558.9146	2365.4561	3037.75	3049.8054	3111.2032	3123.1866	3175.3476	3264.6587
CN1N=CN=C1CC#N	Cn1ncnc1CC#N	
InChI=1S/C5H6N4/c1-9-5(2-3-6)7-4-8-9/h4H,2H2,1H3	InChI=1S/C5H6N4/c1-9-5(2-3-6)7-4-8-9/h4H,2H2,1H3
