19
gdb 39472	2.28573	2.1562	1.55518	0.6883	74.73	-0.2381	0.0002	0.2383	927.6079	0.162679	-423.021673	-423.014828	-423.013884	-423.052462	28.649	
C	 0.0173049372	 1.5739587191	-0.1116971947	-0.272784
C	 1.5347624493	 1.8302117214	-0.0005163649	 0.084582
O	 1.9758606003	 1.9630375929	 1.3551249904	-0.269397
C	 1.8094575419	 0.8294766989	 2.1960192696	-0.089578
C	 0.3715030941	 0.3256236958	 2.3745571669	-0.084285
O	-0.1765406381	-0.466818445	 1.33107343	-0.277493
C	-0.0885362897	 0.0418752256	-0.00738243	 0.082804
C	 1.2172084621	-0.3987448633	-0.656101009	-0.071048
C	 2.106354267	 0.5934571229	-0.6691361012	-0.099855
H	-0.5660831369	 2.1177705886	 0.6329461813	 0.110832
H	-0.3275432325	 1.881847554	-1.1034773065	 0.105492
H	 1.8408134146	 2.7682423918	-0.4703874532	 0.080985
H	 2.4458610613	-0.0070361784	 1.8778891591	 0.101891
H	 2.1630468758	 1.1671165052	 3.1764352797	 0.108148
H	 0.3594456149	-0.332952972	 3.2503558362	 0.10832
H	-0.2780561029	 1.1844176094	 2.6026473725	 0.096836
H	-0.9718652153	-0.3564613452	-0.5151365936	 0.080639
H	 1.3842972961	-1.4182741884	-0.9843924784	 0.102744
H	 3.1366526709	 0.5299939867	-1.0002753141	 0.101167
196.3569	226.8178	321.3235	339.3814	392.6082	416.9056	490.1205	530.3062	603.7087	743.2423	777.1461	796.114	836.9182	840.655	849.0978	920.8331	959.0147	982.9177	988.0518	995.0737	1034.3245	1049.9749	1098.9572	1111.8075	1127.4614	1160.5488	1195.6587	1248.8183	1278.6877	1308.2635	1321.5877	1334.9799	1358.247	1372.5934	1375.9861	1402.9648	1411.9659	1470.3364	1481.8515	1498.1812	1670.0552	2987.9544	3018.8558	3058.5936	3066.8534	3069.978	3076.1869	3084.8205	3125.2273	3186.8961	3212.403
C1C2OCCOC1C=C2	C1[C@H]2OCCO[C@@H]1C=C2	
InChI=1S/C7H10O2/c1-2-7-5-6(1)8-3-4-9-7/h1-2,6-7H,3-5H2	InChI=1S/C7H10O2/c1-2-7-5-6(1)8-3-4-9-7/h1-2,6-7H,3-5H2/t6-,7+
