15
gdb 29889	3.26008	1.4734	1.02135	4.3462	73.8	-0.2356	-0.0417	0.1939	1101.4859	0.113598	-454.012308	-454.004265	-454.003321	-454.045929	28.889	
C	-0.0592497306	 1.4710279267	-0.2477742018	-0.355521
N	 0.0030017103	 0.0361110924	 0.0186254853	-0.17827
C	-1.1619993833	-0.6942977412	 0.152469992	 0.03577
C	-1.1651393505	-2.0109573577	 0.402314757	-0.209342
C	 0.092283976	-2.7080339469	 0.540105282	 0.394763
N	 0.214473543	-3.9446989829	 0.7751459262	-0.520654
O	 1.2353199428	-1.9057642277	 0.3930386052	-0.266224
C	 1.2472241751	-0.5664541128	 0.1405109285	 0.490469
O	 2.2921702555	 0.0165796398	 0.0372554538	-0.369089
H	 0.9607892056	 1.8361016537	-0.3460889993	 0.185791
H	-0.607178065	 1.6617329101	-1.1755080524	 0.142095
H	-0.5550000068	 1.9929246701	 0.5767185319	 0.142615
H	-2.0730137702	-0.1189867285	 0.0391022209	 0.13936
H	-2.0787266689	-2.5763902578	 0.5050513944	 0.134841
H	 1.1988765969	-4.2082449572	 0.8293813265	 0.233398
40.9179	91.0343	144.0817	209.0698	336.4748	384.2896	392.0366	464.7186	535.6506	604.8634	698.2949	731.6378	761.9589	806.5157	808.9961	877.4161	966.7642	974.4755	1003.7645	1113.4271	1115.8498	1158.641	1179.8776	1244.1442	1337.5492	1389.1897	1430.9782	1464.971	1502.6295	1509.7283	1699.3749	1749.3711	1847.3269	3041.9067	3102.6313	3183.2943	3209.2634	3258.5881	3492.1582
CN1C=CC(=N)OC1=O	CN1[CH]C=C([NH])OC1=O	
InChI=1S/C5H6N2O2/c1-7-3-2-4(6)9-5(7)8/h2-3,6H,1H3	InChI=1S/C5H6N2O2/c1-7-3-2-4(6)9-5(7)8/h2-3,6H,1H3
