18
gdb 87438	4.61243	1.21431	1.12989	3.3378	77.17	-0.233	0.0703	0.3033	1127.2101	0.147198	-401.821137	-401.813742	-401.812798	-401.85287	29.262	
C	-0.0079555888	 1.5582796657	-0.1898596026	-0.415135
C	-0.0451205643	 0.0644284406	 0.0004733809	-0.071124
O	 1.2243829139	-0.6335851443	-0.1025776741	-0.304208
C	 0.5689033668	-0.6099838475	 1.1375196644	 0.556458
C	 1.1165586095	-0.1971143966	 2.4901761332	-0.151973
C	-0.1054394669	-0.8232852865	 3.2369824512	-0.057686
C	 0.8580770066	-1.6198185377	 4.1076064735	-0.185342
N	 1.5951951755	-1.6591882324	 2.7710370345	-0.155978
C	 0.217883772	-1.7751433893	 2.040144572	-0.154917
H	 0.8224409689	 2.0016496663	 0.3654014666	 0.127886
H	 0.1152622289	 1.8074820536	-1.2488413291	 0.133022
H	-0.9434191725	 2.0121206959	 0.1552292925	 0.122757
H	-0.8577090729	-0.4529090856	-0.5129542734	 0.094373
H	 1.727990915	 0.6525685887	 2.7941463213	 0.091803
H	-1.0625206024	-0.3450043517	 3.4706133354	 0.069528
H	 1.4068157156	-1.0895418229	 4.8925319563	 0.104014
H	 0.5429491116	-2.60699643	 4.4605211374	 0.104215
H	-0.2131423664	-2.7518322365	 1.81972828	 0.092306
125.8332	162.5091	194.7112	242.4163	345.0287	449.4875	484.5831	530.38	608.0245	718.3798	779.2396	802.5798	832.0421	833.5493	880.0809	926.7063	952.2627	991.3269	1014.8995	1032.9319	1047.0717	1061.7947	1092.666	1110.2625	1123.4511	1129.0742	1159.1448	1170.0828	1175.4655	1214.2593	1246.3436	1272.8705	1285.9163	1365.9259	1410.2533	1478.537	1493.0368	1522.8683	1563.4266	3036.2774	3036.9335	3049.9515	3091.3117	3098.035	3101.1433	3118.8877	3123.5766	3126.847
CC1OC11C2C3CN2C13	C[C@H]1O[C@]21[C@H]1[C@@H]3CN1[C@H]23	
InChI=1S/C7H9NO/c1-3-7(9-3)5-4-2-8(5)6(4)7/h3-6H,2H2,1H3	InChI=1S/C7H9NO/c1-3-7(9-3)5-4-2-8(5)6(4)7/h3-6H,2H2,1H3/t3-,4-,5+,6-,7+/m1/s1
