19
gdb 19586	4.10031	1.95944	1.81068	1.5403	74.31	-0.2234	0.0993	0.3227	827.6608	0.168263	-327.86646	-327.860002	-327.859057	-327.896553	27.103	
C	-0.0673280895	 1.6273102125	 0.0279311676	-0.442343
C	-0.0128938556	 0.1016758927	 0.0183194872	 0.044664
C	 0.690319442	-0.5960152201	-1.1858935368	-0.060366
C	 2.0435848454	-0.2707380966	-0.4532671048	-0.217807
C	 1.1568939943	-0.5837269827	 0.7896551295	 0.000565
N	 1.0237796722	-2.0713556502	 0.6128187274	-0.113141
C	-0.3072200695	-2.5795472602	 0.2348740401	-0.258052
C	 0.6103626646	-2.0882019539	-0.8252594621	-0.023922
H	 0.8851058354	 2.1093976294	-0.2029785777	 0.119916
H	-0.8022818342	 1.9846106272	-0.7020149575	 0.116875
H	-0.386437069	 1.9861499309	 1.0129411337	 0.117568
H	-1.0192313535	-0.2496295596	 0.2523886725	 0.061736
H	 0.495241274	-0.3121911552	-2.220521571	 0.061145
H	 2.8808219175	-0.9510965427	-0.623683403	 0.102684
H	 2.3699798988	 0.7645420343	-0.5393464944	 0.098172
H	 1.433291948	-0.3094756378	 1.8080922183	 0.067438
H	-0.387415232	-3.6560306325	 0.3643887773	 0.113924
H	-1.2123114249	-2.0473921294	 0.5018641604	 0.11865
H	 1.115581216	-2.798198686	-1.4760087867	 0.092294
178.9979	258.6039	289.5319	351.9036	445.8408	521.2592	569.7567	640.9989	738.9802	777.3052	804.0779	833.777	853.6166	881.9904	890.3778	984.2922	997.9629	1016.0711	1036.0384	1049.4146	1072.3643	1090.144	1103.9762	1112.5191	1119.2787	1130.6835	1167.8434	1218.8327	1231.9176	1250.0477	1256.1485	1263.0143	1277.0487	1361.5988	1404.191	1415.124	1492.0816	1499.6521	1516.2046	1519.9728	3032.6837	3077.8456	3080.1218	3087.5163	3109.6387	3113.6889	3118.4755	3123.1882	3133.0608	3153.4687	3205.7607
CC1C2CC1N1CC21	C[C@H]1[C@H]2C[C@@H]1N1C[C@@H]21	
InChI=1S/C7H11N/c1-4-5-2-6(4)8-3-7(5)8/h4-7H,2-3H2,1H3	InChI=1S/C7H11N/c1-4-5-2-6(4)8-3-7(5)8/h4-7H,2-3H2,1H3/t4-,5+,6-,7-,8?/m0/s1
