17
gdb 63879	2.56875	1.44615	1.23461	4.6295	69.74	-0.2489	-0.0379	0.211	1071.0286	0.132394	-458.928843	-458.919939	-458.918995	-458.962201	33.057	
C	-0.0833613371	 1.5873905528	-0.1149467778	-0.460236
C	-0.0084804396	 0.0718006886	-0.05547443	 0.318868
O	-1.2687241798	-0.5450213875	-0.2424630273	-0.47738
C	 1.137230941	-0.6334989367	-0.8853035229	-0.308014
C	 1.6787095602	-1.2009303542	 0.4281836513	-0.021974
O	 1.9632678726	-0.1131232546	 1.2938985406	-0.272919
C	 0.6063311845	-0.5443269421	 1.2280182079	 0.312948
C	-0.0840423832	-1.0448037253	 2.4413272201	 0.039886
O	 0.4783673921	-1.3404645044	 3.4666331085	-0.257794
H	 0.8801555306	 2.0253334936	 0.1555592715	 0.145484
H	-0.3358063388	 1.9219688102	-1.1287244323	 0.111492
H	-0.8500642741	 1.9598680708	 0.5712999003	 0.128699
H	-1.6502900356	-0.2117301862	-1.0615980647	 0.284413
H	 0.7128182503	-1.3981118162	-1.5390567711	 0.116165
H	 1.8334778992	 0.001690098	-1.438650632	 0.111713
H	 2.1865250046	-2.1380071329	 0.6261343897	 0.125999
H	-1.180654297	-1.1472518037	 2.3156520982	 0.10265
87.9262	147.2359	167.6532	216.2013	251.1655	258.0847	324.4276	330.0948	383.7388	456.5344	500.2869	577.5278	644.2391	751.4852	834.3856	843.4439	878.4282	931.0215	949.9831	962.4523	1022.2899	1045.7865	1092.268	1113.3602	1148.4869	1185.7902	1229.7053	1245.4515	1268.5847	1369.2428	1396.9469	1415.4888	1431.8245	1461.9394	1488.6003	1498.3308	1810.1905	2934.8501	3029.0846	3066.0062	3097.8121	3131.4522	3133.92	3190.7211	3810.0139
CC1(O)CC2OC12C=O	C[C@@]1(O)C[C@H]2O[C@@]12C=O	
InChI=1S/C6H8O3/c1-5(8)2-4-6(5,3-7)9-4/h3-4,8H,2H2,1H3	InChI=1S/C6H8O3/c1-5(8)2-4-6(5,3-7)9-4/h3-4,8H,2H2,1H3/t4-,5-,6-/m1/s1
