19
gdb 5877	3.84443	1.11797	1.08117	3.6017	69.29	-0.2473	0.0343	0.2817	1179.8306	0.163226	-402.234896	-402.225311	-402.224366	-402.26945	34.713	
C	-0.0658729917	 1.5224831355	 0.0702501562	-0.428293
C	 0.020016935	-0.0025914985	-0.0293424366	 0.321429
C	 0.9403897931	-0.5759832825	 1.0482574092	-0.385955
O	-1.2707207811	-0.590661426	 0.217949172	-0.4639
C	 0.4781506384	-0.4121403794	-1.4453555164	-0.166404
N	 0.3824786032	-1.8455864542	-1.6305495482	-0.269689
C	 1.3577814109	-2.5962327359	-2.2027531209	 0.152396
O	 2.3933467814	-2.1666119378	-2.6679235046	-0.327986
H	 0.9129193289	 1.9851473509	-0.0898548204	 0.127397
H	-0.7503914091	 1.9280382745	-0.6849079811	 0.106856
H	-0.4307260054	 1.8169057802	 1.058060866	 0.127681
H	 0.5601527077	-0.3176328534	 2.0398960474	 0.12243
H	 0.9913061064	-1.6645031415	 0.9725380687	 0.123412
H	 1.952814481	-0.176306372	 0.9430203619	 0.121792
H	-1.9215430006	-0.1039223597	-0.3002406906	 0.279398
H	-0.1469042399	 0.1114581232	-2.1846341206	 0.093146
H	 1.5151160335	-0.1241077215	-1.63312836	 0.143386
H	-0.4281058348	-2.2948866106	-1.2320496615	 0.251052
H	 1.0972581532	-3.6736300514	-2.2021956106	 0.071851
36.7812	93.6735	184.2896	205.7431	239.8979	253.4877	294.268	333.1563	352.815	369.3635	405.5998	453.7206	549.581	614.2497	738.7022	803.633	906.0539	923.9834	940.3814	971.982	1023.5712	1035.0684	1056.4046	1133.3208	1199.763	1215.6352	1245.8911	1262.8799	1358.3487	1385.7613	1406.7847	1425.1407	1428.9241	1477.8324	1484.4824	1495.6525	1500.2905	1509.3657	1522.1257	1802.6578	2932.7513	2987.411	3027.2731	3051.7793	3094.5459	3112.8034	3119.0278	3127.9962	3131.6286	3623.521	3797.7977
CC(C)(O)CNC=O	CC(C)(O)CNC=O	
InChI=1S/C5H11NO2/c1-5(2,8)3-6-4-7/h4,8H,3H2,1-2H3,(H,6,7)	InChI=1S/C5H11NO2/c1-5(2,8)3-6-4-7/h4,8H,3H2,1-2H3,(H,6,7)
