20
gdb 8383	3.86937	1.3509	1.2084	1.5286	75.42	-0.229	0.0753	0.3043	1088.6516	0.175712	-348.975473	-348.96664	-348.965695	-349.010588	32.656	
C	-0.6519462035	 1.3439687365	-0.0762105807	-0.396694
C	 0.0361099517	-0.0119767883	 0.0017054315	 0.06084
C	 1.3235138019	-0.1819092413	-0.8702671488	-0.333478
C	 2.1259027548	-0.4340478697	 0.4135608365	 0.331057
C	 3.2864252963	-1.3945122257	 0.5776103193	-0.402582
C	 3.5045560854	 0.0923277784	 0.6730116637	 0.089959
O	 4.2113594572	 0.812713599	-0.2966285954	-0.424456
C	 0.8768410597	-0.2873104694	 1.2911226428	-0.326226
H	 0.0598314086	 2.1567592892	 0.1098215528	 0.117774
H	-1.0949812839	 1.5095883887	-1.0647458423	 0.112491
H	-1.4522717133	 1.4258550119	 0.6677974155	 0.112938
H	-0.6924183203	-0.8052754592	-0.1886102767	 0.070844
H	 1.2915039741	-1.0138748249	-1.5803615816	 0.095082
H	 1.6185577286	 0.7255555812	-1.4106267114	 0.097107
H	 3.3499494185	-1.9918610542	 1.4827911743	 0.11226
H	 3.642171708	-1.9030013424	-0.3157207155	 0.103536
H	 3.7124457165	 0.5136814022	 1.6523226109	 0.103375
H	 4.0486355261	 0.4105233278	-1.1558216199	 0.284337
H	 0.9064846398	 0.5484756409	 1.9987191563	 0.095907
H	 0.5896442239	-1.1903408808	 1.8383492785	 0.095928
8.064	106.3803	172.897	191.0055	247.8272	287.8326	343.1781	377.6572	448.2185	478.4044	577.9677	750.6208	794.9138	825.3924	853.9499	888.3608	900.8465	918.8258	934.4772	997.4398	1021.7112	1065.4985	1074.9054	1097.7548	1141.1911	1142.9131	1162.1701	1205.2778	1236.2667	1239.2666	1261.2217	1284.6145	1317.9346	1346.2409	1366.5024	1414.0149	1435.3674	1475.7677	1485.6842	1493.2942	1497.4124	1498.694	3021.5268	3026.789	3036.4394	3051.9892	3079.9883	3083.9771	3090.8781	3095.0598	3105.2686	3154.749	3191.8209	3822.364
CC1CC2(CC2O)C1	C[C@H]1C[C@]2(C[C@H]2O)C1	
InChI=1S/C7H12O/c1-5-2-7(3-5)4-6(7)8/h5-6,8H,2-4H2,1H3	InChI=1S/C7H12O/c1-5-2-7(3-5)4-6(7)8/h5-6,8H,2-4H2,1H3/t5-,6-,7+/m1/s1
