18
gdb 57222	2.69833	1.29027	1.08715	3.8303	67.47	-0.256	0.0061	0.2621	1157.9053	0.147391	-476.239356	-476.23039	-476.229446	-476.273231	33.969	
N	 0.1067584427	 1.2803102774	 0.0528832857	-0.544115
H	 0.6572764518	 0.4262110007	 0.1198496349	 0.254761
H	 0.7651496033	 2.0494506096	-0.0122417278	 0.245924
H	-1.5963308739	 0.8004385571	-0.7141540846	 0.308622
C	-0.7084711358	 1.3983030078	 1.2735765463	-0.215363
C	-1.9748871075	 0.5342921359	 1.0769934366	 0.444457
O	-2.3343090286	 0.4017010791	-0.2023413425	-0.366671
O	-2.5809180575	 0.0263646129	 1.9862784216	-0.351863
C	-0.0061701358	 1.0015440191	 2.5581664858	 0.457817
O	 0.3197174796	-0.3626369361	 2.5903074934	-0.487087
C	 1.0085312709	 1.9197957568	 3.1715271727	-0.32796
C	-0.3276031159	 1.6923380942	 3.8523532083	-0.309869
H	-1.0519569577	 2.4377083376	 1.3460640749	 0.114734
H	-0.5140741294	-0.8298747255	 2.7398600887	 0.299089
H	 1.8802033233	 1.4483351917	 3.6096311608	 0.129256
H	 1.1966081478	 2.8807245853	 2.7031036806	 0.10584
H	-1.0588750544	 2.4930791923	 3.8519493659	 0.117658
H	-0.3338931727	 1.0721431943	 4.7410647287	 0.12477
67.4726	84.0235	161.3919	219.9728	283.183	323.1954	342.0382	363.8942	446.4085	490.34	539.992	546.7088	602.2586	722.5617	768.2087	816.409	844.3245	868.0714	903.2246	924.8703	951.0407	990.5875	999.394	1054.7392	1077.1502	1101.335	1180.8195	1187.4183	1208.0313	1250.7041	1305.966	1322.8085	1378.2973	1412.5948	1424.4058	1454.5877	1501.0372	1657.4007	1852.9812	3044.031	3131.7289	3139.7066	3219.6139	3233.4487	3479.834	3492.8732	3573.6139	3752.6381
[NH3+]C(C([O-])=O)C1(O)CC1	N[C@@H](C(=O)O)C1(O)CC1	
InChI=1S/C5H9NO3/c6-3(4(7)8)5(9)1-2-5/h3,9H,1-2,6H2,(H,7,8)	InChI=1S/C5H9NO3/c6-3(4(7)8)5(9)1-2-5/h3,9H,1-2,6H2,(H,7,8)/t3-/m0/s1
