21
gdb 94560	2.73735	1.27485	1.12606	3.1914	78.32	-0.2326	0.0581	0.2907	1196.595	0.180577	-424.187877	-424.178158	-424.177214	-424.223088	35.757	
C	-1.0849238935	 0.9557645093	 0.4147415621	-0.409644
C	-0.1373533	-0.1992177526	 0.1555519329	 0.154582
O	 0.7801849264	 0.0635848889	-0.9327525628	-0.29269
C	 1.9295153716	-0.244606414	-0.121862814	-0.086938
C	 1.0499090358	-0.4993772497	 1.123977199	-0.10519
C	 1.2877239256	 0.3706638988	 2.3313685425	 0.426089
O	 1.5169258442	 1.7064584073	 1.9517157759	-0.464276
C	 0.5510498806	 0.0778779096	 3.6130214038	-0.329323
C	 2.0442520452	-0.1912154415	 3.5095380108	-0.337534
H	-0.5367979123	 1.8655319475	 0.6618827538	 0.140147
H	-1.6902466297	 1.1347609393	-0.4799968924	 0.117813
H	-1.7649959875	 0.7149567371	 1.2395824289	 0.106404
H	-0.720140788	-1.1079198555	-0.058395154	 0.064809
H	 2.4763010238	-1.1196382342	-0.4959247657	 0.089067
H	 2.6135436473	 0.6060758779	-0.0416758971	 0.11428
H	 1.0541374028	-1.5408008939	 1.4531710621	 0.073171
H	 1.6404667669	 2.2399549272	 2.7423713861	 0.282515
H	 0.2312978694	 0.9240666191	 4.2136566721	 0.1099
H	-0.1281197557	-0.7674336345	 3.6484851424	 0.118817
H	 2.3877180914	-1.2197230698	 3.4777027806	 0.11889
H	 2.7129259455	 0.4810006338	 4.0387740931	 0.109111
54.904	63.3303	92.5969	168.5295	223.1459	244.0944	282.2772	320.4819	380.1399	420.3653	476.5523	555.7119	718.1463	753.425	765.9939	849.3875	877.5253	882.7169	927.7365	942.1353	977.0006	992.4077	1023.3074	1051.8676	1062.6454	1074.1542	1081.789	1101.2776	1160.3435	1170.0536	1184.5773	1189.3896	1246.3131	1271.0487	1299.2354	1354.1751	1369.8897	1389.1814	1408.4698	1451.7347	1462.2137	1484.295	1499.5613	1501.3587	1523.5822	2978.082	3014.463	3037.543	3073.3287	3085.4955	3099.198	3121.513	3125.9936	3151.1252	3201.0185	3215.983	3831.3242
CC1OCC1C1(O)CC1	C[C@H]1OC[C@H]1C1(O)CC1	
InChI=1S/C7H12O2/c1-5-6(4-9-5)7(8)2-3-7/h5-6,8H,2-4H2,1H3	InChI=1S/C7H12O2/c1-5-6(4-9-5)7(8)2-3-7/h5-6,8H,2-4H2,1H3/t5-,6-/m1/s1
