13
gdb 15209	2.56021	1.98475	1.53918	5.5536	63.26	-0.2655	-0.0123	0.2532	853.3305	0.095993	-357.645459	-357.637664	-357.636719	-357.677794	27.477	
N	 0.196576737	 1.4085294825	 0.0024909364	-0.507476
C	 0.0240160346	-0.0014443087	 0.0321418304	 0.017415
C	-0.4865142851	-0.671989971	 1.2829962616	-0.207313
C	-0.8956263425	 0.1329619029	 2.3994561627	 0.310965
N	-1.2082535033	 0.7980649424	 3.2923100753	-0.323542
C	-1.3457871381	-0.7068833028	 0.0040852275	-0.226665
C	-2.528647433	 0.0931605283	-0.0934581745	 0.301994
N	-3.465763192	 0.7620848174	-0.2057104444	-0.320797
H	 0.0322440918	 1.7833778109	-0.9256647519	 0.253588
H	-0.417441599	 1.8899476999	 0.6513307349	 0.265466
H	 0.8052861233	-0.546219306	-0.4900054483	 0.132915
H	-0.0356621306	-1.618166846	 1.5614300369	 0.155216
H	-1.4067345831	-1.6743328099	-0.4829776366	 0.148234
98.3809	120.442	149.974	193.5002	260.1758	365.7364	402.9601	472.3335	595.7604	654.7568	668.7607	731.3829	771.2279	819.286	879.0866	961.5234	985.3368	1079.1698	1113.8769	1143.2346	1233.8819	1279.1555	1354.5241	1371.7757	1437.5133	1662.2168	2355.4911	2359.5344	3155.6764	3170.9773	3180.9295	3512.8437	3594.7315
NC1C(C#N)C1C#N	N[C@H]1[C@@H](C#N)[C@H]1C#N	
InChI=1S/C5H5N3/c6-1-3-4(2-7)5(3)8/h3-5H,8H2	InChI=1S/C5H5N3/c6-1-3-4(2-7)5(3)8/h3-5H,8H2/t3-,4+,5-
