12
gdb 131709	3.12942	1.336	0.94173	5.4089	60.76	-0.2819	-0.1235	0.1584	1125.326	0.074889	-505.897725	-505.889733	-505.888789	-505.931422	27.559	
O	 0.0495577476	 1.4213506292	 0.0053744986	-0.386973
C	-0.0207729392	 0.028035085	 0.001866094	-0.145489
C	-1.4498904961	-0.4245799672	 0.012637964	 0.377134
N	-2.4404998076	 0.381594457	 0.0229968027	-0.300404
C	-3.7212677613	-0.1693357659	 0.0314974033	 0.475921
O	-4.7359367668	 0.4520125929	 0.0416616211	-0.301228
O	-3.8058122152	-1.566471019	 0.027526925	-0.236277
N	-2.6529889253	-2.382782401	 0.0156927332	 0.084598
N	-1.544518668	-1.839950084	 0.0085865985	-0.149245
H	 0.9765799058	 1.6772897293	-0.0031972359	 0.304862
H	 0.4493113958	-0.4357437748	-0.8836414543	 0.13857
H	 0.4640256402	-0.4408850916	 0.8766851899	 0.138529
42.0551	113.0198	164.9226	185.0816	231.4181	382.9737	389.7191	469.2388	565.2161	588.7936	638.219	717.6228	755.5194	805.2047	904.4694	1004.9148	1014.7014	1132.5491	1136.1403	1215.212	1244.8408	1262.3208	1462.3093	1485.8011	1591.5985	1705.7392	1893.3181	2955.7091	2973.3057	3840.4439
OCC1=NC(=O)ON=N1	OCc1nc(=O)onn1	
InChI=1S/C3H3N3O3/c7-1-2-4-3(8)9-6-5-2/h7H,1H2	InChI=1S/C3H3N3O3/c7-1-2-4-3(8)9-6-5-2/h7H,1H2
