17
gdb 31780	2.98914	1.32072	0.97561	2.6031	71.98	-0.199	0.027	0.226	1180.7805	0.13648	-455.172638	-455.163578	-455.162633	-455.206429	32.782	
C	 0.0940513135	 1.4311213946	 0.0873784955	-0.3579
N	 0.0515756374	-0.0212452373	 0.0544163792	-0.081932
C	 0.0416298227	-0.8031535923	-1.0706063328	 0.3266
O	 0.0715842747	-0.1867025847	-2.2772488175	-0.438846
C	 0.0070683617	-2.1087929687	-0.6526442744	-0.233448
N	-0.0025919995	-2.1442394803	 0.7248205842	-0.297143
C	 0.0161709788	-0.8927972119	 1.1253121421	 0.285112
C	 0.0236184043	-0.4424224244	 2.5477001816	-0.184787
O	 1.2001834946	 0.2893831203	 2.9053619835	-0.413865
H	 0.6154509952	 1.7424032454	 0.9929827762	 0.169407
H	 0.6345057293	 1.7928646686	-0.7890237847	 0.152223
H	-0.9135283915	 1.8607370702	 0.075679946	 0.137729
H	 0.138343628	-0.8602708825	-2.9610456113	 0.312253
H	-0.0060303035	-3.0056280927	-1.2527213235	 0.098269
H	-0.8052878208	 0.2421984958	 2.7605374203	 0.114378
H	-0.109308044	-1.3369967762	 3.1679374292	 0.125916
H	 1.9532913891	-0.2828210439	 2.7209501365	 0.286034
88.7168	124.3554	144.4966	189.2251	240.2499	258.313	288.9533	318.9411	395.3729	434.4231	509.6619	618.4277	674.9547	712.2602	736.7991	762.099	787.7998	955.878	989.5685	1033.0939	1128.4092	1158.4748	1168.6053	1202.9534	1220.7465	1280.393	1310.3713	1356.357	1403.2105	1423.1048	1449.8901	1490.9931	1502.7932	1514.8011	1539.853	1558.4329	1614.2225	3031.0742	3042.2167	3074.6724	3119.5778	3160.5325	3244.092	3804.2638	3844.1919
CN1C(O)=CN=C1CO	Cn1c(O)cnc1CO	
InChI=1S/C5H8N2O2/c1-7-4(3-8)6-2-5(7)9/h2,8-9H,3H2,1H3	InChI=1S/C5H8N2O2/c1-7-4(3-8)6-2-5(7)9/h2,8-9H,3H2,1H3
