21
gdb 90629	3.43383	1.07762	0.99318	0.9257	90.37	-0.2367	0.0548	0.2915	1308.7109	0.180898	-349.898691	-349.889392	-349.888447	-349.932047	36.355	
C	-0.0572986525	 1.5023969816	-0.0252852082	-0.411579
C	 0.0144062802	-0.0191540443	 0.0368533662	 0.00594
C	 1.0926428963	-0.6498631038	-0.9102551115	-0.275073
C	 1.857347849	-1.1560309388	 0.3176701932	-0.077757
C	 0.8055175382	-0.5525797455	 1.2436319055	-0.07722
C	 0.9955421015	-2.063330457	 1.1881481489	 0.126549
C	-0.0431912068	-3.0313852921	 0.6374188382	-0.473444
C	 1.7046864068	-2.583594016	 2.3333895948	 0.250397
C	 2.2803477817	-3.0395364786	 3.2866143327	-0.43222
H	 0.9363756834	 1.9484646107	 0.0947627353	 0.11653
H	-0.4630057316	 1.8361171943	-0.9864917895	 0.114261
H	-0.6996978059	 1.9005868649	 0.7678881105	 0.115469
H	-0.9937872139	-0.434967514	-0.0684384016	 0.069873
H	 0.7593644261	-1.4019975623	-1.6319334332	 0.097556
H	 1.6474777626	 0.12163548	-1.4505719478	 0.104169
H	 2.9345973006	-1.1711571953	 0.4279990068	 0.094477
H	 0.9421736448	-0.0228368787	 2.1794266303	 0.091433
H	-0.5597950262	-2.6305282899	-0.2360885079	 0.121255
H	 0.4328576171	-3.9726386469	 0.3459751984	 0.126238
H	-0.7942677376	-3.2585112256	 1.4002634025	 0.126423
H	 2.7899130863	-3.4393981126	 4.1276733265	 0.186723
119.7161	142.1428	156.7201	204.3225	250.2266	263.1418	300.1041	338.5246	429.6947	449.7156	524.0524	544.1818	580.4581	646.1273	658.5973	711.99	832.7309	841.2854	872.9018	903.0507	937.7685	954.7887	996.1213	1021.2409	1026.8513	1067.8325	1104.4576	1110.1131	1125.4979	1171.0723	1209.7774	1246.3164	1255.5689	1277.9302	1289.2363	1357.7631	1383.8904	1408.0568	1418.5161	1482.9096	1493.8571	1496.1006	1500.8307	1505.4362	2231.2496	3024.5419	3036.5443	3045.7452	3050.8374	3092.4977	3096.1196	3101.3636	3105.8861	3139.0202	3175.0461	3189.9023	3504.554
CC1CC2C1C2(C)C#C	C[C@H]1C[C@H]2[C@@H]1[C@]2(C)C#C	
InChI=1S/C9H12/c1-4-9(3)7-5-6(2)8(7)9/h1,6-8H,5H2,2-3H3	InChI=1S/C9H12/c1-4-9(3)7-5-6(2)8(7)9/h1,6-8H,5H2,2-3H3/t6-,7-,8+,9+/m0/s1
