15
gdb 44462	4.25058	1.47945	1.3493	4.8276	65.57	-0.2601	0.0058	0.266	933.9251	0.113251	-457.714647	-457.708302	-457.707357	-457.745313	25.829	
O	 0.0729837727	 0.1265962614	 0.4758661904	-0.311124
C	-0.0107560439	 1.2529841593	 0.1033511716	 0.437468
C	-1.3084419914	 2.1193589898	 0.0024165579	-0.497088
C	-0.6722002615	 3.4637512869	-0.1001772285	 0.381821
C	-0.6212874079	 4.953476583	-0.5067824725	-0.318839
C	 0.7644984289	 4.5272468981	 0.1092084835	 0.000232
O	 0.0362685654	 3.830217856	 1.1679934821	-0.333754
C	 0.6898521389	 3.2446542408	-0.7665499331	 0.114295
O	 1.0956857628	 1.9662012497	-0.3299879516	-0.232288
H	-1.8653501904	 1.8297554718	-0.894144275	 0.146779
H	-1.9273387381	 1.9543793004	 0.884281934	 0.160468
H	-0.6792722401	 5.1975808666	-1.5705050002	 0.112079
H	-1.1872341305	 5.6361070835	 0.12531977	 0.130459
H	 1.6076268938	 5.1561699951	 0.3930057757	 0.11299
H	 0.8064747813	 3.3475761675	-1.8475767344	 0.096501
115.6404	293.2599	346.3101	377.4893	480.3812	528.0279	577.0994	607.436	703.1742	752.8894	774.0508	796.9024	815.2835	884.0223	902.6403	962.571	967.2266	1013.1796	1057.3755	1071.1065	1093.067	1131.8911	1157.3295	1171.4936	1185.7826	1203.8208	1230.219	1263.6694	1345.8492	1378.7215	1450.3746	1487.1016	1906.1743	3070.3042	3073.7752	3091.2846	3130.2368	3147.4537	3166.9218
O=C1CC23CC(O2)C3O1	O=C1C[C@@]23C[C@@H](O2)[C@H]3O1	
InChI=1S/C6H6O3/c7-4-2-6-1-3(9-6)5(6)8-4/h3,5H,1-2H2	InChI=1S/C6H6O3/c7-4-2-6-1-3(9-6)5(6)8-4/h3,5H,1-2H2/t3-,5-,6-/m1/s1
