20
gdb 82106	2.98095	1.27799	1.04993	2.5693	78.74	-0.234	0.0737	0.3077	1200.6841	0.172083	-403.083165	-403.074947	-403.074002	-403.116429	32.176	
O	 0.1038290147	 1.2956496955	-0.1766418202	-0.430676
C	-0.0668647095	-0.0878671156	-0.066906987	 0.124431
C	 0.4113466022	-0.7253937311	 1.2452762089	-0.087645
N	-0.3865658406	-0.020115583	 2.283004619	-0.359512
C	-0.9623530764	-1.1909451716	 1.5702476657	-0.065524
C	-1.5271069644	-0.6555285588	 0.2490080436	-0.05671
C	-2.6885015304	 0.295980237	 0.2915174278	 0.038277
C	-3.4741588383	 0.5902358302	-0.9602597806	-0.262591
C	-4.1005748355	-0.2231001302	 0.1443111614	-0.281223
H	-0.0962013698	 1.6472266542	 0.7019068083	 0.290611
H	 0.3619184006	-0.5419675847	-0.9626226206	 0.085333
H	 1.3783921417	-1.1501522191	 1.4851512084	 0.093357
H	-0.0589395839	-0.3388169933	 3.1929431203	 0.233249
H	-1.2760083454	-2.066958911	 2.1249805339	 0.093282
H	-1.7406088467	-1.4838636401	-0.4356884107	 0.066311
H	-2.5602162526	 1.1237291049	 0.98084656	 0.087355
H	-3.824771459	 1.6034767483	-1.1210759586	 0.111188
H	-3.1879596194	 0.0731541066	-1.8704958858	 0.107319
H	-4.2377005766	-1.2868138896	-0.0232950876	 0.104017
H	-4.8810266806	 0.2331517815	 0.7433732037	 0.10915
55.7158	118.1928	149.8507	232.1091	293.6665	322.6242	483.9883	500.3948	553.3808	635.7011	704.3544	759.0286	807.6076	818.3331	840.4052	850.8022	896.9162	918.5693	928.4624	948.5746	983.7245	1018.9413	1037.2221	1057.0701	1074.1598	1086.8189	1103.3159	1139.4184	1140.9335	1166.4891	1190.3534	1197.3719	1226.416	1234.2408	1265.4764	1301.5186	1319.2469	1332.4954	1375.9102	1433.5904	1449.8822	1470.1979	1505.4546	3044.8719	3093.8508	3126.4037	3132.9381	3164.857	3181.361	3195.3827	3204.4262	3220.7367	3491.4613	3750.4299
OC1C2NC2C1C1CC1	O[C@H]1[C@H]2N[C@H]2[C@H]1C1CC1	
InChI=1S/C7H11NO/c9-7-4(3-1-2-3)5-6(7)8-5/h3-9H,1-2H2	InChI=1S/C7H11NO/c9-7-4(3-1-2-3)5-6(7)8-5/h3-9H,1-2H2/t4-,5+,6+,7-/m1/s1
