14
gdb 125453	5.96595	0.95761	0.82942	4.7836	67.16	-0.2596	-0.0297	0.2299	1311.0458	0.100858	-470.039007	-470.030786	-470.029842	-470.073016	28.263	
C	-0.0954450904	 1.5098501073	-0.0131051873	-0.495355
C	-0.0543266008	 0.0257120236	 0.0368389642	 0.435403
N	-1.019218163	-0.8149554643	-0.1942788409	-0.377443
C	-0.3905605081	-2.024188909	 0.0026316673	 0.473937
N	-1.1277935153	-3.1811863929	-0.160385693	-0.405046
C	-0.6952061044	-4.4842633825	-0.0124582009	 0.148805
O	 0.4178284701	-4.8233820283	 0.2886687678	-0.259164
N	 0.8756745344	-1.9612482174	 0.3333571239	-0.179631
O	 1.0983788503	-0.5659067168	 0.3550245833	-0.194476
H	 0.6209951918	 1.8881094629	-0.7482452928	 0.163152
H	-1.0992607795	 1.8350500568	-0.2848446264	 0.163214
H	 0.1733616117	 1.9331624797	 0.959186676	 0.163149
H	-2.090820045	-3.0225414785	-0.4173679628	 0.272784
H	-1.5252526217	-5.1896401506	-0.2117497384	 0.090672
53.4699	61.5353	147.6687	184.3339	260.0199	269.9615	403.8135	423.2006	581.4128	598.9248	663.2038	733.6902	771.3566	863.8492	922.3134	1000.2182	1022.6716	1034.6081	1065.5458	1069.6919	1165.8676	1297.9818	1349.1382	1410.569	1435.8557	1475.0363	1475.6034	1537.7871	1594.6395	1648.3594	1838.1874	2947.8939	3055.4837	3115.6416	3165.1876	3626.6321
CC1=NC(NC=O)=NO1	Cc1nc(NC=O)no1	
InChI=1S/C4H5N3O2/c1-3-6-4(5-2-8)7-9-3/h2H,1H3,(H,5,7,8)	InChI=1S/C4H5N3O2/c1-3-6-4(5-2-8)7-9-3/h2H,1H3,(H,5,7,8)
