19
gdb 86657	2.28486	1.35079	1.03318	1.8757	78.67	-0.2454	-0.0355	0.2099	1214.0436	0.15772	-423.051548	-423.042194	-423.041249	-423.086263	34.035	
C	-0.2995245898	 1.4546809964	 0.1631378227	-0.493404
C	-0.1455069152	-0.0278989005	 0.0430160431	 0.308724
C	-0.06321995	-0.7632681289	-1.0710261952	-0.222648
C	 0.143639227	-2.2309671047	-0.7964515161	 0.105868
O	 1.45635796	-2.6682073791	-1.1561232217	-0.433192
C	-0.1627915601	-2.3403081805	 0.7222686301	-0.28012
C	-0.0390395593	-0.9078222699	 1.2886527636	-0.161413
C	 1.3100101129	-0.6386299675	 1.9388091801	 0.159872
O	 1.500140511	 0.1238952623	 2.8491333592	-0.250539
H	 0.4809398741	 1.8821463734	 0.8031861636	 0.148217
H	-0.2601062622	 1.9445612862	-0.812880693	 0.128293
H	-1.256646906	 1.7078869455	 0.6360175946	 0.136083
H	-0.0888922774	-0.363500133	-2.0793584182	 0.099714
H	-0.5202778765	-2.8749052404	-1.3820231911	 0.08926
H	 2.0719780355	-1.9684445259	-0.9114855183	 0.272183
H	-1.1859341018	-2.6957081207	 0.8725081426	 0.113397
H	 0.5094002099	-3.0604038535	 1.1976731302	 0.114117
H	-0.8101733754	-0.6563502096	 2.0241338199	 0.09697
H	 2.1556495232	-1.1939811396	 1.4641839738	 0.068616
56.1721	71.8859	131.0091	179.1017	230.7154	274.2904	301.5119	343.0396	396.9461	438.6313	463.9592	561.9351	616.354	766.0953	796.441	858.7568	882.5893	910.0245	971.7238	1001.4395	1024.2291	1032.45	1059.6557	1079.1564	1097.3679	1162.1923	1205.8612	1245.8032	1260.9572	1269.3151	1300.5651	1320.0279	1346.5075	1415.513	1418.5184	1427.3522	1476.7221	1477.676	1486.2589	1705.517	1829.1203	2836.1392	3026.5865	3052.897	3059.3166	3068.0412	3077.6433	3107.1363	3120.3172	3190.3614	3799.286
CC1=CC(O)CC1C=O	CC1=C[C@@H](O)C[C@H]1C=O	
InChI=1S/C7H10O2/c1-5-2-7(9)3-6(5)4-8/h2,4,6-7,9H,3H2,1H3	InChI=1S/C7H10O2/c1-5-2-7(9)3-6(5)4-8/h2,4,6-7,9H,3H2,1H3/t6-,7+/m0/s1
