15
gdb 19575	3.53159	2.44991	2.0699	4.4247	64.05	-0.2326	0.0024	0.2349	706.9767	0.121087	-362.619397	-362.613653	-362.612708	-362.648955	23.748	
O	 0.005424267	 0.0013166288	 0.1320454432	-0.324904
C	-0.0141221705	 1.1787852977	-0.0464958818	 0.456718
C	-1.0879800733	 2.289788455	 0.0093119223	-0.160441
C	-0.0269039915	 2.9725918825	 0.9594877244	-0.247848
C	 1.0279913735	 2.3206437984	-0.0188334312	-0.160444
C	 0.6847435561	 3.0567125952	-1.3227507327	-0.033627
N	-0.0592169381	 2.2183485188	-2.2946719172	-0.331796
C	-0.8011173725	 3.0350781567	-1.3029621274	-0.033625
H	-2.1165521746	 2.1000163295	 0.306798547	 0.086503
H	-0.042541866	 4.0641934079	 0.9806527058	 0.109176
H	-0.007450703	 2.5599833658	 1.9702171256	 0.12205
H	 2.0692037868	 2.1610538243	 0.2511289772	 0.086503
H	 1.2719577457	 3.9004626956	-1.6648405102	 0.099717
H	-0.0780996949	 2.6866993557	-3.198988305	 0.232304
H	-1.4215432248	 3.861246748	-1.62896401	 0.099716
175.4034	347.7714	349.9794	471.4196	533.3236	617.6727	649.1507	780.4727	802.8848	811.2711	825.8507	854.12	897.0999	927.6312	937.519	983.7967	996.5052	1048.4017	1053.8657	1078.698	1107.8506	1113.5318	1126.3499	1196.7098	1201.3772	1217.0294	1247.424	1291.9763	1341.1187	1392.6213	1488.5773	1914.802	3071.0084	3138.8781	3150.991	3152.6933	3178.9907	3188.9999	3487.4932
O=C1C2CC1C1NC21	O=C1[C@H]2C[C@@H]1[C@H]1N[C@@H]21	
InChI=1S/C6H7NO/c8-6-2-1-3(6)5-4(2)7-5/h2-5,7H,1H2	InChI=1S/C6H7NO/c8-6-2-1-3(6)5-4(2)7-5/h2-5,7H,1H2/t2-,3+,4-,5+
