15
gdb 33292	6.59541	0.69795	0.69794	3.3791	87.07	-0.2629	-0.0513	0.2115	1571.27	0.114293	-379.575367	-379.567912	-379.566968	-379.60806	27.843	
N	 0.0526071272	-3.7154774686	-0.0168418165	-0.33157
C	 0.0384705897	-2.5536294849	-0.0139605633	 0.138008
C	 0.0212874159	-1.189554862	-0.0101925466	 0.558039
C	 0.0060542986	 0.0201675188	-0.0068446643	-0.561931
C	-0.0119149308	 1.4563786097	-0.0031193498	 0.241408
C	-0.6571653375	 2.4337779789	 1.0195758091	-0.1995
N	-0.0361809791	 3.4033372822	 0.0018730737	-0.161519
C	 1.1754090271	 2.4590594113	 0.0375984229	-0.199502
C	-0.5913092534	 2.4398995273	-1.0584793804	-0.199454
H	-1.7477448226	 2.4741900277	 1.0602550335	 0.119374
H	-0.2098141323	 2.490953631	 2.0141880114	 0.11933
H	 1.7548188094	 2.5179949957	 0.961434684	 0.119353
H	 1.8121466503	 2.5232629797	-0.8473437984	 0.11933
H	-0.0824872462	 2.502923222	-2.022735623	 0.119308
H	-1.6771815965	 2.4806731413	-1.1674807824	 0.119326
79.5316	80.7687	233.2919	233.5622	401.6401	476.3716	476.7091	583.4048	585.4278	605.8472	607.2732	790.6281	791.6651	832.6905	938.3135	981.3764	989.7819	990.8253	1020.9727	1024.5012	1131.4562	1131.9676	1165.5589	1166.5466	1201.1957	1202.022	1289.8624	1310.3798	1509.5502	1510.695	1561.6322	2258.2551	2391.0749	3062.7291	3063.7881	3071.0619	3135.0571	3140.5287	3140.8068
N#CC#CC12CN(C1)C2	N#CC#C[C@@]12CN(C1)C2	
InChI=1S/C7H6N2/c8-3-1-2-7-4-9(5-7)6-7/h4-6H2	InChI=1S/C7H6N2/c8-3-1-2-7-4-9(5-7)6-7/h4-6H2
