18
gdb 114507	2.77339	1.32208	1.04964	1.4052	72.69	-0.2596	0.0229	0.2826	1159.9473	0.148007	-439.060032	-439.051743	-439.050799	-439.093418	31.033	
O	-0.0627199521	 1.3936275626	-0.2660520433	-0.424972
C	 0.0462242025	-0.0163499638	-0.1260818778	-0.098051
C	-1.3607345716	-0.5521683758	 0.0504494251	 0.023655
C	-2.3343907551	-0.4998883132	-1.1709878139	-0.255507
C	-2.5486830267	-2.0216764404	-1.0525671788	 0.103955
O	-1.6081509122	-2.7770097145	-1.8822913858	-0.269255
C	-0.717272314	-2.900022014	-0.8296465339	 0.438759
N	 0.3875037491	-3.4914943406	-0.7667675892	-0.552879
C	-1.5578554207	-2.1025530532	 0.1412560812	-0.204977
H	 0.813820279	 1.7459978856	-0.4452455794	 0.289389
H	 0.5160552986	-0.4719790754	-1.0101434281	 0.099211
H	 0.6603047686	-0.2920294081	 0.7460179531	 0.097662
H	-1.8087088502	-0.0681049309	 0.9220063379	 0.093727
H	-3.2333306956	 0.0941289321	-0.9950133872	 0.11327
H	-1.8891760872	-0.1953942036	-2.1203867816	 0.121326
H	-3.5461065542	-2.4576550072	-1.0878264579	 0.095707
H	 0.6222806676	-3.9323958677	-1.6582523011	 0.227061
H	-1.7588242561	-2.5475193419	 1.1133061609	 0.101919
83.1068	99.2266	117.2408	231.4056	268.0467	360.6611	383.7567	437.887	449.4309	602.9991	742.6329	753.5629	808.4599	863.6308	868.4874	875.5177	912.7821	934.3058	982.102	1013.6441	1029.6869	1070.4901	1086.0572	1095.7239	1155.612	1177.0187	1190.1947	1208.2629	1246.9213	1254.2065	1269.0099	1281.8668	1308.8021	1341.0654	1363.1177	1461.8662	1466.8171	1515.6083	1814.1804	2976.1955	3011.8347	3073.9649	3078.2599	3123.0218	3133.4956	3143.7372	3470.72	3831.0281
OCC1CC2OC(=N)C12	OC[C@H]1C[C@H]2O[C]([NH])[C@@H]12	
InChI=1S/C6H9NO2/c7-6-5-3(2-8)1-4(5)9-6/h3-5,7-8H,1-2H2	InChI=1S/C6H9NO2/c7-6-5-3(2-8)1-4(5)9-6/h3-5,7-8H,1-2H2/t3-,4-,5+/m1/s1
