19
gdb 69348	2.77583	1.33875	1.09012	1.2418	82.06	-0.2495	0.0349	0.2844	1176.1342	0.156651	-385.828723	-385.819574	-385.81863	-385.861976	35.67	
C	-0.0429550962	 1.5536817498	 0.066922105	-0.500895
C	 0.0283535512	 0.0559366702	 0.0020884613	 0.385728
C	-0.8748644733	-0.860745617	 0.7755242333	-0.34555
C	 0.611309331	-0.9433785404	 1.0095762181	-0.114752
C	 1.2709968053	-1.7457230457	-0.1158796973	 0.230868
O	 0.8091252403	-3.0861636995	-0.1671648419	-0.467939
C	 0.646437623	-0.7332948564	-1.1606354036	-0.364094
C	 2.7299880162	-1.6948816623	-0.0902299526	 0.271904
C	 3.9326557013	-1.6821762476	-0.0946153355	-0.460093
H	 0.9238859563	 2.0101200253	-0.1741206641	 0.119305
H	-0.7813900564	 1.9468810846	-0.6424754508	 0.120384
H	-0.3344953725	 1.892763461	 1.0664846743	 0.118294
H	-1.4274616835	-0.394450781	 1.5855599783	 0.107768
H	-1.3942516778	-1.6817916353	 0.2904486401	 0.121339
H	 1.0609717325	-0.7734140553	 1.980026588	 0.089954
H	 1.3328772681	-3.5538536969	-0.8269550203	 0.281684
H	-0.0553335602	-1.189823215	-1.8659408245	 0.097358
H	 1.41352813	-0.1826141177	-1.7084655082	 0.112259
H	 4.9946310147	-1.6681035608	-0.0878514094	 0.196478
88.5488	151.6146	197.3499	215.831	249.3918	280.2644	329.0644	370.4035	423.3908	460.4124	494.7905	541.5405	616.9206	619.1813	658.9933	681.6883	788.9298	813.1377	896.4129	917.2325	957.1935	977.6633	989.7831	1035.0486	1062.7051	1068.1779	1075.869	1097.878	1155.42	1212.3677	1232.5328	1251.5825	1290.6329	1363.2555	1397.4616	1427.1428	1471.9101	1486.8679	1497.1316	1504.7162	2229.3056	3020.2532	3048.1973	3078.6672	3095.288	3118.5267	3119.626	3188.5296	3205.7531	3500.0893	3807.1758
CC12CC1C(O)(C2)C#C	C[C@]12C[C@H]1[C@@](O)(C2)C#C	
InChI=1S/C8H10O/c1-3-8(9)5-7(2)4-6(7)8/h1,6,9H,4-5H2,2H3	InChI=1S/C8H10O/c1-3-8(9)5-7(2)4-6(7)8/h1,6,9H,4-5H2,2H3/t6-,7-,8+/m1/s1
