21
gdb 101904	5.81097	0.53718	0.51073	2.7957	77.58	-0.2573	-0.029	0.2283	2131.4171	0.177421	-461.347886	-461.336477	-461.335533	-461.386528	37.886	
C	-1.4741155783	 1.574777867	 0.2705764817	-0.235492
O	-0.5913943013	 0.5091954729	 0.5349185488	-0.249294
C	-0.8383834799	-0.6688547762	-0.2159535613	 0.116766
C	-0.4024837289	-0.5482862627	-1.6762530059	-0.400388
C	-0.0745517278	-1.7658203789	 0.5243086054	-0.069457
O	-0.3442507605	-3.0044902038	-0.1008967176	-0.252098
C	 0.3239010753	-4.088790745	 0.48676591	-0.140011
C	-0.0442155563	-5.3465795702	-0.2810214362	 0.139179
O	 0.3795325363	-6.4389777314	-0.0140684277	-0.236707
H	-1.2359962416	 2.3713101409	 0.9799010488	 0.128683
H	-1.3643545983	 1.9727272246	-0.7482165374	 0.109578
H	-2.5246074549	 1.2761733964	 0.4131791292	 0.104632
H	-1.9123556115	-0.9171183671	-0.1753135424	 0.073626
H	-1.0022881872	 0.1882636451	-2.2176608744	 0.115697
H	 0.6486685017	-0.2460627577	-1.7311198569	 0.119896
H	-0.5160896157	-1.5135115628	-2.1756600018	 0.133358
H	 1.0047687988	-1.5436260149	 0.503017559	 0.099031
H	-0.3915787389	-1.7803730873	 1.5778234582	 0.100115
H	 1.4199724739	-3.9649019362	 0.4602684168	 0.123831
H	 0.0432273881	-4.225013761	 1.5451729763	 0.123746
H	-0.7491257432	-5.1630159317	-1.1219244426	 0.09531
38.5989	55.206	71.6244	85.4791	101.7487	128.4835	193.2066	232.54	240.0675	286.2548	329.028	423.8348	454.9917	525.5935	577.9475	739.8034	841.718	927.3799	933.7717	1015.156	1053.111	1104.2706	1113.2557	1134.6396	1154.8564	1179.8986	1182.3055	1187.9858	1227.0219	1236.7833	1260.5402	1330.7955	1358.1615	1378.9375	1399.8019	1402.3101	1432.3874	1478.5181	1480.6421	1484.2029	1494.4337	1502.61	1513.0299	1523.1609	1846.2585	2897.3939	2959.8936	2963.3852	2976.4683	2979.7888	2989.291	3018.2027	3030.5568	3043.8509	3112.062	3115.0251	3130.7474
COC(C)COCC=O	CO[C@@H](C)COCC=O	
InChI=1S/C6H12O3/c1-6(8-2)5-9-4-3-7/h3,6H,4-5H2,1-2H3	InChI=1S/C6H12O3/c1-6(8-2)5-9-4-3-7/h3,6H,4-5H2,1-2H3/t6-/m0/s1
