16
gdb 25883	4.1712	1.09634	0.87367	2.3864	74.77	-0.222	-0.012	0.21	1283.6241	0.125271	-434.121902	-434.113389	-434.112445	-434.155403	31.214	
C	-0.0152063829	 1.4310827808	-0.0198877336	-0.490407
C	-0.0795891077	-0.0518549555	 0.0286573363	 0.379726
N	-1.1157843939	-0.8234808367	-0.0633603848	-0.375299
C	-0.6121654324	-2.1190456767	 0.0437113382	 0.285141
C	 0.7319540256	-2.049281817	 0.1987406335	-0.107712
O	 1.0872238813	-0.7325535112	 0.19099071	-0.170001
C	-1.4739562791	-3.3131092841	-0.0214289566	 0.230072
N	-2.8158274156	-3.0107551194	-0.0597749235	-0.555855
N	-0.923923358	-4.4713014596	-0.0024838561	-0.533335
H	 0.615083523	 1.7704151081	-0.8482340086	 0.149774
H	-1.0224603126	 1.8259404901	-0.1533268839	 0.156374
H	 0.4083681322	 1.8369579955	 0.9045004571	 0.150315
H	 1.5134218356	-2.7775663075	 0.3168888998	 0.170967
H	-3.0590328421	-2.0567257309	-0.2800127212	 0.266982
H	-3.4539255007	-3.7259019771	-0.3670116998	 0.245815
H	-1.6248663927	-5.2130420788	-0.0437236268	 0.197444
77.4417	94.0818	159.9117	170.3234	290.6065	341.7834	369.5508	402.2377	493.531	527.7326	599.5136	635.529	685.5823	727.1068	756.0757	826.4289	843.0641	937.2387	995.8307	1044.1908	1066.1098	1101.5811	1128.7237	1147.4727	1200.3139	1271.6581	1342.2063	1410.5994	1424.9881	1474.675	1481.409	1610.9185	1627.5091	1647.466	1712.6859	3045.8237	3100.8586	3158.412	3314.7643	3457.0588	3578.7759	3705.9482
CC1=NC(=CO1)C(N)=N	Cc1nc(co1)C(=N)N	
InChI=1S/C5H7N3O/c1-3-8-4(2-9-3)5(6)7/h2H,1H3,(H3,6,7)	InChI=1S/C5H7N3O/c1-3-8-4(2-9-3)5(6)7/h2H,1H3,(H3,6,7)
