20
gdb 10600	2.95984	1.51787	1.20857	2.4837	71.27	-0.2513	0.0633	0.3146	1075.7553	0.17637	-386.122242	-386.113119	-386.112175	-386.15556	34.056	
C	 0.0139805801	 1.469358054	-0.1979837003	-0.41605
C	 0.0815398593	-0.0225376098	 0.0541332025	-0.04441
C	 1.3873846574	-0.7771928813	 0.0048206903	-0.332491
C	 0.6431627272	-0.6412359125	 1.3191273106	 0.289684
C	 1.2469278614	 0.2233188666	 2.4154265244	-0.127949
O	 2.3114332219	-0.414410611	 3.1002501147	-0.433206
C	-0.0631571029	-1.8780402088	 1.8385578968	-0.143141
O	 0.8095569303	-2.7532304062	 2.5648520692	-0.418947
H	 0.9135148696	 1.9883070897	 0.14309622	 0.123461
H	-0.0864432335	 1.6666356653	-1.270787993	 0.120854
H	-0.8465322932	 1.9246729783	 0.3046423114	 0.120105
H	-0.7709429654	-0.5600843188	-0.3575790088	 0.081174
H	 1.4105410552	-1.7436012547	-0.490861777	 0.101178
H	 2.3012826964	-0.2022651434	-0.1064571348	 0.120295
H	 1.662779347	 1.1444875821	 1.9983639667	 0.098203
H	 0.4471007784	 0.5203516883	 3.1163922958	 0.080529
H	 1.9806981271	-1.2869465209	 3.3538167014	 0.282832
H	-0.8455496598	-1.6032540325	 2.5549801767	 0.115974
H	-0.5456819198	-2.4192545991	 1.0114257763	 0.091854
H	 1.5087889235	-3.0216160052	 1.9573135769	 0.29005
109.0423	117.7481	157.7449	202.9804	228.0996	258.7074	308.724	343.0919	387.6129	408.782	468.0667	550.6793	625.9063	731.6568	845.9747	887.0926	923.879	941.4304	958.5768	976.2952	1017.8331	1034.7034	1059.4552	1080.5455	1109.7319	1133.3132	1187.5096	1207.6861	1220.3962	1303.3826	1327.6143	1370.456	1397.4903	1410.4577	1418.997	1431.3738	1469.2812	1487.811	1493.8357	1498.3642	1507.0271	1514.4189	2949.0446	2993.2142	3032.6443	3067.7017	3082.7456	3090.5164	3106.0942	3118.1412	3124.8607	3202.7428	3739.64	3796.3677
CC1CC1(CO)CO	C[C@H]1CC1(CO)CO	
InChI=1S/C6H12O2/c1-5-2-6(5,3-7)4-8/h5,7-8H,2-4H2,1H3	InChI=1S/C6H12O2/c1-5-2-6(5,3-7)4-8/h5,7-8H,2-4H2,1H3/t5-/m0/s1
