17
gdb 6673	6.47767	0.81274	0.77316	3.8405	67.06	-0.2473	-0.0249	0.2224	1444.2893	0.139605	-401.044791	-401.035108	-401.034164	-401.081561	31.854	
C	-0.1308650151	 1.399323481	-0.2325186009	-0.482359
C	-0.2216484299	-0.1177214123	-0.2343786271	 0.408271
O	 0.2860545207	-0.8041903074	-1.1042964674	-0.377255
N	-0.9125767146	-0.66914682	 0.8079664792	-0.304932
C	-1.121385182	-2.1030547588	 0.8958299773	-0.169793
C	-2.2570326273	-2.6049763434	-0.0217022826	-0.269516
C	-2.3507153001	-4.1123001679	-0.0152277277	 0.15572
O	-3.3253560471	-4.7418546293	 0.3074845162	-0.236928
H	 0.9120140725	 1.6862766405	-0.3844543689	 0.156831
H	-0.703720484	 1.789944788	-1.0787391262	 0.154117
H	-0.5005314181	 1.8606043554	 0.6869281023	 0.113181
H	-1.3887378426	-0.0690036777	 1.4598247437	 0.248701
H	-0.1843858885	-2.5905441756	 0.6111333665	 0.143437
H	-1.3339305307	-2.355412951	 1.9386866191	 0.117985
H	-3.2236902057	-2.1855344207	 0.270071286	 0.113755
H	-2.0147614813	-2.2841500597	-1.0426932945	 0.148531
H	-1.4164961863	-4.6296271212	-0.3369378949	 0.080251
35.588	47.1911	64.5725	79.2046	99.0994	260.8399	286.1182	336.4227	391.0348	469.2671	521.8078	618.6179	657.1094	763.0324	835.716	923.0687	976.0081	1000.0015	1051.9963	1087.4919	1109.4063	1138.4633	1223.8338	1270.5452	1282.2068	1341.7672	1395.7329	1405.6135	1432.0099	1460.4444	1470.0103	1476.1684	1485.1002	1534.4115	1773.9343	1834.2596	2860.7244	3038.0995	3050.1889	3058.4388	3098.7867	3118.2291	3122.9502	3137.3156	3656.7081
CC(=O)NCCC=O	CC(=O)NCCC=O	
InChI=1S/C5H9NO2/c1-5(8)6-3-2-4-7/h4H,2-3H2,1H3,(H,6,8)	InChI=1S/C5H9NO2/c1-5(8)6-3-2-4-7/h4H,2-3H2,1H3,(H,6,8)
