16
gdb 7988	3.56484	1.73145	1.26398	3.4661	60.83	-0.2706	0.0037	0.2743	950.8079	0.130547	-420.928348	-420.920722	-420.919778	-420.960281	28.343	
C	-0.0001640419	 1.5216797029	 0.0195572731	-0.398538
C	 0.1280472128	 0.0117069905	-0.0225006618	 0.125535
C	 0.8348510157	-0.5676346056	-1.2603721805	-0.262886
C	 1.4519300894	-1.8458374758	-0.6983408907	 0.016128
O	 2.6064970033	-2.2869142404	-1.3570417529	-0.437426
C	 1.7498876933	-1.435678373	 0.7436831114	 0.405184
O	 2.5934191804	-1.9191829031	 1.4475941887	-0.358781
O	 0.9450516534	-0.4192880184	 1.1074966966	-0.226648
H	 0.983129123	 1.9933392053	-0.0652654201	 0.133643
H	-0.6234389881	 1.8637975149	-0.8125534505	 0.127186
H	-0.4633265334	 1.8475766348	 0.9544082651	 0.13754
H	-0.8574554809	-0.4535272032	 0.1065544889	 0.098356
H	 0.1493352988	-0.7290305136	-2.0940166402	 0.119632
H	 1.6396097687	 0.0982442196	-1.5898108386	 0.1253
H	 0.6874334724	-2.6427363683	-0.6567020633	 0.09863
H	 3.1919630933	-2.6283062064	-0.6656534753	 0.297146
104.9195	129.6175	227.9419	260.0288	298.2119	380.3381	414.2013	459.999	513.3468	580.6074	630.6121	721.9209	811.2569	877.4659	947.2865	956.5786	1009.1325	1072.1571	1114.3857	1137.2398	1168.0516	1199.9275	1217.5738	1270.8717	1284.2209	1362.4003	1389.2824	1392.213	1415.129	1424.6742	1483.8869	1493.9722	1498.7246	1870.054	2942.5992	3027.1928	3044.5863	3060.5378	3118.7503	3124.7735	3128.4578	3738.3166
CC1CC(O)C(=O)O1	C[C@H]1C[C@@H](O)C(=O)O1	
InChI=1S/C5H8O3/c1-3-2-4(6)5(7)8-3/h3-4,6H,2H2,1H3	InChI=1S/C5H8O3/c1-3-2-4(6)5(7)8-3/h3-4,6H,2H2,1H3/t3-,4+/m0/s1
