19
gdb 32744	3.1348	1.05919	0.83538	0.6426	79.66	-0.1787	0.0531	0.2318	1404.0336	0.159647	-419.228478	-419.218902	-419.217958	-419.26366	34.977	
C	 0.0304170852	 1.5213273142	 0.0442335035	-0.390762
C	 0.7204242302	 0.1805273365	 0.2718606692	-0.115492
N	-0.0718228534	-0.6604235256	 1.1877418534	-0.409237
C	 0.4640450656	-1.9327989938	 1.457521032	 0.201869
C	 1.5317261122	-2.362398727	 2.2206043341	 0.266804
O	 2.3383693804	-1.5024505455	 2.9191709898	-0.461245
C	 1.6044626175	-3.7784571152	 2.1353404786	-0.283076
C	 0.5734795588	-4.182015099	 1.3099044857	-0.078599
N	-0.1040089991	-3.0688769948	 0.9088013765	-0.261575
H	-0.0564069475	 2.0840655094	 0.9812597279	 0.11267
H	 0.601034956	 2.1366192174	-0.657784478	 0.11495
H	-0.9777656377	 1.3771451957	-0.3556434533	 0.120825
H	 0.8091415197	-0.3623990052	-0.6759137049	 0.102211
H	 1.7443437386	 0.3404591191	 0.6436219754	 0.103067
H	-0.228462106	-0.1533244556	 2.0532489121	 0.227052
H	 2.9923511325	-2.0208507726	 3.3956472955	 0.293871
H	 2.327416238	-4.4229082918	 2.6137095971	 0.084196
H	 0.2807392104	-5.1669879783	 0.9851207323	 0.114836
H	-0.9279939914	-3.040534398	 0.3341867132	 0.257636
43.4001	69.3365	112.6986	183.3118	242.5474	262.959	287.4933	320.8513	392.5247	460.5608	476.9181	631.1285	665.4088	674.4193	697.1708	714.4489	778.5782	800.5466	832.6861	909.8118	921.3849	1055.537	1080.3633	1093.1468	1137.6506	1148.5013	1164.1891	1268.1163	1282.8472	1293.8523	1345.5756	1378.1123	1409.5277	1448.8717	1467.7083	1492.1049	1494.4609	1498.5881	1517.0758	1526.559	1665.4543	2985.5955	3031.3491	3055.3897	3098.5959	3116.3804	3232.5449	3269.2539	3507.1617	3685.059	3848.9944
CCNC1=C(O)C=CN1	CCNc1c(O)cc[nH]1	
InChI=1S/C6H10N2O/c1-2-7-6-5(9)3-4-8-6/h3-4,7-9H,2H2,1H3	InChI=1S/C6H10N2O/c1-2-7-6-5(9)3-4-8-6/h3-4,7-9H,2H2,1H3
