16
gdb 16080	3.2672	1.76751	1.4487	0.557	60.13	-0.2377	0.0552	0.2929	895.9269	0.129845	-420.814823	-420.807113	-420.806168	-420.846906	28.776	
O	 0.641843588	 0.3258336953	-0.6886696156	-0.405065
C	-0.212970691	 0.2773936299	 0.4387968598	-0.185801
C	-1.4710124448	-0.5016003691	 0.1689467415	 0.355747
O	-2.4793117462	-0.4830160003	 1.1972127455	-0.339445
C	-2.7501232644	-1.9033446263	 0.9741925229	-0.10684
C	-1.8022334699	-1.9427249352	-0.2128620329	-0.218067
C	-2.1478843832	-0.7785821229	-1.1327411185	 0.071969
O	-3.4495921223	-0.3557601309	-1.384359399	-0.437571
H	 0.2207197031	 0.8818387626	-1.3521593923	 0.290252
H	 0.3606698146	-0.1979678429	 1.2413303674	 0.123393
H	-0.4951820062	 1.2814284348	 0.794226525	 0.106563
H	-2.4163246307	-2.4876182992	 1.8369485212	 0.118481
H	-3.8112017987	-2.0922547146	 0.7782039443	 0.11507
H	-1.1628215603	-2.7655658737	-0.5031318149	 0.107094
H	-1.5168186126	-0.7275119268	-2.0149290798	 0.108766
H	-3.7701005555	 0.0230677893	-0.5539693646	 0.295456
75.1309	181.2411	217.4428	228.5294	268.7538	336.1665	423.6143	469.878	529.7716	618.9071	688.9968	783.6429	798.0188	891.1338	962.0283	968.8324	978.0696	1024.353	1034.9	1085.8127	1103.1554	1111.5612	1161.1468	1165.8172	1219.1442	1247.4108	1300.0527	1329.6049	1377.8969	1384.6764	1413.7398	1477.7356	1501.4499	1516.6876	2981.7596	3038.6924	3072.2953	3091.6714	3166.4672	3204.5674	3746.5258	3818.1976
OCC12OCC1C2O	OC[C@]12OC[C@H]1[C@H]2O	
InChI=1S/C5H8O3/c6-2-5-3(1-8-5)4(5)7/h3-4,6-7H,1-2H2	InChI=1S/C5H8O3/c6-2-5-3(1-8-5)4(5)7/h3-4,6-7H,1-2H2/t3-,4+,5-/m0/s1
