15
gdb 11497	3.68381	1.37681	1.11851	1.8988	63.23	-0.2459	-0.0949	0.1511	1049.6602	0.116638	-399.772519	-399.764311	-399.763367	-399.806669	27.948	
O	 0.3665466743	 1.1277269143	 1.2332978119	-0.210537
C	 0.8466231258	 1.0044474565	 0.1383806879	 0.09164
C	 1.1046124316	 2.1810952335	-0.8126020305	 0.30461
O	 1.3604361322	 1.939506995	-1.9679367137	-0.270955
C	 1.0443255104	 3.5802454695	-0.2212601685	-0.24298
N	 2.345482308	 3.8212168214	 0.3968312355	-0.079582
C	 3.3593040084	 4.4363533219	-0.4571339749	-0.217082
C	 2.7022470109	 5.2174650967	 0.6283449591	-0.218164
H	 1.1040411032	 0.0232857666	-0.3137679526	 0.106925
H	 0.7948837569	 4.2936256994	-1.0222412494	 0.105135
H	 0.2788257819	 3.6147302576	 0.5595923882	 0.137112
H	 4.3698528065	 4.060209081	-0.3303647243	 0.125201
H	 3.0845498755	 4.6738245422	-1.4828116611	 0.125546
H	 1.9871494309	 5.9816687429	 0.3291955587	 0.116385
H	 3.2232440336	 5.4191585314	 1.5594364037	 0.126745
37.4264	71.3996	120.6875	142.2379	228.6236	352.0049	387.2846	480.0398	552.1921	598.1474	762.1347	806.0563	831.1923	896.225	1006.6625	1009.2479	1025.4456	1054.2133	1113.2913	1121.2862	1158.4299	1173.7393	1226.1117	1273.4685	1316.4736	1359.6948	1371.2869	1472.8253	1493.96	1522.227	1812.5043	1825.0825	2922.7757	2982.2112	3093.2611	3101.3846	3108.7737	3186.7225	3201.2862
O=CC(=O)CN1CC1	O=CC(=O)CN1CC1	
InChI=1S/C5H7NO2/c7-4-5(8)3-6-1-2-6/h4H,1-3H2	InChI=1S/C5H7NO2/c7-4-5(8)3-6-1-2-6/h4H,1-3H2
