18
gdb 17664	3.96855	1.49336	1.437	0.7725	67.56	-0.2514	0.0612	0.3126	953.0774	0.153158	-384.898622	-384.890683	-384.889739	-384.931102	29.823	
O	-0.1432481223	 1.4696130261	-0.1760384531	-0.474782
C	 0.0154847937	 0.0764445966	-0.0728287679	 0.315561
C	 1.0862329615	-0.5978294236	-0.9761118859	-0.126051
O	 1.6714842939	-1.2619614972	 0.1608061495	-0.271933
C	 0.9019862591	-0.4663375041	 1.0832523187	-0.126089
C	-1.3465209821	-0.5678502738	-0.1535510389	 0.008247
C	-2.5551924575	 0.0941167276	 0.4555367722	-0.277868
C	-2.4207674519	-0.0018235194	-1.0455796113	-0.277875
H	 0.7249172331	 1.8815387359	-0.1236350339	 0.282981
H	 0.7357013273	-1.3019552128	-1.7385328969	 0.109236
H	 1.7782778908	 0.1225105796	-1.4392214633	 0.084227
H	 1.5093483801	 0.3144395674	 1.5668047215	 0.084192
H	 0.4142290059	-1.0725036612	 1.8543648711	 0.109241
H	-1.2954034312	-1.6503158465	-0.0797751971	 0.091543
H	-3.2852437637	-0.5343701561	 0.9532956719	 0.107462
H	-2.4142036356	 1.0719051583	 0.9000653328	 0.127213
H	-2.1923079098	 0.9135526352	-1.5779851766	 0.127229
H	-3.0582672312	-0.696338832	-1.5812799527	 0.107465
79.9363	89.4344	209.6747	252.5057	279.9935	352.9164	359.8982	458.0283	499.3834	680.4893	784.9828	798.333	830.6066	875.4171	918.8417	956.5191	961.7195	1004.6772	1027.9198	1058.2541	1069.9829	1075.7311	1090.1286	1123.1074	1143.173	1145.797	1161.2115	1204.2076	1226.6138	1243.958	1290.5606	1348.903	1367.5543	1447.9912	1459.5944	1502.8671	1503.2453	1530.6103	2976.966	2988.9648	3065.8332	3067.4943	3139.4233	3141.7053	3151.3053	3224.448	3238.065	3819.7074
OC1(COC1)C1CC1	OC1(COC1)C1CC1	
InChI=1S/C6H10O2/c7-6(3-8-4-6)5-1-2-5/h5,7H,1-4H2	InChI=1S/C6H10O2/c7-6(3-8-4-6)5-1-2-5/h5,7H,1-4H2
