18
gdb 17194	3.36792	2.19612	1.60485	1.4835	72.96	-0.2169	0.0756	0.2925	846.9246	0.154427	-343.866822	-343.859741	-343.858797	-343.897653	28.219	
C	 0.063603564	 1.4729070159	-0.3067031373	-0.332456
N	 0.0354043135	 0.0370078619	-0.0328149289	-0.094628
C	-1.0422178873	-0.5025573025	 0.8938535893	-0.130193
C	-0.117963875	-1.7419253639	 1.0674972545	-0.211812
C	 0.7806132446	-0.4805999518	 1.1895640445	-0.102916
C	-0.3114512415	 0.1083905336	 2.1090204249	 0.440501
C	-0.4901812562	 1.2933689665	 2.9576911387	-0.352107
N	-0.4872656112	-0.0784729725	 3.5369227589	-0.402147
H	 1.0289517822	 1.7158347263	-0.7632919698	 0.120106
H	-0.7137033569	 1.6982680611	-1.0447559373	 0.118108
H	-0.0824801178	 2.132863798	 0.5585631053	 0.108503
H	-2.1017323757	-0.4707576981	 0.6308253409	 0.077657
H	-0.2500087409	-2.339739351	 1.9693799416	 0.105637
H	 0.0345328842	-2.3293563094	 0.1621924446	 0.103282
H	 1.8661602549	-0.4220283274	 1.2758301367	 0.083492
H	 0.3597951487	 1.9066211712	 3.2458349594	 0.123469
H	-1.4335457007	 1.8324292281	 2.9037571746	 0.114532
H	-1.4389126989	-0.3695659958	 3.7498414796	 0.230973
164.4098	190.511	231.0029	322.753	330.8356	343.5794	495.2874	577.6861	674.2721	748.9484	754.7799	800.9541	871.9335	898.3083	908.1958	936.1973	965.5674	1001.7712	1029.9516	1055.4171	1084.3037	1106.4649	1126.0916	1151.3719	1166.6728	1176.4026	1190.3567	1196.1612	1234.6688	1251.4489	1257.1682	1261.5432	1433.9818	1442.1435	1480.4696	1487.4987	1502.5489	1525.6656	3009.3328	3072.3228	3083.1297	3094.6409	3095.5403	3099.7955	3115.5726	3167.2901	3181.5069	3489.0465
CN1C2CC1C21CN1	CN1[C@H]2C[C@@H]1[C@]12CN1	
InChI=1S/C6H10N2/c1-8-4-2-5(8)6(4)3-7-6/h4-5,7H,2-3H2,1H3	InChI=1S/C6H10N2/c1-8-4-2-5(8)6(4)3-7-6/h4-5,7H,2-3H2,1H3/t4-,5+,6+
