16
gdb 17342	3.51829	2.16952	1.82841	0.5795	62.81	-0.2495	0.0775	0.327	771.4436	0.131219	-383.708548	-383.702061	-383.701116	-383.738679	26.496	
O	-0.1048576275	 1.4253858067	 0.1028037283	-0.467913
C	-0.0402703791	 0.0340270056	 0.0585239037	 0.372071
C	-0.3127134742	-0.7380319749	-1.2063084525	-0.347301
C	-1.2983899518	-0.7919221634	-0.0520264583	-0.086907
C	-1.2359014673	-1.939082215	 0.9620444293	-0.262646
C	 0.1319591267	-1.8285735306	 1.6270357263	 0.05157
O	 1.2483095603	-1.9816698757	 0.7354694788	-0.254154
C	 0.838411789	-0.6548552464	 1.0916101865	-0.047277
H	 0.6276302185	 1.7752089876	-0.4163577242	 0.285468
H	-0.629568158	-0.1516864132	-2.0626699731	 0.108431
H	 0.3025619509	-1.6022526949	-1.4244678533	 0.133533
H	-2.2478405014	-0.2916495714	-0.2040641702	 0.097264
H	-2.0128450327	-1.8074759679	 1.7237731894	 0.10922
H	-1.3857781829	-2.9252980301	 0.5093576855	 0.116359
H	 0.2895640042	-2.2243849037	 2.6279351512	 0.096605
H	 1.5562078954	-0.0610499127	 1.6515432726	 0.095676
208.5755	272.0175	305.0372	355.3101	379.8171	431.5803	512.8221	597.1702	700.4341	736.8395	808.7239	837.1557	859.0501	890.9044	916.5036	936.6406	971.0461	1006.8993	1054.451	1064.2108	1085.7033	1097.6974	1114.1563	1210.7779	1223.4044	1254.6674	1263.9487	1298.0323	1329.9497	1336.8601	1402.2054	1421.5688	1473.8476	1483.9056	3041.6871	3080.6634	3135.5327	3136.3525	3154.7238	3178.7995	3234.1053	3794.6217
OC12CC1CC1OC21	O[C@]12C[C@H]1C[C@H]1O[C@@H]21	
InChI=1S/C6H8O2/c7-6-2-3(6)1-4-5(6)8-4/h3-5,7H,1-2H2	InChI=1S/C6H8O2/c7-6-2-3(6)1-4-5(6)8-4/h3-5,7H,1-2H2/t3-,4-,5-,6-/m1/s1
