20
gdb 40709	4.1458	1.01406	0.98095	0.9578	78.98	-0.223	0.0717	0.2946	1293.8785	0.171238	-403.081589	-403.073204	-403.072259	-403.115463	32.137	
C	 1.2724151642	 0.6624151912	 0.2457980806	-0.234501
N	 0.5929253402	 0.0416505791	-0.90465961	-0.317959
C	-0.1657161274	 0.3161204663	 0.3257973542	-0.025721
C	-0.6997258834	-0.8832796896	 1.0683069491	 0.148611
C	 0.2069213877	-2.1173551765	 1.2578354266	-0.39183
C	 0.0801018503	-1.7917115037	 2.7407361943	 0.472879
C	-0.1348047185	-2.6904908281	 3.9116980155	-0.334918
C	 1.1020548592	-1.8008067673	 3.8281727395	-0.331597
O	-0.7546563613	-0.6546938294	 2.5045171564	-0.325276
H	 2.0198324067	 0.0405812336	 0.7290565893	 0.122334
H	 1.5321577964	 1.7164556815	 0.1962078505	 0.11314
H	 0.386212159	 0.7394127188	-1.6136783171	 0.234592
H	-0.8571837808	 1.1577759501	 0.3151677732	 0.088932
H	-1.6996907187	-1.1276614694	 0.6872500897	 0.076758
H	-0.2400522419	-3.0623646915	 0.9450376039	 0.111554
H	 1.2065536935	-2.037095412	 0.8292147878	 0.123679
H	-0.9055382338	-2.402788271	 4.6187938245	 0.12294
H	-0.0170656455	-3.7610305032	 3.7757641242	 0.11229
H	 2.0649906908	-2.2635705034	 3.63545503	 0.111671
H	 1.1349006034	-0.9344227756	 4.4802001877	 0.122421
43.3258	67.2964	170.6605	238.7233	298.7308	301.4461	420.6942	450.7427	514.9502	600.3652	746.6454	758.3826	828.6215	868.5296	877.7011	894.5569	899.9867	913.5182	929.4202	963.2946	992.6456	1002.9021	1047.6315	1049.0721	1065.4442	1066.4557	1114.6517	1130.825	1148.0783	1186.8732	1202.0065	1217.6253	1243.1505	1264.8545	1284.0168	1318.987	1367.4534	1407.8891	1441.1867	1448.0415	1492.1505	1508.096	1522.7115	3016.0838	3084.2633	3112.1236	3117.1381	3124.4579	3127.2858	3135.4764	3196.497	3208.1648	3222.5696	3510.5412
C1NC1C1CC2(CC2)O1	C1N[C@H]1[C@H]1CC2(CC2)O1	
InChI=1S/C7H11NO/c1-2-7(1)3-6(9-7)5-4-8-5/h5-6,8H,1-4H2	InChI=1S/C7H11NO/c1-2-7(1)3-6(9-7)5-4-8-5/h5-6,8H,1-4H2/t5-,6-/m1/s1
