17
gdb 52884	2.91589	1.00061	0.81454	3.4534	77.98	-0.2508	0.0255	0.2763	1431.121	0.13298	-421.750113	-421.740651	-421.739706	-421.7867	32.775	
C	-0.5740044322	 1.6375692507	-0.1028387728	-0.50501
C	-0.3106387609	 0.2075809331	-0.0579648065	 0.152499
C	-0.1025702601	-0.9776662291	-0.0053929541	-0.00358
C	 0.1655331683	-2.3948915738	-0.0062933784	 0.219856
C	 0.3564965478	-3.1365238299	 1.2562245721	-0.2236
O	-0.8674654786	-3.2419955899	 0.5335336307	-0.271683
C	 0.7983597702	-2.9093763653	-1.2727226061	-0.048287
C	 2.2564869522	-2.9910012664	-1.4169071197	-0.166522
O	 1.4652501837	-4.1628028529	-1.1993714465	-0.220695
H	-0.001717188	 2.1729137673	 0.6626065123	 0.152704
H	-0.3045885347	 2.059041574	-1.0772863992	 0.152994
H	-1.6357561321	 1.8462828775	 0.0675749074	 0.15771
H	 0.9816434336	-4.0261355403	 1.2413483976	 0.135958
H	 0.3015478575	-2.5906851425	 2.1962216982	 0.116982
H	 0.191030047	-2.7669931197	-2.1665105369	 0.110482
H	 2.7069676837	-2.9063956628	-2.4039834519	 0.122415
H	 2.8915990326	-2.6968280099	-0.5830124263	 0.117778
14.037	63.0574	91.6905	135.8251	216.9828	251.1865	305.7755	318.6522	415.8321	449.5924	522.8177	574.2406	649.4229	815.7053	845.6065	887.3674	910.7349	954.2297	1026.8474	1050.9102	1053.1492	1072.0513	1097.973	1136.72	1155.6365	1167.7188	1177.5525	1269.2493	1283.8142	1376.9456	1413.1912	1427.8911	1475.3861	1476.5666	1504.7928	1527.1461	2368.9756	3029.2396	3089.8905	3091.3004	3092.9787	3093.8007	3115.6566	3180.1135	3193.3136
CC#CC1(CO1)C1CO1	CC#C[C@]1(CO1)[C@H]1CO1	
InChI=1S/C7H8O2/c1-2-3-7(5-9-7)6-4-8-6/h6H,4-5H2,1H3	InChI=1S/C7H8O2/c1-2-3-7(5-9-7)6-4-8-6/h6H,4-5H2,1H3/t6-,7+/m1/s1
