18
gdb 88382	2.14994	1.42235	1.19835	3.6899	71.9	-0.2819	0.0139	0.2958	1143.148	0.144354	-439.074957	-439.065036	-439.064092	-439.11012	35.784	
C	-1.6657579675	-1.0412117522	 2.7331041598	-0.451119
C	-0.843959857	-1.0712653418	 1.4709417478	 0.06775
O	-0.6989822797	 0.1374910052	 0.7027969278	-0.264535
C	 0.4774494963	-0.464490316	 1.2361729246	 0.028257
C	 1.35203655	 0.3775650471	 2.1629895163	 0.158504
C	 2.3315544299	-0.5129046787	 2.9355892083	-0.402666
O	 2.146988512	 1.2426741677	 1.3560681786	-0.43587
C	 0.5769297426	 1.2134115659	 3.1094472995	 0.27959
N	 0.0262476215	 1.9034032928	 3.8547850016	-0.347171
H	-1.4722871268	-0.1619615567	 3.3449402581	 0.169592
H	-2.7292537349	-1.0516571361	 2.4732781756	 0.136034
H	-1.4625635	-1.939808213	 3.3260975621	 0.125389
H	-1.0513743947	-1.9385033467	 0.839259253	 0.098425
H	 1.1169877522	-0.9384100501	 0.4873097706	 0.106665
H	 2.8967833897	-1.1219154512	 2.2255496273	 0.13679
H	 3.0307154477	 0.1097708016	 3.4967835204	 0.152296
H	 1.7967050974	-1.1674358841	 3.6271621362	 0.138772
H	 1.5487212513	 1.7836915164	 0.8252255722	 0.303295
29.5572	141.0869	150.7206	192.9701	196.2236	222.3028	236.6733	326.6903	360.6799	397.1381	398.7794	448.4128	524.4615	608.9466	650.8379	686.9313	781.8568	859.0996	933.6252	945.5387	999.1823	1042.5277	1064.579	1097.1644	1157.5164	1168.2755	1179.3452	1241.3381	1325.0396	1359.276	1398.2528	1407.9159	1422.3604	1465.0192	1478.8329	1491.448	1496.9159	1511.0487	2355.58	3044.1705	3057.3676	3073.9206	3086.7335	3100.6115	3138.2601	3147.7307	3174.5208	3786.6292
CC1OC1C(C)(O)C#N	C[C@H]1O[C@H]1[C@@](C)(O)C#N	
InChI=1S/C6H9NO2/c1-4-5(9-4)6(2,8)3-7/h4-5,8H,1-2H3	InChI=1S/C6H9NO2/c1-4-5(9-4)6(2,8)3-7/h4-5,8H,1-2H3/t4-,5-,6+/m1/s1
