19
gdb 37464	2.72909	2.1199	1.80003	2.6103	76.25	-0.2091	0.0664	0.2755	861.398	0.164156	-382.018702	-382.012562	-382.011617	-382.048778	26.889	
C	-0.0170293802	 1.5844370104	 0.0354183339	-0.203679
C	 1.4565300469	 2.0113744316	-0.1973520523	-0.149061
N	 2.1489007014	 0.8564034331	-0.815502423	-0.110621
C	 2.4256688643	-0.3865440829	-0.0638299044	-0.031691
C	 1.9705080109	-0.692214512	 1.3527946685	-0.03893
N	 1.3978154517	 0.4043028069	 2.1654454616	-0.338119
C	 0.5047872591	-0.5086125632	 1.4119029637	-0.051372
C	 0.0388243012	 0.0379487011	 0.0451444205	-0.058233
C	 1.2116568638	-0.2566962958	-0.9274310768	-0.070889
H	-0.4264524117	 1.9905993134	 0.9630446857	 0.104954
H	-0.6453936925	 1.9259056218	-0.7938513871	 0.09156
H	 1.5214729683	 2.8372569437	-0.913590451	 0.092276
H	 1.9483234407	 2.3121272125	 0.7257713479	 0.13094
H	 3.3356655456	-0.880797358	-0.3932760962	 0.086485
H	 2.4786121792	-1.5057699706	 1.8612205794	 0.083354
H	 1.4090511465	 0.1281458671	 3.1450839442	 0.22934
H	-0.1454186154	-1.1725470454	 1.9726190419	 0.084839
H	-0.9030090626	-0.4226399682	-0.2591139916	 0.067944
H	 1.0575190527	-0.7271713154	-1.8952645449	 0.080904
215.2425	285.1231	299.3113	470.2354	566.1421	585.6189	658.8904	705.8714	725.4793	779.4948	791.2445	840.1653	857.1472	864.6199	876.4745	908.7214	924.9515	938.8858	970.2406	1004.4045	1024.2232	1045.0574	1077.7861	1093.147	1103.4883	1139.2972	1166.2853	1196.042	1215.6302	1239.4152	1254.7115	1275.0932	1298.3077	1310.2878	1327.8273	1350.5836	1364.6777	1383.617	1424.0424	1479.8204	1501.4677	3039.5131	3053.277	3093.0337	3107.7303	3131.0745	3140.2126	3148.4748	3153.3134	3164.1287	3486.1198
C1CN2C3C4NC4C1C23	C1CN2[C@H]3[C@H]4N[C@H]4[C@@H]1[C@@H]23	
InChI=1S/C7H10N2/c1-2-9-6-3(1)4-5(8-4)7(6)9/h3-8H,1-2H2	InChI=1S/C7H10N2/c1-2-9-6-3(1)4-5(8-4)7(6)9/h3-8H,1-2H2/t3-,4+,5+,6-,7+,9?/m1/s1
