21
gdb 120145	2.80723	1.20631	1.01859	1.9477	78.73	-0.2467	0.072	0.3187	1274.023	0.182151	-424.187777	-424.178664	-424.17772	-424.222079	34.386	
C	 0.1018956462	 1.4935339665	 0.2542910125	-0.393032
C	-0.0784761203	 0.0078535954	 0.5115363771	-0.051675
O	 1.1751840935	-0.5374291165	 0.9168366763	-0.273695
C	 1.1188200246	-1.9244786856	 1.1230915778	 0.136808
C	 2.2072230996	-2.6295415963	 1.8473928606	-0.123519
C	 2.7687130867	-1.7590876876	 2.9737330215	-0.27414
C	 1.3333157756	-1.6672566431	 3.5957739617	 0.141693
O	 0.7693782075	-0.3977793655	 3.8141469473	-0.443075
C	 0.7751175657	-2.5312421428	 2.4515874936	-0.15004
H	 0.8602285648	 1.6613165841	-0.5155666233	 0.130702
H	-0.8406090717	 1.9356019372	-0.0819675528	 0.120971
H	 0.417159464	 2.015174097	 1.1633011351	 0.126994
H	-0.8319200648	-0.1701879008	 1.2934944942	 0.107601
H	-0.4234479291	-0.5028933172	-0.4009810475	 0.095652
H	 0.7177784535	-2.4659934405	 0.2647874391	 0.088401
H	 2.7038693481	-3.4916548603	 1.4188531271	 0.08955
H	 3.4731195808	-2.2869910828	 3.6198964941	 0.103334
H	 3.2114010614	-0.8085162056	 2.6647169324	 0.10613
H	 1.2820106052	-2.1928250266	 4.552122968	 0.090139
H	 0.9119624839	 0.0920564093	 2.9953145007	 0.289414
H	 0.0108492348	-3.2933228684	 2.5560138743	 0.081785
66.6776	85.4316	118.7798	165.5582	241.347	274.5519	334.3214	403.6052	459.406	496.1396	533.9005	640.1364	745.8501	758.8581	814.4254	823.6115	848.3228	903.4811	937.1403	966.5834	998.0674	1005.8	1038.6361	1055.8659	1080.7884	1098.0036	1115.4426	1145.4178	1152.0442	1187.1335	1210.5037	1235.6633	1268.2137	1295.7144	1298.1451	1315.0184	1347.677	1392.0507	1413.668	1448.7114	1460.9648	1484.8341	1487.319	1498.6218	1526.9758	2980.07	3014.1119	3043.4231	3062.7622	3083.0581	3093.1577	3114.491	3118.2804	3122.9205	3169.4652	3186.3519	3787.6248
CCOC1C2CC(O)C12	CCO[C@H]1[C@H]2C[C@@H](O)[C@@H]12	
InChI=1S/C7H12O2/c1-2-9-7-4-3-5(8)6(4)7/h4-8H,2-3H2,1H3	InChI=1S/C7H12O2/c1-2-9-7-4-3-5(8)6(4)7/h4-8H,2-3H2,1H3/t4-,5+,6-,7-/m0/s1
