15
gdb 80781	2.02217	1.85058	1.16398	2.8975	74.26	-0.2524	-0.0218	0.2306	1062.0992	0.109523	-420.533454	-420.525164	-420.52422	-420.566202	31.107	
C	-0.0832655691	 1.5460209285	 0.0196907391	-0.437465
C	-0.031926272	 0.0292491399	-0.0212438503	-0.019604
C	 1.24359221	-0.642071771	-0.6040741784	-0.100878
O	 1.9901754674	-0.2420323366	 0.6156182955	-0.325795
C	 0.6726591192	-0.6964065145	 1.1763777982	 0.187334
C	 0.4189524941	-0.6095732959	 2.5718413816	 0.059109
C	 0.1663941246	-0.5608401051	 3.7464998904	-0.336388
C	 0.8959409552	-1.9137768525	 0.2034618585	 0.451146
O	 0.9202283314	-3.0954940987	 0.1752542159	-0.29875
H	 0.8811848591	 1.9596444322	 0.3192766888	 0.146414
H	-0.3480939827	 1.9454036526	-0.9642345402	 0.125055
H	-0.8430146875	 1.880499685	 0.7325908474	 0.132936
H	-0.9817500363	-0.4206738891	-0.3290639532	 0.097943
H	 1.7365687381	-0.5012646645	-1.5623022977	 0.121681
H	-0.0489299315	-0.5215711203	 4.7861202942	 0.197262
109.7713	143.6251	162.7789	229.2915	241.125	312.3846	363.3077	482.3725	537.4154	554.7049	617.0959	622.3369	694.9298	750.6389	766.2661	784.9951	802.5489	872.3672	914.6524	991.5741	1053.4862	1067.5623	1107.2273	1168.7498	1202.1149	1214.9204	1309.8692	1388.8953	1405.6061	1494.1758	1501.8408	1942.7272	2236.9707	3045.8392	3061.6745	3108.3304	3142.8909	3169.3611	3498.5038
CC1C2OC1(C#C)C2=O	C[C@H]1[C@H]2O[C@]1(C#C)C2=O	
InChI=1S/C7H6O2/c1-3-7-4(2)5(9-7)6(7)8/h1,4-5H,2H3	InChI=1S/C7H6O2/c1-3-7-4(2)5(9-7)6(7)8/h1,4-5H,2H3/t4-,5+,7-/m0/s1
