13
gdb 66413	2.3653	1.56342	1.28744	3.5883	64.8	-0.258	-0.0167	0.2413	998.5647	0.086522	-456.506754	-456.498779	-456.497835	-456.539283	29.666	
O	-0.0852306259	 1.4770094195	 0.0398070696	-0.432032
C	-0.0257336141	 0.1156209662	-0.0260715461	 0.171133
C	-1.1221883119	-0.9031605969	-0.1009287409	 0.034943
O	-0.383179335	-1.695222479	-1.0616900165	-0.249867
C	 0.6247623223	-0.7334075282	-1.1126163613	 0.402788
O	 1.5633112549	-0.693863868	-1.8322562532	-0.317379
C	-0.3423142733	-0.8154204781	 1.1847664311	-0.336211
C	 0.5263903736	-1.8457542014	 1.6698691553	 0.334909
C	 1.264334384	-2.69845972	 2.0853605565	-0.411121
H	 0.7073674357	 1.803295146	 0.4824588365	 0.309537
H	-2.1918766943	-0.8209482408	-0.2291351638	 0.147214
H	-0.86628824	-0.2371160131	 1.9451383382	 0.138908
H	 1.9139867941	-3.4588690862	 2.4428629045	 0.207178
96.3777	131.6522	204.4329	246.1592	304.1003	336.9692	365.5236	484.2436	509.5798	615.2569	636.5379	670.8214	678.1867	735.4285	767.4926	832.233	914.3757	932.2158	946.9979	1005.6383	1049.7403	1085.3714	1186.5161	1260.9954	1300.0968	1339.8786	1490.6658	1957.2306	2242.546	3126.1834	3232.1108	3502.195	3791.176
OC12C(OC1=O)C2C#C	O[C@@]12[C@@H](OC1=O)[C@H]2C#C	
InChI=1S/C6H4O3/c1-2-3-4-6(3,8)5(7)9-4/h1,3-4,8H	InChI=1S/C6H4O3/c1-2-3-4-6(3,8)5(7)9-4/h1,3-4,8H/t3-,4+,6+/m1/s1
