19
gdb 37071	3.1691	1.66366	1.42419	1.9759	73.47	-0.2324	0.0819	0.3143	968.4672	0.162046	-423.012325	-423.005321	-423.004377	-423.043374	28.718	
C	 0.0398849387	 1.4368239309	-0.0572602107	-0.401492
C	 1.385306712	 0.7263728029	 0.006688383	 0.226252
C	 1.9985082628	 0.4874167967	 1.3730238524	-0.328585
C	 0.816479142	-0.1205007839	 2.1816336273	-0.098747
O	-0.0785442051	-0.7194938866	 1.2346268566	-0.304756
C	 0.1054683968	-0.0646976826	 0.0167391496	 0.391793
C	 0.0705479839	-0.8504775519	-1.2730526231	-0.154402
O	 0.9943429693	-0.1692960848	-2.1264324153	-0.262398
C	 2.0360327834	 0.4003186584	-1.3206331555	-0.157333
H	-0.2932247909	 1.9812756392	 0.8190802649	 0.115773
H	-0.2425224482	 1.8806838684	-1.0063312588	 0.126764
H	 2.8182014461	-0.2336037942	 1.2798621685	 0.109298
H	 2.3948105906	 1.3809126045	 1.8645786751	 0.108939
H	 1.1241144668	-0.8944886717	 2.8900586216	 0.114915
H	 0.2919292725	 0.6625608216	 2.7455971091	 0.104845
H	 0.3797216132	-1.8867940563	-1.0647336401	 0.099326
H	-0.8909816371	-0.86488101	-1.7943363661	 0.110952
H	 2.4266825556	 1.2566253909	-1.8795231289	 0.108823
H	 2.8581215373	-0.3178721315	-1.1654083097	 0.090033
184.7614	201.1955	238.3925	326.3935	356.3898	416.549	529.0259	576.0808	607.7455	697.286	732.1161	816.5152	855.3685	883.1565	917.8371	923.8713	935.3115	942.6025	1018.167	1022.1327	1044.0851	1058.0983	1083.5782	1091.527	1167.5036	1201.9316	1222.7592	1234.8851	1243.9814	1257.3457	1277.9154	1320.4084	1356.6457	1367.5382	1396.9765	1405.3848	1470.8728	1492.4401	1509.8702	1521.4187	1524.9317	2968.6289	2988.4877	3011.401	3042.6365	3070.7568	3082.8072	3083.4108	3094.9157	3132.412	3223.4246
C1C23CCOC12COC3	C1[C@@]23CCO[C@@]12COC3	
InChI=1S/C7H10O2/c1-2-9-7-3-6(1,7)4-8-5-7/h1-5H2	InChI=1S/C7H10O2/c1-2-9-7-3-6(1,7)4-8-5-7/h1-5H2/t6-,7-/m1/s1
