18
gdb 12932	3.36183	1.55016	1.29886	0.9779	67.44	-0.245	0.0723	0.3174	988.1457	0.153393	-384.896591	-384.888422	-384.887478	-384.929052	30.89	
O	 0.1312495657	 1.2788603877	-0.3554941975	-0.41978
C	 0.0654654185	-0.026044233	 0.2057791402	-0.086167
C	-1.3260426908	-0.6094319977	 0.1261663123	-0.108205
C	-1.9386050375	-1.2124445121	-1.1334945596	-0.141539
C	-0.9095148641	-2.0409324479	-1.9158505435	-0.227942
C	-0.6883152223	-2.9375451823	-0.6534585831	-0.294855
C	-1.698655082	-2.0664937783	 0.1079393592	 0.372826
O	-2.6580360474	-2.589891554	 0.958224626	-0.460205
H	-0.2542824839	 1.2261460206	-1.2365547994	 0.282669
H	 0.7995389827	-0.6961548689	-0.2649358377	 0.08958
H	 0.3676198413	 0.0901175278	 1.252722313	 0.105399
H	-2.0661448818	-0.0269979696	 0.6722515103	 0.095386
H	-2.8752262768	-0.8370236212	-1.5273375459	 0.094031
H	-1.3538459241	-2.5937531116	-2.7456532407	 0.109405
H	-0.0334046248	-1.5034366649	-2.2920554077	 0.09656
H	-1.083453201	-3.9449485531	-0.8008274829	 0.113134
H	 0.3252546197	-3.0119943274	-0.2469833837	 0.093901
H	-2.3361296415	-2.519880734	 1.8634215608	 0.285802
74.5708	165.1775	205.4831	245.9763	271.6944	304.3398	337.3436	393.4308	486.257	546.8849	630.2897	722.5528	792.2545	829.1776	897.4168	919.0019	952.8518	966.8334	1019.119	1030.1552	1055.405	1081.791	1124.575	1139.816	1194.9399	1217.6296	1220.6371	1233.3987	1248.963	1293.5204	1316.9689	1327.0539	1375.0194	1421.1409	1469.6688	1481.5987	1506.2594	1520.368	2999.7335	3047.738	3055.4105	3060.4385	3102.163	3119.9638	3133.7713	3187.2991	3798.0598	3807.412
OCC1C2CCC12O	OC[C@H]1[C@H]2CC[C@@]12O	
InChI=1S/C6H10O2/c7-3-5-4-1-2-6(4,5)8/h4-5,7-8H,1-3H2	InChI=1S/C6H10O2/c7-3-5-4-1-2-6(4,5)8/h4-5,7-8H,1-3H2/t4-,5+,6+/m1/s1
