19
gdb 65350	3.01201	1.03472	0.99962	4.7557	82.11	-0.2527	0.0254	0.2781	1301.2953	0.158122	-382.039293	-382.030169	-382.029224	-382.073455	33.919	
C	-0.0591052397	 1.5963982385	-0.2251018743	-0.461568
C	 0.0367163507	 0.0902504942	-0.0460517003	 0.145079
C	 1.3541323537	-0.6154364947	-0.2200679038	-0.274201
N	 0.7403957984	-0.5321283408	 1.0899503498	-0.102502
C	 1.3373771962	 0.2957075569	 2.1017542506	 0.066595
C	 0.5962804788	 0.4145994518	 3.4058701514	-0.274608
C	 1.8519597946	-0.4179165046	 3.3242375991	-0.276111
C	-1.1730698126	-0.6177212471	-0.4256699683	 0.270039
N	-2.1433886768	-1.1572593674	-0.7482048307	-0.341966
H	 0.8981356763	 2.0815483556	-0.027605251	 0.128998
H	-0.3527672102	 1.8313808477	-1.2519286654	 0.145118
H	-0.8104102215	 2.0204865691	 0.447359563	 0.146526
H	 1.3954550505	-1.6026908503	-0.6710689199	 0.136286
H	 2.2063760365	 0.028497028	-0.4359625925	 0.118637
H	 1.9056302778	 1.1642171738	 1.7682597765	 0.079343
H	 0.6311956874	 1.3639925397	 3.9278009355	 0.116627
H	-0.3468885596	-0.113964203	 3.4776292485	 0.132135
H	 1.737330263	-1.4950557135	 3.3398324204	 0.129811
H	 2.7573556064	-0.0435301937	 3.7881448613	 0.115761
63.153	102.5505	138.3848	177.9971	227.2568	271.2588	328.021	358.1016	422.4971	467.9623	570.8247	588.5946	688.256	732.6026	787.4464	830.509	864.3187	902.8024	936.5504	966.5445	981.9792	1060.0495	1077.1616	1081.4654	1098.3201	1106.9659	1126.3753	1131.9623	1197.4311	1217.2309	1239.0888	1259.5086	1360.0082	1395.6037	1417.643	1457.7692	1486.0351	1495.1406	1496.2438	1508.3604	2355.2209	3050.7571	3088.3305	3090.9148	3118.2377	3139.6454	3142.2444	3146.326	3186.8274	3227.9618	3241.276
CC1(CN1C1CC1)C#N	C[C@]1(CN1C1CC1)C#N	
InChI=1S/C7H10N2/c1-7(4-8)5-9(7)6-2-3-6/h6H,2-3,5H2,1H3	InChI=1S/C7H10N2/c1-7(4-8)5-9(7)6-2-3-6/h6H,2-3,5H2,1H3/t7-,9?/m1/s1
