18
gdb 7805	3.40882	1.79089	1.23247	3.8578	69.46	-0.2226	0.0337	0.2563	981.7452	0.156088	-381.153136	-381.14548	-381.144536	-381.185026	28.838	
C	-0.0225841576	 1.4705045788	 0.0214583644	-0.316204
N	-0.0292873125	 0.0179031038	-0.0018503795	-0.075603
C	-1.3602956154	-0.5404776296	-0.1751700505	-0.138936
C	-1.2420910922	-2.0315200307	-0.4676428182	-0.158544
N	-0.4210296592	-2.6726340199	 0.5469966706	-0.309648
C	 0.5545696144	-2.0611567317	 1.2787019309	 0.385873
O	 1.3041765685	-2.6744578672	 2.0150161242	-0.37471
C	 0.6110793898	-0.5386246587	 1.1830875417	-0.253053
H	 1.0073841754	 1.8319001904	 0.1018915078	 0.124671
H	-0.4482190154	 1.8592570756	-0.9088119359	 0.119211
H	-0.5970583358	 1.8941667829	 0.8676398404	 0.094954
H	-2.0004695201	-0.3809331617	 0.7158313218	 0.084654
H	-1.8484410059	-0.0484248688	-1.0220789447	 0.107088
H	-2.2366444225	-2.4912350877	-0.4678247338	 0.109909
H	-0.8066684626	-2.168074798	-1.4673472951	 0.114923
H	-0.4041629712	-3.6811791959	 0.5968856531	 0.246577
H	 1.6677449058	-0.2585886709	 1.2030316858	 0.134584
H	 0.1617001965	-0.1523110806	 2.121229977	 0.104254
106.1915	136.5977	222.6061	256.3779	326.2228	364.2362	439.122	460.7802	501.9517	531.2409	656.3749	678.0366	811.1587	859.4446	950.9324	981.3381	1031.3251	1075.3197	1100.3811	1112.826	1159.708	1173.7785	1212.5455	1258.8368	1292.7717	1319.7345	1338.7296	1375.8625	1401.2101	1407.8326	1458.27	1471.9965	1483.4052	1489.495	1503.634	1506.5183	1522.6581	1796.5429	2896.3015	2905.1091	2927.8218	3005.3114	3061.3975	3061.8578	3076.7321	3090.7921	3106.6322	3606.9049
CN1CCNC(=O)C1	CN1CCNC(=O)C1	
InChI=1S/C5H10N2O/c1-7-3-2-6-5(8)4-7/h2-4H2,1H3,(H,6,8)	InChI=1S/C5H10N2O/c1-7-3-2-6-5(8)4-7/h2-4H2,1H3,(H,6,8)
