20
gdb 111522	4.87108	0.89805	0.85175	2.3975	80.34	-0.234	0.0759	0.3099	1429.3775	0.170124	-403.080976	-403.072367	-403.071423	-403.114393	32.785	
C	-0.2531219602	 1.4200175355	-0.1522638828	-0.377523
C	 0.2649460091	-0.0053602712	 0.0669338056	-0.211594
C	 0.9056185735	-0.5791735262	-1.1764324233	 0.0225
C	 0.8885270503	-2.0396655405	-1.4239027031	-0.166095
N	-0.0434896457	-1.0970074564	-2.1800050533	-0.139737
C	 0.7632404364	-1.3554501453	-3.4302884285	-0.261427
C	 1.6508491352	-2.3572781711	-2.6863141987	 0.454401
C	 3.0040820183	-2.8701986932	-2.903753608	-0.271692
O	 1.8397545885	-3.6772086352	-3.1527395318	-0.272988
H	 0.5612247946	 2.1013194755	-0.4232937139	 0.110631
H	-0.9903523153	 1.4373119804	-0.9600663285	 0.135484
H	-0.7266749551	 1.8115959199	 0.7528555243	 0.113139
H	 0.9977976954	-0.0220751573	 0.8836266904	 0.09854
H	-0.5613906863	-0.6588313966	 0.3681881075	 0.108679
H	 1.7615365428	-0.0141274324	-1.5516122646	 0.079213
H	 0.5222526127	-2.7674103688	-0.7067749122	 0.106334
H	 0.1450528164	-1.8441777029	-4.186724338	 0.13016
H	 1.2300485941	-0.4592946866	-3.8526050775	 0.107361
H	 3.5612493446	-2.5742139679	-3.7917392126	 0.117316
H	 3.6116949507	-3.1776229596	-2.0535473511	 0.117297
72.0467	127.0295	149.9317	210.948	269.0447	301.7909	337.4761	417.3128	449.2913	495.5406	580.1686	726.0536	806.325	832.0033	843.703	867.8258	884.2951	928.5487	961.6907	995.3247	1025.683	1036.0753	1055.9582	1104.645	1120.7356	1137.1806	1139.8444	1156.6986	1178.7541	1199.1437	1222.7569	1274.0733	1293.5699	1301.8375	1354.2736	1407.2453	1433.3298	1455.9275	1477.6796	1486.8022	1498.2725	1508.2411	1537.256	3028.6741	3035.0018	3046.1069	3066.1531	3080.1683	3084.5139	3103.1052	3116.1312	3118.3706	3167.1248	3168.006
CCC1C2N1CC21CO1	CC[C@H]1[C@H]2N1C[C@]12CO1	
InChI=1S/C7H11NO/c1-2-5-6-7(4-9-7)3-8(5)6/h5-6H,2-4H2,1H3	InChI=1S/C7H11NO/c1-2-5-6-7(4-9-7)3-8(5)6/h5-6H,2-4H2,1H3/t5-,6+,7+,8?/m0/s1
