15
gdb 49542	2.22812	1.89882	1.20624	6.1581	71.51	-0.2505	-0.0023	0.2482	1004.3764	0.112822	-416.761911	-416.754394	-416.753449	-416.794214	27.859	
O	 0.1256978504	 0.0494121086	 0.477225492	-0.305261
C	 0.0925039497	 1.2339188977	 0.240822882	 0.135933
N	 1.1129609687	 1.9251944003	-0.3745796635	-0.064568
C	 2.5836078891	 1.692887181	-0.1961487464	-0.038955
C	 2.791740998	 2.9372688831	-1.1079608657	-0.224953
C	 1.6635943583	 3.2967497247	-0.0994771025	-0.048127
C	 2.577668686	 2.6890820523	 1.0260384681	-0.139998
C	 1.967165478	 2.3042145158	 2.2847577026	 0.279666
N	 1.4911618448	 2.0418809541	 3.3048984752	-0.31588
H	-0.8030926329	 1.8685599898	 0.3907618328	 0.085054
H	 3.0255890108	 0.7015272125	-0.2474352578	 0.13613
H	 3.7348227674	 3.4751020294	-1.0078543719	 0.117246
H	 2.4704086437	 2.814660532	-2.1405681913	 0.131792
H	 1.0356188328	 4.1841936991	-0.0426262021	 0.121721
H	 3.5188264351	 3.2155734396	 1.2040458584	 0.130201
97.1222	142.9012	166.1406	219.8033	288.1983	447.4605	464.3165	523.5746	575.7993	683.2075	753.2903	771.7611	845.341	885.0992	893.742	964.3296	1015.454	1030.5891	1056.4758	1079.5955	1096.6551	1116.0451	1129.5787	1187.2635	1209.6312	1227.8759	1244.7385	1353.2178	1368.5668	1416.5679	1500.9817	1793.469	2358.7367	2942.4981	3083.3147	3096.1877	3143.8534	3170.4348	3179.5281
O=CN1C2CC1C2C#N	O=CN1[C@H]2C[C@@H]1[C@H]2C#N	
InChI=1S/C6H6N2O/c7-2-4-5-1-6(4)8(5)3-9/h3-6H,1H2	InChI=1S/C6H6N2O/c7-2-4-5-1-6(4)8(5)3-9/h3-6H,1H2/t4-,5-,6+
