18
gdb 98312	3.11703	1.00575	0.85945	1.731	68.73	-0.2535	-0.046	0.2075	1355.3132	0.146153	-476.198946	-476.189552	-476.188608	-476.23406	33.768	
O	 0.0349439257	 1.3781688158	-0.131354423	-0.418041
C	-0.034008609	-0.0071221739	-0.2954119805	-0.135703
C	-1.4183923704	-0.5408645415	 0.0136503854	 0.343242
O	-2.3317240157	 0.2348916424	 0.2224722091	-0.344091
C	-1.6817219446	-2.0467715405	 0.0817593963	-0.008379
O	-3.045440755	-2.2690737489	 0.3220341821	-0.433652
C	-1.230890274	-2.7575308854	-1.191530727	-0.009967
C	-1.9279987994	-3.9856890933	-1.6334618222	-0.241464
N	-2.0924382997	-2.7198863809	-2.3773099224	-0.317677
H	-0.8773282553	 1.6750749609	 0.0035257592	 0.298286
H	 0.2111901958	-0.3067786686	-1.3289975384	 0.139089
H	 0.6975751423	-0.5120660366	 0.3538224844	 0.125942
H	-1.0734170492	-2.4308923845	 0.9208882442	 0.107195
H	-3.432874711	-1.3902935547	 0.4656249795	 0.301871
H	-0.1678210909	-2.6581203632	-1.4021087397	 0.099839
H	-1.3735679119	-4.7580461787	-2.158133287	 0.120551
H	-2.7604909224	-4.3305705479	-1.0295997161	 0.136961
H	-2.9867219053	-2.3161378406	-2.1006226339	 0.235998
57.9921	62.7334	106.5881	155.1396	237.3253	272.9413	340.0444	347.2812	381.9758	428.2949	489.8057	522.6243	644.3742	740.1535	775.0804	856.9065	864.5746	945.6599	970.8839	995.495	1041.8904	1058.8285	1109.9214	1141.5079	1147.1739	1175.3873	1207.4619	1242.2473	1266.8477	1277.3963	1312.9695	1315.8554	1352.5629	1390.1235	1438.6747	1448.6569	1486.8556	1501.9468	1776.4657	2943.9056	2968.5597	3008.361	3121.7652	3128.4137	3217.6185	3477.4427	3678.6167	3720.5731
OCC(=O)C(O)C1CN1	OCC(=O)[C@@H](O)[C@H]1CN1	
InChI=1S/C5H9NO3/c7-2-4(8)5(9)3-1-6-3/h3,5-7,9H,1-2H2	InChI=1S/C5H9NO3/c7-2-4(8)5(9)3-1-6-3/h3,5-7,9H,1-2H2/t3-,5+/m1/s1
