19
gdb 10484	2.56774	1.65235	1.21601	3.8915	75.05	-0.2893	0.0332	0.3224	1063.1287	0.164975	-327.93876	-327.930016	-327.929071	-327.972294	32.142	
C	 0.2290270536	-1.0104138883	 1.8524916514	-0.386276
C	 0.0284853554	-0.5051887687	 0.4182416364	-0.262217
C	-1.3833439995	-0.6914381578	-0.1193195551	 0.391224
C	-2.4807539669	 0.082985608	 0.6111532756	-0.420163
C	-2.2876754499	 1.5340403397	 0.549920476	 0.271584
N	-2.1188572284	 2.6761079712	 0.4973924884	-0.315183
C	-1.5645467509	-0.8849355902	-1.6039492188	-0.30695
C	-1.7723477535	-2.0465053806	-0.660366562	-0.317925
H	 1.2758325413	-0.9103633346	 2.1539210628	 0.120517
H	-0.3689440971	-0.4437680451	 2.5737114014	 0.120721
H	-0.0481104401	-2.0661087757	 1.9428853476	 0.117561
H	 0.2988364301	 0.5566561759	 0.3595316624	 0.123229
H	 0.719428594	-1.0331466428	-0.2491481331	 0.098408
H	-3.4588632292	-0.1506365407	 0.1769090875	 0.145955
H	-2.5306969244	-0.2119987952	 1.6658095655	 0.151103
H	-2.4376486439	-0.4496113123	-2.0785932999	 0.118243
H	-0.6770533903	-0.8817630421	-2.2271792886	 0.119434
H	-1.0224774321	-2.8301396382	-0.6401447423	 0.118216
H	-2.7851008683	-2.4017743426	-0.5002636753	 0.112518
54.5269	110.7285	137.5942	213.8243	247.5382	330.4499	337.2795	360.9655	400.5716	460.9951	553.3571	715.8005	777.2432	795.7067	873.886	907.5753	921.408	932.5931	974.4704	998.8863	1022.1738	1054.8988	1082.6676	1087.8678	1122.0335	1185.8644	1212.9401	1269.4415	1320.0074	1324.6197	1360.7863	1397.9585	1413.673	1462.6103	1472.8165	1486.17	1502.0334	1506.5573	1510.8307	2359.5869	3027.8219	3036.2408	3043.2351	3062.1883	3079.9817	3104.469	3108.6677	3129.2194	3134.3867	3207.2741	3221.3291
CCC1(CC#N)CC1	CCC1(CC#N)CC1	
InChI=1S/C7H11N/c1-2-7(3-4-7)5-6-8/h2-5H2,1H3	InChI=1S/C7H11N/c1-2-7(3-4-7)5-6-8/h2-5H2,1H3
