16
gdb 25963	4.94663	0.9915	0.8303	2.9133	75.97	-0.1999	-0.0005	0.1995	1337.2015	0.124234	-437.949375	-437.940856	-437.939911	-437.984042	30.482	
C	-0.1781043	 1.5151052749	-0.0123212668	-0.495338
C	-0.5912788654	 0.1456576466	-0.5230592741	 0.403224
O	-0.8306519755	-0.0838270725	-1.6911336714	-0.346291
N	-0.646246739	-0.8301027683	 0.4486487999	-0.442601
C	-0.9506882865	-2.1637100242	 0.2182379657	 0.460893
C	-1.2688069386	-2.8999619176	-0.8810158833	-0.273858
C	-1.4648275491	-4.2364569171	-0.3910275679	-0.161055
C	-1.252889215	-4.2035866625	 0.9462418984	-0.03063
O	-0.9338386752	-2.9270997503	 1.3393322824	-0.196995
H	-0.6894706895	 2.2749217491	-0.6047412978	 0.158448
H	-0.4020621602	 1.6666645287	 1.0471869494	 0.12104
H	 0.8994974724	 1.6454547858	-0.1585572103	 0.155831
H	-0.439530226	-0.5908669202	 1.4055148633	 0.261107
H	-1.3488798372	-2.5283367871	-1.8859762452	 0.141283
H	-1.730556323	-5.1045530867	-0.9738193772	 0.111952
H	-1.2798614722	-4.9349782584	 1.735206075	 0.132989
32.1789	71.9523	94.6031	158.3093	313.5179	350.5189	364.4335	477.208	577.3142	601.9341	621.6084	673.2401	710.6753	777.6179	801.2142	855.3288	897.393	958.3878	967.8274	1020.5399	1029.8765	1047.8472	1099.4511	1176.3124	1222.9211	1254.6677	1269.3128	1392.407	1401.9886	1468.5148	1486.6867	1547.1581	1561.8365	1646.9985	1787.2437	3045.5991	3112.207	3149.889	3256.545	3296.1919	3311.9244	3640.9221
CC(=O)NC1=CC=CO1	CC(=O)Nc1ccco1	
InChI=1S/C6H7NO2/c1-5(8)7-6-3-2-4-9-6/h2-4H,1H3,(H,7,8)	InChI=1S/C6H7NO2/c1-5(8)7-6-3-2-4-9-6/h2-4H,1H3,(H,7,8)
