17
gdb 43981	2.99965	1.63974	1.43314	2.8454	71.95	-0.2341	-0.01	0.2242	953.2265	0.136976	-421.801992	-421.794869	-421.793924	-421.833513	28.385	
O	-0.0187639488	 0.0467536345	-0.2303412291	-0.314288
C	 0.003744565	 1.2118284301	 0.0538152163	 0.350194
C	-1.1373734977	 2.270553358	 0.1806260603	-0.411948
C	-0.0323274385	 3.3114471558	-0.0341694834	 0.382828
C	 0.9604826477	 3.3186277133	 1.0616840935	-0.38992
C	 1.0954228664	 2.2401922732	-0.0201627818	 0.076547
C	 1.9581232954	 2.5472164276	-1.2225388441	-0.322778
C	 1.4269409965	 3.9546438656	-1.6663059021	-0.099495
O	 0.0879366432	 4.1134359641	-1.1529619798	-0.287152
H	-1.8148715388	 2.1724133352	-0.6710630313	 0.143576
H	-1.7140707606	 2.3422435966	 1.1055539029	 0.121761
H	 1.7369358382	 4.0748380988	 1.0268228155	 0.133627
H	 0.6660777676	 3.0333122888	 2.0662983685	 0.130515
H	 3.0337184827	 2.586030111	-1.0303102208	 0.117307
H	 1.7822229863	 1.7947934055	-1.9963625232	 0.132806
H	 2.0677496353	 4.749494121	-1.2640542955	 0.111539
H	 1.3768292501	 4.0771073309	-2.7510323259	 0.124881
91.0273	185.6667	232.6718	347.1145	420.8887	433.0363	524.9729	597.6769	619.0261	645.7824	686.8905	768.2922	804.0339	835.8677	864.1702	920.5431	936.7215	958.6251	961.7759	1020.0582	1038.0394	1080.286	1086.8719	1151.0872	1197.1624	1210.5886	1234.1792	1261.7725	1290.1567	1325.5051	1342.157	1398.5724	1449.008	1485.5567	1496.6459	1520.9961	1859.9749	3022.2669	3062.0024	3069.2559	3095.913	3110.8756	3130.2504	3132.092	3219.4477
O=C1CC23CC12CCO3	O=C1C[C@@]23C[C@@]12CCO3	
InChI=1S/C7H8O2/c8-5-3-7-4-6(5,7)1-2-9-7/h1-4H2	InChI=1S/C7H8O2/c8-5-3-7-4-6(5,7)1-2-9-7/h1-4H2/t6-,7+/m0/s1
