23
gdb 94698	3.04326	1.38824	1.23861	1.3361	85.19	-0.2401	0.0815	0.3216	1150.7224	0.206661	-388.293134	-388.28442	-388.283475	-388.32596	34.842	
C	-0.3605037639	 1.5325112908	 0.0410097788	-0.403423
C	 0.0601849813	 0.0632655236	-0.0037243294	 0.15109
O	 0.8170532296	-0.2138436831	-1.1879791333	-0.288672
C	 2.226137063	-0.3578692293	-1.0573355713	-0.0957
C	 2.6638992749	-0.8404046733	 0.3341709352	 0.306169
C	 4.1051754985	-1.3158217699	 0.3456519747	-0.482997
C	 1.5294331465	-1.7490520705	 0.8979569316	-0.265579
C	 0.8007293533	-0.4224908962	 1.2480020206	-0.038607
C	 2.2027653699	 0.2342710035	 1.3573827268	-0.261754
H	 0.4993918202	 2.1998363027	 0.1495110932	 0.116539
H	-0.8791435821	 1.7973909488	-0.8843378417	 0.122826
H	-1.0406382669	 1.7130572008	 0.8809092068	 0.108573
H	-0.8487761853	-0.5470063969	-0.1087231052	 0.076002
H	 2.5223035124	-1.0858618142	-1.8234974427	 0.096623
H	 2.7381932373	 0.5915307731	-1.2887755634	 0.083925
H	 4.7880744416	-0.5279310747	 0.0055095517	 0.114934
H	 4.4109998922	-1.6064751287	 1.3561140257	 0.112248
H	 4.2455896571	-2.1825888116	-0.3106010016	 0.115866
H	 1.033385227	-2.4387310631	 0.2093717169	 0.099623
H	 1.8563460865	-2.285966964	 1.7926797116	 0.089912
H	 0.141551001	-0.3920506805	 2.1189221821	 0.061973
H	 2.6460421079	 0.072085726	 2.3445634685	 0.090231
H	 2.3205260078	 1.2866033865	 1.0817842845	 0.090197
81.7299	184.9468	208.0714	221.3755	270.8206	311.2695	363.7123	395.7109	423.3084	434.9913	526.3476	609.5346	664.4429	764.4907	851.4505	860.3608	871.606	890.6051	923.1228	942.6757	980.7322	1002.7938	1011.1678	1026.1208	1076.1911	1078.0372	1106.032	1121.8926	1158.7234	1182.8932	1211.2906	1222.3936	1249.7891	1284.2321	1290.7117	1296.829	1343.855	1364.0273	1386.6456	1401.6649	1409.4394	1416.9616	1474.1029	1487.2615	1490.6923	1492.7577	1495.1565	1509.6642	1517.2794	2957.2056	2994.0141	3019.9101	3034.3851	3036.0848	3043.6863	3052.1354	3078.4111	3083.4991	3092.8317	3095.671	3107.3175	3109.5047	3119.2155
CC1OCC2(C)CC1C2	C[C@H]1OC[C@]2(C)C[C@H]1C2	
InChI=1S/C8H14O/c1-6-7-3-8(2,4-7)5-9-6/h6-7H,3-5H2,1-2H3	InChI=1S/C8H14O/c1-6-7-3-8(2,4-7)5-9-6/h6-7H,3-5H2,1-2H3/t6-,7-,8+/m1/s1
