20
gdb 13267	7.25497	0.74685	0.72609	0.0526	86.12	-0.236	0.0568	0.2928	1647.8823	0.176911	-311.841123	-311.832046	-311.831102	-311.877229	32.272	
C	-0.4591559827	 1.7128950342	-0.2139903297	-0.362145
C	 0.0117674604	 0.2786455384	 0.0892358768	-0.314468
C	 0.7763229813	-0.3170380122	-1.0020288389	 0.107161
C	 1.4027844585	-0.783359215	-1.9210986482	 0.021273
C	 2.1675416216	-1.3748404032	-3.0000268108	-0.137933
C	 3.6857266491	-1.687319254	-2.7850864193	-0.212904
C	 3.4940820047	-2.9899819507	-3.6050359204	-0.216646
C	 1.9685238866	-2.8885309183	-3.3436932405	-0.212821
H	 0.3945254832	 2.370081762	-0.4009151336	 0.126404
H	-1.0983865997	 1.7318968878	-1.1008995736	 0.126418
H	-1.027214629	 2.1162625453	 0.6298776064	 0.111297
H	 0.6194507396	 0.2801924956	 1.0036773463	 0.125023
H	-0.8593793817	-0.3516942038	 0.3113500518	 0.125496
H	 2.0488460405	-0.7802552687	-3.9134503386	 0.094458
H	 4.4029779706	-0.9465904933	-3.1454289982	 0.099452
H	 3.8898697205	-1.8954455756	-1.7318228007	 0.10984
H	 3.7350136986	-2.8425916982	-4.661917332	 0.102061
H	 4.0079284797	-3.8874948651	-3.2548964211	 0.098533
H	 1.6698576394	-3.4481251646	-2.4537866625	 0.109972
H	 1.2837034488	-3.1287526705	-4.1599610031	 0.099529
8.3255	79.2226	101.327	146.9705	215.5547	228.2978	322.9796	465.1884	484.1026	510.3375	577.2887	718.72	785.0153	787.2382	839.7848	902.108	934.278	939.2429	963.7133	1012.2093	1021.1865	1080.7032	1104.0599	1120.5309	1190.3304	1201.8287	1235.4433	1246.0512	1253.9757	1274.6293	1278.0507	1286.2663	1347.1324	1364.0675	1407.6083	1475.7594	1478.1902	1487.5476	1494.3538	1505.7224	1509.7143	2357.9499	3015.1998	3032.2542	3041.0684	3042.7566	3058.5633	3063.0142	3067.6752	3105.5091	3115.4204	3118.9531	3122.4812	3129.1378
CCC#CC1CCC1	CCC#CC1CCC1	
InChI=1S/C8H12/c1-2-3-5-8-6-4-7-8/h8H,2,4,6-7H2,1H3	InChI=1S/C8H12/c1-2-3-5-8-6-4-7-8/h8H,2,4,6-7H2,1H3
