16
gdb 13570	4.04368	1.29826	1.23656	2.7124	74.29	-0.2596	-0.0564	0.2032	1043.9173	0.128444	-346.576212	-346.56785	-346.566906	-346.609207	30.486	
C	-0.3048446731	 1.4804423901	 0.0874816538	-0.418725
C	-0.0202515012	-0.0035029313	 0.0920579755	 0.01576
C	 1.3106769618	-0.5539939082	-0.2883727573	-0.287099
C	 0.8668541465	-0.6730792246	 1.1612253945	-0.134258
C	 1.5567496093	 0.1552817748	 2.1823056961	 0.250451
O	 2.1773082401	 1.1726060942	 1.9302191542	-0.322115
C	 1.4410627304	-0.3283525223	 3.5502760519	 0.244654
C	 1.3455849699	-0.7384239121	 4.6781602274	-0.4102
H	 0.5666945699	 2.0532837631	 0.4088089118	 0.157375
H	-0.5765885159	 1.804096431	-0.9232318859	 0.118545
H	-1.1404930144	 1.7251488311	 0.7517482769	 0.118454
H	-0.873916216	-0.6235221528	-0.1699743984	 0.097324
H	 1.3693213067	-1.4704814411	-0.8644764187	 0.117326
H	 2.1106735335	 0.1586786468	-0.4598674	 0.141153
H	 0.529652306	-1.6407379441	 1.5136697681	 0.098588
H	 1.2705693066	-1.0846557146	 5.6803544501	 0.212767
52.5989	143.2474	176.3381	223.1393	237.5884	272.3644	353.7599	419.1178	480.3677	600.3993	640.4128	697.6377	723.7307	766.449	804.3424	860.9596	882.3835	953.0544	995.4992	1073.8705	1088.8215	1117.4207	1123.8934	1145.3271	1207.9399	1234.6828	1389.7855	1408.0319	1425.7394	1478.0179	1500.596	1505.0052	1737.6301	2210.7908	3036.5695	3093.171	3130.6978	3136.0559	3147.7867	3181.1249	3229.3155	3494.6787
CC1CC1C(=O)C#C	C[C@H]1C[C@H]1C(=O)C#C	
InChI=1S/C7H8O/c1-3-7(8)6-4-5(6)2/h1,5-6H,4H2,2H3	InChI=1S/C7H8O/c1-3-7(8)6-4-5(6)2/h1,5-6H,4H2,2H3/t5-,6+/m0/s1
