16
gdb 31416	2.94767	1.37671	0.94394	6.1188	76.97	-0.2231	-0.0231	0.2	1191.5792	0.126332	-434.146444	-434.137937	-434.136993	-434.181026	30.432	
C	-0.0109766138	 1.4557856721	 0.0045016634	-0.310817
N	-0.0436059414	 0.0052466627	 0.0160491585	-0.346298
C	-1.1984887723	-0.702885968	 0.0157394399	 0.438694
N	-2.328773992	-0.0245710147	 0.0315621787	-0.422297
C	-3.5317829552	-0.6796234269	 0.0407230715	 0.426445
O	-4.6252811551	-0.1533701293	 0.0584899334	-0.399675
N	-3.4683929812	-2.1046239572	 0.0260587333	-0.348691
C	-2.3078620056	-2.7996723858	 0.0074478277	 0.058519
C	-1.1242653538	-2.1421862945	 0.002159934	-0.257115
H	 1.0300432672	 1.77994283	 0.0608894018	 0.117891
H	-0.4663223736	 1.8582875619	-0.906310818	 0.145652
H	-0.5640500777	 1.861646276	 0.8558949378	 0.153777
H	 0.8233022669	-0.4995395371	-0.0328389368	 0.250076
H	-4.3630704026	-2.5700359449	 0.0303531275	 0.263544
H	-2.3859239608	-3.8811241936	-0.0021164036	 0.135046
H	-0.1818771488	-2.6721439206	-0.0107327093	 0.095247
20.7516	102.7798	149.7728	197.8472	215.0139	326.6848	419.647	431.0647	513.5687	574.556	607.3577	625.344	734.0722	753.3362	773.6295	795.4149	944.9074	959.3658	993.2836	1080.4334	1125.9181	1158.2612	1166.9048	1215.2348	1267.268	1314.425	1406.4189	1450.654	1471.4273	1490.6477	1516.0232	1559.93	1584.0136	1691.4162	1809.5634	3041.0262	3101.0175	3135.6097	3194.8687	3223.0865	3633.4395	3677.2119	20.749	102.7796	149.7732	197.8472	215.014	326.6852	419.6473	431.0649	513.5687	574.556	607.3578	625.3438	734.0721	753.3362	773.6305	795.4153	944.9075	959.3662	993.2838	1080.4335	1125.9185	1158.2613	1166.9051	1215.2352	1267.2682	1314.4254	1406.4191	1450.6542	1471.4275	1490.6481	1516.0233	1559.9301	1584.0138	1691.4161	1809.564	3041.0262	3101.0175	3135.6096	3194.8687	3223.0866	3633.4394	3677.2118
CNC1=NC(=O)NC=C1	CNc1nc(=O)[nH]cc1	
InChI=1S/C5H7N3O/c1-6-4-2-3-7-5(9)8-4/h2-3H,1H3,(H2,6,7,8,9)	InChI=1S/C5H7N3O/c1-6-4-2-3-7-5(9)8-4/h2-3H,1H3,(H2,6,7,8,9)
