20
gdb 78456	3.82038	1.26209	1.17182	1.4909	79.13	-0.2231	0.0877	0.3107	1148.9836	0.171339	-403.076244	-403.06844	-403.067495	-403.107991	31.617	
C	-0.0882612631	 1.5400841003	-0.0234329603	-0.432069
C	-0.0575523565	 0.0194798779	-0.0229003878	 0.030396
C	 1.1746982911	-0.6139014849	-0.7247411491	 0.02041
O	 1.9662712072	-0.2903577224	 0.476177366	-0.308182
C	 0.7068906379	-0.622690027	 1.1668234505	 0.020407
C	 0.6373607578	-2.145444738	 0.9044242577	-0.027544
C	 0.9941740611	-2.1387422499	-0.5383430974	-0.027546
N	-0.3450847807	-2.572363961	-0.1060515866	-0.097349
C	-0.5629126778	-4.0136790504	-0.1666097413	-0.321487
H	 0.892401225	 1.9545340429	 0.2210550348	 0.132511
H	-0.3903253545	 1.9196361668	-1.0057745344	 0.111726
H	-0.8142530677	 1.9116772697	 0.7081068763	 0.111725
H	-1.0270186778	-0.4138932427	-0.2646756436	 0.097892
H	 1.6091300584	-0.2395600311	-1.6517106	 0.07324
H	 0.6583674508	-0.2574206369	 2.1926685972	 0.07324
H	 1.0307712457	-2.8647499662	 1.6142260343	 0.094488
H	 1.6746346377	-2.8526538392	-0.9892244451	 0.094489
H	 0.3381695013	-4.6110606917	 0.0534113722	 0.100794
H	-1.3397993022	-4.2881629614	 0.5536658302	 0.12643
H	-0.9140366135	-4.2801620946	-1.1683033134	 0.12643
178.2519	211.4302	228.2575	239.1884	291.6739	310.6753	387.5024	414.5234	551.4675	607.9929	713.0998	783.6938	794.0363	838.1797	846.7657	862.6977	881.0274	923.5631	934.8632	969.7616	1034.0089	1048.7074	1069.5797	1083.8307	1087.3826	1132.7502	1146.1639	1159.8488	1186.7245	1221.2875	1231.0493	1259.1927	1274.8339	1291.8178	1302.0186	1361.9913	1396.7667	1404.6919	1453.5739	1491.7457	1493.1516	1498.0788	1508.6023	2958.6885	3032.7093	3068.9733	3089.9275	3107.2878	3114.9008	3121.1278	3124.3433	3134.1888	3170.351	3180.1099
CC1C2OC1C1C2N1C	C[C@H]1[C@H]2O[C@@H]1[C@@H]1[C@H]2N1C	
InChI=1S/C7H11NO/c1-3-6-4-5(8(4)2)7(3)9-6/h3-7H,1-2H3	InChI=1S/C7H11NO/c1-3-6-4-5(8(4)2)7(3)9-6/h3-7H,1-2H3/t3-,4+,5-,6+,7-,8?
