19
gdb 60032	2.02305	1.19075	0.784	2.4519	77.91	-0.2297	-0.0525	0.1772	1443.1623	0.156455	-419.20827	-419.197944	-419.197	-419.244652	35.66	
C	 0.5255580769	 0.6093410038	 0.3207758333	-0.332598
N	 0.2769463701	-0.5813225193	-0.4839570127	-0.061583
C	 1.1076645063	-1.6942101192	-0.0419629916	-0.320909
C	-1.1264248795	-0.9576155464	-0.5420700521	-0.162311
C	-1.9527880644	-0.036135761	-1.4687284013	-0.237082
C	-3.1049393403	-0.7854935269	-2.1741201269	 0.163555
O	-3.1709783058	-1.9799805543	-2.2479567138	-0.22555
C	-2.4966748564	 1.1607701003	-0.8299745123	 0.260835
N	-2.9697177313	 2.092190962	-0.334596745	-0.319477
H	 1.5886471618	 0.8627481911	 0.2732111732	 0.122961
H	-0.0388881873	 1.4625416712	-0.0624209517	 0.13906
H	 0.2521940886	 0.4733414499	 1.383974734	 0.101195
H	 0.8949881822	-2.0137799185	 0.9954666605	 0.098961
H	 0.9598548309	-2.5552218914	-0.7005558431	 0.124252
H	 2.1612741619	-1.4033630119	-0.0923469851	 0.123377
H	-1.200310033	-1.9574500959	-0.9761070209	 0.136938
H	-1.6064225186	-1.0001961563	 0.4525718091	 0.102358
H	-1.2844086275	 0.2929010082	-2.2801233762	 0.165475
H	-3.8621937347	-0.1222165256	-2.6394426175	 0.120543
39.5949	76.3293	88.1551	161.4445	170.3871	227.0197	244.9116	260.6464	292.2726	369.456	389.2092	451.7687	519.7901	570.5839	635.6068	795.1005	867.0639	888.4639	1026.7226	1054.1242	1063.3083	1070.9482	1094.0583	1121.3267	1177.8906	1210.2465	1217.2152	1282.9061	1308.7682	1339.8315	1398.264	1420.1482	1447.1872	1474.5023	1482.3964	1493.7377	1498.76	1508.8564	1514.0067	1842.2171	2353.4915	2930.9193	2932.2873	2937.1578	2946.1538	3003.8808	3064.6652	3076.2618	3101.8892	3110.3062	3123.4649
CN(C)CC(C=O)C#N	CN(C)C[C@@H](C=O)C#N	
InChI=1S/C6H10N2O/c1-8(2)4-6(3-7)5-9/h5-6H,4H2,1-2H3	InChI=1S/C6H10N2O/c1-8(2)4-6(3-7)5-9/h5-6H,4H2,1-2H3/t6-/m0/s1
