16
gdb 106258	2.85505	1.27522	1.06046	3.629	65.54	-0.2486	0.0041	0.2527	1134.465	0.123296	-474.998631	-474.990003	-474.989059	-475.032043	31.917	
O	 0.6701876707	 0.1941897901	-0.8231311106	-0.403847
C	-0.0847149726	 0.2516505299	 0.3745644137	-0.181946
C	-1.4388083985	-0.3953887177	 0.232522774	 0.3093
N	-2.2939192957	-0.558727991	 1.4154020283	-0.395877
C	-2.707367694	-1.8478763754	 1.0062208823	 0.441157
O	-3.4874108223	-2.6174941071	 1.4861825744	-0.340079
C	-1.8128869796	-1.8162051326	-0.2196217942	-0.355697
C	-2.2116467998	-0.5737682656	-1.0282212391	 0.048426
O	-3.5193333461	-0.1054295737	-1.1065480436	-0.420266
H	 0.3539507166	 0.8885816329	-1.4089928952	 0.292824
H	 0.4882956442	-0.2819755531	 1.1398878293	 0.13235
H	-0.2081087464	 1.2868630664	 0.728380078	 0.103307
H	-2.9830249149	 0.1415652655	 1.6704967791	 0.24646
H	-1.2022855111	-2.6078275153	-0.6309794154	 0.123834
H	-1.6239370529	-0.4744858036	-1.9421609845	 0.101035
H	-4.0475846675	-0.7503444096	-1.5895911165	 0.299017
73.2692	130.3417	180.5026	213.1248	255.9972	287.8117	312.2776	397.5924	447.8631	493.7583	555.3452	639.1533	683.8242	756.5368	768.2682	827.4611	924.0955	930.7238	971.4195	1026.1996	1071.3745	1080.9989	1095.9963	1142.4913	1192.8476	1214.341	1251.3757	1300.2884	1314.1418	1338.9701	1393.7132	1409.7719	1475.4001	1500.7204	1904.9291	2988.4783	3077.1283	3099.8079	3221.7468	3536.0758	3806.2631	3828.2876
OCC12NC(=O)C1C2O	OC[C@]12NC(=O)[C@H]1[C@H]2O	
InChI=1S/C5H7NO3/c7-1-5-2(3(5)8)4(9)6-5/h2-3,7-8H,1H2,(H,6,9)	InChI=1S/C5H7NO3/c7-1-5-2(3(5)8)4(9)6-5/h2-3,7-8H,1H2,(H,6,9)/t2-,3-,5+/m1/s1
