26
gdb 122347	3.143	0.70418	0.6545	1.2486	94.16	-0.21	0.0789	0.289	1912.2002	0.238439	-369.594943	-369.583416	-369.582472	-369.632577	41.451	
C	 0.7187109907	 2.5229117658	-1.0386555607	-0.378125
C	 1.4243350038	 1.2408794858	-0.5880299849	-0.163947
C	 1.3882563886	 0.1331492518	-1.6452999147	-0.157367
C	 2.0906283367	-1.1502778282	-1.194795441	-0.140196
N	 2.0858547963	-2.134065293	-2.271801763	-0.107808
C	 2.4638094952	-3.5272460431	-2.0182102611	-0.001715
C	 2.9028934931	-4.0380783051	-0.6615747636	-0.412273
C	 1.0478766867	-3.1696434671	-2.3496420228	-0.000608
C	-0.096262453	-3.2992609932	-1.3656988956	-0.416975
H	 1.1809612593	 2.9309534923	-1.9443348403	 0.114655
H	-0.336852849	 2.3347881265	-1.264760483	 0.11238
H	 0.7606789019	 3.2966707763	-0.2655410565	 0.108999
H	 2.4688442004	 1.4681290896	-0.3356938853	 0.093658
H	 0.9625454613	 0.8766619457	 0.3396342015	 0.091594
H	 0.3451870983	-0.0987089048	-1.8994397792	 0.09255
H	 1.8580788531	 0.4799423871	-2.5735347558	 0.103492
H	 3.1399044981	-0.9276081155	-0.9611410774	 0.096824
H	 1.6320541208	-1.5008243108	-0.256750885	 0.077367
H	 3.0634459447	-3.9443408607	-2.8288075641	 0.081342
H	 2.2778813821	-3.6856761447	 0.1606989084	 0.118397
H	 2.8804385384	-5.1332805824	-0.6507665426	 0.119082
H	 3.9332609765	-3.7305573972	-0.4501424681	 0.122252
H	 0.7282058337	-3.3513737883	-3.3765718714	 0.082144
H	 0.2063301265	-3.190072188	-0.3229045063	 0.120355
H	-0.8697765022	-2.5498175783	-1.5681039591	 0.123138
H	-0.561619152	-4.2853229602	-1.4714233481	 0.120784
37.5671	75.3559	94.5227	114.8034	149.2522	153.0355	207.2994	239.9163	252.7335	292.2364	333.2708	387.3031	459.8443	518.454	552.8135	732.9279	739.7354	766.4726	806.0032	834.7337	912.9261	946.6453	959.2593	1010.4219	1024.5189	1049.3972	1056.1711	1071.0711	1118.6281	1132.3296	1161.1344	1175.0687	1190.4982	1199.5841	1251.9192	1288.3907	1318.091	1323.0257	1349.0877	1376.8128	1382.6976	1398.9343	1411.9923	1413.4392	1420.0776	1440.8621	1481.3966	1485.3604	1489.3497	1493.9296	1499.8998	1500.1138	1506.9804	1512.1701	1517.053	2971.7832	3009.7288	3018.8007	3028.7995	3033.3186	3035.0263	3036.3627	3037.3481	3069.9223	3077.4752	3088.5734	3089.3968	3089.8638	3095.8144	3100.148	3125.9853	3136.7498
CCCCN1C(C)C1C	CCCCN1[C@@H](C)[C@H]1C	
InChI=1S/C8H17N/c1-4-5-6-9-7(2)8(9)3/h7-8H,4-6H2,1-3H3	InChI=1S/C8H17N/c1-4-5-6-9-7(2)8(9)3/h7-8H,4-6H2,1-3H3/t7-,8+,9?
