18
gdb 96421	2.08058	1.66438	1.2024	3.9275	71.18	-0.2609	0.0312	0.2921	1080.2577	0.149037	-439.101632	-439.093263	-439.092318	-439.134449	31.623	
O	-0.0397489392	 1.4238050546	 0.0487226672	-0.423834
C	 0.011211239	 0.013138079	 0.0375357932	 0.106651
C	 0.776950315	-0.5603125193	 1.2378308547	-0.121809
O	 0.7763868904	-1.9756147795	 1.2147265789	-0.243502
C	-0.5359383233	-2.5105023692	 1.3051389794	-0.078957
C	-1.4096264414	-2.0574162632	 0.1328846239	-0.230155
C	-1.4388586046	-0.5112678827	 0.0399910686	-0.172787
C	-2.2150469247	 0.0637539524	 1.1456792872	 0.294161
N	-2.8468752641	 0.4741478554	 2.0220462491	-0.336063
H	 0.8604348366	 1.7655326055	 0.0446552743	 0.292687
H	 0.4820999218	-0.3663113912	-0.8828753095	 0.083646
H	 1.8263794336	-0.2482404963	 1.2027103005	 0.102928
H	 0.3331587553	-0.1720094583	 2.168438526	 0.121393
H	-0.4228105923	-3.5976791397	 1.3041598135	 0.116581
H	-1.0024006297	-2.2158891328	 2.2587197294	 0.116814
H	-0.9934213573	-2.4486684423	-0.8013012275	 0.116769
H	-2.4245903185	-2.4512655826	 0.2398430333	 0.124153
H	-1.9235902565	-0.1976298098	-0.8908468521	 0.131324
105.6286	146.9752	176.9229	248.7225	267.7446	324.9727	356.0762	400.6455	440.3898	450.9907	554.1386	638.1651	653.5263	808.618	846.6118	875.3585	956.4562	992.8971	1026.5607	1038.8398	1115.2312	1115.7941	1123.8488	1133.9462	1217.9673	1226.9094	1260.4106	1284.7811	1320.3747	1342.748	1353.1712	1369.1331	1397.8375	1423.4019	1431.649	1477.3048	1493.7967	1505.6492	2356.7087	2979.3014	2987.9987	2993.5413	3049.1567	3059.8118	3072.1662	3097.1555	3103.0347	3816.7084
OC1COCCC1C#N	O[C@H]1COCC[C@H]1C#N	
InChI=1S/C6H9NO2/c7-3-5-1-2-9-4-6(5)8/h5-6,8H,1-2,4H2	InChI=1S/C6H9NO2/c7-3-5-1-2-9-4-6(5)8/h5-6,8H,1-2,4H2/t5-,6-/m0/s1
