17
gdb 125923	4.50093	1.28163	1.04174	3.2724	74.45	-0.2081	0.025	0.2331	1129.603	0.138814	-418.029222	-418.021736	-418.020792	-418.061372	28.868	
C	-0.5702018387	 1.4159923649	 0.0186845459	-0.398394
C	 0.190759824	 0.1047372374	 0.0395329869	 0.132106
C	 1.0173678011	-0.2024434261	-1.2626448519	-0.41021
C	 2.2991686387	-0.6910885899	-0.6653355815	 0.169506
C	 3.5450062171	-1.2340997174	-0.8670316961	-0.208746
N	 4.1363255041	-1.2668319268	 0.3623289838	-0.19378
N	 3.3500896782	-0.7810412162	 1.3734143175	-0.356409
C	 2.2627357677	-0.4413537337	 0.7147409851	 0.434807
O	 1.1244267025	 0.1264790083	 1.1664751246	-0.281141
H	 0.1126555187	 2.2527586362	-0.1575596092	 0.127907
H	-1.3193705011	 1.4039275676	-0.7796326581	 0.119036
H	-1.0826255955	 1.5817853459	 0.9700118224	 0.132829
H	-0.4973509921	-0.7282951908	 0.2310268334	 0.092495
H	 0.4917133767	-0.9288046087	-1.8893901778	 0.117934
H	 1.1503029256	 0.7084251199	-1.8606743241	 0.114929
H	 4.0615260409	-1.5921923415	-1.7438146749	 0.134153
H	 5.039619052	-1.6373708791	 0.5973636941	 0.27298
58.2896	220.5912	240.7632	276.7618	318.455	370.9269	441.0485	497.3694	600.4353	631.251	716.6003	738.6196	782.3867	787.107	834.614	906.3212	934.2258	966.894	1048.7383	1062.1059	1101.3312	1126.9843	1160.8785	1198.4627	1212.6144	1265.6018	1324.7659	1349.6841	1377.0062	1410.0813	1466.7364	1467.1459	1484.1017	1495.7987	1502.4524	1550.4147	1655.9914	3017.781	3023.0132	3040.9096	3076.6182	3113.6494	3123.3268	3256.6853	3696.9283
CC1CC2=CNN=C2O1	C[C@H]1Cc2c[nH]nc2O1	
InChI=1S/C6H8N2O/c1-4-2-5-3-7-8-6(5)9-4/h3-4H,2H2,1H3,(H,7,8)	InChI=1S/C6H8N2O/c1-4-2-5-3-7-8-6(5)9-4/h3-4H,2H2,1H3,(H,7,8)/t4-/m0/s1
