19
gdb 92892	2.34834	1.62368	1.04153	3.0801	76.71	-0.2498	-0.0238	0.2259	1161.3336	0.159123	-423.062951	-423.054255	-423.053311	-423.096211	33.094	
C	-0.0179594052	 1.5362596893	 0.0537586283	-0.402152
C	 0.0702665959	 0.0119646486	 0.0382447743	-0.09132
C	 0.7148095107	-0.5435407456	-1.2608955773	-0.259498
C	 1.1019389552	-1.9947730735	-1.160309134	-0.067449
C	 1.1665368546	-2.673314523	-0.0169231714	-0.080115
C	 0.8496624783	-2.0688300765	 1.3355936508	 0.019794
O	 1.770735827	-2.4875508405	 2.3104879698	-0.444441
C	 0.8416328986	-0.5467491693	 1.2160304822	 0.351108
O	 1.4680129036	 0.1235988098	 2.0088696303	-0.338668
H	 0.9807510659	 1.9812524739	 0.045268497	 0.134092
H	-0.5666492097	 1.8974731499	-0.8212998262	 0.112969
H	-0.5283568621	 1.893037405	 0.9520093391	 0.127416
H	-0.9376004605	-0.4231092245	 0.0981340061	 0.102708
H	 0.0212575054	-0.389763772	-2.0967692574	 0.115446
H	 1.6050603843	 0.0548265397	-1.5046948602	 0.12546
H	 1.3559475095	-2.4928378052	-2.0930779565	 0.097717
H	 1.4713366364	-3.7155109827	 0.0056967772	 0.108842
H	-0.1695168394	-2.3768658673	 1.6374063387	 0.096148
H	 2.0974194015	-1.6675368659	 2.7150966593	 0.291943
90.2428	103.6268	186.3009	233.3159	272.0145	318.8788	351.2414	411.435	437.4541	443.9808	500.6589	626.3676	636.3032	697.981	793.3088	858.1794	890.5384	938.6004	949.3842	1003.3639	1021.1726	1034.3991	1070.9616	1132.7428	1143.9891	1155.9504	1169.0437	1221.1614	1265.4701	1307.9568	1328.4995	1335.1044	1394.134	1401.9298	1414.1601	1435.0763	1479.606	1491.0106	1494.5751	1723.4426	1801.0803	2919.0591	3002.0546	3013.1153	3045.3153	3046.8443	3117.092	3124.2636	3151.7227	3181.5651	3681.1123
CC1CC=CC(O)C1=O	C[C@H]1CC=C[C@@H](O)C1=O	
InChI=1S/C7H10O2/c1-5-3-2-4-6(8)7(5)9/h2,4-6,8H,3H2,1H3	InChI=1S/C7H10O2/c1-5-3-2-4-6(8)7(5)9/h2,4-6,8H,3H2,1H3/t5-,6+/m0/s1
