24
gdb 122933	4.94405	0.50098	0.48292	4.0018	88.97	-0.2383	0.0336	0.2719	2351.3124	0.215841	-405.585906	-405.574469	-405.573525	-405.624149	39.488	
C	-0.0043958953	 1.6005267562	 0.0450520323	-0.380551
C	 0.0005307997	 0.0708183489	 0.1063553592	-0.165975
C	-1.399792324	-0.5404259486	-0.0152637075	-0.156353
C	-1.40187045	-2.0712437027	 0.0473182954	-0.186252
C	-2.8139561472	-2.6606503674	-0.0796767744	-0.185198
N	-2.8629848975	-4.1120460206	-0.0275584882	-0.025918
C	-2.6376473078	-4.7809069888	 1.2421286302	-0.347687
C	-3.1324346986	-4.8532876545	-1.1399305176	 0.151037
O	-3.183873886	-6.0647359822	-1.1909104586	-0.344706
H	 1.0077154813	 2.0069736045	 0.1343365932	 0.114096
H	-0.4241130986	 1.9576353855	-0.9019812412	 0.114958
H	-0.6071364357	 2.0274459499	 0.8543778968	 0.114328
H	 0.6385140591	-0.3271684822	-0.6934933312	 0.098147
H	 0.4571203297	-0.2577332077	 1.0492976956	 0.096434
H	-2.03982883	-0.1412720545	 0.7841774416	 0.094815
H	-1.8572110897	-0.2121739612	-0.9593489042	 0.095112
H	-0.775481687	-2.4817104657	-0.7547813732	 0.104776
H	-0.9490558011	-2.3970464952	 0.991966135	 0.102256
H	-3.4564721322	-2.2550912387	 0.7147204486	 0.105918
H	-3.2550285604	-2.346156779	-1.0324182718	 0.115531
H	-3.3170268224	-4.3862727253	 2.0072330076	 0.121324
H	-2.828609627	-5.8439340234	 1.0944450551	 0.168518
H	-1.6078973568	-4.6498920319	 1.5933883901	 0.127604
H	-3.3094759825	-4.2086060853	-2.0238951929	 0.067786
44.8807	47.2005	80.2158	113.4539	126.4663	137.8923	182.9152	247.8663	273.8909	324.6518	347.975	357.5076	395.4177	481.0316	706.8595	733.5849	760.6587	849.2337	874.9501	908.0652	978.4817	1014.7211	1028.6502	1037.5892	1067.6546	1091.5787	1131.0329	1142.7477	1163.7029	1232.3913	1266.2027	1280.7876	1298.4791	1328.3027	1334.4773	1352.2366	1399.1614	1406.054	1413.9308	1433.2445	1438.9498	1443.802	1481.4311	1483.7419	1491.0774	1497.8689	1500.1476	1503.5376	1513.6999	1522.2681	1794.6732	2930.4874	3000.9007	3005.1485	3016.5404	3022.0853	3027.3067	3027.6277	3030.3278	3048.8867	3058.7393	3072.9882	3079.5626	3096.7043	3103.3399	3155.2228
CCCCCN(C)C=O	CCCCCN(C)C=O	
InChI=1S/C7H15NO/c1-3-4-5-6-8(2)7-9/h7H,3-6H2,1-2H3	InChI=1S/C7H15NO/c1-3-4-5-6-8(2)7-9/h7H,3-6H2,1-2H3
