15
gdb 52760	2.90548	0.83539	0.67819	5.8715	73.83	-0.2649	-0.051	0.2139	1610.8278	0.107709	-457.756474	-457.746314	-457.74537	-457.794665	32.856	
C	 0.0118605918	 1.5003321245	 0.0499461793	-0.502027
C	-0.0113004202	 0.046606481	 0.0191083707	 0.162633
C	-0.0459355506	-1.1561188469	 0.0148716155	 0.003683
C	-0.0491996778	-2.6064058524	-0.0639957949	-0.172832
O	-1.3470398779	-3.1119703733	 0.2369518106	-0.176688
C	-1.4371578328	-4.4343912851	 0.5233510881	 0.196675
O	-2.4833101491	-4.9693615032	 0.7174547926	-0.266841
C	 0.406918707	-3.0737941722	-1.4639310894	 0.161123
O	-0.1181722213	-3.9757092545	-2.0515105291	-0.219055
H	 0.8694338711	 1.8708223019	 0.621229436	 0.158042
H	 0.0717427202	 1.9182418267	-0.9603095396	 0.159147
H	-0.8972835142	 1.8897452096	 0.5199918873	 0.166211
H	 0.6902802228	-3.0182185781	 0.6457663354	 0.135537
H	-0.4526480264	-4.9337939184	 0.5861545662	 0.084371
H	 1.2776861574	-2.5138208196	-1.8627421487	 0.11002
10.5882	60.5634	81.8412	95.3251	159.1229	171.5007	240.5105	290.1715	319.7696	354.3453	441.1608	486.5119	619.3599	653.6685	844.3269	869.456	1028.0798	1031.2357	1048.9206	1054.9302	1087.8987	1154.023	1188.4657	1280.4638	1326.1984	1396.7073	1412.9793	1436.9001	1473.1307	1475.3016	1846.4556	1880.0265	2377.0868	2927.761	2950.8251	2968.0885	3034.7341	3099.4194	3100.8593
CC#CC(OC=O)C=O	CC#C[C@@H](OC=O)C=O	
InChI=1S/C6H6O3/c1-2-3-6(4-7)9-5-8/h4-6H,1H3	InChI=1S/C6H6O3/c1-2-3-6(4-7)9-5-8/h4-6H,1H3/t6-/m1/s1
