14
gdb 16497	3.02628	2.62399	1.83904	1.1718	55.48	-0.2254	0.0683	0.2937	725.9597	0.10686	-419.595051	-419.588613	-419.587668	-419.625259	25.658	
O	 0.1445160985	 1.4228884331	 0.0553614474	-0.448987
C	 0.032899716	 0.0316599001	-0.0007736261	 0.098051
C	 0.2027174538	-0.756794128	 1.3285881378	 0.003363
O	-0.7500085579	-0.0785517358	 2.2122350312	-0.306156
C	-1.7745604956	-0.7070802823	 1.4259244952	-0.002022
C	-0.8896485734	-1.7671221887	 0.8494364782	-0.185526
C	-1.3512324335	-0.6290431469	-0.0517832063	 0.286325
O	-2.2260763531	-0.7396255531	-1.1058134007	-0.454558
H	-0.2383952791	 1.6704043272	 0.9091819413	 0.285882
H	 0.6842891196	-0.3472485118	-0.7921431606	 0.10011
H	 1.1653182023	-0.9568917427	 1.7923448682	 0.094055
H	-2.7958649586	-0.722686554	 1.7824424195	 0.118592
H	-0.9483812256	-2.8426309591	 0.7759093588	 0.114322
H	-2.6769149534	 0.1053504519	-1.216009614	 0.296548
208.7359	222.158	276.3754	337.2539	390.7531	525.2131	565.1192	614.2236	689.6087	760.4061	781.3205	823.2101	842.9361	892.6647	924.7051	949.3414	955.8886	1019.3457	1030.3226	1112.9591	1129.2316	1143.9036	1189.7084	1212.8561	1272.0431	1277.8626	1304.1491	1326.592	1431.6761	1459.1986	3097.5981	3155.6748	3211.3333	3234.0042	3742.7773	3794.7884
OC1C2OC3C2C13O	O[C@H]1[C@H]2O[C@@H]3[C@H]2[C@]13O	
InChI=1S/C5H6O3/c6-3-2-1-4(8-2)5(1,3)7/h1-4,6-7H	InChI=1S/C5H6O3/c6-3-2-1-4(8-2)5(1,3)7/h1-4,6-7H/t1-,2-,3-,4+,5-/m0/s1
