19
gdb 83937	2.29399	1.71158	1.4715	3.2142	74.78	-0.2382	-0.0133	0.2249	1005.6478	0.16046	-423.027935	-423.019997	-423.019053	-423.060304	30.7	
C	-0.1525724743	 1.5841472467	-0.0016630203	-0.439455
C	 0.0509663121	 0.074755539	 0.0125852431	 0.025969
C	 1.080896636	-0.6066612915	-0.9545453122	-0.193028
C	 2.4069627945	 0.1714689945	-0.9385110152	-0.073615
O	 2.9975685403	 0.2021989925	 0.3564166159	-0.269878
C	 2.1253443136	 0.1563135171	 1.4805687402	-0.073616
C	 0.8321758418	-0.6200422216	 1.1819429889	-0.193028
C	 1.1847232657	-1.6900560677	 0.1335188817	 0.446465
O	 1.3189230478	-2.8775605239	 0.14170489	-0.322421
H	 0.7783987285	 2.145445074	 0.1102884632	 0.13205
H	-0.6155845741	 1.8989262969	-0.9429658992	 0.123311
H	-0.8199763122	 1.8879297667	 0.8118507651	 0.12331
H	-0.9194324214	-0.4185178973	-0.1034713389	 0.088929
H	 0.780980825	-0.8781212591	-1.968176121	 0.0884
H	 3.1387166631	-0.321795648	-1.5862170958	 0.123481
H	 2.2509198523	 1.1893270552	-1.3258131379	 0.100622
H	 2.689453846	-0.3459784499	 2.2728946732	 0.123481
H	 1.883048808	 1.1695295658	 1.8342260955	 0.100622
H	 0.3078284774	-0.9035793696	 2.0961387538	 0.0884
100.3268	140.1046	192.7793	276.438	282.3754	285.9072	481.3343	498.6675	525.2426	526.1566	679.1247	707.1495	781.9863	813.2226	843.8306	900.7175	969.5431	986.563	1019.1646	1023.3349	1057.0819	1089.0953	1101.6765	1119.0238	1142.8333	1152.7821	1201.1655	1221.9959	1270.3572	1279.3756	1294.2352	1301.1712	1380.6404	1387.1044	1409.5747	1421.1513	1493.1941	1493.6115	1520.8645	1524.1141	1898.2335	2990.1777	2995.8986	3037.5102	3050.3931	3070.8253	3073.1669	3097.4614	3103.2055	3104.1744	3117.7155
CC1C2COCC1C2=O	C[C@H]1[C@H]2COC[C@@H]1C2=O	
InChI=1S/C7H10O2/c1-4-5-2-9-3-6(4)7(5)8/h4-6H,2-3H2,1H3	InChI=1S/C7H10O2/c1-4-5-2-9-3-6(4)7(5)8/h4-6H,2-3H2,1H3/t4-,5+,6-
