19
gdb 47739	2.5376	1.69884	1.14509	3.8915	76.29	-0.2456	0.0205	0.2661	1084.9791	0.163024	-419.237348	-419.229532	-419.228587	-419.26965	30.619	
O	 0.0686953451	-0.0481305081	-0.0333625429	-0.401457
C	 0.0342912307	 1.173784966	 0.0114825234	 0.369668
N	-1.1401202266	 1.8618164383	 0.0791794408	-0.333002
C	-1.319541108	 3.3075260852	-0.0026217269	-0.149943
C	-0.0515877265	 4.0423117477	 0.4321218156	-0.212595
C	 1.1628252197	 3.4692052324	-0.3041925623	-0.289923
C	 1.3014036387	 1.9968186245	 0.0209349541	 0.239188
C	 2.3410959697	 1.4921654976	 0.9721169039	-0.262629
N	 2.495353266	 1.3006877653	-0.4698175754	-0.360033
H	-1.9588601691	 1.273226535	 0.0218437667	 0.248118
H	-1.5798548993	 3.6011797226	-1.0309504197	 0.111115
H	-2.1651605381	 3.5893445157	 0.6342218645	 0.113653
H	-0.1705496083	 5.1104326666	 0.2271920469	 0.105924
H	 0.0845471561	 3.9291883465	 1.5142547585	 0.112212
H	 1.0340959638	 3.5936567572	-1.3875878487	 0.108763
H	 2.081073488	 3.9984466373	-0.0343119818	 0.1095
H	 3.0254854817	 2.2066325281	 1.4230433682	 0.114085
H	 2.0858670983	 0.6306549349	 1.5817038215	 0.130559
H	 2.2059063081	 0.3471637471	-0.6928382163	 0.246799
89.7147	137.9401	254.355	279.6356	305.0298	372.9316	402.532	464.638	546.2976	595.2672	636.0655	668.0008	767.2496	841.7799	867.4858	884.5386	918.7268	953.2399	985.074	1003.5212	1009.5964	1103.1465	1109.8386	1119.3367	1140.9132	1189.1665	1215.5917	1269.0545	1294.6685	1308.0836	1340.7059	1375.4137	1376.7753	1402.1029	1418.2573	1478.4753	1484.7559	1493.9407	1500.9745	1529.1394	1763.8165	2986.933	3024.0038	3038.3037	3059.5596	3086.7149	3091.5117	3106.4053	3202.8034	3458.2278	3607.0907
O=C1NCCCC11CN1	O=C1NCCC[C@]21CN2	
InChI=1S/C6H10N2O/c9-5-6(4-8-6)2-1-3-7-5/h8H,1-4H2,(H,7,9)	InChI=1S/C6H10N2O/c9-5-6(4-8-6)2-1-3-7-5/h8H,1-4H2,(H,7,9)/t6-/m1/s1
