15
gdb 61160	3.10137	1.01949	0.85649	3.0366	68.74	-0.2708	-0.0926	0.1782	1304.1774	0.110596	-453.976444	-453.966884	-453.96594	-454.01249	31.814	
C	-0.5302107698	 1.3067275943	-0.1163600241	-0.37597
N	-0.0693179995	-0.0792665474	-0.1023976736	-0.111167
C	-0.0841514271	-0.7495954453	 1.1928264681	-0.304576
C	-1.4467966152	-0.9199929501	 1.7153799063	 0.271944
N	-2.5200580883	-1.0337823579	 2.126878131	-0.300098
C	 0.3595251176	-0.812957182	-1.1694216001	 0.326779
O	 0.7262197984	-1.9758389216	-1.0882414444	-0.35724
C	 0.4312804679	-0.2163655359	-2.5896556305	 0.105106
O	 0.1882098565	 0.9017412362	-2.9548599542	-0.237094
H	-0.4763491099	 1.7071688052	-1.1232139786	 0.196996
H	-1.5631067419	 1.3588984418	 0.2447909499	 0.156483
H	 0.0984143602	 1.9117263334	 0.5481182517	 0.134376
H	 0.3856915878	-1.7274180249	 1.066146158	 0.200838
H	 0.4978775031	-0.1703029534	 1.9203972008	 0.16007
H	 0.7749855802	-1.0148008123	-3.2761824704	 0.133554
42.2919	46.068	101.0727	128.0322	164.7774	262.811	288.9662	321.2451	373.2659	389.7356	501.7056	552.9425	597.4231	696.3395	761.3082	919.342	957.3664	1030.4739	1033.552	1163.4353	1166.515	1225.9922	1292.2002	1369.817	1379.5138	1438.3312	1460.121	1473.9517	1504.5721	1528.5735	1738.7521	1831.2071	2363.9138	2960.889	3028.6876	3036.8918	3083.4806	3120.0978	3210.1576
CN(CC#N)C(=O)C=O	CN(CC#N)C(=O)C=O	
InChI=1S/C5H6N2O2/c1-7(3-2-6)5(9)4-8/h4H,3H2,1H3	InChI=1S/C5H6N2O2/c1-7(3-2-6)5(9)4-8/h4H,3H2,1H3
