21
gdb 68547	2.31365	1.86881	1.49908	0.1639	86.85	-0.2194	0.0164	0.2358	1015.5705	0.182847	-349.908625	-349.9007	-349.899756	-349.940284	33.014	
C	-0.0194680272	 1.5530879179	 0.010677096	-0.517112
C	-0.0217594945	 0.0432304162	-0.009585728	 0.21526
C	 0.3742372931	-0.8029860909	-1.2776715689	-0.242626
C	-0.3534962412	-1.9374339956	-0.4774927925	-0.168083
C	 0.5511971517	-2.0156941906	 0.7629158884	-0.089801
C	 0.7655222591	-0.7332981958	 1.0668938878	-0.116992
C	-1.3266211277	-0.815436481	-0.0311432822	 0.432001
C	-2.51440512	-0.8329033473	 0.863336257	-0.367068
C	-2.6562115864	-0.4590534144	-0.6091433609	-0.361777
H	 0.9980287637	 1.9459936345	-0.0936340851	 0.119333
H	-0.6193746814	 1.9636915178	-0.8080654645	 0.116625
H	-0.4269788826	 1.9390865033	 0.9523747753	 0.117211
H	-0.1621438471	-0.4948494635	-2.1808397755	 0.091643
H	 1.4413414047	-0.9373347557	-1.4720462648	 0.086105
H	-0.6975242305	-2.8591980111	-0.9461574986	 0.057564
H	 0.8975879283	-2.9151194821	 1.2518932837	 0.096644
H	 1.3349223638	-0.2917396389	 1.8734289011	 0.093416
H	-2.909247608	-1.7915324932	 1.1851864781	 0.10981
H	-2.6256823532	-0.0402081892	 1.5971151046	 0.108704
H	-2.8625943786	 0.5803635264	-0.8475427702	 0.10946
H	-3.1462960558	-1.1681615669	-1.2696643808	 0.109681
179.9704	183.3861	216.3524	232.5394	309.784	340.7586	434.9278	534.7054	563.4223	589.1851	618.8105	721.3916	726.4132	772.639	816.7883	842.5259	873.6534	902.7206	909.4221	927.62	936.0739	963.1765	992.2925	1029.4588	1045.7448	1059.0434	1075.1471	1090.1219	1113.4283	1159.3317	1179.325	1193.4307	1204.999	1214.2457	1245.3324	1278.577	1342.892	1382.2339	1411.6477	1459.4973	1487.1457	1493.0295	1495.9042	1508.2108	1626.2824	3024.7435	3045.2292	3086.983	3096.2854	3115.0585	3116.0932	3118.6638	3121.563	3192.0541	3207.2449	3212.2263	3240.9091
CC12CC(C=C1)C21CC1	C[C@@]12C[C@@H](C=C1)C12CC1	
InChI=1S/C9H12/c1-8-3-2-7(6-8)9(8)4-5-9/h2-3,7H,4-6H2,1H3	InChI=1S/C9H12/c1-8-3-2-7(6-8)9(8)4-5-9/h2-3,7H,4-6H2,1H3/t7-,8+/m1/s1
