20
gdb 10862	3.4023	1.64998	1.41365	1.8827	70.69	-0.2452	0.0762	0.3215	975.9177	0.178446	-386.157319	-386.149427	-386.148483	-386.18909	31.052	
C	 0.039929647	 1.518937187	 0.0883240095	-0.40046
C	 0.0510703279	 0.0010328909	-0.0045503554	 0.148398
C	 0.7038473755	-0.5255706096	-1.289349155	-0.207418
C	 0.848988406	-2.0556510427	-1.2522265562	-0.229959
C	 1.506566399	-2.5006881572	 0.064685545	 0.143521
O	 2.8686284653	-2.0961928073	 0.1314656832	-0.447459
C	 0.7314146179	-1.9013077829	 1.2389746215	-0.1091
O	 0.7510760304	-0.4826475424	 1.1476837621	-0.274167
H	 1.0615785959	 1.9107941485	 0.0562114654	 0.120811
H	-0.5217715739	 1.950564385	-0.7454728382	 0.115539
H	-0.4212759236	 1.8421970653	 1.0252493073	 0.123956
H	-0.9864055368	-0.376129789	 0.0443477441	 0.063568
H	 0.1145417108	-0.2122856577	-2.1581721523	 0.096079
H	 1.6942286378	-0.0649907786	-1.3940740148	 0.101667
H	-0.1395228987	-2.5275713139	-1.3327412333	 0.090291
H	 1.4481345153	-2.408226112	-2.0970645502	 0.10516
H	 1.5037319702	-3.5943946568	 0.1364289324	 0.076868
H	 2.8610381502	-1.1809778071	 0.4378449606	 0.284113
H	-0.3052233463	-2.2755025467	 1.256302474	 0.087025
H	 1.21290769	-2.1562004527	 2.1874116002	 0.111567
111.7226	203.7629	222.3949	245.7301	303.7163	378.5801	401.6972	453.9558	483.082	502.9044	518.1444	731.0775	796.1163	828.1973	859.9302	881.6733	947.343	971.192	998.3546	1026.0901	1068.4636	1091.8061	1118.8429	1150.3978	1163.3582	1222.1251	1233.927	1258.554	1308.0208	1336.345	1349.0329	1372.9769	1382.6235	1395.8057	1405.0911	1411.534	1432.1226	1474.685	1483.007	1486.2899	1490.8124	1500.4027	2940.7156	2976.1741	3020.6069	3029.8035	3042.0118	3049.4164	3074.0443	3085.0458	3089.8941	3114.1268	3122.1685	3782.7084
CC1CCC(O)CO1	C[C@H]1CC[C@@H](O)CO1	
InChI=1S/C6H12O2/c1-5-2-3-6(7)4-8-5/h5-7H,2-4H2,1H3	InChI=1S/C6H12O2/c1-5-2-3-6(7)4-8-5/h5-7H,2-4H2,1H3/t5-,6+/m0/s1
