20
gdb 75029	2.76087	1.48724	1.04764	1.5937	88.83	-0.2119	-0.0171	0.1948	1178.488	0.173039	-366.003941	-365.995922	-365.994978	-366.036173	31.966	
C	-0.5903484703	 1.466053281	 0.2095155533	-0.476911
C	-0.0082540068	 0.1100245009	-0.0748586045	 0.294218
C	-0.1733067447	-0.4952487355	-1.2640666434	-0.161237
C	 0.3648670538	-1.7931168616	-1.6671308489	-0.068594
C	 0.5950203853	-2.8688263901	-0.897723561	-0.083214
C	 0.225697507	-3.0014383072	 0.5347701575	-0.06192
N	 1.2983567489	-2.9570518505	 1.5631261183	-0.344169
C	 0.2987866597	-1.8726756916	 1.4893340212	-0.025286
C	 0.8239609777	-0.5274640429	 1.019408305	-0.31615
H	-1.2724748981	 1.4303677452	 1.069825096	 0.122854
H	 0.1961230071	 2.1856458569	 0.4733536567	 0.126211
H	-1.1432583183	 1.8622198319	-0.6463528361	 0.119572
H	-0.717548804	 0.0432860867	-2.0385461985	 0.076799
H	 0.5844585933	-1.8866597776	-2.7301090357	 0.087052
H	 1.0012102571	-3.7640236247	-1.3646303616	 0.088721
H	-0.5605527862	-3.7367000563	 0.7125240128	 0.088292
H	 1.0609879159	-3.5972890627	 2.316754945	 0.227401
H	-0.4635997607	-1.8370285503	 2.2650510922	 0.079777
H	 1.8356746239	-0.7079703463	 0.6361908409	 0.13329
H	 0.9239511196	 0.1534632649	 1.8715878606	 0.093294
112.931	165.2486	212.9907	276.897	315.6702	353.2837	360.3341	435.9635	486.7556	558.1279	632.1696	732.4196	792.3059	801.1166	833.6302	866.0494	904.2728	924.1115	949.8232	966.0593	1002.0848	1006.0387	1021.8531	1056.4587	1075.4515	1127.4449	1149.7322	1176.7346	1221.2877	1245.0501	1261.9481	1281.6734	1336.3151	1377.6385	1392.4246	1411.1066	1439.6654	1469.6877	1474.9792	1477.277	1489.8904	1679.5846	1708.6492	3008.2856	3030.8235	3051.7973	3073.7316	3086.5546	3109.6592	3121.2414	3125.436	3135.2405	3151.7001	3497.7144
CC1=CC=CC2NC2C1	CC1=CC=C[C@H]2N[C@H]2C1	
InChI=1S/C8H11N/c1-6-3-2-4-7-8(5-6)9-7/h2-4,7-9H,5H2,1H3	InChI=1S/C8H11N/c1-6-3-2-4-7-8(5-6)9-7/h2-4,7-9H,5H2,1H3/t7-,8+/m1/s1
