23
gdb 121236	3.0308	0.79891	0.68051	2.0939	82.73	-0.24	0.0701	0.3101	1733.4796	0.204466	-425.406423	-425.395846	-425.394901	-425.443196	37.47	
C	 0.2286272027	 1.5505541595	-0.032424922	-0.384008
C	 0.0177542231	 0.0575607989	 0.2292623012	-0.165429
C	-1.3216299458	-0.4638464189	-0.3078209936	-0.190755
C	-1.523258234	-1.9380464462	 0.0016690188	 0.123858
O	-1.5925413404	-2.2067975296	 1.4245165766	-0.296537
C	-2.7518870659	-3.0499947343	 1.2518747466	-0.072079
C	-2.8898123185	-2.639716396	-0.2275625488	-0.050156
C	-4.0942587054	-1.7711750435	-0.5406807261	-0.096755
O	-5.2329717936	-2.6211933366	-0.4988363305	-0.425533
H	 1.1910413628	 1.8915701108	 0.3617082957	 0.112533
H	 0.2104961468	 1.7741690179	-1.1053346089	 0.110194
H	-0.5557794947	 2.150744658	 0.4421874571	 0.113618
H	 0.836105979	-0.5159654591	-0.2258359508	 0.092788
H	 0.0624903928	-0.1442394387	 1.3052670792	 0.121373
H	-2.1395568481	 0.121443194	 0.1288899268	 0.095097
H	-1.3686836143	-0.3216623649	-1.3966547771	 0.091647
H	-0.6976856029	-2.5131164891	-0.4473743725	 0.066784
H	-2.5159836696	-4.1085555528	 1.419895362	 0.097048
H	-3.5783898167	-2.7604068307	 1.9108711003	 0.105655
H	-2.8626932459	-3.4675509946	-0.9399335718	 0.082435
H	-4.1811190519	-0.9602579095	 0.1987327412	 0.092958
H	-3.9794449849	-1.3042124803	-1.5319953864	 0.087686
H	-6.0178132545	-2.0809133145	-0.6283178869	 0.287579
52.1435	78.2437	93.7697	100.1972	118.8036	213.8897	246.1629	267.2843	296.097	321.7284	396.0192	488.5794	518.8195	743.4692	796.7084	844.7217	868.0174	888.5933	910.8286	931.9294	969.9308	1018.1311	1046.5784	1067.8719	1069.325	1110.1582	1125.9454	1147.8966	1167.608	1172.9725	1218.2421	1249.9914	1265.7369	1279.748	1289.0853	1304.3742	1329.1336	1354.5202	1374.4633	1384.0597	1410.5552	1416.9846	1462.448	1471.7433	1493.0698	1500.0291	1509.3026	1518.2376	1530.359	2967.3228	2968.7791	2999.8765	3011.9989	3014.7403	3021.6641	3027.5838	3056.6452	3060.8906	3072.3219	3086.0232	3096.5075	3101.015	3830.4213
CCCC1OCC1CO	CCC[C@H]1OC[C@H]1CO	
InChI=1S/C7H14O2/c1-2-3-7-6(4-8)5-9-7/h6-8H,2-5H2,1H3	InChI=1S/C7H14O2/c1-2-3-7-6(4-8)5-9-7/h6-8H,2-5H2,1H3/t6-,7-/m1/s1
