16
gdb 108739	3.14454	1.21044	0.93457	1.9768	73.89	-0.2652	-0.0871	0.1781	1229.5584	0.124728	-437.976162	-437.967766	-437.966822	-438.009712	30.555	
C	-0.2363135697	 1.5097294607	-0.0723625513	-0.384543
C	 0.0812488202	 0.0041810385	 0.0212402626	-0.289881
C	 0.805575872	-0.5025327729	-1.1810793068	 0.227692
C	 2.0668605519	-0.9213006637	-1.3405974081	-0.359154
C	 2.292541344	-1.3172502738	-2.764960717	 0.445467
O	 3.2940077151	-1.7403606418	-3.2853472001	-0.338805
N	 1.067603929	-1.0945654463	-3.4052745095	-0.404025
C	 0.1117224402	-0.6072401345	-2.5234837923	 0.392207
O	-1.034926361	-0.3327709521	-2.7834396249	-0.342497
H	 0.6816716964	 2.1000537216	-0.149409821	 0.122744
H	-0.8565660989	 1.7167161829	-0.9474951211	 0.150445
H	-0.778642786	 1.8364794803	 0.8191997864	 0.122906
H	 0.6745826608	-0.203040332	 0.9172547841	 0.113516
H	-0.8616447765	-0.5474840384	 0.1161412784	 0.132607
H	 2.8533233824	-0.9938790293	-0.6021828072	 0.136887
H	 0.9001303	-1.2753048891	-4.3820790521	 0.274434
60.4729	127.8201	141.4018	196.6566	252.8568	292.6143	383.9188	466.7982	521.057	558.4395	604.0926	654.042	733.4155	752.139	796.6729	814.3536	894.4132	926.2953	954.5778	1054.0832	1087.5223	1103.7786	1181.1049	1261.641	1316.6363	1336.2462	1346.3081	1356.0347	1404.3869	1476.2517	1496.4478	1510.6304	1689.2748	1820.7919	1859.6826	3037.9525	3046.4139	3083.7206	3117.3398	3135.3702	3236.5866	3658.8096
CCC1=CC(=O)NC1=O	CCC1=CC(=O)NC1=O	
InChI=1S/C6H7NO2/c1-2-4-3-5(8)7-6(4)9/h3H,2H2,1H3,(H,7,8,9)	InChI=1S/C6H7NO2/c1-2-4-3-5(8)7-6(4)9/h3H,2H2,1H3,(H,7,8,9)
