18
gdb 93315	2.11229	1.67084	1.13175	3.1122	78.61	-0.2577	0.0158	0.2735	1126.7186	0.14739	-401.937826	-401.929058	-401.928114	-401.971224	32.96	
C	-0.3612165177	 1.45733225	-0.0383544394	-0.423442
C	 0.0673959237	-0.0035974313	 0.0163584681	-0.004221
C	 1.0590830584	-0.4246721024	-1.0750569674	-0.090735
O	 1.6652931218	-1.6355221346	-0.5925328462	-0.237941
C	 1.5402880483	-1.7238647867	 0.7632754325	 0.409342
N	 1.9337250872	-2.687397299	 1.4723469001	-0.534722
C	 0.8281287369	-0.4740732013	 1.2884729519	-0.269639
C	 1.7990283511	 0.4982816912	 1.7816023071	 0.360055
C	 2.5994374595	 1.3048499977	 2.173340452	-0.487898
H	 0.4958936267	 2.1242490891	 0.0869088882	 0.138255
H	-0.8377235691	 1.68256973	-0.9981766136	 0.118324
H	-1.0827435184	 1.6850138867	 0.7519454213	 0.126545
H	-0.8163113716	-0.6472674985	-0.0702548224	 0.095379
H	 0.5875002536	-0.6447392523	-2.0355944439	 0.120882
H	 1.8376154325	 0.3342006572	-1.2240405311	 0.120434
H	 2.3832542204	-3.3996779651	 0.8939441402	 0.224105
H	 0.1510243137	-0.7588309485	 2.0974998248	 0.132106
H	 3.311795453	 2.0036748479	 2.5368504679	 0.203172
78.1633	136.9834	170.8235	187.996	215.1676	276.0604	381.5301	405.849	441.8952	530.5848	623.8986	634.5201	641.0861	670.9181	680.6321	844.9317	884.6069	892.471	924.2645	962.7218	980.9277	1011.1768	1085.2957	1104.2802	1150.7537	1165.0077	1206.3619	1246.3209	1280.7924	1305.158	1355.8287	1363.1945	1409.4601	1418.2782	1495.5235	1500.5314	1516.8472	1781.0796	2234.5059	3027.4211	3038.8679	3040.9687	3084.7593	3105.0858	3106.1734	3123.7649	3470.6247	3502.8127
CC1COC(=N)C1C#C	C[C@H]1CO[C]([NH])[C@H]1C#C	
InChI=1S/C7H9NO/c1-3-6-5(2)4-9-7(6)8/h1,5-6,8H,4H2,2H3	InChI=1S/C7H9NO/c1-3-6-5(2)4-9-7(6)8/h1,5-6,8H,4H2,2H3/t5-,6-/m0/s1
