18
gdb 98569	4.13121	1.02168	0.83445	1.5328	76.36	-0.2204	-0.0241	0.1963	1378.4626	0.149686	-435.318187	-435.30919	-435.308245	-435.352605	31.857	
C	-0.0235026281	 1.40355972	-0.0349134795	-0.335288
N	 0.1169929911	-0.0341065007	 0.0357222275	-0.309137
C	 0.7182278853	-0.6664536086	 1.0663016345	 0.355733
O	 1.2259577693	-0.1321003965	 2.0416917196	-0.399044
C	 0.7047504921	-2.1649582456	 0.9277528731	 0.298752
N	 0.0824364138	-2.8013460625	 0.0038524289	-0.335513
C	 0.3402567744	-4.2312723978	 0.2661766996	-0.166711
C	 0.9623925577	-4.290679337	 1.6934380054	-0.182044
N	 1.4050240595	-2.9028746546	 1.8476460166	-0.332907
H	 0.4411228143	 1.8021139161	-0.9433451442	 0.13013
H	-1.0776401217	 1.7032882498	-0.022487796	 0.129904
H	 0.4763219278	 1.8280029842	 0.8370258451	 0.167936
H	-0.2717903955	-0.6350730583	-0.6777543514	 0.266637
H	-0.5797835479	-4.8151821308	 0.1782980224	 0.114128
H	 1.0415813422	-4.6115986833	-0.4882097018	 0.115436
H	 0.2146557967	-4.5615628094	 2.452392353	 0.106915
H	 1.7963053911	-4.9933333142	 1.7678161693	 0.115486
H	 1.5841295681	-2.482986771	 2.7474231479	 0.259585
75.8087	92.6733	114.2446	153.2692	179.7337	216.4339	308.1333	385.0936	485.9621	552.3565	570.7902	627.615	729.577	804.0513	814.3456	866.1096	910.6789	980.1699	1002.2236	1034.6999	1071.1832	1108.9408	1153.2027	1182.059	1199.8041	1222.3262	1239.4643	1283.0245	1311.6524	1355.4292	1443.6718	1477.0659	1493.8642	1498.1994	1501.9453	1530.9202	1588.451	1685.7315	1777.3816	2999.3612	3020.3618	3028.1911	3080.2131	3081.3099	3090.9919	3149.1546	3598.8286	3627.6634
CNC(=O)C1=NCCN1	CNC(=O)[C]1[N]CCN1	
InChI=1S/C5H9N3O/c1-6-5(9)4-7-2-3-8-4/h2-3H2,1H3,(H,6,9)(H,7,8)	InChI=1S/C5H9N3O/c1-6-5(9)4-7-2-3-8-4/h2-3H2,1H3,(H,6,9)(H,7,8)
