20
gdb 11966	2.82843	1.88765	1.72135	1.6414	74.47	-0.2378	0.0822	0.32	915.3005	0.175397	-348.982038	-348.973552	-348.972608	-349.014478	32.552	
C	-0.2369314748	 1.5222666114	 0.1569940322	-0.424026
C	-0.0052315954	 0.0205298178	 0.0502338028	 0.359042
C	-1.2322323008	-0.7185795366	-0.4679214939	-0.424026
O	 1.1520454441	-0.2561640845	-0.8008264333	-0.332577
C	 1.8811188195	-0.8800478985	 0.2750592333	-0.14075
C	 0.7275674254	-0.6357633838	 1.2364913271	 0.269496
C	 0.7858206458	-0.2065910304	 2.6690819816	-0.328912
C	 0.1904491643	-1.5469604212	 2.2953211367	-0.328913
H	 0.661525685	 2.0278751608	 0.5199265357	 0.118939
H	-0.4912472582	 1.9328689977	-0.8255387532	 0.121656
H	-1.0622248129	 1.7456078765	 0.8420984571	 0.109699
H	-1.5029075871	-0.3451572688	-1.460862593	 0.121659
H	-1.0346259214	-1.7907822127	-0.5448577412	 0.118937
H	-2.0909017199	-0.570147544	 0.1961663469	 0.109698
H	 2.1136473515	-1.9320286267	 0.0601804416	 0.097132
H	 2.8163853079	-0.3499854601	 0.5013676297	 0.097133
H	 1.7552094889	-0.1920459183	 3.1579352668	 0.113131
H	 0.1105805496	 0.5756497689	 3.0010999116	 0.114775
H	-0.8853346222	-1.6664757765	 2.3758887683	 0.114775
H	 0.7547298105	-2.4444494312	 2.5298526432	 0.113131
74.5687	193.8372	205.0313	216.8445	262.1808	279.4925	344.2404	370.5558	416.8558	503.6073	560.4262	658.5433	778.2014	858.3955	868.2476	893.4566	920.9979	935.6452	960.3375	998.6921	999.8148	1026.1789	1057.8581	1079.4989	1098.0588	1152.6586	1166.822	1187.9988	1209.5573	1237.9977	1292.053	1326.1895	1395.1325	1405.4675	1412.1391	1463.9455	1473.65	1478.5591	1494.4838	1497.8846	1511.2829	1528.1601	2994.3503	3030.4056	3031.6307	3036.6209	3097.8809	3105.7334	3118.5895	3120.6266	3121.7859	3125.3501	3198.5337	3213.3578
CC1(C)OCC11CC1	CC1(C)OCC21CC2	
InChI=1S/C7H12O/c1-6(2)7(3-4-7)5-8-6/h3-5H2,1-2H3	InChI=1S/C7H12O/c1-6(2)7(3-4-7)5-8-6/h3-5H2,1-2H3
