17
gdb 10686	2.8352	1.85002	1.348	3.8706	68.46	-0.2973	0.0052	0.3025	957.8777	0.140529	-363.85814	-363.849599	-363.848655	-363.891067	31.133	
C	-0.123783225	 1.5509753856	 0.4436065616	-0.4006
C	-0.0335064277	 0.0829363261	-0.0066181685	-0.050639
C	 0.9429885021	-0.7081164932	 0.8709578521	-0.419206
C	-1.4357974171	-0.5304235486	-0.0252433363	 0.254247
C	-1.7596634772	-1.907198239	 0.4054670238	-0.216383
O	-2.0504958274	-0.7905200801	 1.2426367391	-0.252362
C	-2.3357008224	 0.0698621905	-1.0033732455	 0.273606
N	-3.0184081352	 0.5520938139	-1.8016079302	-0.336273
H	 0.8621377185	 2.022031021	 0.4007545375	 0.119994
H	-0.8018469538	 2.1263939685	-0.1930860958	 0.14105
H	-0.4883622627	 1.6132329013	 1.4738363069	 0.135553
H	 0.3254944596	 0.0600848712	-1.0439225428	 0.099196
H	 1.1474327163	-1.7034496288	 0.4662886838	 0.118459
H	 1.8964981464	-0.1765421688	 0.9329236537	 0.123156
H	 0.5513011216	-0.8167463726	 1.8868660522	 0.139912
H	-2.6252326662	-2.4063029372	-0.0255014246	 0.138859
H	-0.9595895699	-2.5565586598	 0.7496955529	 0.131431
60.7363	149.6263	203.8644	235.4542	242.1749	273.3174	302.7431	369.9175	418.3679	493.8331	570.635	603.1746	658.6453	850.0402	853.3312	920.027	933.3814	960.0038	984.2172	1109.5453	1121.4386	1134.2791	1174.9922	1178.7397	1219.9429	1336.6432	1356.6006	1369.9053	1401.251	1423.5369	1491.7932	1493.9088	1505.6963	1513.4291	1527.3546	2356.2052	3026.002	3040.9788	3044.6619	3104.4355	3113.8867	3115.2308	3118.5442	3121.2783	3201.1472
CC(C)C1(CO1)C#N	CC(C)[C@]1(CO1)C#N	
InChI=1S/C6H9NO/c1-5(2)6(3-7)4-8-6/h5H,4H2,1-2H3	InChI=1S/C6H9NO/c1-5(2)6(3-7)4-8-6/h5H,4H2,1-2H3/t6-/m1/s1
