19
gdb 91158	2.27377	1.87837	1.312	0.4223	75.02	-0.2446	-0.0012	0.2434	1019.1091	0.160416	-423.013052	-423.00515	-423.004206	-423.045229	31.357	
C	 0.6128021993	 1.2858803074	-0.523741589	-0.425324
C	 0.0406400291	 0.0202639348	 0.0926952997	 0.153432
O	 0.214843281	-1.1260099346	-0.7824199166	-0.315235
C	 0.9448996341	-1.8442542638	 0.2432664032	 0.088303
C	 2.43614449	-1.8633172444	 0.0252130357	-0.085394
C	 3.0662162646	-1.0485201711	 0.8715654304	-0.125433
C	 2.1257458168	-0.3290030654	 1.8196662786	 0.086482
O	 2.3872056883	 1.0590174961	 1.9703457886	-0.432877
C	 0.7260541086	-0.7244947726	 1.2826577985	-0.149072
H	 1.662179161	 1.1554304954	-0.8060844046	 0.118092
H	 0.0616979471	 1.5159294486	-1.4413808372	 0.128477
H	 0.5119008269	 2.1371508362	 0.1568845699	 0.127221
H	-1.027844785	 0.1747817848	 0.2922510874	 0.081471
H	 0.5096726185	-2.8343805975	 0.4191423767	 0.081042
H	 2.9050697215	-2.4731660919	-0.739126663	 0.105614
H	 4.1383971573	-0.8876123243	 0.9225829209	 0.104869
H	 2.2415436805	-0.7222002706	 2.8378739796	 0.09737
H	 2.4566582551	 1.4459033585	 1.0927492684	 0.281234
H	 0.0245051354	-0.9387789457	 2.0883136426	 0.079729
86.7349	202.4016	217.8655	276.3238	320.4386	361.8818	384.0543	412.0493	521.1339	559.478	660.5768	728.8613	764.2106	805.6567	849.1173	874.6466	912.6249	942.8556	984.0409	988.7752	1018.4785	1031.3297	1067.775	1088.5653	1110.5967	1133.6827	1169.493	1216.4139	1258.2791	1261.7737	1273.6121	1315.2919	1329.4897	1344.1698	1374.4869	1394.547	1403.6068	1434.5604	1489.113	1512.7453	1672.4292	3009.9529	3021.5517	3033.0381	3042.8389	3102.7302	3111.6554	3114.643	3179.7927	3205.9481	3838.0666
CC1OC2C=CC(O)C12	C[C@H]1O[C@H]2C=C[C@@H](O)[C@@H]12	
InChI=1S/C7H10O2/c1-4-7-5(8)2-3-6(7)9-4/h2-8H,1H3	InChI=1S/C7H10O2/c1-4-7-5(8)2-3-6(7)9-4/h2-8H,1H3/t4-,5-,6+,7-/m1/s1
