20
gdb 16243	2.95896	1.99901	1.55827	1.5364	74.06	-0.241	0.0866	0.3276	917.3878	0.17799	-348.997352	-348.989446	-348.988502	-349.029647	30.245	
C	 0.3216474068	 1.6607373386	-0.136065685	-0.392765
C	 0.0020396864	 0.1757238859	 0.0751166012	-0.08439
C	 0.5802255433	-0.7012310789	-1.0461392254	-0.077868
O	 1.953895931	-0.8767101354	-0.7132503015	-0.262875
C	 2.0819777163	-0.897858088	 0.7077444381	-0.133284
C	 0.7342533439	-0.4381537635	 1.2698158358	 0.358738
C	 0.5845689957	 0.0494192695	 2.6812304288	-0.333463
C	 0.0015032538	-1.2857723579	 2.2791422028	-0.322344
H	 1.391884734	 1.8069133436	-0.3125448537	 0.129545
H	-0.2179143205	 2.0554531397	-1.0033754495	 0.110688
H	 0.0382558065	 2.2574089183	 0.7363114617	 0.11192
H	-1.0805955461	 0.0387906586	 0.1654438619	 0.069282
H	 0.0591654444	-1.6713426848	-1.0888800359	 0.085463
H	 0.5351008843	-0.2395967289	-2.0373314913	 0.101226
H	 2.3421513097	-1.9085501161	 1.0551194018	 0.092733
H	 2.904575049	-0.2249380241	 0.982156513	 0.10078
H	 1.463663673	 0.0531757813	 3.318594258	 0.11244
H	-0.1002808926	 0.8693015627	 2.8732316718	 0.112842
H	-1.0778862475	-1.3668014141	 2.1980405633	 0.110708
H	 0.4902209987	-2.1853773066	 2.6407126042	 0.110627
58.7721	164.5008	212.7148	226.3136	288.6486	307.2157	373.5242	494.5784	520.5387	703.9183	761.2323	784.2727	858.5041	880.0918	921.2797	935.6843	943.5104	965.3426	989.4688	1028.5663	1058.3828	1062.8881	1082.4221	1098.4946	1127.3843	1159.8081	1189.488	1217.6345	1237.2077	1258.6897	1286.7275	1334.9936	1356.1748	1372.5085	1404.9581	1422.2631	1468.7267	1495.2088	1498.5954	1506.9178	1516.9245	1530.0236	2971.003	2990.2826	3030.5292	3035.2053	3054.2754	3078.2765	3101.968	3111.6596	3119.1189	3123.298	3196.2083	3211.554
CC1COCC11CC1	C[C@H]1COCC21CC2	
InChI=1S/C7H12O/c1-6-4-8-5-7(6)2-3-7/h6H,2-5H2,1H3	InChI=1S/C7H12O/c1-6-4-8-5-7(6)2-3-7/h6H,2-5H2,1H3/t6-/m0/s1
