13
gdb 24793	3.54166	1.29341	0.94742	5.0495	76.8	-0.2332	-0.0774	0.1558	1130.9305	0.092035	-411.830132	-411.822854	-411.82191	-411.862164	26.982	
N	-0.0946211397	 1.3355415908	 0.0082236536	-0.531372
C	-0.0361399185	 0.0584921764	 0.0013064388	 0.323428
C	-1.2517587585	-0.7561663147	 0.0033227788	-0.11625
C	-1.1764134323	-2.0962322293	-0.0040210337	-0.014628
N	 0.0627181075	-2.7151153622	-0.0136067579	-0.362934
C	 1.1869448429	-1.92783235	-0.0152765452	 0.315419
N	 1.199052109	-0.6439860981	-0.0086732024	-0.347058
C	 2.4369015037	-2.6558108554	-0.0254574381	 0.25122
N	 3.4141795807	-3.2722492755	-0.033661331	-0.306443
H	 0.8552860378	 1.7126739672	 0.0053032647	 0.222197
H	-2.2077002362	-0.2502848871	 0.0108590831	 0.132992
H	-2.0331208086	-2.7572004135	-0.0030525505	 0.147028
H	 0.148951742	-3.7182959884	-0.0192062304	 0.2864
111.0645	140.197	152.4398	387.9859	407.8556	418.7387	469.7641	484.5279	535.4886	586.7644	686.3709	737.8024	756.3405	837.5442	903.6409	909.2848	973.7509	999.2211	1062.3132	1138.8068	1217.9181	1247.5732	1336.1844	1423.9263	1505.1894	1631.5657	1676.279	1719.2484	2362.4041	3220.6154	3238.9864	3465.1432	3653.6901
N=C1C=CNC(=N1)C#N	[NH]C1=N[C@@H](NC=C1)C#N	
InChI=1S/C5H4N4/c6-3-5-8-2-1-4(7)9-5/h1-2H,(H2,7,8,9)	InChI=1S/C5H5N4/c6-3-5-8-2-1-4(7)9-5/h1-2,5,7-8H/t5-/m1/s1
