15
gdb 66524	5.00969	1.33233	1.29639	3.1643	68.18	-0.2227	-0.005	0.2177	957.2759	0.113008	-420.557536	-420.551001	-420.550057	-420.588224	26.79	
O	-0.1553601715	 1.3991762486	 0.0378648103	-0.450796
C	 0.0277725568	 0.0482876946	-0.017808267	 0.38405
C	 0.1128460743	-1.0262415075	 1.0379582545	-0.176296
C	-1.0075728127	-1.0272534809	-0.0707538747	-0.126189
C	-0.3198018915	-1.8453294924	-1.1744634229	-0.181011
C	 0.9263031158	-0.8898690508	-0.9179809387	-0.155982
C	 1.2115913013	-1.8332403355	 0.3290348858	-0.185615
C	 0.4810699593	-2.9424403854	-0.4506401267	 0.448079
O	 0.6299758157	-4.1202977311	-0.5920463976	-0.327851
H	 0.5844979697	 1.7938706449	 0.5146037326	 0.292914
H	-0.1517575424	-1.004907	 2.0865854367	 0.103529
H	-2.0532254957	-0.9916053144	 0.2018895862	 0.106217
H	-0.8047791428	-2.0004737386	-2.134531059	 0.090008
H	 1.6639059836	-0.6400219117	-1.674586835	 0.092807
H	 2.1817420902	-1.9809681799	 0.7968647855	 0.086136
132.0739	232.5359	334.1795	372.3804	437.9223	524.7157	586.0377	651.3469	683.4962	716.8755	778.6883	785.7746	823.6227	847.2014	910.6906	919.5448	931.0399	975.4905	984.8882	994.8598	1047.0145	1083.2811	1096.8231	1155.6126	1157.8945	1180.285	1186.0091	1209.5887	1237.928	1244.8468	1313.2633	1494.3616	1889.7187	3151.753	3157.6035	3170.2629	3207.1162	3217.2614	3780.7243
OC12C3C1C1C2C3C1=O	O[C@@]12[C@H]3[C@@H]1[C@H]1[C@@H]2[C@@H]3C1=O	
InChI=1S/C7H6O2/c8-6-1-3-2(6)5-4(1)7(3,5)9/h1-5,9H	InChI=1S/C7H6O2/c8-6-1-3-2(6)5-4(1)7(3,5)9/h1-5,9H/t1-,2+,3-,4+,5-,7-
