22
gdb 7200	4.90975	0.82982	0.74649	0.1862	76.84	-0.2479	0.0897	0.3376	1599.1812	0.197011	-387.328702	-387.318017	-387.317073	-387.365266	36.549	
C	-0.6731251213	 1.2460233406	-0.2323391829	-0.381982
C	-0.0356665447	-0.1315770911	-0.1515195556	-0.034888
O	 0.5914850949	-0.2557182739	 1.1094117524	-0.262506
C	 1.1116703175	-1.5429574858	 1.4037401998	 0.122502
C	 2.4066104853	-1.8496009828	 0.6508598987	-0.401105
C	 1.3141847733	-1.5516368221	 2.9182429779	-0.068412
O	 1.7269612583	-2.841744648	 3.3093568103	-0.234175
C	 1.9578622023	-2.9475052302	 4.692821051	-0.223718
H	 0.0854439715	 2.0258648387	-0.1191557734	 0.12584
H	-1.16859599	 1.3816115982	-1.1984717154	 0.112646
H	-1.4145993038	 1.3730943587	 0.5615619385	 0.123989
H	-0.7994167934	-0.9185288026	-0.2719485128	 0.08394
H	 0.6906906343	-0.2601012	-0.9690824191	 0.089088
H	 0.3590246455	-2.3114648092	 1.1603832251	 0.071309
H	 3.1408400511	-1.0568290333	 0.8297543158	 0.116051
H	 2.8199240414	-2.7966472818	 1.0060511739	 0.134966
H	 2.240731033	-1.9299747919	-0.4269409519	 0.111744
H	 2.0680972564	-0.7948603794	 3.1942679515	 0.08988
H	 0.3692895806	-1.2714820837	 3.4098167138	 0.090842
H	 2.2680967966	-3.9753991488	 4.8964732786	 0.125515
H	 2.7527914335	-2.2625094144	 5.0283153542	 0.104291
H	 1.0498254079	-2.7277873072	 5.2765755197	 0.104181
53.1596	66.0597	87.7342	106.0565	140.0169	218.5408	236.6178	240.9541	267.3084	331.1651	341.0427	408.865	493.6707	552.4923	822.3389	844.987	894.5719	932.9019	978.5101	1000.5403	1077.1125	1131.6375	1145.4918	1153.6162	1170.2904	1179.4035	1188.8673	1200.7753	1234.4566	1257.4619	1298.9042	1336.5412	1376.3959	1398.7953	1400.9044	1415.9833	1439.1432	1481.3159	1482.8032	1485.8388	1493.0871	1495.4125	1500.5759	1505.2951	1528.4278	1531.2704	2957.3606	2959.6189	2967.7622	2973.6733	2993.7412	3004.1385	3013.6862	3042.0021	3043.7879	3112.3188	3112.6372	3118.094	3120.4893	3130.9875
CCOC(C)COC	CCO[C@@H](C)COC	
InChI=1S/C6H14O2/c1-4-8-6(2)5-7-3/h6H,4-5H2,1-3H3	InChI=1S/C6H14O2/c1-4-8-6(2)5-7-3/h6H,4-5H2,1-3H3/t6-/m0/s1
