17
gdb 44478	3.85812	1.64113	1.51618	2.8582	72.7	-0.2298	0.0222	0.252	902.2625	0.140862	-417.997351	-417.991327	-417.990382	-418.027551	25.675	
N	-0.0656758341	 1.2393553125	-0.1827975459	-0.556824
C	-0.012529669	-0.0015697554	 0.0338825738	 0.410845
O	 1.1413451293	-0.7496973013	 0.1774761362	-0.255001
C	 0.7298939843	-2.0643808618	 0.529599508	 0.11077
C	-0.0734459964	-2.8739232454	-0.5658728996	-0.055775
C	-0.9378072343	-3.4063159108	 0.5998138448	-0.233604
C	-0.6779012829	-1.9955129468	 1.1763615456	-0.074596
C	-1.1555207305	-0.9874187037	 0.0934701055	-0.090799
N	-0.9885017159	-1.8595259987	-1.123098279	-0.300259
H	 0.8735060516	 1.6387604464	-0.2345530319	 0.223307
H	 1.5298444596	-2.5795997703	 1.0567432301	 0.098004
H	 0.3933387384	-3.5139457328	-1.3124431156	 0.079224
H	-1.959701427	-3.6914776796	 0.3495681857	 0.117666
H	-0.4439946776	-4.1806696195	 1.19102879	 0.106732
H	-0.8344989435	-1.7193617725	 2.2175812927	 0.087042
H	-2.1434686075	-0.541960525	 0.1804819573	 0.099629
H	-0.5483958743	-1.3306172851	-1.8714165977	 0.233638
151.8524	325.5117	381.6198	466.3203	483.6776	555.3048	690.6567	723.9843	765.9248	798.7458	825.4739	856.2546	865.9225	888.4454	895.6399	919.1622	953.5639	989.6898	1022.6776	1028.1521	1040.679	1060.2489	1094.2371	1101.5042	1108.7672	1185.1809	1214.0691	1235.9467	1241.5763	1258.0333	1274.2994	1280.3467	1325.9816	1369.749	1406.1378	1488.9606	1784.8033	3077.3949	3135.6398	3137.2764	3145.689	3149.6823	3154.0961	3467.4025	3504.9681
N=C1OC2C3CC2C1N3	[NH][C]1O[C@@H]2[C@H]3C[C@@H]2[C@@H]1N3	
InChI=1S/C6H8N2O/c7-6-4-2-1-3(8-4)5(2)9-6/h2-5,7-8H,1H2	InChI=1S/C6H8N2O/c7-6-4-2-1-3(8-4)5(2)9-6/h2-5,7-8H,1H2/t2-,3-,4+,5+/m1/s1
