19
gdb 70078	2.60573	1.81466	1.35461	2.6573	80.66	-0.2278	0.0089	0.2367	1008.3141	0.161706	-382.028334	-382.020878	-382.019934	-382.059737	30.616	
C	-0.0549017441	 1.4874760141	 0.0042967814	-0.495648
C	 0.0005443096	-0.0259327097	 0.016976941	 0.348923
N	-0.2949698244	-0.7409490404	 1.2645844506	-0.347607
C	 1.1082387104	-0.7072214019	 0.7593464982	-0.139436
C	 1.6838080346	-1.9610854011	 0.2246988492	-0.035505
C	 1.2601400986	-2.5239050116	-0.9114909855	-0.051994
C	 0.1793182927	-1.9367894706	-1.7342177725	-0.08848
N	-1.2011845405	-1.9528192347	-1.180691024	-0.316887
C	-0.4776392207	-0.6798826982	-1.2606900586	-0.100348
H	 0.483089051	 1.8985037785	-0.8574454673	 0.125012
H	-1.0916897009	 1.8404306472	-0.0530674627	 0.125141
H	 0.3958716682	 1.9069833072	 0.9093010873	 0.113307
H	-0.385744101	-0.062985928	 2.0196140129	 0.222012
H	 1.8015855528	-0.0721274293	 1.3073773239	 0.078048
H	 2.4958218954	-2.4149728127	 0.7864456937	 0.090201
H	 1.7261147396	-3.4356854486	-1.2748830536	 0.090044
H	 0.2739517886	-2.083087415	-2.8080424527	 0.082146
H	-1.8641785907	-2.0071339115	-1.950944026	 0.227675
H	-0.7838918692	 0.0262228963	-2.0292848852	 0.073396
143.7925	215.5518	243.6341	294.7017	321.5674	413.7653	480.0254	523.7242	528.5492	591.0699	687.8252	750.5489	807.5362	825.0065	848.7338	866.8244	909.4632	923.6513	948.4595	972.5747	985.4847	990.1455	1051.221	1092.8731	1100.1667	1126.0671	1162.0004	1177.4735	1195.6918	1218.7097	1255.9336	1281.5204	1332.2676	1398.6673	1413.7047	1434.898	1437.1738	1474.7833	1487.7485	1502.0097	1701.145	3021.3481	3083.3173	3098.6839	3119.2306	3120.8834	3130.2405	3153.2473	3175.1104	3473.8539	3488.067
CC12NC1C=CC1NC21	C[C@]12N[C@H]1C=C[C@H]1N[C@@H]21	
InChI=1S/C7H10N2/c1-7-5(9-7)3-2-4-6(7)8-4/h2-6,8-9H,1H3	InChI=1S/C7H10N2/c1-7-5(9-7)3-2-4-6(7)8-4/h2-6,8-9H,1H3/t4-,5+,6-,7+/m1/s1
