13
gdb 129476	4.44634	1.02682	0.89219	2.1776	60.66	-0.2644	-0.0852	0.1792	1206.3028	0.088857	-486.04252	-486.034684	-486.03374	-486.076231	27.644	
N	 0.2645418782	 0.1439776047	 0.9924285706	-0.513365
C	 0.0438191817	 0.1541830506	-0.3470480483	 0.387617
O	 0.5825207464	 0.9188748747	-1.1171503698	-0.341192
C	-1.0120594156	-0.8562668563	-0.8545294279	-0.404031
C	-0.9362509036	-2.2232707007	-0.2725460029	 0.42073
N	-0.7290877748	-3.3206645803	-0.9440188662	-0.141743
O	-0.7429402159	-4.3026605115	-0.0087258127	-0.131221
N	-0.962425277	-3.7403490746	 1.2359903636	 0.056095
N	-1.0814869404	-2.4980706276	 1.0797193285	-0.219355
H	 0.9317481287	 0.799904084	 1.3645050763	 0.268804
H	-0.1886847316	-0.5087080339	 1.6115394327	 0.282137
H	-1.9997413289	-0.4324141165	-0.6362996845	 0.162607
H	-0.9001808073	-0.9140614426	-1.9362519295	 0.172917
44.8504	65.7249	144.6626	305.524	324.4217	340.0705	394.9739	508.8658	577.0777	663.7084	679.5419	727.7565	733.7811	808.1577	869.5883	942.935	960.8594	1064.9581	1085.4254	1114.3407	1192.7913	1301.9077	1314.1481	1350.443	1454.165	1479.2286	1594.8418	1629.8573	1817.9509	3051.6006	3157.0572	3582.8545	3719.6201
NC(=O)CC1=NON=N1	NC(=O)Cc1nonn1	
InChI=1S/C3H4N4O2/c4-2(8)1-3-5-7-9-6-3/h1H2,(H2,4,8)	InChI=1S/C3H4N4O2/c4-2(8)1-3-5-7-9-6-3/h1H2,(H2,4,8)
