18
gdb 93341	2.23551	1.63554	1.08764	3.0727	72.76	-0.2544	-0.0289	0.2255	1120.4361	0.147438	-439.117415	-439.108787	-439.107843	-439.150972	31.678	
C	 0.4410061018	 1.611126162	-0.0515904281	-0.408128
C	 0.037970522	 0.1380294784	 0.0943435123	-0.028584
C	 0.5001307521	-0.6979851792	-1.1117683306	-0.097425
O	 1.8487219928	-1.1121929197	-0.8061480659	-0.240685
C	 2.0431804427	-1.1089929705	 0.5407231313	 0.421497
N	 3.1039678658	-1.4541928412	 1.1315513891	-0.548129
C	 0.780077602	-0.6127965628	 1.2228306418	-0.208251
C	 1.0381350635	 0.0959011179	 2.5414243528	 0.145191
O	 0.3577558413	 0.9933881053	 2.9685408537	-0.252982
H	 1.5229919371	 1.71466831	-0.1906054005	 0.127585
H	-0.0501369923	 2.0482481204	-0.9265943221	 0.114784
H	 0.1539081257	 2.1832906946	 0.8307261513	 0.155444
H	-1.045007421	 0.0655692163	 0.2194568707	 0.094508
H	-0.1173579033	-1.5928384091	-1.2582077979	 0.111839
H	 0.5348688584	-0.1337160974	-2.0461483506	 0.123861
H	 3.8141212012	-1.7570039007	 0.4634038832	 0.227548
H	 0.2017885976	-1.5101780799	 1.4988247038	 0.136634
H	 1.9031174525	-0.3102190646	 3.1021252456	 0.125295
81.4726	104.6208	170.0522	189.8692	226.3371	261.4686	345.8232	370.9187	457.726	554.2014	639.7146	686.6576	726.1136	760.6183	867.9405	889.4563	934.9705	955.1556	968.9258	999.0057	1038.4383	1090.5681	1095.6253	1126.872	1175.9745	1223.921	1241.2785	1266.0894	1292.0008	1324.6158	1369.227	1400.3254	1407.4202	1421.9141	1494.1075	1510.4872	1519.6093	1774.1739	1824.2857	2949.6951	2983.8696	3028.7091	3039.8838	3080.7536	3104.1103	3109.905	3153.0642	3480.0339
CC1COC(=N)C1C=O	C[C@H]1CO[C]([NH])[C@H]1C=O	
InChI=1S/C6H9NO2/c1-4-3-9-6(7)5(4)2-8/h2,4-5,7H,3H2,1H3	InChI=1S/C6H9NO2/c1-4-3-9-6(7)5(4)2-8/h2,4-5,7H,3H2,1H3/t4-,5-/m0/s1
