19
gdb 110004	2.41103	1.23924	0.90518	2.2417	72.92	-0.2436	-0.0234	0.2203	1293.9472	0.157165	-460.142498	-460.132936	-460.131992	-460.177797	34.175	
C	 0.1961651387	 1.3802870531	 0.0872970732	-0.253652
O	-0.0230059935	-0.0093992685	-0.1075058886	-0.2649
C	 0.6495049715	-0.5299839532	-1.2375402962	 0.065692
C	 1.9944301769	-1.2154307243	-0.8237762674	 0.143474
O	 2.6122645854	-0.7479284567	 0.3406950654	-0.431069
C	 1.2501951902	-2.5791077641	-0.7897111594	-0.300113
C	 0.0899792765	-1.9383996733	-1.613050094	-0.114343
C	-1.3186429134	-2.2521568367	-1.1786917328	 0.171624
O	-2.214838893	-2.5374429001	-1.9317155036	-0.258295
H	 1.2595951911	 1.6070450153	 0.2319571555	 0.12878
H	-0.1781385084	 1.960353288	-0.7681059168	 0.119796
H	-0.3610253406	 1.6673237157	 0.9820499975	 0.133249
H	 0.6752891127	 0.2116450685	-2.0450845798	 0.073794
H	 2.7392757014	-1.1728183095	-1.6229110345	 0.096365
H	 1.9088949833	-0.650385509	 0.9952652139	 0.286293
H	 1.7487818875	-3.4504025265	-1.217439174	 0.115894
H	 0.9275957052	-2.82057023	 0.2289086634	 0.108796
H	 0.1744991448	-2.1173157493	-2.6865006405	 0.09632
H	-1.4796523865	-2.2129528593	-0.0798904015	 0.082295
51.3952	64.4881	117.227	166.5691	193.6203	244.6201	298.4234	349.5687	400.4503	419.3138	472.5203	480.2902	632.7818	702.4989	791.1177	850.1177	900.5369	946.8314	976.6665	1043.3283	1072.9374	1081.8987	1126.4936	1142.5387	1156.8132	1183.3741	1199.91	1217.6871	1244.5173	1262.2538	1282.4982	1305.6968	1329.809	1376.041	1427.6117	1440.5114	1476.6754	1480.3096	1488.1981	1514.7467	1825.0861	2900.8174	2998.9048	3028.153	3052.0735	3063.7288	3081.7645	3100.804	3123.5613	3125.2494	3774.6143
COC1C(O)CC1C=O	CO[C@H]1[C@@H](O)C[C@H]1C=O	
InChI=1S/C6H10O3/c1-9-6-4(3-7)2-5(6)8/h3-6,8H,2H2,1H3	InChI=1S/C6H10O3/c1-9-6-4(3-7)2-5(6)8/h3-6,8H,2H2,1H3/t4-,5-,6+/m0/s1
