19
gdb 82623	2.30569	2.03152	1.51764	2.4949	72.68	-0.2246	0.0666	0.2912	951.7484	0.160719	-423.019049	-423.011591	-423.010647	-423.050379	30.713	
C	-0.1481821863	 1.5702228153	 0.0495658191	-0.437746
C	 0.0300848581	 0.0552464099	 0.0118138538	-0.033216
C	 0.9107283505	-0.5421880269	-1.1148965187	 0.035316
C	 2.343295737	-0.0710140724	-0.7686949306	-0.234993
C	 2.3243908592	-0.6070433313	 0.65634217	-0.193637
C	 1.406851144	-1.8186529857	 0.5719987916	 0.036895
O	 0.9498252447	-1.9404665348	-0.7630964941	-0.259555
C	 0.8675588259	-0.5433368776	 1.1462507098	 0.352608
O	 0.506379702	-0.4568528793	 2.4808797883	-0.478898
H	 0.8070614876	 2.1014073086	 0.1062799478	 0.1165
H	-0.6825596201	 1.9316988396	-0.835211898	 0.11962
H	-0.738506345	 1.8590402323	 0.926207551	 0.119286
H	-0.951264869	-0.432615176	-0.0157580651	 0.084221
H	 0.5665443591	-0.430926638	-2.141499553	 0.079491
H	 3.0873807837	-0.5653148359	-1.399750047	 0.108102
H	 2.4743045008	 1.0107669253	-0.8417183866	 0.10078
H	 3.1626310823	-0.5740110094	 1.3390583829	 0.089931
H	 1.5334993492	-2.7452400464	 1.1128689555	 0.110216
H	 0.7215012263	 0.4286111028	 2.7945215832	 0.285078
186.4367	208.1872	221.2111	288.6597	338.0879	376.678	448.6756	513.8466	588.1769	598.3156	657.0769	726.9136	764.327	863.4907	884.9419	888.8937	908.2868	926.1505	951.9654	992.4377	1015.4223	1022.6874	1055.7967	1082.7401	1089.2321	1124.4631	1150.729	1160.0256	1213.4823	1233.2176	1266.4982	1273.055	1304.0067	1321.955	1339.0264	1381.5556	1409.2827	1449.1657	1486.5367	1497.7612	1510.6057	3031.7614	3044.6189	3064.3939	3093.2424	3103.9446	3117.0582	3141.7469	3209.9587	3230.6778	3790.0894
CC1C2CC3C(O2)C13O	C[C@H]1[C@H]2C[C@@H]3[C@H](O2)[C@]13O	
InChI=1S/C7H10O2/c1-3-5-2-4-6(9-5)7(3,4)8/h3-6,8H,2H2,1H3	InChI=1S/C7H10O2/c1-3-5-2-4-6(9-5)7(3,4)8/h3-6,8H,2H2,1H3/t3-,4+,5+,6-,7-/m0/s1
