18
gdb 44598	2.85224	1.90772	1.51938	2.8992	74.71	-0.247	0.0251	0.2721	917.7426	0.15166	-401.966083	-401.959558	-401.958613	-401.996903	27.125	
N	-0.0376268632	 1.2159568943	 0.27741394	-0.542008
C	-0.0127496023	-0.0081790033	-0.0227212391	 0.409612
O	 1.1301017019	-0.7221025236	-0.3001387813	-0.238004
C	 0.7798707971	-2.0094681478	-0.7792389487	 0.074911
C	 0.0853775415	-2.9779047247	 0.1521965493	-0.077615
C	-0.2615105203	-2.5110347076	 1.5683360024	-0.245897
C	-1.4264385561	-1.5092262819	 1.3746749457	-0.199173
C	-1.2103170756	-0.9468030674	-0.0546113276	-0.131906
C	-0.7038980068	-2.1544653212	-0.8592000751	-0.113934
H	 0.9051099055	 1.6091985008	 0.2708262325	 0.222267
H	 1.4699694501	-2.3622529817	-1.53543093	 0.107917
H	 0.27178406	-4.0306809084	-0.0299052917	 0.09017
H	-0.5503424829	-3.3554958997	 2.198610652	 0.104549
H	 0.5984042185	-2.0294420022	 2.0456637383	 0.11944
H	-2.3834276855	-2.0411153753	 1.398763698	 0.101959
H	-1.4553103335	-0.7196233611	 2.1296987209	 0.120809
H	-2.0894945402	-0.4472340344	-0.4587242541	 0.101014
H	-1.2362644582	-2.5548710448	-1.7116250017	 0.095887
114.0491	229.2667	267.7626	422.3258	491.8811	549.3902	640.1797	708.2474	730.736	753.4979	780.19	792.4748	835.9482	862.6825	892.8604	912.0658	937.5524	957.1455	1006.5285	1016.6464	1031.	1048.687	1062.7168	1094.1203	1112.6489	1165.515	1174.8555	1198.3836	1258.1723	1266.7537	1277.7206	1293.0664	1324.7215	1352.3206	1354.7774	1411.4497	1486.0778	1502.3021	1778.7986	3048.2445	3052.6368	3097.3924	3112.0212	3130.5122	3170.5417	3190.2776	3201.808	3472.1437
N=C1OC2C3CCC1C23	[NH][C]1O[C@H]2[C@H]3CC[C@@H]1[C@@H]23	
InChI=1S/C7H9NO/c8-7-4-2-1-3-5(4)6(3)9-7/h3-6,8H,1-2H2	InChI=1S/C7H9NO/c8-7-4-2-1-3-5(4)6(3)9-7/h3-6,8H,1-2H2/t3-,4+,5-,6-/m0/s1
