16
gdb 131305	5.54119	1.00853	0.91551	1.5431	73.09	-0.2219	0.	0.2219	1254.4436	0.126043	-434.053811	-434.046157	-434.045212	-434.087198	28.708	
O	 0.3126328464	 1.2610558068	 0.0143217487	-0.4251
C	 0.1174630985	-0.070313449	 0.0513302415	 0.364431
N	 0.1912287761	-0.8455623123	-1.0283315178	-0.339813
N	-0.0648137415	-2.0666151899	-0.5415518419	 0.120664
N	-0.2941310168	-2.1259842159	 0.7565041499	-0.229425
C	-0.1846470858	-0.8581513021	 1.1700214589	-0.129928
C	-0.082453117	-3.2186403474	-1.3988811164	 0.102473
C	 0.4155078228	-4.5399345271	-0.8838259294	-0.278264
C	-1.0589494248	-4.3303849618	-1.13510727	-0.278255
H	 0.5024421619	 1.5007565501	-0.9010317812	 0.308386
H	-0.3207897643	-0.5807738833	 2.2013923738	 0.129121
H	 0.1332678125	-2.9193382586	-2.4151657823	 0.123504
H	 0.9851795339	-5.1637584707	-1.5632763166	 0.122022
H	 0.7398566515	-4.5612416021	 0.1497021455	 0.144089
H	-1.6943773407	-4.2152996699	-0.2651512732	 0.144073
H	-1.5234182928	-4.8072334069	-1.9908064195	 0.122023
21.9441	139.552	185.4288	327.7768	338.5821	378.426	423.5536	490.8347	637.973	676.7993	720.5263	741.1737	781.4576	814.3025	833.1482	916.063	948.137	1011.2653	1055.5785	1068.3548	1084.9219	1097.4066	1122.5055	1179.6871	1200.8652	1220.7173	1238.2631	1293.623	1366.5039	1419.0562	1442.0497	1452.2478	1498.4247	1524.4445	1603.9451	3143.0449	3144.7222	3217.9279	3231.5373	3245.0989	3285.6719	3803.0202
OC1=NN(N=C1)C1CC1	Oc1nn(nc1)C1CC1	
InChI=1S/C5H7N3O/c9-5-3-6-8(7-5)4-1-2-4/h3-4H,1-2H2,(H,7,9)	InChI=1S/C5H7N3O/c9-5-3-6-8(7-5)4-1-2-4/h3-4H,1-2H2,(H,7,9)
