19
gdb 117805	2.58371	0.96554	0.84395	2.6399	71.86	-0.2591	0.0265	0.2856	1420.0937	0.157728	-456.336308	-456.325688	-456.324744	-456.372058	37.801	
N	-0.0490664408	 1.5172760971	 0.0003628978	-0.519421
C	 0.0185167959	 0.0507916511	-0.0028696269	 0.041356
C	 0.7589945958	-0.5019190224	-1.2560106231	-0.087344
O	 0.2008023313	-0.0032458868	-2.4530247595	-0.420651
C	 0.6987237911	-0.4599822421	 1.2801297011	-0.205887
C	 0.0161515231	-0.0275177171	 2.5742976494	-0.088992
O	 0.785512615	-0.5697888191	 3.6373471838	-0.421567
C	-1.3689929343	-0.4620301517	-0.0887386349	 0.30187
N	-2.4307131044	-0.8966549031	-0.2314993479	-0.351797
H	 0.8820940192	 1.8802940858	 0.1901792781	 0.233401
H	-0.2921819739	 1.8226724214	-0.9396693043	 0.246648
H	 1.7922837624	-0.1411036356	-1.2208829131	 0.114489
H	 0.7759555986	-1.6007938799	-1.2347770767	 0.10938
H	-0.652652423	-0.4326001417	-2.5865422776	 0.301529
H	 0.7499545228	-1.553329819	 1.2569904773	 0.125681
H	 1.7326251309	-0.0930341087	 1.2850964484	 0.111982
H	-0.0331594513	 1.0683762684	 2.624242199	 0.108824
H	-1.017207584	-0.4051781029	 2.5912715772	 0.110186
H	 0.3670693855	-0.3208170837	 4.4664309218	 0.290313
76.7906	94.2253	114.8052	133.1418	187.9122	207.6075	253.3557	287.8725	302.6357	345.1774	377.1549	386.5828	430.0587	474.4119	595.0058	695.3385	721.9248	805.6812	878.4113	935.8648	977.7813	1037.1478	1055.1833	1064.4641	1092.8772	1110.337	1168.158	1214.778	1249.9464	1265.9809	1309.6525	1341.0675	1367.2429	1383.9777	1416.4667	1464.7238	1482.2449	1493.3823	1532.0823	1659.4177	2349.2544	2992.1601	3004.7654	3031.6976	3037.8324	3080.6304	3091.359	3473.659	3555.1514	3793.5002	3833.6052
NC(CO)(CCO)C#N	N[C@@](CO)(CCO)C#N	
InChI=1S/C5H10N2O2/c6-3-5(7,4-9)1-2-8/h8-9H,1-2,4,7H2	InChI=1S/C5H10N2O2/c6-3-5(7,4-9)1-2-8/h8-9H,1-2,4,7H2/t5-/m0/s1
