18
gdb 6120	2.79908	1.86425	1.48188	4.3041	67.56	-0.2641	0.0155	0.2795	941.8749	0.151886	-384.98855	-384.979929	-384.978984	-385.021251	31.844	
C	-0.3450292858	 1.4499085219	-0.0782600643	-0.417469
C	-0.0022762749	-0.033569208	-0.0303330641	-0.238858
C	 1.2586041461	-0.4863723342	-0.7664242228	 0.450228
O	 1.7117345869	-0.398916664	-1.8640220277	-0.333648
O	 1.8175168107	-1.0931786733	 0.323762777	-0.285933
C	 0.6910115159	-0.6843726951	 1.2057074577	 0.412291
C	 1.2081777491	 0.2453038094	 2.2900733726	-0.431727
C	 0.0045891799	-1.9189765662	 1.7644851794	-0.433485
H	 0.5014652567	 2.0789607565	 0.2081254521	 0.130234
H	-0.631771845	 1.7263466701	-1.0968267231	 0.143434
H	-1.1847487778	 1.6822257854	 0.5840223609	 0.123698
H	-0.8637799503	-0.6260489198	-0.3553948724	 0.108466
H	 1.7732801409	 1.079344427	 1.8680328213	 0.130847
H	 0.3776369957	 0.6492902736	 2.8776819829	 0.124304
H	 1.8699133977	-0.3023612755	 2.9675718186	 0.132715
H	 0.6788916951	-2.4679178255	 2.428696343	 0.132458
H	-0.8827849783	-1.6337189438	 2.3392303304	 0.12426
H	-0.3055442826	-2.5911975384	 0.9596245184	 0.128187
84.6786	187.1325	193.1591	204.9439	234.1352	269.9208	322.0782	347.0991	377.5186	472.9698	558.1382	623.5958	694.2591	771.0986	826.9837	849.8402	939.6207	973.8846	1003.1266	1045.1996	1069.9378	1092.9808	1139.326	1196.0871	1246.2784	1273.4021	1286.4056	1361.3795	1406.5339	1412.3072	1421.8357	1473.6272	1482.5522	1490.0198	1498.4265	1501.3963	1510.7137	1927.6754	3037.8278	3043.6871	3046.9617	3060.7526	3109.1876	3113.4842	3115.6771	3118.3958	3122.9987	3130.8671
CC1C(=O)OC1(C)C	C[C@H]1C(=O)OC1(C)C	
InChI=1S/C6H10O2/c1-4-5(7)8-6(4,2)3/h4H,1-3H3	InChI=1S/C6H10O2/c1-4-5(7)8-6(4,2)3/h4H,1-3H3/t4-/m0/s1
