18
gdb 62391	3.07415	1.5176	1.29101	4.9771	75.24	-0.2695	0.0342	0.3037	1023.8731	0.148769	-401.94448	-401.936701	-401.935757	-401.976434	30.51	
C	-0.1836326882	 1.6135488933	-0.0246520977	-0.485111
C	 0.0065930967	 0.0970617965	 0.0077990525	 0.143216
C	-1.2609675084	-0.5703495207	-0.2848454628	 0.260872
N	-2.2946459349	-1.029698146	-0.5231253165	-0.343548
C	 1.1900883765	-0.6204143076	-0.7313330753	 0.051824
C	 2.4514846674	 0.1134931791	-0.2383019934	-0.236867
C	 2.105637026	 0.1020116631	 1.2860171448	-0.236778
C	 0.7570001928	-0.6341104348	 1.1758019231	 0.051762
O	 1.0742929174	-1.7030620419	 0.2374225947	-0.289373
H	 0.7446074004	 2.1446681691	 0.1900798475	 0.130055
H	-0.5407809536	 1.9308202759	-1.0086824935	 0.14419
H	-0.9319833336	 1.9185839633	 0.7125408529	 0.144186
H	 1.1161271489	-0.9371092985	-1.7705655193	 0.101938
H	 3.3433185779	-0.470477599	-0.4714180279	 0.121886
H	 2.5719738678	 1.1134541195	-0.6611759199	 0.108971
H	 2.8112523874	-0.4883936535	 1.8727700263	 0.121929
H	 2.0289472397	 1.09540126	 1.7338098428	 0.108923
H	 0.2424199698	-0.9647528079	 2.0767167018	 0.101925
141.9651	163.9786	171.537	283.5354	291.6543	345.0197	424.5108	498.4501	550.8521	578.4098	641.9644	718.9236	819.9017	835.0795	871.5412	899.9061	907.4534	925.2102	958.1487	974.2224	1014.9429	1026.931	1094.4401	1141.8355	1191.7544	1192.0837	1196.5681	1241.1278	1249.2459	1255.629	1297.1162	1313.8551	1336.9199	1414.5776	1473.1361	1490.009	1500.0668	1505.4303	2355.3453	3053.1368	3074.642	3081.5258	3117.132	3119.528	3134.0194	3139.5283	3143.117	3146.1379
CC1(C#N)C2CCC1O2	C[C@@]1(C#N)[C@H]2CC[C@@H]1O2	
InChI=1S/C7H9NO/c1-7(4-8)5-2-3-6(7)9-5/h5-6H,2-3H2,1H3	InChI=1S/C7H9NO/c1-7(4-8)5-2-3-6(7)9-5/h5-6H,2-3H2,1H3/t5-,6+,7-
