19
gdb 32937	6.08572	0.8091	0.72383	2.3113	80.57	-0.1911	0.0534	0.2445	1599.7625	0.159436	-419.257237	-419.24783	-419.246886	-419.291996	33.719	
C	 0.0679353542	 1.5112089052	 0.1137184415	-0.39207
C	 0.007347143	-0.0009309473	 0.0200824979	-0.036383
O	 0.7148976459	-0.5338506734	 1.1520023354	-0.283696
C	 0.7523338862	-1.8703709467	 1.2181775301	 0.484411
N	 0.2324440444	-2.7381911219	 0.3933284018	-0.367134
C	 0.569043081	-3.9717516358	 0.9364384499	-0.181437
C	 1.2908364164	-3.8351188992	 2.086536298	 0.304024
C	 1.8825243088	-4.819121365	 3.0348808045	-0.504559
N	 1.4046156648	-2.4554091623	 2.2609928206	-0.396194
H	 1.1035963111	 1.8624577197	 0.0963374497	 0.126998
H	-0.4615102055	 1.9558198927	-0.7341673374	 0.122268
H	-0.4005773545	 1.8645383413	 1.0367133538	 0.127003
H	-1.0230543518	-0.3723186024	 0.036950135	 0.121692
H	 0.4725329406	-0.3741682944	-0.8987842939	 0.12154
H	 0.2661234405	-4.8910072796	 0.457975202	 0.100285
H	 2.9732140304	-4.7221519029	 3.1101004617	 0.125731
H	 1.4752973437	-4.7179287419	 4.0490780322	 0.125733
H	 1.6648441503	-5.8335545267	 2.6921925868	 0.140525
H	 1.8733964206	-1.9697758993	 3.0064455604	 0.261263
55.5615	81.1822	139.0465	153.3712	200.9838	250.7655	294.7969	341.8052	347.8683	457.0889	483.3064	641.0735	662.7261	728.288	765.5971	809.4476	820.5171	910.3489	992.6008	1005.2602	1051.9357	1065.8658	1080.5365	1128.917	1185.2849	1192.9881	1221.4905	1277.4716	1290.109	1372.9752	1395.9747	1417.9501	1420.3328	1478.1146	1484.6919	1488.9625	1498.0436	1505.8092	1523.881	1603.8018	1640.525	3013.0717	3041.941	3045.5392	3055.6003	3078.7282	3120.3333	3120.6036	3123.5543	3246.036	3671.7733
CCOC1=NC=C(C)N1	CCOc1ncc(C)[nH]1	
InChI=1S/C6H10N2O/c1-3-9-6-7-4-5(2)8-6/h4H,3H2,1-2H3,(H,7,8)	InChI=1S/C6H10N2O/c1-3-9-6-7-4-5(2)8-6/h4H,3H2,1-2H3,(H,7,8)
