15
gdb 51712	3.7812	0.96149	0.82121	3.7512	62.11	-0.2668	-0.0418	0.2249	1320.7565	0.111968	-494.955829	-494.947605	-494.946661	-494.99052	28.146	
O	-0.5710293439	 0.637169889	 0.7037535558	-0.228894
C	 0.1240974011	 0.8915128483	-0.2450843535	 0.151597
C	 1.3710156099	 1.7561037322	-0.1662048176	-0.29963
C	 1.3212303541	 2.9538576319	-1.1210393065	 0.06909
C	 2.6262652	 3.7739651721	-1.1656090908	-0.117642
O	 3.268272003	 3.3144507234	-2.35547146	-0.238643
C	 2.3786119357	 2.6496037115	-3.1362143039	 0.500976
O	 2.5972517758	 2.2510071239	-4.2325985534	-0.36253
O	 1.1953378954	 2.5010315983	-2.4773919418	-0.251091
H	-0.1091985309	 0.5024802097	-1.2580705252	 0.109454
H	 1.4859713514	 2.1036948343	 0.8648313668	 0.132562
H	 2.2410673343	 1.1380854726	-0.4283430946	 0.138127
H	 0.4540617111	 3.5817598188	-0.9020784889	 0.123072
H	 2.4407158105	 4.8493744389	-1.2492476854	 0.13455
H	 3.2828952725	 3.5836278951	-0.3142876309	 0.139002
45.5999	62.408	98.7055	150.0726	220.8431	335.233	422.9134	513.1029	538.4465	716.7688	756.4587	775.3426	811.8845	867.0601	920.5782	982.379	1004.8331	1054.035	1090.5821	1110.2483	1136.2962	1145.9984	1217.2857	1251.5398	1284.2908	1354.4942	1386.549	1410.2896	1426.729	1454.1359	1525.6827	1833.5712	1934.578	2923.467	3023.4804	3055.265	3083.2716	3104.4673	3119.3001
O=CCC1COC(=O)O1	O=CC[C@H]1COC(=O)O1	
InChI=1S/C5H6O4/c6-2-1-4-3-8-5(7)9-4/h2,4H,1,3H2	InChI=1S/C5H6O4/c6-2-1-4-3-8-5(7)9-4/h2,4H,1,3H2/t4-/m0/s1
