21
gdb 100465	3.54828	0.61778	0.55316	1.3102	85.23	-0.2561	0.0307	0.2869	2055.7685	0.178901	-424.197179	-424.185667	-424.184723	-424.23545	40.296	
C	-0.3877020845	 1.4416615869	 0.0654709782	-0.386416
C	-0.2384778986	-0.0782028688	 0.1459290024	-0.170927
C	 0.9050027799	-0.5084572929	 1.0869955809	-0.054851
O	 0.7302958725	 0.0048895388	 2.4078971064	-0.414805
C	 1.0738328079	-1.9645612621	 1.0876367892	-0.007592
C	 1.182442646	-3.1655856084	 1.0922872447	 0.126823
C	 1.2892515579	-4.6285332818	 1.1129599875	-0.023838
C	 1.3057809839	-5.1707679528	 2.5496473691	-0.383841
O	 0.27018226	-5.2477066699	 0.3302193942	-0.412553
H	 0.5122269235	 1.9039723831	-0.3552263769	 0.115775
H	-1.2338001444	 1.719007075	-0.5699010267	 0.110987
H	-0.5463301989	 1.8663773843	 1.0597854224	 0.131565
H	-1.169182632	-0.5369056515	 0.5046548775	 0.092432
H	-0.0465995493	-0.5031828966	-0.845911505	 0.110747
H	 1.8351325323	-0.0422588922	 0.7364992322	 0.116068
H	 0.0280565812	-0.508185803	 2.8231185946	 0.280788
H	 2.2239913167	-4.9195505515	 0.6183325845	 0.120646
H	 1.3840022226	-6.2607059169	 2.5248066627	 0.126595
H	 2.1505794746	-4.7621253886	 3.1114825634	 0.128462
H	 0.3841847492	-4.8958986688	 3.0731466679	 0.113363
H	-0.5762519504	-4.9043296123	 0.6372023708	 0.280571
19.4539	65.3184	75.8225	128.673	168.1776	215.7661	230.8999	256.2405	272.2052	277.7842	325.8522	333.4337	424.6383	492.5753	506.2284	582.9669	605.2305	745.3411	786.8909	864.7037	910.6577	976.8007	1013.915	1056.9065	1059.6781	1092.12	1111.7459	1118.222	1170.0798	1251.4619	1281.3677	1292.1482	1326.1094	1336.9002	1372.8804	1398.4821	1406.1572	1415.3521	1421.8986	1480.4336	1488.3056	1491.3072	1495.1973	1509.3422	2349.7108	3020.3514	3032.6567	3036.892	3039.0833	3041.0653	3069.8698	3104.5574	3114.1127	3126.3185	3128.5389	3804.1649	3805.542
CCC(O)C#CC(C)O	CC[C@@H](O)C#C[C@@H](C)O	
InChI=1S/C7H12O2/c1-3-7(9)5-4-6(2)8/h6-9H,3H2,1-2H3	InChI=1S/C7H12O2/c1-3-7(9)5-4-6(2)8/h6-9H,3H2,1-2H3/t6-,7-/m1/s1
