15
gdb 52835	2.72042	1.00997	0.95045	4.1197	70.8	-0.2549	-0.0126	0.2423	1322.7021	0.109897	-457.752269	-457.742784	-457.74184	-457.78864	32.209	
C	-0.0100157413	 1.5142194054	-0.090766333	-0.500819
C	 0.0354724652	 0.0615877675	-0.0370065726	 0.034498
C	 0.0740201593	-1.1413422993	 0.0136845874	 0.05238
C	 0.0963998554	-2.5927971533	 0.0250644335	 0.051357
O	 1.040742071	-3.1557815408	-0.8577083436	-0.44425
C	 0.1386762118	-3.2938524694	 1.4031330776	-0.095928
O	-1.2095682701	-3.8238082293	 1.1993221281	-0.237396
C	-1.315993216	-3.2656622503	-0.0447345583	 0.409913
O	-2.2047660274	-3.358003315	-0.8244515616	-0.321962
H	 0.9365505314	 1.9246340029	-0.458192138	 0.157999
H	-0.8082490671	 1.8602688071	-0.7558102419	 0.160926
H	-0.1940926287	 1.9373900449	 0.9024379885	 0.159239
H	 0.917677847	-2.7423190932	-1.7200399345	 0.297454
H	 0.8734422603	-4.0981191008	 1.455781267	 0.140581
H	 0.1772897693	-2.6437888463	 2.2766933313	 0.136008
15.8386	80.0697	88.4932	146.4548	191.7245	254.1022	304.5638	323.9048	354.9658	427.5283	517.8862	557.724	645.7906	744.19	783.6648	898.4016	939.6519	991.5972	1011.8333	1051.1604	1052.3627	1115.6518	1148.9368	1162.5866	1245.7759	1331.9823	1389.6712	1413.1882	1473.4339	1475.6193	1502.0789	1944.0609	2365.182	3032.9576	3089.5342	3097.2761	3097.9484	3163.5865	3807.9306
CC#CC1(O)COC1=O	CC#C[C@@]1(O)COC1=O	
InChI=1S/C6H6O3/c1-2-3-6(8)4-9-5(6)7/h8H,4H2,1H3	InChI=1S/C6H6O3/c1-2-3-6(8)4-9-5(6)7/h8H,4H2,1H3/t6-/m1/s1
