13
gdb 21069	5.49261	1.44737	1.15388	3.321	64.	-0.2572	-0.0584	0.1988	968.2159	0.096435	-394.794413	-394.787183	-394.786239	-394.82753	24.288	
C	-0.0258474941	 1.4394000683	-0.0000338532	-0.313434
N	-0.0003756173	-0.0122728076	 0.0033420386	 0.170037
N	 0.051912025	-0.7114338213	-1.1327361913	-0.233152
C	 0.0763610004	-1.9733876827	-0.7116501599	-0.108141
C	 0.0352245476	-1.9863817055	 0.6949614588	 0.206629
C	 0.0394954411	-3.1464623259	 1.5956978686	 0.087323
O	 0.0007478447	-3.0998863397	 2.8006641931	-0.257648
N	-0.0126401798	-0.7099297653	 1.1179755904	-0.266972
H	 0.9129309105	 1.8257081378	-0.4037798888	 0.161729
H	-0.8545263767	 1.78670227	-0.6197526517	 0.163129
H	-0.1559190219	 1.7657229718	 1.0299731441	 0.174542
H	 0.1179941747	-2.7934935115	-1.4113656382	 0.140371
H	 0.082544446	-4.1172995683	 1.0527728595	 0.075588
21.1234	130.0447	173.624	189.0018	318.0855	389.2966	493.847	688.4229	695.861	702.7141	820.4308	892.2404	1011.2081	1034.9516	1048.02	1097.5449	1150.8346	1191.5975	1321.1656	1365.2651	1380.3661	1428.3671	1450.2329	1465.2065	1477.9224	1500.2273	1539.8362	1811.8878	2879.9661	3067.1534	3139.5808	3186.9528	3267.1761
CN1N=CC(C=O)=N1	Cn1ncc(C=O)n1	
InChI=1S/C4H5N3O/c1-7-5-2-4(3-8)6-7/h2-3H,1H3	InChI=1S/C4H5N3O/c1-7-5-2-4(3-8)6-7/h2-3H,1H3
