16
gdb 42269	3.41723	1.18341	1.06037	2.727	75.66	-0.2409	-0.064	0.1769	1149.503	0.123197	-400.671412	-400.663198	-400.662254	-400.705399	30.201	
O	 0.2666631471	 0.2460596373	-1.2805987988	-0.296564
C	 0.0530464011	 1.2169040017	-0.5846488329	 0.233272
C	 1.0724117042	 1.7681423467	 0.2934764361	 0.260077
C	 1.8986334535	 2.2559822583	 1.020774038	-0.413823
C	-1.2885320724	 1.9139818139	-0.5213821221	-0.119841
C	-2.4555370878	 1.3792782349	-1.3845973672	-0.196039
N	-3.3240395554	 1.1379113927	-0.1733938228	-0.122544
C	-2.59982105	 0.1450040449	 0.6396080752	-0.23667
C	-2.1567370902	 1.552544289	 0.6989167566	-0.045766
H	 2.6421892893	 2.6696715343	 1.6582690103	 0.217691
H	-1.1487597553	 2.9941705404	-0.6068093238	 0.106591
H	-2.906861871	 2.1373366159	-2.0257630356	 0.116254
H	-2.2414335999	 0.4794596954	-1.9660748809	 0.131027
H	-3.185084509	-0.223205273	 1.4761618977	 0.125721
H	-1.985306757	-0.6018562005	 0.1424059107	 0.136509
H	-2.2830329474	 2.1782998079	 1.5757031293	 0.104106
25.6938	122.2659	126.6516	224.5462	253.4073	353.2484	448.1388	482.1637	579.2813	646.3837	692.2874	710.267	736.1325	767.2624	790.4136	808.8303	942.2015	971.1949	991.8077	1004.2822	1057.139	1078.8594	1115.1885	1122.8879	1147.5036	1195.331	1204.7088	1236.881	1292.3308	1344.4724	1365.4607	1488.5732	1507.3519	1758.5871	2208.9626	3073.7919	3085.6246	3112.4678	3135.1957	3170.2207	3206.4735	3492.9005
O=C(C#C)C1CN2CC12	O=C(C#C)[C@H]1CN2C[C@@H]12	
InChI=1S/C7H7NO/c1-2-7(9)5-3-8-4-6(5)8/h1,5-6H,3-4H2	InChI=1S/C7H7NO/c1-2-7(9)5-3-8-4-6(5)8/h1,5-6H,3-4H2/t5-,6-,8?/m0/s1
