18
gdb 123878	4.98768	1.09112	0.92443	1.4275	79.74	-0.1861	0.0357	0.2217	1251.7865	0.150801	-398.127036	-398.119272	-398.118328	-398.159844	29.197	
C	-0.1213262464	 1.5526701367	 0.0374203562	-0.237195
C	 1.4051955703	 1.5071938411	-0.2378993046	-0.154654
N	 1.4302984912	 0.1494592084	 0.3294884838	-0.142924
C	-0.0357652701	 0.0257949144	 0.3014065319	-0.168287
C	 2.292207481	-0.8334308202	-0.1098182681	 0.409169
N	 3.4382000826	-0.5175814204	-0.7146517714	-0.328347
N	 4.0219029449	-1.7194914146	-0.9570446439	-0.187024
C	 3.2782007066	-2.7650733354	-0.5364151583	-0.01199
C	 2.1353584577	-2.2394895903	 0.0262458858	-0.313468
H	-0.3851617347	 2.1296882115	 0.9252307491	 0.112822
H	-0.7545327541	 1.8630636536	-0.7937976382	 0.108601
H	 1.6675350554	 1.5269973474	-1.3039128462	 0.107176
H	 2.0351846014	 2.2299742041	 0.2892536946	 0.108645
H	-0.4805034105	-0.3473484825	 1.2304300093	 0.1041
H	-0.4040340724	-0.5849804622	-0.5358402815	 0.097396
H	 4.9182591795	-1.7385395824	-1.4094270167	 0.270748
H	 3.6083868277	-3.7844927851	-0.6623948463	 0.128015
H	 1.31775092	-2.778961324	 0.4743969643	 0.097216
77.3223	100.3519	163.8783	187.9698	352.0023	409.6436	452.8438	496.0581	642.7098	723.5513	743.7188	757.9628	818.6045	848.2114	878.9708	937.2797	938.2301	942.6574	988.2655	1049.7121	1083.4726	1126.4096	1135.5148	1138.9604	1160.1234	1201.5533	1214.6349	1237.0112	1268.8757	1292.2643	1329.3544	1349.2463	1400.2173	1490.0254	1492.2992	1511.6351	1526.6527	1537.4623	1598.3616	2992.6812	3017.3456	3053.3503	3071.783	3088.1487	3142.42	3253.2448	3276.4174	3694.361
C1CN(C1)C1=NNC=C1	C1CN(C1)c1n[nH]cc1	
InChI=1S/C6H9N3/c1-4-9(5-1)6-2-3-7-8-6/h2-3H,1,4-5H2,(H,7,8)	InChI=1S/C6H9N3/c1-4-9(5-1)6-2-3-7-8-6/h2-3H,1,4-5H2,(H,7,8)
