20
gdb 92874	2.11566	1.7859	1.17308	5.0283	82.19	-0.2126	-0.0247	0.1879	1113.4227	0.172016	-403.195551	-403.186713	-403.185768	-403.22865	34.104	
C	-0.1055839056	 1.6091956219	-0.0672217773	-0.394625
C	 0.0234733151	 0.0788133224	 0.0038875176	-0.003492
N	 0.6973785691	-0.4485213848	-1.1912663331	-0.29123
C	 2.0590009374	-0.4118751316	-1.249715217	 0.019084
C	 2.8605574857	-0.2387549311	-0.1690329814	-0.218526
C	 2.2917422737	-0.1390310715	 1.1652289675	 0.363051
O	 2.9433607936	 0.0909690165	 2.1707875386	-0.366031
C	 0.779760075	-0.4424842746	 1.2446584739	-0.09795
C	 0.1730370697	 0.0045613938	 2.5737985274	-0.403979
H	 0.8770676636	 2.0895245622	-0.0758364199	 0.13986
H	-0.6381363899	 1.9024982923	-0.9780209703	 0.106579
H	-0.6698741333	 1.9957341601	 0.7851077181	 0.12962
H	-0.983556527	-0.3540415936	 0.0196422117	 0.088364
H	 0.2082456142	-0.3278166999	-2.0645007289	 0.245208
H	 2.4772607332	-0.5493079454	-2.243281644	 0.119387
H	 3.9367313099	-0.2075816877	-0.2778550833	 0.096604
H	 0.7184585492	-1.5407403901	 1.1864831581	 0.103251
H	 0.2657857519	 1.0844972172	 2.7166264926	 0.1256
H	-0.8867820715	-0.2648095729	 2.6344420925	 0.099808
H	 0.704532286	-0.4708031032	 3.3995578873	 0.139417
91.2516	143.0639	191.5064	215.7239	269.2326	284.6022	326.5762	421.4539	455.6618	478.3543	519.2864	544.2041	558.8668	671.5923	756.1842	807.5317	830.2464	855.6993	940.6918	970.8404	980.3982	1015.7411	1067.6942	1098.8836	1115.232	1132.4115	1172.5523	1217.6294	1249.6118	1297.1074	1319.139	1370.6371	1375.1905	1405.9026	1409.9592	1427.2254	1486.3879	1488.6023	1493.8305	1505.4372	1527.2575	1661.5097	1753.8831	2986.5074	3033.8771	3040.4735	3044.4903	3107.4553	3113.3921	3127.6318	3140.0416	3168.7559	3219.8592	3619.1687
CC1NC=CC(=O)C1C	C[C@H]1NC=CC(=O)[C@H]1C	
InChI=1S/C7H11NO/c1-5-6(2)8-4-3-7(5)9/h3-6,8H,1-2H3	InChI=1S/C7H11NO/c1-5-6(2)8-4-3-7(5)9/h3-6,8H,1-2H3/t5-,6+/m0/s1
