22
gdb 103235	2.46316	1.61411	1.2073	1.7885	85.36	-0.2027	0.0703	0.273	1134.6896	0.193664	-367.120698	-367.111884	-367.110939	-367.153769	35.193	
C	-0.5986165685	 1.2407445665	 0.0735183709	-0.369987
C	 0.3725098481	 0.0801569216	-0.1680597737	-0.242231
C	 0.8513033803	-0.5816511662	 1.1296315717	 0.327405
C	 2.1107610584	 0.1030220936	 1.664976352	-0.44576
C	 0.0067227683	-1.0903788098	 2.2887898094	-0.103786
C	-1.2430710538	-1.9470585787	 1.9495749867	-0.072246
N	-1.4439092661	-2.0019609643	 0.4813368658	-0.338848
C	-0.4253884552	-2.8683634777	 1.1397922744	-0.075959
C	 0.8639568069	-2.0576010802	 1.4609289269	-0.118128
H	-0.1802241141	 1.9882131213	 0.7570901075	 0.102783
H	-0.8396063091	 1.7505835016	-0.8650348953	 0.101707
H	-1.5322413017	 0.8716565539	 0.5070419409	 0.124275
H	-0.0975406416	-0.6497150729	-0.8214625823	 0.123377
H	 1.2632977368	 0.4580309227	-0.6882745131	 0.071807
H	 1.9345843525	 1.1741056836	 1.8122549765	 0.118741
H	 2.4346408612	-0.3182151843	 2.6218063435	 0.107993
H	 2.9358725263	-0.0038960852	 0.9522973561	 0.11618
H	 0.1926222135	-0.7519443907	 3.3014495237	 0.081074
H	-2.057903628	-2.1463106396	 2.6338923268	 0.091201
H	-2.2600498319	-2.5932658603	 0.3211728431	 0.226813
H	-0.4685569579	-3.9456812176	 1.0443375665	 0.092285
H	 1.7723650257	-2.5612824272	 1.7716285421	 0.081304
74.0784	139.2289	215.6098	237.8707	248.3329	300.0144	348.5305	378.4926	396.2895	543.5158	597.4575	673.0641	732.0255	740.3218	768.1569	781.0405	844.6459	876.9966	887.1284	904.0382	944.0988	977.5882	1003.8747	1013.0575	1027.2712	1037.1654	1047.0833	1063.4453	1107.3959	1121.779	1136.9426	1176.7083	1244.7441	1246.3912	1296.4331	1307.226	1308.3958	1364.8404	1371.437	1399.768	1407.5669	1418.057	1484.0458	1494.7604	1497.8288	1498.0835	1507.7261	3011.2574	3026.7039	3032.2132	3089.6843	3092.878	3100.2996	3113.8755	3162.1215	3165.8527	3176.2126	3187.2838	3200.6277	3458.9743
CCC1(C)C2C3NC3C12	CC[C@@]1(C)[C@H]2[C@H]3N[C@H]3[C@@H]12	
InChI=1S/C8H13N/c1-3-8(2)4-5(8)7-6(4)9-7/h4-7,9H,3H2,1-2H3	InChI=1S/C8H13N/c1-3-8(2)4-5(8)7-6(4)9-7/h4-7,9H,3H2,1-2H3/t4-,5+,6-,7+,8+
