21
gdb 92504	2.48687	1.59547	1.37235	1.0227	77.67	-0.2431	0.0821	0.3252	1076.8277	0.18169	-424.233571	-424.224731	-424.223787	-424.267325	33.911	
C	 0.5201263801	 1.3483048467	-0.2098451751	-0.399438
C	-0.0504119788	-0.036395698	 0.074591201	 0.206865
O	 0.1014116017	-0.9121231707	-1.0339934609	-0.275484
C	 1.0847622723	-1.8791261399	-0.7357975307	 0.051255
C	 2.559658501	-1.5091160205	-1.068105046	-0.250543
C	 2.8597520753	-1.3462762408	 0.4517329679	-0.280716
C	 1.3811214114	-1.732817814	 0.7841458674	 0.404556
C	 1.1592228719	-2.9079609414	 1.714243378	-0.459497
O	 0.5660274483	-0.6439703987	 1.1975496648	-0.310116
H	 1.5907934832	 1.2975095416	-0.4240115848	 0.120027
H	 0.0099867465	 1.7881116486	-1.0717275888	 0.12313
H	 0.3659826625	 1.9968406942	 0.6574843276	 0.122841
H	-1.1263622657	 0.0423829183	 0.2861573389	 0.085708
H	 0.7384670113	-2.8496218691	-1.1018706695	 0.078758
H	 3.1167553708	-2.3132047361	-1.5548170847	 0.101902
H	 2.6525655089	-0.6065446045	-1.6748176715	 0.109105
H	 3.6023796902	-2.0444072003	 0.8456925419	 0.099783
H	 3.1211516805	-0.3386743578	 0.7796906952	 0.107298
H	 1.451441429	-2.6461261408	 2.7363210033	 0.127669
H	 0.1035273883	-3.1954854763	 1.7220511137	 0.123817
H	 1.7558794212	-3.7702166104	 1.4003500323	 0.11308
54.447	75.0493	220.9157	225.1231	232.5747	310.0128	366.6043	390.3549	408.2233	472.3455	606.3993	653.6057	723.8833	743.9674	804.2031	846.3179	883.5456	899.3318	910.9215	947.8342	968.4446	974.0483	1050.6949	1081.945	1122.7414	1132.6758	1168.6881	1176.5694	1195.5882	1206.6603	1217.5968	1242.0623	1268.5554	1320.7104	1346.9561	1376.7378	1396.5631	1407.1175	1416.9557	1465.6407	1481.4602	1482.0017	1485.1429	1489.619	1492.3859	3002.772	3034.8805	3045.2059	3063.7575	3066.4194	3075.1714	3107.2597	3112.6163	3116.4955	3121.9605	3128.7006	3134.2388
CC1OC2CCC2(C)O1	C[C@H]1O[C@H]2CC[C@@]2(C)O1	
InChI=1S/C7H12O2/c1-5-8-6-3-4-7(6,2)9-5/h5-6H,3-4H2,1-2H3	InChI=1S/C7H12O2/c1-5-8-6-3-4-7(6,2)9-5/h5-6H,3-4H2,1-2H3/t5-,6-,7+/m0/s1
