19
gdb 112102	2.30491	1.57779	1.18545	3.1891	79.03	-0.2277	-0.0081	0.2197	1122.8755	0.160669	-419.203843	-419.195106	-419.194162	-419.237593	32.393	
C	 0.1779518887	 1.2239176055	 0.2224767437	-0.318953
N	-0.0783066681	-0.2063579447	 0.0691042729	-0.300512
C	-1.51110429	-0.5431362898	-0.048829677	-0.095157
C	-1.6481840069	-1.9170138928	-0.6567126122	-0.100581
C	-1.4871710869	-2.9775880295	 0.1264740277	-0.072763
C	-1.2568591808	-2.7849626347	 1.5970743773	-0.111822
O	-1.9129702628	-1.6249838881	 2.1266473894	-0.255425
C	-2.1145059858	-0.5325798059	 1.3456017786	 0.430533
N	-2.7626506086	 0.4744113044	 1.7630370523	-0.523674
H	 1.2558562812	 1.3879209334	 0.3111203339	 0.113799
H	-0.2027560418	 1.8359755549	-0.6132727577	 0.09715
H	-0.3033125246	 1.5826320308	 1.1356700821	 0.150526
H	 0.4044087559	-0.5592806729	-0.7501435894	 0.216181
H	-2.0652071317	 0.2050175993	-0.6335802022	 0.087558
H	-1.8346176885	-2.0027661449	-1.7222343133	 0.103398
H	-1.5171368691	-3.9944577918	-0.252170671	 0.107423
H	-1.6530847966	-3.626075936	 2.1737791331	 0.12286
H	-0.1819540628	-2.7075525521	 1.8096952407	 0.134604
H	-3.076460721	 0.313770185	 2.7233229111	 0.214856
61.9853	126.1081	128.0811	184.5863	229.9259	266.3981	368.5929	431.6966	443.2163	537.4431	601.0871	688.361	696.9819	763.6348	809.1359	873.8497	912.3053	946.4018	972.2504	982.6235	1006.8286	1037.3391	1074.6684	1119.4522	1134.612	1151.328	1192.4707	1205.6916	1260.2894	1316.3588	1331.4603	1344.5535	1404.0034	1428.8461	1454.9117	1475.7378	1490.9434	1493.8021	1518.7439	1721.9495	1741.7082	2958.7657	2998.6835	3017.1427	3076.6891	3080.6418	3125.391	3171.2626	3193.5686	3451.9122	3521.1409
CNC1C=CCOC1=N	CN[C@H]1C=CCO[C]1[NH]	
InChI=1S/C6H10N2O/c1-8-5-3-2-4-9-6(5)7/h2-3,5,7-8H,4H2,1H3	InChI=1S/C6H10N2O/c1-8-5-3-2-4-9-6(5)7/h2-3,5,7-8H,4H2,1H3/t5-/m0/s1
