16
gdb 34899	1.94601	1.91427	1.18854	2.3469	80.24	-0.2354	0.0331	0.2685	1062.4017	0.122562	-363.487165	-363.478834	-363.47789	-363.520053	31.986	
C	-0.3044208315	-1.2596942778	 0.0138683616	-0.451673
C	-0.1680412759	-0.066012108	 0.0435343181	 0.373243
C	-0.0185173907	 1.3719752272	 0.0558658111	-0.230865
C	-0.2762191274	 2.1287883028	 1.3726394224	-0.058124
N	 0.7452004105	 1.6711239299	 2.3351908742	-0.312928
C	 1.0809964561	 2.7301902962	 1.3631187138	-0.058139
C	 1.4529252447	 2.0241993145	 0.045404404	-0.230801
C	 2.6185730192	 1.1691694377	 0.0235459561	 0.373159
C	 3.5941644481	 0.4683211432	-0.0137470415	-0.451651
H	-0.4153938329	-2.315456863	 0.0028562433	 0.193478
H	-0.5926802752	 1.818651502	-0.7611052669	 0.108554
H	-1.2240660447	 2.5341282435	 1.7026667131	 0.104787
H	 0.549410267	 2.1269252557	 3.2255918755	 0.234127
H	 1.4212546433	 3.7063132831	 1.6841208146	 0.104787
H	 1.4977916084	 2.7453635359	-0.7759022494	 0.108564
H	 4.4505214512	-0.1588900328	-0.0318894198	 0.19348
97.281	101.1535	159.1262	200.0194	305.0426	384.784	409.2053	516.4564	572.4963	618.5963	619.2111	632.7173	637.2529	644.7435	723.5915	763.8732	837.2423	842.1234	904.7116	956.748	968.8143	1025.4929	1062.6939	1067.5001	1104.3922	1109.6645	1163.763	1231.6925	1253.1379	1307.1355	1343.4579	1354.9417	1382.5241	2237.7859	2240.4928	3058.1406	3072.4967	3191.0407	3204.2115	3482.2813	3505.041	3505.5312
C#CC1C2NC2C1C#C	C#C[C@H]1[C@H]2N[C@H]2[C@H]1C#C	
InChI=1S/C8H7N/c1-3-5-6(4-2)8-7(5)9-8/h1-2,5-9H	InChI=1S/C8H7N/c1-3-5-6(4-2)8-7(5)9-8/h1-2,5-9H/t5-,6+,7-,8+
