13
gdb 19634	6.25633	1.75385	1.68388	2.0248	68.46	-0.2198	0.0137	0.2335	768.8712	0.094697	-324.161603	-324.155586	-324.154642	-324.191456	24.077	
C	 0.0565096351	-1.1702678243	-0.0242118554	-0.365112
C	 0.0078821502	 0.0324790659	-0.0221968133	 0.030083
C	-0.0923477923	 1.4419888557	-0.0156787392	 0.347547
C	-0.9441019	 2.4439907926	 0.8179178127	-0.181242
C	-0.7824943867	 3.4856944614	-0.2962600072	-0.111521
C	 0.2374537359	 3.3725475948	 0.8069218005	-0.008337
N	 1.0992689667	 2.3976288729	 0.0019939787	-0.212949
C	 0.0756576161	 2.4738533424	-1.0904811021	-0.112031
H	 0.1116084506	-2.2306678497	-0.0259543161	 0.18456
H	-1.7461537416	 2.3101145179	 1.5284130032	 0.10765
H	-1.444824051	 4.2893200043	-0.5819675585	 0.104493
H	 0.6225682778	 4.0755394423	 1.5335545284	 0.108206
H	 0.3316968192	 2.3560027937	-2.1365225318	 0.108654
158.72	163.3293	463.0063	484.6129	535.5101	587.313	667.6829	674.548	742.2997	753.6324	783.5072	814.6152	857.4281	866.278	908.5118	939.6955	993.8567	998.5374	1007.7504	1035.2487	1059.3692	1111.2534	1183.4495	1223.0296	1253.3037	1342.8887	1375.4252	2232.1849	3187.641	3200.1157	3224.191	3236.0908	3502.2926
C#CC12C3C4C3N1C24	C#C[C@@]12[C@@H]3[C@H]4[C@@H]3N1[C@@H]24	
InChI=1S/C7H5N/c1-2-7-4-3-5(4)8(7)6(3)7/h1,3-6H	InChI=1S/C7H5N/c1-2-7-4-3-5(4)8(7)6(3)7/h1,3-6H/t3-,4+,5-,6+,7-,8?/m0/s1
