17
gdb 48085	3.1889	1.25233	1.02444	1.4037	74.11	-0.2459	-0.095	0.1509	1166.3929	0.135443	-421.786526	-421.778631	-421.777686	-421.820098	29.115	
O	-0.0567944152	 1.8761311111	-2.0815783167	-0.221918
C	 0.4061339579	 1.2410538094	-1.1712347244	 0.094103
C	 1.1484604806	 1.8616735018	 0.0252795096	 0.245353
O	 1.5146593242	 1.1037172311	 0.8979600416	-0.286927
C	 1.3345410196	 3.3479653252	-0.0013068382	-0.065733
C	 1.9963260433	 4.0998831683	 1.1905704714	-0.056147
C	 3.3731823766	 3.5031846068	 0.7622084149	-0.224051
C	 2.6849078903	 3.9580157797	-0.5553303831	-0.051418
C	 2.2804917586	 5.2606943405	 0.1910155222	-0.221523
H	 0.337992599	 0.1343833789	-1.0969407034	 0.105974
H	 0.4491352276	 3.8143096232	-0.4426645714	 0.099495
H	 1.5944268982	 4.1764028795	 2.2007659087	 0.083658
H	 4.253719384	 4.0800085928	 1.0562511989	 0.094153
H	 3.5223346879	 2.4366265353	 0.9201927727	 0.122928
H	 3.0533966631	 3.8629430325	-1.5770305702	 0.087171
H	 1.4165671295	 5.8064523433	-0.197377256	 0.0974
H	 3.099332405	 5.9343389505	 0.4552737332	 0.097483
36.8644	123.3645	133.5934	200.6075	257.566	405.731	526.8597	549.3592	581.0098	629.149	767.8427	801.017	854.7354	880.9393	902.5993	909.0075	950.0459	1008.8671	1017.7066	1029.0152	1057.0886	1085.7465	1112.6798	1113.6622	1133.6533	1186.0926	1194.824	1210.2308	1233.6432	1246.7694	1263.3909	1363.7043	1405.4418	1502.7386	1539.6482	1786.9887	1824.122	2917.1127	3053.8092	3070.7817	3075.5918	3111.5705	3117.6556	3121.395	3158.464
O=CC(=O)C1C2CC1C2	O=CC(=O)[C@H]1[C@H]2C[C@@H]1C2	
InChI=1S/C7H8O2/c8-3-6(9)7-4-1-5(7)2-4/h3-5,7H,1-2H2	InChI=1S/C7H8O2/c8-3-6(9)7-4-1-5(7)2-4/h3-5,7H,1-2H2/t4-,5+,7-
