15
gdb 104563	2.45409	1.34111	1.0516	2.9121	67.94	-0.2782	-0.0022	0.276	1141.6169	0.11013	-457.74587	-457.737226	-457.736282	-457.779435	31.815	
O	 0.1267070903	 1.4737644586	-0.0136646164	-0.406486
C	 0.1288032714	 0.0967023901	-0.2885831957	-0.092112
C	-1.2557049545	-0.5261414986	-0.0872887022	 0.149453
C	-1.2790592421	-2.0622878709	 0.1189139907	-0.472335
C	-1.6239660701	-1.7106689144	 1.5635009506	 0.452731
O	-1.832083013	-2.2791874439	 2.5835472998	-0.305228
O	-1.6269466268	-0.3518422567	 1.3477019465	-0.274554
C	-2.2716002347	 0.0232331572	-0.9626011034	 0.342037
C	-3.1029150872	 0.4517286481	-1.7159185536	-0.440533
H	-0.191736819	 1.5836536921	 0.8904872112	 0.299895
H	 0.4347557601	-0.0258421702	-1.3320948464	 0.129189
H	 0.8425578609	-0.4518369756	 0.346763146	 0.096267
H	-2.0670429124	-2.5943005603	-0.4134438167	 0.160044
H	-0.3238850551	-2.5744160152	-0.0112915785	 0.14981
H	-3.8374581479	 0.8443566497	-2.3757191019	 0.211824
78.2816	103.5831	160.1539	181.3128	239.9906	367.1527	416.7348	431.0864	454.3442	502.8953	526.9401	588.4711	641.4317	677.3309	683.1327	807.3919	851.3896	905.1056	942.8897	996.0857	1076.1584	1093.2888	1149.9325	1169.4924	1210.5943	1229.0799	1287.0804	1395.2052	1425.6171	1450.8004	1491.039	1947.8883	2243.879	2980.2449	3089.527	3093.9666	3159.3595	3499.0672	3793.3427
OCC1(CC(=O)O1)C#C	OC[C@]1(CC(=O)O1)C#C	
InChI=1S/C6H6O3/c1-2-6(4-7)3-5(8)9-6/h1,7H,3-4H2	InChI=1S/C6H6O3/c1-2-6(4-7)3-5(8)9-6/h1,7H,3-4H2/t6-/m1/s1
