17
gdb 54106	2.95491	1.5562	1.2032	3.4481	68.76	-0.2318	0.0104	0.2422	1028.5446	0.136692	-455.09625	-455.088092	-455.087148	-455.129123	31.685	
N	 0.2535867105	 0.8143339473	 1.1193549712	-0.519462
C	 0.1059959166	 0.0407238561	 0.0092291669	 0.309627
O	 0.9222518813	 0.0151088559	-0.8939433833	-0.364733
C	-1.1882962987	-0.7909068293	 0.0176129122	 0.319415
O	-2.2009710882	-0.1114717633	 0.7507409877	-0.488774
C	-1.6382907565	-1.5808039864	-1.2545071431	-0.088428
C	-0.481500086	-2.5821695904	-1.0140775305	-0.211112
C	-1.1633406547	-2.320972322	 0.3499793952	-0.072698
N	-2.4873181811	-2.4932473266	-0.3753142528	-0.339252
H	 1.0862927881	 1.3718202723	 1.2116969105	 0.26205
H	-0.4584830994	 0.8335167267	 1.8284246733	 0.267497
H	-2.4424189163	 0.6848799985	 0.264368106	 0.289964
H	-2.0039282741	-1.1737548405	-2.1985011526	 0.084121
H	-0.6793306419	-3.5779302819	-1.4087533943	 0.109653
H	 0.532565468	-2.2290123678	-1.169939096	 0.139583
H	-0.9672570458	-2.7785448819	 1.3210809043	 0.084915
H	-3.1884222619	-1.9225394165	 0.1034673652	 0.217633
47.7375	161.6658	219.2603	247.9084	352.2284	376.9868	398.5209	412.1731	470.1928	569.5247	627.4423	640.8201	680.3827	731.3373	787.602	831.2337	874.8707	916.7605	939.7084	1022.3993	1038.5481	1058.5637	1082.3141	1089.899	1136.7354	1163.7147	1171.6633	1201.1702	1212.2271	1259.5092	1305.8909	1315.0823	1328.0023	1360.47	1493.558	1591.9338	1785.47	3100.9274	3102.579	3115.9546	3210.3522	3420.9525	3602.0945	3745.146	3799.4674
NC(=O)C1(O)C2CC1N2	NC(=O)[C@@]1(O)[C@H]2C[C@@H]1N2	
InChI=1S/C5H8N2O2/c6-4(8)5(9)2-1-3(5)7-2/h2-3,7,9H,1H2,(H2,6,8)	InChI=1S/C5H8N2O2/c6-4(8)5(9)2-1-3(5)7-2/h2-3,7,9H,1H2,(H2,6,8)/t2-,3+,5-
