19
gdb 59452	2.79829	1.14074	0.90076	4.9889	72.52	-0.2299	0.028	0.2579	1310.944	0.158896	-456.347879	-456.338295	-456.337351	-456.382597	35.664	
C	-0.0367683643	 1.5596974566	-0.0312216466	-0.405026
C	 0.0100133049	 0.0662428938	 0.2754168874	 0.113219
O	 0.5570666028	-0.182428013	 1.5815987118	-0.421898
C	-1.349487757	-0.5885426971	 0.1222087037	-0.058582
N	-1.6569601154	-1.1241900314	-1.211822996	-0.316361
C	-1.5461956481	-2.0508436393	-0.078964968	-0.128759
C	-0.4660442779	-3.1221134737	-0.1566234149	 0.383852
N	 0.5231455509	-3.0114791518	 0.7698568269	-0.524354
O	-0.554437785	-4.0374019308	-0.9506915538	-0.367933
H	 0.9542402928	 2.0056228853	 0.0848878458	 0.128849
H	-0.3800242216	 1.7244114489	-1.056867851	 0.13818
H	-0.7288013659	 2.0781817604	 0.644437256	 0.105408
H	 0.7027872606	-0.4263091116	-0.4119894016	 0.114681
H	-0.038637449	 0.2010566049	 2.2352004564	 0.28407
H	-2.1498443336	-0.0724811996	 0.6577663207	 0.075951
H	-2.6299526128	-0.9730975095	-1.46104146	 0.238973
H	-2.4755500956	-2.4639245178	 0.3114300499	 0.11143
H	 0.6321049857	-2.1744743052	 1.3292187953	 0.273809
H	 1.2680533284	-3.6892309393	 0.735321708	 0.25449
43.5928	101.0151	160.5295	198.1682	248.1866	268.6948	303.3993	313.0748	355.7967	450.9912	481.0324	504.3574	528.0809	631.7819	678.7798	768.8439	792.8672	850.6265	899.2668	932.1067	952.027	974.4279	1026.8755	1077.4437	1104.821	1137.5405	1146.0522	1189.0597	1222.4618	1259.7583	1283.9392	1330.9112	1349.9068	1401.9561	1411.6099	1421.6213	1470.9855	1492.9433	1495.0381	1640.4434	1802.0191	3026.945	3072.6343	3085.8417	3105.5201	3116.2626	3126.9978	3513.1128	3515.1875	3682.6983	3799.1158
CC(O)C1NC1C(N)=O	C[C@@H](O)[C@H]1N[C@H]1C(=O)N	
InChI=1S/C5H10N2O2/c1-2(8)3-4(7-3)5(6)9/h2-4,7-8H,1H3,(H2,6,9)	InChI=1S/C5H10N2O2/c1-2(8)3-4(7-3)5(6)9/h2-4,7-8H,1H3,(H2,6,9)/t2-,3-,4-/m1/s1
