15
gdb 34516	5.13529	1.20727	1.1012	4.6567	77.81	-0.2408	-0.0651	0.1756	1069.7216	0.115045	-379.602546	-379.596127	-379.595183	-379.633411	25.638	
N	 0.0716644875	-1.1332849232	 0.0007346239	-0.34152
C	-0.0007287622	 0.02346852	 0.0030519727	 0.19503
C	-0.04807293	 1.4338826211	-0.0045884517	 0.244046
C	-1.0955582621	 2.273264899	 0.0059198236	-0.197821
C	-0.439206602	 3.629798113	 0.014775326	-0.031394
C	 0.8094651538	 3.5919702646	-0.9272095205	-0.06223
C	 1.5146214715	 4.469634798	 0.1120643421	-0.186622
N	 0.753880112	 3.4945528644	 1.0177821993	-0.139002
C	 1.1420641567	 2.3838582359	-0.001435789	-0.110431
H	-2.1520212406	 2.0509867104	 0.0291252945	 0.143777
H	-1.0426678129	 4.5308445864	 0.1186365738	 0.089202
H	 0.8301097656	 3.6347952291	-2.022642824	 0.080239
H	 2.6007744899	 4.3903678358	 0.2032404751	 0.111001
H	 1.1866379068	 5.5067813557	 0.2186265779	 0.109651
H	 2.1518265358	 1.9848589199	 0.0849028063	 0.096074
131.6143	151.8888	403.6098	429.9	457.3933	491.2961	590.6565	605.5894	715.1811	741.6989	780.6304	845.4498	873.1586	883.3426	911.8894	934.5507	979.5154	991.0603	1047.3325	1101.1288	1105.7265	1128.5068	1171.5128	1186.9135	1207.3993	1241.282	1249.2597	1258.7584	1305.2635	1318.293	1529.1595	1650.6521	2336.6773	3037.2214	3060.6912	3121.0478	3132.2647	3138.3126	3252.887
N#CC1=CC2C3CN2C13	N#CC1=C[C@@H]2[C@H]3CN2[C@@H]13	
InChI=1S/C7H6N2/c8-2-4-1-6-5-3-9(6)7(4)5/h1,5-7H,3H2	InChI=1S/C7H6N2/c8-2-4-1-6-5-3-9(6)7(4)5/h1,5-7H,3H2/t5-,6-,7+/m1/s1
