19
gdb 41798	2.32621	2.05033	1.50901	1.2552	75.34	-0.2416	0.0215	0.2631	953.7266	0.162353	-423.041509	-423.034276	-423.033331	-423.07323	28.641	
C	-0.0026031997	 1.5289337956	-0.2850253388	-0.095431
O	 1.36820077	 1.8980999088	-0.2312550084	-0.269959
C	 2.1392959298	 0.7347764914	 0.0241493999	 0.198761
C	 2.666573642	 0.7328081614	 1.4582284717	-0.275324
C	 1.6475894558	 0.7200212453	 2.5692557451	-0.044215
C	 0.3855820642	 0.2868961923	 2.5724997878	-0.057425
C	-0.4226704802	-0.330967689	 1.4587251227	-0.267644
C	-0.0168381196	 0.0175247461	 0.0258697032	 0.062646
O	 1.3217687474	-0.3759350982	-0.2681809669	-0.258273
H	-0.5741990899	 2.1087451198	 0.4483782334	 0.107165
H	-0.3966855329	 1.7380364247	-1.2872609808	 0.101255
H	 2.983261828	 0.7137588738	-0.6772738927	 0.08494
H	 3.3357955723	-0.1332690256	 1.5703952553	 0.116504
H	 3.3049762824	 1.6183020391	 1.5667929141	 0.11371
H	 2.0340530567	 1.0939790287	 3.515842123	 0.087382
H	-0.145729042	 0.3423464551	 3.521028831	 0.085247
H	-0.3940523864	-1.4253060352	 1.5644675248	 0.121316
H	-1.4782627783	-0.0538387019	 1.5844663643	 0.103636
H	-0.6654344397	-0.5275346921	-0.6666175685	 0.085709
101.9315	124.725	277.8951	314.0379	363.9201	394.0023	451.9918	595.5636	689.021	731.4013	767.3537	817.2574	833.0593	861.5451	887.5871	916.8081	943.518	993.3883	997.0787	1021.3775	1043.6291	1061.8665	1080.279	1112.0183	1170.0122	1214.0703	1232.4769	1239.1007	1256.627	1319.675	1350.6343	1358.1876	1372.1563	1384.6639	1399.4162	1420.5892	1440.9976	1454.5865	1461.9881	1526.636	1733.3613	3003.4994	3004.0318	3017.5438	3029.8023	3035.402	3053.2445	3059.3534	3069.222	3125.8688	3150.2009
C1OC2CC=CCC1O2	C1O[C@H]2CC=CC[C@@H]1O2	
InChI=1S/C7H10O2/c1-2-4-7-8-5-6(3-1)9-7/h1-2,6-7H,3-5H2	InChI=1S/C7H10O2/c1-2-4-7-8-5-6(3-1)9-7/h1-2,6-7H,3-5H2/t6-,7+/m0/s1
