21
gdb 60788	2.35856	1.18846	1.03102	2.3219	85.08	-0.2488	-0.0291	0.2197	1281.5823	0.177506	-387.072052	-387.060975	-387.06003	-387.108838	40.157	
C	-0.0918797788	 1.5802684299	-0.0498396674	-0.434348
C	 0.0116204381	 0.0479407463	-0.013364662	-0.056214
C	 0.6541976623	-0.4360541623	-1.30209078	 0.14384
O	 0.2157082786	-1.3108008726	-2.0045292313	-0.252477
C	 0.7737187766	-0.5126063131	 1.2493627984	 0.030538
C	 0.725435007	-2.0590449841	 1.2350761843	-0.409822
C	 2.2485944791	-0.0456737803	 1.3048956087	-0.416474
C	 0.0789084647	-0.0379952187	 2.4507746758	 0.349214
C	-0.4883221856	 0.3374961555	 3.4426862987	-0.482902
H	 0.8836890765	 2.0512918291	-0.2095130021	 0.1225
H	-0.7492127543	 1.8995300259	-0.8642970891	 0.126986
H	-0.5027520884	 1.9576913488	 0.8893327218	 0.14352
H	-0.9926896521	-0.3865724942	 0.0110343811	 0.103619
H	 1.5884913303	 0.1029691225	-1.5855823061	 0.075434
H	 1.2449767222	-2.4563307461	 0.358667481	 0.129004
H	 1.2039267027	-2.4589544608	 2.132898819	 0.12281
H	-0.3068622211	-2.4174906178	 1.2095039898	 0.13101
H	 2.3293380618	 1.0435136234	 1.3219106798	 0.127823
H	 2.7222642481	-0.4285923013	 2.2125873598	 0.130565
H	 2.8118915069	-0.4249489281	 0.4468915644	 0.118461
H	-0.9872673948	 0.6658340079	 4.3209219154	 0.196914
19.1745	67.561	147.942	175.8115	197.299	238.2036	242.5412	263.8025	277.8525	322.3215	365.1111	384.789	422.2673	483.8585	556.7428	599.999	627.5772	639.4939	701.6966	853.1022	908.1736	941.2615	944.0394	965.9983	1017.1621	1069.5833	1092.5842	1151.4585	1175.0051	1208.4748	1232.3317	1306.7875	1345.7582	1400.9128	1407.691	1424.7045	1430.5922	1479.0901	1486.9473	1496.047	1498.5299	1501.9319	1511.6861	1825.8316	2227.2406	2854.2921	3040.1206	3044.4924	3048.1115	3064.9444	3105.147	3115.5663	3123.7631	3124.9026	3127.6468	3130.1863	3499.7899
CC(C=O)C(C)(C)C#C	C[C@@H](C=O)C(C)(C)C#C	
InChI=1S/C8H12O/c1-5-8(3,4)7(2)6-9/h1,6-7H,2-4H3	InChI=1S/C8H12O/c1-5-8(3,4)7(2)6-9/h1,6-7H,2-4H3/t7-/m0/s1
