15
gdb 52515	2.4113	1.0267	0.77727	4.5234	78.23	-0.2629	-0.0683	0.1946	1454.1289	0.107954	-420.574142	-420.563949	-420.563005	-420.611341	34.628	
C	 0.0497649083	 1.3748062822	-0.0751134242	-0.506249
C	 0.005898158	-0.0753842634	-0.055462113	 0.151771
C	-0.0376374343	-1.2815288825	-0.0419633475	 0.027402
C	-0.0555507748	-2.7130553956	 0.0019989042	 0.18915
O	-1.067403151	-3.3807180176	 0.0734837334	-0.314624
C	 1.3138529925	-3.4412544692	-0.0262935402	-0.117525
O	 1.1142211543	-4.8128083664	 0.1683780414	-0.412879
C	 1.997996468	-3.1373237361	-1.2886437264	 0.332585
C	 2.5510381901	-2.8960639386	-2.3275496179	-0.480943
H	 0.8023556855	 1.7330946171	-0.7852224236	 0.168244
H	-0.9201217282	 1.7974240154	-0.3558770266	 0.167822
H	 0.3138378845	 1.7626800978	 0.9149043719	 0.1689
H	 1.910628443	-3.0318612266	 0.8043820511	 0.124348
H	 0.1512858519	-4.9363117186	 0.1075337263	 0.297823
H	 3.0461971923	-2.6903104979	-3.2444183689	 0.204175
23.4521	45.1044	75.2946	121.3913	159.8796	237.1924	288.2257	343.4796	375.9278	425.2068	432.5079	438.9377	558.8441	589.7052	628.8048	674.3643	681.8322	848.2931	937.6223	990.484	1043.7011	1051.6275	1123.3853	1207.3562	1255.2744	1335.2435	1408.4507	1432.5819	1466.4294	1471.3753	1757.016	2233.6548	2342.3393	2982.4363	3034.6631	3098.9399	3105.5852	3502.8855	3656.7649
CC#CC(=O)C(O)C#C	CC#CC(=O)[C@@H](O)C#C	
InChI=1S/C7H6O2/c1-3-5-7(9)6(8)4-2/h2,6,8H,1H3	InChI=1S/C7H6O2/c1-3-5-7(9)6(8)4-2/h2,6,8H,1H3/t6-/m0/s1
