17
gdb 49643	3.48401	1.50708	1.34732	2.9645	73.02	-0.2216	0.0124	0.234	972.973	0.138043	-417.955278	-417.948431	-417.947487	-417.986907	26.759	
O	 0.0847784993	 0.057885608	-0.3506885777	-0.324728
C	 0.1025657857	 1.2513652041	-0.1341646153	 0.127672
N	 1.2053267017	 1.9475573379	 0.2467069772	-0.036058
C	 2.6108879816	 1.5188779627	 0.2187011025	-0.024855
C	 3.2212724265	 1.6745728285	-1.1931228649	-0.181029
N	 3.3268431079	 3.1720419698	-1.039965601	-0.154552
C	 1.9791788388	 3.8181478635	-1.2226653316	-0.17969
C	 1.5171267369	 3.3840750155	 0.1900153975	-0.046412
C	 3.0084830646	 3.0078774625	 0.4437654446	-0.011341
H	-0.7983682501	 1.8980558405	-0.183045809	 0.071642
H	 2.8543745632	 0.6614950908	 0.845559472	 0.103023
H	 4.227727897	 1.2495244653	-1.2576393768	 0.118295
H	 2.6254891488	 1.3248496466	-2.0404162577	 0.123398
H	 2.1076151502	 4.9031649853	-1.2964430545	 0.117229
H	 1.3991972152	 3.4638093334	-2.0803823422	 0.113254
H	 0.8877126287	 4.0365632781	 0.7980828255	 0.093616
H	 3.6707505139	 3.4121748976	 1.2052722615	 0.090537
67.5705	168.9684	270.383	346.6494	379.2167	479.2936	531.5926	699.196	722.6995	777.6968	813.5927	841.0671	881.8884	890.1497	910.4938	978.7415	987.6759	1007.6848	1015.7738	1036.544	1105.7781	1129.7611	1178.365	1186.3741	1192.2224	1200.226	1213.9079	1232.0973	1279.9345	1291.7883	1303.9883	1319.3603	1388.4595	1432.0955	1483.1777	1494.6242	1789.4345	2917.4112	3038.5091	3049.0058	3089.6057	3096.6889	3108.331	3116.7881	3149.2328
O=CN1C2CN3CC1C23	O=CN1[C@H]2CN3C[C@@H]1[C@@H]23	
InChI=1S/C6H8N2O/c9-3-8-4-1-7-2-5(8)6(4)7/h3-6H,1-2H2	InChI=1S/C6H8N2O/c9-3-8-4-1-7-2-5(8)6(4)7/h3-6H,1-2H2/t4-,5+,6+
