16
gdb 131321	4.83707	1.25886	1.01759	3.3451	72.16	-0.1945	0.0453	0.2397	1114.2544	0.12847	-434.084889	-434.077824	-434.07688	-434.116283	27.735	
O	-0.0122127723	 1.2633805751	 0.0065557101	-0.42929
C	 0.0198799804	-0.084597503	 0.0537667334	 0.458279
N	-0.0284589043	-0.8136783664	-1.0537789847	-0.414188
N	-0.0488423585	-2.0909959843	-0.5605077414	 0.02682
C	 0.2476978816	-3.3599513522	-1.1866184878	-0.164527
C	-0.0087830255	-4.3003531263	 0.0188839956	-0.180219
N	 0.2990293633	-3.4520745492	 1.1971812562	-0.409147
C	 0.0836090156	-2.1390123269	 0.7833837137	 0.469743
C	 0.0976789634	-0.8422076208	 1.2549094517	-0.499867
H	-0.0658161024	 1.506731479	-0.9263907265	 0.300917
H	-0.4096436375	-3.5693554156	-2.0334308979	 0.129781
H	 1.2909039798	-3.404587005	-1.5277427791	 0.122992
H	-1.0588404841	-4.6223388934	 0.0185922348	 0.115195
H	 0.629087955	-5.1864204588	 0.0003625217	 0.123074
H	-0.1672850515	-3.7287261738	 2.0503849002	 0.246512
H	 0.1592997573	-0.4785393085	 2.26512369	 0.103926
121.1098	195.8258	253.8208	319.2886	371.8999	425.5298	519.8709	550.4116	608.4863	668.0764	705.6729	734.5118	747.1492	783.6868	855.5258	904.3595	952.1435	1010.4641	1043.5372	1123.5883	1131.243	1163.4787	1204.2783	1217.576	1257.1971	1306.3107	1333.5133	1346.3024	1394.9582	1475.6553	1506.7002	1526.657	1547.8277	1559.8317	1632.5951	3010.0377	3016.2088	3098.6019	3106.2161	3289.0493	3580.6907	3791.7888
OC1=NN2CCNC2=C1	Oc1nn2CCNc2c1	
InChI=1S/C5H7N3O/c9-5-3-4-6-1-2-8(4)7-5/h3,6H,1-2H2,(H,7,9)	InChI=1S/C5H7N3O/c9-5-3-4-6-1-2-8(4)7-5/h3,6H,1-2H2,(H,7,9)
