15
gdb 124432	3.38321	1.16336	1.0295	5.4042	70.04	-0.2643	-0.007	0.2572	1155.1103	0.113743	-413.006582	-412.998499	-412.997555	-413.040477	28.531	
C	 0.0301900778	 1.5247283356	-0.0941313084	-0.384417
C	-0.0027564138	-0.0050435622	 0.0736938687	-0.13996
C	 0.7041924599	-0.414598045	 1.2982064832	 0.29259
N	 1.2698313401	-0.7032290721	 2.2625314323	-0.300576
N	-1.3625153594	-0.5358567052	 0.0678458579	-0.012297
C	-2.3188712078	-0.456985786	 1.0468712172	 0.028994
N	-3.4435285385	-0.9797852069	 0.6367604046	-0.216682
N	-3.2448363154	-1.4202087525	-0.6588808563	-0.219172
C	-2.0079181257	-1.1482009475	-0.9741152657	 0.025962
H	 1.0641143604	 1.8759250452	-0.1299702751	 0.153417
H	-0.4736525127	 1.7975214801	-1.0241226562	 0.148964
H	-0.4768965816	 2.0148716465	 0.7398034926	 0.155115
H	 0.5156405601	-0.4700146145	-0.7714891981	 0.157423
H	-2.1315661429	-0.0337080924	 2.0214524613	 0.161766
H	-1.5270387705	-1.3663238732	-1.9156554779	 0.148873
31.9003	101.6527	166.9365	201.6227	231.0521	335.2525	386.0474	482.5559	566.2659	654.7018	693.0737	720.2417	816.4761	848.6791	859.0721	953.5915	992.7564	1021.7447	1073.6373	1093.4042	1121.7207	1206.5737	1233.8395	1273.4085	1320.0206	1379.8991	1412.7895	1415.0719	1487.1207	1492.4125	1505.6867	1539.9593	2368.1201	3057.7097	3065.3007	3142.1314	3145.0281	3259.9883	3269.9699
CC(C#N)N1C=NN=C1	C[C@@H](C#N)n1cnnc1	
InChI=1S/C5H6N4/c1-5(2-6)9-3-7-8-4-9/h3-5H,1H3	InChI=1S/C5H6N4/c1-5(2-6)9-3-7-8-4-9/h3-5H,1H3/t5-/m0/s1
