21
gdb 101113	3.38134	0.98628	0.91002	2.1175	78.1	-0.2303	0.0732	0.3035	1357.1793	0.181037	-424.174077	-424.164546	-424.163601	-424.208835	35.403	
C	-0.2086694498	 1.6495356037	-0.0179321547	-0.401016
C	-0.0392700553	 0.1238878396	-0.0330635574	-0.098252
C	-1.3855235726	-0.59126653	 0.1281291874	-0.072823
O	-1.9560143594	-0.1948040435	 1.3663948523	-0.423159
C	 0.6756645949	-0.3846149701	-1.2614006272	 0.297837
C	 1.5058931988	-1.6605412135	-1.2796198693	-0.354213
C	 2.1298788772	-0.3593082644	-1.6772001848	 0.036787
O	 1.8277637796	-0.0552457704	-3.0402430754	-0.288071
C	 0.4116318677	 0.0095969006	-2.7194200093	-0.137442
H	 0.7598890777	 2.1524814115	-0.0960541672	 0.113073
H	-0.8328825287	 1.9905735547	-0.8515989027	 0.109746
H	-0.6943707824	 1.9635817261	 0.9080524247	 0.135553
H	 0.566729537	-0.1587434549	 0.8386860216	 0.082355
H	-2.0452448016	-0.3277509193	-0.7161749835	 0.083077
H	-1.2253697034	-1.6798154532	 0.0935883282	 0.08981
H	-2.8156550003	-0.6163427018	 1.4526056783	 0.28718
H	 1.7759375276	-2.0318108938	-0.2950405748	 0.113204
H	 1.3500190202	-2.425532015	-2.0360836049	 0.111812
H	 3.0187589116	 0.082927758	-1.2409289079	 0.104453
H	-0.1871385363	-0.6751159849	-3.3325627099	 0.100742
H	 0.0428278074	 1.0334444306	-2.8439990134	 0.109346
45.5455	103.7844	129.2204	220.0924	229.9706	242.9398	278.8124	312.7158	346.2128	443.3274	467.8303	475.3549	694.2476	759.7528	842.2014	868.5993	907.3029	929.3111	929.9508	984.1145	1000.7237	1013.8544	1021.5541	1058.4692	1072.729	1079.9684	1087.6364	1130.1178	1159.1514	1167.4143	1208.4708	1255.214	1264.7922	1287.9023	1300.8942	1342.8205	1365.2891	1402.0029	1414.2423	1455.9141	1480.7458	1494.4011	1503.8856	1516.7926	1520.6495	2955.7553	2994.6353	3017.8616	3019.82	3037.2191	3070.9251	3101.0053	3108.7563	3133.7733	3173.8239	3201.4862	3834.0321
CC(CO)C12CC1OC2	C[C@@H](CO)[C@]12C[C@H]1OC2	
InChI=1S/C7H12O2/c1-5(3-8)7-2-6(7)9-4-7/h5-6,8H,2-4H2,1H3	InChI=1S/C7H12O2/c1-5(3-8)7-2-6(7)9-4-7/h5-6,8H,2-4H2,1H3/t5-,6+,7+/m0/s1
