22
gdb 61448	3.28622	0.82328	0.76999	3.3895	82.86	-0.2434	0.0352	0.2786	1585.4117	0.192749	-404.380013	-404.369425	-404.368481	-404.416831	38.276	
C	 0.0669694188	 1.5321399164	 0.1526269081	-0.402854
C	 0.0909394826	 0.0051041217	-0.0037834121	 0.030997
C	 0.7086861237	-0.4145987156	-1.3472903052	-0.318183
C	-0.1649343193	-0.0465413186	-2.5459468823	 0.408585
N	 0.5117026207	 0.1187097884	-3.7216279376	-0.522683
O	-1.3730892157	 0.0778626212	-2.4737647473	-0.362795
C	 0.8144073629	-0.6591746935	 1.1531255166	 0.031325
C	 0.0898143597	-0.9332806709	 2.4452289243	-0.276336
C	 0.4895425626	-2.0785743412	 1.5450546028	-0.278507
H	 1.0833739008	 1.9453050554	 0.1409350842	 0.101271
H	-0.5026992196	 1.9991550483	-0.6552227228	 0.131022
H	-0.3947429322	 1.8170381394	 1.1027882625	 0.114852
H	-0.9464933327	-0.3501774315	-0.014252128	 0.095575
H	 1.712918354	 0.0135215851	-1.4631590559	 0.094171
H	 0.8333065285	-1.5055272103	-1.3656956682	 0.126434
H	 1.4965037643	-0.0628238066	-3.8017997208	 0.256016
H	-0.0248158775	 0.2560646371	-4.5626756618	 0.258283
H	 1.859193512	-0.3689205118	 1.2522988142	 0.072454
H	 0.6227707161	-0.8013103547	 3.3804202706	 0.108074
H	-0.9637316533	-0.6771615139	 2.4950189338	 0.112959
H	-0.2990450664	-2.5853623581	 0.9975320893	 0.112479
H	 1.2954149	-2.7297669059	 1.8656786358	 0.106863
29.1587	63.8061	96.9097	138.4001	158.5842	198.0218	238.89	285.9811	340.4422	357.1258	447.088	496.7932	520.7511	610.5587	661.5167	772.6225	815.8067	829.9435	852.4907	888.815	920.8288	945.0713	970.9531	1004.7006	1055.5052	1077.5086	1078.603	1105.0571	1139.2541	1144.4522	1195.0269	1199.3122	1226.2673	1238.97	1269.6117	1314.3689	1354.2091	1400.1672	1409.1431	1418.8185	1460.2052	1469.0447	1497.3471	1504.7668	1505.8428	1616.0178	1792.1255	3016.8403	3026.245	3040.2883	3057.9761	3094.6533	3116.2971	3118.3789	3125.5832	3131.7616	3203.9096	3219.3285	3600.6584	3738.3205
CC(CC(N)=O)C1CC1	C[C@@H](CC(=O)N)C1CC1	
InChI=1S/C7H13NO/c1-5(4-7(8)9)6-2-3-6/h5-6H,2-4H2,1H3,(H2,8,9)	InChI=1S/C7H13NO/c1-5(4-7(8)9)6-2-3-6/h5-6H,2-4H2,1H3,(H2,8,9)/t5-/m0/s1
