18
gdb 94667	3.72646	0.90846	0.79078	5.6882	70.69	-0.2457	0.0337	0.2793	1431.2525	0.146163	-476.183961	-476.174465	-476.17352	-476.219847	32.869	
O	 0.231546142	 1.2760110335	-0.0431375558	-0.423259
C	-0.030220022	-0.100720363	 0.0878356675	 0.042993
C	-0.546165396	-0.6093418976	 1.4540431951	-0.099901
O	-1.7862748164	-1.0537255975	 0.8617335275	-0.29149
C	-1.4301253925	-0.5013644461	-0.4297092067	 0.106015
C	-2.3437718537	 0.6394338234	-0.8490126867	-0.098173
O	-3.6265896228	 0.1497971309	-1.2285417583	-0.189027
C	-4.5208746595	-0.0560395522	-0.2364617743	 0.133921
N	-5.6476342734	-0.5554831914	-0.5073529556	-0.44483
H	 1.132459791	 1.4507975957	 0.2445946751	 0.294706
H	 0.7804952605	-0.7064269421	-0.3330090799	 0.088421
H	 0.003586395	-1.4361916143	 1.9179726514	 0.106641
H	-0.6952304795	 0.1939803899	 2.1866917356	 0.105415
H	-1.4459475889	-1.2787471565	-1.2023528188	 0.098677
H	-2.4275256521	 1.3789453902	-0.0450400635	 0.118181
H	-1.934121778	 1.1394284509	-1.7301874131	 0.131034
H	-4.1574555072	 0.2528842447	 0.7504026855	 0.094562
H	-6.2039053366	-0.6253283286	 0.3422278651	 0.226112
49.5589	60.6044	75.8278	129.8022	171.2107	216.9364	289.0722	338.6328	409.4226	456.6339	512.93	648.1739	761.3238	816.9175	856.0854	899.9375	906.7078	974.9609	1018.7954	1036.1759	1058.9735	1071.9606	1108.4894	1147.2362	1153.5462	1180.5162	1200.4668	1244.3595	1282.496	1309.8535	1318.4137	1334.8365	1372.2378	1408.0463	1426.0184	1439.7281	1481.6492	1512.8657	1743.4559	3015.8747	3030.9529	3043.4675	3051.3279	3058.8857	3071.8589	3113.2775	3516.8883	3830.7891
OC1COC1COC=N	O[C@H]1CO[C@H]1CO[CH][NH]	
InChI=1S/C5H9NO3/c6-3-8-2-5-4(7)1-9-5/h3-7H,1-2H2	InChI=1S/C5H9NO3/c6-3-8-2-5-4(7)1-9-5/h3-7H,1-2H2/t4-,5-/m0/s1
