23
gdb 108616	2.66431	1.16868	0.88698	1.81	89.98	-0.2189	0.0274	0.2462	1417.5402	0.204203	-388.316112	-388.305707	-388.304762	-388.351921	37.754	
C	 0.2603549844	 1.5283436586	-0.2482173581	-0.372341
C	-0.05186873	 0.0468536584	 0.0351294762	-0.29488
C	 0.6079057698	-0.4804009293	 1.2745688599	 0.191912
C	 0.0588556882	-0.8878475255	 2.4223896849	 0.182501
C	-1.3811896666	-0.9216502423	 2.8259960458	-0.504389
C	 1.1461201507	-1.3320364174	 3.376760908	 0.065712
C	 1.0223145733	-2.7727156401	 3.8761886629	-0.392311
O	 2.366307088	-1.1842382656	 2.6473908774	-0.279332
C	 2.1074991254	-0.6138652635	 1.3728220664	-0.158667
H	 1.3335834395	 1.6951328738	-0.3821075438	 0.122281
H	-0.2441140084	 1.8622787798	-1.1600912285	 0.114157
H	-0.0746338358	 2.1631114515	 0.5780252282	 0.120843
H	-1.1362929081	-0.0865299998	 0.1048097076	 0.103092
H	 0.2742975654	-0.5518755232	-0.827125257	 0.105033
H	-2.0362881735	-0.5170154421	 2.0509075636	 0.12535
H	-1.7132926268	-1.9437572187	 3.0454104637	 0.130792
H	-1.5453959506	-0.3376072858	 3.7409263962	 0.126907
H	 1.1743342039	-0.6635488662	 4.2570838186	 0.070506
H	 0.9385620435	-3.4659405292	 3.0334507977	 0.114997
H	 1.9088700646	-3.0400867021	 4.4578852874	 0.124892
H	 0.1441763407	-2.8909866445	 4.5195222199	 0.108982
H	 2.5218559291	-1.2623447423	 0.5831284512	 0.096806
H	 2.6197400431	 0.3588173555	 1.2841647118	 0.097157
47.2478	74.0657	126.2176	162.8905	200.9781	211.4799	233.5851	255.8664	294.6757	325.2497	421.9761	504.3579	538.9044	618.5364	639.9584	765.6431	789.3843	860.2245	896.1438	964.7668	998.3351	1027.683	1034.9091	1045.4487	1078.4991	1091.6728	1106.6531	1120.0201	1156.6443	1203.5483	1210.251	1265.7747	1304.124	1345.5448	1358.9107	1371.4618	1386.5765	1397.9378	1408.8586	1417.6933	1478.852	1480.2985	1487.9049	1493.2847	1497.3004	1497.9844	1507.304	1526.166	1750.2084	2924.3036	2958.2326	2971.4324	3009.602	3019.5277	3035.9005	3037.8389	3064.0093	3067.188	3108.5862	3109.3001	3111.0191	3117.3408	3118.3973
CCC1=C(C)C(C)OC1	CCC1=C(C)[C@@H](C)OC1	
InChI=1S/C8H14O/c1-4-8-5-9-7(3)6(8)2/h7H,4-5H2,1-3H3	InChI=1S/C8H14O/c1-4-8-5-9-7(3)6(8)2/h7H,4-5H2,1-3H3/t7-/m1/s1
