17
gdb 104959	2.5076	1.36073	1.05553	2.1027	75.74	-0.2631	-0.0668	0.1963	1180.318	0.132304	-421.785015	-421.775493	-421.774549	-421.819745	34.207	
C	-0.3284205181	 0.921205089	 0.9255473201	-0.388428
C	 0.331441501	-0.3208934133	 0.3135850638	-0.260833
C	 0.689106046	-0.1327293311	-1.1447913378	 0.305254
C	 0.4329171119	-1.1958348572	-2.1448452548	-0.23314
O	-0.4040731262	-0.0525594709	-2.0719988512	-0.259592
C	 1.8278887447	 0.8179910432	-1.4356874018	 0.187991
O	 2.6048986091	 1.1644125493	-0.5710954604	-0.299209
C	 1.9513757424	 1.2901089379	-2.8046993698	 0.275578
C	 2.1020492753	 1.6976660213	-3.9270225487	-0.410447
H	 0.3548196512	 1.7745138046	 0.9159867296	 0.137802
H	-1.2304755197	 1.1930280211	 0.3693061531	 0.130331
H	-0.6136669203	 0.7309265023	 1.9639862728	 0.11628
H	 1.2463596416	-0.5689952244	 0.8604827317	 0.124266
H	-0.3431908458	-1.1795785258	 0.3917032784	 0.101471
H	 1.0486623966	-1.2669965335	-3.0394181571	 0.129555
H	-0.0035297158	-2.1291173299	-1.7917550633	 0.126559
H	 2.2303803361	 2.0638979673	-4.9168146145	 0.216561
50.9936	86.6365	137.1733	182.3089	218.0935	235.4342	287.2897	320.7761	350.5161	469.3359	476.1016	568.0087	652.1454	678.1072	711.0388	759.1464	762.7037	841.014	881.6157	953.4072	989.2686	1034.9585	1099.2407	1121.8655	1137.5696	1168.1787	1271.2107	1318.7774	1353.9709	1394.9882	1407.2145	1467.1543	1500.2002	1510.5257	1515.3228	1755.3189	2213.4249	3046.1515	3050.0161	3086.7726	3092.8956	3117.0637	3127.1299	3180.1178	3493.4853
CCC1(CO1)C(=O)C#C	CC[C@]1(CO1)C(=O)C#C	
InChI=1S/C7H8O2/c1-3-6(8)7(4-2)5-9-7/h1H,4-5H2,2H3	InChI=1S/C7H8O2/c1-3-6(8)7(4-2)5-9-7/h1H,4-5H2,2H3/t7-/m0/s1
