25
gdb 101719	2.47634	0.96722	0.78829	0.9035	90.26	-0.2324	0.0867	0.3191	1610.6851	0.226204	-389.482859	-389.471736	-389.470792	-389.519775	40.739	
C	 0.2640568805	 1.4424250004	 0.3966197532	-0.384845
C	-0.0249977478	-0.0145083068	 0.0288376332	-0.175321
C	 0.6453300575	-0.4598037431	-1.2720917883	 0.156403
C	 0.4297245855	-1.9475955402	-1.5557529	-0.402422
O	 0.1100992965	 0.3676555521	-2.3074249369	-0.261651
C	 0.8537790732	 0.4161706706	-3.4837804932	 0.135148
C	 0.4914324728	-0.4685267418	-4.6568379062	-0.319809
C	 0.1865910126	 1.0181798793	-4.6850334137	-0.040913
C	-1.2436466026	 1.5056952965	-4.6096836365	-0.395473
H	 1.3359523333	 1.6040459193	 0.5589389072	 0.107045
H	-0.058128895	 2.1107710557	-0.4052972513	 0.133181
H	-0.2575898704	 1.7285382897	 1.3149869638	 0.107395
H	 0.3092372229	-0.6815081834	 0.8324853114	 0.091539
H	-1.1065664606	-0.1671685977	-0.0768293942	 0.1013
H	 1.7293605071	-0.2645026145	-1.1972247197	 0.060817
H	-0.6394554385	-2.1680259354	-1.6411125085	 0.117267
H	 0.9188287351	-2.250101789	-2.48455852	 0.124615
H	 0.842586083	-2.5529424753	-0.7421890186	 0.110782
H	 1.9109983006	 0.6355298687	-3.324567721	 0.078702
H	 1.2819805971	-0.8644651738	-5.286062623	 0.104775
H	-0.3546470221	-1.1330625027	-4.5172642302	 0.114625
H	 0.8356960269	 1.619273831	-5.316731797	 0.08276
H	-1.8251728578	 0.9003227856	-3.9108497713	 0.127384
H	-1.2884044375	 2.5437217951	-4.2626179693	 0.115585
H	-1.7253895022	 1.4587308397	-5.5922679998	 0.111114
32.7298	79.6531	110.356	123.9061	186.621	214.5395	222.3413	238.2387	271.6805	305.059	384.2307	418.49	470.5193	508.5713	553.3788	746.4763	775.8071	829.4327	833.1433	876.4138	909.8114	930.6602	975.0711	992.2118	1010.3121	1028.2859	1042.6967	1079.209	1110.6702	1129.4783	1148.7039	1160.6712	1176.9312	1195.6272	1207.294	1250.3491	1300.8357	1329.4354	1358.5924	1387.3717	1395.9055	1403.5901	1403.9289	1418.0786	1426.7209	1473.2651	1484.0791	1489.0485	1494.3944	1495.2853	1500.7828	1505.1408	1510.3829	2950.6694	3026.4368	3034.3311	3034.9658	3038.948	3064.5676	3081.1771	3091.1589	3098.6925	3107.4148	3120.8778	3124.2959	3127.2163	3127.5681	3140.8363	3216.5414
CCC(C)OC1CC1C	CC[C@@H](C)O[C@H]1C[C@H]1C	
InChI=1S/C8H16O/c1-4-7(3)9-8-5-6(8)2/h6-8H,4-5H2,1-3H3	InChI=1S/C8H16O/c1-4-7(3)9-8-5-6(8)2/h6-8H,4-5H2,1-3H3/t6-,7-,8+/m1/s1
