17
gdb 105279	2.45672	1.23969	0.97959	2.8508	75.22	-0.2757	-0.0267	0.2489	1230.1612	0.13429	-418.014435	-418.00514	-418.004196	-418.048821	32.874	
C	-0.3716175611	 1.446195621	-0.3118399304	-0.398111
C	-0.0249970895	-0.0453572328	-0.2578360712	-0.259503
C	 0.8672818657	-0.5194713354	-1.3998068429	 0.116173
C	 0.816313039	-1.9709202473	-1.8317917586	-0.268817
N	 0.2967981604	-0.9342814798	-2.681112427	-0.079347
C	-1.0384459301	-0.827809595	-3.0568025724	 0.137352
O	-1.7475377252	-1.7690015112	-3.3046997974	-0.273698
C	 2.1418032604	 0.1725694221	-1.5020728192	 0.286008
N	 3.1541078562	 0.7283317222	-1.5453436189	-0.33232
H	 0.5326902213	 2.0615798995	-0.3025643874	 0.15117
H	-0.9395737763	 1.6963245469	-1.2132836591	 0.126736
H	-0.978618637	 1.7247860306	 0.5536129056	 0.131291
H	 0.4929400375	-0.2701356331	 0.6816655216	 0.132038
H	-0.9360806572	-0.6539212013	-0.2702265378	 0.125767
H	 1.7244979063	-2.458894624	-2.1715239452	 0.15169
H	 0.0963725818	-2.6069856211	-1.3226534418	 0.149495
H	-1.3502038122	 0.2251202487	-3.176626208	 0.104074
82.4665	105.9682	135.0199	158.9968	202.0219	231.7254	251.646	328.4501	381.6278	446.0866	509.4057	574.2912	626.2814	733.5645	804.114	853.5356	897.3593	953.8283	1002.9961	1036.4507	1057.2736	1103.6674	1133.3317	1138.1395	1185.4342	1242.6639	1308.5596	1355.7163	1407.865	1412.104	1422.8664	1477.3142	1499.126	1504.3055	1505.4265	1803.8405	2359.5161	2980.0421	3039.5724	3045.3302	3079.4669	3116.4007	3116.6624	3123.508	3212.4333
CCC1(CN1C=O)C#N	CC[C@]1(CN1C=O)C#N	
InChI=1S/C6H8N2O/c1-2-6(3-7)4-8(6)5-9/h5H,2,4H2,1H3	InChI=1S/C6H8N2O/c1-2-6(3-7)4-8(6)5-9/h5H,2,4H2,1H3/t6-,8?/m1/s1
