21
gdb 113853	4.2132	0.7912	0.73637	2.1143	79.35	-0.2487	0.0797	0.3283	1609.9505	0.181542	-424.184005	-424.174445	-424.173501	-424.220275	33.809	
C	 0.5695506112	 1.5794526819	 0.116022045	-0.374739
C	-0.2443603038	 0.3017506367	-0.1254647194	-0.218512
C	 0.2277059347	-0.4348524916	-1.3565010569	 0.068712
O	 1.4772332658	-1.1337238983	-1.2687573198	-0.269189
C	 0.2909082263	-1.8990694399	-1.5146437389	 0.042528
C	-0.1128804145	-2.9035802459	-0.4732264457	-0.064924
C	-1.4468409831	-3.6477198123	-0.7258560417	-0.084336
O	-0.7800389715	-4.920144446	-0.8219847184	-0.27121
C	 0.5116495662	-4.3147964274	-0.6083331986	-0.081969
H	 1.6278386873	 1.3387555608	 0.2530769104	 0.135831
H	 0.4891767189	 2.2672249568	-0.7327504226	 0.116812
H	 0.2196070811	 2.1064681764	 1.0082911039	 0.114834
H	-0.1760201241	-0.3480373671	 0.7517838283	 0.106089
H	-1.3052606327	 0.5519077055	-0.2570355145	 0.102336
H	 0.1265731057	 0.1425521842	-2.2798242881	 0.086625
H	 0.2257145195	-2.2831529784	-2.5370680056	 0.091322
H	-0.0183937351	-2.4841624281	 0.5280033331	 0.086806
H	-2.1706435355	-3.6195907445	 0.0976520395	 0.102833
H	-1.9629754653	-3.3808380786	-1.6582313727	 0.099341
H	 1.1787363935	-4.4497599884	-1.4694271535	 0.106089
H	 1.0059719153	-4.704300696	 0.2892791062	 0.10472
39.7747	45.7756	71.9934	138.1959	173.3838	230.2394	283.872	327.7239	404.4511	479.342	565.0802	748.8563	776.1811	834.5329	838.8728	885.5247	909.2668	949.3257	972.7327	1014.2067	1029.9404	1046.3279	1055.4946	1083.3403	1120.6475	1140.0253	1158.3232	1164.5049	1186.9587	1212.7465	1244.5783	1289.4542	1301.8432	1309.9453	1313.7731	1346.8497	1381.8567	1408.1664	1423.7445	1473.0447	1497.3766	1498.7011	1509.9201	1512.8386	1538.2655	3002.0616	3016.2781	3028.3786	3037.571	3048.112	3057.372	3059.2128	3071.2072	3085.5145	3108.0736	3117.1257	3118.8952
CCC1OC1C1COC1	CC[C@H]1O[C@H]1C1COC1	
InChI=1S/C7H12O2/c1-2-6-7(9-6)5-3-8-4-5/h5-7H,2-4H2,1H3	InChI=1S/C7H12O2/c1-2-6-7(9-6)5-3-8-4-5/h5-7H,2-4H2,1H3/t6-,7+/m1/s1
