14
gdb 66670	4.72617	1.21648	1.17083	1.4803	73.12	-0.2186	0.0126	0.2311	1040.7753	0.098884	-399.378212	-399.370982	-399.370038	-399.409577	28.828	
O	-0.0956574724	 1.3827851521	-0.0501960215	-0.443333
C	 0.0312718447	 0.0261781197	-0.0232168221	 0.370243
C	-0.0338696964	-0.9990918379	 1.0850226317	-0.109776
C	-1.1047658015	-0.986893143	 0.0107342652	-0.239805
C	-0.225712353	-1.9834532651	-0.7956035854	 0.357209
C	-0.5362538152	-3.0919522694	-1.6179967979	 0.029194
C	-0.831289414	-4.0168403943	-2.3293521524	-0.360407
C	 0.9020925711	-0.9955142543	-0.8247418864	-0.215835
N	 0.8356609657	-1.981295544	 0.30187225	-0.204749
H	 0.6542157256	 1.7744864882	 0.4136442969	 0.297258
H	-0.088215632	-0.9484651346	 2.1646800181	 0.110596
H	-2.1702098808	-0.8215174925	 0.0678220069	 0.113501
H	-1.082900032	-4.8390441561	-2.9524189626	 0.18492
H	 1.7556027202	-0.9280884788	-1.4898526806	 0.110985
130.2509	147.9609	292.586	334.9481	386.4526	480.1724	490.1577	514.7352	592.6041	624.5501	674.7301	684.1004	755.9809	769.7755	834.7492	855.0029	896.8838	904.3291	919.8981	972.6437	1007.466	1028.7418	1071.4539	1128.4717	1155.352	1204.0299	1267.8683	1304.2793	1370.1539	1478.0575	2233.0065	3180.3202	3198.4913	3236.3213	3502.1541	3776.3524
OC12C3C1C1(C#C)C2N31	O[C@@]12[C@H]3[C@@H]1[C@@]1(C#C)[C@@H]2N31	
InChI=1S/C7H5NO/c1-2-6-3-4-7(3,9)5(6)8(4)6/h1,3-5,9H	InChI=1S/C7H5NO/c1-2-6-3-4-7(3,9)5(6)8(4)6/h1,3-5,9H/t3-,4-,5+,6+,7-,8?/m1/s1
