23
gdb 109810	3.28126	0.85013	0.77666	0.7897	91.96	-0.2535	0.0588	0.3123	1590.1532	0.203386	-351.115201	-351.104404	-351.10346	-351.151567	39.554	
C	 2.6334534559	 1.7914734032	-0.0820508486	-0.380846
C	 2.1057280133	 0.3808539549	 0.2096071571	-0.188358
C	 1.8808412764	-0.4258734635	-1.0556978467	-0.03707
C	 2.963330584	-1.2557795903	-1.7246597418	-0.008319
C	 4.3733844304	-1.378370928	-1.1842402647	-0.411866
C	 1.7740824414	-1.9369954418	-1.0813890264	-0.040582
C	 1.8954619896	-2.7883367766	 0.1781266374	-0.379624
C	 2.2587360054	-4.1724191532	-0.116136065	 0.307865
C	 2.5511511228	-5.3084939154	-0.3787969538	-0.449033
H	 3.6030864539	 1.7534489509	-0.5888324911	 0.120161
H	 1.9440572009	 2.3431303955	-0.7307745042	 0.114237
H	 2.7566183867	 2.36803447	 0.8401564272	 0.109689
H	 2.8010721196	-0.1293129433	 0.8838830668	 0.093414
H	 1.1576405231	 0.455699805	 0.7589251667	 0.096315
H	 1.2071448984	 0.0787102724	-1.7463993164	 0.07801
H	 2.9352536486	-1.2448399183	-2.8116337328	 0.080802
H	 4.420052305	-1.3315854036	-0.0934450034	 0.114313
H	 4.8220164557	-2.330406347	-1.4873006926	 0.127648
H	 5.0075929297	-0.5727415153	-1.5701270274	 0.115931
H	 1.0410862467	-2.3426600836	-1.7734819116	 0.08965
H	 2.6311635097	-2.3661171969	 0.8698817596	 0.126404
H	 0.9389884438	-2.7753136235	 0.7179737522	 0.129359
H	 2.8128712689	-6.3128567916	-0.6016271905	 0.191901
43.1415	75.3156	91.0739	146.0861	185.1507	204.9571	233.0418	280.9947	287.1686	341.6136	412.9041	490.0144	535.1848	565.0182	614.1402	632.364	741.65	770.9972	813.8341	827.5681	912.4662	947.3671	968.4441	997.9329	1007.6996	1048.8933	1068.726	1101.9769	1136.2059	1152.2503	1159.6046	1195.8397	1241.0454	1271.3563	1295.1346	1314.5954	1339.087	1389.698	1400.2972	1411.4034	1420.4118	1457.3899	1467.7901	1486.8245	1498.1531	1500.8551	1502.3851	1511.843	2236.9458	3016.9092	3020.5426	3031.8679	3035.3271	3061.749	3073.674	3091.9061	3099.2171	3105.7999	3110.3042	3113.0981	3129.0627	3144.3008	3507.7446
CCC1C(C)C1CC#C	CC[C@H]1[C@@H](C)[C@H]1CC#C	
InChI=1S/C9H14/c1-4-6-9-7(3)8(9)5-2/h1,7-9H,5-6H2,2-3H3	InChI=1S/C9H14/c1-4-6-9-7(3)8(9)5-2/h1,7-9H,5-6H2,2-3H3/t7-,8+,9-/m1/s1
