21
gdb 70934	3.23089	1.46248	1.2395	1.2585	82.27	-0.2517	0.0808	0.3324	1082.4208	0.184748	-387.038261	-387.030586	-387.029642	-387.070047	31.861	
O	 0.0378779765	 1.373705026	 0.0401849222	-0.471334
C	 0.0517260101	-0.00897997	 0.0046775192	 0.371754
C	 0.6304588949	-0.9518725977	-1.1360531163	-0.382951
C	-0.0291699125	-1.8687887523	-0.0741081203	 0.350234
C	 0.6691997827	-0.9958797541	 1.0266924282	-0.331379
C	-0.575086049	-3.2520364804	 0.1720181205	-0.348284
C	-1.7099625477	-2.952933689	 1.21690154	-0.194969
C	-2.1027718599	-1.4252947344	 1.1053458196	-0.282569
C	-1.2249747957	-0.8886792291	-0.0356926861	-0.012764
H	 0.9479284687	 1.6870777867	 0.0838570553	 0.280648
H	 0.1381305193	-0.8929640635	-2.1103960188	 0.093602
H	 1.7198597833	-0.9883574715	-1.2301209111	 0.082343
H	 1.7614851409	-1.0554374635	 1.0588500055	 0.078884
H	 0.244995913	-1.0063813354	 2.0314341191	 0.095748
H	-0.9975391339	-3.6652303227	-0.7510084866	 0.101722
H	 0.1530132968	-3.973099138	 0.5547949242	 0.097353
H	-2.5734437387	-3.6030808063	 1.0513009465	 0.099663
H	-1.3487170762	-3.1705544836	 2.2263152293	 0.103569
H	-3.1628042561	-1.3046024582	 0.8693305418	 0.098132
H	-1.939457289	-0.9164673614	 2.0585868899	 0.10824
H	-1.7750216374	-0.8153465616	-0.9798838221	 0.062359
97.2379	220.366	243.6888	265.5316	334.2927	409.3198	479.3017	516.2835	571.6071	618.1264	674.0727	686.7888	748.6937	790.7714	820.0871	840.6278	880.1409	917.3731	961.6484	970.5612	995.9584	1024.3428	1053.7649	1078.5688	1099.2297	1113.4358	1118.4751	1128.9166	1139.624	1154.3109	1215.4113	1228.1737	1243.8475	1266.5321	1286.9	1299.796	1315.9594	1342.8188	1363.3985	1413.4319	1483.4535	1488.644	1498.6794	1510.5327	1548.1703	3038.7712	3041.9833	3045.0261	3053.4484	3054.9852	3068.7796	3080.4501	3093.1356	3110.0593	3115.1994	3129.0278	3805.0961
OC12CC3(C1)CCCC23	O[C@@]12C[C@]3(C1)CCC[C@@H]23	
InChI=1S/C8H12O/c9-8-4-7(5-8)3-1-2-6(7)8/h6,9H,1-5H2	InChI=1S/C8H12O/c9-8-4-7(5-8)3-1-2-6(7)8/h6,9H,1-5H2/t6-,7-,8-/m1/s1
