15
gdb 44695	3.32743	1.40998	1.1717	5.6254	67.17	-0.2479	0.0035	0.2514	1030.5258	0.114025	-453.976944	-453.969538	-453.968593	-454.009699	27.605	
N	 0.019468299	 1.089181559	 0.5459837491	-0.538796
C	 0.0415853384	-0.0774988158	 0.0683541101	 0.380391
N	 0.9677101816	-0.9331171411	-0.5156115456	-0.337786
C	 0.0616280128	-2.0728810382	-0.6706632191	-0.003563
C	 0.1768417022	-3.2066213541	 0.3409391176	-0.381643
C	-0.772917306	-2.8299811473	 1.4832949999	 0.425115
O	-0.9339520876	-3.4002564543	 2.5183267647	-0.31707
O	-1.4854700729	-1.7106067079	 1.1495483662	-0.208349
C	-1.0558113273	-1.1461529578	-0.0788717165	 0.003517
H	 0.9395279833	 1.5322072825	 0.5294274007	 0.214881
H	 1.9759024931	-0.9004485478	-0.5293145938	 0.247975
H	-0.0569927238	-2.4068761796	-1.7035379711	 0.100539
H	-0.1481014114	-4.1678367847	-0.068576562	 0.148701
H	 1.1853855529	-3.3439492982	 0.736935626	 0.145134
H	-1.9238342242	-0.8915913946	-0.6851862963	 0.120954
49.3776	89.1362	226.6544	294.9935	369.8711	444.195	484.5714	551.7545	623.8152	644.4581	729.2071	803.4188	836.1208	843.1311	864.076	885.2139	970.5489	1026.8969	1044.2515	1076.0119	1116.7061	1139.694	1175.9501	1191.3647	1231.5711	1283.3716	1308.6117	1353.4429	1368.418	1378.0343	1451.7779	1808.0367	1893.654	3069.6436	3085.5436	3120.9119	3134.9505	3465.7068	3616.1842
N=C1NC2CC(=O)OC12	[NH][C]1N[C@H]2CC(=O)O[C@@H]12	
InChI=1S/C5H6N2O2/c6-5-4-2(7-5)1-3(8)9-4/h2,4H,1H2,(H2,6,7)	InChI=1S/C5H6N2O2/c6-5-4-2(7-5)1-3(8)9-4/h2,4H,1H2,(H2,6,7)/t2-,4+/m0/s1
