21
gdb 102105	2.18467	1.10083	0.85653	1.2573	79.77	-0.2488	-0.0286	0.2201	1445.9319	0.178939	-424.221744	-424.21113	-424.210185	-424.258945	36.942	
C	 0.0173976603	 1.5104801683	 0.350279779	-0.395692
C	-0.1210536405	-0.0022092256	 0.160469312	-0.193158
C	-1.5371920097	-0.442664578	-0.281053794	-0.099031
C	-1.8212813768	 0.0545863776	-1.6858907546	 0.164978
O	-2.6673205423	 0.857688794	-1.9823366128	-0.250993
C	-1.6389923074	-1.9589137771	-0.2574666071	 0.039766
O	-1.6652322874	-2.5836891815	 1.027300647	-0.266696
C	-2.8189022691	-2.7233783265	 0.1832325946	 0.0738
C	-4.114689102	-2.123049885	 0.6632475676	-0.423707
H	 1.0340169491	 1.7712212734	 0.6589819985	 0.118768
H	-0.2040252459	 2.0590816549	-0.5710147903	 0.128915
H	-0.6700631956	 1.8742083588	 1.1211030725	 0.124853
H	 0.6111672645	-0.3579631866	-0.5772450921	 0.099707
H	 0.1061615284	-0.5236629094	 1.0961509728	 0.128198
H	-2.281692546	 0.0002993183	 0.384660507	 0.097048
H	-1.1517401828	-0.3836530554	-2.4655368451	 0.071963
H	-0.9680406869	-2.4525827752	-0.9664818733	 0.091239
H	-2.9205437806	-3.726773953	-0.2362791788	 0.091552
H	-3.9721001565	-1.1308808701	 1.0947012659	 0.134882
H	-4.8265266375	-2.0445279773	-0.1652937193	 0.131579
H	-4.5617598153	-2.7639284845	 1.4301714103	 0.132029
31.9034	51.2281	86.6274	122.3414	168.5058	182.7948	232.8161	249.8255	330.4452	367.6271	388.8018	459.8267	527.2613	549.1013	772.53	780.454	838.0226	891.9072	944.7482	970.8215	993.3243	1015.1561	1043.0362	1076.0459	1120.5053	1136.2632	1154.0035	1179.2011	1190.7356	1246.2266	1272.472	1304.1875	1333.0636	1364.7718	1400.7858	1417.0686	1420.0842	1430.6004	1466.857	1488.3588	1490.2066	1499.2243	1503.7399	1510.1943	1833.4183	2836.3945	3019.2154	3036.9605	3042.642	3061.1558	3071.8777	3085.1626	3094.1563	3103.9778	3106.7498	3110.1682	3139.6276
CCC(C=O)C1OC1C	CC[C@@H](C=O)[C@H]1O[C@H]1C	
InChI=1S/C7H12O2/c1-3-6(4-8)7-5(2)9-7/h4-7H,3H2,1-2H3	InChI=1S/C7H12O2/c1-3-6(4-8)7-5(2)9-7/h4-7H,3H2,1-2H3/t5-,6-,7-/m0/s1
