19
gdb 103738	3.18903	1.07286	0.94731	3.3722	74.6	-0.2456	-0.0291	0.2165	1299.0532	0.155443	-460.160521	-460.150566	-460.149622	-460.195138	36.893	
C	-0.0128586745	 1.419793401	 0.2773179794	-0.400787
C	-0.1831516515	-0.0529987976	-0.1135627124	-0.216866
C	 0.6598558266	-0.4384156177	-1.3127570399	 0.314304
O	 0.3329801556	 0.2248847493	-2.5093314494	-0.470375
C	 2.096706833	-0.8496985206	-1.1390178852	-0.410265
C	 1.0351267774	-1.9002296205	-1.4897066394	 0.303873
O	 0.6657423615	-2.8056838275	-0.5082535053	-0.472972
C	 1.0546534073	-2.4882281563	-2.8484263644	 0.110263
O	 0.7695962229	-3.655179824	-3.0174436532	-0.299646
H	 1.0265650246	 1.646200184	 0.539338517	 0.117288
H	-0.3110929878	 2.0854908751	-0.5399274617	 0.112484
H	-0.6368115344	 1.6671002265	 1.1406499401	 0.123412
H	 0.0742067878	-0.7044191142	 0.7253490799	 0.124282
H	-1.2324344734	-0.2543845897	-0.3583969538	 0.112694
H	 0.7020589447	 1.1141742683	-2.4634148032	 0.287564
H	 2.8074790272	-0.5719756653	-1.9105533396	 0.121332
H	 2.4952251942	-0.9313177739	-0.1337961982	 0.136906
H	 0.4952972991	-3.6300881398	-0.9943847846	 0.296698
H	 1.3370707898	-1.820529327	-3.6790737461	 0.109813
72.068	98.0784	144.0201	193.4909	236.0102	263.7541	294.1467	311.8236	331.2074	399.128	412.4428	444.8062	462.9588	521.9894	674.4097	693.9764	784.9866	851.4272	876.9817	902.3979	920.9377	987.2757	1021.2003	1028.4449	1057.0807	1085.376	1113.1387	1216.9567	1261.3987	1310.2122	1322.203	1359.2812	1373.6498	1385.3861	1406.7127	1439.0787	1478.7409	1489.3886	1501.1123	1510.8869	1779.9931	3002.7542	3031.9879	3047.2854	3088.8816	3110.4798	3113.1827	3129.274	3228.6999	3668.5262	3792.0455
CCC1(O)CC1(O)C=O	CC[C@@]1(O)C[C@]1(O)C=O	
InChI=1S/C6H10O3/c1-2-5(8)3-6(5,9)4-7/h4,8-9H,2-3H2,1H3	InChI=1S/C6H10O3/c1-2-5(8)3-6(5,9)4-7/h4,8-9H,2-3H2,1H3/t5-,6+/m1/s1
