21
gdb 122295	4.19282	0.86266	0.83131	2.0739	79.95	-0.2583	0.0907	0.349	1471.2213	0.182837	-424.166602	-424.157889	-424.156944	-424.201109	33.19	
O	-0.1262850429	 1.4379700518	-0.1213774639	-0.421332
C	-0.0249452301	 0.0311825349	-0.034162974	-0.05992
C	-1.3963481256	-0.621592059	 0.0322048979	-0.104618
O	-2.0763903267	-0.2490542068	-1.1621931285	-0.316687
C	-3.4012382492	-0.6263087274	-1.227508714	 0.453283
C	-4.5814904652	-0.2122503377	-0.2882115015	-0.279706
C	-5.1927424261	-1.0869910172	-1.4196774334	-0.050794
C	-4.3107181034	-0.2956433352	-2.430641051	-0.272565
C	-4.0010937306	-2.0709184686	-1.2387688566	-0.28118
H	-0.7566301307	 1.6097909943	-0.8309887463	 0.289693
H	 0.5296432934	-0.3878796874	-0.8890207147	 0.093533
H	 0.5372305654	-0.198934089	 0.8769210794	 0.107736
H	-1.3078211019	-1.7157943186	 0.1050411994	 0.095523
H	-1.9464488178	-0.2542250352	 0.9099904087	 0.104599
H	-4.5954553259	-0.6391032037	 0.7179545372	 0.091787
H	-4.853584982	 0.846438807	-0.2847628849	 0.094276
H	-6.2397257732	-1.3533258138	-1.5376403815	 0.084257
H	-4.5591100134	 0.7584316919	-2.5794074594	 0.093139
H	-4.0732335486	-0.7959984536	-3.3728634201	 0.094508
H	-3.7470876907	-2.6978413142	-2.0974575069	 0.093798
H	-3.9713245246	-2.6317472925	-0.3008811459	 0.090672
42.0978	61.438	138.3916	173.7895	286.1682	379.8354	400.0189	437.7474	487.8692	551.5673	552.9772	687.4261	773.2719	802.1428	871.0596	899.7586	911.3415	943.0115	957.8415	965.1885	983.9182	986.705	1068.7699	1092.4244	1098.4778	1100.5999	1131.9664	1135.1518	1139.2422	1162.7702	1179.5205	1227.3457	1229.3067	1232.4941	1248.3144	1264.7594	1304.047	1386.3029	1409.9825	1440.4261	1493.5772	1496.7627	1499.8337	1505.7878	1556.6207	2980.2365	2990.5688	3037.7769	3050.3052	3051.4436	3059.6591	3078.8515	3116.8947	3122.2075	3123.2932	3152.3107	3794.3805
OCCOC12CC(C1)C2	OCCO[C@@]12C[C@@H](C1)C2	
InChI=1S/C7H12O2/c8-1-2-9-7-3-6(4-7)5-7/h6,8H,1-5H2	InChI=1S/C7H12O2/c8-1-2-9-7-3-6(4-7)5-7/h6,8H,1-5H2/t6-,7-
