18
gdb 42660	2.51056	1.89664	1.72636	2.9439	74.27	-0.2279	-0.0165	0.2114	899.9854	0.151521	-401.964178	-401.957482	-401.956538	-401.995223	27.2	
O	-0.0754438662	 0.0713528103	-0.1834720462	-0.344352
C	-0.0633862658	 1.2677936278	-0.0316637387	 0.434135
C	-1.2482391184	 2.1635632184	 0.1610909265	-0.161192
C	-0.721764728	 3.3716956552	 0.9048212038	-0.02901
C	 0.7742188247	 3.1812239815	 1.1505393946	-0.248936
C	 1.1641226904	 2.1863060721	 0.0391437269	-0.144408
C	 1.2190946603	 2.9365436369	-1.3096653446	-0.237235
C	-0.1171813247	 3.7061354753	-1.5119672881	-0.153913
N	-1.1393020176	 3.4916397291	-0.4727048724	-0.098008
H	-2.2422831956	 1.7449935527	 0.2745258415	 0.104735
H	-1.3333061996	 3.8904004212	 1.6379904159	 0.09933
H	 1.332019945	 4.1227372742	 1.0935493028	 0.105442
H	 0.93940605	 2.7553707326	 2.1456392642	 0.115608
H	 2.077700511	 1.6228493824	 0.2285500308	 0.092491
H	 2.0728082752	 3.6230239412	-1.3103544603	 0.106063
H	 1.3806336192	 2.225072581	-2.1253241671	 0.119598
H	 0.0578960139	 4.7860068044	-1.546564159	 0.117364
H	-0.5798629137	 3.4332976636	-2.4647320105	 0.122287
113.6807	158.9595	327.772	398.6014	451.4902	480.0973	557.5753	617.4883	718.4133	727.4921	791.3237	807.0367	838.301	871.0221	875.7779	920.1087	939.7973	1014.6616	1027.6888	1056.0746	1062.5003	1069.8831	1116.2074	1155.9982	1188.9002	1212.969	1238.8355	1267.2735	1290.1736	1296.3021	1310.9159	1335.5129	1350.5548	1367.0418	1396.6376	1489.0629	1494.3492	1510.0052	1839.062	3036.8058	3038.4988	3054.1838	3075.1664	3081.1428	3099.3859	3115.5081	3146.4644	3177.2695
O=C1C2C3CC1CCN23	O=C1[C@H]2[C@H]3C[C@@H]1CCN23	
InChI=1S/C7H9NO/c9-7-4-1-2-8-5(3-4)6(7)8/h4-6H,1-3H2	InChI=1S/C7H9NO/c9-7-4-1-2-8-5(3-4)6(7)8/h4-6H,1-3H2/t4-,5+,6+,8?/m0/s1
