21
gdb 5820	2.63117	1.66846	1.34778	3.9167	78.09	-0.3095	0.0366	0.346	1043.8339	0.186498	-329.160652	-329.150801	-329.149857	-329.194458	36.681	
C	-0.1052093502	 1.5683577299	-0.0911468761	-0.41385
C	 0.0426117263	 0.0347918229	-0.0009752987	-0.13027
C	 0.6778559571	-0.4580531138	-1.2300991984	 0.279048
N	 1.1838650328	-0.831563585	-2.2004254423	-0.343399
C	 0.7879664487	-0.5069364666	 1.2708440008	 0.257069
C	 0.0477847865	-0.0270795806	 2.5326378868	-0.42143
C	 0.7595097489	-2.046730306	 1.236305954	-0.418035
C	 2.2482867596	-0.0235369647	 1.3073093625	-0.417245
H	 0.8679983581	 2.0639880777	-0.1156419221	 0.139455
H	-0.641497737	 1.841489958	-1.0034039528	 0.138047
H	-0.6710169779	 1.950429845	 0.7607291789	 0.128342
H	-0.9669044758	-0.3980120156	 0.0177982346	 0.120049
H	-1.0110096254	-0.3088506626	 2.5079964654	 0.111637
H	 0.4911053527	-0.4874149599	 3.4213331058	 0.118761
H	 0.1090653705	 1.0568180092	 2.6632514031	 0.118046
H	 1.2706484145	-2.4385750141	 0.3523289256	 0.140654
H	 1.2566444228	-2.4554547963	 2.1216355098	 0.114252
H	-0.269163753	-2.4243886594	 1.2274682414	 0.110772
H	 2.3166263066	 1.0657812873	 1.3852652874	 0.114527
H	 2.7613225227	-0.4458714708	 2.1772325202	 0.116035
H	 2.7948900516	-0.3358965447	 0.4122450841	 0.137533
61.491	154.318	195.0081	206.9436	245.9798	260.4358	274.9843	298.2351	324.9369	356.7523	392.325	411.6061	448.146	567.1884	582.0714	720.5314	829.2713	897.084	938.7733	942.1865	967.5213	1002.8361	1021.6584	1065.6387	1098.9647	1117.6745	1219.2589	1246.5651	1258.5475	1326.7329	1337.2582	1402.7124	1405.8062	1411.4888	1438.3618	1480.3415	1484.8498	1489.0486	1495.3291	1501.5296	1510.9494	1513.6486	1521.6298	2349.858	3018.1475	3029.3498	3032.7053	3039.6201	3058.8919	3095.1645	3099.553	3103.9528	3110.1089	3112.2945	3115.8178	3129.1821	3141.7624
CC(C#N)C(C)(C)C	C[C@@H](C#N)C(C)(C)C	
InChI=1S/C7H13N/c1-6(5-8)7(2,3)4/h6H,1-4H3	InChI=1S/C7H13N/c1-6(5-8)7(2,3)4/h6H,1-4H3/t6-/m0/s1
