18
gdb 102011	2.23909	1.35053	0.9341	4.6112	78.74	-0.2426	-0.0577	0.1849	1272.6533	0.146831	-435.278069	-435.268468	-435.267523	-435.313237	33.962	
C	 0.9479822313	 0.426827415	 0.0734257659	-0.378229
C	-0.0548708743	-0.6075602079	-0.4350516332	-0.154052
N	-1.4189978186	-0.3697981347	 0.0596973297	-0.079111
C	-2.4386355775	-0.1228502345	-0.8377253452	 0.079786
N	-3.6669196428	-0.2564433154	-0.5287757438	-0.470384
C	-1.7129402858	-0.7007492558	 1.3874505719	 0.281711
N	-0.9020927824	-1.4029918475	 2.0737760128	-0.496653
C	-2.9406330896	-0.0632780664	 2.024813127	 0.130645
O	-3.4240795136	-0.5303882918	 3.0239574979	-0.261184
H	 1.9415161216	 0.2096736918	-0.3303053901	 0.122549
H	 0.6645924157	 1.4374590587	-0.2363713241	 0.116476
H	 1.0111269824	 0.3969823907	 1.1631916412	 0.149018
H	-0.0996840547	-0.594889756	-1.52739946	 0.108676
H	 0.247505227	-1.6112948604	-0.1251717544	 0.150273
H	-2.0637770296	 0.1893066319	-1.8177697748	 0.109264
H	-4.275688612	 0.024928696	-1.2926226765	 0.235766
H	-1.288002853	-1.5018692272	 3.0157627542	 0.244643
H	-3.2768575741	 0.8919534135	 1.5913168517	 0.110807
57.2756	74.4416	114.4386	139.9121	219.7932	238.2666	304.5464	324.1057	368.6556	423.802	426.4539	558.309	597.7593	701.9824	784.7306	793.0267	848.8432	917.1901	939.7152	999.381	1015.2829	1046.4481	1101.1776	1110.6735	1175.0992	1216.4861	1295.0824	1360.0741	1391.1842	1406.097	1413.8633	1424.3861	1445.3615	1485.0337	1491.1823	1508.0911	1682.9922	1712.2036	1810.2446	3002.7737	3045.3988	3059.318	3072.5391	3103.5379	3117.5009	3139.1677	3458.694	3528.9547
CCN(C=N)C(=N)C=O	CCN(C=N)C(=N)C=O	
InChI=1S/C5H9N3O/c1-2-8(4-6)5(7)3-9/h3-4,6-7H,2H2,1H3	InChI=1S/C5H9N3O/c1-2-8(4-6)5(7)3-9/h3-4,6-7H,2H2,1H3
