14
gdb 128346	4.75308	0.95253	0.80066	5.6726	74.24	-0.2404	-0.0626	0.1778	1344.4346	0.101583	-432.865261	-432.857093	-432.856149	-432.898586	28.893	
C	 0.0696880384	 1.4256513242	 0.1255602677	-0.334118
N	-0.0278554363	 0.0138640234	-0.2030747955	-0.384679
C	-1.2136956917	-0.6561832354	-0.07074694	 0.467911
N	-1.2399031164	-1.9732042343	 0.0624306616	-0.222549
O	-2.5836835842	-2.3303330065	 0.1024390329	-0.20946
C	-3.3263334044	-1.2132200114	 0.008851904	 0.36848
C	-2.5346029147	-0.1116466097	-0.100840618	-0.423838
C	-4.7362980393	-1.3509834758	 0.0372751355	 0.244865
N	-5.8896590946	-1.4426074262	 0.0591444987	-0.322509
H	 1.0882979734	 1.7609392935	-0.0784147632	 0.141867
H	-0.6004427113	 2.0091170905	-0.5133564453	 0.141911
H	-0.1685115101	 1.6500236582	 1.1753233551	 0.128278
H	 0.7768584943	-0.5504963378	 0.0265888044	 0.258659
H	-2.8471604831	 0.9137702873	-0.1925164379	 0.145181
83.9549	116.2792	139.0446	168.3288	235.681	332.0451	435.5968	488.6301	512.8906	562.9026	600.3519	677.6946	717.5474	740.8987	821.7802	957.2236	1007.4181	1028.3268	1091.1742	1152.6782	1173.8461	1187.3573	1296.0408	1408.4378	1457.3863	1490.7605	1504.2404	1517.0816	1563.774	1647.4639	2355.2322	2999.8497	3080.6629	3131.6432	3292.9444	3612.6942
CNC1=NOC(=C1)C#N	CNc1noc(c1)C#N	
InChI=1S/C5H5N3O/c1-7-5-2-4(3-6)9-8-5/h2H,1H3,(H,7,8)	InChI=1S/C5H5N3O/c1-7-5-2-4(3-6)9-8-5/h2H,1H3,(H,7,8)
