15
gdb 50944	2.80281	1.06361	0.80805	4.2057	63.9	-0.2752	-0.054	0.2212	1336.4597	0.109048	-494.890183	-494.881202	-494.880258	-494.925177	30.331	
O	-0.0242281666	-0.0820909265	 0.3513751231	-0.265614
C	 0.015675807	 1.1044999533	 0.2623316439	 0.189305
O	 1.1219419589	 1.7539729328	-0.1838046417	-0.188164
C	 1.0989731807	 3.1707915981	-0.1743240337	-0.019312
C	 1.1099463042	 3.7283172888	 1.2512743529	 0.144127
O	 0.897221412	 3.057047666	 2.2241610149	-0.227271
C	 2.3084838833	 3.6515469092	-0.9517143035	 0.052986
C	 2.1951329379	 4.0921114532	-2.3445489884	-0.172352
O	 2.2898818259	 5.0391759013	-1.274395644	-0.231515
H	-0.8237893317	 1.7852329359	 0.4893045913	 0.089534
H	 0.194522553	 3.5666586854	-0.663936942	 0.117482
H	 1.313248179	 4.8176536594	 1.3060949864	 0.122199
H	 3.2622593697	 3.2661067266	-0.5926396518	 0.126393
H	 3.0654865632	 4.0381586333	-2.9945505438	 0.135602
H	 1.2292603936	 4.0453623932	-2.8446217137	 0.126601
58.4281	89.1545	106.6282	140.6461	185.9395	227.1633	291.9272	349.1559	408.4749	445.8188	620.6904	723.2309	845.458	878.2495	892.8331	955.0507	1027.9105	1031.2711	1090.1694	1122.4356	1141.583	1158.0425	1169.2009	1196.9548	1264.9223	1284.7448	1324.4105	1400.0039	1432.4969	1445.286	1527.7165	1838.0583	1879.4505	2931.5705	2980.1772	2991.7303	3095.7751	3125.1108	3188.8776
O=COC(C=O)C1CO1	O=CO[C@@H](C=O)[C@H]1CO1	
InChI=1S/C5H6O4/c6-1-4(9-3-7)5-2-8-5/h1,3-5H,2H2	InChI=1S/C5H6O4/c6-1-4(9-3-7)5-2-8-5/h1,3-5H,2H2/t4-,5+/m0/s1
