23
gdb 104016	2.91862	1.40792	1.26537	0.9711	85.15	-0.243	0.0875	0.3305	1138.5063	0.206706	-388.275629	-388.267035	-388.266091	-388.30819	34.724	
C	-0.0726678385	 1.3431853539	-0.0402651152	-0.249186
O	 0.0331804875	-0.0581702043	 0.0513426307	-0.295059
C	 0.7236524509	-0.5827336339	 1.188579102	 0.449899
C	 2.1504091838	-0.0360596181	 1.2599747291	-0.468241
C	-0.1063164857	-0.4306044558	 2.518276946	-0.273316
C	-0.464457715	-1.9102285443	 2.7650877688	-0.017062
C	 0.900634096	-2.6105133477	 2.514357203	-0.234348
C	 0.6529195357	-2.1215168946	 1.0570587104	-0.049347
C	-0.8531969128	-2.3972972368	 1.3390538104	-0.225422
H	 0.8919927565	 1.8296125208	-0.2421438422	 0.105871
H	-0.7439069688	 1.552966837	-0.8775419329	 0.123434
H	-0.5006458708	 1.7946227524	 0.8673750282	 0.101686
H	 2.1659359477	 1.0280294189	 1.5151284945	 0.114987
H	 2.7332162365	-0.5586485081	 2.0220057785	 0.118603
H	 2.6520530559	-0.1648190531	 0.2951696144	 0.119552
H	 0.4796037248	 0.0004514057	 3.3363219846	 0.089584
H	-0.9911202931	 0.1929967188	 2.3649843193	 0.099888
H	-1.0763977742	-2.134678366	 3.6395906854	 0.055127
H	 1.7789276361	-2.2506220047	 3.0578125798	 0.08566
H	 0.8379073624	-3.6982624636	 2.5940162621	 0.096256
H	 1.1742746235	-2.54823591	 0.1997479602	 0.058362
H	-1.0904096996	-3.4634111803	 1.3139648619	 0.089683
H	-1.5864213288	-1.8232370863	 0.7715119511	 0.103388
125.6149	178.1578	193.3335	198.8517	256.4526	327.0745	383.1037	405.2379	455.0007	483.0681	532.1281	597.0043	743.6853	816.2142	846.5784	851.5827	863.2094	893.2247	915.9452	938.921	955.86	1005.2821	1028.4258	1035.6238	1067.3296	1079.2373	1082.992	1112.9064	1158.2686	1180.0105	1189.1988	1191.4215	1217.2081	1228.6394	1238.6782	1245.613	1272.1089	1282.1253	1314.2218	1347.0615	1402.7844	1475.6705	1482.3387	1484.9752	1488.5573	1491.1976	1506.1089	1513.9918	1524.9909	2984.7509	3032.1972	3040.4727	3048.5203	3053.4791	3071.0633	3097.5445	3102.5555	3103.8887	3105.5771	3110.147	3114.7031	3124.0158	3137.2025
COC1(C)CC2CC1C2	CO[C@@]1(C)C[C@@H]2C[C@H]1C2	
InChI=1S/C8H14O/c1-8(9-2)5-6-3-7(8)4-6/h6-7H,3-5H2,1-2H3	InChI=1S/C8H14O/c1-8(9-2)5-6-3-7(8)4-6/h6-7H,3-5H2,1-2H3/t6-,7+,8-/m0/s1
