12
gdb 128957	8.00473	0.81429	0.74253	4.0308	61.13	-0.2824	-0.0464	0.236	1373.1527	0.079024	-464.960772	-464.953324	-464.952379	-464.9941	25.311	
N	 0.0154446391	-1.0871548654	-0.0042545111	-0.280959
C	 0.0352635465	 0.066641641	 0.0021180405	 0.281828
C	 0.002054258	 1.5280981614	 0.0108389654	-0.209663
O	 1.3515250899	 1.9992587833	-0.0015685157	-0.241384
C	 1.4735672512	 3.3264391435	 0.0041255172	 0.522156
N	 2.6630628628	 3.9144209651	-0.0062685369	-0.302787
N	 2.2823081965	 5.1896864978	 0.0048740753	-0.050789
N	 0.9817003412	 5.3939734996	 0.0209132282	-0.108227
N	 0.4376287748	 4.1976408492	 0.0206171027	-0.27888
H	-0.5437578297	 1.8955014757	-0.8652868085	 0.178356
H	-0.5239619963	 1.8853883948	 0.9031098515	 0.17835
H	 2.9456120661	 5.9507101439	 0.0013694214	 0.312
42.4307	100.3693	121.8401	241.1176	344.8885	383.7635	455.6455	539.747	586.4925	729.9196	776.4585	795.6929	965.3142	1018.6346	1030.1347	1045.1668	1102.1624	1163.1775	1197.7226	1253.9745	1278.6182	1368.1141	1395.2017	1483.8348	1506.6843	1599.1071	2380.1431	3046.9418	3086.9679	3647.174
N#CCOC1=NNN=N1	N#CCOc1n[nH]nn1	
InChI=1S/C3H3N5O/c4-1-2-9-3-5-7-8-6-3/h2H2,(H,5,6,7,8)	InChI=1S/C3H3N5O/c4-1-2-9-3-5-7-8-6-3/h2H2,(H,5,6,7,8)
