15
gdb 42561	3.3787	1.6296	1.35379	4.635	68.76	-0.2524	-0.0029	0.2494	935.598	0.113408	-416.726198	-416.719531	-416.718587	-416.757257	26.521	
O	-0.1505619167	 0.121373052	 0.2603744452	-0.312339
C	-0.1524982887	 1.3043086027	 0.1514792162	 0.455467
C	-1.1753246198	 2.3947049361	-0.1592595205	-0.344141
C	 0.0884599474	 3.1156053918	-0.7802283418	-0.031125
C	 0.4441272671	 3.5404685005	 0.5801661948	-0.140765
N	 0.987024666	 2.2226878567	 0.0579645312	-0.206581
C	-0.9757577737	 3.3179823182	 1.0605117079	 0.427459
C	-1.9333293656	 4.2978775396	 1.6023256694	-0.330244
N	-1.4325668158	 3.1661063859	 2.4227170483	-0.37225
H	-2.1494050887	 2.1954582481	-0.5976172834	 0.104321
H	 0.3497349852	 3.4253127536	-1.7801408015	 0.132457
H	 1.1866245571	 4.2463105089	 0.9274047782	 0.122641
H	-1.5971276763	 5.2780510008	 1.929927379	 0.13019
H	-2.9556544976	 4.2678744516	 1.2337005559	 0.12178
H	-2.1312813999	 2.4311476336	 2.5030970414	 0.243131
113.4376	202.6123	257.7129	337.4799	454.6116	489.1696	594.6401	639.1295	724.2954	787.3945	797.3796	842.4395	866.1616	888.4424	893.4109	899.7868	953.3056	972.8184	991.2543	1022.4191	1042.6366	1064.1825	1126.4448	1137.2182	1146.7478	1174.6218	1210.5417	1246.7612	1279.0078	1313.7526	1438.8562	1521.2708	1926.4783	3105.2194	3163.4167	3190.7269	3213.7716	3247.8301	3502.8574
O=C1C2C3C(N13)C21CN1	O=C1[C@@H]2[C@H]3[C@H](N13)[C@]12CN1	
InChI=1S/C6H6N2O/c9-5-2-3-4(8(3)5)6(2)1-7-6/h2-4,7H,1H2	InChI=1S/C6H6N2O/c9-5-2-3-4(8(3)5)6(2)1-7-6/h2-4,7H,1H2/t2-,3-,4-,6+,8?/m0/s1
