15
gdb 44245	3.37251	1.49063	1.20549	2.381	67.99	-0.2742	-0.01	0.2642	1004.5763	0.114819	-453.95392	-453.946865	-453.945921	-453.985874	26.624	
N	-0.0871336887	 1.2294460929	-0.4929174122	-0.538162
C	-0.0185604516	 0.0463888469	-0.0937037715	 0.43976
O	 1.0548606602	-0.7061737321	 0.3433892743	-0.260345
C	 0.1912924151	-1.8725014779	 0.5796322712	 0.032088
C	-1.0324076905	-1.0643833761	 0.1052704383	-0.201932
C	-1.9123072687	-0.9306986135	 1.3552350507	-0.107335
O	-1.1011567446	-1.3489132202	 2.4687515727	-0.241045
C	-0.032013852	-2.0943389601	 2.0556804574	 0.411553
N	 0.6782690441	-2.8332329574	 2.7888007492	-0.526474
H	 0.823200102	 1.6918501802	-0.4744793784	 0.237576
H	 0.5504376691	-2.7467773325	 0.0418198386	 0.124889
H	-1.5712988486	-1.3804034655	-0.7858377806	 0.12421
H	-2.23929814	 0.0949124816	 1.5368962432	 0.149895
H	-2.7901342128	-1.5835989666	 1.2970789181	 0.123866
H	 0.3431813769	-2.8190015998	 3.7541779391	 0.231457
86.4322	123.3401	220.4468	264.1579	414.9739	434.8647	570.6122	635.6564	698.8562	736.7421	789.0127	843.5541	873.2209	891.788	908.2414	916.8686	955.6919	989.1647	1013.7768	1056.0625	1063.4005	1113.6716	1198.309	1208.3694	1243.5621	1265.5862	1286.5693	1314.3685	1330.3132	1406.9601	1516.5729	1782.0068	1834.5729	3044.6492	3118.0402	3140.3002	3154.8812	3471.0903	3483.2162
N=C1OC2C1COC2=N	[NH][C]1O[C@@H]2[C@H]1CO[C]2[NH]	
InChI=1S/C5H6N2O2/c6-4-2-1-8-5(7)3(2)9-4/h2-3,6-7H,1H2	InChI=1S/C5H6N2O2/c6-4-2-1-8-5(7)3(2)9-4/h2-3,6-7H,1H2/t2-,3-/m1/s1
