17
gdb 114654	2.93457	1.34682	1.18053	2.7218	68.18	-0.2347	-0.0264	0.2083	1081.1665	0.136287	-458.94041	-458.932697	-458.931753	-458.972843	29.668	
O	-0.0221512355	 1.3838321822	-0.1475909197	-0.417805
C	 0.0581978143	-0.0057839021	 0.0927634566	-0.083315
C	-1.3310124112	-0.6282435678	 0.113616423	 0.105932
O	-1.9897613305	-0.3419541462	-1.1676413816	-0.30933
C	-2.3161346311	-1.6498857103	-1.6625466184	-0.013726
C	-2.8709504076	-2.3707543461	-0.4022067541	-0.261277
C	-1.4057257988	-2.16399858	 0.1267638994	-0.206771
C	-1.0281267487	-2.4507471589	-1.3510630719	 0.438719
O	-0.2348063088	-3.1227901626	-1.9335548321	-0.314543
H	-0.5254288953	 1.4850582381	-0.9645250378	 0.294304
H	 0.6815140854	-0.5138856308	-0.660243843	 0.102992
H	 0.5403532433	-0.1345448286	 1.068138838	 0.111142
H	-1.9260493416	-0.1673111747	 0.9110273331	 0.092739
H	-2.8140179757	-1.5915051047	-2.6264211907	 0.10594
H	-3.6593675064	-1.8364532245	 0.1308461062	 0.125012
H	-3.1308157068	-3.417779283	-0.5670622913	 0.128088
H	-0.982574535	-2.7029864899	 0.9704888043	 0.101899
94.8901	131.5711	188.935	213.3903	400.88	423.7728	451.4059	460.7169	521.7926	628.3172	639.0172	792.8372	819.9058	833.6428	844.528	945.0866	952.3359	972.4647	999.9703	1028.7193	1068.1816	1077.8901	1092.5051	1101.3363	1136.382	1198.5901	1219.0524	1224.4951	1244.1502	1276.875	1310.3881	1354.7896	1404.8543	1438.3614	1478.2672	1498.0793	1910.7048	2982.9866	3034.867	3072.8293	3077.9077	3149.1418	3162.1149	3171.9091	3792.0586
OCC1OC2CC1C2=O	OC[C@H]1O[C@@H]2C[C@H]1C2=O	
InChI=1S/C6H8O3/c7-2-5-3-1-4(9-5)6(3)8/h3-5,7H,1-2H2	InChI=1S/C6H8O3/c7-2-5-3-1-4(9-5)6(3)8/h3-5,7H,1-2H2/t3-,4-,5-/m1/s1
