17
gdb 72522	2.22742	1.95329	1.69718	2.2238	67.39	-0.2339	-0.0274	0.2065	916.8795	0.136263	-458.980995	-458.97332	-458.972376	-459.013018	29.359	
C	 0.0857326088	 1.4988455578	 0.0149135181	-0.471324
C	-0.0081827082	 0.0024950389	 0.0028600644	 0.388419
O	 0.5661111347	-0.5502723373	-1.1752951814	-0.305031
C	 0.1313939146	-1.9344839723	-1.2516245167	-0.080015
C	-0.7532757541	-2.1153089013	-0.0037377347	-0.21534
C	 0.1728700014	-1.9567923426	 1.2167963144	-0.080016
O	 0.6052932457	-0.571332634	 1.1508265012	-0.305028
C	-1.3706623399	-0.7094726772	 0.0193865273	 0.401296
O	-2.4966188408	-0.3079410495	 0.0424986824	-0.324656
H	 1.1336272132	 1.8073004191	 0.0024469435	 0.140539
H	-0.4178669859	 1.9068298206	-0.8635315711	 0.140907
H	-0.3920199266	 1.8909006689	 0.9147988302	 0.140923
H	-0.4244873994	-2.0901505347	-2.1829372586	 0.118732
H	 1.01107376	-2.5884185815	-1.2466949912	 0.11353
H	-1.4290965581	-2.9663489732	-0.0000653478	 0.104782
H	-0.3514943418	-2.129338699	 2.163291117	 0.11874
H	 1.0516558864	-2.6103130526	 1.1705710229	 0.113541
131.9153	152.0876	165.605	225.708	336.2323	338.3963	430.3777	524.3097	568.7885	639.105	684.0433	786.802	804.9918	858.1308	863.5262	896.1358	926.6237	943.1265	974.612	1021.3662	1095.9624	1104.8924	1126.244	1157.5916	1191.6689	1194.9398	1250.4426	1269.7797	1351.2011	1358.9585	1387.0336	1427.1733	1477.7037	1483.7014	1518.8762	1533.8215	1901.7172	3024.691	3026.0815	3064.013	3068.3838	3071.1496	3142.8245	3149.1932	3162.4541
CC12OCC(CO1)C2=O	C[C@@]12OC[C@@H](CO1)C2=O	
InChI=1S/C6H8O3/c1-6-5(7)4(2-8-6)3-9-6/h4H,2-3H2,1H3	InChI=1S/C6H8O3/c1-6-5(7)4(2-8-6)3-9-6/h4H,2-3H2,1H3/t4-,6+
