18
gdb 24583	4.91232	1.00011	0.9567	2.139	78.73	-0.2326	0.0038	0.2364	1271.1355	0.150196	-401.973235	-401.965709	-401.964765	-402.006104	28.336	
C	-0.0521780922	 1.5157605035	-0.1199936541	-0.21564
C	 1.4982864239	 1.5074473082	-0.0784408929	-0.227748
C	 1.4360735128	 0.094787105	 0.5889771316	-0.08817
C	-0.0290153521	-0.0250913005	 0.0560034672	-0.227755
C	 2.4330597449	-0.9308064957	 0.2236377586	 0.343073
C	 3.2935680165	-1.7281418894	 0.9065528818	-0.208848
N	 4.0117798553	-2.5218631004	 0.0181896457	-0.256614
C	 3.5604155042	-2.1739999642	-1.1401922603	 0.069037
O	 2.603063112	-1.2176392755	-1.1120914133	-0.183283
H	-0.4777876588	 2.0166079693	 0.7542959933	 0.104265
H	-0.5314330811	 1.914771555	-1.016117913	 0.101731
H	 1.9295340143	 1.4414669605	-1.0805885965	 0.115509
H	 2.0084144025	 2.2987066155	 0.4754057641	 0.102533
H	 1.4357745806	 0.190662234	 1.6784699632	 0.085743
H	-0.7651211049	-0.484324065	 0.7195716249	 0.102533
H	-0.0477569416	-0.5425925171	-0.9065275458	 0.115512
H	 3.4481697397	-1.7884960363	 1.9722778804	 0.121325
H	 3.8465601741	-2.5445780969	-2.1120559447	 0.146795
60.4382	110.5958	131.0326	228.3318	381.0593	389.4418	563.5997	667.1607	701.2802	718.381	787.704	831.8126	855.7128	858.5129	908.8578	936.2242	940.1051	940.8305	971.5094	1009.2388	1027.9783	1114.2009	1125.3852	1136.4107	1203.7863	1232.0652	1247.9415	1251.3354	1255.8385	1258.2923	1277.9317	1281.8159	1338.4674	1371.3281	1475.5447	1488.0786	1508.0933	1551.6498	1635.7729	3060.7724	3062.7295	3067.3079	3070.0866	3107.4082	3118.8897	3130.0991	3262.0425	3275.4979
C1CC(C1)C1=CN=CO1	C1CC(C1)c1cnco1	
InChI=1S/C7H9NO/c1-2-6(3-1)7-4-8-5-9-7/h4-6H,1-3H2	InChI=1S/C7H9NO/c1-2-6(3-1)7-4-8-5-9-7/h4-6H,1-3H2
