21
gdb 102029	2.11467	1.27753	0.85762	1.1427	82.49	-0.2496	-0.0132	0.2364	1411.3625	0.181867	-420.44803	-420.437865	-420.436921	-420.48355	36.817	
C	 0.0130960552	 1.4966706117	 0.0522101473	-0.374444
C	-0.0265338323	-0.0272587545	-0.0603213861	-0.15352
N	-1.3936759467	-0.5789202647	-0.0160615917	-0.106492
C	-1.9996361761	-0.8525034468	-1.2268952592	 0.157467
O	-3.1193237695	-1.266612181	-1.4218019303	-0.326834
C	-1.9862897414	-0.7563821195	 1.2595560373	 0.361138
N	-1.2809873023	-0.4052080982	 2.2630261663	-0.510859
C	-3.382843262	-1.3483302887	 1.3171295665	-0.230451
C	-3.9199143707	-1.5356448238	 2.7363690734	-0.424963
H	 1.0492731703	 1.8459590427	 0.0022647151	 0.118472
H	-0.5439745273	 1.9686242257	-0.7636669401	 0.115057
H	-0.4128485645	 1.8183176884	 1.0041140133	 0.148809
H	 0.4224326111	-0.3515506163	-1.0033454943	 0.107645
H	 0.535188354	-0.4794737334	 0.7568683522	 0.145361
H	-1.3037983348	-0.6395669136	-2.0602354467	 0.087925
H	-1.7807814274	-0.5829619007	 3.1301480487	 0.225574
H	-4.0555083311	-0.7145585077	 0.7327420873	 0.143825
H	-3.3831126999	-2.3006424147	 0.7789682332	 0.139794
H	-4.9234465401	-1.9674696228	 2.6937793179	 0.123926
H	-3.2942126265	-2.2145597885	 3.3252217622	 0.126316
H	-3.9942802381	-0.5851397235	 3.2751556977	 0.126253
45.3747	98.9657	126.7883	158.4856	209.7144	237.638	261.5414	267.6021	315.0526	378.765	424.6769	440.2849	556.7447	577.184	662.6822	776.2071	801.2009	809.588	871.2554	921.9101	990.6453	1034.2221	1035.3934	1093.8453	1105.3378	1110.0739	1117.2092	1179.0563	1281.7745	1293.2881	1319.2218	1388.02	1399.7676	1408.4375	1412.9846	1422.2224	1440.1347	1456.3383	1489.4592	1497.303	1501.46	1508.1923	1509.0239	1690.7085	1802.1636	2950.9777	3035.9661	3042.8044	3066.9018	3071.1188	3090.0277	3105.2709	3111.4102	3114.3954	3134.8534	3147.4281	3531.4199
CCN(C=O)C(=N)CC	CCN(C=O)C(=N)CC	
InChI=1S/C6H12N2O/c1-3-6(7)8(4-2)5-9/h5,7H,3-4H2,1-2H3	InChI=1S/C6H12N2O/c1-3-6(7)8(4-2)5-9/h5,7H,3-4H2,1-2H3
