19
gdb 126970	3.08197	1.04721	0.79461	3.49	79.43	-0.216	0.0135	0.2295	1452.4186	0.159108	-419.209664	-419.200323	-419.199379	-419.244302	33.73	
C	 0.0166873632	 1.5112894102	 0.0389311255	-0.402967
C	-0.0820672045	-0.0039351275	-0.0930656876	-0.105986
N	 0.7574482803	-0.4795474875	-1.1886927066	-0.394101
C	 0.8629967214	-1.8325938856	-1.4151090423	 0.400967
N	 0.4302342492	-2.7216519389	-0.5436412731	-0.242804
O	 0.7818168722	-3.9673949868	-1.0875779327	-0.188488
C	 1.3908576441	-3.7645096973	-2.2630799342	 0.009547
C	 1.4879860893	-2.4452814674	-2.5561180283	 0.062846
C	 2.0969396625	-1.7619292453	-3.7368409268	-0.522997
H	 1.0497052508	 1.822341013	 0.2203591506	 0.128728
H	-0.3356486821	 2.0144992489	-0.8696234986	 0.112127
H	-0.6018904789	 1.8621654669	 0.869422128	 0.125681
H	 0.2654391521	-0.4943293558	 0.8212370641	 0.137807
H	-1.1300917891	-0.3128204907	-0.2278714189	 0.10568
H	 0.6945282417	 0.0721343736	-2.0325662644	 0.234833
H	 1.7112494637	-4.6525743117	-2.7877410256	 0.142217
H	 1.3534889658	-1.1929019295	-4.3097993173	 0.126441
H	 2.8786488514	-1.0563891306	-3.431810524	 0.137057
H	 2.548895157	-2.4849970279	-4.4205983479	 0.133411
67.5132	102.1926	122.6541	142.407	239.7152	253.5549	261.0185	344.089	363.1883	481.0359	529.5907	586.3804	638.3679	735.7043	797.824	815.6802	840.5784	919.0443	930.3905	954.7373	1015.2211	1068.3209	1078.4337	1148.4705	1157.3523	1175.2433	1235.7118	1287.6644	1306.0376	1356.8216	1408.1679	1421.2288	1424.6451	1482.6367	1491.4783	1498.5834	1499.9509	1516.8934	1526.1381	1569.5951	1679.1452	2988.8408	3018.8642	3032.1813	3067.0399	3077.1983	3103.2531	3114.3832	3122.4066	3252.0062	3590.5588
CCNC1=NOC=C1C	CCNc1nocc1C	
InChI=1S/C6H10N2O/c1-3-7-6-5(2)4-9-8-6/h4H,3H2,1-2H3,(H,7,8)	InChI=1S/C6H10N2O/c1-3-7-6-5(2)4-9-8-6/h4H,3H2,1-2H3,(H,7,8)
