18
gdb 60909	3.43377	1.18157	1.02162	2.1934	71.88	-0.2453	-0.0405	0.2049	1187.4627	0.146629	-439.039973	-439.031463	-439.030518	-439.07378	31.643	
O	-0.9407694679	 0.5488645531	 0.0040391141	-0.429167
C	 0.17746697	-0.2843158533	-0.1548335586	-0.067173
C	 1.1566743461	 0.3202798654	-1.1480756433	 0.124947
O	 0.912534595	 1.3648744741	-1.7037300351	-0.267751
C	 0.839362588	-0.5667754892	 1.1764073271	 0.351716
C	 1.8510185708	 0.3141896697	 1.7919100471	-0.282182
N	 2.2917160017	-1.008154105	 1.2987865093	-0.177134
C	 1.8530652313	-1.9882050983	 2.3582303719	-0.151035
C	 0.358092029	-1.6140070612	 2.1809893034	-0.320415
H	-0.7832589138	 1.3025287381	-0.5880401487	 0.294777
H	-0.1304269176	-1.2535674691	-0.5925922939	 0.091257
H	 2.0863557766	-0.2477006486	-1.3309457983	 0.130372
H	 2.2365985016	 1.1417773005	 1.2033854864	 0.129478
H	 1.8336874679	 0.4962834443	 2.8646189242	 0.116203
H	 2.0957569321	-3.0063967554	 2.0492023612	 0.116057
H	 2.3059515595	-1.7959067795	 3.3359911004	 0.109954
H	-0.1923590041	-1.2389312826	 3.0473704053	 0.114305
H	-0.223019346	-2.4129167329	 1.7154749073	 0.115792
45.1704	96.0523	155.357	231.3562	292.6348	299.7498	355.1286	432.3734	451.4234	487.3299	685.1512	744.7261	768.9684	779.7003	818.6621	847.175	919.2337	937.1898	977.1329	990.0262	1025.7117	1082.2915	1100.4892	1121.4448	1150.4951	1191.6271	1209.312	1219.027	1255.6722	1278.3735	1310.2707	1348.6407	1380.8083	1386.5747	1442.7801	1488.5839	1496.3119	1519.3834	1808.1521	2924.5494	2986.1913	3052.8156	3066.5231	3101.0595	3107.8628	3125.7838	3190.9492	3676.6472
OC(C=O)C12CN1CC2	O[C@@H](C=O)[C@]12CN1CC2	
InChI=1S/C6H9NO2/c8-3-5(9)6-1-2-7(6)4-6/h3,5,9H,1-2,4H2	InChI=1S/C6H9NO2/c8-3-5(9)6-1-2-7(6)4-6/h3,5,9H,1-2,4H2/t5-,6-,7?/m0/s1
