19
gdb 43675	5.32206	0.77014	0.74253	4.7025	77.92	-0.2439	0.0391	0.283	1546.5351	0.159547	-419.195482	-419.186818	-419.185874	-419.229901	31.98	
O	 0.1884829103	 0.0343850868	-0.2391304637	-0.357557
C	 0.0233069716	 1.2163562091	-0.1053743327	 0.427797
C	-1.1896425322	 2.158765811	 0.1192659498	-0.412398
C	-0.1377424588	 3.3042067064	 0.1886987917	 0.05566
C	 0.0214436276	 4.0096954066	 1.5279874129	-0.151267
N	 1.2617286027	 4.7773617533	 1.5388080337	-0.072474
C	 1.1683806574	 6.1727852948	 1.1140393409	-0.2214
C	 1.3710043242	 5.8249967228	 2.5470694147	-0.218777
N	 0.8834328438	 2.288296469	-0.088060549	-0.310362
H	-1.8906770572	 2.2050656992	-0.7153301468	 0.130981
H	-1.7336061903	 1.9680220407	 1.046973038	 0.128253
H	-0.2252006419	 4.0435302597	-0.6162997408	 0.084809
H	-0.8678413823	 4.638534898	 1.7200298755	 0.084576
H	 0.0780026721	 3.2602911622	 2.3268521342	 0.107445
H	 1.993641886	 6.5423004937	 0.5126469735	 0.121426
H	 0.1891185223	 6.5552802754	 0.8295181426	 0.112052
H	 0.5270288429	 5.9750641469	 3.2185803894	 0.113089
H	 2.3469620031	 5.9353038189	 3.010571145	 0.122001
H	 1.8899163287	 2.3469976654	-0.0413892288	 0.256144
51.4152	70.7253	109.5212	157.5442	304.0883	338.1071	404.3511	426.1843	476.7841	521.188	564.7585	733.0146	769.4024	827.8447	837.9038	899.5884	919.4959	948.8733	1014.853	1026.4632	1033.2373	1062.3178	1081.5465	1114.435	1119.7301	1152.6382	1177.0226	1182.9589	1192.8119	1198.502	1263.9528	1288.6669	1321.6704	1357.2266	1378.2106	1416.8823	1460.7784	1481.7496	1494.1829	1522.327	1896.0429	2932.819	3031.5583	3056.1873	3083.9761	3094.6612	3099.6247	3143.2974	3179.8472	3193.8962	3617.9573
O=C1CC(CN2CC2)N1	O=C1C[C@@H](CN2CC2)N1	
InChI=1S/C6H10N2O/c9-6-3-5(7-6)4-8-1-2-8/h5H,1-4H2,(H,7,9)	InChI=1S/C6H10N2O/c9-6-3-5(7-6)4-8-1-2-8/h5H,1-4H2,(H,7,9)/t5-/m0/s1
