23
gdb 110372	3.49719	1.06262	1.01073	0.1702	88.95	-0.23	0.0867	0.3167	1337.1337	0.206902	-351.106999	-351.098564	-351.09762	-351.13996	33.797	
C	-0.2454887774	 1.4408191312	 0.1743442617	-0.373981
C	 0.2442262574	 0.002016232	-0.0259520303	-0.212153
C	 0.8633002401	-0.5917640644	 1.226623342	 0.001969
C	-0.0739736661	-1.2373090939	 2.2120333656	-0.065634
C	 0.8721817936	-2.0901252637	 1.3485079683	-0.087458
C	 1.5933418912	-2.5928356239	 2.6208313913	-0.024954
C	 2.8176742707	-1.800833068	 3.1748633983	-0.241998
C	 1.853632252	-0.9335766924	 4.0525376046	-0.240796
C	 0.6353292063	-1.7308365998	 3.4938365307	-0.024339
H	 0.5779750813	 2.0992793421	 0.4720863774	 0.11317
H	-0.6784093417	 1.8450720385	-0.7460845843	 0.109259
H	-1.0083747305	 1.4916894549	 0.9579678391	 0.117274
H	-0.5924247654	-0.6301656421	-0.3505117974	 0.093692
H	 0.9796254446	-0.0250336705	-0.8406293276	 0.095188
H	 1.7135622051	-0.0215429684	 1.595432695	 0.075687
H	-1.1467262917	-1.1045149252	 2.1182851979	 0.076083
H	 0.636245028	-2.7120677574	 0.4915086148	 0.076145
H	 1.6167505741	-3.6785685236	 2.7197272095	 0.063184
H	 3.497218722	-2.4200105363	 3.7657696819	 0.09501
H	 3.4118705504	-1.2616789038	 2.4323285999	 0.098467
H	 2.0036783375	-1.0758542567	 5.1256282312	 0.09491
H	 1.8529164565	 0.1409959619	 3.8509931829	 0.09846
H	-0.0302610577	-2.1965449204	 4.2213530078	 0.062815
88.6926	130.9793	179.4725	207.9773	255.1512	349.0085	375.4232	401.1267	521.9743	668.3053	728.4985	736.7841	763.7386	812.7585	844.6832	859.6396	874.7453	903.9951	905.0983	947.9693	963.403	970.6319	1017.3994	1044.1637	1049.1205	1062.8228	1085.2559	1100.0286	1111.4624	1136.1993	1168.6612	1199.2479	1207.2058	1226.7373	1246.6698	1253.3499	1281.72	1287.3172	1290.3632	1311.4905	1324.1584	1364.5667	1409.2356	1434.1707	1473.2539	1487.0366	1491.0628	1497.3808	1507.4632	3015.6433	3031.8002	3046.6322	3054.2108	3060.2786	3089.5318	3098.5337	3100.3286	3102.0269	3104.9016	3116.7765	3120.8994	3154.5414	3165.7133
CCC1C2C1C1CCC21	CC[C@H]1[C@H]2[C@@H]1[C@H]1CC[C@@H]21	
InChI=1S/C9H14/c1-2-5-8-6-3-4-7(6)9(5)8/h5-9H,2-4H2,1H3	InChI=1S/C9H14/c1-2-5-8-6-3-4-7(6)9(5)8/h5-9H,2-4H2,1H3/t5-,6+,7-,8+,9-
