22
gdb 88628	3.57562	1.10505	1.03935	1.4447	85.76	-0.2178	0.0842	0.302	1271.9606	0.194972	-367.142124	-367.133554	-367.13261	-367.175683	33.419	
C	 3.1349480021	-1.180774148	 0.9482162567	-0.31374
N	 1.7576368488	-1.2565724115	 0.4844266718	-0.092016
C	 0.825935398	-2.0069475591	 1.311003696	-0.246086
C	 0.7220333366	-0.5173098496	 1.2242601145	-0.028327
C	 1.0656044278	 0.3878591319	 2.3790907877	-0.01678
C	 0.0606561755	 1.2588053976	 3.0844151275	-0.092091
C	-1.2824005665	 0.5369561035	 3.2631870881	-0.225962
C	-0.5493935983	-0.5952872075	 4.0522922412	-0.221823
C	 0.7829708661	 0.1380786758	 3.842485956	-0.074353
H	 3.2488935371	-1.1663226706	 2.0438469952	 0.10434
H	 3.679725204	-2.0482864909	 0.5622610761	 0.121089
H	 3.6083465937	-0.2801884355	 0.5424626736	 0.119965
H	 0.1228234259	-2.6475105428	 0.7838625756	 0.109581
H	 1.2001297478	-2.4153910595	 2.2491164195	 0.107475
H	-0.0368179612	-0.113298021	 0.5553042789	 0.092042
H	 2.0071573169	 0.9172812874	 2.2416248934	 0.091804
H	 0.2026325549	 2.331030136	 3.1548899295	 0.082167
H	-1.9807856637	 1.092645685	 3.8922823007	 0.101507
H	-1.8028616851	 0.2464037331	 2.345246505	 0.098919
H	-0.847837401	-0.6157790986	 5.1027362835	 0.102347
H	-0.6222358459	-1.6097778855	 3.651507421	 0.100275
H	 1.5703802566	 0.2163664298	 4.5836380585	 0.079665
43.5255	145.2824	170.6424	208.4866	246.5784	284.9426	378.7576	433.0039	492.1742	574.7467	724.1764	740.707	772.1541	784.6871	800.8929	867.6424	911.1526	941.4326	952.3372	961.7172	998.3857	1021.6107	1037.4503	1049.3155	1080.9753	1093.609	1117.4435	1125.0697	1137.0057	1146.0943	1169.2754	1208.6962	1213.6556	1224.7803	1245.1175	1262.3525	1304.5969	1333.6752	1342.2536	1381.8744	1437.2601	1448.1909	1478.8263	1492.9029	1498.1911	1501.4334	1507.5913	2976.0648	3050.398	3063.2132	3064.0368	3084.9993	3096.9412	3098.8945	3102.7889	3117.5056	3119.3575	3166.4833	3170.1526	3179.1919
CN1CC1C1C2CCC12	CN1C[C@H]1[C@H]1[C@H]2CC[C@@H]12	
InChI=1S/C8H13N/c1-9-4-7(9)8-5-2-3-6(5)8/h5-8H,2-4H2,1H3	InChI=1S/C8H13N/c1-9-4-7(9)8-5-2-3-6(5)8/h5-8H,2-4H2,1H3/t5-,6+,7-,8-,9?/m0/s1
