19
gdb 114647	2.88316	1.3491	1.17187	3.8062	75.84	-0.2329	-0.001	0.2319	1132.4595	0.159925	-423.019012	-423.010953	-423.010008	-423.0518	30.837	
C	-0.0093956982	 1.2954649597	-0.1490435734	-0.241109
O	-0.0355005802	-0.0627465817	 0.2280519098	-0.244936
C	-1.3109991026	-0.6542830065	 0.1430469617	 0.146938
C	-1.7406156565	-1.0448883639	-1.3238652658	-0.257855
C	-1.800751961	-2.5792750374	-1.1784425358	-0.140999
C	-2.5441482691	-2.7173800355	 0.1936549937	-0.256859
C	-1.2608419472	-2.0469650828	 0.7910437079	-0.17273
C	-0.5471896704	-2.8487316728	-0.3192883356	 0.447205
O	 0.4224427391	-3.5387154044	-0.4010794688	-0.321143
H	 1.0154625909	 1.6481293667	-0.0136937177	 0.133536
H	-0.2958975418	 1.4420084169	-1.2011427419	 0.107735
H	-0.6811882388	 1.9019668484	 0.47845642	 0.105835
H	-2.0571226465	-0.0077927013	 0.6286803965	 0.068235
H	-2.7094728912	-0.6256210415	-1.6088081194	 0.103742
H	-0.9901601247	-0.7158692734	-2.0471831351	 0.119161
H	-2.0478227552	-3.1799702008	-2.0510117868	 0.084886
H	-3.4764161004	-2.1558235449	 0.2937559212	 0.107368
H	-2.6774638496	-3.7492674463	 0.5208625264	 0.122096
H	-0.9824918465	-2.1054895683	 1.8401890732	 0.088892
92.7322	120.291	174.1459	202.7321	273.2831	407.8813	425.9718	439.3115	479.8224	636.4914	653.0517	776.1985	818.9379	833.7754	861.4264	920.5435	960.1365	969.329	1001.0878	1006.3541	1023.1518	1072.1459	1091.2499	1111.8022	1139.5615	1173.8156	1184.4138	1203.6753	1217.0514	1234.3149	1250.2666	1252.9368	1316.9279	1324.6567	1387.025	1480.5811	1483.5203	1491.0356	1503.2907	1508.9769	1908.2382	2974.7771	2986.5941	3024.4226	3058.3399	3068.4147	3110.1922	3119.9802	3138.2766	3146.8828	3158.7981
COC1CC2CC1C2=O	CO[C@H]1C[C@@H]2C[C@H]1C2=O	
InChI=1S/C7H10O2/c1-9-6-3-4-2-5(6)7(4)8/h4-6H,2-3H2,1H3	InChI=1S/C7H10O2/c1-9-6-3-4-2-5(6)7(4)8/h4-6H,2-3H2,1H3/t4-,5+,6-/m0/s1
