16
gdb 29535	3.18273	1.53536	1.05134	1.6032	70.91	-0.1665	0.0678	0.2343	1077.6984	0.126038	-437.90056	-437.892546	-437.891602	-437.933063	29.919	
O	 0.2836437677	 1.3740821757	-0.1256495522	-0.447382
C	 0.139791409	 0.0184280965	-0.026129514	 0.165232
C	 0.0964215134	-0.826445267	-1.11365015	-0.180449
N	-0.0678723262	-2.1389339292	-0.6318257052	-0.39946
C	-0.107402464	-2.0649577582	 0.7134319249	 0.457784
C	 0.0178070394	-0.7797572741	 1.1511682397	 0.032218
C	-0.1664790605	-0.7933617171	 2.6452203402	-0.388301
C	-0.1175361233	-2.3387269409	 2.9067843459	-0.085969
O	-0.3141036463	-3.0329415371	 1.6358808967	-0.289004
H	 0.3276610252	 1.738253037	 0.7621906902	 0.295321
H	 0.1933914836	-0.6233853232	-2.1652620544	 0.117472
H	-0.1078557389	-2.9706590721	-1.1920428557	 0.265459
H	 0.620265236	-0.2929089395	 3.2211283973	 0.107615
H	-1.1244819971	-0.3624775006	 2.9673933403	 0.110688
H	 0.8636659852	-2.6352324024	 3.2924057403	 0.118017
H	-0.8915394531	-2.6917905678	 3.5904652159	 0.120758
114.0592	150.8547	186.1966	210.291	262.6715	272.0731	406.1742	527.6694	564.9175	600.8475	632.8732	646.3059	693.9168	764.8674	789.6727	853.5969	930.2089	982.9644	1058.1633	1071.8214	1089.5391	1154.5829	1202.2467	1210.0192	1243.1067	1298.0516	1313.195	1338.4171	1376.946	1472.665	1498.5631	1515.1579	1577.9104	1598.6798	1661.1457	3000.9892	3037.567	3053.7234	3118.3014	3289.4044	3700.1532	3853.5685
OC1=CNC2=C1CCO2	Oc1c[nH]c2c1CCO2	
InChI=1S/C6H7NO2/c8-5-3-7-6-4(5)1-2-9-6/h3,7-8H,1-2H2	InChI=1S/C6H7NO2/c8-5-3-7-6-4(5)1-2-9-6/h3,7-8H,1-2H2
