20
gdb 82208	2.50639	1.81988	1.34441	3.0427	77.49	-0.2362	0.0708	0.307	1029.5698	0.171151	-403.116294	-403.108076	-403.107131	-403.148511	32.614	
C	 0.064100024	 1.5328764959	 0.0130858873	-0.395761
C	 0.0077427783	 0.0020484294	-0.0169931623	-0.056147
C	 0.7093428856	-0.6246435241	-1.230091306	-0.059512
N	 2.1433683178	-0.3069200865	-1.3616851418	-0.315088
C	 1.7345826938	-1.5973550304	-0.7666349793	-0.080118
C	 1.7106056191	-1.5930862852	 0.748257259	-0.024216
O	 2.0596884821	-0.3429798073	 1.3489030596	-0.276657
C	 0.6653419012	-0.6589647759	 1.2112713229	 0.393033
C	-0.1063002426	-0.7874533997	 2.4972056481	-0.483813
H	 1.1057563741	 1.859846585	 0.0284312686	 0.154794
H	-0.4217050996	 1.9605682335	-0.8697966804	 0.106237
H	-0.4423047466	 1.9328116425	 0.8977389294	 0.1083
H	-1.0401335326	-0.3260605795	-0.040572963	 0.069405
H	 0.1311778873	-0.786265012	-2.1353784482	 0.083517
H	 2.4273912031	-0.4677837681	-2.3257901699	 0.229372
H	 1.9482970634	-2.5233760407	-1.2892072286	 0.083828
H	 2.0072138293	-2.4823893262	 1.2996023086	 0.087163
H	-0.3765240599	 0.199113005	 2.8904886766	 0.128619
H	-1.0320708	-1.3527552405	 2.345726709	 0.118176
H	 0.4970867922	-1.2959368053	 3.2534240006	 0.128867
134.5067	192.0773	208.3409	227.807	237.7871	277.3574	376.8858	429.1765	542.0418	565.4514	647.0237	695.499	705.2769	811.1793	819.8535	850.4684	884.7465	902.3932	923.6383	955.3902	999.6063	1036.7485	1055.0722	1063.0544	1077.4263	1112.9911	1136.6736	1151.0547	1177.2889	1217.1503	1237.6008	1294.7589	1330.1052	1334.6537	1371.4251	1399.5136	1406.4632	1425.0807	1449.2512	1483.3932	1494.9604	1495.7915	1503.3643	3018.8213	3032.2752	3038.8736	3092.8979	3098.6076	3121.0711	3137.2023	3138.0344	3145.6817	3173.5661	3489.2455
CC1C2NC2C2OC12C	C[C@H]1[C@H]2N[C@H]2[C@H]2O[C@@]12C	
InChI=1S/C7H11NO/c1-3-4-5(8-4)6-7(3,2)9-6/h3-6,8H,1-2H3	InChI=1S/C7H11NO/c1-3-4-5(8-4)6-7(3,2)9-6/h3-6,8H,1-2H3/t3-,4+,5+,6+,7-/m0/s1
