17
gdb 26063	3.255	1.1717	0.9168	0.9347	79.07	-0.2232	0.0192	0.2424	1254.1407	0.135246	-384.683723	-384.675177	-384.674233	-384.717393	31.991	
C	 0.232711169	 1.3414738585	 0.3280707912	-0.379879
C	-0.0862887976	-0.1357773611	-0.0100982893	-0.295312
C	-1.531205144	-0.3342075361	-0.1343364554	 0.33871
C	-2.7214867875	-0.4699080709	-0.2317829409	-0.469258
C	 0.6551227124	-0.5960420769	-1.2433591713	 0.253409
C	 0.1349585128	-0.9724238423	-2.4417447526	-0.092021
O	 1.1224215052	-1.307601204	-3.3151171109	-0.148956
C	 2.2997506951	-1.1428754874	-2.6587826057	 0.004391
C	 2.0821918578	-0.7102846912	-1.3912952114	-0.291961
H	 1.3099664022	 1.4752997809	 0.4595768137	 0.118694
H	-0.100276645	 1.9956060771	-0.4816392877	 0.132071
H	-0.2726964559	 1.6413713298	 1.2497633454	 0.124858
H	 0.2596824714	-0.7459276514	 0.8367869564	 0.116256
H	-3.7724536344	-0.6006239371	-0.3101710714	 0.196587
H	-0.874191688	-1.0585229927	-2.806309245	 0.147358
H	 3.1879531858	-1.3740192007	-3.223376616	 0.136301
H	 2.8353572907	-0.5009519943	-0.6470983289	 0.108753
47.0712	123.5178	159.2069	204.1611	237.5882	319.8176	381.7014	457.2649	536.6528	622.4495	625.2576	640.1477	653.8038	708.8963	739.9992	796.2625	831.3072	861.1761	893.946	968.2417	1025.8016	1055.9445	1076.9297	1098.7603	1117.013	1202.494	1235.0362	1264.1607	1311.1033	1336.9498	1403.6813	1410.5523	1490.6151	1497.1148	1537.2211	1633.1575	2237.3399	2998.2994	3046.3303	3123.415	3130.1141	3248.4652	3282.3374	3291.7096	3502.9951
CC(C#C)C1=COC=C1	C[C@@H](C#C)c1cocc1	
InChI=1S/C8H8O/c1-3-7(2)8-4-5-9-6-8/h1,4-7H,2H3	InChI=1S/C8H8O/c1-3-7(2)8-4-5-9-6-8/h1,4-7H,2H3/t7-/m0/s1
