22
gdb 110562	3.45712	1.13666	1.00789	1.7989	87.15	-0.2243	0.0901	0.3143	1308.4988	0.193762	-367.125761	-367.116996	-367.116052	-367.159043	34.093	
C	 0.0541619903	 1.5646140118	-0.1619254389	-0.378322
C	 0.0136264154	 0.0736337585	 0.191623639	-0.213101
C	-1.3940875488	-0.5061001402	 0.1374606092	 0.002557
C	-2.0162257496	-0.8593028134	-1.2249681716	-0.053514
N	-1.1336982132	-2.1296667902	-1.3614061539	-0.163248
C	-2.3818191465	-2.9455629507	-1.6689804799	-0.227519
C	-2.949473478	-1.9719857234	-0.6377129443	 0.3145
C	-4.343320835	-1.8472177527	-0.0784113333	-0.525623
C	-1.5816440524	-2.030801872	 0.1225731919	-0.070023
H	 1.0738012532	 1.958086601	-0.1069729387	 0.112578
H	-0.314916703	 1.7417272266	-1.1779693692	 0.116601
H	-0.5671072839	 2.1537835259	 0.5225003727	 0.10956
H	 0.6561566895	-0.4929770537	-0.4900417662	 0.121492
H	 0.418740754	-0.0731829887	 1.2016350681	 0.09026
H	-2.075417028	 0.0241385308	 0.8142307701	 0.06307
H	-2.206742542	-0.2305788833	-2.0985167638	 0.073932
H	-2.7184188643	-2.8533211216	-2.7081423162	 0.093887
H	-2.2925750298	-4.0018773851	-1.3899385626	 0.093882
H	-4.6477275433	-2.7721900444	 0.4238711529	 0.121916
H	-4.411714088	-1.032437691	 0.6504733031	 0.122112
H	-5.068279276	-1.6459138086	-0.8748817175	 0.12188
H	-1.2544719606	-2.7843099157	 0.8438691592	 0.073124
84.5783	135.5298	171.3938	201.2976	242.6543	294.8467	306.2672	364.0405	466.98	520.5976	627.2836	721.6087	743.8786	811.0807	855.1723	856.8061	877.7505	899.6595	902.754	936.7147	962.9329	1016.7952	1045.1318	1052.8958	1078.0743	1104.7104	1107.0021	1110.5238	1159.0614	1174.7089	1195.1449	1211.4336	1231.6414	1243.6623	1287.7271	1290.239	1338.2843	1355.328	1405.9971	1409.6369	1417.9701	1486.5543	1489.0338	1492.1534	1500.2129	1506.1583	1520.7333	3021.2336	3022.7336	3026.0639	3028.3076	3032.014	3074.7811	3077.0275	3080.0022	3083.9802	3092.7383	3095.9791	3099.2795	3102.9101
CCC1C2N3CC2(C)C13	CC[C@H]1[C@H]2N3C[C@@]2(C)[C@H]13	
InChI=1S/C8H13N/c1-3-5-6-8(2)4-9(6)7(5)8/h5-7H,3-4H2,1-2H3	InChI=1S/C8H13N/c1-3-5-6-8(2)4-9(6)7(5)8/h5-7H,3-4H2,1-2H3/t5-,6+,7-,8+
