21
gdb 60616	2.84048	1.09659	0.93839	3.4855	79.7	-0.2316	0.0388	0.2703	1337.849	0.181119	-420.418705	-420.40845	-420.407506	-420.454076	37.652	
C	 0.8894238057	 1.2569685307	-0.8208246784	-0.399535
C	 0.1089948359	 0.2269795582	 0.006580525	-0.050432
N	 0.0443092937	-1.0540837548	-0.6954683692	-0.099828
C	-1.0990277384	-1.92577121	-0.4240001976	-0.255733
C	-0.9390205848	-1.2873898623	-1.7608127547	 0.030207
C	-1.9205634618	-0.2442892664	-2.2498163247	-0.419268
C	 0.8101830876	 0.0627422277	 1.3687772145	 0.389187
N	 1.6000454353	-1.0359183383	 1.4682987159	-0.512537
O	 0.6770376616	 0.8922301838	 2.2488316988	-0.379139
H	 1.8792049535	 0.8672181311	-1.0764957572	 0.123565
H	 0.363355709	 1.4935096539	-1.7492026159	 0.116267
H	 1.0091045814	 2.1758266021	-0.2422483761	 0.142752
H	-0.8818705868	 0.6377980522	 0.2472213585	 0.086294
H	-0.8769161309	-2.9786007908	-0.2709221137	 0.11248
H	-1.8874918591	-1.5328088321	 0.2171291924	 0.117362
H	-0.5327735285	-1.9069382346	-2.559345505	 0.092431
H	-2.3238139545	 0.3648528178	-1.4375748957	 0.128555
H	-1.4615292595	 0.4243703029	-2.9852128964	 0.12824
H	-2.7646401234	-0.7412680484	-2.739786253	 0.126042
H	 1.670154098	-1.6655982834	 0.6857335002	 0.266635
H	 2.1346186361	-1.1813050393	 2.3077942721	 0.256457
53.6713	73.06	148.3228	184.5171	216.0766	223.8672	254.4068	275.4048	295.7248	376.1636	439.8094	462.2228	507.3904	572.0156	650.6696	760.2728	761.0573	810.1461	823.082	902.5948	935.6678	1001.6535	1031.1727	1055.1158	1092.1013	1108.1165	1112.0103	1123.0163	1148.3463	1190.7259	1192.9409	1320.1633	1326.5537	1347.5845	1358.5137	1398.5993	1404.5523	1424.4542	1489.3491	1492.1361	1496.0669	1503.063	1511.4762	1582.0358	1801.3388	3001.1969	3039.8668	3047.9754	3089.6039	3097.1964	3105.4082	3121.0665	3129.3048	3135.334	3175.9882	3587.9213	3734.0162
CC(N1CC1C)C(N)=O	C[C@@H](N1C[C@H]1C)C(=O)N	
InChI=1S/C6H12N2O/c1-4-3-8(4)5(2)6(7)9/h4-5H,3H2,1-2H3,(H2,7,9)	InChI=1S/C6H12N2O/c1-4-3-8(4)5(2)6(7)9/h4-5H,3H2,1-2H3,(H2,7,9)/t4-,5-,8?/m1/s1
