16
gdb 124891	3.73358	1.26776	1.05179	1.9087	71.38	-0.2537	-0.0168	0.2369	1124.5985	0.123794	-437.861995	-437.854137	-437.853192	-437.894952	29.073	
C	-0.2891431994	 1.3846738732	-0.6267676728	-0.473724
C	-0.0428848253	 0.0011763154	-0.068809037	 0.273135
C	 1.0304608454	-0.8542175288	-0.6200475146	-0.206355
O	 1.1870013192	-0.1960208952	 0.6366006402	-0.261645
C	-1.1941182879	-0.6637464883	 0.5885523243	 0.407937
C	-1.2856590829	-1.4850063386	 1.6699487126	-0.340686
C	-2.6761440017	-1.7570502531	 1.7524816248	 0.025874
N	-3.3624486089	-1.1552795878	 0.812214078	-0.137629
O	-2.415384146	-0.4527616843	 0.0660989945	-0.220629
H	 0.6253515911	 1.7728901715	-1.0801972682	 0.130494
H	-1.0804159911	 1.3582120433	-1.3807891892	 0.146821
H	-0.6022979146	 2.0682739675	 0.1679633044	 0.139932
H	 0.931789574	-1.9368813991	-0.5729175765	 0.123722
H	 1.6470586544	-0.4691719575	-1.4312208287	 0.122742
H	-0.4864071184	-1.8208891414	 2.307230695	 0.134956
H	-3.2034335878	-2.3699557966	 2.4701780833	 0.135054
52.1528	147.2737	179.7701	197.1003	316.4136	353.3627	405.1907	472.2123	563.0372	646.7404	724.6882	812.0649	827.1702	867.6251	915.3642	921.0869	930.2772	945.4889	993.1105	1028.1261	1044.6331	1102.3944	1137.9851	1149.5621	1169.9521	1234.6721	1288.153	1360.2843	1380.8402	1414.3703	1479.0123	1491.9929	1517.9837	1523.0588	1633.6624	3049.7076	3085.8823	3120.5929	3137.3118	3180.2778	3243.721	3294.9691
CC1(CO1)C1=CC=NO1	C[C@]1(CO1)c1ccno1	
InChI=1S/C6H7NO2/c1-6(4-8-6)5-2-3-7-9-5/h2-3H,4H2,1H3	InChI=1S/C6H7NO2/c1-6(4-8-6)5-2-3-7-9-5/h2-3H,4H2,1H3/t6-/m0/s1
