15
gdb 29432	3.70213	1.06516	0.82717	4.172	73.21	-0.1802	0.0046	0.1849	1290.2907	0.112799	-453.992387	-453.983639	-453.982695	-454.026438	31.56	
O	 0.0987663839	 1.410896696	-0.2414965754	-0.450953
C	 0.0652964721	 0.0544972943	-0.1076423138	 0.355321
C	 0.0089857864	-0.8205750792	-1.1633431082	-0.185683
N	-0.007305594	-2.0998592045	-0.6201402661	-0.344551
C	 0.0355915595	-2.0190261901	 0.7435546423	 0.455373
N	 0.0271544908	-3.1845851205	 1.5150112484	-0.411607
C	 0.0633713646	-3.2406017482	 2.8819889068	 0.14378
O	 0.1061252675	-2.2859270609	 3.6250661513	-0.303695
C	 0.0824162238	-0.6898207169	 1.1077864599	-0.389856
H	 0.1350388576	 1.7994897951	 0.6370868493	 0.29879
H	-0.0185681914	-0.6551090877	-2.2256111631	 0.120534
H	-0.0546868109	-2.9457169409	-1.1589787055	 0.255551
H	-0.0032452783	-4.0671143195	 1.0281372351	 0.248338
H	 0.0481711622	-4.2897325736	 3.2347649385	 0.080796
H	 0.1239903363	-0.3216917333	 2.1180714604	 0.127863
37.718	155.1892	164.5614	199.4906	228.6735	295.1187	313.8103	397.3926	447.7422	487.2591	561.4621	603.8177	668.1154	679.8545	720.7363	773.9731	857.2419	993.9233	997.6034	1007.2685	1111.9863	1146.5537	1175.1133	1211.3202	1292.1124	1322.1869	1431.3493	1453.579	1466.9864	1566.0978	1590.5741	1664.0266	1802.8738	2947.6761	3289.4513	3290.664	3623.9962	3690.1881	3845.4702
OC1=CNC(NC=O)=C1	Oc1c[nH]c(NC=O)c1	
InChI=1S/C5H6N2O2/c8-3-7-5-1-4(9)2-6-5/h1-3,6,9H,(H,7,8)	InChI=1S/C5H6N2O2/c8-3-7-5-1-4(9)2-6-5/h1-3,6,9H,(H,7,8)
