16
gdb 7465	3.94207	1.17825	1.05303	3.1517	69.74	-0.2472	0.0283	0.2754	1164.8325	0.127927	-383.686368	-383.677324	-383.67638	-383.722037	30.724	
C	 0.074757699	 1.5145514398	-0.0657395995	-0.498815
C	 0.0363449799	 0.0599285257	-0.0361937961	-0.003623
C	-0.0100751311	-1.1438805513	-0.0103819184	 0.078276
C	-0.0148142438	-2.5984390123	 0.0100439979	 0.172115
O	 0.7369144071	-3.1473129926	-1.0558769697	-0.456894
C	 0.2279889773	-3.2457784593	 1.411133909	-0.105526
O	-1.1300518476	-3.7149111372	 1.4766732033	-0.271108
C	-1.4002384905	-3.2864901884	 0.1304528596	-0.094718
H	 0.9196999029	 1.9039171295	 0.5124977783	 0.152083
H	 0.1705990697	 1.8877869209	-1.091088508	 0.1536
H	-0.8418035028	 1.939487132	 0.3576302915	 0.156648
H	 1.4803126088	-2.5596103148	-1.2262662111	 0.28494
H	 0.9550507848	-4.0661324624	 1.3618079872	 0.103606
H	 0.4731874757	-2.565973909	 2.2336050506	 0.105943
H	-2.2782651261	-2.6368940184	 0.0652889206	 0.111306
H	-1.4944487735	-4.1261064323	-0.5688442851	 0.112166
15.95	62.017	113.6579	121.6509	235.973	286.3763	313.4386	373.5903	379.9273	513.9622	542.9701	589.3163	801.2071	886.7562	952.4324	987.9388	1019.0597	1037.834	1042.506	1051.8482	1054.5382	1146.4235	1154.9994	1163.089	1262.2489	1297.1044	1348.8642	1398.552	1413.8972	1475.8149	1477.4349	1494.9256	1523.7809	2364.2697	3014.9869	3029.4739	3030.0631	3081.3151	3089.5903	3092.0527	3093.291	3818.3389
CC#CC1(O)COC1	CC#CC1(O)COC1	
InChI=1S/C6H8O2/c1-2-3-6(7)4-8-5-6/h7H,4-5H2,1H3	InChI=1S/C6H8O2/c1-2-3-6(7)4-8-5-6/h7H,4-5H2,1H3
