20
gdb 115156	3.26946	1.11946	0.92429	2.013	76.57	-0.2606	0.0168	0.2774	1311.9965	0.171573	-440.30788	-440.298686	-440.297742	-440.342071	34.084	
C	-0.0183050503	 1.5913130783	-0.0384896235	-0.392466
C	-0.0969900153	 0.0605579354	-0.040543557	-0.197632
C	 0.7238189301	-0.5842559874	-1.1587351528	-0.007008
C	 2.2398702137	-0.3315146651	-1.0959351097	-0.094703
O	 2.8388525587	-1.4011378896	-1.8542432402	-0.240989
C	 1.9838376318	-2.4561177009	-1.9255881801	 0.390703
N	 2.2389548517	-3.58063461	-2.4427442478	-0.553366
C	 0.6812635409	-2.1164257314	-1.2179503538	 0.016842
O	 0.7217167073	-2.6439337632	 0.1038502914	-0.438547
H	 1.0044963181	 1.944831029	 0.1316028983	 0.118609
H	-0.3593132047	 2.0106065604	-0.9918733435	 0.115496
H	-0.6451728497	 2.0129726675	 0.7527151251	 0.119276
H	 0.2398540484	-0.3378662592	 0.9212050166	 0.123167
H	-1.1424736967	-0.2512786497	-0.150006814	 0.10343
H	 0.3652439246	-0.2192143163	-2.130458748	 0.08626
H	 2.5555384478	 0.6097066911	-1.5494385157	 0.120213
H	 2.6120591256	-0.3770127495	-0.0653734714	 0.120652
H	 3.1987138048	-3.6116308227	-2.792486533	 0.223065
H	-0.1814502659	-2.5042366737	-1.7713701017	 0.090072
H	 0.9449918593	-3.5785527131	 0.0215214109	 0.296927
70.5529	94.2634	162.8929	172.8395	232.3938	256.5632	298.2729	345.1265	392.6288	454.0712	497.8377	668.1162	674.0496	723.5892	781.1968	857.1326	893.9464	901.7536	954.4587	981.2354	982.6019	1011.7552	1046.3852	1100.3714	1122.2111	1155.7636	1165.7504	1211.5729	1246.9536	1279.9958	1292.7935	1312.2612	1347.2442	1366.99	1386.7133	1394.0085	1415.9628	1428.0811	1489.2863	1502.3717	1507.0353	1518.0108	1773.4355	3018.2003	3030.5383	3038.8739	3040.1015	3045.4804	3079.7918	3103.2069	3106.3245	3115.3787	3465.6953	3797.872
CCC1COC(=N)C1O	CC[C@H]1CO[C]([NH])[C@H]1O	
InChI=1S/C6H11NO2/c1-2-4-3-9-6(7)5(4)8/h4-5,7-8H,2-3H2,1H3	InChI=1S/C6H11NO2/c1-2-4-3-9-6(7)5(4)8/h4-5,7-8H,2-3H2,1H3/t4-,5-/m0/s1
