25
gdb 101721	3.82795	0.70743	0.64572	1.3788	89.93	-0.2514	0.0706	0.322	1868.1448	0.226745	-389.486207	-389.474935	-389.47399	-389.523555	41.038	
C	-0.009567486	 1.5942602841	-0.2735024653	-0.381135
C	-0.0123049048	 0.0976559066	 0.0456882709	-0.183739
C	-1.4162833669	-0.5229968881	 0.0164404917	 0.13924
O	-2.0519641041	-0.3111222301	-1.2425776303	-0.424479
C	-1.3981144638	-2.0085040875	 0.4097946002	-0.237811
C	-2.7759852051	-2.6373106385	 0.4477926234	 0.027466
C	-3.3727404245	-3.3122436687	-0.7624939464	-0.279693
C	-3.0038902806	-4.1349359287	 0.4488195503	-0.012721
C	-1.873640198	-5.1407881024	 0.3994668449	-0.4026
H	 1.0090210713	 1.9925554837	-0.3062660078	 0.10643
H	-0.4865768953	 1.7793456434	-1.2392465282	 0.127872
H	-0.5651112839	 2.1588527834	 0.4836436186	 0.112222
H	 0.6209646221	-0.4393632093	-0.6762266307	 0.082098
H	 0.4340036774	-0.0799969944	 1.0323861174	 0.093126
H	-2.0533651568	 0.0194500015	 0.7289710564	 0.082109
H	-1.5836077051	-0.8407657597	-1.8974707746	 0.27423
H	-0.7477370092	-2.5480214674	-0.2926678378	 0.081506
H	-0.9169603496	-2.0953149863	 1.3937363065	 0.095791
H	-3.4812366309	-2.0720497416	 1.053775541	 0.078016
H	-4.4180491037	-3.14502315	-0.9974669346	 0.108519
H	-2.7376100454	-3.4130677113	-1.6382471914	 0.093014
H	-3.8425348451	-4.4598448225	 1.0601964801	 0.079419
H	-1.0654796322	-4.8168765431	-0.2626609958	 0.111952
H	-1.4408982597	-5.3096604138	 1.3923465362	 0.113998
H	-2.23133333	-6.1069160991	 0.0261661152	 0.11517
28.5567	70.3194	99.2164	122.2862	176.4237	210.6519	216.7155	248.2011	272.1134	303.1036	349.4055	430.3525	446.5056	471.3516	561.8563	761.2306	777.9613	824.2819	835.6707	878.0845	891.5163	922.3562	963.3246	987.5713	1009.8356	1049.5126	1059.1535	1080.9859	1108.5937	1112.5785	1123.0353	1149.2416	1162.1184	1197.6368	1228.3093	1250.4582	1267.9291	1294.2306	1349.8626	1357.5976	1387.1973	1394.9456	1405.1474	1416.3164	1422.3157	1432.0532	1472.4339	1484.1202	1493.168	1495.0732	1495.5863	1506.3622	1509.6408	2997.3702	3004.5366	3017.303	3027.6431	3036.1326	3039.2327	3053.5817	3083.6035	3100.3279	3101.6144	3120.1546	3122.201	3123.5188	3134.953	3206.2962	3796.5637
CCC(O)CC1CC1C	CC[C@@H](O)C[C@H]1C[C@H]1C	
InChI=1S/C8H16O/c1-3-8(9)5-7-4-6(7)2/h6-9H,3-5H2,1-2H3	InChI=1S/C8H16O/c1-3-8(9)5-7-4-6(7)2/h6-9H,3-5H2,1-2H3/t6-,7-,8-/m1/s1
