18
gdb 77173	3.23852	1.06671	0.85998	3.2853	72.95	-0.2411	0.0068	0.2479	1338.114	0.148057	-439.089747	-439.081031	-439.080087	-439.123779	32.009	
N	 0.0240722123	 1.2424341379	 0.3961922269	-0.515973
C	 0.0342883882	-0.1144769126	-0.0992825994	-0.188326
C	-1.3207679583	-0.8525202418	-0.2338775487	 0.140112
O	-1.0061631456	-1.1509198798	-1.6485376307	-0.263905
C	 0.152323798	-0.4188440219	-1.608800179	 0.417845
O	 0.8783243444	-0.1501150565	-2.5129757796	-0.329679
C	-1.5730315735	-2.0815227597	 0.5736466196	 0.003549
C	-2.3708801095	-1.9686184184	 1.8526929946	-0.268876
C	-2.9639034674	-2.6614528821	 0.6561062464	-0.268362
H	 0.97247257	 1.5955423542	 0.4715279933	 0.247033
H	-0.4620158133	 1.8580892727	-0.2496025042	 0.239594
H	 0.7576046145	-0.7007969329	 0.47544841	 0.117889
H	-2.1742547388	-0.1669242122	-0.1966350962	 0.089538
H	-0.7489762587	-2.7898832412	 0.5718701576	 0.091626
H	-2.0549812375	-2.568708342	 2.6980302331	 0.120839
H	-2.7587309267	-0.9924113916	 2.1234051603	 0.123858
H	-3.7544334865	-2.1546911579	 0.1128994178	 0.121403
H	-3.0601780515	-3.7407266043	 0.6769948282	 0.121836
70.6365	80.9554	153.1109	196.699	226.9033	270.4916	341.8294	383.2277	411.9714	563.6909	708.312	740.9588	780.6225	816.6216	834.4061	880.0896	906.2222	929.5938	946.261	956.6369	1035.8867	1064.2153	1081.8337	1120.0268	1132.7262	1148.2795	1179.8427	1195.9002	1218.2216	1225.9134	1243.3629	1294.1314	1327.63	1422.2295	1449.5702	1471.083	1506.8867	1667.4835	1927.8237	3054.8731	3075.3806	3136.7649	3140.288	3146.5223	3216.0103	3230.446	3498.2167	3578.5477
NC1C(OC1=O)C1CC1	N[C@H]1[C@@H](OC1=O)C1CC1	
InChI=1S/C6H9NO2/c7-4-5(3-1-2-3)9-6(4)8/h3-5H,1-2,7H2	InChI=1S/C6H9NO2/c7-4-5(3-1-2-3)9-6(4)8/h3-5H,1-2,7H2/t4-,5-/m0/s1
