15
gdb 124324	4.51018	1.10234	0.89153	1.6833	71.85	-0.2234	-0.0559	0.1674	1239.2354	0.112764	-450.152932	-450.14453	-450.143586	-450.186311	30.319	
C	-0.1263887507	 1.5019529881	 0.019191569	-0.485893
C	 0.0668671767	 0.0085794876	 0.0061301062	 0.433988
O	 1.1275893332	-0.5618434287	 0.0065665458	-0.304776
N	-1.1293865041	-0.7588919558	-0.0088937528	-0.003575
C	-1.2346577552	-2.1276494254	-0.0310072765	-0.165047
C	-2.5873432705	-2.3506350237	-0.0313218126	 0.327351
N	-3.3200147097	-3.522342788	-0.1107507449	-0.588796
N	-3.231766776	-1.1340206487	-0.0097261358	-0.238167
N	-2.3553859194	-0.1829554185	 0.0008657999	-0.137934
H	 0.8571048791	 1.9699359763	 0.0381725204	 0.148077
H	-0.6852847845	 1.8229814809	-0.8633565292	 0.167733
H	-0.7125814343	 1.8057107875	 0.8898492178	 0.167162
H	-0.3664130908	-2.7601764918	-0.0466397468	 0.162472
H	-2.9023174414	-4.3169563032	 0.3509711297	 0.255633
H	-4.2807440423	-3.3873271064	 0.1739065897	 0.26177
79.5116	114.2258	133.5939	185.8218	254.6657	342.8581	352.4155	414.1682	527.7186	582.1127	618.5361	641.6407	676.4283	730.7549	755.7859	782.9476	956.8881	1017.2762	1040.5899	1059.0914	1083.5658	1107.9152	1221.4272	1286.0576	1303.0724	1392.5501	1412.8923	1457.3098	1468.1597	1469.3214	1625.3047	1665.9568	1827.2265	3065.9758	3133.7923	3173.175	3314.6126	3561.3682	3661.1759
CC(=O)N1C=C(N)N=N1	CC(=O)n1cc(N)nn1	
InChI=1S/C4H6N4O/c1-3(9)8-2-4(5)6-7-8/h2H,5H2,1H3	InChI=1S/C4H6N4O/c1-3(9)8-2-4(5)6-7-8/h2H,5H2,1H3
