19
gdb 100986	2.46415	1.06572	1.00841	3.4631	67.75	-0.2474	0.0551	0.3026	1288.5699	0.156585	-497.261381	-497.251391	-497.250447	-497.296166	37.296	
O	-0.1348008349	 1.4667563141	 0.0936317765	-0.428925
C	-0.1898640148	 0.0965761531	 0.4288739076	-0.068234
C	-1.4168281395	-0.5654619941	-0.2094028586	 0.034931
O	-1.4183377511	-0.2693815679	-1.609243795	-0.450719
C	-1.4578899632	-2.0697211814	 0.0036379497	 0.354128
O	-0.5665615234	-2.7689421372	-0.8368301232	-0.475166
C	-1.6211828617	-2.6402207805	 1.391425995	-0.363055
C	-2.7358055749	-2.7678550127	 0.3736308339	 0.021523
O	-3.8860962429	-1.9896939485	 0.49568941	-0.412965
H	-0.4051477873	 1.509928554	-0.8331721931	 0.283756
H	 0.7174500383	-0.4408553848	 0.1010988276	 0.0848
H	-0.2379599659	 0.0244245293	 1.520333072	 0.103077
H	-2.328960465	-0.114102952	 0.1883226061	 0.115291
H	-0.6844770531	-0.7780769413	-1.9797081266	 0.276443
H	-1.0541491118	-3.0186703198	-1.6297853862	 0.289761
H	-1.0440097782	-3.5246756445	 1.6346553763	 0.127314
H	-1.774372686	-1.9385863093	 2.2049416499	 0.123535
H	-2.8831127527	-3.7541040404	-0.0694209899	 0.090758
H	-4.3679312117	-2.2849097263	 1.2753880379	 0.293747
60.7555	112.1343	152.0967	209.6835	220.0042	245.4694	279.8324	317.4234	321.9051	415.5169	459.1453	468.4486	482.2059	529.0459	574.1897	608.9961	805.2962	841.958	882.4582	920.1822	943.8257	980.3428	1036.9293	1067.2784	1080.2889	1096.7123	1102.5961	1174.8202	1197.6605	1233.5966	1262.6534	1294.0972	1300.7054	1329.5719	1352.5874	1381.8812	1411.7767	1435.0106	1442.9238	1482.6487	1510.8514	2953.9916	3070.7363	3089.1262	3101.0289	3135.5872	3231.722	3756.5602	3763.0168	3798.3779	3807.428
OCC(O)C1(O)CC1O	OC[C@@H](O)[C@@]1(O)C[C@H]1O	
InChI=1S/C5H10O4/c6-2-4(8)5(9)1-3(5)7/h3-4,6-9H,1-2H2	InChI=1S/C5H10O4/c6-2-4(8)5(9)1-3(5)7/h3-4,6-9H,1-2H2/t3-,4-,5-/m1/s1
