16
gdb 6681	6.82017	0.82467	0.77706	4.5672	62.92	-0.2439	-0.0205	0.2234	1397.0702	0.12936	-417.106056	-417.096856	-417.095912	-417.141257	31.368	
N	-0.033733339	 1.2351102397	-0.1987135072	-0.562883
C	-0.2883316642	-0.1262847034	-0.3010823404	 0.450081
O	 0.1250162036	-0.810884467	-1.2204175531	-0.391905
N	-1.0254381847	-0.6461686547	 0.7393482437	-0.333879
C	-1.1924538054	-2.0884513505	 0.8440079405	-0.163731
C	-2.2901626376	-2.6165471316	-0.0995339695	-0.259624
C	-2.3604545915	-4.1243288162	-0.0914731242	 0.153903
O	-3.3455947922	-4.7691064611	 0.1633676347	-0.239356
H	 0.3063000764	 1.6284207513	-1.0632581471	 0.263258
H	-0.7203083498	 1.8081147238	 0.2687439792	 0.248523
H	-1.0951615283	-0.109336765	 1.5877602195	 0.245353
H	-0.2436246166	-2.584230991	 0.6085526271	 0.132904
H	-1.4470706678	-2.318926755	 1.8823274629	 0.112903
H	-3.2701039507	-2.2078039913	 0.159604941	 0.11534
H	-2.0220920883	-2.2979203027	-1.1147796597	 0.151311
H	-1.3994402737	-4.6291967854	-0.3483907174	 0.077802
47.56	63.3104	79.4659	106.4103	243.4731	280.8152	310.8663	351.2827	420.1557	510.0128	524.0917	561.983	678.156	768.295	782.625	836.4839	942.4177	990.2884	1079.8835	1098.6061	1138.5877	1153.1974	1233.2957	1277.6112	1329.1328	1349.7867	1406.9034	1431.5488	1462.8924	1479.5027	1533.3232	1628.1355	1795.8411	1834.2308	2856.3148	3036.1237	3043.4154	3091.7122	3117.9798	3574.6046	3643.9679	3688.1265
NC(=O)NCCC=O	NC(=O)NCCC=O	
InChI=1S/C4H8N2O2/c5-4(8)6-2-1-3-7/h3H,1-2H2,(H3,5,6,8)	InChI=1S/C4H8N2O2/c5-4(8)6-2-1-3-7/h3H,1-2H2,(H3,5,6,8)
