21
gdb 96455	2.42166	1.64798	1.12433	2.3725	78.79	-0.2484	0.0803	0.3287	1146.5594	0.183521	-424.216778	-424.208377	-424.207433	-424.249693	32.701	
C	 0.4574236545	 1.5927956043	-0.0595052798	-0.398131
C	-0.0578272828	 0.1530684493	-0.0673038137	 0.078736
O	 0.468013379	-0.442572759	-1.231043653	-0.240702
C	-0.0721450814	-1.6911581677	-1.6192001513	-0.070679
C	 0.5958866007	-2.8783930159	-0.9260120197	-0.199171
C	 0.1577055209	-3.1102140431	 0.5219876892	-0.247546
C	 0.417353447	-1.9854997657	 1.4996975286	 0.052598
O	 1.5901434527	-1.1737930327	 1.3457149711	-0.251608
C	 0.3118941498	-0.5425538492	 1.2396451697	 0.058978
H	 1.5479739159	 1.5959536354	 0.0233205886	 0.139159
H	 0.1773075748	 2.0930440608	-0.9893682998	 0.122051
H	 0.040240611	 2.1541415718	 0.7814121243	 0.111534
H	-1.1628777465	 0.1662276538	-0.1205057536	 0.064829
H	-1.1636029213	-1.7068984053	-1.4575083441	 0.080869
H	 0.0996906908	-1.7585259634	-2.6990804497	 0.104517
H	 0.3749514186	-3.7861004435	-1.5012505618	 0.091421
H	 1.6787523168	-2.7240594068	-0.9674065413	 0.125646
H	-0.9184497717	-3.3339471894	 0.5571113614	 0.102743
H	 0.6604446084	-4.0075081775	 0.9049875521	 0.10765
H	 0.2396168818	-2.2831732895	 2.5369865497	 0.083302
H	 0.0553465709	 0.0766730733	 2.104952513	 0.083805
69.0342	178.2239	208.4384	242.3149	273.1427	292.6636	357.7289	399.1291	429.3283	534.4376	612.1712	658.2027	728.8794	789.74	830.0661	868.2669	886.8834	951.3885	977.9661	989.6627	1016.9513	1061.6492	1086.8124	1103.5772	1147.7687	1158.6549	1167.3601	1185.6558	1234.7764	1279.5833	1292.7757	1323.776	1340.6454	1373.411	1386.6679	1397.3558	1403.6173	1410.3928	1426.3929	1463.6469	1478.7694	1485.4285	1494.7041	1501.9351	1502.5685	2926.1289	2962.9418	3007.6235	3031.012	3044.7134	3046.2546	3054.9642	3063.8862	3071.1136	3091.4464	3122.877	3130.993
CC1OCCCC2OC12	C[C@H]1OCCC[C@H]2O[C@@H]12	
InChI=1S/C7H12O2/c1-5-7-6(9-7)3-2-4-8-5/h5-7H,2-4H2,1H3	InChI=1S/C7H12O2/c1-5-7-6(9-7)3-2-4-8-5/h5-7H,2-4H2,1H3/t5-,6-,7+/m1/s1
