13
gdb 129915	2.05915	1.98684	1.01363	4.9726	74.61	-0.1858	-0.0661	0.1197	1064.3569	0.089716	-448.939063	-448.930868	-448.929924	-448.971906	29.647	
N	 0.2979724169	 1.2751456289	 0.1721319102	-0.612447
C	 0.0784028529	-0.1025109713	 0.0224729018	 0.143047
C	-1.0738211922	-0.810969179	-0.0091655756	-0.117077
N	-0.7972029558	-2.1917039499	-0.0277242155	-0.353308
C	 0.5590953654	-2.4620240883	-0.0500407545	 0.365328
C	 1.1467600475	-1.093476439	 0.0008041883	 0.204198
N	 2.4239390024	-0.8768522622	 0.0740917865	 0.101483
N	 3.5403754073	-0.6883602155	 0.1321030751	-0.224099
O	 1.101030299	-3.5471783378	-0.0973538081	-0.394821
H	 0.8859766423	 1.6617101611	-0.5594648218	 0.248572
H	-0.571553393	 1.7939396941	 0.1932446122	 0.248126
H	-2.09152464	-0.4552158979	 0.0012497747	 0.125381
H	-1.4822785126	-2.9233854731	-0.1008037332	 0.265617
106.8314	129.4209	175.4394	219.3344	240.9179	302.5525	436.3697	440.9958	526.7668	530.8479	557.1164	624.3749	698.9359	705.1705	739.4077	761.0047	800.5386	1045.9417	1073.1016	1148.7372	1169.4368	1335.4742	1342.2294	1395.1781	1469.2215	1642.374	1685.0406	1808.9871	2217.0398	3262.4704	3502.5533	3601.2852	3685.5433
NC1=CNC2=C1N=NO2	NC1=C(C(=O)N[CH]1)[N][N]	
InChI=1S/C4H4N4O/c5-2-1-6-4-3(2)7-8-9-4/h1,6H,5H2	InChI=1S/C4H4N4O/c5-2-1-7-4(9)3(2)8-6/h1H,(H3,5,7,8,9)
