20
gdb 30238	4.4276	1.07943	0.91991	1.8221	89.37	-0.1912	0.0555	0.2468	1334.9637	0.171721	-366.026261	-366.017441	-366.016496	-366.060158	32.842	
C	-0.3940543325	 1.5198966672	-0.1244370924	-0.394806
C	-0.0403616646	 0.0466499891	 0.0494483371	-0.148836
C	 1.0359527376	-0.5479822412	-0.949423793	-0.188728
N	 1.879208068	-0.7836025409	 0.2302568089	 0.020526
C	 2.94418703	-1.3674732918	 0.8602818372	-0.25449
C	 2.7016581761	-1.2310013515	 2.2217064609	 0.302039
C	 3.6272802895	-1.6701899615	 3.3190207108	-0.491092
C	 1.4316117004	-0.5807126577	 2.4016547143	-0.461486
C	 0.967997882	-0.3280281713	 1.1310865811	 0.37102
H	 0.5087259285	 2.1370008362	-0.1725972975	 0.123146
H	-0.9726565575	 1.6807615543	-1.040695285	 0.113613
H	-0.9965058535	 1.8738487703	 0.7181002839	 0.125511
H	-0.952538694	-0.5597475688	 0.0690797206	 0.090454
H	 0.7330846072	-1.4616638479	-1.4701919589	 0.120919
H	 1.4589291705	 0.162788527	-1.6668173888	 0.116692
H	 3.7880744186	-1.7887062035	 0.3377991522	 0.11204
H	 4.0104096217	-0.8208295349	 3.8977950945	 0.120948
H	 3.1259990262	-2.3387227567	 4.0288981607	 0.119943
H	 4.4907054919	-2.2072198324	 2.9149256093	 0.114528
H	 0.9641931141	-0.350176484	 3.346777224	 0.088061
54.6116	101.9943	131.1991	209.7177	235.2934	253.1699	319.8113	417.304	500.5973	567.26	628.1548	677.1766	701.1876	748.5101	773.2372	802.247	853.8182	915.724	973.6243	999.5418	1025.9115	1059.4514	1082.7925	1102.6012	1133.8363	1141.5968	1172.4845	1207.5289	1232.8908	1268.9488	1340.9937	1356.9675	1406.8371	1408.8559	1424.3629	1442.0318	1482.718	1488.229	1494.2073	1499.0928	1504.1197	1536.7092	1591.1541	3020.0602	3031.3407	3039.2895	3044.5797	3066.8455	3091.9982	3100.346	3100.4478	3109.489	3244.9983	3258.8456
CC1CN2C=C(C)C=C12	C[C@H]1Cn2cc(C)cc12	
InChI=1S/C8H11N/c1-6-3-8-7(2)5-9(8)4-6/h3-4,7H,5H2,1-2H3	InChI=1S/C8H11N/c1-6-3-8-7(2)5-9(8)4-6/h3-4,7H,5H2,1-2H3/t7-/m0/s1
