18
gdb 96914	4.56075	0.89875	0.85458	3.1154	76.97	-0.2387	0.0328	0.2715	1403.1001	0.145461	-439.054308	-439.045126	-439.044182	-439.08868	33.441	
C	-0.1159470354	 1.4878302423	-0.4424793424	-0.339914
N	-0.0628327531	 0.0328034144	-0.4252333652	-0.326356
C	-0.9958129283	-0.6074312227	 0.1009206307	 0.450902
C	-1.3130310404	-2.0732422705	 0.3204854233	-0.453384
C	-2.5645484594	-1.5177115375	 0.9842145454	 0.437482
C	-3.9893060447	-1.9637077274	 0.9381095955	-0.399719
C	-3.2144176558	-1.9180121582	 2.2547887801	 0.016288
O	-2.7476203296	-3.0966510122	 2.8366391818	-0.417859
O	-2.1675610724	-0.1575278705	 0.7176417239	-0.287818
H	 0.7685189522	 1.883391431	 0.0688534475	 0.127833
H	-0.0657673028	 1.834813769	-1.4804100722	 0.127074
H	-1.011970503	 1.9103616655	 0.0270200981	 0.125217
H	-1.4679058705	-2.6498715408	-0.5932618071	 0.135998
H	-0.6285144146	-2.6048763855	 0.9832207794	 0.151346
H	-4.7570799945	-1.2129517784	 0.7839102252	 0.130729
H	-4.1902397143	-2.9368095472	 0.5007561572	 0.125021
H	-3.4789284523	-1.1153283004	 2.9435069489	 0.104095
H	-3.497912161	-3.5579767809	 3.2265752499	 0.293067
70.4705	74.4969	139.7902	181.4461	229.3525	244.5389	300.7786	381.142	439.3668	469.4847	499.0284	560.8777	595.1798	769.0044	818.2405	882.6859	900.2425	948.3386	993.0424	1010.1777	1039.2444	1042.5611	1071.1897	1096.9168	1132.4366	1144.2364	1167.6356	1175.2265	1221.3574	1249.3037	1294.5359	1350.2059	1418.5607	1440.7602	1467.0168	1494.1816	1496.9076	1509.5483	1858.4009	3017.3748	3083.4343	3085.7883	3087.3041	3105.3531	3127.7299	3140.4103	3222.3366	3802.4033
CN=C1CC2(CC2O)O1	CN=C1C[C@]2(C[C@H]2O)O1	
InChI=1S/C6H9NO2/c1-7-5-3-6(9-5)2-4(6)8/h4,8H,2-3H2,1H3	InChI=1S/C6H9NO2/c1-7-5-3-6(9-5)2-4(6)8/h4,8H,2-3H2,1H3/t4-,6+/m1/s1
