17
gdb 17307	2.8341	2.42058	1.74305	3.5258	67.64	-0.2118	0.0671	0.2789	815.2211	0.142279	-363.772276	-363.765263	-363.764319	-363.802938	28.301	
C	-0.0175012641	 1.5229157654	 0.0029042065	-0.493538
C	-0.0149791597	 0.0215735291	 0.0114992024	 0.261568
C	-0.9004366356	-0.8416925639	 0.8775989707	 0.090732
O	-1.8071994034	-1.8145680921	 0.4966119499	-0.429417
C	 0.5986438535	-0.972022659	 1.0474111444	-0.186394
C	 1.3074575271	-1.6959909296	-0.1205052536	-0.040635
N	 0.2858377702	-2.2064105704	-1.0850038127	-0.370461
C	 0.716294015	-0.7771352167	-1.1071568727	-0.106984
H	 0.9855422208	 1.9309274911	-0.1745325827	 0.114036
H	-0.6779271451	 1.9136790958	-0.7815604499	 0.123645
H	-0.3713760235	 1.9182149037	 0.9602721738	 0.122556
H	-1.3245286188	-0.2526071107	 1.6907286287	 0.098519
H	-1.3572622838	-2.3026081166	-0.2156654474	 0.298023
H	 1.1086865535	-0.7461463213	 1.9769366046	 0.085046
H	 2.2908839445	-2.1452775275	-0.0797424255	 0.101035
H	 0.7831032168	-2.6871644746	-1.8334220406	 0.234968
H	 1.1329370126	-0.3423718227	-2.0069854358	 0.097301
196.0871	209.8045	251.8981	290.3825	294.0349	456.442	515.5066	596.4675	669.078	679.122	727.589	747.3012	819.0823	831.5029	884.3861	900.4014	917.2388	940.318	986.2742	1005.288	1062.1652	1100.5739	1108.3694	1128.2232	1167.1338	1219.3908	1231.9848	1270.3126	1311.0282	1330.3906	1338.434	1413.4767	1434.8381	1482.7855	1496.5179	1505.2614	3012.6401	3066.5347	3096.492	3114.7316	3173.2534	3189.221	3205.4086	3477.4402	3598.4586
CC12C(O)C1C1NC21	C[C@]12[C@@H](O)[C@H]1[C@H]1N[C@@H]21	
InChI=1S/C6H9NO/c1-6-2(5(6)8)3-4(6)7-3/h2-5,7-8H,1H3	InChI=1S/C6H9NO/c1-6-2(5(6)8)3-4(6)7-3/h2-5,7-8H,1H3/t2-,3-,4-,5+,6+/m1/s1
