23
gdb 93857	1.92795	1.64788	1.39989	1.3997	84.72	-0.2564	0.0733	0.3297	1128.5008	0.206419	-388.293319	-388.284098	-388.283154	-388.326985	36.238	
C	 0.5818974808	 1.679371782	-0.0380989052	-0.393724
C	 0.092220706	 0.2309566642	 0.1099989061	-0.075436
C	 0.5332932504	-0.6732948767	-1.0620921232	-0.212552
C	 1.9677046955	-1.1315326166	-0.7000856274	-0.240464
C	 2.0929276357	-0.9954740865	 0.8460231281	 0.02834
O	 3.0814134195	-0.0354492663	 1.2307454514	-0.431653
C	 0.7271742227	-0.4893247842	 1.2994814396	 0.431921
C	 0.4882743499	-0.0985730714	 2.7272647826	-0.324214
C	-0.1176364408	-1.3720154088	 2.1907907132	-0.34024
H	 1.6728339731	 1.7257764607	-0.0903687932	 0.131526
H	 0.1677047416	 2.1401408699	-0.9415990851	 0.100367
H	 0.2722438969	 2.2850469251	 0.8197305537	 0.110095
H	-0.9998964908	 0.2396985606	 0.2031756046	 0.058667
H	-0.1294771241	-1.5436085345	-1.1169225109	 0.096361
H	 0.4849701449	-0.1681849334	-2.0314995081	 0.090311
H	 2.1687329048	-2.1508491885	-1.0421332808	 0.094505
H	 2.7170732903	-0.4819179373	-1.163294881	 0.09954
H	 2.328452709	-1.9605263915	 1.316965259	 0.058669
H	 3.9307062318	-0.3410127606	 0.895442781	 0.278294
H	 1.3241433474	-0.170334745	 3.4139681526	 0.119836
H	-0.174537161	 0.7385769213	 2.9210810687	 0.107568
H	-1.1885205628	-1.3951406168	 2.0146594107	 0.106167
H	 0.2980303491	-2.3178726458	 2.5240039834	 0.106115
57.6641	136.4249	202.7652	228.6763	233.7221	274.5695	306.863	352.1592	398.5855	420.0061	538.3772	563.589	635.75	761.8416	780.4628	811.2536	845.4151	891.6366	929.1377	938.104	944.9784	962.9035	976.9788	1006.8779	1050.1675	1051.5819	1064.7555	1077.644	1103.0055	1133.8487	1187.8816	1199.8673	1212.7378	1226.1528	1277.7679	1293.8728	1303.142	1317.821	1340.4667	1360.6329	1382.2077	1410.8935	1435.7925	1469.4717	1480.184	1492.4493	1501.8264	1504.1397	1508.9498	2987.9847	3029.0241	3033.3948	3043.7376	3051.3664	3080.0727	3095.6872	3098.3618	3119.4049	3121.9556	3132.5767	3199.4712	3219.2807	3808.9323
CC1CCC(O)C11CC1	C[C@H]1CC[C@@H](O)C21CC2	
InChI=1S/C8H14O/c1-6-2-3-7(9)8(6)4-5-8/h6-7,9H,2-5H2,1H3	InChI=1S/C8H14O/c1-6-2-3-7(9)8(6)4-5-8/h6-7,9H,2-5H2,1H3/t6-,7+/m0/s1
