17
gdb 40385	4.45121	1.20112	1.12151	4.3526	71.9	-0.2115	0.0564	0.2679	1101.6793	0.136401	-417.86635	-417.859075	-417.858131	-417.898252	28.738	
C	 0.4632253479	 1.5035828772	 0.1561984332	-0.233105
N	 1.2170637497	 0.3023389657	-0.2445117278	-0.321566
C	-0.2231189683	 0.1870543098	 0.0389560846	-0.186549
C	-0.5778374495	-0.6152371449	 1.2326312529	 0.366639
N	 0.3827758507	-0.890947832	 2.3178847584	-0.360629
C	-0.2600977242	-2.0171188899	 1.5981510594	-0.173357
C	-1.7127505482	-2.1931351917	 2.1716842766	 0.024107
O	-1.9417366588	-1.2124554048	 3.1836716377	-0.211644
C	-2.0338999486	-0.811792609	 1.8187897477	-0.043702
H	 0.7138852655	 1.8857462725	 1.1410027379	 0.136228
H	 0.2527389774	 2.2614111152	-0.5932740767	 0.11704
H	 1.3810336698	 0.302425607	-1.2469835749	 0.238045
H	-0.8940994528	 0.0681004209	-0.8108299271	 0.08816
H	 1.3003901439	-0.7750315372	 1.879262413	 0.246897
H	 0.3141248943	-2.7606201879	 1.061599566	 0.100934
H	-2.3135447374	-3.0940874566	 2.183712289	 0.108445
H	-2.9493190814	-0.3407910544	 1.4796913902	 0.104057
87.0013	152.1681	187.2772	331.4206	369.7897	421.8772	504.4098	619.683	683.5774	762.7345	811.7237	816.8756	840.4525	867.1431	875.2214	893.8297	913.7837	938.1443	953.358	984.4342	988.3096	1021.4739	1033.6339	1114.4142	1122.505	1133.7473	1180.308	1202.7567	1220.6665	1239.0065	1272.1756	1291.8471	1315.0466	1360.3698	1400.757	1477.343	1511.5675	3111.3014	3116.6791	3179.711	3196.7824	3206.3451	3208.4276	3437.6023	3515.3704
C1NC1C12NC1C1OC21	C1N[C@H]1[C@]12N[C@H]1[C@H]1O[C@@H]21	
InChI=1S/C6H8N2O/c1-2(7-1)6-4(8-6)3-5(6)9-3/h2-5,7-8H,1H2	InChI=1S/C6H8N2O/c1-2(7-1)6-4(8-6)3-5(6)9-3/h2-5,7-8H,1H2/t2-,3-,4+,5-,6+/m1/s1
