18
gdb 14152	4.43227	1.49178	1.30224	2.4916	67.51	-0.2455	0.081	0.3266	985.7096	0.153789	-384.928827	-384.921116	-384.920171	-384.961059	28.777	
C	-0.0817510444	 1.5275913843	-0.0901390406	-0.421089
C	-0.0270315664	 0.0319946615	 0.0845098401	-0.004323
O	 1.2501132491	-0.6024582741	-0.0875866187	-0.290923
C	 0.6406035013	-0.6390136777	 1.2063916617	 0.395971
C	 1.3694228549	 0.0408932714	 2.3673097058	-0.321366
C	 1.1439530569	-0.9478938609	 3.5250976278	-0.083278
O	 0.9779723249	-2.2202764674	 2.9116297471	-0.243512
C	 0.2000500829	-2.0001859138	 1.7467464941	-0.152707
H	 0.7648834357	 2.0146521347	 0.3990626185	 0.128627
H	-0.0560445548	 1.7873037677	-1.1534949781	 0.13166
H	-1.0102412232	 1.9302084562	 0.3297406383	 0.121521
H	-0.8461048985	-0.5098390602	-0.396372831	 0.084857
H	 2.4304115631	 0.1199330601	 2.1151171064	 0.128968
H	 0.9945945774	 1.0429561367	 2.5894369035	 0.107835
H	 1.9852373736	-1.0161122655	 4.2182822038	 0.114701
H	 0.2420977561	-0.6762647757	 4.0989094127	 0.088984
H	-0.8753975279	-1.9879083274	 1.994341023	 0.08882
H	 0.3918640992	-2.8040648699	 1.0322562757	 0.125255
64.031	168.9106	193.3319	220.5671	267.881	379.3067	432.3957	466.8948	529.5059	655.4918	758.5847	778.6728	872.6734	903.3587	949.471	964.1277	977.3104	1023.4887	1029.2689	1100.8305	1111.4384	1135.9642	1165.3371	1210.6395	1223.0562	1231.2098	1269.6168	1296.7097	1329.866	1360.2223	1402.2179	1409.91	1470.7572	1483.1955	1490.8923	1497.551	1516.7435	1519.803	2955.4376	2966.6719	3037.3089	3065.3904	3069.2155	3099.7788	3100.9242	3104.1228	3115.6964	3129.6302
CC1OC11CCOC1	C[C@H]1O[C@]21CCOC2	
InChI=1S/C6H10O2/c1-5-6(8-5)2-3-7-4-6/h5H,2-4H2,1H3	InChI=1S/C6H10O2/c1-5-6(8-5)2-3-7-4-6/h5H,2-4H2,1H3/t5-,6-/m1/s1
