21
gdb 100343	2.50542	1.14796	0.97185	1.934	74.9	-0.2537	-0.045	0.2087	1290.9562	0.179786	-461.36459	-461.353982	-461.353037	-461.399948	38.55	
C	-0.0474601695	 1.5746591575	 0.1297535028	-0.429649
C	-0.0213029942	 0.0413977348	 0.0527119004	 0.207542
C	 0.663826219	-0.5219927102	 1.3198345318	-0.092424
O	 0.8935240736	-1.9163153665	 1.2624248695	-0.441405
C	-1.4648919369	-0.5099922485	-0.0401218543	-0.08582
O	-2.3061680603	-0.0626040501	 1.0108404617	-0.427042
C	 0.7099814999	-0.4539238479	-1.2345426316	-0.312988
C	 2.2071285847	-0.2650631927	-1.1998427449	 0.138215
O	 2.9546549041	-0.9824963703	-0.5717170469	-0.249825
H	 0.9590022261	 1.994515378	 0.233515828	 0.110073
H	-0.5023880781	 2.0072148976	-0.7680000803	 0.112967
H	-0.6433048737	 1.8964151293	 0.9875381888	 0.138878
H	 1.5960573416	 0.0255608169	 1.5128734916	 0.097356
H	 0.0101070402	-0.3349608382	 2.1798905939	 0.094519
H	 1.697745051	-2.0302080725	 0.7361646426	 0.294198
H	-1.9280993588	-0.1607586677	-0.9706957135	 0.101054
H	-1.4212864063	-1.6062777139	-0.0729988596	 0.109588
H	-2.1663419409	-0.6357668901	 1.7698707235	 0.293721
H	 0.5271756168	-1.5285396616	-1.3438451839	 0.135226
H	 0.2923797017	 0.0597147561	-2.1068757503	 0.108579
H	 2.6212777499	 0.5845458203	-1.7830843792	 0.097239
75.0943	107.9909	138.6997	172.2442	181.0236	217.0781	245.0412	265.2537	289.0482	324.7361	356.1506	363.7819	510.7011	542.1129	560.9489	610.6082	742.1268	864.576	892.6914	904.3652	944.3724	986.7214	1012.0654	1032.0405	1072.7039	1089.0842	1147.7722	1160.9634	1205.458	1228.5153	1255.6916	1304.6797	1332.4378	1392.4799	1398.5374	1409.7673	1424.7931	1425.7921	1442.7732	1476.8089	1488.2405	1499.0375	1501.5951	1514.233	1796.4228	2907.1942	3011.2657	3015.7252	3031.6709	3040.8222	3059.9111	3066.5292	3092.1511	3095.3995	3122.4895	3730.1265	3836.2356
CC(CO)(CO)CC=O	CC(CO)(CO)CC=O	
InChI=1S/C6H12O3/c1-6(4-8,5-9)2-3-7/h3,8-9H,2,4-5H2,1H3	InChI=1S/C6H12O3/c1-6(4-8,5-9)2-3-7/h3,8-9H,2,4-5H2,1H3
