20
gdb 106384	3.39264	1.42498	1.25185	2.9436	77.9	-0.2268	0.0767	0.3035	1082.9773	0.171986	-403.08606	-403.078359	-403.077415	-403.118109	31.205	
C	 0.0671570542	 1.5389363641	 0.1501503247	-0.388189
C	 0.0187052501	 0.0206406013	-0.0448401452	-0.299919
C	 0.6649621042	-0.4633641866	-1.3170704407	 0.435613
C	 0.4347159862	 0.1148510823	-2.7536083211	-0.274393
C	 1.8726465831	-0.459229621	-2.8633114449	 0.052213
O	 2.0729397188	-0.1033427543	-1.4728625887	-0.296627
C	 1.6011888814	-1.9854069274	-2.7910650756	-0.058688
N	 2.0386320257	-2.584055699	-1.5091820265	-0.318095
C	 0.6872257874	-1.9900464628	-1.6303293123	-0.121095
H	 1.0971686534	 1.8998852375	 0.0901742159	 0.139571
H	-0.5180432657	 2.0599060877	-0.6144525	 0.113129
H	-0.3390732374	 1.8177640735	 1.1268000127	 0.110357
H	 0.5274852711	-0.4794432805	 0.7889191095	 0.120786
H	-1.0200246905	-0.3346141642	-0.0308515204	 0.097298
H	-0.3569049084	-0.3157074203	-3.3746039506	 0.088281
H	 0.4176192182	 1.2053192508	-2.7733971991	 0.108733
H	 2.6339933815	-0.0735405173	-3.5402392028	 0.082221
H	 1.4726574458	-2.5885615705	-3.6816890929	 0.092525
H	 1.9365377749	-3.5950515744	-1.5951711178	 0.227468
H	-0.2057015241	-2.5984017889	-1.546748384	 0.088811
85.6492	175.1335	201.378	281.7992	344.7191	393.6882	441.7297	515.3961	613.3762	674.5645	718.9469	758.0679	795.209	799.8194	859.7721	871.4801	902.4726	910.0078	927.7812	947.7043	978.2193	996.6277	1045.3605	1055.9107	1084.1833	1109.1799	1125.4446	1150.6666	1162.41	1208.1471	1226.8471	1244.7975	1270.4047	1292.4844	1323.5071	1329.9455	1380.0963	1401.0228	1409.9361	1469.7225	1484.0268	1498.4729	1508.9927	3022.9916	3041.926	3054.7562	3058.5512	3107.047	3124.8337	3128.0812	3139.1718	3178.0652	3190.1551	3472.3113
CCC12CC(O1)C1NC21	CC[C@@]12C[C@@H](O1)[C@H]1N[C@@H]21	
InChI=1S/C7H11NO/c1-2-7-3-4(9-7)5-6(7)8-5/h4-6,8H,2-3H2,1H3	InChI=1S/C7H11NO/c1-2-7-3-4(9-7)5-6(7)8-5/h4-6,8H,2-3H2,1H3/t4-,5-,6-,7+/m1/s1
