16
gdb 74030	2.87009	1.61873	1.0996	4.9852	74.56	-0.2385	-0.0383	0.2003	1066.7126	0.124601	-437.887206	-437.879306	-437.878361	-437.920031	29.16	
C	-0.0894534026	 1.4844805493	-0.0243697697	-0.499516
C	-0.0821670297	 0.0087164359	 0.1852964378	 0.034837
C	-1.0510893154	-0.9134266534	 0.2224884926	 0.147952
N	-2.2781759895	-1.2549952892	-0.4404271032	-0.375932
C	-1.6246100248	-2.56588858	-0.8179678107	-0.213149
C	-0.4988561984	-2.2809035994	 0.2543842258	 0.049313
O	 0.8896249075	-2.1533331063	 0.0673193087	-0.250555
C	 1.1893285153	-0.782580752	 0.1522681967	 0.390301
O	 2.3175776168	-0.389248488	 0.0916406663	-0.335399
H	 0.7158363812	 1.775683749	-0.7045009948	 0.150581
H	-1.0470327876	 1.8172486098	-0.4342813343	 0.132189
H	 0.0805734718	 2.020625666	 0.9168286676	 0.142194
H	-3.1029130661	-1.3480963	 0.1435711214	 0.248422
H	-2.2275309567	-3.4627058799	-0.6582860858	 0.12222
H	-1.2671073116	-2.5158387749	-1.8481952726	 0.144013
H	-0.6958857301	-2.8655571869	 1.1594548943	 0.112528
84.8624	115.3533	142.8492	224.3042	273.8132	358.8501	435.013	553.1093	559.1544	637.8502	692.0809	722.4431	763.4042	767.7663	860.0995	908.5892	949.1939	1015.0449	1033.7315	1058.9863	1104.1034	1115.5921	1138.6337	1171.1262	1227.0716	1258.2065	1311.4879	1329.1078	1368.7752	1412.2139	1474.1935	1487.7877	1492.1565	1739.5608	1869.1191	3033.8974	3051.4213	3067.9291	3091.8787	3124.9236	3137.6682	3530.306
CC1=C2NCC2OC1=O	C[C]1[C]2NC[C@H]2OC1=O	
InChI=1S/C6H7NO2/c1-3-5-4(2-7-5)9-6(3)8/h4,7H,2H2,1H3	InChI=1S/C6H7NO2/c1-3-5-4(2-7-5)9-6(3)8/h4,7H,2H2,1H3/t4-/m1/s1
