21
gdb 122330	5.11795	0.64575	0.61271	1.4861	83.05	-0.2272	0.0198	0.2471	1861.3064	0.181599	-424.216167	-424.206328	-424.205384	-424.252405	34.133	
C	 0.0397856021	 1.3718067146	 0.1458579275	-0.229597
O	 0.0031000426	-0.0231421004	-0.0353082797	-0.227424
C	-1.2994004923	-0.5543087945	 0.049312953	-0.04669
C	-1.2075798056	-2.0668434501	-0.1725388956	-0.32657
C	-2.5347179303	-2.7572272115	-0.1012075038	 0.301968
C	-3.2024333678	-3.3730682932	-1.0738760877	-0.210944
C	-4.4870718017	-3.9438845472	-0.5493553107	-0.101581
O	-4.5133716384	-3.5944264072	 0.8329494855	-0.264602
C	-3.3366891679	-2.8726169607	 1.1748031817	-0.148641
H	 1.0832274023	 1.6855442603	 0.0633165763	 0.127949
H	-0.5517000152	 1.899888695	-0.6190488379	 0.104253
H	-0.3425365294	 1.6663944459	 1.1363152186	 0.103893
H	-1.7425005993	-0.3296356347	 1.0345033021	 0.087947
H	-1.9569662796	-0.1001394952	-0.7113085412	 0.091061
H	-0.7428448361	-2.2439062409	-1.1473267117	 0.115444
H	-0.5258558064	-2.474384327	 0.5855677694	 0.115661
H	-2.88506851	-3.4762877863	-2.1044578296	 0.098774
H	-5.3743680941	-3.5292906419	-1.0545335213	 0.102951
H	-4.5378975235	-5.0393097478	-0.6603740268	 0.103129
H	-2.7774951627	-3.4074411807	 1.9611034976	 0.101288
H	-3.6137219967	-1.8916411264	 1.5934721443	 0.101731
49.6603	76.007	88.9924	112.3616	116.8712	233.4339	243.897	293.2323	331.0972	412.6926	512.784	672.8296	778.0352	797.8371	829.1506	909.1084	927.9509	968.4747	993.0157	1019.5501	1051.656	1061.9707	1080.222	1114.4159	1162.499	1172.9631	1181.5531	1208.0127	1223.809	1226.4213	1233.7557	1293.3871	1316.4898	1324.2574	1371.2576	1397.3813	1420.5983	1481.3342	1486.0199	1487.0004	1505.2268	1516.2011	1529.0416	1533.334	1729.8519	2950.7945	2958.5394	2968.7789	2970.6801	2975.1015	2980.968	2983.3057	3012.3311	3026.8686	3086.8938	3114.1116	3208.8152
COCCC1=CCOC1	COCCC1=CCOC1	
InChI=1S/C7H12O2/c1-8-4-2-7-3-5-9-6-7/h3H,2,4-6H2,1H3	InChI=1S/C7H12O2/c1-8-4-2-7-3-5-9-6-7/h3H,2,4-6H2,1H3
