16
gdb 28597	4.0467	1.12197	0.93873	2.8174	73.95	-0.2014	0.0161	0.2175	1221.6707	0.126782	-434.073337	-434.065535	-434.064591	-434.106078	29.32	
N	 0.2258684014	 1.2619180655	-0.1714842641	-0.587769
C	-0.0013823345	-0.0857096687	-0.0496999684	 0.450327
N	-1.0606049441	-0.682797317	 0.3967230221	-0.334556
C	-0.7014608888	-2.0310914281	 0.3913018555	-0.210865
C	 0.5571217729	-2.1803652475	-0.078537952	 0.342786
O	 1.030823048	-0.903459707	-0.3677546263	-0.229533
C	 1.450268935	-3.3135490172	-0.3169192541	-0.108393
C	 2.5070025001	-3.2616919995	-1.3655480167	-0.242135
N	 2.8825773905	-3.2503368356	 0.0556930316	-0.324188
H	 0.848410364	 1.5223863501	-0.922549251	 0.264055
H	-0.6271539767	 1.8013306879	-0.1524562563	 0.272852
H	-1.3850517318	-2.797235478	 0.7214627871	 0.122602
H	 0.9846892016	-4.2698225703	-0.0954120119	 0.103551
H	 2.7726535719	-4.1669277718	-1.904520246	 0.122392
H	 2.5981417019	-2.3429506036	-1.9374999604	 0.119873
H	 3.1064425886	-2.298423879	 0.3382933508	 0.239
71.557	138.5224	152.9802	273.7191	302.3978	380.5556	436.6445	464.3553	607.4928	632.854	675.9626	745.1472	767.4645	807.7472	850.7468	877.114	961.8353	977.5175	979.5484	1011.9486	1086.0136	1097.2319	1135.3329	1167.9637	1196.9445	1239.0639	1269.8379	1278.3573	1298.168	1390.3545	1440.2417	1505.6176	1603.7001	1661.699	1683.6619	3112.3275	3151.6415	3201.5539	3262.9781	3497.727	3573.1561	3681.029
NC1=NC=C(O1)C1CN1	Nc1ncc(o1)[C@H]1CN1	
InChI=1S/C5H7N3O/c6-5-8-2-4(9-5)3-1-7-3/h2-3,7H,1H2,(H2,6,8)	InChI=1S/C5H7N3O/c6-5-8-2-4(9-5)3-1-7-3/h2-3,7H,1H2,(H2,6,8)/t3-/m1/s1
