21
gdb 53598	4.97627	0.71804	0.6771	0.3639	91.2	-0.2352	0.0652	0.3004	1734.6288	0.181882	-349.904062	-349.89448	-349.893536	-349.940971	34.697	
C	-0.0211397278	 1.4434031439	-0.1581035725	-0.49626
C	-0.008373586	-0.0026059608	 0.0145546329	 0.073427
C	 0.0147848531	-1.1979116605	 0.1613696267	 0.053175
C	 0.0003929938	-2.6482692299	 0.3259313426	-0.371662
C	-1.3796387136	-3.2638477827	 0.0469911122	 0.036676
C	-1.9535368335	-3.2328927859	-1.411363002	-0.245262
C	-2.130185186	-4.7560926221	-1.3526972306	-0.035156
C	-0.8023110558	-5.41620021	-1.1238969405	-0.275389
C	-1.513091908	-4.7939616107	 0.0486901094	-0.073488
H	 0.6625955797	 1.7573802682	-0.9548652828	 0.144552
H	-1.0214060403	 1.8054563699	-0.4213878606	 0.144389
H	 0.2839715543	 1.9584545852	 0.7598073856	 0.144634
H	 0.748481659	-3.100850222	-0.3374321847	 0.120696
H	 0.3068872936	-2.9104663966	 1.3480058902	 0.120891
H	-2.104444757	-2.8179061904	 0.7335495265	 0.081927
H	-2.8910094023	-2.6778735924	-1.4789590285	 0.103055
H	-1.2764443129	-2.8649603882	-2.1897458575	 0.097457
H	-2.984851956	-5.3044010167	-1.7294779451	 0.083217
H	-0.8103272895	-6.5015804379	-1.1346073686	 0.10923
H	 0.1065915641	-4.9803475861	-1.5328793213	 0.103692
H	-1.8059121088	-5.3889666345	 0.9060749288	 0.0802
11.2123	49.3008	78.068	170.1197	210.9997	244.7181	309.8769	384.9407	389.7787	469.5045	490.2115	673.7395	764.4113	780.8263	805.1551	828.2141	864.4666	937.5716	959.1959	976.523	1017.421	1034.1957	1052.5612	1053.7887	1062.2449	1079.8922	1084.6951	1117.1363	1139.2622	1165.8822	1200.663	1239.0499	1242.5958	1265.3971	1296.4187	1322.4592	1369.3644	1378.6633	1415.6095	1469.6659	1479.6262	1479.8464	1483.1368	1499.9292	2370.9534	3009.5299	3023.5183	3038.8131	3045.9066	3067.6193	3082.6494	3082.7563	3105.4512	3111.215	3169.9977	3182.4233	3197.8679
CC#CCC1CC2CC12	CC#CC[C@H]1C[C@H]2C[C@@H]12	
InChI=1S/C9H12/c1-2-3-4-7-5-8-6-9(7)8/h7-9H,4-6H2,1H3	InChI=1S/C9H12/c1-2-3-4-7-5-8-6-9(7)8/h7-9H,4-6H2,1H3/t7-,8-,9-/m0/s1
