18
gdb 117912	3.80908	0.79665	0.70666	3.7293	74.63	-0.2708	-0.0871	0.1837	1584.5057	0.144321	-439.09565	-439.085186	-439.084242	-439.132271	35.261	
C	-0.1448001528	 1.3851876533	-0.0033524742	-0.232381
O	 0.0040527736	-0.0165865316	-0.0133739939	-0.240676
C	 0.6099979776	-0.4948707584	-1.1917719725	-0.066583
C	 0.6941223615	-2.017004019	-1.0777423468	-0.121345
C	-0.6962305628	-2.679307729	-0.9792603359	-0.413925
C	 1.4793873686	-2.5914707926	-2.2353283713	 0.291577
O	 1.8701173995	-1.9723359692	-3.1933122391	-0.274813
C	 1.7633817813	-4.044571908	-2.1372300135	 0.241863
N	 1.9918050307	-5.1748895446	-2.0516802024	-0.303148
H	 0.826911355	 1.8974630127	-0.0758753353	 0.110692
H	-0.7798288251	 1.7328106255	-0.8327540471	 0.110231
H	-0.6180909467	 1.6551068115	 0.9433491617	 0.132166
H	 0.0235854724	-0.2136956527	-2.081475664	 0.103557
H	 1.6152553378	-0.0648108733	-1.3209489975	 0.104864
H	 1.2489813812	-2.2664938793	-0.1618386395	 0.126772
H	-1.2793796728	-2.4941720396	-1.8872297754	 0.13123
H	-0.6182997774	-3.7595281861	-0.8320330972	 0.144237
H	-1.2299549818	-2.2458586097	-0.1323546562	 0.15568
39.0555	84.6297	92.0754	115.2113	181.0824	203.9821	225.1014	238.8941	289.5434	338.4024	365.8172	394.5197	517.584	620.5661	722.2701	789.9809	888.8771	935.6641	989.5733	1048.7602	1079.9231	1122.986	1165.1677	1169.5357	1195.171	1232.9883	1267.1805	1312.5808	1333.3114	1402.8228	1426.8911	1482.4671	1486.0972	1492.4843	1503.1228	1506.017	1523.6177	1790.6405	2336.6266	2970.2135	2981.142	3004.1731	3021.2969	3024.9089	3047.7879	3120.1204	3120.42	3148.3184
COCC(C)C(=O)C#N	COC[C@@H](C)C(=O)C#N	
InChI=1S/C6H9NO2/c1-5(4-9-2)6(8)3-7/h5H,4H2,1-2H3	InChI=1S/C6H9NO2/c1-5(4-9-2)6(8)3-7/h5H,4H2,1-2H3/t5-/m1/s1
