19
gdb 92869	2.3237	1.55255	1.12422	4.1788	77.88	-0.2378	-0.0505	0.1873	1125.1097	0.159478	-423.063946	-423.055213	-423.054269	-423.097059	33.307	
C	-0.204236657	 1.4996975161	 0.0353453755	-0.407371
C	 0.0276869006	-0.02298263	-0.0327061774	-0.09258
C	 0.8015713469	-0.4669750989	-1.2817250165	 0.098928
O	 0.10069493	 0.0136274639	-2.4187587744	-0.436885
C	 2.2591266192	 0.0164990756	-1.2499389568	-0.29498
C	 2.9153758078	-0.2999589288	 0.0635671408	-0.053534
C	 2.2249688167	-0.5371205225	 1.1863105257	-0.139396
C	 0.7462939219	-0.4794141739	 1.2389910706	 0.363496
O	 0.1359274324	-0.7338764654	 2.2581884677	-0.341498
H	 0.7351897718	 2.0530152196	 0.1369671629	 0.116118
H	-0.7086136182	 1.8426719968	-0.8699101103	 0.139817
H	-0.8259173905	 1.7372652952	 0.9022386041	 0.133052
H	-0.949431111	-0.5152805591	-0.0385148955	 0.101971
H	 0.8170347773	-1.5693109785	-1.2858754087	 0.076035
H	 0.5177984974	-0.3485537238	-3.2068829816	 0.283421
H	 2.8272545977	-0.4403759728	-2.070796484	 0.102088
H	 2.2872839749	 1.0993091315	-1.4341440739	 0.133292
H	 4.0023247192	-0.3351176674	 0.0818883945	 0.109941
H	 2.717883673	-0.7759708477	 2.1234772173	 0.108086
83.4911	157.3158	214.0655	232.07	259.0159	273.5742	329.3106	347.0776	443.209	459.0044	495.3441	594.2675	653.2123	704.005	800.6237	837.2481	855.6337	945.9316	971.314	1007.3538	1022.9054	1028.3171	1091.6979	1096.9293	1133.0262	1163.3999	1200.8609	1243.8897	1265.2082	1297.6288	1326.412	1351.6849	1390.3245	1398.1986	1405.0012	1438.0339	1473.4176	1499.7219	1503.1301	1679.7814	1774.9105	2962.8351	3016.3995	3044.7541	3046.8485	3067.8136	3114.8906	3139.7131	3153.2961	3189.9115	3818.6014
CC1C(O)CC=CC1=O	C[C@H]1[C@@H](O)CC=CC1=O	
InChI=1S/C7H10O2/c1-5-6(8)3-2-4-7(5)9/h2-3,5,7,9H,4H2,1H3	InChI=1S/C7H10O2/c1-5-6(8)3-2-4-7(5)9/h2-3,5,7,9H,4H2,1H3/t5-,7+/m1/s1
