18
gdb 32853	5.87559	0.79452	0.71095	3.7771	76.54	-0.1705	0.0594	0.2299	1573.9475	0.148613	-435.304938	-435.295713	-435.294769	-435.339379	33.839	
C	-0.1085515089	 1.5042113993	-0.02894217	-0.397725
C	-0.1099942875	-0.0099566441	-0.2107336996	-0.127203
N	-1.3597371874	-0.5806134283	 0.275959771	-0.387299
C	-1.6106924933	-1.9295471176	 0.1146807679	 0.463616
N	-2.816993181	-2.460144575	 0.0221174992	-0.437206
C	-2.6022366034	-3.8141451273	-0.0455366973	 0.348723
O	-3.6435198994	-4.6710009324	-0.1507313641	-0.44226
C	-1.2756776696	-4.1263418356	-0.004927907	-0.227364
N	-0.6395882688	-2.8764675983	 0.0885414019	-0.306022
H	 0.8417440851	 1.9296316455	-0.3619567237	 0.125594
H	-0.9066892343	 1.9699200436	-0.6177410241	 0.123943
H	-0.2606527391	 1.7684224866	 1.0213583837	 0.13499
H	 0.0766889157	-0.2647684141	-1.2672534743	 0.102289
H	 0.7182426832	-0.4379423879	 0.3700483929	 0.103971
H	-2.1814311389	-0.0411311622	 0.0389776949	 0.24659
H	-4.4371374508	-4.1230036555	-0.1454627845	 0.296449
H	-0.7316271998	-5.0511940948	-0.0561588183	 0.119363
H	 0.3470767781	-2.7263316818	 0.1990756915	 0.25955
56.4938	72.8968	130.917	239.7036	262.4069	299.844	337.1902	343.8031	359.7794	424.5626	505.2392	579.4362	599.1876	691.167	705.8341	746.3213	790.9785	823.6496	930.8809	1016.6143	1034.162	1074.0236	1099.4784	1153.6434	1177.6143	1197.2143	1295.0038	1297.845	1338.51	1355.6345	1411.2508	1424.9006	1436.3299	1491.6245	1500.8649	1525.296	1544.9722	1632.7835	1680.28	2963.5312	3018.9691	3039.959	3108.1117	3126.1485	3301.8631	3589.608	3687.991	3809.2137
CCNC1=NC(O)=CN1	CCNc1nc(O)c[nH]1	
InChI=1S/C5H9N3O/c1-2-6-5-7-3-4(9)8-5/h3,9H,2H2,1H3,(H2,6,7,8)	InChI=1S/C5H9N3O/c1-2-6-5-7-3-4(9)8-5/h3,9H,2H2,1H3,(H2,6,7,8)
