18
gdb 6467	4.17341	1.33719	1.26301	3.051	68.52	-0.2407	-0.0195	0.2213	1030.7861	0.150655	-384.942274	-384.933653	-384.932709	-384.975392	31.893	
C	-0.0491775492	 1.5336710023	 0.1332586301	-0.252764
O	 0.0009366907	 0.1310829267	 0.2862453515	-0.284211
C	-1.199369007	-0.5605716489	 0.0090590609	 0.414881
C	-2.3374815551	-0.1945584292	 0.959108983	-0.451012
C	-1.6224015485	-0.5836052076	-1.5069444603	-0.403074
C	-1.5930936745	-2.1164376182	-1.4255915752	 0.40923
O	-2.0136648938	-2.9896073369	-2.127530714	-0.291975
C	-0.9103890452	-2.0899122751	-0.0535829932	-0.393224
H	 0.9749771895	 1.8985338676	 0.2417826011	 0.131259
H	-0.4224306331	 1.8256558399	-0.8597428293	 0.107644
H	-0.6740570414	 2.0191441484	 0.8951939734	 0.112106
H	-2.6669303724	 0.8398592719	 0.8230710419	 0.121556
H	-3.2044820295	-0.8388906412	 0.7829228926	 0.124823
H	-2.0187094772	-0.3248080003	 1.9979701906	 0.128323
H	-2.570639251	-0.1264155282	-1.8002893413	 0.123359
H	-0.8234970579	-0.209436034	-2.1557416014	 0.135258
H	 0.1649097062	-2.2777977863	-0.1333617775	 0.142054
H	-1.3334618105	-2.7291568508	 0.724850117	 0.125766
59.7009	108.7984	184.9802	235.5953	269.822	333.8392	350.6342	373.4552	418.1447	434.9966	532.4726	620.5276	679.6122	733.2277	857.8753	881.1996	907.3632	946.4354	1007.1059	1070.8671	1103.1802	1121.8803	1163.638	1170.8791	1181.8401	1202.8977	1234.436	1270.7369	1288.5394	1407.3508	1414.7963	1436.7361	1475.2663	1485.3297	1490.0793	1506.469	1510.7947	1894.6292	2987.7902	3036.268	3042.8886	3054.6276	3063.3024	3108.4198	3113.2873	3115.6688	3117.9684	3123.6226
COC1(C)CC(=O)C1	COC1(C)CC(=O)C1	
InChI=1S/C6H10O2/c1-6(8-2)3-5(7)4-6/h3-4H2,1-2H3	InChI=1S/C6H10O2/c1-6(8-2)3-5(7)4-6/h3-4H2,1-2H3
