17
gdb 38440	4.07811	1.34136	1.23079	3.1528	74.46	-0.2265	0.0075	0.234	1037.428	0.135973	-421.782307	-421.775129	-421.774184	-421.814083	28.197	
C	-0.0393991746	 1.4938514035	 0.1140830485	-0.329886
C	 1.4721081055	 1.6016972198	-0.1049268016	 0.035335
O	 2.0866121818	 0.9093471471	 0.9833960599	-0.239463
C	 1.6417680871	 0.1371600482	-0.1328192141	-0.038414
C	 0.1165134059	-0.0805175912	 0.009425367	 0.402621
O	-0.3096662772	-0.8409961	 1.1235753715	-0.308995
C	-1.1732043011	-1.8987410695	 0.7120241539	-0.13593
C	-1.2820165736	-1.7520327038	-0.7787653934	-0.109331
C	-0.5511837371	-0.7163478898	-1.1745014836	-0.148031
H	-0.3809132519	 1.851800099	 1.086860566	 0.122219
H	-0.6567521768	 1.9120227066	-0.6845265802	 0.105008
H	 2.0454022534	 2.3768203298	-0.5983350329	 0.104841
H	 2.3723458746	-0.4963510333	-0.6248674858	 0.098226
H	-0.7468434557	-2.868997504	 1.0105707374	 0.110663
H	-2.1461520081	-1.8036195447	 1.2183184783	 0.110194
H	-1.8784980268	-2.4067169891	-1.4011029063	 0.110768
H	-0.4244418154	-0.3519230286	-2.1858735146	 0.110175
93.5749	132.7758	214.755	327.1065	408.6195	418.1217	498.8619	565.6692	734.664	775.0698	796.1413	819.6207	843.6546	861.4025	897.3152	948.5701	957.4614	959.0762	971.4546	1011.9008	1024.6664	1045.6398	1055.8779	1116.7256	1118.1757	1156.9605	1196.0066	1203.3244	1217.2258	1251.4851	1278.6287	1360.2033	1376.2033	1381.5901	1463.3061	1518.6598	1687.0579	2980.9443	2998.9267	3070.7106	3136.0232	3171.1783	3199.8104	3207.8112	3232.1047
C1C2OC2C11OCC=C1	C1[C@H]2O[C@H]2[C@]21OCC=C2	
InChI=1S/C7H8O2/c1-2-7(8-3-1)4-5-6(7)9-5/h1-2,5-6H,3-4H2	InChI=1S/C7H8O2/c1-2-7(8-3-1)4-5-6(7)9-5/h1-2,5-6H,3-4H2/t5-,6-,7+/m1/s1
