14
gdb 11194	5.81168	1.27715	1.06062	0.5692	68.12	-0.254	-0.0996	0.1544	1028.328	0.106946	-382.59093	-382.58373	-382.582786	-382.622992	25.606	
O	-0.0227495875	-0.0207276605	-0.0003637244	-0.248515
C	 0.0048236053	 1.1881395952	 0.0085265642	 0.088454
C	 1.2563513959	 1.9692990867	 0.0014392319	 0.239149
C	 1.3192483144	 3.311460797	 0.011748717	-0.280528
C	 2.7363627155	 3.7638450942	 0.000465022	 0.405061
O	 3.1279018741	 4.905751925	 0.0051247055	-0.317561
C	 3.6056221658	 2.4958996994	-0.0205363488	-0.345799
C	 2.6181487697	 1.3126278951	-0.0188178876	-0.319204
H	-0.9276704471	 1.7913999619	 0.0244852186	 0.086877
H	 0.48307046	 4.0002509742	 0.0264579198	 0.128956
H	 4.2485225792	 2.5169076601	-0.9053405787	 0.14305
H	 4.2695573298	 2.5021626619	 0.8488008367	 0.142981
H	 2.7367168265	 0.654205669	 0.8479606855	 0.138542
H	 2.7173388886	 0.6677623007	-0.8981200919	 0.138538
82.5662	100.0827	184.012	214.7625	406.7025	427.0109	508.2279	548.0623	628.257	719.2669	817.9474	832.4814	877.5048	888.0532	1002.7418	1009.2947	1044.5913	1131.3383	1154.7762	1175.1761	1224.618	1261.3604	1295.6666	1358.6869	1415.9255	1448.4432	1478.988	1661.9541	1789.1465	1816.3308	2909.3163	3055.0905	3068.4513	3082.5494	3108.8906	3215.5914
O=CC1=CC(=O)CC1	O=CC1=CC(=O)CC1	
InChI=1S/C6H6O2/c7-4-5-1-2-6(8)3-5/h3-4H,1-2H2	InChI=1S/C6H6O2/c7-4-5-1-2-6(8)3-5/h3-4H,1-2H2
