21
gdb 107566	3.29475	1.26929	1.04122	1.6947	83.33	-0.2408	0.0292	0.27	1228.749	0.183024	-387.100586	-387.091957	-387.091013	-387.133854	33.366	
C	-0.42952614	 1.388683915	 0.0559011366	-0.383654
C	 0.3477730309	 0.0770683455	-0.1151874085	-0.257507
C	 0.9203127419	-0.4562561758	 1.1855596994	 0.403434
C	 1.9508365855	 0.4152693616	 1.8847353495	-0.331869
C	 2.7562614603	-0.2914117718	 2.9393171697	-0.039921
C	 2.7321938509	-1.6026300481	 3.1595946331	-0.059601
C	 1.8911803122	-2.5723855412	 2.3787285409	-0.290245
C	 0.9005853148	-1.9054722217	 1.4528867924	-0.008498
O	-0.0603490194	-1.0368787792	 2.0656366996	-0.302118
H	 0.2169352012	 2.2058331421	 0.3909905242	 0.117017
H	-0.8844852804	 1.6959283404	-0.8903133017	 0.112757
H	-1.2286810248	 1.2651262355	 0.7930017612	 0.134355
H	-0.3181345401	-0.6860220457	-0.5325714529	 0.102625
H	 1.1643344722	 0.2150557575	-0.8358768703	 0.095876
H	 2.6280801087	 0.8364807132	 1.1268507447	 0.109368
H	 1.4417036684	 1.2811566991	 2.3299631689	 0.119169
H	 3.3990571232	 0.3409218693	 3.5469874795	 0.085257
H	 3.3540874806	-2.0267143237	 3.9438777128	 0.085803
H	 2.5372290152	-3.233354808	 1.7816804059	 0.110744
H	 1.3466677797	-3.2390278205	 3.0626214147	 0.118358
H	 0.4761545791	-2.5566249835	 0.6861537503	 0.078648
74.1583	112.9523	167.1283	214.4189	277.5033	339.1089	387.1739	395.0488	408.5448	551.8471	583.6785	673.0709	680.7645	770.3756	795.2884	884.9068	891.8728	923.4984	946.309	957.8179	981.3928	1008.8843	1021.6937	1051.8285	1081.5772	1105.0829	1114.5274	1199.8411	1210.4073	1240.7289	1257.4476	1290.9158	1325.3889	1368.7704	1378.7708	1388.4179	1407.0909	1422.9976	1460.6822	1464.6722	1475.4271	1489.8579	1499.2705	1508.1287	1741.3859	2999.0266	3000.3061	3023.4247	3024.0905	3027.8808	3040.3483	3067.9725	3087.0073	3108.0466	3115.3948	3145.1817	3168.6983
CCC12CC=CCC1O2	CC[C@]12CC=CC[C@H]1O2	
InChI=1S/C8H12O/c1-2-8-6-4-3-5-7(8)9-8/h3-4,7H,2,5-6H2,1H3	InChI=1S/C8H12O/c1-2-8-6-4-3-5-7(8)9-8/h3-4,7H,2,5-6H2,1H3/t7-,8+/m1/s1
