17
gdb 94767	3.82653	1.16452	1.03194	4.5751	72.99	-0.2341	0.0178	0.2519	1151.5021	0.137604	-417.997263	-417.989212	-417.988268	-418.029777	30.889	
O	-0.0684679501	 1.446966658	 0.0882863088	-0.425809
C	-0.014221621	 0.033465758	-0.0058140739	 0.099613
C	 0.6481457179	-0.6322872152	 1.2397499838	-0.234291
N	-0.0511417769	-1.898291378	 1.5161117657	-0.349257
C	-1.3693744226	-1.763736939	 0.8992836204	 0.213891
C	-2.171581216	-0.5382521541	 1.275761498	-0.307815
C	-1.4125140372	-0.5494598578	-0.0261108385	-0.092297
C	-2.0437792054	-2.9901517052	 0.5811007595	 0.206738
N	-2.5737960211	-3.9828102897	 0.313070459	-0.341341
H	 0.8251251587	 1.790731766	-0.0108033379	 0.288113
H	 0.5045548993	-0.2704138746	-0.9276811777	 0.075815
H	 1.7178665579	-0.8150272004	 1.1117358834	 0.10996
H	 0.5316909668	 0.058407529	 2.0823317406	 0.124763
H	 0.4318423596	-2.6641983184	 1.0573282636	 0.235091
H	-3.2495047365	-0.6272045862	 1.2173582789	 0.141242
H	-1.8104279682	 0.0648762213	 2.100430227	 0.141802
H	-1.961878725	-0.5702850838	-0.9587536908	 0.113781
103.436	149.103	169.2933	253.5739	277.9638	353.0075	409.1935	469.1118	551.7328	565.8899	594.1638	619.6425	714.3223	804.2478	826.714	874.7029	941.0062	951.5775	990.4087	1009.1645	1040.4189	1068.4744	1080.765	1098.9963	1130.9928	1212.9218	1241.1047	1252.0215	1286.2665	1325.5352	1346.0544	1378.6797	1434.5045	1462.4964	1489.3756	1512.8392	2354.7179	2984.6167	3044.7072	3102.3162	3150.6675	3196.6374	3240.8294	3519.4185	3817.443
OC1CNC2(CC12)C#N	O[C@H]1CN[C@]2(C[C@@H]12)C#N	
InChI=1S/C6H8N2O/c7-3-6-1-4(6)5(9)2-8-6/h4-5,8-9H,1-2H2	InChI=1S/C6H8N2O/c7-3-6-1-4(6)5(9)2-8-6/h4-5,8-9H,1-2H2/t4-,5-,6+/m0/s1
