17
gdb 50818	3.65174	0.99752	0.86273	5.8086	72.15	-0.2419	-0.0201	0.2218	1330.9471	0.136325	-455.14639	-455.137647	-455.136703	-455.18163	30.532	
N	-0.8418560212	-0.4148753367	-1.0773818714	-0.464907
C	-0.0971575879	-0.1465827247	-0.0829995515	 0.325071
N	-0.3560849406	 0.8738898496	 0.8243601606	-0.322009
C	-1.3945947068	 1.7893547647	 0.8506846887	 0.16202
O	-2.2766277958	 1.9096314328	 0.0444889634	-0.259755
C	 1.2019547133	-0.8809692824	 0.2347379847	 0.047153
C	 2.4610994971	-0.4434354219	-0.5583360524	-0.282953
C	 3.0620058734	-0.1520871999	 0.8299238595	-0.070868
O	 1.8143412627	-0.4940587698	 1.4879936329	-0.300719
H	-0.4575071287	-1.2087003768	-1.5936785189	 0.216218
H	 0.3061318636	 0.9039033214	 1.5899924208	 0.264505
H	-1.3009852596	 2.4321951759	 1.7509122663	 0.077222
H	 1.0043660694	-1.9593100937	 0.2097958641	 0.110078
H	 2.948396648	-1.2282519687	-1.1367167426	 0.12576
H	 2.3079777963	 0.4320825708	-1.1901336848	 0.135446
H	 3.8693855643	-0.8226478812	 1.1426915283	 0.119485
H	 3.3558005824	 0.8833793806	 1.0302111424	 0.118254
30.0657	62.1312	101.5861	180.6343	222.9271	260.043	275.3599	433.5933	518.7339	663.0163	720.2651	731.3254	800.765	837.2951	868.6038	918.4183	934.0674	961.6567	1010.6243	1026.3587	1035.1232	1095.2864	1103.7543	1168.7702	1189.3409	1213.8207	1258.4817	1267.0281	1327.3194	1341.9806	1356.1847	1447.1883	1492.4738	1527.9416	1554.8516	1723.2791	1846.5249	2913.2454	3034.1807	3040.2189	3083.974	3092.9229	3150.8853	3452.0456	3565.6682
N=C(NC=O)C1CCO1	N=C(NC=O)[C@H]1CCO1	
InChI=1S/C5H8N2O2/c6-5(7-3-8)4-1-2-9-4/h3-4H,1-2H2,(H2,6,7,8)	InChI=1S/C5H8N2O2/c6-5(7-3-8)4-1-2-9-4/h3-4H,1-2H2,(H2,6,7,8)/t4-/m1/s1
