19
gdb 91396	2.42662	1.68515	1.49366	1.1227	75.2	-0.2098	-0.0086	0.2012	993.3078	0.161483	-419.180112	-419.172308	-419.171364	-419.212219	30.541	
C	-0.5453176657	 1.1412319237	 0.9027795789	-0.348039
N	-0.0141257298	 0.1046331146	 0.0233776417	-0.067396
C	-1.0502646809	-0.7195389563	-0.6095742341	-0.152628
C	-1.2981612601	-2.0386916144	 0.149129973	-0.139332
N	-0.0067765554	-2.8259130536	 0.0530741201	-0.317295
C	 0.5166394603	-2.0232170703	 1.2270985855	-0.139332
C	 1.0476563483	-0.7016502603	 0.6365640032	-0.152628
C	-0.960541383	-1.894598165	 1.6454038468	 0.430037
O	-1.5697790239	-1.9824387939	 2.6723392523	-0.334017
H	 0.2748946249	 1.7821434576	 1.2410196471	 0.121607
H	-1.2427264635	 1.7692005607	 0.3395758359	 0.121607
H	-1.0737148628	 0.7687713068	 1.7977076556	 0.116228
H	-1.971712479	-0.1352870244	-0.6778159208	 0.108585
H	-0.7447313719	-0.9936187955	-1.6277763673	 0.115116
H	-2.2074011697	-2.5579556046	-0.1599628725	 0.090631
H	-0.1886896999	-3.7765030892	 0.3729777922	 0.232524
H	 1.2295005013	-2.5286493757	 1.8815128365	 0.090631
H	 1.7990530159	-0.9719284574	-0.1168009097	 0.115116
H	 1.5409549861	-0.1053349827	 1.4086636323	 0.108585
117.8534	144.9936	191.9633	245.4534	330.8294	418.9717	440.627	466.6525	490.6403	526.1827	650.891	763.7935	802.9662	829.6471	860.5317	898.2205	935.5971	977.7932	982.0996	1049.6094	1054.1413	1084.127	1088.414	1140.0925	1148.4951	1157.4135	1174.3502	1230.9695	1250.4412	1298.378	1319.7755	1356.6927	1368.4919	1369.7404	1390.5745	1460.2119	1473.8888	1489.2143	1494.8045	1509.935	1876.0536	2956.2212	3017.6806	3022.166	3061.0509	3090.7669	3094.4235	3101.6979	3104.2594	3105.3492	3467.7614
CN1CC2NC(C1)C2=O	CN1C[C@H]2N[C@@H](C1)C2=O	
InChI=1S/C6H10N2O/c1-8-2-4-6(9)5(3-8)7-4/h4-5,7H,2-3H2,1H3	InChI=1S/C6H10N2O/c1-8-2-4-6(9)5(3-8)7-4/h4-5,7H,2-3H2,1H3/t4-,5+
