17
gdb 18282	3.12518	2.1678	1.90954	2.0414	67.44	-0.2444	0.0305	0.2749	797.017	0.1442	-363.859538	-363.85248	-363.851536	-363.890749	26.792	
C	 0.1302721581	 1.5934803631	 0.0642256336	-0.418392
C	 0.0586821295	 0.0855222194	-0.0331913452	-0.047237
C	 0.6152306131	-0.6855791254	-1.2227359203	-0.113782
C	 1.4043195093	 0.0079932639	-2.3226475035	-0.178334
N	 2.739772427	 0.4757878742	-1.96542305	-0.263457
C	 3.1579174011	 0.3354135953	-0.7835989993	 0.122083
O	 2.5421129531	-0.192952022	 0.3062922978	-0.218449
C	 1.2767873762	-0.7867062447	 0.1220712771	 0.085647
H	 1.0283775807	 1.9986510521	-0.4072504237	 0.140533
H	-0.7353938091	 2.0519967966	-0.4251054407	 0.1207
H	 0.131139055	 1.9151723861	 1.110841355	 0.124071
H	-0.8424099278	-0.3436791016	 0.3984920415	 0.089699
H	 0.0453678835	-1.5502845778	-1.5478434241	 0.091913
H	 1.5242555283	-0.6889902778	-3.1603248491	 0.11956
H	 0.8523855641	 0.8655382181	-2.7300771944	 0.115353
H	 4.1519969731	 0.6762934274	-0.5011545647	 0.124009
H	 1.2158274547	-1.6997093867	 0.7032667202	 0.106082
115.5771	158.9489	178.4951	237.2744	437.0701	470.0517	507.446	581.9875	620.5402	749.7107	771.3652	832.3778	896.2266	939.3268	958.8056	971.2029	980.0796	1024.0123	1076.5634	1098.6508	1120.9166	1142.5475	1155.2514	1199.2087	1249.6231	1276.8295	1353.3205	1357.1106	1373.1722	1414.8055	1425.5726	1446.3514	1482.8207	1497.7403	1505.2116	1743.1808	3016.6432	3039.6115	3048.4027	3096.7953	3120.6691	3137.535	3151.7208	3161.5694	3174.3275
CC1C2CN=COC12	C[C@H]1[C@H]2CN=CO[C@@H]12	
InChI=1S/C6H9NO/c1-4-5-2-7-3-8-6(4)5/h3-6H,2H2,1H3	InChI=1S/C6H9NO/c1-4-5-2-7-3-8-6(4)5/h3-6H,2H2,1H3/t4-,5+,6-/m0/s1
