19
gdb 102243	2.63352	0.99926	0.80604	2.4453	76.13	-0.2547	0.0122	0.2669	1457.3466	0.158388	-419.267595	-419.257282	-419.256338	-419.304517	36.179	
C	-0.1795223863	 1.641734388	-0.1847236454	-0.400557
C	 0.1269763657	 0.1516099935	-0.0244499849	-0.190307
C	 0.7292441715	-0.4979349	-1.2910382302	-0.123933
C	 1.0993678208	-1.9871854992	-1.065589517	-0.307047
C	 1.9482526186	-2.5295053351	-2.2162920555	 0.377263
N	 1.2578876692	-3.2033895372	-3.1838721415	-0.502265
O	 3.150995085	-2.3617069842	-2.2514811488	-0.356649
C	-0.1948027136	-0.3864265761	-2.4260736458	 0.284867
N	-0.9402194101	-0.3417525754	-3.3092260746	-0.342808
H	 0.7247105236	 2.2077598539	-0.432753976	 0.124138
H	-0.9126518013	 1.8143573402	-0.9784431704	 0.144421
H	-0.5864284955	 2.0522775792	 0.7435850841	 0.124565
H	 0.8471433343	 0.0009509058	 0.7873921458	 0.113846
H	-0.7822417559	-0.3936564084	 0.2542917419	 0.116481
H	 1.6490483506	 0.0373003526	-1.5589361409	 0.147152
H	 1.7112472659	-2.0512905249	-0.163293833	 0.1384
H	 0.1894405809	-2.5758184277	-0.9132445109	 0.117449
H	 0.2585332538	-3.1044058535	-3.261601267	 0.270541
H	 1.7627091528	-3.4193085715	-4.0301723399	 0.264443
20.8762	64.4341	98.4121	132.2833	158.918	213.0452	259.4869	283.5991	367.3256	414.3563	434.3386	530.4008	557.8111	572.847	604.6321	731.0577	775.9805	837.9679	867.7124	921.1848	977.086	1019.3019	1053.4806	1104.8256	1124.9	1133.4057	1190.8956	1272.5351	1291.064	1318.1034	1366.7603	1373.2271	1382.3392	1418.995	1476.7188	1489.0109	1499.3651	1506.5291	1629.7106	1805.1473	2348.4727	3034.4269	3039.2173	3041.9184	3060.4627	3076.7965	3110.4221	3117.7346	3122.7744	3582.4268	3709.4885
CCC(CC(N)=O)C#N	CC[C@@H](CC(=O)N)C#N	
InChI=1S/C6H10N2O/c1-2-5(4-7)3-6(8)9/h5H,2-3H2,1H3,(H2,8,9)	InChI=1S/C6H10N2O/c1-2-5(4-7)3-6(8)9/h5H,2-3H2,1H3,(H2,8,9)/t5-/m0/s1
