21
gdb 102729	2.80524	0.97101	0.76294	0.8878	85.58	-0.2601	0.0396	0.2997	1531.592	0.179787	-387.02887	-387.018613	-387.017669	-387.064768	37.197	
C	-0.2922072116	 1.2269791231	 0.0802571635	-0.237178
O	 0.1420796188	-0.1161567907	 0.1146470136	-0.223799
C	 0.71701311	-0.5693242509	-1.0996376592	-0.068318
C	 1.3667165973	-1.9374739483	-0.8269297085	-0.222719
C	 2.5571383428	-1.8639218293	 0.103246063	 0.02711
C	 2.3720413962	-1.865105872	 1.5979259686	-0.239177
C	 2.9592020405	-3.0731026515	 0.9128833903	-0.287377
C	-0.2783031066	-0.6559709551	-2.1792158573	 0.338174
C	-1.0959920831	-0.7393082459	-3.0567493456	-0.465301
H	 0.5389552159	 1.9139219798	-0.1437126609	 0.102805
H	-1.0832042351	 1.3819739279	-0.6660892245	 0.119178
H	-0.6855394158	 1.4592042298	 1.0724989202	 0.127186
H	 1.5035442657	 0.1391246329	-1.416359702	 0.088134
H	 0.595546001	-2.5945453126	-0.4092529481	 0.112611
H	 1.6638013851	-2.3668801198	-1.7906224219	 0.109197
H	 3.3772744304	-1.2562926934	-0.2735262587	 0.076915
H	 3.0272456689	-1.243622009	 2.1983673329	 0.106217
H	 1.3572649314	-1.9305068718	 1.9724786109	 0.121383
H	 2.3421039333	-3.9622707045	 0.8320326732	 0.109532
H	 4.0162048984	-3.279761111	 1.0397838517	 0.108327
H	-1.8156318333	-0.8098722077	-3.8347526712	 0.197102
50.9078	87.2113	96.7938	124.1827	174.9877	227.5675	261.6628	270.6531	340.9148	363.5811	463.5609	560.6072	583.8265	627.6086	672.7872	771.8032	797.5101	836.2048	844.2734	922.6118	940.2193	976.6828	1047.2404	1051.3827	1067.1766	1075.2423	1135.9709	1141.0935	1154.7806	1184.4092	1196.9248	1221.2695	1232.2962	1270.8244	1304.553	1359.0163	1368.1802	1420.24	1467.6662	1473.9194	1478.9092	1485.0302	1509.2048	1511.022	2228.3363	2940.6412	2980.99	3037.8795	3041.5983	3080.3403	3120.0737	3126.0901	3129.2295	3141.0762	3208.6242	3228.0484	3501.7494
COC(CC1CC1)C#C	CO[C@@H](CC1CC1)C#C	
InChI=1S/C8H12O/c1-3-8(9-2)6-7-4-5-7/h1,7-8H,4-6H2,2H3	InChI=1S/C8H12O/c1-3-8(9-2)6-7-4-5-7/h1,7-8H,4-6H2,2H3/t8-/m1/s1
