16
gdb 126856	2.90114	1.5762	1.10735	0.7804	75.59	-0.2483	-0.0906	0.1577	1076.4325	0.125839	-430.22815	-430.220262	-430.219318	-430.261046	28.983	
C	 0.0022433277	 1.5375359398	-0.0844076369	-0.387248
C	-0.0360350302	 0.0185974413	 0.0801685972	-0.126267
N	-1.4024753272	-0.5167298233	 0.0121040789	-0.019897
N	-1.9642847094	-0.7970257773	 1.1764774146	-0.040595
N	-3.1591473478	-1.2593106381	 1.2226245427	-0.22048
C	-3.7971888875	-1.4498343392	 0.0087578077	 0.10897
N	-3.3302330644	-1.2144745259	-1.1689220735	-0.28622
C	-2.0420429893	-0.6928283719	-1.2415833431	 0.446245
N	-1.4111954166	-0.3745911448	-2.2997868939	-0.555927
H	 1.0381760554	 1.8818202526	-0.0160249613	 0.128593
H	-0.3949647297	 1.8273505969	-1.0587532415	 0.157725
H	-0.5753656681	 2.0284887545	 0.7041237642	 0.130385
H	 0.531319269	-0.4683887722	-0.7152119186	 0.152433
H	 0.351547949	-0.2868630791	 1.0534037125	 0.134797
H	-4.8042029483	-1.8505388173	 0.0996960459	 0.144581
H	-2.0044221926	-0.5725676662	-3.104448275	 0.232904
79.2807	91.2872	172.6837	225.9234	325.6247	352.2154	436.0494	492.0996	560.1053	577.8745	640.7398	737.7309	783.7592	796.673	859.5751	926.5256	986.9099	991.5555	1008.8672	1083.0703	1105.6802	1132.9045	1231.5704	1233.7912	1298.9351	1370.6293	1390.9588	1406.5975	1418.8059	1457.6308	1483.0371	1491.0224	1508.6283	1632.829	1723.6774	3050.5173	3083.9168	3120.0177	3136.9453	3153.9935	3169.6945	3506.7773
CCN1N=NC=NC1=N	CCn1nncnc1[NH]	
InChI=1S/C4H7N5/c1-2-9-4(5)6-3-7-8-9/h3,5H,2H2,1H3	InChI=1S/C4H12N5/c1-2-9-4(5)6-3-7-8-9/h4-8H,2-3H2,1H3
