15
gdb 45054	2.57738	1.85994	1.27933	2.2913	65.04	-0.2525	-0.0432	0.2093	959.7839	0.111972	-457.742744	-457.735544	-457.7346	-457.774659	27.465	
O	 0.0255385839	 0.0820811826	-0.4401748341	-0.29791
C	-0.0230878076	 1.2181952116	-0.0541960021	 0.342443
C	-1.2868510219	 1.9994709521	 0.3419428659	-0.367034
C	-0.770862267	 3.3128584112	 0.8881703002	 0.034673
O	 0.1071969341	 3.1415598733	 2.0068622011	-0.253583
C	 0.6933429066	 3.4046241383	 0.7236457264	-0.089521
C	 1.1839725379	 2.1466412212	 0.0818367116	 0.342317
C	 2.552480296	 1.6199951076	 0.1352415946	-0.232755
O	 2.0517800866	 2.2325747667	-1.0516221732	-0.270701
H	-1.9083071477	 2.1443461782	-0.5500408853	 0.14323
H	-1.8778662999	 1.4349086869	 1.0684131214	 0.150742
H	-1.4050623151	 4.1939889672	 0.9203277437	 0.111637
H	 1.237834832	 4.3370367632	 0.6099210957	 0.11704
H	 3.3150675787	 2.1824877236	 0.6711887937	 0.126944
H	 2.6889931834	 0.5421945163	 0.0759935505	 0.142478
73.2262	178.4365	255.547	262.1658	351.6497	432.7364	484.9274	563.4415	600.5644	682.6166	719.9237	824.436	851.4933	873.9598	892.4091	935.9331	961.1257	1007.8141	1038.2573	1077.5972	1103.1917	1130.8571	1170.0958	1181.6176	1235.047	1254.2428	1279.3559	1306.7592	1399.098	1438.3237	1448.0972	1513.3437	1855.8463	3050.0223	3092.0465	3103.7958	3157.4531	3171.0143	3191.4796
O=C1CC2OC2C11CO1	O=C1C[C@H]2O[C@H]2[C@]21CO2	
InChI=1S/C6H6O3/c7-4-1-3-5(9-3)6(4)2-8-6/h3,5H,1-2H2	InChI=1S/C6H6O3/c7-4-1-3-5(9-3)6(4)2-8-6/h3,5H,1-2H2/t3-,5-,6-/m1/s1
