21
gdb 109684	3.00325	0.97931	0.90476	3.4473	75.69	-0.2275	0.0519	0.2795	1406.4247	0.180264	-461.338198	-461.32779	-461.326845	-461.373598	38.434	
C	 0.3004569091	 1.4396926118	 0.2550824004	-0.375001
C	-0.1889222829	 0.039916327	-0.1329859559	-0.191559
C	 0.5632859226	-0.5126570669	-1.3270060006	-0.131504
C	 1.9265513485	-1.1742296721	-1.1537634022	 0.061022
O	 2.4333220407	-1.3770959141	 0.1275585834	-0.433826
C	 0.7207538107	-1.9958615087	-1.5540216968	 0.353811
O	 0.233059151	-2.8416903887	-0.5385913925	-0.480297
C	 0.5734715146	-2.5972762941	-2.9240303747	-0.16314
O	 1.1561940781	-3.9008205353	-2.8616279357	-0.431913
H	 1.3563005036	 1.4087746375	 0.5394413328	 0.134075
H	 0.1955299324	 2.1447224149	-0.5773787756	 0.105702
H	-0.2697299925	 1.8362495828	 1.1011453761	 0.106822
H	-0.0738131014	-0.6374948518	 0.7165178574	 0.109204
H	-1.2616184995	 0.0646866508	-0.3615373659	 0.09262
H	 0.4519185645	 0.0735314345	-2.2384003931	 0.076454
H	 2.7063639954	-0.9721007586	-1.8833915299	 0.092067
H	 1.913538991	-2.1041041946	 0.5007173119	 0.287447
H	 0.4981268834	-3.7303473232	-0.8171573012	 0.294862
H	-0.4922258905	-2.6618770866	-3.1905207334	 0.099291
H	 1.0773557676	-1.9671037925	-3.670497448	 0.09768
H	 0.8181381236	-4.4249557122	-3.5928920364	 0.296184
55.605	94.9057	133.3341	171.365	217.8929	236.6236	262.0249	278.6115	307.6917	343.9709	367.7393	424.5038	561.4063	586.846	618.7196	637.3601	714.0925	786.9227	844.0756	860.3496	946.2722	1001.9205	1033.1712	1040.6506	1064.5862	1084.82	1104.4392	1136.3838	1162.3724	1204.9655	1234.3755	1255.7561	1286.6773	1308.7148	1322.0387	1341.2145	1388.987	1407.1777	1412.7795	1442.2605	1488.0196	1495.8605	1500.6857	1507.8888	1510.6059	2984.8088	3026.5317	3031.7002	3032.8393	3087.7689	3103.3975	3112.6509	3118.6623	3140.5237	3719.0409	3740.5509	3841.562
CCC1C(O)C1(O)CO	CC[C@H]1[C@@H](O)[C@]1(O)CO	
InChI=1S/C6H12O3/c1-2-4-5(8)6(4,9)3-7/h4-5,7-9H,2-3H2,1H3	InChI=1S/C6H12O3/c1-2-4-5(8)6(4,9)3-7/h4-5,7-9H,2-3H2,1H3/t4-,5+,6-/m0/s1
