21
gdb 52397	6.33507	0.56131	0.53308	2.9308	80.94	-0.2556	-0.0266	0.229	2047.4424	0.18019	-424.21099	-424.200979	-424.200035	-424.248066	34.533	
O	-0.3111156693	 0.3301952526	 0.606223593	-0.238449
C	-0.0143392239	 1.2243911272	-0.1402097819	 0.139652
C	 1.3639290912	 1.8606970595	-0.1888324302	-0.139551
O	 1.3517705268	 2.8609547166	-1.170909374	-0.251636
C	 2.5897022223	 3.535045355	-1.3132264707	-0.075091
C	 2.4476231095	 4.5914119808	-2.3861735787	 0.034802
C	 1.5661754907	 5.8395229903	-2.101149937	-0.211689
C	 2.6366851333	 6.7103420191	-2.8132769157	-0.209256
C	 3.6494553729	 5.5458957527	-2.6343832331	-0.237891
H	-0.73221433	 1.6661362892	-0.8661393823	 0.096124
H	 1.6036302171	 2.261121034	 0.811549458	 0.12009
H	 2.1088667321	 1.0748661713	-0.4035807702	 0.120077
H	 2.8787060912	 4.0007606565	-0.3547294506	 0.084168
H	 3.3853610731	 2.8166603834	-1.577544395	 0.088929
H	 2.1368671924	 4.1098267115	-3.3192964057	 0.080355
H	 0.5502673856	 5.844927626	-2.5010590823	 0.101873
H	 1.5166538488	 6.0527086539	-1.0281298487	 0.097686
H	 2.3918882724	 6.8742236149	-3.8665012313	 0.104243
H	 2.8897265515	 7.6734545969	-2.3644809584	 0.097831
H	 4.2525407759	 5.6722400399	-1.7286842872	 0.098703
H	 4.3196412864	 5.3138907485	-3.4654528277	 0.099029
38.2005	55.0836	82.2044	90.831	122.0326	156.5698	240.5418	302.316	402.3831	453.0075	555.3384	650.5512	739.9311	767.5147	793.7854	893.5879	916.2171	935.3892	972.7155	975.9494	1004.0684	1049.2978	1097.6768	1113.9921	1127.9553	1167.7335	1185.1945	1206.0905	1228.9782	1239.7842	1256.4627	1258.9185	1275.2294	1278.4204	1301.1675	1340.95	1366.6565	1401.2737	1435.5616	1478.146	1480.5488	1486.7099	1508.0953	1521.0526	1845.0278	2898.4907	2943.0925	2957.9546	2972.2508	2983.1976	3045.7873	3049.0985	3057.3704	3060.3179	3099.4611	3107.2499	3120.8117
O=CCOCC1CCC1	O=CCOCC1CCC1	
InChI=1S/C7H12O2/c8-4-5-9-6-7-2-1-3-7/h4,7H,1-3,5-6H2	InChI=1S/C7H12O2/c8-4-5-9-6-7-2-1-3-7/h4,7H,1-3,5-6H2
