19
gdb 33014	4.79268	0.9038	0.76946	1.2319	86.55	-0.235	0.0035	0.2385	1484.3398	0.160681	-385.946419	-385.937893	-385.936948	-385.981305	31.164	
C	 0.4569259262	 1.4408518053	-0.038121455	-0.224965
O	 0.5757770867	 0.0405314126	-0.0976329283	-0.228836
C	 0.1186978266	-0.5976590073	 1.0710003168	-0.145839
C	 0.3270473452	-2.0909476647	 0.9734304169	 0.262932
C	-0.3157678807	-2.9365176568	 1.8811457396	-0.182954
C	-0.114895709	-4.3121658434	 1.8338311797	-0.094505
C	 0.7293792109	-4.8612746773	 0.8702694521	-0.118618
C	 1.3681445995	-4.0240749149	-0.0399965895	-0.096032
C	 1.1709858263	-2.6454695615	 0.0111744161	-0.177594
H	 1.0424831681	 1.8659362364	 0.7926927223	 0.105141
H	 0.8373464436	 1.8415382794	-0.9806255767	 0.128987
H	-0.5910881256	 1.7570778336	 0.0856651006	 0.105228
H	 0.6567052073	-0.2014178761	 1.9520529203	 0.09974
H	-0.9503892244	-0.3776029126	 1.2376631344	 0.095501
H	-0.9809333253	-2.5144009574	 2.6299583148	 0.083421
H	-0.6218631286	-4.9560699567	 2.5452121136	 0.092686
H	 0.8842335536	-5.9343455488	 0.8284416042	 0.092472
H	 2.0242590425	-4.4439580012	-0.7958540564	 0.093174
H	 1.6626447871	-1.9897452685	-0.6963166455	 0.110061
17.4066	78.135	148.4473	219.0774	229.95	343.0207	388.8091	413.5791	478.855	613.1693	630.7626	715.3034	755.7257	828.6534	870.7745	916.6525	958.2898	989.9646	1000.844	1014.3733	1045.8249	1052.3204	1103.9649	1160.8679	1181.6366	1185.137	1199.5596	1222.906	1232.6621	1261.7946	1331.3927	1348.2946	1412.6401	1475.7757	1484.6865	1486.7655	1498.9231	1522.7872	1530.6765	1626.8855	1648.364	2930.3468	2956.3398	2970.3224	3013.1152	3116.3657	3156.2112	3169.7837	3180.9102	3194.7027	3217.0068
COCC1=CC=CC=C1	COCc1ccccc1	
InChI=1S/C8H10O/c1-9-7-8-5-3-2-4-6-8/h2-6H,7H2,1H3	InChI=1S/C8H10O/c1-9-7-8-5-3-2-4-6-8/h2-6H,7H2,1H3
