14
gdb 44215	3.51327	1.48735	1.19221	2.5334	69.39	-0.2538	-0.0736	0.1802	989.9163	0.102469	-436.706551	-436.699765	-436.698821	-436.738036	25.899	
N	 0.1269045083	 1.1194391205	-0.3403849325	-0.53614
C	 0.0242447659	-0.0822241056	-0.0102521473	 0.442755
O	 0.9639457302	-0.9861694425	 0.4452911568	-0.26248
C	-0.0617025144	-2.0278907344	 0.625087708	-0.001533
C	-1.1276381183	-1.0810581411	 0.0495903984	-0.224372
C	-1.4794389176	-1.6916135405	-1.2841012028	-0.061186
C	-0.802935984	-2.8218892396	-1.5330402595	-0.176548
C	 0.0969291333	-3.1636197941	-0.4047817302	 0.380726
O	 0.8217587454	-4.1207670342	-0.2908282906	-0.311293
H	 1.0866612171	 1.4570095637	-0.2496912884	 0.237752
H	-0.1079117392	-2.3606114363	 1.6614950517	 0.119339
H	-1.9819050719	-0.7828656491	 0.6580125806	 0.123799
H	-2.1848317833	-1.2166929131	-1.9559611022	 0.138571
H	-0.8642452815	-3.4285834436	-2.427195362	 0.130611
96.837	156.1514	246.2112	324.4673	421.863	465.281	590.0778	641.1324	687.347	745.1684	797.0401	822.1885	859.8712	877.5642	914.0568	954.7716	961.4847	1003.7523	1008.9645	1030.9315	1109.0805	1182.9297	1198.2733	1212.6079	1261.4368	1286.3972	1310.4835	1362.0933	1634.2235	1824.2711	1828.1879	3115.2082	3130.4204	3205.1041	3232.8778	3480.0827
N=C1OC2C1C=CC2=O	[NH][C]1O[C@H]2[C@@H]1C=CC2=O	
InChI=1S/C6H5NO2/c7-6-3-1-2-4(8)5(3)9-6/h1-3,5,7H	InChI=1S/C6H5NO2/c7-6-3-1-2-4(8)5(3)9-6/h1-3,5,7H/t3-,5-/m0/s1
