17
gdb 67385	2.84898	1.69942	1.50967	4.2373	73.4	-0.2568	0.0255	0.2822	951.6263	0.137356	-417.985674	-417.97851	-417.977566	-418.01708	28.459	
C	-0.057880623	 1.5082134483	-0.0280677199	-0.522212
C	 0.0414787194	 0.0176352136	 0.0140965432	 0.331565
C	 0.4691728568	-1.0343765333	-0.9569336621	-0.103035
C	 1.2450091721	-1.7976106974	 0.1204905845	-0.260911
C	 0.4918071595	-0.9269133082	 1.1677821925	 0.007731
O	-0.7036686297	-1.6045026903	 1.5681809419	-0.245634
C	-1.4710160425	-1.7199010568	 0.4289948898	 0.435082
N	-2.4875691291	-2.4482025607	 0.2931215743	-0.545946
N	-0.9718976074	-0.849735575	-0.5865509145	-0.181083
H	 0.9155223362	 1.9732005329	 0.1590396249	 0.125515
H	-0.4157057989	 1.8332654674	-1.0084165686	 0.144971
H	-0.7606689307	 1.873559979	 0.7286093016	 0.137539
H	 0.6946371974	-0.9651418578	-2.0141943923	 0.11224
H	 1.1111210564	-2.8796765405	 0.2054632726	 0.118862
H	 2.3100535772	-1.5546207225	 0.0765639747	 0.116722
H	 1.0095303293	-0.5579720644	 2.0498602862	 0.100561
H	-2.653384473	-2.9773690843	 1.1494878012	 0.228032
131.0015	188.1968	205.9516	273.0506	390.4676	434.0964	492.9876	602.8096	668.5756	689.6496	709.9253	810.4689	834.8661	877.688	887.6186	891.5632	915.8185	936.8947	976.1335	1005.3739	1027.2434	1086.9317	1090.3903	1122.9058	1149.6195	1171.1919	1190.3203	1234.5422	1269.4049	1295.1655	1355.0914	1405.5194	1448.7865	1482.4617	1486.5893	1490.7764	1788.3115	3036.2397	3057.2339	3099.8628	3115.1012	3122.8073	3154.8756	3193.2321	3494.7895
CC12C3CC1OC(=N)N23	C[C@@]12[C@H]3C[C@@H]1O[C]([NH])N23	
InChI=1S/C6H8N2O/c1-6-3-2-4(6)9-5(7)8(3)6/h3-4,7H,2H2,1H3	InChI=1S/C6H8N2O/c1-6-3-2-4(6)9-5(7)8(3)6/h3-4,7H,2H2,1H3/t3-,4+,6-,8?/m1/s1
