15
gdb 130941	6.35659	0.68567	0.65188	2.3679	68.52	-0.2589	-0.0473	0.2116	1608.4903	0.111071	-453.930404	-453.922054	-453.921109	-453.965391	28.536	
O	-0.2528323281	 0.0026494153	-0.0895054686	-0.229712
C	-0.0234296815	 1.1766123102	 0.0375964246	 0.155599
C	 1.3366071414	 1.816432207	-0.1304934769	-0.269386
C	 1.3037798906	 2.9573120082	-1.1717672458	-0.331966
C	 2.5893916568	 3.7132625716	-1.2332667819	 0.265572
C	 3.5204252335	 3.8491677709	-2.2133680094	-0.052012
O	 4.5062799932	 4.6312992182	-1.7795514444	-0.158376
N	 4.1604843095	 4.999973792	-0.4435107427	 0.003153
N	 3.0620687639	 4.4569273809	-0.1680887052	-0.170545
H	-0.8370283463	 1.8954292506	 0.2964956964	 0.075964
H	 1.6309994408	 2.2412167727	 0.8386789849	 0.147645
H	 2.0621579735	 1.0457819302	-0.4031071666	 0.128672
H	 1.0786428443	 2.5510596562	-2.1628682442	 0.128136
H	 0.4916045744	 3.6510768765	-0.9216107445	 0.134991
H	 3.6006465641	 3.4654898595	-3.2173043557	 0.172266
42.1423	66.4013	75.9627	121.1634	279.9928	316.5639	367.3626	517.9334	633.5178	639.9584	696.0375	743.2181	775.7918	852.8242	854.2881	983.6011	991.9523	1038.9997	1069.4244	1087.8548	1151.2544	1191.6337	1258.1022	1269.7203	1293.2746	1351.1867	1374.0457	1428.953	1464.0178	1467.7234	1486.1556	1623.8895	1839.8001	2851.6065	3029.906	3036.3637	3084.4089	3113.5642	3283.9081
O=CCCC1=CON=N1	O=CCCc1conn1	
InChI=1S/C5H6N2O2/c8-3-1-2-5-4-9-7-6-5/h3-4H,1-2H2	InChI=1S/C5H6N2O2/c8-3-1-2-5-4-9-7-6-5/h3-4H,1-2H2
