17
gdb 18619	3.06051	2.057	1.72467	3.8567	67.91	-0.2364	0.0315	0.2678	836.8466	0.144231	-363.899788	-363.892537	-363.891593	-363.93114	27.708	
C	-0.0854193027	 1.5604926498	 0.038270509	-0.419558
C	 0.0529067034	 0.0564978256	-0.0562815793	-0.004104
C	 0.7037417807	-0.6726318085	-1.2001103208	-0.07257
C	 1.6441388225	 0.1086846077	-2.1185120677	-0.187843
N	 2.6863846064	 0.5731725772	-1.2200497838	-0.305602
C	 2.6369667898	 0.0728915219	 0.0604748849	 0.404902
O	 3.4826220208	 0.2316868626	 0.9139573642	-0.385061
C	 1.3503960544	-0.7044671726	 0.1723934026	-0.177124
H	 0.7893131063	 2.0836693039	-0.354094466	 0.1321
H	-0.9631104238	 1.9005854056	-0.522576338	 0.116404
H	-0.2163154085	 1.8693799453	 1.080341022	 0.128477
H	-0.8051683817	-0.4764422926	 0.3474564811	 0.094596
H	 0.21339551	-1.5435511637	-1.6176135066	 0.09492
H	 2.0495804242	-0.5470760031	-2.9005405737	 0.112058
H	 1.1389445136	 0.946502995	-2.6171493344	 0.111862
H	 3.4750763885	 1.1234975605	-1.5192204752	 0.249858
H	 1.3582567561	-1.5693141045	 0.8227215517	 0.106686
108.6317	180.014	199.4957	223.3023	379.5382	444.0275	468.7846	524.9771	619.719	706.52	764.6018	776.6764	804.6766	862.7179	930.0311	958.8814	1005.0945	1017.7469	1063.8949	1081.0605	1091.6543	1130.0693	1137.3652	1216.3101	1226.021	1253.3686	1314.0538	1340.7681	1365.517	1416.8047	1430.6279	1453.6584	1498.2476	1500.5978	1531.1353	1825.3345	3005.3843	3031.9131	3036.6404	3095.1287	3118.9274	3136.4721	3182.0946	3203.1386	3648.3459
CC1C2CNC(=O)C12	C[C@H]1[C@H]2CNC(=O)[C@@H]12	
InChI=1S/C6H9NO/c1-3-4-2-7-6(8)5(3)4/h3-5H,2H2,1H3,(H,7,8)	InChI=1S/C6H9NO/c1-3-4-2-7-6(8)5(3)4/h3-5H,2H2,1H3,(H,7,8)/t3-,4+,5-/m0/s1
