15
gdb 29870	3.32862	1.41004	0.99671	6.6819	73.09	-0.2207	-0.0266	0.1942	1122.2226	0.114572	-454.006984	-453.999341	-453.998397	-454.039289	28.487	
C	-0.0140548746	 1.4797320657	 0.0208437298	-0.346425
N	-0.0012424774	 0.0225513805	 0.0190667053	-0.050129
C	-0.0354157028	-0.6884069334	-1.1325575812	 0.096152
N	-0.0256349062	-1.9832498178	-1.2347861871	-0.348799
C	 0.0243973509	-2.7341060937	-0.07739708	 0.338355
O	 0.038409913	-3.9624232417	-0.042071939	-0.412037
C	 0.0631482309	-2.0110860371	 1.2055492338	 0.213568
O	 0.1105242872	-2.7867212093	 2.2937663655	-0.41991
C	 0.0497821753	-0.6601923272	 1.227760137	-0.108126
H	 0.8940667402	 1.8710968065	 0.4897268714	 0.154228
H	-0.0621425972	 1.8388325149	-1.0077477173	 0.153159
H	-0.8851365293	 1.8546329347	 0.5669435526	 0.15422
H	-0.0745548808	-0.0866858269	-2.0382158693	 0.130883
H	 0.1062027172	-3.6910405028	 1.9106287864	 0.308216
H	 0.0761284737	-0.0647713525	 2.1301575322	 0.136643
95.9922	141.0462	191.5375	302.9026	347.8903	349.3509	423.5983	482.3094	532.7313	559.3206	636.2717	711.2019	713.8113	814.9003	843.7149	846.2276	949.0896	1038.5103	1085.3102	1153.1225	1194.9459	1200.2037	1278.2908	1333.4828	1415.1023	1439.9283	1469.1869	1480.184	1494.1623	1532.162	1606.8996	1706.3011	1734.6974	3041.014	3103.6524	3147.2333	3155.3723	3224.5175	3515.1343
CN1C=NC(=O)C(O)=C1	Cn1cnc(=O)c(O)c1	
InChI=1S/C5H6N2O2/c1-7-2-4(8)5(9)6-3-7/h2-3,8H,1H3	InChI=1S/C5H6N2O2/c1-7-2-4(8)5(9)6-3-7/h2-3,8H,1H3
