21
gdb 5866	3.99485	0.95705	0.94176	4.3006	79.28	-0.3109	0.0387	0.3496	1338.8243	0.186677	-329.16033	-329.150452	-329.149508	-329.194988	36.071	
C	-0.0766749952	 1.5597792943	 0.0822846769	-0.405981
C	 0.0089546438	 0.0223991215	 0.0414072544	 0.254179
C	 0.6919139485	-0.4937760035	 1.3218851642	-0.405966
C	-1.416939073	-0.556245022	-0.0330972074	-0.40693
C	 0.7658032247	-0.4569367956	-1.2218298641	-0.182317
C	 2.2300251235	 0.0180444185	-1.3432402202	-0.364255
C	 2.8643638448	-0.4805009459	-2.5616655247	 0.261295
N	 3.3510038993	-0.8830373541	-3.5295729624	-0.30689
H	 0.907354277	 2.0257621334	 0.1975149268	 0.111254
H	-0.5334650465	 1.9570464346	-0.8309477997	 0.114179
H	-0.688992859	 1.8872302546	 0.9290396042	 0.116131
H	 0.102803153	-0.2258532233	 2.205241485	 0.116128
H	 0.7911419327	-1.5848340423	 1.3074546801	 0.114185
H	 1.6903775411	-0.0660203799	 1.4590829376	 0.11125
H	-1.9394911114	-0.2075413546	-0.93036968	 0.113539
H	-1.3991602814	-1.6511105735	-0.0596933046	 0.113539
H	-2.0071708033	-0.2520253716	 0.8375869596	 0.112618
H	 0.7569445231	-1.5526126461	-1.2484973723	 0.114369
H	 0.2213170954	-0.1221919625	-2.1122101932	 0.114364
H	 2.2874881858	 1.1115616871	-1.3539210293	 0.152656
H	 2.8241446871	-0.3213322191	-0.4882191311	 0.152652
53.7636	87.1259	127.2429	221.8895	237.0456	262.7517	270.6904	332.7079	333.1256	391.575	393.4988	420.7812	477.4243	542.7519	752.9274	761.1204	915.0119	932.323	937.9256	949.6607	961.5876	970.04	1020.7636	1064.2438	1081.4575	1180.0453	1219.0907	1268.0284	1269.0006	1299.4028	1341.2469	1382.3053	1403.6921	1404.8601	1437.5661	1467.6404	1482.5934	1483.6159	1485.7272	1490.2048	1510.5493	1511.3751	1519.0627	2361.3401	3025.7106	3026.1119	3029.8342	3037.6534	3052.8536	3069.6426	3092.0676	3094.3351	3095.3578	3098.6699	3099.5915	3100.161	3102.8499
CC(C)(C)CCC#N	CC(C)(C)CCC#N	
InChI=1S/C7H13N/c1-7(2,3)5-4-6-8/h4-5H2,1-3H3	InChI=1S/C7H13N/c1-7(2,3)5-4-6-8/h4-5H2,1-3H3
