16
gdb 45399	2.19446	1.75885	1.2592	3.8004	76.47	-0.2409	0.0172	0.2581	1032.8077	0.124119	-400.721767	-400.713799	-400.712854	-400.75424	30.542	
O	-0.0241872154	 0.0335584372	 0.0974401528	-0.346591
C	-0.0158254993	 1.2278906779	 0.0067171629	 0.374056
N	-1.0136810226	 2.1806947846	 0.0130631095	-0.324818
C	-0.130830811	 3.3453192242	 0.0084458631	-0.029302
C	 0.3528585647	 3.8120802551	 1.4066803816	-0.22786
C	 1.5204427733	 2.7851964827	 1.3562189575	-0.280991
C	 1.0818463086	 2.3352543416	-0.086405033	 0.040057
C	 2.0484651913	 2.2902039839	-1.1416501643	 0.178437
C	 2.8662855007	 2.2547432793	-2.0230731054	-0.404812
H	-1.9612863319	 2.0916956564	 0.3552942383	 0.249938
H	-0.3501972071	 4.0876901089	-0.7584483301	 0.100339
H	 0.6996774255	 4.8478199579	 1.4084558918	 0.116119
H	-0.3767920713	 3.6871557335	 2.2096680273	 0.107349
H	 2.5068726621	 3.2493471343	 1.3535448338	 0.128136
H	 1.5105086974	 1.9832952562	 2.0963820002	 0.125953
H	 3.5846098449	 2.2120280663	-2.8040031158	 0.19399
112.061	123.0028	161.1995	211.3291	349.3744	381.5657	472.6607	522.8932	527.2109	614.2883	635.0239	656.6487	660.9404	727.5696	755.6113	827.8981	881.0187	893.888	955.9655	1005.0345	1031.0385	1081.9619	1106.7947	1135.1777	1197.7321	1220.9614	1240.1338	1268.5454	1302.4499	1338.56	1366.1661	1472.8878	1490.1145	1898.5944	2234.6327	3069.546	3084.4304	3114.9719	3122.5179	3144.6609	3501.3831	3583.3578
O=C1NC2CCC12C#C	O=C1N[C@H]2CC[C@@]12C#C	
InChI=1S/C7H7NO/c1-2-7-4-3-5(7)8-6(7)9/h1,5H,3-4H2,(H,8,9)	InChI=1S/C7H7NO/c1-2-7-4-3-5(7)8-6(7)9/h1,5H,3-4H2,(H,8,9)/t5-,7+/m0/s1
