22
gdb 107411	3.06318	1.17944	1.05666	1.3375	81.68	-0.2192	0.0706	0.2898	1260.6473	0.194856	-404.337922	-404.328936	-404.327992	-404.371317	35.116	
C	-0.3558986166	 1.5021524749	-0.1181740592	-0.38097
C	-0.0260475438	 0.0052096642	-0.0640417815	-0.27042
C	 0.8893982317	-0.4431202419	-1.1817114865	 0.349408
C	 0.3393004484	-0.8728855166	-2.4968406534	-0.296213
N	 0.8702148088	-1.8776318905	-1.5518408386	-0.145707
C	 2.2586649325	-2.2736053112	-1.8289603263	-0.181933
C	 3.1270427686	-1.0000240505	-1.9756279695	 0.07877
O	 3.2450456274	-0.547187908	-3.3256662432	-0.425256
C	 2.3335525028	 0.0563275938	-1.1880151107	-0.27597
H	 0.5445383569	 2.1171519943	-0.0163954488	 0.116764
H	-0.8309814612	 1.766388126	-1.0689120075	 0.118659
H	-1.0398129339	 1.7818095551	 0.6888068382	 0.112665
H	 0.4408259078	-0.23586538	 0.9007373129	 0.091305
H	-0.9477781478	-0.5838031671	-0.1170068203	 0.105906
H	-0.7386354412	-0.9227661183	-2.6310319412	 0.103471
H	 0.9110130699	-0.6502077989	-3.3917144741	 0.130143
H	 2.610508483	-2.8683517735	-0.9772878094	 0.103913
H	 2.312249934	-2.9093565915	-2.7206902555	 0.094495
H	 4.1293065547	-1.1512631765	-1.5511683156	 0.069135
H	 3.662865782	-1.2482714812	-3.8362216864	 0.281598
H	 2.4596399782	 1.0414444664	-1.6441222523	 0.120848
H	 2.7018380279	 0.1146905711	-0.1571942314	 0.099388
87.1993	126.4086	173.2992	210.8982	268.7707	311.3613	332.9136	393.8875	407.6435	420.9963	468.1516	613.0858	700.8198	770.0396	786.8167	814.1655	831.2143	901.6872	915.7945	926.5779	970.1076	984.844	1012.3591	1047.1812	1069.2179	1088.329	1113.0406	1125.7422	1177.908	1199.1737	1212.9458	1245.9695	1263.978	1284.9831	1324.5883	1342.0838	1352.2895	1365.2222	1396.0031	1411.727	1423.6017	1475.0201	1483.7603	1485.0688	1498.8104	1508.2978	1510.9583	2996.2819	3015.9257	3026.8858	3034.1475	3044.9696	3067.8244	3068.5696	3101.5281	3103.8077	3106.4351	3107.6273	3207.5637	3815.2411
CCC12CN1CC(O)C2	CC[C@]12CN1C[C@@H](O)C2	
InChI=1S/C7H13NO/c1-2-7-3-6(9)4-8(7)5-7/h6,9H,2-5H2,1H3	InChI=1S/C7H13NO/c1-2-7-3-6(9)4-8(7)5-7/h6,9H,2-5H2,1H3/t6-,7-,8?/m0/s1
