17
gdb 111744	3.14188	1.08259	0.92894	1.6747	70.86	-0.254	-0.0321	0.2218	1257.6941	0.13459	-458.916834	-458.908166	-458.907222	-458.950765	31.329	
O	 0.0587615399	 1.391116436	-0.4011141986	-0.411413
C	 0.0868468935	 0.0757654796	 0.128548456	-0.099061
C	-1.295965775	-0.5427790226	 0.1431614095	-0.136445
C	-1.8905653181	-1.256627067	-1.0128021804	 0.045759
O	-0.9341225298	-1.9785362537	-1.7729902159	-0.278616
C	-0.6316780609	-2.8387278034	-0.6344641129	-0.152462
C	-1.5577821028	-2.0445777707	 0.2795148188	 0.156305
C	-2.4671448195	-2.6310621417	 1.2664600501	 0.058221
O	-2.4601656194	-3.7988930064	 1.5812018661	-0.27046
H	-0.1520379457	 1.3217631008	-1.3381213407	 0.290055
H	 0.784809315	-0.563570593	-0.4255580153	 0.110039
H	 0.4612592392	 0.17083434	 1.1524324922	 0.121231
H	-2.0317240501	 0.0413043641	 0.6948840859	 0.110969
H	-2.8492749131	-1.0399557032	-1.4716468252	 0.123774
H	-1.0032390459	-3.8516532583	-0.8097714768	 0.140063
H	 0.4366926842	-2.8633021812	-0.4009070636	 0.120054
H	-3.1888938115	-1.9121686591	 1.7172158209	 0.071988
62.5738	97.9758	166.2475	210.9275	235.1117	264.6245	317.125	356.7769	399.9293	551.2502	606.2774	718.4349	765.1813	798.0291	911.6599	939.0524	965.3603	976.6197	1013.7522	1054.9202	1063.5645	1070.1342	1086.0305	1118.2261	1152.7664	1195.671	1235.1328	1270.79	1331.5253	1345.2242	1398.5517	1414.5633	1426.8492	1466.8562	1495.7768	1521.1253	1794.8387	2869.7178	3030.6694	3055.35	3086.675	3112.3656	3130.4067	3177.9943	3815.3466
OCC1C2OCC12C=O	OC[C@H]1[C@H]2OC[C@@]12C=O	
InChI=1S/C6H8O3/c7-1-4-5-6(4,2-8)3-9-5/h2,4-5,7H,1,3H2	InChI=1S/C6H8O3/c7-1-4-5-6(4,2-8)3-9-5/h2,4-5,7H,1,3H2/t4-,5+,6-/m0/s1
