27
gdb 117716	3.07552	0.67677	0.64221	1.3593	92.9	-0.2605	0.074	0.3345	1933.163	0.249307	-390.698541	-390.686261	-390.685317	-390.736922	44.42	
C	 0.0724473773	 1.6657215589	-0.1552051146	-0.375814
C	 0.0020228818	 0.1428096818	 0.0016493771	-0.194432
C	 0.6682710531	-0.589281476	-1.1710023538	-0.164604
C	 0.6724279293	-2.1420622866	-1.1466706989	 0.237693
C	 1.4233481348	-2.6533799195	 0.0985901069	-0.410059
C	-0.7725595414	-2.6785678268	-1.1336715924	-0.410056
C	 1.4023572343	-2.5905883225	-2.4383099364	-0.170305
C	 1.5533830675	-4.0903284528	-2.6770048466	-0.102908
O	 2.2469069362	-4.2423673125	-3.9107432171	-0.420702
H	 1.1109519701	 2.0115175257	-0.2082233136	 0.113172
H	-0.4296601428	 1.9937556975	-1.0723520279	 0.113173
H	-0.4056715154	 2.1762984576	 0.6867166073	 0.108789
H	 0.481128978	-0.1405542155	 0.9461673521	 0.097094
H	-1.0486343969	-0.1581900483	 0.0880652801	 0.097093
H	 0.18278543	-0.2647278906	-2.1022059915	 0.086993
H	 1.7102117496	-0.2472145625	-1.2452867365	 0.086992
H	 0.9397457852	-2.319966385	 1.0214965345	 0.11209
H	 1.4513681664	-3.7468694396	 0.130856586	 0.108973
H	 2.4579446596	-2.2921851276	 0.1130558588	 0.108123
H	-1.3301000942	-2.3356208819	-2.0126443729	 0.108127
H	-0.7956140719	-3.7726445351	-1.130091694	 0.108978
H	-1.3141392997	-2.345841389	-0.2432928592	 0.112084
H	 0.8800752703	-2.1729364951	-3.3083684303	 0.09823
H	 2.4097024245	-2.1554686109	-2.4500492364	 0.098214
H	 2.1145213648	-4.560392289	-1.8551916972	 0.084875
H	 0.56787474	-4.5781148679	-2.7224339614	 0.084877
H	 2.3527018093	-5.1830986166	-4.0790681623	 0.283311
29.8098	67.3214	90.9028	109.0231	119.2864	239.9348	242.0745	260.1726	260.4295	273.8721	306.8454	331.3167	335.2154	343.4007	413.0265	446.7317	584.6826	744.4729	758.3703	795.8177	867.9991	878.1696	940.435	940.7857	990.3604	993.4209	1020.0305	1024.5688	1054.6549	1068.9062	1112.2725	1121.387	1200.9478	1216.4126	1233.5393	1255.2838	1266.6208	1295.3241	1325.4058	1326.6974	1354.413	1363.8492	1397.3515	1403.9701	1413.2724	1427.4208	1461.3329	1474.0225	1482.8247	1489.0716	1494.1811	1498.4635	1502.7662	1509.0762	1509.2939	1517.7877	1530.7032	2976.3375	2998.4623	3001.9231	3022.0361	3027.8552	3029.3066	3030.2801	3032.4121	3036.685	3063.0571	3067.4279	3096.1505	3096.5729	3099.0426	3100.2806	3103.22	3106.8002	3829.6196
CCCC(C)(C)CCO	CCCC(C)(C)CCO	
InChI=1S/C8H18O/c1-4-5-8(2,3)6-7-9/h9H,4-7H2,1-3H3	InChI=1S/C8H18O/c1-4-5-8(2,3)6-7-9/h9H,4-7H2,1-3H3
