14
gdb 128046	7.16163	0.79361	0.71761	1.6593	69.14	-0.2619	-0.0396	0.2222	1495.82	0.101389	-466.156081	-466.147965	-466.147021	-466.191091	27.548	
C	-0.0289998974	 1.3684295217	 0.051938813	-0.320831
N	 0.1703129343	-0.0670327201	 0.0882353105	-0.189894
C	 0.5977171776	-0.6146910652	-0.9518163006	 0.108116
O	 0.7917562456	-1.9798290969	-0.9307262237	-0.220432
C	 1.2482718337	-2.575432549	-2.0369982777	 0.522777
N	 1.4493704648	-3.8865083442	-2.0609231557	-0.302517
N	 1.8863245922	-4.0270345231	-3.3096551196	-0.05491
N	 1.9567137955	-2.9148949442	-4.0122705299	-0.09928
N	 1.5480764176	-1.9620183846	-3.2074535954	-0.283868
H	 0.5780590668	 1.8350297466	 0.8349651654	 0.137961
H	 0.2241118278	 1.8336548091	-0.9129312199	 0.108532
H	-1.075871747	 1.5914414871	 0.2836487958	 0.13796
H	 0.8464602152	-0.1443135132	-1.9057455173	 0.146144
H	 2.1463370535	-4.9233445641	-3.693597405	 0.310242
13.9021	73.9242	131.1084	208.1844	294.351	326.5984	356.6228	415.6886	562.3135	575.3483	729.6388	776.6164	824.7128	977.9716	1029.8483	1050.3528	1070.7223	1141.0905	1141.9049	1159.1505	1182.0047	1212.5424	1279.8625	1368.3191	1387.8689	1447.3917	1480.931	1502.2235	1505.0636	1579.0992	1786.7904	2986.1133	3073.0326	3091.6772	3110.2673	3651.5581
CN=COC1=NNN=N1	CN=COc1n[nH]nn1	
InChI=1S/C3H5N5O/c1-4-2-9-3-5-7-8-6-3/h2H,1H3,(H,5,6,7,8)	InChI=1S/C3H5N5O/c1-4-2-9-3-5-7-8-6-3/h2H,1H3,(H,5,6,7,8)
