17
gdb 106134	2.96265	1.6	1.42943	2.3257	70.67	-0.2478	-0.0097	0.2382	965.658	0.137716	-417.957568	-417.950301	-417.949357	-417.989547	28.386	
O	 0.0845690394	 1.4221430125	-0.2410420087	-0.409529
C	 0.0408854566	 0.0340106554	 0.0403920301	-0.205858
C	-1.3609142281	-0.481180235	 0.1304192749	 0.328859
C	-1.9815273157	-1.8074448414	-0.1133060068	-0.103083
C	-2.8643110992	-1.6765793354	 1.127284324	-0.235844
C	-2.5236110125	-0.1439635254	 1.1279763749	-0.081761
N	-3.5784456139	 0.4968723272	 0.3270525795	-0.180776
C	-3.3557673665	 0.1009968433	-0.8608976685	 0.023462
N	-2.1650238075	-0.662782765	-1.0977810648	-0.204837
H	-0.3599349337	 1.5538459265	-1.0858104224	 0.292398
H	 0.5873590461	-0.5570213472	-0.7105325701	 0.101609
H	 0.5510761125	-0.0961623206	 1.0010509813	 0.116399
H	-1.5714825957	-2.7138798239	-0.5419042873	 0.109788
H	-3.92321271	-1.9410164125	 1.0696900518	 0.112222
H	-2.3884005578	-2.1905587129	 1.96582338	 0.117944
H	-2.3312630997	 0.3547100018	 2.07442354	 0.091036
H	-4.0065836043	 0.3099229727	-1.703859988	 0.12797
70.4242	125.2531	270.8623	336.819	384.1077	411.0884	450.881	564.3679	623.9007	706.7687	752.8933	821.3493	847.4716	891.1112	898.545	918.5145	961.9308	970.85	986.2761	997.7621	1048.4922	1082.3826	1101.743	1131.5668	1140.8128	1168.3192	1232.3748	1239.8888	1261.167	1288.7836	1315.5113	1369.1553	1408.4311	1442.4601	1482.7359	1487.4747	1662.3602	2990.922	3062.1124	3072.002	3122.3494	3153.7014	3190.9574	3196.7273	3806.5999
OCC12C3CC1N=CN23	OC[C@@]12[C@H]3C[C@@H]1[N][CH]N23	
InChI=1S/C6H8N2O/c9-2-6-4-1-5(6)8(6)3-7-4/h3-5,9H,1-2H2	InChI=1S/C6H8N2O/c9-2-6-4-1-5(6)8(6)3-7-4/h3-5,9H,1-2H2/t4-,5+,6-,8?/m0/s1
