15
gdb 132191	1.96483	1.81302	0.94852	5.6906	73.36	-0.2121	-0.017	0.1951	1154.4714	0.112849	-458.138316	-458.130229	-458.129284	-458.171222	29.908	
C	 0.0564778844	 1.4913194262	 0.0310387908	-0.488269
C	-0.0095030472	-0.0076561793	-0.0385795425	 0.391222
N	 0.0769590203	-0.6289347763	-1.1574075577	-0.347685
C	 0.012155632	-2.0463588769	-1.2012831251	 0.337644
N	 0.0948580232	-2.6989616406	-2.2998402747	-0.540009
C	-0.1552098614	-2.7495008892	 0.0714431841	-0.327053
C	-0.2368005966	-2.0272986783	 1.1911058063	 0.384863
F	-0.3883980798	-2.5247408557	 2.4095593578	-0.060013
N	-0.1679358772	-0.653595001	 1.1756100497	-0.416238
H	 0.8974444421	 1.8174519567	 0.6534924677	 0.14201
H	 0.181989123	 1.8861732019	-0.9757379263	 0.166941
H	-0.8602342101	 1.9033490982	 0.4679784264	 0.142084
H	 0.2074348142	-2.0300365916	-3.0643961734	 0.210904
H	-0.2100336558	-3.82797207	 0.0908695842	 0.131993
H	-0.2337765612	-0.1471482141	 2.0435955726	 0.271606
100.7965	116.9489	174.3473	237.8185	290.6235	356.7058	357.6886	499.7299	518.5485	561.9159	576.6372	619.1019	649.371	739.3345	861.755	905.0601	907.5601	976.4725	1000.1814	1059.7028	1071.0608	1126.4304	1206.8555	1246.5203	1354.747	1373.7616	1407.9407	1468.8325	1482.5574	1504.95	1669.6415	1694.3424	1756.5799	3036.9099	3092.6836	3171.4605	3247.617	3460.0738	3651.9133
CC1=NC(=N)C=C(F)N1	C[C@@H]1N=C([NH])C=C(F)N1	
InChI=1S/C5H6FN3/c1-3-8-4(6)2-5(7)9-3/h2H,1H3,(H2,7,8,9)	InChI=1S/C5H7FN3/c1-3-8-4(6)2-5(7)9-3/h2-3,7-8H,1H3/t3-/m0/s1
