16
gdb 66677	4.12486	1.22732	1.16203	3.2551	75.58	-0.2315	-0.0257	0.2058	1087.7902	0.122608	-400.643215	-400.635587	-400.634642	-400.675407	28.888	
C	 0.0172630837	 1.5081161904	 0.0370525343	-0.523323
C	-0.0543733557	 0.0247944152	-0.0657091188	 0.367524
C	 0.5502221884	-0.9845227803	-1.0842426748	-0.229592
C	 0.8167867682	-1.8930231025	 0.0569551477	-0.062606
N	 0.2645727425	-0.9080174079	 1.0788127945	-0.211905
C	-1.0719584565	-0.9712667073	 0.3688470937	-0.197729
C	-0.5445392511	-2.0092774157	-0.6338803747	 0.308715
C	-1.1124523452	-3.096789843	-1.409348553	 0.007188
O	-2.2830712085	-3.4070513213	-1.4116985272	-0.278878
H	 1.05616613	 1.854711691	 0.021588481	 0.133281
H	-0.518430696	 1.9866338319	-0.7898021558	 0.131661
H	-0.4366124898	 1.8356888622	 0.9771946159	 0.142961
H	 0.9966210578	-0.8982128763	-2.0652443871	 0.115577
H	 1.5681839333	-2.6481503334	 0.2502097477	 0.118968
H	-2.0151162182	-0.8642743768	 0.8890800835	 0.113681
H	-0.3608969029	-3.6476730661	-2.0226286869	 0.064477
96.6214	144.5299	203.1475	231.8859	276.2261	327.7904	449.1689	604.734	654.2931	679.0549	726.3458	764.7742	827.4336	857.3775	860.9956	896.9382	935.292	979.1251	988.0125	1014.9905	1037.9635	1038.5648	1078.5081	1103.9858	1149.4007	1183.0007	1257.8835	1311.5213	1389.2158	1397.3941	1439.3167	1447.6913	1477.2201	1489.5879	1787.4175	2850.801	3032.3128	3098.0667	3113.926	3194.7354	3202.3557	3218.9754
CC12C3C4N1C2C34C=O	C[C@@]12[C@H]3[C@H]4N1[C@@H]2[C@@]34C=O	
InChI=1S/C7H7NO/c1-6-3-4-7(3,2-9)5(6)8(4)6/h2-5H,1H3	InChI=1S/C7H7NO/c1-6-3-4-7(3,2-9)5(6)8(4)6/h2-5H,1H3/t3-,4-,5+,6+,7+,8?/m1/s1
