23
gdb 109534	1.93555	1.26354	1.08898	1.2003	82.4	-0.2433	0.0619	0.3052	1306.4638	0.201923	-425.412484	-425.40118	-425.400236	-425.44805	41.928	
C	 1.2943867766	 1.2627442948	-0.5429998557	-0.461849
C	 0.7769286565	-0.1333868555	-0.2340490402	 0.255981
C	-0.2022858684	-0.634635347	-1.2828393791	-0.438583
C	 1.6975956239	-1.1775986462	 0.4123331539	-0.165546
C	 3.1636947554	-0.9455214828	 0.6942209971	-0.087634
O	 3.9789343059	-1.1974105323	-0.4446603254	-0.418624
C	 0.5582954457	-0.5558298541	 1.2027050006	 0.337777
C	 0.7936482385	 0.3739308144	 2.3757914186	-0.450063
O	-0.5799495489	-1.3647603733	 1.3984503164	-0.461848
H	 2.0503953351	 1.6184525781	 0.1596130608	 0.116429
H	 1.736827917	 1.2933287511	-1.5465378602	 0.110437
H	 0.4720548308	 1.9874137627	-0.534835221	 0.122401
H	 0.2880187603	-0.7045020447	-2.2610702506	 0.104015
H	-0.6031701847	-1.6142206581	-1.022620478	 0.132537
H	-1.0489246151	 0.0543552675	-1.386050627	 0.112907
H	 1.491213966	-2.195333355	 0.0878264077	 0.088717
H	 3.3416193202	 0.0658183391	 1.0870297256	 0.081363
H	 3.5158566127	-1.646322705	 1.4598863786	 0.107377
H	 3.6439332872	-0.6482495616	-1.1607896067	 0.281618
H	 1.6588028368	 1.0251726957	 2.2423366231	 0.118318
H	-0.0892839862	 1.0005097954	 2.537541646	 0.127351
H	 0.9606624865	-0.2072894538	 3.2913462429	 0.107969
H	-0.3777569517	-1.9887383791	 2.1042957324	 0.278947
75.3175	132.3783	156.8475	182.3809	185.576	207.9926	229.1555	259.4121	277.1619	304.9759	320.0438	357.4858	374.624	438.6206	454.3352	492.5537	587.4875	678.8069	693.2605	837.2851	954.2202	965.742	978.3333	994.4053	1021.2261	1034.0397	1053.4681	1081.0351	1120.5311	1159.9959	1175.8068	1204.0913	1225.7389	1283.4392	1305.5692	1322.4947	1377.4145	1405.8622	1412.912	1417.0391	1429.8569	1452.6872	1478.9884	1486.4025	1491.0384	1495.3985	1505.8679	1509.7147	1523.8215	2995.7479	3022.1813	3026.3193	3029.1601	3057.1084	3074.8781	3079.3467	3088.721	3117.9246	3132.9995	3138.9082	3146.6875	3794.7535	3816.2935
CC1(C)C(CO)C1(C)O	CC1(C)[C@@H](CO)[C@]1(C)O	
InChI=1S/C7H14O2/c1-6(2)5(4-8)7(6,3)9/h5,8-9H,4H2,1-3H3	InChI=1S/C7H14O2/c1-6(2)5(4-8)7(6,3)9/h5,8-9H,4H2,1-3H3/t5-,7+/m1/s1
