17
gdb 46071	3.96946	1.04451	0.91242	4.652	68.68	-0.2593	0.0466	0.3059	1259.2937	0.138401	-455.162382	-455.154518	-455.153574	-455.195604	29.058	
O	 0.2045107014	 0.0197163926	-0.3187174774	-0.385487
C	 0.0611812501	 1.191992231	-0.1203662188	 0.47325
N	-1.0931957243	 1.8618485886	 0.2419072168	-0.355111
C	-0.9552601605	 3.2984573697	 0.0792892583	-0.042114
C	 0.5880905184	 3.4014609033	 0.1637529812	-0.097732
O	 1.0731078705	 2.1089498783	-0.2119628001	-0.236374
C	-1.5302332136	 3.815011501	-1.224590124	 0.01452
C	-2.9422353988	 4.26844585	-1.2857023259	-0.25269
N	-1.841087162	 5.2429490855	-1.377583238	-0.316146
H	-1.9678837807	 1.395084584	 0.0610973586	 0.261736
H	-1.4231206868	 3.8391181634	 0.912509699	 0.085793
H	 1.0000395726	 4.1449999422	-0.5215604268	 0.13818
H	 0.9188866819	 3.6241401459	 1.1838831523	 0.12229
H	-1.0891537212	 3.3663951574	-2.113702453	 0.111777
H	-3.5177983726	 4.139636256	-2.1973218791	 0.131581
H	-3.5291359477	 4.2315969905	-0.3703854991	 0.114849
H	-1.7323184167	 5.7244863206	-0.486715294	 0.231679
75.4078	82.7597	151.7851	221.0467	312.2417	359.652	442.7397	504.9483	553.7662	718.9797	768.3788	781.7075	806.5449	874.2462	895.4472	928.2909	960.2545	978.2468	999.985	1060.8483	1083.7051	1120.3795	1143.4633	1160.1601	1205.1911	1213.5781	1250.5916	1252.7021	1289.1446	1298.6464	1343.717	1404.4545	1413.8869	1442.3389	1511.256	1518.3793	1896.7405	3014.5135	3047.6349	3105.8329	3114.9235	3122.6068	3194.5815	3479.5737	3645.9519
O=C1NC(CO1)C1CN1	O=C1N[C@@H](CO1)[C@H]1CN1	
InChI=1S/C5H8N2O2/c8-5-7-4(2-9-5)3-1-6-3/h3-4,6H,1-2H2,(H,7,8)	InChI=1S/C5H8N2O2/c8-5-7-4(2-9-5)3-1-6-3/h3-4,6H,1-2H2,(H,7,8)/t3-,4+/m1/s1
