15
gdb 129429	2.82972	1.5259	0.99322	0.6718	70.27	-0.2106	0.0036	0.2142	1106.0562	0.115445	-450.189172	-450.181042	-450.180097	-450.221705	30.896	
N	 0.0175172919	 1.3390697827	-0.0618614524	-0.545991
C	 0.0343563723	-0.0315652821	-0.0251737428	 0.326826
O	 1.0982305337	-0.6518315512	-0.0626946083	-0.409652
C	-1.2565246241	-0.7101470565	 0.0188051884	 0.057513
C	-1.3734338934	-2.1047390192	 0.0592214898	 0.368174
N	-0.3850216897	-3.0451481267	 0.1677997013	-0.602657
N	-2.6974260608	-2.3695515462	 0.0448208545	-0.276158
N	-3.4760804464	-1.2414212271	-0.0078695131	-0.235737
C	-2.602358921	-0.2542381594	-0.0211421314	-0.107257
H	 0.9084750434	 1.7935373942	 0.0601986246	 0.258172
H	-0.8007116086	 1.8477022286	 0.2270279204	 0.257611
H	 0.5237865964	-2.618740216	 0.0009019206	 0.284707
H	-0.5367722223	-3.9233492279	-0.3058778999	 0.249697
H	-3.1465824068	-3.2675057144	 0.1006243103	 0.269594
H	-2.9643592145	 0.7634555311	-0.0746950119	 0.105159
85.543	182.3866	203.1366	286.8226	320.1766	337.1568	372.7103	441.7898	468.0176	508.044	528.2079	660.3575	670.5907	690.513	721.8471	753.7715	803.7067	881.323	945.2304	1080.6689	1083.6688	1112.4098	1182.06	1240.1356	1342.7869	1360.033	1422.9006	1480.1262	1571.5598	1582.607	1621.6874	1659.4549	1734.0804	3227.9287	3476.0212	3595.9749	3637.7013	3676.5424	3724.6724
NC(=O)C1=C(N)NN=C1	NC(=O)c1c(N)[nH]nc1	
InChI=1S/C4H6N4O/c5-3-2(4(6)9)1-7-8-3/h1H,(H2,6,9)(H3,5,7,8)	InChI=1S/C4H6N4O/c5-3-2(4(6)9)1-7-8-3/h1H,(H2,6,9)(H3,5,7,8)
