15
gdb 29102	3.11281	1.46108	0.99716	4.8222	74.32	-0.1978	-0.03	0.1678	1114.952	0.114787	-450.143513	-450.13553	-450.134586	-450.176039	30.547	
N	 0.0880473188	 1.420164952	 0.3016324521	-0.589434
C	-0.0262556106	 0.0378417022	 0.079890014	 0.297145
C	-1.1432279974	-0.6137957991	-0.2618939092	-0.080557
O	-1.1855147185	-1.9992069821	-0.3447357107	-0.237882
C	-0.056965081	-2.7439145664	-0.202896309	 0.344493
N	-0.0575480105	-4.0034799609	-0.3346095381	-0.51791
C	 1.2313241946	-2.0482215008	 0.1608726159	 0.315358
N	 2.3321671001	-2.6487941074	 0.3731910262	-0.522227
N	 1.1431618304	-0.6760008833	 0.2886033144	-0.380256
H	 0.7374038257	 1.8625751224	-0.3426533343	 0.253024
H	-0.807462188	 1.887079941	 0.2390741061	 0.254514
H	-2.0902252287	-0.1568473639	-0.4982963218	 0.121911
H	-0.9919373976	-4.345317376	-0.5604443038	 0.230568
H	 2.1823749586	-3.6497314978	 0.2428291295	 0.246952
H	 1.9391263641	-0.2097686498	 0.6977153589	 0.2643
89.5601	110.8388	254.599	302.903	335.1031	369.4977	403.3498	467.7934	509.0993	527.7998	594.1017	604.5319	673.1404	688.9132	773.3912	796.2999	824.3506	871.3362	903.7081	1005.6357	1037.8147	1131.3558	1164.1261	1216.8209	1267.9349	1289.0582	1381.1422	1439.4105	1507.4332	1639.7957	1721.4143	1728.4882	1763.0139	3266.7174	3491.8382	3495.0562	3497.8671	3614.0246	3626.2415
NC1=COC(=N)C(=N)N1	NC1=COC(=C([NH])N1)[NH]	
InChI=1S/C4H6N4O/c5-2-1-9-4(7)3(6)8-2/h1,7H,5H2,(H2,6,8)	InChI=1S/C4H6N4O/c5-2-1-9-4(7)3(6)8-2/h1,7H,5H2,(H2,6,8)
