17
gdb 120120	3.13272	1.11977	0.99574	4.5597	69.29	-0.2659	0.0005	0.2664	1247.4519	0.134296	-458.94523	-458.936754	-458.93581	-458.979388	30.588	
C	-0.3291314527	 1.4087738607	-0.0935909014	-0.387783
C	-0.4492831113	-0.0381308377	 0.3465755888	-0.042397
O	-1.2582465174	-0.7253594491	-0.6091763161	-0.23958
C	-1.431550611	-2.0619394427	-0.3268629023	 0.114282
C	-2.3449130404	-2.5486353192	 0.7501101856	 0.027297
O	-3.4109417146	-1.5898434794	 0.9550902381	-0.255027
C	-3.8596141469	-1.7917526339	-0.3472838639	 0.48127
O	-4.8395004342	-1.3532080498	-0.8474005457	-0.317396
C	-2.7378755878	-2.739621949	-0.708521104	-0.340184
H	 0.2802504787	 1.9707102509	 0.6201876655	 0.119173
H	 0.1395777427	 1.4749223197	-1.0793150598	 0.129673
H	-1.3174646151	 1.8726262627	-0.1497155654	 0.139957
H	 0.541948795	-0.5147323044	 0.4055043542	 0.090588
H	-0.916211505	-0.1125000083	 1.3385928714	 0.110615
H	-0.5544715458	-2.695276715	-0.4889369641	 0.105599
H	-2.1540240746	-3.2565214834	 1.5445816796	 0.13101
H	-2.8069913596	-3.6058517523	-1.3499945605	 0.132902
57.176	78.7121	109.0644	196.5397	237.8223	287.0602	396.3565	436.9288	481.9833	683.3337	725.4024	728.018	798.451	822.7823	838.92	898.7544	907.6294	958.9892	1001.3597	1026.5953	1052.4124	1063.78	1081.4842	1114.8666	1148.0191	1183.3964	1221.4794	1261.6694	1297.9226	1312.0535	1386.6945	1409.3662	1451.7678	1483.2695	1499.0181	1523.6877	1956.5752	2980.6348	3027.5049	3048.2937	3070.2556	3122.8248	3128.3085	3218.8933	3233.0524
CCOC1C2OC(=O)C12	CCO[C@H]1[C@H]2OC(=O)[C@@H]12	
InChI=1S/C6H8O3/c1-2-8-4-3-5(4)9-6(3)7/h3-5H,2H2,1H3	InChI=1S/C6H8O3/c1-2-8-4-3-5(4)9-6(3)7/h3-5H,2H2,1H3/t3-,4+,5-/m0/s1
