18
gdb 81929	2.2394	1.95291	1.17302	4.0349	72.35	-0.2401	0.0074	0.2475	1056.981	0.147713	-439.10817	-439.09973	-439.098786	-439.141105	31.404	
C	-0.0898383943	 1.5667773495	-0.0394500594	-0.401566
C	 0.0194909955	 0.040742815	-0.0002773892	-0.004223
C	 0.787204818	-0.5296710787	-1.1884622524	 0.030862
O	 2.1372783229	-0.0740356067	-1.2479670544	-0.247784
C	 1.8720367093	-1.3731595692	-0.6827826176	-0.101349
C	 1.7956391297	-1.3355127198	 0.8295258342	 0.434119
O	 2.4800102953	-1.9601960377	 1.6130648062	-0.396515
N	 0.7820158353	-0.4639916601	 1.1439424361	-0.092779
C	 0.4379852204	-0.1582937638	 2.5136862775	-0.350144
H	 0.9063039747	 2.0098200791	-0.1115232534	 0.145914
H	-0.676530675	 1.87752451	-0.9094843348	 0.123364
H	-0.588491285	 1.953997303	 0.8531380264	 0.123662
H	-0.991107885	-0.3972389382	 0.0122185279	 0.085844
H	 0.2883193196	-0.6862568677	-2.1399331314	 0.109905
H	 2.3105450452	-2.2260483613	-1.1878512931	 0.121714
H	 1.0823227392	-0.7655167773	 3.1518573936	 0.168055
H	 0.5967953938	 0.8999640444	 2.7501870827	 0.129897
H	-0.6105952097	-0.4070079805	 2.7205043412	 0.121022
108.2492	135.3917	173.2845	210.7852	239.1279	276.8563	317.9134	392.5517	477.845	508.7903	637.1404	683.3757	741.0032	779.1354	848.2236	875.0892	903.4734	967.5137	998.8067	1043.1908	1090.0484	1111.6453	1126.4346	1152.5475	1161.0942	1244.5383	1274.4464	1298.6271	1322.4564	1363.6906	1401.4053	1418.5489	1423.5971	1449.4387	1488.4069	1494.9338	1502.5963	1521.3199	1811.8467	2979.3745	3017.0563	3046.1925	3069.418	3114.6471	3135.1103	3142.4012	3164.9608	3193.8546
CC1C2OC2C(=O)N1C	C[C@H]1[C@H]2O[C@H]2C(=O)N1C	
InChI=1S/C6H9NO2/c1-3-4-5(9-4)6(8)7(3)2/h3-5H,1-2H3	InChI=1S/C6H9NO2/c1-3-4-5(9-4)6(8)7(3)2/h3-5H,1-2H3/t3-,4+,5+/m0/s1
