17
gdb 95738	2.94648	1.24602	0.91704	5.7728	76.75	-0.2752	-0.0456	0.2296	1249.0249	0.137017	-418.036994	-418.028715	-418.027771	-418.070054	30.631	
C	-0.0443761436	 1.551675537	 0.0072156029	-0.388278
C	 0.0409489535	 0.0251848947	-0.0119468604	 0.046847
C	 0.7423805404	-0.5166294379	-1.2649232436	-0.235772
C	 1.0270743126	-2.0002549535	-1.0828161911	-0.091515
O	 1.7775898058	-2.238479269	 0.1242142929	-0.255179
C	 1.4715264598	-1.4295325682	 1.1636498836	 0.288283
N	 0.7021524424	-0.4255726082	 1.2173353534	-0.308548
C	 2.179083868	-1.8465167378	 2.3588962003	 0.297287
N	 2.741550987	-2.1752918028	 3.3126952558	-0.319761
H	 0.957358242	 1.9927578759	-0.0058369399	 0.12504
H	-0.595848587	 1.9191530095	-0.8639127445	 0.113397
H	-0.5507986893	 1.8900327893	 0.9142161021	 0.13515
H	-0.9835053737	-0.3735899522	 0.0217357373	 0.100547
H	 0.1283420121	-0.3646897662	-2.1580441421	 0.114517
H	 1.6860720466	 0.0198654386	-1.4195485541	 0.120938
H	 0.0959320441	-2.5768786986	-1.0199460426	 0.124495
H	 1.6374000692	-2.4140926307	-1.8875879601	 0.132555
97.9913	120.7207	161.9669	238.9261	253.6293	320.6391	367.0384	448.0702	467.7668	525.6151	580.9536	597.7196	727.9764	805.6649	875.9857	898.247	927.979	970.0386	1000.7225	1050.7707	1132.1133	1139.0166	1180.6745	1213.0786	1263.0429	1276.7552	1331.1224	1344.4024	1377.8919	1407.2066	1412.5384	1477.8328	1488.3913	1498.9577	1510.6675	1717.4403	2367.5188	2998.0879	3033.9094	3039.8799	3044.044	3092.4816	3112.1877	3117.0197	3128.8545
CC1CCOC(=N1)C#N	C[C@H]1CCOC(=N1)C#N	
InChI=1S/C6H8N2O/c1-5-2-3-9-6(4-7)8-5/h5H,2-3H2,1H3	InChI=1S/C6H8N2O/c1-5-2-3-9-6(4-7)8-5/h5H,2-3H2,1H3/t5-/m0/s1
