15
gdb 79010	4.03524	1.71115	1.46212	1.5897	67.42	-0.2347	-0.0263	0.2085	869.987	0.113556	-416.655474	-416.649245	-416.648301	-416.685762	25.731	
O	 0.2657019813	 1.4713487578	 0.0759863307	-0.421565
C	 0.0794851919	 0.0895680388	-0.011106112	 0.008151
C	 0.0569347597	-0.6302186363	 1.3871388421	-0.137908
C	-1.412009762	-0.2112933741	 1.6319897454	 0.004467
N	-2.0547559052	-1.609371019	 1.7605787821	-0.243376
C	-3.1072410711	-1.4530335626	 0.6987387022	 0.007606
N	-2.7447291759	-0.7860947192	-0.3316449218	-0.289731
C	-1.3595429716	-0.4957104797	 0.1187933151	 0.279012
C	-0.8332090708	-1.7580987638	 0.8332456015	-0.005517
H	 0.1754441697	 1.8520520224	-0.8034826857	 0.294271
H	 0.7174023615	-0.3761247851	-0.7746837262	 0.082615
H	 0.8699681025	-0.6984023721	 2.1054104748	 0.096935
H	-1.8103565158	 0.6618257033	 2.1457071587	 0.101969
H	-4.0883679946	-1.8910240579	 0.8431967535	 0.130653
H	-0.5502743196	-2.7139340323	 0.3915470796	 0.092418
190.6642	248.2745	292.358	418.2672	497.8052	531.2131	576.7249	714.2248	758.5631	789.2884	807.0331	835.5479	858.6251	874.4089	908.312	925.6905	936.8029	950.6135	991.3916	1060.8778	1111.1818	1117.2423	1128.4821	1150.2193	1170.769	1176.7425	1210.7408	1246.8818	1283.6807	1289.8228	1312.2343	1432.6876	1593.8125	3015.0877	3115.6125	3137.1273	3155.3624	3211.1832	3819.754
OC1C2C3N4C=NC13C24	O[C@H]1[C@H]2[C@@H]3N4[CH][N][C@@]13[C@@H]24	
InChI=1S/C6H6N2O/c9-5-2-3-6(5)4(2)8(3)1-7-6/h1-5,9H	InChI=1S/C6H6N2O/c9-5-2-3-6(5)4(2)8(3)1-7-6/h1-5,9H/t2-,3-,4+,5-,6-/m0/s1
