21
gdb 63635	2.86709	1.11481	1.03516	1.1727	79.69	-0.2438	0.067	0.3109	1279.5074	0.179932	-424.192052	-424.182341	-424.181396	-424.226246	37.811	
C	-0.1214762262	 1.6166112353	-0.1096313874	-0.465971
C	 0.0081733707	 0.1182206298	 0.0530824204	 0.383899
O	-1.1588339928	-0.5821237311	-0.3141494031	-0.465497
C	 1.3286908539	-0.5773093431	-0.1977146544	-0.368577
C	 0.7265350605	-0.5484818071	 1.1952105184	-0.07657
C	 1.3992941893	 0.1440054921	 2.3469246993	 0.38512
O	 2.182141058	 1.2703517736	 2.0273130528	-0.467005
C	 0.7346210579	 0.133954711	 3.7022216758	-0.328164
C	 1.9722281817	-0.703978295	 3.4480676164	-0.290792
H	 0.8220144369	 2.1263485288	 0.0923481407	 0.120652
H	-0.4061603767	 1.8568993582	-1.1418960194	 0.106293
H	-0.8998146003	 2.0182826437	 0.5483554453	 0.120668
H	-1.2736758511	-0.4784187703	-1.2658976499	 0.27703
H	 1.3133906489	-1.5176189494	-0.7376280084	 0.106141
H	 2.199923294	 0.0469738278	-0.3646435199	 0.122749
H	 0.2383659881	-1.4722467078	 1.4924594879	 0.093128
H	 1.6092396463	 2.0432560411	 2.0515906739	 0.284323
H	 0.8539976145	 1.0180739752	 4.3195873381	 0.109646
H	-0.2226328682	-0.3657517248	 3.8040967198	 0.118194
H	 1.8674805875	-1.7811760536	 3.3813120481	 0.114043
H	 2.902741757	-0.3579272143	 3.8821839454	 0.120689
52.1106	138.8446	163.5291	238.6852	271.6905	288.4229	313.1639	331.4086	382.3115	384.958	419.2459	452.5275	493.9496	559.579	715.9545	725.7738	772.8795	857.0505	907.3475	914.4832	918.3043	933.081	971.0355	984.2102	988.3972	1052.835	1058.1068	1072.097	1076.1407	1095.5525	1123.7078	1189.1352	1224.2727	1266.5069	1280.6665	1300.9364	1352.5535	1368.3237	1411.6404	1424.7195	1454.2228	1478.9467	1495.6437	1498.0356	1513.6746	3023.5648	3080.007	3129.7139	3131.0344	3134.1475	3139.2237	3152.726	3215.1765	3226.1582	3233.6348	3782.9327	3816.1756
CC1(O)CC1C1(O)CC1	C[C@@]1(O)C[C@H]1C1(O)CC1	
InChI=1S/C7H12O2/c1-6(8)4-5(6)7(9)2-3-7/h5,8-9H,2-4H2,1H3	InChI=1S/C7H12O2/c1-6(8)4-5(6)7(9)2-3-7/h5,8-9H,2-4H2,1H3/t5-,6-/m1/s1
