25
gdb 118575	2.68811	0.70602	0.5859	1.2276	86.36	-0.2438	0.0784	0.3222	1978.0506	0.226084	-426.617813	-426.605776	-426.604832	-426.656141	41.874	
C	 1.0589279105	 1.0143292634	 0.6200355385	-0.382008
C	 0.6356566297	-0.4547260561	 0.5354648486	-0.174678
C	-0.8849005498	-0.6362588134	 0.5063002379	-0.161294
C	-1.3380274167	-2.0965465098	 0.3980978731	 0.096519
C	-2.8653768952	-2.2227307074	 0.4198120116	-0.200208
C	-3.3657017439	-3.6675114557	 0.4008296619	-0.070078
O	-4.7822010355	-3.7571017347	 0.4578585713	-0.420401
O	-0.8444888121	-2.6541580908	-0.8252179759	-0.253469
C	 0.0365864163	-3.7450749301	-0.6799694904	-0.237272
H	 2.1486302062	 1.1154827217	 0.6375315348	 0.110639
H	 0.6859630409	 1.5828895338	-0.2391606441	 0.115085
H	 0.665915249	 1.4904703219	 1.5254424091	 0.112033
H	 1.0620026963	-0.9094991144	-0.3654701933	 0.109961
H	 1.0525562942	-1.0044239518	 1.3904493117	 0.088037
H	-1.3282902756	-0.1983465977	 1.4103051685	 0.09009
H	-1.3025932936	-0.0843923298	-0.3463347414	 0.09919
H	-0.9200429719	-2.662080608	 1.2463838809	 0.065688
H	-3.2635628424	-1.7226210105	 1.3102720907	 0.10112
H	-3.2648618374	-1.6906956243	-0.4548868247	 0.092193
H	-2.9669529564	-4.1860012089	-0.482690594	 0.099357
H	-3.0038785843	-4.2026217948	 1.2866816042	 0.103965
H	-5.1313485709	-3.3579866831	-0.3453823696	 0.279795
H	-0.437836668	-4.5985762717	-0.1722576432	 0.105108
H	 0.3269149405	-4.0591341316	-1.6865533632	 0.124465
H	 0.94545737	-3.4746758062	-0.1226370728	 0.106163
58.5204	70.507	98.2616	100.3724	106.3904	129.8595	176.0494	223.4444	245.6848	296.7724	310.2545	327.7333	336.4778	377.0566	530.9122	575.779	747.3705	773.2444	833.6753	899.6099	910.0752	1001.8868	1007.4742	1032.5696	1064.202	1078.809	1113.9292	1118.6847	1142.3177	1146.8264	1183.0639	1187.943	1231.4745	1265.148	1278.0021	1310.2893	1324.064	1335.6018	1364.5999	1395.163	1401.027	1405.1683	1415.0478	1421.3373	1468.6148	1479.212	1483.6298	1488.7022	1495.1337	1500.2767	1508.2942	1512.4868	1518.4784	2970.2088	2983.2106	3003.3862	3010.5484	3014.6653	3020.1554	3027.2225	3029.1548	3049.5144	3055.8874	3069.8524	3079.7715	3097.5685	3100.7936	3104.441	3815.6446
CCCC(CCO)OC	CCC[C@@H](CCO)OC	
InChI=1S/C7H16O2/c1-3-4-7(9-2)5-6-8/h7-8H,3-6H2,1-2H3	InChI=1S/C7H16O2/c1-3-4-7(9-2)5-6-8/h7-8H,3-6H2,1-2H3/t7-/m0/s1
