18
gdb 37898	3.072	2.16766	1.72163	1.149	74.04	-0.2353	0.0767	0.3119	839.986	0.151415	-401.861552	-401.855656	-401.854712	-401.891418	25.757	
C	-0.074563204	 1.4969321736	 0.0159370431	-0.24763
N	 1.4652965646	 1.2936569604	 0.0341469207	-0.182719
C	 1.2150704004	 0.0855602394	 0.9550355588	-0.031145
C	 2.2309192344	-1.0033179086	 0.6242324856	-0.243383
C	 1.8418445606	-1.1657205085	-0.8630153182	-0.115835
C	 0.5261422946	-2.0247486248	-0.9644128302	-0.099046
O	-0.5599449185	-1.236421802	-0.3748623115	-0.342979
C	 0.0903356059	-0.0262634423	-0.1070703184	 0.394496
C	 1.2251732923	 0.2217461296	-1.0755508195	-0.011093
H	-0.4606401766	 1.9117895602	 0.9502163504	 0.10922
H	-0.4295283525	 2.0545746689	-0.8537614694	 0.110524
H	 1.0030331163	 0.3423411096	 1.9932683192	 0.071676
H	 3.2624224718	-0.6621288709	 0.756017182	 0.112241
H	 2.0830607806	-1.9115148658	 1.2159132207	 0.103937
H	 2.6249790075	-1.518101452	-1.5349377799	 0.073982
H	 0.2672143695	-2.2425057181	-2.0079109911	 0.10629
H	 0.6105563155	-2.9687304953	-0.4169702723	 0.112636
H	 1.0466300273	 0.6134865664	-2.0759350199	 0.078829
208.6152	375.7799	399.1672	433.0272	479.0968	577.2854	687.761	701.4088	775.3022	796.1503	832.2126	837.6284	873.2429	912.753	916.8819	951.9503	957.5015	985.29	994.4864	1024.6284	1040.0956	1081.6038	1107.0159	1118.577	1140.2831	1180.5806	1187.1631	1196.6501	1234.2817	1246.4336	1247.3473	1276.7085	1285.8422	1321.8426	1370.8218	1376.7743	1484.4917	1512.0405	1526.3645	3025.3116	3051.1808	3061.5209	3081.5886	3098.5525	3111.1204	3116.4646	3130.193	3132.4728
C1N2C3CC4COC13C24	C1N2[C@@H]3C[C@H]4CO[C@@]13[C@@H]24	
InChI=1S/C7H9NO/c1-4-2-9-7-3-8(5(1)7)6(4)7/h4-6H,1-3H2	InChI=1S/C7H9NO/c1-4-2-9-7-3-8(5(1)7)6(4)7/h4-6H,1-3H2/t4-,5+,6-,7-/m0/s1
