17
gdb 46534	4.18041	1.13546	1.04873	1.9227	69.87	-0.237	0.0521	0.2891	1152.0331	0.137681	-455.138968	-455.131243	-455.130299	-455.171773	29.031	
N	-0.0292129914	 1.3244366628	-0.0656016147	-0.591318
C	 0.0429650537	 0.0727659373	 0.0868992133	 0.45433
N	-0.9541568222	-0.8340352799	-0.239385277	-0.380234
C	-0.71353646	-2.109578761	 0.3796796089	 0.251767
C	-1.5516445326	-2.5542510868	 1.6126147545	-0.121998
O	-1.8590934078	-3.8124816919	 0.9851762402	-0.266343
C	-1.2832426596	-3.3918439642	-0.2658322666	-0.130752
C	 0.8122278071	-2.0273557901	 0.5416087363	-0.139855
O	 1.1061582707	-0.6274382669	 0.5924336692	-0.243926
H	 0.8429023134	 1.767583679	 0.2131140713	 0.225905
H	-1.8881895311	-0.4624103359	-0.3169673344	 0.259791
H	-1.0191973324	-2.678970915	 2.5629114132	 0.111714
H	-2.4487068127	-1.941337817	 1.7790066219	 0.101924
H	-2.0427315209	-3.1985304753	-1.0351080711	 0.108005
H	-0.5545126508	-4.1141632512	-0.6539287919	 0.110678
H	 1.1785539096	-2.4993002974	 1.4557363896	 0.130464
H	 1.319634727	-2.4732160067	-0.3230820328	 0.119848
78.434	91.0257	161.7696	262.1078	343.2938	414.8275	438.8216	488.9109	541.0058	702.8684	720.5343	793.1767	822.766	848.3932	923.4199	931.2005	945.8956	973.3413	1003.9635	1037.1502	1053.2287	1101.0108	1137.192	1149.0727	1155.4196	1187.1142	1239.2601	1267.4107	1298.7461	1327.4824	1371.1447	1411.3347	1436.6073	1502.8742	1515.9222	1531.2595	1795.6479	2997.639	3011.7167	3027.9546	3057.6279	3058.3179	3108.964	3532.0146	3637.1671
N=C1NC2(COC2)CO1	[NH][C]1NC2(COC2)CO1	
InChI=1S/C5H8N2O2/c6-4-7-5(3-9-4)1-8-2-5/h1-3H2,(H2,6,7)	InChI=1S/C5H8N2O2/c6-4-7-5(3-9-4)1-8-2-5/h1-3H2,(H2,6,7)
