19
gdb 38667	2.90284	1.84658	1.3335	1.1534	80.82	-0.2272	0.0208	0.248	987.7281	0.161423	-385.864327	-385.857281	-385.856337	-385.895513	29.087	
C	 0.0190727402	 1.4378396736	 0.0727816551	-0.348362
C	 1.3569208706	 0.7317864487	-0.0712599421	-0.136774
C	 1.761725158	 0.0970219558	 1.2617049147	-0.23878
C	 0.4191689684	-0.7354433772	 1.2649736525	-0.131646
C	 0.6116339385	-2.1982789952	 1.0244504326	-0.074271
C	 0.3674797523	-2.7448828215	-0.1661292242	-0.078945
C	-0.1560371119	-1.9710738792	-1.345206178	-0.135082
O	-0.6915981989	-0.6921260873	-1.0163662581	-0.288397
C	 0.0261928573	-0.0410409403	-0.0386460457	 0.452154
H	-0.2576124829	 1.9352418779	 1.0012856298	 0.100263
H	-0.3139588436	 1.9447341589	-0.8275601065	 0.118506
H	 2.0210620444	 0.9569258422	-0.8964295248	 0.087319
H	 2.6432414611	-0.5442389592	 1.1928341816	 0.104169
H	 1.888489589	 0.7879186111	 2.10203189	 0.095057
H	-0.2373621013	-0.553680114	 2.1255378724	 0.071129
H	 0.9863401552	-2.8054628551	 1.8452665216	 0.089593
H	 0.5505940156	-3.8017058411	-0.3437026945	 0.092061
H	 0.6435000632	-1.8560851311	-2.0976673424	 0.104977
H	-0.9719947353	-2.5186121268	-1.830647494	 0.117029
138.5746	155.13	291.0299	390.0126	403.055	445.9806	491.9177	533.0979	622.4576	706.8567	734.223	805.4708	826.2759	853.0392	902.2048	920.4245	949.9166	967.9888	988.6521	1000.7937	1018.6282	1031.2431	1047.754	1088.252	1096.1457	1117.7445	1172.8684	1190.1949	1215.844	1236.7634	1258.4821	1266.1587	1280.3868	1343.6984	1369.4376	1412.8134	1419.9408	1479.1609	1489.1927	1506.6051	1717.8709	2955.0403	3016.258	3043.6018	3056.3248	3093.3117	3105.6931	3144.7529	3168.7638	3186.9577	3199.3176
C1C2CC3C=CCOC123	C1[C@H]2C[C@@H]3C=CCO[C@]123	
InChI=1S/C8H10O/c1-2-6-4-7-5-8(6,7)9-3-1/h1-2,6-7H,3-5H2	InChI=1S/C8H10O/c1-2-6-4-7-5-8(6,7)9-3-1/h1-2,6-7H,3-5H2/t6-,7+,8-/m0/s1
