14
gdb 132866	3.01663	1.43383	0.97767	1.296	70.79	-0.2272	-0.0733	0.1539	1106.7343	0.099984	-477.994576	-477.986942	-477.985998	-478.026915	28.55	
C	 0.0899902545	 1.4598048381	 0.0090178612	-0.45845
C	 0.0388843178	-0.0335612385	-0.0092972409	 0.274984
N	-0.0180806897	-0.6727581815	-1.131546152	-0.329569
C	-0.06294226	-2.0355256374	-1.0930381287	 0.240883
F	-0.1205354279	-2.6360276938	-2.2770703439	-0.06692
C	-0.0512775948	-2.7474108314	 0.041394205	-0.107581
O	 0.0081629851	-2.1081379586	 1.2426018989	-0.217808
C	 0.0564077299	-0.7301216778	 1.2952686197	 0.349371
N	 0.1123801165	-0.1024301703	 2.397099205	-0.520737
H	 0.9929125512	 1.8015794267	 0.5253517908	 0.154976
H	 0.0704269515	 1.842350704	-1.0115362395	 0.140701
H	-0.7530681175	 1.8606716006	 0.5810469113	 0.154986
H	-0.0850967699	-3.8238439836	 0.1229755427	 0.154939
H	 0.1155322831	-0.7468410764	 3.1885647503	 0.230225
86.8268	155.3898	217.9648	293.3008	348.7015	365.2098	408.0878	470.7153	528.2325	574.8638	605.9096	667.1599	762.5193	803.901	824.8603	865.44	968.7845	995.7637	1045.1235	1051.5461	1173.968	1229.2357	1300.434	1349.7227	1374.691	1408.4238	1460.6823	1463.3106	1630.7359	1691.2422	1722.4671	3047.5089	3102.1059	3159.0673	3246.3862	3487.5385
CC1=NC(F)=COC1=N	CC1=C(OC=C([N]1)F)[NH]	
InChI=1S/C5H5FN2O/c1-3-5(7)9-2-4(6)8-3/h2,7H,1H3	InChI=1S/C5H5FN2O/c1-3-5(7)9-2-4(6)8-3/h2,7H,1H3
