19
gdb 40442	3.53813	1.2306	1.1179	1.5223	74.98	-0.2382	0.0719	0.3101	1145.9764	0.16196	-419.152934	-419.145205	-419.144261	-419.185645	29.855	
C	-0.0079144087	 1.5083332889	-0.0210502797	-0.245501
N	 1.2501609886	 0.7435386409	-0.0206669672	-0.321554
C	-0.0321380781	 0.0234826155	 0.0547950157	-0.102017
C	-0.3169771081	-0.7268798167	 1.3127290878	 0.357363
C	 0.0850893568	-0.1634889723	 2.6691577071	-0.175346
O	-0.0288268834	-1.2545833698	 3.5820595238	-0.263149
C	 0.280842001	-2.4520613762	 2.8739905285	-0.107862
C	-0.1984724916	-2.2046307254	 1.456588651	-0.090662
N	-1.5185686703	-1.5771868258	 1.3104746166	-0.383807
H	-0.1756388636	 2.1070313529	 0.8699749821	 0.119909
H	-0.3421522068	 1.9747822747	-0.9439218621	 0.115624
H	 1.6322153134	 0.687391647	-0.9603285255	 0.235605
H	-0.3802376136	-0.4965377038	-0.8348369299	 0.08988
H	 1.1129430752	 0.2218565289	 2.6133068198	 0.123225
H	-0.573516703	 0.6313921226	 3.0355338267	 0.10714
H	 1.3637185453	-2.6575883142	 2.8728393287	 0.100285
H	-0.2275387073	-3.2758550486	 3.3869624137	 0.111807
H	 0.119892564	-2.8628998519	 0.6543973216	 0.093269
H	-1.9785828798	-1.5285927865	 2.2190112112	 0.235791
53.9227	159.0306	180.5579	254.3263	313.4522	375.4589	420.1775	519.2367	576.7023	708.4437	755.2768	854.1872	871.0303	878.9637	901.8111	923.1767	939.5209	963.1247	979.6013	1024.8786	1058.4382	1065.1847	1087.9778	1105.6106	1117.3184	1139.3905	1178.3402	1188.1524	1223.9154	1247.2604	1255.6779	1286.1811	1305.134	1316.0185	1343.4779	1377.0279	1408.3624	1484.6256	1507.7427	1517.754	1522.1601	2976.4026	3011.2419	3064.8051	3069.7278	3109.1675	3134.7771	3163.341	3192.7737	3468.9645	3512.4737
C1NC1C12COCC1N2	C1N[C@H]1[C@]12COC[C@H]1N2	
InChI=1S/C6H10N2O/c1-4(7-1)6-3-9-2-5(6)8-6/h4-5,7-8H,1-3H2	InChI=1S/C6H10N2O/c1-4(7-1)6-3-9-2-5(6)8-6/h4-5,7-8H,1-3H2/t4-,5-,6-/m1/s1
