15
gdb 47784	2.23859	1.71249	1.17561	5.9887	65.45	-0.2557	-0.0218	0.2339	1037.4755	0.114313	-453.971345	-453.963462	-453.962518	-454.004497	28.504	
O	 0.0011788996	 0.0948273489	 0.533934111	-0.30699
C	-0.0421135934	 1.1915937364	 0.0561368847	 0.41512
O	-1.2055308061	 1.7115759031	-0.3715742723	-0.222848
C	-1.2902210901	 2.9528425555	-1.1058678285	-0.066547
C	-0.1281049331	 3.8917314876	-0.8257040754	-0.202339
N	 1.1583118223	 3.2134164461	-0.9704970054	-0.280324
C	 1.2342385013	 2.0716005766	-0.0628029512	-0.282617
C	 1.5902040955	 2.5319520289	 1.2921281537	 0.323428
N	 1.8470595959	 2.9152197613	 2.3508250164	-0.313488
H	-1.3300670788	 2.6956036664	-2.172196156	 0.119994
H	-2.2512917597	 3.3926826603	-0.8254438531	 0.137599
H	-0.1714492519	 4.7436535878	-1.5104270801	 0.129373
H	-0.1892503819	 4.2879828557	 0.1943885764	 0.149516
H	 1.2844981928	 2.8887824662	-1.924122196	 0.235802
H	 2.0242589877	 1.3929781993	-0.3972727743	 0.164321
54.096	121.3349	152.9153	207.9312	335.6383	391.6864	430.6748	465.9797	509.4009	601.7382	669.6468	692.2516	766.9794	833.7193	906.5384	913.2938	965.7641	1029.6124	1095.5699	1132.8146	1155.4046	1212.6047	1243.4461	1263.5804	1286.2588	1355.6408	1381.9323	1427.699	1482.2709	1485.5365	1507.8541	1852.5304	2363.9274	3026.4245	3049.8606	3083.8145	3095.4158	3104.1177	3521.6267
O=C1OCCNC1C#N	O=C1OCCN[C@H]1C#N	
InChI=1S/C5H6N2O2/c6-3-4-5(8)9-2-1-7-4/h4,7H,1-2H2	InChI=1S/C5H6N2O2/c6-3-4-5(8)9-2-1-7-4/h4,7H,1-2H2/t4-/m0/s1
