13
gdb 27042	2.49732	1.46953	0.92565	4.9347	67.49	-0.2147	-0.0469	0.1678	1144.92	0.0894	-489.95475	-489.946764	-489.94582	-489.987387	29.219	
N	 0.1383685476	 1.3632442764	 0.1656488469	-0.586831
C	-0.0365377598	 0.0209962841	 0.0585482504	 0.342875
C	-1.1442993293	-0.7830581458	 0.0246647719	 0.14891
N	-0.6314860639	-2.0986704726	-0.0130576497	-0.434499
C	 0.7218573328	-2.1066540413	-0.011687473	 0.497964
O	 1.5357993434	-2.9798981612	-0.0428477863	-0.376916
O	 1.0878884006	-0.7237420853	 0.0368856594	-0.231538
C	-2.5445520142	-0.5043499061	 0.015259345	 0.059488
O	-3.4061746343	-1.3678808858	-0.0225847906	-0.325731
H	 1.0360162787	 1.7112675541	-0.1363009304	 0.282192
H	-0.6473110045	 1.9502958925	-0.0643948973	 0.279522
H	-1.2085678678	-2.9217143538	-0.0467656635	 0.292867
H	-2.8064024493	 0.5765875549	 0.0445338674	 0.051697
115.9442	149.5324	197.2207	218.543	299.6792	341.0016	397.2511	466.906	468.396	487.2843	602.3636	644.5037	690.2408	710.8087	753.2352	867.7399	883.4905	999.4719	1036.4813	1165.8166	1255.6251	1298.4315	1402.0373	1421.1773	1501.2408	1623.834	1709.2748	1744.9605	1938.9609	2873.911	3588.0404	3686.3037	3702.2708
NC1=C(NC(=O)O1)C=O	Nc1c([nH]c(=O)o1)C=O	
InChI=1S/C4H4N2O3/c5-3-2(1-7)6-4(8)9-3/h1H,5H2,(H,6,8)	InChI=1S/C4H4N2O3/c5-3-2(1-7)6-4(8)9-3/h1H,5H2,(H,6,8)
