15
gdb 47982	6.99241	0.62914	0.58141	2.5198	88.67	-0.2477	-0.0839	0.1638	1787.4136	0.111408	-420.60663	-420.597899	-420.596955	-420.641908	29.253	
O	-0.1281603306	 0.0002223695	 0.0524764109	-0.228881
C	-0.0161687427	 1.2056608307	 0.020385103	-0.003352
C	 1.2387631885	 1.9060527458	-0.0043776804	 0.176103
C	 2.2918612215	 2.5054411822	-0.0255359711	-0.090277
C	 3.4886731968	 3.2434913428	-0.0509338889	 0.181611
C	 4.7435216217	 2.7726772352	-0.0462423614	-0.207351
C	 5.713921025	 3.9112386732	-0.0805687893	-0.105847
O	 4.9165722382	 5.0900533114	-0.105642811	-0.264012
C	 3.5343407014	 4.7602190895	-0.0894932308	-0.17036
H	-0.9045653354	 1.8691376243	 0.0076343005	 0.100618
H	 5.0335044615	 1.7307860313	-0.0216151651	 0.129674
H	 6.3749890252	 3.9182689082	 0.8009880672	 0.12099
H	 6.3647195433	 3.8736512724	-0.9689695612	 0.120983
H	 3.0362559796	 5.1602850177	-0.9846063885	 0.120046
H	 3.0463225157	 5.2051001557	 0.7898713162	 0.120055
46.8974	71.8305	86.9758	99.2045	194.5921	241.1851	397.6706	399.3544	503.443	562.626	678.8294	771.9176	843.2346	879.8812	920.6048	974.5198	989.9881	1018.0149	1023.1778	1061.5371	1122.2045	1172.5894	1223.3534	1263.886	1286.2497	1359.6344	1390.7953	1422.5512	1508.821	1527.0737	1671.4778	1756.0762	2305.22	2921.0074	2972.7686	2988.5138	2993.2557	3017.9322	3233.3762
O=CC#CC1=CCOC1	O=CC#CC1=CCOC1	
InChI=1S/C7H6O2/c8-4-1-2-7-3-5-9-6-7/h3-4H,5-6H2	InChI=1S/C7H6O2/c8-4-1-2-7-3-5-9-6-7/h3-4H,5-6H2
