19
gdb 94445	2.35957	1.4311	1.38579	3.1653	71.23	-0.2421	0.0542	0.2962	1071.8172	0.158434	-460.126224	-460.117501	-460.116556	-460.159597	33.191	
O	 0.4007489335	 0.8249139985	-0.6704850985	-0.438056
C	 0.1658792102	-0.2721718343	 0.1608593218	 0.108909
C	-0.0318367781	-0.0511139284	 1.6934150778	-0.268201
C	-1.2470720907	-1.0202728637	 1.6407743022	-0.305478
C	-1.2728748917	-0.8672931806	 0.1119940108	 0.396331
O	-2.2170721273	 0.1159800602	-0.397849102	-0.334418
C	-2.4507059658	-0.6827206167	-1.5850418329	-0.116916
C	-1.723915013	-1.8850281364	-0.9404614466	-0.0243
O	-0.662045301	-2.4952454865	-1.6254554851	-0.42261
H	-0.4482823047	 1.2872878129	-0.7262194538	 0.284011
H	 0.9214744625	-1.0322962361	-0.0539646283	 0.102196
H	 0.8009277481	-0.311673617	 2.3496641802	 0.100202
H	-0.3377227647	 0.9780717274	 1.8986173137	 0.108379
H	-0.9934393679	-2.0433304325	 1.9343198709	 0.109961
H	-2.1614825083	-0.7172860572	 2.1547605104	 0.111959
H	-3.5192969399	-0.7769322126	-1.8031562868	 0.104517
H	-1.9144336075	-0.2890786192	-2.4564983482	 0.113518
H	-2.4241697987	-2.6242276882	-0.5287794905	 0.078588
H	-1.0146969351	-3.1778075695	-2.2041171751	 0.291406
85.1917	112.9783	148.7408	231.0495	241.2353	272.6564	389.7674	401.9657	477.131	500.4595	562.6616	585.074	683.9846	750.8654	775.7587	863.6212	896.2431	921.2687	949.1051	995.2081	1020.2943	1085.8394	1095.2205	1126.3306	1131.7523	1155.0094	1175.2682	1193.2723	1208.2908	1228.5811	1241.3026	1266.6677	1286.0259	1324.1101	1331.1595	1339.0093	1442.923	1445.8786	1464.3807	1488.5925	1509.9618	3011.3818	3027.9445	3059.7064	3067.2371	3084.7828	3089.0193	3114.9962	3129.4388	3726.5843	3828.5987
OC1CCC11OCC1O	O[C@H]1CC[C@]21OC[C@H]2O	
InChI=1S/C6H10O3/c7-4-1-2-6(4)5(8)3-9-6/h4-5,7-8H,1-3H2	InChI=1S/C6H10O3/c7-4-1-2-6(4)5(8)3-9-6/h4-5,7-8H,1-3H2/t4-,5+,6+/m0/s1
