18
gdb 124868	3.61268	1.18232	1.17261	6.1683	75.79	-0.2456	0.0186	0.2641	1134.1496	0.148914	-398.132036	-398.124023	-398.123079	-398.16504	30.267	
C	-0.2249114165	 1.4275241099	 0.4221363693	-0.43768
C	 0.0193876298	-0.0181939116	 0.0366628961	 0.310197
C	 1.3637928333	-0.4340281687	-0.5059568688	-0.298448
C	 0.9365209443	-0.8741337285	 0.8739212176	-0.298452
N	-1.134155394	-0.6769598795	-0.5306632229	-0.045593
C	-2.1449021678	-1.3250050586	 0.1266612224	 0.013396
N	-3.0719639994	-1.7198328252	-0.7067135216	-0.227573
N	-2.6806733539	-1.3167850832	-1.9703142483	-0.22757
C	-1.5362477098	-0.6980206638	-1.8389177003	 0.013398
H	 0.6815740585	 1.8700320697	 0.8440730813	 0.125353
H	-0.5203757985	 2.0201652317	-0.4496306734	 0.133993
H	-1.0217375719	 1.5038672164	 1.1689563862	 0.133995
H	 1.3850186025	-1.1862396194	-1.2855220217	 0.134542
H	 2.123176837	 0.3344103814	-0.5950553164	 0.12686
H	 1.4015051395	-0.4089067499	 1.7355817895	 0.12686
H	 0.6753255538	-1.9172884296	 1.0065848602	 0.134541
H	-2.1416062081	-1.4815400334	 1.1941162803	 0.141091
H	-0.9556595087	-0.2598845678	-2.6357420796	 0.14109
54.8855	120.7163	187.4751	227.4684	299.8994	318.7078	403.2856	500.995	537.0323	668.9272	697.0591	783.8326	826.6455	828.138	856.0264	881.6039	944.7759	955.1657	958.0783	1017.6909	1047.9469	1069.6371	1075.817	1092.4804	1131.0054	1160.2531	1192.3604	1227.5795	1278.6784	1326.1199	1331.7773	1406.7495	1420.3281	1461.8673	1485.4097	1493.6464	1496.4791	1507.3535	1542.2828	3037.5859	3105.4515	3118.4035	3142.5743	3146.0416	3226.6084	3239.4734	3264.5573	3268.6413
CC1(CC1)N1C=NN=C1	CC1(CC1)n1cnnc1	
InChI=1S/C6H9N3/c1-6(2-3-6)9-4-7-8-5-9/h4-5H,2-3H2,1H3	InChI=1S/C6H9N3/c1-6(2-3-6)9-4-7-8-5-9/h4-5H,2-3H2,1H3
