15
gdb 29319	3.35643	1.27592	0.92979	3.8734	78.12	-0.2185	-0.0151	0.2033	1189.2282	0.113307	-416.867235	-416.858562	-416.857617	-416.900679	31.351	
C	-0.0021700251	 1.5326296669	-0.0039335369	-0.501599
C	-0.0071066913	 0.0357387256	-0.010306238	 0.193971
C	-0.1337778995	-0.8106390164	-1.0971426104	-0.146769
N	-0.0884020111	-2.1035359883	-0.6791444394	-0.338669
C	 0.068931583	-2.1315171103	 0.7002074894	 0.113045
C	 0.1547084351	-3.3007329044	 1.469281174	 0.176788
N	 0.2308496252	-4.241597535	 2.1473691487	-0.371981
C	 0.1206320732	-0.8053718998	 1.12250737	 0.185507
O	 0.2661189483	-0.3383012406	 2.3818386562	-0.431042
H	 0.9318441931	 1.9294460981	 0.4086797676	 0.13746
H	-0.1172083514	 1.9284872064	-1.0165222125	 0.121688
H	-0.8162743034	 1.9344665429	 0.6091302031	 0.137482
H	-0.2529814998	-0.5700110017	-2.1420407312	 0.134031
H	-0.16043605	-2.9188043581	-1.2613179582	 0.278315
H	 0.3384524136	-1.0803707253	 2.9940543975	 0.311774
90.388	108.2461	125.3545	238.6362	254.5112	298.8085	359.6136	396.5658	420.2275	510.4418	519.8484	593.9418	635.1886	717.4754	719.7467	758.7436	779.3356	993.0722	1018.5547	1067.2488	1121.3447	1242.3894	1270.3869	1275.6837	1361.2075	1422.7573	1454.4273	1479.6829	1496.8444	1507.2874	1568.4124	1633.9768	2312.3725	3033.4826	3084.9328	3114.4134	3258.7097	3694.3599	3797.4616
CC1=CNC(C#N)=C1O	Cc1c[nH]c(C#N)c1O	
InChI=1S/C6H6N2O/c1-4-3-8-5(2-7)6(4)9/h3,8-9H,1H3	InChI=1S/C6H6N2O/c1-4-3-8-5(2-7)6(4)9/h3,8-9H,1H3
