19
gdb 45507	4.02368	1.20468	0.97783	2.6635	81.87	-0.2319	-0.0198	0.2122	1201.7146	0.16097	-385.939592	-385.932041	-385.931097	-385.971913	29.884	
O	 0.0698018165	 0.0412460444	 0.2969255763	-0.302174
C	 0.0075670991	 1.2143702292	 0.0456936325	 0.394443
C	-1.2892625253	 2.0351973298	-0.1098664741	-0.344436
C	-0.8479931063	 3.3497463087	-0.7736540847	-0.055424
C	-1.4637369825	 4.7014662212	-0.3554606463	-0.238472
C	-0.2546660015	 5.6790601161	-0.3013374214	-0.244579
C	 0.9239154934	 4.7533717077	-0.0647477526	-0.240579
C	 0.603080379	 3.4923460895	-0.3382001824	 0.367741
C	 1.2263726357	 2.1451807519	-0.1766248328	-0.455421
H	-2.0474601835	 1.4569243189	-0.6427741579	 0.126049
H	-1.6722527447	 2.2190090667	 0.9036092656	 0.129609
H	-0.896804134	 3.2265539327	-1.8665556429	 0.08105
H	-2.259360586	 5.0432650846	-1.0224353852	 0.097897
H	-1.8948267064	 4.6067314834	 0.6479045595	 0.101916
H	-0.1404919586	 6.2328183508	-1.2444811883	 0.106362
H	-0.3645360905	 6.4342763686	 0.4846218902	 0.10382
H	 1.8898921633	 5.1057168167	 0.2801402065	 0.091759
H	 1.9442453167	 2.0521124651	 0.6428498911	 0.140012
H	 1.7373369357	 1.7976922539	-1.0862447931	 0.140425
65.8512	129.4495	241.7791	310.3696	339.4367	457.0354	491.0123	518.2809	580.1316	626.5749	700.5841	749.5899	801.5203	819.2955	830.3882	879.0916	916.6793	952.3828	962.2029	990.7502	1045.7308	1085.3055	1115.2229	1119.3542	1166.2465	1174.3595	1196.7947	1225.3448	1233.0483	1254.5223	1277.4054	1299.3225	1320.1376	1344.4543	1357.2442	1434.7711	1449.4228	1484.1515	1499.4309	1743.225	1853.1195	2980.2536	3004.061	3014.0353	3025.519	3038.8586	3061.7313	3094.8843	3098.1512	3108.0351	3191.1418
O=C1CC2CCC=C2C1	O=C1C[C@H]2CCC=C2C1	
InChI=1S/C8H10O/c9-8-4-6-2-1-3-7(6)5-8/h2,7H,1,3-5H2	InChI=1S/C8H10O/c9-8-4-6-2-1-3-7(6)5-8/h2,7H,1,3-5H2/t7-/m1/s1
