17
gdb 112366	2.43625	1.37429	0.92085	3.4981	70.74	-0.2733	-0.0029	0.2703	1245.4738	0.136597	-455.21722	-455.208596	-455.207652	-455.251173	31.358	
C	-0.0717101298	 1.5738610675	 0.0834478007	-0.399463
C	-0.0882548574	 0.046777202	-0.0106112113	-0.170001
C	 0.7034660738	-0.4894935139	-1.2100272968	-0.073622
N	 2.1385824584	-0.2829697098	-1.1335056099	-0.366922
C	 2.8632394165	-1.4270810764	-1.2735839809	 0.479525
O	 4.0454427205	-1.5888121565	-1.3232903026	-0.371196
O	 1.9509640301	-2.4860274628	-1.3476577076	-0.231879
C	 0.6623943776	-2.0067211933	-1.3115546559	 0.411515
N	-0.381026812	-2.7051037604	-1.3465638139	-0.524593
H	 0.9434782491	 1.9598633747	 0.2284099307	 0.115168
H	-0.4813720067	 2.0337086173	-0.8228959672	 0.12196
H	-0.6722963385	 1.9165225266	 0.9304503951	 0.130105
H	 0.3207655984	-0.3965144651	 0.9042540619	 0.109817
H	-1.1132827346	-0.3224016826	-0.1146128324	 0.137073
H	 0.2905002379	-0.0590736817	-2.1335261176	 0.12045
H	 2.596669186	 0.6093287014	-1.1967354657	 0.272596
H	-0.1614237393	-3.6999092071	-1.4087627466	 0.239466
65.0442	97.9052	138.9468	175.538	233.1788	307.7175	385.1052	413.0434	435.166	582.0352	625.1967	637.0827	721.5099	765.2704	796.8724	862.4236	902.0204	941.869	946.1218	1014.3079	1066.7717	1078.709	1132.7474	1144.1528	1195.6472	1278.9903	1289.7896	1337.7038	1374.7772	1396.1337	1412.4712	1430.2245	1480.8697	1499.7594	1506.8177	1795.6116	1928.8289	3004.5777	3031.5708	3047.7248	3083.936	3107.1304	3112.8584	3489.8153	3685.2265
CCC1NC(=O)OC1=N	CC[C@H]1NC(=O)O[C]1[NH]	
InChI=1S/C5H8N2O2/c1-2-3-4(6)9-5(8)7-3/h3,6H,2H2,1H3,(H,7,8)	InChI=1S/C5H8N2O2/c1-2-3-4(6)9-5(8)7-3/h3,6H,2H2,1H3,(H,7,8)/t3-/m1/s1
