18
gdb 85967	2.55383	1.51498	1.12101	4.593	68.17	-0.2395	0.0186	0.2581	1097.0135	0.146693	-476.248128	-476.239078	-476.238134	-476.28196	34.712	
N	 0.3278089336	 0.9089448503	 0.1869653261	-0.524067
C	-0.0233648839	-0.3527636559	-0.1282848004	 0.410521
O	 0.7850311085	-1.2019625159	-0.48947407	-0.402725
C	-1.5151978092	-0.6728406457	-0.0082888076	 0.279644
O	-2.1774309597	 0.4985654154	 0.4247960083	-0.503028
C	-2.0542786635	-1.3954668589	-1.2849497291	-0.2999
C	-1.8766489805	-2.768915471	-0.5627478928	 0.147054
O	-0.744183135	-3.4971566818	-0.9346752761	-0.438806
C	-1.7586711659	-1.9950257636	 0.7888184868	-0.299945
H	 1.2969958564	 1.1727210868	 0.1262658769	 0.265828
H	-0.3730881515	 1.5684282816	 0.478888422	 0.282253
H	-3.1165388081	 0.3080350865	 0.5045412186	 0.284791
H	-3.1054427467	-1.1355992236	-1.4481444746	 0.089263
H	-1.4988884302	-1.2634675508	-2.2152849089	 0.120137
H	-2.7272522594	-3.4501842713	-0.638466074	 0.080858
H	 0.0107047907	-2.8842769164	-0.8654658057	 0.298751
H	-0.9735782681	-2.3288865775	 1.469681256	 0.12013
H	-2.7095673776	-1.9384857583	 1.3289290145	 0.08924
37.7653	173.8574	192.7255	211.432	268.325	325.5475	363.1018	364.3552	395.3234	437.0719	469.4329	555.5594	632.9186	657.1931	673.4541	765.0387	798.7572	801.3036	837.7675	939.1097	951.5319	986.7726	1037.2801	1074.6967	1099.2715	1127.3692	1168.9645	1200.2174	1215.4884	1257.7788	1267.9605	1317.1332	1356.8903	1437.3595	1448.9928	1472.7195	1504.6508	1596.2998	1760.1436	3046.9613	3051.8195	3083.264	3125.577	3125.869	3595.3964	3603.9027	3742.4131	3833.8222
NC(=O)C1(O)CC(O)C1	NC(=O)[C@@]1(O)C[C@@H](O)C1	
InChI=1S/C5H9NO3/c6-4(8)5(9)1-3(7)2-5/h3,7,9H,1-2H2,(H2,6,8)	InChI=1S/C5H9NO3/c6-4(8)5(9)1-3(7)2-5/h3,7,9H,1-2H2,(H2,6,8)/t3-,5-
