17
gdb 65690	2.77861	1.12282	0.94861	3.2638	68.95	-0.2479	-0.0332	0.2147	1242.6605	0.13184	-458.973486	-458.964229	-458.963284	-459.00855	33.449	
O	 0.223015162	 1.5288176061	-0.307309222	-0.487028
C	 0.0093011471	 0.1691800529	 0.006480126	 0.398409
C	 0.8841077511	-0.6309806455	-0.9684996192	-0.301146
C	 2.3461438661	-0.2674884706	-0.7821518576	 0.1562
O	 3.077380708	-0.8447967906	-0.0168882002	-0.242821
C	 0.1980161345	-0.25676848	 1.5038090535	-0.417946
C	-1.1682010184	-0.9530017138	 1.4233537727	 0.414538
O	-1.7463961197	-1.7300005964	 2.1247475114	-0.285025
C	-1.4768382487	-0.3241243453	 0.0550031729	-0.414238
H	-0.250696128	 2.0748888082	 0.3285902698	 0.282987
H	 0.7626150815	-1.7009205255	-0.7780334778	 0.128913
H	 0.5649782251	-0.4028143885	-1.9909880646	 0.119537
H	 2.7065118528	 0.5949831877	-1.3803914103	 0.098274
H	 1.0643566339	-0.8756595054	 1.7470574256	 0.161069
H	 0.178928168	 0.598775026	 2.1892934541	 0.125902
H	-2.1823311446	 0.510666531	 0.142135209	 0.128084
H	-1.8283328007	-0.9941836803	-0.7337458335	 0.134291
49.6457	57.8823	87.6086	207.9027	265.6113	303.3768	341.8668	366.2464	392.5813	443.0487	515.4579	544.3234	627.7676	663.8332	731.9123	844.7827	890.9069	922.935	942.4354	989.0127	1010.6169	1040.0493	1078.9597	1131.5625	1136.7531	1179.8853	1184.3725	1222.9162	1297.8511	1312.4618	1389.6123	1420.4185	1423.6445	1441.5324	1466.4711	1822.5266	1898.1578	2917.6273	3044.6056	3048.9055	3051.5592	3110.3896	3113.8528	3123.7438	3813.2701
OC1(CC=O)CC(=O)C1	OC1(CC=O)CC(=O)C1	
InChI=1S/C6H8O3/c7-2-1-6(9)3-5(8)4-6/h2,9H,1,3-4H2	InChI=1S/C6H8O3/c7-2-1-6(9)3-5(8)4-6/h2,9H,1,3-4H2
