15
gdb 43351	2.9686	1.81195	1.47334	1.9961	65.91	-0.2439	-0.0678	0.176	889.7101	0.11483	-457.783026	-457.776465	-457.775521	-457.814054	25.706	
O	 0.019209981	-0.0224959927	-0.0780573209	-0.326149
C	-0.0266185293	 1.1827910762	 0.0381162251	 0.384239
C	-1.281376456	 1.9661303081	 0.1150573509	-0.182293
C	-1.2066080472	 3.3025369893	 0.160642608	-0.036197
C	 0.1609662862	 3.9669841899	 0.1888818167	 0.130614
O	 0.6894139147	 4.0276050424	-1.1360809972	-0.261904
C	 1.3668779914	 2.7852291492	-1.3410824277	-0.111432
C	 1.2320185555	 2.0602275383	 0.0280266037	-0.076098
O	 1.0602258553	 3.16731543	 0.9160732888	-0.241403
H	-2.2177310663	 1.4185343243	 0.0950219246	 0.121934
H	-2.0890098576	 3.934920963	 0.1430628247	 0.123505
H	 0.1457959048	 4.9735216999	 0.6103190608	 0.106104
H	 0.9130259832	 2.2254054479	-2.1653304161	 0.126529
H	 2.41602666	 2.9895304026	-1.5754906962	 0.127085
H	 2.1079555243	 1.4831778617	 0.3212035346	 0.115465
107.2179	212.4753	280.0654	401.5549	436.5653	450.295	504.6864	680.4059	723.2513	737.1645	771.867	853.4459	868.0103	911.3886	944.9563	951.7562	996.3126	1011.0001	1039.565	1052.444	1101.2896	1168.6198	1195.6328	1250.62	1262.641	1296.8641	1325.1922	1357.7426	1378.077	1390.1585	1517.6796	1665.8542	1797.1597	3044.5923	3091.3574	3110.7547	3138.8113	3176.9317	3200.0547
O=C1C=CC2OCC1O2	O=C1C=C[C@@H]2OC[C@H]1O2	
InChI=1S/C6H6O3/c7-4-1-2-6-8-3-5(4)9-6/h1-2,5-6H,3H2	InChI=1S/C6H6O3/c7-4-1-2-6-8-3-5(4)9-6/h1-2,5-6H,3H2/t5-,6-/m1/s1
