21
gdb 78356	2.60747	1.36553	1.08662	1.8578	83.27	-0.2545	0.0853	0.3398	1219.1503	0.181372	-387.046748	-387.037811	-387.036866	-387.079999	34.414	
C	-0.1216279595	 1.4121932317	 0.0578694412	-0.425767
C	 0.0421967158	-0.0916009959	 0.1173129638	-0.004845
C	 1.3883916621	-0.665098336	-0.2225984365	-0.071499
C	 0.8865507081	-0.6540252539	 1.235648316	-0.165501
C	 0.8356818921	-2.1586218895	 1.2023719144	 0.456351
C	 1.0361735558	-3.1274642499	 2.2760681722	-0.278965
O	-0.2565033995	-2.9354722932	 1.6816585092	-0.275438
C	 1.3673430354	-2.2069461112	-0.2519944513	-0.106549
C	 0.5468693015	-2.9365562647	-1.3079461824	-0.401209
H	 0.7953183537	 1.9231324147	 0.3711822983	 0.114386
H	-0.3560603227	 1.7437146587	-0.9594295945	 0.119481
H	-0.9308931528	 1.747996965	 0.7148639437	 0.121765
H	-0.848170136	-0.6475900458	-0.1690728597	 0.092008
H	 2.1713640293	-0.0514922928	-0.6518741787	 0.083752
H	 1.2109937722	-0.0423994243	 2.0694548929	 0.085324
H	 1.5143538352	-4.0836024482	 2.0624082325	 0.110377
H	 1.1286460453	-2.7870112229	 3.3073820235	 0.111809
H	 2.3927661096	-2.5941555454	-0.247413704	 0.078348
H	-0.4785834246	-2.5603529676	-1.3578961457	 0.123436
H	 0.9988714478	-2.8225759681	-2.2988891957	 0.111605
H	 0.491216521	-4.0063854008	-1.0824192193	 0.121133
109.886	170.0312	173.4766	196.7167	218.7208	230.3323	283.9153	359.0706	438.2599	483.2001	566.1253	586.0246	733.1846	782.7348	850.4029	857.0735	872.8034	902.698	917.2938	972.7608	998.8942	1007.0568	1046.1119	1064.8758	1097.6909	1117.1764	1118.7835	1139.8834	1148.5492	1162.4734	1188.1215	1206.3335	1239.7155	1270.8559	1305.1608	1357.1401	1411.2357	1414.8028	1420.3426	1450.2142	1492.3401	1493.9382	1494.3799	1503.041	1538.9761	3028.4173	3035.6025	3039.326	3071.602	3093.0344	3094.643	3101.797	3113.2778	3126.3488	3155.1945	3175.2	3185.9911
CC1C2C1C1(CO1)C2C	C[C@H]1[C@H]2[C@@H]1[C@]1(CO1)[C@H]2C	
InChI=1S/C8H12O/c1-4-6-5(2)8(3-9-8)7(4)6/h4-7H,3H2,1-2H3	InChI=1S/C8H12O/c1-4-6-5(2)8(3-9-8)7(4)6/h4-7H,3H2,1-2H3/t4-,5-,6+,7+,8-/m0/s1
