16
gdb 30369	4.44757	1.06128	0.86812	2.8357	77.06	-0.2324	-0.0294	0.203	1291.4924	0.125239	-434.097653	-434.089226	-434.088282	-434.131211	30.462	
C	 0.0428092764	 1.3711913172	 0.1486838935	-0.340093
N	 0.1016171644	-0.0756542988	 0.0951282375	-0.276732
C	 0.5555766178	-0.6205456153	-0.9668657046	 0.233292
N	 1.0797900426	 0.0260066958	-2.0815781059	-0.567646
C	 0.6287562015	-2.0822407061	-1.0571933749	 0.336949
C	 1.2917701941	-2.9484614288	-1.8735960243	-0.192976
N	 1.003381663	-4.2514509061	-1.5003375967	-0.259238
C	 0.1986441686	-4.1104536554	-0.4957877483	 0.075018
O	-0.0797292392	-2.8349620013	-0.1628955345	-0.156779
H	 1.0453601597	 1.8246492077	 0.1813040116	 0.121171
H	-0.4904013866	 1.8159180565	-0.7097050685	 0.101107
H	-0.4861745431	 1.6779641798	 1.0541690248	 0.129432
H	 0.8917023458	 1.0143499979	-2.1447377228	 0.257402
H	 0.9804843726	-0.4534865024	-2.9635274352	 0.255062
H	 1.9732319598	-2.7307054945	-2.6807307739	 0.128478
H	-0.2716875373	-4.8786746362	 0.0977315422	 0.155551
65.0867	124.5459	135.8049	156.4802	288.7644	310.0245	395.7945	406.3969	468.0872	527.232	652.622	666.1468	731.7735	753.9276	852.5949	868.2294	937.4445	961.2856	1004.4449	1098.9894	1106.3082	1131.5224	1158.9157	1188.5682	1194.6459	1258.316	1336.3722	1391.4355	1432.4967	1488.5017	1506.132	1529.163	1610.9815	1640.6364	1725.0191	2949.2401	3009.4772	3101.667	3262.373	3279.1969	3580.5772	3686.3702
CN=C(N)C1=CN=CO1	CN=C(N)c1cnco1	
InChI=1S/C5H7N3O/c1-7-5(6)4-2-8-3-9-4/h2-3H,1H3,(H2,6,7)	InChI=1S/C5H7N3O/c1-7-5(6)4-2-8-3-9-4/h2-3H,1H3,(H2,6,7)
