14
gdb 8760	3.79042	1.54258	1.10395	0.5823	63.58	-0.2631	-0.0929	0.1702	999.9409	0.10595	-415.886557	-415.878131	-415.877187	-415.92053	28.363	
C	-0.3683670169	 1.4055765183	-0.1607783083	-0.335307
N	 0.0048062874	-0.0126301234	-0.0544356956	-0.135366
C	 0.0369079198	-0.6092121577	 1.2145176393	 0.100213
N	-0.2474181321	 0.0455055708	 2.2637088649	-0.463903
C	 0.3309893174	-0.8112849606	-1.1306148071	 0.335265
O	 0.6404823947	-1.9869208301	-1.0431190728	-0.344865
C	 0.3190558094	-0.230739404	-2.5534621326	 0.092292
O	 0.0505668833	 0.8899694065	-2.8901870183	-0.236075
H	 0.4408144533	 1.9874306291	-0.6027157109	 0.148044
H	-1.2596562928	 1.5269193086	-0.7768346344	 0.14803
H	-0.56531233	 1.7495333967	 0.8528048932	 0.176252
H	 0.3268245499	-1.6572837508	 1.1547867929	 0.150736
H	-0.168492502	-0.554419975	 3.0823650142	 0.238794
H	 0.6077378388	-1.0301999384	-3.2652509645	 0.125889
32.3497	108.964	147.1825	171.2189	220.167	295.0512	303.2299	380.7107	487.0594	577.1963	592.0342	699.543	783.769	835.1808	991.1787	1033.6865	1086.3473	1122.2597	1156.4897	1192.4939	1340.2177	1364.2723	1383.703	1415.5709	1466.7773	1497.1877	1505.6222	1711.7898	1754.5526	1833.9573	2948.3803	3076.7797	3150.1598	3150.351	3178.7358	3512.419
CN(C=N)C(=O)C=O	CN(C=N)C(=O)C=O	
InChI=1S/C4H6N2O2/c1-6(3-5)4(8)2-7/h2-3,5H,1H3	InChI=1S/C4H6N2O2/c1-6(3-5)4(8)2-7/h2-3,5H,1H3
