23
gdb 70600	2.01439	1.80622	1.41123	1.4711	83.79	-0.2231	0.0751	0.2983	1093.9071	0.205236	-388.289762	-388.280529	-388.279585	-388.322649	36.916	
C	-0.5729747913	 1.37326667	 0.115645383	-0.494223
C	-0.0411902843	-0.0382891859	 0.0149804624	 0.309006
C	-0.2035855236	-0.9650056128	 1.2174533322	-0.394265
C	 1.1655888966	-0.5160242447	 0.7705725625	 0.075473
O	 1.9296786423	-1.3967356971	-0.0131164784	-0.262489
C	 1.0845840334	-1.8621279015	-1.0621783725	-0.127495
C	 0.0536273823	-0.7375885315	-1.3585257455	 0.215446
C	-1.2797857227	-1.3130566698	-1.8496216832	-0.436422
C	 0.6377679761	 0.2256271259	-2.4085498517	-0.43584
H	 0.0034784348	 2.0780423891	-0.4916199416	 0.120939
H	-1.6198779773	 1.4311550048	-0.2066089348	 0.117082
H	-0.5347608096	 1.7254863696	 1.1511185319	 0.114265
H	-0.6012627517	-0.5151328822	 2.1214186239	 0.107711
H	-0.4905067246	-2.0015314726	 1.0796994	 0.112654
H	 1.7861601264	 0.1155990176	 1.39606263	 0.096643
H	 1.7179096471	-2.0958902574	-1.9227819958	 0.104711
H	 0.5732524998	-2.787852026	-0.7607614617	 0.088322
H	-1.7261307041	-1.9790809676	-1.1047150327	 0.113972
H	-1.999592375	-0.5150413987	-2.0608134765	 0.114765
H	-1.1448742709	-1.8840609807	-2.7754418052	 0.111792
H	 0.7905504759	-0.2980704245	-3.3583084013	 0.109097
H	-0.0298268583	 1.0700470847	-2.6036295412	 0.11364
H	 1.6049654087	 0.621640351	-2.083052344	 0.125214
128.6874	194.8955	211.9553	223.6055	245.2667	279.3392	312.1452	336.1268	370.6429	410.2268	453.6301	477.733	582.8154	615.8926	697.4003	803.3311	844.1745	878.001	907.6154	940.1566	952.5097	965.8318	985.3621	1011.1892	1029.984	1035.9507	1049.499	1093.6434	1126.7841	1150.0051	1184.9193	1207.6408	1237.0275	1256.8812	1295.7883	1302.0172	1371.1864	1395.4994	1406.3416	1419.2773	1425.9059	1482.2983	1484.0616	1485.9566	1495.955	1500.8071	1508.1198	1512.1926	1530.9862	2994.8679	3024.4928	3026.7562	3033.5317	3080.6859	3084.941	3090.0483	3098.0844	3102.6014	3102.699	3110.1901	3130.6429	3176.7679	3214.6195
CC12CC1OCC2(C)C	C[C@]12C[C@H]1OCC2(C)C	
InChI=1S/C8H14O/c1-7(2)5-9-6-4-8(6,7)3/h6H,4-5H2,1-3H3	InChI=1S/C8H14O/c1-7(2)5-9-6-4-8(6,7)3/h6H,4-5H2,1-3H3/t6-,8+/m1/s1
