16
gdb 19850	4.66325	2.08523	1.74562	3.2961	68.4	-0.2357	-0.0006	0.2351	771.9139	0.133331	-342.721683	-342.715703	-342.714759	-342.751507	24.17	
C	 0.0360577821	 1.3989092527	 0.2173028482	-0.231319
C	 1.2882590176	 0.7025221099	-0.1416818919	-0.072791
C	 1.8968992817	-0.1696438755	 0.9917323811	-0.076918
C	 2.2654276183	 0.1326793156	 2.4533545779	-0.271371
C	 1.2660540032	-0.8408724037	 3.188472537	-0.161079
N	 0.0504366845	-0.9350950843	 2.31815637	-0.26573
C	 0.4870369136	-0.616421511	 1.1779750436	 0.340105
N	-0.0505592031	-0.0663800512	-0.0550308625	-0.190452
H	-0.1447599155	 1.7369738925	 1.2337922793	 0.134658
H	-0.4386929602	 1.9981019449	-0.5533923707	 0.134013
H	 1.7620296815	 0.8450327777	-1.1062457579	 0.108991
H	 2.5364733912	-0.9354104397	 0.541134109	 0.10621
H	 3.3111935593	-0.0541661665	 2.7086862423	 0.105735
H	 2.0275791651	 1.1677427897	 2.7197111263	 0.111831
H	 1.7056726479	-1.8360087405	 3.3352329435	 0.112675
H	 0.9680073628	-0.4686970007	 4.1720097248	 0.115443
173.9408	232.7978	304.5437	456.1082	523.3823	628.7659	645.1563	702.4099	738.7154	801.753	850.6045	868.7413	901.3739	924.2288	968.7993	995.9528	1043.4622	1057.2629	1095.4584	1115.2352	1123.3467	1140.3277	1170.4775	1198.7282	1229.6032	1235.7236	1291.6357	1310.9296	1333.269	1359.1541	1482.5918	1497.3734	1502.3498	1754.039	3028.0572	3054.136	3062.1453	3094.5422	3113.3078	3121.4612	3182.1901	3211.4897
C1C2C3CCN=C3N12	C1[C@H]2[C@H]3CC[N][C]3N12	
InChI=1S/C6H8N2/c1-2-7-6-4(1)5-3-8(5)6/h4-5H,1-3H2	InChI=1S/C6H8N2/c1-2-7-6-4(1)5-3-8(5)6/h4-5H,1-3H2/t4-,5+,8?/m1/s1
