17
gdb 55049	3.51127	0.86483	0.84615	1.1686	75.29	-0.253	-0.0318	0.2212	1417.3496	0.131611	-421.785766	-421.775999	-421.775055	-421.821655	34.326	
C	 0.650040742	-0.4819586964	-0.2860702425	-0.478284
C	-0.204623884	 0.7377134618	-0.0233256773	 0.339811
O	 0.2213419212	 1.8694070491	-0.0559061178	-0.298163
C	-1.6827611201	 0.5228675661	 0.2205022998	-0.06031
O	-2.1718320156	-0.8111251896	 0.3813381919	-0.239557
C	-2.2341999908	 0.0556207029	 1.5083697008	 0.083887
C	-1.3819163554	-0.2677210758	 2.7249327334	-0.393889
C	-2.0014452904	-1.2768894693	 3.5769388464	 0.292333
C	-2.5329119523	-2.1028007344	 4.2684213073	-0.425574
H	 1.7044628292	-0.2043509727	-0.2693915147	 0.142509
H	 0.4411072986	-1.2906247481	 0.4174103863	 0.150926
H	 0.3946836071	-0.8744943165	-1.278655402	 0.155125
H	-2.3099170806	 1.1872274548	-0.3748444902	 0.123031
H	-3.2443964391	 0.383880672	 1.7558449737	 0.115195
H	-0.3861202547	-0.5985862898	 2.4143337771	 0.14034
H	-1.2375271794	 0.6602292289	 3.2942557345	 0.150154
H	-2.9933683058	-2.837423863	 4.8815679332	 0.202467
42.3655	65.8371	89.0953	118.0002	168.2031	227.9637	333.1084	354.6319	399.2827	475.0662	499.671	531.7105	618.5111	626.5604	653.3078	754.432	815.1238	903.4745	943.294	963.3382	986.6778	1011.2273	1061.1441	1116.4449	1122.0843	1233.8524	1244.3467	1281.3096	1324.9353	1372.4535	1386.078	1452.8845	1455.3145	1461.1597	1470.872	1806.9498	2244.2271	3029.0393	3040.2301	3081.9732	3105.7203	3111.3639	3117.9647	3163.1106	3506.154
CC(=O)C1OC1CC#C	CC(=O)[C@H]1O[C@H]1CC#C	
InChI=1S/C7H8O2/c1-3-4-6-7(9-6)5(2)8/h1,6-7H,4H2,2H3	InChI=1S/C7H8O2/c1-3-4-6-7(9-6)5(2)8/h1,6-7H,4H2,2H3/t6-,7+/m0/s1
