16
gdb 9669	3.36522	1.406	1.35193	3.3637	62.05	-0.2548	-0.0321	0.2227	978.1649	0.128147	-420.863287	-420.85475	-420.853806	-420.896364	30.858	
O	 0.0144175635	 0.7067926305	 0.7859546399	-0.424328
C	-0.3228142368	 0.262878031	-0.5142628946	-0.075189
C	-1.5773802157	-0.5888475592	-0.529208454	-0.045492
C	-1.6537978083	-1.8084271738	-1.3954525864	-0.347468
C	-1.4871661459	-1.9709783672	 0.1059238139	 0.254994
O	-0.2407031757	-2.307594583	 0.6526554135	-0.468808
C	-2.6639445945	-2.4341139409	 0.8916287768	 0.107193
O	-3.8131446142	-2.2634177113	 0.5637869436	-0.266494
H	 0.2521695037	-0.0826249894	 1.285919851	 0.294942
H	-0.4883322763	 1.1628762828	-1.1157640846	 0.115954
H	 0.5056394441	-0.2931492946	-0.9751018334	 0.088683
H	-2.5101222969	-0.0711725964	-0.328339451	 0.122322
H	-2.6155366184	-2.1000349858	-1.8020934543	 0.14372
H	-0.7849158925	-2.0492225117	-1.9998525098	 0.121066
H	 0.0083303558	-3.1898345058	 0.3583984746	 0.29677
H	-2.3858253419	-2.9556707652	 1.8347482449	 0.082138
85.6365	107.9461	153.492	210.8444	256.8324	281.4537	370.8638	379.3354	447.0988	467.4174	528.3055	646.25	730.2427	776.9793	865.0509	937.7958	948.2368	1030.2737	1061.6568	1067.1908	1086.2928	1094.9784	1149.4642	1215.367	1262.6863	1267.1998	1319.4409	1369.8128	1406.9927	1416.0288	1431.7358	1460.0787	1496.4695	1812.6359	2889.1153	3003.8514	3075.0175	3131.5589	3168.5034	3230.151	3801.4273	3808.4204
OCC1CC1(O)C=O	OC[C@H]1C[C@]1(O)C=O	
InChI=1S/C5H8O3/c6-2-4-1-5(4,8)3-7/h3-4,6,8H,1-2H2	InChI=1S/C5H8O3/c6-2-4-1-5(4,8)3-7/h3-4,6,8H,1-2H2/t4-,5+/m1/s1
