19
gdb 81291	2.17992	1.77838	1.54202	2.9643	73.66	-0.2271	-0.0193	0.2078	991.0536	0.160225	-423.03854	-423.030605	-423.029661	-423.070977	30.795	
C	-0.1359981584	 1.6300243209	 0.0426500835	-0.435118
C	 0.045793497	 0.1219452554	-0.0075912594	 0.009477
C	 0.8045532468	-0.6011671442	-1.1514724089	 0.076153
C	 2.0374140401	 0.1620411735	-1.6429783864	-0.239581
C	 3.0413887651	 0.3406551296	-0.4706847823	-0.302755
C	 2.3734560781	 0.2249892132	 0.8997031873	 0.399104
O	 2.7837567102	 0.7573683072	 1.9022087869	-0.322623
C	 1.1057866515	-0.6190992137	 0.8545314797	-0.033264
O	 1.2484532856	-1.6124042232	-0.1942874804	-0.300501
H	 0.8033462814	 2.1774677362	-0.0746961141	 0.12928
H	-0.8180564037	 1.9614054525	-0.7476630338	 0.122424
H	-0.5702072938	 1.9316674311	 1.001199035	 0.133685
H	-0.9131310106	-0.3827622065	 0.1405452637	 0.095608
H	 0.2174349686	-1.0332282384	-1.9664256549	 0.080731
H	 2.5111437455	-0.3915992902	-2.4586530103	 0.112828
H	 1.733365228	 1.131065465	-2.0539420269	 0.110564
H	 3.7818136536	-0.466847221	-0.5062712679	 0.145511
H	 3.5958432811	 1.2805690362	-0.5180186492	 0.12393
H	 0.8381291738	-1.0329712734	 1.8285702384	 0.094547
84.4209	141.9427	189.6019	232.6796	308.4443	397.3471	438.2151	493.3207	508.6755	569.7409	627.9334	711.9082	787.3451	801.084	863.6963	895.6888	910.7179	970.2126	992.1133	1019.1132	1046.0245	1052.1652	1107.5238	1135.791	1162.9327	1177.7334	1221.4885	1241.3812	1246.355	1288.4066	1307.4686	1324.3225	1346.6479	1366.4579	1386.2623	1420.794	1448.3562	1485.4948	1497.889	1501.2306	1828.1555	3038.0888	3044.9728	3049.6505	3063.155	3075.6825	3088.5968	3102.2018	3104.1045	3112.5072	3114.4149
CC1C2CCC(=O)C1O2	C[C@H]1[C@H]2CCC(=O)[C@@H]1O2	
InChI=1S/C7H10O2/c1-4-6-3-2-5(8)7(4)9-6/h4,6-7H,2-3H2,1H3	InChI=1S/C7H10O2/c1-4-6-3-2-5(8)7(4)9-6/h4,6-7H,2-3H2,1H3/t4-,6+,7+/m0/s1
