18
gdb 119763	3.47861	0.96582	0.80617	5.5912	74.75	-0.2267	-0.002	0.2247	1407.1803	0.14813	-439.124222	-439.115491	-439.114547	-439.158354	32.112	
N	-0.4842753903	 2.0673261924	 0.5300882933	-0.499042
H	-0.7841482143	 1.8692761513	-0.4205608988	 0.22676
H	 0.4385920863	 2.4831232429	 0.4544891503	 0.232962
H	-2.4566490472	 3.2061217023	 1.8817131771	 0.172965
C	-0.4140367072	 0.8214210409	 1.2998415744	-0.140701
C	-1.8193273254	 0.2559942522	 1.5807912262	-0.314251
C	-2.6704835561	 1.1137944383	 2.4626938665	 0.24097
C	-3.2301181267	 2.4693107291	 2.1177146756	-0.466937
C	-3.9913315299	 2.8586982251	 3.3801600544	 0.433797
O	-4.6180390206	 3.8416031685	 3.6340753157	-0.324053
O	-3.8515789991	 1.8243258058	 4.2922777971	-0.20347
C	-3.07537974	 0.838621228	 3.7018135835	-0.036051
H	-2.9048910869	-0.0257449674	 4.3273810761	 0.131412
H	 0.1816291938	 0.031991631	 0.8110088494	 0.084032
H	 0.0753088352	 1.0444344518	 2.2546589119	 0.111153
H	-2.3245006721	 0.0908347236	 0.617345421	 0.101401
H	-1.7058864251	-0.7327585699	 2.0405672021	 0.105953
H	-3.9181650546	 2.4589989039	 1.2635969044	 0.143099
54.8238	102.6868	129.0971	197.0959	248.6603	283.6898	350.2863	438.3397	484.3873	507.851	568.2708	605.8367	735.4222	826.1843	833.8081	865.1661	876.6742	922.932	944.2256	958.4402	1022.929	1076.9223	1091.4358	1127.9118	1146.7129	1159.8975	1204.0285	1266.6298	1294.779	1321.6152	1361.5083	1376.8168	1419.9145	1439.8035	1472.023	1507.6436	1659.1986	1716.039	1900.9225	2952.9173	2998.0098	3046.528	3056.9126	3066.9099	3095.6524	3245.2752	3489.6995	3568.8551
[NH3+]CCC1=CC(=O)O[CH-]1	NCCC1=COC(=O)C1	
InChI=1S/C6H8NO2/c7-2-1-5-3-6(8)9-4-5/h3-4H,1-2,7H2/q-1/p+1	InChI=1S/C6H9NO2/c7-2-1-5-3-6(8)9-4-5/h4H,1-3,7H2
