20
gdb 37172	3.28634	1.77097	1.59249	1.3665	81.73	-0.2193	0.0819	0.3012	929.6701	0.174567	-365.910316	-365.904012	-365.903068	-365.940398	28.285	
C	 0.0695016493	 1.5322549232	-0.002111669	-0.261193
C	 1.3326520261	 0.7516931385	 0.081221694	-0.021801
C	 1.9424110292	 0.2559445526	 1.4409219896	-0.094184
C	 1.4745939454	-1.2193964329	 1.2925598602	-0.243773
C	 0.0676374801	-0.5085786209	 1.3778047127	 0.370805
C	-0.8920148594	-1.0470733657	 2.4369260982	-0.335709
C	 0.140260201	-0.4794981669	 3.4897340505	-0.282977
C	 0.7413433028	 0.4694780382	 2.3829564506	-0.029154
N	-0.010493165	 0.0596760421	 0.0123664687	-0.184119
H	-0.2960037497	 2.1043928515	 0.842774288	 0.115648
H	-0.1940706146	 1.9599581854	-0.9658198799	 0.114761
H	 1.9681073966	 0.661365887	-0.7955276051	 0.097105
H	 2.9747443727	 0.5525964544	 1.6361042717	 0.059294
H	 1.6818255549	-1.7190838946	 0.3444792517	 0.101667
H	 1.7239699347	-1.8695168372	 2.1301216054	 0.097455
H	-1.8359891966	-0.4951899487	 2.4750028114	 0.108718
H	-1.1029034253	-2.1198541502	 2.4419071227	 0.101244
H	-0.3057779418	 0.0735563827	 4.3178430741	 0.103288
H	 0.8087475531	-1.2342614785	 3.9044984575	 0.113122
H	 0.3816104266	 1.4878851899	 2.523349837	 0.069804
247.2294	298.2573	379.9613	424.362	465.4122	547.0509	580.2188	652.2764	698.5022	732.9263	757.7173	778.4469	840.6282	847.9033	867.2891	888.721	891.1493	949.2038	999.9295	1013.9699	1025.1961	1051.9846	1072.7633	1078.5878	1096.4584	1110.7146	1121.2015	1155.1125	1182.3798	1197.7953	1211.57	1220.6171	1221.9019	1247.0412	1248.6913	1259.3961	1301.6865	1331.4994	1360.0919	1475.8944	1491.6419	1502.5446	1521.541	3052.3225	3078.8719	3083.2365	3091.1499	3101.5071	3105.3323	3124.6212	3136.8728	3147.966	3151.5218	3205.1445
C1C2C3CC4(CCC34)N12	C1[C@H]2[C@@H]3C[C@]4(CC[C@@H]34)N12	
InChI=1S/C8H11N/c1-2-8-3-5(6(1)8)7-4-9(7)8/h5-7H,1-4H2	InChI=1S/C8H11N/c1-2-8-3-5(6(1)8)7-4-9(7)8/h5-7H,1-4H2/t5-,6+,7+,8+,9?/m1/s1
