18
gdb 21066	3.31659	1.98462	1.2712	2.5691	75.41	-0.2177	0.0295	0.2472	976.4578	0.15374	-344.021749	-344.012816	-344.011872	-344.056142	30.746	
C	 0.0111555675	 1.4164235177	-0.0223436105	-0.326875
N	 0.0016662567	-0.0281673181	 0.0311641637	-0.003921
N	-0.0540458742	-0.7380867426	-1.1163111379	-0.279871
C	-0.0504610497	-2.0069983905	-0.7193976196	-0.076927
C	 0.0067911839	-2.1324220424	 0.6846260721	 0.116042
C	 0.0350680362	-3.3933064747	 1.4949764304	-0.510468
C	 0.0391382956	-0.8215838504	 1.1388345589	 0.280758
C	 0.1029902971	-0.2670011375	 2.523733297	-0.505613
H	 0.9224259542	 1.8244404459	 0.4281728897	 0.133837
H	-0.0277489938	 1.6992250434	-1.0735436121	 0.161739
H	-0.8554697261	 1.8390864081	 0.4974950045	 0.133952
H	-0.0910504144	-2.7984672497	-1.454950526	 0.101486
H	 1.0071553115	-3.5598580229	 1.9750612244	 0.124321
H	-0.7206219793	-3.3928536034	 2.2888487671	 0.122117
H	-0.1635796211	-4.2613288836	 0.8598183963	 0.125882
H	 1.0180700358	 0.3132634475	 2.6951903703	 0.133556
H	-0.7447478652	 0.3929552453	 2.7444742772	 0.13255
H	 0.0878071954	-1.079962792	 3.2529509146	 0.137437
40.8754	71.1098	110.7192	148.3446	244.6916	252.7737	277.4098	299.0003	479.5284	583.9743	651.2606	676.2512	706.947	774.4218	870.6484	953.076	1001.7095	1038.8966	1049.956	1071.1848	1139.7779	1149.0171	1210.2903	1225.9735	1337.5437	1388.1841	1415.1087	1419.5328	1426.0833	1453.9194	1478.0404	1487.3429	1490.2054	1490.4138	1494.0713	1505.2746	1530.9106	1615.171	3021.2243	3022.2477	3031.7718	3067.1033	3069.7283	3085.937	3104.8682	3124.5707	3164.728	3232.0427
CN1N=CC(C)=C1C	Cn1ncc(C)c1C	
InChI=1S/C6H10N2/c1-5-4-7-8(3)6(5)2/h4H,1-3H3	InChI=1S/C6H10N2/c1-5-4-7-8(3)6(5)2/h4H,1-3H3
