16
gdb 6683	7.65518	0.72516	0.68743	18.6915	90.78	-0.1521	-0.0755	0.0766	1549.8064	0.128928	-417.034102	-417.024885	-417.023941	-417.069396	31.632	
O	 0.1185702828	 0.3999133128	 0.8662845997	-0.465904
C	 0.0607496019	 1.2818905191	-0.0129541116	 0.374004
O	 0.8968162058	 1.8013178458	-0.7531096171	-0.448829
C	-1.4279303395	 1.8858412653	-0.2018559236	-0.348664
C	-2.4198412299	 0.8302558322	 0.2318985768	-0.157279
N	-3.7744546005	 1.397251032	 0.4602721322	-0.201699
C	-4.8526386264	 1.0962029861	-0.1952473324	 0.194505
N	-6.0429726503	 1.6910575646	-0.0564737484	-0.490141
H	-6.1937294308	 2.4534290067	 0.5843894088	 0.294534
H	-6.813782912	 1.4166986345	-0.6404151836	 0.304519
H	-1.4931299466	 2.7609018398	 0.4599972281	 0.086177
H	-1.5829270012	 2.2238138954	-1.2295370218	 0.093883
H	-2.5341741726	 0.0286402526	-0.5032759573	 0.128345
H	-2.0411328577	 0.3910092514	 1.1604854625	 0.169497
H	-3.8006057993	 2.167422987	 1.120709192	 0.277958
H	-4.7857956337	 0.2948252346	-0.9234401243	 0.189092
41.0208	58.6112	78.935	155.6707	226.3177	261.6529	293.0414	330.1834	437.6215	506.4967	554.5657	604.925	676.5198	748.7567	793.3698	814.0949	916.4953	1001.9206	1016.291	1066.1708	1091.736	1132.7283	1176.0457	1253.9131	1285.8598	1333.6011	1344.6657	1397.046	1448.0772	1463.8085	1483.5186	1651.4428	1755.1289	1796.8026	3015.5502	3057.1349	3096.7962	3120.4788	3212.5355	3549.8225	3610.5463	3732.9684
[O-]C(=O)CCNC=[NH2+]	[O]C(=O)CCNC=[NH2]	
InChI=1S/C4H8N2O2/c5-3-6-2-1-4(7)8/h3H,1-2H2,(H2,5,6)(H,7,8)	InChI=1S/C4H8N2O2/c5-3-6-2-1-4(7)8/h3,6H,1-2,5H2
