18
gdb 87762	4.45323	0.87695	0.82809	5.1892	75.84	-0.2379	0.028	0.2659	1397.4497	0.146746	-439.067643	-439.058731	-439.057787	-439.102423	32.187	
O	 0.0498156409	 1.39188931	 0.1328812894	-0.418535
C	 0.0655582895	-0.004466062	 0.1296328527	 0.04498
C	-0.5983182724	-0.7620472812	 1.2601338917	-0.391086
C	-1.2544184871	-0.6592634591	-0.0878648672	 0.308885
C	-2.555480682	 0.0791638031	-0.439823105	-0.24273
N	-2.8322641585	-1.0144822924	-1.3827060079	-0.048929
C	-1.6143375881	-1.7727174591	-1.0848875884	-0.24616
C	-3.7314034701	-1.182801272	-2.3743617686	 0.136076
O	-3.7283594229	-2.1129268928	-3.1558877548	-0.335028
H	 0.6868933858	 1.6999676839	 0.7859591498	 0.293102
H	 0.9381641018	-0.4598067721	-0.3406694785	 0.09379
H	-0.1778309434	-1.7160859987	 1.5629843504	 0.120423
H	-1.0258406156	-0.1714340002	 2.0647067894	 0.120869
H	-3.2864746126	 0.1628921883	 0.3727982912	 0.114763
H	-2.4130776334	 1.060070443	-0.9048195935	 0.13492
H	-0.9457159633	-1.8860492461	-1.9455992712	 0.126067
H	-1.8074714904	-2.7597686597	-0.6498642576	 0.121589
H	-4.4866731683	-0.3695362331	-2.3897438718	 0.067002
24.7444	111.6318	149.3521	182.8047	227.5941	294.6463	318.3875	364.8789	439.4472	449.2012	519.0081	647.0897	802.4614	818.143	870.1531	887.773	940.9328	969.4641	1027.3667	1035.1438	1042.5989	1096.3867	1121.5674	1132.9397	1166.4692	1170.1106	1183.4208	1222.4069	1270.7541	1286.7346	1304.8947	1366.717	1397.9218	1427.8484	1450.5668	1507.2526	1508.4427	1525.8266	1790.1762	2918.0458	3024.9743	3032.0155	3073.4472	3078.747	3093.231	3121.3859	3211.6952	3807.3763
OC1CC11CN(C1)C=O	O[C@H]1CC21CN(C2)C=O	
InChI=1S/C6H9NO2/c8-4-7-2-6(3-7)1-5(6)9/h4-5,9H,1-3H2	InChI=1S/C6H9NO2/c8-4-7-2-6(3-7)1-5(6)9/h4-5,9H,1-3H2/t5-/m0/s1
