16
gdb 82288	2.60172	1.83361	1.21009	2.4742	72.14	-0.2516	-0.0613	0.1903	991.3924	0.12553	-437.880724	-437.873342	-437.872398	-437.912706	28.63	
O	 0.2384866269	 1.3275799458	 0.4252147796	-0.437095
C	 0.0180996494	-0.007879631	 0.053084301	 0.023266
C	-1.4526045044	-0.3711445792	 0.1356588298	-0.027237
C	-2.4777799408	 0.0753486464	-0.8405806625	-0.242704
N	-2.0211642248	-1.3408825662	-0.8070139608	-0.123096
C	-1.2212102117	-1.7453755725	-1.8838237328	-0.010544
C	 0.0488947407	-1.3577424465	-2.112813035	-0.167301
C	 0.6443827718	-0.2933966434	-1.3161205173	 0.32087
O	 1.5940468608	 0.3860307999	-1.6717926949	-0.364884
H	 1.0071598445	 1.6005046986	-0.1021286977	 0.293862
H	 0.5475028071	-0.6918800994	 0.7446538482	 0.097265
H	-1.8053747469	-0.5363733075	 1.1506452149	 0.115729
H	-3.4981842598	 0.2452695508	-0.5131324799	 0.135956
H	-2.1497575461	 0.6645589473	-1.6920597855	 0.139494
H	-1.7323437326	-2.4156561475	-2.5712488363	 0.129265
H	 0.5963168558	-1.7181164258	-2.9760386508	 0.117154
72.1633	173.1467	249.8683	312.1323	376.2838	424.5434	467.9174	508.0883	546.4771	582.475	672.8434	723.6953	793.9143	850.2893	866.9463	877.7207	949.0663	995.4524	1032.2506	1056.0111	1097.9345	1118.2694	1142.7164	1177.1339	1213.0536	1235.9919	1267.596	1332.3919	1356.3054	1417.1443	1432.8946	1449.6985	1501.2304	1636.4134	1754.4947	2913.5883	3121.5735	3137.31	3158.247	3205.8672	3218.1639	3681.9926
OC1C2CN2C=CC1=O	O[C@H]1[C@H]2CN2C=CC1=O	
InChI=1S/C6H7NO2/c8-5-1-2-7-3-4(7)6(5)9/h1-2,4,6,9H,3H2	InChI=1S/C6H7NO2/c8-5-1-2-7-3-4(7)6(5)9/h1-2,4,6,9H,3H2/t4-,6+,7?/m1/s1
