20
gdb 78015	2.01309	1.55609	1.05844	3.2737	81.74	-0.2428	-0.0248	0.218	1215.1117	0.1694	-403.118682	-403.109563	-403.108619	-403.152339	34.191	
C	-0.0440501708	 1.5678447101	 0.0619034595	-0.410133
C	-0.0099675158	 0.0451328079	 0.0156091551	 0.008874
C	 1.0216101548	-0.5532492156	-0.9933620817	-0.332156
C	 1.8107542571	-1.1569972671	 0.1779855639	 0.23282
C	 3.2769609456	-1.1688892542	 0.3239959409	 0.081031
O	 4.0434950326	-0.7358778776	-0.5039640754	-0.271269
C	 0.7883414426	-0.5876488373	 1.1797016079	-0.094368
N	 1.0187734443	-1.9943488439	 1.0617718434	-0.127197
C	 0.0267460916	-2.9317537909	 0.5516073277	-0.324568
H	 0.9647210449	 1.9815920669	 0.1703463561	 0.125012
H	-0.477407107	 1.9776826767	-0.855920343	 0.122323
H	-0.6448034708	 1.9238397286	 0.9061221161	 0.117461
H	-1.02853648	-0.3461777916	-0.0799569554	 0.077483
H	 0.6505649235	-1.2601159506	-1.7402356606	 0.103291
H	 1.6047529256	 0.2182797837	-1.4991748646	 0.131692
H	 3.6238843914	-1.6047584003	 1.2862803724	 0.078653
H	 0.9824051411	-0.1094461274	 2.1361741929	 0.103158
H	-0.5697160948	-2.564305747	-0.2933008671	 0.114895
H	 0.5409903646	-3.8442407038	 0.2372277669	 0.132337
H	-0.6550709207	-3.1884523267	 1.367606685	 0.130662
88.0771	142.6665	181.5312	200.3117	236.5621	251.9318	260.8189	325.7727	373.25	440.6951	524.1938	572.0771	683.6793	698.6778	768.8891	862.9308	900.3421	914.7017	957.2553	985.7443	1009.5205	1047.5327	1079.8286	1104.7496	1119.0134	1157.1426	1172.1708	1195.9142	1227.4966	1248.8806	1274.7508	1291.7614	1360.198	1378.8657	1411.5309	1427.457	1457.8917	1482.8481	1494.7968	1498.7243	1501.8473	1505.0306	1803.1309	2899.0427	3019.3988	3028.2394	3043.3792	3066.6413	3088.0702	3095.5491	3102.9594	3115.9048	3127.5586	3149.9177
CC1CC2(C=O)C1N2C	C[C@H]1C[C@@]2(C=O)[C@@H]1N2C	
InChI=1S/C7H11NO/c1-5-3-7(4-9)6(5)8(7)2/h4-6H,3H2,1-2H3	InChI=1S/C7H11NO/c1-5-3-7(4-9)6(5)8(7)2/h4-6H,3H2,1-2H3/t5-,6+,7+,8?/m0/s1
