21
gdb 107764	3.43132	1.36448	1.32228	1.2763	80.4	-0.2547	0.0751	0.3298	1064.5379	0.185468	-387.100672	-387.093116	-387.092171	-387.132396	31.251	
O	-0.0790932837	 1.3987971694	 0.01397313	-0.426516
C	-0.0356983241	-0.0237619461	 0.0057914864	-0.182481
C	-1.4525056851	-0.5467152832	 0.0098649113	 0.300543
C	-2.3576734759	-0.1397576706	-1.1835558815	-0.242122
C	-3.6081402842	-0.8898506122	-0.7404737298	-0.060207
C	-3.1385958331	-2.1233882144	 0.00929222	-0.059947
C	-1.614070991	-2.0895001147	 0.0019472971	-0.2662
C	-3.60062804	-0.89843038	 0.777564796	-0.060206
C	-2.3458038623	-0.1533050911	 1.2166914089	-0.242127
H	 0.8246221807	 1.7266303637	 0.0109439412	 0.286975
H	 0.4938630098	-0.3965658535	-0.8866856673	 0.081244
H	 0.5026445923	-0.4064950079	 0.8887651019	 0.081243
H	-2.4949158999	 0.9432312733	-1.2427832068	 0.107303
H	-1.9607954461	-0.4947001788	-2.1418656525	 0.084589
H	-4.5302858648	-0.8819835974	-1.3068588365	 0.075451
H	-3.7028345677	-3.0467578838	 0.0068700085	 0.076117
H	-1.1791602173	-2.5511903787	-0.8918967094	 0.089496
H	-1.170371428	-2.5612512086	 0.886167415	 0.089498
H	-4.5171226017	-0.8970235602	 1.3531011288	 0.075451
H	-1.9394871339	-0.5190205945	 2.1669604406	 0.084592
H	-2.4824076739	 0.9289380492	 1.2894980378	 0.107304
103.4938	177.2435	240.7361	301.1624	376.1719	429.9065	436.5746	461.2028	638.7857	652.537	665.3263	788.4154	815.037	815.3224	878.3784	911.3176	949.3149	954.322	954.6036	966.0066	990.9516	1016.1831	1050.0881	1059.3067	1064.9054	1076.5982	1115.9156	1133.6717	1145.0477	1154.9737	1200.7883	1212.9488	1265.7029	1266.3515	1269.0033	1277.9042	1310.0249	1327.7273	1345.4788	1396.9085	1465.6037	1485.4663	1490.4098	1515.1573	1520.1861	2955.1743	2982.1412	3028.5678	3036.7134	3042.1374	3072.6954	3095.6758	3099.6029	3191.9556	3193.0302	3207.1088	3833.0206
OCC12CC3C(C1)C3C2	OC[C@@]12C[C@H]3[C@@H](C1)[C@H]3C2	
InChI=1S/C8H12O/c9-4-8-1-5-6(2-8)7(5)3-8/h5-7,9H,1-4H2	InChI=1S/C8H12O/c9-4-8-1-5-6(2-8)7(5)3-8/h5-7,9H,1-4H2/t5-,6+,7-,8-
