14
gdb 131533	5.00261	1.14249	0.97048	3.5454	64.49	-0.2321	0.005	0.237	1137.3515	0.102566	-469.980125	-469.972677	-469.971732	-470.012372	27.415	
O	 0.0703041222	 1.3992799191	 0.3993077202	-0.405145
C	 0.0695981836	 0.0754331043	-0.050747824	-0.030088
C	-1.3699576684	-0.5782017911	 0.0217942576	-0.173722
N	-1.2619938517	-0.7029487385	-1.4439037088	 0.072177
N	-1.6524718501	-1.3714949647	-2.560948474	-0.343546
C	-0.574052438	-1.1434853505	-3.3192951066	 0.409781
O	-0.5339946351	-1.5682000503	-4.5865716761	-0.397606
N	 0.4749682859	-0.4551881532	-2.7555125568	-0.458937
C	-0.0349547299	-0.2136875061	-1.5568220528	 0.316652
H	 0.9485125763	 1.7702603502	 0.2631467219	 0.299298
H	 0.8335582961	-0.5355184676	 0.4472551355	 0.107313
H	-1.4140608712	-1.5352293936	 0.546474224	 0.143079
H	-2.160566608	 0.0950398488	 0.3576693043	 0.147598
H	 0.3266490284	-1.3064889968	-4.9358544143	 0.313145
76.6385	148.78	228.2095	277.7522	306.1301	408.2259	418.5739	460.1029	552.9604	628.4406	728.9975	762.7785	802.5225	859.9259	897.6357	991.6344	1006.2717	1088.1347	1133.355	1160.4421	1195.0798	1197.4536	1259.7225	1288.7026	1304.5868	1386.9066	1424.8571	1481.1888	1511.9949	1548.8855	1612.2834	3026.2597	3074.3141	3140.5414	3811.4873	3819.4945
OC1CN2N=C(O)N=C12	O[C@H]1Cn2nc(O)nc12	
InChI=1S/C4H5N3O2/c8-2-1-7-3(2)5-4(9)6-7/h2,8H,1H2,(H,6,9)	InChI=1S/C4H5N3O2/c8-2-1-7-3(2)5-4(9)6-7/h2,8H,1H2,(H,6,9)/t2-/m0/s1
