21
gdb 111860	2.27282	1.53823	1.20294	2.2438	79.08	-0.2299	0.0794	0.3093	1157.9756	0.181922	-424.204627	-424.195388	-424.194443	-424.238471	34.118	
C	 0.0756377506	 1.2293284214	-0.3487396423	-0.23379
O	-0.0921517454	 0.115748762	 0.5049170817	-0.231209
C	-1.2933594992	-0.5507646074	 0.2986685408	 0.093394
C	-1.4535640219	-1.6319149146	-0.7513282774	-0.174706
C	-0.1953070633	-2.2434280775	-1.3398827017	-0.086836
O	 0.6531752876	-2.5757240484	-0.2501824672	-0.251271
C	-0.1209876152	-2.734811442	 0.9288453003	-0.119245
C	-1.4303168806	-1.9777542237	 0.7345860098	 0.231975
C	-2.6356668416	-2.4368222154	 1.5199519102	-0.485965
H	 1.0464409639	 1.6713731252	-0.1138743445	 0.129604
H	 0.0587607148	 0.9391378148	-1.4085151242	 0.109959
H	-0.7091995234	 1.98441038	-0.1853613315	 0.103405
H	-2.1742849382	 0.0781097791	 0.4543114626	 0.076836
H	-2.3690053768	-1.6762968361	-1.3322853511	 0.084809
H	-0.4639740317	-3.1369944439	-1.927857072	 0.089044
H	 0.3688712061	-1.5695936758	-1.9949750574	 0.105532
H	-0.3492222582	-3.7977664401	 1.1155802189	 0.083378
H	 0.4770654311	-2.3596694076	 1.7664721357	 0.113341
H	-2.4753036855	-2.3194253695	 2.598103864	 0.124782
H	-3.5263407305	-1.8588917539	 1.255739189	 0.117718
H	-2.8536149326	-3.4938057867	 1.3285621664	 0.119246
96.4476	142.269	164.0749	182.743	193.5409	219.9964	242.7244	290.5515	343.4627	505.3111	546.0403	582.4031	713.3504	761.9457	865.4049	872.6908	937.3511	953.3165	980.7914	1007.0095	1023.4982	1062.3879	1089.4752	1096.4498	1123.5688	1146.0339	1174.0515	1182.3051	1218.1783	1235.9598	1241.2443	1263.4584	1300.4387	1348.7801	1368.3407	1382.6323	1416.854	1459.6001	1484.6711	1490.652	1490.7475	1500.3902	1505.4265	1515.4265	1526.3268	2957.9469	2964.9723	2979.8498	3024.334	3034.0107	3051.0979	3060.4592	3062.846	3084.0541	3101.6748	3121.1246	3163.6978
COC1C2COCC12C	CO[C@H]1[C@H]2COC[C@@]12C	
InChI=1S/C7H12O2/c1-7-4-9-3-5(7)6(7)8-2/h5-6H,3-4H2,1-2H3	InChI=1S/C7H12O2/c1-7-4-9-3-5(7)6(7)8-2/h5-6H,3-4H2,1-2H3/t5-,6+,7-/m1/s1
