13
gdb 130445	2.05724	1.79318	1.01184	4.2722	66.04	-0.2721	-0.0813	0.1908	1092.1313	0.090063	-448.883333	-448.875436	-448.874491	-448.916539	27.742	
N	-0.462190998	 1.2937160811	 0.3101575537	-0.503749
C	 0.1624622469	 0.0185038484	-0.0390957113	-0.296238
C	 0.9076533125	-0.5079851954	 1.1487012667	 0.272109
N	 2.1800032253	-0.7883909739	 1.1317676928	-0.127428
O	 2.4922061648	-1.2234725613	 2.3952280524	-0.140043
N	 1.4126044854	-1.2123619465	 3.2107919503	-0.13502
C	 0.4216236372	-0.7729688299	 2.4712027422	 0.203624
C	-0.8988625881	-0.6343972195	 2.9772977276	 0.28344
N	-1.9830991866	-0.5375950677	 3.365896973	-0.322277
H	 0.2272152243	 2.0383887951	 0.3148055933	 0.243852
H	-1.1679441138	 1.5402397706	-0.374360591	 0.247025
H	-0.6352902952	-0.6906671434	-0.2881584156	 0.14366
H	 0.8545485854	 0.0422841024	-0.892771774	 0.131046
61.4945	122.3285	177.0255	191.2078	253.9679	321.1476	419.3756	528.0673	552.3255	598.7934	647.7572	695.7092	778.9681	842.9832	904.8252	943.3222	980.0182	1061.2988	1077.709	1181.444	1233.9443	1314.9636	1409.0619	1421.2922	1493.4671	1502.4795	1602.4974	1663.6105	2370.5001	3006.0761	3067.1887	3511.4996	3596.8668
NCC1=NON=C1C#N	NCc1nonc1C#N	
InChI=1S/C4H4N4O/c5-1-3-4(2-6)8-9-7-3/h1,5H2	InChI=1S/C4H4N4O/c5-1-3-4(2-6)8-9-7-3/h1,5H2
