18
gdb 92305	2.25468	1.94861	1.28053	2.5403	71.4	-0.2419	0.0238	0.2657	1012.9144	0.149346	-439.119343	-439.111444	-439.1105	-439.151979	30.015	
C	-0.77635942	 1.3259765253	 0.1263808796	-0.402392
C	-0.0047438615	 0.0334389649	-0.0183919674	 0.15109
O	 1.1552900691	 0.1508724901	-0.8888285418	-0.310998
C	 1.9990989105	-0.5293596114	 0.0606299039	 0.126769
C	 3.1554261402	 0.3482654596	 0.5629369817	-0.189062
N	 2.5688310755	 1.0406403535	 1.6966761799	-0.309997
C	 1.3471976622	 0.5892037718	 2.1220418394	 0.419277
O	 0.7375554259	 0.9896345758	 3.0902241096	-0.392718
C	 0.8974640129	-0.4858635157	 1.13398452	-0.234761
H	-0.1299255823	 2.1359411784	 0.4728593156	 0.133119
H	-1.2051678484	 1.6120517103	-0.8390915963	 0.123211
H	-1.5912950842	 1.2020695781	 0.8461243182	 0.134113
H	-0.6651917808	-0.7636495924	-0.3869900922	 0.080301
H	 2.3343966662	-1.5013881065	-0.314027612	 0.082898
H	 4.0208178857	-0.2593945823	 0.86050974	 0.106989
H	 3.4696982407	 1.038649439	-0.2273921083	 0.127594
H	 3.052758816	 1.7498175156	 2.2242194462	 0.252903
H	 0.5771417723	-1.391278614	 1.6471357738	 0.101663
76.6889	143.7457	161.8586	212.4646	340.8946	368.6107	420.0698	487.0341	544.451	585.9104	711.7861	736.2867	769.6954	843.0031	860.8609	911.4798	923.1132	951.2864	1005.7789	1052.9199	1075.0221	1092.4978	1103.4886	1155.7307	1214.024	1216.4482	1257.1248	1264.5189	1270.0794	1313.7831	1344.3722	1362.8392	1400.7061	1416.2428	1446.9536	1475.2162	1497.0504	1516.9681	1822.8559	3004.0957	3008.345	3044.1676	3058.6496	3068.231	3115.7444	3128.9811	3130.802	3642.4758
CC1OC2CNC(=O)C12	C[C@H]1O[C@H]2CNC(=O)[C@@H]12	
InChI=1S/C6H9NO2/c1-3-5-4(9-3)2-7-6(5)8/h3-5H,2H2,1H3,(H,7,8)	InChI=1S/C6H9NO2/c1-3-5-4(9-3)2-7-6(5)8/h3-5H,2H2,1H3,(H,7,8)/t3-,4+,5+/m1/s1
