21
gdb 99604	2.20318	1.36397	0.9546	3.3009	82.42	-0.2528	0.0248	0.2776	1305.3822	0.18167	-383.268982	-383.258906	-383.257962	-383.304251	36.832	
C	-0.3236751406	 1.5031645732	 0.0124742527	-0.40155
C	-0.2042118219	-0.0217676219	 0.0549374498	-0.180115
C	 0.7416009684	-0.5408771028	 1.1703186624	-0.210355
C	 0.2758481051	-0.0565466373	 2.4746715143	 0.275431
N	-0.119765582	 0.3142415084	 3.4960930923	-0.343104
C	 0.8995460531	-2.0749078431	 1.1672113717	 0.325769
C	 1.4883302847	-2.6408035968	-0.1109082317	-0.453443
C	 1.1620702492	-2.7876374687	 2.4447070317	-0.286951
N	-0.1488336512	-2.9096411324	 1.774104894	-0.348045
H	 0.6529605376	 1.9727403533	-0.1490245633	 0.119124
H	-0.9809695114	 1.8127977527	-0.8048992201	 0.122955
H	-0.7360890157	 1.899409405	 0.944900429	 0.146121
H	-1.1912936771	-0.4770121203	 0.1923568283	 0.120522
H	 0.1800789611	-0.3850798502	-0.9019977164	 0.114902
H	 1.7350813226	-0.1009596843	 1.0035893203	 0.127012
H	 2.4589631046	-2.1832437617	-0.3340859827	 0.115099
H	 1.6323897805	-3.717768538	-0.0025394528	 0.134711
H	 0.8291360246	-2.484202479	-0.9695243378	 0.128643
H	 1.7679554134	-3.6895684656	 2.4315248095	 0.115731
H	 1.2168970089	-2.2147153963	 3.3650905891	 0.137179
H	-0.8270332437	-2.3310766842	 2.2669753297	 0.240365
45.115	91.56	152.2264	167.9129	194.657	210.8266	262.3299	320.6134	344.3862	369.601	409.6232	456.5595	555.1568	573.6171	741.2035	777.1833	841.1077	852.9881	925.2189	946.0282	950.7764	987.8719	1030.6555	1052.412	1077.2999	1094.9531	1120.2079	1132.0589	1160.4345	1250.2054	1267.6192	1279.4015	1327.7527	1347.4163	1361.609	1381.1812	1418.7917	1423.1315	1482.5206	1490.0279	1498.7143	1501.7075	1507.5723	1515.2599	2349.4891	3013.1426	3037.1638	3038.1746	3049.9772	3090.295	3104.2511	3109.5988	3114.8651	3121.5657	3129.2371	3203.8004	3484.8305
CCC(C#N)C1(C)CN1	CC[C@@H](C#N)[C@@]1(C)CN1	
InChI=1S/C7H12N2/c1-3-6(4-8)7(2)5-9-7/h6,9H,3,5H2,1-2H3	InChI=1S/C7H12N2/c1-3-6(4-8)7(2)5-9-7/h6,9H,3,5H2,1-2H3/t6-,7+/m0/s1
