20
gdb 33138	3.07033	1.02707	0.78088	0.7257	83.17	-0.195	0.0565	0.2516	1479.1951	0.170558	-403.176945	-403.167199	-403.166255	-403.212418	34.819	
C	-0.0426104749	 1.390114581	-0.0109616541	-0.220141
O	-0.0212236111	-0.0145597123	 0.0038938484	-0.229891
C	 0.6287609919	-0.5640210563	-1.1228442369	-0.177715
C	 0.6097641748	-2.0563846616	-1.0317167004	 0.170139
C	 0.0519641849	-2.7992116804	-0.0185824157	-0.15767
N	 0.2481598928	-4.1244116843	-0.3137171892	-0.251979
C	 0.9242138177	-4.2375160846	-1.5026668663	-0.163958
C	 1.1682804199	-2.9704422417	-1.9822291189	 0.182586
C	 1.8801617608	-2.6149549974	-3.2524602782	-0.509799
H	 0.9738655793	 1.8162514748	-0.0123270912	 0.101539
H	-0.5769813381	 1.7833665605	-0.8910891659	 0.101532
H	-0.5614879791	 1.7206860348	 0.89235599	 0.12355
H	 0.1320043947	-0.2213680401	-2.0501544487	 0.088859
H	 1.66761071	-0.1878311108	-1.1807001123	 0.088845
H	-0.4605869753	-2.4840534759	 0.8740726849	 0.127631
H	-0.0572539816	-4.8937085351	 0.2545461579	 0.257458
H	 1.1781123025	-5.2021471938	-1.9134942958	 0.111602
H	 1.2413191783	-2.0396079676	-3.9345327054	 0.120165
H	 2.7728856247	-2.004429811	-3.0663015138	 0.120154
H	 2.2041320478	-3.5124546882	-3.7875938785	 0.117092
43.2289	81.3445	123.5685	129.3584	229.5271	237.8782	258.1143	277.6207	355.3054	443.8025	465.7568	631.2154	637.1326	647.7935	707.832	769.4482	788.3726	916.949	992.6646	1002.2383	1043.1018	1069.4088	1085.0418	1106.6498	1163.7274	1184.922	1190.5728	1229.4696	1253.2843	1256.1859	1334.7736	1377.8782	1418.9267	1438.6556	1473.1993	1482.0662	1483.297	1484.5901	1499.0936	1502.8346	1525.3436	1564.4342	1628.9719	2918.7295	2927.4552	2965.1884	3006.0745	3014.0367	3056.4207	3100.2848	3110.5062	3254.7887	3284.321	3692.8632
COCC1=CNC=C1C	COCc1c[nH]cc1C	
InChI=1S/C7H11NO/c1-6-3-8-4-7(6)5-9-2/h3-4,8H,5H2,1-2H3	InChI=1S/C7H11NO/c1-6-3-8-4-7(6)5-9-2/h3-4,8H,5H2,1-2H3
