23
gdb 58963	2.50849	1.36762	1.1746	1.3285	84.56	-0.2513	0.0649	0.3162	1200.6911	0.205239	-388.268752	-388.259211	-388.258267	-388.304919	36.373	
C	 0.0249442494	 1.5556960786	 0.1515098523	-0.414847
C	 0.0033107981	 0.0253810587	 0.1389869147	 0.011197
O	 0.6390448372	-0.512227348	 1.2989919047	-0.436122
C	-1.3959877131	-0.5392337625	-0.0469353262	 0.417307
C	-2.4126567768	-0.3981862037	 1.1253329047	-0.297383
C	-2.6883116541	-1.9312886754	 1.0764928727	-0.214959
C	-1.6908513563	-2.0861052481	-0.0996443853	-0.076129
C	-2.3155392432	-1.9156681329	-1.5085878584	-0.221807
C	-2.0405703052	-0.3818001946	-1.4549117135	-0.296606
H	 1.048023191	 1.9195844613	 0.2804899083	 0.122232
H	-0.3757697648	 1.9671462625	-0.7802349425	 0.12154
H	-0.5842852915	 1.9469981776	 0.9759383779	 0.109766
H	 0.6239163088	-0.3309047852	-0.6944233909	 0.08032
H	 0.2467243354	-0.0899325269	 2.0703097313	 0.27706
H	-1.964336649	-0.0759116906	 2.0707379333	 0.078996
H	-3.2670236102	 0.2552279756	 0.9257366074	 0.093914
H	-2.3738421921	-2.4511770806	 1.9845219245	 0.101587
H	-3.7191949916	-2.2245281836	 0.8559446531	 0.09275
H	-0.9064752285	-2.834967452	 0.0145211392	 0.068461
H	-1.760004387	-2.4244871189	-2.3002859889	 0.099648
H	-3.3657522796	-2.2115020293	-1.5914559497	 0.093588
H	-2.9184300111	 0.2695265881	-1.4982716213	 0.092794
H	-1.3331937757	-0.0428788101	-2.2182530476	 0.096693
6.4955	92.0435	154.7099	224.8193	243.0314	264.5623	281.7123	321.2837	384.7567	464.4082	489.7353	618.2329	659.2532	736.6005	751.0984	824.2509	864.2346	889.2175	894.3104	920.225	937.0786	961.4501	1013.6704	1031.8808	1034.1949	1040.6215	1094.9331	1122.4817	1140.8958	1166.7561	1184.2627	1228.2249	1235.6033	1242.1157	1257.4655	1268.4799	1283.7963	1296.3751	1310.4152	1332.7198	1360.0966	1401.0664	1416.7958	1467.866	1479.1292	1483.3228	1492.6102	1496.0795	1499.372	3016.4034	3027.7133	3036.4688	3041.591	3049.61	3052.464	3079.9171	3083.7308	3095.0284	3098.9635	3104.2519	3113.3266	3116.7993	3808.289
CC(O)C12CCC1CC2	C[C@@H](O)[C@]12CC[C@H]1CC2	
InChI=1S/C8H14O/c1-6(9)8-4-2-7(8)3-5-8/h6-7,9H,2-5H2,1H3	InChI=1S/C8H14O/c1-6(9)8-4-2-7(8)3-5-8/h6-7,9H,2-5H2,1H3/t6-,7-,8+/m1/s1
