19
gdb 6141	4.6181	1.19024	1.13055	4.3882	76.32	-0.3006	0.0327	0.3333	1122.3463	0.164951	-327.946044	-327.937546	-327.936601	-327.978803	31.983	
C	-0.178419467	 1.5039454356	-0.0096612634	-0.438357
C	 0.0177660499	-0.0143701842	 0.0100109933	 0.338542
C	-1.2995226455	-0.7400742144	-0.2410831826	-0.452475
C	 1.2220543232	-0.4617754023	-0.8801746454	-0.266643
C	 2.1235703095	-0.4941357775	 0.3935246696	-0.136641
C	 0.8266315447	-0.4851084626	 1.2618322608	-0.266643
C	 3.0422440147	-1.6077181303	 0.5509828256	 0.264907
N	 3.7570611	-2.5088359455	 0.6731223727	-0.329901
H	 0.7594205933	 2.0410751948	 0.1692878935	 0.11368
H	-0.569348158	 1.8335702677	-0.978694055	 0.118521
H	-0.8907627812	 1.8145991766	 0.7627139558	 0.118521
H	-1.7206441287	-0.4657787789	-1.2152297593	 0.117661
H	-1.1645544622	-1.8265022308	-0.2279503692	 0.11594
H	-2.0417818572	-0.4846485835	 0.5239992923	 0.11766
H	 1.0808785494	-1.4629853757	-1.2935342803	 0.120021
H	 1.5381318549	 0.2117513659	-1.6799688951	 0.110955
H	 2.6821143591	 0.4384265472	 0.5067937726	 0.123276
H	 0.833736207	 0.1701910592	 2.1357579627	 0.110955
H	 0.5510840242	-1.4942451216	 1.5763707614	 0.120021
65.3783	154.0083	216.8388	231.2585	259.7647	299.9912	334.2872	385.8323	396.0055	518.465	559.6572	577.1117	719.5536	840.5263	877.1125	884.8779	927.2966	958.498	968.3267	1000.5415	1025.3126	1059.183	1087.9401	1155.2776	1210.8143	1220.9817	1243.4406	1248.1038	1298.209	1315.2287	1355.0116	1405.1189	1422.7845	1475.3011	1482.5115	1484.6916	1499.6781	1502.7179	1506.2623	2351.4864	3021.1264	3025.8597	3064.8268	3069.4282	3075.7878	3087.5182	3092.1285	3094.9163	3097.2305	3123.8522	3127.1201
CC1(C)CC(C1)C#N	CC1(C)CC(C1)C#N	
InChI=1S/C7H11N/c1-7(2)3-6(4-7)5-8/h6H,3-4H2,1-2H3	InChI=1S/C7H11N/c1-7(2)3-6(4-7)5-8/h6H,3-4H2,1-2H3
