17
gdb 112312	3.02184	1.42741	1.09896	4.0446	70.28	-0.2538	0.0276	0.2814	1111.1616	0.136602	-455.125101	-455.117073	-455.116129	-455.158221	29.626	
C	-0.0109824686	 1.3104601415	-0.2517388199	-0.245931
O	-0.0529179735	-0.1101802014	-0.2173732197	-0.226816
C	-1.2707443138	-0.6302857824	 0.184564052	 0.183936
O	-2.2911922683	-0.397586268	-0.8019581457	-0.263731
C	-2.8005304235	-1.5843688122	-1.2779631737	 0.430165
N	-3.6820914476	-1.6919441051	-2.1683543236	-0.53362
N	-2.2252807762	-2.6987104737	-0.6033410341	-0.131403
C	-0.7853557349	-2.8676450316	-0.9231217601	-0.241423
C	-1.2064182469	-2.1435744237	 0.2963024169	-0.070861
H	 1.0130042824	 1.5889097151	-0.5060323336	 0.137115
H	-0.6974234402	 1.7107194538	-1.0059657413	 0.135708
H	-0.2679478166	 1.737518948	 0.7282817466	 0.114826
H	-1.6093645185	-0.1489345296	 1.1135557308	 0.086132
H	-3.9529561122	-0.7699666158	-2.5086895288	 0.228321
H	-0.4339971898	-3.8909880372	-0.8502822252	 0.134725
H	-0.373799024	-2.284395091	-1.7403407989	 0.148451
H	-1.1199810678	-2.586059207	 1.2820717584	 0.114406
70.8961	114.8019	163.991	184.8164	250.7932	348.4952	426.0308	500.9376	538.1746	680.5914	724.1623	762.7764	799.5965	854.9611	876.6147	897.4916	961.4393	990.1565	1013.1664	1023.0282	1076.5609	1100.5019	1111.4316	1156.1495	1165.7557	1179.7251	1224.9071	1233.9405	1314.0841	1384.4444	1390.0743	1405.7873	1480.866	1486.5514	1506.4378	1510.7906	1786.4322	3000.4239	3006.2174	3076.6394	3131.863	3137.3483	3178.9597	3227.255	3505.2897
COC1OC(=N)N2CC12	CO[C@H]1O[C]([NH])N2C[C@@H]12	
InChI=1S/C5H8N2O2/c1-8-4-3-2-7(3)5(6)9-4/h3-4,6H,2H2,1H3	InChI=1S/C5H8N2O2/c1-8-4-3-2-7(3)5(6)9-4/h3-4,6H,2H2,1H3/t3-,4-,7?/m0/s1
