18
gdb 83191	2.58151	1.53684	1.47298	3.6114	72.36	-0.2424	0.0196	0.262	997.4797	0.149464	-439.078837	-439.071018	-439.070073	-439.111161	30.544	
O	 0.1427737868	 1.4473520668	-0.0430594596	-0.4294
C	 0.0158908085	 0.0594142937	-0.0121233964	 0.126814
C	-0.4120422638	-0.7358042186	 1.1966029115	-0.125126
C	-0.9665561466	-0.0415998121	 2.4194319637	-0.118485
O	-1.6774103009	 1.1719090925	 2.1103421481	-0.273511
C	-2.6368592383	 1.1692371027	 1.1205150269	 0.372165
N	-3.4601738584	 2.122076286	 1.0208476212	-0.50382
C	-2.6373158326	 0.0157523476	 0.1438506923	-0.292967
C	-1.3031755543	-0.6856434618	-0.0321246604	-0.107238
H	-0.2648597678	 1.8200029338	 0.7461525861	 0.303347
H	 0.8014284161	-0.3894111058	-0.6131851038	 0.107784
H	 0.1281872625	-1.6490078317	 1.4312342121	 0.095627
H	-1.6334188213	-0.7168915139	 2.9730639703	 0.12003
H	-0.1716634518	 0.2735697883	 3.1017066408	 0.130187
H	-3.3235857045	 2.7899155307	 1.7824174097	 0.22038
H	-3.3719350281	-0.7196121381	 0.499806917	 0.131879
H	-3.0262129973	 0.4036620573	-0.8004885141	 0.149938
H	-1.3504586982	-1.5665397573	-0.6656231154	 0.092396
81.021	148.7355	215.9084	227.6625	368.7101	424.1537	436.0674	458.2715	534.53	567.2987	648.0755	741.769	755.9353	778.3389	797.023	885.3671	914.0129	964.3824	970.748	1019.9098	1051.9745	1078.1701	1093.0099	1120.6887	1134.441	1145.4018	1223.7267	1232.9481	1276.4372	1303.6703	1328.1246	1348.7669	1358.9617	1399.6976	1426.7949	1464.1491	1480.6162	1515.3792	1756.2658	3010.5817	3020.5333	3083.0421	3103.0988	3140.2811	3144.0141	3158.2368	3465.6358	3804.3305
OC1C2COC(=N)CC12	O[C@H]1[C@H]2CO[C]([NH])C[C@@H]12	
InChI=1S/C6H9NO2/c7-5-1-3-4(2-9-5)6(3)8/h3-4,6-8H,1-2H2	InChI=1S/C6H9NO2/c7-5-1-3-4(2-9-5)6(3)8/h3-4,6-8H,1-2H2/t3-,4+,6-/m1/s1
