20
gdb 9850	3.43448	1.31912	1.23603	2.1689	71.02	-0.2541	0.0621	0.3163	1105.8633	0.175014	-386.12746	-386.118186	-386.117242	-386.16106	34.864	
C	-0.0708624875	 1.584798409	-0.0588825139	-0.384547
C	-0.1665179426	 0.0641497172	-0.1973571118	-0.190946
C	 0.8409710781	-0.5033741641	-1.2116006127	 0.089465
O	 2.1750109146	-0.1587475109	-0.8606937933	-0.440487
C	 0.7319152158	-2.0124278006	-1.3575180515	 0.394286
O	 1.175326752	-2.6970915236	-0.2039542516	-0.478441
C	-0.3510792979	-2.642780257	-2.1888780932	-0.33016
C	 1.0970141507	-2.6774049444	-2.645229478	-0.304745
H	 0.9469496129	 1.8766620865	 0.2109898942	 0.135336
H	-0.3218274119	 2.0819750135	-1.0027167244	 0.1116
H	-0.7559821989	 1.9591385831	 0.7077028561	 0.106412
H	 0.0183921935	-0.4026494424	 0.7804820689	 0.077573
H	-1.179612941	-0.2289719689	-0.5015857838	 0.092741
H	 0.6523466561	-0.0416606099	-2.1897811467	 0.076061
H	 2.4561377919	-0.8312104012	-0.2264825423	 0.28361
H	 0.4758529065	-2.6505835579	 0.4573905448	 0.287274
H	-0.7777740125	-3.5709269129	-1.824528873	 0.114688
H	-1.0476189246	-1.9968487342	-2.7133693428	 0.114767
H	 1.396731702	-2.0521359998	-3.4786106384	 0.12164
H	 1.6154252329	-3.6260430314	-2.5711402265	 0.123873
78.8808	97.6777	164.3556	213.6634	248.7072	293.8015	306.0637	317.7898	370.0402	449.3195	476.7442	520.3829	546.5035	765.6398	771.6215	813.2612	873.2438	909.4075	940.6703	961.4225	984.6101	990.7489	1051.5557	1066.623	1077.1197	1118.1673	1124.723	1186.6819	1231.1687	1270.0824	1289.7013	1311.9323	1335.1562	1360.5569	1387.9466	1404.8642	1442.1977	1453.8517	1480.1779	1495.3293	1501.0368	1509.6598	3004.064	3024.9122	3035.4955	3051.1454	3099.6119	3126.596	3130.0036	3142.5318	3215.4127	3235.3808	3767.1995	3796.7295
CCC(O)C1(O)CC1	CC[C@@H](O)C1(O)CC1	
InChI=1S/C6H12O2/c1-2-5(7)6(8)3-4-6/h5,7-8H,2-4H2,1H3	InChI=1S/C6H12O2/c1-2-5(7)6(8)3-4-6/h5,7-8H,2-4H2,1H3/t5-/m1/s1
