18
gdb 126167	4.02199	1.01051	0.83472	6.1973	73.	-0.2707	-0.0054	0.2653	1361.8327	0.149403	-431.433733	-431.42501	-431.424066	-431.467664	31.771	
C	-0.1697314427	 1.6896404674	-0.082525702	-0.399455
C	-0.0795071077	 0.163284883	-0.0447956634	-0.169148
C	 0.7779705693	-0.4201455267	-1.1835350678	-0.107469
N	 2.206378418	-0.0593112348	-1.1740615712	-0.5349
H	 2.6164770929	-2.4428503196	-1.9113382185	 0.291134
H	 2.3231417854	 0.9053159878	-1.4643506481	 0.24454
H	 2.5683907599	-0.1191259251	-0.2249297739	 0.236227
C	 0.6843575732	-1.919370502	-1.2191790946	 0.469769
N	 1.6908045427	-2.7152500846	-1.6193657605	-0.247417
N	 1.2886802779	-3.9991472634	-1.5633723192	-0.094637
N	 0.0684257326	-3.9678540305	-1.1410948541	-0.105746
N	-0.3407461872	-2.6888579358	-0.9139778412	-0.298638
H	 0.8164353778	 2.1581550508	 0.006518419	 0.106172
H	-0.6222447804	 2.0374644244	-1.0181396249	 0.120476
H	-0.7842617785	 2.0630857282	 0.7411169272	 0.12714
H	 0.3410089936	-0.1704495173	 0.9129294099	 0.101892
H	-1.0777558194	-0.2807626414	-0.1078217032	 0.140696
H	 0.3738226426	-0.0514509105	-2.1369862436	 0.119364
64.3962	97.5589	144.0016	201.7577	242.7738	293.3306	312.3479	353.7643	452.385	488.2138	649.8433	698.7462	754.1328	770.5691	809.2896	850.643	946.1722	999.9201	1013.2045	1047.9761	1066.7655	1077.5191	1090.5356	1120.1657	1151.1721	1215.2937	1247.011	1289.1345	1321.8011	1349.8722	1377.0547	1404.4378	1417.3959	1439.7652	1484.3679	1501.6902	1507.13	1570.3091	1661.1276	3010.081	3030.1445	3033.9319	3081.698	3102.4446	3112.6943	3486.3805	3580.4438	3658.866
CCC([NH3+])C1=N[N-]N=N1	CC[C@@H](N)c1[nH]nnn1	
InChI=1S/C4H8N5/c1-2-3(5)4-6-8-9-7-4/h3H,2,5H2,1H3/q-1/p+1	InChI=1S/C4H9N5/c1-2-3(5)4-6-8-9-7-4/h3H,2,5H2,1H3,(H,6,7,8,9)/t3-/m1/s1
