14
gdb 128387	2.75942	1.5533	1.00006	2.546	70.53	-0.2412	-0.0855	0.1557	1106.6955	0.10023	-469.952453	-469.944245	-469.943301	-469.986083	28.946	
C	-0.1316309528	 1.4048181844	-0.006318953	-0.318588
N	 0.0172146191	-0.0311734067	 0.0911788948	-0.332343
C	 0.6679557888	-0.6487581626	 1.0908638638	 0.359774
N	 1.2159779108	 0.0438619573	 2.0563625963	-0.205424
O	 1.8726725957	-0.669308931	 3.0567644549	-0.201926
N	 1.9726659802	-2.0104802791	 3.0838475688	-0.035891
C	 1.4314481823	-2.7013147253	 2.1292189971	-0.041778
C	 0.7144049755	-2.12438278	 1.0161375996	 0.282404
O	 0.1917316276	-2.7410381263	 0.0988745259	-0.367235
H	 0.8446265252	 1.8995240162	-0.0600229368	 0.148411
H	-0.6996697365	 1.6391625899	-0.9073922004	 0.136065
H	-0.6614034293	 1.8058114808	 0.8649808646	 0.148528
H	-0.3671041683	-0.6549629484	-0.6019080728	 0.27354
H	 1.5449615219	-3.7778397292	 2.2047380773	 0.154462
55.0276	97.7298	141.9456	182.232	276.1681	342.5539	445.1658	459.1559	508.5684	561.427	564.4199	615.3875	730.8625	801.0938	890.7244	927.523	953.7956	985.9197	1082.6521	1161.6796	1199.002	1259.5305	1311.1017	1378.9215	1459.0157	1476.5791	1514.0037	1576.954	1583.644	1620.0919	1750.6733	3031.1293	3082.6744	3143.9414	3195.3266	3629.0733
CNC1=NON=CC1=O	CNc1noncc1=O	
InChI=1S/C4H5N3O2/c1-5-4-3(8)2-6-9-7-4/h2H,1H3,(H,5,7)	InChI=1S/C4H5N3O2/c1-5-4-3(8)2-6-9-7-4/h2H,1H3,(H,5,7)
