18
gdb 81079	2.78308	1.48894	1.21226	1.3792	71.82	-0.2399	0.0655	0.3054	1061.7112	0.147858	-438.981709	-438.973762	-438.972818	-439.01481	30.432	
O	 0.5108582249	 1.2242795495	-0.1243761291	-0.443448
C	 0.1846697313	-0.1297095962	 0.0153252741	 0.121597
C	-0.1685074328	-0.6788389549	 1.424379715	-0.063058
C	-1.4903734668	 0.1227629697	 1.3725007727	-0.250804
C	-1.310297735	-0.5741874909	-0.00629337	 0.310085
N	-0.9244820006	-1.8242827621	 0.7617626103	-0.362373
C	-2.1873635936	-0.5627585371	-1.2123160698	-0.119959
C	-3.3419781896	 0.3351038778	-1.3318830876	-0.166203
O	-2.1012005353	 0.6628652949	-1.9658813693	-0.24337
H	 0.0466519556	 1.5463347162	-0.9063746705	 0.297017
H	 0.8552053055	-0.7806591355	-0.567564192	 0.061239
H	 0.4879830636	-0.8480416378	 2.2772852892	 0.088195
H	-2.3009583022	-0.269502354	 1.9873040983	 0.104123
H	-1.4000189134	 1.2069472883	 1.391752371	 0.114762
H	-0.2657527761	-2.3754571487	 0.1967929901	 0.203787
H	-2.1645813056	-1.463734184	-1.8266536107	 0.101125
H	-4.154888189	 0.0818187549	-2.0102345719	 0.122882
H	-3.6141857309	 0.96353135	-0.4861453297	 0.124402
46.037	107.3069	190.5958	291.5783	321.6087	361.5929	393.7443	474.6681	573.4164	602.7784	660.265	782.729	833.9516	845.7282	894.6236	914.6361	942.7962	952.5236	982.2338	1026.8475	1063.5176	1081.3976	1112.5437	1129.554	1140.9824	1156.9704	1168.2474	1178.0495	1206.4663	1217.0749	1262.7867	1274.6557	1295.8026	1316.3981	1349.3157	1397.8589	1439.8319	1491.6188	1524.2003	2983.5817	3090.766	3093.0913	3105.196	3124.3857	3178.552	3182.1339	3344.0522	3793.5907
OC1C2CC1(N2)C1CO1	O[C@H]1[C@H]2C[C@@]1(N2)[C@H]1CO1	
InChI=1S/C6H9NO2/c8-5-3-1-6(5,7-3)4-2-9-4/h3-5,7-8H,1-2H2	InChI=1S/C6H9NO2/c8-5-3-1-6(5,7-3)4-2-9-4/h3-5,7-8H,1-2H2/t3-,4-,5+,6-/m1/s1
