16
gdb 112395	3.56391	1.1708	0.91115	1.75	66.84	-0.2774	-0.0261	0.2513	1215.382	0.125026	-475.077786	-475.069748	-475.068804	-475.111005	29.738	
O	-0.1131557393	 1.5029191247	-0.2278540382	-0.419981
C	 0.0330372867	 0.1069994674	-0.1658449712	-0.069149
C	-1.3119782402	-0.6057476094	 0.0621748505	-0.174602
C	-1.2828921078	-2.1381596514	 0.1064967649	-0.333802
C	-2.2195657454	-2.487504816	 1.2400801656	 0.408627
N	-2.7177931148	-3.6086834376	 1.4970694304	-0.507773
O	-2.4513637028	-1.3425591142	 2.0058316588	-0.208442
C	-1.8978958125	-0.234087638	 1.4154991952	 0.442996
O	-1.9024350327	 0.8355553501	 1.9551818782	-0.335423
H	-0.5600798707	 1.775027118	 0.5857815729	 0.301429
H	 0.4524002607	-0.2158598422	-1.1243654021	 0.119073
H	 0.7401804907	-0.2041747145	 0.622091181	 0.094702
H	-2.0153704282	-0.2420879158	-0.6966421494	 0.136355
H	-1.5937618582	-2.6281813042	-0.8160093378	 0.154961
H	-0.2800227077	-2.5070421435	 0.3537465511	 0.149175
H	-3.3096058478	-3.5740867036	 2.32835662	 0.241854
55.789	140.7573	159.5334	203.5954	309.298	362.9714	405.7524	519.0672	533.4004	553.8021	637.8185	659.7654	726.5506	785.426	884.76	915.0299	918.8431	1001.9863	1057.9221	1063.1905	1096.8559	1105.6432	1148.579	1182.5762	1213.3358	1268.8505	1299.5158	1322.0648	1344.1162	1388.0573	1454.6609	1471.2669	1511.9171	1794.7307	1882.9614	2960.4598	3044.2857	3051.1683	3074.0896	3136.0408	3485.6138	3748.1922
OCC1CC(=N)OC1=O	OC[C@H]1C[C]([NH])OC1=O	
InChI=1S/C5H7NO3/c6-4-1-3(2-7)5(8)9-4/h3,6-7H,1-2H2	InChI=1S/C5H7NO3/c6-4-1-3(2-7)5(8)9-4/h3,6-7H,1-2H2/t3-/m1/s1
