20
gdb 56186	4.57881	0.73429	0.6767	2.6054	77.03	-0.2568	0.0317	0.2885	1691.3177	0.169878	-440.272165	-440.262458	-440.261514	-440.308424	33.882	
C	 0.9600168428	 1.0230411653	-0.0268376081	-0.44257
C	 0.0256519592	-0.1479981895	 0.0790459517	 0.416359
N	-0.59810447	-0.417490176	 1.1488593057	-0.517786
O	-0.0171483369	-0.8149563229	-1.1112565231	-0.246896
C	-0.8512459374	-1.9625290534	-1.2096222887	-0.109793
C	-0.7107084774	-2.4942510696	-2.6246521412	 0.129399
C	 0.5745004474	-3.2725362868	-2.9767699075	-0.283791
C	-0.3841118553	-4.4573201169	-3.2146410174	-0.061721
O	-1.527471611	-3.6697037082	-2.8073435469	-0.294479
H	 1.9649287127	 0.6825183761	-0.2953306077	 0.137051
H	 0.6265194063	 1.7024231271	-0.8174375623	 0.138558
H	 0.9918587214	 1.5518796802	 0.9244430853	 0.148263
H	-1.1942259606	-1.2397494448	 1.0656149033	 0.219192
H	-0.5461605972	-2.7290107585	-0.4842884655	 0.110282
H	-1.9005307309	-1.7020869018	-1.0147821837	 0.120585
H	-0.9735792549	-1.7018835594	-3.3375039288	 0.08814
H	 1.119464374	-2.9161088176	-3.8510114161	 0.117569
H	 1.2707938167	-3.3943936253	-2.1449751943	 0.115953
H	-0.4724215876	-4.7884464874	-4.256236879	 0.107319
H	-0.2457018613	-5.3355885506	-2.5738912055	 0.108366
48.8721	58.0745	78.933	125.4347	139.6036	172.957	279.9916	319.9309	430.6827	480.3705	560.1947	608.8112	766.2902	801.8605	870.4999	881.214	895.6781	948.9605	952.41	991.0999	1019.5066	1048.3799	1076.0468	1088.5325	1123.1113	1136.8921	1158.5617	1176.4597	1211.5867	1253.2921	1257.3506	1276.8074	1319.1821	1350.8701	1380.3932	1404.5695	1425.1051	1474.5076	1478.0257	1491.8728	1515.4927	1531.4027	1739.0518	3003.1353	3017.9617	3025.0052	3050.8888	3053.1444	3064.1868	3084.2777	3108.5069	3141.1915	3170.4816	3500.2096
CC(=N)OCC1CCO1	C[C]([NH])OC[C@H]1CCO1	
InChI=1S/C6H11NO2/c1-5(7)9-4-6-2-3-8-6/h6-7H,2-4H2,1H3	InChI=1S/C6H11NO2/c1-5(7)9-4-6-2-3-8-6/h6-7H,2-4H2,1H3/t6-/m1/s1
