18
gdb 45239	3.36422	1.66778	1.50116	3.8326	74.51	-0.2321	0.0235	0.2555	925.7108	0.152674	-401.979706	-401.973554	-401.972609	-402.009981	26.48	
O	-0.0271587895	-0.0655072392	-0.0154931275	-0.383296
C	-0.015729889	 1.1443101451	-0.0365902139	 0.389344
N	-1.1202871551	 1.9837662954	-0.0947342675	-0.300853
C	-0.69326165	 3.3429636018	 0.2506658764	-0.018814
C	-0.1091588002	 3.3262275261	 1.701303587	-0.224776
C	 1.340723578	 2.9805820808	 1.3125340462	-0.035847
C	 1.6598621048	 4.1656987485	 0.3591768138	-0.239334
C	 0.6377929353	 3.460478572	-0.5555530941	-0.021119
C	 1.1615905287	 2.101930539	-0.0067101384	-0.135838
H	-2.0115973272	 1.6204006777	 0.2129922223	 0.243957
H	-1.4671012755	 4.0807991743	 0.0422466906	 0.079712
H	-0.1643391831	 4.2954492236	 2.2057581621	 0.100858
H	-0.6084801877	 2.5793425956	 2.3235274732	 0.102668
H	 2.0222739686	 2.6645223656	 2.1004275337	 0.077093
H	 1.4496268348	 5.178747495	 0.7156245115	 0.091864
H	 2.6685362676	 4.1175385956	-0.0577391192	 0.105771
H	 0.5431095125	 3.6548756906	-1.6233213815	 0.077283
H	 2.0936838569	 1.7113058526	-0.4082926447	 0.091328
161.0116	303.4227	399.917	454.5153	511.3562	554.5705	579.8114	644.871	701.018	791.8751	827.8964	836.1208	862.3824	878.1279	900.3943	929.3821	950.1062	966.5971	995.9819	1017.9409	1022.8661	1066.3907	1089.9324	1102.5202	1162.2193	1167.9725	1196.9964	1219.0239	1231.5186	1255.0082	1269.2188	1289.9671	1304.5437	1327.5872	1341.8531	1401.6964	1493.0727	1512.5991	1837.5562	3048.752	3056.2573	3104.7229	3112.5743	3118.8373	3127.6176	3131.8816	3152.2274	3603.4251
O=C1NC2CC3CC2C13	O=C1N[C@H]2C[C@@H]3C[C@H]2[C@H]13	
InChI=1S/C7H9NO/c9-7-6-3-1-4(6)5(2-3)8-7/h3-6H,1-2H2,(H,8,9)	InChI=1S/C7H9NO/c9-7-6-3-1-4(6)5(2-3)8-7/h3-6H,1-2H2,(H,8,9)/t3-,4+,5-,6+/m0/s1
