13
gdb 128739	2.727	1.61108	1.01928	1.6814	65.55	-0.2641	-0.0917	0.1723	1074.2075	0.087943	-489.815499	-489.807853	-489.806909	-489.847999	27.456	
C	 0.0190090754	 1.3615416582	 0.0918588269	-0.241198
O	 0.0649398857	-0.0692419202	-0.0055050188	-0.226808
C	 0.6078128235	-0.5875199586	-1.0980445278	 0.387557
N	 1.0711271373	 0.1874954014	-2.0259603421	-0.173741
O	 1.6312772131	-0.3935487274	-3.1535000911	-0.217337
N	 1.71728615	-1.7374209078	-3.3318131363	-0.036672
C	 1.2571431595	-2.5127784148	-2.4102626723	-0.029282
C	 0.6388464281	-2.065687641	-1.1652815682	 0.247069
O	 0.20786134	-2.8040340726	-0.3037577703	-0.322209
H	 1.0282164196	 1.7812944567	 0.0626465149	 0.150307
H	-0.5649449747	 1.7841101501	-0.7303207795	 0.150309
H	-0.4571379271	 1.5690703186	 1.0492305317	 0.148817
H	 1.3493291595	-3.5778453827	-2.6001353272	 0.163186
99.0207	141.2084	189.1475	209.1217	312.3799	339.8044	442.0191	501.4242	553.7739	560.2946	608.9331	725.9236	797.5924	861.7396	937.8319	939.4312	992.3655	1036.6113	1176.3347	1204.441	1247.7199	1309.3334	1415.2057	1481.4477	1490.4588	1497.0962	1601.7387	1618.0278	1780.3118	3048.8719	3123.5207	3168.1228	3191.2231
COC1=NON=CC1=O	COc1noncc1=O	
InChI=1S/C4H4N2O3/c1-8-4-3(7)2-5-9-6-4/h2H,1H3	InChI=1S/C4H4N2O3/c1-8-4-3(7)2-5-9-6-4/h2H,1H3
