21
gdb 30809	2.32141	1.2621	0.8742	1.421	88.52	-0.1713	0.056	0.2273	1393.5484	0.182677	-383.317732	-383.30745	-383.306506	-383.353367	37.372	
C	 0.2895370789	 1.6656451551	-0.0831138819	-0.360534
C	-0.0064030794	 0.1607474976	 0.0615217785	-0.302155
C	 0.6076909452	-0.4680298101	 1.2723679942	 0.204518
C	 0.0730859522	-0.8575276395	 2.4829152881	 0.216553
C	-1.3592225309	-0.757352516	 2.9160090415	-0.507094
C	 1.1506818547	-1.3575775153	 3.2846323397	-0.301875
C	 2.3031151708	-1.266360377	 2.5418218859	 0.278966
N	 3.6357741637	-1.6697764573	 2.774686106	-0.609792
N	 1.9694565749	-0.7218045687	 1.3279303086	-0.321971
H	 1.3670122147	 1.8535895293	-0.1378721416	 0.108395
H	-0.1689834941	 2.0725944682	-0.9906050719	 0.10716
H	-0.0975497459	 2.2206358113	 0.7766804437	 0.121605
H	-1.0895749521	 0.0082924572	 0.1005172034	 0.111171
H	 0.3346396067	-0.3592874594	-0.8453409981	 0.094723
H	-1.7362911119	-1.7202388476	 3.2808918263	 0.119209
H	-1.4920921411	-0.0356723986	 3.7319508072	 0.118775
H	-2.0108771262	-0.4412992039	 2.0961982652	 0.114453
H	 1.0797881523	-1.726086207	 4.2978147136	 0.073228
H	 4.2463973128	-0.8814594398	 2.9732732996	 0.240167
H	 3.6789193925	-2.2935184003	 3.5714009455	 0.244517
H	 2.6055255622	-0.6668406683	 0.5509187864	 0.249983
46.4587	89.4813	126.3758	139.7794	196.2168	200.7636	268.184	284.2885	295.747	410.2295	446.3848	488.9744	592.6801	613.0606	652.1139	690.8247	758.0642	771.4536	797.0749	839.1223	962.8968	990.4477	1031.3705	1057.5925	1060.6031	1078.9081	1149.869	1163.5064	1192.8721	1238.6445	1289.8125	1337.437	1353.5668	1405.6257	1416.3147	1463.8994	1470.2883	1479.0676	1483.2789	1494.7921	1501.6577	1505.9431	1570.2084	1640.9352	1662.1552	3001.1148	3017.7967	3031.8846	3061.915	3072.8956	3100.2016	3102.0762	3111.0014	3232.6362	3481.6122	3592.2984	3671.6578
CCC1=C(C)C=C(N)N1	CCc1c(C)cc(N)[nH]1	
InChI=1S/C7H12N2/c1-3-6-5(2)4-7(8)9-6/h4,9H,3,8H2,1-2H3	InChI=1S/C7H12N2/c1-3-6-5(2)4-7(8)9-6/h4,9H,3,8H2,1-2H3
