16
gdb 65424	4.2222	0.83869	0.78847	4.3547	77.03	-0.2588	0.0149	0.2738	1424.1036	0.121656	-400.709557	-400.700247	-400.699303	-400.744062	33.987	
O	-0.0882496117	 1.3431156413	 0.0723044209	-0.447151
C	 0.0003232407	-0.0545324846	-0.0217540049	 0.168719
C	-0.6185491631	-0.8723303936	 1.1028403672	-0.331358
C	-1.3291942484	-0.7528694506	-0.2209508621	-0.046815
C	-2.5895100802	 0.0884830331	-0.3520622268	-0.370083
C	-3.7729294717	-0.6150110524	 0.1440284226	 0.268325
N	-4.7003210047	-1.1808812512	 0.5375797287	-0.308418
C	 1.168676647	-0.5537762984	-0.6997671406	 0.298702
C	 2.1631970669	-0.9518941302	-1.2463132761	-0.449607
H	 0.6546729523	 1.6515403402	 0.6032243138	 0.294699
H	-0.1654927097	-1.8201287551	 1.3668551818	 0.134583
H	-1.0109542728	-0.2941496297	 1.9327294224	 0.130957
H	-1.3026080469	-1.6282355377	-0.8603915798	 0.124782
H	-2.4707759549	 1.0258150162	 0.1980463622	 0.170314
H	-2.7579897872	 0.3597319057	-1.4004136387	 0.158939
H	 3.0352553943	-1.304852193	-1.7393657205	 0.203415
48.4144	99.4362	133.701	186.8379	233.5249	288.3759	313.3832	389.8522	414.974	433.9544	513.8783	555.318	592.3765	613.4327	684.5058	702.251	851.5219	869.9104	905.5837	925.081	940.818	1044.3121	1057.9627	1080.828	1146.1824	1226.0019	1238.8471	1267.5038	1316.6178	1348.7202	1417.8227	1465.8623	1481.3443	2234.3172	2362.949	3053.7313	3105.3315	3140.2472	3175.715	3236.9833	3500.7163	3801.8566
OC1(CC1CC#N)C#C	O[C@]1(C[C@H]1CC#N)C#C	
InChI=1S/C7H7NO/c1-2-7(9)5-6(7)3-4-8/h1,6,9H,3,5H2	InChI=1S/C7H7NO/c1-2-7(9)5-6(7)3-4-8/h1,6,9H,3,5H2/t6-,7+/m1/s1
