18
gdb 36700	5.22934	0.75462	0.72144	2.6554	76.77	-0.2387	0.0171	0.2557	1542.1385	0.148821	-398.073186	-398.064772	-398.063828	-398.107288	30.834	
N	-0.1140496348	-1.1413336064	-0.1664676956	-0.294991
C	-0.0455911446	-0.0008927933	 0.0023009204	 0.257786
C	 0.0544116323	 1.4408730898	 0.2448503198	-0.26944
N	 1.2864475667	 1.9828513214	-0.3162098946	-0.305544
C	 1.4343737836	 3.4098048129	-0.1207073272	 0.047935
C	 1.7335871503	 4.0819153491	 1.2659990381	-0.200165
N	 2.9285151881	 4.8054813167	 0.7036151921	-0.119153
C	 3.8644917577	 3.7439795852	 0.3082420595	-0.240264
C	 2.7341320163	 4.0358119149	-0.5988903752	-0.059653
H	-0.7982913417	 1.9318994684	-0.2411657417	 0.158494
H	-0.0668594532	 1.6086210352	 1.3302565875	 0.136414
H	 2.0880384423	 1.4811519311	 0.0505175954	 0.230712
H	 0.5732086011	 3.8991216576	-0.5872839312	 0.098815
H	 0.9747129143	 4.7937964331	 1.5957247609	 0.115851
H	 1.9836023606	 3.4098723376	 2.0953226358	 0.100953
H	 4.8384767442	 4.1202133391	 0.0111935246	 0.130567
H	 3.8996262204	 2.8256982337	 0.892399919	 0.10676
H	 2.8818669763	 4.5010655738	-1.5676473876	 0.104922
53.9309	89.1177	97.9542	203.3063	253.8495	373.8886	390.9109	433.7564	497.0017	583.2139	704.0296	754.432	761.6996	791.2769	875.0817	936.7648	968.1649	978.1467	1003.1256	1012.933	1037.6612	1070.0702	1106.2124	1121.2849	1131.2732	1178.594	1207.9756	1217.3634	1258.9211	1261.9661	1290.8173	1341.8055	1374.7088	1408.8479	1486.9025	1490.8709	1501.4154	1512.4834	2368.9655	2941.987	3035.7548	3045.6855	3057.0459	3098.5203	3114.849	3169.6353	3195.717	3534.9545
N#CCNC1CN2CC12	N#CCN[C@H]1CN2C[C@@H]12	
InChI=1S/C6H9N3/c7-1-2-8-5-3-9-4-6(5)9/h5-6,8H,2-4H2	InChI=1S/C6H9N3/c7-1-2-8-5-3-9-4-6(5)9/h5-6,8H,2-4H2/t5-,6-,9?/m0/s1
