20
gdb 89025	2.99351	1.0028	0.90855	6.9517	75.7	-0.2384	0.0373	0.2757	1359.2426	0.171153	-440.308285	-440.299088	-440.298144	-440.343195	33.912	
C	 0.2264448466	 1.731713486	 0.3804233814	-0.404292
C	 0.3987021314	 0.2522331431	 0.1376243721	-0.003258
N	 1.6948591974	-0.3416657947	 0.5190426815	-0.344045
H	 2.017211677	-1.0338591993	-0.1488956034	 0.245962
H	 2.6960480032	 0.335511351	 1.7654776476	 0.328119
C	 0.4636836009	-0.7725997953	 1.2191991357	-0.013626
C	 0.363357159	-0.4679333303	 2.7053230619	-0.242704
C	 1.5816652421	-0.9420543294	 3.5342947224	-0.319914
C	 2.7021847117	 0.0933487762	 3.6954692962	 0.384193
O	 3.1401491933	 0.6916702275	 2.5807960545	-0.383576
O	 3.1676017753	 0.3620464581	 4.7738971459	-0.330511
H	 0.7559012015	 2.0517567106	 1.2802710376	 0.146324
H	 0.6310014617	 2.3025056094	-0.4613748857	 0.130692
H	-0.8330864254	 1.987711717	 0.4842383415	 0.126476
H	-0.0128754345	-0.0994837014	-0.8068135262	 0.097403
H	 0.1055873351	-1.7638558488	 0.947558616	 0.097606
H	 0.2012733715	 0.6006493274	 2.8728077739	 0.123179
H	-0.5350411123	-0.9692552356	 3.0802950528	 0.114834
H	 1.2741550726	-1.2001783977	 4.5485863347	 0.131269
H	 2.0065726419	-1.8494543138	 3.0858817596	 0.11587
32.0898	93.9114	147.2666	186.1333	243.2724	251.4056	279.4205	378.2744	440.8746	468.6342	530.3243	596.4489	702.4394	765.6892	784.4859	835.4642	888.205	930.7479	946.5571	973.5082	984.2022	1023.0184	1055.6868	1058.8143	1095.7968	1157.116	1168.6242	1197.055	1239.7656	1268.1367	1290.6981	1307.9851	1346.5982	1352.789	1401.446	1427.3669	1452.9757	1459.7886	1473.5939	1486.4368	1495.2957	1507.9729	1846.1619	3034.7932	3043.1668	3052.39	3090.0333	3105.8765	3117.4103	3122.4484	3127.5097	3140.5287	3190.7566	3530.1837
CC1[NH2+]C1CCC([O-])=O	C[C@H]1N[C@H]1CCC(=O)O	
InChI=1S/C6H11NO2/c1-4-5(7-4)2-3-6(8)9/h4-5,7H,2-3H2,1H3,(H,8,9)	InChI=1S/C6H11NO2/c1-4-5(7-4)2-3-6(8)9/h4-5,7H,2-3H2,1H3,(H,8,9)/t4-,5+/m1/s1
