15
gdb 46638	3.20586	1.66898	1.12069	2.6057	67.58	-0.2467	-0.006	0.2407	1013.4567	0.1157	-454.007372	-454.000151	-453.999207	-454.040718	25.81	
O	-0.0317602888	-0.0517688313	 0.0022002565	-0.384186
C	 0.0179145434	 1.1425333078	 0.0087178079	 0.50459
O	-1.0904491119	 1.9611945043	 0.0286064305	-0.261153
C	-0.713096277	 3.3511089032	 0.0315077033	-0.189294
C	 0.7901570013	 3.3091090841	 0.0102372393	 0.383592
N	 1.7353364356	 4.1537055407	 0.0008521592	-0.348738
C	 2.9825736662	 3.3466533925	-0.0206615516	-0.179802
C	 2.5665840385	 1.8249168034	-0.0233374196	-0.204686
N	 1.1179461214	 1.9693152824	-0.0009515526	-0.170195
H	-1.1317003444	 3.8445926576	-0.8504152166	 0.157222
H	-1.1067572164	 3.8340724794	 0.930589416	 0.157196
H	 3.5678541682	 3.6058065981	-0.9079758863	 0.128405
H	 3.5918377316	 3.5960615545	 0.8532182103	 0.1284
H	 2.8961671677	 1.2910206615	-0.9184737634	 0.139318
H	 2.9226387344	 1.2806512819	 0.8552372072	 0.139331
21.8137	110.9692	194.3348	232.4298	310.5978	573.1542	586.3003	632.518	661.0893	753.5811	754.3884	816.5712	822.3384	910.5815	983.0167	1024.1312	1039.0239	1056.3293	1103.9217	1114.7625	1197.6958	1210.9179	1241.9349	1273.874	1324.0037	1349.6573	1377.4695	1438.3954	1496.3032	1498.4135	1530.5833	1766.5103	1903.6557	3053.5577	3060.6474	3063.1668	3084.1626	3104.6893	3109.1127
O=C1OCC2=NCCN12	O=C1OCC2=NCCN12	
InChI=1S/C5H6N2O2/c8-5-7-2-1-6-4(7)3-9-5/h1-3H2	InChI=1S/C5H6N2O2/c8-5-7-2-1-6-4(7)3-9-5/h1-3H2
