17
gdb 63571	2.65777	1.48357	1.17335	3.9921	69.22	-0.2541	-0.0009	0.2532	1078.3264	0.134462	-458.973809	-458.965262	-458.964318	-459.006809	32.12	
C	-0.096537154	 1.5485667684	-0.0983118552	-0.432167
C	 0.0397177242	 0.0489190448	-0.0358356739	 0.383642
O	-1.1113653247	-0.5753924295	-0.5113550621	-0.467151
C	 1.3791141187	-0.5981028614	-0.2428887145	-0.406667
C	 0.752566928	-0.604785878	 1.137393266	 0.016874
C	 1.200655453	-0.1589276092	 2.5218240056	-0.163721
O	 0.5822223774	-1.3762275287	 3.0796191549	-0.25232
C	 0.1816625452	-1.7879415089	 1.8333270126	 0.464106
O	-0.4592509551	-2.7514487837	 1.5305483547	-0.368144
H	 0.8105844511	 2.0453730982	 0.2555867743	 0.116237
H	-0.2798727391	 1.8587908869	-1.1315374693	 0.140907
H	-0.9427703323	 1.8806411884	 0.5101973954	 0.134581
H	-1.1401669764	-1.4867969081	-0.1860003906	 0.30393
H	 1.4188568534	-1.5515671497	-0.7606735316	 0.137529
H	 2.244834854	 0.0409417912	-0.385500991	 0.127292
H	 2.2762528381	-0.1534211971	 2.7110843715	 0.131557
H	 0.7239879882	 0.7315137762	 2.9367161532	 0.133516
117.9552	128.9179	150.6493	214.5025	251.1705	317.6087	381.5783	407.8375	425.8705	458.2161	538.1555	650.378	681.7931	781.8535	789.5659	854.8765	892.0246	921.9811	949.3579	992.3082	1049.7135	1074.0295	1101.1004	1105.9155	1141.5122	1163.5718	1215.7202	1261.4397	1329.1495	1384.4862	1406.3297	1447.8684	1477.0763	1481.7671	1508.2281	1514.1893	1899.545	3043.7886	3070.0005	3114.0752	3122.3628	3125.7287	3131.7807	3216.3797	3729.6906
CC1(O)CC11COC1=O	C[C@@]1(O)C[C@]21COC2=O	
InChI=1S/C6H8O3/c1-5(8)2-6(5)3-9-4(6)7/h8H,2-3H2,1H3	InChI=1S/C6H8O3/c1-5(8)2-6(5)3-9-4(6)7/h8H,2-3H2,1H3/t5-,6+/m1/s1
