16
gdb 49769	2.26999	1.87911	1.17843	1.7726	69.11	-0.2396	-0.035	0.2046	1024.4423	0.123607	-437.88636	-437.87847	-437.877525	-437.919707	28.927	
O	-0.9091708586	 0.8921211291	-0.281896683	-0.245186
C	 0.2453667745	 0.7780417785	 0.0389089779	 0.150687
C	 1.2559490808	 1.924026375	 0.0046079368	-0.171043
N	 2.6208279656	 1.4037032191	 0.1826438843	-0.282451
C	 3.2687547697	 1.7853934084	-0.8401520921	 0.112181
O	 2.6616174558	 2.5280699642	-1.7870731307	-0.237942
C	 1.3180628915	 2.7270261798	-1.3098713181	 0.407335
C	 0.2554198314	 2.8806374755	-2.347544813	-0.332558
C	 0.7241355032	 4.0785007963	-1.5384277058	-0.321986
H	 0.6663503586	-0.180518769	 0.4099433271	 0.104968
H	 0.9956619223	 2.5773849126	 0.8498286397	 0.125899
H	 4.309695182	 1.5600476027	-1.043107636	 0.148231
H	 0.575379192	 2.8225700703	-3.3817618466	 0.129601
H	-0.7172797907	 2.4576337264	-2.1324397319	 0.157095
H	 0.0641280463	 4.4743035781	-0.7729943822	 0.126187
H	 1.3460729056	 4.8134740031	-2.0366528764	 0.128983
52.0815	69.377	197.8973	237.6007	304.0923	323.2624	455.6004	522.3952	565.7833	599.9622	741.4951	765.3015	831.1519	899.6955	919.7884	951.6135	965.3236	972.8656	1028.1532	1045.5668	1059.1975	1079.7666	1088.4528	1167.2616	1192.6784	1223.6512	1243.2302	1297.2084	1341.3544	1359.7733	1399.782	1449.9456	1494.39	1695.8968	1826.928	2913.4706	3002.9586	3130.9072	3150.4375	3219.453	3222.5191	3248.9184
O=CC1N=COC11CC1	O=C[C@H]1N=COC21CC2	
InChI=1S/C6H7NO2/c8-3-5-6(1-2-6)9-4-7-5/h3-5H,1-2H2	InChI=1S/C6H7NO2/c8-3-5-6(1-2-6)9-4-7-5/h3-5H,1-2H2/t5-/m1/s1
