22
gdb 116654	2.78928	0.85739	0.72051	2.906	87.99	-0.248	0.0199	0.268	1669.6778	0.191955	-404.331219	-404.320641	-404.319697	-404.368139	37.342	
C	 0.1130754669	 1.5199356655	-0.0649563974	-0.249373
O	-0.0699419592	 0.1094224185	-0.0683000324	-0.194829
C	 0.5678280027	-0.5586999502	-1.0495575117	 0.132247
N	 0.4312816109	-1.8021816302	-1.1756405791	-0.218345
C	 1.1768969594	-2.4640968493	-2.2358058733	 0.0178
C	 2.2392071777	-3.3764426624	-1.6048447963	-0.372435
C	 0.242301596	-3.2698270971	-3.1325104715	 0.029249
C	-0.9421110885	-4.0114763965	-2.5696355162	-0.252007
C	-1.1529235918	-2.8065948604	-3.4558739291	-0.283715
H	 1.1744788433	 1.7886837298	 0.0017334462	 0.126749
H	-0.3209930859	 1.9835202535	-0.9592378269	 0.128083
H	-0.4052650639	 1.8949583677	 0.8182169477	 0.146973
H	 1.2003411676	 0.0721139398	-1.6949922648	 0.073175
H	 1.6955099483	-1.7226330648	-2.8725394922	 0.052243
H	 2.8008124939	-3.9069313114	-2.3807342077	 0.106688
H	 2.9453991192	-2.7938880182	-1.0054857311	 0.106072
H	 1.7634294849	-4.1145667728	-0.9532017398	 0.129322
H	 0.7755849665	-3.766679235	-3.9393166314	 0.075396
H	-1.1704504895	-4.9946339654	-2.9663700196	 0.100188
H	-1.1474905675	-3.8832903579	-1.513493342	 0.13139
H	-1.5049739995	-1.9005618415	-2.9756811016	 0.113988
H	-1.5244052313	-2.9587859916	-4.4635471497	 0.101141
38.5233	61.9712	83.7413	141.9451	152.5847	210.8789	224.8414	247.0607	266.7471	371.6036	425.5612	495.7323	507.4211	643.7577	760.7715	799.1763	829.0067	901.4542	919.9426	973.4669	989.7427	1031.3475	1057.0776	1063.4229	1082.6962	1086.2478	1124.6584	1143.6373	1164.2688	1177.3091	1194.6884	1203.039	1237.0003	1277.7933	1335.8579	1361.9269	1393.3755	1404.3597	1422.1512	1459.1333	1484.6978	1487.8877	1494.4998	1496.9035	1500.7946	1503.571	1771.2599	2911.8079	2984.3425	3015.0621	3036.3601	3076.4586	3106.6184	3120.4193	3131.5831	3134.6922	3141.2162	3144.9953	3216.6469	3232.6311
COC=NC(C)C1CC1	COC=N[C@@H](C)C1CC1	
InChI=1S/C7H13NO/c1-6(7-3-4-7)8-5-9-2/h5-7H,3-4H2,1-2H3	InChI=1S/C7H13NO/c1-6(7-3-4-7)8-5-9-2/h5-7H,3-4H2,1-2H3/t6-/m0/s1
