15
gdb 51508	3.18798	1.1992	0.95852	5.2635	69.45	-0.2297	-0.0202	0.2095	1182.0026	0.113455	-454.006258	-453.998092	-453.997148	-454.04019	29.398	
O	-0.0183530145	-0.0048650264	 0.5872701568	-0.315818
C	-0.0269673371	 1.1531847218	 0.2319407741	 0.163709
N	 1.0448955023	 1.8210442362	-0.2818440889	-0.279212
C	 2.3600994269	 1.2251899065	-0.3425170213	-0.110505
C	 3.0242584644	 1.1492095876	-1.6967308403	-0.163412
C	 4.2650625649	 1.6320087959	-1.586251798	-0.030399
N	 4.532619331	 2.0809398102	-0.2810235194	-0.327727
C	 3.4050289204	 1.9923672212	 0.5159370276	 0.388078
O	 3.2696965533	 2.4374977252	 1.6283550871	-0.351632
H	-0.9282529568	 1.7941189135	 0.2719355477	 0.083667
H	 0.9473360936	 2.8035492762	-0.4843926911	 0.253567
H	 2.2394286227	 0.2241675203	 0.0937306675	 0.165847
H	 2.5804637823	 0.7048257116	-2.573792639	 0.121133
H	 5.0444256622	 1.6918605314	-2.3326207947	 0.137101
H	 5.3338925744	 2.6276605887	-0.0105124181	 0.2656
35.2828	92.203	158.4514	197.6065	281.9807	349.809	464.2276	504.7632	516.4278	549.6133	641.9773	706.7848	730.7192	763.6184	805.6596	914.3637	936.876	1014.7342	1033.2114	1063.3489	1094.8686	1141.4794	1196.4313	1218.4988	1246.5864	1313.2652	1374.8802	1406.5484	1426.1782	1519.4033	1668.8268	1804.9928	1849.8331	2953.7115	3036.7382	3235.4456	3263.9402	3633.3974	3654.3159
O=CNC1C=CNC1=O	O=CN[C@H]1C=CNC1=O	
InChI=1S/C5H6N2O2/c8-3-7-4-1-2-6-5(4)9/h1-4H,(H,6,9)(H,7,8)	InChI=1S/C5H6N2O2/c8-3-7-4-1-2-6-5(4)9/h1-4H,(H,6,9)(H,7,8)/t4-/m0/s1
