19
gdb 65812	2.82834	1.17535	1.03975	2.2804	76.06	-0.2444	0.0247	0.2691	1223.1233	0.156382	-422.954188	-422.944752	-422.943808	-422.988764	34.786	
C	 0.1952914572	 1.3471473144	-0.7571539181	-0.466212
C	-0.1722805429	 0.0824481636	 0.0088202907	 0.368493
C	 0.3811478142	-1.228472504	-0.6166997514	-0.114126
O	 1.4386307437	-1.2751058591	 0.3653648613	-0.276736
C	 0.7946279821	-0.2597710546	 1.1600427701	-0.114431
O	-1.5121358939	 0.053980357	 0.4691503741	-0.28841
C	-2.5339010031	 0.3647892865	-0.461867719	-0.229353
C	-2.5807967236	-0.5051896101	-1.640631125	 0.310929
C	-2.6213068646	-1.2030489041	-2.618714786	-0.466684
H	 1.2710543276	 1.349712102	-0.9536400908	 0.135442
H	-0.3159876514	 1.4035193341	-1.7229154221	 0.129225
H	-0.0504086593	 2.2402717628	-0.172902928	 0.123213
H	-0.3132422126	-2.0705426669	-0.518789005	 0.104565
H	 0.7684944876	-1.1804858692	-1.6398149581	 0.100386
H	 1.4904393965	 0.522518815	 1.4833853156	 0.099688
H	 0.27135735	-0.677991536	 2.0292597543	 0.105641
H	-3.4680770864	 0.2687029079	 0.1012931369	 0.14422
H	-2.4664703816	 1.4111575271	-0.7929862224	 0.127203
H	-2.6628592597	-1.8254834066	-3.4786426571	 0.206946
54.9283	89.3082	113.8589	197.1551	251.8941	274.9058	323.694	351.763	371.9489	409.6676	431.9709	612.2824	625.3304	651.1991	683.3877	832.0487	897.8004	906.2853	926.8853	941.291	975.8563	1010.7627	1025.7997	1037.029	1094.0624	1151.6495	1167.3104	1189.5637	1235.6934	1263.8911	1295.5112	1301.3037	1376.403	1397.0197	1403.7234	1478.6866	1488.7343	1498.6259	1506.6213	1526.7683	2231.7098	3003.3113	3014.7039	3030.5144	3037.074	3071.1858	3071.3633	3084.0345	3108.4219	3117.1085	3501.6249
CC1(COC1)OCC#C	CC1(COC1)OCC#C	
InChI=1S/C7H10O2/c1-3-4-9-7(2)5-8-6-7/h1H,4-6H2,2H3	InChI=1S/C7H10O2/c1-3-4-9-7(2)5-8-6-7/h1H,4-6H2,2H3
