19
gdb 10071	3.35857	1.2286	0.96135	4.4008	71.99	-0.2676	0.0222	0.2898	1222.1309	0.164265	-365.081067	-365.071532	-365.070588	-365.115711	33.656	
C	-0.1217439255	 1.5462537812	 0.055224994	-0.395488
C	 0.0837886016	 0.0289397531	 0.0008264794	-0.186869
C	 0.8022817363	-0.4665147148	-1.2694059171	 0.012962
C	 2.3080772616	-0.1296364645	-1.2494536004	-0.071325
O	 2.9064646751	-0.0890661658	-2.5277317523	-0.423301
C	 0.5491772037	-1.9885435412	-1.4213018278	-0.359468
C	 1.2497575862	-2.6058803032	-2.5459779641	 0.262516
N	 1.8285124483	-3.0812897257	-3.4275397428	-0.31937
H	 0.8249875506	 2.093973877	 0.0364646297	 0.128699
H	-0.7206381153	 1.8914729057	-0.7941564652	 0.123606
H	-0.6467522106	 1.8319156579	 0.9715902315	 0.120292
H	 0.6479049727	-0.3032288113	 0.8837216361	 0.101676
H	-0.8956198053	-0.4609526798	 0.0705644539	 0.098205
H	 0.3770917791	 0.0393884239	-2.1445976695	 0.101102
H	 2.4447061353	 0.8723051455	-0.8324844437	 0.112564
H	 2.8293477054	-0.8281688886	-0.5721637966	 0.087422
H	 2.9452480389	-0.9820576661	-2.8876699855	 0.299693
H	 0.8638966056	-2.5062520564	-0.5060373234	 0.153095
H	-0.5229098337	-2.1817129267	-1.5384876661	 0.153989
60.9209	87.9436	114.6298	150.3099	209.8427	252.5509	269.1878	349.858	396.1785	402.7414	419.4989	472.2208	567.5058	769.619	857.312	869.1976	914.5131	951.941	997.1196	1037.594	1084.2337	1088.6841	1127.6947	1152.6731	1194.7494	1259.1916	1279.6317	1299.5447	1346.6699	1355.7401	1388.9178	1402.1926	1416.3429	1434.5673	1461.8495	1487.8624	1496.7353	1503.3664	1508.2437	2349.8971	2957.8794	3010.2361	3031.1258	3039.331	3040.8321	3050.1758	3078.5647	3083.4797	3106.92	3112.7207	3803.3008
CCC(CO)CC#N	CC[C@@H](CO)CC#N	
InChI=1S/C6H11NO/c1-2-6(5-8)3-4-7/h6,8H,2-3,5H2,1H3	InChI=1S/C6H11NO/c1-2-6(5-8)3-4-7/h6,8H,2-3,5H2,1H3/t6-/m1/s1
