20
gdb 91818	3.34159	1.22853	1.03796	1.9163	80.54	-0.2377	0.0077	0.2454	1206.8944	0.171881	-403.135157	-403.126678	-403.125734	-403.167884	33.572	
C	-0.1820829397	 1.5162685341	 0.0798147188	-0.475151
C	 0.0308361652	 0.0194054393	-0.0032677283	 0.306929
N	-0.7562206465	-0.8594038226	 0.9007449083	-0.370805
C	 0.7045169817	-0.7043030873	 1.1059383965	-0.105063
C	 1.5599518266	-1.92725964	 0.7938513657	-0.230549
C	 2.2236117828	-1.851694706	-0.5942501874	 0.079863
O	 2.7974292145	-3.101512056	-0.9630446877	-0.434532
C	 1.2559744611	-1.3528399624	-1.6450045026	-0.099715
C	 0.2486170984	-0.5247123054	-1.3755227411	-0.104927
H	 0.6538611783	 2.0605003501	-0.3725276675	 0.12891
H	-1.0947990607	 1.8115035517	-0.4514341864	 0.123369
H	-0.2748083139	 1.8430879286	 1.1210473516	 0.112316
H	-1.2572414415	-0.2810709369	 1.5740294378	 0.221344
H	 1.0175175401	-0.1046822967	 1.9578723465	 0.08094
H	 2.3307931517	-2.0733385557	 1.5564781731	 0.102291
H	 0.9114386224	-2.8107378031	 0.8112441915	 0.104978
H	 3.0843885365	-1.1703678398	-0.5501222228	 0.098924
H	 2.0775552427	-3.7396896247	-1.0258105427	 0.276799
H	 1.4337016811	-1.7171812539	-2.6538466365	 0.096234
H	-0.4321047608	-0.1978343834	-2.1588027971	 0.087844
80.3175	183.8513	216.3973	250.5176	299.2336	332.1007	378.0687	403.9348	417.2785	477.5552	534.9263	605.3483	654.2985	740.2986	765.4602	819.3867	874.2131	929.1544	944.2346	974.9102	1000.5441	1012.3538	1054.9743	1077.7405	1087.6645	1095.054	1138.9162	1161.622	1199.0958	1228.1786	1268.7182	1295.1185	1315.3046	1353.2376	1360.3489	1410.6401	1413.8827	1424.9781	1446.713	1475.3571	1484.241	1502.8781	1712.6518	3012.1295	3022.0792	3039.0477	3086.9604	3088.6593	3097.6048	3127.1003	3141.3972	3168.5019	3468.5386	3793.1068
CC12NC1CC(O)C=C2	C[C@]12N[C@H]1C[C@@H](O)C=C2	
InChI=1S/C7H11NO/c1-7-3-2-5(9)4-6(7)8-7/h2-3,5-6,8-9H,4H2,1H3	InChI=1S/C7H11NO/c1-7-3-2-5(9)4-6(7)8-7/h2-3,5-6,8-9H,4H2,1H3/t5-,6-,7+/m0/s1
