21
gdb 75902	2.38167	1.56374	1.20448	3.954	78.88	-0.2281	0.0669	0.2949	1130.7685	0.183033	-420.470447	-420.460959	-420.460015	-420.504094	35.952	
C	-0.1656842364	 1.4103846713	 0.0156917101	-0.352126
N	-0.1538139733	-0.0336981732	 0.017023061	-0.110499
C	 0.1620584449	-0.7366436338	-1.1306562861	 0.443481
O	 0.2438878543	-0.2915148971	-2.2568011196	-0.428926
N	 0.3833512005	-2.0574717039	-0.7473881928	-0.363079
C	-0.1214595776	-2.2762592764	 0.5984489174	-0.200256
C	-0.0116243574	-0.8587049427	 1.2245238119	 0.272794
C	 1.369013997	-0.661638537	 1.8797827883	-0.420228
C	-1.133703075	-0.5940245204	 2.231653508	-0.433639
H	 0.7216541159	 1.8405997266	 0.4998537585	 0.115881
H	-0.1788457624	 1.7279316102	-1.0286139934	 0.165405
H	-1.0568810609	 1.8009850298	 0.5186302612	 0.119866
H	 0.2342822554	-2.7492376329	-1.4653815216	 0.249415
H	-1.1676272994	-2.6164554368	 0.6028155674	 0.098527
H	 0.4812730409	-3.0055138443	 1.1476717829	 0.110328
H	 2.1677655525	-0.9156833951	 1.177238537	 0.134379
H	 1.5090699108	 0.3741910648	 2.2025279513	 0.118782
H	 1.4683302187	-1.3004639722	 2.76328737	 0.115106
H	-1.0899396603	-1.3226587422	 3.0477605051	 0.120468
H	-1.0433092719	 0.4022349314	 2.6756355805	 0.121499
H	-2.1131733263	-0.670242326	 1.7510805129	 0.122821
99.5891	129.8358	180.4394	214.0699	241.1221	267.3551	286.5317	323.5456	337.8557	368.0828	463.0495	529.1627	547.3121	576.9335	712.8086	728.6598	768.0973	853.4446	926.4565	944.2328	976.0086	1004.3845	1037.9944	1087.1986	1155.6011	1169.594	1194.532	1196.8251	1228.4706	1263.2162	1295.9993	1338.7549	1396.6824	1406.9888	1413.2927	1429.4306	1457.0193	1481.9215	1485.1223	1498.6886	1504.1344	1507.2965	1521.4644	1528.6231	1828.3949	2988.72	3007.9502	3034.8066	3040.7482	3066.4298	3073.8918	3103.3968	3109.9584	3116.4057	3119.8415	3139.3175	3634.6862
CN1C(=O)NCC1(C)C	CN1C(=O)NCC1(C)C	
InChI=1S/C6H12N2O/c1-6(2)4-7-5(9)8(6)3/h4H2,1-3H3,(H,7,9)	InChI=1S/C6H12N2O/c1-6(2)4-7-5(9)8(6)3/h4H2,1-3H3,(H,7,9)
