16
gdb 32054	3.607	1.13006	0.86514	4.8228	76.45	-0.2099	-0.0333	0.1766	1263.8641	0.12575	-437.951428	-437.94325	-437.942306	-437.985092	30.039	
O	 0.0750111419	 1.4188405424	 0.0068272436	-0.404889
C	 0.0103892108	 0.0113378679	 0.0020059865	-0.166297
C	-1.4326235008	-0.4208993371	 0.0131504259	 0.39005
C	-2.4959362799	 0.4288871249	 0.0234522018	-0.240896
C	-3.8050976329	-0.1314932089	 0.0328763853	-0.044289
C	-4.0133746859	-1.477546939	 0.0317762776	-0.253875
C	-2.9060310159	-2.4130990925	 0.0210441708	 0.421893
O	-2.9610874047	-3.632334584	 0.0187903464	-0.404762
N	-1.6496035787	-1.7686759719	 0.0122075332	-0.421583
H	 1.0000727844	 1.6794420857	-0.0017876522	 0.299222
H	 0.5001277651	-0.4164914284	-0.8899729181	 0.113243
H	 0.5159320707	-0.4233175447	 0.881786784	 0.113149
H	-2.3263256886	 1.4947122122	 0.0242460158	 0.124759
H	-4.6580371714	 0.5411874482	 0.0411268494	 0.109245
H	-5.005780822	-1.9104890281	 0.0388533367	 0.113572
H	-0.868783432	-2.412586787	 0.0047202533	 0.251459
34.307	149.5019	188.0093	205.4554	211.1673	368.6113	420.6564	487.9635	538.4195	564.7569	611.1037	692.5268	747.7703	749.0216	814.8012	870.6056	907.4336	1005.8312	1014.7819	1044.8257	1074.953	1117.5618	1168.0756	1196.1874	1226.7938	1238.8819	1255.9744	1353.154	1439.9292	1456.3849	1486.748	1513.1186	1602.6051	1668.4049	1782.8136	2948.5511	2968.3916	3171.0471	3217.9339	3253.933	3583.2397	3845.723
OCC1=CC=CC(=O)N1	OCc1cccc(=O)[nH]1	
InChI=1S/C6H7NO2/c8-4-5-2-1-3-6(9)7-5/h1-3,8H,4H2,(H,7,9)	InChI=1S/C6H7NO2/c8-4-5-2-1-3-6(9)7-5/h1-3,8H,4H2,(H,7,9)
