13
gdb 128933	5.53162	0.69126	0.67336	4.3077	72.76	-0.2519	-0.0737	0.1783	1565.9518	0.087492	-448.934834	-448.925712	-448.924767	-448.970318	30.644	
N	 0.2604735399	-0.8176719278	 1.0634560962	-0.29708
C	 0.1374685857	 0.1068129494	 0.3817537558	 0.251959
C	 0.0137333121	 1.268045535	-0.5104669721	-0.278116
N	 1.2134517467	 2.0770078323	-0.5409573345	-0.34853
C	 1.1983687802	 3.3578813935	-0.0240247279	 0.442936
C	 2.5164595971	 3.9949352572	 0.0045457748	-0.248059
N	 2.5788784403	 5.2160917561	 0.4583623824	 0.300604
N	 2.6017313486	 6.2727875122	 0.8567422346	-0.200711
O	 0.174702528	 3.9042958321	 0.3495689823	-0.394957
H	-0.2540149424	 0.911490443	-1.5121499058	 0.159001
H	-0.7898823964	 1.9223159198	-0.1584734728	 0.201803
H	 2.091870773	 1.622178673	-0.7301234282	 0.259752
H	 3.4495650073	 3.5547738744	-0.3143104248	 0.151397
31.0962	69.1161	107.1606	133.2712	235.9353	276.7188	352.3722	375.1443	384.08	461.7494	482.6651	562.9831	597.2668	738.9899	750.8138	921.5615	941.7808	1056.5026	1083.3603	1190.1594	1219.7367	1272.1598	1369.8889	1420.1251	1465.7351	1527.2231	1754.9539	2240.3246	2362.7907	3039.7762	3101.511	3234.6529	3642.9185
N#CCNC1=CN=NO1	N#CCNC(=O)[CH][N][N]	
InChI=1S/C4H4N4O/c5-1-2-6-4-3-7-8-9-4/h3,6H,2H2	InChI=1S/C4H4N4O/c5-1-2-7-4(9)3-8-6/h3H,2H2,(H,7,9)
