17
gdb 87335	2.10895	1.23757	0.89599	4.829	74.84	-0.2578	-0.0372	0.2206	1311.9957	0.133646	-418.004396	-417.994795	-417.993851	-418.039898	33.389	
C	-0.0150925698	 1.5046642638	-0.1289193888	-0.408128
C	 0.011735309	 0.0083271178	 0.0572765016	-0.034229
N	 1.2969788318	-0.680317385	-0.0688352877	-0.352041
C	 0.6227104018	-0.6784181468	 1.2522839355	 0.117655
C	 1.3455253889	 0.0532489778	 2.3715848833	-0.345344
C	 2.5701203597	-0.7024923172	 2.8674186785	 0.167942
O	 2.9208610606	-0.7283765565	 4.0164840864	-0.231776
C	-0.0249322339	-1.9094964185	 1.6563151982	 0.255916
N	-0.529821611	-2.9006154014	 1.9749585441	-0.330297
H	 0.9004366724	 1.9769595188	 0.2318456171	 0.136091
H	-0.1081982673	 1.7393800884	-1.1941479109	 0.138135
H	-0.8717292816	 1.945520343	 0.3902994863	 0.135272
H	-0.8575127853	-0.5082959022	-0.3460768776	 0.115704
H	 1.1946160052	-1.583027749	-0.5254137821	 0.255571
H	 1.7039001293	 1.0136175754	 1.9853883285	 0.141838
H	 0.6839591696	 0.2532794847	 3.2184751177	 0.141037
H	 3.1458177003	-1.2181507131	 2.0679801598	 0.096654
49.1115	67.9627	135.2302	143.6406	171.7942	188.427	255.5492	362.326	391.253	461.6478	492.8545	569.3289	597.8605	687.394	764.3708	817.1434	870.7663	965.3032	994.7526	1034.1044	1057.3414	1081.4487	1104.9323	1128.1189	1204.2406	1240.5183	1281.9816	1300.3712	1348.9294	1409.3995	1419.8142	1441.2921	1451.6155	1485.2712	1498.6203	1839.6126	2346.4541	2899.1972	3045.085	3056.8961	3108.9132	3115.9039	3122.4418	3140.7852	3513.7231
CC1NC1(CC=O)C#N	C[C@H]1N[C@]1(CC=O)C#N	
InChI=1S/C6H8N2O/c1-5-6(4-7,8-5)2-3-9/h3,5,8H,2H2,1H3	InChI=1S/C6H8N2O/c1-5-6(4-7,8-5)2-3-9/h3,5,8H,2H2,1H3/t5-,6-/m1/s1
