18
gdb 114498	3.42233	1.13431	0.96323	4.6153	72.88	-0.2283	0.0032	0.2316	1254.0372	0.14742	-439.07326	-439.065035	-439.064091	-439.106518	30.49	
C	 0.0873106211	 1.5210188727	 0.1024454856	-0.383605
C	-0.1801529224	 0.0215923561	-0.0011735919	-0.128861
N	 0.5426177583	-0.5674467166	-1.1145463468	-0.079732
C	 0.0732027598	-0.2837104735	-2.4944125222	-0.200567
C	 0.1629124236	-1.7808326488	-2.8318430502	 0.096686
O	 1.5107424997	-2.2443546648	-3.1457125996	-0.265336
C	 1.7728226026	-2.5797575351	-1.8266560181	 0.489519
O	 2.7520523494	-3.0859609648	-1.3906728467	-0.32192
C	 0.4231185352	-2.0309783915	-1.3325684981	-0.211849
H	 1.156619545	 1.7118568038	 0.2272633239	 0.133983
H	-0.2485770989	 2.0474703478	-0.79730413	 0.120491
H	-0.4492922279	 1.9473068888	 0.9551550491	 0.118547
H	 0.1586272784	-0.4788436551	 0.9131965482	 0.114078
H	-1.2717357484	-0.1563621419	-0.0791497789	 0.074763
H	-0.9708348233	 0.0630407133	-2.5287661739	 0.103214
H	 0.7042308255	 0.3951003881	-3.0749820615	 0.126091
H	-0.5808054632	-2.2616195236	-3.4621895895	 0.109712
H	-0.1886008948	-2.608786145	-0.6389129595	 0.104784
80.042	113.2135	168.5689	185.9997	246.9566	328.8325	390.7086	411.6393	482.5112	661.4079	696.8009	792.908	814.8452	834.4709	851.0371	897.9822	961.2523	980.8082	1002.3254	1027.083	1038.6831	1096.6991	1109.887	1148.4883	1189.2242	1191.5365	1195.4538	1237.7252	1283.2537	1308.6286	1325.6818	1339.5543	1396.7727	1416.8555	1486.1495	1489.5153	1496.9186	1514.3532	1947.1638	2899.3704	2991.1028	3039.837	3054.5551	3086.8034	3107.3446	3113.4794	3123.8561	3151.4432
CCN1CC2OC(=O)C12	CCN1C[C@H]2OC(=O)[C@@H]12	
InChI=1S/C6H9NO2/c1-2-7-3-4-5(7)6(8)9-4/h4-5H,2-3H2,1H3	InChI=1S/C6H9NO2/c1-2-7-3-4-5(7)6(8)9-4/h4-5H,2-3H2,1H3/t4-,5+/m1/s1
