18
gdb 93643	3.32476	1.23016	1.00939	2.6321	72.59	-0.2627	0.017	0.2796	1180.4887	0.14763	-439.104621	-439.0957	-439.094756	-439.138528	32.682	
C	-0.1509342022	 1.5020077657	-0.1385131679	-0.397995
C	-0.0034929289	 0.0062159305	 0.0906944862	 0.132907
O	 0.4549306446	-0.6370775341	-1.1121161079	-0.278521
C	 1.5666320267	-1.470080086	-0.8450915971	-0.070693
C	 1.4761491053	-1.7723806136	 0.6666862181	-0.196401
C	 2.7206624558	-2.2010174833	 1.2849262774	 0.253808
N	 3.7148955427	-2.4950769974	 1.7970275189	-0.323612
C	 0.9846731086	-0.3968670365	 1.2010827835	 0.073034
O	 2.035754832	 0.5407029777	 1.2570550486	-0.423151
H	 0.8171188332	 1.954895843	-0.3559317271	 0.144068
H	-0.8252013122	 1.6750720002	-0.9810786771	 0.126115
H	-0.5722703259	 1.9865370747	 0.7478553327	 0.116436
H	-0.9844841295	-0.423993815	 0.3421859022	 0.080086
H	 1.4961050206	-2.3713149072	-1.4601828509	 0.12189
H	 2.5122570299	-0.9587779351	-1.068020379	 0.120644
H	 0.7044499573	-2.5286810614	 0.8476170154	 0.132295
H	 0.4808082232	-0.4956593805	 2.1712623087	 0.086344
H	 2.6890549289	 0.234275338	 1.8968190749	 0.302745
58.2759	115.9677	135.4085	221.3111	233.6431	276.9161	355.1086	365.4966	388.9769	460.8925	536.2872	569.0535	667.8649	745.7267	813.5289	865.6289	895.24	983.3126	1006.807	1034.0581	1046.0152	1081.1463	1119.4116	1144.0572	1158.0294	1214.7883	1240.7488	1279.5525	1307.9305	1324.4499	1363.0465	1390.4916	1399.8551	1411.2384	1429.0996	1486.1747	1494.6699	1520.5355	2354.3252	2987.5179	3020.2272	3025.1073	3052.1226	3059.3642	3092.7646	3120.6056	3152.1036	3797.1034
CC1OCC(C#N)C1O	C[C@H]1OC[C@@H](C#N)[C@H]1O	
InChI=1S/C6H9NO2/c1-4-6(8)5(2-7)3-9-4/h4-6,8H,3H2,1H3	InChI=1S/C6H9NO2/c1-4-6(8)5(2-7)3-9-4/h4-6,8H,3H2,1H3/t4-,5-,6+/m1/s1
