16
gdb 15962	3.16788	1.8834	1.37691	4.5701	69.01	-0.23	0.0234	0.2535	910.0584	0.131307	-342.7558	-342.748292	-342.747347	-342.788842	27.64	
N	-0.0788980399	-1.083780779	-0.38470341	-0.332989
C	-0.0555181123	 0.0516921749	-0.1675318685	 0.289223
C	-0.0124006055	 1.4804302757	 0.095220399	-0.267168
C	-0.0354948862	 1.9271575109	 1.5938511445	-0.168099
N	 1.3391179727	 2.4817296149	 1.4699127683	-0.357275
C	 1.3759510702	 2.1553780599	 0.038129059	 0.376697
C	 2.5895711977	 1.6970518863	-0.7005396903	-0.304649
C	 1.9210542125	 3.0144263161	-1.0588357152	-0.335927
H	-0.7679058445	 1.9783723926	-0.5179438474	 0.127434
H	-0.8187392373	 2.6603422969	 1.808245032	 0.114324
H	-0.1042374444	 1.1094520898	 2.3157300412	 0.132443
H	 1.380779315	 3.4787925834	 1.6528653697	 0.223481
H	 3.5309593736	 1.7371682414	-0.1634316089	 0.127332
H	 2.489966248	 0.8626209544	-1.3868992703	 0.134785
H	 1.3698126839	 3.0799973414	-1.9919023768	 0.121656
H	 2.4266514965	 3.9324963006	-0.7742927565	 0.118732
20.0937	129.1179	190.8116	284.2361	312.6168	403.7533	501.9696	535.5263	600.7883	724.0966	761.5046	778.4902	870.9672	900.0622	927.7571	971.394	986.107	1008.825	1052.0055	1064.8007	1075.0529	1094.1497	1154.879	1185.7434	1207.4801	1237.7386	1322.4101	1334.2559	1355.8771	1392.6006	1454.6761	1494.9904	1518.058	2355.1994	3047.8937	3076.3073	3101.6996	3119.4495	3133.7636	3202.1205	3225.8122	3521.8341
N#CC1CNC11CC1	N#C[C@H]1CNC21CC2	
InChI=1S/C6H8N2/c7-3-5-4-8-6(5)1-2-6/h5,8H,1-2,4H2	InChI=1S/C6H8N2/c7-3-5-4-8-6(5)1-2-6/h5,8H,1-2,4H2/t5-/m0/s1
