16
gdb 66733	2.97804	1.71446	1.32684	2.3245	74.38	-0.2265	-0.0322	0.1943	962.3565	0.122684	-400.640653	-400.633043	-400.632099	-400.672646	28.841	
C	-0.3047579177	 1.4036155071	 0.1669492437	-0.532717
C	-0.0234743382	-0.053843274	 0.0471676897	 0.291912
C	 0.9129796587	-0.923159043	-0.8369914006	-0.113917
C	-0.0827637968	-2.0233945358	-0.9031775352	-0.151165
N	 0.9415718713	-2.0131542955	 0.2011186574	-0.169283
C	-0.0089932607	-1.1602828769	 1.0343253939	-0.09757
C	-1.0875491621	-1.2205480274	-0.0529029481	 0.221297
C	-2.5231980427	-1.0660310157	 0.0888973772	 0.00288
O	-3.0423635152	-0.3408262084	 0.9160505153	-0.293163
H	 0.5519324402	 1.9358672476	 0.5953366574	 0.132196
H	-0.5282957793	 1.847390921	-0.8088978636	 0.130059
H	-1.1716046337	 1.556172236	 0.816482707	 0.164717
H	 1.7693731442	-0.6850684802	-1.4563290398	 0.108843
H	-0.1884626242	-2.8539433739	-1.5909705242	 0.106934
H	-0.1331682786	-1.2054683479	 2.1089876054	 0.123892
H	-3.1385573454	-1.6580892729	-0.6244032356	 0.075085
128.9659	145.8263	190.9157	221.9606	270.5717	313.7761	454.9123	621.6494	639.7623	675.3169	729.5519	769.1061	788.1189	856.7409	882.9064	920.0594	952.5281	970.5222	985.2727	999.6904	1032.8679	1079.4693	1094.7215	1124.6863	1184.325	1194.9243	1239.3318	1312.2649	1344.1356	1402.7654	1435.186	1454.3686	1486.9726	1494.142	1759.142	2880.308	3030.5027	3092.6961	3118.07	3179.5954	3192.917	3200.3228
CC12C3C4N3C1C24C=O	C[C@@]12[C@@H]3[C@H]4N3[C@@H]1[C@@]24C=O	
InChI=1S/C7H7NO/c1-6-3-4-7(6,2-9)5(6)8(3)4/h2-5H,1H3	InChI=1S/C7H7NO/c1-6-3-4-7(6,2-9)5(6)8(3)4/h2-5H,1H3/t3-,4+,5-,6+,7-,8?/m0/s1
