18
gdb 43835	2.98464	1.51132	1.16683	3.8707	77.06	-0.228	0.0301	0.2581	1073.3101	0.14914	-401.966882	-401.959328	-401.958384	-401.998842	30.311	
O	-0.007792067	 0.0028462569	-0.1735156597	-0.387706
C	 0.015741132	 1.2060252117	-0.0343414922	 0.406147
N	-1.0773466748	 2.0134145533	 0.1879974208	-0.385623
C	-0.8201582628	 3.4262579384	 0.0976310783	 0.397288
C	-1.7038027596	 4.3305262494	-0.7201118682	-0.326908
C	-1.6980986379	 4.4256527122	 0.7962532969	-0.322477
C	 0.6856558501	 3.5326507482	 0.0552438802	-0.111027
C	 1.4364333591	 2.9249929137	 1.2050384417	-0.292244
C	 1.216112191	 2.1178039315	-0.059783533	-0.159087
H	-2.001603959	 1.6174909596	 0.2488211269	 0.249159
H	-1.2358301202	 5.1275910566	-1.2891325515	 0.119746
H	-2.5745321267	 3.8929301286	-1.1972102338	 0.117082
H	-2.5685592068	 4.0548718638	 1.3280107176	 0.115853
H	-1.2264316045	 5.2850142356	 1.2609710092	 0.122975
H	 1.1232104447	 4.3538009828	-0.498993691	 0.098076
H	 2.4460988643	 3.2792850403	 1.38000603	 0.120309
H	 0.8908579155	 2.6443963395	 2.0999554906	 0.127786
H	 2.0574793526	 1.8278882579	-0.6743722329	 0.110651
86.0082	169.5641	252.1254	275.9354	364.8531	438.6548	457.7534	494.7957	541.8125	624.2916	746.5483	757.4235	785.685	808.5349	843.0492	892.7176	919.8082	939.7325	959.1173	975.6808	990.5895	1037.5881	1056.1085	1071.0599	1073.8536	1078.4873	1098.8395	1185.653	1194.7876	1240.3981	1264.3734	1330.1582	1340.4851	1359.1622	1451.5471	1459.3944	1483.6772	1507.7501	1828.3833	3124.6934	3128.5156	3132.7897	3185.8684	3205.5772	3209.7628	3220.5686	3223.6344	3646.9268
O=C1NC2(CC2)C2CC12	O=C1NC2(CC2)[C@H]2C[C@@H]12	
InChI=1S/C7H9NO/c9-6-4-3-5(4)7(8-6)1-2-7/h4-5H,1-3H2,(H,8,9)	InChI=1S/C7H9NO/c9-6-4-3-5(4)7(8-6)1-2-7/h4-5H,1-3H2,(H,8,9)/t4-,5+/m1/s1
