19
gdb 41147	2.93844	1.91755	1.46514	1.6582	79.28	-0.2343	0.0075	0.2418	934.6117	0.162512	-385.848516	-385.842044	-385.8411	-385.878855	28.056	
C	 0.051723386	 1.5325077044	-0.1603225271	-0.163961
O	 1.4989851125	 1.4416425446	 0.0284401498	-0.354106
C	 1.3021533648	 0.2375000859	 0.7859512943	 0.461303
C	 2.0719752964	-1.0878623045	 0.9289615768	-0.31061
C	 1.1538278787	-1.2485009506	 2.2082037894	-0.076034
C	 1.2198240749	 0.3065646954	 2.3230597324	-0.276884
C	-0.299782867	-1.5725914296	 1.8859054728	-0.052854
C	-0.9414310647	-0.8691075497	 0.943273331	-0.141187
C	-0.0534227537	 0.0123358065	 0.117215263	-0.05384
H	-0.40568445	 2.1785441316	 0.5996492779	 0.103945
H	-0.2080809386	 1.8877766304	-1.1606704359	 0.108325
H	 1.9811163584	-1.8154564916	 0.1189541528	 0.098506
H	 3.117577235	-0.9768216399	 1.228107363	 0.105031
H	 1.5528144338	-1.8488982393	 3.0246021142	 0.071209
H	 2.1691915948	 0.6542265866	 2.7402890604	 0.100381
H	 0.378862609	 0.8158573053	 2.7966354752	 0.096782
H	-0.8101104416	-2.3201120345	 2.485913314	 0.092703
H	-1.9875281185	-1.0288176158	 0.7014700653	 0.091438
H	 0.12395772	-0.4733178551	-0.8522559491	 0.099853
215.6845	292.9794	349.3288	392.8869	458.2442	466.1738	529.9637	564.1611	663.4566	734.0759	748.9307	812.9358	857.0172	861.5782	920.9276	944.4333	948.525	956.7307	981.6854	989.8309	1030.9322	1053.11	1081.2749	1113.5953	1119.2098	1149.7194	1155.0146	1166.018	1186.3018	1225.6969	1237.0994	1271.2836	1305.9866	1317.8785	1336.1697	1375.8134	1395.7226	1476.9791	1509.3469	1518.7991	1662.1385	3003.5536	3024.0256	3055.1199	3061.8671	3099.1112	3116.3596	3120.4722	3126.452	3163.4725	3186.2614
C1OC23CC(C2)C=CC13	C1O[C@@]23C[C@@H](C2)C=C[C@@H]13	
InChI=1S/C8H10O/c1-2-7-5-9-8(7)3-6(1)4-8/h1-2,6-7H,3-5H2	InChI=1S/C8H10O/c1-2-7-5-9-8(7)3-6(1)4-8/h1-2,6-7H,3-5H2/t6-,7-,8-/m0/s1
