18
gdb 7794	3.12418	1.91714	1.26468	3.0737	69.89	-0.2285	0.0215	0.25	971.6664	0.155798	-381.132321	-381.124607	-381.123663	-381.164413	29.182	
C	 0.0411077692	 1.5187723478	 0.088695073	-0.396886
C	-0.010118209	 0.0084845496	-0.0719209724	 0.12638
C	 0.7734107496	-0.512423485	-1.2751880517	-0.177221
N	 0.8619552932	-1.9692026738	-1.300388266	-0.293936
C	 1.4568375906	-2.4569527778	-0.0567735414	-0.241804
C	 0.8849185983	-1.8600281533	 1.2160067461	 0.369079
N	 0.8711981448	-2.5190511336	 2.2964558697	-0.503071
O	 0.4867400385	-0.553969924	 1.1652250417	-0.263992
H	 1.0767258339	 1.8592175411	 0.1848832271	 0.128059
H	-0.4085615986	 2.0096315755	-0.7798119102	 0.120048
H	-0.5058312631	 1.8272148112	 0.9832090843	 0.131734
H	-1.0576740831	-0.3170375861	-0.1737570688	 0.077796
H	 0.3011846746	-0.1573969052	-2.1973689638	 0.108569
H	 1.7943415943	-0.1075897312	-1.251161311	 0.111355
H	-0.0696437126	-2.361991859	-1.4066174171	 0.220288
H	 1.3758871726	-3.5427833857	 0.0063441672	 0.137007
H	 2.5287286109	-2.213655012	-0.0782606131	 0.131477
H	 0.4972517561	-1.9405065585	 3.0529203364	 0.215117
91.3254	113.4936	222.1006	274.8456	292.7707	428.4025	432.1274	445.5312	522.5828	527.9688	657.906	788.1145	837.9959	874.5682	919.1077	921.1299	955.2132	977.6828	1017.5779	1095.3907	1133.2041	1148.6869	1152.794	1165.8727	1230.903	1313.8451	1336.0506	1341.8639	1355.7453	1392.3731	1405.7361	1410.0071	1461.5607	1474.4984	1484.5815	1487.0208	1499.9518	1747.8515	2976.3454	3013.7831	3021.2505	3043.4687	3078.6236	3116.9184	3124.8699	3127.5771	3449.2713	3497.1213
CC1CNCC(=N)O1	C[C@H]1CNC[C]([NH])O1	
InChI=1S/C5H10N2O/c1-4-2-7-3-5(6)8-4/h4,6-7H,2-3H2,1H3	InChI=1S/C5H10N2O/c1-4-2-7-3-5(6)8-4/h4,6-7H,2-3H2,1H3/t4-/m0/s1
