25
gdb 110857	2.10812	1.24354	1.08378	0.229	93.49	-0.2374	0.0849	0.3223	1358.725	0.228264	-352.340486	-352.33028	-352.329336	-352.375112	39.028	
C	 0.0048601272	 1.6645518677	-0.5858614703	-0.376114
C	 0.1093222809	 0.1945632779	-0.1593032842	-0.214049
C	-1.2463853299	-0.4906631542	-0.1635722473	-0.024536
C	-1.8892263006	-1.1660591762	-1.3478555194	-0.120245
C	-0.870776307	-2.0047503937	-2.1323180389	-0.264235
C	-0.6309775781	-2.8775112469	-0.8545880536	-0.002573
C	 0.7764821283	-3.183782241	-0.3498654613	-0.421146
C	-1.5840484725	-1.9600166379	-0.0607384015	 0.296363
C	-2.5195104782	-2.4843342789	 0.9950380527	-0.495432
H	 0.9841529196	 2.1533943712	-0.5753159277	 0.107571
H	-0.4045887695	 1.7509344085	-1.5979757467	 0.118685
H	-0.6550012946	 2.2257496522	 0.085398405	 0.111375
H	 0.8087829767	-0.3185091915	-0.8245992681	 0.101651
H	 0.5457792674	 0.1351773102	 0.846459052	 0.093018
H	-1.9823999228	 0.0909026323	 0.3944242946	 0.072967
H	-2.8534310698	-0.8520637228	-1.7326746293	 0.075419
H	-1.3120824772	-2.5722579969	-2.9545217931	 0.096826
H	-0.0029244797	-1.4630241455	-2.5239829341	 0.093291
H	-1.1507459303	-3.8319771559	-1.0026504897	 0.069357
H	 1.372986632	-2.2821570887	-0.1925253993	 0.11834
H	 0.7373113967	-3.7237235092	 0.6032664425	 0.111723
H	 1.3141559119	-3.8189314079	-1.0633248566	 0.110101
H	-1.9830827179	-2.7298782099	 1.9204959409	 0.116292
H	-3.2880653657	-1.7470782272	 1.2504556727	 0.114271
H	-3.028859847	-3.3959903457	 0.6597269405	 0.11108
76.3892	146.7306	171.0845	183.9246	189.3457	204.2128	241.498	266.6835	296.3897	375.2333	386.0774	511.325	549.2937	622.3169	702.6035	733.4186	816.2225	832.2857	861.2206	889.7495	926.5531	949.6208	980.3918	1004.8288	1014.0202	1063.3969	1077.6733	1094.5654	1121.5178	1129.3945	1132.3044	1173.966	1180.9456	1239.9874	1246.5225	1265.5622	1292.6879	1311.7855	1332.7014	1363.3147	1381.9271	1407.172	1411.1024	1414.8081	1473.1164	1483.717	1485.381	1496.58	1498.4569	1499.7603	1500.1855	1505.0929	1513.0849	3012.7338	3020.2525	3022.4332	3029.4788	3030.9879	3043.9367	3068.0755	3077.433	3085.1659	3087.468	3092.3914	3100.6456	3102.5318	3104.8908	3124.6729	3165.093
CCC1C2CC(C)C12C	CC[C@H]1[C@H]2C[C@@H](C)[C@@]12C	
InChI=1S/C9H16/c1-4-7-8-5-6(2)9(7,8)3/h6-8H,4-5H2,1-3H3	InChI=1S/C9H16/c1-4-7-8-5-6(2)9(7,8)3/h6-8H,4-5H2,1-3H3/t6-,7+,8-,9+/m1/s1
