20
gdb 52605	2.53631	1.03148	0.87575	3.8213	84.61	-0.2331	0.0364	0.2696	1434.9092	0.167534	-403.172827	-403.161476	-403.160531	-403.210668	39.812	
C	-0.3600063178	 1.1492302566	 0.5345272011	-0.502143
C	-0.1942958466	-0.2745209959	 0.2720308522	 0.06613
C	-0.062850948	-1.4511605044	 0.0417154008	 0.07848
C	 0.0837053436	-2.8759766092	-0.2689017339	-0.090993
C	-1.3022639473	-3.5007235095	-0.5634627594	-0.400657
C	 1.0092916898	-3.0595142736	-1.4967326955	-0.400657
C	 0.7111683618	-3.6939305194	 0.8986373873	 0.454975
N	 1.0297849881	-2.9988457575	 2.0172720163	-0.552249
O	 0.8925853432	-4.8914530964	 0.7812679164	-0.385981
H	 0.6005137698	 1.6327761877	 0.7439704974	 0.148975
H	-0.8040471156	 1.6584560805	-0.3278802801	 0.153796
H	-1.0158920101	 1.3247298316	 1.3943503803	 0.148985
H	-1.7446470543	-3.0338901443	-1.4474998362	 0.116686
H	-1.1821894093	-4.5719255918	-0.7379801878	 0.142043
H	-1.9843092603	-3.3564209684	 0.2789755902	 0.120805
H	 1.9857351962	-2.5986523277	-1.323896872	 0.120806
H	 1.1525957282	-4.1262841641	-1.6806193537	 0.142047
H	 0.5608220712	-2.5938535899	-2.3783176548	 0.116681
H	 0.8645649793	-2.008515879	 2.0764165622	 0.263958
H	 1.4372440479	-3.496467445	 2.7912440192	 0.258312
25.2469	33.7315	96.0857	114.5348	217.2362	254.9333	259.4168	261.05	276.3103	311.0904	313.4901	328.2494	419.7558	467.6362	537.7031	571.5478	623.02	668.7131	775.1877	796.704	927.639	951.0455	1034.8403	1051.7913	1055.5459	1073.6493	1104.4406	1145.1175	1196.3067	1277.7228	1343.8164	1384.8567	1409.9185	1415.3635	1478.7595	1478.9137	1479.6432	1487.2294	1497.0383	1509.3486	1599.0822	1790.011	2355.2557	3027.0284	3044.7375	3047.5496	3087.6988	3088.7275	3118.1259	3120.6386	3137.2449	3140.9761	3594.267	3733.1066
CC#CC(C)(C)C(N)=O	CC#CC(C)(C)C(=O)N	
InChI=1S/C7H11NO/c1-4-5-7(2,3)6(8)9/h1-3H3,(H2,8,9)	InChI=1S/C7H11NO/c1-4-5-7(2,3)6(8)9/h1-3H3,(H2,8,9)
