19
gdb 85415	2.26909	1.52618	1.2494	4.645	71.32	-0.2592	0.0175	0.2767	1099.9489	0.157548	-460.220156	-460.211019	-460.210075	-460.253603	34.733	
C	-0.3051091671	 1.6558696149	 0.1907765512	-0.417675
C	 0.078684187	 0.1853448981	 0.092813709	 0.347703
C	-1.1327020766	-0.6925858062	-0.232774936	-0.422386
O	 1.0311524602	 0.059809116	-1.0034933672	-0.250428
C	 2.0297705418	-0.810870637	-0.7156605959	 0.433629
O	 2.9035340346	-1.0758512505	-1.4888455493	-0.341344
C	 1.8142346028	-1.3601264148	 0.6914713075	-0.398528
C	 0.8507547733	-0.3562948297	 1.3275889749	 0.085384
O	 1.5437200424	 0.7230560333	 1.9318572295	-0.436186
H	 0.5782992866	 2.2725122029	 0.3524260494	 0.147524
H	-0.7988497631	 1.9702074839	-0.7327134882	 0.122982
H	-0.9946586256	 1.8132229996	 1.0250888883	 0.118745
H	-1.5468824858	-0.4051075485	-1.2024202653	 0.137768
H	-0.8656745964	-1.7527550469	-0.2808875738	 0.118863
H	-1.9103049771	-0.5696081124	 0.5270533514	 0.123223
H	 1.3778017989	-2.3613366243	 0.6105050788	 0.138219
H	 2.7646103415	-1.455526799	 1.2199611999	 0.1293
H	 0.1553042112	-0.8204840498	 2.0395328301	 0.073893
H	 2.1003397114	 0.3687258303	 2.6320714659	 0.289313
100.9374	107.9264	198.6358	231.4275	263.3166	273.356	333.2276	347.8182	364.2422	412.1579	501.0578	535.7884	566.6263	604.9054	692.3016	796.1405	874.413	890.1108	933.7563	943.9479	976.776	1010.7237	1019.299	1091.2145	1140.6163	1170.8377	1178.3097	1236.3896	1255.2044	1282.6342	1295.1545	1352.9264	1400.1339	1411.0665	1425.3714	1456.6741	1475.4543	1481.0215	1496.7223	1504.7479	1881.9278	3011.0735	3041.7332	3054.6442	3065.3272	3111.8877	3120.0929	3122.4783	3127.644	3160.56	3824.8477
CC1(C)OC(=O)CC1O	CC1(C)OC(=O)C[C@H]1O	
InChI=1S/C6H10O3/c1-6(2)4(7)3-5(8)9-6/h4,7H,3H2,1-2H3	InChI=1S/C6H10O3/c1-6(2)4(7)3-5(8)9-6/h4,7H,3H2,1-2H3/t4-/m1/s1
