19
gdb 91496	2.62279	1.82883	1.49073	2.3311	75.22	-0.2335	0.0439	0.2773	963.1439	0.159938	-422.907218	-422.899994	-422.89905	-422.938387	29.868	
C	 0.0483166035	 1.5335287372	 0.0831982632	-0.417964
C	 0.1169613681	 0.0159671832	 0.0666348586	 0.144808
O	 0.9449113927	-0.4646942739	-1.0268326313	-0.276609
C	 1.8215778472	-1.330363539	-0.35314281	 0.029058
C	 2.3284832286	-0.4435123605	 0.901076641	-0.348526
C	 0.8142985328	-0.6529604749	 1.2845672113	 0.155408
C	-0.24855684	-1.327955791	 2.1969916666	-0.196695
O	-0.3661039522	-2.4123414068	 1.1959176578	-0.317519
C	 1.0031266744	-2.0499360248	 0.7884221585	 0.129215
H	 1.0243255043	 1.9913384849	 0.2632474079	 0.118535
H	-0.3261555181	 1.9001296137	-0.8770611755	 0.130049
H	-0.6414785931	 1.869635697	 0.8650347742	 0.115445
H	-0.8870314602	-0.3978990889	-0.0697749359	 0.096467
H	 2.4963632501	-1.8253476456	-1.0520922777	 0.090495
H	 3.0358244074	-0.9442212917	 1.5600162214	 0.117128
H	 2.6787734245	 0.554026883	 0.6322875623	 0.115826
H	 0.1331122612	-1.7195843726	 3.146109337	 0.113763
H	-1.2017983313	-0.813381069	 2.3462624564	 0.11726
H	 1.69294845	-2.6529669805	 1.3897572041	 0.083858
186.9955	203.3862	251.896	286.0538	347.2307	415.5641	485.107	537.8738	601.7622	632.9864	743.0917	771.2629	811.8753	828.1123	858.1314	886.1834	921.778	965.8267	981.8635	991.8421	1015.054	1065.9105	1080.7096	1098.6761	1121.806	1135.761	1142.6442	1178.353	1194.4709	1210.3344	1243.8581	1283.6874	1308.1126	1360.5635	1379.5338	1399.9289	1408.7846	1481.0654	1490.0284	1499.628	1508.5169	3030.0452	3038.9645	3040.8919	3059.1266	3091.4613	3103.6575	3108.591	3124.6362	3125.7734	3165.4441
CC1OC2CC11COC21	C[C@H]1O[C@H]2C[C@]31CO[C@@H]23	
InChI=1S/C7H10O2/c1-4-7-2-5(9-4)6(7)8-3-7/h4-6H,2-3H2,1H3	InChI=1S/C7H10O2/c1-4-7-2-5(9-4)6(7)8-3-7/h4-6H,2-3H2,1H3/t4-,5+,6+,7-/m1/s1
