25
gdb 57450	2.74844	1.21055	1.12166	0.2665	91.58	-0.2458	0.075	0.3208	1279.8497	0.228401	-352.333419	-352.323762	-352.322818	-352.367127	38.68	
C	 0.438290685	 1.3810774956	 0.6775824252	-0.413955
C	 0.0126059023	-0.0017390995	 0.1514937415	 0.239131
C	 0.2248992699	-1.041578638	 1.2685549282	-0.404333
C	-1.4814365703	 0.0453286464	-0.2233895094	-0.401808
C	 0.8042352433	-0.4629770659	-1.0923384724	 0.059313
C	 0.8594311438	 0.3672032472	-2.4251113543	-0.287134
C	 2.3730855947	 0.1170150907	-2.4893186104	-0.040103
C	 3.0458380831	 0.7481342497	-1.3098302132	-0.270972
C	 2.3393399397	-0.5714466099	-1.119494641	-0.091449
H	 1.4750714734	 1.3796992637	 1.0248985145	 0.118241
H	 0.3338892858	 2.1594793095	-0.0851698254	 0.108113
H	-0.1925405887	 1.670380292	 1.5256924204	 0.103393
H	-0.3412957812	-0.7739160381	 2.1675104336	 0.105125
H	-0.1038078644	-2.0379677509	 0.9520693743	 0.104182
H	 1.2817137025	-1.1099000709	 1.5481083251	 0.113759
H	-1.6707448937	 0.7775024068	-1.0157561584	 0.111664
H	-1.8327478361	-0.9301540587	-0.5781189649	 0.10483
H	-2.0934425981	 0.3255330468	 0.6410377148	 0.105249
H	 0.410367068	-1.4527054495	-1.3547281792	 0.068402
H	 0.2888897739	-0.0943452203	-3.2335758587	 0.099942
H	 0.5727266964	 1.4222772527	-2.3633746475	 0.095034
H	 2.9198768126	-0.1753439498	-3.3772206168	 0.082018
H	 4.129251306	 0.6751249164	-1.2995059676	 0.106122
H	 2.6660487238	 1.6732762911	-0.8885625128	 0.105626
H	 2.8932423085	-1.4462443872	-0.7982104354	 0.07961
67.9435	173.9067	188.1864	234.0261	264.125	281.5195	306.0366	324.541	339.869	386.8953	398.9471	462.643	547.8874	650.6268	749.2683	777.8111	800.4122	843.5374	910.2569	933.9548	939.3325	949.1122	954.4976	957.4793	1008.4157	1022.9732	1027.5923	1054.9515	1062.6502	1068.9908	1090.1936	1098.9955	1142.5398	1201.1129	1226.3515	1237.8922	1248.3536	1273.2213	1285.846	1305.1633	1370.0254	1376.399	1397.5377	1398.888	1431.9344	1480.6866	1484.0974	1487.2893	1489.6135	1502.303	1506.4095	1510.3566	1520.9523	3016.9249	3020.6772	3024.4081	3033.1167	3046.3377	3087.531	3088.396	3093.3421	3093.7184	3097.0053	3105.6265	3112.5098	3124.2381	3168.0394	3185.269	3204.9384
CC(C)(C)C1CC2CC12	CC(C)(C)[C@H]1C[C@H]2C[C@@H]12	
InChI=1S/C9H16/c1-9(2,3)8-5-6-4-7(6)8/h6-8H,4-5H2,1-3H3	InChI=1S/C9H16/c1-9(2,3)8-5-6-4-7(6)8/h6-8H,4-5H2,1-3H3/t6-,7-,8+/m1/s1
