18
gdb 13028	2.55454	2.44069	1.58753	1.6516	66.8	-0.247	0.0699	0.317	859.3798	0.154456	-384.934796	-384.927196	-384.926252	-384.966108	30.118	
O	-0.076391596	 1.4441917642	 0.0059203874	-0.448966
C	-0.0064850396	 0.0222047033	 0.0130093957	 0.061579
C	 0.6758335006	-0.5869362983	 1.2576061819	-0.274136
C	-0.0048458402	-1.9622708083	 1.45440043	-0.218834
C	-1.4088726407	-1.7758504032	 0.8897819983	-0.081168
C	-2.168955414	-0.531955099	 1.3162285831	-0.349865
C	-1.4070907469	-0.5570638986	 0.0135931549	 0.430296
O	-2.1009743791	-0.5489414117	-1.1951697133	-0.482882
H	 0.8083357409	 1.788110799	-0.1506969802	 0.282878
H	 0.4852014311	-0.3340231977	-0.9060599454	 0.070252
H	 1.7610613942	-0.6659172101	 1.1465863454	 0.09222
H	 0.4850537662	 0.0739215848	 2.109130675	 0.112941
H	 0.5182073213	-2.7352615653	 0.8792765968	 0.102608
H	 0.0015173109	-2.2817590313	 2.5021650814	 0.099889
H	-1.9898610379	-2.646238927	 0.606838025	 0.09087
H	-3.2470388729	-0.582086991	 1.2131800444	 0.112569
H	-1.8191485825	 0.0677948937	 2.1496758344	 0.112955
H	-2.2931667654	 0.3735621164	-1.3998108349	 0.286794
130.6538	224.7043	237.0436	275.4554	315.5349	362.6242	402.3457	451.0253	529.1293	566.9523	627.5819	695.3123	817.7341	841.2762	898.6034	941.4385	943.0002	971.4611	974.8188	1036.7731	1067.7021	1078.6392	1087.6934	1112.5411	1180.3252	1199.7517	1220.9715	1267.9586	1276.6655	1301.5098	1334.2533	1341.6315	1357.2087	1413.082	1441.1046	1488.8921	1492.9871	1513.2962	2977.6167	3033.4625	3052.7472	3069.7613	3098.0153	3133.2112	3177.453	3222.4512	3791.4975	3822.4516
OC1CCC2CC12O	O[C@H]1CC[C@H]2C[C@@]12O	
InChI=1S/C6H10O2/c7-5-2-1-4-3-6(4,5)8/h4-5,7-8H,1-3H2	InChI=1S/C6H10O2/c7-5-2-1-4-3-6(4,5)8/h4-5,7-8H,1-3H2/t4-,5-,6-/m0/s1
