17
gdb 65409	4.06659	0.98707	0.92296	4.7867	79.54	-0.258	0.0126	0.2705	1276.9243	0.133408	-380.813663	-380.804252	-380.803308	-380.847796	34.364	
C	 0.8287285396	 1.1804771737	-0.0046479853	-0.4778
C	 0.0917192908	-0.143034142	 0.1187625814	 0.146084
C	 0.8219402797	-1.4072806001	 0.4767126632	-0.272672
N	-0.1282071282	-0.8256180733	 1.4041609594	-0.109269
C	 0.3019007541	-0.2193580309	 2.6748634069	-0.288792
C	 1.7356871239	-0.0109643011	 2.888022265	 0.2961
C	 2.9164806869	 0.1208352347	 3.0755633568	-0.452582
C	-1.0523899294	-0.2492748999	-0.7727916233	 0.276082
N	-1.9449180636	-0.3122150125	-1.5047539913	-0.339476
H	 1.710399397	 1.2016159266	 0.63588354	 0.149961
H	 1.1440634981	 1.3335838156	-1.0406912374	 0.145465
H	 0.1736274394	 2.0134861606	 0.2691570125	 0.139909
H	 0.529584985	-2.3546779931	 0.0332737712	 0.136463
H	 1.8833875203	-1.2928465281	 0.6865183374	 0.135152
H	-0.2368075532	 0.7276820877	 2.7923363859	 0.14967
H	-0.0685491701	-0.8806472015	 3.467338311	 0.15598
H	 3.9562957497	 0.2504705835	 3.2513591168	 0.209724
70.1919	105.3451	166.733	177.1201	201.7517	243.3622	322.8627	328.6984	395.4618	398.0497	542.1134	572.0673	624.1105	632.8624	669.6545	676.7319	762.6486	866.5609	919.1724	945.2499	987.7672	998.9801	1095.0296	1107.6846	1141.5397	1168.6001	1249.0744	1291.1742	1343.4312	1374.7127	1418.9273	1466.2302	1491.3685	1498.6252	1502.9499	2226.5355	2356.2917	3034.58	3049.7259	3068.3052	3103.1639	3111.7829	3156.1626	3196.3191	3499.6333
CC1(CN1CC#C)C#N	C[C@]1(CN1CC#C)C#N	
InChI=1S/C7H8N2/c1-3-4-9-6-7(9,2)5-8/h1H,4,6H2,2H3	InChI=1S/C7H8N2/c1-3-4-9-6-7(9,2)5-8/h1H,4,6H2,2H3/t7-,9?/m1/s1
