19
gdb 38859	2.72687	1.98488	1.87217	1.2699	73.02	-0.2356	0.0802	0.3159	864.8454	0.163784	-423.021328	-423.015113	-423.014169	-423.051512	26.787	
C	-0.0714968775	 1.4997096992	 0.057938447	-0.243899
C	 1.4810287392	 1.4879835633	-0.0333833682	-0.081093
C	 2.0633915389	 1.1586207151	 1.3574222343	-0.226226
C	 1.697596301	-0.3115834677	 1.6388604296	 0.058617
C	 2.5319110178	-1.2205633508	 0.739188984	-0.058322
O	 2.338296912	-0.8498705811	-0.6295694078	-0.281946
C	 1.3358802691	 0.1203483456	-0.7790059578	 0.129927
C	 0.0108716931	-0.0453981369	 0.0254528803	 0.075981
O	 0.3180419511	-0.5493148967	 1.3286766746	-0.286972
H	-0.5232599536	 1.9371226342	 0.9509368852	 0.102099
H	-0.5434681619	 1.9090991229	-0.8395631328	 0.098995
H	 1.9902617635	 2.3149944578	-0.5313186046	 0.065372
H	 3.1528232535	 1.2709437928	 1.3714428271	 0.103399
H	 1.6504941546	 1.8258710236	 2.1209906766	 0.102163
H	 1.8313988932	-0.5857879156	 2.6881717895	 0.08135
H	 3.601536395	-1.1409485907	 0.9751084618	 0.095575
H	 2.219396848	-2.2633919237	 0.8800414999	 0.101923
H	 1.158498859	 0.2396420195	-1.8490186953	 0.087252
H	-0.816287116	-0.6378265108	-0.3703066234	 0.075805
203.3663	303.4777	364.1142	410.3643	443.3485	517.9427	568.7207	645.7405	738.3732	791.476	827.9685	838.9034	869.3627	876.6563	919.6675	936.286	956.3867	998.0486	1007.2742	1057.0039	1068.5998	1076.5378	1108.9828	1125.56	1153.9063	1173.8577	1209.379	1220.518	1241.0793	1249.0406	1283.8528	1293.9353	1328.1112	1343.1536	1359.1045	1370.4444	1390.089	1417.7298	1475.1824	1492.3401	1514.9583	3005.2123	3038.7418	3044.9642	3058.1477	3081.0902	3086.083	3089.7454	3090.7828	3106.7226	3120.6066
C1C2CC3COC2C1O3	C1[C@H]2C[C@@H]3CO[C@H]2[C@H]1O3	
InChI=1S/C7H10O2/c1-4-2-6-7(4)8-3-5(1)9-6/h4-7H,1-3H2	InChI=1S/C7H10O2/c1-4-2-6-7(4)8-3-5(1)9-6/h4-7H,1-3H2/t4-,5-,6+,7-/m1/s1
