14
gdb 12047	4.00495	1.74507	1.55368	2.8701	63.06	-0.2514	0.0212	0.2726	833.7265	0.104564	-382.451861	-382.444417	-382.443472	-382.483251	28.25	
O	-0.0939920188	 1.4266906156	-0.0492723379	-0.458227
C	-0.0091676461	 0.0238017798	 0.0178224441	 0.236092
C	 0.261516296	-0.6406337371	 1.4419675861	-0.329126
C	-1.1074309823	-1.3146763735	 1.3183661911	 0.055064
O	-2.0708952993	-0.2617436439	 1.2160948445	-0.239071
C	-1.3943530507	-0.6629565802	 0.0306848026	-0.009897
C	 0.8630251232	-0.5251088803	-1.0149560398	 0.275061
C	 1.5942912041	-0.9472371607	-1.8713664059	-0.482687
H	 0.7879977945	 1.7712019852	-0.2259889545	 0.287217
H	 1.1150643829	-1.3197449487	 1.4356184591	 0.119513
H	 0.3376079746	 0.0783314528	 2.259790335	 0.120559
H	-1.4424303349	-2.2697263395	 1.7029419917	 0.109135
H	-1.9881827087	-0.9615316408	-0.8249276178	 0.112128
H	 2.2354194254	-1.3241487789	-2.6299290383	 0.204238
123.4077	161.4336	203.5171	243.86	332.2041	420.3863	476.7429	536.0594	541.7877	629.0646	669.1457	674.6769	798.4968	828.8903	865.2362	908.6906	948.8777	961.0622	1018.125	1050.2073	1087.5398	1118.8817	1211.8712	1226.7111	1230.1643	1257.3154	1367.8168	1382.6799	1458.8175	2229.0191	3078.5131	3147.8017	3190.5307	3207.0207	3498.4982	3813.3185
OC1(CC2OC12)C#C	O[C@]1(C[C@H]2O[C@@H]12)C#C	
InChI=1S/C6H6O2/c1-2-6(7)3-4-5(6)8-4/h1,4-5,7H,3H2	InChI=1S/C6H6O2/c1-2-6(7)3-4-5(6)8-4/h1,4-5,7H,3H2/t4-,5-,6+/m1/s1
