18
gdb 124527	3.49191	1.17131	1.08417	1.9898	80.27	-0.2329	-0.0697	0.1632	1198.2594	0.148194	-398.150087	-398.141614	-398.14067	-398.184023	31.025	
C	-0.0318073582	 1.5409883893	 0.0188459165	-0.391519
C	 0.0321948318	 0.0035003549	 0.0073479934	-0.039497
C	 0.7157399155	-0.5178553895	-1.2691188608	-0.391503
C	 0.7391477536	-0.5124304421	 1.2410818186	 0.389305
N	 0.0492894036	-1.2973553373	 2.0856253449	-0.279615
C	 0.7239033703	-1.7170771694	 3.1467569869	-0.009498
C	 2.0534723147	-1.3489825198	 3.3384108	 0.012482
N	 2.685896119	-0.5674889362	 2.4657187521	-0.167046
N	 2.0179459555	-0.1433110442	 1.4013868831	-0.221732
H	 0.9757569187	 1.9657968521	 0.0177718199	 0.141243
H	-0.562795065	 1.9028595581	-0.867016222	 0.114579
H	-0.5579986431	 1.9119804018	 0.9039795506	 0.116645
H	-0.9852529841	-0.3965230996	 0.0559047754	 0.094384
H	 1.7507401441	-0.1685272823	-1.3187527208	 0.141105
H	 0.7225441753	-1.6119222838	-1.2998463971	 0.116724
H	 0.184310333	-0.1576795703	-2.1554014087	 0.114662
H	 0.2014629249	-2.3554669225	 3.8561811342	 0.129211
H	 2.6295696604	-1.6775604892	 4.1972534138	 0.130069
28.9331	116.387	206.0971	229.4832	267.447	272.2205	308.8639	381.8843	480.9426	571.5143	601.7753	654.5033	798.9345	852.6482	891.4266	905.21	935.4557	970.4413	1011.039	1038.1714	1070.6384	1086.8342	1119.3679	1120.8482	1184.6241	1201.8369	1273.8742	1348.341	1364.337	1389.988	1392.2271	1417.1052	1459.0145	1486.6272	1492.4143	1500.8225	1516.7567	1565.737	1592.6998	3036.5432	3039.5525	3063.1669	3105.3671	3108.0491	3120.071	3126.043	3152.0524	3191.1291
CC(C)C1=NC=CN=N1	CC(C)c1nccnn1	
InChI=1S/C6H9N3/c1-5(2)6-7-3-4-8-9-6/h3-5H,1-2H3	InChI=1S/C6H9N3/c1-5(2)6-7-3-4-8-9-6/h3-5H,1-2H3
