20
gdb 6531	3.18143	1.52717	1.26236	2.7535	71.41	-0.2517	0.0698	0.3214	1045.5099	0.174193	-386.125075	-386.115443	-386.114499	-386.158498	36.147	
C	 0.0060782362	 1.5019991925	-0.1532110127	-0.445233
C	 0.0231520291	 0.00172403	 0.0435487314	 0.357599
O	-1.1572928921	-0.6167319067	-0.4168368753	-0.461131
C	 1.3086294	-0.7849600739	-0.0966322306	-0.407138
C	 0.6292880249	-0.6418599972	 1.2659428499	 0.269526
C	 1.2981241355	 0.2047359053	 2.3345086794	-0.464437
C	-0.0354925897	-1.8912825011	 1.8252348213	-0.120755
O	 0.8986228379	-2.7476172991	 2.4756905305	-0.4214
H	 0.9198155913	 1.9789848212	 0.206687041	 0.119888
H	-0.0901406739	 1.7401187989	-1.2200882597	 0.10667
H	-0.8479093507	 1.9472368325	 0.3672231299	 0.127615
H	-1.1826110038	-0.5195704927	-1.3753015609	 0.280002
H	 1.2365317747	-1.7449973678	-0.5995604302	 0.103771
H	 2.2359463645	-0.2481199526	-0.2718399649	 0.106109
H	 1.9520860066	 0.973682213	 1.9164801729	 0.108763
H	 0.5542462181	 0.7020964093	 2.9680724563	 0.116492
H	 1.9029368956	-0.4414306415	 2.9771552299	 0.133199
H	-0.760568652	-1.6151501606	 2.5990584392	 0.107326
H	-0.5810006327	-2.4166580201	 1.0343865812	 0.103951
H	 1.5541725903	-3.0020965296	 1.8173667115	 0.279183
102.9304	151.9323	173.7912	204.8305	216.6855	277.0005	292.7547	314.1833	332.7523	389.3068	400.6113	425.6478	472.537	569.9787	695.237	739.7823	884.6476	911.9163	934.8137	958.027	962.5215	1013.0754	1037.7678	1054.9166	1083.2229	1106.2249	1155.3865	1213.7959	1234.9207	1301.328	1311.9823	1372.7586	1404.7829	1408.9277	1415.7541	1424.2114	1479.7911	1480.7639	1492.1864	1499.9312	1510.5087	1517.2616	3025.8552	3032.2392	3039.1652	3081.4905	3088.5624	3098.1299	3115.3034	3118.1856	3131.4202	3204.2418	3791.6055	3804.2661
CC1(O)CC1(C)CO	C[C@@]1(O)C[C@]1(C)CO	
InChI=1S/C6H12O2/c1-5(4-7)3-6(5,2)8/h7-8H,3-4H2,1-2H3	InChI=1S/C6H12O2/c1-5(4-7)3-6(5,2)8/h7-8H,3-4H2,1-2H3/t5-,6-/m1/s1
