15
gdb 97787	3.16816	0.76946	0.65014	1.2696	77.5	-0.2559	-0.0043	0.2515	1654.7971	0.109137	-420.521499	-420.511941	-420.510997	-420.557831	33.143	
O	 0.0584718737	 1.5289451581	-0.1838493557	-0.39881
C	 0.0482685822	 0.1533799116	 0.1658442591	-0.200382
C	-1.2893007536	-0.4373662168	 0.1773977944	 0.169326
C	-2.3972483405	-0.909092238	 0.1340494975	 0.041083
C	-3.7290889354	-1.4409408094	 0.1266753859	-0.179473
O	-4.222929698	-2.0163594958	-1.0905162686	-0.226974
C	-4.003302262	-2.9021838448	 0.0107092994	-0.15595
C	-2.9531320801	-3.8750413173	-0.1028553782	 0.344856
C	-2.1007259657	-4.7188415126	-0.1734788554	-0.40688
H	-0.4015677874	 1.6175449087	-1.0253078806	 0.290833
H	 0.6949378972	-0.4395720089	-0.5003143845	 0.12616
H	 0.4895907852	 0.0958964724	 1.1670475693	 0.145554
H	-4.4721570107	-0.8529087461	 0.6655349042	 0.122247
H	-4.9195045773	-3.2628299725	 0.4786942989	 0.123203
H	-1.3408654677	-5.4577462387	-0.2434321358	 0.205206
21.9782	59.3368	108.8492	144.6171	207.7202	231.4926	286.2485	352.3232	420.2358	475.001	533.681	592.9303	611.8978	635.6201	672.8152	745.5539	835.8439	872.2055	971.2075	985.7103	1046.3563	1075.437	1117.2001	1172.5631	1214.9352	1273.5513	1360.5698	1373.8593	1414.217	1418.6474	1487.1302	2244.1768	2359.8302	2981.5836	3065.0792	3104.0708	3114.1536	3502.5707	3814.4604
OCC#CC1OC1C#C	OCC#C[C@H]1O[C@H]1C#C	
InChI=1S/C7H6O2/c1-2-6-7(9-6)4-3-5-8/h1,6-8H,5H2	InChI=1S/C7H6O2/c1-2-6-7(9-6)4-3-5-8/h1,6-8H,5H2/t6-,7+/m0/s1
