20
gdb 38187	4.20136	1.05692	0.9461	1.7997	78.99	-0.2223	0.0796	0.3019	1286.4647	0.172461	-403.077029	-403.069013	-403.068069	-403.110472	30.454	
C	-0.0019149308	 1.3564423649	-0.2618074331	-0.05881
C	 1.4575269836	 1.5190910389	 0.2053742126	-0.299474
C	 1.2782156621	 0.0950875032	 0.7823986976	 0.149086
O	-0.0403515	-0.0156109086	 0.1776478231	-0.301618
C	 2.2097983106	-0.9935207107	 0.3040933164	 0.007447
C	 3.6763545645	-1.0383264998	 0.8811813441	-0.258395
C	 3.3884841473	-2.4563341157	 1.3872617856	-0.037514
N	 2.2500269756	-2.3260479858	 2.3280557868	-0.330516
C	 1.9955706247	-2.4092166061	 0.8680598964	-0.064836
H	-0.729530202	 1.9783069339	 0.2766744038	 0.097423
H	-0.1894904397	 1.4502299342	-1.3381964893	 0.099418
H	 2.187218154	 1.5822908408	-0.6055608431	 0.103902
H	 1.6531308707	 2.3138574142	 0.926498395	 0.107776
H	 1.2064326415	 0.0621060826	 1.8760795685	 0.092314
H	 2.2231370877	-1.0081767036	-0.7898473715	 0.072061
H	 4.431695328	-0.9946420171	 0.0942130501	 0.102855
H	 3.9179762663	-0.3125913603	 1.6625655257	 0.105437
H	 4.0790550789	-3.2868387933	 1.4668188766	 0.091465
H	 2.0669196324	-3.2526425215	 2.7119265609	 0.228164
H	 1.3676175445	-3.1913398503	 0.4606299238	 0.093813
66.0778	77.097	144.7714	165.3104	339.0749	382.9416	399.0678	549.703	693.6191	749.7365	802.0965	815.3303	834.8898	855.9187	913.0479	931.6324	942.3246	955.4708	969.3674	1002.2306	1018.4788	1030.1061	1041.5126	1085.1116	1099.0065	1115.3658	1146.9556	1165.9119	1186.4087	1210.8255	1231.8078	1251.181	1257.2461	1275.6233	1296.3906	1316.2911	1322.1918	1360.9105	1381.1571	1415.1072	1476.686	1492.8103	1532.2286	3006.6663	3037.9391	3047.801	3061.6036	3065.7739	3072.1184	3121.9888	3128.9724	3184.8597	3200.066	3474.7597
C1CC(O1)C1CC2NC12	C1C[C@@H](O1)[C@H]1C[C@H]2N[C@@H]12	
InChI=1S/C7H11NO/c1-2-9-6(1)4-3-5-7(4)8-5/h4-8H,1-3H2	InChI=1S/C7H11NO/c1-2-9-6(1)4-3-5-7(4)8-5/h4-8H,1-3H2/t4-,5-,6-,7+/m1/s1
