16
gdb 46014	4.97508	0.9941	0.847	2.0251	84.79	-0.2112	-0.0305	0.1808	1292.4637	0.125073	-400.775608	-400.767481	-400.766537	-400.808349	30.985	
O	 0.0206630892	-0.0913284509	 0.0543726361	-0.353904
C	-0.0325693711	 1.1191126343	 0.0503413826	 0.408352
C	-1.3191921867	 1.930258789	 0.0646952913	-0.328413
C	-1.1923947258	 3.27665123	 0.7935012892	-0.322662
C	 0.0656377046	 4.0111838611	 0.3626526766	 0.074119
C	 1.1367794086	 3.2820779978	-0.005467148	-0.046775
N	 1.1133621588	 1.8926644879	-0.0353153615	-0.329203
C	 0.1048247307	 5.4245144384	 0.4006593141	 0.221616
C	 0.0870708706	 6.6295678409	 0.4511933083	-0.42509
H	-1.5802855862	 2.1070097517	-0.9877973001	 0.137019
H	-2.1037942135	 1.3026932149	 0.4906042043	 0.135197
H	-2.0749020671	 3.8909583991	 0.5980898003	 0.125754
H	-1.1620081472	 3.1170685299	 1.8805418507	 0.126485
H	 2.0785787532	 3.7371793732	-0.2853003207	 0.125992
H	 1.9733363096	 1.3786986051	-0.1560456701	 0.259874
H	 0.0869131824	 7.6902794674	 0.4933037768	 0.191638
78.1082	135.749	166.5928	230.4039	393.9824	400.1734	450.0987	469.6208	525.2996	544.31	558.3596	581.6508	652.3223	654.4048	723.8623	780.0747	787.0575	900.2951	965.1337	1003.9442	1040.36	1135.7706	1173.484	1195.6656	1256.8378	1283.7135	1338.008	1373.9614	1375.0446	1458.9655	1467.0035	1484.471	1692.6142	1811.1417	2215.0002	3011.168	3029.2643	3093.056	3122.2118	3213.102	3504.1558	3624.4725
O=C1CCC(=CN1)C#C	O=C1CCC(=CN1)C#C	
InChI=1S/C7H7NO/c1-2-6-3-4-7(9)8-5-6/h1,5H,3-4H2,(H,8,9)	InChI=1S/C7H7NO/c1-2-6-3-4-7(9)8-5-6/h1,5H,3-4H2,(H,8,9)
