16
gdb 80593	2.97892	1.44441	1.18309	5.5319	65.29	-0.2226	-0.0076	0.215	1047.405	0.124002	-474.997809	-474.989733	-474.988788	-475.030885	30.654	
N	 0.0322188252	 1.2256824839	-0.7280847713	-0.5171
C	 0.0232010645	 0.2130065347	 0.1730447917	 0.426841
O	 0.9934181025	-0.0523854606	 0.8656920524	-0.371243
C	-1.30141869	-0.5475276448	 0.2755403211	 0.003231
O	-1.1236912516	-1.9724410205	 0.3637570528	-0.287175
C	-2.0009216628	-2.0387049418	 1.5016397654	 0.031984
C	-1.4125465407	-1.3294707728	 2.6733919223	 0.138004
O	-0.0883084883	-1.3146747269	 3.0413298519	-0.434577
C	-2.0911102712	-0.5035747067	 1.5893116579	-0.23327
H	 0.8727033056	 1.7720848107	-0.8295677078	 0.271818
H	-0.7295345487	 1.3875646863	-1.3627497305	 0.268881
H	-1.946035228	-0.3101653847	-0.5830426316	 0.079425
H	-2.7519570073	-2.8214958616	 1.498353438	 0.103012
H	-2.0578503571	-1.3971445749	 3.5484871978	 0.107791
H	 0.4505984321	-1.0372574904	 2.27588389	 0.311642
H	-2.9295951341	 0.1574246699	 1.7667856301	 0.100736
41.3274	174.1908	204.4359	262.8092	271.511	296.2672	397.2184	504.753	580.9029	589.8696	653.0492	659.3059	723.3671	734.6784	797.0064	835.7051	880.7584	930.876	1005.6104	1013.4614	1034.4958	1064.7681	1070.2745	1100.8475	1118.2854	1212.2059	1247.7574	1265.5645	1306.3234	1332.7038	1410.7653	1437.2731	1500.2132	1621.2424	1779.2585	2992.3289	3126.7814	3168.0298	3193.1644	3552.7399	3601.3109	3737.28
NC(=O)C1OC2C(O)C12	NC(=O)[C@H]1O[C@H]2[C@@H](O)[C@@H]12	
InChI=1S/C5H7NO3/c6-5(8)4-1-2(7)3(1)9-4/h1-4,7H,(H2,6,8)	InChI=1S/C5H7NO3/c6-5(8)4-1-2(7)3(1)9-4/h1-4,7H,(H2,6,8)/t1-,2+,3-,4+/m1/s1
