19
gdb 100907	2.39988	1.01969	0.75047	3.8054	72.14	-0.252	0.0277	0.2797	1474.5407	0.158057	-456.334942	-456.324257	-456.323313	-456.371136	37.564	
N	-0.040483686	 1.4685050681	 0.0063810818	-0.514213
C	 0.0350295357	 0.0054125097	-0.0324196653	-0.000097
C	 0.7378947405	-0.5208180539	-1.2977240501	-0.096057
O	 0.1345545496	 0.0148640612	-2.4680046391	-0.416361
C	 0.6965710292	-0.4985667384	 1.2748334965	-0.189164
C	-0.098548729	-0.063258103	 2.5329510342	-0.068878
O	 0.5128004204	-0.4808776352	 3.7341515519	-0.406439
C	 0.8615452591	-1.9547218621	 1.2642387074	 0.296485
N	 0.9728031287	-3.1047928991	 1.2367088715	-0.33401
H	 0.9056009059	 1.8484047918	 0.0068053305	 0.222539
H	-0.444254707	 1.7715833994	-0.8770217061	 0.241722
H	-0.998976909	-0.3692700156	-0.0455480199	 0.092715
H	 1.779085129	-0.1736010785	-1.3066824967	 0.106429
H	 0.7527830544	-1.6177237828	-1.3164635475	 0.123532
H	-0.6579460347	-0.498120788	-2.6553471892	 0.290035
H	 1.7029675704	-0.0575339026	 1.340428558	 0.109615
H	-0.2432884708	 1.0205913689	 2.4813029131	 0.127954
H	-1.0847310274	-0.537214026	 2.510335244	 0.126778
H	 1.282683081	 0.0735105759	 3.8953189752	 0.287416
54.9205	81.3922	118.3304	140.6067	172.6768	225.8071	261.4364	284.0874	301.0172	320.3525	342.8546	357.342	457.9677	488.17	568.4429	636.1931	835.4001	879.456	929.1906	987.4667	994.7296	1045.3573	1068.3868	1089.9296	1101.6376	1141.2198	1161.9339	1190.8422	1218.7082	1311.3089	1338.2131	1349.2726	1385.3034	1398.89	1401.8599	1408.087	1420.1805	1497.1278	1508.1213	1665.134	2356.5948	2993.8767	3008.3297	3019.6113	3049.6103	3069.0297	3102.4645	3458.7722	3540.7972	3819.6663	3821.0642
NC(CO)C(CO)C#N	N[C@@H](CO)[C@@H](CO)C#N	
InChI=1S/C5H10N2O2/c6-1-4(2-8)5(7)3-9/h4-5,8-9H,2-3,7H2	InChI=1S/C5H10N2O2/c6-1-4(2-8)5(7)3-9/h4-5,8-9H,2-3,7H2/t4-,5+/m1/s1
