19
gdb 127150	4.31268	0.94511	0.90725	3.4873	77.41	-0.235	0.0131	0.2481	1358.349	0.16135	-415.401623	-415.392898	-415.391954	-415.435546	31.763	
C	 0.370490159	 1.2899592479	-0.091353286	-0.326908
N	-0.0695813422	-0.0987318381	 0.0023624573	-0.076595
C	 0.5463570399	-0.7714813255	 1.1383482792	-0.316369
C	-1.5272401948	-0.2068361883	 0.0237701513	-0.266421
C	-2.1071323298	 0.0286182185	-1.3367079646	 0.364121
N	-3.301766605	 0.5088924621	-1.6379885979	-0.324313
C	-3.3139398228	 0.4541447186	-3.0002221541	 0.018012
N	-2.2115328352	-0.0178015141	-3.5587688401	-0.21401
N	-1.4515944526	-0.2903533829	-2.4709486949	-0.210489
H	 1.4579752474	 1.3237253664	-0.2060829587	 0.122319
H	-0.0806417164	 1.7692762836	-0.9641099862	 0.134605
H	 0.0999500428	 1.8824298685	 0.8018880705	 0.103276
H	 0.2690393365	-0.3243913195	 2.1107923712	 0.101143
H	 0.254511002	-1.8259281652	 1.1522448051	 0.122337
H	 1.6353243769	-0.7202410253	 1.0448604201	 0.123202
H	-1.7873521466	-1.2225807486	 0.3460630285	 0.126534
H	-2.0115187542	 0.4826038677	 0.7362730028	 0.117541
H	-4.1559330271	 0.7762441731	-3.5946417354	 0.123189
H	-0.5138429278	-0.6481420988	-2.554531528	 0.278826
65.8998	87.9752	128.4697	246.5734	254.0728	277.8759	342.9666	357.6741	381.9667	481.4188	612.1061	706.3609	716.7275	764.0411	860.3011	909.4051	981.4113	997.4394	1043.988	1061.4156	1065.9458	1121.5743	1123.9626	1173.0475	1199.6172	1209.1879	1267.2766	1293.4217	1302.9102	1310.8514	1372.3495	1433.5776	1445.1365	1469.9974	1482.5826	1487.2231	1495.2159	1500.4699	1506.274	1514.1859	1587.1144	2938.3364	2945.2594	2966.2543	3043.6919	3065.4644	3072.4285	3109.5425	3118.2831	3260.112	3664.9281
CN(C)CC1=NC=NN1	CN(C)Cc1ncn[nH]1	
InChI=1S/C5H10N4/c1-9(2)3-5-6-4-7-8-5/h4H,3H2,1-2H3,(H,6,7,8)	InChI=1S/C5H10N4/c1-9(2)3-5-6-4-7-8-5/h4H,3H2,1-2H3,(H,6,7,8)
