18
gdb 124583	4.19863	0.96861	0.90416	5.1354	73.2	-0.3153	-0.0428	0.2726	1334.5341	0.147353	-431.40824	-431.399418	-431.398474	-431.443057	31.133	
C	-0.0529875697	 1.5460467286	-0.0237044785	-0.394002
C	 0.0231564372	 0.0147097661	 0.0292002654	 0.016104
C	 0.8437002107	-0.4685775379	 1.2304350299	-0.390298
C	-1.4065406025	-0.5541599091	 0.0418116172	-0.145331
N	-1.4407797699	-2.0092145656	-0.0775359838	 0.159327
N	-1.2413613387	-2.6597463736	-1.2123826198	-0.122672
N	-1.3160255962	-3.9188797206	-0.9007718763	-0.083857
N	-1.5582778845	-4.0295027901	 0.418272054	-0.086557
N	-1.6361432168	-2.8400897706	 0.9349994751	-0.11789
H	 0.9511413875	 1.9769147741	-0.0678466307	 0.128289
H	-0.606395568	 1.8941602772	-0.9019527056	 0.12143
H	-0.5466797664	 1.9483134077	 0.8686143905	 0.122263
H	 0.499964139	-0.3421009194	-0.8922491921	 0.109133
H	 0.4051818988	-0.1164176923	 2.1712917146	 0.122262
H	 0.9007572443	-1.5594932039	 1.2773671596	 0.135245
H	 1.8657675129	-0.0829785723	 1.1728391827	 0.125155
H	-1.9204169165	-0.317302266	 0.976379071	 0.152372
H	-1.9891521213	-0.1576187026	-0.792844093	 0.149026
35.033	72.6319	106.5026	217.5395	240.7801	278.3394	317.8803	362.0714	413.259	430.9337	721.6704	766.1295	781.7798	823.5474	895.2584	934.724	954.2431	972.4542	985.879	1063.806	1109.9961	1146.1404	1146.7619	1193.5025	1204.6958	1253.3725	1291.52	1331.7784	1370.898	1382.6097	1398.9583	1404.6625	1421.7033	1429.3733	1474.7109	1486.3128	1494.1672	1505.8712	1508.7828	3030.0259	3032.9812	3038.8404	3078.4517	3096.6816	3105.0953	3113.6657	3119.0944	3135.5263
CC(C)CN1N=NN=N1	CC(C)Cn1nnnn1	
InChI=1S/C4H9N5/c1-4(2)3-9-7-5-6-8-9/h4H,3H2,1-2H3	InChI=1S/C4H9N5/c1-4(2)3-9-7-5-6-8-9/h4H,3H2,1-2H3
