20
gdb 74276	2.68409	1.32604	1.10606	3.1345	84.7	-0.2393	-0.0193	0.22	1213.3256	0.169543	-403.199174	-403.189752	-403.188808	-403.232905	35.619	
C	 0.0351734951	 1.5339174619	-0.0112636257	-0.486513
C	-0.0257257582	 0.0437279517	-0.0027026131	 0.282093
C	-1.0713186849	-0.7840376865	-0.0545195966	-0.258503
C	-0.6152932567	-2.221235225	-0.0175741809	 0.301942
C	-1.0999234002	-2.9672212453	 1.2309470088	-0.409208
C	-0.9584758433	-2.9874134355	-1.3002915542	-0.409209
O	 0.8295950753	-2.1031390124	 0.0622222438	-0.26873
C	 1.1948044022	-0.7850559812	 0.0721278786	 0.310363
N	 2.3837936237	-0.34993646	 0.1351295356	-0.551906
H	 0.6324741914	 1.8871703422	-0.8581849358	 0.147288
H	-0.9616626362	 1.9773268536	-0.0698806435	 0.118123
H	 0.5359079679	 1.9011825491	 0.8905183654	 0.147311
H	-2.1176351566	-0.5106099426	-0.1151723797	 0.108879
H	-2.1900160616	-3.0644410939	 1.2195521945	 0.117784
H	-0.6645683792	-3.9700794139	 1.2644345418	 0.128186
H	-0.8084321739	-2.4283617408	 2.1358281424	 0.128558
H	-0.5675077397	-2.4627542685	-2.1755191742	 0.128557
H	-0.5229936575	-3.9902909245	-1.2691155781	 0.128187
H	-2.04313793	-3.0854070319	-1.4088689313	 0.117784
H	 3.0485798525	-1.1236834365	 0.1784482822	 0.219014
105.7986	121.425	142.9398	213.1292	239.5311	259.9742	318.6976	333.2079	341.881	363.6857	513.7529	525.1022	585.2702	626.4086	743.0386	782.3845	858.4957	858.6636	882.6866	920.042	932.419	961.4246	1016.5513	1017.4314	1069.4057	1071.385	1141.6346	1199.6644	1208.2291	1241.1079	1317.9422	1383.0475	1393.9242	1412.8273	1417.0113	1471.3773	1476.1939	1481.2863	1484.3198	1495.6135	1503.9917	1715.7615	1751.4365	3039.0565	3041.2149	3043.8566	3097.6968	3111.8629	3118.1726	3125.5529	3125.7467	3127.644	3209.9664	3480.1127
CC1=CC(C)(C)OC1=N	CC1=C(OC([CH]1)(C)C)[NH]	
InChI=1S/C7H11NO/c1-5-4-7(2,3)9-6(5)8/h4,8H,1-3H3	InChI=1S/C7H11NO/c1-5-4-7(2,3)9-6(5)8/h4,8H,1-3H3
