20
gdb 68602	2.29623	1.86016	1.4737	2.4213	78.47	-0.2283	0.0636	0.2918	1000.2037	0.172029	-403.095784	-403.087929	-403.086985	-403.127591	31.698	
C	-0.0203077396	 1.5249553326	 0.0508217767	-0.514876
C	-0.0182465479	 0.0181097299	 0.0011067319	 0.177021
C	 0.3549173249	-0.821625909	-1.2739185765	-0.28255
C	-0.3502746625	-1.938444451	-0.4646828894	 0.025499
O	 0.514847373	-2.1253899917	 0.6688217361	-0.281673
C	 0.7873956963	-0.7594177504	 1.0577696234	-0.098465
C	-1.3071698994	-0.8460497019	 0.020489392	 0.400697
C	-2.5049902084	-0.837895205	 0.8672118304	-0.346411
N	-2.5844959326	-0.5342351807	-0.5923345316	-0.401004
H	 0.9875489229	 1.9265434015	-0.1000441172	 0.127943
H	-0.6616058738	 1.9496027295	-0.7294700006	 0.119253
H	-0.380015105	 1.8916119598	 1.0195313393	 0.121178
H	-0.2063383554	-0.5109645956	-2.1566701292	 0.111476
H	 1.4140647551	-0.9669174121	-1.5008590976	 0.096558
H	-0.6643686875	-2.8974683389	-0.8701617213	 0.086996
H	 1.8658707094	-0.5614724261	 1.0122517913	 0.095482
H	 0.4341197874	-0.5794043485	 2.0807015329	 0.097316
H	-2.9786055413	-1.7695408913	 1.1637143085	 0.126123
H	-2.6391260038	-0.0177933931	 1.5692753084	 0.110793
H	-2.681408172	 0.471528482	-0.7240325975	 0.228644
164.0679	189.7649	209.8101	239.4549	284.8214	342.5556	405.8729	443.9406	567.4615	608.4326	620.3733	684.3677	802.6955	860.8646	892.7381	917.3125	926.5517	939.0235	951.8282	975.1402	979.8614	1008.9043	1035.2821	1058.3203	1084.2589	1113.8384	1141.5397	1189.15	1202.1213	1214.8796	1227.6917	1253.1065	1261.1582	1266.0071	1307.5434	1379.8264	1415.7116	1436.8385	1483.8831	1492.7073	1494.3272	1519.0807	1529.7394	3011.2527	3024.1305	3051.9339	3066.8125	3087.2175	3093.2125	3103.2831	3138.347	3155.402	3188.6595	3468.9863
CC12CC(OC1)C21CN1	C[C@@]12C[C@@H](OC1)[C@]12CN1	
InChI=1S/C7H11NO/c1-6-2-5(9-4-6)7(6)3-8-7/h5,8H,2-4H2,1H3	InChI=1S/C7H11NO/c1-6-2-5(9-4-6)7(6)3-8-7/h5,8H,2-4H2,1H3/t5-,6-,7+/m1/s1
