18
gdb 7645	3.77418	1.54737	1.34104	4.008	68.26	-0.2447	-0.0281	0.2165	979.8286	0.152921	-384.952048	-384.943838	-384.942894	-384.985263	30.442	
C	 0.3456782683	 1.1602876839	 0.0371638642	-0.482862
C	-0.0487766656	-0.2813914129	-0.1906825969	 0.401699
O	 0.7733033981	-1.1144440086	-0.5273452976	-0.33063
C	-1.5052964406	-0.6477309955	 0.0162675669	-0.114846
C	-2.0957552982	-1.4768576393	-1.1757731385	-0.250609
C	-1.8844408449	-2.7898879185	-0.3619335219	 0.155708
O	-0.7697916068	-3.5488070273	-0.7397648867	-0.440336
C	-1.6874093445	-1.9184263926	 0.9158737449	-0.250599
H	 1.4124734367	 1.2976232229	-0.1419440672	 0.14443
H	-0.2326175341	 1.8144855068	-0.6259509186	 0.145778
H	 0.0968548377	 1.4574690276	 1.0627802227	 0.145774
H	-2.0825162467	 0.2295555421	 0.3141756962	 0.07091
H	-3.1490758566	-1.2391820481	-1.3437069597	 0.10314
H	-1.556626256	-1.4274592135	-2.1243711838	 0.113068
H	-2.7334993356	-3.4776686185	-0.3413635015	 0.080864
H	-0.0123355095	-2.9408456618	-0.759457595	 0.292303
H	-0.8403797232	-2.2019846603	 1.5444230502	 0.113066
H	-2.5879101085	-1.8459952765	 1.5307128323	 0.103143
33.5491	144.7398	159.7718	225.6575	245.5166	345.117	399.7725	407.9384	577.953	594.8193	643.0318	741.6574	755.7942	807.7283	854.1096	917.0224	944.4114	967.1584	980.089	1047.5091	1052.3208	1096.6502	1125.5756	1180.3499	1189.1364	1192.5425	1252.8406	1263.8832	1270.1059	1349.2318	1367.7019	1388.0801	1454.8936	1459.4005	1468.0237	1473.0655	1484.9187	1776.4453	3032.3954	3061.5479	3062.6239	3079.7656	3087.5114	3091.3403	3125.5432	3126.918	3153.5787	3664.6732
CC(=O)C1CC(O)C1	CC(=O)[C@H]1C[C@@H](O)C1	
InChI=1S/C6H10O2/c1-4(7)5-2-6(8)3-5/h5-6,8H,2-3H2,1H3	InChI=1S/C6H10O2/c1-4(7)5-2-6(8)3-5/h5-6,8H,2-3H2,1H3/t5-,6+
