23
gdb 103993	2.43992	1.31315	1.20714	1.7521	85.02	-0.2418	0.081	0.3228	1221.672	0.203559	-388.271427	-388.261582	-388.260638	-388.305356	37.964	
C	 0.0136289913	 1.501576852	 0.2141485176	-0.392778
C	-0.1152231327	 0.0104894338	-0.1175600764	-0.232375
C	 0.6998592808	-0.4529678544	-1.3298589053	 0.280277
C	 0.2560683103	 0.2038635165	-2.6374037646	-0.462358
C	 2.2741253961	-0.4287946366	-1.1691883356	-0.306667
C	 2.2735428174	-1.9485038534	-1.3412258938	-0.044009
O	 1.4572824131	-2.4861898858	-0.2880534077	-0.298578
C	 0.8079505455	-2.0032443869	-1.4749959559	 0.394144
C	-0.1121172573	-2.9395124585	-2.1907328433	-0.513789
H	 1.058922938	 1.7845752407	 0.3800021211	 0.116334
H	-0.3787139146	 2.1372787229	-0.5859894147	 0.11367
H	-0.5413896247	 1.7433969975	 1.1259252832	 0.113031
H	 0.2032875506	-0.5840177092	 0.7446818636	 0.113822
H	-1.1736482246	-0.2305705731	-0.2897508389	 0.0859
H	 0.4356136762	 1.2832190498	-2.6202948203	 0.120388
H	 0.8037887694	-0.205353384	-3.4938094104	 0.110796
H	-0.8136762488	 0.0465825546	-2.8184098301	 0.112926
H	 2.7716481514	 0.1087721279	-1.9805740116	 0.099573
H	 2.6643869738	-0.0817347482	-0.2089524737	 0.10532
H	 3.0463806667	-2.5967178268	-1.7406626468	 0.096458
H	-1.0633527551	-3.0380748642	-1.6550983604	 0.129706
H	-0.3316571697	-2.5829137432	-3.201627742	 0.125168
H	 0.3394241666	-3.9328365212	-2.2604136239	 0.133041
100.4343	144.0317	166.3028	196.5936	227.5063	239.9461	273.4824	286.3918	344.7207	371.2361	435.4412	477.0591	533.959	616.7311	668.0403	774.3675	789.0734	857.0392	869.6869	889.9626	934.6609	951.1528	980.0711	1017.1736	1031.8517	1043.0114	1067.2428	1103.6658	1131.0098	1136.8312	1204.9623	1216.4008	1260.5215	1267.2251	1284.7202	1328.0412	1366.7514	1403.2247	1407.698	1414.0286	1452.5259	1475.4057	1484.5582	1487.762	1493.4759	1496.9584	1501.6978	1506.6636	1510.4703	3009.9867	3023.6707	3033.464	3034.693	3058.9809	3073.641	3085.969	3096.6459	3098.6881	3100.0585	3106.1752	3114.9964	3120.1208	3173.0342
CCC1(C)CC2OC12C	CC[C@@]1(C)C[C@H]2O[C@@]12C	
InChI=1S/C8H14O/c1-4-7(2)5-6-8(7,3)9-6/h6H,4-5H2,1-3H3	InChI=1S/C8H14O/c1-4-7(2)5-6-8(7,3)9-6/h6H,4-5H2,1-3H3/t6-,7+,8-/m1/s1
