15
gdb 75343	2.65253	1.7928	1.21213	1.8863	68.71	-0.2391	-0.0671	0.1719	989.335	0.113972	-453.956099	-453.948689	-453.947745	-453.987887	28.636	
N	 0.0158551462	 1.3286496262	 0.1600167068	-0.538812
C	-0.0676489395	-0.0259657298	 0.0011558395	 0.274387
N	-1.1884098779	-0.6448302322	 0.0188955552	-0.305091
C	-1.2454546097	-2.07530513	-0.1852951357	-0.190419
C	-0.022747491	-2.7453626047	-0.772005555	 0.033151
O	 0.5142877096	-2.1555300074	-1.9462033897	-0.236943
C	 1.2821704552	-2.0493170901	-0.7362602023	-0.075347
C	 1.2921274104	-0.6809010571	-0.1493477501	 0.372557
O	 2.3048426771	-0.1265772961	 0.2224107035	-0.333765
H	 0.9160870872	 1.6783169232	 0.4504952731	 0.269711
H	-0.8037833571	 1.7926037475	 0.5175971829	 0.258965
H	-1.4819534259	-2.5646890469	 0.7714673426	 0.119682
H	-2.1018909128	-2.2906370324	-0.8394741097	 0.129074
H	-0.0166351701	-3.8360322967	-0.7713370118	 0.108029
H	 2.2266506384	-2.5871649235	-0.7188787394	 0.114819
92.296	200.2941	256.1389	328.0551	339.1335	423.8815	469.9941	483.2428	500.98	558.2609	579.4103	690.1084	765.0517	820.6007	837.5433	892.645	930.2168	954.469	1026.8239	1064.9887	1123.3799	1212.6482	1223.109	1249.3353	1278.3289	1345.6385	1369.3407	1406.5646	1443.0094	1470.6778	1602.2454	1719.8344	1789.6256	2999.7959	3025.5623	3107.0688	3157.0025	3582.7112	3708.0989
NC1=NCC2OC2C1=O	NC1=NC[C@H]2O[C@H]2C1=O	
InChI=1S/C5H6N2O2/c6-5-3(8)4-2(9-4)1-7-5/h2,4H,1H2,(H2,6,7)	InChI=1S/C5H6N2O2/c6-5-3(8)4-2(9-4)1-7-5/h2,4H,1H2,(H2,6,7)/t2-,4-/m1/s1
