21
gdb 111877	2.5255	1.42049	1.29875	1.6379	78.39	-0.2302	0.0736	0.3038	1123.6562	0.183887	-424.19944	-424.190872	-424.189927	-424.232805	32.455	
C	 0.0381197818	 1.2019223627	 0.365059157	-0.231244
O	-0.1673382379	 0.0992783348	-0.4936661594	-0.225946
C	-1.3602887616	-0.5707828462	-0.2547732066	 0.118817
C	-1.4504221668	-1.992744265	-0.7334143575	-0.112641
C	-0.2065380209	-2.6540622884	-1.3247481022	-0.218366
C	 0.6350396642	-3.3282895782	-0.238811394	-0.069612
O	 0.8945282637	-2.4438006906	 0.8369311894	-0.237059
C	-0.269168155	-2.1630441909	 1.5889254538	-0.093575
C	-1.4518426162	-1.6850028376	 0.7620004843	-0.110112
H	 0.9928195067	 1.6530754019	 0.0853135724	 0.128545
H	-0.758220911	 1.9539893239	 0.2522658639	 0.102987
H	 0.0803907979	 0.8989475588	 1.4199534981	 0.11134
H	-2.2475100361	 0.0557019746	-0.3727947826	 0.076284
H	-2.3965263801	-2.2841486579	-1.1774246582	 0.086279
H	-0.501927276	-3.4006962798	-2.0688309304	 0.092425
H	 0.405101206	-1.9039158355	-1.8346637948	 0.125143
H	 0.1235013063	-4.2330091016	 0.1335772419	 0.079389
H	 1.611416762	-3.6299780426	-0.6293052906	 0.102778
H	-0.5836597619	-3.0694378268	 2.1372128891	 0.085631
H	 0.028294547	-1.4179784796	 2.3344579398	 0.105459
H	-2.402305822	-1.7755892458	 1.2817857168	 0.083477
77.5036	133.4702	138.6548	182.7543	237.8914	308.8046	351.9633	445.3842	465.4614	553.9342	586.1973	730.4885	760.0139	780.1857	827.7209	873.3731	942.7615	961.6914	1006.4902	1050.3395	1057.7114	1085.167	1094.4167	1120.9474	1137.8842	1145.1065	1163.5422	1182.8355	1217.6907	1251.3254	1269.0198	1272.9463	1321.9287	1345.7163	1372.6895	1375.8453	1384.3813	1417.0831	1449.6825	1474.413	1484.8508	1489.5457	1494.7681	1500.5008	1509.7995	2938.9767	2953.7067	2982.2276	3039.2285	3048.9952	3062.4742	3068.4287	3080.6756	3095.6617	3120.2272	3135.0263	3156.719
COC1C2CCOCC12	CO[C@H]1[C@H]2CCOC[C@@H]12	
InChI=1S/C7H12O2/c1-8-7-5-2-3-9-4-6(5)7/h5-7H,2-4H2,1H3	InChI=1S/C7H12O2/c1-8-7-5-2-3-9-4-6(5)7/h5-7H,2-4H2,1H3/t5-,6+,7-/m0/s1
