13
gdb 18925	3.61558	2.70952	2.08138	3.8331	56.26	-0.2266	-0.0279	0.1986	659.162	0.097328	-398.530597	-398.52525	-398.524306	-398.559915	21.663	
O	-0.0025649341	 0.0952581462	 0.0471593992	-0.321783
C	-0.0248009226	 1.2873839634	 0.0241622947	 0.53143
C	-1.178050499	 2.3089460472	-0.0412987784	-0.205681
N	-0.9041082684	 2.9155414419	 1.3231244042	-0.338553
C	 0.2721832867	 3.534081018	 0.6468786648	-0.057792
C	-0.3444910671	 3.4551899129	-0.7616406852	 0.102924
O	 0.8372415408	 2.8653283767	-1.3406201178	-0.300735
C	 1.0941485468	 2.3485268904	 0.0100428703	-0.049526
H	-2.1821837554	 1.9790589709	-0.2899451544	 0.100067
H	-1.5891858774	 3.6498780558	 1.4963249738	 0.230642
H	 0.7897895754	 4.3766894623	 1.1011319571	 0.098714
H	-0.8226111538	 4.2345516273	-1.3538768153	 0.10167
H	 2.1284872681	 2.089841657	 0.2161666171	 0.108621
175.3911	395.4802	424.4794	495.6279	597.6285	730.4295	760.9472	793.5595	806.685	819.7687	837.8025	870.7338	907.1666	939.6259	957.191	1016.6127	1026.8632	1112.3132	1118.8441	1147.4026	1171.7548	1187.3814	1212.7431	1240.7097	1286.946	1330.4339	1346.0071	1916.5465	3126.7355	3143.2197	3175.6125	3177.5712	3471.7426
O=C1C2NC3C2OC13	O=C1[C@H]2N[C@@H]3[C@H]2O[C@H]13	
InChI=1S/C5H5NO2/c7-3-1-4-2(6-1)5(3)8-4/h1-2,4-6H	InChI=1S/C5H5NO2/c7-3-1-4-2(6-1)5(3)8-4/h1-2,4-6H/t1-,2-,4+,5+/m1/s1
