18
gdb 71848	2.81941	1.96943	1.6869	1.1814	75.49	-0.2283	-0.004	0.2242	888.8068	0.149642	-401.904339	-401.897542	-401.896598	-401.93497	28.63	
C	 0.0472186252	 1.5217357498	-0.0832644091	-0.501957
C	-0.0841283219	 0.0275023055	-0.0468291118	 0.474219
O	 0.315043415	-0.641291203	-1.2304537087	-0.322375
C	-0.5002899876	-1.7994561296	-0.8275813202	 0.017813
C	 0.4146730274	-2.6931358023	-0.0495827224	-0.075701
C	 0.962907344	-2.0774456857	 1.0073890547	-0.067181
C	 0.3596581957	-0.7369131435	 1.318950807	-0.137
N	-1.1119871909	-0.9312273199	 1.5677925331	-0.29835
C	-1.3491317879	-0.8258251295	 0.1398992393	-0.107901
H	 1.1014183675	 1.8085778403	-0.1643213925	 0.130331
H	-0.4860332434	 1.9347532997	-0.9444452111	 0.126987
H	-0.3611032093	 1.9602009003	 0.831374572	 0.135372
H	-1.0032475297	-2.2465905691	-1.6852555877	 0.071542
H	 0.6529395609	-3.6999026006	-0.372499285	 0.100193
H	 1.7319284564	-2.511427878	 1.6377425334	 0.099659
H	 0.8742438119	-0.159843175	 2.0892834018	 0.065486
H	-1.3345860155	-1.8324799344	 1.9894460129	 0.208058
H	-2.3585997279	-0.5817550551	-0.1974973157	 0.080806
200.4655	217.4795	275.9343	389.6199	401.271	454.9815	541.5727	606.5143	661.7929	695.0021	725.3676	746.0503	767.3965	823.7405	859.3246	904.0993	933.1732	951.0414	970.6458	996.492	1005.2438	1009.12	1082.5107	1114.7946	1149.2017	1166.1765	1172.661	1192.1326	1222.7084	1274.5523	1310.7741	1327.7835	1351.2484	1369.9159	1386.2601	1412.5204	1480.1202	1491.4513	1649.1564	3038.0164	3088.5095	3091.0357	3106.5583	3111.5041	3123.8209	3176.0581	3201.6186	3457.9185
CC12OC3C=CC1NC23	C[C@@]12O[C@H]3C=C[C@@H]1N[C@@H]23	
InChI=1S/C7H9NO/c1-7-5-3-2-4(9-7)6(7)8-5/h2-6,8H,1H3	InChI=1S/C7H9NO/c1-7-5-3-2-4(9-7)6(7)8-5/h2-6,8H,1H3/t4-,5-,6+,7+/m0/s1
