19
gdb 97987	5.53148	0.43237	0.41487	1.5151	88.39	-0.2438	0.0333	0.2771	2549.2258	0.155709	-385.821123	-385.810081	-385.809137	-385.859941	37.64	
O	 0.2151660889	 0.7719473792	 1.0814141204	-0.40954
C	-0.0599523978	 0.2077472099	-0.1961631225	-0.216516
C	-1.4009847675	-0.3616307152	-0.2040507085	 0.1692
C	-2.5096166966	-0.8297243661	-0.2317517976	 0.000997
C	-3.8405594652	-1.4236767736	-0.2494531328	-0.359298
C	-3.8294804232	-2.9422923234	 0.0116920132	-0.165707
C	-5.2514499611	-3.5364121124	-0.0085116596	-0.354305
C	-5.268011806	-4.9738986894	 0.2306537864	 0.283953
C	-5.2543585005	-6.1591417343	 0.4298424059	-0.428435
H	 1.1069718871	 1.1329771048	 1.0480382679	 0.288684
H	 0.0132497558	 0.9689758505	-0.9903882026	 0.114489
H	 0.6678601574	-0.5816534348	-0.4464998718	 0.114739
H	-4.4678718677	-0.9277271761	 0.5038180285	 0.132503
H	-4.3195313447	-1.2222832378	-1.2175597638	 0.127755
H	-3.214499405	-3.4400995832	-0.7442503466	 0.121366
H	-3.3618229554	-3.1437253879	 0.9800886801	 0.125576
H	-5.8690912665	-3.0330704186	 0.74746562	 0.131023
H	-5.7243771334	-3.3217865514	-0.9763795699	 0.129694
H	-5.2532858386	-7.2061095202	 0.605639893	 0.19382
13.1026	61.7629	69.5004	92.8164	147.0233	154.1306	229.0508	283.5608	286.7694	345.4432	350.5002	445.5005	537.091	564.4063	616.4778	635.8966	738.2649	773.3773	839.5162	957.6941	1026.354	1033.2315	1034.8952	1048.0457	1080.7348	1154.8044	1173.0579	1246.818	1255.9375	1260.874	1295.0619	1318.6451	1350.0607	1384.8183	1460.1133	1469.5781	1473.9682	1501.0287	1503.8846	2239.7609	2373.5043	2959.7117	2976.868	3007.8664	3011.8351	3036.3821	3040.1455	3058.9472	3104.9519	3507.9306	3816.8298
OCC#CCCCC#C	OCC#CCCCC#C	
InChI=1S/C8H10O/c1-2-3-4-5-6-7-8-9/h1,9H,3-5,8H2	InChI=1S/C8H10O/c1-2-3-4-5-6-7-8-9/h1,9H,3-5,8H2
