18
gdb 47107	2.556	1.82359	1.28165	2.3422	70.94	-0.2434	0.0286	0.2721	997.3425	0.151238	-439.141778	-439.134378	-439.133434	-439.174124	28.398	
O	-0.0622173073	-0.0656828462	-0.002608994	-0.390614
C	-0.0428088107	 1.1448780159	 0.0621904751	 0.406383
N	-1.1289181305	 1.9664702404	 0.1658027623	-0.308203
C	-0.8439571666	 3.3888868047	 0.1835578033	-0.189896
C	 0.684175451	 3.4462695066	 0.4216981837	 0.111886
O	 0.9996475777	 3.6685802085	 1.7940992961	-0.271152
C	 1.5303204071	 2.4773411933	 2.3796562245	-0.082727
C	 2.1570087324	 1.6913419687	 1.2251759472	-0.231034
C	 1.2079265181	 2.0389304172	 0.0701238401	-0.170394
H	-2.060365992	 1.5829318573	 0.1335275281	 0.252789
H	-1.1170661144	 3.8706932291	-0.7652886374	 0.104879
H	-1.365156253	 3.9041116118	 0.995961484	 0.126596
H	 1.1368532118	 4.2550895971	-0.1595553893	 0.085319
H	 2.2472816486	 2.7746084376	 3.1499243847	 0.109841
H	 0.7295927418	 1.8967020985	 2.8614972472	 0.104368
H	 3.1669348078	 2.0538709642	 1.0133157763	 0.106335
H	 2.1971913503	 0.6145798569	 1.4031934594	 0.131995
H	 1.6883607378	 1.9776127684	-0.9089325814	 0.103628
66.8022	139.375	161.9635	278.8715	372.817	468.4108	520.7012	558.7591	624.4206	707.4401	732.5302	768.0861	827.2411	871.2535	898.1241	917.2692	965.69	976.9993	1021.2042	1048.7485	1074.1	1101.8769	1123.6429	1192.5028	1212.306	1230.272	1257.9394	1267.3163	1276.5372	1304.1595	1329.0202	1360.6129	1379.0038	1396.0164	1445.4654	1488.8965	1521.5819	1528.1237	1824.5974	2994.1237	3006.5536	3059.1039	3061.6637	3080.0276	3086.9382	3094.1188	3123.4417	3639.2058
O=C1NCC2OCCC12	O=C1NC[C@H]2OCC[C@@H]12	
InChI=1S/C6H9NO2/c8-6-4-1-2-9-5(4)3-7-6/h4-5H,1-3H2,(H,7,8)	InChI=1S/C6H9NO2/c8-6-4-1-2-9-5(4)3-7-6/h4-5H,1-3H2,(H,7,8)/t4-,5-/m1/s1
