16
gdb 81677	3.83417	1.34854	1.2629	4.6131	65.85	-0.2457	0.0417	0.2874	1008.6642	0.125392	-475.008616	-475.001379	-475.000435	-475.040235	28.558	
O	 0.041660356	 1.2611550296	-0.1820794115	-0.43346
C	 0.0171303853	-0.1338229213	-0.012501975	 0.083728
C	 0.0949738905	-0.6053341494	 1.4727077487	 0.064043
C	-1.4078153629	-0.2649620755	 1.5985760168	-0.276609
C	-1.4520935969	-0.6189736067	 0.0923345856	 0.108421
O	-1.4728889767	-2.0405697466	-0.0657113784	-0.253591
C	-0.5991051933	-2.7531864864	 0.6885111844	 0.470188
N	-0.6064928408	-4.0111160913	 0.630577627	-0.556876
O	 0.2599213778	-2.031410037	 1.4733172244	-0.281533
H	 0.9457601126	 1.5677548087	-0.0560912234	 0.294693
H	 0.656674744	-0.6689973205	-0.725291046	 0.093587
H	 0.8407937646	-0.2020101761	 2.1582423735	 0.091521
H	-2.0120620113	-0.8626697567	 2.2825285486	 0.124659
H	-1.5623655262	 0.8015309552	 1.7570777804	 0.135327
H	-2.2108829701	-0.2134248843	-0.5744988237	 0.107935
H	 0.1090086874	-4.3871767817	 1.2485522886	 0.227968
88.1171	262.7544	277.8417	295.8347	318.2742	425.5922	445.7652	466.1936	544.0376	676.1314	714.2664	805.88	812.3215	872.7794	892.199	926.6653	940.9882	971.5941	979.7493	1055.7123	1096.5958	1109.2475	1132.357	1158.4111	1171.433	1208.6199	1248.6584	1250.97	1282.2403	1305.5561	1351.4925	1393.8903	1420.492	1466.8792	1775.0248	3035.8976	3092.2665	3115.6312	3140.4731	3165.722	3532.9367	3813.2859
OC1C2CC1OC(=N)O2	O[C@H]1[C@H]2C[C@@H]1O[C]([NH])O2	
InChI=1S/C5H7NO3/c6-5-8-2-1-3(9-5)4(2)7/h2-4,6-7H,1H2	InChI=1S/C5H7NO3/c6-5-8-2-1-3(9-5)4(2)7/h2-4,6-7H,1H2/t2-,3+,4+
