18
gdb 66176	3.4314	1.0922	0.98025	4.205	68.66	-0.2476	0.	0.2476	1225.6155	0.147418	-476.222522	-476.213721	-476.212776	-476.256756	32.297	
O	 0.0501136757	 1.2689298862	-0.7733859578	-0.485846
C	 0.047911515	 0.0060536664	-0.1906376584	 0.362469
C	 0.8939846853	-1.0209316043	-0.9568515405	-0.248948
N	 2.3438739781	-0.8731958146	-0.7973462627	-0.266316
C	 3.0624475421	 0.1430079157	-1.3196432339	 0.162015
O	 2.5908525923	 1.1300540491	-1.8619476468	-0.336662
C	 0.2285683373	-0.1012049201	 1.3507001228	-0.123947
O	-0.956252815	-0.9204744201	 1.4509475083	-0.277812
C	-1.3642497154	-0.5423418297	 0.1195871872	-0.114979
H	 0.8896869672	 1.3974675808	-1.2515901092	 0.304507
H	 0.6425872323	-2.0225434708	-0.6010684716	 0.128175
H	 0.6388586554	-0.9575353503	-2.0214755964	 0.136133
H	 2.856191241	-1.6387813122	-0.3899385271	 0.260886
H	 4.1518691819	-0.0003750608	-1.2061921091	 0.10119
H	 1.1182017507	-0.6077946153	 1.7426595971	 0.084846
H	 0.1058449978	 0.8717405714	 1.8432642558	 0.107086
H	-2.1116533666	 0.2609332679	 0.1239755109	 0.11071
H	-1.7374803348	-1.3935744892	-0.4621448885	 0.096494
35.6908	118.6974	158.5579	203.1317	246.8244	284.2223	357.1353	365.4461	428.5493	507.8362	529.5972	619.8292	700.3011	765.1138	819.1527	889.7738	950.9259	973.0003	996.0941	1014.358	1014.4915	1034.8337	1081.893	1144.3573	1168.7671	1194.4132	1225.9535	1276.8098	1287.9238	1327.4785	1362.7098	1384.5715	1426.4069	1467.5641	1485.5121	1500.9109	1528.984	1536.6876	1775.4248	2979.9664	3009.7781	3020.566	3041.3338	3067.8068	3068.1268	3114.3852	3576.9263	3640.2928
OC1(CNC=O)COC1	OC1(CNC=O)COC1	
InChI=1S/C5H9NO3/c7-4-6-1-5(8)2-9-3-5/h4,8H,1-3H2,(H,6,7)	InChI=1S/C5H9NO3/c7-4-6-1-5(8)2-9-3-5/h4,8H,1-3H2,(H,6,7)
