16
gdb 123425	4.95164	0.97925	0.91576	5.1679	69.86	-0.3112	-0.0416	0.2696	1269.7536	0.125511	-430.182619	-430.174964	-430.17402	-430.216432	27.248	
C	-0.0763617687	 1.5387670115	-0.2757706017	-0.188105
C	-0.1338607421	 0.0304192733	-0.2509622606	 0.011454
C	-0.1282714702	-0.6963997777	 1.0694266561	-0.252526
C	-1.389111885	-0.642641303	 0.2466480016	-0.269599
N	 1.284542973	 2.0432561789	-0.0791929953	 0.176374
N	 1.7972821297	 2.3546282225	 1.1004259526	-0.119887
N	 3.0268910017	 2.6955958127	 0.8560280565	-0.083955
N	 3.2569362684	 2.5874746603	-0.4652775583	-0.084732
N	 2.171390012	 2.1786872945	-1.0510876321	-0.122287
H	-0.4181109983	 1.9427354569	-1.2313471982	 0.156132
H	-0.6771871909	 1.9715140845	 0.5267878217	 0.150972
H	 0.3851955254	-0.443649366	-1.0780359541	 0.113797
H	 0.4125478837	-1.6335730431	 1.1274513601	 0.12854
H	-0.0822939179	-0.0996706731	 1.973991736	 0.135034
H	-2.1996261339	-0.0126931446	 0.5983081571	 0.120993
H	-1.7170532268	-1.5401787975	-0.2644799715	 0.127795
38.183	68.8714	110.8535	267.5551	309.0674	366.6735	422.2107	715.1761	763.1134	766.2837	776.3925	812.0815	850.5832	904.395	957.2454	987.0389	1000.0007	1062.5239	1079.9798	1087.2705	1114.9901	1139.3914	1147.0641	1196.948	1209.7809	1230.7266	1252.8841	1295.4818	1361.7442	1388.378	1412.5746	1429.2239	1468.8213	1475.9811	1509.1034	3081.4892	3134.8854	3137.8071	3143.7398	3164.8652	3218.3412	3233.1955
C(C1CC1)N1N=NN=N1	C(C1CC1)n1nnnn1	
InChI=1S/C4H7N5/c1-2-4(1)3-9-7-5-6-8-9/h4H,1-3H2	InChI=1S/C4H7N5/c1-2-4(1)3-9-7-5-6-8-9/h4H,1-3H2
