19
gdb 100512	2.64782	1.08516	0.85783	3.7037	74.94	-0.2567	-0.0654	0.1914	1387.7074	0.157576	-456.373513	-456.363268	-456.362324	-456.408958	37.258	
C	 0.0817353533	 1.5451386178	-0.0712881545	-0.382533
C	 0.0359554977	 0.024774606	 0.0905902089	-0.191361
C	-1.4155326642	-0.5080237759	 0.0102015479	 0.048232
O	-2.0324702107	-0.1446642149	-1.2031410955	-0.43994
C	-1.4191396778	-2.0217089252	 0.1420628196	 0.359912
O	-1.6328245356	-2.7227471652	-0.8292402408	-0.353322
C	-1.1518009141	-2.6646149462	 1.4912554046	 0.273645
N	-1.0072477689	-4.0180624341	 1.401157015	-0.536083
N	-1.0872678737	-1.9000460988	 2.5169551982	-0.505565
H	 1.1149859205	 1.9052963428	-0.0655792977	 0.108485
H	-0.3853013689	 1.8447649536	-1.0124652504	 0.136772
H	-0.4520153771	 2.0424615183	 0.7459489046	 0.116816
H	 0.622145143	-0.4548515335	-0.703945933	 0.094949
H	 0.46575233	-0.2744705011	 1.0506934798	 0.122468
H	-1.985108853	-0.0833809286	 0.8449262541	 0.117059
H	-2.0199625071	-0.9398021536	-1.7560012405	 0.288537
H	-1.2750281329	-4.4401357013	 0.5248424278	 0.273792
H	-1.0485568008	-4.5836745784	 2.2317904891	 0.256496
H	-0.9250649096	-2.4288640417	 3.3767543528	 0.21164
65.2351	77.2559	98.0789	168.2934	218.8885	241.2151	296.7827	337.8303	352.5063	374.1614	389.1794	449.275	490.163	542.1752	551.8711	628.7335	754.2092	790.8268	859.0595	889.8248	914.4448	997.7501	1057.2337	1074.1458	1103.4387	1112.4475	1148.3462	1163.5384	1271.4721	1284.0817	1335.4908	1364.2341	1403.9273	1420.875	1448.2528	1480.9207	1494.2788	1509.8434	1604.8395	1715.8637	1771.1181	3026.0434	3038.3889	3054.6566	3094.5624	3104.5468	3130.0703	3447.7029	3583.8994	3714.7686	3721.0906
CCC(O)C(=O)C(N)=N	CC[C@@H](O)C(=O)C(=N)N	
InChI=1S/C5H10N2O2/c1-2-3(8)4(9)5(6)7/h3,8H,2H2,1H3,(H3,6,7)	InChI=1S/C5H10N2O2/c1-2-3(8)4(9)5(6)7/h3,8H,2H2,1H3,(H3,6,7)/t3-/m1/s1
