23
gdb 73864	2.85436	1.19784	0.93058	0.3438	93.59	-0.2158	0.0387	0.2545	1366.777	0.205139	-351.173841	-351.164312	-351.163368	-351.208202	36.557	
C	-0.0854079801	 1.5102883653	 0.1207877252	-0.497023
C	 0.0385114521	 0.0226379281	 0.0049986064	 0.230944
C	 0.0260380051	-0.7321237488	-1.1028074574	 0.230941
C	-0.1152279068	-0.2940913344	-2.5276011494	-0.497023
C	 0.1393618391	-2.2068210272	-0.7777626156	-0.383766
C	 0.44819298	-2.2285404252	 0.7230533554	 0.382861
C	 0.2210180108	-3.4558815844	 1.561813723	-0.31434
C	 1.6287929309	-3.0105155176	 1.2425294078	-0.303731
C	 0.1622683307	-0.8207631139	 1.2566331007	-0.383765
H	 0.7910301767	 1.9403672232	 0.6231591292	 0.122006
H	-0.189653327	 2.0028846897	-0.8488504541	 0.120084
H	-0.9556751804	 1.7855236445	 0.7314192993	 0.121819
H	-0.2097061212	 0.7895937064	-2.629665084	 0.120084
H	 0.7488268136	-0.6133480027	-3.1250734185	 0.122006
H	-0.9976181764	-0.7524638215	-2.9937258731	 0.121819
H	-0.8015624763	-2.7277227848	-1.015315362	 0.097681
H	 0.91780822	-2.7043802579	-1.3725911351	 0.095297
H	-0.1387877833	-3.3231649961	 2.5775728648	 0.105163
H	-0.1557370667	-4.3487573205	 1.072253713	 0.105163
H	 2.2030224225	-3.6014610643	 0.5354542419	 0.105399
H	 2.2199885487	-2.5748463094	 2.042274114	 0.105399
H	 0.9549409717	-0.4575058983	 1.9252730885	 0.095297
H	-0.7693821038	-0.78049916	 1.8427346002	 0.097681
43.8792	148.1285	157.6799	173.4226	237.9133	281.0556	290.6576	318.7756	400.0631	420.7138	463.8039	505.7887	588.371	724.7235	779.9882	801.7861	859.7799	897.6934	916.5869	950.1817	961.9678	981.1777	992.581	997.0235	1055.5627	1065.6916	1075.784	1092.0673	1113.3554	1178.2387	1185.6444	1189.6402	1210.6882	1239.3285	1278.8375	1287.0146	1343.7146	1380.8026	1409.6272	1420.8154	1466.9525	1477.9432	1481.7752	1483.1254	1490.3523	1492.4735	1494.3681	1503.9121	1744.8192	2978.4845	2980.6123	3011.3366	3013.4023	3016.2169	3017.8484	3053.37	3053.6693	3110.495	3115.1833	3117.5318	3119.9032	3192.705	3208.5345
CC1=C(C)CC2(CC2)C1	CC1=C(C)CC2(CC2)C1	
InChI=1S/C9H14/c1-7-5-9(3-4-9)6-8(7)2/h3-6H2,1-2H3	InChI=1S/C9H14/c1-7-5-9(3-4-9)6-8(7)2/h3-6H2,1-2H3
