19
gdb 76128	3.11096	1.35127	1.13568	3.761	80.12	-0.2278	0.0153	0.2431	1130.4335	0.158332	-382.042303	-382.033289	-382.032345	-382.075678	33.711	
C	-0.2698795807	 1.4612355686	 0.0907033412	-0.341705
N	 0.0647127619	 0.0468474026	 0.043999094	-0.129696
C	 1.1080992169	-0.4614573269	-0.9001607953	-0.118614
C	 1.8910439226	 0.5365924393	-1.6345708909	 0.279861
N	 2.4928955234	 1.3407470539	-2.2076447004	-0.338561
C	 1.8174077117	-1.1547068813	 0.2713267311	-0.141759
C	 2.1802438297	-0.1249087545	 1.314747248	-0.342581
C	 0.7478406933	-0.5766668816	 1.1871029822	 0.376182
C	-0.0600638966	-1.1870515448	 2.2925413983	-0.48606
H	 0.5851812505	 2.1284657218	 0.2810700424	 0.117175
H	-0.7274775507	 1.7594396952	-0.8572095989	 0.134183
H	-1.0095576237	 1.6138875772	 0.882557682	 0.126363
H	 0.6688212558	-1.1556892161	-1.6248294828	 0.127915
H	 2.2381246325	-2.1500703112	 0.2311296106	 0.107088
H	 2.716430446	-0.5230758168	 2.1705340231	 0.120058
H	 2.4970830429	 0.8704572333	 1.0156951364	 0.129572
H	-0.5314626789	-0.4127361101	 2.9091215467	 0.127086
H	-0.8513890006	-1.8249805813	 1.8875734336	 0.129579
H	 0.5746543941	-1.7880614473	 2.9503690887	 0.123915
99.2265	137.872	178.647	190.3374	197.6955	245.5053	298.358	361.9965	406.3007	474.1251	541.9045	595.2258	669.0716	682.8071	800.0616	829.7138	896.4013	922.9425	965.092	973.331	1001.8551	1041.7484	1070.6618	1091.257	1112.088	1154.9359	1167.4966	1207.8468	1237.2866	1267.4934	1296.0819	1331.9767	1384.0802	1424.8346	1448.1216	1477.9804	1482.8097	1495.9989	1499.4705	1502.2099	2346.4643	2985.9218	3031.5495	3044.914	3074.1564	3093.6709	3111.9312	3115.5698	3119.2273	3202.687	3210.8995
CN1C(C#N)C2CC12C	CN1[C@@H](C#N)[C@H]2C[C@@]12C	
InChI=1S/C7H10N2/c1-7-3-5(7)6(4-8)9(7)2/h5-6H,3H2,1-2H3	InChI=1S/C7H10N2/c1-7-3-5(7)6(4-8)9(7)2/h5-6H,3H2,1-2H3/t5-,6+,7-/m1/s1
