13
gdb 128623	3.13861	1.43349	0.9902	2.3902	65.92	-0.2709	-0.1057	0.1652	1105.4828	0.088078	-486.013235	-486.005395	-486.004451	-486.046408	27.677	
C	-0.0536756297	 1.3804275346	 0.0783630859	-0.241052
O	 0.0287170596	-0.0501676897	-0.0489001552	-0.22387
C	 0.6407821715	-0.5086760355	-1.1198817284	 0.505676
N	 1.1485041522	 0.2385025477	-2.0227941272	-0.359845
C	 1.7602148801	-0.3901751455	-3.0912967207	 0.459177
N	 2.295592106	 0.2406832981	-4.041027952	-0.510208
O	 1.7670406699	-1.7958093959	-3.0850619972	-0.263804
N	 1.1757857077	-2.532103682	-2.0357753462	 0.082464
N	 0.6409309036	-1.9295350852	-1.10251646	-0.157439
H	 0.947931614	 1.8147877445	 0.1098363216	 0.159659
H	-0.5990329973	 1.8037512665	-0.7679701681	 0.159626
H	-0.5851490646	 1.5535246135	 1.0127215366	 0.150935
H	 2.689895267	-0.4027351813	-4.726496689	 0.238681
55.2711	136.8323	158.2249	216.5749	217.4004	401.1149	438.0741	489.1525	573.4618	591.2586	717.3509	722.2287	771.9787	795.1102	857.6895	902.9883	992.5389	1042.8577	1103.992	1179.0765	1215.259	1292.0833	1357.7324	1478.678	1479.9736	1491.038	1616.6791	1707.7761	1769.9412	3060.6331	3141.0353	3177.12	3510.865
COC1=NC(=N)ON=N1	COC1=N[N]OC(=N1)[NH]	
InChI=1S/C3H4N4O2/c1-8-3-5-2(4)9-7-6-3/h4H,1H3	InChI=1S/C3H4N4O2/c1-8-3-5-2(4)9-7-6-3/h4H,1H3
