20
gdb 83602	2.16589	1.6531	1.30416	1.9691	79.43	-0.2293	-0.0263	0.203	1101.9386	0.169526	-403.133916	-403.124803	-403.123859	-403.167797	33.98	
C	-0.5642741682	 1.3229800744	 0.1717040843	-0.394765
C	 0.0214549513	-0.0821749086	 0.0946471959	-0.081804
N	 0.8341008364	-0.3513409374	-1.1401830761	-0.173846
C	 0.7827003153	-1.7897983788	-1.562100064	-0.164873
C	 2.0488897248	-2.1422077792	-0.7412681583	-0.304066
C	 2.0855561865	-0.6493569163	-0.306441214	 0.22637
C	 3.3527570242	 0.1427944247	-0.5355939775	-0.466088
C	 1.2739170915	-0.3320353661	 0.9590660698	 0.350182
O	 1.5342295615	-0.2349663276	 2.1227143441	-0.300769
H	 0.2059847307	 2.0771171184	-0.0118049562	 0.125075
H	-1.3487603106	 1.4493993461	-0.5797427542	 0.126096
H	-0.9923773267	 1.4978732347	 1.1636511336	 0.129643
H	-0.7674666313	-0.8278791864	 0.262207181	 0.095053
H	-0.1371312154	-2.3041572699	-1.2635054783	 0.10447
H	 0.8962408736	-1.8963785963	-2.6444386306	 0.110745
H	 1.9225194239	-2.8685848174	 0.064513536	 0.11852
H	 2.9156095918	-2.4357237828	-1.3377844142	 0.115031
H	 3.7309690669	-0.0158516707	-1.5503487143	 0.123247
H	 3.1827195262	 1.2147144356	-0.3969809218	 0.127068
H	 4.1223030677	-0.1745277363	 0.1764893146	 0.134709
53.6599	148.1802	185.3782	192.819	204.3764	242.8913	263.1503	326.1969	390.6864	482.8258	616.2796	635.8988	703.0223	749.986	780.262	808.5391	865.5393	901.8615	960.5395	978.6914	979.5043	1032.4663	1061.2971	1063.7012	1116.3888	1141.3004	1169.9569	1204.7782	1214.9008	1250.3568	1254.4695	1289.298	1310.575	1340.3683	1398.9865	1402.8216	1478.3419	1482.7664	1484.5642	1489.8263	1494.4568	1512.3113	1890.3177	3015.9219	3033.3051	3039.7072	3041.2691	3067.4357	3084.6843	3106.9328	3110.1627	3118.2612	3120.0404	3121.0254
CC1N2CCC2(C)C1=O	C[C@H]1N2CC[C@]2(C)C1=O	
InChI=1S/C7H11NO/c1-5-6(9)7(2)3-4-8(5)7/h5H,3-4H2,1-2H3	InChI=1S/C7H11NO/c1-5-6(9)7(2)3-4-8(5)7/h5H,3-4H2,1-2H3/t5-,7-/m1/s1
