22
gdb 101191	3.01636	1.15847	1.0337	2.7936	82.22	-0.2442	0.0818	0.326	1268.7155	0.194192	-404.299222	-404.290109	-404.289165	-404.333133	35.04	
C	 0.9056965376	 0.2793490174	-1.0606258408	-0.383643
C	-0.2588449127	-0.0118917821	-0.1129854533	 0.023217
C	-1.2084244886	-1.0795038804	-0.6774569488	-0.05123
O	-0.553990642	-2.318722149	-0.8589824445	-0.423385
N	 0.2676530932	-0.562713642	 1.1413683752	-0.081189
C	 1.0009594057	 0.2008097896	 2.1229806809	-0.046682
C	 0.4508244808	 1.6309031461	 2.3030343614	-0.246018
C	-0.9475043871	 1.0238502887	 2.639858256	-0.244125
C	-0.3593288762	-0.3853162668	 2.4360438635	-0.046646
H	 1.4285592214	-0.6467670575	-1.3106487076	 0.132898
H	 0.537989959	 0.7282219904	-1.9883820834	 0.112971
H	 1.6199000621	 0.9725538626	-0.6063577843	 0.112322
H	-0.8400960132	 0.9100650736	 0.0395557009	 0.063592
H	-2.0739171577	-1.1799324891	-0.0006668981	 0.079989
H	-1.5894958976	-0.7650000329	-1.6552226892	 0.0996
H	-0.028795696	-2.4405799798	-0.0560140874	 0.283731
H	 1.9902420356	-0.139573752	 2.4100170428	 0.093723
H	 0.8961506992	 2.1410114817	 3.1594795402	 0.107942
H	 0.5201256752	 2.2887332499	 1.4320065693	 0.105153
H	-1.2285228004	 1.1983779564	 3.6805396211	 0.108758
H	-1.7919688209	 1.3027538089	 2.0028571593	 0.105153
H	-0.6219913573	-1.2698200137	 3.0064171666	 0.093871
62.7931	121.271	171.3019	191.9292	216.5084	257.953	314.2389	330.3331	495.5903	498.7267	527.8779	616.3112	748.5877	778.8	791.7652	837.1934	854.1127	903.5301	935.4763	950.4247	960.8641	969.2637	1004.9053	1033.0457	1044.1035	1090.9333	1099.4713	1130.2816	1149.4233	1155.1347	1216.9654	1223.2318	1233.7357	1252.0801	1278.0702	1284.9563	1328.7508	1361.8029	1382.8673	1387.435	1412.4453	1442.629	1476.049	1488.4288	1497.3299	1499.6217	1507.4204	2957.8972	2989.2109	3043.4257	3056.0734	3062.6641	3066.6071	3104.5816	3110.3053	3122.0575	3130.9623	3161.4891	3173.1821	3746.0134
CC(CO)N1C2CCC12	C[C@@H](CO)N1[C@H]2CC[C@@H]12	
InChI=1S/C7H13NO/c1-5(4-9)8-6-2-3-7(6)8/h5-7,9H,2-4H2,1H3	InChI=1S/C7H13NO/c1-5(4-9)8-6-2-3-7(6)8/h5-7,9H,2-4H2,1H3/t5-,6-,7+,8?/m0/s1
