16
gdb 54476	3.22455	1.4982	1.17525	2.0986	69.76	-0.2499	-0.0265	0.2234	1035.9174	0.123624	-437.903859	-437.895968	-437.895024	-437.936635	29.398	
C	 0.0750444742	 1.1198561051	-0.8234340378	-0.485933
C	-0.0940519782	 0.1065984865	 0.2868093999	 0.309912
O	 0.7108548729	-0.0381228245	 1.1827633654	-0.319673
C	-1.3036621448	-0.7588819262	 0.2382273989	 0.276727
C	-1.8201489525	-1.4876814513	 1.4502849528	-0.334245
C	-1.2717318789	-2.3088442894	 0.3219208605	-0.042246
N	-2.2082845136	-2.754624266	-0.6738338502	-0.246973
C	-2.7071888012	-1.7069358626	-1.1923647781	 0.087374
O	-2.2540771726	-0.4886502061	-0.7835853393	-0.250251
H	 1.005978474	 1.6663611482	-0.6716342454	 0.142945
H	 0.0854528459	 0.6198681186	-1.7976418894	 0.147012
H	-0.772619649	 1.812768258	-0.8392881331	 0.151104
H	-1.1841678697	-1.3842244037	 2.3215253045	 0.15476
H	-2.8911182932	-1.4917362856	 1.6219416091	 0.130707
H	-0.3562460187	-2.8738942793	 0.4457769091	 0.127324
H	-3.4749749147	-1.6722481018	-1.9550018968	 0.151454
68.7686	134.3535	158.9128	191.6163	340.5223	385.9702	429.5947	488.6093	572.6248	599.7512	646.5475	716.4591	773.8055	858.7882	909.6725	927.2508	948.1816	957.1937	1011.9164	1045.9898	1055.1126	1075.2199	1117.4471	1121.3129	1156.0621	1224.795	1301.4009	1335.4584	1365.0498	1392.0818	1445.6502	1457.8177	1470.0694	1666.6526	1789.2491	3045.2976	3106.8604	3137.867	3160.1668	3195.8914	3236.4565	3242.134
CC(=O)C12CC1N=CO2	CC(=O)[C@]12C[C@H]1N=CO2	
InChI=1S/C6H7NO2/c1-4(8)6-2-5(6)7-3-9-6/h3,5H,2H2,1H3	InChI=1S/C6H7NO2/c1-4(8)6-2-5(6)7-3-9-6/h3,5H,2H2,1H3/t5-,6-/m1/s1
