19
gdb 39194	2.5269	2.26372	1.55421	1.8567	77.64	-0.2361	0.008	0.2441	905.4797	0.163491	-385.898715	-385.892322	-385.891378	-385.929313	27.008	
C	 0.3400769513	 1.4839691815	 0.4519763019	-0.23381
C	 1.3961688082	 2.0763502606	-0.5105765174	-0.215855
C	 2.2220851368	 0.8663069996	-1.025533144	-0.0735
C	 3.2718403781	 0.3926914169	-0.0396871648	-0.070596
C	 2.9823386132	-0.779298273	 0.5269182354	-0.084861
C	 1.6713092375	-1.3233185957	 0.0248102985	 0.080441
O	 0.5386528913	-0.9893144468	 0.8838570734	-0.317781
C	 0.0925729657	 0.0401400154	-0.0395075259	 0.132953
C	 1.2131457871	-0.3079423562	-1.0457601072	-0.114285
H	 0.7170728257	 1.4300184557	 1.4765710488	 0.120208
H	-0.5741351704	 2.0837770371	 0.46863019	 0.095742
H	 0.8977600429	 2.5535822175	-1.362326731	 0.0982
H	 2.019931731	 2.8416895294	-0.0379172883	 0.098434
H	 2.6641733839	 1.0870453412	-2.0031087315	 0.072246
H	 4.1455379544	 0.9953498408	 0.1906389774	 0.095272
H	 3.5742139165	-1.277432925	 1.2864832654	 0.097957
H	 1.6727934518	-2.3930962931	-0.2067980265	 0.073909
H	-0.9427937014	-0.1456541166	-0.3424084588	 0.072833
H	 0.9298867465	-0.6785462594	-2.0292659356	 0.072493
127.8318	221.3601	340.0259	413.3758	496.362	595.4535	619.7998	666.7205	768.2773	795.6176	825.6252	832.3584	849.9129	886.8727	908.4543	924.3388	952.7779	971.431	983.0165	990.2018	995.1569	1043.9678	1060.3558	1091.8194	1124.3646	1164.7622	1190.8011	1210.9201	1236.0417	1253.2975	1281.3974	1290.3637	1305.582	1325.7801	1341.7568	1346.4794	1355.2738	1381.8213	1482.5374	1497.5092	1673.012	3031.7778	3046.5868	3047.3082	3056.3246	3064.4957	3080.0177	3110.9633	3126.9814	3171.8974	3205.0111
C1CC2C=CC3OC1C23	C1C[C@H]2C=C[C@H]3O[C@@H]1[C@@H]23	
InChI=1S/C8H10O/c1-3-6-8-5(1)2-4-7(8)9-6/h1,3,5-8H,2,4H2	InChI=1S/C8H10O/c1-3-6-8-5(1)2-4-7(8)9-6/h1,3,5-8H,2,4H2/t5-,6-,7+,8+/m1/s1
