17
gdb 41169	3.05901	1.78244	1.59258	0.71	73.	-0.2394	-0.0087	0.2307	896.6999	0.136486	-421.682557	-421.675915	-421.674971	-421.713122	27.911	
C	 0.0726973334	 1.5898182962	-0.1356946511	-0.209818
O	 1.5452103356	 1.4653937821	 0.0778192037	-0.328523
C	 1.1733022887	 0.3117959341	 0.9457553223	 0.12419
C	 1.1257702009	-1.2445478497	 1.2440448398	-0.067099
O	-0.3603719303	-1.0358973493	 1.0796206315	-0.363515
C	 0.0283680477	 0.0343345962	 0.0906595579	 0.342056
C	 0.2614242279	-0.7009419149	-1.2413601543	-0.277399
C	 1.2111540476	-1.8591502476	-1.07251883	-0.068262
C	 1.6523664832	-2.1231507426	 0.1533065887	-0.033406
H	-0.3859256043	 2.1953643046	 0.6521886559	 0.121504
H	-0.1522047633	 1.9819039536	-1.1306832667	 0.120219
H	 0.8558463713	 0.7627110042	 1.892760955	 0.101115
H	 1.3570593468	-1.5629577407	 2.2611019261	 0.092903
H	-0.7196643728	-1.0482397299	-1.5957288442	 0.121757
H	 0.6442229942	-0.0159853049	-2.0053713601	 0.122893
H	 1.5279239584	-2.4171900393	-1.9480492825	 0.100801
H	 2.363916985	-2.9063564819	 0.3876509477	 0.100584
181.6935	247.1142	334.7304	380.5254	441.4902	473.3888	537.0718	546.9571	633.6277	705.6915	754.6007	762.7562	809.8428	833.8686	844.2219	908.7907	939.6748	959.2717	966.6981	985.5054	1015.8469	1058.308	1109.404	1119.392	1158.6209	1185.4647	1209.2942	1226.2544	1259.0468	1314.8277	1355.568	1374.0741	1388.6217	1451.4105	1457.9691	1503.3956	1710.2883	3012.4057	3025.099	3045.9148	3068.968	3113.1806	3121.6245	3174.3896	3203.4451
C1OC2C3OC12CC=C3	C1O[C@@H]2[C@H]3O[C@@]12CC=C3	
InChI=1S/C7H8O2/c1-2-5-6-7(3-1,9-5)4-8-6/h1-2,5-6H,3-4H2	InChI=1S/C7H8O2/c1-2-5-6-7(3-1,9-5)4-8-6/h1-2,5-6H,3-4H2/t5-,6+,7-/m0/s1
