19
gdb 115795	4.16101	1.08358	0.95777	3.2412	71.45	-0.2495	0.0857	0.3353	1259.4516	0.158504	-460.14797	-460.139212	-460.138267	-460.181398	32.82	
C	-0.0139439334	 1.4230215157	-0.1863102695	-0.491135
C	-0.0619196166	-0.0560675683	 0.0712034131	 0.39714
C	-1.294526278	-0.8741475251	-0.2744780582	-0.136066
O	-1.1408293609	-2.1224121685	 0.3891460669	-0.290405
C	-0.2315604443	-1.994876656	 1.4922419199	 0.088362
C	 0.5363276648	-3.3096773087	 1.5839445344	-0.068008
O	-0.3430684632	-4.4081062193	 1.7214702548	-0.425543
C	 0.5959329549	-0.7695192759	 1.1713910368	-0.081661
O	 1.1443102517	-0.804847847	-0.1546112728	-0.2882
H	 0.9287306282	 1.8418942525	 0.1730624166	 0.137652
H	-0.0904923139	 1.6319887135	-1.2588610294	 0.134525
H	-0.8413320022	 1.93446649	 0.316197786	 0.127946
H	-2.1980512926	-0.3454198036	 0.0694823352	 0.096087
H	-1.3931046942	-1.0699058777	-1.3478189554	 0.117721
H	-0.7905067689	-1.8260964021	 2.4274936879	 0.077491
H	 1.1724132414	-3.4011056028	 0.6918926647	 0.10608
H	 1.1808890848	-3.3040249379	 2.4696286761	 0.103144
H	-0.9721193478	-4.3341390305	 0.9941772039	 0.293113
H	 1.1969953001	-0.2813902783	 1.9341668189	 0.101756
85.3179	135.107	165.5553	176.4745	222.4702	303.9326	343.568	402.0554	441.7045	465.0455	521.6006	602.1842	706.2502	801.8336	835.182	866.5927	910.5862	962.3172	988.2963	1013.3156	1052.0658	1055.7622	1081.7631	1106.9376	1120.926	1132.8784	1225.0831	1240.6777	1254.9473	1286.0554	1316.9105	1345.0944	1372.8391	1399.3846	1413.6983	1437.8973	1465.8018	1488.9561	1497.781	1500.3283	1506.4803	2972.3578	2980.6223	3008.1829	3039.0939	3066.4488	3076.3804	3101.2222	3128.7397	3152.2049	3798.2943
CC12COC(CO)C1O2	C[C@]12CO[C@@H](CO)[C@H]1O2	
InChI=1S/C6H10O3/c1-6-3-8-4(2-7)5(6)9-6/h4-5,7H,2-3H2,1H3	InChI=1S/C6H10O3/c1-6-3-8-4(2-7)5(6)9-6/h4-5,7H,2-3H2,1H3/t4-,5+,6-/m0/s1
