15
gdb 43787	3.85303	1.31382	1.15327	4.3606	72.1	-0.2688	0.0068	0.2756	1046.4405	0.112753	-420.606128	-420.599002	-420.598058	-420.637593	28.279	
O	-0.0635823429	 0.0741075039	-0.0388028676	-0.344506
C	 0.0324102216	 1.2618144618	-0.0057901813	 0.461399
O	-1.0406289868	 2.1261369205	 0.0109167299	-0.284841
C	-0.3758277685	 3.4387694206	 0.0510244411	 0.330991
C	 0.7378690407	 3.2579883142	-1.0194922986	-0.272037
C	 1.2295253158	 2.2022777436	 0.0275808514	-0.226511
C	 0.7240903973	 3.1994608011	 1.1242912755	-0.272032
C	-1.3219821653	 4.5188536146	 0.0744667574	 0.114035
C	-2.0757889969	 5.4535467871	 0.0951664465	-0.321746
H	 0.4193933777	 2.9108136249	-2.0038246659	 0.130502
H	 1.3984120389	 4.1225692753	-1.094352542	 0.12506
H	 2.2155158521	 1.7485720354	 0.0215392679	 0.107995
H	 1.383314372	 4.0584370472	 1.2546916704	 0.125059
H	 0.3931141729	 2.7992145323	 2.0840442671	 0.130503
H	-2.7514230186	 6.2731837775	 0.1128655081	 0.196127
137.9558	143.0187	212.3142	412.7783	426.6506	507.226	528.4426	536.516	537.7683	644.1612	668.9392	691.3469	760.8311	791.9525	850.7916	882.7488	923.7543	946.7263	954.889	1023.488	1041.16	1072.5619	1098.4675	1155.1195	1193.0797	1225.6378	1232.4273	1279.0213	1304.7391	1477.5226	1512.6541	1917.3909	2251.4782	3080.0422	3084.5737	3151.0266	3154.9667	3178.3975	3500.238
O=C1OC2(CC1C2)C#C	O=C1O[C@@]2(C[C@H]1C2)C#C	
InChI=1S/C7H6O2/c1-2-7-3-5(4-7)6(8)9-7/h1,5H,3-4H2	InChI=1S/C7H6O2/c1-2-7-3-5(4-7)6(8)9-7/h1,5H,3-4H2/t5-,7+
