17
gdb 31408	3.85677	1.11437	0.87077	5.154	84.79	-0.186	-0.0245	0.1614	1298.0755	0.13714	-418.038715	-418.030251	-418.029307	-418.072063	31.553	
C	 0.0191339047	 1.4731848563	-0.0753871408	-0.326089
N	-0.091430576	 0.0397573622	 0.1016978465	-0.369652
C	 0.5696734747	-0.6784720642	 1.0637184071	 0.38967
C	 0.6399494188	-2.0444190239	 1.0322902906	-0.292859
C	 1.2935217127	-2.8108516221	 2.0536657412	 0.383931
N	 1.3831314423	-4.0801196761	 2.0757020153	-0.561371
O	 1.8784464505	-2.0640681162	 3.1040191241	-0.239233
C	 1.8070664129	-0.7256835437	 3.1160587524	 0.083137
C	 1.196786547	 0.0103452854	 2.173632154	-0.26449
H	 1.0484798929	 1.8087582978	-0.2664344449	 0.127921
H	-0.5955858516	 1.7634495685	-0.9297360915	 0.13432
H	-0.3617388774	 2.0130105019	 0.7983581998	 0.139029
H	-0.3858915308	-0.4866305877	-0.704238064	 0.248176
H	 0.1953972272	-2.6181526094	 0.2281954865	 0.096466
H	 1.8963989342	-4.3879225084	 2.9005832441	 0.211385
H	 2.3047004398	-0.3059646896	 3.9829546697	 0.133082
H	 1.187310868	 1.0865079192	 2.2630042399	 0.106575
68.73	136.267	148.5154	209.4814	222.2716	363.671	403.654	439.4559	447.6112	559.1837	604.5171	670.8884	695.2157	751.1614	770.3339	799.9963	830.4483	841.6249	936.2255	979.6204	1052.3645	1084.7489	1124.8047	1153.2035	1182.4921	1257.3682	1287.7128	1317.3688	1373.0158	1463.6755	1477.9814	1488.6969	1507.505	1524.9696	1608.5341	1691.9373	1740.0891	2999.5773	3065.5984	3126.0746	3201.6139	3203.7904	3244.778	3500.2844	3640.4751
CNC1=CC(=N)OC=C1	CN[C@@H]1C=C([NH])OC=C1	
InChI=1S/C6H8N2O/c1-8-5-2-3-9-6(7)4-5/h2-4,7-8H,1H3	InChI=1S/C6H9N2O/c1-8-5-2-3-9-6(7)4-5/h2-5,7-8H,1H3/t5-/m0/s1
