18
gdb 67269	2.72528	2.18952	1.74754	1.2773	73.78	-0.21	0.0696	0.2795	849.9728	0.1502	-401.872084	-401.865722	-401.864778	-401.902289	27.439	
O	-0.0301010957	 1.3805001359	 0.1041723	-0.48893
C	 0.0405287402	-0.0009318822	 0.0987354529	 0.416762
C	-1.2405277098	-0.8828060284	-0.0499565273	-0.10217
C	-1.019759761	-0.9755814062	-1.5702824541	-0.250376
C	 0.4667926854	-0.8369751277	-1.1900661964	-0.080887
N	 0.8099148311	-2.1059598686	-0.4902824101	-0.137998
C	 1.8011991793	-1.6536933955	 0.5622525315	-0.188296
C	 0.6483849443	-0.9046281323	 1.2280686398	-0.144608
C	-0.3071444061	-1.9488319638	 0.5807836842	-0.002026
H	 0.8440645795	 1.7354267287	-0.0932069928	 0.281831
H	-2.193335709	-0.6682688505	 0.4313752902	 0.075012
H	-1.3174942921	-1.8834243807	-2.1007305948	 0.102083
H	-1.3944922869	-0.0865562556	-2.0826252663	 0.109992
H	 1.2310187869	-0.5080436917	-1.8962625741	 0.063992
H	 2.1553954246	-2.5185552334	 1.1297829815	 0.107737
H	 2.6603823145	-1.0944042777	 0.1727352838	 0.089434
H	 0.6096815784	-0.5591976809	 2.2609499266	 0.070254
H	-0.6391548538	-2.8807511095	 1.0328367454	 0.078196
238.0427	263.3304	323.5256	378.8989	455.7134	479.2734	592.5013	670.9248	701.1849	784.9043	794.8153	838.5653	852.6277	880.5637	901.4255	937.9479	953.4915	968.9258	990.056	1003.185	1010.0936	1046.1585	1088.3487	1109.2926	1125.3819	1156.0375	1163.9581	1173.0081	1207.7168	1213.5038	1238.0902	1243.4546	1269.577	1279.7219	1306.2178	1317.5976	1385.0881	1481.6967	1505.5198	3030.1302	3064.0601	3096.2688	3101.3401	3118.2672	3126.3737	3130.413	3141.7141	3791.3891
OC12C3CC1N1CC2C31	O[C@@]12[C@H]3C[C@@H]1N1C[C@@H]2[C@@H]31	
InChI=1S/C7H9NO/c9-7-3-1-5(7)8-2-4(7)6(3)8/h3-6,9H,1-2H2	InChI=1S/C7H9NO/c9-7-3-1-5(7)8-2-4(7)6(3)8/h3-6,9H,1-2H2/t3-,4+,5-,6+,7+/m0/s1
