19
gdb 81844	2.06901	1.62173	1.07523	3.2161	76.1	-0.2388	-0.0261	0.2126	1172.3539	0.156587	-423.006129	-422.996923	-422.995979	-423.040274	33.857	
C	-0.0647041997	 1.5934765795	-0.0753061873	-0.416075
C	 0.0413219921	 0.0754805931	-0.0213454312	-0.017777
C	 0.726638027	-0.6360001902	-1.196287313	-0.055694
O	 2.1047743809	-0.2309195238	-1.1943403746	-0.285884
C	 1.7043673622	-1.299205822	-0.3192751817	 0.396099
C	 2.4304151324	-2.6016935246	-0.4001645738	-0.503006
C	 1.1104726241	-0.6179423083	 0.9400747452	-0.18072
C	 2.0482230322	 0.2675724984	 1.7166922793	 0.150352
O	 2.034532776	 0.3757143943	 2.9188774418	-0.261448
H	 0.8856712534	 2.0418551679	-0.3761465758	 0.136247
H	-0.8266017301	 1.8975489374	-0.8010313367	 0.118775
H	-0.3482461586	 2.0061404185	 0.89810865	 0.12979
H	-0.9359269604	-0.3727429925	 0.1821054348	 0.089998
H	 0.3089883201	-0.9385119903	-2.1504624142	 0.105079
H	 2.5891448077	-2.8833078115	-1.4444112835	 0.138561
H	 3.4088266247	-2.5344000349	 0.0884422187	 0.137511
H	 1.860937671	-3.3934342633	 0.0967206038	 0.130805
H	 0.6275761512	-1.3139509928	 1.6293447773	 0.093005
H	 2.7745723738	 0.832683315	 1.0956179108	 0.094381
56.748	114.2578	192.3789	202.1706	218.2401	231.4501	250.5963	335.3646	403.4885	454.7433	527.3856	565.6693	656.0083	711.2175	786.3247	858.8739	891.7408	915.2604	985.6485	1006.7793	1022.7703	1048.3879	1067.8547	1095.2856	1128.8332	1151.7174	1183.8325	1206.6199	1252.7753	1279.816	1296.2307	1360.9694	1404.5106	1408.7346	1419.8058	1469.5153	1483.6924	1492.7177	1497.7912	1505.5782	1814.9619	2914.9504	3036.4598	3037.6397	3062.861	3096.6499	3100.5184	3101.5232	3123.4297	3123.7262	3179.1849
CC1C2OC2(C)C1C=O	C[C@H]1[C@H]2O[C@@]2(C)[C@H]1C=O	
InChI=1S/C7H10O2/c1-4-5(3-8)7(2)6(4)9-7/h3-6H,1-2H3	InChI=1S/C7H10O2/c1-4-5(3-8)7(2)6(4)9-7/h3-6H,1-2H3/t4-,5+,6-,7+/m1/s1
