19
gdb 117212	3.61227	0.86094	0.7439	1.2482	73.07	-0.2402	-0.0147	0.2255	1527.9758	0.156095	-460.158716	-460.148665	-460.147721	-460.194415	36.266	
O	-0.1398451999	 1.4373385318	 0.101559905	-0.425573
C	 0.0130427738	 0.0256900353	 0.0579735358	-0.078118
C	-1.3835366767	-0.5751766895	 0.0364046955	-0.292439
C	-1.3717781418	-2.0881239777	-0.0521699064	 0.308518
O	-0.3407205656	-2.7247636008	-0.1488207834	-0.338061
C	-2.7038869618	-2.782846832	-0.0091069418	 0.282765
O	-3.8402887678	-1.9774152354	 0.1270044045	-0.454382
C	-2.8222610172	-4.0978077783	-0.7629968234	-0.302742
C	-2.750664489	-4.1021927036	 0.7327109232	-0.268889
H	 0.7372905318	 1.8306134731	 0.1208093231	 0.286826
H	 0.5682619807	-0.2976097334	-0.8336590774	 0.101313
H	 0.5633481681	-0.3518788909	 0.9317311943	 0.10097
H	-1.9552257711	-0.2715285745	 0.9210402292	 0.14588
H	-1.9483385937	-0.1693631663	-0.8141836533	 0.119258
H	-4.0760635419	-1.6312539264	-0.7404894932	 0.287589
H	-3.7837053652	-4.2912156161	-1.2254159799	 0.118511
H	-1.9465577529	-4.4171057405	-1.3156249185	 0.139259
H	-1.8277740491	-4.4282561838	 1.1966757138	 0.13924
H	-3.6637135407	-4.285057851	 1.2865077529	 0.130076
44.9386	81.4996	106.1115	129.7436	254.6606	270.8417	274.2858	291.26	313.9641	383.4619	408.658	460.4199	570.4799	590.4908	771.3663	787.9383	798.4604	870.2561	878.3765	947.049	992.1318	1022.6562	1047.7421	1068.7134	1072.2035	1091.5723	1106.714	1202.5377	1206.3253	1244.7339	1264.2796	1296.9631	1299.1061	1352.064	1369.9955	1434.709	1441.0481	1467.1007	1471.0586	1522.2821	1775.865	2996.3948	3022.6136	3032.3747	3075.5191	3139.6681	3148.2825	3235.3501	3251.293	3800.3426	3831.6772
OCCC(=O)C1(O)CC1	OCCC(=O)C1(O)CC1	
InChI=1S/C6H10O3/c7-4-1-5(8)6(9)2-3-6/h7,9H,1-4H2	InChI=1S/C6H10O3/c7-4-1-5(8)6(9)2-3-6/h7,9H,1-4H2
