16
gdb 11709	5.48902	1.39219	1.2579	4.0089	70.99	-0.2362	0.0081	0.2443	975.81	0.131223	-342.755136	-342.747727	-342.746783	-342.786636	28.062	
C	-0.1398997852	 1.5362029419	 0.013761345	-0.392068
C	 0.1085200693	 0.0395716747	 0.0522761597	 0.05044
N	 1.223301007	-0.4528863787	-0.8431468878	-0.381408
C	 1.7748504839	-1.2356853281	 0.2893619425	 0.265332
C	 2.2589129693	-0.2637761693	 1.3309232923	-0.305551
C	 0.7915043105	-0.5943530321	 1.2750372276	-0.152027
C	 2.2133506439	-2.5841335324	 0.1625179366	 0.179194
N	 2.5585741996	-3.6825704834	 0.038034107	-0.34914
H	 0.7710872268	 2.0947006188	 0.2444111218	 0.125146
H	-0.4797680047	 1.8426720308	-0.9806823934	 0.125499
H	-0.9132460098	 1.815350081	 0.7374792281	 0.11967
H	-0.8207368384	-0.5033675067	-0.155526617	 0.089414
H	 0.8640234112	-1.0626494833	-1.5709141924	 0.235275
H	 2.7867186456	-0.6988100773	 2.172505644	 0.139268
H	 2.6400770605	 0.6900816438	 0.9799793441	 0.133444
H	 0.2785093804	-1.0473380096	 2.1129382622	 0.117513
110.6928	150.8269	218.2021	236.4268	313.0391	442.5115	462.2579	536.9995	568.8854	607.1637	689.6225	797.2728	841.2571	845.4106	895.7681	957.631	984.9411	1015.7379	1024.4822	1083.5653	1094.0904	1115.3827	1155.0683	1189.6215	1248.9872	1289.8037	1335.3084	1377.6173	1401.5076	1424.0077	1479.296	1487.5881	1493.4376	2341.5059	3034.6196	3038.9043	3105.644	3120.2159	3129.1121	3201.7849	3226.2543	3527.6104
CC1NC2(CC12)C#N	C[C@H]1N[C@]2(C[C@@H]12)C#N	
InChI=1S/C6H8N2/c1-4-5-2-6(5,3-7)8-4/h4-5,8H,2H2,1H3	InChI=1S/C6H8N2/c1-4-5-2-6(5,3-7)8-4/h4-5,8H,2H2,1H3/t4-,5+,6-/m1/s1
