20
gdb 86113	2.43159	1.68039	1.11901	1.8362	80.72	-0.2265	0.0264	0.253	1143.3502	0.171234	-403.166696	-403.158108	-403.157164	-403.199723	33.033	
C	 0.027853031	 1.5057974561	-0.0558250088	-0.392171
C	-0.0371742385	-0.0076426658	 0.0910048195	 0.107029
O	 0.382332005	-0.5587787772	-1.1764328762	-0.282434
C	 0.8037685271	-1.8575584237	-1.220303479	 0.386424
C	 0.6981564196	-2.4074516056	-2.6105982454	-0.454856
N	 1.2625350129	-2.541224797	-0.2542953889	-0.297477
C	 1.395122852	-1.9093980684	 1.0217214239	 0.003742
C	 2.2733270531	-0.6763676759	 1.1428329804	-0.303569
C	 0.7758780167	-0.5537847179	 1.2439854665	-0.052342
H	 1.0619381549	 1.8318325037	-0.1984851995	 0.126776
H	-0.5639678623	 1.8334814055	-0.9148574619	 0.124675
H	-0.3664451581	 1.9877497913	 0.8440644934	 0.116914
H	-1.0832278887	-0.3145278075	 0.2407204799	 0.084716
H	 1.252146937	-1.7738610203	-3.3111921108	 0.136292
H	 1.0996610695	-3.4198365691	-2.6358784325	 0.143009
H	-0.3460228086	-2.4139926785	-2.9406163339	 0.133426
H	 1.41894487	-2.6145878647	 1.8454461881	 0.091893
H	 2.8599267595	-0.5498581468	 2.0460049895	 0.113632
H	 2.7590893564	-0.3354103311	 0.2345665517	 0.125444
H	 0.3514896215	-0.3379099971	 2.2204857241	 0.088877
94.1987	140.9058	167.6611	223.5847	239.1959	269.4963	389.6065	406.1467	445.4602	529.7708	605.6921	646.2478	696.0374	750.774	828.9433	843.3006	878.8843	927.7106	978.5658	984.6925	1010.6283	1051.3728	1060.0321	1064.3274	1095.9601	1127.2619	1132.4735	1169.8006	1185.8151	1232.878	1244.426	1358.9539	1372.0173	1385.1139	1404.9121	1407.2436	1412.4999	1474.6748	1476.9492	1481.3036	1485.7662	1496.1296	1739.7717	2988.7818	3043.6563	3044.0138	3099.2706	3118.7166	3124.8096	3132.6243	3145.4449	3162.968	3163.8137	3221.9587
CC1OC(C)=NC2CC12	C[C@H]1OC(=N[C@H]2C[C@@H]12)C	
InChI=1S/C7H11NO/c1-4-6-3-7(6)8-5(2)9-4/h4,6-7H,3H2,1-2H3	InChI=1S/C7H11NO/c1-4-6-3-7(6)8-5(2)9-4/h4,6-7H,3H2,1-2H3/t4-,6+,7+/m1/s1
