20
gdb 83310	2.74225	1.3149	1.14655	4.1493	80.09	-0.2256	0.0302	0.2558	1160.9533	0.172206	-403.173008	-403.164266	-403.163322	-403.20717	32.121	
C	-0.0059234179	 1.5178535349	 0.2766221002	-0.421388
C	 0.0707975753	 0.0320256169	 0.009593643	-0.027926
C	 0.5355663578	-0.5804202841	-1.3000143102	-0.08378
C	 1.3237355767	 0.2616681715	-2.3016689954	-0.257663
C	 2.6407240056	 0.6671392492	-1.5914404677	-0.162559
N	 2.586012796	 0.014424726	-0.2778741059	-0.026895
C	 3.5808394749	 0.1638465968	 0.6297608009	 0.130938
O	 4.5965233085	 0.8038295269	 0.4371328768	-0.345227
C	 1.3769651681	-0.7362134339	-0.0628780112	-0.025686
H	-0.9217817245	 1.9441027979	-0.1468277486	 0.122173
H	-0.0157111346	 1.7152751276	 1.3538209356	 0.125386
H	 0.8406849552	 2.0649445588	-0.1443163805	 0.130053
H	-0.7304693933	-0.5359033291	 0.4781180602	 0.090405
H	-0.026001917	-1.421934466	-1.6887003198	 0.094095
H	 1.5377943093	-0.3395053689	-3.1892013274	 0.115465
H	 0.7671678209	 1.1408873251	-2.6400142881	 0.114176
H	 3.5324716013	 0.336841594	-2.1340694093	 0.127332
H	 2.7352957904	 1.750110705	-1.464512201	 0.128239
H	 3.3719057974	-0.3774908668	 1.5742159015	 0.067553
H	 1.4948728101	-1.6794294718	 0.4592132168	 0.10531
44.8521	102.5722	134.2179	188.1281	219.5089	240.7646	335.6137	435.5879	483.6386	568.565	707.5948	731.3595	762.6971	768.4445	833.6037	864.7193	925.7281	958.1872	991.9291	1029.4013	1037.2949	1050.094	1074.9698	1120.4408	1131.6164	1135.1336	1214.0611	1216.6697	1243.5342	1254.035	1305.016	1315.6436	1346.6366	1373.7259	1393.9897	1423.34	1436.0755	1456.3008	1487.7849	1499.3673	1504.8719	1530.0481	1785.1798	2931.2123	3037.5268	3045.448	3058.1782	3071.8317	3093.758	3098.9248	3116.506	3133.2003	3163.9732	3176.1724
CC1C2CCN(C=O)C12	C[C@H]1[C@H]2CCN(C=O)[C@@H]12	
InChI=1S/C7H11NO/c1-5-6-2-3-8(4-9)7(5)6/h4-7H,2-3H2,1H3	InChI=1S/C7H11NO/c1-5-6-2-3-8(4-9)7(5)6/h4-7H,2-3H2,1H3/t5-,6+,7-/m0/s1
