19
gdb 120596	3.87475	0.77397	0.7213	3.7053	78.9	-0.2673	0.0155	0.2829	1612.6522	0.157442	-419.183705	-419.173592	-419.172648	-419.219473	35.283	
C	-0.2278542587	 1.3199714474	 0.0248616374	-0.228014
O	-0.1426918908	-0.0826486131	-0.0759934784	-0.234154
C	 0.7889877443	-0.5061737026	-1.0451506452	-0.066266
C	 0.7809677705	-2.0139167484	-1.0407621933	-0.057654
N	-0.0884054242	-2.7000009778	-1.9971171298	-0.348237
C	 1.3774150094	-2.840486746	-2.1440495414	 0.153008
C	 2.001025127	-2.2555230468	-3.3983117219	-0.454273
C	 1.9615814246	-4.0980415669	-1.7216930623	 0.238935
N	 2.4225393208	-5.1102979864	-1.4031272053	-0.337791
H	 0.7378829372	 1.7679473384	 0.3080459638	 0.106343
H	-0.5550702996	 1.7780143762	-0.9215811575	 0.108912
H	-0.963550504	 1.5458711437	 0.7999584157	 0.132916
H	 0.5199395272	-0.1233103277	-2.0406153349	 0.099853
H	 1.7994334744	-0.1341415154	-0.8001706623	 0.094123
H	 0.8587196508	-2.4342608361	-0.0402936999	 0.117509
H	-0.4976916962	-3.5365478343	-1.5888092922	 0.253058
H	 1.4740041772	-1.3475719194	-3.6932734012	 0.140106
H	 3.0569851983	-2.0213350949	-3.2353333782	 0.137707
H	 1.9326155619	-2.97178746	-4.2219199731	 0.143917
57.2512	84.045	106.4513	154.3509	172.1745	198.395	232.361	266.752	327.0067	387.0975	405.677	490.9831	585.1168	606.9653	680.7682	834.4991	872.2683	944.4627	985.0543	1007.4054	1073.0301	1087.7706	1104.1539	1121.694	1159.3648	1182.5394	1212.6768	1235.2306	1273.9301	1289.6592	1330.01	1389.5832	1417.1268	1465.1513	1478.4797	1485.7336	1486.878	1498.3433	1499.7543	1522.6841	2346.9749	2952.5623	2973.0768	3010.9853	3018.0742	3052.4728	3119.1391	3120.1391	3139.8037	3150.5749	3512.3568
COCC1NC1(C)C#N	COC[C@H]1N[C@]1(C)C#N	
InChI=1S/C6H10N2O/c1-6(4-7)5(8-6)3-9-2/h5,8H,3H2,1-2H3	InChI=1S/C6H10N2O/c1-6(4-7)5(8-6)3-9-2/h5,8H,3H2,1-2H3/t5-,6-/m1/s1
