19
gdb 68759	2.37218	1.71323	1.21549	3.8085	75.73	-0.2341	-0.0086	0.2255	1067.4792	0.158316	-423.053696	-423.044875	-423.04393	-423.086736	33.856	
C	-0.1213201516	 1.5789119937	 0.0446979104	-0.479332
C	-0.0771167788	 0.0738022069	 0.0791319922	 0.17571
C	 1.2264041907	-0.6681793141	-0.2668483683	-0.397702
C	 0.6702262299	-0.7503675345	 1.1172867409	 0.365703
O	 1.3079823827	-0.084113864	 2.1610433979	-0.468187
C	-0.1521268666	-1.9909535787	 1.4616263383	-0.282788
C	-1.1922072357	-2.1152744863	 0.3298666241	-0.345817
C	-1.3169343836	-0.6989759948	-0.2537806616	 0.371088
O	-2.2840143525	-0.2586364921	-0.8260373569	-0.328838
H	 0.7816491218	 2.000046502	 0.4934543571	 0.12439
H	-0.2094902233	 1.9424536952	-0.9833307878	 0.129971
H	-0.9858293129	 1.9526895012	 0.6011612931	 0.130995
H	 1.2058380691	-1.5303724118	-0.9261074436	 0.116298
H	 2.0780390532	-0.0102945249	-0.4052860838	 0.123147
H	 2.1513478455	-0.5187071876	 2.3275596832	 0.287305
H	 0.4700261224	-2.8857618555	 1.5750797013	 0.096735
H	-0.647515217	-1.8086129749	 2.4207942625	 0.120305
H	-0.8573739491	-2.7957524839	-0.4620737261	 0.129043
H	-2.170561154	-2.469495346	 0.6592100973	 0.131976
103.844	145.0078	184.65	210.5726	242.9115	259.2417	332.5555	426.5801	439.3977	480.9521	546.3912	564.5687	661.9632	672.2526	689.9681	807.7956	856.3242	903.0974	938.2937	964.6888	991.0871	1027.8548	1046.2185	1074.1582	1105.2094	1125.5263	1187.7315	1219.9719	1233.0035	1275.9298	1306.0788	1320.7377	1356.8166	1402.4629	1415.0855	1462.0817	1483.8521	1486.0167	1495.2786	1507.457	1827.6088	3038.401	3045.2871	3047.3647	3084.1864	3110.1353	3120.0195	3123.2308	3126.7462	3213.8277	3802.2877
CC12CC1(O)CCC2=O	C[C@@]12C[C@]1(O)CCC2=O	
InChI=1S/C7H10O2/c1-6-4-7(6,9)3-2-5(6)8/h9H,2-4H2,1H3	InChI=1S/C7H10O2/c1-6-4-7(6,9)3-2-5(6)8/h9H,2-4H2,1H3/t6-,7+/m0/s1
