15
gdb 31200	2.30836	1.55536	0.93757	4.6398	77.15	-0.2026	0.0017	0.2043	1185.3123	0.11362	-416.851274	-416.842841	-416.841897	-416.884919	30.075	
C	-0.1020814195	 1.4619609403	 0.091328813	-0.335212
N	-0.0624466774	 0.0348527514	-0.1864187625	-0.401632
C	-1.1636964997	-0.7487061232	-0.0760903676	 0.394453
C	-1.3136341422	-2.1225478578	 0.0046642381	 0.050186
C	-2.7402815545	-2.352412743	 0.0328378711	-0.277885
C	-3.3277084392	-1.1415472945	-0.0230188771	-0.02853
O	-2.3638576458	-0.1457918545	-0.087496503	-0.182971
C	-0.2531676932	-3.0460711875	 0.0531196666	 0.172691
N	 0.6494860755	-3.7752632488	 0.0946800824	-0.37177
H	 0.8583180333	 1.8956792171	-0.1920850516	 0.140119
H	-0.8831312728	 1.932707685	-0.5091887411	 0.156036
H	-0.2956465453	 1.6878847023	 1.148811899	 0.132652
H	 0.8054198426	-0.4452287685	-0.0043485888	 0.272023
H	-3.2299335506	-3.3109218793	 0.0909799382	 0.133768
H	-4.344859351	-0.7924205989	-0.0237629868	 0.146071
72.8344	113.818	129.2968	171.8298	227.8146	286.201	413.0971	483.404	531.3088	547.673	609.579	629.1886	674.0761	738.4663	755.0016	832.7313	901.1897	1046.1662	1050.2805	1095.0067	1150.9594	1167.048	1198.5261	1282.3956	1313.3686	1444.4955	1452.4547	1487.3839	1504.1246	1517.0345	1592.8312	1663.905	2323.5807	3012.0505	3103.1127	3144.7988	3270.36	3307.3509	3628.5851
CNC1=C(C=CO1)C#N	CNc1c(cco1)C#N	
InChI=1S/C6H6N2O/c1-8-6-5(4-7)2-3-9-6/h2-3,8H,1H3	InChI=1S/C6H6N2O/c1-8-6-5(4-7)2-3-9-6/h2-3,8H,1H3
