16
gdb 46670	2.85455	1.81681	1.35939	3.7771	69.4	-0.2401	-0.0358	0.2043	935.2935	0.125157	-437.787951	-437.781168	-437.780224	-437.819079	27.308	
O	 0.0425093419	 0.0220143102	 0.0748673204	-0.295648
C	 0.032881945	 1.2192419449	 0.02874986	 0.27608
C	-1.2475915028	 2.1255214568	 0.0421567464	-0.268914
N	-0.8095760346	 3.5371525934	-0.1429420803	-0.3434
C	 0.4775476823	 3.4366598168	-0.804562038	-0.013723
C	 1.8884070823	 3.8551103344	-0.2443756264	-0.008728
C	 1.5554820081	 3.1896449044	 1.0929367185	-0.258868
C	 1.1122530472	 2.2556489264	-0.0894260013	 0.339931
O	 2.3980685203	 2.5278963482	-0.7523794049	-0.369944
H	-1.8883284679	 1.7546435934	-0.7710267571	 0.135144
H	-1.7959205564	 1.989308637	 0.9804465144	 0.140867
H	-1.4934863747	 4.0809026837	-0.6534313477	 0.230746
H	 0.4700380299	 3.3518470444	-1.898257211	 0.085714
H	 2.5182625464	 4.7147409601	-0.4746522423	 0.101042
H	 2.4118899496	 2.8122849876	 1.6505719106	 0.119005
H	 0.7748982033	 3.6351444381	 1.7063926687	 0.130696
117.6205	184.8739	299.7069	344.4858	482.6496	530.6839	557.8708	572.9848	599.3745	616.0855	722.3938	790.9717	834.7083	883.5699	924.6239	936.4746	987.3065	997.6406	1013.7557	1038.8567	1061.7617	1097.0014	1112.9309	1154.6887	1181.353	1197.9697	1217.5829	1230.0546	1278.7482	1288.4303	1372.7819	1424.222	1468.9136	1480.1562	1864.1664	3005.8994	3033.9144	3069.9821	3098.3754	3118.293	3185.3211	3558.4157
O=C1CNC2C3CC12O3	O=C1CN[C@H]2[C@H]3C[C@@]12O3	
InChI=1S/C6H7NO2/c8-4-2-7-5-3-1-6(4,5)9-3/h3,5,7H,1-2H2	InChI=1S/C6H7NO2/c8-4-2-7-5-3-1-6(4,5)9-3/h3,5,7H,1-2H2/t3-,5+,6-/m1/s1
