14
gdb 9975	3.16361	1.42406	1.02538	2.4279	70.44	-0.2545	-0.0362	0.2182	1084.1762	0.102797	-345.338875	-345.329999	-345.329055	-345.372986	30.903	
O	-0.0372222493	-0.0384576925	 0.0744003832	-0.231337
C	 0.0145208753	 1.157243246	 0.0150936125	 0.17863
C	 1.3205860455	 1.9664982592	-0.001915753	-0.246128
C	 1.3881355223	 2.8481914254	-1.285756916	-0.369993
C	 1.3974602044	 2.0561602211	-2.5075635343	 0.289259
C	 1.4003318768	 1.3761495287	-3.497975479	-0.422237
C	 1.3641086127	 2.7943168183	 1.1968976295	 0.295722
C	 1.3488788307	 3.4863778613	 2.1797575428	-0.433546
H	-0.8999261211	 1.7905097	-0.0232103457	 0.089984
H	 2.1449225338	 1.2467477417	-0.0084622998	 0.13822
H	 0.5345982119	 3.5372314584	-1.2847297587	 0.146363
H	 2.2857920207	 3.472508004	-1.2249205162	 0.15325
H	 1.401899991	 0.7816667211	-4.3780591416	 0.204613
H	 1.3572903352	 4.0871823272	 3.0557984163	 0.207201
64.6328	65.7167	113.1606	168.9295	215.2191	294.3095	341.9395	434.2778	487.9363	489.8833	555.4499	635.6004	650.1205	651.7699	658.2115	842.2149	933.1416	977.1912	997.79	1060.648	1080.9085	1197.0732	1270.9628	1300.0869	1345.7999	1416.713	1471.8519	1847.3098	2232.9637	2243.0271	2885.7938	3035.8454	3068.7042	3079.8532	3502.1313	3505.6675
O=CC(CC#C)C#C	O=C[C@@H](CC#C)C#C	
InChI=1S/C7H6O/c1-3-5-7(4-2)6-8/h1-2,6-7H,5H2	InChI=1S/C7H6O/c1-3-5-7(4-2)6-8/h1-2,6-7H,5H2/t7-/m1/s1
