21
gdb 75381	2.52925	1.71069	1.20513	1.2859	83.22	-0.2364	0.0273	0.2637	1101.7219	0.185071	-387.121951	-387.113903	-387.112959	-387.154666	31.448	
C	 0.3530531388	 1.3670802413	 0.1260423394	-0.496183
C	 0.0588231271	-0.0939132877	 0.0057157664	 0.3253
C	 0.0131038207	-0.8412044821	-1.0977274191	-0.171135
C	-0.2991650884	-2.2911612838	-0.8306447405	-0.272389
C	-0.3913875036	-2.3861297049	 0.7181983791	-0.042229
C	 0.7613128591	-3.1522912342	 1.4069022846	-0.226534
C	 1.7455047211	-2.0333955447	 1.7702974408	-0.083763
O	 0.9211860901	-0.9364100883	 2.1398490114	-0.259625
C	-0.2002105594	-0.9275154167	 1.2446843093	 0.013097
H	 1.1859068112	 1.5292324254	 0.8195463451	 0.139953
H	 0.6077953427	 1.8139784624	-0.8387205448	 0.117583
H	-0.506483487	 1.9118147083	 0.5382943012	 0.122075
H	 0.1768771277	-0.4634254299	-2.1030086028	 0.084945
H	-1.2401797935	-2.5944824898	-1.3076931591	 0.104424
H	 0.4712288946	-2.9567867545	-1.2423242536	 0.100343
H	-1.3572244309	-2.7959997612	 1.0179442194	 0.075005
H	 0.4025850208	-3.6352797225	 2.3209470704	 0.104035
H	 1.2030608679	-3.922292411	 0.7687697447	 0.097295
H	 2.391725243	-2.2664435389	 2.6207437689	 0.105005
H	 2.3832311861	-1.7772086821	 0.9095488206	 0.090283
H	-1.0445386782	-0.5436486953	 1.8297740985	 0.072515
65.2545	167.149	185.8447	218.4424	262.4821	341.1632	406.3597	515.8755	568.5596	630.1007	669.1429	753.6455	824.567	840.237	878.2421	894.4457	928.6387	952.175	963.8185	971.4672	1011.3777	1034.9802	1056.7105	1066.9519	1091.6145	1111.0778	1178.5641	1195.5691	1207.407	1237.6487	1268.68	1281.9605	1309.7074	1323.5096	1336.36	1351.5836	1362.6982	1388.4524	1409.119	1476.242	1485.6957	1492.741	1497.839	1515.2146	1731.1782	2979.4993	3013.2436	3019.5238	3031.5433	3034.6263	3052.864	3073.5963	3089.421	3091.4727	3105.7213	3112.9293	3171.7003
CC1=CCC2CCOC12	CC1=CC[C@H]2CCO[C@@H]12	
InChI=1S/C8H12O/c1-6-2-3-7-4-5-9-8(6)7/h2,7-8H,3-5H2,1H3	InChI=1S/C8H12O/c1-6-2-3-7-4-5-9-8(6)7/h2,7-8H,3-5H2,1H3/t7-,8-/m0/s1
