20
gdb 106246	2.72425	1.24448	1.04657	2.7631	80.78	-0.2273	-0.0175	0.2098	1238.2056	0.169046	-403.125814	-403.116499	-403.115555	-403.160021	34.628	
C	 0.1758140737	 1.501884956	 0.1858577232	-0.38264
C	-0.1206728819	 0.0217329995	-0.093657129	-0.274538
C	 0.565578105	-0.4758141695	-1.3350708892	 0.342208
C	 0.1612902123	-0.1246199287	-2.7854002456	-0.430679
C	 0.4713423148	-1.6035109424	-3.1396537629	 0.420573
O	 0.2549067766	-2.2726041044	-4.1093415279	-0.312285
C	 0.9189701611	-1.9213660209	-1.7295167993	-0.245301
N	 1.9173124691	-0.9607732042	-1.2641954968	-0.114483
C	 3.0117160023	-0.4989623148	-2.1135294943	-0.326973
H	 1.2485389013	 1.6628589694	 0.3319361229	 0.126187
H	-0.1502798315	 2.1373896416	-0.6444302077	 0.11962
H	-0.3421818062	 1.8399025593	 1.088049526	 0.118652
H	 0.2124924103	-0.5898900878	 0.7510325179	 0.113788
H	-1.2026795436	-0.1269739544	-0.1981242967	 0.102066
H	-0.9103269992	 0.061715772	-2.9072196039	 0.131859
H	 0.7185051519	 0.6651030195	-3.2951727129	 0.121259
H	 0.8092670329	-2.8623890663	-1.200216462	 0.107619
H	 2.7448070102	-0.2821025926	-3.1561552406	 0.119302
H	 3.4345582973	 0.4077546053	-1.6703086693	 0.128461
H	 3.7885764136	-1.2685793765	-2.116116242	 0.135304
72.7163	98.4047	149.3721	158.0175	208.0151	279.6619	307.9034	344.698	425.7609	468.3515	482.0351	598.4571	624.6833	690.7621	725.8686	785.582	853.464	921.5579	953.986	972.2862	982.2641	1014.1012	1067.011	1079.341	1116.3633	1151.9731	1162.5194	1172.024	1190.9682	1219.7569	1247.1519	1314.0783	1349.4671	1406.0352	1420.6504	1447.073	1468.6217	1473.5756	1496.3911	1498.4487	1500.4081	1507.3068	1879.754	3010.245	3030.6333	3036.2104	3060.8888	3077.6425	3083.2747	3107.4628	3111.9981	3112.5384	3114.6058	3170.1756
CCC12CC(=O)C1N2C	CC[C@]12CC(=O)[C@H]1N2C	
InChI=1S/C7H11NO/c1-3-7-4-5(9)6(7)8(7)2/h6H,3-4H2,1-2H3	InChI=1S/C7H11NO/c1-3-7-4-5(9)6(7)8(7)2/h6H,3-4H2,1-2H3/t6-,7+,8?/m1/s1
