18
gdb 48815	3.09712	1.37297	1.11927	3.2038	77.55	-0.2423	-0.0233	0.219	1108.3606	0.149025	-401.953884	-401.94609	-401.945146	-401.986277	30.029	
O	-0.4481098797	 0.3842855712	 0.4614114875	-0.269823
C	 0.3674326475	 0.8043806583	-0.3216414515	 0.13587
C	 1.2918389218	 1.9439555585	-0.0489413159	 0.192298
C	 1.3772367331	 2.4094701789	 1.3911569022	-0.346609
C	 2.0086291485	 3.7622248796	 1.5579329029	-0.056988
C	 2.1816353164	 4.6359037759	 0.5675253344	-0.080324
C	 1.7535134609	 4.3858679785	-0.8528224575	-0.281324
C	 1.4992682095	 2.9242322456	-1.1705133632	-0.044182
N	 2.5074812005	 1.9034673939	-0.9035414605	-0.367784
H	 0.4928994748	 0.3671467925	-1.3366060596	 0.085652
H	 0.3613637396	 2.403613432	 1.8076495927	 0.143454
H	 1.9250026184	 1.6621735238	 1.9816839394	 0.119517
H	 2.327490743	 4.0226454463	 2.5638021328	 0.095603
H	 2.6380266511	 5.6003544728	 0.7732950833	 0.094493
H	 0.8363046883	 4.9530504312	-1.0683947757	 0.126087
H	 2.5057427894	 4.7788406669	-1.5513053411	 0.118302
H	 0.9583373183	 2.754073965	-2.1000642995	 0.097131
H	 3.2767114387	 2.315121359	-0.3763132107	 0.238625
93.5447	122.2812	215.7096	246.2439	355.3592	370.6033	404.7462	459.6256	556.8872	589.4292	685.8824	735.1306	767.0586	843.0235	861.9437	934.2156	952.7018	969.4684	982.0014	1013.1851	1040.7856	1061.7801	1080.0305	1142.6857	1182.2974	1201.186	1217.246	1245.3534	1319.4029	1329.6718	1359.8222	1388.0145	1407.9573	1425.7065	1441.1384	1476.0004	1478.7279	1729.7666	1818.8899	2898.1392	3003.0693	3016.8665	3024.9961	3043.6455	3117.209	3152.4785	3174.8594	3477.4814
O=CC12CC=CCC1N2	O=C[C@]12CC=CC[C@H]1N2	
InChI=1S/C7H9NO/c9-5-7-4-2-1-3-6(7)8-7/h1-2,5-6,8H,3-4H2	InChI=1S/C7H9NO/c9-5-7-4-2-1-3-6(7)8-7/h1-2,5-6,8H,3-4H2/t6-,7-/m1/s1
