18
gdb 46937	2.80385	1.79422	1.36616	3.3051	75.19	-0.2395	-0.0225	0.217	966.7277	0.150505	-401.937294	-401.930433	-401.929489	-401.968517	27.902	
O	 0.0536064964	-0.0434888714	 0.0451888942	-0.324621
C	-0.0341102312	 1.1634261252	-0.0189538424	 0.401633
C	-1.3737511676	 1.8690524011	-0.1652366257	-0.328215
C	-1.2508317304	 3.2501665097	-0.826961166	-0.224745
C	-0.0616174956	 4.0234544678	-0.2780567775	 0.032699
C	 0.2075020361	 3.9851946218	 1.2554470322	-0.281294
C	 1.4499050672	 3.1781676372	 0.9125176711	-0.028803
C	 1.2035277223	 2.0068155565	 0.0160988087	-0.121272
N	 1.2830298821	 3.3719697444	-0.5687176331	-0.15628
H	-2.0457042883	 1.2001022981	-0.7091767326	 0.128177
H	-1.7952951718	 1.9702742357	 0.8436965261	 0.132219
H	-1.1140021339	 3.1385550281	-1.909651439	 0.121005
H	-2.1725621587	 3.8247553464	-0.6819967851	 0.107588
H	-0.0378111547	 5.0353226873	-0.6863400262	 0.092836
H	 0.4609269162	 4.9716724238	 1.6478408698	 0.119177
H	-0.534869488	 3.5306132419	 1.9166439059	 0.109041
H	 2.4177722675	 3.2790161145	 1.3944246999	 0.105381
H	 2.0924772923	 1.4210579418	-0.1993968303	 0.115475
92.6994	232.7002	302.6575	336.3228	425.6031	471.7876	509.0034	575.0335	658.6442	729.1162	748.5873	789.2553	802.4868	835.6831	900.7732	907.9628	974.8459	992.6309	1010.4771	1045.4201	1071.5129	1102.9012	1109.1493	1142.8906	1183.1356	1187.8609	1222.0185	1263.9161	1273.1856	1286.0442	1326.5912	1341.6502	1371.2994	1383.6696	1392.7452	1457.1211	1483.3247	1503.9172	1793.8369	3028.1113	3031.5886	3065.8436	3072.0391	3089.354	3099.4951	3119.3686	3154.1244	3165.779
O=C1CCC2CC3C1N23	O=C1CC[C@H]2C[C@H]3[C@@H]1N23	
InChI=1S/C7H9NO/c9-6-2-1-4-3-5-7(6)8(4)5/h4-5,7H,1-3H2	InChI=1S/C7H9NO/c9-6-2-1-4-3-5-7(6)8(4)5/h4-5,7H,1-3H2/t4-,5-,7-,8?/m0/s1
