18
gdb 38935	2.81976	2.07602	1.48281	1.1269	69.67	-0.2184	0.0542	0.2727	900.7743	0.150779	-439.02737	-439.0208	-439.019856	-439.058543	26.687	
C	 0.0156326568	 1.3393822964	-0.4906660346	-0.199619
C	 1.4491668595	 1.5634835904	 0.0671295662	 0.116568
O	 1.6175134959	 2.6290397209	 0.9869984415	-0.260874
C	 1.6367434551	 2.2095758719	 2.3289067331	 0.01056
O	 0.5478606526	 1.3879505484	 2.6541763912	-0.255609
C	 0.6507762527	 0.1065901776	 2.0416558634	 0.094638
C	-0.6393610224	-0.2893641322	 1.2885215757	-0.191107
N	 0.0163521984	-0.0992450508	-0.0475544558	-0.139099
C	 1.3407910132	 0.1377016492	 0.6525959429	-0.075015
H	-0.73586294	 1.9638740794	 0.0018118037	 0.115568
H	-0.0884184336	 1.4362158409	-1.5750448919	 0.106851
H	 2.2089462781	 1.6707616871	-0.7121551741	 0.091172
H	 2.584626852	 1.6878456699	 2.5535949682	 0.08212
H	 1.5575696209	 3.1120538803	 2.9379745395	 0.122944
H	 1.0448170737	-0.6185800059	 2.7642940159	 0.078605
H	-0.9314218365	-1.3342271228	 1.431359947	 0.108951
H	-1.4998536712	 0.3575771794	 1.4810467677	 0.117409
H	 2.1512074248	-0.5729521402	 0.4772517503	 0.075936
65.9141	280.1345	355.8323	363.563	421.1919	473.6458	523.3643	658.0662	720.7577	763.1128	789.8991	828.8305	877.1251	939.954	957.4847	974.579	993.4325	1002.7124	1027.9121	1047.0169	1087.7563	1110.5663	1167.0565	1176.2521	1192.3331	1220.0169	1222.9396	1245.1393	1279.973	1287.9922	1309.1572	1311.2534	1321.9709	1356.9778	1383.3333	1443.6692	1478.4173	1497.7945	1518.4718	2936.0921	3020.1635	3043.4877	3047.5746	3058.5455	3083.7982	3101.1987	3104.5388	3113.3137
C1C2OCOC3CN1C23	C1[C@H]2OCO[C@H]3CN1[C@@H]23	
InChI=1S/C6H9NO2/c1-4-6-5(2-7(1)6)9-3-8-4/h4-6H,1-3H2	InChI=1S/C6H9NO2/c1-4-6-5(2-7(1)6)9-3-8-4/h4-6H,1-3H2/t4-,5+,6+
