22
gdb 114128	4.27241	0.91354	0.83993	1.6376	83.96	-0.2039	0.0896	0.2935	1479.1618	0.192466	-404.287463	-404.27775	-404.276806	-404.322186	35.993	
C	-0.1016365558	 1.5586380077	-0.0195819689	-0.377514
C	-0.2018429566	 0.0350183968	-0.0532411884	-0.122814
N	 0.653625517	-0.5272255622	-1.0873009186	-0.069947
C	 2.1328502949	-0.544765004	-0.8698920202	-0.255364
C	 2.130477534	-2.054445262	-1.1540826842	 0.427533
C	 1.2485059362	-2.7682118089	-0.157556677	-0.359767
C	 0.6351694624	-1.9729366473	-1.3025712001	-0.107914
O	 3.022908012	-2.7005437197	-1.9758312964	-0.281323
C	 4.2171217212	-3.0865209564	-1.3149031744	-0.256112
H	 0.915656576	 1.8826638206	 0.2257884593	 0.115965
H	-0.363089266	 1.9819368534	-0.9936109179	 0.124373
H	-0.7737401518	 1.9750775265	 0.7370622904	 0.110609
H	 0.0203435911	-0.3719090311	 0.9514054985	 0.073647
H	-1.230864559	-0.2635317656	-0.2882791832	 0.101573
H	 2.6654916864	 0.0454155963	-1.6223558717	 0.111674
H	 2.462491932	-0.24245495	 0.1334576547	 0.09135
H	 1.2056995322	-3.8435956126	-0.3021998305	 0.115892
H	 1.1657355825	-2.4405599014	 0.8753356635	 0.105199
H	-0.0286810319	-2.4224140368	-2.0330639269	 0.100934
H	 4.7726363168	-2.2164927468	-0.9369325154	 0.111468
H	 4.0085506119	-3.7607866234	-0.4728020543	 0.112442
H	 4.8340838344	-3.6072971933	-2.0503471682	 0.128099
73.2637	95.5924	123.2989	154.285	190.1578	230.9475	287.3947	339.462	378.4119	411.4892	432.9022	528.5947	636.6289	691.3997	803.4616	818.6389	879.7814	910.7062	951.5038	968.2457	992.5342	1005.5912	1040.257	1070.0104	1081.0152	1091.0611	1117.3068	1151.1683	1180.7908	1196.1541	1203.5032	1216.9434	1239.0079	1280.489	1301.1944	1315.3325	1385.3074	1396.8943	1411.7977	1467.8467	1486.4171	1487.1713	1490.3031	1493.8637	1504.4953	1507.8333	1513.9436	2921.3147	2992.2245	3005.0779	3036.1853	3043.9202	3046.5017	3072.3373	3102.799	3113.2579	3117.4214	3123.1018	3169.2624	3205.0807
CCN1CC2(CC12)OC	CCN1C[C@]2(C[C@@H]12)OC	
InChI=1S/C7H13NO/c1-3-8-5-7(9-2)4-6(7)8/h6H,3-5H2,1-2H3	InChI=1S/C7H13NO/c1-3-8-5-7(9-2)4-6(7)8/h6H,3-5H2,1-2H3/t6-,7+/m1/s1
