25
gdb 116447	2.44651	1.20999	0.94323	1.2956	88.34	-0.2387	0.0805	0.3192	1388.2992	0.230073	-389.512344	-389.502622	-389.501677	-389.546547	37.673	
C	 0.0619875455	 1.595536254	-0.1088305089	-0.390419
C	-0.0684076332	 0.0748343721	 0.034565464	-0.194746
C	 0.625700845	-0.499865516	 1.2803961268	 0.039299
C	-0.0497027705	-0.0959916336	 2.603537679	-0.211195
C	 0.6957198435	-0.7125806426	 3.7951909665	-0.208791
C	 0.858433015	-2.2192657278	 3.5953036703	-0.068284
O	 1.4836554948	-2.5216920776	 2.3583313772	-0.265499
C	 0.7919763681	-2.0359383938	 1.2050788625	 0.110891
C	-0.4997311903	-2.8248172917	 0.9464269754	-0.411544
H	 1.1140627128	 1.8996333303	-0.1448625406	 0.114904
H	-0.4165557767	 1.9444985932	-1.0292052804	 0.111661
H	-0.4077615943	 2.1260033862	 0.7251465549	 0.118779
H	-1.1311813522	-0.1985987644	 0.0453999559	 0.096136
H	 0.3581155882	-0.4012124367	-0.8588848977	 0.09195
H	 1.6500617673	-0.0997204599	 1.3062965058	 0.071697
H	-0.0766810987	 0.9943239227	 2.7000355234	 0.094765
H	-1.0962853042	-0.43074867	 2.6063320134	 0.092832
H	 1.6904470712	-0.2575613664	 3.8803550357	 0.100671
H	 0.1667285895	-0.5174262924	 4.7354557251	 0.089024
H	 1.5034350487	-2.6541866488	 4.3650726942	 0.101955
H	-0.1224933829	-2.7158005299	 3.6724924948	 0.08297
H	 1.4812562185	-2.2571482881	 0.3811142875	 0.077044
H	-1.2959194398	-2.5893844789	 1.6582871941	 0.116001
H	-0.8824853376	-2.6198638085	-0.0572342817	 0.117557
H	-0.2863307777	-3.8950765116	 1.0174025529	 0.122343
81.7695	121.6014	168.0312	204.7982	225.7865	234.1327	294.7673	329.7285	342.5156	418.5193	432.2863	485.3465	548.5158	625.8593	753.0632	788.7391	848.5458	860.026	884.9759	912.4969	951.2967	979.4767	1005.3516	1029.1811	1050.9894	1064.7915	1071.6894	1121.7594	1152.0138	1170.4888	1185.0195	1218.2655	1245.131	1292.1879	1302.1552	1320.2237	1347.2736	1352.022	1374.2645	1379.2402	1386.7582	1402.9139	1406.0798	1410.3114	1414.8873	1477.4185	1484.3469	1487.1505	1491.1869	1500.8142	1503.9539	1508.8477	1511.6334	2973.9653	2992.1737	3009.3951	3017.2193	3024.8172	3030.6205	3033.2769	3044.9138	3047.9091	3065.7744	3071.4423	3077.4597	3099.8827	3105.878	3115.6184	3119.4324
CCC1CCCOC1C	CC[C@H]1CCCO[C@H]1C	
InChI=1S/C8H16O/c1-3-8-5-4-6-9-7(8)2/h7-8H,3-6H2,1-2H3	InChI=1S/C8H16O/c1-3-8-5-4-6-9-7(8)2/h7-8H,3-6H2,1-2H3/t7-,8-/m0/s1
