16
gdb 67750	3.1587	2.08216	1.48171	2.7839	72.34	-0.2286	-0.0093	0.2193	867.6349	0.124333	-400.602569	-400.596045	-400.5951	-400.63291	27.601	
O	-0.0446097115	 1.4786399735	 0.0598442488	-0.482169
C	-0.0186165198	 0.0903856508	 0.0336478666	 0.331005
C	 0.8500316857	-0.6769309551	 1.0803340077	-0.171087
C	 0.6304206958	-1.985697119	 0.8857679076	-0.24959
C	-0.3615374741	-1.9304792608	-0.268015166	 0.250004
C	-1.3248836798	-2.433751611	-1.3549076406	-0.268996
N	-1.4306790135	-0.9105733463	-1.5634354704	-0.193243
C	-1.3179695251	-0.7286030314	-0.02874409	-0.032089
C	 0.0789225815	-0.7992327611	-1.2360603972	-0.074215
H	 0.8532840559	 1.8072779585	-0.0555462994	 0.282034
H	 1.4827942417	-0.1954431484	 1.8142548209	 0.10894
H	 1.0416328583	-2.8382259991	 1.4071746171	 0.116476
H	-0.9021535675	-2.9610712123	-2.2154855742	 0.108487
H	-2.2649159625	-2.8948644834	-1.0368564333	 0.109647
H	-2.2015393974	-0.692505097	 0.6120603753	 0.085171
H	 0.8401851323	-0.8510688679	-2.018624553	 0.079626
206.3348	292.9297	307.9583	369.2605	425.249	465.1985	570.0367	624.7801	670.6122	708.3187	745.5437	770.081	824.1141	841.1949	881.6267	882.8061	897.244	950.236	971.3018	1040.3063	1055.5277	1057.8016	1078.7164	1089.1721	1106.6417	1172.2335	1177.1136	1199.7134	1235.7527	1262.0038	1290.9345	1314.1261	1381.2058	1513.6391	1590.0696	3044.0782	3086.6153	3100.5819	3108.134	3214.8176	3242.2956	3809.7203
OC12C=CC34CN(C13)C24	O[C@@]12C=C[C@@]34CN([C@H]13)[C@@H]24	
InChI=1S/C7H7NO/c9-7-2-1-6-3-8(4(6)7)5(6)7/h1-2,4-5,9H,3H2	InChI=1S/C7H7NO/c9-7-2-1-6-3-8(4(6)7)5(6)7/h1-2,4-5,9H,3H2/t4-,5+,6+,7-
