18
gdb 52060	2.59118	1.17439	0.93595	2.8299	79.14	-0.2504	0.025	0.2755	1277.6819	0.146282	-401.929272	-401.919848	-401.918904	-401.964201	34.432	
O	 0.6749679389	 0.3105061963	 1.2217205607	-0.329652
C	 0.3104920199	 1.2381640968	 0.5277187116	 0.163429
N	 1.0121372345	 1.7622328838	-0.5118994866	-0.263525
C	 2.3538931542	 1.3136768378	-0.8470350601	-0.248709
C	 3.4512780822	 2.1833052756	-0.2393135461	 0.158854
C	 3.831945518	 1.9182165922	 1.2106532691	-0.291828
C	 4.7686727316	 1.5073378069	 0.1131962633	-0.302612
C	 3.477514211	 3.5374768426	-0.7226487421	 0.268925
C	 3.4570488681	 4.662163111	-1.1515388831	-0.474175
H	-0.6645078541	 1.7455562319	 0.6648278642	 0.079919
H	 0.671223078	 2.6085384989	-0.9404042355	 0.254824
H	 2.4450057601	 0.2935040551	-0.4688397565	 0.141223
H	 2.4574737941	 1.2908951659	-1.9367810483	 0.117369
H	 4.1016067961	 2.7748915685	 1.8164342137	 0.126278
H	 3.2564384567	 1.1540149488	 1.7202206412	 0.153435
H	 4.8585652014	 0.4525770445	-0.124309604	 0.123366
H	 5.6746579676	 2.0827291927	-0.0339795218	 0.128145
H	 3.4610033116	 5.6575980006	-1.5209422696	 0.194734
49.0719	65.3624	129.7922	183.7113	220.7949	252.2594	303.8882	342.0248	438.7366	529.1753	540.2652	562.8664	585.0719	653.1929	708.3678	749.6781	794.0526	878.4603	937.0576	957.4924	962.0431	992.9812	1032.264	1056.5226	1071.2232	1094.2772	1195.5284	1209.7071	1258.3907	1283.8707	1353.5345	1388.2911	1428.983	1463.831	1472.6694	1498.3496	1531.1022	1796.9359	2228.8458	2943.404	3052.3876	3123.4433	3138.9169	3146.8093	3226.0556	3242.8873	3502.484	3633.5061
O=CNCC1(CC1)C#C	O=CNCC1(CC1)C#C	
InChI=1S/C7H9NO/c1-2-7(3-4-7)5-8-6-9/h1,6H,3-5H2,(H,8,9)	InChI=1S/C7H9NO/c1-2-7(3-4-7)5-8-6-9/h1,6H,3-5H2,(H,8,9)
