19
gdb 125892	3.56053	1.27782	1.0049	2.9231	83.89	-0.2213	0.0352	0.2565	1225.7013	0.160417	-382.070195	-382.061557	-382.060613	-382.104569	31.474	
C	-0.384635519	 1.6043666578	-0.227904197	-0.400549
C	 0.0486535039	 0.1786061411	 0.0563738315	 0.05621
C	 0.7509478778	-0.6417255614	-1.109063691	-0.408484
C	 1.9596367278	-0.6953770516	-0.1824984169	 0.324606
C	 3.2010488712	-1.0491269102	 0.3253410168	-0.003754
C	 4.3202948765	-1.8402687752	-0.2779597795	-0.508998
C	 3.1617797232	-0.4463263582	 1.6171203412	-0.052013
N	 2.0173579006	 0.2037910279	 1.8988800048	-0.323268
N	 1.3385472557	 0.0260303637	 0.7611893144	 0.084703
H	 0.4099093964	 2.1604417646	-0.734261998	 0.130137
H	-1.2753028724	 1.6075112737	-0.864395868	 0.125181
H	-0.6295013064	 2.1252325077	 0.7024347483	 0.142287
H	-0.7499612781	-0.386058407	 0.5488129629	 0.105946
H	 0.278167901	-1.6005576496	-1.335825224	 0.125675
H	 0.8796756593	-0.0759037285	-2.0357559679	 0.122974
H	 5.1184143489	-1.9959236004	 0.4535980815	 0.12642
H	 3.9896032093	-2.8285125256	-0.6168825456	 0.123881
H	 4.7651888692	-1.3351422825	-1.143346819	 0.125524
H	 3.950316185	-0.4672134162	 2.3575071657	 0.103522
33.2637	64.6311	167.955	210.0364	252.2342	271.2807	313.0821	427.1231	517.1981	625.7173	653.6051	669.7842	707.7554	752.1041	859.2798	869.5776	914.8691	982.2972	1001.1777	1057.2519	1068.0329	1089.4686	1107.9176	1160.3973	1180.3482	1204.2808	1219.0104	1258.1265	1310.9763	1353.9799	1368.4366	1405.0751	1411.5067	1421.5297	1471.6685	1486.4981	1486.896	1496.7226	1497.0381	1516.2638	1612.8367	3025.9054	3040.0295	3055.5242	3062.2243	3073.9961	3105.6398	3111.3047	3114.1136	3120.445	3228.4127
CC1CC2=C(C)C=NN12	C[C@H]1Cc2c(C)cnn12	
InChI=1S/C7H10N2/c1-5-4-8-9-6(2)3-7(5)9/h4,6H,3H2,1-2H3	InChI=1S/C7H10N2/c1-5-4-8-9-6(2)3-7(5)9/h4,6H,3H2,1-2H3/t6-/m0/s1
