19
gdb 8385	4.87475	1.20378	1.11631	2.1033	72.14	-0.2375	0.0743	0.3118	1121.5121	0.164761	-365.025345	-365.016988	-365.016044	-365.05808	31.719	
C	 0.2295172197	 1.4994036485	-0.4913410815	-0.391888
C	 0.1615190236	 0.0236344744	-0.183003678	-0.075113
N	 1.4429715542	-0.6496251387	 0.1325367394	-0.37945
C	 0.4098831914	-0.5261159638	 1.1656729068	 0.350493
C	 0.6980536853	 0.1648811399	 2.5049558848	-0.327744
C	 0.400593434	-1.1979728679	 3.1995174461	 0.17041
O	-0.3270238666	-1.2270039868	 4.3991008807	-0.432844
C	-0.2624673036	-1.7047403296	 1.8824291903	-0.353976
H	 0.9538136468	 1.9956439384	 0.1598393015	 0.127133
H	 0.5385601969	 1.6682107509	-1.5285049663	 0.120348
H	-0.7478011814	 1.9744418216	-0.3495150271	 0.111711
H	-0.543402758	-0.5385576495	-0.7963300442	 0.077666
H	 1.4461364992	-1.5932815142	-0.2488813075	 0.224468
H	 1.6904984328	 0.5987867023	 2.6394333958	 0.114281
H	-0.0614663523	 0.9150363645	 2.7574596044	 0.090688
H	 1.3263516836	-1.7419312967	 3.4043686662	 0.100557
H	-1.1403777313	-0.7279483697	 4.2676412453	 0.275994
H	-1.353876109	-1.6026177095	 1.9206272236	 0.095297
H	-0.0178178852	-2.7170749642	 1.5471660497	 0.101968
63.4481	160.4826	179.9463	215.3371	281.3809	338.1316	360.7294	438.0557	451.7995	467.1278	540.8365	717.5227	771.9232	815.2861	868.8556	922.7179	930.9424	967.7903	1013.7959	1025.4782	1049.1925	1074.2011	1079.308	1111.4958	1142.5989	1175.3788	1206.4081	1233.7125	1242.2324	1259.269	1288.993	1331.3818	1354.8319	1411.0621	1434.3868	1459.6454	1468.9231	1484.1477	1492.0583	1509.1541	3028.2326	3031.6272	3035.9422	3076.1591	3093.1446	3093.8293	3095.7415	3117.5979	3122.9294	3483.8878	3802.4606
CC1NC11CC(O)C1	C[C@H]1N[C@]21C[C@@H](O)C2	
InChI=1S/C6H11NO/c1-4-6(7-4)2-5(8)3-6/h4-5,7-8H,2-3H2,1H3	InChI=1S/C6H11NO/c1-4-6(7-4)2-5(8)3-6/h4-5,7-8H,2-3H2,1H3/t4-,5-,6-/m1/s1
