15
gdb 53887	4.09668	0.8024	0.6737	5.1671	64.69	-0.2547	-0.0827	0.172	1547.0652	0.110895	-491.154307	-491.144741	-491.143797	-491.190793	32.622	
N	-0.0530711709	 1.3065008075	 0.0071796996	-0.52087
C	 0.064372395	-0.0379483033	 0.0007701236	 0.343031
O	 1.0990527436	-0.6751391401	-0.0109997267	-0.34213
C	-1.3052837951	-0.746319353	 0.0106480716	 0.274066
O	-2.3400491603	-0.1157308732	 0.0229888735	-0.317954
C	-1.2540225419	-2.2524745153	 0.0041552896	-0.21875
N	-2.5896884197	-2.7881368539	 0.0147790941	-0.296461
C	-2.8323953069	-4.1233136005	 0.0061414411	 0.157432
O	-1.9712609344	-4.9768483193	-0.0093107788	-0.320936
H	 0.7716889851	 1.882507376	 0.0021807893	 0.27569
H	-0.9711637973	 1.7203010334	 0.017446917	 0.282282
H	-0.6783526086	-2.5831730627	-0.8708128146	 0.171387
H	-0.661487845	-2.5898234606	 0.8652311886	 0.171271
H	-3.3468421479	-2.1203190501	 0.0255039765	 0.261381
H	-3.9170338158	-4.3479809851	 0.0150366556	 0.08056
16.9546	77.0652	95.323	113.5181	235.4672	284.749	288.8569	319.8312	374.5522	406.558	522.5066	554.8478	614.0099	620.5218	722.1839	743.6676	882.0337	986.2405	1027.683	1035.3288	1093.2506	1121.2936	1204.4608	1229.4758	1336.6903	1394.2417	1424.7342	1454.8043	1520.1372	1594.2925	1790.8026	1805.2044	1815.7597	2943.8888	3032.5842	3047.2524	3597.9072	3611.349	3737.183
NC(=O)C(=O)CNC=O	NC(=O)C(=O)CNC=O	
InChI=1S/C4H6N2O3/c5-4(9)3(8)1-6-2-7/h2H,1H2,(H2,5,9)(H,6,7)	InChI=1S/C4H6N2O3/c5-4(9)3(8)1-6-2-7/h2H,1H2,(H2,5,9)(H,6,7)
