17
gdb 49787	3.20962	1.33759	1.04785	3.4667	74.32	-0.2407	-0.033	0.2076	1126.8294	0.136224	-421.827352	-421.819552	-421.818608	-421.860535	29.071	
O	-0.4603360051	 0.2866607176	-0.107518852	-0.248644
C	-0.065428942	 1.4092545638	 0.0697236067	 0.150004
C	 1.4109662519	 1.8146850597	 0.0422987066	-0.147929
C	 1.6844158175	 2.5219210159	-1.2658096111	-0.070783
C	 2.2495761776	 3.7214076977	-1.3758891113	-0.059281
C	 2.7315643236	 4.5521752003	-0.2200273678	-0.297264
C	 2.370789609	 3.982499103	 1.1310745229	 0.056547
O	 0.9752620884	 3.8596857653	 1.4189921066	-0.25772
C	 1.7426863684	 2.6582756804	 1.2592471982	 0.011739
H	-0.7598902243	 2.2577535634	 0.2419285222	 0.105842
H	 1.9859207249	 0.88079912	 0.082802757	 0.104233
H	 1.3854899917	 1.9801498868	-2.1591877295	 0.107594
H	 2.4091506794	 4.1416480678	-2.3656769065	 0.099367
H	 3.8247186144	 4.6571063509	-0.2757043739	 0.120484
H	 2.3359976247	 5.574433875	-0.2971659554	 0.127427
H	 2.9596570152	 4.3519909964	 1.9708965505	 0.095487
H	 1.8854855744	 2.0998110459	 2.1843202967	 0.102896
52.5631	75.2829	206.9939	258.1593	335.1932	399.3234	417.518	478.9417	540.5763	655.1416	711.5784	780.2017	824.8105	885.3809	908.6578	921.5872	958.2011	1000.752	1013.2521	1023.5486	1064.1754	1078.913	1130.4813	1150.7488	1207.795	1238.4614	1243.1726	1289.3819	1340.984	1359.6763	1380.8045	1409.2532	1423.8204	1460.4856	1472.2692	1727.2459	1828.1415	2922.6912	3007.8163	3032.9376	3034.1104	3102.9555	3115.7652	3151.673	3174.0037
O=CC1C=CCC2OC12	O=C[C@H]1C=CC[C@H]2O[C@@H]12	
InChI=1S/C7H8O2/c8-4-5-2-1-3-6-7(5)9-6/h1-2,4-7H,3H2	InChI=1S/C7H8O2/c8-4-5-2-1-3-6-7(5)9-6/h1-2,4-7H,3H2/t5-,6-,7+/m1/s1
