18
gdb 74512	2.99693	1.2705	1.00209	2.9332	80.69	-0.2382	-0.0279	0.2103	1210.8512	0.147266	-401.951436	-401.943182	-401.942238	-401.984225	31.41	
C	 0.0728310434	 1.5162787447	 0.0981769798	-0.486282
C	-0.0101173372	 0.0270423692	 0.0008508414	 0.311277
C	-0.1331557345	-0.7094949462	-1.1084690317	-0.23768
C	-0.1035217956	-2.1639612012	-0.7981056767	 0.236789
N	 1.1794640645	-2.608530113	-0.1537477018	-0.358471
C	 0.048946189	-2.2737572702	 0.7006845894	-0.098127
C	 0.0641134695	-0.8490240112	 1.2440239516	-0.306032
C	-0.8776120249	-3.1690458692	-1.5498063456	 0.076124
O	-1.5755226437	-2.9314941564	-2.504734712	-0.261838
H	 1.0371377191	 1.8320274233	 0.5160176123	 0.131608
H	-0.0432587846	 1.9892407413	-0.880236194	 0.130623
H	-0.7018647178	 1.9130351306	 0.7666210412	 0.125952
H	-0.2231434906	-0.333663853	-2.1191962906	 0.110848
H	 1.2543074852	-3.6248742887	-0.224892915	 0.23237
H	-0.4412980709	-3.0656229418	 1.2589351455	 0.100443
H	 0.972392262	-0.6560017461	 1.82781503	 0.12481
H	-0.7892047708	-0.6694961311	 1.911144673	 0.112555
H	-0.759420752	-4.209764651	-1.1589301169	 0.055031
108.2654	138.3642	176.1684	205.8094	272.7933	328.3672	393.7618	443.0818	456.1492	528.8986	605.76	671.6658	770.2615	802.9672	854.6556	873.7705	914.7215	934.1909	983.9221	1005.3777	1027.6369	1041.8596	1080.1915	1108.6848	1158.1718	1164.9747	1196.4478	1256.6118	1276.5181	1337.118	1381.9412	1407.1589	1414.2352	1436.2822	1463.9891	1478.9656	1487.2705	1707.5984	1811.9826	2827.9304	3018.238	3023.914	3060.1135	3065.7075	3116.6839	3158.0125	3221.5753	3443.7426
CC1=CC2(NC2C1)C=O	CC1=C[C@]2(N[C@H]2C1)C=O	
InChI=1S/C7H9NO/c1-5-2-6-7(3-5,4-9)8-6/h3-4,6,8H,2H2,1H3	InChI=1S/C7H9NO/c1-5-2-6-7(3-5,4-9)8-6/h3-4,6,8H,2H2,1H3/t6-,7-/m0/s1
