17
gdb 43828	3.19158	1.48	1.18224	3.3977	72.09	-0.2502	-0.0108	0.2394	1043.8078	0.137147	-417.982026	-417.9746	-417.973655	-418.014514	28.842	
O	-0.0756826967	 0.0470935319	 0.5250121562	-0.305847
C	-0.0691742399	 1.1878561246	 0.1579266044	 0.374475
C	-1.2877045555	 2.0493090498	-0.2030310353	-0.412267
C	-0.7883503088	 3.482734969	-0.0502921171	 0.314331
C	-1.539446708	 4.6598382999	-0.5374048877	-0.299975
N	-1.3779215082	 4.4273320112	 0.911234576	-0.348192
C	 0.7253653647	 3.3831593394	-0.0998449821	-0.089827
C	 1.4262681562	 2.8701664515	 1.1016654478	-0.238528
N	 1.1181617602	 1.9660926369	-0.0304961914	-0.127489
H	-1.5579638496	 1.8345673531	-1.2444023265	 0.146981
H	-2.1448053324	 1.7852167526	 0.4208596747	 0.134357
H	-1.0064545648	 5.5262035129	-0.9214214549	 0.123936
H	-2.5126681033	 4.490524027	-0.991985536	 0.117308
H	-2.2375028588	 4.0428498612	 1.2972192781	 0.233146
H	 1.2628565213	 3.9899486145	-0.8226578678	 0.106228
H	 2.4840572948	 3.0639986487	 1.2489770497	 0.13424
H	 0.8470427188	 2.756873286	 2.0140581918	 0.137125
39.7225	174.8502	255.8802	267.3807	350.8087	446.4177	483.5017	521.2666	578.8708	663.0168	727.4641	791.0531	827.0065	867.3411	884.4685	920.3142	950.6603	964.5429	993.7211	1036.3408	1072.6405	1089.6291	1102.0649	1124.0128	1135.741	1155.8252	1183.0974	1237.8272	1266.6013	1282.3727	1311.8707	1336.5328	1420.1421	1452.7122	1508.6273	1513.8016	1861.9781	3039.8329	3100.6783	3108.0268	3117.2804	3152.1474	3185.2878	3208.4675	3488.5837
O=C1CC2(CN2)C2CN12	O=C1C[C@]2(CN2)[C@H]2CN12	
InChI=1S/C6H8N2O/c9-5-1-6(3-7-6)4-2-8(4)5/h4,7H,1-3H2	InChI=1S/C6H8N2O/c9-5-1-6(3-7-6)4-2-8(4)5/h4,7H,1-3H2/t4-,6+,8?/m1/s1
