21
gdb 109216	3.12471	1.09513	0.99299	1.1843	84.99	-0.2192	0.0255	0.2447	1315.9762	0.182145	-387.093149	-387.08413	-387.083186	-387.126782	35.	
C	-0.2308096658	 1.5210619955	-0.0620729981	-0.373113
C	 0.0923412894	 0.0176824392	 0.0032697065	-0.293594
C	 0.7993014366	-0.4910143999	-1.2188832244	 0.354194
C	 2.0421703882	-0.9856547816	-1.2856143181	-0.198025
C	 2.4447125258	-1.3754657487	-2.6906469325	-0.335363
C	 1.1703408525	-1.1319816851	-3.5041864846	 0.403329
O	 1.29731744	-0.6191222479	-4.7969200685	-0.470309
C	-0.057137229	-1.9291564848	-3.1511168875	-0.343272
C	 0.1497900455	-0.5316210075	-2.5688486393	-0.18687
H	 0.6846445846	 2.1121264539	-0.1630801236	 0.121509
H	-0.8749399832	 1.7562145734	-0.9153191904	 0.120334
H	-0.7492651363	 1.8465115059	 0.8450543469	 0.111952
H	 0.7088600385	-0.183965339	 0.8864249653	 0.099798
H	-0.8454105169	-0.538721846	 0.1400677711	 0.103313
H	 2.7030379354	-1.1095991897	-0.434118292	 0.08422
H	 3.2525844126	-0.7383698535	-3.0760974164	 0.112252
H	 2.7989910798	-2.4125048816	-2.7578877712	 0.099639
H	 1.4859586098	-1.3538039734	-5.3907873766	 0.280654
H	-0.8012290716	-2.015365175	-3.9365458565	 0.108392
H	 0.0234172206	-2.782859542	-2.4850341874	 0.107574
H	-0.5167833662	 0.2573061376	-2.8983499626	 0.093386
67.8935	112.2847	193.9345	224.8464	273.6469	289.7937	301.9486	388.4064	408.0462	425.3363	560.1757	616.0943	635.1886	751.2224	782.5491	819.8157	826.4557	891.3488	918.3586	944.1561	968.4421	986.0684	1003.8336	1018.1467	1057.0386	1059.9442	1088.7494	1097.6698	1149.4404	1183.2259	1238.1932	1243.9386	1273.8873	1303.0152	1317.3658	1356.1787	1370.3332	1400.7893	1408.116	1465.7409	1479.1356	1484.7683	1498.1894	1506.4407	1697.6971	3009.9406	3011.1969	3036.7278	3041.0952	3060.463	3106.4676	3110.7532	3117.7139	3176.9997	3185.2402	3212.806	3795.0827
CCC1=CCC2(O)CC12	CCC1=CC[C@@]2(O)C[C@@H]12	
InChI=1S/C8H12O/c1-2-6-3-4-8(9)5-7(6)8/h3,7,9H,2,4-5H2,1H3	InChI=1S/C8H12O/c1-2-6-3-4-8(9)5-7(6)8/h3,7,9H,2,4-5H2,1H3/t7-,8+/m0/s1
