19
gdb 124475	3.18262	1.22064	1.08606	2.7335	77.09	-0.243	0.0203	0.2633	1184.5507	0.159261	-419.236101	-419.227034	-419.22609	-419.269873	34.521	
C	-0.2082284475	 1.5142912278	-0.0948511093	-0.414442
C	 0.0241680479	 0.0009433004	 0.0003242897	 0.257539
C	 0.8548494301	-0.3478139613	 1.2419705001	-0.387508
O	-1.2209933781	-0.6844839655	 0.1829051754	-0.457299
C	 0.7033792126	-0.529178279	-1.2474678706	 0.307219
N	 1.6213244455	 0.1795561714	-1.903612504	-0.309993
N	 2.0068474214	-0.6208932088	-2.9162943223	-0.179306
C	 1.3591763726	-1.8104529198	-2.9297670221	-0.028708
C	 0.4989042227	-1.7926910119	-1.8539221772	-0.291688
H	 0.7364403171	 2.0467023852	-0.226501713	 0.136238
H	-0.8425517653	 1.7541471254	-0.9552864788	 0.102776
H	-0.7025732688	 1.8693808896	 0.8137707614	 0.111718
H	 0.345104723	 0.0056356108	 2.1431753793	 0.115582
H	 0.9829412348	-1.4307491125	 1.3174809969	 0.120669
H	 1.8415138768	 0.1180632819	 1.1816587744	 0.12312
H	-1.781728846	-0.4685492653	-0.5703825616	 0.273321
H	 2.6982610979	-0.2857953501	-3.5652115952	 0.273619
H	 1.5561358605	-2.5551369429	-3.6848826624	 0.13343
H	-0.1790877771	-2.5669935455	-1.5377167006	 0.113713
44.0867	149.8048	195.6124	219.4098	263.9336	321.4695	325.4469	354.9878	364.6155	466.6485	499.7101	507.8752	609.7521	664.881	750.2305	779.7415	855.9175	859.5671	933.429	946.8457	963.9476	982.8908	1016.7251	1060.4601	1096.9799	1121.1605	1182.2326	1198.4573	1231.1532	1305.7647	1361.6389	1392.3404	1394.3548	1411.6777	1467.2424	1478.1475	1479.2732	1484.9525	1495.6145	1508.3601	1565.6588	3036.3636	3045.0791	3105.6662	3119.9288	3129.8337	3135.225	3259.1148	3286.9472	3675.2821	3801.1808
CC(C)(O)C1=NNC=C1	CC(C)(O)c1n[nH]cc1	
InChI=1S/C6H10N2O/c1-6(2,9)5-3-4-7-8-5/h3-4,9H,1-2H3,(H,7,8)	InChI=1S/C6H10N2O/c1-6(2,9)5-3-4-7-8-5/h3-4,9H,1-2H3,(H,7,8)
