17
gdb 77858	2.15346	1.61472	1.56635	4.0602	72.39	-0.2526	0.0125	0.2651	988.9476	0.135435	-417.96299	-417.954373	-417.953429	-417.995997	31.932	
C	-0.4617145342	 1.504902608	 0.0027448888	-0.434164
C	-0.0332893744	 0.0501751948	-0.0012029348	 0.022342
C	 0.9888484258	-0.5025933474	-1.0524586363	 0.058717
O	 1.7091838918	 0.3838635238	-1.8692647898	-0.411206
C	 1.7950930553	-1.0129837121	 0.1302695936	-0.042476
C	 2.1830203811	 0.0607198206	 1.0754800275	-0.151971
C	 2.5694855533	 1.4086929165	 0.7307182008	 0.326994
N	 2.9421013683	 2.4898189721	 0.5584641059	-0.356709
N	 0.8035777994	-0.4774100224	 1.1520579296	-0.162592
H	 0.3663318789	 2.1935110516	-0.1623666618	 0.16599
H	-1.2056582323	 1.6691779814	-0.7849664532	 0.114823
H	-0.9343380108	 1.7513430272	 0.958879025	 0.136094
H	-0.9214972753	-0.5886042019	-0.0012336264	 0.095403
H	 0.5595909774	-1.3270752138	-1.6359094166	 0.087477
H	 1.1212126763	 0.7286284589	-2.5493032146	 0.293068
H	 2.2322370336	-2.0021222282	 0.2160379604	 0.111038
H	 2.7535619056	-0.295207359	 1.9308176219	 0.14717
110.4545	142.6054	175.632	194.4196	222.1949	250.9203	288.3312	408.2827	459.2622	553.946	574.5979	638.4751	731.1626	761.8561	788.8582	826.6202	888.1245	956.3147	970.0579	1022.0255	1067.1477	1080.2881	1105.7719	1163.6694	1181.9425	1199.0658	1240.225	1287.9407	1313.6542	1350.8185	1381.3675	1408.0968	1412.3442	1436.4107	1489.2073	1503.5271	2352.35	3017.9259	3040.5449	3062.7832	3100.9224	3137.1952	3160.4844	3172.6503	3818.4226
CC1C(O)C2C(C#N)N12	C[C@H]1[C@@H](O)[C@H]2[C@@H](C#N)N12	
InChI=1S/C6H8N2O/c1-3-6(9)5-4(2-7)8(3)5/h3-6,9H,1H3	InChI=1S/C6H8N2O/c1-3-6(9)5-4(2-7)8(3)5/h3-6,9H,1H3/t3-,4+,5+,6+,8?/m0/s1
