15
gdb 31316	2.19589	1.5181	0.92144	1.7284	79.5	-0.214	-0.0197	0.1943	1202.5269	0.111525	-420.614705	-420.606212	-420.605268	-420.64845	30.995	
O	 0.0659048183	 1.2827708765	 0.6046564756	-0.416724
C	-0.0003207971	 0.099640943	-0.1826167898	-0.222828
C	-1.3811404282	-0.4588660727	-0.0756157402	 0.159356
C	-1.7312828024	-1.7797693517	 0.0485199521	 0.140778
O	-3.0977252897	-1.898682968	 0.0843547766	-0.179706
C	-3.6022394589	-0.6456624434	-0.0086408955	-0.029553
C	-2.6073422477	 0.2744033176	-0.1111185297	-0.241471
C	-0.9599111594	-2.9505009127	 0.137725429	 0.268129
C	-0.2785536084	-3.9417403765	 0.2137969448	-0.440004
H	 0.9236424503	 1.6902717322	 0.4509964208	 0.290115
H	 0.2259142833	 0.3248213905	-1.2382422774	 0.102681
H	 0.726381099	-0.656339244	 0.1493403788	 0.108018
H	-4.6774479152	-0.5749402428	 0.0163440026	 0.138144
H	-2.7131514814	 1.3445672169	-0.1837926299	 0.128066
H	 0.3182154675	-4.817157335	 0.2838139723	 0.194999
48.4579	127.453	160.3502	186.849	253.2985	300.894	392.2779	457.7196	521.0855	555.0283	593.7767	621.6126	690.7212	692.0186	739.7305	772.6826	841.5323	914.0257	1010.1126	1039.8214	1079.9595	1107.0778	1182.1987	1226.279	1232.1969	1266.9651	1299.7675	1438.4279	1461.7361	1514.3624	1524.2099	1629.8142	2226.5997	2959.0542	3007.2524	3263.8732	3285.4185	3502.2977	3826.833
OCC1=C(OC=C1)C#C	OCc1c(occ1)C#C	
InChI=1S/C7H6O2/c1-2-7-6(5-8)3-4-9-7/h1,3-4,8H,5H2	InChI=1S/C7H6O2/c1-2-7-6(5-8)3-4-9-7/h1,3-4,8H,5H2
