19
gdb 63229	2.18091	1.56502	1.17295	3.4344	77.06	-0.2452	-0.0211	0.2241	1118.2548	0.156991	-423.044704	-423.035453	-423.034509	-423.07894	34.44	
C	-0.0803794197	 1.5823143488	-0.0341416263	-0.446483
C	 0.0376472047	 0.05659423	-0.0212457438	 0.344901
O	-1.2769307409	-0.5203833456	 0.0563647103	-0.470666
C	 0.7993981599	-0.5206627248	-1.2001137981	-0.111199
C	 1.6038132203	-1.5182375561	-0.8428621548	-0.069033
C	 1.5699635311	-1.7719758326	 0.6431289347	-0.297876
C	 0.8097644114	-0.5388361237	 1.204068141	-0.101409
C	 1.8097525544	 0.4410656721	 1.7809542446	 0.150412
O	 1.6962809723	 0.9972084347	 2.842714073	-0.258378
H	 0.898057738	 2.0680812607	-0.1040198247	 0.123458
H	-0.6690617453	 1.9039833243	-0.9012006556	 0.102764
H	-0.5820423186	 1.936248421	 0.8703991405	 0.141301
H	-1.7564800839	-0.2693972012	-0.7411787753	 0.273907
H	 0.6286969176	-0.173945002	-2.2145198287	 0.09279
H	 2.2003757262	-2.1184885242	-1.5214015491	 0.102557
H	 1.0419278547	-2.7043851238	 0.8753428671	 0.129952
H	 2.5738419637	-1.8717098593	 1.0760113371	 0.109823
H	 0.0910302885	-0.7838445114	 1.9871692418	 0.107708
H	 2.7074899255	 0.611139833	 1.1395432666	 0.075472
58.5328	69.4039	196.4088	231.2977	242.6979	258.1223	305.1838	359.8699	378.2974	418.0175	480.1143	527.9783	621.2722	741.6902	780.1818	823.9011	895.8986	923.7441	930.5614	942.3433	976.503	997.1515	1033.5376	1079.394	1103.9097	1135.4645	1149.176	1179.1444	1205.0868	1261.7072	1289.655	1317.7206	1348.4582	1375.0065	1407.1755	1426.6257	1480.8055	1487.1507	1492.4601	1686.8481	1830.8629	2845.5369	3024.6128	3029.7162	3056.7695	3094.7851	3112.7482	3122.6122	3174.6907	3201.869	3798.1865
CC1(O)C=CCC1C=O	C[C@@]1(O)C=CC[C@H]1C=O	
InChI=1S/C7H10O2/c1-7(9)4-2-3-6(7)5-8/h2,4-6,9H,3H2,1H3	InChI=1S/C7H10O2/c1-7(9)4-2-3-6(7)5-8/h2,4-6,9H,3H2,1H3/t6-,7+/m0/s1
