19
gdb 53411	4.12287	0.8937	0.80931	1.6179	84.2	-0.2382	0.0599	0.2981	1478.2101	0.159246	-385.864446	-385.855549	-385.854605	-385.899957	32.255	
C	-0.0285811871	 1.4981293076	-0.0026474097	-0.498737
C	-0.0295092798	 0.0421523255	-0.0008065513	 0.086157
C	-0.0333611201	-1.1620204056	 0.0028738392	 0.058801
C	-0.0428793513	-2.6190107768	 0.015660083	-0.193239
C	 0.7247816677	-3.2578187767	 1.2134442696	-0.223072
C	 0.0891345342	-4.6528267706	 1.4117097307	-0.251485
C	-1.3397005699	-4.4679990072	 0.9386035995	 0.049814
O	-1.9605100327	-3.2763358407	 1.4475090483	-0.254445
C	-1.4298607798	-3.2548159618	 0.1205157306	 0.047698
H	 0.7327572453	 1.8966933216	 0.6772034648	 0.146719
H	 0.1793374943	 1.8970607883	-1.0018064087	 0.144968
H	-0.9977027207	 1.8963879183	 0.3178252851	 0.148933
H	 0.3933131173	-2.9864543653	-0.9255404769	 0.098408
H	 1.8002208279	-3.2986294605	 1.0303994541	 0.104502
H	 0.5577200279	-2.6435447652	 2.0991326249	 0.130264
H	 0.5740991799	-5.4111357373	 0.7841920895	 0.103
H	 0.1523807442	-4.9959906699	 2.448940248	 0.110906
H	-2.0035895912	-5.3185886409	 0.8055283158	 0.093112
H	-2.1546098262	-3.113950673	-0.6769933763	 0.097695
16.3824	75.4657	94.7683	198.7323	255.5732	294.8748	356.1994	393.1739	445.7466	508.9797	646.2878	666.2962	798.1762	825.0225	844.5709	874.6904	909.8809	935.3602	962.9508	1024.5112	1051.9525	1052.5531	1058.9249	1078.4003	1107.7286	1175.7929	1180.7089	1218.8406	1258.5096	1291.1549	1308.4809	1316.0098	1332.2986	1367.6415	1414.9047	1435.8948	1478.798	1479.0707	1481.0432	1493.32	2372.1909	2991.433	3025.0642	3033.7081	3080.1073	3084.6698	3085.8952	3087.0991	3134.2618	3141.531	3155.2575
CC#CC1CCC2OC12	CC#C[C@H]1CC[C@H]2O[C@@H]12	
InChI=1S/C8H10O/c1-2-3-6-4-5-7-8(6)9-7/h6-8H,4-5H2,1H3	InChI=1S/C8H10O/c1-2-3-6-4-5-7-8(6)9-7/h6-8H,4-5H2,1H3/t6-,7+,8-/m0/s1
