14
gdb 64549	4.17476	1.12619	1.07885	3.3894	65.54	-0.257	-0.0631	0.194	1094.8566	0.099607	-473.814474	-473.806745	-473.805801	-473.846898	28.89	
O	-0.1798206755	 1.3389851105	 0.0530181618	-0.465696
C	-0.0981405978	-0.0344668075	 0.0359178052	 0.351733
C	 1.0238868657	-0.5550288215	-0.7888961561	 0.10228
O	 1.7553320142	 0.1971077961	-1.3908458052	-0.278803
C	-0.4742485733	-0.8496131207	 1.2553859041	-0.088611
N	-1.5496252505	-0.2030900305	 2.0033114626	-0.343479
C	-2.3992172982	-0.1860096562	 0.8714121927	 0.444319
O	-3.4989869403	 0.2433536482	 0.7037258903	-0.318939
C	-1.3622111952	-0.9230700755	 0.0229933489	-0.326334
H	 0.5110736494	 1.6449374798	-0.5571693412	 0.304456
H	 1.1514689055	-1.6548555785	-0.8188329624	 0.105436
H	 0.1402290249	-1.6155809955	 1.7114107511	 0.12528
H	-1.3901698593	 0.6361684355	 2.5505396795	 0.258664
H	-1.5264667397	-1.717998584	-0.6915607114	 0.129695
85.3022	130.5732	215.0394	278.301	302.2426	386.5388	398.8019	475.4708	521.9014	592.9193	653.71	735.9721	781.034	822.2502	829.4941	872.626	932.3471	1000.7379	1027.9751	1037.5171	1072.4422	1115.6499	1127.5672	1221.8517	1288.9656	1328.6772	1340.7193	1381.8769	1455.9984	1794.1162	1917.2581	2946.409	3194.7755	3217.1178	3549.1368	3688.8955
OC1(C=O)C2NC(=O)C12	O[C@@]1(C=O)[C@H]2NC(=O)[C@@H]12	
InChI=1S/C5H5NO3/c7-1-5(9)2-3(5)6-4(2)8/h1-3,9H,(H,6,8)	InChI=1S/C5H5NO3/c7-1-5(9)2-3(5)6-4(2)8/h1-3,9H,(H,6,8)/t2-,3-,5+/m0/s1
