18
gdb 73353	2.56911	2.02161	1.65873	2.3876	74.24	-0.2207	-0.0031	0.2177	891.7027	0.149695	-401.927046	-401.920084	-401.919139	-401.95786	29.11	
O	-0.0932643168	 1.4090521083	 0.026670657	-0.495309
C	 0.0276929486	 0.0029066275	 0.0210565633	 0.360315
C	 0.6961731989	-0.6053267781	-1.2393884976	-0.260177
C	 0.163914234	-2.054024163	-1.2263970368	-0.165128
N	-1.1870631346	-1.9987252693	-0.6078998103	-0.119585
C	-1.261946339	-1.8478190276	 0.8869291517	-0.070317
C	-0.0085517447	-1.6730897597	 1.6798998853	-0.074683
C	 0.6888779542	-0.6210103832	 1.2455559151	-0.168404
C	-1.3576889435	-0.6741946461	-0.0192439565	-0.085448
H	 0.7896652059	 1.7905606359	 0.0634350769	 0.278091
H	 0.3344070001	-0.0601387165	-2.1183121693	 0.109797
H	 1.7900357479	-0.5504028325	-1.2248481947	 0.090493
H	 0.0587252051	-2.4652556255	-2.2335026111	 0.110038
H	 0.8246149317	-2.7192425502	-0.6620076802	 0.106519
H	-2.1228746851	-2.3448100331	 1.3220244217	 0.0925
H	 0.286186521	-2.348725338	 2.4744085028	 0.102192
H	 1.672483901	-0.3176658926	 1.5909713272	 0.093382
H	-2.2485280146	-0.0899057465	-0.2274619246	 0.095722
188.331	211.6032	300.6624	309.9871	386.7793	420.778	535.308	602.3868	640.0622	672.7636	728.804	750.6721	786.9761	828.1173	849.6149	871.9837	940.5251	942.7328	972.469	978.2035	1011.6547	1047.7206	1054.3164	1101.59	1118.3634	1128.3056	1170.6669	1204.2074	1216.9517	1252.5496	1281.9309	1300.9362	1338.8322	1354.8957	1373.3435	1391.5406	1484.4942	1502.7935	1658.5132	3037.1332	3055.0587	3082.8698	3100.5309	3156.1264	3165.5622	3173.2178	3206.8954	3818.805
OC12CCN3C(C=C1)C23	O[C@@]12CCN3[C@@H](C=C1)[C@@H]23	
InChI=1S/C7H9NO/c9-7-2-1-5-6(7)8(5)4-3-7/h1-2,5-6,9H,3-4H2	InChI=1S/C7H9NO/c9-7-2-1-5-6(7)8(5)4-3-7/h1-2,5-6,9H,3-4H2/t5-,6-,7+,8?/m0/s1
