19
gdb 88293	3.97258	0.96519	0.90672	1.7526	80.28	-0.2351	-0.0402	0.1949	1352.2863	0.159228	-419.162522	-419.1536	-419.152656	-419.196803	32.659	
C	-0.8378350157	 1.1031275494	 0.3664604958	-0.327528
N	-0.1871560485	-0.1998001982	 0.2434703277	-0.080137
C	 0.9683768313	-0.314516643	-0.6074999594	-0.235033
C	 1.1270138873	-0.4396257858	 0.8819515069	-0.11356
C	 1.86330094	 0.6377686162	 1.6087034438	 0.391989
O	 1.9799069643	 1.7749042916	 1.1799205866	-0.362771
C	 2.4667640718	 0.2628545054	 2.9264273673	-0.114018
C	 3.9111942149	 0.6280840923	 3.1170964741	-0.217759
N	 2.8681023406	 1.3614083427	 3.8157016945	-0.302719
H	-0.1520181363	 1.9561872338	 0.3207034339	 0.145789
H	-1.5657613592	 1.182708559	-0.4466847837	 0.125878
H	-1.3834423924	 1.1368446163	 1.3143826225	 0.124645
H	 1.0335616294	-1.2129869365	-1.2161496611	 0.121534
H	 1.3787846415	 0.5924866431	-1.0478748136	 0.134302
H	 1.2092413654	-1.4297397751	 1.3230553664	 0.096456
H	 2.0782435983	-0.6236784066	 3.417735746	 0.10402
H	 4.5317870116	-0.0131946762	 3.7362273342	 0.128203
H	 4.4100923554	 1.1020705138	 2.2762590531	 0.132032
H	 2.6833697204	 2.2260360577	 3.3041819349	 0.248676
51.1468	77.9772	182.0746	189.6466	246.3047	262.308	302.7585	355.5787	398.3514	423.978	677.4891	717.1745	771.4007	815.3861	855.8764	861.9705	901.5796	966.375	999.1054	1017.6272	1033.8907	1068.4543	1104.8306	1119.312	1124.2287	1137.9267	1144.0228	1170.449	1182.5468	1216.29	1288.178	1320.0337	1333.8667	1375.7053	1418.7775	1445.8447	1486.7542	1495.5447	1496.9862	1511.1095	1748.9642	3027.9339	3095.3026	3101.02	3108.4559	3112.2184	3137.1068	3162.0541	3188.2366	3206.2446	3456.5747
CN1CC1C(=O)C1CN1	CN1C[C@H]1C(=O)[C@H]1CN1	
InChI=1S/C6H10N2O/c1-8-3-5(8)6(9)4-2-7-4/h4-5,7H,2-3H2,1H3	InChI=1S/C6H10N2O/c1-8-3-5(8)6(9)4-2-7-4/h4-5,7H,2-3H2,1H3/t4-,5+,8?/m1/s1
