20
gdb 76508	2.99496	1.29167	1.15351	1.9142	79.44	-0.2218	0.082	0.3038	1161.7448	0.169145	-403.07251	-403.063627	-403.062682	-403.105839	33.694	
C	-0.1293301677	 1.5307067046	 0.3793688526	-0.417004
C	 0.0295954101	 0.0333655206	 0.2275726509	-0.067239
N	 1.2806799695	-0.6051661495	-0.2177771278	-0.162552
C	 2.4462104871	 0.1982710419	-0.5537401713	-0.319211
C	 0.8736435743	-0.7520850912	 1.1645087259	 0.353388
C	 1.6562272089	-0.2921656428	 2.4290975088	-0.354084
C	 1.3453052376	-1.6757512345	 3.0298514516	 0.034905
O	-0.0765956081	-1.8295191765	 3.0468666625	-0.24516
C	 0.6227097611	-2.1021820239	 1.8201736941	-0.076182
H	 0.7112568482	 1.9940076982	 0.9009855831	 0.12137
H	-0.2358318729	 2.0187744411	-0.5958503384	 0.122368
H	-1.0341581185	 1.7452951923	 0.9573595666	 0.129985
H	-0.8521523112	-0.4576486071	-0.184519928	 0.089581
H	 2.6126540577	 1.0767066348	 0.0863008196	 0.104956
H	 3.338597845	-0.4337444502	-0.4950908306	 0.123156
H	 2.3516088417	 0.5445764413	-1.5877320441	 0.124671
H	 2.7219268877	-0.1468458269	 2.2288265497	 0.111863
H	 1.2673791876	 0.560802129	 2.9908032001	 0.112567
H	 1.9201414065	-2.2470601773	 3.7489131699	 0.105773
H	 0.4900963754	-3.0747244441	 1.3611923348	 0.106849
107.1843	151.4195	157.9829	160.9341	208.3525	270.2055	302.8886	392.226	450.5301	511.514	552.7158	571.5477	761.266	794.1144	807.426	844.2614	863.371	934.4108	951.0791	980.5428	1008.2227	1041.8055	1069.644	1081.6218	1112.3528	1130.2214	1146.147	1167.2029	1198.729	1207.8303	1223.6345	1229.3635	1264.7812	1362.1971	1379.4433	1407.8217	1440.0451	1466.6602	1475.6781	1486.6	1492.3974	1504.1832	1507.1925	2993.2533	3036.4027	3057.4779	3067.8326	3095.2445	3096.3298	3099.5024	3113.0178	3124.7461	3184.5864	3199.9252
CC1N(C)C11CC2OC12	C[C@H]1N(C)[C@]21C[C@H]1O[C@@H]21	
InChI=1S/C7H11NO/c1-4-7(8(4)2)3-5-6(7)9-5/h4-6H,3H2,1-2H3	InChI=1S/C7H11NO/c1-4-7(8(4)2)3-5-6(7)9-5/h4-6H,3H2,1-2H3/t4-,5-,6-,7+,8?/m1/s1
