16
gdb 127261	4.52379	1.07063	0.87123	1.6051	75.45	-0.2285	-0.0089	0.2196	1286.9277	0.12606	-430.262828	-430.254316	-430.253372	-430.29651	30.807	
C	-0.0230040967	 1.4231021279	 0.0800472226	-0.331731
N	-0.0138916276	-0.0187480485	-0.0726144689	 0.071496
C	 0.0086964615	-0.7580392191	-1.2010882645	-0.180218
C	 0.0063352363	-2.0607232661	-0.755179255	 0.344688
N	-0.016723599	-2.0434577957	 0.607132778	-0.285384
N	-0.028545631	-0.8113994497	 1.0231935186	-0.143772
C	 0.0351540804	-3.3082890162	-1.537985545	 0.25457
N	-0.0960684887	-4.4387563928	-0.7663916083	-0.555421
N	 0.1415639469	-3.2269760255	-2.8135072193	-0.537986
H	 0.8743305553	 1.8614936145	-0.3641768463	 0.152967
H	-0.9089670818	 1.853328202	-0.3939688814	 0.15315
H	-0.041916094	 1.6335810719	 1.1490295889	 0.172633
H	 0.0248622252	-0.3395409699	-2.1920543343	 0.169315
H	 0.0344313951	-4.3294552495	 0.2282776462	 0.270742
H	 0.1753968202	-5.3213102116	-1.1666523878	 0.246777
H	 0.1442751981	-4.1537904518	-3.2429555932	 0.198173
68.1969	87.0787	145.3839	172.1606	277.9551	341.6003	375.4324	400.1886	494.751	535.6067	613.8876	630.9148	697.0532	739.7766	768.7375	844.6579	849.5053	1013.2199	1044.0295	1073.5905	1100.4263	1127.1487	1152.3014	1161.5912	1283.7117	1306.1073	1341.4825	1421.5542	1443.0188	1485.3967	1494.9638	1514.7952	1595.3453	1635.0789	1712.8254	3054.9458	3122.7878	3167.2679	3299.7946	3456.1817	3577.6098	3705.813
CN1C=C(N=N1)C(N)=N	Cn1cc(nn1)C(=N)N	
InChI=1S/C4H7N5/c1-9-2-3(4(5)6)7-8-9/h2H,1H3,(H3,5,6)	InChI=1S/C4H7N5/c1-9-2-3(4(5)6)7-8-9/h2H,1H3,(H3,5,6)
