13
gdb 131270	3.35042	1.16583	0.87848	4.1664	62.34	-0.2278	-0.0105	0.2173	1204.3097	0.089405	-489.90864	-489.900655	-489.899711	-489.941831	28.377	
O	-0.0460799795	 1.3479604312	 0.0606780368	-0.446851
C	 0.0427377247	-0.0033513152	 0.0059077744	 0.174078
C	-0.0788832929	-0.8080067415	-1.1074819915	-0.099016
N	 0.0721480059	-2.0862447809	-0.6613122389	-0.195065
N	 0.3019419167	-2.1722731191	 0.6608598072	-0.294345
C	 0.2723293528	-0.9103374344	 1.061466448	 0.321823
O	 0.4777558599	-0.5177371937	 2.3568655982	-0.236873
C	-0.0661936907	-1.2814715837	 3.3575742988	 0.164641
O	 0.1295970737	-1.0278098602	 4.5029835897	-0.256212
H	 0.10799675	 1.6192714684	 0.9729891784	 0.310841
H	-0.2585250153	-0.5699997811	-2.1422877217	 0.149482
H	 0.0650244225	-2.9302680738	-1.206084768	 0.284676
H	-0.6723807478	-2.1100496559	 2.9615027685	 0.122822
66.8645	121.4679	159.6532	266.1909	297.9386	314.3452	370.94	442.2093	487.6014	550.9458	651.9064	697.8456	714.4587	771.3852	874.4592	949.8621	1039.4786	1067.6399	1096.7235	1178.067	1233.3804	1275.3268	1353.8047	1405.5905	1453.6208	1487.5423	1548.802	1667.5395	1877.2167	3039.9604	3279.9992	3691.4408	3810.1394
OC1=CNN=C1OC=O	Oc1c[nH]nc1OC=O	
InChI=1S/C4H4N2O3/c7-2-9-4-3(8)1-5-6-4/h1-2,8H,(H,5,6)	InChI=1S/C4H4N2O3/c7-2-9-4-3(8)1-5-6-4/h1-2,8H,(H,5,6)
