20
gdb 69553	2.78497	1.52889	1.35868	3.1505	78.86	-0.2219	0.0754	0.2972	1063.4103	0.170335	-403.082229	-403.073945	-403.073001	-403.114412	32.992	
C	-0.0643498752	 1.5741521429	 0.0593466175	-0.511497
C	 0.0946469027	 0.0868593121	-0.0019590177	 0.340214
N	-0.8007200471	-0.8364321142	 0.7255788723	-0.364083
C	 0.6614031832	-0.9013615687	 0.9711451628	-0.176916
C	 1.3032425007	-1.7148691274	-0.1887207509	 0.483812
C	 2.7694420601	-2.0310992593	-0.0588587134	-0.481195
O	 0.5140375036	-2.807668744	-0.7065641636	-0.328003
C	-0.1141670852	-1.9484568381	-1.6931783347	-0.093651
C	 0.6754491446	-0.7185226146	-1.1967520069	-0.19926
H	 0.8312767097	 2.0835490159	-0.3125108975	 0.125167
H	-0.913276485	 1.9079101137	-0.5495550139	 0.129746
H	-0.2380121956	 1.9088124673	 1.0881453618	 0.117971
H	-1.2036168473	-0.3143668434	 1.5039266972	 0.224458
H	 1.0544751814	-0.7620071757	 1.9731706471	 0.081852
H	 2.9170369575	-2.8276973127	 0.6794839778	 0.130059
H	 3.1801093461	-2.3712724814	-1.013584114	 0.123803
H	 3.3311058762	-1.1516343265	 0.2737078232	 0.116064
H	 0.1426999796	-2.2674688908	-2.7105642337	 0.090628
H	-1.1990988597	-1.9091316125	-1.5685197178	 0.115752
H	 1.2809429196	-0.1546814625	-1.9057891855	 0.075078
140.8476	205.9792	212.3767	249.4946	260.8283	303.2059	330.328	356.3493	493.1309	548.4454	579.0135	664.8143	737.8686	808.671	820.1202	883.357	888.4201	910.5744	957.4731	967.8084	989.1683	1005.2297	1018.6701	1069.3773	1088.4695	1110.2	1124.1186	1150.2666	1167.1421	1179.1819	1251.3565	1274.9729	1302.4884	1338.5191	1364.3479	1407.5208	1408.2586	1441.2316	1480.1652	1481.5866	1489.9347	1497.253	1503.4866	3020.8922	3023.6846	3030.704	3082.6018	3094.0657	3097.3963	3097.7951	3114.4472	3118.3157	3162.0561	3464.3762
CC12NC1C1(C)OCC21	C[C@]12N[C@H]1[C@@]1(C)OC[C@@H]21	
InChI=1S/C7H11NO/c1-6-4-3-9-7(4,2)5(6)8-6/h4-5,8H,3H2,1-2H3	InChI=1S/C7H11NO/c1-6-4-3-9-7(4,2)5(6)8-6/h4-5,8H,3H2,1-2H3/t4-,5+,6+,7-/m0/s1
