19
gdb 23049	2.67295	1.3171	1.03571	1.1675	79.75	-0.2251	0.0039	0.229	1203.7102	0.15926	-419.128517	-419.11991	-419.118966	-419.161918	32.775	
O	-0.06517037	 1.2842744849	 0.0885052993	-0.391459
N	 0.0221482287	-0.118372708	 0.1756149495	-0.244581
C	-1.1113494692	-0.6553768986	 0.0230539048	 0.346708
C	-2.5332763356	-0.224068434	-0.2572664198	-0.264944
N	-2.8697292134	-1.6655092738	-0.4540012693	-0.389834
C	-1.5348043898	-2.1076052609	 0.0227065499	 0.287762
C	-0.6943571642	-3.1702596863	-0.7288273158	-0.261583
C	-0.1284703516	-3.6329288965	 0.640967056	-0.209587
C	-1.3235567165	-2.9245629007	 1.3330410866	-0.28008
H	 0.8527787011	 1.552654066	 0.2028519042	 0.307223
H	-3.015236627	 0.2685588976	 0.5974805486	 0.119031
H	-2.6838855143	 0.3976791778	-1.1460983756	 0.130102
H	-3.6363530409	-1.9943703552	 0.1231663525	 0.216771
H	-1.3523226349	-3.9186617909	-1.1801152795	 0.105348
H	 0.0054178871	-2.8029937023	-1.4821477007	 0.106619
H	-0.0199985412	-4.7064472134	 0.8062599144	 0.097548
H	 0.8180345666	-3.1397118942	 0.8730149469	 0.12089
H	-1.1404148161	-2.3647121555	 2.2530235782	 0.104849
H	-2.1628761086	-3.611101666	 1.4895419596	 0.099219
94.1952	102.2255	140.5187	195.8514	285.8634	311.43	354.0042	436.1699	486.366	522.0958	557.3167	670.6214	729.5915	775.463	790.2156	882.645	924.215	929.1839	945.5031	971.135	976.805	1007.4209	1033.7319	1083.1316	1113.311	1133.0887	1180.8312	1202.1627	1208.3499	1245.7473	1262.0923	1272.5953	1289.2557	1312.055	1369.7637	1412.9828	1464.3879	1479.5213	1492.3752	1499.8988	1799.4965	3017.4174	3043.7997	3060.4429	3067.6266	3072.2967	3105.8899	3116.8498	3132.0709	3529.1841	3817.8247
ON=C1CNC11CCC1	ON=C1CNC21CCC2	
InChI=1S/C6H10N2O/c9-8-5-4-7-6(5)2-1-3-6/h7,9H,1-4H2	InChI=1S/C6H10N2O/c9-8-5-4-7-6(5)2-1-3-6/h7,9H,1-4H2
