21
gdb 113153	2.45567	1.1347	0.93398	2.1543	80.02	-0.2417	-0.0139	0.2278	1356.1002	0.179498	-424.233286	-424.222781	-424.221837	-424.268985	38.117	
C	-0.3286472589	 1.3828664314	 0.0896814782	-0.488006
C	 0.4548757453	 0.0921897197	-0.0806307425	 0.32726
O	 1.2343591185	-0.2694796067	 0.7789871099	-0.319343
C	 0.2202973594	-0.709357435	-1.334877501	 0.201922
C	-0.4936403864	-0.0279112204	-2.490412519	-0.484911
C	 1.2875504081	-1.7427836093	-1.6679185253	-0.302702
C	-0.0371326467	-2.217127895	-1.1722346896	-0.003137
C	-0.1857513372	-2.9049865609	 0.1621059418	-0.124899
O	 0.0428354999	-4.2929874636	-0.0665258183	-0.424167
H	-0.0849641602	 2.0958959223	-0.7050926587	 0.141051
H	-1.4062959401	 1.1959229029	 0.0263513595	 0.138839
H	-0.0859350315	 1.8202343372	 1.0583466067	 0.140249
H	 0.0489263437	 0.859579557	-2.8347229491	 0.121714
H	-0.571347117	-0.7108958093	-3.3410190424	 0.121897
H	-1.5103880818	 0.2814978665	-2.2267078393	 0.120095
H	 1.5381877827	-1.8744257619	-2.7148265505	 0.111574
H	 2.1199219664	-1.7936641905	-0.9753126101	 0.138291
H	-0.7172435093	-2.6140611919	-1.9222158414	 0.095731
H	 0.5265705261	-2.490622427	 0.8829289388	 0.124476
H	-1.2024402584	-2.7376221682	 0.5556461171	 0.078284
H	 0.0437999476	-4.7340000673	 0.7880133053	 0.285783
54.3271	73.06	152.4829	167.5958	181.9508	231.1514	241.3772	264.4842	288.8411	346.0658	398.9764	420.6727	483.9408	551.212	626.7808	657.7652	807.7959	863.4023	888.1816	928.3209	964.7953	973.6836	1027.4955	1056.0702	1072.0869	1074.9802	1116.1497	1123.0092	1160.9559	1167.8075	1251.6488	1266.5076	1289.2119	1335.4697	1381.809	1399.9275	1420.3688	1459.5652	1465.4133	1474.8266	1484.9398	1497.8812	1503.1256	1531.117	1774.6935	2959.965	3029.4562	3039.9736	3071.2592	3090.4793	3101.0363	3106.4318	3135.4034	3138.9529	3154.9397	3231.0206	3829.8845
CC(=O)C1(C)CC1CO	CC(=O)[C@@]1(C)C[C@H]1CO	
InChI=1S/C7H12O2/c1-5(9)7(2)3-6(7)4-8/h6,8H,3-4H2,1-2H3	InChI=1S/C7H12O2/c1-5(9)7(2)3-6(7)4-8/h6,8H,3-4H2,1-2H3/t6-,7+/m0/s1
