21
gdb 99669	2.53728	1.10367	0.81408	3.1439	83.76	-0.2465	0.0302	0.2767	1448.9753	0.182948	-383.264327	-383.25456	-383.253616	-383.299637	35.204	
C	-0.1949038244	 1.4859915552	 0.0935432829	-0.329152
N	 0.2427299415	 0.0973409445	-0.0288449675	-0.272725
C	 0.7408054465	-0.4986515405	 1.2038327667	-0.139103
C	-0.2820701744	-0.5483331479	 2.281308016	 0.26841
N	-1.1188090634	-0.5835746119	 3.0791696712	-0.335326
C	 1.29784155	-1.8996730212	 0.9430886147	 0.046384
C	 2.5517719603	-2.020211095	 0.0372950118	-0.227532
C	 3.0881084103	-3.1169231456	 0.9982576478	-0.217229
C	 2.0842611563	-2.6176414176	 2.0743324779	-0.235837
H	 0.6624528955	 2.1124960265	 0.362974511	 0.126823
H	-0.5652857646	 1.8279900647	-0.8763685005	 0.127183
H	-0.9836540088	 1.6466445407	 0.8454167729	 0.125247
H	-0.5139714663	-0.4730298279	-0.3933457677	 0.227614
H	 1.5587201295	 0.1370369675	 1.5694207194	 0.119119
H	 0.4883976567	-2.5405962648	 0.5751384075	 0.081367
H	 2.3952843434	-2.2834122939	-1.0101852718	 0.104518
H	 3.1560805913	-1.1087165334	 0.0766087874	 0.103733
H	 2.8395797098	-4.1224917316	 0.6479274754	 0.106847
H	 4.1501646711	-3.0918267202	 1.2505274886	 0.102096
H	 2.5468470421	-1.8977747358	 2.7575245186	 0.105249
H	 1.5504076777	-3.3619190019	 2.6679649678	 0.112316
64.7824	92.6004	115.3101	124.7514	161.4798	207.0703	261.0689	322.6748	369.1786	425.9442	493.8438	599.6962	670.306	749.7181	779.0528	803.8288	897.882	917.416	933.7096	958.603	975.4503	990.2598	1066.2234	1095.9534	1112.2582	1158.2888	1164.6673	1197.5442	1207.5411	1241.8763	1254.0833	1259.135	1273.0542	1288.8811	1301.5893	1342.9928	1381.2195	1458.8933	1477.6178	1486.2135	1486.811	1494.2995	1509.7132	1520.1599	2337.9841	2982.441	3019.6175	3043.1945	3053.5478	3060.8142	3063.5285	3067.6162	3107.1751	3113.8863	3115.9714	3126.5509	3519.0596
CNC(C#N)C1CCC1	CN[C@@H](C#N)C1CCC1	
InChI=1S/C7H12N2/c1-9-7(5-8)6-3-2-4-6/h6-7,9H,2-4H2,1H3	InChI=1S/C7H12N2/c1-9-7(5-8)6-3-2-4-6/h6-7,9H,2-4H2,1H3/t7-/m0/s1
