16
gdb 66269	2.12778	1.64814	1.45848	1.6061	71.33	-0.2677	0.0057	0.2734	1008.1386	0.122843	-437.861873	-437.85331	-437.852366	-437.894914	31.836	
C	-0.0392685232	 1.5859320275	 0.0213613636	-0.431191
C	 0.0292878956	 0.0634342755	 0.0310161855	 0.069679
O	 0.8871647254	-0.3846972581	-1.0335308777	-0.257082
C	 1.4410511636	-1.5908867359	-0.5932862242	 0.006587
O	 1.6007794531	-1.4724578779	 0.8255706437	-0.24184
C	 0.7584477658	-0.4965891479	 1.260897685	 0.390451
N	 0.6052937392	-0.0981022478	 2.4434294831	-0.533138
C	-1.3003945739	-0.5523619581	-0.0830946863	 0.380143
C	-2.3815650966	-1.0645077817	-0.1926139208	-0.499204
H	 0.9728282593	 1.996025158	 0.0373944575	 0.131555
H	-0.5589971654	 1.9331953074	-0.8738926039	 0.135166
H	-0.5756088738	 1.9237880766	 0.909798483	 0.158548
H	 0.7833088875	-2.4477999641	-0.7992528767	 0.116762
H	 2.4217381187	-1.7276988909	-1.054094585	 0.134273
H	 1.1954657461	-0.6211919661	 3.0914559137	 0.231432
H	-3.3410759413	-1.5120800364	-0.2815061105	 0.207861
95.6821	134.8999	173.7019	210.189	229.3896	258.4739	360.9753	407.9208	490.2346	560.0811	624.2465	641.7181	674.4847	677.1879	726.7089	754.3473	881.5983	890.2765	930.8806	983.3414	1025.3804	1123.3926	1141.2236	1171.2533	1185.8618	1194.6649	1238.9458	1307.3756	1401.6707	1437.6475	1478.7378	1486.0264	1537.9371	1796.5805	2233.8345	3003.068	3060.6513	3111.0748	3143.6378	3153.4341	3484.7004	3498.431
CC1(OCOC1=N)C#C	C[C@]1(OCO[C]1[NH])C#C	
InChI=1S/C6H7NO2/c1-3-6(2)5(7)8-4-9-6/h1,7H,4H2,2H3	InChI=1S/C6H7NO2/c1-3-6(2)5(7)8-4-9-6/h1,7H,4H2,2H3/t6-/m0/s1
