16
gdb 66279	1.99981	1.69812	1.40801	4.173	68.45	-0.2754	-0.0589	0.2164	1013.5638	0.123924	-437.926716	-437.918374	-437.91743	-437.959784	31.03	
O	 0.3556518419	 1.4379373947	 0.3801032592	-0.45654
C	-0.0069441364	 0.1338688912	 0.0373597404	 0.177014
C	-1.5088117677	-0.0668745875	-0.2315376371	-0.257177
C	-1.5605421752	-1.3340721911	-1.1171256366	-0.237103
C	-0.329863302	-1.229057333	-2.0453142499	-0.323202
C	 0.6116717788	-0.266979883	-1.3406462453	 0.370481
O	 1.6195507257	 0.2448862059	-1.7457209814	-0.311773
C	 0.4715339698	-0.8446344155	 1.0416095442	 0.242876
N	 0.8489831764	-1.6251920544	 1.8067411572	-0.331294
H	 1.2131683685	 1.5971895615	-0.0464878946	 0.29986
H	-2.0970656169	-0.1525747491	 0.6830094268	 0.13503
H	-1.8520352965	 0.8162657352	-0.7810319211	 0.126963
H	-1.4875339722	-2.226719175	-0.4894215524	 0.137984
H	-2.4975400942	-1.4018738712	-1.6722555721	 0.121111
H	 0.1686978924	-2.1829269279	-2.2392031827	 0.154616
H	-0.5726800723	-0.797319721	-3.0225316045	 0.151154
76.3091	129.3981	145.1401	227.8317	275.4986	339.8042	413.9099	442.6413	499.9543	543.5025	575.052	604.9285	648.4401	682.9326	805.2294	842.4136	910.9874	948.8188	1008.2536	1032.6621	1056.1502	1100.3055	1177.1915	1206.098	1218.386	1240.1932	1295.9045	1327.4575	1346.7249	1400.7925	1443.0007	1491.1242	1501.981	1855.8928	2341.4291	3058.0901	3059.8453	3070.0472	3101.446	3122.0038	3131.6713	3697.0515
OC1(CCCC1=O)C#N	O[C@]1(CCCC1=O)C#N	
InChI=1S/C6H7NO2/c7-4-6(9)3-1-2-5(6)8/h9H,1-3H2	InChI=1S/C6H7NO2/c7-4-6(9)3-1-2-5(6)8/h9H,1-3H2/t6-/m1/s1
