16
gdb 37839	3.22027	2.32468	1.72491	3.8201	72.5	-0.2156	-0.0529	0.1627	794.5564	0.125557	-400.582743	-400.576997	-400.576052	-400.612346	25.186	
C	-0.0616031638	 1.5601025388	 0.1177967364	-0.336488
C	 1.4821141174	 1.2937706946	 0.0238867671	-0.106109
C	 1.3288232973	-0.0030952411	 0.8326808999	 0.093668
O	 2.3203067853	-0.9946048631	 0.3728149363	-0.268495
C	 1.6059859947	-1.1003473073	-0.8257479123	 0.213948
N	 0.712929297	-2.0159162485	-0.9348228012	-0.22893
C	-0.5718666167	-1.2306569909	-0.8507306171	-0.265858
C	 0.0490605652	 0.0527503911	-0.2066416603	 0.237265
C	 1.234208863	 0.3325601797	-1.1765419552	-0.09182
H	-0.455683704	 1.8472564483	 1.097917658	 0.106022
H	-0.4815269449	 2.1849015489	-0.673681706	 0.113647
H	 2.2811687993	 2.0258803287	 0.1338235717	 0.092065
H	 1.2170268699	-0.0489705352	 1.9140251582	 0.10674
H	-1.0907502836	-0.9823684729	-1.7881287324	 0.112208
H	-1.2522071055	-1.8224526478	-0.2312363748	 0.125665
H	 1.0297240296	 0.6530649965	-2.1943889885	 0.096472
307.9677	371.338	393.654	431.7814	544.8697	596.7882	603.784	641.4285	742.7139	783.4121	820.6984	848.602	866.199	890.4595	908.8076	944.9427	958.9262	980.1518	1027.7534	1049.1342	1069.5121	1090.5224	1098.8856	1110.8553	1168.3824	1175.2654	1183.4191	1207.3001	1234.7868	1261.4883	1276.1952	1308.9647	1488.2023	1508.2588	1541.6425	2994.9146	3047.7618	3078.2293	3118.404	3123.6913	3154.6554	3158.5199
C1C2C3OC4=NCC13C24	C1[C@H]2[C@@H]3O[C]4[N]C[C@@]13[C@@H]24	
InChI=1S/C7H7NO/c1-3-4-6-8-2-7(1,4)5(3)9-6/h3-5H,1-2H2	InChI=1S/C7H7NO/c1-3-4-6-8-2-7(1,4)5(3)9-6/h3-5H,1-2H2/t3-,4+,5+,7-/m1/s1
