14
gdb 131471	3.27926	1.62873	1.1424	3.8142	69.91	-0.2373	-0.0354	0.2019	990.9219	0.102735	-436.669048	-436.662313	-436.661369	-436.70021	26.219	
O	 0.1429980652	 1.4138480269	-0.1905049074	-0.408167
C	 0.0348084242	 0.0116633522	-0.0457024071	-0.046131
C	 0.6540888593	-0.5482841192	 1.2407628142	-0.126306
C	-0.2045487809	-1.3036358993	 1.9503048735	-0.218297
C	-1.4870175305	-1.3397077561	 1.252345255	 0.153574
C	-2.771390369	-1.7664496137	 1.2163338088	-0.080934
O	-3.3814199647	-1.2681867306	 0.1118769265	-0.179177
N	-2.4697186096	-0.4838597428	-0.6195732491	-0.233266
C	-1.3720298113	-0.5479915716	 0.0728526624	 0.328178
H	-0.3378546107	 1.8234344517	 0.5377433738	 0.288769
H	 0.5403595008	-0.4050354509	-0.9252321056	 0.129685
H	 1.6796390853	-0.3266746258	 1.5079464487	 0.117237
H	 0.0123980973	-1.8026917001	 2.8858087964	 0.119182
H	-3.3909104654	-2.3907582304	 1.84026906	 0.155653
134.2315	176.5886	303.0891	333.8155	359.4746	505.3746	564.6176	586.9625	655.1054	697.6491	738.8127	783.0527	816.6553	865.5024	869.0906	959.3166	961.2267	975.4104	1081.1126	1089.7834	1099.4949	1173.8083	1246.8243	1257.9539	1277.8501	1341.3111	1397.4517	1423.4948	1574.7103	1608.032	1675.9633	3048.2727	3210.3217	3231.8049	3270.8024	3800.6633
OC1C=CC2=CON=C12	O[C@H]1C=Cc2conc12	
InChI=1S/C6H5NO2/c8-5-2-1-4-3-9-7-6(4)5/h1-3,5,8H	InChI=1S/C6H5NO2/c8-5-2-1-4-3-9-7-6(4)5/h1-3,5,8H/t5-/m0/s1
