15
gdb 64607	2.54302	1.53085	1.26121	4.0256	68.43	-0.2464	-0.061	0.1855	1021.3668	0.110679	-457.792226	-457.784086	-457.783142	-457.825263	30.126	
O	 0.1245882288	 1.4981567366	-0.02951754	-0.461345
C	 0.0669061796	 0.1082802142	 0.0561162702	 0.181
C	 0.7257715603	-0.5113034196	-1.1714668542	 0.115839
O	 1.1275505513	 0.1750704346	-2.077753659	-0.264583
C	 0.6408835077	-0.4574854168	 1.3331552693	-0.118654
C	-0.1903515574	-1.2948762222	 1.9562196491	-0.078831
C	-1.5145382196	-1.4470120877	 1.2598650423	-0.374181
C	-1.4235693522	-0.4202605992	 0.125698509	 0.345576
O	-2.3105689245	-0.0280968692	-0.5738208942	-0.282661
H	 0.432572311	 1.6951041039	-0.9297186981	 0.299278
H	 0.8069043647	-1.6155231844	-1.1821690829	 0.105675
H	 1.6314961152	-0.1765897114	 1.669105504	 0.121872
H	 0.0363942285	-1.8055551848	 2.8849361081	 0.117369
H	-1.6664780291	-2.4440897179	 0.8241449736	 0.145541
H	-2.3843475643	-1.2559298461	 1.899152963	 0.148105
64.4519	105.8179	202.1411	234.8306	309.9023	319.6603	435.4152	445.9082	494.62	549.632	577.055	655.4204	731.1374	743.1364	811.4643	879.4456	959.4006	973.4433	993.2593	1017.6708	1058.3152	1111.4893	1143.7112	1159.9084	1217.3383	1286.1062	1362.9161	1384.8681	1432.4845	1447.8461	1671.7686	1799.2489	1873.4861	2948.2652	3025.0087	3065.2437	3196.0176	3219.9414	3674.7458
OC1(C=O)C=CCC1=O	O[C@@]1(C=O)C=CCC1=O	
InChI=1S/C6H6O3/c7-4-6(9)3-1-2-5(6)8/h1,3-4,9H,2H2	InChI=1S/C6H6O3/c7-4-6(9)3-1-2-5(6)8/h1,3-4,9H,2H2/t6-/m1/s1
