17
gdb 28574	5.35885	0.98332	0.88769	2.5616	78.05	-0.2206	0.0014	0.222	1320.6633	0.137508	-418.023572	-418.01549	-418.014546	-418.056875	29.453	
C	 0.2275638813	 1.4484220872	 0.1299432474	-0.495654
C	 0.022829095	-0.0086084546	-0.0561188116	 0.316523
C	-0.2361145122	-0.8188514211	-1.1107787736	-0.190853
N	-0.3219631273	-2.1376667732	-0.6809144392	-0.334753
C	-0.1198993856	-2.0712023082	 0.5978464088	 0.411301
O	 0.1015747377	-0.8149500784	 1.0574638997	-0.210685
C	-0.0970636892	-3.1791118693	 1.5635925638	-0.125585
C	-1.1526539009	-4.233177319	 1.4685764368	-0.225834
N	 0.2219398908	-4.5260020946	 1.0612649266	-0.311301
H	 1.2183519962	 1.6663181947	 0.5442317261	 0.143492
H	 0.1406206867	 1.9569764085	-0.8328678886	 0.142048
H	-0.5157727412	 1.876671986	 0.8117236629	 0.142741
H	-0.3619724748	-0.5493056121	-2.1475871253	 0.121433
H	 0.3259117816	-2.9280933197	 2.5311519061	 0.108858
H	-1.4845160294	-4.7340671755	 2.3738109502	 0.123904
H	-1.9076648126	-4.0993596609	 0.6995377799	 0.132283
H	 0.2888903438	-4.4678506	 0.0457267798	 0.252081
53.4723	141.8061	161.5337	166.1558	253.6787	296.1831	415.791	442.2253	644.4812	657.962	711.5301	758.6841	829.5452	849.7594	888.0591	968.2518	974.7085	990.381	1013.9598	1040.6094	1067.8834	1111.2706	1133.8228	1162.9122	1192.3298	1215.0218	1245.9512	1276.1049	1311.7264	1323.0906	1418.5262	1444.4496	1472.1546	1492.1026	1503.1159	1604.904	1649.6372	3032.4015	3084.055	3112.4397	3129.6006	3163.5953	3207.0622	3262.1938	3483.9415
CC1=CN=C(O1)C1CN1	Cc1cnc(o1)[C@H]1CN1	
InChI=1S/C6H8N2O/c1-4-2-8-6(9-4)5-3-7-5/h2,5,7H,3H2,1H3	InChI=1S/C6H8N2O/c1-4-2-8-6(9-4)5-3-7-5/h2,5,7H,3H2,1H3/t5-/m1/s1
