17
gdb 51121	3.60091	1.12038	0.99954	1.8719	71.84	-0.2393	-0.0324	0.2069	1198.2095	0.133762	-421.753383	-421.745382	-421.744438	-421.787061	30.053	
O	 0.1033540072	-0.1975070686	-0.0033722383	-0.232983
C	 0.0351516489	 1.002787084	-0.0189113974	 0.161027
C	 1.2309869861	 1.9365110432	-0.0929419345	-0.39631
C	 1.1319444315	 2.8755047902	-1.2569886495	 0.399506
O	 1.7230638344	 4.1794858439	-1.1570618048	-0.286567
C	 0.3373617744	 4.0745025378	-1.5256427697	-0.062557
C	 0.2286434326	 3.7099214483	-3.0393318153	-0.085549
C	 1.5880110401	 3.5530166784	-3.6659656093	-0.286616
C	 1.0637338617	 2.4641054438	-2.7687821681	-0.129527
H	-0.9470768905	 1.5270077177	 0.0236974192	 0.080544
H	 1.2500080125	 2.5378996263	 0.825265439	 0.138111
H	 2.1450974308	 1.3359762748	-0.1391643229	 0.131578
H	-0.3793418445	 4.6239824681	-0.926572902	 0.109165
H	-0.6878166825	 3.7918068033	-3.607530873	 0.098601
H	 1.5724239197	 3.3108734937	-4.7237263928	 0.116125
H	 2.4126898213	 4.1757777776	-3.3443352035	 0.13956
H	 0.8838591566	 1.4494024876	-3.0987348471	 0.105892
44.1829	65.9955	148.9253	256.1797	326.6457	416.1728	448.4011	499.4935	581.9956	626.6769	734.3522	756.5249	798.9267	821.1473	855.8838	898.7249	919.0356	934.6132	980.4153	1006.0408	1015.6159	1049.9665	1067.5306	1074.51	1102.1118	1139.446	1169.8289	1220.364	1262.9569	1273.9766	1295.4913	1307.8152	1422.4464	1452.224	1453.355	1473.5751	1838.1048	2871.4904	3031.8077	3094.805	3143.3391	3185.3347	3200.7048	3211.291	3236.4981
O=CCC12OC1C1CC21	O=CC[C@]12O[C@H]1[C@H]1C[C@@H]21	
InChI=1S/C7H8O2/c8-2-1-7-5-3-4(5)6(7)9-7/h2,4-6H,1,3H2	InChI=1S/C7H8O2/c8-2-1-7-5-3-4(5)6(7)9-7/h2,4-6H,1,3H2/t4-,5+,6-,7+/m0/s1
