18
gdb 112579	3.40222	0.9671	0.9167	3.7428	72.76	-0.2721	0.0025	0.2746	1328.3429	0.146128	-439.080143	-439.070817	-439.069873	-439.114793	33.844	
C	 0.3350304953	 1.284314348	 0.2448083788	-0.436737
C	 0.0008606931	-0.1804415638	-0.0023299168	 0.274682
C	 0.5366025567	-0.8389756369	-1.3068907691	-0.362512
C	 1.2649789174	-1.8108356412	-0.3598527951	 0.128168
C	 2.7811566806	-1.852317404	-0.3833129577	-0.068204
O	 3.2845432519	-2.4961250692	 0.7673927071	-0.415759
O	 0.8026599846	-1.071644053	 0.8105742795	-0.332057
C	-1.4345605857	-0.430727455	 0.2256550743	 0.26138
N	-2.5622089886	-0.6225796996	 0.390130671	-0.332795
H	 1.3987733804	 1.4517181585	 0.0592458714	 0.129856
H	-0.2511754874	 1.9285082801	-0.4172972704	 0.142148
H	 0.1107362946	 1.5538288553	 1.2802643077	 0.150393
H	-0.2138870657	-1.2714725704	-1.9664743141	 0.139259
H	 1.1948644371	-0.1795396633	-1.8764109431	 0.122312
H	 0.8599642689	-2.8290435003	-0.3448793067	 0.103037
H	 3.1259483206	-2.4257149537	-1.251539963	 0.115994
H	 3.1719739759	-0.8256694048	-0.4804645773	 0.083905
H	 2.9080105202	-2.0358071466	 1.5271143235	 0.296931
46.9805	96.7278	139.8371	180.3687	223.6381	254.0324	333.5973	343.1951	410.6772	431.9838	477.362	552.6366	590.8035	629.7978	775.1538	878.6016	893.5886	909.7061	929.5083	1005.4757	1029.4883	1052.9281	1093.456	1138.8828	1155.1627	1202.6607	1224.0052	1255.7195	1260.9975	1309.5884	1349.9771	1399.7734	1406.7069	1435.2357	1478.0934	1485.1042	1490.8174	1494.9819	2353.44	2967.9396	3046.764	3047.7028	3070.4406	3083.0397	3126.3731	3133.1607	3154.9113	3791.7485
CC1(CC(CO)O1)C#N	C[C@]1(C[C@@H](CO)O1)C#N	
InChI=1S/C6H9NO2/c1-6(4-7)2-5(3-8)9-6/h5,8H,2-3H2,1H3	InChI=1S/C6H9NO2/c1-6(4-7)2-5(3-8)9-6/h5,8H,2-3H2,1H3/t5-,6-/m0/s1
