18
gdb 46522	3.74854	1.23597	1.0703	4.5501	72.46	-0.2378	0.0583	0.2961	1136.2845	0.151029	-435.286882	-435.278848	-435.277904	-435.319765	30.661	
O	-0.0166259292	-0.0766722767	-0.0217992012	-0.416987
C	-0.0206953336	 1.1400331364	 0.0490265144	 0.441321
N	-1.1928724875	 1.8652115209	 0.1932409808	-0.343788
C	-1.2678304971	 3.2969197242	-0.051954542	-0.244746
C	-0.0359195801	 3.9479425576	 0.537769755	 0.32985
C	-0.0841012144	 5.3636455902	 0.9633409151	-0.297496
N	-0.0062570468	 4.2851548133	 1.967416922	-0.331457
C	 1.2367072016	 3.3347645773	-0.004549086	-0.200852
N	 1.1347515784	 1.8842273769	 0.0409689303	-0.343522
H	-2.0097742313	 1.3036620164	 0.0107657989	 0.249228
H	-1.3316890276	 3.5339989531	-1.1273011866	 0.108011
H	-2.172263664	 3.6960501605	 0.4206044424	 0.103688
H	 0.8032756427	 5.9870573148	 0.8911759997	 0.121526
H	-1.0210748235	 5.9012262576	 0.8372101309	 0.113377
H	-0.9175971522	 4.1241070096	 2.3901383735	 0.233829
H	 1.4087323263	 3.6913627229	-1.0328314123	 0.102633
H	 2.0799512519	 3.6626703575	 0.6103213961	 0.123485
H	 1.9649268264	 1.3275129674	-0.0779084009	 0.251902
75.7582	93.2672	176.8099	282.9796	358.1608	364.8892	449.5666	456.003	476.3402	548.3573	591.3041	680.9151	759.0298	799.1754	846.0728	889.8999	929.5015	948.1976	974.1271	1002.9306	1060.2257	1084.3286	1101.4308	1151.9171	1158.8604	1231.7893	1255.2544	1258.3726	1282.8068	1344.2726	1359.4367	1417.6768	1425.8882	1471.8478	1480.9204	1515.9961	1519.1369	1527.3035	1805.6011	2957.3875	2972.5236	3053.2249	3077.327	3103.3438	3186.1593	3496.1596	3636.9904	3654.8161
O=C1NCC2(CN2)CN1	O=C1NCC2(CN2)CN1	
InChI=1S/C5H9N3O/c9-4-6-1-5(2-7-4)3-8-5/h8H,1-3H2,(H2,6,7,9)	InChI=1S/C5H9N3O/c9-4-6-1-5(2-7-4)3-8-5/h8H,1-3H2,(H2,6,7,9)
