21
gdb 100485	4.59711	0.56266	0.51946	0.7855	94.07	-0.2461	0.0425	0.2886	2156.9781	0.179002	-349.900952	-349.889737	-349.888793	-349.939564	39.517	
C	 0.0995911963	 1.555801383	 0.0453077736	-0.393889
C	 0.0032361998	 0.0284824998	-0.0012870021	-0.156659
C	-1.4475318675	-0.5139161254	-0.0367903133	-0.143833
C	-2.2124648458	-0.0970476025	-1.3096698542	-0.383532
C	-1.4495477589	-1.9703478872	 0.1092651876	 0.067993
C	-1.4374632695	-3.1697393505	 0.2103943702	 0.093082
C	-1.425297016	-4.6285056703	 0.3432206519	-0.493195
C	-2.7608261383	-5.230103323	 0.3501435817	 0.319997
C	-3.8496965227	-5.7358023497	 0.3570251795	-0.44748
H	 1.1425230235	 1.8727010524	 0.1422164581	 0.114702
H	-0.3008998231	 2.0224880021	-0.859520957	 0.12057
H	-0.4506135508	 1.9618999107	 0.9018518314	 0.114946
H	 0.5418461168	-0.3569956498	-0.8757241167	 0.102872
H	 0.5028636071	-0.3942870381	 0.8770946644	 0.105117
H	-1.9782617861	-0.0885748801	 0.8279385928	 0.100723
H	-2.2924821076	 0.9910196037	-1.3799675732	 0.115051
H	-1.6996173636	-0.4650584962	-2.2040671208	 0.121776
H	-3.2229254957	-0.5134821629	-1.3055682137	 0.126967
H	-0.8377470194	-5.0687912087	-0.4745362508	 0.158065
H	-0.8997352344	-4.9107243505	 1.2662302143	 0.158224
H	-4.8151998841	-6.1773964166	 0.3626129363	 0.198504
9.0916	59.8774	80.2779	129.2055	141.3277	218.781	256.3622	277.4639	307.4982	321.6986	331.3147	374.949	489.8993	520.6017	571.5265	620.0757	645.7789	746.4669	788.8853	845.7728	934.7324	936.617	965.5981	979.0826	1030.9445	1076.676	1132.1436	1151.8229	1199.3906	1230.2787	1283.5801	1314.4856	1334.0983	1344.1826	1375.7731	1405.8906	1414.0025	1454.0273	1483.7556	1492.6691	1498.36	1505.8222	1511.0427	2246.4284	2370.7496	2993.6989	3005.6126	3028.7268	3032.0871	3034.6301	3042.9979	3069.2095	3100.1263	3109.1386	3115.9783	3123.7403	3507.6442
CCC(C)C#CCC#C	CC[C@@H](C)C#CCC#C	
InChI=1S/C9H12/c1-4-6-7-8-9(3)5-2/h1,9H,5-6H2,2-3H3	InChI=1S/C9H12/c1-4-6-7-8-9(3)5-2/h1,9H,5-6H2,2-3H3/t9-/m1/s1
