21
gdb 121867	3.54405	0.69301	0.60627	5.168	75.92	-0.2433	0.0216	0.2649	1832.5196	0.182423	-457.566432	-457.555848	-457.554904	-457.603296	37.3	
C	-0.1700371557	 1.6548716363	 0.3608964157	-0.395579
C	 0.0217416195	 0.1776565467	 0.0107107822	-0.105243
N	 0.7343441562	-0.0879230923	-1.2501962676	-0.329949
H	 1.497760049	 0.5782934313	-1.3425094802	 0.22734
H	 1.5189148568	-1.4701435563	-0.2477287356	 0.294615
C	-0.0841417597	-0.0484250634	-2.4652375146	-0.112999
C	 0.7535452975	-0.3941106665	-3.6962970007	-0.169113
N	-0.0837951343	-0.349174752	-4.895654227	-0.506664
C	 0.7224633759	-0.5825476301	 1.1608803415	 0.421078
O	 0.5278333655	-0.3458116449	 2.3232458909	-0.343056
O	 1.5397780072	-1.5529891911	 0.7337301113	-0.369377
H	 0.7973529857	 2.1655046913	 0.4266155902	 0.119512
H	-0.7785138363	 2.1611863503	-0.393526658	 0.118551
H	-0.6584164928	 1.7454480251	 1.3326505795	 0.155321
H	-0.9643824206	-0.2970567337	-0.0805099255	 0.120139
H	-0.8851436889	-0.7900737761	-2.3504738484	 0.1082
H	-0.5702654416	 0.9247137244	-2.6299031918	 0.109862
H	 1.5446734259	 0.3582472629	-3.8128234429	 0.103472
H	 1.2585241356	-1.3583389261	-3.5193574812	 0.092079
H	 0.4927263593	-0.4449677421	-5.7251769964	 0.232933
H	-0.7196114842	-1.1417873139	-4.9032086314	 0.228876
45.4106	66.9372	83.8351	116.4944	170.9657	217.5374	240.462	254.2736	299.5523	336.6202	409.289	451.8857	556.5068	588.5706	734.4399	779.005	810.5461	836.7964	864.2258	908.5186	936.9343	989.3059	1066.0496	1081.8648	1092.4359	1108.6559	1130.5061	1159.595	1205.9445	1237.7879	1289.3267	1307.1322	1315.2708	1338.278	1384.151	1401.1958	1434.4289	1440.9155	1483.8435	1490.7873	1501.588	1506.9191	1520.8281	1662.7695	1867.7694	2961.8818	2994.7098	3028.1472	3030.8785	3040.5395	3054.1252	3108.7229	3143.382	3430.8796	3488.4956	3493.814	3572.5425
CC([NH2+]CCN)C([O-])=O	C[C@@H](NCCN)C(=O)O	
InChI=1S/C5H12N2O2/c1-4(5(8)9)7-3-2-6/h4,7H,2-3,6H2,1H3,(H,8,9)	InChI=1S/C5H12N2O2/c1-4(5(8)9)7-3-2-6/h4,7H,2-3,6H2,1H3,(H,8,9)/t4-/m1/s1
