17
gdb 51165	4.13841	1.05309	0.9319	3.1911	73.72	-0.2485	-0.0294	0.2191	1248.0815	0.13461	-421.823291	-421.815191	-421.814246	-421.856989	30.001	
O	-0.5583577997	 0.4492375373	 0.4334840026	-0.239138
C	 0.264130582	 0.8715620906	-0.3372352253	 0.157518
C	 1.2813880851	 1.9494549269	-0.0033940627	-0.378558
C	 1.2516076332	 3.0707248648	-1.0137324209	 0.369906
O	 1.8084643071	 2.7500845303	-2.3184548712	-0.299934
C	 2.4251991861	 3.7873964812	-1.5501795737	-0.031532
C	 1.9917387304	 5.1959245183	-1.9368985226	-0.29592
C	 0.5051429446	 5.187359046	-1.6378669227	-0.072456
C	 0.103007006	 4.0300500954	-1.1083992521	-0.131269
H	 0.3364465998	 0.4864559199	-1.3780732069	 0.098933
H	 1.085494753	 2.3169584601	 1.0080974272	 0.126169
H	 2.274986476	 1.4843975177	-0.0272502629	 0.130271
H	 3.4430525605	 3.5851373797	-1.2259811728	 0.096679
H	 2.5246633382	 5.9525637572	-1.3471492278	 0.117049
H	 2.2008558989	 5.4075625553	-2.992404958	 0.130985
H	-0.1376605126	 6.0285059863	-1.8708771613	 0.107561
H	-0.9056304085	 3.7791757928	-0.803473679	 0.113737
46.867	67.873	153.633	275.8357	282.4847	341.4077	447.3626	472.1584	520.842	655.8915	714.1137	741.32	793.7255	813.341	875.5163	909.4474	932.0034	953.6506	967.9337	993.6322	1027.4168	1058.583	1075.1418	1136.741	1172.9438	1185.7493	1258.1101	1270.8626	1304.532	1323.4929	1368.3348	1421.4453	1432.3985	1446.1916	1457.5618	1664.1092	1833.2815	2898.5781	3030.4034	3035.1674	3066.4961	3104.2001	3143.0475	3193.9736	3219.3177
O=CCC12OC1CC=C2	O=CC[C@]12O[C@H]1CC=C2	
InChI=1S/C7H8O2/c8-5-4-7-3-1-2-6(7)9-7/h1,3,5-6H,2,4H2	InChI=1S/C7H8O2/c8-5-4-7-3-1-2-6(7)9-7/h1,3,5-6H,2,4H2/t6-,7-/m0/s1
