21
gdb 106462	2.35091	1.71586	1.1888	0.8636	84.05	-0.2122	0.0245	0.2367	1125.8943	0.182128	-387.057196	-387.048442	-387.047498	-387.090422	33.922	
C	 0.9035631683	-0.4484699303	-0.8785408785	-0.259818
O	-0.0710859554	 0.0145009772	 0.0308916404	-0.307137
C	-1.328765942	-0.5598564708	-0.0845316542	 0.357082
C	-2.2078390216	-0.5681119017	-1.3910761246	-0.275214
C	-3.0186748458	-1.5893255789	-0.5229451486	-0.075505
C	-1.635374823	-2.10195261	 0.0040047599	-0.27521
C	-3.4534773186	-0.6906928317	 0.6435065243	-0.211859
C	-2.3431371568	-0.00824	 0.9381788902	 0.306052
C	-2.0253066936	 1.032407138	 1.9519045085	-0.511932
H	 1.8253219193	 0.0951060322	-0.6587555738	 0.126459
H	 1.0930226	-1.5250564228	-0.7651102671	 0.11126
H	 0.6183378131	-0.2525156891	-1.9216365494	 0.111264
H	-2.7036725468	 0.3644226212	-1.6692449136	 0.093641
H	-1.7174718052	-1.0293744484	-2.2547360023	 0.088145
H	-3.7436496635	-2.2662998222	-0.9697668744	 0.064268
H	-1.0913983333	-2.7068811754	-0.7289908552	 0.088144
H	-1.6109678035	-2.5633149681	 0.993649864	 0.093642
H	-4.4340112777	-0.6447156329	 1.0964247919	 0.093902
H	-2.8991816005	 1.2657246687	 2.5666909122	 0.118659
H	-1.2123972486	 0.7074593159	 2.612282955	 0.132077
H	-1.6784663648	 1.9571926091	 1.4754804052	 0.132079
78.4237	151.9283	176.9156	182.9916	200.0645	293.674	379.6573	444.2587	489.5767	531.2088	575.8208	587.5879	640.7974	776.2312	801.9035	842.4336	885.0836	904.0053	916.8469	960.3118	1007.7954	1008.3275	1057.682	1074.3704	1075.0447	1088.809	1146.0849	1154.064	1177.0594	1181.7873	1220.4127	1222.7812	1242.8324	1266.8368	1275.8309	1333.782	1411.464	1471.6531	1473.0125	1483.2633	1485.8981	1490.7151	1506.0191	1514.6399	1701.2731	2993.0036	3023.8377	3036.3322	3048.3585	3050.731	3071.2763	3109.9487	3116.3935	3117.1986	3121.8371	3138.9689	3226.0827
COC12CC(C1)C=C2C	CO[C@@]12C[C@@H](C1)C=C2C	
InChI=1S/C8H12O/c1-6-3-7-4-8(6,5-7)9-2/h3,7H,4-5H2,1-2H3	InChI=1S/C8H12O/c1-6-3-7-4-8(6,5-7)9-2/h3,7H,4-5H2,1-2H3/t7-,8-
