20
gdb 86145	2.24639	1.61927	1.10147	3.625	75.82	-0.247	0.0253	0.2723	1158.216	0.171328	-440.336778	-440.327453	-440.326509	-440.370641	34.482	
C	-0.031441933	 1.5594773377	 0.05874828	-0.389715
C	-0.0143034201	 0.029674744	-0.0032348868	-0.045537
C	 0.8468544806	-0.4980960006	-1.1822346994	-0.187276
N	 2.1797461802	-0.6402264033	-0.6063252264	-0.0682
C	 3.3779711002	-0.7843789589	-1.3987705553	-0.347918
C	 2.1694838067	-0.6454728144	 0.7509674408	 0.381845
O	 3.1242479468	-0.6668529781	 1.5081696498	-0.420232
C	 0.7095448232	-0.5990695414	 1.2045439631	 0.038479
O	 0.5800571872	 0.0935505237	 2.4164355537	-0.437676
H	 0.9845912892	 1.9683396401	 0.0707125334	 0.122312
H	-0.5537264874	 1.9723600538	-0.8099618904	 0.108276
H	-0.5329497774	 1.9011446248	 0.9659204588	 0.141592
H	-1.038355458	-0.3431227232	-0.088741896	 0.083567
H	 0.4775991202	-1.4603812628	-1.5657519266	 0.106424
H	 0.869236941	 0.2058266555	-2.0222279295	 0.111904
H	 3.5037832533	 0.0674496143	-2.0777846155	 0.127455
H	 4.2265400632	-0.8266407102	-0.7133939799	 0.166145
H	 3.3527478395	-1.7025847734	-1.9988933814	 0.127108
H	 0.3752725234	-1.6460147915	 1.3192390518	 0.087614
H	 1.458256351	 0.0515996436	 2.8254311358	 0.293834
94.3294	119.646	159.8855	192.7388	226.1609	262.8417	275.1754	301.747	354.7048	431.2554	507.8038	541.2793	566.3733	661.8315	733.2416	823.746	864.8854	924.5459	960.9947	988.0422	1058.5756	1086.9193	1111.9012	1137.8823	1169.0671	1178.4768	1229.6468	1236.3953	1274.762	1304.7938	1330.3672	1362.2117	1378.329	1405.3516	1430.0152	1440.1414	1465.3703	1491.2848	1492.8441	1500.1413	1511.0193	1541.5281	1801.8781	2938.6175	2995.6912	3016.4571	3040.2624	3052.1444	3066.822	3070.8172	3105.5975	3137.0682	3141.1548	3709.5005
CC1CN(C)C(=O)C1O	C[C@H]1CN(C)C(=O)[C@H]1O	
InChI=1S/C6H11NO2/c1-4-3-7(2)6(9)5(4)8/h4-5,8H,3H2,1-2H3	InChI=1S/C6H11NO2/c1-4-3-7(2)6(9)5(4)8/h4-5,8H,3H2,1-2H3/t4-,5-/m0/s1
