17
gdb 81306	2.81019	1.55481	1.26045	3.4037	67.95	-0.2602	0.0133	0.2735	1012.2246	0.137778	-458.985174	-458.977803	-458.976859	-459.016869	28.884	
O	-0.0662824742	 1.379763854	 0.061420631	-0.448811
C	-0.0037826991	-0.0267118967	 0.0265271288	 0.145144
C	-1.4265648553	-0.6059684355	-0.138856064	-0.054786
C	-1.2593660659	-0.4267248088	-1.671533687	-0.242433
C	 0.2636897858	-0.6116268564	-1.4010453578	-0.195693
C	 0.5633048046	-2.0886435264	-1.2610740407	 0.426852
O	 1.481089972	-2.6617936112	-1.7775688047	-0.336958
O	-0.307634466	-2.7787873363	-0.4719248315	-0.241112
C	-1.3873235494	-2.0904482146	 0.194111845	-0.083834
H	 0.8274163989	 1.7240622308	-0.0397793175	 0.289006
H	 0.6097150434	-0.4229492359	 0.8475034152	 0.079998
H	-2.2436615084	-0.1043379661	 0.3835001951	 0.088824
H	-1.7517127576	-1.1444043365	-2.3318501591	 0.111277
H	-1.4803654096	 0.5921036053	-1.9863780345	 0.127117
H	 1.0060384529	-0.1404759203	-2.0442422717	 0.090669
H	-1.2507204476	-2.2506825861	 1.2696601115	 0.12151
H	-2.3145023945	-2.5863004592	-0.1129621982	 0.123227
130.0397	178.2429	254.0135	298.9514	327.4092	372.2687	436.9745	452.6396	534.4623	668.0197	736.2674	775.213	862.0446	885.5997	897.8033	925.8646	951.0179	985.252	1025.9276	1068.742	1080.3029	1119.1416	1129.5856	1145.022	1194.1083	1214.0473	1230.9073	1256.4528	1287.7438	1304.579	1317.0094	1336.9627	1414.6521	1433.8075	1492.1524	1515.0757	1856.296	3004.4266	3035.7175	3076.6091	3078.2947	3099.467	3125.8855	3151.1667	3811.321
OC1C2CC1C(=O)OC2	O[C@H]1[C@H]2C[C@@H]1C(=O)OC2	
InChI=1S/C6H8O3/c7-5-3-1-4(5)6(8)9-2-3/h3-5,7H,1-2H2	InChI=1S/C6H8O3/c7-5-3-1-4(5)6(8)9-2-3/h3-5,7H,1-2H2/t3-,4-,5-/m0/s1
