15
gdb 131472	3.33444	1.59127	1.13018	1.5217	73.51	-0.2193	-0.0198	0.1994	1012.6508	0.115982	-416.82125	-416.814357	-416.813413	-416.852437	27.223	
O	 0.206025385	 1.4323333491	-0.1783377882	-0.417378
C	 0.054391414	 0.0243025324	-0.0555311961	-0.081546
C	 0.6204195411	-0.5524488175	 1.2520399583	-0.121622
C	-0.2776563716	-1.2986483278	 1.9185000575	-0.188293
C	-1.5252682236	-1.2931133766	 1.1521251957	 0.332951
N	-2.7373258592	-1.8137788641	 1.2651218294	-0.337761
N	-3.3644325439	-1.3408256469	 0.1554055415	-0.189946
C	-2.5755367485	-0.5512020068	-0.6365144301	-0.221906
C	-1.3591813693	-0.500840792	-0.0073775916	 0.194415
H	-0.2881405664	 1.832871991	 0.5460272333	 0.282158
H	 0.6078930375	-0.3869520988	-0.9094127579	 0.111636
H	 1.6379329132	-0.3441585736	 1.5584152673	 0.107944
H	-0.1220596576	-1.8131930122	 2.8577138096	 0.114481
H	-4.3286012604	-1.5845884033	 0.0058159351	 0.273574
H	-2.9587470803	-0.1147182929	-1.5455256341	 0.141292
140.375	178.2291	302.5947	349.6268	367.4586	452.4824	505.867	561.9186	642.2666	666.1393	721.1322	733.769	791.5593	799.3977	865.2101	958.3245	965.492	970.9993	1049.377	1061.2411	1073.1073	1155.128	1182.6962	1235.3949	1253.445	1309.0717	1335.3421	1417.0104	1425.5396	1462.9748	1522.0004	1602.9486	1641.3178	3034.2579	3209.2636	3232.2117	3259.2539	3678.1033	3797.7254
OC1C=CC2=NNC=C12	O[C@H]1C=Cc2n[nH]cc12	
InChI=1S/C6H6N2O/c9-6-2-1-5-4(6)3-7-8-5/h1-3,6,9H,(H,7,8)	InChI=1S/C6H6N2O/c9-6-2-1-5-4(6)3-7-8-5/h1-3,6,9H,(H,7,8)/t6-/m0/s1
