23
gdb 108854	2.06614	1.25971	0.84292	1.5043	89.03	-0.223	0.0348	0.2578	1451.1877	0.204922	-388.309037	-388.298894	-388.29795	-388.344071	37.799	
C	-0.1133896318	 1.5991817967	-0.0388713025	-0.394144
C	 0.0179391308	 0.0735149975	 0.0280063235	-0.013364
C	 0.7977093298	-0.5457178032	-1.159649375	-0.226282
C	 1.5772723006	-1.754876561	-0.5848135445	-0.071757
C	 2.9299273927	-1.9922960813	-1.2683825679	-0.402936
C	 1.6411561488	-1.4189691752	 0.89804616	 0.303438
C	 2.5111269808	-2.1902495083	 1.8377699291	-0.182583
O	 2.2763382333	-1.7697335032	 3.1703777789	-0.414544
C	 0.7959391405	-0.4397010071	 1.2193073345	-0.16842
H	 0.8737186134	 2.0744414474	-0.0583391956	 0.112111
H	-0.6560251189	 1.9103800577	-0.9382911566	 0.108534
H	-0.6558910383	 1.9896702272	 0.8288318748	 0.110712
H	-1.0002107982	-0.3466439404	 0.0614397001	 0.072871
H	 0.1546815891	-0.8172401914	-2.0021418716	 0.089853
H	 1.5197295958	 0.1935895396	-1.5298862073	 0.092591
H	 0.9794083003	-2.672962678	-0.7062380783	 0.072978
H	 3.5880852272	-1.1247488355	-1.1449415567	 0.114609
H	 3.4461592171	-2.8689670279	-0.8625398692	 0.109706
H	 2.7957323304	-2.1599488763	-2.3423255938	 0.113053
H	 2.3049227134	-3.2700232361	 1.7156243917	 0.090176
H	 3.5702391863	-2.0512937497	 1.5591727724	 0.095634
H	 2.9005329737	-2.2267372788	 3.7407469066	 0.287506
H	 0.6410083534	-0.0734133728	 2.2272477375	 0.100257
80.1321	88.3188	143.0611	169.7897	221.855	234.516	251.6648	264.7409	318.8557	359.7261	421.9665	471.7193	543.35	583.5953	650.2709	796.2301	858.458	868.5929	892.8613	917.463	958.3561	1004.132	1021.823	1037.0684	1068.7887	1083.2851	1118.3722	1121.7999	1160.5709	1187.0386	1219.8812	1233.38	1252.545	1276.6722	1305.8916	1319.5832	1333.2837	1351.0533	1370.9325	1406.6923	1408.1347	1465.7313	1488.7938	1496.1644	1498.0418	1498.8364	1499.8518	1509.1998	1722.687	2928.9709	2953.6846	2964.3177	2967.1052	3021.4756	3024.628	3027.2545	3082.5816	3093.6281	3093.8527	3095.3201	3096.0373	3207.7964	3837.8606
CC1CC(C)C(CO)=C1	C[C@H]1C[C@@H](C)C(=C1)CO	
InChI=1S/C8H14O/c1-6-3-7(2)8(4-6)5-9/h4,6-7,9H,3,5H2,1-2H3	InChI=1S/C8H14O/c1-6-3-7(2)8(4-6)5-9/h4,6-7,9H,3,5H2,1-2H3/t6-,7+/m0/s1
