23
gdb 106667	2.64568	1.17467	0.97096	1.5644	86.83	-0.2422	0.0739	0.316	1342.4214	0.20425	-388.267911	-388.2578	-388.256856	-388.302577	38.128	
C	-0.1477122547	 1.5664641112	 0.0638192859	-0.409856
C	 0.0529966946	 0.0566505515	 0.0080799846	-0.014466
C	 1.1280323664	-0.5437379717	-0.9626367536	-0.30921
C	 1.7654677292	-1.2823847467	 0.2209216743	 0.35371
C	 2.3198959993	-2.669081604	 0.1737760656	-0.206104
O	 3.5936797749	-2.6276376921	-0.4653416866	-0.419532
C	 2.2018107876	-0.2675651986	 1.2446758502	-0.371971
C	 0.7470060434	-0.6549320612	 1.188155994	 0.284023
C	 0.0144518228	-1.2408892897	 2.3634586403	-0.498956
H	 0.7926753026	 2.0929802305	 0.256194671	 0.114708
H	-0.549643173	 1.9434413259	-0.8833213834	 0.112327
H	-0.8523350928	 1.8439660963	 0.8559742957	 0.111454
H	-0.9124572599	-0.4265836367	-0.1814691716	 0.065974
H	 0.6963367603	-1.2105722311	-1.7137533662	 0.094625
H	 1.7773200781	 0.1766227943	-1.4715193644	 0.095482
H	 2.4037178606	-3.0694860027	 1.1978358797	 0.079565
H	 1.6305639761	-3.3288956626	-0.3788070452	 0.079649
H	 3.8971468827	-3.5334401353	-0.5800350184	 0.283413
H	 2.7491287376	-0.6722398867	 2.0912621004	 0.105532
H	 2.5475851569	 0.7143972503	 0.9305295555	 0.102144
H	-0.3685946638	-0.4515021485	 3.0223091437	 0.119981
H	-0.8425656306	-1.8451526596	 2.0426816951	 0.11193
H	 0.6669244616	-1.8788403027	 2.9687259334	 0.115576
73.4279	112.4236	159.987	193.9058	211.9863	220.6584	259.6487	296.4025	301.8078	355.8986	411.6598	442.4394	542.616	606.4885	690.2578	755.01	807.709	855.7275	903.4347	925.4979	952.5269	977.934	991.6277	1030.9387	1050.7103	1069.5746	1086.5237	1103.3999	1123.2333	1178.3789	1183.2884	1223.0157	1235.6276	1249.0476	1261.1407	1294.9314	1344.8371	1368.6488	1398.64	1409.5566	1422.255	1467.5967	1483.0799	1487.4503	1496.0589	1496.8797	1498.1779	1511.9887	1518.5416	2953.4885	2980.3065	3016.1228	3026.12	3031.6603	3042.2401	3071.7273	3089.0097	3091.1832	3095.0114	3100.1044	3106.7619	3189.6149	3819.3795
CC1CC2(CO)CC12C	C[C@H]1C[C@@]2(CO)C[C@@]12C	
InChI=1S/C8H14O/c1-6-3-8(5-9)4-7(6,8)2/h6,9H,3-5H2,1-2H3	InChI=1S/C8H14O/c1-6-3-8(5-9)4-7(6,8)2/h6,9H,3-5H2,1-2H3/t6-,7-,8-/m0/s1
