22
gdb 95516	2.43639	1.55081	1.24408	1.7288	87.71	-0.2298	0.0232	0.2531	1130.4272	0.196333	-367.208863	-367.200452	-367.199507	-367.241356	33.879	
C	-0.1101385604	 1.5795354561	 0.043258622	-0.392949
C	 0.0197946413	 0.0472319469	 0.0238762405	-0.076037
C	 0.7524733194	-0.4575931198	-1.235026348	-0.223731
C	 2.2155661503	 0.0110075099	-1.2743430019	-0.258287
C	 2.8930544856	-0.1551562818	 0.0600797978	-0.071116
C	 2.2295296862	-0.3871667527	 1.1934955534	-0.073299
C	 0.746583351	-0.4735574821	 1.2632645632	 0.332571
C	 0.0594294998	-0.3880316983	 2.5810341117	-0.298072
N	 0.2510213749	-1.7008296729	 1.9497897132	-0.367017
H	 0.8672839578	 2.0633023473	 0.1277732023	 0.127456
H	-0.589422843	 1.9416859364	-0.8727286755	 0.108076
H	-0.7143342966	 1.9119812137	 0.8924917845	 0.112523
H	-0.9947970516	-0.3746929782	 0.0259325309	 0.057312
H	 0.7330062499	-1.5540519018	-1.2347306087	 0.10346
H	 0.2237917207	-0.1291062171	-2.1366907242	 0.088859
H	 2.7644538001	-0.5529323032	-2.0387702088	 0.10438
H	 2.2777217216	 1.0616058168	-1.5937813601	 0.108654
H	 3.9781909511	-0.0872746858	 0.0780105208	 0.085242
H	 2.7663285435	-0.5405157728	 2.1258554194	 0.086292
H	 0.6367674578	-0.2270495371	 3.4883672594	 0.11411
H	-0.9391667737	 0.0429168736	 2.6038771837	 0.106521
H	-0.6194542659	-1.9997473572	 1.5139839344	 0.225053
97.2736	187.6588	226.7128	241.0242	273.817	307.1313	371.2728	425.2349	428.5835	544.8477	559.4049	653.1178	727.109	771.249	824.6108	860.7103	875.5287	911.9015	949.8674	955.4017	967.8763	983.968	1000.4619	1024.0973	1040.4453	1075.0098	1114.5287	1119.3901	1135.6693	1179.6585	1220.7889	1238.0521	1268.629	1304.176	1326.2154	1345.0192	1370.5977	1376.9732	1378.9698	1411.9537	1442.4936	1471.9811	1488.4503	1498.3094	1506.1347	1511.179	1716.2929	2998.2414	3001.752	3028.2821	3037.0346	3044.0192	3071.4131	3095.9071	3102.3523	3114.5649	3147.1585	3171.305	3178.8132	3479.4927
CC1CCC=CC11CN1	C[C@H]1CCC=C[C@]21CN2	
InChI=1S/C8H13N/c1-7-4-2-3-5-8(7)6-9-8/h3,5,7,9H,2,4,6H2,1H3	InChI=1S/C8H13N/c1-7-4-2-3-5-8(7)6-9-8/h3,5,7,9H,2,4,6H2,1H3/t7-,8+/m0/s1
