13
gdb 43661	2.86027	1.31587	1.07749	5.0049	64.59	-0.2606	-0.0885	0.1721	1090.476	0.08754	-456.569695	-456.561813	-456.560868	-456.603144	28.466	
O	-0.0235229867	 0.0527174451	-0.372892251	-0.258128
C	-0.0714725166	 1.2206980401	-0.1172514937	 0.289831
C	-1.2811736244	 2.0867533019	 0.1705370301	-0.36619
C	-0.7196826513	 3.5255610516	 0.0797346519	-0.089097
O	 0.7298221219	 3.4085394618	 0.2036914505	-0.209597
C	 1.164924795	 2.139570209	 0.0071692061	 0.347337
O	 2.3144606398	 1.8252454495	-0.0254864903	-0.301173
C	-1.0544469379	 4.1940598733	-1.170541347	 0.354393
C	-1.34738488	 4.7329995548	-2.2026931127	-0.455407
H	-2.0998052329	 1.8951502644	-0.5226446991	 0.167282
H	-1.6301811418	 1.8694284043	 1.1858829836	 0.159638
H	-1.0359753408	 4.1400832489	 0.9260865963	 0.141112
H	-1.5997861542	 5.2165016352	-3.1148422846	 0.22
39.3487	90.3875	188.2438	245.3264	327.7819	383.7046	454.3467	488.5221	605.5945	610.6481	647.0872	666.7807	690.9446	721.3506	768.113	848.1161	968.7538	996.7733	1042.2955	1066.8315	1166.2081	1210.0894	1257.2276	1333.1388	1369.4231	1442.5992	1874.4678	1889.1782	2245.2666	3061.3471	3082.1355	3144.5501	3499.159
O=C1CC(OC1=O)C#C	O=C1C[C@@H](OC1=O)C#C	
InChI=1S/C6H4O3/c1-2-4-3-5(7)6(8)9-4/h1,4H,3H2	InChI=1S/C6H4O3/c1-2-4-3-5(7)6(8)9-4/h1,4H,3H2/t4-/m0/s1
