20
gdb 78911	3.35944	1.79563	1.61211	1.553	80.15	-0.234	0.0946	0.3286	925.0959	0.174855	-365.990288	-365.983817	-365.982873	-366.020723	27.916	
C	-0.1056027817	 1.5701373682	 0.0724681692	-0.400245
C	-0.0055339586	 0.0509367764	 0.0105790619	 0.042472
C	 0.8290449967	-0.5120801035	-1.1310778463	-0.037571
C	 2.3379275043	-0.3167856703	-0.760518994	-0.060633
C	 2.5926907951	-1.7457120655	-1.3266386528	-0.235773
C	 1.1546616871	-2.0006713189	-0.7875119822	-0.069126
C	 1.3104411703	-1.7856923498	 0.7346059339	-0.045796
C	 2.1650922868	-0.5658653266	 0.7523481481	-0.046632
N	 0.7418283816	-0.4912325895	 1.1666288249	-0.133497
H	 0.8879880545	 2.0300499364	 0.0587172271	 0.11729
H	-0.6716123	 1.9581754574	-0.7804408301	 0.110398
H	-0.608852434	 1.8833831855	 0.9912506355	 0.125986
H	-1.0100379621	-0.3915657538	 0.0210873342	 0.073877
H	 0.5465051819	-0.2982090936	-2.1605300101	 0.069398
H	 2.9194204498	 0.549058417	-1.0745642509	 0.063568
H	 2.6497117885	-1.7681576039	-2.4192293828	 0.094527
H	 3.4137411082	-2.3287414167	-0.8989627619	 0.092943
H	 0.5368548911	-2.8319597059	-1.1259559585	 0.062695
H	 1.3457677666	-2.5959280657	 1.4517248107	 0.088396
H	 2.9242767339	-0.3341089972	 1.4881077942	 0.087723
184.7745	217.3177	267.8479	426.1097	481.4211	555.2636	669.208	704.9934	731.7671	780.0567	832.536	837.0375	865.7516	869.1468	887.518	911.672	930.0158	933.7047	968.8805	995.8593	1017.1628	1041.2795	1054.9303	1068.8882	1087.485	1094.6076	1122.019	1138.7299	1184.1588	1216.1344	1225.3985	1230.9487	1244.6626	1250.9116	1287.2875	1297.7516	1310.9411	1355.1841	1377.6737	1408.124	1490.1148	1498.1998	1505.2718	3027.4528	3037.457	3045.7939	3101.0785	3105.131	3116.0306	3116.852	3119.5649	3136.193	3188.7178	3199.627
CC1C2C3CC2C2C3N12	C[C@H]1[C@H]2[C@@H]3C[C@H]2[C@H]2[C@@H]3N12	
InChI=1S/C8H11N/c1-3-6-4-2-5(6)8-7(4)9(3)8/h3-8H,2H2,1H3	InChI=1S/C8H11N/c1-3-6-4-2-5(6)8-7(4)9(3)8/h3-8H,2H2,1H3/t3-,4-,5+,6-,7+,8-,9?/m0/s1
