19
gdb 90211	3.2893	1.68331	1.46551	1.7	81.05	-0.2015	0.0487	0.2502	967.7682	0.159216	-381.874355	-381.86701	-381.866066	-381.905641	29.96	
C	-0.0771759549	 1.5840534332	 0.0634186116	-0.332456
N	 0.0019051057	 0.1378116411	 0.1197687642	-0.145193
C	-1.237482457	-0.6755226011	 0.4351341452	-0.28216
C	-0.2872317503	-1.6934192618	 1.1245922583	 0.222009
C	 0.6919687845	-2.6626213158	 0.4600053501	-0.280576
C	 1.519651604	-1.8761555127	 1.4750046569	-0.053112
N	 0.3862018411	-1.9323371965	 2.5568783083	-0.198524
C	 0.4557775955	-0.418524636	 2.7340519148	-0.219556
C	 0.6858563667	-0.5456441255	 1.2246965831	 0.215844
H	 0.9268734	 1.9960118889	-0.0783468085	 0.127478
H	-0.6884470773	 1.8904850073	-0.7920970833	 0.122786
H	-0.5120837305	 2.0362436102	 0.9725572935	 0.097424
H	-1.9338767657	-0.1622504935	 1.1132421924	 0.109059
H	-1.7815019498	-1.031354161	-0.445149334	 0.118274
H	 0.5539691327	-3.7270190197	 0.6670979448	 0.104969
H	 0.9117439944	-2.4722126073	-0.5921676413	 0.113645
H	 2.5551456342	-2.0126562257	 1.8029274578	 0.078838
H	-0.4836404436	 0.0108762031	 3.0966243488	 0.102535
H	 1.2912056502	-0.0929495871	 3.3612612473	 0.098717
138.9125	194.0063	250.5116	315.3068	343.1494	391.0262	459.3769	524.6437	547.1062	648.3088	720.7951	785.3075	820.9852	852.4249	883.4512	895.0556	922.287	947.2876	991.8955	1013.1832	1071.6873	1091.7269	1105.6933	1124.8019	1128.8821	1144.3521	1163.7264	1171.4801	1186.3139	1215.5656	1225.1003	1249.3246	1258.3792	1287.4205	1298.621	1444.6544	1479.5841	1485.089	1491.5139	1502.8954	1519.6475	2946.8977	3001.6909	3042.892	3057.2844	3059.6375	3070.5376	3080.3815	3100.1899	3103.2149	3133.3413
CN1CC23CC4N2CC134	CN1C[C@]23C[C@@H]4N2C[C@]134	
InChI=1S/C7H10N2/c1-8-3-6-2-5-7(6,8)4-9(5)6/h5H,2-4H2,1H3	InChI=1S/C7H10N2/c1-8-3-6-2-5-7(6,8)4-9(5)6/h5H,2-4H2,1H3/t5-,6-,7+/m0/s1
