20
gdb 101663	3.74363	0.76182	0.70103	5.9976	73.86	-0.2347	0.0381	0.2728	1626.0198	0.168775	-477.434402	-477.423676	-477.422731	-477.471261	37.281	
C	-0.0974219584	 1.4302920189	 0.0089931603	-0.349328
N	 0.0720631365	-0.011328295	-0.0178328137	-0.024149
C	 0.036193128	-0.7480042351	 1.2286712995	-0.194173
C	-1.3778635502	-0.9848775698	 1.7659965007	 0.138406
O	-2.0510497959	-1.8069773232	 0.8339457327	-0.437645
C	-1.3577986957	-1.6547336426	 3.1376508338	-0.099405
O	-2.7189147327	-1.9041391816	 3.4723150942	-0.430441
C	 0.1564488312	-0.6617781979	-1.2166076809	 0.162268
O	 0.1345091016	-0.1308177686	-2.306891212	-0.346482
H	 0.6712165462	 1.8966926224	 0.636991482	 0.118856
H	-0.0031641359	 1.7914679084	-1.0151344321	 0.169885
H	-1.0825212182	 1.7162295022	 0.3965636794	 0.127497
H	 0.505320152	-1.7246574472	 1.0672015777	 0.122938
H	 0.6310658386	-0.2115124918	 1.9790167561	 0.104248
H	-1.8986358895	-0.0185128064	 1.8747597366	 0.078881
H	-2.8589964222	-2.0984155312	 1.2747129284	 0.293059
H	-0.7866400854	-2.5929290075	 3.0758108158	 0.097564
H	-0.8760829108	-1.0002840949	 3.8799161201	 0.093205
H	-2.7508584022	-2.5338921368	 4.1975624827	 0.297001
H	 0.2641546528	-1.7538243322	-1.0799801813	 0.077815
44.1354	55.6456	90.9845	138.7747	158.3573	217.6697	247.8291	286.3812	306.7537	340.3308	381.0129	397.3647	449.0935	471.0964	560.9464	705.8097	876.7416	884.2605	918.0729	1019.9175	1022.0478	1074.348	1081.9952	1095.3713	1139.3813	1159.9136	1207.3423	1240.782	1265.5945	1285.4269	1301.5302	1354.4034	1396.6768	1427.3883	1435.6794	1441.5455	1445.3719	1454.5125	1475.4191	1498.4648	1508.3612	1522.0827	1795.9542	2959.5664	2963.9572	2980.3494	3018.382	3022.9958	3025.7804	3069.3632	3079.2548	3155.8419	3784.4245	3842.774
CN(CC(O)CO)C=O	CN(C[C@@H](O)CO)C=O	
InChI=1S/C5H11NO3/c1-6(4-8)2-5(9)3-7/h4-5,7,9H,2-3H2,1H3	InChI=1S/C5H11NO3/c1-6(4-8)2-5(9)3-7/h4-5,7,9H,2-3H2,1H3/t5-/m1/s1
