18
gdb 32227	2.57223	1.51385	0.96137	1.3264	85.12	-0.1807	0.0196	0.2003	1206.0307	0.149315	-402.012857	-402.004434	-402.00349	-402.045559	32.61	
C	 0.0466298356	 1.4397858469	-0.1199458062	-0.321794
N	-0.1535987086	 0.0284495469	 0.120748514	-0.369219
C	 0.5531627225	-0.6422914237	 1.1053080549	 0.280965
C	 1.2321011712	-0.0050823353	 2.1482725237	-0.210343
C	 1.8890768615	-0.7420015506	 3.1358085779	-0.112582
C	 1.8912089144	-2.1287420252	 3.0955625438	-0.127936
C	 1.2274392671	-2.7821203534	 2.0528202884	-0.229869
C	 0.5702888174	-2.0548114805	 1.0754091236	 0.311765
O	-0.0936666368	-2.6338871746	 0.0205509853	-0.466432
H	 1.101479503	 1.7098681129	-0.2892994936	 0.113668
H	-0.5300755042	 1.732359934	-1.0002455619	 0.12315
H	-0.318462581	 2.0357895702	 0.7247453285	 0.130802
H	-0.3429839318	-0.5350499524	-0.6924090763	 0.248816
H	 1.2450058553	 1.0773587153	 2.1917454798	 0.086348
H	 2.4030721079	-0.2179097802	 3.9344256042	 0.08555
H	 2.4013985332	-2.7071389005	 3.8571404956	 0.086064
H	 1.2214047107	-3.8683741531	 1.9989178445	 0.075285
H	 0.0087362824	-3.5888918668	 0.0726526137	 0.295763
100.5815	168.6514	209.6504	225.9187	292.3984	323.7253	337.9131	442.7647	470.9729	526.9452	550.5206	574.6153	609.6085	736.5147	752.2033	784.1796	843.512	847.9515	877.9108	933.0545	1062.0045	1083.834	1112.5829	1153.7005	1177.9877	1181.7117	1196.1186	1262.2775	1304.9388	1344.9934	1395.7947	1461.3386	1478.5967	1485.9166	1514.1655	1528.5983	1560.0994	1633.045	1655.9749	2973.636	3050.3911	3118.2188	3148.6623	3176.7645	3195.9371	3204.9318	3634.1972	3835.5245
CNC1=CC=CC=C1O	CNc1ccccc1O	
InChI=1S/C7H9NO/c1-8-6-4-2-3-5-7(6)9/h2-5,8-9H,1H3	InChI=1S/C7H9NO/c1-8-6-4-2-3-5-7(6)9/h2-5,8-9H,1H3
