21
gdb 90255	3.35472	1.42572	1.20087	1.9903	81.73	-0.2356	0.0696	0.3052	1105.107	0.183377	-387.039652	-387.031722	-387.030778	-387.071998	31.693	
C	-0.0946550462	 1.5747641969	-0.0046856227	-0.403791
C	 0.0136910935	 0.0553958344	 0.0062749594	 0.029526
C	 1.0612343456	-0.5748919268	-0.9782070453	-0.365987
C	 1.8672090855	-1.0505673447	 0.2264158969	 0.334386
C	 2.8403762827	-2.1880444538	 0.4955981232	-0.182356
O	 3.5863671339	-1.3627944092	 1.4284607278	-0.296948
C	 2.8440412064	-0.1760482409	 1.0597388331	 0.082091
C	 1.7314556573	 0.1938272867	 2.0704791577	-0.260009
C	 0.7320847734	-0.6417863158	 1.2241213487	-0.089617
H	 0.8858741534	 2.0569375527	 0.0706846251	 0.117558
H	-0.5545581198	 1.9186131761	-0.9375830029	 0.115296
H	-0.7100985437	 1.939561895	 0.8250403544	 0.116926
H	-0.9828982895	-0.3700995745	-0.141216977	 0.075572
H	 0.6411018192	-1.3978712064	-1.5651191157	 0.101368
H	 1.5673375563	 0.1105092476	-1.6665041195	 0.096232
H	 2.441889701	-3.0956928681	 0.9662496445	 0.09951
H	 3.4618291422	-2.4749913804	-0.3654377045	 0.096608
H	 3.4939955104	 0.6078085613	 0.6550572168	 0.065577
H	 1.933087538	-0.215520328	 3.0633058679	 0.110151
H	 1.5068426979	 1.2594725915	 2.1685599218	 0.097154
H	 0.1186322425	-1.3789513035	 1.7461503001	 0.060753
70.242	183.0938	224.0172	258.2365	303.2115	356.6881	394.4162	448.1991	511.6106	658.1695	712.8991	749.4207	797.539	845.79	867.3769	879.1174	917.8957	946.1705	977.1526	995.5608	999.3379	1021.5418	1069.2001	1092.8506	1122.7093	1125.5742	1143.5268	1163.9558	1186.2353	1211.5451	1226.001	1246.8271	1267.3404	1279.0295	1293.3973	1305.3003	1321.9154	1356.8749	1378.1033	1408.1133	1461.4932	1482.3463	1493.825	1499.0466	1517.8155	2989.6415	3026.3507	3036.6871	3040.5299	3042.7706	3052.4738	3060.0544	3082.8078	3085.9314	3093.669	3097.0414	3114.7278
CC1CC23COC2CC13	C[C@H]1C[C@@]23CO[C@@H]2C[C@@H]13	
InChI=1S/C8H12O/c1-5-3-8-4-9-7(8)2-6(5)8/h5-7H,2-4H2,1H3	InChI=1S/C8H12O/c1-5-3-8-4-9-7(8)2-6(5)8/h5-7H,2-4H2,1H3/t5-,6-,7+,8-/m0/s1
