19
gdb 60904	3.2954	1.10519	1.05343	2.1562	76.5	-0.2517	-0.037	0.2147	1219.0593	0.158357	-423.004783	-422.996204	-422.995259	-423.038388	32.434	
O	 0.2255531149	 1.567907913	-0.0611586526	-0.431628
C	 0.0427487544	 0.1816517478	 0.0543894838	-0.076383
C	 0.4920257191	-0.5094445087	-1.2221287646	 0.137406
O	 0.9396943481	 0.108573755	-2.1579726362	-0.264313
C	 0.7819628185	-0.3887928831	 1.2403447358	 0.377258
C	 0.3338594144	-1.629983462	 1.9663925329	-0.341459
C	 0.4148081476	-0.3356698524	 2.7271332968	-0.107118
C	 1.8698728252	-0.0223171756	 3.0923844988	-0.217761
C	 2.2484641217	-0.0765893393	 1.5753696699	-0.296378
H	 0.5671907011	 1.7102916789	-0.9585538472	 0.294111
H	-1.0302176934	-0.0623372337	 0.1748402547	 0.08886
H	 0.392441733	-1.613064685	-1.2406445998	 0.102993
H	-0.6730017404	-1.9695057981	 1.7403889115	 0.11082
H	 1.0389448807	-2.4347109327	 2.1637227372	 0.107288
H	-0.4625771722	 0.1040881918	 3.1862336867	 0.093037
H	 2.0020833492	 0.9758168919	 3.5139062269	 0.111482
H	 2.3600507943	-0.7483083197	 3.7491209883	 0.097277
H	 2.9867632643	-0.8255442051	 1.2704639781	 0.092642
H	 2.5494924296	 0.900197817	 1.1939718388	 0.121866
63.8518	96.5863	150.1436	241.4416	261.5772	301.1837	356.8731	418.1619	461.003	509.5244	649.2283	721.4435	776.958	787.9205	836.2392	850.0648	892.7869	934.4221	949.1981	971.0334	1005.0553	1028.9732	1042.7361	1084.2622	1110.7886	1143.2523	1156.4761	1203.8917	1224.3836	1243.0889	1262.5736	1271.1771	1302.8521	1336.9892	1389.144	1393.6519	1436.8641	1478.9352	1483.5391	1508.318	1810.078	2923.7469	2944.7569	3044.5887	3052.9793	3101.9487	3108.4119	3128.442	3180.9707	3192.0564	3686.1222
OC(C=O)C12CC1CC2	O[C@@H](C=O)[C@]12C[C@H]1CC2	
InChI=1S/C7H10O2/c8-4-6(9)7-2-1-5(7)3-7/h4-6,9H,1-3H2	InChI=1S/C7H10O2/c8-4-6(9)7-2-1-5(7)3-7/h4-6,9H,1-3H2/t5-,6+,7-/m1/s1
