17
gdb 48259	3.25356	0.91365	0.75959	2.7509	80.6	-0.2521	-0.0266	0.2255	1461.7429	0.130988	-384.627595	-384.617348	-384.616404	-384.663931	35.868	
O	-0.0463148207	-0.0818519111	 0.0014079587	-0.235482
C	 0.0191261183	 1.1163488169	 0.0080371584	 0.184526
C	 1.3070523694	 1.9255933549	-3.4518*^-6	-0.073275
C	 1.3547401453	 2.8237546774	-1.2623600215	-0.384292
C	 1.3748871568	 2.0674300705	-2.5072456538	 0.284317
C	 1.3881021418	 1.4223125072	-3.5205479289	-0.410592
C	 1.3791293825	 2.8103252645	 1.270605454	-0.384273
C	 1.4227861164	 2.0407994099	 2.5067776821	 0.284267
C	 1.4551203494	 1.384892898	 3.5126989873	-0.410584
H	-0.9030257179	 1.74802835	 0.0210552436	 0.069945
H	 2.1415480031	 1.2204435543	-0.0118150315	 0.120854
H	 0.4896834775	 3.5016956056	-1.2555893121	 0.135465
H	 2.2425673599	 3.4656062752	-1.2023059029	 0.139658
H	 1.3980796968	 0.8536391565	-4.4173216252	 0.202171
H	 2.265838135	 3.4526931533	 1.2004441915	 0.139657
H	 0.5142978641	 3.488375761	 1.2875548651	 0.135465
H	 1.4820865621	 0.8067424857	 4.4030402771	 0.202173
50.0449	59.1302	79.6376	91.4323	173.1072	279.124	305.8914	320.2903	338.7335	344.8805	431.9234	544.2456	570.6843	632.085	632.5168	647.7299	647.9817	829.9319	873.8456	912.7854	978.6782	1000.1904	1042.4447	1089.4311	1097.8676	1201.2529	1224.9569	1274.8512	1341.8502	1352.3677	1355.9768	1427.9565	1464.9885	1477.5552	1847.5127	2243.1609	2243.8337	2833.0135	3011.0437	3014.3336	3047.5053	3049.1319	3098.4616	3506.3082	3506.6077
O=CC(CC#C)CC#C	O=CC(CC#C)CC#C	
InChI=1S/C8H8O/c1-3-5-8(7-9)6-4-2/h1-2,7-8H,5-6H2	InChI=1S/C8H8O/c1-3-5-8(7-9)6-4-2/h1-2,7-8H,5-6H2
