23
gdb 81708	2.49457	1.49482	1.23286	1.3839	84.12	-0.249	0.0787	0.3277	1140.073	0.209068	-388.293604	-388.285506	-388.284562	-388.325529	33.586	
O	-0.1446892641	 1.4567501353	 0.0185780488	-0.456566
C	-0.0026386466	 0.0455273248	-0.010802049	 0.137142
C	 0.2937609183	-0.5745978216	 1.3887213381	-0.031318
C	-1.2467287236	-0.6890338688	 1.5911616123	-0.239773
C	-1.4176994073	-0.5876183404	 0.0466942324	 0.009903
C	-1.5523349866	-1.9323598534	-0.680211694	-0.220093
C	-0.7678345646	-3.1153505043	-0.0816046559	-0.188586
C	 0.725453364	-2.8507000506	 0.1660885334	-0.188879
C	 1.0460937932	-1.913583899	 1.3489963585	-0.212833
H	 0.7135912913	 1.8350358208	 0.2359087906	 0.276407
H	 0.6484545324	-0.2595796043	-0.8426368449	 0.050736
H	 0.8010057323	 0.1073263078	 2.0799902983	 0.0538
H	-1.6248663562	-1.5837366054	 2.0927628034	 0.087891
H	-1.6485607316	 0.1918881794	 2.094847175	 0.103286
H	-2.1915298861	 0.1011361827	-0.3024162833	 0.073555
H	-2.6133483601	-2.2093173995	-0.7114506376	 0.094055
H	-1.2456380264	-1.790875428	-1.7260970019	 0.094331
H	-1.2369314018	-3.4354685248	 0.8574380608	 0.096101
H	-0.8686151464	-3.9659159943	-0.7662815882	 0.090307
H	 1.2311983701	-3.8059759446	 0.350270124	 0.089805
H	 1.1739828086	-2.4526792746	-0.7535455553	 0.096592
H	 2.1253315324	-1.7135248349	 1.3382709425	 0.089423
H	 0.8468900889	-2.4451375521	 2.289483842	 0.094714
164.8071	223.6427	239.7754	295.6257	303.9925	333.6866	355.2331	378.1743	396.256	546.1523	563.9036	745.8249	779.8027	809.2084	839.1993	845.052	878.6423	902.6239	932.2665	955.2974	987.5383	1024.7573	1061.1317	1068.1138	1076.3307	1085.1681	1142.8752	1144.6951	1175.666	1184.8365	1198.708	1223.4528	1258.2141	1273.9336	1298.816	1304.5303	1321.3873	1334.2965	1347.6237	1374.148	1388.4662	1389.9157	1394.0832	1418.8528	1477.5351	1480.0138	1484.4652	1498.3122	1506.2428	2988.1173	3006.789	3007.7894	3018.7087	3021.4724	3036.3341	3044.8957	3048.2251	3056.8887	3060.3509	3065.8896	3074.0706	3118.8443	3808.3959
OC1C2CC1CCCC2	O[C@H]1[C@H]2C[C@@H]1CCCC2	
InChI=1S/C8H14O/c9-8-6-3-1-2-4-7(8)5-6/h6-9H,1-5H2	InChI=1S/C8H14O/c9-8-6-3-1-2-4-7(8)5-6/h6-9H,1-5H2/t6-,7+,8+
