16
gdb 24618	4.88894	1.01663	0.91306	1.7057	69.28	-0.2468	-0.0018	0.245	1237.8267	0.12617	-437.886559	-437.879089	-437.878145	-437.920565	26.624	
C	 0.1284581081	 1.5171419892	-0.0928010006	-0.087927
O	 1.5404122572	 1.4592006883	 0.1807133256	-0.26952
C	 1.4728214042	 0.0526188721	 0.4896934831	-0.071452
C	-0.0131202574	-0.0158394019	 0.0390503694	-0.157326
C	-1.0133285553	-0.5801117475	 0.9815373428	 0.246842
C	-1.8868326357	 0.0303188888	 1.8212324472	-0.118863
O	-2.5875037835	-0.9358402525	 2.4918091993	-0.138576
C	-2.089599459	-2.0961966834	 2.0140771402	 0.076
N	-1.1646527202	-1.962352737	 1.1236166368	-0.307285
H	-0.4091440107	 2.1012399328	 0.6666615395	 0.096723
H	-0.0861134137	 1.9412953407	-1.0799834969	 0.107798
H	 2.1875116617	-0.5346551313	-0.0965326083	 0.110124
H	 1.6288481624	-0.1440258411	 1.557891041	 0.103742
H	-0.1113429878	-0.5127601337	-0.9289254578	 0.105006
H	-2.1382431724	 1.0493208229	 2.0560526008	 0.150767
H	-2.5085054877	-3.0059080762	 2.4150504881	 0.153945
24.3384	63.874	149.1451	206.3724	368.7282	424.8533	588.3154	641.1568	717.077	774.0796	832.8761	852.5178	894.9565	919.3587	939.4145	987.8191	1024.7121	1041.3355	1060.3712	1099.5003	1105.3546	1139.9579	1160.7485	1170.5932	1222.2097	1254.2184	1258.1197	1309.7534	1340.8114	1365.5522	1399.9549	1510.1017	1534.8985	1560.6511	1627.9564	3003.9788	3020.2689	3055.7775	3068.1332	3087.068	3275.1537	3300.1431
C1OCC1C1=COC=N1	C1OCC1c1cocn1	
InChI=1S/C6H7NO2/c1-5(2-8-1)6-3-9-4-7-6/h3-5H,1-2H2	InChI=1S/C6H7NO2/c1-5(2-8-1)6-3-9-4-7-6/h3-5H,1-2H2
