17
gdb 126096	3.17196	1.56157	1.10992	2.9652	74.43	-0.2323	0.0128	0.2451	1068.9617	0.138694	-418.023466	-418.015924	-418.014979	-418.05581	28.646	
C	 0.082747997	 1.5810350563	-0.1410746849	-0.383925
C	-0.0439240282	 0.074605936	 0.064446709	 0.00511
O	 0.5654618675	-0.6038590849	-1.0628040428	-0.298268
C	 1.4684529839	-1.6483514825	-0.6717587916	-0.182824
C	 1.5680737609	-1.4890750463	 0.8113860315	 0.295854
N	 2.2541847017	-2.0486047319	 1.7946510882	-0.325796
N	 1.7954642584	-1.388186816	 2.8859096995	-0.182108
C	 0.852119993	-0.4418022292	 2.605415162	-0.22986
C	 0.6858620674	-0.4890808757	 1.2416242968	 0.212639
H	 1.1348393451	 1.8786295636	-0.1459323308	 0.121104
H	-0.3676479477	 1.8683551311	-1.0951695603	 0.125946
H	-0.4323774991	 2.1205991566	 0.6608181023	 0.109357
H	-1.1118707277	-0.1949050893	 0.0866277968	 0.085956
H	 1.0637443334	-2.6282152189	-0.9650070486	 0.113749
H	 2.4229043881	-1.5095742097	-1.1948661878	 0.120663
H	 2.1743210696	-1.6233619656	 3.7877525876	 0.274717
H	 0.4078980367	 0.1535054763	 3.3873173131	 0.137687
65.2597	156.8657	227.3503	231.9767	306.2736	452.1819	476.6766	492.2355	612.282	650.2194	674.1224	725.3739	779.3007	791.1408	856.1272	973.0762	1004.3974	1039.689	1046.6289	1057.2339	1085.2854	1111.31	1149.4152	1190.0106	1195.3639	1293.6326	1326.8656	1355.0768	1375.6575	1402.1962	1447.7671	1472.1703	1482.5551	1494.1634	1518.6745	1520.0251	1632.3034	2968.2303	2993.9632	3036.778	3038.7196	3111.694	3125.5407	3260.6841	3673.224
CC1OCC2=NNC=C12	C[C@H]1OCc2n[nH]cc12	
InChI=1S/C6H8N2O/c1-4-5-2-7-8-6(5)3-9-4/h2,4H,3H2,1H3,(H,7,8)	InChI=1S/C6H8N2O/c1-4-5-2-7-8-6(5)3-9-4/h2,4H,3H2,1H3,(H,7,8)/t4-/m1/s1
