17
gdb 72309	2.32881	1.93718	1.54196	3.396	74.	-0.2171	-0.0557	0.1614	938.6301	0.134316	-417.859917	-417.851958	-417.851013	-417.891677	31.421	
C	 0.0024253133	 1.4415751033	 0.0654027926	-0.493532
C	-0.0642110033	-0.0562111667	-0.0995001903	 0.255999
C	 0.8487535774	-0.7819443611	-1.1176300222	-0.228476
N	 0.5465209864	-2.2118738733	-0.8475100042	-0.152738
C	-0.5618371795	-2.1870617409	-0.2227235673	 0.039185
N	-0.5039521057	-2.4327857001	 1.2326904449	-0.33948
C	-0.6572926895	-0.8820962722	 1.1951702483	-0.161684
C	-1.3332652142	-0.8010326856	-0.1154720447	 0.286199
O	-2.5479771724	-0.3683339331	-0.5895197312	-0.459085
H	 0.9755621618	 1.7534175954	 0.4589557409	 0.128586
H	-0.1424157984	 1.936410936	-0.9013409527	 0.133718
H	-0.7753114271	 1.8115658065	 0.7394148684	 0.126818
H	 0.6566670113	-0.4249597336	-2.1415288289	 0.114149
H	 1.9199127003	-0.6635164186	-0.9205562635	 0.127225
H	-1.4152750469	-2.7366944699	 1.5948885724	 0.21725
H	-0.800485443	-0.3571948747	 2.1349717872	 0.114347
H	-3.2494121305	-0.8986914015	-0.1941043195	 0.291519
183.0529	192.7773	212.6227	271.2027	291.327	315.8089	333.5303	469.639	485.6774	549.0762	589.7081	610.3527	718.2308	748.7843	806.8841	892.043	903.0767	948.9341	961.8518	974.9595	1008.5185	1055.6661	1088.2681	1110.7108	1139.5901	1188.194	1211.712	1217.2491	1269.3634	1304.1341	1339.6937	1415.3711	1464.4259	1478.702	1487.4786	1507.834	1609.4873	2987.3306	3033.5138	3065.3488	3094.5069	3110.8918	3163.5452	3357.8473	3789.0282
CC12CN=C3NC1C23O	C[C@@]12C[N][C]3N[C@@H]1[C@@]23O	
InChI=1S/C6H8N2O/c1-5-2-7-4-6(5,9)3(5)8-4/h3,9H,2H2,1H3,(H,7,8)	InChI=1S/C6H8N2O/c1-5-2-7-4-6(5,9)3(5)8-4/h3,9H,2H2,1H3,(H,7,8)/t3-,5+,6-/m0/s1
