18
gdb 133795	2.83241	0.85857	0.76666	3.1695	61.06	-0.273	0.0714	0.3444	1475.1082	0.142208	-570.600103	-570.590026	-570.589082	-570.636098	35.391	
C	 0.0806776679	 1.5895205491	 0.0419202806	-0.411741
C	-0.0242932555	 0.0582447436	-0.007533524	-0.136424
C	-1.4693718227	-0.4658157948	 0.0421915442	-0.180624
C	-2.1831904335	-0.1748702389	 1.3574078325	-0.089685
O	-3.4450633651	-0.8202381568	 1.2980437923	-0.418066
C	 0.6744402133	-0.4686520308	-1.2549325748	 0.289604
F	 1.9584544123	-0.0732059969	-1.3060474148	-0.085632
F	 0.6763012217	-1.8113002399	-1.2963620333	-0.083019
F	 0.0809565919	-0.0356407836	-2.3809244135	-0.088145
H	 1.1206310079	 1.9110261464	-0.0489010204	 0.134466
H	-0.4902537528	 2.0425728278	-0.7741610115	 0.133975
H	-0.3097353424	 1.974555969	 0.9863098468	 0.123804
H	 0.5393040702	-0.3676412825	 0.8324978968	 0.102811
H	-2.0487862753	-0.0352314971	-0.7816684988	 0.119356
H	-1.4687902232	-1.5502941936	-0.1032375046	 0.125486
H	-1.5789995407	-0.5534087704	 2.1993387426	 0.085976
H	-2.3023300407	 0.9094723941	 1.5028146898	 0.090237
H	-3.9309585334	-0.6077021547	 2.10009765	 0.287623
56.6383	71.3189	101.4347	142.1011	198.6584	256.5474	264.2105	279.6991	326.9391	332.5233	426.5449	488.1703	566.1105	583.8002	660.1878	795.4376	813.3991	907.498	977.0224	1023.4999	1029.8087	1081.2873	1116.7958	1155.8691	1184.8315	1205.377	1241.1411	1249.4141	1284.2058	1313.874	1329.6762	1358.0311	1396.615	1412.7838	1466.8568	1494.0726	1497.4175	1511.4732	1529.9684	2958.4845	2998.0032	3034.5009	3052.0014	3055.1758	3101.4915	3125.3511	3133.7111	3832.1697
CC(CCO)C(F)(F)F	C[C@@H](CCO)C(F)(F)F	
InChI=1S/C5H9F3O/c1-4(2-3-9)5(6,7)8/h4,9H,2-3H2,1H3	InChI=1S/C5H9F3O/c1-4(2-3-9)5(6,7)8/h4,9H,2-3H2,1H3/t4-/m0/s1
