19
gdb 69699	3.71772	1.30441	1.18458	3.1064	79.19	-0.2264	-0.0207	0.2057	1100.4491	0.158698	-385.860519	-385.852619	-385.851675	-385.892696	31.454	
C	-0.0383687772	 1.5365061813	 0.0419423925	-0.50087
C	 0.0387484978	 0.0370098071	 0.0179884135	 0.366776
C	-0.84664455	-0.8422810366	 0.8580162641	-0.355608
C	 0.646474936	-0.9463339478	 1.0301041472	-0.099166
C	 1.3128104614	-1.745207421	-0.1172692652	-0.14759
C	 0.6852692399	-0.7577832839	-1.1520002103	-0.089802
C	-0.1030397058	-1.9159569764	-1.8289581623	-0.379946
C	 0.484816881	-2.8803244697	-0.7645433607	 0.394252
O	 0.3669798096	-4.0525995775	-0.5604569327	-0.296157
H	 0.92221306	 1.9918961776	-0.2254979002	 0.117496
H	-0.7887788709	 1.9054457906	-0.6685243772	 0.12179
H	-0.3174456648	 1.9024795908	 1.0355075983	 0.119581
H	-1.3507329236	-0.320133953	 1.6659731756	 0.113116
H	-1.4342971882	-1.6571381532	 0.4452752	 0.119947
H	 1.1218015521	-0.7537427247	 1.9845242863	 0.091601
H	 2.3878944388	-1.9007127841	-0.0234337093	 0.09052
H	 1.3271414188	-0.1589920971	-1.7967810059	 0.075094
H	-1.1933399368	-1.8508159734	-1.8774776494	 0.128564
H	 0.2706922519	-2.1670164288	-2.8277349343	 0.130401
90.1326	165.082	207.0753	274.6083	301.3369	384.7014	425.8131	455.3391	539.7923	594.9812	651.4469	746.2235	766.4207	819.6397	837.5774	881.0492	890.5582	950.8847	961.4614	978.8228	991.9895	1023.4109	1055.3707	1072.3919	1088.326	1101.3984	1115.2418	1136.6695	1199.3879	1216.4684	1231.1592	1234.8409	1263.2372	1306.673	1395.1255	1421.4338	1434.0507	1484.7625	1497.8395	1506.7744	1886.5795	3017.7047	3050.7257	3075.2878	3095.5048	3105.0258	3112.1765	3119.1679	3123.2272	3178.4775	3197.1344
CC12CC1C1C2CC1=O	C[C@]12C[C@H]1[C@@H]1[C@H]2CC1=O	
InChI=1S/C8H10O/c1-8-3-5(8)7-4(8)2-6(7)9/h4-5,7H,2-3H2,1H3	InChI=1S/C8H10O/c1-8-3-5(8)7-4(8)2-6(7)9/h4-5,7H,2-3H2,1H3/t4-,5+,7+,8-/m1/s1
