19
gdb 67790	3.10906	1.972	1.4682	0.5386	82.61	-0.2126	0.0273	0.2399	935.4032	0.16105	-348.71159	-348.704798	-348.703854	-348.742066	29.483	
C	-0.0074539377	 1.454445754	 0.0288198427	-0.486445
C	-0.0382402044	-0.0615199447	-0.0179313934	 0.321065
C	-1.2517966875	-0.6788604916	-0.5778135127	-0.147732
C	-1.319543247	-2.0117025296	-0.6373004033	-0.087963
C	-0.1686323439	-2.7695895546	-0.1353523466	-0.092017
C	 1.264767362	-2.2545237694	-0.3053177142	-0.106303
C	 0.6457729912	-2.2842351782	 1.0688004882	-0.106351
C	 0.7144673944	-0.7452426188	 1.1339499851	-0.123939
C	 1.3339872026	-0.7154781313	-0.241965872	-0.123981
H	 0.9292372984	 1.8231246833	 0.4586849438	 0.114461
H	-0.1037523648	 1.8786486871	-0.9767712754	 0.119819
H	-0.8309308055	 1.8436582768	 0.6377859147	 0.119825
H	-2.0531540124	-0.0340525295	-0.9247086771	 0.081947
H	-2.1790416109	-2.5393272377	-1.035847119	 0.088121
H	-0.2319894607	-3.8522644569	-0.1873741466	 0.08376
H	 2.0368219878	-2.8808392333	-0.7318544588	 0.088239
H	 0.848242861	-2.9378989925	 1.9066565868	 0.088238
H	 0.9813176952	-0.1877192182	 2.0224048463	 0.084629
H	 2.1668254222	-0.130753895	-0.6105723986	 0.084627
205.6121	247.5796	315.1566	368.4452	392.0234	496.8946	554.5546	633.1441	658.8439	660.9989	728.1071	755.6188	805.4241	839.4354	853.1755	858.6702	904.7	912.0332	950.851	963.4574	968.0286	981.4127	1008.2677	1032.9607	1064.6795	1071.7737	1097.991	1137.0473	1155.8466	1180.4686	1220.8868	1269.1589	1275.7998	1284.6333	1362.2332	1403.5056	1417.8001	1450.6989	1491.9402	1502.4022	1692.2253	3026.5993	3089.4783	3100.4034	3156.0438	3167.5784	3184.6611	3192.9793	3195.7781	3196.2499	3208.6257
CC12C=CC3C4C3C1C24	C[C@]12C=C[C@H]3[C@@H]4[C@H]3[C@H]1[C@H]24	
InChI=1S/C9H10/c1-9-3-2-4-5-6(4)8(9)7(5)9/h2-8H,1H3	InChI=1S/C9H10/c1-9-3-2-4-5-6(4)8(9)7(5)9/h2-8H,1H3/t4-,5+,6-,7+,8-,9+
