15
gdb 18658	3.25639	2.3367	1.59361	2.904	66.2	-0.2299	-0.0201	0.2099	798.1511	0.120733	-362.665043	-362.658616	-362.657672	-362.6956	25.127	
O	 0.0666851301	-0.0169152297	 0.1432090259	-0.325256
C	-0.00418218	 1.1861169003	 0.0269098575	 0.433013
C	-1.3353632001	 1.9196116303	-0.099305569	-0.373324
C	-1.3064916308	 3.0368770291	-1.1153102916	-0.081655
C	-0.182917195	 3.6583171096	-1.4702228992	-0.020159
C	 1.1238117348	 3.3101317321	-0.8538214966	-0.082411
N	 1.1685542032	 3.3502600668	 0.6189698655	-0.331499
C	 1.2221647172	 2.0361501607	-0.0614731571	-0.146105
H	-2.1058375235	 1.1779378762	-0.3247783904	 0.130116
H	-1.5745786619	 2.3375795809	 0.8901091715	 0.15394
H	-2.2581960548	 3.3340432346	-1.5460445571	 0.103342
H	-0.1955181244	 4.4587648045	-2.2033584937	 0.095807
H	 2.0181530113	 3.6152355368	-1.3901612084	 0.098928
H	 2.1062220053	 3.5883379979	 0.934115821	 0.242762
H	 2.1546879988	 1.4804509299	-0.0676058583	 0.102501
101.8764	217.3214	294.252	435.6731	457.863	484.3088	568.4784	596.2994	711.4179	732.2848	788.938	871.1223	899.4999	918.1538	944.6682	961.4781	985.6628	998.5832	1064.4098	1139.6866	1160.6935	1186.3122	1191.5983	1243.6719	1258.9203	1323.5303	1383.8708	1402.276	1438.2388	1443.2219	1715.9807	1806.3956	3009.5886	3097.8331	3145.0126	3164.1804	3167.0673	3186.8371	3498.4604
O=C1CC=CC2NC12	O=C1CC=C[C@H]2N[C@@H]12	
InChI=1S/C6H7NO/c8-5-3-1-2-4-6(5)7-4/h1-2,4,6-7H,3H2	InChI=1S/C6H7NO/c8-5-3-1-2-4-6(5)7-4/h1-2,4,6-7H,3H2/t4-,6-/m1/s1
