15
gdb 21145	3.39647	2.01086	1.28331	3.5561	65.67	-0.2143	0.0052	0.2195	923.69	0.118405	-395.96585	-395.957563	-395.956619	-396.000047	27.613	
C	 0.0351813057	 1.3882376932	 0.0079923228	-0.320597
N	 0.027436398	-0.0677509702	 0.0028279349	-0.399996
C	-1.0903831401	-0.6509184615	 0.009174499	 0.543329
O	-2.3478695683	-0.1020631084	 0.0206715353	-0.260407
N	-3.3275874285	-1.1429502127	 0.0240809656	-0.143627
C	-2.6325482034	-2.2290825791	 0.0144253399	 0.059971
N	-1.2866792238	-2.0280073614	 0.0060451361	-0.126793
C	-0.2080939127	-2.9914331677	-0.0070354497	-0.330363
H	 1.0707673046	 1.736443948	-0.001149265	 0.118302
H	-0.4741834986	 1.8098268248	-0.8693282767	 0.121063
H	-0.4562086259	 1.8032383815	 0.8986093967	 0.121056
H	-3.0846357814	-3.2101637629	 0.0140682759	 0.162663
H	-0.6288175857	-3.9982504852	-0.0015147204	 0.137708
H	 0.4081230013	-2.8561866241	-0.900262127	 0.158639
H	 0.4292692687	-2.8552486342	 0.8709944626	 0.159053
41.4152	48.0624	135.4961	178.0809	191.266	286.4657	290.0562	549.8261	592.2157	642.5356	725.9974	757.5914	877.5603	889.0888	923.4598	1069.2309	1086.0151	1122.8504	1136.1104	1161.5701	1178.0401	1233.8009	1353.2827	1435.2379	1447.0066	1465.3111	1469.7731	1491.0059	1502.0146	1523.8661	1654.0184	1799.4266	2998.2409	3046.5055	3049.1679	3104.8939	3113.3976	3146.5596	3257.3794
CN=C1ON=CN1C	CN=c1oncn1C	
InChI=1S/C4H7N3O/c1-5-4-7(2)3-6-8-4/h3H,1-2H3	InChI=1S/C4H7N3O/c1-5-4-7(2)3-6-8-4/h3H,1-2H3
