19
gdb 112673	3.11944	1.13564	0.89748	2.8666	72.45	-0.2672	0.0059	0.2731	1336.8989	0.158017	-460.220785	-460.211564	-460.21062	-460.255271	33.266	
C	-0.0456945979	 1.5452261557	 0.0778137303	-0.391352
C	-0.120012204	 0.0190570205	-0.0093456335	-0.202895
C	 0.6348410718	-0.5406715632	-1.1962352875	 0.226087
O	 0.5726597558	-1.9469400937	-1.2083128301	-0.268888
C	 0.589286009	-2.356157095	-2.5696698058	-0.028169
C	-0.2267961177	-3.6189764453	-2.7790868626	-0.402787
C	 0.0293416445	-1.1394072259	-3.3065391716	 0.416866
O	-0.3610139378	-1.0618775303	-4.4334929069	-0.336502
O	 0.0407842142	-0.1019359406	-2.4323825299	-0.233849
H	 0.9901498746	 1.8892019502	 0.1708085791	 0.11964
H	-0.4756684315	 2.0093197003	-0.8137743323	 0.1424
H	-0.5958377625	 1.9081121219	 0.9499526789	 0.122585
H	 0.3061576463	-0.44341326	 0.8880224955	 0.117614
H	-1.1580646718	-0.3212917457	-0.0866240944	 0.116144
H	 1.6832789887	-0.1969237784	-1.2067881143	 0.084525
H	 1.6261733549	-2.5101532946	-2.9146162741	 0.107189
H	-1.2450584512	-3.4806350905	-2.4065317356	 0.133539
H	-0.2708353765	-3.8455916688	-3.8472665862	 0.14665
H	 0.2288137511	-4.4613653465	-2.2533618589	 0.131201
66.5834	101.0826	119.5461	195.1667	206.2986	237.0058	241.1079	360.6226	428.4947	461.4077	535.7991	611.4775	703.0109	724.4765	787.1013	829.7279	906.4387	916.5765	966.0968	1020.7564	1068.1577	1089.1601	1118.9478	1148.0777	1151.0881	1171.0523	1219.2523	1282.8614	1322.8317	1333.4929	1360.7338	1390.4199	1405.2735	1414.9291	1439.0531	1476.9186	1483.4101	1497.6719	1499.4372	1509.4882	1894.618	2961.3961	2965.2099	3041.7759	3047.3379	3053.7208	3087.5712	3111.753	3126.4168	3132.8227	3137.9173
CCC1OC(C)C(=O)O1	CC[C@H]1O[C@@H](C)C(=O)O1	
InChI=1S/C6H10O3/c1-3-5-8-4(2)6(7)9-5/h4-5H,3H2,1-2H3	InChI=1S/C6H10O3/c1-3-5-8-4(2)6(7)9-5/h4-5H,3H2,1-2H3/t4-,5-/m0/s1
