18
gdb 90193	4.08209	1.55317	1.39679	1.5151	75.58	-0.2297	0.0661	0.2959	952.0788	0.149556	-401.843732	-401.837056	-401.836112	-401.874494	27.919	
O	-0.0031115421	 1.426412185	 0.0241315913	-0.43983
C	 0.0033839092	 0.0102436905	 0.0000460851	 0.119605
C	 0.5410119327	-0.6517825519	 1.332649063	-0.377779
C	-0.7670913804	-1.287904021	 1.7316809893	 0.338069
C	-1.579944353	-2.2399015334	 2.6200672294	-0.341352
C	-2.5146923439	-1.8160750732	 1.457940911	-0.025238
C	-1.9899069402	-0.3621254049	 1.4171086938	-0.064786
C	-1.4603816534	-0.4797631914	-0.0098618051	-0.024546
N	-1.3529326691	-1.9333577402	 0.4436758211	-0.188908
H	 0.9062434193	 1.7344673827	-0.0355852475	 0.285813
H	 0.5496663463	-0.3688783181	-0.874240923	 0.076829
H	 1.3362487783	-1.3796642066	 1.1525560749	 0.109
H	 0.8913415596	 0.1142238343	 2.0293043734	 0.10306
H	-1.263818339	-3.2864740522	 2.6270503833	 0.110261
H	-1.8395621204	-1.8849442452	 3.6203439102	 0.10191
H	-3.5106550854	-2.1944739789	 1.2238620995	 0.081292
H	-2.3286739369	 0.5097938429	 1.9842260928	 0.068993
H	-2.0432429016	-0.2564344183	-0.9053433526	 0.067607
122.2493	284.6584	291.9406	380.6357	404.1615	479.3356	493.762	690.4412	700.2932	737.6072	808.2427	821.3524	844.3703	861.6335	879.8059	931.7558	938.7906	969.7247	1004.6378	1020.1815	1026.7637	1056.402	1104.8977	1122.7374	1132.845	1162.4115	1178.6985	1190.6384	1200.5648	1205.3378	1235.6426	1251.2559	1286.2861	1294.764	1329.6412	1350.1262	1421.0056	1476.8564	1491.0698	3010.764	3056.7309	3060.4125	3062.8267	3100.4744	3107.2017	3116.6014	3125.5157	3823.5704
OC1CC23CC4C2C1N34	O[C@H]1C[C@@]23C[C@H]4[C@@H]2[C@@H]1N34	
InChI=1S/C7H9NO/c9-4-2-7-1-3-5(7)6(4)8(3)7/h3-6,9H,1-2H2	InChI=1S/C7H9NO/c9-4-2-7-1-3-5(7)6(4)8(3)7/h3-6,9H,1-2H2/t3-,4-,5+,6+,7-/m0/s1
