15
gdb 98007	8.34423	0.49053	0.466	2.7647	95.31	-0.2487	-0.0587	0.19	2295.1327	0.109571	-420.611863	-420.601571	-420.600627	-420.65067	33.294	
C	-0.0332102063	 1.3590944255	 0.0739866306	-0.240734
O	 0.0267766955	-0.0724819563	 0.0040162298	-0.214047
C	 0.6117046782	-0.560802992	-1.1062596747	 0.1506
O	 1.0630658762	 0.1186033736	-1.9965805726	-0.352753
C	 0.6278514235	-2.0011851635	-1.0915440937	 0.102537
C	 0.6854795797	-3.2096406299	-1.1640066673	 0.137559
C	 0.7409380858	-4.5628968523	-1.2276465658	-0.244933
C	 0.7909241728	-5.7713518468	-1.2851756425	 0.261343
C	 0.8499486445	-7.2186145942	-1.3535999394	-0.519971
H	 0.9717894289	 1.7880137113	 0.0532791617	 0.144726
H	-0.6048138338	 1.7619876621	-0.7658772429	 0.144725
H	-0.5275951206	 1.585258984	 1.0183276239	 0.136959
H	 1.4354354804	-7.5513295466	-2.2176584773	 0.164298
H	 1.3119259566	-7.6354733736	-0.4517671533	 0.164632
H	-0.1547217611	-7.6468240913	-1.4424542764	 0.165058
5.9886	56.4946	62.2869	124.5526	145.9631	153.3285	245.3779	295.3535	338.517	381.9508	383.409	520.3132	585.3729	591.1675	742.2164	772.0348	887.9613	1023.7364	1045.1896	1047.5568	1176.6191	1187.3974	1219.3209	1327.9211	1411.8076	1467.4335	1469.3899	1471.7697	1480.9361	1495.7346	1782.1788	2271.7565	2371.3114	3027.2157	3052.2404	3091.4664	3092.6962	3127.191	3162.9224	6.0496	56.497	62.289	124.5525	145.9624	153.3278	245.3735	295.3511	338.5113	381.9509	383.4032	520.3092	585.368	591.1656	742.2168	772.0358	887.9614	1023.7364	1045.1882	1047.5555	1176.6194	1187.3974	1219.3209	1327.9215	1411.8071	1467.4325	1469.3889	1471.7698	1480.9363	1495.735	1782.1773	2271.755	2371.3111	3027.2157	3052.2404	3091.4665	3092.6963	3127.1909	3162.9224
COC(=O)C#CC#CC	COC(=O)C#CC#CC	
InChI=1S/C7H6O2/c1-3-4-5-6-7(8)9-2/h1-2H3	InChI=1S/C7H6O2/c1-3-4-5-6-7(8)9-2/h1-2H3
