23
gdb 83867	1.89828	1.79714	1.24076	1.3478	84.78	-0.2516	0.0708	0.3224	1147.8316	0.207864	-388.292757	-388.283839	-388.282895	-388.32597	35.293	
C	-0.3817126902	 1.47313767	-0.0947168105	-0.410924
C	-0.0458624757	 0.0017127348	 0.0164983	-0.001621
C	 1.3045591741	-0.6012419974	-0.3239529259	-0.065686
C	 2.5165237075	 0.2599748731	-0.6786993819	-0.218046
C	 3.402550962	 0.5689072759	 0.5385398108	-0.197558
C	 2.5701764486	 1.1601175621	 1.6811020917	-0.240649
C	 1.5158424071	 0.161602743	 2.1915237421	 0.120531
O	 0.5280040254	 0.7998911841	 3.0029211185	-0.441095
C	 0.7944574216	-0.6166230674	 1.1094828366	-0.040446
H	 0.4915223005	 2.121542944	-0.0048672254	 0.115339
H	-0.843406608	 1.6847614822	-1.0659636828	 0.106751
H	-1.0849471988	 1.7676678515	 0.689652904	 0.131128
H	-0.885753481	-0.6285930795	-0.2676918556	 0.0791
H	 1.2699945357	-1.5550626276	-0.841695442	 0.078343
H	 3.1078075324	-0.2571413381	-1.4410385553	 0.094888
H	 2.1993636157	 1.2056243822	-1.136026722	 0.10074
H	 3.8879248589	-0.3545975108	 0.8822958721	 0.094174
H	 4.2059319443	 1.2586152005	 0.2564843273	 0.090421
H	 3.2177209907	 1.4450717095	 2.5206063041	 0.081288
H	 2.0711822755	 2.0779062775	 1.3509052187	 0.107094
H	 2.0552483037	-0.5869638899	 2.7973807312	 0.061088
H	 0.9855999305	 1.2446159338	 3.7246152424	 0.274832
H	 0.4225504894	-1.5705592834	 1.4723600019	 0.080308
87.9568	123.2214	192.7411	225.9777	288.2532	298.4002	325.2623	401.8677	413.4235	445.107	505.2963	623.5065	659.3257	725.0713	764.9033	780.4002	873.466	895.0215	918.8471	933.8651	968.6092	1023.464	1054.3718	1072.2617	1076.7318	1083.3995	1108.3539	1129.4669	1154.0532	1160.3996	1192.7659	1216.5892	1251.5755	1281.0995	1286.0472	1343.0447	1354.1482	1370.0401	1374.2915	1387.4223	1396.1796	1420.514	1439.5123	1450.1952	1484.0062	1491.65	1494.6297	1505.3571	1511.5634	2938.8663	3014.5185	3021.8694	3025.9156	3037.6332	3061.7693	3068.5237	3074.9936	3099.5002	3115.2488	3133.5809	3135.1637	3149.7535	3800.6856
CC1C2CCCC(O)C12	C[C@H]1[C@H]2CCC[C@@H](O)[C@@H]12	
InChI=1S/C8H14O/c1-5-6-3-2-4-7(9)8(5)6/h5-9H,2-4H2,1H3	InChI=1S/C8H14O/c1-5-6-3-2-4-7(9)8(5)6/h5-9H,2-4H2,1H3/t5-,6+,7+,8-/m0/s1
