20
gdb 81571	2.65211	1.35475	1.22667	2.4857	80.83	-0.2172	-0.0134	0.2039	1138.2017	0.169026	-403.080068	-403.0711	-403.070156	-403.113912	33.646	
C	-0.9970121194	 1.4040887371	 0.0732806441	-0.340978
N	-0.7629363072	-0.0286471902	-0.0356113336	-0.09351
C	-1.4032710861	-0.9969184689	 0.9460796879	-0.036294
C	-0.3319372445	-2.009493859	 0.4527145446	-0.211177
C	 0.3851583529	-0.6582778235	 0.7221179883	-0.057166
C	-0.4088675717	-0.5997669248	 2.0784806609	-0.05271
C	-0.60881445	 0.6073042218	 2.9721906065	 0.31971
C	 0.6528931692	 1.2987535826	 3.4630570059	-0.479683
O	-1.7131867197	 0.9321379022	 3.3503447867	-0.308292
H	-0.8579550512	 1.8563997237	 1.064128367	 0.112549
H	-0.3248121303	 1.9129366791	-0.6264063155	 0.118017
H	-2.0243642337	 1.6144893008	-0.2407942841	 0.129365
H	-2.4837162907	-1.1220671832	 1.0135164955	 0.094431
H	-0.0917858754	-2.8470101024	 1.1091476294	 0.09446
H	-0.4083742291	-2.283218096	-0.5984270319	 0.11008
H	 1.426008836	-0.3931840489	 0.5255461516	 0.081577
H	-0.1486662007	-1.4238157931	 2.7590339981	 0.100533
H	 1.3293388908	 0.571604896	 3.9267404475	 0.13631
H	 1.196609165	 1.7431093328	 2.6221113951	 0.140396
H	 0.3944695956	 2.074717654	 4.1848367362	 0.142383
67.5852	116.335	145.1171	165.7276	200.7821	300.9872	312.1477	369.4751	476.5476	527.8933	574.3074	640.5881	747.6198	761.1083	801.4674	822.9092	886.1041	895.3306	936.635	992.9153	1025.8297	1043.3944	1063.8144	1079.5618	1102.3179	1107.5746	1146.4312	1182.4401	1194.4307	1201.7334	1207.3262	1230.1894	1238.9304	1283.2251	1366.1216	1382.739	1448.7503	1462.0734	1476.1316	1490.9217	1493.2047	1497.4966	1792.2013	2999.6474	3011.6333	3036.1851	3069.5393	3082.2064	3096.5057	3096.8581	3099.3954	3125.069	3150.0675	3168.4072
CN1C2CC1C2C(C)=O	CN1[C@H]2C[C@@H]1[C@H]2C(=O)C	
InChI=1S/C7H11NO/c1-4(9)7-5-3-6(7)8(5)2/h5-7H,3H2,1-2H3	InChI=1S/C7H11NO/c1-4(9)7-5-3-6(7)8(5)2/h5-7H,3H2,1-2H3/t5-,6+,7-
