18
gdb 31728	5.95005	0.8321	0.74885	1.7306	77.	-0.1777	0.0309	0.2086	1507.3122	0.14896	-435.294542	-435.285369	-435.284425	-435.32887	33.373	
C	 0.0488252938	 1.3393864032	 0.0483527219	-0.322814
N	-0.0460597382	-0.0648788051	-0.2943717233	-0.372789
C	-1.2549374541	-0.7078438341	-0.0728312636	 0.318151
C	-2.5152109339	-0.1702815642	 0.0763117029	-0.201587
N	-3.3498110533	-1.2724186409	 0.207029776	-0.263359
C	-2.5774629977	-2.3837169258	 0.1422025319	 0.298178
C	-3.1585724288	-3.7557216395	 0.2937550875	-0.174909
O	-4.4856167418	-3.8299402814	-0.2181283414	-0.418411
N	-1.3049814393	-2.0816939661	-0.0296159258	-0.376165
H	 1.0738218014	 1.6821715066	-0.1107161553	 0.122255
H	-0.6008858633	 1.9283288921	-0.6099467353	 0.125986
H	-0.2406285344	 1.5614372622	 1.0892667187	 0.105722
H	 0.7321376622	-0.6293523225	 0.0150448926	 0.238399
H	-2.8904805437	 0.8374381834	 0.0758207595	 0.11653
H	-4.3501271376	-1.2755806904	 0.3128164057	 0.264983
H	-2.4789695491	-4.4794506499	-0.1736703114	 0.123538
H	-3.2459595856	-4.028626596	 1.3523358167	 0.128806
H	-4.4345678666	-3.6926088817	-1.1703266475	 0.287487
57.0109	86.6349	160.0693	174.4846	212.759	276.5568	327.4171	358.4366	381.2593	518.6696	542.5106	584.7377	627.1713	675.0563	711.451	742.4823	759.6391	975.4942	993.7031	1005.6787	1068.4043	1097.8051	1104.8426	1158.222	1170.2807	1190.3562	1265.6842	1292.6005	1356.826	1365.9114	1409.9808	1458.8947	1478.1276	1488.2418	1493.3448	1504.6298	1521.7582	1575.0228	1632.6564	2962.9911	3024.1761	3050.6445	3061.3113	3116.8159	3290.1638	3597.3337	3671.7905	3805.9632
CNC1=CNC(CO)=N1	CNc1c[nH]c(CO)n1	
InChI=1S/C5H9N3O/c1-6-4-2-7-5(3-9)8-4/h2,6,9H,3H2,1H3,(H,7,8)	InChI=1S/C5H9N3O/c1-6-4-2-7-5(3-9)8-4/h2,6,9H,3H2,1H3,(H,7,8)
