23
gdb 118099	2.67122	1.0253	0.84256	1.5485	82.66	-0.2475	0.0739	0.3213	1483.2274	0.202544	-425.408408	-425.397603	-425.396659	-425.444617	39.798	
C	 0.1336662085	 1.4413942745	 0.1853891109	-0.385439
C	-0.0977936891	-0.0471649388	-0.015773862	-0.033866
O	 0.7401327411	-0.4884079901	-1.0667472726	-0.260554
C	 0.7104347983	-1.8840566431	-1.3255825027	 0.085658
C	-0.5037251539	-2.270829075	-2.1781137295	-0.41919
C	 2.0237896448	-2.2581668794	-2.007810819	 0.388558
O	 2.1368518981	-3.6385455751	-2.250825953	-0.472814
C	 2.677610546	-1.3106768681	-2.978542991	-0.321562
C	 3.3002602751	-1.5836879385	-1.6200072588	-0.299014
H	 1.1782014181	 1.6368014327	 0.4443306428	 0.126059
H	-0.1008188686	 1.9928870217	-0.729569601	 0.126266
H	-0.5017577486	 1.8202349968	 0.991518967	 0.114763
H	 0.1325245455	-0.6035122942	 0.9076973825	 0.08913
H	-1.1569617434	-0.2361733396	-0.2506299559	 0.088896
H	 0.6687144942	-2.4351723148	-0.3714154463	 0.072423
H	-0.4721166046	-1.751371466	-3.1413095816	 0.121427
H	-0.5206740113	-3.3504507444	-2.3543733015	 0.114378
H	-1.4396631509	-2.0087299121	-1.6774195722	 0.117912
H	 1.6455200375	-3.8399740437	-3.0541026466	 0.282294
H	 3.1593083374	-1.7479342243	-3.8464444067	 0.104683
H	 2.2150935026	-0.3435300699	-3.1340645408	 0.125023
H	 3.2536597802	-0.794812931	-0.8801450691	 0.1197
H	 4.182286563	-2.2126243475	-1.5909124429	 0.115266
52.441	69.137	90.0068	154.4092	200.9808	248.1917	262.5387	291.2603	299.9567	338.8422	360.7197	407.874	455.9116	496.2583	557.6681	711.4013	781.4632	821.3725	856.8801	894.675	909.5952	934.5794	957.7249	990.0809	1049.9873	1057.5808	1080.6351	1094.954	1116.0053	1148.5675	1158.7816	1188.8687	1195.0858	1247.2602	1296.9597	1313.7942	1355.7581	1357.7934	1376.3223	1395.4977	1402.6276	1436.2578	1439.211	1484.2376	1490.5387	1493.3114	1500.1622	1500.4638	1530.435	2962.8912	2970.9778	2995.2151	3040.1487	3044.4134	3113.9623	3115.6359	3119.1547	3121.0257	3137.4129	3148.7099	3230.0381	3246.504	3805.2075
CCOC(C)C1(O)CC1	CCO[C@@H](C)C1(O)CC1	
InChI=1S/C7H14O2/c1-3-9-6(2)7(8)4-5-7/h6,8H,3-5H2,1-2H3	InChI=1S/C7H14O2/c1-3-9-6(2)7(8)4-5-7/h6,8H,3-5H2,1-2H3/t6-/m0/s1
