19
gdb 118944	2.56744	1.06077	0.97435	3.2168	72.65	-0.2486	0.019	0.2675	1305.855	0.158756	-456.324148	-456.314493	-456.313549	-456.35895	35.218	
N	-0.0086135434	 1.5514011522	-0.0119987272	-0.548016
C	-0.0056219218	 0.1044277144	-0.0326532238	 0.145327
C	-1.4428945925	-0.4299972463	-0.0881109776	-0.24795
C	-2.3332352936	 0.0611680666	 1.0601996483	-0.07085
O	-3.6499401255	-0.4651016458	 0.9606904376	-0.419828
C	 0.9831443669	-0.6618380802	-0.974713097	-0.129534
O	 1.6384839939	-1.2531472159	 0.1880449837	-0.257002
C	 0.8504071965	-0.5373377744	 1.0629273873	 0.418504
N	 0.8737982793	-0.4727619092	 2.3145958558	-0.538594
H	 0.9312865118	 1.9282394996	 0.047715861	 0.23586
H	-0.4433751005	 1.9222501397	-0.8513692791	 0.23236
H	-1.8978780295	-0.1386047394	-1.0444639002	 0.102275
H	-1.4126726141	-1.5272579851	-0.0799069016	 0.09573
H	-1.8654127386	-0.1794500325	 2.0236923244	 0.123735
H	-2.433270843	 1.1474155563	 1.0135027627	 0.124927
H	-3.6098251999	-1.4015813516	 1.1777766642	 0.280412
H	 0.5627578946	-1.433853581	-1.6243697135	 0.115274
H	 1.6763276659	-0.0243893989	-1.5316088948	 0.108542
H	 1.6131345235	-1.0602187585	 2.7053962196	 0.228827
76.0351	93.3522	111.3149	171.8043	206.8838	272.8556	292.7697	302.8492	339.9607	386.0965	434.3309	526.6048	684.6267	744.7887	754.8347	795.946	820.1479	871.2778	916.6076	963.0634	979.3612	1007.5391	1020.8822	1065.6669	1075.7665	1102.3126	1131.6375	1154.3088	1228.175	1269.7292	1302.0148	1310.0775	1334.9232	1392.7629	1400.5309	1416.801	1481.5676	1511.0432	1515.2461	1654.5456	1819.0101	3013.283	3031.4135	3048.2267	3053.5446	3112.2739	3116.9922	3469.2231	3496.9888	3585.1771	3818.8493
NC1(CCO)COC1=N	N[C@@]1(CCO)CO[C]1[NH]	
InChI=1S/C5H10N2O2/c6-4-5(7,1-2-8)3-9-4/h6,8H,1-3,7H2	InChI=1S/C5H10N2O2/c6-4-5(7,1-2-8)3-9-4/h6,8H,1-3,7H2/t5-/m0/s1
