18
gdb 75186	4.60623	0.94341	0.8255	2.1612	75.81	-0.2483	-0.0358	0.2124	1372.4979	0.147219	-439.115434	-439.106576	-439.105632	-439.149719	31.641	
C	-0.0347873325	 1.4875002405	 0.0400584291	-0.453692
C	-0.0420452555	-0.0072190497	-0.0752108827	 0.399515
N	-0.0424444815	-0.5987992855	-1.1962056574	-0.306038
C	 0.0109789825	-2.0502523089	-1.2426814988	-0.175585
C	 0.499086309	-2.7024894005	 0.0714498394	-0.12504
C	-0.2177800482	-1.9941593551	 1.225781232	-0.091136
O	-0.0378215574	-0.5800501889	 1.163687489	-0.256068
C	 0.1885523021	-4.1805184886	 0.0709881239	 0.150756
O	 1.0075412218	-5.0615426293	 0.103609351	-0.241093
H	 0.8323777283	 1.8156513173	 0.6219751502	 0.141464
H	-0.0007670193	 1.929974892	-0.954439608	 0.147285
H	-0.928480891	 1.832450469	 0.5698020568	 0.138908
H	-0.9866941521	-2.4332372019	-1.5032484539	 0.112636
H	 0.6724751537	-2.3413779325	-2.0652643534	 0.128017
H	 1.5806567082	-2.5782163614	 0.1759126095	 0.110298
H	-1.2935625014	-2.2184588276	 1.2009291185	 0.113572
H	 0.1743216765	-2.301057593	 2.1981412055	 0.131672
H	-0.9026522832	-4.4130382159	 0.0150684895	 0.074532
59.0355	81.0536	140.5889	160.8423	252.8268	270.0746	348.5599	363.7007	379.2092	530.7997	571.2641	613.8115	705.4815	820.5616	894.8847	913.1573	939.8038	978.3913	1043.3394	1063.194	1097.0265	1119.2283	1130.2094	1155.5179	1234.1327	1246.1078	1260.7491	1315.9383	1347.1527	1363.8336	1408.2369	1420.8276	1431.3845	1474.4316	1476.5772	1486.516	1510.4788	1757.3367	1832.5764	2839.2283	3001.0723	3011.1602	3048.8725	3062.325	3082.1565	3102.7163	3106.2635	3168.8698
CC1=NCC(CO1)C=O	CC1=NC[C@@H](CO1)C=O	
InChI=1S/C6H9NO2/c1-5-7-2-6(3-8)4-9-5/h3,6H,2,4H2,1H3	InChI=1S/C6H9NO2/c1-5-7-2-6(3-8)4-9-5/h3,6H,2,4H2,1H3/t6-/m1/s1
