25
gdb 115591	2.73628	0.96878	0.88987	1.352	88.93	-0.2609	0.0739	0.3349	1492.6815	0.227544	-389.486195	-389.475432	-389.474488	-389.521727	40.303	
C	-0.1058770445	 1.6187054308	 0.0950658767	-0.380197
C	 0.0494982834	 0.1013720415	-0.0600022978	-0.201461
C	 0.7238937333	-0.5453940018	 1.1449540285	 0.00886
C	-0.0296864211	-0.6046490997	 2.5032252728	-0.239559
C	 0.5721730203	-2.0134902556	 2.7427883423	-0.247572
C	 0.9199464596	-2.1032313176	 1.2235423271	 0.323746
C	-0.1174151276	-2.913306284	 0.4420289331	-0.448628
C	 2.3302967669	-2.5741254833	 0.8963388439	-0.13617
O	 2.4485059177	-3.9457203019	 1.253340985	-0.4265
H	 0.8683707232	 2.1069988181	 0.2106691176	 0.111532
H	-0.5986813033	 2.0602525577	-0.7767948472	 0.10957
H	-0.7055301839	 1.8673908063	 0.9773044343	 0.118678
H	-0.9378283646	-0.3492029127	-0.2183123803	 0.094547
H	 0.6318469882	-0.1135149435	-0.9662537972	 0.090812
H	 1.7001632354	-0.0655249636	 1.2994898368	 0.057703
H	 0.1938689832	 0.1715635117	 3.2390499763	 0.092043
H	-1.1152672474	-0.6375546268	 2.3629035273	 0.096478
H	 1.4711235286	-1.9813822624	 3.3651413855	 0.094731
H	-0.0923345939	-2.7847818177	 3.1395422985	 0.095399
H	-1.1392932254	-2.6271930726	 0.7095305674	 0.106926
H	-0.003628416	-2.7754716916	-0.6393059133	 0.105326
H	 0.0064454052	-3.9770921098	 0.6601911999	 0.132247
H	 2.530923828	-2.4253111744	-0.1788604683	 0.07897
H	 3.0569846193	-1.9616981098	 1.4544012647	 0.076069
H	 3.3369240955	-4.2396881075	 1.0334083664	 0.28645
77.9991	94.4351	114.3083	171.3942	197.3364	232.1572	244.7899	268.1609	294.7251	316.3346	358.5212	368.4132	449.6744	533.4927	634.7567	732.7514	765.4737	809.2336	889.0397	912.0011	939.7784	946.8894	955.8754	974.9404	997.6703	1019.6785	1063.6419	1077.0906	1122.3821	1150.3611	1175.4155	1200.5432	1220.3177	1223.5422	1256.5255	1258.5395	1272.9182	1293.3878	1303.0914	1336.6611	1344.2505	1395.378	1407.6282	1412.0895	1455.9142	1480.6682	1484.2591	1493.3362	1498.7975	1500.2815	1504.8777	1509.642	1519.5971	2948.2026	2981.3326	3004.9674	3013.905	3029.484	3032.9681	3046.4774	3053.1796	3055.6112	3094.4569	3095.2979	3096.8218	3101.4769	3111.4407	3120.3233	3833.1594
CCC1CCC1(C)CO	CC[C@H]1CC[C@]1(C)CO	
InChI=1S/C8H16O/c1-3-7-4-5-8(7,2)6-9/h7,9H,3-6H2,1-2H3	InChI=1S/C8H16O/c1-3-7-4-5-8(7,2)6-9/h7,9H,3-6H2,1-2H3/t7-,8+/m0/s1
