19
gdb 73034	2.88883	1.19423	1.02922	2.1637	75.79	-0.2272	0.0715	0.2986	1228.8477	0.158507	-422.953635	-422.945206	-422.944262	-422.987025	32.366	
O	 0.0103722689	 1.4433752954	 0.13896853	-0.45053
C	 0.0145219457	 0.0657303737	 0.0531469205	 0.284875
C	-0.8870688738	-0.7402095563	-0.8807896148	-0.151323
O	-1.0884024944	-1.7502650133	 0.1475034996	-0.28483
C	-0.3461985414	-0.96882354	 1.0908544302	 0.014548
C	 1.0927037627	-0.8251013098	 0.6515127546	-0.128056
C	 1.8467358493	-1.8939768263	-0.0722708495	 0.010939
C	 3.2095569911	-1.6153945575	-0.661306577	-0.272949
C	 3.0783015434	-2.5055138041	 0.5496803952	-0.272249
H	 0.7892380759	 1.7787975495	-0.3181135586	 0.290161
H	-1.8266087244	-0.2207517911	-1.0992807905	 0.116089
H	-0.4584118787	-1.1544144653	-1.8005305685	 0.103502
H	-0.7111476059	-0.9161219416	 2.1098476246	 0.109912
H	 1.6717093553	-0.2625011951	 1.3841275504	 0.089607
H	 1.2108484224	-2.5768456431	-0.625463451	 0.101945
H	 3.4643062868	-2.0692693562	-1.6129305719	 0.111348
H	 3.6339535794	-0.62683845	-0.5161199705	 0.103232
H	 3.410921365	-2.112255856	 1.5050373919	 0.109699
H	 3.2401099328	-3.5709495828	 0.4298882153	 0.11408
57.6698	128.2438	163.3268	249.6796	283.7581	304.2703	363.3081	382.7578	489.409	569.605	641.843	764.6592	776.8465	834.9003	845.3715	891.9587	912.9543	936.3561	951.4252	983.4411	996.9394	1021.0429	1057.6244	1062.5793	1075.8277	1086.6932	1142.8756	1149.0037	1174.4755	1199.888	1220.6848	1232.5361	1252.3836	1279.6804	1311.3181	1329.8557	1407.6725	1470.2511	1489.5695	1508.2435	1515.3299	3027.8017	3082.7953	3117.5077	3125.5587	3131.567	3168.2714	3185.7614	3203.7394	3220.2632	3796.8855
OC12COC1C2C1CC1	O[C@]12CO[C@H]1[C@H]2C1CC1	
InChI=1S/C7H10O2/c8-7-3-9-6(7)5(7)4-1-2-4/h4-6,8H,1-3H2	InChI=1S/C7H10O2/c8-7-3-9-6(7)5(7)4-1-2-4/h4-6,8H,1-3H2/t5-,6+,7+/m1/s1
