17
gdb 55253	3.38637	1.14653	0.90215	6.6255	70.69	-0.2373	0.0116	0.2489	1247.6914	0.13779	-455.213032	-455.204687	-455.203742	-455.246626	31.156	
O	 0.1281843862	 0.1717104117	 0.7840942257	-0.371283
C	 0.0089230108	 1.4207510125	 0.3074359527	 0.420954
O	 0.9463604162	 2.1610161742	 0.171808328	-0.345021
C	-1.432632788	 1.8168314771	-0.0273534611	-0.110124
C	-1.5795886745	 2.5442893879	-1.3903820889	-0.222376
C	-2.9143983013	 1.9904932806	-1.9248621798	-0.319056
C	-3.0740666796	 0.7299700815	-1.0943134531	 0.391969
N	-4.0461864328	-0.1777310471	-1.3887920188	-0.563154
H	-4.3899818013	-0.2222650072	-2.3332436075	 0.261683
H	-4.0191771195	-1.0524335792	-0.8878001151	 0.264041
N	-2.294389245	 0.6312380883	-0.0795715795	-0.319983
H	-1.7599816857	 2.4692008863	 0.7960519392	 0.111941
H	-1.571264849	 3.6299218748	-1.290696709	 0.120266
H	-0.7502243057	 2.271222655	-2.0475869337	 0.127693
H	-3.7573966645	 2.6644810231	-1.729296349	 0.132976
H	-2.9116912328	 1.7852969679	-3.0004235456	 0.115746
H	-0.7692200735	-0.2164876774	 0.7331751255	 0.30373
60.8752	86.6789	153.2317	211.1463	341.0918	363.495	402.7652	474.1042	479.1019	544.9694	582.7037	660.2905	696.0051	746.9251	772.7188	830.3337	875.752	902.6329	975.619	1005.3674	1037.88	1075.6079	1156.1879	1159.8699	1223.7748	1238.4964	1284.3797	1287.5053	1296.6272	1339.7105	1418.2589	1429.1476	1475.1511	1503.0757	1630.6162	1721.0751	1867.2616	2994.1459	3038.0108	3073.508	3084.9933	3133.3429	3543.8166	3592.2979	3712.4218
[O-]C(=O)C1CCC(=[NH2+])N1	OC(=O)[C@H]1CC[C](N)[N]1	
InChI=1S/C5H8N2O2/c6-4-2-1-3(7-4)5(8)9/h3H,1-2H2,(H2,6,7)(H,8,9)	InChI=1S/C5H8N2O2/c6-4-2-1-3(7-4)5(8)9/h3H,1-2H2,(H2,6,7)(H,8,9)/t3-/m1/s1
