13
gdb 126085	4.58534	1.38924	1.13001	5.2375	60.37	-0.2601	-0.0361	0.224	1005.9345	0.089191	-489.818826	-489.811976	-489.811032	-489.850599	25.632	
C	-0.4074728279	 1.5145499533	-0.0003134413	-0.39728
C	 0.1464217459	 0.1157097757	 0.0110078806	 0.191651
O	 1.0074954425	-0.1023310192	-1.1522193572	-0.2684
C	 2.1654973175	-0.5509100927	-0.6423103344	 0.393215
N	 3.3024582171	-0.9644874182	-1.0849104921	-0.224471
O	 4.0065637985	-1.2368364895	 0.1056946101	-0.182824
N	 3.243316669	-0.9690795576	 1.2603526985	-0.224475
C	 2.1300673825	-0.5536616569	 0.7626296417	 0.393206
O	 0.9477943607	-0.1069817857	 1.2152835582	-0.268381
H	 0.4070790664	 2.2423225474	 0.0233832246	 0.151073
H	-1.0006064732	 1.6654400747	-0.9055357653	 0.152001
H	-1.0484916375	 1.6611255118	 0.8723843571	 0.15195
H	-0.6291768213	-0.6570332432	-0.0100212606	 0.132735
54.4144	226.9509	255.8372	340.8353	361.9238	464.6303	530.6446	546.071	672.1298	737.0821	757.9502	762.8117	812.0224	835.2814	859.1347	891.1061	1059.1118	1066.6984	1106.3914	1152.4226	1231.2465	1374.2573	1384.6208	1419.2897	1481.3554	1481.4731	1504.0747	1666.0574	1704.6352	3058.0029	3064.1813	3142.0126	3145.5993
CC1OC2=NON=C2O1	C[C@H]1Oc2nonc2O1	
InChI=1S/C4H4N2O3/c1-2-7-3-4(8-2)6-9-5-3/h2H,1H3	InChI=1S/C4H4N2O3/c1-2-7-3-4(8-2)6-9-5-3/h2H,1H3
