17
gdb 33950	3.21217	1.42092	1.25116	4.3568	76.53	-0.2563	0.0304	0.2867	1032.7208	0.138765	-380.857735	-380.850647	-380.849703	-380.889107	28.522	
N	 0.0932463003	-1.1566554408	 0.0090592805	-0.351649
C	 0.0670225366	 0.0006132491	 0.0281588657	 0.189639
C	 0.025750587	 1.4308064366	 0.0648078282	 0.218841
C	 0.305333499	 2.238835281	-1.1962100255	-0.317113
C	 1.2952882376	 2.2875305244	-0.0726199936	-0.087572
C	 1.2347343066	 3.4057595209	 0.9731192893	-0.238056
C	-0.1163730693	 3.2760390387	 1.6695513583	-0.028178
N	-1.2811946171	 3.4553332693	 0.7788127174	-0.337959
C	-0.8383335142	 2.0946172831	 1.129792639	-0.124903
H	 0.5874111713	 1.6750745841	-2.0778806772	 0.131197
H	-0.3494763181	 3.0852751283	-1.3595479556	 0.155209
H	 2.2467525794	 1.7921439005	-0.2282292876	 0.112511
H	 2.0329269458	 3.2585486559	 1.7080145663	 0.114491
H	 1.3721619704	 4.3971950128	 0.5295629307	 0.121924
H	-0.2062774894	 3.5784846819	 2.7080625975	 0.097307
H	-2.1031868844	 3.7005109227	 1.3245535921	 0.23871
H	-1.4739576216	 1.4607655814	 1.7365294744	 0.105603
134.342	155.1922	270.2776	317.9476	404.8536	470.0336	504.7676	544.7672	600.9933	690.3234	715.5409	799.4067	826.44	852.7661	879.391	891.4481	912.671	948.3618	973.5578	1038.6094	1052.6226	1085.4432	1096.4765	1106.7077	1140.244	1169.9233	1212.0934	1230.1813	1245.566	1271.9448	1327.9531	1344.483	1402.712	1420.8044	1470.2306	1481.8803	2346.4678	3049.664	3090.3356	3148.4544	3161.0979	3180.1652	3188.9044	3247.3432	3507.4599
N#CC12CC1CC1NC21	N#C[C@]12C[C@H]1C[C@H]1N[C@@H]21	
InChI=1S/C7H8N2/c8-3-7-2-4(7)1-5-6(7)9-5/h4-6,9H,1-2H2	InChI=1S/C7H8N2/c8-3-7-2-4(7)1-5-6(7)9-5/h4-6,9H,1-2H2/t4-,5-,6-,7-/m1/s1
