15
gdb 45506	4.05358	1.36151	1.12332	4.7204	68.	-0.2585	-0.0193	0.2392	1039.3234	0.114258	-457.804274	-457.797454	-457.79651	-457.835834	26.064	
O	 0.0240748287	 0.2567050543	 0.6854312478	-0.320635
C	-0.04571396	 1.3264927959	 0.161599406	 0.434249
C	-1.3350237899	 2.0948600647	-0.2298779394	-0.47029
C	-0.7615891514	 3.4508333985	-0.427671191	 0.225498
C	-0.8908572905	 4.6679043959	 0.0846963318	-0.222249
C	 0.4328700089	 5.382260134	-0.0118169097	-0.113829
O	 1.3533657614	 4.4026462672	-0.5261727082	-0.261543
C	 0.653739915	 3.2620156135	-0.8896822846	 0.192222
O	 1.0582191958	 2.0518268894	-0.1893374009	-0.240142
H	-1.7327614596	 1.6407220361	-1.146266422	 0.14974
H	-2.0882134963	 2.0016019585	 0.5523640254	 0.152755
H	-1.7448300684	 5.0786305569	 0.6074737379	 0.122242
H	 0.4291243536	 6.252064005	-0.6831055518	 0.123929
H	 0.7749391337	 5.7240225707	 0.9741393314	 0.130592
H	 0.8140976689	 3.0523329595	-1.9560252128	 0.097462
97.4439	148.5043	247.8043	343.3571	368.4552	510.4614	567.3932	619.0292	665.3272	737.3554	792.4889	822.9692	833.1527	922.4257	929.9998	972.3197	982.2964	999.5601	1038.4558	1106.2478	1120.7932	1167.5869	1191.3758	1202.2908	1249.9961	1290.2011	1346.1919	1383.6459	1410.2453	1459.5074	1514.6506	1752.7969	1893.9583	3008.8721	3014.7461	3039.0065	3040.1133	3138.6845	3223.6763
O=C1CC2=CCOC2O1	O=C1C[C]2[CH]CO[C@H]2O1	
InChI=1S/C6H6O3/c7-5-3-4-1-2-8-6(4)9-5/h1,6H,2-3H2	InChI=1S/C6H6O3/c7-5-3-4-1-2-8-6(4)9-5/h1,6H,2-3H2/t6-/m0/s1
