18
gdb 84246	2.46554	2.00852	1.36627	3.7804	76.62	-0.2151	-0.0527	0.1623	977.5242	0.145082	-401.818225	-401.810199	-401.809254	-401.850197	31.783	
C	-0.0836593556	 1.5122553584	-0.0752379509	-0.377421
C	-0.0001380466	-0.0080218567	-0.020938839	-0.010874
N	 0.9121506622	-0.4360602386	-1.1546559561	-0.238097
C	 1.6195175005	-1.3074846555	-0.5728998328	 0.25906
O	 2.944341755	-1.046909486	-0.1826761389	-0.267404
C	 2.283136782	-1.04425715	 1.1604985941	 0.025296
C	 1.1937900263	-1.9405496593	 0.7868253213	-0.248098
C	 0.7116741111	-0.6003367552	 1.2378012767	 0.271706
C	 0.1582240008	-0.3474631726	 2.6180258947	-0.497563
H	 0.9168445253	 1.9513528484	-0.0381340143	 0.131812
H	-0.5640225256	 1.8334228035	-1.0024779828	 0.131213
H	-0.671154656	 1.8894531368	 0.7693941693	 0.109576
H	-1.013970945	-0.435892179	-0.0829004916	 0.081276
H	 2.9633739334	-1.0081277611	 2.0032656931	 0.127297
H	 0.9341432964	-2.959747376	 1.0417361906	 0.114709
H	 0.7018295933	-0.9121363186	 3.3819240365	 0.123483
H	 0.2146677482	 0.7133781065	 2.8819846216	 0.135073
H	-0.8946668859	-0.649327395	 2.6726578484	 0.128956
123.4087	197.1268	220.7391	247.4806	261.0517	334.686	395.8377	477.9749	532.057	565.9778	592.5177	637.7506	719.5183	767.3412	797.9536	836.4837	849.9253	902.1379	922.5845	1011.977	1029.9429	1045.2614	1054.1911	1072.6754	1121.0561	1126.0165	1160.1378	1217.8914	1225.6339	1283.0023	1345.6103	1354.8776	1402.0781	1414.7585	1478.0044	1488.8515	1492.3832	1497.275	1625.7693	2966.3936	3026.8744	3038.0748	3088.8511	3102.9679	3111.8861	3130.3985	3187.8825	3200.1921
CC1N=C2OC3C2C13C	C[C@H]1[N][C]2O[C@@H]3[C@H]2[C@]13C	
InChI=1S/C7H9NO/c1-3-7(2)4-5(7)9-6(4)8-3/h3-5H,1-2H3	InChI=1S/C7H9NO/c1-3-7(2)4-5(7)9-6(4)8-3/h3-5H,1-2H3/t3-,4-,5-,7+/m1/s1
