21
gdb 73628	2.16696	1.91946	1.44497	1.6369	81.73	-0.2412	0.0195	0.2607	1025.9054	0.184848	-387.115377	-387.107541	-387.106597	-387.147567	31.615	
C	-0.0751172128	 1.5888667718	-0.0564889903	-0.469069
C	 0.0029609512	 0.0606226722	-0.0072918048	 0.308832
C	-1.3896612508	-0.6015556835	 0.1363686091	-0.265458
C	-1.1088809701	-1.8008390061	 1.0452325838	-0.092795
O	-0.1606877226	-1.3171285682	 1.9864790427	-0.26385
C	 0.7461233979	-0.4629530628	 1.2762668988	 0.045504
C	 1.9500836677	-1.2010822475	 0.7508253954	-0.087678
C	 1.9846915521	-1.2312618686	-0.5791962698	-0.066198
C	 0.8273813807	-0.5014659244	-1.2094524241	-0.316652
H	 0.9258307326	 2.0325695569	-0.1022467221	 0.1163
H	-0.6286719319	 1.928997738	-0.9389392863	 0.113571
H	-0.5797343506	 1.9869375488	 0.830478689	 0.116289
H	-2.0794434831	 0.0833024787	 0.6408619776	 0.099816
H	-1.832207844	-0.8787259379	-0.8242921	 0.095729
H	-1.9814596488	-2.1544176285	 1.6010875896	 0.105361
H	-0.7006733344	-2.6467682785	 0.468878602	 0.08966
H	 1.0155867317	 0.3365948842	 1.976100976	 0.073262
H	 2.6691667385	-1.6653740811	 1.4162794144	 0.096572
H	 2.7502195089	-1.7199590816	-1.1739612294	 0.094648
H	 0.234513344	-1.1707661431	-1.8465006283	 0.102598
H	 1.170682854	 0.3079925513	-1.8667697634	 0.103557
69.5872	186.2714	262.6682	275.8567	306.9316	351.9885	415.1768	483.4761	572.913	592.113	637.7412	731.0487	768.6355	833.7671	877.8189	924.3831	932.1075	948.8262	955.9306	982.3811	986.5673	994.2007	1025.053	1040.5469	1077.8765	1123.3558	1135.5935	1159.2698	1186.3423	1243.7198	1248.3107	1256.6541	1290.5628	1313.3539	1346.7318	1357.194	1372.4535	1387.8484	1413.1274	1482.9227	1491.4907	1496.98	1502.519	1517.9806	1691.9578	2974.9751	3014.7769	3022.1928	3035.6118	3039.7109	3046.5335	3089.4386	3089.6875	3094.0745	3100.2105	3174.3981	3205.0787
CC12CCOC1C=CC2	C[C@]12CCO[C@H]1C=CC2	
InChI=1S/C8H12O/c1-8-4-2-3-7(8)9-6-5-8/h2-3,7H,4-6H2,1H3	InChI=1S/C8H12O/c1-8-4-2-3-7(8)9-6-5-8/h2-3,7H,4-6H2,1H3/t7-,8-/m0/s1
