19
gdb 38907	3.55606	1.53127	1.21852	1.308	81.29	-0.2309	0.0147	0.2457	1048.136	0.161909	-385.882293	-385.875367	-385.874423	-385.913479	28.604	
C	 0.0828006769	 1.5587730578	 0.1970933176	-0.299866
C	 1.2954882058	 0.7183185934	-0.0694481224	 0.101248
O	 2.103414033	 0.3943455041	 1.0446940059	-0.285879
C	 1.5419176492	-0.778959266	 1.653347329	 0.087259
C	 1.552196031	-0.8653644006	 3.1810904632	-0.247932
C	 0.2064131996	-1.5947849166	 3.4868451755	-0.249458
C	-0.6765472027	-1.1817934588	 2.3184802562	-0.242234
C	 0.0704204424	-0.7194386094	 1.3190165834	 0.342761
C	-0.0580552649	 0.0421583238	 0.0522692291	-0.225401
H	-0.0250075482	 1.9870537873	 1.1869756307	 0.122368
H	-0.3042049523	 2.1650401957	-0.6161083617	 0.112177
H	 1.8363748183	 0.7983980251	-1.0071009799	 0.09573
H	 2.0215929504	-1.666317264	 1.2043635924	 0.072411
H	 2.4252742678	-1.3745115701	 3.5963611654	 0.096262
H	 1.5203560796	 0.1521627157	 3.5838337804	 0.112825
H	 0.3478237479	-2.6843738927	 3.5283141305	 0.10763
H	-0.2173994883	-1.3045392987	 4.4543095148	 0.105244
H	-1.7588398558	-1.2348054659	 2.3479758715	 0.093985
H	-0.5892771798	-0.35520516	-0.8044833715	 0.10087
137.2428	151.1142	286.6405	370.5487	409.2909	453.0796	578.155	596.4546	693.3293	723.8695	784.6055	814.0335	832.357	844.3745	878.4194	912.2706	948.1079	963.5503	972.2045	986.4729	1046.6055	1054.3041	1062.3391	1089.756	1095.2297	1129.314	1154.1048	1176.8808	1188.3543	1220.8545	1264.7608	1285.8756	1301.6802	1328.657	1347.7037	1353.455	1384.9584	1466.7586	1484.1872	1498.1726	1738.9987	2941.7777	3005.9168	3054.1024	3065.7361	3110.986	3128.1688	3156.7834	3176.8064	3195.7857	3224.9146
C1C2OC3CCC=C3C12	C1[C@H]2O[C@H]3CCC=C3[C@@H]12	
InChI=1S/C8H10O/c1-2-5-6-4-8(6)9-7(5)3-1/h2,6-8H,1,3-4H2	InChI=1S/C8H10O/c1-2-5-6-4-8(6)9-7(5)3-1/h2,6-8H,1,3-4H2/t6-,7+,8-/m1/s1
