18
gdb 6086	4.07988	0.86774	0.76201	1.2745	73.5	-0.2569	0.0303	0.2872	1507.4907	0.15057	-384.907963	-384.897847	-384.896903	-384.943899	35.341	
C	-0.4053596404	 1.5336970441	-0.2616607955	-0.383906
C	 0.1293474747	 0.1244638795	 0.0321657295	-0.020893
O	-0.9019857247	-0.7404763138	 0.5040513835	-0.412504
C	 0.8271823779	-0.4380274582	-1.1292817973	 0.047388
C	 1.379790658	-0.8969205717	-2.0978040296	 0.047407
C	 2.0245802768	-1.4598482243	-3.289308973	-0.020895
C	 1.5155476247	-2.8777760863	-3.5868838323	-0.383905
O	 1.8884704241	-0.6046341798	-4.4226776084	-0.412504
H	 0.4096811985	 2.2126416504	-0.5281128651	 0.128725
H	-1.1131872413	 1.5082019651	-1.0967009399	 0.113577
H	-0.9191993213	 1.9183144331	 0.6230691993	 0.126495
H	 0.8347463266	 0.1854443907	 0.8698801583	 0.120669
H	-1.4768467864	-0.9367645994	-0.244028609	 0.28044
H	 3.1064034299	-1.5059401867	-3.1143574577	 0.120669
H	 1.7143825567	-3.5482636106	-2.7459537827	 0.128724
H	 0.4352178561	-2.8671895095	-3.7650364881	 0.113577
H	 2.0152599838	-3.2625152406	-4.4796171184	 0.126494
H	 0.9489047763	-0.4209709921	-4.5326924037	 0.28044
26.4393	80.3724	98.6361	188.1909	222.9872	253.0482	262.8193	277.7721	311.9559	331.136	400.2889	492.6409	507.5094	587.2029	604.9045	708.7095	859.6695	907.5392	982.1278	1030.9153	1050.115	1083.5506	1096.772	1118.7388	1174.9053	1279.5513	1284.3401	1337.3224	1337.3495	1399.2938	1399.3502	1413.7591	1419.7239	1487.9127	1488.3485	1491.466	1491.5319	2350.3808	3037.0456	3037.1801	3041.1178	3041.3202	3114.2213	3114.3701	3128.5804	3128.6259	3805.0942	3805.5874
CC(O)C#CC(C)O	C[C@@H](O)C#C[C@@H](C)O	
InChI=1S/C6H10O2/c1-5(7)3-4-6(2)8/h5-8H,1-2H3	InChI=1S/C6H10O2/c1-5(7)3-4-6(2)8/h5-8H,1-2H3/t5-,6-/m1/s1
