21
gdb 78431	3.19859	1.33554	1.30338	0.1583	86.51	-0.2343	0.0281	0.2624	1114.1264	0.184712	-349.938321	-349.93073	-349.929786	-349.969994	31.17	
C	-0.0458893211	 1.4605573538	 0.0256652991	-0.420551
C	 0.0704027107	-0.0493726198	-0.0020968629	-0.002443
C	 0.7506008984	-0.6626281569	-1.1968272989	-0.071886
C	 1.4417791304	-0.6387067061	 0.1737851868	-0.072429
C	 1.4006554033	-2.1898539166	 0.2230058506	-0.07075
C	 0.4167331097	-2.8799351763	 1.1245774885	-0.078434
C	-0.6717034941	-3.2792182014	 0.4613578464	-0.062028
C	-0.6369883805	-2.9468586309	-1.0183828582	-0.28402
C	 0.7100192891	-2.2031235234	-1.1838481872	-0.031891
H	 0.8290286327	 1.9341695165	-0.4331461191	 0.112756
H	-0.9317965767	 1.8003678157	-0.5220619908	 0.115
H	-0.1242772981	 1.8331834607	 1.0528721817	 0.115592
H	-0.7737085957	-0.5695460843	 0.4454830403	 0.082011
H	 0.9735133522	-0.0627179631	-2.0726517276	 0.07522
H	 2.2791875411	-0.0322378781	 0.5003610745	 0.075518
H	 2.4042957164	-2.6240625725	 0.2532602601	 0.069964
H	 0.5762237189	-3.0163314391	 2.1892168174	 0.087094
H	-1.5160474677	-3.7914675994	 0.9129554346	 0.087914
H	-0.6913411518	-3.855006729	-1.6324850858	 0.099448
H	-1.4926873755	-2.3254122275	-1.3145238893	 0.104477
H	 1.3327471486	-2.6297243023	-1.9717807303	 0.069439
160.9156	163.0468	214.1149	257.2861	291.1566	382.4475	460.8109	542.7025	653.2478	719.5227	739.561	766.5878	789.8423	847.8096	865.9218	871.6801	905.8729	949.4274	969.1896	977.1776	1010.4106	1013.8815	1035.8145	1050.9376	1069.8944	1072.2346	1096.583	1128.9528	1154.5988	1171.534	1182.9054	1202.897	1248.5213	1261.962	1287.8045	1299.8137	1320.9105	1338.6226	1376.2078	1415.2568	1430.2511	1483.9393	1494.4894	1502.6547	1669.6728	3013.7984	3025.1751	3038.6815	3058.379	3088.9266	3090.3381	3092.5376	3126.8583	3160.2009	3167.5617	3172.9986	3194.5153
CC1C2C1C1C=CCC21	C[C@H]1[C@H]2[C@@H]1[C@H]1C=CC[C@@H]21	
InChI=1S/C9H12/c1-5-8-6-3-2-4-7(6)9(5)8/h2-3,5-9H,4H2,1H3	InChI=1S/C9H12/c1-5-8-6-3-2-4-7(6)9(5)8/h2-3,5-9H,4H2,1H3/t5-,6+,7-,8+,9-/m1/s1
