18
gdb 22310	3.30694	1.09028	0.84841	2.0024	80.54	-0.2254	-0.0318	0.1936	1318.543	0.148036	-439.063776	-439.055281	-439.054336	-439.096726	32.765	
O	-0.0644261302	 1.3470601322	 0.0664775806	-0.394588
N	 0.0393323247	-0.0499761145	-0.0035496422	-0.211269
C	-1.1085393071	-0.6271102084	-0.0342450634	 0.336934
C	-1.1063509026	-2.1362790393	-0.083481432	-0.28124
C	-2.2410707745	-2.6480246338	-0.9701003628	 0.110349
O	-2.1821116022	-4.0658214194	-0.9490576241	-0.435563
C	-3.5906964241	-2.1177915703	-0.4630763797	-0.28611
C	-3.5470770703	-0.6393843296	-0.185331554	-0.083935
C	-2.4068326129	 0.0420747074	-0.005739202	-0.103432
H	 0.8598766853	 1.6137314352	 0.096881198	 0.307233
H	-0.1409893043	-2.5012227061	-0.4392059121	 0.124858
H	-1.259398958	-2.5404493905	 0.9266941883	 0.118733
H	-2.0804769433	-2.2712342421	-1.9934084799	 0.076626
H	-2.8577134218	-4.4033012763	-1.5458348593	 0.281255
H	-4.3848890274	-2.3389805543	-1.1888456785	 0.098023
H	-3.8561382075	-2.6683700583	 0.4514034694	 0.124689
H	-4.4973758097	-0.1135250383	-0.1392403151	 0.100739
H	-2.4145872442	 1.1103844762	 0.1679331088	 0.116698
90.4594	149.3606	226.8811	271.7232	307.8354	313.1654	347.6338	406.6273	420.0986	436.1801	475.4208	599.659	626.3777	734.8517	781.6221	842.0663	893.0858	928.0683	966.3771	989.8269	1014.5212	1058.9697	1078.3818	1098.1707	1149.5839	1186.2316	1226.1556	1272.4831	1284.7687	1323.5058	1329.6911	1381.631	1403.2854	1421.2189	1438.5889	1469.5063	1486.5253	1675.9382	1701.608	2967.1085	3003.9576	3022.543	3037.2061	3116.0734	3159.8271	3221.5451	3817.1308	3826.9551
ON=C1CC(O)CC=C1	ON=C1C[C@@H](O)CC=C1	
InChI=1S/C6H9NO2/c8-6-3-1-2-5(4-6)7-9/h1-2,6,8-9H,3-4H2	InChI=1S/C6H9NO2/c8-6-3-1-2-5(4-6)7-9/h1-2,6,8-9H,3-4H2/t6-/m0/s1
