20
gdb 86751	4.22247	0.96981	0.85896	2.101	81.64	-0.2348	0.008	0.2429	1373.3611	0.171553	-403.118371	-403.109855	-403.108911	-403.151994	32.617	
O	-0.5411591338	 1.4871300847	-0.554056187	-0.436558
C	-0.0151634868	 0.2836070587	 0.0112232151	 0.095365
C	-1.0789812592	-0.8139366126	 0.2691913628	-0.260659
C	-0.9183342478	-1.8541388718	-0.8656453894	 0.008284
C	 0.4518813237	-1.5317182892	-1.4227072858	-0.06617
C	 0.9516067795	-0.4008843702	-0.9286111922	-0.115204
N	-0.9863074606	-3.2239712128	-0.3530945763	-0.066726
C	-2.3185651516	-3.8176901416	-0.2822255541	-0.220192
C	-1.3465408048	-4.2576888243	-1.3195355011	-0.226492
H	-0.8135826358	 1.2836839758	-1.4558002404	 0.272894
H	 0.4560303232	 0.6152082333	 0.9418069304	 0.088993
H	-0.8688445935	-1.3226122393	 1.2143740921	 0.117734
H	-2.0787164261	-0.3778489063	 0.3308980146	 0.101266
H	-1.6835764224	-1.7086672151	-1.6544026377	 0.055124
H	 0.9348265581	-2.1732758786	-2.1521805124	 0.099954
H	 1.9016182571	 0.0460181065	-1.200367705	 0.099778
H	-2.5156543038	-4.4345543555	 0.5895169758	 0.117649
H	-3.1639180337	-3.2181724648	-0.6171554783	 0.109481
H	-1.5464746292	-3.9526594526	-2.3460312034	 0.107867
H	-0.8197510529	-5.2022914242	-1.2206478679	 0.117614
58.7736	94.5464	154.906	226.3263	299.6545	316.729	360.7059	427.2026	474.3627	513.6194	692.9418	752.0553	790.6177	810.1861	836.6134	869.2423	905.2451	915.74	952.9413	981.5071	1006.5219	1036.7105	1054.4385	1060.797	1089.9646	1111.133	1119.5898	1136.7289	1172.8248	1177.4736	1203.0365	1260.7807	1279.1452	1303.5339	1317.0108	1334.765	1352.178	1387.0127	1431.0687	1474.3574	1490.4053	1517.076	1683.8713	2884.6229	3056.8063	3068.8438	3091.7042	3096.1217	3116.5483	3176.7902	3181.4617	3190.8918	3207.1047	3797.631
OC1CC(C=C1)N1CC1	O[C@H]1C[C@@H](C=C1)N1CC1	
InChI=1S/C7H11NO/c9-7-2-1-6(5-7)8-3-4-8/h1-2,6-7,9H,3-5H2	InChI=1S/C7H11NO/c9-7-2-1-6(5-7)8-3-4-8/h1-2,6-7,9H,3-5H2/t6-,7-/m1/s1
