20
gdb 40648	3.22684	1.2371	1.21351	2.4651	79.82	-0.2245	0.0778	0.3024	1145.2933	0.172363	-403.096794	-403.088817	-403.087872	-403.129827	30.378	
C	 0.7113088049	 1.6988716642	 0.2083159782	-0.223255
C	 1.1926293659	 0.3941793028	-0.3246822947	-0.223251
N	-0.1791949686	 0.5442697414	 0.1496689249	-0.047664
C	-0.4945962989	-0.0830892504	 1.3999102187	 0.045711
C	-1.8792379228	 0.0303297689	 1.9869849155	-0.116118
C	-3.0132294894	 0.4523351709	 1.0695101744	-0.079048
O	-2.9832113067	-0.4061938541	-0.062306228	-0.247678
C	-2.2577376409	-1.5911513177	 0.2350739433	-0.079076
C	-1.3884789057	-1.2971353267	 1.4447487365	-0.116002
H	 1.0845960328	 2.0051600129	 1.1844933253	 0.108427
H	 0.4696192906	 2.5168916607	-0.4642581695	 0.118701
H	 1.3091161453	 0.2413124299	-1.3938012358	 0.11869
H	 1.8872607441	-0.1704161825	 0.2956614157	 0.108414
H	 0.3106788836	-0.088973429	 2.1426935311	 0.067352
H	-1.9857701793	 0.2156931207	 3.0497679743	 0.088348
H	-3.9696163292	 0.3639550629	 1.6104693415	 0.086401
H	-2.9226170251	 1.4803533907	 0.7011450635	 0.107656
H	-2.9383848307	-2.4254017405	 0.471526792	 0.086396
H	-1.6883721578	-1.8584445915	-0.6622134117	 0.107643
H	-1.1210230322	-2.1223126738	 2.0949606749	 0.08835
71.7529	133.2757	143.0969	158.2713	295.678	309.3411	493.2587	526.0194	699.2085	735.5076	774.4574	776.6848	823.99	877.1009	899.726	918.7676	933.4531	981.9225	1018.1581	1019.8067	1048.0473	1049.0196	1089.189	1100.1567	1116.639	1118.9436	1128.2697	1142.1565	1159.6882	1175.8793	1218.9885	1234.6994	1235.7131	1325.0825	1330.994	1362.8853	1363.1351	1387.5419	1455.6859	1492.5955	1509.3651	1518.5449	1522.1437	2965.0731	2972.1258	3029.3195	3054.2374	3057.7979	3092.5719	3096.8582	3169.9384	3176.0239	3179.4002	3190.3272
C1CN1C1C2COCC12	C1CN1[C@H]1[C@H]2COC[C@@H]12	
InChI=1S/C7H11NO/c1-2-8(1)7-5-3-9-4-6(5)7/h5-7H,1-4H2	InChI=1S/C7H11NO/c1-2-8(1)7-5-3-9-4-6(5)7/h5-7H,1-4H2/t5-,6+,7-
