20
gdb 114526	2.43469	1.51861	1.12201	0.5199	75.45	-0.2125	0.0527	0.2652	1153.0163	0.170234	-440.208518	-440.199512	-440.198568	-440.242769	33.21	
C	 0.0021334379	 1.5853932063	 0.2981312033	-0.237582
O	 0.4760381121	 0.3099967378	-0.0702214528	-0.226298
C	 0.8192386339	-0.4827873731	 1.0320676815	 0.123515
C	-0.3494086698	-1.1796189951	 1.7948774113	-0.210423
N	 0.1051810275	-2.5332711564	 1.3490647333	-0.132933
C	-0.4279102291	-2.8852400805	-0.0127147783	-0.22856
C	 0.9627430788	-2.6003805365	-0.6418888006	 0.13795
O	 1.0730406769	-1.859124625	-1.8262046806	-0.418805
C	 1.328046434	-1.9066111533	 0.6832260758	-0.058004
H	 0.756709857	 2.1473220538	 0.8714206912	 0.104075
H	-0.2189422135	 2.127043111	-0.6243009755	 0.130279
H	-0.9156659521	 1.5290343898	 0.9034948433	 0.104845
H	 1.5101202984	 0.0657445906	 1.6918423226	 0.064148
H	-0.300285581	-1.0827861494	 2.8842976307	 0.101635
H	-1.3555120817	-0.9087174202	 1.4580361876	 0.106133
H	-0.8122826296	-3.9075754419	-0.0792643373	 0.094806
H	-1.1868123753	-2.1849531041	-0.3797311724	 0.10891
H	 1.5444606277	-3.5309248831	-0.7053238534	 0.078171
H	 1.01020742	-2.4687482067	-2.5677949223	 0.284718
H	 2.3091719478	-2.1437050639	 1.1038333827	 0.073418
46.6085	115.2144	133.5121	195.9441	202.7714	258.61	347.5138	378.2502	401.763	446.0648	608.1571	625.6368	746.1408	782.1635	848.8866	869.6426	927.2912	965.3472	1000.5832	1015.5178	1032.661	1082.3634	1095.3275	1159.9821	1169.1167	1181.4361	1182.9285	1198.2928	1203.81	1217.1088	1251.017	1277.3185	1286.2174	1299.6472	1319.1008	1358.4203	1392.4777	1449.0184	1478.3035	1481.4952	1487.8245	1501.6441	1507.8904	2965.0425	2974.2854	2993.0552	3017.4708	3028.9246	3035.8046	3066.2395	3085.2693	3089.4771	3118.6879	3820.7094
COC1CN2CC(O)C12	CO[C@H]1CN2C[C@@H](O)[C@@H]12	
InChI=1S/C6H11NO2/c1-9-5-3-7-2-4(8)6(5)7/h4-6,8H,2-3H2,1H3	InChI=1S/C6H11NO2/c1-9-5-3-7-2-4(8)6(5)7/h4-6,8H,2-3H2,1H3/t4-,5+,6+/m1/s1
