21
gdb 120805	4.46829	0.61656	0.57962	1.8072	85.67	-0.256	0.0579	0.3139	1918.7503	0.180268	-387.036174	-387.025754	-387.02481	-387.072563	37.622	
O	 0.009863784	 1.412581439	 0.2939821912	-0.422496
C	-0.0173496268	-0.0036683852	 0.3858531189	-0.071746
C	-1.2977540775	-0.4901926005	-0.2858922755	-0.193802
C	-1.4217543266	-1.9990264487	-0.2520635207	-0.023011
C	-2.0220780749	-2.7118249908	 0.9409515645	-0.284556
C	-2.7382401053	-2.7305444926	-0.3849824635	-0.007306
C	-4.0640610246	-2.0028326612	-0.571911915	-0.380207
C	-5.2104106109	-2.8280527597	-0.200959782	 0.305085
C	-6.1420931923	-3.5248584063	 0.1008635755	-0.444579
H	 0.8103850364	 1.7271488874	 0.723605144	 0.28554
H	 0.8569464848	-0.4535883695	-0.113122449	 0.082734
H	-0.0015961852	-0.3399124076	 1.4347263516	 0.089607
H	-2.1441254221	-0.012449782	 0.21877942	 0.104521
H	-1.3036298749	-0.1256570293	-1.3207908455	 0.106253
H	-0.5831969413	-2.5097261796	-0.7215057284	 0.082487
H	-1.5619017104	-3.6242375472	 1.3034947982	 0.110983
H	-2.4495382374	-2.0910682397	 1.7234151239	 0.112451
H	-2.6942534637	-3.6676662153	-0.9324820705	 0.094114
H	-4.0788253465	-1.0816108849	 0.0215731379	 0.130318
H	-4.169972638	-1.6884116011	-1.6190259029	 0.13113
H	-6.9703049768	-4.1319999152	 0.3701503074	 0.192479
46.523	78.7491	89.9703	108.3047	156.9602	237.381	263.2823	297.5443	338.8387	366.7555	455.0167	471.1415	553.3306	614.4456	635.1524	780.4845	807.8021	837.9084	878.2621	902.5439	933.454	974.5411	1005.1966	1043.1283	1059.125	1077.3334	1091.6061	1142.5934	1149.5721	1185.1055	1235.1327	1240.0086	1252.3727	1254.1358	1314.3344	1319.5014	1330.6192	1400.6855	1433.5735	1460.7734	1467.4832	1488.7652	1499.2131	1527.988	2238.5201	2961.8732	2991.1046	3017.2821	3032.1023	3058.6117	3079.4319	3121.8888	3123.9719	3148.7341	3209.5045	3507.289	3831.3868
OCCC1CC1CC#C	OCC[C@H]1C[C@H]1CC#C	
InChI=1S/C8H12O/c1-2-3-7-6-8(7)4-5-9/h1,7-9H,3-6H2	InChI=1S/C8H12O/c1-2-3-7-6-8(7)4-5-9/h1,7-9H,3-6H2/t7-,8+/m1/s1
