21
gdb 32793	3.10693	1.01222	0.77565	1.373	88.34	-0.1639	0.0528	0.2168	1510.7299	0.18297	-383.305445	-383.295538	-383.294594	-383.340705	36.311	
C	 0.0582258989	 1.5345860088	 0.0960570452	-0.399277
C	 0.024869013	 0.0132242843	-0.0133595895	-0.099144
N	 0.7437034598	-0.4324093045	-1.1973765228	-0.406321
C	 0.8071111879	-1.8205752548	-1.4383517293	 0.235358
C	 1.4264264465	-2.4023128481	-2.5312901257	 0.21744
C	 2.1271458487	-1.7731467519	-3.6873600222	-0.516989
N	 1.2918959635	-3.7690643041	-2.3856748494	-0.290765
C	 0.6282730238	-4.0626130996	-1.2269147037	-0.09629
C	 0.3053152091	-2.8728424419	-0.6136087334	-0.229248
H	 1.0894882146	 1.8981415294	 0.1263651449	 0.1259
H	-0.4403604953	 2.0031093865	-0.7610437188	 0.109942
H	-0.4578978016	 1.8694699948	 1.0004968611	 0.115323
H	 0.5127395464	-0.4304757862	 0.8630401729	 0.109942
H	-1.0231591998	-0.3372825162	 0.0038311687	 0.083609
H	 0.4381554305	 0.0782824589	-2.0165810249	 0.219663
H	 2.4573442123	-0.7670660587	-3.4103536182	 0.13697
H	 3.0201475269	-2.3396081749	-3.9786148078	 0.117519
H	 1.4983443311	-1.6779832951	-4.5843089513	 0.118937
H	 1.6562599007	-4.4467027254	-3.0314551695	 0.252284
H	 0.4403291781	-5.0823801542	-0.9326325034	 0.109446
H	-0.2276928752	-2.7692870972	 0.3178663272	 0.085701
54.6179	86.7338	118.5061	136.2152	217.4963	253.0839	262.9555	299.2025	343.9118	416.6327	474.0793	602.2538	629.1119	644.3965	674.9438	708.4588	793.4756	794.2322	828.1941	915.642	935.5094	975.3889	1059.7473	1065.7782	1096.6047	1112.5772	1150.7924	1159.172	1208.6472	1274.9031	1290.2408	1334.8333	1375.9418	1406.5916	1413.319	1438.8673	1475.5437	1482.7101	1491.0329	1497.8135	1501.34	1503.2433	1524.9921	1529.6181	1639.1989	2933.0945	2996.6647	3030.2352	3042.4091	3049.4096	3097.7126	3098.4174	3118.829	3251.0812	3271.2818	3541.4068	3685.4052
CCNC1=C(C)NC=C1	CCNc1c(C)[nH]cc1	
InChI=1S/C7H12N2/c1-3-8-7-4-5-9-6(7)2/h4-5,8-9H,3H2,1-2H3	InChI=1S/C7H12N2/c1-3-8-7-4-5-9-6(7)2/h4-5,8-9H,3H2,1-2H3
