17
gdb 107378	4.15135	1.13777	1.01641	3.587	69.6	-0.228	0.0498	0.2778	1169.9841	0.136667	-455.136555	-455.128395	-455.127451	-455.169393	31.276	
O	 0.5607722983	 0.1278638039	 1.1246334196	-0.405889
C	 0.0368303136	 0.2621568259	-0.1845953613	-0.16506
C	-1.3541227121	-0.3270690165	-0.3144433983	 0.288122
C	-2.3520669899	-0.3744347413	 0.8394765539	-0.379564
C	-1.7713471944	-1.6426818959	 0.2596947646	 0.063608
O	-2.5313333972	-2.3270991222	-0.7169294355	-0.243743
C	-2.711590215	-1.4980192859	-1.7996136311	 0.442538
N	-3.4802911009	-1.7057524279	-2.7801532262	-0.583721
N	-1.9016694287	-0.3778840283	-1.6401615843	-0.391498
H	 0.1926287337	 0.830054757	 1.6689246887	 0.292228
H	 0.0303264102	 1.313946835	-0.5100537889	 0.095916
H	 0.7113128335	-0.2801291907	-0.8555278001	 0.129892
H	-1.9911492953	-0.1091967242	 1.8271787404	 0.115119
H	-3.3910239822	-0.1367276813	 0.6381578477	 0.12784
H	-1.1241203948	-2.2901440015	 0.835797454	 0.129863
H	-3.9694175242	-2.5901764416	-2.665849872	 0.226448
H	-2.2178345845	 0.4579512254	-2.1079697014	 0.257898
73.5568	124.6599	203.5768	236.9557	296.968	366.4452	402.3785	459.3135	489.4523	519.5893	651.7831	699.779	726.8324	790.7879	796.4352	834.6949	880.544	929.6133	961.5028	1020.1517	1022.9435	1041.8671	1070.7974	1086.9461	1098.7456	1146.4868	1219.6238	1251.4487	1257.8143	1347.8633	1376.496	1394.8452	1404.3788	1418.258	1471.018	1502.6631	1789.6681	2985.3247	3075.4909	3131.9469	3209.8953	3228.5166	3532.9353	3626.4457	3832.3097
OCC12CC1OC(=N)N2	OC[C@]12C[C@H]1O[C]([NH])N2	
InChI=1S/C5H8N2O2/c6-4-7-5(2-8)1-3(5)9-4/h3,8H,1-2H2,(H2,6,7)	InChI=1S/C5H8N2O2/c6-4-7-5(2-8)1-3(5)9-4/h3,8H,1-2H2,(H2,6,7)/t3-,5-/m1/s1
