18
gdb 33251	6.08638	0.65596	0.59871	1.0888	73.32	-0.239	0.0081	0.247	1773.1497	0.148041	-439.111324	-439.102384	-439.10144	-439.146528	31.432	
O	 0.2978103157	 1.0712600768	-0.8590919646	-0.422993
C	 0.0162596354	 0.069948513	 0.1062932461	-0.07718
C	-1.2760175063	-0.6226551776	-0.3050425219	-0.171455
C	-1.6853378456	-1.7315046813	 0.6677465947	-0.318005
C	-2.9515901994	-2.4314413997	 0.2910098179	 0.251958
C	-3.7835876988	-2.241254345	-0.7628627926	-0.102482
O	-4.8162925711	-3.137352084	-0.6664697073	-0.144622
C	-4.5446861802	-3.830056564	 0.4595891076	 0.070544
N	-3.4668028161	-3.469325019	 1.0716839458	-0.307939
H	 1.1128403838	 1.5137217691	-0.6053924056	 0.286311
H	 0.8320209388	-0.6694113157	 0.1649347371	 0.086735
H	-0.0994316249	 0.5058888305	 1.112333621	 0.086737
H	-2.0672969679	 0.133297511	-0.3728901191	 0.111399
H	-1.143006155	-1.0327899978	-1.3131558789	 0.111408
H	-0.8848916329	-2.4793254202	 0.7471214108	 0.120881
H	-1.8021330876	-1.3221598366	 1.6801934314	 0.120877
H	-3.8055594202	-1.5769502044	-1.608408184	 0.148711
H	-5.2437964579	-4.604866165	 0.7333241115	 0.149114
41.5191	80.334	99.3304	116.3654	264.7272	271.5582	276.0174	326.3327	497.0736	635.5412	673.8384	721.367	755.7173	771.4187	848.6605	878.45	936.936	993.384	1026.7163	1050.5672	1084.1804	1097.5123	1124.1272	1136.2518	1198.6672	1213.9249	1248.0968	1256.1651	1295.832	1314.4861	1316.9947	1342.6635	1400.2114	1465.2446	1479.8734	1502.1709	1528.6302	1560.6516	1629.7345	2958.4509	2983.9723	3015.9061	3035.2099	3039.2938	3080.0973	3273.7665	3301.7722	3832.6021
OCCCC1=COC=N1	OCCCc1cocn1	
InChI=1S/C6H9NO2/c8-3-1-2-6-4-9-5-7-6/h4-5,8H,1-3H2	InChI=1S/C6H9NO2/c8-3-1-2-6-4-9-5-7-6/h4-5,8H,1-3H2
