14
gdb 77149	2.84472	1.36184	1.02989	5.5943	58.46	-0.2606	-0.0153	0.2454	1099.379	0.099971	-510.998808	-510.99021	-510.989266	-511.03311	30.355	
N	-0.1103846247	 1.381047625	-0.0539043482	-0.526051
C	 0.0949646867	 0.0326598577	-0.1157925191	 0.376997
O	 1.1301812343	-0.4934448089	-0.4534044645	-0.336955
C	-1.1635963196	-0.8103797872	 0.138193695	-0.001643
O	-0.8195346752	-2.1095724188	 0.7200231171	-0.219946
C	-1.5429959919	-1.8646791914	 1.8550228557	 0.437618
O	-1.6340704279	-2.5250962648	 2.8377077125	-0.320212
C	-2.0980281082	-0.5240335176	 1.3366703502	-0.094415
O	-1.8055100922	 0.6325983177	 2.0778173749	-0.421584
H	 0.7160309725	 1.9488162467	-0.1736959661	 0.264022
H	-0.817609683	 1.7299552025	 0.576977513	 0.275796
H	-1.6819632291	-0.9551189428	-0.8136181996	 0.136261
H	-3.1624229625	-0.5907835535	 1.0765341505	 0.117773
H	-2.2577585692	 0.5763889452	 2.9268295086	 0.31234
41.1862	81.3918	132.523	205.2158	259.1205	274.4811	370.5287	455.1108	483.2858	531.1184	597.2299	605.5361	683.3246	717.4933	785.0475	843.0046	945.5269	962.4926	1023.0149	1124.2095	1133.3629	1173.623	1179.5456	1288.3854	1304.5613	1315.1152	1378.0585	1418.6181	1634.7491	1825.026	1944.2053	3025.3895	3084.2255	3557.82	3682.854	3815.7511
NC(=O)C1OC(=O)C1O	NC(=O)[C@H]1OC(=O)[C@H]1O	
InChI=1S/C4H5NO4/c5-3(7)2-1(6)4(8)9-2/h1-2,6H,(H2,5,7)	InChI=1S/C4H5NO4/c5-3(7)2-1(6)4(8)9-2/h1-2,6H,(H2,5,7)/t1-,2-/m0/s1
