15
gdb 28774	3.39667	1.70579	1.14364	2.2844	75.86	-0.188	-0.0143	0.1738	992.9326	0.116178	-416.858418	-416.851728	-416.850784	-416.889374	26.483	
O	 0.089097744	 1.3007862622	 0.2038935997	-0.426165
C	 0.0713084206	-0.0334767675	 0.0516668203	 0.43706
N	 0.0740208994	-0.6937205161	-1.0835674591	-0.384511
C	 0.0507185628	-2.0340738321	-0.7271776505	-0.224432
C	 0.0340071109	-2.1554941625	 0.6379165389	 0.323782
C	 0.0093421517	-3.0259075084	 1.7926928729	-0.215176
C	 0.0084810282	-2.2800790263	 2.9141429225	-0.110534
C	 0.0334150523	-0.7982427071	 2.5816304454	-0.237718
N	 0.0476881775	-0.8474785631	 1.12689006	-0.095332
H	 0.1040617993	 1.6708812823	-0.6880546838	 0.313886
H	 0.0475818642	-2.809538401	-1.4764811887	 0.111358
H	-0.0057893513	-4.1055156484	 1.7439881581	 0.117842
H	-0.007402246	-2.640878645	 3.93283484	 0.110809
H	-0.8478175153	-0.2620327523	 2.9564173206	 0.13956
H	 0.9219277018	-0.2876910846	 2.9746224738	 0.13957
156.7525	195.4638	281.0941	332.7392	423.1992	475.8473	554.1974	645.2904	657.7893	677.725	698.2537	750.9003	807.32	815.4546	869.9208	941.6687	943.1695	997.6391	1063.8621	1106.6563	1151.682	1185.9233	1210.13	1255.1159	1299.3012	1302.0263	1351.8363	1364.238	1489.381	1551.4933	1588.6291	1614.817	1628.4947	3020.8903	3048.377	3228.4816	3249.1818	3259.915	3801.2515
OC1=NC=C2C=CCN12	Oc1ncc2C=CCn12	
InChI=1S/C6H6N2O/c9-6-7-4-5-2-1-3-8(5)6/h1-2,4H,3H2,(H,7,9)	InChI=1S/C6H6N2O/c9-6-7-4-5-2-1-3-8(5)6/h1-2,4H,3H2,(H,7,9)
