23
gdb 114664	3.13325	1.174	1.0561	0.8829	86.1	-0.2434	0.0954	0.3388	1284.9772	0.207052	-388.274493	-388.265746	-388.264802	-388.307608	34.369	
C	 0.1815651575	 1.2216063956	 0.4923604937	-0.238005
O	-0.1745269606	-0.1064694677	 0.1929676755	-0.249933
C	 0.3379705778	-0.5673724354	-1.0409063446	 0.155719
C	 1.8670990168	-0.9365125774	-1.0152101147	-0.259607
C	 1.7511516981	-2.440022293	-1.3320534739	-0.024909
C	 0.7186351093	-2.4209457809	-2.4965352683	-0.244166
C	-0.242087789	-1.9503797477	-1.3673453185	-0.056674
C	 0.5725166451	-2.8677365209	-0.395832589	 0.062559
C	 0.2064144785	-4.3457283949	-0.3471345718	-0.437937
H	 1.2697169984	 1.3502581716	 0.5970000662	 0.104248
H	-0.1711715335	 1.9211889125	-0.2825793494	 0.101344
H	-0.2929590671	 1.4805673735	 1.442267353	 0.124162
H	 0.107031492	 0.1686485999	-1.8265052768	 0.056619
H	 2.4521992106	-0.3897443176	-1.7606501226	 0.090729
H	 2.2970772802	-0.7451711109	-0.0275015235	 0.101112
H	 2.6773446335	-3.0146635889	-1.3878935953	 0.053143
H	 0.9038443009	-1.7355671199	-3.3301663772	 0.085106
H	 0.4727744133	-3.4076845293	-2.8876235447	 0.100375
H	-1.3273936654	-2.01183439	-1.4546931989	 0.058236
H	 0.639324535	-2.4804615024	 0.6253668867	 0.07477
H	 0.1053241554	-4.8010106134	-1.3364432066	 0.113768
H	 0.9699139707	-4.9119812923	 0.1980876845	 0.112839
H	-0.7439689375	-4.4884967406	 0.1789441062	 0.116501
107.2666	131.2128	190.2632	202.7962	266.478	276.3134	300.5467	395.6043	453.4508	482.6163	541.3169	679.3911	777.3827	829.4222	838.6551	844.1044	878.3674	947.6383	958.5503	972.4363	996.302	1002.0173	1059.0664	1074.8877	1086.9725	1092.4697	1111.2429	1124.3569	1153.42	1184.7918	1192.0821	1224.9464	1230.3109	1237.1812	1256.2211	1272.1327	1284.7969	1312.9394	1323.9799	1394.0027	1401.5858	1415.5472	1481.9537	1485.2229	1489.9336	1497.4945	1499.1031	1510.5878	1518.7933	2968.5957	2978.392	3016.4908	3030.1995	3048.5381	3051.6187	3058.7502	3087.9509	3096.5797	3097.0607	3105.6771	3109.8914	3110.4788	3137.1043
COC1CC2CC1C2C	CO[C@H]1C[C@@H]2C[C@H]1[C@H]2C	
InChI=1S/C8H14O/c1-5-6-3-7(5)8(4-6)9-2/h5-8H,3-4H2,1-2H3	InChI=1S/C8H14O/c1-5-6-3-7(5)8(4-6)9-2/h5-8H,3-4H2,1-2H3/t5-,6-,7-,8-/m0/s1
