14
gdb 8965	5.77026	0.91721	0.79908	2.5886	71.	-0.262	-0.0629	0.1991	1330.3629	0.103155	-345.349817	-345.340997	-345.340052	-345.383982	30.737	
O	-0.0736835145	-0.1023356834	 0.0014125233	-0.291044
C	-0.0401748638	 1.1093136098	 0.0053510018	 0.231372
C	 1.2531973343	 1.9044145626	-0.0022132104	-0.300504
C	 2.4976355219	 1.0024166059	-0.0162271831	-0.364673
C	 3.7336964002	 1.7737076696	-0.0230149985	 0.280256
C	 4.7390337188	 2.4322418612	-0.0288408372	-0.425634
C	-1.2556695804	 1.9068281376	 0.0180148806	 0.241109
C	-2.2482567661	 2.5875561738	 0.02846769	-0.374332
H	 1.2424292678	 2.5741195416	-0.8711134681	 0.146989
H	 1.2569136282	 2.5668449684	 0.8723243366	 0.147022
H	 2.4709537112	 0.3364426139	 0.8533493287	 0.148863
H	 2.4566844829	 0.3438345417	-0.8908805278	 0.148845
H	 5.6369917325	 2.9987626992	-0.0344009684	 0.19517
H	-3.135876403	 3.1728045284	 0.0382222427	 0.216559
59.0727	76.8762	92.7824	181.5758	242.4821	248.3214	344.6183	439.5849	508.6196	566.514	613.7959	622.6679	645.4745	646.6158	705.5574	782.4865	832.8994	969.4368	1027.166	1034.7667	1110.8064	1173.7013	1297.4043	1298.5779	1383.6789	1446.6644	1469.8177	1767.8618	2212.5508	2241.5899	3037.6266	3048.7764	3064.76	3085.1065	3492.7096	3506.8373
O=C(CCC#C)C#C	O=C(CCC#C)C#C	
InChI=1S/C7H6O/c1-3-5-6-7(8)4-2/h1-2H,5-6H2	InChI=1S/C7H6O/c1-3-5-6-7(8)4-2/h1-2H,5-6H2
