19
gdb 101134	3.53072	1.05861	0.93874	1.0494	71.71	-0.2327	0.0553	0.2881	1284.0389	0.158311	-460.106485	-460.097599	-460.096655	-460.140386	33.494	
O	 0.0356347963	 1.3183028499	-0.413784467	-0.424883
C	 0.0384521452	-0.0849393686	-0.1544339929	-0.1058
C	-1.3924619678	-0.5754578067	 0.0987347869	-0.007668
O	-2.2400256641	-0.144318338	-0.9484787269	-0.44311
C	-1.4598615387	-2.0720311277	 0.1765459731	 0.500264
C	-1.5427078795	-3.0288722547	-0.9697044333	-0.334411
C	-2.5922596533	-3.069186865	 0.1281816125	-0.197048
C	-1.9637241082	-3.6392209738	 1.3945701511	-0.091591
O	-0.8562663767	-2.6955023119	 1.3189349592	-0.34279
H	-0.1224504517	 1.7743925119	 0.419943887	 0.290199
H	 0.4266371727	-0.5546948738	-1.0631771112	 0.123269
H	 0.6946300976	-0.349561562	 0.6839303486	 0.117451
H	-1.732816931	-0.1656985713	 1.0679013317	 0.060596
H	-1.8967648755	 0.7208048965	-1.2112956226	 0.29081
H	-1.8922076891	-2.5913361241	-1.8981462256	 0.133624
H	-0.8087835215	-3.8252005868	-1.0629020648	 0.107609
H	-3.6471408488	-2.9225234319	-0.0562958261	 0.109713
H	-2.5535044612	-3.4615907754	 2.3007943252	 0.109308
H	-1.6217191749	-4.6809256166	 1.3731070849	 0.104458
61.1506	112.9537	129.0256	215.8148	263.9485	332.3054	340.256	379.3269	409.942	482.5676	524.5898	548.0914	748.6507	758.8787	842.2555	891.5931	913.8457	950.7938	975.1017	989.2545	995.9076	1026.236	1034.1856	1070.7907	1071.8881	1119.2609	1129.3862	1154.2992	1179.9446	1199.9087	1267.9283	1293.6757	1337.1922	1346.7133	1371.3304	1388.0123	1405.7818	1451.4546	1494.6929	1497.5447	1520.062	2927.3998	3022.76	3032.3062	3072.2169	3099.1593	3115.9452	3211.9828	3223.5856	3750.325	3808.1942
OCC(O)C12CC1CO2	OC[C@@H](O)[C@]12C[C@H]1CO2	
InChI=1S/C6H10O3/c7-2-5(8)6-1-4(6)3-9-6/h4-5,7-8H,1-3H2	InChI=1S/C6H10O3/c7-2-5(8)6-1-4(6)3-9-6/h4-5,7-8H,1-3H2/t4-,5+,6-/m0/s1
