20
gdb 116925	4.4354	0.58559	0.56922	1.5127	88.42	-0.2254	0.0261	0.2515	2034.616	0.168325	-403.069016	-403.058555	-403.057611	-403.106683	36.008	
C	-0.3823405119	 1.3592089726	-0.4074369222	-0.218895
O	-0.385154568	-0.0423955715	-0.5472773308	-0.227441
C	 0.9224328158	-0.5822369192	-0.5057547202	-0.202708
C	 0.8787508606	-2.029990216	-0.6485204889	-0.026599
C	 0.8559304043	-3.2296129119	-0.7639664193	 0.195645
C	 0.8680043886	-4.6616561712	-0.8741638765	-0.184043
C	-0.2800523866	-5.3728039932	-1.5325381139	-0.23687
N	 1.0211829684	-5.3500180359	-2.1723096802	-0.079351
C	 1.1519453944	-4.530984385	-3.3708674374	-0.310979
H	 0.0539912408	 1.6749835231	 0.5538695344	 0.104973
H	 0.1807889857	 1.851778776	-1.2165176276	 0.104446
H	-1.4223940939	 1.6899590618	-0.448932202	 0.131389
H	 1.5427035626	-0.1454402642	-1.3086254113	 0.114526
H	 1.4166137054	-0.3190925557	 0.4463156057	 0.115899
H	 1.3808050996	-5.1733729164	-0.0626891132	 0.113729
H	-0.6101286221	-6.332327255	-1.1430557147	 0.119939
H	-1.0672687212	-4.7414225838	-1.9413317456	 0.121098
H	 0.5488975399	-3.6115880062	-3.3491437593	 0.1164
H	 2.2014932284	-4.2511048435	-3.5021171312	 0.125574
H	 0.8456338192	-5.1320471649	-4.2324687859	 0.123265
17.1826	66.5675	72.3456	111.1938	178.6984	223.4443	229.6881	265.9565	350.7385	362.8442	380.7106	424.0989	564.1266	596.7146	727.6697	777.12	878.0711	969.7991	984.3546	1024.1469	1028.9476	1067.146	1113.9631	1126.5016	1142.3028	1162.411	1182.8322	1204.1148	1209.0077	1219.9842	1255.1871	1321.2175	1376.7547	1410.3715	1447.5495	1478.3262	1484.7463	1488.6115	1493.5128	1494.8206	1508.3074	1515.5806	2358.5183	2941.8794	2958.7089	2968.1703	2997.1815	3010.5377	3078.6753	3094.2967	3109.6171	3120.4219	3126.2761	3184.0982
COCC#CC1CN1C	COCC#C[C@H]1CN1C	
InChI=1S/C7H11NO/c1-8-6-7(8)4-3-5-9-2/h7H,5-6H2,1-2H3	InChI=1S/C7H11NO/c1-8-6-7(8)4-3-5-9-2/h7H,5-6H2,1-2H3/t7-,8?/m0/s1
