17
gdb 72967	2.61055	1.51616	1.20855	2.5659	73.88	-0.2492	0.0155	0.2647	1062.182	0.135375	-417.969287	-417.960568	-417.959624	-418.002208	32.696	
C	 0.0040591853	 1.5830854741	-0.0539974788	-0.506655
C	-0.0109691433	 0.0880222361	 0.0682360146	 0.20142
C	-1.2605022552	-0.7991852205	 0.0564828878	-0.12845
O	-0.680427423	-1.698523889	 1.0448663177	-0.282963
C	 0.4720237413	-0.8898339341	 1.1071377823	 0.04852
C	 1.1800126705	-0.8379477419	-0.2526549456	 0.066712
N	 1.0355167811	-1.9204351574	-1.183895015	-0.558521
C	 2.4672202736	-0.1776899049	-0.1939164424	 0.23394
N	 3.5117125437	 0.3228048699	-0.174070002	-0.34958
H	 0.9963885526	 1.9892911094	 0.15776542	 0.15412
H	-0.2744388465	 1.8955515942	-1.0671108779	 0.130256
H	-0.7061774011	 2.0370949576	 0.6447295926	 0.129633
H	-2.1373345893	-0.2939034005	 0.4742977072	 0.116006
H	-1.5062134667	-1.3154153596	-0.8740004336	 0.126325
H	 1.0017245797	-0.7966021271	 2.0488163185	 0.126653
H	 1.3135530438	-1.6352104788	-2.1171384208	 0.244487
H	 1.6090182835	-2.7136579174	-0.9160630946	 0.248098
127.3816	147.1924	177.504	214.4749	254.1299	281.4768	298.4513	324.267	445.7503	479.0181	552.0706	569.4605	679.8955	692.7921	757.2485	808.1709	914.0359	925.7737	982.4675	987.1601	1020.0211	1068.9577	1102.9591	1124.8622	1170.3193	1203.6993	1241.2952	1261.005	1282.8277	1317.3526	1419.7673	1443.9157	1487.9363	1492.202	1496.2261	1656.5561	2329.3443	3032.0148	3048.8616	3092.7153	3118.9084	3121.4974	3180.8896	3504.4496	3585.496
CC12COC1C2(N)C#N	C[C@]12CO[C@H]1[C@]2(N)C#N	
InChI=1S/C6H8N2O/c1-5-3-9-4(5)6(5,8)2-7/h4H,3,8H2,1H3	InChI=1S/C6H8N2O/c1-5-3-9-4(5)6(5,8)2-7/h4H,3,8H2,1H3/t4-,5+,6-/m1/s1
