23
gdb 40882	3.14288	1.4615	1.31056	0.071	88.52	-0.2708	0.0843	0.3552	1100.1825	0.209126	-351.139551	-351.13198	-351.131036	-351.171352	31.699	
C	 0.0944896139	 1.4054193657	-0.5351590898	-0.21378
C	 1.4001312098	 1.619647866	 0.2781583774	-0.308517
C	 1.2745336087	 0.1615334593	 0.7980286421	 0.441808
C	-0.1925561885	 0.1300975236	 0.3031662191	-0.320823
C	 2.3525680432	-0.8698272335	 0.3388731096	-0.077647
C	 3.1852690308	-0.3643959631	 1.5525616151	-0.232638
C	 1.779348003	-0.2449014971	 2.2087835895	-0.092423
C	 1.3392371269	-1.7196312495	 2.2984122136	-0.211905
C	 1.7867769696	-2.198688854	 0.8753103135	-0.217044
H	-0.6500982552	 2.2038414672	-0.4991855449	 0.094407
H	 0.2967061781	 1.171406112	-1.5838061058	 0.100908
H	 2.3007339039	 1.8792255477	-0.2852818573	 0.095404
H	 1.2724133229	 2.3559447298	 1.0786684192	 0.095841
H	-0.9023481359	 0.3179465227	 1.1160959025	 0.097264
H	-0.5240389832	-0.7601994181	-0.2386698595	 0.094988
H	 2.7506168739	-0.8647166743	-0.6777257183	 0.051947
H	 3.9041846038	-1.0564603032	 2.0024685919	 0.082073
H	 3.6574201424	 0.6033217335	 1.3754090429	 0.098143
H	 1.5978601694	 0.3893048614	 3.0788253902	 0.048892
H	 1.8470674056	-2.2565570979	 3.1049649103	 0.091544
H	 0.2615292043	-1.8234997191	 2.4551518918	 0.094878
H	 0.9524621831	-2.5750374957	 0.2768057959	 0.093975
H	 2.5478083595	-2.9836812535	 0.913559501	 0.092704
92.6597	192.8174	212.9829	279.97	354.8998	399.413	508.4799	530.8606	660.7683	698.7362	790.9869	804.9691	831.8547	838.9405	856.4562	874.6873	907.7115	935.9433	945.0356	957.8099	968.0401	997.3271	999.6375	1014.8315	1051.0937	1076.1572	1087.3842	1144.9282	1147.9343	1180.9328	1182.5232	1205.552	1223.0209	1233.1333	1249.4733	1255.5414	1262.5146	1265.7909	1278.4866	1285.0224	1308.7409	1316.0249	1346.5977	1472.0063	1481.9001	1492.287	1496.6649	1504.9342	1518.3715	3038.3773	3042.4095	3046.4701	3049.7384	3055.8983	3059.6001	3081.5595	3085.1858	3089.8376	3090.9316	3095.4207	3100.985	3114.6926	3121.7994
C1CC2(C1)C1CC2CC1	C1CC2(C1)[C@H]1C[C@@H]2CC1	
InChI=1S/C9H14/c1-4-9(5-1)7-2-3-8(9)6-7/h7-8H,1-6H2	InChI=1S/C9H14/c1-4-9(5-1)7-2-3-8(9)6-7/h7-8H,1-6H2/t7-,8+
