12
gdb 124057	3.93096	1.68373	1.1876	4.263	62.43	-0.2475	-0.0648	0.1826	916.2075	0.079741	-468.784338	-468.778074	-468.77713	-468.815541	23.053	
C	-0.0133040219	 1.4900646652	 0.1184605869	-0.177446
O	 1.2790678704	 2.0045625059	-0.3362797285	-0.227436
C	 2.2689126475	 1.2048825884	-0.7452398232	 0.15943
N	 2.3098733566	-0.0765814225	-0.825422635	-0.355431
C	 1.1282093534	-0.6446399908	-0.4143597599	 0.413187
C	 0.0180372253	 0.0039215443	 0.0316608788	 0.165553
N	-0.9132093222	-0.9419358592	 0.3304620479	-0.192305
N	-0.4558751643	-2.0970093542	 0.1017783213	-0.029674
O	 0.9061829774	-1.9471600265	-0.3975365017	-0.217366
H	-0.1561153207	 1.8657101302	 1.137741774	 0.151497
H	-0.7737572831	 1.949654253	-0.5225820008	 0.151487
H	 3.1314938516	 1.7980323661	-1.0362090798	 0.158506
68.9542	233.3827	260.8748	408.252	480.1781	522.7892	596.1554	644.3649	680.8631	768.0942	776.8509	863.3986	932.9094	976.4271	1008.9415	1055.2456	1149.8915	1220.8148	1251.4196	1308.1543	1390.8916	1397.3325	1431.3102	1476.308	1526.95	1630.4795	1648.1392	3033.3717	3066.8788	3192.6563
C1OC=NC2=C1N=NO2	C1OC=Nc2c1nno2	
InChI=1S/C4H3N3O2/c1-3-4(5-2-8-1)9-7-6-3/h2H,1H2	InChI=1S/C4H3N3O2/c1-3-4(5-2-8-1)9-7-6-3/h2H,1H2
