17
gdb 62145	5.14447	0.67269	0.62314	4.2995	71.06	-0.2723	0.0065	0.2789	1686.6679	0.134948	-455.170689	-455.160989	-455.160045	-455.206269	33.625	
N	-0.2249986103	 1.1774527065	 0.3852114939	-0.508351
C	-0.1457195494	-0.2182580495	-0.0168356986	 0.022201
C	-1.5620804128	-0.79410999	-0.1337008755	-0.088926
O	-2.1740461836	-0.8910146781	 1.1449435073	-0.179064
C	-2.8990193146	 0.1664061422	 1.5798770985	 0.193684
O	-3.3614361816	 0.2113562348	 2.6776604766	-0.273002
C	 0.6316723418	-0.4806318892	-1.3392620557	-0.362871
C	 1.9789527503	 0.0771652517	-1.2853339292	 0.258059
N	 3.0358560308	 0.5375202975	-1.2050425008	-0.297406
H	 0.6726450155	 1.5149201537	 0.7159191229	 0.257606
H	-0.4980275812	 1.7704643748	-0.3938351455	 0.231527
H	 0.3586945266	-0.7622297746	 0.7886170671	 0.127771
H	-2.167820846	-0.1708414997	-0.8079367108	 0.109031
H	-1.5406904726	-1.8094764636	-0.5386323589	 0.126814
H	-3.0293851222	 0.9433301841	 0.8059117591	 0.075821
H	 0.6984865941	-1.5555332463	-1.543506149	 0.157859
H	 0.0982836153	-0.0264906743	-2.1843409116	 0.149245
58.5917	66.3886	96.5491	141.6404	200.6086	259.8996	289.4147	321.5984	368.453	396.5186	416.0061	449.4221	595.8003	675.3671	840.404	861.2718	911.8807	954.2957	995.5376	1027.8852	1046.1527	1061.9385	1146.1251	1149.9857	1199.0628	1261.2088	1286.2698	1340.1963	1351.2104	1406.5879	1426.1008	1434.5031	1464.1638	1495.3805	1663.6316	1872.8228	2362.5006	2980.658	3006.3231	3030.9556	3065.3407	3079.1185	3098.8449	3495.5289	3583.3313
NC(COC=O)CC#N	N[C@@H](COC=O)CC#N	
InChI=1S/C5H8N2O2/c6-2-1-5(7)3-9-4-8/h4-5H,1,3,7H2	InChI=1S/C5H8N2O2/c6-2-1-5(7)3-9-4-8/h4-5H,1,3,7H2/t5-/m1/s1
