18
gdb 100286	2.25209	1.49098	1.09552	5.0572	64.01	-0.2506	0.0093	0.2598	1133.5425	0.147913	-513.391151	-513.382107	-513.381162	-513.424664	34.212	
N	 0.0862347085	 1.2236212727	 0.1278678901	-0.531119
H	 0.2724495457	 0.2284889571	 0.2103309612	 0.266556
H	 0.9738277281	 1.7100793232	 0.0718957279	 0.250473
H	-1.2342543782	 1.4368601682	-0.9368029612	 0.324999
C	-0.695706907	 1.6653854624	 1.2962802537	-0.213606
C	-2.0821406507	 1.0183019391	 1.2538836364	 0.194344
O	-1.8685792952	-0.391821946	 1.224353734	-0.475295
C	-2.9163210352	 1.3655417777	 2.499018995	-0.112668
O	-4.0498089939	 0.5210744942	 2.562757243	-0.433548
C	-2.895057065	 1.3939355557	-0.0236910822	 0.417943
O	-4.1053980576	 1.4896788617	 0.0041714268	-0.368621
O	-2.2083549104	 1.5550916287	-1.1431087987	-0.371227
H	-0.2222820222	 1.399714499	 2.2511357246	 0.1138
H	-0.7927921937	 2.7555299785	 1.2556859042	 0.125156
H	-2.6837601557	-0.7711492286	 1.5891128122	 0.295627
H	-2.3203806693	 1.1670841935	 3.3960396426	 0.108521
H	-3.1934516946	 2.4286636571	 2.4909905232	 0.104538
H	-4.5685793337	 0.7597794656	 1.7754130275	 0.304127
80.2716	153.2259	191.8943	214.6273	260.02	303.3336	321.9179	362.6609	388.816	418.9228	446.9802	523.0327	588.4109	652.5003	742.4264	773.729	783.0278	879.807	913.1281	984.6594	1021.4432	1041.4427	1076.751	1098.8173	1107.3544	1139.0925	1213.3021	1260.6446	1295.0571	1356.0334	1364.1201	1397.1031	1437.9865	1459.988	1489.2741	1497.4635	1532.8586	1636.1514	1805.9977	3006.9631	3013.5189	3063.7189	3076.7012	3083.4892	3509.8917	3595.0751	3659.1729	3703.4082
[NH3+]CC(O)(CO)C([O-])=O	NC[C@@](O)(CO)C(=O)O	
InChI=1S/C4H9NO4/c5-1-4(9,2-6)3(7)8/h6,9H,1-2,5H2,(H,7,8)	InChI=1S/C4H9NO4/c5-1-4(9,2-6)3(7)8/h6,9H,1-2,5H2,(H,7,8)/t4-/m1/s1
