14
gdb 133297	5.27294	1.02618	0.86469	5.3176	69.26	-0.2321	-0.0735	0.1585	1239.8791	0.101032	-474.162135	-474.154324	-474.15338	-474.195062	28.048	
C	 0.058651845	 1.4382694135	 0.0790011824	-0.330253
N	-0.0619723025	 0.0099365698	-0.1128600657	-0.349626
C	-1.243015388	-0.6670301257	-0.0408266708	 0.418192
C	-2.5091796993	-0.039221051	-0.0230748533	-0.070775
N	-3.6140466092	-0.7612959462	 0.010778925	-0.275863
C	-3.4218161782	-2.072761472	 0.0296104554	 0.368845
F	-4.5076894531	-2.8224461889	 0.0570244936	-0.057221
N	-2.2748083556	-2.7239669828	 0.0324279768	-0.239535
N	-1.1608518182	-2.0066774884	 0.0004271485	-0.264939
H	 1.1126346119	 1.7115596144	 0.0098357211	 0.143218
H	-0.4770272222	 1.990093809	-0.7024312244	 0.140253
H	-0.3195394287	 1.7726496235	 1.0559949937	 0.130669
H	 0.7521972767	-0.5685977994	 0.023136993	 0.25849
H	-2.6181067586	 1.0412108742	-0.0343101452	 0.128545
69.8534	110.5591	176.7666	202.3885	377.1402	398.4234	432.3319	443.8237	502.5414	575.6392	581.5219	666.6204	786.2928	817.9213	889.7174	939.3149	1051.6749	1089.32	1155.5672	1168.4877	1192.6774	1299.5588	1355.6626	1418.25	1442.6919	1474.9907	1486.4868	1517.3448	1536.5062	1566.5045	1628.1046	2997.482	3057.3492	3135.3037	3172.588	3630.5819
CNC1=CN=C(F)N=N1	CNc1cnc(F)nn1	
InChI=1S/C4H5FN4/c1-6-3-2-7-4(5)9-8-3/h2H,1H3,(H,6,8)	InChI=1S/C4H5FN4/c1-6-3-2-7-4(5)9-8-3/h2H,1H3,(H,6,8)
