19
gdb 126585	5.40704	0.65652	0.6285	3.707	78.17	-0.2664	-0.036	0.2304	1802.6472	0.158562	-419.198094	-419.18898	-419.188036	-419.233445	32.332	
C	 0.0427737736	 1.5759155446	 0.137449703	-0.383176
C	-0.0558391679	 0.0573408899	-0.0296782754	-0.165664
C	 0.7833519288	-0.4709011158	-1.1968890207	-0.156674
C	 0.6819682694	-1.9982842193	-1.3637024306	-0.321207
C	 1.4658509236	-2.5152340512	-2.5244778671	 0.259109
C	 2.5854097313	-3.2817182793	-2.6000196967	-0.054013
O	 2.915717702	-3.463339337	-3.877269157	-0.162065
N	 1.9326834289	-2.7604487439	-4.6413235348	-0.003565
N	 1.1257162353	-2.2339034709	-3.8360196018	-0.170267
H	 1.076340728	 1.8878317345	 0.3240150267	 0.115335
H	-0.3011218831	 2.0959480079	-0.763267412	 0.118947
H	-0.5667008054	 1.9246500679	 0.9767523621	 0.114031
H	 0.2615706682	-0.4358936714	 0.8990002375	 0.094134
H	-1.1052175941	-0.2284154862	-0.1809054347	 0.099137
H	 0.4653986815	 0.0083043606	-2.130737312	 0.120011
H	 1.8358441067	-0.1941351199	-1.0526077916	 0.097179
H	 1.0284058588	-2.4968773751	-0.4513699721	 0.108416
H	-0.3707409546	-2.277906277	-1.4929712443	 0.125191
H	 3.214960089	-3.7456232482	-1.8584289785	 0.165141
43.6674	75.9824	90.4769	122.5819	241.2994	242.6408	323.8626	329.3319	441.2108	628.7735	641.3575	700.8	735.4563	754.0909	792.8957	847.3246	910.2906	931.3204	983.0933	1009.6173	1042.9732	1063.1286	1097.1983	1124.3383	1157.5966	1233.6917	1255.5074	1282.6132	1305.2238	1331.3626	1349.1105	1367.9779	1398.0652	1414.7931	1465.359	1478.5729	1486.0272	1498.5455	1499.6157	1512.1707	1622.1163	3011.6906	3021.7655	3031.5643	3034.471	3039.5936	3060.4953	3083.1273	3098.9406	3104.2948	3282.8226
CCCCC1=CON=N1	CCCCc1conn1	
InChI=1S/C6H10N2O/c1-2-3-4-6-5-9-8-7-6/h5H,2-4H2,1H3	InChI=1S/C6H10N2O/c1-2-3-4-6-5-9-8-7-6/h5H,2-4H2,1H3
