21
gdb 53336	3.17341	0.98703	0.9483	0.0714	90.29	-0.2385	0.0585	0.297	1394.1008	0.183552	-349.936524	-349.927477	-349.926533	-349.971656	33.724	
C	-0.4197920403	 1.1529005872	 0.6812264821	-0.496462
C	-0.1849253869	-0.248097776	 0.3584319853	-0.016336
C	 0.0112724653	-1.4063025029	 0.0884415741	 0.150283
C	 0.2635169901	-2.8029033396	-0.2583262809	-0.186147
C	 0.966891496	-3.6032053824	 0.8880727476	-0.224789
C	-0.1412732773	-4.3516544087	 1.6110144634	-0.017293
C	-1.3697336712	-3.5769232953	 2.0228447051	-0.291603
C	-1.3709307922	-4.3553896794	 0.729458236	-0.017305
C	-1.0450771369	-3.6089189067	-0.5540780267	-0.224823
H	 0.0874952619	 1.816566878	-0.0281333915	 0.145046
H	-1.4879788324	 1.3958390588	 0.6530760556	 0.145396
H	-0.052063949	 1.3994958884	 1.683619719	 0.145385
H	 0.9017493204	-2.8083094815	-1.1488536359	 0.100544
H	 1.6639559564	-4.3260944772	 0.4486514064	 0.095326
H	 1.5470936225	-2.9402764017	 1.5362707905	 0.106948
H	 0.1323218703	-5.2264365195	 2.1910434328	 0.076705
H	-1.954479525	-3.9855614662	 2.8403237138	 0.103048
H	-1.3477706479	-2.4934313591	 1.9870333441	 0.127112
H	-2.0045154961	-5.2329520727	 0.6588749799	 0.076697
H	-1.8478652801	-2.9499450521	-0.8969524134	 0.106939
H	-0.8501252478	-4.3330454811	-1.3535671672	 0.095331
23.0319	82.6749	103.9185	187.8104	261.9986	306.9208	320.554	380.8074	438.7268	527.4997	633.5303	680.5606	746.6097	759.47	825.9818	874.8691	886.7988	893.3478	946.9126	983.0075	1037.9444	1045.4108	1053.9382	1054.2558	1067.645	1090.9354	1104.4702	1110.4401	1163.7202	1189.0636	1206.87	1221.3642	1243.8238	1316.6821	1322.8347	1353.1067	1357.5592	1398.9897	1415.4475	1479.5538	1479.8189	1487.3056	1488.272	1502.0052	2363.4275	3023.5822	3027.3888	3034.8793	3046.7477	3082.688	3083.3995	3086.4139	3088.0999	3131.6069	3158.3913	3168.0188	3218.6811	23.0476	82.6742	103.9174	187.8097	261.9987	306.9231	320.5556	380.8072	438.7296	527.5013	633.5306	680.5606	746.6101	759.4696	825.9817	874.869	886.7989	893.3477	946.9127	983.0075	1037.9446	1045.411	1053.9384	1054.2559	1067.6451	1090.9355	1104.4706	1110.4404	1163.7206	1189.0642	1206.8704	1221.3649	1243.8249	1316.6822	1322.8355	1353.107	1357.5601	1398.99	1415.4468	1479.5529	1479.8181	1487.3066	1488.2723	1502.006	2363.4283	3023.582	3027.3885	3034.8793	3046.7477	3082.6881	3083.3995	3086.4138	3088.0999	3131.6068	3158.3913	3168.0189	3218.6811
CC#CC1CC2CC2C1	CC#C[C@H]1C[C@H]2C[C@H]2C1	
InChI=1S/C9H12/c1-2-3-7-4-8-6-9(8)5-7/h7-9H,4-6H2,1H3	InChI=1S/C9H12/c1-2-3-7-4-8-6-9(8)5-7/h7-9H,4-6H2,1H3/t7-,8-,9+
