18
gdb 22845	3.26179	1.16785	0.89601	0.8461	81.45	-0.2273	-0.0345	0.1929	1266.8948	0.148583	-439.04556	-439.037336	-439.036392	-439.078588	31.396	
O	-0.033896253	 1.3295307143	 0.8073962136	-0.393357
N	 0.0344445249	-0.0579598715	 0.6359383267	-0.181683
C	-0.9818621189	-0.5466251676	 0.0102353221	 0.310498
C	-0.9328126101	-2.0448970717	-0.1600949213	-0.272073
C	-1.355593339	-2.5533667381	-1.5401147418	-0.096013
O	-2.761924727	-2.5114942328	-1.7019238961	-0.236129
C	-3.2878781592	-1.2957979482	-2.1690485449	-0.13731
C	-3.0445052985	-0.0478810437	-1.3648820301	-0.072825
C	-2.0956135612	 0.2682010665	-0.4726768765	-0.121128
H	 0.7695245143	 1.5075043914	 1.3068513964	 0.307789
H	 0.0835730656	-2.375994611	 0.0721539989	 0.114718
H	-1.6065729678	-2.5160187033	 0.5671828365	 0.123265
H	-0.8492723205	-1.9995831196	-2.3458700684	 0.096469
H	-1.0758808569	-3.6077098582	-1.6329173222	 0.11112
H	-2.9411264807	-1.0958915551	-3.2025718151	 0.105399
H	-4.3701285053	-1.4574791322	-2.2405907159	 0.122474
H	-3.7494242869	 0.7423837213	-1.6231306993	 0.101467
H	-2.1052015599	 1.2767356793	-0.0760118826	 0.11732
62.7728	140.4632	219.8431	281.2754	313.043	342.1236	370.1246	412.6341	424.0876	508.5231	569.6644	647.3624	726.5772	761.5069	833.7296	861.5895	905.88	970.5239	989.487	1018.4148	1030.5952	1041.8045	1086.8719	1173.2881	1225.4543	1239.2237	1284.1793	1315.3465	1323.8035	1362.0284	1390.8882	1412.7848	1419.5079	1439.2837	1461.9372	1471.7192	1500.007	1668.6181	1706.7583	2911.0558	2989.4779	3029.8044	3051.053	3074.9721	3094.8314	3129.1296	3201.4195	3824.7215
ON=C1CCOCC=C1	ON=C1CCOCC=C1	
InChI=1S/C6H9NO2/c8-7-6-2-1-4-9-5-3-6/h1-2,8H,3-5H2	InChI=1S/C6H9NO2/c8-7-6-2-1-4-9-5-3-6/h1-2,8H,3-5H2
