17
gdb 27093	3.09903	1.2432	0.90118	3.2358	76.06	-0.2103	-0.0406	0.1697	1248.0869	0.135838	-418.066913	-418.058154	-418.05721	-418.101636	30.948	
C	-0.500526464	 1.5030918429	 0.3944477794	-0.491553
C	-0.1257159308	 0.0772597951	 0.1453245859	 0.197327
C	 0.2604816927	-0.5182257171	-1.0353395373	 0.244399
C	 0.4168009925	 0.0330502501	-2.4160300904	-0.4345
C	 1.1592715431	-0.8055971369	-3.4300346151	 0.16843
O	 1.5250400522	-1.9475950856	-3.2839896218	-0.254142
N	 0.4698153381	-1.8471630746	-0.7211747535	-0.292267
C	 0.2212094508	-1.9895182762	 0.6056750492	-0.001856
N	-0.1453290556	-0.8554744895	 1.1595633004	-0.312559
H	 0.0161694193	 1.8876059197	 1.2792183991	 0.137756
H	-0.2451883882	 2.1431988228	-0.4556315959	 0.105789
H	-1.576006128	 1.6098316719	 0.5791293163	 0.132052
H	-0.5581087996	 0.2394500598	-2.8932951028	 0.151189
H	 0.9090804101	 1.0155702718	-2.3934491245	 0.147868
H	 1.3350840805	-0.2804727554	-4.3938995649	 0.097491
H	 0.8385720398	-2.5184694956	-1.377597635	 0.2787
H	 0.326389437	-2.9367753533	 1.1133487311	 0.125876
35.8644	67.1349	150.7029	179.0187	229.1126	251.1314	276.3054	402.4284	581.7323	601.412	666.3125	677.8623	716.127	733.2212	815.4372	818.6638	937.3982	970.3958	984.6924	1041.26	1063.249	1097.2465	1157.5852	1223.9752	1258.4882	1292.7182	1345.7058	1380.4598	1413.6274	1427.8897	1442.3564	1464.9441	1476.0866	1493.3726	1518.7114	1622.4112	1814.9618	2900.2972	2962.1895	3028.9616	3030.3426	3085.3724	3108.9061	3250.3642	3629.7003
CC1=C(CC=O)NC=N1	Cc1c(CC=O)[nH]cn1	
InChI=1S/C6H8N2O/c1-5-6(2-3-9)8-4-7-5/h3-4H,2H2,1H3,(H,7,8)	InChI=1S/C6H8N2O/c1-5-6(2-3-9)8-4-7-5/h3-4H,2H2,1H3,(H,7,8)
