18
gdb 87895	2.68303	1.51856	1.12739	2.9647	79.53	-0.2435	-0.0508	0.1926	1112.8446	0.148512	-401.969616	-401.961513	-401.960569	-402.002246	30.927	
C	-0.0888197089	 1.5092107687	-0.0825385258	-0.401959
C	-0.0145848553	 0.0117620102	 0.0779953789	-0.033772
N	 1.2811713535	-0.6254485988	-0.1502408916	-0.375111
C	 0.7186465066	-0.6396134389	 1.2098384057	 0.222487
C	 1.3963187028	 0.0601029354	 2.3762867176	-0.36702
C	 1.0855935938	-0.8519189218	 3.5395557837	-0.06236
C	 0.4097217288	-1.9542906932	 3.1862587184	-0.17754
C	 0.1721737504	-1.9493651911	 1.727431998	 0.334283
O	-0.3250082703	-2.8143077472	 1.0356191167	-0.362193
H	 0.8445868878	 1.9848744188	 0.2288473027	 0.127773
H	-0.260857474	 1.7688257605	-1.1324517919	 0.127893
H	-0.9125394283	 1.9283373455	 0.5054022063	 0.119163
H	-0.8894240486	-0.5430096932	-0.2587227368	 0.104396
H	 1.131442318	-1.5540508038	-0.5480666174	 0.242612
H	 2.477669713	 0.1498904828	 2.2175930987	 0.138083
H	 1.0216299076	 1.0748992971	 2.55595727	 0.122987
H	 1.3963040339	-0.6092327817	 4.5502645751	 0.119164
H	 0.0871223893	-2.7596748494	 3.8328722015	 0.121115
92.9247	157.5042	185.5922	203.7387	284.2127	313.0494	404.7589	455.2331	500.5109	579.1799	676.1131	692.4363	779.0198	790.5333	837.6945	872.2379	943.8566	976.7426	983.953	1009.7148	1038.0543	1054.6971	1082.8964	1120.3394	1133.0895	1169.9792	1190.8434	1254.6622	1262.0909	1309.8354	1349.9668	1374.8606	1408.5675	1456.3761	1471.3992	1488.0625	1498.8597	1639.8364	1796.194	3033.6314	3036.4819	3064.1268	3098.2843	3113.5972	3130.8947	3190.9871	3230.5226	3451.1601
CC1NC11CC=CC1=O	C[C@H]1N[C@]21CC=CC2=O	
InChI=1S/C7H9NO/c1-5-7(8-5)4-2-3-6(7)9/h2-3,5,8H,4H2,1H3	InChI=1S/C7H9NO/c1-5-7(8-5)4-2-3-6(7)9/h2-3,5,8H,4H2,1H3/t5-,7+/m1/s1
