19
gdb 24348	3.38918	1.50774	1.08594	1.4278	82.08	-0.1724	0.0499	0.2223	1105.3947	0.164041	-382.11315	-382.105742	-382.104797	-382.144723	30.269	
C	-0.0191306031	 1.5462417388	-0.016431491	-0.200085
C	 1.4228911	 2.0839588551	 0.0111040694	-0.15721
N	 2.1858334303	 1.6936209444	 1.2012058562	-0.402547
C	 1.9418117598	 0.3660303937	 1.6231892549	 0.214974
C	 2.6093096251	-0.3551476193	 2.589844281	-0.193234
N	 2.0155267863	-1.596958474	 2.6498448143	-0.242222
C	 1.0047269838	-1.6818222812	 1.7292203106	-0.203377
C	 0.9235988207	-0.4726770124	 1.0736740058	 0.238266
C	-0.0142111086	 0.0059321659	 0.0017750851	-0.329949
H	-0.5618519062	 1.9270826821	 0.8583010828	 0.092293
H	-0.5375966485	 1.9173051882	-0.9075060322	 0.088186
H	 1.9541283411	 1.7113418858	-0.8764255574	 0.103698
H	 1.4324492928	 3.1762424091	-0.0520294644	 0.09345
H	 2.0518741344	 2.3572472873	 1.9539803695	 0.223329
H	 3.431173683	-0.090046676	 3.2342201888	 0.108153
H	 2.3031251073	-2.3401691387	 3.260028053	 0.257071
H	 0.4239038565	-2.5844053909	 1.6214556684	 0.110225
H	-1.0281914234	-0.3794500172	 0.1581570215	 0.097133
H	 0.3014243488	-0.3585721909	-0.9865394064	 0.101846
100.4104	209.5788	300.1965	312.4763	391.0392	415.0552	450.1934	513.522	594.5744	628.5622	635.1734	673.6604	696.7813	732.7942	770.5851	866.1702	874.7931	914.0167	949.2836	990.3838	1065.4559	1077.9498	1106.7479	1140.2465	1191.1401	1204.8184	1214.0727	1251.8191	1300.0281	1328.9031	1362.4958	1367.0034	1396.551	1407.1962	1459.1914	1475.5204	1480.7239	1486.6926	1496.1711	1563.8554	1628.267	2995.765	3003.9066	3022.7215	3052.8662	3071.9888	3079.5437	3253.1261	3266.3303	3538.1748	3697.0555
C1CNC2=CNC=C2C1	C1CNc2c[nH]cc2C1	
InChI=1S/C7H10N2/c1-2-6-4-8-5-7(6)9-3-1/h4-5,8-9H,1-3H2	InChI=1S/C7H10N2/c1-2-6-4-8-5-7(6)9-3-1/h4-5,8-9H,1-3H2
