17
gdb 128408	3.76204	1.07642	0.85907	5.8903	71.57	-0.2198	0.0129	0.2327	1312.6094	0.137347	-455.133193	-455.12501	-455.124066	-455.166305	30.161	
C	-0.0914439705	 1.4917125588	-0.3067393063	-0.319186
N	-0.1097387174	 0.0327703267	-0.1955683105	-0.308406
H	 0.0923126872	-1.2728526239	-1.5880555473	 0.300802
H	 0.6765605493	-0.2695700399	 0.3737767169	 0.238386
C	-1.3478970188	-0.4977630084	 0.4119203954	-0.287625
C	-1.3727310062	-1.9862242368	 0.252267174	-0.006743
C	-0.7768139324	-2.6657266291	-0.7813787756	 0.463925
O	-0.0431394467	-2.2317968622	-1.7940624842	-0.402098
O	-0.9856535648	-3.974817721	-0.6916209821	-0.205656
N	-1.7740011692	-4.2214743084	 0.4598284744	-0.161704
C	-1.9756654558	-3.0364464469	 0.9859634757	-0.052437
H	 0.8739560884	 1.8151455192	-0.704210442	 0.132142
H	-0.8707472112	 1.8120100847	-1.0050218743	 0.137792
H	-0.2635212505	 2.0040456779	 0.6527529713	 0.112904
H	-1.4529593221	-0.2065653428	 1.469626701	 0.107227
H	-2.1858125715	-0.0255185427	-0.1199655396	 0.125277
H	-2.5628423378	-2.9727409151	 1.8930506032	 0.125401
79.7528	133.1792	174.1828	251.3582	263.8339	300.5941	333.956	376.8283	475.1432	629.6344	708.9245	734.4442	772.2602	780.6129	892.2254	912.3425	922.9502	949.6268	968.5832	1006.0203	1119.7619	1150.3074	1174.0002	1190.685	1206.7668	1277.5013	1311.9584	1352.2399	1427.2528	1456.0793	1473.2483	1483.7067	1496.439	1509.0178	1517.1375	1569.6328	1675.5168	2971.3944	2985.7566	3014.9843	3078.47	3120.6428	3225.7667	3334.4871	3499.1326
C[NH2+]CC1=C([O-])ON=C1	CNCc1c(O)onc1	
InChI=1S/C5H8N2O2/c1-6-2-4-3-7-9-5(4)8/h3,6,8H,2H2,1H3	InChI=1S/C5H8N2O2/c1-6-2-4-3-7-9-5(4)8/h3,6,8H,2H2,1H3
