17
gdb 60741	4.03745	0.97811	0.83687	2.7495	72.7	-0.2662	-0.0413	0.2249	1342.4636	0.136045	-455.168276	-455.159314	-455.15837	-455.202702	31.647	
C	-0.2830018367	 1.5157104921	 0.1586101336	-0.360368
N	-0.0121530342	 0.082248909	 0.0448849965	-0.161511
C	-0.0453351934	-0.6888651425	 1.2121059087	 0.172903
O	-0.2844684454	-0.2331253589	 2.3032140119	-0.313323
C	 0.3016907504	-0.5414440665	-1.1659866102	 0.455837
O	 0.6187829822	-1.7153114992	-1.2267106538	-0.374463
C	 0.2354563705	 0.299558264	-2.4038516796	-0.147515
C	 1.4575484344	 0.2653352889	-3.2745719583	-0.217131
N	 0.2441154477	-0.4292477574	-3.6767775745	-0.299551
H	 0.5106030648	 2.098868257	-0.3133918584	 0.145456
H	-1.2442579847	 1.7786698968	-0.292557678	 0.146103
H	-0.3197285675	 1.7444809345	 1.2231675575	 0.177734
H	 0.1692146088	-1.7447002359	 1.0076158831	 0.143676
H	-0.3770116178	 1.1926947173	-2.3880376879	 0.110137
H	 1.7094849828	 1.1490462105	-3.8534242848	 0.131014
H	 2.2988579403	-0.3203754325	-2.9148240163	 0.136877
H	 0.3426762276	-1.4191622471	-3.4471881895	 0.254125
60.3277	68.2335	178.8246	193.3297	207.0869	273.5	326.1448	336.0994	344.2093	402.1522	545.1646	735.4782	759.7953	814.8854	855.002	889.5314	963.109	994.1884	1019.2491	1057.4556	1106.2701	1124.9861	1145.2938	1154.8001	1182.9189	1277.1127	1296.6001	1307.0502	1335.9667	1411.627	1424.1075	1452.1158	1498.0162	1502.9467	1513.8689	1760.8527	1810.7165	3050.2703	3080.2033	3114.0153	3119.3138	3164.4922	3185.9777	3208.2821	3465.2532
CN(C=O)C(=O)C1CN1	CN(C=O)C(=O)[C@H]1CN1	
InChI=1S/C5H8N2O2/c1-7(3-8)5(9)4-2-6-4/h3-4,6H,2H2,1H3	InChI=1S/C5H8N2O2/c1-7(3-8)5(9)4-2-6-4/h3-4,6H,2H2,1H3/t4-/m1/s1
