19
gdb 89808	3.19929	1.35117	1.13181	1.905	74.55	-0.2502	0.0778	0.328	1118.8022	0.160042	-423.001769	-422.993925	-422.992981	-423.034038	31.315	
O	 0.0151915061	 1.4221067181	-0.0921612622	-0.441294
C	 0.0167542994	 0.007811204	-0.0901647071	 0.134386
C	 0.7930543772	-0.6238125393	 1.1025943837	-0.35154
C	 0.0734501366	-1.9342657621	 1.417591658	 0.362917
C	 0.7243159654	-3.2835138019	 1.2180397945	-0.317166
C	 0.4075045585	-2.7899067074	 2.6083572651	-0.318065
C	-1.3341578835	-1.7393352814	 0.936897275	-0.029121
O	-1.9138273033	-0.4835159216	 1.3395413494	-0.279308
C	-1.3715070978	-0.605389893	 0.01070729	-0.008887
H	-0.485947559	 1.6976601903	 0.6849504606	 0.286934
H	 0.4677875262	-0.2856410477	-1.0450013554	 0.093022
H	 1.8531436624	-0.7602871421	 0.8763617951	 0.104978
H	 0.7236089401	 0.060548348	 1.9542401383	 0.109707
H	 0.1231340842	-4.0917014771	 0.8129628405	 0.112855
H	 1.7619433636	-3.300707246	 0.9016132386	 0.115536
H	 1.2322204034	-2.4741436925	 3.2387333577	 0.11633
H	-0.4072750208	-3.2623156004	 3.1472615061	 0.116368
H	-2.0276740066	-2.5754144691	 0.8829014118	 0.094701
H	-2.0872866622	-0.5039002389	-0.8007561899	 0.097647
86.3018	155.2576	232.6186	279.7056	327.7862	390.9349	417.7065	450.2378	516.6422	588.1157	661.6835	776.8345	796.2544	827.5465	853.0515	870.4032	902.4668	937.599	951.7007	985.0171	996.9667	1023.749	1060.1729	1080.2	1091.1293	1097.3337	1108.8813	1173.4233	1189.9968	1244.3605	1255.8421	1282.2292	1303.1402	1323.4377	1327.5749	1380.3849	1434.176	1441.0605	1467.4944	1485.2085	1505.0196	3050.0575	3054.9284	3105.9192	3124.2532	3129.5991	3140.368	3156.0179	3203.2632	3218.1136	3788.3307
OC1CC2(CC2)C2OC12	O[C@H]1CC2(CC2)[C@H]2O[C@@H]12	
InChI=1S/C7H10O2/c8-4-3-7(1-2-7)6-5(4)9-6/h4-6,8H,1-3H2	InChI=1S/C7H10O2/c8-4-3-7(1-2-7)6-5(4)9-6/h4-6,8H,1-3H2/t4-,5-,6-/m0/s1
