16
gdb 6874	2.9669	1.66263	1.46958	0.3501	67.65	-0.2403	0.0347	0.275	926.3193	0.126525	-383.686279	-383.677234	-383.67629	-383.719201	33.412	
C	-0.1197559758	 1.588685659	-0.0881701327	-0.443844
C	-0.0130738253	 0.0864909143	-0.0305333635	 0.339432
O	-1.1518579383	-0.6188558532	-0.4482003137	-0.457909
C	 1.3086578978	-0.6031987698	-0.2485630184	 0.038445
O	 2.4591102918	 0.1489798801	-0.4500447192	-0.422167
C	 0.6597189294	-0.6180216648	 1.1443806405	-0.311416
C	 1.3145512906	 0.1072287969	 2.1870561051	 0.299682
C	 1.9366945691	 0.7064385358	 3.0269646378	-0.429786
H	 0.8113860174	 2.0615505691	 0.2254820204	 0.138302
H	-0.3279183643	 1.9088273886	-1.1160781732	 0.110545
H	-0.93388357	 1.9392094602	 0.5526279998	 0.128837
H	-1.2619977784	-0.4633427005	-1.3936596692	 0.284039
H	 1.2825918744	-1.5472557219	-0.790217127	 0.103425
H	 2.9244729129	 0.2220760862	 0.3935492513	 0.293963
H	 0.1851798094	-1.5508630781	 1.4312959912	 0.127941
H	 2.4421332892	 1.2417216379	 3.7923468107	 0.200511
113.8804	131.6915	173.8435	215.6926	227.6491	266.3562	312.1313	362.1683	385.0444	414.7972	513.3302	546.674	601.7439	641.891	662.0969	712.7385	832.9222	866.7178	945.3055	999.2604	1048.7426	1085.0202	1109.543	1154.8591	1217.4197	1294.8428	1329.4042	1334.6362	1368.3213	1416.6304	1430.6621	1483.4019	1498.7185	2225.1943	3035.661	3101.4205	3121.4304	3150.9429	3165.5794	3502.1085	3751.6181	3786.1354
CC1(O)C(O)C1C#C	C[C@@]1(O)[C@@H](O)[C@H]1C#C	
InChI=1S/C6H8O2/c1-3-4-5(7)6(4,2)8/h1,4-5,7-8H,2H3	InChI=1S/C6H8O2/c1-3-4-5(7)6(4,2)8/h1,4-5,7-8H,2H3/t4-,5+,6+/m1/s1
