21
gdb 87161	2.77382	1.17678	1.11343	1.0455	78.51	-0.2411	0.0693	0.3104	1240.0246	0.181105	-424.192595	-424.18307	-424.182126	-424.227163	35.419	
C	 2.0352728829	 0.7995728776	-0.5150187005	-0.407667
C	 1.1065687379	-0.3599183257	-0.2333256898	-0.026719
C	 1.6347067772	-1.6459279569	 0.3820198897	-0.365664
C	 0.7324265035	-0.7332133053	 1.1726702203	 0.354309
O	 1.2890167386	 0.0550634044	 2.1945971678	-0.466073
C	-0.6763162367	-1.1717884396	 1.5041241112	 0.094015
C	-1.7980802811	-0.1095773107	 1.4463299938	-0.283839
C	-2.4384869659	-1.0545732936	 0.4116251233	-0.063487
O	-1.2977108249	-1.943800613	 0.4515787174	-0.292981
H	 2.7547360261	 0.9279063365	 0.2966612195	 0.126894
H	 2.5882618789	 0.6382478756	-1.4466394448	 0.11217
H	 1.4793089439	 1.7383675288	-0.614772127	 0.11335
H	 0.3140357053	-0.5105933239	-0.9610317059	 0.093961
H	 1.2309038637	-2.5877898651	 0.0282419627	 0.12616
H	 2.6811195187	-1.6625524353	 0.6712426444	 0.104888
H	 1.5649944347	-0.533280616	 2.9059946971	 0.283819
H	-0.6596262742	-1.7422815456	 2.4468318343	 0.061018
H	-2.3601627605	 0.0482894677	 2.367134458	 0.108727
H	-1.4700955582	 0.8525335592	 1.0504939512	 0.119322
H	-3.3533834374	-1.5611273077	 0.7431711984	 0.102259
H	-2.6018591024	-0.6477387211	-0.5927853311	 0.105538
66.2242	82.4775	145.8011	186.7231	191.6869	255.7077	277.7873	291.6968	400.4673	442.8411	508.4499	542.1284	670.0206	779.2426	797.515	836.4367	889.6274	892.8116	932.4693	953.8749	978.5744	1012.1209	1032.6441	1037.9352	1066.8318	1108.4778	1113.4735	1144.8373	1168.441	1192.2455	1214.9997	1252.8961	1258.1518	1265.3439	1277.1782	1318.2963	1357.2774	1396.6436	1406.6272	1425.0426	1482.3832	1489.304	1495.4283	1506.8633	1530.0555	2966.4497	3018.6372	3033.5965	3061.0815	3086.9057	3089.5615	3123.7103	3126.8662	3143.2296	3152.0248	3221.7719	3796.1702
CC1CC1(O)C1CCO1	C[C@H]1C[C@]1(O)[C@H]1CCO1	
InChI=1S/C7H12O2/c1-5-4-7(5,8)6-2-3-9-6/h5-6,8H,2-4H2,1H3	InChI=1S/C7H12O2/c1-5-4-7(5,8)6-2-3-9-6/h5-6,8H,2-4H2,1H3/t5-,6+,7+/m0/s1
