22
gdb 9774	3.0482	1.66811	1.47802	1.001	77.6	-0.2447	0.0797	0.3244	1009.8247	0.20042	-350.217769	-350.208877	-350.207933	-350.251479	33.521	
C	-0.1778418393	 1.2634082771	-0.0603590191	-0.245238
O	-0.0546772666	-0.1233095923	 0.1542329719	-0.286985
C	 0.7866674672	-0.5614706477	 1.2390325486	 0.422232
C	 2.2000341002	 0.0113857202	 1.1204320462	-0.463983
C	 0.102258529	-0.2716503997	 2.5941205941	-0.237797
C	-1.0016780283	-1.3330695296	 2.6777684076	-0.198029
C	-0.3012737573	-2.6080979759	 2.1670410601	-0.20216
C	 0.7484307063	-2.1112714268	 1.1369011908	-0.232257
H	 0.7572399454	 1.7226566914	-0.4107192111	 0.105092
H	-0.9335955198	 1.3899972532	-0.8405708572	 0.123615
H	-0.5143947792	 1.8103217013	 0.8322198975	 0.102459
H	 2.2215090455	 1.0953210976	 1.2691598046	 0.112708
H	 2.8508273599	-0.4365356888	 1.8770690352	 0.114167
H	 2.6211420017	-0.2073814049	 0.1337284595	 0.120067
H	 0.8316771175	-0.4200156624	 3.4009207264	 0.09037
H	-0.2615472682	 0.7560976507	 2.6781679559	 0.090195
H	-1.4181340269	-1.4466824554	 3.6825835724	 0.086128
H	-1.8207570618	-1.0566212199	 2.0062907754	 0.107943
H	 0.1991343326	-3.1134856618	 3.0005749279	 0.093622
H	-1.0019956889	-3.3285088553	 1.7369440306	 0.095663
H	 0.4823295714	-2.3754752885	 0.1112688826	 0.11232
H	 1.7356453493	-2.5363300526	 1.3382102203	 0.089867
39.6684	88.5323	177.6545	228.2445	263.049	279.9808	333.6934	377.7061	406.4273	480.0983	570.6445	617.8155	739.2669	781.3877	851.1346	855.6997	906.3611	915.2434	932.0155	986.6218	1026.1879	1044.526	1061.3681	1113.5455	1144.6788	1180.0408	1186.2983	1214.6546	1229.8938	1235.0591	1263.3186	1286.7469	1306.2198	1336.5522	1349.1776	1364.9189	1405.317	1469.5141	1479.3896	1481.5204	1489.4579	1491.7469	1493.291	1507.2363	1511.7304	1514.5942	2987.5582	3028.0855	3034.2793	3038.7666	3039.6655	3051.6383	3063.7069	3084.9496	3090.6515	3100.9812	3101.4972	3106.5862	3110.3195	3117.3329
COC1(C)CCCC1	COC1(C)CCCC1	
InChI=1S/C7H14O/c1-7(8-2)5-3-4-6-7/h3-6H2,1-2H3	InChI=1S/C7H14O/c1-7(8-2)5-3-4-6-7/h3-6H2,1-2H3
