23
gdb 118078	3.57805	0.71861	0.62491	2.157	79.3	-0.2547	0.0621	0.3167	1817.2418	0.203088	-462.546313	-462.535033	-462.534089	-462.583142	40.302	
C	-0.0940016331	 1.390611671	-0.0604404841	-0.228791
O	-0.0362451156	-0.014999282	-0.0494001358	-0.235607
C	-1.3107988908	-0.6169053484	 0.0382508423	-0.055173
C	-1.1319600179	-2.1374520653	 0.0709297194	-0.027331
C	-0.3619430437	-2.5670304361	 1.3284810353	-0.410423
C	-2.4927056838	-2.8372643039	-0.0577502756	 0.092034
O	-3.1863531144	-2.4458115451	-1.2542998346	-0.44296
C	-2.4240516764	-4.3686736202	-0.0284848673	-0.070631
O	-3.6986548074	-4.927843964	-0.2551641633	-0.42471
H	 0.9311174934	 1.7609259103	-0.1395477891	 0.126392
H	-0.6759889321	 1.7693694399	-0.9157281141	 0.103953
H	-0.5458083338	 1.7891645261	 0.8619137569	 0.104537
H	-1.8319150818	-0.2818981742	 0.9535070649	 0.082082
H	-1.9366700788	-0.3242563938	-0.8174987508	 0.096566
H	-0.5298215719	-2.4063301245	-0.8108727392	 0.073084
H	 0.5340279462	-1.9522206349	 1.4356941972	 0.138249
H	-0.975133402	-2.4319447254	 2.2275060768	 0.114834
H	-0.0532185651	-3.6147049974	 1.2848519256	 0.119545
H	-3.1562408604	-2.5100625311	 0.7529374354	 0.096554
H	-2.5893780142	-2.598184721	-1.9973454214	 0.282118
H	-1.691151082	-4.7085803529	-0.7851699733	 0.070676
H	-2.0777319805	-4.7266603132	 0.945287396	 0.111295
H	-4.1034835041	-4.366201234	-0.9296545212	 0.283707
60.7166	86.3903	91.667	129.8574	143.4043	221.312	230.6543	249.6676	287.3827	324.945	345.1601	363.5844	393.7308	462.4257	529.6563	540.9374	595.9112	848.5462	894.0136	934.4682	950.1696	989.6274	1052.519	1063.2537	1099.5063	1117.2441	1140.449	1162.3885	1169.1945	1192.0545	1211.6249	1221.8061	1250.9288	1273.1541	1302.2026	1350.5013	1373.241	1380.0495	1403.3107	1414.4471	1424.8934	1447.0415	1481.4582	1484.8787	1495.7583	1505.2671	1506.4291	1512.7528	1531.3051	2922.5604	2941.9559	2970.0575	2990.3591	3011.7247	3015.2431	3034.8103	3041.7847	3084.3278	3106.5713	3112.6353	3133.7307	3757.5264	3780.279
COCC(C)C(O)CO	COC[C@@H](C)[C@@H](O)CO	
InChI=1S/C6H14O3/c1-5(4-9-2)6(8)3-7/h5-8H,3-4H2,1-2H3	InChI=1S/C6H14O3/c1-5(4-9-2)6(8)3-7/h5-8H,3-4H2,1-2H3/t5-,6+/m1/s1
