16
gdb 85714	1.8876	1.74181	1.17363	4.0765	74.05	-0.2798	-0.0029	0.2768	1093.4625	0.122255	-400.706473	-400.697515	-400.696571	-400.740843	32.27	
C	 0.4644151302	 1.4004933442	-0.3471388428	-0.407328
C	 0.0196346233	 0.0269858395	 0.102285087	 0.146831
O	 0.5563030579	-1.0346528071	-0.7365879653	-0.283819
C	 1.3160032743	-1.6032481338	 0.3357240416	-0.022105
C	 2.7628337389	-1.5202663452	 0.1150485789	 0.297358
N	 3.9034315888	-1.4680346443	-0.0611406167	-0.320472
C	 0.6980847949	-0.597522674	 1.3678487181	-0.299889
C	 1.5756816063	 0.2122677048	 2.1789744779	 0.360828
C	 2.3091747311	 0.8847930509	 2.8525106396	-0.443985
H	 1.5539668615	 1.483845878	-0.3497077796	 0.145077
H	 0.0947269658	 1.590997649	-1.3589957553	 0.133982
H	 0.0589704854	 2.1674139761	 0.3204849621	 0.128557
H	-1.0735735787	-0.0398506351	 0.1325820685	 0.095382
H	 1.0497548382	-2.6507280077	 0.5171444791	 0.13241
H	-0.0312230443	-1.113386099	 1.9970972059	 0.126565
H	 2.9665742265	 1.4742559338	 3.4431766411	 0.210609
35.6877	102.4044	145.368	199.4086	233.8483	254.7289	320.2749	409.5319	433.5484	506.9411	575.3414	616.6373	644.2396	665.1937	756.2741	802.3473	861.5924	893.9281	993.2317	1022.9944	1053.79	1084.2749	1109.3139	1153.3669	1198.8187	1253.2713	1300.9608	1339.9225	1356.7902	1391.4576	1414.2535	1481.7926	1487.5994	2241.6015	2358.7765	3041.4288	3044.5229	3046.1594	3081.1899	3117.3696	3132.2831	3501.3995
CC1OC(C#N)C1C#C	C[C@H]1O[C@@H](C#N)[C@H]1C#C	
InChI=1S/C7H7NO/c1-3-6-5(2)9-7(6)4-8/h1,5-7H,2H3	InChI=1S/C7H7NO/c1-3-6-5(2)9-7(6)4-8/h1,5-7H,2H3/t5-,6+,7+/m1/s1
