17
gdb 29907	4.40426	1.02329	0.88221	3.6617	76.27	-0.2174	0.0249	0.2423	1312.1666	0.13703	-418.019474	-418.011211	-418.010267	-418.05328	29.592	
C	 0.81563819	 1.153273597	-0.1144080283	-0.337468
N	 0.1050693871	-0.1077126174	-0.050294016	 0.019093
C	-1.0093552922	-0.4541051335	-0.7557316263	-0.0053
N	-1.4322584803	-1.6622424368	-0.4608047626	-0.336329
C	-0.5457032645	-2.1313652152	 0.4819301437	 0.27064
C	 0.4101490973	-1.1837794235	 0.7539867732	-0.213056
C	-0.6844664644	-3.4774197583	 1.0718692492	-0.027388
C	 0.3855762728	-4.489487714	 0.9911598099	-0.169898
O	 0.1526541861	-3.7635157027	 2.1973416187	-0.23543
H	 1.8558655863	 0.9999838038	-0.4172668658	 0.146222
H	 0.3299873228	 1.7968562886	-0.8502901908	 0.14649
H	 0.8019627545	 1.6596558201	 0.8555854498	 0.14796
H	-1.4638112079	 0.22274035	-1.4649472721	 0.125808
H	 1.2396279394	-1.1724575421	 1.4404656299	 0.139224
H	-1.7105723976	-3.8342332413	 1.1558757599	 0.103642
H	 0.1333736852	-5.5489091171	 1.0259455116	 0.114794
H	 1.3054552052	-4.2398522778	 0.4648537861	 0.110995
67.0194	82.5071	127.9933	150.4091	227.9264	341.9204	413.023	464.6661	618.751	639.0652	709.294	731.5781	755.5163	821.1989	860.1036	897.9651	980.3188	1032.112	1061.0314	1081.9078	1094.0949	1146.8461	1151.9296	1169.188	1185.3178	1239.8452	1271.675	1290.5113	1388.1512	1404.5815	1446.1426	1461.8735	1482.4765	1516.4584	1521.2139	1537.6078	1599.9158	3041.3471	3079.6669	3102.9541	3119.346	3137.7271	3172.1921	3242.1651	3281.6002
CN1C=NC(=C1)C1CO1	Cn1cnc(c1)[C@H]1CO1	
InChI=1S/C6H8N2O/c1-8-2-5(7-4-8)6-3-9-6/h2,4,6H,3H2,1H3	InChI=1S/C6H8N2O/c1-8-2-5(7-4-8)6-3-9-6/h2,4,6H,3H2,1H3/t6-/m1/s1
