19
gdb 32831	4.43695	0.78938	0.71091	2.212	79.63	-0.2095	0.0355	0.245	1606.7562	0.159822	-419.253406	-419.24389	-419.242946	-419.289265	33.946	
C	-0.1209650506	 1.5131155129	-0.0484176566	-0.488743
C	-0.0472844465	 0.0209390011	-0.0312309152	 0.281275
C	 0.0547001838	-0.8425466044	-1.0910096773	-0.192427
N	 0.0830995117	-2.1063016218	-0.5366885812	-0.278229
C	-0.0065266484	-1.963645117	 0.8184161587	 0.330708
C	 0.0424205506	-3.113934251	 1.77079732	-0.324926
C	 1.4297746628	-3.2790082102	 2.4198845437	-0.055554
O	 1.4818991668	-4.3790643537	 3.3107121329	-0.415457
N	-0.0831890797	-0.6917199459	 1.1503978126	-0.346015
H	 0.709272734	 1.9560080771	 0.5125746218	 0.130488
H	-0.0845050214	 1.8978332356	-1.0713726071	 0.114398
H	-1.0469476689	 1.8676343775	 0.4172679152	 0.13084
H	 0.1000873065	-0.6846373893	-2.1558449651	 0.12176
H	 0.1426764475	-2.9750664217	-1.0405416275	 0.261292
H	-0.6992663736	-2.9435690011	 2.5594698243	 0.119687
H	-0.2261800298	-4.0492557299	 1.2672928763	 0.102615
H	 2.1787604406	-3.4825818634	 1.6471626012	 0.10971
H	 1.7112889353	-2.3361153417	 2.9088064929	 0.114459
H	 0.9344053594	-4.1667182929	 4.0733347604	 0.284119
22.9825	95.3611	95.7561	117.1483	241.6021	270.7128	300.9947	353.2933	371.0356	409.3597	524.1464	644.1809	663.5258	718.2526	724.6083	779.1269	798.1428	987.7023	997.5082	1011.8036	1021.6243	1059.8734	1065.7694	1076.8185	1112.4926	1147.6152	1240.6654	1284.07	1304.6957	1314.6876	1376.2807	1395.6647	1413.3062	1416.2929	1465.5999	1476.2287	1478.9355	1496.6937	1511.599	1560.4257	1611.6252	3012.3293	3032.9182	3037.6951	3068.0555	3086.4196	3092.6116	3113.9499	3270.9019	3664.5429	3816.1375
CC1=CNC(CCO)=N1	Cc1c[nH]c(CCO)n1	
InChI=1S/C6H10N2O/c1-5-4-7-6(8-5)2-3-9/h4,9H,2-3H2,1H3,(H,7,8)	InChI=1S/C6H10N2O/c1-5-4-7-6(8-5)2-3-9/h4,9H,2-3H2,1H3,(H,7,8)
