17
gdb 13083	4.02647	1.30513	1.07758	5.1849	68.29	-0.2735	0.0401	0.3135	1080.0617	0.142258	-363.86631	-363.858129	-363.857185	-363.899275	29.713	
O	 0.233779303	 1.1650589306	-0.5804136953	-0.429428
C	 0.0706625338	-0.080990609	 0.0548637035	 0.122405
C	-0.1047752698	-0.1371865708	 1.5972126807	-0.262469
C	-1.2703763191	-1.1423685539	 1.3766562947	-0.228816
C	-1.3462130177	-0.6930593217	-0.1120910087	-0.021303
C	-2.4206825201	 0.370987427	-0.395590721	-0.342243
C	-3.7674590365	-0.1944306952	-0.3533142588	 0.256672
N	-4.8253313905	-0.6583500689	-0.3128480696	-0.311696
H	 1.1188057455	 1.4935465158	-0.3939650085	 0.289611
H	 0.8331422401	-0.7990999314	-0.2785218712	 0.076855
H	 0.748733975	-0.4649662613	 2.1948597732	 0.100166
H	-0.4566312587	 0.8246273568	 1.9804851273	 0.110986
H	-0.9507103121	-2.1821243087	 1.4734794776	 0.112648
H	-2.1730795499	-1.0028935542	 1.9750179826	 0.120246
H	-1.4324953051	-1.4910596335	-0.8529954425	 0.090884
H	-2.3605995723	 1.1888917126	 0.3299637846	 0.15245
H	-2.2505506555	 0.8215350458	-1.3784238987	 0.163032
69.6202	128.8477	132.966	221.8911	229.5532	342.9149	394.357	403.4122	525.192	548.5815	656.6058	760.1769	839.1599	878.5873	916.4618	943.4927	953.2237	959.3628	1047.2723	1095.224	1109.7615	1157.6605	1196.591	1199.3833	1231.6761	1258.0911	1267.2768	1285.152	1317.7634	1333.3873	1380.5967	1421.2201	1460.1759	1482.1127	1499.6125	2359.9514	2998.6207	3058.3159	3063.429	3071.267	3080.9023	3099.9081	3112.3735	3129.1243	3822.7643
OC1CCC1CC#N	O[C@H]1CC[C@H]1CC#N	
InChI=1S/C6H9NO/c7-4-3-5-1-2-6(5)8/h5-6,8H,1-3H2	InChI=1S/C6H9NO/c7-4-3-5-1-2-6(5)8/h5-6,8H,1-3H2/t5-,6-/m0/s1
