15
gdb 130965	7.26949	0.7253	0.6622	4.459	70.57	-0.2069	-0.0149	0.1919	1566.6955	0.111989	-450.134159	-450.12524	-450.124296	-450.169979	30.035	
O	 0.3497489476	-0.2331949353	 0.2909039853	-0.250779
C	 0.3206857514	 0.7466385006	-0.4059017124	 0.15603
C	 0.8855264916	 2.1013468174	 0.0013883243	-0.245938
N	 0.6887781721	 3.0600252139	-1.0587193801	-0.414148
C	 1.1149316474	 4.2456963076	-0.8557936112	 0.53111
N	 1.0169080008	 5.3041390589	-1.7568549026	-0.363583
C	 1.5826967788	 6.417182899	-1.1904535605	 0.060051
N	 2.0426715325	 6.1885421079	-0.0034440025	-0.20408
N	 1.7570863271	 4.8520839988	 0.2071080037	-0.3127
H	-0.1288734728	 0.7454835313	-1.4237601687	 0.088129
H	 0.388942774	 2.3821753149	 0.9486155834	 0.11572
H	 1.948698513	 1.9392635515	 0.2584887679	 0.115761
H	 0.5904811676	 5.213659326	-2.6619331469	 0.282874
H	 1.6348692728	 7.3734218401	-1.6857074427	 0.15787
H	 2.0190790461	 4.4247692673	 1.0757893529	 0.283682
25.6509	54.1667	101.4067	104.9144	186.9264	300.1695	324.6544	402.7019	456.3816	587.4946	655.3819	707.6816	733.406	768.1238	848.7806	942.5942	997.1817	1047.1724	1060.7773	1089.157	1096.3394	1126.2445	1234.4017	1251.1443	1327.3975	1352.578	1383.4347	1399.6126	1431.276	1449.537	1629.9308	1774.155	1840.9147	2895.3364	2927.2851	2950.7244	3278.0005	3696.38	3717.906
O=CCN=C1NC=NN1	O=CCN=c1[nH]cn[nH]1	
InChI=1S/C4H6N4O/c9-2-1-5-4-6-3-7-8-4/h2-3H,1H2,(H2,5,6,7,8)	InChI=1S/C4H6N4O/c9-2-1-5-4-6-3-7-8-4/h2-3H,1H2,(H2,5,6,7,8)
