16
gdb 61366	4.17949	0.80401	0.78154	5.3859	75.04	-0.2483	-0.0742	0.1741	1464.3271	0.121023	-437.880806	-437.870991	-437.870047	-437.916754	33.565	
C	-0.0127322132	 1.4259683429	 0.1060529956	-0.356727
N	 0.033212406	-0.0252178166	 0.0021390453	-0.015936
C	-0.1031412244	-0.8110282559	 1.1953697118	-0.305326
C	-1.5242480455	-0.8176641555	 1.7797514062	 0.235642
O	-2.4613833685	-0.2793658997	 1.2390576184	-0.267642
C	-1.6473340559	-1.5297855858	 3.0388108432	 0.249524
C	-1.7114959456	-2.1346212141	 4.0776131607	-0.393931
C	 0.1407349974	-0.6212785222	-1.2241196542	 0.15937
O	 0.2327720884	-0.0413451105	-2.2823886139	-0.332548
H	 0.7714337456	 1.7847935263	 0.7833401052	 0.120291
H	 0.1556050518	 1.8298772312	-0.891997724	 0.171327
H	-0.987147079	 1.7587843729	 0.474392897	 0.149929
H	 0.1714319617	-1.8530811591	 0.988593004	 0.151769
H	 0.5853633816	-0.4655896648	 1.9800816567	 0.139659
H	-1.791353136	-2.662927838	 4.9971567809	 0.223258
H	 0.1482597756	-1.7265867911	-1.1403689329	 0.071341
40.2835	55.1312	114.5804	140.0536	169.9744	238.2909	281.8086	317.5119	350.6576	384.27	437.0937	570.2232	600.6514	661.6338	717.3494	721.8802	835.2001	882.7105	974.0487	1026.2206	1078.2995	1117.3114	1156.6197	1222.1706	1291.4389	1372.6482	1420.8326	1437.2315	1443.6458	1458.8613	1495.639	1521.4729	1783.9989	1806.9469	2211.103	2930.917	3009.6516	3030.845	3060.9473	3099.3397	3162.4278	3491.2206
CN(CC(=O)C#C)C=O	CN(CC(=O)C#C)C=O	
InChI=1S/C6H7NO2/c1-3-6(9)4-7(2)5-8/h1,5H,4H2,2H3	InChI=1S/C6H7NO2/c1-3-6(9)4-7(2)5-8/h1,5H,4H2,2H3
