19
gdb 109714	2.25512	1.39012	1.08507	2.5503	71.97	-0.2109	0.0507	0.2616	1195.0645	0.156941	-460.096783	-460.087292	-460.086348	-460.131498	33.962	
C	-0.2863395665	 1.1091298514	-0.0210321146	-0.234888
O	 0.6090294846	 0.0184629219	 0.1060469362	-0.248152
C	 0.9473001281	-0.5773979621	-1.1090418224	-0.056824
C	 1.4899092544	-1.9845735846	-0.9763002703	-0.009382
O	 1.536637989	-2.561633072	 0.2942623408	-0.429642
C	 0.1424016025	-1.7512815642	-1.6052054521	 0.379973
C	-1.1825681287	-2.3064403214	-1.1122922653	-0.350263
C	-1.4378373919	-2.5577561454	-2.6171585955	-0.075751
O	-0.1574111674	-1.9800198359	-2.9805701315	-0.309403
H	 0.1624703286	 1.9218673307	-0.6097314549	 0.117112
H	-1.2270247145	 0.8101592829	-0.5015071336	 0.117505
H	-0.4950116287	 1.4727154848	 0.9875712968	 0.131924
H	 1.403116403	 0.0830980228	-1.8489538383	 0.098444
H	 2.3214282009	-2.2665210412	-1.6182236289	 0.108644
H	 1.3475820108	-1.854695805	 0.924519398	 0.300825
H	-1.0891403766	-3.1946024923	-0.4857114859	 0.13001
H	-1.8561226028	-1.5936152053	-0.6340357728	 0.11183
H	-1.5047680594	-3.6090586919	-2.9171940669	 0.111616
H	-2.2695539153	-2.0002664432	-3.0615388487	 0.106422
74.8312	106.3845	130.9397	137.7692	179.6073	207.7909	255.0833	311.9524	378.1705	449.812	492.8415	617.9919	655.6996	794.2968	837.5847	877.5121	881.6695	958.0845	977.1563	1009.9029	1031.6796	1088.5683	1111.109	1144.7301	1156.4209	1163.3839	1181.3779	1184.128	1205.598	1225.9905	1244.0581	1306.1277	1323.5059	1357.6511	1382.8196	1455.4569	1482.2545	1485.235	1492.9236	1508.3288	1529.5739	2996.9068	3031.0046	3053.0163	3075.4543	3082.068	3087.8266	3123.8165	3135.1871	3136.1769	3771.5904
COC1C(O)C11CCO1	CO[C@H]1[C@@H](O)[C@]21CCO2	
InChI=1S/C6H10O3/c1-8-5-4(7)6(5)2-3-9-6/h4-5,7H,2-3H2,1H3	InChI=1S/C6H10O3/c1-8-5-4(7)6(5)2-3-9-6/h4-5,7H,2-3H2,1H3/t4-,5+,6+/m1/s1
