22
gdb 119273	2.45287	1.01931	0.85676	1.6856	79.38	-0.2331	0.0816	0.3147	1475.7028	0.192526	-441.43167	-441.421061	-441.420117	-441.468144	37.177	
C	 1.1563997321	 1.51894974	-0.2571778939	-0.226659
O	 1.2189746346	 0.1146827703	-0.3446784531	-0.243362
C	 0.0180714026	-0.468070062	-0.8045197038	-0.134462
C	 0.1600360018	-1.9797828077	-0.8044665092	 0.273872
C	-1.1127232704	-2.7185444459	-1.1730086791	-0.138135
O	-2.2328222358	-2.3578525187	-0.3864734104	-0.236567
C	-2.2543692254	-2.9573074457	 0.8957456439	-0.232936
C	 1.4696123222	-2.5830380921	-1.1509764018	-0.280315
N	 0.9841507653	-2.6046573666	 0.2453661987	-0.350808
H	 0.9704739972	 1.9789178583	-1.2398722493	 0.109337
H	 0.3633185021	 1.8480578771	 0.4316723186	 0.110172
H	 2.1212968733	 1.8663188967	 0.1195900353	 0.129572
H	-0.8249582654	-0.1808690741	-0.157179958	 0.108831
H	-0.2196870399	-0.1147493094	-1.822884371	 0.093011
H	-1.388285645	-2.476055346	-2.2069988457	 0.101578
H	-0.9231706135	-3.8006006397	-1.1119498452	 0.095308
H	-2.2355041671	-4.055288316	 0.8217760004	 0.10597
H	-1.4076446013	-2.6461492209	 1.5187168793	 0.125445
H	-3.1889852328	-2.6500735095	 1.3722607773	 0.118692
H	 1.5096145619	-3.553535293	-1.639150578	 0.109319
H	 2.2816340018	-1.9059332386	-1.3945878431	 0.123719
H	 1.4599327519	-1.8585369565	 0.7500924583	 0.238418
54.4626	83.9962	92.2548	113.1011	163.6264	184.3363	230.7508	252.9059	317.1405	335.0284	380.4413	414.947	466.9667	586.4719	746.302	851.2071	899.6104	939.5485	952.1828	991.0441	1006.4803	1026.6531	1070.8269	1110.0123	1135.4992	1146.1397	1162.6954	1183.9692	1188.7471	1219.0261	1226.233	1261.5342	1292.2051	1306.4701	1334.0811	1378.4992	1421.0916	1427.7143	1472.8793	1480.329	1484.545	1485.1384	1487.0818	1500.7382	1505.2633	1511.4991	1529.4532	2955.3906	2978.4891	2989.2753	2995.7555	3002.9858	3024.587	3055.8168	3061.4219	3111.5808	3113.5422	3117.1521	3205.4237	3486.6675
COCC1(COC)CN1	COCC1(COC)CN1	
InChI=1S/C6H13NO2/c1-8-4-6(3-7-6)5-9-2/h7H,3-5H2,1-2H3	InChI=1S/C6H13NO2/c1-8-4-6(3-7-6)5-9-2/h7H,3-5H2,1-2H3
