17
gdb 15699	3.56832	1.74636	1.23468	5.0135	64.55	-0.2514	0.0223	0.2737	960.4087	0.144708	-401.048926	-401.041447	-401.040503	-401.080821	28.037	
O	 0.0478837288	 1.4276070675	-0.0549270854	-0.427759
C	 0.0598635673	 0.0214943019	-0.1021785725	-0.064922
C	-1.3555531062	-0.5614763575	 0.0158549096	-0.127405
C	-1.4718270218	-2.0945487647	-0.0208918952	-0.240463
C	-2.6746544031	-2.4092374478	 0.8986673119	-0.170848
N	-2.6811855524	-1.2701052724	 1.8040983595	-0.30637
C	-1.9888914999	-0.1870898957	 1.359804504	 0.436418
O	-1.884299052	 0.8842594332	 1.9357944521	-0.409054
H	-0.4767665667	 1.6587277109	 0.7286207286	 0.297397
H	 0.5052806569	-0.2700662964	-1.0603759508	 0.101789
H	 0.6900728075	-0.4136757609	 0.6939878296	 0.081927
H	-1.9744139633	-0.0998009141	-0.7648497169	 0.109904
H	-1.6067557678	-2.4967800568	-1.0264364022	 0.115338
H	-0.5646107376	-2.5422924283	 0.4000198054	 0.116719
H	-3.6119300775	-2.4736185252	 0.3287305873	 0.113178
H	-2.5508857455	-3.348882869	 1.4453494958	 0.119045
H	-3.2536174267	-1.2129443049	 2.6315930192	 0.255108
93.1969	165.223	181.837	221.0707	325.9723	397.3848	480.2275	534.6484	605.9984	623.6325	695.9215	714.7367	784.0375	886.4853	943.1089	949.7074	1030.3121	1059.6785	1089.9199	1105.9923	1130.3112	1204.8183	1216.5323	1226.8151	1271.6919	1288.2145	1327.2584	1339.3689	1377.2609	1388.1319	1450.2148	1479.6291	1493.689	1513.8538	1535.275	1793.1495	2944.453	3006.7296	3029.4092	3048.5507	3055.337	3075.1134	3116.8894	3640.3888	3677.0929
OCC1CCNC1=O	OC[C@H]1CCNC1=O	
InChI=1S/C5H9NO2/c7-3-4-1-2-6-5(4)8/h4,7H,1-3H2,(H,6,8)	InChI=1S/C5H9NO2/c7-3-4-1-2-6-5(4)8/h4,7H,1-3H2,(H,6,8)/t4-/m1/s1
