17
gdb 18911	3.95585	2.36651	2.11206	1.4774	70.17	-0.2199	0.0819	0.3018	733.5712	0.144009	-326.675889	-326.669783	-326.668839	-326.705637	25.349	
C	-0.0401932384	 1.5100783918	 0.027628478	-0.515783
C	-0.0128182688	 0.0169450447	-0.0402512134	 0.349943
C	 0.6256608625	-0.8529261425	-1.1703631877	-0.138573
C	 1.0003385793	-2.1327846822	-0.4604174028	-0.085513
C	 1.0647243509	-1.8507327322	 1.0283859437	-0.17531
N	 0.0421307988	-0.8073092448	 1.1831106367	-0.160352
C	-1.0360990832	-1.0410061349	 0.1984863736	-0.123124
C	-0.4227829382	-1.9199178838	-0.9256702635	-0.085014
H	 0.9723757652	 1.9181134641	 0.1333461544	 0.120174
H	-0.4797327363	 1.937876133	-0.8799916828	 0.119178
H	-0.6293999651	 1.8402573503	 0.8871833796	 0.132954
H	 1.0524656145	-0.5011359855	-2.098983439	 0.087092
H	 1.629023421	-2.8651337301	-0.9522945434	 0.088577
H	 0.8056164792	-2.7190863421	 1.6430460378	 0.104826
H	 2.0376170283	-1.4651331537	 1.3507312763	 0.104364
H	-2.0707263856	-0.9965396314	 0.5154363688	 0.088041
H	-0.9509583242	-2.5455768506	-1.6302536662	 0.088518
191.9442	229.5647	290.8447	411.2292	566.5413	587.8347	721.1162	739.4427	761.4079	781.9858	811.1724	822.1377	860.734	899.6133	940.7699	944.0503	985.5821	996.4899	1011.6325	1026.2387	1054.9691	1083.1916	1105.0939	1109.3593	1164.7768	1212.8589	1220.8468	1253.3524	1258.0168	1302.1635	1356.7097	1404.7312	1447.7493	1484.5084	1492.1279	1498.4846	3026.0117	3045.9539	3084.9379	3091.1434	3117.9	3186.8742	3193.2576	3211.9538	3225.3451
CC12C3C4CN1C2C34	C[C@@]12[C@H]3[C@H]4CN1[C@@H]2[C@@H]34	
InChI=1S/C7H9N/c1-7-5-3-2-8(7)6(7)4(3)5/h3-6H,2H2,1H3	InChI=1S/C7H9N/c1-7-5-3-2-8(7)6(7)4(3)5/h3-6H,2H2,1H3/t3-,4+,5-,6+,7-,8?/m0/s1
