20
gdb 6484	3.35952	1.43228	1.20253	2.5409	75.19	-0.2356	-0.0104	0.2252	1086.7817	0.174657	-349.019458	-349.010177	-349.009233	-349.054201	33.842	
C	 1.9080287406	-0.3562311054	-3.3200159729	-0.478948
C	 1.8085393632	-0.6774681626	-1.840039176	 0.390497
O	 2.7929462343	-0.8071183859	-1.1477403745	-0.303263
C	 0.4048736981	-0.8578495134	-1.2610783246	-0.359114
C	-0.033170203	-2.3248462873	-1.2651654581	 0.373373
C	 0.814708662	-3.252754908	-0.4143955433	-0.453639
C	-1.5178944525	-2.5954329653	-1.3231545672	-0.313342
C	-0.6530285809	-2.8805329098	-2.528587274	-0.296073
H	 1.3656296609	-1.1030896564	-3.909882721	 0.143349
H	 1.4372102005	 0.6125248986	-3.5252647523	 0.137551
H	 2.9541123559	-0.3268310942	-3.6272738276	 0.139813
H	 0.4258888977	-0.4895514549	-0.2295179146	 0.119711
H	-0.3176162659	-0.2604335182	-1.8275983688	 0.094448
H	 0.7971408508	-2.9422966039	 0.636597889	 0.118861
H	 0.4384353175	-4.2789372405	-0.4679365668	 0.107724
H	 1.8604268158	-3.254161215	-0.7346076485	 0.135893
H	-1.9003702815	-3.4380533142	-0.7567415816	 0.113063
H	-2.1962703816	-1.7500952732	-1.3721208237	 0.109438
H	-0.7608642113	-2.2279289836	-3.388842313	 0.106898
H	-0.4516169006	-3.9153481066	-2.7842751106	 0.113762
22.9332	93.2237	155.3298	159.5439	214.9223	301.5659	311.2079	351.3094	384.6731	424.5541	518.7663	583.3933	717.7612	783.3166	797.1055	865.9396	893.8293	920.5983	945.0302	954.0319	995.9664	1047.9255	1050.0933	1080.1442	1081.5741	1122.91	1166.8171	1189.2559	1240.6976	1304.6622	1309.0697	1365.4962	1379.1398	1425.2893	1461.0352	1466.0987	1472.4833	1477.0883	1491.8781	1497.7767	1509.3515	1807.3108	3030.9678	3033.3236	3036.9372	3087.2487	3095.732	3096.9578	3113.5304	3126.0824	3130.6361	3151.1775	3203.6881	3217.9793
CC(=O)CC1(C)CC1	CC(=O)CC1(C)CC1	
InChI=1S/C7H12O/c1-6(8)5-7(2)3-4-7/h3-5H2,1-2H3	InChI=1S/C7H12O/c1-6(8)5-7(2)3-4-7/h3-5H2,1-2H3
