19
gdb 76982	2.88699	1.40638	1.1955	3.1699	75.86	-0.2465	-0.0373	0.2091	1102.685	0.158008	-423.01048	-423.001711	-423.000767	-423.043613	33.312	
C	-0.1740983658	 1.4665655105	-0.0697975158	-0.507572
C	 0.0380900113	-0.0202381636	-0.0555159718	 0.345728
C	-0.8827485498	-0.9748935018	 0.6493249807	-0.345894
C	 0.5645375438	-0.9362465918	 1.0607432739	-0.120943
C	 1.4290620782	-1.7369245388	 0.0523122095	-0.162095
C	 1.0735822468	-3.1894616727	-0.0327044169	 0.160806
O	 0.1790405151	-3.6340567507	-0.7228181839	-0.275825
C	 0.9135370003	-0.7666359651	-1.0798560185	 0.067786
O	 0.3517153247	-1.2946299575	-2.2443410209	-0.437432
H	 0.7709187494	 2.0047569775	-0.2069491573	 0.116374
H	-0.8421519341	 1.7555263423	-0.8894784465	 0.133712
H	-0.6269471204	 1.8154487596	 0.8641095526	 0.117056
H	-1.5655267631	-0.5071874225	 1.3520049957	 0.114582
H	-1.2960040969	-1.846040896	 0.1495809937	 0.128496
H	 0.8836587282	-0.6805434351	 2.0635736363	 0.094514
H	 2.4992753682	-1.6317922353	 0.2510956957	 0.08837
H	 1.6578905895	-3.8732271769	 0.6213718549	 0.09559
H	 1.7374678413	-0.1158145671	-1.3930043274	 0.089276
H	-0.0860023668	-2.1226594651	-1.999792194	 0.297474
104.4727	134.5541	181.0365	199.5939	240.6283	256.3456	294.1777	405.3007	451.9809	522.418	545.1582	599.5566	708.3378	765.5092	806.1439	829.1957	846.5253	940.3077	955.1466	985.4736	999.4465	1028.2788	1063.1597	1089.0928	1099.1457	1113.6446	1151.8973	1182.629	1241.8095	1253.3097	1276.3357	1318.2504	1350.2405	1399.1944	1420.7598	1426.5579	1460.8048	1484.9702	1497.539	1501.1479	1782.4203	2890.6175	3022.4628	3045.4766	3072.9689	3083.7759	3094.8932	3122.6398	3186.9722	3204.3566	3721.0001
CC12CC1C(C=O)C2O	C[C@]12C[C@H]1[C@@H](C=O)[C@H]2O	
InChI=1S/C7H10O2/c1-7-2-5(7)4(3-8)6(7)9/h3-6,9H,2H2,1H3	InChI=1S/C7H10O2/c1-7-2-5(7)4(3-8)6(7)9/h3-6,9H,2H2,1H3/t4-,5+,6-,7+/m1/s1
