17
gdb 35698	2.39445	1.50242	1.09235	4.8432	72.3	-0.2599	0.0032	0.2631	1112.8685	0.136855	-417.963784	-417.955648	-417.954704	-417.997264	29.554	
N	-0.4412128717	-0.8596692142	-0.8014381662	-0.327675
C	-0.2647224148	 0.1794471704	-0.327083201	 0.309999
C	-0.0210811568	 1.5027506377	 0.2477545545	-0.197237
N	 0.2501151309	 1.5244898133	 1.6994374804	-0.306254
C	 1.3145535214	 2.5379464001	 1.5113921318	-0.237002
C	 1.3685761569	 2.1716563779	 0.0127094739	 0.266946
C	 2.5542947666	 1.3889461876	-0.5802545597	-0.125889
O	 2.7615758491	 2.3957949374	-1.5942030009	-0.269469
C	 1.6473750027	 3.1709830767	-1.116779218	-0.137755
H	-0.8296579635	 2.1739655561	-0.079796172	 0.111127
H	-0.5347306801	 1.791466724	 2.2828607881	 0.232757
H	 0.9924589889	 3.5776588003	 1.6685512453	 0.101487
H	 2.218761448	 2.3538734138	 2.1002594122	 0.121379
H	 3.4214416949	 1.285274927	 0.0834619757	 0.108785
H	 2.306877833	 0.4120281042	-1.0116199051	 0.133297
H	 0.8521508914	 3.2644194919	-1.8688310473	 0.108741
H	 1.9473108832	 4.1753331258	-0.7889588518	 0.106762
67.1002	88.9303	139.8735	195.0767	274.1905	357.7657	370.3463	465.606	546.5856	571.3843	684.1814	832.464	857.234	890.3509	911.5342	982.3819	985.3717	996.6811	1025.9609	1042.5486	1060.4365	1136.6678	1147.9015	1159.5068	1162.2062	1207.2128	1234.5607	1259.7275	1312.0174	1330.7779	1360.3753	1390.0105	1390.6468	1505.3992	1517.3399	1531.6417	2355.7491	2984.6188	2995.7235	2999.9703	3021.8109	3042.3579	3069.2186	3072.4125	3538.7535
N#CC1NCC11COC1	N#C[C@H]1NCC21COC2	
InChI=1S/C6H8N2O/c7-1-5-6(2-8-5)3-9-4-6/h5,8H,2-4H2	InChI=1S/C6H8N2O/c7-1-5-6(2-8-5)3-9-4-6/h5,8H,2-4H2/t5-/m1/s1
