20
gdb 89027	4.36879	0.69363	0.64228	3.6204	77.78	-0.2373	0.0619	0.2993	1764.4992	0.171471	-436.483274	-436.473224	-436.47228	-436.519769	36.251	
C	 0.209754336	 1.4242228001	-0.4476960243	-0.394297
C	-0.0205673536	 0.0412093365	 0.1142669888	 0.002612
N	 1.143794249	-0.8593036803	 0.2090916693	-0.352148
C	 0.4507854876	-0.432997042	 1.4441034716	-0.02171
C	 1.2702321949	 0.3926632023	 2.4069904848	-0.154517
N	 2.2848188951	-0.4384481799	 3.0341549168	-0.340233
C	 2.6641756473	-0.2316376594	 4.3397571611	 0.453597
N	 3.7887125671	-0.9606272931	 4.7201662408	-0.565596
O	 2.0897091007	 0.5271800402	 5.0994299664	-0.394517
H	 1.1857416214	 1.818047849	-0.1581665841	 0.130132
H	 0.1755200823	 1.3979329666	-1.5421487379	 0.12047
H	-0.5636902084	 2.1193901946	-0.1037301797	 0.120075
H	-0.9528015223	-0.4143024278	-0.2191813646	 0.083875
H	 0.8807895348	-1.8095876652	-0.036248212	 0.229892
H	-0.1716485553	-1.1797305663	 1.9353000053	 0.086499
H	 1.7277130248	 1.2435725127	 1.8884511099	 0.104966
H	 0.6483561741	 0.7934483444	 3.2105422338	 0.144121
H	 2.9438383616	-0.8665451384	 2.4021389099	 0.244659
H	 3.9349102254	-1.8549050025	 4.2754770794	 0.244057
H	 3.9028424476	-0.9833138917	 5.7223913049	 0.258061
32.8417	45.1985	90.4946	155.1225	189.8779	244.4538	265.9086	377.3819	387.479	446.3619	460.8273	497.7678	553.2087	586.6682	664.5129	768.099	778.2351	830.7815	888.7304	925.5422	975.8298	996.0544	1035.8095	1055.7131	1093.487	1100.4953	1155.6169	1163.6305	1200.8736	1253.6629	1279.0421	1284.1665	1321.2457	1367.4655	1408.595	1432.7735	1470.8888	1492.1482	1495.3852	1505.2313	1539.5814	1627.1406	1800.018	3032.3143	3039.0351	3096.5229	3101.1117	3112.5141	3122.3198	3136.4311	3506.5313	3570.0683	3621.9224	3684.101
CC1NC1CNC(N)=O	C[C@H]1N[C@H]1CNC(=O)N	
InChI=1S/C5H11N3O/c1-3-4(8-3)2-7-5(6)9/h3-4,8H,2H2,1H3,(H3,6,7,9)	InChI=1S/C5H11N3O/c1-3-4(8-3)2-7-5(6)9/h3-4,8H,2H2,1H3,(H3,6,7,9)/t3-,4+/m1/s1
