18
gdb 107187	2.99845	1.41241	1.17166	1.0092	70.65	-0.236	0.057	0.293	1085.319	0.146774	-438.99308	-438.984888	-438.983944	-439.025707	31.515	
C	-0.213181425	 1.4418066794	-0.1495858532	-0.321499
N	 0.1276629467	 0.031550134	-0.004001696	-0.07672
C	 1.4795646541	-0.4683576182	-0.1426549482	-0.079338
C	 2.5213077658	 0.4421284116	 0.4947737858	-0.07426
O	 3.09021534	-0.2595492167	 1.6232324171	-0.300469
C	 1.8105601657	 0.3938953556	 1.7873261501	 0.379773
C	 1.7447532262	 1.3977979625	 2.90282704	-0.181196
O	 2.9288386445	 2.1606716945	 2.9768148617	-0.416351
C	 0.7423319995	-0.5184228683	 1.187699103	-0.155434
H	 0.5294893264	 2.1430741392	 0.2523684433	 0.119413
H	-0.3460727787	 1.6557663774	-1.2145414781	 0.128284
H	-1.1690253147	 1.6218789305	 0.3519891777	 0.127348
H	 1.6732878158	-1.2818161211	-0.8319920247	 0.110451
H	 3.1179059312	 1.2373526002	 0.0661026538	 0.119828
H	 0.9132935385	 2.0912888753	 2.7358768131	 0.120537
H	 1.5392248986	 0.8673326422	 3.8485821896	 0.09959
H	 3.6520554209	 1.5288092603	 2.8706100136	 0.293042
H	 0.2838511544	-1.3740735084	 1.6699895914	 0.107001
96.6739	171.5561	180.6661	213.2529	246.3136	338.9949	393.0269	472.7195	481.4682	525.369	646.1733	681.6	751.218	778.1698	856.4745	892.6649	903.119	943.3419	970.9466	1006.6236	1044.1057	1053.6788	1079.5255	1087.4748	1151.5154	1158.6435	1180.022	1215.2239	1243.2137	1256.0915	1282.3192	1345.6959	1371.3086	1422.9263	1449.5608	1457.3695	1491.389	1501.5967	1511.3653	2960.1564	3014.0313	3066.8637	3082.5339	3107.921	3178.2586	3188.3677	3205.3868	3769.5339
CN1C2C3OC3(CO)C12	CN1[C@H]2[C@@H]3O[C@]3(CO)[C@@H]12	
InChI=1S/C6H9NO2/c1-7-3-4(7)6(2-8)5(3)9-6/h3-5,8H,2H2,1H3	InChI=1S/C6H9NO2/c1-7-3-4(7)6(2-8)5(3)9-6/h3-5,8H,2H2,1H3/t3-,4+,5+,6-,7?/m1/s1
