16
gdb 11642	3.27558	1.86521	1.46578	2.4155	69.91	-0.2576	0.0152	0.2728	887.9128	0.131761	-342.720576	-342.713444	-342.7125	-342.751908	27.04	
C	-0.0769522508	 1.5629137247	-0.078998815	-0.447006
C	 0.1077967068	 0.0624299596	-0.0108651598	 0.054158
N	 1.3324140359	-0.5801689601	-0.7123411376	-0.161847
C	 2.1420915983	-0.1408914023	 0.5203068497	-0.211831
C	 0.8354929242	-0.6699316381	 1.16040243	 0.189014
C	 0.9913848964	-1.8181631189	 0.1331722942	-0.199073
C	 0.4626669641	-0.7384432598	 2.559028023	 0.137588
N	 0.1563639747	-0.7850163253	 3.6731577761	-0.339409
H	-0.2621528375	 1.8576365844	-1.1168590701	 0.142017
H	-0.9530866765	 1.8488946545	 0.5117418812	 0.138586
H	 0.7749123794	 2.1378629352	 0.2884045822	 0.128892
H	-0.814075204	-0.4348019666	-0.3296078191	 0.090242
H	 3.0463684787	-0.7319636285	 0.6783399591	 0.120061
H	 2.356871216	 0.9249789082	 0.5714602356	 0.120844
H	 0.0866983624	-2.339464065	-0.1869230876	 0.118926
H	 1.8319318821	-2.5015330822	 0.267197408	 0.118838
123.9263	148.1564	180.0129	293.1737	359.0402	503.1893	522.5458	531.1561	585.5552	622.2823	752.5872	806.2483	825.4003	886.7213	967.3636	995.215	1013.8013	1047.7426	1094.8924	1111.3384	1148.9478	1157.9582	1178.1987	1199.4239	1201.9166	1247.6436	1289.6929	1408.4365	1430.8584	1488.2754	1491.6241	1520.7739	1554.5512	2346.5786	3046.3053	3055.2941	3068.332	3085.3415	3109.869	3131.9216	3141.8595	3162.0894
CC1N2CC1(C2)C#N	C[C@H]1N2C[C@@]1(C2)C#N	
InChI=1S/C6H8N2/c1-5-6(2-7)3-8(5)4-6/h5H,3-4H2,1H3	InChI=1S/C6H8N2/c1-5-6(2-7)3-8(5)4-6/h5H,3-4H2,1H3/t5-/m1/s1
