18
gdb 93411	2.8044	1.37893	0.96173	5.62	78.89	-0.2165	-0.0252	0.1913	1201.5525	0.147927	-439.120385	-439.111769	-439.110825	-439.153482	33.078	
C	-0.0098497293	 1.5424526797	-0.0703584833	-0.426244
C	 0.029268344	 0.0176432863	 0.028428082	 0.06292
O	 0.642098113	-0.4389146623	-1.1564075667	-0.251295
C	 0.7873708173	-1.8466005457	-1.223038394	-0.195481
C	 1.5662368593	-2.4258384023	-0.0406953051	 0.355648
O	 2.1432362723	-3.4951242208	-0.1453926548	-0.357466
C	 1.511433936	-1.6383846726	 1.1749051191	-0.308983
C	 0.7584951491	-0.5118962168	 1.2590206795	 0.350872
N	 0.5238944155	 0.1448504418	 2.4353808098	-0.561083
H	 0.9993818015	 1.9616648452	-0.0269571746	 0.135688
H	-0.4527024464	 1.8160153923	-1.0304107466	 0.143106
H	-0.6251523316	 1.9883811944	 0.7167518137	 0.115984
H	-1.0100495943	-0.3600436239	 0.0823776399	 0.091216
H	-0.1989464531	-2.3418943709	-1.2698787787	 0.105792
H	 1.3220791392	-2.0712614081	-2.1479423486	 0.13353
H	 2.0427143448	-2.024615357	 2.0404395648	 0.083094
H	 1.0590230842	-0.1421282716	 3.2406266063	 0.262773
H	 0.2993637787	 1.1253199922	 2.4072462475	 0.259929
68.5877	161.9104	213.3033	230.1487	321.2176	339.8414	370.8045	390.2124	445.3831	469.9559	511.604	515.5488	580.3154	644.1435	682.3149	796.342	858.3806	882.0529	899.143	1013.0739	1044.5451	1080.4264	1108.7018	1145.3717	1163.2707	1254.2187	1270.58	1311.8827	1337.7542	1351.0752	1375.042	1400.1485	1417.3327	1469.1951	1492.0752	1501.6283	1633.1852	1674.5631	1761.4929	2918.6744	2954.1308	3046.812	3116.5222	3119.7933	3134.3784	3166.0065	3587.8874	3701.4282
CC1OCC(=O)C=C1N	C[C@H]1OCC(=O)C=C1N	
InChI=1S/C6H9NO2/c1-4-6(7)2-5(8)3-9-4/h2,4H,3,7H2,1H3	InChI=1S/C6H9NO2/c1-4-6(7)2-5(8)3-9-4/h2,4H,3,7H2,1H3/t4-/m1/s1
