16
gdb 48656	2.43835	1.42099	1.11397	2.9282	79.12	-0.2476	-0.0403	0.2074	1118.9994	0.122627	-400.684877	-400.676543	-400.675599	-400.717897	31.291	
O	-0.5761026278	 0.7220630507	 0.6126937747	-0.263502
C	 0.2330857117	 0.9281964236	-0.2601764001	 0.097869
C	 1.3798496714	 1.8426470928	-0.103024581	 0.160711
C	 1.7277059328	 2.6733641043	 1.1329864361	-0.302284
C	 2.1342351008	 3.8636910945	 0.2091856977	-0.286295
C	 1.7755031082	 3.0213260498	-1.0345053093	 0.065387
N	 2.4835786684	 1.7550764793	-1.0502828898	-0.375984
C	 1.1639693677	 3.5167924801	-2.2213639161	 0.2835
C	 0.6461411883	 3.9868254468	-3.1999475504	-0.400778
H	 0.1671531266	 0.4550582555	-1.2619979615	 0.092537
H	 0.8487077689	 2.8886718445	 1.7412945259	 0.14032
H	 2.5068701992	 2.2476631233	 1.7720745622	 0.108954
H	 1.4822535473	 4.7299247291	 0.3278949622	 0.13073
H	 3.1765500666	 4.1954650394	 0.2425062501	 0.10977
H	 3.3915897167	 1.8043638465	-0.5900696361	 0.239705
H	 0.1907374233	 4.3874789099	-4.0717879449	 0.199358
82.1997	146.525	153.6085	216.7282	232.4032	327.9261	437.3875	492.6764	511.2266	548.5603	601.221	621.9754	664.7986	730.2927	764.4442	783.4348	799.4994	949.8314	987.6991	1043.9519	1068.0693	1074.7339	1092.2076	1119.3862	1198.584	1211.621	1241.3896	1255.3331	1350.0319	1386.8203	1443.7269	1478.0311	1498.0285	1802.4411	2237.2399	2922.3194	3056.7574	3065.4404	3125.5586	3141.0843	3460.5707	3501.2638
O=CC12CCC1(N2)C#C	O=C[C@]12CC[C@]1(N2)C#C	
InChI=1S/C7H7NO/c1-2-6-3-4-7(6,5-9)8-6/h1,5,8H,3-4H2	InChI=1S/C7H7NO/c1-2-6-3-4-7(6,5-9)8-6/h1,5,8H,3-4H2/t6-,7-/m1/s1
