14
gdb 5298	4.95035	1.68334	1.2661	1.9881	64.33	-0.2439	-0.0463	0.1976	901.8621	0.108485	-378.786426	-378.779468	-378.778524	-378.817872	25.229	
C	-0.0179031069	 1.5126810951	 0.0091139805	-0.50425
C	 0.075468708	 0.0036050187	 0.0027007933	 0.423803
O	 1.1141375654	-0.6069065186	-0.0087396193	-0.307042
N	-1.1567609091	-0.6900904901	 0.0106905915	-0.082966
C	-1.2856473093	-2.0756540301	 0.0064222264	-0.094245
C	-2.6234481872	-2.3178505527	 0.0172728387	-0.092962
N	-3.3429790393	-1.1299015875	 0.0280258558	-0.270001
C	-2.4468685852	-0.1857744125	 0.0236918626	 0.029475
H	 0.9945435683	 1.9139501176	 0.0017396474	 0.160182
H	-0.5608504078	 1.8751123846	-0.8690627768	 0.157428
H	-0.5453599565	 1.8685311247	 0.8993399392	 0.157422
H	-0.4130103046	-2.7041138845	-0.0036054462	 0.160698
H	-3.1264488915	-3.2724408144	 0.0180831344	 0.122448
H	-2.6481535943	 0.8738727499	 0.0294385325	 0.140011
99.5366	156.3432	162.1757	227.9581	393.0363	516.2729	570.0895	644.0391	646.6111	667.5286	775.4644	828.329	885.73	907.8978	962.0927	1017.5715	1058.2613	1069.5594	1128.6721	1145.9737	1273.7237	1311.7198	1326.1092	1390.3336	1418.0756	1472.6776	1481.6984	1514.5884	1572.3746	1822.7291	3052.2488	3117.8968	3169.493	3258.0933	3266.2866	3308.1664
CC(=O)N1C=CN=C1	CC(=O)n1ccnc1	
InChI=1S/C5H6N2O/c1-5(8)7-3-2-6-4-7/h2-4H,1H3	InChI=1S/C5H6N2O/c1-5(8)7-3-2-6-4-7/h2-4H,1H3
