20
gdb 13979	5.43885	1.0983	1.02932	1.7341	75.47	-0.2435	0.0856	0.3292	1229.4369	0.176296	-348.978221	-348.969802	-348.968857	-349.011546	31.265	
C	-0.2039619016	 1.5747973595	-0.0765873455	-0.382979
C	-0.0945152348	 0.0486552298	-0.0952106108	-0.160719
C	 0.903403805	-0.464968047	-1.1457181295	-0.309244
C	 1.0014094784	-1.9580637744	-1.1689932941	 0.445406
C	 1.645037143	-2.9029083506	-0.131262222	-0.287319
C	 1.9015194268	-3.9294408139	-1.2900620335	-0.236556
C	 1.2345533665	-2.9354906774	-2.2493348259	-0.05066
O	-0.0890750727	-2.6956120435	-1.7504535792	-0.294944
H	 0.7618893724	 2.0403135102	 0.1504056447	 0.11213
H	-0.5352329696	 1.9595747558	-1.0475858215	 0.115815
H	-0.9214098182	 1.9131225186	 0.6773291876	 0.11301
H	 0.2065746767	-0.3113684808	 0.896890982	 0.098237
H	-1.0759045247	-0.3950155629	-0.2987762141	 0.116132
H	 0.6018856176	-0.119213422	-2.1418546718	 0.105915
H	 1.8980032249	-0.0433430967	-0.9475569278	 0.096669
H	 2.5729000861	-2.5111085773	 0.2934961223	 0.102404
H	 0.9819660511	-3.2251679157	 0.6748771336	 0.107265
H	 2.9653111511	-4.0784368855	-1.4903975455	 0.103186
H	 1.4051833018	-4.8994904311	-1.2109081211	 0.109915
H	 1.3905410404	-2.7966454952	-3.3139144977	 0.096339
67.1347	85.504	123.3999	243.1263	250.9308	308.8708	331.4748	416.1449	492.7773	705.0156	726.1489	747.4347	773.2155	855.9176	882.6339	896.5629	921.3119	937.3006	957.7238	1000.6011	1041.1192	1046.7415	1085.2189	1118.7884	1158.7953	1200.0647	1212.4213	1217.5461	1254.4552	1260.7798	1294.5111	1310.7713	1336.1983	1386.689	1412.1814	1451.5367	1463.5151	1472.9328	1492.0395	1494.6763	1499.9541	1509.2889	3015.9566	3026.1581	3029.3562	3053.5484	3060.6882	3068.6391	3071.947	3097.2815	3102.776	3111.9313	3128.5114	3174.9246
CCCC12CCC1O2	CCC[C@]12CC[C@H]1O2	
InChI=1S/C7H12O/c1-2-4-7-5-3-6(7)8-7/h6H,2-5H2,1H3	InChI=1S/C7H12O/c1-2-4-7-5-3-6(7)8-7/h6H,2-5H2,1H3/t6-,7+/m1/s1
