19
gdb 119738	3.29117	1.11304	0.97608	2.1821	71.99	-0.2436	0.059	0.3025	1276.796	0.157951	-460.100002	-460.091201	-460.090257	-460.134269	31.717	
C	-0.3404750248	 1.3575472566	 0.6411366751	-0.222531
O	-0.2661596588	-0.0264582929	 0.8943683963	-0.23686
C	 0.9380385575	-0.6038451184	 0.4476814413	-0.162255
C	 0.90727451	-2.0800278001	 0.7464253698	 0.379975
C	-0.3420626166	-2.9314855829	 0.4616382998	-0.121386
O	-0.2045556183	-3.6113757007	 1.7395418142	-0.293611
C	 0.922575895	-2.8038905929	 2.1113044437	 0.016984
C	 2.2634561554	-3.3848909955	 1.6414851782	-0.102928
O	 2.131044445	-2.7322289209	 0.347924257	-0.340514
H	-0.2811348274	 1.577450089	-0.4362299603	 0.108543
H	-1.3024926152	 1.7073046291	 1.0224163537	 0.13183
H	 0.466575122	 1.9081858803	 1.1489602354	 0.107892
H	 1.073000637	-0.4611387745	-0.6393963576	 0.100567
H	 1.8103268655	-0.1456122297	 0.9421952142	 0.097078
H	-1.277342716	-2.3646618868	 0.4134365972	 0.118618
H	-0.2530719591	-3.6113288586	-0.3922745827	 0.107572
H	 0.831035896	-2.3601128933	 3.1038598722	 0.091817
H	 3.1478050044	-3.0185166739	 2.1780753932	 0.103876
H	 2.2948247183	-4.4763139338	 1.5631890093	 0.115334
67.6161	82.1892	109.7316	191.8047	229.5346	271.765	332.8755	384.6404	408.5854	447.514	680.7277	725.8594	842.671	847.9128	916.8425	943.6285	987.8721	990.7716	999.5265	1041.7934	1078.9715	1118.2753	1144.9128	1152.898	1164.2482	1178.0043	1183.0606	1194.3342	1232.376	1263.624	1280.7747	1313.159	1337.0107	1384.0735	1419.8433	1480.5823	1486.1249	1500.8279	1501.3138	1502.4793	1521.4317	2949.6807	2975.1155	2986.1739	3018.9681	3020.6296	3036.3577	3084.5759	3096.5807	3102.7796	3119.5882
COCC12COC1CO2	COC[C@]12CO[C@H]1CO2	
InChI=1S/C6H10O3/c1-7-3-6-4-8-5(6)2-9-6/h5H,2-4H2,1H3	InChI=1S/C6H10O3/c1-7-3-6-4-8-5(6)2-9-6/h5H,2-4H2,1H3/t5-,6-/m0/s1
