19
gdb 115894	2.54514	1.40578	1.07773	2.2142	70.75	-0.2506	0.0625	0.3131	1153.9177	0.159304	-460.142751	-460.134167	-460.133222	-460.175772	33.101	
O	-0.0161059202	 1.4816678975	-0.1588678597	-0.424536
C	 0.0530819371	 0.0756699433	-0.0282876616	-0.075367
C	-1.3321159146	-0.5456042413	 0.0798398163	 0.041036
O	-2.0445574017	-0.1847782584	-1.1064288543	-0.287906
C	-3.0893137087	-1.1381148842	-1.3196986382	-0.09662
C	-2.5593416894	-2.4435504781	-0.7604127918	-0.106097
C	-1.1409113055	-2.8127220319	-1.1457757387	-0.355637
C	-1.4138954841	-2.0678625223	 0.1377776697	 0.370108
O	-1.2564063592	-2.6823680508	 1.376752714	-0.470272
H	-0.6414817749	 1.6505714548	-0.8732843813	 0.293137
H	 0.5903475381	-0.3838104149	-0.873039965	 0.086362
H	 0.6209681984	-0.1309557064	 0.8860863725	 0.10021
H	-1.8381386129	-0.1456232522	 0.9739489245	 0.082103
H	-4.0077490538	-0.8409041768	-0.7900562899	 0.100798
H	-3.2974715429	-1.1530925051	-2.3943787006	 0.111081
H	-3.2490736822	-3.2263806643	-0.4699210192	 0.103634
H	-0.8762256207	-3.858752447	-1.039055222	 0.116707
H	-0.6698163052	-2.294916243	-1.9750541571	 0.122698
H	-0.3147625876	-2.8104046589	 1.5332267425	 0.288561
101.6175	141.9425	175.5274	236.5984	289.4592	298.2668	331.6899	425.5118	432.9851	476.6525	528.5281	569.8891	687.1155	747.4257	839.0771	859.6988	915.8182	932.5824	976.9876	1008.2384	1050.4894	1055.9227	1080.2378	1085.8791	1098.5028	1108.5798	1136.8856	1220.1464	1222.9309	1244.9797	1277.7753	1330.7637	1333.7156	1343.8397	1371.678	1403.1515	1409.6886	1443.2204	1480.3787	1499.2671	1516.3229	2971.8214	2985.175	2987.7376	3065.1367	3072.2351	3131.7415	3194.3066	3224.9534	3799.571	3803.8465
OCC1OCC2CC12O	OC[C@H]1OC[C@H]2C[C@@]12O	
InChI=1S/C6H10O3/c7-2-5-6(8)1-4(6)3-9-5/h4-5,7-8H,1-3H2	InChI=1S/C6H10O3/c7-2-5-6(8)1-4(6)3-9-5/h4-5,7-8H,1-3H2/t4-,5-,6+/m1/s1
