23
gdb 64121	2.61857	1.33183	1.23706	0.8538	81.37	-0.2444	0.0775	0.3219	1198.5859	0.202861	-425.457299	-425.447195	-425.446251	-425.491463	39.007	
C	 0.1842709279	 1.4728347843	 0.1856728255	-0.419276
C	-0.0498993668	-0.0265673016	-0.0364174479	 0.374008
C	-1.5374644772	-0.3611651325	-0.0993700219	-0.431556
C	 0.7491108601	-0.5538568783	-1.2422310658	-0.144597
O	 2.015474292	-0.8609569513	-0.689118314	-0.286192
C	 1.779976457	-1.3414000886	 0.6308791986	 0.445185
C	 1.6467428799	-2.8672394061	 0.6424789269	-0.411017
C	 2.9123181864	-0.8517174235	 1.5258926865	-0.416032
O	 0.5385754872	-0.7667818573	 1.0475564586	-0.33933
H	 1.2518021076	 1.7048177097	 0.1375516484	 0.125099
H	-0.3329408365	 2.067982205	-0.5746858492	 0.108098
H	-0.1904704963	 1.7687891402	 1.1694811418	 0.121046
H	-2.0110957399	 0.1366474096	-0.9521854321	 0.113864
H	-1.6852549579	-1.4399468228	-0.1978870255	 0.117866
H	-2.0438924403	-0.0279969769	 0.8110998782	 0.12518
H	 0.2695476612	-1.4443087219	-1.6766472725	 0.087441
H	 0.8907387349	 0.1888678443	-2.0312562016	 0.11031
H	 2.5898664799	-3.3358502855	 0.3477571584	 0.11837
H	 1.3779793649	-3.2127173168	 1.6443880422	 0.122467
H	 0.8641405402	-3.1883084012	-0.0497674468	 0.113601
H	 2.9590827825	 0.2388631498	 1.5031513662	 0.122052
H	 2.7441513933	-1.1773075101	 2.5556930488	 0.121809
H	 3.86902151	-1.2543394885	 1.1819415872	 0.121603
68.3427	155.5788	191.9766	209.4043	233.1092	259.9818	277.7889	304.5147	348.2047	356.9021	365.3825	443.7987	447.3244	512.2475	594.0887	648.9762	799.1756	813.3349	859.063	914.058	916.4525	925.1444	958.3886	982.9017	998.3964	1014.8863	1043.9093	1093.0416	1157.2808	1200.4515	1220.8998	1229.8357	1257.0196	1279.4316	1295.6772	1377.8121	1397.9054	1399.6331	1413.0207	1416.1811	1471.6947	1475.7902	1478.6169	1484.7092	1492.9463	1496.3621	1499.3051	1505.8463	1521.7867	2986.9055	3035.0786	3040.6768	3046.2815	3053.5349	3096.1517	3105.9683	3112.0919	3119.7899	3121.9614	3122.5789	3125.8056	3130.6469	3139.4866
CC1(C)COC(C)(C)O1	CC1(C)COC(C)(C)O1	
InChI=1S/C7H14O2/c1-6(2)5-8-7(3,4)9-6/h5H2,1-4H3	InChI=1S/C7H14O2/c1-6(2)5-8-7(3,4)9-6/h5H2,1-4H3
