16
gdb 25695	6.73245	0.71791	0.65188	1.5478	86.41	-0.1859	0.0101	0.196	1682.0129	0.12381	-400.757628	-400.748415	-400.747471	-400.793721	32.569	
C	-0.0030970641	 1.4686847682	 0.0052420757	-0.509253
C	 0.0063585418	 0.0141377537	 0.0083505919	 0.220446
C	 0.021163503	-1.1923572183	 0.0106151659	-0.140109
C	 0.0116637188	-2.6067903353	 0.0103680712	 0.175389
C	 1.082600644	-3.4342009501	 0.1759383921	-0.155207
O	 0.6830831829	-4.7429717266	 0.11516308	-0.17241
C	-0.6579848849	-4.7432025294	-0.0878066838	 0.407852
N	-1.2275670519	-5.9972478498	-0.251810647	-0.600462
C	-1.1372718128	-3.4722944908	-0.1603900832	-0.421189
H	 0.6567973462	 1.8716562426	-0.7717103318	 0.148019
H	-1.0100181656	 1.8576206558	-0.1828624288	 0.147956
H	 0.333064585	 1.8739658702	 0.9666738787	 0.147335
H	 2.1317536752	-3.2655755919	 0.3423563364	 0.135963
H	-0.7708566804	-6.7083502967	 0.3055241198	 0.256255
H	-2.2242296481	-5.9973752082	-0.085338574	 0.256852
H	-2.1580029592	-3.1638790334	-0.3131677631	 0.102563
10.1545	87.2401	92.272	177.1442	228.5859	285.1157	330.842	394.2267	439.6236	480.9605	540.694	626.3554	659.3416	680.9875	704.0173	747.576	766.7867	926.106	964.2355	1039.94	1051.323	1053.2913	1097.1345	1154.7915	1216.6071	1254.3472	1335.3497	1413.745	1433.2476	1476.088	1478.1762	1596.809	1623.64	1673.0238	2360.6343	3021.729	3078.76	3084.6557	3270.6887	3296.4247	3545.8159	3647.7072
CC#CC1=COC(N)=C1	CC#Cc1coc(N)c1	
InChI=1S/C7H7NO/c1-2-3-6-4-7(8)9-5-6/h4-5H,8H2,1H3	InChI=1S/C7H7NO/c1-2-3-6-4-7(8)9-5-6/h4-5H,8H2,1H3
