15
gdb 49165	3.10071	1.31408	1.17725	3.8868	75.15	-0.2573	-0.0694	0.1879	1062.3192	0.112711	-420.62833	-420.621109	-420.620165	-420.660368	27.378	
O	-0.0310534058	-0.0002454857	 0.120352028	-0.272904
C	 0.0566275231	 1.2056972288	 0.0408914015	 0.0403
C	 1.3112942656	 1.9385239621	-0.0627007739	 0.247269
C	 1.5096807715	 3.2812808521	-0.0307134162	-0.160746
C	 3.0058063489	 3.4448919097	-0.0312755134	-0.187534
C	 3.4311032016	 2.3348318704	-1.0525271054	-0.226862
C	 2.7108339876	 1.3513294729	-0.0748588222	-0.238847
C	 3.318856251	 2.2929139614	 1.0376486711	 0.424772
O	 3.8419720225	 2.2050763584	 2.0930951736	-0.28349
H	-0.8481000163	 1.8537999805	 0.0354018313	 0.073089
H	 0.7756749831	 4.0668374499	 0.0894799887	 0.131157
H	 3.4531356897	 4.4344346684	 0.0048559603	 0.096982
H	 2.9834613466	 2.4176816758	-2.0457920495	 0.118729
H	 4.513360154	 2.1892683356	-1.1091616455	 0.123671
H	 2.8302912271	 0.2724547898	-0.0903587084	 0.114414
87.2833	152.3722	181.6054	276.7158	390.1208	471.3153	499.7073	567.4741	613.2922	694.7352	770.5558	782.9247	822.4127	853.7716	888.7351	932.3935	972.9055	995.6731	1031.3022	1035.1422	1070.7268	1111.7818	1168.0935	1178.3528	1220.568	1240.9838	1253.6015	1342.1012	1414.4551	1486.4797	1608.8773	1778.7177	1930.3254	2881.6936	3060.6537	3132.4199	3165.3626	3181.7431	3227.2406
O=CC1=CC2CC1C2=O	O=CC1=C[C@@H]2C[C@H]1C2=O	
InChI=1S/C7H6O2/c8-3-5-1-4-2-6(5)7(4)9/h1,3-4,6H,2H2	InChI=1S/C7H6O2/c8-3-5-1-4-2-6(5)7(4)9/h1,3-4,6H,2H2/t4-,6-/m1/s1
