21
gdb 95417	2.85997	1.12648	0.83963	0.9748	94.51	-0.2223	-0.0097	0.2126	1403.768	0.182648	-349.956099	-349.947031	-349.946086	-349.989542	35.313	
C	-0.0025369747	 1.5567806602	 0.047928522	-0.406552
C	 0.025431739	 0.0270767788	-0.0029195109	 0.031071
C	 0.6948907198	-0.4990372289	-1.2799981247	-0.195277
C	 0.603020174	-2.0280447964	-1.3681771994	-0.265441
C	 0.9235183106	-2.6986997888	-0.0626112414	-0.12195
C	 0.9944902561	-2.0515284971	 1.1122594471	 0.125734
C	 0.727029783	-0.5600051418	 1.2321717934	-0.29313
C	 1.3325458602	-2.7356795952	 2.3146004032	 0.221816
C	 1.6143883052	-3.2637268979	 3.360954749	-0.416636
H	 1.01305916	 1.9689037614	 0.0145480935	 0.113234
H	-0.5581273278	 1.9714467942	-0.7997534326	 0.110309
H	-0.4760942617	 1.9166739299	 0.9676948783	 0.11208
H	-1.0126082622	-0.3365205737	 0.0017006911	 0.074528
H	 0.2390467881	-0.0427943314	-2.1659608073	 0.090153
H	 1.7508141647	-0.1960659165	-1.2781464838	 0.097611
H	-0.4068350326	-2.3282181623	-1.6883497547	 0.112371
H	 1.2749214061	-2.4078625378	-2.1486433261	 0.106801
H	 1.1059052156	-3.7696100251	-0.0827895273	 0.090991
H	 1.6808056022	-0.0393622972	 1.4036080701	 0.111137
H	 0.127201407	-0.3759795772	 2.1310954728	 0.111901
H	 1.8661201171	-3.7458614171	 4.272575638	 0.18925
93.9577	138.9366	164.2566	218.8295	235.0296	305.1751	358.0172	394.6273	437.8457	444.2163	541.4821	549.0754	584.9938	610.1701	633.7077	784.9851	839.252	872.0933	886.8701	918.1291	948.6195	966.4577	991.6941	1061.6994	1087.781	1116.3686	1155.798	1163.9826	1175.9197	1249.617	1278.4011	1314.088	1329.2282	1363.4602	1369.5687	1379.6917	1398.2311	1413.2316	1471.7373	1476.5998	1493.663	1497.6263	1500.027	1693.6614	2216.7847	2990.0492	2992.8276	3004.8317	3016.8232	3025.1604	3037.61	3055.4095	3064.9551	3090.9594	3097.3976	3167.1442	3504.4767
CC1CCC=C(C1)C#C	C[C@H]1CCC=C(C1)C#C	
InChI=1S/C9H12/c1-3-9-6-4-5-8(2)7-9/h1,6,8H,4-5,7H2,2H3	InChI=1S/C9H12/c1-3-9-6-4-5-8(2)7-9/h1,6,8H,4-5,7H2,2H3/t8-/m0/s1
