16
gdb 105561	2.09018	1.44821	1.22539	3.7248	70.48	-0.2801	-0.0596	0.2205	1114.7563	0.121747	-437.892186	-437.883094	-437.882149	-437.926493	31.962	
C	 0.0490604916	 1.5533981211	 0.1709165917	-0.401409
C	-0.2458314768	 0.0796075154	-0.1198302518	-0.219721
C	 0.633136476	-0.4930620023	-1.2350257192	 0.129154
O	 2.0440037038	-0.5156563768	-0.8978251116	-0.303708
C	 2.1683526745	-1.9518758532	-0.9935482009	-0.190344
C	 0.6783969534	-2.0558762333	-1.3169269056	 0.313789
O	-0.1212212945	-2.9129264781	-1.4989782632	-0.251348
C	 0.4019089338	 0.1575712985	-2.527430543	 0.283374
N	 0.2109962062	 0.6515215045	-3.554953424	-0.328297
H	 1.0979240874	 1.6894063791	 0.4476244843	 0.142972
H	-0.1586208787	 2.1784974873	-0.7025343124	 0.145413
H	-0.5725368016	 1.9074658528	 0.9975956809	 0.126447
H	-0.0743295641	-0.5280707631	 0.7755489786	 0.115085
H	-1.2916911718	-0.06485671	-0.4131164571	 0.136028
H	 2.8339867916	-2.2681492101	-1.8059034917	 0.154272
H	 2.4860952992	-2.4184395517	-0.0540915448	 0.148293
81.329	96.4453	124.601	146.8348	184.1957	236.759	298.3514	356.4954	427.2171	523.3066	550.5404	601.2502	637.0053	738.9079	789.4399	904.6727	929.9599	988.5407	1003.0762	1018.4197	1056.3763	1123.93	1130.9284	1144.2833	1193.0244	1293.4009	1311.0297	1360.5777	1411.1457	1470.6275	1479.3706	1496.1284	1506.6276	1940.6402	2349.5585	3030.4612	3042.0561	3048.1058	3081.4235	3084.3374	3121.5283	3127.7966
CCC1(OCC1=O)C#N	CC[C@]1(OCC1=O)C#N	
InChI=1S/C6H7NO2/c1-2-6(4-7)5(8)3-9-6/h2-3H2,1H3	InChI=1S/C6H7NO2/c1-2-6(4-7)5(8)3-9-6/h2-3H2,1H3/t6-/m0/s1
