20
gdb 102244	1.93682	1.17305	0.84651	3.149	83.11	-0.246	0.0242	0.2702	1449.4431	0.167479	-403.156578	-403.145504	-403.14456	-403.194365	38.57	
C	 0.3675381929	 1.5285493422	 0.1453444623	-0.388674
C	 0.1888799605	 0.010943225	 0.0904387045	-0.169342
C	-1.2872744849	-0.4231891391	-0.0667528303	-0.154849
N	-1.8902856842	 0.0832277187	-1.298710256	-0.313269
C	-2.8818379986	 1.0276365714	-1.2877754423	 0.418454
C	-3.5096378937	 1.3132010426	-2.6428268231	-0.488336
O	-3.2409153325	 1.592072454	-0.2704512361	-0.372376
C	-1.4160816728	-1.8803035067	-0.0016796137	 0.30167
C	-1.486471402	-3.079948363	 0.0261596399	-0.43059
H	 1.4219970502	 1.7861200291	 0.2817794489	 0.11171
H	 0.0223419599	 2.0023870623	-0.7779077135	 0.122617
H	-0.1997337604	 1.9654838581	 0.9729693644	 0.132761
H	 0.7699079823	-0.4155483898	-0.7364449066	 0.098422
H	 0.5717266897	-0.451348005	 1.0069704295	 0.113372
H	-1.8736858191	 0.035342745	 0.7378206054	 0.148761
H	-1.6961135049	-0.4178316863	-2.1506328727	 0.24748
H	-4.4731765528	 0.7968215931	-2.7022545776	 0.153756
H	-3.7025509012	 2.3843887796	-2.7209864037	 0.153876
H	-2.8907211511	 0.9912652077	-3.4845479909	 0.116045
H	-1.565909437	-4.1381394688	 0.0690995316	 0.198513
34.5827	48.5525	73.3351	95.8544	136.5333	157.014	230.6755	266.7887	311.1871	380.7072	433.5524	470.9693	521.5892	553.0304	600.6069	627.5245	637.0541	658.9361	783.7818	872.7952	942.3774	975.3543	1010.0222	1025.9941	1050.9049	1083.7332	1122.4552	1156.9751	1251.483	1288.4363	1309.3781	1354.7198	1376.6586	1394.9611	1411.706	1467.9278	1479.2784	1486.9082	1494.1979	1504.8725	1523.4941	1778.9513	2235.8424	3031.9295	3042.7815	3048.2705	3056.7305	3075.3936	3112.4842	3117.2113	3117.8655	3146.0063	3503.1872	3641.3188
CCC(NC(C)=O)C#C	CC[C@@H](NC(=O)C)C#C	
InChI=1S/C7H11NO/c1-4-7(5-2)8-6(3)9/h1,7H,5H2,2-3H3,(H,8,9)	InChI=1S/C7H11NO/c1-4-7(5-2)8-6(3)9/h1,7H,5H2,2-3H3,(H,8,9)/t7-/m0/s1
