15
gdb 7132	7.62028	0.85715	0.7779	4.3275	60.22	-0.2522	-0.0308	0.2214	1368.9205	0.116883	-436.977556	-436.968507	-436.967563	-437.012715	29.952	
O	-0.2368899127	 1.5252643472	 0.0129045925	-0.424835
C	 0.0289256651	 0.1312341738	 0.0024784133	-0.073504
C	-1.3207724585	-0.5724225231	 0.0119488443	-0.321585
C	-1.1794128432	-2.0874419252	 0.0019221348	 0.43291
O	-0.1217072773	-2.6625698318	-0.0128698674	-0.301266
N	-2.4208287216	-2.748501978	 0.0105129085	-0.353284
C	-2.6651824603	-4.1198776941	 0.0046873065	 0.167366
O	-1.8455588157	-4.9944229619	-0.0085159692	-0.250382
H	 0.6052034024	 1.9892408734	 0.0080128597	 0.290748
H	 0.5954838216	-0.1724781268	-0.8885124484	 0.110253
H	 0.6130415472	-0.1823506391	 0.8785876499	 0.110215
H	-1.8915055354	-0.262474672	 0.8967859206	 0.135462
H	-1.9089416417	-0.2525328639	-0.8578158318	 0.135533
H	-3.2432424727	-2.1623030125	 0.0224561759	 0.257255
H	-3.7589776271	-4.3079215161	 0.0151090408	 0.085116
42.5	54.8451	104.7184	126.2749	219.0324	233.6634	265.764	327.0836	414.0824	559.1001	567.5853	637.8765	815.0401	818.994	931.2866	1028.0824	1029.5823	1065.2729	1082.3311	1110.053	1166.9254	1210.2752	1256.1883	1307.0897	1349.0677	1446.7524	1456.4173	1472.4534	1505.6791	1523.457	1810.3531	1873.5218	2917.1537	3003.5454	3029.6343	3032.8002	3069.6883	3606.6693	3834.6798
OCCC(=O)NC=O	OCCC(=O)NC=O	
InChI=1S/C4H7NO3/c6-2-1-4(8)5-3-7/h3,6H,1-2H2,(H,5,7,8)	InChI=1S/C4H7NO3/c6-2-1-4(8)5-3-7/h3,6H,1-2H2,(H,5,7,8)
