19
gdb 119956	2.53514	0.99428	0.86318	3.6567	74.57	-0.2403	-0.0178	0.2225	1427.0692	0.156023	-460.138197	-460.128155	-460.12721	-460.174043	35.339	
C	-0.1185366023	 1.4525104776	 0.0828608629	-0.387523
C	-0.2733757587	-0.0109892359	 0.4533274028	-0.038773
O	-1.1544682525	-0.6147016938	-0.4951380044	-0.245423
C	-1.3476026389	-1.9669121814	-0.2797852724	 0.084189
C	-2.3319613201	-2.421195142	 0.7483667597	 0.034665
O	-2.9269722403	-1.4296468867	 1.5212472327	-0.404368
C	-2.6767668041	-2.5424658356	-0.7515288608	-0.225621
C	-3.6982884375	-1.6366219339	-1.3338461699	 0.166225
O	-4.4991027275	-1.9939768781	-2.1660940555	-0.278015
H	 0.5593021599	 1.9498322949	 0.7829104981	 0.117475
H	 0.2880778904	 1.5544901568	-0.9272091037	 0.128421
H	-1.0864548238	 1.9602237798	 0.117368841	 0.131749
H	 0.7009242568	-0.5248907138	 0.4277232958	 0.087776
H	-0.6872401247	-0.1227698188	 1.4633172337	 0.117267
H	-0.464668757	-2.5898916044	-0.4363647874	 0.099124
H	-2.1327653249	-3.3622377013	 1.2609749975	 0.103168
H	-3.823466762	-1.7054935084	 1.7401300815	 0.300145
H	-2.6722403022	-3.537483201	-1.1826755919	 0.109524
H	-3.6855278904	-0.600788884	-0.9471658297	 0.099992
61.9214	72.005	93.9803	125.856	196.0789	235.0025	249.9606	272.9797	328.5265	387.5423	446.0673	464.5941	591.9575	683.913	770.1311	822.4784	833.0551	876.3269	949.3595	1009.5647	1038.2894	1064.3577	1078.0009	1127.8843	1147.6424	1162.9502	1181.7423	1191.3674	1245.073	1289.0001	1299.036	1322.2273	1365.0612	1403.3958	1431.5983	1440.7371	1467.8783	1483.8581	1499.851	1523.7014	1804.7348	2964.0265	2978.4359	3046.1304	3046.6912	3078.9541	3102.3143	3121.0853	3124.4791	3179.1637	3805.0205
CCOC1C(O)C1C=O	CCO[C@H]1[C@@H](O)[C@H]1C=O	
InChI=1S/C6H10O3/c1-2-9-6-4(3-7)5(6)8/h3-6,8H,2H2,1H3	InChI=1S/C6H10O3/c1-2-9-6-4(3-7)5(6)8/h3-6,8H,2H2,1H3/t4-,5+,6-/m1/s1
