16
gdb 26981	3.3039	1.25735	0.95978	0.9955	76.82	-0.1822	0.0366	0.2188	1184.1691	0.123879	-400.740386	-400.731845	-400.7309	-400.773752	32.228	
N	-0.111775029	 1.2683966685	-0.4219074349	-0.601512
C	-0.1199502372	-0.0912482271	-0.1607991138	 0.303706
C	-1.1239701359	-1.0112564993	-0.0254907063	 0.176072
C	-2.6081202755	-0.794751141	-0.1821841997	-0.474277
C	-2.9670926487	 0.1151297385	-1.2710737008	 0.302161
C	-3.2453753022	 0.882114615	-2.1553487872	-0.459216
C	-0.463567605	-2.238413493	 0.3363052874	-0.264466
C	 0.8621987321	-1.9761842226	 0.3883163385	-0.035203
O	 1.0865637106	-0.6536500204	 0.0829330182	-0.177273
H	 0.7465960548	 1.5721014447	-0.8640178781	 0.251872
H	-0.9236549699	 1.5556621708	-0.9563132788	 0.260347
H	-3.0911610479	-1.7630344632	-0.3629497753	 0.141193
H	-3.0540894073	-0.4141173229	 0.7489664563	 0.143217
H	-3.518170693	 1.5348476972	-2.9474093429	 0.199776
H	-0.9365672972	-3.1907861638	 0.5237540422	 0.10338
H	 1.7409796012	-2.5573324516	 0.6061156652	 0.130223
49.5011	123.8824	218.497	253.1995	275.6415	299.9465	332.6637	432.3476	454.5749	605.7343	614.7058	637.9769	649.0252	673.3527	716.1574	740.6755	782.1565	818.0415	907.1083	935.4292	952.1375	1032.0285	1063.9252	1169.6041	1185.2266	1250.8857	1268.5344	1310.7425	1346.0922	1465.6966	1472.5589	1567.5829	1629.9279	1684.2639	2229.3952	2991.1534	3043.8671	3244.656	3297.4928	3503.2489	3522.4432	3624.5195
NC1=C(CC#C)C=CO1	Nc1c(CC#C)cco1	
InChI=1S/C7H7NO/c1-2-3-6-4-5-9-7(6)8/h1,4-5H,3,8H2	InChI=1S/C7H7NO/c1-2-3-6-4-5-9-7(6)8/h1,4-5H,3,8H2
