20
gdb 79961	2.56049	1.63058	1.4043	2.3964	79.95	-0.2193	0.0006	0.22	1037.2613	0.169876	-403.119257	-403.110436	-403.109492	-403.15187	34.693	
C	-0.2198587513	 1.505345602	-0.1716009318	-0.302276
N	 0.048043668	 0.0898198486	 0.0413658213	-0.101272
C	 1.3716132245	-0.5170719182	-0.1490362349	-0.081621
C	 2.5678729306	 0.3813044633	-0.0953400382	-0.089854
C	 2.6862160271	 0.9563180246	 1.1015833427	-0.147224
C	 1.6328836174	 0.4615543467	 2.0876009309	 0.336395
C	 2.2577141816	-0.3655115016	 3.2169550001	-0.432209
O	 0.8474195939	 1.5238288832	 2.6378754258	-0.46293
C	 0.7340007359	-0.4268753471	 1.208458576	-0.062946
H	 0.606781151	 2.1791340455	 0.0801351119	 0.111721
H	-0.485782585	 1.6452962584	-1.2247846272	 0.108048
H	-1.0789594805	 1.7854971732	 0.4430312084	 0.128207
H	 1.3892798161	-1.4207295975	-0.7519164163	 0.088281
H	 3.2037938727	 0.5690953604	-0.9533717316	 0.100422
H	 3.4154736255	 1.7112467921	 1.380777396	 0.090262
H	 2.9654445726	 0.2410907963	 3.7947158064	 0.10327
H	 1.475245347	-0.7217155887	 3.8948904364	 0.125098
H	 2.8035870676	-1.2267635589	 2.8209230644	 0.127286
H	 1.416939538	 2.0422625521	 3.2166892614	 0.276503
H	 0.2548901274	-1.2730820946	 1.6951498481	 0.084839
137.7967	176.2646	198.9303	249.1775	251.7984	268.4214	299.6312	357.3453	389.2629	458.9561	544.4815	596.9294	616.785	739.9092	748.7758	785.4221	830.413	880.4605	920.6092	947.253	961.8337	977.5743	1009.9796	1070.7392	1097.6465	1112.1041	1126.583	1153.1461	1164.6885	1178.8967	1198.1477	1294.5725	1318.6549	1357.7981	1364.6282	1391.9275	1401.9456	1452.6114	1484.3032	1487.673	1489.1846	1499.3863	1670.595	3023.3481	3024.6568	3085.3569	3093.5147	3115.471	3115.9603	3129.831	3145.3719	3167.9879	3200.2666	3801.9479
CN1C2C=CC(C)(O)C12	CN1[C@H]2C=C[C@@](C)(O)[C@@H]12	
InChI=1S/C7H11NO/c1-7(9)4-3-5-6(7)8(5)2/h3-6,9H,1-2H3	InChI=1S/C7H11NO/c1-7(9)4-3-5-6(7)8(5)2/h3-6,9H,1-2H3/t5-,6-,7+,8?/m0/s1
