21
gdb 87683	2.64294	1.2037	1.015	2.8339	85.26	-0.2294	-0.0148	0.2146	1298.2712	0.180926	-387.100496	-387.090901	-387.089957	-387.13517	35.524	
C	 0.1879230299	 1.4617118841	-0.5139764658	-0.406482
C	 0.2400672823	-0.0275013558	-0.2628116749	-0.045077
C	 1.5442457307	-0.7384490046	-0.0964197896	-0.340912
C	 0.6388493475	-0.5534058481	 1.1058817659	 0.230818
C	 0.8831920657	 0.1937451268	 2.4291788129	-0.359201
C	 0.210738591	-0.9938165722	 3.2050698593	-0.0929
C	-1.0096501797	-0.7019075431	 4.0720469029	-0.401139
C	-0.0614525443	-1.6581762837	 1.8360803295	 0.339584
O	-0.6404633468	-2.6526547431	 1.490978728	-0.328641
H	 1.0058246414	 1.980737492	-0.0040796603	 0.119047
H	 0.2730868131	 1.6779093862	-1.5844390528	 0.125004
H	-0.7545579643	 1.8938592433	-0.1608246802	 0.122264
H	-0.5524654392	-0.6057206661	-0.7321604057	 0.106671
H	 1.6460303849	-1.7483194183	-0.480212432	 0.130546
H	 2.4541194309	-0.145498206	-0.1119507632	 0.116798
H	 1.9302633986	 0.3734985916	 2.6828876986	 0.105152
H	 0.3323369372	 1.1343242433	 2.5211497069	 0.105984
H	 0.9438804539	-1.5820745401	 3.7694207187	 0.100546
H	-1.7460542587	-0.1013112114	 3.5271300101	 0.118091
H	-1.496404099	-1.6340909797	 4.3739898145	 0.135291
H	-0.7301073949	-0.152330825	 4.9766029872	 0.118558
45.9551	121.6961	161.3378	190.6193	203.7769	208.1193	242.2914	312.6523	357.6802	423.9091	521.0359	549.2579	699.6309	719.0196	769.3741	813.9131	865.8405	903.5825	907.6571	918.4419	959.9828	1004.8549	1063.1045	1067.5819	1088.643	1112.1561	1124.4282	1132.3765	1170.4703	1191.5895	1205.0397	1241.6394	1252.6988	1317.4672	1334.2909	1405.0167	1408.783	1426.7428	1477.9712	1489.5313	1490.328	1495.4818	1496.3598	1504.4468	1868.8153	3030.4804	3032.7192	3042.3707	3056.8961	3093.5544	3099.7319	3100.5631	3108.7909	3111.8397	3121.4042	3141.1103	3212.2788
CC1CC11CC(C)C1=O	C[C@H]1C[C@]21C[C@@H](C)C2=O	
InChI=1S/C8H12O/c1-5-3-8(7(5)9)4-6(8)2/h5-6H,3-4H2,1-2H3	InChI=1S/C8H12O/c1-5-3-8(7(5)9)4-6(8)2/h5-6H,3-4H2,1-2H3/t5-,6+,8+/m1/s1
