19
gdb 124556	2.48956	1.35869	1.00719	4.021	76.89	-0.287	-0.0319	0.2551	1238.8919	0.157832	-419.191241	-419.181894	-419.18095	-419.22589	33.757	
C	-0.3237697349	 1.7265587983	-0.2314193501	-0.384605
C	 0.1115813979	 0.2694635137	-0.0272896537	-0.086824
C	-1.0991902865	-0.6400729899	 0.2668183395	-0.388785
C	 0.8919950878	-0.2605788803	-1.1990590984	 0.275747
N	 0.7817674814	 0.218752924	-2.4082993338	-0.155302
O	 1.6179987302	-0.5263852279	-3.1926915656	-0.161023
N	 2.2621365633	-1.4813593655	-2.4568893473	-0.137617
C	 1.8353233407	-1.3427275999	-1.231092036	 0.257895
C	 2.3225966302	-2.2088766776	-0.1172845256	-0.506708
H	 0.5360410427	 2.3767291583	-0.4132297591	 0.125662
H	-0.9946225056	 1.8160397977	-1.0901084071	 0.140909
H	-0.8502910957	 2.0887623101	 0.6565899415	 0.111037
H	 0.7788623294	 0.2252911329	 0.8442611446	 0.088189
H	-1.8028977108	-0.6223050424	-0.5712754584	 0.134715
H	-0.7992265369	-1.6793284356	 0.4321676141	 0.118699
H	-1.623890048	-0.2939009855	 1.1624956918	 0.121306
H	 2.7397986841	-1.6051858329	 0.6954429897	 0.143118
H	 1.5091853453	-2.8079858292	 0.304896639	 0.145639
H	 3.0971278555	-2.8855629282	-0.4819093751	 0.157949
38.5475	127.0096	155.1444	173.9205	223.9315	255.121	271.774	288.1529	355.0264	444.1972	494.7567	616.0736	644.7148	709.7397	760.9163	889.5568	921.6799	931.8475	938.259	971.1847	1005.2326	1064.3002	1070.7646	1116.1696	1125.67	1167.2721	1228.3149	1331.7654	1350.385	1398.8959	1413.5574	1421.093	1435.3773	1481.1542	1482.5549	1485.341	1490.2969	1501.0411	1505.2376	1525.8246	1625.1357	3011.9565	3036.753	3043.299	3045.5657	3097.7871	3108.827	3113.1104	3117.9536	3124.536	3143.3475
CC(C)C1=NON=C1C	CC(C)c1nonc1C	
InChI=1S/C6H10N2O/c1-4(2)6-5(3)7-9-8-6/h4H,1-3H3	InChI=1S/C6H10N2O/c1-4(2)6-5(3)7-9-8-6/h4H,1-3H3
