16
gdb 82683	2.81653	1.60611	1.22797	4.1619	73.76	-0.2596	-0.0014	0.2582	1012.5428	0.126502	-396.877171	-396.869744	-396.8688	-396.908943	28.828	
N	 0.2227764719	 1.4940165027	 0.081634175	-0.52932
C	-0.0171680619	 0.0775603243	 0.0724727503	-0.022307
C	 0.1402178577	-0.7254306905	 1.3794287242	-0.016558
C	-0.8671404788	-0.1461288264	 2.3900711245	-0.253445
C	-1.9053446952	-0.7273306365	 1.4470390039	-0.07649
N	-0.9543821508	-1.7343832676	 0.8858437863	-0.179906
C	-1.4147349467	-0.5703352658	 0.0320658461	 0.19031
C	-2.263986419	-0.7244311009	-1.1056818667	 0.173765
N	-2.9317955042	-0.7945844178	-2.0482960411	-0.341386
H	 0.2425620069	 1.872638223	-0.8584010439	 0.245025
H	-0.4905152088	 1.9972498165	 0.5968368649	 0.237206
H	 0.5954399901	-0.3855452693	-0.7054210324	 0.113727
H	 1.1124504143	-1.0999017866	 1.6887925667	 0.100444
H	-0.8533902297	-0.7108015009	 3.3250904718	 0.129957
H	-0.848779339	 0.9255225122	 2.6082908652	 0.109008
H	-2.9402558069	-0.9816378465	 1.645146805	 0.11997
131.969	156.8483	207.0297	259.2182	308.5651	429.9784	505.586	536.1691	567.7878	633.0027	706.6642	762.3804	777.5794	829.04	864.5279	879.5455	946.1443	967.705	987.9957	1029.9268	1042.9621	1122.3869	1149.5023	1166.1159	1194.3262	1226.5588	1239.678	1241.3721	1273.4225	1314.2872	1381.3327	1440.2816	1497.2516	1668.5231	2346.4706	3059.2904	3088.223	3116.9513	3159.0783	3189.7862	3521.4007	3601.0083
NC1C2CC3N2C13C#N	N[C@H]1[C@H]2C[C@@H]3N2[C@]13C#N	
InChI=1S/C6H7N3/c7-2-6-4-1-3(5(6)8)9(4)6/h3-5H,1,8H2	InChI=1S/C6H7N3/c7-2-6-4-1-3(5(6)8)9(4)6/h3-5H,1,8H2/t3-,4+,5+,6+,9?/m1/s1
