16
gdb 8327	5.94261	1.25131	1.23634	0.9286	64.62	-0.2462	-0.0294	0.2167	989.2135	0.129136	-383.720835	-383.713376	-383.712432	-383.755653	26.966	
O	 0.0790186725	 0.1074244487	-0.6725029949	-0.283156
C	 0.0208434407	 1.1855111694	-0.1597927281	 0.413979
C	-1.1367230278	 2.0931335976	 0.2893781045	-0.425647
C	-0.0841454567	 3.1281265951	 0.7809129877	 0.290655
C	-0.1532426475	 4.6090507749	 0.3576314966	-0.126973
O	-0.1882309042	 5.0513559848	 1.7282643645	-0.270526
C	-0.1259595669	 3.6963940181	 2.2137447906	-0.126583
C	 1.0745199603	 2.2023702679	 0.3105866052	-0.425646
H	-1.781456479	 2.4281890492	-0.5301008129	 0.135134
H	-1.7724078423	 1.6556892472	 1.0664193729	 0.135119
H	 0.7280900413	 4.9899250747	-0.1754111197	 0.103323
H	-1.0574645574	 4.9017201262	-0.1925272478	 0.103323
H	-1.0134371528	 3.4290014564	 2.8026543904	 0.103373
H	 0.7721152109	 3.5171999256	 2.8197818696	 0.103373
H	 1.7352355843	 1.8289683509	 1.1000621203	 0.135119
H	 1.6986557148	 2.6001087033	-0.4967223589	 0.135134
4.4931	55.2158	261.2975	320.4494	346.4696	407.2749	444.7792	499.1605	642.0434	716.3254	850.7601	864.5183	867.8961	901.1905	947.2675	989.6854	1043.7848	1044.788	1073.3197	1116.6316	1151.3076	1159.9207	1173.2693	1187.2426	1227.1887	1242.4401	1281.9392	1311.9688	1384.8779	1419.5251	1436.7109	1507.6249	1532.5171	1899.5612	2993.7494	3005.8236	3041.9421	3042.185	3043.863	3048.7357	3096.4676	3098.0707
O=C1CC2(COC2)C1	O=C1CC2(COC2)C1	
InChI=1S/C6H8O2/c7-5-1-6(2-5)3-8-4-6/h1-4H2	InChI=1S/C6H8O2/c7-5-1-6(2-5)3-8-4-6/h1-4H2
