19
gdb 46501	3.74999	1.23943	1.06713	3.0147	77.53	-0.2333	0.0216	0.2549	1159.4096	0.16166	-419.196956	-419.189007	-419.188063	-419.229543	31.125	
N	-0.0726490315	 1.2604580498	-0.3553238644	-0.506774
C	-0.004773332	 0.0513964054	 0.0128915379	 0.374361
C	-1.2593473164	-0.7937987369	 0.1463819739	-0.248905
N	-1.1951059882	-1.8540418519	 1.1565272513	-0.347964
C	 0.0439109497	-2.5839684693	 1.0194097907	 0.322217
C	 0.1000418276	-3.9746384025	 1.5827847746	-0.329406
C	 0.0183701461	-3.770079524	 0.0879923243	-0.281872
C	 1.266258692	-1.7056490357	 1.0935479071	-0.138161
O	 1.1938248305	-0.5761568777	 0.2023086747	-0.251456
H	 0.8680642035	 1.653666785	-0.4394081367	 0.215971
H	-2.1017191668	-0.1295154147	 0.3427164767	 0.135646
H	-1.4373853405	-1.2688085582	-0.8274519777	 0.133885
H	-1.2477416123	-1.443062709	 2.0858850335	 0.220895
H	 1.0359719666	-4.3222636643	 2.0075909274	 0.115223
H	-0.7909870899	-4.3264346394	 2.0895641198	 0.125641
H	-0.926230611	-3.9916850523	-0.3942273371	 0.126564
H	 0.8999092484	-3.9751547901	-0.5093194614	 0.118059
H	 1.390922515	-1.3218601847	 2.1174906932	 0.101896
H	 2.1797642292	-2.2397702197	 0.8179603421	 0.11418
70.8293	144.5341	186.0637	269.5969	339.7056	390.2714	434.4347	449.36	504.3597	551.9335	685.7913	763.3587	781.869	793.9612	841.4893	903.863	918.1393	932.0512	946.659	990.2452	1009.5495	1048.5223	1058.9827	1080.7344	1089.2008	1108.0386	1140.2404	1190.7152	1250.7586	1269.6798	1291.6648	1328.2569	1351.9415	1368.0276	1431.9324	1452.9059	1462.7422	1469.707	1499.2525	1510.2089	1747.9176	2990.9173	3028.4216	3086.4727	3129.3564	3135.5039	3141.626	3221.6696	3235.7464	3450.3316	3481.0078
N=C1CNC2(CC2)CO1	[NH][C]1CNC2(CC2)CO1	
InChI=1S/C6H10N2O/c7-5-3-8-6(1-2-6)4-9-5/h7-8H,1-4H2	InChI=1S/C6H10N2O/c7-5-3-8-6(1-2-6)4-9-5/h7-8H,1-4H2
