21
gdb 104035	2.71554	1.32891	1.18924	1.1991	77.02	-0.2559	0.0698	0.3257	1157.2753	0.182293	-424.225142	-424.216361	-424.215416	-424.258169	34.611	
C	-0.4333124684	 1.3068605329	 0.0251381912	-0.419639
C	-0.11762835	-0.1693158144	 0.2917822892	-0.2103
C	 1.003854663	-0.4277036412	 1.3174712647	 0.411203
O	 2.21504582	 0.2124506507	 0.9122486041	-0.4875
C	 0.5938407078	-0.0138734433	 2.7710616716	-0.317035
C	 0.1792288358	-1.2961217159	 3.4577801636	 0.054292
O	-0.7739538605	-2.0709551431	 2.7127108701	-0.258483
C	 0.6140582848	-2.4418853733	 2.6522624216	 0.047449
C	 1.3272649506	-1.9462007967	 1.4160825697	-0.291596
H	 0.4233068561	 1.8360056347	-0.4087488368	 0.109564
H	-1.2529923263	 1.3965960765	-0.693675923	 0.122969
H	-0.7374168964	 1.8413813545	 0.9314138817	 0.119802
H	-1.0142966809	-0.6889100814	 0.6428165215	 0.123754
H	 0.1803598212	-0.6418474392	-0.6518591549	 0.097272
H	 2.0342786999	 1.1516172203	 0.8031295166	 0.275684
H	 1.471324759	 0.4010576062	 3.2792061737	 0.108201
H	-0.196302163	 0.7426441899	 2.7921800202	 0.103746
H	 0.0648372049	-1.3375044482	 4.5382284736	 0.09289
H	 0.8507036551	-3.4126665928	 3.0801304913	 0.093791
H	 1.0347238334	-2.4884915084	 0.5120126552	 0.107069
H	 2.4084472739	-2.0652270676	 1.5432242251	 0.11687
94.0176	130.985	210.179	247.2747	289.4696	312.1406	349.8669	375.0115	389.178	438.7318	486.2973	635.6718	677.2379	767.1759	788.2916	817.8795	862.4616	876.5136	933.1245	938.0075	975.5462	1004.7121	1012.0818	1029.0407	1039.6422	1093.4515	1110.1141	1151.1599	1177.3687	1194.2866	1255.9972	1279.8765	1293.9201	1301.2874	1314.5689	1341.2496	1355.5563	1393.6423	1414.2867	1445.5989	1470.9687	1483.6471	1486.1831	1500.6489	1514.1373	3029.4939	3035.2438	3047.3607	3052.8002	3081.9753	3094.1669	3097.3907	3103.8846	3106.3277	3139.7767	3153.2139	3817.27
CCC1(O)CC2OC2C1	CC[C@@]1(O)C[C@H]2O[C@H]2C1	
InChI=1S/C7H12O2/c1-2-7(8)3-5-6(4-7)9-5/h5-6,8H,2-4H2,1H3	InChI=1S/C7H12O2/c1-2-7(8)3-5-6(4-7)9-5/h5-6,8H,2-4H2,1H3/t5-,6+,7-
