14
gdb 128077	4.62132	1.03263	0.84856	2.6314	65.72	-0.2703	-0.069	0.2013	1276.1642	0.101152	-469.994864	-469.986675	-469.985731	-470.028793	28.097	
C	 0.0246356578	 1.442347392	 0.0491317763	-0.33864
N	-0.0803054237	-0.0030247177	 0.1013296982	-0.327375
C	-1.2505510233	-0.6566391726	-0.0924313625	 0.351089
O	-2.3261315475	-0.131845043	-0.3262582293	-0.375141
C	-1.1532472713	-2.1449228861	 0.0003117918	 0.254946
N	-0.0538498743	-2.807262557	 0.2452360205	-0.168956
O	-0.3996080293	-4.122290567	 0.2438407915	-0.145515
N	-1.7394702283	-4.2840190535	-0.0065490697	-0.06388
C	-2.2133369538	-3.080465865	-0.1577089342	-0.081648
H	 0.7117099043	 1.7590602452	-0.7426626222	 0.136017
H	-0.9692389805	 1.838513685	-0.1608150156	 0.174912
H	 0.3777160006	 1.8460473006	 1.0038984657	 0.136018
H	 0.7414258669	-0.5577110529	 0.2867632467	 0.271499
H	-3.2536479876	-2.8931716879	-0.3676597773	 0.176674
66.351	81.7757	115.2706	146.6984	245.588	307.9391	385.9147	496.2681	533.218	650.6528	658.5517	797.0169	815.1195	873.9649	926.0848	948.0347	999.3012	1031.6167	1070.1912	1153.493	1168.9517	1181.7836	1259.3409	1431.7913	1445.0008	1458.8991	1497.7385	1498.4378	1580.4928	1599.9267	1778.2267	3034.4689	3089.3697	3157.5004	3289.3094	3626.2162
CNC(=O)C1=NON=C1	CNC(=O)c1nonc1	
InChI=1S/C4H5N3O2/c1-5-4(8)3-2-6-9-7-3/h2H,1H3,(H,5,8)	InChI=1S/C4H5N3O2/c1-5-4(8)3-2-6-9-7-3/h2H,1H3,(H,5,8)
