19
gdb 77988	2.95646	1.24465	1.0328	1.3067	84.32	-0.2299	0.0367	0.2666	1205.8606	0.157487	-385.828908	-385.81974	-385.818796	-385.86228	35.269	
C	-0.0826681066	 1.5785317777	 0.0605280384	-0.41966
C	 0.0907675297	 0.0734494115	 0.0748436747	-0.048943
C	 1.3552567919	-0.6832150105	-0.2160546347	-0.136201
C	 2.6023907188	-0.0438574494	 0.3783217032	 0.121819
O	 3.0061793405	 1.1551980324	-0.2508037033	-0.428763
C	 1.9260158837	 0.0122289959	 1.7903305469	-0.346536
C	 0.7078590588	-0.7269383352	 1.2044945034	 0.162301
C	 0.036980416	-1.8061335951	 1.8437670774	 0.177131
C	-0.5220179473	-2.7163648666	 2.4002752133	-0.408417
H	 0.8193352332	 2.1036184264	 0.3731277457	 0.13756
H	-0.3138689913	 1.9149016186	-0.9558145265	 0.120132
H	-0.9137818339	 1.877129115	 0.7089771156	 0.113944
H	-0.7687847207	-0.4561364187	-0.3318197001	 0.097833
H	 1.3757477231	-1.4772703934	-0.9529598939	 0.095135
H	 3.4262544494	-0.7691813953	 0.3899862151	 0.080656
H	 3.8338747155	 1.4408560988	 0.149199114	 0.284526
H	 2.4592068753	-0.5737298235	 2.5407826476	 0.112094
H	 1.7258175465	 1.0106743882	 2.1879404718	 0.103555
H	-1.0192055526	-3.5180766068	 2.8867660113	 0.181835
112.0511	143.1069	149.3799	195.5608	231.1174	283.2757	314.897	379.9945	436.9336	485.6473	517.9087	555.7811	573.1654	640.1147	654.2674	698.2582	750.4822	850.9089	888.4478	964.6138	973.2882	989.7641	1008.715	1056.8265	1108.8474	1115.3626	1123.1123	1166.9024	1213.7126	1226.3491	1244.1223	1280.0103	1322.8468	1345.4083	1415.3433	1425.3944	1454.2707	1485.6951	1496.119	1506.2877	2228.2554	3012.4381	3037.1095	3064.2054	3092.9255	3124.6071	3127.3013	3154.5932	3184.7402	3504.3167	3813.9663
CC1C2C(O)CC12C#C	C[C@H]1[C@H]2[C@@H](O)C[C@@]12C#C	
InChI=1S/C8H10O/c1-3-8-4-6(9)7(8)5(8)2/h1,5-7,9H,4H2,2H3	InChI=1S/C8H10O/c1-3-8-4-6(9)7(8)5(8)2/h1,5-7,9H,4H2,2H3/t5-,6-,7-,8-/m0/s1
