16
gdb 41651	3.27048	2.10479	1.71092	0.9681	64.89	-0.2621	0.067	0.3291	805.5786	0.128372	-437.822142	-437.816489	-437.815545	-437.851908	24.001	
C	-0.0022553724	 1.4138243471	-0.1759438753	 0.016657
O	 1.283134122	 1.9771513168	-0.0414399433	-0.265324
C	 1.9292705901	 1.5657771107	 1.1431086832	 0.123142
C	 1.1815554424	 1.5322285687	 2.4759290507	-0.101675
C	 0.3567291081	 0.2890951775	 2.4799802938	-0.101677
C	 0.6124294715	-0.4189109956	 1.149582418	 0.123143
O	-0.0212908012	 0.0111715186	-0.0350298463	-0.265324
C	 2.0656544092	 0.0467400546	 1.3487724871	-0.072171
N	 1.809524768	 0.2216400535	 2.870268522	-0.170905
H	-0.6865005001	 1.8702092046	 0.5565778106	 0.093665
H	-0.3368975804	 1.6325496088	-1.1911473418	 0.123978
H	 2.8734586511	 2.1073411662	 1.2075763691	 0.101887
H	 1.0343570623	 2.329633945	 3.1940191291	 0.102492
H	-0.4330365924	 0.1180639167	 3.2012254079	 0.102492
H	 0.4806173074	-1.4990491068	 1.2193418146	 0.101887
H	 2.9195171545	-0.5209741462	 0.9885987308	 0.087733
256.8889	292.7291	403.6354	470.3821	535.3571	586.0155	693.241	773.7827	795.7766	807.5268	836.8139	872.6586	915.9752	940.884	992.0945	993.382	1008.769	1032.175	1038.7662	1055.0996	1059.1708	1130.6566	1154.6921	1180.9632	1197.3089	1204.5091	1253.3367	1261.5303	1297.2189	1337.613	1360.2755	1375.1192	1387.0605	1450.6499	1516.3438	2980.6093	3116.0371	3116.2545	3122.9251	3157.4701	3187.864	3199.2361
C1OC2C3C4C(O1)C2N34	C1O[C@H]2[C@H]3[C@H]4[C@@H](O1)[C@@H]2N34	
InChI=1S/C6H7NO2/c1-8-5-2-3-6(9-1)4(5)7(2)3/h2-6H,1H2	InChI=1S/C6H7NO2/c1-8-5-2-3-6(9-1)4(5)7(2)3/h2-6H,1H2/t2-,3+,4-,5+,6-,7?
