18
gdb 65636	3.40459	1.26332	1.1923	1.6467	77.9	-0.2164	0.0222	0.2386	1106.668	0.146615	-401.858924	-401.850488	-401.849544	-401.892155	32.558	
O	 0.0749565295	 1.2215687585	 0.4457044265	-0.456831
C	 0.0844631815	-0.1519718893	 0.09653978	 0.208887
C	 0.3236651648	-1.0439100195	 1.3527015292	-0.216135
N	-0.9898892766	-1.7337063243	 1.1995284406	-0.124347
C	-2.0926113064	-1.0683629135	 1.9703302507	-0.16353
C	-2.4809157191	-0.1846150176	 0.7531628605	-0.254984
C	-1.3173882962	-0.8624221707	 0.0043738358	-0.029515
C	 0.951178087	-0.4035650797	-1.045941453	 0.261964
C	 1.6411544654	-0.5909588191	-2.0131688357	-0.454379
H	 0.0584942518	 1.7364808569	-0.3688606395	 0.285728
H	 1.1712303359	-1.7280407064	 1.2700974385	 0.116198
H	 0.4237246965	-0.447028156	 2.265205988	 0.115227
H	-2.8563722264	-1.7877133149	 2.279996502	 0.106644
H	-1.7461653669	-0.5289254373	 2.8586621749	 0.104766
H	-3.4659583624	-0.3892216436	 0.3299444027	 0.102378
H	-2.3623514752	 0.8911275066	 0.8921323971	 0.117336
H	-1.5308776829	-1.3592430913	-0.9450342906	 0.078942
H	 2.2615399796	-0.7630509289	-2.8580904576	 0.201652
47.3682	137.7467	160.5804	251.5002	288.0078	351.3589	414.9065	430.2359	504.2782	544.5889	624.1285	633.4734	665.9081	725.816	772.4841	779.86	888.6636	898.5636	943.5812	966.164	983.5691	1002.3955	1033.1323	1063.6804	1103.278	1169.2569	1180.8458	1214.452	1225.5372	1233.2998	1264.8862	1288.261	1309.0019	1323.1118	1373.8477	1472.851	1483.579	1511.681	2228.6592	3035.7551	3045.8171	3071.7002	3080.6458	3083.0277	3107.4595	3134.0798	3499.3214	3804.0911
OC1(CN2CCC12)C#C	O[C@]1(CN2CC[C@@H]12)C#C	
InChI=1S/C7H9NO/c1-2-7(9)5-8-4-3-6(7)8/h1,6,9H,3-5H2	InChI=1S/C7H9NO/c1-2-7(9)5-8-4-3-6(7)8/h1,6,9H,3-5H2/t6-,7-/m0/s1
