21
gdb 103847	3.91755	0.84747	0.81267	2.1571	79.78	-0.2527	0.0829	0.3356	1507.8906	0.180745	-424.194018	-424.184244	-424.1833	-424.229059	36.241	
C	-0.2294824151	 1.6725280006	-0.0065350754	-0.465914
C	-0.2375455154	 0.1701703252	 0.1601562361	 0.3339
C	-1.4081370175	-0.5420727001	-0.4958457129	-0.113959
O	-1.3488692492	-0.4208060405	-1.9072249281	-0.417846
O	 1.0127000803	-0.504599938	-0.1170998849	-0.313835
C	 0.5028985828	-0.5261921994	 1.2275345744	 0.0139
C	 1.3070869577	 0.142216332	 2.2886737962	-0.015316
C	 0.9246735973	-0.0723220648	 3.7358978619	-0.269322
C	 2.1790608767	-0.6995140228	 3.1916170725	-0.263959
H	 0.7300473958	 2.1052068279	 0.279737441	 0.126838
H	-0.4231249798	 1.9199183689	-1.0542249291	 0.139724
H	-1.0177446863	 2.1311798168	 0.600453983	 0.12114
H	-1.4152101755	-1.5976546199	-0.1860959783	 0.087986
H	-2.3576237218	-0.0914314829	-0.1868614612	 0.108194
H	-0.4902459125	-0.7739251471	-2.1696475145	 0.293175
H	 0.1206528353	-1.5060370435	 1.528956299	 0.078343
H	 1.6924640203	 1.1210111437	 2.0279983103	 0.090005
H	 1.0137451829	 0.7687680383	 4.4137164629	 0.117499
H	 0.0813953338	-0.7224540291	 3.9456661158	 0.114592
H	 2.1828080789	-1.7725178394	 3.0307119469	 0.117493
H	 3.1368334012	-0.292166196	 3.4944816144	 0.117363
62.8638	79.8784	124.4768	146.9531	195.9531	257.2113	298.8832	350.8166	379.6237	404.7039	452.9544	471.8052	628.0382	718.2517	771.13	827.1956	846.2886	884.9561	899.8908	924.2918	940.6691	972.5152	1046.0403	1062.1659	1065.5715	1080.8782	1099.5909	1125.2819	1141.1278	1191.0769	1197.892	1208.1017	1226.1274	1273.6843	1330.4828	1352.2206	1395.959	1416.0032	1428.2425	1470.0397	1471.6938	1493.4339	1496.4768	1502.3309	1523.4343	2992.6186	3043.3383	3061.1733	3073.4773	3109.6046	3132.7337	3137.0191	3141.3669	3179.2636	3211.7737	3227.1689	3791.2899
CC1(CO)OC1C1CC1	C[C@@]1(CO)O[C@H]1C1CC1	
InChI=1S/C7H12O2/c1-7(4-8)6(9-7)5-2-3-5/h5-6,8H,2-4H2,1H3	InChI=1S/C7H12O2/c1-7(4-8)6(9-7)5-2-3-5/h5-6,8H,2-4H2,1H3/t6-,7-/m0/s1
