19
gdb 107272	3.13834	1.42326	1.26357	1.1387	74.13	-0.2415	0.0704	0.3118	1056.9203	0.160603	-422.963815	-422.956228	-422.955283	-422.995915	30.383	
O	-0.0092453418	 1.3419855241	 0.3004405072	-0.425667
C	-0.0594395362	-0.023923609	-0.1025096351	-0.183495
C	-1.4777133731	-0.4939014396	 0.0095522379	 0.391132
C	-2.0297012471	-1.0879152357	 1.2800473925	-0.354539
C	-1.8778713534	-1.9591977765	 0.0554717726	-0.110619
C	-2.9543757813	-1.9249563481	-1.0494655601	 0.065994
C	-3.8267876159	-0.6855087616	-0.755481831	-0.247261
C	-2.4659751457	-0.0410506054	-1.0907948815	 0.005132
O	-2.2846278555	-1.1161808686	-2.0866534644	-0.307015
H	 0.8620038522	 1.6852101592	 0.080424796	 0.286076
H	 0.2735972013	-0.1418294962	-1.1452433051	 0.100544
H	 0.5929601625	-0.6497087428	 0.5277416576	 0.079842
H	-1.2984363351	-1.2586389398	 2.0655612631	 0.113044
H	-3.0049822867	-0.8117785404	 1.6609443239	 0.115575
H	-1.1438601663	-2.756601247	 0.0414709697	 0.094029
H	-3.3530054196	-2.869891199	-1.4171267441	 0.079405
H	-4.5371648407	-0.518711986	-1.5642303965	 0.114394
H	-4.3027497538	-0.5405342518	 0.2144264708	 0.098162
H	-2.348574944	 0.9637730743	-1.4935324535	 0.085267
82.9941	145.8456	245.4924	275.9515	341.0546	397.6475	460.3166	525.5735	614.7494	657.3671	709.4451	773.9054	835.6126	857.8999	878.6687	900.23	923.6942	936.2138	973.4978	985.4966	1025.5584	1031.1148	1058.1381	1066.6793	1084.2863	1091.257	1113.8662	1183.3042	1206.1567	1222.321	1239.7051	1256.5249	1279.2826	1292.4442	1299.3154	1324.9456	1388.1842	1461.085	1485.3958	1514.9454	1524.2697	2965.1646	3001.96	3091.5023	3127.766	3129.2147	3139.489	3155.0076	3179.4742	3211.5254	3825.1919
OCC12CC1C1CC2O1	OC[C@]12C[C@H]1[C@H]1C[C@@H]2O1	
InChI=1S/C7H10O2/c8-3-7-2-4(7)5-1-6(7)9-5/h4-6,8H,1-3H2	InChI=1S/C7H10O2/c8-3-7-2-4(7)5-1-6(7)9-5/h4-6,8H,1-3H2/t4-,5+,6-,7+/m0/s1
