14
gdb 130063	4.00797	1.01953	0.9192	3.2816	69.7	-0.2292	-0.0168	0.2123	1240.9042	0.103113	-429.054841	-429.046846	-429.045902	-429.088463	28.511	
N	-0.1137931177	 1.319844755	 0.0195817621	-0.590665
C	 0.0057159135	-0.0592573127	-0.0085336165	 0.342433
N	-1.0546916238	-0.8653435292	-0.0127362215	-0.308504
N	-0.509047172	-2.0902347999	 0.0575470036	 0.145896
C	-1.3157461195	-3.2839708127	-0.0292607279	-0.269123
C	-1.7114504915	-3.6137606703	-1.4076159844	 0.281027
N	-2.0292668793	-3.8854097236	-2.4836543415	-0.293336
N	 0.8147457566	-2.1350828138	 0.075510608	-0.21042
C	 1.1742759556	-0.8547384962	 0.0473102644	-0.111061
H	 0.6281683635	 1.8088587736	-0.459979244	 0.256772
H	-1.0236309294	 1.6413507293	-0.2817703255	 0.262223
H	-0.7296619631	-4.1059276373	 0.3872310934	 0.187106
H	-2.2141334517	-3.1434032925	 0.5775364711	 0.182153
H	 2.2115276189	-0.5624982298	 0.0788953388	 0.125499
43.5351	70.583	229.4658	259.4633	287.0778	339.5591	366.5821	442.5481	493.5556	636.4649	657.6811	705.8435	747.4299	810.94	842.4796	927.6353	961.0931	1003.7137	1046.3206	1129.468	1184.3064	1251.7426	1362.9163	1376.7813	1391.8699	1431.8848	1444.2297	1491.7664	1593.4497	1654.2833	2370.2811	3078.9781	3135.0756	3270.9971	3561.5634	3659.7978
NC1=NN(CC#N)N=C1	Nc1nn(CC#N)nc1	
InChI=1S/C4H5N5/c5-1-2-9-7-3-4(6)8-9/h3H,2H2,(H2,6,8)	InChI=1S/C4H5N5/c5-1-2-9-7-3-4(6)8-9/h3H,2H2,(H2,6,8)
