15
gdb 42248	2.84051	1.13752	1.00064	2.8814	81.15	-0.2522	-0.0616	0.1906	1217.6843	0.109295	-383.419313	-383.410324	-383.40938	-383.453572	32.799	
O	 0.0783866065	-0.0562662071	-0.5024202762	-0.305697
C	-0.006793559	 1.114650541	-0.1930018462	 0.256271
C	 1.1683846264	 1.9034652285	 0.1363981988	 0.243395
C	 2.1362592027	 2.5682511981	 0.4018269945	-0.411101
C	-1.3045150256	 1.8451502177	-0.1099250878	-0.133597
C	-2.5105953958	 1.2407364687	-0.7808663777	-0.294307
C	-2.4548494857	 1.2214740466	 0.7216893584	-0.188329
C	-2.2808811177	 0.0031823048	 1.452914163	 0.360053
C	-2.1651418441	-1.0056281435	 2.0961490503	-0.461018
H	 3.0027212631	 3.137887968	 0.6357990891	 0.214833
H	-1.2307528507	 2.9241187719	-0.0429143101	 0.108972
H	-3.2148577528	 1.9122915826	-1.2574077451	 0.125436
H	-2.3325027984	 0.2963057395	-1.2813085441	 0.157174
H	-3.0577794712	 1.9690629441	 1.2292464728	 0.126104
H	-2.0512164176	-1.9052927109	 2.6483394004	 0.201814
42.413	107.8645	140.7171	189.6133	228.3986	274.9042	292.0588	451.6186	515.6677	540.6203	601.0265	610.5909	644.6468	657.4452	699.4371	738.8295	767.0038	808.3508	840.3007	899.9501	984.1187	1063.9858	1093.3012	1114.3731	1126.5664	1147.6605	1213.5771	1379.0432	1400.8018	1467.4621	1751.7769	2212.1152	2242.0978	3146.1022	3148.5856	3185.9674	3246.3021	3494.6314	3505.1449
O=C(C#C)C1CC1C#C	O=C(C#C)[C@H]1C[C@H]1C#C	
InChI=1S/C8H6O/c1-3-6-5-7(6)8(9)4-2/h1-2,6-7H,5H2	InChI=1S/C8H6O/c1-3-6-5-7(6)8(9)4-2/h1-2,6-7H,5H2/t6-,7+/m1/s1
