15
gdb 124395	3.33654	1.19856	0.93394	3.2695	71.77	-0.2712	-0.0412	0.23	1200.1324	0.110844	-416.752676	-416.744326	-416.743382	-416.786281	30.356	
C	 0.0872430134	 1.513457686	 0.1465077292	-0.389326
C	-0.0484080102	-0.0140635546	-0.0634423193	-0.285275
C	-1.4491978099	-0.4356502559	-0.0453334219	 0.329021
C	-2.60630483	-0.7594852771	-0.0360579487	-0.459556
C	 0.6275758514	-0.4543329646	-1.3333507985	 0.268995
C	 0.1565541735	-1.0372494159	-2.4656329229	-0.040611
O	 1.166001291	-1.2226204377	-3.3129522079	-0.166142
N	 2.3330551924	-0.7220378492	-2.6577026161	-0.006961
N	 1.9836765808	-0.2921260121	-1.5297524907	-0.179073
H	 1.1427899799	 1.7944082326	 0.1321265883	 0.14464
H	-0.4325891308	 2.0554817862	-0.6474415304	 0.132464
H	-0.3466847965	 1.8006683279	 1.1070301099	 0.130882
H	 0.4695936921	-0.5093103472	 0.7693401682	 0.135875
H	-3.6273989699	-1.0514181409	-0.0124077464	 0.204634
H	-0.8238153573	-1.3582163574	-2.7740307128	 0.180433
47.6591	119.7904	163.0685	201.1957	236.8223	323.8377	391.9167	464.3103	535.7582	633.8099	634.9932	642.8667	657.1721	694.7671	740.1271	859.9213	872.8904	984.08	1006.1895	1054.43	1079.3073	1114.4017	1145.1365	1225.0602	1303.8095	1312.0351	1354.487	1404.4702	1464.1677	1493.3616	1497.8574	1616.9443	2240.5444	3014.6035	3052.5329	3133.7916	3138.4919	3297.2022	3500.9241
CC(C#C)C1=CON=N1	C[C@@H](C#C)c1conn1	
InChI=1S/C6H6N2O/c1-3-5(2)6-4-9-8-7-6/h1,4-5H,2H3	InChI=1S/C6H6N2O/c1-3-5(2)6-4-9-8-7-6/h1,4-5H,2H3/t5-/m0/s1
