17
gdb 19264	3.22305	1.83544	1.3392	3.5793	68.58	-0.2339	-0.0181	0.2158	947.4774	0.14187	-363.83372	-363.825982	-363.825038	-363.865988	28.662	
C	 0.064318181	 1.5057049365	 0.1398402514	-0.382352
C	 0.0266290275	 0.0033602194	-0.1634420282	-0.202038
C	-1.3772507969	-0.5802686628	-0.031156133	-0.100398
C	-1.5874365511	-2.1059509822	-0.0894710157	-0.076484
N	-0.8496481948	-2.663831386	 1.0489540483	-0.325767
C	-2.2485766514	-2.1410280461	 1.2599717636	-0.186191
C	-2.0766062203	-0.6408130876	 1.367424375	 0.445288
O	-2.4584830612	 0.1934749257	 2.1351681787	-0.314111
H	 1.08518806	 1.8931801187	 0.0704827	 0.110901
H	-0.5553375928	 2.06919673	-0.5668951533	 0.110802
H	-0.3132458064	 1.7125219331	 1.1452047158	 0.143223
H	 0.3935483927	-0.1808922124	-1.1816874685	 0.093526
H	 0.6949536707	-0.5379819067	 0.513117973	 0.122828
H	-2.0785492637	-0.0704587546	-0.7058962493	 0.099481
H	-1.8357601885	-2.7013423517	-0.9584809333	 0.106747
H	-0.9393017101	-3.6798168467	 1.017754027	 0.240079
H	-3.0218954248	-2.7832723665	 1.6614140185	 0.114468
87.8536	120.6845	171.5796	210.1761	267.4765	345.2806	460.756	528.9735	613.7393	709.067	749.0069	801.7825	829.7469	856.4579	881.889	920.8874	974.4337	989.5278	1042.4265	1054.5423	1094.9596	1108.6261	1108.94	1158.9961	1183.127	1255.993	1297.1928	1314.0836	1326.927	1359.5615	1377.2747	1415.7082	1493.5845	1499.7449	1510.126	1890.3692	3022.023	3027.7737	3035.1931	3080.6538	3103.5563	3119.8919	3197.5161	3208.9036	3466.716
CCC1C2NC2C1=O	CC[C@H]1[C@H]2N[C@H]2C1=O	
InChI=1S/C6H9NO/c1-2-3-4-5(7-4)6(3)8/h3-5,7H,2H2,1H3	InChI=1S/C6H9NO/c1-2-3-4-5(7-4)6(3)8/h3-5,7H,2H2,1H3/t3-,4+,5+/m0/s1
