21
gdb 109663	3.06687	0.96979	0.92616	3.7606	75.36	-0.2443	0.0558	0.3001	1368.5839	0.180622	-461.331476	-461.321072	-461.320128	-461.36652	38.414	
C	 0.000631732	 1.6259784679	-0.0923187029	-0.474928
C	-0.0611328096	 0.1198523972	 0.0653040928	 0.295845
C	-1.2994750277	-0.5234870382	-0.5204771377	-0.14102
O	-1.333744747	-0.2548967289	-1.9155034683	-0.417345
C	 1.2145948583	-0.683531661	-0.0132834369	 0.080376
O	 2.4267629104	-0.0114022232	-0.1643973568	-0.431129
C	 0.4930934431	-0.567660427	 1.3146666099	-0.174925
C	 1.1832732212	 0.1918625886	 2.4277644366	-0.116498
O	 2.5171311145	-0.2916560617	 2.6670834334	-0.416625
H	 1.01463372	 1.9992896696	 0.0578456742	 0.135273
H	-0.3028434791	 1.8873348938	-1.1093255234	 0.138794
H	-0.6754930885	 2.1349358484	 0.6048600345	 0.102498
H	-1.2792655966	-1.6089815386	-0.3302815972	 0.077607
H	-2.1947330022	-0.1207158667	-0.0181670704	 0.084402
H	-2.1898951386	-0.5320238206	-2.2541713559	 0.287009
H	 1.1656296771	-1.6391009894	-0.5358103966	 0.08405
H	 2.9147222478	-0.1326245683	 0.6633373128	 0.294351
H	-0.0468581755	-1.4530096254	 1.6451131497	 0.075694
H	 1.311862923	 1.245766902	 2.1778889603	 0.128101
H	 0.5923559131	 0.1446848951	 3.3523927546	 0.100859
H	 2.4518512845	-1.2252772636	 2.8946571273	 0.287612
83.8699	98.4829	164.4511	174.5033	198.2647	225.9768	239.7419	280.5375	311.5063	337.456	352.6469	406.0799	500.9396	551.7273	606.6786	681.4632	722.5463	826.7503	851.7556	963.5552	975.0544	984.8101	1005.6336	1041.8671	1057.0291	1085.7944	1110.3031	1137.2423	1171.9519	1208.832	1233.2936	1248.3738	1280.91	1348.4462	1351.3975	1374.5235	1399.4703	1404.9877	1426.0786	1446.2283	1459.3483	1491.7296	1502.1537	1515.4955	1517.2814	2955.2401	2984.3053	3014.1384	3033.851	3093.2197	3107.2419	3115.439	3128.6625	3139.8445	3711.9041	3811.1873	3831.5985
CC1(CO)C(O)C1CO	C[C@@]1(CO)[C@@H](O)[C@H]1CO	
InChI=1S/C6H12O3/c1-6(3-8)4(2-7)5(6)9/h4-5,7-9H,2-3H2,1H3	InChI=1S/C6H12O3/c1-6(3-8)4(2-7)5(6)9/h4-5,7-9H,2-3H2,1H3/t4-,5+,6+/m1/s1
