21
gdb 90035	3.26349	1.06239	0.937	1.9782	78.56	-0.2413	0.0709	0.3122	1319.6666	0.181339	-424.196324	-424.187124	-424.18618	-424.230582	34.734	
C	-0.3638882816	 1.4318067456	 0.1041098914	-0.405144
C	 0.1518370721	 0.0135731918	-0.0263157049	 0.095037
O	 1.3987047938	-0.0561332269	-0.7630411561	-0.297698
C	 2.0246950669	-0.8254691358	 0.2799316146	-0.128394
C	 0.7933121427	-0.6787542226	 1.1968415778	 0.288003
C	 0.9597854789	-0.0044198762	 2.5833008749	-0.310633
C	 0.8239352155	-1.3953971985	 3.2329863915	 0.145647
O	 0.0502162565	-1.3991959356	 4.4087951121	-0.431655
C	 0.1935779385	-1.9135874451	 1.9093453153	-0.344942
H	 0.3675428152	 2.0713871413	 0.6068055394	 0.121362
H	-0.5608447628	 1.8497594621	-0.8881387229	 0.127048
H	-1.2998624881	 1.4534851313	 0.673133014	 0.116273
H	-0.6091578044	-0.6213449686	-0.5066302817	 0.066483
H	 2.2407648075	-1.8546634026	-0.0412771743	 0.092181
H	 2.9555306985	-0.3610186415	 0.631204069	 0.098191
H	 1.8700533496	 0.5692197547	 2.7737728396	 0.10215
H	 0.0892937825	 0.6053563441	 2.843248844	 0.115101
H	 1.8096573882	-1.8523929551	 3.4025837813	 0.068394
H	 0.0183212196	-2.2988524887	 4.7495565008	 0.282281
H	-0.8981492887	-1.8487126509	 1.9666589267	 0.106137
H	 0.4796794096	-2.9039940329	 1.5434316776	 0.09418
61.2747	74.9977	178.8544	218.303	257.9431	269.0142	297.3503	348.0095	407.2129	449.8992	487.3218	509.7425	701.3029	770.9182	828.0967	872.1242	891.9473	900.7356	936.1797	982.4237	1010.7003	1024.4201	1047.8342	1072.2065	1093.4112	1123.1553	1157.9254	1164.3507	1188.4669	1209.2316	1224.7118	1240.055	1264.382	1289.2447	1302.8541	1325.6106	1367.5817	1384.3124	1403.8743	1430.8316	1464.0765	1482.2551	1488.8894	1494.3266	1523.7193	2974.5344	2990.413	2993.2844	3033.7968	3034.8641	3042.463	3057.453	3100.9645	3104.9153	3113.8273	3115.1399	3814.99
CC1OCC11CC(O)C1	C[C@H]1OC[C@]21C[C@@H](O)C2	
InChI=1S/C7H12O2/c1-5-7(4-9-5)2-6(8)3-7/h5-6,8H,2-4H2,1H3	InChI=1S/C7H12O2/c1-5-7(4-9-5)2-6(8)3-7/h5-6,8H,2-4H2,1H3/t5-,6-,7+/m1/s1
