21
gdb 104669	2.12538	1.28158	1.15942	2.097	75.08	-0.2275	0.0557	0.2832	1230.8582	0.17915	-461.31991	-461.308982	-461.308038	-461.356155	38.917	
C	 0.0449346469	 0.6966897994	 0.8130069619	-0.273818
O	 0.1515320289	-0.5978397031	 0.2389735467	-0.299425
C	 0.4690869041	-0.6175311077	-1.1362713313	 0.337011
C	 1.7582859799	 0.0619697155	-1.5543125076	-0.164501
O	 1.6468400769	 1.4564175094	-1.8142093628	-0.414541
C	 0.0370993222	-1.8994680748	-1.8340055646	-0.138951
C	-0.5497834635	-3.0714423103	-1.0792628473	-0.403796
C	-0.7418357817	-0.6140673369	-2.0442879254	 0.073653
O	-2.0061542511	-0.446319839	-1.4762120501	-0.437598
H	 1.0326732246	 1.1572152382	 0.9654875225	 0.108961
H	-0.5776141344	 1.3639881576	 0.2034725219	 0.135514
H	-0.4158364217	 0.5713926269	 1.7963878844	 0.132849
H	 2.5345404824	-0.1504664725	-0.8029639236	 0.100008
H	 2.0942358486	-0.3757450462	-2.4988027979	 0.115161
H	 1.519664073	 1.9153001001	-0.9800518922	 0.282302
H	 0.6803585351	-2.1848914544	-2.6633914189	 0.085202
H	-1.1818629779	-2.7520623012	-0.2494284932	 0.11812
H	-1.1598567342	-3.6863420503	-1.7487303433	 0.122651
H	 0.2404959914	-3.7045468683	-0.6634628244	 0.11939
H	-0.6778852331	-0.1062255971	-3.0007180827	 0.111161
H	-1.9067126866	-0.6089751954	-0.5302595023	 0.290645
50.3984	81.6411	115.1852	141.3498	166.4988	201.5315	238.2882	254.3772	288.051	301.0454	355.883	398.9913	432.2487	558.1463	567.7331	634.7237	714.9971	815.4908	895.7999	904.4119	973.8833	1018.7639	1053.9102	1068.2693	1098.1804	1110.1522	1140.9692	1149.6509	1178.5393	1184.4531	1213.0749	1246.1857	1299.7603	1317.8619	1378.4641	1385.9931	1418.9189	1421.0143	1462.6147	1474.0978	1481.2832	1489.0022	1498.6598	1504.5272	1517.6102	2982.7934	2989.8374	3042.8345	3051.0342	3085.3373	3099.9467	3111.8036	3124.5775	3140.889	3170.9599	3784.8826	3850.0971
COC1(CO)C(C)C1O	CO[C@@]1(CO)[C@@H](C)[C@H]1O	
InChI=1S/C6H12O3/c1-4-5(8)6(4,3-7)9-2/h4-5,7-8H,3H2,1-2H3	InChI=1S/C6H12O3/c1-4-5(8)6(4,3-7)9-2/h4-5,7-8H,3H2,1-2H3/t4-,5+,6-/m0/s1
