18
gdb 93454	2.90405	1.41844	0.98932	1.623	77.81	-0.2464	-0.0074	0.2389	1179.2022	0.149191	-435.290199	-435.281819	-435.280875	-435.323401	31.883	
C	-0.0416095501	 1.5408505281	-0.0738683211	-0.397735
C	 0.0877302925	 0.0298684627	 0.0113841248	 0.061619
O	 0.7833463872	-0.4220553092	-1.1413360536	-0.250055
C	 0.8651916797	-1.8272785145	-1.196665488	-0.142567
C	 1.6046862946	-2.4035061539	-0.0060541799	 0.371039
N	 2.2349198386	-3.5026205461	-0.1186625561	-0.5184
N	 1.4907369355	-1.6346483416	 1.1478181736	-0.393785
C	 0.7994133441	-0.431713505	 1.2816719485	 0.384203
N	 0.7122618002	 0.2484769401	 2.353573584	-0.520258
H	 0.9485632549	 1.9999715436	-0.12874093	 0.131888
H	-0.6054058899	 1.8084232367	-0.9706557138	 0.120309
H	-0.5506559006	 1.9226014033	 0.8111848005	 0.148812
H	-0.918227624	-0.4287428026	 0.0257824517	 0.093351
H	-0.1411747689	-2.2784741581	-1.2400498168	 0.114845
H	 1.40227348	-2.101077522	-2.1049208395	 0.148051
H	 2.6507196066	-3.8016883847	 0.7664398142	 0.205345
H	 1.9896900072	-1.9627419747	 1.9648519225	 0.238
H	 1.2021317124	-0.196220692	 3.133288549	 0.205339
61.2908	113.9402	203.8722	243.7054	297.8995	358.7069	382.0402	431.3343	487.7079	520.6294	551.7854	594.6515	660.8829	704.2826	807.3927	862.6949	874.9759	892.8022	915.0454	1036.9579	1053.6141	1094.2839	1124.9225	1146.7166	1160.4292	1174.6489	1270.4559	1320.6035	1354.4009	1371.1459	1386.4647	1407.1223	1420.1016	1428.0392	1477.8903	1482.1182	1494.4446	1731.9128	1741.7575	2936.2382	2963.6066	3061.1822	3134.014	3136.3686	3161.0801	3438.9856	3440.4377	3571.5941
CC1OCC(=N)NC1=N	C[C@H]1OC[C]([NH])N[C]1[NH]	
InChI=1S/C5H9N3O/c1-3-5(7)8-4(6)2-9-3/h3H,2H2,1H3,(H3,6,7,8)	InChI=1S/C5H9N3O/c1-3-5(7)8-4(6)2-9-3/h3H,2H2,1H3,(H3,6,7,8)/t3-/m1/s1
