23
gdb 96006	2.86309	1.16841	0.93503	1.5901	85.28	-0.2377	0.0835	0.3211	1341.5941	0.206667	-388.288257	-388.279089	-388.278145	-388.322721	34.908	
C	-0.1594532236	 1.573150807	-0.0628481819	-0.394739
C	-0.1478053679	 0.082763689	 0.2702746564	 0.139148
O	-0.1020677366	-0.6625556174	-0.9559041403	-0.277775
C	 1.0606023351	-1.4834367905	-1.0046992743	-0.070281
C	 2.0307760574	-0.897642892	 0.0192566867	-0.242287
C	 1.0622029019	-0.4111943017	 1.1121390184	-0.017819
C	 1.6414581365	 0.5772768236	 2.095863879	 0.020892
C	 1.0251169683	 0.7514517371	 3.4636314346	-0.274933
C	 2.3718442763	 0.0870644571	 3.3216032844	-0.282208
H	 0.7795420815	 1.8861977609	-0.5309963736	 0.110626
H	-0.9689734414	 1.7796270975	-0.7683139809	 0.121119
H	-0.3209783006	 2.176678223	 0.8355881877	 0.11385
H	-1.0867183956	-0.1681737396	 0.7823671874	 0.070629
H	 0.805086771	-2.5241496731	-0.7472688576	 0.08569
H	 1.4444006571	-1.4772686433	-2.0304313842	 0.100965
H	 2.7601968666	-1.6236877977	 0.3866971822	 0.100273
H	 2.5817845201	-0.0519777483	-0.4082711272	 0.102138
H	 0.7276575134	-1.2922347624	 1.6767976008	 0.068411
H	 2.0433759755	 1.479740321	 1.6433945955	 0.083055
H	 0.9837439064	 1.7479075717	 3.889219201	 0.1114
H	 0.1773234991	 0.124824056	 3.720817894	 0.111062
H	 2.4264034707	-0.9847416658	 3.483868423	 0.109759
H	 3.2514604987	 0.6293825877	 3.6499968089	 0.111025
51.2297	84.3483	150.4863	161.7185	246.1468	270.6208	297.7602	405.8149	418.0625	457.5088	598.4555	696.7073	762.0005	796.9827	830.1161	859.8225	874.3923	897.7784	920.2481	956.9006	989.3459	999.1782	1037.4859	1056.4264	1064.783	1079.5495	1091.536	1134.3186	1138.9137	1155.2585	1192.3039	1198.9189	1206.8122	1227.7143	1239.8639	1294.3266	1316.6024	1323.6497	1350.6897	1384.7569	1392.2243	1404.7706	1435.1185	1470.0658	1486.0276	1489.2685	1497.3623	1506.5089	1528.6902	2969.6662	2995.6189	3014.2312	3036.6158	3042.3919	3064.7905	3104.052	3109.5533	3116.9685	3128.6819	3133.1773	3142.6772	3206.5196	3221.8055
CC1OCCC1C1CC1	C[C@H]1OCC[C@H]1C1CC1	
InChI=1S/C8H14O/c1-6-8(4-5-9-6)7-2-3-7/h6-8H,2-5H2,1H3	InChI=1S/C8H14O/c1-6-8(4-5-9-6)7-2-3-7/h6-8H,2-5H2,1H3/t6-,8-/m1/s1
