18
gdb 33094	4.50955	0.89317	0.75367	2.6756	76.66	-0.1734	0.0504	0.2239	1501.184	0.148278	-435.302167	-435.292837	-435.291893	-435.336927	33.8	
C	 0.0030680573	 1.480401117	-0.0080764783	-0.388802
C	-0.0043801716	-0.0375044251	 0.0016283226	-0.032349
O	 0.6805031525	-0.4749569165	-1.1732088733	-0.288813
C	 0.7783155044	-1.808042951	-1.3511094	 0.376554
C	 1.4031853339	-2.4245424131	-2.3999032686	-0.244133
N	 1.2480963764	-3.7898068341	-2.1312564928	-0.286903
C	 0.5531573228	-3.8979498293	-0.9733989301	 0.392642
N	 0.14714255	-5.1287035534	-0.4576372599	-0.595473
N	 0.2583079259	-2.7193313786	-0.4622851193	-0.398596
H	 1.0276486345	 1.8635929376	-0.0057617515	 0.124112
H	-0.5039505162	 1.8651888282	-0.8976957558	 0.124726
H	-0.5124224251	 1.8637912228	 0.8777172782	 0.113491
H	 0.4964777196	-0.4355334794	 0.8925307963	 0.106312
H	-1.0271411654	-0.4332707108	 0.0037235184	 0.108261
H	 1.9424745232	-2.0560900156	-3.2531265378	 0.121264
H	 1.4795310504	-4.54474849	-2.7531001481	 0.261032
H	 0.9100529826	-5.7840712242	-0.3308620992	 0.247071
H	-0.3220807651	-4.9821879747	 0.4274211392	 0.259603
56.4059	61.307	142.0026	211.9582	233.9797	247.2429	318.873	323.4144	383.7553	444.8808	513.7749	598.9889	659.835	676.7925	725.3936	777.297	806.5801	811.1809	917.044	1013.9008	1023.4859	1085.7408	1100.0334	1133.5088	1150.7491	1184.0468	1268.894	1290.2158	1320.767	1387.9158	1397.6446	1417.7008	1483.0187	1498.1968	1522.0987	1526.8301	1598.1772	1638.134	1651.6375	3024.5452	3043.0307	3058.5512	3117.1526	3119.9933	3298.4046	3523.0583	3621.9191	3676.4438
CCOC1=CNC(N)=N1	CCOc1c[nH]c(N)n1	
InChI=1S/C5H9N3O/c1-2-9-4-3-7-5(6)8-4/h3H,2H2,1H3,(H3,6,7,8)	InChI=1S/C5H9N3O/c1-2-9-4-3-7-5(6)8-4/h3H,2H2,1H3,(H3,6,7,8)
