14
gdb 75737	2.64648	1.58641	1.01789	4.8284	69.24	-0.2467	-0.0771	0.1697	1078.3674	0.100802	-473.875468	-473.867331	-473.866387	-473.908212	30.273	
N	 0.0806799521	 1.3409650421	 0.1633198386	-0.583278
C	-0.0743020515	 0.0146467613	 0.051830235	 0.299398
C	-1.1737600519	-0.7954887522	 0.0641267444	-0.321596
C	-0.7682178078	-2.179432726	-0.1291049402	 0.347843
O	-1.4451169182	-3.1535617525	-0.3939406619	-0.363354
C	 0.7660621427	-2.2643065829	-0.0090900518	-0.063675
O	 1.3399042832	-3.1338046712	-0.9399095363	-0.425708
C	 1.1733983334	-0.8052700365	-0.160576653	 0.33564
O	 2.2517420823	-0.322589684	-0.4004211972	-0.315552
H	 1.0029770106	 1.7059796176	-0.0252148786	 0.2822
H	-0.6982801167	 1.9757195873	 0.1752354675	 0.275385
H	-2.2083387283	-0.4870164481	 0.1437134503	 0.118794
H	 1.0052268054	-2.5601299914	 1.0300501437	 0.114921
H	 0.6509471746	-3.7882077434	-1.1297972505	 0.298981
72.1114	163.7857	230.6307	273.1724	280.0743	321.678	378.5042	411.0162	490.358	526.7905	582.0361	594.4858	644.3672	700.0418	716.0683	855.5779	878.1169	901.9635	1033.3304	1079.9317	1148.2829	1189.6693	1245.8779	1288.5344	1340.2556	1390.8734	1412.733	1606.8509	1688.4406	1788.0065	1843.6483	2929.6593	3215.1063	3581.2039	3719.0058	3724.9471
NC1=CC(=O)C(O)C1=O	NC1=CC(=O)[C@@H](O)C1=O	
InChI=1S/C5H5NO3/c6-2-1-3(7)5(9)4(2)8/h1,5,9H,6H2	InChI=1S/C5H5NO3/c6-2-1-3(7)5(9)4(2)8/h1,5,9H,6H2/t5-/m1/s1
