18
gdb 65822	2.5607	1.32028	1.23111	3.0918	79.15	-0.2582	0.0253	0.2835	1129.9842	0.146601	-401.944669	-401.935928	-401.934984	-401.977905	33.514	
C	 0.0075448706	 1.5201820627	 0.0504858345	-0.432493
C	 0.0207272814	-0.0049518746	-0.0336418952	 0.162014
C	 0.8207843302	-0.5695503564	-1.2349161344	-0.256795
C	 1.3477505487	-1.8956706694	-0.6796558734	-0.304092
C	 1.4964198784	-1.6060238228	 0.7977603415	 0.413915
N	 2.2010085288	-2.2560754844	 1.6172497997	-0.540665
O	 0.7479621077	-0.503973908	 1.1233761181	-0.255926
C	-1.3442353213	-0.5458786838	-0.005838588	 0.374874
C	-2.4632218979	-0.9835632369	 0.0028974886	-0.504578
H	 1.0337885657	 1.8956709929	 0.0787135751	 0.127029
H	-0.5039903025	 1.9388208135	-0.8204100301	 0.131815
H	-0.5156920687	 1.8482437809	 0.9512736682	 0.141262
H	 0.2015584348	-0.6716081036	-2.1266313918	 0.121906
H	 1.6464990551	 0.1130343808	-1.4590825739	 0.113924
H	 0.6145174849	-2.6984916809	-0.8121989378	 0.142331
H	 2.2914399997	-2.2286618084	-1.1113949274	 0.137431
H	 2.1122483956	-1.8638581897	 2.5564202348	 0.222031
H	-3.4514230114	-1.3732075219	 0.0201698215	 0.206017
78.3347	126.6856	191.1787	200.7949	236.56	300.1685	401.1648	448.9188	474.7191	510.929	562.1363	619.6812	639.5842	659.763	670.2864	742.3404	814.6213	894.2344	902.7614	917.7635	931.1452	1005.2411	1027.4174	1081.4438	1105.181	1124.1662	1191.4378	1219.1381	1257.8939	1304.6025	1326.122	1346.6873	1406.4791	1470.3535	1480.4888	1489.7028	1496.544	1781.652	2234.6387	3049.821	3058.4266	3063.7441	3128.4919	3131.4814	3136.6065	3138.7769	3470.6488	3499.6212
CC1(CCC(=N)O1)C#C	C[C@]1(CC[C]([NH])O1)C#C	
InChI=1S/C7H9NO/c1-3-7(2)5-4-6(8)9-7/h1,8H,4-5H2,2H3	InChI=1S/C7H9NO/c1-3-7(2)5-4-6(8)9-7/h1,8H,4-5H2,2H3/t7-/m1/s1
