14
gdb 15097	8.97583	0.75435	0.71572	2.233	79.8	-0.2444	-0.0145	0.2298	1498.7277	0.104927	-345.323302	-345.31516	-345.314215	-345.356583	28.879	
C	 0.0586836092	-3.7292413534	 0.1974824238	-0.548603
C	 0.0400850242	-2.5256943091	 0.1017385044	 0.294276
C	 0.0168203242	-1.1695206691	-0.0074400578	-0.24716
C	-0.0061801967	 0.0362771219	-0.1026543215	 0.38632
C	-0.0161081166	 1.4862740676	-0.2305628429	-0.416571
C	 1.3807257775	 2.089005201	-0.2618717524	 0.107468
C	 1.6300090171	 3.450677282	 0.2228176637	-0.179686
O	 2.0077904572	 2.3087605538	 0.9959177304	-0.220399
H	 0.0774045486	-4.7871628819	 0.2837704921	 0.191308
H	-0.544254367	 1.7689459801	-1.1519062086	 0.14235
H	-0.5704444186	 1.9332212	 0.6038666907	 0.145582
H	 2.0389456431	 1.6791091381	-1.028082432	 0.108097
H	 2.4520705373	 4.0317317348	-0.1916955025	 0.120703
H	 0.8052370205	 4.0360071742	 0.6279942527	 0.116315
53.3877	83.7131	153.9317	206.8047	339.8348	350.3824	368.7279	476.3685	536.1557	540.3921	591.7227	597.8844	738.6823	791.2305	860.3306	935.1655	958.9006	1094.1557	1105.2489	1159.3688	1167.2764	1179.1722	1242.5181	1293.4465	1318.1375	1434.9512	1448.7826	1530.7875	2183.8319	2367.5907	3014.2349	3057.3847	3084.6024	3114.6768	3171.9801	3505.7853
C#CC#CCC1CO1	C#CC#CC[C@H]1CO1	
InChI=1S/C7H6O/c1-2-3-4-5-7-6-8-7/h1,7H,5-6H2	InChI=1S/C7H6O/c1-2-3-4-5-7-6-8-7/h1,7H,5-6H2/t7-/m0/s1
