14
gdb 32051	4.05783	1.22285	0.94529	5.8341	66.84	-0.2636	-0.0485	0.2151	1160.1392	0.103031	-470.078368	-470.070742	-470.069798	-470.110994	27.211	
C	 0.0409622719	 1.4075304771	 0.0068432997	-0.239617
O	-0.0400222948	-0.0297224995	 0.0037253199	-0.253334
C	-1.2529480584	-0.5591030817	 0.0113114532	 0.56799
N	-2.3421169049	 0.1591097659	 0.0212962639	-0.386784
C	-3.489142771	-0.5846865165	 0.0279255086	 0.075197
N	-3.6297527204	-1.8777749501	 0.025522518	-0.310206
C	-2.4826283975	-2.6542171796	 0.0149501292	 0.448355
O	-2.4348036963	-3.8585880292	 0.011451267	-0.364384
N	-1.2670364028	-1.9062101127	 0.0079066669	-0.407805
H	 1.1072497952	 1.6300093084	-0.0008287269	 0.146791
H	-0.4483530977	 1.8177242532	-0.8783485025	 0.156094
H	-0.4345490888	 1.8130752134	 0.9016538683	 0.156076
H	-4.4036930091	 0.006368576	 0.0361115481	 0.133323
H	-0.4004692554	-2.4276925347	 0.0001154966	 0.278304
93.7718	135.0979	163.1107	222.1728	227.1492	403.1492	439.643	510.7636	593.3811	653.2751	682.0768	769.5132	820.466	825.759	905.0531	1000.306	1030.0239	1070.2115	1102.6405	1179.5516	1197.3921	1296.4042	1319.1574	1420.1488	1458.6394	1479.8012	1494.952	1500.8713	1592.7501	1658.6352	1839.7769	3064.7961	3148.6226	3151.3113	3173.1135	3602.1083
COC1=NC=NC(=O)N1	COc1ncnc(=O)[nH]1	
InChI=1S/C4H5N3O2/c1-9-4-6-2-5-3(8)7-4/h2H,1H3,(H,5,6,7,8)	InChI=1S/C4H5N3O2/c1-9-4-6-2-5-3(8)7-4/h2H,1H3,(H,5,6,7,8)
