22
gdb 88673	2.882	1.08165	0.98456	3.0486	83.73	-0.222	0.0782	0.3002	1337.2969	0.191962	-404.30484	-404.29505	-404.294106	-404.339377	37.483	
C	-0.1943927034	 1.4976508324	-0.0689449691	-0.449849
C	 0.0502322121	 0.0051835982	 0.0366772789	 0.340366
C	-1.1577192028	-0.8548692699	-0.2771371663	-0.439916
C	 1.4177011286	-0.5265779164	-0.2484860004	-0.294773
N	 0.8984105293	-0.5232958109	 1.1187173896	-0.131334
C	 1.5130178019	 0.3409926272	 2.0904653607	-0.011051
C	 0.7446966662	 0.5849837908	 3.3767547478	-0.342042
C	 1.9085497043	-0.3771022892	 3.3608591669	 0.130328
O	 1.6793890277	-1.7459811975	 3.4325557426	-0.432793
H	 0.7064786366	 2.0815731241	 0.1308750281	 0.118561
H	-0.5413043552	 1.7509964756	-1.076396689	 0.121233
H	-0.9689146829	 1.8160274411	 0.6374862197	 0.126256
H	-1.4872394855	-0.7018426721	-1.3109572511	 0.115788
H	-0.9251471457	-1.9135887345	-0.139534757	 0.122785
H	-1.9961933934	-0.6033017773	 0.3821927996	 0.11902
H	 1.5511860248	-1.5032947751	-0.7071611552	 0.11325
H	 2.1983047932	 0.1942815058	-0.4874805381	 0.109603
H	 2.1557170987	 1.1399233625	 1.7222339686	 0.080407
H	 0.8548713517	 1.5496300597	 3.8606536098	 0.109241
H	-0.2430132846	 0.1424327846	 3.4477391743	 0.117731
H	 2.8286911673	-0.0865949348	 3.8587361714	 0.096587
H	 1.2228109509	-1.9629662943	 2.6031015282	 0.280603
56.2362	127.4413	138.5213	176.963	219.6535	233.2614	336.5907	355.9952	385.0033	416.299	450.3681	490.4032	516.7053	597.0801	715.7887	753.8807	803.0428	826.5917	882.3743	915.6586	953.7757	961.9446	1005.4778	1014.0742	1031.6419	1059.4361	1085.3614	1107.3864	1114.1397	1126.5604	1141.7351	1146.3512	1213.1321	1240.4401	1292.0307	1351.489	1366.4579	1389.8322	1410.0751	1421.2444	1438.0038	1476.6942	1480.9963	1487.0692	1496.1951	1504.5889	1516.3477	3029.0429	3036.4347	3089.8741	3090.077	3093.207	3095.4733	3121.3972	3125.9488	3130.5677	3154.8624	3175.0387	3223.8084	3665.4385
CC1(C)CN1C1CC1O	CC1(C)CN1[C@H]1C[C@H]1O	
InChI=1S/C7H13NO/c1-7(2)4-8(7)5-3-6(5)9/h5-6,9H,3-4H2,1-2H3	InChI=1S/C7H13NO/c1-7(2)4-8(7)5-3-6(5)9/h5-6,9H,3-4H2,1-2H3/t5-,6+,8?/m0/s1
