19
gdb 6998	2.4994	2.03672	1.5608	2.7031	72.51	-0.2575	0.0348	0.2924	939.322	0.164045	-365.080362	-365.071526	-365.070581	-365.113225	32.799	
C	-0.3380680612	 1.4862948547	-0.0503199608	-0.411312
C	 0.1242562423	 0.0466361007	-0.0352533319	 0.119937
O	 1.3895790099	-0.1309973484	-0.7668266726	-0.279496
C	 1.9995791555	-0.6910378209	 0.3319908645	 0.422675
N	 3.1641200724	-1.1313597619	 0.4873882871	-0.556643
C	 0.781965942	-0.5829590337	 1.236702243	 0.137589
C	 0.9829562843	 0.319789002	 2.4537270762	-0.443584
C	 0.1990762076	-1.9392553099	 1.63985969	-0.441431
H	 0.4274690396	 2.1613388001	 0.3394232749	 0.129775
H	-0.5731060414	 1.7930251231	-1.0740122056	 0.132849
H	-1.2446086429	 1.6002048376	 0.5533683802	 0.124515
H	-0.6346058469	-0.60593618	-0.480546979	 0.087537
H	 3.7148923896	-1.0418187745	-0.3684088809	 0.223906
H	 1.4256247055	 1.2830186357	 2.1888998425	 0.123788
H	 0.031378167	 0.5054818619	 2.9634794331	 0.114934
H	 1.6588755306	-0.1679026902	 3.1619625041	 0.13928
H	 0.8738277093	-2.4506260198	 2.3323568743	 0.138108
H	-0.7692668646	-1.8111594799	 2.1362743579	 0.114656
H	 0.0555257214	-2.5889693467	 0.7712020528	 0.122915
83.0414	177.682	196.5377	207.5588	219.8336	273.7626	279.0733	310.0815	366.2833	482.0236	532.6713	658.7702	692.5731	734.6974	807.3424	867.7353	870.3782	961.1164	987.5046	1009.6109	1021.4381	1051.8709	1068.7656	1132.9664	1194.8218	1221.4393	1248.4159	1271.7847	1353.4088	1386.17	1400.9183	1413.6158	1423.9419	1476.2354	1483.3094	1485.3694	1497.9698	1502.517	1512.9166	1819.5884	3031.4953	3038.8576	3042.6927	3049.1162	3101.4756	3108.3771	3111.1625	3115.3552	3120.7556	3130.8064	3471.4474
CC1OC(=N)C1(C)C	C[C@H]1O[C]([NH])C1(C)C	
InChI=1S/C6H11NO/c1-4-6(2,3)5(7)8-4/h4,7H,1-3H3	InChI=1S/C6H11NO/c1-4-6(2,3)5(7)8-4/h4,7H,1-3H3/t4-/m1/s1
