15
gdb 27267	3.29906	1.58437	1.08743	1.172	68.46	-0.1901	0.0462	0.2362	1039.7646	0.114983	-453.939399	-453.931752	-453.930807	-453.971537	28.775	
N	 0.1581445268	 1.4278543453	-0.0492422162	-0.615426
C	-0.0220577534	 0.030050672	-0.009194347	 0.113849
C	-1.0916506836	-0.8225886175	-0.0324662332	 0.234496
O	-2.4648054952	-0.8051582818	 0.053405816	-0.298249
C	-2.8168981458	-2.1683260334	-0.230181405	-0.006257
O	-1.6918434504	-3.0096123716	 0.0629009972	-0.286548
C	-0.6274239388	-2.1458162	-0.0283220289	 0.260044
C	 0.7365572344	-2.1491471635	 0.0028842902	-0.233983
N	 1.0960684384	-0.8013111415	 0.0386562137	-0.27682
H	 0.098322182	 1.8510522632	 0.8728221761	 0.245832
H	-0.5454187374	 1.8678204434	-0.6308204307	 0.248156
H	-3.6587231953	-2.4607709643	 0.4008185482	 0.1284
H	-3.0667383995	-2.260818593	-1.2989307552	 0.104209
H	 1.4716392837	-2.933433354	 0.0426932228	 0.125575
H	 2.0019268541	-0.4547239732	-0.229689068	 0.25672
105.0891	157.1779	194.2325	273.7697	296.9486	328.162	452.8179	550.5637	590.9826	608.6199	668.1561	672.386	698.2087	769.016	810.3537	827.4179	931.3394	1053.0828	1068.3015	1089.8363	1145.1075	1152.0169	1220.3558	1227.3636	1284.3965	1318.6501	1409.6692	1451.9933	1498.5952	1526.9265	1626.2515	1652.311	1708.5593	2975.9571	3110.5333	3283.3678	3488.1771	3579.63	3665.394
NC1=C2OCOC2=CN1	Nc1c2OCOc2c[nH]1	
InChI=1S/C5H6N2O2/c6-5-4-3(1-7-5)8-2-9-4/h1,7H,2,6H2	InChI=1S/C5H6N2O2/c6-5-4-3(1-7-5)8-2-9-4/h1,7H,2,6H2
