16
gdb 27559	5.23635	0.97219	0.8677	2.4628	70.84	-0.218	0.0238	0.2418	1303.8736	0.125142	-437.905377	-437.897584	-437.89664	-437.938473	29.28	
O	 0.3163889702	 0.9865008328	-0.9902786678	-0.401956
C	 0.0689447629	-0.1550006653	-0.3503679835	 0.470172
N	-0.9041528306	-0.9673365181	-0.5720463	-0.388948
C	-0.6985344449	-1.9922453086	 0.3654886212	 0.265576
C	 0.4025533332	-1.7071835685	 1.0978046354	-0.146238
O	 0.9227987785	-0.5059214814	 0.6341528015	-0.202406
C	-1.6116348446	-3.1467589971	 0.4334316231	-0.103704
C	-1.2743788547	-4.438406996	-0.2876619407	-0.246679
C	-1.2521329362	-4.384210316	 1.2163078543	-0.273433
H	 1.1059038149	 1.3867461344	-0.6065592613	 0.317022
H	 0.9264951107	-2.1658402022	 1.9163744147	 0.143181
H	-2.6610352158	-2.868662494	 0.4157293051	 0.103776
H	-2.0829430979	-4.9683261926	-0.7782363901	 0.116788
H	-0.3233064415	-4.4834927339	-0.8057690455	 0.118766
H	-0.2854827851	-4.4188241801	 1.7065235524	 0.112323
H	-2.043562269	-4.8799634534	 1.7666623111	 0.11576
40.586	133.9592	171.1399	279.6409	338.2004	360.9277	419.271	504.286	597.6905	665.2676	711.7556	750.8131	754.5047	792.1987	831.5202	901.1436	930.3318	981.6224	1005.7519	1059.2853	1082.5022	1086.7243	1112.5078	1130.3103	1195.4565	1196.2592	1224.736	1249.9214	1257.7418	1410.861	1434.1929	1467.3223	1503.4032	1643.3118	1703.4756	3136.6151	3140.9131	3153.7172	3215.7056	3232.0934	3306.2205	3817.0362
OC1=NC(=CO1)C1CC1	Oc1nc(co1)C1CC1	
InChI=1S/C6H7NO2/c8-6-7-5(3-9-6)4-1-2-4/h3-4H,1-2H2,(H,7,8)	InChI=1S/C6H7NO2/c8-6-7-5(3-9-6)4-1-2-4/h3-4H,1-2H2,(H,7,8)
