23
gdb 109232	2.66241	1.19583	1.07164	0.204	91.65	-0.2155	0.0286	0.2441	1306.5383	0.206307	-351.166829	-351.157568	-351.156624	-351.200908	35.643	
C	 0.0367540033	 1.5218184334	 0.2441549255	-0.372671
C	-0.0521941576	 0.0413886648	-0.1673506522	-0.294715
C	-1.4501433235	-0.506578752	-0.1298404015	 0.354702
C	-2.1613203382	-0.9608869113	-1.1695181456	-0.195446
C	-3.5447281525	-1.4293691885	-0.7742451625	-0.270501
C	-3.5666560474	-1.2507696218	 0.7462029056	-0.066322
C	-2.6036786728	-2.0444850759	 1.5961164908	 0.001865
C	-1.9077928273	-3.3063913705	 1.1388803771	-0.415992
C	-2.2294029686	-0.636522007	 1.1421219283	-0.163486
H	 1.0713999525	 1.8757868797	 0.2000135915	 0.111369
H	-0.5663846386	 2.1481197149	-0.4205899572	 0.119786
H	-0.3234541283	 1.6771031905	 1.2660395965	 0.11894
H	 0.3559929846	-0.0786733974	-1.1771715719	 0.09886
H	 0.5889502645	-0.5485672087	 0.5023544604	 0.103361
H	-1.7920620978	-1.025564773	-2.1881868159	 0.080723
H	-4.3281467233	-0.8282199653	-1.2551688734	 0.102831
H	-3.7310945371	-2.4690017952	-1.0776122323	 0.104304
H	-4.4889278606	-0.9173625792	 1.2084276947	 0.078041
H	-2.8989380744	-2.0782791196	 2.6431399637	 0.079614
H	-1.5332030902	-3.221210149	 0.1160677122	 0.124057
H	-1.0557490804	-3.5383426985	 1.7876830253	 0.111192
H	-2.5923013519	-4.1618010651	 1.175655985	 0.112292
H	-2.1490880245	 0.1357540046	 1.9004011358	 0.077198
56.2565	115.271	181.4906	203.1544	210.2599	222.0439	300.7542	338.3203	424.8657	499.2075	577.8877	645.3034	718.2338	742.2956	784.0284	800.5608	827.982	846.2098	930.2267	941.3234	958.6216	971.6132	992.7146	1024.3925	1064.1513	1066.2573	1087.1876	1098.0013	1116.5318	1134.7869	1184.1101	1190.2521	1225.3464	1259.1322	1294.3763	1312.0584	1352.1237	1361.5507	1384.1015	1405.7004	1409.4886	1427.1428	1478.5947	1479.4567	1497.4227	1498.707	1501.5426	1507.0456	1698.1795	3008.0088	3009.765	3028.769	3030.0123	3036.0881	3059.7579	3082.5084	3105.8011	3109.2123	3110.9673	3126.5223	3153.7622	3169.9353	3180.8168
CCC1=CCC2C(C)C12	CCC1=CC[C@H]2[C@@H](C)[C@@H]12	
InChI=1S/C9H14/c1-3-7-4-5-8-6(2)9(7)8/h4,6,8-9H,3,5H2,1-2H3	InChI=1S/C9H14/c1-3-7-4-5-8-6(2)9(7)8/h4,6,8-9H,3,5H2,1-2H3/t6-,8+,9+/m1/s1
