21
gdb 107182	3.3499	1.18597	1.11948	1.8617	81.81	-0.2223	0.0624	0.2847	1229.1147	0.180725	-387.016233	-387.00706	-387.006116	-387.0507	34.639	
C	-0.0200609653	 1.5439195948	-0.2400696225	-0.382454
C	-0.0741638421	 0.0446333152	 0.0816670489	-0.302227
C	 0.6951820401	-0.3304806179	 1.3093011909	 0.431451
O	 0.3497932676	-1.5476891961	 1.994149085	-0.29587
C	 0.3829130401	-0.3169835681	 2.7373568825	-0.064343
C	 1.8554788468	 0.0311512812	 3.1056775964	-0.117393
C	 2.8681027352	-0.9549906535	 2.5749565031	-0.005929
C	 2.8287708212	-2.4813940767	 2.6105603478	-0.398281
C	 2.1964062138	-0.0017024542	 1.6115638382	-0.164895
H	 1.0059013554	 1.8807295668	-0.4185255618	 0.122439
H	-0.6018875755	 1.7661131154	-1.1391962029	 0.118208
H	-0.4288035898	 2.138905353	 0.5828088513	 0.12041
H	-1.111145821	-0.2768671278	 0.2277732347	 0.114194
H	 0.3150269321	-0.5303337313	-0.7698065055	 0.107683
H	-0.510966402	-0.0388643789	 3.2838804623	 0.101419
H	 2.1042906208	 0.801158587	 3.8253071777	 0.088125
H	 3.8651310475	-0.5685804985	 2.786417339	 0.090983
H	 2.0701466394	-2.857305687	 3.2976821814	 0.129507
H	 2.6120171146	-2.9043573847	 1.6273038629	 0.123215
H	 3.8015038686	-2.866490704	 2.93504045	 0.095789
H	 2.7552138922	 0.7355919252	 1.0483795807	 0.087968
45.4266	74.8741	131.9719	185.956	228.4599	257.5448	321.9502	425.5564	442.1742	541.1048	565.1003	685.3897	707.1069	729.5584	776.2961	817.7198	846.5693	884.4275	907.7931	935.93	955.0767	993.6832	1005.4551	1027.7724	1059.2831	1069.4583	1085.7445	1109.144	1118.0492	1182.5481	1197.1597	1262.9807	1264.1517	1296.0875	1326.6387	1353.7723	1408.659	1413.057	1431.0067	1479.6207	1480.3432	1492.5575	1494.2768	1501.1919	1511.1922	3017.4708	3039.3702	3041.6725	3069.3646	3101.0342	3109.5201	3112.1194	3116.5509	3139.2629	3176.9718	3183.019	3192.8412
CCC12OC1C1C(C)C21	CC[C@]12O[C@H]1[C@H]1[C@@H](C)[C@@H]21	
InChI=1S/C8H12O/c1-3-8-6-4(2)5(6)7(8)9-8/h4-7H,3H2,1-2H3	InChI=1S/C8H12O/c1-3-8-6-4(2)5(6)7(8)9-8/h4-7H,3H2,1-2H3/t4-,5+,6-,7+,8-/m1/s1
