17
gdb 66266	2.02613	1.64727	1.41056	3.9971	72.64	-0.2617	-0.0463	0.2154	1037.0268	0.13598	-418.043257	-418.034579	-418.033635	-418.076635	31.966	
C	-0.1369070279	 1.5783192396	 0.0072159514	-0.429685
C	 0.0388244645	 0.0590581784	-0.036426243	 0.009397
N	 0.9044839045	-0.4029178881	-1.1202788835	-0.314723
C	 1.4361467949	-1.7237114562	-0.7410418948	-0.186573
C	 1.806490076	-1.5214464878	 0.7317418502	-0.312026
C	 0.8183489987	-0.4668576035	 1.2178777749	 0.414113
O	 0.6553630972	-0.0648369425	 2.3333273159	-0.297354
C	-1.2790881372	-0.6196812721	-0.0482910804	 0.257786
N	-2.2861434719	-1.1863101509	-0.1089833391	-0.33785
H	 0.8467168522	 2.0507070774	-0.0401669588	 0.135108
H	-0.738989522	 1.9276304299	-0.8354150716	 0.131764
H	-0.6304059424	 1.8634025111	 0.9391258879	 0.155463
H	 0.431175361	-0.4145324456	-2.0165465552	 0.238604
H	 0.6937317751	-2.5307454126	-0.8400028078	 0.117808
H	 2.2944546179	-1.9710793822	-1.3696586527	 0.12032
H	 1.7465695594	-2.4206005137	 1.3480282831	 0.146844
H	 2.8149040099	-1.1073894711	 0.8404539435	 0.151003
75.886	132.2852	153.1765	203.7817	228.1835	257.6059	350.0011	419.8283	493.5365	521.8796	578.9441	629.012	630.983	672.5851	784.7126	832.9507	874.6346	934.9144	974.1418	1051.5486	1053.329	1088.3331	1148.3262	1177.6998	1187.1501	1209.8694	1243.5302	1290.9795	1355.0026	1401.0885	1440.5579	1447.3182	1485.1055	1489.8408	1519.7756	1870.9395	2332.1356	2985.4008	3053.4838	3060.7704	3097.9452	3124.0944	3133.0049	3144.47	3547.7381
CC1(NCCC1=O)C#N	C[C@]1(NCCC1=O)C#N	
InChI=1S/C6H8N2O/c1-6(4-7)5(9)2-3-8-6/h8H,2-3H2,1H3	InChI=1S/C6H8N2O/c1-6(4-7)5(9)2-3-8-6/h8H,2-3H2,1H3/t6-/m0/s1
