12
gdb 130598	3.71949	1.70871	1.17084	2.6708	69.1	-0.2756	-0.1146	0.161	928.4692	0.080231	-431.674631	-431.668577	-431.667633	-431.705217	23.048	
O	-0.0554252908	-0.0440929561	 0.0034697736	-0.29078
C	-0.0254527249	 1.1607324778	 0.0093164519	 0.289897
C	-1.1943664539	 2.1152590037	 0.0315585056	-0.23582
C	-0.7308961688	 3.3739682789	 0.0310585911	-0.013472
N	 0.6820468	 3.3328831313	 0.0096977208	 0.042783
N	 1.6471668973	 4.2595818827	-0.0001246255	-0.13648
N	 2.7806899222	 3.6037484832	-0.0208227953	-0.182529
C	 2.5303726003	 2.2536595423	-0.0237172831	-0.188904
C	 1.1689556606	 2.066688582	-0.004054746	 0.23245
H	-2.2257938232	 1.7991735291	 0.0453789376	 0.149509
H	-1.2344032275	 4.3287000158	 0.043452309	 0.177348
H	 3.3330808687	 1.5353903691	-0.0394780898	 0.155997
162.9893	182.6808	308.8697	387.5152	524.905	612.6403	677.6931	683.5509	690.2056	726.9445	781.0081	826.1566	887.9002	928.166	994.9954	1050.5571	1075.8361	1105.5291	1164.45	1214.8848	1281.9692	1298.4362	1384.5982	1443.1614	1561.6074	1621.1327	1819.8629	3256.8905	3277.1995	3285.2107
O=C1C=CN2N=NC=C12	O=C1C=Cn2nncc12	
InChI=1S/C5H3N3O/c9-5-1-2-8-4(5)3-6-7-8/h1-3H	InChI=1S/C5H3N3O/c9-5-1-2-8-4(5)3-6-7-8/h1-3H
