23
gdb 112844	2.90142	1.17736	0.95378	1.1533	85.67	-0.2422	0.0821	0.3243	1342.3937	0.206348	-388.286827	-388.277637	-388.276693	-388.320687	35.371	
C	 0.0187114921	 1.3324090674	-0.1607285187	-0.234243
O	-0.0024723188	-0.0309534788	 0.1887523995	-0.246263
C	-1.2906348476	-0.6178161833	 0.131716018	 0.143848
C	-1.8207206312	-0.8512903282	-1.306816809	-0.274942
C	-2.7333992204	-2.0960599242	-1.2204326591	 0.024111
C	-2.8686647187	-2.864798834	-2.5365561882	-0.395188
C	-2.1485972755	-2.9031731227	-0.0621094724	-0.036812
C	-0.6553905387	-3.1121044905	-0.0302625462	-0.285751
C	-1.2751454579	-1.993393623	 0.7703227873	-0.067553
H	 1.0399759094	 1.691237106	-0.0087196181	 0.123629
H	-0.2581420774	 1.502056069	-1.2122262845	 0.103167
H	-0.6617642156	 1.9261572572	 0.4714049546	 0.099088
H	-1.9977855212	 0.0231397729	 0.6869363955	 0.057819
H	-2.3461668409	 0.0158988123	-1.7151218901	 0.094999
H	-0.9636263226	-1.0445915481	-1.9621160382	 0.107905
H	-3.7350975609	-1.7667678277	-0.9109095141	 0.070798
H	-1.8952672087	-3.238861415	-2.872245702	 0.115141
H	-3.5363667489	-3.7259399377	-2.4256384322	 0.110096
H	-3.2758083204	-2.2278390621	-3.3293205114	 0.109286
H	-2.7788341046	-3.6518076463	 0.406819946	 0.076649
H	-0.2900608096	-3.9656842924	 0.5298198435	 0.107845
H	-0.0531125605	-2.8691801433	-0.898746016	 0.115469
H	-1.2528304916	-2.0515856177	 1.8524108057	 0.080901
84.7814	110.1445	160.2796	189.7983	233.3013	238.8862	319.5222	363.3529	431.9544	460.7301	520.9864	581.1109	630.2877	769.7783	826.8496	844.3196	889.945	930.5805	939.6749	963.1764	1000.0953	1011.8281	1046.146	1059.1456	1062.8664	1092.4104	1110.8224	1136.0326	1147.3914	1171.2923	1184.4485	1206.476	1210.3362	1228.1612	1276.1405	1334.6714	1335.4767	1347.2633	1370.1119	1391.5972	1399.2567	1410.6227	1479.0815	1483.896	1490.5674	1495.6675	1498.01	1509.6945	1512.5864	2943.6539	2968.227	3002.8226	3015.0143	3026.904	3046.7871	3093.6845	3094.357	3099.1882	3107.861	3136.4859	3157.4597	3174.8935	3217.5165
COC1CC(C)C2CC12	CO[C@H]1C[C@@H](C)[C@H]2C[C@@H]12	
InChI=1S/C8H14O/c1-5-3-8(9-2)7-4-6(5)7/h5-8H,3-4H2,1-2H3	InChI=1S/C8H14O/c1-5-3-8(9-2)7-4-6(5)7/h5-8H,3-4H2,1-2H3/t5-,6-,7-,8+/m1/s1
