19
gdb 107354	2.95707	1.30405	1.03717	4.1391	75.45	-0.2663	0.0118	0.2782	1201.0393	0.159209	-423.070065	-423.061693	-423.060749	-423.103208	31.967	
C	 0.072474097	 1.5052647183	 0.2616265236	-0.379114
C	 0.0416317443	 0.0051120101	-0.054620008	-0.263355
C	-1.3511414112	-0.5605692365	-0.1028670278	 0.445899
C	-2.1419908101	-0.9726106896	 1.107016947	-0.345313
C	-1.7416337164	-2.0062627551	 0.0652096559	-0.126374
C	-2.736960507	-2.2987378994	-1.0324349635	-0.376147
C	-2.9624984197	-0.9437858634	-1.7144452236	 0.404815
O	-3.7273490963	-0.6765034713	-2.5925000063	-0.32768
O	-2.1366235436	-0.0083574197	-1.156862009	-0.254843
H	 1.1003702686	 1.8789617778	 0.2732900184	 0.113908
H	-0.4875497251	 2.0698300099	-0.4886102824	 0.141324
H	-0.3742732532	 1.7106721059	 1.2397448678	 0.118502
H	 0.5302765193	-0.1840223769	-1.0183783747	 0.110159
H	 0.6073255659	-0.5532313489	 0.7004727672	 0.102065
H	-1.6226405013	-1.0058563566	 2.0586401007	 0.12214
H	-3.1819992387	-0.6669400083	 1.1670087958	 0.126069
H	-1.0010700815	-2.7514782475	 0.3293416008	 0.101702
H	-2.3456009179	-2.9996957136	-1.7767853901	 0.142864
H	-3.6992740331	-2.6923009553	-0.6927173018	 0.143379
87.9385	114.9054	152.828	198.7712	271.9875	351.7529	410.5163	435.54	489.2964	563.2624	618.4702	684.2945	735.142	782.7902	844.9286	848.875	887.5201	941.2325	967.8823	987.5326	1020.2122	1046.7572	1065.1855	1077.4455	1098.9845	1127.7706	1161.8066	1198.9249	1238.384	1267.232	1298.9823	1331.0701	1366.7497	1410.4998	1418.8925	1462.199	1474.942	1486.6569	1496.8271	1509.8228	1886.3169	3029.3278	3042.6124	3060.7992	3067.1892	3100.2021	3110.9135	3123.7692	3127.3085	3182.868	3218.3802
CCC12CC1CC(=O)O2	CC[C@]12C[C@H]1CC(=O)O2	
InChI=1S/C7H10O2/c1-2-7-4-5(7)3-6(8)9-7/h5H,2-4H2,1H3	InChI=1S/C7H10O2/c1-2-7-4-5(7)3-6(8)9-7/h5H,2-4H2,1H3/t5-,7+/m1/s1
