18
gdb 68460	2.39617	2.08501	1.35794	3.0503	72.83	-0.2505	0.0169	0.2674	971.7826	0.148699	-439.086718	-439.079045	-439.078101	-439.118573	30.214	
C	-0.1181014264	 1.5243957514	 0.0215310907	-0.470428
C	 0.0371969282	 0.0281313004	-0.002244634	 0.298682
C	 0.7892651477	-0.6882170419	-1.1540409175	-0.294141
C	-0.3356417561	-1.7173033019	-0.9551146502	 0.072958
C	-0.0060804148	-2.6758283083	 0.1740046971	-0.078169
O	 0.5224499115	-1.9622653081	 1.3081340372	-0.272425
C	 0.4870281138	-0.5954320162	 1.3069048809	 0.421531
N	 0.8331971941	 0.0899978276	 2.3102184322	-0.537255
O	-1.1888881458	-0.68732504	-0.3908359002	-0.322914
H	 0.8389924977	 1.9998737357	 0.2480413899	 0.14022
H	-0.4783736796	 1.8721386124	-0.9501651223	 0.115388
H	-0.8286173902	 1.8212462413	 0.796430013	 0.144934
H	 0.6869273224	-0.1412126943	-2.0922304733	 0.116597
H	 1.8240580808	-0.9973313655	-0.9936758977	 0.115494
H	-0.7808948652	-2.2238851346	-1.8155668487	 0.088617
H	-0.911848977	-3.1995657422	 0.4994654406	 0.124628
H	 0.7456078023	-3.4150378093	-0.1251631181	 0.115108
H	 1.1054095465	-0.5223239864	 3.0825356703	 0.221175
115.1274	182.9635	209.4856	279.4105	318.8634	380.9183	422.7345	464.0376	497.9744	630.7342	675.1917	717.2239	811.7368	854.8562	860.9335	898.8012	916.75	930.8526	962.1555	1004.696	1026.7507	1040.7833	1086.736	1127.8322	1155.1408	1219.3959	1228.7126	1233.9867	1261.233	1311.6793	1343.8269	1353.8512	1410.4529	1426.6202	1473.455	1482.5686	1490.9697	1501.0075	1760.6145	3034.4761	3054.4798	3073.5806	3081.6431	3083.4426	3132.9026	3137.8662	3141.6263	3460.1482
CC12CC(COC1=N)O2	C[C@@]12C[C@@H](CO[C]1[NH])O2	
InChI=1S/C6H9NO2/c1-6-2-4(9-6)3-8-5(6)7/h4,7H,2-3H2,1H3	InChI=1S/C6H9NO2/c1-6-2-4(9-6)3-8-5(6)7/h4,7H,2-3H2,1H3/t4-,6+/m0/s1
