19
gdb 26294	3.40324	1.00626	0.93497	4.0799	78.37	-0.1882	0.0458	0.2339	1338.9673	0.159685	-419.279755	-419.270429	-419.269484	-419.313999	34.631	
C	 0.0021179415	 1.5582899917	 0.0077685917	-0.382927
C	 0.00136657	 0.0173836151	 0.0398388438	-0.094082
C	 0.7751099711	-0.5118079681	 1.2632344491	-0.382892
C	-1.3864642058	-0.5414232186	-0.0269695279	 0.353132
C	-1.9753769535	-1.3253992255	-0.9557813721	-0.21162
N	-3.2872576012	-1.5655426743	-0.544957901	-0.336094
C	-3.5593222509	-0.9351883544	 0.6610483169	 0.438117
O	-4.5919625955	-0.9313332157	 1.3022076923	-0.434846
N	-2.3539894148	-0.3057379912	 0.9563853049	-0.404669
H	 1.0267880623	 1.9430918646	 0.0070404284	 0.116221
H	-0.50905548	 1.9337587943	-0.8829198698	 0.124062
H	-0.5055724559	 1.9754052987	 0.8847674121	 0.111794
H	 0.513173166	-0.3387536627	-0.8625583895	 0.088479
H	 0.3040716529	-0.1945017152	 2.2004090913	 0.111808
H	 0.812694375	-1.6045986833	 1.2626895916	 0.12405
H	 1.8009047527	-0.1300196347	 1.2649692912	 0.116201
H	-1.575765493	-1.7308534207	-1.8693278215	 0.133278
H	-3.9785265672	-2.1142002033	-1.023365185	 0.266542
H	-2.2415103535	 0.2427106034	 1.7901501435	 0.263445
56.023	112.528	167.7184	197.969	215.6251	247.0886	317.1229	355.6967	415.5413	453.3389	491.3285	513.7235	615.7259	669.1213	713.529	752.9444	760.5395	879.0405	927.5951	960.3049	985.4592	989.5585	1062.2679	1095.7565	1119.1411	1174.9276	1194.5043	1257.5857	1317.4603	1330.7199	1381.3131	1390.8005	1398.2186	1419.4168	1429.8744	1484.9064	1490.0251	1501.5944	1508.1453	1683.8336	1842.8605	3031.386	3031.5336	3037.0253	3095.7721	3102.7153	3115.1978	3117.2119	3281.1602	3697.4352	3703.3318
CC(C)C1=CNC(=O)N1	CC(C)c1c[nH]c(=O)[nH]1	
InChI=1S/C6H10N2O/c1-4(2)5-3-7-6(9)8-5/h3-4H,1-2H3,(H2,7,8,9)	InChI=1S/C6H10N2O/c1-4(2)5-3-7-6(9)8-5/h3-4H,1-2H3,(H2,7,8,9)
