18
gdb 72338	2.37908	2.16825	1.6042	1.9644	73.73	-0.2448	0.0225	0.2673	910.2689	0.149161	-401.937548	-401.930421	-401.929477	-401.968644	28.974	
C	-0.0759204401	 1.4968023109	-0.0267206099	-0.468468
C	 0.0236976725	-0.0099489491	 0.0067093623	 0.393696
O	-1.2427865258	-0.5936032734	-0.4222942248	-0.264209
C	-1.5717247485	-1.4788273461	 0.5559654204	 0.091981
N	-0.8208313164	-1.6453717017	 1.5686091397	-0.266481
C	 0.3146314921	-0.7464824993	 1.3474138892	-0.07373
C	 1.6002848792	-1.3355629215	 0.7288794029	-0.040165
C	 1.2950583647	-2.1224489828	-0.5075503488	-0.303926
C	 1.2867337179	-0.6254226362	-0.6087308295	-0.092478
H	 0.8540382808	 1.9430110967	 0.3390499878	 0.125197
H	-0.2458138677	 1.8527339994	-1.048071236	 0.130579
H	-0.9006457975	 1.8440680305	 0.6022762565	 0.12852
H	-2.5095671837	-1.9973319412	 0.3829088294	 0.13389
H	 0.4991043457	-0.114538093	 2.2194157936	 0.081321
H	 2.5491245298	-1.41543883	 1.2443277351	 0.091641
H	 2.1565568501	-2.5953229714	-0.9680982728	 0.116355
H	 0.3797356699	-2.6986244029	-0.5959839197	 0.129837
H	 1.9578662869	-0.0901827488	-1.2702907255	 0.086441
164.5706	221.7017	246.7602	265.7543	321.0483	449.819	488.8761	577.0396	637.9096	649.0801	771.1337	816.9717	835.0511	861.213	893.1828	932.8302	945.2515	963.8824	978.9047	1002.6909	1013.7708	1055.6907	1060.7492	1085.6644	1097.6147	1160.5983	1173.5572	1204.9459	1216.1201	1252.2872	1295.6464	1321.4112	1337.5537	1373.6541	1408.6366	1484.6609	1489.2438	1494.6135	1669.3947	3037.4164	3080.2938	3108.7723	3116.9253	3130.2455	3176.5538	3191.4133	3201.8955	3211.271
CC12OC=NC1C1CC21	C[C@]12OC=N[C@H]1[C@H]1C[C@@H]21	
InChI=1S/C7H9NO/c1-7-5-2-4(5)6(7)8-3-9-7/h3-6H,2H2,1H3	InChI=1S/C7H9NO/c1-7-5-2-4(5)6(7)8-3-9-7/h3-6H,2H2,1H3/t4-,5+,6-,7+/m0/s1
