20
gdb 117452	6.13314	0.54843	0.52591	3.5372	79.26	-0.2514	-0.0321	0.2193	2100.5388	0.168115	-440.333043	-440.322253	-440.321309	-440.371224	36.562	
C	 0.011185665	 1.5349181518	 0.0144507278	-0.386474
C	 0.0002347068	 0.0158648632	-0.1654373851	-0.151978
C	-1.3947687728	-0.5919665522	 0.0188173341	-0.30597
C	-1.3704444565	-2.1156150337	-0.0187798872	 0.420649
O	-0.4503380271	-2.7723823802	 0.4332062301	-0.36795
N	-2.4772734131	-2.7013968743	-0.5808075261	-0.333922
C	-2.6209845764	-4.1369467778	-0.6806337316	-0.243315
C	-3.7283637115	-4.6724896028	 0.2140002124	 0.152921
O	-4.4477701644	-5.590688303	-0.0763275137	-0.230612
H	 1.0182092825	 1.9396614044	-0.1239628541	 0.118247
H	-0.6475483192	 2.0305789537	-0.7077311338	 0.111755
H	-0.3263581877	 1.81864276	 1.0176723506	 0.115743
H	 0.3767838356	-0.2440922653	-1.1621798565	 0.10292
H	 0.6766193068	-0.462801831	 0.5484217526	 0.130203
H	-1.7940090781	-0.3024109707	 1.0007735573	 0.131158
H	-2.094677678	-0.1951780093	-0.7271256275	 0.09473
H	-3.1927588831	-2.1126802852	-0.9743437205	 0.251071
H	-2.7972912714	-4.4680319971	-1.7090452625	 0.131341
H	-1.6695414846	-4.5609139499	-0.3342523432	 0.176025
H	-3.8186145527	-4.1338201904	 1.185439997	 0.083458
29.4316	50.7202	62.1587	81.2117	105.5828	184.4118	242.4224	281.3136	301.4833	365.7287	389.6305	457.9761	544.3723	616.8997	705.5051	751.3698	786.3229	881.4951	904.5173	925.3015	1051.3164	1054.0875	1072.5129	1106.2164	1114.9119	1139.7955	1215.2791	1255.9192	1262.1272	1306.4318	1331.4482	1349.3971	1397.3672	1412.8543	1416.1511	1445.144	1464.0789	1492.1893	1499.9511	1509.4148	1525.7304	1778.3224	1840.1468	2874.3749	3016.1169	3028.7333	3037.7725	3038.6446	3054.709	3082.2125	3094.0862	3104.4509	3107.4575	3646.6665
CCCC(=O)NCC=O	CCCC(=O)NCC=O	
InChI=1S/C6H11NO2/c1-2-3-6(9)7-4-5-8/h5H,2-4H2,1H3,(H,7,9)	InChI=1S/C6H11NO2/c1-2-3-6(9)7-4-5-8/h5H,2-4H2,1H3,(H,7,9)
