17
gdb 94429	2.56271	1.41004	1.2883	3.1129	70.73	-0.2307	0.018	0.2487	1064.6741	0.135663	-455.103721	-455.095083	-455.094139	-455.137412	31.581	
O	 0.2220379085	 1.1601577726	-0.3607324602	-0.425037
C	 0.1079342347	-0.1400592621	 0.1584331275	-0.018297
C	-0.0807132793	-0.3092152766	 1.6832259769	-0.109507
O	-1.3287323603	-1.0085073424	 1.4692515444	-0.3117
C	-1.3112538927	-0.7333967897	 0.0690818184	 0.358802
C	-2.4950087359	 0.0560365927	-0.5605144727	-0.227858
N	-2.7585133198	-1.1397358117	-1.3850548453	-0.348782
C	-1.6474278756	-1.8426731509	-0.9341959297	 0.327203
N	-1.0496928771	-2.9220663058	-1.2117570972	-0.556564
H	 1.1529247177	 1.3595903032	-0.4943847295	 0.294466
H	 0.8525334675	-0.8230409942	-0.2637055954	 0.107731
H	 0.6478942187	-0.9281540587	 2.2170258943	 0.110267
H	-0.2258733689	 0.6430526486	 2.2079755659	 0.104365
H	-3.2978594829	 0.2965828854	 0.1414575513	 0.118532
H	-2.1859185938	 0.9456198758	-1.1164274328	 0.127829
H	-3.1471904847	-1.1588054071	-2.3166285504	 0.239709
H	-1.4991381462	-3.4234769991	-1.9802110955	 0.208839
61.9436	116.403	148.1771	173.3044	233.1612	283.7373	351.4367	426.884	451.8962	528.8643	597.2707	665.0911	761.3343	793.0212	838.9091	892.4779	908.5618	990.8449	1006.8859	1018.5114	1059.2464	1077.459	1135.9071	1145.9866	1168.4699	1174.5967	1225.2991	1230.6232	1247.0748	1307.9417	1328.7181	1335.1859	1378.4726	1446.4423	1510.9803	1512.4855	1793.3862	3022.8217	3052.9796	3053.973	3084.1489	3111.0445	3456.3676	3603.7882	3837.0214
OC1COC11CNC1=N	O[C@H]1CO[C@]21CN[C]2[NH]	
InChI=1S/C5H8N2O2/c6-4-5(2-7-4)3(8)1-9-5/h3,8H,1-2H2,(H2,6,7)	InChI=1S/C5H8N2O2/c6-4-5(2-7-4)3(8)1-9-5/h3,8H,1-2H2,(H2,6,7)/t3-,5-/m0/s1
