16
gdb 28941	2.90775	1.28668	1.02618	3.622	75.	-0.2301	-0.0007	0.2294	1158.2151	0.125353	-396.97853	-396.970114	-396.96917	-397.012864	29.926	
C	-0.0290579811	 1.4861753736	 0.0116759855	-0.513303
C	-0.0008665169	-0.0047747544	-0.0354281737	 0.345406
N	-0.0105189654	-0.7382913549	-1.1249103992	-0.299176
C	 0.0115159128	-2.0491001138	-0.7026922324	-0.094056
C	 0.0364731331	-2.1149659742	 0.6598548884	-0.132942
N	 0.0378442719	-0.7982685376	 1.0898434866	-0.020273
C	 0.0228696713	-0.3568432283	 2.4673270862	-0.316234
C	-1.3319407395	-0.1026960551	 2.9848174478	 0.27926
N	-2.3919839069	 0.1069374485	 3.3919300754	-0.290692
H	 0.8637076825	 1.9046811052	 0.4926056848	 0.131332
H	-0.0664025061	 1.855683458	-1.0134266267	 0.164784
H	-0.9056108856	 1.8660223847	 0.5489698737	 0.147913
H	 0.0127999134	-2.866600666	-1.4071164922	 0.114671
H	 0.055525676	-2.9359821315	 1.3575892953	 0.132642
H	 0.5035667595	-1.1146654463	 3.0927001946	 0.175327
H	 0.6102852109	 0.5608790021	 2.5676628159	 0.175343
26.7373	89.6292	143.8874	226.3072	262.6092	279.6059	366.5003	411.3925	493.285	630.3515	676.992	691.0294	723.3181	773.5024	855.9275	918.8847	923.8304	968.6626	997.354	1063.	1101.5704	1158.3245	1185.7822	1255.6355	1304.5276	1374.6054	1400.0227	1409.1785	1445.7465	1462.2818	1484.5043	1489.7058	1529.6282	1581.2787	2366.833	3025.4722	3063.7198	3076.6435	3105.6744	3152.3461	3250.2758	3276.8393
CC1=NC=CN1CC#N	Cc1nccn1CC#N	
InChI=1S/C6H7N3/c1-6-8-3-5-9(6)4-2-7/h3,5H,4H2,1H3	InChI=1S/C6H7N3/c1-6-8-3-5-9(6)4-2-7/h3,5H,4H2,1H3
