19
gdb 103316	3.26919	1.28525	1.1168	4.101	75.88	-0.2367	0.0182	0.2549	1147.9189	0.157836	-422.992216	-422.983531	-422.982587	-423.025284	33.6	
C	 0.832738669	-0.4816205233	 1.2906044973	-0.374631
C	 0.0670746198	-0.0400469416	 0.0378929444	-0.275041
C	-1.3490871032	-0.6106082827	-0.0251009987	 0.462199
O	-2.1168820899	-0.1413385235	 1.0674305059	-0.477979
C	-2.1071916912	-0.6623418762	-1.4110691954	-0.257223
C	-1.2264181634	-1.9146809745	-1.7495590397	-0.263203
C	-1.5935651716	-2.1413573594	-0.242374521	-0.218459
C	-3.0010933878	-1.7008044652	-0.7035944556	 0.462215
O	-4.13784908	-2.0420526665	-0.6387071249	-0.324867
H	 1.800327622	 0.0245013192	 1.3554273012	 0.11353
H	 0.2620714934	-0.2537326131	 2.1942597645	 0.131947
H	 1.0196513805	-1.560257705	 1.2766391996	 0.120932
H	-0.0245293873	 1.0558875059	 0.0287994918	 0.091673
H	 0.6397259531	-0.290841046	-0.8582942465	 0.1076
H	-2.0963116646	 0.8219582947	 1.0656909956	 0.282357
H	-2.376526901	 0.1652045608	-2.0651848203	 0.086836
H	-1.6440549543	-2.6250972717	-2.4631521251	 0.123162
H	-0.1765522957	-1.7188991441	-1.9582023794	 0.11401
H	-1.2988236477	-2.9622204177	 0.4072760061	 0.094942
88.5879	139.5862	162.652	214.9319	278.3404	311.8744	365.1008	412.5785	439.9154	479.6293	528.4399	646.4209	703.4543	765.472	777.1784	789.0756	815.7576	881.2133	957.6833	977.5655	993.4009	1017.125	1054.9885	1068.1029	1097.0013	1098.902	1130.7809	1145.1584	1189.796	1205.7798	1211.4207	1228.4742	1277.0639	1361.0128	1384.7262	1408.8179	1481.4659	1495.3294	1508.8342	1528.5026	1931.5501	3006.8199	3042.9344	3086.1049	3098.6104	3108.605	3127.3041	3137.2131	3151.3315	3166.0482	3803.4289
CCC1(O)C2CC1C2=O	CC[C@@]1(O)[C@H]2C[C@@H]1C2=O	
InChI=1S/C7H10O2/c1-2-7(9)4-3-5(7)6(4)8/h4-5,9H,2-3H2,1H3	InChI=1S/C7H10O2/c1-2-7(9)4-3-5(7)6(4)8/h4-5,9H,2-3H2,1H3/t4-,5+,7+
