15
gdb 10143	2.9549	1.34727	0.97134	4.4053	68.03	-0.277	0.0132	0.2902	1168.1713	0.116232	-362.621589	-362.612569	-362.611625	-362.655817	30.745	
C	-0.102482504	 1.3650386182	 0.0113930699	-0.234069
O	 0.0371863802	-0.0397980499	-0.0079028436	-0.228406
C	 0.6582616821	-0.5479014981	 1.1398668397	-0.054986
C	 0.6237611101	-2.090031793	 1.0330048071	-0.331607
C	 1.404634974	-2.7122462895	 2.1012579681	 0.311165
C	 2.0629953617	-3.1912505931	 2.9826053426	-0.420486
C	-0.7647415591	-2.5807029833	 1.0302729439	 0.303118
N	-1.8524635843	-2.9676021142	 1.0346229761	-0.320019
H	 0.8744320649	 1.8689233671	 0.0673127105	 0.110841
H	-0.5978365652	 1.6511455385	-0.9183962499	 0.14
H	-0.7158044241	 1.6978648368	 0.8618044675	 0.11723
H	 1.7097342823	-0.2291827098	 1.2113973366	 0.110795
H	 0.1429185873	-0.2301029117	 2.0587632117	 0.117352
H	 1.0613662841	-2.3481859152	 0.0595159908	 0.167411
H	 2.6392908702	-3.6290568827	 3.760367949	 0.211662
69.4562	97.043	123.6596	132.093	208.2293	236.6545	291.1397	363.3057	396.2846	483.007	576.3648	596.891	654.0048	675.4509	831.6452	978.7965	1008.7717	1066.7581	1095.2182	1165.3722	1182.7051	1225.1795	1242.847	1278.3786	1334.371	1407.0435	1480.4283	1487.0186	1501.4152	1527.0631	2251.6435	2369.8628	2976.6166	2987.112	3017.7562	3032.6598	3036.9518	3128.879	3501.8598
COCC(C#C)C#N	COC[C@@H](C#C)C#N	
InChI=1S/C6H7NO/c1-3-6(4-7)5-8-2/h1,6H,5H2,2H3	InChI=1S/C6H7NO/c1-3-6(4-7)5-8-2/h1,6H,5H2,2H3/t6-/m0/s1
