18
gdb 13981	5.52705	1.18249	1.09759	2.1991	68.59	-0.2321	0.0749	0.307	1129.2889	0.152246	-384.881475	-384.873367	-384.872422	-384.914542	29.698	
C	 0.0771310055	 1.531276431	-0.0245135335	-0.387115
C	 0.1954851876	 0.0203269092	 0.0579588586	-0.057942
O	 0.4215565615	-0.4803238936	-1.2602901405	-0.283099
C	 0.594511842	-1.8391257927	-1.3202951778	 0.363633
C	 1.8592460749	-2.5523520764	-0.8777469867	-0.353096
C	 1.3750369613	-2.6674320094	-2.30055024	 0.012727
O	 0.343471956	-3.6540113408	-2.3988466948	-0.284947
C	-0.5223597091	-2.8646690529	-1.5359268453	-0.141123
H	 0.9948245244	 1.9664691562	-0.4302223763	 0.128278
H	-0.754110192	 1.8175541905	-0.6749227683	 0.129414
H	-0.098291754	 1.953027095	 0.969602954	 0.117368
H	 1.0276838185	-0.2764658678	 0.7127657448	 0.097746
H	-0.7235201733	-0.4193251373	 0.4744042614	 0.094538
H	 2.704882117	-1.8834921363	-0.7461458729	 0.118793
H	 1.8356706708	-3.4207808942	-0.2244956161	 0.113658
H	 1.9499856544	-2.4306917565	-3.1874807101	 0.11461
H	-0.8869367379	-3.4358218372	-0.6744841478	 0.103195
H	-1.3641855975	-2.4533750568	-2.1044472388	 0.113361
63.5144	79.7565	146.7127	245.219	294.4994	345.8879	373.3983	420.8515	456.0992	691.7059	741.5566	818.6664	856.9381	899.2097	924.2133	939.5021	984.3462	993.0141	1011.444	1060.044	1073.2394	1083.2361	1101.0216	1140.6795	1162.0333	1185.3915	1219.419	1285.4692	1294.4256	1300.1931	1385.8217	1406.1113	1430.5998	1482.9905	1483.6	1499.6801	1512.0958	1526.6847	2984.6195	3018.861	3025.4877	3045.9049	3080.0646	3110.3652	3120.7434	3123.1483	3191.4806	3208.2975
CCOC12CC1OC2	CCO[C@]12C[C@H]1OC2	
InChI=1S/C6H10O2/c1-2-8-6-3-5(6)7-4-6/h5H,2-4H2,1H3	InChI=1S/C6H10O2/c1-2-8-6-3-5(6)7-4-6/h5H,2-4H2,1H3/t5-,6+/m1/s1
