16
gdb 79669	2.85552	1.50483	1.21379	3.4633	76.73	-0.2142	0.0228	0.237	1037.0724	0.123449	-400.620888	-400.613309	-400.612365	-400.652589	30.675	
O	 0.1064021336	 1.4282955519	-0.0529225737	-0.419594
C	-0.0474408431	 0.0640102642	 0.0461817593	 0.088869
C	-0.4279641227	-0.7436823294	 1.2540130462	-0.184912
C	-1.6181252611	-0.1796763015	 2.0624890597	-0.044446
N	-2.0371201326	 1.1287579438	 1.4754645776	-0.372438
C	-2.4832036115	-0.1574295904	 0.8730447703	-0.116937
C	-1.351774452	-0.7343952567	-0.0285280134	 0.074016
C	-1.5915288658	-1.7733301502	-0.9620351796	 0.203627
C	-1.8094116413	-2.6522826548	-1.7572268169	-0.404333
H	-0.6170781245	 1.802691589	 0.4820387663	 0.302806
H	 0.7211672881	-0.4402359984	-0.5361187667	 0.11986
H	 0.1600524448	-1.5801253741	 1.6108743669	 0.10689
H	-1.8451030779	-0.4213514203	 3.0916037435	 0.110453
H	-2.8064601778	 1.490334568	 2.0370189887	 0.241042
H	-3.5327942275	-0.3887426794	 0.7536011573	 0.109782
H	-1.9927309889	-3.4224054417	-2.4641495354	 0.185316
131.4911	149.8878	253.9708	286.6101	422.7243	455.1591	474.5607	495.9986	540.5471	598.2315	653.0771	668.5187	690.3459	731.1327	756.6852	816.5892	834.0304	878.8075	914.1335	935.1157	967.275	1008.442	1058.3868	1094.9651	1108.1545	1128.2053	1211.8305	1229.5294	1259.4019	1299.5763	1321.4982	1336.6197	1424.1288	1499.9951	2221.8444	3139.9031	3191.3432	3206.2504	3218.7117	3483.925	3505.0413	3585.3623
OC1C2C3NC3C12C#C	O[C@H]1[C@H]2[C@H]3N[C@H]3[C@@]12C#C	
InChI=1S/C7H7NO/c1-2-7-3(6(7)9)4-5(7)8-4/h1,3-6,8-9H	InChI=1S/C7H7NO/c1-2-7-3(6(7)9)4-5(7)8-4/h1,3-6,8-9H/t3-,4-,5-,6+,7+/m1/s1
