16
gdb 133538	2.38619	1.49922	1.33617	1.5211	57.11	-0.2791	0.0736	0.3527	1004.8532	0.119965	-569.38826	-569.379853	-569.378909	-569.421446	31.683	
O	 0.1090383074	 1.506979222	-0.2994990789	-0.478103
C	-0.0213854975	 0.148380878	 0.0303773993	 0.285587
C	 0.1669533914	-0.2751639829	 1.5201047324	-0.293284
C	-1.1641113721	-1.0717625847	 1.4297404245	-0.213864
C	-1.4898952524	-0.3303690491	 0.1032744325	-0.269621
C	 0.8311022092	-0.675431806	-0.9317672519	 0.232725
F	 2.1137419121	-0.2522599188	-0.8876805447	-0.098684
F	 0.8297357985	-1.9814799712	-0.6241850704	-0.077731
F	 0.4163087821	-0.5562595967	-2.1962188556	-0.068427
H	 1.0491751626	 1.7234174045	-0.3195571386	 0.286016
H	 1.0750679516	-0.8220029279	 1.7810031654	 0.11285
H	 0.0825236871	 0.6113069813	 2.152434862	 0.114817
H	-0.9962850292	-2.1388243798	 1.27684235	 0.119057
H	-1.870812202	-0.9394163827	 2.2500733189	 0.106282
H	-2.1363853794	 0.5368407686	 0.2511788051	 0.123944
H	-1.8627638493	-0.9150799246	-0.73934082	 0.118436
65.9463	136.0273	201.096	228.2177	318.2791	326.3819	350.7763	398.6889	453.345	524.765	567.9021	579.3629	674.2888	743.7031	783.0062	834.4297	899.3045	936.9872	974.9629	1039.4057	1047.0216	1115.9915	1184.27	1194.508	1207.0865	1212.0473	1230.0827	1252.0934	1271.9748	1283.7562	1343.9439	1399.0731	1466.9883	1479.3168	1502.6306	3072.2199	3079.2257	3084.6842	3122.8459	3134.0111	3146.0975	3791.9406
OC1(CCC1)C(F)(F)F	OC1(CCC1)C(F)(F)F	
InChI=1S/C5H7F3O/c6-5(7,8)4(9)2-1-3-4/h9H,1-3H2	InChI=1S/C5H7F3O/c6-5(7,8)4(9)2-1-3-4/h9H,1-3H2
