14
gdb 61745	3.42157	0.98314	0.81553	3.1653	65.24	-0.2953	-0.11	0.1853	1322.1796	0.097361	-473.855663	-473.846266	-473.845321	-473.890995	31.398	
C	-0.0748592356	 1.7509208228	 0.2300150551	-0.421167
C	-0.1587806433	 0.2775687554	-0.16660995	-0.015514
O	 0.4118274065	 0.1399010057	-1.455287108	-0.17675
C	 0.1568705324	-1.003264112	-2.1442941392	 0.184309
O	 0.6310980402	-1.2135014756	-3.2147564195	-0.256078
C	 0.5670625847	-0.6399282742	 0.8243417764	 0.293838
O	 1.4007642636	-1.4469818257	 0.5131908969	-0.248746
C	 0.1346649433	-0.4946791118	 2.2289064523	 0.243099
N	-0.227949005	-0.3784608449	 3.320753313	-0.29083
H	 0.9663158662	 2.0829890876	 0.2331762183	 0.156515
H	-0.6286634125	 2.3486388047	-0.4963368062	 0.155147
H	-0.5056180731	 1.9123441525	 1.2206360486	 0.157524
H	-1.2137381589	-0.0419050105	-0.169492744	 0.130671
H	-0.5438887085	-1.6782175141	-1.6186934536	 0.087981
41.3167	79.0669	142.3426	161.1805	193.639	209.9383	260.452	293.9417	337.3548	434.8106	468.1601	576.7027	662.0345	701.1949	792.41	954.6733	1031.6723	1035.3801	1076.717	1101.9613	1167.7086	1187.8112	1305.7042	1356.3325	1412.7783	1435.86	1485.804	1498.5777	1808.3503	1883.9019	2337.5821	2965.5568	2985.9044	3060.5809	3142.1465	3147.1381
CC(OC=O)C(=O)C#N	C[C@@H](OC=O)C(=O)C#N	
InChI=1S/C5H5NO3/c1-4(9-3-7)5(8)2-6/h3-4H,1H3	InChI=1S/C5H5NO3/c1-4(9-3-7)5(8)2-6/h3-4H,1H3/t4-/m1/s1
