18
gdb 14472	2.77734	2.36433	1.95112	0.7932	71.53	-0.2288	0.0769	0.3056	808.4765	0.153533	-347.759089	-347.751589	-347.750645	-347.7903	29.403	
C	-0.0494760451	 1.5497226218	-0.0305223601	-0.527214
C	 0.0139431044	 0.0596496192	 0.0065742913	 0.312456
C	 0.0309753183	-1.0144876085	-1.0558081567	-0.110841
C	 1.2993198799	-1.6546664611	-0.4953361429	-0.296495
C	 0.9099677864	-0.9540614267	 0.8385063051	 0.338598
O	 1.8623586717	-0.5140801419	 1.7460905104	-0.47973
C	-0.3891900966	-1.6821114279	 1.289842131	-0.296502
C	-1.0292412904	-1.0317065311	 0.065113489	-0.11084
H	 0.9089865043	 1.9859667102	-0.333981331	 0.124851
H	-0.8095750807	 1.8862067379	-0.7442341233	 0.118723
H	-0.3056202439	 1.9662414369	 0.9502675045	 0.124851
H	-0.2617353341	-0.9161790176	-2.0935596145	 0.081882
H	 1.3928046114	-2.7478764849	-0.4927569433	 0.079454
H	 2.1976688857	-1.2007545727	-0.9230829039	 0.099905
H	 2.2899845664	-1.2834878774	 2.1390088765	 0.279657
H	-0.3646267957	-2.7764427482	 1.3652793676	 0.079457
H	-0.7731221804	-1.2490482522	 2.2177898327	 0.099903
H	-2.0830814816	-0.9457584457	-0.1679234524	 0.081882
163.8683	184.8349	185.7844	200.9459	356.3993	379.844	459.0919	476.6409	598.9774	657.3884	707.8238	747.8392	831.8622	866.1712	898.8814	901.8201	965.412	972.4173	1006.4683	1008.3741	1069.7935	1074.0961	1107.5585	1127.644	1165.5737	1170.1617	1210.1348	1240.6615	1249.9743	1283.8608	1290.6433	1368.2824	1411.7308	1464.6226	1481.9498	1487.0448	1498.1722	1510.6684	3017.3435	3021.6702	3026.0907	3081.9434	3090.4654	3094.8066	3097.2759	3187.6506	3197.5893	3795.0937
CC12C3CC1(O)CC23	C[C@@]12[C@H]3C[C@]1(O)C[C@@H]23	
InChI=1S/C7H10O/c1-6-4-2-7(6,8)3-5(4)6/h4-5,8H,2-3H2,1H3	InChI=1S/C7H10O/c1-6-4-2-7(6,8)3-5(4)6/h4-5,8H,2-3H2,1H3/t4-,5+,6-,7-
