21
gdb 107662	3.08438	1.30729	1.09071	0.4695	78.46	-0.226	0.0807	0.3067	1197.0036	0.182454	-424.205851	-424.197137	-424.196193	-424.239118	33.65	
C	 0.0444572083	 1.4847256192	 0.3325606222	-0.376452
C	-0.0842443616	 0.0567084529	-0.2090979189	-0.233729
C	-1.4726528655	-0.5182261175	-0.0332615771	 0.405289
C	-1.8564091343	-1.127854095	 1.2997539066	-0.37169
C	-1.661782401	-2.0077700744	 0.0750680813	 0.020225
O	-2.8033142142	-2.5984450667	-0.4832705218	-0.260556
C	-3.3328762103	-1.8501289688	-1.5687320506	-0.081742
C	-3.6000301344	-0.4170364202	-1.1388916542	-0.08931
O	-2.3965915969	 0.2423398664	-0.7733081348	-0.306038
H	 1.0543390672	 1.8736690652	 0.1715064209	 0.107805
H	-0.6635792556	 2.1504912333	-0.167276005	 0.13444
H	-0.1635806233	 1.5190468532	 1.407152574	 0.115007
H	 0.162727545	 0.0394274361	-1.277730459	 0.100722
H	 0.632831292	-0.6024630516	 0.293869967	 0.09486
H	-1.1143538631	-1.1484660595	 2.0909456487	 0.109833
H	-2.8813839641	-1.0259299377	 1.6384720372	 0.11983
H	-0.7861827757	-2.6525335676	 0.0220095729	 0.091777
H	-2.6414865179	-1.8585837329	-2.4255460058	 0.097964
H	-4.2625021218	-2.3460330605	-1.8623502176	 0.111302
H	-4.0288104078	 0.1659773137	-1.959880059	 0.110591
H	-4.3177763751	-0.4155366975	-0.3038908168	 0.09987
93.2489	110.9426	154.9563	213.4275	265.2606	341.6682	353.8356	399.4196	424.2098	496.6296	527.271	641.8484	728.4795	771.1822	803.5882	861.591	897.099	910.0308	946.703	970.82	1002.5632	1032.9419	1062.0645	1070.8128	1103.992	1119.1343	1129.5815	1139.6386	1180.6389	1250.3044	1258.2238	1275.1692	1304.5664	1328.0269	1366.4613	1390.6652	1402.0459	1408.8602	1421.3293	1471.513	1477.1042	1491.8622	1495.0954	1499.4586	1510.1034	2982.9021	2994.1891	3028.0894	3040.6381	3066.975	3081.8804	3092.9285	3106.2546	3112.2332	3124.9869	3130.8217	3221.8213
CCC12CC1OCCO2	CC[C@]12C[C@H]1OCCO2	
InChI=1S/C7H12O2/c1-2-7-5-6(7)8-3-4-9-7/h6H,2-5H2,1H3	InChI=1S/C7H12O2/c1-2-7-5-6(7)8-3-4-9-7/h6H,2-5H2,1H3/t6-,7+/m1/s1
