16
gdb 67884	2.88678	2.11713	1.42039	0.9287	67.5	-0.2401	0.0018	0.2419	890.5281	0.125336	-437.830766	-437.824134	-437.82319	-437.861407	27.069	
C	 0.0014696713	 1.5269564391	-0.0785073888	-0.473056
C	 0.0038938307	 0.0160994888	-0.029074157	 0.346469
N	 0.339950382	-0.562728887	-1.3239277241	-0.335334
C	 0.3634542155	-1.8269758314	-1.3667588174	 0.118314
O	 0.1069583885	-2.6573808019	-0.3288098609	-0.23094
C	-0.2033309725	-1.9534189376	 0.8601499414	 0.102372
C	 0.622039149	-0.6922990699	 1.2261373623	-0.03337
O	-0.5215689672	-0.2573021972	 2.0415535848	-0.301232
C	-1.1265689296	-0.7097030963	 0.7800977411	-0.033372
H	 0.9863349657	 1.8914974226	-0.3861385746	 0.124638
H	-0.7222787363	 1.8744896706	-0.8220757335	 0.124639
H	-0.251526678	 1.945429703	 0.8967821361	 0.134405
H	 0.599792503	-2.3797407159	-2.2716775137	 0.136985
H	-0.399282236	-2.6674894795	 1.6562025557	 0.115534
H	 1.6223802403	-0.6117324741	 1.6494145513	 0.101974
H	-2.2087452063	-0.6498643033	 0.6721600271	 0.101974
201.0444	224.871	314.3744	340.0234	379.8631	436.8195	576.2455	598.2569	606.4686	672.242	781.3092	839.9912	849.6371	886.5131	912.2194	924.3488	944.4776	966.1472	1032.9617	1032.9948	1103.8227	1120.5592	1141.2319	1146.8368	1194.0982	1218.3024	1242.1861	1265.2544	1308.2552	1351.0585	1394.7456	1406.262	1489.9541	1490.2455	1708.6823	3046.8031	3108.7196	3129.4487	3133.2191	3146.9071	3162.6492	3186.246
CC12N=COC3C1OC23	C[C@@]12N=CO[C@H]3[C@@H]1O[C@@H]23	
InChI=1S/C6H7NO2/c1-6-4-3(5(6)9-4)8-2-7-6/h2-5H,1H3	InChI=1S/C6H7NO2/c1-6-4-3(5(6)9-4)8-2-7-6/h2-5H,1H3/t3-,4-,5+,6+
