17
gdb 49401	4.08283	1.36977	1.25773	3.2012	74.89	-0.236	-0.0159	0.2201	1006.9374	0.13717	-384.651428	-384.64476	-384.643815	-384.682837	26.888	
O	-0.1929009879	 0.0633975025	-0.0325466971	-0.258025
C	-0.0214470741	 1.2546181631	 0.027556263	 0.16087
C	 1.3251839485	 1.9396220942	 0.0060636388	-0.092842
C	 1.4135556209	 2.994562224	-1.0902187366	-0.098794
C	 0.864900148	 4.3268633647	-0.610014281	-0.08147
C	 2.3615823031	 4.1112587332	-0.6885404261	-0.093548
C	 2.4317357934	 4.0208224857	 0.8524940643	-0.093592
C	 0.9352955287	 4.2364446909	 0.9353769348	-0.081423
C	 1.5178177331	 2.8600871432	 1.205424254	-0.098736
H	-0.8818707007	 1.9588165839	 0.1065398437	 0.073075
H	 2.108969972	 1.1804505145	-0.0739088162	 0.092699
H	 1.3221275803	 2.7286596961	-2.1365756586	 0.098973
H	 0.2252587116	 4.9728848407	-1.1942948102	 0.092678
H	 3.0937914541	 4.5501330006	-1.3513521727	 0.094224
H	 3.2233095967	 4.3831406645	 1.4929622755	 0.09422
H	 0.3546877447	 4.8067105837	 1.646405097	 0.092684
H	 1.5198749175	 2.4734677642	 2.2175697874	 0.099008
78.5003	136.4724	276.2632	419.6424	485.5756	570.4384	688.4944	721.2924	747.547	781.9267	785.9763	828.4589	853.3449	897.6352	925.9414	928.2674	940.2706	957.0646	967.6505	1009.4444	1032.164	1039.7247	1054.1286	1060.0328	1100.6636	1105.923	1112.8359	1210.3272	1236.4533	1256.0823	1262.4542	1276.8687	1284.366	1362.9118	1381.2097	1424.6176	1827.5342	2864.903	3075.6309	3189.6512	3192.7212	3204.0685	3213.8744	3216.	3225.1083
O=CC1C2C3C2C2C3C12	O=C[C@H]1[C@H]2[C@@H]3[C@H]2[C@H]2[C@@H]3[C@@H]12	
InChI=1S/C8H8O/c9-1-2-3-5-6(3)8-4(2)7(5)8/h1-8H	InChI=1S/C8H8O/c9-1-2-3-5-6(3)8-4(2)7(5)8/h1-8H/t2-,3-,4+,5+,6-,7+,8-
