17
gdb 68513	2.61903	1.87274	1.45238	2.3889	71.68	-0.2436	-0.0059	0.2377	944.7069	0.135863	-421.800697	-421.793279	-421.792335	-421.832342	29.352	
C	 0.0486382	 1.5073327142	-0.0453655307	-0.504323
C	-0.0212598555	 0.0132822359	 0.0381174836	 0.275218
O	 0.4155150832	-0.71545337	-1.1645268206	-0.318914
C	-0.2858711887	-1.882516816	-0.6404302788	-0.068788
C	 0.4625530506	-2.1993231509	 0.6584172689	-0.061782
C	 1.8453177667	-1.6182318041	 0.789167868	-0.301285
C	 0.6634595099	-0.7672027204	 1.1722605238	-0.100551
C	-1.3282979844	-0.8339547082	-0.1415425412	 0.418876
O	-2.5047346801	-0.6761331934	-0.1007967215	-0.313297
H	 1.0868618054	 1.8437400768	-0.125581006	 0.136492
H	-0.510805694	 1.8746601844	-0.9094518871	 0.139987
H	-0.3833595818	 1.9476749944	 0.8585113346	 0.135974
H	-0.4881020996	-2.6564456367	-1.3774187982	 0.103567
H	 0.1258016184	-3.01307158	 1.2878022852	 0.105295
H	 2.4303460353	-1.9992312951	 1.6189153324	 0.11819
H	 2.4120767141	-1.3786534893	-0.1013727579	 0.133559
H	 0.4832698903	-0.4764272316	 2.1995911655	 0.101783
126.2872	165.6917	204.041	290.4083	301.5095	408.0486	529.5623	553.3446	609.5266	680.7385	732.8551	750.4125	799.257	806.7051	853.3279	874.5362	900.3881	917.8945	983.6922	1014.7455	1034.8891	1058.1627	1085.688	1099.462	1130.211	1158.7955	1176.0844	1182.7616	1249.4101	1285.3369	1317.7552	1374.102	1416.1527	1463.4802	1476.2165	1488.9871	1920.294	3043.9767	3114.6637	3125.5185	3147.0771	3155.0275	3192.0584	3201.0316	3236.8846
CC12OC(C3CC13)C2=O	C[C@@]12O[C@@H]([C@H]3C[C@@H]13)C2=O	
InChI=1S/C7H8O2/c1-7-4-2-3(4)5(9-7)6(7)8/h3-5H,2H2,1H3	InChI=1S/C7H8O2/c1-7-4-2-3(4)5(9-7)6(7)8/h3-5H,2H2,1H3/t3-,4+,5-,7+/m0/s1
