25
gdb 66146	3.93292	0.70021	0.67635	0.0248	93.42	-0.2573	0.0869	0.3442	1819.723	0.228406	-352.337918	-352.327795	-352.326851	-352.373633	38.53	
C	 0.0813264086	 1.5917543994	 0.2358409826	-0.461618
C	-0.0229911178	 0.0879322996	 0.0560170062	 0.393768
C	-1.3513514989	-0.4228732398	-0.4845030952	-0.256652
C	-1.676200184	 0.0317972979	-1.9167556913	-0.206241
C	-2.9693375783	-0.556248396	-2.4413094292	 0.040024
C	-4.2906688286	 0.106257827	-2.1373208545	-0.25416
C	-3.7378295631	 0.1278903283	-3.5422012733	-0.279818
C	 1.2280131403	-0.6603441952	-0.3436957517	-0.293777
C	 0.6926154639	-0.779073702	 1.0648963854	-0.315788
H	 1.0472552554	 1.8696679685	 0.6692827876	 0.11019
H	-0.0152321058	 2.1253622072	-0.7161119414	 0.116511
H	-0.7029967405	 1.9637901001	 0.9062888131	 0.111506
H	-1.3451315248	-1.5204688257	-0.4586137363	 0.086088
H	-2.1635908262	-0.1085542444	 0.1855218498	 0.093974
H	-1.7436427345	 1.126427249	-1.9558448114	 0.090874
H	-0.8462891733	-0.2472464153	-2.5799912861	 0.096112
H	-2.9866389996	-1.6439733528	-2.4632678539	 0.077058
H	-5.1534178117	-0.5178115958	-1.9315992423	 0.107952
H	-4.2722465098	 1.0340217814	-1.573879234	 0.107217
H	-3.3510860372	 1.0693484266	-3.9193035531	 0.107715
H	-4.221252748	-0.4841163615	-4.295880567	 0.107949
H	 1.125756074	-1.5182503917	-1.0006424803	 0.105396
H	 2.1407698466	-0.0941141553	-0.4975479566	 0.105285
H	 1.2426327413	-0.2905388094	 1.8626518417	 0.104958
H	 0.229707592	-1.7160615502	 1.3571676312	 0.105479
48.9122	66.6558	119.1235	128.2415	216.9535	235.7873	300.3335	342.4371	352.5627	387.5414	428.6472	477.1139	716.5564	764.4012	779.0871	789.1541	818.6486	835.6912	868.6687	907.2563	928.1818	943.7622	953.6348	968.9305	1021.415	1042.2712	1054.129	1061.8279	1067.3889	1077.6349	1077.8525	1118.6642	1139.2983	1141.9776	1188.3456	1198.3797	1228.9324	1241.0596	1287.5377	1306.6112	1324.3339	1364.4566	1389.8161	1416.9763	1420.5967	1468.2453	1469.3604	1476.3526	1492.7855	1497.2433	1500.4014	1508.1643	1511.9329	3005.2406	3014.7684	3022.0976	3035.5167	3058.5779	3082.4208	3096.9336	3123.1637	3125.6547	3125.7825	3128.1237	3131.7272	3200.1215	3203.0739	3214.7287	3218.4428
CC1(CCC2CC2)CC1	CC1(CCC2CC2)CC1	
InChI=1S/C9H16/c1-9(6-7-9)5-4-8-2-3-8/h8H,2-7H2,1H3	InChI=1S/C9H16/c1-9(6-7-9)5-4-8-2-3-8/h8H,2-7H2,1H3
