20
gdb 61554	2.79294	1.12689	0.86648	6.7593	75.67	-0.2409	0.0361	0.277	1352.4645	0.171063	-440.304579	-440.295409	-440.294465	-440.33899	33.982	
C	 0.7032187195	 1.9167176061	 0.4019800458	-0.386475
C	 0.0473430979	 0.6522518601	-0.160114288	-0.124338
C	 0.6936268332	 0.2081287359	-1.5035637915	-0.240325
C	-0.3044852526	-0.3134237895	-2.5171321387	 0.002649
C	-0.0806224691	-1.5626812352	-3.2843141253	-0.245867
N	-1.0102368652	-1.5565222296	-2.1391464021	-0.319661
H	-0.6061762193	-1.7176873443	-0.4455577289	 0.325313
H	-1.9767444322	-1.5514315371	-2.4483638373	 0.248706
C	 0.0642864167	-0.4691017358	 0.900498392	 0.401479
O	-0.336383637	-1.6834779131	 0.5086941337	-0.389427
O	 0.4142222797	-0.2709092822	 2.0368915162	-0.332297
H	 1.7719457192	 1.7565551488	 0.5736005491	 0.126465
H	 0.5867406078	 2.750705949	-0.2977777459	 0.097949
H	 0.2588210045	 2.1896472632	 1.3599867987	 0.138542
H	-1.0137674367	 0.869088706	-0.3530707478	 0.094419
H	 1.212997706	 1.0630041057	-1.9499869717	 0.11388
H	 1.4594782877	-0.5525771108	-1.3169889585	 0.11934
H	-0.9145865256	 0.4499997752	-2.9959501844	 0.101994
H	-0.5082867296	-1.6525321624	-4.2781103218	 0.128338
H	 0.8305129253	-2.1315561999	-3.1265678134	 0.139317
56.4614	105.2969	126.7654	212.865	233.1591	265.1338	302.8851	334.6678	398.5393	440.3598	518.5253	614.7326	732.162	792.5713	824.4798	869.633	877.8121	911.7023	928.6007	943.2212	984.2257	1027.4127	1051.6263	1114.0757	1128.9944	1134.9176	1143.042	1176.8246	1235.8656	1260.6454	1275.7969	1288.8027	1303.8723	1346.9691	1370.0742	1410.0621	1430.9134	1446.51	1483.242	1487.4156	1497.1624	1512.6358	1838.1527	2999.9135	3040.3554	3044.5674	3080.5154	3108.5436	3122.9688	3132.1103	3142.9396	3212.2029	3234.4649	3530.4756
CC(CC1C[NH2+]1)C([O-])=O	C[C@@H](C[C@H]1CN1)C(=O)O	
InChI=1S/C6H11NO2/c1-4(6(8)9)2-5-3-7-5/h4-5,7H,2-3H2,1H3,(H,8,9)	InChI=1S/C6H11NO2/c1-4(6(8)9)2-5-3-7-5/h4-5,7H,2-3H2,1H3,(H,8,9)/t4-,5-/m0/s1
