17
gdb 48268	2.45314	1.04473	0.80078	3.1748	75.74	-0.2565	-0.037	0.2195	1411.1886	0.132237	-421.770599	-421.76099	-421.760046	-421.806575	33.462	
O	 0.2006322366	-0.1150635117	-0.1823097075	-0.240113
C	 0.1868154716	 1.0149187027	 0.2250465821	 0.159457
C	 1.3159998389	 2.0237647259	-0.011647283	-0.251655
C	 0.9876548005	 2.8546346393	-1.2912221576	-0.243359
C	 1.1070972427	 2.0320500194	-2.5509113859	 0.088472
C	 1.6195520001	 2.6139264992	-3.7970788148	-0.186566
O	 2.4428498612	 1.7696714833	-2.9913537241	-0.232944
C	 1.4718187953	 2.8793827347	 1.1564390137	 0.285283
C	 1.554581419	 3.5815181632	 2.1285431649	-0.421304
H	-0.6813298684	 1.4298950872	 0.7835327713	 0.09441
H	 2.2333463802	 1.4565469568	-0.2036823288	 0.147423
H	-0.0219259186	 3.2753630144	-1.2049465291	 0.117556
H	 1.6867630832	 3.6941126279	-1.3377444064	 0.128945
H	 0.4450522447	 1.1692610259	-2.6233432677	 0.115337
H	 1.314111707	 2.1960401678	-4.7550708962	 0.120777
H	 1.9075405689	 3.6644424733	-3.8193089698	 0.115139
H	 1.6514381471	 4.1984185408	 2.9877455589	 0.203143
48.127	58.1557	78.9243	124.3998	176.3959	224.3298	286.9624	378.862	444.6226	466.3204	510.2263	540.4242	639.8706	653.0609	788.4425	851.6326	884.8137	928.8924	964.5048	997.7654	1025.4036	1073.4128	1098.0113	1139.1302	1161.3479	1168.3476	1207.8843	1277.7796	1299.9077	1300.936	1343.5064	1416.1331	1448.6089	1471.7533	1531.0459	1834.4695	2236.7871	2890.9464	3036.952	3061.917	3083.5595	3096.1753	3121.0868	3171.0308	3502.3844
O=CC(CC1CO1)C#C	O=C[C@@H](C[C@H]1CO1)C#C	
InChI=1S/C7H8O2/c1-2-6(4-8)3-7-5-9-7/h1,4,6-7H,3,5H2	InChI=1S/C7H8O2/c1-2-6(4-8)3-7-5-9-7/h1,4,6-7H,3,5H2/t6-,7+/m1/s1
