14
gdb 44993	3.86388	1.20023	1.02901	2.5718	66.73	-0.2712	-0.0433	0.2278	1103.0691	0.100391	-436.707646	-436.700204	-436.69926	-436.739962	27.768	
O	 0.0159812934	 0.0495380161	-0.317200484	-0.282252
C	-0.0051154406	 1.1979892936	 0.0244988961	 0.392681
C	-1.2763396888	 2.0384848225	 0.2553227797	-0.35755
C	-0.7869016014	 3.3096624533	 0.899808392	-0.014924
O	-0.0479471538	 3.0854025768	 2.1029097716	-0.27586
C	 0.7002169646	 3.33121678	 0.9049116293	 0.276055
C	 1.2442043794	 2.0665040586	 0.276569571	-0.404608
C	 1.4596983069	 4.5568326819	 0.8609400604	 0.229693
N	 2.087020557	 5.5255053321	 0.800131552	-0.32388
H	-1.7632389171	 2.2336746894	-0.7075348269	 0.148161
H	-1.9848466808	 1.4877319884	 0.8798069004	 0.160087
H	-1.3660445838	 4.2276334655	 0.8707684086	 0.131552
H	 1.9509445007	 1.541850453	 0.9241552349	 0.164126
H	 1.7478172043	 2.2692353389	-0.6753063352	 0.156719
74.4939	146.4024	165.5554	323.671	385.3519	437.2789	476.6264	486.5086	561.8408	582.7258	659.135	714.8816	776.6924	811.5758	878.688	908.9861	994.5123	1008.4974	1076.5862	1136.1369	1142.3169	1193.2865	1219.515	1280.4898	1287.7553	1303.5862	1413.4531	1436.2611	1446.0451	1865.438	2362.7404	3053.5644	3060.5897	3108.9997	3116.424	3169.9892
O=C1CC2OC2(C1)C#N	O=C1C[C@H]2O[C@]2(C1)C#N	
InChI=1S/C6H5NO2/c7-3-6-2-4(8)1-5(6)9-6/h5H,1-2H2	InChI=1S/C6H5NO2/c7-3-6-2-4(8)1-5(6)9-6/h5H,1-2H2/t5-,6-/m1/s1
