16
gdb 123645	4.02493	1.56249	1.22322	2.5621	74.46	-0.2253	0.022	0.2473	978.8408	0.129227	-396.923908	-396.917591	-396.916647	-396.954411	25.99	
C	-0.0517514485	 1.4865293008	 0.0105563168	-0.349683
C	 1.4269219227	 1.9091706138	-0.0319768225	-0.023342
N	 2.2053946749	 1.5160732163	 1.1589472157	-0.329452
C	 2.3173342892	 0.701636513	-0.0861015963	-0.255545
C	 1.4016553749	-0.4586854381	-0.0637000811	 0.32026
C	 1.3196763036	-1.8295700224	-0.0519116573	-0.230968
N	-0.0133113239	-2.1101718871	 0.0407450368	-0.186143
N	-0.8060710152	-1.0099500119	 0.0926578643	-0.329576
C	 0.0633319066	-0.0161366353	 0.0240349411	 0.330126
H	-0.5551345293	 1.8831554664	 0.8977555527	 0.130342
H	-0.5906437344	 1.8539098368	-0.8704277586	 0.114711
H	 1.69482158	 2.8279195892	-0.5431618752	 0.087631
H	 3.0209599321	 2.1227509015	 1.2268888153	 0.227394
H	 3.2551785304	 0.6992387401	-0.6300824246	 0.089462
H	 2.0551955536	-2.6169773502	-0.0975147651	 0.133317
H	-0.4460893069	-3.0177056227	 0.0520383679	 0.271468
160.1444	237.9957	359.4119	441.9001	448.6822	474.8779	613.8801	655.9155	702.8552	726.747	779.899	791.1453	815.6383	844.6717	886.3378	939.3273	972.4004	992.8532	1054.8904	1056.4751	1108.6537	1130.6975	1169.0042	1185.4482	1196.4863	1224.1091	1287.6696	1310.1497	1349.2091	1392.7686	1441.1271	1464.4187	1472.1576	1514.9822	1637.7372	3041.9487	3085.7012	3162.6125	3175.628	3260.0158	3478.2969	3679.3261
C1C2NC2C2=CNN=C12	C1[C@H]2N[C@H]2c2c[nH]nc12	
InChI=1S/C6H7N3/c1-4-3(2-7-9-4)6-5(1)8-6/h2,5-6,8H,1H2,(H,7,9)	InChI=1S/C6H7N3/c1-4-3(2-7-9-4)6-5(1)8-6/h2,5-6,8H,1H2,(H,7,9)/t5-,6+/m1/s1
