18
gdb 128301	5.5324	1.04149	0.89763	1.7702	82.5	-0.1835	0.0376	0.2211	1305.222	0.14992	-398.10758	-398.099286	-398.098342	-398.141142	30.343	
C	 0.0084907361	 1.4151228813	-0.2845878403	-0.320416
N	 0.0070633714	 0.027740953	 0.1396089367	-0.36041
C	-1.1963722692	-0.6546020727	 0.2221220255	 0.419215
N	-1.2052010805	-1.9967414791	 0.1044031664	-0.400199
N	-2.5249979108	-2.2653220221	 0.2122391117	 0.079679
C	-3.5040033326	-3.2882473999	 0.6024148154	-0.164632
C	-4.5103428684	-2.0789100374	 0.772924998	-0.368196
C	-3.3058105274	-1.2040717506	 0.4499616854	 0.384995
C	-2.4931104183	-0.0876691674	 0.4587789938	-0.487219
H	 1.041788103	 1.7654987227	-0.3442080619	 0.122256
H	-0.4752444286	 1.5832097738	-1.2601400114	 0.110183
H	-0.5040625537	 2.0376924613	 0.4564079395	 0.130092
H	 0.7259083284	-0.5404220368	-0.2847200368	 0.240999
H	-3.7300159093	-4.0215789782	-0.1767514425	 0.125014
H	-3.2591261452	-3.7993906804	 1.5381457777	 0.13186
H	-5.3334486323	-2.0578002517	 0.0547332241	 0.126935
H	-4.9107734634	-1.9727224645	 1.7836195801	 0.130405
H	-2.7457547293	 0.9489476288	 0.5973088487	 0.099439
57.6259	81.3753	156.5707	200.5342	231.6002	322.4927	372.7641	527.0641	542.9792	640.2776	687.3524	716.7412	749.4026	806.6157	816.5544	830.9515	913.1193	989.6654	1056.0749	1069.872	1090.7589	1130.382	1152.636	1169.0728	1177.1326	1196.2398	1217.9195	1273.5013	1323.4411	1352.4897	1448.0337	1473.9887	1480.0333	1485.7967	1493.2296	1514.3804	1524.3607	1545.0015	1604.9015	2975.0483	3051.3683	3064.1853	3070.2236	3102.017	3115.322	3122.2773	3282.3134	3601.4312
CNC1=NN2CCC2=C1	CNc1nn2CCc2c1	
InChI=1S/C6H9N3/c1-7-6-4-5-2-3-9(5)8-6/h4H,2-3H2,1H3,(H,7,8)	InChI=1S/C6H9N3/c1-7-6-4-5-2-3-9(5)8-6/h4H,2-3H2,1H3,(H,7,8)
