16
gdb 10638	2.56456	1.92996	1.37965	3.8223	66.26	-0.2575	0.015	0.2724	937.2812	0.129269	-379.891874	-379.883309	-379.882364	-379.924909	30.575	
C	-0.2033408119	 1.4621425442	 0.0461141885	-0.320895
N	 0.0351471951	 0.0234895934	 0.0940374882	-0.093041
C	 1.362588194	-0.4837888843	-0.1779376044	-0.275573
C	 0.7979608139	-0.5393484356	 1.213760016	 0.130177
C	 1.3949767578	 0.3225477536	 2.322419759	-0.138215
O	 0.4190465399	 0.7650453665	 3.2430017534	-0.413289
C	 0.2615237882	-1.7895797396	 1.722377671	 0.260124
N	-0.1403750453	-2.766971711	 2.1921948491	-0.340901
H	 0.6925787426	 2.0763679534	 0.2169097353	 0.10797
H	-0.5954610859	 1.7054236969	-0.9453805348	 0.13538
H	-0.9525705446	 1.7245232824	 0.796324178	 0.151861
H	 1.4252544324	-1.3866580257	-0.778301362	 0.13952
H	 2.1723406758	 0.2309312996	-0.3294241196	 0.119549
H	 2.1982035111	-0.2450427611	 2.8147959155	 0.115863
H	 1.8434031217	 1.2210763033	 1.8937373042	 0.119999
H	 0.0645719851	-0.005934116	 3.7009795628	 0.301469
81.9447	132.6324	150.6895	175.1367	247.9619	295.1396	357.0121	375.3845	396.3355	488.4368	569.3352	578.2723	712.5233	811.455	870.5678	915.6116	1008.902	1056.5874	1079.5384	1127.2621	1127.6677	1147.7065	1198.7883	1206.5517	1267.3402	1366.8712	1381.2096	1419.9328	1450.4124	1483.8287	1488.4283	1504.9021	1517.0607	2350.1954	2997.5679	3003.2615	3084.0352	3087.0241	3111.6012	3132.5478	3186.1119	3798.6653
CN1CC1(CO)C#N	CN1C[C@]1(CO)C#N	
InChI=1S/C5H8N2O/c1-7-3-5(7,2-6)4-8/h8H,3-4H2,1H3	InChI=1S/C5H8N2O/c1-7-3-5(7,2-6)4-8/h8H,3-4H2,1H3/t5-,7?/m0/s1
