19
gdb 7795	3.17107	1.72328	1.20926	2.5796	71.73	-0.2119	-0.0138	0.1981	1018.8969	0.16702	-365.08969	-365.081807	-365.080863	-365.121865	30.052	
C	-0.0027059197	 1.5697642368	 0.0187607883	-0.398476
C	 0.0077718866	 0.0394216019	-0.0157897908	 0.012664
C	 0.6963335506	-0.5096195372	-1.2799457291	-0.161296
N	 0.7591206272	-1.9692045934	-1.3465512474	-0.288069
C	 1.4242094822	-2.5580248121	-0.1785765191	-0.259116
C	 0.8502449851	-2.0671266232	 1.1513721844	 0.370881
O	 0.5438793454	-2.8179853925	 2.0486970006	-0.306224
C	 0.6834835339	-0.5560931892	 1.2399331941	-0.294754
H	 1.018639002	 1.9686918369	 0.0169870367	 0.116199
H	-0.5241467472	 1.9827473855	-0.8512146112	 0.115505
H	-0.503369639	 1.9427933092	 0.9179509513	 0.118919
H	-1.0341435237	-0.3135498731	-0.0331129963	 0.077229
H	 0.1825585103	-0.1453429258	-2.1765389929	 0.103245
H	 1.7264206571	-0.1263014365	-1.3281834631	 0.101425
H	-0.1827651475	-2.3441624008	-1.414358851	 0.221433
H	 1.3554961319	-3.6477902473	-0.2151419568	 0.123308
H	 2.4900625459	-2.2875504782	-0.2185905943	 0.117745
H	 1.6917111033	-0.1227428638	 1.3313812188	 0.113422
H	 0.1369981458	-0.3140008572	 2.1557509379	 0.11596
91.7064	127.4929	226.1413	264.4214	289.6094	387.7407	396.7062	430.5034	489.9812	517.7906	648.0438	760.9367	824.1216	839.9937	865.2229	914.9413	942.7123	978.4191	991.6701	1089.8021	1105.9635	1141.8938	1150.7156	1160.9605	1241.5354	1270.1686	1288.6536	1321.9672	1333.3706	1345.3947	1368.0416	1391.11	1412.5618	1456.5701	1464.9023	1482.2704	1491.2272	1497.7146	1498.9847	1816.5138	2989.213	2999.2716	3002.6497	3010.252	3026.9497	3066.6644	3091.1507	3094.6941	3101.8842	3107.8858	3504.3251
CC1CNCC(=O)C1	C[C@H]1CNCC(=O)C1	
InChI=1S/C6H11NO/c1-5-2-6(8)4-7-3-5/h5,7H,2-4H2,1H3	InChI=1S/C6H11NO/c1-5-2-6(8)4-7-3-5/h5,7H,2-4H2,1H3/t5-/m1/s1
