17
gdb 87658	2.73798	1.29973	1.12177	3.3982	71.24	-0.2323	0.0199	0.2522	1132.4434	0.134529	-455.10122	-455.092149	-455.091205	-455.135212	33.472	
O	-0.6633766912	 1.4046307864	-0.1270528942	-0.431965
C	-0.2654010442	 0.0634960777	-0.1736442549	 0.037012
C	-0.1635407044	-0.7186283495	 1.1327016771	-0.412827
C	-1.3233549968	-0.9081966328	 0.2077780071	 0.350416
N	-2.7113439225	-0.5262935346	 0.4683464952	-0.377411
C	-3.189067059	-1.4096552783	-0.5037201527	 0.336019
N	-4.2382734984	-1.5710073017	-1.1891857645	-0.550568
C	-1.8334384602	-2.1160657611	-0.6111158483	-0.033391
O	-1.3345453483	-2.3048266493	-1.9043684052	-0.431682
H	 0.0825722648	 1.931034587	 0.1787001731	 0.293619
H	 0.4015008589	-0.2054133643	-0.9917726837	 0.107059
H	 0.5788689414	-1.5069317337	 1.2104079407	 0.123432
H	-0.3464243483	-0.1622732371	 2.0470873566	 0.118058
H	-2.9940333687	 0.4440682788	 0.5384072199	 0.249372
H	-4.9476036274	-0.8644695481	-0.9868228356	 0.216882
H	-1.7767061498	-3.0533158952	-0.0451435226	 0.105331
H	-2.0375910161	-2.0533979341	-2.515484588	 0.300643
66.9829	112.9749	137.0175	185.8166	212.9781	271.8699	308.4613	416.9799	438.3208	494.8459	530.4973	563.6821	619.8999	711.0616	797.7007	815.022	849.7707	877.0751	917.8609	997.6774	1013.6367	1034.3666	1057.5536	1085.4524	1147.113	1156.5813	1181.0696	1218.4736	1253.3459	1285.9627	1331.7874	1346.1451	1370.7218	1400.1204	1424.6474	1504.9419	1799.422	3041.7283	3115.2536	3120.8314	3212.5696	3462.2899	3564.0475	3788.2626	3808.6998
OC1CC11NC(=N)C1O	O[C@H]1C[C@]21N[C]([NH])[C@H]2O	
InChI=1S/C5H8N2O2/c6-4-3(9)5(7-4)1-2(5)8/h2-3,8-9H,1H2,(H2,6,7)	InChI=1S/C5H8N2O2/c6-4-3(9)5(7-4)1-2(5)8/h2-3,8-9H,1H2,(H2,6,7)/t2-,3+,5+/m0/s1
