18
gdb 14453	3.24161	2.43117	1.96556	1.4978	71.1	-0.2318	0.0993	0.3311	776.6323	0.155431	-347.767619	-347.761095	-347.760151	-347.797871	26.484	
C	 0.0029880422	 1.5125191524	-0.0292059627	-0.524789
C	 0.0197345067	 0.0083077503	-0.0384369183	 0.309827
C	 0.5763184919	-0.9526513826	-1.1181057198	-0.293912
C	 0.0271565668	-1.8972068337	-0.0272365817	-0.091816
C	 0.604981627	-0.9458980606	 1.0724771447	-0.087444
C	-0.3968020895	-0.9420328094	 2.2190188483	-0.11215
O	-1.6384352357	-0.9410138907	 1.4905500042	-0.284351
C	-1.1957431231	-0.9554571156	 0.1454163899	 0.116322
H	 1.0184100044	 1.9241282734	-0.0270267429	 0.117923
H	-0.5147056462	 1.9049210599	-0.9114331355	 0.12066
H	-0.5177181892	 1.8909412734	 0.8570944108	 0.127596
H	 0.0622548036	-0.9594569718	-2.0847164767	 0.088619
H	 1.6609886458	-0.9500013408	-1.2562087122	 0.092397
H	 0.02778412	-2.9872863706	-0.0106515974	 0.071252
H	 1.6735531797	-0.9406771693	 1.2917840968	 0.068263
H	-0.3357452471	-1.8323221109	 2.8575948727	 0.100674
H	-0.3324385455	-0.0497132005	 2.8546893287	 0.100089
H	-2.0409226617	-0.962556223	-0.5428052389	 0.08084
182.3554	217.2353	239.3162	349.5819	414.905	456.122	637.698	682.2446	737.8239	753.0306	808.0677	896.9374	907.0586	931.5196	956.5175	960.349	990.8273	1009.045	1015.0125	1047.6335	1085.597	1092.0333	1125.6013	1146.9607	1179.5145	1196.6514	1217.3211	1221.3535	1242.813	1275.7271	1305.9186	1341.3699	1391.9585	1409.5369	1488.5451	1490.3715	1521.7828	1522.7998	3014.1599	3026.3056	3042.8129	3050.2984	3091.5727	3096.5858	3101.758	3107.7163	3114.9864	3131.1249
CC12CC3C1COC23	C[C@@]12C[C@H]3[C@@H]1CO[C@@H]23	
InChI=1S/C7H10O/c1-7-2-4-5(7)3-8-6(4)7/h4-6H,2-3H2,1H3	InChI=1S/C7H10O/c1-7-2-4-5(7)3-8-6(4)7/h4-6H,2-3H2,1H3/t4-,5-,6+,7+/m0/s1
