18
gdb 102339	1.73565	1.50956	1.16802	3.6603	78.82	-0.2479	0.0022	0.2501	1186.2493	0.146172	-398.078213	-398.067898	-398.066953	-398.113217	37.257	
C	 0.0532297449	 1.5770999509	-0.1082197434	-0.337984
N	-0.0049704201	 0.1294279285	 0.1064581067	-0.307302
C	-1.3495743747	-0.4752928018	 0.0339702648	-0.123409
C	-2.1598639713	-0.0963898131	 1.3365011607	-0.160837
N	-1.5240292119	-0.4608003232	 2.5812079476	-0.506649
C	-2.1249818484	-0.0970787877	-1.1593267253	 0.348781
C	-2.7609044893	 0.2703999471	-2.110749446	-0.444643
C	-1.1622888885	-1.9410471403	 0.0404824866	 0.285376
N	-1.024717145	-3.0873482073	 0.0782614775	-0.339242
H	 1.105410045	 1.8716049625	-0.1206054588	 0.132361
H	-0.4183384613	 1.9097546426	-1.0438088077	 0.124168
H	-0.4241021296	 2.1043999448	 0.7224641661	 0.135473
H	 0.595902704	-0.3345162245	-0.5658835722	 0.241825
H	-2.3194114344	 0.9856624993	 1.3008446611	 0.124309
H	-3.1436214652	-0.5671518528	 1.2670066009	 0.132524
H	-1.509859676	-1.4710636019	 2.6876822231	 0.244478
H	-0.5537110412	-0.1585868271	 2.5635706802	 0.241212
H	-3.3230394468	 0.574226854	-2.959850622	 0.209557
87.1577	120.9902	126.1533	132.8114	173.8032	193.8731	259.8713	280.8035	352.8702	373.9375	434.0416	484.8466	521.173	568.1304	595.653	650.8734	674.2256	681.9933	768.8422	857.7348	900.9451	990.7389	1012.5507	1077.8809	1118.5499	1146.3945	1163.1913	1204.8319	1249.6354	1366.1421	1394.1849	1456.849	1479.2031	1487.4526	1500.264	1524.385	1676.5188	2226.1694	2360.7213	3005.3381	3060.2553	3088.6739	3112.3341	3123.316	3493.2604	3497.1116	3534.6426	3570.6254
CNC(CN)(C#C)C#N	CN[C@@](CN)(C#C)C#N	
InChI=1S/C6H9N3/c1-3-6(4-7,5-8)9-2/h1,9H,4,7H2,2H3	InChI=1S/C6H9N3/c1-3-6(4-7,5-8)9-2/h1,9H,4,7H2,2H3/t6-/m1/s1
