21
gdb 110147	2.0059	1.27318	0.93301	2.7316	76.4	-0.2351	0.0521	0.2872	1353.7623	0.179463	-461.306159	-461.295373	-461.294429	-461.342506	37.48	
C	-0.4775692276	 1.1481876102	-0.1514971187	-0.232661
O	 0.4638802065	 0.1200634197	 0.1098514716	-0.233087
C	 0.9539651345	-0.4734738121	-1.0454623463	 0.055352
C	 1.3721425348	-1.9182439532	-0.9284070231	-0.159018
C	 1.242270583	-2.6305209203	 0.4018971009	-0.072099
O	 1.4473892025	-4.0341783984	 0.284651922	-0.425958
C	 0.1363956667	-1.5307631043	-1.7423419721	 0.056
O	-1.1374214472	-1.760277514	-1.2316836313	-0.227382
C	-1.6893885956	-2.9977370475	-1.6271930077	-0.232747
H	-0.0340448327	 1.9508088574	-0.7602424535	 0.101625
H	-1.3622054504	 0.7558345644	-0.6659789287	 0.128969
H	-0.7710941429	 1.5616044592	 0.8161489348	 0.126069
H	 1.55046318	 0.1912980307	-1.6743507434	 0.085467
H	 2.2515369871	-2.2123651412	-1.4951928773	 0.093387
H	 2.0229673769	-2.2809852822	 1.0845024821	 0.117704
H	 0.2761411504	-2.3939438488	 0.8611709857	 0.112624
H	 0.7714046883	-4.3813645693	-0.3054706937	 0.279183
H	 0.2015588626	-1.5983810684	-2.8298812687	 0.084659
H	-2.6960005326	-3.0519297479	-1.2068630364	 0.135087
H	-1.7517069867	-3.0824066752	-2.7223129662	 0.112974
H	-1.1033139275	-3.8499778791	-1.2513162901	 0.093849
67.6171	98.1076	111.4643	115.0925	156.5328	172.5929	204.1844	228.0411	273.8447	286.9697	337.9401	375.8356	569.5426	621.6231	661.208	772.1812	813.0618	886.3103	953.5047	1030.5696	1055.5596	1063.0156	1092.8064	1111.4028	1133.9009	1145.5228	1166.562	1177.6885	1184.5611	1209.3282	1232.5393	1243.5413	1272.6726	1329.2491	1362.6511	1389.0177	1421.858	1436.5297	1481.3201	1484.4904	1485.0024	1487.4075	1501.0431	1505.2332	1509.3136	2980.5218	2989.2149	3027.8491	3043.6727	3065.4667	3068.9414	3083.3653	3087.647	3122.2455	3123.2883	3147.4008	3817.2429
COC1C(CO)C1OC	CO[C@H]1[C@@H](CO)[C@H]1OC	
InChI=1S/C6H12O3/c1-8-5-4(3-7)6(5)9-2/h4-7H,3H2,1-2H3	InChI=1S/C6H12O3/c1-8-5-4(3-7)6(5)9-2/h4-7H,3H2,1-2H3/t4-,5+,6-
