17
gdb 109161	3.25717	1.13266	0.86899	2.6801	71.92	-0.2453	-0.0493	0.196	1285.2325	0.135145	-458.989088	-458.980156	-458.979212	-459.023227	32.297	
O	 0.0171875677	 1.4206378338	 0.0969585838	-0.420756
C	 0.0069840496	 0.0065932845	 0.0338144493	-0.178194
C	-1.4061346892	-0.472753387	 0.0112885289	 0.192284
C	-2.5369986951	 0.2510576553	 0.0475695792	-0.141949
C	-3.7904787209	-0.5813378912	-0.0779811256	-0.29617
C	-3.2753475482	-2.0238214779	 0.0631785879	 0.059265
O	-3.852737188	-2.936319954	-0.8360316787	-0.438854
C	-1.7609249683	-1.8941306784	-0.1539024377	 0.280421
O	-1.043724442	-2.8245444035	-0.4600485746	-0.356958
H	 0.9325304493	 1.714113292	 0.1032996747	 0.294218
H	 0.51942697	-0.3721967148	-0.8654562805	 0.118939
H	 0.5278019285	-0.444650802	 0.8948989108	 0.11109
H	-2.5579066827	 1.3310973462	 0.1323576347	 0.132578
H	-4.547484297	-0.3099792157	 0.6647223361	 0.118029
H	-4.2500425089	-0.4541195471	-1.0656435885	 0.140517
H	-3.4187574836	-2.3539248013	 1.1078157142	 0.093679
H	-3.1619727314	-3.5883713988	-1.0232574038	 0.291861
61.6545	87.5336	164.3716	214.8664	244.2397	249.5352	322.4271	350.2612	396.3036	457.0104	545.6594	607.5927	666.0921	771.0424	816.116	855.5027	942.1954	953.1066	1016.021	1034.807	1045.6238	1102.6329	1134.9232	1180.3346	1206.5388	1233.4255	1244.2673	1252.4352	1304.5081	1336.2074	1371.6391	1413.8068	1467.756	1477.0294	1504.9606	1688.0308	1797.5052	2941.7258	2965.7461	2986.4815	3041.4005	3080.4837	3214.0787	3734.2329	3839.7038
OCC1=CCC(O)C1=O	OCC1=CC[C@@H](O)C1=O	
InChI=1S/C6H8O3/c7-3-4-1-2-5(8)6(4)9/h1,5,7-8H,2-3H2	InChI=1S/C6H8O3/c7-3-4-1-2-5(8)6(4)9/h1,5,7-8H,2-3H2/t5-/m1/s1
