20
gdb 113238	4.42878	0.76626	0.729	4.4916	80.16	-0.2715	0.0312	0.3027	1569.0806	0.169207	-403.148378	-403.138226	-403.137282	-403.183886	36.535	
C	-0.0192120106	 1.7145169989	 0.0757843008	-0.474003
C	-0.0536760392	 0.19738942	 0.1018054943	 0.327204
C	-1.3751963417	-0.3935024891	-0.3948609173	-0.408337
C	-1.6568718375	-0.05931709	-1.7934704121	 0.273421
N	-1.8656462383	 0.2156738598	-2.8963409855	-0.315124
C	 1.2009829105	-0.5852739713	-0.2048082047	-0.311173
C	 0.6338920733	-0.594480467	 1.1950672631	-0.038774
C	 1.3714706832	 0.0471243978	 2.342328765	-0.110585
O	 2.2918653569	-0.9133672483	 2.8429731312	-0.41576
H	 0.9551065559	 2.1048626016	 0.376559286	 0.123126
H	-0.2226053319	 2.0825151484	-0.9354541358	 0.145166
H	-0.7752714528	 2.1437569593	 0.7442305508	 0.117296
H	-1.3649381827	-1.484568678	-0.3004636726	 0.149203
H	-2.2100554621	-0.0310351279	 0.2184046988	 0.148197
H	 1.1253498933	-1.4866994512	-0.8034634759	 0.118832
H	 2.1122004587	-0.0199518919	-0.3711891312	 0.118739
H	 0.1329169827	-1.5117682559	 1.4958217213	 0.090901
H	 1.892981566	 0.9556409184	 2.00674287	 0.085928
H	 0.655689425	 0.3512606564	 3.1235116515	 0.088303
H	 2.7233865213	-0.5386608801	 3.6167226823	 0.287439
55.3989	75.069	116.8395	164.004	208.0625	226.968	264.0034	301.1905	355.5638	365.6738	395.9918	433.3851	447.5708	617.2606	717.9443	849.2156	872.4444	907.9657	911.3218	938.1347	974.317	993.9283	1042.1366	1070.2453	1084.4399	1112.1563	1125.8871	1170.4467	1215.6771	1248.6534	1258.4885	1288.6681	1325.9371	1355.782	1411.0891	1425.0149	1459.6732	1471.1312	1492.8862	1495.8201	1511.2889	1520.5781	2359.7199	2966.0396	3002.483	3030.3244	3033.5226	3079.0834	3090.8949	3124.8492	3131.7993	3134.967	3215.24	3826.1175
CC1(CC#N)CC1CO	C[C@@]1(CC#N)C[C@H]1CO	
InChI=1S/C7H11NO/c1-7(2-3-8)4-6(7)5-9/h6,9H,2,4-5H2,1H3	InChI=1S/C7H11NO/c1-7(2-3-8)4-6(7)5-9/h6,9H,2,4-5H2,1H3/t6-,7+/m0/s1
