18
gdb 30873	2.39245	1.39682	0.92515	0.1989	77.77	-0.1767	0.0349	0.2116	1280.1652	0.146651	-439.103307	-439.093722	-439.092778	-439.137917	34.296	
C	-0.2830028193	 1.1784332996	 0.0578479341	-0.251608
O	 0.6264547253	 0.0893750258	-0.1423439459	-0.277576
C	 0.8930195349	-0.6385872028	 0.9554443498	 0.322675
C	 0.6283963393	-1.9397451757	 1.2495055107	 0.128935
N	-0.1344913073	-2.8512541705	 0.495606719	-0.617846
C	 1.2245010334	-2.166596134	 2.5395948125	-0.33489
C	 1.7919839438	-0.9937569607	 2.9297872206	 0.367778
C	 2.5403411139	-0.5791808938	 4.1445421801	-0.487581
O	 1.5971631631	-0.0407952633	 1.9702784046	-0.221945
H	 0.139620742	 1.9168361636	 0.7469720417	 0.133979
H	-0.4363436613	 1.6377172562	-0.9204376786	 0.130564
H	-1.2396045711	 0.8174046278	 0.4540327864	 0.12295
H	-0.2892080443	-2.4994194193	-0.442342062	 0.243269
H	 0.3167137822	-3.7562922375	 0.4262930961	 0.241107
H	 1.2147377606	-3.0882367617	 3.1016715084	 0.099355
H	 3.5532032533	-0.2372010412	 3.9009500402	 0.134846
H	 2.0373123268	 0.2415915611	 4.6693781763	 0.133576
H	 2.6221102546	-1.4234106337	 4.8330564761	 0.132412
66.4974	129.9165	141.8726	150.6898	203.295	222.9334	263.3203	287.6748	311.5506	426.517	532.4438	594.8234	629.2669	646.7981	682.5837	783.7877	803.2663	833.5528	984.4359	1010.7808	1018.2993	1063.0398	1080.8339	1167.4548	1176.4541	1191.7061	1218.8048	1304.7696	1311.2658	1415.7068	1444.2384	1471.5183	1478.8671	1485.0636	1498.104	1505.1712	1626.341	1649.2697	1724.6437	3020.498	3025.0643	3072.6196	3093.6543	3125.8767	3136.2587	3246.888	3513.4592	3600.6042
COC1=C(N)C=C(C)O1	COc1c(N)cc(C)o1	
InChI=1S/C6H9NO2/c1-4-3-5(7)6(8-2)9-4/h3H,7H2,1-2H3	InChI=1S/C6H9NO2/c1-4-3-5(7)6(8-2)9-4/h3H,7H2,1-2H3
