15
gdb 133492	3.47147	0.83567	0.77126	0.2938	56.47	-0.2808	0.0181	0.2989	1436.3352	0.107281	-585.460044	-585.450816	-585.449872	-585.495638	31.788	
C	-0.0175669406	 1.4133215223	-0.1894319316	-0.445322
C	-0.0325175721	-0.0614180334	 0.0844724124	 0.425268
N	-0.0869443416	-0.5365899833	 1.2561406066	-0.512652
O	 0.0207588185	-0.747706779	-1.1013118413	-0.239748
C	 0.0159422691	-2.1550062963	-1.0487264033	-0.240567
C	 0.0811386394	-2.6589827923	-2.4819598424	 0.281094
F	 1.1920699631	-2.2509050697	-3.0995657548	-0.06888
F	 0.0782494754	-4.0007996583	-2.4728618635	-0.077665
F	-0.9667724631	-2.2469381097	-3.199114438	-0.068913
H	 0.889204709	 1.6857650827	-0.7379177874	 0.145668
H	-0.8708923851	 1.6886526336	-0.8166724455	 0.145677
H	-0.0590111211	 1.9587137394	 0.7518733588	 0.152096
H	-0.090128589	-1.5547140673	 1.2875199066	 0.222427
H	 0.8847151662	-2.548075735	-0.5068541663	 0.140756
H	-0.9003249582	-2.5450225937	-0.5891150503	 0.14076
47.9463	57.142	121.2605	140.5728	166.7672	253.8688	317.1758	362.6081	455.5717	537.5256	555.376	555.8207	599.7171	669.6349	854.1361	861.5586	909.4983	995.5167	997.2779	1076.9469	1094.6578	1147.7483	1195.0388	1199.0287	1286.1047	1316.428	1321.5198	1406.9268	1439.7778	1473.9537	1477.431	1501.2338	1745.0453	3027.5646	3054.11	3079.3789	3113.0905	3173.5773	3502.2872
CC(=N)OCC(F)(F)F	C[C]([NH])OCC(F)(F)F	
InChI=1S/C4H6F3NO/c1-3(8)9-2-4(5,6)7/h8H,2H2,1H3	InChI=1S/C4H6F3NO/c1-3(8)9-2-4(5,6)7/h8H,2H2,1H3
