25
gdb 113813	3.75026	0.7833	0.70166	0.0555	94.76	-0.2393	0.0884	0.3277	1749.9871	0.228199	-352.337508	-352.327093	-352.326148	-352.373729	38.98	
C	-0.0278757792	 1.5933357408	-0.2891006873	-0.373794
C	 0.0057427153	 0.1503405929	 0.2287290268	-0.190602
C	-1.3608566884	-0.5043359967	 0.204854293	 0.010508
C	-1.8756034837	-1.1963100472	-1.0364445664	-0.307988
C	-1.5679733775	-2.0053758793	 0.2048844746	-0.022719
C	-0.4288106721	-2.9767957524	 0.230317009	 0.003797
C	-0.1037417572	-3.7660524731	 1.4803200348	-0.306968
C	-0.6364723502	-4.4784614461	 0.2598224272	-0.002173
C	-2.0054865036	-5.1231011934	 0.2639808805	-0.402136
H	 0.966497457	 2.0501996132	-0.2611303309	 0.107399
H	-0.3889717717	 1.6314943146	-1.3222388731	 0.116968
H	-0.6967666895	 2.2146603299	 0.3168518251	 0.111905
H	 0.7119476694	-0.4316355121	-0.3742252027	 0.093711
H	 0.4003716658	 0.1385750681	 1.2533627363	 0.096694
H	-2.1091747605	 0.0525371198	 0.7662335287	 0.074896
H	-2.9093739305	-1.0588791934	-1.3351392216	 0.104215
H	-1.1850948701	-1.2934182607	-1.8698355111	 0.104589
H	-2.4369378514	-2.3323989426	 0.7688452514	 0.074292
H	 0.432179451	-2.6598354385	-0.3512036461	 0.074784
H	 0.9344451998	-3.9003191119	 1.7649873931	 0.104472
H	-0.7810935012	-3.6556686194	 2.3225043784	 0.104811
H	 0.1027679853	-5.0422672827	-0.3045833355	 0.0786
H	-2.7175760217	-4.5708134012	 0.8838841182	 0.114841
H	-2.4238269976	-5.1828528585	-0.7471151588	 0.116412
H	-1.9514283874	-6.1423929401	 0.6625750364	 0.113485
30.3735	81.958	104.5541	159.0556	198.5425	208.6999	237.337	286.4452	333.9661	383.0312	424.4672	463.6338	587.2977	747.8112	762.7445	786.4523	800.9049	848.4219	860.429	893.1333	914.4886	952.4977	960.683	999.3401	1024.8526	1049.8662	1062.0198	1068.6838	1072.184	1109.8078	1115.4484	1142.5407	1150.7079	1194.4144	1199.855	1207.7239	1233.1138	1265.6724	1297.2085	1318.4149	1345.5961	1398.4172	1408.2566	1418.2337	1423.7815	1454.0361	1482.9614	1490.3481	1493.8133	1497.2041	1498.5458	1508.1165	1508.9526	3019.6518	3028.8304	3030.1151	3056.9636	3085.8819	3097.2603	3100.7997	3102.9005	3115.6502	3118.8693	3120.3534	3127.9707	3138.6717	3148.8227	3203.1774	3204.6565
CCC1CC1C1CC1C	CC[C@H]1C[C@H]1[C@H]1C[C@H]1C	
InChI=1S/C9H16/c1-3-7-5-9(7)8-4-6(8)2/h6-9H,3-5H2,1-2H3	InChI=1S/C9H16/c1-3-7-5-9(7)8-4-6(8)2/h6-9H,3-5H2,1-2H3/t6-,7+,8+,9-/m1/s1
