17
gdb 54626	3.65605	1.21475	1.05546	2.6824	75.04	-0.2434	-0.0622	0.1811	1155.452	0.135431	-421.797271	-421.789428	-421.788484	-421.830242	29.599	
C	-0.0719472803	 1.4823863852	-0.0216311294	-0.495171
C	-0.0700028533	-0.0352086048	 0.0010989182	 0.256919
O	-0.0903262766	-0.6607661084	 1.0429548866	-0.306159
C	-0.0473744695	-0.7272495566	-1.3035032117	 0.293267
C	-0.0293468113	-2.0473870133	-1.5494985603	-0.170498
C	-0.0106098817	-2.0806594217	-3.0826287021	 0.02336
C	 1.0921451847	-1.022473947	-3.4019433241	-0.220419
C	-0.0348921852	-0.16912886	-2.7459957418	-0.065881
O	-1.0034033813	-1.0495918607	-3.4064640423	-0.280185
H	 0.7980948756	 1.8635709197	-0.5688778148	 0.134982
H	-0.9634046723	 1.8548082736	-0.5397029665	 0.144274
H	-0.0583623642	 1.8623920923	 1.0001605758	 0.143369
H	-0.0217263152	-2.8748964712	-0.8558337459	 0.142196
H	-0.134004917	-3.020819932	-3.6168126717	 0.09221
H	 2.0589462723	-1.0973187895	-2.9000537461	 0.106087
H	 1.1925934268	-0.8383311899	-4.4736593085	 0.115736
H	-0.1847503014	 0.8929880242	-2.9316958154	 0.085914
58.1238	135.2915	152.2067	172.7409	361.2615	431.7398	484.5916	503.543	603.3292	624.5936	659.6022	786.9369	814.3358	842.8962	870.6229	899.0117	907.7007	933.1621	963.3361	1012.7843	1034.6887	1042.5071	1086.1148	1121.7614	1159.7381	1206.8988	1223.3973	1247.6829	1265.8292	1297.2304	1304.0709	1380.0608	1463.0167	1474.2308	1486.1837	1636.6616	1768.2425	3031.8676	3068.2761	3091.2749	3140.8986	3142.5005	3147.2748	3154.7373	3254.4976
CC(=O)C1=CC2CC1O2	CC(=O)C1=C[C@@H]2C[C@H]1O2	
InChI=1S/C7H8O2/c1-4(8)6-2-5-3-7(6)9-5/h2,5,7H,3H2,1H3	InChI=1S/C7H8O2/c1-4(8)6-2-5-3-7(6)9-5/h2,5,7H,3H2,1H3/t5-,7-/m1/s1
