21
gdb 121181	2.3954	1.02302	0.78199	1.1141	84.86	-0.2494	0.0387	0.2881	1526.2873	0.180579	-387.04409	-387.034068	-387.033124	-387.080041	36.159	
C	-0.281821242	 1.471372832	 0.0052017745	-0.382798
C	 0.0041311275	-0.0322366585	 0.0031405815	-0.168321
C	 0.7579918439	-0.4953541458	-1.2489728183	-0.184628
C	 0.9891770865	-1.9947501029	-1.2561354216	 0.132412
O	-0.2457309987	-2.751438738	-1.306309754	-0.287168
C	 0.0804383372	-3.3257042551	-2.5817641185	-0.074852
C	 1.4881303675	-2.6689210211	-2.5794216714	-0.268648
C	 1.8533546145	-1.8370113068	-3.705522698	 0.346997
C	 2.1478466277	-1.1513615851	-4.6487765383	-0.470327
H	 0.6457152543	 2.0534153758	-0.0391768516	 0.111776
H	-0.892385166	 1.7589700491	-0.8578911864	 0.115222
H	-0.8208120023	 1.7724799093	 0.9089114717	 0.111501
H	 0.5859813876	-0.2974613928	 0.8960757263	 0.091325
H	-0.9354437387	-0.5920687508	 0.0711643659	 0.118092
H	 0.1998709247	-0.2134589312	-2.1498197686	 0.104792
H	 1.73242209	 0.0071926226	-1.3161249565	 0.099194
H	 1.5797561434	-2.2916779229	-0.3786667513	 0.077127
H	 0.0712036237	-4.4212965036	-2.5592460574	 0.107058
H	-0.5813872098	-2.972319889	-3.3808375295	 0.110752
H	 2.2789781252	-3.3975844037	-2.3825221631	 0.111314
H	 2.4110969236	-0.5459484315	-5.4804935554	 0.19918
48.3289	89.9586	91.799	102.4513	177.3669	219.7478	250.708	319.7107	346.815	473.9736	503.5439	562.431	621.5825	639.4937	731.5157	754.9906	826.8575	876.7004	892.439	918.6398	956.8941	1019.5072	1045.5876	1054.8865	1068.2646	1122.9223	1127.8527	1155.9893	1166.5645	1218.4638	1255.7497	1269.7026	1303.9034	1324.2344	1349.3759	1358.7448	1383.8898	1407.4165	1414.7833	1471.5714	1493.9947	1500.05	1510.1101	1525.9027	2234.1187	3005.6092	3017.7073	3022.1673	3024.2005	3029.1414	3057.7776	3062.9523	3073.9693	3078.9995	3097.774	3101.752	3503.4392
CCCC1OCC1C#C	CCC[C@H]1OC[C@H]1C#C	
InChI=1S/C8H12O/c1-3-5-8-7(4-2)6-9-8/h2,7-8H,3,5-6H2,1H3	InChI=1S/C8H12O/c1-3-5-8-7(4-2)6-9-8/h2,7-8H,3,5-6H2,1H3/t7-,8-/m1/s1
