18
gdb 126500	3.52228	1.27843	0.999	3.6869	77.63	-0.2528	0.02	0.2728	1195.7008	0.150104	-398.121371	-398.113392	-398.112448	-398.154652	29.079	
C	 0.1023150912	 1.5903708982	-0.0413421242	-0.386279
C	-0.1776171119	 0.0925538184	 0.1139983816	-0.190291
C	 0.6885413098	-0.5465240463	 1.1966457851	-0.147302
C	 0.6924387962	-2.1389580161	 1.2760414762	-0.201065
N	 2.1309883482	-2.0339041759	 0.9698498237	 0.080899
N	 3.3389278466	-2.6025741842	 0.7594387853	-0.288213
C	 4.0632509568	-1.493564823	 0.5607542558	 0.021411
N	 3.4050675915	-0.286509794	 0.6361113972	-0.388282
C	 2.1813986057	-0.7107545615	 0.9005848435	 0.388097
H	 1.1514368963	 1.766260176	-0.2987676119	 0.148688
H	-0.5188325888	 2.0241567912	-0.8300776829	 0.119083
H	-0.1095230679	 2.1313184294	 0.887276245	 0.118735
H	-1.2333733073	-0.0700988292	 0.3641125463	 0.104051
H	 0.0037256748	-0.4206524735	-0.8384607892	 0.108428
H	 0.490943567	-0.0881792462	 2.1709570528	 0.108179
H	 0.4791966926	-2.5699558106	 2.2567066139	 0.139508
H	 0.1124399728	-2.6440719542	 0.5000253145	 0.138649
H	 5.1207838465	-1.5581641384	 0.3504664172	 0.125705
72.8609	91.8966	134.8601	190.8299	251.6664	357.898	416.5224	502.8082	666.4109	678.2779	749.02	771.9635	821.4066	864.8064	885.4802	946.1552	968.4789	993.7037	1044.2313	1098.1729	1125.7671	1134.9436	1159.0627	1179.2918	1212.5074	1244.4959	1257.7154	1282.3551	1313.9754	1335.6712	1377.9223	1408.0646	1417.5121	1484.0914	1488.2862	1499.7902	1508.24	1515.863	1569.4852	3024.5735	3037.2609	3053.6062	3067.9522	3071.3464	3106.6743	3116.3722	3129.7319	3258.2436
CCC1CN2N=CN=C12	CC[C@H]1Cn2ncnc12	
InChI=1S/C6H9N3/c1-2-5-3-9-6(5)7-4-8-9/h4-5H,2-3H2,1H3	InChI=1S/C6H9N3/c1-2-5-3-9-6(5)7-4-8-9/h4-5H,2-3H2,1H3/t5-/m0/s1
