20
gdb 119539	3.04487	1.06002	0.86957	3.4487	80.43	-0.2339	-0.0135	0.2203	1397.0039	0.169895	-403.128923	-403.119714	-403.11877	-403.163531	33.987	
C	 0.1219320409	 1.5939900524	 0.1172633932	-0.384798
C	 0.1765361407	 0.0663900788	 0.0541451485	-0.163201
C	 0.5396636025	-0.4572709716	-1.3462014229	-0.336232
C	 0.5668583404	-1.9536363399	-1.4136371797	 0.23703
N	 1.6979857146	-2.7725069384	-0.8390643954	-0.362588
C	 1.3268606125	-2.9555221532	-2.2487824292	-0.130123
C	 0.1764454453	-3.9706933987	-2.2352604717	-0.342902
C	-0.6155792238	-2.9037518018	-1.4227240381	 0.405908
O	-1.7679782847	-2.7804333182	-1.1228222891	-0.312816
H	 1.0884732428	 2.0389158262	-0.1458905614	 0.110852
H	-0.6254484739	 1.9927389899	-0.5776263611	 0.117849
H	-0.1406481779	 1.9393995588	 1.1216250719	 0.116978
H	 0.9060439098	-0.3121658839	 0.7805022305	 0.10304
H	-0.7922047033	-0.3568384078	 0.3420523743	 0.129079
H	-0.1930332918	-0.0828321974	-2.0728402395	 0.113818
H	 1.5161540948	-0.0596362372	-1.6566546208	 0.094129
H	 2.4950754264	-2.1340215976	-0.8071563918	 0.232517
H	 2.0172048987	-2.750977118	-3.0568563409	 0.109872
H	-0.2996985818	-4.1411724602	-3.2049736705	 0.12864
H	 0.3867761778	-4.9219162924	-1.7423740365	 0.132949
62.8747	87.9374	107.1038	152.9047	237.5278	258.5372	315.6135	355.5504	446.4703	496.3655	557.4975	652.6246	725.4737	740.8118	779.1188	853.6949	876.4937	894.2015	915.4978	949.0694	996.1127	1018.391	1039.5313	1057.8296	1097.3489	1111.0742	1121.7799	1169.4818	1205.0987	1244.2341	1280.2608	1314.2304	1325.2778	1354.0581	1384.1811	1413.7965	1422.8483	1447.8196	1475.5843	1493.8038	1499.9281	1510.1147	1884.2282	3006.355	3028.7934	3034.357	3045.7762	3068.7594	3072.9939	3098.8029	3105.8558	3130.8782	3203.9777	3446.4618
CCCC12NC1CC2=O	CCC[C@]12N[C@H]1CC2=O	
InChI=1S/C7H11NO/c1-2-3-7-5(8-7)4-6(7)9/h5,8H,2-4H2,1H3	InChI=1S/C7H11NO/c1-2-3-7-5(8-7)4-6(7)9/h5,8H,2-4H2,1H3/t5-,7-/m0/s1
