13
gdb 132923	3.20003	1.43763	0.99198	4.6408	67.11	-0.2193	-0.0443	0.175	1071.6616	0.088849	-494.058507	-494.050512	-494.049568	-494.091924	28.962	
N	-0.0089756111	 1.341999723	 0.0078175068	-0.562785
C	-0.035079511	-0.0062052543	 0.0008349908	 0.335408
N	-1.1683633544	-0.6453207919	 0.0041439596	-0.363853
C	-1.1999258972	-2.0117540864	-0.0026717741	 0.42165
N	-2.2657566674	-2.693269647	-0.0005587397	-0.533613
O	 0.0497066566	-2.7247246733	-0.0139134774	-0.236188
C	 1.2044143197	-2.0460800481	-0.017189219	-0.026596
C	 1.229412049	-0.7092048234	-0.0102720634	 0.115982
F	 2.3704652121	-0.0031831997	-0.0132866081	-0.081728
H	 0.86284269	 1.8391671654	 0.0052257407	 0.277025
H	-0.8812531001	 1.8429000152	 0.0154768955	 0.279095
H	-2.0497412815	-3.6882263041	-0.007194649	 0.222094
H	 2.0885351052	-2.6726980556	-0.0257285627	 0.153508
47.4963	75.8992	204.1936	283.9594	335.0355	374.1674	375.9653	465.1275	539.6069	570.9215	594.5257	708.3827	721.8624	754.8012	772.789	816.9123	821.521	916.6476	994.0865	1167.1161	1197.4712	1257.6579	1301.0052	1340.5487	1508.1228	1601.1259	1638.6199	1739.6493	1760.3481	3211.234	3519.5121	3621.836	3761.8382
NC1=NC(=N)OC=C1F	NC1=C(COC(=N1)[NH])F	
InChI=1S/C4H4FN3O/c5-2-1-9-4(7)8-3(2)6/h1H,(H3,6,7,8)	InChI=1S/C4H5FN3O/c5-2-1-9-4(7)8-3(2)6/h7H,1H2,(H2,6,8)
