20
gdb 14879	3.48017	1.41154	1.11193	1.5121	72.75	-0.237	0.0784	0.3154	1141.2888	0.175373	-386.101989	-386.092908	-386.091964	-386.135944	32.297	
C	 0.0446145902	 1.3352732275	-0.3336281939	-0.231333
O	-0.0645897372	 0.0792833925	 0.2936868419	-0.234645
C	-1.3390504349	-0.4994976289	 0.1588101164	 0.087176
C	-1.5280823363	-1.2546816082	-1.1939723414	-0.257062
C	-1.0094251314	-2.5475970632	-0.5036442435	-0.259009
C	-1.3673935941	-1.881489752	 0.855700295	 0.15654
O	-0.5311828962	-2.0213570423	 1.9617362839	-0.232038
C	-0.5979750183	-3.301304088	 2.5474011642	-0.236533
H	 1.0564449888	 1.7027148719	-0.1461590224	 0.127532
H	-0.1129272212	 1.2780037594	-1.4215333446	 0.10225
H	-0.6786447892	 2.0570361346	 0.078357893	 0.103142
H	-2.117926368	 0.2204795868	 0.4501903705	 0.05734
H	-2.5796836812	-1.3227033193	-1.4853887627	 0.101712
H	-0.9507577912	-0.8750129205	-2.0387806418	 0.107148
H	-1.4863114979	-3.496040149	-0.7593124767	 0.092177
H	 0.0745232794	-2.6400252434	-0.6038921104	 0.119711
H	-2.4100006381	-2.1251915404	 1.1226486459	 0.060988
H	-1.6185026416	-3.5410863685	 2.8879111077	 0.100112
H	-0.2743497778	-4.0910638314	 1.8528001467	 0.107481
H	 0.0707724163	-3.2984462976	 3.4113805022	 0.127312
82.7483	108.9158	128.5558	145.2459	199.1269	208.1561	284.5097	341.1648	400.6235	451.9602	563.274	702.2872	744.1542	856.396	910.9396	923.2202	958.001	1014.233	1057.5145	1103.2727	1105.3929	1153.2263	1171.1741	1183.0874	1185.303	1196.8218	1231.9764	1235.0201	1254.7136	1260.5491	1279.8071	1310.931	1379.4195	1402.5139	1467.9665	1479.9718	1481.6297	1486.3202	1488.1451	1493.2485	1509.0818	1510.464	2951.4708	2969.6679	2970.4665	2990.9108	3016.8257	3017.9007	3064.7769	3069.5292	3113.3444	3114.3933	3117.3128	3132.1518
COC1CCC1OC	CO[C@H]1CC[C@H]1OC	
InChI=1S/C6H12O2/c1-7-5-3-4-6(5)8-2/h5-6H,3-4H2,1-2H3	InChI=1S/C6H12O2/c1-7-5-3-4-6(5)8-2/h5-6H,3-4H2,1-2H3/t5-,6+
