15
gdb 43903	3.10731	1.36574	1.12545	1.8644	70.89	-0.2597	-0.0452	0.2145	1060.3861	0.112819	-416.793946	-416.786301	-416.785357	-416.826376	28.712	
O	-0.0165257711	 0.0647680049	-0.3534851778	-0.280766
C	-0.0153729921	 1.217812279	-0.0472494508	 0.416112
C	-1.117617629	 2.2215118608	 0.3541941982	-0.376126
C	 0.0154204392	 3.2340786374	 0.6868740595	 0.211161
N	 0.5901101691	 2.980297322	 2.038035373	-0.354486
C	 1.793525618	 2.316337706	 1.4681044056	-0.174262
C	 1.1079980165	 2.2698885693	 0.0809290717	-0.222579
C	-0.1309789382	 4.6153522602	 0.2872022297	 0.19013
N	-0.2412649482	 5.727670029	-0.0112678972	-0.333244
H	-1.7154792923	 2.5119277148	-0.516965792	 0.150932
H	-1.7719327901	 1.946245387	 1.1824934783	 0.150575
H	 0.7710971573	 3.8147734242	 2.5831866548	 0.241906
H	 2.6902592288	 2.94608161	 1.4511734011	 0.12246
H	 2.0373864771	 1.3561762551	 1.931249048	 0.131705
H	 1.696576465	 2.4811237803	-0.8100971321	 0.126481
77.286	143.604	188.967	220.043	359.1128	430.6797	472.6185	519.402	562.2338	572.1803	625.2831	680.3121	741.9018	851.5201	928.5259	947.5372	958.9546	1014.0317	1042.2153	1062.764	1087.5577	1108.2379	1151.4628	1177.184	1192.4979	1225.2752	1258.752	1321.8786	1390.4221	1421.2172	1517.7145	1905.4424	2346.5592	3033.6636	3057.7889	3091.8615	3138.6963	3140.4088	3556.2417
O=C1CC2(NCC12)C#N	O=C1C[C@]2(NC[C@@H]12)C#N	
InChI=1S/C6H6N2O/c7-3-6-1-5(9)4(6)2-8-6/h4,8H,1-2H2	InChI=1S/C6H6N2O/c7-3-6-1-5(9)4(6)2-8-6/h4,8H,1-2H2/t4-,6-/m0/s1
