17
gdb 72763	3.22109	1.39651	1.16325	2.8522	76.39	-0.238	-0.0478	0.1902	1067.6518	0.135972	-421.831799	-421.824104	-421.82316	-421.863862	30.382	
O	-0.2115160329	 1.4066472027	 0.2067604622	-0.48264
C	 0.0064432968	 0.0057846558	 0.1059422558	 0.377883
C	-1.3954060706	-0.6468679439	-0.1188081803	-0.265163
C	-1.1311713524	-0.5786874831	-1.677924737	-0.326848
C	 0.3206158436	-0.483379297	-1.2925959237	 0.271178
C	 1.5262926659	-1.0427751709	-1.4180550984	-0.351056
C	 2.2147691067	-0.9848392778	-0.0897964104	 0.375936
O	 3.3460565602	-1.3256496902	 0.1560779979	-0.322281
C	 1.1617365839	-0.5222183583	 0.9606440125	-0.434283
H	 0.6188019977	 1.8529305391	 0.003832292	 0.28099
H	-1.4396638089	-1.6764220137	 0.2403602455	 0.116758
H	-2.2401531433	-0.0699945258	 0.2612409939	 0.122324
H	-1.4361887263	-1.417652079	-2.3055627559	 0.121484
H	-1.5271317578	 0.3528744071	-2.0893756469	 0.137826
H	 1.9532022325	-1.5718924912	-2.2609335641	 0.116469
H	 1.5718242713	 0.2176785548	 1.6522210201	 0.125292
H	 0.8825849237	-1.4020995487	 1.5501984868	 0.136129
84.8801	183.0081	231.722	312.6362	338.9135	379.7279	404.003	509.9118	552.3144	577.118	600.8514	710.0103	761.694	799.5098	803.9767	870.9265	879.9523	905.5266	952.2768	993.4487	1045.162	1088.9706	1097.1594	1136.8532	1172.538	1187.9627	1207.0886	1224.8736	1249.3284	1262.0692	1301.4685	1363.8346	1446.1097	1459.2497	1470.2833	1695.9031	1817.9312	3057.9531	3073.533	3078.1779	3111.5197	3128.9414	3148.6231	3214.1883	3792.5998
OC12CCC1=CC(=O)C2	O[C@@]12CC[C]1[CH]C(=O)C2	
InChI=1S/C7H8O2/c8-6-3-5-1-2-7(5,9)4-6/h3,9H,1-2,4H2	InChI=1S/C7H8O2/c8-6-3-5-1-2-7(5,9)4-6/h3,9H,1-2,4H2/t7-/m1/s1
