15
gdb 80201	2.24843	1.60071	1.19968	4.0199	73.43	-0.2578	-0.0095	0.2483	1066.3235	0.110407	-420.591094	-420.582819	-420.581875	-420.623897	30.884	
C	 0.0246991882	 1.5638606916	 0.0429689246	-0.428511
C	 0.0917290383	 0.0549891915	 0.0626064443	-0.068342
C	 1.3191774498	-0.7400795061	-0.1625845086	 0.03507
O	 2.4783680434	-0.0307636897	 0.3363855217	-0.258284
C	 2.0009378776	-0.1224374962	 1.6406315459	 0.419971
O	 2.5536653977	 0.2008974931	 2.6363977743	-0.310601
C	 0.6967482413	-0.7840603812	 1.2336245204	-0.055606
C	-0.0224827994	-1.7760450842	 1.9456040685	 0.175249
C	-0.6353163036	-2.6113902724	 2.5564968751	-0.394399
H	 0.9743905504	 2.0130752706	 0.3392673305	 0.152732
H	-0.2116916052	 1.9119322997	-0.9679721393	 0.132198
H	-0.7578802766	 1.924229165	 0.7165009304	 0.13812
H	-0.8024544352	-0.4491097684	-0.2997542425	 0.122774
H	 1.4969793489	-1.5399899491	-0.8675926099	 0.142649
H	-1.1672125557	-3.3519572142	 3.1009624846	 0.196981
124.8787	129.2906	149.7949	187.0412	259.4517	342.953	389.1958	479.529	510.5635	587.1475	598.7464	640.6326	669.4276	699.8871	768.8655	797.8398	896.9934	920.8687	932.7076	976.0557	1057.7731	1078.6335	1096.3818	1119.3688	1226.9673	1282.4222	1329.9528	1417.2053	1447.7435	1490.5307	1500.6702	1950.5098	2241.1217	3045.9772	3109.6183	3132.3672	3146.6329	3226.4687	3500.925
CC1C2OC(=O)C12C#C	C[C@H]1[C@H]2OC(=O)[C@@]12C#C	
InChI=1S/C7H6O2/c1-3-7-4(2)5(7)9-6(7)8/h1,4-5H,2H3	InChI=1S/C7H6O2/c1-3-7-4(2)5(7)9-6(7)8/h1,4-5H,2H3/t4-,5+,7-/m0/s1
