16
gdb 24086	6.95769	0.7237	0.68137	1.5398	76.58	-0.2446	0.0003	0.2449	1575.4287	0.124327	-400.748457	-400.740139	-400.739195	-400.782499	30.055	
C	-0.0263325748	-1.2175468667	-0.0729310218	-0.443131
C	-0.0364897374	-0.0178143737	 0.0015054599	 0.296412
C	-0.0104399503	 1.4359451676	 0.0911736426	-0.345029
C	 1.4221609426	 2.0135155481	-0.0226005257	-0.312592
C	 1.4298906606	 3.5057665484	 0.0268224726	 0.260579
C	 2.0165532628	 4.3476265371	 0.912275542	-0.124586
O	 1.7361959612	 5.634446416	 0.5380945629	-0.137769
C	 0.9784886158	 5.496173016	-0.5710175334	 0.076823
N	 0.7591452225	 4.27481099	-0.9276219842	-0.301275
H	-0.0342771083	-2.2770121702	-0.1406251437	 0.193858
H	-0.6270446992	 1.8742610886	-0.7016245993	 0.155155
H	-0.4552756618	 1.7577911923	 1.0409416073	 0.130591
H	 2.0458700523	 1.6113089913	 0.7811492936	 0.116941
H	 1.858839645	 1.6740614811	-0.9682158927	 0.132249
H	 2.624581164	 4.2241283454	 1.7916569878	 0.148838
H	 0.638320265	 6.4046985986	-1.0429199279	 0.152936
58.3079	69.4202	98.7575	188.1145	310.1553	359.8602	375.2596	478.3444	616.663	639.9809	642.1728	686.2768	746.8312	765.5868	784.4698	850.1379	936.4577	966.6718	979.8241	1020.6922	1031.8467	1096.5433	1132.9365	1176.1085	1246.3554	1278.79	1286.7181	1310.3692	1350.5405	1373.9118	1474.1029	1486.5772	1559.2667	1631.4805	2239.0769	3030.575	3049.5416	3067.9529	3099.2603	3275.3203	3294.559	3507.4422
C#CCCC1=COC=N1	C#CCCc1cocn1	
InChI=1S/C7H7NO/c1-2-3-4-7-5-9-6-8-7/h1,5-6H,3-4H2	InChI=1S/C7H7NO/c1-2-3-4-7-5-9-6-8-7/h1,5-6H,3-4H2
