19
gdb 7536	3.56323	1.24523	1.21513	3.0746	72.77	-0.2287	-0.0192	0.2095	1102.3985	0.162455	-365.043783	-365.034521	-365.033576	-365.078139	32.983	
C	-0.1572121422	 1.5145849162	 0.0741338031	-0.317337
N	 0.0209457211	 0.0720936033	 0.1440247553	-0.105377
C	 1.3232573249	-0.4777573802	-0.2143372226	-0.297558
C	 0.8415799767	-0.5378930584	 1.1989575749	 0.307876
C	 1.53440223	 0.3004855396	 2.2589321998	-0.463333
C	 0.2542860198	-1.8463402018	 1.7240181255	-0.319128
C	-0.9219391615	-1.5956816238	 2.6440223929	 0.158375
O	-1.0329646041	-2.0316173018	 3.7616276694	-0.244398
H	 0.7519679654	 2.1017405843	 0.2729931778	 0.102521
H	-0.5065383214	 1.771786154	-0.9309301406	 0.128142
H	-0.9281149069	 1.8221607484	 0.7879383973	 0.124883
H	 1.3177700702	-1.3627823392	-0.8467244557	 0.111526
H	 2.1281659236	 0.2254858865	-0.4282519333	 0.105753
H	 1.9788467826	 1.2090397978	 1.8483319239	 0.122867
H	 0.839891564	 0.5902436202	 3.0557668458	 0.131888
H	 2.3383294414	-0.2788970216	 2.7249107297	 0.130756
H	-0.1186714795	-2.4262591822	 0.8709202269	 0.123116
H	 1.0026840009	-2.4413939901	 2.2563402849	 0.113897
H	-1.7105275649	-0.9500842711	 2.1954024652	 0.085532
59.523	62.0973	164.6881	173.5306	189.6614	258.5705	286.0142	342.3022	419.5785	448.628	480.1718	512.0874	698.8052	756.6923	820.0423	906.3751	922.5672	971.0619	1024.6061	1047.3972	1071.1965	1113.1902	1123.1152	1147.5309	1174.4061	1201.2768	1214.8431	1288.9854	1304.9178	1386.1414	1417.1635	1417.6641	1448.9674	1449.8976	1483.9701	1487.1656	1497.7722	1509.48	1517.1605	1830.6926	2881.7836	2986.3758	3034.5348	3036.7295	3068.7943	3082.1008	3093.2904	3100.0092	3102.2291	3127.3728	3166.2152
CN1CC1(C)CC=O	CN1C[C@]1(C)CC=O	
InChI=1S/C6H11NO/c1-6(3-4-8)5-7(6)2/h4H,3,5H2,1-2H3	InChI=1S/C6H11NO/c1-6(3-4-8)5-7(6)2/h4H,3,5H2,1-2H3/t6-,7?/m0/s1
