25
gdb 123255	10.77109	0.36572	0.35924	0.5279	88.24	-0.2487	0.0799	0.3286	3051.7035	0.226366	-426.621479	-426.609424	-426.60848	-426.6605	41.091	
C	-0.0577959388	 1.4879878389	-0.0578978078	-0.382017
C	 0.0176278966	-0.038676439	 0.0199507167	-0.181706
C	 0.7525284067	-0.5236061795	 1.2620440647	-0.029606
O	 0.777438013	-1.9341943246	 1.2570568263	-0.248593
C	 1.4396292545	-2.4877368919	 2.3727072077	-0.050256
C	 1.4037154537	-4.0058134882	 2.2593517139	-0.202456
C	 2.1018562952	-4.6982466793	 3.4323246935	-0.167283
C	 2.0685207064	-6.2165525689	 3.3232864517	-0.07371
O	 2.7389854769	-6.7515740286	 4.4548414837	-0.42209
H	 0.9413148082	 1.9369906821	-0.0849987587	 0.115688
H	-0.5897320481	 1.8099085484	-0.95778701	 0.116392
H	-0.5849036722	 1.9070518906	 0.8064543336	 0.115687
H	-0.9901327532	-0.4697806402	 0.0218788445	 0.105444
H	 0.5266730687	-0.4400082845	-0.863929043	 0.105446
H	 1.7813094319	-0.1212504855	 1.2799015951	 0.080142
H	 0.2511278702	-0.1514255331	 2.1734588684	 0.080142
H	 2.4840736943	-2.1314271121	 2.4160260167	 0.082665
H	 0.9535521129	-2.1619280305	 3.309338125	 0.082669
H	 0.3558781396	-4.3244586502	 2.1972047696	 0.104442
H	 1.874229445	-4.2942535389	 1.3113120652	 0.104429
H	 3.1498072705	-4.3797316575	 3.4949832439	 0.105522
H	 1.6316167479	-4.4100064543	 4.3806776563	 0.105539
H	 1.0226212414	-6.5625867215	 3.2785571569	 0.08432
H	 2.554541647	-6.5320679081	 2.3852737792	 0.084322
H	 2.7206916317	-7.7105921438	 4.3888913368	 0.284866
37.6866	63.5693	65.6839	95.0093	121.0409	149.6241	167.6187	168.8929	235.6088	252.7787	263.7911	304.5956	420.757	473.8863	541.6369	755.9292	765.2548	816.7272	901.2176	909.8495	947.475	991.256	1019.5724	1050.7546	1062.0045	1067.1067	1098.5207	1154.542	1162.94	1178.4968	1196.0889	1224.5979	1235.1795	1270.5712	1287.461	1296.8427	1312.5017	1315.0955	1320.9226	1333.7348	1374.3307	1407.3243	1413.8887	1457.2681	1465.6475	1491.3755	1492.3862	1500.6242	1501.7221	1507.5141	1518.8229	1530.2036	1539.0008	2934.0916	2947.9943	2958.7665	2961.7715	2966.6407	2983.8032	3024.62	3031.3789	3033.3529	3038.1781	3056.4832	3070.6114	3081.1823	3099.2031	3107.6441	3830.4233
CCCOCCCCO	CCCOCCCCO	
InChI=1S/C7H16O2/c1-2-6-9-7-4-3-5-8/h8H,2-7H2,1H3	InChI=1S/C7H16O2/c1-2-6-9-7-4-3-5-8/h8H,2-7H2,1H3
