18
gdb 91970	2.46389	1.74085	1.3912	2.1311	71.13	-0.2309	0.0537	0.2846	988.7737	0.148188	-439.034191	-439.026484	-439.02554	-439.066101	30.498	
O	 0.0261487749	 1.4177049898	-0.2001554803	-0.425591
C	 0.0181949822	 0.0040295136	-0.0035129197	-0.034593
C	 0.565124511	-0.4420994475	 1.3754297404	-0.186669
N	-0.5611076958	-0.5893895014	 2.3210021573	-0.106827
C	-1.4431134978	 0.5853032418	 2.3764554774	-0.257111
C	-1.7980038334	-0.5710013872	 1.5095481694	-0.120163
C	-1.4372407492	-0.4564347144	 0.0581110507	 0.479324
C	-2.3830535822	-0.2661640076	-1.040746333	-0.246158
O	-1.806707494	-1.5529874833	-0.7857838542	-0.288876
H	 0.9419848279	 1.7137311611	-0.1737029443	 0.287211
H	 0.5300994846	-0.5043013497	-0.830057753	 0.090045
H	 1.0414314223	-1.4241286046	 1.2821762757	 0.118294
H	 1.3078595459	 0.2594074182	 1.7702832932	 0.099194
H	-1.9591975015	 0.7117807366	 3.3238187198	 0.115941
H	-1.1229513232	 1.5016807651	 1.8903417018	 0.135427
H	-2.5904232599	-1.2633993751	 1.775953436	 0.100648
H	-3.4468295793	-0.1801232877	-0.823766872	 0.116549
H	-2.0516373526	 0.2278549523	-1.9521878552	 0.123355
106.7863	207.9377	230.9379	279.2252	323.9333	345.9104	396.4555	434.655	500.8384	585.2011	706.9474	769.6787	796.5523	847.9636	870.1529	879.0083	916.8942	964.1576	992.3895	1029.5407	1044.67	1076.5477	1112.3336	1122.8678	1128.9309	1156.5415	1171.1416	1200.13	1234.2379	1258.1215	1268.9741	1305.084	1335.5792	1351.9466	1401.9722	1457.0957	1480.0485	1502.8039	1534.6407	3026.0663	3042.7285	3085.663	3087.1302	3115.3585	3163.033	3175.3484	3209.8584	3812.8688
OC1CN2CC2C11CO1	O[C@H]1CN2C[C@H]2[C@]21CO2	
InChI=1S/C6H9NO2/c8-5-2-7-1-4(7)6(5)3-9-6/h4-5,8H,1-3H2	InChI=1S/C6H9NO2/c8-5-2-7-1-4(7)6(5)3-9-6/h4-5,8H,1-3H2/t4-,5-,6-,7?/m0/s1
