15
gdb 133589	3.10631	1.32559	1.21482	2.4037	57.17	-0.2489	0.0704	0.3193	1018.9334	0.110022	-548.266737	-548.259253	-548.258309	-548.299359	28.186	
F	 0.0523876028	 0.1127842433	-0.337747047	-0.080937
C	 0.0223775097	 1.4274176454	-0.0463638086	 0.274414
F	 1.2868108666	 1.8595644872	-0.0148855369	-0.064997
F	-0.5988904786	 2.0374487906	-1.0706842764	-0.076482
C	-0.702767559	 1.742938171	 1.2490070627	-0.092213
C	-2.0470159594	 1.0395866378	 1.5646414113	-0.288907
C	-1.38578334	 0.6037913941	 2.8734446058	-0.00991
C	-0.1647879622	-0.1763463645	 2.6202545478	-0.244838
N	-0.0682408704	 1.3013308872	 2.5392668002	-0.152283
H	-0.7897218061	 2.8314189942	 1.2786493376	 0.120017
H	-2.8690931244	 1.7450553697	 1.6862716764	 0.123673
H	-2.3631113189	 0.2338085476	 0.8976315662	 0.123711
H	-1.8311176161	 0.6962991237	 3.8577534185	 0.104257
H	 0.3710092421	-0.5551534223	 3.4846445911	 0.12903
H	-0.069250356	-0.7798732449	 1.7254239815	 0.135467
54.2332	170.6654	186.5304	280.0525	353.7384	382.1272	455.8897	526.009	571.6801	685.0741	724.8849	762.9303	783.5379	807.5222	921.008	966.5272	1002.7383	1027.2238	1060.5858	1087.9433	1112.5925	1132.9233	1149.508	1186.7682	1207.4194	1233.0465	1271.8321	1277.4136	1295.0611	1365.8697	1408.5234	1487.648	1509.5758	3073.9316	3089.1212	3135.7144	3139.2886	3177.1143	3229.9993
FC(F)(F)C1CC2CN12	FC(F)(F)[C@H]1C[C@H]2CN12	
InChI=1S/C5H6F3N/c6-5(7,8)4-1-3-2-9(3)4/h3-4H,1-2H2	InChI=1S/C5H6F3N/c6-5(7,8)4-1-3-2-9(3)4/h3-4H,1-2H2/t3-,4+,9?/m0/s1
