18
gdb 90418	2.44982	1.65991	1.30199	2.2336	71.62	-0.237	-0.0129	0.2242	1034.357	0.147418	-439.071023	-439.062558	-439.061614	-439.104136	31.681	
C	-0.3821114411	 1.5248613566	 0.0353859502	-0.399808
C	 0.0030971683	 0.0601507724	 0.0060303712	 0.051351
C	 1.1417932134	-0.4287151518	-0.945466125	-0.275842
C	 1.7510456849	-1.1866365807	 0.2572446158	 0.00269
C	 2.942417479	-0.5502203436	 1.0191019066	-0.00172
O	 3.8512385646	 0.2110247636	 0.2663737156	-0.429379
C	 1.8410657146	 0.2968568442	 1.7074528161	 0.349956
O	 1.8638348687	 1.33529241	 2.310776362	-0.346126
N	 0.7867220107	-0.4817654043	 1.1899541093	-0.164093
H	 0.4906195888	 2.1742156266	 0.1359572737	 0.136362
H	-0.8989380195	 1.7804412128	-0.8957822035	 0.12081
H	-1.0577036686	 1.7351946237	 0.8696451427	 0.137628
H	-0.8929034973	-0.5594214024	-0.0993322344	 0.095191
H	 0.8357322427	-1.0377277276	-1.7975550305	 0.110255
H	 1.791142086	 0.3802617207	-1.2904653543	 0.126857
H	 1.6976102711	-2.2760744275	 0.2381388889	 0.086196
H	 3.4546369545	-1.2676163959	 1.6754192978	 0.097816
H	 4.0141018291	 1.0235788631	 0.7614142178	 0.301856
72.2397	144.4773	185.4445	208.944	240.3837	280.297	320.9077	413.0977	479.3832	561.1513	625.5461	651.3915	755.9818	799.6497	848.392	875.3977	888.7648	946.8547	971.1331	1020.1265	1062.926	1093.6556	1130.3618	1156.1371	1163.6693	1187.3717	1209.0683	1230.1982	1252.352	1309.7037	1337.6022	1342.3285	1381.8236	1385.1165	1417.0546	1483.2505	1487.9971	1493.1253	1864.4174	3005.6618	3042.7655	3052.6965	3071.0893	3099.7891	3111.3081	3129.8904	3134.5531	3783.4171
CC1CC2C(O)C(=O)N12	C[C@H]1C[C@H]2[C@@H](O)C(=O)N12	
InChI=1S/C6H9NO2/c1-3-2-4-5(8)6(9)7(3)4/h3-5,8H,2H2,1H3	InChI=1S/C6H9NO2/c1-3-2-4-5(8)6(9)7(3)4/h3-5,8H,2H2,1H3/t3-,4-,5+/m0/s1
