18
gdb 17246	4.42315	1.59754	1.52937	1.7198	71.07	-0.2471	0.0804	0.3275	901.0584	0.155087	-347.746848	-347.739836	-347.738892	-347.778012	27.717	
O	 0.126813265	 1.3292254071	-0.2047299972	-0.416145
C	-0.0369358046	-0.0227216932	 0.2084583385	-0.183297
C	-1.4588344665	-0.4833173058	 0.1407309463	 0.33232
C	-2.630955711	-0.0562900363	 1.0258506606	-0.275384
C	-3.3899856467	-1.273091513	 0.4321774042	-0.063653
C	-3.5896006699	-0.897520283	-1.0629332328	-0.229155
C	-2.0712868704	-1.0084393173	-1.1806161838	-0.11463
C	-1.9859724679	-1.8961897227	 0.0383349631	-0.134186
H	-0.2814465342	 1.4098485722	-1.0732122228	 0.279614
H	 0.5996601689	-0.7037205097	-0.3819662716	 0.082173
H	 0.3285218824	-0.0558943104	 1.2411738045	 0.108494
H	-2.3894032254	-0.2017711683	 2.0832261785	 0.095982
H	-3.0737772897	 0.9361307074	 0.8834591867	 0.090299
H	-4.1787817119	-1.7698395242	 0.9929511504	 0.070612
H	-4.0880115753	-1.6963898975	-1.6193606764	 0.099397
H	-4.0743802615	 0.0613830844	-1.2820352241	 0.087275
H	-1.469291855	-1.0715564878	-2.0796972398	 0.080806
H	-1.5162025662	-2.855339572	 0.2028840256	 0.089479
95.9788	147.6643	274.4162	336.9481	382.4449	424.9903	456.8128	656.9373	716.2899	754.6356	803.6391	834.3195	878.054	905.8729	938.6274	945.1423	972.2514	995.1943	1007.9798	1025.5932	1053.9624	1076.9957	1104.0083	1134.2875	1144.0624	1177.419	1185.8864	1220.2314	1245.7718	1268.453	1281.0102	1317.7665	1364.0028	1405.2744	1434.3863	1493.4913	1501.7264	1508.923	2958.2952	3026.7265	3034.0907	3059.212	3089.3208	3092.4754	3137.1286	3179.2447	3218.4355	3809.1122
OCC12CC3CC1C23	OC[C@@]12C[C@H]3C[C@@H]1[C@@H]23	
InChI=1S/C7H10O/c8-3-7-2-4-1-5(7)6(4)7/h4-6,8H,1-3H2	InChI=1S/C7H10O/c8-3-7-2-4-1-5(7)6(4)7/h4-6,8H,1-3H2/t4-,5-,6+,7+/m1/s1
