21
gdb 110617	2.93966	1.35793	1.18953	0.9074	83.	-0.2409	0.0943	0.3352	1158.7022	0.182037	-387.036352	-387.027587	-387.026642	-387.069595	33.735	
C	-0.4031946103	 1.0370833888	 0.122986929	-0.235946
O	 0.5362721301	 0.0138947136	-0.1358169866	-0.237304
C	 0.946867323	-0.6463402424	 1.019633639	 0.122862
C	 0.1311984771	-1.7188480712	 1.694794875	-0.129286
C	-0.6095783255	-2.5723867771	 0.6986543666	-0.099137
C	-0.0480298667	-3.9737712384	 0.6733621569	-0.334562
C	 0.6967541135	-2.8800655677	-0.0509868164	 0.374652
C	 0.9578949461	-2.8970851042	-1.5319935836	-0.496324
C	 1.4662605589	-2.0410081081	 0.9481728793	-0.20013
H	 0.0151196906	 1.8142977991	 0.7811766594	 0.104025
H	-0.6609854102	 1.4898481469	-0.8372082016	 0.125717
H	-1.3148140307	 0.6415244114	 0.5931102733	 0.11086
H	 1.4829603731	-0.0003215621	 1.7211011831	 0.081372
H	-0.0368378129	-1.715360818	 2.7672514724	 0.082701
H	-1.5721350319	-2.336905153	 0.258829753	 0.083592
H	 0.3522482694	-4.4161472277	 1.5822275681	 0.09918
H	-0.5739484211	-4.6754997313	 0.0312922962	 0.104621
H	 0.156357283	-3.4169421609	-2.0675256855	 0.109596
H	 1.0273905305	-1.8779679079	-1.9215526257	 0.13871
H	 1.8957093706	-3.4169874418	-1.7632847387	 0.112171
H	 2.4241248034	-2.3105171879	 1.382220877	 0.082629
86.4274	133.8163	162.9641	211.1821	225.1122	281.4966	322.7111	372.3569	425.1598	575.294	620.2645	660.3216	747.3969	784.6088	805.9826	853.4021	899.5294	943.7184	951.2043	987.3509	1004.0646	1010.8441	1064.4384	1070.6517	1089.4753	1095.7497	1099.4986	1106.0849	1136.4865	1180.7012	1198.2741	1223.8577	1245.5547	1279.7706	1313.6442	1337.9139	1381.4075	1418.6436	1424.1246	1483.5831	1485.8943	1490.3036	1496.6679	1504.7671	1509.3311	2980.8803	3024.8458	3032.7886	3064.3109	3083.2155	3105.92	3116.1663	3117.9943	3151.5596	3161.984	3171.8549	3191.3667
COC1C2C3CC3(C)C12	CO[C@H]1[C@H]2[C@@H]3C[C@]3(C)[C@@H]12	
InChI=1S/C8H12O/c1-8-3-4(8)5-6(8)7(5)9-2/h4-7H,3H2,1-2H3	InChI=1S/C8H12O/c1-8-3-4(8)5-6(8)7(5)9-2/h4-7H,3H2,1-2H3/t4-,5-,6+,7-,8-/m0/s1
