21
gdb 107311	3.35259	1.16196	0.97338	1.2055	85.17	-0.2188	0.0248	0.2436	1298.732	0.181646	-387.084278	-387.075238	-387.074294	-387.11773	34.656	
C	 0.0466771642	 1.2998268374	 0.3354443679	-0.252075
O	-0.0194555524	-0.0083596865	-0.2005714165	-0.285807
C	-1.2938606691	-0.5647767518	-0.1551104718	 0.445564
C	-1.7875107609	-1.1346746588	 1.1510199387	-0.339676
C	-1.4364132179	-2.0599443638	-0.0135154399	-0.156824
C	-2.5683726169	-2.4321548167	-0.9084014505	-0.17767
C	-3.0912248956	-1.3709247446	-1.5352768677	 0.314936
C	-4.2621306813	-1.3491862032	-2.4656085668	-0.487594
C	-2.3306060757	-0.1023245993	-1.1835365911	-0.383522
H	 1.0920627544	 1.613471121	 0.2850808338	 0.124263
H	-0.5630293858	 2.0113832154	-0.2400163616	 0.107858
H	-0.2868693249	 1.3251138494	 1.3827509631	 0.107107
H	-1.0781265143	-1.1075371471	 1.9719510725	 0.111984
H	-2.8310452676	-1.0316150236	 1.4321681422	 0.106074
H	-0.5654492074	-2.6973284546	 0.0882203052	 0.095482
H	-2.9354003783	-3.4486047704	-1.0031379604	 0.087045
H	-4.6648770884	-2.3530155422	-2.6269790622	 0.122822
H	-5.0727393669	-0.718293088	-2.0784003571	 0.122597
H	-3.9852345565	-0.9318805359	-3.4426426007	 0.123338
H	-2.9966147826	 0.6821993254	-0.8017797135	 0.103648
H	-1.8223817662	 0.315315078	-2.0644260736	 0.110451
98.7554	131.6999	170.9313	183.8648	216.9277	296.0306	327.014	385.9743	412.997	424.7736	481.555	591.1264	666.7355	735.09	833.6176	865.0702	866.8032	912.3884	929.2334	970.9592	995.9743	1005.7787	1040.4728	1050.0903	1064.1025	1080.6157	1110.0795	1172.6992	1183.7072	1193.0451	1216.7695	1250.1652	1257.7431	1313.6296	1339.0463	1379.6148	1414.9051	1460.8983	1473.3924	1478.1727	1485.9521	1489.7433	1491.9825	1508.4168	1705.4565	2987.9343	3007.4627	3014.4312	3038.5379	3042.448	3057.3428	3107.7922	3116.4562	3119.3151	3175.1618	3188.5929	3213.933
COC12CC1C=C(C)C2	CO[C@]12C[C@H]1C=C(C)C2	
InChI=1S/C8H12O/c1-6-3-7-5-8(7,4-6)9-2/h3,7H,4-5H2,1-2H3	InChI=1S/C8H12O/c1-6-3-7-5-8(7,4-6)9-2/h3,7H,4-5H2,1-2H3/t7-,8-/m1/s1
