20
gdb 77449	1.89869	1.544	1.44371	3.8006	80.33	-0.2353	0.0143	0.2496	1118.3202	0.169204	-403.162544	-403.15292	-403.151976	-403.196371	35.829	
C	 0.0871465651	 1.5949199715	 0.0819402967	-0.428138
C	 0.1272046211	 0.0824765762	 0.067979261	-0.089802
C	 1.3375130264	-0.7668304623	-0.2156763353	 0.306484
C	 1.4455611828	-1.8375059268	-1.2583554906	-0.4803
N	 2.5559564791	-0.1705195761	 0.3596936832	-0.392071
C	 1.9947830541	-0.1202597276	 1.6499877321	 0.381166
O	 2.4177885828	 0.3117138634	 2.6861174952	-0.350452
C	 0.7154378803	-0.8019062828	 1.1844087996	 0.08184
C	-0.0521360581	-1.8582626316	 1.9232600821	-0.500118
H	 1.0170874425	 2.0284514505	 0.4591791463	 0.127635
H	-0.0834875979	 1.9874945859	-0.926618563	 0.119097
H	-0.7253626429	 1.9550851244	 0.7211869072	 0.129218
H	-0.7871503443	-0.367065019	-0.3221151273	 0.08931
H	 1.7486120812	-1.4211681822	-2.2262970023	 0.125146
H	 2.1862100151	-2.589121726	-0.9685437738	 0.133023
H	 0.4808156828	-2.3332585519	-1.4024689788	 0.124144
H	 3.0540713665	 0.6128492103	-0.0505075263	 0.234262
H	-0.5757730761	-1.4281083779	 2.783727181	 0.138808
H	-0.8029821094	-2.3268075511	 1.2788630817	 0.118786
H	 0.6104792288	-2.6446508173	 2.2989880612	 0.131963
131.9745	146.4764	165.3151	178.3971	200.0742	208.8357	241.6513	259.1532	326.5207	429.9947	513.6932	558.5731	573.6568	669.6457	696.424	731.7872	745.175	808.2192	871.3573	929.4705	985.3715	1042.7452	1074.3025	1084.6357	1118.0381	1131.5547	1135.3518	1181.426	1241.4474	1297.9591	1333.8987	1339.2551	1414.7345	1417.0224	1420.2713	1473.4954	1479.0052	1487.6736	1490.5675	1496.1603	1500.3368	1509.9535	1888.6409	3029.5791	3031.8768	3035.0852	3090.5921	3095.5234	3095.861	3098.6106	3101.9758	3113.6592	3119.2903	3529.5002
CC1C2(C)NC(=O)C12C	C[C@H]1[C@@]2(C)NC(=O)[C@@]12C	
InChI=1S/C7H11NO/c1-4-6(2)5(9)8-7(4,6)3/h4H,1-3H3,(H,8,9)	InChI=1S/C7H11NO/c1-4-6(2)5(9)8-7(4,6)3/h4H,1-3H3,(H,8,9)/t4-,6-,7-/m1/s1
