19
gdb 106403	2.67512	1.30973	1.25226	1.5871	71.33	-0.2521	0.063	0.3151	1116.2035	0.157426	-460.093898	-460.085041	-460.084097	-460.127171	34.278	
C	-0.1597052028	 1.6323574974	-0.1722301164	-0.469672
C	 0.0578679637	 0.1405717403	-0.0263373738	 0.429717
O	-1.1458664095	-0.4920093183	-0.339472762	-0.486617
C	 1.3498024597	-0.5786350088	-0.5494466024	-0.026649
C	 2.1823135313	 0.0095344341	 0.6034016193	-0.273777
C	 0.8430893878	-0.4869354187	 1.1899840418	 0.305683
C	 0.4385111676	-0.7441465239	 2.6105835294	-0.190459
O	 1.351127744	-1.6074544656	 3.2632986885	-0.414422
O	 0.9970173357	-1.7242886713	 0.3404453638	-0.388619
H	-0.4650739824	 1.8539407549	-1.1990766666	 0.135332
H	-0.9732327007	 1.9482723349	 0.4873917996	 0.135307
H	 0.7268367213	 2.2221169936	 0.0614785773	 0.121048
H	-0.9544733242	-1.4382740253	-0.2555892687	 0.284934
H	 1.6461978142	-0.8274290429	-1.5690839041	 0.097361
H	 3.0401692097	-0.598549745	 0.8868999038	 0.119036
H	 2.4028496895	 1.0767762328	 0.6156202162	 0.104305
H	 0.4289455679	 0.1980015502	 3.1692024848	 0.120084
H	-0.5867183569	-1.1474593159	 2.6179394289	 0.102486
H	 1.4900987143	-2.3567195026	 2.6720014805	 0.294921
88.2009	132.3016	165.7172	204.148	268.4602	328.0139	346.2762	395.388	408.3373	521.9868	557.8222	623.8859	627.7121	649.0879	725.2801	751.4261	791.7395	868.612	914.9731	945.843	979.5417	1023.2757	1054.9238	1077.3889	1090.4085	1116.3509	1125.0803	1189.3746	1204.7582	1205.7374	1241.2845	1269.2395	1323.3323	1370.6965	1396.665	1432.9547	1441.8688	1480.2565	1492.9097	1496.5677	1506.6246	2982.9744	3052.9468	3074.0784	3092.4002	3114.8408	3117.0426	3146.8069	3168.9996	3722.494	3795.1201
CC1(O)C2CC1(CO)O2	C[C@@]1(O)[C@H]2C[C@]1(CO)O2	
InChI=1S/C6H10O3/c1-5(8)4-2-6(5,3-7)9-4/h4,7-8H,2-3H2,1H3	InChI=1S/C6H10O3/c1-5(8)4-2-6(5,3-7)9-4/h4,7-8H,2-3H2,1H3/t4-,5-,6-/m1/s1
