19
gdb 23152	1.77875	1.23783	0.79166	4.3502	79.58	-0.2152	-0.0959	0.1193	1459.0676	0.15603	-456.246719	-456.236066	-456.235122	-456.2835	36.278	
C	-0.6620985948	 1.046004599	 1.0181442506	-0.22804
O	-0.9695902857	-0.3256473323	 0.8959709053	-0.233182
C	-0.5445749106	-0.8676893767	-0.34697084	-0.175643
C	-0.8727390875	-2.331551694	-0.3976799363	 0.288141
N	 0.3047266601	-3.167659735	-0.5534775565	-0.042195
O	 0.0947499976	-4.3221145084	-0.8578616499	-0.228601
C	-2.0781985636	-2.8742688077	-0.1772791655	-0.040578
C	-3.3342467422	-2.1146613715	 0.1331102269	-0.210159
N	-3.566677355	-2.1854099069	 1.5829547392	-0.508548
H	-4.4696157744	-1.7749867019	 1.8015510612	 0.228894
H	-2.8602744632	-1.6108832259	 2.0348607742	 0.242913
H	-1.0178246491	 1.3738765178	 1.9974727948	 0.130744
H	 0.4218288122	 1.2248041911	 0.9545313195	 0.11496
H	-1.1563365179	 1.6462668815	 0.2381383213	 0.107218
H	-1.0309420883	-0.3261789556	-1.1754011094	 0.101904
H	 0.5429699163	-0.7512091721	-0.4691840055	 0.114267
H	-2.1308256312	-3.9600329365	-0.1514040096	 0.127548
H	-3.2708412079	-1.0905666336	-0.2616662186	 0.095719
H	-4.173763945	-2.6115002112	-0.3688954418	 0.114639
58.0873	69.4148	95.3875	111.7228	145.9871	183.1976	230.5896	239.0278	292.427	327.6247	376.8907	437.3876	476.6922	520.238	756.1087	813.5652	860.7045	932.7757	950.161	981.992	1018.9062	1040.1363	1101.7487	1137.2146	1143.3223	1183.0862	1204.9517	1223.1007	1272.145	1316.7633	1346.8806	1413.392	1430.3443	1478.654	1484.9446	1498.9835	1504.3557	1520.1727	1579.5483	1655.5664	1708.4473	2962.5863	2977.5962	2991.8558	3011.0616	3025.0378	3048.4514	3119.8152	3172.3617	3486.4723	3571.5784
COCC(=N[O-])C1C[NH2+]1	COCC(=CCN)N=O	
InChI=1S/C5H10N2O2/c1-9-3-5(7-8)4-2-6-4/h4,6,8H,2-3H2,1H3	InChI=1S/C5H10N2O2/c1-9-4-5(7-8)2-3-6/h2H,3-4,6H2,1H3
