14
gdb 45348	2.61022	1.88509	1.19555	6.2504	62.53	-0.2769	-0.0241	0.2528	967.1713	0.10249	-473.876559	-473.869625	-473.868681	-473.908487	25.611	
O	-0.1032626212	-0.0360723817	 0.1510957981	-0.280297
C	-0.1336415099	 1.1449231971	 0.0349626747	 0.400645
C	-1.2093964881	 2.2411176122	-0.1213243538	-0.398377
C	-0.0375526344	 3.2540297565	-0.0247675212	 0.006956
C	 0.2711252717	 3.9951252658	 1.2864976009	-0.109495
O	 1.5778302179	 3.5211232657	 1.664785735	-0.235529
C	 1.8693969307	 2.3262514536	 1.0632023345	 0.468532
O	 2.7664610578	 1.6153625061	 1.3842385692	-0.33399
N	 0.9157214106	 2.129133098	 0.0339468096	-0.199171
H	-1.7527681048	 2.2190166214	-1.0675171144	 0.152033
H	-1.9221771736	 2.2626216421	 0.7063521504	 0.149746
H	 0.1035846615	 3.8856357351	-0.9043475593	 0.112762
H	 0.3260743901	 5.0784067466	 1.172078075	 0.139793
H	-0.4372276284	 3.7531650615	 2.087773071	 0.126393
89.4176	135.7958	168.0424	311.8489	446.7052	488.1297	524.6619	605.2383	674.6711	733.5032	751.005	791.1032	856.2667	918.4571	998.7304	1034.9433	1045.4991	1067.999	1090.8093	1118.252	1168.244	1188.0426	1222.7952	1241.9166	1276.9462	1368.9811	1391.4991	1449.7404	1517.8827	1886.413	1949.3757	3038.0201	3082.5016	3085.8687	3126.3467	3142.4429
O=C1CC2COC(=O)N12	O=C1C[C@H]2COC(=O)N12	
InChI=1S/C5H5NO3/c7-4-1-3-2-9-5(8)6(3)4/h3H,1-2H2	InChI=1S/C5H5NO3/c7-4-1-3-2-9-5(8)6(3)4/h3H,1-2H2/t3-/m0/s1
