20
gdb 111709	2.66564	1.24299	0.99214	1.4263	88.16	-0.2386	0.0321	0.2707	1279.1813	0.16943	-365.935545	-365.926443	-365.925499	-365.96936	34.87	
C	-0.0163863181	 1.4661058198	-0.2968763238	-0.376774
C	 0.0498161594	 0.049942805	 0.270324265	-0.124601
N	-1.2461497493	-0.605458134	 0.1217007591	-0.113833
C	-1.654796808	-1.3027586605	-1.0721715164	-0.105273
C	-0.5194830038	-2.0980960625	-1.741710981	-0.246648
C	-0.2739860694	-2.84981812	-0.3994304708	-0.298161
C	-1.4282588148	-2.0413441949	 0.2478037912	 0.148877
C	-2.3451975189	-2.565651906	 1.2071979671	 0.212488
C	-3.0945311421	-3.0507138556	 2.01404007	-0.386777
H	 0.934646899	 1.9860454314	-0.1466841494	 0.1128
H	-0.224806014	 1.4472715172	-1.3717470532	 0.118409
H	-0.810238328	 2.0387568822	 0.1902477019	 0.129746
H	 0.8766520068	-0.4989790144	-0.2037203641	 0.089577
H	 0.2661121957	 0.08361822	 1.3439528231	 0.110537
H	-2.5938326889	-1.0205811368	-1.5364393081	 0.102799
H	-0.8905097097	-2.7625634454	-2.5243258174	 0.11164
H	 0.3080366464	-1.5102235231	-2.1493407033	 0.105844
H	-0.5165671768	-3.9112126007	-0.4671792987	 0.119259
H	 0.7058544808	-2.7426226578	 0.0736339731	 0.104571
H	-3.7633161565	-3.4630101139	 2.7281109158	 0.185519
64.4264	127.9917	146.8271	210.9446	216.8269	286.2251	311.9691	394.6779	485.9631	507.5294	564.1602	593.2364	621.7436	650.811	726.0452	781.405	794.4231	818.1484	907.6847	939.9839	945.9898	958.7563	1018.8879	1049.9234	1071.5022	1112.6859	1123.163	1176.3634	1191.5216	1217.5222	1223.1614	1269.0688	1279.8985	1306.9728	1377.5617	1401.4484	1418.845	1473.6249	1489.1675	1492.484	1500.7128	1515.2205	2235.345	2999.2174	3039.6344	3058.1605	3060.06	3067.1192	3108.3813	3110.8824	3122.108	3131.1851	3170.2637	3503.1746
CCN1C2CCC12C#C	CCN1[C@H]2CC[C@@]12C#C	
InChI=1S/C8H11N/c1-3-8-6-5-7(8)9(8)4-2/h1,7H,4-6H2,2H3	InChI=1S/C8H11N/c1-3-8-6-5-7(8)9(8)4-2/h1,7H,4-6H2,2H3/t7-,8+,9?/m0/s1
