25
gdb 102635	2.63518	0.77996	0.70475	3.3424	85.6	-0.2432	0.061	0.3042	1756.3156	0.227051	-426.627375	-426.615876	-426.614932	-426.664461	41.995	
C	-0.0506948122	 1.5335836929	 0.1579126699	-0.381198
C	-0.061784478	 0.0056401408	 0.0128263751	 0.026407
C	-1.5021693277	-0.5164003108	-0.0885087055	-0.387977
C	 0.7551713309	-0.4778331267	-1.2027607153	-0.1853
C	 2.2473563471	-0.0983555945	-1.2570315721	-0.031745
C	 3.0087969092	-0.6568530093	-0.052608483	-0.082366
O	 4.3827450441	-0.2662581999	-0.1456152768	-0.425847
C	 2.8651983739	-0.5915913549	-2.5809628088	-0.051127
O	 4.1209100068	-0.0194217641	-2.8770687822	-0.435448
H	 0.9574330333	 1.9274112171	 0.3172633536	 0.117168
H	-0.4562546	 2.013473549	-0.7411082511	 0.113719
H	-0.6659981047	 1.8486237019	 1.0071096284	 0.109772
H	 0.377051013	-0.4240674514	 0.9239458382	 0.071876
H	-2.0023661138	-0.1133926104	-0.9774430465	 0.113315
H	-1.5280184754	-1.6089343514	-0.1603838149	 0.108852
H	-2.0928217451	-0.222806343	 0.7854419374	 0.109249
H	 0.6673225161	-1.5719629083	-1.2680778284	 0.089532
H	 0.276091343	-0.0868057259	-2.1109802715	 0.096372
H	 2.3531124767	 0.9935192218	-1.2478091548	 0.092428
H	 2.5802400235	-0.2829446086	 0.8871664005	 0.096105
H	 2.9200831666	-1.7553431129	-0.0464203007	 0.090282
H	 4.8797455014	-0.7216671339	 0.5397350887	 0.292846
H	 2.916304119	-1.6964584565	-2.5589474746	 0.069864
H	 2.2004332775	-0.3241506101	-3.4107535295	 0.096297
H	 4.6472074849	-0.1016640608	-2.0708259163	 0.286925
41.1164	84.3869	95.3404	134.5609	186.102	230.8643	238.0322	259.4293	271.1947	304.1759	317.6278	385.017	413.4584	418.7726	443.6136	544.8308	593.11	803.2631	837.3731	887.0791	915.5	930.6158	957.6831	966.6595	1022.0431	1049.1911	1069.9459	1093.9248	1116.9032	1151.83	1158.1729	1193.8121	1224.9419	1236.6448	1273.9597	1281.9684	1310.1804	1342.4091	1360.553	1377.1216	1390.6486	1397.1611	1404.3755	1425.7484	1455.5717	1470.3909	1480.7936	1488.3186	1495.932	1505.6851	1507.6145	1510.816	1521.4819	2927.1664	2972.3854	2999.8277	3001.683	3020.9144	3023.5917	3029.2637	3035.7773	3044.6736	3056.0954	3088.6836	3094.3896	3098.9995	3105.0657	3751.1942	3836.3748
CC(C)CC(CO)CO	CC(C)CC(CO)CO	
InChI=1S/C7H16O2/c1-6(2)3-7(4-8)5-9/h6-9H,3-5H2,1-2H3	InChI=1S/C7H16O2/c1-6(2)3-7(4-8)5-9/h6-9H,3-5H2,1-2H3
