20
gdb 116783	3.71455	0.74806	0.70972	2.3199	79.99	-0.2368	0.0201	0.2569	1688.8135	0.168245	-440.251541	-440.241501	-440.240557	-440.287775	36.097	
C	-0.4830608778	 1.2301224363	-0.7416891885	-0.398123
C	-0.5258433012	 0.1748139751	 0.3679543947	-0.112493
N	-1.3171733228	-1.0276109288	 0.1627504162	-0.224315
C	-1.9612398986	-1.1989347376	-0.8990379902	 0.12314
O	-2.6813798427	-2.3470985503	-1.0648547388	-0.229808
C	-3.4338479166	-2.4147093474	-2.2552348408	 0.053251
C	-4.5873172871	-3.3815759463	-2.2040386124	-0.360231
C	-4.8459946883	-1.8923793669	-2.1548797914	 0.123919
O	-5.2556938043	-1.2678638826	-0.9805366357	-0.428216
H	 0.1506657586	 2.0646788652	-0.4272496403	 0.117684
H	-0.0647977255	 0.8288553547	-1.6711386362	 0.119146
H	-1.4774977958	 1.6334812605	-0.9607246675	 0.123792
H	 0.4965004666	-0.1547874831	 0.5955863913	 0.115909
H	-0.8889426227	 0.6379903138	 1.2949520627	 0.1159
H	-2.0213341778	-0.5183177176	-1.7553574591	 0.089695
H	-2.8490003981	-2.307871952	-3.1655386076	 0.103898
H	-4.8334465725	-3.936961413	-3.1021731137	 0.121856
H	-4.7049255818	-3.9320140232	-1.2764823964	 0.134602
H	-5.2908706787	-1.4137796706	-3.0209370555	 0.110773
H	-4.6536277629	-1.544355466	-0.2783114107	 0.299621
32.4228	53.7815	118.073	159.9728	206.8326	229.9394	267.4515	319.2778	360.0257	381.2482	431.4834	462.3456	584.7458	661.7557	773.9994	782.1924	794.598	870.6316	914.1928	978.4532	999.1851	1044.0058	1067.9717	1078.9024	1096.7955	1113.1111	1124.8551	1148.2895	1171.1464	1196.6566	1239.3454	1315.7069	1330.1245	1359.7021	1378.5598	1398.7334	1418.8294	1431.0244	1479.9039	1483.9878	1495.9504	1507.0074	1780.682	3018.3274	3032.3346	3038.3014	3060.0662	3100.9366	3108.5612	3130.7622	3136.1693	3170.8786	3227.7207	3782.9776
CCN=COC1CC1O	CCN=CO[C@H]1C[C@H]1O	
InChI=1S/C6H11NO2/c1-2-7-4-9-6-3-5(6)8/h4-6,8H,2-3H2,1H3	InChI=1S/C6H11NO2/c1-2-7-4-9-6-3-5(6)8/h4-6,8H,2-3H2,1H3/t5-,6+/m1/s1
