19
gdb 58663	1.87466	1.58105	1.15704	1.8929	77.96	-0.2435	0.0354	0.2789	1163.2187	0.156266	-422.976166	-422.966332	-422.965388	-423.010362	37.435	
C	 0.1027099735	 1.4834341039	-0.1094684802	-0.414034
C	-0.037611746	-0.0262824367	 0.0504896906	 0.050354
O	 0.5938247735	-0.4932205717	 1.2513572891	-0.441322
C	-1.4858169825	-0.5255034981	 0.0086621141	 0.056854
C	-1.9915669919	-1.1926810554	-1.2726734647	-0.344818
C	-1.6337732976	-2.0439514476	-0.0977268471	 0.089496
O	-0.4749985807	-2.8095200717	-0.1648760442	-0.428484
C	-2.4147587128	 0.1697592924	 0.8547043249	 0.269137
C	-3.1685809159	 0.7465327684	 1.5963206552	-0.45034
H	 1.1576759001	 1.7647067384	-0.0592708488	 0.124081
H	-0.3031409505	 1.8091096074	-1.0725149169	 0.122545
H	-0.4412366669	 2.0129485536	 0.6790634742	 0.126097
H	 0.5101869989	-0.5309569616	-0.7485022533	 0.104176
H	 0.1044450741	-0.1215176932	 1.9954833223	 0.287697
H	-3.0377379528	-1.0688396159	-1.5256898243	 0.125999
H	-1.3056357079	-1.2008131711	-2.1126680531	 0.127661
H	-2.4524932859	-2.4844621826	 0.4694109792	 0.100992
H	 0.0821806579	-2.534511141	 0.5775526116	 0.299599
H	-3.8472298266	 1.2575374823	 2.2334294814	 0.194308
72.9211	138.6565	151.3486	174.1326	224.9568	248.183	327.0285	351.6689	395.1477	408.4173	477.9608	497.2063	536.9722	564.3312	572.3258	606.2076	655.6273	700.1071	842.36	884.3789	903.998	921.8365	996.7969	1019.5039	1052.9334	1099.8115	1103.8952	1121.5945	1177.4854	1240.7529	1276.0871	1305.5896	1359.5957	1362.0844	1405.6645	1424.672	1429.9318	1474.1516	1489.8438	1495.1033	2222.3588	3040.6595	3088.7059	3113.9947	3114.6923	3125.3246	3140.795	3235.9892	3500.8025	3733.0489	3785.2021
CC(O)C1(CC1O)C#C	C[C@@H](O)[C@]1(C[C@H]1O)C#C	
InChI=1S/C7H10O2/c1-3-7(5(2)8)4-6(7)9/h1,5-6,8-9H,4H2,2H3	InChI=1S/C7H10O2/c1-3-7(5(2)8)4-6(7)9/h1,5-6,8-9H,4H2,2H3/t5-,6-,7-/m1/s1
