19
gdb 82137	3.05396	1.10227	0.94626	4.1513	77.03	-0.2698	0.0111	0.281	1285.2157	0.158415	-423.022138	-423.013358	-423.012414	-423.056505	32.184	
C	-0.1612067117	 1.6512030116	-0.1267822875	-0.404379
C	 0.0019435662	 0.138086978	-0.0817178436	-0.025765
C	 0.7394115095	-0.5811976084	-1.2240127527	-0.058042
C	 2.1850097489	-0.1867106179	-1.2648719354	-0.282552
C	 1.7451507214	-1.1886844846	-0.2327173319	-0.072167
C	 1.0380529248	-0.4929478733	 0.9173101771	 0.097827
O	 1.8430318829	 0.4365286333	 1.6504714251	-0.185672
C	 1.8335196351	 0.3834739759	 2.9939640301	 0.166273
O	 2.4620171158	 1.133101337	 3.6791354253	-0.278459
H	 0.7916268638	 2.1628625616	-0.2805667288	 0.132059
H	-0.8357409895	 1.9357623213	-0.9411129575	 0.117142
H	-0.5880760837	 2.0271483122	 0.8088565042	 0.120492
H	-0.9731869213	-0.3284657639	 0.0916202516	 0.079663
H	 0.254545671	-1.0717774369	-2.0585543349	 0.091828
H	 2.7554898831	-0.6102239245	-2.0848869152	 0.117752
H	 2.5126980721	 0.8027752426	-0.9630521173	 0.130298
H	 2.1523020699	-2.1912362324	-0.192878179	 0.09194
H	 0.5655467193	-1.1888447525	 1.6181586752	 0.087576
H	 1.1873582524	-0.427306489	 3.3859908351	 0.074185
39.7308	103.9515	144.4622	192.0055	217.2859	245.3631	331.1539	419.0422	449.708	550.1092	673.7649	698.2354	776.2233	806.2282	853.3491	916.5116	933.13	987.8665	1001.8204	1019.0546	1044.1249	1051.7851	1064.919	1087.0187	1095.6892	1120.7024	1148.3295	1185.6568	1198.9066	1235.7438	1276.136	1316.477	1362.8817	1371.4383	1383.5789	1415.8954	1440.6117	1487.7861	1493.9898	1502.3248	1863.7333	2937.1905	3038.7887	3042.8534	3058.4167	3101.3093	3124.1751	3131.8766	3185.3248	3194.7552	3214.8015
CC1C2CC2C1OC=O	C[C@H]1[C@H]2C[C@H]2[C@H]1OC=O	
InChI=1S/C7H10O2/c1-4-5-2-6(5)7(4)9-3-8/h3-7H,2H2,1H3	InChI=1S/C7H10O2/c1-4-5-2-6(5)7(4)9-3-8/h3-7H,2H2,1H3/t4-,5+,6+,7-/m0/s1
