21
gdb 72082	2.82611	1.73829	1.59191	0.4889	86.02	-0.2175	0.027	0.2445	978.1151	0.186131	-349.98296	-349.975858	-349.974914	-350.01376	30.582	
C	-0.0179954802	 1.5036446663	 0.0254051166	-0.493963
C	 0.047480474	-0.0022932974	-0.0022759228	 0.346471
C	 0.3623803036	-0.7197265514	-1.3072223188	-0.266116
C	 0.5416799425	-2.1991393096	-0.8591947466	-0.091405
C	 1.3423667723	-2.027629829	 0.4677142443	-0.222465
C	 0.6560952729	-0.8313988535	 1.0998157013	-0.095845
C	-0.8697806645	-0.8192160872	 0.9205969496	-0.12068
C	-1.5113522749	-2.0388797246	 0.3827529888	-0.04941
C	-0.8191382429	-2.7500138929	-0.5130332567	-0.099514
H	 0.9258454756	 1.9493092912	-0.3116259508	 0.113447
H	-0.8132397711	 1.8806475377	-0.6284703751	 0.117346
H	-0.2170626467	 1.8749303807	 1.0361168545	 0.112922
H	-0.4216032854	-0.6095897552	-2.0640096913	 0.092939
H	 1.2980228179	-0.3279690395	-1.7253698161	 0.090645
H	 1.0670937107	-2.8068869001	-1.5973854264	 0.060471
H	 1.3132555706	-2.9310210971	 1.085160485	 0.096301
H	 2.3915123333	-1.7901605419	 0.2554649322	 0.093315
H	 1.0653074269	-0.3784362152	 1.9960040719	 0.076723
H	-1.4248553648	-0.2415594908	 1.651756683	 0.072724
H	-2.5027103125	-2.3175132523	 0.7251155218	 0.084598
H	-1.1901305673	-3.6617602679	-0.9675612942	 0.081496
200.7833	225.7244	296.9497	346.287	371.8115	414.4896	498.9249	541.6515	620.0942	658.8042	693.0953	756.0285	793.1709	841.9882	855.7743	882.2936	896.9647	926.8337	956.9264	972.8224	993.2153	997.6675	1032.1265	1045.565	1077.712	1087.7269	1107.3843	1143.3594	1158.1574	1183.6488	1203.4839	1249.3222	1271.8328	1283.1068	1316.8476	1339.4433	1356.0735	1403.895	1418.4701	1432.4393	1480.3098	1489.839	1495.6252	1502.22	1679.6659	3017.8143	3026.5994	3033.8766	3073.4846	3076.9192	3080.6902	3092.1031	3096.5783	3160.245	3170.6307	3176.0384	3196.3129
CC12CC3CC1C2C=C3	C[C@@]12C[C@H]3C[C@@H]1[C@@H]2C=C3	
InChI=1S/C9H12/c1-9-5-6-2-3-7(9)8(9)4-6/h2-3,6-8H,4-5H2,1H3	InChI=1S/C9H12/c1-9-5-6-2-3-7(9)8(9)4-6/h2-3,6-8H,4-5H2,1H3/t6-,7+,8-,9+/m1/s1
