20
gdb 16529	2.70699	2.23771	1.67579	1.7303	73.68	-0.238	0.0723	0.3102	887.6602	0.177433	-348.973994	-348.966071	-348.965127	-349.006259	30.317	
C	-0.5483153197	 1.4507322558	-0.0443186122	-0.41366
C	-0.066101828	 0.0071890362	 0.0332004467	 0.00113
C	 1.1447823071	-0.4539014341	-0.8720835268	-0.004527
C	 1.8036690378	 0.5268319106	-1.8319101228	-0.404936
C	 1.9286392484	-0.8285615559	 0.4081551016	 0.109465
O	 2.6989128595	 0.2671974952	 0.9533618654	-0.291861
C	 1.672572888	 0.5594024968	 1.931435992	-0.079646
C	 0.7132858595	-0.4609280012	 1.3052432054	-0.097218
H	 0.2675372843	 2.1711323625	 0.0632558665	 0.125849
H	-1.0309754604	 1.6472042803	-1.0075586873	 0.115911
H	-1.2838493304	 1.6594441807	 0.7409175804	 0.112137
H	-0.9247843072	-0.6510928517	-0.1310075623	 0.072346
H	 0.868873671	-1.3665917323	-1.4125811512	 0.06738
H	 2.2026890102	 1.3926351289	-1.2985584155	 0.131166
H	 2.6399924329	 0.0500858127	-2.3550070904	 0.112974
H	 1.095797571	 0.87804498	-2.5899861099	 0.108766
H	 2.4837750784	-1.7712686096	 0.4338301049	 0.066763
H	 2.0048592859	 0.2904483299	 2.9432329621	 0.096752
H	 1.3784587079	 1.6151298366	 1.9272872292	 0.100283
H	 0.2036252636	-1.1526116711	 1.975183474	 0.070927
54.6119	203.0026	210.2117	238.8571	246.2326	277.6522	417.6016	492.5997	514.1731	641.8281	727.3492	779.5021	839.7944	871.2153	879.4842	943.6741	991.8582	994.6674	1015.3542	1022.2765	1029.6902	1091.1289	1115.0341	1153.2228	1163.3071	1169.4401	1192.8655	1214.6804	1252.2176	1294.901	1302.169	1329.2089	1350.1506	1356.1973	1374.6446	1404.4035	1413.2627	1484.5953	1490.173	1500.0096	1510.1251	1528.4556	3006.1799	3028.1206	3030.6975	3036.2041	3050.0878	3057.597	3061.1055	3091.0625	3095.0539	3106.3563	3113.1103	3126.6693
CC1C(C)C2OCC12	C[C@H]1[C@@H](C)[C@H]2OC[C@@H]12	
InChI=1S/C7H12O/c1-4-5(2)7-6(4)3-8-7/h4-7H,3H2,1-2H3	InChI=1S/C7H12O/c1-4-5(2)7-6(4)3-8-7/h4-7H,3H2,1-2H3/t4-,5+,6-,7+/m0/s1
