23
gdb 119357	4.75042	0.83036	0.80946	0.8532	88.48	-0.2508	0.0902	0.341	1561.2865	0.204777	-388.240206	-388.230601	-388.229657	-388.27488	36.087	
C	-0.0087500759	 1.3420838344	-0.0021645318	-0.216194
O	 0.0016408649	-0.0639031943	 0.0047910276	-0.23672
C	 0.6472374351	-0.6151855804	-1.1246989051	-0.212072
C	 0.603354472	-2.1118742371	-1.0209923359	 0.354245
C	-0.6615543448	-3.0163990648	-0.9514539227	-0.281103
C	 0.5520627	-3.9961852612	-0.8973999773	 0.333374
C	 0.5126450665	-5.4977224074	-0.801485865	-0.508101
C	 1.1888074351	-3.1347464911	-2.0356697008	-0.305826
C	 1.206748562	-2.9977810506	 0.1077588598	-0.281098
H	 1.0109280843	 1.7602495724	-0.0011986033	 0.101222
H	-0.5399797763	 1.7444341771	-0.8799538601	 0.101223
H	-0.5250273347	 1.6714440584	 0.9030903969	 0.124999
H	 0.1498343572	-0.2834669156	-2.0537003775	 0.082463
H	 1.694689738	-0.2680900321	-1.1781940338	 0.082465
H	-1.2695851278	-2.9337005745	-0.0468156922	 0.093151
H	-1.283848658	-3.0576897662	-1.8514010004	 0.079757
H	-0.0164223347	-5.934625027	-1.6558058845	 0.11584
H	 1.5238777092	-5.9192699401	-0.782385229	 0.11584
H	-0.0015343066	-5.8196533306	 0.1109416949	 0.117581
H	 0.7059420572	-3.1851039964	-3.016990727	 0.08302
H	 2.2794589618	-3.1694177247	-2.1249026886	 0.083021
H	 2.2990273721	-3.0219879519	 0.1798703395	 0.079758
H	 0.7414824135	-2.9136518564	 1.0933344963	 0.093154
64.907	91.7889	105.7797	201.1386	218.7082	249.0892	272.6787	340.0824	365.6931	406.3879	543.6917	548.1077	619.1939	707.5097	765.0077	791.2506	916.5024	929.7882	951.2484	962.781	991.4148	999.1863	1019.0806	1080.0939	1091.4795	1110.1599	1139.0379	1141.5737	1154.492	1168.2887	1171.1119	1190.8814	1206.3845	1210.2304	1232.2468	1283.4525	1311.3479	1349.3359	1410.5963	1426.6463	1480.6466	1485.0909	1488.7448	1489.83	1497.1279	1497.5017	1500.9122	1521.9801	1562.2867	2937.16	2963.7896	2966.3656	3007.1967	3024.0117	3032.1437	3037.5614	3047.2312	3091.1342	3091.8354	3096.5507	3107.2673	3110.7562	3111.3974
COCC12CC(C)(C1)C2	COC[C@@]12C[C@@](C)(C1)C2	
InChI=1S/C8H14O/c1-7-3-8(4-7,5-7)6-9-2/h3-6H2,1-2H3	InChI=1S/C8H14O/c1-7-3-8(4-7,5-7)6-9-2/h3-6H2,1-2H3/t7-,8-
