15
gdb 37330	2.4402	2.43973	1.54937	4.4719	62.97	-0.2784	0.0503	0.3287	844.6525	0.113626	-457.693773	-457.687553	-457.686609	-457.724252	25.178	
O	-0.001074875	 1.44451414	-0.0130083644	-0.214174
C	 1.2630790915	 0.7948246595	-0.0176491269	 0.011189
C	-0.0046447698	 0.0231970758	-0.0250149272	 0.011181
C	-0.4559193695	-0.6687632418	-1.280931708	 0.010747
O	-0.8526418841	 0.13998896	-2.3803507369	-0.214268
C	 0.3658173895	-0.5796864565	-2.5137979286	 0.011235
C	 1.6496418216	 0.2022648787	-2.5064694961	 0.011014
O	 1.568162039	 1.6144182356	-2.3659256602	-0.214216
C	 2.0955274131	 0.884850802	-1.2660563293	 0.010807
H	 1.820605549	 0.8710309345	 0.9154502637	 0.096066
H	-0.3365185164	-0.441932643	 0.9027905069	 0.096082
H	-1.0644957893	-1.5589430807	-1.1242493513	 0.09607
H	 0.3336832094	-1.4073727389	-3.2217752021	 0.096083
H	 2.4058440386	-0.1449949793	-3.2099615228	 0.096106
H	 3.1642847324	 1.0166107741	-1.0995300869	 0.096078
186.9245	188.2968	321.1745	460.3208	460.7473	504.9016	642.3326	642.6415	766.3142	799.4197	800.1506	829.1164	877.1204	877.7316	934.6328	938.7859	1020.9312	1021.2623	1059.0711	1078.286	1078.8474	1095.3185	1140.9836	1141.5422	1266.5133	1266.6695	1302.2643	1353.5088	1392.8809	1393.1602	1417.9429	1465.4255	1465.6667	3100.5999	3106.0246	3106.1845	3120.9795	3121.0845	3130.2291
O1C2C1C1OC1C1OC21	O1[C@H]2[C@@H]1[C@H]1O[C@H]1[C@H]1O[C@@H]21	
InChI=1S/C6H6O3/c7-1-2(7)4-6(9-4)5-3(1)8-5/h1-6H	InChI=1S/C6H6O3/c7-1-2(7)4-6(9-4)5-3(1)8-5/h1-6H/t1-,2+,3-,4+,5-,6+
