19
gdb 63090	2.62361	1.53816	1.30203	4.6967	75.65	-0.2445	0.038	0.2825	1064.3973	0.159725	-419.237144	-419.228465	-419.22752	-419.270086	32.954	
C	-0.0481933674	 1.5241095871	 0.0234798041	-0.465092
C	-0.0070734014	 0.0118365636	-0.0693810938	 0.312424
C	-1.2241827271	-0.672378116	 0.5199796721	-0.447862
C	 0.7207442151	-0.6920993787	-1.1633401128	-0.078469
C	 1.7248584554	 0.0447822526	-2.052091378	-0.2072
N	 2.7400905132	 0.4153975412	-1.0872860099	-0.307998
C	 2.4442871564	 0.0797668307	 0.2141466025	 0.395144
O	 3.073631963	 0.3854892645	 1.1948718301	-0.3704
N	 1.25750644	-0.7357219748	 0.2135409172	-0.188181
H	 0.8149956922	 2.008797964	-0.4349042955	 0.131586
H	-0.950798641	 1.8975091007	-0.4714846648	 0.121088
H	-0.0891691062	 1.8362462452	 1.0720352893	 0.141514
H	-2.1332883909	-0.366078537	-0.0093472964	 0.11563
H	-1.1294662607	-1.7587135779	 0.4564948019	 0.130116
H	-1.3389991564	-0.4042830288	 1.5753149874	 0.130848
H	 0.3177182085	-1.6251360951	-1.5467821553	 0.098412
H	 2.1183697687	-0.6294903839	-2.8221842171	 0.119157
H	 1.2915106087	 0.9168759311	-2.5609475501	 0.113649
H	 3.5150560397	 1.0258770215	-1.2866087709	 0.255636
109.7891	156.5269	183.1813	199.9133	217.7856	259.0155	355.2624	409.8678	455.7357	470.9321	519.9797	650.4204	671.6195	751.8936	784.9037	821.8082	878.7544	947.0462	960.5673	986.8531	1011.6203	1042.4731	1060.9762	1112.1232	1125.1609	1136.638	1215.4413	1237.7731	1255.958	1317.9485	1342.1446	1409.6763	1419.1371	1429.8645	1442.6444	1477.5561	1485.399	1501.7445	1508.0013	1537.0298	1854.8492	3004.2365	3034.4215	3040.0833	3043.6192	3098.4935	3103.6676	3125.9328	3138.4196	3147.7863	3658.3921
CC1(C)C2CNC(=O)N12	CC1(C)[C@H]2CNC(=O)N12	
InChI=1S/C6H10N2O/c1-6(2)4-3-7-5(9)8(4)6/h4H,3H2,1-2H3,(H,7,9)	InChI=1S/C6H10N2O/c1-6(2)4-3-7-5(9)8(4)6/h4H,3H2,1-2H3,(H,7,9)/t4-,8?/m1/s1
