19
gdb 77216	3.06663	1.00194	0.8835	2.5581	83.18	-0.248	-0.0283	0.2197	1355.5823	0.156682	-385.859632	-385.850112	-385.849168	-385.894517	34.809	
C	-0.0647589513	 1.6023726504	-0.0372256202	-0.417447
C	 0.1290260963	 0.0978062557	-0.069625632	 0.012533
C	 0.8314703592	-0.5457358297	-1.3105150747	-0.063345
C	 1.5141834207	-1.5508515435	-0.3394290368	-0.258014
C	 1.1972467898	-0.5952725443	 0.8577767411	-0.207789
C	 2.3130554095	 0.2458427755	 1.246526755	 0.352781
C	 3.2442228561	 0.9415416402	 1.5568053621	-0.486011
C	-0.0710995786	-1.1149690262	-2.3661511639	 0.153941
O	-0.0602488291	-0.8191533964	-3.5334697981	-0.250692
H	 0.8892427338	 2.1242614839	-0.1513358756	 0.134682
H	-0.731108041	 1.9220101378	-0.845382938	 0.124145
H	-0.5095710319	 1.9205472495	 0.9116905849	 0.12181
H	-0.827989352	-0.4110958504	 0.0976865574	 0.082428
H	 1.5465224772	 0.1402872325	-1.7698544724	 0.09906
H	 0.9490301066	-2.4843595934	-0.2570736114	 0.109253
H	 2.5633089663	-1.7804803311	-0.5253961711	 0.125855
H	 0.7806268611	-1.0827785619	 1.7442975815	 0.10329
H	 4.0663388036	 1.550737196	 1.8409433442	 0.20064
H	-0.8002383864	-1.8662382645	-1.972400962	 0.062881
54.9401	65.4183	144.0727	194.8574	213.1046	253.3756	264.5266	341.8925	392.7731	437.1681	525.9576	590.0459	627.5214	632.9521	689.7585	784.1642	811.2417	886.3396	909.4271	960.2357	978.0845	1049.3142	1079.3933	1092.3639	1120.2955	1149.0881	1173.4291	1209.4347	1238.5625	1257.8238	1275.7867	1307.8808	1357.0581	1371.5687	1414.3211	1427.8727	1480.8774	1491.5213	1497.0107	1829.0181	2230.1565	2823.847	3029.7206	3036.3404	3053.975	3064.4308	3095.8298	3100.6828	3119.2443	3137.8007	3503.0453
CC1C(CC1C#C)C=O	C[C@H]1[C@@H](C[C@H]1C#C)C=O	
InChI=1S/C8H10O/c1-3-7-4-8(5-9)6(7)2/h1,5-8H,4H2,2H3	InChI=1S/C8H10O/c1-3-7-4-8(5-9)6(7)2/h1,5-8H,4H2,2H3/t6-,7-,8+/m1/s1
