23
gdb 109723	1.80992	1.14098	0.84403	0.2396	95.77	-0.223	0.0564	0.2794	1543.2256	0.203375	-351.133174	-351.12187	-351.120926	-351.172561	39.633	
C	 0.0107529422	 1.4767236828	 0.345342229	-0.374818
C	-0.0017948925	 0.0538328085	-0.2258570531	-0.196877
C	-1.3621974165	-0.5998656523	-0.1009919509	-0.008071
C	-1.5795030032	-2.0889342561	-0.1488848434	-0.042755
C	-0.4584830629	-3.0858864361	-0.3392299232	-0.408365
C	-1.774329669	-1.3428008073	 1.173396106	-0.222571
C	-0.851734782	-1.5074495755	 2.2595800274	 0.106204
C	-0.0899874185	-1.6421182628	 3.1852570476	 0.03991
C	 0.8244280023	-1.8047330859	 4.3070903946	-0.498632
H	 0.9928254815	 1.9442583417	 0.2229196178	 0.106767
H	-0.7261755864	 2.1127503756	-0.1580330129	 0.108754
H	-0.229277686	 1.4663582546	 1.4129820086	 0.127752
H	 0.2898456219	 0.0773563268	-1.2841751124	 0.092092
H	 0.7510840954	-0.5471572726	 0.2921132591	 0.107581
H	-2.1639210923	-0.0060577579	-0.5360272572	 0.080884
H	-2.5140107567	-2.3946318958	-0.6132305742	 0.084538
H	 0.4245276406	-2.8270556805	 0.2485680101	 0.129841
H	-0.777469364	-4.0849056534	-0.0234550491	 0.117315
H	-0.1628937971	-3.1470391345	-1.3924516469	 0.113555
H	-2.8063693225	-1.2051397594	 1.4847311443	 0.101146
H	 0.4896279609	-1.231323634	 5.1789856282	 0.146203
H	 0.9052321095	-2.8539103867	 4.6137556839	 0.144568
H	 1.8322673455	-1.4566629391	 4.0538835767	 0.144978
4.6621	57.9341	95.0821	108.2241	141.899	181.5153	209.8584	240.0039	272.8365	297.0443	377.2798	401.807	496.1542	539.8178	598.5598	727.5324	736.9359	793.4838	815.4267	917.497	949.9597	972.1885	997.3441	1052.3553	1052.9067	1056.0606	1080.7195	1100.899	1126.3155	1150.3568	1188.8363	1196.5685	1263.4067	1300.0381	1336.9413	1374.5723	1398.0239	1409.0776	1415.3032	1421.6725	1442.0461	1478.0054	1479.9618	1481.2514	1494.6614	1499.4988	1501.5999	1507.7398	2359.4528	3021.2668	3022.6299	3031.4244	3035.2937	3078.9519	3080.4101	3082.9454	3091.1643	3099.7252	3110.5644	3118.1615	3121.5221	3132.4096	3143.3393
CCC1C(C)C1C#CC	CC[C@H]1[C@@H](C)[C@H]1C#CC	
InChI=1S/C9H14/c1-4-6-9-7(3)8(9)5-2/h7-9H,5H2,1-3H3	InChI=1S/C9H14/c1-4-6-9-7(3)8(9)5-2/h7-9H,5H2,1-3H3/t7-,8+,9-/m1/s1
