15
gdb 39850	3.02748	1.77463	1.40297	1.5069	63.6	-0.2631	0.0384	0.3015	910.6225	0.112427	-457.689296	-457.682702	-457.681757	-457.720238	26.232	
C	-0.083919811	 1.4682954176	 0.0098059023	-0.233395
O	 1.1467671915	 0.7351660723	-0.0038565229	-0.27821
C	-0.080377259	 0.0030707828	 0.003109769	 0.425136
C	-0.3400060023	-0.8582157212	 1.2203578633	-0.078208
O	-1.6842415998	-1.3253822191	 1.3464838787	-0.23165
C	-0.7245254165	-2.2055298591	 0.7614042719	 0.007842
C	-0.7373202567	-2.198591904	-0.7643331891	 0.007842
O	-1.7066480189	-1.3132361377	-1.3252089511	-0.231651
C	-0.3604516484	-0.8471288091	-1.2173943923	-0.078206
H	-0.3021938078	 1.9987345194	 0.9349046941	 0.126575
H	-0.3176465521	 2.0071185322	-0.9066316248	 0.126575
H	 0.1923472339	-0.6403135497	 2.1430208238	 0.111159
H	-0.5059019358	-3.1180814472	 1.3072962466	 0.107516
H	-0.5279432645	-3.1061246676	-1.3220877696	 0.107516
H	 0.1563696174	-0.6208040895	-2.1468356299	 0.111159
130.1458	217.7785	316.9941	317.5659	398.983	472.9929	563.5018	600.5114	728.9462	811.0848	826.7159	852.5685	881.0008	898.0096	899.4277	937.0191	943.2735	995.6983	1029.8679	1047.3421	1081.6883	1104.3656	1126.5959	1160.9895	1228.0673	1247.396	1249.1816	1294.5626	1319.2437	1362.6559	1417.3495	1454.8678	1530.9966	3090.7043	3146.0563	3148.5108	3161.5987	3174.4115	3180.8648
C1OC11C2OC2C2OC12	C1O[C@]21[C@H]1O[C@H]1[C@H]1O[C@@H]21	
InChI=1S/C6H6O3/c1-6(7-1)4-2(8-4)3-5(6)9-3/h2-5H,1H2	InChI=1S/C6H6O3/c1-6(7-1)4-2(8-4)3-5(6)9-3/h2-5H,1H2/t2-,3+,4-,5+,6+
