16
gdb 55429	2.39523	1.67352	1.13009	2.2337	65.52	-0.2452	-0.0442	0.2011	1060.448	0.124484	-475.075819	-475.06763	-475.066686	-475.109051	30.43	
N	 0.0913348093	 1.1925858669	 0.1539192869	-0.516953
C	 0.0104442149	-0.1539072693	-0.0500994661	 0.353413
O	 0.9536190162	-0.8911747518	-0.2245115191	-0.33758
C	-1.4553159289	-0.6712132541	-0.0750864029	-0.104354
O	-1.5428374939	-2.0425827742	-0.3458998653	-0.233222
C	-1.541091356	-2.7432518092	 0.9050329861	-0.095101
C	-2.3711090989	-1.8653902313	 1.8500965847	-0.332702
C	-2.1050449408	-0.4681973939	 1.3022158125	 0.370969
O	-2.3149944962	 0.5961521595	 1.8276190016	-0.317234
H	 1.0111114213	 1.5686219996	 0.327861613	 0.263362
H	-0.6936212026	 1.6627392666	 0.5837107105	 0.274033
H	-2.0060505144	-0.1102619878	-0.8382813689	 0.137096
H	-1.9694220925	-3.7304121671	 0.7255227071	 0.122818
H	-0.5122834822	-2.8601562875	 1.2685102653	 0.127235
H	-3.4428120616	-2.0734117248	 1.7495080693	 0.146685
H	-2.1084008536	-1.9318654717	 2.9075306453	 0.141535
72.9794	92.0657	171.8096	187.6632	305.6973	407.3329	443.4865	490.7478	513.1746	558.5623	588.906	641.9662	681.2596	705.0477	796.8122	860.9179	880.8433	947.4132	985.5864	1055.3794	1116.0254	1130.8153	1166.5684	1195.9974	1209.136	1240.2211	1277.9185	1301.8604	1345.6148	1387.6251	1445.0028	1520.3713	1630.5137	1824.1261	1836.923	3031.6592	3052.3635	3059.0397	3119.061	3126.8874	3552.2708	3684.337
NC(=O)C1OCCC1=O	NC(=O)[C@H]1OCCC1=O	
InChI=1S/C5H7NO3/c6-5(8)4-3(7)1-2-9-4/h4H,1-2H2,(H2,6,8)	InChI=1S/C5H7NO3/c6-5(8)4-3(7)1-2-9-4/h4H,1-2H2,(H2,6,8)/t4-/m0/s1
