15
gdb 113139	2.49319	1.18715	0.89245	1.5402	75.21	-0.2616	-0.0109	0.2506	1277.3605	0.108109	-420.518366	-420.508931	-420.507987	-420.552835	34.312	
O	 0.0471491138	 1.3567775219	-0.4188759427	-0.412663
C	 0.0643728453	 0.1263502322	 0.2840441786	-0.103988
C	-1.3170963296	-0.4801681663	 0.3219485475	-0.000273
O	-1.7772134035	-1.0522400338	-0.901042013	-0.280843
C	-1.5683429761	-1.9475877886	 0.2179174327	 0.071315
C	-0.4719633574	-2.8802780887	 0.089617255	 0.284522
C	 0.4215252772	-3.6781508141	-0.0001032603	-0.444101
C	-2.7692426014	-2.4900443193	 0.8106087425	 0.258168
C	-3.7613420556	-2.9415768519	 1.3147256259	-0.427125
H	-0.2249915494	 1.1622135164	-1.3228613069	 0.295679
H	 0.7716729876	-0.5899282663	-0.1528720697	 0.11114
H	 0.3941170817	 0.3560811745	 1.3026092546	 0.120834
H	-2.073079882	 0.1019796476	 0.8496677025	 0.114144
H	 1.2127046247	-4.3821791793	-0.0841448228	 0.206939
H	-4.6405403553	-3.3433505845	 1.7552210363	 0.206251
64.5409	119.1179	127.0092	146.8473	196.5386	264.5378	340.3245	402.6945	406.5095	478.8048	534.5653	567.0665	615.6459	628.9815	633.5267	667.0607	669.4671	680.0748	805.8935	898.2638	982.9528	1055.3065	1078.2879	1110.2224	1213.6924	1231.1124	1294.1642	1361.8568	1413.5547	1447.7009	1492.8286	2242.1759	2246.3943	3027.9009	3085.5687	3119.0798	3499.41	3501.0506	3803.6445
OCC1OC1(C#C)C#C	OC[C@H]1OC1(C#C)C#C	
InChI=1S/C7H6O2/c1-3-7(4-2)6(5-8)9-7/h1-2,6,8H,5H2	InChI=1S/C7H6O2/c1-3-7(4-2)6(5-8)9-7/h1-2,6,8H,5H2/t6-/m1/s1
