18
gdb 52436	11.82712	0.4254	0.41869	1.9793	75.54	-0.2639	-0.0355	0.2284	2425.1923	0.144707	-439.097702	-439.087338	-439.086394	-439.135423	33.931	
O	-0.1222048156	-0.0329515596	-0.0209457775	-0.227476
C	 0.0228353221	 1.1609879624	-0.0146149569	 0.15347
C	 1.3444473193	 1.8717513997	-0.2082017366	-0.282165
C	 1.2856528231	 2.891315319	-1.344285704	-0.066446
O	 2.4729398604	 3.656775519	-1.3073141627	-0.245051
C	 2.5504420145	 4.6140443444	-2.3363853219	-0.055563
C	 3.8837917901	 5.3496149437	-2.1556155019	-0.340046
C	 4.0813768083	 6.3799332793	-3.1698632858	 0.248042
N	 4.2196518505	 7.19123328	-3.9805752564	-0.298216
H	-0.845646975	 1.8421193981	 0.1484301717	 0.076559
H	 1.5707489547	 2.4176083838	 0.7183544535	 0.134629
H	 2.1315240566	 1.1337045757	-0.377391267	 0.13453
H	 1.1873319789	 2.3805697691	-2.3154549485	 0.110383
H	 0.4051331434	 3.5461929954	-1.2293634124	 0.098637
H	 2.5123814127	 4.1366613111	-3.3276962455	 0.115713
H	 1.7135043534	 5.3275049773	-2.2802153031	 0.11362
H	 3.9139128494	 5.8070983517	-1.1613076254	 0.16405
H	 4.7058040031	 4.6279695599	-2.2040754897	 0.165327
35.2754	53.4527	64.2371	90.2583	122.5165	144.9226	181.5769	267.1348	358.6239	398.7342	456.7653	516.0338	568.7798	788.7837	797.2156	871.3117	947.0597	998.1875	1034.0517	1056.6469	1092.2426	1121.649	1138.7995	1164.4466	1220.493	1239.6405	1277.1161	1301.1509	1304.7979	1311.455	1398.8282	1432.1608	1451.4792	1467.679	1471.2051	1515.3409	1537.807	1840.6829	2367.6854	2855.0703	2959.7916	2980.8833	2996.1554	3013.2931	3028.7773	3057.648	3100.8677	3120.1121
O=CCCOCCC#N	O=CCCOCCC#N	
InChI=1S/C6H9NO2/c7-3-1-5-9-6-2-4-8/h4H,1-2,5-6H2	InChI=1S/C6H9NO2/c7-3-1-5-9-6-2-4-8/h4H,1-2,5-6H2
