17
gdb 56662	2.99623	1.0955	1.00039	1.1473	69.12	-0.2445	-0.0006	0.2439	1217.0689	0.134239	-455.120632	-455.110871	-455.109927	-455.155693	35.247	
N	-0.3832295224	 1.3727549068	-0.1382352642	-0.584256
C	-0.1231181859	-0.0396044946	-0.0523471975	 0.25414
C	-0.3690861056	-0.6840822386	 1.2991312894	-0.357002
C	-1.3682419102	-0.8721184216	 0.1822459855	 0.118243
O	-2.5968073004	-0.2344190822	 0.2131140774	-0.431097
C	 0.9882818332	-0.6056625869	-0.9309496925	-0.074046
O	 0.8053663836	-0.2862484543	-2.3034750238	-0.416459
C	 2.3053362061	-0.1358039908	-0.4546696153	 0.235865
N	 3.3140438721	 0.2928705819	-0.0870747491	-0.316593
H	 0.330731865	 1.9268202635	 0.32426966	 0.251114
H	-0.4468370263	 1.6645805769	-1.1088432612	 0.237579
H	 0.2620547437	-1.5164751687	 1.5932934834	 0.121539
H	-0.6528587897	-0.0183999977	 2.1065040551	 0.127168
H	-1.4318826935	-1.8475527284	-0.2907918612	 0.110037
H	-2.3940425294	 0.7138821553	 0.2492183617	 0.288555
H	 0.9732093909	-1.6998989943	-0.8650335881	 0.136536
H	 1.2487214287	 0.5476372636	-2.4904764197	 0.298676
54.1124	72.8751	116.6537	189.8295	212.6078	248.6402	309.8072	325.8799	336.8162	427.6783	470.5568	490.0783	560.1029	616.844	654.7074	782.7621	831.5967	833.8741	880.823	927.3552	946.3959	1023.963	1050.3299	1071.6165	1095.6308	1147.561	1221.5772	1260.6629	1267.0964	1291.8664	1346.1675	1376.0787	1405.3786	1440.6207	1481.7327	1648.7698	2349.8511	3050.0798	3132.4295	3158.6684	3225.5446	3493.6403	3578.7232	3690.6525	3825.542
NC1(CC1O)C(O)C#N	N[C@]1(C[C@H]1O)[C@@H](O)C#N	
InChI=1S/C5H8N2O2/c6-2-4(9)5(7)1-3(5)8/h3-4,8-9H,1,7H2	InChI=1S/C5H8N2O2/c6-2-4(9)5(7)1-3(5)8/h3-4,8-9H,1,7H2/t3-,4+,5+/m1/s1
