22
gdb 104787	2.19201	1.54632	1.11391	0.6541	81.21	-0.229	0.0706	0.2996	1190.2996	0.193686	-404.298941	-404.289454	-404.28851	-404.333074	36.113	
C	-1.6555337548	-0.7369091463	-0.1615464167	-0.389524
C	-0.2494410202	-0.1447590067	-0.0077004648	-0.244563
C	 0.7410688114	-0.5820862378	-1.0878782466	 0.352488
C	 0.3726811629	-0.0320444943	-2.4630426326	-0.121159
O	 0.4318928039	 1.3867173871	-2.4010501244	-0.429928
C	 2.2606988443	-0.3909584716	-0.7953948274	-0.315426
C	 2.3943168758	-1.8983384131	-0.9852313796	-0.013254
C	 1.5183310066	-2.6342777649	-0.0571017662	-0.246012
N	 0.9141728866	-2.0829703756	-1.2845104668	-0.169402
H	-2.1545869157	-0.3748105835	-1.0654269651	 0.118755
H	-1.6193853228	-1.8291499221	-0.216964275	 0.13074
H	-2.2837168027	-0.4602920971	 0.6906453687	 0.109239
H	-0.2942265125	 0.9496625149	-0.0328744561	 0.12064
H	 0.1463278378	-0.4081031653	 0.9793629325	 0.088232
H	 1.0812099677	-0.4347717319	-3.2017668375	 0.088893
H	-0.6287092346	-0.3869690111	-2.7452282049	 0.095563
H	 0.1976212397	 1.7350914291	-3.2655501628	 0.289847
H	 2.7608417024	 0.2122647149	-1.5540095117	 0.115373
H	 2.5363920544	-0.0090276763	 0.1922162416	 0.098146
H	 3.1532552697	-2.3952991956	-1.5812527993	 0.090371
H	 1.5603496025	-3.7192509077	-0.0746698217	 0.11859
H	 1.2733869375	-2.2123901447	 0.9139014661	 0.11239
66.9836	114.6706	177.455	192.5155	209.5672	236.6292	287.185	343.3384	388.6584	415.7461	449.427	545.4188	663.1946	757.5948	762.1934	784.2182	846.1112	881.7607	926.4753	950.3997	978.2018	998.6476	1033.4849	1045.6107	1063.9791	1078.3072	1107.5782	1124.4797	1134.4423	1149.2047	1184.0293	1225.0825	1228.6123	1257.8457	1267.2141	1303.1332	1330.0996	1362.2237	1378.7993	1412.2337	1454.5135	1483.5101	1493.0468	1497.2379	1506.1977	1515.4898	1526.7752	2989.5455	3023.5407	3039.5204	3041.2627	3056.5642	3073.6841	3106.6927	3113.2726	3114.8742	3124.0177	3158.5853	3197.9284	3839.3107
CCC1(CO)CC2CN12	CC[C@@]1(CO)C[C@H]2CN12	
InChI=1S/C7H13NO/c1-2-7(5-9)3-6-4-8(6)7/h6,9H,2-5H2,1H3	InChI=1S/C7H13NO/c1-2-7(5-9)3-6-4-8(6)7/h6,9H,2-5H2,1H3/t6-,7-,8?/m0/s1
