18
gdb 10984	2.7105	2.40173	1.96055	2.7331	67.44	-0.2309	0.0702	0.3011	803.229	0.154186	-384.922303	-384.914956	-384.914012	-384.953252	29.141	
C	-0.0144051863	 1.4964280458	 0.0952655365	-0.497301
C	-0.0569422328	 0.0017636845	-0.0445660931	 0.423443
C	 0.3175097792	-0.8058564324	-1.3201707484	-0.281237
C	-0.3660263607	-1.9536730067	-0.5176921443	-0.141847
C	 0.5585685205	-2.0301811274	 0.7015630457	-0.066626
O	 0.7556923708	-0.625138386	 0.9667533945	-0.307867
C	-1.3560744243	-0.8453757084	-0.0216844775	 0.109596
O	-1.9861267153	-0.9549621069	 1.2241428105	-0.435125
H	 1.0150577852	 1.8596259434	 0.0217186526	 0.127
H	-0.6102864991	 1.9748553267	-0.6872004292	 0.112645
H	-0.4132712184	 1.792956176	 1.0697773283	 0.138535
H	-0.2354948336	-0.508918863	-2.2132857915	 0.098085
H	 1.3838507363	-0.9015443937	-1.5329503903	 0.104186
H	-0.6953666699	-2.8864375573	-0.9746225752	 0.065057
H	 0.086156203	-2.5083679127	 1.5659959746	 0.103078
H	 1.5191254621	-2.5142288889	 0.4908507876	 0.093652
H	-2.0498408824	-0.5399187791	-0.8144837866	 0.069096
H	-2.7797747742	-1.4885519638	 1.1196988259	 0.285631
189.3393	213.7444	241.6437	251.9202	306.9273	318.3426	439.9398	486.3299	617.5976	636.2886	737.0446	789.4127	834.9308	861.7161	891.4018	911.9256	960.288	967.0002	1006.4994	1021.7833	1077.6467	1116.8447	1124.8196	1160.815	1188.0319	1190.5264	1204.6965	1246.5136	1258.2608	1304.6085	1341.0187	1364.6203	1413.9719	1442.9609	1480.787	1490.9858	1495.7875	1518.6033	3029.4764	3030.8251	3042.9629	3074.1425	3076.8292	3115.3922	3119.0839	3122.7973	3138.3734	3824.3717
CC12CC(CO1)C2O	C[C@@]12C[C@@H](CO1)[C@H]2O	
InChI=1S/C6H10O2/c1-6-2-4(3-8-6)5(6)7/h4-5,7H,2-3H2,1H3	InChI=1S/C6H10O2/c1-6-2-4(3-8-6)5(6)7/h4-5,7H,2-3H2,1H3/t4-,5+,6-/m0/s1
