16
gdb 124907	3.62819	1.3216	1.20815	5.3369	71.19	-0.2548	0.0061	0.2609	1051.8646	0.124752	-434.0244	-434.01658	-434.015635	-434.056694	29.382	
C	-0.2005830506	 1.5664761627	 0.0552253662	-0.450858
C	-0.0574472835	 0.0518348247	 0.0143759985	 0.203843
O	-1.2903109103	-0.6066987528	 0.1742856915	-0.441053
C	 0.6832547884	-0.543892116	-1.2513869673	-0.194986
N	 1.7102959325	-1.0006427344	-0.2936248402	 0.08612
N	 2.8911400475	-1.5953855963	-0.0834638319	-0.178028
N	 3.0664234827	-1.5141144083	 1.2184471105	-0.179263
C	 2.0196114147	-0.8667507644	 1.8210152184	-0.23048
C	 1.1320203495	-0.5317275071	 0.8201144076	 0.282553
H	 0.7546964176	 2.062213251	-0.1371749547	 0.137674
H	-0.9319241276	 1.8940568269	-0.6894634321	 0.135442
H	-0.5480268166	 1.8871232844	 1.0439316458	 0.12407
H	-1.6903643476	-0.3094980916	 0.9989874706	 0.288148
H	 0.1403626217	-1.3577046387	-1.7329060362	 0.153237
H	 1.0524717393	 0.178241573	-1.9817413194	 0.141314
H	 2.0016446524	-0.7120939333	 2.8863949927	 0.122267
100.4024	140.2735	233.3886	247.412	289.1808	323.7009	361.1828	454.1742	517.3551	624.332	697.2876	719.9532	752.7998	832.3091	867.1926	923.4903	959.8934	999.107	1045.485	1097.1256	1107.8342	1133.735	1173.0214	1204.0655	1231.2738	1254.0957	1285.5224	1322.4632	1381.0868	1410.3069	1467.619	1489.3323	1490.9097	1507.7788	1521.9654	3035.2202	3082.7673	3104.6565	3125.5498	3153.5541	3282.6244	3808.4494
CC1(O)CN2N=NC=C12	C[C@@]1(O)Cn2nncc12	
InChI=1S/C5H7N3O/c1-5(9)3-8-4(5)2-6-7-8/h2,9H,3H2,1H3	InChI=1S/C5H7N3O/c1-5(9)3-8-4(5)2-6-7-8/h2,9H,3H2,1H3/t5-/m1/s1
