21
gdb 73867	2.48276	1.52738	1.0496	1.8402	85.28	-0.2245	0.0311	0.2556	1204.8646	0.182294	-387.102046	-387.093046	-387.092102	-387.135727	34.091	
C	-0.2324230303	 1.5868271713	 0.1446017731	-0.481753
C	 0.0494640681	 0.1183388113	-0.0530079089	 0.213031
C	-0.0075416606	-0.526474787	-1.2273656066	 0.213025
C	-0.3631169758	 0.107938315	-2.5487342168	-0.481754
C	 0.2744542103	-2.0093983913	-1.3637407481	-0.319278
C	 0.8990287814	-2.6721444389	-0.1639309695	 0.049489
O	 2.1304128997	-2.1105789868	 0.3042399505	-0.262833
C	 0.9613189108	-1.9677521707	 1.1188922058	 0.049483
C	 0.4012666197	-0.5754109316	 1.2477830265	-0.319277
H	 0.6632643357	 2.1027868864	 0.5152175892	 0.125733
H	-0.5604111934	 2.1004607454	-0.758709654	 0.121195
H	-1.0075247244	 1.7313599756	 0.9089222665	 0.119368
H	-0.6436352223	 1.1582720243	-2.4746772415	 0.121194
H	 0.4806654708	 0.03648244	-3.2478407364	 0.125735
H	-1.19823981	-0.4264154407	-3.0208481121	 0.119369
H	-0.6628050011	-2.5372438035	-1.5999460374	 0.107474
H	 0.9222594391	-2.1757288495	-2.2371806611	 0.112215
H	 0.882488951	-3.7627482911	-0.1665609929	 0.083948
H	 0.9896301041	-2.5510756315	 2.0401027294	 0.083948
H	 1.118616878	 0.0443474159	 1.8059304871	 0.112217
H	-0.4933851709	-0.6218468825	 1.8883410772	 0.107471
88.2916	122.4618	126.5652	144.9493	311.7754	323.2257	354.7479	363.0217	363.8036	473.4519	513.7501	567.2559	689.6799	741.3347	798.7616	838.8887	873.7866	920.6207	955.1637	981.2969	1008.5158	1035.7112	1064.3485	1065.2334	1096.9424	1140.3047	1143.1794	1152.0581	1238.5629	1247.0789	1251.4681	1297.8186	1366.2916	1381.2686	1392.1607	1406.5488	1422.3979	1463.9825	1464.3925	1478.833	1486.1013	1486.7489	1494.6602	1501.1306	1749.4799	2987.8407	2988.9021	3012.1156	3012.6177	3014.3481	3017.724	3054.133	3054.5893	3093.7219	3106.9303	3135.1969	3151.6047
CC1=C(C)CC2OC2C1	CC1=C(C)C[C@H]2O[C@H]2C1	
InChI=1S/C8H12O/c1-5-3-7-8(9-7)4-6(5)2/h7-8H,3-4H2,1-2H3	InChI=1S/C8H12O/c1-5-3-7-8(9-7)4-6(5)2/h7-8H,3-4H2,1-2H3/t7-,8+
