14
gdb 131442	3.39884	1.54243	1.07523	3.3659	63.43	-0.2205	0.0205	0.241	1032.7897	0.102935	-473.807781	-473.800719	-473.799775	-473.840305	26.157	
O	 0.1851882386	 1.3737885727	 0.0367712239	-0.415224
C	 0.1093747441	 0.0355388861	 0.059532044	 0.319611
N	 0.1429252711	-0.6560914636	-1.0688757055	-0.283391
O	 0.0407350837	-2.0362926443	-0.668036198	-0.239982
C	-0.0419860022	-2.0153165164	 0.646010426	 0.537228
C	-0.0092392134	-0.7845340226	 1.2033873681	-0.006394
C	-0.1125016588	-0.9386245394	 2.6916573217	-0.394828
C	-0.2074512328	-2.5090122945	 2.7944505929	-0.089549
O	-0.1513624602	-3.0793372886	 1.435075816	-0.273629
H	 0.2593145714	 1.6443832551	-0.8890899855	 0.31178
H	 0.7589221867	-0.5627471926	 3.2374969523	 0.129512
H	-0.9982627509	-0.4639182723	 3.1260010749	 0.129524
H	 0.6249137451	-2.9442919904	 3.3502164365	 0.137674
H	-1.1479394422	-2.8444035492	 3.2351409726	 0.137667
33.3716	185.9513	215.7268	283.96	400.7504	472.7627	546.9457	605.2635	651.7458	660.7213	742.6243	772.3668	787.8732	833.7688	899.9843	924.238	968.7124	1077.3398	1120.7741	1207.6076	1209.7363	1241.2878	1262.1576	1322.5328	1361.7375	1424.0149	1500.2286	1519.246	1561.0943	1584.7811	1706.9602	3041.6481	3070.798	3080.6373	3134.4502	3769.5742
OC1=NOC2=C1CCO2	Oc1noc2c1CCO2	
InChI=1S/C5H5NO3/c7-4-3-1-2-8-5(3)9-6-4/h1-2H2,(H,6,7)	InChI=1S/C5H5NO3/c7-4-3-1-2-8-5(3)9-6-4/h1-2H2,(H,6,7)
