19
gdb 80494	2.14027	1.46264	1.21665	3.7601	81.8	-0.2355	0.0171	0.2526	1143.5982	0.159487	-382.047178	-382.038272	-382.037328	-382.080422	33.687	
C	 0.1645615092	 1.6204109628	-0.421240536	-0.426842
C	 0.2456921481	 0.1196723059	-0.2473845754	-0.048618
C	 1.493468836	-0.6803986143	-0.3887983563	-0.073858
N	 2.6403467347	 0.0771456751	 0.1283692617	-0.340872
C	 2.1099248134	-0.0442401931	 1.5300394072	-0.002621
C	 2.1312987673	 1.2039847887	 2.3944462337	-0.403694
C	 0.7815767811	-0.6198727075	 0.9856184385	 0.129276
C	 0.0048005982	-1.5931931266	 1.671247793	 0.191583
N	-0.6205394011	-2.3858687747	 2.2403364826	-0.358667
H	 1.1443609686	 2.0815921419	-0.2901458136	 0.148015
H	-0.1831360226	 1.8520572639	-1.4335366992	 0.121351
H	-0.5410257631	 2.0696748672	 0.2842080266	 0.12553
H	-0.6185766231	-0.4207727152	-0.628514028	 0.112558
H	 1.6077043091	-1.525639854	-1.0573540836	 0.116142
H	 3.5122623384	-0.427001527	 0.0170783987	 0.231796
H	 2.620517543	-0.8598395778	 2.0556874752	 0.096478
H	 1.611308257	 2.0396343443	 1.9238673598	 0.129486
H	 1.6556295567	 0.9975061675	 3.3590102976	 0.130434
H	 3.1647075691	 1.5100892528	 2.5884156775	 0.122525
125.3829	140.2892	160.4389	191.7723	228.7446	249.9885	298.8586	356.3852	482.7211	503.69	549.8309	565.1572	638.1128	679.3699	759.853	796.458	870.4867	905.0159	959.6733	974.2338	1003.953	1067.0182	1090.3146	1098.0185	1105.3084	1130.5915	1154.3878	1216.3279	1240.0791	1272.8714	1345.538	1364.2848	1395.1812	1408.0697	1414.3082	1466.9039	1484.2293	1492.2195	1500.8774	1508.313	2334.3009	3030.9746	3041.6697	3043.4987	3100.6949	3104.5216	3131.8869	3142.3994	3148.8404	3186.0898	3546.4395
CC1C2NC(C)C12C#N	C[C@H]1[C@H]2N[C@@H](C)[C@@]12C#N	
InChI=1S/C7H10N2/c1-4-6-7(4,3-8)5(2)9-6/h4-6,9H,1-2H3	InChI=1S/C7H10N2/c1-4-6-7(4,3-8)5(2)9-6/h4-6,9H,1-2H3/t4-,5-,6+,7+/m0/s1
