21
gdb 116673	2.8053	0.84813	0.69046	3.9123	85.94	-0.2392	-0.0162	0.223	1691.4939	0.18081	-420.439911	-420.429258	-420.428314	-420.476916	37.062	
C	 0.5315206789	 0.7178334125	 0.7565445408	-0.397875
C	-0.2538868787	 0.3596906357	-0.5083919606	-0.109794
N	 0.4057380976	-0.4121093823	-1.5488047129	-0.251019
C	 1.6112815378	-0.7686359099	-1.4240195271	 0.119022
N	 2.3035148253	-1.4863417194	-2.4056429612	-0.101864
C	 3.6603629897	-1.9658032376	-2.1301779278	-0.166661
C	 3.6867593256	-3.3789567177	-1.5453556078	-0.375808
C	 1.7309069619	-1.7893975586	-3.628419592	 0.160041
O	 2.2934489527	-2.437236954	-4.4839276239	-0.331843
H	 0.8658513904	-0.1738722672	 1.2977309847	 0.120857
H	 1.4106135578	 1.3322551971	 0.5341223094	 0.121074
H	-0.109954863	 1.2919567207	 1.4314344	 0.119148
H	-1.1588442333	-0.1956402737	-0.2276599947	 0.11603
H	-0.6205873241	 1.2813342202	-0.9801768836	 0.115995
H	 2.2444795414	-0.5580735218	-0.5556335215	 0.092492
H	 4.204108052	-1.9427580872	-3.0764424188	 0.14394
H	 4.1353276159	-1.2533508561	-1.4482668258	 0.110068
H	 3.2376631176	-4.0865823013	-2.2464638117	 0.149225
H	 4.718978325	-3.6899955569	-1.3568174387	 0.121164
H	 3.13712797	-3.4289821348	-0.5999292054	 0.11759
H	 0.7205090996	-1.3696183378	-3.7263109713	 0.128218
39.5995	47.8288	101.6018	141.1461	167.0681	225.502	244.4717	257.9899	268.1159	327.1918	355.0473	447.227	508.2704	522.686	724.9683	777.2119	804.1039	846.0876	906.7633	984.3157	998.3504	1055.0089	1066.0126	1084.6298	1107.6144	1132.5116	1146.4949	1270.6704	1290.0945	1312.5877	1374.3097	1376.9169	1398.0961	1399.1838	1411.5297	1433.3463	1439.8561	1478.8896	1486.7517	1491.8294	1494.3672	1504.7375	1506.8535	1753.3952	1789.2582	3014.706	3032.0982	3034.288	3041.5314	3052.4914	3056.044	3063.339	3099.9878	3105.0886	3109.9221	3121.7273	3134.8144
CCN=CN(CC)C=O	CCN=CN(CC)C=O	
InChI=1S/C6H12N2O/c1-3-7-5-8(4-2)6-9/h5-6H,3-4H2,1-2H3	InChI=1S/C6H12N2O/c1-3-7-5-8(4-2)6-9/h5-6H,3-4H2,1-2H3
