18
gdb 82429	2.44364	1.74322	1.22549	2.5261	70.41	-0.2202	-0.0307	0.1895	1031.2057	0.149088	-439.07958	-439.071782	-439.070838	-439.111795	30.853	
O	 0.1471116305	 1.2551628616	 0.422922449	-0.440798
C	-0.0964866901	-0.0635562767	 0.0161702095	 0.066696
C	-1.5779279564	-0.3763686906	-0.103710254	-0.075916
C	-2.270111099	-0.267183063	-1.4480494295	-0.313584
C	-1.9106171012	-1.619789939	-0.8989042657	 0.008526
N	-0.8467095096	-2.4122016755	-1.4858185144	-0.297861
C	 0.2650722735	-1.6465166752	-2.0356577128	-0.279845
C	 0.6304225152	-0.358784982	-1.2955874418	 0.327848
O	 1.4352716434	 0.4345229019	-1.7328376165	-0.335363
H	 0.832504924	 1.5857482493	-0.1799771121	 0.292269
H	 0.3313386868	-0.7709714543	 0.7559685582	 0.084302
H	-2.1525328931	-0.138546756	 0.7858294975	 0.098122
H	-3.3200323268	 0.0021813577	-1.4565039546	 0.121416
H	-1.717347008	 0.1424573307	-2.2868885609	 0.127212
H	-2.7314890784	-2.2419568938	-0.5568407456	 0.099104
H	-0.5032542837	-3.0598024926	-0.7850440977	 0.226598
H	 1.1551989525	-2.2830457346	-2.0791082824	 0.141825
H	 0.0603884003	-1.3540294078	-3.0737993962	 0.149448
84.3815	149.1637	252.7941	307.2472	332.9686	410.982	424.222	471.9925	505.9077	538.4758	621.1846	666.7755	750.6006	781.0807	792.9442	833.4163	908.2854	938.3887	976.6214	1050.9995	1062.948	1090.0477	1104.4451	1120.0558	1129.1839	1170.6636	1190.8204	1222.4365	1256.2209	1270.1651	1330.7001	1347.7735	1378.1959	1404.6735	1435.2863	1452.9087	1485.2733	1507.0458	1799.9506	2894.6714	3029.5357	3081.1066	3139.4801	3153.557	3161.5582	3219.1227	3522.5527	3683.4592
OC1C2CC2NCC1=O	O[C@H]1[C@H]2C[C@H]2NCC1=O	
InChI=1S/C6H9NO2/c8-5-2-7-4-1-3(4)6(5)9/h3-4,6-7,9H,1-2H2	InChI=1S/C6H9NO2/c8-5-2-7-4-1-3(4)6(5)9/h3-4,6-7,9H,1-2H2/t3-,4+,6-/m0/s1
