17
gdb 77021	2.3355	1.19211	0.94542	5.9626	77.02	-0.3004	0.0138	0.3143	1270.4261	0.135637	-380.892238	-380.883029	-380.882084	-380.926992	32.633	
C	-0.0728259583	 1.5815846413	 0.1575940979	-0.417129
C	 0.0054238763	 0.0796612969	-0.0021064735	-0.051975
C	 0.5712196276	-0.595873241	-1.2189166982	-0.022425
C	 1.1214063199	 0.1888801047	-2.4019846956	-0.371434
C	 1.8921173901	-0.6663317918	-3.3058136669	 0.265559
N	 2.4826997993	-1.3583482531	-4.0175116486	-0.295575
C	 1.3345151405	-0.671961729	 0.1024819144	-0.188911
C	 2.5490623821	 0.0761376055	 0.2603311609	 0.29111
N	 3.5168840058	 0.7000779965	 0.3770799726	-0.338339
H	 0.8159300976	 2.0902300032	-0.2224540347	 0.143666
H	-0.9469442475	 1.9790393932	-0.3683954125	 0.129841
H	-0.1698709924	 1.8460939399	 1.214764106	 0.139389
H	-0.8204462685	-0.4543986883	 0.4594062761	 0.113015
H	 0.0984706888	-1.5292592137	-1.5069918534	 0.125827
H	 0.2973340761	 0.6356363014	-2.9706474817	 0.159833
H	 1.764581378	 1.0100552151	-2.0719218664	 0.175633
H	 1.3347723946	-1.6264013509	 0.6169914335	 0.141913
43.7705	117.2691	133.3794	153.8729	178.5407	221.0014	338.8329	379.5627	386.3874	473.7994	525.6954	599.587	626.848	748.1515	797.1942	871.681	913.784	932.5545	975.409	997.554	1048.5015	1101.8773	1120.1543	1150.0684	1167.7084	1243.2906	1260.9169	1318.0915	1364.4803	1391.7239	1427.5711	1440.0279	1460.5425	1492.4593	1504.427	2349.7526	2367.2199	3043.8959	3047.7125	3095.3133	3107.2744	3126.3579	3150.5592	3164.7113	3178.359
CC1C(CC#N)C1C#N	C[C@H]1[C@@H](CC#N)[C@H]1C#N	
InChI=1S/C7H8N2/c1-5-6(2-3-8)7(5)4-9/h5-7H,2H2,1H3	InChI=1S/C7H8N2/c1-5-6(2-3-8)7(5)4-9/h5-7H,2H2,1H3/t5-,6+,7-/m0/s1
