22
gdb 82050	2.72937	1.43391	1.23583	1.6279	85.12	-0.2227	0.0819	0.3045	1140.7819	0.194795	-367.158386	-367.149908	-367.148964	-367.191215	33.538	
C	-0.194577605	 1.5542327767	-0.3801476437	-0.409498
C	 0.0647029427	 0.0728294921	-0.1693808321	-0.023763
N	 1.147326173	-0.5648120257	-1.0155707412	-0.143903
C	 2.4392139485	-0.0291950153	-0.5443718122	-0.25379
C	 1.78054291	-1.0666017089	 0.2702359406	-0.09093
C	 0.6898519796	-0.4600095481	 1.150395264	 0.358851
C	 1.081262164	 0.376277468	 2.3990567398	-0.288926
C	 0.6694900957	-0.8243038474	 3.2939701699	-0.212034
C	-0.1007960581	-1.4141985671	 2.0820390824	-0.292128
H	 0.6710884655	 2.175251469	-0.1322417376	 0.115897
H	-0.4609610686	 1.7444414071	-1.4250732047	 0.127746
H	-1.0292288352	 1.88775581	 0.2460939091	 0.117154
H	-0.8541162661	-0.4842259697	-0.3833808418	 0.081184
H	 3.2675311918	-0.3311344426	-1.1782683405	 0.118616
H	 2.5077588072	 0.9907905741	-0.1746408871	 0.109657
H	 2.1634113546	-2.0800644527	 0.3546651959	 0.089762
H	 2.11547295	 0.726388523	 2.4581987204	 0.09563
H	 0.4157747345	 1.2349331904	 2.5349491221	 0.099566
H	 1.5289215094	-1.4402676673	 3.5723859337	 0.104504
H	 0.0950961649	-0.6066133714	 4.1971374405	 0.097506
H	-1.1648481967	-1.1560257968	 2.1064114226	 0.098693
H	-0.0110258615	-2.4870871974	 1.88927082	 0.100208
99.6233	141.0855	173.6601	200.0863	255.6276	296.2284	366.1224	456.5526	529.6286	531.222	678.265	725.466	764.1971	775.0476	792.6266	868.0824	885.2512	908.8596	938.6906	956.3481	966.8891	1006.425	1046.8202	1061.788	1097.7007	1100.3945	1106.6125	1127.1718	1161.3116	1185.7815	1202.9715	1206.662	1229.5735	1254.7537	1271.1115	1274.1223	1285.3997	1298.1501	1360.9279	1383.1206	1404.6733	1471.8675	1483.0691	1485.3895	1492.2815	1503.2442	1505.6379	3034.0663	3038.854	3042.3547	3047.7459	3061.0165	3089.8754	3096.2377	3099.9278	3106.6981	3113.9977	3116.9992	3144.7541	3196.1247
CC1N2CC2C11CCC1	C[C@H]1N2C[C@H]2C21CCC2	
InChI=1S/C8H13N/c1-6-8(3-2-4-8)7-5-9(6)7/h6-7H,2-5H2,1H3	InChI=1S/C8H13N/c1-6-8(3-2-4-8)7-5-9(6)7/h6-7H,2-5H2,1H3/t6-,7+,9?/m1/s1
