21
gdb 7364	3.43259	1.01432	0.92968	3.4046	75.58	-0.2393	0.038	0.2772	1363.9676	0.186868	-366.31302	-366.302455	-366.301511	-366.349867	36.55	
C	-0.0765486376	 1.4767168892	-0.3480532721	-0.379755
C	 0.006160173	-0.0118600484	 0.0038056206	-0.180419
C	-1.3732555297	-0.6784661892	 0.052835942	-0.147899
C	-1.3510320108	-2.2008000401	 0.3206413549	-0.092416
C	-0.8061946774	-2.5596704804	 1.7099998083	-0.388127
C	-2.7867250607	-2.7203361584	 0.1956981095	 0.408022
N	-3.0609250172	-3.4221062274	-0.9432419631	-0.526284
O	-3.6354498889	-2.4962311162	 1.0384083296	-0.377289
H	 0.9163079666	 1.9365320025	-0.3736848224	 0.111031
H	-0.5396533812	 1.6273551668	-1.329606285	 0.113103
H	-0.6783221807	 2.0226266082	 0.3867714276	 0.118194
H	 0.6349245843	-0.5284364699	-0.734279033	 0.089716
H	 0.5130700304	-0.1252685053	 0.968883591	 0.102825
H	-1.9943636054	-0.2047152519	 0.8226799541	 0.117137
H	-1.8837131857	-0.4987684849	-0.9032205673	 0.091796
H	-0.7238362614	-2.6760917705	-0.4463454079	 0.058281
H	 0.2076335915	-2.1775276228	 1.8525088615	 0.111722
H	-1.4573037342	-2.1398633638	 2.4810321946	 0.142311
H	-0.7776111274	-3.6446766694	 1.8520095248	 0.113763
H	-2.35665232	-3.6455564665	-1.6230344557	 0.256207
H	-3.9953886673	-3.7734037314	-1.0757367719	 0.258082
24.1315	70.8886	102.9239	105.909	134.1193	219.1943	247.3715	253.8341	304.2576	319.5407	365.1278	507.5214	591.4234	619.9542	745.0715	767.8134	799.772	862.6729	887.575	938.7362	1004.2691	1028.1423	1054.915	1075.8991	1126.782	1131.3932	1192.4588	1248.0094	1277.4699	1313.774	1330.3354	1350.6936	1389.095	1402.5825	1405.5736	1414.1589	1482.4146	1494.3727	1494.7958	1499.2794	1504.5798	1511.7186	1614.1091	1791.6344	3004.2812	3012.3928	3016.7245	3030.0381	3044.2458	3052.7604	3071.2225	3098.5026	3102.3165	3110.7375	3131.3447	3602.0759	3742.492
CCCC(C)C(N)=O	CCC[C@@H](C)C(=O)N	
InChI=1S/C6H13NO/c1-3-4-5(2)6(7)8/h5H,3-4H2,1-2H3,(H2,7,8)	InChI=1S/C6H13NO/c1-3-4-5(2)6(7)8/h5H,3-4H2,1-2H3,(H2,7,8)/t5-/m1/s1
