13
gdb 130663	4.19634	1.50536	1.14756	7.2223	67.49	-0.2452	-0.0772	0.168	981.1532	0.090557	-448.895086	-448.888444	-448.8875	-448.926371	24.838	
O	-0.0449462549	 0.088390971	-0.3197027224	-0.289736
C	 0.0442307495	 1.2363433517	 0.0099190343	 0.389893
N	-1.1862036448	 1.9683692464	 0.3401488082	-0.186129
N	-1.2455177778	 3.2168026243	 0.201845573	-0.055413
N	-0.088157746	 3.7990160093	-0.2401216529	-0.036018
C	 0.4525106362	 5.1653967762	-0.0320145091	-0.162448
C	 1.8677682151	 4.4875615896	 0.0653256484	-0.366905
C	 1.1122416468	 3.1733008404	-0.0210827632	 0.440474
N	 1.2678843275	 1.9210759358	 0.1759591383	-0.363515
H	 0.2779147675	 5.8315000893	-0.8772226259	 0.14977
H	 0.103598156	 5.6192828768	 0.8967836998	 0.156875
H	 2.5383243455	 4.6861808998	-0.7716683477	 0.160155
H	 2.3960443793	 4.6431976394	 1.0070699692	 0.162997
109.2427	171.8294	211.891	365.9456	444.881	509.0274	560.9713	581.7728	645.2209	710.4378	791.0832	816.541	859.6045	897.3745	938.2576	1013.2814	1055.49	1132.7317	1147.0033	1181.2277	1195.304	1245.1746	1260.2803	1360.1637	1460.068	1505.0206	1521.3711	1714.5614	1850.8159	3089.7138	3096.2075	3147.5346	3159.9
O=C1N=NN2CCC2=N1	O=C1[N][N]N2CC[C]2[N]1	
InChI=1S/C4H4N4O/c9-4-5-3-1-2-8(3)7-6-4/h1-2H2	InChI=1S/C4H4N4O/c9-4-5-3-1-2-8(3)7-6-4/h1-2H2
