22
gdb 14303	3.36049	1.54393	1.50147	0.1618	81.03	-0.254	0.0767	0.3307	1014.4169	0.201904	-313.077716	-313.069599	-313.068655	-313.109955	32.031	
C	-0.130393324	 1.5590903431	-0.0108101571	-0.415218
C	 0.0403211937	 0.0568320256	 0.0317373296	 0.005588
C	 1.3171481613	-0.6700498091	-0.332410339	-0.058451
C	 2.6379492585	 0.0996037675	-0.3545783937	-0.246865
C	 3.1177084189	 0.1448621234	 1.1210664177	 0.077633
C	 4.0324247605	 1.3209038004	 1.4585202788	-0.407862
C	 1.8173804454	 0.0720237581	 1.9658064572	-0.246866
C	 0.8098554974	-0.6870885898	 1.1020879773	-0.05845
H	 0.7618167061	 2.1012198796	 0.3112775511	 0.118526
H	-0.3647641869	 1.8942611049	-1.0276059304	 0.114355
H	-0.9544666173	 1.8744541105	 0.6392593416	 0.114353
H	-0.8558235669	-0.4697306738	-0.2914231633	 0.076804
H	 1.2312291911	-1.5506831878	-0.9599929862	 0.074985
H	 3.3727388604	-0.3939202948	-0.9978881303	 0.093727
H	 2.5149860674	 1.1152655129	-0.7515870074	 0.093911
H	 3.668999449	-0.7870678391	 1.3049440941	 0.069586
H	 3.5217287969	 2.276736694	 1.2892699806	 0.110939
H	 4.3477099834	 1.295562644	 2.5073549746	 0.11034
H	 4.9370957965	 1.3153614632	 0.8407494554	 0.11034
H	 1.9881556193	-0.4404704351	 2.9173919632	 0.093727
H	 1.4646222919	 1.0799609061	 2.2186482944	 0.093912
H	 0.3551169274	-1.5801082438	 1.5174024317	 0.074985
70.4638	158.0877	234.2874	259.1168	265.1119	305.0463	415.7912	433.4313	513.8587	558.1946	681.0384	753.2046	758.6133	819.5495	876.8388	878.5001	929.8154	935.5136	963.4357	980.1896	1025.8365	1053.3478	1061.7831	1094.5583	1110.8281	1138.0166	1154.7138	1161.0059	1195.9139	1232.237	1257.4219	1289.2113	1302.1177	1333.6513	1358.9489	1359.16	1372.3375	1407.4997	1413.999	1435.1534	1484.2148	1495.5968	1496.3345	1497.9817	1512.0397	1512.0711	3005.3767	3020.572	3024.0273	3028.2152	3032.674	3074.5588	3076.4194	3084.1665	3087.9567	3092.2002	3109.2471	3125.8896	3153.3792	3164.9863
CC1C2CC(C)CC12	C[C@H]1[C@H]2C[C@@H](C)C[C@@H]12	
InChI=1S/C8H14/c1-5-3-7-6(2)8(7)4-5/h5-8H,3-4H2,1-2H3	InChI=1S/C8H14/c1-5-3-7-6(2)8(7)4-5/h5-8H,3-4H2,1-2H3/t5-,6+,7-,8+
