21
gdb 85166	2.30814	1.33478	0.96089	2.7286	83.27	-0.232	-0.0149	0.2171	1295.7572	0.181396	-387.089284	-387.08005	-387.079106	-387.124013	34.589	
C	-0.3254068795	 1.4754901334	-0.0052731405	-0.394461
C	 0.0230922907	-0.0092828648	 0.0206935121	-0.023907
C	 1.200757938	-0.3933228128	-0.931895342	-0.351851
C	 2.1037828738	-0.4588828556	 0.3104179635	 0.381651
O	 3.2858662714	-0.3884375675	 0.4840092907	-0.298254
C	 0.8867371437	-0.4717209304	 1.2578549344	-0.111779
C	 0.9351098621	 0.3105613146	 2.5397381143	 0.026177
C	-0.0513039607	 0.0254701804	 3.6504971162	-0.279062
C	 1.3977969415	-0.3529812779	 3.8131959268	-0.266761
H	 0.569527418	 2.101200153	 0.0917133941	 0.119827
H	-0.8098479311	 1.7415499493	-0.9504178874	 0.116369
H	-1.0059627744	 1.7394086107	 0.8100909445	 0.123979
H	-0.8800139224	-0.6067902791	-0.1226550546	 0.07401
H	 1.0854144563	-1.3779669373	-1.3965305994	 0.125692
H	 1.4903321904	 0.3257769678	-1.7029652633	 0.123494
H	 0.6524706961	-1.5228598487	 1.476852604	 0.093484
H	 1.2287711478	 1.3494802226	 2.4243059626	 0.087279
H	-0.4341892732	 0.8626239717	 4.223534986	 0.113088
H	-0.7713884962	-0.7715092901	 3.4959751314	 0.10931
H	 1.6593004976	-1.4047899376	 3.7695579732	 0.115208
H	 2.0101347602	 0.2257117183	 4.4951543135	 0.116506
53.5071	64.6722	126.4172	169.4696	244.0091	278.6074	317.0405	368.1671	428.4411	461.8103	568.072	700.0899	713.9761	779.8035	802.7042	834.5517	873.4169	881.0645	909.0307	948.3256	989.2229	1015.1658	1035.513	1059.0087	1076.3478	1084.3107	1091.8143	1132.9197	1144.0884	1196.8581	1202.2379	1208.3846	1231.7995	1234.6221	1269.5629	1288.3285	1364.5933	1413.2631	1421.6706	1445.4899	1471.4185	1496.7376	1497.7532	1504.8109	1885.9524	3014.7266	3028.3821	3054.2831	3073.59	3096.701	3104.9037	3111.9566	3130.2805	3137.9116	3151.0951	3209.1907	3225.53
CC1CC(=O)C1C1CC1	C[C@H]1CC(=O)[C@H]1C1CC1	
InChI=1S/C8H12O/c1-5-4-7(9)8(5)6-2-3-6/h5-6,8H,2-4H2,1H3	InChI=1S/C8H12O/c1-5-4-7(9)8(5)6-2-3-6/h5-6,8H,2-4H2,1H3/t5-,8+/m0/s1
