16
gdb 125123	2.29193	1.88549	1.04104	2.9742	77.46	-0.1996	-0.027	0.1726	1087.1071	0.125319	-434.083674	-434.07517	-434.074226	-434.117761	31.328	
C	-0.0643271586	 1.5112284941	-0.0224157339	-0.493625
C	-0.0164633538	 0.0123429436	-0.0404017929	 0.083746
C	-0.0526166595	-0.7421150702	-1.1710513329	 0.394241
O	-0.1353789795	-0.3075995621	-2.4490351636	-0.421095
N	-0.0056425267	-2.1081192534	-1.1238956351	-0.278975
N	 0.0785908932	-2.8236103967	 0.0116807147	-0.197271
C	 0.1157875645	-2.1476796169	 1.1134697584	-0.050259
C	 0.0747382061	-0.6866938469	 1.2330925347	 0.214816
N	 0.1130699814	-0.0272305717	 2.344777139	-0.555079
H	 0.8261441445	 1.9129651406	 0.4723742615	 0.155278
H	-0.1336325652	 1.9674195345	-1.0168689755	 0.082574
H	-0.9198493256	 1.855898085	 0.5678498583	 0.155346
H	-0.1664346407	 0.6550430454	-2.4484041462	 0.3114
H	-0.0343759299	-2.6373114989	-1.9799750245	 0.279662
H	 0.1838563299	-2.7433692515	 2.0204914572	 0.119169
H	 0.1764794899	-0.6714374247	 3.1353868009	 0.200071
21.7732	119.2043	186.4857	255.4148	302.2199	332.7285	349.9821	412.679	490.4351	512.0455	560.7133	570.8405	654.5966	679.2324	755.7016	830.0699	858.9776	931.961	937.2167	1052.5169	1093.7299	1116.6717	1182.5809	1220.3371	1253.3409	1359.4143	1382.5511	1416.5472	1426.5196	1451.7233	1487.4733	1539.947	1615.0653	1661.4089	1692.4687	3022.1272	3088.7342	3092.4733	3162.7983	3445.8845	3656.6689	3825.4132
CC1=C(O)NN=CC1=N	CC1=C(C=NN[C@H]1O)[NH]	
InChI=1S/C5H7N3O/c1-3-4(6)2-7-8-5(3)9/h2H,1H3,(H3,6,8,9)	InChI=1S/C5H8N3O/c1-3-4(6)2-7-8-5(3)9/h2,5-6,8-9H,1H3/t5-/m0/s1
