21
gdb 91128	2.72221	1.66772	1.42975	1.6774	80.97	-0.2396	0.0624	0.302	1024.3266	0.184303	-387.033064	-387.025489	-387.024545	-387.064839	30.89	
C	 0.1934155523	 1.6012203905	-0.1704108543	-0.422055
C	 0.0906696644	 0.0922967173	 0.008674752	 0.052993
C	 0.8708435921	-0.8666857833	-0.9498617539	-0.269918
C	 1.3173765808	-1.7301953551	 0.2708662202	-0.034133
C	 2.7484966294	-1.5284667938	 0.8725500816	-0.078834
C	 3.6777199807	-0.515808338	 0.1978464962	-0.096502
O	 2.9655910463	 0.5923658292	 0.8041054611	-0.293457
C	 2.2042663398	-0.304155838	 1.6552306191	 0.107325
C	 0.7422401653	-0.6258403968	 1.2229464454	-0.062443
H	 1.2345163304	 1.9272757055	-0.1711997139	 0.144535
H	-0.2722859504	 1.9087218764	-1.1141501036	 0.104494
H	-0.3285966536	 2.1265181245	 0.6380105949	 0.105773
H	-0.9677905087	-0.1942622664	-0.0017137666	 0.06994
H	 0.2545436989	-1.3946845483	-1.6817512845	 0.094217
H	 1.6862269105	-0.38022652	-1.4895357408	 0.10568
H	 0.9442571488	-2.754642481	 0.283327374	 0.066075
H	 3.1917736256	-2.4033975755	 1.3474061232	 0.073144
H	 4.713331046	-0.5607777811	 0.5605685452	 0.098974
H	 3.6886556038	-0.4607953264	-0.8963520225	 0.104634
H	 2.386297945	-0.1017698297	 2.7154775854	 0.072551
H	 0.0975231924	-0.8642569103	 2.0729317519	 0.057007
104.0219	187.3712	227.5144	283.7164	308.3826	366.7255	447.8016	567.4606	596.2544	691.8554	739.4728	788.8149	813.4239	859.2311	863.2982	896.2808	922.5942	946.3746	963.8759	974.7815	1007.1623	1030.4671	1054.886	1100.4781	1111.9582	1130.0475	1134.3029	1156.6544	1181.3403	1204.8201	1214.2085	1226.6098	1252.0429	1267.4603	1290.0684	1315.2507	1325.4076	1331.2922	1360.1216	1373.9538	1406.2001	1485.7359	1492.6173	1512.6016	1527.9128	3009.5747	3021.4729	3029.5016	3048.5296	3060.9411	3064.5318	3072.5879	3081.786	3095.4709	3112.4713	3117.5964	3142.5655
CC1CC2C3COC3C12	C[C@H]1C[C@H]2[C@H]3CO[C@H]3[C@@H]12	
InChI=1S/C8H12O/c1-4-2-5-6-3-9-8(6)7(4)5/h4-8H,2-3H2,1H3	InChI=1S/C8H12O/c1-4-2-5-6-3-9-8(6)7(4)5/h4-8H,2-3H2,1H3/t4-,5-,6+,7-,8+/m0/s1
