19
gdb 99630	2.69482	1.10058	0.89173	1.5934	77.47	-0.2605	0.0377	0.2982	1347.9623	0.156099	-422.963459	-422.953423	-422.952479	-422.999024	36.313	
C	-0.165492574	 1.4645476997	-0.2420466703	-0.43465
C	-0.1289457161	 0.0041258371	 0.1262569323	 0.063686
O	 1.1085234432	-0.7109713111	-0.0175402841	-0.249342
C	 0.5605376077	-0.575906634	 1.290310002	 0.06374
C	 1.3565283761	 0.1692524309	 2.3621616634	-0.229667
C	 2.1124441571	-0.859622575	 3.2507736937	-0.058458
O	 2.8033523662	-0.2533520782	 4.3152675385	-0.423129
C	 2.325739695	 1.1406707988	 1.8626228812	 0.301805
C	 3.2022723997	 1.9043278873	 1.5518474108	-0.443431
H	 0.6898853313	 2.0092703275	 0.1564711526	 0.147259
H	-0.1693724434	 1.5738405079	-1.3317256704	 0.129275
H	-1.0861124567	 1.919889475	 0.1398242374	 0.120324
H	-0.9873945211	-0.5656210311	-0.2384304504	 0.090038
H	 0.1351949273	-1.5025714169	 1.6859559881	 0.090023
H	 0.642429965	 0.68833259	 3.0172741903	 0.121359
H	 1.3815333974	-1.5381214962	 3.7020944518	 0.111423
H	 2.7779917077	-1.4550097834	 2.6071798423	 0.109591
H	 3.4191992809	 0.381256663	 3.9285054729	 0.286381
H	 3.9466613168	 2.5919415685	 1.2330840378	 0.203772
31.5009	119.3777	138.4442	155.6311	174.612	206.1157	246.0793	328.7919	387.1707	404.8617	422.7996	484.3269	568.9687	633.8422	663.8356	679.9801	776.8936	815.3203	848.5833	933.8284	1002.172	1016.4003	1047.147	1086.0852	1097.9323	1120.3513	1172.6074	1184.0327	1205.4165	1268.8236	1305.5538	1356.3363	1384.2402	1395.0042	1418.3831	1433.8531	1468.298	1494.5628	1506.3319	1510.1691	2225.8164	2990.0432	3014.2925	3039.7892	3060.4306	3077.3012	3082.306	3096.96	3159.499	3500.2394	3778.3012
CC1OC1C(CO)C#C	C[C@H]1O[C@H]1[C@@H](CO)C#C	
InChI=1S/C7H10O2/c1-3-6(4-8)7-5(2)9-7/h1,5-8H,4H2,2H3	InChI=1S/C7H10O2/c1-3-6(4-8)7-5(2)9-7/h1,5-8H,4H2,2H3/t5-,6-,7-/m1/s1
