22
gdb 64318	2.53967	1.43592	1.17796	2.2085	82.62	-0.2399	0.0193	0.2592	1163.1441	0.194768	-404.362531	-404.353364	-404.35242	-404.396139	35.364	
C	-0.0744383334	 1.5026289535	 0.3147835885	-0.415315
C	-0.0322106216	-0.0047312049	-0.0035577082	 0.228407
C	-1.4495196485	-0.5910220862	 0.1125693808	-0.415526
C	 0.559140893	-0.1883358244	-1.4153647427	-0.221935
C	 0.6459302842	-1.6244097439	-1.9455469085	-0.168465
N	 1.4811058011	-2.5930127406	-1.2546554058	-0.242558
C	 1.5390590977	-2.7519285208	-0.0074614813	 0.112304
O	 0.9677138257	-2.0790245622	 1.0328037151	-0.235957
C	 0.9016694134	-0.6497329346	 1.0305651554	-0.071518
H	 0.9227088042	 1.9531004011	 0.2558621612	 0.113123
H	-0.7182638169	 2.0282433051	-0.397581364	 0.117555
H	-0.4695454769	 1.6873301539	 1.3196910552	 0.112609
H	-2.1102471614	-0.1633859053	-0.6491900145	 0.110424
H	-1.4549853596	-1.6772442503	-0.0019411649	 0.129581
H	-1.8810303279	-0.3637733472	 1.0934901278	 0.111191
H	-0.0432970814	 0.3860397872	-2.1314317063	 0.093102
H	 1.564029178	 0.2546586106	-1.4334755325	 0.095881
H	-0.3634194325	-2.0543438687	-2.0091559916	 0.116837
H	 1.007622828	-1.5759319169	-2.9788254396	 0.106415
H	 2.0973342047	-3.6022956037	 0.3882240607	 0.114208
H	 1.9184418972	-0.2528427249	 0.9020050579	 0.10081
H	 0.566153133	-0.4020269068	 2.042115457	 0.108828
55.3953	162.7122	210.307	243.5923	257.8119	264.0211	295.5118	356.0452	402.8123	412.3135	435.8421	507.2917	575.379	706.7517	781.9723	826.9909	875.1008	912.8704	949.2903	955.2421	969.4146	976.8536	995.7402	1043.2989	1051.7396	1075.0652	1157.1466	1185.159	1196.862	1248.4991	1283.1579	1323.5207	1341.2416	1369.5637	1393.44	1401.214	1407.1739	1430.9989	1437.0201	1473.2474	1480.1212	1484.9564	1493.23	1497.4354	1504.7347	1515.9045	1761.2753	3004.6423	3010.1525	3012.7838	3026.266	3035.4186	3048.8171	3054.0498	3082.0858	3092.9614	3096.1772	3101.3569	3121.0018	3122.4021
CC1(C)CCN=COC1	CC1(C)CCN=COC1	
InChI=1S/C7H13NO/c1-7(2)3-4-8-6-9-5-7/h6H,3-5H2,1-2H3	InChI=1S/C7H13NO/c1-7(2)3-4-8-6-9-5-7/h6H,3-5H2,1-2H3
