22
gdb 40626	3.75681	1.15133	1.11543	0.9634	86.64	-0.2309	0.0946	0.3255	1218.4956	0.197055	-367.169827	-367.162194	-367.16125	-367.202018	31.134	
C	 1.3228840282	 0.1086325539	-0.3334060738	-0.227607
C	 0.7479945272	-1.1431295841	-0.8995919648	-0.227601
N	-0.0664452662	-0.2547396725	-0.0780306291	-0.071734
C	-0.3697498557	-0.7208376494	 1.2603234558	 0.087671
C	-0.9938807484	 0.3701522166	 2.1841915398	-0.034735
C	-2.3328029818	 0.1013647867	 1.4347970784	-0.22376
C	-1.7867983321	-1.3572027565	 1.402905767	-0.034728
C	-1.7951177862	-1.7390425818	 2.8947294106	-0.217665
C	-1.1897304191	-0.4202213538	 3.4912352407	-0.217665
H	 2.0354029723	 0.0015318969	 0.4834868462	 0.108338
H	 1.4779420564	 0.9812830169	-0.9614917052	 0.115246
H	 0.4749159692	-1.2026871386	-1.9493219536	 0.115246
H	 1.0779026532	-2.0833172061	-0.4595081885	 0.108337
H	 0.4664243695	-1.3004135938	 1.693098839	 0.036603
H	-0.5576857496	 1.3673236779	 2.253709528	 0.056656
H	-3.2658174428	 0.2847225982	 1.976315127	 0.078575
H	-2.3556804384	 0.5584016633	 0.4475545599	 0.116791
H	-2.1477310112	-2.0965564545	 0.6869905701	 0.056654
H	-2.8043579876	-1.9441626454	 3.2625012172	 0.095776
H	-1.1766018078	-2.6166842937	 3.1063738207	 0.091913
H	-0.2481741927	-0.5941320477	 4.0211761269	 0.091913
H	-1.8732954864	 0.0841284974	 4.1799049077	 0.095776
82.1028	170.1221	173.6747	294.1094	342.585	412.3093	458.3826	493.9495	649.5652	781.2811	823.6762	831.0619	841.0058	879.5861	884.5757	905.5466	912.3588	919.597	944.8204	970.0375	1010.0263	1015.3903	1048.2374	1051.9903	1073.1688	1089.0284	1112.8741	1116.5114	1138.6327	1144.4426	1171.519	1193.0618	1214.6712	1229.6624	1248.9808	1261.712	1270.9187	1288.1874	1316.3361	1322.9872	1327.0234	1400.5639	1487.5807	1488.5248	1490.2566	1512.9487	1517.0497	2920.5792	3045.2426	3054.2693	3058.3678	3082.2127	3090.0524	3094.1454	3101.5303	3106.8541	3110.3211	3158.9254	3173.8829	3188.1389
C1CN1C1C2CC1CC2	C1CN1[C@H]1[C@H]2C[C@@H]1CC2	
InChI=1S/C8H13N/c1-2-7-5-6(1)8(7)9-3-4-9/h6-8H,1-5H2	InChI=1S/C8H13N/c1-2-7-5-6(1)8(7)9-3-4-9/h6-8H,1-5H2/t6-,7+,8+
