21
gdb 112756	2.43958	1.20851	0.93169	2.4107	78.76	-0.2521	0.0726	0.3247	1312.8968	0.181526	-424.190935	-424.181424	-424.18048	-424.225391	35.944	
O	-0.3628624127	 1.6395200498	 0.1276114344	-0.421333
C	-0.2541559133	 0.2763256533	 0.5116278246	-0.096202
C	-1.4192359457	-0.4703449452	-0.1052715609	-0.041497
C	-1.4190593655	-0.6588395066	-1.6513087354	-0.271953
C	-1.8659867194	-2.134061473	-1.4498805565	 0.084336
O	-1.2850697872	-3.1519603307	-2.2268753883	-0.43094
C	-1.4785853069	-2.0014691815	 0.0341312298	 0.294212
C	-0.4719367033	-2.8949783665	 0.7101369281	-0.329674
C	-1.9073945726	-2.857727855	 1.1825124159	-0.330045
H	 0.3849928449	 2.1177084424	 0.4974095658	 0.286206
H	 0.6930004556	-0.1638834989	 0.159375944	 0.078779
H	-0.27683596	 0.1693563108	 1.6095132343	 0.08283
H	-2.350701861	-0.0041841499	 0.2341286777	 0.081003
H	-2.0623298201	-0.008867196	-2.246585758	 0.106678
H	-0.401525571	-0.6092421528	-2.0557315936	 0.090839
H	-2.9468555161	-2.2549979533	-1.5762395484	 0.090416
H	-0.3284691031	-3.0528490921	-2.1671358418	 0.276015
H	-0.1459182635	-3.7766629757	 0.1665201509	 0.113153
H	 0.2892346915	-2.451154244	 1.3434367361	 0.110979
H	-2.1177300568	-2.3762541087	 2.1327887859	 0.10966
H	-2.5357281039	-3.7166324563	 0.9670497855	 0.116537
64.7643	94.8656	148.869	214.6453	218.1208	262.6003	292.1358	327.6833	372.2783	439.302	466.1152	543.2666	554.0928	730.1287	783.1542	814.2678	867.8885	892.7954	929.5781	944.6082	977.2029	1020.8471	1048.1597	1061.9538	1069.6088	1079.7378	1086.1221	1137.0484	1159.8646	1190.9105	1207.6738	1212.2084	1250.4442	1264.1064	1276.5804	1286.9388	1315.5845	1361.3704	1375.5178	1435.3576	1455.8566	1461.4703	1480.9594	1499.0333	1521.4703	2951.4989	2980.8748	3043.7905	3050.6104	3059.1681	3118.4707	3120.1817	3121.5956	3196.362	3210.9554	3801.3929	3828.8251
OCC1CC(O)C11CC1	OC[C@H]1C[C@@H](O)C21CC2	
InChI=1S/C7H12O2/c8-4-5-3-6(9)7(5)1-2-7/h5-6,8-9H,1-4H2	InChI=1S/C7H12O2/c8-4-5-3-6(9)7(5)1-2-7/h5-6,8-9H,1-4H2/t5-,6-/m1/s1
