19
gdb 17312	2.57034	2.47896	1.68863	1.4788	75.2	-0.2138	0.0708	0.2846	872.7306	0.165132	-327.836555	-327.828799	-327.827854	-327.868054	30.364	
C	-0.0345491741	 1.6376814974	 0.0296371322	-0.444415
C	 0.1198330349	 0.1170155304	 0.0685135682	-0.046081
C	 1.3007882872	-0.7489935033	-0.3009480099	-0.156607
C	 2.6121867092	-0.3802787456	 0.4105473116	-0.031573
C	 2.5617962799	 0.7421047882	 1.3731798148	-0.25723
N	 2.0091544387	-0.5650786656	 1.7775463439	-0.179616
C	 0.6819999065	-0.8579104432	 1.085283954	 0.329362
C	-0.1274333181	-1.9315146798	 1.7465856829	-0.468188
H	 0.8360145205	 2.1378297899	-0.4009670729	 0.132021
H	-0.8935810365	 1.8982422278	-0.5965342615	 0.112644
H	-0.2203484456	 2.0648214348	 1.0206915544	 0.128272
H	-0.7736889347	-0.3643980413	-0.3294975723	 0.092645
H	 1.2773945315	-1.4569311846	-1.120703938	 0.087101
H	 3.5463292631	-0.8738092507	 0.160354849	 0.096868
H	 3.4885245915	 0.9555446909	 1.9011960775	 0.118231
H	 1.9227518237	 1.6010252252	 1.2450817362	 0.123431
H	-0.559482827	-1.5659572407	 2.686278906	 0.122771
H	-0.9473687502	-2.262448629	 1.1021024327	 0.112853
H	 0.4999221898	-2.7956980908	 1.986694821	 0.127511
128.6781	188.5913	205.9057	226.7235	293.0874	318.7181	407.341	497.4425	565.2057	666.705	683.008	715.3799	754.0067	831.9438	899.2984	919.5587	925.3278	956.8987	996.3371	1042.184	1057.176	1080.4133	1096.1491	1105.5318	1115.5942	1131.7869	1162.6141	1208.38	1236.0372	1273.4567	1352.58	1355.688	1412.6375	1413.4111	1469.8896	1474.7202	1495.5954	1498.6661	1504.9975	1515.5527	3025.5098	3035.3323	3087.1539	3088.8606	3103.9602	3111.4953	3117.5039	3127.6658	3153.7173	3181.0833	3268.8948
CC1C2C3CN3C12C	C[C@H]1[C@H]2[C@H]3CN3[C@@]12C	
InChI=1S/C7H11N/c1-4-6-5-3-8(5)7(4,6)2/h4-6H,3H2,1-2H3	InChI=1S/C7H11N/c1-4-6-5-3-8(5)7(4,6)2/h4-6H,3H2,1-2H3/t4-,5+,6-,7-,8?/m0/s1
