18
gdb 14626	12.22695	0.54032	0.53635	0.0024	71.24	-0.2525	-0.0305	0.2221	1942.2344	0.150425	-384.962582	-384.952966	-384.952022	-384.999032	31.61	
O	-0.7195179524	 0.9316732837	 0.8534426883	-0.233609
C	-0.0167896297	 1.0521930997	-0.1159665022	 0.159293
C	 1.3057454682	 1.7844549953	-0.1451784451	-0.275907
C	 1.3151819948	 2.9051546965	-1.1993124547	-0.189743
C	 2.6793659313	 3.5931931404	-1.3192320118	-0.189712
C	 2.6887912943	 4.7138996273	-2.3734268167	-0.275894
C	 4.0114598553	 5.4458992729	-2.40238473	 0.15928
O	 4.7149740354	 5.5651997607	-3.3713811816	-0.233608
H	-0.3178783613	 0.6163414834	-1.0985699103	 0.071471
H	 1.5130436089	 2.1710554854	 0.8570147969	 0.123571
H	 2.0851802771	 1.0498592118	-0.3960404365	 0.120671
H	 1.0282442906	 2.4921321249	-2.1753353851	 0.109318
H	 0.5511850149	 3.650328996	-0.9438028633	 0.114926
H	 2.9663097246	 4.0062271381	-0.3432158474	 0.109317
H	 3.4433703303	 2.8480404297	-1.5747687262	 0.114943
H	 2.4816712152	 4.3270187285	-3.3755589367	 0.123565
H	 1.9093678483	 5.4484853341	-2.1226572021	 0.120639
H	 4.3120104742	 5.8825595916	-1.4199747055	 0.071479
42.5464	51.1952	65.9624	113.7642	124.2114	149.5015	263.7829	310.5179	415.8361	502.2865	537.8291	737.358	777.6185	810.1764	879.1343	969.324	970.9649	1020.8892	1048.6709	1055.6795	1119.6449	1153.3452	1181.7077	1238.5217	1261.2801	1294.1975	1317.8845	1335.8351	1361.2263	1394.5745	1429.9083	1430.6612	1462.7921	1466.4315	1487.8332	1506.3816	1836.7305	1839.2377	2848.0934	2848.3628	3009.0066	3009.7964	3015.2275	3025.5199	3044.583	3066.6921	3096.8897	3099.3714
O=CCCCCC=O	O=CCCCCC=O	
InChI=1S/C6H10O2/c7-5-3-1-2-4-6-8/h5-6H,1-4H2	InChI=1S/C6H10O2/c7-5-3-1-2-4-6-8/h5-6H,1-4H2
