15
gdb 34272	3.8517	1.51238	1.22552	3.3128	78.61	-0.2331	-0.0622	0.1708	979.0841	0.111366	-379.491797	-379.484677	-379.483733	-379.522969	28.751	
C	 0.0902005363	-1.1260573128	 0.1561661354	-0.378146
C	 0.0195179018	 0.069239981	 0.0334702095	 0.165667
C	-0.0920766499	 1.4894590486	-0.0846961689	 0.178947
C	-1.358891597	 2.2306261587	 0.4299693825	-0.240336
N	-0.9786069623	 3.6451758199	 0.2140261388	-0.151429
C	-0.0343210441	 3.6029269865	-0.6357978762	 0.09764
N	 1.3284346436	 3.8376508177	-0.110984347	-0.343941
C	 1.3165568934	 2.2883508372	-0.2703422125	-0.05788
C	 0.2959534248	 2.2347451707	-1.3261451851	-0.199556
H	 0.1536965673	-2.1810377941	 0.2608562156	 0.193553
H	-2.2537441083	 1.8741047909	-0.1004717845	 0.121489
H	-1.530902298	 2.1147314783	 1.5039642038	 0.138958
H	 1.9633668951	 4.1153495172	-0.8689709425	 0.228708
H	 2.2494380852	 1.7461060686	-0.1543512135	 0.128241
H	 0.2987432419	 1.9321248817	-2.3650417854	 0.118085
144.0118	152.4042	290.0642	351.8873	455.5694	483.8161	503.6271	535.2546	598.5571	608.6126	644.687	658.7842	730.58	774.7574	832.2212	844.7397	887.8044	953.3288	980.4367	1001.9394	1025.4639	1087.9261	1101.698	1126.4744	1163.9758	1189.6166	1201.6982	1261.3369	1297.5017	1340.6603	1478.1833	1619.5711	2228.4266	3004.7219	3087.6216	3172.9222	3199.6082	3362.5193	3500.9963
C#CC12CN=C3NC1C23	C#C[C@@]12C[N][C]3N[C@@H]1[C@@H]23	
InChI=1S/C7H6N2/c1-2-7-3-8-6-4(7)5(7)9-6/h1,4-5H,3H2,(H,8,9)	InChI=1S/C7H6N2/c1-2-7-3-8-6-4(7)5(7)9-6/h1,4-5H,3H2,(H,8,9)/t4-,5-,7+/m1/s1
