16
gdb 45397	2.18258	1.77158	1.28975	1.9076	76.15	-0.2404	-0.0374	0.203	1025.2195	0.122671	-400.680572	-400.672452	-400.671508	-400.713589	30.581	
O	 0.0496127985	-0.0324864848	-0.4272828997	-0.27001
C	-0.0235233478	 1.1167445969	-0.1260843827	 0.339911
C	-1.131824911	 2.0804998535	 0.3248363808	-0.301789
N	-0.1341232686	 3.1768205676	 0.5067483568	-0.157718
C	 0.4903045493	 3.1568134027	 1.8731783869	-0.167517
C	 1.7182275187	 2.3568635692	 1.3736511083	-0.302241
C	 1.0078172263	 2.2844989094	-0.0100315348	 0.036308
C	 1.7326625518	 2.6365492422	-1.2002840653	 0.24221
C	 2.3397846167	 2.9063439624	-2.2028624311	-0.39023
H	-1.8427698154	 2.3047645018	-0.4786842116	 0.147466
H	-1.6951857307	 1.791285529	 1.2186221179	 0.132976
H	 0.7104485677	 4.1653029026	 2.2308839001	 0.121582
H	-0.1223565852	 2.6494334965	 2.6261831965	 0.1077
H	 2.6441870454	 2.9309256866	 1.3315993005	 0.133079
H	 1.9173370318	 1.3935939795	 1.8465571146	 0.128452
H	 2.8739142824	 3.1488742449	-3.0883650972	 0.199822
63.646	112.2395	157.692	197.6298	356.721	368.5313	468.4799	517.7546	524.3706	598.7691	614.1695	657.276	663.9947	738.134	795.2499	821.6393	888.3618	926.6735	964.4927	1015.0341	1038.7357	1040.3386	1120.0895	1164.9483	1185.1419	1211.517	1230.9262	1253.7355	1268.6619	1309.4158	1450.2061	1483.1403	1512.0746	1908.2977	2230.0676	3035.8692	3043.7856	3083.0799	3086.5323	3096.7999	3142.4911	3499.8366
O=C1CN2CCC12C#C	O=C1CN2CC[C@@]12C#C	
InChI=1S/C7H7NO/c1-2-7-3-4-8(7)5-6(7)9/h1H,3-5H2	InChI=1S/C7H7NO/c1-2-7-3-4-8(7)5-6(7)9/h1H,3-5H2/t7-/m0/s1
