16
gdb 93394	2.81352	1.6224	1.23326	4.4789	64.28	-0.264	-0.0114	0.2525	997.1302	0.126204	-475.025016	-475.017614	-475.01667	-475.057154	28.49	
O	 0.0736840026	 1.4350155383	-0.0330000697	-0.432523
C	 0.0374549359	 0.0279836291	-0.0114362956	 0.114972
C	 0.7991298608	-0.5531378104	 1.1797261688	-0.100167
O	 0.1188894212	-0.3953532036	 2.4416913097	-0.234226
C	-1.1464267429	-0.8546940393	 2.5709393798	 0.453863
O	-1.5967034094	-1.1183479812	 3.6512998591	-0.329447
C	-1.9633112589	-0.9422535457	 1.3097558653	-0.166149
N	-2.3098566191	 0.3827610079	 0.7429003825	-0.335169
C	-1.4046460431	-0.4972167225	 0.0032453132	-0.090104
H	-0.6981533612	 1.723638288	 0.4770289856	 0.297106
H	 0.5424977805	-0.3229643215	-0.9194746491	 0.093783
H	 0.9985844376	-1.62071375	 1.0169599533	 0.108751
H	 1.7490412261	-0.0311125725	 1.3043075835	 0.138
H	-2.7397075112	-1.6987989942	 1.3453970728	 0.123942
H	-3.2493748273	 0.3672130584	 0.3578591062	 0.253394
H	-1.7762230115	-0.9755285408	-0.8978687056	 0.103975
68.1294	178.701	217.8355	313.126	364.7177	397.09	477.6286	512.2453	520.3785	636.5595	738.4525	751.0693	801.6141	848.7164	886.8135	918.6973	939.2175	953.2865	1010.2293	1060.7212	1112.6583	1131.9082	1159.1005	1160.4878	1236.1676	1254.4678	1283.1233	1326.5874	1344.6724	1383.7555	1412.163	1435.076	1453.9618	1493.6594	1852.4879	3020.3992	3043.8416	3127.4652	3154.887	3177.9585	3526.1246	3710.8654
OC1COC(=O)C2NC12	O[C@H]1COC(=O)[C@H]2N[C@@H]12	
InChI=1S/C5H7NO3/c7-2-1-9-5(8)4-3(2)6-4/h2-4,6-7H,1H2	InChI=1S/C5H7NO3/c7-2-1-9-5(8)4-3(2)6-4/h2-4,6-7H,1H2/t2-,3-,4-/m0/s1
