20
gdb 73024	3.20296	1.30529	1.16143	1.2987	78.88	-0.2226	0.0869	0.3095	1148.279	0.170674	-403.076264	-403.067737	-403.066793	-403.109411	32.524	
C	-0.162553034	 1.4790133463	-0.0732028647	-0.486843
C	 0.0544225887	-0.0061771109	-0.0642555967	 0.319797
C	-0.7133216638	-0.9924278834	-0.9538387231	-0.308734
C	-0.9031210201	-1.8555294691	 0.3134151959	-0.142314
N	-0.1565034158	-0.8714551602	 1.1883353166	-0.212482
C	 1.1923551073	-0.6561602939	 0.6209093771	-0.065482
C	 2.1540633139	-1.6723803478	 0.0799140646	 0.056289
C	 2.3794184094	-2.9821268281	 0.7080122498	-0.182985
O	 1.7069881337	-2.8715648798	-0.5515329933	-0.231505
H	 0.2902240658	 1.9327748551	-0.9633044675	 0.121032
H	-1.23114277	 1.7203368446	-0.0828165889	 0.122253
H	 0.2829128805	 1.9461746569	 0.8099764389	 0.126222
H	-1.6479044762	-0.5732426157	-1.3330942415	 0.103146
H	-0.1580312078	-1.4322204095	-1.784618465	 0.117562
H	-1.9385767744	-1.8904109154	 0.6586363624	 0.103471
H	-0.4909012452	-2.8631267494	 0.2967263436	 0.123035
H	 1.7395937301	 0.0303938288	 1.2700176976	 0.095341
H	 3.0082706475	-1.2113083128	-0.4224952317	 0.096774
H	 3.364825103	-3.4427530372	 0.6693635346	 0.11842
H	 1.7497707576	-3.2814929086	 1.5438923013	 0.127003
73.6387	150.0245	178.2127	187.0486	256.0912	299.1151	330.9562	346.678	498.5079	613.7007	622.7134	767.0092	777.7588	784.4502	794.8345	875.5238	903.3546	943.3643	966.8334	980.4815	995.1725	1030.2577	1089.0677	1096.1174	1119.052	1142.9099	1169.4259	1171.9717	1181.364	1223.0887	1238.7764	1280.9153	1299.1653	1319.3249	1336.8941	1410.2396	1423.4915	1470.3756	1479.4178	1487.0497	1494.213	1509.5003	1526.7901	3024.5257	3068.6996	3073.3547	3077.8753	3085.2597	3090.266	3092.6522	3109.5599	3118.8586	3148.8335	3182.3399
CC12CCN1C2C1CO1	C[C@]12CCN1[C@H]2[C@H]1CO1	
InChI=1S/C7H11NO/c1-7-2-3-8(7)6(7)5-4-9-5/h5-6H,2-4H2,1H3	InChI=1S/C7H11NO/c1-7-2-3-8(7)6(7)5-4-9-5/h5-6H,2-4H2,1H3/t5-,6+,7-,8?/m1/s1
