20
gdb 116263	2.06407	1.39307	0.98596	2.9142	78.25	-0.2732	0.0306	0.3038	1255.907	0.172142	-403.176362	-403.167001	-403.166057	-403.212077	33.657	
O	-0.2375149319	 1.5526820073	 0.0654010058	-0.42474
C	-0.0025754766	 0.1539052978	 0.1452576775	-0.114503
C	-1.3437883952	-0.538741004	-0.0444296036	 0.035999
C	-2.0009216316	-0.3252562989	-1.4171094641	-0.205595
C	-3.1080296889	-1.4014692929	-1.496757147	-0.210406
C	-2.7034820645	-2.5138499083	-0.485796775	-0.223336
C	-1.3224327787	-2.0851356532	 0.0948783374	-0.180499
C	-0.216876614	-2.6885578286	-0.6554100355	 0.281003
N	 0.651567898	-3.1674684366	-1.2506014381	-0.34306
H	 0.6118244596	 2.0023190993	 0.0951226826	 0.290653
H	 0.7003679962	-0.1806581163	-0.632044465	 0.110675
H	 0.4289097774	-0.1218702204	 1.1215325007	 0.087606
H	-2.0226471629	-0.1686170608	 0.7349140674	 0.090829
H	-2.3760657397	 0.691968303	-1.5379845052	 0.116984
H	-1.2516661709	-0.4906399569	-2.2006755815	 0.114278
H	-4.0794052351	-0.9813810597	-1.2207634281	 0.10714
H	-3.2129930709	-1.7951430539	-2.510472732	 0.111904
H	-3.4199623267	-2.5692863459	 0.3381391153	 0.111444
H	-2.6567522298	-3.5060530836	-0.9381404259	 0.124318
H	-1.2126792439	-2.3958248474	 1.1386567743	 0.119305
18.4598	102.4236	120.9758	137.4214	206.937	233.9179	264.3915	392.2667	406.6604	470.9689	559.7829	655.409	730.1258	761.3628	799.02	873.4331	890.6445	897.5736	983.8046	1002.8554	1028.251	1036.301	1081.2434	1089.7636	1143.8676	1170.9729	1208.223	1216.5879	1252.4929	1253.3244	1278.9863	1305.0812	1323.0641	1327.6859	1340.2258	1364.3359	1385.9803	1464.9172	1488.9893	1494.8804	1513.384	1523.1644	2347.581	2965.5636	3008.3471	3028.5089	3044.3639	3056.4201	3062.1802	3073.9529	3096.2157	3119.5245	3124.9791	3833.771
OCC1CCCC1C#N	OC[C@H]1CCC[C@H]1C#N	
InChI=1S/C7H11NO/c8-4-6-2-1-3-7(6)5-9/h6-7,9H,1-3,5H2	InChI=1S/C7H11NO/c8-4-6-2-1-3-7(6)5-9/h6-7,9H,1-3,5H2/t6-,7+/m0/s1
