19
gdb 76047	2.46352	1.29194	1.08403	1.7703	82.34	-0.242	0.0395	0.2815	1202.0402	0.157229	-385.82041	-385.811194	-385.81025	-385.85445	34.107	
C	-0.1332566405	 1.5514158923	-0.0618934053	-0.415353
C	-0.0060122603	 0.0466041563	-0.007521051	-0.090523
C	 1.3501926199	-0.6471851827	-0.1898580342	-0.291744
C	 2.5553704495	 0.1090784563	-0.3546808148	 0.342482
C	 3.572952724	 0.7408683877	-0.4751658764	-0.465611
C	 0.6373063533	-0.6392461921	 1.14941689	 0.269079
C	 1.148470456	-0.0611100685	 2.4634846991	-0.138403
O	 0.6945689855	-1.2360628664	 3.1753775222	-0.27602
C	 0.1731454734	-1.8365279959	 1.9709740841	-0.140791
H	 0.751459158	 2.039823405	 0.3545881245	 0.133605
H	-0.2459123056	 1.8968632645	-1.0944624115	 0.12607
H	-1.0083712281	 1.8879635601	 0.504126379	 0.121172
H	-0.8310352104	-0.4967598715	-0.4639190729	 0.092911
H	 1.3252781975	-1.5908869777	-0.7296430555	 0.112177
H	 4.4714604979	 1.2942576839	-0.5921866269	 0.19748
H	 2.234754693	 0.0739336814	 2.5312780395	 0.115622
H	 0.6473034889	 0.8497205003	 2.8161226189	 0.102037
H	-0.914329439	-1.9846699345	 2.0221530046	 0.10155
H	 0.6567433669	-2.7957676584	 1.7436366466	 0.104262
82.7352	120.325	132.4816	177.7558	181.3643	218.578	336.2545	361.1512	427.6663	499.9085	574.2028	577.9729	637.9858	654.7731	765.5698	819.5468	866.6922	930.5555	957.6446	977.9958	1010.4424	1029.1741	1041.9575	1110.2761	1112.6173	1130.2654	1138.4908	1150.31	1163.9161	1209.3477	1297.653	1312.813	1350.7998	1378.7815	1416.9205	1467.1722	1490.6621	1503.013	1510.1861	1534.5601	2230.2665	2995.8962	3011.9639	3037.5145	3039.2012	3055.8973	3099.6739	3114.57	3128.65	3137.3008	3503.9005
CC1C(C#C)C11COC1	C[C@H]1[C@@H](C#C)C21COC2	
InChI=1S/C8H10O/c1-3-7-6(2)8(7)4-9-5-8/h1,6-7H,4-5H2,2H3	InChI=1S/C8H10O/c1-3-7-6(2)8(7)4-9-5-8/h1,6-7H,4-5H2,2H3/t6-,7+/m0/s1
