22
gdb 6541	2.63194	1.8273	1.57854	1.6738	77.01	-0.258	0.0784	0.3364	983.8126	0.197458	-350.198055	-350.188484	-350.18754	-350.231446	36.796	
C	-0.3220114953	 1.4940816607	-0.1122707427	-0.427866
C	-0.0287179341	-0.0140801079	-0.002193923	 0.203055
C	 0.9205947816	-0.2337189804	 1.1957904068	-0.411778
C	-1.3534912962	-0.7646276165	 0.2352066472	-0.417015
C	 0.6595606031	-0.5479227008	-1.2774526139	 0.429748
C	 0.9067509919	-2.0441389507	-1.3664747458	-0.473306
C	 0.6102486461	 0.1895312923	-2.5522725337	-0.239749
O	 1.7779842263	 0.2385321659	-1.7273603012	-0.285902
H	 0.5734129539	 2.0454948969	-0.4104463851	 0.133415
H	-1.1184701579	 1.7024730599	-0.8333367763	 0.106942
H	-0.6529476995	 1.8792121151	 0.8573231734	 0.106978
H	 0.4782259864	 0.1766430999	 2.1092675451	 0.107868
H	 1.1186613112	-1.2940152601	 1.377442207	 0.109791
H	 1.8782568978	 0.2673315635	 1.0257366535	 0.130333
H	-2.0224738225	-0.6733928441	-0.6277426679	 0.110684
H	-1.194888885	-1.8291743654	 0.4299218122	 0.114155
H	-1.8721901763	-0.3454159086	 1.1038419505	 0.112449
H	-0.0314908297	-2.599462285	-1.4571215196	 0.123038
H	 1.5193104426	-2.259512057	-2.2451397792	 0.126119
H	 1.4386939926	-2.420874423	-0.4885604249	 0.125878
H	 0.7243718187	-0.3615669	-3.485817297	 0.104255
H	 0.0641864342	 1.1245965853	-2.6417616251	 0.110909
54.0895	183.1021	199.9326	249.9711	263.4878	282.5115	304.111	324.4873	349.9751	376.4716	399.1313	434.6331	477.8807	521.4104	630.6015	796.4647	835.7556	907.6842	920.3119	936.3161	942.7019	961.7518	1009.726	1039.7121	1057.0486	1103.4889	1135.6895	1169.7457	1189.9262	1233.2307	1244.6312	1302.3152	1376.5214	1395.1433	1399.1054	1408.6643	1430.9371	1474.8994	1485.2714	1492.5956	1494.59	1497.4478	1507.6338	1508.8535	1524.381	1537.3943	3028.602	3034.0848	3040.1083	3048.5015	3088.1152	3094.1397	3098.12	3103.3199	3106.881	3112.6537	3117.6619	3122.7381	3126.6808	3180.5943
CC(C)(C)C1(C)CO1	CC(C)(C)[C@@]1(C)CO1	
InChI=1S/C7H14O/c1-6(2,3)7(4)5-8-7/h5H2,1-4H3	InChI=1S/C7H14O/c1-6(2,3)7(4)5-8-7/h5H2,1-4H3/t7-/m1/s1
