14
gdb 133497	3.4267	0.89216	0.84013	3.4609	51.85	-0.263	0.0451	0.308	1319.8432	0.097153	-601.555515	-601.546329	-601.545385	-601.591499	31.975	
N	-0.0994031889	 1.2813373963	 0.0306536666	-0.565142
C	-0.066960289	-0.0955704998	-0.120734651	 0.464785
O	 0.7129962119	-0.6629835828	-0.8607393422	-0.383985
N	-0.9523794369	-0.7695388871	 0.6964861531	-0.337163
C	-1.1046276611	-2.1947972217	 0.6029897843	-0.289833
C	-2.443938827	-2.5810406931	-0.009288385	 0.272082
F	-2.5838045188	-2.1049046546	-1.2499128675	-0.068553
F	-2.578347941	-3.9125863645	-0.054119379	-0.071723
F	-3.4637536973	-2.092541542	 0.7246391921	-0.095051
H	 0.4142987755	 1.7610806466	-0.6925224139	 0.266342
H	-0.9758865613	 1.7176885265	 0.2735263556	 0.249488
H	-1.5513824275	-0.262532939	 1.325844635	 0.249757
H	-0.3038017556	-2.5688254408	-0.0374844108	 0.178089
H	-1.035871293	-2.6801508841	 1.5825129928	 0.130905
24.2695	58.1337	71.7941	229.0221	242.787	292.6708	351.9532	369.2852	435.0615	503.8517	530.831	534.058	565.0578	660.9836	662.4727	777.2516	841.904	901.4953	999.3517	1097.4619	1178.2544	1190.5068	1204.8447	1274.0127	1315.0727	1342.1909	1413.61	1466.5266	1550.1726	1630.6299	1807.7083	3055.5419	3139.4738	3578.5776	3655.0416	3693.3163
NC(=O)NCC(F)(F)F	NC(=O)NCC(F)(F)F	
InChI=1S/C3H5F3N2O/c4-3(5,6)1-8-2(7)9/h1H2,(H3,7,8,9)	InChI=1S/C3H5F3N2O/c4-3(5,6)1-8-2(7)9/h1H2,(H3,7,8,9)
