19
gdb 82966	2.98385	1.81527	1.5244	0.9618	80.7	-0.2206	-0.0082	0.2124	945.9425	0.16042	-385.831524	-385.824427	-385.823483	-385.862645	29.18	
C	 0.2032202551	 1.5056392067	 0.24846902	-0.414327
C	 0.0193182556	 0.0178407981	 0.0218844973	-0.045781
C	 0.7857553032	-0.7196833514	-1.157573685	 0.110433
O	 2.2281105235	-0.5224991068	-1.1976952654	-0.325021
C	 2.5049917982	-1.7772544795	-0.4712378041	 0.121495
C	 3.0763459825	-1.5447734567	 0.9445864709	-0.266502
C	 1.9225407943	-0.7657417878	 1.5746213012	-0.127958
C	 0.7945629953	-0.9755126142	 0.8850631104	 0.102955
C	 0.9999393316	-1.9566137306	-0.2735353449	-0.141257
H	 1.2675623765	 1.7577229919	 0.230319772	 0.132613
H	-0.3034842302	 2.0860848286	-0.5298281829	 0.114861
H	-0.2080265411	 1.8155475109	 1.2148897773	 0.119743
H	-1.0398288183	-0.2440232823	-0.1072084403	 0.079317
H	 0.3394788474	-0.6919914826	-2.1563879663	 0.075882
H	 3.071336945	-2.4676020228	-1.1052377616	 0.068629
H	 3.3374885943	-2.5007468663	 1.4210250993	 0.104842
H	 3.9862346758	-0.9348700951	 0.9258910333	 0.116418
H	 2.0985990712	 0.0838699079	 2.2254126108	 0.094509
H	 0.4590839202	-2.8985066581	-0.333223462	 0.07915
147.7063	210.6125	212.7751	310.8442	349.6258	466.2579	535.4179	601.5241	644.7584	720.9773	798.283	813.54	832.2148	847.0776	873.6805	901.2995	911.3771	935.9325	954.2063	984.6353	991.2799	1023.3065	1061.9805	1073.8917	1128.2079	1150.6656	1161.0444	1195.346	1212.3764	1235.3545	1260.9376	1276.3452	1296.1332	1317.874	1339.2281	1360.8697	1403.4001	1459.833	1489.7487	1494.9204	1655.1143	3005.736	3014.1631	3033.6616	3054.2638	3061.9078	3071.9728	3098.0438	3114.3428	3135.7115	3185.907
CC1C2OC3CC=C1C23	C[C@H]1[C@H]2O[C@H]3C[CH][C]1[C@@H]23	
InChI=1S/C8H10O/c1-4-5-2-3-6-7(5)8(4)9-6/h2,4,6-8H,3H2,1H3	InChI=1S/C8H10O/c1-4-5-2-3-6-7(5)8(4)9-6/h2,4,6-8H,3H2,1H3/t4-,6+,7-,8-/m1/s1
