21
gdb 89657	2.88149	1.24917	1.05254	1.0176	91.38	-0.2241	0.042	0.2661	1244.9354	0.180449	-349.909792	-349.900218	-349.899274	-349.943519	36.944	
C	-0.144559602	 1.5686698686	 0.0385640689	-0.412761
C	 0.0730410075	 0.0604421145	-0.0006936094	-0.016242
C	 1.1814995618	-0.5288880707	-0.9367727743	-0.31527
C	 1.798203535	-1.262944701	 0.2676718025	 0.175949
C	 2.1731237856	-0.2379255236	 1.3195300893	-0.375409
C	 0.7314057391	-0.6340316495	 1.2080123097	 0.285728
C	-0.0228836605	-1.2748018732	 2.3362712765	-0.492799
C	 2.3200209481	-2.5852037049	 0.2563705397	 0.159916
C	 2.7436404165	-3.7128672149	 0.2340995841	-0.41486
H	 0.7833548127	 2.1069617336	 0.2573498952	 0.114931
H	-0.5189140812	 1.9333906179	-0.9242722349	 0.116058
H	-0.8779945228	 1.8429828753	 0.8048169687	 0.115596
H	-0.8790696094	-0.4352603359	-0.2188424725	 0.074845
H	 0.7846937368	-1.2048171012	-1.6958169746	 0.112371
H	 1.843868597	 0.19659071	-1.4213517747	 0.095401
H	 2.6960492174	-0.6398894816	 2.1809989701	 0.121637
H	 2.5253244057	 0.7411599419	 1.0026103886	 0.106983
H	-0.4192336997	-0.5212923126	 3.0279622129	 0.120769
H	-0.868787144	-1.8635415737	 1.9641391328	 0.119344
H	 0.6240951972	-1.9454653235	 2.910548092	 0.127694
H	 3.1257418192	-4.7029432454	 0.2156633294	 0.180118
105.8219	119.1509	170.6989	176.8455	218.3539	254.0465	302.4516	330.4703	423.1994	445.1938	524.3424	541.8431	554.7043	589.3294	642.8282	688.1629	698.3849	785.2391	847.383	894.1513	935.8222	962.6392	973.6758	1035.3557	1068.3182	1084.8469	1093.8975	1117.8452	1153.9612	1176.244	1235.2197	1242.857	1264.0062	1327.3375	1357.8556	1397.9304	1410.2944	1424.9349	1481.5716	1484.6132	1495.155	1495.7693	1498.2478	1507.4825	2225.4279	3021.0701	3028.7816	3041.5049	3044.3236	3080.1298	3093.3079	3099.742	3100.8339	3108.1482	3118.7995	3203.186	3504.2085
CC1CC2(CC12C)C#C	C[C@H]1C[C@]2(C[C@@]12C)C#C	
InChI=1S/C9H12/c1-4-9-5-7(2)8(9,3)6-9/h1,7H,5-6H2,2-3H3	InChI=1S/C9H12/c1-4-9-5-7(2)8(9,3)6-9/h1,7H,5-6H2,2-3H3/t7-,8-,9-/m0/s1
