25
gdb 60533	2.39576	1.15395	0.97636	1.7665	88.06	-0.2601	0.0724	0.3325	1379.7392	0.22601	-389.478767	-389.467835	-389.466891	-389.514468	41.384	
C	-0.066003695	 1.8976379919	-0.3849432348	-0.422582
C	-0.1385367652	 0.3718297976	-0.1945912413	-0.000072
C	-1.6013320257	-0.0286993102	-0.1069106431	 0.079947
C	-2.1250496376	-0.9500454557	 0.9093898033	-0.182168
O	-2.3097972949	 0.4589463353	 1.0398495167	-0.244331
C	 0.6675520481	-0.459758498	-1.246955584	 0.259459
C	 2.1637520398	-0.1021934325	-1.1447162795	-0.411621
C	 0.516349801	-1.9639299733	-0.942765702	-0.407219
C	 0.1938210262	-0.1951844503	-2.690398744	-0.412423
H	 0.9613889781	 2.2677433539	-0.3506182897	 0.114122
H	-0.5063303767	 2.2098263599	-1.3376804979	 0.114599
H	-0.6274800368	 2.3880916601	 0.4146585437	 0.135618
H	 0.3005265027	 0.1430141401	 0.7864796154	 0.070572
H	-2.1738006231	 0.068724015	-1.0312086677	 0.09058
H	-3.0287289403	-1.5262078168	 0.7121323559	 0.110874
H	-1.4403589297	-1.3994208634	 1.6278361779	 0.11106
H	 2.5392499026	-0.2541647957	-0.1264853051	 0.108206
H	 2.7531974731	-0.7380017004	-1.814228989	 0.108012
H	 2.3602336056	 0.9364528588	-1.4246144474	 0.114427
H	-0.5161117101	-2.3043319377	-1.0626060688	 0.112995
H	 1.1408509438	-2.55562391	-1.6207133486	 0.107324
H	 0.8293957563	-2.1955875952	 0.0815596314	 0.106158
H	 0.3193539892	 0.8531613028	-2.9764563488	 0.115144
H	 0.7793745098	-0.7972314567	-3.3937155522	 0.110223
H	-0.8582092511	-0.4606465696	-2.8359690304	 0.111099
38.6658	93.9355	179.4589	201.816	213.5569	255.1087	262.6084	284.6703	299.5342	313.0168	346.8529	365.6962	401.2264	439.3247	507.8158	526.5219	731.3644	809.9274	860.2889	881.1671	932.7956	934.8216	953.5754	956.3875	965.5647	1011.1158	1025.7177	1064.5393	1100.813	1117.3253	1155.9373	1175.6261	1183.3878	1219.2176	1247.1328	1266.0731	1297.2159	1316.6622	1342.8681	1397.981	1399.4462	1405.273	1434.3647	1446.5404	1479.8785	1484.9432	1487.3415	1497.2036	1503.7433	1510.25	1515.2265	1519.1894	1530.1956	3006.3949	3026.2192	3029.1697	3036.1078	3045.3753	3077.6191	3088.8079	3089.2703	3094.8094	3097.7245	3104.1433	3108.8272	3109.7993	3114.1945	3125.0547	3162.5916
CC(C1CO1)C(C)(C)C	C[C@@H]([C@H]1CO1)C(C)(C)C	
InChI=1S/C8H16O/c1-6(7-5-9-7)8(2,3)4/h6-7H,5H2,1-4H3	InChI=1S/C8H16O/c1-6(7-5-9-7)8(2,3)4/h6-7H,5H2,1-4H3/t6-,7+/m0/s1
