14
gdb 125014	3.41583	1.29183	0.94411	5.6117	72.71	-0.2341	-0.0542	0.1799	1161.826	0.100788	-432.874829	-432.86621	-432.865266	-432.90851	30.234	
C	 0.0669161893	 1.5090930229	 0.002308828	-0.509212
C	-0.0461557519	 0.0291837316	-0.0457855885	 0.386863
C	-1.1031214001	-0.8321716544	 0.0563434504	-0.010809
N	-2.4468228633	-0.5607560858	 0.3017816189	-0.620337
C	-0.4854288982	-2.1144613962	-0.068173039	 0.262717
N	 0.8249940641	-2.0271779731	-0.2301845913	-0.204544
O	 1.0922676607	-0.6877197827	-0.2257393598	-0.19527
C	-1.1564796075	-3.3669134442	-0.0333909797	 0.243089
N	-1.7818087791	-4.3401839197	-0.0021223309	-0.336929
H	 0.9627262184	 1.8068744061	 0.5543400813	 0.160946
H	 0.130146427	 1.9512456698	-0.9989991769	 0.151593
H	-0.8054291444	 1.9312193707	 0.5084721916	 0.146941
H	-2.8149569062	 0.2191786151	-0.2253876774	 0.258103
H	-3.0428420688	-1.3701303899	 0.1872531832	 0.266849
80.2605	112.019	131.1239	156.3032	242.3349	270.4152	327.8904	403.3154	516.8126	531.0769	586.3976	627.2092	676.7595	731.6663	755.3961	761.3507	971.9485	1001.9459	1046.5563	1064.5954	1221.2172	1248.1502	1290.0535	1411.5965	1469.0777	1476.5977	1485.2025	1499.9012	1658.286	1685.1596	2354.4026	3033.7514	3096.7466	3127.0494	3549.2127	3638.831
CC1=C(N)C(=NO1)C#N	Cc1c(N)c(no1)C#N	
InChI=1S/C5H5N3O/c1-3-5(7)4(2-6)8-9-3/h7H2,1H3	InChI=1S/C5H5N3O/c1-3-5(7)4(2-6)8-9-3/h7H2,1H3
