17
gdb 41675	2.87595	2.06624	1.62681	1.075	70.14	-0.2479	-0.0083	0.2396	856.979	0.140234	-417.982542	-417.976278	-417.975334	-418.012979	25.719	
C	 0.0571967864	 1.5600715429	-0.091364623	-0.106246
O	 1.4150396817	 1.975495	-0.139540756	-0.246716
C	 2.1488710872	 1.7405827984	 1.0500987107	-0.072043
C	 1.7209749747	 0.4491768525	 1.8004445599	-0.06005
N	 0.6890224244	 0.7816126609	 2.8109402157	-0.196687
C	-0.3826296338	 0.1931930407	 2.4613232317	 0.027424
N	-0.363890456	-0.6674764639	 1.3287308666	-0.144934
C	-0.0233414316	 0.0436657136	 0.0429312332	-0.046106
C	 1.0400305097	-0.566110646	 0.8736205419	-0.043603
H	-0.4880899672	 2.0779604061	 0.7100110709	 0.111748
H	-0.3749185298	 1.8663391136	-1.0465806761	 0.117416
H	 3.196356043	 1.6710615795	 0.7421440365	 0.109922
H	 2.0445882651	 2.5835264982	 1.747200987	 0.111453
H	 2.5938054042	 0.0327704025	 2.3098087798	 0.096448
H	-1.3186400666	 0.2971338826	 3.0024311742	 0.128927
H	-0.3929421192	-0.4975891917	-0.82158902	 0.109995
H	 1.5362541877	-1.4864056299	 0.5875423071	 0.103053
160.2943	231.198	342.0059	390.1853	449.0992	544.0756	612.5947	665.9125	740.1758	792.1833	818.932	854.6707	866.4533	923.2813	935.0626	956.7571	979.0736	1022.9088	1032.1486	1049.1968	1077.2447	1093.9465	1123.0385	1152.4562	1249.1637	1263.4801	1285.164	1297.351	1315.0608	1324.9437	1334.2979	1385.5139	1399.1875	1414.0888	1490.895	1504.9613	1672.5196	3007.5241	3011.7961	3071.0808	3085.2926	3102.7747	3163.2671	3176.3829	3188.144
C1OCC2N=CN3C1C23	C1OC[C@H]2N=CN3[C@@H]1[C@@H]23	
InChI=1S/C6H8N2O/c1-4-6-5(2-9-1)8(6)3-7-4/h3-6H,1-2H2	InChI=1S/C6H8N2O/c1-4-6-5(2-9-1)8(6)3-7-4/h3-6H,1-2H2/t4-,5+,6-,8?/m1/s1
