14
gdb 25246	3.43632	1.67486	1.13409	1.7024	71.53	-0.2328	-0.0213	0.2116	985.2748	0.105273	-432.912733	-432.906271	-432.905327	-432.943636	25.089	
N	-0.0363481066	 1.3335114498	 0.0114316529	-0.576273
C	-0.0555357714	 0.0684060011	 0.0039444287	 0.361425
O	 1.0634271893	-0.7515234014	-0.0069011285	-0.275401
C	 0.7147584351	-2.1618531594	-0.0135152378	-0.195896
C	-0.7791642513	-2.134151497	-0.0054522203	 0.257373
C	-1.1835225711	-0.8352256657	 0.0044471869	 0.238309
N	-2.5517430852	-0.8677532595	 0.0115001631	-0.398068
C	-2.8883043945	-2.1973437503	 0.0055278067	-0.002075
N	-1.8344203866	-2.9987388966	-0.0049962827	-0.343158
H	 0.9240076363	 1.6790525034	 0.008453337	 0.226527
H	 1.1505365833	-2.6210282491	-0.907843814	 0.138798
H	 1.159919045	-2.6316960133	 0.8705939063	 0.138798
H	-3.1804226451	-0.0815695617	 0.0194525439	 0.286182
H	-3.918455957	-2.5216423502	 0.0091297078	 0.143457
153.7659	207.5593	257.7076	297.8409	536.7059	544.8366	622.7596	632.8209	643.4611	670.1263	749.1493	789.0544	828.3057	857.2992	954.3374	970.6834	1025.4296	1028.7944	1080.9755	1134.7116	1181.4013	1219.9867	1281.1132	1327.0164	1388.3194	1417.0766	1457.3473	1503.1817	1542.6446	1601.4078	1780.7664	3037.8603	3075.0592	3255.3271	3487.7674	3667.0606
N=C1OCC2=C1NC=N2	[NH][C]1OCc2c1[nH]cn2	
InChI=1S/C5H5N3O/c6-5-4-3(1-9-5)7-2-8-4/h2,6H,1H2,(H,7,8)	InChI=1S/C5H5N3O/c6-5-4-3(1-9-5)7-2-8-4/h2,6H,1H2,(H,7,8)
