15
gdb 36749	2.80699	0.82922	0.70312	3.239	74.25	-0.2704	-0.0044	0.266	1561.0469	0.109713	-416.763919	-416.754356	-416.753412	-416.800107	32.602	
C	 1.1123379887	-0.6802854849	-0.5228238622	-0.461503
C	 0.6644787953	 0.3544779867	-0.1048771157	 0.282085
C	 0.1389354363	 1.6313475386	 0.3858324908	-0.259608
N	 0.72884175	 2.8554132865	-0.143488596	-0.23255
C	 1.6614814629	 2.7857634624	-0.978685432	 0.145372
O	 2.1860926728	 3.939903256	-1.4759956288	-0.194554
C	 3.264471031	 3.7866936013	-2.379951656	-0.214925
C	 4.5322534113	 3.4626372764	-1.7055118527	 0.262411
N	 5.5268426488	 3.2002058596	-1.1805423542	-0.285964
H	 1.4959148465	-1.606888351	-0.8733766125	 0.20669
H	-0.9403141306	 1.6776314439	 0.1910935469	 0.150043
H	 0.2378792781	 1.6672002817	 1.4784182795	 0.153164
H	 2.1097785426	 1.8659631684	-1.3716412153	 0.112107
H	 3.0560404856	 3.0158584854	-3.1331921167	 0.160318
H	 3.3682944006	 4.743806299	-2.896689785	 0.176913
27.0271	55.386	112.3673	159.941	210.3542	232.0557	288.9239	331.1226	367.497	406.9298	453.1586	604.4004	623.6495	667.3856	682.9704	912.1499	923.2514	948.0637	1009.3153	1012.3026	1022.5125	1088.0189	1196.5637	1266.7123	1308.4538	1350.7519	1388.9844	1415.599	1466.0798	1476.1071	1783.0132	2229.1256	2364.8357	3024.3387	3032.4699	3045.2714	3058.6425	3112.0559	3500.846
C#CCN=COCC#N	C#CCN=COCC#N	
InChI=1S/C6H6N2O/c1-2-4-8-6-9-5-3-7/h1,6H,4-5H2	InChI=1S/C6H6N2O/c1-2-4-8-6-9-5-3-7/h1,6H,4-5H2
