16
gdb 55955	4.20136	0.98701	0.94064	1.5096	66.	-0.2657	0.0004	0.2661	1273.6456	0.123782	-475.076434	-475.067928	-475.066984	-475.111199	29.461	
C	-0.033711884	 1.4766111855	-0.0857073076	-0.480848
C	-0.1630398571	-0.0138070957	 0.0904794714	 0.434198
O	-0.5556797405	-0.5803301809	 1.0734538448	-0.334905
O	 0.2294254308	-0.65609641	-1.051777491	-0.250907
C	 0.2178974908	-2.0753856506	-1.0291587369	 0.195992
C	 0.1176757248	-2.605326409	-2.4723665293	-0.211258
N	 1.466514248	-3.0984941476	-2.792143125	-0.254792
C	 2.1147139978	-3.019608944	-1.7087550355	 0.1173
O	 1.5004509209	-2.5392956689	-0.5898726992	-0.218566
H	 1.0165731057	 1.7374724984	-0.2463174602	 0.158046
H	-0.5874193243	 1.8015180882	-0.9706593591	 0.153135
H	-0.4096635915	 1.981783198	 0.8028603378	 0.152511
H	-0.5291334809	-2.418854434	-0.3166261514	 0.129257
H	-0.6042893149	-3.4235823746	-2.5583958912	 0.129049
H	-0.1821547011	-1.8097273247	-3.1588775098	 0.134157
H	 3.1465289855	-3.3153997802	-1.5598905678	 0.14763
44.3745	75.5496	92.0412	115.9514	214.2826	329.984	400.0569	455.5749	550.559	605.0108	647.7305	776.2114	851.4374	888.164	922.5212	954.7548	976.0437	994.57	1015.796	1050.5576	1065.0792	1077.8824	1123.3962	1215.8276	1242.0213	1303.2935	1321.3492	1352.0042	1390.6	1408.5346	1467.6856	1474.7863	1480.6447	1710.6588	1844.3642	3057.963	3058.2561	3107.1074	3123.6885	3149.8629	3172.0197	3225.8403
CC(=O)OC1CN=CO1	CC(=O)O[C@H]1CN=CO1	
InChI=1S/C5H7NO3/c1-4(7)9-5-2-6-3-8-5/h3,5H,2H2,1H3	InChI=1S/C5H7NO3/c1-4(7)9-5-2-6-3-8-5/h3,5H,2H2,1H3/t5-/m0/s1
