20
gdb 126538	3.06763	0.98456	0.79523	3.2714	81.21	-0.2484	-0.0005	0.248	1481.6843	0.170265	-403.162842	-403.153363	-403.152419	-403.198089	34.008	
C	 0.0215289665	 1.5871266597	 0.0285452559	-0.379658
C	 0.0184405247	 0.0570218565	 0.0411305463	-0.158352
C	-1.4020593553	-0.5355663262	-0.0376396522	-0.322751
C	-1.4341706886	-2.0341290309	-0.0174484597	 0.080826
C	-1.5746163114	-2.899662495	-1.0545384597	-0.005164
O	-1.5374399053	-4.1724110103	-0.633550985	-0.17061
N	-1.3678849349	-4.1765965089	 0.7478756585	-0.20118
C	-1.3062847949	-2.9160250757	 1.1076375692	 0.324781
C	-1.1378976589	-2.5604355742	 2.5504868711	-0.503421
H	 1.0403784209	 1.9826310107	 0.0805994553	 0.116017
H	-0.440772153	 1.9769426327	-0.8852796144	 0.115919
H	-0.5372952911	 1.992775302	 0.8793430244	 0.115557
H	 0.6085280873	-0.3268249407	-0.7997152253	 0.103488
H	 0.5143590779	-0.3068360313	 0.9493591503	 0.102909
H	-1.9982914481	-0.1437206847	 0.7969963843	 0.105823
H	-1.8885006194	-0.1743282153	-0.9515999946	 0.105967
H	-1.712439724	-2.7593299137	-2.1162469985	 0.144011
H	-0.1942082195	-2.0323149214	 2.7228711133	 0.138681
H	-1.9461935868	-1.9038579023	 2.8900246342	 0.135414
H	-1.1446363961	-3.465621651	 3.1604544765	 0.151743
49.3442	79.2429	112.5913	133.6444	229.3135	249.9699	263.371	312.1216	391.444	407.1686	617.0909	652.9848	697.6133	738.1435	756.0506	844.8275	872.1591	899.7646	912.2649	947.4263	1026.4995	1043.0134	1065.9688	1090.2223	1112.1366	1155.0977	1204.7629	1254.1832	1293.8626	1315.9654	1326.9811	1382.467	1404.7831	1414.2741	1434.5673	1476.2039	1481.0904	1483.3185	1492.1949	1500.865	1509.414	1525.0042	1652.4525	3016.4668	3028.8096	3031.8288	3039.5137	3047.8845	3069.486	3093.5057	3098.1463	3105.609	3138.9455	3255.5135
CCCC1=CON=C1C	CCCc1conc1C	
InChI=1S/C7H11NO/c1-3-4-7-5-9-8-6(7)2/h5H,3-4H2,1-2H3	InChI=1S/C7H11NO/c1-3-4-7-5-9-8-6(7)2/h5H,3-4H2,1-2H3
