18
gdb 60947	3.14481	1.23668	1.12635	4.0934	72.61	-0.2376	0.0256	0.2632	1135.8924	0.147385	-439.052939	-439.044464	-439.043519	-439.08654	30.897	
C	-1.1810708295	-0.0745786657	 0.8310534657	-0.34983
N	 0.0587013479	-0.0728722922	 0.066732848	-0.033363
C	 1.1215862825	 0.68240229	 0.4764712177	 0.15227
O	 1.1582468361	 1.3676430696	 1.4763701888	-0.341547
C	 0.0915022904	-0.7611500607	-1.1846238162	-0.035044
C	 1.1768538492	-1.7567310123	-1.5503910325	-0.173825
C	 1.5189934058	-2.6099461061	-0.3317452629	-0.093418
O	 0.1168544251	-2.9256352997	-0.1058133838	-0.276799
C	-0.2425353249	-2.2212283263	-1.2882475886	 0.068204
H	-1.9970480105	 0.3824611247	 0.2582968775	 0.119262
H	-1.4555620772	-1.1004618852	 1.0908281574	 0.145942
H	-1.0113779901	 0.5074710005	 1.736820828	 0.165393
H	 1.9739377542	 0.5908880541	-0.2242677516	 0.07414
H	-0.2593729509	-0.1947111195	-2.0494341089	 0.106019
H	 1.7534980626	-1.6862917912	-2.4621218265	 0.111341
H	 2.0727461698	-3.5179657899	-0.5909312622	 0.119839
H	 1.9799094967	-2.1188039735	 0.5307310514	 0.125793
H	-1.0210277671	-2.6374895366	-1.9171058812	 0.115624
65.3333	111.8156	151.6748	171.0735	258.1237	306.3149	330.2714	352.6554	486.289	561.6821	742.8714	764.6752	807.8504	829.4798	884.4905	952.4898	969.2082	986.3112	1027.15	1037.3083	1056.4514	1059.352	1089.1265	1120.8715	1146.4432	1161.4555	1167.365	1262.1825	1295.5348	1313.6616	1353.8205	1385.1072	1422.9569	1438.9914	1447.4517	1498.4694	1509.8043	1514.2914	1797.727	2946.2138	3027.9334	3043.4918	3085.946	3097.0216	3099.4403	3161.1938	3183.0374	3212.146
CN(C=O)C1C2COC12	CN(C=O)[C@H]1[C@H]2CO[C@@H]12	
InChI=1S/C6H9NO2/c1-7(3-8)5-4-2-9-6(4)5/h3-6H,2H2,1H3	InChI=1S/C6H9NO2/c1-7(3-8)5-4-2-9-6(4)5/h3-6H,2H2,1H3/t4-,5+,6-/m1/s1
