18
gdb 47836	2.45209	1.66505	1.1919	1.2779	76.47	-0.2394	-0.0123	0.227	1062.8817	0.150333	-435.261183	-435.253257	-435.252313	-435.293866	30.437	
N	-0.0952562278	 0.9027404193	-0.9330770014	-0.506609
C	-0.0281991913	 0.011960626	-0.0252469781	 0.304165
C	-1.3686746056	-0.5475612126	 0.4680796861	-0.115522
O	-1.3221780009	-1.5818922325	 1.4121314783	-0.227153
C	-1.1705149007	-2.8770852201	 0.8635215182	-0.070842
C	 0.1703216801	-3.0457762512	 0.1423697071	-0.200095
N	 1.2695633946	-2.7370727539	 1.03043432	-0.212409
C	 1.6160931678	-1.5319978994	 1.2105663885	 0.088838
N	 1.1478105687	-0.334615436	 0.6544408508	-0.329081
H	 0.8256092381	 1.2657599052	-1.1860527001	 0.207077
H	-1.8725962097	 0.2928579487	 0.9565151287	 0.144337
H	-1.9654965247	-0.815503184	-0.4138214203	 0.124271
H	-1.2228380352	-3.5622696522	 1.7137037344	 0.122023
H	-1.9973367374	-3.1072522502	 0.1732724192	 0.093713
H	 0.2592783675	-4.088948548	-0.1804008785	 0.107845
H	 0.18053249	-2.4252766135	-0.7681764711	 0.109651
H	 2.4677150818	-1.3399832782	 1.8665471981	 0.112529
H	 1.8590623747	 0.3816700726	 0.6018982302	 0.247263
63.1143	128.7132	247.1921	272.8527	302.4477	372.0797	444.4737	485.0479	506.8071	542.5823	566.2393	637.8588	760.9983	830.3865	860.5573	868.3335	896.9824	954.9836	1004.7912	1026.6494	1045.6517	1074.5389	1135.4399	1159.3265	1202.5794	1269.3738	1277.8319	1324.0871	1344.1874	1365.0011	1379.3266	1410.8556	1453.5272	1469.3629	1482.844	1490.6919	1508.4102	1705.2182	1745.8861	2975.94	2988.797	3021.8803	3060.0429	3080.4507	3100.2727	3107.5713	3451.7786	3584.7527
N=C1COCCN=CN1	[NH][C]1COCCN=CN1	
InChI=1S/C5H9N3O/c6-5-3-9-2-1-7-4-8-5/h4H,1-3H2,(H2,6,7,8)	InChI=1S/C5H9N3O/c6-5-3-9-2-1-7-4-8-5/h4H,1-3H2,(H2,6,7,8)
