16
gdb 36169	3.75594	1.23314	1.14099	1.6059	73.89	-0.2398	0.0465	0.2863	1094.6566	0.122761	-400.592836	-400.585234	-400.58429	-400.625291	29.477	
C	-0.0093655432	-1.2101563136	 0.017561113	-0.447967
C	 0.0257939085	-0.0105805687	-0.0297785501	 0.305714
C	 0.0777835888	 1.4461150919	-0.078015751	-0.497408
C	 1.4775828309	 1.9931392357	-0.0268251405	 0.512039
O	 2.4166614166	 1.7373295115	-1.1115321743	-0.349219
C	 3.182633921	 2.5579162996	-0.1830550041	 0.06731
C	 1.9693647199	 3.4551179479	 0.2260739284	-0.135746
N	 2.0881289222	 3.2109682878	 1.6997187474	-0.349938
C	 2.5560548381	 1.9188565944	 1.0989169628	-0.115896
H	-0.0430216565	-2.2707889414	 0.052316458	 0.198994
H	-0.4105365925	 1.8133380289	-0.9894135783	 0.14614
H	-0.4670351535	 1.8751456528	 0.7727586619	 0.158286
H	 4.2134064577	 2.8117262338	-0.4320475306	 0.098987
H	 1.611828299	 4.3868012894	-0.2138763151	 0.092772
H	 2.8803217702	 3.7318382381	 2.0830860557	 0.215346
H	 2.8804892829	 1.054041702	 1.6770778668	 0.100585
63.9909	108.9163	228.6661	289.0126	338.1287	414.4881	523.1285	550.1262	620.5276	644.1649	691.7583	755.4695	773.9733	781.8566	837.9392	867.5197	904.0706	933.3421	943.5756	968.9355	1031.0056	1055.6493	1087.5592	1115.2224	1131.2993	1151.5496	1205.0307	1215.92	1264.9894	1288.8875	1292.4649	1330.596	1405.0239	1448.9089	2245.2351	3025.9166	3063.7084	3110.9763	3120.5729	3133.6553	3415.3531	3506.6928
C#CCC12OC3C1NC23	C#CC[C@@]12O[C@H]3[C@@H]1N[C@@H]23	
InChI=1S/C7H7NO/c1-2-3-7-5-4(9-7)6(7)8-5/h1,4-6,8H,3H2	InChI=1S/C7H7NO/c1-2-3-7-5-4(9-7)6(7)8-5/h1,4-6,8H,3H2/t4-,5-,6+,7+
