18
gdb 71653	3.1168	1.91862	1.64968	1.3226	73.15	-0.2316	0.0706	0.3021	871.1696	0.149889	-401.88981	-401.883286	-401.882341	-401.920184	27.923	
O	-0.0258668737	 1.437635302	 0.0573949522	-0.4907
C	 0.0124538067	 0.0363660102	-0.0106322565	 0.384881
C	 0.3630303833	-0.6607392212	-1.3573396062	-0.311987
C	-0.7302762446	-1.6914258423	-1.0022062237	-0.040212
C	-0.460206655	-2.6303122865	 0.2080213391	-0.06713
C	-1.3139724007	-1.7882807979	 1.1159528561	-0.068298
C	-1.3781728082	-0.7017328624	 0.0103332134	-0.095515
N	 0.1087666965	-1.9419466781	 1.3786146908	-0.101839
C	 0.781835532	-0.66184896	 1.1283345261	-0.218373
H	 0.8719131133	 1.7711110978	-0.0478040983	 0.277559
H	 0.0495456995	-0.0496360921	-2.2092923028	 0.102303
H	 1.3945175685	-0.99830324	-1.5024910244	 0.088621
H	-1.3164926549	-2.1609601334	-1.7923868828	 0.075324
H	-0.3265871306	-3.7053133408	 0.1601601941	 0.092542
H	-2.0472894257	-2.0474794259	 1.8703140055	 0.091259
H	-2.2729729381	-0.1265054782	-0.209395688	 0.078038
H	 1.8384918233	-0.8255245519	 0.8900399566	 0.096914
H	 0.7145745284	-0.0602704994	 2.0419801387	 0.106613
210.3293	259.0317	292.107	396.3688	427.3211	484.1704	578.1247	622.2637	711.8855	734.5984	765.8308	801.0197	860.1735	874.0488	893.0093	918.9151	942.6458	946.6412	953.5037	996.3994	1030.1943	1056.2294	1063.8712	1092.5997	1106.7507	1156.531	1180.707	1198.959	1227.0398	1234.9404	1245.7639	1258.4473	1266.6357	1300.0757	1320.7105	1342.7662	1383.9251	1482.4762	1499.2835	3032.9921	3038.5602	3083.33	3096.7644	3107.773	3161.1613	3169.4879	3185.5287	3801.7812
OC12CC3C4C(C13)N4C2	O[C@]12C[C@H]3[C@@H]4[C@H]([C@@H]13)N4C2	
InChI=1S/C7H9NO/c9-7-1-3-4(7)6-5(3)8(6)2-7/h3-6,9H,1-2H2	InChI=1S/C7H9NO/c9-7-1-3-4(7)6-5(3)8(6)2-7/h3-6,9H,1-2H2/t3-,4+,5-,6+,7+,8?/m1/s1
