23
gdb 92501	2.6299	1.34978	1.11936	1.8739	84.71	-0.2406	0.0751	0.3157	1226.1648	0.206387	-388.297867	-388.288914	-388.287969	-388.331374	34.935	
C	-0.3273892888	 1.44580634	 0.0222396185	-0.40762
C	 0.0680905483	-0.0279059366	 0.082904038	 0.050392
C	 0.7156906958	-0.5752838241	-1.2102926964	-0.244242
C	 1.4980904308	-1.8161261139	-0.7574513525	 0.100075
O	 2.9360028869	-1.7078299238	-0.9104319838	-0.299153
C	 3.1441068845	-1.8675412133	 0.5073887926	-0.127243
C	 1.627930687	-1.7771968415	 0.7945810226	 0.29479
C	 1.0061662365	-2.9027781878	 1.6075110288	-0.483318
C	 1.1047599883	-0.373029155	 1.1740323184	-0.283975
H	 0.5483696066	 2.0766431674	-0.1703461164	 0.11472
H	-1.0528399111	 1.6316136855	-0.776941583	 0.113259
H	-0.7783404156	 1.7783178528	 0.9634533463	 0.111358
H	-0.8371338533	-0.6198892038	 0.2818213357	 0.070752
H	-0.0213878485	-0.7884289627	-1.9900890264	 0.093242
H	 1.4304288404	 0.1496930884	-1.6163879456	 0.109493
H	 1.1295167308	-2.753335569	-1.1932346143	 0.064124
H	 3.5899473679	-2.8440897813	 0.7429421628	 0.089424
H	 3.7791237006	-1.0765477379	 0.9256767184	 0.095141
H	 1.3244014471	-2.8532330865	 2.6553822275	 0.117327
H	-0.0882770852	-2.8447768539	 1.5942482065	 0.116788
H	 1.2933294762	-3.8846201236	 1.2166775042	 0.116331
H	 1.9183511736	 0.3625752152	 1.1414318682	 0.096472
H	 0.6798888913	-0.3392935548	 2.1825140297	 0.091865
72.0853	106.5389	220.1262	230.0663	253.0721	272.8468	329.175	383.7632	405.2864	439.0019	510.0787	607.6974	680.2574	802.8626	837.6867	876.796	881.8796	915.3585	933.9169	948.9716	973.5909	985.9725	1018.1656	1042.126	1066.4465	1094.3934	1134.1005	1139.0112	1160.8478	1185.1528	1214.9009	1242.2283	1261.0415	1285.8513	1301.8829	1309.9604	1340.3003	1362.5162	1371.2296	1386.8392	1409.4425	1413.6419	1478.0744	1489.5115	1493.6065	1495.0733	1496.5825	1499.6765	1527.3549	2995.7098	2996.0077	3017.7473	3021.8645	3023.873	3026.6226	3042.9142	3045.5028	3076.0438	3086.3497	3089.0933	3094.4159	3095.1168	3095.2744
CC1CC2OCC2(C)C1	C[C@H]1C[C@H]2OC[C@@]2(C)C1	
InChI=1S/C8H14O/c1-6-3-7-8(2,4-6)5-9-7/h6-7H,3-5H2,1-2H3	InChI=1S/C8H14O/c1-6-3-7-8(2,4-6)5-9-7/h6-7H,3-5H2,1-2H3/t6-,7+,8+/m0/s1
