15
gdb 48304	3.09814	0.83375	0.69433	2.9991	67.85	-0.2612	-0.0658	0.1954	1519.1734	0.109539	-453.949168	-453.939533	-453.938589	-453.985505	31.84	
O	-0.1458311426	 0.1592444846	-0.0743527928	-0.239003
C	 0.0086480679	 1.3520025159	-0.0583231069	 0.15268
C	 1.4014931791	 1.9917689552	 0.0315841902	-0.160284
N	 2.4964326568	 1.0435807059	 0.0395702214	-0.299201
C	 2.7740910731	 0.4735048571	 1.3605180267	-0.273862
C	 3.9311333112	-0.4241992606	 1.3015896583	 0.261711
N	 4.8312938764	-1.1459739347	 1.2573897354	-0.290263
C	 1.5568596927	 3.0099004202	-1.1106172489	 0.135342
O	 0.7450375642	 3.8634330452	-1.3449751822	-0.236995
H	-0.8325029145	 2.0678211135	-0.1377213162	 0.125897
H	 1.4151633077	 2.5937762935	 0.9521146558	 0.141535
H	 2.2691832401	 0.2793084769	-0.5916665792	 0.247627
H	 3.0124125472	 1.290125988	 2.0526839095	 0.159573
H	 1.9289598988	-0.0851905463	 1.7912570153	 0.158286
H	 2.4911675318	 2.8751879055	-1.6953000464	 0.116957
48.5372	51.3142	96.5506	125.1922	130.3512	225.1834	249.712	304.8313	389.2882	396.2052	516.8047	584.9501	688.5227	792.0165	827.4691	867.9213	948.3948	996.929	1039.906	1080.3182	1124.4459	1179.2376	1205.8899	1254.3064	1308.2979	1373.9715	1385.599	1403.0147	1486.6651	1522.2264	1810.6186	1840.8604	2371.4757	2921.5193	2954.502	2994.0635	3020.6653	3058.032	3506.3323
O=CC(NCC#N)C=O	O=CC(NCC#N)C=O	
InChI=1S/C5H6N2O2/c6-1-2-7-5(3-8)4-9/h3-5,7H,2H2	InChI=1S/C5H6N2O2/c6-1-2-7-5(3-8)4-9/h3-5,7H,2H2
