17
gdb 104836	2.19988	1.49213	1.21106	4.0015	64.33	-0.2716	-0.0058	0.2658	1096.918	0.134092	-496.096306	-496.08709	-496.086146	-496.130656	32.616	
C	 1.0105760025	-0.7064254305	 1.2430477895	-0.260988
O	 0.1860928042	-0.3817377476	 0.1329903977	-0.284008
C	 0.7675865632	-0.5042577049	-1.1283338184	 0.177445
C	 2.1497745427	 0.1466728735	-1.2801768689	-0.130042
O	 2.1443370732	 1.4824473082	-0.8355324821	-0.414846
C	 0.58614989	-1.8631037264	-1.8611533873	-0.137971
O	-0.2596770005	-1.2079522711	-2.866526756	-0.240191
C	-0.1916403711	-0.0025640937	-2.2265193754	 0.446417
O	-0.6880367581	 1.0338174317	-2.5351006298	-0.337324
H	 1.4401400656	-1.7149505872	 1.1567383331	 0.106957
H	 1.815069409	 0.0254602982	 1.3731278124	 0.143159
H	 0.3599494485	-0.680069299	 2.1192128233	 0.139756
H	 2.8918682335	-0.3851004858	-0.6756606053	 0.118848
H	 2.4634549045	 0.0534435189	-2.3324412026	 0.108325
H	 1.4131440428	 1.9386053034	-1.2709649534	 0.304854
H	 1.4631293884	-2.3095040943	-2.3342925457	 0.125074
H	 0.0165244416	-2.6011347932	-1.2948256212	 0.134533
80.9331	93.8211	124.5685	162.6828	203.9263	255.1345	304.4859	354.054	366.8842	402.8124	462.9042	601.3727	702.7714	768.699	784.0328	892.1476	923.5317	949.9383	1038.8188	1068.0843	1098.5933	1141.844	1157.3667	1170.9504	1182.9732	1199.4879	1250.1215	1272.1859	1352.8626	1377.1079	1433.1348	1478.0649	1490.6114	1502.0979	1503.0894	1519.5437	1928.7823	2979.1988	2997.0286	3072.3097	3075.4996	3077.9453	3131.011	3145.1621	3781.0874
COC1(CO)COC1=O	CO[C@@]1(CO)COC1=O	
InChI=1S/C5H8O4/c1-8-5(2-6)3-9-4(5)7/h6H,2-3H2,1H3	InChI=1S/C5H8O4/c1-8-5(2-6)3-9-4(5)7/h6H,2-3H2,1H3/t5-/m0/s1
