23
gdb 58236	2.35852	1.20193	1.03772	0.359	81.26	-0.2464	0.0634	0.3098	1313.6779	0.202743	-425.413059	-425.402173	-425.401229	-425.44848	40.831	
C	-0.1142313966	 1.5910442765	-0.1042478055	-0.402107
C	-0.0309398024	 0.0695159652	-0.0024112531	 0.115064
O	-1.3198957931	-0.5274690492	 0.0960002144	-0.427279
C	 0.803303649	-0.5353330287	-1.1547875075	 0.001005
O	 2.1442181812	-0.0486590205	-1.0811299352	-0.43218
C	 0.7423074205	-2.0564971488	-1.2330332859	 0.400673
C	 1.0229028302	-2.8101726188	 0.0548956291	-0.48918
C	-0.2494703259	-2.6632400997	-2.1955353553	-0.298211
C	 1.2210107397	-2.6625307737	-2.5315363884	-0.314109
H	 0.8867181403	 2.0257798417	-0.1563244255	 0.133659
H	-0.6553733965	 1.8856355117	-1.0128778703	 0.10194
H	-0.6452901009	 2.0043437653	 0.7572400872	 0.117759
H	 0.4637947277	-0.1959554418	 0.9412448984	 0.080572
H	-1.8068136373	-0.315540626	-0.7077795933	 0.278441
H	 0.4242951531	-0.1301038883	-2.1037703541	 0.06852
H	 2.57153971	-0.477792101	-0.3319696645	 0.280201
H	 0.2415944019	-2.6271917481	 0.7982960703	 0.142484
H	 1.0642575615	-3.8876321611	-0.1307705892	 0.114781
H	 1.9890007037	-2.5299264428	 0.4956688598	 0.097307
H	-0.7163839699	-3.6012484983	-1.9143947546	 0.109926
H	-0.901086772	-2.0013810534	-2.7571858236	 0.097187
H	 1.5734711473	-1.9888691315	-3.3049787502	 0.116865
H	 1.7575051584	-3.6042962887	-2.4862526529	 0.106682
71.3601	75.217	156.9454	224.1105	228.6817	244.9165	250.6617	257.8969	282.8035	299.1912	327.8999	390.918	424.215	454.4901	503.0932	559.5722	755.1541	779.4122	863.2587	874.2742	910.6631	939.6027	957.5055	990.2052	1032.6549	1057.646	1059.8115	1074.4402	1080.1954	1109.9632	1124.9747	1157.3443	1186.1663	1225.4171	1255.7	1315.6825	1325.1028	1359.5633	1391.8677	1396.9911	1415.2787	1419.2958	1426.5705	1470.327	1490.1825	1494.0109	1496.4175	1503.1032	1510.1763	3005.1151	3014.0704	3021.9696	3032.0094	3081.3644	3100.6942	3111.6816	3124.939	3132.692	3134.924	3202.5423	3218.9888	3804.8683	3807.1846
CC(O)C(O)C1(C)CC1	C[C@@H](O)[C@@H](O)C1(C)CC1	
InChI=1S/C7H14O2/c1-5(8)6(9)7(2)3-4-7/h5-6,8-9H,3-4H2,1-2H3	InChI=1S/C7H14O2/c1-5(8)6(9)7(2)3-4-7/h5-6,8-9H,3-4H2,1-2H3/t5-,6-/m1/s1
