12
gdb 132316	2.01721	1.97845	0.999	7.4589	59.71	-0.2613	-0.0341	0.2272	1046.9528	0.079106	-510.181385	-510.1741	-510.173155	-510.213325	26.907	
N	-0.029795909	 1.3490421545	-0.073776677	-0.568567
C	-0.0324758226	 0.0003082824	-0.0274859591	 0.53099
N	-1.1873853669	-0.6366449101	-0.0132918576	-0.386846
C	-1.059556804	-1.9743205349	-0.0015227521	 0.338303
F	-2.2197311536	-2.596603698	 0.0093829791	-0.046654
N	-0.0079246064	-2.7312062383	 0.0046754614	-0.381189
C	 1.2113880802	-2.1016784121	-0.008229827	 0.442829
O	 2.2983682777	-2.6229634263	-0.0089566161	-0.369279
N	 1.1414690989	-0.6663943714	-0.0226795769	-0.391199
H	 0.8025920965	 1.8815507507	 0.1089889234	 0.274559
H	-0.9220779916	 1.8020263869	 0.0375242568	 0.288854
H	 2.0340127907	-0.1943041633	-0.052855045	 0.2682
134.6714	198.1165	200.8433	229.4367	339.1306	401.2859	489.6112	540.3521	562.0386	620.8917	635.9268	667.9606	743.0123	774.9839	814.0141	944.4575	1015.1513	1057.5076	1141.9494	1193.789	1331.7847	1442.1709	1518.0696	1592.5954	1652.0814	1668.7289	1847.2447	3609.4754	3615.208	3740.8229
NC1=NC(F)=NC(=O)N1	Nc1nc(F)nc(=O)[nH]1	
InChI=1S/C3H3FN4O/c4-1-6-2(5)8-3(9)7-1/h(H3,5,6,7,8,9)	InChI=1S/C3H3FN4O/c4-1-6-2(5)8-3(9)7-1/h(H3,5,6,7,8,9)
