23
gdb 105101	3.18486	1.11187	0.95329	1.7065	85.21	-0.2432	0.0825	0.3257	1349.2271	0.205486	-388.263085	-388.253524	-388.252579	-388.29818	35.795	
C	 0.0818651666	 1.6606888786	-0.1361938047	-0.402429
C	-0.0079243592	 0.134935824	-0.2322317606	-0.246793
C	-1.3637385106	-0.5019669175	 0.0586888893	 0.328532
C	-2.311895653	 0.0810978752	 1.0763011985	-0.304901
C	-2.6490371661	 0.1430303319	-0.3964603729	-0.310038
C	-1.2977370952	-2.0123358416	-0.0391165033	 0.087538
C	-0.6366343092	-2.8022801965	 1.1186498747	-0.285358
C	-1.9818270946	-3.5477257296	 1.1838606426	-0.06727
O	-2.566206649	-2.671401204	 0.196167891	-0.295945
H	 1.0954551455	 1.9919755786	-0.3817407135	 0.114821
H	-0.6007202199	 2.1561906341	-0.8331897953	 0.121588
H	-0.144207281	 2.0211777989	 0.8717824695	 0.120608
H	 0.3038499834	-0.1734288605	-1.2403203821	 0.097578
H	 0.7329284927	-0.3010445956	 0.4529668377	 0.097672
H	-2.8857648873	-0.6133235553	 1.6793771272	 0.115578
H	-2.0398978287	 1.0018152475	 1.5795451889	 0.103679
H	-2.6012994156	 1.1047964628	-0.8946235923	 0.105197
H	-3.4365526133	-0.5131886428	-0.7484273736	 0.128334
H	-0.9044384271	-2.2934454536	-1.0284288902	 0.06829
H	 0.2394165435	-3.4004689395	 0.8648737539	 0.106952
H	-0.4193508988	-2.1888806422	 1.9953549333	 0.111885
H	-1.9530920036	-4.5874353814	 0.8332540219	 0.100359
H	-2.5235064596	-3.5097388014	 2.13594879	 0.104123
45.283	79.7724	92.3425	171.4684	236.4353	265.0765	280.0749	321.1285	370.8259	456.8653	535.0837	662.3494	760.5183	778.2062	788.6885	823.0592	876.8105	902.0052	928.2153	933.8866	957.9813	998.3182	1019.6729	1037.1516	1055.2394	1070.897	1084.9973	1087.9762	1106.0174	1148.2358	1170.5454	1193.6545	1217.2658	1250.9287	1253.1886	1280.7962	1313.7526	1341.3993	1360.6496	1383.3144	1396.3126	1414.4441	1449.5561	1485.7657	1488.4196	1498.3176	1505.5888	1513.3733	1531.6708	2975.4016	2999.6431	3014.2206	3026.3851	3041.9294	3056.985	3077.752	3106.0584	3111.792	3134.7973	3138.5727	3140.4593	3218.6411	3231.7148
CCC1(CC1)C1CCO1	CCC1(CC1)[C@H]1CCO1	
InChI=1S/C8H14O/c1-2-8(4-5-8)7-3-6-9-7/h7H,2-6H2,1H3	InChI=1S/C8H14O/c1-2-8(4-5-8)7-3-6-9-7/h7H,2-6H2,1H3/t7-/m1/s1
