22
gdb 59879	3.55054	0.84456	0.76089	2.8945	84.55	-0.2451	0.0086	0.2537	1605.5343	0.192239	-404.35939	-404.349069	-404.348124	-404.395804	37.139	
C	 0.0578366703	 1.6064898547	-0.0674597853	-0.388881
C	 0.0336122357	 0.0757538443	 0.0406993577	 0.058063
C	 0.6877426531	-0.5774776138	-1.1827784497	-0.397367
C	 0.7071070816	-0.4044750332	 1.3350951861	-0.297533
C	-0.0623159985	-0.0429683017	 2.5982390334	 0.364565
O	-1.2415740953	 0.2354127741	 2.6149083382	-0.338891
N	 0.7212604711	 0.0018775348	 3.7537569701	-0.07314
C	 1.4007704902	-1.1334797576	 4.3514732725	-0.234174
C	 0.2489414419	-0.4559677092	 5.0366086651	-0.216282
H	 1.088385023	 1.9818158507	-0.0983951083	 0.104589
H	-0.442612939	 1.9399265321	-0.9823910989	 0.10938
H	-0.4513320135	 2.0703158576	 0.7811431098	 0.134051
H	-1.0146177653	-0.2404888948	 0.0905359734	 0.096348
H	 1.7460926344	-0.3004497512	-1.2623217931	 0.109492
H	 0.633016068	-1.6705385963	-1.1334904045	 0.106248
H	 0.1939587609	-0.258873925	-2.1064915975	 0.11273
H	 0.7962846142	-1.5006997541	 1.3211877828	 0.114453
H	 1.7315507709	-0.0222456055	 1.4167042351	 0.115423
H	 1.2205066131	-2.1184283694	 3.926412672	 0.128392
H	 2.4192115707	-0.9602527223	 4.6885477018	 0.127705
H	 0.4369312191	 0.2053986287	 5.8773332055	 0.127516
H	-0.7091931065	-0.9683347828	 5.053812684	 0.137313
26.9517	76.7826	98.5616	153.3254	207.4014	231.1612	237.4013	257.7006	324.7634	356.7241	416.281	449.9505	588.2774	622.2193	786.2432	815.6757	838.9794	898.0485	927.7459	932.5591	971.3889	978.9255	979.9809	1045.0785	1110.381	1119.0577	1129.7209	1133.2711	1160.1734	1176.2144	1178.6337	1196.1777	1250.6107	1304.161	1360.6943	1375.3998	1399.5577	1406.7819	1421.3601	1454.5422	1489.1308	1494.4803	1496.9401	1505.3182	1513.1909	1524.7446	1784.7433	3008.9792	3021.6706	3026.734	3042.7276	3064.7942	3085.7059	3093.227	3098.9655	3103.2024	3116.2242	3119.5707	3187.4226	3206.6946
CC(C)CC(=O)N1CC1	CC(C)CC(=O)N1CC1	
InChI=1S/C7H13NO/c1-6(2)5-7(9)8-3-4-8/h6H,3-5H2,1-2H3	InChI=1S/C7H13NO/c1-6(2)5-7(9)8-3-4-8/h6H,3-5H2,1-2H3
