21
gdb 40092	3.27119	1.39607	1.20954	1.4623	81.99	-0.2464	0.0793	0.3256	1110.2407	0.184647	-387.070923	-387.063248	-387.062304	-387.103369	30.871	
C	-0.3196613667	 1.3958825028	 0.125551997	-0.320547
C	 1.1144494954	 0.9448449894	-0.0327710693	-0.33039
C	 0.0069398973	-0.0653329603	 0.0405906564	 0.408152
C	-0.1712572296	-1.1312760316	 1.1295070193	-0.321266
C	-0.4963364535	-2.1791405767	 0.0226418726	-0.018694
C	-1.9577098159	-2.6187700025	-0.0663810298	-0.09284
O	-2.6596699798	-1.5019509834	-0.5998002271	-0.247893
C	-1.8188183658	-0.9489820338	-1.6067948807	-0.090667
C	-0.3862359893	-1.0529386705	-1.0697701092	-0.139912
H	-0.6320193604	 1.7918731406	 1.0867365987	 0.112148
H	-0.8016074397	 1.8686040922	-0.7248073743	 0.109678
H	 1.5973000653	 1.10806791	-0.9918025784	 0.108009
H	 1.7792368891	 1.0365194507	 0.8209111144	 0.109235
H	 0.7256719644	-1.348107461	 1.7166888983	 0.095974
H	-1.0038256653	-0.9462884796	 1.8159279847	 0.102875
H	 0.2062365212	-3.0099717472	-0.0506238485	 0.07042
H	-2.0564420818	-3.4927861629	-0.7325963659	 0.082828
H	-2.4092036014	-2.8655273665	 0.8992301062	 0.106149
H	-1.9135033001	-1.5212557599	-2.5451195026	 0.082421
H	-2.1536654008	 0.0756954423	-1.7912789128	 0.106058
H	 0.3510043473	-1.1860481524	-1.8650444189	 0.068261
48.8066	183.6571	239.4728	268.5914	314.5143	377.1794	433.3209	513.6342	680.8326	704.8923	766.669	779.1811	845.1775	856.8401	871.2866	891.8313	928.4651	941.4506	956.7998	973.05	998.7117	1037.9807	1047.6424	1061.5253	1074.5489	1105.868	1114.3023	1163.0015	1176.6314	1187.6218	1206.8609	1238.1459	1255.3423	1269.2982	1281.3893	1294.8677	1328.0357	1350.4522	1379.7927	1401.1718	1463.539	1478.0793	1497.3815	1501.621	1512.3694	2956.7511	2963.9631	3041.886	3077.7346	3081.6758	3086.6369	3090.2191	3107.0137	3116.1145	3123.0428	3193.8804	3209.8622
C1CC11CC2COCC12	C1CC21C[C@H]1COC[C@@H]21	
InChI=1S/C8H12O/c1-2-8(1)3-6-4-9-5-7(6)8/h6-7H,1-5H2	InChI=1S/C8H12O/c1-2-8(1)3-6-4-9-5-7(6)8/h6-7H,1-5H2/t6-,7+/m0/s1
