17
gdb 52307	5.20757	0.76217	0.7169	3.77	71.38	-0.2538	-0.0253	0.2285	1543.5311	0.133804	-458.96149	-458.952643	-458.951699	-458.997061	30.477	
O	-0.1896575144	 0.1720037359	 0.4229676748	-0.239223
C	 0.1055477469	 1.0910235122	-0.2936056728	 0.139887
C	 1.3702320251	 1.9130578827	-0.1279566379	-0.154449
O	 1.3687727347	 2.9241697897	-1.1123071514	-0.25886
C	 2.4697409903	 3.8031201247	-1.0325493557	 0.188499
O	 3.6946680535	 3.156194577	-1.3215933775	-0.265608
C	 4.1722739736	 3.5625420385	-2.6038361667	-0.122367
C	 3.2758854156	 4.6983757394	-3.0050069306	-0.084827
C	 2.3206480751	 4.8555131162	-2.0973664706	-0.108749
H	-0.5306438779	 1.4163732407	-1.1461856448	 0.094626
H	 1.3900315671	 2.3328627192	 0.8915381669	 0.121741
H	 2.2436538944	 1.2529341612	-0.2255346041	 0.142514
H	 2.535851733	 4.1881774331	-0.0017707528	 0.076511
H	 5.2244270771	 3.860817082	-2.504972056	 0.119259
H	 4.1307790877	 2.72940836	-3.3218844104	 0.117529
H	 3.4141748289	 5.2684903045	-3.9146463403	 0.116249
H	 1.508488379	 5.5688563828	-2.1005540301	 0.117268
41.3505	49.2042	102.4244	109.753	164.546	295.0855	323.544	434.3387	539.048	604.9649	722.9346	736.4298	786.2565	827.5488	932.7615	942.5191	959.1757	995.4036	1028.7595	1038.5424	1075.3444	1091.1006	1114.1832	1124.3132	1141.7502	1202.0735	1232.4496	1308.8117	1339.8774	1368.0385	1389.4162	1394.6824	1422.2456	1480.4922	1510.9087	1690.9305	1844.163	2897.6609	2970.3597	2978.4971	2993.2525	3032.6794	3032.7258	3217.2985	3245.5009
O=CCOC1OCC=C1	O=CCO[C@H]1OCC=C1	
InChI=1S/C6H8O3/c7-3-5-9-6-2-1-4-8-6/h1-3,6H,4-5H2	InChI=1S/C6H8O3/c7-3-5-9-6-2-1-4-8-6/h1-3,6H,4-5H2/t6-/m1/s1
