16
gdb 65851	2.65077	1.32083	1.18993	3.8112	70.46	-0.2739	0.0016	0.2755	1094.2717	0.125687	-434.089511	-434.081212	-434.080268	-434.122558	30.892	
N	 0.0452385326	 1.4557306135	-0.0422527173	-0.536902
C	-0.0238941638	-0.0029210797	 0.0164544171	 0.075771
C	 0.5319479527	-0.5307323218	 1.366249885	-0.0981
O	-0.1783613461	-1.7366664027	 1.6381524002	-0.231939
C	-1.3725980298	-1.7555627556	 0.9618778544	 0.42788
N	-2.2385993545	-2.66387045	 1.0502837957	-0.535204
C	-1.4764903733	-0.5165113792	 0.0994103208	-0.328878
C	 0.68986796	-0.6450250463	-1.1102755799	 0.255892
N	 1.2673305684	-1.0904272072	-2.0077097421	-0.33268
H	 1.0148907618	 1.7586701378	-0.0939573664	 0.247911
H	-0.3970698038	 1.7873018448	-0.8953660045	 0.251188
H	 1.5991947827	-0.7582472785	 1.343751955	 0.137599
H	 0.3266474891	 0.2205816917	 2.1373292138	 0.130257
H	-1.9468498511	-3.3830423547	 1.7141087403	 0.230736
H	-2.0728123369	 0.2457613136	 0.6117586165	 0.150945
H	-1.938115848	-0.7368129157	-0.8623656683	 0.155524
74.8425	133.0701	192.9104	212.1174	246.7919	338.2537	391.6047	448.9844	471.245	533.7235	585.5086	632.2122	695.5717	756.3307	856.1305	895.1034	902.9057	915.801	948.3339	1016.2923	1043.0437	1106.8501	1115.2848	1176.7227	1207.5289	1265.3961	1282.6918	1289.8745	1336.2117	1398.3165	1468.4439	1518.4887	1666.9253	1792.5373	2343.3949	3044.51	3065.5474	3122.6665	3148.3694	3480.0096	3487.059	3562.606
NC1(COC(=N)C1)C#N	N[C@]1(CO[C]([NH])C1)C#N	
InChI=1S/C5H7N3O/c6-2-5(8)1-4(7)9-3-5/h7H,1,3,8H2	InChI=1S/C5H7N3O/c6-2-5(8)1-4(7)9-3-5/h7H,1,3,8H2/t5-/m0/s1
