20
gdb 63227	2.28917	1.53566	1.15518	4.1238	81.5	-0.2348	0.0074	0.2421	1145.5319	0.170318	-403.192455	-403.183362	-403.182418	-403.226023	34.339	
C	-0.0604630092	 1.5712597226	-0.0004008674	-0.404254
C	-0.0457509148	 0.0298078477	-0.0045310951	 0.208067
C	-1.4849680334	-0.5221452151	-0.0219180024	-0.404434
C	 0.7617950283	-0.5080678872	-1.168075714	-0.080944
C	 1.8093005962	-1.2247258116	-0.777025086	-0.10692
C	 1.8983059591	-1.2999878948	 0.7196072636	-0.208654
N	 0.7353899394	-0.5128104493	 1.1345810262	-0.069581
C	 0.4515025667	-0.3384379972	 2.4459466303	 0.138236
O	 1.1105070377	-0.7991591142	 3.3591244591	-0.349724
H	 0.9580876439	 1.9661788142	 0.0317190495	 0.126713
H	-0.5500462465	 1.948980524	-0.9039721514	 0.118036
H	-0.610899229	 1.9583018573	 0.8627601085	 0.121623
H	-2.0064402924	-0.1940573486	-0.9270287204	 0.118093
H	-1.4788443971	-1.6148822248	-0.0034348249	 0.126757
H	-2.0562459044	-0.1628801776	 0.8396834347	 0.121649
H	 0.4696411837	-0.2990823201	-2.1902073599	 0.103546
H	 2.5301554757	-1.7086773701	-1.4237204795	 0.111725
H	 1.8395059157	-2.326298152	 1.1066031848	 0.130709
H	 2.827971082	-0.873674338	 1.12033524	 0.130593
H	-0.4548982116	 0.2755710747	 2.6127032142	 0.068765
76.2668	120.3077	208.1136	223.4283	248.345	261.298	332.6706	334.8621	345.2552	413.721	522.4105	537.239	612.0939	746.6598	757.4193	843.7574	883.109	927.1881	953.8285	966.9236	981.4656	1019.269	1029.7111	1037.3935	1095.4815	1163.0748	1180.3225	1195.1207	1231.4448	1241.9897	1333.0921	1372.0691	1395.7275	1396.2629	1418.5834	1446.4922	1479.4026	1483.7749	1500.1488	1505.8186	1511.8808	1697.5604	1782.8063	2940.1823	3012.2592	3030.6825	3035.6894	3040.5947	3104.1543	3110.2388	3122.4018	3124.4888	3200.6314	3225.839
CC1(C)C=CCN1C=O	CC1(C)C=CCN1C=O	
InChI=1S/C7H11NO/c1-7(2)4-3-5-8(7)6-9/h3-4,6H,5H2,1-2H3	InChI=1S/C7H11NO/c1-7(2)4-3-5-8(7)6-9/h3-4,6H,5H2,1-2H3
