19
gdb 82746	2.25835	2.17897	1.55184	1.7313	73.87	-0.2341	0.0661	0.3002	935.2878	0.160011	-422.986516	-422.978998	-422.978054	-423.017876	30.834	
C	-0.001644772	 1.4650858559	 0.0322471761	-0.516921
C	 0.0104430095	-0.0315837732	 0.0982963692	 0.405125
O	 0.7865639668	-0.7066268702	-0.9498353181	-0.331251
C	 0.8177986812	-1.8004347754	-0.026480802	 0.118311
C	-0.6764981598	-2.1663166396	 0.419896117	-0.157653
C	-0.2545903765	-1.8464325358	 1.8783792272	-0.249036
C	 0.7483581336	-0.8898534461	 1.2116549791	-0.116902
C	-1.3117335421	-0.8267268894	-0.0272565912	 0.118906
O	-2.3166713063	-0.2931894198	 0.8125371642	-0.44363
H	 1.0042804677	 1.874062646	 0.1602203872	 0.122934
H	-0.3900733598	 1.7985879597	-0.9359404162	 0.128322
H	-0.652142403	 1.8623840006	 0.8164966788	 0.140096
H	 1.5438151937	-2.5843157119	-0.2367651622	 0.083796
H	-1.1698343994	-3.0973804806	 0.1424949842	 0.061139
H	-1.0168609269	-1.4440925509	 2.5459592218	 0.109157
H	 0.2655460468	-2.6835487709	 2.352473876	 0.095969
H	 1.6175339907	-0.4478074594	 1.6962353911	 0.071813
H	-1.6321159768	-0.8372608741	-1.0760255807	 0.073396
H	-3.0857725674	-0.8699230651	 0.7705368484	 0.286431
189.6608	214.3482	227.9351	249.9793	307.7521	360.6636	472.1944	514.1227	549.7547	622.9869	711.2093	733.8944	793.3626	833.3298	848.1921	862.4837	880.3519	939.5818	969.9865	990.4636	1014.0464	1016.0881	1063.1961	1093.0884	1116.9875	1139.4611	1159.7303	1179.9369	1203.4071	1221.0826	1231.981	1257.1966	1283.2325	1301.1152	1316.1871	1358.2654	1410.5582	1426.8054	1480.0728	1490.1146	1491.2998	3032.0475	3040.8103	3066.0401	3110.453	3117.8399	3124.7614	3126.4751	3133.1428	3137.9413	3821.0509
CC12OC3C(CC13)C2O	C[C@@]12O[C@@H]3[C@@H](C[C@H]13)[C@H]2O	
InChI=1S/C7H10O2/c1-7-4-2-3(6(7)8)5(4)9-7/h3-6,8H,2H2,1H3	InChI=1S/C7H10O2/c1-7-4-2-3(6(7)8)5(4)9-7/h3-6,8H,2H2,1H3/t3-,4+,5-,6-,7-/m1/s1
