15
gdb 15925	3.57712	1.89612	1.53218	3.1355	65.39	-0.2678	0.0069	0.2747	840.2391	0.119938	-362.641034	-362.634183	-362.633239	-362.67235	25.461	
N	 0.058992696	-1.150320048	-0.2550503202	-0.340259
C	 0.0282015265	-0.0019012844	-0.1175268611	 0.190949
C	-0.0062293257	 1.428278829	 0.0461428623	 0.145485
C	-0.527825956	 2.3021906772	-1.1417821073	-0.287587
C	 0.7655140091	 3.171572581	-1.0816045938	-0.228451
C	 1.2536304357	 2.3657148067	 0.1378623097	 0.080659
O	 0.7947572078	 2.9070545128	 1.3873072867	-0.281957
C	-0.3297351177	 2.0063216381	 1.4438015361	-0.114995
H	-0.6384145113	 1.7381897614	-2.0684382776	 0.134018
H	-1.4688313508	 2.8142615327	-0.9294999363	 0.11899
H	 1.4024397441	 3.0500057611	-1.9610916275	 0.118216
H	 0.6335294782	 4.23535336	-0.8773503896	 0.123689
H	 2.2874350725	 2.0163097981	 0.1813168013	 0.099732
H	-1.2891769043	 2.5289334154	 1.5326659713	 0.115306
H	-0.2264843642	 1.282031559	 2.2595215962	 0.126204
84.9565	162.2838	182.9193	336.1439	366.1991	517.5102	552.9171	570.4757	667.1391	742.5	859.8227	879.5274	916.5111	940.1352	956.8242	1008.5417	1040.2065	1077.3734	1109.4804	1138.8434	1175.5395	1196.0142	1225.6761	1254.1757	1274.019	1284.2554	1324.3721	1367.1768	1463.2813	1485.9233	1524.2524	2347.951	3024.8435	3071.2049	3076.4196	3078.1735	3093.4853	3126.4057	3143.185
N#CC12CCC1OC2	N#C[C@]12CC[C@H]1OC2	
InChI=1S/C6H7NO/c7-3-6-2-1-5(6)8-4-6/h5H,1-2,4H2	InChI=1S/C6H7NO/c7-3-6-2-1-5(6)8-4-6/h5H,1-2,4H2/t5-,6+/m1/s1
