20
gdb 6160	4.52443	1.13887	1.11738	1.652	72.02	-0.245	0.0729	0.3178	1171.6182	0.174761	-386.123646	-386.114574	-386.113629	-386.157007	33.918	
C	 0.1047925018	 1.2343730685	-0.2821226362	-0.240299
O	-0.0218608457	-0.0239543582	 0.3395938866	-0.237242
C	-1.3076502251	-0.5713301084	 0.2207919402	 0.164055
C	-1.7382907372	-1.1655338174	-1.152754849	-0.293229
C	-2.2837984736	-2.405892887	-0.400542686	 0.414129
C	-3.7912641153	-2.3782301978	-0.1673318519	-0.44833
O	-1.8902612874	-3.6070100481	-1.0380814116	-0.472512
C	-1.446237745	-1.972402961	 0.8452340409	-0.318624
H	 1.1284203097	 1.5787881469	-0.1161979329	 0.126036
H	-0.0783008585	 1.1794394543	-1.365891166	 0.108458
H	-0.592310942	 1.9722562883	 0.1465990254	 0.10133
H	-2.0574816117	 0.1370665755	 0.6072870241	 0.058679
H	-2.4365677079	-0.6050247107	-1.7787645886	 0.092399
H	-0.8575677356	-1.4473786506	-1.7350372861	 0.117984
H	-4.3241259617	-2.5121149556	-1.1139346191	 0.124079
H	-4.0932348649	-3.1825931437	 0.5158181127	 0.10529
H	-4.1123786665	-1.4320570912	 0.2802186169	 0.118892
H	-2.2471032058	-4.3459257242	-0.5327235515	 0.272031
H	-0.4765451119	-2.4754428118	 0.8376252473	 0.116557
H	-1.902051536	-2.053241538	 1.8352452348	 0.090315
76.9333	109.1191	190.4661	234.5229	260.8054	269.8166	310.6119	320.3467	390.2646	432.9694	459.8598	496.1845	600.4284	743.9203	827.3508	884.0163	893.8956	953.9519	974.8329	1013.139	1025.0723	1050.8046	1124.6152	1139.6676	1166.7656	1185.7493	1196.1958	1214.5199	1248.5134	1271.9262	1286.3473	1293.0833	1377.7345	1394.5975	1409.2961	1460.1984	1478.818	1485.5902	1489.7084	1490.1713	1500.4478	1510.2443	2967.064	2975.5099	3019.354	3019.5875	3060.1228	3065.5455	3085.9811	3109.2276	3113.7813	3126.1352	3128.8582	3796.5662
COC1CC(C)(O)C1	CO[C@H]1C[C@@](C)(O)C1	
InChI=1S/C6H12O2/c1-6(7)3-5(4-6)8-2/h5,7H,3-4H2,1-2H3	InChI=1S/C6H12O2/c1-6(7)3-5(4-6)8-2/h5,7H,3-4H2,1-2H3/t5-,6+
