18
gdb 55391	3.46335	1.10859	0.96264	2.2261	73.37	-0.2457	-0.0246	0.2211	1244.0461	0.14784	-439.118	-439.109219	-439.108275	-439.152929	31.269	
C	-0.5035254384	 1.3570164192	 0.0760760194	-0.483906
C	 0.3888921849	 0.1386745768	-0.0453417589	 0.382155
O	 1.1088223094	-0.2283033738	 0.8572863287	-0.308731
C	 0.3204029808	-0.6316822019	-1.3582626486	-0.150628
C	 1.6532613651	-1.3106150378	-1.6716226117	-0.075851
O	 1.5605848752	-2.1263151651	-2.8485344656	-0.225873
C	 0.3832605708	-2.7599153538	-3.0476505693	 0.132484
N	-0.6988934983	-2.670293342	-2.3993864708	-0.271984
C	-0.7584702896	-1.7412776439	-1.2800309229	-0.160502
H	-0.1572960107	 2.1362554009	-0.6136426807	 0.146248
H	-1.5326919361	 1.1166721863	-0.2129558953	 0.143352
H	-0.4801712926	 1.7396568653	 1.0969618162	 0.146157
H	 0.0510024166	 0.0482900346	-2.1749345695	 0.092208
H	 2.4453523636	-0.5865585054	-1.8740635172	 0.123919
H	 1.9612970677	-1.9293539178	-0.8236346392	 0.138807
H	 0.4589946635	-3.4150842428	-3.9133423359	 0.127195
H	-0.6403274554	-2.299467627	-0.3419524329	 0.130395
H	-1.7612066365	-1.3009724916	-1.2586618857	 0.114557
21.4381	120.2562	137.5639	153.5751	176.3782	291.9182	321.9812	472.4314	497.9458	523.586	586.1329	599.3606	777.524	894.0697	899.5678	922.8795	947.942	960.8393	977.8325	996.3778	1043.4328	1109.0756	1129.1684	1178.0154	1190.2726	1227.3896	1286.6484	1321.6682	1346.4063	1352.842	1383.6155	1403.9224	1419.4356	1461.2155	1473.989	1486.0827	1510.8939	1736.0712	1800.1822	3021.754	3033.2877	3041.4293	3062.401	3067.5338	3093.661	3117.5804	3153.4547	3163.2718
CC(=O)C1COC=NC1	CC(=O)[C@H]1COC=NC1	
InChI=1S/C6H9NO2/c1-5(8)6-2-7-4-9-3-6/h4,6H,2-3H2,1H3	InChI=1S/C6H9NO2/c1-5(8)6-2-7-4-9-3-6/h4,6H,2-3H2,1H3/t6-/m1/s1
