21
gdb 72090	2.73925	1.69955	1.55403	1.4644	80.93	-0.2152	0.0821	0.2973	993.7923	0.185673	-387.10251	-387.095067	-387.094123	-387.133981	30.597	
C	 0.0190005821	 1.5343036263	 0.0584999009	-0.492064
C	 0.0477510333	 0.0278073545	 0.019610415	 0.292351
C	 0.3485634317	-0.6912485263	-1.2907395112	-0.26512
C	 0.5208178206	-2.1564832459	-0.8377763955	-0.078007
C	 1.3396104064	-2.0281368527	 0.4662775875	-0.223978
C	 0.6743105564	-0.8322506077	 1.1302417066	-0.138764
C	-0.8199264455	-0.7975812911	 0.9347095071	 0.090698
O	-1.5305655434	-1.9216621902	 0.4829020697	-0.277569
C	-0.8593499982	-2.7214515479	-0.4916780372	-0.053308
H	 0.9798652175	 1.9595470317	-0.2573401296	 0.112395
H	-0.7556255454	 1.9363474576	-0.6054683025	 0.117607
H	-0.1891380191	 1.9032004353	 1.0683150292	 0.113918
H	-0.4499721085	-0.5777097128	-2.0337120882	 0.09505
H	 1.2729287622	-0.2995469093	-1.7336642581	 0.091779
H	 0.9965626104	-2.7915623415	-1.5894741074	 0.068662
H	 1.2961051409	-2.9407522255	 1.0716055979	 0.098084
H	 2.3943532051	-1.8177013282	 0.2544150079	 0.095101
H	 1.1141601184	-0.3836406074	 2.015146657	 0.074795
H	-1.4206541602	-0.272571568	 1.6700593934	 0.093368
H	-1.4905276815	-2.7689185445	-1.3906937597	 0.092364
H	-0.7667511235	-3.7423066065	-0.094433613	 0.092637
124.7777	201.5029	236.4051	289.9574	346.6053	392.9209	494.9791	498.5788	585.126	619.5961	714.2964	768.2429	832.821	854.9329	883.4022	909.3043	917.6495	942.0869	981.8309	999.7914	1009.4171	1045.822	1057.5033	1084.6542	1107.7587	1114.5429	1144.8924	1181.7304	1195.4492	1224.8889	1241.0635	1275.9782	1301.1338	1312.1879	1334.4691	1350.3555	1356.0405	1411.5978	1418.6559	1451.3284	1488.5877	1491.4511	1498.4679	1510.0664	1526.2795	2989.2254	3015.3306	3018.6999	3021.1571	3029.721	3060.9298	3068.4676	3073.7067	3079.4572	3091.4607	3155.229	3168.3863
CC12CC3CC1C2OC3	C[C@@]12C[C@H]3C[C@@H]1[C@@H]2OC3	
InChI=1S/C8H12O/c1-8-3-5-2-6(8)7(8)9-4-5/h5-7H,2-4H2,1H3	InChI=1S/C8H12O/c1-8-3-5-2-6(8)7(8)9-4-5/h5-7H,2-4H2,1H3/t5-,6-,7+,8-/m1/s1
