16
gdb 105743	2.32554	1.4771	1.2199	2.5671	65.11	-0.2504	-0.0349	0.2155	1062.0351	0.123413	-475.031605	-475.022934	-475.02199	-475.065667	30.562	
O	 0.6519027987	 0.5968409341	-0.6102639503	-0.412624
C	-0.2110960691	 0.4703261316	 0.5047351923	-0.119876
C	-1.511144548	-0.2779288451	 0.1606913808	 0.138745
C	-1.3391351951	-1.7920819598	-0.1016703548	-0.164384
O	-2.145073039	-2.4215856022	 0.9275030859	-0.212692
C	-2.6962928625	-1.4086159819	 1.6215142152	 0.124094
N	-2.4357908231	-0.2035725204	 1.314572791	-0.308684
C	-2.1944657985	 0.4425162496	-1.0087741935	 0.161145
O	-2.5189161626	-0.0851955228	-2.0382216109	-0.249224
H	 1.0245870119	-0.2662717198	-0.8163928798	 0.291769
H	 0.2724959884	-0.0261106846	 1.3584462678	 0.103867
H	-0.4647949152	 1.4874657718	 0.8174231618	 0.133502
H	-1.7265224302	-2.0831036227	-1.0801817476	 0.154505
H	-0.3110293624	-2.1489377368	 0.014205307	 0.106431
H	-3.3487644361	-1.718436619	 2.4305071462	 0.151808
H	-2.3930732673	 1.5158866379	-0.8084009211	 0.101618
76.1758	81.2674	104.5417	190.8475	263.3708	269.1435	318.8188	354.4872	443.9272	535.5918	596.5787	664.6258	817.2517	884.8397	918.077	954.8416	957.296	970.6248	982.7857	1063.6414	1091.585	1116.685	1147.9907	1191.0242	1240.126	1282.9411	1325.8868	1375.3092	1377.5265	1394.1067	1416.4453	1496.8706	1514.4614	1686.3967	1837.9337	2921.9192	3003.7548	3052.3603	3094.0915	3119.7133	3217.4431	3818.6779
OCC1(COC=N1)C=O	OC[C@]1(COC=N1)C=O	
InChI=1S/C5H7NO3/c7-1-5(2-8)3-9-4-6-5/h1,4,8H,2-3H2	InChI=1S/C5H7NO3/c7-1-5(2-8)3-9-4-6-5/h1,4,8H,2-3H2/t5-/m0/s1
