17
gdb 48547	2.90751	1.47373	1.41527	3.7047	73.48	-0.2474	-0.0232	0.2241	992.3965	0.137227	-421.809103	-421.80197	-421.801026	-421.840879	27.64	
O	-0.1616421388	 0.0286734839	-0.0987435491	-0.27029
C	-0.0040684355	 1.2192063885	 0.0407346473	 0.018603
C	 1.2826877003	 1.9046667699	-0.0422003213	 0.288356
C	 1.8743496589	 3.0252936664	 0.8500089788	-0.129332
C	 3.1915174815	 2.2494710464	 0.9553947399	-0.250706
C	 2.7132851889	 1.3602927367	-0.2399996012	 0.010694
O	 3.1750844048	 1.8597519705	-1.4838794827	-0.260221
C	 2.6383154122	 3.1785829007	-1.6313991644	-0.099672
C	 1.5324570898	 3.298309351	-0.5852306481	-0.137255
H	-0.8636589684	 1.8944887481	 0.2640195414	 0.062913
H	 1.3655020917	 3.5422920213	 1.655455392	 0.103383
H	 4.1275204074	 2.7957404813	 0.8037413779	 0.107041
H	 3.2448108572	 1.6818775101	 1.8875785821	 0.115642
H	 2.8892889333	 0.2881637577	-0.1972032155	 0.110221
H	 3.4248022334	 3.9305539913	-1.4820605366	 0.106962
H	 2.2471971903	 3.287587939	-2.6488935662	 0.116082
H	 0.6809024029	 3.9404297271	-0.7800345042	 0.107579
93.9287	159.0205	225.1991	244.0413	409.8409	449.7211	473.8479	638.8801	679.2943	740.7694	767.6226	812.0865	863.5344	894.6538	931.6332	944.1624	974.7482	1003.5172	1037.2269	1047.0792	1073.3663	1083.7172	1110.6169	1157.1583	1161.1909	1180.3195	1222.2395	1239.3178	1291.3451	1317.0255	1342.7958	1378.1542	1412.3682	1450.5936	1487.8714	1523.8819	1798.3919	2849.5709	3011.4739	3052.3401	3062.903	3111.9152	3156.887	3179.4788	3190.1038
O=CC12C3CC1OCC23	O=C[C@@]12[C@H]3C[C@@H]1OC[C@@H]23	
InChI=1S/C7H8O2/c8-3-7-4-1-6(7)9-2-5(4)7/h3-6H,1-2H2	InChI=1S/C7H8O2/c8-3-7-4-1-6(7)9-2-5(4)7/h3-6H,1-2H2/t4-,5+,6-,7-/m0/s1
