18
gdb 70922	3.6419	1.5467	1.33637	1.7117	75.75	-0.2519	0.0074	0.2593	991.485	0.149145	-401.878674	-401.871695	-401.87075	-401.909597	28.76	
C	 0.0680835723	 1.5176027467	-0.0092166298	-0.508111
C	 0.014513793	 0.0149681222	 0.0083473931	 0.272312
C	 0.6133407284	-0.9630066896	-1.1159604824	-0.337945
C	-0.0371969567	-1.8402164328	-0.0282120061	 0.399922
C	 0.6282080637	-0.9479050782	 1.0553500881	-0.318685
O	-0.5136862833	-3.1424669833	 0.2923274747	-0.2888
C	-1.6549085708	-2.7880609787	 0.9991451339	 0.085791
N	-2.0985684776	-1.588300174	 0.9811874125	-0.305033
C	-1.2469017679	-0.9422840763	-0.0431023053	-0.016688
H	 1.1034171464	 1.8739029081	-0.0403497275	 0.122686
H	-0.4556099202	 1.9221483594	-0.8814430539	 0.124318
H	-0.4040092582	 1.9292128883	 0.8885779359	 0.133183
H	 0.1266085109	-0.9381270497	-2.0935762059	 0.106896
H	 1.7026228973	-0.9725779314	-1.1939506757	 0.105614
H	 1.7189137414	-0.9788684095	 1.110949454	 0.091777
H	 0.1666456358	-0.9482541854	 2.0430645874	 0.113916
H	-2.1005352855	-3.6134412673	 1.543388543	 0.139135
H	-1.8213193491	-0.8498048488	-0.9723459261	 0.079713
204.6189	212.0842	242.9017	306.3398	387.0078	487.0246	511.3122	537.7776	574.6849	622.7422	732.5487	757.7269	824.3168	875.9644	911.3283	952.5686	961.3026	976.7665	991.7326	1017.502	1047.5238	1055.6179	1080.8681	1091.8199	1131.4973	1162.6047	1167.2025	1200.8456	1243.22	1254.2184	1307.5322	1323.6246	1380.0313	1411.4024	1487.3142	1490.6604	1492.3734	1538.1848	1609.9137	3031.4476	3035.9426	3062.6023	3071.3669	3099.1966	3104.5658	3135.6727	3145.3789	3216.0385
CC12CC3(C1)OC=NC23	C[C@@]12C[C@]3(C1)O[CH][N][C@@H]23	
InChI=1S/C7H9NO/c1-6-2-7(3-6)5(6)8-4-9-7/h4-5H,2-3H2,1H3	InChI=1S/C7H9NO/c1-6-2-7(3-6)5(6)8-4-9-7/h4-5H,2-3H2,1H3/t5-,6-,7-/m0/s1
