17
gdb 18563	3.68195	1.99491	1.62581	3.7309	67.56	-0.2425	0.0361	0.2785	830.6742	0.145115	-363.90712	-363.900417	-363.899473	-363.938002	26.219	
O	-0.0412729727	-0.0046451554	 0.0547181647	-0.368589
C	-0.021775412	 1.1969772796	 0.0218817913	 0.421047
N	-1.0144013716	 2.1481322362	-0.0015815083	-0.324312
C	-0.1193862814	 3.3139269462	 0.0432253118	 0.033193
C	-0.0398676442	 4.0434552174	 1.3903823686	-0.214029
C	 0.7580859597	 3.0914082777	 2.304915719	-0.215953
C	 1.8072096276	 2.4595577253	 1.3658472169	-0.214723
C	 1.0740787948	 2.2949705298	 0.0261482396	-0.176849
H	-2.0154911307	 2.0643236146	 0.1056684189	 0.244661
H	-0.2326846051	 3.9779047921	-0.8175740883	 0.080948
H	 0.5132754635	 4.9796057235	 1.2457962362	 0.103143
H	-1.0247197993	 4.3072583545	 1.7885397438	 0.098235
H	 1.2077544865	 3.6045503433	 3.1585778237	 0.100151
H	 0.0986507773	 2.314924958	 2.7068622365	 0.116458
H	 2.6567790884	 3.139842609	 1.2354024894	 0.101036
H	 2.2003852273	 1.509949751	 1.7388678908	 0.120805
H	 1.7200973218	 2.2856672873	-0.8521558648	 0.094776
94.0503	193.4351	248.326	367.7975	401.0987	490.1085	574.9948	604.4611	712.6467	766.9566	826.4177	849.2683	861.0979	890.2415	927.6823	943.3353	974.7061	1037.2187	1056.1914	1091.3749	1127.2253	1162.8702	1178.5298	1186.4689	1261.3945	1270.9607	1283.5685	1324.9405	1331.4526	1352.7577	1375.0723	1381.4287	1477.074	1486.1572	1501.4233	1888.813	3034.0685	3038.7937	3051.9667	3074.6234	3084.2837	3096.2895	3105.649	3115.7286	3595.2594
O=C1NC2CCCC12	O=C1N[C@H]2CCC[C@@H]12	
InChI=1S/C6H9NO/c8-6-4-2-1-3-5(4)7-6/h4-5H,1-3H2,(H,7,8)	InChI=1S/C6H9NO/c8-6-4-2-1-3-5(4)7-6/h4-5H,1-3H2,(H,7,8)/t4-,5+/m1/s1
