14
gdb 27631	2.99106	1.31711	0.91968	0.7947	73.86	-0.2153	-0.0099	0.2054	1189.7855	0.099821	-436.700931	-436.692665	-436.691721	-436.733702	30.533	
C	 0.1368488275	 1.4858167646	 0.1128175689	-0.503801
C	-0.0226326767	 0.0171008215	 0.0389161183	 0.252132
C	-1.0846763913	-0.8291071282	-0.0646549224	 0.048711
N	-0.6235959638	-2.1606395585	-0.0941291234	-0.436603
C	 0.6540316031	-2.0252772606	-0.0081201296	 0.459645
O	 1.5929250129	-2.9662643254	 0.0094652635	-0.402168
O	 1.117207613	-0.7659974351	 0.0760426563	-0.191643
C	-2.4529154325	-0.4849040662	-0.1352639544	 0.238227
C	-3.6161727838	-0.1799376124	-0.1947532203	-0.425916
H	 0.7376547404	 1.8687260282	-0.7200305242	 0.145155
H	-0.8496505633	 1.9520231685	 0.0718897167	 0.154847
H	 0.6283340422	 1.7923983253	 1.0432708934	 0.145142
H	 1.1365596625	-3.815153433	-0.0562850023	 0.32484
H	-4.6437215202	 0.0822947514	-0.2475480705	 0.191431
135.0958	140.6601	151.8534	204.8855	274.3023	328.0708	421.0161	438.432	477.2017	552.593	555.7271	593.6911	651.5616	672.6636	708.427	750.5591	813.553	977.6084	1029.3962	1064.5248	1135.8846	1196.159	1240.4625	1325.6238	1415.9229	1471.2704	1475.0571	1496.9707	1645.1606	1681.4024	2235.8404	3029.863	3080.6074	3136.4263	3502.9466	3805.1342
CC1=C(N=C(O)O1)C#C	Cc1c(nc(O)o1)C#C	
InChI=1S/C6H5NO2/c1-3-5-4(2)9-6(8)7-5/h1H,2H3,(H,7,8)	InChI=1S/C6H5NO2/c1-3-5-4(2)9-6(8)7-5/h1H,2H3,(H,7,8)
