21
gdb 86027	3.13099	0.96251	0.87892	1.3847	83.91	-0.2574	0.0477	0.3051	1401.42	0.179919	-387.049193	-387.039339	-387.038395	-387.083628	37.803	
C	-0.4957646283	 1.8017427041	 0.2162217213	-0.455655
C	-0.0219308291	 0.358601075	 0.0858109436	 0.329395
C	-1.2058830497	-0.5867936851	-0.2336407037	-0.408373
C	-1.8434236075	-0.315449948	-1.517291991	 0.316233
C	-2.3484586734	-0.0839837713	-2.5837506373	-0.453727
C	 1.2006288322	 0.1020761277	-0.8515184295	-0.304504
C	 1.7994096278	-0.8326134921	 0.2322152916	 0.176696
O	 3.1827908159	-0.8264451649	 0.4772916572	-0.434863
C	 0.8295638856	-0.203897121	 1.2686583417	-0.315844
H	 0.3426434548	 2.4705274143	 0.4359762703	 0.104475
H	-0.9720495452	 2.1457369874	-0.7074742399	 0.132076
H	-1.2261915131	 1.9044734174	 1.0279268507	 0.111883
H	-0.8615962947	-1.6285503139	-0.221832672	 0.129904
H	-1.9498226709	-0.5052738083	 0.5703631945	 0.127056
H	-2.8042716993	 0.113673113	-3.5221290261	 0.195128
H	 1.0046070058	-0.309835414	-1.8442921734	 0.111288
H	 1.8084854702	 1.007098023	-0.9640031724	 0.087231
H	 1.5509044605	-1.8796339537	 0.0378334339	 0.092493
H	 3.4528081833	 0.0845429689	 0.6348622467	 0.274677
H	 1.3208810501	 0.6054186886	 1.8202935913	 0.087413
H	 0.3395410051	-0.8666590969	 1.9879387227	 0.097018
66.9607	100.8466	141.3482	229.1738	263.4089	298.8061	305.2723	333.7688	355.0114	365.1827	439.1525	457.9387	499.7756	613.5664	618.9484	639.4787	745.0006	823.5468	865.7036	881.0524	938.0043	944.2559	973.3383	997.6181	1000.4474	1070.5358	1088.1768	1111.9009	1153.4331	1176.2779	1221.6317	1247.814	1277.5713	1282.9462	1315.0214	1336.6685	1340.6487	1413.7835	1437.6541	1465.2644	1471.1553	1490.6741	1494.5181	1500.3155	2234.3308	3014.5904	3023.8734	3037.1746	3043.7604	3048.9413	3068.8746	3088.9423	3096.6795	3104.5359	3109.0248	3505.9738	3805.0583
CC1(CC#C)CC(O)C1	C[C@@]1(CC#C)C[C@@H](O)C1	
InChI=1S/C8H12O/c1-3-4-8(2)5-7(9)6-8/h1,7,9H,4-6H2,2H3	InChI=1S/C8H12O/c1-3-4-8(2)5-7(9)6-8/h1,7,9H,4-6H2,2H3/t7-,8-
