17
gdb 26676	2.26324	1.58327	0.94172	2.1752	73.02	-0.1578	0.0546	0.2123	1202.5984	0.13487	-455.166954	-455.156852	-455.155908	-455.201495	36.227	
C	-0.2101035185	 1.4549186493	 0.0516034956	-0.506107
C	-0.0598320622	-0.0253148456	-0.0245910974	 0.254524
C	 0.1339836057	-0.8644297103	-1.104729443	 0.007392
N	 0.2548411599	-0.5990119698	-2.5034014786	-0.633841
C	 0.2117397126	-2.2042028427	-0.6173551289	 0.182256
O	 0.3992138557	-3.3253541824	-1.3776709319	-0.47627
C	 0.0645252714	-2.153518928	 0.7418644723	 0.281112
O	 0.0541782907	-3.1064868496	 1.7151727196	-0.4495
N	-0.0992264829	-0.8358657642	 1.0962401439	-0.367747
H	-0.1453763765	 1.8780899907	-0.9547201054	 0.119962
H	-1.1764306234	 1.7621939529	 0.4735651471	 0.123594
H	 0.5734124606	 1.9303781773	 0.6568355059	 0.123606
H	 1.0454722419	 0.0002030984	-2.7165050929	 0.239063
H	-0.5734756125	-0.1549002126	-2.8857750438	 0.239062
H	 0.4625688945	-2.9977473654	-2.2863538844	 0.291614
H	 0.1811063756	-3.9567232414	 1.2809590576	 0.311445
H	-0.2284850424	-0.5274556866	 2.0436805841	 0.259836
97.7757	131.5751	161.08	181.1356	199.9088	224.2526	245.4525	253.6992	284.5753	326.6702	394.2349	461.9088	554.1621	605.2939	613.0216	630.3148	674.4559	757.452	800.4306	942.0287	995.0341	1057.1315	1119.8285	1168.6116	1197.7557	1244.0394	1264.3881	1339.9505	1403.7723	1416.525	1479.6295	1480.1253	1498.6149	1552.4833	1604.969	1648.2122	1723.0969	3002.5981	3041.2949	3106.0345	3496.4472	3564.427	3686.0503	3739.0008	3831.4249
CC1=C(N)C(O)=C(O)N1	Cc1c(N)c(O)c(O)[nH]1	
InChI=1S/C5H8N2O2/c1-2-3(6)4(8)5(9)7-2/h7-9H,6H2,1H3	InChI=1S/C5H8N2O2/c1-2-3(6)4(8)5(9)7-2/h7-9H,6H2,1H3
