25
gdb 122207	2.47868	0.79008	0.67567	1.2828	89.35	-0.2607	0.0796	0.3403	1789.4844	0.227429	-389.480872	-389.469817	-389.468872	-389.517879	40.455	
C	 0.5950068535	-0.106837791	 1.3489875149	-0.381317
C	 0.0238156937	-0.1939023707	-0.0718138182	-0.253793
C	-1.3982580296	-0.7378634367	-0.1425280639	 0.408634
C	-2.4823971483	 0.0732806912	 0.5572632224	-0.281628
C	-2.6781207534	 1.48425511	-0.0123608232	-0.166642
C	-3.8396359779	 2.224238842	 0.6372992436	-0.074179
O	-3.9153311231	 3.5188812594	 0.0580834619	-0.422456
C	-1.797133714	-1.4612652925	-1.4074567077	-0.311439
C	-1.5530348478	-2.2411278895	-0.1360529776	-0.316867
H	 1.6367286053	 0.2283919683	 1.3304776475	 0.110323
H	 0.0357869599	 0.6000738847	 1.9701515506	 0.116581
H	 0.5641492588	-1.0820958041	 1.8464836846	 0.116065
H	 0.0662967228	 0.795750884	-0.544159838	 0.099893
H	 0.6705855611	-0.8410519143	-0.6768682752	 0.089926
H	-3.4292730942	-0.4774914808	 0.4816934852	 0.087922
H	-2.2603326544	 0.1393318248	 1.6309655982	 0.095316
H	-1.7733652254	 2.0873096477	 0.1246438406	 0.107917
H	-2.8575002156	 1.4318022226	-1.0928877819	 0.106896
H	-4.7748464145	 1.661710414	 0.4784356659	 0.081358
H	-3.6806519395	 2.2849109124	 1.7270488389	 0.081592
H	-4.6495721369	 3.9877067153	 0.4649854768	 0.283939
H	-2.8209196774	-1.3617185818	-1.7538778531	 0.105493
H	-1.0676602318	-1.5440767268	-2.2065117896	 0.106176
H	-0.6548167282	-2.8474668692	-0.0755800104	 0.105819
H	-2.4097692931	-2.670940699	 0.3727286376	 0.104469
42.9487	71.6074	97.7431	124.4012	147.762	221.6181	236.4529	265.9892	298.7882	315.1759	350.0487	402.7233	463.3689	528.0604	708.5366	755.3087	778.4793	795.3398	857.9435	909.5828	912.1385	929.8455	961.7461	1017.1352	1025.4021	1046.5993	1051.2503	1068.1082	1077.0823	1083.6711	1117.9793	1128.534	1187.2688	1209.9685	1233.1251	1270.5814	1286.2049	1306.1018	1314.5084	1337.6452	1348.1928	1378.691	1407.1273	1407.9225	1461.9779	1467.7993	1481.3904	1488.5751	1498.1721	1502.0255	1505.7193	1511.5788	1528.2985	2954.0655	2978.4938	3008.9511	3021.0989	3034.1984	3036.9447	3039.5763	3052.1383	3081.7372	3102.5652	3104.5083	3122.2124	3126.9076	3198.8355	3213.3523	3830.0362
CCC1(CCCO)CC1	CCC1(CCCO)CC1	
InChI=1S/C8H16O/c1-2-8(5-6-8)4-3-7-9/h9H,2-7H2,1H3	InChI=1S/C8H16O/c1-2-8(5-6-8)4-3-7-9/h9H,2-7H2,1H3
