19
gdb 75257	2.63127	1.77618	1.39783	1.6206	80.11	-0.2188	0.0151	0.2339	1007.2473	0.159907	-385.845672	-385.838027	-385.837083	-385.877331	30.642	
C	-0.0867925566	 1.492978134	 0.0627782183	-0.505518
C	-0.0244555031	 0.0002091989	-0.016394749	 0.239497
C	 0.0387562297	-0.7687037869	-1.11754104	-0.157673
C	 0.0433529763	-2.2692578063	-0.8325785057	-0.350049
C	 0.0256445329	-2.3163857535	 0.6903252229	 0.141443
C	 1.1818116866	-1.7603582943	 1.4980538371	-0.3686
C	 0.0096743548	-0.8848005189	 1.1806575286	 0.309461
O	-1.0859700343	-1.0938317964	 2.0916268963	-0.327172
C	-1.2074522944	-2.4589635883	 1.5914657486	-0.135816
H	 0.7753860215	 1.8967736143	 0.6073581736	 0.130051
H	-0.1147193974	 1.9496041744	-0.929995619	 0.12198
H	-0.9808114242	 1.8118593155	 0.6117017919	 0.141071
H	 0.1236831608	-0.3746958641	-2.1273086857	 0.088376
H	-0.835312695	-2.7650677233	-1.2668039925	 0.109525
H	 0.918307269	-2.7677763353	-1.2690344957	 0.111716
H	 1.3188801106	-2.0940396304	 2.5225428277	 0.118743
H	 2.0946472918	-1.5634316705	 0.9468073004	 0.121496
H	-2.1378010959	-2.5834525187	 1.0244023989	 0.107273
H	-1.1686711432	-3.1944444804	 2.4040951633	 0.104195
150.9108	175.4847	236.1985	247.2631	304.3085	343.4295	431.766	549.6188	561.08	592.1679	684.5106	734.4765	790.2364	833.4525	864.0339	916.2106	929.891	937.758	951.3467	981.5863	996.2714	1032.0546	1060.7207	1066.2827	1106.1889	1135.2394	1152.5444	1186.8117	1230.3696	1264.6548	1301.1679	1320.8778	1361.4353	1388.195	1413.7526	1464.226	1477.1509	1480.1986	1490.3928	1512.21	1677.3805	3012.9179	3016.0232	3024.7784	3041.7952	3065.8853	3075.2153	3114.5049	3122.1504	3163.9475	3219.946
CC1=CCC23CC12OC3	CC1=CC[C@@]23C[C@@]12OC3	
InChI=1S/C8H10O/c1-6-2-3-7-4-8(6,7)9-5-7/h2H,3-5H2,1H3	InChI=1S/C8H10O/c1-6-2-3-7-4-8(6,7)9-5-7/h2H,3-5H2,1H3/t7-,8+/m0/s1
