22
gdb 7642	4.3081	1.10258	0.96151	1.5227	78.72	-0.2544	0.0738	0.3282	1294.8346	0.199002	-350.20368	-350.194272	-350.193328	-350.23766	35.208	
C	 0.0342019124	 1.5621443277	-0.0223259463	-0.402796
C	 0.0281400635	 0.0391941867	 0.1197030895	 0.118831
O	 0.6838489448	-0.3738812312	 1.3186572306	-0.433215
C	-1.3719790275	-0.55441589	 0.0299946524	 0.041105
C	-2.1198594373	-0.5304068652	-1.3337509257	-0.256137
C	-2.6370260907	-1.9674675282	-1.0374304795	 0.056139
C	-2.7001417607	-2.9778502186	-2.1720908439	-0.405814
C	-1.5168794314	-2.0999690557	 0.0333596724	-0.247131
H	 1.05456165	 1.9477712728	 0.0528914175	 0.121798
H	-0.386644644	 1.8738576719	-0.9838683388	 0.119263
H	-0.5663417432	 2.0271056276	 0.7700677973	 0.102682
H	 0.6395568172	-0.3961026002	-0.6819728457	 0.079276
H	 0.1838824936	-0.0143923778	 2.0600578056	 0.273195
H	-2.0003746474	-0.1083147734	 0.8135821975	 0.053027
H	-2.857966837	 0.2574257704	-1.5045285076	 0.092827
H	-1.4123563119	-0.5299534805	-2.1718408363	 0.093726
H	-3.6129639996	-1.9074443531	-0.5416153093	 0.067883
H	-1.7337396898	-3.053395774	-2.6838606046	 0.109521
H	-2.9589230484	-3.9764481628	-1.8020123125	 0.113177
H	-3.4513344356	-2.6949528495	-2.9183960931	 0.111531
H	-0.6211362449	-2.5773113823	-0.379664332	 0.098439
H	-1.7634285621	-2.5921223047	 0.9769144623	 0.092672
74.7861	77.5502	160.6919	231.1696	235.4472	270.4821	302.6493	321.4801	331.2937	414.914	459.2552	489.3591	616.6597	767.6384	808.1344	881.8129	896.7312	916.9396	950.0085	964.9207	985.5192	1035.7862	1043.6514	1103.6111	1108.7759	1132.7695	1145.9871	1193.985	1225.6914	1230.9063	1260.8678	1264.3454	1293.2945	1300.1482	1334.3945	1370.661	1399.2684	1399.9166	1411.9768	1419.1305	1475.8091	1490.3331	1493.6927	1494.6306	1496.5142	1503.2287	3002.1738	3020.0884	3020.6498	3027.3631	3030.8488	3034.5278	3046.9943	3088.1459	3088.5752	3091.5377	3095.72	3105.4162	3116.8066	3796.0949
CC(O)C1CC(C)C1	C[C@@H](O)[C@H]1C[C@@H](C)C1	
InChI=1S/C7H14O/c1-5-3-7(4-5)6(2)8/h5-8H,3-4H2,1-2H3	InChI=1S/C7H14O/c1-5-3-7(4-5)6(2)8/h5-8H,3-4H2,1-2H3/t5-,6-,7+/m1/s1
