16
gdb 52270	3.46513	1.00692	0.81817	5.3661	67.22	-0.2746	0.0094	0.284	1330.4584	0.123614	-475.033309	-475.024696	-475.023752	-475.068003	29.862	
N	-0.633747222	 1.2004644816	-0.3318209275	-0.53486
C	-0.3550049342	 0.0041869877	-0.0870749859	 0.434151
O	 0.8415959266	-0.6000177064	 0.2392717566	-0.248242
C	 0.1891796389	-1.8960028222	 0.4157151955	-0.10859
C	-1.167943054	-1.2742051737	 0.0179045993	-0.137267
C	-2.2851321886	-1.2907306179	 1.0556315476	-0.110091
O	-3.4647618389	-0.6806237453	 0.5389659024	-0.182153
C	-3.7123823258	 0.6116994281	 0.8667202528	 0.191936
O	-4.673705097	 1.1909544348	 0.467068708	-0.270321
H	 0.188667783	 1.8038031491	-0.2823722309	 0.235954
H	 0.6016570997	-2.6425962776	-0.265636033	 0.132774
H	 0.2771741766	-2.2367213181	 1.4514501189	 0.12496
H	-1.556362198	-1.620329074	-0.9423020086	 0.131798
H	-2.5566461977	-2.321550015	 1.3021045309	 0.131009
H	-1.9645412798	-0.7926319999	 1.9798505535	 0.119682
H	-2.9462165288	 1.0388383888	 1.5375494602	 0.089261
50.5705	70.3791	115.7247	168.5731	184.2516	297.1717	354.5774	381.4648	456.5668	659.9179	668.867	754.3257	809.1127	868.2907	900.0237	966.1116	1007.7318	1023.4442	1035.5487	1047.5704	1082.627	1128.7245	1151.7044	1174.4343	1225.4102	1241.5005	1291.7962	1337.6343	1380.625	1404.7613	1434.6009	1500.6354	1517.6887	1825.5362	1874.9444	2985.8102	3026.0407	3060.9864	3086.2342	3101.5948	3124.8414	3482.0965
N=C1OCC1COC=O	[NH][C]1OC[C@H]1COC=O	
InChI=1S/C5H7NO3/c6-5-4(2-9-5)1-8-3-7/h3-4,6H,1-2H2	InChI=1S/C5H7NO3/c6-5-4(2-9-5)1-8-3-7/h3-4,6H,1-2H2/t4-/m1/s1
