21
gdb 113314	2.56481	1.06703	0.87223	0.8792	87.05	-0.2384	0.0396	0.278	1440.5212	0.179024	-387.035657	-387.02517	-387.024226	-387.071143	38.339	
C	 0.2726766714	 1.3766306224	 0.2849834998	-0.375077
C	-0.2534125949	 0.0244016931	-0.2099075532	-0.196419
C	 0.5615725316	-0.5222191059	-1.3640430557	-0.058907
C	 1.8458893553	-1.2776106295	-1.1223672525	-0.347983
C	 0.6145126581	-2.0103019818	-1.6434512416	 0.215403
O	-0.0886569772	-2.8116827617	-0.7384991571	-0.271797
C	 0.4782520154	-4.0968739266	-0.5456068467	-0.251607
C	 0.6017081348	-2.4655948349	-3.0123537402	 0.319743
C	 0.5880878449	-2.8584248309	-4.1495737906	-0.482875
H	 1.3073538674	 1.294188006	 0.634288422	 0.116402
H	 0.2520941141	 2.1283642466	-0.5117891836	 0.113606
H	-0.3337874587	 1.7539924827	 1.1141419743	 0.112251
H	-0.254897577	-0.7039518406	 0.6057841751	 0.111609
H	-1.2983612071	 0.1287252535	-0.5273444463	 0.103294
H	 0.5465632924	 0.0926782225	-2.2600701391	 0.098281
H	 2.6863667756	-1.1357827964	-1.7915079092	 0.121381
H	 2.1059799085	-1.4901779265	-0.0900431	 0.120057
H	 0.4939390935	-4.6729816722	-1.4796238683	 0.123677
H	 1.5038780431	-4.0301343263	-0.1558643272	 0.107177
H	-0.1516439933	-4.6099933451	 0.1841439896	 0.126751
H	 0.570000182	-3.1980210181	-5.1555512294	 0.195031
67.3923	112.0465	127.0607	135.2756	164.4607	199.483	234.0638	264.9159	323.5249	367.5811	423.395	475.4917	554.4284	574.7028	651.9608	675.7235	676.4824	778.4469	809.7989	909.5961	921.0539	954.1559	966.0354	1039.4	1055.1855	1087.7763	1098.9056	1132.5931	1184.4578	1196.7809	1214.8173	1248.4187	1273.1222	1292.2952	1349.1589	1408.0564	1419.6438	1471.8872	1478.1019	1484.711	1491.3691	1497.8893	1508.9845	1510.2845	2227.4912	2998.4198	3031.0538	3034.5468	3058.1414	3082.4822	3104.5757	3104.6629	3125.0035	3132.1069	3145.8861	3225.9719	3501.1739
CCC1CC1(OC)C#C	CC[C@H]1C[C@]1(OC)C#C	
InChI=1S/C8H12O/c1-4-7-6-8(7,5-2)9-3/h2,7H,4,6H2,1,3H3	InChI=1S/C8H12O/c1-4-7-6-8(7,5-2)9-3/h2,7H,4,6H2,1,3H3/t7-,8+/m0/s1
