17
gdb 50109	3.88395	0.69551	0.61884	3.6437	76.25	-0.2584	-0.044	0.2143	1707.7217	0.13442	-417.994383	-417.985179	-417.984234	-418.029687	32.054	
O	 0.0886900997	-0.022284515	-0.7743016744	-0.25488
C	 0.0664781566	 1.0313856503	-0.1893053714	 0.157369
C	 1.2908396322	 1.8277058478	 0.0976613532	-0.093195
C	 1.1893548081	 3.3285991489	 0.0205823361	-0.258176
N	 1.4169663168	 2.6798597972	 1.2891652647	-0.07729
C	 0.3622894494	 2.7157562597	 2.2980263372	-0.152095
C	 0.7239582182	 3.8092360106	 3.3219578408	-0.332596
C	-0.2679630753	 3.9121374513	 4.3883701849	 0.253737
N	-1.065480765	 3.9777857666	 5.2217525622	-0.29771
H	-0.8907029728	 1.4781880528	 0.1585561316	 0.080016
H	 2.2118236773	 1.3390714094	-0.2085517496	 0.122891
H	 2.0184965871	 3.8882466127	-0.4025437306	 0.140643
H	 0.2010392565	 3.7469505888	-0.1741339345	 0.126057
H	-0.6379794985	 2.9224583145	 1.891750988	 0.119215
H	 0.3234191818	 1.7445121507	 2.800439231	 0.140966
H	 1.7058322966	 3.5915617583	 3.7535660544	 0.167762
H	 0.8043658714	 4.7786993655	 2.8176938064	 0.157287
61.1239	72.2396	88.598	131.9159	219.9355	263.5037	301.1381	388.1138	405.1271	429.5637	527.8022	558.2894	773.0736	790.9909	867.0097	911.1816	959.9718	1004.9859	1028.3978	1046.8594	1068.1513	1096.5185	1116.0486	1144.1192	1181.1089	1237.4922	1298.9782	1307.9262	1322.0291	1344.2068	1397.8279	1446.2034	1467.5941	1493.1097	1510.654	1817.997	2365.4925	2889.1312	3002.5751	3053.1107	3082.8389	3085.0082	3103.3419	3156.4183	3185.9699
O=CC1CN1CCC#N	O=C[C@H]1CN1CCC#N	
InChI=1S/C6H8N2O/c7-2-1-3-8-4-6(8)5-9/h5-6H,1,3-4H2	InChI=1S/C6H8N2O/c7-2-1-3-8-4-6(8)5-9/h5-6H,1,3-4H2/t6-,8?/m1/s1
