15
gdb 77148	2.7283	1.38728	1.04712	2.7047	63.16	-0.2547	-0.003	0.2517	1109.3739	0.112278	-491.098355	-491.089745	-491.088801	-491.13268	31.166	
N	-0.0819717228	 1.33261118	 0.0381224809	-0.527066
C	 0.0656439771	-0.0002456424	-0.1979271366	 0.374649
O	 1.0555801723	-0.5164789689	-0.6676673919	-0.346842
C	-1.1948786859	-0.8319770885	 0.0757438733	-0.027753
O	-0.8486162072	-2.1223747878	 0.6817570012	-0.235544
C	-1.5145331044	-1.8115124406	 1.8412741127	 0.394002
N	-1.5298886993	-2.3440769517	 2.9752246213	-0.544007
C	-2.1254836515	-0.5377865545	 1.2968007174	-0.013261
O	-1.9711369785	 0.6377082803	 2.0533611828	-0.424407
H	 0.7361599742	 1.9068272623	-0.099638682	 0.261971
H	-0.7795206913	 1.6346825373	 0.7048974901	 0.275523
H	-1.719169473	-0.990112308	-0.8709124978	 0.129904
H	-0.9339823259	-3.1722803563	 3.0192203419	 0.242171
H	-3.180719186	-0.6476633483	 1.0284649662	 0.130195
H	-1.5009213679	 0.4050356271	 2.8632640205	 0.310465
31.0353	79.25	191.9386	218.1209	252.7044	284.9605	368.8828	437.1536	475.6325	532.9834	599.7446	631.5988	662.2191	709.1963	771.8896	828.4189	879.6027	942.4539	962.2684	1018.3967	1031.1238	1123.5932	1153.4599	1211.097	1218.8404	1305.2662	1321.7804	1327.8647	1377.5624	1417.2724	1627.5598	1817.7395	1828.7748	3065.2107	3082.6335	3483.6379	3539.5089	3680.2027	3792.7333
NC(=O)C1OC(=N)C1O	NC(=O)[C@H]1O[C]([NH])[C@H]1O	
InChI=1S/C4H6N2O3/c5-3(8)2-1(7)4(6)9-2/h1-2,6-7H,(H2,5,8)	InChI=1S/C4H6N2O3/c5-3(8)2-1(7)4(6)9-2/h1-2,6-7H,(H2,5,8)/t1-,2-/m0/s1
