23
gdb 119568	2.90889	0.98436	0.84971	1.8143	85.81	-0.2265	0.0756	0.3021	1490.0382	0.204329	-388.260956	-388.251145	-388.250201	-388.295897	36.834	
C	-0.0365992177	 1.6320322196	-0.1283200303	-0.381779
C	-0.0346770665	 0.1034500552	-0.2057142936	-0.15653
C	-1.3889540262	-0.5179405903	 0.1732919911	-0.309948
C	-1.4086135945	-2.018174226	 0.0835648218	 0.277133
C	-1.6517765393	-2.7871753074	-1.2070376485	-0.352419
C	-2.5364256694	-3.0175581392	-0.0218449183	 0.039448
O	-1.929436488	-3.9352318636	 0.889475721	-0.311027
C	-0.8492014211	-2.9850371779	 1.1410696523	 0.111549
C	 0.5313417534	-3.5958599074	 1.0163766289	-0.40954
H	 0.9385689981	 2.0473545698	-0.4008259049	 0.112263
H	-0.7826490318	 2.0611434406	-0.8066824882	 0.113962
H	-0.2748614021	 1.9780542925	 0.8837399089	 0.114239
H	 0.2335581412	-0.2180772921	-1.2197368742	 0.100758
H	 0.745416336	-0.295980132	 0.4552017595	 0.09799
H	-1.6579688329	-0.2077406092	 1.1930450826	 0.095056
H	-2.1679495487	-0.1079197814	-0.4832734083	 0.095087
H	-2.0813278624	-2.1842750506	-2.0023741978	 0.109539
H	-0.9894811747	-3.5804759305	-1.5413551929	 0.111834
H	-3.6156713522	-2.9143604937	 0.000151082	 0.10049
H	-0.9863138992	-2.5592347708	 2.1454549769	 0.074986
H	 0.7174068083	-3.9680564967	 0.0055648262	 0.121081
H	 1.2985721236	-2.8536756641	 1.262030041	 0.11796
H	 0.6354476363	-4.4337343248	 1.7133674146	 0.127869
67.9615	88.9062	105.2452	205.8468	216.427	244.0422	259.1073	318.7742	328.1341	380.4887	477.25	530.918	704.6805	710.3376	742.6275	835.07	862.5278	872.0354	896.8339	916.2465	921.7761	1001.663	1010.3313	1038.4193	1048.5661	1074.8474	1079.0353	1087.0546	1117.1301	1137.5306	1149.3794	1227.2634	1255.1749	1268.2857	1301.6774	1317.5625	1341.0968	1378.7994	1388.0515	1402.291	1414.3895	1419.7333	1477.9861	1483.3612	1486.7488	1493.0212	1495.2535	1500.3199	1509.8979	2997.6602	3003.9088	3022.2617	3029.37	3034.7521	3038.0001	3059.4131	3095.9086	3102.2727	3104.4648	3113.5222	3122.8371	3173.4245	3202.1176
CCCC12CC1OC2C	CCC[C@]12C[C@H]1O[C@H]2C	
InChI=1S/C8H14O/c1-3-4-8-5-7(8)9-6(8)2/h6-7H,3-5H2,1-2H3	InChI=1S/C8H14O/c1-3-4-8-5-7(8)9-6(8)2/h6-7H,3-5H2,1-2H3/t6-,7+,8+/m0/s1
