18
gdb 111675	2.78181	1.27638	1.18959	2.4147	72.03	-0.2368	-0.0254	0.2114	1115.4371	0.148041	-439.070967	-439.062657	-439.061713	-439.104285	31.153	
O	-0.0466694836	 1.2121601312	 0.6148908013	-0.413569
C	 0.012738474	 0.0130022559	-0.1472294517	-0.130758
C	-1.3623604974	-0.6094295459	-0.0995211426	 0.025628
C	-1.6174681312	-2.0871027269	-0.1346276672	-0.188229
N	-1.9309502133	-1.2825005338	 1.0627176032	-0.10781
C	-0.9486820222	-1.6360176267	 2.1298665652	-0.173272
C	 0.009096794	-2.7178068507	 1.5911777601	-0.348251
C	-0.4696401797	-3.0113078398	 0.1607769149	 0.406906
O	-0.0515651899	-3.8758466804	-0.5663841309	-0.318439
H	 0.7792542777	 1.6895717268	 0.4903421898	 0.292282
H	 0.2551611141	 0.2182076175	-1.2012345274	 0.105934
H	 0.7905184389	-0.6602031909	 0.2344501522	 0.097321
H	-2.1020394802	 0.0031270654	-0.6127269284	 0.111237
H	-2.431138487	-2.4815207083	-0.7353684731	 0.114728
H	-0.4363626735	-0.7270522385	 2.4530284958	 0.134233
H	-1.5271077794	-2.01212943	 2.976874056	 0.117176
H	 1.0652257656	-2.4307402451	 1.5798795974	 0.135292
H	-0.052698447	-3.6494301497	 2.1616296654	 0.139591
78.7559	88.7977	154.6859	234.65	272.3975	293.4407	423.8165	449.9231	522.729	592.2998	608.4638	700.3738	748.4474	766.9326	826.5282	851.9432	957.8167	970.4412	1005.3949	1022.5226	1052.9009	1068.888	1087.1529	1146.2704	1181.5078	1196.8566	1239.7952	1254.8081	1260.6069	1265.5309	1293.3538	1328.1574	1359.8625	1405.9355	1455.019	1471.6056	1511.2781	1519.1098	1836.043	2989.7828	3038.9405	3057.5016	3069.6406	3092.9152	3117.6486	3121.7533	3164.0155	3825.4539
OCC1C2N1CCC2=O	OC[C@H]1[C@@H]2N1CCC2=O	
InChI=1S/C6H9NO2/c8-3-4-6-5(9)1-2-7(4)6/h4,6,8H,1-3H2	InChI=1S/C6H9NO2/c8-3-4-6-5(9)1-2-7(4)6/h4,6,8H,1-3H2/t4-,6-,7?/m0/s1
