16
gdb 30948	2.3627	1.40783	0.93406	4.591	68.13	-0.2327	0.0177	0.2504	1231.6077	0.123874	-475.080912	-475.072207	-475.071263	-475.114688	31.452	
C	 0.0024594141	 1.6540787591	 0.3011054913	-0.378218
C	-0.0036369788	 0.1557608148	-0.0479105454	-0.298186
C	-1.3689246636	-0.4132616733	-0.161700528	 0.342714
C	-2.0440255737	-0.9805712197	-1.161763606	 0.140307
N	-1.6887467683	-1.2492737024	-2.4737672692	-0.594016
O	-3.324564587	-1.3286025767	-0.6848148358	-0.233404
C	-3.3893778171	-0.9502435633	 0.6204793365	 0.489237
O	-4.3200439286	-1.0836351359	 1.3490895967	-0.37607
O	-2.1890851874	-0.3838031199	 0.9592129439	-0.254401
H	 1.0292504204	 2.0176417878	 0.3964891006	 0.121486
H	-0.4972337314	 2.2389325799	-0.4767456663	 0.124416
H	-0.5140107936	 1.8364553892	 1.2471672519	 0.141004
H	 0.5006268758	-0.0221169488	-1.0020024386	 0.135042
H	 0.5513391447	-0.3989680441	 0.7196133557	 0.12589
H	-1.7094233268	-2.2422272304	-2.6860591846	 0.257179
H	-2.2844396786	-0.7709967261	-3.1429051727	 0.257021
69.1332	124.3546	181.2768	193.7945	207.1631	279.4096	296.3607	353.1352	432.633	597.1581	612.3444	655.0153	676.7987	777.7883	784.2971	802.3957	826.707	932.0373	965.1134	993.0414	1077.577	1090.3151	1194.6451	1222.1956	1242.5353	1311.1174	1322.9008	1382.3431	1410.742	1472.5098	1496.4365	1507.5625	1657.7073	1815.4822	1936.4382	3029.0115	3046.3503	3094.9159	3119.1382	3127.8033	3495.677	3560.8388
CCC1=C(N)OC(=O)O1	CCc1c(N)oc(=O)o1	
InChI=1S/C5H7NO3/c1-2-3-4(6)9-5(7)8-3/h2,6H2,1H3	InChI=1S/C5H7NO3/c1-2-3-4(6)9-5(7)8-3/h2,6H2,1H3
