19
gdb 99374	7.4445	0.52966	0.5006	4.2517	74.29	-0.2513	-0.031	0.2203	2141.5822	0.153692	-460.173803	-460.162735	-460.161791	-460.2136	35.91	
C	 0.1222293005	 1.5100133226	 0.0757614511	-0.377108
C	-0.0564121205	-0.00592399	 0.0346255302	-0.285974
C	-1.5165519331	-0.4360877652	-0.0249612737	 0.352706
O	-2.4328201424	 0.346134169	-0.0377741705	-0.272577
C	-1.7432669872	-1.9483556798	-0.0680262267	-0.153053
O	-3.1115563188	-2.2283733443	-0.1208877837	-0.226243
C	-3.4060818121	-3.6009093644	-0.1633641563	-0.14296
C	-4.9175308601	-3.7551444509	-0.2184373515	 0.137715
O	-5.4723445047	-4.8202616799	-0.260996127	-0.237018
H	 1.1827721782	 1.7721633204	 0.1174275287	 0.112611
H	-0.3170792869	 1.9776525875	-0.8087491916	 0.134867
H	-0.3760531873	 1.9369129819	 0.9495535672	 0.13486
H	 0.4622002815	-0.4423939796	-0.8304240713	 0.123159
H	 0.4029263936	-0.4826707054	 0.9118372683	 0.123176
H	-1.2091156595	-2.3599647801	-0.9435262867	 0.110583
H	-1.2688250702	-2.401290392	 0.8213507699	 0.110593
H	-2.9670433678	-4.093764521	-1.0476312972	 0.12292
H	-3.0271645963	-4.1358345943	 0.7242178488	 0.122941
H	-5.4636204171	-2.7871584845	-0.215770288	 0.108803
12.2629	38.7588	64.2104	82.7651	92.2724	116.0844	185.3396	214.8856	282.083	308.4516	451.9567	472.5183	543.3976	661.2361	739.62	753.1617	847.3212	937.414	974.281	1011.5769	1040.2006	1104.7596	1109.7269	1123.6398	1131.646	1204.1822	1233.6225	1252.275	1296.6999	1340.3556	1368.0988	1396.2265	1415.2702	1421.7572	1452.6993	1468.3571	1492.0997	1497.6955	1504.713	1831.7805	1845.6494	2912.3378	2942.5593	2961.2876	2964.7444	2989.8319	3017.1238	3043.9626	3053.9258	3125.9741	3130.4026
CCC(=O)COCC=O	CCC(=O)COCC=O	
InChI=1S/C6H10O3/c1-2-6(8)5-9-4-3-7/h3H,2,4-5H2,1H3	InChI=1S/C6H10O3/c1-2-6(8)5-9-4-3-7/h3H,2,4-5H2,1H3
