19
gdb 94009	3.1694	1.12297	0.93746	3.1219	71.62	-0.2428	-0.0199	0.2229	1254.2059	0.158835	-460.177169	-460.167875	-460.16693	-460.212612	33.511	
O	 0.2425115315	 1.2479001115	-0.4706807471	-0.44042
C	 0.040816625	-0.1013671691	-0.0666135516	 0.123305
C	 0.6472847998	-0.4540087031	 1.3185605931	-0.263511
C	-0.5449544242	-0.7845306275	 2.2376823556	-0.233298
C	-1.5902534027	-1.3729509636	 1.2637729505	-0.075207
C	-2.9822693906	-1.4661411338	 1.8494294985	 0.152929
O	-3.6072840644	-2.4920435176	 1.9484762813	-0.259787
C	-1.4871624526	-0.4338452203	 0.0463744859	 0.065135
O	-2.2178360009	 0.7496785461	 0.3299343142	-0.443821
H	 0.0776717656	 1.8035787264	 0.2993502102	 0.284191
H	 0.4961198476	-0.7005409707	-0.8592682577	 0.096574
H	 1.2999387823	-1.3276125723	 1.2251001468	 0.114244
H	 1.2716239241	 0.3635178564	 1.6916735813	 0.104873
H	-0.2861291234	-1.4755546009	 3.043255798	 0.111597
H	-0.9489628941	 0.124857158	 2.6956980009	 0.114128
H	-1.2949552837	-2.3823059012	 0.957424313	 0.093482
H	-3.3975653029	-0.499987383	 2.2042552048	 0.094097
H	-1.869386617	-0.9084236976	-0.8671985578	 0.075195
H	-1.9364593793	 1.3934534523	-0.33254707	 0.286292
38.1165	52.356	104.7507	136.4772	235.1607	296.7825	321.6978	392.8516	422.6354	471.104	534.1695	607.2979	645.1871	763.4572	815.3062	845.1131	873.4313	917.2634	979.3672	993.7791	1016.639	1040.3249	1083.34	1114.6676	1132.2565	1160.7619	1215.7927	1231.0146	1273.0904	1296.4526	1307.1436	1310.9407	1334.361	1350.4461	1368.9785	1412.4205	1427.7974	1437.9371	1487.9678	1500.4085	1825.4755	2919.319	3010.5411	3049.4508	3050.9619	3061.6504	3077.8444	3092.3007	3110.931	3771.3021	3801.6845
OC1CCC(C=O)C1O	O[C@H]1CC[C@@H](C=O)[C@H]1O	
InChI=1S/C6H10O3/c7-3-4-1-2-5(8)6(4)9/h3-6,8-9H,1-2H2	InChI=1S/C6H10O3/c7-3-4-1-2-5(8)6(4)9/h3-6,8-9H,1-2H2/t4-,5-,6+/m0/s1
