19
gdb 114929	5.4536	0.82866	0.74005	4.3969	85.8	-0.2215	-0.0441	0.1774	1519.554	0.1596	-382.088742	-382.079771	-382.078827	-382.122826	32.621	
C	 0.0474483535	 1.4964423993	-0.1501871199	-0.386798
C	-0.0044658265	-0.003855098	 0.1337562133	-0.119049
N	-1.3648634356	-0.5066128152	 0.2275600574	-0.077035
C	-2.1754364727	 0.0144705983	 1.3315509013	-0.198145
C	-3.1492724778	-1.0937850946	 1.5995059672	-0.171272
C	-2.7715884957	-2.2074354628	 0.9632323761	 0.204205
C	-1.4875862974	-1.9649019206	 0.198246244	-0.258629
C	-3.4193819398	-3.4692387515	 1.0037653132	 0.20536
N	-3.9248870396	-4.5114763349	 1.0178103461	-0.333649
H	 1.0842095303	 1.8236989693	-0.2714534202	 0.11799
H	-0.502977168	 1.7332580497	-1.0653871439	 0.127532
H	-0.3877324702	 2.0779536127	 0.668730295	 0.120385
H	 0.4890609705	-0.5415975104	-0.6839625879	 0.107968
H	 0.5753429834	-0.2284860443	 1.0520438654	 0.077746
H	-1.5832368894	 0.2242252012	 2.246821786	 0.100383
H	-2.6725195058	 0.9558758134	 1.0623236427	 0.122811
H	-4.0134939949	-0.9922897534	 2.2425855369	 0.12894
H	-1.5278744268	-2.343299812	-0.8311947987	 0.126545
H	-0.6491318176	-2.4859605862	 0.6998970557	 0.104713
64.8571	102.2466	140.0521	180.5518	231.1834	237.9496	331.8262	382.9875	391.8617	527.6052	568.6284	573.4539	646.5557	806.4376	843.8614	868.7604	896.5757	968.0366	988.3886	1030.219	1043.4541	1083.7265	1126.6305	1165.2898	1191.3079	1199.5182	1212.6238	1243.6468	1285.3611	1316.937	1357.7254	1382.1744	1402.2062	1422.279	1489.5452	1491.5209	1504.3024	1510.4817	1524.7434	1687.6818	2340.9646	2881.5486	2897.6141	2914.9972	3018.8476	3028.5335	3041.1802	3051.0898	3109.8715	3119.1316	3229.442
CCN1CC=C(C1)C#N	CCN1CC=C(C1)C#N	
InChI=1S/C7H10N2/c1-2-9-4-3-7(5-8)6-9/h3H,2,4,6H2,1H3	InChI=1S/C7H10N2/c1-2-9-4-3-7(5-8)6-9/h3H,2,4,6H2,1H3
