18
gdb 78494	2.52504	1.61228	1.2977	2.0997	71.5	-0.2196	0.0647	0.2844	1034.7498	0.147591	-439.011914	-439.003772	-439.002828	-439.044074	32.271	
C	-0.0219218661	 1.3760180754	-0.0186155121	-0.513317
C	-0.0103776842	-0.1173954251	-0.00161416	 0.289905
N	 1.0079167677	-0.9353637004	-0.7155172123	-0.374858
C	 0.1045580315	-2.1116583953	-0.461027461	-0.183466
C	 0.3407807446	-2.3019274749	 1.0643780775	 0.211744
O	 1.6605177081	-2.4454413576	 1.4909859807	-0.449291
C	-0.39313816	-0.9669910614	 1.237228856	-0.268391
C	-1.1023326281	-1.1354287788	-0.103066085	 0.310674
O	-2.4131955571	-1.0251913177	-0.4849224831	-0.452531
H	 0.8873546915	 1.7798681192	 0.4393195236	 0.132229
H	-0.0892939575	 1.7622974091	-1.042062847	 0.122214
H	-0.8835157151	 1.7584187046	 0.5363903046	 0.132859
H	 0.9617868448	-0.7003912844	-1.7062200628	 0.219037
H	 0.1418340449	-2.93764158	-1.1679156546	 0.077773
H	-0.2429156375	-3.1339425576	 1.4684753723	 0.080259
H	 2.1644231008	-1.8408847453	 0.9242999075	 0.283443
H	-0.7572270529	-0.4927417165	 2.1405810519	 0.089025
H	-2.9519786254	-1.5962526033	 0.074674604	 0.292693
161.165	177.9665	184.4702	255.1621	280.3653	308.4452	371.8378	426.925	546.0018	571.9792	584.2764	646.2465	690.7089	716.8466	770.298	855.6259	879.7813	936.5775	949.62	959.9401	998.8234	1016.402	1031.223	1096.018	1112.0012	1133.7342	1173.3124	1191.4149	1243.3928	1272.9945	1281.385	1302.3623	1324.4971	1368.3429	1416.1172	1452.1925	1480.3847	1490.0835	1524.0093	3029.4049	3077.094	3089.8321	3111.8736	3145.4502	3194.026	3467.1845	3705.5298	3781.4421
CC12NC3C(O)C1C23O	C[C@@]12N[C@H]3[C@@H](O)[C@@H]1[C@@]23O	
InChI=1S/C6H9NO2/c1-5-3-2(8)4(7-5)6(3,5)9/h2-4,7-9H,1H3	InChI=1S/C6H9NO2/c1-5-3-2(8)4(7-5)6(3,5)9/h2-4,7-9H,1H3/t2-,3-,4-,5+,6-/m0/s1
