18
gdb 43772	3.53719	1.18966	1.0417	3.8887	77.23	-0.241	0.0091	0.2501	1181.7847	0.14821	-401.929209	-401.921355	-401.920411	-401.961998	30.59	
O	-0.0910496257	 0.0797855446	 0.0344368306	-0.342092
C	-0.0460018069	 1.2758335314	 0.0135867322	 0.436344
N	-1.0546290166	 2.2497517538	 0.2175614716	-0.403943
C	-0.0958349374	 3.3591971674	 0.0642156177	 0.388273
C	 1.0251468674	 3.2241991451	 1.0452562741	-0.332284
C	 1.0094593905	 2.3390709212	-0.2102260344	-0.286663
C	-0.4708182224	 4.5909544653	-0.6743738412	-0.085538
C	-1.4231146934	 4.532320154	-1.8423476351	-0.26748
C	-1.8636431182	 5.1659992266	-0.5477906518	-0.271212
H	-1.7037131007	 2.1886094524	 0.9959108109	 0.23887
H	 1.7797484359	 4.0063511776	 1.0277877696	 0.124441
H	 0.8592763423	 2.7803937108	 2.0231772821	 0.121186
H	 1.8038513626	 2.349186835	-0.9427631713	 0.118993
H	 0.3378141864	 5.3126030526	-0.7411887558	 0.086945
H	-1.2234596624	 5.1747812315	-2.6923839385	 0.113507
H	-1.841759303	 3.563901187	-2.0898969928	 0.13213
H	-2.5828904026	 4.6210520356	 0.0540180311	 0.112526
H	-1.9674281659	 6.2441580383	-0.500183399	 0.115997
63.059	116.7144	175.1989	251.1474	368.3395	390.4695	480.8904	487.4881	572.3001	655.3124	710.878	762.5919	787.6441	816.8344	864.0555	874.7844	923.8192	925.5868	943.3293	979.0275	996.0179	1048.3516	1063.342	1068.9707	1084.1308	1085.5835	1128.7088	1133.8487	1199.201	1213.6099	1228.541	1260.9364	1311.5084	1338.4543	1445.6903	1461.148	1489.7575	1509.1575	1900.5848	3109.8277	3134.9295	3141.8801	3152.187	3197.3919	3216.7307	3225.5717	3234.3782	3526.5784
O=C1NC2(CC12)C1CC1	O=C1N[C@]2(C[C@@H]12)C1CC1	
InChI=1S/C7H9NO/c9-6-5-3-7(5,8-6)4-1-2-4/h4-5H,1-3H2,(H,8,9)	InChI=1S/C7H9NO/c9-6-5-3-7(5,8-6)4-1-2-4/h4-5H,1-3H2,(H,8,9)/t5-,7+/m0/s1
