17
gdb 111935	4.08175	1.27999	1.16784	2.8897	73.3	-0.2475	-0.0523	0.1953	1068.0837	0.137145	-417.897761	-417.890621	-417.889677	-417.929443	28.25	
O	 0.0186018607	 1.4154546806	-0.2190676962	-0.418041
C	 0.1004871935	 0.020523149	-0.0375496013	-0.05549
C	-1.2940762971	-0.5983855127	 0.0689335955	-0.000758
N	-1.9704156571	-0.3404949333	-1.237619376	-0.218102
C	-2.5723554145	-1.4305706662	-1.5014390637	 0.15023
C	-1.9932221385	-2.4178480133	-2.4899412889	-0.260235
C	-1.5356448322	-3.0353902803	-1.1141146783	-0.070784
C	-1.3925791164	-2.1311386276	 0.1315188006	-0.077247
N	-2.7152774548	-2.4489286778	-0.4091048236	-0.132736
H	-0.5689125392	 1.5423437831	-0.9753673261	 0.294606
H	 0.648704553	-0.4703018192	-0.8571419682	 0.085595
H	 0.6548917278	-0.153848435	 0.8917522822	 0.107416
H	-1.8126124554	-0.1579409881	 0.9325661539	 0.103228
H	-2.6785164561	-3.1264810133	-2.9618412506	 0.135661
H	-1.2732859718	-2.007230798	-3.1961475486	 0.133999
H	-1.3323663327	-4.1006680695	-1.016310267	 0.116797
H	-1.1072290592	-2.6538029483	 1.0424072264	 0.105863
99.938	145.4469	212.6639	371.3798	427.841	452.992	486.6528	536.1255	658.3996	693.3421	720.4427	782.2059	838.6731	856.1504	871.5093	923.3608	990.8428	1004.8193	1026.7032	1041.3252	1060.9171	1087.5522	1089.7118	1118.7458	1134.5624	1151.6428	1201.9028	1213.9419	1267.0036	1299.6806	1312.5928	1341.7363	1387.0558	1433.6947	1482.5173	1502.0143	1643.2396	2979.773	3010.7233	3066.0563	3073.1885	3124.4399	3144.0376	3158.8919	3773.1131
OCC1N=C2CC3C1N23	OC[C@H]1[N][C]2C[C@H]3[C@@H]1N23	
InChI=1S/C6H8N2O/c9-2-3-6-4-1-5(7-3)8(4)6/h3-4,6,9H,1-2H2	InChI=1S/C6H8N2O/c9-2-3-6-4-1-5(7-3)8(4)6/h3-4,6,9H,1-2H2/t3-,4+,6-,8?/m1/s1
