18
gdb 96891	4.24941	0.77776	0.68788	1.3939	76.83	-0.2549	-0.0328	0.2221	1607.1879	0.145252	-439.089794	-439.080218	-439.079274	-439.125854	32.784	
C	-0.0459521944	 1.5417790059	-0.3971796707	-0.340237
N	-0.0206717448	 0.0874106309	-0.4663727539	-0.319925
C	-0.9650450618	-0.5678923074	 0.0182054098	 0.467474
C	-1.3028235942	-2.0384254653	 0.1341083703	-0.404611
C	-2.5794814453	-1.5268839703	 0.837115942	 0.120341
C	-2.7721738545	-1.8754054841	 2.3070785037	-0.294533
C	-3.850063188	-1.031717743	 2.9622872621	 0.154352
O	-4.789577928	-1.4826625359	 3.5647505682	-0.233031
O	-2.1270156793	-0.1434571975	 0.6613860413	-0.280691
H	 0.8440756577	 1.8889463599	 0.1387724866	 0.129998
H	 0.0150037637	 1.9477563823	-1.4126639903	 0.130892
H	-0.9358255024	 1.9528043377	 0.0934585115	 0.125767
H	-1.4519338512	-2.5533089835	-0.8161264005	 0.141425
H	-0.6215910769	-2.6185599674	 0.7600637235	 0.137332
H	-3.5021133488	-1.6830002062	 0.2695866851	 0.10707
H	-3.0349051672	-2.931821595	 2.4183873441	 0.130079
H	-1.8270546823	-1.6897420346	 2.8360436101	 0.128063
H	-3.7079668223	 0.0641859835	 2.845062357	 0.100234
50.8337	62.7822	85.4344	95.8303	169.5332	220.2878	240.6494	341.9192	423.0458	502.6244	525.1266	560.5343	710.8239	786.486	851.5256	916.8514	944.5584	968.2188	1025.233	1065.1714	1076.0117	1097.0518	1112.2726	1134.728	1156.0493	1184.039	1231.648	1245.3878	1275.4215	1330.9205	1388.2178	1424.7982	1440.6622	1449.9603	1468.6219	1494.3943	1497.952	1833.7856	1855.7505	2907.0514	3019.0065	3021.9202	3064.3838	3083.8322	3086.219	3089.5835	3101.9259	3139.3841
CN=C1CC(CC=O)O1	CN=C1C[C@@H](CC=O)O1	
InChI=1S/C6H9NO2/c1-7-6-4-5(9-6)2-3-8/h3,5H,2,4H2,1H3	InChI=1S/C6H9NO2/c1-7-6-4-5(9-6)2-3-8/h3,5H,2,4H2,1H3/t5-/m1/s1
