15
gdb 123644	4.19052	1.61596	1.2698	6.109	70.46	-0.2459	-0.001	0.2449	936.4821	0.117315	-412.959995	-412.953944	-412.952999	-412.990432	24.184	
C	-0.0356003802	 1.4694740151	 0.0198091754	-0.176816
C	 1.4354323331	 1.8902097313	-0.0354763406	-0.037515
N	 2.2054690709	 1.4914720872	 1.1527844523	-0.321321
C	 2.2935290651	 0.6627907542	-0.0801524252	-0.245987
C	 1.3504353794	-0.4740620673	-0.0455699971	 0.428838
C	 1.1707829346	-1.8364573426	-0.0336155922	-0.221329
N	-0.1695492933	-2.0881410618	 0.0553805445	-0.191422
N	-0.828937309	-0.9556070285	 0.103859813	-0.169986
N	 0.0882049403	 0.0135768402	 0.0333314195	 0.054218
H	-0.5394385163	 1.8236238817	 0.9223467283	 0.152855
H	-0.5936057781	 1.7997526961	-0.8613138123	 0.138363
H	 1.6991486569	 2.7958231496	-0.5694286976	 0.110069
H	 3.0370143358	 2.0748926511	 1.2232638129	 0.240765
H	 3.2219776387	 0.6160989915	-0.635005038	 0.115036
H	 1.890820342	-2.6364736478	-0.0785786029	 0.12423
153.5328	209.4501	355.0823	430.5899	452.926	610.0848	706.751	716.3701	746.269	799.7306	825.0914	842.4216	855.2063	886.227	948.4124	1005.4097	1015.3918	1076.5107	1118.0181	1127.142	1148.5313	1181.71	1212.2357	1223.6089	1247.9705	1276.1351	1312.2844	1340.2465	1367.8206	1402.7682	1469.2672	1505.9628	1598.252	3063.5468	3115.4132	3180.6659	3199.0475	3276.8067	3492.3968
C1C2NC2C2=CN=NN12	C1[C@H]2N[C@H]2c2cnnn12	
InChI=1S/C5H6N4/c1-4-5-3(7-5)2-9(4)8-6-1/h1,3,5,7H,2H2	InChI=1S/C5H6N4/c1-4-5-3(7-5)2-9(4)8-6-1/h1,3,5,7H,2H2/t3-,5-/m1/s1
