19
gdb 51016	1.62141	1.42971	0.85932	4.8281	76.28	-0.2525	-0.0321	0.2204	1359.4955	0.155646	-423.028576	-423.018769	-423.017824	-423.06498	34.346	
O	-0.7050008014	 0.9991858716	 0.9835596379	-0.232596
C	-0.1312284346	 1.9617713295	 0.5468479908	 0.165401
C	 1.2611544209	 1.9404887845	-0.0592594052	-0.359032
C	 1.3564827916	 2.748143705	-1.3475925941	 0.340029
C	 0.5808009497	 2.1678105779	-2.5234951225	-0.359017
C	 1.1650234899	 0.8588141724	-3.0252351956	 0.165399
O	 0.5215570278	-0.1179826462	-3.3050965407	-0.232601
C	 1.4473668215	 4.2544714944	-1.2278201887	-0.314101
C	 2.657981822	 3.4608397427	-1.6472166369	-0.314107
H	-0.6003753899	 2.9729197043	 0.5737193043	 0.077675
H	 1.9369048264	 2.3780925757	 0.6890750295	 0.12251
H	 1.5595061141	 0.8962043252	-0.199295866	 0.130916
H	-0.4755553197	 2.0043809139	-2.2856708802	 0.13092
H	 0.6231015576	 2.8742114085	-3.3645366812	 0.122516
H	 2.2746293292	 0.86800586	-3.1344976615	 0.077673
H	 0.943108611	 4.8577680241	-1.9747376758	 0.120381
H	 1.4441326299	 4.6899261553	-0.2343044149	 0.118827
H	 3.4735964973	 3.3537906614	-0.9405020196	 0.120378
H	 2.9775248966	 3.5293693898	-2.6815770095	 0.118829
44.0499	55.2115	65.6276	115.0022	191.2242	209.0982	305.3172	331.1535	369.8332	457.1415	493.1665	519.8436	714.2833	762.9265	804.8026	806.9178	892.0891	929.5743	970.1124	976.5664	1000.7236	1050.564	1068.6847	1076.785	1084.3519	1092.3329	1189.4099	1199.7341	1204.663	1290.1344	1294.2891	1338.6586	1366.9479	1427.5686	1428.8751	1452.388	1453.1207	1474.7559	1506.5245	1835.0912	1840.4158	2862.0587	2862.9126	3016.0536	3018.3999	3084.0067	3084.9355	3132.3227	3136.2074	3210.1748	3223.5087
O=CCC1(CC=O)CC1	O=CCC1(CC=O)CC1	
InChI=1S/C7H10O2/c8-5-3-7(1-2-7)4-6-9/h5-6H,1-4H2	InChI=1S/C7H10O2/c8-5-3-7(1-2-7)4-6-9/h5-6H,1-4H2
