15
gdb 96797	2.99612	1.43684	1.04017	3.3124	70.09	-0.265	-0.0285	0.2364	1114.7662	0.11305	-453.95797	-453.950218	-453.949274	-453.990708	28.346	
C	 0.0503922706	 1.4281818355	 0.0475981921	-0.34109
N	 0.0658636245	-0.0253398898	 0.0246194502	-0.324933
C	 0.6122276775	-0.6443628608	-0.9155270339	 0.507819
O	 1.2295248642	-0.0516562412	-2.0235841506	-0.240604
C	 1.4988860384	-0.9856461675	-3.011180795	 0.487078
O	 1.8434996529	-0.6697109841	-4.1062783738	-0.320818
C	 1.2435245834	-2.3494351497	-2.4377351557	-0.205838
N	 2.0921848808	-2.5637778373	-1.2381824246	-0.325355
C	 0.6872331584	-2.1221284939	-1.0814596944	-0.164611
H	 0.63193998	 1.7694310205	 0.9109946062	 0.139803
H	 0.4499870043	 1.8976682411	-0.8567929248	 0.138006
H	-0.9796730597	 1.7633235802	 0.2059999678	 0.134473
H	 0.9831171445	-3.1667123925	-3.096498651	 0.133166
H	 2.1331359106	-3.5663309462	-1.0604996849	 0.252226
H	-0.0472097602	-2.7552928243	-0.6027976677	 0.130676
90.6632	118.3143	165.3897	207.4529	268.2048	380.0256	446.8002	484.6705	615.1161	651.8278	732.0313	766.5872	844.9206	857.8637	873.2645	909.0707	921.583	980.5201	1041.1193	1101.9475	1119.3859	1131.9646	1150.8885	1165.0664	1235.7974	1296.0753	1354.0104	1394.4882	1439.2107	1491.7445	1495.7406	1822.2806	1918.5662	3027.9633	3091.3484	3105.8773	3214.0304	3222.384	3489.164
CN=C1OC(=O)C2NC12	CN=C1OC(=O)[C@H]2N[C@@H]12	
InChI=1S/C5H6N2O2/c1-6-4-2-3(7-2)5(8)9-4/h2-3,7H,1H3	InChI=1S/C5H6N2O2/c1-6-4-2-3(7-2)5(8)9-4/h2-3,7H,1H3/t2-,3+/m1/s1
