17
gdb 53401	2.47044	1.11827	0.83742	4.3354	82.12	-0.247	0.0165	0.2636	1395.6484	0.135543	-380.832484	-380.823042	-380.822098	-380.868659	32.498	
C	 0.2460909409	 1.5683511945	-0.3196148809	-0.501922
C	 0.1451406247	 0.133710636	-0.1025999775	 0.122912
C	 0.0475156201	-1.051272397	 0.0866948818	 0.100068
C	-0.081187191	-2.4781463106	 0.296032465	-0.200822
N	-0.3305281755	-2.9355919736	 1.6877821875	-0.283925
C	-1.2625813434	-3.9822277853	 1.2246030564	-0.175197
C	-1.4088955374	-3.2214282034	-0.1279617295	-0.190856
C	-2.5884137312	-2.3811961363	-0.2317782655	 0.306748
N	-3.5393045373	-1.7311855788	-0.3285161495	-0.329205
H	 1.0345746274	 1.8103194835	-1.0403923991	 0.148883
H	-0.6966517877	 1.9731899359	-0.7026781517	 0.161744
H	 0.4762239594	 2.0902357393	 0.6155736206	 0.154738
H	 0.7591690405	-3.002359022	-0.1851486134	 0.09628
H	 0.4906969616	-3.2563566056	 2.1889265078	 0.226032
H	-0.815916229	-4.9736093712	 1.0668205841	 0.102241
H	-2.165887725	-4.0857687339	 1.8305012306	 0.13255
H	-1.3188655271	-3.8294003415	-1.0290411767	 0.129733
25.1738	62.0417	82.973	140.0661	176.8012	241.6577	308.5276	332.7995	443.8435	467.9138	522.8517	581.5736	688.0816	755.8938	816.6402	902.7927	927.5783	998.8322	1012.701	1050.206	1054.2761	1065.69	1103.7057	1129.7627	1182.9751	1204.5805	1243.3589	1315.6796	1347.3696	1367.3947	1393.9724	1412.5835	1475.0306	1476.8439	1519.967	2359.7105	2372.5175	2971.6163	3005.6737	3030.7303	3092.8656	3094.0973	3095.8395	3108.6533	3532.6325
CC#CC1NCC1C#N	CC#C[C@H]1NC[C@H]1C#N	
InChI=1S/C7H8N2/c1-2-3-7-6(4-8)5-9-7/h6-7,9H,5H2,1H3	InChI=1S/C7H8N2/c1-2-3-7-6(4-8)5-9-7/h6-7,9H,5H2,1H3/t6-,7-/m1/s1
