20
gdb 68328	3.11219	1.12809	0.98617	2.9672	80.86	-0.2281	-0.0206	0.2076	1262.9738	0.168976	-403.083755	-403.074863	-403.073919	-403.118022	33.355	
C	-0.4370463862	 0.9601952724	-0.0386978218	-0.520831
C	 0.0107751902	-0.4692376791	 0.0631511072	 0.343543
C	 0.9843010142	-1.2679552611	-0.8649326295	-0.277542
C	 0.4019091467	-2.2624841951	 0.1734479943	-0.010711
C	 0.6665235956	-1.2017481907	 1.2689991323	-0.246896
N	-0.9776055268	-1.6454402453	 0.046380513	-0.144053
C	-1.7509650136	-1.8947110166	-1.1638818358	-0.257132
C	-3.1045109091	-1.2099434833	-1.0525827242	 0.164871
O	-3.7241978599	-0.7711358196	-1.9863992231	-0.243774
H	 0.4205636971	 1.6355883349	 0.0434489529	 0.127707
H	-0.9271650317	 1.1560429643	-0.9984856023	 0.134226
H	-1.1424244731	 1.2013820708	 0.7628275558	 0.13216
H	 0.6949284878	-1.3982622896	-1.907984084	 0.102619
H	 2.0485146052	-1.0284564806	-0.7870170327	 0.09512
H	 0.5332719895	-3.344028955	 0.2331977096	 0.08158
H	 1.7092732632	-0.960986108	 1.4820624471	 0.094184
H	 0.0469281106	-1.2816487495	 2.1628634891	 0.102471
H	-1.3025191865	-1.6117837495	-2.12679929	 0.110705
H	-1.956672278	-2.9754377428	-1.2101140335	 0.128012
H	-3.4871132452	-1.1559519764	-0.0090696142	 0.083744
49.1479	75.9468	149.7583	189.0819	245.8088	298.3337	349.0743	388.1901	455.34	562.1134	619.9697	635.0991	699.133	757.5871	786.7831	845.0656	895.3066	908.3309	959.4314	995.0852	1003.9735	1025.025	1071.7565	1076.5591	1103.9953	1131.6013	1162.0266	1166.4162	1181.6137	1216.3085	1229.916	1243.7739	1260.7889	1327.5935	1329.8759	1401.3393	1410.8415	1452.9161	1482.0788	1484.1544	1487.9034	1533.1844	1835.4719	2892.0501	2988.6174	3029.0916	3033.3991	3062.9629	3076.4034	3102.5625	3105.2412	3109.2809	3133.7867	3154.9581
CC12CC(C1)N2CC=O	C[C@@]12C[C@@H](C1)N2CC=O	
InChI=1S/C7H11NO/c1-7-4-6(5-7)8(7)2-3-9/h3,6H,2,4-5H2,1H3	InChI=1S/C7H11NO/c1-7-4-6(5-7)8(7)2-3-9/h3,6H,2,4-5H2,1H3/t6-,7+
