16
gdb 71275	2.67863	2.04268	1.47087	3.6395	67.49	-0.2417	0.0198	0.2615	890.832	0.125993	-437.890913	-437.88402	-437.883076	-437.921765	28.38	
O	 0.0444753382	 1.4010795085	-0.0699806088	-0.495402
C	-0.0430014498	 0.0262376031	-0.0075631125	 0.314237
C	 0.3040489989	-0.8229513585	-1.2925323321	-0.290803
C	-0.8774906018	-1.7336672358	-0.965053878	-0.09043
C	-0.9129841158	-2.0369053665	 0.5328877621	-0.005947
N	 0.2630641475	-1.8192623768	 1.3429429332	-0.328273
C	 0.7816068586	-0.5749225465	 1.1305192471	 0.364062
O	 1.7349483147	-0.0353030513	 1.6558952187	-0.406106
C	-1.4152759297	-0.7178422028	 0.0385949976	-0.150969
H	 0.7838414637	 1.6383317215	 0.5132303247	 0.293146
H	 0.086377001	-0.2052023295	-2.1662869095	 0.124974
H	 1.3066064053	-1.2557237158	-1.3804881254	 0.102234
H	-1.4258267334	-2.3476569286	-1.6696318559	 0.094016
H	-1.6037092196	-2.7904596434	 0.8886871637	 0.112012
H	 0.7714875242	-2.5459688064	 1.819785148	 0.258587
H	-2.397604892	-0.293910311	 0.1989609669	 0.104663
149.8614	266.2178	321.5405	338.9846	412.5774	447.7513	459.7252	527.8109	588.8216	680.8881	729.2796	739.4584	760.6853	794.3235	837.4054	907.8841	942.3626	971.7704	994.826	1003.7999	1040.7228	1058.1575	1077.2926	1120.7312	1150.0404	1201.0469	1229.1389	1249.0798	1310.6878	1362.0178	1376.9441	1419.5334	1429.9312	1489.1444	1824.4613	3042.5687	3119.8836	3181.3916	3198.6021	3209.9989	3650.1922	3686.809
OC12CC3C(NC1=O)C23	O[C@@]12C[C@H]3[C@@H](NC1=O)[C@@H]23	
InChI=1S/C6H7NO2/c8-5-6(9)1-2-3(6)4(2)7-5/h2-4,9H,1H2,(H,7,8)	InChI=1S/C6H7NO2/c8-5-6(9)1-2-3(6)4(2)7-5/h2-4,9H,1H2,(H,7,8)/t2-,3+,4-,6-/m1/s1
