17
gdb 46120	4.21073	0.91536	0.85024	3.0856	72.18	-0.2389	-0.0346	0.2043	1334.7679	0.136583	-418.039919	-418.031408	-418.030464	-418.074133	30.904	
O	 0.1067360718	 0.1609851117	 0.5268960385	-0.295995
C	 0.0451336274	 1.3229068717	 0.2283221341	 0.390095
C	-1.1826418407	 2.2359303882	 0.3779050066	-0.284274
N	-0.8146749433	 3.5428383786	-0.1673759155	-0.286575
C	 0.6589031622	 3.6253914448	-0.2173543623	-0.01429
C	 1.2009255539	 4.2898710131	 1.070997016	-0.332476
C	 0.7434205853	 5.6685930745	 1.2202999237	 0.275094
N	 0.4016949049	 6.7673767584	 1.3221457384	-0.304596
C	 1.1721133521	 2.1792786702	-0.3611856329	-0.348243
H	-2.0504487412	 1.8027854201	-0.1268848118	 0.141009
H	-1.4388181689	 2.2962413432	 1.4450560671	 0.142174
H	-1.1992966894	 3.6644048809	-1.0946793274	 0.234966
H	 0.9493117374	 4.2496626744	-1.0649754521	 0.105079
H	 0.8878324858	 3.7153146568	 1.9508916654	 0.152497
H	 2.2968092434	 4.2828611763	 1.06087075	 0.151938
H	 2.1247390928	 1.9621212528	 0.1278852877	 0.135388
H	 1.2789712766	 1.9096723043	-1.4186544954	 0.13821
50.9834	74.3719	121.2553	150.899	317.425	371.5178	397.1523	450.9206	462.3576	537.1741	616.0757	694.7048	732.2991	758.6783	823.081	836.8677	938.9978	969.7328	986.7489	1008.9849	1046.4644	1103.8351	1151.5607	1184.9133	1203.7667	1239.7928	1264.5835	1292.0066	1303.7604	1361.533	1387.7293	1447.14	1457.7061	1462.5698	1473.0691	1856.2522	2366.7671	3014.3416	3040.6823	3047.7916	3076.6561	3093.8434	3095.2935	3110.6122	3570.0565
O=C1CNC(CC#N)C1	O=C1CN[C@@H](CC#N)C1	
InChI=1S/C6H8N2O/c7-2-1-5-3-6(9)4-8-5/h5,8H,1,3-4H2	InChI=1S/C6H8N2O/c7-2-1-5-3-6(9)4-8-5/h5,8H,1,3-4H2/t5-/m0/s1
