17
gdb 55057	4.24581	0.85163	0.7804	4.9725	76.51	-0.2466	0.0132	0.2598	1452.1865	0.134485	-417.976548	-417.96697	-417.966026	-418.01173	34.599	
N	 0.338181113	 0.9959067851	-0.8130962014	-0.534726
C	 0.0845216132	 0.2045884066	 0.2734929585	 0.443381
O	 0.8900840127	 0.0576987678	 1.1716938879	-0.358621
C	-1.2909822139	-0.4147206699	 0.2666549292	-0.158555
N	-1.4218600578	-1.7365497689	 0.9048309663	-0.301121
C	-2.0952063087	-0.6010032601	 1.5186811079	-0.009401
C	-1.6110324479	-0.1688929018	 2.8950376686	-0.364684
C	-2.3117588515	-0.88370447	 3.9560646514	 0.298543
C	-2.9101950214	-1.4757285518	 4.8141012645	-0.448294
H	 1.262222064	 1.3877277104	-0.8972397834	 0.263944
H	-0.2584577144	 1.0060732594	-1.621480187	 0.258407
H	-1.872781519	-0.2330844257	-0.6360285999	 0.07744
H	-2.0719558973	-2.3150642687	 0.380187242	 0.238787
H	-3.1731190208	-0.521185978	 1.3830775866	 0.097373
H	-0.532704115	-0.3379720974	 2.9498002472	 0.180538
H	-1.7722091393	 0.9109784994	 3.0109777521	 0.125486
H	-3.4205629858	-2.0005555664	 5.5828102694	 0.191504
46.1037	67.4703	109.1257	183.0742	206.3666	250.1355	335.9154	343.3833	397.8644	431.3996	520.7464	576.2518	609.2147	639.2044	647.1817	762.004	793.613	848.2796	881.8603	934.8648	970.147	983.1984	1020.9817	1078.0768	1111.2138	1183.2505	1206.5142	1256.6805	1269.7125	1297.37	1321.892	1433.5254	1466.7298	1480.1192	1618.1593	1796.5785	2238.7393	3027.6296	3101.1281	3108.1291	3120.7819	3508.049	3511.8728	3601.5345	3736.0113
NC(=O)C1NC1CC#C	NC(=O)[C@H]1N[C@H]1CC#C	
InChI=1S/C6H8N2O/c1-2-3-4-5(8-4)6(7)9/h1,4-5,8H,3H2,(H2,7,9)	InChI=1S/C6H8N2O/c1-2-3-4-5(8-4)6(7)9/h1,4-5,8H,3H2,(H2,7,9)/t4-,5-/m0/s1
