17
gdb 39186	3.01135	1.67402	1.12745	1.8271	78.47	-0.1649	0.0302	0.1952	1038.3082	0.139047	-417.960834	-417.953477	-417.952532	-417.992436	29.169	
C	 0.3944794158	 1.3182303298	-0.7521061016	-0.080967
O	 1.2772326702	 2.2209597544	-0.0988624845	-0.245025
C	 2.6055416918	 1.9173104163	 0.0187997772	 0.016302
C	 3.2846028229	 0.757659568	 0.0118047305	-0.083336
N	 2.8476081771	-0.5676425466	-0.094744588	-0.439576
C	 1.5252312634	-0.8925895733	-0.2598524247	 0.312858
C	 0.3273780508	-0.0153461246	-0.0232431537	-0.048266
N	-0.4898324837	-1.0695735957	-0.7286448206	-0.342817
C	 0.7449823552	-1.8398032743	-0.813326303	-0.190101
H	-0.5782097105	 1.8169524434	-0.7560841646	 0.114754
H	 0.7100149851	 1.1474371667	-1.7903130624	 0.108364
H	 3.1719891772	 2.8213149214	 0.2099998634	 0.107824
H	 4.3548825711	 0.841434102	 0.1587867767	 0.10697
H	 3.5300813	-1.2285061039	-0.4309675002	 0.247735
H	 0.0428666682	 0.1322843267	 1.024115414	 0.094144
H	-1.1861951369	-1.4750431216	-0.1021137574	 0.217745
H	 0.8708316624	-2.7929566388	-1.3072934413	 0.103394
123.4893	168.5437	276.255	333.5717	341.5547	383.0717	452.5357	497.0056	533.1873	643.4381	694.4678	742.9477	748.8712	837.9258	869.8121	884.1416	929.4498	960.4084	962.1411	1025.5869	1038.664	1070.5074	1140.3781	1161.9829	1193.7048	1243.5249	1272.3968	1295.7116	1328.0095	1353.2425	1396.9185	1400.2508	1441.4195	1477.6656	1497.3235	1721.4995	1748.6764	3016.5996	3058.1938	3100.2951	3189.9977	3209.3329	3225.0127	3423.1257	3621.9189
C1OC2C3NC22C1NC32	C1OC=CNC2=CN[C@H]12	
InChI=1S/C6H8N2O/c1-2-6-4(7-2)3(8-6)5(6)9-1/h2-5,7-8H,1H2	InChI=1S/C6H8N2O/c1-2-9-4-6-5(7-1)3-8-6/h1-3,6-8H,4H2/t6-/m1/s1
