18
gdb 14864	2.88966	1.61679	1.14552	3.9463	69.19	-0.2418	-0.0153	0.2264	1064.8288	0.152203	-384.925424	-384.916857	-384.915913	-384.95915	30.201	
C	 0.2236729777	 1.5545712208	-0.1815220454	-0.241725
O	-0.3372653168	 0.3177131637	-0.5657323747	-0.238729
C	 0.5805067811	-0.5467075393	-1.1750342213	 0.160098
C	 1.6186052456	-1.2992408608	-0.2957769399	-0.258101
C	 1.2771003184	-2.588330793	-1.0891894823	-0.245018
C	-0.0322451813	-1.9063288506	-1.6162743741	-0.149005
C	-1.2425734402	-2.3000584072	-0.8057361457	 0.18832
O	-2.2889425607	-2.6578618361	-1.2818884475	-0.259219
H	 1.0156670519	 1.4311702298	 0.5718324954	 0.110936
H	 0.6479297916	 2.0894585457	-1.0454428674	 0.108404
H	-0.5805933356	 2.1557597964	 0.2479145867	 0.134239
H	 1.0714834	-0.0505478895	-2.0267835939	 0.073898
H	 2.6533767261	-0.9510457538	-0.3102069568	 0.102885
H	 1.2749777585	-1.3542020173	 0.7411094856	 0.115782
H	 1.9763104913	-2.7839944587	-1.9044033236	 0.117989
H	 1.1499984478	-3.5081488042	-0.5139367014	 0.114502
H	-0.2729439089	-2.0169971144	-2.6744084048	 0.091207
H	-1.0990271665	-2.2663069315	 0.297716851	 0.073536
68.3641	98.8518	112.5036	171.6023	197.3463	297.5958	321.4902	422.3032	465.9029	495.2298	687.6241	764.5132	870.1796	890.3547	923.0562	953.9498	988.8548	1033.9498	1049.9744	1108.0502	1148.864	1166.4922	1184.3019	1204.4264	1227.9184	1247.0996	1259.3529	1267.3531	1282.7038	1323.1845	1386.3882	1438.5474	1479.2311	1480.9753	1487.8806	1497.8452	1508.877	1830.6479	2875.4464	2974.4072	2981.8754	3028.5763	3062.6296	3071.4479	3105.7685	3113.2543	3122.179	3129.8631
COC1CCC1C=O	CO[C@H]1CC[C@H]1C=O	
InChI=1S/C6H10O2/c1-8-6-3-2-5(6)4-7/h4-6H,2-3H2,1H3	InChI=1S/C6H10O2/c1-8-6-3-2-5(6)4-7/h4-6H,2-3H2,1H3/t5-,6-/m0/s1
