18
gdb 78706	2.98216	1.64315	1.45585	1.4711	75.63	-0.2123	0.0051	0.2174	974.4402	0.14824	-401.907329	-401.899715	-401.898771	-401.938886	30.604	
C	 0.0211283812	 1.4589109604	 0.0397122101	-0.492774
C	 0.0396881617	-0.0482940906	-0.0254869289	 0.315831
C	-0.0476995986	-0.742405423	-1.3455692182	-0.13379
C	-0.5737052855	-1.9522811826	-1.1622668926	-0.064322
C	-0.7380666502	-2.1603080611	 0.3155228802	-0.152635
C	 0.6896941897	-2.2904166607	 0.9907365182	 0.133313
O	 1.7859617937	-2.8446515187	 0.3131020815	-0.430357
C	 0.6632085458	-0.7911454373	 1.1321343578	-0.120122
N	-0.8431141777	-0.7614245429	 0.9284813669	-0.168766
H	 0.9279890969	 1.8784304481	-0.4087774745	 0.120515
H	-0.8443986016	 1.8554095502	-0.5006992323	 0.126828
H	-0.0409063096	 1.8027987547	 1.0755848865	 0.128356
H	 0.2917012783	-0.3003889875	-2.2733321811	 0.102825
H	-0.7136963943	-2.7254268906	-1.906310266	 0.103204
H	-1.5101336422	-2.8542671695	 0.646585639	 0.072431
H	 0.5603642312	-2.7362580814	 1.9848326198	 0.087397
H	 1.7898973047	-3.795781396	 0.4595379424	 0.283793
H	 1.1452185564	-0.2430566116	 1.9370620514	 0.088272
159.0852	189.5274	217.2522	271.5583	305.7001	323.6712	479.6367	517.7419	551.7299	633.4818	723.221	738.0958	751.8228	774.0074	835.0415	853.5583	876.085	929.7553	968.8036	989.6917	1010.6869	1023.6545	1043.2523	1089.8196	1106.3863	1145.7432	1170.4093	1219.6754	1242.143	1256.7031	1276.0283	1342.9657	1365.4408	1380.9115	1415.8768	1444.0921	1485.6397	1495.7956	1663.3762	3025.8368	3036.1692	3102.0892	3113.298	3118.6545	3148.4707	3207.0622	3231.7352	3818.5354
CC12C=CC3C(O)C1N23	C[C@@]12C=C[C@H]3[C@@H](O)[C@@H]1N23	
InChI=1S/C7H9NO/c1-7-3-2-4-5(9)6(7)8(4)7/h2-6,9H,1H3	InChI=1S/C7H9NO/c1-7-3-2-4-5(9)6(7)8(4)7/h2-6,9H,1H3/t4-,5+,6-,7+,8?/m0/s1
