18
gdb 36648	3.45341	1.1357	1.00573	3.0679	76.2	-0.2779	0.0109	0.2888	1212.9968	0.148369	-401.894872	-401.886935	-401.88599	-401.928514	29.756	
N	 0.5181982584	-0.0330734061	 1.5420966831	-0.308774
C	 0.223940756	 0.6406694031	 0.6508679581	 0.264073
C	-0.1514553697	 1.5023403815	-0.4896074518	-0.211095
O	 0.9083269549	 2.2782313743	-0.9804225643	-0.250118
C	 1.268303522	 3.3690241642	-0.155961534	 0.181716
C	 2.3216231528	 3.1844650179	 0.9832245556	-0.082746
C	 3.3827306383	 2.9745980769	-0.1400577843	-0.218064
C	 2.5012396205	 4.1676373179	-0.62602805	-0.087324
C	 2.5734683117	 4.7115802849	 0.8311786859	-0.229386
H	-0.487719618	 0.8608717956	-1.3099770251	 0.160548
H	-1.0046100562	 2.1259466213	-0.1797294002	 0.140261
H	 0.371679526	 3.9501221008	 0.1039839936	 0.066193
H	 2.2083411337	 2.6211517786	 1.9079834845	 0.097164
H	 4.4144847228	 3.2174984891	 0.1251808831	 0.092553
H	 3.3161692107	 2.0507980555	-0.7131055816	 0.112858
H	 2.5935143248	 4.7345690198	-1.5527102949	 0.077225
H	 1.7755984661	 5.3873421149	 1.1533567289	 0.092287
H	 3.5533560853	 5.06535874	 1.1566533132	 0.102627
37.7095	73.2779	202.0533	216.1544	343.7592	376.2154	393.2227	528.1748	585.0826	620.8164	768.7131	805.245	879.9364	898.0418	902.1801	910.0461	916.5412	994.1458	1019.6672	1027.8035	1030.8679	1073.9319	1096.1178	1107.1208	1117.055	1148.3054	1166.7886	1197.9714	1216.8862	1245.2147	1258.1443	1278.3275	1297.8108	1387.1097	1417.5132	1468.4575	1497.2832	1534.9103	2357.2511	2992.1944	3000.8811	3053.8629	3072.204	3087.236	3112.8057	3125.9882	3132.4437	3152.9969
N#CCOC1C2CC1C2	N#CCO[C@H]1[C@H]2C[C@@H]1C2	
InChI=1S/C7H9NO/c8-1-2-9-7-5-3-6(7)4-5/h5-7H,2-4H2	InChI=1S/C7H9NO/c8-1-2-9-7-5-3-6(7)4-5/h5-7H,2-4H2/t5-,6+,7-
