18
gdb 54252	2.64412	1.40473	1.2758	5.2336	72.82	-0.2338	-0.0043	0.2296	1075.615	0.148385	-439.129978	-439.121596	-439.120652	-439.163157	31.708	
C	 0.1556519573	 1.4878198276	-0.0005264327	-0.439565
C	-0.0047326664	-0.0404595848	 4.0679*^-6	 0.093947
N	 0.6562186376	-0.713365267	-1.1511857441	-0.371766
H	-1.0328847474	-1.4188947861	-1.43230006	 0.301749
H	 0.9444852298	-0.0405530699	-1.8499925407	 0.233078
C	 1.7976062478	-1.5290527868	-0.6726490973	-0.218787
C	 1.6393252838	-1.5080811303	 0.8228072944	-0.078187
C	 0.6542929116	-0.6981771945	 1.1927575057	-0.077259
C	-1.5215455066	-0.3835677723	 0.0061154707	 0.422447
O	-1.8764535501	-1.2459235927	-0.9482163115	-0.373823
O	-2.2862966695	 0.0795552936	 0.8114690254	-0.359843
H	 1.2089154654	 1.7624827539	 0.1081531833	 0.11631
H	-0.2300977662	 1.9188453265	-0.9313943414	 0.122125
H	-0.4147069641	 1.9179632439	 0.8248352953	 0.156751
H	 1.748957411	-2.5472518243	-1.0815399736	 0.121818
H	 2.7660092865	-1.1111772451	-0.9859884779	 0.112695
H	 2.2671234796	-2.0947680226	 1.481667902	 0.112214
H	 0.3099165998	-0.5001933191	 2.1990769245	 0.126097
63.2534	120.5105	192.9008	247.025	260.0687	292.4296	360.7461	422.2697	480.4562	549.2992	687.9907	711.6268	737.2543	777.1001	806.9512	845.6338	899.671	926.6442	939.2869	966.0423	976.9959	1026.3932	1054.3523	1115.383	1136.759	1173.904	1199.4444	1216.4802	1233.1186	1335.4732	1357.161	1395.8403	1430.1427	1450.0861	1487.615	1498.8053	1518.7167	1692.2144	1859.1165	2991.5738	3021.6744	3034.5545	3104.8334	3141.1813	3210.3489	3237.913	3382.6376	3563.6144
CC1([NH2+]CC=C1)C([O-])=O	C[C@]1(NCC=C1)C(=O)O	
InChI=1S/C6H9NO2/c1-6(5(8)9)3-2-4-7-6/h2-3,7H,4H2,1H3,(H,8,9)	InChI=1S/C6H9NO2/c1-6(5(8)9)3-2-4-7-6/h2-3,7H,4H2,1H3,(H,8,9)/t6-/m1/s1
