20
gdb 77882	2.04933	1.64754	1.27857	1.9734	80.32	-0.2308	-0.0198	0.2111	1127.1361	0.168822	-403.132307	-403.122695	-403.121751	-403.166325	35.463	
C	-0.0659586712	 1.4712893351	-0.1787599319	-0.434931
C	 0.0724756313	-0.0329025166	-0.0472363091	-0.0179
N	 1.2488681206	-0.8724457586	-0.3324138099	-0.198913
C	 2.5080980332	-0.1499053976	 0.0836717553	-0.039943
C	 3.0877701587	 0.9520173869	-0.7864630322	-0.426511
C	 1.9399947584	 0.0097156434	 1.5095769833	 0.317351
O	 2.3833361439	 0.3756700732	 2.561067539	-0.313708
C	 0.6996048977	-0.7496640354	 1.1029456217	 0.190256
C	 0.0589575682	-1.853118613	 1.8905650167	-0.496923
H	 0.6985378411	 2.0320327473	 0.3606503651	 0.140111
H	-0.0503632454	 1.7759226282	-1.23043058	 0.13075
H	-1.035493021	 1.767931523	 0.2355860558	 0.128546
H	-0.8131191599	-0.552067552	-0.4142567048	 0.102833
H	 3.2690509283	-0.9371568888	 0.1853819241	 0.12029
H	 2.4201871773	 1.8038121134	-0.914216873	 0.126082
H	 4.0186513351	 1.3143958203	-0.3389464225	 0.136039
H	 3.3244419821	 0.5536770202	-1.778345576	 0.132849
H	-0.4834221042	-1.4402428643	 2.7478428655	 0.138283
H	-0.6503780512	-2.4101201841	 1.2724123975	 0.132513
H	 0.807209877	-2.5534739706	 2.2746644954	 0.132927
102.8387	127.6637	149.4713	192.5768	199.4378	219.2624	236.346	294.9064	349.6507	380.2476	498.5141	572.4447	633.9014	649.0515	682.7324	752.4271	818.7752	843.3611	885.2762	957.6674	1013.744	1066.1878	1070.5228	1096.4446	1114.9938	1129.0572	1159.3967	1183.7701	1251.7985	1290.1571	1334.0323	1365.1988	1403.8439	1410.026	1416.216	1447.9526	1481.0913	1485.5198	1489.7466	1494.4883	1502.4379	1510.176	1881.5774	3011.5218	3037.3651	3039.7767	3048.5001	3096.8167	3102.5255	3103.7818	3108.8332	3118.1654	3137.7885	3154.2764
CC1N2C(C)C(=O)C12C	C[C@H]1N2[C@@H](C)C(=O)[C@@]12C	
InChI=1S/C7H11NO/c1-4-6(9)7(3)5(2)8(4)7/h4-5H,1-3H3	InChI=1S/C7H11NO/c1-4-6(9)7(3)5(2)8(4)7/h4-5H,1-3H3/t4-,5+,7+,8?/m0/s1
