17
gdb 83011	2.64266	1.94287	1.64616	2.5639	66.05	-0.2326	0.0508	0.2834	880.5229	0.137791	-458.914004	-458.907219	-458.906275	-458.945077	27.497	
O	 0.0246668621	 1.4821990004	 0.1969057355	-0.428417
C	-0.0200780794	 0.0991309944	 0.1014903793	 0.085956
C	-0.4666506832	-0.7843066931	 1.2369466889	 0.04784
O	-1.1329493744	-0.2067534978	 2.3314612116	-0.260408
C	-2.4461387597	 0.1871277569	 1.9790747094	 0.066559
C	-2.6476041237	 1.6851365174	 1.7001167579	-0.115839
O	-2.685151888	 1.4545969901	 0.2615313875	-0.318006
C	-2.596142114	 0.0029924199	 0.4501927802	 0.078544
C	-1.3280904088	-0.6739273157	-0.0171607792	-0.190501
H	-0.8452350551	 1.8096810116	-0.0759501852	 0.304967
H	 0.7951930615	-0.3127127316	-0.4929573096	 0.09949
H	 0.089301	-1.6775891021	 1.5026422782	 0.103018
H	-3.1648752317	-0.2860264214	 2.6538086258	 0.092358
H	-3.5975023766	 2.1006203569	 2.0527010759	 0.111241
H	-1.8106511301	 2.3217741946	 1.9971959133	 0.133681
H	-3.4997269279	-0.4829645854	 0.0737819351	 0.093302
H	-1.4116642009	-1.472629765	-0.7439210746	 0.096217
131.1695	172.4394	268.5062	362.997	391.5171	542.6753	590.7307	633.5284	683.7918	716.3344	754.7979	766.5968	831.0799	855.0577	897.3675	915.1575	949.952	987.6935	1030.7423	1048.2496	1072.872	1076.6528	1094.6496	1103.6268	1158.868	1189.1791	1228.688	1245.7837	1251.4339	1316.7024	1320.9376	1336.7334	1360.1301	1378.9409	1418.1276	1441.7034	1502.1174	3043.9057	3068.2315	3082.3653	3106.1419	3115.0673	3162.6735	3183.3581	3694.1665
OC1C2OC3COC3C12	O[C@H]1[C@H]2O[C@H]3CO[C@H]3[C@@H]12	
InChI=1S/C6H8O3/c7-4-3-5-2(1-8-5)9-6(3)4/h2-7H,1H2	InChI=1S/C6H8O3/c7-4-3-5-2(1-8-5)9-6(3)4/h2-7H,1H2/t2-,3+,4+,5+,6-/m0/s1
