21
gdb 92464	2.52943	1.68581	1.6708	1.3667	81.41	-0.2321	0.0158	0.2479	986.7979	0.185643	-387.109044	-387.101525	-387.10058	-387.140541	31.195	
C	-0.1592254497	 1.5461762245	-0.0259500906	-0.408791
C	 0.0461921576	 0.0349615596	 0.0130249923	 0.168737
O	 0.7582955361	-0.3593976021	-1.1661969025	-0.29798
C	 1.8548107527	-1.255771792	-0.8932664515	 0.065325
C	 2.9175887026	-0.4521185523	-0.1128708805	-0.202657
C	 2.2691950782	 0.0093779659	 1.220968873	-0.211326
C	 0.8014494611	-0.5010917026	 1.2603763652	-0.079902
C	 0.8346954058	-2.0041890447	 1.1117467436	-0.090597
C	 1.3877205121	-2.4066795456	-0.0335159934	-0.069201
H	 0.7912266094	 2.0859910396	 0.0016000254	 0.118091
H	-0.6730943738	 1.8227278113	-0.9509099064	 0.125233
H	-0.7742952237	 1.874083564	 0.8189275442	 0.107145
H	-0.943288722	-0.4477241925	-0.0090404295	 0.066102
H	 2.2218401676	-1.5715771756	-1.8713173105	 0.070188
H	 3.8071854764	-1.0654663537	 0.0598534103	 0.095698
H	 3.217644296	 0.4048993388	-0.723252554	 0.100298
H	 2.8094403576	-0.3895291507	 2.0834716077	 0.098653
H	 2.2930357503	 1.0988208073	 1.3100253797	 0.100092
H	 0.2939162098	-0.1776557899	 2.172251401	 0.061653
H	 0.4250010685	-2.6660253505	 1.8670902279	 0.090255
H	 1.5045418074	-3.4391916986	-0.3424734914	 0.092986
110.809	216.9313	271.3469	299.002	360.0387	405.1229	411.9143	480.7412	606.1587	640.414	676.9216	719.7149	780.6591	819.1125	827.3893	863.1129	918.4942	955.5457	963.8763	967.5747	982.8257	1024.093	1034.1731	1064.7059	1090.5682	1108.3493	1134.1535	1143.3198	1183.8637	1221.8272	1257.2381	1293.7252	1312.7612	1328.3292	1346.0298	1365.6393	1380.1386	1389.6427	1393.091	1406.0733	1477.7142	1484.5301	1492.6571	1510.6969	1678.896	2971.296	3039.2988	3045.2669	3059.2073	3080.9125	3082.7324	3097.1882	3102.9685	3110.6705	3121.5071	3175.9117	3201.0893
CC1OC2CCC1C=C2	C[C@H]1O[C@H]2CC[C@@H]1C=C2	
InChI=1S/C8H12O/c1-6-7-2-4-8(9-6)5-3-7/h2,4,6-8H,3,5H2,1H3	InChI=1S/C8H12O/c1-6-7-2-4-8(9-6)5-3-7/h2,4,6-8H,3,5H2,1H3/t6-,7+,8-/m1/s1
