16
gdb 5899	3.02837	1.23501	1.06771	1.7643	75.61	-0.2525	0.0195	0.2721	1186.6547	0.125763	-346.539869	-346.529942	-346.528998	-346.575507	34.674	
C	-0.0039011707	 1.4867932963	-0.0118493562	-0.499501
C	-0.0027232881	 0.0315088686	-0.0015353707	 0.009218
C	-0.0024626641	-1.1723404095	 0.0102208146	 0.129595
C	 0.0091389145	-2.6457392526	-0.0064637826	-0.031796
C	-1.4232976887	-3.2061544208	 0.0520512514	-0.387353
O	 0.5556127892	-3.1350340215	-1.2364841843	-0.420257
C	 0.8016864406	-3.1420994609	 1.1360106857	 0.353177
C	 1.4587732852	-3.5632649593	 2.0496570375	-0.494626
H	 0.7272878953	 1.8899726696	 0.6971452171	 0.152408
H	 0.2456819132	 1.8746755222	-1.0054896432	 0.152481
H	-0.9876968533	 1.8836155468	 0.2612300286	 0.152562
H	-1.9829574122	-2.8380886159	-0.8104245034	 0.132736
H	-1.3822107062	-4.2970557507	 0.0192534585	 0.133705
H	-1.9190136248	-2.8880270626	 0.9706801713	 0.131914
H	 1.4480527831	-2.7791866154	-1.3152069861	 0.285731
H	 2.039599787	-3.9314682543	 2.8590688717	 0.200005
20.3556	86.1207	113.7036	175.6072	203.4858	244.6233	297.6925	306.7432	341.5634	380.2363	458.4399	501.3259	545.761	598.4901	635.3039	657.0517	662.374	872.6866	934.8095	1024.7109	1051.8755	1053.3668	1084.2601	1158.4561	1234.4285	1360.315	1398.0811	1413.4358	1476.4059	1477.559	1479.5659	1485.6783	2232.8878	2368.3118	3028.9517	3057.7645	3091.1674	3091.6359	3142.8985	3149.3655	3501.2588	3804.8628
CC#CC(C)(O)C#C	CC#C[C@@](C)(O)C#C	
InChI=1S/C7H8O/c1-4-6-7(3,8)5-2/h2,8H,1,3H3	InChI=1S/C7H8O/c1-4-6-7(3,8)5-2/h2,8H,1,3H3/t7-/m0/s1
