21
gdb 116896	4.55697	0.50086	0.4634	3.1209	85.91	-0.2496	0.0268	0.2764	2383.0246	0.180118	-424.198521	-424.187342	-424.186398	-424.237515	38.937	
C	 0.0025786718	 1.5802234221	-0.0268162079	-0.382244
C	 0.0380077245	 0.0511937506	 0.0017342031	-0.155088
C	 0.6706472997	-0.5414637712	-1.2749829259	-0.338519
C	 0.7120570298	-1.9993121193	-1.2700932443	 0.044332
C	 0.7153759299	-3.2047398534	-1.2500105059	 0.081506
C	 0.7918372585	-4.6609809949	-1.2094253128	-0.070005
O	 1.495516954	-5.2060415655	-2.337331155	-0.431497
C	 1.4596483612	-5.1710674869	 0.0814438476	-0.051923
O	 1.5749492293	-6.5735205262	 0.0478899339	-0.419376
H	 1.0110916211	 2.0000422272	-0.112088172	 0.116981
H	-0.5823711918	 1.9484104007	-0.8769530202	 0.117826
H	-0.448439122	 1.9807351024	 0.8857962068	 0.117753
H	 0.6042709408	-0.2979712713	 0.872230272	 0.110761
H	-0.9760323471	-0.3484887056	 0.1121221232	 0.11235
H	 0.1102672444	-0.1934167263	-2.1530997487	 0.13038
H	 1.688918301	-0.1463429499	-1.3905805443	 0.127179
H	-0.2097629677	-5.1026681249	-1.2701834551	 0.120761
H	 2.2570229988	-4.6369008683	-2.4983329548	 0.287199
H	 2.4399668944	-4.6757443904	 0.1883886807	 0.080397
H	 0.8522700284	-4.9021170978	 0.9512298563	 0.114852
H	 1.892028601	-6.7808608112	-0.8413956865	 0.286376
9.7509	57.378	68.0831	116.7344	146.8413	196.4414	240.3113	272.6297	298.5142	314.3007	355.0554	424.647	502.6713	521.402	549.4706	560.6712	743.9802	812.8041	873.467	873.7679	904.4236	1037.2049	1046.6551	1066.0241	1094.6992	1108.0241	1123.2077	1161.8432	1203.1242	1258.9286	1269.8896	1299.1243	1305.8451	1322.0224	1376.5552	1380.1404	1412.9623	1416.3693	1436.7647	1474.5338	1492.0659	1498.7074	1502.7397	1508.8112	2358.7324	2960.0675	3011.7343	3030.8628	3039.4101	3043.3601	3047.5164	3075.4397	3084.2783	3101.9883	3107.9189	3761.1351	3800.8233
CCCC#CC(O)CO	CCCC#C[C@@H](O)CO	
InChI=1S/C7H12O2/c1-2-3-4-5-7(9)6-8/h7-9H,2-3,6H2,1H3	InChI=1S/C7H12O2/c1-2-3-4-5-7(9)6-8/h7-9H,2-3,6H2,1H3/t7-/m1/s1
