19
gdb 50841	3.71137	0.87333	0.73352	4.9813	78.75	-0.2478	-0.019	0.2288	1525.4107	0.159699	-419.228172	-419.218974	-419.21803	-419.263245	33.266	
N	 0.6453185139	 0.9750831321	 1.6561515611	-0.493435
C	-0.0088541123	 0.3333981463	 0.780028443	 0.348247
C	-1.4208701131	-0.1455823483	 1.0584490067	-0.283415
C	-2.4295208338	 0.1878280969	-0.0262733651	 0.01139
C	-2.7314747692	-0.7892863766	-1.1480089435	-0.272231
C	-3.7512820578	-0.528422154	-0.0675237197	-0.277534
N	 0.4599645633	-0.0298431737	-0.5065444626	-0.328829
C	 1.6994512024	 0.2204251706	-1.0361074041	 0.164596
O	 2.61480437	 0.7790255567	-0.4736748715	-0.299717
H	 1.5818286179	 1.1987567397	 1.3169600538	 0.25034
H	-1.4023853901	-1.2346701977	 1.2073529935	 0.111741
H	-1.7091545962	 0.3035517095	 2.01166474	 0.140272
H	-2.4556327019	 1.238922649	-0.3014807434	 0.100154
H	-2.9217580722	-0.3990744735	-2.1418094771	 0.121097
H	-2.2365128732	-1.756641363	-1.1370154433	 0.113001
H	-3.9238852781	-1.3133195649	 0.661382963	 0.120198
H	-4.6367769912	 0.041097009	-0.3251859279	 0.121671
H	-0.2103584081	-0.4750864545	-1.1162327213	 0.262208
H	 1.7789718996	-0.1603077635	-2.0731580516	 0.090248
50.3006	72.2503	93.6779	173.1388	237.0637	259.4646	299.0312	324.2102	439.9169	506.7565	608.5772	637.0217	764.5265	790.2996	817.852	836.8095	899.7586	914.9728	945.4012	979.6553	1014.3468	1026.8014	1056.1026	1081.8964	1091.2302	1140.4136	1154.7041	1193.2488	1203.3044	1225.5616	1257.3083	1313.9339	1355.6678	1409.6297	1440.5249	1463.8165	1472.0783	1504.1747	1511.6601	1734.5354	1812.5512	2942.5519	3014.0925	3107.1621	3119.6798	3137.0828	3144.7411	3204.3093	3224.609	3482.9314	3608.4394
N=C(CC1CC1)NC=O	N=C(CC1CC1)NC=O	
InChI=1S/C6H10N2O/c7-6(8-4-9)3-5-1-2-5/h4-5H,1-3H2,(H2,7,8,9)	InChI=1S/C6H10N2O/c7-6(8-4-9)3-5-1-2-5/h4-5H,1-3H2,(H2,7,8,9)
