17
gdb 58395	2.09416	1.19785	0.80282	5.456	71.04	-0.2677	-0.0175	0.2502	1383.7269	0.133424	-455.164802	-455.154558	-455.153614	-455.201165	34.93	
C	 0.0436525716	 1.4738814834	-0.1185784305	-0.411935
C	 0.0323713579	-0.0552177645	-0.0256427543	 0.005337
N	 0.7042799246	-0.6091052682	 1.1480889062	-0.508093
C	-1.414772341	-0.6015102466	-0.0083694775	-0.028372
O	-2.1167552047	-0.0851519947	-1.1446188714	-0.185662
C	-3.4577030039	 0.091198645	-1.0304443376	 0.177809
O	-4.118448215	 0.5136904067	-1.9254904628	-0.254753
C	-1.4397789662	-2.0732351097	-0.0382103106	 0.312396
N	-1.5001308257	-3.225015634	-0.0937829546	-0.31231
H	 1.0766744445	 1.8323771525	-0.1447781008	 0.123614
H	-0.4699075023	 1.8308361761	-1.0140443247	 0.149675
H	-0.4445627258	 1.9195784164	 0.7573641044	 0.113379
H	 0.5145734857	-0.4751871079	-0.9146314589	 0.119012
H	 1.7042476002	-0.666324717	 0.9965023053	 0.245184
H	 0.561467648	-0.0128937485	 1.9580460359	 0.231491
H	-1.9048792459	-0.2687575928	 0.9175949659	 0.127183
H	-3.845138792	-0.187055116	-0.0321922342	 0.096045
38.3967	67.8269	128.1881	138.1897	166.7477	187.7352	234.8449	276.5114	325.6551	359.9056	419.5746	442.0242	528.5049	545.4426	721.1662	823.3293	874.8187	924.9947	995.3234	1029.0225	1038.6432	1062.0295	1108.04	1149.0081	1183.8094	1228.389	1305.9303	1343.7534	1371.0194	1400.3437	1408.9212	1432.6641	1488.4824	1501.5368	1663.8767	1879.6003	2366.3472	2963.8465	3014.4561	3028.0979	3064.6551	3102.9374	3132.726	3504.2712	3594.8038
CC(N)C(OC=O)C#N	C[C@@H](N)[C@@H](OC=O)C#N	
InChI=1S/C5H8N2O2/c1-4(7)5(2-6)9-3-8/h3-5H,7H2,1H3	InChI=1S/C5H8N2O2/c1-4(7)5(2-6)9-3-8/h3-5H,7H2,1H3/t4-,5+/m1/s1
