16
gdb 28479	3.07268	1.43352	0.9843	1.5908	78.12	-0.2006	-0.0316	0.169	1150.5942	0.125512	-434.139503	-434.131277	-434.130333	-434.172091	31.404	
C	-0.0424265982	 1.5196617726	-0.0627481213	-0.475347
C	 0.0211369895	 0.0203323713	-0.03054979	 0.241462
N	-0.0139830429	-0.6543840844	-1.1768751698	-0.355895
C	 0.0471260832	-1.9925174787	-1.1385111446	 0.333966
N	 0.0767402282	-2.6581789499	-2.3584005541	-0.573744
C	 0.1338042059	-2.6659317993	 0.083895702	-0.085843
N	 0.1608899159	-2.0010044547	 1.2397757526	-0.327073
C	 0.1100210823	-0.6819700438	 1.1845578455	 0.355284
O	 0.140156345	 0.0187893292	 2.3464912807	-0.422888
H	 0.8485800043	 1.9591596667	 0.3990732368	 0.139206
H	-0.1191397792	 1.8619855656	-1.0955619879	 0.133213
H	-0.9020069386	 1.8886118846	 0.5074635166	 0.137982
H	-0.2665802107	-2.0905012115	-3.1201954699	 0.252755
H	-0.3120590616	-3.5893489483	-2.3570045599	 0.24907
H	 0.1827719735	-3.7506311403	 0.1321000136	 0.102387
H	 0.2008054634	-0.6376860192	 3.0534746596	 0.295464
105.6642	123.3652	220.8218	272.5182	314.6408	339.3321	393.8746	459.8406	505.0856	509.1847	514.3963	581.347	600.697	662.8084	728.6284	799.8381	809.96	899.353	978.9354	1023.6397	1056.1747	1108.1106	1152.3852	1258.1355	1295.4107	1333.0453	1372.3868	1405.5996	1461.3182	1477.2836	1485.3461	1509.3545	1611.3119	1630.8	1648.3045	3037.7594	3089.4819	3146.2215	3157.6311	3565.1461	3672.9551	3775.44
CC1=NC(N)=CN=C1O	Cc1nc(N)cnc1O	
InChI=1S/C5H7N3O/c1-3-5(9)7-2-4(6)8-3/h2H,1H3,(H2,6,8)(H,7,9)	InChI=1S/C5H7N3O/c1-3-5(9)7-2-4(6)8-3/h2H,1H3,(H2,6,8)(H,7,9)
