14
gdb 29438	5.14375	0.85619	0.79323	1.9293	65.96	-0.2256	-0.0384	0.1872	1369.2495	0.099948	-473.86211	-473.853926	-473.852982	-473.896789	28.709	
O	 0.2882146267	 1.3334938629	 0.0728642943	-0.425913
C	 0.1376147693	 0.0018749537	-0.0268130501	 0.322816
C	-0.1201910832	-0.7370012801	-1.1353077929	-0.15053
O	-0.1821769452	-2.0519841886	-0.7264363905	-0.165325
C	 0.0492193861	-2.0210687059	 0.5997954327	 0.371513
C	-0.0009469763	-3.3071411732	 1.3461117514	-0.373073
C	-1.4357965024	-3.7436019928	 1.6481092499	 0.15735
O	-1.840412071	-4.863760992	 1.5008707208	-0.222747
N	 0.2414999951	-0.8241214821	 1.0738508094	-0.380744
H	 0.4674236754	 1.5261081772	 1.0011434243	 0.309187
H	-0.26615171	-0.533964107	-2.1794261368	 0.152294
H	 0.4984462194	-4.1116717229	 0.8014863605	 0.149501
H	 0.5050096762	-3.1539231372	 2.3060577108	 0.159003
H	-2.0856772299	-2.928844972	 2.0367251962	 0.096667
22.8631	58.9767	133.6559	275.0565	287.3436	355.6285	394.7001	438.8131	468.9223	650.345	664.5903	710.8558	733.8958	753.5046	825.8825	970.8845	1021.2193	1038.3735	1050.5122	1127.0927	1172.4979	1191.9076	1268.1659	1289.821	1364.3804	1409.5363	1416.8811	1440.2827	1594.2627	1697.0756	1842.1833	2893.8806	3056.531	3125.1582	3318.3788	3807.9508
OC1=COC(CC=O)=N1	Oc1coc(CC=O)n1	
InChI=1S/C5H5NO3/c7-2-1-5-6-4(8)3-9-5/h2-3,8H,1H2	InChI=1S/C5H5NO3/c7-2-1-5-6-4(8)3-9-5/h2-3,8H,1H2
