21
gdb 105989	2.61828	1.55303	1.18615	0.2701	86.21	-0.2122	0.0874	0.2996	1146.7202	0.181084	-349.857048	-349.848375	-349.847431	-349.890182	33.83	
C	-0.2760535796	 1.4656492759	-0.0448649529	-0.370146
C	 0.1552018307	-0.0064741596	 0.0247476835	-0.329215
C	 0.8336059264	-0.4842573149	-1.220098796	 0.333476
C	 2.1514941839	-0.0251435658	-1.9286775204	-0.159379
C	 1.5637909888	-0.4016233458	-3.2792736839	-0.082988
C	 2.3479056877	-1.4296140889	-2.4785878896	-0.152663
C	 1.0310858978	-1.8937731679	-1.774842136	 0.278749
C	 0.6074142007	-3.221714073	-1.2383421379	-0.526541
C	 0.2493507725	-0.8592942246	-2.5846467861	-0.208128
H	 0.5856931192	 2.1199057719	-0.2137262791	 0.117776
H	-0.9810605826	 1.6280215373	-0.8663277031	 0.118052
H	-0.7578742262	 1.7808854972	 0.8859272774	 0.107987
H	 0.8223596891	-0.1511035271	 0.8862238988	 0.098134
H	-0.7233225514	-0.6375641099	 0.213556154	 0.097504
H	 2.8910949336	 0.7259649169	-1.6822838684	 0.080521
H	 1.7678666958	 0.0108372747	-4.2584916568	 0.082203
H	 3.2636759231	-1.9500087407	-2.7283903538	 0.080854
H	 1.2849893339	-3.5746982428	-0.4512927519	 0.118522
H	-0.3987001082	-3.1655067912	-0.8081698927	 0.119421
H	 0.5860826484	-3.9843053213	-2.0263151689	 0.12027
H	-0.7843438237	-0.8815996304	-2.9073580362	 0.075591
84.2607	122.8785	184.9736	209.0082	228.3296	258.4542	313.5851	411.9643	554.6741	629.2312	689.8146	754.5623	760.1263	770.3918	792.0848	802.4889	853.539	876.6023	899.3585	921.2038	964.1558	969.7576	980.1666	998.5401	1003.6618	1033.983	1089.3522	1100.521	1147.2367	1160.2524	1180.5617	1204.1178	1248.6003	1309.8928	1320.1781	1335.4929	1363.7117	1406.4454	1411.016	1457.2305	1475.3167	1481.1004	1496.6963	1499.2474	1507.4371	3003.8929	3015.0935	3034.2964	3039.3051	3071.1071	3087.7813	3102.9735	3107.1558	3181.4081	3184.7587	3191.7756	3204.9643
CCC12C3C4C3C1(C)C24	CC[C@@]12[C@@H]3[C@H]4[C@@H]3[C@]1(C)[C@@H]24	
InChI=1S/C9H12/c1-3-9-6-4-5(6)8(9,2)7(4)9/h4-7H,3H2,1-2H3	InChI=1S/C9H12/c1-3-9-6-4-5(6)8(9,2)7(4)9/h4-7H,3H2,1-2H3/t4-,5+,6-,7+,8-,9+/m1/s1
