23
gdb 121865	3.6727	0.6115	0.57623	1.4491	83.04	-0.2387	-0.0085	0.2301	1995.8983	0.202109	-425.449223	-425.437489	-425.436545	-425.487735	40.48	
C	 0.1241426157	 1.5620680745	 0.0506487195	-0.397042
C	-0.0035403892	 0.0247970543	-0.0210528486	-0.085509
C	-1.4633570838	-0.4567018471	 0.0192549007	-0.178914
C	-2.1993012828	-0.1331723326	 1.3227321512	-0.18583
C	-3.6036264698	-0.7230468325	 1.3566153639	-0.073333
O	-4.2018690943	-0.3589848023	 2.5920094805	-0.422613
C	 0.6850545288	-0.4452896271	-1.3068207995	 0.38564
C	 2.1717456298	-0.7419340085	-1.2130902829	-0.480682
O	 0.0768999169	-0.5643173728	-2.3462566555	-0.309997
H	 1.1678719811	 1.8847840669	-0.0188530373	 0.116332
H	-0.4279285054	 2.0279735879	-0.7719474243	 0.13337
H	-0.2747333639	 1.9443684117	 0.9933605135	 0.128928
H	 0.5436788308	-0.3994671507	 0.8319342663	 0.075071
H	-1.9938412676	-0.0277091864	-0.8379975892	 0.116359
H	-1.4738964931	-1.5428211402	-0.1397075873	 0.095438
H	-1.6412265976	-0.5218989116	 2.1843064439	 0.100597
H	-2.2851907458	 0.9491713307	 1.4683815243	 0.108894
H	-4.1868184251	-0.3409849249	 0.5026558696	 0.086511
H	-3.5496888598	-1.8188588504	 1.2472702047	 0.083852
H	-5.090959949	-0.724298978	 2.6143773508	 0.285009
H	 2.7055650801	 0.0527920783	-0.6819198745	 0.134978
H	 2.3182055693	-1.6616745872	-0.6333486485	 0.142294
H	 2.5921695548	-0.8770296119	-2.2103969312	 0.140649
39.2488	50.3032	77.7707	102.2262	131.6986	144.3516	211.9415	222.5583	264.2867	274.3864	297.5951	313.8698	452.1801	482.6812	601.0518	606.2705	752.2412	779.0398	855.2614	890.572	952.8914	979.5753	1006.8413	1016.9351	1057.0201	1063.2033	1090.7769	1125.1675	1161.7628	1191.2248	1230.9963	1232.0763	1292.9022	1303.438	1316.4961	1336.069	1361.9755	1381.258	1397.6173	1405.1632	1461.4367	1462.5062	1475.9059	1481.5904	1499.3345	1501.5604	1502.8141	1529.208	1808.674	2958.6255	2984.1426	3012.7668	3023.7838	3029.9642	3034.5705	3039.4568	3064.8527	3085.8599	3095.9029	3106.2953	3121.3305	3151.0638	3831.2222
CC(CCCO)C(C)=O	C[C@@H](CCCO)C(=O)C	
InChI=1S/C7H14O2/c1-6(7(2)9)4-3-5-8/h6,8H,3-5H2,1-2H3	InChI=1S/C7H14O2/c1-6(7(2)9)4-3-5-8/h6,8H,3-5H2,1-2H3/t6-/m0/s1
