19
gdb 107690	3.25461	1.26906	1.0586	2.5759	70.82	-0.2556	0.0734	0.329	1166.829	0.16014	-460.143029	-460.134774	-460.13383	-460.176067	31.547	
O	 0.0630460246	 1.3211370751	-0.4966796812	-0.417241
C	 0.0526758173	 0.0578669881	 0.1485157834	-0.135451
C	-1.3474318134	-0.5090494766	 0.2135928059	 0.326543
C	-2.3522305355	 0.2719282201	 1.0447558267	-0.140304
O	-3.6175785428	-0.3469436082	 1.114464839	-0.234604
C	-3.532993996	-1.6843290727	 1.5694957559	-0.079568
C	-2.8528979722	-2.5935641171	 0.5380864763	-0.239848
C	-1.6110636819	-1.9364762977	-0.0390064634	-0.018279
O	-1.8423168434	-0.9529319364	-1.0602114917	-0.293464
H	-0.3072440684	 1.182554441	-1.3763874767	 0.295156
H	 0.7099526391	-0.662166394	-0.361141164	 0.094153
H	 0.4506155875	 0.2247506756	 1.1554244355	 0.111353
H	-1.930236396	 0.4113883701	 2.0561666796	 0.088148
H	-2.5053592715	 1.2611687303	 0.6056626915	 0.127562
H	-2.9782784519	-1.7216903491	 2.522902783	 0.086094
H	-4.5576787896	-2.0111324518	 1.7658374081	 0.111699
H	-2.5863659244	-3.5470186032	 1.0076340794	 0.101786
H	-3.5388906075	-2.8147940845	-0.2864487557	 0.126815
H	-0.7660357439	-2.5919214493	-0.2521255517	 0.089451
67.599	130.2945	173.1897	268.0514	312.5409	348.0074	396.6743	416.5711	440.7648	512.0753	560.7949	684.5973	733.5357	803.3809	872.9191	914.2136	929.0377	936.4755	1007.2877	1037.771	1055.4992	1080.0266	1091.0258	1135.9541	1155.4835	1187.2111	1248.5022	1266.2277	1269.6563	1321.3855	1324.1074	1368.4465	1373.9535	1400.889	1423.2662	1425.2272	1466.9934	1477.2034	1488.2521	1491.3274	1502.8817	2950.8765	2959.7763	2994.8317	3042.2403	3073.3209	3083.2139	3093.0235	3097.7376	3103.3218	3795.5326
OCC12COCCC1O2	OC[C@]12COCC[C@H]1O2	
InChI=1S/C6H10O3/c7-3-6-4-8-2-1-5(6)9-6/h5,7H,1-4H2	InChI=1S/C6H10O3/c7-3-6-4-8-2-1-5(6)9-6/h5,7H,1-4H2/t5-,6+/m1/s1
