17
gdb 100442	4.08446	0.60528	0.5594	1.4051	77.48	-0.2668	-0.0595	0.2074	1938.1623	0.132331	-458.941164	-458.93065	-458.929706	-458.978547	35.846	
C	 0.0203381051	 1.4392330293	-0.1903630831	-0.479342
C	 0.0494829034	-0.0594151847	 0.02110957	 0.252348
O	 1.0726547953	-0.6899601422	 0.1784309067	-0.272802
C	-1.2470906253	-0.7163218139	 0.02558382	 0.068894
C	-2.3204870167	-1.2708380219	 0.0153757157	 0.018761
C	-3.5931454273	-1.9777245194	 0.0768452993	-0.072342
O	-3.4509977825	-3.3883585389	-0.112882879	-0.425561
C	-4.325177482	-1.7173245789	 1.4119429161	-0.057256
O	-5.5239147395	-2.4488955324	 1.4486275745	-0.412589
H	 1.0389164948	 1.8293103056	-0.175149631	 0.147191
H	-0.4585004247	 1.67452293	-1.1470012945	 0.150342
H	-0.5773359904	 1.9183844002	 0.5926618773	 0.148697
H	-4.2493927359	-1.6465215042	-0.7364049124	 0.134086
H	-2.6692378294	-3.6739216029	 0.3748162538	 0.296186
H	-3.6482511356	-1.9812189805	 2.241698327	 0.091683
H	-4.5744721315	-0.65594469	 1.5040056906	 0.121252
H	-5.295992848	-3.3408171654	 1.1544845091	 0.290454
26.9142	67.2683	75.8173	122.2645	144.0145	206.7548	217.1467	306.5688	313.5339	364.8029	479.5165	509.115	526.2964	530.4851	605.7766	628.0554	724.8915	859.4222	961.7103	1018.8794	1043.2008	1062.7306	1082.6214	1103.5135	1202.2484	1238.4339	1269.0293	1293.333	1375.9335	1382.5995	1417.0375	1432.433	1460.0354	1468.2292	1503.6519	1770.4179	2319.9407	2968.3994	3039.9196	3052.7345	3089.0467	3104.0605	3153.7611	3766.7902	3797.1747
CC(=O)C#CC(O)CO	CC(=O)C#C[C@@H](O)CO	
InChI=1S/C6H8O3/c1-5(8)2-3-6(9)4-7/h6-7,9H,4H2,1H3	InChI=1S/C6H8O3/c1-5(8)2-3-6(9)4-7/h6-7,9H,4H2,1H3/t6-/m1/s1
