25
gdb 115003	2.16749	1.34401	1.04465	0.1351	93.57	-0.2349	0.0295	0.2644	1329.636	0.228483	-352.382049	-352.372005	-352.371061	-352.416277	39.154	
C	-0.0782555662	 1.7270332464	-0.409656382	-0.386879
C	-0.2697917575	 0.2064416489	-0.4491413839	-0.19792
C	 0.9012695192	-0.5341146109	-1.1015323689	 0.020689
C	 2.2533295836	-0.4177691877	-0.3494413979	-0.276241
C	 2.9665256086	-1.6890648637	-0.7402496817	-0.093
C	 2.1364267307	-2.5704315629	-1.2921818807	-0.079208
C	 0.702272619	-2.0727849659	-1.3538895554	 0.239623
C	-0.1217202282	-2.7722734621	-0.250493577	-0.417385
C	 0.0478032793	-2.3390413904	-2.7186180558	-0.432371
H	 0.8037296638	 2.0054512319	 0.1763320637	 0.118016
H	 0.0531091675	 2.1352614388	-1.418229187	 0.11265
H	-0.943980164	 2.2233717775	 0.0400284697	 0.108956
H	-0.4214120298	-0.1644733547	 0.5720695696	 0.095359
H	-1.1936273832	-0.0210157965	-0.9970561001	 0.092359
H	 1.0596214046	-0.0895441308	-2.0940891954	 0.066662
H	 2.8078627198	 0.4868272951	-0.6232831887	 0.100573
H	 2.1101303551	-0.3681762836	 0.7413143172	 0.09884
H	 4.0224626525	-1.8530222306	-0.5530724482	 0.087897
H	 2.4065427412	-3.569005213	-1.622982568	 0.083502
H	 0.2869772261	-2.5734268585	 0.7449212618	 0.113435
H	-1.1675770788	-2.4476718322	-0.2629498309	 0.109827
H	-0.110962436	-3.8575993609	-0.3996447852	 0.105951
H	-0.0638076487	-3.4138858332	-2.9016244	 0.106571
H	-0.9520723539	-1.8926560608	-2.7703172558	 0.110162
H	 0.6475020353	-1.9202513003	-3.5331494095	 0.111932
96.0997	104.654	185.061	217.2981	235.4269	251.5017	272.4369	292.2886	306.3693	337.7885	435.1563	476.9806	510.4379	570.9714	699.4098	753.0381	771.8155	792.4518	866.9364	934.6408	942.6397	956.3588	962.2365	967.8309	975.9155	1006.2477	1020.0859	1060.4767	1103.7352	1129.8177	1137.0696	1158.9338	1216.1427	1237.3012	1238.9881	1289.0993	1314.8015	1330.2485	1346.0077	1378.177	1390.4295	1396.5295	1413.2948	1419.978	1480.3623	1484.1529	1488.9297	1494.2571	1500.9624	1502.7924	1507.0535	1508.06	1688.1319	2987.9397	3000.6257	3015.6675	3021.1835	3029.2269	3030.4586	3049.9435	3055.7186	3085.1133	3093.5768	3096.9913	3097.7362	3102.8283	3104.5354	3167.1267	3196.1107
CCC1CC=CC1(C)C	CC[C@H]1CC=CC1(C)C	
InChI=1S/C9H16/c1-4-8-6-5-7-9(8,2)3/h5,7-8H,4,6H2,1-3H3	InChI=1S/C9H16/c1-4-8-6-5-7-9(8,2)3/h5,7-8H,4,6H2,1-3H3/t8-/m0/s1
