17
gdb 79694	2.69931	1.82495	1.40833	2.9024	72.76	-0.2164	0.0042	0.2206	949.7066	0.136884	-417.935029	-417.927674	-417.92673	-417.966742	28.929	
C	-0.173913242	 1.5568526643	 0.0267686692	-0.328877
N	 0.0921223354	 0.1241784249	 0.0518891598	-0.070508
C	 0.8639145368	-0.6351998116	-0.9539528832	-0.144259
C	 2.3599919298	-0.4024572279	-0.6478074801	-0.059203
N	 2.640530207	 0.8484408313	 0.0889685975	-0.336992
C	 2.3321871218	-0.3813260848	 0.8498249886	-0.059203
C	 0.8256564075	-0.6061428732	 1.1066851774	-0.144262
C	 0.601584127	-1.7863393686	 0.0882878239	 0.450244
O	 0.286882081	-2.9298015974	 0.0985615746	-0.313748
H	 0.7197000571	 2.1845843022	 0.0347332012	 0.142311
H	-0.7646169206	 1.7739978666	-0.8696906795	 0.120276
H	-0.7977708557	 1.7988001212	 0.8939358378	 0.120271
H	 0.5037297917	-0.6494437164	-1.9809304475	 0.090413
H	 3.1356147002	-0.8941572009	-1.2233317131	 0.102699
H	 3.6490640205	 0.985139938	 0.1057717768	 0.237725
H	 3.0856677283	-0.8561807988	 1.4673748146	 0.102699
H	 0.4276051437	-0.591618519	 2.1195821878	 0.090414
121.987	129.6493	256.5189	274.5559	310.9782	398.614	545.7171	556.1777	651.9082	716.7817	716.9328	742.7069	778.1268	842.0446	871.9968	888.0396	898.8349	954.2996	1012.9798	1050.8331	1058.0691	1087.2056	1114.1078	1122.3962	1136.0113	1154.4426	1186.3448	1218.739	1237.5742	1253.7146	1329.2352	1336.7373	1378.4462	1444.4701	1472.7743	1522.4977	1928.2	3029.3343	3094.4357	3117.8298	3139.8099	3141.9186	3178.0275	3187.0746	3496.2674
CN1C2C3NC3C1C2=O	CN1[C@H]2[C@H]3N[C@H]3[C@@H]1C2=O	
InChI=1S/C6H8N2O/c1-8-4-2-3(7-2)5(8)6(4)9/h2-5,7H,1H3	InChI=1S/C6H8N2O/c1-8-4-2-3(7-2)5(8)6(4)9/h2-5,7H,1H3/t2-,3+,4-,5+
