19
gdb 71947	2.62542	1.9468	1.45052	1.3429	73.37	-0.2417	0.0655	0.3072	946.9686	0.160738	-423.006698	-422.999365	-422.998421	-423.038529	29.783	
O	-0.0072334363	 1.4130548998	 0.0206002766	-0.492615
C	 0.0341360279	 0.0033278391	 0.0209314594	 0.424628
C	 0.3310737855	-0.6583211273	-1.3699724612	-0.308744
C	-0.9552524885	-1.4910582324	-1.2244351759	 0.122336
O	-0.7640058143	-2.6542476913	-0.3858806231	-0.322193
C	-1.2090925237	-1.9428884318	 0.8050646638	 0.12536
C	-0.0819626751	-1.731815055	 1.8125145848	-0.225584
C	 0.8068251418	-0.6033144361	 1.223543976	-0.287527
C	-1.3865439042	-0.646476047	-0.0005217371	-0.157039
H	 0.8944087856	 1.7388705497	-0.0758735423	 0.275409
H	 0.2283120396	 0.0911799446	-2.1610574638	 0.102545
H	 1.2639971816	-1.2146683243	-1.4952110894	 0.097122
H	-1.5594609087	-1.710988813	-2.1069286389	 0.076519
H	-2.0998884234	-2.419945205	 1.2276521355	 0.071857
H	-0.5124537566	-1.4230570682	 2.7717574952	 0.102126
H	 0.4619140327	-2.6647384998	 1.984827271	 0.112082
H	 1.7881116058	-0.9754618574	 0.9147435133	 0.100341
H	 0.9726872392	 0.186095307	 1.9622358777	 0.101843
H	-2.2629595188	-0.0087669116	 0.0788256484	 0.081533
57.7846	248.3238	267.9738	313.1104	353.3691	399.7238	426.6645	561.0187	637.8678	668.1541	772.5935	782.0146	829.9404	856.2488	863.6237	901.4576	931.6196	939.4644	973.5089	985.1181	993.2433	1043.9376	1055.1308	1097.2163	1125.988	1167.235	1180.0254	1199.8036	1220.7899	1238.5906	1254.2371	1275.2507	1280.893	1304.7321	1313.836	1339.9801	1356.6386	1386.5536	1452.7638	1470.9642	1496.6728	3037.6779	3046.1332	3049.2551	3056.4195	3085.9492	3086.939	3104.367	3112.3086	3153.5004	3799.3775
OC12CC3OC(CC1)C23	O[C@@]12C[C@H]3O[C@@H](CC1)[C@@H]23	
InChI=1S/C7H10O2/c8-7-2-1-4-6(7)5(3-7)9-4/h4-6,8H,1-3H2	InChI=1S/C7H10O2/c8-7-2-1-4-6(7)5(3-7)9-4/h4-6,8H,1-3H2/t4-,5+,6+,7+/m0/s1
