21
gdb 71232	2.69192	1.79242	1.64728	1.4054	80.96	-0.2358	0.0889	0.3247	960.9438	0.185036	-387.067763	-387.060607	-387.059663	-387.098637	30.572	
C	-0.0594601529	 1.5343950347	 0.0134764435	-0.488497
C	 0.0347446215	 0.020370708	 0.0109216813	 0.290367
C	 1.0501011906	-0.6844659385	-0.9428497456	-0.265889
C	 1.2557725457	-1.7075454877	 0.1797671791	-0.043245
C	-0.0713805316	-2.4963461735	 0.5306995188	 0.109801
C	-0.0908027479	-1.7881197816	 1.9140385361	-0.264354
C	 0.7496424838	-0.6863149938	 1.2439549055	-0.06661
O	-1.1509252785	-2.0746316625	-0.2863202826	-0.269903
C	-1.3204771946	-0.6581936019	-0.2143247108	-0.117786
H	 0.9216861049	 1.987960891	 0.1886360226	 0.115063
H	-0.4346594416	 1.9121605392	-0.9450005993	 0.11587
H	-0.7354102734	 1.8906945346	 0.800200495	 0.115293
H	 0.6724771184	-1.0334593132	-1.9088075708	 0.099446
H	 1.949988612	-0.0808532395	-1.0981586116	 0.091509
H	 2.1820490133	-2.2755375684	 0.2800052066	 0.059783
H	-0.054689808	-3.5863918089	 0.4879632675	 0.075888
H	-1.0657906016	-1.5595654974	 2.3548682722	 0.097321
H	 0.5105417777	-2.3365752243	 2.6457141149	 0.098974
H	 1.4079363352	-0.0393573331	 1.8273787115	 0.056506
H	-2.0262414495	-0.3927257617	 0.5879107647	 0.089041
H	-1.7632649034	-0.3450665016	-1.1667693587	 0.101421
208.8718	243.5212	275.601	316.5677	394.9323	408.6562	439.9043	494.2776	597.2652	630.7254	705.5221	775.0465	824.1884	842.2568	866.1786	914.4646	924.5598	955.7952	966.6299	983.3774	1008.6358	1017.6891	1043.2484	1064.5111	1082.5533	1127.9977	1158.273	1181.8491	1203.4189	1214.3787	1216.213	1257.7215	1261.1114	1275.078	1279.8323	1303.3779	1307.9068	1360.0976	1404.6706	1410.8997	1482.3931	1483.8811	1492.7776	1494.8471	1520.5223	2981.7204	3019.4421	3042.1269	3047.1543	3056.3383	3082.6485	3083.2022	3092.5609	3093.2977	3097.0955	3098.1247	3105.5215
CC12CC3C(CC13)OC2	C[C@@]12C[C@@H]3[C@@H](C[C@H]13)OC2	
InChI=1S/C8H12O/c1-8-3-5-6(8)2-7(5)9-4-8/h5-7H,2-4H2,1H3	InChI=1S/C8H12O/c1-8-3-5-6(8)2-7(5)9-4-8/h5-7H,2-4H2,1H3/t5-,6-,7+,8-/m0/s1
