19
gdb 81397	4.03375	1.15106	1.09779	4.0468	79.99	-0.2273	0.0345	0.2619	1163.9585	0.161361	-382.053687	-382.045863	-382.044919	-382.085848	30.708	
C	-0.2425674598	 1.434085646	 0.008400934	-0.334652
N	 0.0325246922	 0.0040347472	 0.0429392663	-0.105062
C	 1.1438898861	-0.4819323618	-0.8631026452	 0.009063
C	 2.1851000791	-0.0853774207	 0.2171300181	-0.248697
C	 0.9820016647	-0.4528183802	 1.1202636154	-0.00227
C	 0.8432764519	-1.9882350964	 0.910404847	-0.135437
C	 0.9967603028	-2.0004146763	-0.6606867949	-0.22942
C	 1.8395291359	-2.7780583957	 1.6209589961	 0.262797
N	 2.6363865941	-3.3966590903	 2.1864222395	-0.335217
H	 0.6372114025	 2.0960170511	 0.0658665905	 0.099657
H	-0.7751094723	 1.6652545738	-0.9197333474	 0.125656
H	-0.9062239527	 1.6857772861	 0.841952402	 0.125546
H	 1.1697003351	-0.1054755135	-1.8858163016	 0.07644
H	 3.1095809044	-0.6627518713	 0.304920097	 0.117855
H	 2.4110094057	 0.9799271401	 0.227981427	 0.115688
H	 0.8420279772	-0.0741765768	 2.1324755699	 0.086515
H	-0.1535844275	-2.3169529463	 1.2117089255	 0.129352
H	 0.1030978827	-2.3972590958	-1.1432368905	 0.119744
H	 1.870333358	-2.5642651992	-0.9927672085	 0.122444
114.6838	142.8576	204.8664	275.4865	296.1922	338.7964	440.6674	473.319	537.2643	578.9706	676.8658	762.442	817.7302	824.132	838.0142	896.3296	935.3104	970.5675	974.2887	1014.8504	1048.1896	1053.6689	1086.7476	1127.6503	1144.1896	1163.8467	1187.4237	1204.2274	1229.9367	1236.8684	1267.5793	1294.8224	1297.3276	1323.2006	1335.5151	1450.0747	1480.3876	1490.8759	1502.8369	1520.7445	2353.2798	2966.7466	3062.802	3070.8042	3084.3644	3092.4708	3100.5826	3119.6982	3126.6578	3141.9036	3150.3923
CN1C2CC1C(C2)C#N	CN1[C@H]2C[C@@H]1[C@@H](C2)C#N	
InChI=1S/C7H10N2/c1-9-6-2-5(4-8)7(9)3-6/h5-7H,2-3H2,1H3	InChI=1S/C7H10N2/c1-9-6-2-5(4-8)7(9)3-6/h5-7H,2-3H2,1H3/t5-,6+,7+/m0/s1
