14
gdb 66532	2.99417	1.6832	1.27193	6.1166	70.56	-0.237	-0.0027	0.2343	956.5503	0.100697	-395.606334	-395.598945	-395.598001	-395.638087	28.35	
N	 0.0401647691	 1.4465116821	-0.0839363747	-0.639085
C	 0.0606152451	 0.0563597223	-0.0298787932	 0.268772
C	-1.0825118598	-0.9730612813	-0.0427127296	-0.160211
C	 0.0079359859	-1.0207745898	-1.0875625805	-0.052355
N	 0.8405566051	-1.9997264474	-0.2620294072	-0.201078
C	-0.2176452686	-1.9410579449	 0.7930246189	-0.108827
C	 0.9086030389	-0.9566111163	 0.8389746168	 0.258277
C	 2.0044887513	-0.8081289747	 1.7290125191	 0.137643
N	 2.8805457574	-0.6404746697	 2.4671223142	-0.349419
H	 0.41932872	 1.8599718197	-0.9228246591	 0.252073
H	-0.820937562	 1.8880492905	 0.2002379014	 0.250814
H	-2.1461012026	-0.8014878171	-0.1232102709	 0.108905
H	-0.0006432274	-0.9808666445	-2.1690813072	 0.11408
H	-0.4383392523	-2.7737026289	 1.4496352121	 0.12041
127.1823	140.6399	174.8736	315.4156	320.8344	479.5176	512.6929	513.3511	558.9455	651.6341	664.9324	754.0417	805.8218	842.2256	866.4281	883.7648	903.6572	915.5567	946.3705	994.7416	1022.6653	1078.8749	1160.962	1169.9796	1211.6048	1254.0067	1265.0491	1361.4453	1464.244	1649.7497	2341.9705	3192.4206	3200.9553	3227.2786	3566.9219	3660.067
NC12C3C1N1C3C21C#N	N[C@@]12[C@H]3[C@@H]1N1[C@H]3[C@]21C#N	
InChI=1S/C6H5N3/c7-1-5-3-2-4(9(3)5)6(2,5)8/h2-4H,8H2	InChI=1S/C6H5N3/c7-1-5-3-2-4(9(3)5)6(2,5)8/h2-4H,8H2/t2-,3-,4+,5-,6+,9?/m1/s1
