19
gdb 74731	2.27606	2.18607	1.51397	1.4926	80.67	-0.2206	0.0114	0.232	952.1605	0.159439	-385.765243	-385.757832	-385.756887	-385.796636	30.443	
C	 0.1002050267	 1.4129268394	 0.076693286	-0.51704
C	 0.0290437619	-0.0671694867	-0.0571745185	 0.265811
C	 0.0802261474	-0.9009082051	-1.0983229328	-0.186597
C	-0.0110822497	-2.2770331604	-0.4430253595	-0.132304
C	 1.0188762463	-2.085163453	 0.8007327547	-0.306538
C	-0.1247682544	-1.0391488286	 1.1361762598	 0.32738
O	-1.032320238	-0.5233246628	 2.1557895693	-0.360139
C	-2.1279733233	-1.046198088	 1.2881983538	-0.168969
C	-1.1138888555	-2.0631928565	 0.6821693717	-0.018644
H	 1.0043336075	 1.71875416	 0.6192317655	 0.130694
H	 0.1124917988	 1.9017238976	-0.9013577612	 0.12226
H	-0.7470848018	 1.7973551043	 0.6546801707	 0.138343
H	 0.1985616926	-0.6968777179	-2.153681763	 0.099185
H	 0.0301221157	-3.1740939183	-1.0599835636	 0.07445
H	 1.0680444144	-2.9466361415	 1.4710205744	 0.109201
H	 2.0139989791	-1.709685857	 0.5480292775	 0.101928
H	-2.9397112689	-1.4595118231	 1.8907210687	 0.114405
H	-2.4915627867	-0.2618852367	 0.6187434215	 0.117661
H	-1.1014048923	-2.9271753858	 1.3517092049	 0.088912
138.6924	170.1195	234.4005	301.5004	356.7114	463.6023	494.6725	551.4452	579.4461	628.4322	670.3338	732.0504	763.5758	794.7637	838.2099	854.7531	926.0751	935.7595	973.8622	998.5666	1014.0815	1039.9081	1046.3542	1066.8428	1104.0247	1121.0338	1143.0743	1161.0557	1187.7687	1198.3403	1213.865	1250.4983	1286.9698	1304.5516	1396.4788	1410.7124	1471.3673	1486.2671	1488.8836	1497.3243	1701.7553	3021.1195	3053.3911	3056.1519	3067.2916	3073.1106	3113.4994	3122.9812	3125.3802	3132.6091	3222.1825
CC1=CC2CC11OCC21	CC1=C[C@H]2C[C@]31OC[C@@H]23	
InChI=1S/C8H10O/c1-5-2-6-3-8(5)7(6)4-9-8/h2,6-7H,3-4H2,1H3	InChI=1S/C8H10O/c1-5-2-6-3-8(5)7(6)4-9-8/h2,6-7H,3-4H2,1H3/t6-,7-,8+/m0/s1
