15
gdb 44522	4.50503	1.36469	1.23098	4.8127	75.14	-0.2403	-0.0414	0.1989	996.9893	0.114588	-416.739644	-416.733147	-416.732202	-416.770537	26.078	
N	-0.1082669313	 1.2058253087	 0.2883493309	-0.540154
C	-0.0400013863	-0.0298299239	 0.0332242124	 0.413288
O	 1.1487448326	-0.7177043449	-0.2222282842	-0.264309
C	 0.7906421164	-2.0319522992	-0.6112511988	 0.09143
C	 1.0328162576	-3.3907685865	 0.1060147968	-0.116491
N	 0.3139232075	-3.4345450742	 1.3916448574	-0.308719
C	-0.4594733111	-3.6142296472	 0.1223206655	-0.155019
C	-0.6625724582	-2.1783946306	-0.3022672611	 0.229047
C	-1.1677827629	-0.9979657693	 0.0489646064	-0.277966
H	 0.8221639067	 1.6256119107	 0.2941332002	 0.22608
H	 1.0397828208	-2.1810266845	-1.6708107676	 0.107796
H	 1.8299078205	-4.0891277436	-0.1164967282	 0.104659
H	 0.4708534233	-4.3658028744	 1.7815348813	 0.238372
H	-1.0364369117	-4.5071530095	-0.0716665955	 0.118458
H	-2.1368246436	-0.7257048116	 0.4396533647	 0.13353
115.9083	218.2291	267.1759	364.4245	499.6282	570.5839	617.321	663.9926	708.1427	753.877	803.4261	835.4993	855.4274	867.9771	876.1992	896.2693	919.6234	965.7008	1010.0684	1024.1407	1064.5422	1096.9384	1110.9308	1112.4135	1181.7321	1233.7561	1269.656	1279.9313	1305.7025	1359.3036	1366.8311	1702.3357	1754.561	3018.2402	3194.3991	3223.1038	3253.0459	3451.9587	3485.4866
N=C1OC2C3NC3C2=C1	[NH]C1=C[C]2[C@@H](O1)[C@H]1N[C@@H]21	
InChI=1S/C6H6N2O/c7-3-1-2-4-5(8-4)6(2)9-3/h1,4-8H	InChI=1S/C6H6N2O/c7-3-1-2-4-5(8-4)6(2)9-3/h1,4-8H/t4-,5-,6+/m0/s1
