18
gdb 40944	3.42921	1.334	1.19742	1.4574	71.17	-0.2522	0.0175	0.2697	1065.011	0.149727	-439.069695	-439.06204	-439.061096	-439.102464	28.593	
C	 0.0352351098	 1.5435666291	-0.0817735301	-0.110774
O	 1.3189289295	 1.5823142311	 0.5761191129	-0.270595
C	 1.4572176693	 0.1519652145	 0.4908930942	-0.132412
C	 0.0250377428	-0.0062967262	-0.0620497191	 0.225357
C	-0.9624372767	-0.6013584864	 0.9298284511	-0.131465
O	-2.3055756209	-0.5191739119	 0.4304610513	-0.226826
C	-2.4445099807	-0.7325341791	-0.9024327219	 0.132589
N	-1.556827208	-0.8622587083	-1.7927837632	-0.269301
C	-0.1566914688	-0.7250769685	-1.3957053415	-0.230313
H	-0.7452487402	 2.0456749205	 0.5021970353	 0.109864
H	 0.0736927881	 1.9881245005	-1.0847124745	 0.105278
H	 2.2498738876	-0.1479081325	-0.2088296645	 0.101059
H	 1.6577332149	-0.3060239963	 1.4686768017	 0.100986
H	-0.7238213142	-1.6559658086	 1.1238423969	 0.113449
H	-0.9614009935	-0.0651876618	 1.8822420887	 0.126675
H	-3.5015796576	-0.7787528358	-1.1576504296	 0.127675
H	 0.3709050293	-0.1905557238	-2.1941735555	 0.115306
H	 0.2967628792	-1.7255383565	-1.3494171121	 0.113448
63.868	112.6377	153.9905	263.9777	359.2972	376.4007	433.1374	501.3533	521.4469	699.2381	835.8582	865.6375	904.8144	929.3224	946.1602	965.7518	976.2141	984.4823	1015.8542	1029.8817	1039.9751	1131.1577	1154.0278	1157.9564	1158.9569	1207.5061	1234.2171	1304.3618	1311.5934	1315.2728	1350.8252	1386.0851	1401.3777	1416.9044	1482.8113	1504.5057	1515.6563	1537.5767	1734.8253	2994.2035	3005.482	3011.6375	3018.814	3038.4403	3050.1209	3059.1951	3098.2954	3161.3824
C1OCC11COC=NC1	C1OCC21COC=NC2	
InChI=1S/C6H9NO2/c1-6(2-8-3-6)4-9-5-7-1/h5H,1-4H2	InChI=1S/C6H9NO2/c1-6(2-8-3-6)4-9-5-7-1/h5H,1-4H2
