21
gdb 109311	2.19211	1.606	1.08274	1.7126	85.35	-0.2313	0.0167	0.248	1201.8623	0.182646	-387.094483	-387.085577	-387.084633	-387.128383	33.805	
C	-0.3103129135	 1.4453822105	-0.0416326399	-0.37567
C	 0.0707709648	-0.0461120052	 0.0132912015	-0.302317
C	 0.7724069937	-0.5228742632	-1.22574576	 0.263383
C	 2.0688109726	-0.8208474349	-1.3567661464	-0.181099
C	 2.4492397173	-1.2652703241	-2.7481906294	-0.265877
C	 1.1720458597	-0.9795677217	-3.5772952548	-0.309401
C	 0.0773819159	-0.7364556832	-2.535964052	 0.380332
C	-1.2943542475	-1.2608226904	-2.6618987774	-0.255685
O	-1.0180774774	 0.1199493205	-2.9061248853	-0.278041
H	 0.5841691151	 2.0678590109	-0.1445140677	 0.113964
H	-0.9615301528	 1.6440607254	-0.8951892265	 0.146991
H	-0.8294269836	 1.7446555541	 0.8744238308	 0.106237
H	 0.7160049412	-0.2303995616	 0.8795042828	 0.101408
H	-0.8386388089	-0.6394933983	 0.1761938438	 0.100729
H	 2.7885658266	-0.7826075637	-0.5451627316	 0.089766
H	 3.328138155	-0.7346077715	-3.1319018282	 0.107305
H	 2.7089715298	-2.3323333181	-2.7607506553	 0.109277
H	 1.2890119806	-0.0633334189	-4.1644237795	 0.123154
H	 0.9223008305	-1.7838483093	-4.2733329167	 0.103444
H	-1.5568515793	-1.848100118	-3.5419989804	 0.110654
H	-1.89390051	-1.4701532893	-1.7768466279	 0.111446
61.0124	84.9397	164.6422	210.0359	265.0627	282.2906	314.098	386.4032	409.8503	518.4357	610.585	674.971	716.8625	784.4048	799.6711	840.9478	875.7221	893.5421	929.5281	949.8064	965.8188	1011.9384	1058.291	1066.495	1096.4632	1124.4744	1128.3569	1161.7275	1173.0654	1228.8986	1247.2436	1276.9292	1291.9322	1327.3183	1347.5305	1353.6561	1402.8009	1413.3914	1479.5917	1485.7917	1494.3856	1499.5718	1516.3649	1527.2377	1708.7165	3016.5776	3019.2081	3039.846	3049.0489	3061.4704	3061.7304	3074.2364	3105.1732	3105.82	3138.1813	3158.8941	3181.3914
CCC1=CCCC11CO1	CCC1=CCC[C@]21CO2	
InChI=1S/C8H12O/c1-2-7-4-3-5-8(7)6-9-8/h4H,2-3,5-6H2,1H3	InChI=1S/C8H12O/c1-2-7-4-3-5-8(7)6-9-8/h4H,2-3,5-6H2,1H3/t8-/m1/s1
