16
gdb 11758	5.24926	1.3079	1.23948	1.3048	60.41	-0.2552	0.0643	0.3196	989.4902	0.129592	-420.827877	-420.820145	-420.819201	-420.860177	28.844	
O	 0.0196435634	 1.3929342719	-0.3059759843	-0.41109
C	 0.0466217812	 0.0127574022	 0.020174731	-0.179542
C	-1.3235072742	-0.5234218843	 0.28588954	 0.399891
C	-2.2833595147	-0.248592779	 1.4477431297	-0.33966
C	-2.9423101361	-1.6562794932	 1.1610606858	 0.143935
O	-4.2921821281	-1.7045960873	 0.800479997	-0.432405
C	-1.924225697	-1.8436867164	 0.0199292357	-0.095576
O	-2.1648777271	-0.7435054322	-0.8747627397	-0.310803
H	-0.5209789492	 1.4844570677	-1.098453787	 0.29352
H	 0.518391762	-0.5864120242	-0.772862545	 0.100404
H	 0.6619165848	-0.0740579781	 0.9217838893	 0.11718
H	-1.7932010123	-0.2030662616	 2.4232992768	 0.111996
H	-2.9365467299	 0.6173291287	 1.3219010543	 0.11205
H	-2.7999621428	-2.355852607	 1.9879661373	 0.097115
H	-4.3697013435	-1.1834639772	-0.0091479657	 0.288296
H	-1.5122325567	-2.7489332101	-0.4132265353	 0.104691
73.9491	106.1562	187.713	277.4774	360.1037	387.1781	419.3132	450.1933	485.2246	643.7956	703.7845	709.2327	815.642	881.2441	901.7003	938.8918	977.4848	988.819	1027.4194	1075.8854	1115.8491	1133.0335	1175.2437	1192.3845	1230.9903	1254.6691	1280.5759	1321.4781	1371.1386	1414.0772	1436.3232	1452.0549	1481.4338	1487.0656	2997.1028	3069.5646	3079.3778	3092.7506	3130.5765	3178.1935	3772.91	3806.4626
OCC12CC(O)C1O2	OC[C@]12C[C@@H](O)[C@H]1O2	
InChI=1S/C5H8O3/c6-2-5-1-3(7)4(5)8-5/h3-4,6-7H,1-2H2	InChI=1S/C5H8O3/c6-2-5-1-3(7)4(5)8-5/h3-4,6-7H,1-2H2/t3-,4-,5-/m1/s1
