16
gdb 50821	4.55362	0.87527	0.77898	3.7028	67.33	-0.2695	-0.027	0.2425	1413.1172	0.123313	-475.027384	-475.018614	-475.01767	-475.062534	29.823	
N	-0.4652388909	 1.4121340796	 0.9209503084	-0.507475
C	-0.1672547541	 0.2619382521	 0.5046750754	 0.388915
O	-1.0037253249	-0.4939845843	-0.2842986036	-0.22139
C	-2.3289447838	-0.1371355625	-0.3953229078	 0.172643
O	-3.0501863911	-0.7190426285	-1.1417626675	-0.25332
C	 1.1152027671	-0.4962195438	 0.7425845945	 0.053956
C	 2.1039996172	-0.5781072271	-0.4485697884	-0.286393
C	 3.0333769923	 0.247077526	 0.46482727	-0.065059
O	 2.0404276053	 0.2742797572	 1.5232741893	-0.287466
H	 0.3139673396	 1.7594881669	 1.4834517041	 0.249761
H	-2.5959040491	 0.6932350074	 0.2695299877	 0.144303
H	 0.8788772689	-1.4609027304	 1.2094476122	 0.111303
H	 2.4482034796	-1.5833477073	-0.6893777431	 0.129304
H	 1.7706138277	-0.0806753945	-1.359454181	 0.133225
H	 3.9492458103	-0.2561859821	 0.7912435782	 0.118487
H	 3.2794176462	 1.2558511814	 0.1170036017	 0.119204
50.6572	73.2415	86.4332	124.0014	162.2404	267.3066	321.3246	381.9084	535.9046	643.4009	728.2526	786.9448	814.2151	887.2276	930.1081	953.7034	983.9265	1032.5573	1045.8633	1057.9589	1089.3528	1102.2377	1105.5222	1165.8895	1212.9771	1254.2976	1260.732	1309.3983	1355.9813	1380.8813	1411.5701	1491.7533	1529.711	1751.9366	1873.5519	3028.5808	3039.2723	3084.4365	3085.2783	3097.3194	3155.1423	3475.3556
N=C(OC=O)C1CCO1	[NH][C](OC=O)[C@H]1CCO1	
InChI=1S/C5H7NO3/c6-5(9-3-7)4-1-2-8-4/h3-4,6H,1-2H2	InChI=1S/C5H7NO3/c6-5(9-3-7)4-1-2-8-4/h3-4,6H,1-2H2/t4-/m1/s1
