23
gdb 94198	2.66328	1.2461	1.16891	1.6762	85.	-0.2426	0.0853	0.3278	1237.729	0.204585	-388.270585	-388.260898	-388.259954	-388.305135	36.841	
C	-0.0647627175	 1.467841747	-0.2732459587	-0.418141
C	 0.0476040189	-0.0082898071	 0.077333352	-0.064755
C	 1.0901383863	-0.8633944603	-0.6674434872	-0.08527
O	 1.6432535267	-1.3619941838	 0.5667944933	-0.326347
C	 0.8064727688	-0.4737837592	 1.365580282	 0.391257
C	 1.6668775819	 0.5670547453	 2.0740871179	-0.435643
C	-0.0268660896	-1.255172503	 2.3607230404	-0.022015
C	-0.5384708313	-2.6327512832	 2.0349296639	-0.279076
C	 0.5585257392	-2.4565270838	 3.0573843393	-0.271906
H	 0.910595851	 1.9636226487	-0.2847433217	 0.118651
H	-0.5081189928	 1.5914900096	-1.2675586066	 0.117323
H	-0.7049654073	 2.0012438742	 0.4377614605	 0.118077
H	-0.9427525472	-0.4705905567	 0.0455210492	 0.08089
H	 0.7083139048	-1.6706986153	-1.3033249057	 0.098715
H	 1.8303151419	-0.2845366317	-1.2378244507	 0.09281
H	 2.3115008361	 1.1004333444	 1.370896327	 0.114612
H	 1.0450816389	 1.3004062176	 2.5991302535	 0.111101
H	 2.3048927711	 0.0714200702	 2.8117170388	 0.126192
H	-0.6831131715	-0.6236787733	 2.9555707151	 0.07785
H	-1.5301401302	-2.907712436	 2.3769981151	 0.10325
H	-0.2479589168	-3.0608449466	 1.0822668978	 0.119253
H	 1.5543304303	-2.7623596614	 2.7570855987	 0.128019
H	 0.3282129484	-2.6122034955	 4.1054276162	 0.105153
54.6782	86.4942	165.4739	209.0847	220.916	234.2959	286.8537	290.2863	371.9509	404.5308	464.4521	563.077	611.3744	737.0828	793.632	824.3914	856.9862	882.8686	903.0662	920.5696	940.6196	975.3488	1010.3987	1023.0355	1052.7121	1065.6498	1088.2849	1114.0999	1133.7561	1141.0848	1163.3043	1183.7622	1199.5682	1218.1496	1225.0265	1239.1625	1288.4389	1339.484	1378.8696	1400.6976	1407.07	1414.7774	1455.5141	1480.3809	1487.3152	1498.6011	1499.8578	1506.6602	1525.9854	2997.6731	3031.4047	3038.2553	3046.1056	3067.7386	3092.2733	3106.5376	3109.4527	3121.1702	3128.8723	3134.7706	3139.6438	3217.4719	3231.4328
CC1COC1(C)C1CC1	C[C@H]1CO[C@]1(C)C1CC1	
InChI=1S/C8H14O/c1-6-5-9-8(6,2)7-3-4-7/h6-7H,3-5H2,1-2H3	InChI=1S/C8H14O/c1-6-5-9-8(6,2)7-3-4-7/h6-7H,3-5H2,1-2H3/t6-,8-/m0/s1
