15
gdb 76026	2.63279	1.24843	1.07937	3.5213	75.07	-0.2468	-0.0032	0.2436	1143.176	0.110258	-416.755904	-416.746434	-416.74549	-416.789996	34.289	
N	 0.163644256	 1.4238954877	-0.0498405289	-0.50732
C	 0.0599840851	 0.0062463393	 0.0056012442	-0.022903
C	-0.4444460219	-0.6781586389	 1.257349028	-0.322856
C	-0.9701032949	 0.0701261268	 2.3570683122	 0.3124
C	-1.4488106453	 0.6941374077	 3.2678259959	-0.412127
C	-1.299795459	-0.707477437	-0.0377138596	 0.19552
O	-2.3984760148	 0.1359471892	-0.1020142673	-0.439152
C	-1.4280317286	-1.9703106808	-0.7214794383	 0.255684
N	-1.5057570686	-2.9867840389	-1.2699016385	-0.343691
H	 0.1346669246	 1.7414414191	-1.013975262	 0.246243
H	-0.6176071563	 1.8556475632	 0.4331703653	 0.250475
H	 0.8679462031	-0.5130301729	-0.499600672	 0.12913
H	 0.0428345948	-1.6131462712	 1.5151835378	 0.145177
H	-1.8435731271	 1.2448792139	 4.0859966401	 0.210216
H	-2.9884119871	-0.0642131172	 0.6359796332	 0.303205
95.2233	110.4567	146.0845	163.9281	198.186	250.6719	277.7329	349.1314	375.0463	466.4125	486.7649	575.5876	610.8111	628.0327	642.6204	667.4833	718.5049	809.7955	817.0106	902.3447	1003.7093	1026.0156	1104.3885	1136.9283	1193.8186	1257.7672	1283.2088	1349.8675	1369.0285	1450.3334	1662.5162	2233.7799	2338.4148	3160.3989	3172.6295	3499.5761	3505.667	3587.2378	3770.6415
NC1C(C#C)C1(O)C#N	N[C@H]1[C@@H](C#C)[C@]1(O)C#N	
InChI=1S/C6H6N2O/c1-2-4-5(8)6(4,9)3-7/h1,4-5,9H,8H2	InChI=1S/C6H6N2O/c1-2-4-5(8)6(4,9)3-7/h1,4-5,9H,8H2/t4-,5+,6-/m1/s1
