19
gdb 99538	2.15137	1.17312	0.89603	1.6837	83.52	-0.2574	0.026	0.2834	1364.7694	0.154953	-385.817784	-385.807095	-385.806151	-385.853462	38.828	
C	-0.0552032512	 1.6230798526	 0.038188552	-0.390529
C	 0.0095408846	 0.0949497808	 0.0415575806	-0.193302
C	 0.7378544	-0.4891497576	-1.1897569115	-0.168991
C	 2.1404972514	-0.0844539249	-1.2364627119	 0.336455
C	 3.2964907559	 0.243259974	-1.2727372451	-0.462836
C	 0.63229949	-2.0489164364	-1.2499197923	-0.074326
O	 1.1761128169	-2.6729154227	-0.0968954459	-0.41219
C	-0.7487001195	-2.4734936212	-1.5006227951	 0.305015
C	-1.8884237077	-2.8148879988	-1.674901809	-0.44831
H	 0.9481832751	 2.0579497498	 0.0187295437	 0.134285
H	-0.5992257007	 1.9941962492	-0.8374334176	 0.115403
H	-0.5687680887	 1.9925818794	 0.9308494378	 0.113824
H	 0.5240217285	-0.2505318418	 0.9450649144	 0.107121
H	-1.0046445266	-0.3205145289	 0.0614406003	 0.107484
H	 0.237763645	-0.1141733858	-2.0936849641	 0.112957
H	 4.3178667851	 0.5315445878	-1.30781812	 0.195196
H	 1.2628766954	-2.3864321187	-2.0795899279	 0.129381
H	 0.5196336702	-2.6180165964	 0.6056139669	 0.290769
H	-2.8888955139	-3.1301774904	-1.8429135453	 0.202594
63.1824	89.5998	125.2821	156.0591	180.2518	199.829	248.7391	268.493	311.0542	323.1075	384.9039	490.9905	539.0199	572.8952	624.1155	637.8139	646.2935	673.7565	699.5325	770.1034	837.4561	907.3147	969.582	993.8508	1045.9293	1082.7225	1114.6216	1132.555	1245.6777	1269.843	1304.4955	1312.1028	1362.8814	1368.8903	1414.0281	1423.6627	1493.5097	1498.3511	1508.6407	2229.6203	2235.1408	3012.8527	3034.4998	3036.6076	3055.5449	3076.075	3104.0299	3117.4811	3501.1574	3503.9573	3818.213
CCC(C#C)C(O)C#C	CC[C@@H](C#C)[C@@H](O)C#C	
InChI=1S/C8H10O/c1-4-7(5-2)8(9)6-3/h1,3,7-9H,5H2,2H3	InChI=1S/C8H10O/c1-4-7(5-2)8(9)6-3/h1,3,7-9H,5H2,2H3/t7-,8+/m1/s1
