19
gdb 41165	2.97325	1.75602	1.55819	1.7262	79.93	-0.2294	0.0078	0.2372	935.3693	0.161431	-385.779433	-385.772765	-385.771821	-385.80993	28.838	
C	 0.0057244246	 1.5824330251	-0.2399651663	-0.196455
O	 1.4487423027	 1.4780596322	 0.1016720054	-0.365647
C	 1.0687967439	 0.3167156447	 0.9465660783	 0.410427
C	 1.2593165909	-1.239127762	 1.0502887992	-0.322155
C	-0.3638872957	-1.2201571854	 0.9795184801	-0.147904
C	-0.9200753536	-0.8995020021	 2.3409220389	-0.048434
C	-0.34793321	 0.0884249957	 3.0247950026	-0.066962
C	 0.7846634023	 0.8439069261	 2.3745166327	-0.297578
C	-0.098767908	 0.0565323996	 0.0721560246	 0.006361
H	-0.5089383693	 2.267435291	 0.4405350919	 0.111546
H	-0.1372194128	 1.8898738631	-1.2782423177	 0.113744
H	 1.6941617923	-1.6954053816	 0.1601074737	 0.115731
H	 1.70179529	-1.653445617	 1.9605886078	 0.101206
H	-0.8429883063	-2.0732984845	 0.4990575661	 0.076264
H	-1.7567726083	-1.4728619329	 2.7261856427	 0.091851
H	-0.6840631846	 0.3903863126	 4.0121953493	 0.092686
H	 1.7088115984	 0.7522625241	 2.9631615125	 0.112282
H	 0.5598215599	 1.9153644366	 2.3494096172	 0.115342
H	 0.3128197038	-0.3803654452	-0.8438834988	 0.097694
181.9731	297.7901	350.3454	392.293	449.5683	463.8626	500.3659	538.6283	623.4908	697.5823	723.5714	758.5167	833.9436	843.8768	874.9246	908.6675	929.2262	950.5954	972.4038	978.4279	1000.6027	1039.858	1074.9262	1088.8012	1109.7754	1135.7312	1139.9042	1156.0467	1189.6877	1206.609	1250.7351	1268.5955	1295.0865	1324.0167	1349.0766	1386.648	1457.9413	1473.4685	1489.8383	1514.0668	1708.3129	3009.2611	3027.6208	3048.7408	3059.4688	3063.5631	3107.5419	3118.3521	3139.2979	3165.6084	3190.7774
C1OC23CC(C=CC2)C13	C1O[C@@]23C[C@@H](C=CC2)[C@@H]13	
InChI=1S/C8H10O/c1-2-6-4-8(3-1)7(6)5-9-8/h1-2,6-7H,3-5H2	InChI=1S/C8H10O/c1-2-6-4-8(3-1)7(6)5-9-8/h1-2,6-7H,3-5H2/t6-,7-,8-/m1/s1
