19
gdb 94987	2.85343	1.78811	1.37453	1.537	73.37	-0.2156	0.0686	0.2842	984.6319	0.160888	-422.981263	-422.973964	-422.97302	-423.012704	29.499	
C	 0.0315476621	 1.5416869562	 0.0247290346	-0.411776
C	 0.0062508826	 0.0107494161	-0.002466381	-0.0152
C	 0.6612322782	-0.5079622974	-1.2955863328	-0.063091
O	 0.8661794003	-1.9190083455	-1.334361146	-0.277019
C	 1.2816164837	-2.5280665472	-0.1515316105	 0.109271
C	 2.2380885679	-1.9782744396	 0.8794883609	 0.036822
O	 2.1973558565	-0.5554894448	 0.9738141317	-0.303852
C	 0.7478976841	-0.6033899315	 1.1846690076	 0.089514
C	 0.7533749287	-2.1377043863	 1.1967547196	-0.212985
H	 1.0622027586	 1.9088655109	 0.0677517257	 0.136088
H	-0.4412979266	 1.9648758302	-0.8678842524	 0.115392
H	-0.5013424472	 1.9280391104	 0.8994038787	 0.114744
H	-1.0331577328	-0.3414768563	 0.0446574089	 0.082237
H	 0.0253905148	-0.2832229114	-2.1573997896	 0.102532
H	 1.6198708451	 0.0073351513	-1.4331713904	 0.111235
H	 1.3830702934	-3.5973830276	-0.3136873283	 0.108065
H	 3.1313364723	-2.4767224613	 1.2410062955	 0.103712
H	 0.4952406011	-0.1327120029	 2.1396909609	 0.078964
H	 0.2046074371	-2.7752702332	 1.8778783772	 0.095346
135.5522	207.9084	222.8996	267.0384	339.9941	415.0963	488.7208	534.2344	608.4163	681.5861	732.9362	793.1038	818.9585	862.4512	903.0859	926.6126	944.1674	980.2584	990.3507	1005.2128	1053.6528	1056.2706	1062.2488	1102.2182	1115.3083	1126.2089	1161.1074	1204.0144	1245.7581	1274.696	1280.3276	1310.8698	1335.8046	1347.3502	1370.5484	1404.7213	1419.9013	1447.5022	1494.5891	1501.2466	1504.1272	3016.9444	3027.6308	3032.9763	3058.3472	3082.1773	3100.1993	3107.3897	3158.44	3168.8044	3191.6776
CC1COC2C3OC1C23	C[C@H]1CO[C@H]2[C@H]3O[C@@H]1[C@@H]23	
InChI=1S/C7H10O2/c1-3-2-8-6-4-5(3)9-7(4)6/h3-7H,2H2,1H3	InChI=1S/C7H10O2/c1-3-2-8-6-4-5(3)9-7(4)6/h3-7H,2H2,1H3/t3-,4-,5-,6+,7-/m0/s1
