17
gdb 62691	2.52677	1.76804	1.33169	2.1694	67.73	-0.2115	0.0503	0.2618	983.8682	0.132545	-458.864381	-458.855957	-458.855013	-458.896548	33.353	
C	-0.0888973847	 1.6229024004	-0.0663843437	-0.474864
C	 0.1270040326	 0.1323078916	 0.0709971048	 0.320423
O	-1.0023735634	-0.5968719834	-0.3958961102	-0.482173
C	 1.4033288434	-0.682905776	-0.1876314502	-0.281873
C	 2.6684489339	-0.1711848452	 0.5597134662	 0.01907
O	 2.3953312006	 1.0551661732	 1.2642666996	-0.247445
C	 1.9908158951	-0.1891737538	 1.8501252412	-0.04303
C	 0.6830539123	-0.705334316	 1.1866259069	 0.359131
O	-0.034630331	-1.6736732233	 1.8408445697	-0.467563
H	-0.2103684691	 1.8796795655	-1.1273165493	 0.099464
H	-1.0098922104	 1.907332832	 0.4528573485	 0.122724
H	 0.7458344044	 2.1901166271	 0.3348310815	 0.159842
H	-1.0690029666	-0.4752848383	-1.348983811	 0.288946
H	 1.434184061	-1.4292346543	-0.9716721735	 0.093077
H	 3.698524843	-0.3711301794	 0.2905897747	 0.115751
H	 2.3202227243	-0.4241407991	 2.8550686413	 0.11844
H	-0.8175319355	-1.837292971	 1.2961671835	 0.30008
168.187	192.4534	228.5635	245.3743	277.2326	295.1842	361.0906	401.9523	420.2236	450.5114	512.4772	626.3988	634.6194	712.8907	747.4441	802.6445	842.9062	879.2424	915.6888	938.2404	965.2742	984.9973	1016.5146	1056.3894	1094.4037	1156.256	1181.7589	1199.011	1226.8452	1255.4916	1303.3509	1372.2921	1399.817	1414.3042	1461.6526	1488.639	1506.3839	3020.1773	3087.3213	3183.6706	3193.9024	3194.5221	3201.5966	3754.6982	3807.871
CC1(O)C2C3OC3C12O	C[C@@]1(O)[C@H]2[C@H]3O[C@H]3[C@@]12O	
InChI=1S/C6H8O3/c1-5(7)3-2-4(9-2)6(3,5)8/h2-4,7-8H,1H3	InChI=1S/C6H8O3/c1-5(7)3-2-4(9-2)6(3,5)8/h2-4,7-8H,1H3/t2-,3-,4-,5-,6-/m1/s1
