12
gdb 23900	4.08655	1.22598	1.15979	3.1476	44.97	-0.2693	0.0135	0.2828	983.6804	0.080149	-546.193927	-546.186195	-546.185251	-546.227408	26.304	
F	 0.5277080297	 0.3219669117	-0.038088721	-0.092228
C	 0.0678027883	 1.5744225821	 0.1483642137	 0.274773
F	 1.1191726415	 2.3488970563	 0.4263703052	-0.06535
F	-0.4664401446	 1.9890342302	-1.0062854755	-0.069459
C	-0.9732107125	 1.6038867508	 1.2588749835	-0.289344
N	-0.4359714296	 1.1153107526	 2.5046507009	-0.279762
C	-0.2054120686	 1.9433007986	 3.5671887961	 0.16238
O	-0.4973786481	 3.1165215779	 3.6056021043	-0.307818
H	-1.2902961553	 2.6358997562	 1.4186375875	 0.178272
H	-1.8314284431	 1.010649387	 0.9273905766	 0.139495
H	-0.1025817821	 0.1653015134	 2.5468151169	 0.260635
H	 0.2678030544	 1.4040721334	 4.4095000517	 0.088406
44.595	70.3923	163.9715	245.6494	294.1032	364.6559	418.1148	526.8987	537.0023	546.7378	663.3688	759.8619	849.0678	972.0545	1028.7884	1034.6162	1185.0412	1205.6455	1213.2889	1282.1926	1320.4312	1405.7767	1429.7264	1468.8027	1531.0624	1814.9693	2958.5163	3063.2725	3142.6453	3639.9333
FC(F)(F)CNC=O	FC(F)(F)CNC=O	
InChI=1S/C3H4F3NO/c4-3(5,6)1-7-2-8/h2H,1H2,(H,7,8)	InChI=1S/C3H4F3NO/c4-3(5,6)1-7-2-8/h2H,1H2,(H,7,8)
