17
gdb 18252	4.42446	1.66506	1.36621	1.9993	69.69	-0.2293	0.0048	0.2342	930.3627	0.142982	-363.818672	-363.811363	-363.810419	-363.850448	27.462	
C	 0.0479747045	 1.3932912383	 0.060906463	-0.231654
O	-0.182102919	 0.0147124753	-0.1073330696	-0.238978
C	 0.5826483847	-0.5732735582	-1.1431243476	 0.128695
C	 2.050886558	-0.8240734379	-0.8040904217	-0.119072
C	 2.3986507742	-2.097236906	-0.9902307507	-0.044624
C	 1.2148089244	-2.9109306124	-1.4098235703	-0.091476
N	 0.1724343569	-2.9330052373	-0.3444161039	-0.314629
C	 0.0678127506	-1.972889151	-1.4651061998	-0.08989
H	 1.0722140284	 1.6136721529	 0.3974197161	 0.105018
H	-0.1346786817	 1.9550644057	-0.8698624976	 0.099199
H	-0.6491315156	 1.7442089881	 0.8258934595	 0.127916
H	 0.5062152941	 0.0616475826	-2.0450603699	 0.063871
H	 2.7018881091	-0.0406804173	-0.4345011054	 0.099246
H	 3.3810959782	-2.5208919622	-0.8169582022	 0.100746
H	 1.3113769106	-3.7598562705	-2.0774995988	 0.089795
H	-0.473377704	-3.6981455596	-0.5361073175	 0.227526
H	-0.7425414234	-2.0859743506	-2.1759652135	 0.088312
78.7478	138.1446	185.498	249.4646	344.7271	418.4652	486.1021	556.7643	705.7603	750.1052	802.9283	822.4992	869.9029	909.5968	934.6816	945.2085	973.5836	1011.7566	1033.9397	1078.6857	1114.3532	1143.1929	1163.8818	1169.5706	1180.7047	1220.3805	1252.2815	1310.2024	1337.7745	1363.1176	1396.8496	1417.7531	1477.6074	1489.6733	1508.1284	1672.0242	2927.9063	2967.9741	3016.1811	3111.5978	3169.3044	3178.9604	3190.5667	3215.0096	3470.4782
COC1C=CC2NC12	CO[C@H]1C=C[C@H]2N[C@@H]12	
InChI=1S/C6H9NO/c1-8-5-3-2-4-6(5)7-4/h2-7H,1H3	InChI=1S/C6H9NO/c1-8-5-3-2-4-6(5)7-4/h2-7H,1H3/t4-,5+,6-/m1/s1
