17
gdb 57748	3.11949	0.73613	0.61981	3.9403	89.25	-0.2639	-0.0765	0.1875	1786.6293	0.132139	-384.644835	-384.634498	-384.633554	-384.68228	35.798	
C	-0.0328225016	 1.5773180198	-0.0189174923	-0.37793
C	-0.0072971417	 0.0363244233	-0.0471065653	-0.13831
C	-1.4265127208	-0.5614200013	 0.0573362566	-0.37898
C	 0.6777586989	-0.464748865	-1.2347160466	 0.052015
C	 1.2329034731	-0.8830980102	-2.2230118547	 0.045635
C	 1.896351173	-1.3997228791	-3.3943853401	 0.151203
O	 1.9904508509	-2.5872002906	-3.6399116987	-0.269257
C	 2.4517790201	-0.3857566836	-4.2727101359	 0.287728
C	 2.9161810586	 0.4464823125	-5.0077734131	-0.479276
H	 0.9778382503	 1.9902009485	-0.0680739428	 0.130182
H	-0.6026624598	 1.9691765827	-0.8667318744	 0.130222
H	-0.5059502283	 1.9263484529	 0.9038531509	 0.119751
H	 0.5676752974	-0.3118745842	 0.8227903187	 0.121845
H	-2.0414877803	-0.2447073068	-0.7901793155	 0.131323
H	-1.3949362131	-1.6534908167	 0.0669709317	 0.135509
H	-1.9068567586	-0.2175346358	 0.9782248546	 0.120539
H	 3.3289084818	 1.1756399337	-5.6618231529	 0.217803
12.2868	61.5423	97.1858	152.0993	221.8555	227.2078	236.2129	266.2449	293.6504	351.3586	467.7728	515.6682	573.7033	593.09	646.6594	684.578	702.2132	774.1856	838.1429	932.8045	957.4922	965.9671	1107.4337	1118.8751	1176.1445	1232.9184	1311.6389	1343.9907	1397.812	1420.3897	1485.7842	1489.3995	1498.9428	1510.5919	1718.3927	2215.4331	2327.3774	3008.1058	3041.5117	3044.6215	3114.1786	3119.0407	3124.3973	3128.2529	3495.2132
CC(C)C#CC(=O)C#C	CC(C)C#CC(=O)C#C	
InChI=1S/C8H8O/c1-4-8(9)6-5-7(2)3/h1,7H,2-3H3	InChI=1S/C8H8O/c1-4-8(9)6-5-7(2)3/h1,7H,2-3H3
