15
gdb 127697	4.4033	1.09935	0.88946	2.8722	70.01	-0.2587	-0.0597	0.199	1260.7878	0.11201	-450.134341	-450.12571	-450.124766	-450.16871	29.297	
C	-0.0519559188	 1.420934059	 0.0084727396	-0.3198
N	-0.0697706771	-0.0299553298	 0.0459297978	 0.156732
N	-0.4083767779	-0.768826927	-1.0134942966	-0.120956
N	-0.3149699999	-2.0105790118	-0.6249931799	-0.254195
C	 0.0821007732	-1.9811716852	 0.6727180507	 0.291316
N	 0.2425958738	-0.7321667199	 1.1154000514	-0.278112
C	 0.311500163	-3.1995059858	 1.5053975273	 0.325528
C	 0.0731895422	-4.5230906291	 0.8143995158	-0.480467
O	 0.6654387542	-3.1000827918	 2.656872538	-0.28751
H	 0.9547133876	 1.7799406996	 0.2300161503	 0.170273
H	-0.3512661141	 1.7229312857	-0.9940182604	 0.176619
H	-0.7502990031	 1.8143928426	 0.7493475889	 0.17026
H	 0.7189459785	-4.6148625649	-0.0647980032	 0.154644
H	 0.2711779348	-5.3331168317	 1.5164143129	 0.141032
H	-0.9565235563	-4.5806350499	 0.4472749375	 0.154636
57.116	86.4399	118.9873	150.3699	164.7985	280.0758	326.5186	398.313	512.6978	574.0853	621.4031	709.2157	741.9067	776.2815	957.2374	1024.693	1047.2186	1052.4093	1086.9262	1152.1453	1192.87	1260.4936	1288.259	1383.9389	1394.8463	1414.9884	1451.504	1456.4294	1466.5717	1476.6806	1495.1406	1517.3831	1806.22	3048.2398	3071.3145	3110.4831	3147.8972	3162.142	3182.4523
CN1N=NC(=N1)C(C)=O	Cn1nnc(n1)C(=O)C	
InChI=1S/C4H6N4O/c1-3(9)4-5-7-8(2)6-4/h1-2H3	InChI=1S/C4H6N4O/c1-3(9)4-5-7-8(2)6-4/h1-2H3
