20
gdb 15635	3.07055	1.63355	1.23805	1.7056	77.64	-0.2242	0.0242	0.2484	1063.0136	0.176525	-349.020801	-349.012062	-349.011118	-349.054471	31.855	
C	 0.1372341204	 1.5579082453	-0.1022352039	-0.375912
C	-0.1122476875	 0.0524910635	 0.1015294124	-0.296345
C	 0.6471475864	-0.5302724951	 1.2560119362	 0.327923
C	 0.1603427138	-1.058384621	 2.3762118116	-0.221249
C	 1.2742664556	-1.5003415093	 3.2780764516	-0.113648
O	 2.4678399506	-1.2252718534	 2.5516394852	-0.280102
C	 2.1618811992	-0.5884774885	 1.3069069819	 0.053134
C	 2.8104268018	-1.3674018229	 0.1608554915	-0.392965
H	 1.1904563035	 1.767844716	-0.3134313988	 0.122891
H	-0.4518874904	 1.9357472524	-0.9432874265	 0.115273
H	-0.1425788104	 2.1243262922	 0.7913802502	 0.122782
H	-1.1828396774	-0.1221918873	 0.2539123058	 0.104506
H	 0.1587937402	-0.4779258457	-0.821377807	 0.10889
H	-0.887201167	-1.1618688124	 2.6336083903	 0.094628
H	 1.2790104217	-0.9537657124	 4.236018165	 0.099167
H	 1.2278968808	-2.573151947	 3.5236807838	 0.101721
H	 2.5899529009	 0.4288261971	 1.3203423723	 0.076263
H	 2.3779177435	-2.3697018018	 0.0844742949	 0.117343
H	 2.6715584266	-0.8500127725	-0.7944087897	 0.110112
H	 3.8842922475	-1.4660099071	 0.3416840933	 0.125589
54.0919	86.7636	158.3026	202.6936	235.5927	266.3195	293.7199	385.7754	422.9484	553.3049	636.803	763.634	780.8297	804.1753	832.5372	874.8965	944.2562	966.1094	1034.6043	1047.3766	1058.8052	1068.5061	1102.1768	1117.7369	1124.1709	1197.0166	1211.9155	1265.5553	1301.2034	1352.3178	1360.907	1373.2963	1383.4428	1398.2783	1409.2145	1477.8553	1488.6192	1495.0899	1498.4375	1507.5356	1526.6174	1727.5692	2944.0318	2962.0307	2982.3675	3015.9144	3036.1973	3038.2289	3063.6039	3108.075	3109.5308	3111.4694	3119.7712	3203.4758
CCC1=CCOC1C	CCC1=CCO[C@H]1C	
InChI=1S/C7H12O/c1-3-7-4-5-8-6(7)2/h4,6H,3,5H2,1-2H3	InChI=1S/C7H12O/c1-3-7-4-5-8-6(7)2/h4,6H,3,5H2,1-2H3/t6-/m0/s1
