22
gdb 59269	2.63928	1.28831	1.16894	1.4576	81.21	-0.222	0.0726	0.2946	1200.3912	0.195243	-404.329279	-404.320151	-404.319206	-404.363277	34.824	
C	 0.6077526132	 0.2735882268	-1.4069667245	-0.399353
C	 0.0735046451	 0.0492200974	 0.0101466339	 0.106352
O	 0.1650837362	 1.2437295295	 0.7917464453	-0.429806
C	-1.3522512097	-0.4696971377	-0.0325411393	-0.025664
C	-1.7647325918	-1.8912196385	 0.1539680415	-0.044479
C	-0.8010931572	-2.8984212995	 0.7699892018	-0.230194
C	-0.3953617698	-2.2965537476	 2.1408777354	-0.235851
C	-1.3947288577	-1.1320819475	 2.3853720648	-0.154026
N	-2.1473815572	-0.8683275015	 1.1424149396	-0.123381
H	 1.6173241055	 0.6903906846	-1.3651298666	 0.123982
H	 0.6363447348	-0.6646436198	-1.9709208859	 0.118861
H	-0.0302391895	 0.9762314962	-1.9564774739	 0.10872
H	 0.733869296	-0.6541598792	 0.5206906296	 0.089007
H	-0.5053292523	 1.8563126987	 0.4685981375	 0.279525
H	-1.9617246112	 0.1110535146	-0.7300729458	 0.077503
H	-2.5649144191	-2.2870268936	-0.4674027395	 0.084433
H	-1.3255046657	-3.8503818482	 0.8987260111	 0.106929
H	 0.0662254627	-3.1015909669	 0.1332636822	 0.105085
H	-0.45176552	-3.043983558	 2.9368335669	 0.100423
H	 0.6362483427	-1.9366553401	 2.1279837493	 0.114074
H	-2.1321692008	-1.4085205662	 3.1454742277	 0.101174
H	-0.8970783342	-0.2172749433	 2.7153702891	 0.126686
54.1261	128.3774	160.5712	184.1429	233.5897	260.2416	286.1505	358.747	418.5835	510.2568	543.9844	686.2597	708.5665	755.1453	788.2878	834.9781	868.8358	895.3227	901.0663	916.1213	982.4078	1003.5137	1034.9576	1068.0263	1081.1352	1101.6483	1123.9837	1138.1408	1175.8226	1197.9167	1232.9408	1257.8334	1269.9445	1295.1722	1307.7986	1329.3821	1339.3828	1344.3484	1389.3095	1400.0328	1418.7302	1442.9714	1488.3653	1492.2104	1495.1804	1498.3461	1518.9706	3027.6582	3045.7325	3048.5637	3060.5784	3064.8861	3076.1058	3087.4207	3096.594	3108.6016	3116.0214	3122.0384	3128.4477	3797.085
CC(O)C1C2CCCN12	C[C@@H](O)[C@H]1[C@H]2CCCN12	
InChI=1S/C7H13NO/c1-5(9)7-6-3-2-4-8(6)7/h5-7,9H,2-4H2,1H3	InChI=1S/C7H13NO/c1-5(9)7-6-3-2-4-8(6)7/h5-7,9H,2-4H2,1H3/t5-,6-,7+,8?/m1/s1
