12
gdb 130850	2.30957	1.583	0.93924	3.0231	74.1	-0.2698	-0.0859	0.1839	1125.4927	0.076405	-435.455831	-435.448298	-435.447353	-435.488297	27.005	
O	-0.0400811414	-0.0554956047	-0.0000374199	-0.265804
C	-0.013395559	 1.1545980316	 0.0102977184	 0.053991
C	 1.2227386775	 1.9341038371	 0.0026212067	-0.060722
C	 1.3773381783	 3.3023966133	 0.0128534374	 0.279811
O	 2.6873503247	 3.6096192228	 0.000074849	-0.215442
N	 3.4355182365	 2.4292023935	-0.0191324745	-0.112667
C	 2.5648605175	 1.4572003385	-0.0173058213	-0.033032
C	 0.4448554295	 4.354213464	 0.0330585707	 0.24851
C	-0.3664516499	 5.2427362788	 0.0503825849	-0.372771
H	-0.9440783727	 1.7584686703	 0.0265272295	 0.089022
H	 2.8995082722	 0.4301490267	-0.0302583014	 0.168626
H	-1.0800952732	 6.030541318	 0.0656150605	 0.220477
114.7932	135.6972	167.8479	210.8519	274.1054	426.5279	435.8948	573.9158	597.5239	637.2727	648.5673	697.0033	740.5681	789.5812	905.7847	932.2035	957.7728	1039.0989	1143.7047	1197.0076	1245.4464	1423.8942	1425.8333	1507.6989	1609.5942	1787.5366	2239.2073	2920.131	3259.2066	3493.6174
O=CC1=C(ON=C1)C#C	O=Cc1c(onc1)C#C	
InChI=1S/C6H3NO2/c1-2-6-5(4-8)3-7-9-6/h1,3-4H	InChI=1S/C6H3NO2/c1-2-6-5(4-8)3-7-9-6/h1,3-4H
