23
gdb 39957	4.27634	0.99998	0.96964	0.1371	90.44	-0.2536	0.089	0.3426	1352.2603	0.206341	-351.121588	-351.113051	-351.112106	-351.154995	34.19	
C	 0.7234799397	 1.4212585832	-0.2321661006	-0.333897
C	 1.3792648791	 0.0566883048	-0.2305935693	-0.315715
C	-0.1023824903	 0.1890582364	-0.0278005688	 0.398096
C	-0.8763559484	-0.256276731	 1.2196375489	-0.38829
C	-1.7595274819	-1.1462666084	 0.3066149312	 0.401013
C	-1.6171163181	-2.6932960553	 0.3134239659	-0.271471
C	-3.1306595904	-2.7977083237	-0.0156639044	-0.2063
C	-3.2894213535	-1.3268360232	 0.4568078082	-0.293101
C	-1.1846974829	-0.403547108	-0.9390886189	-0.365563
H	 0.8946706756	 2.0710294283	 0.6207298131	 0.107889
H	 0.6377516207	 1.9453814558	-1.1792296348	 0.107659
H	 1.7348549674	-0.3393117518	-1.1770163043	 0.107649
H	 1.9922917574	-0.2139718735	 0.6237452381	 0.108049
H	-0.3108072698	-0.7733421964	 2.0019671618	 0.092263
H	-1.4455030712	 0.5592313811	 1.6814065147	 0.093802
H	-0.9057876274	-3.1373599434	-0.3888046386	 0.093705
H	-1.394859009	-3.0692801296	 1.317723854	 0.094793
H	-3.3087578271	-2.9018100233	-1.089565847	 0.101913
H	-3.7096409862	-3.5631810564	 0.5060282559	 0.093769
H	-3.5994455309	-1.2683092585	 1.505742805	 0.096283
H	-3.9310445175	-0.6642624012	-0.1317112819	 0.090749
H	-1.8747745303	 0.3556412271	-1.3251387438	 0.092924
H	-0.848603095	-1.027220103	-1.7738679444	 0.093779
45.6377	107.4152	211.9897	253.2981	301.6689	330.6767	372.0459	399.7252	428.6342	617.9083	692.1309	773.7576	775.0722	812.7561	840.6664	863.1482	883.1808	898.1566	908.245	912.1717	935.2156	956.3958	967.064	994.9005	1050.3959	1053.246	1074.1787	1098.0962	1137.6194	1156.465	1179.1678	1187.0618	1196.2773	1227.2827	1236.381	1248.4371	1255.1241	1265.0505	1281.3729	1291.3651	1307.127	1383.5437	1463.9799	1469.2088	1473.5218	1482.1793	1491.2016	1504.0277	1506.0697	3022.9512	3028.6439	3037.2832	3042.8639	3058.4548	3075.4507	3077.0747	3086.0962	3091.4446	3114.0318	3116.192	3120.4559	3193.3082	3208.565
C1CC11CC2(CCC2)C1	C1CC21CC1(CCC1)C2	
InChI=1S/C9H14/c1-2-8(3-1)6-9(7-8)4-5-9/h1-7H2	InChI=1S/C9H14/c1-2-8(3-1)6-9(7-8)4-5-9/h1-7H2
