17
gdb 32106	3.56507	1.12988	0.9134	1.0898	77.82	-0.256	-0.0251	0.231	1275.8656	0.138115	-418.088354	-418.080345	-418.079401	-418.12156	29.892	
C	 0.1302721808	 1.5314423201	 0.149334835	-0.371625
C	-0.0726528511	 0.0216623621	-0.0589465679	-0.268068
C	 0.7100914192	-0.4981439339	-1.2372738234	 0.344248
N	 0.3331849268	-0.0503719724	-2.4535913495	-0.312149
C	 1.0312718294	-0.4986033412	-3.4869175816	 0.064137
N	 2.0663201611	-1.3441665907	-3.4619779645	-0.353454
C	 2.4243419541	-1.7753439328	-2.2568148494	 0.45133
O	 3.4580540359	-2.626947788	-2.1796539815	-0.408015
C	 1.7709306389	-1.3787933802	-1.0877814066	-0.281292
H	 1.1754064702	 1.760091316	 0.3813367416	 0.117847
H	-0.1446438912	 2.0771712756	-0.7565912278	 0.142701
H	-0.4882924733	 1.893228933	 0.9756478522	 0.115421
H	 0.2098841224	-0.5291070922	 0.8439397061	 0.102071
H	-1.1346878446	-0.1744707856	-0.2452715985	 0.123788
H	 0.7319358222	-0.1433367196	-4.4706081349	 0.118759
H	 3.7595894624	-2.7678275783	-3.0890527402	 0.302375
H	 2.0876711968	-1.7506712019	-0.1216729889	 0.111927
45.9429	134.9739	215.6103	216.5912	292.2945	325.7772	454.2977	476.7197	549.432	569.4805	578.9066	706.9545	791.1918	809.1831	815.8743	891.6603	941.7419	999.0466	1001.2022	1008.1623	1077.716	1090.1857	1167.8125	1198.7523	1258.9706	1306.6126	1329.3614	1353.6367	1373.8731	1401.4836	1458.692	1479.6043	1496.0987	1505.2396	1511.4306	1605.1425	1651.489	3040.482	3042.4973	3083.4985	3111.7765	3130.2819	3159.552	3211.4645	3754.6101
CCC1=NC=NC(O)=C1	CCc1ncnc(O)c1	
InChI=1S/C6H8N2O/c1-2-5-3-6(9)8-4-7-5/h3-4H,2H2,1H3,(H,7,8,9)	InChI=1S/C6H8N2O/c1-2-5-3-6(9)8-4-7-5/h3-4H,2H2,1H3,(H,7,8,9)
