15
gdb 129826	3.29727	1.39624	0.98265	5.0263	74.41	-0.1998	-0.0133	0.1865	1124.8445	0.115103	-450.167608	-450.159515	-450.15857	-450.199721	31.525	
N	 0.0769191217	 1.3712170455	 0.149742802	-0.588177
C	-0.010054525	-0.0140273653	 0.0635856568	 0.460787
C	-1.1948593581	-0.7154414533	 0.0432843216	-0.35271
C	-1.1788687877	-2.1394416857	 0.0321067985	 0.363555
O	-2.1518811257	-2.8964652633	-0.0114617441	-0.429401
C	 0.202353432	-2.7236811593	 0.0421529145	 0.291481
N	 0.2254491535	-4.0814691855	 0.0737363341	-0.545025
N	 1.3097724054	-2.0384301825	 0.0363313583	-0.314262
N	 1.1642654715	-0.6788383275	 0.0465259345	-0.296392
H	 0.8047440551	 1.7887785758	-0.4154375214	 0.254387
H	-0.8080220447	 1.832454336	-0.0051315158	 0.264881
H	-2.1426520346	-0.1925162001	 0.014691748	 0.096848
H	-0.6715509451	-4.5014458433	-0.1263333649	 0.271015
H	 1.0690282185	-4.5638878227	-0.1840249333	 0.255924
H	 2.0324354333	-0.1854658888	 0.172678061	 0.267088
125.3781	188.1567	247.9175	312.058	345.3257	346.719	359.8376	468.0806	473.3082	491.3172	526.1843	550.9333	608.7115	619.612	704.9003	718.6904	789.1336	825.5291	843.1615	997.9856	1074.3518	1126.0573	1215.247	1271.0845	1285.1714	1410.1112	1427.9517	1570.2994	1579.159	1622.4016	1662.6358	1666.3419	1720.0426	3207.9735	3553.1038	3568.3284	3650.9523	3653.7306	3716.5911
NC1=CC(=O)C(N)=NN1	Nc1cc(=O)c(N)n[nH]1	
InChI=1S/C4H6N4O/c5-3-1-2(9)4(6)8-7-3/h1H,(H2,6,8)(H3,5,7,9)	InChI=1S/C4H6N4O/c5-3-1-2(9)4(6)8-7-3/h1H,(H2,6,8)(H3,5,7,9)
