14
gdb 25988	4.90391	1.02521	0.99282	2.5208	64.38	-0.2173	0.0219	0.2392	1188.7921	0.10091	-473.885604	-473.877446	-473.876502	-473.919616	28.969	
N	-0.0368598721	 1.2642620258	 0.1566294574	-0.561478
C	-0.0920677421	-0.0042968611	-0.3163001313	 0.476126
O	 0.4495036971	-0.4418534675	-1.2924765233	-0.362273
O	-0.8930829896	-0.754353036	 0.543057252	-0.298854
C	-0.9994497083	-2.0770495954	 0.2765340487	 0.464039
C	-2.0033738673	-2.8148010847	-0.2559903389	-0.299403
C	-1.5511023092	-4.1755215017	-0.1819704898	-0.164983
C	-0.3196940845	-4.1395381303	 0.3866360595	-0.008863
O	 0.0311935933	-2.8532422804	 0.6808423389	-0.162862
H	 0.4065451218	 1.9587481503	-0.4170065178	 0.277681
H	-0.6204770854	 1.5482034966	 0.9231610565	 0.274433
H	-2.9321529161	-2.4397405916	-0.6523961833	 0.116056
H	-2.0783428211	-5.0557557116	-0.5143346531	 0.113287
H	 0.4093994435	-4.8891490925	 0.6428328645	 0.137094
46.2193	72.3754	113.7678	147.0145	321.788	390.8684	440.0235	537.5768	608.2484	616.0775	650.2238	726.8556	765.8638	778.7723	815.889	846.9626	898.478	904.1849	996.2269	1032.4199	1102.6341	1109.773	1188.0623	1245.0325	1270.2519	1331.3862	1421.416	1546.7639	1607.064	1659.3157	1882.4694	3256.4599	3274.7706	3292.7357	3630.582	3765.9489
NC(=O)OC1=CC=CO1	NC(=O)Oc1ccco1	
InChI=1S/C5H5NO3/c6-5(7)9-4-2-1-3-8-4/h1-3H,(H2,6,7)	InChI=1S/C5H5NO3/c6-5(7)9-4-2-1-3-8-4/h1-3H,(H2,6,7)
