20
gdb 61568	3.58822	0.86035	0.75134	3.9515	76.06	-0.2526	0.0187	0.2713	1531.8602	0.169757	-440.306896	-440.296916	-440.295972	-440.342774	36.38	
N	 0.0307337795	 1.2029992665	-0.22837423	-0.517072
C	 0.043573962	-0.1340976454	-0.0079277955	 0.379514
O	 1.0719226158	-0.7749766353	 0.1420579007	-0.377211
C	-1.320120292	-0.8429451837	 0.0625149208	 0.037232
O	-1.0907830235	-2.2261280123	 0.0897639608	-0.431654
C	-2.1307257271	-0.3823156239	 1.2931974675	-0.219661
C	-3.5175135136	-0.9853048992	 1.3452874432	 0.034884
C	-3.7306501431	-2.3680601499	 1.9004481447	-0.232292
C	-4.2182367801	-1.1667529735	 2.6705638481	-0.286962
H	 0.9087224593	 1.6901705008	-0.3027247743	 0.268322
H	-0.8193717609	 1.7043060116	-0.4164048172	 0.266198
H	-1.8873537641	-0.5843469749	-0.8478439911	 0.078922
H	-0.124637387	-2.3091035016	 0.1744122211	 0.29134
H	-1.5660910866	-0.6616998064	 2.1913637195	 0.105514
H	-2.2039686095	 0.714000702	 1.2938834988	 0.081336
H	-4.1531312547	-0.7061150975	 0.5074538371	 0.075073
H	-4.464692453	-3.0063576163	 1.4216172646	 0.108827
H	-2.8570704076	-2.8946242178	 2.2650107729	 0.122173
H	-3.6798689207	-0.8842135608	 3.569742059	 0.107755
H	-5.2854587633	-0.9796256324	 2.7185524393	 0.107762
50.0202	54.8029	96.9391	139.4979	193.5552	227.0983	328.2239	340.4796	362.7617	428.9731	488.7195	506.6831	560.9773	655.5187	716.2917	771.3144	803.144	825.6189	857.1914	907.279	952.9873	958.7381	1038.5173	1062.5971	1072.6656	1092.7317	1130.0747	1135.878	1166.189	1195.8747	1230.2564	1249.7475	1268.0945	1330.8149	1354.181	1375.8183	1416.5059	1463.6702	1470.9423	1474.8884	1507.247	1620.2523	1782.9377	2960.2934	3009.6294	3059.2868	3124.561	3128.2769	3144.7703	3208.0248	3231.5727	3604.9695	3637.5719	3739.2225
NC(=O)C(O)CC1CC1	NC(=O)[C@@H](O)CC1CC1	
InChI=1S/C6H11NO2/c7-6(9)5(8)3-4-1-2-4/h4-5,8H,1-3H2,(H2,7,9)	InChI=1S/C6H11NO2/c7-6(9)5(8)3-4-1-2-4/h4-5,8H,1-3H2,(H2,7,9)/t5-/m0/s1
