21
gdb 75464	2.50154	1.60395	1.17661	1.5424	84.59	-0.2314	0.022	0.2534	1133.8268	0.183075	-387.09771	-387.089034	-387.08809	-387.131265	33.002	
C	-0.2957713935	 1.484987531	-0.1378571605	-0.505535
C	-0.0570637024	 0.0089025516	-0.1073013447	 0.284728
C	 0.1006906867	-0.8220141271	-1.1400535476	-0.177879
C	 0.31006329	-2.2551914917	-0.7179996834	-0.263923
C	-0.0460439504	-2.2193874042	 0.7865810414	-0.288368
C	 0.0447078617	-0.7390893985	 1.2040432182	 0.385768
C	 1.1689799463	-0.3053742411	 2.1932061379	-0.348216
C	 0.0181523652	 0.0231169101	 3.1573516137	-0.068881
O	-0.970775861	-0.3600426833	 2.1816052635	-0.324554
H	 0.5173553639	 2.0376022876	 0.3506591732	 0.120167
H	-0.3851486021	 1.8569978249	-1.1617235373	 0.120397
H	-1.2134939377	 1.7313864027	 0.4071853364	 0.142812
H	 0.1037197785	-0.5147956797	-2.1814294497	 0.086608
H	-0.3114077222	-2.9587653147	-1.2838694363	 0.104066
H	 1.3505381046	-2.5675811855	-0.8828490109	 0.105397
H	-1.0867776386	-2.5240984758	 0.9349850928	 0.120905
H	 0.5789025022	-2.8740773976	 1.3999755439	 0.091776
H	 1.8391076543	-1.1088639727	 2.5037129941	 0.107999
H	 1.7648514933	 0.5497000391	 1.8689948063	 0.108662
H	-0.0388260705	-0.5960966789	 4.0613650507	 0.09897
H	-0.0778677081	 1.0766564637	 3.4468207382	 0.099104
72.5591	86.2315	161.0037	216.1551	255.4613	257.1521	340.5563	419.5515	485.6532	575.8364	627.9903	694.5052	778.8551	808.3421	855.9693	866.4907	922.9161	929.171	938.2061	975.4172	1000.7941	1024.5996	1035.6806	1056.5814	1077.2422	1099.1596	1157.9903	1169.6706	1193.9527	1215.4268	1240.9992	1246.7795	1264.8956	1292.8441	1324.8909	1351.1741	1360.2903	1408.5705	1472.9545	1479.7641	1491.2935	1492.9197	1499.9577	1531.5173	1720.1645	3011.5986	3013.1504	3022.0795	3047.8897	3050.4263	3058.4876	3075.7118	3077.5357	3101.584	3116.3219	3130.5681	3177.2994
CC1=CCCC11CCO1	CC1=CCC[C@]21CCO2	
InChI=1S/C8H12O/c1-7-3-2-4-8(7)5-6-9-8/h3H,2,4-6H2,1H3	InChI=1S/C8H12O/c1-7-3-2-4-8(7)5-6-9-8/h3H,2,4-6H2,1H3/t8-/m1/s1
