20
gdb 10731	2.83508	1.50657	1.34927	1.4551	70.32	-0.2527	0.0708	0.3236	1054.8795	0.174744	-386.123158	-386.113706	-386.112761	-386.157187	34.679	
C	 0.0115276321	 1.6388987104	 0.1169794568	-0.399058
C	-0.0720066494	 0.127918011	 0.3475879575	-0.271102
C	-1.4480205257	-0.487429274	 0.1430700159	 0.420684
C	-2.6788441604	 0.3054659301	 0.2685744293	-0.232977
O	-2.1698037831	-0.0574715488	-1.0221408145	-0.280793
C	-1.558341287	-1.9985577117	 0.3724514322	 0.064711
C	-0.7845042686	-2.8143017956	-0.6624499835	-0.424618
O	-1.1972476101	-2.3395065416	 1.7083503881	-0.431161
H	 1.054340276	 1.9682526647	 0.1201493692	 0.112633
H	-0.4282643152	 1.9034547113	-0.8484896202	 0.138966
H	-0.5112107553	 2.1993277575	 0.8978271004	 0.118615
H	 0.6271856007	-0.3731669348	-0.3339361544	 0.106065
H	 0.2565523352	-0.1162679945	 1.3650535214	 0.10436
H	-3.6041324969	-0.1891227963	 0.5615004986	 0.112448
H	-2.6331850827	 1.3669788911	 0.499314312	 0.113744
H	-2.6199661933	-2.2557506386	 0.2864220342	 0.090902
H	 0.2964041288	-2.6470952909	-0.5832965822	 0.108959
H	-0.9727826902	-3.8812155095	-0.5149131546	 0.124289
H	-1.0957802875	-2.5373227879	-1.6734246403	 0.141444
H	-0.2406635672	-2.4414558217	 1.7412375443	 0.28189
58.3408	85.6034	195.7981	214.6644	251.1746	260.8019	269.1717	311.7607	328.7197	362.3392	479.6469	520.9432	553.312	678.9971	781.3967	854.1664	874.7967	921.3952	950.2804	1006.8252	1030.8985	1069.3497	1092.3847	1105.631	1134.8754	1146.0367	1165.0758	1248.6865	1291.5128	1306.2358	1330.7363	1386.4509	1397.8024	1404.1415	1407.1609	1436.9496	1484.7801	1496.2712	1497.0549	1502.0582	1513.4521	1535.9112	3022.898	3032.4108	3044.8641	3048.2083	3060.2751	3090.7815	3102.7693	3111.3069	3123.9629	3126.4544	3179.0841	3816.9541
CCC1(CO1)C(C)O	CC[C@]1(CO1)[C@@H](C)O	
InChI=1S/C6H12O2/c1-3-6(4-8-6)5(2)7/h5,7H,3-4H2,1-2H3	InChI=1S/C6H12O2/c1-3-6(4-8-6)5(2)7/h5,7H,3-4H2,1-2H3/t5-,6+/m1/s1
