21
gdb 113094	4.95302	0.8087	0.74232	2.0492	82.92	-0.2462	0.0129	0.2591	1596.3257	0.18131	-424.211961	-424.20228	-424.201336	-424.247181	34.825	
C	 0.0407861591	 1.3221460678	-0.1899372766	-0.237087
O	-0.1062710604	-0.0579805507	 0.045259527	-0.242424
C	 0.6501976644	-0.5420387703	 1.1451045499	 0.101884
C	 0.1302247366	-1.9350498623	 1.5481621295	-0.283613
C	 1.3738501052	-2.7701671517	 1.9077194522	 0.101884
O	 1.2050820929	-4.0956272788	 1.4272053341	-0.242425
C	 2.102758407	-5.0266953746	 1.9830660028	-0.237087
C	 2.5020319222	-2.0024405884	 1.2497453927	-0.09579
C	 2.1112359368	-0.7991851214	 0.8379042538	-0.095791
H	 1.0681499294	 1.5967179761	-0.4739200148	 0.103586
H	-0.6261649133	 1.5824645504	-1.0156929732	 0.127566
H	-0.2397259676	 1.9178567703	 0.6936462653	 0.102465
H	 0.5548645735	 0.1770677366	 1.9777531853	 0.065609
H	-0.6148596314	-1.9042899416	 2.3450488148	 0.099414
H	-0.328320975	-2.3864663687	 0.6643834258	 0.137291
H	 1.5256038387	-2.8118544524	 3.0007600308	 0.065609
H	 1.8393685993	-6.008874363	 1.5825512073	 0.127566
H	 3.1503720949	-4.8144378597	 1.7204554215	 0.103586
H	 2.0264316805	-5.0598055339	 3.0818637618	 0.102465
H	 3.5057670689	-2.4038719943	 1.1634935794	 0.097646
H	 2.7441863484	-0.0589748391	 0.3609001805	 0.097646
50.4824	93.0261	99.3487	179.902	180.6159	239.0242	268.8749	288.086	338.5721	422.0821	502.1171	576.0275	612.7069	764.9251	781.4728	864.1421	894.8961	971.0448	985.3026	996.7541	1029.1227	1071.8513	1087.0976	1126.1698	1141.9504	1171.0461	1179.518	1182.7752	1185.0778	1231.186	1237.421	1277.2845	1303.2207	1324.6742	1356.1645	1382.2482	1398.8352	1477.6301	1479.313	1482.6271	1490.155	1490.6112	1509.7322	1509.8911	1684.0216	2938.9726	2939.6465	2970.5595	2971.3038	3015.7711	3015.9549	3075.7131	3111.001	3111.1783	3128.9113	3181.3837	3206.5914
COC1CC(OC)C=C1	CO[C@H]1C[C@@H](OC)C=C1	
InChI=1S/C7H12O2/c1-8-6-3-4-7(5-6)9-2/h3-4,6-7H,5H2,1-2H3	InChI=1S/C7H12O2/c1-8-6-3-4-7(5-6)9-2/h3-4,6-7H,5H2,1-2H3/t6-,7+
