20
gdb 39962	4.64597	1.01682	0.98462	1.3813	79.57	-0.236	0.0657	0.3018	1274.9636	0.17121	-403.090659	-403.082441	-403.081497	-403.124141	31.722	
C	 0.7065169324	 1.3613979813	-0.0798898642	-0.313754
N	 1.2973422672	 0.0036446081	-0.13775471	-0.358788
C	-0.1496707291	 0.165143923	 0.0145337637	 0.359932
C	-0.904971424	-0.4458601119	 1.1994936331	-0.352157
C	-1.7297433934	-1.2742619299	 0.1797845583	 0.460405
C	-1.5955803378	-2.8104888154	 0.1046259455	-0.344013
C	-3.1205405186	-2.8103405873	 0.3208609469	-0.076414
O	-3.1515979838	-1.3679958735	 0.3691349363	-0.315573
C	-1.205710335	-0.3651987837	-0.964112403	-0.379631
H	 0.9567405886	 1.9279772174	 0.8134956076	 0.118056
H	 0.6649705363	 1.9524003122	-0.9920468136	 0.109626
H	 1.5207121522	-0.2272809193	-1.1037685706	 0.225808
H	-0.3082076438	-0.9951959735	 1.9316291263	 0.108531
H	-1.5456856633	 0.2782265458	 1.712283905	 0.113007
H	-1.2583053586	-3.1997529711	-0.8579470872	 0.10934
H	-1.0048949249	-3.2633297694	 0.9027339668	 0.115541
H	-3.7229253478	-3.2041933311	-0.5062970609	 0.102688
H	-3.4705316171	-3.2574731895	 1.2587787757	 0.103979
H	-1.9553709615	 0.3869526518	-1.2296899654	 0.117619
H	-0.8536703578	-0.859151614	-1.8758446501	 0.095798
48.3899	68.0478	229.8653	263.2453	309.5975	347.1681	385.4366	428.2809	445.1331	638.2612	781.3502	798.036	821.5764	851.0219	865.5667	887.1188	909.7818	919.6288	954.1522	972.6221	982.895	1027.0871	1034.9236	1068.7807	1109.3218	1132.6054	1150.2341	1161.8275	1180.0653	1212.1884	1221.8996	1237.7521	1254.5967	1270.2168	1288.1696	1306.5656	1358.9018	1417.2061	1452.5725	1475.7485	1488.0316	1515.927	1532.0467	3019.4409	3037.8642	3054.094	3059.1674	3074.8852	3094.9429	3099.0356	3114.411	3129.9063	3182.3734	3482.6801
C1NC11CC2(CCO2)C1	C1N[C@]21C[C@]1(CCO1)C2	
InChI=1S/C7H11NO/c1-2-9-7(1)3-6(4-7)5-8-6/h8H,1-5H2	InChI=1S/C7H11NO/c1-2-9-7(1)3-6(4-7)5-8-6/h8H,1-5H2/t6-,7-
