18
gdb 51526	5.38428	0.69556	0.66754	2.4352	80.47	-0.2356	-0.0284	0.2072	1650.1201	0.145099	-401.890653	-401.881388	-401.880443	-401.925781	33.182	
O	-0.5019594876	 0.1741802615	 0.3934420253	-0.233915
C	-0.1924377001	 1.2727644892	 0.0150093687	 0.157278
C	 1.2393718477	 1.7761377899	-0.0902051097	-0.237101
N	 1.3885793252	 2.7061789541	-1.1844307849	-0.093768
C	 1.5311313086	 2.1774236355	-2.5572907666	-0.183741
C	 2.5149498069	 3.3463607045	-2.8625106293	-0.171631
C	 2.6484834097	 3.4634942778	-1.3135840435	-0.178602
C	 3.6975287155	 3.0816812038	-3.650317901	 0.31508
C	 4.6841728557	 2.8539688943	-4.2987439818	-0.455391
H	-0.9497588207	 2.0334597914	-0.2813921195	 0.085383
H	 1.4461778987	 2.3129677786	 0.8480803711	 0.13237
H	 1.9226615354	 0.9093868406	-0.1297938215	 0.108095
H	 2.0411557213	 1.2027502782	-2.5968356692	 0.106538
H	 0.6065824121	 2.1276017517	-3.1398154536	 0.116108
H	 1.9692083279	 4.205934771	-3.2607825541	 0.116439
H	 2.6348935022	 4.4662750183	-0.8758923109	 0.113389
H	 3.5306088332	 2.9160010145	-0.9495254714	 0.103694
H	 5.5540958781	 2.655712325	-4.8744452279	 0.199776
47.5785	73.2842	94.6148	166.2489	191.314	260.2031	347.7989	368.892	455.2935	517.1535	524.7905	620.3741	638.4298	638.8455	739.5628	819.795	895.4574	961.4677	984.928	1019.9375	1059.8835	1077.7164	1115.2722	1128.8086	1148.6185	1184.4032	1226.0238	1245.4765	1253.1746	1291.0338	1328.4501	1346.851	1369.5942	1405.3322	1454.3863	1503.5853	1529.1555	1840.1895	2238.9019	2883.7241	2952.4891	2988.8269	2997.2867	3023.0701	3066.7519	3076.3842	3085.1115	3504.647
O=CCN1CC(C1)C#C	O=CCN1CC(C1)C#C	
InChI=1S/C7H9NO/c1-2-7-5-8(6-7)3-4-9/h1,4,7H,3,5-6H2	InChI=1S/C7H9NO/c1-2-7-5-8(6-7)3-4-9/h1,4,7H,3,5-6H2
