20
gdb 123129	3.15517	0.7799	0.69111	17.5154	80.57	-0.1531	-0.0241	0.129	1633.2573	0.169386	-477.349951	-477.339645	-477.338701	-477.387409	35.75	
N	 1.0033478983	 2.0176384568	 0.8790057849	-0.385111
H	 1.9612505926	 1.652214346	 0.9759271001	 0.315827
H	 0.8740719828	 2.5828566799	 1.7531618524	 0.335158
H	 0.9017495162	 2.5594307551	 0.0224222458	 0.317247
C	-0.0263427264	 0.9386782946	 1.0656057783	-0.215621
C	 0.0060522245	 0.5976581242	 2.5804142301	-0.082185
O	 0.3674800611	 1.7631699368	 3.2835871083	-0.308294
C	 1.6408219985	 1.6293406514	 4.0526751343	-0.065911
C	 2.8988998799	 1.5110993985	 3.2292353581	-0.388728
C	 4.1590142726	 1.0525929471	 4.183236845	 0.353428
O	 3.7983185882	 0.3321054972	 5.1251535057	-0.459963
O	 5.2421267183	 1.4759953536	 3.7820300627	-0.45582
H	-0.9827392001	 1.3715527096	 0.7666525235	 0.163523
H	 0.207272313	 0.0895451657	 0.4231405166	 0.170034
H	-0.990541994	 0.2602729033	 2.885858544	 0.137231
H	 0.7158405905	-0.215138424	 2.7631730426	 0.153211
H	 1.6473059322	 2.5291983816	 4.6699330231	 0.126312
H	 1.5654038765	 0.7563571786	 4.7043918932	 0.152045
H	 2.8375721992	 0.6841073044	 2.5014642262	 0.06677
H	 3.1863429063	 2.4382738993	 2.7204780649	 0.070846
27.013	50.4931	76.295	102.8434	171.811	183.9999	225.9706	269.1975	377.1041	430.2433	439.877	548.8448	636.8177	688.2754	763.7369	774.0132	811.6826	851.1495	875.3156	947.881	1005.8413	1020.1945	1046.5804	1069.0281	1097.0658	1112.0416	1172.8586	1214.6437	1265.2333	1281.1366	1304.3105	1319.8197	1357.5821	1376.5825	1397.0494	1445.5308	1468.7097	1493.537	1499.489	1508.1278	1581.7958	1653.414	1832.6497	2956.7491	3040.9513	3055.0754	3082.2432	3084.9137	3087.3835	3098.3786	3147.0911	3159.6633	3336.7587	3526.7945
[NH3+]CCOCCC([O-])=O	[NH3]CCOCCC(=O)[O]	
InChI=1S/C5H11NO3/c6-2-4-9-3-1-5(7)8/h1-4,6H2,(H,7,8)	InChI=1S/C5H11NO3/c6-2-4-9-3-1-5(7)8/h1-4H2,6H3
