15
gdb 50395	2.74524	1.31634	1.00357	3.4726	68.74	-0.2458	-0.0752	0.1706	1149.3568	0.112363	-453.970635	-453.962528	-453.961584	-454.004114	28.665	
O	 0.1967376918	-0.1901414377	 0.5616278891	-0.239254
C	 0.1114589036	 0.9845270206	 0.3160305637	 0.157116
C	 1.297651091	 1.8655941981	-0.0443526338	-0.100519
C	 1.5211000877	 3.0317395069	 0.9817807153	-0.196099
N	 2.6556938277	 2.6078882796	 1.8111708826	-0.270425
C	 3.1426131164	 1.5687319367	 1.2381591202	 0.273378
N	 2.5660207857	 1.15320757	 0.0501640787	-0.330291
C	 4.2961476188	 0.8251816873	 1.8119916789	 0.116114
O	 4.7193198062	-0.1958787862	 1.3291224509	-0.253148
H	-0.8664894888	 1.5171503414	 0.3308178633	 0.08976
H	 1.1144416433	 2.2602821691	-1.0520238656	 0.114346
H	 1.7766773019	 3.9646240097	 0.46625503	 0.13439
H	 0.6407070131	 3.2358642597	 1.600696238	 0.125503
H	 2.5510577896	 0.153836947	-0.1147224763	 0.266218
H	 4.7106562721	 1.2855779279	 2.7285330652	 0.112911
72.9816	95.8625	144.456	198.1551	260.0416	293.779	344.2808	492.0967	577.4367	614.19	700.5445	728.5314	786.337	847.6313	900.2181	953.9323	1004.388	1026.9342	1033.108	1079.1673	1125.4118	1205.2134	1246.8462	1274.774	1322.3846	1358.4102	1387.2556	1406.5014	1463.0681	1489.1481	1683.2842	1809.8322	1831.2005	2880.6178	2968.2999	3024.6264	3040.3259	3072.1271	3578.151
O=CC1CN=C(N1)C=O	O=C[C@H]1C[N][C](N1)C=O	
InChI=1S/C5H6N2O2/c8-2-4-1-6-5(3-9)7-4/h2-4H,1H2,(H,6,7)	InChI=1S/C5H6N2O2/c8-2-4-1-6-5(3-9)7-4/h2-4H,1H2,(H,6,7)/t4-/m1/s1
