17
gdb 54223	2.27923	1.53021	1.28492	1.0283	69.97	-0.2481	-0.0459	0.2022	1065.8832	0.132479	-458.988784	-458.979505	-458.978561	-459.023033	33.765	
C	 0.0154045017	 1.5140206718	-0.012065388	-0.475345
C	 0.0553988125	 0.004338623	-0.0492429142	 0.343256
O	 1.0837038705	-0.6326106855	-0.0109774051	-0.30566
C	-1.3084848175	-0.7068230469	-0.1003845583	 0.201599
O	-2.2981356184	 0.125670114	-0.630161623	-0.475782
C	-1.1674599307	-2.191616689	-0.584946329	-0.274239
C	-1.0436710164	-2.6726299494	 0.8973339718	-0.327656
C	-1.6614698655	-1.3356378867	 1.2740891694	 0.331482
O	-2.4415292897	-0.9451843988	 2.0962183777	-0.308317
H	 1.0274031532	 1.8998538965	 0.112520459	 0.13904
H	-0.4319697638	 1.8988432798	-0.9329278677	 0.160687
H	-0.6275222199	 1.854573385	 0.8067476889	 0.147224
H	-3.0164453165	 0.1651893222	 0.0157910755	 0.296231
H	-2.0907041351	-2.5248105868	-1.0606230093	 0.121405
H	-0.3024946399	-2.3824170721	-1.218076517	 0.133282
H	-1.5845300769	-3.5625128475	 1.2226148636	 0.132337
H	 0.0048435125	-2.7328734394	 1.199933836	 0.160456
56.5511	100.5847	157.1444	168.0328	222.578	264.0076	310.7052	337.1196	436.4225	443.7008	487.3938	571.3197	606.1307	664.3779	743.5266	756.1207	822.3823	898.8439	939.303	980.7901	1028.7747	1058.1512	1091.3225	1100.7557	1189.3399	1204.4032	1215.3119	1242.3407	1272.7898	1361.3746	1380.8732	1436.405	1454.8172	1464.2896	1465.1843	1795.8202	1869.7673	3047.4549	3077.7189	3093.3223	3112.5293	3141.4742	3160.379	3168.2107	3751.7022
CC(=O)C1(O)CCC1=O	CC(=O)[C@@]1(O)CCC1=O	
InChI=1S/C6H8O3/c1-4(7)6(9)3-2-5(6)8/h9H,2-3H2,1H3	InChI=1S/C6H8O3/c1-4(7)6(9)3-2-5(6)8/h9H,2-3H2,1H3/t6-/m0/s1
