19
gdb 55083	3.91311	1.03518	0.99865	3.3392	76.5	-0.2343	-0.0108	0.2234	1270.2619	0.156563	-423.015422	-423.00625	-423.005306	-423.049644	33.89	
C	 0.5657091012	 0.4573305016	-0.8051413217	-0.493481
C	-0.150789291	 0.1516681568	 0.4941834847	 0.381248
O	 0.1259081317	 0.7176823893	 1.5291080922	-0.311886
C	-1.2289012112	-0.923911081	 0.4865479486	-0.10007
C	-2.1531068063	-1.1985676953	-0.7577417387	-0.334764
C	-1.6616613198	-2.6592807619	-0.7592047066	 0.422375
C	-2.3831372509	-3.8837606805	-1.2156193742	-0.500458
O	-0.2368998639	-2.5992812832	-0.9511780848	-0.274916
C	-0.7511715527	-2.3933184632	 0.3696839039	-0.065109
H	 0.8329730177	-0.4674389958	-1.3235588187	 0.161245
H	-0.1039261107	 1.0140394119	-1.4721822744	 0.136654
H	 1.4455995875	 1.0687468645	-0.6006316669	 0.134938
H	-1.8173655335	-0.7964570975	 1.3977207755	 0.101478
H	-3.2105654194	-1.0871668449	-0.5079246989	 0.115144
H	-1.9377059969	-0.6466393465	-1.6750413658	 0.113514
H	-2.5114146171	-3.8745986637	-2.3039821017	 0.134689
H	-1.8204546276	-4.7813249353	-0.9464908439	 0.138645
H	-3.3771619287	-3.9399816193	-0.7608061181	 0.128586
H	-0.3649749884	-3.031345806	 1.1567300795	 0.112167
50.1715	116.4965	155.5559	174.1483	196.3093	264.6066	319.9193	374.0999	424.1339	457.8045	521.9276	604.4727	664.2807	721.3373	765.573	852.2421	894.0109	906.9957	924.6719	980.2248	996.4805	1014.084	1055.121	1067.4182	1085.1628	1159.1469	1200.6264	1211.2008	1242.362	1256.83	1272.4887	1318.1852	1381.5395	1404.3264	1453.7089	1468.5705	1472.6814	1478.7243	1485.3974	1497.2893	1797.3534	3035.5702	3036.0835	3071.8212	3093.8373	3098.3679	3105.8597	3123.9741	3129.2715	3156.0753	3184.6621
CC(=O)C1CC2(C)OC12	CC(=O)[C@H]1C[C@@]2(C)O[C@@H]12	
InChI=1S/C7H10O2/c1-4(8)5-3-7(2)6(5)9-7/h5-6H,3H2,1-2H3	InChI=1S/C7H10O2/c1-4(8)5-3-7(2)6(5)9-7/h5-6H,3H2,1-2H3/t5-,6+,7-/m1/s1
