18
gdb 123436	5.21106	0.91482	0.80501	1.8472	77.77	-0.2407	0.0229	0.2636	1394.478	0.150708	-398.121668	-398.113718	-398.112774	-398.155465	29.681	
C	 0.1668680966	 1.2760988092	 0.6201463612	-0.335001
C	-0.0547418744	-0.0369789356	-0.1001628306	 0.039262
C	-1.4236103286	-0.5470883082	-0.3452933475	-0.25288
N	-0.6029527414	-0.0545991278	-1.4700789004	-0.31751
C	 1.4516682194	 1.9538067091	 0.2321033113	 0.335884
N	 2.1551582375	 2.6324110844	 1.1382999827	-0.292798
N	 3.2114821442	 3.1153504829	 0.4555207129	-0.182022
C	 3.2074327477	 2.7607438331	-0.851242485	-0.019702
C	 2.0737932496	 2.0012951166	-1.0404630516	-0.276484
H	-0.68708618	 1.9379152188	 0.4123946211	 0.101739
H	 0.1757628864	 1.1191102997	 1.7044110975	 0.123585
H	 0.74056519	-0.7664346023	 0.0411123263	 0.096712
H	-1.617610655	-1.6157612951	-0.3536034737	 0.117669
H	-2.2602791572	 0.0602419018	-0.0082907418	 0.109427
H	-0.9116426611	 0.8829525357	-1.7198254726	 0.226419
H	 3.8977729541	 3.663213278	 0.9452547403	 0.27398
H	 3.9935270441	 3.0642005097	-1.5246209147	 0.131933
H	 1.745776878	 1.5318446399	-1.9533345355	 0.119787
33.4997	86.4739	126.8887	287.3206	312.4196	349.5373	456.7356	505.0691	656.4585	689.9842	738.4701	777.0911	794.4625	829.6375	856.8381	927.0239	937.9345	951.8064	979.5368	994.7287	1047.2223	1071.1043	1112.8062	1125.0387	1142.6037	1174.0056	1201.9617	1254.1704	1266.4174	1295.6325	1308.1962	1318.9931	1404.4044	1428.8282	1469.7637	1474.3316	1491.4301	1511.9525	1573.2507	2998.1317	3068.7809	3106.4833	3127.2607	3191.3017	3257.5404	3278.748	3482.0295	3678.916
C(C1CN1)C1=NNC=C1	C([C@H]1CN1)c1n[nH]cc1	
InChI=1S/C6H9N3/c1-2-8-9-5(1)3-6-4-7-6/h1-2,6-7H,3-4H2,(H,8,9)	InChI=1S/C6H9N3/c1-2-8-9-5(1)3-6-4-7-6/h1-2,6-7H,3-4H2,(H,8,9)/t6-/m0/s1
