19
gdb 118566	1.67554	1.05657	0.71264	2.0708	69.55	-0.2696	-0.0043	0.2653	1573.4265	0.156453	-497.308738	-497.298183	-497.297238	-497.345793	36.105	
O	 0.1666382048	 1.3481598611	 0.1239457651	-0.414115
C	 0.0755481967	-0.0584361725	-0.0254155651	-0.07581
C	-1.366618823	-0.5589551046	 0.0914212394	-0.199447
C	-1.5031047506	-2.07737262	 0.0556863911	 0.060294
C	-2.9535538911	-2.5592679889	 0.1569940355	-0.066485
O	-3.7526016402	-2.0687821202	-0.8974802038	-0.412269
O	-0.9933477022	-2.5516034703	-1.2171276619	-0.207273
C	-0.1353948199	-3.5915367178	-1.2287836617	 0.170404
O	 0.2631634259	-4.0869180762	-2.2386641564	-0.270235
H	-0.2613735502	 1.7540527364	-0.6366381808	 0.284716
H	 0.5166784607	-0.3928951837	-0.974891286	 0.108684
H	 0.6856173559	-0.4800873373	 0.7825898841	 0.107324
H	-1.7868325481	-0.1984712838	 1.0372551503	 0.115507
H	-1.9825303767	-0.1382603372	-0.7112397867	 0.115825
H	-0.9143102812	-2.5334676396	 0.8646737638	 0.088786
H	-2.9610248453	-3.6604134831	 0.192898957	 0.09517
H	-3.3956460784	-2.1922383232	 1.0890150194	 0.119286
H	-3.3425082837	-2.3622685601	-1.7197088153	 0.296693
H	 0.1572063166	-3.917678619	-0.2117519379	 0.082945
43.9951	79.9061	93.5966	103.4416	140.8885	173.2933	244.4746	291.9256	307.741	337.6719	352.8397	429.6839	526.338	595.7094	691.7204	795.5491	904.8981	929.9167	965.467	1026.5268	1046.5054	1073.6055	1080.5859	1107.395	1123.5371	1165.6515	1212.0382	1235.356	1275.2251	1310.9124	1351.8095	1368.3967	1394.9073	1413.1641	1423.3698	1425.2303	1438.0095	1481.4597	1496.0468	1516.3061	1865.5563	2949.9816	2978.4155	3005.3881	3010.5322	3044.8139	3055.0313	3081.1301	3094.4939	3797.2138	3817.0649
OCCC(CO)OC=O	OCC[C@@H](CO)OC=O	
InChI=1S/C5H10O4/c6-2-1-5(3-7)9-4-8/h4-7H,1-3H2	InChI=1S/C5H10O4/c6-2-1-5(3-7)9-4-8/h4-7H,1-3H2/t5-/m0/s1
