16
gdb 107868	2.73311	1.51079	1.16123	3.9833	69.51	-0.2486	-0.017	0.2316	1052.6403	0.123535	-437.785288	-437.777534	-437.77659	-437.817941	29.134	
O	-0.0703562791	 1.4141004055	 0.1588569032	-0.418677
C	-0.0129553537	 0.0041819428	 0.0105961177	-0.225703
C	-1.4304424029	-0.4960255633	-0.0251146604	 0.355807
C	-2.5710279922	-0.1934560625	-0.9889546945	-0.226237
N	-3.2602566267	-1.1557317742	-0.018191035	-0.158605
C	-1.9332196792	-1.9823862115	 0.0741747153	-0.232656
C	-1.978413998	-1.8713436248	 1.5923975519	 0.494827
O	-1.709047341	-2.4937750428	 2.5716782172	-0.323232
C	-2.4687125856	-0.4985110602	 1.1615893853	-0.204833
H	 0.8286927392	 1.7556859446	 0.1631516971	 0.295325
H	 0.5006070137	-0.2856873932	-0.9205237152	 0.096306
H	 0.5212032387	-0.4761497281	 0.8466833221	 0.103487
H	-2.9972896618	 0.8128799664	-0.983132371	 0.121399
H	-2.5035893818	-0.5803064756	-2.0106210401	 0.10753
H	-1.7368402802	-2.8031367193	-0.6138630635	 0.104078
H	-2.8684375893	 0.3600413361	 1.6965959499	 0.111184
73.2635	128.8514	179.2115	244.1587	316.0526	341.0212	418.3196	538.7782	604.5622	651.1811	701.1767	784.8889	797.3138	840.5491	853.2729	922.1768	946.7037	1016.1789	1045.2449	1065.2836	1081.9219	1090.587	1100.7541	1115.1233	1174.9318	1191.4468	1206.3506	1247.0992	1255.6988	1286.443	1331.3407	1465.3966	1510.2355	1530.1571	1922.5825	2963.6408	2995.0303	3049.037	3113.4377	3139.4392	3155.1494	3831.4365
OCC12CN3C1C(=O)C23	OC[C@@]12CN3[C@@H]1C(=O)[C@@H]23	
InChI=1S/C6H7NO2/c8-2-6-1-7-4(6)3(9)5(6)7/h4-5,8H,1-2H2	InChI=1S/C6H7NO2/c8-2-6-1-7-4(6)3(9)5(6)7/h4-5,8H,1-2H2/t4-,5+,6+
