14
gdb 49144	4.76091	0.94591	0.84076	3.5123	69.82	-0.2596	-0.0896	0.1701	1285.8932	0.101972	-432.89393	-432.885998	-432.885054	-432.92709	28.097	
O	-0.8994931804	 1.273195569	-0.0804637832	-0.252334
C	 0.2307350396	 0.8683003995	-0.1963445658	 0.117845
C	 1.4092957102	 1.7757574128	-0.1062401363	 0.282069
N	 2.6141546975	 1.3299474713	-0.1455949392	-0.287108
C	 3.4703279274	 2.5338211079	-0.0206729234	-0.11433
C	 2.5149065125	 3.6974371393	 0.4150526622	-0.198286
N	 1.2254057137	 3.1295499286	 0.0179825743	-0.339361
C	 4.5819642163	 2.3267840916	 0.9086793258	 0.289333
N	 5.4579197293	 2.1999365969	 1.6506069442	-0.313972
H	 0.4884895493	-0.1942751733	-0.3566186407	 0.124231
H	 3.8977329537	 2.7459771118	-1.0100647349	 0.147418
H	 2.5708279756	 3.8761643518	 1.4958501355	 0.137557
H	 2.7328282442	 4.6299053517	-0.1088255276	 0.138659
H	 0.357075701	 3.4617702611	 0.4113479291	 0.268279
64.3058	137.865	148.2539	214.5891	236.0943	319.0043	443.0889	511.2262	547.0312	574.9761	627.5366	712.5777	748.2019	863.5244	962.0226	1017.4562	1030.1318	1047.2545	1059.8431	1066.1597	1199.7743	1265.9301	1281.7094	1311.1489	1357.8798	1383.5694	1487.1194	1528.1403	1673.5969	1808.6821	2368.0231	2983.4027	3017.7901	3032.8582	3109.5229	3620.4599
O=CC1=NC(CN1)C#N	O=C[C]1[N][C@@H](CN1)C#N	
InChI=1S/C5H5N3O/c6-1-4-2-7-5(3-9)8-4/h3-4H,2H2,(H,7,8)	InChI=1S/C5H5N3O/c6-1-4-2-7-5(3-9)8-4/h3-4H,2H2,(H,7,8)/t4-/m1/s1
