21
gdb 124485	2.44724	1.25139	1.01589	2.6323	85.24	-0.2231	0.0276	0.2507	1296.1925	0.182827	-383.310267	-383.30037	-383.299426	-383.346631	35.696	
C	-0.0030312997	 1.5978404467	 0.0268140991	-0.376347
C	 0.018959516	 0.0582116316	 0.0557337096	-0.097746
C	 0.8130198445	-0.4547662834	 1.2716014452	-0.376177
C	-1.3727609432	-0.5178573762	 0.0186082532	 0.150785
C	-1.9398737971	-1.3365710731	-0.9464822464	 0.245482
C	-1.4061508965	-1.9097553822	-2.2191516829	-0.507189
N	-3.2103377389	-1.583825246	-0.5252234426	-0.245792
N	-3.519920146	-0.9887259682	 0.6433239341	-0.230924
C	-2.4077381082	-0.3433283603	 0.9731769355	-0.083636
H	 1.0146263797	 2.0029347167	 0.0131152789	 0.106258
H	-0.5327342188	 1.9692867583	-0.8553388737	 0.113838
H	-0.510021287	 1.9982640857	 0.9114898503	 0.116544
H	 0.5465313738	-0.2791290967	-0.8458814413	 0.066599
H	 0.8651378581	-1.5474734057	 1.2775198943	 0.113746
H	 1.8353846755	-0.061504136	 1.264815551	 0.106242
H	 0.3400748738	-0.1399373627	 2.2082181648	 0.116537
H	-1.3727116246	-3.0054169917	-2.1916206631	 0.135555
H	-2.0164340766	-1.6205633577	-3.0827586073	 0.13418
H	-0.3899598061	-1.5546132959	-2.4012290586	 0.143971
H	-3.9082634745	-2.1431396114	-0.9859012158	 0.265132
H	-2.380876954	 0.2305576685	 1.8887099558	 0.102941
20.6263	37.7796	142.9202	178.9189	231.0992	241.6974	253.3194	280.8853	369.8354	424.5967	492.2049	495.6661	606.1795	682.8619	705.7154	722.2845	885.9419	887.8732	926.4755	949.1386	960.6216	998.8624	1059.4848	1073.0674	1124.7806	1128.6417	1146.194	1197.9032	1247.405	1300.3939	1336.3838	1356.1285	1386.3173	1396.9215	1413.726	1420.1803	1451.5597	1482.1909	1485.8879	1488.4052	1489.6036	1501.0771	1507.323	1520.3913	1625.543	3015.3846	3026.8089	3027.5227	3031.8216	3074.6567	3093.7626	3100.3686	3106.8044	3109.1691	3128.4093	3234.3775	3667.6165
CC(C)C1=C(C)NN=C1	CC(C)c1c(C)[nH]nc1	
InChI=1S/C7H12N2/c1-5(2)7-4-8-9-6(7)3/h4-5H,1-3H3,(H,8,9)	InChI=1S/C7H12N2/c1-5(2)7-4-8-9-6(7)3/h4-5H,1-3H3,(H,8,9)
