13
gdb 16120	4.59984	1.74535	1.52506	3.9487	58.54	-0.2575	0.0044	0.2619	810.4483	0.09607	-398.577391	-398.570902	-398.569958	-398.60807	24.138	
N	 0.0347890284	-1.1785205091	-0.3036404504	-0.338152
C	 0.0417830533	-0.0409775961	-0.0963039081	 0.244213
C	 0.073905456	 1.376024928	 0.1125663087	 0.267488
C	 0.2515450037	 2.3633655395	-1.0385036982	-0.381779
C	 1.3128523225	 2.2401717533	 0.0258180833	 0.043799
O	 1.2752840542	 3.0839992482	 1.1373139964	-0.24293
C	-0.0523285863	 3.0572246764	 1.6293706221	 0.003491
O	-0.6346831186	 1.8192517329	 1.2405636607	-0.286857
H	 0.4901646236	 1.9344847802	-2.0052479376	 0.151361
H	-0.4016096917	 3.2279357302	-1.0679226504	 0.144301
H	 2.3039119845	 1.8651941743	-0.1915377637	 0.144625
H	-0.0360019898	 3.1217151658	 2.7203664814	 0.140733
H	-0.6333941497	 3.8911928064	 1.2079014958	 0.109709
140.8566	169.49	225.8904	328.8848	445.5548	501.3966	551.8892	603.3605	729.7066	747.2996	842.2476	862.1013	939.5198	965.227	1015.0261	1028.0614	1072.7408	1081.4921	1153.4808	1166.2548	1220.2399	1229.752	1286.538	1371.2079	1435.4199	1462.5162	1549.6623	2359.5506	2987.4169	3098.3852	3144.7779	3215.0199	3239.0247
N#CC12CC1OCO2	N#C[C@]12C[C@H]1OCO2	
InChI=1S/C5H5NO2/c6-2-5-1-4(5)7-3-8-5/h4H,1,3H2	InChI=1S/C5H5NO2/c6-2-5-1-4(5)7-3-8-5/h4H,1,3H2/t4-,5-/m1/s1
