19
gdb 67879	2.77477	1.97152	1.3354	1.944	79.86	-0.2334	0.0096	0.243	980.4583	0.16038	-385.839448	-385.832338	-385.831393	-385.870391	29.828	
C	-0.0217958537	 1.5449600839	-0.059219796	-0.501913
C	-0.0033386587	 0.0262822575	-0.0268304914	 0.33164
C	 0.3349752794	-0.6069716018	-1.3511265764	-0.118175
C	 0.3904250821	-1.9300886193	-1.4821753608	-0.093242
C	 0.1100512672	-2.7952164603	-0.2866215113	-0.310439
C	-0.2071928081	-1.9449285819	 0.9370419002	-0.01256
C	 0.6136994269	-0.6587297238	 1.2427680963	-0.002178
O	-0.5149959832	-0.1691123114	 2.05727247	-0.318862
C	-1.1177545436	-0.6889069814	 0.8148606293	-0.00218
H	 0.9557597628	 1.9365011132	-0.3634459745	 0.113453
H	-0.7573834383	 1.9066510072	-0.7869304892	 0.113452
H	-0.2715778299	 1.9477851012	 0.9228617544	 0.139548
H	 0.5308671002	 0.0546517282	-2.1904742082	 0.085674
H	 0.6326698976	-2.4034809814	-2.4290383835	 0.09221
H	-0.7267827962	-3.4779598008	-0.4931786953	 0.114827
H	 0.9687377594	-3.4483715514	-0.0741507343	 0.114828
H	-0.4191457165	-2.5273014191	 1.8357399838	 0.081005
H	 1.6198125708	-0.5552270426	 1.6545022366	 0.086457
H	-2.2026382983	-0.6218472562	 0.7098289503	 0.086457
186.0796	229.9251	286.5298	323.5595	338.1042	441.4654	473.2375	551.4389	596.1796	665.77	690.4147	757.2193	799.9715	807.3505	880.5456	883.3548	912.8299	937.416	953.5113	982.9961	992.9974	1046.3048	1059.3593	1097.5722	1139.3094	1145.1185	1156.9454	1174.5745	1209.1737	1238.9548	1249.9206	1257.6736	1297.0756	1343.7733	1378.8393	1399.8633	1419.4225	1469.7801	1491.4027	1502.9698	1715.5763	3002.6849	3023.5073	3030.1071	3083.9284	3092.5101	3093.8918	3105.8304	3145.2235	3155.8225	3180.6709
CC12C=CCC3C1OC23	C[C@@]12C=CC[C@H]3[C@@H]1O[C@@H]23	
InChI=1S/C8H10O/c1-8-4-2-3-5-6(8)9-7(5)8/h2,4-7H,3H2,1H3	InChI=1S/C8H10O/c1-8-4-2-3-5-6(8)9-7(5)8/h2,4-7H,3H2,1H3/t5-,6-,7+,8+
