19
gdb 115519	2.22837	1.46162	1.11513	2.8963	67.37	-0.2536	0.069	0.3226	1152.022	0.159288	-497.290296	-497.281264	-497.28032	-497.324762	32.994	
O	 0.0218137149	 1.0950134236	 0.7670209043	-0.419841
C	-0.0374089186	-0.2918839806	 0.5308724665	-0.059968
C	-1.3642860265	-0.6869887142	-0.1225747674	 0.085171
C	-1.64576766	-2.1931349499	-0.0846790433	-0.131552
O	-2.331024564	-2.3574137638	 1.1525839373	-0.274073
C	-3.1086264228	-1.1911930323	 1.33049752	 0.2129
C	-3.2151578471	-0.9055759365	 2.8243509794	-0.093132
O	-1.9489985597	-0.8497763662	 3.4409447794	-0.416337
O	-2.4459563058	-0.1401458732	 0.6453247581	-0.290817
H	-0.7629047516	 1.3004127837	 1.2904689481	 0.292457
H	 0.7926477102	-0.5432019522	-0.1394089926	 0.103604
H	 0.089641701	-0.8662546153	 1.4618005795	 0.083863
H	-1.4249262897	-0.2673722331	-1.1319954661	 0.093011
H	-2.2778165792	-2.5107823702	-0.9255409079	 0.106896
H	-0.7436733169	-2.8098298214	-0.0606342017	 0.12292
H	-4.1122152867	-1.3224197912	 0.8885450756	 0.071923
H	-3.6925436589	 0.0688107828	 2.9622947074	 0.123508
H	-3.8647952023	-1.6713632938	 3.2765931671	 0.098171
H	-1.5078284763	-1.6774795362	 3.2153837362	 0.291298
50.4387	83.257	145.7414	182.6628	225.9015	284.7811	316.3672	378.7288	434.9832	444.0006	497.0512	657.9124	749.2703	764.8651	821.7473	870.8657	892.681	945.2983	993.6591	1037.9111	1058.0889	1070.7008	1096.169	1106.6015	1142.9481	1167.2298	1216.7175	1227.5795	1257.6502	1302.969	1342.1857	1358.6503	1368.0446	1391.5553	1401.1286	1416.1413	1434.2796	1441.4911	1490.2059	1496.6365	1512.8668	2947.8509	2984.587	2991.5899	3009.6352	3055.7953	3072.5951	3096.7745	3101.7085	3786.1918	3794.6503
OCC1COC(CO)O1	OC[C@H]1CO[C@@H](CO)O1	
InChI=1S/C5H10O4/c6-1-4-3-8-5(2-7)9-4/h4-7H,1-3H2	InChI=1S/C5H10O4/c6-1-4-3-8-5(2-7)9-4/h4-7H,1-3H2/t4-,5+/m0/s1
