25
gdb 86420	2.28434	1.52917	1.08945	0.2271	91.52	-0.2746	0.0764	0.351	1252.861	0.231031	-352.372025	-352.363011	-352.362066	-352.40535	36.084	
C	-0.2845142784	 1.5248628525	 0.0981138589	-0.413626
C	 0.141888641	 0.0622020405	-0.0235827405	 0.034722
C	 1.2323616864	-0.2233610231	-1.074558361	-0.22451
C	 1.6843169379	-1.6618747945	-0.7557435772	 0.03472
C	 2.9704889265	-2.1134867773	-1.4469845012	-0.413625
C	 1.6936854849	-1.7076542346	 0.7890332765	-0.014518
C	 2.8531985477	-0.9698757345	 1.5246679548	-0.226618
C	 1.8659892519	 0.1335157746	 1.9933083389	-0.226616
C	 0.6949228642	-0.5913092244	 1.2631207869	-0.014525
H	 0.5568538244	 2.1723416135	 0.365839175	 0.113915
H	-0.6923843321	 1.8937427251	-0.8492230096	 0.109712
H	-1.0581227384	 1.6517769028	 0.8634753136	 0.109189
H	-0.7441232177	-0.5209010277	-0.3140566479	 0.066643
H	 0.8732524632	-0.1080516521	-2.1026131239	 0.087209
H	 2.0721852957	 0.4752301645	-0.9503502997	 0.089712
H	 0.8761722473	-2.3320213674	-1.0831689971	 0.066643
H	 3.8194984652	-1.4745541629	-1.182875025	 0.113915
H	 3.2303347069	-3.1417524761	-1.1722025519	 0.109189
H	 2.8620529038	-2.0792898827	-2.536456683	 0.109712
H	 1.5135337289	-2.7189466942	 1.1621055615	 0.055294
H	 3.3041259025	-1.5481559268	 2.3348154646	 0.094907
H	 3.6629961737	-0.6161495624	 0.8808843083	 0.094177
H	 1.740884012	 0.198968341	 3.0768893774	 0.094908
H	 2.0938448733	 1.1377092969	 1.6258464214	 0.094176
H	-0.1100841107	-0.9042128909	 1.9327513301	 0.055295
76.2453	148.7559	218.7843	220.8896	245.0742	250.6694	301.0961	361.7475	478.7944	506.1913	530.8581	546.7369	737.4809	738.4175	794.1255	820.5486	876.5534	902.0616	903.7448	941.1512	956.1306	967.5935	999.0988	1001.096	1022.8702	1067.9071	1083.0736	1092.5324	1148.6824	1164.3667	1179.9903	1194.7138	1221.3098	1237.1011	1253.572	1269.9631	1275.7956	1283.0096	1313.6181	1331.1013	1351.1891	1353.429	1376.969	1378.7728	1412.3874	1414.1438	1479.5823	1490.2365	1496.9613	1498.7899	1499.477	1502.8442	1510.9637	2989.1155	2992.7376	3017.2969	3029.8391	3030.7067	3054.6723	3060.5188	3061.1482	3071.473	3076.6716	3091.8888	3092.2378	3093.724	3101.4299	3102.4941	3115.6283
CC1CC(C)C2CCC12	C[C@H]1C[C@@H](C)[C@H]2CC[C@@H]12	
InChI=1S/C9H16/c1-6-5-7(2)9-4-3-8(6)9/h6-9H,3-5H2,1-2H3	InChI=1S/C9H16/c1-6-5-7(2)9-4-3-8(6)9/h6-9H,3-5H2,1-2H3/t6-,7+,8-,9+
