16
gdb 71977	2.83512	1.70896	1.24388	5.0871	74.42	-0.2289	0.012	0.2409	990.9542	0.126126	-396.861675	-396.854239	-396.853295	-396.893291	29.466	
N	-0.1419030432	 1.3858995881	 0.0316657007	-0.598731
C	 0.0161180997	-0.0151071411	-0.0565036286	 0.264362
C	 0.9186165694	-0.9106046518	-0.9218042078	-0.265612
C	 0.0420585638	-2.0735104503	-0.3982887059	-0.057091
N	 0.4609720298	-2.1423256711	 1.0495869475	-0.365104
C	-0.3016297416	-0.8781213961	 1.1980194648	 0.233655
C	-0.6578229499	-0.308314996	 2.4522082174	 0.19204
N	-0.943502038	 0.1248261013	 3.4868020535	-0.355186
C	-1.1060000881	-1.0326907429	-0.0766697774	-0.185006
H	 0.6556237152	 1.8335105318	 0.4712579628	 0.246545
H	-0.2827103625	 1.8057970922	-0.8807476331	 0.238989
H	 0.743701712	-0.7126290796	-1.98319024	 0.103304
H	 1.9882436145	-0.9718426606	-0.7042023546	 0.111114
H	-0.0569348001	-3.0141289505	-0.9325166162	 0.092306
H	-0.0982576813	-2.8704147175	 1.4952472208	 0.227312
H	-2.1641740596	-0.9438525159	-0.2815876539	 0.117103
128.9416	155.2003	235.9737	330.3679	337.7861	430.1128	484.302	515.6771	538.9691	587.2244	675.5951	716.6837	761.1726	787.5025	800.3571	900.5012	916.6522	920.1451	991.3684	1001.0418	1027.5214	1051.4361	1115.0049	1128.6179	1145.6914	1200.0972	1232.0689	1268.9694	1280.6368	1315.876	1375.7746	1419.2913	1489.1601	1657.8294	2348.12	3053.9675	3116.9002	3162.551	3213.4542	3451.9444	3506.2569	3586.0399
NC12CC3NC1(C#N)C23	N[C@@]12C[C@H]3N[C@]1(C#N)[C@@H]23	
InChI=1S/C6H7N3/c7-2-6-4-3(9-6)1-5(4,6)8/h3-4,9H,1,8H2	InChI=1S/C6H7N3/c7-2-6-4-3(9-6)1-5(4,6)8/h3-4,9H,1,8H2/t3-,4-,5-,6-/m1/s1
