19
gdb 101412	2.51795	1.14279	0.97364	1.52	72.07	-0.2579	-0.0387	0.2191	1295.0234	0.156714	-460.156846	-460.14725	-460.146306	-460.191979	34.478	
C	-0.1864972151	 1.4782355145	-0.5881298381	-0.384968
C	-0.0883134588	 0.0453393321	-1.1164990957	-0.214616
C	 1.3366772654	-0.5168341853	-1.0305062312	 0.127851
O	 1.8445962163	-0.4808575456	 0.2964883479	-0.431543
C	 1.4631080585	-1.9548452821	-1.5455531561	-0.025137
O	 0.6770226453	-2.8844797135	-0.746693093	-0.304935
C	-0.0910160375	-3.3629085525	-1.8724730011	-0.187166
C	 0.6810416931	-2.4047609019	-2.7884928513	 0.337383
O	 0.6788115468	-2.1312510789	-3.9488393656	-0.275531
H	 0.168636196	 1.5324733239	 0.4437721636	 0.132198
H	 0.4252206606	 2.1616778135	-1.1872942344	 0.116881
H	-1.2185907144	 1.839012311	-0.619770308	 0.111982
H	-0.7565928698	-0.6129095869	-0.5463295079	 0.101136
H	-0.4202765413	 0.0080668144	-2.1617475571	 0.111299
H	 2.0125768637	 0.1107311262	-1.6246647094	 0.100666
H	 1.3454994891	-1.1383614184	 0.7978183324	 0.292403
H	 2.5219247932	-2.2450583679	-1.5576465223	 0.116421
H	 0.0669216068	-4.4297045301	-2.0734889082	 0.138207
H	-1.1649948181	-3.1620655727	-1.7762373343	 0.137467
56.6072	90.733	109.3007	135.7736	209.658	223.0211	291.0858	317.2945	407.5438	433.0511	474.1722	565.4272	635.7452	714.7627	770.7458	813.8554	857.5611	917.3657	983.5902	996.2481	1005.6549	1051.2424	1081.6294	1086.0916	1118.9519	1134.9494	1149.1816	1233.9915	1262.7242	1279.2177	1294.5512	1327.8238	1345.5414	1394.2153	1405.8755	1420.4298	1477.2858	1489.4118	1495.8449	1509.709	1921.2775	3020.4159	3021.1185	3029.3954	3039.5324	3042.6428	3064.1488	3072.7805	3105.0746	3127.2682	3777.7675
CCC(O)C1OCC1=O	CC[C@@H](O)[C@H]1OCC1=O	
InChI=1S/C6H10O3/c1-2-4(7)6-5(8)3-9-6/h4,6-7H,2-3H2,1H3	InChI=1S/C6H10O3/c1-2-4(7)6-5(8)3-9-6/h4,6-7H,2-3H2,1H3/t4-,6-/m1/s1
