18
gdb 72781	2.36521	1.77862	1.389	2.546	78.54	-0.2308	-0.0209	0.2099	1005.0913	0.147739	-401.92984	-401.921708	-401.920764	-401.962428	31.208	
C	-0.1484117458	 1.5829749417	-0.2156741373	-0.431874
C	 0.0151364775	 0.0816598729	-0.0064459903	 0.202143
N	 1.1750840502	-0.4672446436	-0.8254517694	-0.379508
C	 1.962226772	-0.7032323578	 0.4547277846	-0.249522
C	 0.6777272939	-0.4818520233	 1.2160585578	 0.188714
C	-0.1496461752	-1.0903809419	 2.0671595865	-0.217504
C	-1.5824312573	-0.9172736656	 1.5902133952	-0.355404
C	-1.3614137407	-0.621438159	 0.0751578255	 0.320812
O	-2.0774174718	-0.943187782	-0.8312367252	-0.299332
H	 0.8143876855	 2.0905159381	-0.1118417557	 0.125633
H	-0.5298058925	 1.770765716	-1.2241808002	 0.13864
H	-0.8490202812	 2.0162201612	 0.5062256548	 0.11698
H	 0.9114849913	-1.3618987887	-1.2338346214	 0.230319
H	 2.4335316948	-1.6852963929	 0.5567272403	 0.118111
H	 2.7283071052	 0.0707725453	 0.5627475513	 0.123014
H	 0.1262472093	-1.7784150183	 2.8578184186	 0.103965
H	-2.1971507186	-1.8133335297	 1.7187382966	 0.131462
H	-2.1288154665	-0.0853583925	 2.0549229882	 0.133351
72.7451	192.1412	202.6487	220.5939	246.7254	288.3126	384.8339	480.7005	546.778	610.6162	639.1877	690.8506	774.8189	795.1093	803.1888	875.2685	904.8134	911.598	932.5278	980.0775	1009.235	1021.9266	1089.4343	1110.5397	1147.4507	1174.7874	1211.4777	1219.9447	1253.7541	1283.6354	1328.1417	1346.1607	1403.4775	1458.8247	1484.2366	1486.3323	1503.0866	1714.4279	1857.1149	3019.7486	3034.9043	3045.1893	3088.4393	3092.315	3107.4602	3117.9912	3196.2389	3490.2064
CC12NCC1=CCC2=O	C[C@@]12NC[C]1[CH]CC2=O	
InChI=1S/C7H9NO/c1-7-5(4-8-7)2-3-6(7)9/h2,8H,3-4H2,1H3	InChI=1S/C7H9NO/c1-7-5(4-8-7)2-3-6(7)9/h2,8H,3-4H2,1H3/t7-/m1/s1
