19
gdb 31263	2.07259	1.5752	0.95169	0.3987	80.03	-0.1772	0.051	0.2282	1261.2821	0.159776	-419.214845	-419.205346	-419.204402	-419.249973	34.278	
C	 0.277476187	 0.7135153481	 0.6409609029	-0.322679
N	-0.3667126904	 0.3286145436	-0.6236105246	-0.392707
C	 0.3742772302	-0.5623826445	-1.4216584116	 0.152022
C	 0.6761696504	-1.9069627942	-1.2985784785	 0.307885
O	 0.2341448446	-2.6499354181	-0.2418543849	-0.278026
C	 0.6052553181	-4.0119460872	-0.2529326076	-0.242398
C	 1.4674208969	-2.2932676029	-2.4159383423	-0.290227
C	 1.632398431	-1.1630317752	-3.1934797284	-0.085832
N	 0.9738955448	-0.1334750206	-2.5891464204	-0.258508
H	 0.5159477304	-0.1410347694	 1.2897540177	 0.119942
H	 1.2075283735	 1.246792418	 0.4228873708	 0.121547
H	-0.3837815296	 1.3956701934	 1.18491549	 0.11073
H	-1.2845073478	-0.056418245	-0.4292666284	 0.231973
H	 0.2128832913	-4.5311959124	-1.138229076	 0.116601
H	 1.696964549	-4.1343888839	-0.2298602755	 0.116846
H	 0.1761033826	-4.4612074386	 0.6450216352	 0.125879
H	 1.8730682517	-3.2689114181	-2.6291936112	 0.093579
H	 2.1644085563	-1.0239601851	-4.120252493	 0.115019
H	 0.88237745	 0.8067915121	-2.9324387343	 0.258352
40.8583	69.22	145.223	175.3097	202.1534	224.8135	304.1085	321.4417	409.8381	477.2408	525.2076	613.7446	643.7629	666.2858	694.1822	715.8854	788.7883	800.8687	910.3882	1020.4807	1062.7727	1105.4242	1123.1333	1144.535	1171.2324	1180.7493	1200.9764	1221.0909	1274.3266	1332.2654	1434.2207	1445.6035	1461.8009	1480.1852	1485.234	1486.6104	1495.3301	1509.1619	1518.4106	1529.0526	1642.0471	2993.4314	3000.7885	3046.8606	3074.2022	3107.4195	3123.9999	3254.2655	3273.4473	3522.6281	3682.5471
CNC1=C(OC)C=CN1	CNc1c(OC)cc[nH]1	
InChI=1S/C6H10N2O/c1-7-6-5(9-2)3-4-8-6/h3-4,7-8H,1-2H3	InChI=1S/C6H10N2O/c1-7-6-5(9-2)3-4-8-6/h3-4,7-8H,1-2H3
