18
gdb 103023	2.32667	1.67767	1.15424	5.098	76.05	-0.2623	0.0206	0.2828	1096.1455	0.146954	-401.889693	-401.881329	-401.880385	-401.92275	31.658	
C	 0.8416892512	-0.4791165298	 1.3287399193	-0.388671
C	 0.0992606704	-0.035189607	 0.0625229235	-0.288502
C	-1.3271661692	-0.5939235004	-0.023062187	 0.176431
C	-2.1539449312	-0.0441779225	 1.0526853241	 0.264055
N	-2.7301560387	 0.4401187977	 1.9300551197	-0.345527
C	-2.0977292989	-0.7388699396	-1.3845426796	 0.005314
C	-1.1875419419	-1.9200830007	-1.7960835274	-0.246262
C	-1.6306400351	-2.1070221781	-0.3267511008	 0.022439
O	-2.996366927	-1.7126094298	-0.730856762	-0.291744
H	 1.8390826202	-0.0323864944	 1.364083807	 0.123739
H	 0.3028179064	-0.1742167436	 2.2302953494	 0.150385
H	 0.9616645903	-1.5672794802	 1.3584534394	 0.119317
H	 0.0349038638	 1.0585775928	 0.0364844872	 0.124581
H	 0.6669398171	-0.3317117412	-0.8225849338	 0.109844
H	-2.5532661303	 0.0466625772	-1.9866159707	 0.114382
H	-1.6614354408	-2.6161906417	-2.4871036134	 0.125095
H	-0.1377091388	-1.7449000757	-2.0307584573	 0.110058
H	-1.5281079275	-2.9631727328	 0.3389107422	 0.115065
75.836	149.3603	163.2708	196.8797	223.2111	333.7487	386.0837	478.6581	506.238	542.9165	636.164	650.9012	762.1598	782.6078	810.9435	884.2279	907.4857	921.5372	971.1676	983.8319	1037.3195	1045.3728	1090.6057	1120.1427	1135.1787	1169.9785	1193.635	1205.9039	1211.0537	1262.5979	1275.1131	1326.9048	1360.22	1416.9207	1478.2237	1497.2005	1503.3081	1510.8259	2353.2381	3040.3683	3048.8474	3087.064	3099.2482	3111.6503	3124.2247	3129.6932	3135.0018	3168.2363
CCC1(C#N)C2CC1O2	CC[C@@]1(C#N)[C@H]2C[C@@H]1O2	
InChI=1S/C7H9NO/c1-2-7(4-8)5-3-6(7)9-5/h5-6H,2-3H2,1H3	InChI=1S/C7H9NO/c1-2-7(4-8)5-3-6(7)9-5/h5-6H,2-3H2,1H3/t5-,6+,7-
