14
gdb 15509	3.80522	1.94284	1.31519	6.3979	60.74	-0.2554	-0.0073	0.2481	877.0883	0.108874	-415.900054	-415.892848	-415.891904	-415.932153	25.005	
N	 0.0750290788	 1.2773141534	-0.1568525261	-0.409619
C	-0.0199480476	 0.0171042315	-0.0804920468	 0.082075
N	-1.2243835035	-0.6743060887	 0.0075587572	-0.15284
C	-1.2643842822	-2.1231347746	 0.143039873	-0.199022
C	-2.7606905823	-2.3916585065	-0.0727381291	-0.092921
O	-3.400524587	-1.1505519711	 0.2300656558	-0.241823
C	-2.5038035096	-0.1173365173	 0.1604589083	 0.50893
O	-2.8184483419	 1.0281442494	 0.2371099576	-0.343651
H	 1.0560123737	 1.5439514646	-0.2210351486	 0.231715
H	 0.8227364447	-0.6864122054	-0.0859107596	 0.09461
H	-0.6420040441	-2.6192964081	-0.6064226406	 0.132027
H	-0.9304603462	-2.4408077673	 1.1392260678	 0.128392
H	-2.9789499556	-2.6618569749	-1.1120701431	 0.127695
H	-3.1595251571	-3.1623186951	 0.5886632941	 0.134432
75.0706	137.4797	173.4613	197.38	224.7428	480.5646	501.1749	694.6498	716.3381	760.4457	781.9153	816.5259	890.6339	983.8069	1062.1093	1069.4669	1091.9992	1141.9778	1165.7986	1228.181	1245.4125	1262.818	1331.1027	1401.7397	1427.1074	1436.2067	1520.4862	1531.1648	1729.3303	1910.4677	3016.2403	3030.1651	3042.9223	3086.7694	3120.6571	3503.8088
N=CN1CCOC1=O	[NH][CH]N1CCOC1=O	
InChI=1S/C4H6N2O2/c5-3-6-1-2-8-4(6)7/h3,5H,1-2H2	InChI=1S/C4H6N2O2/c5-3-6-1-2-8-4(6)7/h3,5H,1-2H2
