19
gdb 38333	3.8869	1.47951	1.23677	1.3357	82.71	-0.2227	0.0133	0.236	1043.4606	0.161176	-385.841351	-385.834382	-385.833438	-385.872708	28.657	
C	-0.0640407501	 1.5839352047	 0.0076040026	-0.233547
C	 1.4589640572	 1.2487412481	-0.0506013397	-0.110117
C	 1.2075157474	 0.3053275251	 1.1605875377	-0.238004
C	 0.0230040836	 0.0363680274	 0.1885648542	-0.110116
C	 1.074120129	 0.0420930753	-0.974675251	 0.512592
O	 0.575673615	 0.377864559	-2.2652005921	-0.338872
C	 1.1276092287	-0.4722846265	-3.2613685553	-0.135912
C	 2.037468312	-1.4024341562	-2.5135675339	-0.113026
C	 2.0029065243	-1.1062129644	-1.2192559704	-0.185917
H	-0.3915864636	 2.1452845078	 0.886586459	 0.084961
H	-0.5249253671	 1.9491578365	-0.9081865288	 0.117529
H	 2.2895357377	 1.9422599439	-0.1914686845	 0.068866
H	 1.9192862942	-0.5010078555	 1.3466310109	 0.089149
H	 0.9379642001	 0.808272027	 2.0917031756	 0.094464
H	-0.8005552155	-0.6666854405	 0.3232014999	 0.068866
H	 0.3207901288	-1.0046946374	-3.7895596309	 0.106185
H	 1.6633175129	 0.1288208575	-4.0130962605	 0.106184
H	 2.6167509969	-2.1826040713	-2.9905089976	 0.106545
H	 2.5552953685	-1.6060407404	-0.4363400552	 0.11017
88.9911	190.429	265.2628	334.1664	449.3812	483.3863	530.1636	590.3532	716.56	785.4274	795.2316	809.3745	833.8551	896.6736	900.848	921.9328	952.7825	954.2597	977.8823	1015.0044	1019.5161	1043.4138	1056.735	1073.8006	1086.5326	1114.1776	1126.9095	1163.5981	1181.1576	1192.7283	1198.0159	1199.9292	1235.5108	1248.0335	1277.9113	1369.5599	1383.1701	1500.0564	1519.3523	1537.6058	1687.5561	2973.655	2989.5461	3066.7448	3067.8158	3098.2068	3105.7951	3127.8714	3159.0351	3212.4023	3239.9137
C1C2CC1C21OCC=C1	C1[C@H]2C[C@@H]1[C@]12OCC=C1	
InChI=1S/C8H10O/c1-2-8(9-3-1)6-4-7(8)5-6/h1-2,6-7H,3-5H2	InChI=1S/C8H10O/c1-2-8(9-3-1)6-4-7(8)5-6/h1-2,6-7H,3-5H2/t6-,7+,8-
