20
gdb 14728	7.15137	0.54834	0.53206	1.2291	81.85	-0.2402	0.0381	0.2782	2114.5684	0.174667	-348.976625	-348.966159	-348.965214	-349.014362	35.315	
C	-0.031646341	 1.5601222164	 0.2758840604	-0.385439
C	-0.0280273479	 0.0543089657	-0.0003045797	-0.161104
C	-1.4309151823	-0.5595849826	 0.0158592461	-0.150681
C	-1.419568314	-2.0759318644	-0.2630987484	-0.357927
C	-2.7467643218	-2.6796556881	-0.2472161895	 0.019894
C	-3.8532466086	-3.1534858553	-0.2209847103	 0.147548
C	-5.1896285069	-3.7330814655	-0.2166182645	-0.216192
O	-5.5201152038	-4.1732188443	 1.0968255704	-0.410062
H	 0.9822862945	 1.9717068858	 0.2586298931	 0.112207
H	-0.6226954886	 2.098373753	-0.4733545072	 0.115068
H	-0.4644894159	 1.781016193	 1.257791811	 0.116289
H	 0.441883071	-0.1393345972	-0.9739762817	 0.09477
H	 0.5988185626	-0.4540598733	 0.7445405804	 0.096167
H	-1.906131016	-0.3808629314	 0.9878098935	 0.108503
H	-2.0636468786	-0.0646426902	-0.730888214	 0.103789
H	-0.9448414057	-2.2638952112	-1.2358617092	 0.124918
H	-0.785096046	-2.5778637479	 0.4799562769	 0.129136
H	-5.9113113213	-2.9803023099	-0.5747770357	 0.112508
H	-5.2230418175	-4.5694255601	-0.9343796051	 0.11305
H	-6.4055963823	-4.5488731924	 1.0570634235	 0.287559
13.1262	66.6901	74.8634	114.3835	146.4718	208.0133	237.9554	245.7574	296.6067	343.531	375.3003	496.2283	559.307	733.822	774.7629	789.8628	906.8305	931.5454	1003.1245	1028.7589	1045.6873	1061.5981	1121.2978	1129.0653	1154.1082	1240.7934	1247.1906	1257.0495	1277.9018	1312.0457	1328.0099	1359.6314	1394.533	1413.7018	1459.8691	1469.9097	1485.7654	1497.6393	1499.8227	1504.2785	1511.8824	2372.0006	2958.2751	2974.9288	3008.2343	3011.2765	3028.6749	3032.9766	3034.8374	3038.7747	3075.801	3097.2845	3102.0344	3816.2186
CCCCC#CCO	CCCCC#CCO	
InChI=1S/C7H12O/c1-2-3-4-5-6-7-8/h8H,2-4,7H2,1H3	InChI=1S/C7H12O/c1-2-3-4-5-6-7-8/h8H,2-4,7H2,1H3
