21
gdb 76918	2.54151	1.23084	1.12469	0.9566	78.95	-0.2419	0.0778	0.3197	1218.6318	0.180148	-424.187988	-424.178146	-424.177202	-424.22215	37.017	
C	-0.3671384519	 1.3591173726	 0.4738631906	-0.428611
C	-0.002988611	-0.0830591484	 0.1833017496	-0.093579
C	 0.496070939	-0.6186991568	-1.1570253505	-0.100619
C	 0.7335232374	 0.1713051591	-2.4051095336	 0.054415
C	-0.249494377	 1.1056882351	-2.9749789201	-0.178
O	 0.9328935177	 1.5874491106	-2.3304472636	-0.229326
C	 1.4181256431	-0.5904881085	 0.0341421775	 0.369055
C	 2.6102459709	 0.3379232453	 0.1020305995	-0.465175
O	 1.6795201399	-1.87774211	 0.5480006634	-0.465817
H	 0.2443390434	 2.0632340097	-0.0896573592	 0.148204
H	-1.4149999109	 1.5529157928	 0.2169935431	 0.111472
H	-0.2533864732	 1.5742300192	 1.5426920979	 0.108386
H	-0.639616223	-0.8026908424	 0.6933507607	 0.085787
H	 0.1425716308	-1.621031201	-1.3889872878	 0.099723
H	 1.4104346295	-0.3157438864	-3.1105165502	 0.097908
H	-0.2885791198	 1.2669852827	-4.0511139181	 0.115133
H	-1.1778821279	 1.2907785153	-2.4381970072	 0.117189
H	 2.4211394563	 1.2895023392	-0.3960390391	 0.1516
H	 2.8754370085	 0.5459647955	 1.146578597	 0.102723
H	 3.4757149847	-0.1349074551	-0.373119758	 0.123267
H	 1.8543200137	-1.7848659485	 1.4915533582	 0.276267
88.5582	150.5716	157.329	207.599	211.6141	239.0608	256.3546	300.3855	317.3674	335.1198	419.1167	466.9928	532.9207	649.0928	715.6692	745.4973	801.8645	873.701	894.3526	941.2219	987.8504	1008.6542	1030.11	1054.4822	1092.9113	1096.208	1124.1127	1139.2	1159.122	1173.9014	1179.534	1233.2159	1282.4324	1302.3325	1347.8323	1363.3331	1412.9296	1422.2329	1436.0299	1459.9283	1487.9001	1496.1143	1508.2638	1519.9044	1528.9637	3024.329	3029.5752	3076.6965	3081.5056	3088.1025	3090.5084	3124.4046	3137.8648	3146.7745	3156.8369	3179.8514	3787.3348
CC1C(C2CO2)C1(C)O	C[C@H]1[C@@H]([C@H]2CO2)[C@]1(C)O	
InChI=1S/C7H12O2/c1-4-6(5-3-9-5)7(4,2)8/h4-6,8H,3H2,1-2H3	InChI=1S/C7H12O2/c1-4-6(5-3-9-5)7(4,2)8/h4-6,8H,3H2,1-2H3/t4-,5+,6-,7+/m0/s1
