16
gdb 96796	2.94068	1.43281	1.03823	2.7336	73.56	-0.2624	-0.0201	0.2424	1133.9087	0.124709	-437.926032	-437.918182	-437.917237	-437.958778	29.058	
C	-0.025398856	 1.4348572202	-0.0452385983	-0.339837
N	-0.0012411116	-0.0184364627	-0.0486283127	-0.321641
C	-1.0664999146	-0.6767307111	-0.072837869	 0.449714
O	-2.3514285087	-0.1193490774	-0.0918399452	-0.240263
C	-3.3157514229	-1.082620973	 0.1809180002	 0.438861
O	-4.445573731	-0.7861649682	 0.4175313619	-0.322356
C	-2.6710092639	-2.4271082855	 0.125170607	-0.187871
C	-1.9961726268	-2.7357369983	-1.1948047078	-0.290992
C	-1.1920189742	-2.15796715	-0.0590409784	-0.136397
H	 0.5953155127	 1.7927530084	 0.78268671	 0.133059
H	 0.4397282304	 1.7971230558	-0.9689432736	 0.134617
H	-1.0265426085	 1.8694889942	 0.0403955516	 0.135388
H	-3.0867611133	-3.2193920379	 0.73131115	 0.132002
H	-1.8415880196	-3.785996138	-1.4118554868	 0.139863
H	-2.2171725728	-2.1179908167	-2.057942981	 0.145778
H	-0.4098732893	-2.7364863398	 0.4113431422	 0.130075
96.71	119.6001	164.7833	210.2989	252.1633	355.2424	447.62	488.3853	614.1166	635.9663	727.3964	767.105	800.5708	849.6868	853.3068	934.3882	938.8766	963.0018	1039.9299	1048.5326	1079.9307	1096.9973	1124.6803	1136.0111	1162.2615	1189.7881	1271.296	1327.5288	1354.6998	1439.3958	1487.816	1493.265	1496.7197	1816.4913	1912.297	3025.6578	3087.303	3102.8314	3143.5656	3221.4815	3225.544	3237.6285
CN=C1OC(=O)C2CC12	CN=C1OC(=O)[C@H]2C[C@@H]12	
InChI=1S/C6H7NO2/c1-7-5-3-2-4(3)6(8)9-5/h3-4H,2H2,1H3	InChI=1S/C6H7NO2/c1-7-5-3-2-4(3)6(8)9-5/h3-4H,2H2,1H3/t3-,4+/m1/s1
