17
gdb 24639	4.46607	1.12438	0.9668	3.0158	81.63	-0.2462	-0.0371	0.2091	1212.0973	0.139142	-380.910218	-380.90297	-380.902026	-380.942487	27.673	
C	-0.1336031588	 1.4382603119	-0.1988159375	-0.26709
C	 1.2739859665	 0.9964001021	 0.0657395106	-0.267083
C	 0.155407268	-0.0295427527	 0.0578095304	-0.10307
C	-0.2893301861	-0.7014055425	 1.3020683701	 0.261879
C	-0.3332599101	-0.0888410523	 2.5584495613	-0.064995
N	-0.7373513903	-0.7143116955	 3.6637854673	-0.249297
C	-1.108829402	-1.9869439471	 3.5147439602	 0.071752
N	-1.1151474407	-2.6868256719	 2.3806381306	-0.247502
C	-0.7059721855	-2.0350149747	 1.2922282562	-0.057948
H	-0.6565739749	 1.9855860987	 0.5780887004	 0.124579
H	-0.4072366551	 1.7264632664	-1.2075109557	 0.123029
H	 1.9769975846	 0.9780290924	-0.7593900009	 0.123029
H	 1.7189535287	 1.2398622211	 1.024580107	 0.12458
H	 0.117199842	-0.6740013058	-0.8152939842	 0.090304
H	-0.03102787	 0.9495140511	 2.6840980988	 0.109415
H	-1.439834521	-2.5057466297	 4.4108865059	 0.117855
H	-0.7075724652	-2.5985874115	 0.3599402695	 0.110562
59.994	151.4462	181.2157	312.2281	375.4962	419.388	538.9902	566.4502	642.2661	755.917	772.2859	806.1887	825.4672	891.8762	924.3709	950.8331	995.1577	1010.9903	1051.957	1059.8292	1069.302	1081.4573	1131.4809	1146.2717	1202.019	1202.0514	1227.1542	1240.9495	1272.892	1372.0629	1405.1814	1462.0851	1467.5425	1472.4601	1506.6698	1592.3655	1624.498	3134.2807	3134.3065	3136.5593	3139.9181	3150.8664	3168.7588	3213.9033	3229.0046
C1CC1C1=CN=CN=C1	C1CC1c1cncnc1	
InChI=1S/C7H8N2/c1-2-6(1)7-3-8-5-9-4-7/h3-6H,1-2H2	InChI=1S/C7H8N2/c1-2-6(1)7-3-8-5-9-4-7/h3-6H,1-2H2
