14
gdb 25973	4.94693	1.04816	1.00365	1.7217	63.82	-0.2455	-0.0105	0.235	1189.5866	0.100098	-473.881928	-473.87387	-473.872926	-473.9161	27.82	
C	-0.2129691396	 1.4338726033	-0.1040150528	-0.486005
C	 0.2411729703	 0.0044069898	-0.0348267405	 0.416066
O	 1.1824052628	-0.4411894889	 0.5464938126	-0.301853
O	-0.6286572805	-0.7915137934	-0.7778495166	-0.277191
C	-0.3678528276	-2.1142446864	-0.8152139331	 0.511112
N	-1.0012557103	-3.0504050167	-0.2005916554	-0.331239
C	-0.3796231217	-4.2112584334	-0.657052399	-0.101989
C	 0.5989358005	-3.8829729221	-1.5295213126	-0.032571
O	 0.613459611	-2.514733474	-1.6458435271	-0.167337
H	 0.4675246671	 2.0579559445	 0.4730422952	 0.158158
H	-0.2390610762	 1.7653108785	-1.1457822057	 0.162263
H	-1.2294816371	 1.5176836569	 0.2903533328	 0.166112
H	-0.6880721284	-5.1870666464	-0.3184710304	 0.131982
H	 1.3232764697	-4.4215296615	-2.1146643976	 0.152492
46.6249	71.8962	104.4831	115.5339	324.0869	347.2035	460.8557	589.8115	599.1574	631.3973	689.5982	748.3238	806.1269	864.7453	890.7227	931.2264	982.5964	1023.1875	1063.9336	1100.8982	1140.65	1174.3875	1202.077	1275.5798	1391.3879	1399.2164	1467.291	1472.7485	1563.0641	1637.511	1880.907	3060.9413	3126.9193	3176.105	3269.7458	3306.8789
CC(=O)OC1=NC=CO1	CC(=O)Oc1ncco1	
InChI=1S/C5H5NO3/c1-4(7)9-5-6-2-3-8-5/h2-3H,1H3	InChI=1S/C5H5NO3/c1-4(7)9-5-6-2-3-8-5/h2-3H,1H3
