12
gdb 123529	4.26321	1.85089	1.29058	2.0187	67.84	-0.2759	-0.0787	0.1972	860.4168	0.082975	-427.901859	-427.896421	-427.895477	-427.931721	21.044	
C	 0.07427341	 1.2842259821	 0.0088957298	 0.053232
N	 1.3046111718	 1.7962471782	-0.000361629	-0.262022
N	 2.0535594947	 0.6692197863	-0.0142021972	-0.014962
C	 3.3959854267	 0.530936341	-0.0282773523	 0.117201
N	 3.9393654334	-0.6544179393	-0.040414155	-0.259025
C	 3.0839224277	-1.7178857447	-0.0380112447	 0.058632
N	 1.7701615577	-1.6899664873	-0.0248465969	-0.311169
C	 1.2259232594	-0.4629661122	-0.0124635337	 0.502162
N	-0.0367166608	-0.066427807	 0.0022958755	-0.347176
H	-0.7871702905	 1.9365973319	 0.0211511843	 0.147685
H	 3.9894861183	 1.4399325349	-0.028973587	 0.171714
H	 3.5570865314	-2.6952481739	-0.0482614737	 0.143727
216.7433	247.4437	426.2328	469.204	595.4351	618.9168	671.2207	674.3604	807.1778	823.9968	925.6234	951.3059	952.2565	955.67	1007.348	1113.9837	1198.5329	1203.9248	1252.1917	1299.2191	1336.7695	1401.5275	1422.9265	1459.8559	1522.7912	1565.6165	1658.1779	3188.041	3197.9675	3257.5191
C1=NN2C=NC=NC2=N1	c1nn2cncnc2n1	
InChI=1S/C4H3N5/c1-5-3-9-4(6-1)7-2-8-9/h1-3H	InChI=1S/C4H3N5/c1-5-3-9-4(6-1)7-2-8-9/h1-3H
