20
gdb 19733	3.67864	2.34326	2.14117	0.1051	76.79	-0.2757	0.0906	0.3663	765.3252	0.182465	-311.875543	-311.869826	-311.868881	-311.904878	25.292	
C	-0.0398711929	 1.5694729877	 0.0464007353	-0.235815
C	 1.5063334679	 1.418770812	 0.0098838482	-0.027147
C	 1.766069124	 0.7900166642	 1.3934292054	-0.216593
C	 0.8115991198	-0.4392889584	 1.2541876017	-0.004181
C	 1.6385685344	-1.6212996406	 0.7163724865	-0.207891
C	 2.1664474305	-1.0761802683	-0.6456825872	-0.245998
C	 1.2724387902	 0.1475458145	-0.8900051688	 0.01916
C	 0.0017264298	 0.0263667161	 0.0069676979	-0.022093
H	-0.4855087431	 2.0672018518	 0.9136563747	 0.082705
H	-0.4483311797	 1.992417668	-0.8752319079	 0.091238
H	 2.1581080908	 2.2351683326	-0.305682832	 0.052338
H	 2.8060615884	 0.4917911252	 1.5586945749	 0.087636
H	 1.4806777888	 1.4686324198	 2.2029869799	 0.089695
H	 0.2272545624	-0.6673185831	 2.1476631329	 0.053024
H	 2.4389792339	-1.9186976471	 1.4010596308	 0.090114
H	 1.0002037818	-2.4983908361	 0.5585677821	 0.090231
H	 3.2266823642	-0.8050029206	-0.6001451915	 0.096923
H	 2.0636516714	-1.8146613692	-1.4464291158	 0.09406
H	 1.083920669	 0.402702476	-1.9341629848	 0.059621
H	-0.8592656418	-0.5812133642	-0.2769397221	 0.052975
239.0897	349.7988	376.1795	458.6656	562.0321	679.2449	705.4584	786.9015	804.2741	835.6611	840.7209	875.0597	889.0019	913.3419	938.9262	961.1403	965.3945	989.3378	1009.9461	1025.1596	1064.1328	1077.2313	1091.8123	1097.0488	1134.8348	1168.4677	1197.6717	1208.4043	1229.8602	1247.8551	1256.6078	1273.526	1286.6824	1301.9037	1314.9221	1325.0081	1340.9454	1361.0645	1486.7306	1494.864	1505.2531	1519.6064	3032.5621	3042.697	3044.4716	3046.2736	3071.9062	3081.4542	3088.9179	3090.6633	3094.5843	3097.5204	3102.2719	3109.9089
C1C2CC3CCC2C13	C1[C@H]2C[C@@H]3CC[C@H]2[C@H]13	
InChI=1S/C8H12/c1-2-7-6-3-5(1)8(7)4-6/h5-8H,1-4H2	InChI=1S/C8H12/c1-2-7-6-3-5(1)8(7)4-6/h5-8H,1-4H2/t5-,6+,7+,8+/m0/s1
