18
gdb 67484	2.56061	1.63374	1.23117	1.5103	83.03	-0.217	0.0245	0.2415	1066.7789	0.14576	-364.685941	-364.677676	-364.676732	-364.718217	32.83	
C	 0.019471176	 1.4512422169	 0.0638090253	-0.481202
C	-0.0518045709	-0.0382244953	-0.1108225322	 0.307434
C	-1.4111311823	-0.7614323348	-0.012663208	-0.134028
C	-1.3544241209	-2.227286131	-0.341720089	-0.314541
C	-0.7263237511	-1.7289654846	 0.9266733958	 0.004786
N	 0.5953173814	-0.9872943607	 0.8632553822	-0.206842
C	 1.1288745631	-0.8493501482	-0.5328088136	-0.237571
C	 1.2824288495	-1.8600495353	-1.5424404106	 0.304094
C	 1.5594015234	-2.647037092	-2.4104273791	-0.410054
H	 1.0417043039	 1.7743056143	 0.2781414154	 0.129226
H	-0.3234524715	 1.9633831731	-0.842829015	 0.126288
H	-0.6197470148	 1.7702080904	 0.8944991433	 0.128119
H	-2.3354042785	-0.2139016945	 0.1157376966	 0.094432
H	-2.2966955188	-2.736891839	-0.1563388377	 0.113906
H	-0.7959022241	-2.6223084267	-1.1762237829	 0.147198
H	-1.0132923256	-2.0837781268	 1.9077578206	 0.105599
H	 2.0457170808	-0.2639316303	-0.4548799824	 0.125909
H	 1.7645702405	-3.3571292455	-3.1729582786	 0.197247
119.2309	178.2693	192.9395	213.52	304.0618	360.5342	371.6558	429.3687	544.4316	590.9865	614.9504	630.8283	648.8361	704.4518	724.1492	763.4444	851.3248	872.5827	932.7608	957.4419	965.8885	1005.6224	1047.1958	1056.8751	1073.9012	1082.1548	1096.1039	1126.8301	1184.868	1226.2373	1296.1101	1324.4084	1341.3769	1409.2299	1437.1921	1479.6102	1488.0745	1492.3908	2221.7283	3028.0928	3090.6287	3098.5958	3116.5481	3136.1764	3192.0129	3203.0228	3253.1212	3501.4128
CC12C3CC3N1C2C#C	C[C@]12[C@H]3C[C@H]3N1[C@H]2C#C	
InChI=1S/C8H9N/c1-3-7-8(2)5-4-6(5)9(7)8/h1,5-7H,4H2,2H3	InChI=1S/C8H9N/c1-3-7-8(2)5-4-6(5)9(7)8/h1,5-7H,4H2,2H3/t5-,6+,7-,8+,9?/m0/s1
