16
gdb 46266	3.06974	1.51073	1.24337	2.6487	69.83	-0.2327	-0.0312	0.2014	1015.9127	0.123714	-437.824295	-437.816825	-437.815881	-437.856553	28.456	
O	-0.1096198511	 0.0324645987	-0.421653443	-0.266962
C	-0.0692844442	 1.1894509772	-0.1406087677	 0.275791
C	-1.0702149304	 2.2419449886	 0.3590538863	-0.197714
O	 0.0000535059	 3.2112551173	 0.3976065947	-0.333074
C	 0.9968481125	 2.2904731309	-0.0963450919	 0.362569
C	 2.335093762	 2.2460464904	 0.7125460649	-0.297644
C	 3.0670601148	 2.7156496792	-0.5519150155	-0.040524
N	 2.7903357394	 1.685856452	-1.5763264161	-0.318688
C	 1.7947017789	 2.7567642998	-1.3230685923	-0.142336
H	-1.8657477901	 2.5095937707	-0.347290798	 0.131852
H	-1.5061968968	 2.0487426122	 1.3466484092	 0.133633
H	 2.2899086327	 3.0036532436	 1.4976462077	 0.127511
H	 2.6434143952	 1.2804151443	 1.1186755259	 0.122463
H	 3.9411718914	 3.3505647057	-0.6169265949	 0.102479
H	 3.2918453594	 1.94812844	-2.4249153042	 0.23584
H	 1.4457936504	 3.4196024894	-2.1046094552	 0.104805
98.3014	112.8137	153.8534	317.545	345.6031	430.7865	439.6543	537.4879	606.6295	721.3177	756.8231	824.876	834.0719	860.6521	901.8929	925.4882	962.4859	988.1953	1009.165	1020.782	1060.9742	1074.6013	1110.1491	1134.8213	1139.1326	1174.9873	1189.9482	1245.5173	1293.2146	1300.0541	1317.8356	1370.9829	1455.5328	1484.3989	1924.0022	3022.2543	3071.5338	3072.5247	3139.8618	3193.7634	3207.0367	3472.8227
O=C1COC11CC2NC12	O=C1CO[C@]21C[C@H]1N[C@@H]21	
InChI=1S/C6H7NO2/c8-4-2-9-6(4)1-3-5(6)7-3/h3,5,7H,1-2H2	InChI=1S/C6H7NO2/c8-4-2-9-6(4)1-3-5(6)7-3/h3,5,7H,1-2H2/t3-,5-,6+/m1/s1
