18
gdb 27763	2.2688	1.80228	1.03433	1.3958	82.48	-0.153	0.0483	0.2013	1140.6168	0.150114	-398.11603	-398.107495	-398.106551	-398.1489	32.481	
N	 0.0137769901	 1.4645870367	-0.0548932101	-0.602333
C	-0.0302239797	 0.0620363478	-0.0634562496	 0.272602
C	-1.0960584837	-0.8231888304	-0.0674899009	-0.279581
C	-0.5857442515	-2.16394737	-0.2212919347	 0.150567
N	-1.3747243386	-3.3102921159	-0.4358242984	-0.609059
C	 0.7811354379	-2.0463292545	-0.1913392548	 0.144386
C	 2.1296263045	-2.3987850264	-0.8028461753	-0.345098
C	 2.3750295407	-0.8498615738	-0.8315261728	-0.169931
N	 1.1086011177	-0.6869054512	-0.0740655536	-0.053538
H	 0.6214374671	 1.8293221376	 0.6705744101	 0.243634
H	-0.9094596346	 1.862048887	 0.0627340253	 0.244498
H	-2.1326873243	-0.5565215011	 0.0883488857	 0.069
H	-2.2646373413	-3.2585041164	 0.0441142444	 0.236612
H	-0.9038286296	-4.1576502675	-0.1462419206	 0.237265
H	 2.8270808842	-2.9586772885	-0.1713431642	 0.106171
H	 2.0994039909	-2.8643768032	-1.7915285403	 0.117179
H	 3.2576839373	-0.4701700264	-0.3098467798	 0.110519
H	 2.324468663	-0.4178202837	-1.8349651606	 0.127107
116.024	170.9973	178.9387	201.0392	234.593	259.2917	283.5192	405.0654	592.072	600.2836	639.7277	648.3524	667.4723	726.1528	737.2226	777.0261	799.3255	803.1098	921.2994	941.1669	1031.3109	1060.8325	1100.7838	1135.2659	1177.025	1196.0741	1201.0194	1229.6179	1243.6916	1272.7377	1326.2371	1407.8038	1479.392	1495.902	1516.7435	1570.6557	1641.202	1651.9467	1666.6485	3040.5177	3051.9425	3087.3908	3108.2436	3217.6359	3513.9569	3531.4393	3614.4731	3619.1802
NC1=CC(N)=C2CCN12	NC1=C[C](N)[C]2CCN12	
InChI=1S/C6H9N3/c7-4-3-6(8)9-2-1-5(4)9/h3H,1-2,7-8H2	InChI=1S/C6H9N3/c7-4-3-6(8)9-2-1-5(4)9/h3H,1-2,7-8H2
