23
gdb 110823	3.19182	1.06091	0.95924	1.7963	85.66	-0.2462	0.0782	0.3245	1350.9474	0.204886	-388.25857	-388.248871	-388.247927	-388.292666	37.573	
C	 0.8238314663	 0.695870998	-1.7476180744	-0.454344
C	 1.2390362562	-0.6634443518	-1.1836846845	 0.334707
C	 0.3466856702	-1.7593532587	-1.7791859663	-0.427241
C	 2.7508178327	-1.0888603345	-1.2671343674	-0.296921
C	 2.7448182764	-1.3825746833	 0.2415724517	-0.082391
C	 2.4466128024	-0.1493331967	 1.0554781003	-0.03843
C	 3.045723719	 1.221408845	 0.8241565211	-0.100905
O	 4.2763651421	 1.3627876722	 1.5252108848	-0.420991
C	 1.3102572349	-0.8429478426	 0.3490108487	-0.112931
H	 1.4354823385	 1.5176786945	-1.3699228109	 0.118077
H	 0.9005689596	 0.7003550645	-2.8414870564	 0.110664
H	-0.2192907764	 0.9155816903	-1.4917619222	 0.112561
H	 0.4411344399	-1.7892820983	-2.8705357394	 0.109642
H	 0.6138122835	-2.7462738141	-1.3874946177	 0.112345
H	-0.707736549	-1.578834606	-1.5389676012	 0.109781
H	 2.898048753	-1.9796516533	-1.8820599423	 0.100154
H	 3.4560759527	-0.3235393425	-1.6076929896	 0.091493
H	 3.1610841913	-2.2756023253	 0.6928624464	 0.083468
H	 2.4229848408	-0.3708348493	 2.1224218761	 0.093592
H	 3.1836437427	 1.433075815	-0.2435380981	 0.089311
H	 2.3872118005	 1.9987253705	 1.2269341569	 0.110248
H	 4.8501968642	 0.6460843784	 1.2341352225	 0.280608
H	 0.4866215586	-1.247672672	 0.9293235016	 0.077504
69.8887	142.1152	175.9193	188.9578	237.431	262.083	285.0636	331.9129	358.7253	369.1196	416.9991	497.1663	596.736	619.7819	741.4257	779.5228	837.2488	850.1629	910.6698	942.0609	956.9465	963.8097	1002.8938	1006.6671	1012.1028	1027.0035	1047.1428	1074.8526	1086.1536	1146.3737	1189.5367	1214.5754	1229.7742	1232.7652	1247.0318	1273.3164	1306.7501	1343.9286	1367.5645	1400.5018	1412.1303	1420.2716	1456.6922	1481.0934	1485.0749	1488.6285	1501.2031	1507.711	1516.8969	3019.6553	3021.5134	3027.7676	3043.1266	3069.0399	3081.5575	3088.1985	3095.6781	3101.605	3114.9568	3124.3949	3151.6833	3176.4813	3806.3401
CC1(C)CC2C(CO)C12	CC1(C)C[C@H]2[C@@H](CO)[C@@H]12	
InChI=1S/C8H14O/c1-8(2)3-5-6(4-9)7(5)8/h5-7,9H,3-4H2,1-2H3	InChI=1S/C8H14O/c1-8(2)3-5-6(4-9)7(5)8/h5-7,9H,3-4H2,1-2H3/t5-,6+,7-/m0/s1
