13
gdb 129416	5.17309	1.02898	0.85959	0.6896	63.95	-0.2415	-0.079	0.1624	1223.4928	0.089878	-482.196008	-482.188198	-482.187254	-482.229081	28.419	
N	 1.2835732122	-0.4858776852	-0.1627967328	-0.526596
C	 0.0590352615	 0.1003072443	-0.002912235	 0.446754
N	-0.0677081809	 1.3630372647	 0.1271293038	-0.556086
N	-1.0402791598	-0.7918479784	-0.0495302174	-0.443698
C	-1.052561168	-2.1490131183	-0.0950656073	 0.564725
N	-0.0379818791	-2.974352536	-0.0749119072	-0.205827
O	-0.6305960398	-4.2113114442	-0.134773936	-0.147612
N	-1.9901295192	-4.0577798267	-0.1834537883	 0.063568
N	-2.2625670387	-2.8295243432	-0.1606213841	-0.235018
H	 2.0560466013	 0.1311533869	 0.0275793698	 0.270368
H	 1.4094731458	-1.4652708032	 0.0391565078	 0.28419
H	-1.0397069367	 1.6557474669	 0.1750319913	 0.20858
H	-1.9536213687	-0.3670646575	-0.0192827847	 0.27665
68.0711	72.5709	184.0138	326.4714	357.7572	371.5492	419.4337	445.1264	522.1305	585.2014	640.7921	712.5241	755.0936	772.0068	800.8997	838.3304	932.8112	977.9568	1062.1946	1108.7986	1132.1929	1160.798	1262.1519	1423.9604	1446.4625	1553.2769	1634.2495	1659.0041	1759.2958	3526.867	3582.6302	3646.5949	3710.4692
NC(=N)NC1=NON=N1	NC(=N)Nc1nonn1	
InChI=1S/C2H4N6O/c3-1(4)5-2-6-8-9-7-2/h(H4,3,4,5,7)	InChI=1S/C2H4N6O/c3-1(4)5-2-6-8-9-7-2/h(H4,3,4,5,7)
