18
gdb 31538	3.36903	1.07261	0.82285	1.483	77.67	-0.1518	0.0569	0.2087	1373.8884	0.148122	-435.275296	-435.265671	-435.264727	-435.30937	35.715	
C	 0.034635455	 1.3877665843	-0.0918745557	-0.318355
N	 0.0458652412	-0.0659201608	-0.0459456812	-0.388991
C	 0.6126913588	-0.6394798847	 1.0981069639	 0.362285
C	 1.2133711361	-0.0807246921	 2.2018221647	-0.305281
C	 1.730722363	-1.1604276041	 3.0003163028	 0.182317
N	 2.3331916762	-1.043956102	 4.271180353	-0.618859
C	 1.4184847907	-2.322386432	 2.3556025228	 0.218602
O	 1.7016932328	-3.6219757352	 2.6783973632	-0.4444
N	 0.6895237974	-2.0104839081	 1.2016381859	-0.384343
H	 1.0649855646	 1.756066465	-0.0740671156	 0.135774
H	-0.4279801406	 1.7116250166	-1.0275419337	 0.118862
H	-0.5053993585	 1.8562576526	 0.7468322118	 0.110562
H	-0.8712222192	-0.4497416043	-0.24309513	 0.229331
H	 1.245436508	 0.9673234765	 2.4538250861	 0.082106
H	 2.9837004098	-0.267172498	 4.3035332356	 0.236143
H	 2.8429626561	-1.8903071382	 4.4999975839	 0.237195
H	 1.0002866649	-3.9724942841	 3.2419483048	 0.296252
H	 0.6647701037	-2.6204559914	 0.4008921275	 0.250799
75.0205	172.1068	179.8447	189.1325	234.1154	252.3201	269.6011	305.9065	318.5092	370.5293	431.8058	531.3327	580.9497	638.2705	655.7212	664.0087	716.3512	749.6641	817.6756	846.4234	1005.1373	1066.5092	1089.0193	1153.345	1163.8959	1205.4174	1212.6609	1246.5999	1274.9326	1340.4336	1429.8647	1452.3694	1477.4219	1484.4709	1502.3092	1523.7775	1610.6707	1646.1718	1701.311	2972.6216	3072.2876	3118.4071	3253.5366	3508.4186	3527.7275	3595.1085	3655.1408	3729.3548
CNC1=CC(N)=C(O)N1	CNc1cc(N)c(O)[nH]1	
InChI=1S/C5H9N3O/c1-7-4-2-3(6)5(9)8-4/h2,7-9H,6H2,1H3	InChI=1S/C5H9N3O/c1-7-4-2-3(6)5(9)8-4/h2,7-9H,6H2,1H3
