18
gdb 39257	2.91252	1.8657	1.32373	2.3092	77.73	-0.2215	0.0088	0.2303	969.9069	0.150479	-401.932861	-401.925955	-401.925011	-401.964209	27.912	
C	-0.064516354	 1.4532644379	 0.3792565802	-0.077649
O	 0.8684804092	 2.0660486837	-0.5197981549	-0.280207
C	 1.8501924661	 1.1062767072	-0.908626894	 0.090703
C	 2.1893012776	 1.1580166772	-2.4169055623	-0.304769
C	 1.9154761338	-0.2519011298	-2.900220944	-0.079748
C	 1.3788417514	-1.0295179667	-1.9546304086	-0.202749
C	 1.2077469568	-0.2660171166	-0.7040733169	 0.33597
N	 1.1676829862	-0.724141197	 0.6940736932	-0.397842
C	-0.0137902745	-0.0426986754	 0.108998749	-0.131627
H	 0.2051825286	 1.6698201762	 1.4227030041	 0.104026
H	-1.0535136924	 1.8754951393	 0.1738748908	 0.105817
H	 2.7462218927	 1.2177296494	-0.2836748438	 0.080758
H	 1.5372774756	 1.8878326659	-2.9122125213	 0.126149
H	 3.2212175728	 1.4710363851	-2.6091637563	 0.10944
H	 2.1087254199	-0.5626817942	-3.9210490732	 0.099255
H	 1.073721775	-2.0628983337	-2.0742192973	 0.096192
H	 0.9933947918	-1.7284934739	 0.7228000503	 0.228342
H	-0.9275758165	-0.6049367346	-0.0500383852	 0.097937
93.0085	174.7333	265.2713	380.7396	414.615	475.1342	541.0911	611.6798	674.4767	744.98	770.6333	808.653	843.8277	873.4061	924.6254	941.1665	943.516	964.3985	998.6463	1024.8298	1029.1322	1053.284	1074.7255	1089.5386	1122.7816	1178.9168	1183.9667	1237.3843	1265.1988	1285.0972	1295.292	1341.4937	1352.8477	1365.3237	1385.2328	1452.043	1472.4761	1504.502	1663.077	3002.7032	3013.2203	3036.8949	3072.0103	3074.0941	3171.914	3184.5858	3208.2447	3467.2165
C1OC2CC=CC22NC12	C1O[C@@H]2CC=C[C@]32N[C@@H]13	
InChI=1S/C7H9NO/c1-2-6-7(3-1)5(8-7)4-9-6/h1,3,5-6,8H,2,4H2	InChI=1S/C7H9NO/c1-2-6-7(3-1)5(8-7)4-9-6/h1,3,5-6,8H,2,4H2/t5-,6+,7-/m0/s1
