16
gdb 42467	4.3444	0.74322	0.65033	3.658	74.21	-0.2553	-0.0437	0.2116	1630.2557	0.124043	-434.050808	-434.041686	-434.040741	-434.086494	31.632	
N	 0.0692942221	 1.2845630157	 0.5084804724	-0.524579
C	-0.0571988136	 0.0913208387	 0.0606888899	 0.307897
N	-1.2684593725	-0.5051539106	-0.1355227111	-0.323332
C	-2.5153700953	 0.2251150103	 0.0213103843	-0.17265
C	-3.6242945119	-0.7424994153	 0.3448783058	 0.0716
C	-4.9452082508	-0.6382214407	-0.2825826619	-0.174089
O	-4.0021349255	-1.6149853911	-0.7283935192	-0.240526
C	 1.0767370005	-0.7652997369	-0.2583749112	 0.226594
N	 2.0043202288	-1.4087672697	-0.5082676865	-0.318527
H	 1.0477742556	 1.5271766002	 0.6375287885	 0.241769
H	-1.3005522171	-1.3473422025	-0.6886607639	 0.274371
H	-2.3788096864	 0.9499088115	 0.8279374648	 0.155303
H	-2.7618639213	 0.7879058016	-0.8896081305	 0.118563
H	-3.5432311592	-1.2410124797	 1.311072767	 0.108964
H	-5.8176363365	-1.0329875625	 0.2346754726	 0.125847
H	-5.145262767	 0.171814951	-0.982310561	 0.122795
36.7601	51.913	88.2779	156.7734	224.0055	258.3092	340.6097	380.2903	461.516	464.4572	538.1698	616.8657	724.3663	790.2435	819.3358	866.7786	892.7085	950.7135	991.4622	1072.5382	1107.7591	1139.1906	1157.5611	1170.5543	1177.0072	1257.4693	1293.3836	1311.5227	1369.3711	1454.4574	1492.4717	1528.7387	1547.2168	1685.0603	2349.0394	3014.9868	3090.4529	3105.1133	3117.6936	3179.1599	3537.4887	3636.7797
N=C(NCC1CO1)C#N	N=C(NC[C@H]1CO1)C#N	
InChI=1S/C5H7N3O/c6-1-5(7)8-2-4-3-9-4/h4H,2-3H2,(H2,7,8)	InChI=1S/C5H7N3O/c6-1-5(7)8-2-4-3-9-4/h4H,2-3H2,(H2,7,8)/t4-/m0/s1
