22
gdb 89740	2.43394	1.44048	1.23333	2.2452	82.64	-0.2084	0.0769	0.2853	1161.8291	0.191344	-404.306956	-404.297128	-404.296184	-404.340878	37.332	
C	-0.0847937091	 1.5208016461	-0.058659151	-0.330966
N	-0.0265585331	 0.0886048845	 0.1169948597	-0.100334
C	-1.2646512972	-0.6460410878	 0.4284632773	-0.25805
C	-0.4448399253	-1.537929007	 1.3561202391	 0.413327
C	-0.8299856468	-2.4724126627	 2.4078582776	-0.271397
O	-0.2930755533	-2.9299165179	 1.1550329484	-0.270052
C	 0.7274396586	-0.5392250327	 1.2515363075	 0.210849
C	 2.0661014611	-1.1264479788	 0.8201789915	-0.414011
C	 0.8655018321	 0.331729597	 2.5067521701	-0.438088
H	 0.9248251044	 1.9243773493	-0.1884041398	 0.120584
H	-0.6478035464	 1.7501088151	-0.9703411621	 0.121703
H	-0.5668506867	 2.0634028919	 0.77559136	 0.090297
H	-2.0256431617	-0.0510168215	 0.9620340171	 0.085491
H	-1.7371819094	-1.140421157	-0.4278848786	 0.111913
H	-0.1832655041	-2.6200759476	 3.2721762367	 0.114187
H	-1.8825427129	-2.6994455232	 2.574873605	 0.11461
H	 1.9379729727	-1.7650987264	-0.055646491	 0.129612
H	 2.7696000417	-0.3254739869	 0.5670426085	 0.108778
H	 2.5099629181	-1.7233662575	 1.6239871369	 0.111351
H	 1.2933211601	-0.252649484	 3.3276140065	 0.117417
H	 1.5311912363	 1.1822921411	 2.3256542623	 0.117455
H	-0.1006131194	 0.7218291658	 2.8419416484	 0.115324
82.8847	170.797	186.2951	215.3265	222.3853	237.7041	257.8004	277.0598	329.0366	363.852	395.2108	475.2957	523.666	540.5401	665.7678	734.1981	836.5516	876.4815	934.7248	945.9815	970.6079	973.1706	996.7619	1057.8878	1119.0431	1130.8367	1140.4982	1161.3044	1167.9654	1175.938	1205.7028	1213.7545	1252.5656	1294.133	1321.0581	1395.4679	1411.3209	1449.2722	1452.3498	1475.4854	1479.016	1485.1623	1496.1315	1503.2019	1505.2561	1512.1835	1544.9897	2931.6909	2954.6002	3030.6803	3036.019	3051.3261	3051.8769	3077.7946	3093.0827	3095.72	3102.9193	3105.6959	3134.3542	3161.9714
CN1CC2(CO2)C1(C)C	CN1C[C@]2(CO2)C1(C)C	
InChI=1S/C7H13NO/c1-6(2)7(5-9-7)4-8(6)3/h4-5H2,1-3H3	InChI=1S/C7H13NO/c1-6(2)7(5-9-7)4-8(6)3/h4-5H2,1-3H3/t7-/m0/s1
