16
gdb 15126	8.63887	0.70358	0.67497	4.0336	76.72	-0.2626	-0.0571	0.2054	1609.6568	0.128815	-346.568804	-346.560147	-346.559203	-346.604071	29.378	
O	-0.0421229504	-0.0040450441	 0.2593371207	-0.231056
C	 0.040740423	 1.2015349026	 0.1937201931	 0.019964
C	 1.266871592	 1.9300246558	 0.0042709872	 0.017903
C	 2.2796297508	 2.5706316345	-0.1506150999	 0.117928
C	 3.4985458445	 3.3458826751	-0.3439695303	-0.386123
C	 3.2981388592	 4.8465002481	-0.1895054105	 0.03852
C	 3.3516738086	 5.4791046174	 1.1754083215	-0.248723
C	 4.4672887247	 5.7182519045	 0.1866268033	-0.277395
H	-0.8586887684	 1.8456399135	 0.2792296058	 0.095879
H	 4.25740613	 2.9983471383	 0.3699532319	 0.139735
H	 3.9020945414	 3.1185412171	-1.3404248281	 0.145823
H	 2.5822769906	 5.2669894505	-0.8891903029	 0.097814
H	 2.6695277724	 6.2930059226	 1.3927394203	 0.118488
H	 3.5568519879	 4.8349620699	 2.02423788	 0.117888
H	 5.4217200635	 5.2362287534	 0.3730550935	 0.114763
H	 4.54934267	 6.6949976408	-0.2765278955	 0.118591
23.3783	59.9726	80.2418	174.7507	185.0256	311.2732	340.8882	404.0254	483.7188	603.0142	767.9751	796.5531	828.1314	846.2437	888.6027	954.8509	997.2313	1022.6412	1060.5708	1083.0834	1134.9853	1144.3182	1156.214	1197.6759	1228.0614	1260.5665	1318.0926	1409.0258	1423.4475	1452.0291	1472.8746	1507.7981	1766.713	2329.3716	2912.6883	3012.8904	3044.0815	3131.7717	3136.7552	3155.6617	3210.6229	3225.6062
O=CC#CCC1CC1	O=CC#CCC1CC1	
InChI=1S/C7H8O/c8-6-2-1-3-7-4-5-7/h6-7H,3-5H2	InChI=1S/C7H8O/c8-6-2-1-3-7-4-5-7/h6-7H,3-5H2
