17
gdb 79905	2.55197	1.51929	1.29689	3.3288	75.36	-0.2395	-0.0547	0.1848	1048.449	0.13549	-421.845115	-421.836863	-421.835918	-421.877944	31.247	
C	 0.0644569876	 1.490583449	 0.0753413611	-0.491534
C	 0.0202059622	 0.0001052734	-0.0091359641	 0.150383
C	 0.0074475074	-0.8032570561	-1.0886594039	-0.179379
C	 0.0068528914	-2.2539054913	-0.7379852983	-0.156208
C	 1.2496591869	-2.7367425175	-0.0159844439	 0.132896
O	 2.4705715857	-2.089802552	-0.0291200899	-0.40884
C	 0.0222796255	-2.290254798	 0.7833913495	-0.235388
C	-0.0249298511	-0.8494882291	 1.2271556856	 0.359741
O	-0.0933230139	-0.4391609187	 2.3637255065	-0.331925
H	 0.9255588944	 1.8235248263	 0.6652987874	 0.142967
H	 0.1147496645	 1.9535750353	-0.9131828403	 0.122781
H	-0.8227542912	 1.8678875418	 0.5952006687	 0.148924
H	 0.0500017518	-0.4627404114	-2.1181651905	 0.116061
H	-0.5662731632	-2.951832788	-1.3380477351	 0.103732
H	 1.4139077213	-3.8098758567	-0.0164970475	 0.124738
H	 2.3184594181	-1.1491141859	-0.1852310492	 0.28792
H	-0.4997399974	-3.030374101	 1.3764266138	 0.113133
99.9754	122.1209	138.0638	251.121	280.9696	335.8871	359.164	460.3931	509.4585	571.5051	623.7376	680.1688	744.2427	769.7338	817.7473	837.5657	901.4248	917.1162	948.7738	991.9528	1020.9258	1065.7975	1075.764	1101.3203	1112.7639	1188.6394	1218.034	1301.531	1316.0966	1320.8795	1345.502	1414.9757	1448.0599	1472.384	1484.3504	1676.9093	1803.8172	3037.0986	3090.2812	3123.0862	3165.0355	3172.9751	3187.4354	3200.5017	3768.0442
CC1=CC2C(O)C2C1=O	CC1=C[C@H]2[C@@H](O)[C@H]2C1=O	
InChI=1S/C7H8O2/c1-3-2-4-5(6(3)8)7(4)9/h2,4-5,7,9H,1H3	InChI=1S/C7H8O2/c1-3-2-4-5(6(3)8)7(4)9/h2,4-5,7,9H,1H3/t4-,5-,7-/m1/s1
