16
gdb 55845	5.10738	0.82666	0.76781	4.0803	66.2	-0.2461	-0.0249	0.2211	1428.8011	0.122478	-475.074137	-475.065257	-475.064313	-475.108982	31.994	
N	 0.1305771532	 1.2740891709	-0.0560446305	-0.563914
C	 0.1127423142	-0.0751330663	 0.1420580627	 0.495259
O	 0.9937421172	-0.72454765	 0.6537611212	-0.397244
O	-1.0701563502	-0.5899502511	-0.2945027295	-0.269915
C	-1.2172909652	-1.9939246846	-0.1030996845	 0.146759
C	-1.6236874554	-2.4606031713	 1.3232154036	-0.357643
C	-2.8071489509	-3.1976837316	 0.6752215187	 0.39211
O	-3.5813552263	-4.0265691836	 1.0526411381	-0.282756
C	-2.5537134587	-2.5161192792	-0.6832151172	-0.380008
H	 1.0191724997	 1.731108728	 0.0529870344	 0.272145
H	-0.5480824925	 1.6894156405	-0.6708666372	 0.267013
H	-0.3318014507	-2.5088332921	-0.4765621894	 0.114488
H	-0.9084388236	-3.060226001	 1.8886392879	 0.144964
H	-1.9608574549	-1.6253614139	 1.9464665485	 0.14102
H	-3.2629642169	-1.7006984842	-0.860306363	 0.142667
H	-2.5208435892	-3.1596019805	-1.5647904039	 0.135053
45.8801	52.3924	102.3343	184.7422	319.0039	322.6685	351.5572	419.6412	475.1001	490.5056	523.2398	613.9361	650.343	707.0583	783.1178	785.6697	906.9596	925.1711	973.3226	1004.7214	1063.2734	1101.6202	1115.2972	1132.183	1179.888	1204.9959	1240.0497	1266.281	1344.0581	1407.1761	1416.8611	1443.0105	1611.3449	1835.7309	1900.6695	3059.9984	3064.8279	3108.4628	3127.8982	3134.7577	3617.604	3748.1322
NC(=O)OC1CC(=O)C1	NC(=O)OC1CC(=O)C1	
InChI=1S/C5H7NO3/c6-5(8)9-4-1-3(7)2-4/h4H,1-2H2,(H2,6,8)	InChI=1S/C5H7NO3/c6-5(8)9-4-1-3(7)2-4/h4H,1-2H2,(H2,6,8)
