21
gdb 82070	2.48672	1.40567	1.18434	2.6033	82.45	-0.2298	-0.0109	0.2189	1173.7214	0.181365	-387.084366	-387.075102	-387.074158	-387.118713	34.833	
C	-0.3822714412	 1.6116307797	-0.4744928686	-0.406621
C	-0.0789831931	 0.1479895284	-0.1805146073	 0.004222
C	 0.7583241858	-0.6643923457	-1.1799746982	-0.055422
C	 2.1985253758	-0.2339561904	-1.1824133088	-0.281517
C	 1.704641321	-1.1161142426	-0.0703477093	-0.066572
C	 0.913667217	-0.2873330689	 0.9738250243	-0.128072
C	 1.7493823169	 0.7255251252	 1.7323192947	 0.390967
C	 2.1665280114	 0.3250058498	 3.1376657604	-0.480504
O	 2.1055246603	 1.7780859207	 1.2449712778	-0.315332
H	 0.5233776201	 2.1885172639	-0.6622898659	 0.1431
H	-1.0351361969	 1.6837508884	-1.3521627899	 0.104544
H	-0.903039938	 2.0823549289	 0.3664873176	 0.108448
H	-1.0215856012	-0.3778005437	 0.0046205295	 0.075819
H	 0.3441178652	-1.2557939806	-1.9880877529	 0.082591
H	 2.8225033056	-0.7373968258	-1.9141355637	 0.108897
H	 2.4804949754	 0.7936771129	-0.9797189102	 0.140312
H	 2.1172695714	-2.0991239128	 0.121187704	 0.087095
H	 0.4080733558	-0.9457424823	 1.6853285086	 0.073032
H	 1.2829872079	 0.2609234906	 3.7840356913	 0.138565
H	 2.6269747129	-0.6696501507	 3.133911259	 0.137463
H	 2.864440298	 1.057279685	 3.5453404577	 0.138986
39.9339	135.2331	153.9763	171.6474	213.2049	235.2497	286.4579	368.4965	393.0306	503.3417	596.3807	612.9692	669.164	766.5978	782.9708	792.1757	882.9841	915.1032	936.5888	954.2227	987.7769	1005.9553	1030.0987	1051.6063	1065.5237	1098.0199	1101.8939	1104.9236	1140.0622	1177.1597	1191.7842	1222.6995	1270.7805	1286.8134	1359.584	1370.9374	1372.9321	1385.3997	1413.9295	1462.0433	1475.862	1483.6903	1489.5553	1499.3831	1792.8186	3031.0593	3031.5851	3042.0818	3069.0128	3089.3197	3091.3924	3130.4057	3149.9595	3150.279	3173.2615	3184.659	3216.105
CC1C2CC2C1C(C)=O	C[C@H]1[C@H]2C[C@H]2[C@H]1C(=O)C	
InChI=1S/C8H12O/c1-4-6-3-7(6)8(4)5(2)9/h4,6-8H,3H2,1-2H3	InChI=1S/C8H12O/c1-4-6-3-7(6)8(4)5(2)9/h4,6-8H,3H2,1-2H3/t4-,6+,7+,8+/m0/s1
