14
gdb 66893	2.71482	2.13048	1.48443	1.9711	66.41	-0.2454	-0.0337	0.2116	857.09	0.101908	-432.808409	-432.8017	-432.800756	-432.839268	26.681	
O	 0.0322062475	 1.3848194428	-0.1188970967	-0.447667
C	 0.0542477133	 0.0286822534	 0.0057684221	 0.342375
C	-0.1713124802	-0.8596537087	-1.2325079795	-0.066548
N	 0.6753910793	-2.0369685427	-1.4110329031	-0.178516
C	 0.6333364738	-2.629728168	-0.2896070915	 0.006577
N	-0.1660895953	-1.9847270899	 0.7515772878	-0.220698
C	-1.0529885987	-1.0641280157	-0.0530289029	-0.128811
C	 0.6326154511	-0.7634786339	 1.1026806774	 0.313971
N	 1.3345334985	-0.4626670972	 2.0985763952	-0.561609
H	 0.0719391981	 1.7616059156	 0.7696868687	 0.308916
H	-0.5020371616	-0.3307174178	-2.1174535174	 0.128303
H	 1.1855431467	-3.5291787639	-0.044236566	 0.139485
H	-2.1263773896	-1.0353488023	 0.0756805647	 0.128048
H	 1.4316458571	-1.2501642117	 2.741215951	 0.236176
142.1296	221.9384	271.184	351.9206	406.3295	455.693	499.6981	661.6368	688.545	717.4613	758.7772	804.1993	838.9397	861.2001	886.0525	910.0194	932.9194	956.5844	979.3206	1005.901	1017.5865	1035.4066	1131.4323	1203.2723	1212.0395	1281.6893	1314.157	1367.8662	1447.6808	1662.5966	1808.4544	3207.8065	3215.5293	3220.6032	3478.5631	3777.3371
OC12C3N=CN(C13)C2=N	O[C@]12[C@H]3[N][CH]N([C@@H]13)[C]2[NH]	
InChI=1S/C5H5N3O/c6-4-5(9)2-3(5)8(4)1-7-2/h1-3,6,9H	InChI=1S/C5H5N3O/c6-4-5(9)2-3(5)8(4)1-7-2/h1-3,6,9H/t2-,3+,5+/m0/s1
