19
gdb 67815	2.87512	1.82425	1.5759	1.3379	78.38	-0.2211	0.0219	0.243	926.6528	0.162291	-385.90454	-385.897781	-385.896837	-385.934976	29.48	
O	-0.0733993093	 1.3520643567	-0.0564153866	-0.489249
C	 0.032671413	-0.0434510364	-0.0487481487	 0.380708
C	 1.109573647	-0.660553797	-0.8565926474	-0.12829
C	 1.1641913256	-1.9961704611	-0.8848377959	-0.096753
C	 0.1013957424	-2.7068173688	-0.0842052937	-0.096007
C	-1.2862447252	-2.172932696	-0.5569723082	-0.225529
C	-1.3022290675	-0.7701225136	 0.0207816454	-0.081997
C	-0.39473886	-0.7720912063	 1.2325389652	-0.123166
C	 0.1661327783	-2.1739423701	 1.3801840506	-0.224699
H	 0.6531780026	 1.7064191799	 0.4676449754	 0.280156
H	 1.7903875937	-0.0092196832	-1.3950932155	 0.088847
H	 1.908711678	-2.5476867124	-1.447671401	 0.086776
H	 0.1838188895	-3.7927040176	-0.1457435901	 0.063749
H	-1.3870434964	-2.2025943584	-1.6461616617	 0.100434
H	-2.095634536	-2.7680647524	-0.1188156698	 0.096963
H	-2.1893323742	-0.1505906824	-0.0248550603	 0.093255
H	-0.6050938296	-0.1541022332	 2.0975864447	 0.082426
H	-0.4787272265	-2.7720890886	 2.0344880947	 0.097069
H	 1.1842751843	-2.2039468793	 1.7811513027	 0.095305
251.3102	303.3256	354.9424	369.2326	374.2553	403.6338	482.6461	569.5223	613.6559	690.8277	713.4449	730.4021	815.5481	845.9708	860.1879	878.0604	903.4115	937.6892	949.1512	972.2412	992.525	1024.96	1030.4872	1050.6603	1083.1435	1129.8815	1167.5673	1171.5712	1189.8945	1198.0686	1255.1225	1276.4994	1285.5233	1316.115	1338.8726	1353.6704	1397.7411	1417.495	1480.3132	1495.2502	1675.597	3034.1938	3038.9139	3080.6796	3086.7248	3101.3327	3174.1336	3181.0511	3195.1399	3198.6277	3796.182
OC12C=CC3CC1C2C3	O[C@]12C=C[C@@H]3C[C@H]1[C@H]2C3	
InChI=1S/C8H10O/c9-8-2-1-5-3-6(8)7(8)4-5/h1-2,5-7,9H,3-4H2	InChI=1S/C8H10O/c9-8-2-1-5-3-6(8)7(8)4-5/h1-2,5-7,9H,3-4H2/t5-,6+,7-,8-
