21
gdb 64263	2.60846	1.60979	1.56754	1.1617	77.29	-0.2317	0.0845	0.3162	1011.3634	0.18276	-424.217928	-424.20969	-424.208746	-424.249974	33.274	
C	-0.1107750883	 1.5817491854	 0.1037797751	-0.422876
C	 0.0052153153	 0.0540891844	 0.043804912	 0.368604
C	-1.3701764698	-0.6007583665	-0.0797622126	-0.420473
O	 0.7260899615	-0.3394692813	-1.1476934552	-0.315987
C	 2.142965206	-0.4242880757	-1.0251802222	-0.080383
C	 2.528832066	-0.8835468927	 0.3741292024	 0.07606
C	 1.4515540933	-1.8326285093	 0.9353455477	-0.254295
C	 0.7731308477	-0.4863204298	 1.2637618567	 0.057088
O	 2.0824490138	 0.1549566266	 1.2963861513	-0.302011
H	 0.8745972244	 2.0373759983	 0.214084398	 0.133821
H	-0.577974844	 1.952526464	-0.8125947386	 0.116722
H	-0.725598766	 1.892811271	 0.9552797796	 0.10742
H	-1.8416054901	-0.2929741035	-1.0170947666	 0.127792
H	-1.2912318091	-1.691249368	-0.083514382	 0.116615
H	-2.0195600406	-0.2989687728	 0.7478398708	 0.112349
H	 2.4739500227	-1.1390277229	-1.7880623077	 0.103715
H	 2.6234902686	 0.5453830016	-1.2249725933	 0.100817
H	 3.5918508971	-1.1155417328	 0.48013353	 0.078212
H	 0.9546383565	-2.517372231	 0.2474563819	 0.11304
H	 1.7880911068	-2.3501917191	 1.834007677	 0.108679
H	 0.222330998	-0.3593691959	 2.1998454858	 0.075092
144.7189	195.7762	217.6256	235.3187	323.0977	333.8568	377.4292	387.4768	436.3568	498.1182	540.0052	634.0281	726.5488	828.3178	856.4202	881.223	892.8514	927.6466	932.1971	950.0369	972.0003	1001.0664	1013.8676	1048.5039	1078.7321	1096.8627	1133.5636	1194.5473	1208.2258	1226.0581	1240.9154	1257.1518	1262.6747	1326.2312	1330.546	1359.0602	1392.0904	1392.9289	1414.3221	1474.8836	1480.5541	1482.8512	1492.1829	1496.8636	1511.3437	2991.8638	3039.3533	3045.2565	3057.136	3072.7398	3079.1266	3090.9562	3108.2472	3117.8454	3120.7966	3141.2024	3150.8963
CC1(C)OCC2CC1O2	CC1(C)OC[C@@H]2C[C@H]1O2	
InChI=1S/C7H12O2/c1-7(2)6-3-5(9-6)4-8-7/h5-6H,3-4H2,1-2H3	InChI=1S/C7H12O2/c1-7(2)6-3-5(9-6)4-8-7/h5-6H,3-4H2,1-2H3/t5-,6+/m0/s1
