18
gdb 120133	3.97836	0.92689	0.90357	2.2511	73.54	-0.2404	-0.029	0.2114	1330.9467	0.146881	-439.042858	-439.034394	-439.03345	-439.076913	31.591	
O	 0.393026127	 1.0203534973	-0.9220314942	-0.419198
C	-0.0387241156	-0.1576652206	-0.2768484247	-0.045408
C	-1.4086183476	 0.0283422438	 0.3751230995	-0.165843
N	-2.3502321223	 0.4439314981	-0.6704531526	-0.091643
C	-3.2843967372	-0.430615951	-1.3265743155	-0.041094
C	-3.8614853621	-1.498406623	-0.3808340032	-0.380208
C	-4.3610686726	-0.3204615379	 0.502770596	 0.409826
O	-5.0891937693	-0.2567150454	 1.4490854057	-0.298464
C	-3.7617947116	 0.7168347235	-0.4326237802	-0.178884
H	-0.3758045867	 1.3422207436	-1.4103588462	 0.286094
H	-0.0836278938	-1.0097137667	-0.9771678888	 0.083797
H	 0.7039537909	-0.4032910681	 0.4895733812	 0.109921
H	-1.7009210409	-0.8860740448	 0.9082089723	 0.101431
H	-1.3569468566	 0.8444247465	 1.102646656	 0.126136
H	-3.3084262145	-0.4617506137	-2.4093770883	 0.116425
H	-4.7240371346	-2.0262790154	-0.7989285318	 0.139933
H	-3.1736698184	-2.2298156101	 0.0495367759	 0.130453
H	-4.1550408841	 1.7000138939	-0.6670769612	 0.116725
42.5577	88.4288	129.0207	212.6774	267.1126	374.0724	444.1011	464.2407	484.3928	515.0164	622.5432	667.211	701.5745	840.1211	855.4852	876.5085	900.4391	945.6178	977.8021	999.036	1003.527	1050.2749	1086.7792	1096.0047	1126.8873	1139.1117	1197.8731	1224.108	1241.4258	1266.7903	1282.2606	1352.2054	1382.5649	1387.0101	1440.9382	1453.0823	1488.2319	1508.6763	1889.0339	2956.7107	3017.4327	3064.4263	3072.655	3088.6847	3115.694	3177.2601	3190.7823	3764.8687
OCCN1C2CC(=O)C12	OCCN1[C@H]2CC(=O)[C@@H]12	
InChI=1S/C6H9NO2/c8-2-1-7-4-3-5(9)6(4)7/h4,6,8H,1-3H2	InChI=1S/C6H9NO2/c8-2-1-7-4-3-5(9)6(4)7/h4,6,8H,1-3H2/t4-,6-,7?/m0/s1
