19
gdb 89013	2.99676	1.12702	1.00414	3.0803	71.84	-0.232	0.0018	0.2338	1260.3308	0.157931	-460.18034	-460.170944	-460.17	-460.21548	34.155	
C	 0.0293040836	 0.7969558775	-0.6225913404	-0.478302
C	-0.234586127	-0.6499382375	-0.2878231841	 0.438974
O	 0.2547214755	-1.5889464959	-0.8818951452	-0.373743
O	-1.0723151519	-0.7593652868	 0.7483710005	-0.223843
C	-1.3382576124	-2.0960752726	 1.2555518456	-0.122084
C	-2.50101454	-2.8105764034	 0.6018146488	-0.073081
C	-2.8185823109	-2.6788094521	-0.8845994601	-0.338881
C	-2.192357584	-3.938775578	-0.3756883477	 0.143738
O	-0.875821199	-4.267113459	-0.669164138	-0.431265
H	 0.5231642794	 1.2871717151	 0.2214178693	 0.155154
H	 0.6603928976	 0.8579951457	-1.5079947829	 0.151258
H	-0.9155187761	 1.3197512114	-0.7935977438	 0.154746
H	-0.4211048222	-2.682728335	 1.1602379773	 0.13702
H	-1.546832645	-1.9327103884	 2.3134226336	 0.119327
H	-3.3638467687	-2.9418266483	 1.2466978626	 0.089807
H	-3.8657192465	-2.6830332244	-1.1675988066	 0.113395
H	-2.1991350049	-2.0271134707	-1.4890812651	 0.127698
H	-2.8002393346	-4.8356551194	-0.3146389962	 0.100936
H	-0.3908780128	-3.4551516984	-0.8876596277	 0.309145
40.8224	85.4445	107.2124	136.7029	203.1873	245.2451	323.7422	380.5362	434.0289	539.4517	553.8579	600.1968	620.1998	671.5123	759.4322	783.0855	842.1951	883.8514	960.935	983.3156	992.7739	1042.6781	1049.0286	1066.4656	1072.0755	1122.9608	1154.7626	1170.576	1240.3925	1280.0933	1321.9744	1362.4896	1381.4746	1393.7656	1421.7389	1464.8534	1467.8737	1475.1097	1488.0061	1494.3565	1780.0269	3058.9189	3073.533	3124.3328	3127.8227	3138.6844	3154.6249	3166.9393	3172.3852	3228.7515	3679.4427
CC(=O)OCC1CC1O	CC(=O)OC[C@H]1C[C@H]1O	
InChI=1S/C6H10O3/c1-4(7)9-3-5-2-6(5)8/h5-6,8H,2-3H2,1H3	InChI=1S/C6H10O3/c1-4(7)9-3-5-2-6(5)8/h5-6,8H,2-3H2,1H3/t5-,6-/m1/s1
