20
gdb 78046	2.7526	1.29084	1.142	2.4726	80.95	-0.2363	-0.0222	0.214	1194.4831	0.168669	-403.134602	-403.125246	-403.124302	-403.168148	35.35	
C	-0.0538965477	 1.557299992	-0.0999078461	-0.400278
C	-0.0785142424	 0.0356748889	-0.0743296628	-0.083203
N	 0.6267370626	-0.5584560664	-1.2741878378	-0.164026
C	 1.65121958	-1.2338785582	-0.338741732	-0.218173
C	 1.0122844531	-0.5641178745	 0.8386580768	 0.409429
O	 1.3524665954	-0.3612814326	 1.9701567101	-0.321634
C	 0.6502008648	-2.0202439992	-1.1357033817	 0.320156
C	-0.4704797329	-2.8244701714	-0.4976172895	-0.471512
C	 1.2186621616	-2.6825114462	-2.3800012936	-0.44483
H	 0.9604840412	 1.9290956458	-0.2699525849	 0.129649
H	-0.6960261466	 1.9356732266	-0.8999783567	 0.127459
H	-0.4101088309	 1.9499423379	 0.8566432394	 0.133683
H	-1.0998558626	-0.3307763259	 0.057550114	 0.097735
H	 2.7152173537	-1.2798040856	-0.5484792604	 0.112666
H	-0.7849370021	-2.4545916807	 0.4785287009	 0.13553
H	-1.3444203949	-2.8448300976	-1.1587487687	 0.12786
H	-0.1380879402	-3.8581291172	-0.3609123989	 0.130023
H	 1.6738447133	-3.6470533871	-2.1331989065	 0.121324
H	 0.4200239019	-2.859561187	-3.1082387055	 0.125719
H	 1.9700679327	-2.0447836717	-2.8505356262	 0.132422
107.6012	160.4242	190.0615	207.4148	211.4777	216.3876	249.4926	347.4093	355.5031	425.7378	477.5276	493.8829	613.8549	676.7834	746.1368	813.1639	840.1161	852.0381	911.7122	958.9941	993.2098	1018.7352	1038.9628	1051.4732	1085.6386	1102.0342	1129.6113	1146.7945	1214.2252	1246.2263	1289.4546	1334.8504	1369.3338	1403.0636	1408.7362	1424.4089	1481.0558	1484.2796	1484.5684	1494.9832	1503.1911	1508.8204	1880.0339	3036.0351	3041.0234	3045.1564	3075.6275	3098.6925	3104.3996	3122.2801	3124.9128	3130.2943	3140.8289	3168.5443
CC1N2C(C1=O)C2(C)C	C[C@H]1N2[C@@H](C1=O)C2(C)C	
InChI=1S/C7H11NO/c1-4-5(9)6-7(2,3)8(4)6/h4,6H,1-3H3	InChI=1S/C7H11NO/c1-4-5(9)6-7(2,3)8(4)6/h4,6H,1-3H3/t4-,6+,8?/m1/s1
