19
gdb 100385	2.69387	1.11285	0.98898	3.1793	71.95	-0.252	-0.0391	0.2128	1261.6824	0.155385	-460.178737	-460.168602	-460.167658	-460.213788	36.172	
C	 0.0650094889	 1.489802363	-0.21647588	-0.435132
C	-0.0115007922	-0.0364400961	 0.01195198	 0.115442
C	 0.7184277315	-0.4209319801	 1.3218545872	-0.076765
O	 2.0682988367	-0.0195938593	 1.3479214305	-0.428396
C	-1.4764528278	-0.5168803866	 0.1240014709	-0.344728
C	-2.4248352761	-0.2439055955	-1.0221825038	 0.155865
O	-2.1334506749	 0.219167805	-2.0960777346	-0.235614
C	 0.6716978811	-0.7173695884	-1.1721834113	 0.136287
O	 1.7033593957	-1.3455761865	-1.0906167282	-0.276363
H	 1.0981626521	 1.8226833631	-0.0981371423	 0.146073
H	-0.300135254	 1.7704330439	-1.2062592273	 0.144395
H	-0.5451941716	 2.0078884513	 0.5316986494	 0.116527
H	 0.2244753124	 0.0797425693	 2.1630561231	 0.10293
H	 0.6191250466	-1.5065802869	 1.4802476951	 0.090408
H	 2.5038385783	-0.5438332487	 0.6626782601	 0.296211
H	-1.5217237738	-1.6026079927	 0.3060401033	 0.138581
H	-1.934504811	-0.0721734489	 1.0206041071	 0.135342
H	-3.478128267	-0.5269610811	-0.7956792213	 0.092676
H	 0.1658560749	-0.5843809448	-2.1473279478	 0.126261
85.1558	91.9644	147.4772	166.1423	174.9222	227.9963	240.5793	279.2348	313.6415	342.7621	348.8414	463.9222	552.9598	585.328	704.4333	756.9902	798.0503	869.6845	909.8801	947.4294	988.1593	1009.1495	1050.6121	1096.1269	1150.1306	1179.5038	1221.1775	1231.3676	1310.2122	1358.5311	1386.451	1400.158	1421.6649	1425.5183	1437.8255	1448.8243	1491.4712	1501.5729	1504.5365	1797.8431	1827.419	2874.5664	2966.5617	2977.3866	2995.8453	3023.9152	3041.2564	3056.9078	3116.0777	3146.3416	3761.6542
CC(CO)(CC=O)C=O	C[C@@](CO)(CC=O)C=O	
InChI=1S/C6H10O3/c1-6(4-8,5-9)2-3-7/h3-4,9H,2,5H2,1H3	InChI=1S/C6H10O3/c1-6(4-8,5-9)2-3-7/h3-4,9H,2,5H2,1H3/t6-/m1/s1
