23
gdb 100179	1.95026	1.34274	1.0791	2.7688	81.47	-0.2411	-0.017	0.2241	1288.283	0.201586	-425.436089	-425.424615	-425.42367	-425.472458	41.45	
C	-0.2115647031	 1.5357047206	-0.0525690693	-0.418953
C	 0.087061268	 0.0282077896	-0.0586533282	 0.020774
C	 0.8207170252	-0.3567955385	-1.3537864487	-0.412401
C	 0.8334828567	-0.4759857231	 1.2124880793	 0.169653
C	 2.3075598204	-0.0435129334	 1.2924498003	-0.451519
C	 0.0921426643	-0.0122373522	 2.4855642676	-0.111128
O	 0.656252324	-0.7012974377	 3.5961929461	-0.430288
C	 0.7698050274	-2.0138495195	 1.2547256111	 0.170096
O	-0.144939427	-2.6685159258	 0.8242084315	-0.277913
H	 0.7034466203	 2.1359061925	 0.0070084309	 0.114693
H	-0.7201683272	 1.8147227759	-0.9811963331	 0.115051
H	-0.863465295	 1.8333699092	 0.7734344919	 0.113689
H	-0.870171918	-0.5054504684	-0.0616393088	 0.097161
H	 1.7608209002	 0.193313755	-1.4682506522	 0.112819
H	 1.0427860679	-1.4269020582	-1.3921635458	 0.12376
H	 0.1973501188	-0.1194759971	-2.2216762624	 0.11358
H	 2.4059574914	 1.042601589	 1.2053980425	 0.118101
H	 2.7323856068	-0.341250554	 2.2544164582	 0.138828
H	 2.9083554955	-0.4985296557	 0.4998351397	 0.119458
H	 0.2013195009	 1.074685004	 2.6060171243	 0.094822
H	-0.9783611136	-0.2423975644	 2.3803539025	 0.102983
H	 0.1701744504	-0.4525990328	 4.3872786786	 0.292293
H	 1.6440352956	-2.5045250749	 1.7341260338	 0.084441
52.2024	79.5248	128.778	177.9996	194.7286	225.8366	238.7208	244.4003	257.0965	297.6141	299.2264	337.4682	350.9901	413.6962	440.773	534.3224	621.4649	710.8717	874.2519	900.9108	921.3178	929.6536	952.8089	970.2634	996.6418	1057.3813	1093.2429	1125.8057	1164.5904	1190.9247	1203.7266	1217.3571	1281.5535	1286.6362	1354.1006	1368.864	1398.5752	1400.8175	1420.5101	1428.1968	1448.6614	1485.8247	1492.8076	1494.802	1505.0631	1509.8432	1513.4324	1520.8559	1823.187	2896.2903	2984.4764	3025.0824	3030.1374	3035.1496	3044.0073	3044.9021	3091.2688	3101.3846	3107.3365	3111.4749	3114.0216	3124.3212	3838.0241
CC(C)C(C)(CO)C=O	CC(C)[C@@](C)(CO)C=O	
InChI=1S/C7H14O2/c1-6(2)7(3,4-8)5-9/h4,6,9H,5H2,1-3H3	InChI=1S/C7H14O2/c1-6(2)7(3,4-8)5-9/h4,6,9H,5H2,1-3H3/t7-/m1/s1
