16
gdb 6599	5.49273	1.33977	1.30551	3.4648	66.87	-0.2512	-0.0279	0.2233	951.3944	0.129772	-383.699312	-383.691976	-383.691032	-383.730977	27.855	
O	-0.0644699196	 1.3285166452	 0.0063024437	-0.462755
C	 0.0201995607	-0.0462989411	 0.0017620865	 0.39873
C	 0.6610692167	-0.9825900424	 1.0772117928	-0.330974
C	 0.0069882248	-1.9089189721	-0.0034054506	 0.254533
C	-1.2248286876	-0.9643402379	 0.0078577708	-0.290838
C	 0.6458061796	-0.9763468292	-1.0879634566	-0.330811
C	 0.0266435987	-3.3936643865	-0.0083744059	 0.036812
O	-0.9562052471	-4.0923561809	-0.0068425374	-0.247961
H	 0.8267586201	 1.6947325997	 0.0014676533	 0.284748
H	 1.7529541821	-0.9978048435	 1.137381375	 0.094076
H	 0.1931960156	-0.9942801001	 2.0643013828	 0.108986
H	-1.8286616898	-0.9660664069	 0.9173475321	 0.106349
H	-1.8413689268	-0.9609169856	-0.8930486292	 0.106413
H	 0.1640304077	-0.9825360375	-2.0683841673	 0.109048
H	 1.7367346945	-0.9912924239	-1.1635868103	 0.094095
H	 1.0493427505	-3.8379289275	-0.0140540498	 0.06955
74.8397	157.0599	229.1037	286.724	362.981	406.0716	457.2875	546.2362	547.9539	640.4639	712.7908	754.4736	825.2652	935.923	954.9562	966.559	986.6646	1047.3775	1068.0568	1104.3687	1111.5877	1123.8625	1138.3501	1153.2834	1169.996	1173.5834	1294.573	1312.2225	1388.9493	1426.11	1491.1382	1495.9546	1561.1628	1817.2189	2860.1943	3050.4414	3056.0557	3072.261	3124.862	3128.9744	3140.8521	3806.5043
OC12CC(C1)(C2)C=O	O[C@@]12C[C@@](C1)(C2)C=O	
InChI=1S/C6H8O2/c7-4-5-1-6(8,2-5)3-5/h4,8H,1-3H2	InChI=1S/C6H8O2/c7-4-5-1-6(8,2-5)3-5/h4,8H,1-3H2/t5-,6+
