13
gdb 27489	2.12851	1.97025	1.02968	2.6523	64.83	-0.2918	-0.0632	0.2286	1069.2744	0.0886	-489.952907	-489.945194	-489.944249	-489.9859	27.38	
C	 0.0448389525	 1.4624368056	-0.0854007575	-0.470734
C	-0.1037739715	-0.0141464757	 0.0309718548	 0.412864
N	-1.193114688	-0.6329221779	-0.1807790242	-0.299425
C	-1.215536265	-2.0063574204	-0.0432609555	 0.435227
N	-2.2433583604	-2.7032791795	-0.2333436659	-0.491814
O	-0.0026571644	-2.6406392179	 0.3329922387	-0.251978
C	 1.1425173401	-1.972722712	 0.5550394252	 0.483528
O	 2.1553863002	-2.5003107687	 0.8699443341	-0.324917
O	 1.0790305118	-0.6081645879	 0.3934173112	-0.240598
H	 0.8121042462	 1.7012360001	-0.8287507622	 0.165803
H	-0.9073817259	 1.9041565459	-0.3737431537	 0.169627
H	 0.3804247955	 1.8788165306	 0.8697289642	 0.165816
H	-2.043768871	-3.6913369722	-0.0794935693	 0.246601
78.9636	115.7925	131.9123	191.489	303.4398	389.2551	519.1137	539.6132	577.7391	593.756	649.6672	749.9335	768.9233	855.2093	893.474	952.8514	958.1037	1063.9704	1075.3705	1104.4871	1116.7182	1287.217	1325.081	1410.7868	1464.9534	1470.2262	1745.926	1771.4779	1930.7659	3052.8176	3112.0115	3178.2139	3511.53
CC1=NC(=N)OC(=O)O1	C[C]1N=C([NH])OC(=O)O1	
InChI=1S/C4H4N2O3/c1-2-6-3(5)9-4(7)8-2/h5H,1H3	InChI=1S/C4H4N2O3/c1-2-6-3(5)9-4(7)8-2/h5H,1H3
