19
gdb 39325	2.86138	1.74191	1.31005	2.9942	73.58	-0.2428	0.0683	0.3111	1000.0155	0.1621	-423.000921	-422.993788	-422.992844	-423.032836	28.271	
C	 0.1766669252	 1.5875573554	 0.1637739509	-0.081369
O	 1.4929132055	 1.489988432	-0.4218161258	-0.293036
C	 1.3573233049	 0.0636104096	-0.598139426	 0.138191
C	 2.4514798717	-0.7545712015	 0.0350821883	 0.011313
O	 2.6587064072	-0.6091359291	 1.4433634186	-0.245899
C	 2.0809302549	-1.8299701636	 0.972868517	 0.061542
C	 0.6267477204	-2.053329814	 1.3446733368	-0.249936
C	-0.1319386257	-0.7187446919	 1.4100016531	-0.228782
C	-0.0314900445	 0.0580891107	 0.0911317581	-0.077069
H	 0.2119983693	 2.0117677607	 1.174837271	 0.105757
H	-0.5007882512	 2.1900447314	-0.4544731632	 0.096466
H	 1.3214812398	-0.1951453025	-1.6672424986	 0.068991
H	 3.3751738021	-0.8434599643	-0.5370998914	 0.096054
H	 2.7381158403	-2.6969287322	 1.0457673639	 0.090011
H	 0.1745569415	-2.7346613487	 0.6110890556	 0.103631
H	 0.5732096979	-2.5605115888	 2.3149753099	 0.109245
H	-1.1812749998	-0.8973996988	 1.6654854607	 0.094966
H	 0.301664979	-0.1246902746	 2.2191098669	 0.12307
H	-0.8303390684	-0.2446456698	-0.5902681658	 0.076854
59.2996	176.5068	256.6284	338.6577	372.9592	424.7247	467.9588	613.7837	680.0991	758.1692	776.1426	813.4778	848.1548	880.2565	926.512	941.9747	989.1699	1007.0006	1011.1671	1036.344	1064.9951	1075.368	1101.6798	1125.0575	1160.3411	1176.2143	1218.0515	1234.9462	1271.2165	1282.0944	1289.008	1340.7181	1358.1386	1368.7973	1382.5764	1390.0239	1397.8527	1461.7974	1488.0354	1491.4001	1525.6631	2983.8926	3010.8622	3020.732	3048.5046	3052.8766	3062.5729	3072.1349	3101.6257	3102.4932	3114.8656
C1OC2C3OC3CCC12	C1O[C@H]2[C@H]3O[C@H]3CC[C@@H]12	
InChI=1S/C7H10O2/c1-2-5-7(9-5)6-4(1)3-8-6/h4-7H,1-3H2	InChI=1S/C7H10O2/c1-2-5-7(9-5)6-4(1)3-8-6/h4-7H,1-3H2/t4-,5-,6+,7-/m0/s1
