16
gdb 31374	2.9291	1.42479	0.96435	5.2056	76.36	-0.2063	-0.0073	0.199	1171.4551	0.12656	-434.110221	-434.102122	-434.101178	-434.143077	29.921	
C	 0.0492684935	 1.3800712637	 0.00716934	-0.232674
O	-0.023801473	-0.0502206845	 0.0035937786	-0.268577
C	-1.2560658583	-0.5765029236	 0.0108399152	 0.531361
N	-2.3240365689	 0.1309079407	 0.0204443609	-0.438564
C	-3.5814851669	-0.515569452	 0.0274841018	 0.322339
N	-4.6924377469	 0.1234403882	 0.0372090996	-0.543015
C	-3.5692843138	-1.9801148062	 0.0231491245	-0.130319
C	-2.4056349918	-2.6458258933	 0.0129791507	-0.010587
N	-1.2103330053	-1.9447612173	 0.0065582837	-0.382953
H	 1.1141050618	 1.6136033777	 0.0001810991	 0.133098
H	-0.4432348573	 1.7929186943	-0.8762261563	 0.146881
H	-0.4304531776	 1.787821191	 0.8999182222	 0.146875
H	-4.4918376645	 1.1257857197	 0.0386907822	 0.204807
H	-4.5163604742	-2.5014901835	 0.0283416935	 0.11753
H	-2.3168823111	-3.7243761788	 0.0092198181	 0.133305
H	-0.3155046058	-2.4042597961	-0.0011593639	 0.270492
98.6428	143.0563	152.4237	214.2422	228.9799	376.6838	430.0839	457.5759	493.3905	538.4261	606.5664	698.8618	754.5066	758.0996	829.4278	900.8768	945.955	962.0445	999.4196	1045.588	1085.2169	1160.6446	1183.6688	1206.547	1234.908	1312.1206	1349.5759	1427.3143	1472.6203	1477.5023	1498.177	1524.4847	1640.3604	1693.8079	1723.3077	3055.3133	3133.3757	3159.5898	3217.9657	3240.5917	3455.6272	3665.9225
COC1=NC(=N)C=CN1	COC1=NC(=CCN1)[NH]	
InChI=1S/C5H7N3O/c1-9-5-7-3-2-4(6)8-5/h2-3H,1H3,(H2,6,7,8)	InChI=1S/C5H8N3O/c1-9-5-7-3-2-4(6)8-5/h2,6H,3H2,1H3,(H,7,8)
