14
gdb 43498	2.05631	1.91896	1.02616	1.5801	67.4	-0.2809	-0.0351	0.2459	1078.0232	0.10276	-470.072738	-470.065276	-470.064332	-470.105286	27.715	
N	-0.0830879838	 1.3456986565	-0.0939383858	-0.502684
C	-0.0171227764	 0.08521178	 0.027172037	 0.387063
C	-1.264960113	-0.7545862249	 0.1240165182	-0.340825
C	-1.0634511689	-2.0037182576	 0.9301769984	 0.387918
N	-1.931821123	-2.4801453288	 1.7025171727	-0.47591
O	 0.1412368958	-2.668316339	 0.7123447333	-0.242947
C	 1.2734462916	-2.0338652007	 0.281065679	 0.483671
O	 2.3011929243	-2.6363643063	 0.1648716607	-0.350755
N	 1.1520591234	-0.6785786494	 0.033771182	-0.421937
H	 0.839909864	 1.7757442247	-0.1809941803	 0.21743
H	-2.082098239	-0.1694638684	 0.5394442588	 0.179393
H	-1.5471682344	-1.0523341991	-0.8957086029	 0.16537
H	-1.607973491	-3.3529723488	 2.1237027134	 0.242041
H	 2.0314077904	-0.2323113281	-0.1865086644	 0.272171
98.1441	105.3358	129.056	372.5108	390.5856	440.9539	468.8863	561.1851	570.8261	604.2183	608.9741	646.959	756.07	884.3289	900.191	924.7633	932.6739	976.5741	988.5048	1096.8654	1133.345	1191.4065	1228.1562	1303.2268	1361.6325	1396.7462	1423.414	1450.2357	1753.1734	1785.2098	1876.9369	3026.6686	3171.4349	3455.6262	3477.9784	3613.4774
N=C1CC(=N)OC(=O)N1	[NH][C]1C[C]([NH])OC(=O)N1	
InChI=1S/C4H5N3O2/c5-2-1-3(6)9-4(8)7-2/h6H,1H2,(H2,5,7,8)	InChI=1S/C4H5N3O2/c5-2-1-3(6)9-4(8)7-2/h6H,1H2,(H2,5,7,8)
