17
gdb 85080	3.05208	1.37458	0.99765	3.9075	70.29	-0.2618	-0.012	0.2499	1165.0694	0.135293	-459.004676	-458.996388	-458.995443	-459.037774	31.45	
C	-0.5009410192	 1.361474736	-0.0331079193	-0.398782
C	-0.0080743682	-0.0636923788	 0.1728115101	 0.084408
O	 0.426990324	-0.5278038265	-1.1389594035	-0.232846
C	 1.3349492781	-1.5006111954	-1.2545432411	 0.401681
O	 1.7829050459	-1.8156554666	-2.329248493	-0.353044
C	 1.794726962	-2.2022422555	 0.0264825868	-0.036997
O	 2.9686831056	-2.9240447419	-0.2190247275	-0.437946
C	 1.959916955	-1.181103098	 1.1208524867	-0.10321
C	 1.0901533953	-0.1809527721	 1.1965109264	-0.082367
H	 0.3255889665	 2.0125781084	-0.3308603333	 0.139193
H	-1.2682915229	 1.3916703731	-0.8096242256	 0.138571
H	-0.9300316328	 1.7428238074	 0.8981704753	 0.125826
H	-0.8570080724	-0.7020811828	 0.4597397467	 0.111658
H	 0.9732722661	-2.8902467315	 0.3111600145	 0.110316
H	 3.0516704705	-2.9518305161	-1.1855445704	 0.2982
H	 2.7837555662	-1.31982096	 1.8119366573	 0.124375
H	 1.1294015803	 0.5723367002	 1.9762341699	 0.110963
55.9227	128.0758	236.4462	278.0761	298.5709	320.6287	395.9355	429.483	444.2265	505.2132	557.0105	598.4469	681.6305	695.6616	778.1303	886.4077	889.1514	961.4933	982.1573	1024.5567	1062.844	1112.906	1145.1174	1162.7769	1192.1402	1224.981	1245.6716	1326.6176	1344.2219	1365.1068	1402.2111	1410.8284	1436.3735	1485.7876	1497.0843	1714.8448	1823.4615	2898.1843	2992.2456	3049.4058	3124.579	3136.3058	3182.2672	3207.434	3696.3385
CC1OC(=O)C(O)C=C1	C[C@H]1OC(=O)[C@@H](O)C=C1	
InChI=1S/C6H8O3/c1-4-2-3-5(7)6(8)9-4/h2-5,7H,1H3	InChI=1S/C6H8O3/c1-4-2-3-5(7)6(8)9-4/h2-5,7H,1H3/t4-,5+/m1/s1
