15
gdb 132085	2.94938	1.42551	0.96679	2.259	75.66	-0.2097	-0.0522	0.1574	1135.1585	0.111704	-461.946663	-461.938758	-461.937814	-461.979215	29.636	
C	 0.0891633399	 1.4979171296	 0.0154598316	-0.484522
C	-0.0400025599	 0.0150332863	-0.0100293391	 0.251618
C	-1.1823032926	-0.6891576611	-0.1204752416	 0.137676
F	-2.3645878897	-0.0624411763	-0.2222083648	-0.08182
C	-1.1654762005	-2.1194680893	-0.1321235145	-0.162283
C	 0.0137643492	-2.7661592637	-0.030587521	-0.159369
C	 1.2596625559	-2.0338464349	 0.0898036387	 0.38222
N	 2.3981523208	-2.5894708877	 0.1888456237	-0.537627
O	 1.150274487	-0.6402439833	 0.0922200355	-0.278789
H	 0.7211502531	 1.842746182	-0.8102700429	 0.148975
H	-0.8932719988	 1.9630832006	-0.0693531438	 0.150392
H	 0.5615576083	 1.8265050055	 0.9476916002	 0.148971
H	-2.1077096621	-2.6483364549	-0.2228626835	 0.129637
H	 0.0935511444	-3.8448404212	-0.0332079343	 0.134074
H	 3.1375247351	-1.8905950017	 0.2626985658	 0.220846
102.8394	140.0521	170.7077	268.3721	324.4384	345.1515	419.7385	468.9311	481.4983	574.8716	577.3478	714.8957	721.5554	777.4758	826.3329	854.463	863.9721	992.6404	998.2671	1062.0411	1073.3186	1140.1787	1197.8079	1210.8285	1279.1115	1349.0897	1411.0237	1455.0695	1474.1229	1478.9941	1621.6209	1695.2395	1749.4339	3038.3146	3091.4274	3154.3799	3200.0637	3234.059	3492.8526
CC1=C(F)C=CC(=N)O1	CC1=C(F)CC=C([NH])O1	
InChI=1S/C6H6FNO/c1-4-5(7)2-3-6(8)9-4/h2-3,8H,1H3	InChI=1S/C6H7FNO/c1-4-5(7)2-3-6(8)9-4/h3,8H,2H2,1H3
