21
gdb 46904	2.90098	1.35044	1.03676	2.9836	82.13	-0.2333	-0.0078	0.2255	1192.8734	0.185017	-387.114504	-387.106442	-387.105498	-387.147179	32.041	
O	 0.003610269	-0.0452500552	 0.0390365212	-0.304828
C	-0.0136604122	 1.1651416218	-0.0152697314	 0.378143
C	-1.3411306121	 1.9190680298	-0.0210976273	-0.276626
C	-1.5459215474	 2.8140913812	 1.2260493788	-0.240027
C	-0.7948411568	 4.1287588473	 1.1478052665	 0.010952
C	-0.0300029889	 4.6847384163	 2.3239900745	-0.324331
C	 0.7175563592	 4.1494137034	 1.1272925219	 0.010954
C	 1.5061028317	 2.8557760644	 1.1846466994	-0.240028
C	 1.2920783081	 1.9550374829	-0.0568230043	-0.276626
H	-1.4015007308	 2.5438073298	-0.9220420383	 0.10597
H	-2.125525633	 1.1604940008	-0.0808220357	 0.114858
H	-2.6170373042	 3.0191820775	 1.3315668119	 0.107923
H	-1.2614293926	 2.253928465	 2.1240378754	 0.107399
H	-1.2740850141	 4.8633199014	 0.5048629802	 0.083006
H	-0.0422782836	 5.7552946687	 2.4967722235	 0.111852
H	-0.0095647056	 4.0905939086	 3.2329474411	 0.112252
H	 1.1589498965	 4.8965512909	 0.4718635906	 0.083006
H	 2.5736861756	 3.0900791226	 1.2611504423	 0.107923
H	 1.2614744011	 2.2883821627	 2.0898112456	 0.107399
H	 2.0949887043	 1.2181466801	-0.1380866947	 0.114858
H	 1.310903428	 2.58086372	-0.9588381313	 0.10597
66.0327	157.3857	226.8491	262.6482	308.414	357.6729	382.8002	467.787	503.0812	555.2149	679.248	736.5187	759.6037	791.119	856.357	868.1864	907.6028	916.0652	959.914	976.2273	1033.9141	1040.4932	1051.3085	1062.0201	1086.0818	1136.6731	1157.3167	1157.4746	1218.3314	1237.2694	1244.7088	1255.8698	1279.6099	1326.3539	1340.8158	1352.0263	1361.4971	1403.6978	1430.5134	1467.052	1478.4651	1488.1109	1493.209	1506.6958	1797.4153	3022.833	3028.9644	3033.1481	3038.4063	3067.1954	3073.8839	3102.3713	3104.7242	3124.8473	3124.857	3136.2533	3209.791
O=C1CCC2CC2CC1	O=C1CC[C@H]2C[C@H]2CC1	
InChI=1S/C8H12O/c9-8-3-1-6-5-7(6)2-4-8/h6-7H,1-5H2	InChI=1S/C8H12O/c9-8-3-1-6-5-7(6)2-4-8/h6-7H,1-5H2/t6-,7+
