15
gdb 80200	2.22559	1.61664	1.20821	4.809	72.85	-0.2869	-0.0127	0.2743	1056.8814	0.112182	-416.791942	-416.783887	-416.782943	-416.824636	29.751	
C	 0.0120481947	 1.5623739244	 0.0523913721	-0.424277
C	 0.0948293155	 0.0550268538	 0.0680792377	-0.080409
C	 1.333673574	-0.7291621859	-0.1441236907	 0.039283
O	 2.4842464926	-0.0279886232	 0.3729289141	-0.26447
C	 1.9801209359	-0.1129909513	 1.6732187974	 0.399463
N	 2.4828229864	 0.1995048358	 2.7709277077	-0.535438
C	 0.6936005273	-0.7613270249	 1.2483162472	 0.041157
C	-0.0303324598	-1.7731420248	 1.9359835192	 0.212887
N	-0.6348906385	-2.5962981351	 2.4794537714	-0.343368
H	 0.9459838097	 2.0192997867	 0.3838700697	 0.149639
H	-0.194406985	 1.9114004656	-0.9643681339	 0.136166
H	-0.795831102	 1.9097788233	 0.701986993	 0.143653
H	-0.7843990809	-0.4606510409	-0.3138546314	 0.132192
H	 1.5138398284	-1.5314511324	-0.8466340315	 0.149457
H	 3.4185781317	 0.593578549	 2.6657018679	 0.244066
126.609	135.6527	154.9397	174.4764	256.6855	349.2702	387.8091	505.2624	532.1848	589.9948	623.5964	674.6868	745.0717	790.4	867.2706	912.2985	931.532	940.4543	968.5794	1017.4896	1076.2268	1098.928	1114.9733	1175.0314	1239.9515	1288.1491	1342.434	1418.3072	1450.6282	1489.3302	1499.3011	1843.3438	2356.5172	3049.8389	3114.9114	3135.7215	3149.8264	3221.6533	3492.8488
CC1C2OC(=N)C12C#N	C[C@H]1[C@H]2O[C]([NH])[C@@]12C#N	
InChI=1S/C6H6N2O/c1-3-4-6(3,2-7)5(8)9-4/h3-4,8H,1H3	InChI=1S/C6H6N2O/c1-3-4-6(3,2-7)5(8)9-4/h3-4,8H,1H3/t3-,4+,6-/m0/s1
