16
gdb 123871	5.25738	1.07576	0.91572	5.7836	74.79	-0.2171	-0.0116	0.2055	1223.7695	0.124905	-434.025998	-434.018205	-434.017261	-434.059077	28.025	
C	-0.1488211437	 1.5724243175	 0.0129547407	-0.236907
C	 1.3832427153	 1.5477150876	-0.2513723962	-0.172429
N	 1.3997640136	 0.1556527988	 0.2255879632	-0.156203
C	-0.0637953238	 0.0480891325	 0.3052887274	-0.172856
C	 2.2734908368	-0.8157519693	-0.1048899439	 0.492543
C	 2.1748191163	-2.1955895602	-0.053379586	-0.249852
N	 3.3751349524	-2.6768300472	-0.4783830893	-0.080677
N	 4.1879200598	-1.7864842532	-0.7841753921	-0.045118
O	 3.4689900949	-0.4712375012	-0.5442208425	-0.254267
H	-0.4370484841	 2.1698801693	 0.878174528	 0.126171
H	-0.7674884448	 1.8518782998	-0.8390670204	 0.125086
H	 1.6682074096	 1.6444021228	-1.3051309788	 0.127597
H	 1.9978943985	 2.2276479677	 0.3449363536	 0.129864
H	-0.434265727	-0.2871383406	 1.2790584075	 0.124631
H	-0.4913545608	-0.5904129193	-0.4781755617	 0.119304
H	 1.3653436268	-2.8314040548	 0.2565593506	 0.123115
78.3941	100.6423	141.0931	150.5483	304.377	368.4629	436.9989	554.122	662.2916	715.397	741.6774	762.856	847.2467	866.7389	939.6436	941.509	958.7679	1002.8965	1110.9502	1140.6218	1142.3687	1150.155	1161.341	1203.2689	1229.4441	1270.5471	1298.3759	1335.4437	1361.064	1411.8046	1490.7834	1497.7944	1510.0105	1532.8882	1631.6165	3020.8184	3039.1359	3074.3227	3089.0098	3099.2834	3154.7789	3297.6095
C1CN(C1)C1=CN=NO1	C1CN(C1)c1cnno1	
InChI=1S/C5H7N3O/c1-2-8(3-1)5-4-6-7-9-5/h4H,1-3H2	InChI=1S/C5H7N3O/c1-2-8(3-1)5-4-6-7-9-5/h4H,1-3H2
