15
gdb 14494	3.63349	2.07152	1.55137	5.1126	65.52	-0.2638	0.0206	0.2843	820.8687	0.118354	-362.601653	-362.594594	-362.59365	-362.632668	26.844	
C	-0.1709491422	 1.5930077825	-0.0153298822	-0.487477
C	 0.007301655	 0.0749549201	 0.0080634633	 0.166816
C	-1.279354601	-0.5862800617	-0.2122759518	 0.250605
N	-2.3334044831	-1.0249131317	-0.3923246947	-0.336026
C	 1.2102357401	-0.646083777	-0.7002711102	 0.025313
C	 2.1853305076	-0.1134730399	 0.375223659	-0.244447
C	 0.9118040981	-0.6539277043	 1.0660340892	 0.025307
O	 0.9650871663	-1.8207279477	 0.1614753539	-0.291173
H	 0.7684340661	 2.1228526283	 0.1460659747	 0.130224
H	-0.5820899997	 1.9087202504	-0.978412255	 0.147606
H	-0.8766275606	 1.9009450092	 0.7614759223	 0.147612
H	 1.357424449	-0.8197969258	-1.7657829514	 0.115432
H	 3.0620185698	-0.7434308581	 0.5205519419	 0.125853
H	 2.4204069016	 0.9496529904	 0.4196566042	 0.108922
H	 0.7010255133	-0.8370511446	 2.1192168367	 0.115432
159.4852	173.4523	174.4865	288.0751	322.6117	482.4029	505.7956	541.327	639.734	651.2038	747.0289	791.5675	875.7443	883.2315	914.8848	938.0046	1027.6994	1032.638	1095.8951	1119.3798	1136.4401	1171.4609	1199.364	1205.6324	1219.6702	1275.7524	1282.4745	1416.1913	1485.8702	1488.3135	1507.7886	2356.3264	3053.5942	3092.9132	3118.22	3128.9619	3133.9214	3144.1414	3169.8955
CC1(C#N)C2CC1O2	C[C@@]1(C#N)[C@H]2C[C@@H]1O2	
InChI=1S/C6H7NO/c1-6(3-7)4-2-5(6)8-4/h4-5H,2H2,1H3	InChI=1S/C6H7NO/c1-6(3-7)4-2-5(6)8-4/h4-5H,2H2,1H3/t4-,5+,6-
