19
gdb 101421	2.35243	1.31795	1.06402	1.8047	72.73	-0.2513	-0.0245	0.2268	1221.8215	0.156019	-460.146646	-460.136909	-460.135965	-460.181907	34.298	
C	-0.0559334466	 1.311682473	-0.0613517651	-0.236577
O	 0.2277046172	-0.0693370535	-0.0755812386	-0.255996
C	 0.6954598909	-0.5972931984	 1.1586825589	 0.117081
C	-0.4406312251	-0.8353239264	 2.1552937024	-0.407513
C	 1.4229091215	-1.8921183597	 0.8161360626	-0.015784
O	 0.5744733481	-2.8832083432	 0.1891649738	-0.291174
C	 1.2666610195	-2.8303359203	-1.0768141578	-0.182075
C	 2.2746120092	-1.8500706098	-0.4685246316	 0.365741
O	 3.2873587503	-1.3236202188	-0.8086969629	-0.284058
H	 0.8185741003	 1.9010998484	 0.2536233931	 0.111603
H	-0.3206863121	 1.5936970402	-1.0830981725	 0.132156
H	-0.8994955012	 1.5609575445	 0.5978430779	 0.110514
H	 1.4452387865	 0.0863749207	 1.592057713	 0.079547
H	-1.1431878295	-1.5632264305	 1.7424105737	 0.147653
H	-0.0485030181	-1.2215395361	 3.101509585	 0.118138
H	-0.9778690915	 0.0918952726	 2.3716838867	 0.11946
H	 1.9329266544	-2.2915334879	 1.7029454586	 0.103049
H	 1.6709053343	-3.8024369451	-1.3844516689	 0.127856
H	 0.6509274419	-2.4068411998	-1.8789049783	 0.140378
64.0172	77.9072	113.3653	131.6198	204.7137	221.2301	240.0316	295.4208	344.441	425.4283	445.9613	556.977	656.1185	720.2077	782.9236	845.3989	903.714	968.6637	988.8609	1010.7737	1064.5685	1081.6791	1102.5806	1126.3616	1142.7343	1170.5899	1183.1804	1220.4802	1242.5168	1294.7566	1328.0632	1350.8797	1375.9699	1400.3506	1473.2519	1479.0753	1483.2699	1496.5827	1500.1048	1511.7776	1929.0119	2965.678	2984.611	3021.958	3029.8794	3035.4632	3046.9981	3078.1901	3113.5265	3117.4262	3134.9581
COC(C)C1OCC1=O	CO[C@@H](C)[C@H]1OCC1=O	
InChI=1S/C6H10O3/c1-4(8-2)6-5(7)3-9-6/h4,6H,3H2,1-2H3	InChI=1S/C6H10O3/c1-4(8-2)6-5(7)3-9-6/h4,6H,3H2,1-2H3/t4-,6+/m0/s1
