17
gdb 109419	2.22506	1.62613	0.98388	1.4329	75.92	-0.2483	-0.0943	0.154	1173.582	0.135502	-421.884489	-421.875988	-421.875044	-421.918245	31.004	
C	 0.0474652058	 1.5966277532	 0.1360797716	-0.394596
C	 0.0370126805	 0.071430538	 0.006100358	-0.179269
C	-1.3800580912	-0.5262555404	-0.0732082235	-0.245068
C	-2.1090438585	-0.304670568	-1.4012848659	 0.378867
O	-2.2741498419	 0.7448340715	-1.9775542097	-0.314033
C	-2.5797118442	-1.636752068	-1.8878565723	-0.154975
C	-2.1885367034	-2.6135507802	-1.0568509877	-0.164559
C	-1.4038173205	-2.0508906784	 0.0813015078	 0.374765
O	-0.8686460601	-2.6901943676	 0.954658682	-0.316806
H	 1.0743706459	 1.9728907102	 0.1701743932	 0.113986
H	-0.4672785971	 2.0665458414	-0.7049845527	 0.148645
H	-0.4547058897	 1.9129357657	 1.0572029761	 0.114252
H	 0.6030772367	-0.2336004465	-0.8828374622	 0.10366
H	 0.5345482996	-0.3919182455	 0.8648598083	 0.125312
H	-1.9916369423	-0.0959551668	 0.7321652731	 0.13104
H	-3.1490682689	-1.7369007795	-2.804179659	 0.138989
H	-2.3726526308	-3.6768659392	-1.1532759771	 0.139789
50.0024	109.7348	168.0047	218.501	248.5798	274.5992	318.0316	406.0354	542.9581	557.2544	638.3908	689.7375	720.3	747.646	813.4051	884.9692	906.3109	939.5008	1019.4437	1037.0499	1073.5299	1100.964	1112.4827	1134.7141	1219.6644	1230.3802	1267.1523	1330.439	1339.3572	1364.7901	1414.3033	1491.6253	1496.5779	1512.3805	1627.4095	1799.2998	1835.608	3020.7945	3033.1143	3038.2377	3074.7804	3102.641	3133.2859	3206.0498	3228.3146
CCC1C(=O)C=CC1=O	CC[C@H]1C(=O)C=CC1=O	
InChI=1S/C7H8O2/c1-2-5-6(8)3-4-7(5)9/h3-5H,2H2,1H3	InChI=1S/C7H8O2/c1-2-5-6(8)3-4-7(5)9/h3-5H,2H2,1H3
