21
gdb 103290	2.41448	1.50588	1.2573	1.3755	78.72	-0.2257	0.0799	0.3056	1136.3506	0.180033	-424.17582	-424.166269	-424.165325	-424.209633	35.892	
C	-0.4956413385	 1.1286591696	 0.1488472954	-0.254531
O	 0.3710660569	 0.0275380879	-0.0763347001	-0.280535
C	 0.8381405547	-0.5763183665	 1.0952286535	 0.417789
C	 2.0699223082	 0.0836144893	 1.6844679235	-0.454974
C	-0.109783222	-1.2028402874	 2.0745824897	 0.000051
O	-1.2902463379	-1.6786925431	 1.4364632545	-0.306869
C	-0.5105693373	-2.6699855611	 0.6917124662	 0.147393
C	-0.8283737299	-2.7413126443	-0.786970561	-0.416362
C	 0.8023350493	-2.0821838049	 1.2175424577	-0.235233
H	-0.0029587065	 1.9341803442	 0.7113438335	 0.103292
H	-0.7732170916	 1.5143437207	-0.8349826346	 0.12328
H	-1.3994932598	 0.8140137418	 0.6831030913	 0.132514
H	 1.8787472453	 1.137106912	 1.9125861382	 0.122376
H	 2.3795088141	-0.4079605787	 2.6117392203	 0.119026
H	 2.9019851971	 0.0345184853	 0.9752012459	 0.129476
H	-0.1523148765	-0.9992865865	 3.1401270811	 0.097083
H	-0.683414734	-3.6470628053	 1.1633569366	 0.081134
H	-0.6262116621	-1.7903594665	-1.2778826405	 0.14901
H	-0.2184756247	-3.522112648	-1.2551517782	 0.113057
H	-1.8806256099	-3.009298582	-0.9299013202	 0.119567
H	 1.6798327848	-2.6607090964	 1.4778170072	 0.093456
103.7783	149.0989	162.6361	194.8408	205.2054	215.6742	261.3843	308.7418	340.0577	375.8905	447.9327	572.8831	596.7421	687.8987	734.7088	816.2135	853.7081	878.0301	935.2065	936.4036	1012.9688	1034.4306	1052.3359	1075.0456	1086.0084	1099.9227	1141.1168	1160.9308	1175.1366	1186.9532	1227.7553	1255.4272	1273.93	1304.8679	1389.705	1403.9341	1408.0108	1415.5027	1471.8766	1482.2412	1482.7553	1494.3029	1502.2937	1504.2117	1507.3256	3000.8196	3005.7625	3036.7026	3040.0391	3069.9786	3098.5479	3103.6089	3111.416	3120.0992	3157.1518	3166.3855	3188.6261
COC1(C)C2OC(C)C12	CO[C@@]1(C)[C@H]2O[C@@H](C)[C@@H]12	
InChI=1S/C7H12O2/c1-4-5-6(9-4)7(5,2)8-3/h4-6H,1-3H3	InChI=1S/C7H12O2/c1-4-5-6(9-4)7(5,2)8-3/h4-6H,1-3H3/t4-,5+,6-,7+/m0/s1
