17
gdb 43331	3.04553	1.48996	1.09817	4.5438	83.31	-0.2396	-0.0612	0.1784	1088.896	0.138533	-384.706951	-384.699697	-384.698753	-384.738905	28.563	
O	-0.0120681667	 0.2079638378	-1.0321280217	-0.34495
C	-0.0193236983	 1.240032051	-0.3718606252	 0.326964
C	-1.3289542202	 1.8417942505	-0.03568795	-0.16479
C	-1.6421043025	 2.9127176212	 0.7060268676	-0.052482
C	-0.8023415072	 3.807035037	 1.5199835741	-0.080819
C	-0.0500971012	 3.2910578217	 2.7293473906	-0.279587
C	 0.7229086226	 3.8088376523	 1.5339265079	-0.080819
C	 1.5795225673	 2.9165253121	 0.7354768298	-0.052482
C	 1.2825163482	 1.8448809039	-0.0118158178	-0.164791
H	-2.1394026864	 1.2906929907	-0.5046718238	 0.107391
H	-2.700177398	 3.1679914391	 0.7514560964	 0.107097
H	-1.2409248473	 4.7910454154	 1.6573572637	 0.101062
H	-0.0590698193	 3.8887930463	 3.6336278123	 0.126143
H	-0.0502057239	 2.2177455952	 2.8800217104	 0.136512
H	 1.1565804917	 4.7938787806	 1.6792742606	 0.101062
H	 2.6359820256	 3.17429828	 0.8002357418	 0.107097
H	 2.1027032841	 1.2957069851	-0.4658935469	 0.107391
61.8825	207.7731	244.9053	326.9201	360.1173	444.3587	475.7523	490.1581	673.3566	703.9288	753.6564	767.0974	767.4713	833.0896	842.5906	875.244	895.4644	961.6458	991.4048	1034.8336	1042.8785	1059.2614	1083.162	1137.1499	1159.0613	1216.1621	1218.1406	1279.2376	1317.3236	1408.028	1420.6415	1435.8811	1443.7815	1482.0813	1690.0652	1699.7229	1721.8918	3127.6309	3129.4148	3138.2305	3146.0497	3154.6389	3174.4986	3176.4568	3235.8639
O=C1C=CC2CC2C=C1	O=C1C=C[C@H]2C[C@H]2C=C1	
InChI=1S/C8H8O/c9-8-3-1-6-5-7(6)2-4-8/h1-4,6-7H,5H2	InChI=1S/C8H8O/c9-8-3-1-6-5-7(6)2-4-8/h1-4,6-7H,5H2/t6-,7+
