20
gdb 111582	3.20296	1.46351	1.34106	1.7139	77.48	-0.222	0.0628	0.2848	1050.7642	0.172741	-403.081195	-403.073514	-403.072569	-403.11352	29.953	
C	 0.1469088818	 1.3512193835	 0.1141196267	-0.241514
O	-0.274938062	 0.0384553073	-0.1914641902	-0.241271
C	 0.5114962672	-0.5875756339	-1.1677657664	 0.14592
C	 1.8890328865	-1.1888509156	-0.7882548371	-0.04278
C	 1.8994709948	-1.9168618288	 0.5662831309	-0.243468
C	 1.206072791	-3.0943566187	-0.1461208703	 0.016269
C	-0.3055513207	-2.9033615642	-0.3766475095	-0.239548
C	 0.0645027932	-2.0012347804	-1.5657614282	-0.048025
N	 1.5245043839	-2.4880992377	-1.5271740588	-0.169919
H	 1.1649023342	 1.3712098633	 0.5302901091	 0.111826
H	 0.1254405933	 1.9984749266	-0.7761399359	 0.108647
H	-0.5454729965	 1.7501014823	 0.8590628847	 0.129329
H	 0.6107097067	 0.0565224217	-2.0552266325	 0.070617
H	 2.7871173943	-0.6508174998	-1.0985862927	 0.067201
H	 2.9152556582	-2.1701781849	 0.8792067619	 0.105792
H	 1.37214513	-1.4438897144	 1.3990841784	 0.107623
H	 1.5660009609	-4.1026086057	 0.0691868679	 0.071288
H	-0.7817987721	-3.8271278509	-0.7141256733	 0.106082
H	-0.8994482604	-2.4623693804	 0.4269497173	 0.114656
H	-0.5012664245	-2.1071176394	-2.493150662	 0.071277
81.4061	145.5201	176.8973	230.4634	314.1917	363.6179	478.8253	552.5114	652.0502	672.5747	730.9439	827.9184	849.8263	896.9661	912.9859	918.7119	941.9879	959.8562	1002.3096	1011.5311	1060.4502	1072.3804	1081.3382	1117.1614	1147.0774	1163.5313	1182.7172	1190.5767	1209.4241	1237.517	1249.4176	1251.4721	1283.915	1290.7998	1312.1744	1361.6623	1363.731	1385.4433	1470.4809	1479.3789	1486.6089	1490.52	1508.2977	2976.626	2983.7568	3028.5595	3056.4069	3062.633	3078.6513	3081.008	3089.3822	3112.4484	3117.464	3120.3851
COC1C2CC3CC1N23	CO[C@H]1[C@H]2C[C@H]3C[C@@H]1N23	
InChI=1S/C7H11NO/c1-9-7-5-2-4-3-6(7)8(4)5/h4-7H,2-3H2,1H3	InChI=1S/C7H11NO/c1-9-7-5-2-4-3-6(7)8(4)5/h4-7H,2-3H2,1H3/t4-,5+,6-,7-
