19
gdb 126398	2.70157	1.26053	0.9245	1.173	80.69	-0.2048	0.0126	0.2174	1312.6622	0.160138	-415.405356	-415.395635	-415.39469	-415.441082	34.237	
C	-0.0527035778	 1.5016800896	 0.1542166383	-0.372499
C	-0.0673086509	-0.0265446747	-0.030753492	-0.30166
C	 0.6875574292	-0.4902417618	-1.23615933	 0.269844
N	 0.0979626693	-0.7510020121	-2.4073633759	-0.294229
N	 1.090896768	-1.1067206667	-3.2079608633	 0.145056
C	 0.8726061622	-1.5570035182	-4.5628188417	-0.30754
N	 2.3085186846	-1.102759838	-2.6524791215	-0.319716
C	 2.0738145033	-0.713566732	-1.3995678517	 0.2467
N	 3.0830616096	-0.6411460592	-0.4409251769	-0.598079
H	 0.9687385913	 1.8860283162	 0.2536855332	 0.106534
H	-0.5086035295	 1.999112724	-0.7067998767	 0.129999
H	-0.606922185	 1.7925855102	 1.0521585949	 0.114157
H	 0.3550940157	-0.5066430908	 0.8607159029	 0.109287
H	-1.10192997	-0.3726263377	-0.1159103557	 0.121388
H	 1.5750885605	-1.0577625159	-5.234057727	 0.147408
H	 1.0144680522	-2.6398539788	-4.6419254852	 0.14344
H	-0.1510349355	-1.3010939226	-4.8333644648	 0.157306
H	 4.0022047735	-0.6897853281	-0.8613221658	 0.253079
H	 3.0132376194	 0.1709205665	 0.1573628889	 0.249527
40.5163	45.9799	129.5375	177.2487	190.0219	237.4319	270.1145	291.7763	320.7642	431.1845	512.1132	626.7598	649.2954	658.9173	723.8426	774.4588	795.4905	834.7156	972.1793	1025.2421	1059.0673	1075.06	1088.8198	1148.1321	1149.04	1253.7058	1292.2306	1352.2179	1364.0421	1384.2592	1408.3411	1440.4444	1447.6785	1477.8731	1478.1756	1495.9901	1503.3659	1511.1146	1563.345	1570.9579	1648.7553	3031.6007	3032.3302	3045.2387	3079.3755	3101.1518	3113.5824	3115.1438	3170.3748	3544.7344	3638.7291
CCC1=NN(C)N=C1N	CCc1nn(C)nc1N	
InChI=1S/C5H10N4/c1-3-4-5(6)8-9(2)7-4/h3H2,1-2H3,(H2,6,8)	InChI=1S/C5H10N4/c1-3-4-5(6)8-9(2)7-4/h3H2,1-2H3,(H2,6,8)
