17
gdb 66805	3.7806	1.81934	1.79954	0.3826	72.39	-0.2091	0.0535	0.2626	841.2804	0.138368	-380.787578	-380.781429	-380.780485	-380.817735	25.938	
C	-0.1181713974	 1.5146237804	-0.0422603673	-0.520055
C	 0.0802463098	 0.0337761487	 0.0433265819	 0.373715
C	 0.7315461823	-0.8578900514	-0.9429244312	-0.122051
C	 1.457078756	-1.9653777914	-0.2164692486	-0.05565
C	 0.4656424557	-2.8017239144	 0.4928361219	-0.042661
C	-0.7585306255	-1.8742030473	 0.5008028723	-0.029558
C	 0.0948436438	-0.8685920009	 1.2932970074	-0.094363
N	 1.3038232975	-1.801455312	 1.2592658607	-0.161116
N	-0.7447036065	-0.9779391801	-0.7329388802	-0.198441
H	 0.7521896464	 2.0466396953	 0.3583678079	 0.127967
H	-0.2588157349	 1.821898694	-1.0826311343	 0.133203
H	-1.0000937937	 1.8321853795	 0.5242039346	 0.12654
H	 1.0434180202	-0.513634074	-1.9217510462	 0.096892
H	 2.4115158109	-2.3487010367	-0.5553202385	 0.099857
H	 0.5221204639	-3.8707648529	 0.665066446	 0.098662
H	-1.7460843543	-2.2281004385	 0.7841463867	 0.084507
H	-0.1383435243	-0.4788139282	 2.281080437	 0.082551
182.0945	225.3718	273.8402	550.4636	558.8623	592.4754	681.9672	726.8032	752.2616	787.4436	800.202	824.9594	843.8413	889.1516	899.915	918.7189	921.8067	939.5901	983.2533	1026.1878	1036.958	1047.7692	1071.3421	1091.9466	1161.6296	1175.3665	1217.3522	1220.7145	1227.9103	1268.9554	1278.2018	1299.252	1345.9255	1404.8238	1437.0919	1483.0739	1492.0955	3030.3295	3093.4026	3111.917	3145.006	3154.9206	3173.877	3186.3745	3200.9799
CC12C3C4C5C(C1N45)N23	C[C@@]12[C@H]3[C@@H]4[C@@H]5[C@@H]([C@H]1N45)N23	
InChI=1S/C7H8N2/c1-7-5-4-2-3(8(2)5)6(7)9(4)7/h2-6H,1H3	InChI=1S/C7H8N2/c1-7-5-4-2-3(8(2)5)6(7)9(4)7/h2-6H,1H3/t2-,3+,4+,5-,6-,7+,8?,9?/m1/s1
