23
gdb 114309	2.15751	1.24566	1.09175	1.285	86.23	-0.2391	0.0773	0.3164	1295.3689	0.204659	-388.26085	-388.250815	-388.249871	-388.295459	37.814	
C	 0.3776979271	 1.7114359582	-0.639009395	-0.423961
C	 0.4331052143	 0.2170534904	-0.3872186973	-0.038077
C	 1.6576246516	-0.6515494505	-0.4946543856	-0.123368
C	 2.8901318439	 0.0324453844	 0.1126978703	-0.256168
C	 2.1624974728	 0.0724980485	 1.4941761654	-0.000195
C	 2.0924323144	 1.3512831329	 2.3105359932	-0.11251
O	 3.3991702331	 1.5969458335	 2.8194602972	-0.423194
C	 0.8995865668	-0.5263123277	 0.845295707	 0.294966
C	 0.0175164917	-1.5214457413	 1.5503476733	-0.494772
H	 1.3159378559	 2.2182900867	-0.4047767587	 0.122658
H	 0.1627190057	 1.9056826538	-1.6961017038	 0.112368
H	-0.4145351683	 2.1873011632	-0.0497133122	 0.112048
H	-0.437154284	-0.2908942594	-0.8032101506	 0.079095
H	 1.6948663966	-1.5010417246	-1.1680682665	 0.077417
H	 3.7784830275	-0.6011709898	 0.1258817038	 0.103149
H	 3.1708166449	 0.9978620779	-0.3206271533	 0.095741
H	 2.6109060003	-0.6872876046	 2.1445083341	 0.08019
H	 1.7445135979	 2.1962382303	 1.7012871726	 0.0848
H	 1.3651844686	 1.2193967557	 3.1297776683	 0.080604
H	 3.3835775348	 2.4303878128	 3.2986623235	 0.284463
H	-0.6131942879	-1.0372906271	 2.3067656416	 0.115719
H	-0.650858249	-2.0287176224	 0.8464831619	 0.115106
H	 0.610835801	-2.2893251911	 2.0610353909	 0.11392
72.7832	124.3799	165.3463	189.099	208.6781	230.4729	258.4067	262.6224	293.7372	351.7894	440.9989	482.992	553.4835	615.6642	730.9299	740.0365	835.5191	869.1739	898.3368	928.2876	974.7304	990.6007	1028.1687	1051.2708	1060.5344	1094.8542	1100.8907	1114.7606	1122.1547	1156.9779	1171.5401	1207.1328	1243.3663	1254.2412	1268.8502	1269.4698	1311.2974	1344.351	1375.507	1409.4963	1415.4308	1453.7441	1465.6085	1485.1994	1494.1067	1497.7986	1502.6813	1506.7624	1522.5362	2957.4724	3014.3333	3018.1341	3028.8298	3043.5895	3053.3267	3069.8688	3081.8174	3089.7825	3101.751	3112.0043	3123.2552	3165.5789	3828.5558
CC1C2CC(CO)C12C	C[C@H]1[C@H]2C[C@@H](CO)[C@@]12C	
InChI=1S/C8H14O/c1-5-7-3-6(4-9)8(5,7)2/h5-7,9H,3-4H2,1-2H3	InChI=1S/C8H14O/c1-5-7-3-6(4-9)8(5,7)2/h5-7,9H,3-4H2,1-2H3/t5-,6-,7+,8+/m0/s1
