19
gdb 32849	4.61234	0.80922	0.69587	2.6664	80.38	-0.1626	0.0598	0.2224	1609.9194	0.159254	-419.229169	-419.219453	-419.218509	-419.264098	35.537	
C	 0.0501658524	 1.5336676252	 0.0239072663	-0.398492
C	 0.0027239376	 0.011260173	-0.0529315721	-0.104065
N	 0.7169870469	-0.467689611	-1.231052171	-0.405907
C	 0.7715867344	-1.8549876678	-1.4081204886	 0.397562
C	 0.2643500107	-2.8994453951	-0.6598694769	-0.381853
C	 0.7148176705	-4.1046737486	-1.2845997845	 0.33337
O	 0.4369874874	-5.3862621248	-0.8982429155	-0.453252
C	 1.4667885558	-3.7755737759	-2.3797697419	-0.189412
N	 1.4787924806	-2.3831168356	-2.4520415193	-0.329989
H	 1.0842511812	 1.8893373233	 0.0450998299	 0.128869
H	-0.4481344855	 1.9896674525	-0.8397745401	 0.113392
H	-0.459928279	 1.8892876038	 0.9235523121	 0.120714
H	 0.4899781557	-0.4257614601	 0.8261364693	 0.117486
H	-1.0458917899	-0.3325449784	-0.034363228	 0.091922
H	 0.3955304838	 0.0076122341	-2.0680300753	 0.224906
H	-0.3805739196	-2.8194026309	 0.2013377862	 0.07936
H	-0.0918086082	-5.3494907761	-0.0968371051	 0.29261
H	 1.9570099634	-4.3887314377	-3.1151456146	 0.111281
H	 2.1059547916	-1.84677897	-3.0249149709	 0.251498
64.4929	77.4197	126.7674	167.118	221.452	249.8564	289.0205	318.4036	376.7905	409.2145	481.5783	590.8797	610.1272	644.4618	666.0332	693.2695	729.1987	791.4251	827.4523	930.3207	991.303	1014.7704	1079.3863	1110.1223	1149.0712	1165.4892	1179.0542	1211.0981	1285.2981	1310.4622	1316.3767	1381.3813	1411.7401	1449.8564	1455.1491	1490.7247	1498.9086	1515.8429	1526.4066	1590.7939	1666.3325	2951.2423	3032.8197	3054.5163	3101.1105	3121.5265	3246.337	3287.0811	3511.3982	3684.1122	3849.4023
CCNC1=CC(O)=CN1	CCNc1cc(O)c[nH]1	
InChI=1S/C6H10N2O/c1-2-7-6-3-5(9)4-8-6/h3-4,7-9H,2H2,1H3	InChI=1S/C6H10N2O/c1-2-7-6-3-5(9)4-8-6/h3-4,7-9H,2H2,1H3
