20
gdb 92154	2.60083	1.6273	1.38096	2.3843	78.66	-0.1951	0.0826	0.2778	1050.8339	0.171177	-403.094845	-403.086756	-403.085812	-403.127134	31.742	
C	 0.033457909	 1.4622731861	-0.0663202696	-0.323869
N	-0.0030364805	 0.0130598501	 0.0119801256	-0.05725
C	-1.3668131115	-0.5515432767	-0.0138075591	-0.158106
C	-1.2698276515	-1.751900079	 0.9186859513	 0.016686
O	-0.2398810472	-2.6450096874	 0.3889527954	-0.304333
C	 0.6947825688	-2.0576541305	 1.2933226185	 0.035229
C	 0.6246483559	-0.5409727219	 1.2022422243	-0.088189
C	-0.3426329132	-1.3033817222	 2.0849890992	 0.243762
C	-0.6658643972	-1.1595679733	 3.5402443238	-0.51974
H	 1.0712977562	 1.8098268696	-0.0649625906	 0.11955
H	-0.4223791467	 1.7873106277	-1.0072365349	 0.121348
H	-0.5019922526	 1.9686145727	 0.760127612	 0.087416
H	-2.1172034937	 0.1622447035	 0.3728249283	 0.078036
H	-1.6555436457	-0.845045421	-1.0285806374	 0.113658
H	-2.2026241261	-2.2761918525	 1.1319057163	 0.081019
H	 1.5661385401	-2.6378149455	 1.5778088876	 0.097959
H	 1.435575743	 0.0320008839	 1.6382319698	 0.089218
H	-1.3906497815	-0.3548648037	 3.7126165687	 0.120897
H	-1.0858969068	-2.0833863641	 3.9552136251	 0.123538
H	 0.233221401	-0.9173042256	 4.1163907356	 0.123171
111.0941	179.2315	195.769	231.1125	269.4057	340.0243	361.1202	393.8173	555.5944	587.0773	668.3804	682.8906	781.9603	851.116	855.1854	894.511	914.7114	938.0682	987.5288	1012.5512	1025.3865	1033.2688	1057.6157	1073.2559	1136.0905	1147.3623	1172.2324	1189.0931	1200.921	1228.6799	1257.5996	1266.1577	1304.9494	1322.1295	1369.1355	1415.2325	1452.2386	1474.3778	1484.5187	1486.7019	1497.1406	1498.6147	1505.7541	2916.8314	2938.9272	3018.9457	3058.924	3065.7257	3077.088	3093.6481	3101.4908	3107.0776	3167.809	3182.0507
CN1CC2OC3C1C23C	CN1C[C@H]2O[C@H]3[C@@H]1[C@@]23C	
InChI=1S/C7H11NO/c1-7-4-3-8(2)5(7)6(7)9-4/h4-6H,3H2,1-2H3	InChI=1S/C7H11NO/c1-7-4-3-8(2)5(7)6(7)9-4/h4-6H,3H2,1-2H3/t4-,5-,6+,7-/m1/s1
