14
gdb 130799	3.33788	1.38262	1.06059	3.8278	64.44	-0.2689	-0.053	0.2159	1080.0803	0.100838	-469.966362	-469.95899	-469.958046	-469.999469	26.689	
O	 0.0626099495	-0.0006909887	-0.4409281542	-0.389154
C	 0.0145886447	 1.1669977181	-0.1807700188	 0.555283
O	-1.1070895157	 1.9508700805	-0.1007548114	-0.233289
N	-0.7046527722	 3.263322763	 0.2312596501	 0.021831
N	 0.5432674142	 3.2799331974	 0.3434068885	-0.059353
N	 1.0385113547	 2.0531165485	 0.1087372571	-0.107602
C	 2.4373648507	 1.7307673893	 0.1573470411	 0.061262
C	 3.461614552	 2.7260149552	-0.3065434549	-0.279958
C	 3.3338678402	 2.393175395	 1.1634976149	-0.279951
H	 2.5606166228	 0.6793248281	-0.0699583734	 0.148341
H	 4.3120543793	 2.3498070414	-0.8630531381	 0.13509
H	 3.0960393626	 3.6950277881	-0.6263518031	 0.146206
H	 2.8850539854	 3.1451412576	 1.8022568226	 0.146203
H	 4.0948000317	 1.7836895468	 1.6367773996	 0.135089
33.1979	130.1589	167.7587	253.125	316.8252	428.8871	557.7066	618.1636	665.3849	753.3388	763.0628	783.6115	801.3308	819.4579	904.8217	958.1226	1027.2989	1062.6873	1076.3229	1087.5531	1128.8474	1130.4427	1197.7376	1212.4183	1232.0435	1384.055	1437.0938	1457.6445	1490.67	1516.4304	1896.1389	3145.0921	3146.5937	3204.965	3230.4379	3243.4855
O=C1ON=NN1C1CC1	O=c1onnn1C1CC1	
InChI=1S/C4H5N3O2/c8-4-7(3-1-2-3)5-6-9-4/h3H,1-2H2	InChI=1S/C4H5N3O2/c8-4-7(3-1-2-3)5-6-9-4/h3H,1-2H2
