18
gdb 98085	3.17622	1.06018	0.88342	2.8621	72.03	-0.2446	-0.0233	0.2213	1364.2282	0.144959	-476.269829	-476.259154	-476.25821	-476.306733	35.305	
C	-0.4653201305	 1.3420295414	 0.3333992418	-0.241482
O	-0.0334197635	-0.026561814	 0.2876753087	-0.208951
C	 0.1039638575	-0.6223198426	 1.4742938672	 0.334605
O	-0.0827291939	-0.0877420257	 2.5401739171	-0.368844
C	 0.4257067783	-2.1147515376	 1.2818386054	 0.366223
O	-0.3040760312	-2.768382468	 0.5576182775	-0.373128
N	 1.4712610845	-2.6235644704	 1.9884697864	-0.102638
C	 1.7368497768	-4.0511596775	 1.9008788978	-0.346426
C	 2.3804390053	-1.8611486203	 2.8260564693	-0.338357
H	 0.232347084	 1.9471410378	 0.917745027	 0.140703
H	-0.4908668472	 1.6761039568	-0.7031015583	 0.141609
H	-1.4580097255	 1.4123253978	 0.7843742628	 0.14822
H	 2.7427078896	-4.2296398405	 1.5020127178	 0.125991
H	 1.6737105165	-4.5112553189	 2.8944386357	 0.128615
H	 0.9966992034	-4.5007183479	 1.2412343127	 0.172963
H	 2.3346377377	-2.2192785032	 3.8619462404	 0.133314
H	 3.4111753964	-1.9826270255	 2.4697918792	 0.124168
H	 2.1230784918	-0.8054166918	 2.8240538815	 0.163414
38.2736	82.065	107.808	112.0499	132.2901	151.305	210.7266	241.9469	283.6744	340.8566	363.151	395.8023	432.2485	646.4175	712.97	813.105	829.815	937.5905	1020.9791	1084.8779	1130.9068	1142.6351	1176.9579	1181.0722	1211.3181	1273.5755	1301.9531	1433.8743	1438.689	1471.604	1477.1154	1482.1591	1482.286	1494.5407	1500.9015	1502.702	1546.2212	1756.0709	1801.218	3016.2307	3023.2097	3054.762	3063.0925	3071.3122	3130.5424	3167.6701	3171.3473	3187.7453
COC(=O)C(=O)N(C)C	COC(=O)C(=O)N(C)C	
InChI=1S/C5H9NO3/c1-6(2)4(7)5(8)9-3/h1-3H3	InChI=1S/C5H9NO3/c1-6(2)4(7)5(8)9-3/h1-3H3
