20
gdb 121182	2.43716	1.02404	0.78609	2.8285	79.85	-0.2671	0.0172	0.2844	1497.1848	0.170342	-403.151229	-403.141553	-403.140609	-403.187159	34.051	
C	-0.2400833567	 1.489333869	-0.0175288895	-0.384532
C	-0.007293012	-0.0233322189	-0.02350188	-0.173523
C	 0.774425128	-0.4993432323	-1.2541636784	-0.18738
C	 0.9633033501	-2.0036191053	-1.2617116951	 0.130878
O	-0.2854682813	-2.7300150011	-1.3639855311	-0.280512
C	 0.1013186343	-3.3679526503	-2.5892490806	-0.073556
C	 1.4988405105	-2.6909199659	-2.5623781853	-0.243565
C	 1.8452335296	-1.8437283122	-3.6889265245	 0.287962
N	 2.113451036	-1.1698390312	-4.589471243	-0.329842
H	 0.7082378615	 2.038147596	-0.0235827175	 0.115758
H	-0.8095362538	 1.8055045676	-0.8982456386	 0.119789
H	-0.799505534	 1.7999632852	 0.870073579	 0.114784
H	 0.5344040782	-0.3169600308	 0.8854904949	 0.094601
H	-0.9673991771	-0.5505751711	 0.0058612724	 0.120674
H	 0.2530902276	-0.1961883307	-2.1701812376	 0.114872
H	 1.7643486133	-0.0241018324	-1.2839229866	 0.107762
H	 1.5177598804	-2.3244428655	-0.3697039682	 0.087875
H	 0.1219385389	-4.4599252262	-2.5044108567	 0.117725
H	-0.535387498	-3.0791899119	-3.4323142059	 0.126682
H	 2.3174464344	-3.387772472	-2.3733479677	 0.133549
41.4005	88.982	91.5612	100.9492	183.3162	230.2417	250.8602	322.0877	363.4293	473.1499	523.8691	587.6337	738.1024	761.5634	823.3179	876.1419	888.258	917.2856	956.6095	1018.7317	1044.6651	1059.2604	1066.7419	1122.8761	1126.6589	1157.9919	1168.9564	1210.813	1258.4086	1270.6139	1306.3912	1326.6622	1349.4206	1360.0366	1383.699	1408.8096	1417.1247	1471.1796	1493.6354	1500.7297	1509.6864	1526.4614	2355.1883	3012.4877	3018.5583	3023.5567	3031.6756	3032.6201	3058.828	3075.738	3078.6099	3099.7164	3100.8994	3105.4919
CCCC1OCC1C#N	CCC[C@H]1OC[C@H]1C#N	
InChI=1S/C7H11NO/c1-2-3-7-6(4-8)5-9-7/h6-7H,2-3,5H2,1H3	InChI=1S/C7H11NO/c1-2-3-7-6(4-8)5-9-7/h6-7H,2-3,5H2,1H3/t6-,7-/m1/s1
