25
gdb 117720	3.3514	0.68298	0.64976	0.2437	85.82	-0.2571	0.0633	0.3204	1877.7624	0.225625	-426.631071	-426.619136	-426.618192	-426.668479	43.24	
C	-0.1378490505	 1.6245024509	-0.1949263335	-0.382495
C	-0.0222339261	 0.1078059988	-0.0150632288	-0.176963
C	 0.8203970658	-0.5514369104	-1.1132768961	-0.190335
C	 0.7949605889	-2.0969799164	-1.1397941822	 0.319993
C	 1.3076230719	-2.6970330484	 0.1735171619	-0.402842
O	-0.5606439313	-2.5602384132	-1.2544622162	-0.458283
C	 1.6174357196	-2.5828932696	-2.3520494472	-0.19321
C	 1.6299871891	-4.0923214212	-2.5683960244	-0.09194
O	 2.2138841985	-4.3283950205	-3.8448385633	-0.425235
H	 0.8473243745	 2.1045587155	-0.1815434704	 0.11216
H	-0.6118087181	 1.8758967321	-1.1505862589	 0.110647
H	-0.7375101027	 2.0752779836	 0.6020813906	 0.110991
H	 0.4130644447	-0.1036746575	 0.9684144294	 0.096804
H	-1.0186516933	-0.3474710622	-0.0149759914	 0.106991
H	 0.4634037514	-0.1976043003	-2.0924532595	 0.078909
H	 1.8623667587	-0.2133387305	-1.0386438916	 0.092825
H	 0.7045688834	-2.3511251445	 1.0156272055	 0.124632
H	 1.2454527766	-3.787539704	 0.1509135758	 0.122117
H	 2.3491580087	-2.4116880528	 0.3497588667	 0.111112
H	-0.9224216757	-2.2014912824	-2.0726487501	 0.274965
H	 1.2034061445	-2.1273907677	-3.262013177	 0.092873
H	 2.6483476336	-2.219076617	-2.2707887251	 0.100807
H	 2.209080826	-4.592003695	-1.7774786109	 0.084968
H	 0.6007403249	-4.4749043723	-2.5175766032	 0.096756
H	 2.2294977969	-5.278355585	-3.9927034201	 0.283753
69.9071	73.5026	85.9675	115.3678	118.8681	221.7701	247.3432	254.402	273.2432	308.1673	331.385	333.1271	353.6596	367.6666	421.9489	475.1336	637.6914	747.923	782.327	796.6894	862.6012	893.4451	947.4642	952.0937	990.0677	1022.8715	1050.0774	1065.2063	1091.8839	1105.5821	1139.8872	1176.8977	1206.2121	1233.5091	1252.9969	1266.2475	1308.931	1312.9932	1326.0183	1349.9706	1387.6596	1393.4238	1412.0768	1425.9223	1457.0704	1471.3909	1488.0929	1489.568	1495.9943	1500.4012	1509.99	1513.1355	1534.4444	2982.9194	2992.2172	3017.3101	3020.9922	3026.8312	3035.6674	3039.0606	3051.5471	3068.8782	3072.8556	3097.3029	3100.2878	3123.5922	3131.9155	3796.64	3829.6473
CCCC(C)(O)CCO	CCC[C@@](C)(O)CCO	
InChI=1S/C7H16O2/c1-3-4-7(2,9)5-6-8/h8-9H,3-6H2,1-2H3	InChI=1S/C7H16O2/c1-3-4-7(2,9)5-6-8/h8-9H,3-6H2,1-2H3/t7-/m1/s1
