25
gdb 114736	2.70615	1.21327	0.96078	0.2623	91.42	-0.2569	0.0763	0.3332	1363.2501	0.230457	-352.362123	-352.352771	-352.351827	-352.39603	36.94	
C	-0.0086419285	 1.6008343349	-0.0090625616	-0.387454
C	 0.0230362679	 0.0685837641	-0.0491724252	-0.194292
C	-1.3686698391	-0.5710886168	-0.0674738587	 0.063224
C	-2.232530248	-0.241111773	-1.3126257053	-0.244868
C	-3.2937747724	-1.3412402362	-1.3596345029	-0.032369
C	-2.9138525573	-2.6285824795	-2.0411934171	-0.283538
C	-2.7771899466	-2.5081555041	-0.5416806532	-0.035795
C	-1.4191747147	-2.1294413399	 0.0721188466	-0.029158
C	-0.2249197117	-2.8853003879	-0.5297108137	-0.394305
H	 1.0026608666	 2.0159832805	 0.0462154811	 0.108848
H	-0.4880753993	 2.0177777174	-0.9006378159	 0.117998
H	-0.5643133563	 1.9618572668	 0.864020096	 0.111654
H	 0.5924494344	-0.258162028	-0.9285556387	 0.094391
H	 0.575901524	-0.2992807978	 0.8252608697	 0.091135
H	-1.921765665	-0.1794130299	 0.7982602259	 0.065968
H	-2.685029961	 0.7515392814	-1.2377461825	 0.09708
H	-1.6199147922	-0.2374025861	-2.2244712214	 0.090969
H	-4.3400212809	-1.0575066243	-1.3327350192	 0.076711
H	-3.7130622635	-3.2620285339	-2.4127627712	 0.103169
H	-2.0236259762	-2.639623627	-2.6621764771	 0.104688
H	-3.456055067	-3.0998480167	 0.0631697927	 0.076255
H	-1.4453860643	-2.3794325844	 1.1392986608	 0.067009
H	-0.0647905522	-2.6460241968	-1.5856873902	 0.112562
H	 0.7026827596	-2.652577673	 0.0022913497	 0.109821
H	-0.3866122663	-3.9658075196	-0.4602872185	 0.110298
69.1678	113.6404	176.8187	214.3709	240.7151	270.1687	295.7682	360.1014	379.1794	460.3931	486.0136	619.7986	660.2747	746.1266	770.4058	798.2793	814.6871	878.2614	905.2448	930.6485	958.843	963.1358	986.1885	1021.2009	1048.9298	1062.0964	1067.9342	1071.8883	1095.6441	1109.6604	1133.6288	1167.5787	1170.4884	1203.7069	1227.0255	1278.6809	1299.9111	1311.169	1323.2592	1338.1515	1363.5463	1375.128	1384.3852	1394.8825	1411.3151	1413.8278	1480.7529	1487.893	1496.1703	1499.5686	1500.7975	1506.8576	1511.2746	2990.4853	3014.1756	3016.6871	3028.5635	3029.684	3035.9972	3050.8246	3082.2061	3095.6249	3101.9968	3102.4847	3103.7075	3123.8057	3155.7066	3166.5046	3205.0477
CCC1CC2CC2C1C	CC[C@H]1C[C@H]2C[C@H]2[C@H]1C	
InChI=1S/C9H16/c1-3-7-4-8-5-9(8)6(7)2/h6-9H,3-5H2,1-2H3	InChI=1S/C9H16/c1-3-7-4-8-5-9(8)6(7)2/h6-9H,3-5H2,1-2H3/t6-,7-,8-,9-/m0/s1
