15
gdb 81518	2.31278	1.97321	1.21134	3.3288	66.15	-0.2572	0.0175	0.2747	980.7654	0.111712	-453.863133	-453.855122	-453.854178	-453.895278	30.821	
N	 0.1660925379	 1.4413313745	 0.0000657808	-0.571971
C	 0.1107115254	 0.0038544688	-0.0642224859	 0.229711
C	 1.1282296776	-0.4646483813	-1.0038805538	 0.250601
N	 1.9422420092	-0.734189142	-1.7781351247	-0.340943
C	-0.0630183997	-0.6918916619	 1.3252511482	-0.043864
O	-1.4459000493	-0.1662947171	 1.3599644491	-0.315924
C	-1.3024920703	-0.7275360512	-0.0013941448	-0.042293
C	-0.6725323527	-1.9680281329	 0.6567602161	 0.12043
O	 0.0610416378	-2.8188066835	-0.1588330678	-0.406666
H	 0.1036435117	 1.8539019621	-0.9240794019	 0.244693
H	-0.6096476202	 1.7684023388	 0.5678112676	 0.24978
H	 0.5490029845	-0.5634240858	 2.2182194554	 0.111787
H	-2.1510773348	-0.6423756106	-0.6800500835	 0.110368
H	-1.3674437507	-2.4768468456	 1.3323390741	 0.103991
H	 0.5635234838	-3.4317224722	 0.3875630112	 0.300299
126.0049	169.5058	222.9898	259.9717	310.9646	340.5195	372.3235	389.2289	505.3134	537.6868	571.8953	628.7083	712.5117	763.1493	826.437	868.9698	876.9602	897.296	930.9492	1003.42	1075.0165	1113.3714	1138.0353	1163.7912	1182.7042	1207.6516	1252.8878	1269.9855	1300.0983	1346.9614	1428.5302	1633.0501	2360.0551	3066.778	3125.0775	3130.8775	3505.1926	3598.2274	3822.7924
NC1(C#N)C2OC1C2O	N[C@@]1(C#N)[C@H]2O[C@@H]1[C@H]2O	
InChI=1S/C5H6N2O2/c6-1-5(7)3-2(8)4(5)9-3/h2-4,8H,7H2	InChI=1S/C5H6N2O2/c6-1-5(7)3-2(8)4(5)9-3/h2-4,8H,7H2/t2-,3-,4+,5-
