15
gdb 9224	6.47419	0.94677	0.85267	5.5214	61.19	-0.2497	-0.0301	0.2195	1283.0869	0.115845	-436.925215	-436.916218	-436.915274	-436.959945	30.127	
O	-0.4031141734	 1.1814777131	-0.5510459653	-0.389943
C	-0.1852976485	-0.0584440975	 0.0615611215	-0.17462
C	-1.4689115704	-0.8777939637	 0.0342775819	 0.371833
O	-2.5438288613	-0.4215616077	-0.2511990649	-0.262881
C	-1.2849571735	-2.3604820552	 0.3847320063	-0.206018
O	-2.4637072838	-2.9673979288	 0.8535937599	-0.167026
C	-3.4362499365	-3.2077750856	-0.0607259308	 0.149347
N	-4.530936035	-3.6995005139	 0.3209299656	-0.443612
H	 0.3910266764	 1.7136586083	-0.446774506	 0.29794
H	 0.611988702	-0.6478674621	-0.4265561696	 0.107984
H	 0.1052236971	 0.030790674	 1.1241393479	 0.12234
H	-0.8905489879	-2.8687546182	-0.5105199186	 0.131371
H	-0.5372448741	-2.4799692005	 1.1748798605	 0.138892
H	-3.1464106815	-2.9562343922	-1.0874345906	 0.093237
H	-5.1455723097	-3.83977982	-0.4779079679	 0.231157
45.4861	77.6657	96.0326	161.7147	218.7866	230.9141	285.2923	332.1002	380.9122	454.1664	621.8811	708.4717	798.075	815.875	907.0222	966.9127	1027.9055	1032.1492	1083.1793	1153.5223	1183.5553	1229.8566	1240.1541	1268.9196	1324.2469	1389.1619	1421.6307	1444.4346	1471.6282	1493.0411	1749.9025	1846.7758	2942.4393	2962.8283	2982.9631	3053.2539	3087.8498	3522.5609	3836.879
OCC(=O)COC=N	OCC(=O)CO[CH][NH]	
InChI=1S/C4H7NO3/c5-3-8-2-4(7)1-6/h3,5-6H,1-2H2	InChI=1S/C4H7NO3/c5-3-8-2-4(7)1-6/h3,5-6H,1-2H2
