14
gdb 128644	2.78259	1.6179	1.02969	2.3241	68.31	-0.2414	-0.0583	0.1832	1078.7569	0.102845	-470.035801	-470.028216	-470.027271	-470.068184	27.439	
C	-0.0320471347	 1.3897132937	-0.0130230593	-0.23929
O	 0.025238052	-0.0421806094	 0.037576222	-0.220965
C	 0.6442628705	-0.5803283199	 1.0736510469	 0.351741
N	 1.1820961753	 0.1327455189	 2.0118330779	-0.357879
C	 1.7958940938	-0.5409527527	 3.0349208625	 0.079079
N	 1.8985811325	-1.8265639513	 3.1685052835	-0.199442
N	 1.3267837287	-2.5433302607	 2.1723203897	-0.265852
C	 0.6624630795	-2.0691860723	 1.0567191393	 0.3603
O	 0.1785730235	-2.790286855	 0.2103173971	-0.364937
H	 0.9752813318	 1.8126112859	-0.0408975555	 0.146799
H	-0.5755825874	 1.6238590878	-0.9275460781	 0.145488
H	-0.5557301699	 1.78331011	 0.8616899469	 0.146851
H	 2.2436140477	 0.0614158791	 3.8162253973	 0.137755
H	 1.3999377367	-3.5480366841	 2.2647266498	 0.280352
111.3021	148.4867	169.3788	216.5559	282.5838	350.7154	485.2977	531.5698	576.0201	593.5766	622.7612	724.7509	778.1449	815.218	918.0309	935.0885	1028.8209	1141.2711	1176.4403	1185.3134	1216.5288	1293.1889	1371.5199	1391.9984	1438.2603	1479.9651	1482.6791	1492.295	1585.3614	1636.3254	1803.0754	3053.2148	3129.19	3167.9944	3213.0113	3597.6655
COC1=NC=NNC1=O	COc1ncn[nH]c1=O	
InChI=1S/C4H5N3O2/c1-9-4-3(8)7-6-2-5-4/h2H,1H3,(H,7,8)	InChI=1S/C4H5N3O2/c1-9-4-3(8)7-6-2-5-4/h2H,1H3,(H,7,8)
