17
gdb 35167	3.55786	1.24432	1.09009	1.26	79.67	-0.2327	0.0431	0.2757	1127.4121	0.134396	-384.557956	-384.550178	-384.549234	-384.590238	30.692	
C	-0.0451917013	-1.214351512	-0.0148312159	-0.460224
C	-0.0434369966	-0.0113226417	 0.0134368419	 0.331019
C	-0.0280638401	 1.4219558332	 0.0375822559	-0.320782
C	 0.5058010823	 2.1712227066	 1.2779153853	-0.38925
C	 1.2778737051	 2.1704609186	 0.020944663	 0.469034
C	 2.719066979	 1.7808935897	-0.3244015818	-0.043352
C	 2.448700079	 2.1715702936	-1.7989876789	-0.217204
C	 1.8692794333	 3.2701843343	-0.8714737959	-0.05175
O	 3.1107085808	 3.1922081739	-0.0612875705	-0.310172
H	-0.05231899	-2.2757161307	-0.0357188514	 0.196114
H	-0.8622900391	 1.900521428	-0.4695935242	 0.115739
H	-0.0263731345	 3.0702196479	 1.5707919325	 0.124652
H	 0.8585829335	 1.5611120979	 2.1019969922	 0.134332
H	 3.3455521921	 0.9923797166	 0.0899963781	 0.104673
H	 3.3342087058	 2.4719358563	-2.359809329	 0.108591
H	 1.7520589854	 1.5569442514	-2.3732470776	 0.109425
H	 1.4806073153	 4.2599644362	-1.1111194938	 0.099156
93.9686	118.9499	215.6114	272.77	308.0696	426.6864	495.4833	523.5508	575.6348	636.864	649.7054	685.5354	729.6479	803.5969	809.2742	867.0718	879.7817	920.1429	945.8868	964.6054	1016.835	1029.9663	1066.0575	1080.581	1109.5567	1118.0068	1130.7051	1163.0209	1171.4355	1215.3101	1234.7558	1262.6029	1333.2437	1435.4808	1477.9132	1507.8156	2234.3393	3071.2236	3121.8923	3133.0129	3135.5372	3135.9983	3155.7565	3223.7431	3505.2272
C#CC1CC11C2CC1O2	C#C[C@H]1C[C@]21[C@H]1C[C@@H]2O1	
InChI=1S/C8H8O/c1-2-5-4-8(5)6-3-7(8)9-6/h1,5-7H,3-4H2	InChI=1S/C8H8O/c1-2-5-4-8(5)6-3-7(8)9-6/h1,5-7H,3-4H2/t5-,6-,7+,8+/m0/s1
