18
gdb 38404	4.22305	1.31151	1.2046	2.6384	75.08	-0.2312	0.0792	0.3103	1051.7212	0.148456	-401.852463	-401.845365	-401.84442	-401.883954	28.697	
C	 0.0049651935	 1.563946742	-0.0488505781	-0.304171
C	 1.5341160607	 1.5173406537	-0.1355048234	-0.034669
N	 1.9911930656	 0.834938752	 1.1014734066	-0.336983
C	 1.5343482972	 0.0311185423	-0.0613447483	-0.156662
C	 0.0058855594	-0.0001024882	 0.0178447002	 0.395274
C	-0.7108443836	-0.8671880276	 1.1079053998	-0.329964
C	-1.4223186876	-1.6148913635	-0.0274558485	 0.035916
O	-2.1493692297	-0.6354436794	-0.7834436753	-0.251186
C	-0.7515069538	-0.7987201179	-1.0514619345	-0.070233
H	-0.3943071475	 2.0892145287	 0.8218058746	 0.109721
H	-0.4808080309	 1.9308782937	-0.9558492377	 0.110922
H	 2.1949239274	 2.186570519	-0.6724623771	 0.093247
H	 3.0113385896	 0.8287880313	 1.0782118722	 0.226748
H	 2.1882983918	-0.7009851557	-0.5214103781	 0.08793
H	-0.0011654897	-1.4799593363	 1.6690197433	 0.112132
H	-1.3719875226	-0.3429080379	 1.8015091101	 0.112085
H	-1.7863595514	-2.6350873527	-0.0647944488	 0.102618
H	-0.4632529082	-1.0189927832	-2.0740413571	 0.097275
122.9933	134.9041	228.7717	369.3716	399.1268	407.4428	551.1846	564.438	741.247	792.3302	816.7733	824.9961	838.7047	847.813	861.4774	915.9342	936.8246	954.9905	969.9386	988.1692	1010.0893	1039.8865	1071.2493	1089.7952	1114.1878	1133.8963	1151.5934	1179.5922	1193.2369	1227.446	1232.8348	1257.661	1284.8665	1300.1534	1332.1865	1380.2155	1385.7772	1469.1077	1471.7005	3066.3541	3068.2759	3123.5144	3125.7525	3168.1189	3173.9792	3189.2654	3193.0757	3463.577
C1C2NC2C11CC2OC12	C1[C@H]2N[C@H]2[C@]21C[C@H]1O[C@@H]21	
InChI=1S/C7H9NO/c1-3-5(8-3)7(1)2-4-6(7)9-4/h3-6,8H,1-2H2	InChI=1S/C7H9NO/c1-3-5(8-3)7(1)2-4-6(7)9-4/h3-6,8H,1-2H2/t3-,4-,5-,6-,7+/m1/s1
