21
gdb 108645	2.17583	1.48317	1.00595	1.9721	85.34	-0.2243	0.0125	0.2368	1267.4463	0.181802	-387.094492	-387.085328	-387.084384	-387.128574	34.463	
C	-0.2937524229	 1.631346221	-0.1059834454	-0.371997
C	 0.0281666652	 0.1293629031	 0.0029096825	-0.305391
C	 0.7762208515	-0.4031631092	-1.1848398365	 0.23698
C	 2.0371168509	-0.8659304053	-1.2547341381	 0.188696
C	 3.0333853266	-1.0270711749	-0.1498142103	-0.492896
C	 2.40247525	-1.2989075399	-2.6685786618	-0.3269
C	 1.1143737476	-1.0984678616	-3.4514854389	 0.038308
O	 0.0208826941	-1.8968205825	-2.9934919518	-0.263253
C	 0.1241669111	-0.526262547	-2.5299757579	-0.052987
H	 0.6244748607	 2.2234688883	-0.1698844888	 0.118958
H	-0.8925783578	 1.8509170157	-0.9959957606	 0.118624
H	-0.8602192763	 1.9721683918	 0.7662341661	 0.113993
H	 0.5982972854	-0.0495663514	 0.9199822584	 0.102054
H	-0.9123011682	-0.4276068316	 0.1136639626	 0.111007
H	 3.3019100842	-2.0828170401	-0.0144437832	 0.130016
H	 3.9666084841	-0.4979423777	-0.3829962154	 0.123825
H	 2.6647051191	-0.6506873857	 0.8070959167	 0.125172
H	 3.2167693088	-0.6858424933	-3.079035652	 0.105225
H	 2.7430501704	-2.3414962656	-2.7046293377	 0.118844
H	 1.1315603629	-0.895784841	-4.5190668041	 0.091405
H	-0.6938118674	 0.1180712871	-2.8398704638	 0.090315
59.4208	131.7084	154.0689	173.1071	205.0847	276.6614	297.9726	374.9261	405.3537	433.805	572.0925	634.4556	670.324	770.2948	789.1293	833.9325	862.6996	888.3688	919.0203	963.1425	982.4498	1002.2187	1038.947	1063.112	1081.4049	1110.4438	1139.5067	1185.0187	1195.0495	1237.5055	1260.8939	1294.325	1314.7795	1348.9444	1364.292	1408.2846	1410.1457	1420.9404	1461.525	1478.0216	1479.4236	1491.8843	1498.2194	1507.2117	1714.8139	3013.1966	3015.6564	3018.3217	3034.7943	3052.2574	3058.8706	3070.3599	3104.593	3109.3757	3118.4069	3143.6873	3157.5439
CCC1=C(C)CC2OC12	CCC1=C(C)C[C@H]2O[C@@H]12	
InChI=1S/C8H12O/c1-3-6-5(2)4-7-8(6)9-7/h7-8H,3-4H2,1-2H3	InChI=1S/C8H12O/c1-3-6-5(2)4-7-8(6)9-7/h7-8H,3-4H2,1-2H3/t7-,8+/m1/s1
