20
gdb 86247	2.4721	1.31719	1.05428	3.312	76.35	-0.2373	0.0279	0.2652	1206.2642	0.171357	-440.324896	-440.315769	-440.314824	-440.359066	33.927	
C	 0.7708515669	 1.398641203	-0.365855216	-0.389757
C	 0.0572912852	 0.1005655858	 0.0304171147	 0.028793
C	 0.1161007463	-0.9979055179	-1.0533819583	-0.236462
C	 1.3700852266	-1.8141235684	-0.7154189775	 0.097843
O	 2.4852421445	-1.1383517771	-1.2870808243	-0.429509
C	 1.3947135416	-1.800138378	 0.8208282827	-0.17678
N	 0.6949633076	-0.5682978702	 1.1780276073	-0.039164
C	 0.560631389	-0.1891394297	 2.4703597918	 0.134696
O	 1.0466235936	-0.7791386004	 3.4165573423	-0.347004
H	 1.802311296	 1.1913364907	-0.6571274887	 0.144978
H	 0.2559693913	 1.8690678631	-1.2103501003	 0.113299
H	 0.7719644357	 2.109649798	 0.4661055085	 0.115526
H	-0.9840738583	 0.3303984336	 0.2838045425	 0.086921
H	-0.7639088548	-1.6444009901	-0.9835313898	 0.108859
H	 0.1676573175	-0.5926094724	-2.065569351	 0.12086
H	 1.3086987752	-2.8404879615	-1.1006664154	 0.075444
H	 3.2892146426	-1.5653435825	-0.9743397823	 0.286323
H	 0.8774054462	-2.6718287032	 1.2419486291	 0.117836
H	 2.4131494326	-1.805872388	 1.2236650592	 0.118895
H	-0.0509271952	 0.7291447854	 2.5798347756	 0.068404
46.9496	126.7196	155.9817	205.1505	253.5719	308.8582	320.4446	333.8222	394.4495	409.5205	427.959	530.7906	721.6056	773.1907	813.315	842.3745	887.1661	918.4071	956.5523	999.4877	1033.941	1038.9163	1051.0982	1111.2501	1150.5907	1192.6349	1204.7158	1216.0986	1258.0078	1294.5746	1329.8966	1355.9125	1365.0068	1382.631	1402.5829	1406.8366	1422.585	1444.2049	1476.3866	1492.9352	1504.5966	1507.9153	1784.2109	2927.7267	3010.2171	3027.5089	3030.7928	3039.7346	3066.3838	3068.3344	3104.342	3125.1879	3143.794	3819.025
CC1CC(O)CN1C=O	C[C@H]1C[C@@H](O)CN1C=O	
InChI=1S/C6H11NO2/c1-5-2-6(9)3-7(5)4-8/h4-6,9H,2-3H2,1H3	InChI=1S/C6H11NO2/c1-5-2-6(9)3-7(5)4-8/h4-6,9H,2-3H2,1H3/t5-,6+/m0/s1
