17
gdb 45705	3.01023	1.65313	1.10487	3.6555	74.09	-0.239	-0.0096	0.2294	1062.6367	0.139319	-418.076734	-418.06948	-418.068535	-418.10865	27.637	
O	 0.0401826425	-0.0212123414	 0.0112200569	-0.370844
C	 0.012188795	 1.1856228752	 0.0192909925	 0.370521
C	-1.1843948794	 2.1630470191	 0.0757633633	-0.303341
N	-0.6356102301	 3.5290062594	 0.0867982453	-0.349722
C	 0.6280761065	 3.3674510606	 0.0282214249	 0.411852
C	 1.8140093094	 4.2898878334	-0.0052209408	-0.336435
C	 2.9856839256	 3.3503620492	 0.3915425709	-0.224298
C	 2.5359208918	 1.9272636175	-0.040166202	-0.17918
N	 1.0903566356	 2.0531658523	-0.016554931	-0.102608
H	-1.8360542733	 2.0091011239	-0.7917197426	 0.147953
H	-1.7918239693	 1.9736510944	 0.9674928057	 0.147169
H	 1.9415192904	 4.6783344444	-1.0223450557	 0.137631
H	 1.6923500028	 5.1460776845	 0.6597614151	 0.141797
H	 3.9334862088	 3.6378468511	-0.0664154882	 0.118582
H	 3.1211026291	 3.3723872581	 1.4767771117	 0.12631
H	 2.8875236084	 1.6724693609	-1.0473111787	 0.125792
H	 2.8739967663	 1.1436515873	 0.6420819327	 0.138822
109.1494	144.9059	199.8077	260.7898	288.1148	513.9919	547.1824	583.1156	612.3278	651.0506	715.5282	750.8523	855.8976	891.1366	914.985	970.3617	976.5511	1015.2008	1056.6558	1072.6168	1091.6384	1174.5312	1184.8689	1219.0753	1225.9203	1262.123	1293.8619	1313.9172	1338.788	1360.1052	1412.0015	1441.6391	1473.0994	1498.2127	1527.1934	1731.4582	1837.7023	3032.7787	3049.5706	3051.23	3066.7039	3086.3797	3100.4067	3121.1687	3129.4623
O=C1CN=C2CCCN12	O=C1CN=C2CCCN12	
InChI=1S/C6H8N2O/c9-6-4-7-5-2-1-3-8(5)6/h1-4H2	InChI=1S/C6H8N2O/c9-6-4-7-5-2-1-3-8(5)6/h1-4H2
