19
gdb 73150	2.61733	1.59009	1.35069	0.781	74.67	-0.2482	0.0597	0.3079	1031.975	0.158104	-422.971545	-422.963313	-422.962369	-423.004274	31.63	
C	-0.1390496718	 1.4491803226	-0.2595512563	-0.493468
C	-0.0077047665	-0.0347427632	-0.0158800972	 0.179339
C	-1.2694779368	-0.8995283844	 0.192219977	-0.116199
O	-0.696190988	-1.559187945	 1.3434676315	-0.294125
C	 0.4866961748	-0.7377910445	 1.2937753188	 0.069753
C	 1.6528915969	-1.4112839602	 0.530816156	-0.335641
C	 1.1018194889	-0.8000447388	-0.7656531406	 0.410725
C	 1.1323516099	-1.2745544813	-2.1496601508	-0.269093
O	 1.9399002838	-0.1679372683	-1.7177409624	-0.272229
H	 0.8332561097	 1.9474518531	-0.2091326492	 0.132919
H	-0.5510664174	 1.6449578631	-1.2562743147	 0.125221
H	-0.8054464413	 1.9104926806	 0.4764823849	 0.119046
H	-2.1638217908	-0.3242666717	 0.467326856	 0.098668
H	-1.5284952813	-1.602675279	-0.6094347059	 0.099268
H	 0.6942659059	-0.2379115738	 2.2431503776	 0.078899
H	 2.6320910765	-0.9923753131	 0.7825717487	 0.118345
H	 1.6875941668	-2.5003742671	 0.6041337452	 0.116635
H	 1.6810843718	-2.1816427922	-2.3995028446	 0.118395
H	 0.321773129	-1.0195930368	-2.831906334	 0.113541
73.1975	179.2453	188.0147	223.7572	255.7248	323.073	368.2522	417.9837	465.6198	555.1087	647.04	724.2408	813.6107	858.1759	871.0737	873.8346	925.1095	944.8487	974.6699	1001.7002	1017.2837	1065.9154	1120.388	1127.7975	1140.0968	1151.5026	1162.7035	1169.2113	1186.2875	1232.4317	1253.4984	1283.203	1321.2284	1369.4157	1414.0372	1424.7975	1455.0547	1488.0152	1489.9384	1519.7331	1532.4937	3001.3731	3031.5266	3048.3612	3056.8905	3078.5103	3080.2186	3094.1289	3112.8918	3121.5546	3164.9698
CC12COC1CC21CO1	C[C@]12CO[C@H]1C[C@]12CO1	
InChI=1S/C7H10O2/c1-6-3-8-5(6)2-7(6)4-9-7/h5H,2-4H2,1H3	InChI=1S/C7H10O2/c1-6-3-8-5(6)2-7(6)4-9-7/h5H,2-4H2,1H3/t5-,6-,7+/m0/s1
