21
gdb 39052	2.35217	1.91585	1.28433	0.321	86.54	-0.2166	0.0181	0.2348	1051.3079	0.185994	-349.932819	-349.92542	-349.924476	-349.964127	31.189	
C	 0.0321075224	 1.6231483357	 0.1522372174	-0.316232
C	 1.2751008091	 0.7950203172	-0.0632607434	 0.005651
C	 2.3753946174	 0.6817953786	 0.9818840663	-0.306249
C	 2.7726578445	-0.7507131814	 1.2763489373	-0.08512
C	 1.9554667523	-1.7295047653	 1.6780539978	-0.029227
C	 0.4994613564	-1.681781605	 1.9678625168	-0.062733
C	-0.142012384	-0.5018868891	 2.6834782358	-0.312688
C	-0.4743060034	-0.7508758353	 1.241280733	-0.027739
C	-0.0672803283	 0.1134536317	 0.0853880898	-0.00891
H	-0.0913894487	 2.0805493548	 1.1292973734	 0.108315
H	-0.3651691665	 2.2113165683	-0.6681160171	 0.106046
H	 1.6581975132	 0.7788517384	-1.0798899033	 0.083029
H	 3.2501931289	 1.2355424072	 0.6246213689	 0.099456
H	 2.0800077321	 1.1911693557	 1.9069649489	 0.111503
H	 3.8228662699	-0.9987224979	 1.1435678308	 0.081888
H	 2.4011183294	-2.7099932494	 1.8343775026	 0.08064
H	 0.085916026	-2.6498861731	 2.2324301093	 0.080209
H	-0.9041529285	-0.7177689416	 3.4244739443	 0.109506
H	 0.4952006762	 0.33204808	 2.947415315	 0.117466
H	-1.4557460692	-1.1927775676	 1.0890229511	 0.085543
H	-0.4594538093	-0.2701473119	-0.8531273948	 0.079648
168.5048	192.9478	256.1515	311.8113	327.9219	396.0473	473.0108	553.7312	623.1197	692.1231	711.3719	747.8251	767.1028	812.5975	834.1258	853.0281	910.546	919.8557	934.9361	975.2315	997.3082	1003.523	1040.6018	1053.1103	1062.2423	1077.8378	1114.5798	1135.9965	1141.6746	1149.0777	1158.8408	1216.1091	1240.8319	1275.7809	1283.7393	1338.8117	1382.2936	1404.7021	1420.72	1423.976	1435.4176	1473.6043	1493.6319	1505.1446	1715.7784	3030.3622	3061.349	3120.0422	3123.7722	3129.8869	3132.5601	3140.6687	3142.1359	3151.7585	3162.8772	3209.2536	3230.1306
C1C2CC=CC3CC3C12	C1[C@H]2CC=C[C@H]3C[C@H]3[C@@H]12	
InChI=1S/C9H12/c1-2-6-4-8(6)9-5-7(9)3-1/h1-2,6-9H,3-5H2	InChI=1S/C9H12/c1-2-6-4-8(6)9-5-7(9)3-1/h1-2,6-9H,3-5H2/t6-,7+,8+,9-/m0/s1
