18
gdb 97093	2.45587	1.22666	1.10283	1.7642	81.31	-0.2519	0.0195	0.2713	1229.188	0.144849	-401.909014	-401.899194	-401.89825	-401.943941	34.959	
C	-0.0940498466	 1.4137179952	-0.0666366578	-0.341791
N	-0.2077176954	-0.0284538835	-0.2366182384	-0.326942
C	 0.5862498482	-0.6250469014	-0.9892991468	 0.455041
O	 1.6467125048	-0.1647668962	-1.7518386371	-0.270523
C	 1.9378440797	-1.5024851534	-2.2452765583	-0.105343
C	 0.7821435595	-2.0952376806	-1.3804260566	-0.049808
C	 1.2215057603	-2.9862072202	-0.2095668382	-0.443791
C	-0.3113877719	-2.6833049541	-2.1352445744	 0.300325
C	-1.2031612728	-3.1849535736	-2.765349142	-0.461762
H	 0.7309763462	 1.8681435331	-0.6272637679	 0.127286
H	-1.0328948296	 1.883436498	-0.3793255745	 0.131645
H	 0.0366644163	 1.6378979296	 0.9974684613	 0.128648
H	 1.79691598	-1.5658725306	-3.3255845354	 0.130397
H	 2.9452291182	-1.8182799463	-1.9621223314	 0.119851
H	 2.0584017264	-2.5288576154	 0.3262481707	 0.124872
H	 0.3921965015	-3.1136435784	 0.4896661814	 0.151617
H	 1.5275827893	-3.9714663281	-0.5719943466	 0.12972
H	-2.0014290543	-3.6176994843	-3.316164678	 0.200557
80.8423	91.5569	103.5432	159.475	186.0377	210.0738	243.8235	289.4408	357.8082	402.0683	514.4736	589.0683	631.9707	639.1127	653.3946	712.3613	762.2724	891.3564	934.5072	973.481	989.5508	1041.7726	1095.6675	1131.6431	1147.4466	1155.0034	1173.0938	1203.4412	1258.4023	1344.5154	1407.7073	1439.3312	1486.106	1492.4147	1494.4197	1497.2811	1513.4917	1852.0171	2239.4908	3019.1638	3044.7412	3063.3265	3086.7983	3089.893	3119.9684	3130.994	3135.2526	3501.7995
CN=C1OCC1(C)C#C	CN=C1OC[C@]1(C)C#C	
InChI=1S/C7H9NO/c1-4-7(2)5-9-6(7)8-3/h1H,5H2,2-3H3	InChI=1S/C7H9NO/c1-4-7(2)5-9-6(7)8-3/h1H,5H2,2-3H3/t7-/m0/s1
