23
gdb 113920	3.47002	0.72164	0.69106	2.0153	82.78	-0.2615	0.0789	0.3404	1761.9404	0.203453	-425.409357	-425.398608	-425.397664	-425.446142	38.913	
C	 0.2543303529	 1.4731151326	 0.1312994028	-0.39317
C	 0.0429509477	-0.0462537486	 0.1361931867	 0.041604
C	 0.3021782457	-0.6331285794	 1.5310930109	-0.381619
C	-1.3658138956	-0.3971075398	-0.3852493812	-0.219207
C	-1.5621588829	-1.874379781	-0.6376656053	 0.057224
O	-1.8945416539	-2.7239186744	 0.4705775998	-0.268251
C	-2.847320889	-2.5932463246	-0.5995865482	 0.025712
C	-4.1743232862	-1.9910076194	-0.2099961532	-0.084888
O	-4.930679178	-2.9043805797	 0.5685311468	-0.419085
H	 1.2620644026	 1.7318863689	 0.472088345	 0.112121
H	 0.1195715543	 1.8953928147	-0.870337189	 0.108276
H	-0.4584006782	 1.9693670675	 0.800951434	 0.113123
H	 0.7707299621	-0.4891242807	-0.5599404966	 0.072204
H	-0.3920930865	-0.2064266591	 2.2650002261	 0.110022
H	 0.1711587106	-1.7175574661	 1.5479088707	 0.137101
H	 1.3196151089	-0.4041337087	 1.8649105625	 0.106741
H	-2.1169130829	-0.0319361578	 0.3231739524	 0.102326
H	-1.5380704007	 0.1303237754	-1.3336208224	 0.098734
H	-0.7990755979	-2.3095518354	-1.2890510941	 0.087576
H	-2.9387038118	-3.4949672497	-1.2084733187	 0.095223
H	-4.026724925	-1.0408172223	 0.3199718958	 0.093231
H	-4.7688116312	-1.7875383135	-1.1075889943	 0.112219
H	-4.3834717348	-3.1378926489	 1.3271451396	 0.292783
38.9565	59.7574	96.5688	121.7219	200.443	229.6857	257.4006	262.7099	307.5196	375.7302	403.5399	417.4544	468.5008	490.7182	571.1792	776.4389	819.8468	846.5155	887.0322	931.8339	938.4099	958.7032	971.2849	1024.4442	1064.5257	1068.1754	1117.893	1134.2487	1168.6826	1182.5043	1196.9886	1230.7844	1261.5061	1295.7524	1313.8248	1354.358	1365.6694	1378.2277	1399.7534	1404.3554	1425.5458	1432.9586	1464.8293	1486.6956	1490.9534	1494.3138	1495.7342	1506.2983	1510.3226	2992.8237	3012.9089	3019.1494	3024.2311	3031.7266	3063.6387	3072.3929	3081.2058	3088.477	3094.1066	3098.9	3099.8487	3125.3802	3799.5738
CC(C)CC1OC1CO	CC(C)C[C@H]1O[C@H]1CO	
InChI=1S/C7H14O2/c1-5(2)3-6-7(4-8)9-6/h5-8H,3-4H2,1-2H3	InChI=1S/C7H14O2/c1-5(2)3-6-7(4-8)9-6/h5-8H,3-4H2,1-2H3/t6-,7+/m1/s1
