12
gdb 5035	3.40167	2.30883	1.37534	4.5514	59.66	-0.2328	-0.0369	0.1959	806.1349	0.084937	-418.510779	-418.504439	-418.503495	-418.541193	24.083	
O	-0.044978711	 1.3528853024	 0.0105491323	-0.403392
C	 0.0271299398	 0.0024283043	 0.002855282	 0.164517
C	 1.1850401279	-0.6925884854	-0.0080215466	-0.063671
O	 1.2494447824	-2.0519022588	-0.015723472	-0.181908
C	 0.0924470675	-2.7373798766	-0.0122634742	 0.077041
C	-1.1190074767	-2.1537697121	-0.0016492871	-0.266032
C	-1.2760390503	-0.7014469772	 0.0071192661	 0.337534
O	-2.3461800087	-0.116548057	 0.016880541	-0.365221
H	 0.8421279907	 1.7305167821	 0.0070580198	 0.301191
H	 2.1734808403	-0.2486866969	-0.011736881	 0.127513
H	 0.269737779	-3.8056240653	-0.0190958431	 0.145765
H	-2.013826831	-2.7635953595	 0.0005999229	 0.126664
132.5326	289.6484	310.5964	381.1315	420.8565	455.1136	522.1118	546.6162	591.2297	741.2799	766.8709	832.9573	860.1489	880.361	961.0433	1009.2962	1113.9543	1183.8932	1237.2875	1292.6487	1354.1493	1426.2472	1460.3745	1633.431	1677.5493	1756.1185	3202.2966	3210.1649	3228.6533	3804.4681
OC1=COC=CC1=O	Oc1coccc1=O	
InChI=1S/C5H4O3/c6-4-1-2-8-3-5(4)7/h1-3,7H	InChI=1S/C5H4O3/c6-4-1-2-8-3-5(4)7/h1-3,7H
