19
gdb 90127	2.98093	1.64806	1.45668	2.9658	76.23	-0.2251	0.0578	0.2829	968.4458	0.160591	-422.91696	-422.909807	-422.908863	-422.948034	29.928	
O	 0.2267694443	 1.4461320303	-0.1305552413	-0.408182
C	 0.1420655196	 0.043989061	-0.0578622628	 0.034521
C	 0.2938585686	-0.6003082673	 1.4071312891	-0.375119
C	-1.2611616256	-0.5877299573	 1.4795260269	 0.229225
C	-2.5906007336	-1.4264860255	 1.4236586773	-0.333617
C	-2.854252987	-0.3711090543	 0.2484034959	 0.041565
O	-2.9957570634	 0.8477329469	 0.9434114281	-0.259045
C	-1.8657042453	 0.7886897292	 1.8434051267	-0.096025
C	-1.3095250851	-0.5648857223	-0.0345700413	 0.018039
H	 1.1516476771	 1.6941203457	-0.0291981246	 0.287484
H	 0.7872665812	-0.418593549	-0.8171612999	 0.074413
H	 0.724594345	-1.6026946782	 1.3441139675	 0.108782
H	 0.8455341947	-0.0157059191	 2.1504015554	 0.097557
H	-2.4597441771	-2.4538670447	 1.0839182391	 0.103718
H	-3.2921450416	-1.369796392	 2.2614485576	 0.099276
H	-3.6432990063	-0.4809914285	-0.4960594475	 0.082728
H	-2.2126363153	 0.8211763374	 2.8835554163	 0.091493
H	-1.201722433	 1.631268631	 1.6467721518	 0.121798
H	-1.1835032073	-1.5831125333	-0.4150795943	 0.081389
169.8265	220.0341	275.3711	343.1898	369.4547	414.4239	464.4188	488.8732	606.4154	659.7627	747.6262	774.7454	792.9666	835.697	860.257	895.1822	941.4344	962.6559	971.4055	1005.1304	1010.6384	1031.8752	1057.7652	1105.7507	1120.7853	1150.0768	1158.3683	1176.1683	1192.9677	1207.8159	1215.5075	1243.4457	1257.8328	1288.7204	1302.285	1377.6305	1395.0534	1424.2283	1471.1379	1486.8045	1523.7857	2997.6346	3027.0113	3046.0868	3051.3452	3059.1929	3112.8724	3121.2743	3125.2307	3143.1236	3809.8854
OC1CC23CC(OC2)C13	O[C@H]1C[C@@]23C[C@@H](OC2)[C@@H]13	
InChI=1S/C7H10O2/c8-4-1-7-2-5(6(4)7)9-3-7/h4-6,8H,1-3H2	InChI=1S/C7H10O2/c8-4-1-7-2-5(6(4)7)9-3-7/h4-6,8H,1-3H2/t4-,5+,6+,7+/m0/s1
