18
gdb 97790	3.58434	0.71589	0.63557	3.6607	84.49	-0.2466	-0.0013	0.2453	1781.369	0.145805	-401.917416	-401.907597	-401.906653	-401.954269	33.755	
C	 0.0108418008	 1.265379029	 0.0958020582	-0.366599
C	-0.0737077393	-0.239009169	-0.2221187043	-0.316671
C	 0.6897169605	-0.6136489887	-1.4072921356	 0.090964
C	 1.3358128554	-0.9049040828	-2.3824369985	 0.081544
C	 2.0780889565	-1.2468561627	-3.5649680582	-0.207266
C	 3.3312944363	-2.0921607339	-3.4692272654	-0.232277
N	 2.1249963922	-2.6331830418	-4.0382669318	-0.067341
C	 1.4145465962	-3.6831230333	-3.470586577	 0.152314
O	 1.9147684997	-4.6852212941	-3.0255814292	-0.284037
H	 1.0460362632	 1.5676414193	 0.2749693117	 0.13132
H	-0.3765072733	 1.8611371338	-0.7349727189	 0.130565
H	-0.5761840179	 1.4964272696	 0.9892120062	 0.119963
H	 0.2881422847	-0.8183269136	 0.6366468378	 0.137532
H	-1.1235515834	-0.5275506351	-0.3604445864	 0.134845
H	 2.0335873224	-0.5156691198	-4.3695055629	 0.124319
H	 4.1470275376	-1.9035918678	-4.1613851887	 0.131914
H	 3.6173440544	-2.4521953603	-2.4852792635	 0.146389
H	 0.323397604	-3.5226744788	-3.5430428735	 0.092521
19.5251	56.715	113.6525	125.9511	168.8962	218.6058	249.7104	296.8663	349.9801	482.0836	509.9702	538.0889	631.3851	722.2846	786.7543	818.6923	925.4341	948.0102	1002.1643	1036.2368	1066.3202	1081.1367	1089.8745	1104.711	1128.2458	1158.495	1206.0712	1285.054	1348.2059	1363.3938	1396.7148	1410.585	1416.5338	1475.0046	1495.2053	1503.3189	1505.6592	1804.3552	2362.3559	2972.7265	3023.3456	3047.2213	3051.7755	3116.4558	3121.853	3126.0392	3127.4376	3211.8073
CCC#CC1CN1C=O	CCC#C[C@H]1CN1C=O	
InChI=1S/C7H9NO/c1-2-3-4-7-5-8(7)6-9/h6-7H,2,5H2,1H3	InChI=1S/C7H9NO/c1-2-3-4-7-5-8(7)6-9/h6-7H,2,5H2,1H3/t7-,8?/m0/s1
