20
gdb 61642	3.53789	0.7899	0.74876	3.0634	77.01	-0.2353	-0.0312	0.2041	1585.6391	0.168534	-440.259352	-440.249532	-440.248588	-440.294831	35.456	
C	 0.1921442695	 1.3579890637	-0.5845240924	-0.413416
C	-0.2858810836	 0.2936900946	 0.3785588535	 0.03369
C	 0.3312297671	-1.0627982022	 0.4088322312	-0.255939
N	 0.4987177382	-0.1453179521	 1.5358754607	-0.097466
C	 1.8226709347	 0.411902938	 1.7699679856	-0.181647
C	 2.5406768781	-0.4055886905	 2.8636344325	 0.053977
O	 3.8786394205	-0.0081776656	 2.9716476553	-0.439462
C	 1.8367217973	-0.2604507896	 4.1980998339	 0.140291
O	 2.4332738814	 0.1106691394	 5.1825932779	-0.269716
H	 1.2409656444	 1.2301904118	-0.8627216522	 0.12507
H	-0.4017302131	 1.318067266	-1.503565539	 0.126541
H	 0.0719845257	 2.360044997	-0.1582173993	 0.126791
H	-1.3488029508	 0.3598890854	 0.6080522359	 0.093869
H	-0.2673409776	-1.9503700704	 0.5957566424	 0.116367
H	 1.1918813072	-1.2236893455	-0.2404198824	 0.111421
H	 2.4808761591	 0.4129673484	 0.8884313247	 0.107827
H	 1.7234327895	 1.4514982886	 2.1040084432	 0.113248
H	 2.4663961056	-1.4720078341	 2.58127191	 0.095963
H	 4.0041122788	 0.2177460897	 3.9077209728	 0.293736
H	 0.7589200981	-0.5019386127	 4.2130177957	 0.118852
50.5742	81.0311	121.6987	139.1217	195.8633	215.9482	319.4328	329.8307	385.5349	395.5645	447.114	491.1987	521.4556	733.9999	758.0012	824.1659	840.6936	898.9837	913.2305	952.2164	1033.3394	1044.775	1060.9192	1113.7174	1120.6705	1150.6065	1154.6377	1172.8715	1192.9504	1239.4448	1293.9601	1321.7164	1337.1367	1372.3772	1386.1034	1405.2227	1423.3596	1447.063	1488.8137	1495.6313	1501.6214	1516.1267	1804.6498	2941.1789	2987.5065	2989.4958	3037.553	3060.2532	3087.089	3096.4506	3103.3389	3126.9143	3176.1449	3678.7478
CC1CN1CC(O)C=O	C[C@H]1CN1C[C@@H](O)C=O	
InChI=1S/C6H11NO2/c1-5-2-7(5)3-6(9)4-8/h4-6,9H,2-3H2,1H3	InChI=1S/C6H11NO2/c1-5-2-7(5)3-6(9)4-8/h4-6,9H,2-3H2,1H3/t5-,6+,7?/m0/s1
