19
gdb 60081	2.34063	1.13326	0.95932	1.4597	77.58	-0.258	0.0211	0.2791	1315.6147	0.155409	-422.967365	-422.957334	-422.95639	-423.002599	36.958	
C	 0.62282802	 0.5571480918	 0.5909687427	-0.401522
C	-0.5726409274	-0.0286301708	-0.1579684336	 0.127706
O	-1.5629220089	 0.9635092472	-0.4153326322	-0.430342
C	-0.1858486604	-0.7316271316	-1.4724415076	-0.303072
C	 0.6592154994	-1.9821680416	-1.2985893961	 0.198421
C	 1.678216666	-2.3363393279	-2.3100065972	-0.213788
O	 2.06824727	-1.7583834908	-1.070015935	-0.258306
C	 0.0753210767	-3.0444682699	-0.5100061489	 0.317205
C	-0.4392965496	-3.9131703638	 0.1423093469	-0.440958
H	 1.3515197967	-0.2143992339	 0.8513002896	 0.144168
H	 1.1409396453	 1.299217868	-0.0302404186	 0.10297
H	 0.2838960772	 1.0510379865	 1.5056845187	 0.120468
H	-1.0775970266	-0.759375148	 0.4837823805	 0.104143
H	-1.1295597572	 1.698761616	-0.8629468031	 0.274938
H	-1.1114688685	-0.9993480137	-1.9934434826	 0.119476
H	 0.3675821629	-0.0338598236	-2.1133069878	 0.093523
H	 1.9510116576	-3.3807025506	-2.4482915719	 0.125153
H	 1.7901995828	-1.6981730574	-3.1859854057	 0.117077
H	-0.884926336	-4.684454216	 0.7210688021	 0.202741
43.8849	88.038	133.4852	187.6071	230.2811	248.1875	281.6643	313.3793	337.1078	400.1742	446.27	461.83	553.5806	573.1555	627.5389	665.9276	727.2226	807.0217	850.0359	904.4434	925.4274	955.0844	974.5632	1060.5516	1109.9051	1131.4463	1134.9762	1166.2619	1205.5478	1260.3247	1290.0577	1334.8223	1362.5974	1398.9007	1409.4575	1425.6045	1464.8104	1489.1971	1496.212	1518.8616	2237.3494	3024.8425	3028.9083	3054.3743	3083.1094	3085.2826	3101.4986	3132.4316	3177.2238	3500.5939	3795.6622
CC(O)CC1(CO1)C#C	C[C@@H](O)C[C@]1(CO1)C#C	
InChI=1S/C7H10O2/c1-3-7(5-9-7)4-6(2)8/h1,6,8H,4-5H2,2H3	InChI=1S/C7H10O2/c1-3-7(5-9-7)4-6(2)8/h1,6,8H,4-5H2,2H3/t6-,7+/m1/s1
