20
gdb 35712	2.41611	1.28264	0.95977	3.9547	83.44	-0.2794	0.0321	0.3116	1282.5525	0.17193	-366.006943	-365.998245	-365.997301	-366.040965	32.596	
N	-0.0378282355	-1.2078383819	 0.0438254036	-0.340592
C	-0.0202910854	-0.0510862148	 0.0552560949	 0.28475
C	 0.0139967982	 1.402833271	 0.0846941024	-0.187086
C	-0.2055680106	 1.9999857154	 1.5155301684	-0.2251
C	 1.3291641301	 2.1503922561	 1.6638298795	-0.23639
C	 1.4723717705	 2.0097414967	 0.1217728231	 0.019606
C	 2.6180544882	 1.2329103041	-0.4557356747	 0.015974
C	 3.0130682536	 1.4128509036	-1.9019074891	-0.27104
C	 3.9071959257	 1.9365163469	-0.8074227823	-0.28094
H	-0.6382001956	 1.783493661	-0.705075811	 0.117851
H	-0.7163618542	 2.9633596956	 1.4499351417	 0.113673
H	-0.7288465621	 1.367991681	 2.2336590958	 0.124478
H	 1.7084427551	 3.06608501	 2.1215361441	 0.105782
H	 1.7694732007	 1.2925273812	 2.1803331353	 0.119113
H	 1.4222186706	 2.9985667394	-0.347267151	 0.078176
H	 2.7174887494	 0.225631492	-0.0606269956	 0.103329
H	 3.3311957212	 0.5377805596	-2.4567873537	 0.121385
H	 2.4605873445	 2.1360950332	-2.4932045024	 0.109439
H	 3.955703428	 3.0110259417	-0.6627266773	 0.110474
H	 4.8409027477	 1.4217563383	-0.6110249017	 0.117119
63.8426	96.8409	112.7943	192.1604	215.4486	291.2658	369.0363	420.7667	505.928	598.1898	683.3341	743.6364	790.4774	802.067	832.7143	890.931	905.8391	920.3958	941.9752	970.9885	999.7376	1027.7975	1058.7314	1075.7387	1083.8652	1098.7795	1137.14	1179.739	1197.2192	1212.393	1227.951	1240.8533	1258.7389	1270.5967	1275.6897	1317.22	1345.3041	1437.0252	1471.6636	1482.3425	1497.6022	1507.2358	2347.2001	3045.2828	3063.5675	3073.7258	3083.9268	3116.8367	3130.4456	3135.2092	3138.7607	3147.1672	3209.5545	3224.6633
N#CC1CCC1C1CC1	N#C[C@H]1CC[C@H]1C1CC1	
InChI=1S/C8H11N/c9-5-7-3-4-8(7)6-1-2-6/h6-8H,1-4H2	InChI=1S/C8H11N/c9-5-7-3-4-8(7)6-1-2-6/h6-8H,1-4H2/t7-,8+/m1/s1
