12
gdb 25424	4.60721	1.00089	0.82226	6.9483	73.31	-0.2636	-0.0636	0.1999	1259.43	0.079018	-431.723627	-431.716314	-431.71537	-431.755943	25.981	
O	-0.1015113734	-0.013615469	-0.0002409494	-0.248558
C	-0.0067503399	 1.18762516	 0.0087008336	 0.079319
C	 1.2558610641	 1.9410813063	 0.0009620193	 0.163638
C	 1.3724519169	 3.3213175264	 0.0111199864	-0.123904
N	 2.7061478877	 3.5781974363	-0.0010422737	-0.288843
C	 3.3502196886	 2.3592779365	-0.0189464614	 0.264886
N	 2.4997789633	 1.3594514409	-0.0177544914	-0.308582
C	 4.7684206964	 2.2726433269	-0.0353946844	 0.248722
N	 5.9251874565	 2.2540540432	-0.0483085155	-0.320179
H	-0.9066871223	 1.8441018956	 0.0241694832	 0.070839
H	 0.6352041266	 4.1076777158	 0.0258505602	 0.168406
H	 3.1492598454	 4.4839653809	 0.0019568131	 0.294256
121.685	126.1029	151.0087	229.0128	305.4382	477.8669	502.0792	563.4549	596.7361	597.4739	674.3208	735.1042	800.6326	806.4461	994.081	1023.7824	1029.6046	1124.2949	1217.7757	1328.7669	1354.7524	1422.3008	1443.6097	1532.9351	1563.4853	1816.4578	2356.2543	2869.7987	3274.3167	3645.3908
O=CC1=CNC(=N1)C#N	O=Cc1c[nH]c(n1)C#N	
InChI=1S/C5H3N3O/c6-1-5-7-2-4(3-9)8-5/h2-3H,(H,7,8)	InChI=1S/C5H3N3O/c6-1-5-7-2-4(3-9)8-5/h2-3H,(H,7,8)
