22
gdb 60615	2.71014	1.08121	0.9446	2.7345	83.15	-0.2319	-0.0083	0.2235	1370.9432	0.190764	-404.342844	-404.332143	-404.331199	-404.379123	38.415	
C	 1.6086552771	-0.4201584461	 0.865700523	-0.404837
C	 0.5508684979	-1.5349773975	 0.8263431705	-0.047728
N	-0.6965207267	-1.0203747079	 0.2751739995	-0.089396
C	-1.9394396	-1.7038598866	 0.6287422367	-0.259711
C	-1.6668577295	-0.3261011804	 1.128808344	 0.028877
C	-1.4635794885	-0.0592347669	 2.6051668464	-0.418706
C	 1.0942379945	-2.6877403558	-0.0369840069	 0.382782
C	 0.7481227801	-2.6966139654	-1.5114648973	-0.468022
O	 1.803096965	-3.5283140617	 0.4671941712	-0.309614
H	 2.5572846561	-0.8150307974	 1.2379144169	 0.136369
H	 1.7639951381	 0.0006653437	-0.1322256898	 0.126738
H	 1.2858355522	 0.3895564073	 1.5254744492	 0.12218
H	 0.4461072816	-1.9568463257	 1.8371357048	 0.080882
H	-2.6385272762	-1.8816793824	-0.184739348	 0.11284
H	-1.8841431801	-2.5086789643	 1.3620465344	 0.113142
H	-2.1529425139	 0.4959410297	 0.6045455288	 0.092311
H	-1.0097100337	-0.9050775933	 3.1266965234	 0.127452
H	-0.8356922299	 0.8226309346	 2.7708797516	 0.126232
H	-2.4328643386	 0.1357750002	 3.0762426873	 0.125835
H	 0.8898285845	-1.7072775405	-1.9555789836	 0.142723
H	 1.3576414264	-3.4433845081	-2.0219436039	 0.131974
H	-0.3123548363	-2.9382637353	-1.6393204484	 0.147675
44.4222	66.9186	126.084	138.2505	179.9068	206.6042	214.1704	245.5135	264.786	371.4563	422.7243	467.084	485.2287	560.4728	597.8814	743.468	782.9429	807.9115	902.9539	923.3669	949.5526	987.0366	1017.6715	1032.1634	1068.2342	1094.2824	1115.8495	1119.599	1146.3866	1188.1971	1190.7849	1245.2673	1313.6815	1328.6499	1349.0929	1382.2247	1397.2779	1403.4378	1423.0133	1452.4843	1466.8751	1488.8834	1490.3633	1496.5528	1502.1514	1510.7057	1809.7712	2988.2312	3038.4969	3045.8526	3048.1516	3082.8735	3095.4442	3103.0881	3110.8226	3118.9078	3127.2563	3130.7633	3154.1106	3169.5696
CC(N1CC1C)C(C)=O	C[C@@H](N1C[C@H]1C)C(=O)C	
InChI=1S/C7H13NO/c1-5-4-8(5)6(2)7(3)9/h5-6H,4H2,1-3H3	InChI=1S/C7H13NO/c1-5-4-8(5)6(2)7(3)9/h5-6H,4H2,1-3H3/t5-,6-,8?/m1/s1
