17
gdb 129933	2.93014	1.47361	1.04586	1.508	76.28	-0.1863	0.0325	0.2188	1127.2012	0.138343	-414.167307	-414.159032	-414.158088	-414.20098	30.987	
N	 0.089325616	 1.3884198159	 0.2724843792	-0.619813
C	-0.0088233611	 0.0038069068	 0.0645655939	 0.115673
C	-1.1163525987	-0.8158112473	-0.00246686	-0.102821
N	-0.641011944	-2.0873515036	-0.1479700275	-0.201288
N	 0.7015423105	-2.1502678782	-0.1829726341	-0.301055
C	 1.0916685476	-0.8849407307	-0.051125103	 0.350735
N	 2.4325809942	-0.4592383687	-0.0716644819	-0.179439
C	 3.2071377937	-0.5778211648	 1.1793023735	-0.226335
C	 3.4710342407	-1.4808665799	 0.0289705564	-0.217982
H	 0.982734809	 1.7278529795	-0.0665171645	 0.250004
H	-0.6549673949	 1.9090510024	-0.1742118704	 0.239341
H	-2.1724744116	-0.6020913386	 0.0358272169	 0.120984
H	-1.1721432306	-2.9287826202	-0.2818400162	 0.270249
H	 3.8713768521	 0.2542190875	 1.3927057243	 0.115542
H	 2.6947877956	-1.0002915741	 2.0393078267	 0.125935
H	 3.141378194	-2.5112134526	 0.1130055105	 0.145429
H	 4.3374335074	-1.3149429233	-0.6045586137	 0.114842
26.4498	164.4018	178.9882	237.1904	283.164	309.9202	344.5866	448.7203	537.2386	579.6654	644.0173	716.28	725.155	752.0351	816.6896	821.5774	876.5799	918.6395	952.9764	1038.3799	1069.4435	1101.3809	1112.997	1131.0197	1174.3404	1178.9535	1209.8145	1230.7944	1319.7525	1342.986	1429.8448	1483.935	1487.4023	1511.4098	1544.3378	1633.4126	1656.3972	3112.1508	3120.894	3200.3743	3217.3341	3261.1214	3518.51	3610.6763	3693.7428
NC1=CNN=C1N1CC1	Nc1c[nH]nc1N1CC1	
InChI=1S/C5H8N4/c6-4-3-7-8-5(4)9-1-2-9/h3H,1-2,6H2,(H,7,8)	InChI=1S/C5H8N4/c6-4-3-7-8-5(4)9-1-2-9/h3H,1-2,6H2,(H,7,8)
