18
gdb 32005	2.78866	1.33016	0.9551	3.5549	85.75	-0.2073	-0.0416	0.1658	1246.2545	0.148541	-401.996121	-401.987776	-401.986832	-402.029502	31.44	
C	-0.0244713174	 1.5259514438	 0.27533511	-0.375349
C	-0.0334705731	 0.0315072932	-0.0905146295	-0.27411
C	-1.4134633251	-0.5428629134	-0.176597876	 0.402052
C	-2.0085424668	-1.0474744922	-1.2765111928	-0.262419
C	-3.3509514456	-1.5502304229	-1.1701131779	-0.062786
C	-4.0011953678	-1.5134659591	 0.0119223069	-0.162266
C	-3.3659057582	-0.9694331827	 1.1943495329	 0.375401
N	-3.9192273026	-0.9015226003	 2.3362686886	-0.538772
O	-2.0566780224	-0.5029447668	 1.0198581066	-0.279705
H	 1.0025288434	 1.8924506112	 0.3572541207	 0.119864
H	-0.539430947	 2.1182644604	-0.4870243802	 0.124596
H	-0.5259656045	 1.6930462677	 1.2316903813	 0.13763
H	 0.4671227415	-0.1296786439	-1.0496119009	 0.114231
H	 0.5294894371	-0.528411708	 0.6671456603	 0.124327
H	-1.4722685821	-1.0678333108	-2.2155274847	 0.105428
H	-3.8352412082	-1.9598263484	-2.0505196019	 0.112417
H	-5.0110898463	-1.8787789048	 0.1430871916	 0.122837
H	-3.2865151349	-0.4839793331	 3.019018835	 0.216624
62.3811	121.2754	148.8693	201.5067	273.0425	335.6467	420.3755	467.1345	524.0829	535.4399	651.6989	719.7403	726.2716	786.6924	807.6067	841.7685	865.7623	871.4474	961.5888	990.1044	1004.2741	1029.6353	1081.715	1099.6597	1107.3751	1162.5916	1215.6375	1260.8228	1289.9519	1355.4122	1389.1662	1408.4136	1433.6982	1473.6819	1495.958	1508.0851	1614.5426	1679.0097	1740.8095	3030.7308	3046.0833	3088.7144	3117.2356	3130.4202	3184.6093	3222.5959	3229.3421	3489.1702
CCC1=CC=CC(=N)O1	CCC1=CCC=C([NH])O1	
InChI=1S/C7H9NO/c1-2-6-4-3-5-7(8)9-6/h3-5,8H,2H2,1H3	InChI=1S/C7H10NO/c1-2-6-4-3-5-7(8)9-6/h4-5,8H,2-3H2,1H3
