20
gdb 22392	3.69834	0.82479	0.78083	1.973	79.29	-0.2348	0.0168	0.2516	1537.1834	0.16877	-440.228652	-440.218649	-440.217704	-440.265513	35.084	
C	 0.006755958	 1.5004410634	-0.0818635587	-0.478346
C	 0.0082380946	-0.0033238412	-0.0157416602	 0.37817
C	 0.0015701329	-0.6966329725	 1.3226290934	-0.301152
C	 1.2084507643	-0.3527044015	 2.1907933972	 0.162988
C	 1.4481695433	-1.2089875241	 3.4550131454	-0.29834
C	 2.8147381135	-1.5126633028	 2.8089707361	-0.056888
O	 2.4586141299	-0.7918058439	 1.6113513137	-0.284572
N	 0.0124973722	-0.7704873042	-1.0383320023	-0.163987
O	 0.0284341748	-0.0440007446	-2.2410221689	-0.400485
H	 1.0220145343	 1.8785514908	-0.2495908715	 0.152278
H	-0.6058645505	 1.8442341348	-0.9177883834	 0.149135
H	-0.366090337	 1.9371570027	 0.8481270366	 0.115812
H	-0.9013330694	-0.4064193199	 1.8809149781	 0.103228
H	-0.0337405887	-1.7768710114	 1.1565912103	 0.115343
H	 1.2385702504	 0.7287005333	 2.3882957088	 0.073105
H	 1.4673798177	-0.6743993426	 4.4056499196	 0.109739
H	 0.7830956806	-2.0711369386	 3.5392952483	 0.111868
H	 3.6767465898	-1.0604095212	 3.3162740128	 0.100266
H	 3.0386555534	-2.5654058395	 2.6023679617	 0.10686
H	 0.0047848856	-0.7472809069	-2.8980107471	 0.304979
36.4765	52.6385	73.5766	80.1984	135.6676	279.0055	299.3327	337.8101	382.9322	396.7148	464.1441	534.4393	648.9477	738.7278	812.2529	817.0776	871.117	897.0211	964.9896	978.1367	997.4165	1019.3428	1030.712	1065.98	1097.1685	1128.234	1165.4784	1207.5181	1227.5566	1255.6285	1274.1356	1285.3579	1316.541	1369.2254	1389.4215	1398.8598	1406.3118	1457.4865	1475.5784	1486.8086	1489.5979	1532.1221	1730.8613	2990.3908	3002.9334	3014.6758	3040.4251	3057.7802	3076.3099	3096.7106	3101.975	3132.792	3135.6788	3823.3659
CC(CC1CCO1)=NO	CC(=NO)C[C@H]1CCO1	
InChI=1S/C6H11NO2/c1-5(7-8)4-6-2-3-9-6/h6,8H,2-4H2,1H3	InChI=1S/C6H11NO2/c1-5(7-8)4-6-2-3-9-6/h6,8H,2-4H2,1H3/t6-/m1/s1
