16
gdb 130343	2.71249	1.56046	1.04323	4.1324	73.	-0.2072	0.0239	0.231	1105.0112	0.12655	-434.029095	-434.021178	-434.020233	-434.061765	29.721	
N	-0.1086902814	 1.1839708525	-0.2795353602	-0.507156
H	-0.2316013148	 0.2197365915	-0.5731941982	 0.234945
H	 2.1048780937	 0.4239065127	 2.8499138389	 0.304287
H	-0.488781887	 1.7820784496	-1.0063284879	 0.233663
C	-0.7586062902	 1.4229353174	 0.9868290568	-0.153993
C	-2.2699713651	 0.9393970972	 1.2581346242	-0.19107
N	-1.6808183609	 0.0788532516	 2.2878927852	 0.085727
N	-1.9303999196	-0.6689981888	 3.3573935311	-0.301828
C	-0.6982639691	-0.8094977684	 3.8879613327	-0.054518
C	 0.3047156623	-0.1041757705	 3.1695813847	 0.07176
O	 1.620987724	-0.0758481686	 3.5137298534	-0.436923
C	-0.3987350645	 0.4700779296	 2.1222739476	 0.243825
H	-0.6374402474	 2.4805761031	 1.2422881899	 0.107317
H	-2.9483848216	 1.7028729865	 1.6502181779	 0.129559
H	-2.7422796376	 0.3970999262	 0.4333860691	 0.118737
H	-0.5521777308	-1.4171700915	 4.7685764249	 0.11567
80.2214	126.9378	213.6457	235.2104	304.7897	351.2548	390.1836	460.5358	542.0281	644.06	656.8716	662.7243	742.8041	767.5453	836.6577	844.2281	861.2574	987.8006	1055.6418	1096.3658	1132.4331	1133.438	1183.195	1219.4504	1232.405	1241.2332	1276.3828	1341.6709	1385.6305	1413.9954	1453.3092	1491.4476	1515.4792	1632.4233	1654.4331	3045.6795	3059.6818	3106.5231	3250.9508	3494.2719	3581.193	3843.0408
[NH3+]C1CN2N=CC([O-])=C12	N[C@H]1Cn2ncc(O)c12	
InChI=1S/C5H7N3O/c6-3-2-8-5(3)4(9)1-7-8/h1,3,9H,2,6H2	InChI=1S/C5H7N3O/c6-3-2-8-5(3)4(9)1-7-8/h1,3,9H,2,6H2/t3-/m0/s1
