16
gdb 105126	2.44448	1.22265	0.95852	1.5273	75.49	-0.2988	-0.0269	0.2719	1236.2154	0.123715	-396.930214	-396.921112	-396.920168	-396.964452	32.283	
C	 0.2253528228	 1.5208478211	 0.2059393618	-0.397352
C	-0.215933039	 0.0967808267	-0.1450573136	-0.249213
C	 0.5826204999	-0.4875802163	-1.2984764557	 0.161277
N	 1.9232783064	-0.9989603925	-0.972203478	-0.324882
C	 0.8989284628	-1.9637635177	-1.3964637454	-0.245705
C	 0.414198132	-2.8900047915	-0.4011113113	 0.346495
N	 0.0030602158	-3.6388972983	 0.3770492505	-0.32197
C	 0.4210978421	 0.1772850884	-2.5767879828	 0.257655
N	 0.3050410436	 0.7227620038	-3.5899074181	-0.327438
H	 1.2824885496	 1.5392036715	 0.4865052309	 0.137455
H	 0.0815522133	 2.2039012146	-0.6370718586	 0.140237
H	-0.3571193509	 1.9006918975	 1.0491388118	 0.130496
H	-0.0845327112	-0.5649097267	 0.7154044769	 0.142081
H	-1.278434403	 0.0752594635	-0.4114944471	 0.127817
H	 2.5831486999	-0.8375642932	-1.7296638162	 0.265573
H	 0.9609354659	-2.382371371	-2.3970084952	 0.157473
78.8839	111.6238	121.0573	154.1676	217.0271	254.0291	277.4144	354.9226	407.2613	496.9243	560.0004	595.0697	639.7027	673.493	785.1504	824.4583	906.4885	947.3355	981.8358	1009.208	1076.2762	1100.3825	1115.6044	1204.8734	1242.0444	1308.6713	1330.0864	1374.9938	1414.5633	1430.1997	1474.4589	1499.3819	1506.9621	2351.1759	2365.2938	3044.7078	3053.0236	3099.3251	3121.5171	3124.7696	3158.2388	3511.9146
CCC1(NC1C#N)C#N	CC[C@]1(N[C@H]1C#N)C#N	
InChI=1S/C6H7N3/c1-2-6(4-8)5(3-7)9-6/h5,9H,2H2,1H3	InChI=1S/C6H7N3/c1-2-6(4-8)5(3-7)9-6/h5,9H,2H2,1H3/t5-,6-/m0/s1
