19
gdb 20028	3.44651	1.5927	1.30118	1.8517	72.49	-0.2121	0.0807	0.2928	1011.8842	0.164643	-364.989816	-364.98146	-364.980516	-365.022804	30.741	
C	-0.321695903	 1.1761592138	-0.4566577959	-0.235028
O	-0.5616052128	-0.0750311478	-1.0732586962	-0.236131
C	 0.6120910081	-0.7367288805	-1.4283754986	 0.102365
C	 1.3577383049	-1.5571837556	-0.394319438	-0.338627
C	 0.6216864037	-2.2457543181	-1.5190498375	-0.001376
N	-0.4570889062	-3.1594925407	-1.2622383792	-0.085903
C	-1.5799494448	-2.8245113908	-0.3944693334	-0.225865
C	-1.7647352211	-2.9259404074	-1.8708125236	-0.215964
H	 0.2490205198	 1.0648179743	 0.475934276	 0.112555
H	 0.2336462114	 1.8508238209	-1.1251488197	 0.109363
H	-1.2951611153	 1.6190538846	-0.23436693	 0.128289
H	 1.2088356391	-0.1968446913	-2.1672482158	 0.083815
H	 2.4421208077	-1.5595482014	-0.3733635208	 0.112184
H	 0.8832824176	-1.6197521958	 0.5800552892	 0.123699
H	 1.2450343188	-2.6236195374	-2.3261346201	 0.098135
H	-1.9062916994	-3.6342414385	 0.2537988312	 0.106876
H	-1.6355597203	-1.8301787982	 0.0333024559	 0.128296
H	-1.9173514537	-1.9908352256	-2.4034843317	 0.124648
H	-2.2399769745	-3.7978447044	-2.3130204819	 0.108669
82.2113	101.3598	156.7816	199.2897	230.2282	273.2534	346.5577	420.3928	504.3221	646.1039	691.8659	785.5914	821.5032	833.7676	893.2745	918.1984	999.6009	1021.3246	1045.7911	1059.5831	1101.3218	1107.5168	1132.6006	1133.6914	1150.0682	1167.4714	1179.8041	1182.7901	1187.8347	1219.2507	1258.8002	1360.0079	1382.8108	1406.1623	1471.8164	1479.8153	1485.1429	1491.293	1506.2633	1514.8568	2987.1582	3040.4634	3070.0302	3103.8146	3111.4749	3120.6207	3128.7584	3131.3245	3191.3146	3216.2358	3218.5357
COC1CC1N1CC1	CO[C@H]1C[C@H]1N1CC1	
InChI=1S/C6H11NO/c1-8-6-4-5(6)7-2-3-7/h5-6H,2-4H2,1H3	InChI=1S/C6H11NO/c1-8-6-4-5(6)7-2-3-7/h5-6H,2-4H2,1H3/t5-,6+/m1/s1
