20
gdb 65217	3.12698	1.33931	1.12282	1.7781	78.14	-0.2475	0.0238	0.2713	1148.0608	0.171858	-403.154872	-403.146406	-403.145462	-403.188274	32.213	
C	-0.0512291231	 1.5089312313	 0.2971760034	-0.468914
C	-0.0058851013	 0.0255446528	-0.0186855891	 0.337191
C	 1.2912578173	-0.5672683615	-0.5099508649	-0.301366
C	 0.8000345705	-0.869063466	 0.888759735	-0.30909
C	-1.3125987868	-0.4927330484	-0.5915457675	 0.030043
C	-1.6515466754	 0.0003048231	-2.0295003979	-0.195256
N	-1.8382495379	-1.2238765217	-2.8289456553	-0.262904
C	-1.6077844486	-2.1839109896	-2.0380978512	 0.116475
O	-1.2827537469	-1.940412134	-0.7447461961	-0.235754
H	 0.9004625453	 1.8431968364	 0.7200522644	 0.120447
H	-0.2434244567	 2.1112615894	-0.5983292257	 0.122143
H	-0.8376733949	 1.7358901918	 1.0271850563	 0.117902
H	 1.2477308443	-1.3728760721	-1.2340056856	 0.120952
H	 2.1395281144	 0.0981677798	-0.6299326921	 0.109053
H	 1.3121105254	-0.4077302049	 1.7266291745	 0.107443
H	 0.4295818815	-1.8694090387	 1.0767009944	 0.12687
H	-2.125862013	-0.2732828326	 0.1110489485	 0.089092
H	-2.5603578751	 0.6083570982	-2.0630936405	 0.117274
H	-0.8385914773	 0.5960708015	-2.4594286833	 0.118298
H	-1.6431070119	-3.2366411448	-2.2968614572	 0.140102
65.3027	85.5538	199.1599	221.133	258.4909	317.0202	339.4708	442.0055	471.8442	515.4364	694.1889	746.5791	790.0155	864.9418	877.6133	887.8627	928.1705	953.4141	960.4967	978.6266	990.5537	1026.4425	1047.8317	1062.5663	1070.0468	1087.6974	1125.6237	1130.4553	1190.4327	1216.0888	1284.12	1306.968	1324.0232	1340.9206	1362.0997	1392.0809	1418.0265	1461.2158	1491.7702	1493.6187	1499.3293	1510.7469	1713.9663	3021.141	3026.0953	3041.5107	3079.8436	3082.7591	3104.99	3134.6412	3138.6324	3213.6391	3217.4879	3232.3437
CC1(CC1)C1CN=CO1	CC1(CC1)[C@H]1CN=CO1	
InChI=1S/C7H11NO/c1-7(2-3-7)6-4-8-5-9-6/h5-6H,2-4H2,1H3	InChI=1S/C7H11NO/c1-7(2-3-7)6-4-8-5-9-6/h5-6H,2-4H2,1H3/t6-/m1/s1
