21
gdb 89470	2.15162	1.63583	1.44897	1.5116	78.28	-0.2377	0.0695	0.3071	1084.9539	0.180006	-424.208516	-424.199077	-424.198133	-424.242074	35.755	
C	-0.4979151636	 1.3367797129	-0.0876697627	-0.412367
C	 0.1648661613	-0.0218694827	-0.1317093186	 0.112953
O	 1.4133188922	-0.0359517696	-0.8859185768	-0.361579
C	 2.1446018204	-0.6372125778	 0.2061023896	 0.35694
C	 2.9402112284	-1.8464781743	-0.2016756841	-0.485286
C	 2.737593854	 0.4377620893	 1.1329436764	-0.123427
O	 1.5044123411	 0.5136161341	 1.8930238052	-0.33199
C	 0.8947910239	-0.5519011608	 1.1266238285	 0.32069
C	 0.2717864498	-1.6144053694	 1.9892373514	-0.48498
H	-0.6753283933	 1.6998152187	-1.1045825339	 0.123906
H	-1.464441017	 1.2727797328	 0.4241442296	 0.114428
H	 0.1311303828	 2.0534704667	 0.4444557575	 0.134815
H	-0.5195462188	-0.7749845409	-0.5499610541	 0.068258
H	 3.7170742062	-1.5599944445	-0.9196470799	 0.1337
H	 3.4284468291	-2.3080793565	 0.6621609346	 0.120869
H	 2.2987612552	-2.5902272743	-0.6831674018	 0.126711
H	 3.5708907289	 0.1082065785	 1.7673279008	 0.096811
H	 2.9914492441	 1.3812769823	 0.6388004248	 0.108177
H	-0.5611390723	-1.1916975171	 2.5627771919	 0.133676
H	-0.117172712	-2.4363809721	 1.3804903192	 0.121726
H	 0.9981701898	-2.0157595253	 2.7016942625	 0.125969
104.2495	174.1835	180.909	188.4289	208.4646	228.0026	247.1174	314.6711	349.9107	421.7101	450.3513	551.7815	617.4197	667.0648	702.2583	832.7769	856.6731	883.0645	895.6588	947.034	964.7479	999.1323	1010.3739	1078.2858	1117.9985	1147.0844	1159.0106	1177.5725	1194.2355	1212.3319	1246.9757	1273.7329	1339.4323	1366.5087	1388.8508	1404.217	1408.8441	1414.8147	1478.3361	1481.3775	1484.1752	1490.3997	1490.6016	1494.8578	1505.418	2988.6631	3011.0439	3033.3475	3034.904	3040.4851	3078.155	3100.1341	3101.8099	3106.5617	3114.5063	3116.895	3135.8648
CC1OC2(C)COC12C	C[C@H]1O[C@@]2(C)CO[C@@]12C	
InChI=1S/C7H12O2/c1-5-7(3)6(2,9-5)4-8-7/h5H,4H2,1-3H3	InChI=1S/C7H12O2/c1-5-7(3)6(2,9-5)4-8-7/h5H,4H2,1-3H3/t5-,6+,7+/m1/s1
