19
gdb 41803	2.43951	1.98889	1.5106	2.3301	75.33	-0.2398	0.0145	0.2543	950.1547	0.162594	-423.03534	-423.028262	-423.027318	-423.066749	28.631	
C	 0.2503829834	 1.7286303109	 0.1638250078	-0.289411
C	 1.5751166597	 1.9450771995	-0.5971057615	-0.214019
C	 2.1668545742	 0.5162583552	-0.6009487787	 0.02012
O	 1.0162787637	-0.3055971475	-0.7816186797	-0.240772
C	-0.0099567594	 0.2002132551	 0.0451011448	 0.216652
O	-0.0852730511	-0.502907115	 1.2601060604	-0.255952
C	 0.9169874991	-0.3249093891	 2.2435003975	-0.130446
C	 2.3579748051	-0.1346044901	 1.8452330489	-0.065771
C	 2.9030350897	 0.2150787072	 0.6806490458	-0.069641
H	 0.3235770139	 2.0279529982	 1.2115378371	 0.116924
H	-0.5747076362	 2.291763731	-0.2763410707	 0.112668
H	 1.3850292081	 2.2621239737	-1.6265901756	 0.106264
H	 2.2314285542	 2.6795736875	-0.1258274108	 0.105056
H	 2.8207499477	 0.339963033	-1.4594278677	 0.082485
H	-0.9588727247	-0.0353863063	-0.4422999231	 0.092638
H	 0.6520478954	 0.520270185	 2.9061703847	 0.106123
H	 0.8462209	-1.2205546101	 2.8726477885	 0.123616
H	 3.0246990878	-0.2612154992	 2.6979721372	 0.094503
H	 3.9811250593	 0.3579551409	 0.6426763852	 0.088962
101.3024	192.116	255.8127	306.1067	424.7596	443.8796	480.9749	594.6422	655.3081	718.2269	762.5257	811.3178	823.8509	839.0518	885.1843	919.0358	953.3958	977.8683	991.5938	1006.0866	1022.1771	1039.3954	1084.1238	1092.4474	1135.6895	1199.2631	1222.8892	1259.7468	1275.4436	1290.2978	1307.6461	1315.5813	1353.2124	1391.1047	1402.5131	1416.8225	1426.2314	1479.6948	1489.1669	1501.4872	1735.8701	2928.8823	3044.5446	3057.6114	3073.9429	3078.3793	3088.1371	3110.4562	3124.8606	3126.897	3152.7443
C1CC2OC1OCC=C2	C1C[C@@H]2O[C@H]1OCC=C2	
InChI=1S/C7H10O2/c1-2-6-3-4-7(9-6)8-5-1/h1-2,6-7H,3-5H2	InChI=1S/C7H10O2/c1-2-6-3-4-7(9-6)8-5-1/h1-2,6-7H,3-5H2/t6-,7-/m1/s1
