17
gdb 79412	2.7022	1.63248	1.26434	3.4626	74.4	-0.246	-0.0361	0.2099	1020.2354	0.134247	-421.688968	-421.681208	-421.680264	-421.721157	30.075	
C	-0.181727708	 1.6455454046	 0.1939623292	-0.424588
C	-0.0044142812	 0.1471022325	-0.0198978432	-0.140544
C	 0.4538592201	-0.5930573001	-1.3390634145	-0.071525
C	 1.6182983859	-0.4415455072	-2.3740332614	 0.004183
C	 2.4357754302	 0.3763711676	-1.3861251651	-0.246949
C	 1.7934887943	-0.8654300398	-0.6621497002	 0.250591
O	 2.2620245309	-1.7029255836	-1.7963859505	-0.379235
C	 1.1871765407	-0.617697982	 0.7376966079	 0.320975
O	 1.3833750908	-0.9142996021	 1.8701169779	-0.282136
H	 0.7044400122	 2.2335504592	-0.0513756158	 0.131291
H	-1.0119019426	 2.0191664954	-0.4132656794	 0.132765
H	-0.4210660456	 1.8365152094	 1.2450532006	 0.140027
H	-0.9291322117	-0.3463558795	 0.3000871442	 0.125618
H	-0.1406944096	-1.4895893453	-1.5167760123	 0.101119
H	 1.5837569706	-0.4212492632	-3.4653468043	 0.102888
H	 3.5167640142	 0.2976952936	-1.493865488	 0.12434
H	 2.1022385888	 1.3797944705	-1.1326858449	 0.111179
96.4127	173.8435	191.7634	241.694	279.1977	361.3802	480.9859	526.2565	571.2224	595.7306	654.5892	738.1335	765.1987	816.8364	838.0473	896.1484	925.6696	958.7992	986.8949	1031.783	1058.3104	1071.8242	1084.9973	1114.2398	1147.1651	1182.0353	1187.8911	1196.3936	1217.617	1240.4623	1328.6691	1352.1831	1412.4698	1479.7208	1494.7459	1504.3336	1898.5622	3044.1137	3048.9261	3090.9811	3106.4907	3108.166	3111.1676	3130.0667	3185.3953
CC1C2C3CC2(O3)C1=O	C[C@H]1[C@H]2[C@H]3C[C@@]2(O3)C1=O	
InChI=1S/C7H8O2/c1-3-5-4-2-7(5,9-4)6(3)8/h3-5H,2H2,1H3	InChI=1S/C7H8O2/c1-3-5-4-2-7(5,9-4)6(3)8/h3-5H,2H2,1H3/t3-,4+,5-,7-/m0/s1
