18
gdb 126178	3.9765	1.01285	0.86958	4.0662	73.37	-0.2551	0.0012	0.2563	1343.2696	0.148779	-435.295438	-435.286484	-435.28554	-435.329883	32.175	
C	-0.0688355605	 1.5520474996	 0.01075673	-0.387572
C	-0.1274046383	 0.0281223457	-0.100291746	-0.175162
C	 0.819620292	-0.5136460106	-1.1886642381	 0.033873
O	 2.1649296299	-0.1424197955	-0.9438219981	-0.436458
C	 0.6857003514	-2.0050569095	-1.3197744999	 0.342336
N	 1.6600203413	-2.8199669488	-0.9463483585	-0.29524
N	 1.1259721577	-4.0417077923	-1.187976729	-0.17889
C	-0.1176567429	-3.9101259632	-1.6883540784	 0.017129
N	-0.4341647739	-2.6344754785	-1.7845861808	-0.306594
H	 0.9548078593	 1.8807894541	 0.2074581731	 0.134003
H	-0.4024868543	 2.0284608781	-0.9181159672	 0.112001
H	-0.7104576794	 1.9130275912	 0.8201457143	 0.106931
H	 0.1528785435	-0.4331297739	 0.8555441075	 0.090989
H	-1.1450122318	-0.3072853886	-0.330914085	 0.112456
H	 0.5319457676	-0.0618857338	-2.1481766444	 0.09974
H	 2.5973012633	-0.8934987507	-0.5198723197	 0.293933
H	 1.6632573148	-4.8731717337	-1.0054057112	 0.285016
H	-0.7369405597	-4.7508936297	-1.9633845387	 0.151509
44.9536	98.0184	124.9203	208.4451	225.7003	261.1048	284.6921	359.2156	437.8152	517.5862	530.4253	676.1399	724.8343	781.0997	824.7096	860.5327	901.7297	992.4996	997.0173	1017.7123	1071.1271	1109.4021	1122.8423	1136.6025	1174.4651	1243.2515	1278.9295	1303.2334	1334.4704	1360.1493	1379.7186	1406.1055	1424.3	1471.9035	1477.6701	1495.4442	1498.1169	1509.8206	1555.6741	3012.8443	3027.9633	3035.969	3072.4072	3100.9217	3124.839	3257.7737	3666.7191	3784.6636
CCC(O)C1=NNC=N1	CC[C@@H](O)c1n[nH]cn1	
InChI=1S/C5H9N3O/c1-2-4(9)5-6-3-7-8-5/h3-4,9H,2H2,1H3,(H,6,7,8)	InChI=1S/C5H9N3O/c1-2-4(9)5-6-3-7-8-5/h3-4,9H,2H2,1H3,(H,6,7,8)/t4-/m1/s1
