17
gdb 49654	2.69912	1.76295	1.60014	4.1314	71.63	-0.2252	-0.0045	0.2207	911.1413	0.137374	-417.953698	-417.946624	-417.94568	-417.985068	28.013	
O	-0.2846420819	 0.2322963079	-0.2965420425	-0.272832
C	-0.1537148237	 1.4266450065	-0.1903725224	 0.167306
C	 1.1797762658	 2.1017666483	 0.0328839729	-0.102403
C	 1.5489289509	 2.9665581481	 1.1885139741	-0.046202
C	 0.7088512148	 2.9039331505	 2.4368045437	-0.052617
N	-0.4290804682	 1.9752330269	 2.3158908526	-0.325445
C	 0.8106840131	 1.5161622076	 2.9689576572	-0.036896
C	 1.7508970717	 0.7351640137	 2.0571536375	-0.178691
N	 2.2032699557	 1.6451250997	 0.9730496075	-0.124787
H	-0.9881466645	 2.1270801105	-0.406608214	 0.076233
H	 1.6007932469	 2.3864311943	-0.9363005801	 0.113646
H	 2.1668786886	 3.8480808044	 1.0426606403	 0.091477
H	 0.628639263	 3.7769477512	 3.0739492073	 0.096055
H	-1.1449419285	 2.179829436	 3.0080458562	 0.23873
H	 0.7890386541	 1.3013888598	 4.0332296098	 0.096261
H	 2.6383840294	 0.43688772	 2.6246660783	 0.1096
H	 1.2881334428	-0.1565243953	 1.6303885117	 0.150566
134.479	166.2959	207.0305	321.0173	342.5646	413.5884	599.9261	635.0398	697.6488	716.6785	738.2205	794.1684	815.2045	856.1876	883.2203	898.5133	940.7295	968.7697	1014.1554	1037.2273	1061.4044	1092.7653	1103.7242	1116.9658	1133.0376	1160.2446	1233.8611	1236.8655	1275.688	1325.1035	1352.3295	1369.4307	1398.5277	1413.1622	1429.7756	1486.9987	1803.7486	2896.1908	3054.1245	3059.2967	3124.0601	3146.4651	3155.9845	3183.8239	3505.8298
O=CC1C2C3NC3CN12	O=C[C@H]1[C@H]2[C@H]3N[C@H]3CN12	
InChI=1S/C6H8N2O/c9-2-4-6-5-3(7-5)1-8(4)6/h2-7H,1H2	InChI=1S/C6H8N2O/c9-2-4-6-5-3(7-5)1-8(4)6/h2-7H,1H2/t3-,4-,5-,6-,8?/m0/s1
