18
gdb 70766	3.83754	1.31785	1.12521	4.589	82.22	-0.2923	0.0237	0.3159	1104.2431	0.147918	-364.76449	-364.756718	-364.755774	-364.796464	30.512	
C	 0.0022582245	 1.4624491371	-0.0312721689	-0.519805
C	 0.0275770667	-0.0389508085	-0.0578392532	 0.324137
C	 0.5647016794	-0.967588915	-1.1694926079	-0.348815
C	 0.0556336894	-1.9363710125	-0.0831111322	 0.242237
C	 0.0663285179	-3.3739643995	-0.0800710797	 0.155183
N	 0.077720595	-4.531113438	-0.0834644727	-0.353202
C	 0.5377703625	-0.9985396444	 1.0870438605	-0.106438
C	-0.8383249002	-1.0337074125	 1.7784585954	-0.275895
C	-1.1694772851	-1.0129600936	 0.2741861937	-0.106444
H	 1.0151381392	 1.8725589465	-0.1072850801	 0.127407
H	-0.5821001441	 1.8590859631	-0.8685881976	 0.127407
H	-0.4429488825	 1.8384302289	 0.8961243019	 0.126494
H	 0.0180549188	-0.9742227223	-2.1174634756	 0.107173
H	 1.645184737	-0.960489391	-1.3427584589	 0.107173
H	 1.5389571844	-1.0131525698	 1.5200567719	 0.087355
H	-1.0910416179	-1.9460427251	 2.3254187624	 0.116045
H	-1.1200904276	-0.148069904	 2.3545418662	 0.102633
H	-2.1364460174	-1.0442021994	-0.2298809551	 0.087356
133.5391	137.8272	206.6414	257.7724	299.1109	401.9786	412.3994	513.8657	543.7407	556.0091	640.5618	703.5059	766.4162	861.9505	864.3391	901.9596	917.8003	984.9564	1004.4042	1013.0885	1035.8683	1096.1846	1096.5358	1098.0747	1127.061	1153.3867	1161.3613	1189.3252	1203.0271	1233.832	1258.5286	1281.3146	1364.3329	1414.2691	1485.605	1490.0209	1506.1619	1508.8269	2344.3389	3029.1274	3043.9651	3054.0148	3095.8537	3098.0934	3105.536	3107.4664	3111.3937	3113.2773
CC12CC3(C#N)C1CC23	C[C@@]12C[C@@]3(C#N)[C@@H]1C[C@@H]23	
InChI=1S/C8H9N/c1-7-3-8(4-9)5(7)2-6(7)8/h5-6H,2-3H2,1H3	InChI=1S/C8H9N/c1-7-3-8(4-9)5(7)2-6(7)8/h5-6H,2-3H2,1H3/t5-,6+,7-,8-
