17
gdb 73925	2.68841	1.45407	1.02288	5.5739	79.94	-0.2147	-0.0367	0.1781	1139.8914	0.137032	-418.005754	-417.997731	-417.996787	-418.038187	30.779	
N	 0.1077192041	 1.3394756523	 0.1409471837	-0.600913
C	 0.0111598185	-0.0144845971	 0.044051462	 0.291113
C	-1.0919050841	-0.8202920319	 0.0191803836	 0.119245
C	-0.6588457568	-2.2719011697	 0.0908582803	-0.260241
N	 0.8268406446	-2.2671539118	 0.0422262163	-0.097364
C	 1.3797028417	-1.7199653132	-1.1907192626	-0.235549
C	 1.2432531243	-0.8496205562	 0.01760291	-0.118964
C	-2.46696699	-0.4091922404	-0.0636702738	 0.048464
O	-3.4200277688	-1.1679956107	-0.1072752882	-0.303364
H	 0.9526294441	 1.7810311868	-0.182913877	 0.266314
H	-0.7267185998	 1.8963030364	 0.0506864982	 0.268558
H	-0.9761386394	-2.7467432475	 1.0264160831	 0.123758
H	-1.0605606854	-2.8802908046	-0.7265086351	 0.125642
H	 2.3583002853	-2.1072553174	-1.461448787	 0.122842
H	 0.7090678536	-1.5206414067	-2.0242456285	 0.120591
H	 2.1087095712	-0.5495084663	 0.6031341879	 0.106329
H	-2.6358322833	 0.696245728	-0.0891351331	 0.023537
107.4326	174.2425	189.215	236.9715	320.6981	357.4241	383.6692	411.4444	483.6368	542.0214	615.6262	664.6721	705.5709	765.3275	823.7116	853.4554	918.5152	989.3824	1003.9089	1037.3009	1051.386	1084.1124	1112.7678	1147.0325	1193.5983	1209.0382	1253.3009	1275.8321	1298.2879	1354.6105	1419.42	1469.0582	1490.1343	1507.6981	1629.3828	1685.042	1751.5703	2801.6814	3035.4959	3072.0838	3097.3081	3140.6402	3188.7326	3593.4098	3704.1612
NC1=C(CN2CC12)C=O	NC1=C(CN2C[C@@H]12)C=O	
InChI=1S/C6H8N2O/c7-6-4(3-9)1-8-2-5(6)8/h3,5H,1-2,7H2	InChI=1S/C6H8N2O/c7-6-4(3-9)1-8-2-5(6)8/h3,5H,1-2,7H2/t5-,8?/m0/s1
