16
gdb 54799	2.60293	1.5775	1.12643	2.0529	69.42	-0.2506	-0.0343	0.2163	1071.0152	0.122562	-437.882563	-437.874212	-437.873268	-437.916073	30.278	
C	-0.3944561995	 1.3875852315	 0.0350452711	-0.487827
C	 0.1919180192	-0.0037017073	 0.1354072857	 0.366833
O	 0.6298701915	-0.4739049708	 1.1591714057	-0.295536
C	 0.1593412338	-0.8043567196	-1.158459065	-0.255814
C	 0.5349467369	-2.2804611275	-1.1709545388	-0.030361
C	-0.421790727	-3.0871420057	-0.4110662495	-0.237023
N	-0.8153775812	-2.6804010527	-1.8023987932	-0.178047
C	-1.2173166556	-1.2973852178	-1.6898147796	 0.395578
O	-2.2357452638	-0.7654724346	-1.9987515547	-0.293638
H	 0.2473681211	 2.017374135	-0.5926893225	 0.143989
H	-1.373739708	 1.3457983091	-0.4551003546	 0.168604
H	-0.4776307045	 1.8317825412	 1.0273444437	 0.145858
H	 0.6344069926	-0.2313626547	-1.9627665064	 0.134473
H	 1.4500143086	-2.6835193865	-1.5846869499	 0.123732
H	-0.2520024087	-4.1559621693	-0.3425793153	 0.147156
H	-0.9528268754	-2.6546691204	 0.4306909232	 0.152026
64.1949	125.1905	142.8344	153.6375	211.4141	334.6263	394.3033	465.0448	559.8428	597.5334	651.6249	665.9946	747.2383	810.7432	839.5179	913.2835	954.341	982.941	1017.379	1035.8352	1044.3758	1067.0873	1115.2352	1144.8452	1158.1523	1180.8589	1246.0723	1332.8013	1363.3923	1387.9153	1465.8153	1473.6628	1510.9125	1809.5385	1908.9914	3033.9313	3064.2165	3095.8926	3136.091	3155.9888	3207.2647	3228.0415
CC(=O)C1C2CN2C1=O	CC(=O)[C@H]1[C@H]2CN2C1=O	
InChI=1S/C6H7NO2/c1-3(8)5-4-2-7(4)6(5)9/h4-5H,2H2,1H3	InChI=1S/C6H7NO2/c1-3(8)5-4-2-7(4)6(5)9/h4-5H,2H2,1H3/t4-,5+,7?/m1/s1
