19
gdb 90180	3.61338	1.31176	1.2097	1.3848	74.51	-0.2404	0.0687	0.309	1087.2599	0.160069	-422.98973	-422.982029	-422.981084	-423.021563	31.062	
O	 0.0143186754	 1.445428935	-0.0978968565	-0.429663
C	 0.0649096808	 0.029668826	-0.0412218099	 0.127355
C	 0.7064462345	-0.5230513217	 1.2830341635	-0.360411
C	-0.0797687643	-1.7790430617	 1.5289513902	 0.326586
C	-0.7870735734	-2.4797874589	 2.7046299745	-0.298143
C	-2.1053498424	-2.477784267	 1.8380270599	-0.298596
C	-1.3062614846	-1.777034684	 0.7234958738	 0.321468
C	-1.3940499813	-0.5215330039	-0.0956559554	-0.33056
O	-0.2038526005	-2.6309418138	 0.3799743344	-0.310816
H	 0.9007592865	 1.7716147257	-0.2800512918	 0.284467
H	 0.6251311697	-0.366965588	-0.8962541368	 0.088186
H	 1.7883409641	-0.6638490432	 1.1887275863	 0.101369
H	 0.5250053426	 0.1992481542	 2.0872924108	 0.11153
H	-0.3764391422	-3.4506657164	 2.9905703246	 0.110214
H	-0.8748059681	-1.8476911843	 3.5913579428	 0.108594
H	-2.5322880328	-3.447584069	 1.5732853903	 0.11055
H	-2.8835469413	-1.8451220645	 2.2711735095	 0.109344
H	-2.0593825581	 0.2021968571	 0.3888543741	 0.117424
H	-1.7365098047	-0.6570708814	-1.1253205643	 0.111102
108.5078	207.4526	261.5154	283.5662	303.113	366.3801	423.1619	478.3675	500.6041	583.6042	678.5951	741.983	758.8575	790.3938	831.1397	877.0502	902.0191	925.8847	950.5638	1002.4982	1012.5704	1040.7526	1070.9174	1133.5358	1159.7759	1175.9164	1196.038	1221.5841	1224.406	1237.1976	1254.7681	1276.3422	1314.4676	1331.6861	1359.0507	1422.9744	1426.6213	1463.5479	1479.9209	1486.8404	1494.2166	3026.777	3038.8531	3049.5016	3064.2735	3071.1932	3085.1326	3096.9266	3115.0981	3131.8961	3824.0797
OC1CC23CCC2(C1)O3	O[C@H]1C[C@@]23CC[C@]2(C1)O3	
InChI=1S/C7H10O2/c8-5-3-6-1-2-7(6,4-5)9-6/h5,8H,1-4H2	InChI=1S/C7H10O2/c8-5-3-6-1-2-7(6,4-5)9-6/h5,8H,1-4H2/t5-,6-,7+
