15
gdb 112217	2.5505	1.33818	0.97515	2.967	62.06	-0.2771	-0.0243	0.2528	1167.1072	0.111263	-494.885502	-494.877276	-494.876332	-494.918859	29.598	
O	 0.0086035344	 1.46339125	-0.1288082236	-0.410725
C	 0.0086270736	 0.1257620565	 0.3200320054	-0.075515
C	-1.3246260237	-0.5470291223	 0.0608618683	 0.025011
O	-1.5775327224	-0.6390745614	-1.3929291412	-0.285409
C	-1.723408701	-2.0120586746	-1.36103522	 0.423895
O	-1.9845522754	-2.7462559394	-2.2541221002	-0.32176
C	-1.4188352601	-2.0703036758	 0.1275382274	 0.205055
C	-0.6977166371	-3.0879720496	 0.8978911078	-0.249888
O	-2.0977775862	-2.845180925	 1.076983519	-0.243828
H	-0.1821068125	 1.4461172716	-1.0739501435	 0.298985
H	 0.810227219	-0.4670810273	-0.1480456942	 0.097757
H	 0.197056147	 0.1535278076	 1.3989728769	 0.124053
H	-2.1506519252	-0.018314635	 0.5427177309	 0.125826
H	-0.4450425842	-4.0320840633	 0.4203134149	 0.149408
H	-0.060523906	-2.7780961821	 1.7240076821	 0.137134
83.7382	124.5329	138.974	224.1906	237.2385	301.1495	362.8054	412.1558	477.0906	596.6196	637.5977	733.0279	761.8444	848.8339	886.3369	924.9522	979.2991	1024.7101	1081.2172	1093.7145	1104.0769	1127.6434	1165.8519	1191.0878	1217.789	1266.1542	1340.7452	1401.7567	1430.1543	1442.5327	1492.2683	1530.7096	1950.4907	2985.5469	3073.495	3096.5162	3098.0298	3193.4791	3800.3052
OCC1OC(=O)C11CO1	OC[C@H]1OC(=O)[C@]21CO2	
InChI=1S/C5H6O4/c6-1-3-5(2-8-5)4(7)9-3/h3,6H,1-2H2	InChI=1S/C5H6O4/c6-1-3-5(2-8-5)4(7)9-3/h3,6H,1-2H2/t3-,5-/m1/s1
