12
gdb 5479	3.66867	1.9188	1.26077	3.958	62.14	-0.2303	-0.053	0.1773	870.1511	0.084975	-414.702028	-414.695251	-414.694307	-414.733063	24.573	
N	 0.0872915457	 1.3815673713	 0.1333126758	-0.587357
C	-0.0122689742	 0.024602893	 0.0422818156	 0.24524
C	-1.1224254711	-0.8020360865	 0.0114842641	 0.194635
O	-0.6350188626	-2.1031244736	-0.024420342	-0.159683
C	 0.686925815	-1.9671063255	-0.0139313984	 0.098496
N	 1.1335265254	-0.7467978002	 0.0237263775	-0.308591
C	-2.5357555423	-0.5525980579	 0.009609974	 0.056503
O	-3.4166861082	-1.3871631287	-0.0236022595	-0.297139
H	 0.9894790975	 1.7573122709	-0.1145873136	 0.272465
H	-0.7010893151	 1.9368099057	-0.1556802462	 0.268082
H	 1.2748357202	-2.8724453305	-0.0394218524	 0.165047
H	-2.7715761703	 0.5375923419	 0.0436298852	 0.052303
140.6679	172.1498	226.0381	344.9996	358.6024	383.1562	468.6865	556.9548	636.455	679.3963	754.4873	816.4396	892.1941	951.0851	1008.1145	1025.8858	1157.1668	1215.9682	1291.3862	1324.7847	1400.8385	1470.2163	1549.8838	1617.0985	1672.5999	1774.2532	2839.5275	3269.0233	3593.9174	3707.8676
NC1=C(OC=N1)C=O	Nc1c(ocn1)C=O	
InChI=1S/C4H4N2O2/c5-4-3(1-7)8-2-6-4/h1-2H,5H2	InChI=1S/C4H4N2O2/c5-4-3(1-7)8-2-6-4/h1-2H,5H2
