23
gdb 95951	2.39653	1.5285	1.15106	1.46	84.72	-0.2343	0.0816	0.3159	1186.6947	0.207014	-388.296504	-388.28764	-388.286696	-388.331724	34.227	
C	-0.0875458008	 1.5722865744	-0.0697793126	-0.413521
C	 0.0621271184	 0.0531182153	 0.0285419255	-0.010575
C	 0.713465358	-0.5736366536	-1.2313965852	-0.216713
C	 1.5043617931	-1.7817659641	-0.7070833435	-0.21839
C	 2.0736935869	-1.2427578988	 0.6097484037	-0.245769
C	 0.9000146113	-0.4756464271	 1.2359430654	 0.448945
C	 1.2287957338	 0.40879206	 2.4639663409	-0.359466
C	 0.4614167711	-0.6520232866	 3.271482107	-0.06929
O	 0.0836977705	-1.3556689906	 2.0744495048	-0.3253
H	 0.8883548545	 2.0699227618	-0.1155350603	 0.111361
H	-0.635300314	 1.8421544254	-0.9789646345	 0.114388
H	-0.6388334688	 1.989353461	 0.7788775805	 0.1145
H	-0.9317003755	-0.3858334645	 0.169055466	 0.0894
H	-0.0251990223	-0.8322753846	-1.9955182264	 0.093746
H	 1.4062396109	 0.1474243618	-1.6855683795	 0.089912
H	 0.829003406	-2.6202273377	-0.5005962875	 0.110911
H	 2.2703418007	-2.1344378075	-1.4032294929	 0.090033
H	 2.4590949784	-2.0074580567	 1.2893920296	 0.097719
H	 2.8880583376	-0.5358663563	 0.3982949991	 0.090985
H	 2.2919849056	 0.5124880841	 2.6907333652	 0.10356
H	 0.7690672702	 1.3976849404	 2.460265453	 0.108004
H	 1.0804244988	-1.2688993783	 3.9364008428	 0.095995
H	-0.4128321344	-0.3014348779	 3.833016849	 0.099567
10.5359	75.3579	207.0947	229.615	280.5813	294.5874	345.4823	412.2694	461.4832	497.2091	558.881	663.9991	774.9829	822.4356	848.5934	863.5312	888.6997	919.4791	928.0005	968.0844	977.4596	996.7873	1013.2193	1026.2456	1037.1373	1104.7318	1112.5379	1160.6807	1181.969	1195.5711	1208.9051	1214.5419	1228.9425	1260.3287	1275.63	1312.5802	1323.4714	1338.5837	1348.5832	1355.5869	1367.4549	1410.762	1470.6773	1486.3733	1490.9787	1497.6882	1503.2304	1506.7646	1532.0943	3007.4553	3015.0335	3018.5287	3025.9593	3042.3399	3044.5105	3048.4063	3077.112	3083.8293	3092.3762	3092.9024	3097.0632	3099.3031	3133.2128
CC1CCCC11CCO1	C[C@H]1CCC[C@]21CCO2	
InChI=1S/C8H14O/c1-7-3-2-4-8(7)5-6-9-8/h7H,2-6H2,1H3	InChI=1S/C8H14O/c1-7-3-2-4-8(7)5-6-9-8/h7H,2-6H2,1H3/t7-,8+/m0/s1
