17
gdb 50730	2.5988	1.56442	1.01412	3.355	71.9	-0.2533	-0.0013	0.252	1134.3518	0.138723	-455.200782	-455.192884	-455.19194	-455.233647	29.267	
N	 0.9340548477	-0.0828455424	-0.3369106816	-0.477261
C	-0.2082122705	 0.3672611363	-0.0055660987	 0.0936
N	-1.3150527517	-0.4773317058	 0.0374409942	-0.177546
C	-1.1042392696	-1.8912160523	-0.2988001106	-0.138348
C	-2.2829768993	-2.7247093611	 0.1776620294	-0.250032
C	-3.56049272	-2.0273412865	-0.2451439466	-0.070144
O	-3.6302620455	-0.71442236	 0.3300858636	-0.251449
C	-2.5457975247	 0.086985912	 0.3849267849	 0.497138
O	-2.6685908373	 1.2327011531	 0.7358145374	-0.377783
H	 1.6226212246	 0.6664913388	-0.3112326092	 0.232129
H	-0.4652110748	 1.3900549452	 0.2674174584	 0.150077
H	-0.9716214948	-1.9866926385	-1.3837834801	 0.124106
H	-0.1620990404	-2.2007923806	 0.1577206321	 0.148901
H	-2.2313029052	-3.7275715824	-0.2558377712	 0.120121
H	-2.2698779493	-2.8284745194	 1.2681156288	 0.127149
H	-3.6198146121	-1.9420861301	-1.3383090031	 0.119076
H	-4.4578481871	-2.5393971063	 0.1079148323	 0.130265
73.8427	136.2516	164.7739	259.7177	283.9212	332.087	396.043	480.154	530.0108	599.7603	668.0442	753.2984	762.0073	833.2738	898.3101	921.906	960.7261	993.3089	1083.2063	1085.0593	1141.5253	1160.8882	1176.8302	1217.2469	1236.8637	1294.6209	1305.9956	1358.4661	1381.6376	1398.0347	1417.8304	1436.6961	1480.0753	1515.5504	1523.6396	1710.6051	1828.3842	3023.9987	3031.5529	3052.631	3102.7569	3109.9437	3112.864	3147.7799	3510.2746
N=CN1CCCOC1=O	[NH][CH]N1CCCOC1=O	
InChI=1S/C5H8N2O2/c6-4-7-2-1-3-9-5(7)8/h4,6H,1-3H2	InChI=1S/C5H8N2O2/c6-4-7-2-1-3-9-5(7)8/h4,6H,1-3H2
