14
gdb 133375	3.30548	1.36345	0.96565	1.7969	71.25	-0.1967	-0.0157	0.181	1102.6728	0.102332	-474.16798	-474.160316	-474.159372	-474.199886	29.721	
N	 0.007425888	 1.2907439461	 0.1157804973	-0.54495
C	-0.0088452099	-0.0618620258	 0.0413628277	 0.402088
N	-1.149313074	-0.6943720914	 0.0191005083	-0.328291
N	-1.077155513	-2.0604670878	-0.0078567229	-0.307213
C	 0.0757970756	-2.7453322687	-0.0171680891	 0.415188
F	-0.0819617353	-4.0624786633	-0.0369953957	-0.055639
C	 1.2902171963	-2.1417998909	-0.0105106579	-0.421948
C	 1.3365481784	-0.7050842916	 0.0067395778	 0.288737
N	 2.3560838159	 0.0876848089	-0.0126136684	-0.585409
H	 0.9110562349	 1.7095134502	-0.0526164301	 0.277798
H	-0.8371507225	 1.8021258663	-0.0717845785	 0.257723
H	-1.9611797553	-2.5408991232	-0.0178857572	 0.280735
H	 2.1905482763	-2.740731699	-0.0263434519	 0.113103
H	 3.2302628748	-0.43694437	-0.0452502392	 0.208079
118.6005	192.4512	297.8848	317.6639	348.2965	365.0572	429.1152	470.7346	474.9672	506.8042	557.8041	597.9751	651.685	725.0704	766.8465	807.6885	814.9476	855.305	1011.0559	1077.4842	1123.3091	1229.5626	1248.6299	1317.4524	1380.3268	1448.5344	1562.8355	1584.5797	1631.3965	1671.3954	1681.0947	3224.5027	3470.2825	3568.4825	3665.3229	3723.258
NC1=NNC(F)=CC1=N	NC1=NN[C@@H](F)C=C1[NH]	
InChI=1S/C4H5FN4/c5-3-1-2(6)4(7)9-8-3/h1H,(H2,6,8)(H2,7,9)	InChI=1S/C4H6FN4/c5-3-1-2(6)4(7)9-8-3/h1,3,6,8H,(H2,7,9)/t3-/m1/s1
