19
gdb 99705	2.51931	0.9115	0.70111	3.3197	81.02	-0.2454	0.0482	0.2935	1617.4454	0.156962	-422.973887	-422.963605	-422.962661	-423.01183	35.586	
C	-0.2875644584	 1.6352152256	 0.0256082698	-0.499167
C	-0.1307950884	 0.1877745368	 0.0086751369	 0.094521
C	 0.006861243	-1.0087165574	 0.0093931117	 0.041344
C	 0.1328764065	-2.4623334009	-0.0247718657	-0.244678
C	-1.2463493448	-3.1631903521	 0.1082619143	-0.048303
O	-1.114514002	-4.5373808875	 0.3869777089	-0.427289
C	 0.8233575751	-2.8935087422	-1.315083381	 0.091482
C	 2.1802499448	-3.4470086018	-1.3376083956	-0.17971
O	 1.0402300662	-4.3053586087	-1.4779072121	-0.252358
H	 0.634371214	 2.1392219253	-0.2847232081	 0.149395
H	-1.0857217506	 1.95720071	-0.6521650181	 0.15003
H	-0.5401046019	 1.9946999203	 1.029145817	 0.151692
H	 0.7341071319	-2.8077756054	 0.8265156402	 0.109659
H	-1.7934607371	-2.7167084662	 0.9435180846	 0.114474
H	-1.8316870633	-2.975157254	-0.8070189425	 0.090649
H	-0.4886366055	-4.9022603302	-0.2516450104	 0.298575
H	 0.4490472664	-2.4035489902	-2.2138098435	 0.109681
H	 2.792728867	-3.3528388314	-2.2320675046	 0.124899
H	 2.7290155371	-3.5511257999	-0.4032104618	 0.125104
9.0553	64.42	88.5546	104.1561	178.5039	223.8225	267.4754	301.0714	359.1091	380.333	456.1916	480.1028	485.1961	529.3229	804.8472	826.2434	865.635	928.1251	957.8383	1045.1291	1053.3722	1054.4925	1088.3681	1103.5145	1128.449	1155.8453	1172.3697	1176.7521	1230.1421	1278.5433	1294.1647	1307.9183	1380.3067	1414.907	1436.6434	1453.4708	1478.1679	1478.3312	1511.2977	1526.0944	2370.3338	2969.3811	3024.0547	3028.3191	3085.4577	3089.1965	3090.2464	3092.6072	3118.4153	3183.0981	3768.937
CC#CC(CO)C1CO1	CC#C[C@@H](CO)[C@H]1CO1	
InChI=1S/C7H10O2/c1-2-3-6(4-8)7-5-9-7/h6-8H,4-5H2,1H3	InChI=1S/C7H10O2/c1-2-3-6(4-8)7-5-9-7/h6-8H,4-5H2,1H3/t6-,7+/m0/s1
