15
gdb 45684	3.66188	1.48477	1.13534	3.8143	67.6	-0.261	-0.006	0.255	1020.2374	0.114668	-453.932261	-453.925327	-453.924383	-453.963835	26.553	
N	-0.0739192402	 1.149547486	-0.6551827841	-0.500894
C	 0.0098997754	 0.0708233549	-0.0060592507	 0.382597
C	-1.2455591517	-0.7088333828	 0.3873373442	-0.25495
N	-1.0970993069	-2.1768754669	 0.2749310409	-0.305897
C	 0.0322688859	-2.4897631357	 0.7168277537	 0.442109
O	 0.7553509943	-3.649689741	 0.6414670772	-0.267605
C	 2.0034822752	-2.8727095524	 0.7727858803	-0.122776
C	 1.1708215711	-1.6248011521	 1.1537540044	-0.042701
O	 1.2364171886	-0.4463948924	 0.3732089829	-0.255579
H	 0.8524476659	 1.55192334	-0.8106848617	 0.225336
H	-1.5296260443	-0.4292537709	 1.4120250489	 0.134166
H	-2.0462571344	-0.3725070996	-0.2697327528	 0.157677
H	 2.6528850839	-3.2936394185	 1.5410425	 0.136337
H	 2.5107849359	-2.7954005954	-0.1908068241	 0.14695
H	 1.2173548815	-1.3874048432	 2.2214880208	 0.12523
96.2937	156.7256	274.1693	338.927	396.3092	445.0959	476.0302	540.5462	619.1406	728.481	754.2636	806.929	880.2384	908.2002	932.858	970.6628	992.6777	1050.924	1065.5076	1080.7903	1147.07	1170.4206	1189.5374	1233.2284	1237.7478	1295.3757	1322.5833	1347.2721	1391.3063	1480.5924	1501.5752	1760.9959	1826.6832	3010.0986	3057.3574	3080.6974	3143.6002	3153.9472	3468.4045
N=C1CN=C2OCC2O1	[NH][C]1C[N][C]2OC[C@H]2O1	
InChI=1S/C5H6N2O2/c6-4-1-7-5-3(9-4)2-8-5/h3,6H,1-2H2	InChI=1S/C5H6N2O2/c6-4-1-7-5-3(9-4)2-8-5/h3,6H,1-2H2/t3-/m1/s1
