23
gdb 102304	2.58933	0.93926	0.72978	3.7373	87.61	-0.2216	0.0369	0.2585	1637.3564	0.204078	-384.477204	-384.466078	-384.465133	-384.514677	39.404	
C	-0.1343926205	 1.6912059948	 0.3392536149	-0.398681
C	-0.2315873391	 0.2926527835	-0.2723738743	-0.181251
C	-1.5070210904	-0.4874795099	 0.134517692	-0.130529
C	-1.5678037878	-1.8685932632	-0.5694782273	-0.152185
N	-2.9151719143	-2.3996499708	-0.7206031394	-0.059464
C	-2.9800509849	-3.3862116085	-1.7900100247	-0.318401
C	-3.4781203533	-2.9360206713	 0.513563834	-0.333624
C	-1.5718772319	-0.5991250198	 1.5954540493	 0.284169
N	-1.5895443016	-0.6733310601	 2.7495910343	-0.346518
H	 0.7724946055	 2.1976679562	-0.0033390698	 0.120183
H	-0.9917629338	 2.3091468295	 0.0511045287	 0.119827
H	-0.1041874354	 1.6477743929	 1.431742552	 0.147062
H	-0.2330049873	 0.3642051065	-1.3658579662	 0.107374
H	 0.6480632369	-0.3005988282	 0.0039011361	 0.117484
H	-2.3883145655	 0.0780858278	-0.1927590734	 0.131099
H	-1.1647931672	-1.7178914794	-1.5759464402	 0.102901
H	-0.8848387177	-2.5713483398	-0.0553079012	 0.094674
H	-2.376670094	-4.2921959621	-1.5893466551	 0.095002
H	-4.0180675544	-3.7026371249	-1.9310053093	 0.121802
H	-2.6295309867	-2.9462155307	-2.7289413724	 0.116645
H	-3.5119981311	-2.1718738052	 1.2915653541	 0.147085
H	-4.5027363789	-3.2703945011	 0.3253915672	 0.118233
H	-2.9042876765	-3.7958770863	 0.9083464505	 0.097113
17.9411	76.5095	107.8305	153.7188	165.1818	219.2923	242.5248	253.7741	263.7588	309.8251	325.1291	372.9474	431.5194	469.9085	557.5578	611.7632	765.1653	844.9882	851.034	913.203	1000.9358	1015.6953	1063.9009	1065.1	1083.2635	1114.9597	1119.8321	1129.9741	1177.9198	1214.0532	1250.0159	1288.3804	1306.7026	1321.3395	1363.233	1377.705	1408.5681	1420.0583	1446.6759	1471.9893	1481.9746	1486.873	1493.932	1499.1417	1499.7917	1505.1772	1507.9551	1513.6577	2347.6625	2922.1397	2927.5907	2937.0818	3032.4016	3038.9392	3042.4538	3059.8734	3066.7126	3075.2625	3077.5898	3105.0035	3107.9621	3119.839	3136.883
CCC(CN(C)C)C#N	CC[C@@H](CN(C)C)C#N	
InChI=1S/C7H14N2/c1-4-7(5-8)6-9(2)3/h7H,4,6H2,1-3H3	InChI=1S/C7H14N2/c1-4-7(5-8)6-9(2)3/h7H,4,6H2,1-3H3/t7-/m1/s1
