20
gdb 75492	2.737	1.48364	1.10182	1.7258	80.96	-0.2335	0.0342	0.2677	1163.1386	0.171395	-403.164296	-403.155859	-403.154915	-403.197217	32.746	
C	 0.010022539	 1.4409146638	 0.1239710104	-0.453531
C	-0.0287387969	-0.0462673465	-0.0688232334	 0.38541
N	-0.0304863558	-0.5786685289	-1.2188622008	-0.306043
C	-0.0294714511	-2.0326705995	-1.3253656156	-0.156845
C	 0.4811668403	-2.7251687559	-0.056219051	-0.30188
C	-0.2028649204	-2.0896428475	 1.1265317844	 0.466167
C	-1.5144978158	-2.6054198879	 1.6541554223	-0.316707
C	-0.2454400105	-2.707447512	 2.4839552477	-0.340796
O	-0.0486964671	-0.6788668278	 1.1456716174	-0.298025
H	 0.8815425007	 1.7225978935	 0.7236732595	 0.136172
H	 0.0560384197	 1.9326099184	-0.8466940892	 0.143514
H	-0.8783417371	 1.7781785595	 0.6679068769	 0.133911
H	-1.0506047918	-2.3681581952	-1.5531563467	 0.109398
H	 0.5831686049	-2.3099019417	-2.1903784514	 0.105702
H	 0.2842787888	-3.8012170347	-0.0784130348	 0.101158
H	 1.5658364653	-2.5877917601	 0.0331321452	 0.110409
H	-2.2484416388	-1.869390242	 1.9607286867	 0.123328
H	-1.9263172829	-3.5089199379	 1.2165506085	 0.115186
H	 0.215413169	-3.6798811772	 2.6198999645	 0.11699
H	-0.1512282295	-2.0346613604	 3.3287789696	 0.126481
91.91	131.495	159.4271	249.7494	264.4006	328.5676	385.2463	412.1829	476.789	520.3239	611.6925	638.6659	731.7002	766.109	860.4655	885.3664	889.7291	917.4844	940.736	974.1917	1008.7457	1033.5303	1056.8767	1060.0575	1076.0566	1095.1961	1124.0112	1186.0319	1188.4344	1241.7808	1262.7892	1294.003	1342.3453	1361.0292	1396.7133	1410.6722	1451.528	1475.3961	1476.8753	1481.4404	1492.1163	1501.3336	1752.2351	3013.3931	3031.5652	3046.6834	3057.0836	3089.09	3102.8724	3132.8812	3136.4151	3167.2005	3218.81	3232.3291
CC1=NCCC2(CC2)O1	CC1=NCCC2(CC2)O1	
InChI=1S/C7H11NO/c1-6-8-5-4-7(9-6)2-3-7/h2-5H2,1H3	InChI=1S/C7H11NO/c1-6-8-5-4-7(9-6)2-3-7/h2-5H2,1H3
