16
gdb 33693	3.89843	1.45911	1.35688	4.7104	76.83	-0.2433	0.0194	0.2627	961.0799	0.127001	-363.58911	-363.582755	-363.581811	-363.619765	26.193	
N	-0.0745898263	-1.1338812937	-0.1201167777	-0.359987
C	-0.0387971912	 0.0215398296	-0.0417486103	 0.142516
C	 0.0182612159	 1.4348512409	 0.0506525306	 0.259608
C	-1.0423827092	 2.3156728045	 0.7214236823	-0.127271
C	-0.3636116928	 3.3921592078	 1.5450605023	-0.237279
C	 0.8577973473	 3.6177693554	 0.6742084684	-0.077691
C	 0.5277521861	 3.3730686788	-0.7873928955	-0.082213
C	 1.287361663	 2.3294542571	 0.003188403	-0.149048
C	-0.7474539332	 2.4979187108	-0.7450402389	-0.133798
H	-1.9715298717	 1.8490684997	 1.0236767827	 0.113825
H	-0.9860965714	 4.2892690997	 1.6328425215	 0.112229
H	-0.1045342702	 3.045186111	 2.5506058266	 0.115738
H	 1.6137812627	 4.3507588506	 0.9277665229	 0.098874
H	 0.8571159385	 3.9875132624	-1.6124058579	 0.101214
H	 2.3032048846	 1.9766577569	-0.0975545193	 0.10856
H	-1.4565517219	 2.3349975685	-1.5437825306	 0.114723
140.6455	162.3875	387.9705	478.3067	497.1336	538.2152	592.5448	698.1165	734.2793	749.0811	773.1714	841.1688	855.392	879.4708	890.846	920.2905	955.1509	978.7886	997.1445	1010.5181	1033.7142	1042.8632	1071.6879	1075.4945	1144.6559	1189.4887	1202.3652	1240.3691	1257.3576	1276.4978	1306.0467	1372.3881	1411.2217	1488.5308	2340.14	3046.3997	3090.9948	3196.6001	3205.0249	3217.1488	3226.0163	3231.3947
N#CC12C3CC4C(C14)C23	N#C[C@@]12[C@H]3C[C@@H]4[C@@H]([C@H]14)[C@@H]23	
InChI=1S/C8H7N/c9-2-8-4-1-3-5(6(3)8)7(4)8/h3-7H,1H2	InChI=1S/C8H7N/c9-2-8-4-1-3-5(6(3)8)7(4)8/h3-7H,1H2/t3-,4+,5+,6-,7+,8-/m1/s1
