21
gdb 108077	2.50405	1.41801	1.18657	1.6317	82.71	-0.2351	0.0726	0.3077	1158.957	0.182581	-387.041274	-387.032449	-387.031505	-387.074724	33.907	
C	-0.1964684274	 1.494476748	-0.0992786572	-0.532016
C	-0.0603743621	 0.0107574556	 0.0052956408	 0.305033
C	-0.0719001487	-1.1021738093	-1.0193241216	-0.146587
C	 1.2568025282	-1.6605128768	-0.5192000003	-0.234056
C	 0.934691941	-0.9324248372	 0.8145374244	-0.111453
C	-0.3014469134	-1.6893256978	 1.3658118882	-0.294433
C	-1.062027917	-1.1183865594	 0.165564564	 0.270574
C	-2.5432213102	-1.0910025069	-0.0540531908	-0.187135
O	-3.0773218486	-2.3285526074	-0.5172969919	-0.414177
H	 0.7140092507	 1.9521698915	-0.5041438207	 0.122411
H	-1.0226153116	 1.7656395912	-0.76568943	 0.124521
H	-0.39219581	 1.9559055531	 0.8759932504	 0.119824
H	-0.4483460646	-1.0635690416	-2.0343867414	 0.085513
H	 1.3976943358	-2.7473445259	-0.4781891496	 0.08528
H	 2.1029573305	-1.2023724219	-1.0394709952	 0.0969
H	 1.7306858205	-0.6043372201	 1.4808293541	 0.067342
H	-0.2097201131	-2.7774038832	 1.4796140868	 0.080203
H	-0.6653976417	-1.2547095478	 2.3025428603	 0.092918
H	-3.0525396353	-0.768423111	 0.8691493707	 0.083699
H	-2.7942652075	-0.3586871035	-0.8299354502	 0.104369
H	-2.8299464956	-3.0061091799	 0.1198762494	 0.28127
70.9076	122.4302	196.7029	203.8833	240.6649	255.7558	320.8147	388.2057	422.5371	515.1367	593.1314	693.3175	713.2847	763.0656	827.9248	885.8584	895.1809	929.3869	951.835	954.5867	993.692	1001.8786	1039.9097	1064.1144	1091.4486	1107.3813	1125.0436	1135.5847	1157.4348	1182.4723	1213.1933	1236.0656	1252.5193	1265.5761	1294.1635	1345.5238	1373.3383	1410.9886	1417.413	1464.8772	1483.1251	1492.2828	1495.9207	1498.9968	1511.9212	2965.6234	3012.1316	3017.7099	3027.2083	3057.6805	3073.7609	3077.1336	3088.7034	3089.5908	3128.2991	3189.2431	3817.1149
CC12C3CC1CC23CO	C[C@@]12[C@H]3C[C@@H]1C[C@@]23CO	
InChI=1S/C8H12O/c1-7-5-2-6(7)8(7,3-5)4-9/h5-6,9H,2-4H2,1H3	InChI=1S/C8H12O/c1-7-5-2-6(7)8(7,3-5)4-9/h5-6,9H,2-4H2,1H3/t5-,6-,7+,8+/m1/s1
