15
gdb 74565	2.61403	1.67533	1.33266	2.014	71.49	-0.2173	0.0403	0.2576	979.0242	0.113012	-416.773787	-416.766092	-416.765147	-416.805815	30.036	
N	 0.0458644815	 1.319099613	 0.1468619275	-0.577567
C	-0.0580656483	-0.0325843084	 0.016085217	 0.467085
N	-1.1318565666	-0.7296183473	-0.0435695252	-0.339093
C	-0.6992030853	-2.0970732184	-0.03911061	-0.040539
C	 0.8091023902	-2.0627635393	-0.0256881388	 0.038613
O	 1.1432325792	-0.6898009877	-0.0067296343	-0.237323
C	 0.0777865847	-2.6049232854	 1.1947962691	-0.297436
C	 0.0725613314	-1.9172741967	 2.4472149353	 0.350943
C	 0.072754306	-1.3407278428	 3.5027144543	-0.435961
H	 0.8940116973	 1.73176238	-0.2087281642	 0.266247
H	-0.8023098579	 1.822601922	-0.0590639259	 0.272457
H	-1.2990858474	-2.8108774126	-0.5906541001	 0.105173
H	 1.5091645988	-2.6634436311	-0.5915426818	 0.116656
H	 0.119959805	-3.6897178409	 1.2555437163	 0.117218
H	 0.0661939914	-0.8301731144	 4.4333375709	 0.193527
96.503	141.2434	212.6886	334.6294	363.1557	383.4384	438.0743	510.2721	572.8435	628.1744	639.1942	658.8648	690.4635	738.3816	778.3408	783.9481	788.1303	920.7507	942.1377	991.6915	1020.2085	1063.3679	1082.8654	1105.0498	1173.8577	1200.6425	1283.2405	1340.5697	1385.1489	1425.8427	1612.0956	1734.5824	2237.417	3138.1352	3182.3373	3199.4715	3505.7997	3593.41	3709.623
NC1=NC2C(O1)C2C#C	NC1=N[C@H]2[C@@H](O1)[C@H]2C#C	
InChI=1S/C6H6N2O/c1-2-3-4-5(3)9-6(7)8-4/h1,3-5H,(H2,7,8)	InChI=1S/C6H6N2O/c1-2-3-4-5(3)9-6(7)8-4/h1,3-5H,(H2,7,8)/t3-,4+,5-/m0/s1
