21
gdb 68161	3.28883	1.37065	1.1679	3.1645	81.94	-0.2317	-0.0044	0.2272	1125.8658	0.183866	-387.121822	-387.113665	-387.112721	-387.154278	32.64	
C	-0.0150133131	 1.577211106	-0.0030753493	-0.475627
C	 0.0257644519	 0.0587354441	-0.0125719033	 0.334354
C	 1.119709084	-0.6584800317	-0.8614779127	-0.272767
C	 1.1364951944	-1.768157383	 0.2314670766	-0.118917
C	 0.6263468663	-0.67366809	 1.2230566471	-0.260108
C	-0.0002673688	-2.7415161988	 0.0112138058	 0.414163
O	 0.0813099393	-3.9257926963	 0.2353285452	-0.333175
C	-1.2781271439	-2.0940546338	-0.5334629757	-0.326752
C	-1.350672526	-0.560382369	-0.3250221275	-0.250066
H	 0.9645494388	 1.9973588601	 0.2483753867	 0.110697
H	-0.3083198448	 1.9723210765	-0.9827119573	 0.115487
H	-0.7377732198	 1.949708422	 0.7325818767	 0.116036
H	 0.8811488739	-0.9431778074	-1.8906926256	 0.096872
H	 2.0590224827	-0.0984883453	-0.8565044339	 0.102818
H	 2.0616820879	-2.2986412367	 0.4560292508	 0.080225
H	 1.4662867501	-0.1222529418	 1.6548532372	 0.102849
H	-0.052295699	-0.97943136	 2.0255402431	 0.100792
H	-1.2851037142	-2.3278650066	-1.6057869028	 0.134152
H	-2.1385607753	-2.6193787124	-0.1123018434	 0.127344
H	-2.0322976449	-0.3252027179	 0.5011168494	 0.103828
H	-1.7716867595	-0.0842169279	-1.2178540272	 0.097796
76.6059	163.37	221.8341	269.502	318.2738	377.8363	408.3846	417.3544	459.4106	535.7628	608.507	656.1332	723.3894	798.0715	851.3102	882.4274	893.5707	905.1413	919.8576	966.263	1009.2841	1028.4664	1037.58	1047.6346	1070.0092	1122.663	1185.7357	1193.5774	1210.9805	1232.0387	1253.2284	1263.3255	1285.9478	1296.1856	1317.7555	1328.1714	1374.3325	1412.7994	1454.7309	1481.9198	1488.4761	1493.7294	1498.8369	1514.8016	1818.9623	3019.2764	3026.4014	3034.1005	3043.5235	3049.5333	3063.4908	3084.6943	3092.3001	3099.2554	3101.1263	3104.0892	3116.0384
CC12CC(C1)C(=O)CC2	C[C@@]12C[C@@H](C1)C(=O)CC2	
InChI=1S/C8H12O/c1-8-3-2-7(9)6(4-8)5-8/h6H,2-5H2,1H3	InChI=1S/C8H12O/c1-8-3-2-7(9)6(4-8)5-8/h6H,2-5H2,1H3/t6-,8+
