19
gdb 35565	2.79115	1.50316	1.25347	1.8106	80.1	-0.2383	0.0495	0.2878	1067.3628	0.160355	-385.852654	-385.844745	-385.8438	-385.885266	31.067	
C	 0.2694974239	-1.1905155868	 0.3218767088	-0.462563
C	 0.1609191657	-0.0026630196	 0.1650881798	 0.349292
C	 0.0347808951	 1.4284799496	 0.00433273	-0.222082
C	-0.4028254402	 2.2730851459	 1.2492623468	-0.257002
C	 0.846723812	 3.1852817433	 1.0888105933	-0.038094
C	 1.9353221688	 3.0448622398	 2.1588910741	-0.232359
C	 2.6086879262	 1.7169308303	 1.7760103269	-0.09238
O	 2.5497820469	 1.6619157113	 0.3501208676	-0.24488
C	 1.3636330305	 2.28321042	-0.0763258578	 0.109908
H	 0.3688980463	-2.240072904	 0.4470266899	 0.193176
H	-0.596759133	 1.6499695947	-0.8624240866	 0.100019
H	-1.366352754	 2.7736083986	 1.1363614647	 0.107159
H	-0.417884347	 1.6983592357	 2.1782546653	 0.108141
H	 0.6241134371	 4.2226593253	 0.8366539623	 0.072914
H	 2.6528656271	 3.8674625901	 2.0792338169	 0.107068
H	 1.5363076363	 3.0363547778	 3.1772946182	 0.103337
H	 3.6606770253	 1.6550295902	 2.065840401	 0.109604
H	 2.078185286	 0.8590418575	 2.2130321896	 0.105912
H	 1.550209347	 2.7249885102	-1.057528491	 0.08283
64.0129	128.5366	209.938	227.3953	339.7491	369.0887	494.7498	545.7257	611.1499	622.5726	642.1529	647.5539	748.495	771.0863	840.6707	862.599	903.3402	926.2503	957.4673	978.82	984.9293	1025.3659	1082.4283	1091.0879	1125.9668	1145.9244	1173.8154	1216.3007	1233.0839	1248.6388	1266.7028	1273.9548	1309.1669	1322.4026	1339.4698	1355.6277	1394.2661	1480.9465	1486.1736	1526.2273	2230.9726	3006.6483	3045.9944	3051.2135	3067.27	3083.189	3093.7411	3099.8161	3105.4959	3125.0163	3504.6897
C#CC1CC2CCOC12	C#C[C@H]1C[C@H]2CCO[C@@H]12	
InChI=1S/C8H10O/c1-2-6-5-7-3-4-9-8(6)7/h1,6-8H,3-5H2	InChI=1S/C8H10O/c1-2-6-5-7-3-4-9-8(6)7/h1,6-8H,3-5H2/t6-,7+,8-/m0/s1
