15
gdb 101999	3.17521	0.68389	0.58406	1.8468	75.9	-0.266	-0.0747	0.1913	1780.1661	0.108403	-457.734187	-457.723945	-457.723001	-457.771961	33.15	
O	 0.2741244316	 1.2193310909	-0.6149930704	-0.397419
C	 0.1040106367	-0.1601757043	-0.396769318	-0.07632
C	-1.3271820371	-0.4915076288	 0.1229717176	-0.293085
C	-2.3594610871	 0.1294522631	-0.8309959469	 0.188373
O	-3.1290523461	 0.9890455349	-0.5089166836	-0.23094
C	-1.5192210517	-1.9281026491	 0.2074067195	 0.091727
C	-1.6615374937	-3.1274932569	 0.248707836	 0.032853
C	-1.8483668408	-4.5572861434	 0.2833010713	 0.019644
O	-1.5341008321	-5.2623135577	 1.2137045955	-0.22184
H	 0.238592902	 1.6767891281	 0.2318026171	 0.296539
H	 0.2551605771	-0.6461261832	-1.3653673129	 0.134968
H	 0.8388683252	-0.5774896964	 0.3042088757	 0.124046
H	-1.4731579738	-0.0272368899	 1.1060563842	 0.12989
H	-2.3271602876	-0.2894209555	-1.8602600333	 0.096204
H	-2.3135621425	-4.9757978018	-0.631739432	 0.105358
25.6308	58.1095	74.6701	95.4595	120.8527	197.6442	224.4217	270.8265	318.9403	385.3826	462.6002	503.8322	515.1853	637.4012	839.5006	873.0528	966.4396	1019.7185	1041.8742	1058.8023	1106.5834	1161.8406	1174.8645	1276.2047	1309.1517	1381.6206	1402.6401	1419.0457	1422.1683	1504.2137	1768.2695	1848.3365	2321.2529	2900.033	2925.7824	3020.6174	3041.9331	3094.6426	3813.8093
OCC(C=O)C#CC=O	OC[C@@H](C=O)C#CC=O	
InChI=1S/C6H6O3/c7-3-1-2-6(4-8)5-9/h3-4,6,9H,5H2	InChI=1S/C6H6O3/c7-3-1-2-6(4-8)5-9/h3-4,6,9H,5H2/t6-/m1/s1
