19
gdb 41631	2.80673	1.84423	1.52857	0.9211	73.24	-0.2453	0.0659	0.3112	937.0901	0.161939	-422.998833	-422.991919	-422.990975	-423.030273	27.877	
C	 0.3329753796	 1.4401814235	-0.5512463124	-0.249461
C	 1.5949672298	 1.556730814	 0.3515511969	-0.229748
C	 1.476701916	 0.0433140793	 0.6886037048	-0.074658
C	 0.0600427415	 0.0299011443	 0.0541824471	 0.12138
O	-0.0653648174	-1.0883367983	-0.812928911	-0.27168
C	 1.1981831632	-1.6647621304	-1.0657347756	 0.061236
C	 1.9801830867	-1.1070921663	-2.2712013799	-0.102779
O	 2.8286108713	-0.3184547774	-1.4043693384	-0.289718
C	 2.2576487572	-0.9162824816	-0.2140737244	 0.077559
H	-0.4518806497	 2.1855819486	-0.4035620807	 0.097227
H	 0.5751893142	 1.3906188699	-1.6140738635	 0.115335
H	 2.516550432	 1.8599246589	-0.1449937957	 0.121075
H	 1.4343478127	 2.1833299865	 1.2314897867	 0.098786
H	 1.5666296164	-0.2487305905	 1.736952684	 0.070495
H	-0.786246511	 0.0086498763	 0.745612802	 0.08063
H	 1.1114594222	-2.7515605985	-0.9983821342	 0.085933
H	 2.5600131766	-1.8562190986	-2.8251067508	 0.100588
H	 1.4003663235	-0.4959090787	-2.970372628	 0.110901
H	 3.0019038653	-1.5144938109	 0.3206874632	 0.0769
103.8754	130.0405	252.6584	354.6048	419.5826	482.9734	614.8434	650.6879	714.0745	746.7657	819.8027	833.1903	865.6935	884.9553	919.5192	930.1612	951.0649	966.0334	1014.6941	1028.2091	1053.7128	1071.5873	1083.3179	1126.004	1146.6695	1177.9855	1194.5541	1229.2519	1238.3248	1242.019	1253.2395	1272.001	1277.4179	1323.5565	1329.2603	1351.8403	1359.6379	1384.5474	1468.7961	1486.9001	1511.6713	3018.9243	3053.7143	3068.2872	3073.0373	3075.4808	3078.304	3086.9241	3092.9989	3126.5079	3143.2345
C1CC2C1OC1COC21	C1C[C@H]2[C@@H]1O[C@H]1CO[C@@H]21	
InChI=1S/C7H10O2/c1-2-5-4(1)7-6(9-5)3-8-7/h4-7H,1-3H2	InChI=1S/C7H10O2/c1-2-5-4(1)7-6(9-5)3-8-7/h4-7H,1-3H2/t4-,5+,6-,7-/m0/s1
