16
gdb 32063	3.78588	1.1646	0.8956	1.2571	76.81	-0.2243	-0.0459	0.1784	1233.812	0.126837	-434.11149	-434.103637	-434.102692	-434.144341	29.454	
O	 0.1371178969	 1.3825738234	-0.0759821664	-0.416775
C	 0.0475584874	-0.0093166314	-0.0895821207	-0.131119
C	-1.3935115023	-0.4743767584	-0.0335310839	 0.397623
N	-2.32363936	 0.4304715081	 0.0210757652	-0.362285
C	-3.621796962	-0.0336159732	 0.0718084777	 0.003002
C	-3.9605839886	-1.3440069472	 0.0676523897	-0.188289
C	-2.9321489649	-2.3677673471	 0.0075510962	 0.361475
N	-3.0102952828	-3.6450025239	-0.0077952317	-0.56316
N	-1.6416432525	-1.8018453302	-0.0422124379	-0.351649
H	-0.7819374271	 1.6970420041	-0.029830568	 0.297321
H	 0.5122527026	-0.4250391392	-0.999351839	 0.118024
H	 0.5875557272	-0.4479710588	 0.7665118004	 0.117994
H	-4.384172493	 0.7383337928	 0.1168054881	 0.122299
H	-4.9965104387	-1.6578635991	 0.1087832588	 0.108637
H	-3.9832937606	-3.9416263752	 0.0305274909	 0.217701
H	-0.8830461315	-2.4708541947	-0.0854046993	 0.2692
60.6738	145.6124	184.7109	213.3517	371.9224	395.4955	415.4708	475.1543	543.8305	579.5578	655.0482	706.564	750.8726	772.8629	794.3991	853.728	926.2971	999.6723	1011.2188	1039.1904	1084.9691	1127.8579	1148.5246	1230.8816	1253.4594	1294.8596	1325.7678	1347.808	1437.056	1468.5398	1504.888	1517.843	1597.2457	1644.7671	1725.4325	2965.1492	2979.5687	3176.2284	3210.7505	3508.9427	3581.7977	3646.8546
OCC1=NC=CC(=N)N1	OCC1=NCC=C([NH])N1	
InChI=1S/C5H7N3O/c6-4-1-2-7-5(3-9)8-4/h1-2,9H,3H2,(H2,6,7,8)	InChI=1S/C5H8N3O/c6-4-1-2-7-5(3-9)8-4/h1,6,9H,2-3H2,(H,7,8)
