14
gdb 129404	2.89247	1.65911	1.06086	5.0081	66.36	-0.2252	-0.0056	0.2197	1041.7131	0.103165	-466.228646	-466.220903	-466.219959	-466.261348	28.996	
N	-0.1299189196	 1.291046674	 0.299046705	-0.565451
C	 0.0948110798	-0.0273101251	-0.0461924869	 0.434309
N	 1.1930764705	-0.6151015804	-0.2964192814	-0.50123
N	-1.1052886271	-0.7828106105	-0.0561690893	-0.130299
N	-2.3253634903	-0.1249340569	-0.0123935533	-0.253092
C	-3.2135747663	-1.0631408505	-0.0387555383	 0.074663
N	-2.6512771744	-2.30373996	-0.09551498	-0.375994
C	-1.2497518451	-2.1823250348	-0.1030551474	 0.5097
O	-0.4434044284	-3.0718318254	-0.1319996408	-0.373783
H	 0.5826988267	 1.9354200108	-0.0025413614	 0.252294
H	-1.080557875	 1.6159444217	 0.1984431185	 0.27171
H	 1.9729597513	 0.0354693107	-0.2171966268	 0.211295
H	-4.2771317946	-0.8830736284	-0.0200495772	 0.161962
H	-3.1135919377	-3.196051195	-0.1169784007	 0.283916
54.1388	129.6034	229.1298	247.054	390.4249	405.5234	457.4166	483.4708	528.0487	582.5282	649.4305	667.6664	707.4081	747.7143	766.6603	808.5504	850.0034	930.2554	1058.6963	1090.0527	1111.7958	1122.701	1183.538	1267.1983	1333.1359	1430.8255	1452.8049	1618.1239	1638.5505	1736.9029	1878.6427	3265.4727	3500.4798	3574.9895	3688.39	3696.7179
NC(=N)N1N=CNC1=O	NC(=N)n1nc[nH]c1=O	
InChI=1S/C3H5N5O/c4-2(5)8-3(9)6-1-7-8/h1H,(H3,4,5)(H,6,7,9)	InChI=1S/C3H5N5O/c4-2(5)8-3(9)6-1-7-8/h1H,(H3,4,5)(H,6,7,9)
