15
gdb 66669	4.27792	1.26775	1.19526	5.1873	74.74	-0.2416	-0.0042	0.2373	1048.7481	0.112016	-379.566147	-379.558831	-379.557887	-379.597811	28.144	
C	-0.0218514375	 1.4741513186	 0.056331629	-0.519199
C	-0.0405825667	-0.0095285037	-0.0281117393	 0.386768
C	-0.0765095301	-1.0017841561	-1.1673408621	-0.162665
C	 0.8213451397	-1.9210785619	-0.3105381929	-0.105244
N	 0.8794556228	-0.9264606703	 0.804393642	-0.230106
C	-0.2196713313	-1.9733066618	 0.7648703751	 0.310985
C	-0.4643208168	-2.9074757918	 1.8066097903	 0.136453
N	-0.6953876684	-3.6816175373	 2.6355428269	-0.347139
C	-1.1418252891	-1.0387709654	-0.0579605422	-0.233486
H	 0.9628710142	 1.8685916761	-0.215407106	 0.139153
H	-0.7627904945	 1.9022552857	-0.6267551175	 0.132311
H	-0.257627415	 1.8089812171	 1.0718679558	 0.142096
H	-0.2078613083	-0.8690739621	-2.2310023171	 0.110459
H	 1.6332175315	-2.6052207968	-0.5240037529	 0.122441
H	-2.2152259006	-0.9436567202	-0.125950159	 0.117173
122.9677	156.5385	204.3582	267.6096	286.3692	498.8324	513.9588	529.9458	610.2788	676.8363	760.6505	775.4764	818.135	853.0229	869.3725	877.9047	899.5927	925.6867	993.1995	1015.068	1049.1913	1105.4422	1112.0722	1141.7282	1186.6865	1223.6959	1249.4413	1368.0209	1401.7376	1461.6567	1472.3958	1495.646	2346.0373	3032.4024	3101.8866	3107.6535	3195.0193	3226.3678	3236.2706
CC12C3C4N1C4(C#N)C23	C[C@@]12[C@H]3[C@H]4N1[C@@]4(C#N)[C@@H]23	
InChI=1S/C7H6N2/c1-6-3-4(6)7(2-8)5(3)9(6)7/h3-5H,1H3	InChI=1S/C7H6N2/c1-6-3-4(6)7(2-8)5(3)9(6)7/h3-5H,1H3/t3-,4-,5-,6+,7+,9?/m1/s1
