21
gdb 120997	3.72734	0.87984	0.83705	2.327	78.26	-0.2416	0.0729	0.3145	1461.7143	0.182719	-424.186378	-424.177428	-424.176484	-424.220833	33.406	
O	 0.1095869902	 1.3238208292	 0.2138986471	-0.420906
C	 0.0038288638	-0.088572526	 0.1168584874	-0.063107
C	-1.4409293602	-0.5622691545	-0.0747540242	-0.226765
C	-1.5333000571	-2.0711108642	-0.2035786896	 0.14514
O	-1.125072781	-2.7730349432	 1.0055778761	-0.320001
C	-2.2998709733	-3.6104189708	 0.9732902976	 0.131855
C	-3.4227908865	-3.0996480263	 1.9025664693	-0.2285
C	-4.0037202854	-2.2641372551	 0.716932546	-0.235032
C	-2.890516098	-2.8084259641	-0.2215465333	-0.11434
H	-0.3218255012	 1.5938511586	 1.0306458488	 0.280192
H	 0.6071724885	-0.3704809106	-0.7532850684	 0.108803
H	 0.4400350153	-0.5897436668	 0.9926193251	 0.110783
H	-2.0427455308	-0.2264242454	 0.7787891444	 0.089086
H	-1.8572104483	-0.0928862489	-0.9749662923	 0.105436
H	-0.9029613396	-2.4024483712	-1.0439335003	 0.073017
H	-2.0515046709	-4.6753708035	 0.9685080987	 0.073485
H	-4.0977124035	-3.8842842009	 2.255459733	 0.100567
H	-3.0513490345	-2.5375386878	 2.7621667068	 0.108092
H	-5.0006059159	-2.5902806229	 0.4123799228	 0.105314
H	-4.0345935665	-1.1806776773	 0.8523616179	 0.10349
H	-3.2005411751	-3.2437081982	-1.1708078629	 0.07339
62.5599	94.8937	107.1625	135.7838	260.7759	293.5841	355.6336	365.4441	424.6095	535.1349	663.4759	727.5222	776.4092	794.5992	831.3469	867.9985	916.1399	928.8217	955.2504	984.7419	1020.9697	1036.7603	1068.575	1073.9197	1090.5826	1117.2067	1131.1097	1172.7544	1193.9247	1208.5233	1236.4702	1251.427	1271.4119	1279.9269	1305.3831	1318.5401	1323.8657	1347.8836	1389.3373	1418.0068	1420.5053	1462.487	1473.7301	1490.5302	1514.565	2972.7015	3007.3671	3023.522	3056.9145	3058.0859	3066.9551	3071.7432	3081.3023	3105.7717	3115.7005	3126.6464	3817.2471
OCCC1OC2CCC12	OCC[C@H]1O[C@H]2CC[C@@H]12	
InChI=1S/C7H12O2/c8-4-3-7-5-1-2-6(5)9-7/h5-8H,1-4H2	InChI=1S/C7H12O2/c8-4-3-7-5-1-2-6(5)9-7/h5-8H,1-4H2/t5-,6+,7-/m1/s1
