16
gdb 78149	2.08555	1.77668	1.03911	2.0877	70.52	-0.2512	-0.0444	0.2068	1121.3487	0.123131	-437.914697	-437.906626	-437.905682	-437.947879	29.907	
C	-0.0464485075	 1.4834774853	 0.0199359932	-0.416378
C	 0.0772418647	-0.015518278	-0.0672521204	 0.002833
C	 0.7705924584	-0.6820190833	-1.2101288941	-0.168547
N	 1.426542786	-0.5913683974	 0.1169377577	-0.143501
C	 1.3520121748	-1.8961225071	 0.7352299815	 0.383527
O	 1.7200111843	-2.1012651493	 1.8548837651	-0.293997
C	 0.750803524	-2.9111204285	-0.2375943807	-0.469723
C	 0.4207721174	-2.1154991746	-1.4991383237	 0.414405
O	 0.0357061602	-2.5495672799	-2.5530432158	-0.309836
H	 0.8110156124	 1.9699042608	-0.4505596754	 0.139129
H	-0.9620066999	 1.8193769211	-0.4772950983	 0.133149
H	-0.0884354026	 1.7992736484	 1.0667145709	 0.143273
H	-0.743188395	-0.5708848353	 0.3873913071	 0.111415
H	 1.1788794683	-0.079512323	-2.0148893291	 0.126819
H	 1.4765749565	-3.6968600366	-0.4709674638	 0.177657
H	-0.1212236221	-3.4101002927	 0.1949908158	 0.169775
52.275	145.0869	183.3755	208.083	268.037	350.9959	433.8661	473.7125	528.2522	582.4793	600.59	663.8693	763.1037	794.0726	841.0512	889.9354	949.407	999.2845	1003.2412	1058.6508	1113.3783	1129.9641	1144.1172	1168.7077	1215.923	1229.3544	1244.905	1307.2599	1404.2854	1409.7134	1438.1571	1484.3355	1494.1868	1840.3026	1880.6119	3043.881	3068.6053	3106.6974	3109.8039	3112.8916	3135.293	3176.3537
CC1C2N1C(=O)CC2=O	C[C@H]1[C@H]2N1C(=O)CC2=O	
InChI=1S/C6H7NO2/c1-3-6-4(8)2-5(9)7(3)6/h3,6H,2H2,1H3	InChI=1S/C6H7NO2/c1-3-6-4(8)2-5(9)7(3)6/h3,6H,2H2,1H3/t3-,6+,7?/m0/s1
