14
gdb 131720	6.6117	0.87865	0.78387	4.9122	68.63	-0.2764	-0.0645	0.2119	1356.3752	0.101225	-470.012086	-470.003953	-470.003008	-470.046095	27.979	
O	 0.0075201698	 1.3342808129	 0.3347834695	-0.415095
C	-0.0053390174	-0.0348619963	-0.0300858387	-0.180471
C	-1.4311211292	-0.4870284768	-0.0137079619	 0.310395
N	-1.7819383943	-1.7555902548	 0.0799019273	-0.290216
N	-3.1293243424	-1.7173140941	 0.0317224808	 0.067995
C	-3.8716120158	-2.9170873857	 0.1078052458	 0.208636
O	-5.0636762779	-2.9731221505	 0.0744446096	-0.24439
N	-3.6659493893	-0.4933440853	-0.0794405811	-0.193124
C	-2.6115413709	 0.299869003	-0.1110820431	-0.0834
H	 0.9009912349	 1.6692048772	 0.2177936087	 0.298522
H	 0.4123144948	-0.1858016066	-1.0383374772	 0.118864
H	 0.5810493258	-0.658256194	 0.6602648053	 0.12259
H	-3.1767233046	-3.766712303	 0.1997219115	 0.126125
H	-2.7090995433	 1.370190454	-0.1898935165	 0.153568
30.6853	103.0236	159.3286	227.5412	258.6071	274.7286	312.7275	394.97	594.9155	671.2369	682.7761	712.554	829.8885	910.4487	979.697	1028.3843	1033.3568	1042.4757	1096.0145	1187.009	1224.2591	1241.8911	1265.2838	1330.1127	1411.6247	1423.6032	1426.891	1474.6537	1511.6061	1591.9635	1856.5031	2975.783	3014.545	3028.1973	3284.2933	3841.0588
OCC1=NN(C=O)N=C1	OCc1nn(C=O)nc1	
InChI=1S/C4H5N3O2/c8-2-4-1-5-7(3-9)6-4/h1,3,8H,2H2	InChI=1S/C4H5N3O2/c8-2-4-1-5-7(3-9)6-4/h1,3,8H,2H2
