21
gdb 105690	2.52163	0.98633	0.80654	4.012	80.5	-0.2733	0.0087	0.2821	1483.5781	0.180667	-424.24064	-424.230603	-424.229659	-424.276775	35.91	
C	-1.6808691549	-0.8978262733	-0.8796608089	-0.384406
C	-0.3747057557	-0.3623288995	-0.2798754871	-0.26774
C	 0.8523419655	-0.5715704042	-1.1563038164	 0.384678
C	 0.8670474352	 0.172368449	-2.4696502053	-0.158514
O	 0.8731998327	 1.592079255	-2.2316808702	-0.181158
C	-0.0139531053	 2.3562656556	-2.8914401319	 0.174757
O	-0.0582884845	 3.5444104678	-2.7783337514	-0.276833
C	 2.1886542875	-0.7708073993	-0.4819358959	-0.307482
C	 1.5107781841	-1.9337045477	-1.1613532261	-0.313861
H	-1.9534762788	-0.3780663807	-1.804331968	 0.111848
H	-1.6024264657	-1.9654572329	-1.1107485489	 0.118338
H	-2.5110080653	-0.7651704209	-0.1795294234	 0.120008
H	-0.47615796	 0.7074591244	-0.0612845067	 0.1182
H	-0.1959482318	-0.8531403411	 0.6837666498	 0.098143
H	 1.7721996283	-0.069293652	-3.0369522035	 0.11363
H	 0.0002128584	-0.0882119458	-3.0907952665	 0.110658
H	-0.6914691027	 1.765999462	-3.5407739888	 0.073851
H	 3.068517086	-0.3444654526	-0.9516443306	 0.11906
H	 2.213867319	-0.7533928791	 0.6020096299	 0.11771
H	 1.0660781411	-2.704229024	-0.5407303288	 0.116868
H	 1.9351177467	-2.3059109707	-2.0882694811	 0.112243
42.7832	55.4544	108.0567	141.8257	202.9956	217.0818	269.9871	295.4229	329.2163	392.7394	410.9679	511.0999	678.6796	717.1988	776.6796	796.3792	889.6924	922.2923	940.5646	948.1423	1014.8468	1021.0705	1045.7409	1051.0437	1058.0464	1081.2859	1097.1771	1120.2094	1178.9519	1187.7726	1273.0423	1280.2535	1341.0832	1353.6484	1379.9931	1414.1808	1414.5334	1440.4316	1470.6164	1485.5428	1495.5242	1504.7607	1505.6985	1512.6512	1865.2688	2935.5529	3018.9558	3032.0872	3035.9394	3064.7351	3071.7244	3101.3236	3108.1803	3129.1278	3135.6736	3207.352	3222.4654
CCC1(COC=O)CC1	CCC1(COC=O)CC1	
InChI=1S/C7H12O2/c1-2-7(3-4-7)5-9-6-8/h6H,2-5H2,1H3	InChI=1S/C7H12O2/c1-2-7(3-4-7)5-9-6-8/h6H,2-5H2,1H3
