20
gdb 88091	3.21367	1.25589	1.16713	1.9655	78.61	-0.2268	0.0768	0.3036	1141.3465	0.172702	-403.115049	-403.107064	-403.10612	-403.147338	32.088	
O	 0.0400307012	 1.3598153975	 0.2016808742	-0.420641
C	-0.0000121431	-0.0325039391	 0.0647186511	 0.044684
C	-0.3983711165	-0.8097140437	 1.2848422597	-0.367198
C	-1.3280442145	-0.7408133943	 0.0880577826	 0.374266
C	-2.6497826576	 0.033335447	 0.1424125596	-0.296428
C	-3.750734775	-1.0462118378	-0.0246083109	-0.215136
C	-3.0740624742	-2.1595658665	-0.8059230424	-0.026135
N	-2.326229835	-1.672367097	-1.9880608622	-0.351049
C	-1.6045152098	-1.973034367	-0.7243215028	-0.136251
H	-0.2706490348	 1.7437694304	-0.6254217889	 0.288741
H	 0.7859741312	-0.4522989656	-0.5646758792	 0.078783
H	 0.1221144139	-1.7381437968	 1.498825975	 0.105873
H	-0.6723114006	-0.2282266547	 2.158706321	 0.120487
H	-2.7645074346	 0.6124046468	 1.0605215743	 0.103372
H	-2.6993823387	 0.7342325235	-0.6962730009	 0.106275
H	-4.0607014908	-1.4402277843	 0.9504904305	 0.099895
H	-4.6425303909	-0.6546811642	-0.5235705806	 0.101091
H	-3.5241752544	-3.1466492713	-0.8445790382	 0.082071
H	-2.1938053387	-2.4479016287	-2.6330399743	 0.227333
H	-0.912819317	-2.809414384	-0.6985963374	 0.079968
102.477	155.6141	198.2158	290.9339	317.3044	369.6258	387.3546	455.0822	496.2513	590.2906	652.3626	752.5417	811.2661	828.8701	847.2968	868.4733	906.6677	913.4516	936.556	942.0759	994.2923	1007.8348	1034.4609	1057.5655	1082.5754	1111.1266	1116.5608	1157.6586	1170.8156	1203.4197	1216.5774	1248.1114	1268.6213	1303.3261	1310.769	1326.8648	1337.5695	1382.3572	1417.1947	1439.2952	1479.6025	1490.5399	1493.3877	3037.9139	3058.1558	3084.76	3086.6965	3112.2466	3124.9683	3152.6553	3163.3515	3215.1241	3497.2024	3801.0036
OC1CC11CCC2NC12	O[C@H]1C[C@]21CC[C@H]1N[C@@H]21	
InChI=1S/C7H11NO/c9-5-3-7(5)2-1-4-6(7)8-4/h4-6,8-9H,1-3H2	InChI=1S/C7H11NO/c9-5-3-7(5)2-1-4-6(7)8-4/h4-6,8-9H,1-3H2/t4-,5+,6-,7+/m1/s1
