14
gdb 33345	5.4061	0.75345	0.72056	6.3827	81.16	-0.2723	-0.0421	0.2302	1502.0405	0.100845	-399.491183	-399.483478	-399.482534	-399.524285	27.978	
N	 0.0395742751	-3.7652256107	-0.1299640669	-0.338643
C	 0.0340136597	-2.6041589333	-0.0832915312	 0.208632
C	 0.0235358083	-1.2407624294	-0.0306229724	 0.007585
C	 0.0121960788	-0.0327115069	 0.0158505549	 0.165436
C	 0.0025588485	 1.4096951508	 0.0710355154	-0.245734
C	-0.2419488493	 2.1204909463	 1.4672430706	-0.265366
C	 1.11539169	 2.8111871787	 1.2935064813	 0.038254
O	 2.0997523615	 1.7773626541	 1.181522442	-0.225223
C	 1.374702594	 2.1351885264	 0.0138609325	 0.024172
H	-0.6827915896	 1.8119403838	-0.6815637858	 0.127594
H	-1.0989228656	 2.7950550552	 1.4298970659	 0.124215
H	-0.3174327687	 1.4616965325	 2.3332196351	 0.13539
H	 1.4443896572	 3.7749300455	 1.6614489661	 0.12138
H	 1.93344228	 2.4242864871	-0.8679702075	 0.122309
69.9407	88.258	170.3895	227.5193	313.9876	417.0872	457.32	534.7421	573.7762	591.5392	717.2773	760.3428	843.0508	852.1216	895.2941	912.3944	945.4084	1002.2933	1024.2727	1061.3484	1133.6883	1181.967	1196.151	1232.5705	1237.0106	1266.3723	1334.5335	1392.8887	1472.2232	2263.0934	2396.4803	3065.0492	3085.5481	3149.0317	3192.374	3208.3747
N#CC#CC1CC2OC12	N#CC#C[C@H]1C[C@H]2O[C@@H]12	
InChI=1S/C7H5NO/c8-3-1-2-5-4-6-7(5)9-6/h5-7H,4H2	InChI=1S/C7H5NO/c8-3-1-2-5-4-6-7(5)9-6/h5-7H,4H2/t5-,6+,7-/m0/s1
