21
gdb 95806	2.28958	1.53689	1.07838	1.4835	74.1	-0.2406	0.0572	0.2978	1175.9963	0.183085	-461.368925	-461.35982	-461.358875	-461.402054	35.421	
C	 0.0050817923	 1.5550745044	-0.0018415567	-0.408054
C	 0.0436279482	 0.0244450618	 0.0077157921	-0.003432
C	 0.7341559771	-0.5368470743	-1.2429060271	-0.077672
O	 0.7616676878	-1.9591057253	-1.240501122	-0.252253
C	 1.4903373985	-2.4662920353	-0.1419965644	-0.104945
C	 0.8396593934	-2.0562734257	 1.1851201252	 0.065941
O	 1.6275341683	-2.4539950367	 2.305135882	-0.449665
C	 0.7291605541	-0.5274262425	 1.2671372168	 0.121457
O	 2.0246901404	 0.0444910328	 1.3706328345	-0.449799
H	 1.0163034203	 1.9688516952	 0.0221264972	 0.13963
H	-0.5023676239	 1.9286912437	-0.8972762836	 0.108523
H	-0.5324795841	 1.9367056013	 0.8721693361	 0.113564
H	-0.9847485796	-0.3609639091	 0.0111932524	 0.077294
H	 0.1890752655	-0.2481279772	-2.1461599253	 0.102877
H	 1.7574178445	-0.137641328	-1.3127869683	 0.103933
H	 1.5005243355	-3.5572962829	-0.2489213487	 0.092276
H	 2.5303944706	-2.1053161235	-0.1513381285	 0.099044
H	-0.1696139526	-2.4904816628	 1.2412897974	 0.075197
H	 1.8329646184	-3.3907125086	 2.2244642682	 0.291184
H	 0.1313087146	-0.2671338898	 2.1561113641	 0.063078
H	 2.5001981807	-0.4985597574	 2.0117971486	 0.291822
126.5096	163.2252	221.4699	233.294	253.5918	288.82	296.0672	333.4911	375.5972	425.0728	439.3414	469.8488	570.4844	594.7764	677.6134	847.3303	869.9159	927.6219	961.5456	980.845	1009.314	1029.6746	1056.8953	1096.9993	1125.771	1133.1704	1161.6898	1173.7031	1221.7421	1247.3312	1279.0488	1310.8324	1326.0368	1339.3526	1347.0916	1384.9957	1390.6933	1407.1705	1421.084	1427.7179	1442.3961	1487.1805	1495.8609	1502.4131	1507.0378	2960.3111	2988.7947	2996.2131	2999.0609	3024.2288	3038.0923	3061.9434	3087.9307	3100.9591	3124.9375	3779.9842	3821.0202
CC1COCC(O)C1O	C[C@H]1COC[C@@H](O)[C@H]1O	
InChI=1S/C6H12O3/c1-4-2-9-3-5(7)6(4)8/h4-8H,2-3H2,1H3	InChI=1S/C6H12O3/c1-4-2-9-3-5(7)6(4)8/h4-8H,2-3H2,1H3/t4-,5+,6-/m0/s1
