15
gdb 45036	2.34479	1.76577	1.15319	2.8874	66.16	-0.2556	-0.0489	0.2067	1021.1777	0.112206	-457.790521	-457.783098	-457.782154	-457.82311	27.879	
O	 0.1046801447	-0.0631597827	 0.0927814819	-0.28751
C	 0.0177944253	 1.127599693	-0.0590605432	 0.37717
C	-1.3359650576	 1.795524402	-0.3267660161	-0.343182
C	-1.2812337516	 3.2161956158	-0.8411354615	 0.036332
O	-0.6583707402	 4.1748582965	 0.0012145456	-0.240509
C	-0.0057200332	 3.8630690229	-1.2395739789	-0.064215
C	 1.2508708504	 3.0529213799	-1.1279234082	 0.379268
O	 2.1599621384	 3.1746418778	-1.9130673648	-0.302326
C	 1.2430679297	 2.0423293176	 0.008695208	-0.409816
H	-1.884178777	 1.1559426002	-1.0258152251	 0.147538
H	-1.9024825233	 1.7783572472	 0.6134405929	 0.15665
H	-2.1857086989	 3.5740044949	-1.3324352291	 0.1198
H	 0.0022753208	 4.6505996445	-1.9892460298	 0.119453
H	 1.166508196	 2.6013715939	 0.9505878929	 0.163048
H	 2.1539210565	 1.4447882366	 0.0015847653	 0.148299
52.5771	112.6702	242.3998	326.0626	385.4461	422.0934	491.9097	502.4513	526.1979	588.6155	673.5225	788.593	804.6439	815.693	892.9537	927.9917	976.7309	998.0566	1041.5977	1119.2229	1128.4781	1185.9455	1232.7226	1247.0884	1263.0799	1271.4553	1330.6682	1356.2803	1424.9007	1434.8025	1444.693	1809.698	1835.638	3038.4755	3041.175	3091.4509	3117.8166	3152.7984	3156.0004
O=C1CC2OC2C(=O)C1	O=C1C[C@H]2O[C@H]2C(=O)C1	
InChI=1S/C6H6O3/c7-3-1-4(8)6-5(2-3)9-6/h5-6H,1-2H2	InChI=1S/C6H6O3/c7-3-1-4(8)6-5(2-3)9-6/h5-6H,1-2H2/t5-,6+/m1/s1
