20
gdb 64240	2.85521	1.04397	0.94167	3.0551	77.84	-0.2528	0.0169	0.2698	1343.853	0.16827	-440.270936	-440.26101	-440.260065	-440.306832	35.486	
C	-0.0535163681	 1.520806064	 0.2682166398	-0.420763
C	 0.0778658771	 0.0148053828	 0.0923691182	 0.381744
C	-1.2428210233	-0.6579357538	-0.2470408246	-0.43454
O	 1.0910753574	-0.307828727	-0.911215388	-0.322022
C	 2.0118676642	-0.7914745887	 0.0829032494	-0.10677
C	 0.9434247847	-0.7006773364	 1.1771349598	 0.025755
O	 1.3324399105	 0.0529572149	 2.3068505844	-0.181179
C	 0.7829438419	-0.259588338	 3.4997082931	 0.121711
N	 1.0108079617	 0.4630497399	 4.5070627711	-0.4395
H	 0.9043402426	 1.9738085573	 0.5311770728	 0.135013
H	-0.4065911166	 1.9645524734	-0.667631124	 0.123346
H	-0.7706255367	 1.7634555143	 1.0588907858	 0.120658
H	-1.6516400358	-0.2449523952	-1.174530929	 0.130982
H	-1.1059720437	-1.7342170184	-0.3871967908	 0.117174
H	-1.9769126158	-0.4973756644	 0.5501226868	 0.116594
H	 2.3986414305	-1.7881796135	-0.1553281375	 0.107636
H	 2.850708202	-0.1052941354	 0.2540664122	 0.117382
H	 0.5293975047	-1.6663443177	 1.4871300746	 0.086779
H	 0.1693889638	-1.1711593653	 3.4700661187	 0.088306
H	 0.5454911188	 0.0759383272	 5.3252629673	 0.231693
36.0879	58.0571	106.9595	186.6594	205.2276	220.1852	266.6555	304.9867	342.4895	413.8789	415.4705	486.8531	613.5095	671.1394	813.7409	830.9307	856.7505	919.0394	942.1302	982.3686	998.0388	1015.5346	1041.2927	1048.6749	1102.6076	1153.7244	1172.0758	1174.364	1218.0028	1265.8318	1282.0883	1294.4296	1339.762	1397.3634	1399.9582	1416.2663	1433.5644	1471.7825	1478.5409	1494.5084	1501.5585	1520.9434	1746.6937	3015.9841	3022.3952	3032.304	3042.9301	3045.7174	3074.5066	3104.7056	3112.3191	3114.5292	3135.2648	3520.7561
CC1(C)OCC1OC=N	CC1(C)OC[C@H]1O[CH][NH]	
InChI=1S/C6H11NO2/c1-6(2)5(3-9-6)8-4-7/h4-5,7H,3H2,1-2H3	InChI=1S/C6H11NO2/c1-6(2)5(3-9-6)8-4-7/h4-5,7H,3H2,1-2H3/t5-/m1/s1
