19
gdb 114475	3.30882	1.27036	1.15822	2.5696	73.63	-0.2492	0.0656	0.3148	1115.8973	0.15955	-422.95195	-422.944054	-422.94311	-422.984482	30.882	
O	 0.0091117052	 1.534552775	 0.0545030932	-0.422306
C	 0.0710762227	 0.1186232694	 0.1937897795	-0.101772
C	-1.294773779	-0.5285978559	 0.0128117956	 0.020241
C	-1.9228193925	-0.5851879668	-1.4239821714	-0.275067
C	-2.1774468232	-2.1125000941	-1.2501374281	-0.056077
C	-1.0704004557	-3.0636527588	-1.7683495879	 0.013181
O	 0.183982591	-2.3840585662	-1.6502371744	-0.233793
C	-0.3590047994	-3.0027538632	-0.4763876188	 0.014152
C	-1.4454330905	-2.0781988341	 0.1314500174	-0.09693
H	-0.1934458352	 1.7239274479	-0.8670542341	 0.282645
H	 0.7966827595	-0.3191802246	-0.5026580825	 0.112175
H	 0.4337842816	-0.0622347017	 1.2125518091	 0.101128
H	-1.9889189243	-0.0421809162	 0.7055281997	 0.080409
H	-2.8307579476	 0.0093929445	-1.5439049899	 0.100222
H	-1.228531214	-0.345403946	-2.2334593761	 0.104007
H	-3.1972585333	-2.4854263664	-1.3370136373	 0.07597
H	-1.1312262128	-3.8441403996	-2.5191097121	 0.103589
H	 0.2768713093	-3.7233546381	 0.0263633575	 0.104695
H	-1.9122686919	-2.4846991249	 1.0293744805	 0.073533
89.9419	135.2818	165.332	276.1188	297.8829	346.1949	412.513	459.7974	611.7758	708.4623	738.2515	794.1286	809.8688	834.2778	855.0129	887.3852	895.8124	929.0144	973.4423	988.9643	1032.6114	1046.1792	1048.8044	1075.145	1096.6317	1122.3272	1151.8631	1198.9011	1216.4258	1227.8285	1240.9975	1251.7402	1270.4146	1294.0739	1313.5774	1343.9628	1380.5996	1395.7064	1413.891	1469.0733	1509.4173	3025.0509	3050.6282	3061.7947	3073.3749	3104.7245	3113.8227	3125.7054	3168.1433	3183.2828	3818.0775
OCC1CC2C3OC3C12	OC[C@H]1C[C@H]2[C@H]3O[C@H]3[C@@H]12	
InChI=1S/C7H10O2/c8-2-3-1-4-5(3)7-6(4)9-7/h3-8H,1-2H2	InChI=1S/C7H10O2/c8-2-3-1-4-5(3)7-6(4)9-7/h3-8H,1-2H2/t3-,4-,5+,6-,7+/m1/s1
