19
gdb 70732	2.58102	1.59138	1.21578	1.3455	77.95	-0.2276	0.0173	0.2449	1077.2639	0.159647	-423.004552	-422.996459	-422.995515	-423.036771	32.187	
O	 0.0623639998	 1.1909370357	 0.5890074561	-0.463446
C	 0.0238868521	-0.0851425047	-0.0088973932	 0.320961
C	-0.7593958213	-0.1882827582	-1.3154055026	-0.370044
C	-1.3533089009	-0.6817703236	-0.0245553103	 0.058988
O	-1.5455738623	-2.0506789415	 0.1132972948	-0.24964
C	-1.0222631124	-2.5750932623	 1.3289109473	-0.092426
C	 0.4001381496	-3.0991107738	 1.1447414008	-0.251869
C	 1.42851607	-2.1146346767	 0.6593476988	-0.046295
C	 1.2665249336	-0.8806857769	 0.1795190828	-0.120991
H	 0.6637195396	 1.7412160609	 0.0742105705	 0.280946
H	-1.1523119055	 0.7299177774	-1.7381635811	 0.112051
H	-0.4484470726	-0.9483420473	-2.0229732132	 0.125232
H	-2.1193978123	-0.0615053359	 0.4413682526	 0.097347
H	-1.0563836619	-1.8138361119	 2.1196365402	 0.106667
H	-1.6796904161	-3.3992950647	 1.6266598767	 0.103928
H	 0.7386709314	-3.5254670242	 2.1000084611	 0.105172
H	 0.3730182382	-3.9453784161	 0.4424809441	 0.119665
H	 2.4477783094	-2.4980454278	 0.6842082977	 0.087634
H	 2.1653626617	-0.3412421483	-0.123214753	 0.07612
109.2837	172.6131	254.415	273.6914	285.5105	365.1431	380.6731	422.6687	454.8538	497.1818	581.6516	655.6122	753.55	786.2947	816.1806	850.6143	911.6752	921.066	933.0588	995.848	1008.9296	1029.654	1046.4205	1073.1195	1097.3403	1112.6891	1175.5449	1217.8515	1242.3163	1260.2892	1279.2716	1312.1816	1354.2434	1393.7522	1401.0167	1417.0288	1442.9204	1456.9676	1478.078	1501.1363	1734.2379	3001.5942	3012.4199	3032.7566	3072.1531	3102.3327	3103.9347	3134.7796	3138.3155	3234.3083	3787.781
OC12CC1OCCC=C2	O[C@]12C[C@H]1OCCC=C2	
InChI=1S/C7H10O2/c8-7-3-1-2-4-9-6(7)5-7/h1,3,6,8H,2,4-5H2	InChI=1S/C7H10O2/c8-7-3-1-2-4-9-6(7)5-7/h1,3,6,8H,2,4-5H2/t6-,7-/m1/s1
