15
gdb 133078	3.80958	1.16878	0.8994	1.6061	72.77	-0.2225	-0.0231	0.1994	1214.5656	0.113796	-458.164394	-458.156318	-458.155374	-458.198401	28.722	
C	 0.0074422639	 1.4397762025	 0.007997903	-0.309238
N	-0.0708580372	-0.0051401711	 0.0028379064	-0.345994
C	-1.2339627465	-0.6950905295	 0.0099812502	 0.476177
N	-2.37979819	 0.0060105908	 0.0200565412	-0.332922
C	-3.4977312514	-0.7213982054	 0.0262565645	 0.025624
C	-3.5161984018	-2.1084296552	 0.0229173803	-0.299557
C	-2.2533590007	-2.6977144105	 0.0123921097	 0.337829
F	-2.1638760624	-4.0216025799	 0.0086624668	-0.066131
N	-1.1224385952	-2.0440767111	 0.0059015168	-0.383077
H	 1.0601646827	 1.7287019729	-0.0019407845	 0.123791
H	-0.4864562334	 1.8706112347	-0.8692069283	 0.140508
H	-0.4679499295	 1.8639764559	 0.898667743	 0.140146
H	 0.7672528857	-0.5600526214	-0.0026845711	 0.259394
H	-4.4304673148	-0.1616029482	 0.0344202181	 0.118738
H	-4.4244900894	-2.6931474245	 0.0280657939	 0.114712
26.0953	102.8021	192.3444	205.1658	237.8195	386.23	422.0604	469.0159	513.8753	553.7368	646.8137	718.9171	794.5407	805.8136	820.7447	967.9958	1002.905	1006.0277	1086.2117	1123.7336	1162.9641	1202.1689	1294.9776	1311.5215	1363.565	1399.3104	1453.5707	1475.606	1505.5256	1517.6155	1593.3911	1604.3653	1657.728	3034.4104	3087.0341	3132.952	3156.3531	3239.3416	3675.4131
CNC1=NC=CC(F)=N1	CNc1nccc(F)n1	
InChI=1S/C5H6FN3/c1-7-5-8-3-2-4(6)9-5/h2-3H,1H3,(H,7,8,9)	InChI=1S/C5H6FN3/c1-7-5-8-3-2-4(6)9-5/h2-3H,1H3,(H,7,8,9)
