23
gdb 121821	3.06879	0.71442	0.67415	2.9608	83.23	-0.2484	-0.0228	0.2256	1804.7612	0.201192	-425.446034	-425.434345	-425.4334	-425.483838	41.108	
C	-0.01061618	 1.4657448391	 0.2719144621	-0.382752
C	-0.0720630444	-0.0406984712	 0.007200479	-0.164354
C	 0.7398724117	-0.4687546163	-1.2220528612	-0.198425
C	 0.6760113425	-1.9798908387	-1.4721088938	-0.195703
C	 1.5183609665	-2.4819630858	-2.673886098	 0.249
C	 0.983803847	-2.0014581354	-4.0265705246	-0.435856
O	 2.8991820368	-2.1635963496	-2.5051589864	-0.472113
C	 1.480143193	-4.0092582112	-2.6147915349	 0.154194
O	 0.5534591324	-4.6775077521	-2.9912524511	-0.263826
H	 1.0202535722	 1.7969533278	 0.4402085823	 0.114358
H	-0.4055364262	 2.0344297428	-0.5773603121	 0.114433
H	-0.5957678529	 1.7389762451	 1.1553293365	 0.11522
H	 0.2937355683	-0.5847122663	 0.8876411919	 0.100071
H	-1.1169864196	-0.3490121291	-0.1269380908	 0.100236
H	 0.3722855934	 0.0795653723	-2.0989180967	 0.09952
H	 1.7856935056	-0.1653354417	-1.0768729595	 0.090188
H	 1.0296416974	-2.4982908503	-0.5711473948	 0.101783
H	-0.3618150973	-2.2956934845	-1.6303257348	 0.113733
H	 0.923885435	-0.9095653879	-4.0670503899	 0.110925
H	 1.6460391671	-2.3384035926	-4.8288570944	 0.127819
H	-0.0119235399	-2.4143735473	-4.2043911422	 0.142678
H	 3.0066775569	-1.2169982746	-2.6374471894	 0.285977
H	 2.3910655944	-4.4545883324	-2.1573843872	 0.092893
45.5236	60.3967	78.7775	122.3205	142.2634	217.0482	227.7776	236.1157	245.2124	269.5687	282.0873	348.7113	401.4509	446.9345	483.9988	635.8999	736.9104	770.6927	792.8466	899.8246	904.7149	936.5547	945.0408	991.9252	1030.8378	1058.8093	1070.6309	1091.2749	1135.1226	1192.2248	1208.7644	1260.2269	1277.0048	1324.8991	1336.0071	1346.6197	1378.3816	1391.9585	1400.5968	1407.7155	1415.0833	1474.161	1484.3815	1488.9005	1495.6715	1500.2763	1500.3546	1511.5189	1837.489	2897.5886	3006.8428	3016.9978	3023.2611	3030.0034	3037.3313	3044.8987	3056.3357	3076.5022	3096.4415	3103.6297	3114.4995	3133.5262	3833.5892
CCCCC(C)(O)C=O	CCCC[C@@](C)(O)C=O	
InChI=1S/C7H14O2/c1-3-4-5-7(2,9)6-8/h6,9H,3-5H2,1-2H3	InChI=1S/C7H14O2/c1-3-4-5-7(2,9)6-8/h6,9H,3-5H2,1-2H3/t7-/m1/s1
