20
gdb 16073	2.97768	1.79862	1.44479	0.9689	75.16	-0.2357	0.0884	0.3241	979.3187	0.176426	-348.965986	-348.957538	-348.956593	-348.998667	31.758	
C	-0.0009097609	 1.3439142807	-0.2226076662	-0.255188
O	-0.0218287509	-0.0065539124	 0.2052064334	-0.275893
C	-1.2783036351	-0.5770274793	 0.1555454099	 0.426127
C	-2.3238127227	-0.4254823385	 1.2723588994	-0.303808
C	-2.6715438172	-1.9417326176	 1.1023515367	-0.223344
C	-1.6044397772	-2.0559766261	 0.0052343564	-0.16234
C	-1.8754386169	-1.0836378911	-1.1320092807	-0.058788
C	-3.240141048	-0.7474803147	-1.6957006474	-0.419773
H	 1.0339836558	 1.6868372153	-0.1526713492	 0.125142
H	-0.3439707503	 1.4419991409	-1.2623401886	 0.108357
H	-0.6296525193	 1.9835292311	 0.4134872002	 0.109898
H	-1.8477986082	-0.2237947996	 2.2345274209	 0.108952
H	-3.12852536	 0.299953244	 1.1163246642	 0.091326
H	-2.4269892861	-2.5234836126	 1.9933369504	 0.105173
H	-3.6981466575	-2.1784324964	 0.8068294002	 0.096736
H	-0.9282157956	-2.8924007974	-0.1249978861	 0.088624
H	-1.0974201608	-1.1677802727	-1.8894664894	 0.088352
H	-3.9946203786	-0.6260120565	-0.9138542819	 0.119694
H	-3.2091639132	 0.1866044712	-2.2675479816	 0.114077
H	-3.5908193174	-1.5366373182	-2.3704430206	 0.116675
78.8261	165.756	180.2986	187.39	247.4784	265.1614	339.8488	391.2858	464.0684	526.2483	646.4051	706.2805	770.4176	812.3647	895.3378	922.5726	951.6427	985.1526	994.6112	1043.8125	1056.4099	1093.9093	1119.9728	1132.0959	1156.6932	1181.1447	1204.7055	1215.6852	1232.3075	1236.6495	1255.9225	1302.6216	1329.7181	1415.9072	1444.3601	1476.0963	1484.4872	1488.5538	1501.8551	1504.8171	1508.9449	1514.2175	2988.5153	3031.0854	3040.2755	3047.6728	3057.2292	3085.7737	3099.9614	3110.5716	3117.7737	3118.2547	3129.6033	3183.4836
COC12CCC1C2C	CO[C@]12CC[C@H]1[C@H]2C	
InChI=1S/C7H12O/c1-5-6-3-4-7(5,6)8-2/h5-6H,3-4H2,1-2H3	InChI=1S/C7H12O/c1-5-6-3-4-7(5,6)8-2/h5-6H,3-4H2,1-2H3/t5-,6+,7+/m1/s1
