18
gdb 80775	3.56814	0.99275	0.90476	4.0982	73.11	-0.2191	-0.0185	0.2006	1305.4352	0.145891	-439.028905	-439.020192	-439.019248	-439.063057	31.964	
O	 0.1901453848	 1.3439279654	 0.098014389	-0.414969
C	 0.0346140339	-0.04239653	 0.0193292678	 0.095732
C	-0.4166347597	-0.8826057352	 1.1840816062	-0.160021
C	-1.44485472	-0.1046458666	 2.0107900932	-0.182251
N	-2.3204985677	 0.0146226885	 0.8142678811	-0.092136
C	-2.8676323692	 1.3033032021	 0.4314274805	-0.241075
C	-4.1551956454	 1.5850809939	 1.1883546444	 0.158633
O	-4.5445812428	 2.6828030791	 1.4908899674	-0.242034
C	-1.3352753303	-0.6467109241	-0.0298244317	-0.05044
H	 0.9524637831	 1.5311201205	 0.6572291019	 0.288888
H	 0.7521197871	-0.5485642816	-0.6293406714	 0.093589
H	 0.0903727774	-1.7851869027	 1.4982846981	 0.097518
H	-1.9145318714	-0.6856283066	 2.8100390178	 0.112089
H	-1.0909323964	 0.85160695	 2.417077066	 0.100678
H	-2.1767737287	 2.1492234371	 0.544045578	 0.13188
H	-3.1409484488	 1.249399174	-0.6329189186	 0.128639
H	-4.7309871763	 0.6636489404	 1.4366123319	 0.077232
H	-1.6541340097	-1.3153234344	-0.8237661417	 0.098047
58.5012	79.4024	129.8008	213.4757	237.5851	300.7893	356.7755	370.5759	455.2648	519.338	660.2063	699.0817	747.4906	779.0881	819.621	893.5857	931.1746	962.3035	1005.4079	1031.3158	1057.0678	1061.0278	1071.7787	1107.4435	1149.939	1164.1871	1208.0487	1234.3878	1250.9062	1271.8715	1291.9049	1314.6375	1332.0088	1360.5946	1402.9946	1450.1507	1451.874	1504.086	1837.6483	2872.3091	3005.6255	3019.4107	3052.1237	3076.045	3089.3241	3153.5588	3203.049	3794.0388
OC1C2CN(CC=O)C12	O[C@H]1[C@H]2CN(CC=O)[C@@H]12	
InChI=1S/C6H9NO2/c8-2-1-7-3-4-5(7)6(4)9/h2,4-6,9H,1,3H2	InChI=1S/C6H9NO2/c8-2-1-7-3-4-5(7)6(4)9/h2,4-6,9H,1,3H2/t4-,5+,6-/m0/s1
