21
gdb 84537	2.51243	1.49013	1.27395	1.7943	83.3	-0.2282	0.0058	0.234	1113.1899	0.182342	-387.086798	-387.077946	-387.077002	-387.119457	35.203	
C	-0.0729299695	 1.5761643477	-0.0746578988	-0.483305
C	 0.0366620846	 0.0639417617	 0.0078925701	 0.329787
C	-1.2047509744	-0.6395459361	-0.516686145	-0.451141
C	 1.3510137013	-0.6725956756	-0.2432934557	-0.128862
C	 2.6200906605	 0.105401952	-0.1121299783	-0.086156
C	 2.8176529134	 0.5272353355	 1.1379354682	-0.132877
C	 1.7165080098	 0.060780955	 2.0801572653	 0.081705
O	 1.1657261874	 1.089880173	 2.8957924916	-0.438167
C	 0.7346135826	-0.6619988617	 1.1467038223	-0.125211
H	 0.8634220219	 2.0814437022	 0.1717397556	 0.120437
H	-0.3473562102	 1.8818415426	-1.0913042342	 0.114206
H	-0.8602772853	 1.9465365595	 0.5932678351	 0.117853
H	-1.3985551235	-0.365060852	-1.5603108829	 0.114398
H	-1.1027031573	-1.7279811337	-0.4695634214	 0.114185
H	-2.0893992967	-0.3620507992	 0.0687125774	 0.117868
H	 1.3267249503	-1.5515454829	-0.8796693347	 0.08305
H	 3.2677044855	 0.3137656041	-0.957243725	 0.097228
H	 3.6335502417	 1.1502995363	 1.4866929247	 0.099324
H	 2.1177950275	-0.6560994134	 2.8081709328	 0.092475
H	 0.787529259	 1.7537041085	 2.3109519736	 0.281854
H	 0.2332270314	-1.5390648135	 1.5397968393	 0.081347
148.1983	176.5245	203.2702	227.4254	244.4014	299.9813	325.9324	349.8881	379.209	443.733	527.7521	558.5771	653.7798	730.6128	758.9018	812.8677	831.4398	869.9796	921.7558	957.7449	966.0274	986.4073	991.9406	1022.2231	1053.7923	1071.2129	1085.2496	1106.6583	1136.0862	1150.2893	1202.4065	1256.2276	1297.1412	1308.0622	1315.6254	1367.6457	1401.6058	1403.6013	1421.9051	1429.1066	1487.28	1492.0216	1510.1587	1512.1424	1668.9949	3018.9585	3021.6765	3023.2684	3072.7151	3081.3271	3099.6969	3114.532	3154.3212	3170.1067	3179.8567	3207.6411	3829.0052
CC1(C)C2C=CC(O)C12	CC1(C)[C@H]2C=C[C@@H](O)[C@@H]12	
InChI=1S/C8H12O/c1-8(2)5-3-4-6(9)7(5)8/h3-7,9H,1-2H3	InChI=1S/C8H12O/c1-8(2)5-3-4-6(9)7(5)8/h3-7,9H,1-2H3/t5-,6+,7-/m0/s1
