18
gdb 50550	2.21843	1.31079	0.86288	4.1701	79.51	-0.2417	0.0219	0.2636	1314.013	0.146462	-401.925691	-401.916469	-401.915525	-401.960626	32.911	
O	 0.0951745585	 0.0319045575	 0.6462973233	-0.330876
C	 0.1423317571	 1.2442693955	 0.5994681558	 0.120941
N	 1.1004683867	 1.937959181	-0.0664483937	-0.044222
C	 2.3739351473	 1.4295287517	-0.5843652056	-0.161683
C	 2.9028989379	 2.8919301631	-0.5962690801	-0.276756
C	 1.5419202946	 3.3391449989	 0.0168121854	 0.039538
C	 0.7269426857	 4.3417714122	-0.8162463423	-0.355387
C	-0.5998473267	 4.5973414234	-0.2706811609	 0.287754
C	-1.687216529	 4.7929514955	 0.2028425031	-0.429578
H	-0.5993064112	 1.9104013899	 1.0800997281	 0.08596
H	 2.8762931561	 0.7506056328	 0.1115491317	 0.128545
H	 2.2938728042	 0.9362591012	-1.5574608296	 0.124188
H	 3.772676131	 3.0765574103	 0.0339947163	 0.120984
H	 3.0906527213	 3.2979862346	-1.5920867258	 0.115858
H	 1.6148667025	 3.7021641141	 1.0484955093	 0.100097
H	 1.2941521371	 5.2806553177	-0.8689762247	 0.135792
H	 0.6444719794	 3.9634130878	-1.8427019862	 0.135385
H	-2.6525245225	 4.9714807029	 0.6080854359	 0.20346
57.718	74.597	105.7612	145.5183	199.9486	297.014	318.6327	346.2013	390.3432	485.5078	582.6263	628.8932	648.0409	744.5261	794.5392	856.0225	895.538	947.207	965.0027	985.0796	1037.8515	1061.0886	1113.1788	1154.8891	1177.2481	1206.3335	1233.2256	1268.2838	1273.4249	1306.5762	1337.3773	1382.4255	1388.0401	1431.1767	1460.6266	1490.5621	1523.7042	1785.6137	2238.447	2959.6319	3019.1035	3035.0745	3049.6528	3061.8019	3085.1121	3091.8982	3143.5427	3504.707
O=CN1CCC1CC#C	O=CN1CC[C@H]1CC#C	
InChI=1S/C7H9NO/c1-2-3-7-4-5-8(7)6-9/h1,6-7H,3-5H2	InChI=1S/C7H9NO/c1-2-3-7-4-5-8(7)6-9/h1,6-7H,3-5H2/t7-/m1/s1
