23
gdb 117337	4.12587	0.66898	0.62691	1.648	83.83	-0.2636	0.022	0.2855	1932.0045	0.202425	-425.486172	-425.474786	-425.473842	-425.52441	39.773	
C	-0.1643588907	 1.586657587	 0.0473097856	-0.386126
C	-0.0201547899	 0.0643036028	-0.0130914429	-0.155052
C	-1.3686646252	-0.6532852048	 0.0480008627	-0.307901
C	-1.245944794	-2.1634873862	-0.0028470498	 0.44422
O	-0.2079662385	-2.7762366049	-0.0684516179	-0.363183
O	-2.4641819791	-2.7399245266	 0.0408176196	-0.263207
C	-2.5133636573	-4.1918340679	 0.0138030299	 0.148616
C	-3.8093761174	-4.5821012358	 0.7090227337	-0.392545
C	-2.4264566322	-4.6814609778	-1.4280948791	-0.396269
H	 0.8125764242	 2.077267909	 0.0021980789	 0.115339
H	-0.7650272161	 1.9646884347	-0.78778415	 0.113183
H	-0.653761721	 1.9051125551	 0.9747460683	 0.113281
H	 0.5001978106	-0.2297115719	-0.9309236651	 0.111554
H	 0.6097918322	-0.2889141229	 0.8101466539	 0.112735
H	-1.9155622539	-0.3927614759	 0.963142296	 0.126989
H	-2.0227899426	-0.3420143852	-0.776282888	 0.126735
H	-1.6487158167	-4.5581235949	 0.5745192719	 0.10782
H	-4.674845721	-4.1879028477	 0.1671240231	 0.124023
H	-3.8987284906	-5.6716016217	 0.7535473474	 0.119479
H	-3.8358645987	-4.1916334158	 1.729906723	 0.122985
H	-2.4898854437	-5.7737766854	-1.4582042843	 0.117685
H	-3.2489449049	-4.272713602	-2.0239985028	 0.118888
H	-1.4774983833	-4.3814898111	-1.8775978739	 0.140751
25.8895	53.9836	69.9743	111.1244	125.0117	211.7532	229.9623	245.8476	261.4003	286.3793	351.1073	402.9308	430.6807	481.961	591.4928	714.5123	747.7364	826.69	883.8082	903.3854	911.2436	933.6663	950.4422	979.9676	1052.143	1122.3243	1125.39	1141.9795	1161.457	1202.7594	1207.2423	1249.7823	1321.4636	1327.0359	1360.3056	1384.5235	1401.8724	1406.1119	1413.4903	1418.0583	1457.4202	1481.1973	1485.933	1487.9009	1495.6604	1500.3616	1509.0766	1511.0943	1807.6376	3027.9718	3031.8297	3039.697	3043.8999	3050.0483	3057.8854	3072.8459	3077.8431	3101.3921	3104.5937	3108.7459	3119.3172	3120.8824	3134.342
CCCC(=O)OC(C)C	CCCC(=O)OC(C)C	
InChI=1S/C7H14O2/c1-4-5-7(8)9-6(2)3/h6H,4-5H2,1-3H3	InChI=1S/C7H14O2/c1-4-5-7(8)9-6(2)3/h6H,4-5H2,1-3H3
