18
gdb 61273	3.38971	0.82667	0.69879	6.652	73.45	-0.2651	-0.0333	0.2317	1578.6456	0.144158	-439.120666	-439.110271	-439.109326	-439.157335	35.895	
C	 0.1457051579	 1.3904857432	 0.1469459689	-0.47208
C	 0.3388686944	-0.088679056	-0.1219636631	 0.383583
O	 1.2925509508	-0.698428785	 0.3091224416	-0.290095
C	-0.7426095168	-0.7654741574	-0.9582474716	-0.348025
C	-0.6994209628	-2.3003851429	-0.9757310693	 0.137305
O	-1.9106852265	-2.8324044323	-1.4800580867	-0.421296
C	 0.529207768	-2.8329349698	-1.743387549	-0.37707
C	 0.5765554698	-4.2918111203	-1.787752316	 0.271314
N	 0.6270129846	-5.4452911199	-1.8255698871	-0.305806
H	 1.0299379266	 1.7973715507	 0.6383750186	 0.150357
H	-0.0524514643	 1.9347548199	-0.7827697395	 0.139602
H	-0.7284081868	 1.5370210014	 0.792193687	 0.150029
H	-1.7265819602	-0.4549249205	-0.587627805	 0.137265
H	-0.6757345938	-0.3650627002	-1.9819143137	 0.119492
H	-0.6384117799	-2.6615417182	 0.0550880426	 0.126953
H	-1.9857895839	-2.6012848641	-2.412924014	 0.282428
H	 0.5191369251	-2.4511395731	-2.7734956166	 0.131164
H	 1.4344944479	-2.4536561053	-1.2607738171	 0.184881
37.0118	65.4036	102.6707	117.9059	153.5597	179.9498	278.2461	289.6522	351.183	398.7503	401.6901	444.6337	490.1817	554.8296	626.0702	796.6689	840.5151	876.9519	942.5611	945.6632	982.0062	1055.3156	1090.5258	1108.4712	1176.7078	1197.1408	1206.8046	1304.2556	1313.3614	1365.4537	1382.1998	1387.3769	1418.4242	1447.8139	1462.631	1469.8781	1475.3888	1803.9624	2366.4874	3002.4463	3023.7877	3037.4832	3065.9632	3084.0899	3098.3976	3105.6367	3155.6888	3796.1643
CC(=O)CC(O)CC#N	CC(=O)C[C@@H](O)CC#N	
InChI=1S/C6H9NO2/c1-5(8)4-6(9)2-3-7/h6,9H,2,4H2,1H3	InChI=1S/C6H9NO2/c1-5(8)4-6(9)2-3-7/h6,9H,2,4H2,1H3/t6-/m0/s1
