18
gdb 19432	3.89098	1.93165	1.61157	2.1542	71.49	-0.2341	0.0739	0.308	850.4145	0.157023	-343.943773	-343.937143	-343.936198	-343.974302	26.94	
C	-0.0098485065	 1.477464993	-0.0046695681	-0.299262
N	 1.2475800507	 0.6976729712	-0.0008829478	-0.362952
C	-0.0524453526	 0.000333882	 0.0159746339	 0.402884
C	-0.3909140711	-0.8409623017	 1.2463633473	-0.290685
C	-0.2852854363	-2.3113457762	 0.7620948089	-0.214068
C	-0.5893613897	-2.2369396895	-0.7259504496	-0.027152
N	-1.7959162641	-1.4352547959	-1.0278633294	-0.342908
C	-0.4500015098	-0.8277132743	-1.1729153235	-0.136035
H	-0.1984039977	 2.0392285565	 0.9065942863	 0.116411
H	-0.3063128874	 1.9896088711	-0.9169876727	 0.106756
H	 1.6431777877	 0.6807023849	-0.9392598254	 0.222175
H	 0.2836800404	-0.6149115013	 2.074215936	 0.108657
H	-1.4145782824	-0.6267995255	 1.5632289684	 0.119221
H	 0.7333370193	-2.6931279877	 0.8961845205	 0.104489
H	-0.9658295278	-2.9779599828	 1.3001269845	 0.102469
H	-0.3385547154	-3.0690440371	-1.3761821082	 0.08384
H	-2.1389155292	-1.6883209188	-1.9515724299	 0.2297
H	-0.0937720678	-0.5548255078	-2.1627284512	 0.07646
124.3686	233.2427	295.982	359.4858	374.0583	468.0172	547.4493	658.3816	751.8047	813.2484	825.7277	848.9631	875.003	905.8732	906.6081	938.7534	947.0268	980.5557	991.959	1049.9589	1069.0667	1090.4915	1116.007	1137.5721	1156.6818	1197.2527	1216.4988	1253.925	1262.9654	1295.5583	1317.8065	1339.3378	1356.755	1398.1277	1444.8796	1475.1216	1490.3568	1516.2145	3042.6058	3071.387	3088.9408	3101.6018	3125.2596	3142.826	3162.4617	3184.4133	3476.0725	3498.4429
C1NC11CCC2NC12	C1N[C@]21CC[C@H]1N[C@@H]21	
InChI=1S/C6H10N2/c1-2-6(3-7-6)5-4(1)8-5/h4-5,7-8H,1-3H2	InChI=1S/C6H10N2/c1-2-6(3-7-6)5-4(1)8-5/h4-5,7-8H,1-3H2/t4-,5-,6+/m1/s1
