18
gdb 93339	2.33198	1.63605	1.07876	5.8823	75.75	-0.2372	0.0059	0.2431	1132.4874	0.149281	-435.316668	-435.307965	-435.307021	-435.350314	31.864	
C	 0.1515528055	 1.5942124225	 0.0698115989	-0.389754
C	 0.0419325366	 0.0662278441	 0.0881279669	 0.015679
C	 0.7016778465	-0.5953721719	-1.1437120005	-0.188489
N	 2.0303378777	-0.8865806949	-0.6373959439	-0.357663
C	 2.0285040452	-1.0731171351	 0.740140737	 0.467771
O	 2.9026242024	-1.5768807916	 1.3935167613	-0.370687
N	 0.802070947	-0.5341830823	 1.1912394174	-0.113195
C	 0.3368511994	-0.4780766368	 2.4953401829	 0.078994
N	 0.978002982	-0.8805309779	 3.513537116	-0.423888
H	 1.1931862844	 1.9019996353	-0.0611456098	 0.142129
H	-0.4423847794	 2.0089835172	-0.7510523759	 0.120799
H	-0.2173028814	 2.0236168994	 1.0058572511	 0.125756
H	-1.0100672842	-0.2272284659	 0.163796143	 0.096598
H	 0.1588225654	-1.5028086686	-1.4445449067	 0.110544
H	 0.7306088513	 0.0882300696	-1.9970356168	 0.118286
H	 2.6717284839	-1.4656012198	-1.1557985369	 0.256558
H	-0.6735728242	-0.0466432113	 2.5190551129	 0.08592
H	 0.4060777619	-0.7497676119	 4.3463857431	 0.224641
67.3821	122.0353	172.0892	182.439	218.4906	254.6885	329.8521	429.8474	475.3727	506.7851	526.9625	704.5922	741.5233	760.9556	781.6668	812.8206	866.7402	957.9357	1001.2341	1060.7222	1075.3481	1097.9834	1141.6843	1147.5029	1219.2222	1226.3485	1254.5414	1286.5062	1350.4111	1375.6296	1408.811	1426.6967	1438.377	1439.3832	1492.2336	1496.3658	1530.8262	1721.5653	1869.374	2996.765	3012.9296	3039.0943	3052.1152	3077.7204	3112.41	3122.0306	3497.0429	3643.9395
CC1CNC(=O)N1C=N	C[C@H]1CNC(=O)N1[CH][NH]	
InChI=1S/C5H9N3O/c1-4-2-7-5(9)8(4)3-6/h3-4,6H,2H2,1H3,(H,7,9)	InChI=1S/C5H9N3O/c1-4-2-7-5(9)8(4)3-6/h3-4,6H,2H2,1H3,(H,7,9)/t4-/m0/s1
