13
gdb 129344	5.52628	1.05663	0.88703	2.7024	71.15	-0.2513	-0.0858	0.1655	1210.5436	0.09034	-448.930508	-448.923175	-448.922231	-448.963905	25.57	
N	-0.1848853866	 1.2944496284	 0.0120550021	-0.41323
C	-0.0134966941	 0.0496773335	 0.0017211848	 0.116287
O	-1.144292318	-0.7360186778	 0.0077940769	-0.207088
C	-1.0476764796	-2.0806618993	 0.0002002924	 0.530834
N	-2.2324431079	-2.6980312914	 0.0040483658	-0.277799
C	-2.1545874857	-4.0172212886	-0.0031279811	-0.000996
C	-0.9165340811	-4.667150115	-0.0139565075	 0.006739
N	 0.2184156956	-3.9786263823	-0.0172008218	-0.155706
N	 0.1563203058	-2.6520780635	-0.0098087391	-0.280425
H	 0.7183439815	 1.7653517888	 0.0056314669	 0.242345
H	 0.9129562088	-0.5214204001	-0.0117952732	 0.158445
H	-3.08956882	-4.5726101899	-0.0002948397	 0.142291
H	-0.8267587288	-5.7474514529	-0.0200935064	 0.138304
30.6479	83.2709	194.9033	197.3924	397.5377	439.4416	498.0246	560.371	644.7548	719.126	831.3002	846.6475	889.5662	892.9246	1010.3839	1030.9923	1046.9955	1068.9084	1094.3579	1151.0932	1198.5939	1259.1954	1359.8917	1384.4327	1410.6518	1459.331	1574.1587	1594.5375	1745.2775	3157.7129	3162.2959	3204.4923	3515.5821
N=COC1=NC=CN=N1	[NH][CH]Oc1nccnn1	
InChI=1S/C4H4N4O/c5-3-9-4-6-1-2-7-8-4/h1-3,5H	InChI=1S/C4H4N4O/c5-3-9-4-6-1-2-7-8-4/h1-3,5H
