21
gdb 38393	3.81871	1.276	1.25802	0.3012	85.84	-0.2435	0.0937	0.3372	1110.0026	0.184148	-349.893713	-349.886308	-349.885364	-349.925317	30.894	
C	 0.0201646472	 1.4459443518	 0.1231917602	-0.28634
C	 1.3353099046	 0.7444099349	-0.0591271531	-0.036414
C	 1.7808713866	 0.1189404355	 1.2675216416	-0.317483
C	 0.4525852326	-0.7098186034	 1.3038619751	 0.391232
C	 0.4948881467	-2.2743325206	 1.3226376291	-0.32416
C	-0.4847902021	-2.2712248215	 2.5005811101	-0.034345
C	 0.0919711443	-1.4902798262	 3.6462376521	-0.284052
C	-0.5155940239	-0.7412640203	 2.4905546677	-0.113254
C	 0.0310056269	-0.0534384443	-0.0137899933	-0.122109
H	-0.2259525051	 1.9132082817	 1.0747792843	 0.103853
H	-0.3490186653	 1.9851366884	-0.7435699226	 0.107761
H	 1.9775357138	 0.9456157524	-0.9077440746	 0.082002
H	 2.6573717597	-0.5269649722	 1.1687862408	 0.099641
H	 1.9504838247	 0.816818494	 2.0953147402	 0.09169
H	 0.0736803925	-2.701205674	 0.4083169592	 0.101737
H	 1.4700100427	-2.7393635334	 1.508250405	 0.089573
H	-1.3045006939	-2.9657900744	 2.6371945865	 0.081869
H	-0.4965619627	-1.491165307	 4.5583524012	 0.107353
H	 1.1674241943	-1.4706773909	 3.812250128	 0.103419
H	-1.3586042061	-0.0724539322	 2.6218569054	 0.079413
H	-0.4974563974	-0.5566163783	-0.8162185229	 0.078614
130.1275	132.5017	216.8995	366.982	387.1294	411.3437	484.4405	498.5599	725.0742	749.1781	784.6943	791.241	820.7547	837.2401	883.2787	904.8194	934.7031	938.9685	959.9392	972.1474	989.5778	992.8184	1033.3198	1041.1075	1061.6905	1062.6051	1082.4867	1084.2639	1126.1521	1134.9915	1142.841	1173.5924	1188.8756	1214.3654	1237.9911	1246.5798	1252.4666	1298.7394	1317.0482	1354.6581	1366.4288	1476.4532	1480.5626	1494.6632	1496.0725	3032.4441	3035.4992	3091.1184	3094.4731	3101.1949	3101.2944	3164.359	3170.6332	3181.8642	3182.7516	3197.7051	3198.0463
C1C2CC3(CC4CC34)C12	C1[C@H]2C[C@]3(C[C@H]4C[C@@H]34)[C@@H]12	
InChI=1S/C9H12/c1-5-3-9(7(1)5)4-6-2-8(6)9/h5-8H,1-4H2	InChI=1S/C9H12/c1-5-3-9(7(1)5)4-6-2-8(6)9/h5-8H,1-4H2/t5-,6+,7-,8+,9-/m0/s1
