17
gdb 79485	2.30692	1.94306	1.26028	4.2254	77.94	-0.2358	0.0036	0.2394	1012.3836	0.136231	-380.782726	-380.775188	-380.774244	-380.814579	29.345	
C	 0.0700937054	 1.5194849703	-0.1676856926	-0.341169
N	 0.0350021373	 0.0644844573	-0.0346261709	-0.152242
C	-1.1000641628	-0.5011618943	 0.7573710311	-0.026411
C	-0.2651119528	-1.7509591514	 1.1745317198	-0.094166
C	-0.6359395818	-1.6038820954	 2.6616268251	-0.281287
C	-0.5235337512	-0.1444393414	 2.18145438	-0.113619
C	 0.6714108299	-0.4937602867	 1.1998354568	 0.297683
C	 2.0836853327	-0.4362397795	 1.4733884153	 0.160511
N	 3.2155358183	-0.3776164986	 1.7041865059	-0.347882
H	 1.0709807763	 1.8236691241	-0.4879537567	 0.139515
H	-0.6374188381	 1.8162455508	-0.9479024819	 0.127786
H	-0.180440696	 2.0686117537	 0.7542539913	 0.102857
H	-2.1363379656	-0.4692348144	 0.422455473	 0.097076
H	-0.0899324547	-2.6358777999	 0.5651496814	 0.103575
H	-1.6353959528	-1.9428521587	 2.9459324342	 0.108289
H	 0.1069621637	-1.9400442917	 3.3891256892	 0.119565
H	-0.6482094678	 0.7737930459	 2.752844379	 0.099919
121.9894	164.7679	214.9526	244.8304	281.5854	400.5548	506.687	544.825	557.7759	573.5004	728.5171	748.2704	822.4283	867.1691	892.2317	915.6123	925.0406	939.9325	1030.1691	1039.7273	1066.1498	1105.3595	1123.3455	1152.2745	1164.0788	1172.6182	1179.6085	1199.8482	1236.1908	1242.6245	1267.4727	1325.338	1446.37	1491.4745	1496.79	1512.8435	2347.9131	2976.9833	3060.3006	3075.4534	3112.3337	3119.215	3124.4829	3135.6303	3143.126
CN1C2C3CC2C13C#N	CN1[C@H]2[C@@H]3C[C@H]2[C@]13C#N	
InChI=1S/C7H8N2/c1-9-6-4-2-5(6)7(4,9)3-8/h4-6H,2H2,1H3	InChI=1S/C7H8N2/c1-9-6-4-2-5(6)7(4,9)3-8/h4-6H,2H2,1H3/t4-,5+,6-,7+
