18
gdb 35691	2.33141	1.50573	1.09001	4.4707	75.72	-0.2567	0.0175	0.2741	1133.6972	0.148193	-401.928406	-401.920122	-401.919178	-401.962128	30.337	
N	-0.5548231327	-0.7650353288	-0.8797317685	-0.331287
C	-0.3673981153	 0.2694404377	-0.3973463525	 0.276737
C	-0.0930820526	 1.5546229631	 0.22006012	-0.209634
C	 0.1359301341	 1.608445341	 1.7635212119	-0.233048
C	 1.2739619035	 2.6314234896	 1.5140838129	-0.297365
C	 1.321789886	 2.1948091095	 0.0300277605	 0.281245
C	 2.5075272925	 1.3535702046	-0.4907556461	-0.131906
O	 2.7990632454	 2.3253358157	-1.515586484	-0.26863
C	 1.6726561666	 3.1355182869	-1.1323491883	-0.137361
H	-0.8667923023	 2.2682470072	-0.0817195476	 0.124827
H	-0.7155861736	 1.921067237	 2.3690731736	 0.120537
H	 0.5102545103	 0.6548501486	 2.140927002	 0.131288
H	 0.9301340084	 3.6651262947	 1.6190641364	 0.112935
H	 2.1937963236	 2.5097935885	 2.0900505896	 0.116803
H	 3.341669465	 1.2325739031	 0.2120583733	 0.103519
H	 2.2440082498	 0.3763787437	-0.9136093261	 0.12941
H	 0.9172077371	 3.1977247814	-1.9277385974	 0.106655
H	 1.9702250143	 4.1517545966	-0.8415453296	 0.105275
59.5153	80.0746	141.2338	184.3341	270.4112	356.1445	365.6991	459.0897	540.8015	569.4968	688.7403	772.0774	853.7673	879.1194	890.7963	945.472	952.3455	973.0704	987.4419	1044.0003	1055.3713	1095.6984	1144.601	1151.0314	1161.4587	1184.1119	1222.9385	1238.5149	1258.3979	1270.9135	1286.9536	1312.9227	1344.2436	1386.2769	1481.7368	1497.1228	1505.3147	1530.0598	2350.4661	2996.1775	3013.5777	3041.2861	3055.1072	3058.8102	3060.3615	3080.7594	3111.3714	3139.9929
N#CC1CCC11COC1	N#C[C@H]1CCC21COC2	
InChI=1S/C7H9NO/c8-3-6-1-2-7(6)4-9-5-7/h6H,1-2,4-5H2	InChI=1S/C7H9NO/c8-3-6-1-2-7(6)4-9-5-7/h6H,1-2,4-5H2/t6-/m1/s1
