16
gdb 6697	7.31106	0.76953	0.72013	5.3143	79.87	-0.2374	-0.0447	0.1928	1518.1716	0.129266	-342.754385	-342.745511	-342.744567	-342.788228	30.883	
C	-0.0447067225	 1.4729441379	 0.0220131377	-0.316119
N	 0.0313084626	 0.0193856244	 0.0288666002	-0.050113
C	 0.8246718424	-0.4759914975	 1.1459513722	-0.326185
C	-1.3035144559	-0.5684801615	-0.0084381552	-0.320234
C	-1.2844381023	-2.0069971027	-0.2531063244	 0.041137
C	-1.2918002774	-3.1988332537	-0.4489327162	 0.119833
C	-1.297231852	-4.546097587	-0.670763234	 0.204042
N	-1.3022735806	-5.6926739778	-0.8574006911	-0.335736
H	 0.9667031	 1.8870913918	-0.0129679314	 0.128743
H	-0.5828706634	 1.8153903224	-0.8674525131	 0.123735
H	-0.5521231613	 1.8879970508	 0.9138049085	 0.097648
H	 0.3979552889	-0.2070603701	 2.1311477815	 0.096659
H	 0.9044506476	-1.5647351801	 1.0934649933	 0.137991
H	 1.8328981576	-0.0570459218	 1.0864045742	 0.128226
H	-1.8800224173	-0.3827248759	 0.9219893445	 0.122063
H	-1.8684645666	-0.0908642493	-0.8189702966	 0.148311
66.754	76.7262	162.0977	214.2979	252.6235	257.8013	336.7396	359.6659	374.4971	394.3049	499.0946	577.3466	585.0804	758.4968	848.927	986.1532	1047.6119	1067.5449	1122.0489	1167.995	1174.8605	1205.5025	1294.1154	1303.0312	1389.8054	1444.5205	1463.2591	1479.0427	1482.4838	1498.0504	1499.24	1511.8457	2267.0153	2404.1529	2886.7761	2925.5699	2934.1242	3041.8405	3066.1875	3077.7997	3112.9046	3123.3985
CN(C)CC#CC#N	CN(C)CC#CC#N	
InChI=1S/C6H8N2/c1-8(2)6-4-3-5-7/h6H2,1-2H3	InChI=1S/C6H8N2/c1-8(2)6-4-3-5-7/h6H2,1-2H3
