22
gdb 7202	5.76194	0.77941	0.71884	1.9285	76.83	-0.2495	0.0849	0.3344	1634.3674	0.19727	-387.321767	-387.311118	-387.310174	-387.357991	36.259	
C	-0.022604215	 1.3725997072	 0.0179525939	-0.227112
O	-0.0009096806	-0.0331120135	 0.014717731	-0.233053
C	-1.2913416195	-0.603828354	 0.0137003015	-0.054898
C	-1.1588538351	-2.1261025076	 0.045517484	-0.013111
C	-0.4460465204	-2.6086596061	 1.3134771508	-0.386442
C	-2.5360913076	-2.7699906626	-0.110894815	-0.054897
O	-2.3766350237	-4.1674665138	-0.2229808902	-0.233047
C	-3.5992429011	-4.8516390642	-0.339754395	-0.227112
H	 1.0145139755	 1.7171031278	 0.0168666603	 0.126479
H	-0.5317641661	 1.7768386798	-0.8719347912	 0.101655
H	-0.5290925878	 1.772998192	 0.9109944244	 0.102281
H	-1.8648812387	-0.2505499986	 0.8902375156	 0.080109
H	-1.8466117579	-0.2832056333	-0.8855083062	 0.080078
H	-0.5623872762	-2.4186193541	-0.8281144138	 0.09265
H	-1.0176180782	-2.3316383018	 2.2084839161	 0.101176
H	-0.341834718	-3.6956005766	 1.3034217294	 0.127322
H	 0.5438617634	-2.1544504069	 1.3920364371	 0.127318
H	-3.1735011867	-2.5278307159	 0.7592394263	 0.080106
H	-3.0481093984	-2.3741350356	-1.0057930828	 0.080081
H	-3.3725898744	-5.9175570139	-0.4218743056	 0.126479
H	-4.2441603358	-4.6921995323	 0.5394689363	 0.102282
H	-4.1606091178	-4.5381992959	-1.234839447	 0.101656
63.7693	85.7201	93.8524	110.1252	133.1462	208.5062	235.5394	235.8094	254.8072	327.347	332.3375	388.1247	463.7065	570.5072	860.541	922.6192	936.1994	964.3821	985.0861	1012.7186	1129.9679	1155.2993	1166.8366	1167.4602	1179.037	1189.4744	1198.5619	1218.1145	1240.5217	1262.3256	1287.9645	1305.6993	1382.4716	1395.908	1424.9946	1431.1295	1478.7668	1481.8173	1485.1271	1485.2609	1496.4977	1498.5718	1503.4579	1505.0053	1525.3127	1531.2145	2929.3409	2937.4885	2956.6317	2965.2313	2966.3354	2968.3223	3007.7913	3007.9141	3027.7142	3039.8236	3108.6726	3111.9456	3112.0877	3140.5419
COCC(C)COC	COCC(C)COC	
InChI=1S/C6H14O2/c1-6(4-7-2)5-8-3/h6H,4-5H2,1-3H3	InChI=1S/C6H14O2/c1-6(4-7-2)5-8-3/h6H,4-5H2,1-3H3
