19
gdb 64825	3.73656	0.89542	0.86333	3.4836	79.2	-0.238	-0.0685	0.1695	1412.2298	0.15752	-419.206541	-419.196928	-419.195984	-419.241289	35.265	
C	-0.0245315441	 1.6097233284	-0.6566082777	-0.45133
C	-0.0256497829	 0.1813740376	-0.1462120971	 0.364551
C	 1.2336913884	-0.6461865818	-0.2192520286	-0.322717
C	 0.724524368	-0.155787176	 1.1154883894	-0.258408
N	-1.247258559	-0.5518832382	-0.364588302	-0.371408
C	-2.4168443866	-0.2636470132	 0.288455662	 0.278712
N	-2.5133148801	 0.5780175258	 1.2459634982	-0.510361
C	-3.5977788234	-1.0748621734	-0.2055178437	 0.107288
O	-4.6993278832	-0.9705284346	 0.264264232	-0.234621
H	 0.9327307854	 2.0943327437	-0.4438226165	 0.115167
H	-0.1848258411	 1.6404418178	-1.7406292862	 0.105615
H	-0.8167596715	 2.1833237888	-0.1684253276	 0.153509
H	 1.1327828678	-1.7040737596	-0.4369080272	 0.110504
H	 2.1163939177	-0.1807639178	-0.6438136285	 0.116411
H	 1.2555376407	 0.6488893301	 1.6107290676	 0.119992
H	 0.2743725553	-0.8782977708	 1.7843764019	 0.125947
H	-1.3268929172	-1.0488194896	-1.2391644363	 0.240189
H	-3.4790733478	 0.5633216083	 1.5808757516	 0.233116
H	-3.3886921965	-1.7853098655	-1.0385699414	 0.077842
66.6164	73.1529	139.1939	171.5996	231.1	259.9599	311.4076	341.4641	382.3951	407.8047	420.2604	470.9819	585.3352	733.4431	750.0323	773.7652	871.0657	879.3351	912.908	940.4929	964.0601	1004.4377	1025.0054	1042.4128	1069.9727	1079.7201	1131.2994	1157.3315	1186.2646	1304.6936	1324.306	1343.403	1410.4124	1429.1911	1460.673	1482.6461	1497.5694	1509.3744	1540.6914	1697.429	1834.8453	2864.5434	3031.3396	3099.514	3124.1585	3132.5802	3150.3486	3216.7959	3240.7599	3460.6521	3604.3805
CC1(CC1)NC(=N)C=O	CC1(CC1)NC(=N)C=O	
InChI=1S/C6H10N2O/c1-6(2-3-6)8-5(7)4-9/h4H,2-3H2,1H3,(H2,7,8)	InChI=1S/C6H10N2O/c1-6(2-3-6)8-5(7)4-9/h4H,2-3H2,1H3,(H2,7,8)
