25
gdb 103600	2.79671	1.11033	0.96202	1.0229	89.37	-0.2404	0.0784	0.3187	1399.9614	0.225871	-389.486841	-389.476091	-389.475147	-389.521984	41.119	
C	-0.250663279	 1.6419059309	 0.3624423756	-0.250338
O	-0.0838643799	 0.245140128	 0.4541577539	-0.28507
C	-1.1833512619	-0.5411167152	 0.0136309345	 0.449364
C	-2.4298808871	-0.3091698913	 0.8642553559	-0.459185
C	-1.4227494628	-0.5225890452	-1.5316564033	-0.332629
C	-1.155665138	-2.063392234	-1.594240056	 0.365887
C	-2.4177598682	-2.8882349745	-1.8522567239	-0.445624
C	-0.0403381824	-2.4751830244	-2.5533043203	-0.443521
C	-0.7337140661	-2.0205315539	-0.0890209326	-0.326555
H	 0.7204958091	 2.0914292701	 0.585874047	 0.123712
H	-0.5568609624	 1.9580928074	-0.6461888942	 0.103788
H	-0.9847304306	 2.0306119675	 1.0823910182	 0.105626
H	-2.8327847767	 0.7003015461	 0.7330731811	 0.11395
H	-3.2202893149	-1.0130097293	 0.5884925513	 0.118959
H	-2.1956686473	-0.4553839364	 1.924033401	 0.12043
H	-2.4116409961	-0.1954907143	-1.8662854292	 0.087477
H	-0.6619178654	 0.0614697547	-2.0558042703	 0.096683
H	-2.7725396517	-2.750806997	-2.8805635688	 0.110203
H	-2.2238638279	-3.9573895614	-1.7060690758	 0.111183
H	-3.235355781	-2.6064091428	-1.1805590314	 0.111509
H	 0.868928861	-1.8914158405	-2.3770928685	 0.113861
H	 0.2136042141	-3.5350010398	-2.4311737303	 0.109479
H	-0.340286165	-2.322991573	-3.5971425508	 0.108022
H	 0.3444460343	-2.1085933002	 0.0601997716	 0.104403
H	-1.2442752341	-2.7220107915	 0.5770880053	 0.088386
51.7684	119.8439	173.4643	206.7958	229.6373	239.3558	262.3547	301.7004	306.243	310.0332	361.5896	384.4802	408.9931	443.4504	504.7819	593.6866	718.6522	837.3046	852.5801	879.8365	880.6411	924.0468	934.7739	950.003	968.0543	1001.3959	1025.5812	1102.5964	1109.2873	1150.2763	1171.5873	1183.0196	1211.4169	1236.8219	1241.8071	1261.6537	1278.649	1306.1699	1315.688	1399.0646	1404.2058	1419.3013	1460.213	1474.3595	1480.1394	1482.7378	1485.7727	1486.4416	1492.0461	1501.2237	1506.9185	1508.2446	1512.7	2984.426	3016.1575	3021.0841	3030.4676	3037.0999	3047.8749	3056.4702	3079.6141	3085.5665	3090.9204	3095.5451	3103.4564	3106.1562	3107.1269	3112.033	3118.4704
COC1(C)CC(C)(C)C1	COC1(C)CC(C)(C)C1	
InChI=1S/C8H16O/c1-7(2)5-8(3,6-7)9-4/h5-6H2,1-4H3	InChI=1S/C8H16O/c1-7(2)5-8(3,6-7)9-4/h5-6H2,1-4H3
