20
gdb 78743	2.74138	1.6293	1.45247	1.5749	77.66	-0.2334	0.0625	0.2958	1012.3219	0.172473	-403.125902	-403.117951	-403.117006	-403.157803	31.905	
C	 0.0084708422	 1.4419148415	 0.0565141733	-0.484925
C	 0.0364738328	-0.0644116784	-0.0288987896	 0.351193
C	-0.0394258621	-0.7182304254	-1.4092965072	-0.292254
C	-0.8049401509	-2.0366064321	-1.1451486165	-0.203134
C	-0.7239392487	-2.1790750105	 0.3698778847	-0.05746
C	 0.7468320919	-2.2934746555	 0.8734290993	 0.106856
O	 1.7616106949	-2.7684352279	 0.012409149	-0.432832
C	 0.7060925222	-0.7985480324	 1.0795722846	-0.100144
N	-0.8180522296	-0.7734992611	 0.9546980619	-0.185983
H	 0.8890218218	 1.8735186784	-0.4318212039	 0.118801
H	-0.883583309	 1.8384006236	-0.4398960509	 0.120688
H	-0.006948229	 1.7771380645	 1.0970218204	 0.125775
H	-0.574538916	-0.0674608917	-2.1077710266	 0.096032
H	 0.9569800757	-0.9016442653	-1.8175658211	 0.121037
H	-1.8503011401	-1.9570461714	-1.4590499107	 0.102043
H	-0.3587032965	-2.8930491322	-1.6573348129	 0.099187
H	-1.4446638142	-2.8676597814	 0.8122028236	 0.068908
H	 0.7819887604	-2.8051647205	 1.8432580705	 0.079325
H	 1.8028028702	-3.7269387907	 0.0865879212	 0.284428
H	 1.2183253139	-0.2673451014	 1.8773061212	 0.082459
155.3319	191.2211	208.3284	232.4305	271.2936	323.2371	382.1399	483.291	535.6196	614.441	630.7624	707.2361	745.3353	818.7185	836.1082	850.3172	873.3091	941.1832	978.5016	989.9123	1017.9942	1033.668	1056.9801	1065.8449	1078.8885	1146.8938	1166.8196	1179.7714	1200.7628	1262.7162	1267.645	1271.3583	1281.3187	1319.7013	1347.1045	1354.4176	1415.2716	1418.0513	1436.6468	1473.5401	1488.2073	1495.5575	1501.9051	3023.6823	3032.9178	3049.4655	3059.2852	3095.3574	3097.0241	3105.74	3112.9165	3116.2935	3144.5368	3820.0912
CC12CCC3C(O)C1N23	C[C@@]12CC[C@H]3[C@@H](O)[C@@H]1N23	
InChI=1S/C7H11NO/c1-7-3-2-4-5(9)6(7)8(4)7/h4-6,9H,2-3H2,1H3	InChI=1S/C7H11NO/c1-7-3-2-4-5(9)6(7)8(4)7/h4-6,9H,2-3H2,1H3/t4-,5+,6-,7+,8?/m0/s1
