15
gdb 26988	3.43656	1.30793	0.96854	3.0623	71.38	-0.1941	0.0231	0.2172	1137.7474	0.113611	-416.858335	-416.85017	-416.849226	-416.891639	30.353	
O	 0.7803088475	 1.1419817622	-0.0079576532	-0.439413
C	 0.3467556325	-0.134786257	-0.0928360284	 0.324795
C	 0.0879264081	-0.998392902	-1.1402838988	 0.124418
C	 0.2164776681	-0.727284998	-2.6173968027	-0.458567
C	 1.1401038206	 0.3743449901	-2.8934198202	 0.264609
N	 1.8596618105	 1.2692717739	-3.0355967062	-0.326848
C	-0.3683003989	-2.2221042806	-0.5509259317	-0.241265
C	-0.3796185727	-2.0598689943	 0.8075097517	-0.084886
N	 0.0623171072	-0.7789009846	 1.0758277516	-0.295543
H	 1.1955512663	 1.402198913	-0.8420383627	 0.319591
H	 0.5871029424	-1.6178275487	-3.1394101378	 0.163333
H	-0.7474186868	-0.4790482719	-3.0841961229	 0.162004
H	-0.658225817	-3.1136868067	-1.0863807583	 0.094967
H	-0.6594773332	-2.7282961487	 1.6039897147	 0.123787
H	 0.1958337754	-0.3654432069	 1.9823224249	 0.269019
35.6201	134.9651	221.8782	267.5893	301.4209	365.2078	388.1347	450.6067	463.3621	492.8139	625.4292	643.4962	692.6631	710.3773	756.5091	807.2146	910.7928	938.4575	948.1477	1079.6932	1094.6906	1176.3883	1207.284	1234.4175	1250.0928	1328.1075	1369.4801	1419.5394	1466.4902	1534.5538	1550.5189	1645.6263	2347.1941	3006.3652	3052.9411	3243.2001	3281.5622	3683.8648	3742.9714
OC1=C(CC#N)C=CN1	Oc1c(CC#N)cc[nH]1	
InChI=1S/C6H6N2O/c7-3-1-5-2-4-8-6(5)9/h2,4,8-9H,1H2	InChI=1S/C6H6N2O/c7-3-1-5-2-4-8-6(5)9/h2,4,8-9H,1H2
