17
gdb 128855	3.96387	0.97045	0.84336	6.5279	70.04	-0.276	-0.0083	0.2677	1359.2709	0.136556	-451.293859	-451.285301	-451.284357	-451.328649	29.491	
C	 1.0543177148	 0.8913731366	 0.0827163457	-0.235662
O	 0.771307687	-0.4395984746	-0.2970857054	-0.23402
C	-0.1336791846	-0.5293842644	-1.3726304242	-0.06354
C	-0.2792200156	-1.99838686	-1.7444020017	-0.175858
N	 0.94416572	-2.5555007013	-2.2993239843	 0.031799
C	 2.1592356682	-2.7430624308	-1.7522408422	 0.065832
N	 2.9610366223	-3.2642897318	-2.6553852362	-0.226734
N	 2.2076135458	-3.392634982	-3.780678157	-0.095998
N	 1.0030354499	-2.9738044539	-3.5847720457	-0.128085
H	 1.5080826381	 1.4594838569	-0.7426912853	 0.118953
H	 0.1458453468	 1.4183616442	 0.4105901928	 0.113978
H	 1.7593343241	 0.84757545	 0.9152666169	 0.138004
H	-1.1232045346	-0.1332348167	-1.0911713019	 0.104094
H	 0.2246098014	 0.0461162675	-2.2409199604	 0.114405
H	-0.5651393038	-2.5727132669	-0.8581997492	 0.144988
H	-1.0469486345	-2.1248700028	-2.509376187	 0.154343
H	 2.4021173045	-2.4832030799	-0.7365943151	 0.173501
36.0919	78.872	118.8558	152.3489	231.602	259.3761	337.4307	353.238	532.9512	664.9619	695.664	737.6054	851.3873	876.0395	978.713	989.2866	1021.8845	1053.4871	1094.0028	1121.7105	1163.7753	1165.2773	1187.7413	1193.8261	1237.0344	1265.9297	1309.7797	1338.2816	1390.9476	1420.6726	1455.0575	1472.9291	1481.8392	1487.0277	1500.8686	1513.5047	1524.8756	2969.6037	2986.4349	3007.3051	3036.1167	3071.9388	3127.3321	3140.1605	3307.2068
COCCN1C=NN=N1	COCCn1cnnn1	
InChI=1S/C4H8N4O/c1-9-3-2-8-4-5-6-7-8/h4H,2-3H2,1H3	InChI=1S/C4H8N4O/c1-9-3-2-8-4-5-6-7-8/h4H,2-3H2,1H3
