16
gdb 49844	2.28545	1.55781	1.04045	4.266	74.69	-0.2386	-0.0469	0.1917	1133.1547	0.123884	-434.069567	-434.060975	-434.060031	-434.10354	30.388	
N	-0.0785522459	 1.2468707855	-0.3137370546	-0.453917
C	-0.1608390268	-0.024059347	-0.3593263148	 0.076091
N	-1.3331764714	-0.6635104131	-0.0373396658	-0.059158
C	-1.725711219	-2.0687661578	-0.0362240016	-0.091669
C	-3.1864060951	-1.6003539794	 0.3034065638	-0.357613
C	-2.6219700336	-0.1799243159	 0.2695362145	 0.415136
N	-3.128097204	 0.9565991139	 0.4444677168	-0.542568
C	-1.5628229708	-2.8066049554	-1.3458536964	 0.152249
O	-1.0056053765	-2.3590999168	-2.313005815	-0.233929
H	 0.8520728318	 1.5529846516	-0.5881634178	 0.232333
H	 0.6373862577	-0.7171445365	-0.6423680461	 0.110948
H	-1.2664489832	-2.6693848211	 0.7616024597	 0.115504
H	-3.9265628589	-1.8062507441	-0.4724737262	 0.144818
H	-3.566687613	-1.9292364439	 1.2707892985	 0.144113
H	-2.4145206912	 1.6789653531	 0.3282483605	 0.254948
H	-2.0056072002	-3.8283891431	-1.3422247555	 0.092714
70.1422	88.0121	139.9991	180.6066	203.4756	241.0191	323.6963	456.1002	505.4305	522.0305	688.0767	705.8713	789.119	800.2941	892.6222	898.9803	926.0937	984.2987	1006.7497	1043.2415	1056.0142	1129.4872	1135.4897	1208.7004	1226.122	1264.1098	1282.5935	1352.7438	1390.5739	1412.8378	1442.671	1473.4305	1697.1031	1806.4654	1835.3468	2881.4222	3011.5306	3077.2661	3088.1577	3147.7617	3476.473	3516.5389
N=CN1C(CC1=N)C=O	[NH][CH]N1[C@@H](C[C]1[NH])C=O	
InChI=1S/C5H7N3O/c6-3-8-4(2-9)1-5(8)7/h2-4,6-7H,1H2	InChI=1S/C5H7N3O/c6-3-8-4(2-9)1-5(8)7/h2-4,6-7H,1H2/t4-/m0/s1
