19
gdb 114401	3.42734	1.0889	1.06888	3.3557	77.02	-0.2372	0.0186	0.2558	1239.8731	0.159977	-419.175742	-419.167388	-419.166443	-419.209053	31.734	
C	 0.0758819227	 1.3008570467	-0.4104794967	-0.386862
C	-0.0052558368	-0.1852713352	-0.0504595596	-0.172087
C	-1.4394018364	-0.6554771766	 0.133986991	 0.018077
N	-2.2949126262	-0.6043088954	-1.0971446484	-0.330611
C	-2.7630589654	-2.0015283562	-0.8753415383	-0.152722
C	-1.7320863969	-2.1674420382	 0.2638404433	 0.06944
O	-0.918219523	-3.0165677151	-0.6015407532	-0.273691
C	-1.8732222005	-2.9841992312	-1.6152703681	 0.481667
N	-1.9181425859	-3.5872121553	-2.7098918732	-0.549154
H	 1.1125752105	 1.6134569035	-0.5653525936	 0.116376
H	-0.4776572757	 1.501365376	-1.3331028585	 0.131647
H	-0.3464013226	 1.9293035867	 0.3823566533	 0.107016
H	 0.4584059607	-0.7885996818	-0.8367997305	 0.117388
H	 0.5501114959	-0.3830757319	 0.8757596118	 0.094538
H	-1.9052528077	-0.130689901	 0.9815380097	 0.072241
H	-3.0435058785	 0.075633614	-1.0493467672	 0.228214
H	-3.8350404933	-2.1852116779	-0.8246255109	 0.101834
H	-1.8835073412	-2.6242318731	 1.2403122192	 0.097051
H	-1.0898252096	-4.1677963779	-2.85384322	 0.229638
71.4599	107.0103	165.694	211.5207	254.0013	300.6792	402.613	430.0711	543.3867	622.6085	671.4845	757.2649	772.281	809.5928	823.2181	869.0576	906.5668	913.914	945.9456	973.6901	997.9005	1023.7451	1043.0686	1074.1777	1114.1162	1150.1982	1172.5224	1195.7635	1229.7653	1246.3039	1287.2981	1298.9732	1335.2601	1354.6932	1383.8023	1398.1277	1405.6643	1480.7007	1499.1554	1510.492	1831.8586	2988.4842	3028.1295	3030.8756	3082.5511	3103.846	3112.7526	3125.3218	3135.7216	3472.8751	3555.7853
CCC1NC2C1OC2=N	CC[C@H]1N[C@@H]2[C@H]1O[C]2[NH]	
InChI=1S/C6H10N2O/c1-2-3-5-4(8-3)6(7)9-5/h3-5,7-8H,2H2,1H3	InChI=1S/C6H10N2O/c1-2-3-5-4(8-3)6(7)9-5/h3-5,7-8H,2H2,1H3/t3-,4-,5+/m1/s1
