15
gdb 68496	3.23933	1.32335	1.12167	2.3405	71.58	-0.2675	-0.0204	0.2471	1071.3216	0.112231	-416.769257	-416.761211	-416.760267	-416.801903	29.555	
C	 0.0409423426	 1.485593256	-0.0056161011	-0.524824
C	-0.0323096772	-0.0062445408	 0.0321196649	 0.18888
N	 0.5471550617	-0.9087230225	-1.0668301926	-0.32462
C	 0.0253072604	-1.9167900628	-0.0531906167	-0.149339
C	 0.6526464241	-1.0008753715	 1.0394476674	-0.190673
C	 2.1042366399	-0.9511804608	 1.1038641578	 0.285806
N	 3.2521506194	-0.8990133642	 1.2270480426	-0.322098
C	-1.2240054152	-1.0041862674	 0.0146541246	 0.396768
O	-2.404419457	-1.0287881094	-0.1321210519	-0.31082
H	 1.0800826775	 1.8200597593	-0.0711380089	 0.159268
H	-0.5076248135	 1.8745866309	-0.8688176503	 0.143907
H	-0.4077232321	 1.9090946386	 0.89776823	 0.145318
H	-0.0327475089	-0.8914063944	-1.910725801	 0.240392
H	 0.1520764477	-2.9885755768	-0.1800304918	 0.125103
H	 0.2129936705	-1.0599790641	 2.036653467	 0.136932
121.1755	131.4182	161.4907	208.9108	236.2567	303.3582	426.0191	443.3678	527.9507	598.8161	655.9869	704.117	778.9449	801.0412	812.903	874.489	938.8989	1007.6783	1035.9851	1064.13	1106.615	1147.3995	1154.6586	1164.9578	1231.7429	1275.4629	1334.9895	1378.5105	1419.9825	1478.9557	1485.2683	1911.9838	2361.3572	3044.6824	3108.2548	3117.4388	3123.8203	3168.7955	3415.8624
CC12NC(C1C#N)C2=O	C[C@@]12N[C@@H]([C@H]1C#N)C2=O	
InChI=1S/C6H6N2O/c1-6-3(2-7)4(8-6)5(6)9/h3-4,8H,1H3	InChI=1S/C6H6N2O/c1-6-3(2-7)4(8-6)5(6)9/h3-4,8H,1H3/t3-,4+,6-/m1/s1
