16
gdb 31850	5.13924	1.05683	0.88214	1.7322	78.38	-0.2022	-0.0352	0.167	1272.2831	0.125958	-434.118007	-434.109909	-434.108965	-434.15069	30.239	
C	-0.0439988387	 1.3960189821	-0.0087629955	-0.231799
O	 0.0083000593	-0.0268662319	 0.0160972673	-0.267725
C	 0.6515816929	-0.5930948652	 1.0600767241	 0.406475
C	 0.7174285822	-1.9926074752	 1.107973505	-0.09335
N	 1.3266184608	-2.6249707465	 2.1002587001	-0.296467
C	 1.8908857911	-1.8762736763	 3.0599392045	 0.346713
N	 2.5841683873	-2.5465189671	 4.05949924	-0.572574
C	 1.8175441021	-0.4802604209	 3.0031003257	-0.080431
N	 1.1967669201	 0.1544028008	 2.0076939722	-0.32631
H	 0.9605029309	 1.8297116853	-0.0402635973	 0.131572
H	-0.5940038073	 1.6537844072	-0.9149800329	 0.127469
H	-0.5612087252	 1.7898573199	 0.8719040801	 0.130621
H	 0.2589186226	-2.5904876211	 0.3255737728	 0.119895
H	 2.325991106	-3.5206326859	 4.1285905695	 0.254028
H	 2.619126259	-2.0836422748	 4.9553153004	 0.249881
H	 2.269401587	 0.1369602898	 3.7763351841	 0.102004
87.1866	137.527	190.2625	218.2709	322.1547	379.3151	395.5891	436.7817	442.8694	550.4112	590.3587	623.511	657.2634	783.2106	802.7186	892.6722	906.6806	944.0165	1026.222	1067.8893	1089.025	1178.5311	1202.4706	1257.3782	1316.8976	1323.0824	1358.2624	1421.455	1472.1005	1479.2557	1500.4939	1529.3091	1587.8382	1629.53	1648.577	3034.6025	3101.0408	3143.5595	3148.0177	3171.5758	3566.5285	3674.7412
COC1=CN=C(N)C=N1	COc1cnc(N)cn1	
InChI=1S/C5H7N3O/c1-9-5-3-7-4(6)2-8-5/h2-3H,1H3,(H2,6,7)	InChI=1S/C5H7N3O/c1-9-5-3-7-4(6)2-8-5/h2-3H,1H3,(H2,6,7)
