18
gdb 52291	3.71654	0.89415	0.75494	3.6584	74.72	-0.2499	-0.0354	0.2145	1469.2098	0.14721	-439.121544	-439.112533	-439.111589	-439.15681	32.011	
O	-0.1409367572	 0.8947570586	 1.2171326549	-0.326774
C	-0.0070497945	 1.5365504031	 0.1956013951	 0.154291
N	 1.1057934764	 1.551272692	-0.5837500948	-0.275362
C	 2.318651949	 0.8300045347	-0.2398980695	-0.187872
C	 3.5037803882	 1.7898913918	-0.1364186874	-0.094072
C	 4.9702676357	 1.2508064337	-0.1404656112	-0.260038
C	 5.3597507133	 2.2855858453	-1.243902062	-0.330098
C	 3.8604935402	 2.5500210803	-1.4236195816	 0.395998
O	 3.1868801235	 3.0185308651	-2.3009611268	-0.31063
H	-0.8026448891	 2.1878220785	-0.2166850729	 0.076977
H	 1.1449235356	 2.1618775736	-1.3873090298	 0.264834
H	 2.1294295874	 0.3195576183	 0.7069251141	 0.152577
H	 2.5319822021	 0.0646746345	-0.998255613	 0.109471
H	 3.3368943275	 2.4992833586	 0.6827570841	 0.117054
H	 5.5093763374	 1.3248569801	 0.8037247167	 0.119084
H	 5.0281688002	 0.2211270604	-0.5018327285	 0.120105
H	 5.8787534839	 3.1643174143	-0.8472280854	 0.139379
H	 5.8978933603	 1.9338547471	-2.1272172519	 0.135073
34.2928	80.5662	90.2236	157.7851	213.2079	275.0471	319.4033	396.3292	445.4663	552.773	627.8109	692.7994	726.1491	751.6617	794.7176	901.4288	924.4702	939.2146	993.1262	1033.6372	1045.0968	1078.3041	1103.1325	1137.2783	1197.6216	1212.1988	1224.2393	1233.0374	1257.2474	1274.1729	1326.7931	1383.1997	1428.335	1439.9621	1491.17	1499.752	1539.1045	1802.0008	1867.8643	2941.4494	3013.4217	3049.6177	3060.554	3077.5861	3116.6656	3117.1815	3141.3511	3609.194
O=CNCC1CCC1=O	O=CNC[C@H]1CCC1=O	
InChI=1S/C6H9NO2/c8-4-7-3-5-1-2-6(5)9/h4-5H,1-3H2,(H,7,8)	InChI=1S/C6H9NO2/c8-4-7-3-5-1-2-6(5)9/h4-5H,1-3H2,(H,7,8)/t5-/m1/s1
