21
gdb 76464	2.69158	1.43029	1.15156	1.9197	83.32	-0.2277	0.0784	0.3061	1163.7112	0.181122	-387.000875	-386.991978	-386.991034	-387.034259	34.064	
C	-0.0766083015	 0.8203419938	-2.1175936949	-0.409693
C	 0.0266582873	-0.3139886034	-1.1179345526	-0.131567
C	 1.3283336849	-0.647917048	-0.3696753965	-0.134449
C	 2.6120096772	 0.1316142912	-0.5652603489	-0.407429
C	 0.1630742719	-0.0690593785	 0.3492476969	 0.451414
C	 0.0169860738	 1.1609809221	 1.2617305162	-0.04538
C	-1.4721997954	 0.7923903457	 1.4839075591	-0.219654
C	-0.6070472429	-0.4869199736	 1.6094950378	-0.054199
O	 0.3653614198	 0.2950191761	 2.4179767432	-0.313311
H	 0.4905506613	 1.6998276866	-1.8011174532	 0.116716
H	 0.3003092595	 0.5182587322	-3.1010134332	 0.119293
H	-1.1187689133	 1.1336444771	-2.2457539675	 0.11766
H	-0.5618448271	-1.1880359353	-1.3919210103	 0.082512
H	 1.487223076	-1.7134041901	-0.2139358283	 0.083818
H	 2.4273687992	 1.2010627896	-0.6985512725	 0.112485
H	 3.2620435866	 0.0205067169	 0.3087923436	 0.128875
H	 3.1643065362	-0.2222544544	-1.4428499063	 0.114741
H	 0.4901350058	 2.1415779257	 1.2081193321	 0.093641
H	-1.8970867462	 1.1525407814	 2.4218599044	 0.103919
H	-2.15593255	 0.8711386262	 0.6351534431	 0.097672
H	-0.8775381832	-1.4811233913	 1.9668168776	 0.092935
119.8917	137.3321	150.135	165.9216	169.0119	252.188	327.973	404.4119	505.8327	513.4434	591.6126	668.073	741.2158	767.4682	804.3587	868.2276	885.4016	898.5835	918.7266	974.2696	1009.8903	1025.0693	1034.2577	1057.0107	1086.1309	1114.6655	1119.8731	1150.5029	1161.3719	1167.9076	1171.9108	1173.8857	1214.6246	1235.5559	1263.7109	1344.1358	1362.7362	1410.2134	1419.7461	1475.0012	1486.9342	1490.9229	1494.2437	1499.4621	1525.4589	3029.4217	3034.332	3063.1737	3086.3462	3093.4907	3099.4178	3109.3265	3113.6198	3117.826	3120.0297	3129.8815	3147.2519
CC1C(C)C11C2CC1O2	C[C@H]1[C@@H](C)[C@]21[C@H]1C[C@@H]2O1	
InChI=1S/C8H12O/c1-4-5(2)8(4)6-3-7(8)9-6/h4-7H,3H2,1-2H3	InChI=1S/C8H12O/c1-4-5(2)8(4)6-3-7(8)9-6/h4-7H,3H2,1-2H3/t4-,5+,6-,7+,8-/m0/s1
