19
gdb 70702	2.28555	1.84208	1.20552	2.8439	75.23	-0.2418	-0.0239	0.2179	1070.5429	0.159616	-423.053403	-423.04513	-423.044186	-423.086074	31.865	
C	-0.1415934991	 1.519117927	 0.0510987611	-0.473334
C	 0.1059346687	 0.0358789547	-0.0225289889	 0.2757
O	-0.7262094405	-0.7999589976	 0.8115915386	-0.281652
C	 0.6608561442	-0.7291177156	 1.1279649114	-0.005724
C	 1.4440602313	-2.0203135898	 0.96939302	-0.227942
C	 1.746845295	-2.385727206	-0.4941273158	-0.219102
C	 0.5730989918	-2.0472055612	-1.4354316252	-0.312405
C	 0.3216992673	-0.551008238	-1.3992178653	 0.358615
O	 0.326071931	 0.1539899469	-2.3832092129	-0.312632
H	 0.7099156676	 2.0693775309	-0.3584125125	 0.135673
H	-1.0205058878	 1.7884079583	-0.5407508661	 0.141324
H	-0.3040929583	 1.8257187437	 1.0869898057	 0.12218
H	 0.8698651678	-0.1493324631	 2.0285763733	 0.096821
H	 2.378043015	-1.9455698126	 1.5364546542	 0.107287
H	 0.8527606985	-2.8132034523	 1.4440076807	 0.121908
H	 2.6328453618	-1.8336912342	-0.8309788767	 0.11293
H	 1.9952470456	-3.4486525079	-0.5727524498	 0.108334
H	 0.7886096879	-2.3304228778	-2.4677869844	 0.11912
H	-0.3316731879	-2.5699779055	-1.1055095674	 0.132899
85.9876	166.9667	193.2734	222.6709	284.2514	315.6334	382.2342	444.0358	491.5843	498.6335	569.1411	652.2894	736.2017	776.1821	836.9327	861.7034	885.7784	903.6122	964.5448	1015.7376	1066.1402	1072.7631	1085.2065	1108.8528	1139.5819	1184.2208	1214.766	1283.5105	1306.5028	1337.2243	1350.3484	1369.0338	1378.3146	1413.6027	1446.729	1465.3281	1476.2552	1479.2531	1490.9528	1502.2042	1806.3002	3032.3111	3032.578	3051.0265	3051.9732	3072.4342	3084.8774	3097.4914	3118.9037	3123.1237	3134.0482
CC12OC1CCCC2=O	C[C@]12O[C@H]1CCCC2=O	
InChI=1S/C7H10O2/c1-7-5(8)3-2-4-6(7)9-7/h6H,2-4H2,1H3	InChI=1S/C7H10O2/c1-7-5(8)3-2-4-6(7)9-7/h6H,2-4H2,1H3/t6-,7+/m0/s1
