18
gdb 57996	3.85748	0.8493	0.70525	2.2377	77.14	-0.2408	0.0276	0.2684	1573.7469	0.144308	-439.08355	-439.072825	-439.07188	-439.121245	35.957	
C	-0.1059520088	 1.3838023867	 0.0703158144	-0.340212
N	-0.0449061471	-0.0630984166	-0.019873824	-0.14727
C	 0.0080477593	-0.7934508561	 1.2333146098	-0.342436
C	-0.0414438221	-0.6429457544	-1.2528694971	 0.547569
O	-0.085506622	-0.0480846933	-2.3109939111	-0.424712
O	 0.0185249425	-2.0017833893	-1.1714257968	-0.271201
C	 0.02457434	-2.6577463058	-2.4492130349	-0.220403
C	 0.0902203327	-4.0938898208	-2.2311396693	 0.283959
C	 0.1439967061	-5.2847367725	-2.0879305467	-0.417665
H	 0.7752915423	 1.7758863735	 0.5941133429	 0.121567
H	-0.1408495893	 1.7955493437	-0.9365793681	 0.169411
H	-0.9994833982	 1.699192796	 0.6242378774	 0.121562
H	-0.8792434086	-0.5746061033	 1.8417085224	 0.123286
H	 0.051240793	-1.8624845601	 1.0440350715	 0.167467
H	 0.8931655725	-0.4976635344	 1.8115735106	 0.123293
H	-0.8774853322	-2.3837548933	-3.0067277962	 0.151396
H	 0.8798629533	-2.3080610395	-3.037266104	 0.151395
H	 0.1915750966	-6.3380122305	-1.960598941	 0.202992
22.0519	55.6763	105.5575	113.3908	118.6633	154.6722	223.2602	242.732	328.6668	337.0062	378.9906	457.8879	574.7855	613.6295	634.3439	684.5224	767.9708	853.5553	986.2668	1005.8235	1015.4127	1084.9367	1087.8054	1135.5717	1183.6886	1208.42	1247.2226	1291.6429	1377.6035	1435.7952	1440.0163	1472.8924	1488.6879	1494.7956	1501.0003	1504.1178	1548.8581	1792.393	2250.3772	3007.0756	3014.9077	3046.0893	3051.3492	3057.0707	3079.5392	3171.9599	3189.6106	3505.5822
CN(C)C(=O)OCC#C	CN(C)C(=O)OCC#C	
InChI=1S/C6H9NO2/c1-4-5-9-6(8)7(2)3/h1H,5H2,2-3H3	InChI=1S/C6H9NO2/c1-4-5-9-6(8)7(2)3/h1H,5H2,2-3H3
