16
gdb 66539	3.18386	1.55622	1.22673	2.5876	74.45	-0.2286	-0.0314	0.1972	1013.2784	0.122412	-400.641785	-400.634054	-400.63311	-400.67408	29.012	
C	 0.1690723669	 1.5579660732	-0.0576368469	-0.52958
C	 0.0134903834	 0.0775021516	-0.0957487047	 0.264409
C	 0.7586769936	-0.9960710714	-0.8109263005	-0.113057
C	-0.4117303607	-1.9917233559	-0.6532535443	-0.141698
C	-0.285107327	-1.8255158704	 0.8119841698	-0.040525
N	 0.8929374859	-0.869432918	 0.6884851272	-0.21315
C	-1.2133068283	-0.8600482425	 0.0707594074	 0.215306
C	-2.6623156965	-0.7594499829	 0.1696164671	 0.005848
O	-3.3939450887	-1.7157132547	 0.3221019654	-0.284473
H	 1.2303690033	 1.8203175936	-0.1036425718	 0.142093
H	-0.341127804	 2.0320224339	-0.9030887961	 0.130335
H	-0.2426668066	 1.9727380526	 0.8689083064	 0.134939
H	 1.6132056964	-0.961652191	-1.4757949944	 0.108563
H	-0.842061415	-2.7757579517	-1.259059059	 0.125425
H	-0.5105150452	-2.4602360455	 1.6588550216	 0.12654
H	-3.0704511175	 0.2738567191	 0.1018897228	 0.069027
110.5689	132.4424	187.7777	216.1487	263.3959	275.8601	481.4588	599.1119	640.1114	703.9819	728.4945	763.5661	816.2061	862.7005	881.6495	911.3959	918.3482	951.8148	981.6947	995.5164	1024.575	1046.9376	1080.6076	1101.8928	1175.2082	1211.5222	1246.9094	1285.1459	1381.9965	1392.716	1427.405	1451.9638	1477.7495	1490.0989	1773.0906	2875.0356	3031.2321	3096.2381	3112.6204	3187.1511	3206.5046	3233.6689
CC12C3C4C(N13)C24C=O	C[C@@]12[C@@H]3[C@H]4[C@@H](N13)[C@@]24C=O	
InChI=1S/C7H7NO/c1-6-4-3-5(8(4)6)7(3,6)2-9/h2-5H,1H3	InChI=1S/C7H7NO/c1-6-4-3-5(8(4)6)7(3,6)2-9/h2-5H,1H3/t3-,4-,5+,6-,7-,8?/m0/s1
