16
gdb 89343	1.97159	1.73341	1.12119	2.9636	71.55	-0.2465	0.0144	0.2609	1088.5555	0.123302	-437.865675	-437.85712	-437.856175	-437.898725	32.148	
O	 0.0114909661	 1.4474557566	 0.1109819594	-0.418292
C	 0.017645882	 0.0422684891	 0.0576027891	 0.037221
C	 0.2925795663	-0.6001498046	 1.4474058202	-0.284352
C	-1.0688465299	-1.2778786682	 1.4105463885	 0.373912
O	-1.197819448	-2.5542141064	 1.8844071319	-0.437625
C	-2.1677103099	-0.2981839349	 1.2249761362	-0.39747
C	-1.3516357161	-0.6676240057	-0.0154297489	 0.112637
C	-1.9364930272	-1.2367392945	-1.1749090487	 0.158869
N	-2.3945824043	-1.7155199093	-2.1264571527	-0.354511
H	-0.2207095518	 1.7854309497	-0.7607128015	 0.293118
H	 0.6969193469	-0.333192271	-0.7159270189	 0.095439
H	 1.1093324075	-1.3226178217	 1.412444327	 0.129266
H	 0.4567451654	 0.1056895438	 2.2655878177	 0.119962
H	-2.1301179164	-2.7833987161	 1.9598773766	 0.300274
H	-3.1704731844	-0.7170163783	 1.2247544554	 0.131065
H	-2.1000942562	 0.7181695416	 1.6048245388	 0.140487
102.2124	127.8372	167.3025	238.3377	256.029	326.7332	377.3652	407.5071	419.4831	492.9907	550.1695	567.0605	646.0895	705.4356	741.7618	795.3433	879.254	958.1145	965.4742	988.1647	1083.7678	1097.7894	1114.1205	1147.1337	1167.5101	1228.823	1247.8373	1267.5407	1332.9709	1394.3227	1406.5916	1430.9576	1470.556	1503.9019	2328.946	3040.677	3071.4754	3110.574	3135.6469	3199.6798	3810.2876	3819.706
OC1CC2(O)CC12C#N	O[C@H]1C[C@@]2(O)C[C@@]12C#N	
InChI=1S/C6H7NO2/c7-3-5-2-6(5,9)1-4(5)8/h4,8-9H,1-2H2	InChI=1S/C6H7NO2/c7-3-5-2-6(5,9)1-4(5)8/h4,8-9H,1-2H2/t4-,5+,6+/m0/s1
