17
gdb 94919	2.14852	1.77702	1.45193	3.8025	71.57	-0.2533	0.0133	0.2667	981.1416	0.137472	-417.992982	-417.985025	-417.984081	-418.025491	30.147	
O	-0.0600823663	 1.442210666	 0.1411253152	-0.42691
C	 0.0171754274	 0.0371175292	-0.0071338187	 0.11542
C	 0.814840161	-0.6996644346	 1.0988671798	-0.301763
C	 0.0056865435	-1.9879840851	 1.3716342692	-0.166319
N	-1.3758739054	-1.7965312416	 0.8618209939	-0.115914
C	-2.0810158717	-0.6086281597	 1.4000186008	-0.162773
C	-1.6360551207	 0.0935275218	 2.5759161274	 0.321275
N	-1.3324133511	 0.6165661358	 3.5623256081	-0.356533
C	-1.3781452002	-0.5590799052	 0.0787098767	-0.034918
H	 0.8308396042	 1.8027923115	 0.0924899584	 0.291235
H	 0.4225218814	-0.2191217797	-0.9985200915	 0.07958
H	 1.8383707631	-0.9225776012	 0.7871374823	 0.104743
H	 0.8633091653	-0.0596372908	 1.9816182486	 0.149591
H	 0.4132492034	-2.8395024503	 0.819177691	 0.120236
H	-0.0213626201	-2.260449738	 2.4299708201	 0.13323
H	-3.1618747703	-0.7216231787	 1.3769277619	 0.141767
H	-1.9986156037	-0.5394988593	-0.8123738731	 0.108051
90.0092	141.9098	181.0724	250.3052	256.0033	351.4543	398.4092	486.0713	562.585	575.4215	686.9836	720.5359	721.2344	796.2843	867.4787	878.8131	939.8571	959.5471	1006.9464	1033.5758	1074.1781	1116.0991	1129.5088	1143.0838	1204.7642	1237.0201	1242.4682	1273.3385	1304.2276	1339.4541	1351.2829	1364.7775	1407.4416	1436.0388	1493.6165	1507.8695	2348.005	2975.608	3059.3897	3074.1174	3103.5153	3130.6353	3142.087	3157.3945	3822.7598
OC1CCN2C(C#N)C12	O[C@H]1CCN2[C@@H](C#N)[C@@H]12	
InChI=1S/C6H8N2O/c7-3-4-6-5(9)1-2-8(4)6/h4-6,9H,1-2H2	InChI=1S/C6H8N2O/c7-3-4-6-5(9)1-2-8(4)6/h4-6,9H,1-2H2/t4-,5-,6-,8?/m0/s1
