18
gdb 42779	2.46934	1.9357	1.57019	1.8155	76.42	-0.2362	-0.0016	0.2347	929.9194	0.150219	-401.896501	-401.88961	-401.888666	-401.927525	28.313	
O	-0.0387045678	 0.0053780062	-0.2148465656	-0.34538
C	-0.0483866671	 1.1794785191	 0.0213990057	 0.394443
C	-1.0629310513	 2.3299783121	 0.0336184686	-0.127541
C	-0.8235195029	 2.8986020578	 1.4639362864	-0.273235
C	 0.7287354274	 2.9923087286	 1.3764434481	 0.040727
C	 1.9469471846	 2.1573162941	 1.8981375615	-0.277214
C	 2.4509291769	 2.1081575456	 0.3977099952	-0.359486
C	 0.9780823962	 2.3221306136	 0.0419027897	 0.221325
N	-0.0163041365	 3.0410031813	-0.8584274909	-0.394568
H	-2.0749230637	 2.2531990429	-0.3590032725	 0.094111
H	-1.2851354657	 3.8763785433	 1.6164537337	 0.112516
H	-1.2148554703	 2.2077380334	 2.2168351218	 0.117564
H	 1.0375044088	 4.039542581	 1.3133290985	 0.090181
H	 2.6032259169	 2.6364051114	 2.6259092991	 0.107103
H	 1.6712043525	 1.1618497487	 2.2540290952	 0.125884
H	 3.0845617176	 2.9677758011	 0.1667900641	 0.120216
H	 2.9177766163	 1.1897337061	 0.0369524584	 0.120031
H	-0.0682546419	 2.5959760634	-1.7777592369	 0.233324
146.854	189.5614	254.2514	355.9691	414.7657	480.1392	532.804	621.1064	672.068	686.9985	750.7587	785.8627	808.1745	861.3936	880.3138	887.9358	898.0052	952.7345	1006.7055	1025.064	1058.513	1076.3197	1124.2844	1128.234	1134.197	1187.5386	1208.038	1216.85	1234.9433	1238.1246	1256.1507	1299.8289	1306.0451	1311.6608	1377.4786	1477.4335	1484.5983	1493.4954	1877.2362	3059.6931	3063.2354	3071.3994	3075.2507	3114.17	3126.6586	3140.2692	3150.2914	3435.1407
O=C1C2CC3CCC13N2	O=C1[C@H]2C[C@H]3CC[C@@]13N2	
InChI=1S/C7H9NO/c9-6-5-3-4-1-2-7(4,6)8-5/h4-5,8H,1-3H2	InChI=1S/C7H9NO/c9-6-5-3-4-1-2-7(4,6)8-5/h4-5,8H,1-3H2/t4-,5-,7+/m1/s1
