19
gdb 55442	2.99939	1.31063	1.06398	2.8274	77.97	-0.2284	-0.016	0.2124	1184.935	0.158741	-423.049132	-423.040342	-423.039398	-423.083314	32.475	
C	 0.2224800197	 1.2301122979	 0.0610733534	-0.484188
C	-0.1278771229	-0.2012801842	-0.307981021	 0.374377
O	 0.6939511184	-0.9797913778	-0.7235954702	-0.28918
C	-1.6105256549	-0.61777708	-0.1201152949	-0.037417
O	-1.8855418398	-1.8610175734	-0.7119857212	-0.246348
C	-1.5446938967	-2.9809166005	 0.1020086569	-0.087181
C	-2.3752275112	-2.996849939	 1.3857635042	-0.255685
C	-2.373688484	-1.6310705265	 2.0162761858	-0.065558
C	-2.0111140514	-0.5452770312	 1.3363493334	-0.086774
H	 1.2117619221	 1.4731721397	-0.3288400669	 0.147249
H	-0.5181560688	 1.9390071398	-0.3230470074	 0.133959
H	 0.2378870014	 1.335849794	 1.1518645175	 0.149193
H	-2.2066808503	 0.1163233048	-0.6838221578	 0.106776
H	-1.7413354361	-3.8617940442	-0.5142024361	 0.107362
H	-0.4743347264	-2.9606383913	 0.3379850404	 0.117047
H	-3.4074640302	-3.3071489619	 1.1728920005	 0.117601
H	-1.9673827245	-3.7411963528	 2.081103867	 0.107236
H	-2.6910302329	-1.5440251216	 3.0520924126	 0.094256
H	-2.0061781317	 0.4359939583	 1.8011172139	 0.097277
44.1888	102.452	112.9984	183.3615	250.9215	307.671	372.819	426.4415	484.6152	528.0469	555.4471	623.6889	698.9068	780.6793	826.966	860.5102	908.6932	936.1297	959.361	999.9883	1008.4694	1038.1374	1058.1836	1093.8738	1131.3215	1176.5553	1231.5402	1235.6135	1252.6846	1292.1649	1355.4821	1364.1211	1378.5119	1392.0033	1417.7625	1465.1055	1466.7308	1476.1724	1509.1093	1716.879	1823.3995	2992.5897	3014.8087	3038.6098	3039.2859	3055.8	3102.0074	3102.6037	3150.4924	3155.008	3180.3035
CC(=O)C1OCCC=C1	CC(=O)[C@H]1OCCC=C1	
InChI=1S/C7H10O2/c1-6(8)7-4-2-3-5-9-7/h2,4,7H,3,5H2,1H3	InChI=1S/C7H10O2/c1-6(8)7-4-2-3-5-9-7/h2,4,7H,3,5H2,1H3/t7-/m0/s1
