19
gdb 108770	2.96376	1.11966	0.88139	3.9396	81.08	-0.2305	-0.051	0.1796	1344.8022	0.159124	-423.056549	-423.04771	-423.046766	-423.090642	32.467	
C	-0.1809903442	 1.5559543119	-0.0040225775	-0.375593
C	 0.0531585045	 0.0324609476	 0.0032008028	-0.279418
C	 0.7894078117	-0.4527897211	-1.2169801718	 0.290725
C	 2.0974684704	-0.7577153195	-1.2184599134	-0.264084
C	 2.7524207278	-1.3214497233	-2.4070562245	 0.356847
O	 3.9123244409	-1.6823161337	-2.425185594	-0.326866
C	 1.8447070113	-1.5065224748	-3.6231536018	-0.193314
O	 0.7725912107	-0.5845298738	-3.6584070582	-0.238063
C	-0.0110672631	-0.6018174397	-2.4886847972	-0.163604
H	 0.7710777212	 2.0938448942	-0.0212156939	 0.133372
H	-0.7614550692	 1.8740525579	-0.8751841125	 0.12626
H	-0.7303718748	 1.8598913998	 0.8915947868	 0.124486
H	 0.6159613363	-0.2448105033	 0.8999804452	 0.117122
H	-0.917174406	-0.4783608177	 0.0662597248	 0.11177
H	 2.7124578936	-0.6589147548	-0.3280182743	 0.101032
H	 2.4296485507	-1.3622035114	-4.5336360915	 0.138544
H	 1.4757481821	-2.5488231139	-3.6179340074	 0.109384
H	-0.6072625335	-1.53358758	-2.4221542481	 0.106299
H	-0.7270464604	 0.2206799156	-2.5889915931	 0.1251
58.9761	102.7582	135.4752	193.7059	247.413	284.2636	309.9933	438.2328	469.3959	481.6697	556.0961	564.9098	647.0782	786.3349	854.8392	894.2472	903.6216	944.5566	983.8039	997.9669	1041.5312	1079.5421	1091.0479	1152.7753	1173.5501	1232.3739	1267.4974	1277.7329	1302.5341	1343.8598	1344.2988	1366.9734	1409.5475	1412.4334	1465.2886	1479.0285	1485.0962	1498.4137	1506.8528	1688.7069	1781.8787	2914.5703	2944.2661	3020.6487	3043.1926	3069.6344	3076.5395	3115.2461	3116.501	3120.7306	3169.8862
CCC1=CC(=O)COC1	CCC1=CC(=O)COC1	
InChI=1S/C7H10O2/c1-2-6-3-7(8)5-9-4-6/h3H,2,4-5H2,1H3	InChI=1S/C7H10O2/c1-2-6-3-7(8)5-9-4-6/h3H,2,4-5H2,1H3
