23
gdb 95875	2.44267	1.2363	1.0387	2.3943	85.34	-0.2477	-0.0194	0.2283	1291.0274	0.206502	-388.333645	-388.324481	-388.323537	-388.367474	35.252	
C	-0.0805172249	 1.5521598276	-0.0766943573	-0.404373
C	 0.0053358555	 0.0234959713	-0.0982617255	 0.048485
C	 0.816409927	-0.4884200527	-1.2999728567	-0.177762
C	 0.8941180164	-2.0208357417	-1.3286777056	-0.211223
C	 1.4707709486	-2.5870031265	-0.0220835478	-0.201902
C	 0.7275924706	-2.0613228593	 1.2148247699	-0.09517
C	 0.6008935509	-0.5209794127	 1.2117995467	-0.215685
C	-0.6324979768	-2.7050504932	 1.4123709439	 0.159819
O	-1.0900281415	-3.6039292182	 0.7533482271	-0.249242
H	 0.916751741	 1.9990159552	 0.0155463198	 0.112395
H	-0.5312170687	 1.9360630421	-0.9979128451	 0.112612
H	-0.6832460564	 1.9089662185	 0.7655378082	 0.109165
H	-1.0166923817	-0.3741618924	-0.1950263121	 0.076551
H	 0.3752735459	-0.1144840087	-2.2315783323	 0.089431
H	 1.8313408552	-0.0667228185	-1.246869852	 0.086178
H	-0.1081996191	-2.4355251203	-1.4846658353	 0.117742
H	 1.5054396265	-2.3527599524	-2.1751156973	 0.090316
H	 1.4269364229	-3.6799923062	-0.0354416053	 0.109462
H	 2.5280033023	-2.305336732	 0.0635809298	 0.089029
H	 1.2832771945	-2.3394530178	 2.1255689083	 0.09267
H	 1.5989315329	-0.0879484289	 1.3587509337	 0.097595
H	-0.0051786605	-0.1942103388	 2.0671500563	 0.092289
H	-1.2084404708	-2.2803783846	 2.2702013687	 0.071618
71.8129	125.5939	155.9701	226.8537	229.124	301.2863	312.4541	332.1284	399.9087	433.6311	476.1741	588.9513	678.7325	756.9334	799.856	849.5869	860.9085	874.2074	912.0349	972.9819	976.8021	998.343	1009.0923	1054.2388	1084.3781	1106.7995	1120.4612	1152.1364	1173.727	1233.1034	1249.3627	1282.6347	1306.788	1332.6422	1338.1581	1351.874	1377.3351	1379.2255	1392.457	1395.6692	1411.5566	1428.2689	1474.4318	1480.0029	1491.4366	1496.7927	1500.3033	1501.7496	1826.0674	2839.993	2975.5861	2983.7912	3000.4308	3013.4949	3023.9762	3027.3951	3035.9758	3050.0573	3055.088	3078.0271	3088.4163	3089.588	3097.1568
CC1CCCC(C1)C=O	C[C@H]1CCC[C@@H](C1)C=O	
InChI=1S/C8H14O/c1-7-3-2-4-8(5-7)6-9/h6-8H,2-5H2,1H3	InChI=1S/C8H14O/c1-7-3-2-4-8(5-7)6-9/h6-8H,2-5H2,1H3/t7-,8-/m0/s1
