19
gdb 119439	4.14518	0.87865	0.79961	4.44	76.76	-0.2714	0.0049	0.2763	1479.0724	0.158187	-423.036347	-423.027494	-423.02655	-423.070608	32.711	
C	 0.0035143197	 1.5321950537	 0.0288988997	-0.386308
C	-0.0324105121	 0.009771206	-0.1198824199	-0.163591
C	-1.4365827014	-0.5716255867	 0.1118071147	-0.300277
C	-1.4716831102	-2.059946685	-0.0012269696	 0.485788
C	-1.5979642644	-2.9279552359	-1.1982013097	-0.327234
C	-2.585119894	-3.0843397809	-0.0252601176	-0.347583
C	-1.8330061421	-3.7152580684	 1.1124024252	 0.465317
O	-1.9814511908	-4.5912855414	 1.8999797815	-0.326328
O	-0.7654209495	-2.8271461836	 1.0319501399	-0.299869
H	 1.0129365476	 1.9212304664	-0.1336927973	 0.118454
H	-0.6618078578	 2.018997379	-0.693114333	 0.114306
H	-0.3144126042	 1.8396503199	 1.0312040379	 0.119935
H	 0.3142068094	-0.2768417962	-1.1202974504	 0.101523
H	 0.6614995989	-0.4523513143	 0.5913104586	 0.123862
H	-1.7982426402	-0.2830542896	 1.1064296204	 0.117241
H	-2.1415710946	-0.1538302425	-0.6176737596	 0.108009
H	-2.0403737942	-2.4732254641	-2.0800005013	 0.130523
H	-0.8612206937	-3.7001229976	-1.3942352428	 0.137862
H	-3.6559058864	-2.9924236587	-0.1332902568	 0.128371
63.3603	87.4443	109.5853	183.3986	250.2312	310.378	336.4137	367.8301	464.8467	490.8334	660.232	719.1721	745.5457	775.8916	837.4311	862.5211	887.2234	913.2987	948.9596	965.4498	995.922	1016.1309	1047.7019	1051.8022	1090.7495	1112.339	1137.911	1210.0562	1231.5766	1282.7102	1306.4045	1335.2158	1382.4056	1414.9727	1421.1601	1471.1233	1492.6765	1498.4533	1501.0591	1509.924	1943.2379	3023.8746	3030.4443	3035.7606	3057.6707	3077.0587	3100.6076	3107.8786	3123.8632	3215.423	3229.9913
CCCC12CC1C(=O)O2	CCC[C@]12C[C@H]1C(=O)O2	
InChI=1S/C7H10O2/c1-2-3-7-4-5(7)6(8)9-7/h5H,2-4H2,1H3	InChI=1S/C7H10O2/c1-2-3-7-4-5(7)6(8)9-7/h5H,2-4H2,1H3/t5-,7-/m0/s1
