23
gdb 89381	2.45675	1.50512	1.16856	1.8146	85.19	-0.2453	0.0846	0.3299	1195.5879	0.204673	-388.313905	-388.304362	-388.303418	-388.347366	37.215	
C	 0.7634822052	 1.4022308983	 0.0497816268	-0.393114
C	-0.1645915675	 0.1823422532	-0.0077491695	 0.020762
C	 0.1269588753	-0.7323323362	-1.2306677273	-0.290567
C	 0.981195	-1.8737352803	-0.7010451714	 0.358663
C	 1.2608902446	-3.0604218237	-1.5830028536	-0.486526
O	 2.0850677772	-1.3986935913	 0.1003080237	-0.337407
C	 0.9031661984	-1.8839419031	 0.7741102949	 0.358663
C	 1.0891287054	-3.0828891506	 1.6641929119	-0.486526
C	-0.0030062846	-0.749332497	 1.2263632812	-0.290567
H	 1.8084252933	 1.0879539027	 0.1028787166	 0.139995
H	 0.6368804926	 2.0316368803	-0.8381801753	 0.103212
H	 0.543457778	 2.01941587	 0.928034444	 0.103212
H	-1.1962476459	 0.5447045962	-0.0598115872	 0.067374
H	-0.7992254432	-1.1482631787	-1.6465552986	 0.093748
H	 0.6282348131	-0.1906872836	-2.0408857114	 0.100494
H	 1.8171227836	-2.7493282602	-2.4743566343	 0.126791
H	 1.8576913292	-3.8130519095	-1.0633608711	 0.12687
H	 0.3267800237	-3.5236684646	-1.9188211441	 0.118509
H	 1.7379675615	-3.8287118708	 1.2000722646	 0.12687
H	 1.547999615	-2.7845305782	 2.6134584503	 0.126791
H	 0.1251434168	-3.5500445964	 1.893172028	 0.118509
H	 0.4096072514	-0.2192850344	 2.0923366483	 0.100494
H	-0.9675911029	-1.1702861421	 1.5364479361	 0.093748
132.834	159.731	167.7506	171.5422	248.6742	253.8671	288.4491	312.0532	379.3526	404.7873	464.5389	465.4727	550.5903	638.2098	688.3305	743.6047	815.0169	869.7397	881.3772	919.6301	930.6662	958.1725	973.1031	1033.8262	1048.7322	1050.4759	1105.8976	1134.5757	1170.8017	1203.509	1223.8464	1226.2063	1264.7524	1284.3543	1327.2348	1357.1117	1369.644	1401.9965	1410.3477	1416.8478	1454.6602	1475.4295	1476.3798	1483.117	1488.1201	1496.1681	1498.9285	1512.8388	1518.7924	3023.3568	3024.9738	3028.0129	3033.8077	3036.0572	3049.2051	3066.7193	3069.8117	3088.7776	3092.8558	3093.7064	3123.0825	3129.2106	3129.4401
CC1CC2(C)OC2(C)C1	C[C@H]1C[C@@]2(C)O[C@@]2(C)C1	
InChI=1S/C8H14O/c1-6-4-7(2)8(3,5-6)9-7/h6H,4-5H2,1-3H3	InChI=1S/C8H14O/c1-6-4-7(2)8(3,5-6)9-7/h6H,4-5H2,1-3H3/t6-,7+,8-
