16
gdb 31600	3.27418	1.1269	0.85026	0.9038	68.48	-0.2081	0.0092	0.2172	1305.3801	0.125133	-471.224716	-471.21563	-471.214686	-471.259186	32.75	
N	 0.3559714356	 0.9876103611	-0.7034818346	-0.486557
C	-0.2617877529	 0.3851304367	 0.4692335237	-0.278457
C	-1.5728962793	-0.3065367047	 0.2137808856	 0.382599
N	-2.1940194454	-0.4160236195	-0.9252267678	-0.402277
C	-3.3364213089	-1.1310502732	-0.6231877359	 0.309596
O	-4.238624088	-1.4411118662	-1.5729422096	-0.425693
C	-3.3792011288	-1.4385891928	 0.6983604548	 0.165792
N	-4.2820256611	-2.1225273874	 1.491538247	-0.598017
O	-2.2033405364	-0.8863860794	 1.2450700784	-0.205992
H	 0.4834432086	 0.2700227097	-1.4122694612	 0.237115
H	-0.2993452106	 1.6449426966	-1.1182539186	 0.237127
H	 0.4360818974	-0.3355521425	 0.914258471	 0.134313
H	-0.4139436886	 1.157771862	 1.2336510184	 0.134316
H	-3.9023258145	-1.0727381817	-2.3986725097	 0.302636
H	-4.7067552048	-1.5526598604	 2.2149458759	 0.24675
H	-3.9034820124	-2.9640499383	 1.9122636023	 0.24675
32.4426	146.867	167.8322	206.1174	244.1043	265.7987	280.2778	359.5913	380.3861	383.6673	526.3887	655.0536	663.9079	677.7401	727.3756	730.1046	822.5936	909.947	934.4556	1013.8818	1064.058	1139.7075	1156.921	1183.2456	1211.9626	1285.5813	1362.1486	1389.3214	1395.8345	1423.2919	1471.6839	1594.6027	1659.2591	1677.8592	1772.4158	3026.3086	3055.6473	3491.3007	3501.7593	3558.4806	3569.3405	3807.6012
NCC1=NC(O)=C(N)O1	NCc1nc(O)c(N)o1	
InChI=1S/C4H7N3O2/c5-1-2-7-4(8)3(6)9-2/h8H,1,5-6H2	InChI=1S/C4H7N3O2/c5-1-2-7-4(8)3(6)9-2/h8H,1,5-6H2
