14
gdb 48054	3.13484	1.08796	0.94035	1.2163	65.46	-0.2545	-0.1213	0.1332	1229.8123	0.098364	-473.808685	-473.799814	-473.79887	-473.84382	29.747	
O	-0.4802113586	 1.1330241888	-0.9971607222	-0.199864
C	 0.0662822791	 1.0406165334	 0.0668957404	 0.091428
C	 1.2094586843	 1.9666544299	 0.5052539892	 0.219249
O	 2.0066487878	 1.5802132258	 1.3255951488	-0.258153
C	 1.2940859082	 3.3661764981	-0.1169322942	 0.312215
O	 0.2703879802	 3.9899844597	-0.3008888781	-0.312039
C	 2.6485403515	 3.9054537267	-0.3900593762	-0.122592
C	 2.8495014964	 4.4721576556	-1.7710824129	-0.216416
N	 2.7604831231	 5.3521699423	-0.6200201669	-0.296437
H	-0.1295239836	 0.2267802694	 0.7963799279	 0.117303
H	 3.475585557	 3.427017219	 0.1213977524	 0.129792
H	 3.8339470185	 4.3804513823	-2.219969315	 0.138607
H	 2.008127694	 4.4132597773	-2.4561770082	 0.142775
H	 1.8173815021	 5.7399983816	-0.5691216949	 0.254133
39.0475	76.4153	102.6595	144.3868	196.4696	249.236	290.854	345.4662	506.494	532.9887	576.7725	769.0188	782.6576	840.5355	878.0395	944.9946	997.8163	1007.9467	1038.9526	1119.0987	1138.5024	1171.6042	1250.3757	1288.9246	1314.5314	1371.4923	1401.9967	1499.8788	1769.535	1796.9244	1830.5056	2924.1688	3115.3417	3188.702	3211.2882	3463.2904
O=CC(=O)C(=O)C1CN1	O=CC(=O)C(=O)[C@H]1CN1	
InChI=1S/C5H5NO3/c7-2-4(8)5(9)3-1-6-3/h2-3,6H,1H2	InChI=1S/C5H5NO3/c7-2-4(8)5(9)3-1-6-3/h2-3,6H,1H2/t3-/m1/s1
