13
gdb 132603	3.22754	1.31403	0.93434	4.1434	64.45	-0.2352	-0.0184	0.2168	1102.5939	0.089548	-502.058933	-502.051768	-502.050824	-502.090452	27.777	
N	-0.0014827072	 1.4000333074	-0.1397280148	-0.594375
C	-0.0318642402	 0.0301174599	-0.0554215828	 0.266398
C	-1.2070983269	-0.7235114325	-0.0292729273	-0.375068
C	-1.0880370492	-2.1083786438	 0.003977819	 0.357766
F	-2.2137557184	-2.8212380411	 0.0279167181	-0.077863
N	 0.0304130617	-2.7948339467	 0.0162367458	-0.338266
C	 1.1636983836	-2.0747366753	-0.0047218137	-0.098698
C	 1.1696640484	-0.700594156	-0.0397748726	 0.186601
F	 2.32493148	-0.0107572588	-0.0500580001	-0.093833
H	 0.8730244176	 1.8391456679	 0.1004494003	 0.267175
H	-0.8224278538	 1.9012940535	 0.1583251461	 0.262554
H	-2.1840984622	-0.2558808381	-0.0388943583	 0.109573
H	 2.1053174567	-2.6157099967	 0.0099455902	 0.128034
153.9763	219.8327	287.2122	355.4479	374.7998	420.8924	448.8682	458.5628	482.7505	538.0503	596.9059	687.6648	752.2656	760.5756	796.9128	851.8277	942.2586	993.3067	1089.0872	1205.72	1254.0188	1297.1697	1339.1901	1374.1561	1465.303	1546.3684	1629.8414	1634.7082	1669.9653	3175.4932	3203.0341	3594.6795	3706.275
NC1=CC(F)=NC=C1F	Nc1cc(F)ncc1F	
InChI=1S/C5H4F2N2/c6-3-2-9-5(7)1-4(3)8/h1-2H,(H2,8,9)	InChI=1S/C5H4F2N2/c6-3-2-9-5(7)1-4(3)8/h1-2H,(H2,8,9)
