20
gdb 72870	3.12292	1.20167	1.01894	4.4103	81.68	-0.236	0.0287	0.2647	1233.5826	0.170798	-403.152114	-403.143298	-403.142353	-403.186612	32.64	
C	-0.3773595092	 1.5787203891	 0.0918641513	-0.496613
C	 0.039076788	 0.1286645841	 0.0223430558	 0.339275
C	-1.0682188807	-0.9676643463	 0.1120854972	-0.282269
C	-0.3270299355	-1.6438482311	 1.3058713744	-0.223629
C	 0.830641826	-0.6232795086	 1.1625418229	-0.0566
N	 1.8329128756	-0.9738530389	 0.1575534611	-0.027671
C	 1.1983035341	-0.2511298316	-0.9461794787	-0.227194
C	 2.9917525587	-1.665403988	 0.1968528166	 0.127464
O	 3.7270384723	-1.8361431232	-0.7550372884	-0.335274
H	 0.4888167944	 2.2392909431	 0.2065822346	 0.123171
H	-0.9038501899	 1.8758539881	-0.8232719888	 0.125573
H	-1.0540949755	 1.7594394722	 0.9339855426	 0.119493
H	-2.0532668243	-0.5720603028	 0.3716511263	 0.105832
H	-1.174462265	-1.5806118339	-0.7866008026	 0.10722
H	-0.8609815185	-1.5367975703	 2.2537984709	 0.107532
H	-0.0420198799	-2.6906371539	 1.1816430304	 0.110936
H	 1.2249638882	-0.1455796201	 2.0634621845	 0.082405
H	 0.9337782902	-0.8759730771	-1.8059054093	 0.11908
H	 1.798071888	 0.5966688647	-1.2980242873	 0.117427
H	 3.2014114031	-2.0597256455	 1.2135095265	 0.063843
26.8412	93.1968	166.6821	216.7756	239.3234	303.5454	328.4513	373.6991	388.879	522.2479	625.8273	684.7295	754.7507	824.4934	842.2797	896.2263	915.9792	953.0155	960.2624	980.6128	1012.7644	1033.5297	1091.6807	1139.2077	1144.9787	1164.7125	1201.3546	1221.4296	1234.1239	1254.1706	1275.0102	1282.2128	1315.4922	1355.234	1401.0969	1412.6323	1448.2078	1469.4732	1487.0937	1491.2941	1492.2277	1515.0876	1789.1519	2912.3578	3021.543	3026.9536	3058.3096	3062.3696	3073.5944	3074.576	3086.2019	3096.2258	3104.7143	3124.7449
CC12CCC1N(C2)C=O	C[C@]12CC[C@H]1N(C2)C=O	
InChI=1S/C7H11NO/c1-7-3-2-6(7)8(4-7)5-9/h5-6H,2-4H2,1H3	InChI=1S/C7H11NO/c1-7-3-2-6(7)8(4-7)5-9/h5-6H,2-4H2,1H3/t6-,7-/m1/s1
