18
gdb 39144	3.49351	1.39751	1.24666	3.4743	71.3	-0.2436	0.0666	0.3102	1041.3298	0.1492	-439.03354	-439.026163	-439.025219	-439.065699	28.527	
C	-0.0434474231	 1.4667029315	 0.1504400338	-0.123557
O	 1.1667009673	 1.6259553599	-0.6242209361	-0.275932
C	 1.4542065134	 0.2162605616	-0.5479873966	-0.137383
C	 0.0436607824	-0.0661023111	 0.0327742267	 0.399025
O	-0.0385017644	-0.7494363528	 1.2687746402	-0.304824
C	-0.5806109272	-2.0596596989	 1.0969558945	-0.092646
C	-1.3231070596	-2.0254909185	-0.2206978582	-0.053825
N	-2.2667274017	-0.8921749799	-0.2977993397	-0.337438
C	-0.9189417734	-0.7715079593	-0.8933076251	-0.138999
H	 0.0729965566	 1.8170577389	 1.1831954598	 0.109773
H	-0.9072908297	 1.9536332191	-0.3134293807	 0.10874
H	 1.7022315832	-0.2109718951	-1.5276869062	 0.094391
H	 2.2545772665	-0.0116797115	 0.1680484128	 0.103101
H	 0.2173238786	-2.8169212776	 1.0605949788	 0.095959
H	-1.2251072706	-2.2668791902	 1.9571259377	 0.117776
H	-1.5255713363	-2.9442340479	-0.7600159522	 0.098565
H	-2.9400802401	-1.0708577139	-1.0394589511	 0.234745
H	-0.8019759521	-0.6814342745	-1.9674794484	 0.102528
87.8229	113.8455	200.6747	320.3556	345.6206	391.0777	455.9646	524.8774	712.1938	785.1645	806.4237	838.3025	875.6094	884.2828	908.8731	952.7857	974.007	984.4461	1019.1509	1026.7364	1055.008	1083.942	1103.5288	1130.5218	1145.8202	1158.2414	1163.5686	1206.3888	1228.0433	1248.4611	1262.8662	1294.1329	1367.7994	1375.9605	1391.3741	1435.9594	1500.3155	1511.5832	1527.4356	2991.4763	3005.5599	3027.2713	3057.1527	3075.5425	3083.1878	3171.6238	3181.9873	3498.2068
C1OCC11OCC2NC12	C1OCC21OC[C@H]1N[C@@H]21	
InChI=1S/C6H9NO2/c1-4-5(7-4)6(9-1)2-8-3-6/h4-5,7H,1-3H2	InChI=1S/C6H9NO2/c1-4-5(7-4)6(9-1)2-8-3-6/h4-5,7H,1-3H2/t4-,5-/m1/s1
