19
gdb 26253	3.77241	1.13541	0.89033	1.8504	81.78	-0.1856	0.0357	0.2213	1332.7442	0.158921	-419.245762	-419.236201	-419.235256	-419.280387	33.754	
C	 0.0381318237	 1.381617071	 0.0487748917	-0.330361
N	-0.1571921929	-0.0564563399	-0.0246359776	-0.17037
C	 0.2070078351	-0.8277417884	 1.1509032115	-0.339593
C	-0.0610606859	-0.6265616798	-1.2620286705	 0.518682
N	-0.0178519554	-0.0261366765	-2.4160415756	-0.379182
C	-0.0082601415	-1.0788419523	-3.3301062396	-0.193933
C	-0.0301470472	-2.2661272051	-2.6893455115	 0.314447
C	-0.0186356674	-3.6934980585	-3.0868612512	-0.49401
O	-0.0617341137	-1.9817538564	-1.3266791439	-0.23994
H	 1.1030026404	 1.65718699	 0.0912874387	 0.115753
H	-0.4005142889	 1.8471475607	-0.8334367703	 0.16599
H	-0.4560876677	 1.7625376254	 0.9474536694	 0.119643
H	-0.2785924602	-0.3875358009	 2.026692632	 0.126433
H	-0.1356981821	-1.8565081797	 1.0432211728	 0.152318
H	 1.2940418817	-0.8377016009	 1.329705906	 0.116665
H	 0.0211209847	-0.8980966857	-4.3936168508	 0.112423
H	 0.8551888054	-4.2228018689	-2.6879441089	 0.133223
H	-0.9113978519	-4.2243386588	-2.7349158529	 0.133993
H	 0.0104291439	-3.7662026952	-4.1767867593	 0.137817
69.5692	111.8524	155.6876	160.6221	169.9696	198.7552	227.8502	323.63	338.2405	371.1981	529.9126	601.9589	620.9083	694.7128	752.3387	848.1514	932.7599	969.6595	1001.9399	1042.1156	1068.0578	1088.288	1130.6966	1162.9184	1177.8419	1212.1176	1246.0163	1274.1351	1305.8211	1418.9155	1426.4422	1445.3966	1467.1322	1470.1538	1485.4037	1493.9963	1498.2599	1502.5307	1517.8335	1657.9289	1676.6058	2979.9417	2991.5006	3021.7175	3068.0328	3080.0104	3081.4925	3123.2776	3152.8925	3156.195	3254.9818
CN(C)C1=NC=C(C)O1	CN(C)c1ncc(C)o1	
InChI=1S/C6H10N2O/c1-5-4-7-6(9-5)8(2)3/h4H,1-3H3	InChI=1S/C6H10N2O/c1-5-4-7-6(9-5)8(2)3/h4H,1-3H3
