19
gdb 44951	2.51707	1.75155	1.54739	3.3575	73.89	-0.234	-0.0132	0.2208	958.702	0.162384	-423.06457	-423.057529	-423.056585	-423.095864	28.745	
O	-0.002474392	 0.0056889504	 0.0568371333	-0.331252
C	-0.0268797827	 1.2068841907	 0.018982706	 0.440441
C	-1.2802045268	 2.0959069217	-0.0262493408	-0.320595
C	-0.7197346783	 3.5307894396	 0.0550439166	-0.035096
C	 0.6310035392	 3.3980898905	-0.6875680511	-0.243491
C	 1.1922308715	 2.1455291917	 0.0073252941	-0.133688
C	 1.505271605	 2.5083080802	 1.4754821297	-0.082988
O	 0.3320767609	 2.8999262295	 2.1741604603	-0.253961
C	-0.4174875989	 3.9115173099	 1.5138778303	-0.076397
H	-1.79923068	 1.9213259424	-0.9760061305	 0.125162
H	-1.9665048664	 1.8238887597	 0.7801145429	 0.132003
H	-1.383940214	 4.2783879719	-0.3866800466	 0.073391
H	 0.4848723369	 3.2344526152	-1.7607211005	 0.102051
H	 1.2717681383	 4.2768199244	-0.5633115989	 0.099325
H	 2.0600344708	 1.6814008917	-0.4649378778	 0.087744
H	 1.8997352943	 1.6431208296	 2.0149981112	 0.126773
H	 2.2609702292	 3.3114402534	 1.4997714006	 0.091587
H	 0.1219094962	 4.8733280419	 1.5431608376	 0.087728
H	-1.3380122531	 4.0213433656	 2.0954627237	 0.111264
105.223	232.9959	269.9206	346.4923	420.0019	436.0124	472.4916	508.4469	606.6875	654.5431	772.7412	813.9222	822.014	862.8963	898.9272	921.0325	938.1903	959.5117	989.3953	1021.7579	1057.9018	1087.1716	1114.3159	1141.5561	1161.7039	1178.5495	1209.2339	1238.0232	1269.3928	1285.3953	1310.6917	1324.2426	1340.8138	1353.0572	1385.5723	1412.7447	1444.5572	1493.6651	1495.3388	1509.8902	1855.605	2961.6455	2967.6512	3039.7807	3046.2529	3073.4861	3080.9625	3085.4491	3093.2514	3102.7228	3104.4534
O=C1CC2CC1COC2	O=C1C[C@@H]2C[C@H]1COC2	
InChI=1S/C7H10O2/c8-7-2-5-1-6(7)4-9-3-5/h5-6H,1-4H2	InChI=1S/C7H10O2/c8-7-2-5-1-6(7)4-9-3-5/h5-6H,1-4H2/t5-,6-/m0/s1
