14
gdb 27130	3.27667	1.09185	0.86575	2.4478	65.67	-0.2258	-0.0283	0.1975	1251.5752	0.100147	-473.861225	-473.853083	-473.852138	-473.895307	28.524	
O	-0.2040841686	 1.3975427582	 0.151688152	-0.427496
C	-0.058132401	 0.0640219313	 0.047422372	 0.250675
C	 0.0627264197	-0.6682306613	-1.0924120037	 0.21702
C	 0.1010691959	-0.361478179	-2.5418951907	-0.394316
C	 1.4706555795	-0.6153728621	-3.1681670385	 0.166036
O	 1.6417042127	-1.1829789143	-4.2126374251	-0.230231
O	 0.1908440775	-1.9863543998	-0.6833335426	-0.172662
C	 0.1298176443	-1.9432525559	 0.6553330403	 0.077369
N	-0.0177554181	-0.7557357187	 1.1558407736	-0.33482
H	-0.2787102224	 1.6008092268	 1.0919108447	 0.310763
H	-0.6464832193	-0.9200681267	-3.114780181	 0.140685
H	-0.1163255845	 0.7089144563	-2.65460459	 0.154106
H	 2.3215415113	-0.2196825473	-2.5686232325	 0.08401
H	 0.2059669032	-2.8809267075	 1.1827640916	 0.158861
50.179	61.3042	139.6857	228.2941	282.7612	351.6796	380.0502	440.0007	492.3148	644.4021	662.5272	733.818	749.179	819.7766	836.3726	957.4587	987.7813	1044.2871	1083.2823	1160.8028	1182.5378	1251.2041	1273.9244	1319.7484	1342.017	1416.2418	1420.639	1440.7102	1549.7246	1727.0173	1840.7856	2879.1085	3033.889	3089.0836	3278.2783	3808.7737
OC1=C(CC=O)OC=N1	Oc1c(CC=O)ocn1	
InChI=1S/C5H5NO3/c7-2-1-4-5(8)6-3-9-4/h2-3,8H,1H2	InChI=1S/C5H5NO3/c7-2-1-4-5(8)6-3-9-4/h2-3,8H,1H2
