21
gdb 89370	2.83331	1.52827	1.36302	1.2316	81.72	-0.2369	0.0148	0.2516	1055.2972	0.18424	-387.103754	-387.095862	-387.094918	-387.135367	33.071	
C	-0.1615019109	 1.5415270869	-0.0120641363	-0.414552
C	 0.0538459663	 0.0298050687	-0.0066049663	 0.053732
C	 0.9204104644	-0.5125647078	-1.1864724841	-0.245686
C	 2.0199513894	-1.3471611915	-0.4641039579	 0.403803
O	 2.6528299479	-2.2288230511	-1.3552823409	-0.50804
C	 1.2067863299	-1.9308484099	 0.7211251633	-0.276218
C	 0.8162439932	-0.5338245136	 1.2533069021	-0.076835
C	 2.1843732093	 0.1315836284	 1.3031220611	-0.076494
C	 2.8980970028	-0.3461180495	 0.2796198852	-0.161589
H	 0.7938523185	 2.0761712479	-0.0030225427	 0.116862
H	-0.7098570121	 1.8558300133	-0.906546694	 0.112745
H	-0.7388792813	 1.8646394658	 0.8618377311	 0.106467
H	-0.9269871199	-0.45875067	-0.0312178246	 0.070647
H	 0.348820767	-1.164099534	-1.8537651038	 0.102616
H	 1.3580763778	 0.2860204046	-1.79127714	 0.097348
H	 3.3388871873	-2.6987298649	-0.869476735	 0.273595
H	 0.355426252	-2.5377306255	 0.3965633219	 0.091027
H	 1.8285409279	-2.4989225576	 1.4191800138	 0.083308
H	 0.2306497555	-0.4908310342	 2.1729059058	 0.056622
H	 2.4621657517	 0.9268384518	 1.9837976288	 0.095673
H	 3.8714411434	-0.0261174578	-0.0733872174	 0.094971
148.9931	238.7188	246.7776	292.3718	331.236	367.2596	410.5495	462.2301	482.5778	493.6421	624.511	653.8599	739.0251	747.0962	798.1259	824.8833	896.9353	912.1016	932.0865	946.3234	952.3038	964.5223	1021.468	1039.0008	1046.1079	1082.1758	1105.5473	1144.1653	1159.9685	1186.0161	1211.927	1239.2612	1249.6178	1275.1566	1296.0024	1334.92	1360.4837	1366.1122	1378.8755	1407.513	1486.1928	1496.8874	1500.6541	1504.8368	1642.5015	3025.6196	3030.0185	3046.0166	3057.7442	3090.1252	3098.5179	3100.5985	3102.4136	3106.0693	3190.0498	3216.2018	3806.9332
CC1CC2(O)CC1C=C2	C[C@H]1C[C@]2(O)C[C@H]1C=C2	
InChI=1S/C8H12O/c1-6-4-8(9)3-2-7(6)5-8/h2-3,6-7,9H,4-5H2,1H3	InChI=1S/C8H12O/c1-6-4-8(9)3-2-7(6)5-8/h2-3,6-7,9H,4-5H2,1H3/t6-,7+,8-/m0/s1
