20
gdb 109993	1.90425	1.43062	0.8815	5.1579	77.7	-0.2341	0.0316	0.2656	1333.357	0.170007	-440.291598	-440.281694	-440.28075	-440.327318	34.93	
C	-0.5282064547	 1.4600752877	-0.0568898663	-0.409665
C	 0.0611274212	 0.0553059035	-0.0396189101	-0.031455
C	 1.404794087	-0.139055147	-0.8095210032	-0.181527
N	 2.0243956027	-0.5513310937	 0.447493814	-0.041053
C	 3.2283563655	-1.1344456562	 0.659517902	 0.115779
O	 4.073126179	-1.2779455168	-0.2029237821	-0.338179
C	 0.8031002273	-0.4394251367	 1.2530427924	 0.033485
C	 0.9049996925	 0.4852199196	 2.454257839	-0.089339
O	 1.6988819035	-0.1878938561	 3.4206825534	-0.418455
H	 0.2134739013	 2.2187977087	 0.2119991017	 0.124148
H	-0.8926984812	 1.7014232614	-1.0608822114	 0.125024
H	-1.37475889	 1.5525732832	 0.6312221083	 0.121729
H	-0.6992994791	-0.6634178626	-0.352779546	 0.088495
H	 1.4106715356	-0.9199075473	-1.5768726445	 0.122446
H	 1.8353283547	 0.7736033509	-1.2371412161	 0.11617
H	 3.3554727061	-1.4487807643	 1.7120499158	 0.088251
H	 0.4424261947	-1.4116517727	 1.6126380049	 0.095153
H	 1.3609418989	 1.4397125272	 2.1569865665	 0.094388
H	-0.1064356377	 0.6934479133	 2.8391847835	 0.091736
H	 1.9166255528	 0.4305168779	 4.1240966982	 0.29287
47.6056	66.282	113.3445	167.9613	189.7867	243.4344	253.6447	292.7794	317.1999	374.0655	415.6255	479.2082	588.8307	737.1308	827.0003	874.7246	899.583	915.0957	1008.3127	1032.3068	1044.6525	1076.983	1109.0594	1123.7441	1144.9202	1167.7275	1203.2912	1246.2078	1252.0335	1272.5901	1287.4883	1318.5544	1366.2337	1378.4927	1402.6636	1416.1545	1436.3747	1460.583	1497.7181	1501.2204	1512.4014	1521.0549	1780.724	2970.5313	2973.1258	3013.9825	3031.2379	3034.1512	3036.45	3071.5278	3084.1935	3100.5908	3110.8017	3833.2639
CC1CN(C=O)C1CO	C[C@H]1CN(C=O)[C@H]1CO	
InChI=1S/C6H11NO2/c1-5-2-7(4-9)6(5)3-8/h4-6,8H,2-3H2,1H3	InChI=1S/C6H11NO2/c1-5-2-7(4-9)6(5)3-8/h4-6,8H,2-3H2,1H3/t5-,6-/m0/s1
