17
gdb 87470	3.76784	1.21458	1.09911	2.5935	74.67	-0.2515	-0.0035	0.248	1133.6155	0.135926	-417.91543	-417.907538	-417.906594	-417.947859	30.212	
C	-0.0605270158	 1.5323472119	-0.0765723074	-0.39168
C	-0.0128152155	 0.030527278	 0.0483920234	-0.113643
N	 1.3249244614	-0.6150598837	-0.1381515537	-0.418046
C	 0.67132453	-0.6647628937	 1.1434039948	 0.508267
C	 1.2057085251	-0.2348908886	 2.5224371815	-0.262608
N	-0.1427411205	-0.7323946351	 3.0561272308	-0.30931
C	 0.250118366	-1.8265917436	 2.059321113	-0.289706
C	 1.6714999681	-1.7082405906	 2.6876381683	 0.440927
O	 2.5197966137	-2.3671292341	 3.1992698581	-0.319952
H	 0.8400852322	 1.9819680567	 0.3490987231	 0.126884
H	-0.1245433362	 1.8325637735	-1.1276540732	 0.123292
H	-0.9332899568	 1.9343698291	 0.4480714438	 0.127644
H	-0.8633269236	-0.496081761	-0.383008856	 0.093706
H	 1.2430335679	-1.4988549351	-0.6353216526	 0.237184
H	 1.6469616651	 0.706445245	 2.840019668	 0.10913
H	-0.0359057417	-1.0762148931	 4.0153717778	 0.234832
H	-0.3897256693	-2.6827346655	 1.8532940603	 0.103078
109.3199	135.492	186.598	197.467	295.8058	385.7268	432.8791	480.505	539.0709	589.0805	688.2977	783.2786	802.7106	812.7927	822.5701	861.1235	908.6517	978.1162	1013.6294	1039.671	1061.8745	1081.4591	1097.3578	1106.4852	1138.3437	1159.0357	1181.093	1220.2441	1234.1224	1252.9141	1284.9522	1365.2911	1412.7402	1481.5532	1491.6552	1534.3449	1908.9933	3038.404	3103.7169	3109.9165	3129.2625	3143.4676	3162.1319	3405.0513	3497.4468
CC1NC11C2NC1C2=O	C[C@H]1N[C@]21[C@H]1N[C@@H]2C1=O	
InChI=1S/C6H8N2O/c1-2-6(8-2)4-3(9)5(6)7-4/h2,4-5,7-8H,1H3	InChI=1S/C6H8N2O/c1-2-6(8-2)4-3(9)5(6)7-4/h2,4-5,7-8H,1H3/t2-,4-,5+,6+/m1/s1
