18
gdb 18287	3.30026	2.04068	1.75805	1.1404	72.99	-0.2298	0.0138	0.2437	842.2953	0.155008	-347.791472	-347.784212	-347.783268	-347.822744	28.089	
C	-0.0582977185	 1.5689477361	-0.0936527451	-0.399789
C	 0.0157234652	 0.0651269731	 0.0248482757	-0.041372
C	 1.3210477342	-0.674605602	-0.1432984312	 0.074657
O	 2.4715034852	 0.1010983447	-0.3311301968	-0.257178
C	 3.3773078816	 0.1196819721	 0.7658627859	-0.11586
C	 2.7019550208	 0.4054881925	 2.0834262409	-0.077124
C	 1.424300315	 0.079368097	 2.2732205849	-0.074189
C	 0.6715196461	-0.6396280355	 1.2154231618	-0.126175
H	 0.8374770854	 2.0433589617	 0.3098191354	 0.129213
H	-0.1508587033	 1.868545259	-1.1430694482	 0.117716
H	-0.9273974609	 1.9612389654	 0.4452438215	 0.110286
H	-0.8515690778	-0.4605753332	-0.3677326628	 0.082771
H	 1.3315880168	-1.6062334108	-0.7072436377	 0.083331
H	 3.9362725419	-0.8308012927	 0.8237166647	 0.102257
H	 4.1054001497	 0.9020052762	 0.5273079812	 0.11494
H	 3.2935560158	 0.8835789679	 2.8585611106	 0.09344
H	 0.9196953941	 0.2994429238	 3.2101170713	 0.091205
H	 0.1736041486	-1.5467878455	 1.5487185679	 0.09187
134.3565	153.5485	169.1683	254.5266	351.5782	484.455	498.3203	556.443	580.5895	715.2418	768.3277	786.5639	843.1799	894.0286	924.0344	959.104	970.6834	988.957	1041.8059	1068.0368	1077.5103	1104.0554	1121.5964	1145.5299	1180.809	1196.8213	1246.2864	1268.7346	1342.4769	1362.6146	1396.4006	1415.6588	1417.4444	1432.8477	1491.3941	1493.123	1500.3287	1709.8105	2952.1838	3037.0558	3067.2288	3092.1452	3104.2753	3125.0362	3134.9344	3145.0952	3155.5005	3180.6054
CC1C2OCC=CC12	C[C@H]1[C@H]2OCC=C[C@@H]12	
InChI=1S/C7H10O/c1-5-6-3-2-4-8-7(5)6/h2-3,5-7H,4H2,1H3	InChI=1S/C7H10O/c1-5-6-3-2-4-8-7(5)6/h2-3,5-7H,4H2,1H3/t5-,6+,7-/m1/s1
