15
gdb 66760	2.82545	2.15131	1.54738	3.8513	68.81	-0.2347	0.003	0.2377	849.3757	0.113425	-416.699326	-416.692767	-416.691823	-416.729959	26.831	
O	-0.057581035	 1.3918923448	-0.0472241785	-0.466318
C	-0.0283336769	 0.0201104886	-0.0712677584	 0.317054
C	 0.926908741	-0.806930176	 0.8427193796	-0.173489
C	 1.615233612	-1.5185345028	-0.3108919816	-0.120965
C	 0.4952516686	-2.2117057736	 0.3993370592	-0.029771
N	-0.5443702924	-1.9543765003	-0.6564116801	-0.211841
C	 0.4948488793	-0.9564624642	-1.2197992539	-0.087179
C	-1.3000807656	-0.7996302327	-0.1176509943	 0.383249
N	-2.5195836124	-0.5788992129	 0.0571150111	-0.547092
H	 0.826617956	 1.7219580891	 0.1447891867	 0.292155
H	 1.2792071285	-0.5732156917	 1.838738812	 0.103522
H	 2.6440581381	-1.8038282455	-0.4771119542	 0.105701
H	 0.4792832223	-3.0861264648	 1.036063003	 0.106707
H	 0.4872287892	-0.754137422	-2.2876314792	 0.096452
H	-3.0650198226	-1.4150013561	-0.1693076315	 0.231814
151.3175	246.987	281.4848	340.4716	384.6261	574.5246	621.8772	679.677	709.6388	758.9817	782.0276	808.3145	836.3781	855.7598	883.336	899.7114	923.2449	958.0268	980.1457	1007.33	1011.482	1041.4178	1062.9841	1074.8345	1097.476	1185.0478	1214.1535	1230.6961	1253.2457	1314.078	1339.7024	1410.2676	1828.5675	3154.4917	3201.2624	3205.843	3223.4999	3443.4431	3811.5606
OC12C3C4C3N(C14)C2=N	O[C@]12[C@@H]3[C@H]4[C@@H]3N([C@@H]14)[C]2[NH]	
InChI=1S/C6H6N2O/c7-5-6(9)2-1-3(2)8(5)4(1)6/h1-4,7,9H	InChI=1S/C6H6N2O/c7-5-6(9)2-1-3(2)8(5)4(1)6/h1-4,7,9H/t1-,2+,3-,4+,6+/m0/s1
