15
gdb 123683	4.09817	1.55083	1.21988	2.9232	69.91	-0.2299	0.0156	0.2455	962.5778	0.116716	-416.804594	-416.7984	-416.797456	-416.835089	24.971	
C	-0.0557371095	 1.5183968123	-0.0097519314	-0.397412
C	 1.4394088753	 1.8997723656	-0.0270645926	 0.065068
O	 2.1779331077	 1.4860710768	 1.118445632	-0.250979
C	 2.2790539616	 0.6792266189	-0.0828509236	-0.155512
C	 1.3361346611	-0.4642182265	-0.083071234	 0.248426
C	 0.0468669507	 0.0192202562	-0.0105224949	 0.35794
N	-0.7675575114	-1.0496147547	 0.0767864433	-0.321863
N	-0.0800100991	-2.2216084505	 0.040199418	-0.223968
C	 1.2028477097	-1.8654321234	-0.0484963364	-0.168489
H	-0.5553497637	 1.9237684346	 0.8769534479	 0.1366
H	-0.5704248641	 1.9158512338	-0.8928481751	 0.122257
H	 1.7374296586	 2.8523667408	-0.4578815577	 0.099745
H	 3.2639257028	 0.6520834347	-0.5369416288	 0.100606
H	-1.7711101649	-1.0850189661	 0.1358071657	 0.272918
H	 1.960509495	-2.6340211525	-0.0874384623	 0.114663
157.7662	230.6408	355.2032	421.9716	460.293	521.765	610.1569	683.2	703.5044	733.2422	776.7982	849.0918	859.3707	887.5475	891.6007	971.933	990.8954	1032.078	1090.5119	1095.6732	1150.9136	1186.595	1226.6784	1242.8311	1259.8093	1301.4248	1335.9669	1377.7068	1415.8644	1455.6324	1471.6066	1545.625	1587.4689	3035.2748	3076.4723	3144.4839	3175.3732	3247.1245	3672.2255
C1C2OC2C2=C1NN=C2	C1[C@H]2O[C@H]2c2c1[nH]nc2	
InChI=1S/C6H6N2O/c1-4-3(2-7-8-4)6-5(1)9-6/h2,5-6H,1H2,(H,7,8)	InChI=1S/C6H6N2O/c1-4-3(2-7-8-4)6-5(1)9-6/h2,5-6H,1H2,(H,7,8)/t5-,6+/m1/s1
