13
gdb 25493	5.76718	1.04258	0.88296	2.7907	69.54	-0.2801	-0.0638	0.2163	1210.9906	0.091643	-448.975523	-448.968351	-448.967407	-449.008152	25.059	
N	-0.1823383981	 1.2965392611	 0.0117084693	-0.408937
C	-0.0118755636	 0.0521513975	 0.003047934	 0.114955
O	-1.1420442398	-0.7353915467	 0.0079398683	-0.205021
C	-1.0398885351	-2.075903111	 0.0007401123	 0.509966
N	 0.1587344707	-2.6567339306	-0.0099074134	-0.33196
C	 0.1164916167	-3.9885528094	-0.0161804145	 0.092172
N	-0.9818483965	-4.7392801812	-0.0126401377	-0.248109
C	-2.1145809295	-4.0282738368	-0.0018098217	 0.087161
N	-2.2146956603	-2.7040215917	 0.0052621045	-0.290473
H	 0.7207095294	 1.7681579818	 0.0066752107	 0.24336
H	 0.9136139707	-0.5208274881	-0.0080625672	 0.152339
H	 1.0737432436	-4.5048714549	-0.0249561831	 0.141305
H	-3.0475246981	-4.58703403	 0.0016163984	 0.143242
69.2839	86.6602	196.4333	208.7839	371.2838	435.5649	507.5364	570.4341	702.9264	707.462	845.5542	853.2209	906.6632	994.8611	1006.0319	1050.0096	1056.0427	1069.0886	1182.3237	1219.3017	1249.3753	1319.1042	1379.196	1391.6119	1423.6961	1463.68	1591.4591	1610.0721	1749.0934	3155.3875	3167.6538	3172.8652	3513.9325
N=COC1=NC=NC=N1	[NH][CH]Oc1ncncn1	
InChI=1S/C4H4N4O/c5-1-9-4-7-2-6-3-8-4/h1-3,5H	InChI=1S/C4H4N4O/c5-1-9-4-7-2-6-3-8-4/h1-3,5H
