18
gdb 54198	2.85587	1.41854	1.25959	4.9762	70.97	-0.2439	0.0208	0.2647	1061.3475	0.148088	-439.084837	-439.076757	-439.075813	-439.11739	31.302	
C	-0.0546663128	 1.5846095695	 0.0876820435	-0.463305
C	 0.0946521999	 0.0702097256	 0.0656653361	 0.158561
N	 1.1199645383	-0.5213126502	-0.8695503366	-0.39023
H	-0.3474642608	-1.4082570045	-1.5744591846	 0.306628
H	 1.703581593	 0.1626334908	-1.3460160975	 0.22726
C	 1.7819345601	-1.2083197597	 0.2516515358	 0.008089
C	 2.2416432319	-0.2607191436	 1.3186227125	-0.309389
C	 0.7839411208	-0.637514037	 1.2480419283	-0.096704
C	-1.2769491585	-0.5844678128	-0.2119272251	 0.417185
O	-1.2794755048	-1.4226593407	-1.250029156	-0.370096
O	-2.2435490082	-0.3550897009	 0.4669288853	-0.359732
H	 0.8636306458	 2.0770192747	 0.4180059415	 0.116021
H	-0.3112334853	 1.9635283906	-0.9081154847	 0.127389
H	-0.8665207347	 1.8522279206	 0.767347203	 0.161353
H	 2.1612688483	-2.2154277351	 0.1295138086	 0.108662
H	 2.783110727	-0.7184434636	 2.1408866652	 0.126063
H	 2.5828803546	 0.7381920957	 1.0602952102	 0.111406
H	 0.2577869053	-1.1245137695	 2.0571987047	 0.120839
84.5308	165.8009	211.3606	231.3203	279.6268	300.2026	384.6252	471.1195	519.6935	583.2116	680.7538	754.7565	762.3819	805.6101	838.3499	865.8061	895.4222	925.1167	956.5634	981.8675	990.1485	1039.8521	1064.97	1077.492	1112.3382	1144.4053	1161.6538	1178.2655	1215.0634	1256.7141	1288.3505	1342.0646	1363.368	1402.5559	1445.3216	1481.595	1487.4368	1499.4333	1861.3698	3039.7119	3107.0246	3116.2303	3138.53	3186.0869	3202.8061	3218.7468	3399.4718	3483.8797
CC1([NH2+]C2CC12)C([O-])=O	C[C@]1(N[C@H]2C[C@@H]12)C(=O)O	
InChI=1S/C6H9NO2/c1-6(5(8)9)3-2-4(3)7-6/h3-4,7H,2H2,1H3,(H,8,9)	InChI=1S/C6H9NO2/c1-6(5(8)9)3-2-4(3)7-6/h3-4,7H,2H2,1H3,(H,8,9)/t3-,4+,6-/m1/s1
