17
gdb 38888	3.66256	1.58137	1.23481	4.0686	73.	-0.2287	0.0203	0.249	995.4974	0.139175	-417.967079	-417.960355	-417.95941	-417.998046	27.352	
C	-0.0322256201	 1.5301656595	 0.0331332638	-0.281607
C	 1.3012313564	 0.8103857186	-0.0091417257	-0.029987
N	 2.160793957	 0.8405627812	 1.1735807879	-0.326197
C	 2.1352017459	-0.4587675521	 1.8178628912	-0.130778
C	 2.1810029636	-0.6292322959	 3.3585088824	-0.115736
O	 0.8312142884	-1.2233751434	 3.3312904677	-0.268709
C	 0.6949049524	-0.8422301386	 2.0262817952	 0.47447
N	-0.3401144684	-0.630308707	 1.3472093102	-0.311467
C	 0.0050714239	 0.0221127392	 0.0983548329	 0.002756
H	-0.2592206871	 2.0438751835	 0.9606387334	 0.125435
H	-0.4047727319	 2.0049291959	-0.8685697003	 0.108486
H	 1.8185025043	 0.7705922738	-0.9656605938	 0.083795
H	 3.0963752238	 1.1372591177	 0.9260035643	 0.226128
H	 2.7209049655	-1.2432692002	 1.3154925137	 0.093029
H	 2.9108339742	-1.3302052596	 3.7672904361	 0.121043
H	 2.1684089381	 0.3110415966	 3.9141270946	 0.131417
H	-0.3293839658	-0.5173188492	-0.7824756838	 0.097924
140.3839	185.6318	331.9745	364.1242	413.6821	478.0534	507.9554	594.475	664.3187	728.4575	783.183	790.0248	809.0278	847.3198	911.7163	935.5184	971.5281	1027.603	1041.0441	1064.1693	1075.5569	1101.1664	1124.6843	1150.9619	1154.0604	1163.6003	1208.6279	1223.9957	1237.1505	1324.5278	1349.7381	1353.3557	1417.5682	1450.9591	1481.5164	1501.8343	1813.2094	2985.0416	3070.503	3112.2334	3130.8812	3140.876	3151.3288	3227.918	3549.2484
C1C2NC3COC3=NC12	C1[C@H]2N[C@H]3CO[C]3[N][C@@H]12	
InChI=1S/C6H8N2O/c1-3-4(1)8-6-5(7-3)2-9-6/h3-5,7H,1-2H2	InChI=1S/C6H8N2O/c1-3-4(1)8-6-5(7-3)2-9-6/h3-5,7H,1-2H2/t3-,4+,5+/m1/s1
