19
gdb 19280	3.31987	1.71883	1.37155	2.5581	70.37	-0.2268	0.0688	0.2956	957.7297	0.165609	-365.007524	-364.999347	-364.998403	-365.03988	30.844	
C	-0.7565652986	 1.5128150331	 0.0096608828	-0.406823
C	-0.2834319515	 0.0734345505	-0.0930608662	 0.060153
C	 0.5666548456	-0.4198369785	-1.3102742485	-0.005596
C	 0.9404212352	 0.5192026921	-2.4432533195	-0.100158
O	-0.2424955174	 0.7661390403	-3.1943008033	-0.422486
C	 1.6326967479	-0.8016517285	-0.2867198101	-0.056298
C	 2.015845703	 0.3336397932	 0.5749261487	-0.244809
N	 0.7718544751	-0.3861105601	 0.8964518075	-0.14154
H	 0.053515245	 2.2392785819	-0.1023348073	 0.108979
H	-1.4885458867	 1.7151759986	-0.7775073409	 0.133751
H	-1.2282524868	 1.6855766339	 0.9823789427	 0.122012
H	-1.142637081	-0.5869158666	 0.0488630076	 0.086966
H	 0.1035186662	-1.304763845	-1.754798404	 0.088214
H	 1.3634845794	 1.4576051679	-2.0557290206	 0.083323
H	 1.7184349833	 0.0450153627	-3.0643998057	 0.087853
H	-0.0324179205	 1.3943718	-3.8913564732	 0.287733
H	 2.180054173	-1.7392410259	-0.2811485791	 0.091696
H	 2.7953480241	 0.156238304	 1.3098969839	 0.119359
H	 1.9800405345	 1.3543584364	 0.2058742553	 0.107671
98.0498	141.4184	191.779	219.788	273.7233	285.6523	321.3731	425.5639	510.2046	563.6291	702.7555	741.1808	771.2082	786.2884	884.941	970.2055	982.614	1017.2689	1039.8586	1062.5703	1073.9789	1099.3979	1109.3042	1124.6303	1151.2917	1176.4109	1210.7738	1238.0299	1256.7017	1280.0087	1298.3952	1366.7588	1370.6597	1387.1842	1407.044	1460.4328	1484.8269	1497.2235	1507.7356	1523.197	2964.5578	3002.5721	3041.3485	3062.0542	3079.4047	3108.5395	3117.4392	3119.6284	3155.2495	3199.2868	3829.6945
CC1C(CO)C2CN12	C[C@H]1[C@@H](CO)[C@H]2CN12	
InChI=1S/C6H11NO/c1-4-5(3-8)6-2-7(4)6/h4-6,8H,2-3H2,1H3	InChI=1S/C6H11NO/c1-4-5(3-8)6-2-7(4)6/h4-6,8H,2-3H2,1H3/t4-,5+,6+,7?/m0/s1
