19
gdb 6288	3.91841	1.05099	1.01728	4.798	73.23	-0.2355	0.0251	0.2606	1239.8067	0.16503	-361.231643	-361.222108	-361.221163	-361.265985	33.911	
C	-0.040212883	 1.5625780716	 0.2116929285	-0.329591
N	-0.038152294	 0.1164021525	 0.0273774083	-0.058504
C	 0.7601604861	-0.5438374633	 1.0523329484	-0.323094
C	-1.380003956	-0.440275374	-0.0846395576	-0.148789
C	-1.9276355771	-0.251499628	-1.5264415439	-0.126628
N	-1.0772989006	-0.8210960762	-2.5748318088	-0.505095
C	-3.2821639881	-0.8100764439	-1.6112014008	 0.289008
N	-4.3426298666	-1.2676328063	-1.6397708771	-0.31832
H	 0.9874509327	 1.9369394328	 0.1911938233	 0.126624
H	-0.5871135165	 2.0546796083	-0.5971833803	 0.125013
H	-0.4994588642	 1.8701816459	 1.1694375097	 0.103038
H	 0.3622183502	-0.4002688435	 2.0736167723	 0.101686
H	 0.8090269849	-1.6182353571	 0.8534128238	 0.122839
H	 1.7802308697	-0.1477850098	 1.0317497906	 0.124061
H	-1.3306224659	-1.5155642877	 0.1145367761	 0.11073
H	-2.0855629224	-0.0055266064	 0.6463044294	 0.100029
H	-2.0177124117	 0.8244704481	-1.7254853509	 0.133135
H	-0.1217853926	-0.5644402539	-2.331780545	 0.239059
H	-1.1204611752	-1.8362890489	-2.5288429162	 0.234796
61.994	94.3184	132.823	206.538	237.0563	241.3119	269.2397	311.5167	346.5424	405.0851	410.8239	485.0748	557.8362	579.0118	838.2725	866.1435	924.0205	942.1036	1043.0708	1065.9933	1068.8745	1122.1938	1129.6584	1183.6289	1193.6556	1227.7374	1305.7586	1320.1729	1323.0874	1386.0061	1418.4077	1447.337	1469.7831	1483.7027	1491.7484	1499.4951	1503.1937	1513.2087	1659.4958	2363.0417	2938.2016	2940.0621	2949.7546	3027.006	3065.4694	3073.3668	3076.071	3110.1576	3114.9004	3466.398	3549.2556
CN(C)CC(N)C#N	CN(C)C[C@@H](N)C#N	
InChI=1S/C5H11N3/c1-8(2)4-5(7)3-6/h5H,4,7H2,1-2H3	InChI=1S/C5H11N3/c1-8(2)4-5(7)3-6/h5H,4,7H2,1-2H3/t5-/m0/s1
