20
gdb 123110	2.27453	1.15743	0.84537	6.1521	72.92	-0.2403	0.0322	0.2725	1393.7144	0.169998	-477.438233	-477.428403	-477.427459	-477.473885	34.922	
C	-0.9471143186	 0.8089695074	-0.4173138666	-0.321896
N	-0.2866625609	-0.4774993423	-0.2002426332	-0.282185
H	 0.2667812949	-0.4503851162	 0.6505893533	 0.232259
H	-1.4830940628	-1.8336475296	-0.3179329016	 0.330503
C	 0.545044689	-0.9133285123	-1.3194010247	-0.166641
C	 1.2243772522	-2.2447154907	-0.9901547685	-0.097119
O	 0.3467685564	-3.217803763	-0.4594208405	-0.232672
C	-0.5079829094	-3.8733424827	-1.3738591476	-0.217334
C	-1.9682043933	-3.3898560549	-1.3998435047	 0.369905
O	-2.2744249242	-2.2981746904	-0.7045439316	-0.382176
O	-2.7861802624	-4.0092094757	-2.0309662835	-0.334391
H	-0.2486209987	 1.6223843012	-0.6690636997	 0.10979
H	-1.6654983826	 0.7074975171	-1.2366327291	 0.146927
H	-1.5010005846	 1.0896649567	 0.4819220171	 0.134201
H	-0.1083880586	-1.0219820048	-2.1944051792	 0.124791
H	 1.3230191082	-0.1804223073	-1.5957666205	 0.098536
H	 1.7420021019	-2.6220988298	-1.8848758794	 0.105821
H	 1.9823847449	-2.0880328786	-0.2131466478	 0.111807
H	-0.1224610587	-3.8220620956	-2.4014445752	 0.123314
H	-0.5441905627	-4.9316158583	-1.0967152069	 0.146558
55.9421	64.9187	111.3662	161.5821	190.1132	225.8404	255.2032	293.2556	345.0837	400.8181	494.0493	548.5257	581.6467	656.1853	780.6584	852.3756	868.9874	877.2631	957.4608	1004.942	1021.8267	1031.6501	1073.5924	1127.8481	1156.7863	1174.6985	1219.897	1271.6509	1282.3138	1297.2348	1323.776	1363.1946	1384.5682	1407.8353	1422.522	1459.8746	1461.7144	1477.1643	1492.2472	1493.1368	1512.0458	1514.4856	1847.1779	2958.3026	2982.9284	2998.3931	3018.3722	3040.4507	3064.7599	3080.8465	3086.3702	3122.791	3207.0512	3516.9483
C[NH2+]CCOCC([O-])=O	CNCCOCC(=O)O	
InChI=1S/C5H11NO3/c1-6-2-3-9-4-5(7)8/h6H,2-4H2,1H3,(H,7,8)	InChI=1S/C5H11NO3/c1-6-2-3-9-4-5(7)8/h6H,2-4H2,1H3,(H,7,8)
