23
gdb 80546	2.51776	1.45331	1.21167	1.554	85.69	-0.2306	0.0947	0.3254	1184.3743	0.20615	-388.276392	-388.267361	-388.266417	-388.309337	35.705	
C	-0.1207807891	 1.6557708005	-0.0461197923	-0.442043
C	-0.0032412225	 0.1389333935	 0.0057525805	 0.039901
C	 1.1343425212	-0.5764244213	-0.7638680993	 0.076255
O	 2.3287424544	-0.0067765597	-0.190722298	-0.302413
C	 2.0823429051	-0.1480926999	 1.2383111342	 0.162898
C	 2.3890535434	 1.1256012215	 2.0119493764	-0.429725
C	 0.641209112	-0.6862348248	 1.1835037852	-0.121931
C	 0.8792543259	-1.8273190623	 0.1222276282	 0.042827
C	-0.2559291171	-2.7830810015	-0.2193986191	-0.445128
H	 0.856679823	 2.1331416704	-0.1325083163	 0.136091
H	-0.7125351064	 1.9520857901	-0.9195133312	 0.108692
H	-0.6273237241	 2.0566121894	 0.8388668597	 0.112129
H	-0.9699629404	-0.3047539818	-0.2353018881	 0.073689
H	 1.2260688461	-0.5965524521	-1.8502710347	 0.069002
H	 2.7515495171	-0.9323619774	 1.6216331721	 0.070401
H	 1.6941319455	 1.9385466565	 1.8031955961	 0.122733
H	 2.3586216339	 0.916670797	 3.0869780432	 0.110327
H	 3.3998590276	 1.4666880179	 1.7664836111	 0.125963
H	 0.1274970324	-0.8599558216	 2.1300699953	 0.06127
H	 1.7912898398	-2.4071990687	 0.2994447817	 0.071415
H	-1.2093927371	-2.2851859582	-0.412087961	 0.120148
H	-0.0056901166	-3.3690943366	-1.110903745	 0.119356
H	-0.4158316041	-3.4913231012	 0.6011357513	 0.118141
164.6108	166.0927	195.3884	205.2351	226.211	252.6701	290.1755	321.747	355.9592	483.4654	510.9651	607.3256	685.359	735.2551	779.9444	822.7812	827.7859	868.7954	899.2509	950.5047	1014.7891	1032.8694	1037.1386	1043.2633	1049.6394	1087.8503	1097.1487	1122.5365	1132.3368	1154.7415	1171.9572	1203.4608	1240.7726	1247.8401	1285.5528	1290.1229	1333.944	1391.1589	1398.3787	1405.094	1408.1727	1423.0106	1430.1815	1487.8434	1491.7172	1496.8161	1499.2257	1502.9504	1517.3963	2982.1671	3031.9986	3032.4276	3043.7737	3047.1193	3084.8838	3088.4948	3094.7114	3102.5831	3108.5658	3116.5221	3118.9611	3133.3078	3156.4919
CC1C2OC(C)C1C2C	C[C@H]1[C@H]2O[C@@H](C)[C@@H]1[C@H]2C	
InChI=1S/C8H14O/c1-4-7-5(2)8(4)9-6(7)3/h4-8H,1-3H3	InChI=1S/C8H14O/c1-4-7-5(2)8(4)9-6(7)3/h4-8H,1-3H3/t4-,5-,6+,7-,8+/m1/s1
