19
gdb 8283	5.88059	0.96531	0.91322	3.0036	73.29	-0.2258	-0.0234	0.2024	1296.8608	0.163856	-365.045576	-365.036883	-365.035939	-365.079594	30.879	
C	-0.0691277581	 1.6138432513	-0.0877682853	-0.392908
C	-0.0774753522	 0.0901194413	-0.0760751762	 0.013193
C	 1.1040688886	-0.5728338883	-0.8366255313	-0.17417
N	 1.8027172571	-0.7420728691	 0.4527805816	-0.077519
C	 2.5929915412	-1.9252309777	 0.6841204097	-0.237488
C	 3.425227513	-1.7960257818	 1.9505062447	 0.157865
O	 3.7058456262	-2.709965289	 2.6804693467	-0.236629
C	 0.5373576819	-0.55606809	 1.1945684997	-0.179542
H	 0.9191138287	 1.9985578834	 0.1845201431	 0.128271
H	-0.3216680838	 2.0017859173	-1.0805034821	 0.115219
H	-0.7973835536	 2.0177436678	 0.6237514623	 0.115901
H	-1.0637028537	-0.2913590381	-0.3480051059	 0.076611
H	 0.8169352431	-1.5266521069	-1.3074101575	 0.086058
H	 1.6430158306	 0.0367137419	-1.5716542444	 0.099927
H	 2.0123646818	-2.8643824181	 0.7327912544	 0.101742
H	 3.3104787363	-2.0285536658	-0.1443959479	 0.128853
H	 3.7743226299	-0.7559325726	 2.1421455432	 0.082872
H	 0.6166066326	 0.0657932221	 2.0936899095	 0.102593
H	 0.0508557504	-1.5078274375	 1.4632576057	 0.089152
61.1049	72.4069	103.9577	188.3511	247.9704	291.7406	330.1309	383.8312	415.8978	473.0855	697.2479	779.7606	820.9585	885.6834	897.6055	916.6872	975.1376	1018.9412	1063.7355	1070.4201	1114.2038	1139.2921	1146.0231	1160.3185	1221.1174	1238.3045	1242.8914	1275.0588	1293.733	1333.9828	1355.6516	1373.1963	1404.0849	1410.6846	1454.6533	1495.5564	1496.5393	1505.3267	1527.5981	1838.949	2881.5216	2944.0493	2966.9292	2975.8868	3018.7905	3029.5221	3047.5856	3051.3229	3081.9266	3095.9862	3109.1915
CC1CN(CC=O)C1	CC1CN(CC=O)C1	
InChI=1S/C6H11NO/c1-6-4-7(5-6)2-3-8/h3,6H,2,4-5H2,1H3	InChI=1S/C6H11NO/c1-6-4-7(5-6)2-3-8/h3,6H,2,4-5H2,1H3
