22
gdb 16528	2.6821	2.10435	1.60892	0.1736	80.56	-0.2577	0.0751	0.3327	942.0269	0.201246	-313.048603	-313.040445	-313.039501	-313.080983	32.053	
C	 0.262597655	 1.6365710546	 0.1385881559	-0.407251
C	 0.1052192813	 0.1248165426	 0.0127084546	 0.002137
C	 1.0567270427	-0.6588872806	-0.9697132123	 0.025122
C	 1.974309977	 0.0925829728	-1.9262435304	-0.41297
C	 1.6516137883	-1.4368765372	 0.2351740895	-0.028932
C	 2.7847664383	-0.74296769	 1.0489582955	-0.229548
C	 1.7368606075	-0.2318834076	 2.0824140383	-0.222592
C	 0.5944183532	-0.779547483	 1.1936296011	-0.024418
H	 1.2937485354	 1.9407368137	 0.342043409	 0.11578
H	-0.0483706804	 2.1379757756	-0.7844751604	 0.11093
H	-0.3608612617	 2.0262663491	 0.9512727807	 0.111903
H	-0.9437865217	-0.0844154773	-0.2202117033	 0.066413
H	 0.4491260124	-1.3531115438	-1.5611607315	 0.067009
H	 2.6009162791	 0.8315180077	-1.4182415587	 0.115116
H	 2.6430229753	-0.6026108586	-2.4467228505	 0.111151
H	 1.395500433	 0.6252381992	-2.6890819626	 0.111413
H	 1.7564858819	-2.5169251496	 0.1147438732	 0.054069
H	 3.5251966727	-1.4323487971	 1.4619388859	 0.097148
H	 3.3278910988	 0.0391447492	 0.5119673548	 0.094619
H	 1.8019965794	-0.7644566558	 3.0352410415	 0.095283
H	 1.7316714058	 0.8395161319	 2.3001409565	 0.092923
H	-0.1903494333	-1.3487928259	 1.6951563231	 0.054695
53.0934	200.9455	215.2292	233.4174	256.5549	284.356	396.5136	466.4186	504.4224	598.3735	709.9781	745.4098	754.0427	834.0592	844.6461	854.2401	931.9825	953.4929	985.5561	1000.3539	1008.4956	1030.0737	1072.9391	1100.0916	1127.1593	1141.8434	1173.6929	1181.0865	1205.9764	1234.2566	1242.3126	1268.7829	1280.6831	1301.2681	1310.8524	1331.7113	1365.149	1369.5079	1406.3837	1413.1776	1474.1819	1486.9401	1490.911	1497.891	1504.6487	1512.8935	3021.7408	3026.9217	3029.7081	3043.872	3051.6641	3059.3356	3073.9497	3086.0918	3088.0815	3090.009	3091.4671	3099.519	3104.8349	3113.3896
CC1C(C)C2CCC12	C[C@H]1[C@@H](C)[C@H]2CC[C@@H]12	
InChI=1S/C8H14/c1-5-6(2)8-4-3-7(5)8/h5-8H,3-4H2,1-2H3	InChI=1S/C8H14/c1-5-6(2)8-4-3-7(5)8/h5-8H,3-4H2,1-2H3/t5-,6+,7-,8+
