16
gdb 33629	3.14196	1.583	1.39872	1.4007	83.35	-0.2187	-0.0524	0.1663	969.2386	0.123613	-363.449229	-363.442069	-363.441125	-363.480486	29.03	
C	-0.3483674175	-1.2899227058	-0.0226463414	-0.33399
C	-0.204847446	-0.0958201624	-0.0309164984	 0.064532
C	 0.0017293932	 1.3093435105	-0.0390495204	 0.226509
C	-0.5047314292	 2.4188573899	 0.8127562691	-0.105378
C	 0.9627553294	 2.7988551724	 1.2813257252	-0.274664
C	 1.3450412535	 2.1060782068	-0.0330435423	-0.026256
C	 1.3698638708	 2.9144072702	-1.1092136241	-0.104927
C	-0.0273041803	 2.924384857	-1.7154549375	-0.188555
N	-0.8741641144	 2.2983535002	-0.6580857903	-0.161752
H	-0.4830106639	-2.3431374335	-0.0176846415	 0.184128
H	-1.3645085403	 2.3935608318	 1.4739200542	 0.123762
H	 1.2428126323	 3.8495810499	 1.3841272974	 0.111657
H	 1.164491619	 2.2556061852	 2.2109090184	 0.122269
H	 1.9925146276	 3.8035873729	-1.1554368528	 0.108744
H	-0.3220533015	 3.9631053729	-1.9030743035	 0.123454
H	-0.1989881025	 2.3562946418	-2.6379393419	 0.130466
127.7039	155.2125	269.3887	381.4432	393.0664	505.7295	538.2508	544.0304	601.1096	609.1261	657.8581	689.4868	758.3934	788.1552	819.6774	859.4433	906.358	923.4694	961.5126	992.2858	1016.8021	1018.4925	1066.6869	1087.3462	1104.7581	1197.9644	1205.6042	1233.1939	1273.3047	1303.3884	1378.4016	1470.6256	1498.4201	1583.3803	2240.3858	3029.3998	3040.198	3074.0575	3111.4034	3165.234	3177.2681	3501.7751
C#CC12C3CC1=CCN23	C#C[C@@]12[C@H]3C[C]1[CH]CN23	
InChI=1S/C8H7N/c1-2-8-6-3-4-9(8)7(8)5-6/h1,3,7H,4-5H2	InChI=1S/C8H7N/c1-2-8-6-3-4-9(8)7(8)5-6/h1,3,7H,4-5H2/t7-,8+,9?/m1/s1
