19
gdb 72459	2.61904	1.95219	1.51898	0.9759	75.12	-0.2407	0.0145	0.2552	948.5993	0.160713	-423.049221	-423.041822	-423.040878	-423.080527	30.222	
C	-0.0285527944	 1.4964025386	 0.0837337576	-0.446085
C	 0.0103817836	-0.0135390146	-0.0297902623	 0.44437
C	 0.6731277656	-0.5329410397	-1.3233354478	-0.281032
C	 0.3658033293	-1.9958627202	-1.5235505419	-0.05893
C	-0.4469515796	-2.6483875614	-0.6948186175	-0.064241
C	-1.0717896837	-1.8898676033	 0.453037413	-0.002813
C	-0.059602899	-1.6633767827	 1.5922354345	-0.084748
O	 0.7117545643	-0.5709466563	 1.0975195405	-0.308678
O	-1.3042222041	-0.5323383612	 0.0604815562	-0.27736
H	 0.9862939807	 1.9009557745	 0.0469644153	 0.12588
H	-0.6091813291	 1.9245739692	-0.7374356058	 0.124995
H	-0.4885809863	 1.7791544999	 1.0328407259	 0.128255
H	 0.3324999442	 0.0527052602	-2.1881400291	 0.107094
H	 1.7555581461	-0.3756724574	-1.2444874009	 0.11787
H	 0.8255800336	-2.497542737	-2.3707889528	 0.093564
H	-0.6615443133	-3.7065643526	-0.8046032463	 0.090564
H	-2.0205144071	-2.3169434709	 0.7827010846	 0.087133
H	-0.5670334724	-1.3861934645	 2.5262632703	 0.097083
H	 0.5949887718	-2.5211181805	 1.7733125065	 0.107077
156.1423	204.0286	264.5964	285.2195	331.0994	392.5504	456.547	510.2505	533.4157	646.2049	683.2569	734.6353	814.8651	834.8695	862.0446	896.6311	902.9721	956.6301	965.429	986.8993	991.451	1034.2204	1056.0354	1083.1328	1115.4914	1175.44	1199.6411	1210.9459	1230.74	1244.6666	1284.1661	1356.3859	1366.8515	1371.0389	1402.4236	1414.2419	1458.9355	1482.239	1486.387	1514.4324	1711.4298	3008.6947	3016.2295	3053.7075	3057.6699	3082.6423	3103.6582	3130.5433	3139.5423	3157.8396	3185.5762
CC12CC=CC(CO1)O2	C[C@@]12CC=C[C@@H](CO1)O2	
InChI=1S/C7H10O2/c1-7-4-2-3-6(9-7)5-8-7/h2-3,6H,4-5H2,1H3	InChI=1S/C7H10O2/c1-7-4-2-3-6(9-7)5-8-7/h2-3,6H,4-5H2,1H3/t6-,7+/m0/s1
