16
gdb 24662	4.59477	1.14644	0.98182	2.7687	77.76	-0.2476	-0.0351	0.2125	1175.5991	0.128011	-396.955022	-396.947962	-396.947018	-396.987062	26.656	
C	 1.1114669685	 0.8079459976	-0.1490084927	-0.228641
N	 0.0022204796	 0.2097586854	-0.8918121335	-0.313137
C	-0.2391461581	 0.6783285599	 0.4817134949	-0.108283
C	-0.5188658062	-0.3512558729	 1.5169793059	 0.360646
N	-0.9706403477	 0.1029519384	 2.6940090229	-0.316335
C	-1.199823082	-0.8141686077	 3.6340463962	 0.067683
N	-1.0347951703	-2.1332664384	 3.5365107629	-0.253436
C	-0.5936632256	-2.5677695509	 2.3505699384	 0.02227
C	-0.3173946494	-1.714042906	 1.2934658329	-0.19194
H	 1.8978276075	 0.1144800228	 0.1354592914	 0.128112
H	 1.451345841	 1.8071542683	-0.4077519633	 0.12488
H	-0.3842083646	 0.8701502828	-1.5598773863	 0.242446
H	-0.7872654647	 1.6032077979	 0.6377539798	 0.102846
H	-1.5663711101	-0.4420319446	 4.588335647	 0.11677
H	-0.4626656304	-3.642869633	 2.248016298	 0.117925
H	 0.0204590025	-2.0718492996	 0.3292144754	 0.128194
72.7556	138.5131	201.0065	310.9297	383.5677	419.4094	571.0722	581.6196	690.1094	785.6847	800.0774	855.7506	889.7992	911.9365	935.5763	975.9146	994.2923	1008.1191	1026.9511	1090.4545	1093.6904	1120.8625	1163.4245	1190.1693	1225.7446	1237.8713	1285.2687	1290.2195	1333.6091	1419.7445	1431.0131	1505.5597	1514.4229	1594.7238	1622.1956	3110.5867	3153.8902	3154.975	3160.2195	3200.2677	3219.5469	3518.72
C1NC1C1=NC=NC=C1	C1N[C@H]1c1ncncc1	
InChI=1S/C6H7N3/c1-2-7-4-9-5(1)6-3-8-6/h1-2,4,6,8H,3H2	InChI=1S/C6H7N3/c1-2-7-4-9-5(1)6-3-8-6/h1-2,4,6,8H,3H2/t6-/m1/s1
