19
gdb 38780	2.85485	1.96981	1.63141	2.8493	76.77	-0.2179	0.0639	0.2818	897.7925	0.164111	-382.00263	-381.9963	-381.995356	-382.032879	27.36	
C	-0.0418808193	 1.4485270892	-0.1353346505	-0.158399
C	 1.5016873704	 1.5164882458	 0.0387699369	-0.053176
C	 2.0570881956	 2.1047199103	 1.3478114659	-0.230139
C	 1.5311797522	 1.4191343988	 2.5949806483	-0.026052
N	 0.067459432	 1.3638412793	 2.7755005358	-0.33895
C	 0.807643312	 0.1256942562	 2.4565074184	-0.042841
C	 0.6853477358	-0.5284236506	 1.1033602324	-0.001373
C	 1.4621284877	-0.0186354294	-0.0474495216	-0.067908
N	-0.0510847498	-0.0576959198	-0.0983394619	-0.164638
H	-0.6675600263	 1.9274771061	 0.6143091859	 0.136736
H	-0.3509616562	 1.7517455079	-1.1388734704	 0.098323
H	 2.0000185043	 1.9856481236	-0.8117212597	 0.074808
H	 3.1511780117	 2.0109005905	 1.3455449528	 0.098537
H	 1.8340824801	 3.1781799128	 1.3880082322	 0.105452
H	 2.1344240406	 1.5582273395	 3.489510813	 0.082574
H	-0.16355224	 1.3759212263	 3.7650193907	 0.230826
H	 0.9217475671	-0.5947855396	 3.2630305563	 0.07986
H	 0.5952125161	-1.6097647182	 1.1647212241	 0.090442
H	 2.0830986059	-0.641984089	-0.6834735286	 0.085919
229.0722	246.5214	363.1595	374.8128	471.4766	483.3266	610.404	707.891	716.3542	758.8691	792.3796	810.3868	824.2725	866.352	900.3165	910.9714	944.8044	975.0109	981.8699	1031.2734	1063.0436	1066.0199	1073.0979	1093.7479	1124.661	1159.0131	1181.302	1200.0386	1219.1309	1234.7001	1272.8481	1293.635	1303.2509	1315.228	1337.6586	1385.6287	1410.3517	1428.5545	1461.5473	1476.1084	1495.6701	3016.7181	3054.0702	3066.2561	3087.1088	3120.7317	3129.4672	3143.4756	3156.4217	3161.9707	3505.2761
C1C2CC3NC3C3C2N13	C1[C@H]2C[C@H]3N[C@H]3[C@@H]3[C@H]2N13	
InChI=1S/C7H10N2/c1-3-2-9-6(3)7(9)5-4(1)8-5/h3-8H,1-2H2	InChI=1S/C7H10N2/c1-3-2-9-6(3)7(9)5-4(1)8-5/h3-8H,1-2H2/t3-,4-,5-,6+,7-,9?/m1/s1
