20
gdb 14272	2.86924	2.47977	1.78783	1.1916	73.76	-0.2465	0.0789	0.3254	829.5628	0.180981	-348.998206	-348.991672	-348.990727	-349.028384	27.335	
C	-0.0346301236	 1.5354295986	 0.0842785044	-0.23859
C	 1.5195224198	 1.5232582412	 0.0094854975	 0.009813
C	 1.4696097101	 0.0462529724	 0.5066993086	-0.220304
C	-0.0053912301	-0.018993764	 0.0191435311	-0.010281
C	-0.1300829156	-0.6135773657	-1.3897839027	-0.090191
O	 0.982670312	-0.3885019956	-2.2384697219	-0.240367
C	 1.2599125292	 0.974600514	-2.5114244205	-0.069875
C	 2.0753056844	 1.6743033546	-1.4132200764	-0.212663
H	-0.3855776879	 1.8824732249	 1.0601316738	 0.094682
H	-0.588713827	 2.0748196095	-0.6904651069	 0.088849
H	 2.0357858994	 2.2233755	 0.6725958106	 0.060887
H	 2.1732586087	-0.6577400963	 0.0566380923	 0.103401
H	 1.5405612137	-0.0149997509	 1.5959348202	 0.0905
H	-0.7216299395	-0.5317782698	 0.6691310241	 0.062698
H	-0.2096657118	-1.7037283697	-1.3195464912	 0.104926
H	-1.0528681316	-0.2405843078	-1.8676633403	 0.084297
H	 1.8295644777	 0.9872373215	-3.4469792864	 0.101813
H	 0.3201708552	 1.5178969517	-2.6993611948	 0.08754
H	 2.1326766687	 2.7391551775	-1.67678924	 0.091663
H	 3.1030451882	 1.2902662941	-1.4324367817	 0.101202
206.5521	276.0837	321.2886	347.0293	371.2615	408.9814	515.4667	605.5378	761.2835	785.9913	805.3298	834.2695	871.789	905.4954	906.174	940.6805	966.1575	1008.3824	1053.7465	1060.4404	1096.1058	1106.0191	1136.2168	1159.7443	1170.3424	1194.6411	1228.8495	1259.3474	1280.5926	1293.7897	1305.0888	1327.4262	1352.1488	1356.3067	1384.6856	1403.0473	1422.8604	1469.4531	1478.6859	1487.96	1497.157	1513.2781	2954.3657	2978.8226	3013.5451	3043.318	3050.6219	3052.2304	3055.6046	3065.4057	3066.6562	3071.4241	3097.2265	3116.571
C1C2CC1COCC2	C1[C@H]2C[C@@H]1COCC2	
InChI=1S/C7H12O/c1-2-8-5-7-3-6(1)4-7/h6-7H,1-5H2	InChI=1S/C7H12O/c1-2-8-5-7-3-6(1)4-7/h6-7H,1-5H2/t6-,7+
