18
gdb 107894	2.40414	1.66801	1.17079	2.1761	72.09	-0.2297	0.0599	0.2896	1069.1827	0.147048	-438.96784	-438.959581	-438.958637	-439.000737	31.485	
O	-0.0824782017	 1.4704004021	 0.0815605018	-0.425916
C	 0.0045545234	 0.0521844172	-0.0146580142	-0.238328
C	-1.4007221064	-0.4811586383	-0.0113278011	 0.358226
C	-2.5549845226	-0.1951834082	-0.9672234475	-0.224958
N	-3.2344788885	-1.1669481021	-0.0037984611	-0.177566
C	-1.9006557931	-1.9586337986	 0.106734294	-0.093378
C	-1.994749989	-1.9337517885	 1.6279548822	 0.115127
O	-0.7698015348	-2.0914081366	 2.3010120035	-0.438725
C	-2.4313189243	-0.5338521529	 1.1661605457	-0.096692
H	 0.8114621764	 1.8244822738	 0.0772587004	 0.289053
H	 0.5082243456	-0.2536373703	-0.9470445308	 0.083608
H	 0.5593723023	-0.3831424364	 0.827334797	 0.10892
H	-2.9941895686	 0.8065960063	-0.9578373606	 0.109066
H	-2.4862925648	-0.5781038187	-1.9916203955	 0.095407
H	-1.693085745	-2.7908752534	-0.5685155981	 0.081383
H	-2.796024646	-2.5530795977	 2.0521088245	 0.082938
H	-0.9146616399	-1.9178814453	 3.2364192934	 0.288605
H	-2.8432894333	 0.3068563575	 1.7268541866	 0.083232
73.1927	157.7824	191.7155	236.2231	268.752	288.3883	339.3638	433.1136	470.8855	555.9171	666.2325	731.1299	803.2908	859.2009	866.6858	905.5129	919.2479	927.8817	961.3509	1051.2156	1061.9153	1072.4783	1091.7265	1112.1923	1126.4977	1139.6562	1180.8881	1183.5979	1212.4771	1235.4247	1254.9323	1271.5323	1295.0428	1301.0066	1354.5173	1433.7012	1462.1438	1515.244	1522.3457	2962.2415	3023.4653	3031.854	3036.0483	3099.5376	3100.671	3106.5538	3820.9948	3831.041
OCC12CN3C1C(O)C23	OC[C@@]12CN3[C@@H]1[C@@H](O)[C@@H]23	
InChI=1S/C6H9NO2/c8-2-6-1-7-4(6)3(9)5(6)7/h3-5,8-9H,1-2H2	InChI=1S/C6H9NO2/c8-2-6-1-7-4(6)3(9)5(6)7/h3-5,8-9H,1-2H2/t3-,4-,5+,6+
