20
gdb 82805	2.95469	1.62462	1.59131	0.1782	77.76	-0.2067	0.0795	0.2862	970.3715	0.173605	-403.076386	-403.069205	-403.06826	-403.107561	29.928	
C	-0.0679641981	 1.5575423822	-0.0621578166	-0.430907
C	 0.0374716084	 0.0459395071	 0.0233171238	-0.045403
C	 1.3061702503	-0.7285669651	-0.2838929712	 0.052449
O	 2.5438156657	-0.0508368552	-0.2729035252	-0.275421
C	 3.1537547553	 0.0488958535	 1.017487982	 0.117181
C	 2.2276765992	 0.8012601724	 1.9930793145	-0.198433
N	 1.4952888528	-0.4993983156	 2.2256405739	-0.143193
C	 2.8271835666	-1.1703551359	 1.9075108067	-0.193199
C	 0.6584361753	-0.8595843815	 1.0782787264	-0.05183
H	 0.9074690022	 2.0246811841	-0.2134855719	 0.13789
H	-0.6861193619	 1.8225059181	-0.9257193353	 0.115469
H	-0.5375049047	 1.9997778605	 0.8221796897	 0.125067
H	-0.8406430217	-0.4481073942	-0.3878848899	 0.090566
H	 1.2915008329	-1.5240476046	-1.0237808191	 0.09024
H	 4.1834606897	 0.3677906305	 0.8415124143	 0.076215
H	 2.7335852979	 1.0821893816	 2.9219445683	 0.106663
H	 1.6408273376	 1.6405574844	 1.6339473292	 0.114868
H	 2.753097491	-2.1577753741	 1.4475356212	 0.110349
H	 3.4498227266	-1.2145748399	 2.8048360362	 0.108058
H	 0.0922362648	-1.7633474281	 1.2883213029	 0.09337
148.1016	191.4144	262.2227	300.387	421.3802	458.3998	478.6329	523.5455	633.4887	678.2601	732.3574	738.2496	821.9052	836.4481	843.9727	903.483	912.3381	940.5624	980.5454	1007.2249	1014.9906	1039.4059	1071.358	1090.9666	1127.5454	1133.9704	1142.7392	1158.0737	1183.8155	1231.9218	1238.3962	1251.2355	1296.4399	1300.47	1334.798	1365.08	1380.006	1415.04	1422.6362	1483.3674	1501.9926	1505.9105	1526.7079	3038.5903	3058.9309	3064.0639	3088.4946	3094.8625	3113.4543	3124.2682	3126.8377	3129.259	3142.2101	3192.8773
CC1C2OC3CN(C3)C12	C[C@H]1[C@H]2O[C@H]3CN(C3)[C@@H]12	
InChI=1S/C7H11NO/c1-4-6-7(4)9-5-2-8(6)3-5/h4-7H,2-3H2,1H3	InChI=1S/C7H11NO/c1-4-6-7(4)9-5-2-8(6)3-5/h4-7H,2-3H2,1H3/t4-,6+,7-/m1/s1
