17
gdb 16893	3.98251	1.94007	1.47343	1.6346	69.07	-0.2389	0.0347	0.2736	880.4411	0.143316	-363.869554	-363.86233	-363.861386	-363.901095	27.41	
C	 0.2676846689	 1.3941065856	 0.1489508963	-0.449691
C	-0.0841386218	-0.0545491873	-0.0234116332	 0.390014
N	 0.1251835641	-0.6696429093	-1.1097165253	-0.305657
C	-0.2659035845	-2.0625246435	-1.2705252621	-0.180384
C	-0.7657700965	-2.763891541	-0.0196628363	-0.07343
C	 0.1547550111	-2.9246210223	 1.1750411952	-0.317992
C	-0.953011732	-1.908644434	 1.1939782852	 0.110454
O	-0.6279277056	-0.5407889176	 1.1335109946	-0.257044
H	 0.9817397941	 1.5167311071	 0.9696951612	 0.135688
H	 0.6981850414	 1.7764159619	-0.7754628731	 0.143029
H	-0.6248030791	 1.9723832776	 0.4089154235	 0.136421
H	-1.057490571	-2.0907108412	-2.0309864872	 0.115541
H	 0.5844309375	-2.6024573046	-1.7081996089	 0.1099
H	-1.4979837818	-3.5480207679	-0.1852997444	 0.092622
H	 0.0560989299	-3.8056183437	 1.7993787831	 0.117222
H	 1.167041748	-2.5442304345	 1.0795404765	 0.127387
H	-1.8047569428	-2.0520210455	 1.8483553849	 0.10592
81.1062	135.4747	226.5851	294.9463	344.9417	398.1907	532.6745	553.9281	609.1921	718.6764	768.1807	820.8318	825.0003	922.223	932.4705	944.5468	1033.2747	1046.5756	1056.859	1075.7044	1087.5758	1126.5128	1149.0554	1190.2174	1230.8691	1244.2355	1276.4801	1362.3934	1368.335	1407.9795	1412.9997	1475.3116	1476.751	1480.8804	1492.5613	1761.1533	3010.2006	3032.3898	3047.2699	3103.8568	3130.3477	3152.3401	3167.3777	3179.0289	3220.8077
CC1=NCC2CC2O1	CC1=NC[C@H]2C[C@H]2O1	
InChI=1S/C6H9NO/c1-4-7-3-5-2-6(5)8-4/h5-6H,2-3H2,1H3	InChI=1S/C6H9NO/c1-4-7-3-5-2-6(5)8-4/h5-6H,2-3H2,1H3/t5-,6-/m1/s1
