18
gdb 52531	3.43962	0.87712	0.7699	3.7284	85.09	-0.2466	-0.0286	0.2181	1543.3056	0.145011	-401.926967	-401.916813	-401.915869	-401.964578	34.621	
C	 0.0192694026	 1.3167087611	 0.1175365805	-0.502957
C	 0.0844904388	-0.131228755	 0.014438693	 0.067239
C	 0.1265481212	-1.3332266124	-0.0717676642	 0.045315
C	 0.127195919	-2.7818681655	-0.141135621	 0.219275
O	-0.8491249133	-3.4584022494	 0.1142282427	-0.339183
N	 1.3194555105	-3.3211089306	-0.603824779	-0.080577
C	 2.6493892461	-3.0830403289	-0.0859238327	-0.25517
C	 2.020961142	-4.4517108655	-0.0326354967	 0.0163
C	 1.5789803135	-5.0543019196	 1.2795725299	-0.402506
H	 0.9448916893	 1.7866984969	-0.23069479	 0.155161
H	-0.8080522694	 1.7123635482	-0.4814561009	 0.162735
H	-0.1470741489	 1.625503599	 1.1553815705	 0.160177
H	 3.4155166316	-2.85538609	-0.8226046248	 0.124339
H	 2.7342090237	-2.535797937	 0.8504800026	 0.128416
H	 2.3527426763	-5.1725483391	-0.7788081216	 0.10353
H	 1.3579459064	-4.2803452193	 2.0198273001	 0.126489
H	 0.6739165996	-5.6521803749	 1.1458386709	 0.15224
H	 2.3696375713	-5.698133788	 1.6778636405	 0.119177
10.9907	53.5851	82.3956	152.2677	161.9301	192.3757	232.914	328.4533	368.0937	388.119	406.2273	507.368	543.8795	685.6238	771.2154	836.0468	862.7793	907.7213	1011.4847	1046.2426	1046.6178	1054.6973	1077.9828	1124.7159	1142.6911	1160.0309	1192.7785	1226.1809	1380.3804	1409.2188	1412.0205	1433.7203	1471.7567	1474.3996	1484.3202	1491.4114	1514.0469	1745.0712	2350.2449	3031.0397	3043.4981	3094.306	3097.1451	3100.6386	3106.5462	3119.6036	3128.8305	3188.9417
CC#CC(=O)N1CC1C	CC#CC(=O)N1C[C@H]1C	
InChI=1S/C7H9NO/c1-3-4-7(9)8-5-6(8)2/h6H,5H2,1-2H3	InChI=1S/C7H9NO/c1-3-4-7(9)8-5-6(8)2/h6H,5H2,1-2H3/t6-,8?/m1/s1
