21
gdb 106170	2.63909	1.52509	1.35033	1.6468	81.18	-0.2323	0.0861	0.3183	1085.2036	0.18413	-387.069722	-387.061685	-387.06074	-387.102369	31.626	
C	 0.0670973729	 1.5104273976	 0.1955809538	-0.371367
C	-0.0749043134	 0.002747831	-0.057325155	-0.328628
C	 0.66587844	-0.4586561312	-1.2786037413	 0.380477
C	 1.147900741	-1.8258765863	-1.752658153	-0.151327
C	 0.5552893725	-1.6017385871	-3.1451206757	-0.25088
C	 0.4099017157	-0.0909164266	-2.7692596275	 0.02724
O	 1.5163962463	 0.6801432042	-3.2128425551	-0.265354
C	 2.6763066206	 0.1321868664	-2.5724529603	-0.10363
C	 2.1377597344	-0.7130584494	-1.4242829874	-0.125794
H	 1.1139431065	 1.7839092942	 0.3618563338	 0.117944
H	-0.2925231013	 2.08961839	-0.6609499983	 0.124956
H	-0.5077915298	 1.8182210236	 1.0744440876	 0.109715
H	 0.2909236043	-0.5545018554	 0.8146186307	 0.097593
H	-1.1389629334	-0.2527158607	-0.1528031982	 0.097765
H	 1.1607635458	-2.7601829049	-1.2019865382	 0.080955
H	 1.1658177809	-1.8235866619	-4.0268989222	 0.095174
H	-0.4188579833	-2.088033559	-3.2498118006	 0.099431
H	-0.5071081264	 0.4235445721	-3.056104198	 0.079552
H	 3.2653117847	-0.4543008079	-3.2915287178	 0.096196
H	 3.302003834	 0.958917455	-2.2159169386	 0.10307
H	 2.7402161881	-0.8448548735	-0.5324624988	 0.086912
79.1377	120.7139	192.2807	234.3596	294.0293	344.5698	419.5777	469.3332	577.9978	678.8383	733.8891	750.6627	789.3285	828.9638	864.947	900.322	927.1101	935.0462	968.7275	982.482	1001.0175	1012.1992	1062.2054	1077.0161	1081.0224	1094.7325	1121.5635	1156.3174	1183.9007	1200.3929	1221.6693	1228.8708	1274.239	1304.7382	1311.1759	1336.316	1352.8025	1381.2741	1408.7261	1457.5458	1483.0057	1492.8321	1496.7756	1506.073	1526.5195	3000.436	3011.2145	3035.9428	3040.7057	3043.473	3048.3731	3094.304	3106.5634	3107.1873	3120.4823	3167.2833	3182.513
CCC12C3CC1OCC23	CC[C@@]12[C@H]3C[C@@H]1OC[C@@H]23	
InChI=1S/C8H12O/c1-2-8-5-3-7(8)9-4-6(5)8/h5-7H,2-4H2,1H3	InChI=1S/C8H12O/c1-2-8-5-3-7(8)9-4-6(5)8/h5-7H,2-4H2,1H3/t5-,6+,7-,8-/m0/s1
