13
gdb 44131	2.67696	1.6706	1.3516	6.4977	62.02	-0.2758	0.0073	0.2831	932.1854	0.090766	-452.781638	-452.774608	-452.773664	-452.813482	26.195	
O	 0.0306798224	-0.0152944272	-0.0312349166	-0.356018
C	-0.0247432137	 1.1729247724	 0.030171642	 0.480693
N	-1.1419929141	 1.9901776623	 0.1010811126	-0.359173
C	-0.8039592271	 3.3671272991	 0.0506241364	-0.04886
C	 0.6899180172	 3.333878732	 0.0390580327	 0.077549
O	 1.0928598502	 1.9962729448	 0.0493545996	-0.225976
C	-0.0381860629	 3.8720014306	-1.1933447072	-0.269019
C	-0.0859365548	 3.1444983523	-2.4244665405	 0.316507
N	-0.1464659733	 2.5512066679	-3.4154710157	-0.326895
H	-2.028350808	 1.6177846017	-0.1984793908	 0.281225
H	-1.3995389888	 4.0646367524	 0.6266138499	 0.13848
H	 1.3357279653	 3.9894327622	 0.6079102767	 0.143466
H	 0.0043303276	 4.9519500295	-1.2944874393	 0.148021
91.4183	134.8811	189.12	354.8075	405.1681	437.7856	501.8668	633.9173	650.2883	702.0649	753.606	763.1017	780.3979	800.7997	902.2779	950.0509	1012.5709	1016.3002	1078.5443	1108.7974	1151.689	1170.1814	1212.9377	1359.8013	1371.5098	1375.2025	1424.3089	1924.2918	2357.8867	3168.2767	3188.3382	3209.7571	3659.9047
O=C1NC2C(O1)C2C#N	O=C1N[C@H]2[C@@H](O1)[C@H]2C#N	
InChI=1S/C5H4N2O2/c6-1-2-3-4(2)9-5(8)7-3/h2-4H,(H,7,8)	InChI=1S/C5H4N2O2/c6-1-2-3-4(2)9-5(8)7-3/h2-4H,(H,7,8)/t2-,3+,4-/m0/s1
