15
gdb 46528	4.41154	1.19028	1.03646	4.7462	61.39	-0.2822	0.0221	0.3042	1104.1204	0.112861	-494.911052	-494.903604	-494.90266	-494.943878	27.472	
O	 0.0101914913	-0.0261968074	 0.2994126664	-0.347651
C	-0.0162424106	 1.0966079904	-0.0959928721	 0.452599
O	-1.0511192909	 1.9359533873	 0.1532442595	-0.239968
C	-1.2926559206	 2.9600536786	-0.8255217275	-0.157872
C	-0.0661612486	 3.8241856383	-1.0232635869	 0.376457
C	-0.0936642938	 4.9824040031	-1.9210567037	-0.23536
O	-0.0938839501	 5.148873695	-0.4971117428	-0.261338
C	 1.2010650549	 3.0470003068	-0.7099783358	-0.165367
O	 0.9867793061	 1.6331776306	-0.837428766	-0.239613
H	-1.5899393836	 2.4849877404	-1.7678279965	 0.132878
H	-2.1234563983	 3.5558539213	-0.4451483973	 0.148955
H	 0.8185268549	 5.2888845584	-2.4310186972	 0.126729
H	-1.0200055979	 5.2615255988	-2.4226315276	 0.12598
H	 2.0217432218	 3.2833762525	-1.3883261763	 0.137772
H	 1.5132331654	 3.2812596459	 0.3142359437	 0.145797
35.7614	156.5341	219.0505	311.6728	345.3852	364.7658	402.2813	470.1115	596.2419	688.6689	802.8355	805.4172	834.8356	837.6404	919.6442	947.9202	1013.9871	1042.7831	1094.7864	1125.2988	1133.321	1153.6899	1173.6176	1263.863	1276.2706	1298.0697	1355.5909	1399.7668	1447.5312	1491.3164	1500.4234	1533.9561	1900.1575	3039.5496	3046.6344	3081.3646	3127.4255	3132.9446	3169.091
O=C1OCC2(CO2)CO1	O=C1OCC2(CO2)CO1	
InChI=1S/C5H6O4/c6-4-7-1-5(2-8-4)3-9-5/h1-3H2	InChI=1S/C5H6O4/c6-4-7-1-5(2-8-4)3-9-5/h1-3H2
