21
gdb 98181	3.01111	0.95941	0.87567	2.5252	75.02	-0.2386	-0.0092	0.2295	1409.8625	0.178209	-461.364584	-461.353307	-461.352363	-461.400938	40.232	
C	-0.1185625069	 1.5824987546	-0.0418274573	-0.420185
C	-0.0043455115	 0.0388507194	-0.0107685755	 0.137005
C	 0.8078824442	-0.4042915832	 1.2224483136	-0.43482
C	-1.4155698445	-0.5733491297	 0.0447441533	-0.086448
O	-2.0391388874	-0.143374513	 1.2488686356	-0.432594
C	 0.6500308282	-0.4159531425	-1.3269325494	 0.362113
O	-0.0003002334	-0.8470337768	-2.2482853883	-0.300204
C	 2.1702609937	-0.283619273	-1.4358967977	-0.181901
O	 2.5589439875	-0.4985409221	-2.7682250237	-0.39541
H	 0.8637536688	 2.0628470003	-0.0124576705	 0.110464
H	-0.6369674532	 1.9183688736	-0.9454607246	 0.126383
H	-0.6925432067	 1.9162017556	 0.8255754566	 0.142777
H	 0.2591507632	-0.1370750244	 2.128027929	 0.144336
H	 0.9607330056	-1.4890488858	 1.23256783	 0.11509
H	 1.787451078	 0.0803677409	 1.2642505366	 0.111179
H	-1.9820939677	-0.2561889049	-0.8385241464	 0.107977
H	-1.3388739995	-1.6703538534	 0.0074180589	 0.090646
H	-2.9446884566	-0.4646423675	 1.2455460604	 0.290369
H	 2.4694360131	 0.7093655753	-1.0622454492	 0.107671
H	 2.6125416807	-1.021294434	-0.7450636343	 0.114248
H	 3.5194310545	-0.4715364894	-2.8029984971	 0.291305
45.8081	91.7874	128.9878	172.7704	202.7152	228.1611	235.7107	256.4739	262.562	279.0266	315.7917	346.7338	360.4377	368.6215	490.6994	584.7955	652.2082	757.6242	830.1244	933.4321	963.4306	968.1435	992.9582	1003.9096	1058.6153	1089.1572	1144.2324	1181.383	1197.0253	1232.7375	1259.0965	1272.0561	1286.8795	1293.2299	1390.5021	1410.6202	1441.7261	1453.8571	1479.3972	1491.0591	1496.6706	1499.8288	1514.1892	1520.0424	1810.9022	2963.3545	2988.2514	2991.4789	3037.123	3042.1877	3052.5352	3103.8752	3110.903	3128.6899	3131.6292	3836.3804	3842.1524
CC(C)(CO)C(=O)CO	CC(C)(CO)C(=O)CO	
InChI=1S/C6H12O3/c1-6(2,4-8)5(9)3-7/h7-8H,3-4H2,1-2H3	InChI=1S/C6H12O3/c1-6(2,4-8)5(9)3-7/h7-8H,3-4H2,1-2H3
