16
gdb 79128	5.28818	1.2329	1.13803	3.2104	70.19	-0.2552	0.0223	0.2776	1050.1688	0.126266	-437.847795	-437.841064	-437.840119	-437.87875	27.225	
O	-0.0648307597	 1.440111425	-0.064801632	-0.442883
C	 0.0148823894	 0.0383767819	 0.0046487308	 0.113554
C	 0.026339711	-0.6395046248	 1.3980322411	-0.129708
C	-1.4691735807	-0.2433872829	 1.5689656816	 0.114431
O	-2.1526518839	-1.2725268553	 2.2988341688	-0.264565
C	-1.6104683086	-2.4197658007	 1.7610235825	 0.429438
N	-1.8829171779	-3.609496865	 2.0723632326	-0.561408
C	-0.6400805058	-1.9052537844	 0.7417493543	-0.144651
C	-1.347124135	-0.6656514951	 0.0750947818	-0.098085
H	 0.8262221629	 1.8001678895	-0.0201406656	 0.28885
H	 0.7233964239	-0.3719884382	-0.7250788999	 0.078768
H	 0.8053450325	-0.6398918283	 2.1610608103	 0.08741
H	-1.7942098738	 0.741754254	 1.8844118519	 0.11367
H	-2.5903397676	-3.6351599759	 2.8090997826	 0.224961
H	-0.0665676515	-2.6200069264	 0.1582518378	 0.096972
H	-2.1366004253	-0.6913337433	-0.6754034185	 0.093247
151.2277	200.009	275.9512	347.6592	401.468	440.1262	540.9577	651.2847	692.8192	742.4216	791.4465	836.3217	885.7926	886.8937	894.5928	929.1016	936.0417	963.2244	1013.9988	1030.1302	1062.7594	1106.1171	1109.1447	1124.133	1151.3159	1178.93	1199.8128	1215.1668	1237.3842	1262.8048	1288.43	1324.797	1366.9723	1443.8862	1804.984	3032.0755	3114.7153	3126.2596	3169.3636	3196.526	3471.1036	3826.294
OC1C2C3OC(=N)C2C13	O[C@H]1[C@H]2[C@@H]3O[C]([NH])[C@H]2[C@H]13	
InChI=1S/C6H7NO2/c7-6-1-2-4(8)3(1)5(2)9-6/h1-5,7-8H	InChI=1S/C6H7NO2/c7-6-1-2-4(8)3(1)5(2)9-6/h1-5,7-8H/t1-,2+,3-,4+,5+
