19
gdb 74611	3.39304	1.53094	1.28749	1.5066	80.83	-0.2119	0.0244	0.2363	1038.7779	0.160879	-385.868885	-385.861678	-385.860734	-385.900185	29.581	
C	-0.1261084831	 1.5674320575	 0.0531577095	-0.475878
C	 0.0099259434	 0.0728719302	-0.012084532	 0.297378
C	 0.0111068723	-0.6046311887	-1.1651852828	-0.130956
C	 0.1185835276	-2.080815749	-1.238685875	-0.107982
C	 1.2798623383	-2.8647488421	-0.6251547472	 0.091631
O	 1.8884008406	-2.1446436841	 0.4359784478	-0.297007
C	 0.602254007	-2.0884941106	 1.1379045021	 0.090973
C	 0.1578546986	-0.6460901225	 1.3139322379	-0.309159
C	-0.0714247772	-2.9000712516	 0.0198648355	-0.179879
H	 0.756177787	 2.0278050374	 0.517159511	 0.123626
H	-0.2545823694	 2.0051961711	-0.940567335	 0.118679
H	-0.9873427492	 1.8615871015	 0.6682394309	 0.118047
H	-0.07102742	-0.0653156637	-2.1054765055	 0.077179
H	-0.2718522234	-2.5510413197	-2.1370352702	 0.087024
H	 1.8706916104	-3.6058916082	-1.1512532606	 0.10318
H	 0.6763225025	-2.6230830658	 2.0901366722	 0.080783
H	 0.9076539443	-0.1288393578	 1.9284034492	 0.113992
H	-0.779491929	-0.6042873873	 1.8904083852	 0.103687
H	-0.7999181207	-3.6895176365	 0.1441658172	 0.094681
128.5249	192.6701	279.9655	325.2056	353.4364	420.2496	466.3669	519.3973	648.7044	723.0582	752.2871	772.6453	785.9729	843.1452	869.831	892.3664	915.6291	957.5438	991.9817	1014.9156	1024.9408	1029.8036	1052.2161	1058.9839	1072.2084	1119.5081	1143.5842	1185.614	1201.493	1249.737	1284.4657	1320.3101	1331.2803	1357.5192	1400.4354	1413.6024	1424.9228	1458.8676	1478.388	1491.6015	1729.5081	2991.6957	3009.5801	3029.3463	3053.0179	3057.0847	3107.8519	3146.5787	3159.671	3177.5938	3202.4156
CC1=CC2C3OC(C1)C23	CC1=C[C@H]2[C@H]3O[C@@H](C1)[C@@H]23	
InChI=1S/C8H10O/c1-4-2-5-7-6(3-4)9-8(5)7/h2,5-8H,3H2,1H3	InChI=1S/C8H10O/c1-4-2-5-7-6(3-4)9-8(5)7/h2,5-8H,3H2,1H3/t5-,6+,7-,8-/m1/s1
