17
gdb 17971	2.77121	2.53818	1.53059	1.8529	65.24	-0.2524	0.0053	0.2576	840.9667	0.144274	-400.993101	-400.986103	-400.985159	-401.024122	26.744	
C	-0.0445917046	 1.5114007973	 0.0034482489	-0.191185
C	 1.3252688881	 2.1982912067	-0.0310815895	-0.072872
O	 2.0007564097	 2.059910738	-1.2838098346	-0.220978
C	 2.9809088554	 1.0802533045	-1.3296593412	-0.008418
O	 2.4853241997	-0.2123038092	-0.9966301378	-0.227821
C	 1.4002331288	-0.6143124699	-1.7436274274	 0.100913
N	 0.211813305	-0.5900090489	-1.3380123909	-0.202301
C	-0.0478272566	-0.0284193935	-0.0078631156	-0.154503
H	-0.5453066319	 1.8460764255	 0.9212812825	 0.099629
H	-0.6436958173	 1.878629091	-0.8372755856	 0.120125
H	 1.1832288176	 3.2748613204	 0.1141428046	 0.110117
H	 1.963414641	 1.8302014166	 0.7843794192	 0.10095
H	 3.377149551	 1.1002500579	-2.3530908055	 0.111586
H	 3.7854631669	 1.2515644686	-0.602062584	 0.108564
H	 1.6487755879	-0.9917937366	-2.7379864903	 0.114913
H	 0.6746542048	-0.4015886194	 0.7294582195	 0.108041
H	-1.0401045855	-0.3746891389	 0.2950462979	 0.103242
146.4755	192.8253	222.1586	290.3533	332.3103	390.9577	463.9733	541.4234	630.249	708.91	773.4482	897.5296	908.3958	920.5501	939.3578	998.3569	1024.1805	1054.8718	1067.4349	1128.2917	1167.9213	1180.6333	1242.317	1284.2686	1301.8689	1327.0754	1371.9831	1384.6754	1391.8469	1412.1722	1440.9228	1463.1582	1490.5432	1502.6832	1511.9213	1754.5914	3005.3723	3010.6229	3021.2542	3028.5797	3060.6472	3068.1098	3077.5546	3083.6736	3112.5703
C1COCOC=NC1	C1COCOC=NC1	
InChI=1S/C5H9NO2/c1-2-6-4-8-5-7-3-1/h4H,1-3,5H2/b6-4-	InChI=1S/C5H9NO2/c1-2-6-4-8-5-7-3-1/h4H,1-3,5H2/b6-4-
