15
gdb 54515	3.31515	1.49899	1.17798	5.8979	65.69	-0.2393	0.0003	0.2396	1005.0972	0.114179	-453.980679	-453.973278	-453.972334	-454.01266	28.268	
O	 0.0931066822	 0.5895171273	-1.1878681528	-0.381188
C	-0.1260345605	 1.2860847373	-0.061321311	 0.390615
O	 0.6686301427	 1.3399886416	 0.8412020816	-0.35909
C	-1.454993082	 1.9751810223	-0.0416260351	 0.175821
C	-1.6103886513	 3.2629340367	 0.7454153401	-0.319346
C	-2.3646147159	 2.0637437036	 1.2149144067	-0.054916
N	-3.6702606636	 1.8899257131	 0.6359418646	-0.280394
C	-3.5248439447	 1.6862890467	-0.711630979	 0.041317
N	-2.3201483384	 1.7322363293	-1.1670186787	-0.338177
H	-0.6956348387	 0.7110772963	-1.7504296309	 0.31053
H	-0.735605335	 3.5279962159	 1.3273046466	 0.15296
H	-2.1550176558	 4.077559444	 0.280433886	 0.125086
H	-2.1529535933	 1.5809561584	 2.1608404862	 0.130756
H	-4.4515667598	 1.5309438281	 1.1587748849	 0.263248
H	-4.3982949157	 1.5186425994	-1.3321615792	 0.14278
88.7855	168.6909	206.7562	283.6218	335.844	437.4241	446.7889	502.2319	612.7765	687.0812	713.8392	721.5637	763.5687	829.7813	871.7671	916.0456	941.8055	964.2771	999.1582	1057.2782	1073.5508	1085.9238	1146.8001	1181.9509	1236.9645	1285.0684	1335.3164	1368.5942	1421.845	1437.6896	1468.1617	1632.6556	1860.5009	3136.6323	3194.5308	3206.7224	3240.7808	3599.8406	3656.2577
[O-]C(=O)C12CC1NC=[NH+]2	OC(=O)[C@]12C[C@H]1NC=N2	
InChI=1S/C5H6N2O2/c8-4(9)5-1-3(5)6-2-7-5/h2-3H,1H2,(H,6,7)(H,8,9)	InChI=1S/C5H6N2O2/c8-4(9)5-1-3(5)6-2-7-5/h2-3H,1H2,(H,6,7)(H,8,9)/t3-,5+/m1/s1
