16
gdb 67491	2.55639	1.69006	1.28622	6.1291	73.11	-0.2528	0.0184	0.2712	1007.2839	0.123228	-400.679739	-400.671983	-400.671039	-400.71176	29.804	
C	 0.0065746693	 1.5261821265	 0.0102478381	-0.499719
C	-0.0184826351	 0.0267367142	 0.0407588671	 0.276632
C	-1.3542693149	-0.7903543203	 0.1288245194	-0.03868
O	-1.1171418463	-2.1538509633	-0.2238444026	-0.215517
C	-0.7614830081	-1.7152084497	 1.089232847	 0.024698
C	 0.5989953098	-0.9593411519	 1.0284462778	-0.169446
C	 1.1492278718	-0.8436899493	-0.3822765251	-0.214136
C	 1.1861817189	-1.8600763526	-1.4054087289	 0.30832
N	 1.3406171242	-2.6211283963	-2.2625950358	-0.360275
H	 1.0103961295	 1.9109831584	 0.2142042669	 0.129817
H	-0.3073063654	 1.90643482	-0.9686356534	 0.138616
H	-0.6701490512	 1.9443427443	 0.7640147098	 0.129578
H	-2.3564463706	-0.3968370818	 0.0101907169	 0.119404
H	-1.1713048986	-2.2512569022	 1.9353627898	 0.123932
H	 1.2227339579	-0.7588818006	 1.8900238822	 0.108489
H	 2.0722126388	-0.2662081754	-0.3848628693	 0.138288
127.8625	167.16	208.6939	225.7143	281.8124	350.643	412.0928	479.4087	546.6165	627.9454	677.8421	766.0827	774.6468	832.4864	871.1314	876.1273	912.7956	933.6932	952.7652	993.6231	1029.6883	1049.1479	1106.1424	1115.8658	1184.582	1217.7885	1250.2684	1271.9618	1314.1304	1374.6311	1418.3217	1453.2266	1483.7114	1497.1895	2352.7922	3026.6879	3087.6754	3104.7734	3130.4859	3191.7457	3199.3886	3211.5419
CC12C3OC3C1C2C#N	C[C@]12[C@H]3O[C@H]3[C@H]1[C@H]2C#N	
InChI=1S/C7H7NO/c1-7-3(2-8)4(7)5-6(7)9-5/h3-6H,1H3	InChI=1S/C7H7NO/c1-7-3(2-8)4(7)5-6(7)9-5/h3-6H,1H3/t3-,4-,5+,6+,7-/m1/s1
