23
gdb 58235	2.15908	1.32951	1.16075	2.2453	81.04	-0.2472	0.0583	0.3055	1238.4248	0.203593	-425.416863	-425.406559	-425.405615	-425.451367	39.92	
C	 0.2184644207	 1.5759400276	 0.0990947687	-0.407055
C	 0.0413386513	 0.0576408398	 0.0052245941	 0.147517
O	-1.318467023	-0.3093657769	 0.2058166669	-0.448535
C	 0.6200779992	-0.5704460157	-1.2916838468	-0.064744
C	 0.5272588138	-2.1035856969	-1.2269831068	-0.415021
C	-0.0350564362	-0.0333439328	-2.5610409782	 0.416637
O	-1.449319176	-0.1564596866	-2.5971817302	-0.474441
C	 0.4663261634	 1.2024353767	-3.2442308418	-0.299883
C	 0.6706109627	-0.1549419449	-3.8877316805	-0.331877
H	 1.2729616894	 1.8632112647	 0.0185826293	 0.101235
H	-0.336806247	 2.091781687	-0.6898869379	 0.122952
H	-0.1609819445	 1.9261861535	 1.0628714226	 0.119951
H	 0.5823062624	-0.4000382786	 0.8440696929	 0.073156
H	-1.7821339395	-0.0600723201	-0.605898507	 0.28118
H	 1.6807313748	-0.2904765356	-1.3426409631	 0.07079
H	 1.0988139482	-2.4909405469	-0.3778789504	 0.116839
H	-0.5091441145	-2.4234059654	-1.0832964197	 0.121587
H	 0.9192533095	-2.5657661899	-2.1383127751	 0.108318
H	-1.6593633629	-1.0887142739	-2.7264951289	 0.289894
H	-0.2809990263	 1.8530936087	-3.6834202414	 0.124575
H	 1.3269048408	 1.7109639268	-2.8256731293	 0.117947
H	 1.6703223265	-0.5759356089	-3.9072721166	 0.11453
H	 0.059109027	-0.3887798416	-4.7521700007	 0.11445
71.6457	118.9781	185.6703	215.1451	238.2203	255.8242	261.8547	309.4435	311.2674	342.1096	390.3591	422.6157	482.9525	544.5848	585.8864	621.5459	731.2914	775.7064	808.3651	900.1578	911.1475	932.8434	937.44	976.625	991.8097	1025.8237	1045.1601	1055.938	1078.8929	1086.7689	1133.5041	1170.2444	1189.7708	1229.5649	1285.1586	1292.8637	1315.5748	1352.0966	1370.1222	1401.7212	1402.3829	1406.8902	1452.574	1457.2321	1490.7795	1492.9682	1497.0782	1501.6748	1508.7418	3014.2975	3022.4722	3034.8476	3037.4828	3104.4545	3105.4653	3111.8596	3119.3307	3130.8046	3141.984	3216.7121	3234.3577	3732.7854	3793.1465
CC(O)C(C)C1(O)CC1	C[C@@H](O)[C@@H](C)C1(O)CC1	
InChI=1S/C7H14O2/c1-5(6(2)8)7(9)3-4-7/h5-6,8-9H,3-4H2,1-2H3	InChI=1S/C7H14O2/c1-5(6(2)8)7(9)3-4-7/h5-6,8-9H,3-4H2,1-2H3/t5-,6-/m1/s1
