22
gdb 90891	2.36944	1.89495	1.37905	1.917	83.84	-0.2199	0.0767	0.2967	1043.6318	0.195744	-367.187287	-367.179216	-367.178272	-367.219125	33.18	
C	-0.0995859512	 1.5706588819	-0.0082985061	-0.420114
C	 0.0391229027	 0.048373901	 0.0071689949	 0.008895
C	 0.8546780976	-0.5331343563	-1.1807821617	-0.268263
C	 1.5274075931	-1.7696707236	-0.5989459047	-0.018407
C	 1.1133291901	-1.9969772548	 0.7982005626	-0.103511
N	 2.5371378038	-1.6137380857	 0.4933180026	-0.152913
C	 2.2837092585	-0.2866941461	 1.1469039602	-0.200405
C	 0.753814181	-0.5504968717	 1.2427365233	 0.31128
C	 0.0755462456	-0.3293038637	 2.5794782618	-0.501918
H	 0.877189396	 2.063537487	 0.0539984135	 0.116748
H	-0.5783449712	 1.907413467	-0.9336493712	 0.115801
H	-0.709791649	 1.9296992145	 0.8265845651	 0.115245
H	-0.9673112125	-0.3933580839	-0.0227605177	 0.067958
H	 0.2134309429	-0.8002687987	-2.026277527	 0.101023
H	 1.5904558513	 0.1869724919	-1.5591259115	 0.102609
H	 1.7691813533	-2.6063778142	-1.2457599164	 0.09209
H	 0.8399465003	-2.936512133	 1.2661232215	 0.08422
H	 2.776671211	-0.2874664121	 2.122868703	 0.104224
H	 2.6309149799	 0.5843108754	 0.5791963613	 0.093272
H	 0.0437336253	 0.7343867768	 2.8392441034	 0.11964
H	-0.9570389845	-0.6981726979	 2.565507008	 0.114382
H	 0.605890426	-0.8498174239	 3.3837288152	 0.118142
147.8726	218.7147	227.6872	252.1113	299.9738	312.1507	368.9847	440.3334	502.6414	533.578	618.4135	701.5888	746.4062	785.6858	801.9603	865.6422	888.7337	918.668	931.8166	964.4592	984.1079	988.1371	1025.9539	1044.1303	1070.1781	1107.3515	1127.4745	1159.9817	1169.0611	1181.9432	1221.257	1239.0754	1253.957	1279.7971	1301.1387	1307.8104	1355.2208	1368.2106	1392.835	1409.4316	1415.2765	1487.5274	1491.1577	1493.8418	1497.7403	1503.1142	1515.5158	2997.2591	3023.2059	3028.901	3029.7199	3038.5439	3078.5655	3086.6696	3089.9015	3095.5797	3096.4222	3101.2052	3162.6732	3174.4667
CC1CC2C3N2CC13C	C[C@H]1C[C@@H]2[C@H]3N2C[C@@]13C	
InChI=1S/C8H13N/c1-5-3-6-7-8(5,2)4-9(6)7/h5-7H,3-4H2,1-2H3	InChI=1S/C8H13N/c1-5-3-6-7-8(5,2)4-9(6)7/h5-7H,3-4H2,1-2H3/t5-,6+,7+,8-,9?/m0/s1
