19
gdb 96471	2.22833	1.86517	1.30265	3.2999	70.37	-0.2525	0.0713	0.3238	1018.8235	0.160791	-460.133975	-460.126204	-460.12526	-460.165997	30.867	
O	 0.2411187492	 1.2997825297	-0.3376373004	-0.420608
C	 0.0152375152	-0.0633812701	-0.0665336755	 0.069073
C	 0.7325751377	-0.4600023304	 1.2380728208	-0.120165
O	 0.5423685562	 0.5287564675	 2.2418047373	-0.259209
C	-0.7024428165	 0.5143628039	 2.9346079876	-0.07402
C	-1.8802618578	 1.059336577	 2.1156860605	-0.256572
C	-2.3693134601	 0.0835922881	 1.0589029228	 0.043515
O	-2.4581068864	 0.5383738942	-0.2953588094	-0.237958
C	-1.4743177341	-0.4383984441	 0.0155100766	 0.046506
H	 0.4098085022	 1.7180441636	 0.5171475115	 0.289469
H	 0.4536335832	-0.6367409481	-0.8940088502	 0.08319
H	 0.4000304693	-1.4485561211	 1.5886441684	 0.09752
H	 1.8132253878	-0.4946653038	 1.0692751725	 0.118689
H	-0.9190709674	-0.5065097976	 3.2869966621	 0.096162
H	-0.541325861	 1.1431238849	 3.8158307037	 0.114503
H	-2.6998921182	 1.3014175553	 2.8023918219	 0.104652
H	-1.5837386702	 1.9931660357	 1.628827096	 0.128891
H	-3.204859006	-0.5499254786	 1.3620026871	 0.089881
H	-1.690764783	-1.4345347361	-0.3781989936	 0.086481
105.5756	191.276	235.8959	286.727	327.1805	379.5999	404.8023	460.6696	481.5542	519.5497	618.2211	735.4509	762.5066	787.6618	857.0561	898.8254	951.0353	959.1043	968.9065	1043.2324	1049.3265	1087.7204	1111.5521	1122.0532	1142.3561	1174.8996	1217.3223	1250.2012	1289.7303	1302.2139	1326.8158	1356.4482	1376.129	1382.0196	1404.0537	1413.2349	1435.0039	1474.4968	1482.75	1484.2741	1498.9358	2984.7111	2997.3997	3019.5068	3040.1867	3073.5572	3079.6321	3085.1088	3087.9523	3102.6369	3752.0555
OC1COCCC2OC12	O[C@H]1COCC[C@H]2O[C@@H]12	
InChI=1S/C6H10O3/c7-4-3-8-2-1-5-6(4)9-5/h4-7H,1-3H2	InChI=1S/C6H10O3/c7-4-3-8-2-1-5-6(4)9-5/h4-7H,1-3H2/t4-,5+,6-/m0/s1
