21
gdb 87763	3.59839	1.15181	1.00912	1.7265	83.62	-0.2336	0.075	0.3086	1255.7814	0.18133	-387.04495	-387.035938	-387.034993	-387.078307	35.121	
C	-0.0136623383	 1.5040746368	 0.1091849752	-0.493694
C	 0.0914737979	 0.0082989187	 0.0356567169	 0.374172
C	-0.7577394664	-0.917996693	 0.862582356	-0.334957
C	 0.7460642198	-0.9867288542	 1.0057914526	-0.181417
C	 1.3193584951	-1.7502154801	-0.1687162252	 0.358048
C	 2.6920653725	-2.358922556	-0.2519504867	-0.387554
C	 1.4718339022	-3.2415983437	-0.2507545008	 0.038558
O	 1.2633080461	-4.0019746091	 0.9054835075	-0.42261
C	 0.6771727859	-0.7635985313	-1.1648248064	-0.383221
H	 0.927096842	 1.9857044404	-0.1814551885	 0.116849
H	-0.7981308131	 1.8809551412	-0.5589229575	 0.118821
H	-0.2593681694	 1.834986693	 1.1237678545	 0.116735
H	-1.2812039618	-0.447497886	 1.6897419831	 0.10789
H	-1.3071315046	-1.7351478945	 0.3976632727	 0.095097
H	 1.2462382509	-0.7964684028	 1.9482044916	 0.08698
H	 3.254081476	-2.2532595879	-1.1748428408	 0.108621
H	 3.2920350171	-2.3723688496	 0.6523051813	 0.121352
H	 1.2044876346	-3.7380214578	-1.1848705381	 0.078884
H	 0.3464513864	-3.8800884116	 1.1745236285	 0.288332
H	-0.045604797	-1.1696004621	-1.8823780291	 0.090312
H	 1.4258300839	-0.1805370005	-1.7099731469	 0.1028
82.991	129.8785	193.3635	206.3254	236.7922	301.3701	326.5862	385.3158	411.7148	446.181	470.0197	610.6873	663.3042	784.717	809.194	818.8855	876.4163	890.5377	933.1126	954.1084	960.3747	994.0748	1025.1533	1028.2797	1036.7049	1075.0536	1088.3035	1107.7318	1128.5014	1159.487	1167.1212	1206.3855	1222.3692	1246.0844	1282.8994	1311.8245	1357.033	1390.6276	1419.8377	1423.5444	1479.2137	1482.0494	1487.0562	1497.9177	1505.363	3017.8496	3028.0521	3075.5848	3083.0639	3085.4591	3092.7132	3094.2048	3122.8644	3176.6656	3189.7302	3212.9009	3801.1556
CC12CC1C1(CC1O)C2	C[C@]12C[C@H]1[C@]1(C[C@H]1O)C2	
InChI=1S/C8H12O/c1-7-2-5(7)8(4-7)3-6(8)9/h5-6,9H,2-4H2,1H3	InChI=1S/C8H12O/c1-7-2-5(7)8(4-7)3-6(8)9/h5-6,9H,2-4H2,1H3/t5-,6-,7-,8+/m1/s1
