21
gdb 72395	2.90126	1.53695	1.45996	1.3491	82.25	-0.2409	0.0165	0.2574	1047.4777	0.182726	-387.110592	-387.102373	-387.101429	-387.142457	33.742	
C	 0.0407288175	 1.4787625003	 0.1097162817	-0.488802
C	-0.0195877047	-0.0261596909	-0.0010762513	 0.34495
C	 0.6994518151	-0.6762523802	-1.2361273707	-0.24276
C	 0.9711758673	-2.1095193311	-0.7074851555	-0.242725
C	 0.3587504689	-2.0240861151	 0.7356129294	 0.345027
C	 0.8883546693	-2.9984473588	 1.7607231797	-0.488799
O	 0.6824711095	-0.666149439	 1.0773911161	-0.3022
C	-1.1557568273	-1.9338068851	 0.5372393792	-0.122105
C	-1.3886444038	-0.7040610198	 0.0843036519	-0.121943
H	 1.0797330127	 1.8213009932	 0.1123106159	 0.124043
H	-0.4723425986	 1.9458975319	-0.7368811919	 0.116247
H	-0.4375002829	 1.8180170094	 1.0329351311	 0.127392
H	 0.0862515023	-0.6492488622	-2.1401644787	 0.095126
H	 1.6323346459	-0.1431730152	-1.4398876494	 0.099093
H	 0.5123390181	-2.8959943552	-1.311591939	 0.095113
H	 2.0436093315	-2.3125745569	-0.6394756848	 0.099099
H	 1.9741455232	-2.9030848204	 1.8547152875	 0.124049
H	 0.4387886712	-2.8117688965	 2.7400953583	 0.127392
H	 0.6586374056	-4.0272101307	 1.4656601713	 0.116247
H	-1.8466207567	-2.7596554633	 0.6485940319	 0.097785
H	-2.3174441442	-0.2734062343	-0.2672400226	 0.097774
196.3696	197.4684	215.1778	231.4769	270.416	326.0402	386.3603	387.0173	491.7935	590.9422	609.0818	639.4234	704.311	729.8545	790.8061	842.3283	858.9784	882.0645	884.9721	889.1853	914.049	930.1409	972.0607	1003.0615	1060.3003	1093.5865	1133.0032	1146.3728	1171.7908	1214.4805	1227.1849	1244.7206	1260.6795	1291.2165	1350.9861	1353.6188	1411.1814	1418.3871	1476.2768	1481.7138	1485.8071	1496.0053	1496.2733	1500.3332	1649.6129	3040.2694	3040.6712	3053.2566	3064.0218	3097.4183	3111.1546	3111.9217	3115.0138	3117.116	3117.8013	3202.6474	3229.3298
CC12CCC(C)(O1)C=C2	C[C@@]12CC[C@@](C)(O1)C=C2	
InChI=1S/C8H12O/c1-7-3-5-8(2,9-7)6-4-7/h3,5H,4,6H2,1-2H3	InChI=1S/C8H12O/c1-7-3-5-8(2,9-7)6-4-7/h3,5H,4,6H2,1-2H3/t7-,8+
