16
gdb 70223	3.72195	1.35193	1.16563	4.7707	66.5	-0.2436	0.0397	0.2833	1044.3551	0.124487	-475.00788	-475.000192	-474.999248	-475.040069	29.833	
O	 0.0656086696	 1.4199047272	-0.2674005975	-0.458775
C	 0.0297499015	 0.0421037013	-0.0647817794	 0.331749
C	-0.48623041	-0.8947722992	-1.1408334313	-0.39271
C	-1.2949423022	-0.6066794133	 0.1053689248	 0.083751
O	-1.4621184513	-1.5567250571	 1.1312710246	-0.229111
C	-0.4118593301	-2.293815813	 1.5546760902	 0.455664
N	-0.6240179976	-3.3303022982	 2.2396553955	-0.545658
O	 0.8346001635	-1.8818888976	 1.1778372462	-0.261376
C	 1.05676807	-0.4929073539	 0.9100262847	-0.157016
H	 0.7555049121	 1.613032263	-0.9127487579	 0.290709
H	-0.8526524951	-0.4423543713	-2.0555552683	 0.128683
H	-0.0160470226	-1.8651098394	-1.2516160507	 0.144062
H	-2.1967117152	-0.0155275307	 0.0133957404	 0.132288
H	 0.2648679821	-3.7307441426	 2.5315491621	 0.228101
H	 2.076025375	-0.434201745	 0.5164135253	 0.119751
H	 1.0067210605	 0.0899219998	 1.8390424913	 0.129889
70.9424	195.6183	239.8618	304.5494	344.8188	355.2603	406.3677	450.034	504.8787	570.2685	692.823	724.1228	749.5875	785.5855	830.3732	903.5546	912.9992	932.6425	1006.3721	1024.914	1044.0529	1082.1043	1106.4423	1118.2037	1201.6558	1232.9549	1273.1191	1280.0542	1314.4252	1358.9163	1414.3564	1421.366	1491.2912	1515.7538	1766.3779	3024.9125	3085.9674	3141.2665	3207.7138	3237.4396	3530.2661	3789.4625
OC12CC1OC(=N)OC2	O[C@]12C[C@H]1O[C]([NH])OC2	
InChI=1S/C5H7NO3/c6-4-8-2-5(7)1-3(5)9-4/h3,6-7H,1-2H2	InChI=1S/C5H7NO3/c6-4-8-2-5(7)1-3(5)9-4/h3,6-7H,1-2H2/t3-,5+/m1/s1
