21
gdb 102881	3.11231	0.74847	0.63182	0.858	91.29	-0.2548	0.0454	0.3002	1792.304	0.178876	-349.897564	-349.886676	-349.885732	-349.933943	39.494	
C	 0.7925492273	-0.2529375551	-1.3400149557	-0.391071
C	-0.0163943765	-0.0928339469	-0.0519125297	-0.180375
C	 0.7046281217	-0.6230566726	 1.2104421476	-0.14803
C	-0.1078685133	-0.3046328932	 2.4858750341	-0.184895
C	 0.6142786536	-0.705607598	 3.7866469411	-0.366854
C	-0.1589282353	-0.3833877159	 4.9792429171	 0.292148
C	-0.8174104559	-0.1072349428	 5.9463060624	-0.436701
C	 0.9819942779	-2.055673317	 1.1028606289	 0.35514
C	 1.1837095426	-3.2385250119	 1.0166323434	-0.495245
H	 1.0226650384	-1.3049412219	-1.5313291324	 0.132729
H	 0.2373872608	 0.1352709268	-2.199161997	 0.114029
H	 1.7414262086	 0.2921995505	-1.2825883721	 0.113169
H	-0.2443325864	 0.9668332177	 0.114654555	 0.09738
H	-0.9784118269	-0.6101613	-0.1473049369	 0.107385
H	 1.6694257581	-0.0984105499	 1.2867686594	 0.101569
H	-0.3158853664	 0.7704438116	 2.505991744	 0.108791
H	-1.0747109705	-0.816686082	 2.4376136056	 0.118346
H	 0.829801552	-1.7803886959	 3.7629159541	 0.145893
H	 1.5882066858	-0.2000961692	 3.83509404	 0.126215
H	-1.3893072537	 0.1300587588	 6.8086110835	 0.192395
H	 1.3739834482	-4.2804866331	 0.9397798977	 0.197982
58.5663	85.6256	102.0572	114.9763	161.7956	208.914	217.7711	262.2241	338.7339	351.902	370.6997	489.7487	539.096	598.839	614.4712	627.8999	636.5954	638.9517	755.3065	772.7554	851.5609	924.0804	966.3	1009.5881	1013.6006	1053.1021	1084.528	1121.3514	1137.439	1191.5935	1263.7687	1288.5922	1310.0188	1324.4952	1364.5868	1373.3217	1384.2964	1415.3651	1473.2789	1484.3811	1493.7227	1498.2717	1508.0091	2227.8856	2238.9914	2988.9562	3018.4748	3029.1404	3035.5404	3045.5207	3059.154	3067.298	3093.9815	3102.4005	3117.5896	3502.455	3507.8486
CCC(CCC#C)C#C	CC[C@@H](CCC#C)C#C	
InChI=1S/C9H12/c1-4-7-8-9(5-2)6-3/h1-2,9H,6-8H2,3H3	InChI=1S/C9H12/c1-4-7-8-9(5-2)6-3/h1-2,9H,6-8H2,3H3/t9-/m0/s1
