19
gdb 112281	2.53557	1.19249	0.90912	4.1534	72.86	-0.2488	-0.03	0.2188	1313.7676	0.157069	-460.151298	-460.141725	-460.140781	-460.186343	34.338	
C	-0.216856049	 1.4306615949	 0.2059774012	-0.239014
O	 0.3731379574	 0.1786859927	-0.0702347973	-0.23876
C	 0.7791933545	-0.5189395437	 1.0799828279	 0.08762
C	-0.3926704565	-1.2590962275	 1.8176572041	-0.370366
C	 0.0924058157	-2.5432420732	 1.1324120516	 0.398649
O	-0.4008691702	-3.6135977419	 0.9007383916	-0.314528
C	 1.4016104116	-1.892081437	 0.6779480056	-0.147348
C	 1.80751601	-2.2032001476	-0.7654922542	-0.079028
O	 2.079567151	-3.5856932285	-0.9013785328	-0.425368
H	 0.4768718119	 2.0903977849	 0.7491939438	 0.110821
H	-0.4656371416	 1.8882599085	-0.7538996478	 0.135673
H	-1.1367644382	 1.3326193554	 0.801016027	 0.110435
H	 1.4049618053	 0.1175887948	 1.7189146159	 0.072833
H	-0.273490096	-1.3023853836	 2.9050556704	 0.133393
H	-1.4102261423	-0.9383087157	 1.5814119932	 0.136297
H	 2.2166378824	-2.1707596057	 1.3554840699	 0.112675
H	 1.0172412726	-1.8685490271	-1.4498660442	 0.107328
H	 2.7236229034	-1.6687550405	-1.0349663401	 0.11251
H	 1.2836889181	-4.0563179693	-0.6211809257	 0.296178
53.4675	108.1884	129.7459	132.7086	183.2084	201.7734	309.3036	344.8431	404.2933	441.7559	489.4573	514.6176	554.8125	735.2861	766.313	835.5857	890.0123	913.5329	983.8137	1035.4679	1067.7741	1086.8799	1091.9712	1131.7725	1155.2086	1181.5296	1184.2536	1201.8815	1222.9929	1260.4592	1266.9561	1318.1154	1379.9872	1381.6318	1423.1284	1439.9484	1481.1976	1487.1301	1508.0692	1515.3537	1869.926	2980.8814	3016.2747	3021.8477	3030.914	3054.9252	3061.6503	3083.3843	3121.4484	3123.3138	3766.2332
COC1CC(=O)C1CO	CO[C@H]1CC(=O)[C@H]1CO	
InChI=1S/C6H10O3/c1-9-6-2-5(8)4(6)3-7/h4,6-7H,2-3H2,1H3	InChI=1S/C6H10O3/c1-9-6-2-5(8)4(6)3-7/h4,6-7H,2-3H2,1H3/t4-,6+/m1/s1
