21
gdb 82987	3.52466	1.50702	1.41992	1.7039	80.59	-0.2342	0.087	0.3213	1016.7826	0.186243	-387.085552	-387.078524	-387.07758	-387.116588	29.603	
C	-0.2288057071	 1.5961092045	 0.0000741602	-0.437444
C	 0.0539049354	 0.0995351124	-0.0022330639	 0.042734
C	 1.1355128094	-0.5604230712	-0.9182353973	-0.061314
C	 2.4090502425	 0.2108374671	-0.5196352408	-0.243773
C	 2.3438463182	-0.0929487892	 1.0058498153	 0.11275
O	 3.1287514335	-1.2600383835	 1.2705421851	-0.274237
C	 2.5078367129	-2.3165424409	 0.5212074939	-0.119091
C	 1.1492348442	-1.7438764756	 0.1247524479	-0.035378
C	 0.8720520095	-0.5808555312	 1.1222927921	-0.059925
H	 0.6629445108	 2.1998124516	 0.1894470596	 0.117738
H	-0.6518804561	 1.9182877515	-0.9582465214	 0.115309
H	-0.9588773822	 1.8427733674	 0.778960189	 0.116343
H	-0.8917659781	-0.4410676009	-0.1244932675	 0.069514
H	 0.954119418	-0.7335121872	-1.9800337646	 0.056083
H	 3.3312710874	-0.1916300811	-0.9455580161	 0.104112
H	 2.3559633085	 1.2725820345	-0.7709620887	 0.095675
H	 2.6798318083	 0.6941912985	 1.6801983139	 0.072872
H	 3.1258768998	-2.5916687191	-0.3453474047	 0.09366
H	 2.4170883903	-3.1987496427	 1.1660586506	 0.101173
H	 0.3446519324	-2.4664061831	-0.0107766958	 0.071545
H	 0.4878641526	-0.746046092	 2.1290472232	 0.061654
170.8993	195.32	245.0586	295.8188	410.0151	474.2316	507.8295	605.6249	686.7546	730.2116	755.3034	797.9668	838.2463	864.8252	897.6183	925.5097	943.2408	964.1534	976.2275	992.1507	1000.3592	1041.3594	1055.0594	1076.4194	1085.0577	1119.3403	1132.4996	1154.7208	1191.3878	1193.7965	1201.859	1233.4171	1252.515	1271.4889	1299.7717	1315.8126	1325.094	1342.5691	1382.442	1404.8494	1417.4233	1489.3409	1496.4922	1512.2533	1526.0402	2999.2834	3030.3734	3037.7242	3046.1851	3068.6576	3089.4482	3101.2884	3106.854	3110.2817	3113.9632	3120.7842	3128.0724
CC1C2CC3OCC2C13	C[C@H]1[C@H]2C[C@@H]3OC[C@H]2[C@H]13	
InChI=1S/C8H12O/c1-4-5-2-7-8(4)6(5)3-9-7/h4-8H,2-3H2,1H3	InChI=1S/C8H12O/c1-4-5-2-7-8(4)6(5)3-9-7/h4-8H,2-3H2,1H3/t4-,5+,6+,7-,8-/m0/s1
