20
gdb 85409	1.96819	1.64675	0.98488	3.3084	84.12	-0.2455	0.014	0.2595	1254.7325	0.170548	-403.182696	-403.173437	-403.172493	-403.21779	34.252	
C	 0.2945859031	 1.4525608977	-0.1951862742	-0.384223
C	-0.1157050846	 0.0112930715	 0.126449462	 0.08186
O	 0.0552649212	-0.7867121022	-1.0613562064	-0.266195
C	 0.9863901432	-1.7688259787	-1.1765583007	 0.384365
N	 1.0161704832	-2.5281461136	-2.1910259431	-0.516416
C	 2.0162080362	-1.9276630812	-0.0814915636	-0.382612
C	 1.5705966309	-1.4242816298	 1.2660938163	 0.292724
C	 2.2994769457	-1.953743924	 2.4669022038	-0.47844
C	 0.5862855255	-0.5321797204	 1.3333428288	-0.170639
H	 1.3702257397	 1.5112156316	-0.3857258988	 0.123906
H	-0.2409988439	 1.8089863001	-1.0792830704	 0.128694
H	 0.057709561	 2.11188101	 0.6457549497	 0.119149
H	-1.1989817232	-0.0050503093	 0.3075916982	 0.099698
H	 0.2645951831	-2.2757000912	-2.8362909664	 0.214017
H	 2.2919485256	-2.9852805434	-0.0474204051	 0.14038
H	 2.9303010026	-1.3972916959	-0.3880944415	 0.138333
H	 3.3773605202	-1.7618176212	 2.3886546147	 0.128543
H	 1.9378127806	-1.4991658172	 3.3927636232	 0.123606
H	 2.1833661896	-3.0418695993	 2.5479790222	 0.132319
H	 0.2577302702	-0.1296377937	 2.2879592913	 0.090931
29.7831	60.4672	141.749	200.1284	240.7583	295.7487	337.5223	408.1003	435.4243	456.7891	505.1459	532.5721	573.0597	690.9886	816.6195	841.1019	885.4728	904.1507	912.9569	959.0723	987.1319	1000.0686	1056.3183	1066.9011	1100.2969	1128.4792	1173.6763	1192.6428	1218.5689	1306.88	1323.0515	1349.6012	1380.3223	1402.1962	1412.5995	1418.3805	1461.7818	1477.949	1486.2078	1490.4614	1493.0178	1740.1615	1761.675	3002.7373	3011.4968	3018.3088	3039.9748	3065.8414	3089.0552	3115.115	3115.4857	3123.7968	3162.4213	3461.4946
CC1OC(=N)CC(C)=C1	C[C@H]1O[C]([NH])CC(=C1)C	
InChI=1S/C7H11NO/c1-5-3-6(2)9-7(8)4-5/h3,6,8H,4H2,1-2H3	InChI=1S/C7H11NO/c1-5-3-6(2)9-7(8)4-5/h3,6,8H,4H2,1-2H3/t6-/m1/s1
