17
gdb 68178	4.26711	1.1294	1.03517	5.3026	81.36	-0.2473	-0.0523	0.1951	1174.3211	0.137226	-380.842431	-380.834784	-380.83384	-380.874422	29.927	
C	 0.0298442896	 1.5447531227	 0.0355290304	-0.510677
C	 0.0202770002	 0.03959537	-0.0098335065	 0.282725
C	 0.6276266117	-0.8217372971	-1.1767488742	-0.254325
C	 0.6205116237	-1.8638015252	-0.0195786243	-0.127248
N	 0.909162593	-0.7442431694	 0.9651717518	-0.338419
C	-0.8969523864	-2.0026377988	 0.2244147284	 0.302157
C	-1.2917205917	-0.7211359156	 0.2300728502	-0.209111
C	-1.6213459979	-3.1991896085	 0.3934924909	 0.164847
N	-2.1905803959	-4.201043643	 0.5213341452	-0.349056
H	 1.0305263413	 1.938977548	-0.1662387578	 0.122627
H	-0.6520696678	 1.9599040557	-0.7137093564	 0.130665
H	-0.2847290244	 1.9019814745	 1.0211155828	 0.140669
H	 0.0224251507	-1.0131965003	-2.067831588	 0.106445
H	 1.6366071289	-0.4966513513	-1.4515003606	 0.099994
H	 1.236779944	-2.7600878057	 0.0065571844	 0.092713
H	 1.872456652	-0.4381769362	 0.7945171884	 0.210394
H	-2.2747179709	-0.2972357198	 0.3738083952	 0.1356
117.809	145.7336	200.2595	291.9975	299.6594	440.5587	474.6286	504.8863	555.6908	589.2286	647.8489	657.0343	788.2933	796.5609	850.1875	868.5928	885.3363	917.878	961.5043	1022.7415	1053.095	1094.1451	1105.9691	1120.4745	1165.3119	1208.8557	1221.6421	1237.6396	1257.5935	1319.5924	1364.6357	1417.5621	1486.7863	1492.7524	1498.0593	1650.8461	2334.4541	3036.6127	3039.6244	3104.4879	3108.2749	3111.3679	3148.3756	3246.507	3394.2417
CC12CC(N1)C(=C2)C#N	C[C@@]12C[C@@H](N1)C(=C2)C#N	
InChI=1S/C7H8N2/c1-7-2-5(4-8)6(3-7)9-7/h2,6,9H,3H2,1H3	InChI=1S/C7H8N2/c1-7-2-5(4-8)6(3-7)9-7/h2,6,9H,3H2,1H3/t6-,7-/m1/s1
