19
gdb 85065	2.34054	1.55454	1.20595	3.2334	70.95	-0.2588	0.0022	0.2611	1102.3652	0.158966	-460.213714	-460.204718	-460.203774	-460.247092	33.859	
C	 0.5942882935	 1.3713549886	-0.3918146804	-0.401721
C	 0.0157055484	 0.0636903628	 0.1343884461	 0.103226
O	 0.0786538807	-0.9351902686	-0.9192902329	-0.225644
C	 1.1001749578	-1.7966926804	-0.7174736813	 0.409995
O	 1.4262132817	-2.6319560334	-1.5140959438	-0.356064
C	 1.7862150266	-1.4824561561	 0.6208249688	-0.028075
O	 2.9882966531	-0.7664224448	 0.3610087625	-0.429585
C	 0.7635004986	-0.590847327	 1.324772868	-0.017634
C	 1.318187738	 0.3585832946	 2.3833020279	-0.41828
H	 1.661046232	 1.2644724619	-0.6029524612	 0.143417
H	 0.0775314678	 1.6606006377	-1.3106024264	 0.130992
H	 0.4608960767	 2.1713214044	 0.3422186322	 0.121733
H	-1.046832218	 0.1897513021	 0.3610899241	 0.095392
H	 1.9931599668	-2.4104690572	 1.1674655296	 0.093859
H	 3.5117563476	-1.2996176511	-0.2491232387	 0.300177
H	 0.048731548	-1.2740554377	 1.8003589982	 0.092186
H	 2.0943106129	 1.0057960703	 1.9719951342	 0.145951
H	 0.5226469135	 0.986387164	 2.7975659232	 0.116737
H	 1.7587159442	-0.2069086001	 3.2098875401	 0.123337
90.5254	129.7644	218.0611	238.7178	245.9131	254.7735	270.8872	357.6451	383.8826	434.4651	483.0801	539.1808	662.3499	708.0379	739.636	782.0253	888.1642	917.2991	957.6384	987.1855	1025.8102	1049.9608	1086.4192	1137.9022	1155.8605	1179.0594	1209.3013	1228.5662	1315.7435	1338.7593	1359.0669	1373.8715	1386.1719	1410.243	1413.8869	1426.1494	1485.6415	1496.745	1501.9391	1509.5273	1869.0016	3023.2666	3037.7708	3045.0431	3049.7129	3069.0077	3105.3626	3121.9745	3138.1729	3142.2931	3796.3932
CC1OC(=O)C(O)C1C	C[C@H]1OC(=O)[C@@H](O)[C@H]1C	
InChI=1S/C6H10O3/c1-3-4(2)9-6(8)5(3)7/h3-5,7H,1-2H3	InChI=1S/C6H10O3/c1-3-4(2)9-6(8)5(3)7/h3-5,7H,1-2H3/t3-,4+,5-/m0/s1
