18
gdb 12558	3.28918	1.82691	1.25349	1.9191	69.38	-0.2356	0.0127	0.2483	966.9728	0.154757	-384.932457	-384.924744	-384.9238	-384.964526	29.351	
O	-0.3193007436	 1.4966930245	-0.3359956121	-0.434689
C	-0.0263465585	 0.1380979581	-0.0263380912	 0.065662
C	-1.393522604	-0.5460185675	 0.1071312618	-0.077818
O	-1.3175459075	-1.8319311578	 0.6813643176	-0.243754
C	-0.9240651464	-2.867960847	-0.1984137341	-0.066402
C	 0.584631911	-2.9322906124	-0.4610064752	-0.253774
C	 1.1586410628	-1.7724706446	-1.2398384676	-0.069078
C	 0.8871917915	-0.4796421247	-1.0636830183	-0.084101
H	 0.5092423016	 1.9847350855	-0.3590829649	 0.285283
H	 0.457916492	 0.0651406148	 0.9635371172	 0.084431
H	-2.0058543517	 0.0618100284	 0.7796294719	 0.112932
H	-1.8849079326	-0.5760366374	-0.8771527164	 0.095393
H	-1.2425134608	-3.7987107103	 0.2836215077	 0.102795
H	-1.4636678111	-2.7785658663	-1.1545927327	 0.090664
H	 1.0967216466	-3.0236786412	 0.5079300103	 0.120343
H	 0.7880225063	-3.8650641793	-1.0001522783	 0.101439
H	 1.8792730941	-2.0326915753	-2.0118723162	 0.089438
H	 1.3853184204	 0.2459032325	-1.7053146696	 0.081236
66.5574	177.1215	238.3579	278.3549	314.9002	348.285	403.9977	430.5433	505.3756	569.1443	674.743	708.7348	817.3602	877.0991	922.5073	982.7314	991.3552	1040.6575	1050.2462	1071.4648	1079.8086	1108.2296	1160.0205	1218.4202	1234.6406	1257.5855	1289.071	1327.5862	1353.0938	1373.0375	1374.7213	1402.2852	1424.1478	1435.412	1465.2999	1485.4049	1497.7199	1722.2617	2942.8747	2979.5641	2996.3502	3008.104	3059.3279	3067.4584	3088.9717	3128.1005	3155.8802	3825.5752
OC1COCCC=C1	O[C@H]1COCCC=C1	
InChI=1S/C6H10O2/c7-6-3-1-2-4-8-5-6/h1,3,6-7H,2,4-5H2	InChI=1S/C6H10O2/c7-6-3-1-2-4-8-5-6/h1,3,6-7H,2,4-5H2/t6-/m1/s1
