16
gdb 16449	4.44075	1.93897	1.74252	3.0403	63.65	-0.241	0.056	0.2971	796.5597	0.130163	-383.669332	-383.662696	-383.661752	-383.699799	26.016	
C	-0.0653984688	 1.5481023383	 0.0847864045	-0.504949
C	 0.1436566023	 0.071629789	 0.00343691	 0.403043
O	-0.7829567772	-0.7893927852	 0.6690632388	-0.264126
C	 0.6057653049	-0.9418252768	 0.9833002098	-0.069749
C	 1.2533647068	-1.7833766638	-0.1547659789	 0.099447
O	 0.440451945	-2.823676283	-0.7154045885	-0.284695
C	-0.0938452217	-1.9211715977	-1.7206513657	-0.083969
C	 0.7483705664	-0.743366888	-1.1789282456	-0.17344
H	 0.8425105794	 2.086403202	-0.2057998742	 0.126119
H	-0.8723407908	 1.8631683562	-0.5867916802	 0.133439
H	-0.3370487497	 1.8385192417	 1.103070885	 0.13753
H	 0.8821181776	-0.8635232299	 2.0298866705	 0.101286
H	 2.301635353	-2.0593037936	-0.0145048372	 0.080597
H	 0.1860993046	-2.2497384424	-2.7281297486	 0.09853
H	-1.1796121781	-1.8180906678	-1.6426842631	 0.11619
H	 1.4171967365	-0.2099192391	-1.8518790368	 0.084748
173.6513	199.4894	259.7783	277.7426	350.2859	487.9836	571.7244	660.8105	723.2701	796.0763	817.3118	855.1352	876.4504	920.7503	945.505	989.0732	996.0238	1013.2224	1029.051	1074.1089	1109.5061	1160.356	1168.019	1174.2798	1226.2258	1250.5935	1284.2419	1295.5797	1352.9468	1403.5529	1456.8294	1481.3495	1491.5396	1503.9005	3030.4383	3033.5562	3079.5256	3094.0161	3095.9225	3122.1837	3133.4803	3169.3878
CC12OC1C1OCC21	C[C@]12O[C@H]1[C@H]1OC[C@@H]21	
InChI=1S/C6H8O2/c1-6-3-2-7-4(3)5(6)8-6/h3-5H,2H2,1H3	InChI=1S/C6H8O2/c1-6-3-2-7-4(3)5(6)8-6/h3-5H,2H2,1H3/t3-,4+,5+,6-/m1/s1
