17
gdb 56536	2.66874	1.24305	1.05726	3.6696	70.68	-0.255	-0.0339	0.2211	1167.425	0.130169	-458.925455	-458.91498	-458.914035	-458.960772	37.625	
C	-0.0583624012	 1.5686080912	 0.2400133188	-0.453821
C	-0.0000918307	 0.0488281178	 0.1143851205	 0.234871
O	 0.7172516733	-0.5680155759	 1.17139932	-0.466009
C	-1.3987352412	-0.5713570777	 0.1953213495	 0.153988
O	-2.4245565427	 0.0226384426	 0.0095641588	-0.239942
C	 0.6239998331	-0.4177663338	-1.2493933852	-0.080878
O	-0.0759146289	 0.0757063533	-2.3736747064	-0.406568
C	 2.0538939223	-0.0889448017	-1.2748867365	 0.256139
C	 3.2160187413	 0.2236331544	-1.2662361601	-0.415918
H	 0.9295921048	 2.0100465058	 0.0768480283	 0.119176
H	-0.7709327788	 1.9864242431	-0.4751998725	 0.139519
H	-0.3991722598	 1.8365898691	 1.242447974	 0.139846
H	 1.6507225429	-0.3470917341	 1.0586690341	 0.287611
H	-1.372355219	-1.6536527204	 0.4516786077	 0.094028
H	 0.5185134809	-1.5085135819	-1.2933661568	 0.131871
H	 0.1016308221	 1.0195749285	-2.4513279985	 0.295147
H	 4.2477953817	 0.4780789895	-1.2869411056	 0.21094
64.9484	70.9596	139.163	190.5323	206.0672	239.6611	269.6039	285.5622	310.8653	344.1315	384.3935	416.6376	424.3508	520.992	593.9959	637.7845	663.0231	688.008	771.7538	864.5329	952.8624	971.6414	1007.9915	1087.1358	1114.281	1169.9336	1193.1042	1267.9895	1307.8315	1381.1282	1390.4872	1410.969	1413.6617	1488.0842	1496.0325	1848.5825	2220.9828	2895.4619	3044.1244	3049.0571	3126.03	3136.698	3496.4233	3767.5869	3812.4179
CC(O)(C=O)C(O)C#C	C[C@@](O)(C=O)[C@@H](O)C#C	
InChI=1S/C6H8O3/c1-3-5(8)6(2,9)4-7/h1,4-5,8-9H,2H3	InChI=1S/C6H8O3/c1-3-5(8)6(2,9)4-7/h1,4-5,8-9H,2H3/t5-,6+/m0/s1
