16
gdb 56440	2.1988	1.39481	1.06654	4.7157	69.8	-0.2733	-0.0554	0.2178	1168.6915	0.12195	-437.886597	-437.877371	-437.876427	-437.921563	32.002	
C	-0.7979876729	 1.5007146333	 0.9771603856	-0.395504
C	-0.5753595487	 0.3229458712	 0.0162670269	-0.237801
C	 0.8216708107	-0.1204814679	 0.0189282303	 0.287878
N	 1.9242002908	-0.4654219465	 0.0541335342	-0.316601
C	-1.4639238994	-0.8910882103	 0.3941907464	 0.357849
O	-1.9687564316	-0.9970208879	 1.4820657631	-0.288927
C	-1.6743793967	-1.9405114836	-0.65978637	-0.007627
C	-2.3078708462	-1.5833251341	-1.9473884903	-0.172806
O	-0.914798144	-1.8417210828	-1.8607465486	-0.206046
H	-0.1360228874	 2.3302234386	 0.7208425854	 0.137378
H	-1.8347277371	 1.8394168968	 0.9122676627	 0.13205
H	-0.6052707211	 1.1926816619	 2.0056197665	 0.159405
H	-0.8093701398	 0.6115868645	-1.0150388026	 0.144089
H	-1.8290316193	-2.9431798761	-0.2662484682	 0.135552
H	-2.9018753058	-2.3384987604	-2.4580376351	 0.142778
H	-2.5879792315	-0.5504177267	-2.1495228264	 0.128332
42.7579	83.7756	124.8873	177.4138	199.6652	226.8567	272.9674	290.9156	442.6728	497.4246	521.1198	593.7066	681.0224	784.8263	861.4582	885.1213	900.9493	942.3088	1020.1798	1077.4691	1100.9969	1116.2012	1148.6536	1160.2909	1200.1056	1261.9576	1290.1559	1309.9548	1388.5816	1412.5889	1489.5979	1492.6155	1523.9545	1824.0878	2356.001	3052.6836	3062.8458	3090.2624	3139.0091	3143.6622	3155.1318	3183.0283
CC(C#N)C(=O)C1CO1	C[C@@H](C#N)C(=O)[C@H]1CO1	
InChI=1S/C6H7NO2/c1-4(2-7)6(8)5-3-9-5/h4-5H,3H2,1H3	InChI=1S/C6H7NO2/c1-4(2-7)6(8)5-3-9-5/h4-5H,3H2,1H3/t4-,5+/m0/s1
