20
gdb 96051	2.67507	1.1727	0.94509	3.8094	77.86	-0.2458	0.019	0.2648	1303.4493	0.170577	-440.290516	-440.281165	-440.280221	-440.32601	33.375	
C	-0.1308363111	 1.4932822212	-0.0800514873	-0.401675
C	 0.0106385952	-0.0164415831	 0.0313087827	 0.140037
O	 0.7288063364	-0.5238367469	-1.0976323836	-0.27998
C	 1.6846117075	-1.5014142352	-0.6889731019	-0.060881
C	 1.3263467785	-1.8637364971	 0.7576291459	-0.253477
C	 0.7568237844	-0.5371690084	 1.27117304	 0.069274
O	 1.8161067922	 0.3678459309	 1.6002994221	-0.191496
C	 2.2295913656	 0.3988793295	 2.8809511761	 0.129658
N	 3.2527102006	 1.0642649999	 3.2014987408	-0.442469
H	 0.8481636529	 1.9737735828	-0.0516985636	 0.146841
H	-0.6238106908	 1.7450952837	-1.0224707085	 0.125688
H	-0.7395291929	 1.8850516107	 0.7416063236	 0.108775
H	-0.9920296099	-0.4752537764	 0.0437601178	 0.071556
H	 1.6314167766	-2.3577870061	-1.3692529392	 0.104314
H	 2.6958843808	-1.0768524109	-0.7455454904	 0.113062
H	 0.5455120225	-2.63090454	 0.7865717245	 0.111637
H	 2.1781301312	-2.2122350252	 1.3456506362	 0.114482
H	 0.0877785374	-0.6496570576	 2.1317990083	 0.081918
H	 1.5882588901	-0.1803309044	 3.5611903682	 0.083423
H	 3.4041161629	 1.0043335926	 4.206231228	 0.229313
39.099	66.4539	104.4133	136.017	203.0877	225.0122	291.1086	357.1831	414.2998	505.5887	586.6721	669.4069	743.0445	816.986	824.4897	872.3185	911.0335	920.8856	964.6416	1002.2638	1032.6002	1043.9581	1061.9724	1106.4654	1120.4621	1148.991	1166.6062	1209.0489	1225.5118	1286.3315	1293.3532	1324.1837	1360.7249	1379.679	1387.2544	1397.7324	1408.8436	1429.3924	1477.5618	1486.6666	1495.0564	1528.4818	1744.7424	2959.8117	3009.5795	3014.9618	3042.9686	3048.2208	3056.4035	3071.5198	3116.7599	3117.8199	3148.6673	3518.5014
CC1OCCC1OC=N	C[C@H]1OCC[C@H]1O[CH][NH]	
InChI=1S/C6H11NO2/c1-5-6(9-4-7)2-3-8-5/h4-7H,2-3H2,1H3	InChI=1S/C6H11NO2/c1-5-6(9-4-7)2-3-8-5/h4-7H,2-3H2,1H3/t5-,6-/m1/s1
