19
gdb 29774	2.42423	1.51671	0.94862	0.5071	80.93	-0.174	0.0548	0.2288	1243.4172	0.158252	-419.236438	-419.22597	-419.225025	-419.272014	36.795	
C	-0.0158237802	 1.4679995769	-0.0067366777	-0.339481
N	-0.0156519934	 0.0220220189	-0.0037631641	-0.012979
C	 0.0021165778	-0.7830491182	-1.1086618221	-0.195474
C	 0.052079964	-2.1055044958	-0.7113164442	 0.158441
C	 0.0717681442	-3.3230905476	-1.5837911822	-0.527636
C	 0.0767574242	-2.0812236626	 0.710369236	 0.162913
O	 0.1219307986	-3.1466482058	 1.5740758782	-0.459345
C	 0.0383154915	-0.7706497497	 1.1351961933	 0.16718
N	-0.0015967395	-0.1956780335	 2.4241219735	-0.613585
H	 0.9786148554	 1.8769951917	-0.2252036784	 0.124521
H	-0.7184953954	 1.8414274962	-0.7571183857	 0.128165
H	-0.323832018	 1.8113022022	 0.9816971242	 0.158293
H	-0.0151697052	-0.359757429	-2.1011498804	 0.107147
H	 0.9681180849	-3.9370662324	-1.422279476	 0.119048
H	-0.797763592	-3.9736604212	-1.41556735	 0.116281
H	 0.0603787916	-3.0447534176	-2.6414063672	 0.12636
H	 0.042137774	-3.9543346611	 1.0587742125	 0.292733
H	 0.9008938423	-0.2390994174	 2.8895638062	 0.240983
H	-0.6586499748	-0.6933713239	 3.0160426342	 0.246436
60.1486	104.3185	119.7792	149.792	159.4409	197.1283	230.2292	278.096	295.314	307.6433	322.4852	559.9011	583.1949	601.2676	612.2302	689.6238	689.9432	748.8612	818.0155	911.7392	1003.7328	1060.3685	1078.0816	1145.7067	1153.1902	1199.1966	1219.6535	1246.3624	1303.9201	1403.1334	1410.228	1426.1565	1462.3993	1474.4942	1484.2202	1496.2198	1511.0123	1521.0279	1572.2862	1656.0147	1677.5297	3000.7858	3020.1866	3039.6845	3086.8725	3101.5884	3147.0515	3247.0635	3483.5482	3553.2017	3840.6867
CN1C=C(C)C(O)=C1N	Cn1cc(C)c(O)c1N	
InChI=1S/C6H10N2O/c1-4-3-8(2)6(7)5(4)9/h3,9H,7H2,1-2H3	InChI=1S/C6H10N2O/c1-4-3-8(2)6(7)5(4)9/h3,9H,7H2,1-2H3
