18
gdb 87941	3.52673	1.09981	1.01282	4.6169	72.68	-0.2342	0.0397	0.274	1209.1591	0.148442	-439.112293	-439.103942	-439.102998	-439.145445	31.912	
O	-0.0491349451	 1.4118993375	-0.0403520413	-0.41682
C	-0.0045955669	 0.0170261028	 0.0047095054	 0.063659
C	-0.487814627	-0.7033909124	 1.2411118938	-0.389089
C	-1.320641447	-0.7117287903	-0.0174993464	 0.324086
C	-2.6206663944	 0.0926036523	-0.1121433936	-0.23638
N	-3.2102337393	-0.4206392016	-1.3370886895	-0.310704
C	-2.6743419625	-1.5845517374	-1.8150007647	 0.416924
O	-3.0601160828	-2.2062396987	-2.7801807736	-0.380933
C	-1.5110812243	-1.948446966	-0.8813967931	-0.433497
H	 0.6206636225	 1.7545140053	 0.5602648366	 0.292345
H	 0.8145602812	-0.4323534829	-0.5579231634	 0.091811
H	 0.0082586338	-1.6200055118	 1.5442500439	 0.116111
H	-0.8351371793	-0.0799092393	 2.0600534964	 0.114518
H	-3.2716793385	-0.0889376431	 0.7556871426	 0.102541
H	-2.4196673052	 1.1654194918	-0.1733297376	 0.135914
H	-4.0426128008	-0.0370568497	-1.755078581	 0.250644
H	-0.6306238297	-2.2268281372	-1.4654184045	 0.130234
H	-1.8067091047	-2.8275502593	-0.29581078	 0.128636
61.9871	131.0603	201.7644	234.8967	271.805	331.8132	429.2557	458.081	479.299	498.4119	549.9187	600.1423	692.775	798.6382	812.8916	866.1882	884.8646	916.1661	980.0805	1023.4726	1041.7749	1066.6851	1083.9977	1097.4723	1170.8891	1181.9354	1219.4956	1245.0362	1259.7523	1270.8959	1298.6438	1343.2457	1357.6302	1424.1356	1449.3956	1469.0431	1488.9855	1538.3987	1832.5212	2989.2612	3040.2342	3087.311	3092.8362	3102.3751	3118.375	3207.7068	3646.8165	3809.991
OC1CC11CNC(=O)C1	O[C@H]1C[C@]21CNC(=O)C2	
InChI=1S/C6H9NO2/c8-4-1-6(4)2-5(9)7-3-6/h4,8H,1-3H2,(H,7,9)	InChI=1S/C6H9NO2/c8-4-1-6(4)2-5(9)7-3-6/h4,8H,1-3H2,(H,7,9)/t4-,6+/m0/s1
