23
gdb 106364	3.12703	1.17886	1.03796	0.1691	91.74	-0.2107	0.0254	0.2361	1304.502	0.205962	-351.139656	-351.130661	-351.129716	-351.172996	35.51	
C	 0.0955498481	 1.5275851986	-0.1902644382	-0.380013
C	 0.015315475	 0.0202959952	 0.0811265387	-0.299436
C	-1.3988385635	-0.5234321714	 0.0615027928	 0.335396
C	-2.3204570953	-0.4767159606	-1.2151301175	-0.245485
C	-3.1135199569	-1.5506571698	-0.3999959043	-0.122846
C	-1.7124608044	-2.0640118796	 0.0716668929	-0.258943
C	-3.5333298773	-0.7192932786	 0.8294239462	 0.351832
C	-4.8797039085	-0.7335227028	 1.4652414661	-0.517121
C	-2.4128273038	-0.0523251638	 1.1248796948	-0.250086
H	 1.1315493544	 1.8791608181	-0.1639840942	 0.109734
H	-0.3158682154	 1.7732229994	-1.1750202296	 0.118488
H	-0.4697376002	 2.0986506177	 0.5535950971	 0.117137
H	 0.6153089791	-0.5156946892	-0.6653834913	 0.089788
H	 0.4711873302	-0.2037077618	 1.0552046754	 0.094009
H	-2.8309184889	 0.4635564075	-1.4378479131	 0.087622
H	-1.8361795455	-0.8803008816	-2.1115987466	 0.084723
H	-3.8539714883	-2.2060796893	-0.8598789152	 0.053788
H	-1.1683850701	-2.6197991927	-0.70065226	 0.084207
H	-1.6613543181	-2.5818965048	 1.0329964376	 0.086227
H	-5.1517290711	-1.7406731023	 1.8076561887	 0.124512
H	-4.9206957178	-0.0612121812	 2.3272931179	 0.122817
H	-5.661744221	-0.426377194	 0.7583750983	 0.124547
H	-2.2207052709	 0.6528285869	 1.9227649436	 0.089105
91.915	137.9948	178.8663	188.7001	214.2032	270.6906	347.8892	380.4951	506.761	517.1027	565.1436	575.4054	646.3265	771.8457	784.4518	797.6514	840.1234	869.3023	893.237	930.0797	958.5758	983.4751	1005.2244	1007.986	1057.9042	1068.7893	1069.5467	1097.4393	1111.5079	1132.8893	1170.8511	1202.0984	1216.8002	1228.5984	1233.3753	1296.3113	1306.8243	1337.8236	1375.7578	1411.0512	1413.0297	1476.8197	1477.5047	1483.8995	1487.2727	1499.3528	1506.9347	1516.1148	1694.5737	3010.451	3012.204	3029.2069	3034.5252	3040.9067	3044.325	3053.44	3101.7922	3102.5951	3103.8509	3104.5705	3108.3055	3109.6329	3214.6287
CCC12CC(C1)C(C)=C2	CC[C@@]12C[C@@H](C1)C(=C2)C	
InChI=1S/C9H14/c1-3-9-4-7(2)8(5-9)6-9/h4,8H,3,5-6H2,1-2H3	InChI=1S/C9H14/c1-3-9-4-7(2)8(5-9)6-9/h4,8H,3,5-6H2,1-2H3/t8-,9+
