18
gdb 100572	1.90801	1.28373	0.87779	2.5622	73.01	-0.2799	-0.052	0.2279	1342.6651	0.144846	-439.118442	-439.108351	-439.107407	-439.154429	35.374	
C	 0.7856658948	 0.5976207057	-0.0719215709	-0.383554
C	 0.0348554819	-0.7112772894	-0.3246508505	-0.200452
C	-1.4290063373	-0.6302690755	 0.1681992893	 0.04171
O	-2.1140075206	 0.4271432026	-0.4472915986	-0.435908
C	-2.1603023203	-1.9376755831	-0.0999124867	 0.372845
O	-3.102925023	-1.9734375561	-0.8555065398	-0.312093
C	-1.6663666927	-3.2455076671	 0.5458475293	-0.441366
C	-1.0626968821	-3.1024134383	 1.8652852697	 0.274238
N	-0.5883916183	-2.9796029552	 2.9116589646	-0.303916
H	 1.8025936343	 0.5430505788	-0.4708270809	 0.116098
H	 0.2683198068	 1.4318589749	-0.550800532	 0.144881
H	 0.8551108519	 0.808776211	 1.0004231903	 0.124702
H	 0.0216489538	-0.9367657004	-1.3983228341	 0.106897
H	 0.5475356365	-1.5375068253	 0.181598398	 0.108931
H	-1.414731188	-0.4749120839	 1.2594706314	 0.117417
H	-2.8139339504	 0.019377513	-0.9799494489	 0.295087
H	-2.5166901797	-3.9314214047	 0.5881297145	 0.186792
H	-0.9302741478	-3.6902907669	-0.1362524347	 0.187691
45.5388	71.2313	96.1897	135.4845	177.7631	239.8584	280.7597	343.3337	373.3886	378.0442	385.567	469.2938	508.5539	560.0371	667.1467	768.8599	827.1341	904.7463	931.8851	976.4442	1004.5165	1074.8067	1106.9129	1122.5225	1188.8616	1206.4361	1277.0302	1292.0323	1295.9723	1346.8514	1370.2567	1408.4653	1434.8685	1437.9955	1474.457	1495.5836	1508.66	1802.2542	2364.798	2981.3335	3027.0107	3042.8772	3044.2431	3071.7282	3107.6126	3110.0007	3134.9986	3705.5218
CCC(O)C(=O)CC#N	CC[C@@H](O)C(=O)CC#N	
InChI=1S/C6H9NO2/c1-2-5(8)6(9)3-4-7/h5,8H,2-3H2,1H3	InChI=1S/C6H9NO2/c1-2-5(8)6(9)3-4-7/h5,8H,2-3H2,1H3/t5-/m1/s1
