20
gdb 121184	2.29267	1.10579	0.81344	4.8329	80.78	-0.2288	0.0173	0.2461	1453.8696	0.171554	-399.305242	-399.295647	-399.294703	-399.340556	34.409	
C	-0.1241790145	 1.5696380263	-0.2009061468	-0.390398
C	-0.1147152587	 0.0460326882	-0.1200263201	-0.110482
N	 0.7898040565	-0.5177909839	-1.1181812013	-0.278499
C	 0.878993886	-1.9519682476	-1.1106667041	 0.044226
C	-0.2730509303	-2.7909114376	-1.7618896282	-0.19848
N	 0.541902558	-2.8964997601	-2.993701678	-0.302312
C	 1.7721352778	-2.5398077362	-2.2578834563	-0.174371
C	 2.680321723	-1.6364274782	-2.9658314677	 0.313368
N	 3.4001432248	-0.9324352996	-3.5328588031	-0.328501
H	 0.8863023848	 1.9674228482	-0.0739085355	 0.134443
H	-0.501229884	 1.9093676156	-1.1722579119	 0.117786
H	-0.7704772375	 1.9943247389	 0.5726222648	 0.116705
H	 0.2437265987	-0.2714919148	 0.8681084734	 0.104423
H	-1.1484227177	-0.3351183355	-0.2117534587	 0.082194
H	 0.5482995182	-0.1806774338	-2.0457483948	 0.230711
H	 1.1697521659	-2.2781542008	-0.1091742729	 0.092793
H	-0.4470307398	-3.743044995	-1.2415753658	 0.095774
H	-1.2325995934	-2.2829154578	-1.9041187439	 0.110066
H	 0.556101656	-3.7974332988	-3.4579210948	 0.22934
H	 2.357064986	-3.3968387274	-1.8947668743	 0.111213
63.6792	91.902	103.1848	108.3276	188.2587	246.8204	265.0413	334.9378	373.8959	453.7674	554.5114	561.8552	680.5342	739.3487	797.233	815.5192	879.7322	919.36	956.5133	985.0593	1005.2349	1038.5082	1071.5092	1084.6777	1136.7818	1142.9447	1173.7079	1183.1029	1234.1259	1263.1264	1292.0299	1316.165	1348.0455	1358.0709	1389.8929	1402.183	1419.2005	1487.452	1498.1273	1511.7663	1517.1836	1522.8076	2358.2034	2930.9706	2998.9999	3003.0243	3029.8624	3038.0122	3067.0455	3082.7884	3103.9332	3124.2861	3510.4832	3539.8701
CCNC1CNC1C#N	CCN[C@H]1CN[C@H]1C#N	
InChI=1S/C6H11N3/c1-2-8-6-4-9-5(6)3-7/h5-6,8-9H,2,4H2,1H3	InChI=1S/C6H11N3/c1-2-8-6-4-9-5(6)3-7/h5-6,8-9H,2,4H2,1H3/t5-,6-/m0/s1
