20
gdb 109411	1.92726	1.71146	1.19639	3.9212	80.15	-0.2276	0.0208	0.2483	1152.1381	0.169826	-403.153143	-403.143848	-403.142904	-403.187409	34.448	
C	 0.2812271339	 1.5508450769	-0.1083874652	-0.386001
C	-0.0422724163	 0.0521091954	-0.1149508645	-0.165775
N	 0.6333885486	-0.7191103615	-1.1409100864	-0.133168
C	 0.2450398478	-0.940412122	-2.4600181362	 0.42226
O	-0.8378410152	-0.9473605457	-2.9817040484	-0.374436
C	 1.6964331064	-1.1221035664	-2.9007458264	-0.28648
C	 2.4621759087	 0.1453973493	-2.5129663018	-0.3252
C	 2.0693583033	-0.8465763783	-1.4540486631	 0.366604
C	 2.9940904918	-1.5806829587	-0.5323354988	-0.485254
H	 1.3495197574	 1.7285879941	 0.0498615113	 0.121631
H	-0.008890743	 2.0188736663	-1.053953058	 0.131471
H	-0.264206001	 2.0495700826	 0.6991556985	 0.119479
H	 0.1901474673	-0.3839304747	 0.8643452638	 0.108519
H	-1.1121700786	-0.1031531947	-0.2864263112	 0.139161
H	 2.0912227466	-1.8635591393	-3.5805166445	 0.114591
H	 3.508850206	 0.1478058287	-2.8075889508	 0.120185
H	 1.975206304	 1.1133314513	-2.5777176773	 0.123376
H	 3.185136828	-1.0065972397	 0.3818226363	 0.127126
H	 2.5682712246	-2.5466200912	-0.2430111667	 0.13311
H	 3.9589325297	-1.7560518525	-1.0166874206	 0.128802
53.4792	119.1452	146.2491	176.364	209.6805	258.4869	286.073	351.8373	365.191	483.8714	523.1752	636.1673	690.2711	707.293	756.8951	799.7135	859.7986	911.5716	945.0525	951.3039	974.857	987.8716	1032.026	1069.1505	1095.1949	1105.8306	1127.5898	1184.9163	1226.0031	1228.5348	1329.6804	1362.7	1387.7654	1388.9439	1405.6877	1427.3504	1477.9277	1480.9166	1488.801	1493.3942	1501.1506	1503.4229	1877.4299	3029.3212	3031.7377	3036.8594	3084.9998	3091.5323	3109.0324	3113.4836	3116.3696	3116.7403	3201.2738	3224.6755
CCN1C(=O)C2CC12C	CCN1C(=O)[C@H]2C[C@@]12C	
InChI=1S/C7H11NO/c1-3-8-6(9)5-4-7(5,8)2/h5H,3-4H2,1-2H3	InChI=1S/C7H11NO/c1-3-8-6(9)5-4-7(5,8)2/h5H,3-4H2,1-2H3/t5-,7-/m1/s1
