20
gdb 103513	2.89529	1.31364	1.25146	2.082	79.76	-0.2375	0.0015	0.2389	1129.6585	0.171143	-403.129424	-403.120793	-403.119849	-403.16232	33.949	
C	-0.1379510281	 1.5919704162	-0.1747719327	-0.393781
C	 0.0032977636	 0.0694592738	-0.0903001218	-0.191083
C	 0.6802023657	-0.4315809223	 1.1913615647	 0.377172
O	 2.010642525	 0.1026764039	 1.1794467177	-0.472488
C	-0.0346368992	-0.0734542475	 2.4874127819	-0.159755
C	-0.2567269254	-1.1388484582	 3.2628266387	-0.065314
C	 0.1835596395	-2.3910525103	 2.5814242494	-0.094242
N	-0.5746857546	-2.6339716168	 1.3158690753	-0.330616
C	 0.7394970789	-1.9662113653	 1.271321509	-0.125572
H	 0.8317555758	 2.0783275323	-0.0412965943	 0.131117
H	-0.537528356	 1.8872479008	-1.1497579444	 0.107706
H	-0.821029846	 1.9795462011	 0.5883555196	 0.110347
H	-0.9719882215	-0.4189882284	-0.1662102216	 0.120388
H	 0.6095253272	-0.2851733073	-0.933064823	 0.096689
H	 2.3875615107	-0.0526623817	 2.0523281043	 0.273395
H	-0.3108305904	 0.9474441887	 2.7226866467	 0.103028
H	-0.7371408751	-1.1260628468	 4.2342608389	 0.103356
H	 0.5519166966	-3.2457386331	 3.1381504086	 0.091042
H	-0.4480626253	-3.6075789702	 1.0402511457	 0.228517
H	 1.5818236282	-2.460068859	 0.7979256473	 0.090093
89.1973	148.2359	179.3662	231.4015	284.9172	331.0992	357.1869	397.8836	415.3968	464.1176	604.3496	635.9504	749.6152	773.843	795.9418	803.2909	851.0125	867.7531	924.1401	947.7456	968.6435	977.3228	992.4372	1032.2396	1070.2338	1084.8654	1117.6989	1135.533	1149.8377	1172.5279	1205.1505	1252.3445	1301.0706	1315.8963	1347.9702	1380.4192	1394.9968	1404.9164	1408.0833	1480.5097	1498.7979	1510.0503	1654.4198	3032.996	3039.5803	3093.7152	3102.7207	3125.311	3164.6166	3174.7351	3192.8385	3216.8266	3465.3816	3805.7601
CCC1(O)C=CC2NC12	CC[C@@]1(O)C=C[C@H]2N[C@@H]12	
InChI=1S/C7H11NO/c1-2-7(9)4-3-5-6(7)8-5/h3-6,8-9H,2H2,1H3	InChI=1S/C7H11NO/c1-2-7(9)4-3-5-6(7)8-5/h3-6,8-9H,2H2,1H3/t5-,6-,7-/m1/s1
