22
gdb 104297	2.82113	1.3284	1.17362	1.1929	80.64	-0.2265	0.0679	0.2944	1162.1488	0.195135	-404.328972	-404.320046	-404.319102	-404.361982	35.115	
C	-0.4909599987	 1.6886677286	 0.1534740007	-0.441119
C	 0.0106993223	 0.2426036202	 0.0511976729	 0.301471
C	-1.1802958404	-0.7130526165	-0.1357973876	-0.111662
O	-1.8547597666	-0.3737707655	-1.3391887958	-0.426192
C	 1.0457036694	 0.0382078469	-1.0874808402	-0.279056
C	 1.9767886414	-1.0800416833	-0.5657913537	-0.16568
N	 1.9354074146	-1.0662872891	 0.9116500344	-0.099662
C	 2.1732621595	 0.2688592401	 1.4789501399	-0.266956
C	 0.7845285124	-0.218935736	 1.2865196622	-0.048498
H	 0.3436556712	 2.3838476203	 0.2844631558	 0.107426
H	-1.0415215715	 1.9695615905	-0.7477198124	 0.134241
H	-1.1664863262	 1.8108508646	 1.008070752	 0.1063
H	-0.8191247292	-1.7527406594	-0.1650784327	 0.093727
H	-1.8536767888	-0.6230718364	 0.7321044004	 0.084524
H	-2.5775575089	-0.9946158414	-1.4654068163	 0.288924
H	 0.5544444432	-0.2245150838	-2.0262800969	 0.118299
H	 1.5991541025	 0.964916389	-1.2650988457	 0.095935
H	 1.6240840669	-2.0657752202	-0.8881865648	 0.105415
H	 3.009342747	-0.9753844403	-0.913938968	 0.102635
H	 2.6111524599	 0.2653285765	 2.473005516	 0.113213
H	 2.5456918491	 1.0580392048	 0.830162791	 0.107555
H	 0.2094959609	-0.5427884296	 2.1517872087	 0.079161
110.8994	164.5129	186.4426	236.9688	243.7169	279.5477	328.5805	352.8681	386.9128	421.4628	501.3355	616.9318	671.6088	730.2365	793.9584	831.0848	854.6425	924.6788	942.2297	957.5327	969.0259	1009.1478	1027.5201	1046.0312	1068.9177	1098.9193	1113.0047	1152.2211	1162.4579	1192.342	1204.6583	1235.5355	1244.9548	1271.6416	1286.7559	1292.9393	1329.3737	1350.5827	1390.4721	1409.0905	1454.6413	1490.813	1494.5629	1500.393	1505.455	1519.9126	1524.22	2963.6092	2999.2899	3032.6639	3041.3861	3058.8599	3082.7323	3096.6209	3106.3619	3118.3453	3122.9702	3124.0062	3187.9681	3837.8846
CC1(CO)CCN2CC12	C[C@@]1(CO)CCN2C[C@@H]12	
InChI=1S/C7H13NO/c1-7(5-9)2-3-8-4-6(7)8/h6,9H,2-5H2,1H3	InChI=1S/C7H13NO/c1-7(5-9)2-3-8-4-6(7)8/h6,9H,2-5H2,1H3/t6-,7-,8?/m0/s1
