16
gdb 32018	3.88725	1.18793	0.92012	2.7616	75.16	-0.2554	-0.071	0.1844	1237.6315	0.125079	-434.111403	-434.103208	-434.102263	-434.145099	29.353	
C	 0.1341857279	 1.4929972885	 0.0063547169	-0.376761
C	-0.0694995671	-0.0201490651	 0.0038045161	-0.290964
C	-1.5047902138	-0.4500553743	 0.014435429	 0.45458
N	-2.4929475149	 0.3775266924	 0.0243893783	-0.332562
C	-3.7390119827	-0.2228122333	 0.0329475501	 0.069476
N	-3.9983132404	-1.4852597851	 0.0320561247	-0.288616
C	-2.918727421	-2.3574473706	 0.0213970559	 0.428392
N	-2.942431389	-3.6177699337	 0.0189223156	-0.516806
O	-1.6325612577	-1.7829602727	 0.0122648987	-0.210755
H	 1.2025225456	 1.7241323092	-0.0018443187	 0.119681
H	-0.3280848364	 1.9538970802	-0.8694565158	 0.137678
H	-0.313483664	 1.9489689227	 0.8922764258	 0.13766
H	 0.3997974873	-0.4871396731	-0.8716947325	 0.146643
H	 0.414214248	-0.4920671153	 0.8687391245	 0.146637
H	-4.5806973391	 0.4671240242	 0.0412378049	 0.135607
H	-3.9161254527	-3.9184857541	 0.0261665666	 0.240112
54.206	87.5496	145.3551	191.3129	221.2522	364.1646	404.441	497.1583	567.2482	609.5889	613.1335	771.5157	786.1358	808.4529	869.324	876.278	969.0815	991.0618	1018.6407	1021.5068	1099.1361	1110.5826	1196.9042	1243.684	1281.3255	1294.7673	1400.7255	1419.353	1422.927	1453.7368	1491.6094	1499.871	1594.0064	1676.3936	1756.1149	3034.794	3057.1538	3061.0459	3129.8454	3135.8396	3159.4667	3516.8398
CCC1=NC=NC(=N)O1	CC[C@H]1N=CN=C([NH])O1	
InChI=1S/C5H7N3O/c1-2-4-7-3-8-5(6)9-4/h3,6H,2H2,1H3	InChI=1S/C5H8N3O/c1-2-4-7-3-8-5(6)9-4/h3-4,6H,2H2,1H3/t4-/m0/s1
