23
gdb 85844	2.22693	1.39593	1.13539	2.1096	87.43	-0.2398	0.0169	0.2567	1234.6692	0.2043	-388.316328	-388.306196	-388.305252	-388.350718	38.913	
C	-0.3825818674	 1.4260179556	-0.0218110074	-0.501647
C	-0.1767300559	-0.0579378703	-0.0637444295	 0.324097
C	-0.0785125844	-0.805532125	-1.1668990933	-0.245338
C	 0.2059557871	-2.2541655706	-0.8692095042	 0.10311
O	 1.5357971366	-2.6300528003	-1.2464056058	-0.440561
C	-0.0767474263	-2.3479966861	 0.6505063217	-0.282434
C	-0.0310522175	-0.8960188972	 1.210237988	 0.214685
C	 1.3166153233	-0.5996353923	 1.9035031835	-0.423224
C	-1.1768513673	-0.6406560255	 2.2054053971	-0.436575
H	 0.4218066748	 1.9291984928	 0.5285324456	 0.127597
H	-0.4186420198	 1.8506999443	-1.0283909688	 0.125101
H	-1.3176103741	 1.6863180167	 0.4887008443	 0.130958
H	-0.1188356489	-0.4236083961	-2.1822855323	 0.087146
H	-0.4307562959	-2.9429911695	-1.4342442354	 0.080554
H	 2.1159382508	-1.8993582354	-1.0072955386	 0.272725
H	-1.0765948198	-2.7667394686	 0.8054302824	 0.094461
H	 0.6379213351	-3.0174763145	 1.136627959	 0.100452
H	 2.1612370368	-0.8241252481	 1.2440919051	 0.103011
H	 1.3960911173	 0.4500754605	 2.205845499	 0.111463
H	 1.4262783548	-1.2118960162	 2.8052839947	 0.11612
H	-1.1060552849	-1.3277282761	 3.0556372512	 0.114537
H	-1.147711138	 0.3792725959	 2.6041174604	 0.110195
H	-2.1527767064	-0.7913323338	 1.7320981533	 0.113571
65.2589	128.1075	179.4439	208.0834	248.4421	266.6388	269.4935	300.4467	316.783	341.4092	393.2028	438.8075	476.4837	569.9671	597.7565	664.082	757.6487	831.1962	862.8959	894.7359	919.9864	945.8494	958.7886	1009.6365	1021.948	1035.047	1057.8283	1070.8614	1117.6011	1151.1621	1223.0105	1239.5368	1245.5198	1268.1085	1295.6877	1327.3328	1351.3443	1394.3846	1411.1247	1419.5585	1429.7418	1475.2909	1479.4712	1482.3231	1486.623	1495.551	1504.366	1506.6255	1708.505	3023.3812	3023.9729	3029.0626	3042.7222	3057.9621	3071.6859	3091.3656	3095.7543	3096.8031	3099.4016	3101.8514	3112.9227	3180.2586	3806.2927
CC1=CC(O)CC1(C)C	CC1=C[C@@H](O)CC1(C)C	
InChI=1S/C8H14O/c1-6-4-7(9)5-8(6,2)3/h4,7,9H,5H2,1-3H3	InChI=1S/C8H14O/c1-6-4-7(9)5-8(6,2)3/h4,7,9H,5H2,1-3H3/t7-/m1/s1
