19
gdb 36831	4.33218	0.70758	0.66392	0.8893	86.61	-0.2343	0.0259	0.2601	1723.4123	0.159452	-381.973824	-381.964629	-381.963684	-382.009795	32.867	
C	 0.4112006845	 1.6353891814	 1.2390959436	-0.283013
C	 0.3013129638	 0.2356747525	 0.8151567638	 0.070442
C	 0.2220349972	-0.9099845275	 0.4419324261	 0.057012
C	 0.1302970301	-2.2711721084	-0.0047911355	-0.160421
C	-0.993598688	-3.13496378	 0.4706609994	-0.22482
N	-0.9616592312	-2.6852038775	-0.9228137928	-0.30604
N	 0.8914642135	 2.6085256136	 0.2491969887	-0.073071
C	 1.9171123013	 2.1915363507	-0.6998317959	-0.216952
C	 0.5163431579	 2.4289182162	-1.1485570145	-0.216896
H	-0.5695622011	 1.9844609113	 1.5853471929	 0.136242
H	 1.0838002019	 1.6971737806	 2.1037044442	 0.138354
H	 1.0774773132	-2.7537165572	-0.2318003633	 0.117749
H	-0.8157419013	-4.1967047765	 0.6156266751	 0.127092
H	-1.7089070114	-2.6885422074	 1.1547588231	 0.124758
H	-1.5996587408	-1.9017745146	-1.0427341884	 0.23931
H	 2.6951989093	 2.9243323072	-0.8933459063	 0.115718
H	 2.2489351861	 1.1559261152	-0.6756326631	 0.12104
H	-0.0617308096	 1.5471738321	-1.4160411286	 0.117915
H	 0.2474325346	 3.3389219883	-1.6772052984	 0.115579
23.3657	72.1555	77.4421	142.9462	182.4164	315.9791	330.4394	363.3627	470.127	514.815	576.5596	728.7331	754.7785	812.3226	826.798	874.0652	875.8624	959.3748	983.8276	989.949	1027.2755	1063.4723	1077.9525	1116.3358	1121.2713	1126.778	1153.6365	1173.4817	1186.3238	1214.772	1256.7602	1288.6222	1298.5421	1311.6954	1360.3052	1394.289	1465.3289	1482.5603	1504.3826	1512.0654	2341.4567	3024.6571	3056.026	3103.7102	3106.5434	3115.3756	3139.0717	3185.2773	3199.0101	3206.2199	3502.8882
C(C#CC1CN1)N1CC1	C(C#C[C@H]1CN1)N1CC1	
InChI=1S/C7H10N2/c1(2-7-6-8-7)3-9-4-5-9/h7-8H,3-6H2	InChI=1S/C7H10N2/c1(2-7-6-8-7)3-9-4-5-9/h7-8H,3-6H2/t7-/m0/s1
