16
gdb 47255	2.29129	1.70401	1.23972	5.0219	70.69	-0.2331	-0.037	0.1961	1032.3691	0.124949	-437.926211	-437.918012	-437.917068	-437.959632	29.951	
O	 0.0298098306	-0.0953171437	 0.0822792905	-0.287988
C	-0.0116452551	 1.1090797261	 0.0611387621	 0.288171
C	-1.3077915606	 1.9031425039	 0.0435420395	-0.358022
C	-1.4827620382	 2.8939915651	 1.1702562035	-0.040917
C	-0.6162881749	 3.2082940921	 2.13178343	-0.064777
C	 0.7822312429	 2.6434497586	 2.301452723	-0.237987
N	 1.5933136085	 2.6363521739	 1.0860054769	-0.301101
C	 1.2821630058	 1.944206248	-0.0381735179	 0.3319
O	 1.9225069209	 1.9683967129	-1.0704386196	-0.3592
H	-1.3504773944	 2.4414633929	-0.9161165181	 0.150381
H	-2.1366045501	 1.185853596	 0.039141134	 0.138743
H	-2.4529883627	 3.3853772258	 1.175761509	 0.107155
H	-0.9255736033	 3.9263094991	 2.8862677424	 0.103032
H	 1.3251282762	 3.2368465753	 3.0393719895	 0.126672
H	 0.7295109772	 1.6262521059	 2.7140732446	 0.149595
H	 2.4059935771	 3.2328652679	 1.0274633604	 0.254342
53.7266	85.8486	167.3305	232.5031	319.466	340.9803	385.9912	442.0582	505.8147	555.6473	635.5099	673.0124	726.0634	781.0583	837.2586	872.0177	936.6185	970.6941	1003.8514	1019.9527	1094.3041	1121.2923	1207.9602	1241.7384	1287.4401	1334.1885	1350.9743	1397.2596	1411.4048	1445.185	1458.2258	1495.4881	1727.2888	1788.5232	1821.9678	3001.3036	3011.9372	3066.5502	3108.1879	3148.6186	3173.1776	3608.0596
O=C1CC=CCNC1=O	O=C1CC=CCNC1=O	
InChI=1S/C6H7NO2/c8-5-3-1-2-4-7-6(5)9/h1-2H,3-4H2,(H,7,9)	InChI=1S/C6H7NO2/c8-5-3-1-2-4-7-6(5)9/h1-2H,3-4H2,(H,7,9)
