19
gdb 63524	3.48929	1.05927	0.95681	2.693	76.56	-0.2439	-0.0277	0.2162	1286.7448	0.15504	-423.027749	-423.018392	-423.017448	-423.061948	35.079	
C	 0.0570681032	 1.5277018491	-0.1934084569	-0.455691
C	-0.0629409433	 0.0323428771	 0.0001679458	 0.284577
C	-1.1419554879	-0.6494386523	-0.8115435454	-0.455692
O	 1.2005730587	-0.6747003042	 0.0395717946	-0.323223
C	 0.4392604932	-0.593720743	 1.2310745443	 0.384715
C	 0.974299582	 0.0552537633	 2.5220042333	-0.438206
C	 0.3635879665	-1.1359119346	 3.2874676225	 0.403099
O	 0.2415150427	-1.3979728005	 4.4472384549	-0.287496
C	-0.0684631945	-1.8381623294	 1.9844117789	-0.438206
H	 0.8783942492	 1.9371279194	 0.3983432743	 0.130604
H	 0.2469095862	 1.7599022839	-1.2468834092	 0.129273
H	-0.870832294	 2.032477367	 0.097011554	 0.122031
H	-0.982135917	-0.4715734252	-1.8804625121	 0.129272
H	-1.1401630274	-1.7282152088	-0.6423860683	 0.130605
H	-2.1305175227	-0.2548605535	-0.5523237309	 0.122031
H	 2.0678792957	 0.0837999118	 2.5758042796	 0.146232
H	 0.5826789105	 1.0387762143	 2.7974600933	 0.134922
H	-1.133457756	-2.0773364529	 1.9127098061	 0.134922
H	 0.5108972212	-2.7433241978	 1.7731070492	 0.146232
47.4469	149.6498	176.1619	180.6844	187.7947	263.8468	349.1641	389.4312	415.2191	442.6923	460.4611	520.7365	529.5407	650.6803	686.1904	719.9396	837.4721	914.7271	946.5638	955.4451	965.6006	987.819	1020.8007	1075.7421	1124.0244	1150.7192	1162.0005	1180.2004	1204.158	1233.3531	1252.1218	1407.4149	1412.9433	1417.1394	1426.3096	1469.1645	1473.3219	1484.8237	1499.3414	1530.2415	1901.7351	3033.9956	3039.0761	3050.8744	3055.8258	3095.2398	3100.2922	3106.83	3108.3801	3129.7834	3131.5356
CC1(C)OC11CC(=O)C1	CC1(C)OC21CC(=O)C2	
InChI=1S/C7H10O2/c1-6(2)7(9-6)3-5(8)4-7/h3-4H2,1-2H3	InChI=1S/C7H10O2/c1-6(2)7(9-6)3-5(8)4-7/h3-4H2,1-2H3
