21
gdb 94437	2.35694	1.39913	1.28914	2.1354	78.08	-0.2385	0.0577	0.2962	1140.9317	0.181625	-424.199051	-424.189864	-424.18892	-424.233068	34.705	
C	-0.2069656201	 1.4558263697	 0.0110675592	-0.38868
C	 0.0256876736	-0.0497544528	-0.0673178327	-0.061968
C	 1.2924766623	-0.470075914	-0.8749379047	-0.228939
C	 2.0600342147	-0.6512595426	 0.4657234464	-0.306426
C	 0.7059288727	-0.648962862	 1.1945192791	 0.427427
O	 0.5902012013	 0.0303665209	 2.4584673879	-0.31655
C	-0.1483299585	-1.0616764568	 3.0441856671	-0.09372
C	 0.1155507132	-1.9466671432	 1.820792264	-0.011057
O	-1.0544201067	-2.5026383177	 1.2742211836	-0.415998
H	 0.7090780053	 1.9922194448	 0.2801973229	 0.116682
H	-0.5522209039	 1.841290196	-0.9541174029	 0.107874
H	-0.9590438375	 1.6975584338	 0.7674780938	 0.123612
H	-0.9009553968	-0.559739256	-0.3460179567	 0.072376
H	 1.1585029545	-1.4109252625	-1.4160860399	 0.090324
H	 1.6905287522	 0.272602586	-1.5704592262	 0.099933
H	 2.6931114871	-1.5351327913	 0.5898934527	 0.090024
H	 2.6434626365	 0.2342110896	 0.7320136068	 0.117129
H	 0.2751784718	-1.382265038	 4.0016878022	 0.103798
H	-1.2129166201	-0.8284636023	 3.1696633467	 0.109997
H	 0.884275919	-2.712032712	 1.9910052018	 0.075593
H	-0.8079347405	-3.0993666495	 0.5607651189	 0.288571
71.6606	83.1247	163.7701	214.4907	233.8564	265.0319	284.8762	354.3041	404.9158	491.4904	506.8576	545.1834	712.8429	764.3682	793.9033	873.4976	881.9452	913.629	946.9546	956.0799	1004.4513	1013.1106	1034.0179	1073.8592	1106.1145	1142.9425	1160.3124	1175.6011	1180.1856	1197.7753	1208.6034	1241.7555	1249.1036	1267.1266	1303.6858	1309.7074	1337.7652	1362.4574	1411.4409	1441.1064	1474.0793	1492.3565	1494.4703	1496.3679	1517.4612	3011.7299	3023.6048	3033.3885	3049.7412	3055.1951	3065.081	3078.423	3098.5473	3100.0629	3110.6244	3115.9474	3823.1897
CC1CCC11OCC1O	C[C@H]1CC[C@]21OC[C@H]2O	
InChI=1S/C7H12O2/c1-5-2-3-7(5)6(8)4-9-7/h5-6,8H,2-4H2,1H3	InChI=1S/C7H12O2/c1-5-2-3-7(5)6(8)4-9-7/h5-6,8H,2-4H2,1H3/t5-,6+,7+/m0/s1
