21
gdb 117180	2.82498	0.86407	0.69992	2.9733	76.76	-0.2641	0.0061	0.2702	1678.8868	0.179709	-461.408653	-461.397771	-461.396827	-461.445813	38.001	
C	-0.156875181	 1.450179369	-0.0156757852	-0.392474
C	-0.0283080122	-0.0598480999	-0.0033408312	-0.047951
O	-1.3652626267	-0.6124797587	-0.0050047858	-0.238563
C	-1.4526275979	-1.944502986	 0.0045681265	 0.42364
O	-0.5031482054	-2.6956930022	 0.0070484241	-0.382374
C	-2.8926033022	-2.4428607027	 0.0262833981	 0.03029
O	-2.8959049753	-3.8383512265	-0.1536417147	-0.437982
C	-3.5938909814	-2.0402660259	 1.3383461417	-0.179138
C	-5.0420542567	-2.5300310637	 1.3834836485	-0.386092
H	 0.8379951528	 1.9050207732	-0.0146853592	 0.12739
H	-0.6903798376	 1.7897957002	-0.9076944469	 0.133576
H	-0.6984577751	 1.8036714544	 0.8660678434	 0.132856
H	 0.5055369345	-0.4361617323	-0.8811258894	 0.128315
H	 0.4989230918	-0.4224127096	 0.884213642	 0.127388
H	-3.4233299284	-1.9675143968	-0.812947879	 0.096541
H	-1.9679598633	-4.1114794473	-0.0937549206	 0.293748
H	-3.0271103903	-2.4695741414	 2.1740465647	 0.101384
H	-3.5492023749	-0.9505963651	 1.4395435233	 0.105833
H	-5.5115336782	-2.2756477564	 2.338393908	 0.110291
H	-5.6378954397	-2.074027946	 0.5847713503	 0.112667
H	-5.081666913	-3.6145657463	 1.2563531214	 0.140655
38.8637	68.347	93.6865	100.6047	155.8932	211.1081	238.3082	262.3473	306.19	342.7042	363.7836	392.7705	424.0841	516.7256	673.019	773.2823	799.655	808.9318	884.5013	894.6295	963.7337	1001.6919	1049.4356	1076.6126	1126.6639	1135.4216	1160.7245	1181.6951	1241.5118	1286.2128	1292.7063	1298.4699	1339.1464	1378.2368	1398.2176	1407.905	1421.5751	1455.211	1480.6555	1485.4872	1495.982	1496.2138	1510.5024	1518.8464	1795.6055	2991.9815	3030.984	3037.2935	3048.0896	3056.3856	3078.9129	3095.7679	3102.9073	3122.9684	3128.6757	3129.4227	3711.6255
CCOC(=O)C(O)CC	CCOC(=O)[C@@H](O)CC	
InChI=1S/C6H12O3/c1-3-5(7)6(8)9-4-2/h5,7H,3-4H2,1-2H3	InChI=1S/C6H12O3/c1-3-5(7)6(8)9-4-2/h5,7H,3-4H2,1-2H3/t5-/m0/s1
