18
gdb 14160	3.40076	2.28715	1.87835	1.2847	71.54	-0.2364	0.0034	0.2398	789.1559	0.154548	-347.773434	-347.766535	-347.765591	-347.803839	28.754	
C	-0.1391364701	 1.5741783695	 0.001943974	-0.443651
C	-0.0110001273	 0.057196429	-0.007820089	 0.456767
O	-1.3111241351	-0.406122498	-0.2277882725	-0.484391
C	 1.1766087069	-0.5720088573	-0.870985058	-0.123854
C	 2.1088528839	-0.20226643	 0.3303183632	-0.222977
C	 0.8475619967	-0.6128450989	 1.1606867425	-0.123884
C	 0.7425886402	-2.0849219248	 0.7508496465	-0.108802
C	 0.9570178438	-2.0583184012	-0.5731717246	-0.108884
H	 0.8041366582	 2.0935565178	 0.1668896077	 0.116145
H	-0.5569456415	 1.9055447611	-0.9536539005	 0.126367
H	-0.8417545471	 1.8700588422	 0.7869904017	 0.126408
H	-1.2621145264	-1.3715256088	-0.2395441537	 0.269588
H	 1.3799298245	-0.2638917372	-1.896634712	 0.059565
H	 2.9890003234	-0.8339106617	 0.4601758586	 0.097698
H	 2.3838512636	 0.851070956	 0.3959995621	 0.098997
H	 0.7149408808	-0.3464265229	 2.2093346841	 0.05957
H	 0.5301961851	-2.9220395471	 1.4010199289	 0.102668
H	 0.9659404204	-2.8679808978	-1.2893869089	 0.102668
158.5161	215.7796	300.2611	372.3828	412.0211	503.6393	507.7074	554.5205	581.3059	615.1249	744.4504	762.4799	810.1268	821.1167	868.3203	918.4786	923.6305	936.1947	962.0838	981.6774	1029.3103	1071.936	1075.2692	1106.4847	1128.4981	1142.7468	1207.5503	1211.4667	1229.8712	1243.672	1260.5154	1325.1315	1382.9044	1419.7491	1479.7317	1490.0912	1512.5326	1606.9834	3048.9602	3079.3785	3108.8434	3115.4152	3119.033	3136.2488	3155.785	3216.2997	3242.5247	3741.8233
CC1(O)C2CC1C=C2	C[C@@]1(O)[C@H]2C[C@@H]1C=C2	
InChI=1S/C7H10O/c1-7(8)5-2-3-6(7)4-5/h2-3,5-6,8H,4H2,1H3	InChI=1S/C7H10O/c1-7(8)5-2-3-6(7)4-5/h2-3,5-6,8H,4H2,1H3/t5-,6+,7-
