17
gdb 110792	2.66283	1.37036	1.16747	3.7723	67.29	-0.2715	0.0027	0.2741	1093.7456	0.136727	-458.983204	-458.975244	-458.9743	-459.016604	29.83	
O	-0.0366960092	 1.4457629335	 0.2680438338	-0.414986
C	-0.0506005728	 0.1757625311	-0.3603976205	-0.097857
C	-1.3752070953	-0.5332596438	-0.1657333483	-0.078561
C	-1.5468615525	-2.0466649284	-0.0955083144	-0.111613
C	-0.3475984758	-2.9167591147	 0.2138284095	-0.38098
C	 0.1581370717	-2.4209862769	 1.5731308474	 0.417604
O	 1.1271908275	-2.7667128668	 2.1774363936	-0.322397
O	-0.6823018717	-1.4416101437	 2.0428530377	-0.219173
C	-1.7401182977	-1.1954905374	 1.1337787254	 0.063486
H	-0.0842761083	 1.2935010977	 1.2182634265	 0.29256
H	 0.1071615252	 0.3651332364	-1.4271070455	 0.119184
H	 0.791695023	-0.4423126609	-0.0213263208	 0.105673
H	-2.2089870155	-0.0201738791	-0.6379890533	 0.10691
H	-2.3935397137	-2.48934948	-0.6048169013	 0.107165
H	-0.6296613996	-3.9698898476	 0.3115325895	 0.146901
H	 0.4722189358	-2.8704845585	-0.5077614367	 0.148579
H	-2.6844031811	-1.0295018908	 1.6361462175	 0.117505
41.8706	108.5053	153.1666	250.3374	325.0379	371.204	482.0885	483.0693	565.7535	577.3689	687.8731	730.7993	792.1063	798.9293	832.4485	907.8655	954.4294	978.1768	1029.526	1066.1136	1069.8156	1083.0197	1103.4566	1126.1594	1150.7977	1189.952	1203.9283	1245.6216	1291.1035	1343.2075	1350.9615	1395.9888	1420.4281	1439.9148	1462.5199	1507.9225	1890.9156	3015.6893	3064.5245	3076.4004	3104.4038	3148.5159	3186.9657	3199.4352	3807.9401
OCC1C2CC(=O)OC12	OC[C@H]1[C@H]2CC(=O)O[C@@H]12	
InChI=1S/C6H8O3/c7-2-4-3-1-5(8)9-6(3)4/h3-4,6-7H,1-2H2	InChI=1S/C6H8O3/c7-2-4-3-1-5(8)9-6(3)4/h3-4,6-7H,1-2H2/t3-,4+,6-/m1/s1
