17
gdb 44681	2.51996	1.79112	1.4054	2.7356	73.13	-0.2293	-0.0256	0.2036	966.826	0.137002	-421.832047	-421.824744	-421.8238	-421.863946	28.463	
O	-0.117825033	-0.0573617849	 0.0538202858	-0.297296
C	-0.1036310973	 1.1378373928	 0.0306546253	 0.359177
C	-1.1842111855	 2.2319598946	 0.1492730881	-0.349742
C	-0.0575980827	 3.1794234722	 0.6895002315	-0.130546
C	 0.0311599849	 3.1812781626	 2.1858293863	-0.064109
C	 0.9505763777	 2.476369426	 2.8441335829	-0.070604
C	 2.0201653012	 1.6662832025	 2.166954403	-0.127614
O	 2.2032850974	 1.99547055	 0.7942785577	-0.256305
C	 1.0179479492	 2.2092087419	 0.0982629935	 0.031093
H	-1.5638191051	 2.5357598601	-0.8315090061	 0.129173
H	-2.0251150374	 2.0106955305	 0.8086504809	 0.132166
H	-0.0685629866	 4.1893665232	 0.2733210184	 0.086122
H	-0.7164821485	 3.7521965273	 2.7313645702	 0.095543
H	 0.9572186969	 2.4534335544	 3.9307743029	 0.099648
H	 2.9904530363	 1.8440686008	 2.6437355535	 0.121856
H	 1.802329756	 0.5908974251	 2.2717906311	 0.127815
H	 1.2949922863	 2.5025727308	-0.920753295	 0.113623
87.7845	131.1223	249.4279	278.7389	402.172	448.1795	490.3502	522.7009	611.7778	698.6578	720.3918	730.5904	793.353	869.9283	894.3871	912.2502	968.8891	1003.3936	1018.1746	1030.8529	1056.1271	1066.6284	1109.4969	1154.3077	1175.5178	1213.3376	1222.3954	1255.754	1267.0813	1341.9315	1354.7373	1411.5401	1414.4215	1444.7569	1492.6243	1720.4851	1890.0922	2977.8142	3051.6399	3060.7735	3061.8861	3081.0371	3129.8021	3147.4759	3172.0016
O=C1CC2C=CCOC12	O=C1C[C@H]2C=CCO[C@@H]12	
InChI=1S/C7H8O2/c8-6-4-5-2-1-3-9-7(5)6/h1-2,5,7H,3-4H2	InChI=1S/C7H8O2/c8-6-4-5-2-1-3-9-7(5)6/h1-2,5,7H,3-4H2/t5-,7-/m1/s1
