17
gdb 64982	2.5152	1.21573	1.06528	3.3042	70.94	-0.2687	-0.0208	0.2479	1197.0752	0.134087	-455.140763	-455.131412	-455.130467	-455.175935	32.876	
C	-0.2367230026	 1.3830723902	-0.2197841879	-0.472817
C	-0.2391829384	-0.1229866581	-0.0488136468	 0.259755
C	 0.8695363689	-0.9448918124	-0.5779140765	-0.26376
N	 0.7251498804	-0.7562102113	 0.880850367	-0.354069
C	-1.6029606701	-0.7472871573	 0.0238794719	 0.327727
N	-2.0498812962	-1.5367207968	-0.8473294037	-0.459795
O	-2.3968951312	-0.2989617385	 1.0837641699	-0.21739
C	-2.0002652649	-0.5259802393	 2.3790934116	 0.139628
O	-2.6262546385	-0.0917981668	 3.294324772	-0.254859
H	 0.7907962209	 1.7570995251	-0.2653248999	 0.121208
H	-0.7437390761	 1.6696123288	-1.1466535699	 0.145467
H	-0.7495147415	 1.8785095384	 0.6102007641	 0.144783
H	 0.6652296771	-1.9485499414	-0.932981115	 0.147217
H	 1.679297911	-0.4280007583	-1.0851001351	 0.119833
H	 1.3843519834	-0.0557797527	 1.2139093315	 0.237102
H	-3.0016745962	-1.8282981239	-0.6139006547	 0.238265
H	-1.0884246461	-1.1369233056	 2.4420513313	 0.141705
39.6341	75.2678	111.2586	197.8236	210.944	233.6858	281.6947	324.0689	347.3001	461.2121	503.6683	621.7393	711.43	750.0827	853.8657	883.438	930.9202	948.9738	983.4243	1002.5574	1038.4437	1052.2509	1062.3671	1097.3664	1127.5262	1149.465	1260.9368	1272.4824	1340.2118	1396.8877	1416.6846	1427.2764	1480.2645	1501.9689	1514.7803	1764.2768	1866.8528	3036.8521	3052.4305	3109.2287	3112.5478	3125.2139	3221.1968	3466.8423	3489.9786
CC1(CN1)C(=N)OC=O	C[C@]1(CN1)[C]([NH])OC=O	
InChI=1S/C5H8N2O2/c1-5(2-7-5)4(6)9-3-8/h3,6-7H,2H2,1H3	InChI=1S/C5H8N2O2/c1-5(2-7-5)4(6)9-3-8/h3,6-7H,2H2,1H3/t5-/m0/s1
