17
gdb 124708	3.95108	0.99111	0.96363	2.4417	69.81	-0.2851	-0.0221	0.263	1264.0159	0.136553	-451.307579	-451.298785	-451.297841	-451.342445	30.68	
C	 0.0102768372	 1.5615884379	-0.0345385787	-0.397569
C	-0.0005394043	 0.035182048	 0.033481569	 0.047196
C	 0.7291513213	-0.512329687	 1.2674342593	-0.084361
O	 2.0845238399	-0.1256133287	 1.1362055365	-0.414791
N	-1.3701585103	-0.4871167808	 0.0185534775	 0.130769
N	-1.8373123824	-1.2846217942	-0.9355471386	-0.240553
C	-3.0806628815	-1.4893378756	-0.5164545055	 0.071155
N	-3.3560328704	-0.8484016809	 0.6400290207	-0.204885
N	-2.2553020646	-0.2140105246	 0.9678689719	-0.132957
H	 1.0450668574	 1.9070703987	-0.0026722343	 0.148583
H	-0.4554948917	 1.91344161	-0.9585859948	 0.130226
H	-0.531600546	 1.9870744266	 0.814200674	 0.144504
H	 0.4662345445	-0.3890227175	-0.857687336	 0.133662
H	 0.2663091946	-0.1003852865	 2.1752246723	 0.11879
H	 0.6169227321	-1.6065167133	 1.2945301245	 0.105084
H	 2.5506142886	-0.373402191	 1.9395399788	 0.297497
H	-3.7901569244	-2.1021857711	-1.0480356465	 0.14765
26.0931	103.9506	117.9189	202.5786	223.6926	236.4253	297.8467	375.4278	400.9507	495.612	715.207	730.947	747.3346	889.1902	899.4492	940.8847	1016.6796	1030.0152	1054.6006	1086.5476	1119.1077	1156.6716	1167.6061	1198.7306	1242.3412	1263.9427	1279.5016	1319.6757	1357.5273	1378.0983	1395.9498	1405.8158	1459.0471	1489.1447	1492.7884	1501.7707	1525.7336	2989.3762	3032.4214	3055.8168	3106.3285	3132.822	3149.045	3288.0407	3841.2759
CC(CO)N1N=CN=N1	C[C@@H](CO)n1ncnn1	
InChI=1S/C4H8N4O/c1-4(2-9)8-6-3-5-7-8/h3-4,9H,2H2,1H3	InChI=1S/C4H8N4O/c1-4(2-9)8-6-3-5-7-8/h3-4,9H,2H2,1H3/t4-/m0/s1
