19
gdb 54336	1.91758	1.74994	1.15249	2.1171	81.87	-0.2402	-0.0172	0.223	1143.3832	0.156452	-385.868411	-385.858818	-385.857874	-385.903047	35.419	
C	-0.1003836903	 1.508151792	-0.0279965403	-0.48506
C	 0.0570855193	 0.0027736167	 0.0277904933	 0.336853
O	 0.257446519	-0.5856211557	 1.0643030979	-0.300963
C	 0.0100997752	-0.7553162726	-1.3137892066	 0.053675
C	 1.4947475918	-0.8782493694	-1.8604203061	-0.256641
C	 1.5670511375	-2.3068367549	-1.2672987979	-0.214784
C	 0.02528617	-2.3071531129	-1.1122714154	-0.250495
C	-0.9705528841	-0.2118164233	-2.2316554806	 0.205049
C	-1.7862374706	 0.2150130617	-3.0068248893	-0.413952
H	 0.4998581092	 1.9398857134	-0.8349324054	 0.140474
H	-1.1436618786	 1.7544003279	-0.2503489962	 0.159408
H	 0.181864311	 1.9406647199	 0.9323534699	 0.139232
H	 1.4959110696	-0.864720135	-2.9518198105	 0.120591
H	 2.2081157042	-0.1342743398	-1.4964697644	 0.110352
H	 2.0010632478	-3.0759801052	-1.908522181	 0.1024
H	 2.0703962199	-2.3258083761	-0.2992675939	 0.124848
H	-0.3758423127	-2.6444124295	-0.1567917277	 0.126391
H	-0.4857879111	-2.8106142559	-1.9343995899	 0.109713
H	-2.507323177	 0.5918860387	-3.6892548857	 0.192909
50.6556	120.6169	129.4699	151.7308	173.8534	217.0199	286.7057	369.3325	483.6369	515.107	528.931	569.5914	614.0174	619.8582	635.2102	685.2735	790.9457	815.7261	873.2391	940.4708	953.8624	964.4872	987.5592	1049.3923	1080.0659	1106.5282	1199.8156	1208.4536	1218.4462	1255.4313	1266.8921	1283.1778	1299.0205	1381.3868	1458.0706	1463.8153	1469.8248	1480.0141	1499.1825	1805.4836	2225.311	3047.1895	3063.1184	3078.7296	3085.609	3110.6308	3117.3681	3135.2898	3152.7853	3155.7734	3500.2677
CC(=O)C1(CCC1)C#C	CC(=O)C1(CCC1)C#C	
InChI=1S/C8H10O/c1-3-8(7(2)9)5-4-6-8/h1H,4-6H2,2H3	InChI=1S/C8H10O/c1-3-8(7(2)9)5-4-6-8/h1H,4-6H2,2H3
