16
gdb 123953	3.492	1.63473	1.15691	2.0452	69.77	-0.2264	0.0003	0.2266	1007.3545	0.129001	-434.081439	-434.074746	-434.073802	-434.112506	26.306	
C	-0.009563118	 1.515122808	-0.0015308206	-0.228633
C	 1.4226165459	 2.0591159751	 0.0558830426	-0.079344
O	 2.121397079	 1.6829829992	 1.2562451486	-0.260132
C	 1.9375630029	 0.3867743211	 1.563839195	 0.371919
N	 2.6637731479	-0.2576652439	 2.4682607695	-0.313617
N	 2.1088043365	-1.4745890371	 2.4439158643	-0.093659
N	 1.097572534	-1.6627158299	 1.605901182	-0.29082
C	 0.9633592241	-0.4725184905	 1.0206697599	 0.223596
C	-0.0280727724	-0.0293029136	-0.0048787939	-0.332827
H	-0.5617397081	 1.8917532817	 0.866912833	 0.122241
H	-0.4986388081	 1.9124350696	-0.8963627829	 0.109432
H	 1.9990397195	 1.7051929179	-0.8109760755	 0.110337
H	 1.4314198384	 3.1507678239	 0.0518833764	 0.122714
H	 2.4460692198	-2.2119159331	 3.0389810165	 0.292143
H	-1.0299306776	-0.4098291371	 0.2158757016	 0.126096
H	 0.2411455362	-0.4088676113	-0.9988623466	 0.120553
121.6209	223.9437	315.726	367.1511	417.6293	427.8323	460.3043	541.8239	683.3535	702.4254	724.0592	749.8436	870.6638	881.6499	934.2454	987.8464	1010.1722	1074.1228	1098.8084	1185.4303	1199.5541	1209.0647	1221.9108	1256.7318	1298.73	1342.9861	1368.8898	1396.8243	1403.8179	1461.592	1476.6291	1486.1416	1501.8228	1568.2343	1599.1892	3007.5448	3025.2665	3045.5173	3081.1158	3095.3106	3113.4638	3685.9331
C1COC2=NNN=C2C1	C1COc2n[nH]nc2C1	
InChI=1S/C5H7N3O/c1-2-4-5(9-3-1)7-8-6-4/h1-3H2,(H,6,7,8)	InChI=1S/C5H7N3O/c1-2-4-5(9-3-1)7-8-6-4/h1-3H2,(H,6,7,8)
