19
gdb 80018	2.27763	2.01504	1.36283	2.6911	75.94	-0.2291	0.0132	0.2422	990.3747	0.159189	-422.99271	-422.984821	-422.983877	-423.024197	32.998	
C	-0.113218554	 1.6062340822	-0.0529891669	-0.475569
C	 0.0145298909	 0.0910625524	-0.0222493099	 0.447074
O	-1.2734785091	-0.4733732625	-0.3040870348	-0.496072
C	 1.2024272316	-0.6350825221	-0.7768451445	-0.199272
C	 2.39736374	-0.0393493614	-0.0620021208	-0.097108
C	 2.0340275785	-0.0522774714	 1.2317414482	-0.098662
C	 0.643238874	-0.6551593942	 1.2105714934	-0.168353
C	 0.9412271645	-1.8707019917	 0.2104237371	 0.190067
O	-0.0456476721	-2.7947290824	-0.0778349373	-0.445456
H	 0.8242508994	 2.1042620455	 0.1915489053	 0.133954
H	-0.4193491779	 1.9384100577	-1.0538745404	 0.103222
H	-0.8839420862	 1.9276299606	 0.6544618739	 0.125617
H	-1.5992196747	-0.0769308231	-1.1195945805	 0.284007
H	 1.2156828013	-0.747636585	-1.8619068105	 0.056293
H	 3.3259272939	 0.2790475467	-0.5146717848	 0.100309
H	 2.5890718263	 0.2494821554	 2.1086171091	 0.100772
H	 0.0873848911	-0.7848118698	 2.1390413861	 0.066898
H	 1.8476610641	-2.4258926178	 0.4588398502	 0.085591
H	-0.8482421315	-2.2857779491	-0.2664268629	 0.286687
194.016	221.372	276.6718	307.6481	323.5656	347.4345	397.6637	428.1228	465.2109	567.3333	606.4067	621.6619	650.571	709.0207	719.3738	842.6885	851.2588	907.8565	915.494	924.2224	933.7706	963.9936	997.9499	1073.2971	1097.8466	1124.65	1128.2412	1150.4523	1176.8314	1204.7845	1218.7756	1226.0871	1243.9188	1321.1595	1335.501	1366.4781	1403.6705	1477.0376	1486.3363	1498.6063	1603.5183	3023.0212	3091.3266	3098.5539	3109.3769	3123.7226	3153.7288	3216.2675	3241.466	3703.7971	3804.1435
CC1(O)C2C=CC1C2O	C[C@@]1(O)[C@H]2C=C[C@@H]1[C@H]2O	
InChI=1S/C7H10O2/c1-7(9)4-2-3-5(7)6(4)8/h2-6,8-9H,1H3	InChI=1S/C7H10O2/c1-7(9)4-2-3-5(7)6(4)8/h2-6,8-9H,1H3/t4-,5+,6-,7+
