19
gdb 51471	2.69443	1.46021	1.26032	3.5152	74.23	-0.2355	-0.0085	0.2271	1068.0382	0.159732	-423.017452	-423.00922	-423.008275	-423.050787	30.686	
O	 1.2945005678	-0.03857136	 0.055927488	-0.258311
C	 0.839343413	 0.9273503157	-0.50130779	 0.186418
C	 0.9470334923	 2.3468658825	 0.0334829845	-0.321469
C	 1.2366136842	 3.3961904732	-1.032024466	-0.078098
C	 2.6041375846	 4.0583392481	-1.2059191401	-0.09303
C	 3.8240817743	 3.4194371186	-0.5619519218	-0.254229
C	 3.8387800461	 1.9732623986	-1.1168970371	-0.092191
O	 2.8635762666	 1.9004219226	-2.1726024748	-0.254129
C	 2.1144101854	 3.082599008	-2.2266079448	 0.081556
H	 0.2610127527	 0.8327379603	-1.4468003715	 0.080455
H	-0.0274739846	 2.57261105	 0.4872880963	 0.127652
H	 1.6732457667	 2.344063575	 0.8521220346	 0.121529
H	 0.4105328676	 4.0658276718	-1.2525534882	 0.092688
H	 2.626649207	 5.1241614573	-1.399733344	 0.093713
H	 4.7181047486	 3.9711558653	-0.8669224048	 0.112974
H	 3.7955220608	 3.4275009997	 0.532406435	 0.11318
H	 4.8103784509	 1.6931730404	-1.5366425928	 0.110774
H	 3.5764023423	 1.2391586348	-0.3478053101	 0.128464
H	 1.8128350237	 3.3403150281	-3.2356409826	 0.102056
70.2636	117.4918	134.2402	169.2459	234.1109	302.0594	433.3221	496.8665	632.1145	705.9415	718.2404	737.5303	756.9523	815.3245	843.9812	901.6744	949.4539	972.0891	1001.7624	1015.8676	1050.989	1065.5053	1089.6993	1102.3807	1132.3866	1142.3618	1204.055	1225.956	1226.8053	1249.0583	1294.1369	1305.5004	1313.9564	1360.7996	1401.8203	1417.5597	1426.0501	1466.1587	1502.6945	1540.8097	1825.1931	2889.6386	3026.8366	3041.1715	3052.8379	3072.1647	3085.2469	3096.2265	3145.2009	3170.3068	3182.0909
O=CCC1C2CCOC12	O=CC[C@H]1[C@H]2CCO[C@@H]12	
InChI=1S/C7H10O2/c8-3-1-5-6-2-4-9-7(5)6/h3,5-7H,1-2,4H2	InChI=1S/C7H10O2/c8-3-1-5-6-2-4-9-7(5)6/h3,5-7H,1-2,4H2/t5-,6+,7-/m0/s1
