19
gdb 67010	2.16651	1.71119	1.56753	3.5811	79.8	-0.2285	0.0137	0.2422	1014.707	0.158316	-385.877105	-385.868585	-385.867641	-385.909882	32.587	
C	-0.0881906632	 1.5524412292	-0.0958382495	-0.524077
C	 0.0434580925	 0.0682468324	-0.0093608829	 0.300646
C	 0.591511596	-1.0110522008	-0.8818310345	-0.120076
C	 1.3328715618	-1.6825987342	 0.2749421899	-0.280605
C	 0.3519075066	-0.9226317676	 1.215143645	 0.126695
C	 0.68289089	-0.5677451866	 2.6372029694	-0.503537
C	-1.0206024855	-1.5300167951	 0.8543050887	 0.416532
O	-1.9162375004	-1.9659891564	 1.5262897446	-0.355538
C	-0.9102228754	-1.034234989	-0.5472399301	-0.244423
H	 0.8492255734	 2.0516636731	 0.1739911761	 0.129099
H	-0.3487156414	 1.8603404419	-1.1137266829	 0.130684
H	-0.8702797436	 1.9240922433	 0.5752325492	 0.135297
H	 0.8927335877	-0.9365338844	-1.9200287346	 0.095892
H	 1.3355971322	-2.7771861112	 0.3357164967	 0.101104
H	 2.3552619551	-1.3034857148	 0.3661896337	 0.103384
H	 1.60674445	 0.0162793751	 2.7041678925	 0.115755
H	-0.125101862	 0.0073818124	 3.1003435504	 0.130801
H	 0.8167079655	-1.4778682029	 3.2318099513	 0.135834
H	-1.6744700694	-0.9309593644	-1.3056304526	 0.106534
111.7218	148.8319	174.8162	194.8468	215.5548	276.1646	359.4414	425.7617	487.4539	586.8044	624.4778	658.2363	707.4774	756.7588	768.4757	842.3344	883.3388	905.0961	954.9064	972.3719	995.7143	1018.644	1070.9275	1099.2951	1121.6682	1125.0752	1170.9485	1176.1261	1211.568	1247.0956	1291.7351	1350.1251	1409.5959	1413.6767	1444.36	1483.2851	1487.5249	1488.0399	1495.166	1499.6843	1866.0145	3026.409	3030.7964	3033.577	3087.6718	3091.2652	3098.2216	3099.211	3104.1851	3185.0471	3215.3023
CC12C3CC1(C)C(=O)C23	C[C@@]12[C@H]3C[C@]1(C)C(=O)[C@@H]23	
InChI=1S/C8H10O/c1-7-3-4-5(6(7)9)8(4,7)2/h4-5H,3H2,1-2H3	InChI=1S/C8H10O/c1-7-3-4-5(6(7)9)8(4,7)2/h4-5H,3H2,1-2H3/t4-,5-,7+,8-/m0/s1
