18
gdb 7481	4.12901	1.29979	1.21688	4.2807	68.71	-0.2684	0.0092	0.2776	1054.9378	0.152424	-384.959507	-384.951237	-384.950293	-384.992211	30.427	
C	-0.0077393085	 1.657094278	 0.0841579513	-0.433524
C	-0.0247195685	 0.1362197753	 0.0070083889	 0.40746
C	 1.0514579696	-0.4832929931	-0.934028799	-0.267879
C	 1.929373533	-0.751670977	 0.3187621813	-0.223354
C	 0.6641640055	-0.5640461158	 1.2007932445	-0.259432
O	-1.383229716	-0.3259075876	-0.1545618364	-0.232174
C	-1.9446018253	-0.2287820566	-1.3701978831	 0.154658
O	-3.0766808639	-0.5489805608	-1.5877070861	-0.281541
H	 1.003093964	 2.0202908018	 0.2926274024	 0.125758
H	-0.3396683225	 2.1074229296	-0.857113198	 0.122104
H	-0.6705900417	 2.0001501635	 0.8840113552	 0.136423
H	 0.6922856976	-1.4152659993	-1.3778141234	 0.118405
H	 1.4572391926	 0.1553211235	-1.7223829494	 0.104597
H	 2.4286313337	-1.7201804578	 0.3707219958	 0.111413
H	 2.6748126416	 0.0303931196	 0.4816939394	 0.110915
H	 0.7556363662	 0.0101957693	 2.1255382162	 0.104487
H	 0.1700757924	-1.5139913482	 1.4156625411	 0.12315
H	-1.2561384099	 0.1623516257	-2.1428243107	 0.078536
91.0299	141.4205	166.925	179.7549	259.8319	310.9435	344.9622	406.7964	464.7514	510.8227	696.6842	764.9816	795.1881	870.8639	918.6847	931.4505	940.6728	969.9384	993.4774	1048.2508	1052.9093	1163.9544	1185.3686	1194.389	1197.7665	1231.645	1253.2831	1279.2423	1288.4816	1306.0728	1411.6888	1435.7933	1469.9154	1481.6797	1489.7167	1495.0461	1506.5656	1856.7286	2958.5618	3037.617	3061.1869	3069.1287	3074.3347	3108.5516	3112.1996	3118.2558	3122.9699	3136.024
CC1(CCC1)OC=O	CC1(CCC1)OC=O	
InChI=1S/C6H10O2/c1-6(8-5-7)3-2-4-6/h5H,2-4H2,1H3	InChI=1S/C6H10O2/c1-6(8-5-7)3-2-4-6/h5H,2-4H2,1H3
