20
gdb 83432	2.89033	1.2749	1.12235	1.82	79.35	-0.2319	0.0697	0.3016	1174.582	0.171814	-403.082154	-403.073675	-403.072731	-403.115565	32.719	
O	-0.6173975284	 1.579020172	-0.0967052059	-0.424881
C	-0.3764901722	 0.1994784608	-0.1028581109	 0.034412
C	-0.4328153158	-0.6608984239	 1.1309592166	-0.173659
C	-1.4636683126	-0.1084058147	 2.1181540039	-0.220282
C	-2.5546616175	-0.1819891994	 1.007182499	-0.279562
C	-1.5193670027	-0.7494184573	 0.0168254476	 0.336599
C	-1.8616205059	-1.8162753307	-0.9637990472	-0.122811
C	-2.2315072596	-1.4642786502	-2.3627203523	-0.236335
N	-0.9846386327	-2.1948493747	-2.0827510749	-0.324719
H	 0.1286504355	 2.0101001011	 0.3337957315	 0.287488
H	 0.4013150753	-0.109038556	-0.8045716605	 0.078198
H	 0.3694559293	-1.3520684139	 1.3665050779	 0.086
H	-1.664225435	-0.7888625853	 2.9478897066	 0.102773
H	-1.2493886071	 0.8853408075	 2.5218825935	 0.093716
H	-3.3349577712	-0.9100720349	 1.2409685017	 0.101843
H	-3.0206866746	 0.7598998591	 0.7099653845	 0.111832
H	-2.3610819929	-2.6760892255	-0.5188354167	 0.087091
H	-2.9910871137	-2.0348950387	-2.8897819879	 0.116274
H	-2.1668157002	-0.4163840721	-2.6441482387	 0.118923
H	-0.1972835379	-1.5541388633	-2.1442325078	 0.227101
48.6576	133.7257	210.366	218.159	246.6257	296.6835	347.4844	419.2828	486.9871	572.2415	653.5139	760.9276	792.9702	802.0807	820.3549	867.3769	908.0781	946.9681	959.0154	963.6514	997.9689	1007.1336	1042.841	1072.5072	1091.0926	1127.8515	1138.8628	1157.8293	1188.7891	1207.1597	1224.6887	1248.1419	1254.7304	1274.3338	1288.1509	1295.5035	1303.0579	1347.2134	1415.0247	1470.1081	1478.3671	1506.2882	1510.2738	3056.4129	3067.1948	3077.0014	3105.6127	3106.6005	3109.7955	3124.6816	3167.4732	3194.7642	3501.7499	3803.1632
OC1C2CCC12C1CN1	O[C@H]1[C@H]2CC[C@@]12[C@H]1CN1	
InChI=1S/C7H11NO/c9-6-4-1-2-7(4,6)5-3-8-5/h4-6,8-9H,1-3H2	InChI=1S/C7H11NO/c9-6-4-1-2-7(4,6)5-3-8-5/h4-6,8-9H,1-3H2/t4-,5-,6+,7-/m1/s1
