18
gdb 13254	7.76866	0.83996	0.79298	2.892	69.54	-0.2559	-0.0271	0.2288	1413.8217	0.151791	-384.926029	-384.917438	-384.916494	-384.960635	29.77	
O	 0.0903165388	 0.0775278987	 0.8109042215	-0.238438
C	 0.1444118888	 1.140190434	 0.2518313546	 0.139027
C	 1.4379071107	 1.7770217328	-0.2256583185	-0.156772
O	 1.1192219372	 2.9759819011	-0.8848318016	-0.256598
C	 2.2402475751	 3.7024171858	-1.3233704492	 0.179846
C	 3.0169769042	 3.2159619261	-2.5803170147	-0.247943
C	 3.0801602314	 4.7011332004	-3.0353392335	-0.21803
C	 1.9058691905	 5.0095330004	-2.0649186353	-0.25171
H	-0.7577861633	 1.7549612553	 0.0384741016	 0.096623
H	 2.088457438	 1.9485998382	 0.6497800052	 0.120767
H	 1.9636267455	 1.0632121341	-0.8802467246	 0.12562
H	 2.9284322322	 3.8769841844	-0.4811547835	 0.067659
H	 3.955822755	 2.6761879108	-2.4383977595	 0.098631
H	 2.3551837007	 2.628693551	-3.2240465649	 0.110101
H	 4.0087764367	 5.1848591672	-2.7211720294	 0.107539
H	 2.9231622413	 4.9078620225	-4.0951131587	 0.106345
H	 0.937156455	 4.9109440254	-2.5625033299	 0.115666
H	 1.9237531921	 5.9410618318	-1.4958392397	 0.101665
48.6289	60.833	101.3557	115.7943	183.8923	310.1915	361.3284	453.735	558.2904	645.2677	740.0165	768.6199	787.3316	902.5001	925.0985	948.0111	972.966	1033.5853	1064.2284	1085.2161	1114.7467	1155.3292	1187.1487	1193.7143	1236.2518	1246.7741	1248.7058	1260.4282	1274.2641	1305.1848	1342.9746	1392.4188	1417.6315	1472.3516	1482.8673	1487.7427	1510.9504	1845.1911	2899.0067	2959.478	2976.7443	2997.2376	3057.7011	3066.1797	3069.6178	3110.794	3118.9486	3131.4794
O=CCOC1CCC1	O=CCOC1CCC1	
InChI=1S/C6H10O2/c7-4-5-8-6-2-1-3-6/h4,6H,1-3,5H2	InChI=1S/C6H10O2/c7-4-5-8-6-2-1-3-6/h4,6H,1-3,5H2
