21
gdb 71577	3.03185	1.46077	1.45994	1.3143	81.91	-0.2509	0.0803	0.3312	1038.0854	0.183645	-387.06805	-387.060332	-387.059388	-387.099422	32.628	
C	-0.0473166958	 1.4879138134	 0.0882046405	-0.503549
C	 0.0308109478	-0.0189108941	 0.0317526315	 0.342279
C	 0.9204644143	-0.7657708954	-1.0080472719	-0.277434
C	 0.8476996372	-1.9116558309	 0.0066701244	-0.100755
C	 0.7436055703	-0.8858745326	 1.1735863026	-0.067683
C	-0.2926002342	-1.7711575247	 1.8837767812	-0.308494
C	-0.6793430556	-2.147806635	 0.4269893401	 0.409703
O	-1.4139703056	-3.2806229569	 0.0922813225	-0.489085
C	-1.2809316645	-0.830606039	-0.0831343361	-0.281038
H	 0.9484330444	 1.9354298233	 0.1806257357	 0.111161
H	-0.510924972	 1.8931472462	-0.8191309253	 0.115978
H	-0.6456208401	 1.8235522392	 0.9431127346	 0.113929
H	 0.519464886	-0.9037268594	-2.0180776101	 0.089108
H	 1.9317515223	-0.3496633912	-1.0678253133	 0.089755
H	 1.5151099825	-2.774317998	 0.0246456701	 0.055062
H	 1.6140033677	-0.4558501975	 1.6668456227	 0.06382
H	 0.2042660718	-2.5940758841	 2.4109376887	 0.08454
H	-1.0620464677	-1.3294062071	 2.5254208358	 0.09047
H	-0.9934841828	-4.045200078	 0.4986834883	 0.276441
H	-2.0899618876	-0.4697729139	 0.5593882372	 0.089391
H	-1.6487884284	-0.8961009645	-1.1109986791	 0.096401
205.591	216.3797	237.4442	292.7749	331.0294	374.6939	447.0524	465.4655	487.7813	547.2299	649.3252	652.498	711.7311	817.9898	841.3941	863.1819	894.9027	901.3078	939.9241	972.1173	983.112	989.8117	1015.383	1027.59	1050.9143	1103.1528	1121.2821	1127.038	1171.6147	1181.6245	1191.779	1219.8753	1232.5697	1238.177	1248.1306	1283.5909	1309.7559	1354.1891	1395.7491	1411.7878	1482.8797	1490.5918	1493.1965	1497.2196	1519.4138	3019.832	3029.7125	3032.2906	3050.0737	3083.6547	3084.6386	3085.1697	3089.8189	3099.5471	3104.0156	3127.144	3814.7822
CC12CC3C1CC3(O)C2	C[C@@]12C[C@H]3[C@@H]1C[C@@]3(O)C2	
InChI=1S/C8H12O/c1-7-2-6-5(7)3-8(6,9)4-7/h5-6,9H,2-4H2,1H3	InChI=1S/C8H12O/c1-7-2-6-5(7)3-8(6,9)4-7/h5-6,9H,2-4H2,1H3/t5-,6-,7-,8+/m0/s1
