14
gdb 25190	2.50754	1.85533	1.21246	5.5979	74.75	-0.2441	-0.0671	0.1769	982.3186	0.103491	-432.904768	-432.897531	-432.896587	-432.936789	27.112	
N	 0.0036798008	 1.0054196895	-0.8340370928	-0.458624
C	-0.0227547719	-0.0149064449	-0.078067426	 0.22439
N	 1.0939523084	-0.5649283855	 0.5519879337	-0.254142
C	 1.437090786	-1.7941836338	 0.4015899469	-0.00996
C	 0.7289300362	-2.8534508659	-0.278894945	-0.139512
C	-0.6131634444	-2.9053084243	-0.4319283503	 0.032773
N	-1.5358170382	-1.9670580037	-0.0418114958	-0.332216
C	-1.3916503877	-0.5996640844	 0.2303764917	 0.39034
O	-2.328700175	 0.0383870532	 0.6377060505	-0.321186
H	 0.9715790741	 1.3246762898	-0.9366878329	 0.2275
H	 2.3845091349	-2.0810920498	 0.8642921732	 0.12357
H	 1.2958415938	-3.7278839927	-0.5757887155	 0.111555
H	-1.0650600549	-3.7945715676	-0.8595256419	 0.136093
H	-2.5052119723	-2.2538327299	-0.0078815757	 0.269417
77.5694	128.9753	272.9369	315.3968	343.4709	415.0164	455.3951	550.4656	624.1163	653.7595	700.0512	759.7351	790.0188	819.0032	903.4582	950.8295	960.7085	973.4919	985.6739	1027.6037	1129.6171	1198.9481	1289.4137	1353.7906	1424.3223	1450.5156	1497.5118	1630.1164	1699.2795	1709.6865	1818.2666	3099.8047	3182.9025	3205.5894	3435.8123	3594.1202
N=C1N=CC=CNC1=O	[NH][C]1N=CC=CNC1=O	
InChI=1S/C5H5N3O/c6-4-5(9)8-3-1-2-7-4/h1-3H,(H2,6,7,8,9)	InChI=1S/C5H5N3O/c6-4-5(9)8-3-1-2-7-4/h1-3H,(H2,6,7,8,9)
