14
gdb 129611	3.33873	1.28871	0.965	4.2013	69.65	-0.222	-0.0331	0.1889	1139.3028	0.099822	-432.806931	-432.798653	-432.797709	-432.840311	30.302	
N	-0.1319207232	 1.2918050944	-0.5464083569	-0.603222
C	-0.0892623447	-0.0238272002	-0.1156543382	 0.202642
C	-1.0723644164	-0.9523068345	 0.0743567284	 0.355051
C	-2.5526224102	-0.9806319729	-0.1472054463	-0.471734
C	-2.9752872578	-0.1329897499	-1.2601499351	 0.295098
C	-3.3175455829	 0.5715972953	-2.171586671	-0.437949
O	-0.4921477855	-2.054165894	 0.5895772641	-0.212887
N	 0.8780932714	-1.7842243328	 0.7107423602	-0.016817
N	 1.0868924584	-0.6063742008	 0.2956014512	-0.175634
H	 0.7581828831	 1.6019430504	-0.9124763555	 0.260447
H	-0.8911065436	 1.4773624204	-1.1891654311	 0.259246
H	-2.8565234728	-2.0173064665	-0.3356098962	 0.169341
H	-3.0807357448	-0.6725878557	 0.7667953711	 0.164903
H	-3.643340391	 1.1760977366	-2.9822783947	 0.211516
43.6597	120.547	218.3296	251.3106	281.0396	325.5934	339.5067	425.8886	453.7921	625.5325	642.2033	662.4844	673.0806	724.9524	740.2194	768.7178	794.0585	939.8905	967.6865	1016.6402	1085.0155	1183.8361	1252.5481	1277.6223	1334.5049	1428.2451	1457.9828	1459.636	1633.0473	1698.8543	2240.6432	3005.4289	3057.0947	3500.3869	3542.3516	3644.3909
NC1=C(CC#C)ON=N1	Nc1c(CC#C)onn1	
InChI=1S/C5H5N3O/c1-2-3-4-5(6)7-8-9-4/h1H,3,6H2	InChI=1S/C5H5N3O/c1-2-3-4-5(6)7-8-9-4/h1H,3,6H2
