19
gdb 99598	1.91611	1.51258	1.04033	2.8716	77.	-0.2538	0.042	0.2959	1213.7848	0.15622	-422.968736	-422.958937	-422.957993	-423.00335	36.472	
C	 0.0928489228	 1.4615163714	-0.78450247	-0.465231
C	-0.011259945	 0.0999811533	-0.1373708002	 0.406016
C	 1.1977708582	-0.713606387	 0.0539659197	-0.227533
O	 0.6260589413	 0.0036642053	 1.1571685128	-0.288611
C	-1.377093939	-0.6088183937	-0.1818092755	-0.283411
C	-2.3451131309	-0.0327388977	 0.8908275229	-0.055236
O	-1.970118984	-0.4139775798	 2.192050783	-0.426137
C	-1.9676667686	-0.5630294087	-1.5145904171	 0.313563
C	-2.481869125	-0.5126945712	-2.6002133062	-0.448542
H	 1.0823281856	 1.8866016785	-0.6019053365	 0.128039
H	-0.0735024783	 1.3871127991	-1.8619500355	 0.143185
H	-0.6543026829	 2.1494477689	-0.3764449191	 0.134026
H	 1.1186484271	-1.7978525887	 0.1104734483	 0.123227
H	 2.1612664083	-0.3348049391	-0.2822924898	 0.121533
H	-1.2215210761	-1.6576724476	 0.1006145884	 0.115614
H	-2.4071255638	 1.0613116306	 0.7763701031	 0.094164
H	-3.3465798438	-0.4345257376	 0.7124957554	 0.117172
H	-1.0232451498	-0.2419041744	 2.2788531994	 0.299013
H	-2.9337097262	-0.4804269015	-3.5607540731	 0.199146
53.7294	133.5166	141.0915	183.8608	188.6998	240.6449	333.8296	345.8359	382.862	396.8974	483.8528	498.8203	511.1514	540.8008	637.7452	650.2081	721.8908	806.193	891.0828	925.792	971.6568	1021.8632	1039.2561	1055.5537	1092.098	1115.5527	1132.0603	1168.0566	1212.753	1269.0828	1282.4029	1308.532	1379.8914	1399.9548	1427.2721	1453.4817	1480.1434	1496.0702	1512.5052	1528.2447	2234.0073	2976.6004	3030.5873	3049.0749	3085.7561	3089.3009	3117.1393	3136.7221	3178.4556	3502.9034	3757.0962
CC1(CO1)C(CO)C#C	C[C@]1(CO1)[C@@H](CO)C#C	
InChI=1S/C7H10O2/c1-3-6(4-8)7(2)5-9-7/h1,6,8H,4-5H2,2H3	InChI=1S/C7H10O2/c1-3-6(4-8)7(2)5-9-7/h1,6,8H,4-5H2,2H3/t6-,7+/m1/s1
