19
gdb 52050	2.81955	0.87047	0.73013	2.6659	83.49	-0.2471	-0.0205	0.2266	1552.9585	0.156079	-385.855231	-385.845435	-385.84449	-385.890903	35.431	
O	-0.3195845711	 0.0106926888	-0.3757069589	-0.238391
C	-0.0126044949	 1.1290791709	-0.0523022349	 0.157135
C	 1.3488108806	 1.750350836	-0.251752507	-0.27006
C	 1.2678944416	 3.0644563351	-1.0492134281	-0.290832
C	 2.6074327139	 3.7909742129	-1.1356833772	 0.174697
C	 3.5832068861	 3.3672793511	-2.2259862756	-0.288598
C	 2.8639943054	 4.6792490136	-2.3444809637	-0.309002
C	 3.1570954484	 4.2117791867	 0.1262170216	 0.290035
C	 3.5923156277	 4.5534102587	 1.1950586471	-0.47416
H	-0.7548231789	 1.80624753	 0.4348823947	 0.069628
H	 1.763503609	 1.9731076105	 0.7416236087	 0.135061
H	 2.0028598704	 1.0229103238	-0.7404165121	 0.120948
H	 0.9162472194	 2.8564046694	-2.0662890641	 0.109504
H	 0.528240781	 3.7305578186	-0.5876948481	 0.113731
H	 4.6393803377	 3.3792688227	-1.9861375344	 0.130459
H	 3.2727414566	 2.5499697663	-2.8682973291	 0.12259
H	 2.0614299036	 4.7653769394	-3.0692096636	 0.120903
H	 3.4274006506	 5.5900231326	-2.1818515002	 0.130469
H	 3.986330853	 4.8603720929	 2.1320458548	 0.195883
50.5713	68.9542	105.4949	127.7897	192.9312	222.5609	290.2452	347.6266	366.2576	512.7021	537.8584	566.1699	588.6652	653.1212	694.1084	768.5149	786.7252	853.037	885.7683	931.4662	950.7507	980.4918	1011.3104	1060.7067	1083.4069	1086.9574	1109.8527	1190.7938	1194.9402	1267.1668	1283.1795	1291.4612	1355.6851	1375.2134	1429.8466	1462.7136	1467.0801	1487.4989	1497.3357	1835.9565	2230.5323	2844.8388	3019.7557	3027.9794	3068.5883	3104.4146	3136.9842	3141.2061	3223.6001	3237.595	3502.5453
O=CCCC1(CC1)C#C	O=CCCC1(CC1)C#C	
InChI=1S/C8H10O/c1-2-8(5-6-8)4-3-7-9/h1,7H,3-6H2	InChI=1S/C8H10O/c1-2-8(5-6-8)4-3-7-9/h1,7H,3-6H2
