19
gdb 102879	2.3478	1.07525	0.8459	1.9866	81.42	-0.2281	0.0275	0.2557	1431.8402	0.156323	-419.158516	-419.147617	-419.146673	-419.196091	37.127	
C	-0.3996059298	 0.1193657216	-1.0873398437	-0.247872
O	 0.7030153307	-0.4075213228	-0.3455314448	-0.245828
C	 0.4197420114	-0.8740893232	 0.9134563316	 0.427083
N	-0.4964487964	-1.9278966128	 0.9378359674	-0.327282
C	-0.2966811254	-3.0684025361	 0.0336052735	-0.3335
C	 0.7312604287	-4.012770914	 0.4771623364	 0.318473
C	 1.5659976523	-4.7800618363	 0.8756613525	-0.445834
N	 0.9134388653	-0.4158086024	 1.9832075191	-0.309927
C	 1.7192498997	 0.7887711784	 1.9565482253	-0.326526
H	-0.8210835371	 0.997097146	-0.5833757969	 0.12837
H	 0.0007962034	 0.4169152175	-2.0581597378	 0.135816
H	-1.1927001675	-0.621818585	-1.2267569467	 0.131296
H	-0.6357167232	-2.2162555633	 1.8986907801	 0.248545
H	-1.2535826048	-3.5915095296	-0.0751943208	 0.136892
H	-0.0340796251	-2.6773032051	-0.9526057593	 0.154198
H	 2.3108409687	-5.4542785545	 1.2198630481	 0.202564
H	 2.7256563764	 0.5570401505	 2.3251335389	 0.124049
H	 1.8132759077	 1.2464272137	 0.9649732962	 0.112674
H	 1.2937913152	 1.5242406975	 2.649861191	 0.11681
34.9803	48.8996	82.2673	108.471	131.344	189.8306	201.3908	277.7293	294.3497	317.6503	333.1002	487.7936	577.7398	609.4993	626.1929	661.0284	756.7177	765.2066	826.7761	938.7506	984.7503	1026.5559	1072.1181	1135.8636	1140.759	1159.9162	1179.0054	1207.515	1257.8058	1320.9969	1378.6491	1437.7556	1457.0832	1471.2353	1482.8732	1486.5195	1495.1639	1500.5912	1509.5416	1770.8571	2235.1527	3011.4773	3025.1148	3043.2444	3067.404	3080.645	3093.1946	3101.681	3136.549	3505.0126	3573.1037
COC(NCC#C)=NC	COC(=NC)NCC#C	
InChI=1S/C6H10N2O/c1-4-5-8-6(7-2)9-3/h1H,5H2,2-3H3,(H,7,8)	InChI=1S/C6H10N2O/c1-4-5-8-6(7-2)9-3/h1H,5H2,2-3H3,(H,7,8)
