17
gdb 23579	2.8967	1.55074	1.24088	0.9927	75.68	-0.2147	0.02	0.2347	1030.6849	0.135344	-417.883223	-417.875413	-417.874469	-417.915338	30.502	
C	 0.0274460243	 1.5419284708	 0.0639731053	-0.332789
N	 0.1006203637	 0.085560115	 0.0173877631	-0.083031
C	 0.7918671746	-0.5452322068	-1.105874465	-0.024595
C	 1.363319212	-1.6213998249	-0.2653524583	-0.105379
C	 2.3289340802	-0.5585967155	-0.8331724071	-0.183609
C	 2.4588890974	 0.0030392257	 0.5298659865	 0.476663
N	 3.4376635584	 0.538341033	 1.1279880751	-0.304694
O	 3.1249699052	 0.7699389769	 2.4921209472	-0.405338
C	 1.0934719909	-0.5914844442	 0.9045752347	-0.131417
H	 0.9999210102	 2.0430240484	-0.0646530734	 0.116041
H	-0.6492865625	 1.8866415308	-0.7243055408	 0.120435
H	-0.3927149183	 1.8471523257	 1.0272922645	 0.126494
H	 0.3955923645	-0.5762139307	-2.1138851359	 0.105863
H	 1.3802499879	-2.6987424429	-0.3150279817	 0.116634
H	 3.0751462795	-0.6669413617	-1.6069639627	 0.105162
H	 3.947262746	 1.1490874245	 2.8188838253	 0.303686
H	 0.815159066	-0.7852415541	 1.9362479033	 0.099874
105.481	183.8785	214.5079	222.8548	307.1975	331.5146	392.9854	502.7977	588.9077	670.4549	674.7634	754.1783	766.7159	794.719	806.0502	868.9598	876.8647	928.6531	963.0513	980.7177	1012.0213	1051.6987	1066.572	1125.9852	1136.1463	1165.0258	1177.945	1193.7578	1204.0066	1244.5528	1294.1078	1348.9143	1411.9014	1447.2952	1485.7846	1501.1687	1790.69	2982.0783	3071.8372	3108.0381	3169.2883	3186.8214	3228.4578	3244.772	3825.1953
CN1C2C3C2C(=NO)C13	CN1[C@@H]2[C@H]3[C@@H]2C(=NO)[C@@H]13	
InChI=1S/C6H8N2O/c1-8-5-2-3(5)6(8)4(2)7-9/h2-3,5-6,9H,1H3	InChI=1S/C6H8N2O/c1-8-5-2-3(5)6(8)4(2)7-9/h2-3,5-6,9H,1H3/t2-,3-,5+,6+/m1/s1
