19
gdb 90739	2.56118	1.63262	1.33122	4.499	74.48	-0.2319	0.053	0.2849	1035.2068	0.161958	-419.238741	-419.230602	-419.229657	-419.272076	30.658	
C	 0.5727539615	 1.4881292161	-0.2430370818	-0.410847
C	 0.0398883109	 0.0886521693	 0.0391920348	-0.005224
C	 0.6645864001	-1.0478831532	-0.8291351486	-0.193192
N	 1.3554258164	-1.5941023679	 0.3714902465	-0.132899
C	 0.6268484463	-0.6716051657	 1.277230834	 0.008919
C	 1.7042771163	-0.0571088844	 2.2061470534	-0.197505
N	 2.9212885347	-0.597224293	 1.6306601442	-0.333359
C	 2.7360985861	-1.3349423898	 0.4800723637	 0.404615
O	 3.5921512432	-1.6882072933	-0.2988581213	-0.398481
H	 1.6677869376	 1.5141187295	-0.2406112154	 0.130926
H	 0.2390485343	 1.8292636014	-1.228549065	 0.12445
H	 0.214728358	 2.2125025545	 0.4963428469	 0.118709
H	-1.0535952872	 0.0996499207	 0.0306823759	 0.076349
H	-0.0581984261	-1.7569437705	-1.241323888	 0.112091
H	 1.3566513273	-0.7414942573	-1.6186956489	 0.128552
H	-0.146737279	-1.1820642732	 1.857181874	 0.087941
H	 1.6889790216	 1.0402092966	 2.1983078052	 0.111144
H	 1.5625471483	-0.3850734517	 3.2425391684	 0.112598
H	 3.8457440297	-0.2887740882	 1.8767504221	 0.255212
51.7308	74.0851	229.8476	236.3221	270.2985	359.9197	395.469	427.7637	522.9198	639.487	712.4209	732.8921	786.9757	789.1216	823.8369	881.2608	919.3108	983.6352	1011.8205	1049.9852	1070.5109	1102.2038	1112.7217	1122.3932	1178.4911	1200.1205	1219.015	1248.5803	1267.6883	1279.8163	1305.216	1339.024	1366.7161	1384.1627	1417.133	1439.7819	1498.0525	1499.072	1512.9158	1538.9526	1836.2501	3015.0935	3030.497	3040.731	3053.3614	3056.8451	3070.099	3098.367	3101.7175	3108.7626	3677.9448
CC1CN2C1CNC2=O	C[C@H]1CN2[C@H]1CNC2=O	
InChI=1S/C6H10N2O/c1-4-3-8-5(4)2-7-6(8)9/h4-5H,2-3H2,1H3,(H,7,9)	InChI=1S/C6H10N2O/c1-4-3-8-5(4)2-7-6(8)9/h4-5H,2-3H2,1H3,(H,7,9)/t4-,5-/m0/s1
