21
gdb 108581	2.58676	1.33172	1.19262	2.2303	77.61	-0.2328	0.0772	0.31	1173.0568	0.183298	-424.217731	-424.208977	-424.208033	-424.250998	33.835	
C	 0.1656097186	 1.5177387498	 0.17058881	-0.379185
C	-0.1075088361	 0.0337995652	-0.1117474288	-0.28424
C	 0.6617810606	-0.5029352424	-1.2982935633	 0.270478
C	 0.3512450162	 0.0432664105	-2.6848376044	-0.158341
O	 0.8573199779	-0.9174678274	-3.6182322081	-0.277012
C	 0.7456250837	-2.2160546587	-3.0196211231	-0.112847
C	 0.9312526306	-1.9909692863	-1.5331427292	-0.189621
C	 2.0596031098	-1.0606213754	-1.1555444375	 0.098353
O	 3.1170562271	-0.7510701865	-2.0115497514	-0.440709
H	 1.2317143803	 1.6935736362	 0.3468597712	 0.126455
H	-0.1397260681	 2.1488126226	-0.670788567	 0.118776
H	-0.3844139355	 1.8569077995	 1.0536239643	 0.113716
H	 0.1493033936	-0.557645891	 0.7753184935	 0.098637
H	-1.1837971387	-0.1176949535	-0.2757221753	 0.094615
H	-0.7362854056	 0.1745757059	-2.80488622	 0.098322
H	 0.841199303	 0.9944262629	-2.9163844733	 0.117493
H	-0.2383928421	-2.6622686371	-3.2284117235	 0.102369
H	 1.5156969695	-2.8431886608	-3.4808526538	 0.118419
H	 0.5850110728	-2.7528211658	-0.8427758552	 0.087253
H	 2.4290695422	-1.1491472761	-0.1381271926	 0.100325
H	 2.7510119205	-0.6855413718	-2.9049006825	 0.296744
78.0907	146.9481	196.1386	217.1987	241.0047	271.0406	316.134	353.9662	496.0277	542.1793	561.233	588.0555	728.4207	740.0123	785.1634	844.211	884.8141	922.0693	938.6133	988.3523	1009.6584	1026.729	1045.2367	1075.1368	1087.3143	1102.1936	1125.2141	1164.0428	1206.5421	1230.0446	1253.395	1258.1	1318.1725	1324.7533	1349.7461	1362.2409	1367.6717	1413.0462	1424.8933	1474.7012	1486.3633	1500.4945	1506.2987	1511.3985	1523.5954	2975.8121	2992.1341	3007.9562	3035.1582	3049.6907	3071.1178	3073.445	3103.3312	3108.4416	3154.3904	3168.6919	3731.6704
CCC12COCC1C2O	CC[C@]12COC[C@H]1[C@H]2O	
InChI=1S/C7H12O2/c1-2-7-4-9-3-5(7)6(7)8/h5-6,8H,2-4H2,1H3	InChI=1S/C7H12O2/c1-2-7-4-9-3-5(7)6(7)8/h5-6,8H,2-4H2,1H3/t5-,6+,7-/m0/s1
