21
gdb 82554	2.74205	1.67237	1.32255	1.9345	81.82	-0.2407	0.0797	0.3205	1048.4225	0.184793	-387.030482	-387.023156	-387.022212	-387.061718	30.873	
C	-0.1424158592	 1.5541034547	-0.0328926908	-0.421214
C	-0.0029002619	 0.0353090341	-0.0846661867	-0.011452
C	 0.9699064896	-0.5265544942	-1.1905539689	-0.036681
C	 2.4431704975	-0.522672446	-0.5819486363	-0.318728
C	 1.7327739514	-1.4863227196	 0.389436628	 0.467157
C	 0.9416037803	-2.0317915893	-0.8256566901	-0.29258
O	 1.9663706156	-2.2836278008	 1.5592569291	-0.360512
C	 0.6753046254	-1.803692131	 2.0771414469	-0.17778
C	 0.7616917426	-0.582441293	 1.1194799148	-0.025644
H	 0.8303889219	 2.0398782634	 0.1017918874	 0.115765
H	-0.5823227727	 1.9419775545	-0.9578875806	 0.112582
H	-0.7850261006	 1.8638949378	 0.7982440198	 0.116271
H	-0.9921398164	-0.4092561777	-0.2408412873	 0.076573
H	 0.8155631627	-0.1873888396	-2.2147351602	 0.06914
H	 3.1430162457	-0.9766214402	-1.2872435283	 0.103872
H	 2.8524177215	 0.4027396231	-0.1694197053	 0.097185
H	-0.032188871	-2.5001277568	-0.6603895826	 0.090201
H	 1.5608749342	-2.6525096867	-1.4766788764	 0.097821
H	-0.1231658495	-2.5244143631	 1.8655760078	 0.104977
H	 0.7270568487	-1.6038673458	 3.1501758311	 0.110424
H	 1.3085889343	 0.2010368962	 1.6538710084	 0.082621
171.2987	230.4166	259.1134	285.1216	343.8438	427.9487	489.1218	516.0951	555.1259	591.5163	723.4353	776.6821	806.5732	838.7361	865.3428	916.0095	934.3174	945.4478	966.5918	1009.5386	1012.5253	1034.5154	1046.3221	1071.0011	1080.6442	1131.0172	1137.1989	1149.2432	1162.6712	1174.2343	1202.8699	1219.4834	1244.2456	1261.6403	1285.2669	1299.9698	1325.039	1351.3585	1403.3308	1413.255	1486.4317	1497.4711	1499.0544	1513.1855	1524.9433	3027.4439	3032.1431	3037.2141	3049.4363	3059.2309	3064.137	3096.2554	3096.4664	3104.1215	3119.6955	3122.1895	3127.1954
CC1C2CC3(C2)OCC13	C[C@H]1[C@H]2C[C@@]3(C2)OC[C@H]13	
InChI=1S/C8H12O/c1-5-6-2-8(3-6)7(5)4-9-8/h5-7H,2-4H2,1H3	InChI=1S/C8H12O/c1-5-6-2-8(3-6)7(5)4-9-8/h5-7H,2-4H2,1H3/t5-,6-,7+,8-/m0/s1
