20
gdb 72664	2.2304	1.48427	1.43933	4.2215	83.15	-0.2759	0.0206	0.2965	1080.2858	0.171346	-366.01718	-366.008467	-366.007523	-366.050843	33.233	
C	-0.2886797513	 1.5235644021	 0.1189621417	-0.492539
C	-0.0103166808	 0.043371718	 0.0096550031	 0.322872
C	-1.2222122074	-0.929718653	 0.0402385696	-0.274129
C	-0.568894809	-1.7536413831	 1.1865528668	-0.281419
C	 0.6715720755	-0.8104971476	 1.1793938974	 0.169076
C	 1.795298054	-1.2351841208	 0.1868073147	-0.281418
C	 1.1222427072	-0.4156073195	-0.9511733457	-0.274134
C	 1.0768307592	-0.2336572381	 2.436983571	 0.194855
N	 1.3940473376	 0.2530196215	 3.4386433334	-0.357028
H	 0.6326854909	 2.0941953894	 0.2760154055	 0.126828
H	-0.7586204183	 1.8915752143	-0.8014311228	 0.12158
H	-0.964916673	 1.7438575892	 0.9516525469	 0.126825
H	-2.1533655629	-0.4433566466	 0.3412200398	 0.109812
H	-1.4052034455	-1.4686295459	-0.8931530751	 0.10303
H	-1.1273357611	-1.716087127	 2.1230588965	 0.126192
H	-0.3345032765	-2.7978736099	 0.9657906007	 0.110274
H	 2.7793038712	-0.8593510995	 0.4710466847	 0.126201
H	 1.8687497961	-2.3147145256	 0.0341148601	 0.110276
H	 0.7867705436	-0.9879722763	-1.8200740516	 0.103031
H	 1.7425810705	 0.4109801285	-1.3063060467	 0.109815
41.2268	119.4629	176.6647	219.7332	247.3553	336.0891	352.8712	364.2215	513.2822	555.9492	566.5086	623.5684	672.4124	753.5258	759.4684	853.8618	906.144	913.2847	950.0034	963.4801	965.4887	994.7526	1035.9977	1067.8366	1136.6051	1151.8248	1214.1286	1218.2649	1245.33	1254.2198	1256.5027	1260.3902	1275.8045	1304.3425	1330.2538	1412.9125	1472.9395	1482.7445	1486.0712	1488.6144	1491.0221	1504.9953	2337.1048	3022.7822	3056.5822	3058.9932	3068.5369	3070.2277	3088.4022	3099.5198	3104.0862	3106.0747	3128.1971	3131.7247
CC12CCC1(CC2)C#N	C[C@]12CC[C@]1(CC2)C#N	
InChI=1S/C8H11N/c1-7-2-4-8(7,6-9)5-3-7/h2-5H2,1H3	InChI=1S/C8H11N/c1-7-2-4-8(7,6-9)5-3-7/h2-5H2,1H3/t7-,8+
