12
gdb 49128	2.81983	1.37727	0.92532	1.1445	66.63	-0.2821	-0.1297	0.1524	1131.8022	0.077411	-472.683341	-472.675989	-472.675045	-472.715723	26.167	
N	 0.2151076728	 1.3168864684	-0.5044857475	-0.509166
C	 0.1230319216	 0.0860636248	-0.2472119411	 0.36616
O	 1.1745054207	-0.8043071335	-0.1863628702	-0.231906
C	 0.6747229093	-2.0733438217	 0.1241477865	 0.456063
O	 1.3830077802	-3.0247103124	 0.2358244737	-0.300191
C	-0.796008714	-1.9362826375	 0.2614667317	-0.367551
C	-1.1212705909	-0.6540643102	 0.0406110431	 0.180791
C	-2.4708381325	-0.0333410094	 0.0672329418	 0.086792
O	-3.4690366859	-0.6683891217	 0.3062540801	-0.239714
H	 1.1839766978	 1.5951506328	-0.6688347452	 0.251753
H	-1.4484212114	-2.7627948319	 0.5003972783	 0.178289
H	-2.4902565177	 1.0502280222	-0.148181191	 0.128679
111.0318	161.1542	166.9964	184.0117	334.6722	358.4121	455.3302	572.8556	644.4758	697.357	698.6872	765.0681	862.006	902.1883	906.1013	927.7482	992.4983	1048.1542	1120.2003	1163.7615	1256.4882	1362.9087	1429.6149	1664.3344	1764.0818	1800.1884	1896.5691	2981.6392	3263.5208	3487.495
N=C1OC(=O)C=C1C=O	[NH]C1=C([CH]C(=O)O1)C=O	
InChI=1S/C5H3NO3/c6-5-3(2-7)1-4(8)9-5/h1-2,6H	InChI=1S/C5H3NO3/c6-5-3(2-7)1-4(8)9-5/h1-2,6H
