20
gdb 40715	5.58489	0.85535	0.81212	2.2395	81.45	-0.2177	0.0801	0.2977	1456.1224	0.170264	-403.078458	-403.070024	-403.06908	-403.112026	32.182	
C	-0.1779623825	 1.3818458	-0.1551309295	-0.27645
C	 1.2609991788	 0.9972820449	 0.0884473252	-0.27645
C	 0.2051340244	-0.0701466224	-0.0349629158	 0.061867
N	-0.1813377953	-0.7690313834	 1.1447561866	-0.08347
C	 0.5478257039	-2.0090861974	 1.5103238191	-0.248444
C	-0.8014624734	-2.648785503	 1.8403767131	 0.426927
C	-1.2048118833	-4.0371553412	 2.0311830445	-0.264498
O	-1.1441239701	-3.1137213803	 3.1306461744	-0.263316
C	-1.4928581064	-1.4636997755	 1.1648968483	-0.248444
H	-0.7249719615	 1.8122164942	 0.675400527	 0.120387
H	-0.4566198359	 1.7590989439	-1.1325882258	 0.110548
H	 1.9730673134	 1.1097608267	-0.721305817	 0.110548
H	 1.661994027	 1.1742996236	 1.0794513235	 0.120387
H	 0.2074044715	-0.6510235322	-0.9654765919	 0.062909
H	 1.0586808592	-2.4912061037	 0.662122469	 0.091466
H	 1.2517905928	-1.9001942708	 2.3417986447	 0.116299
H	-2.2063575843	-4.3565216149	 1.7445226818	 0.115984
H	-0.4524545899	-4.825264937	 2.0414060849	 0.115984
H	-2.2717085266	-0.9585151533	 1.7453750052	 0.116299
H	-1.8839926918	-1.7047569283	 0.1640156126	 0.091466
60.7517	81.8667	168.3924	236.517	293.6566	325.6061	360.2145	392.1659	489.3285	550.1935	693.2563	785.511	825.8495	830.8928	865.0168	895.3475	932.8579	940.1125	965.4177	975.4864	1053.9636	1069.0328	1074.5219	1099.6831	1106.3556	1120.3068	1125.8269	1131.489	1157.928	1188.45	1193.6699	1196.1559	1216.7882	1259.8958	1284.4086	1334.485	1401.708	1455.535	1457.8548	1487.8932	1495.7665	1513.2053	1547.1049	2977.2333	2985.5059	3014.6575	3067.8983	3068.6559	3077.5846	3138.9267	3143.5386	3162.5728	3223.3793	3236.7801
C1CC1N1CC2(CO2)C1	C1CC1N1C[C@]2(CO2)C1	
InChI=1S/C7H11NO/c1-2-6(1)8-3-7(4-8)5-9-7/h6H,1-5H2	InChI=1S/C7H11NO/c1-2-6(1)8-3-7(4-8)5-9-7/h6H,1-5H2
