16
gdb 54465	3.52085	1.3698	1.1333	2.6719	68.71	-0.2399	0.0123	0.2523	1054.9563	0.123888	-437.837722	-437.83002	-437.829076	-437.870063	30.081	
N	 0.0700519374	 1.1809420146	-0.4681690241	-0.54143
C	-0.0162882728	-0.0089918222	 0.215064345	 0.303675
O	 0.9157345295	-0.4608762486	 0.8560111192	-0.370988
C	-1.308728643	-0.7231014638	 0.0761087016	 0.186519
C	-1.8015123785	-1.6388857666	 1.1814251798	-0.319614
C	-1.4424271131	-2.2457207389	-0.1290780015	-0.12509
C	-2.5213776199	-1.965719243	-1.2187217384	 0.02035
O	-3.6004894537	-1.211729937	-0.6442729267	-0.23912
C	-2.4032995292	-0.5262515402	-1.0284166385	-0.061124
H	 0.8819646421	 1.7438662101	-0.2646922829	 0.260353
H	-0.7667902108	 1.6748447601	-0.7313883924	 0.255893
H	-1.0631114174	-1.7800269258	 1.9624413917	 0.147233
H	-2.8365252225	-1.5755201557	 1.4905739704	 0.140273
H	-0.6115230354	-2.9245600783	-0.2630197858	 0.120674
H	-2.733760456	-2.5609633771	-2.0976269662	 0.116635
H	-2.4964740266	 0.2973226423	-1.7269584313	 0.105759
67.0542	158.2553	182.0423	348.6622	373.535	407.1381	427.1676	476.9554	551.3583	603.9465	649.5347	737.7651	762.9695	806.5852	807.4619	849.628	869.8256	936.6596	958.8718	986.8314	998.8399	1021.5746	1066.1752	1091.4231	1110.4031	1165.3844	1206.4301	1253.9942	1270.2743	1297.2937	1378.3818	1407.3974	1455.9707	1618.7909	1778.816	3152.5086	3178.2883	3202.8682	3219.8097	3250.9369	3582.6547	3709.9335
NC(=O)C12CC1C1OC21	NC(=O)[C@]12C[C@H]1[C@H]1O[C@@H]21	
InChI=1S/C6H7NO2/c7-5(8)6-1-2(6)3-4(6)9-3/h2-4H,1H2,(H2,7,8)	InChI=1S/C6H7NO2/c7-5(8)6-1-2(6)3-4(6)9-3/h2-4H,1H2,(H2,7,8)/t2-,3+,4+,6+/m0/s1
