21
gdb 117823	2.80244	0.96112	0.87057	3.5824	75.94	-0.2505	-0.0326	0.2179	1439.8858	0.178966	-461.358225	-461.347334	-461.34639	-461.394414	38.25	
C	 0.0298808728	 1.4796708233	 0.2303351237	-0.230143
O	 0.0464403274	 0.0722131695	 0.1560194976	-0.240084
C	-1.2435615274	-0.4917666605	 0.0775711514	-0.093638
C	-1.1310998403	-2.023419068	-0.0128336772	 0.091415
C	-0.3280271728	-2.5776463884	 1.1836048869	-0.41768
C	-2.5499837154	-2.6339455455	-0.0534149398	-0.090874
O	-2.5454266223	-4.0421784446	-0.1217070562	-0.429244
C	-0.3681903056	-2.3821708172	-1.2816028808	 0.153962
O	-0.6996477463	-3.2427434781	-2.0661959174	-0.27907
H	 1.0676437153	 1.8150911344	 0.2900273663	 0.13318
H	-0.440821312	 1.928872131	-0.6578459601	 0.10985
H	-0.5114964355	 1.8316658137	 1.1219911263	 0.110008
H	-1.8365517937	-0.2271775678	 0.9704576235	 0.095512
H	-1.7831171331	-0.0928406371	-0.7992971365	 0.09374
H	-0.7732412141	-2.2236251573	 2.1197915832	 0.119347
H	-0.3624703176	-3.6688156195	 1.178646944	 0.14162
H	 0.7109173893	-2.2413431093	 1.1595408169	 0.132011
H	-3.0818999151	-2.3646936461	 0.866536849	 0.104514
H	-3.1068703423	-2.1934424051	-0.896251691	 0.089686
H	-2.1125213962	-4.2547859832	-0.9600041476	 0.294805
H	 0.5572160148	-1.7944392441	-1.4473253924	 0.111083
69.8784	92.3375	101.9428	140.701	165.1261	200.1878	230.5673	244.249	289.1789	311.9321	356.1965	358.5435	390.7547	493.0173	596.6787	677.6139	792.1568	889.1648	923.4938	966.5774	986.054	999.7561	1043.4595	1094.9952	1154.6477	1164.3639	1188.6821	1193.9226	1212.8537	1242.3889	1257.9606	1319.6495	1386.2852	1391.9033	1414.9713	1425.8346	1455.1842	1480.1236	1485.7538	1489.0366	1495.6801	1500.2741	1504.5739	1527.357	1799.6545	2936.8154	2941.9373	2970.0249	2975.8163	2977.3809	3023.3767	3041.2361	3058.4177	3113.8108	3120.7132	3142.8734	3749.0282
COCC(C)(CO)C=O	COC[C@@](C)(CO)C=O	
InChI=1S/C6H12O3/c1-6(3-7,4-8)5-9-2/h3,8H,4-5H2,1-2H3	InChI=1S/C6H12O3/c1-6(3-7,4-8)5-9-2/h3,8H,4-5H2,1-2H3/t6-/m1/s1
