15
gdb 29014	2.67132	1.57494	0.99152	2.2927	79.65	-0.2296	-0.0657	0.1639	1112.4268	0.114731	-416.887501	-416.879871	-416.878927	-416.919679	28.82	
N	-0.07611357	 1.3783287837	-0.0937856881	-0.563132
C	 0.0190307944	 0.0107083176	-0.0426703306	 0.319048
N	-1.1593206453	-0.634887096	-0.0508657852	-0.336061
C	-1.148859558	-1.963877659	-0.0306136472	 0.012904
C	 0.0087299397	-2.7431217513	 0.0115729653	-0.150912
C	 1.2213884932	-2.0774003755	 0.0141385949	-0.117166
C	 1.2590468186	-0.6797355289	-0.0237384955	 0.097141
C	 2.5642524312	-0.0033092758	-0.0643470705	 0.079505
O	 3.6334748894	-0.5716827749	-0.0040471475	-0.277319
H	 0.6737919954	 1.9439526815	 0.2639835337	 0.260791
H	-1.0070944387	 1.7298814769	 0.0696541016	 0.262467
H	-2.1273562657	-2.4398947932	-0.0437130076	 0.115822
H	-0.051966858	-3.8240164685	 0.036715934	 0.104829
H	 2.1692711131	-2.6043803077	 0.0360912129	 0.135577
H	 2.5348898508	 1.1035486411	-0.1721170503	 0.056507
114.5395	130.5402	226.1409	268.3971	354.3537	374.4502	447.9925	492.6767	513.2336	558.0703	587.1934	636.2043	797.8141	818.7117	827.5195	900.4727	992.415	1000.7616	1026.3768	1036.5726	1094.6482	1142.9376	1216.7694	1282.3344	1326.9667	1358.4268	1457.2807	1476.6964	1495.3842	1604.5087	1625.7006	1648.017	1778.8449	2875.1908	3149.0705	3196.3028	3212.6945	3595.5788	3719.3452
NC1=NC=CC=C1C=O	Nc1ncccc1C=O	
InChI=1S/C6H6N2O/c7-6-5(4-9)2-1-3-8-6/h1-4H,(H2,7,8)	InChI=1S/C6H6N2O/c7-6-5(4-9)2-1-3-8-6/h1-4H,(H2,7,8)
