15
gdb 73902	3.03856	1.23808	0.88936	4.0141	77.08	-0.2359	-0.045	0.191	1220.8651	0.113	-416.888692	-416.880371	-416.879427	-416.921771	30.303	
C	 0.0374896727	 1.5318084024	 0.0392615217	-0.515906
C	-0.0337969284	 0.0455538592	 0.0230415473	 0.303581
C	-1.1166256214	-0.7640841883	-0.0789455487	 0.053222
C	-0.6612833384	-2.2062228793	-0.0477895964	-0.461644
C	 0.8624884187	-2.0897737358	 0.0890842538	 0.42335
O	 1.6897827358	-2.9615729475	 0.1571982567	-0.345357
N	 1.1218529104	-0.7195823617	 0.1212862326	-0.369854
C	-2.4529643014	-0.3337613777	-0.1953262902	 0.19342
N	-3.5595698193	 0.0031296986	-0.291756376	-0.35573
H	 0.650390446	 1.9018996713	-0.7907299288	 0.150785
H	-0.9620652321	 1.9601204352	-0.0470345705	 0.17342
H	 0.4933014949	 1.8901508656	 0.9695051334	 0.150801
H	-1.0659407889	-2.7755206123	 0.7956116026	 0.165068
H	-0.90904341	-2.7635436742	-0.9573305991	 0.165068
H	 2.0554463214	-0.3501068756	 0.2064386514	 0.269777
103.6607	137.7678	159.9843	180.5541	243.4763	289.4768	456.3696	461.2406	513.8658	546.0086	561.0572	576.2206	629.8322	646.814	773.8873	866.1402	953.8449	1005.1698	1064.1614	1080.6685	1152.123	1193.73	1209.7209	1291.6459	1312.6782	1414.4876	1434.4942	1447.3166	1478.8076	1484.9026	1678.9204	1857.0565	2323.8981	3034.1565	3057.6917	3087.4635	3093.5098	3147.0244	3651.5573
CC1=C(CC(=O)N1)C#N	CC1=C(CC(=O)N1)C#N	
InChI=1S/C6H6N2O/c1-4-5(3-7)2-6(9)8-4/h2H2,1H3,(H,8,9)	InChI=1S/C6H6N2O/c1-4-5(3-7)2-6(9)8-4/h2H2,1H3,(H,8,9)
