14
gdb 49686	2.38568	1.82919	1.41307	6.0163	62.54	-0.2669	-0.0266	0.2402	927.5824	0.101426	-473.845986	-473.83873	-473.837786	-473.878191	26.314	
O	 0.4473396144	 0.1669559783	 0.6102559077	-0.268252
C	 0.3129674105	 1.3070649743	 0.2552790061	 0.154766
N	 1.2690199134	 2.0353874323	-0.4495017389	-0.073887
C	 1.8823066085	 3.2897700506	-0.1049355512	-0.079589
C	 1.9141711386	 3.6455107188	 1.3740896649	-0.104819
O	 2.5230219799	 2.5351365696	 2.0450743216	-0.228594
C	 3.1473193464	 1.6857413287	 1.1666838106	 0.473893
O	 3.9283838286	 0.8558374774	 1.5139910875	-0.320792
C	 2.6991005687	 2.0291659082	-0.2347745908	-0.192828
H	-0.6246641758	 1.8836598476	 0.3701902327	 0.096682
H	 1.8783682774	 4.0778190112	-0.8506800403	 0.128487
H	 2.5227508388	 4.5416656549	 1.5392492841	 0.13666
H	 0.9236641438	 3.8085966919	 1.8084149893	 0.137967
H	 3.342793497	 1.7724583662	-1.067023593	 0.140306
92.6508	120.935	186.3065	235.6921	305.8666	451.7906	464.8481	589.8189	670.8875	716.3082	782.6354	832.2675	865.6713	910.0096	956.2521	1001.5812	1034.7395	1064.5889	1076.8229	1104.557	1118.8784	1168.734	1233.575	1280.6199	1322.3696	1387.9993	1412.144	1432.4287	1512.4265	1814.5539	1901.2831	2955.9021	3045.8929	3095.4806	3172.3238	3201.8355
O=CN1C2COC(=O)C12	O=CN1[C@H]2COC(=O)[C@@H]12	
InChI=1S/C5H5NO3/c7-2-6-3-1-9-5(8)4(3)6/h2-4H,1H2	InChI=1S/C5H5NO3/c7-2-6-3-1-9-5(8)4(3)6/h2-4H,1H2/t3-,4-,6?/m0/s1
