18
gdb 91468	2.56731	1.69703	1.24761	4.5874	75.7	-0.271	-0.0004	0.2706	1035.4696	0.148684	-401.946572	-401.938784	-401.93784	-401.978632	30.504	
C	-0.087902071	 1.5039807264	 0.0218094064	-0.422059
C	 0.0222178881	-0.0166729859	-0.0031102753	-0.019161
C	 1.0264258209	-0.5831088585	-1.0641019347	-0.239243
C	 1.9825673836	-1.3017199451	-0.094793659	 0.065102
C	 1.040042991	-2.0765469315	 0.8501633446	-0.273843
C	 0.7504334044	-0.6072326491	 1.2450136096	 0.311841
O	 2.1511653213	-0.2977749941	 0.9658232018	-0.317497
C	 0.2774805829	-0.2269550826	 2.5611446111	 0.192893
N	-0.138685413	 0.0618479592	 3.599718663	-0.340244
H	 0.8961932833	 1.9528010278	 0.1852753123	 0.13697
H	-0.4802664688	 1.8770899839	-0.9291736714	 0.11917
H	-0.7577084624	 1.8419470383	 0.8187792041	 0.134961
H	-0.9697133467	-0.4677562426	-0.1029624636	 0.08818
H	 0.5619448665	-1.2607757646	-1.7848134372	 0.107581
H	 1.5366065002	 0.2145120654	-1.608561508	 0.117048
H	 2.9217489237	-1.7078684416	-0.4655387755	 0.095254
H	 0.2275206643	-2.6746047168	 0.4323564569	 0.110381
H	 1.5791001319	-2.6060449088	 1.6347517948	 0.132667
130.5503	142.9149	202.7791	241.9802	301.9815	416.058	442.0603	510.8519	522.2311	545.2293	608.8485	699.7842	805.4454	837.6286	850.4641	884.5869	938.2668	941.8508	972.183	997.9923	1024.482	1058.7619	1108.9119	1116.2692	1139.5185	1190.7177	1208.1803	1239.4247	1267.4933	1283.4492	1299.9609	1320.6023	1364.2318	1408.9408	1480.1536	1493.5743	1496.9539	1504.562	2360.8686	3038.8598	3059.9883	3069.7146	3080.6934	3107.8371	3117.7617	3122.3564	3145.0213	3161.6378
CC1CC2CC1(O2)C#N	C[C@H]1C[C@@H]2C[C@]1(O2)C#N	
InChI=1S/C7H9NO/c1-5-2-6-3-7(5,4-8)9-6/h5-6H,2-3H2,1H3	InChI=1S/C7H9NO/c1-5-2-6-3-7(5,4-8)9-6/h5-6H,2-3H2,1H3/t5-,6+,7-/m0/s1
