17
gdb 127631	3.17989	1.63294	1.10233	2.4484	75.29	-0.1991	0.039	0.2381	1072.8894	0.138731	-418.016966	-418.009012	-418.008068	-418.050724	28.403	
C	 0.0151350133	 1.4169990001	 0.0087233779	-0.334449
N	 0.0260152153	-0.0268314627	 0.0290076777	-0.103521
N	 0.147347615	-0.7484903627	-1.1339807481	-0.297059
C	 0.139811362	-2.0309031599	-0.7588048585	-0.144965
C	 0.0102207599	-2.1616299848	 0.6371987601	 0.097982
C	-0.0508833333	-0.8671417882	 1.0713784951	 0.510578
O	-0.1565208114	-0.6395817455	 2.3943141456	-0.294654
C	-0.32139316	-1.9814464934	 2.9691701042	-0.093038
C	-0.0361741296	-3.0480758608	 1.8508186811	-0.381263
H	 0.9835589061	 1.8076298848	-0.3178745539	 0.145216
H	-0.7583415687	 1.7744886335	-0.6754161067	 0.149166
H	-0.1967246827	 1.7764908793	 1.0173178242	 0.149624
H	 0.2228422562	-2.7946706589	-1.5186484795	 0.108539
H	 0.361377687	-2.050187536	 3.8179982107	 0.125944
H	-1.3506568172	-2.0482745398	 3.3338021049	 0.12453
H	-0.8281019527	-3.8037861593	 1.8351393784	 0.118857
H	 0.9078994308	-3.5742047556	 2.0367295368	 0.118514
39.6449	69.8862	141.5547	231.0764	247.8296	301.803	504.0088	608.5483	635.5848	642.4605	698.3082	772.0621	824.2644	837.0188	876.8851	930.7348	968.6911	999.8044	1074.0847	1104.7572	1153.4636	1203.6144	1206.5439	1232.5076	1240.698	1278.4313	1294.8446	1373.3589	1402.0309	1452.6572	1476.8849	1481.2267	1498.134	1510.101	1518.2283	1617.4782	1631.6639	3026.0854	3047.1146	3055.1364	3067.8231	3113.4158	3120.703	3146.518	3238.0565
CN1N=CC2=C1OCC2	Cn1ncc2c1OCC2	
InChI=1S/C6H8N2O/c1-8-6-5(4-7-8)2-3-9-6/h4H,2-3H2,1H3	InChI=1S/C6H8N2O/c1-8-6-5(4-7-8)2-3-9-6/h4H,2-3H2,1H3
