15
gdb 7750	3.54239	1.92032	1.28332	4.6679	64.24	-0.2241	0.0042	0.2283	916.0417	0.119912	-399.858699	-399.851333	-399.850389	-399.890443	27.051	
C	 0.034431328	 1.5104080764	 0.0587594316	-0.493893
C	-0.0736215041	 0.0174828299	 0.0309103257	 0.382569
C	-1.200357071	-0.6951357433	 0.0651787498	-0.214247
C	-1.0889787421	-2.1881032441	 0.0719843614	-0.12306
O	 0.0852406096	-2.6540256948	-0.6294190101	-0.240295
C	 1.2483728003	-1.9795652689	-0.5207224487	 0.463891
O	 2.2964031506	-2.4704076611	-0.8496352788	-0.380795
N	 1.1416319793	-0.6801311148	-0.0455622972	-0.429784
H	 0.6394937086	 1.842081497	 0.9115177917	 0.138929
H	 0.516001832	 1.8907557437	-0.850130996	 0.139791
H	-0.9528432894	 1.9669556949	 0.1441867494	 0.141916
H	-2.1730328805	-0.2240825372	 0.1015352993	 0.101142
H	-1.0511026849	-2.5920433369	 1.0957237161	 0.121066
H	-1.928860546	-2.665919627	-0.4384893958	 0.131647
H	 2.0068529097	-0.1661726438	-0.1002792883	 0.261122
106.9045	145.3911	176.4441	234.4063	306.4349	463.7104	514.9265	530.7582	561.9547	592.6142	729.883	745.6965	775.4742	866.0174	939.3898	1003.8596	1049.2775	1064.443	1075.121	1112.4917	1208.3648	1239.0345	1262.066	1340.3049	1415.7082	1434.4608	1465.3134	1476.5433	1496.5907	1506.727	1757.794	1854.3668	2981.3388	3026.2877	3076.6822	3091.7454	3138.7415	3224.7061	3643.2869
CC1=CCOC(=O)N1	CC1=CCOC(=O)N1	
InChI=1S/C5H7NO2/c1-4-2-3-8-5(7)6-4/h2H,3H2,1H3,(H,6,7)	InChI=1S/C5H7NO2/c1-4-2-3-8-5(7)6-4/h2H,3H2,1H3,(H,6,7)
