21
gdb 63894	2.36593	1.62769	1.33219	2.9365	81.65	-0.2323	-0.0097	0.2226	1083.2694	0.18263	-387.121027	-387.112266	-387.111322	-387.153974	34.384	
C	-0.4304082537	 1.5383236345	 0.1312713812	-0.43002
C	-0.0333889143	 0.0586953912	-0.0332050441	 0.177989
C	-1.2955123058	-0.815240411	 0.0714574317	-0.416916
C	 0.763517076	-0.2329586462	-1.3381594588	-0.283324
C	 2.2054194504	-0.549401304	-0.9356848382	-0.037421
C	 2.9470063295	 0.504162516	-0.183771593	-0.290683
C	 2.2839417816	-0.6404741102	 0.5784144595	-0.144725
C	 0.9232686312	-0.3545943355	 1.1184493444	 0.402983
O	 0.5777385971	-0.476133113	 2.2695015312	-0.354325
H	 0.4232093221	 2.2140895407	 0.0225110762	 0.115404
H	-1.1731397545	 1.8191018172	-0.6232755808	 0.114539
H	-0.8665121825	 1.7034266548	 1.1208151242	 0.135625
H	-2.0148520785	-0.5449939518	-0.7088896621	 0.109029
H	-1.0554848192	-1.8775699012	-0.0417487428	 0.112941
H	-1.7658644572	-0.6804837566	 1.0490318021	 0.135689
H	 0.3335815093	-1.0996969145	-1.8498847562	 0.103637
H	 0.7184550959	 0.6049331688	-2.0424926634	 0.101889
H	 2.7716309108	-1.2393645203	-1.5507674877	 0.093231
H	 4.0308320097	 0.4763980979	-0.2024333547	 0.124405
H	 2.5320841117	 1.5028287188	-0.1047085951	 0.124807
H	 2.9146013805	-1.3342856354	 1.1196871566	 0.105246
76.3998	184.358	208.0422	224.0261	257.2664	301.3436	330.2047	349.9064	396.7236	484.4471	589.7167	595.3518	677.2092	766.4569	795.9001	832.8993	869.0636	889.8354	932.3822	950.7352	958.1055	978.2268	1009.1345	1038.4723	1061.1656	1075.8854	1105.2718	1155.4929	1159.4021	1201.3505	1223.091	1233.8863	1270.6465	1325.7778	1330.1079	1378.9653	1392.361	1417.7428	1478.6794	1484.9938	1490.3007	1498.311	1505.6746	1510.6462	1819.7101	3030.291	3033.4121	3041.6614	3078.1877	3097.6825	3101.4768	3114.4508	3122.1623	3137.5524	3173.8515	3196.7229	3221.9749
CC1(C)CC2CC2C1=O	CC1(C)C[C@H]2C[C@H]2C1=O	
InChI=1S/C8H12O/c1-8(2)4-5-3-6(5)7(8)9/h5-6H,3-4H2,1-2H3	InChI=1S/C8H12O/c1-8(2)4-5-3-6(5)7(8)9/h5-6H,3-4H2,1-2H3/t5-,6-/m1/s1
