13
gdb 28247	5.09708	1.33266	1.07189	1.7431	61.42	-0.1785	0.0143	0.1928	1029.7151	0.090958	-489.860334	-489.853356	-489.852412	-489.891622	26.338	
N	 0.0772089303	 1.2930024915	 0.0564588882	-0.570203
C	-0.0375198706	-0.0685390748	-0.0119096115	 0.422976
N	-1.1408658099	-0.7751674705	-0.00297412	-0.408616
C	-0.6495697824	-2.0426914314	 0.1893713019	 0.269827
C	 0.6818489899	-2.0492537032	 0.2866147064	 0.217735
O	 1.2344442169	-3.255482671	-0.0606947449	-0.267478
C	 0.0647175004	-4.092767303	 0.1365285296	 0.011846
O	-1.1235469716	-3.2994377063	-0.0826659454	-0.264326
O	 1.1435685514	-0.7755017479	 0.0975831112	-0.218139
H	 0.8834732539	 1.6782188694	-0.4153282375	 0.269791
H	-0.7869403266	 1.7656999202	-0.1652720765	 0.276949
H	 0.0907437202	-4.919254771	-0.5727683166	 0.142554
H	 0.0637293581	-4.435977362	 1.181312625	 0.117085
132.3705	243.5716	263.5819	287.2655	318.2055	345.4104	530.6621	583.6068	586.6976	612.6134	720.9875	742.8691	761.6769	870.0888	874.2687	933.9805	1043.4646	1116.1197	1128.6986	1143.7508	1244.1867	1311.4604	1392.9079	1409.0552	1465.8895	1513.4224	1588.7708	1666.2213	1707.4557	2998.0795	3145.2323	3566.0421	3677.3043
NC1=NC2=C(OCO2)O1	Nc1nc2c(OCO2)o1	
InChI=1S/C4H4N2O3/c5-4-6-2-3(9-4)8-1-7-2/h1H2,(H2,5,6)	InChI=1S/C4H4N2O3/c5-4-6-2-3(9-4)8-1-7-2/h1H2,(H2,5,6)
