21
gdb 83377	2.64589	1.71678	1.53898	1.3992	81.87	-0.2249	0.0756	0.3005	1001.126	0.184467	-387.02471	-387.017301	-387.016357	-387.055948	31.194	
C	-0.0208899964	 1.6592883457	 0.0923468475	-0.445049
C	 0.0434529598	 0.1424048448	 0.0148870599	-0.005998
C	 1.1543685137	-0.6022248784	-0.7784224706	-0.136779
C	 2.4066310741	-0.0155183783	-0.0431932421	-0.095232
O	 1.9734300817	-0.0060290118	 1.3586438834	-0.344216
C	 0.7310176096	-0.6697284322	 1.1809040068	 0.456259
C	-0.1538973177	-1.5172348262	 2.0888946828	-0.330707
C	-0.3714876094	-2.4238762092	 0.8089062911	-0.284011
C	 0.9379504363	-1.8100160379	 0.1778481295	-0.028046
H	 0.8723879589	 2.0801585267	 0.5595360538	 0.134595
H	-0.132482288	 2.1009179162	-0.9045395533	 0.11114
H	-0.8836261029	 1.976507934	 0.6880744567	 0.113511
H	-0.9378748705	-0.2601538957	-0.2352492792	 0.073211
H	 1.2137864641	-0.6317215611	-1.8692888278	 0.061666
H	 3.2992323529	-0.6429770596	-0.1421249069	 0.103529
H	 2.6451769673	 1.0036328274	-0.359586477	 0.106514
H	 0.4186850845	-2.0504351786	 2.8527815451	 0.115262
H	-1.0249396448	-1.0450336221	 2.5508276553	 0.100732
H	-0.2909511995	-3.4966017761	 0.9892445127	 0.106509
H	-1.3081034942	-2.233744274	 0.2842081146	 0.115147
H	 1.7951026004	-2.4707544234	 0.3271596676	 0.071963
166.4291	223.5657	260.8071	297.6806	329.3477	381.8846	441.4548	549.0845	593.8718	671.7089	698.5235	748.3127	772.3704	806.821	861.1278	868.4141	883.0506	910.759	931.3791	1004.6975	1012.029	1032.0554	1052.0185	1062.5503	1095.6032	1105.6816	1145.5908	1168.1072	1178.6365	1198.5912	1206.8347	1226.8212	1237.7097	1248.771	1262.5423	1304.7875	1335.3992	1361.3239	1398.2404	1410.2982	1479.3309	1489.2406	1495.0137	1502.5697	1525.4067	3032.342	3040.019	3056.4068	3074.3631	3082.2815	3084.7659	3088.7113	3094.5416	3103.7409	3110.3376	3126.6194	3141.166
CC1C2COC11CCC21	C[C@H]1[C@H]2CO[C@]31CC[C@@H]23	
InChI=1S/C8H12O/c1-5-6-4-9-8(5)3-2-7(6)8/h5-7H,2-4H2,1H3	InChI=1S/C8H12O/c1-5-6-4-9-8(5)3-2-7(6)8/h5-7H,2-4H2,1H3/t5-,6+,7-,8-/m0/s1
