21
gdb 108246	2.48457	1.31166	1.272	2.4837	78.1	-0.2358	0.0609	0.2967	1152.5265	0.181261	-424.194523	-424.185168	-424.184224	-424.228681	35.108	
C	-0.3603482431	 1.4629309155	 0.0341291033	-0.476583
C	 0.0555768248	 0.0143650818	 0.0052053847	 0.390175
C	 1.147512852	-0.4589118761	-0.9906372899	-0.266439
C	 1.8266600325	-1.2803917685	 0.1492553379	-0.280191
C	 0.7412561138	-0.8061175262	 1.1540494924	 0.283065
C	 1.1784762694	-0.2522792414	 2.4836346732	-0.199416
O	 1.6676289818	-1.3436171017	 3.255643021	-0.424362
C	-0.5401543443	-1.6549807657	 1.1085037957	-0.118288
O	-1.0800813082	-0.8859320994	 0.0079759559	-0.335582
H	 0.5104194034	 2.1232410603	 0.0995284965	 0.113604
H	-0.9025584636	 1.7091511535	-0.8862478988	 0.129897
H	-1.0239504652	 1.6678055579	 0.879447597	 0.120489
H	 0.7427720739	-1.0320174994	-1.8273175772	 0.108493
H	 1.7722794969	 0.3485529296	-1.3829785522	 0.095649
H	 1.88336766	-2.3611531616	 0.0001935706	 0.103796
H	 2.8259261583	-0.9208316479	 0.406913714	 0.101943
H	 1.9595197871	 0.5117646808	 2.3356384458	 0.082612
H	 0.3280996326	 0.2388491835	 2.984619313	 0.08621
H	 1.943343049	-1.0074042393	 4.1135957114	 0.288912
H	-0.4161054548	-2.7152502187	 0.8573554812	 0.099509
H	-1.1726721062	-1.5733265568	 2.0023671346	 0.096509
71.6154	93.3385	134.0981	204.9052	251.8716	261.2577	313.2178	339.043	355.1866	385.3719	497.9546	593.8964	666.8469	727.844	751.4935	868.7749	905.5546	934.6223	939.9929	949.2386	972.1664	1004.6225	1010.7426	1051.1214	1088.4522	1150.7027	1174.8357	1185.4506	1198.7305	1211.3327	1226.891	1234.2969	1265.3045	1297.6689	1302.2006	1321.4914	1370.1707	1405.421	1462.0023	1465.9522	1480.1574	1487.6415	1489.8229	1515.7283	1529.5993	2956.1982	2984.881	3005.9052	3030.6653	3053.0364	3056.0374	3064.7196	3097.5775	3105.5734	3111.5824	3124.8556	3824.858
CC12CCC1(CO)CO2	C[C@@]12CC[C@]1(CO)CO2	
InChI=1S/C7H12O2/c1-6-2-3-7(6,4-8)5-9-6/h8H,2-5H2,1H3	InChI=1S/C7H12O2/c1-6-2-3-7(6,4-8)5-9-6/h8H,2-5H2,1H3/t6-,7+/m1/s1
