18
gdb 63768	2.95735	1.4033	1.15768	2.3896	77.84	-0.2298	0.0257	0.2556	1094.0782	0.145207	-401.861089	-401.852283	-401.851339	-401.893852	34.38	
C	-0.2685027326	 1.5633930892	-0.0512342747	-0.474104
C	-0.0129535278	 0.0654230032	-0.0092546057	 0.392293
O	-1.2352129679	-0.6540551053	-0.1210862588	-0.470616
C	 1.1034606363	-0.5722323443	-0.894196322	-0.226562
N	 1.6858145357	-1.3178663676	 0.2849969217	-0.147291
C	 2.1814059316	-0.2851277061	 1.2373733632	-0.215835
C	 2.8467377502	 0.9209021972	 0.8297901283	 0.347459
C	 3.4715146236	 1.9003276753	 0.5154747628	-0.444924
C	 0.7217033083	-0.5649993694	 1.1750886116	-0.070063
H	 0.649374303	 2.136518379	 0.0886400944	 0.140955
H	-0.6956023176	 1.8445015751	-1.0227818613	 0.104851
H	-0.9861171705	 1.8416912642	 0.726573887	 0.126054
H	-1.6867568833	-0.3439153006	-0.9136811649	 0.277917
H	 0.6982695288	-1.2873666444	-1.6112222122	 0.112532
H	 1.81345893	 0.1003592845	-1.382785485	 0.113162
H	 2.6722314995	-0.7723560994	 2.0780387361	 0.125529
H	 4.0145253606	 2.7702375239	 0.2388788015	 0.202209
H	 0.2053650823	-1.0454558645	 2.000833668	 0.106433
130.4948	136.708	211.5879	232.5924	257.132	276.5508	374.5085	392.9252	400.7121	453.5186	558.442	603.434	626.5998	644.791	661.7725	748.774	783.4898	859.3989	884.6073	921.207	964.7658	977.545	998.3783	1063.6381	1080.4612	1115.6105	1161.0754	1199.9006	1221.0665	1240.4147	1280.4359	1320.1037	1398.9398	1401.2462	1410.0876	1475.7766	1490.9562	1499.7824	2228.6908	3024.0721	3064.1481	3094.5661	3125.6764	3133.6813	3141.9361	3161.7223	3500.9138	3803.7264
CC1(O)CN2C(C#C)C12	C[C@@]1(O)CN2[C@@H](C#C)[C@@H]12	
InChI=1S/C7H9NO/c1-3-5-6-7(2,9)4-8(5)6/h1,5-6,9H,4H2,2H3	InChI=1S/C7H9NO/c1-3-5-6-7(2,9)4-8(5)6/h1,5-6,9H,4H2,2H3/t5-,6-,7+,8?/m0/s1
