15
gdb 17370	4.37954	1.6416	1.45915	3.1909	60.63	-0.2374	0.0252	0.2626	863.4613	0.119461	-399.791741	-399.784655	-399.783711	-399.82343	26.803	
N	 0.598891469	 0.3282712063	-0.8392658701	-0.527763
C	-0.0136938341	 0.0218083403	 0.3387109312	 0.382803
O	 0.2517470619	 0.5665852384	 1.3939823671	-0.371326
C	-1.0995236557	-1.0464325676	 0.2365892885	-0.110949
C	-2.3284694416	-0.8213754884	-0.7319031407	-0.276547
C	-1.9679987443	-2.1405789273	-1.4238376345	 0.033229
O	-0.6274076306	-2.0112662411	-1.9255715465	-0.245256
C	-0.8095464885	-2.3491013438	-0.5409494704	 0.002971
H	 1.3729776474	 0.9714105693	-0.8125435764	 0.255188
H	 0.4360226486	-0.2402087289	-1.6567715795	 0.270285
H	-1.4362380307	-1.2538218596	 1.2523620959	 0.1086
H	-3.2783984966	-0.8539073669	-0.1952334911	 0.122556
H	-2.2962905734	 0.0630548566	-1.371140195	 0.123588
H	-2.6079702749	-2.8506394135	-1.9333655353	 0.115428
H	-0.3244190966	-3.2524937136	-0.1910962732	 0.117194
51.3898	194.5835	212.1754	327.1087	394.5957	409.4234	475.8164	600.0248	644.7556	737.7808	754.485	799.5979	841.3098	863.2259	923.1045	938.1148	980.0573	1015.2438	1026.1722	1067.3594	1119.0199	1152.2204	1212.8039	1238.0554	1241.7736	1274.6921	1311.1368	1353.1397	1393.9506	1473.7712	1612.0119	1795.4197	3078.3147	3118.9007	3139.096	3188.443	3203.5994	3562.9116	3711.7646
NC(=O)C1CC2OC12	NC(=O)[C@H]1C[C@H]2O[C@@H]12	
InChI=1S/C5H7NO2/c6-5(7)2-1-3-4(2)8-3/h2-4H,1H2,(H2,6,7)	InChI=1S/C5H7NO2/c6-5(7)2-1-3-4(2)8-3/h2-4H,1H2,(H2,6,7)/t2-,3+,4-/m0/s1
