18
gdb 19908	4.46779	1.53921	1.3855	1.7462	70.56	-0.228	0.0572	0.2852	962.693	0.15314	-347.717121	-347.709709	-347.708765	-347.749725	28.536	
C	 0.0072849913	 1.5566087869	 0.2952171163	-0.399804
C	 0.0830735165	 0.1300506544	-0.2627358957	-0.176342
C	-1.2900842031	-0.5508017693	-0.2483454092	 0.00514
C	-1.9318828839	-1.4351592802	-1.2913079859	-0.130793
C	-0.9835314743	-2.537008232	-1.8567663591	 0.020129
O	 0.3194968943	-2.4007431328	-1.2716306761	-0.239098
C	-0.7171758908	-3.0458123425	-0.517952306	 0.020128
C	-1.6514280123	-1.9708942205	 0.1184069127	-0.130783
H	 0.9898262067	 2.038826253	 0.2830179581	 0.109475
H	-0.6760249991	 2.1789272904	-0.2940579802	 0.111554
H	-0.3524216538	 1.5606741415	 1.330607129	 0.11156
H	 0.4774793388	 0.1533227558	-1.2815784258	 0.108074
H	 0.7966803443	-0.4565351423	 0.321043339	 0.108104
H	-2.0578572652	 0.1110667872	 0.1558925621	 0.089211
H	-2.8929223334	-1.214046583	-1.738635794	 0.089576
H	-1.0550717757	-3.0297659998	-2.8187415999	 0.107147
H	-0.5235839691	-4.0450327843	-0.1472698961	 0.107147
H	-2.3696466713	-2.2136607628	 0.891592681	 0.089576
22.5967	192.5696	194.8819	274.9348	318.4737	418.5832	503.4454	665.7606	715.26	722.6845	747.7589	789.5144	825.711	858.8782	887.07	909.3128	935.831	959.6845	997.3938	1028.8997	1030.6652	1046.3662	1077.4421	1089.693	1135.4518	1196.0175	1234.4022	1246.1498	1277.4357	1299.3978	1318.8649	1333.66	1395.4722	1408.8686	1440.8106	1477.9452	1499.756	1505.1758	3024.8394	3065.7433	3079.8448	3093.1186	3102.2951	3110.4037	3179.1567	3188.8682	3191.0763	3202.4709
CCC1C2C3OC3C12	CC[C@H]1[C@H]2[C@H]3O[C@H]3[C@@H]12	
InChI=1S/C7H10O/c1-2-3-4-5(3)7-6(4)8-7/h3-7H,2H2,1H3	InChI=1S/C7H10O/c1-2-3-4-5(3)7-6(4)8-7/h3-7H,2H2,1H3/t3-,4+,5-,6+,7-
