19
gdb 31515	3.12464	1.08273	0.85395	1.6085	81.11	-0.1876	0.0276	0.2152	1392.5542	0.157566	-423.068667	-423.05879	-423.057846	-423.103964	35.164	
C	-0.2770819166	 1.4919278999	-0.179487163	-0.370339
C	 0.1439283612	 0.0241039755	 0.0097589173	-0.293993
C	 0.9125378039	-0.5250822217	-1.1424701272	 0.388975
C	 2.182566151	-0.9979263537	-1.277331203	-0.42929
C	 2.3217978649	-1.3742376554	-2.6545585756	 0.231668
O	 3.4144025466	-1.9019282917	-3.2801443871	-0.448104
C	 1.1368549739	-1.1080140906	-3.2702294956	 0.25458
C	 0.6589975738	-1.2728910595	-4.6644641253	-0.500649
O	 0.2691375415	-0.5851347697	-2.3393564266	-0.223601
H	 0.5989245846	 2.1385652135	-0.2886403757	 0.120041
H	-0.8914190829	 1.603813479	-1.0769034222	 0.132623
H	-0.8580121645	 1.8425472565	 0.678986832	 0.111024
H	 0.7630788835	-0.078084842	 0.9068918182	 0.110054
H	-0.7523910984	-0.5879826841	 0.1769609471	 0.115594
H	 2.9260890284	-1.0720510463	-0.4974726018	 0.099596
H	 4.1157545594	-2.0119117084	-2.6327213669	 0.298194
H	-0.2061917557	-1.9442352422	-4.7263172717	 0.12978
H	 0.3647599799	-0.3168840176	-5.1145944051	 0.129523
H	 1.4638417855	-1.6991483915	-5.2680408277	 0.144322
51.0783	94.5528	117.7993	155.3396	194.3878	220.9859	246.1256	284.2854	310.9897	402.7154	491.6291	583.3341	645.2599	662.332	692.0757	758.5652	785.9602	794.8959	950.0471	965.3813	1027.1763	1064.6305	1077.9239	1085.7333	1102.0234	1171.5734	1239.2286	1268.1966	1306.6594	1330.6213	1355.9277	1406.0606	1412.129	1457.8024	1474.3152	1474.6918	1494.7245	1496.4822	1507.1978	1610.9291	1719.4781	3018.8857	3019.7931	3040.8189	3064.3776	3076.5402	3111.3043	3122.8764	3126.4627	3238.2417	3852.8392
CCC1=CC(O)=C(C)O1	CCc1cc(O)c(C)o1	
InChI=1S/C7H10O2/c1-3-6-4-7(8)5(2)9-6/h4,8H,3H2,1-2H3	InChI=1S/C7H10O2/c1-3-6-4-7(8)5(2)9-6/h4,8H,3H2,1-2H3
