22
gdb 78306	2.98704	1.42688	1.20064	1.4479	86.35	-0.2232	0.0926	0.3158	1153.8819	0.195474	-367.17007	-367.161974	-367.16103	-367.202005	33.356	
C	 0.1203955052	 1.5574024236	-0.0590744682	-0.41963
C	-0.0366702553	 0.055426488	-0.0583950936	 0.006571
C	 0.6002634688	-0.7666542288	-1.1226794224	-0.074967
N	 1.1996758332	-0.6930461946	 0.2423071468	-0.128485
C	 1.0378316035	-2.1321980066	 0.6320410038	 0.004846
C	-0.3344203746	-2.6325487652	 0.1035948368	-0.288303
C	 0.3013114194	-2.2709833478	-1.2702927781	 0.320514
C	-0.2473628199	-2.7631432062	-2.5892479192	-0.503554
C	 1.6404584503	-2.8133054134	-0.631398074	-0.238494
H	 1.0797109418	 1.8473705376	-0.4961620835	 0.125386
H	-0.6826431706	 2.0312205704	-0.6341590674	 0.113169
H	 0.0842498811	 1.9504129368	 0.9624964	 0.120886
H	-0.9689838848	-0.2882379405	 0.378047569	 0.081182
H	 1.1433917801	-0.2790663799	-1.93103635	 0.081223
H	 1.3892512621	-2.3345382704	 1.6429616976	 0.069833
H	-0.4285204297	-3.7140729635	 0.2211041373	 0.095329
H	-1.2658940991	-2.1610079464	 0.4192767588	 0.094846
H	-1.2384541434	-2.339607699	-2.7877182718	 0.118778
H	 0.4068003654	-2.476155159	-3.4208364394	 0.116891
H	-0.3403470168	-3.8538883068	-2.5992605994	 0.11432
H	 2.5835608473	-2.404469468	-1.0024584723	 0.098766
H	 1.678568206	-3.9038664001	-0.5735109606	 0.090892
178.5875	203.8347	208.3829	235.4748	271.0971	320.2891	387.167	454.7192	506.2703	576.8019	593.8495	675.081	770.0051	793.8141	827.3767	848.76	868.791	923.9612	947.4832	976.381	986.1019	1006.0401	1025.4626	1040.4081	1045.8026	1073.7278	1113.2619	1122.0248	1141.6257	1161.7892	1192.9682	1215.9434	1229.9455	1236.238	1255.0589	1271.769	1288.2954	1342.1479	1409.327	1413.6074	1436.0244	1484.8555	1490.8319	1492.4584	1493.5365	1496.6767	1532.5723	3024.3853	3033.3612	3059.3174	3075.9782	3086.5821	3096.8931	3097.3089	3112.6936	3115.2082	3121.1144	3124.5094	3127.6993	3161.3958
CC1C2N1C1CC2(C)C1	C[C@H]1[C@H]2N1[C@H]1C[C@]2(C)C1	
InChI=1S/C8H13N/c1-5-7-8(2)3-6(4-8)9(5)7/h5-7H,3-4H2,1-2H3	InChI=1S/C8H13N/c1-5-7-8(2)3-6(4-8)9(5)7/h5-7H,3-4H2,1-2H3/t5-,6-,7+,8+,9?/m0/s1
