17
gdb 50690	1.97783	1.63009	1.02633	3.0264	69.13	-0.2574	-0.0506	0.2068	1149.2046	0.134618	-458.974562	-458.965868	-458.964923	-459.009759	30.206	
O	-0.1809319025	 0.0527977759	-0.4298150622	-0.248999
C	-0.0064350734	 1.2328182597	-0.2691330243	 0.143656
C	 1.3508093913	 1.8844429373	-0.0930864507	-0.118151
C	 1.5150246202	 3.0150040199	-1.1448739914	-0.108144
O	 1.0113875191	 4.1792855506	-0.5285175642	-0.234217
C	 1.5018629791	 4.1694985035	 0.8039524287	-0.100083
C	 1.4869302183	 2.6898998113	 1.2464646088	-0.138232
C	 0.4160356029	 2.369888322	 2.2811340249	 0.135383
O	-0.2292759366	 3.1934395751	 2.8749863046	-0.233481
H	-0.859059415	 1.9505286565	-0.268175104	 0.102792
H	 2.1110356377	 1.1078091399	-0.1914267351	 0.10259
H	 2.5797347026	 3.1214064322	-1.4075144636	 0.104335
H	 0.9479079623	 2.8436795983	-2.0645199958	 0.127361
H	 2.5240234356	 4.5732455254	 0.8430364035	 0.096356
H	 0.8455281157	 4.7863073618	 1.419731829	 0.144809
H	 2.4335149012	 2.4027724393	 1.7218554355	 0.119567
H	 0.2831072616	 1.2839201613	 2.4846506763	 0.104459
28.9841	64.253	91.8665	192.243	220.9634	292.5455	342.1914	386.4093	431.5135	597.2072	687.2327	744.8735	827.4893	901.2765	935.3879	944.9978	966.5916	983.1724	1022.6656	1065.4736	1105.2149	1130.8082	1150.6435	1207.6466	1220.2803	1268.3409	1281.0104	1305.3182	1330.6776	1348.4403	1392.2163	1422.4202	1425.5967	1504.6461	1519.8411	1828.9114	1830.3668	2873.4454	2888.0614	2977.2428	2996.7447	3035.0585	3088.4005	3105.2772	3126.3271
O=CC1COCC1C=O	O=C[C@H]1COC[C@H]1C=O	
InChI=1S/C6H8O3/c7-1-5-3-9-4-6(5)2-8/h1-2,5-6H,3-4H2	InChI=1S/C6H8O3/c7-1-5-3-9-4-6(5)2-8/h1-2,5-6H,3-4H2/t5-,6+
