19
gdb 29904	4.54052	1.03005	0.87889	2.2566	85.17	-0.1807	0.047	0.2276	1344.4592	0.160201	-382.067133	-382.05846	-382.057515	-382.101512	31.927	
C	-0.3135256178	 1.3725323296	 0.1027648433	-0.333047
N	-0.0730036916	-0.0435782262	-0.0587016513	 0.025415
C	 0.4339430001	-0.6458552428	-1.1785439552	-0.078048
C	 0.6082084532	-1.9859950942	-0.9183537305	-0.269304
C	 0.1866340785	-2.2080265482	 0.4242521671	 0.263715
C	-0.2275758257	-0.9919887838	 0.9303299614	-0.192384
N	 0.2640040481	-3.4337938894	 1.115950949	-0.14568
C	-0.8476632545	-3.8274669496	 1.9704437114	-0.22496
C	-0.5907507897	-4.537889372	 0.6858995657	-0.222584
H	 0.4840854997	 1.859627618	 0.6767058063	 0.136086
H	-0.3700131721	 1.8426546464	-0.8813040134	 0.137939
H	-1.2640162764	 1.5402793933	 0.6183566784	 0.136207
H	 0.6269598316	-0.069718499	-2.0700320416	 0.112269
H	 0.9824328669	-2.7302177465	-1.6038843472	 0.092462
H	-0.5938639919	-0.7226842755	 1.9075850219	 0.106998
H	-0.5767001324	-4.2835179565	 2.9183874944	 0.113808
H	-1.7141738902	-3.1698631791	 2.0040984991	 0.111013
H	-1.2829498361	-4.3492116357	-0.1317096474	 0.11597
H	-0.1235169699	-5.5184600389	 0.6812922885	 0.114124
48.2643	58.1242	129.0532	178.3699	202.671	342.2328	386.4383	504.4293	532.9925	606.5443	637.7949	684.1637	698.4525	756.5491	794.5918	824.0528	889.6184	914.2844	997.2761	1014.3343	1035.7262	1075.0583	1104.3029	1112.5714	1126.5069	1148.3406	1159.7729	1172.8538	1190.0979	1259.3343	1299.4565	1393.6036	1410.3682	1425.9636	1456.994	1484.3096	1488.5763	1515.0638	1518.6826	1547.4769	1605.7333	3024.0676	3085.8592	3098.3058	3103.5914	3128.8653	3181.3279	3196.0771	3244.9939	3261.1526	3265.005
CN1C=CC(=C1)N1CC1	Cn1ccc(c1)N1CC1	
InChI=1S/C7H10N2/c1-8-3-2-7(6-8)9-4-5-9/h2-3,6H,4-5H2,1H3	InChI=1S/C7H10N2/c1-8-3-2-7(6-8)9-4-5-9/h2-3,6H,4-5H2,1H3
