24
gdb 105368	2.38741	1.13861	0.91399	0.9226	89.88	-0.2308	0.0831	0.3139	1423.854	0.216808	-368.371458	-368.36156	-368.360616	-368.406732	37.442	
C	-1.6458116999	-0.9507518076	-0.5957614371	-0.383764
C	-0.2616602212	-0.4385858116	-0.1799422027	-0.24224
C	 0.8226995724	-0.6504235475	-1.228582215	 0.393474
C	 0.6270929942	 0.081300003	-2.5458325973	-0.229617
N	 0.4705347433	 1.5197667441	-2.3477701428	-0.057445
C	 1.6793938158	 2.3317422833	-2.4071762442	-0.214164
C	 0.6829832484	 2.3658915415	-3.5138227335	-0.221516
C	 2.2408790127	-0.8389628407	-0.7415924801	-0.311159
C	 1.4728255805	-2.0118034743	-1.302501667	-0.312894
H	-2.0374824643	-0.3978387408	-1.4550085313	 0.12268
H	-1.6135811091	-2.0123456662	-0.8644902721	 0.110838
H	-2.3642722127	-0.83370738	 0.2216537405	 0.10833
H	-0.3246677261	 0.6305444621	 0.050368866	 0.112154
H	 0.046502632	-0.943753427	 0.7437786125	 0.08378
H	 1.4709084378	-0.1523631419	-3.2215241271	 0.069788
H	-0.2827712503	-0.2774630506	-3.0427406917	 0.10385
H	 1.7430165468	 3.1468393769	-1.6919022631	 0.11494
H	 2.6240379265	 1.8290782512	-2.6086036052	 0.107243
H	 0.9664963982	 1.8856540755	-4.4498219025	 0.105764
H	 0.0021513066	 3.2055913857	-3.6229835435	 0.114895
H	 3.0514596748	-0.4333865959	-1.3378921359	 0.103851
H	 2.4215914734	-0.8086162421	 0.3277842717	 0.107939
H	 1.1283549452	-2.7748513133	-0.6121190013	 0.108542
H	 1.7660309549	-2.396434094	-2.2742819473	 0.104729
49.143	79.893	114.1306	157.5186	215.4517	244.3519	301.4547	319.9717	365.2284	409.9207	430.5533	518.3611	717.4855	767.5081	776.803	795.8753	835.9376	887.326	898.353	922.0226	941.7252	951.0631	1012.2009	1021.1808	1032.9658	1046.5833	1062.5409	1076.122	1097.9236	1113.9513	1116.5972	1121.8569	1170.5403	1176.6164	1187.4109	1262.2836	1280.1759	1322.9408	1332.2878	1348.7726	1375.9642	1408.0322	1412.5805	1466.1158	1480.971	1484.9311	1493.6964	1500.0741	1505.0723	1511.378	1523.1608	2925.7322	3027.6105	3033.7615	3043.0425	3069.9545	3089.0477	3096.5539	3100.977	3108.3681	3123.7914	3128.7651	3172.2606	3187.3432	3200.5627	3214.9828
CCC1(CN2CC2)CC1	CCC1(CN2CC2)CC1	
InChI=1S/C8H15N/c1-2-8(3-4-8)7-9-5-6-9/h2-7H2,1H3	InChI=1S/C8H15N/c1-2-8(3-4-8)7-9-5-6-9/h2-7H2,1H3
