21
gdb 108702	2.97493	1.23765	0.951	1.6628	87.5	-0.2192	0.0137	0.2329	1304.3285	0.183065	-387.069739	-387.061055	-387.060111	-387.103467	32.862	
C	-0.3565070722	 1.4597167823	 0.0216270905	-0.371488
C	 0.2468433802	 0.042763855	 0.0072323752	-0.290126
C	 0.9155264802	-0.3011605705	-1.2868070108	 0.173957
C	 2.1856300357	-0.5982077692	-1.5500900663	 0.094603
C	 3.3568444952	-1.3817569692	-0.9914740023	-0.315654
C	 3.1021562954	-2.3617245178	-2.2010766243	-0.248324
C	 2.3178090753	-1.1949483072	-2.9103418064	 0.105621
O	 1.0068182806	-1.3258093383	-3.4260107741	-0.280168
C	 0.140136882	-0.5459952951	-2.5827453126	-0.153357
H	 0.417980287	 2.2141711244	-0.1467605666	 0.123008
H	-1.1134216237	 1.5785255578	-0.7605045524	 0.120802
H	-0.8349111764	 1.6690405134	 0.9832710435	 0.114218
H	 0.9706116446	-0.0527027722	 0.8243026997	 0.103801
H	-0.5550575191	-0.6822730535	 0.208303742	 0.102569
H	 4.320407348	-0.8712698817	-1.0841956649	 0.113756
H	 3.2611206006	-1.7782010251	 0.0212825918	 0.111508
H	 3.9803713376	-2.7617979878	-2.7137325706	 0.099762
H	 2.4226729286	-3.1692566282	-1.9226451785	 0.116282
H	 2.9631564983	-0.6694510748	-3.6293403121	 0.074251
H	-0.7773529904	-1.1199223177	-2.3891226091	 0.10495
H	-0.1571287973	 0.3772525955	-3.1064195618	 0.100028
60.4738	115.9747	152.6495	201.2285	237.4839	266.9268	322.8583	388.7192	525.6654	608.0932	667.785	693.4509	745.8679	789.5081	800.3647	873.0829	908.1485	953.6036	963.7141	987.6119	1003.9564	1017.5678	1068.6947	1088.8499	1116.6543	1130.956	1142.3901	1174.828	1195.3422	1214.9614	1234.7721	1251.3516	1280.4653	1304.0727	1346.6822	1353.8275	1380.2845	1407.8436	1468.0801	1477.6448	1487.9731	1498.8931	1506.1958	1518.6855	1759.5106	2966.0261	2992.9416	3002.5539	3013.9369	3036.538	3055.2633	3060.7797	3065.6623	3106.9043	3111.1704	3112.0992	3138.5556
CCC1=C2CCC2OC1	CC[C]1[C]2CC[C@H]2OC1	
InChI=1S/C8H12O/c1-2-6-5-9-8-4-3-7(6)8/h8H,2-5H2,1H3	InChI=1S/C8H12O/c1-2-6-5-9-8-4-3-7(6)8/h8H,2-5H2,1H3/t8-/m1/s1
