20
gdb 69251	2.6613	1.52617	1.15239	3.3619	80.98	-0.2495	0.0222	0.2717	1125.7057	0.172586	-403.161783	-403.15353	-403.152586	-403.194591	32.349	
C	-0.0550546645	 1.5110412398	-0.0132548765	-0.473504
C	-0.0325099498	-0.0036677475	 0.0031394601	 0.328714
C	-0.7805943064	-0.7218420804	 1.0888038536	-0.3201
C	 0.7417239649	-0.6924724026	 1.1169222552	-0.116584
C	 1.49084824	-1.9483455495	 0.8596484225	 0.375218
N	 2.1812613808	-2.5035539469	 1.7649565472	-0.522894
O	 1.351544772	-2.5059663651	-0.386518924	-0.255568
C	 1.255599273	-1.5810956481	-1.4797115222	-0.085719
C	 0.0262270112	-0.6889429135	-1.3672302661	-0.294217
H	 0.8292651001	 1.9167818311	-0.5181544045	 0.118584
H	-0.9408561037	 1.8827649733	-0.5415948329	 0.120083
H	-0.0762219457	 1.9188177786	 1.0021687237	 0.119194
H	-1.2914964333	-0.1380163222	 1.8468496495	 0.116341
H	-1.2597357186	-1.6643202611	 0.8450549431	 0.121825
H	 1.1930401166	-0.0780920583	 1.8864926255	 0.109583
H	 2.6169033072	-3.350291248	 1.3922957606	 0.216216
H	 2.1704430582	-0.9734708066	-1.5146431022	 0.10734
H	 1.2253096771	-2.2004823745	-2.3792908705	 0.116578
H	-0.8753032983	-1.2861253639	-1.5410717997	 0.112861
H	 0.0670334093	 0.0634954354	-2.1623972224	 0.10605
64.2339	147.8656	228.8051	244.5017	311.0292	341.293	391.5845	412.2056	463.5381	511.772	638.7821	673.7156	738.6317	762.3154	861.1985	891.64	911.1387	918.8474	944.2368	954.6344	1003.2115	1042.9446	1053.3156	1070.5462	1089.4312	1116.2646	1134.2374	1146.6451	1207.0656	1277.2432	1286.3488	1296.5232	1342.7049	1369.8577	1405.2883	1418.6766	1431.6823	1475.7941	1489.4114	1496.7521	1502.5738	1507.3422	1745.3622	3011.601	3022.1746	3039.3741	3080.764	3083.749	3101.042	3102.5579	3129.595	3187.4533	3218.5303	3458.6677
CC12CC1C(=N)OCC2	C[C@]12C[C@H]1[C]([NH])OCC2	
InChI=1S/C7H11NO/c1-7-2-3-9-6(8)5(7)4-7/h5,8H,2-4H2,1H3	InChI=1S/C7H11NO/c1-7-2-3-9-6(8)5(7)4-7/h5,8H,2-4H2,1H3/t5-,7-/m0/s1
