13
gdb 10007	2.63385	1.28406	0.90328	4.0024	68.62	-0.2705	-0.0576	0.2128	1224.8997	0.092338	-361.450791	-361.441733	-361.440789	-361.486576	29.126	
C	-0.0656457133	 1.4612271259	 0.0366519989	-0.499452
C	 0.0171722945	 0.0099207537	-0.0080941795	 0.096397
C	 0.1086391108	-1.1891366957	-0.047351097	 0.066264
C	 0.1335475103	-2.6487693479	-0.075696211	-0.380148
C	-1.3230304399	-3.1646452558	 0.1252283963	 0.179873
O	-1.6568761823	-3.8037660901	 1.0780905029	-0.217556
C	 0.6572089738	-3.1747732677	-1.3433354533	 0.283205
N	 1.0326597313	-3.6137487857	-2.3436638368	-0.306847
H	 0.7430831486	 1.8817628059	 0.6432437934	 0.16197
H	 0.0093711047	 1.889021216	-0.9683716621	 0.163396
H	-1.0160441906	 1.7876050637	 0.4717018163	 0.160694
H	 0.7256324246	-3.0563046636	 0.7519344866	 0.170964
H	-2.0169226127	-2.8566242187	-0.6813938746	 0.121241
26.1946	58.5169	90.2501	114.6147	192.2013	257.7479	293.0227	385.1736	446.2074	458.9581	513.4118	542.4088	805.4641	928.8281	990.1697	1036.9628	1051.5316	1053.2309	1172.1754	1215.4781	1308.0749	1402.8477	1413.4467	1473.9286	1474.3074	1850.8009	2361.3712	2375.7559	2946.7397	3035.6043	3053.5017	3100.5382	3102.2409
CC#CC(C=O)C#N	CC#C[C@@H](C=O)C#N	
InChI=1S/C6H5NO/c1-2-3-6(4-7)5-8/h5-6H,1H3	InChI=1S/C6H5NO/c1-2-3-6(4-7)5-8/h5-6H,1H3/t6-/m1/s1
