19
gdb 122058	3.3336	0.68852	0.6193	6.3164	76.42	-0.2412	-0.0179	0.2233	1787.3797	0.157603	-456.349832	-456.339409	-456.338465	-456.386861	35.341	
O	-0.1109848252	 1.4216745084	-0.0808968587	-0.416249
C	-0.022754725	 0.0083610253	-0.0461169174	-0.070519
C	-1.4440046144	-0.5403123064	-0.006322838	-0.167476
C	-1.4789936487	-2.0713621125	 0.0200974278	-0.216718
N	-2.8374811162	-2.619801537	 0.0513751176	-0.051264
C	-3.5192731079	-2.7062252602	-1.1693316676	 0.090429
N	-4.7290925747	-3.0578892153	-1.299990832	-0.414469
C	-3.3699914117	-2.9875721114	 1.2867150174	 0.163358
O	-4.4673918499	-3.4219786551	 1.5038562354	-0.27124
H	 0.7806957932	 1.7815505763	-0.09389774	 0.289859
H	 0.5037197964	-0.3830135971	-0.9329150636	 0.08748
H	 0.5355956633	-0.3380957618	 0.8396058707	 0.089524
H	-1.9566406649	-0.1445485127	 0.8775011378	 0.123302
H	-1.991171299	-0.1684133157	-0.8801806504	 0.11923
H	-0.959043407	-2.4816944317	-0.8529972726	 0.121716
H	-0.9463603246	-2.4458096279	 0.8997527123	 0.125256
H	-2.8532978259	-2.4319773466	-1.9975212336	 0.093556
H	-4.9760547909	-3.0552994573	-2.2890115672	 0.229821
H	-2.6155778968	-2.8313151011	 2.085358682	 0.074402
41.2379	78.0014	84.4598	103.4738	132.6355	212.596	230.2008	267.8379	271.415	355.0871	404.1895	474.3469	511.5487	728.7273	758.6885	823.8633	870.9234	912.9102	1019.3372	1026.5871	1040.505	1066.1489	1090.7755	1109.4093	1186.4767	1212.6829	1237.8698	1242.0144	1303.6472	1316.8835	1321.9968	1410.1647	1417.0616	1442.5159	1460.5436	1467.859	1494.5022	1507.9993	1529.6542	1716.3083	1842.3438	2911.7909	2954.7825	2979.146	3025.6904	3039.6206	3048.1619	3075.3408	3098.3759	3490.3446	3830.8535
OCCCN(C=N)C=O	OCCCN(C=N)C=O	
InChI=1S/C5H10N2O2/c6-4-7(5-9)2-1-3-8/h4-6,8H,1-3H2	InChI=1S/C5H10N2O2/c6-4-7(5-9)2-1-3-8/h4-6,8H,1-3H2
