16
gdb 30376	3.33807	1.36741	1.05854	2.0446	84.35	-0.2382	-0.0844	0.1538	1128.6036	0.125383	-396.936399	-396.928454	-396.927509	-396.969252	29.061	
C	 0.3608540238	 1.3657985742	 0.1596698531	-0.330663
N	 0.2068061132	-0.0733679429	 0.0524834792	-0.287706
C	 0.3878707493	-0.6363851395	-1.0766369245	 0.315078
C	 0.2075514146	-2.0996034112	-1.1526340457	-0.089162
C	 0.9813942826	-2.9246759494	-1.8836235474	-0.092639
C	 2.1155115525	-2.4996718453	-2.6853313568	 0.020509
N	 2.3370241642	-1.3633915575	-3.2501936908	-0.234108
C	 1.4076723889	-0.3304603179	-3.2015463575	 0.069493
N	 0.5996858725	 0.0446644435	-2.28653109	-0.256072
H	 1.3567969002	 1.5997257073	 0.5580502687	 0.128135
H	 0.2445213727	 1.8926111394	-0.7947452605	 0.130242
H	-0.3668668605	 1.7441598525	 0.8843731333	 0.122495
H	-0.5599294892	-2.509819945	-0.5022149555	 0.135884
H	 0.8360310003	-3.9982366365	-1.797733098	 0.114853
H	 2.8861487089	-3.2592768612	-2.8425173453	 0.12567
H	 1.435913556	 0.2804754297	-4.1060035923	 0.127989
75.3068	100.9777	202.9066	226.6143	310.2265	334.2436	374.2434	426.2386	527.0295	622.4065	649.3817	760.0178	778.8954	849.9153	908.9207	941.0162	992.0286	1009.8704	1025.3754	1047.0425	1057.488	1116.7076	1148.0498	1203.4017	1264.352	1413.3074	1426.9759	1431.2597	1441.0737	1485.741	1491.5644	1599.0804	1673.9771	1684.8829	1708.952	3010.8069	3067.5915	3092.4924	3095.281	3114.8543	3162.5966	3183.8285
CN=C1C=CC=NC=N1	CN=c1cccncn1	
InChI=1S/C6H7N3/c1-7-6-3-2-4-8-5-9-6/h2-5H,1H3	InChI=1S/C6H7N3/c1-7-6-3-2-4-8-5-9-6/h2-5H,1H3
