21
gdb 121745	6.40928	0.54986	0.51454	2.8421	77.98	-0.2619	0.0189	0.2808	2194.2552	0.179054	-461.386437	-461.375215	-461.374271	-461.425093	37.287	
C	 0.1386241694	 1.391833804	 0.0075474596	-0.383873
C	-0.0402437223	-0.128914357	 0.0012284723	-0.190059
C	-1.5069948639	-0.5258888242	 0.0130729127	-0.042734
O	-1.5765458426	-1.9651578419	 0.0060996584	-0.251135
C	-2.8174157115	-2.4928744128	 0.0150000193	 0.409131
O	-3.8328796159	-1.8537185485	 0.0279807231	-0.334607
C	-2.7085077367	-4.0100284075	 0.0058987604	-0.171924
O	-3.9876263096	-4.5673327438	 0.0151590943	-0.210802
C	-3.9649538559	-5.9755634349	 0.0068104916	-0.223611
H	 1.1986711858	 1.6600444221	-0.0010640704	 0.120529
H	-0.3284346685	 1.852499986	-0.8696399005	 0.121429
H	-0.3117131423	 1.8431873626	 0.8982171978	 0.121429
H	 0.4379560129	-0.5628314131	-0.8844616433	 0.108781
H	 0.4546656392	-0.5720981835	 0.8730415971	 0.108781
H	-2.0238090116	-0.1484999785	 0.9022147245	 0.120716
H	-2.0405894956	-0.1391374549	-0.86202217	 0.120717
H	-2.1299047643	-4.3100676289	-0.8847057989	 0.115718
H	-2.1130041899	-4.3194641914	 0.882031426	 0.115724
H	-3.4667092147	-6.3719085588	-0.8922682767	 0.105584
H	-3.449580502	-6.3822303554	 0.8915106917	 0.105583
H	-5.0031198401	-6.3143337196	 0.0148258212	 0.134623
29.4313	56.3791	59.8775	88.3716	95.2881	185.5628	197.9533	232.3931	239.3342	300.1589	328.9175	374.3235	501.6018	598.655	730.1543	759.3905	890.854	904.7226	947.7861	990.8555	1038.5272	1041.885	1059.7442	1148.3606	1175.1347	1183.7492	1189.6536	1212.0776	1247.7389	1249.4858	1270.5226	1312.5885	1333.4755	1405.4193	1416.3894	1432.3863	1472.7774	1485.8475	1491.1727	1492.315	1501.5731	1505.1813	1516.6342	1520.8236	1847.9246	2956.3411	2971.9679	2981.3643	3013.9242	3034.7105	3035.4665	3044.9741	3064.3771	3088.3412	3105.9171	3112.5401	3122.2999
CCCOC(=O)COC	CCCOC(=O)COC	
InChI=1S/C6H12O3/c1-3-4-9-6(7)5-8-2/h3-5H2,1-2H3	InChI=1S/C6H12O3/c1-3-4-9-6(7)5-8-2/h3-5H2,1-2H3
