15
gdb 104559	2.4883	1.33485	1.0563	3.1999	67.96	-0.291	-0.0115	0.2795	1139.8075	0.111695	-453.944775	-453.936282	-453.935337	-453.97832	30.874	
O	 0.08324822	 1.4845887077	-0.072452264	-0.401462
C	 0.1161516821	 0.1058313704	-0.3314848909	-0.099431
C	-1.2409310702	-0.5480474058	-0.0661816087	 0.2034
C	-1.2513730534	-2.0896665411	 0.1172932957	-0.416615
C	-1.5653059033	-1.7616209942	 1.5607266012	 0.449417
N	-1.7475241165	-2.4303394002	 2.598121799	-0.52447
O	-1.5857801364	-0.3840782098	 1.3562917622	-0.282818
C	-2.298518207	-0.003816217	-0.9178067266	 0.282455
N	-3.1274953873	 0.3935993937	-1.6168512817	-0.31932
H	-0.1731397171	 1.6004656282	 0.8504034102	 0.301601
H	 0.386703453	-0.0216672636	-1.3843321943	 0.139236
H	 0.8625085426	-0.4206335711	 0.2834083251	 0.106657
H	-2.0420321879	-2.619845152	-0.4130451138	 0.167262
H	-0.2922573561	-2.5813044347	-0.053509644	 0.152843
H	-1.9475585326	-1.8427081704	 3.4084411507	 0.241247
73.8611	102.1729	161.3586	188.2323	239.9671	363.0331	404.8164	430.9892	453.23	494.9889	521.3319	591.3277	683.6277	785.7839	860.4424	871.8603	926.6744	946.7095	983.1482	1039.8687	1079.7817	1092.9309	1151.37	1204.9682	1232.799	1258.8317	1285.272	1392.3967	1421.8858	1462.6842	1489.1696	1846.2784	2364.2987	2990.7633	3090.9177	3096.7712	3158.1774	3490.4019	3795.4324
OCC1(CC(=N)O1)C#N	OC[C@]1(C[C]([NH])O1)C#N	
InChI=1S/C5H6N2O2/c6-2-5(3-8)1-4(7)9-5/h7-8H,1,3H2	InChI=1S/C5H6N2O2/c6-2-5(3-8)1-4(7)9-5/h7-8H,1,3H2/t5-/m0/s1
