15
gdb 19616	2.93874	2.78543	1.87609	2.2818	59.23	-0.2594	0.0444	0.3037	726.6644	0.120645	-399.733334	-399.727082	-399.726137	-399.76335	25.241	
O	 0.1282451829	 1.4428946705	 0.0282019167	-0.445694
C	-0.0234873454	 0.0591534828	-0.0514794404	 0.167968
C	-1.387017205	-0.6131618854	-0.1738449801	-0.099795
C	-1.7470276133	-0.7158343658	-1.6178887056	-0.066394
C	-0.6300765394	-0.1276380552	-2.4413212905	 0.112836
O	-0.6836890545	 1.2743072939	-2.6675842756	-0.439087
C	 0.302652242	-0.7094658105	-1.3543417959	-0.124806
N	-0.8183003493	-1.7370859579	-1.0019386232	-0.167275
H	-0.2595176292	 1.8078940781	-0.7804103275	 0.287834
H	 0.5216669855	-0.3805468879	 0.78829815	 0.101172
H	-2.1172448514	-0.8074227828	 0.603302779	 0.099599
H	-2.7429084589	-0.9853801518	-1.9481361344	 0.102264
H	-0.5218625656	-0.6749448126	-3.384630556	 0.095398
H	 0.025581738	 1.5177377037	-3.2719925458	 0.293712
H	 1.3067611136	-1.0580206891	-1.5875610609	 0.082268
216.888	229.4539	309.4281	353.8441	401.3467	563.8799	605.0902	634.6926	749.9156	769.2402	776.2995	816.2699	844.3666	936.2925	938.7683	1001.3049	1005.4343	1043.7564	1061.2368	1103.0467	1126.5348	1158.3088	1178.6845	1187.2599	1211.1073	1266.2442	1298.7699	1329.538	1360.9232	1381.699	1428.8203	1478.9364	3046.7595	3083.2782	3140.4514	3183.6463	3197.1707	3724.0999	3814.0695
OC1C2C3C(O)C1N23	O[C@H]1[C@H]2[C@H]3[C@@H](O)[C@@H]1N23	
InChI=1S/C5H7NO2/c7-4-1-2-5(8)3(4)6(1)2/h1-5,7-8H	InChI=1S/C5H7NO2/c7-4-1-2-5(8)3(4)6(1)2/h1-5,7-8H/t1-,2+,3-,4+,5-,6?
