18
gdb 108011	3.55606	1.49211	1.36532	3.0918	74.03	-0.2245	0.063	0.2875	985.3735	0.148679	-401.850032	-401.842843	-401.841899	-401.881695	28.717	
O	-0.0835520128	 1.3997779302	 0.0151412814	-0.423922
C	-0.0218447578	-0.0194755091	-0.0646477658	-0.213493
C	-1.429833289	-0.537345023	-0.0676664003	 0.358916
C	-2.4201830276	-0.3846203978	-1.2509075011	-0.279847
C	-3.1436004547	-1.5598523168	-0.5775059812	 0.004776
C	-1.811511416	-2.0743302569	 0.0498170581	-0.154755
C	-2.4214990816	-1.8265832401	 1.4514151074	-0.058088
C	-2.2992483632	-0.37095259	 1.1991406589	-0.088484
N	-3.5592168615	-1.0926627728	 0.8152398396	-0.153981
H	 0.815595891	 1.7408777939	 0.0246473258	 0.289516
H	 0.4994897119	-0.3458444394	-0.9791008612	 0.08552
H	 0.5227535368	-0.4451623394	 0.7948271245	 0.087898
H	-2.9542386143	 0.56098851	-1.3707967089	 0.111676
H	-1.9629427797	-0.6887759939	-2.1986811847	 0.097277
H	-3.8992224589	-2.1739527762	-1.0646616533	 0.074894
H	-1.188861897	-2.8900556085	-0.3097135045	 0.070671
H	-2.5219302245	-2.4126232568	 2.3568702022	 0.093344
H	-2.3788543211	 0.4805854867	 1.861888183	 0.09808
88.8234	160.6303	229.2214	292.1451	364.8291	426.6845	551.2549	638.6214	747.6938	762.7819	788.1788	795.2089	837.339	869.7106	892.6592	918.9058	933.8108	948.5344	958.5961	1009.0572	1032.5062	1045.5604	1063.9056	1091.0134	1107.06	1149.849	1161.2079	1194.077	1199.8152	1236.0697	1244.0999	1250.6123	1256.6793	1293.0736	1316.2666	1351.7114	1464.593	1480.1232	1514.7722	2957.1028	2986.0259	3048.4466	3114.4408	3127.795	3144.6837	3182.279	3205.4423	3828.8177
OCC12CC3C1C1C2N31	OC[C@@]12C[C@H]3[C@@H]1[C@H]1[C@@H]2N31	
InChI=1S/C7H9NO/c9-2-7-1-3-4(7)5-6(7)8(3)5/h3-6,9H,1-2H2	InChI=1S/C7H9NO/c9-2-7-1-3-4(7)5-6(7)8(3)5/h3-6,9H,1-2H2/t3-,4+,5-,6-,7-,8?/m0/s1
