19
gdb 56795	2.97649	1.0291	0.9662	4.6205	82.29	-0.2481	-0.0041	0.2439	1319.0108	0.160912	-382.091272	-382.082264	-382.08132	-382.125579	33.021	
N	 0.0213544234	 1.5334566499	 0.0230971543	-0.500457
C	 0.0390306335	 0.0598055568	-0.0213130928	-0.244998
C	-1.3274764391	-0.4331684117	 0.23157195	 0.297966
N	-2.3978566308	-0.8374990081	 0.3917409393	-0.328162
C	 0.5876906466	-0.5481317224	-1.2938388769	 0.354906
C	 1.695628316	-1.2861206801	-1.3831239729	-0.182739
C	 1.9690690327	-1.7459964727	-2.7932882509	-0.246899
C	 0.9926119575	-0.8846063871	-3.6372450136	-0.208674
C	-0.0877072928	-0.389303553	-2.6420862879	-0.310059
H	 0.955147755	 1.8666539714	-0.201150285	 0.237117
H	-0.5961546266	 1.8918338289	-0.7001314408	 0.243062
H	 0.659547447	-0.2789734463	 0.8173948778	 0.133583
H	 2.317204297	-1.570659691	-0.539821511	 0.094189
H	 3.0146153246	-1.6123752941	-3.0923530195	 0.107241
H	 1.7580147996	-2.8203173755	-2.8902315902	 0.115462
H	 1.5309816253	-0.0243600761	-4.0471779046	 0.106863
H	 0.5673438413	-1.4307426139	-4.482224626	 0.105688
H	-0.9990459798	-1.0010423341	-2.6806920082	 0.129263
H	-0.4020661404	 0.640156749	-2.8486294108	 0.096649
56.5551	94.9896	135.3631	189.5401	207.6541	261.2658	305.955	365.2685	448.8657	526.0661	600.7302	644.3045	701.1451	813.1401	839.3508	856.8381	887.4433	905.5118	914.7556	929.3359	967.4835	1037.4786	1066.5413	1102.7118	1152.3196	1167.7544	1192.9721	1231.4549	1244.7552	1255.9189	1315.3167	1320.6078	1331.0295	1376.3165	1392.03	1482.3654	1486.8618	1505.5902	1655.7908	1710.4492	2360.6231	3011.3825	3021.1104	3040.9006	3046.0722	3055.8469	3066.089	3108.0201	3182.0327	3487.7161	3572.4157
NC(C#N)C1=CCCC1	N[C@@H](C#N)C1=CCCC1	
InChI=1S/C7H10N2/c8-5-7(9)6-3-1-2-4-6/h3,7H,1-2,4,9H2	InChI=1S/C7H10N2/c8-5-7(9)6-3-1-2-4-6/h3,7H,1-2,4,9H2/t7-/m0/s1
