20
gdb 97814	4.79816	0.71404	0.68816	1.7441	89.32	-0.2274	0.0377	0.2652	1734.4975	0.17073	-365.941585	-365.93234	-365.931396	-365.978059	33.596	
C	-0.6177131719	 1.4231110167	-0.1149303086	-0.363893
C	 0.3926057894	 0.3065591219	 0.2063863246	-0.315546
C	 1.0706322908	-0.212274326	-0.9770382225	 0.051498
C	 1.6101526801	-0.6184952707	-1.9762872473	 0.118421
C	 2.2737694918	-1.1212167434	-3.1628183328	-0.15037
C	 3.7734358641	-1.5568475189	-3.0639178804	-0.263604
C	 3.3022674596	-2.9449162984	-3.4785549208	-0.009863
C	 2.2479973049	-3.4467903285	-2.578725358	-0.234494
N	 1.8549376478	-2.5074004091	-3.6460264369	-0.133598
H	-0.1201417012	 2.2712741246	-0.5928809742	 0.12807
H	-1.3930115502	 1.060389844	-0.7949695399	 0.13124
H	-1.0991494545	 1.7770277953	 0.8015918093	 0.11423
H	 1.1393605888	 0.6804525893	 0.9189424706	 0.128701
H	-0.121985103	-0.5174754255	 0.7173019572	 0.131088
H	 2.1186245917	-0.4329824509	-3.9978659395	 0.109208
H	 4.3942097637	-1.0583991473	-3.8100520532	 0.113291
H	 4.2523268602	-1.4748919427	-2.0850369228	 0.109888
H	 3.7865356204	-3.5749206	-4.2175605573	 0.094277
H	 1.8713066264	-4.4497649983	-2.7537562282	 0.119815
H	 2.2043744811	-3.1154245321	-1.5440009394	 0.121642
8.6798	81.201	96.9008	152.9042	214.4302	269.7175	322.4153	423.3473	466.8615	488.6384	549.5131	706.9246	756.0385	764.5078	780.3581	784.1244	887.562	936.3676	945.0233	986.4674	1007.3908	1051.2735	1078.7701	1081.0292	1103.4352	1109.6371	1132.0738	1149.2317	1193.6537	1224.8855	1251.4629	1271.3535	1286.0479	1346.1534	1357.6061	1368.3989	1408.7682	1473.115	1486.982	1494.5063	1503.4233	1505.3499	2354.2315	3018.2206	3044.2188	3045.294	3064.9203	3066.5605	3110.7174	3117.5134	3124.5042	3124.8711	3162.847	3201.3083
CCC#CC1CC2CN12	CCC#C[C@H]1C[C@H]2CN12	
InChI=1S/C8H11N/c1-2-3-4-7-5-8-6-9(7)8/h7-8H,2,5-6H2,1H3	InChI=1S/C8H11N/c1-2-3-4-7-5-8-6-9(7)8/h7-8H,2,5-6H2,1H3/t7-,8-,9?/m0/s1
