21
gdb 92959	2.74302	1.44978	1.20091	1.3855	83.75	-0.2405	0.0182	0.2587	1128.3579	0.183725	-387.088966	-387.080636	-387.079692	-387.121787	33.056	
O	 0.1966171022	 1.4758818667	 0.2016861236	-0.430826
C	 0.1681729587	 0.0532349129	 0.1550834061	 0.037522
C	 0.5532765275	-0.5620439945	 1.5240111451	-0.290563
C	-0.7932878686	-0.8356402097	 2.1538759204	-0.095765
C	-1.774011418	-0.7848837808	 1.2511103916	-0.127035
C	-1.2617763699	-0.4760731066	-0.1338299224	 0.303801
C	-2.1935538449	 0.3765063893	-1.0486753475	-0.27289
C	-2.6697348673	-0.9215585195	-1.7505826281	-0.212631
C	-1.4445932148	-1.6589926042	-1.1514117975	-0.266764
H	-0.4135442224	 1.7508223961	 0.8960789004	 0.279235
H	 0.8697328435	-0.2130117931	-0.6401307905	 0.07636
H	 1.1273795033	-1.4916339065	 1.4066657227	 0.10867
H	 1.1850610338	 0.1296511148	 2.0915743762	 0.107558
H	-0.9187933905	-1.0778111715	 3.2035886288	 0.092853
H	-2.8231831018	-0.9772758461	 1.4529773643	 0.092666
H	-2.9501787515	 0.9899271743	-0.5514061511	 0.089622
H	-1.6065052379	 1.0214724056	-1.7065544181	 0.11463
H	-3.6123208787	-1.2931531902	-1.3389123923	 0.100081
H	-2.7583085893	-0.8990731503	-2.8391593347	 0.096803
H	-0.6079601959	-1.7086902325	-1.8555224695	 0.099802
H	-1.6059810476	-2.6543054141	-0.7299342477	 0.096872
85.6112	111.0313	196.998	229.7023	318.8963	346.0536	385.2069	427.1286	496.3231	538.9275	685.3711	744.6092	769.9275	788.4292	824.8516	866.2371	870.5634	919.4868	945.0313	952.9929	964.3804	975.6579	1000.2242	1027.8379	1062.7142	1076.6916	1102.1604	1159.9293	1166.9162	1204.8428	1210.1335	1245.7483	1250.5378	1275.4954	1283.2584	1287.4353	1291.5047	1315.3238	1386.2575	1429.1148	1475.0586	1478.0496	1486.9532	1507.4765	1671.1243	3013.8955	3046.7336	3054.7864	3061.5692	3067.9409	3077.1053	3095.2372	3107.0541	3120.6612	3172.0947	3199.7952	3790.6738
OC1CC=CC11CCC1	O[C@H]1CC=CC21CCC2	
InChI=1S/C8H12O/c9-7-3-1-4-8(7)5-2-6-8/h1,4,7,9H,2-3,5-6H2	InChI=1S/C8H12O/c9-7-3-1-4-8(7)5-2-6-8/h1,4,7,9H,2-3,5-6H2/t7-/m0/s1
