17
gdb 47765	2.03389	1.70492	1.23252	3.005	74.03	-0.237	-0.0307	0.2064	1072.7167	0.135508	-421.809145	-421.80083	-421.799886	-421.842214	31.33	
O	 0.0555754469	-0.0355525637	 0.0423296416	-0.299439
C	-0.0217429316	 1.1653950021	-0.0013487074	 0.393787
C	-1.3252924911	 1.9410283053	-0.0435162826	-0.313976
C	-1.2737896357	 3.0697150132	-1.0923027649	-0.213099
C	 0.0112135616	 3.8794410624	-0.9358804961	-0.076337
O	 1.1573305933	 3.0398194008	-1.0479015463	-0.244912
C	 1.251159605	 2.0526293077	-0.0259706505	-0.157034
C	 1.4883997221	 2.6181027565	 1.3056677863	 0.323016
C	 1.6517337784	 3.074554448	 2.406216788	-0.467546
H	-2.1457584995	 1.2407951725	-0.2154092197	 0.126165
H	-1.4610456952	 2.3820108325	 0.9538604147	 0.137158
H	-1.3010575712	 2.6387092703	-2.0993494436	 0.119709
H	-2.1473414176	 3.7231485694	-0.991423627	 0.106877
H	 0.1149128948	 4.6194668001	-1.7334146356	 0.116599
H	 0.0228848709	 4.410114007	 0.0278900113	 0.105432
H	 2.085949375	 1.4054752856	-0.30845526	 0.135547
H	 1.8168422241	 3.4735252703	 3.3770352819	 0.208052
78.3566	127.7433	137.0142	222.692	322.301	358.1834	397.8302	439.0429	487.0774	548.7946	613.3261	633.6645	682.8151	695.8959	754.1948	862.4476	894.0581	913.953	962.3997	1004.0651	1034.1373	1089.0306	1105.0091	1176.598	1210.1833	1253.5945	1268.0631	1296.7959	1339.5161	1345.0697	1374.021	1405.2475	1461.1327	1485.6022	1498.8108	1833.967	2224.2152	3001.2407	3025.1681	3039.9598	3083.1418	3084.6185	3099.7807	3111.3739	3499.1265
O=C1CCCOC1C#C	O=C1CCCO[C@H]1C#C	
InChI=1S/C7H8O2/c1-2-7-6(8)4-3-5-9-7/h1,7H,3-5H2	InChI=1S/C7H8O2/c1-2-7-6(8)4-3-5-9-7/h1,7H,3-5H2/t7-/m0/s1
