15
gdb 33318	7.0917	0.7261	0.71244	5.3332	86.77	-0.2543	-0.0542	0.2001	1532.5008	0.11403	-379.570221	-379.562796	-379.561852	-379.602834	27.686	
N	-0.0565927183	-3.7886032704	-0.1465210543	-0.332527
C	-0.0344959518	-2.6279471171	-0.0976486588	 0.192878
C	-0.009945178	-1.2648014265	-0.0371270211	 0.153161
C	 0.0151891304	-0.057129975	 0.0216260092	 0.073132
C	-0.0057447905	 1.3854199349	 0.0694279539	-0.215792
C	 0.0293474929	 2.1466324574	 1.4282890607	-0.058095
C	 1.5055557855	 1.7045541596	 1.4967404503	-0.179358
N	 1.3672280051	 2.1230679766	 0.0152013064	-0.138593
C	 0.5694619533	 3.3157946437	 0.5829426028	-0.166495
H	-0.7017076566	 1.7729527796	-0.6813150266	 0.118044
H	-0.7375688583	 2.1437609925	 2.2085984963	 0.087064
H	 2.1993996278	 2.337430962	 2.0537085555	 0.114249
H	 1.7293215509	 0.6456946798	 1.6355251733	 0.127189
H	-0.095783363	 3.7858042987	-0.1460093399	 0.110932
H	 1.2041030606	 4.0513903841	 1.0803800821	 0.11421
80.1301	82.9108	223.8756	230.2232	425.0759	432.2744	484.6419	576.0772	589.4266	605.1596	752.6313	781.929	823.5444	843.464	898.9011	906.9362	934.9586	1024.2498	1069.0751	1081.7113	1113.5409	1134.6211	1163.837	1201.3412	1210.3934	1227.9927	1238.5458	1279.02	1377.0858	1513.8695	1550.7744	2260.347	2393.0785	3056.6567	3060.658	3066.9686	3078.9756	3134.5286	3143.787
N#CC#CC1C2CN1C2	N#CC#C[C@H]1[C@H]2CN1C2	
InChI=1S/C7H6N2/c8-3-1-2-7-6-4-9(7)5-6/h6-7H,4-5H2	InChI=1S/C7H6N2/c8-3-1-2-7-6-4-9(7)5-6/h6-7H,4-5H2/t7-/m0/s1
