19
gdb 90390	2.15508	1.52383	1.28318	2.0166	82.49	-0.2281	0.0468	0.2749	1118.7389	0.156549	-385.82001	-385.810812	-385.809868	-385.853364	35.014	
C	-0.2736607701	 1.5003931611	-0.0756329356	-0.423234
C	 0.0423707093	 0.0241257126	 0.0244864822	 0.102953
O	 1.137647963	-0.428801298	-0.8331619607	-0.303044
C	 1.6998541584	-1.1502089773	 0.2522841329	 0.050373
C	 2.1918423513	-0.2235110793	 1.3424453065	-0.303326
C	 2.780801404	 1.0638029068	 1.1104652896	 0.324149
C	 3.3301815051	 2.1225625066	 0.9515314332	-0.425327
C	 0.7076957391	-0.6123951158	 1.2543327542	 0.212735
C	-0.0315774468	-1.2347615373	 2.4020509876	-0.498778
H	 0.5847981946	 2.1150357486	 0.1947473604	 0.148377
H	-0.5751527157	 1.7462601331	-1.0990711296	 0.125906
H	-1.1108478669	 1.7436408084	 0.5881051677	 0.114808
H	-0.8480798864	-0.5690545004	-0.2302422124	 0.081536
H	 2.1084709622	-2.1366251005	 0.0598457693	 0.107851
H	 2.666856551	-0.7784144372	 2.1511397938	 0.113998
H	 3.8037224652	 3.0599061886	 0.7957273763	 0.19264
H	-0.4313519256	-0.4702697291	 3.0786245173	 0.129964
H	-0.8723434796	-1.8409182804	 2.0461461968	 0.123588
H	 0.6224993979	-1.8846860305	 2.9917087607	 0.124831
117.39	146.7006	177.7638	187.6693	211.8173	240.346	298.2363	354.2389	390.0985	458.3034	570.9123	581.2321	618.3757	647.7953	650.5204	744.0011	798.3271	855.3087	889.3232	908.1953	960.0816	1013.1305	1047.9232	1064.1418	1100.697	1106.0069	1135.058	1149.682	1245.8701	1250.1631	1286.7325	1338.2137	1387.7523	1410.0043	1417.8429	1462.9702	1486.0039	1486.8548	1496.7225	1501.9529	2230.9356	2994.7273	3024.2901	3041.4523	3084.3975	3099.6388	3102.0273	3114.2387	3158.4685	3169.1965	3503.4389
CC1OC2C(C#C)C12C	C[C@H]1O[C@H]2[C@@H](C#C)[C@@]12C	
InChI=1S/C8H10O/c1-4-6-7-8(6,3)5(2)9-7/h1,5-7H,2-3H3	InChI=1S/C8H10O/c1-4-6-7-8(6,3)5(2)9-7/h1,5-7H,2-3H3/t5-,6-,7+,8-/m1/s1
