19
gdb 80631	2.74859	1.57157	1.24895	1.8633	80.4	-0.2435	0.0502	0.2937	1061.7921	0.159354	-385.836837	-385.828791	-385.827846	-385.869092	32.029	
C	-0.0825453584	 1.5359239492	-0.1293376094	-0.404258
C	 0.034675244	 0.0187694008	-0.0398085686	-0.003771
C	 0.9529973239	-0.5884882606	-1.1280895709	 0.081633
C	 1.1864513392	-2.0438302469	-0.6748360172	-0.251498
C	 1.9677155495	-1.2513855446	 0.3934609024	 0.078522
O	 2.2878317518	-0.2617078045	-0.6249471146	-0.29023
C	 0.8416099026	-0.5445599768	 1.2083433011	-0.207102
C	 1.3404734315	 0.4390939569	 2.1518685743	 0.336388
C	 1.7600219745	 1.2335612138	 2.9511065997	-0.45803
H	 0.9086336557	 1.9933773243	-0.1773454107	 0.141905
H	-0.642766866	 1.8217112057	-1.0263691022	 0.104402
H	-0.6014977952	 1.9482188023	 0.7401953799	 0.1225
H	-0.9606727086	-0.4361737485	-0.0730636669	 0.075094
H	 0.7847597451	-0.2954408435	-2.1648127712	 0.07981
H	 0.3326498834	-2.6568525585	-0.3738811453	 0.094723
H	 1.8531913213	-2.5831645759	-1.3477417533	 0.113999
H	 2.8292277139	-1.6339402132	 0.9390820583	 0.09051
H	 0.2438252623	-1.2847621127	 1.7515363123	 0.1026
H	 2.1339634094	 1.9384519828	 3.6513597122	 0.192803
105.9123	148.0363	209.1749	239.7478	301.7001	366.8554	450.2547	459.1457	523.6188	619.2839	629.3069	636.2631	723.0462	787.8615	816.9199	838.4567	875.3426	881.2803	920.7811	958.8111	1007.2123	1015.4348	1046.2407	1075.8738	1098.0803	1115.3261	1139.9288	1191.6731	1196.2731	1228.9764	1263.4848	1282.0442	1291.7017	1321.8975	1348.4337	1366.9255	1410.1138	1486.4449	1491.381	1502.7337	2234.4304	3038.3767	3040.6118	3054.5668	3066.307	3106.5513	3118.8958	3130.2287	3134.5462	3146.1902	3505.4444
CC1C2CC(O2)C1C#C	C[C@H]1[C@@H]2C[C@@H](O2)[C@H]1C#C	
InChI=1S/C8H10O/c1-3-6-5(2)7-4-8(6)9-7/h1,5-8H,4H2,2H3	InChI=1S/C8H10O/c1-3-6-5(2)7-4-8(6)9-7/h1,5-8H,4H2,2H3/t5-,6+,7+,8-/m1/s1
