18
gdb 12778	3.56765	1.53657	1.2961	1.0502	67.78	-0.2453	0.0778	0.3231	996.6007	0.15234	-384.901701	-384.893386	-384.892442	-384.934359	30.764	
C	-0.1218001644	 1.5055609636	 0.0697283204	-0.504541
C	 0.1332515618	 0.0345781053	 0.0051320535	 0.394732
O	-0.7408114791	-0.8400991952	 0.7394354487	-0.290795
C	 0.6734417985	-0.9348168132	 0.9764179403	-0.039131
C	 1.2565860101	-1.8203909402	-0.1298243485	-0.255391
C	 0.6891944694	-0.7959999203	-1.1766723042	-0.03809
C	-0.3141378628	-1.3012768599	-2.1939591593	-0.094725
O	 0.3702447271	-2.1889688292	-3.0701711221	-0.425111
H	 0.7522721484	 2.0664051362	-0.276904015	 0.124627
H	-0.9720012912	 1.7852358946	-0.5629369016	 0.129506
H	-0.3497958512	 1.8073042615	 1.0955129399	 0.134305
H	 1.0071543409	-0.796411235	 1.999199266	 0.098336
H	 2.347789961	-1.8635111137	-0.1310099118	 0.105403
H	 0.8516190486	-2.8338699597	-0.1760003327	 0.112563
H	 1.5029300608	-0.2710086925	-1.6865582903	 0.08006
H	-1.1341936662	-1.8067328147	-1.6654463001	 0.102617
H	-0.7452811777	-0.4509467026	-2.7487848237	 0.079666
H	-0.278773164	-2.5919186049	-3.6540805996	 0.285969
87.628	152.7372	167.5396	200.3186	258.9286	276.1064	310.922	428.1079	465.6156	549.8981	640.0002	725.969	831.7467	856.1629	883.981	912.2672	954.5888	980.8447	1042.2679	1058.5888	1079.1195	1099.8391	1109.721	1166.6448	1191.2752	1205.5702	1256.4781	1258.6754	1272.7554	1285.9017	1359.0635	1403.4319	1445.5926	1465.4095	1477.9676	1485.5017	1496.5637	1525.0805	2958.8664	3022.7211	3032.6535	3066.1481	3072.2779	3094.0988	3119.8444	3127.2777	3176.808	3829.8755
CC12OC1CC2CO	C[C@]12O[C@H]1C[C@H]2CO	
InChI=1S/C6H10O2/c1-6-4(3-7)2-5(6)8-6/h4-5,7H,2-3H2,1H3	InChI=1S/C6H10O2/c1-6-4(3-7)2-5(6)8-6/h4-5,7H,2-3H2,1H3/t4-,5-,6+/m0/s1
