14
gdb 10975	2.82716	2.53784	1.86631	1.8046	57.1	-0.2314	-0.0279	0.2036	740.7133	0.107011	-419.652915	-419.646217	-419.645273	-419.683567	25.654	
O	 0.2694234333	 1.3949428612	-0.1426054345	-0.470596
C	 0.1205638369	 0.0322356347	-0.0399195118	 0.243047
C	-1.2516733268	-0.7685216208	-0.0431806509	-0.311618
C	-0.3439000876	-1.9185108705	 0.4699485537	-0.028137
O	 0.5423991177	-2.1538998193	-0.6346598923	-0.274584
C	 0.9158848254	-0.8145068917	-1.0460747876	-0.108261
C	 0.3696709582	-0.785203164	 1.2463010253	 0.374677
O	 0.7033864813	-0.5180770815	 2.3620641305	-0.322498
H	 0.1628119385	 1.7772970252	 0.7368308775	 0.300463
H	-1.9732238793	-0.4045745431	 0.6907976217	 0.122373
H	-1.7051428087	-0.9327446694	-1.021983841	 0.126691
H	-0.7013693567	-2.8486769327	 0.8994968982	 0.110412
H	 0.6163327079	-0.6390494391	-2.0852367051	 0.116729
H	 1.9974244797	-0.668948959	-0.9505747637	 0.121303
146.7442	186.0704	291.8954	305.0044	367.9471	454.5592	493.7276	585.1795	683.0918	713.7368	775.7186	826.4528	886.9779	912.6109	958.1005	998.7623	1009.2764	1062.9937	1089.4363	1121.8274	1160.7649	1183.6303	1195.0542	1265.6979	1298.1671	1366.362	1417.0868	1471.0479	1532.6248	1899.666	3031.6506	3076.5343	3078.097	3151.8437	3185.7417	3788.4241
OC12CC(OC1)C2=O	O[C@@]12C[C@@H](OC1)C2=O	
InChI=1S/C5H6O3/c6-4-3-1-5(4,7)2-8-3/h3,7H,1-2H2	InChI=1S/C5H6O3/c6-4-3-1-5(4,7)2-8-3/h3,7H,1-2H2/t3-,5+/m1/s1
