21
gdb 68598	2.3206	1.82961	1.48963	1.4556	82.5	-0.2308	0.09	0.3208	1018.7779	0.1831	-387.0596	-387.051602	-387.050658	-387.091475	32.666	
C	 0.0335637627	 1.516170813	 0.0791510974	-0.50169
C	-0.0492938069	 0.0236985771	-0.0546148013	 0.360988
C	 0.3462292238	-0.7931175616	-1.318269925	-0.271097
C	-0.4016021204	-1.9194411172	-0.5351218654	-0.171637
C	 0.4984555774	-2.0258902308	 0.7043149155	-0.075352
O	 0.7219360743	-0.62615996	 0.9845160773	-0.313501
C	-1.3499338038	-0.8011268177	-0.0596991423	 0.418638
C	-2.5123767158	-0.8050624557	 0.8696893806	-0.364267
C	-2.6888844482	-0.4232499338	-0.5944690963	-0.363166
H	 1.0724283712	 1.8497357212	-0.002058343	 0.130297
H	-0.550599012	 2.007383303	-0.7041448754	 0.118841
H	-0.3475594424	 1.835690293	 1.0544658738	 0.127731
H	-0.1866767771	-0.4810644861	-2.2173110342	 0.102281
H	 1.4154709501	-0.9190359133	-1.5085049025	 0.091967
H	-0.7514176848	-2.8399327452	-1.0014519991	 0.069317
H	 0.0038219634	-2.5073716795	 1.5562100109	 0.097219
H	 1.4539069419	-2.5286107523	 0.5118432538	 0.094355
H	-2.9140064298	-1.7597998023	 1.1959534537	 0.110789
H	-2.5832307493	-0.0171711426	 1.613248569	 0.115893
H	-2.8835263239	 0.6201015588	-0.82509491	 0.1119
H	-3.2078486504	-1.1227412381	-1.2430042174	 0.110492
169.3342	183.5055	204.6755	223.1278	282.824	337.9821	413.3564	434.689	560.6847	620.8009	637.1311	682.0076	776.6106	805.9302	854.8142	880.2829	910.114	923.2766	941.288	958.2686	970.8182	986.0954	1020.4223	1046.2123	1055.4194	1079.1885	1086.0295	1126.8397	1161.69	1168.1709	1182.5628	1184.9004	1219.6219	1232.356	1265.8283	1334.3744	1354.2523	1403.6863	1422.2298	1462.099	1480.728	1485.3842	1493.3632	1511.2224	1528.2715	3019.634	3040.0483	3059.7816	3064.3067	3108.95	3116.1451	3118.1252	3120.8962	3123.8516	3138.378	3192.2217	3207.0066
CC12CC(CO1)C21CC1	C[C@@]12C[C@@H](CO1)C12CC1	
InChI=1S/C8H12O/c1-7-4-6(5-9-7)8(7)2-3-8/h6H,2-5H2,1H3	InChI=1S/C8H12O/c1-7-4-6(5-9-7)8(7)2-3-8/h6H,2-5H2,1H3/t6-,7-/m0/s1
