16
gdb 49411	4.33816	1.43714	1.38925	3.8821	72.37	-0.239	0.0146	0.2535	942.4615	0.125936	-400.68415	-400.677815	-400.676871	-400.715136	25.486	
O	 0.105352021	 0.0662064806	-0.511129938	-0.319165
C	 0.0889576786	 1.2401274779	-0.2121678696	 0.140175
N	 1.1296978647	 1.9142404539	 0.360487066	-0.03824
C	 2.5649289563	 1.5794816469	 0.2924744882	-0.045687
C	 3.1146744904	 2.1440374979	-1.0522425083	-0.068771
C	 3.675018849	 3.3950781513	-0.4186558978	-0.111381
C	 2.3336066469	 3.4604231213	-1.1101503292	-0.079034
C	 1.5233052343	 3.3308493472	 0.2157263653	-0.066729
C	 2.9065157405	 2.9959226671	 0.8772378064	-0.060755
H	-0.8101240985	 1.8829130278	-0.3187579735	 0.068517
H	 2.8938140991	 0.6183130882	 0.6765851851	 0.101445
H	 3.435192551	 1.6116408829	-1.9365214014	 0.103361
H	 4.5944828994	 3.9347985484	-0.590177179	 0.099115
H	 2.0574371917	 3.9395399367	-2.0392861145	 0.099003
H	 0.8267139877	 4.105618632	 0.5293315605	 0.090625
H	 3.155657198	 3.19278045	 1.9157001597	 0.08752
82.8969	184.3364	274.0487	474.6815	566.8756	605.9471	733.4309	759.9148	798.152	802.9689	812.1076	832.9909	854.6267	867.4514	874.4581	931.0041	973.9968	994.2844	1026.3231	1035.843	1038.3362	1050.7409	1079.2676	1137.6229	1161.8833	1170.0417	1186.6332	1207.6507	1252.0696	1264.2566	1270.4047	1333.6893	1375.3923	1425.3821	1794.2292	2913.7225	3141.7542	3162.496	3171.0147	3209.3047	3215.858	3231.4202
O=CN1C2C3C4C3C1C24	O=CN1[C@H]2[C@@H]3[C@H]4[C@@H]3[C@@H]1[C@@H]24	
InChI=1S/C7H7NO/c9-1-8-6-3-2-4(3)7(8)5(2)6/h1-7H	InChI=1S/C7H7NO/c9-1-8-6-3-2-4(3)7(8)5(2)6/h1-7H/t2-,3+,4-,5+,6-,7+
