17
gdb 66428	2.83775	1.55884	1.25874	1.2643	72.39	-0.2174	0.0715	0.2889	1031.1599	0.133171	-421.708972	-421.700766	-421.699822	-421.741005	32.621	
C	-0.0502840017	 1.436362833	-0.023848647	-0.524457
C	-0.0168607917	-0.0555165251	-0.0896727024	 0.310005
C	 0.8272882145	-1.0422434119	-0.9549543918	-0.247677
C	-0.3005669316	-2.0862449409	-0.8687387776	-0.238231
C	 0.7929473932	-2.0686195612	 0.17145422	 0.397865
O	 1.632046401	-3.1055216733	 0.486433951	-0.451466
C	-0.0335974897	-1.0794837214	 1.0643336396	-0.353892
C	-1.1299356887	-1.0764760306	-0.0008708781	 0.344966
O	-2.4742823751	-0.8329101515	 0.1012804781	-0.453381
H	 0.9191226876	 1.8481948462	 0.2800878533	 0.11704
H	-0.3119353544	 1.8733633936	-0.994453604	 0.124393
H	-0.7998757022	 1.769078155	 0.7014668633	 0.129623
H	 1.5325483227	-0.8867954772	-1.7621172159	 0.087006
H	-0.5597409972	-2.8553637715	-1.5839349139	 0.094779
H	 2.4739638754	-2.73663535	 0.7785354113	 0.287329
H	-0.0904898098	-0.8912637067	 2.129154516	 0.087482
H	-2.8698223823	-1.5202382065	 0.6503119282	 0.288617
169.041	198.0736	214.3032	236.0475	280.8147	324.6909	360.1697	413.258	427.4584	545.2886	584.9711	675.7962	699.9178	759.3877	781.9988	816.3229	841.3609	858.737	872.0665	905.2382	974.0734	1002.5315	1032.6063	1067.6106	1095.7501	1110.8046	1146.3055	1209.5246	1221.694	1284.8124	1297.6893	1353.549	1414.2986	1460.8658	1479.0334	1485.8428	1503.6469	3021.8829	3079.7798	3099.1438	3187.6151	3195.915	3209.435	3777.1292	3778.8214
CC12C3C4C3(O)C1C24O	C[C@@]12[C@@H]3[C@H]4[C@]3(O)[C@@H]1[C@@]24O	
InChI=1S/C7H8O2/c1-5-2-3-6(2,8)4(5)7(3,5)9/h2-4,8-9H,1H3	InChI=1S/C7H8O2/c1-5-2-3-6(2,8)4(5)7(3,5)9/h2-4,8-9H,1H3/t2-,3-,4+,5+,6-,7+/m0/s1
