16
gdb 89677	2.99896	1.27412	1.06962	4.2877	71.52	-0.2472	0.0174	0.2646	1122.2684	0.123237	-437.865026	-437.856382	-437.855438	-437.898184	32.219	
O	 0.1027410382	 1.4461301871	 0.0503151447	-0.427391
C	 0.0387478655	 0.0410875502	 0.0804718125	 0.075018
C	 0.2558250018	-0.5673214698	 1.4960362374	-0.305598
C	-1.0811426816	-1.3107713747	 1.3741053873	 0.119903
C	-2.1917986619	-0.2839832999	 1.1513758645	-0.393607
C	-1.3356286439	-0.6203610937	-0.0136903908	 0.343079
O	-1.7705451466	-1.1045774767	-1.22019045	-0.447576
C	-1.3523650157	-2.6414793869	 1.7874793939	 0.180132
N	-1.5716401592	-3.7354449914	 2.1007036968	-0.353353
H	-0.0150307729	 1.7375651402	-0.859869631	 0.292276
H	 0.7146403112	-0.4165269289	-0.6531204083	 0.094992
H	 1.1253825395	-1.2216403152	 1.557723331	 0.130794
H	 0.2951867927	 0.1753472784	 2.2972542102	 0.121491
H	-3.1905505414	-0.711891773	 1.1275016067	 0.132145
H	-2.1254010079	 0.6842927076	 1.6423963613	 0.138039
H	-2.7215734579	-1.2518081232	-1.1916661461	 0.299656
99.8097	118.7182	186.5392	205.1515	263.4255	300.4116	342.9207	375.0668	457.5746	476.7875	561.4606	568.6019	650.5755	715.3158	755.0982	802.0535	870.9204	968.2706	968.6906	988.4283	1083.2168	1099.3672	1105.1743	1151.4476	1169.516	1224.0516	1248.2451	1281.3074	1325.5864	1392.6963	1405.0197	1432.4076	1478.0773	1506.4661	2336.585	3028.2827	3071.0726	3105.9818	3140.0026	3195.9995	3816.5011	3822.1391
OC1CC2(CC12O)C#N	O[C@H]1C[C@]2(C[C@@]12O)C#N	
InChI=1S/C6H7NO2/c7-3-5-1-4(8)6(5,9)2-5/h4,8-9H,1-2H2	InChI=1S/C6H7NO2/c7-3-5-1-4(8)6(5,9)2-5/h4,8-9H,1-2H2/t4-,5-,6+/m0/s1
