21
gdb 35802	2.8768	1.39505	1.09891	0.7997	87.24	-0.253	0.0583	0.3112	1166.9875	0.184185	-349.929816	-349.921629	-349.920685	-349.962536	32.755	
C	-0.1079496196	-1.2243953962	-0.0811580149	-0.45507
C	-0.0703276974	-0.025798751	 0.0136904587	 0.311652
C	-0.0142070792	 1.422585982	 0.1426938406	-0.170435
C	-0.492688018	 1.9661894112	 1.515100973	-0.218052
C	 0.03307615	 3.4120921043	 1.5267860089	-0.229652
C	 1.4137226559	 3.3328492263	 0.8553233629	-0.002872
C	 2.5577810704	 2.7153370119	 1.7131543063	-0.224278
C	 2.5329741723	 1.4296736623	 0.8390077382	-0.225885
C	 1.3990658137	 2.0377381342	-0.0335373186	-0.011767
H	-0.1460693626	-2.2814831202	-0.1716742922	 0.189622
H	-0.660036501	 1.8630866691	-0.6297901439	 0.099564
H	-1.5765774827	 1.8931577683	 1.6341006386	 0.104065
H	-0.0380914875	 1.3780764556	 2.3196757836	 0.112039
H	-0.6330563739	 4.05121856	 0.934271073	 0.095032
H	 0.0781115055	 3.8384743184	 2.534272512	 0.095132
H	 1.68408272	 4.2642228672	 0.353532702	 0.062248
H	 3.4970001181	 3.2720021025	 1.6708418866	 0.097327
H	 2.3036110968	 2.5659167115	 2.7670868386	 0.094424
H	 3.4582280182	 1.2365412444	 0.291518044	 0.098546
H	 2.2555321889	 0.5102759039	 1.3606092607	 0.109087
H	 1.6522076222	 2.1535470842	-1.0887227081	 0.069273
79.057	132.4865	158.0749	242.2935	330.4503	362.393	474.7483	505.4315	581.304	590.5861	621.5549	627.2042	740.9158	746.4251	810.0254	821.5344	873.2729	891.1523	943.7506	958.1203	961.4359	988.6864	1019.0234	1036.9732	1072.7066	1099.6194	1128.1309	1174.9114	1185.9465	1216.3708	1236.188	1257.2974	1268.1113	1273.062	1296.257	1304.7388	1325.1096	1339.1201	1349.0594	1357.0029	1479.2382	1488.6652	1492.4535	1507.0982	2231.6425	3003.2059	3028.5426	3049.1763	3052.0632	3064.4114	3074.8324	3078.6622	3090.9308	3097.418	3104.3276	3119.2196	3505.3434
C#CC1CCC2CCC12	C#C[C@H]1CC[C@H]2CC[C@@H]12	
InChI=1S/C9H12/c1-2-7-3-4-8-5-6-9(7)8/h1,7-9H,3-6H2	InChI=1S/C9H12/c1-2-7-3-4-8-5-6-9(7)8/h1,7-9H,3-6H2/t7-,8-,9-/m0/s1
