20
gdb 22163	2.43896	1.08517	0.79664	2.9286	75.71	-0.2412	0.0018	0.243	1453.6995	0.167851	-477.367583	-477.357036	-477.356092	-477.403974	37.259	
C	 0.1727143552	 1.1772438622	-0.0576559836	-0.484052
C	-0.1005854717	-0.2816559255	 0.1764423138	 0.34373
C	-0.5519452043	-0.7031607151	 1.5619177086	-0.158424
O	-0.7695937389	-2.0740009848	 1.7219705376	-0.23801
C	 0.3787607464	-2.8572734271	 2.0497839108	-0.097306
C	 0.261947079	-4.1831527231	 1.3139993641	-0.038862
O	 0.4204978533	-4.0387676451	-0.07721072	-0.43842
N	 0.0081304084	-1.1837019862	-0.7186090184	-0.148101
O	 0.4229640985	-0.6579696285	-1.9478127153	-0.394
H	 1.2143766051	 1.3261369013	-0.3596337582	 0.155069
H	-0.4484178586	 1.5554349494	-0.8751429701	 0.156331
H	-0.0227350651	 1.7667560699	 0.8414331819	 0.123279
H	 0.1727980277	-0.3113466382	 2.2963182906	 0.106329
H	-1.5040747929	-0.1960744376	 1.774916496	 0.12827
H	 1.2992811619	-2.3478156146	 1.7366408952	 0.101845
H	 0.4161821352	-3.0149959599	 3.1383501493	 0.092796
H	 1.044078494	-4.8639896289	 1.6733456548	 0.093431
H	-0.711497496	-4.6335028898	 1.5722338546	 0.088226
H	 0.0111361597	-3.1936296176	-0.3268497779	 0.294624
H	 0.4784663733	-1.4436900109	-2.5028221038	 0.313243
57.0775	70.4695	95.6119	98.9543	178.1821	223.912	274.2135	286.8357	304.1332	357.1369	390.6089	448.1102	510.0049	554.9912	572.5903	663.8602	830.1323	842.6909	894.0028	952.9027	983.5919	1022.2571	1053.626	1080.3559	1113.3166	1133.9443	1174.141	1232.3041	1253.4712	1277.8517	1306.0596	1385.2001	1398.2912	1401.3989	1408.0051	1412.3784	1473.2557	1475.7626	1479.7646	1487.0624	1498.5998	1504.6433	1743.6328	2961.0821	2964.7252	2988.4357	3022.2996	3044.2021	3044.7588	3049.9847	3107.5574	3127.5241	3647.7845	3814.5917
CC(COCCO)=NO	CC(=NO)COCCO	
InChI=1S/C5H11NO3/c1-5(6-8)4-9-3-2-7/h7-8H,2-4H2,1H3	InChI=1S/C5H11NO3/c1-5(6-8)4-9-3-2-7/h7-8H,2-4H2,1H3
