19
gdb 32579	2.01431	1.81393	1.03598	3.0025	78.26	-0.1895	0.0478	0.2372	1177.8312	0.15925	-419.253484	-419.244016	-419.243071	-419.287864	34.428	
C	-0.1022203332	 1.5988671036	-0.0320409603	-0.379167
C	 0.0381064819	 0.0745956431	-0.0124766857	-0.157313
N	 0.7188871805	-0.4498769481	-1.1874869517	-0.083649
C	 0.1361469982	-0.6581552079	-2.4152772239	 0.32023
O	-1.1895171663	-0.3866090491	-2.5417080439	-0.446272
C	 1.1144414895	-1.1190189016	-3.2505359071	-0.231353
N	 2.3066813597	-1.1977442755	-2.5550986264	-0.302319
C	 2.0508646273	-0.7926020942	-1.3345060622	 0.330875
C	 3.0452837895	-0.7130983375	-0.2254815476	-0.503314
H	 0.8776996898	 2.0831225163	-0.0776605258	 0.127883
H	-0.685230053	 1.9179883808	-0.8997395809	 0.141444
H	-0.6143258303	 1.942088247	 0.8722498371	 0.119117
H	 0.5998085312	-0.2499209106	 0.867089628	 0.121104
H	-0.9495849309	-0.3927686663	 0.0401582258	 0.132198
H	-1.4642665497	-0.6331651382	-3.4300405787	 0.310358
H	 1.0363208867	-1.3966131615	-4.2904598089	 0.09404
H	 3.154899908	 0.3039613343	 0.1699096391	 0.12543
H	 2.7873596448	-1.3666206197	 0.6172374766	 0.126966
H	 4.0108507065	-1.0328626948	-0.6199075534	 0.153745
60.3397	107.9247	157.3025	187.5654	213.785	229.1851	289.4242	301.3314	346.4537	412.6776	506.333	598.9576	671.5059	687.0256	713.5484	745.133	759.0981	797.8242	970.1905	985.7676	1016.1516	1061.1909	1103.8504	1136.917	1175.9168	1198.0928	1267.2729	1301.3222	1318.9815	1389.5068	1407.6607	1410.8906	1426.2061	1478.3282	1482.0877	1487.3955	1493.1532	1506.1841	1529.2611	1573.0215	1620.7029	3019.703	3043.955	3062.68	3064.9942	3103.2436	3117.0657	3132.4347	3143.9465	3243.1821	3846.038
CCN1C(O)=CN=C1C	CCn1c(O)cnc1C	
InChI=1S/C6H10N2O/c1-3-8-5(2)7-4-6(8)9/h4,9H,3H2,1-2H3	InChI=1S/C6H10N2O/c1-3-8-5(2)7-4-6(8)9/h4,9H,3H2,1-2H3
