22
gdb 106110	2.2502	1.68873	1.21323	1.6198	85.94	-0.2279	0.0864	0.3143	1147.1459	0.194698	-367.160506	-367.151881	-367.150936	-367.193477	33.931	
C	 0.1133626669	 1.4809981142	 0.3430545134	-0.381293
C	-0.1172321626	 0.0126156853	-0.0343200129	-0.334662
C	 0.5580432199	-0.4362323482	-1.2905340171	 0.373709
C	 0.932658155	-1.7850015719	-1.781020454	-0.095101
C	 0.3513913846	-1.5181674654	-3.1685355153	-0.253898
C	 0.5328870642	-0.0170878993	-2.8251852383	-0.139452
C	 2.0655907283	 0.0933234338	-2.6941815872	 0.094779
C	 2.6420840042	 1.4639103981	-2.3954443041	-0.417002
N	 2.0040789132	-0.7662403801	-1.459971016	-0.194618
H	 1.1743659831	 1.6768460187	 0.5224821978	 0.133581
H	-0.2277153999	 2.1554734852	-0.4495048251	 0.116276
H	-0.4351978798	 1.7359273947	 1.2549606884	 0.110428
H	 0.2367353589	-0.635548598	 0.7770563679	 0.112788
H	-1.1950915691	-0.1759401067	-0.1307661639	 0.102008
H	 0.9878176245	-2.717489934	-1.2334724388	 0.092395
H	 0.8706151407	-1.8995424221	-4.0551771791	 0.09167
H	-0.7010359417	-1.8125923901	-3.2031061418	 0.101725
H	-0.0719315434	 0.7511841808	-3.3056401443	 0.067403
H	 2.6355752382	-0.3779908051	-3.5065348891	 0.062954
H	 2.0737737248	 1.9815142663	-1.6179239999	 0.121575
H	 3.6784410408	 1.3752855787	-2.0549290872	 0.124221
H	 2.6297635792	 2.085720805	-3.2970717734	 0.110515
80.2177	154.4403	202.9597	234.0365	246.3114	288.9606	307.6547	377.4662	496.0905	513.9246	592.7871	716.9224	754.8166	776.7908	812.307	850.616	891.9887	926.5955	939.7363	966.633	977.7605	995.1432	1042.0708	1048.1075	1083.6696	1085.83	1107.7648	1117.4199	1147.5053	1169.6755	1185.4466	1228.0706	1253.7699	1267.159	1286.0432	1320.4203	1349.7431	1388.8709	1406.3812	1413.6487	1440.6398	1467.2682	1488.945	1493.6023	1503.0334	1503.988	1510.1053	3008.5005	3014.9624	3035.9178	3036.4941	3039.4673	3053.8322	3097.8618	3103.3325	3104.2714	3115.0404	3120.6099	3123.745	3195.2836
CCC12C3CC1C(C)N23	CC[C@@]12[C@H]3C[C@@H]1[C@@H](C)N23	
InChI=1S/C8H13N/c1-3-8-6-4-7(8)9(8)5(6)2/h5-7H,3-4H2,1-2H3	InChI=1S/C8H13N/c1-3-8-6-4-7(8)9(8)5(6)2/h5-7H,3-4H2,1-2H3/t5-,6-,7-,8+,9?/m1/s1
