18
gdb 51544	4.41008	0.86564	0.79538	4.0913	75.42	-0.2493	0.0142	0.2635	1440.7407	0.146517	-439.031374	-439.022566	-439.021621	-439.066018	31.337	
N	-0.1088708068	 1.2721699632	 0.1109527437	-0.433144
C	-0.2059260338	 0.0332667507	 0.3214785931	 0.129502
O	-0.8586966472	-0.7487853501	-0.5701817155	-0.190845
C	-0.8790159509	-2.1255073358	-0.2864313408	 0.041472
C	-1.8640737619	-2.6524143485	 0.7328428287	-0.391029
C	-2.0964492559	-2.8499295648	-0.7377836538	 0.258576
C	-3.2112061802	-2.2980661049	-1.619035562	-0.128908
O	-3.2276798117	-3.5232808722	-2.3894625811	-0.274659
C	-2.2053835411	-4.1238622512	-1.5674464346	-0.140351
H	 0.4045453728	 1.7144328859	 0.8705829662	 0.231733
H	 0.1881086193	-0.5248628273	 1.1806734785	 0.092017
H	 0.0895002109	-2.6130720337	-0.38426057	 0.108099
H	-1.5687715915	-3.5042916456	 1.3377194063	 0.123224
H	-2.4895485644	-1.924341285	 1.2400774431	 0.132436
H	-4.1696187741	-2.1172719195	-1.1161329297	 0.104723
H	-2.9451976956	-1.4257583482	-2.2258654519	 0.127844
H	-1.3151677386	-4.4012374219	-2.1471837726	 0.105865
H	-2.5756875194	-5.0070338611	-1.0296531679	 0.103448
63.8817	82.154	98.0846	127.6711	201.5565	284.7638	321.3962	420.1105	460.6812	610.4701	615.2734	824.9389	845.8436	859.7822	889.6706	894.4119	975.5309	978.0576	1029.2981	1033.9806	1049.0943	1050.5228	1062.0792	1108.6199	1131.2954	1150.4176	1164.9951	1186.8826	1228.3189	1283.145	1305.9697	1323.6256	1373.6658	1416.5515	1429.4668	1492.3197	1509.4551	1534.2282	1748.7658	2999.5798	3019.374	3037.6456	3042.6637	3072.5529	3118.4938	3124.1643	3213.3759	3518.5382
N=COC1CC11COC1	[NH][CH]O[C@H]1CC21COC2	
InChI=1S/C6H9NO2/c7-4-9-5-1-6(5)2-8-3-6/h4-5,7H,1-3H2	InChI=1S/C6H9NO2/c7-4-9-5-1-6(5)2-8-3-6/h4-5,7H,1-3H2/t5-/m0/s1
