17
gdb 70971	3.97578	1.2423	1.1148	1.4169	79.47	-0.2473	0.0389	0.2862	1102.7142	0.134907	-384.600636	-384.592851	-384.591907	-384.632392	31.608	
O	-0.1190179938	 1.3385931275	-0.0676344769	-0.463153
C	 0.049190663	-0.0286029747	-0.0323724219	 0.392761
C	 0.9792683063	-0.8686397329	-0.9005780688	-0.341734
C	 0.0935801319	-2.0829455548	-0.4566908593	 0.229193
C	 0.3889404309	-2.2124750875	 1.0755838026	-0.276694
C	-0.3060066483	-0.8647987271	 1.2158728213	-0.150753
C	-1.0575101396	-1.0370587757	-0.0908362472	-0.177877
C	-0.0457436491	-3.2375518563	-1.2929091107	 0.049576
C	-0.1640999501	-4.2111085597	-1.9902300668	-0.337442
H	 0.5426804323	 1.7430838918	 0.504512172	 0.2871
H	 0.8369958314	-0.6451691619	-1.9603294233	 0.116724
H	 2.0477032957	-0.9236747686	-0.6621729896	 0.089686
H	-0.1952047541	-3.0216186321	 1.5208441438	 0.112459
H	 1.4411691984	-2.3089871609	 1.3660206945	 0.093094
H	-0.6677564398	-0.3742612126	 2.1103366165	 0.091941
H	-2.1022140203	-0.974497065	-0.3553328417	 0.105727
H	-0.2673167849	-5.0691567095	-2.6068436446	 0.179393
132.5796	147.6282	269.3654	320.9927	358.1186	402.7323	447.8789	482.1008	519.6664	539.483	618.3444	625.2757	630.0981	726.7203	749.7077	837.8823	882.7051	910.3533	922.9077	958.5407	970.6463	1010.8441	1053.7019	1078.3158	1099.2167	1120.6562	1144.4198	1190.328	1214.4653	1240.1708	1285.7709	1300.3223	1322.3101	1439.2689	1494.8025	1510.7519	2234.0733	3032.3159	3039.6847	3104.9328	3114.4242	3200.7087	3236.9405	3503.6223	3791.4376
OC12CC3(CC1C23)C#C	O[C@@]12C[C@]3(C[C@@H]1[C@@H]23)C#C	
InChI=1S/C8H8O/c1-2-7-3-5-6(7)8(5,9)4-7/h1,5-6,9H,3-4H2	InChI=1S/C8H8O/c1-2-7-3-5-6(7)8(5,9)4-7/h1,5-6,9H,3-4H2/t5-,6-,7-,8+/m1/s1
