13
gdb 10573	2.66996	1.94475	1.32808	4.5355	64.51	-0.2992	-0.0324	0.2667	912.5017	0.095021	-357.636796	-357.628988	-357.628044	-357.668971	27.531	
C	-0.0772767816	 1.5256661776	-0.0404044112	-0.408508
C	-0.0023407228	 0.0237804313	 0.0342548882	-0.025602
N	 1.2925872882	-0.6003306397	-0.1832315352	-0.326632
C	 0.7058486293	-0.6842586455	 1.1780961843	 0.026027
C	 1.3852141232	 0.0773439711	 2.2043609967	 0.288551
N	 1.9036643711	 0.7040634443	 3.0244295933	-0.323552
C	 0.1516361052	-1.9461711765	 1.6131815519	 0.24532
N	-0.2914753431	-2.9676165232	 1.9241690878	-0.317617
H	 0.8257147034	 1.9848094729	 0.3665220394	 0.159861
H	-0.1801502507	 1.8346045438	-1.0852252174	 0.142505
H	-0.9448690165	 1.8949762537	 0.5138387209	 0.143696
H	-0.8812685493	-0.5127038407	-0.319057764	 0.129326
H	 1.2140419536	-1.505868809	-0.6411580947	 0.266625
134.1067	138.5153	162.1412	180.5517	236.2407	336.1313	412.0386	496.708	538.9232	596.3446	610.1111	628.251	782.524	873.3614	965.2887	1019.1442	1050.7065	1098.4062	1127.4404	1227.6988	1253.1114	1332.6643	1409.3305	1443.0386	1483.5113	1493.2596	2358.3162	2368.8199	3049.5413	3118.212	3128.7856	3147.7557	3508.2399
CC1NC1(C#N)C#N	C[C@H]1NC1(C#N)C#N	
InChI=1S/C5H5N3/c1-4-5(2-6,3-7)8-4/h4,8H,1H3	InChI=1S/C5H5N3/c1-4-5(2-6,3-7)8-4/h4,8H,1H3/t4-/m1/s1
