16
gdb 39534	4.18008	1.56459	1.30504	1.5899	73.06	-0.2257	0.0096	0.2353	950.1877	0.126971	-400.751106	-400.74483	-400.743886	-400.781463	25.94	
C	-0.0532113471	 1.4796324702	 0.0023062015	-0.294
C	 1.3852390477	 1.9672012742	 0.0232916203	-0.07827
C	 2.2635623732	 0.9618905979	 0.0168585776	-0.18489
C	 1.5705530475	-0.3469639825	 0.0571113257	 0.353893
N	 2.073349837	-1.5935059591	-0.4489082523	-0.332409
C	 1.4759298895	-2.4949034704	 0.2226683043	 0.083394
O	 0.6230148266	-2.1209166402	 1.2182601936	-0.219025
C	 0.6394050737	-0.7004367605	 1.2199917597	 0.019079
C	 0.0630625056	-0.0460920175	 0.0029565106	-0.148982
H	-0.6202497816	 1.8568142293	 0.8639661831	 0.114908
H	-0.584162046	 1.8308578396	-0.8911459394	 0.119244
H	 1.6376440541	 3.0198014489	 0.0712905321	 0.101461
H	 3.342831171	 1.0476604565	 0.0277143679	 0.10722
H	 1.5739550729	-3.5647577862	 0.0898275869	 0.144303
H	 0.6333261113	-0.2652031377	 2.2134424744	 0.11243
H	-0.5878445054	-0.6403903128	-0.6289409262	 0.101642
216.1351	229.8546	328.3847	350.9455	463.3323	512.9982	597.8232	694.9623	736.3207	757.9397	797.2576	845.7318	896.7258	911.0059	918.8328	942.5444	958.5624	984.9137	991.9083	1031.5137	1046.7066	1063.079	1116.9015	1128.3829	1180.618	1218.4108	1260.6515	1269.9057	1305.3207	1330.2137	1385.8503	1396.7968	1476.0784	1651.0515	1669.9336	3018.4617	3047.251	3168.3788	3171.2963	3199.2455	3224.6917	3236.8774
C1C=CC23N=COC2C13	C1C=C[C@@]23N=CO[C@@H]2[C@@H]13	
InChI=1S/C7H7NO/c1-2-5-6-7(5,3-1)8-4-9-6/h1,3-6H,2H2	InChI=1S/C7H7NO/c1-2-5-6-7(5,3-1)8-4-9-6/h1,3-6H,2H2/t5-,6-,7+/m1/s1
