14
gdb 15450	3.2742	1.9509	1.34337	2.6788	68.75	-0.2419	-0.0262	0.2157	889.9594	0.105948	-345.394512	-345.387213	-345.386269	-345.426651	27.056	
O	-0.0315449396	 0.0383033864	 0.0923127317	-0.287718
C	-0.0546125614	 1.2348920178	 0.0564259343	 0.391664
C	-1.3031900525	 2.1238519144	-0.0263085836	-0.368239
C	-0.7457321656	 3.519235708	-0.0106974712	-0.074876
C	 0.5851656837	 3.5492327334	 0.042778611	-0.066275
C	 1.2041688102	 2.166558209	 0.0682067426	-0.319752
C	 2.0825318018	 1.9152967877	 1.2015361403	 0.3388
C	 2.7953607021	 1.7212807934	 2.1491180167	-0.465313
H	-1.8660233508	 1.8819618234	-0.9372852227	 0.142319
H	-1.9755864366	 1.9045363714	 0.8129095432	 0.145852
H	-1.3794650074	 4.3979248021	-0.0408180566	 0.109206
H	 1.1966234032	 4.4424331097	 0.0731319678	 0.115526
H	 1.7583886001	 1.9614896335	-0.8608521409	 0.137755
H	 3.4281992927	 1.5405869897	 2.9824372774	 0.201051
44.2302	135.3348	176.2257	364.4131	385.6444	456.5072	509.8061	576.8511	622.8162	631.4099	640.349	718.6049	756.2239	772.2769	943.9067	972.2025	976.1191	986.1819	1053.0903	1113.7986	1128.6686	1155.2462	1219.5679	1273.4176	1292.8681	1373.7287	1442.0674	1683.9652	1866.6927	2238.1135	2989.5191	3028.8467	3056.6082	3195.0489	3220.4972	3504.8535
O=C1CC=CC1C#C	O=C1CC=C[C@H]1C#C	
InChI=1S/C7H6O/c1-2-6-4-3-5-7(6)8/h1,3-4,6H,5H2	InChI=1S/C7H6O/c1-2-6-4-3-5-7(6)8/h1,3-4,6H,5H2/t6-/m1/s1
