21
gdb 98844	3.03643	1.09945	0.98991	2.8537	81.24	-0.2017	0.0224	0.2241	1321.904	0.182375	-420.412265	-420.402226	-420.401281	-420.448122	35.653	
C	-0.1876398415	 1.6497701113	 0.7470146439	-0.333971
N	-0.1483407068	 0.2016429059	 0.7968653742	-0.32017
C	 1.0159180624	-0.5025475551	 0.8888077953	 0.415561
O	 2.1151992424	 0.028911432	 0.9443299287	-0.387583
C	 0.8466535712	-2.0221471826	 0.9520873555	-0.09071
C	 1.9003804064	-2.7688914839	 0.0843824351	-0.237053
C	 2.6594762725	-3.0399462774	 1.404689008	-0.155069
N	 1.4411098514	-2.661493935	 2.1473371191	-0.054595
C	 1.5560935232	-1.9514535099	 3.4038573224	-0.333429
H	 0.8432045882	 2.0015262739	 0.8041520373	 0.172089
H	-0.6377970132	 2.0061161372	-0.1862805425	 0.126039
H	-0.7547380276	 2.0622486821	 1.5889535779	 0.126073
H	-1.0144798785	-0.3093684322	 0.7630246231	 0.247245
H	-0.2052806693	-2.3004959142	 0.7962272523	 0.052518
H	 1.4960504012	-3.6671606174	-0.3839827061	 0.10511
H	 2.4194886793	-2.157940126	-0.6524306589	 0.120538
H	 3.0030262546	-4.0629432406	 1.597973561	 0.090358
H	 3.4947389426	-2.3417349805	 1.548458884	 0.110043
H	 2.1441531339	-1.0221922109	 3.3345104755	 0.120665
H	 0.5571010792	-1.7038047202	 3.7812384995	 0.10951
H	 2.0320220783	-2.6086144265	 4.1398827746	 0.11683
30.5253	91.492	122.2505	134.7426	190.1614	217.8867	234.6759	308.0229	326.8072	372.0789	405.1454	494.8275	647.1573	696.3182	768.0987	793.3111	874.6173	929.5705	949.3084	989.9797	996.05	1078.8211	1091.713	1129.1564	1153.2952	1171.2042	1175.9584	1201.2846	1219.8787	1232.0746	1245.6561	1266.7014	1284.447	1337.6425	1379.5434	1437.6747	1446.0268	1473.897	1481.0779	1491.6252	1500.5922	1514.3188	1516.1407	1558.2975	1761.5662	2976.1538	2989.1773	3009.479	3027.6513	3052.4096	3055.247	3079.7878	3088.7313	3091.7217	3152.8646	3157.059	3651.495
CNC(=O)C1CCN1C	CNC(=O)[C@H]1CCN1C	
InChI=1S/C6H12N2O/c1-7-6(9)5-3-4-8(5)2/h5H,3-4H2,1-2H3,(H,7,9)	InChI=1S/C6H12N2O/c1-7-6(9)5-3-4-8(5)2/h5H,3-4H2,1-2H3,(H,7,9)/t5-/m1/s1
