20
gdb 55026	3.16218	1.10255	0.90026	3.0879	81.43	-0.239	0.0155	0.2545	1349.1418	0.169382	-403.13835	-403.128813	-403.127869	-403.173841	34.303	
C	 0.1874346089	 1.6176519214	-0.4134949848	-0.475776
C	 0.1828713197	 0.1360487268	-0.0780204412	 0.372914
O	 0.649319886	-0.3188350589	 0.9432217126	-0.340794
N	-0.4807856801	-0.655151648	-1.0100272498	-0.084636
C	-0.2493480117	-0.7394151201	-2.4368599554	-0.275706
C	-0.056945091	-1.9337566265	-1.5366164738	-0.004464
C	 1.3066268028	-2.4746505981	-1.2601202174	 0.031079
C	 1.4846823577	-3.5653717092	-0.2372338134	-0.249626
C	 1.6464505587	-3.880368435	-1.701161093	-0.287102
H	 0.9342024673	 1.8258075518	-1.1882363823	 0.135755
H	-0.7837007237	 1.939258613	-0.7989968845	 0.139545
H	 0.4455753059	 2.184017724	 0.4812833655	 0.145992
H	-1.125676702	-0.6624305007	-3.0762757948	 0.121971
H	 0.6500102818	-0.2743850412	-2.8371781654	 0.121835
H	-0.844308466	-2.6879752388	-1.5403140461	 0.09599
H	 2.1029002847	-1.7387907972	-1.3200654474	 0.085532
H	 2.3671080837	-3.5289707008	 0.3904240088	 0.121713
H	 0.5962300171	-3.9278865866	 0.2682697123	 0.119284
H	 0.8680507818	-4.4601002746	-2.1871805529	 0.112066
H	 2.6420356781	-4.0653125813	-2.088481957	 0.11443
53.2131	67.2301	86.6948	109.5911	190.8732	244.1242	282.678	349.7228	422.7847	491.6832	589.7293	640.223	690.8376	751.6928	808.5871	832.2879	920.2946	932.0797	938.3465	984.4344	1016.6	1044.9694	1048.5734	1064.2356	1077.8307	1096.4941	1122.0462	1127.99	1162.2528	1195.5913	1203.6797	1221.671	1233.2443	1324.1638	1376.9248	1404.0815	1457.9725	1469.1583	1470.809	1479.4787	1506.2044	1517.0166	1789.0367	3043.4015	3091.321	3103.0566	3109.7931	3130.981	3142.2261	3152.4362	3160.1063	3177.9416	3211.5365	3230.2214
CC(=O)N1CC1C1CC1	CC(=O)N1C[C@H]1C1CC1	
InChI=1S/C7H11NO/c1-5(9)8-4-7(8)6-2-3-6/h6-7H,2-4H2,1H3	InChI=1S/C7H11NO/c1-5(9)8-4-7(8)6-2-3-6/h6-7H,2-4H2,1H3/t7-,8?/m0/s1
