20
gdb 109314	2.28818	1.48353	0.98836	2.2851	82.22	-0.2186	0.0236	0.2422	1227.9505	0.171655	-403.12843	-403.119601	-403.118657	-403.162166	33.359	
O	 0.0125110156	 1.3804376744	 0.1779250685	-0.412743
C	-0.0040547744	-0.0146809463	-0.0620007111	-0.193974
C	-1.4158476215	-0.5113473175	-0.0526728785	 0.258312
C	-2.5208928144	 0.2377664819	-0.0432291959	-0.166465
C	-3.7829383467	-0.590615902	-0.0276967069	-0.2686
C	-3.2711975495	-2.0291535696	-0.2977149921	-0.288261
C	-1.7648756161	-1.9663587168	-0.0306210538	 0.268986
C	-0.8166465999	-3.049057776	-0.3963557465	-0.301986
N	-1.2155841845	-2.8707784213	 1.0108700373	-0.355294
H	 0.9141855081	 1.6925065294	 0.0608728389	 0.289852
H	 0.4590976399	-0.256699836	-1.0345068428	 0.101456
H	 0.5879701828	-0.5551881279	 0.6995678874	 0.084044
H	-2.5181365411	 1.3200789345	-0.0204924487	 0.108913
H	-4.2910687434	-0.5080241758	 0.9427755724	 0.110984
H	-4.5085165913	-0.2603533208	-0.7796150815	 0.103055
H	-3.7464094163	-2.7884196061	 0.3265568917	 0.114275
H	-3.4481638338	-2.2965265776	-1.3450233175	 0.103133
H	-1.1930043787	-3.955532915	-0.8649897124	 0.115162
H	 0.1949887918	-2.7825008123	-0.6945786533	 0.103766
H	-0.4722525867	-2.4060977592	 1.5282954849	 0.225383
77.7585	88.3598	181.0206	212.6569	248.8862	279.5524	290.4771	352.6922	471.866	515.1129	576.2278	688.9715	721.829	788.3562	837.2215	867.0407	905.5823	921.4063	941.9188	975.2654	1008.2796	1040.9698	1046.2368	1057.9248	1085.2038	1116.2344	1166.2778	1173.4272	1216.0124	1233.6236	1251.817	1264.4585	1273.9273	1300.3729	1321.2554	1350.5622	1395.4493	1469.0282	1477.8402	1497.0027	1505.2356	1515.3388	1714.4786	2927.8802	2951.9586	3015.1299	3043.6769	3059.3403	3095.3519	3113.5171	3176.2577	3219.5642	3485.1577	3836.8085
OCC1=CCCC11CN1	OCC1=CCC[C@]21CN2	
InChI=1S/C7H11NO/c9-4-6-2-1-3-7(6)5-8-7/h2,8-9H,1,3-5H2	InChI=1S/C7H11NO/c9-4-6-2-1-3-7(6)5-8-7/h2,8-9H,1,3-5H2/t7-/m1/s1
