19
gdb 72899	2.79654	1.77969	1.43156	2.8032	73.46	-0.2403	0.0825	0.3228	972.3107	0.159986	-423.006196	-422.998718	-422.997773	-423.037815	30.03	
C	-0.1419885128	 1.5139267595	 0.1337279337	-0.44902
C	 0.0332545662	 0.0097636438	 0.0185232927	 0.434005
C	-1.2828080202	-0.759569406	-0.2567446864	-0.300222
C	-1.2225177179	-2.0062997335	 0.604574689	 0.043705
O	-0.1157228068	-2.8652125375	 0.3152678482	-0.245414
C	-0.0093192054	-1.9890304025	 1.4448954491	 0.020334
C	 0.7977962866	-0.7395321684	 1.1560938383	-0.156129
C	 1.9163340076	-0.8867256117	 0.1024435465	-0.08518
O	 1.0855747707	-0.3154908235	-0.9282775427	-0.322812
H	 0.8134842528	 1.9983828458	 0.3552539597	 0.119758
H	-0.5178053975	 1.9236007618	-0.8099801828	 0.128147
H	-0.8545335286	 1.7679872985	 0.9259147982	 0.112404
H	-2.1569296338	-0.1595351674	 0.0203392815	 0.098001
H	-1.3588109573	-0.9989604263	-1.3216176167	 0.129231
H	-2.1363684941	-2.5176468932	 0.8996597704	 0.094579
H	 0.0509078893	-2.4845011134	 2.4109130228	 0.093662
H	 1.0367865769	-0.1754024881	 2.0594159464	 0.074331
H	 2.8075781168	-0.2756221881	 0.2917001788	 0.093615
H	 2.2124371676	-1.9128008198	-0.1336626369	 0.117005
111.9932	225.4557	241.1118	256.147	320.8883	390.4448	398.129	496.5534	642.0219	662.1625	696.1328	798.2139	830.7033	866.0895	883.5696	887.2872	923.3132	938.4114	985.7685	1013.7475	1022.9133	1062.085	1069.7916	1104.7558	1132.372	1152.3478	1170.9044	1209.4699	1222.7556	1238.1266	1264.0478	1317.0432	1332.876	1349.3533	1358.3848	1404.1554	1429.2687	1460.75	1482.3874	1489.6613	1514.5577	3020.1596	3030.4102	3045.5714	3086.249	3096.588	3097.3414	3102.5561	3110.964	3132.9642	3146.8598
CC12CC3OC3C1CO2	C[C@]12C[C@H]3O[C@H]3[C@H]1CO2	
InChI=1S/C7H10O2/c1-7-2-5-6(9-5)4(7)3-8-7/h4-6H,2-3H2,1H3	InChI=1S/C7H10O2/c1-7-2-5-6(9-5)4(7)3-8-7/h4-6H,2-3H2,1H3/t4-,5-,6+,7+/m1/s1
