21
gdb 108140	3.43332	1.32875	1.21794	0.9647	81.51	-0.2351	0.0918	0.327	1126.7203	0.1841	-387.063916	-387.055931	-387.054987	-387.09635	31.658	
C	 0.1999120369	 1.3015025547	 0.1964915083	-0.258316
O	-0.1637055923	-0.0209092466	-0.1598817496	-0.285363
C	 0.5371192167	-0.5070909742	-1.2434631142	 0.452184
C	 0.2205344978	-0.1955179801	-2.7066390935	-0.314818
C	 0.8297619594	-1.5963851326	-3.0649794322	-0.033312
C	 2.310267162	-1.4775648518	-3.4552539306	-0.201561
C	 2.9760095682	-0.8355581139	-2.2049072577	-0.23628
C	 1.952379327	-1.0563694297	-1.0917831441	-0.104298
C	 0.8220690207	-1.9535287826	-1.5509854316	-0.176302
H	 1.2640893253	 1.3674418369	 0.4637276653	 0.108815
H	 0.0006234662	 2.0124555647	-0.6179321829	 0.110855
H	-0.4058139549	 1.5784131092	 1.0623087024	 0.125098
H	-0.8605769525	-0.174940209	-2.8679023485	 0.104593
H	 0.6741084112	 0.6864153228	-3.1743536934	 0.084017
H	 0.2270570957	-2.2081805752	-3.7358546363	 0.068026
H	 2.728562846	-2.4732191301	-3.6411359012	 0.095988
H	 2.455447588	-0.8849837271	-4.3642348236	 0.093468
H	 3.9291151374	-1.3162662172	-1.963409597	 0.097086
H	 3.1889375827	 0.2278673878	-2.3601987938	 0.096568
H	 2.2770082498	-1.1478415764	-0.0608113434	 0.084424
H	 0.4915955387	-2.8632121297	-1.0685447225	 0.089127
87.9166	152.4996	183.6712	214.8948	334.7799	348.5093	410.6656	452.2826	589.0105	682.8578	686.1663	723.1597	818.3875	846.702	865.5197	889.593	914.4419	935.7483	967.0152	980.3107	1006.4139	1026.6407	1056.4112	1062.4504	1098.7927	1131.1536	1163.2954	1180.5183	1183.1015	1206.6045	1218.1021	1230.4653	1242.9261	1259.0057	1278.3092	1315.7296	1321.1925	1340.1934	1418.0657	1481.4839	1487.188	1488.2784	1500.0164	1506.9454	1512.3358	2990.1769	3028.1556	3035.2219	3042.6294	3043.0606	3070.9284	3088.6272	3095.6187	3114.0127	3119.5982	3175.0249	3207.665
COC12CC3CCC1C23	CO[C@@]12C[C@H]3CC[C@@H]1[C@@H]23	
InChI=1S/C8H12O/c1-9-8-4-5-2-3-6(8)7(5)8/h5-7H,2-4H2,1H3	InChI=1S/C8H12O/c1-9-8-4-5-2-3-6(8)7(5)8/h5-7H,2-4H2,1H3/t5-,6-,7+,8+/m1/s1
