21
gdb 81820	2.08488	1.63297	1.13906	0.8243	88.55	-0.2482	0.0495	0.2977	1182.2929	0.180678	-349.903591	-349.894134	-349.89319	-349.937239	36.504	
C	-0.1901115216	 1.5827283448	-0.1330747365	-0.410755
C	 0.035705088	 0.0785735932	-0.0896286131	 0.017546
C	 0.7430911063	-0.6121775401	-1.2615275532	-0.112907
C	 2.191580782	-0.2026391061	-1.3445817651	-0.34047
C	 1.7871630123	-1.2330596547	-0.3308549165	 0.373534
C	 2.3562957112	-2.6205041928	-0.2709182878	-0.501902
C	 1.1374310768	-0.5254597435	 0.8850279361	-0.278031
C	 1.9638157525	 0.3792917363	 1.6616551132	 0.35335
C	 2.6503649735	 1.1428448456	 2.2895345099	-0.484368
H	 0.7336692881	 2.1293018126	-0.3410596578	 0.124249
H	-0.9158283167	 1.8357472571	-0.9138458912	 0.110959
H	-0.5802592832	 1.9484826312	 0.8223465854	 0.11873
H	-0.9124400102	-0.4238479741	 0.1248446	 0.076056
H	 0.2366477462	-1.0690453482	-2.1046152382	 0.081078
H	 2.7273444261	-0.5952746341	-2.2035090191	 0.107599
H	 2.5207047339	 0.7848833642	-1.0333198541	 0.117131
H	 2.580977954	-2.9968178878	-1.2743379743	 0.118101
H	 3.2886013273	-2.6406559151	 0.3063008293	 0.127112
H	 1.6584475445	-3.3220435348	 0.2013739385	 0.114028
H	 0.67411613	-1.2584157689	 1.5533922324	 0.096596
H	 3.2577000088	 1.8085929753	 2.8509502321	 0.192365
102.9745	122.9282	175.1865	196.2943	209.1056	225.9403	331.2725	338.1766	368.3286	487.1661	514.4824	546.5904	616.8569	626.5127	659.2192	708.823	777.7158	825.7452	859.8243	925.5693	965.1278	980.9903	997.8385	1015.8337	1045.3898	1074.0844	1099.0435	1114.083	1119.3402	1136.5832	1178.6466	1240.651	1265.8056	1296.2556	1331.7656	1366.4192	1397.4576	1413.615	1426.0043	1485.0031	1489.5204	1492.5037	1498.0901	1504.4664	2225.383	3018.9805	3034.518	3042.5054	3059.5463	3077.3356	3094.6312	3098.4708	3114.0584	3117.9606	3169.0804	3199.6686	3503.2603
CC1C2CC2(C)C1C#C	C[C@H]1[C@H]2C[C@@]2(C)[C@H]1C#C	
InChI=1S/C9H12/c1-4-7-6(2)8-5-9(7,8)3/h1,6-8H,5H2,2-3H3	InChI=1S/C9H12/c1-4-7-6(2)8-5-9(7,8)3/h1,6-8H,5H2,2-3H3/t6-,7+,8-,9+/m1/s1
