19
gdb 90070	2.68134	1.708	1.43865	2.7175	76.29	-0.2233	0.0636	0.2869	995.5445	0.157557	-422.883907	-422.875629	-422.874685	-422.916475	32.713	
C	-0.2127247359	 1.5603431707	-0.170624287	-0.415222
C	 0.0348617797	 0.0815128832	 0.0296436692	 0.056445
O	 0.9950401393	-0.5026518657	-0.961190137	-0.368403
C	 1.8551446861	-0.7877399173	 0.1344504568	 0.387569
C	 2.6357673749	-1.8128957601	 1.0052403325	-0.309785
C	 2.2200913952	-0.5517288404	 1.9299289941	-0.159937
C	 2.7017533967	 0.349125162	 0.7875127819	-0.278319
C	 0.8146061591	-0.6408321105	 1.2257632669	 0.270285
O	 0.0351624068	-1.7583035811	 1.6113487467	-0.465497
H	 0.7014960543	 2.1545384801	-0.1640997905	 0.130316
H	-0.7070535603	 1.7194695637	-1.1348495335	 0.132455
H	-0.8794069727	 1.9309360191	 0.6152976594	 0.123928
H	-0.9032901364	-0.4730931322	-0.0478071537	 0.113571
H	 2.1301247843	-2.7509332051	 1.2212187854	 0.123081
H	 3.708487748	-1.9347612376	 0.8335122035	 0.099144
H	 2.4544239493	-0.4509989637	 2.993226822	 0.077177
H	 3.7715663201	 0.3302076971	 0.5726925429	 0.098704
H	 2.3052008749	 1.3616612481	 0.7627646692	 0.098128
H	 0.0555689867	-1.8067103502	 2.5706030211	 0.28636
72.3067	163.428	212.1831	220.4619	295.6205	365.4034	390.691	470.0049	501.0557	532.3768	564.0391	642.0248	716.8787	777.7642	795.1136	850.6437	880.9062	937.6433	948.9959	970.275	999.6218	1038.4517	1052.1947	1067.7118	1083.1034	1129.1355	1131.2693	1153.3397	1170.1635	1185.6177	1201.0568	1209.2109	1239.0417	1299.1846	1339.2315	1379.7782	1407.8932	1477.0428	1481.256	1496.8363	1529.5086	3041.3443	3064.6124	3073.1429	3082.7791	3088.7689	3102.8824	3140.8273	3167.8356	3175.8431	3843.1198
CC1OC23CC(C2)C13O	C[C@H]1O[C@@]23C[C@@H](C2)[C@@]13O	
InChI=1S/C7H10O2/c1-4-7(8)5-2-6(7,3-5)9-4/h4-5,8H,2-3H2,1H3	InChI=1S/C7H10O2/c1-4-7(8)5-2-6(7,3-5)9-4/h4-5,8H,2-3H2,1H3/t4-,5-,6-,7+/m1/s1
