16
gdb 53084	3.82151	0.93841	0.76057	2.9075	87.33	-0.2321	-0.041	0.1911	1469.4734	0.124017	-400.754735	-400.745962	-400.745018	-400.790176	30.819	
C	-0.0591828338	 1.4697956883	-0.0067977695	-0.510923
C	 0.0005809871	 0.0180441001	-0.0163982107	 0.258435
C	 0.0379773684	-1.1871163203	-0.0228878581	-0.095417
C	 0.062936183	-2.598083181	-0.0282112876	 0.130487
C	 1.1131397129	-3.4256494828	-0.1565924004	-0.256616
C	 0.6402731801	-4.8433628739	-0.1017110393	-0.128852
O	-0.7755469047	-4.7509624152	 0.0696947805	-0.244429
C	-1.1578463456	-3.4332772143	 0.118087839	 0.321839
N	-2.3436166289	-3.0224213586	 0.2621855352	-0.547122
H	 0.5350478052	 1.8855749059	 0.8146488836	 0.152828
H	 0.3294725169	 1.8887678934	-0.9417625784	 0.152795
H	-1.089964844	 1.8190900593	 0.1145055487	 0.160702
H	 2.1490414523	-3.1433619554	-0.2814311162	 0.120936
H	 0.8560067104	-5.4038968161	-1.0219375131	 0.131256
H	 1.0689735574	-5.4067726057	 0.7387301913	 0.131256
H	-2.9884582167	-3.8103145638	 0.3388972249	 0.222824
16.6426	82.5383	99.5525	181.0039	269.8396	276.6188	369.0835	399.6619	464.4679	502.368	566.2069	737.599	772.839	800.0084	831.6191	876.3576	940.3064	956.7886	1010.9602	1027.9827	1049.7767	1051.9558	1103.8745	1194.558	1223.5262	1268.9346	1347.4919	1387.7979	1412.1025	1473.4112	1474.843	1500.7402	1674.1696	1761.1228	2363.4168	3005.5161	3027.1316	3031.5278	3086.3908	3094.61	3238.4457	3483.1997
CC#CC1=CCOC1=N	CC#CC1=C(OC[CH]1)[NH]	
InChI=1S/C7H7NO/c1-2-3-6-4-5-9-7(6)8/h4,8H,5H2,1H3	InChI=1S/C7H7NO/c1-2-3-6-4-5-9-7(6)8/h4,8H,5H2,1H3
