22
gdb 76327	1.93478	1.61209	1.14126	3.5855	84.06	-0.2349	0.0425	0.2775	1220.1281	0.191884	-404.390227	-404.379549	-404.378605	-404.425496	38.496	
C	-0.0633668765	 1.6161579058	-0.082454243	-0.411367
C	 0.0671544876	 0.1013026444	-0.0054288011	 0.015679
N	 1.1439659706	-0.4848989865	-0.8166139876	-0.08764
C	 1.3647324604	-0.5400254166	-2.2384108414	-0.349273
C	 1.7696739756	-1.1287039405	 0.2186002593	 0.402837
O	 2.7339321116	-1.8525518841	 0.2572020117	-0.395985
C	 0.7494865446	-0.5760050187	 1.2478025827	 0.123018
C	 1.3675574602	 0.3488685593	 2.2937963982	-0.443877
C	-0.0894549539	-1.6770205952	 1.8971179611	-0.441108
H	 0.8928085472	 2.1151525091	 0.0959733625	 0.123742
H	-0.4245602428	 1.9226080367	-1.0701102233	 0.119878
H	-0.7861210721	 1.976810538	 0.6566044386	 0.12434
H	-0.9060490192	-0.3591207158	-0.2286576342	 0.073058
H	 1.5220486736	 0.457920253	-2.6641884226	 0.127356
H	 2.2620883696	-1.1396055397	-2.4098762065	 0.161198
H	 0.5213249488	-1.0101974435	-2.7609002616	 0.123868
H	 1.9977669798	 1.1212862477	 1.8452197248	 0.121021
H	 0.5942492643	 0.8420814785	 2.8932829975	 0.113339
H	 1.9977695261	-0.234443295	 2.9721601413	 0.134147
H	 0.5347345641	-2.2930744599	 2.5517896747	 0.133918
H	-0.8972556063	-1.2495003878	 2.5016836051	 0.11309
H	-0.5380833633	-2.3364406394	 1.1471369738	 0.118761
77.3142	107.6619	144.5694	184.0838	203.9884	206.8474	211.9373	243.555	270.4839	285.473	326.1627	354.6982	485.4676	575.5795	603.1751	732.7899	750.1331	754.9884	874.528	958.8785	965.138	1007.2555	1039.1097	1046.4492	1071.2143	1114.4151	1151.187	1187.894	1195.8902	1250.2915	1276.7589	1319.0208	1384.8466	1399.6496	1407.643	1410.4676	1427.2442	1449.191	1478.5128	1482.5954	1485.0238	1488.8162	1498.9612	1504.3248	1511.9474	1518.394	1866.6462	2995.2103	3011.063	3027.9281	3033.7808	3037.9473	3063.293	3095.4851	3098.8735	3101.5897	3107.185	3113.7527	3122.9982	3127.2228
CC1N(C)C(=O)C1(C)C	C[C@H]1N(C)C(=O)C1(C)C	
InChI=1S/C7H13NO/c1-5-7(2,3)6(9)8(5)4/h5H,1-4H3	InChI=1S/C7H13NO/c1-5-7(2,3)6(9)8(5)4/h5H,1-4H3/t5-/m1/s1
