20
gdb 108351	2.67708	1.50487	1.24177	0.9065	77.87	-0.2254	0.0647	0.2901	1083.3964	0.171913	-403.072116	-403.06405	-403.063106	-403.104587	32.082	
O	 0.0992253571	 1.4011914359	-0.1436168225	-0.422099
C	 0.0410093214	-0.0141994123	-0.002774881	-0.169231
C	-1.3761357642	-0.5334853302	 0.0110833819	 0.349448
C	-2.236037524	-0.3684122892	 1.3068370481	-0.292145
C	-2.5334342814	-1.9011642481	 1.303538728	-0.221149
C	-1.6875639044	-2.0683372097	 0.0066724098	-0.09435
C	-2.3987616173	-1.8816540625	-1.3525387347	-0.055443
N	-3.502656925	-0.9116894023	-1.1524779197	-0.340843
C	-2.1200562323	-0.4163741415	-1.3417553678	-0.109869
H	-0.3825848935	 1.784786705	 0.5967496325	 0.285166
H	 0.5829420064	-0.4172786703	-0.8666641091	 0.104662
H	 0.57347454	-0.3487623762	 0.9024805467	 0.08373
H	-1.6500282881	-0.037221964	 2.1705276193	 0.083611
H	-3.1141405974	 0.2697120211	 1.2007137621	 0.112774
H	-2.1112560511	-2.4324454071	 2.1598458149	 0.092325
H	-3.5867090059	-2.1644655432	 1.2011509013	 0.113815
H	-0.878335744	-2.8002478961	 0.0027453613	 0.065732
H	-2.4366776991	-2.5854751662	-2.175655051	 0.088815
H	-3.9808239431	-0.8138034498	-2.0472681974	 0.229712
H	-1.8836459443	 0.2727462767	-2.1438400826	 0.095337
90.4228	152.8586	182.7317	280.5037	300.4415	335.7724	363.6795	437.6894	572.6759	647.4071	688.4963	733.3016	803.7209	817.1406	831.568	873.7764	898.6721	935.3524	943.2332	966.2988	990.5868	1018.23	1038.8338	1059.7185	1070.7564	1098.2244	1126.4076	1137.4109	1148.3288	1219.3466	1233.4511	1242.5618	1256.4658	1267.8003	1291.4562	1326.5752	1333.7513	1372.1516	1376.5802	1418.8728	1456.7467	1476.6675	1501.7945	2971.3116	3044.3081	3055.3016	3068.986	3098.9633	3119.4709	3136.0674	3174.1009	3188.221	3477.2703	3808.7471
OCC12CCC1C1NC21	OC[C@]12CC[C@H]1[C@H]1N[C@@H]21	
InChI=1S/C7H11NO/c9-3-7-2-1-4(7)5-6(7)8-5/h4-6,8-9H,1-3H2	InChI=1S/C7H11NO/c9-3-7-2-1-4(7)5-6(7)8-5/h4-6,8-9H,1-3H2/t4-,5+,6+,7+/m0/s1
