20
gdb 91016	2.6709	1.6294	1.36988	3.2813	78.12	-0.223	0.0674	0.2903	1034.9628	0.172086	-403.08603	-403.078238	-403.077293	-403.117811	31.98	
C	-0.0803034426	 1.5251711099	 0.0590579643	-0.512727
C	 0.1081833914	 0.041587345	 0.0027965399	 0.349518
N	-0.8327534952	-0.8838805682	 0.6920589751	-0.394597
C	 0.6259782569	-0.9523060678	 0.9912723341	-0.117334
C	 1.299489294	-1.7856777537	-0.121384388	-0.027933
C	 0.4674479282	-2.9237398888	-0.7732206677	-0.276012
C	-0.1057510325	-1.9048170594	-1.8244172031	 0.133161
O	-1.4914161778	-1.7412882807	-1.9067431	-0.438347
C	 0.7440681485	-0.7604551563	-1.1624168302	-0.114903
H	 0.8304163005	 2.048281404	-0.2508646551	 0.128426
H	-0.8907591022	 1.8432880931	-0.6072127904	 0.136713
H	-0.3278822559	 1.8546715609	 1.0747012162	 0.115071
H	-1.2688194119	-0.3602443193	 1.4500060179	 0.228756
H	 0.9582477208	-0.8203354534	 2.0151264056	 0.090865
H	 2.3713522941	-1.9307985822	 0.0085122244	 0.068412
H	 1.0794438333	-3.7129798034	-1.2174373814	 0.094416
H	-0.2922401677	-3.3778727811	-0.1342299899	 0.105501
H	 0.2427695755	-2.1244291043	-2.8379019784	 0.079763
H	-1.7698223814	-1.5670549501	-0.9938649852	 0.289974
H	 1.4049618741	-0.1738882743	-1.8018413782	 0.061278
141.4125	178.5379	214.9903	268.1134	331.1785	377.2369	420.8851	494.3694	553.2584	636.4279	677.591	687.6431	724.1733	794.5576	814.4432	857.7494	881.1217	900.8471	955.3352	965.555	973.1906	1020.3801	1032.4734	1065.4418	1087.1936	1094.9781	1112.997	1141.8162	1184.7888	1194.2294	1215.0421	1250.3484	1259.0477	1278.1872	1302.7081	1323.9937	1356.9621	1408.0319	1441.9731	1464.2504	1472.4602	1479.9764	1498.6255	3022.3991	3057.7709	3066.4327	3086.9716	3095.1548	3101.7852	3116.3232	3127.0153	3172.0436	3475.6538	3681.0375
CC12NC1C1CC(O)C21	C[C@]12N[C@H]1[C@H]1C[C@@H](O)[C@@H]21	
InChI=1S/C7H11NO/c1-7-5-3(2-4(5)9)6(7)8-7/h3-6,8-9H,2H2,1H3	InChI=1S/C7H11NO/c1-7-5-3(2-4(5)9)6(7)8-7/h3-6,8-9H,2H2,1H3/t3-,4+,5-,6-,7+/m0/s1
