18
gdb 71662	3.08903	1.88898	1.86902	1.1076	72.37	-0.2215	0.0681	0.2896	841.2704	0.150783	-401.902522	-401.896319	-401.895375	-401.932549	27.28	
O	-0.0978032888	 1.3782221536	-0.0165006488	-0.50803
C	 0.0490019697	-0.014502891	-0.0077689747	 0.379206
C	 0.7758931933	-0.7124928419	-1.1876437257	-0.280776
C	 0.3848713599	-2.1218158285	-0.7378252744	-0.015432
C	-1.1469053043	-2.0963590522	-0.6842229286	-0.098357
C	-1.0731771973	-2.0390144022	 0.8049900714	-0.038722
C	-1.3169388046	-0.7580155493	 0.0317618864	-0.0893
N	 0.4145946496	-2.1092178984	 0.8248589019	-0.144823
C	 0.7855987372	-0.7173729557	 1.1660801587	-0.223148
H	 0.7789489262	 1.7735861672	-0.0537069379	 0.279369
H	 0.3400066977	-0.4667344086	-2.1601632798	 0.105337
H	 1.8535701501	-0.5158640787	-1.2051624976	 0.088082
H	 0.9008623705	-2.9784557091	-1.16680148	 0.080293
H	-1.8661926206	-2.565520276	-1.3423986281	 0.089393
H	-1.6895920166	-2.4643608754	 1.5875370131	 0.089237
H	-2.2560683072	-0.2226039024	 0.0447029076	 0.094681
H	 1.8713814158	-0.5694014275	 1.1577028258	 0.086882
H	 0.3854244293	-0.4516653339	 2.1482695607	 0.106108
234.272	316.4851	327.0817	433.0462	501.0783	558.373	610.3088	662.4347	682.8507	763.8311	785.9735	802.262	822.3318	841.7564	901.3942	926.3646	936.7772	958.8142	979.9225	1026.7663	1035.0689	1045.7152	1062.7553	1065.0882	1070.3917	1121.2772	1151.8656	1187.2462	1207.1826	1225.2229	1235.8551	1247.8521	1261.6639	1295.3888	1313.4586	1370.1603	1389.656	1479.6434	1505.296	3037.1076	3046.3105	3102.5558	3108.0156	3132.2682	3181.475	3199.2694	3219.8149	3816.5501
OC12CC3C4C(C14)N3C2	O[C@]12C[C@@H]3[C@H]4[C@H]([C@@H]14)N3C2	
InChI=1S/C7H9NO/c9-7-1-3-4-5(7)6(4)8(3)2-7/h3-6,9H,1-2H2	InChI=1S/C7H9NO/c9-7-1-3-4-5(7)6(4)8(3)2-7/h3-6,9H,1-2H2/t3-,4-,5+,6-,7+/m1/s1
