17
gdb 54376	3.30667	1.40474	1.27821	2.3543	72.58	-0.242	0.0134	0.2554	1032.5443	0.137715	-417.97584	-417.968271	-417.967326	-418.008175	29.367	
N	 0.1739130652	 0.7634535901	-1.0010998634	-0.541048
C	-0.0009514128	 0.1093888957	 0.184046202	 0.221753
O	 0.7765895927	 0.1536209395	 1.1187509857	-0.366849
C	-1.2367906823	-0.714421459	 0.2161281694	 0.319083
C	-1.7055242898	-1.8859490754	-0.5820490603	-0.07279
C	-2.1808227039	-2.6168745444	 0.6724120524	-0.243568
C	-2.2282245135	-1.2122829511	 1.3328610863	-0.135942
C	-3.3061581156	-0.5005002785	 0.4971773847	-0.152143
N	-2.4059028884	-0.5657659757	-0.7074460721	-0.208074
H	 0.9467013449	 1.4042470184	-1.0768123297	 0.260449
H	-0.6083677498	 0.8525305976	-1.6300093551	 0.270987
H	-1.2824300618	-2.2876056842	-1.4933856627	 0.110936
H	-3.1117233373	-3.1920993013	 0.6316783192	 0.099324
H	-1.3764643567	-3.2323725446	 1.0809806039	 0.122875
H	-2.1264616028	-1.0846691508	 2.4068594106	 0.096662
H	-4.2785613382	-0.9915112367	 0.3766941533	 0.101841
H	-3.44544737	 0.5501035105	 0.7614912259	 0.116504
65.9132	145.6463	164.3634	341.5725	358.1792	436.7675	458.9645	503.9035	588.2077	648.0512	713.5792	732.7741	767.0588	837.0804	884.106	918.7835	931.9225	972.0917	988.2096	1000.738	1040.0416	1067.6073	1088.4421	1121.0227	1136.7512	1156.3675	1193.9973	1220.7076	1242.2388	1275.3931	1292.1379	1330.3837	1434.1616	1490.1302	1513.8758	1603.0579	1790.0734	3038.8426	3049.0802	3112.4936	3117.7183	3161.5841	3208.3539	3584.6779	3722.8809
NC(=O)C12C3CC1CN23	NC(=O)[C@@]12[C@H]3C[C@@H]1CN23	
InChI=1S/C6H8N2O/c7-5(9)6-3-1-4(6)8(6)2-3/h3-4H,1-2H2,(H2,7,9)	InChI=1S/C6H8N2O/c7-5(9)6-3-1-4(6)8(6)2-3/h3-4H,1-2H2,(H2,7,9)/t3-,4-,6+,8?/m1/s1
