16
gdb 50830	4.7464	0.84341	0.76979	0.9447	68.57	-0.2602	-0.0335	0.2267	1443.5191	0.123443	-475.024246	-475.01543	-475.014486	-475.059778	29.728	
N	-0.2448819215	 1.2851803238	 0.173691537	-0.415045
C	-0.0465008804	 0.0591472076	-0.0182088012	 0.115229
O	-1.1156951123	-0.7930867046	 0.1328799543	-0.210485
C	-0.9085050667	-2.1359728799	-0.0714863408	 0.460281
O	 0.1545365352	-2.6169128085	-0.355008011	-0.336042
C	-2.210489494	-2.8700360695	 0.0762285727	-0.179538
C	-3.0572761513	-2.9779251041	-1.227617539	-0.071374
O	-2.9833292785	-4.410844432	-1.2051449187	-0.26494
C	-2.1511593391	-4.4049410803	-0.0251413367	-0.082894
H	 0.6216859674	 1.8019994105	 0.0301231807	 0.242614
H	 0.8719920493	-0.4578609971	-0.295785407	 0.146303
H	-2.7668698439	-2.4660336665	 0.9218293039	 0.120627
H	-4.0845955233	-2.6074768693	-1.141785591	 0.118739
H	-2.5927861487	-2.5491936116	-2.1241830349	 0.116645
H	-1.1491502515	-4.7995321484	-0.2214642507	 0.130844
H	-2.6124479508	-4.9505208202	 0.8051173924	 0.109034
33.5446	67.9903	107.5142	108.1642	162.9302	250.7195	311.0793	383.2563	525.2529	652.4862	745.8434	810.8801	855.4944	885.2691	896.9763	956.2183	999.9917	1031.4639	1051.1611	1072.6024	1091.187	1116.7647	1162.3165	1166.7026	1173.0953	1232.8302	1261.7001	1311.6712	1367.634	1383.6049	1394.279	1510.6701	1534.2382	1747.8068	1838.0058	3019.8599	3037.3326	3069.1741	3088.9448	3119.2787	3141.7529	3507.4964
N=COC(=O)C1COC1	[NH][CH]OC(=O)C1COC1	
InChI=1S/C5H7NO3/c6-3-9-5(7)4-1-8-2-4/h3-4,6H,1-2H2	InChI=1S/C5H7NO3/c6-3-9-5(7)4-1-8-2-4/h3-4,6H,1-2H2
