15
gdb 129676	3.07377	1.31672	0.92638	5.4882	74.57	-0.212	-0.0091	0.2029	1192.4637	0.114213	-450.106495	-450.098239	-450.097295	-450.140013	29.896	
N	-0.2341636015	 1.4225156729	 0.0164255112	-0.62712
C	 0.0239175142	 0.0255730607	-0.0125995097	-0.045472
C	-0.9644351783	-0.9300495263	-0.0019430804	 0.564989
N	-2.3146044974	-0.699410604	 0.0368708428	-0.39358
C	-3.3722164271	-1.5893662022	 0.0519678606	 0.076359
N	-3.2333879855	-2.8504549709	 0.0297110932	-0.42325
O	-0.4501169173	-2.1542775565	-0.0350526462	-0.197149
N	 0.9631950121	-2.0457408265	-0.0700841655	-0.157156
C	 1.2057436704	-0.7582847447	-0.05616712	-0.009536
H	 0.1756612712	 1.8694123222	 0.8305314258	 0.246868
H	 0.1339414587	 1.8956246025	-0.8027807089	 0.246867
H	-2.5237988057	 0.2889342546	 0.0577181475	 0.267263
H	-4.3239074824	-1.045487973	 0.0851869527	 0.096125
H	-4.144810005	-3.3025715077	 0.0472147701	 0.229336
H	 2.2349507036	-0.4246098312	-0.077805343	 0.125457
46.4497	148.5905	165.9209	222.7021	244.539	277.6043	337.5159	443.3064	589.983	618.8997	638.2932	693.8643	729.9036	806.2904	810.2976	828.261	906.974	909.8146	944.0672	1047.9227	1079.1625	1183.7142	1206.6005	1216.777	1228.9983	1361.0537	1413.2583	1440.7925	1497.009	1562.8263	1647.6496	1697.2777	1734.533	3046.0591	3230.1733	3495.589	3515.3796	3560.3493	3605.4514
NC1=C(NC=N)ON=C1	Nc1c(NC=N)onc1	
InChI=1S/C4H6N4O/c5-2-7-4-3(6)1-8-9-4/h1-2H,6H2,(H2,5,7)	InChI=1S/C4H6N4O/c5-2-7-4-3(6)1-8-9-4/h1-2H,6H2,(H2,5,7)
