14
gdb 33324	4.73119	0.82303	0.7773	6.226	81.79	-0.2561	-0.041	0.2151	1415.2942	0.101067	-399.484562	-399.476899	-399.475955	-399.517608	27.842	
N	 0.0240210472	-3.7311404398	-0.0531034839	-0.33995
C	 0.0320484991	-2.5690063119	-0.031517319	 0.202132
C	 0.0381394505	-1.2056378952	-0.0033061865	 0.069248
C	 0.0394369785	 0.0041608448	 0.019512675	 0.118753
C	 0.0445632435	 1.4285951185	 0.0507047469	-0.284457
C	 0.4486208086	 2.2422520758	 1.2878078374	-0.143603
C	 1.6382266181	 1.5720675915	 1.967632757	-0.10003
O	 2.3824728971	 1.5587859311	 0.7125423311	-0.27092
C	 1.3278855873	 2.2497023675	 0.0719527805	 0.102333
H	-0.753959654	 1.9066841314	-0.5119813659	 0.13655
H	-0.2080177929	 2.9898751683	 1.7102471006	 0.121318
H	 2.1377117639	 2.2192378061	 2.6946200816	 0.127613
H	 1.4967652657	 0.5687660868	 2.3801552524	 0.132809
H	 1.5691835074	 2.9910419251	-0.6809180772	 0.128205
69.6538	89.1908	190.0434	205.2162	343.7198	369.4219	499.5175	549.6516	577.3136	595.5663	742.9114	778.9338	791.86	826.1674	923.7556	958.2809	976.4286	995.1258	1045.8388	1065.6018	1095.5914	1110.0105	1161.3948	1217.5751	1255.0307	1300.4385	1355.9879	1412.7028	1507.1444	2261.1041	2389.8339	3050.1103	3106.6699	3143.4182	3186.6271	3215.3196
N#CC#CC1C2COC12	N#CC#C[C@H]1[C@H]2CO[C@@H]12	
InChI=1S/C7H5NO/c8-3-1-2-5-6-4-9-7(5)6/h5-7H,4H2	InChI=1S/C7H5NO/c8-3-1-2-5-6-4-9-7(5)6/h5-7H,4H2/t5-,6+,7-/m0/s1
