16
gdb 99364	6.82212	0.5716	0.53479	7.564	67.96	-0.2609	-0.0266	0.2343	1930.3295	0.120162	-475.009342	-474.999086	-474.998142	-475.046589	33.547	
O	 0.1007174848	 1.3388550784	-0.1687816571	-0.391036
C	-0.0457888	-0.0240309941	 0.1170305879	-0.17563
C	-1.5050815687	-0.429161866	-0.0755727335	 0.360184
O	-2.4001309373	 0.3577885342	-0.2056421835	-0.246274
C	-1.7240829804	-1.9445532249	-0.0935202419	-0.169493
O	-3.0889992445	-2.2228181063	 0.0666881388	-0.214418
C	-3.3688021967	-3.5979220555	-0.0206607282	-0.182873
C	-4.8055964894	-3.8133359215	 0.17294538	 0.271044
N	-5.9298810802	-4.0268784641	 0.3228214038	-0.28614
H	 1.0050661266	 1.5942086857	 0.0350231897	 0.296993
H	 0.5837805605	-0.6687323886	-0.5224658493	 0.104601
H	 0.2169662598	-0.2733857629	 1.1611255765	 0.117318
H	-1.3436197409	-2.3292639737	-1.0574464217	 0.121432
H	-1.1160290672	-2.4204681852	 0.6961349144	 0.110117
H	-3.0809234857	-4.0085284014	-1.002519999	 0.14317
H	-2.8236866806	-4.1745855939	 0.7449219232	 0.141007
33.5388	63.9106	78.4575	100.3392	111.9323	201.1603	226.5362	286.1294	305.7452	385.2343	400.4062	470.2393	575.7425	685.4851	824.4947	894.2109	964.5197	991.6811	1033.12	1077.3313	1091.514	1154.3427	1188.7226	1229.6669	1244.3668	1256.7672	1276.9272	1377.1697	1429.8559	1446.6626	1481.3577	1494.7623	1507.9715	1858.7465	2376.9867	2937.0441	2947.4011	2959.4444	2969.6862	2972.78	2995.0135	3837.6955
OCC(=O)COCC#N	OCC(=O)COCC#N	
InChI=1S/C5H7NO3/c6-1-2-9-4-5(8)3-7/h7H,2-4H2	InChI=1S/C5H7NO3/c6-1-2-9-4-5(8)3-7/h7H,2-4H2
