23
gdb 121942	2.51702	0.88393	0.68741	1.734	83.16	-0.2518	0.074	0.3258	1706.9235	0.203182	-425.402249	-425.391253	-425.390309	-425.439646	38.835	
C	-0.2005932223	 0.7139151622	 1.3488173419	-0.385379
C	-0.236669261	-0.1585587645	 0.1055200878	-0.022402
O	-1.4259677061	-0.9205204294	 0.1227444138	-0.241853
C	-1.5695129124	-1.7604458748	-0.9981177421	-0.068434
C	-2.8920391373	-2.5270718861	-0.8946020287	 0.07736
O	-3.1303257676	-3.2077153555	-2.1257930807	-0.434512
C	-2.9417775084	-3.4566574489	 0.2944791782	 0.014602
C	-3.4408203175	-2.9682689421	 1.6293428395	-0.249811
C	-4.2727881789	-3.930570584	 0.8226388759	-0.277913
H	 0.7124731196	 1.3164967093	 1.3663447551	 0.113952
H	-1.0619671115	 1.387603585	 1.3695283102	 0.126053
H	-0.2273331189	 0.0964562727	 2.251187609	 0.12597
H	-0.1968109698	 0.4628927541	-0.8053882972	 0.08568
H	 0.6416490377	-0.8261343978	 0.0754225751	 0.083525
H	-1.5716636714	-1.1792200919	-1.933890339	 0.0925
H	-0.7296865415	-2.4778160967	-1.0612651555	 0.068448
H	-3.7020768617	-1.7927451732	-0.8084181554	 0.089178
H	-2.5982134032	-4.0103259888	-2.1243972263	 0.277548
H	-2.1231542357	-4.1756130742	 0.323567537	 0.06902
H	-2.9459299292	-3.3329121972	 2.5224324129	 0.108505
H	-3.7628394755	-1.9353199563	 1.6929852724	 0.12179
H	-5.1654999915	-3.5534107873	 0.33493799	 0.118086
H	-4.354373596	-4.9564219946	 1.1644185461	 0.10809
45.7626	60.0589	71.7476	121.4917	148.0494	201.5217	210.1195	246.147	267.7525	318.6835	340.6372	428.34	537.2501	541.1188	757.2733	817.562	823.4351	832.1341	899.0001	941.0614	947.6319	998.4813	1044.4229	1052.8184	1069.7157	1074.9243	1106.6599	1131.2126	1146.6431	1166.3194	1178.9446	1191.3755	1195.7983	1227.0013	1240.5836	1283.2864	1295.6832	1328.0543	1383.9175	1398.9945	1404.9235	1438.7838	1447.7212	1473.1959	1483.3513	1499.5034	1507.236	1512.3555	1535.241	2930.2164	2953.1994	2975.7444	2992.8249	3044.5595	3044.9909	3105.6155	3119.0175	3121.1084	3133.2572	3141.7234	3212.0534	3228.3601	3810.1375
CCOCC(O)C1CC1	CCOC[C@@H](O)C1CC1	
InChI=1S/C7H14O2/c1-2-9-5-7(8)6-3-4-6/h6-8H,2-5H2,1H3	InChI=1S/C7H14O2/c1-2-9-5-7(8)6-3-4-6/h6-8H,2-5H2,1H3/t7-/m1/s1
