17
gdb 13517	3.0008	1.88637	1.43211	2.6686	63.71	-0.2349	0.0274	0.2624	913.2487	0.142037	-401.019483	-401.011134	-401.01019	-401.052783	30.15	
C	 0.6907076392	 1.6955032335	-0.2943481865	-0.411084
C	 0.2265904298	 0.2478917345	-0.2349469415	-0.034917
C	 1.2979384471	-0.8568497342	-0.3813541398	-0.081207
O	 0.9914726992	-1.4022097154	 0.9248914742	-0.302581
C	-0.0208202892	-0.3964907483	 1.161370463	 0.035524
C	 0.2416963226	 0.4838132917	 2.3787094054	 0.359905
N	 1.4000616304	 0.1986768041	 3.0247115122	-0.517479
O	-0.5371904108	 1.3654619392	 2.6910489174	-0.374934
H	 1.57611813	 1.8551495767	 0.3297469284	 0.124022
H	 0.9475778733	 1.9735498651	-1.3218466917	 0.112293
H	-0.0921792065	 2.3697282001	 0.062346064	 0.147754
H	-0.6251986051	 0.0974174474	-0.9018553949	 0.089495
H	 1.1299541532	-1.5948588248	-1.1733928362	 0.10865
H	 2.3333966232	-0.4981072297	-0.437980325	 0.103321
H	-1.0142468896	-0.8415199728	 1.2870137481	 0.108301
H	 1.9337934256	-0.6036933881	 2.7319103273	 0.271838
H	 1.6172744875	 0.679242311	 3.8816064857	 0.261098
52.2153	81.2565	159.4828	225.4879	276.4167	329.383	353.8796	398.6442	490.3947	519.5022	653.9653	714.3427	744.778	846.3568	886.4696	924.2334	948.3887	1002.9259	1035.342	1079.6415	1097.3848	1128.3462	1157.4115	1186.1404	1245.6037	1271.7936	1327.4698	1344.7165	1366.243	1386.6403	1415.3099	1490.6899	1498.4322	1523.3733	1587.1234	1798.6236	3017.7106	3036.7474	3047.0992	3063.9017	3082.5295	3105.3471	3123.4814	3589.6543	3732.2311
CC1COC1C(N)=O	C[C@H]1CO[C@H]1C(=O)N	
InChI=1S/C5H9NO2/c1-3-2-8-4(3)5(6)7/h3-4H,2H2,1H3,(H2,6,7)	InChI=1S/C5H9NO2/c1-3-2-8-4(3)5(6)7/h3-4H,2H2,1H3,(H2,6,7)/t3-,4+/m0/s1
