19
gdb 51948	5.92807	0.61231	0.59145	3.8481	79.48	-0.2504	-0.0216	0.2287	1861.3089	0.156649	-423.046782	-423.037042	-423.036097	-423.083416	33.773	
O	-0.2862305294	-0.0018649305	-0.1802191874	-0.238488
C	-0.0225644006	 1.1682884343	-0.0822109999	 0.157491
C	 1.3568560566	 1.7668686948	-0.2094205079	-0.269718
C	 1.399938655	 2.8812529246	-1.2598411538	-0.331548
C	 2.630081199	 3.7760410459	-1.1360829147	 0.388634
O	 3.3859344931	 3.6956969478	-0.1899154998	-0.329625
C	 2.8374909227	 4.7622226561	-2.2328639245	-0.106091
C	 3.4885040389	 6.0894946877	-1.8676222559	-0.246922
C	 4.2770042399	 5.0784804112	-2.6225606394	-0.24579
H	-0.824714982	 1.9193074233	 0.1210262841	 0.066443
H	 1.6357423371	 2.202870758	 0.7591194191	 0.144324
H	 2.0742371141	 0.9737804968	-0.4326299898	 0.129783
H	 1.3565315768	 2.4741527061	-2.2775484187	 0.134845
H	 0.5190357882	 3.5362764214	-1.1729074123	 0.131128
H	 2.0952586991	 4.7687656838	-3.0231646601	 0.089915
H	 3.1295128338	 6.9714991109	-2.3850319924	 0.12138
H	 3.7202593363	 6.2204582084	-0.8170050971	 0.140915
H	 5.0382146766	 4.5304687732	-2.0795258663	 0.141293
H	 4.4759344648	 5.2427177561	-3.6751514834	 0.122033
39.2631	54.1305	65.4818	97.0712	155.1052	256.2246	269.088	286.4487	370.0149	517.2072	577.2993	654.9873	771.4248	790.2616	828.4502	831.054	846.5104	894.1566	921.6194	1018.5831	1045.0276	1070.8966	1085.2492	1101.2273	1107.4592	1120.9296	1129.6711	1187.8855	1211.6209	1223.5458	1256.466	1305.9325	1361.4459	1410.4752	1430.9675	1450.0646	1454.3093	1465.4783	1485.7005	1787.0826	1838.5206	2834.9915	3004.3659	3037.4194	3057.9475	3115.8146	3142.8983	3144.3301	3173.089	3230.6459	3245.0279
O=CCCC(=O)C1CC1	O=CCCC(=O)C1CC1	
InChI=1S/C7H10O2/c8-5-1-2-7(9)6-3-4-6/h5-6H,1-4H2	InChI=1S/C7H10O2/c8-5-1-2-7(9)6-3-4-6/h5-6H,1-4H2
