18
gdb 66178	3.95273	0.83657	0.79504	2.9571	70.92	-0.2551	0.0076	0.2627	1464.3992	0.146047	-476.186313	-476.176966	-476.176021	-476.221863	32.874	
O	 0.0633851881	 1.4743387783	-0.1245615321	-0.476801
C	 0.0350485944	 0.0789406116	-0.0074049284	 0.345094
C	 0.9296082101	-0.5741535704	-1.048108488	-0.138707
O	 2.2420563478	-0.0453864007	-0.8314891294	-0.211048
C	 3.2009083106	-0.4066994268	-1.7112241024	 0.13265
N	 4.3683536886	 0.0507673353	-1.5858304148	-0.431883
C	 0.1672501565	-0.5386904222	 1.4111735528	-0.12492
O	-1.0505271474	-1.2912410187	 1.2146488563	-0.274319
C	-1.3814605402	-0.5201885874	 0.0424207707	-0.120127
H	 0.989525857	 1.7329481607	-0.2154076523	 0.295896
H	 0.9266831269	-1.6649758442	-0.9331582255	 0.124029
H	 0.580427738	-0.3139046062	-2.0559365198	 0.116633
H	 2.8446601835	-1.1000837181	-2.4848894707	 0.09325
H	 4.9698063777	-0.3165310001	-2.3200879027	 0.234768
H	 1.0278082061	-1.1835891002	 1.6165342227	 0.110265
H	 0.0659036324	 0.2170156685	 2.1997943538	 0.107806
H	-2.1412345764	 0.2460844717	 0.2411768806	 0.115205
H	-1.7025906937	-1.1503708412	-0.7955384509	 0.102209
39.8958	74.9074	103.5127	123.419	166.2957	290.0139	315.3497	361.4062	418.8819	439.4042	489.1458	631.315	716.6383	825.8623	840.5841	919.0336	942.6174	972.9002	1000.3865	1009.5082	1023.3328	1045.5263	1092.6435	1133.0397	1147.6476	1165.3938	1184.842	1264.1225	1286.9618	1299.9691	1304.377	1340.4181	1391.6168	1420.966	1435.7411	1498.1352	1506.399	1529.4522	1751.2493	3009.6726	3014.4364	3027.0641	3033.4351	3066.6349	3068.3668	3084.5907	3522.4058	3777.6681
OC1(COC=N)COC1	OC1(CO[CH][NH])COC1	
InChI=1S/C5H9NO3/c6-4-9-3-5(7)1-8-2-5/h4,6-7H,1-3H2	InChI=1S/C5H9NO3/c6-4-9-3-5(7)1-8-2-5/h4,6-7H,1-3H2
