18
gdb 17403	4.31674	1.52905	1.49584	2.0075	72.48	-0.2273	0.0757	0.303	935.8921	0.154556	-343.909081	-343.90171	-343.900765	-343.940477	28.795	
C	-0.1156379362	 1.5036423868	-0.0429118336	-0.390793
C	-0.0284719022	 0.0021425767	 0.0745772876	-0.067365
N	 1.3205809303	-0.5983019029	-0.0918699498	-0.399468
C	 0.6442507365	-0.6715671307	 1.2018665123	 0.397496
C	 1.2967684675	-0.1303252481	 2.4995228199	-0.299441
C	 0.8753039792	-1.4433588319	 3.1802718058	-0.039624
N	-0.6021061529	-1.5174609537	 3.0675841894	-0.333187
C	 0.2529119598	-1.947132456	 1.9247717063	-0.16718
H	 0.7545336478	 1.976308371	 0.4201260441	 0.125178
H	-0.1481757117	 1.8137537441	-1.0930214711	 0.116812
H	-1.018521177	 1.8784096949	 0.4510061046	 0.120043
H	-0.8621845726	-0.5418041726	-0.3690369235	 0.079571
H	 1.2538469581	-1.4909784005	-0.5767793496	 0.224543
H	 2.3777836724	-0.0291304129	 2.3810983119	 0.114778
H	 0.8742002333	 0.7787670464	 2.9342611456	 0.107719
H	 1.4021582024	-1.9834310107	 3.9566889208	 0.09479
H	-0.8933958477	-2.3692096615	 3.5491602621	 0.226399
H	 0.1863443531	-2.9508546785	 1.5197467472	 0.089731
115.1319	170.0661	193.6249	245.3797	379.0263	425.2787	452.6306	500.4798	573.9462	760.2173	798.4575	814.7929	831.0501	866.8465	906.2604	932.6528	960.1429	978.3341	1015.8431	1035.7796	1062.8794	1066.6975	1109.5255	1110.5237	1129.6605	1168.2688	1213.0257	1227.7689	1243.5215	1304.2018	1322.3497	1336.2583	1379.8711	1408.8561	1464.54	1479.9904	1490.6055	1508.9222	3033.5465	3066.2087	3096.4914	3102.4228	3124.034	3127.8013	3173.347	3196.5957	3456.9414	3481.3987
CC1NC11CC2NC12	C[C@H]1N[C@]21C[C@H]1N[C@@H]21	
InChI=1S/C6H10N2/c1-3-6(8-3)2-4-5(6)7-4/h3-5,7-8H,2H2,1H3	InChI=1S/C6H10N2/c1-3-6(8-3)2-4-5(6)7-4/h3-5,7-8H,2H2,1H3/t3-,4-,5-,6+/m1/s1
