20
gdb 65788	2.68405	1.4623	1.27716	1.8667	77.84	-0.2469	0.026	0.2729	1092.8604	0.171551	-403.157367	-403.148888	-403.147943	-403.190686	32.468	
C	-0.0392096454	 1.6720685166	-0.2224427264	-0.430184
C	-0.0089691072	 0.1556432966	-0.0495625496	 0.333537
C	 0.9040248733	-0.5581099125	-1.0965018181	-0.220746
N	 2.0495465398	-1.0844533582	-0.3370436324	-0.264209
C	 1.8132818151	-0.798714815	 0.8732923868	 0.110019
O	 0.6867367729	-0.1283511339	 1.2099874031	-0.254434
C	-1.4077232681	-0.4286290323	 0.0174026673	-0.014453
C	-1.6912804979	-1.7342967527	 0.7102656217	-0.278829
C	-2.2016929662	-0.4384178683	 1.2964454277	-0.275198
H	 0.9772927034	 2.0754785996	-0.2527158169	 0.124485
H	-0.5395594195	 1.9339394628	-1.1606177788	 0.118857
H	-0.5808355141	 2.1455270835	 0.6007142817	 0.129249
H	 0.3847098077	-1.3828110705	-1.5963691799	 0.116404
H	 1.2560642145	 0.1301982223	-1.8724796891	 0.111279
H	 2.4526878702	-1.0472665335	 1.7138286996	 0.136613
H	-1.9690726345	-0.2406383029	-0.8946547283	 0.087075
H	-2.4008530852	-2.4132427907	 0.250883342	 0.111079
H	-0.8729379161	-2.2208083918	 1.2279202373	 0.122726
H	-1.7082814776	-0.0780322781	 2.1916335711	 0.126497
H	-3.263687065	-0.2258314611	 1.2458060311	 0.110234
67.8079	87.7492	199.4364	227.0791	248.7341	310.527	365.5386	434.6871	477.6245	562.9042	599.1672	770.936	787.7268	826.8328	854.2958	860.2844	936.1681	942.1145	952.4093	975.1823	980.7987	990.0814	1057.136	1066.272	1088.1424	1126.1482	1138.3718	1156.9252	1194.9972	1203.6325	1215.3314	1234.1746	1266.0438	1325.495	1339.4659	1404.805	1408.9881	1461.7901	1485.4926	1491.8928	1497.5019	1505.5592	1711.4644	3036.2988	3040.1443	3073.2912	3109.9281	3122.9907	3135.06	3138.9121	3143.8473	3209.318	3220.6368	3234.1803
CC1(CN=CO1)C1CC1	C[C@]1(CN=CO1)C1CC1	
InChI=1S/C7H11NO/c1-7(6-2-3-6)4-8-5-9-7/h5-6H,2-4H2,1H3	InChI=1S/C7H11NO/c1-7(6-2-3-6)4-8-5-9-7/h5-6H,2-4H2,1H3/t7-/m0/s1
