23
gdb 80477	2.0129	1.59071	1.45484	1.5196	84.66	-0.2523	0.0648	0.3171	1114.9814	0.206758	-388.290712	-388.281502	-388.280557	-388.32395	36.297	
C	-0.0798460518	 1.6082238283	-0.0988933989	-0.440957
C	 0.0599061917	 0.1026403453	-0.0121335548	 0.007203
C	 1.3291134506	-0.6838426991	-0.2606554813	-0.069714
C	 2.6901861171	-0.0068861311	-0.1269475569	-0.252608
C	 2.8012716311	 0.5489653063	 1.3219157119	 0.073142
O	 2.6795911582	 1.9693164694	 1.3970395582	-0.407833
C	 1.652838375	-0.1228543336	 2.1310139118	 0.013124
C	 1.0291911615	 0.7563689606	 3.220135714	-0.390362
C	 0.6794631466	-0.7091386832	 1.1083502787	-0.073497
H	 0.7862192685	 2.1355320638	 0.3006844256	 0.149578
H	-0.2149939895	 1.9131982906	-1.1438368468	 0.10205
H	-0.9654190609	 1.9434178943	 0.4534228024	 0.108449
H	-0.810697388	-0.4065356739	-0.4236319426	 0.077061
H	 1.2719380253	-1.5393338436	-0.9261681313	 0.073558
H	 3.47563674	-0.7509027004	-0.3017959581	 0.097295
H	 2.8513257237	 0.7978239467	-0.8551109157	 0.091568
H	 3.7697550354	 0.2697405586	 1.7602874223	 0.068205
H	 3.402168481	 2.3508268811	 0.8894471105	 0.282106
H	 2.1063469473	-0.9902627892	 2.6297074441	 0.073059
H	 0.555312544	 1.6440769819	 2.7980820116	 0.133328
H	 0.2689192771	 0.1902778181	 3.7682063357	 0.102519
H	 1.7834041526	 1.0923503184	 3.938476271	 0.110195
H	 0.1218348733	-1.5809804394	 1.4381031888	 0.072531
102.0147	145.4812	208.6952	226.7936	233.5472	279.1344	287.039	299.8816	405.3762	440.854	510.4036	549.52	635.2242	722.9466	728.6617	766.5427	788.3838	882.1633	904.7403	941.8273	963.533	1004.4591	1023.0554	1042.1482	1059.1379	1095.8867	1103.3888	1115.0626	1137.7839	1147.2589	1173.8206	1220.3494	1236.1431	1259.6761	1291.5724	1329.6686	1341.8036	1346.3235	1371.9109	1378.9785	1409.2631	1426.787	1431.0924	1446.6804	1480.1979	1493.5667	1498.9246	1510.2562	1520.7736	2982.9766	3008.949	3023.501	3026.8673	3042.0268	3063.5183	3073.8928	3101.8377	3104.5886	3137.4447	3139.9484	3151.3534	3155.4998	3825.0293
CC1C2CC(O)C(C)C12	C[C@H]1[C@H]2C[C@@H](O)[C@@H](C)[C@@H]12	
InChI=1S/C8H14O/c1-4-6-3-7(9)5(2)8(4)6/h4-9H,3H2,1-2H3	InChI=1S/C8H14O/c1-4-6-3-7(9)5(2)8(4)6/h4-9H,3H2,1-2H3/t4-,5+,6+,7+,8+/m0/s1
