16
gdb 44438	3.13919	1.85254	1.63927	3.4395	68.45	-0.2377	0.0212	0.259	861.7638	0.127778	-437.885282	-437.879141	-437.878197	-437.915646	25.531	
N	-0.0645891926	 1.2752999489	-0.2631295082	-0.547691
C	-0.0201431839	 0.0460301129	 0.0218323069	 0.45051
O	 1.1387820522	-0.6220282254	 0.31678735	-0.251182
C	 0.997101125	-1.9953729884	 0.6230313259	 0.060598
C	-0.0141700295	-2.8442669077	-0.1247921454	-0.157928
C	-1.0190926832	-2.0216273896	-0.9127529612	-0.243063
C	-1.2338510258	-0.8479692993	 0.0684373441	-0.044563
O	-1.259211955	-1.4636581709	 1.3698761484	-0.252237
C	-0.2544273657	-2.4445782355	 1.322100167	 0.062539
H	 0.8720625227	 1.6845242091	-0.2366307866	 0.221585
H	 1.958678758	-2.416994981	 0.8864296456	 0.118431
H	 0.2406943585	-3.8524959793	-0.426378118	 0.101853
H	-0.6527225788	-1.675162858	-1.8825434336	 0.128495
H	-1.9468323532	-2.5813463993	-1.0625141479	 0.119319
H	-2.1444238112	-0.2696687156	-0.0676132286	 0.118316
H	-0.2606784775	-3.1068513107	 2.1780875915	 0.115019
140.3521	290.1347	366.9361	413.0484	508.6809	537.9331	653.9159	690.9304	753.5639	762.5874	785.8314	801.9389	861.1742	895.2306	930.75	943.5586	963.1122	994.3778	1048.3222	1053.0348	1076.0296	1083.288	1101.5846	1118.7123	1177.1648	1201.2915	1241.4894	1283.7266	1287.4735	1324.6725	1345.3293	1376.6012	1425.8843	1488.8379	1773.4744	3060.7671	3111.551	3160.6399	3189.7089	3196.1034	3207.1713	3461.1578
N=C1OC2C3CC1OC23	[NH][C]1O[C@@H]2[C@@H]3C[C@H]1O[C@H]23	
InChI=1S/C6H7NO2/c7-6-3-1-2-4(8-3)5(2)9-6/h2-5,7H,1H2	InChI=1S/C6H7NO2/c7-6-3-1-2-4(8-3)5(2)9-6/h2-5,7H,1H2/t2-,3-,4+,5-/m1/s1
