20
gdb 114646	3.55915	1.11736	1.08726	3.2847	79.72	-0.2105	-0.0072	0.2033	1221.7901	0.171592	-403.130826	-403.12259	-403.121646	-403.163712	31.908	
C	 0.2338846791	 1.5585376311	 0.1047503565	-0.380555
C	-0.0562763441	 0.0629590697	-0.0135315634	-0.123337
N	 0.4970901532	-0.49063371	-1.2436211458	-0.071039
C	-0.2083070211	-0.0871985117	-2.5004389918	-0.178412
C	-0.4173386787	-1.4659621063	-3.167183899	-0.166237
C	-0.9431585814	-2.3005265074	-1.9474849485	-0.261965
C	 0.4678557801	-1.9620584926	-1.3494351191	-0.12518
C	 0.9304995365	-2.1297207601	-2.8152032872	 0.461644
O	 1.8136592893	-2.6753354326	-3.4016023774	-0.321369
H	 1.3109029817	 1.7424673391	 0.0594556137	 0.128231
H	-0.239711333	 2.1244941876	-0.7041087712	 0.1184
H	-0.151594178	 1.9492652381	 1.0514027084	 0.113755
H	 0.4144199717	-0.4648615217	 0.8239672991	 0.103049
H	-1.1464327069	-0.1077702011	 0.0778901548	 0.074749
H	-1.1692235413	 0.4019764521	-2.29052184	 0.100139
H	 0.3998370488	 0.591778452	-3.1066193064	 0.117079
H	-0.8611332338	-1.4981872768	-4.1596853634	 0.088898
H	-1.8092090916	-1.8936559232	-1.4221632325	 0.112306
H	-1.0839442566	-3.3593627745	-2.1723136179	 0.1205
H	 0.9191771562	-2.4851985916	-0.509690679	 0.089344
88.0768	122.4035	177.8729	216.2616	263.7545	349.3276	417.6302	434.5109	501.6001	603.1378	645.1865	763.5718	777.0249	804.7033	816.8568	846.1231	926.7547	958.6806	978.0653	985.2171	1014.0501	1022.8859	1074.6919	1083.3952	1112.6611	1120.1703	1137.4485	1175.2738	1197.4868	1219.3937	1241.4808	1251.9425	1285.785	1316.8546	1353.0542	1395.4418	1413.7272	1482.1426	1489.4283	1491.7504	1509.7933	1520.7787	1913.9496	2909.7182	3004.1272	3039.7208	3051.2125	3065.811	3075.2606	3107.1006	3120.7567	3140.8259	3150.3702	3154.8854
CCN1CC2CC1C2=O	CCN1C[C@@H]2C[C@H]1C2=O	
InChI=1S/C7H11NO/c1-2-8-4-5-3-6(8)7(5)9/h5-6H,2-4H2,1H3	InChI=1S/C7H11NO/c1-2-8-4-5-3-6(8)7(5)9/h5-6H,2-4H2,1H3/t5-,6-/m0/s1
