19
gdb 119319	2.38838	1.16397	0.91334	3.7234	72.62	-0.2511	-0.03	0.2211	1332.2515	0.156652	-460.129411	-460.119545	-460.118601	-460.165713	33.484	
C	-0.3709525691	 1.4183678913	-0.1697248552	-0.228711
O	-0.2719804131	 0.0115338215	-0.1445881567	-0.24054
C	 0.6868835357	-0.49492856	-1.0464517899	-0.147127
C	 0.7009824761	-2.0133320544	-0.9149645211	 0.161517
C	-0.6141225197	-2.692544428	-1.4077850686	-0.101362
O	 0.0687952351	-3.3048452573	-2.5133182148	-0.268679
C	 1.3450861655	-2.7835879065	-2.0839822967	-0.134819
C	 1.1237086075	-2.4485343968	 0.4727725288	 0.095679
O	 1.8799936751	-3.3599968994	 0.6988935337	-0.251776
H	 0.5792771336	 1.8974598065	 0.1113636644	 0.111543
H	-0.6614416141	 1.7856176942	-1.165886982	 0.111429
H	-1.1395345086	 1.7033636568	 0.5519590109	 0.134952
H	 0.4320995333	-0.2175398781	-2.0832046303	 0.101768
H	 1.6857856406	-0.0757508031	-0.8324822164	 0.098791
H	-1.046891283	-3.434272652	-0.7249189503	 0.111821
H	-1.3961767755	-1.9926936508	-1.7232052665	 0.113899
H	 1.820132597	-2.1673822333	-2.857037412	 0.09966
H	 2.0303716207	-3.5735130085	-1.7618589275	 0.130121
H	 0.661749123	-1.8629834922	 1.2942762902	 0.101832
49.9079	60.2298	90.9463	97.6335	152.5433	225.412	267.389	288.5241	332.6556	375.8606	401.7204	642.3576	708.0659	855.222	892.1892	945.7288	959.3558	976.4447	1004.9116	1033.3854	1044.8144	1130.0193	1152.0442	1159.1262	1165.8122	1182.4671	1215.5638	1233.479	1254.8918	1306.1695	1311.0102	1371.1205	1413.7636	1419.6959	1481.5183	1486.3767	1502.5529	1509.8782	1526.2724	1535.0468	1820.3124	2925.6638	2947.3245	2979.3586	2980.7127	3014.9411	3026.3873	3027.335	3067.3518	3088.1478	3122.529
COCC1(COC1)C=O	COCC1(COC1)C=O	
InChI=1S/C6H10O3/c1-8-3-6(2-7)4-9-5-6/h2H,3-5H2,1H3	InChI=1S/C6H10O3/c1-8-3-6(2-7)4-9-5-6/h2H,3-5H2,1H3
