17
gdb 9066	5.9583	0.86832	0.80263	3.1661	72.91	-0.2459	0.0236	0.2695	1382.4308	0.140138	-363.853179	-363.843899	-363.842955	-363.887982	32.011	
C	-0.1241351103	 1.4189340636	 0.0386479319	-0.352606
N	 0.0017608503	-0.027170488	-0.0365674953	-0.027026
C	-0.0129035709	-0.8021664929	 1.1867989628	-0.17835
C	-1.4228690794	-0.934028538	 1.8137099335	-0.350755
C	-1.3949961573	-1.7075572545	 3.0469641381	 0.294823
C	-1.3272555709	-2.3526300268	 4.0587097422	-0.434297
C	 0.1531194157	-0.629754183	-1.2534781635	 0.14975
O	 0.1699737666	-0.0635184761	-2.3252380614	-0.338189
H	 0.6505214233	 1.8378546419	 0.6916801686	 0.126895
H	-0.0052545384	 1.812976223	-0.9706773138	 0.172101
H	-1.1039625676	 1.7218627144	 0.4251114567	 0.127972
H	 0.3726330956	-1.8025980968	 0.9699815756	 0.132516
H	 0.6651075256	-0.3470922896	 1.9186021365	 0.12354
H	-1.8341932837	 0.0629207095	 2.0119607467	 0.138266
H	-2.091753203	-1.40647311	 1.0840382486	 0.140693
H	-1.2867958962	-2.920718673	 4.9549518478	 0.201054
H	 0.2671514506	-1.7271553838	-1.1517231952	 0.073613
59.8072	63.839	101.6248	134.5398	188.1612	310.9827	332.0167	339.8842	380.754	412.8491	472.7387	629.2466	653.8646	714.2252	770.0706	880.488	974.0724	1014.2863	1029.422	1054.0567	1091.7417	1156.8594	1197.8324	1279.5425	1299.1977	1313.0008	1395.9728	1429.9065	1439.1999	1442.8898	1473.9949	1490.0031	1499.1803	1519.9349	1798.1133	2240.5621	2936.1696	3023.2902	3029.7563	3039.1675	3063.7128	3075.612	3097.8522	3156.8728	3506.3837
CN(CCC#C)C=O	CN(CCC#C)C=O	
InChI=1S/C6H9NO/c1-3-4-5-7(2)6-8/h1,6H,4-5H2,2H3	InChI=1S/C6H9NO/c1-3-4-5-7(2)6-8/h1,6H,4-5H2,2H3
