19
gdb 75473	2.4637	1.54151	1.14494	1.6196	77.37	-0.2301	0.0219	0.252	1130.7655	0.158675	-423.008318	-422.99971	-422.998765	-423.042085	31.663	
C	 0.0133940503	 1.5053482905	-0.0404656887	-0.502541
C	 0.034384568	 0.0126641852	 0.0254504079	 0.334646
C	 0.2207742233	-0.8663067396	-0.9541099177	-0.208012
C	 0.1653736269	-2.2666076113	-0.4211201083	-0.113691
O	-0.1661732063	-2.1204144206	 0.9607975854	-0.27557
C	-0.1505880442	-0.7465022035	 1.3261374184	-0.015868
C	 0.9525385592	-0.4632932672	 2.3377678608	 0.069855
C	 1.5938469287	-1.5373038814	 3.1015859499	-0.171257
O	 2.256778524	-0.9184826362	 1.9918363209	-0.238634
H	 0.8184868759	 1.9439290055	 0.5614893784	 0.138608
H	 0.1323787153	 1.8588229842	-1.06760989	 0.130017
H	-0.9292634302	 1.9079459185	 0.3514481622	 0.127327
H	 0.4014153037	-0.6360459146	-1.9969664232	 0.100182
H	-0.6040285957	-2.8823105588	-0.9102025651	 0.103821
H	 1.1262189563	-2.7933460021	-0.5259519152	 0.112988
H	-1.1103222923	-0.4916509095	 1.8090511384	 0.080619
H	 0.9184602541	 0.5370447926	 2.7755344818	 0.087693
H	 2.0220105417	-1.3214371441	 4.0795260606	 0.10858
H	 1.2716891514	-2.5601852673	 2.9288672335	 0.131238
63.0739	92.3025	168.1882	183.5242	244.8716	254.544	301.3913	404.8719	510.4575	573.5113	668.4809	775.0589	781.1563	820.8064	903.3174	910.5057	932.0368	952.6567	989.3809	1022.1798	1046.0675	1052.4692	1072.5606	1099.8894	1132.8726	1165.5894	1169.4558	1196.6032	1207.4231	1278.8917	1286.1643	1334.6639	1353.3569	1381.2261	1418.3986	1424.2077	1481.9196	1490.4946	1513.4353	1521.1727	1738.6098	2948.8591	2983.8698	3005.7705	3021.5599	3069.0878	3082.6446	3095.754	3117.2065	3197.417	3210.4468
CC1=CCOC1C1CO1	CC1=CCO[C@H]1[C@H]1CO1	
InChI=1S/C7H10O2/c1-5-2-3-8-7(5)6-4-9-6/h2,6-7H,3-4H2,1H3	InChI=1S/C7H10O2/c1-5-2-3-8-7(5)6-4-9-6/h2,6-7H,3-4H2,1H3/t6-,7-/m1/s1
