19
gdb 104258	2.23306	1.30137	1.08996	3.427	76.08	-0.2543	0.0123	0.2666	1211.1091	0.158568	-419.198912	-419.18948	-419.188536	-419.232984	34.932	
C	 0.1653810897	 1.6067085216	 0.1691700104	-0.392144
C	 0.1925858354	 0.0795705469	 0.0536913559	-0.243818
C	 0.6946292214	-0.4170063996	-1.2999523849	 0.383438
O	-0.0552526672	 0.073963438	-2.3787712332	-0.467123
C	 2.2183011477	-0.2634864193	-1.5326184902	-0.207434
N	 2.4097568943	-1.6592002302	-1.0690065408	-0.310411
C	 0.9927741865	-1.9722378465	-1.3437185713	-0.188836
C	 0.3354932392	-2.8627979104	-0.3909424567	 0.293651
N	-0.2197576763	-3.5486765673	 0.3562999455	-0.335058
H	 1.1689951622	 2.0331155342	 0.0727356804	 0.124083
H	-0.4582580189	 2.0545537354	-0.6095811536	 0.119921
H	-0.2324288284	 1.9110101946	 1.1411009278	 0.122139
H	 0.8259789786	-0.3524497017	 0.8355033567	 0.133146
H	-0.8134868663	-0.3301229065	 0.221681771	 0.108348
H	-0.9878770511	 0.066429444	-2.1351070425	 0.28651
H	 2.4212074967	-0.0993411318	-2.5982795708	 0.111561
H	 2.7504932204	 0.4849169775	-0.9387673943	 0.113532
H	 3.0775116692	-2.2136307524	-1.5928238034	 0.232878
H	 0.7883923869	-2.3289003063	-2.3623757359	 0.115617
99.8449	115.9312	126.6745	190.7424	218.9958	255.5287	309.9283	327.9446	363.0127	405.5257	454.6186	548.1093	590.5076	642.1981	707.2089	794.504	871.6241	907.4062	962.1014	988.4972	1004.2061	1023.7943	1048.6283	1077.1263	1121.4949	1130.9244	1134.8968	1187.5493	1251.4668	1289.5969	1320.6018	1351.1904	1372.6358	1387.3874	1413.0426	1416.0833	1482.554	1498.7718	1507.9323	1516.4251	2350.0934	3013.9148	3016.2034	3026.2324	3044.4726	3077.536	3088.3097	3111.8675	3120.0834	3538.4402	3798.8759
CCC1(O)CNC1C#N	CC[C@@]1(O)CN[C@H]1C#N	
InChI=1S/C6H10N2O/c1-2-6(9)4-8-5(6)3-7/h5,8-9H,2,4H2,1H3	InChI=1S/C6H10N2O/c1-2-6(9)4-8-5(6)3-7/h5,8-9H,2,4H2,1H3/t5-,6+/m0/s1
