19
gdb 119504	5.0385	0.95965	0.90939	3.5804	76.36	-0.1962	0.0694	0.2656	1336.2641	0.158623	-419.075733	-419.06725	-419.066305	-419.109208	31.982	
C	-0.9480323275	 1.5068852413	-0.1470198737	-0.222805
O	-1.3375510488	 0.1733698377	 0.0866592629	-0.239895
C	-0.289717583	-0.7531661778	-0.1057111324	-0.203608
C	-0.8328685164	-2.1302446624	 0.1041879575	 0.352833
N	-2.1519841153	-2.552070668	-0.4080739073	-0.358631
C	-1.8494660859	-2.6403776588	 1.0468548805	-0.112751
C	-0.9777531308	-3.9121458456	 1.3060169175	-0.057723
N	-0.7507310037	-4.6111910806	 0.0175757512	-0.304331
C	 0.0433731027	-3.4075751329	 0.3616601074	-0.137398
H	-1.8256850498	 2.1361709156	 0.0176742494	 0.131031
H	-0.1485830251	 1.8234392398	 0.5407737599	 0.107449
H	-0.5924406502	 1.6525661583	-1.1786816521	 0.109937
H	 0.1271547764	-0.6555429182	-1.1245352243	 0.097163
H	 0.5369530699	-0.5585438952	 0.6004314297	 0.092328
H	-2.6745329149	-1.6806894792	-0.5179343107	 0.236865
H	-2.4384218281	-2.1117762255	 1.7840756567	 0.100347
H	-0.8617906444	-4.4147080849	 2.2571907777	 0.093108
H	-0.1546114391	-5.4119178379	 0.2326596203	 0.226843
H	 1.1243906542	-3.4286596459	 0.4169267796	 0.089237
73.7153	95.176	137.025	221.8977	251.2683	324.4833	354.2533	421.5144	459.2172	625.2459	696.0985	738.7722	795.4593	827.7893	835.1053	885.9125	894.2327	918.1106	947.9852	973.2498	1010.9105	1027.3863	1067.4158	1099.8584	1109.6531	1152.3483	1161.836	1184.7393	1216.8518	1238.6009	1240.6196	1254.9777	1306.4637	1319.2788	1362.2681	1415.3659	1456.7645	1481.5693	1486.1043	1502.3097	1525.7541	2936.8997	2960.6211	2976.6084	3022.5247	3118.4768	3188.4154	3201.2143	3211.1961	3455.9352	3458.1547
COCC12NC1C1NC21	COC[C@]12N[C@H]1[C@H]1N[C@@H]21	
InChI=1S/C6H10N2O/c1-9-2-6-4-3(7-4)5(6)8-6/h3-5,7-8H,2H2,1H3	InChI=1S/C6H10N2O/c1-9-2-6-4-3(7-4)5(6)8-6/h3-5,7-8H,2H2,1H3/t3-,4+,5-,6+/m0/s1
