16
gdb 17807	4.49521	1.71636	1.53973	3.2407	65.67	-0.2312	0.0434	0.2746	855.821	0.132104	-379.88696	-379.88007	-379.879126	-379.918119	26.814	
N	-0.1340448625	 1.3100146586	 0.2126446032	-0.543264
C	-0.0622418127	-0.065731583	 0.0885646706	 0.394466
O	 0.8756987281	-0.7249588669	 0.4919597903	-0.383704
N	-1.1596347303	-0.6150407797	-0.5898218812	-0.143483
C	-2.5911639942	-0.471507189	-0.0784757065	-0.028029
C	-2.9259377828	-1.6871949069	-0.9808626504	-0.218518
C	-1.6035903407	-2.0157130675	-0.2341293517	 0.001206
C	-2.2613076922	-1.4685113717	 1.0684606461	-0.223329
H	 0.7474323101	 1.7453513203	 0.4381387517	 0.259358
H	-0.6970249015	 1.8075973471	-0.4595981781	 0.254407
H	-3.0874326614	 0.4976930682	-0.0284076952	 0.088026
H	-3.8022114684	-2.2734629225	-0.7019840474	 0.101894
H	-2.8414168693	-1.5230347799	-2.0552765848	 0.108986
H	-0.9353599533	-2.8645743877	-0.3580093305	 0.10815
H	-1.5759663368	-1.1192797389	 1.8413010033	 0.128639
H	-3.0959970119	-2.0379186405	 1.4857651006	 0.095195
84.9234	175.6276	190.2687	409.6794	455.9985	513.6006	526.4744	554.063	646.0504	718.3279	785.7258	798.0408	818.9554	898.176	901.145	922.1688	1001.0358	1007.2317	1054.5562	1068.192	1104.141	1123.3662	1126.3586	1170.3259	1185.5103	1193.5815	1224.416	1257.8892	1273.8811	1378.5483	1483.9474	1524.0521	1616.6296	1793.6469	3063.2943	3083.2452	3117.7386	3144.7922	3153.7775	3160.8995	3579.1738	3697.5613
NC(=O)N1C2CC1C2	NC(=O)N1[C@H]2C[C@@H]1C2	
InChI=1S/C5H8N2O/c6-5(8)7-3-1-4(7)2-3/h3-4H,1-2H2,(H2,6,8)	InChI=1S/C5H8N2O/c6-5(8)7-3-1-4(7)2-3/h3-4H,1-2H2,(H2,6,8)/t3-,4+
