23
gdb 99864	2.00886	1.37277	1.01968	4.1389	85.65	-0.2579	0.0299	0.2877	1318.3273	0.203818	-384.489692	-384.47841	-384.477466	-384.525511	41.443	
C	 0.0788101202	 1.5893502784	 0.1802424099	-0.408455
C	-0.0060163784	 0.071504176	 0.0007869048	-0.207671
C	 0.6337907557	-0.4686459653	-1.3144301353	 0.080723
N	 0.024061864	 0.074889931	-2.5429355906	-0.528865
C	 2.0522340905	-0.0525621607	-1.3115556465	 0.312776
N	 3.1552568114	 0.2899788224	-1.268872452	-0.360792
C	 0.5858047628	-2.0362693518	-1.3611776815	 0.044622
C	-0.8527146724	-2.5688594114	-1.4490503712	-0.425062
C	 1.4269917131	-2.6032660437	-2.5129816257	-0.410357
H	 1.1175034072	 1.9313412117	 0.2095134188	 0.147238
H	-0.4309138786	 2.1200365342	-0.6305710134	 0.108397
H	-0.4000172914	 1.8878197904	 1.1170900655	 0.121965
H	 0.471308011	-0.4277645762	 0.8520876351	 0.113085
H	-1.0569798604	-0.2364454201	 0.0045165649	 0.101981
H	-0.9869330704	 0.0114827812	-2.4668109561	 0.234423
H	 0.247782847	 1.0595992547	-2.6425723694	 0.244137
H	 1.0190115457	-2.3792918476	-0.4130927093	 0.085319
H	-1.3302644092	-2.2663000415	-2.3869333091	 0.125
H	-0.8369716397	-3.6626513241	-1.4357476303	 0.123737
H	-1.4829541624	-2.2443908506	-0.6168520937	 0.115833
H	 2.4796323349	-2.3238974024	-2.4210077782	 0.137848
H	 1.3681575274	-3.6959567099	-2.5187135712	 0.107745
H	 1.0598396418	-2.2310105046	-3.4730780857	 0.136375
64.9128	98.0271	157.3337	162.9472	194.7342	205.718	235.2811	239.9625	264.0757	304.8551	327.1475	351.2021	413.1647	432.5675	501.515	579.5928	610.4348	689.2476	790.2242	845.279	883.8336	926.3707	942.3653	965.685	973.5228	1021.0427	1053.0504	1092.6678	1110.0001	1155.6462	1195.5148	1214.2257	1283.2253	1317.4989	1347.4762	1363.6347	1380.7552	1399.7162	1414.371	1419.9359	1477.6409	1489.5296	1493.0489	1500.2958	1507.0269	1508.1672	1515.8999	1654.6055	2353.0211	3025.641	3035.2879	3039.7566	3040.8192	3046.2879	3075.9061	3105.5811	3107.9088	3114.019	3115.0724	3119.6444	3129.068	3499.0098	3583.6503
CCC(N)(C#N)C(C)C	CC[C@@](N)(C#N)C(C)C	
InChI=1S/C7H14N2/c1-4-7(9,5-8)6(2)3/h6H,4,9H2,1-3H3	InChI=1S/C7H14N2/c1-4-7(9,5-8)6(2)3/h6H,4,9H2,1-3H3/t7-/m1/s1
