21
gdb 70851	3.48348	1.55196	1.29943	0.0578	85.09	-0.2134	0.0868	0.3002	1062.2859	0.183323	-349.924377	-349.91663	-349.915686	-349.955799	32.338	
C	-0.0264982776	 1.4590680418	 0.1321648441	-0.495347
C	-0.0477700368	-0.043394416	 0.0198868094	 0.328157
C	-1.2747267691	-0.7887442848	-0.4762773805	-0.339279
C	-0.7704094221	-2.2190961085	-0.3931830533	 0.328157
C	-1.6361872293	-3.3874150421	-0.7880405519	-0.495347
C	 0.2105272096	-2.3452208039	 0.7628329511	-0.128235
C	 0.6908199345	-0.9006967592	 1.0367822512	-0.128148
C	 1.2064208775	-0.8016314461	-0.3882753825	-0.128233
C	 0.7267687139	-2.2464098242	-0.6620106257	-0.128146
H	 0.9391556577	 1.8148087426	 0.5065023126	 0.115284
H	-0.199305321	 1.9337707363	-0.8406253753	 0.115953
H	-0.8005550802	 1.8182205336	 0.8201894485	 0.115965
H	-2.1485126547	-0.6204794859	 0.1662541626	 0.090111
H	-1.5446260583	-0.5044942109	-1.501468681	 0.09011
H	-1.9435172396	-3.318723853	-1.8379751373	 0.115965
H	-1.1038251523	-4.3358968631	-0.6609953069	 0.115284
H	-2.5452323189	-3.43401386	-0.1773109356	 0.115953
H	 0.2345012202	-3.1814691129	 1.4490831205	 0.077944
H	 1.1198363063	-0.5191180326	 1.9539344091	 0.077956
H	 2.1039479164	-0.3299892826	-0.7661962847	 0.077944
H	 1.2199591739	-2.9928719486	-1.2706016245	 0.077956
209.6233	214.2124	222.6133	237.4487	295.1298	336.5288	419.3917	540.3316	541.6719	578.6793	722.5103	761.2433	778.6	793.8745	800.7187	862.1794	879.9038	908.71	924.011	945.2851	956.2315	976.6729	1006.6185	1017.1728	1035.3052	1074.9176	1091.4323	1129.6596	1143.3088	1166.2638	1203.3897	1212.2415	1220.1494	1258.9487	1314.1709	1327.1274	1371.9966	1416.5796	1419.437	1421.7242	1490.3062	1492.0232	1492.5128	1500.6849	1502.6193	3016.6281	3022.0142	3023.9375	3057.0739	3081.1275	3081.4041	3093.409	3093.6571	3185.6588	3196.3139	3197.052	3206.9574
CC12CC3(C)C4C1C2C34	C[C@]12C[C@]3(C)[C@@H]4[C@H]1[C@H]2[C@H]34	
InChI=1S/C9H12/c1-8-3-9(2)6-4(8)5(8)7(6)9/h4-7H,3H2,1-2H3	InChI=1S/C9H12/c1-8-3-9(2)6-4(8)5(8)7(6)9/h4-7H,3H2,1-2H3/t4-,5+,6-,7+,8+,9-
