17
gdb 85592	2.92814	1.39897	0.98452	0.8727	69.68	-0.2427	-0.0342	0.2085	1156.0268	0.136853	-455.205287	-455.196682	-455.195738	-455.239151	31.002	
C	 0.0094075776	 1.4521022388	-0.189198082	-0.334552
N	 0.0746302263	-0.000273314	-0.2173613505	-0.13233
C	-1.1869204144	-0.7065918092	-0.0674876738	-0.262253
C	-1.117226493	-2.1592339134	-0.5233658277	 0.391138
O	-2.1006908953	-2.7920935471	-0.8088851547	-0.292795
C	 0.2880110123	-2.7382036947	-0.5939215487	-0.27315
N	 1.191433311	-1.9814971418	 0.2552231263	-0.363047
C	 1.2595185147	-0.596750126	 0.1785444853	 0.443371
O	 2.2749238179	 0.0197370676	 0.4466390168	-0.411716
H	 1.0173195125	 1.8431303694	-0.3171217066	 0.168334
H	-0.6344881705	 1.8074322339	-1.000210517	 0.121814
H	-0.3909357235	 1.8270120742	 0.7635316853	 0.120726
H	-1.5413878185	-0.7075033828	 0.9785929826	 0.138367
H	-1.9588452471	-0.206497094	-0.6595960204	 0.144915
H	 0.250830905	-3.7820973983	-0.2730056308	 0.147426
H	 0.5864539093	-2.7319074398	-1.6565991585	 0.137938
H	 2.1063332758	-2.3801986329	 0.4067558643	 0.255816
53.8626	115.9108	137.2016	178.9333	226.2441	329.0558	377.1847	428.5482	443.0151	519.0073	576.589	610.7196	706.4139	772.6353	783.4475	809.505	907.071	1029.8665	1041.9111	1101.9514	1155.4129	1168.078	1222.6831	1247.6755	1261.9112	1294.9796	1295.5119	1358.4543	1425.7997	1442.7069	1449.5443	1474.782	1488.2219	1500.6708	1530.5183	1793.3566	1841.4506	2955.2163	2961.3729	3005.4914	3075.3089	3085.4096	3099.8705	3169.5167	3618.3796
CN1CC(=O)CNC1=O	CN1CC(=O)CNC1=O	
InChI=1S/C5H8N2O2/c1-7-3-4(8)2-6-5(7)9/h2-3H2,1H3,(H,6,9)	InChI=1S/C5H8N2O2/c1-7-3-4(8)2-6-5(7)9/h2-3H2,1H3,(H,6,9)
