19
gdb 46389	3.87085	0.91227	0.79035	1.1309	76.75	-0.2534	-0.0314	0.2219	1450.8038	0.157915	-423.006312	-422.997502	-422.996557	-423.040977	32.124	
O	-0.1929215536	 0.0564586941	-0.2680603474	-0.273559
C	-0.0573423539	 1.2119907558	-0.0062970895	 0.331961
C	-0.9326369426	 2.3358915261	 0.5615909206	-0.189857
O	 0.2040186916	 3.2211696566	 0.5255093757	-0.288093
C	 1.094572584	 2.2273435813	-0.0517265554	 0.019687
C	 2.3303582503	 1.9253596344	 0.7883015028	-0.231434
C	 3.3330507556	 3.0601445143	 0.7976831868	 0.025457
C	 3.1281064323	 4.2469487569	 1.7044862945	-0.241332
C	 4.2389194585	 3.2664523376	 1.9858600653	-0.282261
H	-1.7524200271	 2.6593854088	-0.0930967429	 0.132268
H	-1.3214610944	 2.1716464798	 1.5744976428	 0.133604
H	 1.3800149463	 2.5045560466	-1.0775550913	 0.104821
H	 2.0124123738	 1.6972177491	 1.8129437656	 0.100954
H	 2.7871732906	 1.0115665936	 0.3855343992	 0.118051
H	 3.7684001088	 3.2735927844	-0.1758328983	 0.083096
H	 3.3904816619	 5.2305712785	 1.3315047925	 0.111558
H	 2.2565901516	 4.2356196839	 2.3487872556	 0.121803
H	 4.1251152927	 2.5957598705	 2.8314665514	 0.110866
H	 5.2616254336	 3.5774108476	 1.803681592	 0.11241
56.8775	71.8579	112.6232	126.2879	219.7091	326.996	348.6624	408.0439	511.6908	547.2403	692.0484	768.5101	795.1068	817.5379	837.8655	862.6424	903.8652	955.5557	993.5161	1010.5811	1023.2583	1056.6175	1075.0512	1087.4186	1093.7485	1134.5961	1137.2613	1157.1979	1195.9374	1227.663	1236.6555	1262.7733	1287.3154	1329.0464	1361.858	1419.6901	1465.8121	1473.6249	1482.0474	1509.569	1921.4045	2999.1441	3016.6732	3021.8294	3061.9866	3065.5292	3130.4503	3132.6901	3142.8135	3210.7368	3229.0963
O=C1COC1CC1CC1	O=C1CO[C@H]1CC1CC1	
InChI=1S/C7H10O2/c8-6-4-9-7(6)3-5-1-2-5/h5,7H,1-4H2	InChI=1S/C7H10O2/c8-6-4-9-7(6)3-5-1-2-5/h5,7H,1-4H2/t7-/m0/s1
