18
gdb 11063	3.31728	2.35767	1.96453	1.4487	66.07	-0.2474	0.0831	0.3306	779.8597	0.155721	-384.962868	-384.956125	-384.955181	-384.993361	27.099	
C	-0.0457927265	 1.4627695155	 0.0789214863	-0.473326
C	 0.0159154651	-0.0366129774	-0.0417123301	 0.478729
C	 0.6785507299	-0.6542439832	-1.2972224444	-0.252625
C	 0.0560188066	-2.0817994088	-1.2774586123	-0.223196
C	-0.8064308513	-1.9917154538	-0.0000949614	 0.039328
C	 0.1189363767	-1.9250868908	 1.2293867316	-0.084549
O	 0.6634447966	-0.6037270673	 1.1110190409	-0.307041
O	-1.2730361311	-0.6351160604	-0.0372924555	-0.276648
H	 0.9654217469	 1.8761386953	 0.108886299	 0.13077
H	-0.5756390583	 1.8890385026	-0.7763469422	 0.126455
H	-0.5653850633	 1.7390556859	 0.9988423504	 0.135421
H	 0.4047299039	-0.1008940409	-2.1991245104	 0.10257
H	 1.7659349263	-0.6526391337	-1.203443062	 0.109451
H	-0.5749422898	-2.2576611347	-2.1513871996	 0.107276
H	 0.7993484632	-2.8812623446	-1.2271017331	 0.101997
H	-1.6451086033	-2.6827035972	 0.0731324801	 0.084193
H	-0.4348230521	-2.0151173617	 2.1715148161	 0.102973
H	 0.9184028905	-2.6746643549	 1.2084885366	 0.098221
165.5228	189.7329	280.3458	325.0024	368.8871	427.1982	582.0782	624.0081	651.4697	779.4825	831.5462	838.8533	855.9894	871.4191	904.0675	947.6102	956.2638	1000.3731	1018.1855	1041.8071	1062.4681	1126.5463	1177.8394	1187.3433	1189.0815	1220.1495	1247.3461	1292.2956	1319.584	1325.8849	1352.6984	1371.2664	1422.6841	1477.3054	1482.5262	1489.0515	1498.8288	1524.4786	3022.311	3056.7773	3062.6836	3065.7167	3073.2825	3108.5601	3127.5832	3134.1422	3134.6617	3140.5137
CC12CCC(CO1)O2	C[C@@]12CC[C@@H](CO1)O2	
InChI=1S/C6H10O2/c1-6-3-2-5(8-6)4-7-6/h5H,2-4H2,1H3	InChI=1S/C6H10O2/c1-6-3-2-5(8-6)4-7-6/h5H,2-4H2,1H3/t5-,6+/m0/s1
