21
gdb 114687	2.85651	1.24354	1.05928	2.6442	78.13	-0.2342	0.0789	0.3131	1230.0328	0.182567	-424.220091	-424.211206	-424.210261	-424.253664	34.372	
C	-0.1184373012	 1.5003614266	-0.0022387317	-0.461428
C	 0.1813870034	 0.0299547087	-0.0810755119	 0.446998
C	-0.7738086786	-1.025996486	 0.4200404388	-0.352725
C	 0.5939755254	-0.8486192844	 1.0627265853	-0.102411
C	 1.7261266291	-1.7306088151	 0.5601299305	-0.277651
C	 1.832256797	-1.4057412798	-0.9514716958	 0.090905
C	 1.4529347661	-2.5633069042	-1.8743951974	-0.061778
O	 1.410964054	-2.1488122718	-3.222108088	-0.424055
O	 0.9455661696	-0.3019323031	-1.2217470131	-0.32637
H	 0.8070448163	 2.0845330882	 0.021744789	 0.123386
H	-0.7013122964	 1.8237896298	-0.8710659486	 0.127259
H	-0.6979836228	 1.7265873461	 0.8970164489	 0.117482
H	-1.6345590585	-0.6953909371	 0.9925174208	 0.111665
H	-0.9530958212	-1.9005017436	-0.1958101505	 0.116027
H	 0.6454556979	-0.4678130892	 2.0764750056	 0.09057
H	 2.6564076546	-1.4813681334	 1.0780242617	 0.11079
H	 1.5380172459	-2.7978651151	 0.7243257504	 0.108174
H	 2.8400691618	-1.0709715179	-1.2260975634	 0.08795
H	 2.2065270797	-3.3559439502	-1.7990375256	 0.104403
H	 0.4892860325	-2.9938458081	-1.5527130399	 0.081957
H	 0.8981303553	-1.3306375703	-3.2218860551	 0.288853
67.8327	133.6935	152.63	206.1175	245.4974	321.9849	382.3566	400.6933	416.0838	476.2188	502.3177	605.4455	715.5967	722.5887	812.7436	826.0317	849.1042	903.3862	947.0132	961.5551	999.3151	1026.6494	1037.1224	1050.371	1081.9966	1098.5363	1110.8438	1127.5538	1131.3486	1208.8431	1232.4653	1249.154	1272.2875	1315.1858	1322.4945	1367.3155	1394.1422	1399.6508	1427.0124	1439.5183	1477.6461	1481.6963	1498.5348	1502.5016	1507.4656	2962.7508	3027.9184	3035.9853	3039.8707	3063.1406	3087.5274	3100.7056	3116.9606	3128.2177	3171.0209	3217.1769	3777.6612
CC12CC1CC(CO)O2	C[C@]12C[C@H]1C[C@@H](CO)O2	
InChI=1S/C7H12O2/c1-7-3-5(7)2-6(4-8)9-7/h5-6,8H,2-4H2,1H3	InChI=1S/C7H12O2/c1-7-3-5(7)2-6(4-8)9-7/h5-6,8H,2-4H2,1H3/t5-,6+,7+/m1/s1
