15
gdb 14313	5.51523	1.73093	1.43144	3.8214	71.32	-0.2383	-0.0316	0.2067	854.939	0.120989	-362.654558	-362.648378	-362.647433	-362.684746	24.47	
N	-0.0705066298	 1.2560842955	 0.2053815156	-0.543818
C	-0.03401893	 0.0142106869	-0.0286277385	 0.404722
O	 1.124590888	-0.688528904	-0.3641977578	-0.262092
C	 0.7591930519	-2.0324118705	-0.6172579521	 0.075504
C	 0.9291894228	-3.2330401266	 0.3893525492	-0.258251
C	-0.5912808862	-3.5816798055	 0.1377538139	-0.30875
C	-0.6920816095	-2.1402448794	-0.3035552383	 0.224549
C	-1.1497066335	-0.9510967137	 0.0909850989	-0.28744
H	 0.8603536289	 1.6661641407	 0.121364115	 0.22369
H	 1.0822844356	-2.3134837224	-1.6251109938	 0.103779
H	 1.6682521136	-3.9928015039	 0.1276124877	 0.114926
H	 1.0888912999	-2.873942541	 1.4069105403	 0.132617
H	-0.7088459355	-4.306414409	-0.6726409789	 0.12683
H	-1.1972787321	-3.8887295491	 0.9905491588	 0.128661
H	-2.079316934	-0.6848641678	 0.57184313	 0.125073
135.7341	229.2356	319.7016	362.8257	473.2065	610.5977	670.3501	706.835	720.9136	800.1634	824.3629	853.2405	867.1009	890.773	913.1247	948.7613	1005.5549	1035.4556	1075.3127	1108.5202	1119.0564	1166.2525	1209.1775	1223.5191	1244.5371	1278.7488	1312.159	1373.0468	1469.3648	1485.6977	1698.9379	1756.6002	3054.535	3068.8362	3076.1666	3132.3853	3151.2683	3250.2759	3485.5897
N=C1OC2CCC2=C1	[NH]C1=C[C]2[C@@H](O1)CC2	
InChI=1S/C6H7NO/c7-6-3-4-1-2-5(4)8-6/h3,5,7H,1-2H2	InChI=1S/C6H7NO/c7-6-3-4-1-2-5(4)8-6/h3,5,7H,1-2H2/t5-/m0/s1
