25
gdb 123016	5.01606	0.50081	0.48322	1.6734	91.13	-0.2563	0.0914	0.3476	2399.8251	0.226769	-389.488533	-389.477293	-389.476349	-389.526407	39.918	
C	 0.1155774059	 1.5437643704	 0.2245389066	-0.379222
C	 0.0013428512	 0.0178097512	 0.2765028069	-0.164353
C	-1.3770250804	-0.4986526366	-0.1506151817	-0.162063
C	-1.4988418342	-2.0244738206	-0.0970654896	-0.169512
C	-2.8798586023	-2.5389514695	-0.5291361327	-0.230956
C	-2.9676551598	-4.0446904502	-0.4663074501	 0.066884
O	-3.0733555763	-4.6446305258	 0.8332897912	-0.266526
C	-4.1609924819	-4.8188410429	-0.0826883686	 0.076467
C	-5.4955889472	-4.2287445075	 0.2963132945	-0.418734
H	 1.1080673984	 1.8824594621	 0.5380045468	 0.110601
H	-0.0593176153	 1.9196762902	-0.7898525807	 0.112065
H	-0.621192004	 2.0180638957	 0.8825215549	 0.112971
H	 0.7701109518	-0.4300837306	-0.3670096061	 0.093494
H	 0.2180690728	-0.3324498096	 1.2942969194	 0.09634
H	-2.1472311535	-0.0495067837	 0.4920866558	 0.091816
H	-1.5950586654	-0.1498866917	-1.1701879556	 0.088768
H	-0.7269698878	-2.4749986256	-0.7363395142	 0.090985
H	-1.296301522	-2.3772654957	 0.9219263244	 0.112754
H	-3.6502703756	-2.0906994974	 0.1058765539	 0.100781
H	-3.088704923	-2.2187793652	-1.5594866794	 0.095987
H	-2.2485172794	-4.554012289	-1.1144041877	 0.081322
H	-4.2252329218	-5.8332331121	-0.4845731896	 0.082926
H	-5.398191817	-3.2145291672	 0.6874970881	 0.128184
H	-6.1625857259	-4.2068419975	-0.5726328485	 0.120275
H	-5.9727817773	-4.8431915713	 1.0670847119	 0.128745
39.9684	52.4061	83.6508	115.474	138.0338	164.4359	200.7829	237.1809	246.541	349.7342	358.8336	429.3342	489.3467	542.7109	732.3446	747.0266	772.9796	820.6125	854.2751	901.7452	926.6979	972.2282	992.8261	1012.5654	1048.9387	1058.764	1068.6582	1088.0755	1137.7012	1150.8011	1177.3458	1193.0428	1233.7421	1258.5371	1295.1565	1304.9865	1328.1573	1330.5872	1333.3053	1378.2231	1398.981	1404.2072	1412.1031	1419.5231	1468.104	1471.8461	1483.7456	1489.6359	1491.1222	1499.605	1502.7152	1512.7358	1513.6941	3000.1473	3010.2186	3016.2198	3018.942	3026.447	3028.5154	3038.4084	3047.4071	3058.4354	3063.1542	3076.476	3089.7214	3094.831	3097.9484	3100.4569	3137.1427
CCCCCC1OC1C	CCCCC[C@H]1O[C@H]1C	
InChI=1S/C8H16O/c1-3-4-5-6-8-7(2)9-8/h7-8H,3-6H2,1-2H3	InChI=1S/C8H16O/c1-3-4-5-6-8-7(2)9-8/h7-8H,3-6H2,1-2H3/t7-,8+/m0/s1
