15
gdb 79230	2.80649	1.67317	1.35047	2.1311	71.19	-0.2459	0.0091	0.2549	958.0323	0.1115	-420.519504	-420.512244	-420.5113	-420.550968	29.142	
O	 0.055975287	 1.4127047478	 0.0042704217	-0.440361
C	-0.0284344846	 0.0267211682	 0.0157556456	 0.146131
C	-1.3878907125	-0.6716560182	-0.0769970468	-0.194967
C	-1.6659712483	-0.7375437541	-1.5799165695	 0.084566
O	-0.6058842017	-0.0478010695	-2.2587538564	-0.339682
C	 0.3110413173	-0.720872059	-1.3234632468	 0.299925
C	 1.639405598	-0.9343283536	-1.8022368955	 0.028894
C	 2.7681298503	-1.1263029843	-2.1683236074	-0.309328
C	-0.8023187914	-1.7752115258	-0.9599065264	-0.202828
H	-0.308199843	 1.6887133898	-0.8486117226	 0.289148
H	 0.5706225052	-0.3567139604	 0.8439071817	 0.107377
H	-2.1609498529	-0.7504575812	 0.675401056	 0.102775
H	-2.6428552555	-0.7752502463	-2.0408370674	 0.120849
H	 3.7645474305	-1.2904462927	-2.4979008184	 0.190377
H	-0.8165623085	-2.8534064508	-0.9108052977	 0.117123
128.3612	160.3562	228.0188	316.7605	447.0574	481.7546	512.4991	544.1394	600.588	626.1206	682.13	686.655	768.728	784.0855	789.2718	838.3301	904.199	938.9692	948.6471	962.8654	1005.38	1024.7772	1035.163	1067.1014	1145.8205	1169.1338	1184.9043	1264.6232	1299.4186	1318.0612	1363.0752	1440.7711	2242.5168	3108.6914	3211.869	3221.8352	3238.9624	3500.0898	3751.2861
OC1C2C3OC1(C#C)C23	O[C@H]1[C@H]2[C@H]3O[C@]1(C#C)[C@@H]23	
InChI=1S/C7H6O2/c1-2-7-4-3(6(7)8)5(4)9-7/h1,3-6,8H	InChI=1S/C7H6O2/c1-2-7-4-3(6(7)8)5(4)9-7/h1,3-6,8H/t3-,4+,5-,6+,7-/m1/s1
