23
gdb 101119	3.23022	1.00817	0.8857	1.9859	85.18	-0.2276	0.0724	0.3	1425.1231	0.204567	-388.251912	-388.242224	-388.24128	-388.286726	36.613	
C	-0.0110925157	 1.5343544383	 0.2003855689	-0.396104
C	 0.1253049949	 0.0141466885	 0.0718629347	-0.1604
C	 0.7184650049	-0.4727415552	-1.2688532634	-0.088442
C	 2.1493575057	 0.0350700204	-1.4958987463	-0.410304
C	 0.6127468166	-1.9773830749	-1.3596102394	 0.305536
C	 1.6150244438	-2.9835145666	-0.8149993804	-0.347388
C	 1.2259172033	-3.0258708593	-2.2619211124	 0.030513
O	-0.0056454459	-3.7306059958	-2.4327808594	-0.288683
C	-0.691720916	-2.7337167493	-1.628687901	-0.135413
H	 0.9612741673	 2.0360252311	 0.191102774	 0.118819
H	-0.6071420996	 1.9496180435	-0.6204207869	 0.113479
H	-0.507753539	 1.8026320116	 1.1380578585	 0.113361
H	 0.7441685457	-0.3751213266	 0.8911276995	 0.098277
H	-0.8650603328	-0.4415036963	 0.1996220489	 0.095508
H	 0.0917792743	-0.0602527392	-2.0749041061	 0.070689
H	 2.8109157518	-0.2447006496	-0.6686020118	 0.11741
H	 2.5711961313	-0.3728665705	-2.4201512339	 0.114983
H	 2.1708567365	 1.1247375052	-1.5789633018	 0.119352
H	 2.6024639427	-2.582793136	-0.6096986184	 0.11308
H	 1.2989014206	-3.788662281	-0.1563068981	 0.109951
H	 1.9072783603	-2.9798835883	-3.1043869522	 0.102121
H	-1.2180207584	-3.1768717225	-0.774542332	 0.101755
H	-1.3997732223	-2.1656147576	-2.244851681	 0.1019
49.5861	88.4276	137.0026	204.4684	240.0946	260.8159	269.9908	327.38	331.9148	430.2777	447.2552	479.0339	682.6761	756.477	778.0741	826.426	867.5349	890.2358	928.7745	967.3557	984.9973	989.1882	1000.6827	1008.4301	1036.1287	1057.2084	1069.4129	1081.3827	1132.9654	1137.1699	1156.3944	1179.6258	1219.3495	1270.4281	1291.5806	1309.1589	1333.8058	1366.6762	1380.8762	1406.7876	1409.3975	1414.5205	1482.2528	1484.0731	1496.4603	1503.8463	1505.7381	1510.9667	1514.5776	2978.9363	3012.3547	3016.3548	3031.6792	3035.225	3049.0529	3061.6567	3097.3113	3099.4028	3104.7805	3112.8411	3115.1859	3172.4231	3209.6026
CCC(C)C12CC1OC2	CC[C@@H](C)[C@]12C[C@H]1OC2	
InChI=1S/C8H14O/c1-3-6(2)8-4-7(8)9-5-8/h6-7H,3-5H2,1-2H3	InChI=1S/C8H14O/c1-3-6(2)8-4-7(8)9-5-8/h6-7H,3-5H2,1-2H3/t6-,7-,8-/m1/s1
