18
gdb 11999	3.28313	2.03646	1.79558	1.8054	71.64	-0.2447	0.0021	0.2468	837.3811	0.153415	-347.797052	-347.789592	-347.788648	-347.828104	29.502	
C	-0.0411691855	 1.561226374	 0.0497568026	-0.421966
C	-0.0065987939	 0.0235544032	 0.0027583663	 0.21715
C	-1.4323738506	-0.555102614	-0.0229993295	-0.426759
C	 0.8078547275	-0.4864054039	-1.1808923067	-0.098231
C	 1.8119975096	-1.2900399086	-0.8235290116	-0.107078
C	 1.8751859252	-1.3925025804	 0.6649154423	-0.007102
O	 2.1232551378	-0.1164973074	 1.308275002	-0.264528
C	 0.7748791263	-0.5665093809	 1.1873148001	 0.016158
H	 0.9708991782	 1.9607578871	 0.1459005106	 0.138101
H	-0.4931675582	 1.9704413447	-0.8601707113	 0.109513
H	-0.63390583	 1.9107583091	 0.9020629189	 0.112206
H	-1.9719717856	-0.2238375334	-0.9163319634	 0.116512
H	-1.416277025	-1.6494564285	-0.0269118148	 0.119186
H	-2.000739739	-0.2227092589	 0.8534501664	 0.113718
H	 0.5779959914	-0.1785370387	-2.1962664702	 0.097594
H	 2.5161227615	-1.7723545465	-1.4902325579	 0.101973
H	 2.29289603	-2.2523765156	 1.1794312677	 0.096063
H	 0.2621371202	-0.7702315511	 2.1254288685	 0.087489
157.2171	219.0892	227.7805	255.1115	317.7	353.8262	406.3707	466.7767	592.952	606.592	748.7601	768.0101	825.5761	852.1853	864.2856	915.75	945.4286	951.4182	964.5507	987.6466	1023.9389	1039.9604	1108.1308	1119.072	1179.3702	1224.5295	1256.163	1261.8914	1300.6659	1373.9091	1391.1957	1399.8012	1424.1155	1484.6829	1487.9691	1500.4523	1511.3083	1660.4316	3025.7068	3032.4097	3092.7416	3096.4221	3105.2861	3127.3152	3129.8927	3164.7245	3177.6884	3214.5347
CC1(C)C=CC2OC12	CC1(C)C=C[C@H]2O[C@@H]12	
InChI=1S/C7H10O/c1-7(2)4-3-5-6(7)8-5/h3-6H,1-2H3	InChI=1S/C7H10O/c1-7(2)4-3-5-6(7)8-5/h3-6H,1-2H3/t5-,6-/m1/s1
