16
gdb 43528	2.67873	1.43326	1.05345	2.0142	78.25	-0.2427	0.0179	0.2606	1127.5366	0.123943	-396.852796	-396.8444	-396.843456	-396.885778	31.742	
N	-0.1438382474	 1.1245159523	-0.9234030816	-0.562974
C	-0.0312754323	 0.0830577514	-0.216111499	 0.32279
N	 0.9663157505	-0.5738994027	 0.5075579446	-0.34891
C	 0.1655283683	-1.8109933282	 0.7101533645	-0.242265
C	 0.0707153042	-2.290415203	 2.0772913488	 0.330265
C	-0.0254134502	-2.7070288386	 3.2004533848	-0.422314
C	-1.0191375984	-1.0011710385	 0.1129951394	 0.274435
C	-2.4292359578	-0.860302944	 0.5203002091	-0.292818
N	-2.062151855	-1.5170896428	-0.7479952669	-0.364814
H	 0.733463973	 1.6385381099	-1.0087561546	 0.215353
H	 1.958538546	-0.5507925502	 0.32000166	 0.245254
H	 0.4546758289	-2.6262867245	 0.0361569927	 0.120325
H	-0.1055574085	-3.068708297	 4.1958979693	 0.201888
H	-2.8309025275	-1.5267079727	 1.2778929486	 0.134655
H	-2.8538523305	 0.1393275421	 0.4935143097	 0.136307
H	-2.1841722233	-0.8745671436	-1.5298117193	 0.252824
88.6151	116.1886	210.3015	219.5765	230.6406	317.7601	399.5878	412.2702	509.2554	593.7604	624.9141	632.4964	665.621	699.2268	773.41	817.6288	855.5847	935.2187	940.7406	950.6137	993.456	1039.1289	1060.9046	1086.7249	1124.5497	1167.4923	1245.0983	1272.922	1311.7227	1337.6045	1367.5037	1432.8805	1509.8291	1802.2062	2239.8986	3035.5582	3114.5833	3208.2211	3476.3955	3480.7082	3501.3957	3602.5422
N=C1NC(C#C)C11CN1	[NH][C]1N[C@@H](C#C)[C@]21CN2	
InChI=1S/C6H7N3/c1-2-4-6(3-8-6)5(7)9-4/h1,4,8H,3H2,(H2,7,9)	InChI=1S/C6H7N3/c1-2-4-6(3-8-6)5(7)9-4/h1,4,8H,3H2,(H2,7,9)/t4-,6-/m0/s1
