21
gdb 121758	6.30347	0.56548	0.52747	2.6101	78.19	-0.2596	0.0193	0.2789	2152.7517	0.178884	-461.392086	-461.380918	-461.379973	-461.430401	37.39	
C	 0.0535807836	 1.4149595595	 0.0078281462	-0.385213
C	-0.0237411027	-0.1016331693	 0.001171576	-0.024566
O	-1.3875550146	-0.4785833236	 0.0117014677	-0.223162
C	-1.5718640541	-1.8607024226	 0.0069165346	-0.173123
C	-3.0601248234	-2.1742059954	 0.0193218514	 0.411401
O	-3.9552131649	-1.3748333702	 0.033125174	-0.335977
O	-3.2261191145	-3.5127003007	 0.0129007492	-0.248228
C	-4.5921380135	-3.9743100306	 0.0239865567	-0.04076
C	-4.5657817382	-5.4903138077	 0.0154548548	-0.391349
H	 1.097353225	 1.7427074277	 0.0000160229	 0.114128
H	-0.4487517036	 1.8273027433	-0.8714978323	 0.131648
H	-0.4327999565	 1.8186917554	 0.9000224341	 0.13166
H	 0.4768687779	-0.5134169325	-0.8918511144	 0.086869
H	 0.4929126608	-0.5220073718	 0.8809582878	 0.086867
H	-1.1260502167	-2.3384315906	-0.8825139449	 0.115
H	-1.1097920207	-2.3466229371	 0.8835538891	 0.11501
H	-5.0922665324	-3.5771577854	 0.9129589775	 0.123381
H	-5.10979852	-3.567566632	-0.8505002002	 0.123366
H	-5.5883554874	-5.8791902017	 0.0234627356	 0.124045
H	-4.0607892005	-5.8677122107	-0.8782439981	 0.129505
H	-4.0432250037	-5.8773823739	 0.8948055424	 0.129499
34.3385	57.2718	64.9973	90.4548	120.937	143.7559	195.3315	242.8825	259.1475	314.6954	327.1921	389.7153	506.0005	598.5183	725.346	806.8878	823.3068	874.6379	920.7095	950.5169	1039.0111	1044.3125	1069.0417	1135.0848	1152.905	1183.3198	1188.7405	1190.2754	1220.0612	1249.2806	1291.3231	1297.06	1382.851	1398.3693	1408.8855	1423.7869	1446.9231	1483.0169	1486.3379	1490.4458	1496.4834	1500.0501	1520.7907	1532.8204	1847.0613	2949.4656	2962.0161	2976.2717	2981.5137	3046.1557	3047.1015	3051.507	3089.0507	3120.5086	3121.4554	3125.5785	3125.6716
CCOCC(=O)OCC	CCOCC(=O)OCC	
InChI=1S/C6H12O3/c1-3-8-5-6(7)9-4-2/h3-5H2,1-2H3	InChI=1S/C6H12O3/c1-3-8-5-6(7)9-4-2/h3-5H2,1-2H3
