19
gdb 60980	3.37319	0.91622	0.86383	1.9599	73.47	-0.2688	-0.0409	0.2278	1414.9834	0.155057	-460.157868	-460.147848	-460.146904	-460.193216	36.071	
C	 0.2928559675	 1.5063755975	-0.3780467998	-0.457764
C	-0.0099050242	 0.0712855869	-0.0115098928	 0.401282
C	-1.1414734355	-0.5610914061	-0.7938488027	-0.452565
O	 1.1390547638	-0.7870467303	 0.1623781126	-0.3015
C	 0.3286501984	-0.5002301966	 1.3056653741	-0.02614
C	 0.9967455293	 0.2552356735	 2.4468620866	 0.007719
O	 0.0440189803	 0.6379144171	 3.3983697859	-0.430741
C	 2.0554423731	-0.6307535506	 3.0813088638	 0.13417
O	 2.021951151	-0.9007162058	 4.2581060494	-0.262773
H	 1.1699791791	 1.890844295	 0.1446393143	 0.129001
H	 0.4873744829	 1.5814084626	-1.4531903002	 0.128148
H	-0.5619105898	 2.1498878621	-0.1458256532	 0.132831
H	-0.9215147416	-0.5391611165	-1.8665875051	 0.127169
H	-1.2893573383	-1.601681046	-0.4957870227	 0.129516
H	-2.0759867696	-0.014198109	-0.6306473642	 0.127811
H	-0.2775400271	-1.3362041303	 1.6615593719	 0.09745
H	 1.5301232908	 1.1295572532	 2.0396272785	 0.096587
H	 0.344199567	 0.2470541968	 4.2355827691	 0.296951
H	 2.8459276929	-1.0103290139	 2.4072963945	 0.122849
48.7919	94.7254	130.0304	149.0917	204.013	221.8046	276.6208	332.0404	369.8418	387.9529	432.5224	443.6401	489.2802	525.3752	706.6628	772.869	806.0046	857.1832	931.4591	947.7063	997.7103	1001.8926	1069.7297	1119.7749	1134.4663	1148.0258	1158.714	1250.6446	1259.933	1297.5272	1348.7079	1382.499	1411.3627	1420.5782	1426.985	1460.7768	1472.3437	1486.0625	1499.9854	1517.2896	1809.7567	2966.3543	2984.044	3036.5741	3043.4123	3087.7509	3100.0763	3105.2826	3126.6694	3136.7296	3672.6909
CC1(C)OC1C(O)C=O	CC1(C)O[C@H]1[C@@H](O)C=O	
InChI=1S/C6H10O3/c1-6(2)5(9-6)4(8)3-7/h3-5,8H,1-2H3	InChI=1S/C6H10O3/c1-6(2)5(9-6)4(8)3-7/h3-5,8H,1-2H3/t4-,5-/m0/s1
