18
gdb 59381	4.34026	0.89273	0.84692	3.2503	72.78	-0.2778	-0.0031	0.2747	1384.3665	0.14668	-439.079951	-439.070797	-439.069853	-439.114557	33.194	
C	 0.2087545361	 1.5325802221	 0.135500397	-0.411304
C	 0.104393719	 0.006529916	 0.1534315796	 0.107607
O	 0.4541279711	-0.5305694292	 1.4214630691	-0.434753
C	-1.2896821451	-0.468141927	-0.2459295166	 0.13994
C	-1.5910872781	-1.9759873405	-0.1212402276	-0.316937
C	-2.6488254018	-1.5372174316	 0.9218468123	-0.005812
O	-2.2519010563	-0.1557653257	 0.8107065285	-0.31009
C	-4.0498926244	-1.7481443726	 0.5432003908	 0.278474
N	-5.1501952966	-1.9302935682	 0.2407701082	-0.31345
H	 1.1957230932	 1.8429939802	 0.4864929846	 0.130067
H	 0.0558500343	 1.9280528943	-0.8738940286	 0.119098
H	-0.5498932234	 1.9747707903	 0.7903524855	 0.132588
H	 0.8224155381	-0.4236190139	-0.556585203	 0.096304
H	-0.2000729836	-0.188299433	 2.0436456712	 0.287808
H	-1.6006337466	-0.016872428	-1.1955955067	 0.093063
H	-1.9809666884	-2.467860701	-1.0108883554	 0.13449
H	-0.7749887352	-2.5508783134	 0.3143759415	 0.141973
H	-2.4973967524	-1.9203592487	 1.9368915497	 0.130933
42.8026	98.7286	124.7285	195.0501	234.9162	259.2416	291.1665	362.2904	424.1552	482.4635	526.4797	556.8957	667.738	732.0661	780.7509	875.9364	917.3504	939.3913	1000.1934	1005.7915	1014.2862	1045.6764	1076.3213	1098.2435	1143.8184	1177.3955	1250.6943	1263.5361	1283.7733	1308.248	1338.2879	1359.3142	1390.6229	1406.583	1422.7132	1478.512	1493.7731	1499.2244	2356.9345	3033.9889	3038.5847	3043.5571	3050.9222	3104.866	3107.9723	3127.5053	3170.6595	3781.1082
CC(O)C1CC(O1)C#N	C[C@@H](O)[C@H]1C[C@@H](O1)C#N	
InChI=1S/C6H9NO2/c1-4(8)6-2-5(3-7)9-6/h4-6,8H,2H2,1H3	InChI=1S/C6H9NO2/c1-4(8)6-2-5(3-7)9-6/h4-6,8H,2H2,1H3/t4-,5-,6-/m1/s1
