18
gdb 13115	4.06765	1.25925	1.02645	2.1001	69.75	-0.2254	-0.0247	0.2007	1174.0279	0.151786	-384.940913	-384.93225	-384.931306	-384.974855	30.68	
C	 0.0012518117	 1.5159229085	-0.0513229073	-0.386353
C	 0.2882165123	 0.0277675217	 0.0344899985	-0.050861
O	 0.4243676871	-0.4754729727	-1.2927268945	-0.253522
C	 0.6713632982	-1.8441265406	-1.3510831051	 0.059517
C	 0.8115616201	-2.4489518859	-2.7752352502	-0.271992
C	 2.0507671975	-3.2751192946	-2.3155128399	-0.341371
C	 2.1073091023	-2.3655976768	-1.073926991	 0.367898
O	 2.9681735379	-2.0520779469	-0.3034076248	-0.295784
H	 0.8241317045	 2.0365183399	-0.5490370459	 0.130124
H	-0.9154572369	 1.6998537229	-0.6189050765	 0.124748
H	-0.1191220182	 1.9367625058	 0.9512660818	 0.11718
H	 1.2072035111	-0.1648378957	 0.6025664849	 0.1229
H	-0.5354971584	-0.4999539363	 0.5440626692	 0.08553
H	-0.0524684845	-2.4168406174	-0.7429287038	 0.08259
H	-0.0467002295	-3.0050403158	-3.1517499277	 0.112191
H	 1.0829188753	-1.6667003966	-3.4868476994	 0.129716
H	 1.8131160007	-4.3104892368	-2.0512190364	 0.132916
H	 2.9383232789	-3.2720544126	-2.9512942118	 0.134571
66.8048	81.9694	100.6495	181.862	216.1663	253.7822	364.2067	388.7327	461.2264	573.9312	683.8245	732.0683	766.3474	824.1589	897.6669	918.8664	940.9228	1009.8762	1063.898	1066.5959	1087.4261	1153.8754	1180.7327	1187.4325	1195.9235	1228.1418	1251.5902	1261.1069	1299.639	1356.8674	1402.9124	1437.0578	1446.3165	1483.3954	1487.2398	1500.7407	1528.674	1885.1821	2938.6362	2966.4319	3043.6908	3045.8646	3062.6681	3086.5475	3120.6675	3122.2763	3123.0611	3148.4958
CCOC1CCC1=O	CCO[C@H]1CCC1=O	
InChI=1S/C6H10O2/c1-2-8-6-4-3-5(6)7/h6H,2-4H2,1H3	InChI=1S/C6H10O2/c1-2-8-6-4-3-5(6)7/h6H,2-4H2,1H3/t6-/m0/s1
