15
gdb 45983	2.74764	1.53423	1.13404	3.1291	68.8	-0.2565	-0.0706	0.1859	1046.2124	0.112677	-457.804928	-457.797278	-457.796334	-457.83765	28.253	
O	 0.4536967164	 0.099199194	 0.4094337959	-0.297265
C	-0.0329601233	 1.1374483481	 0.0713397165	 0.398348
C	-1.4976366351	 1.4901539274	 0.0704724985	-0.353637
C	-1.776246036	 2.6079801932	 1.0459282697	-0.051643
C	-0.9397415535	 3.4090159343	 1.7248487527	-0.132302
C	 0.5474612721	 3.5130972081	 1.7766627833	 0.34233
O	 1.0677976048	 4.1954799954	 2.6350283346	-0.313843
C	 1.447897108	 2.801696841	 0.764158364	-0.205447
O	 0.7016364674	 2.2341126838	-0.3075825665	-0.238937
H	-1.7967989991	 1.8167819262	-0.9347222678	 0.156483
H	-2.0947494701	 0.6091323636	 0.3231650135	 0.146158
H	-2.8390098929	 2.7540220654	 1.2322598961	 0.122419
H	-1.3829998834	 4.1224652469	 2.4151768415	 0.119009
H	 2.1302083962	 3.5357240339	 0.3318615622	 0.152686
H	 2.0415029684	 2.0376530088	 1.2804980857	 0.155641
66.5156	100.9452	203.3659	294.0437	328.4991	379.4377	454.2215	481.9407	563.8236	611.3591	662.7581	724.7215	769.5008	808.8097	886.805	938.0685	973.6289	1026.9436	1038.3716	1083.8179	1127.6383	1188.1536	1237.5907	1261.2262	1296.7169	1345.4397	1361.1477	1413.9284	1447.6694	1462.6155	1679.4259	1768.3722	1863.8253	3029.1718	3046.5968	3094.5538	3127.2042	3140.5378	3170.229
O=C1CC=CC(=O)CO1	O=C1CC=CC(=O)CO1	
InChI=1S/C6H6O3/c7-5-2-1-3-6(8)9-4-5/h1-2H,3-4H2	InChI=1S/C6H6O3/c7-5-2-1-3-6(8)9-4-5/h1-2H,3-4H2
