15
gdb 45874	2.07258	1.84837	1.28081	1.4126	72.29	-0.2574	-0.0299	0.2275	1007.1459	0.113607	-416.817626	-416.809746	-416.808802	-416.850241	29.47	
O	 0.0272009382	-0.0509087927	-0.0431743177	-0.342258
C	 0.028396339	 1.1551911573	-0.0160451308	 0.413982
N	-1.1343578461	 1.9029058421	 0.0488092443	-0.325925
C	-1.1652711296	 3.2973054138	-0.0124531129	 0.09654
N	-0.2008306692	 4.0434080359	-0.3562574656	-0.222156
C	 1.0261261013	 3.363008859	-0.7503850745	-0.180445
C	 1.2917602538	 2.0333976348	 0.0020430663	-0.297565
C	 1.6881586459	 2.2539953102	 1.3899208819	 0.339029
C	 2.0020190381	 2.4492761737	 2.5331762734	-0.470081
H	-1.9907182468	 1.383133945	 0.1797210822	 0.26365
H	-2.1282084588	 3.7306104073	 0.2533408913	 0.129534
H	 0.9709096362	 3.1538439508	-1.828672389	 0.121766
H	 1.8712303604	 4.0385824875	-0.5978610257	 0.13061
H	 2.0725630032	 1.4644097281	-0.5125412753	 0.138143
H	 2.2885114144	 2.615643597	 3.5422508222	 0.205177
85.0288	133.349	146.0672	222.5688	358.8453	432.2948	448.9691	493.0841	538.1808	611.3435	629.8885	643.2747	646.249	739.122	804.7273	858.9442	912.393	947.6755	992.3699	1022.4134	1078.0014	1096.7616	1218.8341	1251.9969	1273.2793	1316.7165	1378.2903	1417.2252	1453.2988	1478.8125	1742.4763	1830.0971	2236.3253	3008.8411	3065.929	3093.9919	3148.0242	3503.3593	3608.8234
O=C1NC=NCC1C#C	O=C1NC=NC[C@H]1C#C	
InChI=1S/C6H6N2O/c1-2-5-3-7-4-8-6(5)9/h1,4-5H,3H2,(H,7,8,9)	InChI=1S/C6H6N2O/c1-2-5-3-7-4-8-6(5)9/h1,4-5H,3H2,(H,7,8,9)/t5-/m1/s1
