18
gdb 35220	3.50228	1.15999	1.00193	1.7352	86.59	-0.2246	0.0074	0.232	1216.2988	0.147721	-364.765483	-364.757176	-364.756232	-364.799096	31.848	
C	-0.021070493	-1.1987365915	-0.0911192924	-0.435322
C	-0.0085760942	 0.0029274014	-0.0395226492	 0.383269
C	 0.0251625822	 1.4377491904	-0.0275239833	-0.330511
N	 0.4260770724	 2.1127002177	 1.2300658676	-0.366237
C	 1.3231619868	 2.1974306174	 0.067617934	 0.340138
C	 2.6990384433	 1.5242828674	 0.1497053712	-0.295742
C	 3.6839980759	 2.5128687311	-0.536983763	-0.269228
C	 2.8032413385	 3.6467065065	-1.004159618	-0.076674
C	 1.5234789725	 3.4649583301	-0.6791924736	-0.139265
H	-0.0401783423	-2.2599035409	-0.1207669226	 0.196541
H	-0.7576067672	 1.9120647022	-0.6171825421	 0.105571
H	-0.1071062788	 2.9745575523	 1.3324126539	 0.231236
H	 2.957569503	 1.3404409704	 1.1944520446	 0.12174
H	 2.6839170723	 0.554511545	-0.3543174921	 0.120459
H	 4.4620573928	 2.8712079259	 0.148634628	 0.111771
H	 4.2142100486	 2.0474129737	-1.3766228828	 0.111838
H	 3.1929313214	 4.5026213521	-1.5440754278	 0.098691
H	 0.7039633357	 4.1391375588	-0.9064062223	 0.091725
35.2651	116.5672	133.851	264.2871	310.1525	360.0422	426.7023	510.1179	552.6264	585.5821	612.1463	657.5935	732.2777	760.016	802.0663	815.6543	845.4677	905.5487	920.5307	957.991	970.0904	999.6232	1033.9933	1055.0901	1079.449	1125.7592	1177.3631	1201.5599	1242.6153	1248.4266	1287.9735	1307.7302	1346.1614	1382.6374	1437.4556	1479.4699	1499.4176	1680.1999	2236.0443	3025.6954	3049.1977	3072.0516	3116.7088	3117.2877	3177.0641	3204.2433	3479.8682	3504.3563
C#CC1NC11CCC=C1	C#C[C@H]1N[C@]21CCC=C2	
InChI=1S/C8H9N/c1-2-7-8(9-7)5-3-4-6-8/h1,3,5,7,9H,4,6H2	InChI=1S/C8H9N/c1-2-7-8(9-7)5-3-4-6-8/h1,3,5,7,9H,4,6H2/t7-,8+/m1/s1
