21
gdb 77681	1.83607	1.60223	1.56934	2.3074	77.55	-0.2263	0.0676	0.2939	1084.0181	0.181937	-424.223305	-424.213925	-424.212981	-424.25673	36.232	
C	 0.0559706215	 1.6556825587	 0.0188157644	-0.431943
C	 0.1342932243	 0.144786927	 0.0905098554	-0.137722
C	 1.3298604069	-0.719271582	-0.283129619	 0.283418
O	 1.0934628448	-1.9034834125	-1.000607013	-0.475739
C	 2.7317892905	-0.1301762721	-0.329311929	-0.282592
C	 2.9610293076	 0.5168516767	 1.0640396977	-0.226606
C	 1.9149571022	-0.1082955956	 2.0281816055	-0.271846
C	 0.8380629998	-0.7077065739	 1.140826729	 0.385689
O	 0.1613449522	-1.8153068485	 1.6515270731	-0.488296
H	 0.9830809648	 2.1496549497	 0.3139430496	 0.122782
H	-0.1798995336	 1.9872704906	-0.9991840794	 0.114278
H	-0.7369186441	 2.0285691138	 0.6764294185	 0.124896
H	-0.7953831475	-0.3433822695	-0.1989993931	 0.083268
H	 0.6962239949	-1.6813896419	-1.8485649778	 0.287244
H	 3.423104998	-0.9631850543	-0.4956716523	 0.111266
H	 2.8855460151	 0.5851395487	-1.1453386507	 0.091656
H	 3.9805416662	 0.3440468132	 1.4185452171	 0.10346
H	 2.8386626916	 1.6011518896	 1.0108250776	 0.108992
H	 2.3492018399	-0.9322577476	 2.6035519788	 0.111111
H	 1.5317270752	 0.6211171453	 2.7490361399	 0.100494
H	 0.1661447895	-2.4783128353	 0.9469837877	 0.286189
109.355	165.2085	166.1802	220.0574	221.8625	244.9099	261.106	356.8915	387.4	415.9962	484.5146	529.8003	599.6496	619.9984	690.7515	735.3778	777.8866	839.921	913.299	917.3281	950.5427	1020.6848	1034.3322	1065.1201	1073.2168	1115.7505	1130.0319	1182.8103	1200.3744	1209.1892	1238.9778	1251.0164	1296.1998	1298.8786	1322.2812	1339.3658	1350.3632	1406.2842	1415.6556	1460.604	1488.2758	1490.2204	1497.7846	1510.2915	1522.5154	3031.8469	3035.1557	3046.5529	3067.7026	3072.4199	3082.298	3084.0664	3107.2193	3115.5037	3137.6291	3739.9948	3812.3266
CC1C2(O)CCCC12O	C[C@H]1[C@@]2(O)CCC[C@@]12O	
InChI=1S/C7H12O2/c1-5-6(8)3-2-4-7(5,6)9/h5,8-9H,2-4H2,1H3	InChI=1S/C7H12O2/c1-5-6(8)3-2-4-7(5,6)9/h5,8-9H,2-4H2,1H3/t5-,6-,7+
