17
gdb 55181	3.39539	1.34316	1.12032	3.8447	68.1	-0.229	0.0235	0.2525	1083.2375	0.137597	-455.120833	-455.112989	-455.112045	-455.153812	29.905	
N	 0.4224695743	 0.504137494	 0.9491644684	-0.532286
C	 0.0076273417	-0.0508438916	-0.2161554576	 0.404338
O	 0.5628099751	 0.1086563988	-1.287683838	-0.376396
C	-1.2385689957	-0.9379442298	-0.113502282	-0.077827
N	-0.9513355384	-2.3657543463	 0.2345113337	-0.331379
C	-2.1030520069	-2.4145733357	 1.1670449048	-0.05534
C	-1.6605659076	-2.1499453156	 2.6129641322	-0.066485
O	-1.6778516474	-0.7092263678	 2.3796195497	-0.300458
C	-2.2500336906	-0.8784264196	 1.0585803051	 0.0699
H	 1.284428417	 1.0246321981	 0.9459889572	 0.25359
H	-0.0369001881	 0.2642147498	 1.8170857433	 0.273436
H	-1.7722968838	-0.8289932092	-1.0653121256	 0.095582
H	-1.0091426737	-2.99860985	-0.5535052978	 0.232733
H	-2.8864048973	-3.1463136207	 0.9679427038	 0.087569
H	-2.3900550821	-2.4187693235	 3.3861647277	 0.107923
H	-0.6646852533	-2.5178812018	 2.8749651699	 0.120712
H	-3.1653204931	-0.298864409	 0.9311162751	 0.094389
45.733	116.5177	202.4446	278.473	333.8685	400.9911	421.1863	437.8694	605.178	640.0802	681.2395	749.661	782.6621	796.2808	807.355	902.3673	942.1562	958.4755	989.9535	1027.6038	1037.8188	1056.9325	1082.8242	1136.0291	1157.9532	1187.9821	1207.3384	1245.7346	1295.9034	1310.9113	1341.3448	1359.5788	1380.3989	1394.1608	1500.3236	1618.2682	1796.9953	3028.88	3035.6893	3097.9987	3102.1739	3111.7447	3533.423	3559.3914	3698.1876
NC(=O)C1NC2COC12	NC(=O)[C@H]1N[C@H]2CO[C@@H]12	
InChI=1S/C5H8N2O2/c6-5(8)3-4-2(7-3)1-9-4/h2-4,7H,1H2,(H2,6,8)	InChI=1S/C5H8N2O2/c6-5(8)3-4-2(7-3)1-9-4/h2-4,7H,1H2,(H2,6,8)/t2-,3-,4+/m0/s1
