20
gdb 115689	2.21044	1.32253	1.05395	3.6632	76.2	-0.2226	-0.007	0.2155	1249.9032	0.168847	-440.264732	-440.254797	-440.253853	-440.300265	35.105	
C	 0.0532929478	 1.6234020456	-1.0740267266	-0.240505
O	-0.3404691432	 0.2688623885	-1.0238115081	-0.238437
C	 0.6875723406	-0.6250463357	-1.3600851441	 0.131788
C	 1.6580531321	-0.9952448815	-0.2034281444	-0.198213
N	 0.8868508036	-2.2407633363	 0.0159324765	-0.317406
C	 0.203003978	-2.1055658585	-1.2890994984	-0.111179
C	-1.3111431679	-2.3262068627	-1.332514309	 0.392926
C	-2.0655281632	-2.2376412843	-0.0280149752	-0.472071
O	-1.8443749026	-2.5424092495	-2.3969867795	-0.312845
H	 0.847219366	 1.850617157	-0.347397689	 0.110503
H	 0.4113730399	 1.8994497303	-2.0775671674	 0.111634
H	-0.8264758092	 2.2236832699	-0.8327337044	 0.135007
H	 1.1578085129	-0.3289207354	-2.3061852893	 0.079408
H	 2.6894560838	-1.1421352253	-0.550411416	 0.095088
H	 1.6642768873	-0.3154991462	 0.6556849958	 0.108305
H	 1.4403281433	-3.0822785992	 0.1282037028	 0.221741
H	 0.63697265	-2.6894038919	-2.1107986008	 0.084643
H	-1.9222108766	-1.2385643587	 0.3950138281	 0.154401
H	-3.1245063397	-2.4328303403	-0.2008089401	 0.12703
H	-1.6536208329	-2.943075886	 0.699849169	 0.138184
59.1544	96.8718	106.493	126.5782	142.6778	195.7556	242.2299	291.4735	379.5285	436.7564	471.0163	509.3825	605.7803	682.9549	769.0327	826.3169	906.6644	945.2699	980.831	1013.2065	1016.2826	1047.4488	1064.1783	1104.2633	1142.6021	1177.3041	1182.8885	1196.2223	1245.6012	1250.2798	1265.7232	1305.8786	1348.5147	1375.9725	1385.849	1390.2378	1451.7206	1467.026	1481.6591	1488.001	1504.8551	1508.1647	1808.6655	2980.6869	3006.8134	3017.8207	3030.0767	3034.2151	3049.9091	3064.2345	3116.6912	3123.3966	3156.849	3537.3893
COC1CNC1C(C)=O	CO[C@H]1CN[C@H]1C(=O)C	
InChI=1S/C6H11NO2/c1-4(8)6-5(9-2)3-7-6/h5-7H,3H2,1-2H3	InChI=1S/C6H11NO2/c1-4(8)6-5(9-2)3-7-6/h5-7H,3H2,1-2H3/t5-,6-/m0/s1
