17
gdb 50455	4.4899	0.95185	0.82249	0.7376	76.97	-0.2492	-0.0678	0.1814	1332.2041	0.135872	-421.871012	-421.862763	-421.861819	-421.904987	30.099	
O	-0.1020743521	-0.0420627979	-0.0109773994	-0.23709
C	-0.0239277841	 1.156879348	 0.0157190128	 0.145882
C	 1.2811106833	 1.943615599	 0.0115458968	-0.110301
C	 1.3762199395	 2.7717312579	-1.2865349616	-0.245854
C	 2.5096815787	 3.8024756948	-1.2167880328	-0.328021
C	 2.3888758514	 4.7098937482	 0.000269577	 0.387713
O	 2.7642096483	 5.8638751687	-0.0063230088	-0.324725
C	 1.8288265518	 4.080462965	 1.2188427215	-0.164523
C	 1.3572358372	 2.8278305135	 1.2337686998	-0.058314
H	-0.9366140536	 1.7974617136	 0.0320867807	 0.084528
H	 2.0880027279	 1.1990979501	 0.0517440106	 0.115353
H	 1.5137915204	 2.1043914465	-2.1425556186	 0.122044
H	 0.4234047717	 3.2955199547	-1.4410255231	 0.115765
H	 3.4772275395	 3.2862526902	-1.1407695838	 0.130777
H	 2.5496011941	 4.4269528827	-2.1125551339	 0.129485
H	 1.8531193116	 4.6902009873	 2.1168580768	 0.116613
H	 1.0079394343	 2.3971502978	 2.170444306	 0.120667
43.3981	61.2187	170.7734	250.3668	300.5003	345.8605	374.2222	442.4226	502.6452	565.6175	616.7501	714.297	754.048	791.598	890.3549	929.2223	937.2122	1021.6059	1027.1242	1040.0336	1083.7915	1095.7335	1158.0992	1194.4599	1229.3526	1247.4832	1268.2431	1318.5165	1353.7268	1374.8022	1407.8089	1423.2286	1461.1176	1493.0128	1677.4213	1785.1504	1838.0188	2861.06	3015.8756	3021.6772	3028.9122	3084.6102	3105.6653	3145.5175	3188.2322
O=CC1CCC(=O)C=C1	O=C[C@H]1CCC(=O)C=C1	
InChI=1S/C7H8O2/c8-5-6-1-3-7(9)4-2-6/h1,3,5-6H,2,4H2	InChI=1S/C7H8O2/c8-5-6-1-3-7(9)4-2-6/h1,3,5-6H,2,4H2/t6-/m1/s1
