16
gdb 27063	3.18075	1.13631	0.86884	5.4712	73.9	-0.2117	0.0061	0.2178	1279.1185	0.123954	-437.94466	-437.935968	-437.935024	-437.979005	30.862	
C	 0.0719432324	 1.4332317869	-0.1293758705	-0.511935
C	 0.0041915284	-0.054796157	-0.0858239571	 0.211984
C	-0.2584151955	-0.9709643599	-1.0805207632	 0.25246
O	-0.5670853799	-0.6176024795	-2.3839428698	-0.221218
C	 0.2668864074	-1.0577123574	-3.3601964784	 0.149428
O	 0.0592529948	-0.8510014825	-4.5159664667	-0.2678
C	-0.2271502425	-2.2836363473	-0.5367655014	-0.251278
C	 0.0634168323	-2.1363152835	 0.7988063255	-0.07709
N	 0.1961304703	-0.7955666909	 1.0573888268	-0.291992
H	 1.0602458443	 1.8127362579	 0.1576404442	 0.130144
H	-0.1344398185	 1.7726038229	-1.1465878622	 0.155969
H	-0.6667825862	 1.9003135167	 0.5332583473	 0.132492
H	 1.130777266	-1.612176985	-2.950720585	 0.088849
H	-0.4115020505	-3.2075594124	-1.0613253025	 0.109676
H	 0.1817131186	-2.8690570365	 1.579964652	 0.126194
H	 0.4006629387	-0.4014178325	 1.9592328709	 0.264115
42.865	110.0902	134.9961	151.0335	226.6017	254.6495	389.8921	465.1646	475.9578	487.5537	639.6679	676.2814	684.2763	709.0121	818.0865	838.7802	920.0406	980.226	1049.012	1064.5654	1083.8557	1112.0012	1149.9107	1184.2369	1271.0488	1320.0417	1409.1999	1414.037	1442.4752	1477.2011	1484.9695	1494.6209	1523.2656	1645.202	1869.6124	2978.423	3020.8414	3066.7652	3131.2091	3256.6848	3276.9523	3678.323
CC1=C(OC=O)C=CN1	Cc1c(OC=O)cc[nH]1	
InChI=1S/C6H7NO2/c1-5-6(9-4-8)2-3-7-5/h2-4,7H,1H3	InChI=1S/C6H7NO2/c1-5-6(9-4-8)2-3-7-5/h2-4,7H,1H3
