19
gdb 82364	2.72235	1.47133	1.07079	5.0963	76.57	-0.2344	0.0304	0.2647	1138.5638	0.16099	-419.218338	-419.210078	-419.209134	-419.25158	31.193	
C	 0.2898008828	 1.6290264549	-0.0942360422	-0.398414
C	 0.097928298	 0.1165539125	 0.037688458	 0.033942
C	 0.6302723818	-0.6595160616	-1.1577211121	-0.053978
N	 2.0927998982	-0.5337048002	-1.3143503398	-0.329196
C	 1.5219420836	-1.7424315802	-0.6865412432	-0.063067
C	 1.5818500974	-1.7000010616	 0.8226416895	-0.150683
N	 0.8490927156	-0.4755258191	 1.1628120972	-0.060713
C	 0.7648146901	-0.073632865	 2.4539838889	 0.142837
O	 1.3107768598	-0.6347240054	 3.3849249094	-0.3472
H	 1.3481291436	 1.855201311	-0.2407611448	 0.148512
H	-0.2736384869	 1.998448311	-0.9576515981	 0.114798
H	-0.0712802486	 2.1644375103	 0.7874722377	 0.123108
H	-0.9743149654	-0.1095154935	 0.1395520192	 0.08603
H	 0.001303764	-0.7572370579	-2.03586573	 0.094904
H	 2.3468534786	-0.7394626888	-2.2773662392	 0.235817
H	 1.5947447205	-2.6967638053	-1.1957638156	 0.099133
H	 1.0983793703	-2.5819421083	 1.2622886024	 0.116187
H	 2.6010648545	-1.6475034563	 1.2156906809	 0.137627
H	 0.1386781118	 0.8298796534	 2.5831930719	 0.070358
49.6111	141.6907	214.7316	232.5805	247.5396	325.3827	363.4565	379.678	500.7968	564.778	654.8686	735.5949	807.6684	842.2057	863.8095	877.4645	918.9242	979.8778	1008.2	1030.4445	1034.922	1092.2792	1098.8585	1120.4315	1128.1209	1173.1427	1205.7673	1235.736	1250.9883	1325.7941	1348.9045	1358.6051	1380.3552	1400.3526	1406.2621	1433.2875	1449.7038	1496.3258	1498.2441	1506.8008	1782.8183	2946.5741	2985.0674	3027.2027	3044.6511	3087.7442	3111.3365	3140.7743	3169.6789	3181.5869	3504.7556
CC1C2NC2CN1C=O	C[C@H]1[C@H]2N[C@H]2CN1C=O	
InChI=1S/C6H10N2O/c1-4-6-5(7-6)2-8(4)3-9/h3-7H,2H2,1H3	InChI=1S/C6H10N2O/c1-4-6-5(7-6)2-8(4)3-9/h3-7H,2H2,1H3/t4-,5-,6+/m0/s1
