18
gdb 22746	4.43713	1.01009	0.92154	0.8673	75.91	-0.2406	0.0031	0.2437	1283.5621	0.146866	-439.032447	-439.024135	-439.023191	-439.065501	31.988	
O	-0.2026489397	 1.1766761456	-0.6106868907	-0.398037
N	-0.0083182878	-0.1534923557	-0.1857806701	-0.214568
C	-1.1176458238	-0.6864305278	 0.1245306691	 0.361902
C	-2.5026849363	-0.0794498112	 0.0499840786	-0.163198
O	-3.3754535207	-1.0718674402	 0.5776085099	-0.293054
C	-2.751834553	-2.3259113464	 0.3950574656	 0.452167
C	-3.5260796557	-3.5245640482	 0.8104131589	-0.340634
C	-3.2962121361	-3.245207006	-0.6690400639	-0.324087
C	-1.261818418	-2.1087784461	 0.6121373484	-0.386885
H	 0.6944329292	 1.4583315753	-0.8183974591	 0.308289
H	-2.5962856743	 0.8333681993	 0.6457974012	 0.135804
H	-2.7483961014	 0.1714473652	-0.9933424488	 0.12274
H	-2.9940691901	-4.3485437173	 1.273953575	 0.116998
H	-4.5226732307	-3.3503970258	 1.2001789215	 0.12859
H	-4.1456106936	-2.8878735524	-1.240093129	 0.122534
H	-2.6080210707	-3.8821955762	-1.2149372122	 0.112762
H	-0.624509339	-2.8092403141	 0.06991214	 0.129735
H	-1.0130830883	-2.1717268181	 1.6792380458	 0.128942
61.0386	138.8343	196.916	266.9141	293.6497	330.2884	375.1042	428.7106	468.1936	497.5313	597.9182	673.8092	761.9313	776.5774	830.9899	870.1082	900.8296	924.0441	962.5328	977.7927	994.1049	1042.369	1055.8608	1078.3616	1085.2705	1157.9155	1187.4369	1202.3763	1217.6156	1261.8816	1268.9646	1351.9397	1379.0212	1404.8061	1451.0535	1471.9208	1488.7567	1504.1064	1772.261	2992.5531	3028.512	3082.2399	3117.4156	3130.6181	3135.3367	3216.8577	3230.5729	3822.679
ON=C1COC2(CC2)C1	ON=C1COC2(CC2)C1	
InChI=1S/C6H9NO2/c8-7-5-3-6(1-2-6)9-4-5/h8H,1-4H2	InChI=1S/C6H9NO2/c8-7-5-3-6(1-2-6)9-4-5/h8H,1-4H2
