20
gdb 64228	3.18968	0.95919	0.89501	3.509	79.13	-0.2561	0.0292	0.2853	1379.0991	0.169212	-403.157282	-403.147546	-403.146602	-403.192425	35.363	
C	-0.1667367135	 1.5609569241	-0.0386126066	-0.430274
C	-0.0179672415	 0.0438935632	 0.0134727052	 0.39984
C	-1.288465524	-0.6627279339	-0.4387962987	-0.427254
O	 1.1216767608	-0.3779422304	-0.792343751	-0.319018
C	 1.8541033207	-0.8258665054	 0.3627097494	-0.083728
C	 0.6518471508	-0.564717815	 1.2888054439	-0.081874
C	 0.8660491395	 0.3154186355	 2.5256848153	-0.376261
C	 1.6545631103	-0.3727811231	 3.5475258461	 0.261514
N	 2.2810034723	-0.9356113046	 4.3388495973	-0.301472
H	 0.7656402784	 2.0677114994	 0.2240328395	 0.119804
H	-0.4300268831	 1.8637145613	-1.056587409	 0.130463
H	-0.9584393794	 1.9100284991	 0.633124254	 0.115336
H	-1.5546737709	-0.3519678475	-1.4540002045	 0.128238
H	-1.1476649592	-1.7469548997	-0.439765436	 0.122857
H	-2.1266809314	-0.4199982378	 0.2238997401	 0.11546
H	 2.1834091228	-1.8659480466	 0.2690683327	 0.115515
H	 2.7318037352	-0.1962778679	 0.5653102413	 0.103112
H	 0.1539793246	-1.4879488747	 1.593851029	 0.098954
H	 1.3826420187	 1.2442525643	 2.2625286615	 0.153989
H	-0.0964983109	 0.6009105798	 2.9661633705	 0.154798
58.6241	62.4339	115.8035	196.7296	214.6511	263.7401	276.3437	347.1749	372.1998	393.1069	410.9208	485.1175	539.5568	641.688	813.0991	862.722	876.9089	915.5067	925.9231	952.6337	986.8667	1002.2201	1027.4531	1083.976	1115.7915	1163.6252	1176.2103	1192.922	1245.0051	1264.4712	1292.6533	1320.1057	1352.7948	1396.6948	1401.7962	1414.2016	1461.6613	1473.9574	1484.2757	1493.3435	1506.8418	1529.7962	2361.6754	3005.4105	3032.0972	3037.7463	3044.2467	3063.3097	3077.6157	3093.5403	3102.5374	3110.0212	3116.8673	3118.7329
CC1(C)OCC1CC#N	CC1(C)OC[C@H]1CC#N	
InChI=1S/C7H11NO/c1-7(2)6(3-4-8)5-9-7/h6H,3,5H2,1-2H3	InChI=1S/C7H11NO/c1-7(2)6(3-4-8)5-9-7/h6H,3,5H2,1-2H3/t6-/m1/s1
