21
gdb 107476	2.04232	1.76722	1.24636	1.568	82.53	-0.2461	0.0887	0.3348	1122.6596	0.181803	-387.045408	-387.036673	-387.035729	-387.078643	33.916	
C	 0.1077675441	 1.5664797549	 0.1050476134	-0.384155
C	-0.0112540688	 0.0430659366	-0.0414680543	-0.298097
C	-1.4274783452	-0.4681955443	-0.009267475	 0.28377
C	-1.9113872431	-1.664240764	-0.7966737476	-0.339527
C	-2.5821831934	-0.3378114145	-1.0197212527	-0.103438
C	-3.5877268984	-0.069100735	 0.1109563403	-0.324021
C	-2.4326451758	-0.2474928291	 1.1136245037	 0.412311
C	-2.4119938383	-0.7061793016	 2.5044126595	-0.27657
O	-2.2202594334	 0.679407019	 2.1646211581	-0.278955
H	 1.1561640323	 1.8793313686	 0.0723895057	 0.105581
H	-0.4212202421	 2.0779549564	-0.7061644908	 0.110154
H	-0.323280601	 1.899416105	 1.0516274539	 0.146366
H	 0.454439277	-0.2758155459	-0.9823653791	 0.096098
H	 0.5631786352	-0.4481376487	 0.7563780221	 0.100299
H	-1.2396190609	-1.9916248624	-1.5845970328	 0.111111
H	-2.447860605	-2.4750346842	-0.3075295073	 0.103765
H	-2.5825789859	 0.1523802655	-1.985462237	 0.089704
H	-3.9450346323	 0.9637214367	 0.1328772223	 0.120587
H	-4.4422784098	-0.7499542485	 0.1867828338	 0.098387
H	-3.345094315	-0.9288640874	 3.0204945664	 0.113649
H	-1.5321800802	-1.2141979672	 2.8978566475	 0.11298
81.608	126.2456	168.203	199.8135	262.8024	287.4718	391.9287	401.6453	415.6468	512.0678	583.3123	620.4596	749.5506	809.4284	840.6587	843.2137	874.698	881.0605	941.912	961.8743	988.6756	1010.0851	1028.0179	1052.7589	1082.8206	1105.8714	1109.1663	1123.791	1141.2029	1161.8278	1169.3389	1232.8755	1256.5456	1274.8383	1323.6804	1344.5818	1400.764	1407.7956	1434.0307	1475.5817	1477.1549	1497.5843	1500.1564	1515.129	1535.4008	3009.6668	3038.0269	3042.3086	3045.8782	3078.578	3099.6125	3101.3133	3106.4236	3134.4941	3164.6582	3183.8952	3194.0478
CCC12CC1CC21CO1	CC[C@]12C[C@H]1C[C@]12CO1	
InChI=1S/C8H12O/c1-2-7-3-6(7)4-8(7)5-9-8/h6H,2-5H2,1H3	InChI=1S/C8H12O/c1-2-7-3-6(7)4-8(7)5-9-8/h6H,2-5H2,1H3/t6-,7-,8+/m0/s1
