18
gdb 38406	4.11848	1.32496	1.2974	2.9948	75.66	-0.2263	0.0736	0.2999	1034.7594	0.148325	-401.850984	-401.843931	-401.842987	-401.882336	28.821	
C	 0.0219140437	 1.4714404892	 0.1114875298	-0.308396
C	 1.2962976431	 0.7001149761	-0.0067972301	 0.10141
O	 1.6707217046	 0.1460317963	 1.2563235206	-0.326124
C	 0.4815554824	-0.6807019801	 1.2602656028	 0.500975
C	 0.645523315	-2.2385810324	 1.2845853189	-0.314856
C	-0.3180303763	-2.2575196222	 2.4755562915	-0.041172
N	 0.3670115332	-1.4949680663	 3.5404280834	-0.327076
C	-0.4011467265	-0.7655750315	 2.496967372	-0.141462
C	-0.0180655723	-0.0404898818	-0.0298534169	-0.213228
H	-0.2234565974	 1.9515606678	 1.0547784993	 0.116501
H	-0.2904474121	 2.0113143018	-0.7774991667	 0.113781
H	 2.0701390578	 0.8495436729	-0.7499736737	 0.104138
H	 0.2644185555	-2.7119638102	 0.3767827739	 0.103071
H	 1.6536084535	-2.5931632324	 1.5066057844	 0.120201
H	-1.0833480196	-2.9877409652	 2.7035182514	 0.095006
H	-0.2299096691	-1.5208132583	 4.3675008648	 0.228716
H	-1.2180274914	-0.1064838251	 2.7656047321	 0.089248
H	-0.5341690141	-0.5520180887	-0.8309991478	 0.099266
126.5272	146.8953	228.8271	400.4049	409.6773	452.1683	492.4724	557.8734	759.6029	764.7523	802.9215	815.2425	836.1843	861.8901	896.749	917.2318	957.2825	968.2716	976.8866	996.4631	1011.0409	1042.0124	1050.0393	1072.7722	1077.9114	1086.7033	1107.6753	1134.3975	1159.176	1177.382	1212.7001	1239.6476	1290.7405	1300.3917	1336.1873	1350.137	1388.4742	1462.7221	1471.6272	3070.0167	3114.7225	3133.5795	3183.8236	3184.9349	3199.9376	3204.7674	3210.1836	3465.0122
C1C2OC3(CC4NC34)C12	C1[C@H]2O[C@]3(C[C@H]4N[C@@H]34)[C@@H]12	
InChI=1S/C7H9NO/c1-3-5(1)9-7(3)2-4-6(7)8-4/h3-6,8H,1-2H2	InChI=1S/C7H9NO/c1-3-5(1)9-7(3)2-4-6(7)8-4/h3-6,8H,1-2H2/t3-,4+,5+,6+,7+/m0/s1
