25
gdb 104665	1.81559	1.36801	1.07425	1.0727	89.33	-0.2362	0.0765	0.3127	1356.979	0.225762	-389.478124	-389.466611	-389.465667	-389.514384	41.82	
C	-0.4614714535	-0.3150261971	-2.3529754849	-0.377499
C	-0.2767863615	-0.9427976376	-0.9655602278	-0.251775
C	-1.5907838145	-1.1341617168	-0.2291019005	 0.409778
O	-2.3482110124	 0.0495259287	-0.0951674298	-0.282776
C	-1.832949518	 0.9811492607	 0.833929498	-0.247706
C	-2.4653334651	-2.3430736811	-0.4449871047	-0.073822
C	-2.1342903207	-3.4720713256	-1.3979021491	-0.420956
C	-1.7597637303	-2.1419152694	 0.892808542	-0.093424
C	-0.6557600945	-3.0474000082	 1.3979128456	-0.413905
H	 0.504848176	-0.1385643955	-2.8353677881	 0.104568
H	-1.0504860974	-0.9675580993	-3.0053439247	 0.118128
H	-0.9895725206	 0.6392378398	-2.2802389523	 0.129271
H	 0.2361878251	-1.9036521145	-1.0604565059	 0.096554
H	 0.3901402707	-0.3128786123	-0.3625470268	 0.09376
H	-1.675775049	 0.5262545055	 1.822577673	 0.103628
H	-0.8835732163	 1.4264439621	 0.5037437105	 0.105807
H	-2.5740086895	 1.7793930606	 0.9258430801	 0.123112
H	-3.5230803138	-2.095437474	-0.417655834	 0.090989
H	-1.0652109842	-3.6944697114	-1.4423850153	 0.114297
H	-2.6449521986	-4.3934615647	-1.0960190545	 0.116888
H	-2.4619330267	-3.2339881328	-2.4157197387	 0.121014
H	-2.4235521649	-1.792216155	 1.6801424139	 0.085938
H	 0.0001918716	-3.4024712586	 0.5997147962	 0.115382
H	-0.0267214214	-2.5303322663	 2.1312453759	 0.115891
H	-1.0749235404	-3.9320621172	 1.8907161518	 0.116859
73.6197	112.585	127.7536	157.1224	164.2586	170.9096	200.9066	206.8679	238.0307	279.436	293.5123	355.4453	421.3281	469.8459	532.8022	563.8046	681.025	773.8639	784.103	858.44	900.2084	967.9419	987.1945	1019.8523	1033.6448	1051.2302	1093.298	1103.6045	1117.3015	1146.9804	1164.5518	1175.6712	1182.7196	1214.882	1235.5584	1286.6348	1312.5248	1362.3413	1371.4168	1404.995	1414.0598	1422.2313	1449.0091	1473.5898	1476.272	1489.6459	1492.3596	1496.2331	1499.8421	1502.2519	1504.9318	1511.6631	1517.2453	2987.9704	3023.9678	3029.8313	3033.2987	3038.4065	3040.7683	3082.1232	3082.8873	3086.7703	3106.3217	3106.7172	3109.4715	3117.6556	3122.9852	3133.2662	3147.9536
CCC1(OC)C(C)C1C	CC[C@@]1(OC)[C@@H](C)[C@H]1C	
InChI=1S/C8H16O/c1-5-8(9-4)6(2)7(8)3/h6-7H,5H2,1-4H3	InChI=1S/C8H16O/c1-5-8(9-4)6(2)7(8)3/h6-7H,5H2,1-4H3/t6-,7+,8+
