14
gdb 132428	3.18684	1.38386	0.97071	5.5172	69.57	-0.2297	-0.0547	0.175	1123.1319	0.10135	-478.039325	-478.031749	-478.030804	-478.071544	28.178	
C	-0.0173490393	 1.5171979285	 0.0455034545	-0.496468
C	-0.0034825837	 0.0235622203	-0.0552040944	 0.376321
C	-0.0383636218	-0.6824171278	-1.2164972597	-0.135879
N	-0.0230305432	-2.0554631934	-1.2397658727	-0.287282
C	 0.0257203382	-2.6867421331	-0.1304721983	 0.224953
F	 0.0409117864	-4.0078910454	-0.1383621363	-0.044632
C	 0.0687489658	-2.0841772522	 1.215101442	 0.299467
O	 0.1150463799	-2.6711815562	 2.2763073709	-0.37028
N	 0.0486394419	-0.6935879271	 1.1175623618	-0.40093
H	 0.8819996172	 1.8903488745	 0.5493275033	 0.146586
H	-0.0598828851	 1.9633441661	-0.9493304114	 0.152877
H	-0.8850370375	 1.8694793384	 0.6155218572	 0.146576
H	-0.0799417924	-0.1799553152	-2.1739830044	 0.122301
H	 0.0760646237	-0.2122144375	 2.0074336274	 0.26639
115.3341	157.2625	174.4102	290.7641	317.2776	387.7649	448.4274	475.8047	534.8662	601.617	615.5731	701.0895	715.9177	784.2086	793.0102	850.5326	1011.148	1042.3513	1065.3356	1182.812	1219.458	1277.561	1328.7479	1378.9929	1418.4112	1468.2812	1477.6959	1506.1302	1615.3488	1674.732	1799.7235	3030.044	3082.2297	3139.8982	3214.6949	3589.8542
CC1=CN=C(F)C(=O)N1	Cc1cnc(F)c(=O)[nH]1	
InChI=1S/C5H5FN2O/c1-3-2-7-4(6)5(9)8-3/h2H,1H3,(H,8,9)	InChI=1S/C5H5FN2O/c1-3-2-7-4(6)5(9)8-3/h2H,1H3,(H,8,9)
