15
gdb 15646	3.4388	1.863	1.26849	3.767	63.59	-0.2237	-0.0179	0.2058	930.3352	0.118613	-399.819394	-399.811688	-399.810743	-399.851859	27.588	
C	 0.0582626997	 1.409929376	 0.0593638329	-0.232142
O	-0.1763271404	 0.0297059149	-0.1112216633	-0.230871
C	 0.5949162159	-0.551506156	-1.1364789621	-0.030093
C	 2.0459440883	-0.8440889659	-0.8181163746	-0.171044
C	 2.2578570964	-2.1522571343	-0.984489427	-0.012488
N	 1.0923842559	-2.8253849861	-1.383272903	-0.331839
C	 0.0118276984	-1.9630825296	-1.4380771923	 0.402645
O	-1.1315295006	-2.2562738071	-1.6756507619	-0.348515
H	 1.0859071554	 1.621921494	 0.3897119954	 0.106183
H	-0.1301287009	 1.9691097122	-0.870417402	 0.10779
H	-0.6347238235	 1.7578435348	 0.8286695652	 0.134106
H	 0.5075960503	 0.0485743884	-2.0601611077	 0.098765
H	 2.7892794347	-0.1109669162	-0.546848512	 0.110711
H	 3.1747878798	-2.7146842794	-0.8742834951	 0.132996
H	 0.9890893806	-3.8240363656	-1.4526311424	 0.263796
75.3623	101.5196	183.065	207.3689	300.7579	338.5813	448.0698	519.4932	569.2936	647.8141	698.2781	731.1904	807.3367	905.9109	923.091	981.6672	1034.0111	1076.593	1126.996	1168.3437	1181.0376	1199.4266	1217.8411	1267.9939	1337.9501	1379.7571	1411.2684	1477.6132	1489.447	1506.7613	1670.3516	1858.4365	2944.873	2977.2711	3026.1561	3119.9974	3229.4832	3261.0687	3663.5817
COC1C=CNC1=O	CO[C@H]1C=CNC1=O	
InChI=1S/C5H7NO2/c1-8-4-2-3-6-5(4)7/h2-4H,1H3,(H,6,7)	InChI=1S/C5H7NO2/c1-8-4-2-3-6-5(4)7/h2-4H,1H3,(H,6,7)/t4-/m0/s1
