13
gdb 25520	5.4847	1.03869	0.87747	5.4829	68.71	-0.2724	-0.0609	0.2115	1213.5377	0.090726	-452.821148	-452.814015	-452.813071	-452.853668	25.21	
O	 0.0344032508	-0.0289842401	 0.1311645442	-0.248961
C	-0.0095332946	 1.1437330041	-0.0616654019	 0.174614
O	 1.0807572273	 1.9371156453	 0.2121866101	-0.216211
C	 0.9785055278	 3.2942130286	 0.1240226643	 0.482623
N	-0.2270268898	 3.8470251701	 0.20365965	-0.323833
C	-0.2553462631	 5.1807331955	 0.1326892028	 0.01903
C	 0.8976464068	 5.9425486992	 0.0062433545	-0.138069
C	 2.095462079	 5.2360687751	-0.0551210722	 0.016924
N	 2.1501139548	 3.9055726541	-0.004379146	-0.284703
H	-0.856139592	 1.7098266002	-0.4690472437	 0.130964
H	-1.237718898	 5.6426020882	 0.1902402591	 0.132939
H	 0.8673005164	 7.0234057603	-0.038920958	 0.121205
H	 3.0483466947	 5.7506167194	-0.1522653934	 0.133478
69.7123	97.6506	177.9949	245.0596	419.7894	431.869	517.0948	544.8802	644.9015	714.6722	825.7354	836.3994	928.2625	1006.0189	1009.1954	1015.1622	1041.4923	1077.4281	1107.9699	1129.4867	1267.7791	1313.4554	1337.0915	1402.3016	1454.5089	1471.1727	1607.1732	1624.8649	1875.3978	3076.6585	3164.0013	3166.6749	3222.083
O=COC1=NC=CC=N1	O=COc1ncccn1	
InChI=1S/C5H4N2O2/c8-4-9-5-6-2-1-3-7-5/h1-4H	InChI=1S/C5H4N2O2/c8-4-9-5-6-2-1-3-7-5/h1-4H
