17
gdb 33116	3.29282	1.09888	0.85677	6.9972	71.18	-0.2019	0.0319	0.2338	1311.2369	0.137948	-455.197332	-455.189048	-455.188104	-455.230587	31.009	
N	-0.3868204053	 2.0643569823	 0.7294807144	-0.507649
H	 0.5813086774	 1.9890457802	 0.4294903381	 0.236117
H	-0.500817704	 3.0083784113	 2.7460355132	 0.27592
H	-0.9018358703	 2.4419155433	-0.0593533246	 0.241774
C	-0.9057445977	 0.7336967664	 1.0867106564	-0.154144
C	-0.3021037511	 0.260339437	 2.4210378605	-0.311275
C	-0.7256281712	 1.0799765274	 3.5933288668	 0.307675
C	-1.1900643715	 0.7410283949	 4.8046790559	-0.137116
O	-1.4309486461	 1.8734786939	 5.555924508	-0.214122
C	-1.1262148343	 2.9832912286	 4.7799843514	 0.481393
O	-1.2645104559	 4.1202150325	 5.1418331193	-0.408127
N	-0.6619801367	 2.4759963038	 3.5898693509	-0.40737
H	-1.9931249942	 0.8142818921	 1.1894347371	 0.1225
H	-0.7087022553	-0.0299606331	 0.3186554429	 0.095365
H	-0.5849051096	-0.7815655591	 2.6001780234	 0.120006
H	 0.7939864902	 0.2734209946	 2.3264410105	 0.115419
H	-1.3818887843	-0.2074504562	 5.2749354659	 0.143635
81.076	125.6759	150.6053	225.3211	276.7339	305.639	369.902	473.797	526.6236	587.2411	639.1172	669.5744	711.2332	760.2917	781.1217	846.682	887.8437	916.5138	952.8207	1008.9262	1026.8319	1082.9917	1095.066	1151.0563	1179.3411	1235.8212	1260.7989	1324.7555	1346.1835	1379.7585	1417.0159	1424.3765	1471.2654	1508.7536	1656.213	1707.6967	1892.9134	2980.6064	2999.6399	3072.5826	3086.2957	3292.7429	3492.8585	3572.7522	3597.1717
[NH3+]CCC1=COC([O-])=N1	NCCc1coc(=O)[nH]1	
InChI=1S/C5H8N2O2/c6-2-1-4-3-9-5(8)7-4/h3H,1-2,6H2,(H,7,8)	InChI=1S/C5H8N2O2/c6-2-1-4-3-9-5(8)7-4/h3H,1-2,6H2,(H,7,8)
