20
gdb 108467	2.20692	1.62822	1.2618	2.4183	74.53	-0.2258	0.0565	0.2822	1095.5944	0.170854	-440.234714	-440.22585	-440.224906	-440.268309	33.619	
C	 0.1454189189	 1.5401563519	-0.0348683926	-0.391192
C	 0.0272604673	 0.0308448437	 0.0416281961	 0.008815
N	 0.9527266507	-0.7376900436	-0.8568391864	-0.340728
C	 1.3935741471	-1.6083641997	 0.2603823919	-0.132331
C	 2.665638722	-1.0644939593	 0.9265918347	-0.068419
O	 1.8863537326	-0.1228352444	 1.7165782394	-0.346091
C	 0.6337494285	-0.7073936832	 1.2650349544	 0.419602
C	-0.2191111726	-1.0817698736	 2.450575821	-0.157706
O	-0.47890011	 0.0695732376	 3.2374860186	-0.419314
H	 1.1768006046	 1.8442382352	 0.1572124729	 0.130128
H	-0.1476371613	 1.903035733	-1.025258969	 0.10985
H	-0.5039772932	 2.0069773749	 0.7128078073	 0.123006
H	-1.0206867469	-0.2793518596	-0.0809488177	 0.065613
H	 0.4764942766	-1.238576937	-1.5974456937	 0.219038
H	 1.2655774307	-2.6857627026	 0.1448009142	 0.077529
H	 3.1933643148	-1.7762132622	 1.574344711	 0.0983
H	 3.3692905299	-0.5610931799	 0.2572148929	 0.113126
H	-1.1891094918	-1.473767786	 2.1270912513	 0.105986
H	 0.2853910628	-1.8662153792	 3.0373306812	 0.087406
H	 0.3843504794	 0.456082404	 3.4311607326	 0.297382
76.0301	103.2647	160.2874	208.2644	234.2814	294.1555	347.2404	407.0777	432.9248	466.5217	531.8192	627.312	686.563	741.7186	849.2731	854.049	910.2899	927.122	982.7389	984.1924	1032.222	1050.49	1054.7365	1082.9606	1094.4733	1125.16	1144.4543	1158.2186	1169.2995	1220.6639	1251.728	1280.7052	1333.3404	1357.6934	1372.4705	1376.8208	1387.6766	1407.7998	1434.3652	1483.439	1495.8685	1498.0554	1504.1825	2975.7549	2992.4364	3016.4812	3039.7038	3074.4262	3091.0588	3097.5119	3107.5688	3132.058	3544.3718	3783.0168
CC1NC2COC12CO	C[C@H]1N[C@H]2CO[C@@]12CO	
InChI=1S/C6H11NO2/c1-4-6(3-8)5(7-4)2-9-6/h4-5,7-8H,2-3H2,1H3	InChI=1S/C6H11NO2/c1-4-6(3-8)5(7-4)2-9-6/h4-5,7-8H,2-3H2,1H3/t4-,5+,6+/m1/s1
