15
gdb 72350	2.52877	1.72085	1.39508	4.7946	69.35	-0.2638	-0.0082	0.2557	961.9473	0.113225	-416.82065	-416.813046	-416.812101	-416.852734	28.371	
C	-0.0512482595	 1.5036868196	-0.0580776774	-0.479251
C	 0.0129819298	 0.0143049962	 0.0886458581	 0.385188
O	-1.2144457001	-0.6456682813	-0.1874252516	-0.227941
C	-1.2451852306	-1.7276428938	 0.6360192838	 0.097075
N	-0.2770412461	-1.9057885954	 1.4428044388	-0.242397
C	 0.6477103126	-0.8395407679	 1.1661094652	-0.07612
C	 1.2569105304	-0.8015872721	-0.2491189178	-0.29835
C	 1.2019470607	-1.9312524215	-1.1277373578	 0.331725
N	 1.1478983398	-2.8355807036	-1.8469551135	-0.342155
H	 0.9059581578	 1.9525529999	 0.2194239512	 0.13442
H	-0.2738771399	 1.783820765	-1.0920847493	 0.14965
H	-0.8295334824	 1.917979338	 0.5892795772	 0.143705
H	-2.1192275088	-2.3568553973	 0.5313843623	 0.161118
H	 1.2532040213	-0.4745145515	 1.986495123	 0.122355
H	 2.1639311651	-0.2109754944	-0.3263506922	 0.140977
126.5523	131.9375	191.557	225.0266	315.0869	358.7612	400.4863	515.5153	590.6423	659.0631	692.3396	748.5666	781.4133	867.8002	915.5303	926.6222	953.2654	974.667	1046.0272	1083.7375	1099.0524	1116.3283	1132.6132	1215.881	1237.9031	1319.1608	1336.5062	1411.3719	1437.2163	1477.3761	1497.0511	1661.425	2355.1376	3045.5942	3116.6556	3126.8645	3169.6749	3192.4268	3247.1854
CC12OC=NC1C2C#N	C[C@]12OC=N[C@H]1[C@H]2C#N	
InChI=1S/C6H6N2O/c1-6-4(2-7)5(6)8-3-9-6/h3-5H,1H3	InChI=1S/C6H6N2O/c1-6-4(2-7)5(6)8-3-9-6/h3-5H,1H3/t4-,5+,6-/m1/s1
