17
gdb 101224	4.26493	0.87034	0.86719	2.4131	64.66	-0.2703	-0.0014	0.2689	1355.8541	0.13503	-496.118776	-496.109989	-496.109045	-496.152873	32.122	
O	 0.2552970284	 1.3918803333	 0.1490009871	-0.421359
C	 0.1579633742	-0.0110671681	 0.0541227626	-0.07253
C	-1.3073128786	-0.4565954244	 0.1086732321	 0.073103
O	-2.0551267497	 0.2301777609	-0.8909098167	-0.444915
C	-1.4759480254	-1.9625782641	-0.0198805028	 0.105143
C	-2.9039237692	-2.5228261547	-0.1506847144	-0.432543
C	-2.4473560262	-2.9359267807	-1.5473544714	 0.445941
O	-2.8824995543	-3.4953790064	-2.497973426	-0.302866
O	-1.1815822005	-2.4007865177	-1.3991085259	-0.271272
H	-0.429741229	 1.7429657032	-0.4342158879	 0.288136
H	 0.6145457225	-0.3942975365	-0.8746759148	 0.099373
H	 0.716039187	-0.4359381786	 0.896026938	 0.109597
H	-1.7354655476	-0.1369191369	 1.066415701	 0.109678
H	-1.7734193268	-0.1269455415	-1.743960332	 0.297765
H	-0.8302211677	-2.4992657358	 0.6803682207	 0.106879
H	-3.1706122017	-3.3518674431	 0.5055786433	 0.147768
H	-3.6955450153	-1.7723668389	-0.1586783029	 0.162102
74.6667	78.7151	129.8479	174.8227	275.4594	299.853	354.9117	419.7852	480.6388	515.52	518.0056	550.9753	663.2255	740.3219	834.3451	884.7746	898.8936	974.4737	993.5402	1036.9244	1077.8613	1090.0251	1110.5912	1124.3484	1160.5353	1199.6919	1230.7211	1253.4739	1300.1595	1324.859	1368.3779	1396.9359	1426.611	1440.277	1447.5694	1509.8223	1948.8369	2963.555	3050.8627	3067.3922	3084.4786	3097.0931	3158.5067	3765.1142	3774.1274
OCC(O)C1CC(=O)O1	OC[C@@H](O)[C@H]1CC(=O)O1	
InChI=1S/C5H8O4/c6-2-3(7)4-1-5(8)9-4/h3-4,6-7H,1-2H2	InChI=1S/C5H8O4/c6-2-3(7)4-1-5(8)9-4/h3-4,6-7H,1-2H2/t3-,4-/m1/s1
