17
gdb 69588	3.63668	1.31997	1.18972	1.5046	74.21	-0.2328	-0.0022	0.2306	1064.1369	0.135437	-421.790201	-421.78258	-421.781636	-421.821935	30.528	
O	-0.0405399598	 1.4181464037	 0.0271555198	-0.466846
C	-0.0082066629	 0.0253319026	 0.0471980093	 0.358264
C	-0.4274852475	-0.773202336	-1.16706578	-0.341058
C	-1.2909280353	-0.7689328275	 0.085324303	-0.197377
C	-1.0724108989	-1.8829040575	 1.0776870084	 0.442776
C	-2.140149375	-2.4867261191	 1.8904037887	-0.253297
O	-1.57773257	-3.1990036671	 0.7897732135	-0.282651
C	 0.3456089763	-1.7536936082	 1.5349622144	-0.15361
C	 0.925569594	-0.6839161181	 0.9873020138	-0.169911
H	 0.6385753976	 1.7245159828	-0.5833829436	 0.285852
H	-0.8265494759	-0.2048008135	-2.0011791953	 0.114971
H	 0.1221833839	-1.6703488767	-1.4301970941	 0.123361
H	-2.2483050309	-0.2660103231	 0.0381733236	 0.10169
H	-1.9115809343	-2.8851069636	 2.878718889	 0.112109
H	-3.1669819892	-2.1463475611	 1.7548943404	 0.114163
H	 0.8080538072	-2.4832909713	 2.1882546196	 0.10937
H	 1.9458363308	-0.3548170563	 1.1487217597	 0.102194
111.8655	221.0449	249.5079	281.7679	346.5187	374.7346	396.1302	451.3611	537.9441	608.2865	634.2688	744.764	789.4726	800.3645	844.653	891.0752	917.3236	945.5187	953.1719	973.7917	978.4146	1018.9479	1060.3557	1063.711	1110.639	1128.9084	1159.0918	1220.8759	1226.8648	1279.1856	1311.7578	1352.2499	1382.3165	1434.4975	1473.5958	1525.2963	1662.4559	3071.2097	3126.4562	3157.5404	3192.1021	3196.9365	3219.5704	3222.361	3801.2364
OC12CC1C1(CO1)C=C2	O[C@]12C[C@H]1[C@]1(CO1)C=C2	
InChI=1S/C7H8O2/c8-6-1-2-7(4-9-7)5(6)3-6/h1-2,5,8H,3-4H2	InChI=1S/C7H8O2/c8-6-1-2-7(4-9-7)5(6)3-6/h1-2,5,8H,3-4H2/t5-,6-,7-/m1/s1
