21
gdb 104220	2.6477	1.25579	1.18481	2.4778	78.68	-0.2259	0.0578	0.2837	1200.5725	0.18004	-424.192553	-424.182908	-424.181964	-424.226865	36.414	
C	-0.2309915632	 1.6102944498	 0.1065668259	-0.41342
C	-0.083159689	 0.0857788586	 0.036166773	-0.224397
C	 0.7793430742	-0.5126592419	 1.1489263172	 0.244476
O	 2.1088244767	-0.0430937913	 1.1188551187	-0.478609
C	 0.0940099451	-0.5736744954	 2.5456854785	-0.126479
O	-0.107458514	-1.9996315775	 2.4173537841	-0.311337
C	 0.7166475215	-2.0367822523	 1.2519309183	 0.446217
C	 0.5908697753	-3.0964130669	 0.2121282754	-0.35061
C	 1.8338735692	-3.0097463522	 1.0907872659	-0.327763
H	 0.7261336951	 2.1267941927	-0.035365133	 0.110477
H	-0.8985018997	 1.9711876	-0.6809457918	 0.126413
H	-0.6478393299	 1.9329895675	 1.066900102	 0.124572
H	-1.0723629303	-0.3825873392	 0.0850556597	 0.114398
H	 0.3534633204	-0.1993982547	-0.9285877875	 0.104419
H	 2.0940129737	 0.9124371759	 1.0031674348	 0.279892
H	 0.7799579383	-0.3261771587	 3.364422694	 0.101954
H	-0.8547283349	-0.0404693609	 2.6719194079	 0.095517
H	-0.1107907008	-3.8985034468	 0.4155217942	 0.122776
H	 0.6706211323	-2.8179793558	-0.8339187296	 0.113695
H	 2.7572615993	-2.6476149745	 0.6525998484	 0.12774
H	 1.9492415105	-3.7582871865	 1.8671541042	 0.120068
69.939	100.8246	148.8414	208.6311	224.5761	242.3476	268.6484	314.6086	357.2408	417.1411	466.357	531.0117	599.2585	687.1906	758.8359	786.9966	861.7388	866.6514	903.3466	944.9367	970.2177	982.9084	1009.61	1014.2696	1039.7917	1046.4872	1064.0826	1098.4954	1158.8705	1185.7681	1191.3907	1222.7636	1236.5146	1294.1881	1311.8465	1347.8861	1363.6711	1407.8956	1429.2606	1447.1579	1476.0071	1493.9714	1499.0832	1510.1502	1519.6448	3020.3379	3025.8512	3034.5435	3069.7986	3075.489	3093.5564	3109.1658	3126.5685	3135.2012	3211.2453	3229.7434	3815.8842
CCC1(O)COC11CC1	CC[C@@]1(O)COC21CC2	
InChI=1S/C7H12O2/c1-2-6(8)5-9-7(6)3-4-7/h8H,2-5H2,1H3	InChI=1S/C7H12O2/c1-2-6(8)5-9-7(6)3-4-7/h8H,2-5H2,1H3/t6-/m1/s1
