12
gdb 5361	5.5809	1.61137	1.25035	1.601	63.77	-0.269	-0.0872	0.1818	874.8874	0.086076	-377.580268	-377.574108	-377.573164	-377.610836	22.017	
O	-0.0731805654	-0.0250150719	-0.0016932939	-0.257022
C	-0.0106196534	 1.1810749848	 0.0070189188	 0.093466
C	 1.254696475	 1.9473720858	-0.0006051305	 0.111003
C	 2.5024550633	 1.3145936404	-0.0192415766	-0.016945
N	 3.6444627481	 1.9963010261	-0.026192812	-0.246256
C	 3.527891218	 3.3295208593	-0.0142426158	 0.094407
N	 2.4021323098	 4.0463708328	 0.0037704394	-0.249472
C	 1.2708283216	 3.3407347167	 0.010400048	-0.030221
H	-0.9294679334	 1.8081966961	 0.0219002511	 0.084915
H	 2.5582888521	 0.2291793507	-0.0285702451	 0.151666
H	 4.4576426627	 3.8931271876	-0.0197439251	 0.134725
H	 0.3394732416	 3.9060130216	 0.0250367516	 0.129735
117.7048	204.8104	227.6577	404.4839	414.0263	451.6427	639.9238	690.7701	745.3192	850.1245	939.7879	1012.341	1028.1921	1054.0716	1056.3499	1135.8749	1209.9513	1243.4525	1252.8738	1362.6269	1422.2683	1446.0141	1471.0087	1594.1869	1624.9205	1804.0549	2889.0065	3139.1232	3172.3385	3177.8972
O=CC1=CN=CN=C1	O=Cc1cncnc1	
InChI=1S/C5H4N2O/c8-3-5-1-6-4-7-2-5/h1-4H	InChI=1S/C5H4N2O/c8-3-5-1-6-4-7-2-5/h1-4H
