13
gdb 10373	2.57193	2.17535	1.43611	4.5411	62.84	-0.2811	-0.0301	0.2509	861.1665	0.096463	-357.631968	-357.624669	-357.623724	-357.663691	26.056	
N	 0.0759071928	-1.1838389817	 0.0144982215	-0.319612
C	-0.0026319683	-0.0308925596	 0.0034792793	 0.259432
C	-0.0197638739	 1.4427387058	 0.0211584988	 0.036473
C	-0.2106486437	 2.0122498524	 1.4754428469	-0.262255
C	 1.3255819211	 2.1935870999	 1.4896194427	-0.163101
N	 1.323284575	 2.0625603431	 0.0110002589	-0.317119
C	-0.9314481689	 1.9485837269	-1.0141511766	 0.27805
N	-1.6569669696	 2.3736254789	-1.8054507142	-0.318115
H	-0.7593938488	 2.9529024145	 1.4523476513	 0.153642
H	-0.6559070174	 1.3285485354	 2.1950706823	 0.148109
H	 1.7101743324	 3.1525973274	 1.8436623415	 0.1308
H	 1.8383195213	 1.3798956771	 2.015823358	 0.125679
H	 2.0563773581	 1.50478791	-0.4137172403	 0.248018
125.1202	134.5947	181.7313	195.4942	280.2795	482.929	502.6797	536.3205	593.1486	600.3512	695.5041	771.7173	914.4652	928.2119	967.9022	1021.1343	1049.7311	1097.6797	1170.6659	1196.7521	1212.8951	1268.2518	1326.3166	1390.5037	1479.341	1528.3484	2351.693	2366.6397	3036.652	3102.0025	3111.9615	3179.7227	3541.4714
N#CC1(CCN1)C#N	N#CC1(CCN1)C#N	
InChI=1S/C5H5N3/c6-3-5(4-7)1-2-8-5/h8H,1-2H2	InChI=1S/C5H5N3/c6-3-5(4-7)1-2-8-5/h8H,1-2H2
