15
gdb 13734	3.17824	1.64558	1.34603	5.8626	66.78	-0.2616	-0.034	0.2276	950.3089	0.117562	-362.687093	-362.678941	-362.677997	-362.720276	28.702	
C	-0.4445258952	 1.3446096432	 0.0572263101	-0.487733
C	 0.0197299298	-0.0944047165	 0.1191974972	 0.392607
O	 0.3433349075	-0.6358037011	 1.1515845891	-0.300726
C	 0.0547058337	-0.8357330298	-1.190094579	-0.121377
C	 0.890042096	-2.0847105073	-1.2693835987	-0.283298
C	-0.6083246869	-2.2231733011	-1.267725105	-0.165311
C	-1.3072498168	-2.7834426174	-0.143320115	 0.308802
N	-1.9092758849	-3.2648863812	 0.7184728537	-0.334359
H	 0.2141761343	 1.9273636585	-0.5974066872	 0.142598
H	-1.4504948709	 1.3978269049	-0.3749086512	 0.147777
H	-0.4479342796	 1.7780324963	 1.0573872991	 0.151459
H	-0.0637090914	-0.2364306086	-2.0860934213	 0.105459
H	 1.4103873087	-2.3040607169	-2.1935965083	 0.134473
H	 1.40012211	-2.3519256193	-0.3514248626	 0.166887
H	-1.0818796241	-2.4459491039	-2.2182702809	 0.142741
50.5396	113.9483	140.9229	189.0442	264.6964	274.4272	370.2284	514.8758	546.2854	599.6592	652.8258	751.8798	770.4987	852.3791	905.6889	950.1606	988.6546	1051.4499	1067.7216	1104.9081	1129.391	1145.8769	1184.989	1217.4521	1375.9208	1380.6844	1406.074	1462.3514	1468.3407	1474.1457	1806.604	2360.2476	3034.0029	3093.4598	3150.4596	3158.756	3166.2808	3176.848	3250.8705
CC(=O)C1CC1C#N	CC(=O)[C@H]1C[C@H]1C#N	
InChI=1S/C6H7NO/c1-4(8)6-2-5(6)3-7/h5-6H,2H2,1H3	InChI=1S/C6H7NO/c1-4(8)6-2-5(6)3-7/h5-6H,2H2,1H3/t5-,6+/m0/s1
