19
gdb 51174	3.84542	0.99806	0.89702	1.6346	75.32	-0.2317	-0.0235	0.2082	1308.6132	0.158872	-423.021875	-423.013422	-423.012478	-423.055861	31.412	
O	-0.5760772863	 0.39157038	 0.4050391869	-0.240459
C	 0.2131645351	 0.8243020765	-0.394155067	 0.170536
C	 1.2876168744	 1.8493179154	-0.0854967059	-0.380089
C	 1.2484961981	 3.0202235848	-1.0457840023	 0.297044
C	 1.9260192829	 2.9303895145	-2.4109355417	-0.376966
C	 2.4421463157	 3.8808682676	-1.3593996064	 0.077131
O	 2.0816159338	 5.2318050362	-1.4250900171	-0.256453
C	 0.6620607298	 5.2991995786	-1.5745592132	-0.094564
C	 0.088193096	 4.0084474486	-0.9499113707	-0.296595
H	 0.1984744049	 0.4873646847	-1.4568814746	 0.075906
H	 1.1683118171	 2.1725055031	 0.9540180228	 0.121462
H	 2.2573679005	 1.3387261755	-0.1729899322	 0.117896
H	 2.5233746994	 2.0459380456	-2.6078733851	 0.11399
H	 1.4221177399	 3.3270978964	-3.2856955528	 0.120365
H	 3.4196809272	 3.7399542371	-0.9127106702	 0.104895
H	 0.316250199	 6.2126078492	-1.0839869778	 0.116193
H	 0.3983336957	 5.368054961	-2.6388542621	 0.102487
H	-0.8206221049	 3.6804324931	-1.4639158312	 0.111656
H	-0.1628825284	 4.1587991622	 0.1059294405	 0.115564
50.4101	74.625	146.597	215.7212	278.349	306.9176	359.1234	456.1592	472.921	619.9284	691.6013	702.8674	796.0022	846.0872	868.7891	902.3249	930.7958	951.8156	991.4397	1002.5945	1029.8019	1040.8731	1069.9843	1081.5248	1116.6719	1169.0631	1190.4896	1218.6288	1235.2858	1256.2645	1298.4863	1313.1271	1326.1072	1380.235	1412.3709	1426.5508	1452.6332	1480.4909	1496.0764	1526.9909	1834.8038	2863.3181	3006.1126	3011.921	3043.0495	3082.5437	3084.63	3096.8449	3129.9828	3181.5413	3215.2976
O=CCC12CC1OCC2	O=CC[C@]12C[C@H]1OCC2	
InChI=1S/C7H10O2/c8-3-1-7-2-4-9-6(7)5-7/h3,6H,1-2,4-5H2	InChI=1S/C7H10O2/c8-3-1-7-2-4-9-6(7)5-7/h3,6H,1-2,4-5H2/t6-,7+/m1/s1
