16
gdb 49797	2.74028	1.57065	1.00459	2.7425	76.49	-0.2205	-0.0025	0.218	1123.4644	0.12731	-434.124961	-434.117073	-434.116128	-434.157936	29.118	
N	-0.0025138494	 1.3575496305	 0.0061978658	-0.481284
C	 0.0147330978	 0.0867596516	 0.0021810699	 0.094873
N	-1.1681780083	-0.6529659818	 0.0093857064	-0.183234
C	-2.414051274	-0.0069956392	 0.0209559895	 0.045213
C	-3.5658919134	-0.6700186845	 0.0282332057	-0.143998
C	-3.6181712976	-2.1654537787	 0.0246247658	-0.202803
N	-2.2699726574	-2.7175528141	 0.01240896	-0.387297
C	-1.0761382333	-2.0617775929	 0.0046242903	 0.511426
O	-0.0064004784	-2.6404376304	-0.0060037691	-0.406348
H	 0.9487159929	 1.7186366577	-3.5897*^-6	 0.232128
H	 0.8857189038	-0.5673591614	-0.0064153004	 0.147308
H	-2.330023539	 1.0710724204	 0.0231674196	 0.159771
H	-4.5028039905	-0.1282690354	 0.0370067096	 0.11009
H	-4.1636052348	-2.5337489834	 0.9078421705	 0.12255
H	-4.1776317465	-2.5290274734	-0.8517443098	 0.122549
H	-2.1580447219	-3.7191017548	 0.0081486261	 0.259057
66.8552	112.6635	161.2391	256.4368	258.5296	401.7042	456.3226	540.098	547.3237	580.661	610.8045	737.5329	767.8331	787.8599	822.4392	884.4513	943.2915	989.235	1041.2312	1065.4123	1077.3715	1146.352	1174.1393	1241.2029	1260.9639	1316.3076	1363.0766	1395.9404	1411.5388	1449.1767	1492.3332	1533.5729	1715.29	1752.4816	1806.9553	2970.1778	2979.4461	3148.7511	3214.9237	3242.686	3516.0484	3642.0199
N=CN1C=CCNC1=O	[NH][CH]N1C=CCNC1=O	
InChI=1S/C5H7N3O/c6-4-8-3-1-2-7-5(8)9/h1,3-4,6H,2H2,(H,7,9)	InChI=1S/C5H7N3O/c6-4-8-3-1-2-7-5(8)9/h1,3-4,6H,2H2,(H,7,9)
