16
gdb 37712	3.72407	2.04499	1.58348	1.8719	71.41	-0.2432	0.009	0.2523	827.8833	0.127568	-400.677606	-400.671966	-400.671022	-400.707243	24.34	
C	-0.0961841454	 1.5589919377	 0.010127786	-0.334648
C	 1.4350510861	 1.2444453533	-0.0080637972	-0.087673
C	 1.2700183574	 0.0410329688	 0.9658216165	-0.107381
C	 1.8691684356	-1.0015630282	 0.0191023009	 0.094684
O	 1.1363232714	-2.2586723241	 0.0489132056	-0.255935
C	-0.2140319012	-2.1576146297	 0.0676254999	 0.107818
N	-0.8946021993	-1.077558518	 0.061602617	-0.373403
C	-0.0013346715	 0.0293279794	 0.0316398551	 0.392828
C	 1.2414962751	 0.012466206	-0.9400834152	-0.10738
H	-0.4865547832	 2.0455285181	 0.909479562	 0.10206
H	-0.5134964909	 2.0185348187	-0.8913222707	 0.102061
H	 2.2657300477	 1.9479408489	-0.0310400988	 0.081355
H	 1.2431242854	 0.0546415802	 2.0545134044	 0.08464
H	 2.9252257824	-1.2726264587	 0.0073600193	 0.086693
H	-0.6806998124	-3.1388968309	 0.0892854761	 0.129643
H	 1.1820478831	-0.0065392016	-2.027402561	 0.084639
280.7617	334.1708	409.7237	439.799	561.2983	611.3379	632.2617	740.6695	773.332	851.3416	860.5681	878.1262	898.7706	900.5562	934.8429	953.2883	957.0321	998.6663	1033.6862	1050.5495	1107.1917	1111.1681	1132.4089	1142.2381	1157.0138	1184.9163	1213.4171	1238.5385	1242.3945	1301.0053	1321.2748	1360.3979	1397.4615	1513.9401	1650.9316	3043.0978	3103.2976	3108.3263	3123.107	3126.3693	3137.2376	3179.3724
C1C2C3C4OC=NC13C24	C1[C@H]2[C@@H]3[C@H]4O[CH][N][C@@]13[C@@H]24	
InChI=1S/C7H7NO/c1-3-4-6-5(3)7(1,4)8-2-9-6/h2-6H,1H2	InChI=1S/C7H7NO/c1-3-4-6-5(3)7(1,4)8-2-9-6/h2-6H,1H2/t3-,4+,5-,6+,7-
