16
gdb 71737	2.717	2.06701	1.52389	2.7363	66.27	-0.2153	0.0448	0.2601	874.2961	0.124669	-437.806071	-437.799076	-437.798132	-437.836918	28.763	
O	 0.0070026415	 1.3203553205	 0.0678443553	-0.485017
C	-0.0157683709	-0.0618902805	-0.0087143373	 0.343854
C	-0.4757323475	-0.7754162616	-1.2598069063	-0.297132
C	-0.2517738369	-2.1920285556	-0.7785595686	-0.043023
C	 0.8942013683	-2.285485344	 0.1701286698	-0.145837
N	-0.508938487	-2.3295014265	 0.6983209702	-0.149974
C	-0.3400913853	-0.9176625439	 1.2080310559	-0.153669
C	 1.074383814	-0.8531211326	 0.7043538513	 0.280284
O	 2.1711373718	-0.2456207923	 1.2812009859	-0.466489
H	 0.7847236346	 1.5639020169	 0.5876176253	 0.285744
H	-1.5255451522	-0.5761457421	-1.4971360253	 0.119254
H	 0.1374484406	-0.5296498325	-2.1334713078	 0.107075
H	-0.5616270084	-3.0482134102	-1.3672923502	 0.100704
H	 1.5748608488	-3.1223923494	 0.2839001388	 0.102169
H	-0.8285054561	-0.5825778496	 2.1130735309	 0.109579
H	 2.8222850246	-0.0717549467	 0.5890677118	 0.292477
207.4836	220.3102	252.036	349.3845	389.2506	430.8306	454.3871	543.965	609.9774	655.9825	713.0208	738.3617	771.2269	802.0065	817.4562	905.7614	944.569	956.0273	988.4972	1017.5552	1035.5128	1066.996	1072.3041	1138.1862	1166.0121	1190.5649	1199.1255	1219.6258	1266.845	1316.5966	1350.7961	1354.8706	1404.0767	1472.2185	1493.0614	3048.1399	3093.9466	3165.2965	3183.0236	3208.0682	3749.9466	3760.1048
OC12CC3C4N3C1C24O	O[C@]12C[C@H]3[C@@H]4N3[C@H]1[C@]24O	
InChI=1S/C6H7NO2/c8-5-1-2-3-6(5,9)4(5)7(2)3/h2-4,8-9H,1H2	InChI=1S/C6H7NO2/c8-5-1-2-3-6(5,9)4(5)7(2)3/h2-4,8-9H,1H2/t2-,3-,4+,5+,6-,7?/m0/s1
