16
gdb 27346	2.01387	1.83091	0.96478	5.2416	77.37	-0.2054	-0.006	0.1994	1169.607	0.126271	-434.130903	-434.122807	-434.121863	-434.163458	30.797	
C	-0.0198730915	 1.4856908606	 0.0684144463	-0.495846
C	-0.000460577	-0.0064474376	-0.0438611811	 0.359066
C	-0.0182726061	-0.7149792415	-1.1855168912	-0.202458
C	 0.0037607574	-2.1787691382	-1.1761562878	 0.327344
N	-0.0137857652	-2.8331388604	-2.2782393468	-0.546658
N	 0.0444806582	-2.8053847549	 0.0898753041	-0.434441
C	 0.0595833709	-2.0699609982	 1.138029011	 0.494956
O	 0.0981797006	-2.6030975448	 2.3723707117	-0.4137
N	 0.0398943281	-0.7071979408	 1.1618341613	-0.415955
H	 0.8718878662	 1.8554957553	 0.5892503504	 0.138931
H	-0.0513195305	 1.9398472931	-0.9225037654	 0.151984
H	-0.8951937099	 1.829191943	 0.633286665	 0.138931
H	-0.0495295332	-0.2175334056	-2.145582733	 0.110804
H	 0.0064020594	-3.8325684594	-2.0647932578	 0.204849
H	 0.1092108126	-3.5616485849	 2.2402818289	 0.313493
H	 0.0550107899	-0.2314241156	 2.0490473543	 0.268702
121.3169	155.5975	179.6384	229.6251	286.3212	357.5086	404.7404	503.9408	531.3874	539.8104	555.1228	564.854	630.7451	704.1011	760.5017	875.156	905.8813	926.5958	979.7098	1011.3659	1068.1944	1080.5045	1135.7379	1185.1033	1245.3152	1301.7891	1375.222	1408.6899	1426.5402	1478.0887	1488.329	1550.884	1660.5648	1698.7514	1739.952	3025.1994	3074.754	3146.1648	3227.8975	3456.2135	3653.7236	3775.2266
CC1=CC(=N)N=C(O)N1	C[C@@H]1C=C([NH])N=C(O)N1	
InChI=1S/C5H7N3O/c1-3-2-4(6)8-5(9)7-3/h2H,1H3,(H3,6,7,8,9)	InChI=1S/C5H8N3O/c1-3-2-4(6)8-5(9)7-3/h2-3,6H,1H3,(H2,7,8,9)/t3-/m1/s1
