19
gdb 47726	2.51206	1.67949	1.14502	2.8531	76.09	-0.2357	-0.0233	0.2124	1087.7176	0.162207	-419.20482	-419.196991	-419.196047	-419.237148	30.66	
O	 0.0605744401	 0.0366506024	 0.3511680192	-0.336646
C	 0.0034375239	 1.223895832	 0.1051170999	 0.322508
C	-1.311748087	 1.961270512	-0.081151231	-0.281476
C	-1.2025290043	 3.1290155998	-1.0718446039	-0.176518
N	-0.0770442457	 3.9747119595	-0.6850956175	-0.29917
C	 1.1943252084	 3.281722638	-0.8794540844	-0.259419
C	 1.2551117753	 2.058689729	 0.0197693152	 0.264213
C	 2.0949628334	 2.0294632173	 1.2608934645	-0.255846
N	 2.5257370653	 1.3344028883	 0.050568744	-0.35408
H	-2.081894606	 1.2406877629	-0.3676746603	 0.121793
H	-1.5794554118	 2.3671674014	 0.903437593	 0.137582
H	-1.1014583831	 2.7276157575	-2.0983227389	 0.08848
H	-2.1218235612	 3.7217798311	-1.0458775369	 0.10656
H	-0.0845473325	 4.8335438778	-1.2234544822	 0.224879
H	 1.3431981167	 2.9451379819	-1.9231597867	 0.09177
H	 2.0198886478	 3.9573471433	-0.6382141986	 0.10912
H	 2.6638005809	 2.918409369	 1.5211456743	 0.122596
H	 1.7375917623	 1.4395613271	 2.100646238	 0.127072
H	 2.3020104776	 0.3424344098	 0.1440536624	 0.246581
87.9788	137.7013	254.1443	292.6826	306.5239	386.6438	393.3143	437.4281	507.6752	583.5819	646.5568	671.7307	801.0643	848.8376	865.2629	901.0066	946.7916	971.2887	995.8557	1004.744	1039.6209	1080.9805	1102.4955	1118.6205	1154.436	1168.2354	1191.7339	1220.3486	1288.2584	1301.4795	1325.6784	1341.967	1357.3796	1383.1331	1427.166	1445.4278	1481.9714	1497.2654	1504.2478	1512.1421	1786.426	2919.2897	2922.2239	3032.2862	3075.081	3079.78	3105.5696	3107.5635	3197.5905	3456.7142	3534.7256
O=C1CCNCC11CN1	O=C1CCNC[C@]21CN2	
InChI=1S/C6H10N2O/c9-5-1-2-7-3-6(5)4-8-6/h7-8H,1-4H2	InChI=1S/C6H10N2O/c9-5-1-2-7-3-6(5)4-8-6/h7-8H,1-4H2/t6-/m1/s1
