19
gdb 88853	3.84714	1.06704	0.91324	1.3634	76.62	-0.2273	0.0185	0.2458	1288.8216	0.160281	-419.180757	-419.172255	-419.171311	-419.214978	30.957	
C	-0.4727659907	 1.2743820738	 0.0162363008	-0.31634
N	 0.0423694707	-0.083697091	 0.1080621861	-0.088213
C	 1.4249895776	-0.3167729224	-0.29185767	-0.253945
C	 1.0233997843	-0.4405389546	 1.1358278436	 0.020647
C	 1.5362506106	 0.5350574524	 2.1772030498	-0.01486
C	 0.6170357614	 0.6482406629	 3.4280587876	-0.127155
O	 1.4730568463	 0.2777492962	 4.5364312768	-0.218979
C	 2.6646641747	-0.0339730974	 3.9761737943	 0.118407
N	 2.8301499798	 0.0660867728	 2.7244892363	-0.268144
H	 0.277969927	 2.0671389563	 0.1623586424	 0.102025
H	-0.9072721578	 1.4124749332	-0.9790092769	 0.128045
H	-1.2718369694	 1.4146960441	 0.7522720689	 0.120874
H	 1.6105855195	-1.1998840565	-0.8971847204	 0.117383
H	 2.0329193676	 0.5492220149	-0.5540133271	 0.109688
H	 0.8701801727	-1.4413041412	 1.5405748856	 0.091754
H	 1.700098352	 1.5143471828	 1.7178317154	 0.089103
H	 0.2427936238	 1.6587347839	 3.6083356432	 0.121572
H	-0.2267639218	-0.0480273991	 3.4019700077	 0.124897
H	 3.419196362	-0.3558335513	 4.6856599659	 0.143241
53.1851	59.0719	135.1273	214.7677	233.5052	317.5741	351.962	409.4288	517.2512	543.2368	733.0641	755.1352	840.7803	887.127	904.9624	957.3303	963.5816	965.1476	1003.3875	1021.8112	1039.706	1100.6681	1123.3076	1131.7619	1133.7833	1163.593	1190.1574	1204.6769	1227.1907	1287.6646	1306.0559	1322.2018	1335.8556	1376.3012	1433.4433	1450.4814	1489.8118	1504.3017	1514.6495	1515.7253	1703.8976	2976.3897	3052.1801	3055.9855	3064.0024	3087.4965	3096.7865	3100.0281	3107.858	3176.4045	3215.5298
CN1CC1C1COC=N1	CN1C[C@H]1[C@H]1COC=N1	
InChI=1S/C6H10N2O/c1-8-2-6(8)5-3-9-4-7-5/h4-6H,2-3H2,1H3	InChI=1S/C6H10N2O/c1-8-2-6(8)5-3-9-4-7-5/h4-6H,2-3H2,1H3/t5-,6+,8?/m1/s1
