18
gdb 9367	7.66072	0.69728	0.65162	5.0421	65.63	-0.2442	-0.0086	0.2356	1655.8439	0.150256	-422.076368	-422.066272	-422.065328	-422.112923	33.728	
O	 0.015520058	 1.3969736463	-0.1346537413	-0.418661
C	 0.0359368198	-0.0110031393	 0.0346168814	-0.076562
C	-1.3998634047	-0.5104777144	-0.0472136673	-0.158738
C	-1.5011955253	-2.0270569558	 0.1074713292	-0.319382
C	-2.9390593511	-2.53569159	 0.1403051087	 0.375605
O	-3.8852253636	-1.8158551649	 0.3341960263	-0.275733
C	-3.0906290787	-4.0382447356	-0.0872853944	-0.168653
O	-4.4193416899	-4.4249613119	 0.1387728998	-0.393635
H	 0.9192064532	 1.7208927132	-0.0813555841	 0.28563
H	 0.6483992537	-0.4972033493	-0.7437920993	 0.07979
H	 0.4723096059	-0.2905403701	 1.0086344841	 0.082026
H	-1.9991073461	-0.0226492874	 0.7265201816	 0.13105
H	-1.8288008228	-0.2021746568	-1.0066835041	 0.116114
H	-0.9513881234	-2.5511655801	-0.6863765245	 0.110452
H	-1.0281826373	-2.3507038803	 1.0474102594	 0.125922
H	-2.7580103303	-4.2397944023	-1.1216595088	 0.108793
H	-2.3737008813	-4.5575031239	 0.5729179891	 0.103114
H	-4.4924560163	-5.3654616274	-0.0471470157	 0.292869
31.6615	60.2136	88.9361	120.0093	128.0713	229.5377	253.0466	261.6282	291.72	345.4029	464.7329	502.9952	673.0272	734.897	815.1226	859.1469	955.3594	1001.7671	1037.0818	1069.8843	1095.1843	1123.2067	1149.8948	1204.7892	1233.208	1242.0388	1255.809	1297.2081	1304.182	1319.0224	1387.5189	1442.6044	1455.5957	1466.2684	1493.7182	1495.4718	1527.5262	1833.2593	2944.1603	2949.1048	2966.0978	2972.698	3002.089	3036.5155	3058.3835	3107.1493	3831.3018	3836.4165
OCCCC(=O)CO	OCCCC(=O)CO	
InChI=1S/C5H10O3/c6-3-1-2-5(8)4-7/h6-7H,1-4H2	InChI=1S/C5H10O3/c6-3-1-2-5(8)4-7/h6-7H,1-4H2
