20
gdb 67620	2.67657	1.81613	1.44471	1.5766	82.06	-0.2151	0.0891	0.3042	1008.7367	0.171557	-365.975864	-365.968079	-365.967135	-366.007523	31.559	
C	-0.0648242237	 1.4770291041	 0.1120231204	-0.504791
C	-0.013154607	-0.0107153027	-0.0036997881	 0.379123
C	-0.060840733	-0.8470875945	-1.256358592	-0.12392
C	 1.0432409237	-1.8833906294	-1.216279093	-0.247291
C	 1.0842171535	-2.0835950143	 0.2817612013	-0.097155
N	 0.7768321712	-0.8118535764	 1.0188016824	-0.236843
C	-0.2554446379	-1.8989577657	 0.8995145226	 0.36041
C	-0.811578194	-2.6223271205	 2.0851254392	-0.509195
C	-1.0624378916	-1.0858734562	-0.1287350989	-0.229685
H	 0.9264026399	 1.914161147	-0.0562526514	 0.124159
H	-0.7530087355	 1.899477036	-0.6270610132	 0.116374
H	-0.4004070465	 1.7839474489	 1.1079362772	 0.126745
H	-0.4084516922	-0.3988606991	-2.1792938392	 0.086409
H	 0.7895847698	-2.8080635202	-1.7467199012	 0.10378
H	 1.990664818	-1.5018679134	-1.6127907635	 0.106048
H	 1.8345053757	-2.7076055663	 0.7557180099	 0.089989
H	-1.5098350149	-1.9879809824	 2.6423218992	 0.1232
H	-1.3492978845	-3.526774744	 1.7768826523	 0.118168
H	-0.007207925	-2.916569019	 2.7655639909	 0.128195
H	-2.1379491161	-1.0251664821	-0.2266211148	 0.086279
173.5382	191.3824	196.3916	246.0136	290.2681	309.7954	415.4069	549.6882	581.2862	599.6813	699.2114	745.6378	791.2687	806.7362	832.7669	866.9064	896.3435	909.642	954.5156	969.2845	980.1118	1013.5827	1034.9676	1045.5093	1088.1665	1094.6158	1122.7296	1135.1371	1178.5368	1200.7848	1221.2061	1278.3477	1288.9939	1308.959	1404.8418	1408.1193	1439.1811	1458.7163	1477.0684	1481.4159	1488.2249	1494.1428	1500.1463	3025.769	3027.1214	3039.5085	3081.4268	3086.4546	3089.9851	3105.533	3110.3474	3172.8911	3191.672	3204.6269
CC12C3CC4N1C4(C)C23	C[C@@]12[C@H]3C[C@H]4N1[C@@]4(C)[C@@H]23	
InChI=1S/C8H11N/c1-7-4-3-5-8(2,6(4)7)9(5)7/h4-6H,3H2,1-2H3	InChI=1S/C8H11N/c1-7-4-3-5-8(2,6(4)7)9(5)7/h4-6H,3H2,1-2H3/t4-,5+,6+,7-,8+,9?/m0/s1
