18
gdb 83209	2.59043	1.5377	1.27367	4.7551	75.24	-0.2741	0.0165	0.2906	1049.6326	0.148788	-401.95116	-401.943055	-401.942111	-401.983808	30.641	
C	-0.2205102015	 1.5387004781	 0.0157815172	-0.430188
C	 0.0218325288	 0.0422988486	 0.0366847432	-0.011789
C	 1.3568826077	-0.6134277853	-0.2320015429	-0.089486
C	 2.6102991713	 0.2208961238	-0.050723411	-0.099353
O	 2.5046854667	 0.8456482958	 1.23417075	-0.261148
C	 1.6654633473	 0.0516053159	 2.0654476761	-0.030795
C	 0.9922881108	 0.9302846729	 3.0361977721	 0.284005
N	 0.4488788021	 1.5781200714	 3.8229160188	-0.324413
C	 0.7265319914	-0.7137037629	 1.1408816145	-0.087531
H	 0.6292827536	 2.1044246304	 0.4003148389	 0.149355
H	-0.4171010937	 1.872621018	-1.0087045656	 0.116526
H	-1.0945050851	 1.7944619696	 0.62263145	 0.134848
H	-0.8107601497	-0.5272200705	-0.3704052984	 0.095509
H	 1.4147274145	-1.4735211016	-0.8890632363	 0.098459
H	 3.5021532283	-0.4212991354	-0.0957651403	 0.106465
H	 2.7289340257	 1.0276638847	-0.7811323429	 0.121648
H	 2.2624158381	-0.6722445268	 2.6441756389	 0.121959
H	 0.3059254536	-1.6361881168	 1.5222129376	 0.105927
92.8602	148.2126	198.9978	213.1334	239.5997	279.1614	415.2305	480.8236	517.5819	555.744	685.9529	739.5241	775.1001	791.2744	869.9474	919.9279	976.6242	978.0571	991.2836	1033.0326	1050.2138	1076.6665	1109.7003	1117.7483	1132.4562	1148.3423	1222.7517	1236.4847	1305.4216	1327.9286	1348.7687	1368.1548	1377.72	1422.8454	1445.405	1501.6787	1505.1551	1521.9101	2364.4875	2970.8516	2998.8348	3041.716	3074.7018	3100.2598	3126.0199	3146.2602	3176.5967	3189.0971
CC1C2COC(C#N)C12	C[C@H]1[C@H]2CO[C@@H](C#N)[C@@H]12	
InChI=1S/C7H9NO/c1-4-5-3-9-6(2-8)7(4)5/h4-7H,3H2,1H3	InChI=1S/C7H9NO/c1-4-5-3-9-6(2-8)7(4)5/h4-7H,3H2,1H3/t4-,5+,6-,7-/m0/s1
