17
gdb 7110	7.19412	0.83287	0.75683	1.2038	68.44	-0.2748	-0.0211	0.2536	1484.3306	0.140128	-401.042584	-401.033374	-401.03243	-401.077683	31.084	
C	 0.0404447366	 1.5894320668	-0.1059553333	-0.387156
C	-0.0012964441	 0.0628267535	-0.0087312407	-0.163284
C	 0.6836468641	-0.6128547619	-1.1969730038	-0.314784
C	 0.6555598307	-2.118919178	-1.1236433405	 0.463642
O	 0.1649899507	-2.7839575169	-0.2532964505	-0.333221
O	 1.2896356391	-2.6495480396	-2.2262755189	-0.209238
C	 1.3638791906	-4.0154453033	-2.334136775	 0.115245
N	 1.9429936521	-4.4962190114	-3.3419315815	-0.419733
H	 1.0713254346	 1.9595641138	-0.1345956611	 0.117284
H	-0.4632644968	 1.9456841689	-1.011435003	 0.117285
H	-0.4547362882	 2.0507037785	 0.7533781953	 0.119387
H	 0.4785394298	-0.2704151215	 0.9176581686	 0.115803
H	-1.0383851036	-0.2841203622	 0.0510497662	 0.115787
H	 0.2214306489	-0.3195372027	-2.1482848666	 0.140759
H	 1.7337586661	-0.3057320416	-1.2843126726	 0.140761
H	 0.8924880678	-4.5335950691	-1.4987858634	 0.142266
H	 1.9255405717	-5.5141204634	-3.2944719794	 0.239195
45.5514	77.7211	111.9777	120.0624	142.5725	241.9042	266.7492	327.5676	405.0026	536.6907	568.6604	739.6979	748.0486	853.2194	883.4368	906.0274	946.5387	1024.7875	1052.2232	1073.5809	1123.7822	1127.0861	1160.5035	1250.05	1267.2797	1322.5572	1325.4962	1388.3499	1404.6367	1416.2511	1452.6409	1489.3887	1500.203	1509.2673	1746.3904	1842.2327	3030.9743	3033.6844	3050.657	3059.3397	3080.0976	3103.4023	3108.7821	3138.3867	3505.5239
CCCC(=O)OC=N	CCCC(=O)O[CH][NH]	
InChI=1S/C5H9NO2/c1-2-3-5(7)8-4-6/h4,6H,2-3H2,1H3	InChI=1S/C5H9NO2/c1-2-3-5(7)8-4-6/h4,6H,2-3H2,1H3
