13
gdb 25305	3.28994	1.40706	0.98555	1.5382	66.93	-0.254	-0.1149	0.1391	1088.301	0.089857	-452.797474	-452.790057	-452.789113	-452.830238	26.204	
O	-0.8740231552	 1.2228266503	 0.1656377865	-0.224962
C	 0.2504599651	 0.921350982	-0.1241333102	 0.103466
C	 1.4539590064	 1.86714081	-0.2561931625	 0.338778
O	 2.518645363	 1.3807693042	-0.5590358374	-0.302587
N	 1.2888569583	 3.2303442284	-0.0282199419	-0.115742
C	 2.3282131426	 4.1591202394	-0.1265226508	-0.09269
C	 1.7700899552	 5.3599085257	 0.1649557901	-0.087107
N	 0.4128133904	 5.2257986656	 0.4452907287	-0.26013
C	 0.1500674111	 3.9611270459	 0.3253798815	 0.027046
H	 0.5716994413	-0.11614461	-0.3405356039	 0.136946
H	 3.3210142396	 3.8408181404	-0.3898165114	 0.165118
H	 2.2497325747	 6.3259123825	 0.1949499452	 0.129741
H	-0.8015478826	 3.4795037956	 0.467340816	 0.182123
66.1605	124.0149	156.3089	205.9359	279.9737	453.7094	556.2707	575.4695	649.2194	660.7009	686.1656	776.1394	865.7646	895.5163	900.9226	990.8782	1029.6605	1058.4544	1116.531	1127.9685	1273.6877	1289.9088	1330.9519	1381.6741	1428.9755	1517.2477	1583.6141	1783.9547	1836.3705	2963.3395	3259.9334	3306.3505	3310.9678
O=CC(=O)N1C=CN=C1	O=CC(=O)n1ccnc1	
InChI=1S/C5H4N2O2/c8-3-5(9)7-2-1-6-4-7/h1-4H	InChI=1S/C5H4N2O2/c8-3-5(9)7-2-1-6-4-7/h1-4H
