20
gdb 62934	2.55984	1.66683	1.50559	2.1084	73.88	-0.227	0.067	0.294	990.2564	0.172251	-440.252963	-440.24483	-440.243885	-440.284877	32.716	
C	-0.1159564659	 1.6197734518	-0.0007326145	-0.491995
C	 0.051357751	 0.1091415905	 0.0107319346	 0.449419
O	-1.2217832394	-0.5316179873	-0.072046697	-0.486942
C	 1.0861430548	-0.6255496663	-0.902381174	-0.100538
C	 2.4364053669	 0.0848113219	-0.9142491913	-0.057337
O	 2.7187053551	 0.6938716274	 0.3433518801	-0.275316
C	 2.131805972	 0.0656738665	 1.4812196844	-0.060925
C	 0.8310356811	-0.6444636531	 1.1232570454	-0.071637
N	 1.2088291935	-1.7163768348	 0.1308985399	-0.338108
H	 0.8395541826	 2.1329148817	 0.1139149423	 0.149906
H	-0.5671555605	 1.9448541893	-0.9475255202	 0.102311
H	-0.78905171	 1.925366128	 0.8066869479	 0.124109
H	-1.6612298562	-0.2079444371	-0.8659406057	 0.275347
H	 0.7774354369	-0.9387018858	-1.9046958055	 0.062619
H	 3.2114062136	-0.6510372012	-1.1729252349	 0.105702
H	 2.4592791289	 0.893339113	-1.6540218089	 0.099527
H	 2.8192646494	-0.6749414698	 1.9141603498	 0.106174
H	 1.9659346194	 0.8626583864	 2.2148930173	 0.102562
H	 0.277178165	-0.9731434832	 2.0061468282	 0.077895
H	 0.3894007521	-2.3109237979	 0.0250685422	 0.227224
197.6048	200.5756	218.8738	229.7601	284.32	310.4451	397.0579	427.8965	439.4269	444.6839	580.3627	631.1028	712.4422	839.513	854.7252	864.831	873.9327	952.7845	957.0996	971.2128	981.1015	1023.2198	1067.3801	1110.7087	1130.9084	1135.1556	1162.6826	1179.5044	1209.9919	1231.2086	1249.9809	1272.8457	1309.6266	1359.3634	1367.0712	1376.0839	1401.5458	1410.1579	1426.7371	1485.8225	1491.2983	1505.2301	1507.5233	2999.4403	3006.2662	3021.5217	3057.661	3063.0656	3066.9047	3087.5593	3088.8191	3143.0397	3489.3482	3801.8824
CC1(O)C2COCC1N2	C[C@@]1(O)[C@H]2COC[C@@H]1N2	
InChI=1S/C6H11NO2/c1-6(8)4-2-9-3-5(6)7-4/h4-5,7-8H,2-3H2,1H3	InChI=1S/C6H11NO2/c1-6(8)4-2-9-3-5(6)7-4/h4-5,7-8H,2-3H2,1H3/t4-,5+,6-
