17
gdb 51084	4.2776	1.10374	1.04201	4.1926	73.71	-0.2473	-0.0115	0.2359	1164.5444	0.136076	-421.81153	-421.804049	-421.803105	-421.843993	28.913	
O	 0.0077710747	-0.0086647148	 0.0124528917	-0.273167
C	 0.016051592	 1.184367878	 0.0627772147	 0.144956
O	 1.1420984826	 1.9090607989	-0.100256041	-0.251262
C	 1.0288516275	 3.3148449645	-0.0215447949	 0.393762
C	 0.6714019855	 4.0849243531	 1.2955683636	-0.266567
C	 1.3270243536	 5.2493573452	 0.4738418091	-0.084843
C	 2.3301141323	 4.1603431767	-0.0580242172	-0.257634
C	 0.3589418176	 5.3413947464	-0.7156876249	-0.077533
C	 0.1596485152	 4.0650029565	-1.0490632975	-0.153497
H	-0.8785993252	 1.8081267027	 0.2457116198	 0.085034
H	-0.3839825434	 4.184855982	 1.5567773937	 0.10301
H	 1.2698815525	 3.7651307164	 2.1533072389	 0.110519
H	 1.670691151	 6.1639325812	 0.9503702616	 0.079119
H	 3.066406491	 3.8444392519	 0.6861646032	 0.110039
H	 2.7903516258	 4.3274025917	-1.0330434108	 0.108184
H	-0.0351641198	 6.2458970758	-1.1561171497	 0.112833
H	-0.4274008127	 3.6127757737	-1.8353255903	 0.117048
64.852	130.4278	155.3624	360.9064	377.4707	448.6995	477.4014	544.3239	546.9646	693.5774	714.3649	787.5611	830.6397	847.9458	904.0825	911.2722	942.1284	953.7971	1010.5913	1034.2013	1047.9582	1056.5048	1072.3247	1098.9091	1143.7295	1171.0664	1208.1958	1220.0206	1226.538	1244.5396	1261.6532	1333.0134	1431.3901	1477.9102	1516.9288	1628.8296	1865.9728	2966.8038	3056.3203	3067.7357	3130.6782	3139.7711	3151.715	3224.4889	3251.074
O=COC12CC(C1)C=C2	O=CO[C@@]12C[C@@H](C1)C=C2	
InChI=1S/C7H8O2/c8-5-9-7-2-1-6(3-7)4-7/h1-2,5-6H,3-4H2	InChI=1S/C7H8O2/c8-5-9-7-2-1-6(3-7)4-7/h1-2,5-6H,3-4H2/t6-,7-
