16
gdb 21952	6.6749	1.04397	0.9694	2.8859	66.56	-0.2415	0.0244	0.2659	1175.6868	0.132255	-379.937794	-379.929953	-379.929008	-379.971475	27.839	
O	-0.1004608041	 1.4177531521	 0.0117331576	-0.419699
C	-0.0352620149	 0.0073263625	 0.1554399596	-0.064688
C	-1.3942698017	-0.5638673324	-0.2548927858	-0.280762
C	-1.4570447527	-2.052925081	-0.101893849	 0.322871
N	-1.1956498036	-2.8534939004	-1.136219645	-0.286326
N	-1.3092189675	-4.1004579628	-0.6396350085	-0.179573
C	-1.6365646021	-4.1228865566	 0.6742207881	-0.018874
C	-1.7405581001	-2.8061041582	 1.0647505367	-0.278218
H	 0.7627331146	 1.7816121403	 0.2281583728	 0.284951
H	 0.7479520284	-0.4300995632	-0.4822251124	 0.097153
H	 0.1886073948	-0.280237868	 1.1954602805	 0.084131
H	-2.1668681651	-0.0853201131	 0.3564406724	 0.109898
H	-1.5856311216	-0.295250874	-1.2975189866	 0.123449
H	-1.1693430082	-4.8834886041	-1.254701414	 0.273741
H	-1.7716975884	-5.0489578935	 1.2104694718	 0.130958
H	-1.9913868679	-2.4365585379	 2.0460801118	 0.100987
24.0669	95.1957	122.8741	248.9815	341.4227	347.0463	372.7114	506.2706	661.3669	701.8176	763.3082	783.2862	800.6707	842.9844	946.8257	989.4292	1010.7649	1047.0081	1069.892	1077.739	1114.6202	1202.4044	1224.5643	1240.9552	1288.0407	1309.6651	1338.5948	1405.1721	1453.5503	1473.4183	1485.2236	1495.4868	1527.0183	1573.9081	2968.6812	3003.9062	3051.6604	3104.908	3254.3129	3273.3087	3678.5793	3831.63
OCCC1=NNC=C1	OCCc1n[nH]cc1	
InChI=1S/C5H8N2O/c8-4-2-5-1-3-6-7-5/h1,3,8H,2,4H2,(H,6,7)	InChI=1S/C5H8N2O/c8-4-2-5-1-3-6-7-5/h1,3,8H,2,4H2,(H,6,7)
