17
gdb 54560	3.0985	1.52519	1.34897	2.308	72.83	-0.2436	0.0185	0.2621	992.2332	0.137029	-417.940782	-417.933221	-417.932277	-417.973111	29.439	
N	-0.1220683186	 1.1415165865	 0.5059565422	-0.531952
C	 0.0116475481	-0.0787676121	-0.0826247735	 0.253225
O	 1.0447862951	-0.5110909993	-0.556006664	-0.365459
C	-1.2710009468	-0.8686142743	-0.1008751055	 0.297766
C	-2.1448451804	-1.231376325	-1.3100975482	-0.295383
C	-2.9098136749	-1.7068141751	-0.0742609419	-0.015805
C	-1.628069936	-2.1761484674	 0.6796409475	-0.09456
C	-2.0452206969	-1.3322882582	 1.8774118298	-0.192554
N	-2.5147980759	-0.4350278141	 0.7329695726	-0.208556
H	 0.6566783828	 1.7797878986	 0.4837872469	 0.261415
H	-1.0378310682	 1.4722008043	 0.7656471557	 0.274309
H	-2.5777780643	-0.391085612	-1.8590366685	 0.11105
H	-1.7502069944	-1.9995814971	-1.9773168205	 0.118498
H	-3.9184502805	-2.1126255526	 0.0161018735	 0.089999
H	-1.1214451695	-3.1427924764	 0.6164978855	 0.083812
H	-2.8667096611	-1.6980791055	 2.5014790322	 0.103729
H	-1.2625667986	-0.8814275502	 2.4949219561	 0.110465
55.0179	166.8309	180.3493	348.6579	361.5902	386.0661	447.6299	507.4929	614.3276	649.1038	714.0525	744.4107	781.4347	851.248	871.6837	894.5715	921.7667	938.7433	1006.2202	1024.0115	1057.2989	1077.7527	1088.3205	1114.8171	1142.3536	1154.176	1167.535	1193.044	1229.9584	1259.0923	1279.5696	1280.1432	1389.3176	1492.7949	1519.9679	1604.0921	1797.7277	3043.6899	3065.2709	3075.8381	3104.5446	3108.3519	3137.2058	3580.3177	3720.4316
NC(=O)C12CC3C1CN23	NC(=O)[C@@]12C[C@H]3[C@@H]1CN23	
InChI=1S/C6H8N2O/c7-5(9)6-1-4-3(6)2-8(4)6/h3-4H,1-2H2,(H2,7,9)	InChI=1S/C6H8N2O/c7-5(9)6-1-4-3(6)2-8(4)6/h3-4H,1-2H2,(H2,7,9)/t3-,4-,6+/m0/s1
