20
gdb 108051	3.68047	1.34257	1.21013	0.6545	77.61	-0.2213	0.0595	0.2808	1088.8628	0.172542	-403.089971	-403.082151	-403.081207	-403.122296	30.947	
O	-0.0885885803	 1.4348233624	-0.034871978	-0.427607
C	-0.0171660559	 0.015058097	-0.0025489011	-0.188273
C	-1.4321354048	-0.5033605322	 0.0099663087	 0.396756
C	-2.2673442408	-0.3359422908	 1.2977277398	-0.288653
C	-2.7227241179	-1.7952554272	 1.103702851	 0.011273
C	-3.8250154997	-1.9902271772	 0.0450925298	-0.237292
C	-2.7237344988	-1.8438528909	-1.0223695998	 0.011271
C	-2.2685708243	-0.3949395965	-1.2833039501	-0.288655
N	-1.630145756	-2.02702744	 0.0448904619	-0.209506
H	 0.808102861	 1.7815103121	-0.0439637586	 0.290398
H	 0.5101863503	-0.3877575197	-0.8820098266	 0.087292
H	 0.5110552897	-0.3472730162	 0.8938455943	 0.087289
H	-1.6263670355	-0.2223287392	 2.1763500103	 0.104244
H	-3.0318433642	 0.4451869098	 1.3172096787	 0.10123
H	-2.7394626191	-2.4449285758	 1.981192387	 0.07027
H	-4.2258632651	-3.0070456555	 0.068524766	 0.107889
H	-4.6593823374	-1.282036288	 0.0293011205	 0.096345
H	-2.7412942272	-2.5329429922	-1.8692400127	 0.070269
H	-3.0331042069	 0.3844999414	-1.3377415977	 0.10123
H	-1.6284247368	-0.3216133713	-2.1668060137	 0.104232
73.6084	150.5106	238.719	270.0915	301.8209	369.6524	390.1377	415.0959	640.774	660.8363	726.0904	783.2335	827.3215	890.7789	904.24	924.3502	929.2703	946.9803	952.4047	970.5788	993.5348	1042.6155	1064.3429	1065.587	1079.971	1136.177	1162.0439	1186.5503	1214.7016	1215.0069	1239.7054	1245.0197	1261.2328	1284.7438	1296.1844	1321.3347	1342.7467	1366.0337	1459.8211	1475.0376	1475.704	1493.2375	1520.5809	2966.5537	2999.0196	3046.4499	3051.9501	3054.6077	3078.2887	3081.258	3102.82	3105.3249	3110.0096	3832.5726
OCC12CC3CC(C1)N23	OC[C@@]12C[C@H]3C[C@@H](C1)N23	
InChI=1S/C7H11NO/c9-4-7-2-5-1-6(3-7)8(5)7/h5-6,9H,1-4H2	InChI=1S/C7H11NO/c9-4-7-2-5-1-6(3-7)8(5)7/h5-6,9H,1-4H2/t5-,6+,7-
