17
gdb 41733	3.83295	1.48152	1.2524	1.1534	66.48	-0.2247	0.0806	0.3053	998.5765	0.137581	-458.92718	-458.920144	-458.919199	-458.958626	27.324	
C	 0.0873217754	 1.2161100261	 0.2152264911	-0.081602
C	 1.3867694953	 1.9510694089	-0.1764797207	-0.343542
C	 2.1763268933	 0.8430302738	-0.8135569729	 0.385689
O	 3.3338233087	 1.1256676658	-1.5437145305	-0.299297
C	 3.9457518006	-0.1277759081	-1.788071343	 0.006201
O	 3.5197179387	-1.0383126085	-0.7823759417	-0.265316
C	 2.3276475266	-0.5331524344	-0.2264351126	-0.031088
C	 1.1930457353	-0.2459370345	-1.2017567075	-0.029329
O	-0.0560378672	 0.0816914417	-0.6560188068	-0.263233
H	 0.1397605361	 0.8722456219	 1.2567069756	 0.10795
H	-0.8070621573	 1.8349280016	 0.1070490486	 0.11869
H	 1.2050541413	 2.7340066674	-0.9202272083	 0.12397
H	 1.8752785722	 2.4053720704	 0.6897703489	 0.117624
H	 3.6483457634	-0.5040421447	-2.7799060527	 0.101197
H	 5.0332319422	-0.0128424014	-1.7404723482	 0.123851
H	 2.1787003291	-0.8255491209	 0.8071598789	 0.11444
H	 1.1288497362	-0.741788315	-2.1642418682	 0.113794
154.9751	161.7534	221.2714	241.1107	370.3232	388.3293	494.6267	665.6859	696.0794	739.9694	760.1755	866.6613	906.0429	942.7896	953.2926	968.8972	979.1817	1006.6882	1034.2195	1051.1426	1109.7996	1128.9343	1153.6706	1158.0806	1204.4851	1208.6896	1220.6337	1249.6715	1268.2721	1280.5387	1333.0434	1397.7399	1417.6803	1436.4579	1498.1212	1525.1556	1547.292	2970.5418	3014.3213	3051.0559	3075.5302	3089.9573	3103.5565	3172.1881	3172.6502
C1CC23OCOC2C3O1	C1C[C@@]23OCO[C@@H]2[C@H]3O1	
InChI=1S/C6H8O3/c1-2-7-4-5-6(1,4)9-3-8-5/h4-5H,1-3H2	InChI=1S/C6H8O3/c1-2-7-4-5-6(1,4)9-3-8-5/h4-5H,1-3H2/t4-,5-,6+/m1/s1
