18
gdb 67235	3.0355	1.36403	1.15723	3.7684	76.7	-0.235	-0.0237	0.2113	1105.068	0.146972	-401.882413	-401.874399	-401.873455	-401.915189	30.395	
C	-0.15688534	 1.5633052755	-0.2905571376	-0.528066
C	-0.0441095364	 0.0910802311	-0.1094331006	 0.374818
C	-0.0942103359	-1.0993168748	-1.0201855773	-0.144797
C	 1.2825861463	-1.5056876452	-0.534692308	-0.177746
N	 1.0665406941	-0.6497385632	 0.6992674096	-0.221277
C	-0.0475719004	-1.4238822385	 1.3943920682	-0.066621
C	-0.4140161057	-0.7534030294	 2.6960365829	 0.173506
O	-0.7754873909	-1.3441638433	 3.6806237506	-0.259036
C	-0.9752231814	-1.0339206253	 0.2521607556	-0.135259
H	 0.7273459102	 1.9690042175	-0.7939186656	 0.134045
H	-1.033342882	 1.8001883712	-0.9027734114	 0.130888
H	-0.2649731767	 2.0798426607	 0.6691624914	 0.133703
H	-0.5482020652	-1.1728361027	-2.0011307209	 0.096662
H	 1.5046444951	-2.5580332889	-0.3269379372	 0.105908
H	 2.0879011183	-1.0713060854	-1.1326160549	 0.113783
H	 0.16602177	-2.4815931657	 1.577233261	 0.088787
H	-0.3378431144	 0.3570387756	 2.676736004	 0.078808
H	-2.0564119251	-1.0671821991	 0.1959000801	 0.101895
74.1394	127.2744	194.6797	247.7191	268.2114	295.2451	416.7518	473.2019	510.4914	619.2487	751.3397	779.0506	835.0656	851.5966	869.7922	904.5082	931.1181	969.2878	985.6963	1018.078	1037.2908	1055.3223	1078.8637	1112.1654	1137.2003	1149.5595	1174.8655	1213.1323	1239.4163	1268.7372	1297.4043	1312.1874	1406.3785	1423.3325	1467.3499	1475.2761	1495.4036	1513.6103	1834.2069	2881.5041	3029.094	3040.8753	3068.8219	3093.4204	3102.421	3103.3002	3184.8692	3194.659
CC12C3CN1C(C=O)C23	C[C@@]12[C@H]3CN1[C@@H](C=O)[C@@H]23	
InChI=1S/C7H9NO/c1-7-4-2-8(7)5(3-9)6(4)7/h3-6H,2H2,1H3	InChI=1S/C7H9NO/c1-7-4-2-8(7)5(3-9)6(4)7/h3-6H,2H2,1H3/t4-,5-,6-,7-/m0/s1
