19
gdb 82108	2.84008	1.4723	1.26864	3.594	74.78	-0.2182	0.069	0.2872	1061.1686	0.16038	-419.113651	-419.105666	-419.104722	-419.14645	31.17	
O	-0.008210319	 1.5850908325	 0.324652349	-0.428292
C	 0.1073352605	 0.2262442533	 0.029198008	 0.122413
C	 0.2832083409	-0.7090298421	 1.2369270773	-0.082097
N	-0.8764419738	-0.3883655686	 2.101100477	-0.351473
C	-1.0302238994	-1.3708072014	 0.9920650549	-0.099821
C	-1.2127155895	-0.5871396056	-0.3255042869	 0.001019
N	-2.3869188208	 0.1584272264	-0.7051189136	-0.074522
C	-3.6919036223	-0.4645640735	-0.5095877792	-0.22702
C	-3.2788125448	 0.7087151479	 0.3103550908	-0.223548
H	-0.5406722975	 1.6299384893	 1.1308937001	 0.292732
H	 0.8731530101	 0.1225937237	-0.7415404989	 0.090293
H	 1.1941689108	-1.1119345558	 1.6613199263	 0.0973
H	-0.7753199022	-0.9130293552	 2.9678801382	 0.236035
H	-1.3171836184	-2.3929602685	 1.2092734405	 0.094207
H	-0.97930286	-1.2668904369	-1.1529755329	 0.085872
H	-4.3970735339	-0.3510981472	-1.3285980017	 0.114118
H	-3.7321161817	-1.4294683313	-0.006232424	 0.103554
H	-3.045763992	 0.5314706363	 1.3547197777	 0.134808
H	-3.6733666269	 1.6954007668	 0.0825694673	 0.114424
61.1269	146.5621	159.7871	239.4961	304.86	339.807	480.2018	530.4081	536.822	650.6761	714.4094	776.4374	814.0752	838.5002	842.1662	878.651	891.8267	910.7807	947.5949	981.1319	1031.008	1040.6319	1083.8995	1092.5726	1102.1773	1124.1456	1125.8806	1151.7411	1173.5835	1180.6982	1189.2175	1234.3742	1264.8699	1314.9526	1325.6221	1342.1003	1369.9682	1379.9753	1452.5066	1493.7941	1520.8422	3042.2064	3092.1367	3100.1493	3116.46	3175.5499	3179.6599	3198.1729	3213.3468	3491.3346	3749.9424
OC1C2NC2C1N1CC1	O[C@H]1[C@H]2N[C@H]2[C@H]1N1CC1	
InChI=1S/C6H10N2O/c9-6-4-3(7-4)5(6)8-1-2-8/h3-7,9H,1-2H2	InChI=1S/C6H10N2O/c9-6-4-3(7-4)5(6)8-1-2-8/h3-7,9H,1-2H2/t3-,4+,5-,6+/m1/s1
