17
gdb 111951	2.81305	1.29803	0.99927	2.3474	70.74	-0.249	-0.0543	0.1947	1169.6462	0.135779	-458.98405	-458.97543	-458.974485	-459.017653	31.818	
O	-0.0172131381	 1.3915053338	-0.2090599952	-0.429043
C	 0.0524970858	-0.0178510343	-0.0477302366	-0.070604
C	-1.3884359626	-0.5221976715	 0.0974193301	-0.101525
C	-2.2162403033	-0.2162147693	-1.1326665067	-0.036772
C	-2.5124376663	-1.3010359863	-1.865045888	-0.188594
C	-1.9181270064	-2.4869872868	-1.2258270447	 0.34537
O	-1.7173676017	-3.5959922393	-1.6725118629	-0.352476
C	-1.4789651855	-2.062246223	 0.1840010895	 0.019892
O	-0.2977197161	-2.7146926469	 0.5746393323	-0.435917
H	 0.8801694391	 1.733046165	-0.2579839141	 0.291331
H	 0.5267726373	-0.5029623079	-0.9132602584	 0.096254
H	 0.6231069376	-0.3022949336	 0.845381658	 0.113718
H	-1.8149280308	-0.0278190259	 0.9773667022	 0.097277
H	-2.487651327	 0.8028700158	-1.3818138928	 0.134533
H	-3.0387805259	-1.3290763789	-2.8102329367	 0.122141
H	-2.3098628741	-2.3222486365	 0.8629350789	 0.100621
H	-0.271085582	-3.5285882843	 0.0487404752	 0.293792
61.9382	116.0264	181.5718	225.5039	251.5199	276.889	312.0596	411.2226	448.4666	508.4303	559.9293	649.431	716.2034	769.2212	800.2618	830.3484	887.6926	981.3823	1002.2677	1047.6342	1076.5491	1095.2086	1121.0336	1149.7734	1194.7815	1208.2254	1229.4913	1259.0274	1321.3273	1333.907	1356.8334	1370.653	1414.6046	1448.281	1517.2078	1630.8719	1808.8396	2950.7506	2996.1609	3039.0733	3055.2729	3206.5562	3230.4949	3713.1037	3834.1639
OCC1C=CC(=O)C1O	OC[C@H]1C=CC(=O)[C@H]1O	
InChI=1S/C6H8O3/c7-3-4-1-2-5(8)6(4)9/h1-2,4,6-7,9H,3H2	InChI=1S/C6H8O3/c7-3-4-1-2-5(8)6(4)9/h1-2,4,6-7,9H,3H2/t4-,6+/m1/s1
