16
gdb 85124	1.87788	1.65466	1.36768	2.2525	66.97	-0.2625	-0.0485	0.214	1050.9897	0.121279	-475.026163	-475.016919	-475.015975	-475.060336	32.819	
C	-0.3399269901	 1.3025736439	-0.0061142706	-0.401527
C	 0.1371149715	-0.1265590085	 0.0160058914	 0.094731
O	 1.3984851128	-0.3104898824	-0.7495342622	-0.265634
C	 2.0877016513	-0.628352323	 0.3800488901	 0.371857
N	 3.307808725	-0.7772800957	 0.6307991629	-0.547324
C	 0.8706886661	-0.6258954058	 1.2952023767	 0.146208
O	 0.9475954148	 0.2200564073	 2.4093858023	-0.467215
C	 0.4505689056	-2.0261011444	 1.7462814944	 0.129766
O	-0.1587578631	-2.8037959778	 1.0628411022	-0.238849
H	 0.4102726415	 1.9781602379	 0.4110977137	 0.129052
H	-0.5656332522	 1.6077100751	-1.0316493624	 0.136191
H	-1.2521025865	 1.3957602982	 0.5910922088	 0.139044
H	-0.6015361483	-0.8395997217	-0.3531012345	 0.124067
H	 3.8925043538	-0.6362996889	-0.1944756041	 0.239368
H	 1.8698689988	 0.4820946419	 2.5169496181	 0.307042
H	 0.7653144691	-2.251947046	 2.7867488231	 0.103221
83.3847	91.7151	170.1876	188.1299	194.1672	239.7171	249.7476	281.1442	385.4188	457.8883	558.4658	574.3151	667.8528	706.8247	760.0255	847.3755	867.2969	881.1993	1007.1192	1027.6759	1051.845	1084.3746	1112.5746	1170.2842	1225.0092	1250.1015	1329.7988	1350.8878	1375.0542	1400.1614	1415.4809	1482.2866	1486.3736	1808.0498	1837.373	2922.5309	3049.3929	3110.2926	3121.7853	3137.2808	3482.7502	3791.963
CC1OC(=N)C1(O)C=O	C[C@H]1O[C]([NH])[C@]1(O)C=O	
InChI=1S/C5H7NO3/c1-3-5(8,2-7)4(6)9-3/h2-3,6,8H,1H3	InChI=1S/C5H7NO3/c1-3-5(8,2-7)4(6)9-3/h2-3,6,8H,1H3/t3-,5+/m1/s1
