20
gdb 12222	2.92285	1.54822	1.31487	3.0006	75.13	-0.2434	-0.021	0.2224	1039.0246	0.175713	-349.008966	-349.000094	-348.99915	-349.042701	32.497	
C	-0.2565841278	 1.3532241267	-1.1377544361	-0.403596
C	 0.1210170938	-0.0718056778	-0.7441783076	 0.014463
C	 1.468963774	-0.5765643435	-1.3373520518	-0.258462
C	 2.1443577059	-0.5002012404	 0.0668118563	-0.096737
C	 3.0940499582	 0.6547487662	 0.2365044385	 0.159124
O	 4.1044470904	 0.6199610602	 0.8929418481	-0.258237
C	 0.7108037334	-0.2845863007	 0.6914165423	 0.021545
C	 0.5064122877	 0.7572054772	 1.7847434397	-0.418142
H	 0.5680685561	 2.0584738949	-0.9870841485	 0.117347
H	-0.5275512624	 1.3933708635	-2.1984185169	 0.11737
H	-1.11326012	 1.7166170762	-0.5606193262	 0.117901
H	-0.7290449394	-0.7277311283	-0.9556781704	 0.07056
H	 1.4295957978	-1.5979095123	-1.721311925	 0.109231
H	 1.9118167397	 0.0611515283	-2.1092258638	 0.101839
H	 2.6560388403	-1.3997260695	 0.414820947	 0.088028
H	 2.8041855981	 1.5881956009	-0.3027738068	 0.067956
H	 0.3763787489	-1.2549170324	 1.0715835005	 0.084442
H	 0.7874015619	 1.7652389991	 1.4658516852	 0.119834
H	-0.5433914915	 0.7905504731	 2.0957279656	 0.116899
H	 1.1065080948	 0.5121687186	 2.6674437397	 0.128634
54.4614	71.939	212.0773	230.4038	239.1685	253.1929	298.699	358.7481	400.0716	444.319	515.2122	696.9118	769.2072	811.1343	853.9048	893.6598	941.6595	977.3136	990.7402	1028.1198	1035.3244	1084.2201	1116.7936	1148.1968	1180.8943	1186.8341	1230.3289	1262.4988	1275.3606	1284.6758	1326.3072	1365.4953	1370.7259	1409.648	1416.0204	1435.9918	1482.1501	1491.6782	1492.3427	1504.1442	1507.0224	1822.7773	2844.992	3028.1682	3034.5051	3040.4485	3049.8627	3056.3946	3090.3955	3094.2481	3096.4061	3099.9445	3109.0684	3114.1383
CC1CC(C=O)C1C	C[C@H]1C[C@@H](C=O)[C@H]1C	
InChI=1S/C7H12O/c1-5-3-7(4-8)6(5)2/h4-7H,3H2,1-2H3	InChI=1S/C7H12O/c1-5-3-7(4-8)6(5)2/h4-7H,3H2,1-2H3/t5-,6-,7-/m0/s1
