19
gdb 38944	3.05179	1.82783	1.57671	1.6818	72.58	-0.2367	0.0765	0.3132	911.9427	0.163537	-423.008504	-423.002146	-423.001201	-423.038916	27.049	
C	 0.0202972889	 1.5804230127	 0.0682223743	-0.229734
C	 1.537475565	 1.797151593	-0.0217030667	 0.040858
O	 2.0496743711	 0.8253012789	 0.9438359019	-0.301227
C	 1.5661912382	-0.1627952951	-0.0011609222	 0.025895
C	 1.9644648358	 0.8078012987	-1.1403371379	 0.113125
O	 1.2362173322	 0.7938034112	-2.3411576252	-0.2696
C	 0.4350796946	-0.3785830515	-2.4825626267	-0.06837
C	-0.5689870978	-0.5408834442	-1.3253686806	-0.244763
C	 0.0268004866	 0.0138215722	-0.0146579759	-0.013847
H	-0.3743169583	 1.9503000881	 1.0164754228	 0.104667
H	-0.5218481015	 2.0477836126	-0.7569067262	 0.105875
H	 1.9508989788	 2.7983971275	 0.0912456781	 0.079712
H	 1.9903688589	-1.1574089647	 0.1351345916	 0.080974
H	 3.0423562927	 0.8290036889	-1.3241660224	 0.085516
H	-0.0712394655	-0.2820244647	-3.4459028808	 0.111806
H	 1.0886638568	-1.2624735713	-2.5419098801	 0.095243
H	-1.5057015608	-0.0201751896	-1.5499939918	 0.108202
H	-0.8156001552	-1.6037210332	-1.2191061894	 0.099287
H	-0.4477608405	-0.4398653394	 0.8570999473	 0.076382
197.0195	241.9413	346.5767	382.7388	453.5404	500.9871	564.2846	653.5599	741.1844	808.2577	827.85	849.9011	867.9984	886.4275	907.6439	922.3061	976.0828	986.106	1002.4181	1007.6986	1055.6398	1078.8176	1107.9335	1126.1175	1158.1622	1176.5378	1206.0105	1231.7292	1250.7241	1263.8938	1276.7569	1297.1282	1314.1865	1320.5216	1343.1579	1358.2293	1375.8544	1413.1552	1480.5235	1493.4768	1513.7816	2983.183	3035.6208	3071.6331	3074.3737	3075.8156	3091.2168	3099.7446	3122.9576	3127.7844	3135.2984
C1C2OC3C2OCCC13	C1[C@H]2O[C@@H]3[C@H]2OCC[C@H]13	
InChI=1S/C7H10O2/c1-2-8-7-5-3-4(1)6(7)9-5/h4-7H,1-3H2	InChI=1S/C7H10O2/c1-2-8-7-5-3-4(1)6(7)9-5/h4-7H,1-3H2/t4-,5-,6+,7+/m1/s1
