17
gdb 61026	3.6798	1.16748	1.06971	2.9184	68.87	-0.2436	-0.0385	0.2051	1146.1679	0.134315	-458.916299	-458.908169	-458.907225	-458.949433	30.537	
O	-0.3708465351	 1.4076913839	-0.0758616696	-0.423604
C	-0.0545762781	 0.0480460718	-0.0243033773	 0.021581
C	 0.860062409	-0.3192504051	-1.1814209749	 0.148835
O	 1.2038774875	 0.5018859891	-1.9950719639	-0.259263
C	 0.5876658919	-0.4038896835	 1.292353046	 0.110112
O	 1.8955315007	 0.1739054591	 1.5331845035	-0.302719
C	 1.5078607387	 0.5118120742	 2.8739006473	 0.102377
C	 0.4208992453	 1.5303149404	 2.8746574961	-0.28655
C	 0.0777457544	 0.0672546249	 2.6534942128	-0.157699
H	 0.1241343851	 1.7584465751	-0.8344651514	 0.297744
H	-0.9684652332	-0.5657856583	-0.1436085375	 0.099463
H	 1.1870724431	-1.3766723287	-1.2397336302	 0.102332
H	 0.6720323682	-1.5011715573	 1.2661191702	 0.081357
H	 2.2210757558	 0.320578766	 3.666328399	 0.10694
H	 0.1368021894	 1.8946245968	 3.8574634478	 0.113353
H	 0.3403397088	 2.2399570578	 2.0617112322	 0.143694
H	-0.5921116115	-0.4912722561	 3.2921982598	 0.102047
63.3754	109.9905	178.8365	235.3867	292.0361	321.3916	378.2857	467.9867	475.2597	668.9012	721.5257	762.3227	773.3835	810.0523	856.5171	900.6338	941.3561	954.5215	977.4421	1032.0094	1039.9656	1049.3681	1058.0039	1089.9909	1101.1074	1183.2577	1201.4565	1239.6601	1262.6256	1296.6728	1334.5205	1360.7661	1372.3012	1408.4427	1440.1687	1469.3623	1816.7479	2926.3447	2941.3714	2988.4191	3138.3372	3188.7425	3210.2677	3242.2995	3675.8984
OC(C=O)C1OC2CC12	O[C@@H](C=O)[C@H]1O[C@H]2C[C@@H]12	
InChI=1S/C6H8O3/c7-2-4(8)6-3-1-5(3)9-6/h2-6,8H,1H2	InChI=1S/C6H8O3/c7-2-4(8)6-3-1-5(3)9-6/h2-6,8H,1H2/t3-,4+,5+,6+/m1/s1
