17
gdb 126451	4.56358	1.04181	0.85709	3.6602	81.41	-0.2361	-0.0689	0.1673	1330.0127	0.135831	-418.000933	-417.992614	-417.99167	-418.034239	30.98	
C	 0.0947680655	 1.5682329016	 0.1744505769	-0.377124
C	-0.0361373688	 0.0462179122	 0.1497026494	-0.268677
C	-1.4317128697	-0.4828273174	-0.0818138457	 0.337205
N	-2.3758438087	 0.3792581326	-0.2358675937	-0.129703
O	-3.6710331839	-0.1046493309	-0.4507536829	-0.295838
C	-3.9894232508	-1.452149873	-0.5062096286	 0.402442
N	-5.186556424	-1.8287677188	-0.7045062367	-0.52882
C	-2.8908881392	-2.3829469326	-0.3267338449	-0.119189
C	-1.6513065532	-1.9179873959	-0.1210984421	-0.140098
H	 1.1368538792	 1.8509722348	 0.3470750953	 0.111166
H	-0.2328817908	 2.0072938109	-0.7708450785	 0.137071
H	-0.5196253158	 2.003713919	 0.9660248444	 0.137073
H	 0.6129711115	-0.3794548898	-0.6284781273	 0.123242
H	 0.3286286825	-0.3829941177	 1.093539777	 0.123244
H	-5.8058105001	-1.0226828038	-0.8050229673	 0.227987
H	-3.140014746	-3.4358706018	-0.3700639172	 0.139913
H	-0.8039735178	-2.5809121694	 0.0173999222	 0.120106
68.6619	91.9425	186.8962	217.5581	289.2423	329.3645	367.4421	442.3762	511.3852	525.2406	624.7355	710.622	735.6548	796.6455	797.554	847.606	878.7841	927.9716	978.0652	1018.9002	1019.4021	1079.9263	1098.9958	1105.7696	1170.5271	1215.5895	1288.5745	1315.8426	1382.3365	1419.0072	1433.6935	1469.1846	1492.6845	1500.5314	1619.8913	1681.4503	1735.1561	3010.9115	3035.324	3053.5223	3125.1103	3132.3372	3188.8078	3223.9737	3477.898
CCC1=NOC(=N)C=C1	CCC1=NOC(=C[CH]1)[NH]	
InChI=1S/C6H8N2O/c1-2-5-3-4-6(7)9-8-5/h3-4,7H,2H2,1H3	InChI=1S/C6H8N2O/c1-2-5-3-4-6(7)9-8-5/h3-4,7H,2H2,1H3
