23
gdb 58560	2.07294	1.45277	1.19998	2.3254	81.39	-0.2414	0.0626	0.304	1211.1628	0.20286	-425.416073	-425.405405	-425.404461	-425.451402	39.64	
C	-0.0313255629	 1.4027744537	-0.3751106439	-0.410307
C	-0.0550524749	-0.0739214747	 0.0465101713	 0.021217
C	 0.7899121904	-0.3143235596	 1.3070521142	-0.409297
C	-1.5011412124	-0.5888619375	 0.1872887267	 0.408955
C	-2.2796214373	 0.0041684756	 1.3545017464	-0.450482
O	-2.2353304682	-0.3667570832	-1.0621582127	-0.326189
C	-2.3186362571	-1.7737926982	-1.341263481	-0.104755
C	-1.6781376022	-2.1291450018	 0.0148615903	 0.002067
O	-0.475831203	-2.863623915	-0.0040022546	-0.421382
H	 0.9898715555	 1.7066794845	-0.6270699841	 0.105829
H	-0.6661942287	 1.5668787358	-1.249040892	 0.132705
H	-0.3773477117	 2.0614715237	 0.4292738224	 0.10758
H	 0.391916182	-0.6581311755	-0.7655621343	 0.082743
H	 0.4462043718	 0.2995021675	 2.1467819895	 0.107986
H	 0.7640877051	-1.3642722621	 1.6077368545	 0.127824
H	 1.8336081466	-0.044538385	 1.1148473908	 0.108653
H	-2.3031858927	 1.0959905784	 1.3005258031	 0.127257
H	-3.3131759488	-0.3530264775	 1.3326689767	 0.114221
H	-1.8352441774	-0.2843594326	 2.3119705788	 0.121434
H	-3.3520642442	-2.1024558934	-1.5070946064	 0.094828
H	-1.6994262736	-2.0705790447	-2.19834566	 0.097837
H	-2.386053871	-2.5511488421	 0.7392006845	 0.071527
H	-0.6904374654	-3.7981097163	-0.0804932801	 0.289748
51.6072	96.5131	177.1291	194.3899	205.0069	223.2912	248.6805	269.1467	292.4292	315.4167	336.9439	410.3303	455.1021	474.1272	557.8599	653.1444	750.1727	867.9429	883.549	909.2456	929.6304	940.3434	969.8061	1025.4495	1048.277	1072.8174	1096.7295	1133.2811	1156.0217	1162.4516	1177.0861	1197.404	1220.2819	1289.6439	1310.0754	1332.9227	1346.6057	1378.5512	1390.9728	1405.9164	1413.627	1440.368	1479.4583	1487.3869	1495.1962	1501.7412	1508.3669	1514.3376	1516.0641	3004.2616	3016.4985	3031.3869	3035.0712	3043.834	3044.9995	3054.6652	3090.35	3098.5383	3114.0365	3120.2255	3124.7001	3127.0854	3826.877
CC(C)C1(C)OCC1O	CC(C)[C@@]1(C)OC[C@H]1O	
InChI=1S/C7H14O2/c1-5(2)7(3)6(8)4-9-7/h5-6,8H,4H2,1-3H3	InChI=1S/C7H14O2/c1-5(2)7(3)6(8)4-9-7/h5-6,8H,4H2,1-3H3/t6-,7-/m1/s1
