25
gdb 64207	2.49151	1.17668	1.0128	0.0906	92.85	-0.2577	0.0831	0.3408	1360.8396	0.228544	-352.342916	-352.333112	-352.332168	-352.37723	38.409	
C	-0.1399379835	 1.5300463898	-0.0195424406	-0.437265
C	-0.0083952048	 0.0045494317	 0.0081877494	 0.331139
C	-1.3726490207	-0.6532926484	-0.1767148501	-0.45392
C	 1.1359276791	-0.490626523	-0.9336666353	-0.254881
C	 2.0914639848	-0.5512089021	 0.2856544149	-0.249833
C	 0.8497098446	-0.5251805699	 1.2198039555	 0.006192
C	 0.9133173214	 0.2366772456	 2.5150006712	 0.017187
C	-0.0838371656	-0.0318683928	 3.6183959681	-0.272153
C	 1.3538532942	-0.4554233522	 3.7833563099	-0.27766
H	 0.8300989306	 2.0293181181	 0.0743584884	 0.109095
H	-0.5851786481	 1.8558229859	-0.9666304444	 0.106908
H	-0.7805987327	 1.8899289062	 0.7927747693	 0.114467
H	-1.8286350667	-0.360165083	-1.130250552	 0.108386
H	-1.2912401592	-1.745702694	-0.1689489515	 0.104563
H	-2.0650538689	-0.3626827735	 0.6223368098	 0.112528
H	 0.9252555003	-1.4851390107	-1.338890526	 0.091893
H	 1.4137799871	 0.1678059923	-1.7616346043	 0.089051
H	 2.7609747205	-1.4110263665	 0.3646816106	 0.092455
H	 2.692376005	 0.3580219921	 0.3853031821	 0.097006
H	 0.5381426365	-1.5556127949	 1.4340626678	 0.054901
H	 1.2349685293	 1.2703303706	 2.4179481633	 0.076139
H	-0.4452670098	 0.8054794676	 4.2052987518	 0.107969
H	-0.8237859392	-0.808402755	 3.453444202	 0.109375
H	 1.5796703275	-1.5155837475	 3.7287895148	 0.108576
H	 1.975571218	 0.0936535836	 4.4819601456	 0.107884
71.5942	103.8927	156.663	213.4018	228.4857	277.3951	295.1717	310.7491	344.8319	383.5582	426.9594	496.2592	600.9694	712.7868	763.4425	801.1739	825.5539	871.5025	893.5573	915.7607	918.3495	949.3534	963.6129	977.2044	984.4066	1013.59	1034.0378	1055.5697	1076.1303	1105.9243	1137.8126	1165.4004	1184.0774	1198.5444	1219.6676	1227.7728	1239.4849	1252.0089	1269.8768	1283.1512	1309.0806	1329.1882	1400.4985	1418.4823	1433.4496	1470.0474	1479.6124	1484.9841	1491.6826	1500.1862	1504.2632	1506.1302	1508.4732	3014.4844	3017.5014	3025.6185	3046.337	3053.6707	3079.5509	3087.3703	3089.2286	3092.2202	3096.7294	3109.1928	3126.9825	3131.2753	3139.0814	3204.3791	3219.7738
CC1(C)CCC1C1CC1	CC1(C)CC[C@H]1C1CC1	
InChI=1S/C9H16/c1-9(2)6-5-8(9)7-3-4-7/h7-8H,3-6H2,1-2H3	InChI=1S/C9H16/c1-9(2)6-5-8(9)7-3-4-7/h7-8H,3-6H2,1-2H3/t8-/m0/s1
