15
gdb 7752	3.51137	1.92659	1.29326	2.5412	64.11	-0.2364	-0.0028	0.2336	899.7165	0.121847	-396.044224	-396.037188	-396.036244	-396.07538	26.991	
N	 0.029494865	 1.3486783071	 0.1699698299	-0.567625
C	-0.0771281705	-0.0255725107	 0.0062808707	 0.428094
N	-1.2053974422	-0.613946408	-0.0356281672	-0.30326
C	-1.1649339387	-2.0717640925	-0.0132888301	-0.170337
C	 0.0144767594	-2.6513065567	-0.8094559239	-0.327481
C	 1.3211263439	-2.0057713277	-0.3907234078	 0.405931
O	 2.404644158	-2.5438639042	-0.3746210466	-0.352904
N	 1.1663309293	-0.6731620412	-0.0376213403	-0.367418
H	 0.7171534264	 1.7993957048	-0.419471695	 0.25037
H	-0.8773637371	 1.7920910341	 0.1111496715	 0.262484
H	-1.1129200218	-2.4207818476	 1.0299296947	 0.110388
H	-2.1072511647	-2.4517116522	-0.4182309642	 0.111866
H	 0.1129746449	-3.7324687346	-0.6931593402	 0.131136
H	-0.125963004	-2.4433677895	-1.8786821083	 0.132541
H	 2.001119352	-0.1856732812	 0.2558709568	 0.256215
118.3076	162.6765	266.5021	345.1383	393.578	462.3125	493.5555	517.187	560.9977	632.5578	650.4349	706.7485	759.0665	793.8003	909.3482	953.7549	999.5316	1055.9694	1077.863	1188.9941	1193.5456	1256.9843	1278.3721	1317.9295	1336.7848	1389.1541	1458.5951	1481.5186	1500.0103	1626.2535	1756.3718	1823.7317	2987.2057	3031.4194	3075.4505	3118.0795	3545.549	3606.9505	3652.5158
NC1=NCCC(=O)N1	NC1=NCCC(=O)N1	
InChI=1S/C4H7N3O/c5-4-6-2-1-3(8)7-4/h1-2H2,(H3,5,6,7,8)	InChI=1S/C4H7N3O/c5-4-6-2-1-3(8)7-4/h1-2H2,(H3,5,6,7,8)
