19
gdb 65553	2.92006	1.51776	1.33536	2.488	74.66	-0.2394	-0.0287	0.2107	1028.374	0.158646	-423.014771	-423.006672	-423.005727	-423.047708	31.405	
C	 0.0263820022	 1.5986164539	-0.165488809	-0.453304
C	 0.0764621048	 0.0762657616	-0.0485671612	 0.312973
O	 0.9658407915	-0.5075956834	-1.0327153545	-0.329763
C	 1.880742596	-1.2637618044	-0.2120589469	 0.113841
C	 0.9564279182	-1.9755008359	 0.8044460078	-0.250745
C	 0.7208577895	-0.4908710567	 1.2423785884	-0.082723
C	 2.236546767	-0.27846029	 0.9252167299	-0.249956
C	-1.3345367169	-0.475838004	-0.2638313824	 0.119073
O	-2.2732063255	-0.1914814797	 0.4341964314	-0.265115
H	 0.9855110961	 2.0525218142	 0.0908501565	 0.121276
H	-0.2219247298	 1.8882350022	-1.191082763	 0.131194
H	-0.7474442384	 1.9890669476	 0.5008917937	 0.140232
H	 2.6075285919	-1.767230432	-0.8468685061	 0.084335
H	 0.1186733262	-2.5556100197	 0.4115684859	 0.105366
H	 1.5010818557	-2.5492936454	 1.5553015583	 0.107508
H	 0.2539493927	-0.2138628742	 2.1852927677	 0.091689
H	 2.8797899458	-0.7164212854	 1.6903373137	 0.106463
H	 2.5934604832	 0.7127251058	 0.6423556208	 0.10528
H	-1.4250609801	-1.1631592045	-1.1338894112	 0.092376
43.4418	179.0485	200.6178	223.8295	289.838	312.9251	447.5924	498.1271	510.6508	530.7306	669.9496	738.1038	837.0158	840.4447	857.5669	872.2269	909.9555	951.6428	961.327	979.399	992.7858	1038.0403	1044.0587	1063.2216	1102.461	1122.4968	1164.9494	1195.7603	1211.3439	1220.1327	1249.8667	1256.7968	1288.4876	1323.8535	1381.482	1402.4413	1476.7319	1488.4819	1494.5234	1517.5317	1826.9915	2891.0599	3048.5705	3074.1276	3080.378	3120.3475	3134.747	3139.0853	3141.9919	3143.8481	3146.4128
CC1(OC2CC1C2)C=O	C[C@]1(O[C@@H]2C[C@H]1C2)C=O	
InChI=1S/C7H10O2/c1-7(4-8)5-2-6(3-5)9-7/h4-6H,2-3H2,1H3	InChI=1S/C7H10O2/c1-7(4-8)5-2-6(3-5)9-7/h4-6H,2-3H2,1H3/t5-,6+,7-/m0/s1
