18
gdb 77101	3.22615	1.11457	0.92752	5.1252	77.91	-0.2445	0.0318	0.2763	1260.5412	0.148831	-398.097983	-398.089351	-398.088407	-398.131371	32.619	
N	 0.4858348287	 0.9298215889	-0.4990584786	-0.512993
C	-0.051055494	-0.3463427747	-0.1085287099	-0.049993
C	-0.0581344936	-0.6731159669	 1.4282579515	-0.142958
C	-1.4254094373	-1.4097502294	 1.2394501033	-0.313652
C	-1.5617167442	-0.6815675289	-0.0982220787	 0.334317
C	-2.6433195296	 0.2241957845	-0.5417076668	-0.307982
N	-2.4184471666	-1.0812791812	-1.199288134	-0.367597
C	 1.0623885423	-1.4180791583	 1.9698306589	 0.269531
N	 1.9525411961	-2.0319514537	 2.3801556556	-0.328503
H	 0.6302695053	 0.9941428326	-1.49992271	 0.238319
H	-0.1200237752	 1.693929181	-0.2185081729	 0.231512
H	 0.5001510533	-1.1313311235	-0.63740986	 0.110092
H	-0.1889924788	 0.2528830031	 1.9954065854	 0.121704
H	-1.2946658097	-2.4865881899	 1.1101579569	 0.134238
H	-2.1827470207	-1.2257720199	 2.0023192779	 0.122718
H	-3.5664699604	 0.296545791	 0.0272963247	 0.126291
H	-2.3657328658	 1.1302628291	-1.0765703996	 0.105165
H	-1.9415004498	-0.9494880137	-2.0893378739	 0.22979
65.601	138.34	195.4775	223.7134	257.7441	264.5991	338.8454	399.6174	469.2242	508.8942	563.8169	580.7417	702.0118	793.6795	829.3918	844.9045	907.2051	936.8832	952.1876	969.6016	1010.7773	1048.5898	1053.0676	1105.2165	1127.1973	1160.0012	1185.0122	1220.2288	1240.0831	1247.8406	1274.6428	1287.143	1346.9773	1417.799	1427.1717	1489.9482	1512.1899	1659.9464	2353.4227	3057.1424	3075.5295	3079.8995	3097.2621	3138.0659	3184.1743	3479.622	3509.7638	3598.1863
NC1C(CC11CN1)C#N	N[C@H]1[C@@H](C[C@]21CN2)C#N	
InChI=1S/C6H9N3/c7-2-4-1-6(3-9-6)5(4)8/h4-5,9H,1,3,8H2	InChI=1S/C6H9N3/c7-2-4-1-6(3-9-6)5(4)8/h4-5,9H,1,3,8H2/t4-,5-,6+/m0/s1
