18
gdb 16969	3.24875	2.17158	1.94597	1.7993	65.47	-0.2502	0.0703	0.3206	786.78	0.157043	-384.952421	-384.945797	-384.944852	-384.983029	26.752	
O	 0.0162304274	 1.4416391145	-0.0876877276	-0.433699
C	 0.0280799629	 0.0281681551	 0.0167584965	 0.123341
C	 0.6146919314	-0.5390847361	 1.3497976638	-0.260869
C	-0.5980766751	-1.3220535545	 1.8965952644	 0.086423
C	-1.6557105768	-0.3442117773	 2.4532077932	-0.216598
C	-2.2310831072	 0.2568120602	 1.1353791893	-0.217996
C	-1.4180350105	-0.520752951	 0.0794235721	 0.059677
O	-1.2164641264	-1.8013225346	 0.6879659835	-0.266995
H	 0.9245169146	 1.7435439145	-0.1787514736	 0.286778
H	 0.542831327	-0.4131166908	-0.8462448382	 0.071737
H	 1.4603651523	-1.2064952777	 1.1667869612	 0.099159
H	 0.9421633464	 0.2687853218	 2.0102795592	 0.096661
H	-0.3579789249	-2.1679503213	 2.5410143151	 0.073221
H	-2.4207087529	-0.8865443764	 3.0138198276	 0.101955
H	-1.2206593627	 0.4091286213	 3.1147264695	 0.09823
H	-3.2962736532	 0.0419658738	 1.0277346919	 0.098671
H	-2.0813993279	 1.3331009631	 1.0513315805	 0.124561
H	-1.8989962944	-0.6430276246	-0.8906485083	 0.075742
102.9141	265.0321	274.8688	343.2506	411.2739	507.2861	534.7433	587.4394	753.0756	793.4733	823.5117	829.3181	855.9054	900.7074	944.9864	954.612	992.0933	1005.4418	1021.4203	1038.9043	1078.3795	1112.7804	1132.9221	1194.0496	1200.4036	1236.4181	1241.6427	1275.6997	1291.9162	1309.4092	1319.1	1338.1407	1355.4341	1364.5387	1422.5311	1477.8243	1485.0509	1506.1906	3012.7944	3058.905	3064.1856	3080.5007	3106.6355	3109.1729	3118.7105	3126.0721	3142.6482	3831.5882
OC1CC2CCC1O2	O[C@H]1C[C@H]2CC[C@@H]1O2	
InChI=1S/C6H10O2/c7-5-3-4-1-2-6(5)8-4/h4-7H,1-3H2	InChI=1S/C6H10O2/c7-5-3-4-1-2-6(5)8-4/h4-7H,1-3H2/t4-,5+,6+/m1/s1
