19
gdb 38850	2.79518	1.87222	1.56274	1.5746	72.43	-0.2419	0.0792	0.321	919.1351	0.163079	-423.02599	-423.019354	-423.01841	-423.05679	27.607	
C	-0.023841053	 1.5251765618	-0.0830837512	-0.072021
O	 1.3341976578	 1.984587948	 0.014732993	-0.27304
C	 2.1663838678	 0.8401253461	 0.2295889985	 0.068897
C	 1.4421243132	-0.2966613866	-0.4939616472	-0.243454
C	 0.0145705762	-0.0168636814	 0.0165684349	-0.048472
C	-0.125156607	-0.5053071211	 1.4721054449	-0.24608
C	 1.0558576774	-0.0900143697	 2.3399188692	 0.055324
O	 2.2915794662	-0.7966167413	 2.1439986989	-0.257813
C	 2.2212783312	 0.5705401017	 1.7301668326	 0.045135
H	-0.6264392758	 1.9800750588	 0.7132316784	 0.095709
H	-0.4306020171	 1.8560192816	-1.0469819992	 0.10064
H	 3.1561254747	 1.0739205434	-0.1714907931	 0.077162
H	 1.5184950801	-0.1583337671	-1.5759682931	 0.100625
H	 1.8158693913	-1.2843213382	-0.2234318811	 0.122602
H	-0.7610998085	-0.4703614225	-0.6055163952	 0.072106
H	-1.0432763151	-0.0989305458	 1.9127694922	 0.101875
H	-0.2187364703	-1.5976948975	 1.5016233888	 0.113402
H	 0.83679202	 0.1047808792	 3.3893426052	 0.09428
H	 2.8170643607	 1.2639586107	 2.3224848138	 0.093124
134.7913	249.5956	298.6812	386.9793	418.6792	447.1768	528.3245	611.9093	745.1023	773.178	810.8519	836.1029	869.2029	885.712	907.5022	931.2094	954.5165	972.8173	994.2307	1034.7084	1060.6132	1072.6002	1098.2194	1107.7395	1146.7857	1166.8259	1186.4979	1221.0146	1267.3928	1285.3038	1313.6037	1326.9968	1328.0969	1351.4613	1372.1731	1382.254	1398.2855	1459.9076	1479.204	1486.0555	1525.4365	3012.7166	3029.3492	3046.7031	3064.7195	3068.0489	3076.6073	3083.7991	3109.6049	3124.8044	3139.5292
C1OC2CC1CC1OC21	C1O[C@@H]2C[C@H]1C[C@H]1O[C@@H]21	
InChI=1S/C7H10O2/c1-4-2-6-7(9-6)5(1)8-3-4/h4-7H,1-3H2	InChI=1S/C7H10O2/c1-4-2-6-7(9-6)5(1)8-3-4/h4-7H,1-3H2/t4-,5+,6+,7-/m0/s1
