23
gdb 82608	2.24679	1.66517	1.31188	0.1559	88.19	-0.2301	0.0703	0.3004	1120.6553	0.207522	-351.12019	-351.111487	-351.110543	-351.153354	34.456	
C	 2.4688249729	 2.034522791	-1.2996867403	-0.41995
C	 2.9725578988	 0.6092901208	-1.3754705309	-0.003947
C	 4.2580033295	 0.0667078002	-0.7930884904	-0.06712
C	 4.8786394402	 0.6741257345	 0.4811598876	-0.260044
C	 4.1191721733	 0.0928642415	 1.6897489735	-0.067943
C	 2.7773933175	 0.6510210507	 2.1118540016	-0.005366
C	 2.2882877123	 2.0789253999	 1.9423936104	-0.426341
C	 2.8405903561	-0.5197735909	 1.1412517168	-0.062194
C	 2.9244382385	-0.5368225932	-0.3761632776	-0.061737
H	 2.9214005288	 2.612101261	-0.4974866806	 0.11721
H	 2.7093923334	 2.5483861564	-2.2371743057	 0.110441
H	 1.3815659869	 2.076018174	-1.1739418551	 0.116538
H	 2.7987245913	 0.2052589437	-2.372766725	 0.081752
H	 4.9363138478	-0.45726028	-1.4598454795	 0.075163
H	 5.932605122	 0.3898304383	 0.543360696	 0.103792
H	 4.8648657897	 1.7713492009	 0.4685982916	 0.098995
H	 4.7176637341	-0.4122284847	 2.4419627899	 0.075412
H	 2.4936307792	 0.2680055922	 3.0910871392	 0.082785
H	 1.3416432802	 2.1405654548	 1.3984229905	 0.122796
H	 2.1257328049	 2.5203491829	 2.9310131493	 0.111152
H	 3.0128030147	 2.7175899074	 1.4345574154	 0.123445
H	 2.4683839347	-1.4537217638	 1.5512556575	 0.077637
H	 2.6019396733	-1.4817804274	-0.8027677043	 0.077524
92.7905	110.0268	157.8086	185.9238	243.5639	300.8188	394.7634	465.8165	500.4984	612.7489	633.5093	666.9455	694.4754	724.738	755.6885	815.3428	843.0315	898.091	911.2666	964.5076	983.0478	1013.7562	1021.323	1040.0427	1074.6154	1089.2955	1095.177	1104.5959	1115.7739	1132.7621	1141.6461	1151.9109	1211.5067	1260.1782	1285.1728	1297.0271	1326.993	1360.0001	1375.5487	1382.3751	1414.2457	1416.9167	1436.3493	1448.9449	1481.6508	1487.7199	1492.4011	1512.3242	1520.8684	3027.401	3035.9977	3043.5761	3082.1263	3083.7515	3092.4403	3094.8269	3107.3598	3125.9937	3132.5128	3140.9741	3143.9816	3156.7677	3177.2592
CC1C2CC3C(C)C3C12	C[C@H]1[C@H]2C[C@H]3[C@@H](C)[C@H]3[C@@H]12	
InChI=1S/C9H14/c1-4-6-3-7-5(2)9(7)8(4)6/h4-9H,3H2,1-2H3	InChI=1S/C9H14/c1-4-6-3-7-5(2)9(7)8(4)6/h4-9H,3H2,1-2H3/t4-,5+,6+,7-,8-,9+
