16
gdb 8562	4.15233	2.08974	1.76322	2.8245	65.35	-0.2288	0.0199	0.2486	772.9295	0.133466	-379.894578	-379.888448	-379.887504	-379.924815	24.659	
N	-0.0268036752	 1.2021055081	-0.5046488721	-0.529918
C	 0.0020108694	 0.0364390935	-0.019688396	 0.384621
C	-1.2844456284	-0.7667562662	 0.2073898497	-0.253994
N	-1.0622031858	-2.1025884994	 0.778697505	-0.124793
C	-0.0807911262	-1.9358203558	 1.9177153564	-0.195925
C	 1.0457028532	-1.9096669483	 0.871583056	 0.105371
C	 0.0760997278	-2.7283979988	 0.0034734477	-0.195922
O	 1.1727501951	-0.5836789116	 0.3329788058	-0.255931
H	 0.9191567178	 1.581499474	-0.5841949747	 0.220015
H	-1.9394946241	-0.1935011158	 0.8703078418	 0.140835
H	-1.8067186503	-0.8640213093	-0.7491366367	 0.140835
H	-0.2199943992	-1.0468927467	 2.5385370928	 0.120082
H	-0.0746803546	-2.8332125773	 2.5417623525	 0.11766
H	 2.0592256954	-2.2479203466	 1.0947025463	 0.089324
H	 0.117267715	-3.8029049726	 0.1997506337	 0.117659
H	 0.0760709801	-2.5425380072	-1.0737662279	 0.120081
91.2067	335.4991	403.1748	425.2287	463.5023	493.0222	530.2859	625.427	779.8304	817.3821	836.5931	891.9578	902.3579	926.8888	932.0978	987.1915	995.0462	1044.7487	1072.1108	1097.3865	1115.8639	1164.0396	1248.1279	1255.1839	1258.4043	1271.619	1281.4109	1308.4655	1337.661	1394.0881	1471.1238	1483.5739	1512.0834	1759.0012	3055.609	3057.2508	3062.9635	3097.0578	3100.1217	3119.5561	3120.5591	3460.0127
N=C1CN2CC(C2)O1	[NH][C]1CN2C[C@@H](C2)O1	
InChI=1S/C5H8N2O/c6-5-3-7-1-4(2-7)8-5/h4,6H,1-3H2	InChI=1S/C5H8N2O/c6-5-3-7-1-4(2-7)8-5/h4,6H,1-3H2
