13
gdb 29229	3.2541	1.45618	1.006	7.2603	65.1	-0.2299	-0.0425	0.1874	1066.2496	0.089272	-489.944398	-489.936386	-489.935441	-489.97693	29.57	
N	 0.0294934092	 1.3305723295	 0.0095583754	-0.550021
C	 0.0048355537	-0.0140403445	 0.0028217079	 0.388906
N	-1.1461972636	-0.6391949476	-0.0013638169	-0.422047
C	-1.203828053	-2.0009905524	-0.0092728075	 0.429586
O	-2.1882041806	-2.6809167274	-0.0138004623	-0.349105
O	 0.0414485546	-2.7177346904	-0.0125718203	-0.218965
C	 1.2055009591	-2.0552417941	-0.0079860886	-0.016454
C	 1.2711118513	-0.7130812879	-0.0004412446	 0.195127
O	 2.4020744585	 0.0588162332	 0.004612831	-0.455029
H	 0.9034460281	 1.8254362322	 0.0156859991	 0.283669
H	-0.8442321331	 1.8293329478	 0.0142126975	 0.27823
H	 2.0714605879	-2.7110274687	-0.0110428729	 0.129602
H	 3.1851324478	-0.5018748897	 0.0027872521	 0.306502
86.7335	189.9811	196.881	232.1979	307.2551	365.4905	377.27	389.2066	476.9784	553.1023	601.6007	607.3025	706.0682	763.1278	780.8072	780.9241	816.3784	886.1962	1025.1717	1162.9073	1195.3557	1279.6598	1314.7773	1371.7183	1530.335	1583.73	1634.1887	1728.1545	1873.8177	3175.5272	3616.6263	3756.4087	3819.9046
NC1=NC(=O)OC=C1O	Nc1nc(=O)occ1O	
InChI=1S/C4H4N2O3/c5-3-2(7)1-9-4(8)6-3/h1,7H,(H2,5,6,8)	InChI=1S/C4H4N2O3/c5-3-2(7)1-9-4(8)6-3/h1,7H,(H2,5,6,8)
