17
gdb 127585	3.30341	1.23408	0.90869	5.4884	79.62	-0.2425	-0.0345	0.208	1244.0555	0.135789	-418.052757	-418.04372	-418.042775	-418.08713	31.395	
C	 0.0055814637	 1.4129683231	-0.0138533716	-0.332125
N	 0.0073096852	-0.0346323491	 0.040287299	-0.015439
N	-0.0223600391	-0.7443190353	-1.1237947181	-0.261644
C	-0.0126831532	-2.0089247343	-0.7467884422	-0.062479
C	 0.0230849892	-2.1389968255	 0.665834926	 0.008192
C	 0.0423816672	-3.3737083256	 1.4325901071	 0.070943
O	 0.0301544359	-4.4864932122	 0.9491472291	-0.288846
C	 0.0352013215	-0.8243167049	 1.137618919	 0.292774
C	 0.0707532657	-0.2670451051	 2.5222237766	-0.506528
H	 0.9068332332	 1.8245349183	 0.4513365452	 0.143375
H	-0.0187400559	 1.693890049	-1.0656134574	 0.171246
H	-0.8735670382	 1.8240767193	 0.4923024737	 0.143401
H	-0.0312597599	-2.8028242765	-1.4776743753	 0.141824
H	 0.0702135269	-3.2413148248	 2.5384643815	 0.052238
H	 0.9606032179	 0.3522220021	 2.6840342564	 0.145427
H	-0.8050649899	 0.359609198	 2.7263493109	 0.145291
H	 0.0851115097	-1.0710453864	 3.2593714202	 0.152349
73.814	95.865	109.8933	176.0499	188.2982	257.1943	269.9431	304.6661	384.319	523.7238	637.4569	657.6563	682.2033	762.29	801.1292	909.7446	955.2506	1028.1869	1031.6606	1058.56	1121.6677	1149.9063	1200.9722	1214.3272	1303.5354	1413.9159	1426.6589	1430.8407	1436.5797	1462.3282	1477.0945	1488.4884	1490.9784	1498.5948	1521.0225	1591.6591	1782.1057	2859.8687	3031.373	3040.8768	3081.2487	3099.9207	3139.0117	3171.4079	3262.2904
CN1N=CC(C=O)=C1C	Cn1ncc(C=O)c1C	
InChI=1S/C6H8N2O/c1-5-6(4-9)3-7-8(5)2/h3-4H,1-2H3	InChI=1S/C6H8N2O/c1-5-6(4-9)3-7-8(5)2/h3-4H,1-2H3
