16
gdb 25783	4.37626	1.04783	0.84696	3.9895	77.01	-0.2044	-0.0204	0.184	1300.2762	0.125974	-434.098459	-434.089962	-434.089018	-434.131882	32.293	
N	-0.1861216846	 1.3256596016	 0.168397645	-0.525095
C	 0.0469476478	-0.0283135749	 0.0691116531	 0.238668
N	 1.2493025058	-0.4725412256	 0.0082930267	-0.538221
C	-1.1668756299	-0.8595128774	 0.0807853755	 0.395163
C	-1.3636286595	-2.2110976414	 0.0880414174	-0.371634
C	-2.7791644824	-2.4242437388	 0.0776189398	 0.241832
N	-3.4177155777	-3.6659695162	 0.1581476281	-0.606464
C	-3.3411033885	-1.1781078818	 0.0622466274	-0.10069
O	-2.3674240995	-0.2200613461	 0.0699223671	-0.200441
H	 0.6076973743	 1.903389228	-0.0601853372	 0.255716
H	-1.0876682076	 1.6676487493	-0.1190462065	 0.260093
H	 1.2588269032	-1.4899654134	-0.004806229	 0.21059
H	-0.6010201174	-2.9742082325	 0.1088337052	 0.116343
H	-2.9277316944	-4.3950072751	-0.3430160301	 0.249384
H	-4.3835527694	-3.6409561146	-0.1403716531	 0.246835
H	-4.3577172003	-0.8228903211	 0.0567162607	 0.127922
43.5754	146.275	183.2748	220.8717	335.6571	346.279	401.3034	417.6908	483.1549	524.7175	609.7153	616.7623	627.7933	676.1207	713.3697	739.3505	747.646	804.5709	818.0194	955.4016	1007.1437	1090.1194	1107.4847	1138.8401	1159.8195	1182.9448	1261.2787	1321.5979	1419.3251	1449.9029	1563.962	1616.3543	1652.4399	1677.5845	1698.3213	3252.7965	3280.4033	3510.6316	3545.7692	3593.8392	3635.7614	3718.2963
NC(=N)C1=CC(N)=CO1	NC(=N)c1cc(N)co1	
InChI=1S/C5H7N3O/c6-3-1-4(5(7)8)9-2-3/h1-2H,6H2,(H3,7,8)	InChI=1S/C5H7N3O/c6-3-1-4(5(7)8)9-2-3/h1-2H,6H2,(H3,7,8)
