13
gdb 21085	3.83693	2.01799	1.3336	3.1613	69.09	-0.2495	-0.0338	0.2157	857.9861	0.096499	-357.636972	-357.629788	-357.628843	-357.668699	25.498	
C	 0.0428937501	 1.4155892823	-0.012781414	-0.329502
N	 0.0470394089	-0.0324748635	 0.0167049616	-0.023629
N	 0.1138262277	-0.7470646108	-1.1237321582	-0.234318
C	 0.0940222157	-1.9987038694	-0.6832112192	 0.006769
N	 0.0191910064	-2.1386752672	 0.66031101	-0.318888
C	-0.0095109058	-0.8768929732	 1.083464284	 0.227631
C	-0.0864425853	-0.4327116909	 2.4234815269	 0.274791
C	-0.1515932246	-0.035270548	 3.5572573745	-0.411462
H	 0.9590479971	 1.7805777032	-0.4829290793	 0.157635
H	-0.8180672787	 1.7734917618	-0.5822331518	 0.157628
H	-0.0159164684	 1.7811279727	 1.0125331298	 0.158693
H	 0.1352938212	-2.8372888711	-1.3621273175	 0.128668
H	-0.2094106143	 0.2998322541	 4.5637803931	 0.205984
79.3572	153.7068	162.597	221.7794	348.5635	457.5503	544.0409	603.1586	606.111	678.6029	686.6065	738.8284	749.3186	907.4488	990.7723	1043.5431	1153.8876	1176.593	1225.5545	1308.2972	1318.6487	1404.3905	1448.9954	1475.1518	1479.3421	1507.9381	1534.9293	2240.7364	3059.4853	3129.4708	3163.194	3260.8143	3498.6627
CN1N=CN=C1C#C	Cn1ncnc1C#C	
InChI=1S/C5H5N3/c1-3-5-6-4-7-8(5)2/h1,4H,2H3	InChI=1S/C5H5N3/c1-3-5-6-4-7-8(5)2/h1,4H,2H3
