19
gdb 70436	2.7811	1.55277	1.32119	1.2242	74.84	-0.2237	0.0582	0.282	1040.8872	0.158498	-422.968302	-422.960276	-422.959332	-423.00057	32.009	
O	-0.0950736182	 1.4184809632	-0.3267422561	-0.444761
C	 0.0512697331	 0.0657454436	-0.1063392973	 0.249789
C	-0.9341607581	-0.6888644949	 0.7424160692	-0.334809
C	 0.540745513	-0.7748413999	 1.050553664	-0.002512
O	 1.1710547348	-1.7129125001	 0.1712630328	-0.332223
C	 0.8245224172	-0.9182945633	-0.990728433	 0.401729
C	 0.1972180098	-1.5764010086	-2.2338610484	-0.291012
C	 1.0521212663	-0.6151667731	-3.1083389752	-0.211866
C	 1.9658472442	-0.3700545893	-1.8757011138	-0.303071
H	 0.7817772095	 1.8170193506	-0.3665388119	 0.290614
H	-1.4997788412	-0.0447070091	 1.4093053086	 0.120272
H	-1.4631801278	-1.5612472332	 0.3674593385	 0.115352
H	 1.0075004261	-0.5669168823	 2.0055210589	 0.107902
H	 0.530790354	-2.6139066554	-2.3254135163	 0.115099
H	-0.8912059232	-1.5400647152	-2.3255727847	 0.102462
H	 1.5211157671	-1.03268025	-4.0006979874	 0.103351
H	 0.4966039146	 0.2832325181	-3.3873298442	 0.113933
H	 2.3280060698	 0.6455297103	-1.6880662785	 0.081313
H	 2.8168882192	-1.0556735214	-1.8485541855	 0.118438
104.7568	143.7883	196.8662	266.792	327.8725	383.4811	434.8018	447.8866	472.7112	534.4204	647.1621	698.0241	782.4082	802.9096	856.0627	897.8743	906.0592	923.3584	928.6929	962.3417	981.4806	1011.1119	1029.7594	1054.1189	1085.8019	1097.9399	1138.6053	1176.1413	1195.1586	1208.576	1244.5957	1262.5689	1271.7888	1274.7748	1294.3736	1356.5179	1409.8018	1465.4835	1480.0373	1489.2875	1502.7447	3047.5845	3058.6737	3072.1644	3103.1807	3110.4258	3110.9882	3130.8606	3189.4038	3208.3229	3792.0087
OC12CC1OC21CCC1	O[C@]12C[C@H]1OC12CCC1	
InChI=1S/C7H10O2/c8-7-4-5(7)9-6(7)2-1-3-6/h5,8H,1-4H2	InChI=1S/C7H10O2/c8-7-4-5(7)9-6(7)2-1-3-6/h5,8H,1-4H2/t5-,7-/m1/s1
