16
gdb 33316	6.76794	0.72014	0.70458	5.5059	90.04	-0.2761	-0.0405	0.2357	1564.5199	0.125844	-363.550263	-363.542732	-363.541788	-363.582978	28.421	
N	-0.0624393043	-3.7825397364	-0.1295295833	-0.339023
C	-0.0396903404	-2.6213106065	-0.086777097	 0.188082
C	-0.0121516586	-1.2583085511	-0.0357840581	 0.134253
C	 0.0158996708	-0.0494328382	 0.0129487348	 0.034504
C	 0.0214574349	 1.3928833891	 0.0439978758	-0.205876
C	 0.0793601237	 2.1467520763	 1.4239608354	-0.035517
C	 1.5656681442	 1.7014707093	 1.5443739263	-0.227057
C	 1.3889466581	 2.1708308809	 0.0711606873	-0.035517
C	 0.5879374723	 3.3817948334	 0.6277840005	-0.227576
H	-0.7149776289	 1.7905600005	-0.6618347493	 0.109803
H	-0.6924155136	 2.1169935446	 2.19288464	 0.091314
H	 2.203867312	 2.3259744669	 2.1733023325	 0.102347
H	 1.7551411695	 0.6394781371	 1.7088921069	 0.116998
H	 2.1327003628	 2.1689380378	-0.7254533397	 0.091315
H	-0.1215044193	 3.8630065282	-0.0504305279	 0.099194
H	 1.1621973368	 4.1156289182	 1.1967616458	 0.102756
78.6634	81.1245	219.2063	224.8311	411.2912	428.9742	491.636	564.4526	579.6121	588.9172	764.6977	804.819	817.6573	869.9466	897.9433	903.5094	906.2055	1012.5267	1025.7644	1032.8829	1086.1852	1105.4562	1111.6904	1133.3286	1195.1287	1205.4055	1209.1182	1241.1892	1241.6615	1254.9358	1366.7537	1501.5541	1539.6716	2257.8855	2391.1827	3056.5211	3060.1636	3070.9854	3117.3056	3121.1284	3128.8599	3138.4328
N#CC#CC1C2CC1C2	N#CC#C[C@H]1[C@H]2C[C@@H]1C2	
InChI=1S/C8H7N/c9-3-1-2-8-6-4-7(8)5-6/h6-8H,4-5H2	InChI=1S/C8H7N/c9-3-1-2-8-6-4-7(8)5-6/h6-8H,4-5H2/t6-,7+,8-
