17
gdb 48482	2.13361	1.57615	1.20272	4.1585	72.84	-0.2521	-0.0569	0.1953	1088.075	0.1368	-418.028811	-418.020373	-418.019428	-418.062355	30.846	
O	 0.2861235619	 0.0494611292	 0.5653158729	-0.243949
C	 0.1801174265	 1.1919158481	 0.2130775646	 0.141478
C	 1.3968237434	 2.0699741675	-0.1506504321	 0.049441
C	 1.6015699211	 3.1223943542	 1.0001456934	-0.266036
C	 2.6746653613	 2.4577766191	 1.8714773752	-0.216659
C	 3.550619242	 1.7617980349	 0.8200381558	-0.159974
N	 2.6227814311	 1.2797852247	-0.2206894631	-0.32745
C	 1.0793850128	 2.7431827019	-1.4231083673	 0.269667
N	 0.7885881062	 3.2748905181	-2.4073642647	-0.333518
H	-0.7995798146	 1.7064772967	 0.146311392	 0.120249
H	 1.9670182648	 4.0568754202	 0.5666593832	 0.139277
H	 0.6675227184	 3.3445632088	 1.5233337973	 0.122141
H	 3.2167463438	 3.1819369034	 2.4847728415	 0.112187
H	 2.2212881844	 1.7161662907	 2.5378234371	 0.117577
H	 4.2571081111	 2.4766926665	 0.3795028443	 0.116414
H	 4.1333298547	 0.92701931	 1.2167040076	 0.116442
H	 2.3690616411	 0.3105357761	-0.0532208178	 0.242711
67.9625	96.4067	164.3914	182.2692	252.6707	301.0697	343.7025	484.4892	531.7538	559.9852	582.3073	640.5599	747.8308	804.3957	862.3329	889.9228	921.4989	943.9132	981.3122	1001.1017	1046.7561	1082.8127	1141.9873	1162.2921	1216.9492	1238.9517	1275.0103	1315.8087	1342.6031	1369.8164	1403.5822	1485.726	1488.925	1496.2964	1515.4481	1834.2912	2350.8901	2938.0519	3025.8923	3052.16	3065.1908	3101.0139	3105.2976	3117.5482	3514.9203
O=CC1(CCCN1)C#N	O=C[C@]1(CCCN1)C#N	
InChI=1S/C6H8N2O/c7-4-6(5-9)2-1-3-8-6/h5,8H,1-3H2	InChI=1S/C6H8N2O/c7-4-6(5-9)2-1-3-8-6/h5,8H,1-3H2/t6-/m0/s1
