23
gdb 41609	3.62133	1.20884	1.09786	0.1315	89.	-0.2441	0.0891	0.3332	1226.1825	0.208705	-351.143497	-351.135539	-351.134594	-351.176183	32.399	
C	-0.114255838	 1.4276770762	-0.1542380274	-0.238362
C	 1.4376931428	 1.5240654044	 0.0194051926	-0.239402
C	 1.5074178339	-0.0046759249	 0.1190286978	-0.117231
C	-0.0165822099	-0.0982692216	-0.0398790792	-0.112472
C	 0.90591329	-0.6765137965	-1.0854824284	 0.390788
C	 0.9845212684	-0.1652667443	-2.5373677871	-0.290036
C	 1.2228858825	-1.4270642716	-3.3968131318	-0.205123
C	 0.5941159375	-2.563618479	-2.5748656696	-0.202037
C	 1.0030377441	-2.2102102708	-1.1363377509	-0.279819
H	-0.6505132763	 1.8833001497	 0.6810976118	 0.100126
H	-0.535207397	 1.8195919996	-1.0861021862	 0.09344
H	 2.0041656673	 1.988200953	-0.7945361099	 0.093207
H	 1.712900036	 2.0194637312	 0.9533040156	 0.100434
H	 2.1577444057	-0.5545216501	 0.7917041516	 0.073376
H	-0.7205021272	-0.7301183759	 0.491524999	 0.074964
H	 0.0396015799	 0.3109108547	-2.8235686225	 0.099772
H	 1.7706484943	 0.5815646723	-2.6834754862	 0.096857
H	 0.8077944991	-1.3378082695	-4.404784158	 0.090994
H	 2.2990461212	-1.6094326309	-3.505644892	 0.096638
H	-0.4984274397	-2.5353198179	-2.6716547494	 0.096519
H	 0.9264394874	-3.5586636801	-2.8845673296	 0.090118
H	 2.0394650506	-2.5292032395	-0.9625700962	 0.094604
H	 0.3866701174	-2.6993066485	-0.375839594	 0.092645
49.4018	180.9768	204.7241	239.1832	302.8962	406.6144	420.6421	517.5248	558.457	700.3387	718.0725	780.8271	835.5861	842.2753	852.0931	870.3163	912.7125	922.0804	940.0336	966.4343	973.5236	978.6808	1006.6811	1029.0823	1036.062	1071.2504	1094.1889	1098.5316	1148.0542	1185.1936	1197.7543	1220.705	1237.1492	1247.8802	1251.7976	1259.7802	1274.7329	1288.4277	1315.5884	1337.6283	1343.2134	1354.3569	1417.0756	1480.1225	1487.4633	1492.2653	1492.8968	1501.7978	1512.9707	3014.782	3028.2587	3032.2004	3033.9258	3042.0704	3050.3828	3074.7153	3076.5446	3086.1321	3091.985	3093.847	3110.588	3153.8153	3165.8221
C1CC2C1C21CCCC1	C1C[C@H]2[C@@H]1C12CCCC1	
InChI=1S/C9H14/c1-2-6-9(5-1)7-3-4-8(7)9/h7-8H,1-6H2	InChI=1S/C9H14/c1-2-6-9(5-1)7-3-4-8(7)9/h7-8H,1-6H2/t7-,8+
