23
gdb 100070	2.6775	0.85878	0.77361	1.0359	90.96	-0.2365	0.0597	0.2962	1653.2271	0.20101	-388.267211	-388.255224	-388.25428	-388.306021	41.833	
C	-0.1058743792	 1.3837816025	 0.1009327793	-0.240721
O	 0.0466780247	-0.0100651284	-0.0301692456	-0.268234
C	 0.6853911163	-0.5076116689	-1.2107600653	 0.358757
C	 0.0065936694	-0.0065709818	-2.4927283592	-0.423312
C	 2.1812216682	-0.1522463312	-1.2063668312	-0.418595
C	 0.5407637303	-2.0456025108	-1.0766872989	-0.372893
C	-0.8316177128	-2.53653457	-1.1219764702	 0.056446
C	-1.9586911715	-2.9578033831	-1.1669101955	 0.09037
C	-3.3226740326	-3.4662379727	-1.2090935659	-0.498469
H	 0.8499118577	 1.926033511	 0.0597526661	 0.101047
H	-0.7780983671	 1.810685784	-0.6561757581	 0.106715
H	-0.5498697461	 1.5522919959	 1.0857090194	 0.12603
H	 0.1549883051	 1.0675284679	-2.6354275015	 0.110135
H	 0.431113511	-0.5145589066	-3.3643123251	 0.113675
H	-1.0650678122	-0.2165402671	-2.4629463713	 0.135007
H	 2.6515615964	-0.4964797703	-0.2803907605	 0.119166
H	 2.6931681796	-0.6219569043	-2.0519650812	 0.113476
H	 2.3373576923	 0.9269654856	-1.2897460897	 0.113431
H	 1.1310206246	-2.5194380699	-1.8710268976	 0.116363
H	 1.0034660688	-2.3334671339	-0.1249251231	 0.128202
H	-3.3957737789	-4.4488766111	-0.7294339015	 0.145043
H	-4.0145573005	-2.7944389874	-0.6887133401	 0.146054
H	-3.6800183635	-3.5755920691	-2.2393023432	 0.142307
19.9992	55.3472	59.92	93.9475	174.2202	200.7682	234.699	243.732	262.7975	291.5146	317.2685	356.9971	387.2131	396.6368	428.1241	456.54	576.4629	737.1387	783.9018	855.8046	892.7585	921.4456	985.1171	1015.0468	1053.2079	1055.3441	1118.9954	1165.0786	1170.902	1180.1326	1188.8144	1213.1486	1260.5166	1296.5574	1350.1684	1394.0458	1412.4757	1415.9702	1457.3342	1475.2721	1479.3873	1480.229	1480.3861	1482.2934	1495.2898	1503.496	1509.2125	1515.595	2373.6078	2989.263	3023.1551	3024.0315	3035.1976	3042.2578	3046.0582	3060.7408	3082.6481	3083.8864	3104.9387	3106.5408	3113.2498	3115.5459	3130.9322
COC(C)(C)CC#CC	COC(C)(C)CC#CC	
InChI=1S/C8H14O/c1-5-6-7-8(2,3)9-4/h7H2,1-4H3	InChI=1S/C8H14O/c1-5-6-7-8(2,3)9-4/h7H2,1-4H3
