19
gdb 89330	1.94651	1.77515	1.10405	1.8542	83.84	-0.2369	0.0219	0.2588	1170.1594	0.156147	-385.835516	-385.826216	-385.825272	-385.869051	35.432	
C	-0.0492712618	 1.5740183646	 0.0943599354	-0.410409
C	 0.0193809719	 0.061351584	-0.0456666277	-0.063538
C	 1.1138980533	-0.5615394572	-0.9871948662	-0.309233
C	 1.6853604456	-1.3153536322	 0.2243321121	 0.3158
C	 2.4022424442	-2.6240009817	 0.2648589434	-0.496433
O	 2.0457925611	-0.3146186008	 1.1839535769	-0.322289
C	 0.6602979462	-0.7215070442	 1.1252983866	 0.219719
C	 0.034683545	-1.2089420295	 2.305615936	 0.19837
C	-0.5398302929	-1.6129189936	 3.2826203316	-0.389491
H	 0.9272885805	 1.9731375981	 0.3818745976	 0.133365
H	-0.3468299588	 2.0402177215	-0.8507767054	 0.114175
H	-0.7786423076	 1.8668142608	 0.8569979548	 0.121458
H	-0.9635081627	-0.3585428537	-0.2787230264	 0.082515
H	 0.6919733238	-1.2165604773	-1.7532231702	 0.10574
H	 1.8108984768	 0.1419947726	-1.4500618171	 0.108418
H	 3.4091935311	-2.5247552161	-0.156239005	 0.132949
H	 2.4933329673	-2.9742822327	 1.2960682769	 0.142778
H	 1.8651676634	-3.3775744568	-0.3195797054	 0.126614
H	-1.0359563967	-1.9699224859	 4.1510270822	 0.189489
107.6293	134.5719	161.972	193.5842	216.1542	244.3587	327.5591	348.9663	400.3872	487.7313	546.068	561.5026	586.4566	605.6879	666.8448	686.5375	728.2762	828.6985	858.4609	902.1248	910.412	986.5879	1035.2266	1085.1505	1104.8566	1140.2381	1177.3857	1188.8127	1220.	1225.8698	1298.2412	1355.4175	1400.8263	1406.9029	1453.2699	1477.988	1485.0369	1491.5256	1498.9899	1504.4141	2235.2806	3034.6772	3035.4941	3060.7582	3067.9158	3098.6359	3098.8853	3117.7932	3121.9381	3126.5738	3502.0463
CC1CC2(C)OC12C#C	C[C@H]1C[C@@]2(C)O[C@@]12C#C	
InChI=1S/C8H10O/c1-4-8-6(2)5-7(8,3)9-8/h1,6H,5H2,2-3H3	InChI=1S/C8H10O/c1-4-8-6(2)5-7(8,3)9-8/h1,6H,5H2,2-3H3/t6-,7+,8-/m0/s1
