22
gdb 122312	4.9251	0.70645	0.68	1.8381	83.78	-0.249	0.0825	0.3316	1744.522	0.193994	-404.297532	-404.287985	-404.287041	-404.33288	34.79	
C	-0.2929767796	 1.3635305604	 0.0797309149	-0.228082
O	 0.0246104824	 0.0003982917	-0.053463559	-0.229118
C	 0.6012974346	-0.5454663843	 1.1128329569	-0.04883
C	 0.8822159343	-2.0250147866	 0.8659352726	-0.310394
C	 1.5350323387	-2.683750823	 2.0462868807	 0.354544
C	 3.0041490035	-2.5226162731	 2.4903153848	-0.292998
C	 2.9906018208	-4.0094501557	 2.9791950681	-0.235168
C	 1.5263385812	-4.1087827451	 2.5311037373	-0.096556
N	 0.7042942744	-3.0908383096	 3.1802105414	-0.356085
H	 0.600556865	 1.974735227	 0.2871687857	 0.099877
H	-0.7324683617	 1.6928097271	-0.8652162117	 0.125006
H	-1.0198452915	 1.5384157872	 0.8892455506	 0.102862
H	 1.5345295535	-0.0101505944	 1.3639148495	 0.080116
H	-0.0791120112	-0.4322304611	 1.9732404508	 0.097172
H	-0.0629492331	-2.530521111	 0.6448366254	 0.116676
H	 1.5226199238	-2.1195347622	-0.0191466956	 0.102724
H	 3.6921755646	-2.3699338893	 1.6547110013	 0.107779
H	 3.1929174993	-1.7474106196	 3.2410554473	 0.093758
H	 3.6670998536	-4.6413469716	 2.3987867639	 0.108111
H	 3.1727051111	-4.1906531884	 4.0441773596	 0.096749
H	 1.0262447509	-4.9838799967	 2.1302586911	 0.092645
H	 1.0834336656	-2.8004638915	 4.0805205144	 0.219213
49.8514	89.1076	97.584	120.0692	226.6873	234.9836	286.8269	331.9964	356.8067	473.6677	479.5342	709.7483	753.7091	781.4762	802.556	834.218	923.5092	938.8452	954.5099	994.4319	998.9898	1027.128	1062.2805	1078.8095	1111.8231	1142.2689	1163.1737	1180.7401	1188.4669	1208.0646	1225.2998	1230.8857	1238.2644	1254.0444	1280.5968	1294.1352	1318.2166	1326.677	1419.7921	1445.6469	1478.4927	1481.2708	1482.4641	1485.7095	1501.5421	1504.8948	1533.8995	2941.8016	2966.3121	2981.5927	3007.4674	3037.5343	3039.6699	3046.9301	3091.8801	3092.9992	3110.4748	3110.7877	3171.4151	3450.794
COCCC12CCC1N2	COCC[C@]12CC[C@H]1N2	
InChI=1S/C7H13NO/c1-9-5-4-7-3-2-6(7)8-7/h6,8H,2-5H2,1H3	InChI=1S/C7H13NO/c1-9-5-4-7-3-2-6(7)8-7/h6,8H,2-5H2,1H3/t6-,7-/m1/s1
