19
gdb 38264	3.07037	1.78552	1.43436	0.3052	74.81	-0.2351	0.098	0.3331	954.2039	0.162184	-422.964083	-422.95749	-422.956546	-422.994658	28.095	
C	-0.0418516466	 1.6300704073	 0.0957534594	-0.297084
C	 1.4493141987	 1.2200655318	-0.0046463482	-0.120942
C	 1.1240134559	 0.0458279669	 1.0006671984	-0.308687
C	-0.013760165	 0.0627776434	-0.0374769477	 0.420851
O	-1.0899210605	-0.7773840733	-0.2568638996	-0.308161
C	-1.6082942379	-0.4599609666	-1.5593187784	-0.112709
C	-0.5219877831	-0.3556818351	-2.6474657609	-0.090998
O	 0.4950054422	 0.6078435973	-2.3547991205	-0.278479
C	 1.0568966386	 0.2162925243	-1.1202167505	 0.107456
H	-0.375241105	 2.0226630185	 1.0587949292	 0.091238
H	-0.441648114	 2.1951548642	-0.7442340003	 0.110123
H	 2.3179521903	 1.8723910212	 0.03368493	 0.086657
H	 1.7936634336	-0.8181844553	 0.9863577173	 0.099758
H	 0.8781027576	 0.3559230991	 2.0178082864	 0.104057
H	-2.3049632545	-1.261206206	-1.8205858789	 0.113218
H	-2.1676073254	 0.4849930237	-1.508035431	 0.107925
H	-0.0610141847	-1.3459828954	-2.7936511762	 0.0989
H	-0.9877271673	-0.0500423564	-3.588745213	 0.113269
H	 1.740944877	-0.6329918795	-1.2595021154	 0.063607
187.0325	255.8162	366.5833	387.3321	412.4336	458.6662	527.2318	554.3363	633.7224	686.6813	775.5418	830.1904	852.3327	894.8488	908.9912	931.7304	956.0821	986.4811	1016.166	1052.134	1060.9303	1078.8467	1090.1373	1120.2302	1128.353	1136.6583	1162.8849	1179.591	1208.5986	1233.5111	1248.1021	1278.6783	1287.4125	1324.7256	1386.3234	1404.804	1418.9777	1483.8276	1490.9176	1491.9358	1536.4396	2978.1771	3004.4666	3009.2551	3061.2151	3077.1995	3093.5002	3097.7695	3132.51	3151.1599	3159.1266
C1C2CC11OCCOC21	C1[C@H]2C[C@]31OCCO[C@@H]23	
InChI=1S/C7H10O2/c1-2-9-7-3-5(4-7)6(7)8-1/h5-6H,1-4H2	InChI=1S/C7H10O2/c1-2-9-7-3-5(4-7)6(7)8-1/h5-6H,1-4H2/t5-,6-,7-/m0/s1
