18
gdb 93438	2.84923	1.33053	0.95781	4.2653	72.8	-0.2445	-0.0265	0.2181	1205.8579	0.147954	-439.155655	-439.146978	-439.146034	-439.189578	32.215	
C	 0.0835409464	 1.5778058092	-0.013236146	-0.403071
C	 0.0838095451	 0.0479668407	-0.0403725462	-0.08794
C	 0.8896862964	-0.5403011493	-1.2076330521	-0.188626
N	 0.9071820211	-1.9925735607	-1.142132775	-0.304785
C	 1.145834709	-2.6960199184	 0.0042406674	 0.381858
O	 1.1799942683	-3.9086963793	 0.0481035815	-0.36273
C	 1.3864686533	-1.8114554202	 1.225264769	-0.429458
C	 0.5441812395	-0.5414047672	 1.2984081602	 0.393334
O	 0.2550861386	-0.0345460096	 2.3550066667	-0.310075
H	 1.1054846214	 1.9703558472	 0.0253504203	 0.12187
H	-0.4040424006	 1.9869237034	-0.9029317551	 0.115952
H	-0.4438095956	 1.9313408846	 0.8742802156	 0.150384
H	-0.9512195029	-0.3089410901	-0.1538528293	 0.121217
H	 0.43530039	-0.2454390425	-2.1569464978	 0.124081
H	 1.9098481998	-0.1253330347	-1.2029020019	 0.113317
H	 0.8038363467	-2.5411128737	-1.9820473023	 0.252849
H	 1.2685714594	-2.3993137068	 2.1353435639	 0.157314
H	 2.4365479541	-1.4822459427	 1.1863447513	 0.15451
45.1564	86.9429	203.659	212.7295	273.2567	320.0067	392.1199	406.4843	434.5048	482.4682	542.1478	593.6352	631.8177	712.2692	731.4231	862.5108	903.8373	910.1712	961.7552	1058.5397	1084.1473	1106.3999	1148.3418	1169.0698	1179.0714	1255.683	1269.9777	1294.5282	1340.9103	1351.5698	1390.6156	1407.0252	1428.5107	1464.8492	1494.1341	1501.9115	1516.3207	1804.3328	1821.0816	2980.3093	3004.1682	3010.8844	3042.0589	3091.7035	3106.6392	3142.0532	3144.2086	3628.3044
CC1CNC(=O)CC1=O	C[C@H]1CNC(=O)CC1=O	
InChI=1S/C6H9NO2/c1-4-3-7-6(9)2-5(4)8/h4H,2-3H2,1H3,(H,7,9)	InChI=1S/C6H9NO2/c1-4-3-7-6(9)2-5(4)8/h4H,2-3H2,1H3,(H,7,9)/t4-/m0/s1
