20
gdb 83939	2.28196	1.65478	1.45762	2.1253	79.32	-0.2329	-0.0061	0.2267	1043.1346	0.172528	-403.148439	-403.140391	-403.139447	-403.180716	31.605	
C	 0.0258738262	 1.4154722063	-0.1195346034	-0.339344
N	-0.0074108927	-0.0373755166	 0.0519744532	-0.093397
C	-1.2988525767	-0.5388121187	 0.6557209519	-0.102807
C	-1.4116215294	-2.0334136755	 0.3330154907	-0.206402
C	-0.274706715	-2.8074790197	 1.0387621403	-0.217642
C	 1.0425917471	-2.0001344046	 1.0912210405	-0.206402
C	 0.7305221365	-0.5112940633	 1.2826763559	-0.102807
C	-0.6107747888	-0.2933170727	 2.016219539	 0.40576
O	-0.9388778337	 0.1976215547	 3.0566998172	-0.324203
H	 1.0372998795	 1.7161958573	-0.4082529115	 0.125857
H	-0.653641655	 1.6932682102	-0.930622677	 0.125857
H	-0.2598954421	 1.9864722333	 0.7804533733	 0.115841
H	-2.1913305711	 0.0407775853	 0.4079610391	 0.085929
H	-2.3842903398	-2.4230616512	 0.6512633152	 0.104405
H	-1.3494798013	-2.1400890342	-0.755108948	 0.112029
H	-0.5904332239	-3.0096547342	 2.069602155	 0.11502
H	-0.1164642436	-3.7826369623	 0.5693539233	 0.099941
H	 1.6756370345	-2.3680086858	 1.9055391805	 0.104406
H	 1.6075871902	-2.0999919991	 0.1584484957	 0.112029
H	 1.5925836889	 0.0920883309	 1.5769644191	 0.085929
104.8704	172.6965	221.7741	242.6892	271.4446	310.3079	435.0668	458.7386	482.4574	509.9801	621.999	735.162	790.2305	813.6412	822.8892	874.4759	892.793	931.4552	1004.5149	1042.1035	1057.1345	1073.6152	1090.6423	1104.4545	1141.8162	1152.1867	1169.4637	1216.6496	1232.9324	1244.7636	1290.9326	1301.988	1324.0998	1355.7467	1373.0819	1375.2002	1456.0887	1472.816	1477.957	1496.0764	1499.1861	1503.5155	1878.1242	2961.6949	3030.5136	3041.6244	3042.5646	3072.1469	3079.1055	3085.9544	3089.6044	3091.7815	3096.4715	3111.7416
CN1C2CCCC1C2=O	CN1[C@H]2CCC[C@@H]1C2=O	
InChI=1S/C7H11NO/c1-8-5-3-2-4-6(8)7(5)9/h5-6H,2-4H2,1H3	InChI=1S/C7H11NO/c1-8-5-3-2-4-6(8)7(5)9/h5-6H,2-4H2,1H3/t5-,6+
