15
gdb 36179	3.78195	1.23779	1.14282	4.7785	68.97	-0.2541	0.0256	0.2797	1067.5567	0.112543	-416.700097	-416.692878	-416.691933	-416.732361	27.36	
N	-0.0164575818	-1.1562486038	-0.0179011868	-0.302349
C	 0.0217569504	-0.0028710615	-0.0622731542	 0.267573
C	 0.0729460791	 1.4581956258	-0.1049166638	-0.485974
C	 1.4767651749	 1.993945595	-0.0404258057	 0.508374
O	 2.412250187	 1.7418443107	-1.1218535985	-0.345359
C	 3.1826028456	 2.5501996881	-0.1814826604	 0.068919
C	 1.9705830861	 3.4503230023	 0.2311335118	-0.135253
N	 2.0789360763	 3.1891030924	 1.7014141109	-0.348548
C	 2.5463897107	 1.9016667541	 1.0919620441	-0.116646
H	-0.4148051165	 1.8106798047	-1.0205128335	 0.16845
H	-0.4833548815	 1.8643882983	 0.7476990881	 0.179937
H	 4.2149605088	 2.7989832122	-0.4258987468	 0.108218
H	 1.6188124799	 4.3869051649	-0.202374372	 0.099756
H	 2.8668278935	 3.7041089641	 2.1002757575	 0.220806
H	 2.8634804073	 1.0291347626	 1.6622982693	 0.112096
64.6014	111.7806	227.5985	299.8508	387.5935	436.9957	526.9652	552.89	693.9433	755.719	774.5947	782.1453	839.3927	868.2031	904.2047	928.7399	946.0945	957.4113	1034.3351	1061.5576	1088.8333	1114.8633	1131.309	1152.9153	1203.569	1216.17	1264.1711	1289.1114	1293.4708	1328.795	1402.1437	1443.9376	2369.4917	3047.551	3091.805	3117.928	3127.167	3139.5192	3423.2471
N#CCC12OC3C1NC23	N#CC[C@@]12O[C@H]3[C@@H]1N[C@@H]23	
InChI=1S/C6H6N2O/c7-2-1-6-4-3(9-6)5(6)8-4/h3-5,8H,1H2	InChI=1S/C6H6N2O/c7-2-1-6-4-3(9-6)5(6)8-4/h3-5,8H,1H2/t3-,4-,5+,6+
