19
gdb 75362	2.2347	1.80141	1.34848	2.3909	76.7	-0.2428	0.0131	0.2558	1036.9367	0.159104	-423.02473	-423.016366	-423.015422	-423.057306	32.333	
C	 0.2817242301	 1.4661221792	 0.0347713067	-0.494367
C	 0.0369311023	-0.010751049	-0.0030766535	 0.232657
C	-0.1904330147	-0.7789187801	-1.0732783083	-0.161877
C	-0.3786453322	-2.2447126482	-0.7503330288	-0.286248
C	-0.1125837331	-2.2978506835	 0.7569263869	 0.064127
O	 1.2778191121	-2.5479516827	 1.0751331868	-0.294755
C	 1.4032815509	-1.2966950953	 1.7822060989	-0.106652
C	 0.0277246731	-0.8320639172	 1.2689676944	 0.262484
O	-0.7926538743	-0.3240995973	 2.2928072777	-0.473189
H	 1.2907809784	 1.6899359247	 0.403817729	 0.131964
H	 0.1754311646	 1.9175478324	-0.9548669989	 0.12388
H	-0.4123137241	 1.9642879881	 0.7211726153	 0.125739
H	-0.2253105575	-0.4046985405	-2.0921814167	 0.091519
H	-1.3812905969	-2.6024837373	-1.0205630775	 0.101154
H	 0.339986373	-2.8852509026	-1.2749769209	 0.124954
H	-0.779970507	-2.9560812984	 1.3236717405	 0.072973
H	 1.4171512313	-1.4333065613	 2.871185917	 0.105253
H	 2.2851807583	-0.7280233937	 1.4669294306	 0.101331
H	-1.6420224345	-0.0859081572	 1.9046910609	 0.279052
115.4627	144.4328	213.4706	241.8461	251.2003	290.8967	336.3324	403.4865	460.1791	538.7358	594.6133	654.6942	723.0758	797.993	821.1658	880.0898	924.4449	945.8145	1005.7719	1009.7167	1027.7877	1040.3549	1059.0347	1069.548	1102.4571	1144.8087	1158.795	1190.184	1238.7655	1261.3711	1300.0501	1323.2213	1344.6242	1364.9607	1381.3084	1413.1598	1469.8166	1474.6899	1489.798	1514.1377	1713.1477	3014.8459	3015.9328	3023.7119	3051.0337	3062.7348	3070.0278	3073.0563	3116.8454	3176.1181	3798.8574
CC1=CCC2OCC12O	CC1=CC[C@H]2OC[C@@]12O	
InChI=1S/C7H10O2/c1-5-2-3-6-7(5,8)4-9-6/h2,6,8H,3-4H2,1H3	InChI=1S/C7H10O2/c1-5-2-3-6-7(5,8)4-9-6/h2,6,8H,3-4H2,1H3/t6-,7-/m1/s1
