22
gdb 61602	2.94738	0.86683	0.79959	0.6795	89.06	-0.225	0.053	0.278	1552.4483	0.191708	-367.14754	-367.137135	-367.136191	-367.1834	38.467	
C	 0.0808164797	 1.3305961243	-0.4368970571	-0.390139
C	-0.0291864392	-0.0989540909	 0.1319151713	-0.154367
C	 0.6421698835	-0.2477103966	 1.5247448554	-0.220822
C	 2.1352514649	 0.0113375573	 1.5292308003	 0.01404
C	 3.0217070739	-0.6483104787	 2.5320992562	-0.266667
N	 3.1428627843	-0.9734204145	 1.1166165751	-0.079922
C	 2.7458592312	-2.3097392301	 0.6989046818	-0.315329
C	-1.4288373404	-0.5155417589	 0.2081055207	 0.319119
C	-2.5822665551	-0.8446117711	 0.2934321332	-0.464081
H	 1.1266719091	 1.6153875764	-0.5778454331	 0.12381
H	-0.4237311354	 1.3981877815	-1.4038842211	 0.12726
H	-0.3882400622	 2.0516010326	 0.2400228296	 0.124129
H	 0.4857284796	-0.777743377	-0.5613689699	 0.110734
H	 0.1647454731	 0.4588840268	 2.2154614242	 0.110897
H	 0.4222480889	-1.2451423332	 1.9142258085	 0.110295
H	 2.4095630698	 1.0206097523	 1.2255928935	 0.091711
H	 3.8579016129	-0.1161646829	 2.9790764155	 0.112501
H	 2.5554878244	-1.3872323261	 3.1845990283	 0.103517
H	 1.8968456077	-2.738523967	 1.2535861247	 0.102988
H	 2.4913566601	-2.3002909419	-0.3661940051	 0.122608
H	 3.600765627	-2.9807367354	 0.8318464661	 0.124808
H	-3.5995029378	-1.1421030969	 0.3571214717	 0.192909
39.7111	75.4321	119.1563	180.2471	208.2742	230.4664	245.4117	301.0543	322.0318	375.1877	408.7147	519.7576	523.9744	548.0545	626.5993	635.4047	743.8802	788.0036	816.4843	897.1627	921.2376	945.1419	1028.7268	1046.3692	1066.9526	1100.0775	1115.6273	1124.7698	1133.0924	1163.7376	1189.3327	1205.8655	1252.2236	1285.6301	1336.4896	1340.7696	1357.988	1408.0015	1425.696	1447.7215	1476.2209	1491.2662	1495.2855	1500.8348	1505.1337	1513.1455	2233.371	2979.2064	3014.7161	3036.1847	3044.7991	3063.1886	3079.1353	3090.4992	3096.6089	3112.3496	3118.5655	3126.9199	3167.202	3504.8116
CC(CC1CN1C)C#C	C[C@@H](C[C@H]1CN1C)C#C	
InChI=1S/C8H13N/c1-4-7(2)5-8-6-9(8)3/h1,7-8H,5-6H2,2-3H3	InChI=1S/C8H13N/c1-4-7(2)5-8-6-9(8)3/h1,7-8H,5-6H2,2-3H3/t7-,8+,9?/m1/s1
