20
gdb 91114	2.96573	1.67965	1.42741	2.0285	76.47	-0.2213	0.075	0.2963	981.7041	0.174475	-403.138558	-403.131402	-403.130457	-403.169996	29.597	
O	-0.1061165125	 1.4317828948	-0.0744899995	-0.446679
C	 0.0508321784	 0.0208856546	 0.0278425087	 0.141818
C	 0.6633865525	-0.3809001658	 1.3941687637	-0.278023
C	-0.5357577071	-0.5707812623	 2.3163398149	-0.01245
C	-1.7917370697	-0.4854666564	 1.5250542763	-0.053695
C	-1.375076716	-0.5628610066	 0.0447298931	-0.0427
C	-1.4001039509	-2.0785819155	-0.2450007777	-0.229332
C	-1.054856295	-2.7299476024	 1.115167398	-0.167143
N	-1.4140084759	-1.7546419021	 2.1640484569	-0.105912
H	 0.7632821576	 1.8359366735	 0.0095770611	 0.279403
H	 0.6410184636	-0.3594014158	-0.8199412983	 0.056771
H	 1.2797633349	-1.2841871147	 1.3139297755	 0.102677
H	 1.3171961122	 0.4126677158	 1.7705241047	 0.091711
H	-0.4634154137	-0.2182139526	 3.3412234058	 0.087249
H	-2.7027756131	 0.0072678982	 1.8475520275	 0.084911
H	-2.0139393121	 0.0083979298	-0.6302155688	 0.082353
H	-2.4090554346	-2.3721611085	-0.5512954748	 0.105984
H	-0.7178225355	-2.3746048449	-1.0479895674	 0.096752
H	-1.6334496432	-3.6421269427	 1.2872087981	 0.105758
H	 0.0026752601	-3.0085355965	 1.1860159023	 0.100548
87.7005	227.1795	286.6646	310.3672	386.4188	406.2836	473.2731	628.7433	670.835	728.412	746.7482	790.8684	817.9777	851.6947	868.6925	893.4221	922.034	943.0778	959.2259	996.2019	1016.8053	1035.913	1043.3511	1095.3045	1099.4178	1122.4806	1184.0511	1199.4392	1212.5798	1225.3816	1259.2846	1272.1653	1291.7409	1299.3396	1310.4295	1331.4976	1338.2427	1368.4296	1392.838	1424.7229	1474.9054	1492.3904	1521.4934	2979.7234	3034.0574	3040.2785	3048.7919	3074.1671	3075.3373	3095.2717	3106.3743	3142.6242	3164.2506	3816.6138
OC1CC2C3C1CCN23	O[C@H]1C[C@H]2[C@H]3[C@@H]1CCN23	
InChI=1S/C7H11NO/c9-6-3-5-7-4(6)1-2-8(5)7/h4-7,9H,1-3H2	InChI=1S/C7H11NO/c9-6-3-5-7-4(6)1-2-8(5)7/h4-7,9H,1-3H2/t4-,5+,6+,7-,8?/m1/s1
