21
gdb 102717	3.11694	0.92123	0.75572	4.6327	83.14	-0.2469	0.0322	0.2791	1553.2797	0.182486	-383.265046	-383.255093	-383.254149	-383.30064	35.74	
C	-0.0802280682	 1.6130290094	-0.0846901878	-0.399705
C	 0.0995819425	 0.0962516895	-0.0023125072	-0.184458
C	 0.7442465727	-0.5290931475	-1.2616661046	-0.124658
C	 0.9710834618	-2.0539961972	-1.1046033143	-0.241637
C	 1.8586410011	-2.661975619	-2.1682682396	 0.020677
C	 1.6329597592	-4.0555129862	-2.6278922594	-0.247282
N	 1.3694339754	-2.9239021358	-3.5293410601	-0.303645
C	-0.0804326924	-0.2575117849	-2.4450647426	 0.29547
N	-0.7645066083	-0.0610585957	-3.3565380438	-0.341763
H	 0.8807702152	 2.1190554267	-0.2278205614	 0.119837
H	-0.7331355359	 1.8913516241	-0.9172259247	 0.146553
H	-0.5261806611	 1.9986921536	 0.8364556727	 0.122144
H	 0.7400644833	-0.1594682865	 0.8495824017	 0.106465
H	-0.8674872868	-0.3887497206	 0.1749945584	 0.116594
H	 1.7174969293	-0.047624769	-1.4275596179	 0.12631
H	 1.4295097994	-2.2185724733	-0.121630195	 0.112287
H	-0.0016429536	-2.560198882	-1.0897094647	 0.110504
H	 2.8837927248	-2.2922611966	-2.1536071202	 0.091973
H	 2.4738005424	-4.6827176592	-2.910163541	 0.120206
H	 0.7900179899	-4.5958529448	-2.2029439523	 0.110823
H	 0.3720720792	-2.7353882552	-3.5938805763	 0.243306
57.544	81.6039	102.5967	147.3533	166.4055	220.3457	258.928	289.717	324.2252	429.6809	444.0935	555.968	609.0283	758.3743	791.9179	819.7511	845.8635	906.9448	937.4233	951.642	991.6476	1026.9795	1039.5036	1060.2187	1109.3294	1126.3808	1143.8547	1154.3448	1179.7069	1242.5204	1267.0599	1274.5895	1294.0746	1314.0301	1348.6758	1366.6771	1376.1352	1417.7768	1432.1599	1473.7774	1488.1491	1499.5885	1506.7911	1514.5925	2349.7574	3021.5354	3026.7312	3036.0188	3038.9135	3068.1694	3075.4976	3104.4497	3108.035	3109.383	3118.534	3189.2891	3507.7071
CCC(CC1CN1)C#N	CC[C@@H](C[C@H]1CN1)C#N	
InChI=1S/C7H12N2/c1-2-6(4-8)3-7-5-9-7/h6-7,9H,2-3,5H2,1H3	InChI=1S/C7H12N2/c1-2-6(4-8)3-7-5-9-7/h6-7,9H,2-3,5H2,1H3/t6-,7-/m0/s1
