16
gdb 93330	2.14913	1.69491	1.15155	3.6119	71.72	-0.2586	0.0137	0.2723	1073.8317	0.123564	-437.856622	-437.84802	-437.847076	-437.889925	31.883	
O	 0.2391773256	 1.1705840831	-0.5861635645	-0.41819
C	 0.0379143149	-0.0830100211	 0.0123350239	 0.098865
C	 0.3240937968	-0.1312863613	 1.5232129055	-0.123292
O	-0.4500045883	-1.2392019381	 2.0045117385	-0.237547
C	-1.4789772207	-1.5106689333	 1.1437189883	 0.417817
N	-2.3097175505	-2.4459539045	 1.2767279143	-0.532054
C	-1.4484485812	-0.5118049328	-0.0148606733	-0.296578
C	-2.3618840783	 0.5985727517	 0.233477282	 0.377661
C	-3.1209907483	 1.5029864028	 0.4522996241	-0.480766
H	 1.1832864959	 1.29733923	-0.7211064523	 0.29341
H	 0.6208166187	-0.8686711659	-0.4900793061	 0.090605
H	 1.3712929263	-0.3166381186	 1.7748304412	 0.114161
H	-0.00923917	 0.8005178206	 1.994363421	 0.132386
H	-2.1288384201	-2.9697832654	 2.1351718642	 0.225703
H	-1.7196692446	-1.0184671782	-0.9434848977	 0.136108
H	-3.7956905862	 2.301880621	 0.6372040607	 0.201711
80.994	131.8578	170.1367	187.7957	218.1355	305.2702	392.8625	403.167	457.4763	542.5456	632.7351	644.1245	652.4653	667.2512	677.0351	860.5976	884.4274	895.8928	960.3197	1012.1696	1063.7739	1081.6067	1104.7354	1153.8944	1205.4365	1231.7886	1235.7007	1277.5175	1330.8122	1361.406	1375.5819	1444.2692	1516.5284	1786.8965	2241.7891	2998.8335	3044.8156	3093.0003	3108.064	3471.5378	3504.8143	3828.333
OC1COC(=N)C1C#C	O[C@H]1CO[C]([NH])[C@H]1C#C	
InChI=1S/C6H7NO2/c1-2-4-5(8)3-9-6(4)7/h1,4-5,7-8H,3H2	InChI=1S/C6H7NO2/c1-2-4-5(8)3-9-6(4)7/h1,4-5,7-8H,3H2/t4-,5-/m0/s1
