17
gdb 85262	2.5691	1.59251	1.19534	4.3982	68.42	-0.2613	-0.0098	0.2515	1064.8664	0.135613	-458.990132	-458.982055	-458.981111	-459.023206	30.214	
C	 0.6276637048	 1.3665904577	 0.0352052793	-0.396002
C	-0.1420165313	 0.0550511939	-0.0299436585	 0.110522
C	 0.206833423	-0.8233289305	-1.2540025095	-0.34894
C	 1.2338523481	-1.7740907409	-0.6863310195	 0.272418
C	 1.8718648559	-2.9127321663	-1.3482173924	-0.238721
O	 2.5985206108	-1.705567059	-1.1132010918	-0.259394
C	 1.037279791	-1.7644232854	 0.8174590848	 0.412588
O	 1.5204373111	-2.501067519	 1.6268213116	-0.345121
O	 0.1932637215	-0.7526363834	 1.1315607573	-0.235928
H	 1.7033933389	 1.1910729545	-0.0679723128	 0.141072
H	 0.3073076646	 2.0310149913	-0.773545186	 0.124019
H	 0.447652441	 1.8679208378	 0.989492256	 0.138575
H	-1.2163143565	 0.2409159424	 0.0410397493	 0.101571
H	-0.6752326254	-1.3728935942	-1.5963540711	 0.124768
H	 0.6022649964	-0.2430259718	-2.0894659927	 0.133484
H	 2.1780940687	-3.7628074571	-0.7423187239	 0.144049
H	 1.6300791774	-3.1187862201	-2.3899977501	 0.121042
54.1685	111.131	253.4237	262.5624	266.6185	317.916	368.9824	424.1869	492.5193	578.8822	693.8137	730.1063	754.7986	813.6536	846.4479	906.2204	931.8843	965.0348	990.6853	1047.891	1099.9309	1120.4442	1128.9218	1136.157	1173.1702	1219.7613	1266.9709	1287.2468	1358.0742	1386.3333	1414.5608	1432.316	1476.1082	1490.2803	1496.3208	1518.9329	1883.411	3040.7381	3059.3675	3080.7057	3089.7108	3115.9305	3123.5933	3128.8576	3188.2376
CC1CC2(CO2)C(=O)O1	C[C@H]1C[C@]2(CO2)C(=O)O1	
InChI=1S/C6H8O3/c1-4-2-6(3-8-6)5(7)9-4/h4H,2-3H2,1H3	InChI=1S/C6H8O3/c1-4-2-6(3-8-6)5(7)9-4/h4H,2-3H2,1H3/t4-,6-/m0/s1
