19
gdb 71964	2.82093	1.87662	1.64352	1.0254	73.33	-0.243	0.0761	0.3191	901.8004	0.16201	-423.030247	-423.023516	-423.022572	-423.060802	28.946	
O	-0.0435043237	 1.418108247	 0.0161968232	-0.493611
C	 0.0163816011	 0.0177886707	-0.0190675951	 0.407189
C	 0.3098692233	-0.7160544958	-1.3518646559	-0.303046
C	-0.652327287	-1.8117662808	-0.8363664816	 0.101702
O	-0.0002147098	-2.6756263489	 0.1058055262	-0.283486
C	 0.0097409801	-1.9456408029	 1.3429532435	 0.09507
C	-1.4288496504	-1.406810748	 1.4387171438	-0.239849
C	-1.3570682662	-0.7459501798	 0.0676169841	-0.088694
C	 0.8239946367	-0.6515960797	 1.127703632	-0.298817
H	 0.857011028	 1.7603763076	 0.0009410984	 0.275223
H	-0.1276493565	-0.1747934521	-2.1964377099	 0.10063
H	 1.3374080846	-1.013749109	-1.579095653	 0.092244
H	-1.2088750597	-2.4211828948	-1.548883112	 0.076997
H	 0.3633203383	-2.6114162883	 2.1303775077	 0.075054
H	-2.1707165084	-2.2069950778	 1.5026825919	 0.103732
H	-1.5749918693	-0.7004089404	 2.2601210117	 0.104529
H	-2.2213072917	-0.2306530107	-0.3450990058	 0.078845
H	 1.8663205397	-0.8475375186	 0.859611342	 0.095749
H	 0.796904981	-0.0222955575	 2.0235054788	 0.100539
215.9506	255.0699	301.2929	391.6292	422.7485	450.5467	487.0155	562.1255	613.6898	686.5575	783.4394	823.4057	861.2928	875.8709	880.7556	918.1872	925.5918	935.9349	954.281	984.6133	994.3216	1017.0755	1037.888	1102.1225	1108.4289	1145.9351	1178.8269	1188.1134	1197.7758	1233.2975	1243.8304	1268.8983	1281.7409	1292.388	1308.4836	1334.7336	1367.9749	1374.2638	1468.9045	1480.5106	1495.831	3044.8341	3048.3451	3064.7398	3098.8319	3104.7996	3110.9258	3118.7761	3121.1099	3150.3674	3800.0573
OC12CC3OC(CC13)C2	O[C@]12C[C@H]3O[C@H](C[C@@H]13)C2	
InChI=1S/C7H10O2/c8-7-2-4-1-5(7)6(3-7)9-4/h4-6,8H,1-3H2	InChI=1S/C7H10O2/c8-7-2-4-1-5(7)6(3-7)9-4/h4-6,8H,1-3H2/t4-,5-,6-,7-/m1/s1
