17
gdb 24616	4.91089	0.98363	0.93066	3.9924	73.88	-0.2236	0.0234	0.2471	1260.7072	0.138686	-418.01866	-418.010988	-418.010044	-418.052787	27.94	
C	-0.0107250952	 1.3770238045	-0.3679204925	-0.080032
O	 1.3404186785	 1.6417195469	 0.0555513934	-0.274985
C	 1.4581657352	 0.3319317697	 0.6434064415	-0.080031
C	 0.0762142758	-0.1049393031	 0.0867553497	-0.142755
C	-0.9508229987	-0.6447758602	 1.0206134746	 0.264944
C	-1.4010683506	-0.124749639	 2.211915914	-0.188047
N	-2.3479251563	-1.013619566	 2.668499385	-0.227757
C	-2.4331674979	-2.0188361026	 1.7537186142	 0.008522
N	-1.6079887036	-1.8294454054	 0.7510502684	-0.30488
H	-0.7437766563	 1.9755347581	 0.1899115416	 0.092589
H	-0.1495307573	 1.5511910795	-1.4413008749	 0.10423
H	 2.3310994334	-0.2137369331	 0.2666056001	 0.104231
H	 1.5076589874	 0.3736713455	 1.7400213792	 0.09259
H	 0.1642884388	-0.794270229	-0.7535107683	 0.097053
H	-1.1467356494	 0.7656653624	 2.7625828012	 0.134656
H	-2.8764952458	-0.9317237283	 3.5207602241	 0.2682
H	-3.1086573881	-2.85267877	 1.8731591087	 0.131472
23.4247	59.1898	151.6087	220.9233	384.3247	395.0271	532.2949	612.6419	665.9524	713.7328	753.5219	817.8625	831.4699	886.7915	919.4362	949.2935	984.0903	1013.9329	1040.2551	1047.389	1095.4284	1103.9745	1140.7707	1158.6669	1163.0157	1226.2819	1256.2957	1262.6304	1303.4269	1352.7846	1366.6484	1397.3741	1457.4098	1513.7145	1527.4155	1539.43	1586.3849	2999.2593	3010.748	3054.7147	3055.6678	3110.8437	3252.8996	3272.4581	3664.9097
C1OCC1C1=CNC=N1	C1OCC1c1c[nH]cn1	
InChI=1S/C6H8N2O/c1-6(8-4-7-1)5-2-9-3-5/h1,4-5H,2-3H2,(H,7,8)	InChI=1S/C6H8N2O/c1-6(8-4-7-1)5-2-9-3-5/h1,4-5H,2-3H2,(H,7,8)
