21
gdb 80023	3.12318	1.49059	1.28193	0.167	87.38	-0.2202	0.0141	0.2344	1088.9869	0.183291	-349.904808	-349.896975	-349.896031	-349.936464	32.561	
C	-0.1076571215	 1.6261033658	-0.00167738	-0.436104
C	 0.0350650234	 0.11460174	 0.021176718	 0.069552
C	 1.1935529629	-0.6276810253	-0.7548531146	-0.177921
C	 2.436633495	-0.0356333165	-0.0735394953	-0.082552
C	 2.115179249	-0.0462887222	 1.2237354092	-0.08256
C	 0.7001262958	-0.6441337374	 1.2366111444	-0.177906
C	 0.8995254462	-1.8016702178	 0.2195191372	 0.468188
C	 0.046776788	-3.0065179731	-0.0016813092	-0.36186
C	 1.5219941187	-3.1443341979	 0.3626942279	-0.37155
H	 0.833211844	 2.1285316246	 0.2354095035	 0.118575
H	-0.4372243887	 1.9664975711	-0.9898542214	 0.110461
H	-0.8614695616	 1.9523406288	 0.7237983526	 0.110462
H	-0.9249606575	-0.354797182	-0.2205632143	 0.073093
H	 1.1863799263	-0.7485388307	-1.8387020511	 0.054397
H	 3.3428682133	 0.2929010891	-0.5619203343	 0.095421
H	 2.687299285	 0.2711610134	 2.0837450284	 0.095422
H	 0.1882542352	-0.7818277049	 2.1897190167	 0.054395
H	-0.6885230996	-3.2719147451	 0.7521419966	 0.110063
H	-0.2505315178	-3.2573891339	-1.0155955858	 0.110063
H	 2.2045070799	-3.4858232229	-0.4092467214	 0.11018
H	 1.7665186739	-3.5003666632	 1.3585754928	 0.11018
169.3906	206.4616	213.1612	250.6411	280.2764	315.8378	454.9005	553.4148	568.2759	590.5276	726.1866	746.5214	763.6409	769.8328	806.0224	864.0186	908.1614	908.9904	917.6246	929.0519	944.0844	986.0275	1004.6806	1045.6893	1047.9943	1062.3129	1075.7164	1109.9071	1111.5845	1138.59	1179.7491	1187.4741	1200.8774	1206.8167	1249.8855	1250.8889	1328.5028	1379.9492	1394.4902	1408.2769	1460.7123	1490.6473	1500.199	1509.5475	1621.2667	3030.1004	3050.0846	3087.1903	3108.7522	3111.4189	3116.6599	3120.8101	3123.5867	3193.5931	3209.2317	3218.9837	3246.1044
CC1C2C=CC1C21CC1	C[C@H]1[C@H]2C=C[C@@H]1C12CC1	
InChI=1S/C9H12/c1-6-7-2-3-8(6)9(7)4-5-9/h2-3,6-8H,4-5H2,1H3	InChI=1S/C9H12/c1-6-7-2-3-8(6)9(7)4-5-9/h2-3,6-8H,4-5H2,1H3/t6-,7+,8-
