18
gdb 14702	10.95223	0.55643	0.5514	1.1335	76.48	-0.2508	0.0337	0.2845	2046.208	0.150337	-384.876342	-384.86621	-384.865266	-384.913103	33.002	
C	-0.3570587736	 1.3329844836	-0.3115341371	-0.218293
O	-0.3179812694	-0.0748582184	-0.3267856654	-0.22746
C	 0.9241735882	-0.5650161878	-0.7931642245	-0.205058
C	 0.9243423782	-2.0203666776	-0.8027023048	 0.077426
C	 0.9499762955	-3.2226119039	-0.8288745017	 0.077424
C	 0.9778127453	-4.6777144288	-0.8227801399	-0.205053
O	 0.7492667505	-5.1809705683	-2.1247854326	-0.227461
C	 0.7613632073	-6.5890535478	-2.1553965492	-0.218293
H	 0.4134310105	 1.7579964987	 0.3519077004	 0.103975
H	-0.2140835668	 1.7584124348	-1.3178833999	 0.105257
H	-1.34223688	 1.6246266376	 0.0587784178	 0.131463
H	 1.1284302336	-0.1908087985	-1.8118935769	 0.11864
H	 1.7465481593	-0.1957378727	-0.1549732907	 0.11405
H	 1.9519269261	-5.0309227114	-0.4402886869	 0.114052
H	 0.2123596647	-5.0570057581	-0.1229368632	 0.118638
H	-0.0241604287	-7.0202291726	-1.5141401263	 0.105257
H	 0.5791591472	-6.8910927283	-3.1890001866	 0.131463
H	 1.7313372721	-6.9985394106	-1.8299483425	 0.103974
31.2814	67.7079	68.8617	114.3975	119.1878	230.2981	231.4185	288.5936	310.4454	324.0511	394.5825	472.5178	566.4404	838.2402	976.2696	980.3583	1021.1852	1028.6427	1129.7235	1150.0437	1182.1628	1183.0862	1185.8976	1220.3685	1220.9029	1250.5796	1260.7781	1408.3831	1412.7508	1477.0878	1477.4561	1484.4601	1484.4786	1493.318	1493.813	1515.3589	1515.9173	2377.8483	2942.7111	2942.765	2960.3241	2960.778	2967.1458	2967.7031	3009.6154	3009.641	3120.4365	3120.4937
COCC#CCOC	COCC#CCOC	
InChI=1S/C6H10O2/c1-7-5-3-4-6-8-2/h5-6H2,1-2H3	InChI=1S/C6H10O2/c1-7-5-3-4-6-8-2/h5-6H2,1-2H3
