18
gdb 45220	3.06635	1.77714	1.40783	3.7993	74.37	-0.2347	0.0306	0.2652	943.8996	0.151467	-401.97124	-401.964609	-401.963665	-402.002173	27.454	
O	-0.0062068082	-0.0414755804	 0.0229446537	-0.3818
C	 0.0017649838	 1.1685928964	-0.0317423372	 0.394733
N	-1.1094698093	 1.9801671522	-0.061249703	-0.30065
C	-0.8345332102	 3.3965052679	 0.0281416476	-0.011213
C	-0.5396393918	 3.9740584983	 1.4554467484	-0.243079
C	 0.9842649309	 3.9303256214	 1.1665538824	-0.024099
C	 1.6609442077	 2.550362714	 1.3890353477	-0.240038
C	 1.2197474306	 2.0892516568	-0.0454076831	-0.141301
C	 0.6834065161	 3.5176845256	-0.315943468	-0.042821
H	-2.0179622882	 1.5821897314	 0.120953191	 0.247194
H	-1.5407865904	 3.9760222751	-0.5697539791	 0.084712
H	-0.9075585916	 4.9988185418	 1.5588742757	 0.103455
H	-0.9054616877	 3.3819072766	 2.2994168275	 0.098805
H	 1.5634660219	 4.8110030103	 1.4434678488	 0.070712
H	 2.7477064324	 2.6335695323	 1.4622690457	 0.110397
H	 1.3040473268	 1.9459805651	 2.2279802916	 0.109945
H	 2.0121500703	 1.6828316125	-0.6719884716	 0.094856
H	 0.989464487	 4.0671189726	-1.204148928	 0.070192
106.72	219.1219	321.077	402.8913	445.175	511.8526	586.6278	634.1123	693.2031	731.9565	758.6758	807.467	826.064	872.1789	892.9255	919.2873	945.2908	956.995	981.3569	1018.7476	1064.7855	1074.7853	1122.0366	1134.0998	1166.8604	1174.1635	1220.0328	1234.7773	1249.0548	1259.1921	1271.313	1286.1779	1307.0007	1325.1419	1364.062	1425.5433	1469.7152	1488.0344	1825.5225	3048.9532	3056.7941	3080.4782	3099.955	3106.3716	3113.1925	3122.2273	3133.3043	3631.1657
O=C1NC2CC3CC1C23	O=C1N[C@H]2C[C@H]3C[C@@H]1[C@@H]23	
InChI=1S/C7H9NO/c9-7-4-1-3-2-5(8-7)6(3)4/h3-6H,1-2H2,(H,8,9)	InChI=1S/C7H9NO/c9-7-4-1-3-2-5(8-7)6(3)4/h3-6H,1-2H2,(H,8,9)/t3-,4-,5+,6+/m1/s1
