18
gdb 90352	2.9885	1.59628	1.23064	2.4071	72.42	-0.2504	0.0128	0.2632	1041.2946	0.148827	-439.072486	-439.064673	-439.063728	-439.104882	29.765	
C	-0.3157099243	 1.433711743	 0.1694472721	-0.389754
C	 0.127944982	 0.004799509	-0.0301074586	 0.069083
O	 1.3998114917	-0.0776515854	-0.8025722581	-0.283804
C	 2.0670813591	-0.4296795854	 0.3358200547	 0.414809
N	 3.2725379413	-0.2991045171	 0.6657040454	-0.312864
C	 3.3616344365	-0.5481947875	 2.1218241881	-0.186033
C	 2.2515747753	 0.2148079544	 2.8672989001	-0.07263
O	 0.91637114	-0.1340437733	 2.4505200332	-0.277157
C	 0.8524370445	-0.6954632099	 1.164451341	-0.026837
H	 0.4555391376	 2.017101158	 0.6784402733	 0.136656
H	-0.5342306985	 1.9034971373	-0.7932825395	 0.134654
H	-1.2220900888	 1.4557754133	 0.7824817925	 0.133694
H	-0.6313249903	-0.6054627631	-0.5248957704	 0.097298
H	 3.3044609239	-1.6218045178	 2.3489779467	 0.113278
H	 4.3321538746	-0.1939043894	 2.4804832666	 0.118139
H	 2.2956323547	 0.0091914865	 3.941342019	 0.113519
H	 2.4055126285	 1.2917590584	 2.7134226825	 0.109412
H	 0.5729230723	-1.7541937409	 1.2281547915	 0.108537
84.5736	164.3436	189.3111	207.7738	311.0172	396.7988	408.9957	507.3735	512.3424	548.5387	706.2463	757.0024	807.3525	835.5202	849.9326	914.3879	942.9291	1011.2687	1041.7572	1052.2982	1077.4707	1098.5075	1146.6231	1180.072	1198.3639	1223.5658	1244.934	1280.106	1339.318	1349.4864	1362.1211	1373.0339	1406.2781	1417.1516	1480.9219	1489.0416	1493.1866	1506.858	1808.7505	3006.3383	3015.5551	3026.9904	3047.4244	3080.4921	3085.1616	3087.1402	3120.4342	3132.2019
CC1OC2=NCCOC12	C[C@H]1O[C]2[N]CCO[C@@H]12	
InChI=1S/C6H9NO2/c1-4-5-6(9-4)7-2-3-8-5/h4-5H,2-3H2,1H3	InChI=1S/C6H9NO2/c1-4-5-6(9-4)7-2-3-8-5/h4-5H,2-3H2,1H3/t4-,5+/m1/s1
