19
gdb 27250	3.03907	1.5321	1.04672	1.5418	84.21	-0.1755	0.046	0.2215	1150.9261	0.1625	-382.105547	-382.097388	-382.096444	-382.138089	31.461	
C	-0.0520973972	 1.5169158386	 0.0625901326	-0.509873
C	 0.0028008538	 0.0302934571	-0.0417661523	 0.18371
C	 0.004184529	-0.8185775067	-1.121184483	 0.193925
N	-0.0101209447	-0.7005007361	-2.5383280989	-0.420018
C	 0.3261709605	-2.0718888292	-3.0159845378	-0.162809
C	 0.0464433567	-3.0844813296	-1.8530273448	-0.368235
C	 0.0812530789	-2.1604162761	-0.6691683722	 0.268173
C	 0.1172760167	-2.129926803	 0.7005362607	-0.257118
N	 0.054932593	-0.80040285	 1.07021639	-0.30757
H	 0.7182140948	 1.9100462052	 0.7379820714	 0.119311
H	 0.1210431982	 1.9549755545	-0.9238291853	 0.141568
H	-1.0208510352	 1.887641091	 0.4242875413	 0.121093
H	-0.9246146846	-0.4211467372	-2.8793515208	 0.222367
H	-0.2240664931	-2.3031928762	-3.9317343521	 0.095823
H	 1.3951616944	-2.0944548197	-3.2577291627	 0.111341
H	-0.9340338855	-3.5675908572	-1.9657003951	 0.100812
H	 0.7963208667	-3.8810979264	-1.8367647849	 0.10524
H	 0.1803152283	-2.9060262535	 1.4464584707	 0.112018
H	 0.1175128394	-0.4694540153	 2.0169799131	 0.250241
115.2319	142.8203	163.9496	233.1851	270.9921	291.7994	401.1853	504.1005	582.4911	607.2187	621.9391	659.6228	702.55	743.007	762.2401	802.6071	900.4883	926.1998	971.396	995.2399	1049.3445	1060.8388	1077.8917	1113.075	1184.1055	1193.3255	1227.3384	1262.1416	1299.0278	1322.8801	1362.7693	1402.6891	1413.1585	1434.2143	1474.2797	1483.3611	1491.1173	1501.2193	1504.7007	1584.5127	1675.9584	3005.5648	3006.4057	3032.4271	3050.5118	3074.1878	3096.6267	3114.5023	3256.1774	3496.6417	3680.0102
CC1=C2NCCC2=CN1	Cc1c2NCCc2c[nH]1	
InChI=1S/C7H10N2/c1-5-7-6(4-9-5)2-3-8-7/h4,8-9H,2-3H2,1H3	InChI=1S/C7H10N2/c1-5-7-6(4-9-5)2-3-8-7/h4,8-9H,2-3H2,1H3
