25
gdb 85857	1.96093	1.46315	1.31182	1.5423	88.22	-0.2359	0.0735	0.3094	1227.602	0.225559	-389.498981	-389.488098	-389.487154	-389.533764	41.932	
C	 0.1131720066	 1.5643274454	-0.1361602679	-0.417245
C	 0.0837344295	 0.0613773172	 0.0564202	 0.13851
O	 0.981630092	-0.632456301	-0.835206177	-0.348629
C	 1.3848578859	-1.5626403439	 0.2111707269	 0.395758
C	 0.6979357698	-2.9129338684	-0.0075866897	-0.428649
C	 2.897618384	-1.742826388	 0.2209604151	-0.43751
C	 0.7186997201	-0.6308556822	 1.2995816077	 0.203147
C	 1.709932514	 0.2467172337	 2.0689006044	-0.44568
C	-0.2627735432	-1.2630544419	 2.2859458152	-0.459729
H	 1.117617075	 1.9729462946	-0.0031101237	 0.119112
H	-0.2192062062	 1.8100488196	-1.1499975439	 0.125663
H	-0.5648242347	 2.058185312	 0.5685649786	 0.112926
H	-0.9492829396	-0.2930756759	-0.0950820944	 0.058195
H	 1.0893031493	-3.3753346279	-0.9191087746	 0.118168
H	 0.8824673447	-3.5970572648	 0.8276499676	 0.110333
H	-0.3820034974	-2.802917255	-0.1299061653	 0.117393
H	 3.4231229025	-0.7897133946	 0.2916947765	 0.117431
H	 3.211025795	-2.3791272216	 1.0557827778	 0.111903
H	 3.2122240077	-2.2297062594	-0.7079731801	 0.120455
H	 2.4100622765	 0.7704992775	 1.4151469135	 0.124342
H	 1.1739076532	 1.0033548234	 2.6522622589	 0.111173
H	 2.2961443975	-0.3545765503	 2.7722732543	 0.112324
H	 0.2568889789	-1.8988740447	 3.0119938052	 0.113183
H	-0.7830886862	-0.4829997839	 2.8537377634	 0.112708
H	-1.023828205	-1.8709011701	 1.7912063116	 0.114719
64.3576	170.5537	188.9153	201.01	222.3681	234.9206	239.5242	267.093	308.6789	333.6473	362.1938	367.7939	386.6088	445.3929	502.6292	527.5744	624.205	661.9318	777.1521	858.8701	898.4039	923.4583	949.6716	954.6939	977.4864	996.4652	1006.9345	1049.8668	1093.7662	1128.433	1173.0796	1181.3385	1201.7755	1234.0329	1263.2948	1290.9312	1328.261	1389.2835	1398.0099	1404.1476	1409.4179	1414.7343	1428.5135	1469.0837	1475.8856	1479.0468	1486.4258	1487.8485	1496.7816	1499.5455	1505.7031	1510.9023	1523.8727	2955.5913	3026.4961	3032.9436	3034.7232	3037.7005	3041.8987	3083.2783	3092.1596	3098.0535	3102.1822	3106.5577	3112.8069	3118.0145	3123.7483	3126.5146	3139.6835
CC1OC(C)(C)C1(C)C	C[C@H]1OC(C)(C)C1(C)C	
InChI=1S/C8H16O/c1-6-7(2,3)8(4,5)9-6/h6H,1-5H3	InChI=1S/C8H16O/c1-6-7(2,3)8(4,5)9-6/h6H,1-5H3/t6-/m1/s1
