21
gdb 124541	2.40089	1.30209	1.04061	2.0611	84.95	-0.2281	0.0291	0.2572	1277.4862	0.182894	-383.310556	-383.300753	-383.299809	-383.346474	35.784	
C	 0.009967113	 1.5715708011	 0.0333334458	-0.376597
C	 0.0467781664	 0.0331615914	 0.0053402986	-0.068637
C	 0.7373723226	-0.4801212856	-1.2710166738	-0.37653
C	 0.7060910904	-0.5211960616	 1.2437062881	 0.285721
N	 1.9768521262	-0.2294996821	 1.5216338892	-0.29731
N	 2.2333287865	-0.8792950515	 2.6712723	-0.19041
C	 1.1660687819	-1.5736774097	 3.1342556117	-0.113298
C	 0.1397941789	-1.3712542225	 2.2337131476	 0.121513
C	-1.2507593115	-1.9270303211	 2.2970000589	-0.513009
H	 1.0263729816	 1.974927271	 0.0624954239	 0.13156
H	-0.493031861	 1.9650040281	-0.8565628612	 0.101876
H	-0.5209970328	 1.939822707	 0.9167218045	 0.108621
H	-0.9882476115	-0.3305698941	-0.0000333726	 0.06992
H	 1.7820246626	-0.1561110035	-1.2934118711	 0.131197
H	 0.7256897045	-1.5736259889	-1.3164000685	 0.108611
H	 0.236630227	-0.0955728876	-2.1660671585	 0.102088
H	 3.1480908566	-0.8052845461	 3.0813209266	 0.270221
H	 1.2116903495	-2.14720755	 4.0472540997	 0.128358
H	-2.007476335	-1.1349699242	 2.335672153	 0.128385
H	-1.4838311984	-2.5494182426	 1.4253399912	 0.128348
H	-1.3837919576	-2.5489905275	 3.1868629869	 0.119371
13.8373	98.3039	149.3309	172.1578	231.1575	250.6845	257.025	279.9099	365.2678	415.848	483.3844	503.5121	611.6134	664.2121	710.7553	761.5619	781.3971	889.9418	930.6539	951.5102	964.5817	1005.1748	1065.7821	1077.1996	1098.2455	1124.8122	1126.5414	1195.9113	1239.162	1313.9466	1336.2751	1343.37	1393.7292	1413.1258	1416.2218	1423.0941	1471.2799	1485.3467	1485.9982	1491.1132	1491.2056	1499.6169	1507.1129	1521.8608	1607.5548	3024.7078	3028.0063	3030.3428	3034.689	3074.2546	3098.3731	3101.921	3104.5708	3112.7221	3117.6713	3253.6382	3679.9575
CC(C)C1=NNC=C1C	CC(C)c1n[nH]cc1C	
InChI=1S/C7H12N2/c1-5(2)7-6(3)4-8-9-7/h4-5H,1-3H3,(H,8,9)	InChI=1S/C7H12N2/c1-5(2)7-6(3)4-8-9-7/h4-5H,1-3H3,(H,8,9)
