12
gdb 21839	7.77677	1.18399	1.06341	3.9091	57.41	-0.2538	-0.0098	0.2441	1012.0988	0.085187	-414.686791	-414.680112	-414.679168	-414.718599	23.338	
O	 0.0295003958	-0.0594956051	-0.076705087	-0.255466
C	 0.1263186373	 1.110930465	-0.2685773247	 0.152906
O	 0.9425847347	 1.9011730787	 0.4846783014	-0.219216
C	 0.9248701262	 3.2529691448	 0.2307111761	 0.241621
C	 2.0244356203	 4.0201145804	-0.0928245101	-0.11972
N	 1.554525588	 5.2865594421	-0.1897534885	-0.16979
N	 0.2356863885	 5.3942845203	 0.0425780682	-0.207771
C	-0.1601891413	 4.1519419893	 0.3074322595	-0.08593
H	-0.4054832882	 1.6856531042	-1.0479479201	 0.096493
H	 3.0592170105	 3.7613411268	-0.2431626068	 0.153339
H	 2.0786557525	 6.1183049401	-0.4033950625	 0.285231
H	-1.1917718543	 3.9445463334	 0.5489238646	 0.128304
52.2562	140.3498	158.3522	388.2059	432.0369	482.2993	533.1033	660.7455	702.3782	789.6389	826.2741	874.4561	941.0085	1020.1039	1045.7613	1065.2023	1132.7339	1164.2633	1246.2869	1334.6481	1393.5647	1410.4694	1414.7351	1502.3069	1612.7878	1878.4817	2984.3	3253.467	3278.7259	3673.7511
O=COC1=CNN=C1	O=COc1c[nH]nc1	
InChI=1S/C4H4N2O2/c7-3-8-4-1-5-6-2-4/h1-3H,(H,5,6)	InChI=1S/C4H4N2O2/c7-3-8-4-1-5-6-2-4/h1-3H,(H,5,6)
