21
gdb 59437	2.40169	1.305	1.11213	3.2492	79.72	-0.2418	0.0444	0.2862	1223.239	0.18214	-420.426615	-420.416763	-420.415819	-420.461027	37.076	
C	 0.431551464	 1.4892452971	 0.0307721098	-0.396707
C	 0.1553473428	-0.0236876777	-0.0226513457	 0.018302
C	 0.6565887647	-0.6319063902	-1.3391973821	-0.42085
C	 0.6591466139	-0.6887150379	 1.2547658192	 0.013712
C	 1.0292702906	-2.1420845543	 1.3628248767	-0.285134
N	 2.0263561919	-1.0980332777	 1.515436742	-0.112881
C	 3.1569456481	-0.9017683075	 0.7271222779	 0.419443
N	 3.930534979	-2.0390287813	 0.6000804982	-0.533056
O	 3.4669936588	 0.1646846315	 0.2310075854	-0.381745
H	 1.5085234625	 1.673107114	 0.0197277246	 0.161967
H	-0.0230220659	 1.9947074527	-0.8274302624	 0.103402
H	 0.0142523916	 1.9358330631	 0.9399356291	 0.102476
H	-0.9353615883	-0.1667125672	 0.0136274553	 0.077533
H	 1.7304165687	-0.4788286584	-1.4671157641	 0.152927
H	 0.4399424636	-1.7022685384	-1.4128658513	 0.10483
H	 0.1515088483	-0.1435396797	-2.1786267783	 0.112468
H	 0.1958232298	-0.2563130454	 2.1424582972	 0.096878
H	 0.7791341871	-2.7049104654	 2.259754201	 0.116377
H	 1.0556915313	-2.7288491416	 0.4483813152	 0.130775
H	 3.82312423	-2.7651186092	 1.2906428727	 0.257289
H	 4.8754663473	-1.8603251464	 0.2976447295	 0.261993
75.8252	101.1743	147.2349	202.4292	241.1134	242.7924	276.0438	290.1474	372.6226	438.9268	448.3637	463.5844	533.1892	549.7532	653.3707	723.8237	739.7737	781.8057	897.5128	935.0043	962.8758	969.8091	1011.2974	1045.7134	1097.9044	1113.2328	1120.9822	1136.4687	1161.4706	1182.8756	1216.7114	1293.3057	1338.5282	1366.3169	1395.1776	1406.7262	1426.1685	1443.1907	1487.4522	1502.2017	1508.5761	1520.5726	1525.0742	1616.3029	1784.5367	2988.919	3033.0223	3042.269	3092.7628	3097.2268	3098.6375	3101.4832	3133.4216	3136.6182	3188.0217	3584.3132	3705.3533
CC(C)C1CN1C(N)=O	CC(C)[C@H]1CN1C(=O)N	
InChI=1S/C6H12N2O/c1-4(2)5-3-8(5)6(7)9/h4-5H,3H2,1-2H3,(H2,7,9)	InChI=1S/C6H12N2O/c1-4(2)5-3-8(5)6(7)9/h4-5H,3H2,1-2H3,(H2,7,9)/t5-,8?/m1/s1
