21
gdb 72547	2.50048	1.62441	1.60262	1.3609	76.23	-0.2379	0.0671	0.305	993.7753	0.1856	-424.247677	-424.239866	-424.238922	-424.279657	31.867	
O	-0.0657661655	 1.4254967252	-0.0269706823	-0.495327
C	 0.0082642397	 0.0101911649	 0.0109766402	 0.350387
C	 0.7624384491	-0.5104199452	 1.2460540507	-0.251802
C	 0.8032302774	-2.0646290388	 1.1917780657	-0.220709
C	 0.1022349937	-2.5207011605	-0.0957639117	 0.111824
C	-1.3684600391	-2.0808181939	-0.1008415096	-0.225887
C	-1.4255888386	-0.5326241557	 0.0281602842	-0.22125
O	 0.7762649124	-1.9601436785	-1.2263034632	-0.280813
C	 0.7095860378	-0.5324485207	-1.246392163	-0.093023
H	 0.828686929	 1.7730197089	 0.0630273667	 0.273531
H	 1.778392612	-0.0961870692	 1.249247804	 0.085484
H	 0.264148915	-0.1448288978	 2.1491155338	 0.102906
H	 1.8332737461	-2.4308581737	 1.1858339242	 0.10571
H	 0.3073228727	-2.5068092861	 2.0622472629	 0.098192
H	 0.185592883	-3.6034279225	-0.2229503088	 0.072382
H	-1.8301178679	-2.4140728965	-1.0344611618	 0.107044
H	-1.9064193369	-2.5701201538	 0.717524852	 0.097733
H	-1.9161398111	-0.2174042897	 0.9541854825	 0.100032
H	-1.9821524351	-0.0815586881	-0.7983180352	 0.107463
H	 0.1688313648	-0.1976883886	-2.1426311279	 0.097418
H	 1.7341152916	-0.1327875495	-1.3062580336	 0.078703
75.5766	264.2849	269.7421	280.5788	337.083	357.4824	419.4706	430.3171	499.775	535.2524	550.0064	721.4731	805.2674	815.389	832.8559	904.2119	914.1912	949.2995	964.0634	976.8247	1015.1819	1049.8904	1065.5586	1080.2072	1111.3405	1146.5199	1154.5716	1184.8783	1221.6674	1248.0686	1258.4782	1266.9747	1304.3909	1318.7317	1332.1513	1359.7396	1363.3909	1373.6306	1397.7669	1415.3739	1476.5479	1487.8879	1496.5642	1507.2294	1530.7785	2976.299	3019.8948	3023.8557	3043.8003	3047.1206	3055.3091	3073.4289	3078.3701	3082.2012	3097.6318	3104.2974	3796.2551
OC12CCC(CC1)OC2	O[C@@]12CC[C@@H](CC1)OC2	
InChI=1S/C7H12O2/c8-7-3-1-6(2-4-7)9-5-7/h6,8H,1-5H2	InChI=1S/C7H12O2/c8-7-3-1-6(2-4-7)9-5-7/h6,8H,1-5H2/t6-,7-
