20
gdb 35848	3.13857	1.1382	0.88825	4.0832	84.54	-0.2531	0.0037	0.2568	1306.4526	0.173354	-366.0459	-366.03745	-366.036505	-366.079165	32.305	
N	-0.0614589652	-1.1697854342	-0.1501064153	-0.325932
C	-0.0408115428	-0.0162311749	-0.0773504207	 0.263034
C	-0.0064198964	 1.4469459685	 0.0303753877	-0.14314
C	-0.8347885525	 1.8899455416	 1.2599020821	-0.184654
C	-1.0954595935	 3.4043458474	 1.3398625719	-0.269116
C	 0.0985930983	 4.2540168562	 1.7061840564	-0.048543
C	 1.2696626464	 4.2732659934	 1.0707983224	-0.048541
C	 1.6347428546	 3.449222234	-0.1414553103	-0.269115
C	 1.4641776588	 1.9277325792	 0.012579329	-0.184656
H	-0.501437038	 1.8390130199	-0.8701165629	 0.119445
H	-1.7983876725	 1.3712725259	 1.2187646995	 0.117078
H	-0.3316773882	 1.5497808377	 2.1716785279	 0.117966
H	-1.5132052048	 3.7415978034	 0.3789066315	 0.111408
H	-1.8871977128	 3.5685947864	 2.0772611431	 0.108272
H	-0.0300148612	 4.9125948661	 2.561852019	 0.090888
H	 2.0402044318	 4.9466203672	 1.4386188295	 0.090888
H	 1.0483260843	 3.7836919264	-1.0108994226	 0.111407
H	 2.6799891865	 3.6436702885	-0.4007484876	 0.10827
H	 1.9629211351	 1.5875159094	 0.9267331329	 0.117966
H	 1.9678882122	 1.4331753179	-0.8246369634	 0.117075
64.7925	150.478	170.9132	200.3296	299.0184	315.1068	338.8531	459.3665	477.4319	534.4748	555.1788	666.1598	723.686	763.4714	859.3857	862.9999	904.7526	909.8263	994.2329	1003.7353	1004.9335	1057.7325	1071.5769	1076.5642	1121.0111	1159.9765	1209.1123	1266.6448	1275.3776	1299.1608	1316.5147	1326.3027	1360.1626	1368.1299	1369.6128	1404.9988	1424.3967	1479.0601	1480.8431	1484.482	1493.2092	1727.8866	2354.2959	2994.0201	2996.1217	3006.3173	3040.9828	3042.7387	3072.8975	3074.3296	3084.4971	3088.057	3141.8081	3165.7262
N#CC1CCC=CCC1	N#C[C@H]1CCC=CCC1	
InChI=1S/C8H11N/c9-7-8-5-3-1-2-4-6-8/h1-2,8H,3-6H2	InChI=1S/C8H11N/c9-7-8-5-3-1-2-4-6-8/h1-2,8H,3-6H2
