18
gdb 55964	3.2363	1.09213	0.88842	4.0455	74.39	-0.2443	-0.0405	0.2037	1329.6815	0.14531	-439.097903	-439.08858	-439.087636	-439.133313	33.136	
C	-0.0517009274	 1.4130212024	-0.3032988869	-0.4419
C	-0.0098513538	-0.0837726449	-0.4099455294	 0.404612
N	 0.9272645536	-0.6985365576	-0.9946862543	-0.509515
O	-1.1174773447	-0.6175278848	 0.2066932934	-0.251994
C	-1.1413995798	-1.9993217994	 0.4703958403	 0.019984
C	-2.3839180864	-2.4834539999	 1.2634828194	-0.270213
C	-2.5410157212	-3.6979645967	 0.2999056869	-0.34378
C	-1.548768077	-2.9999643614	-0.6456080591	 0.370413
O	-1.2652276577	-3.1062460653	-1.8016724651	-0.28126
H	 0.8095065292	 1.8385293856	-0.8159903421	 0.149638
H	-0.9737833415	 1.79433944	-0.7532683387	 0.141303
H	-0.0514642085	 1.7229233755	 0.7463825425	 0.135827
H	 0.7767375934	-1.704928297	-1.0490985649	 0.229081
H	-0.1972623083	-2.3224581705	 0.9341432466	 0.111327
H	-2.223362432	-2.7045310295	 2.3182536462	 0.119493
H	-3.2010385188	-1.7671701378	 1.1608393508	 0.134018
H	-2.1352427576	-4.6347131004	 0.694607763	 0.140645
H	-3.5309687915	-3.8964733482	-0.1157839587	 0.142322
36.8056	75.4151	96.5099	145.8955	182.6644	220.2544	336.1311	368.344	460.9681	537.8368	568.1786	598.2414	683.5166	731.7205	765.6911	869.6513	886.5286	926.1334	940.9652	1004.7365	1023.5711	1067.9237	1075.3417	1092.8194	1115.0099	1163.1276	1192.946	1226.798	1253.2911	1262.2044	1308.3138	1369.4183	1410.0184	1442.0228	1474.5485	1477.772	1486.9502	1747.2115	1894.4188	2998.9496	3050.334	3065.6285	3090.6723	3107.8209	3122.7588	3152.1789	3170.6777	3504.6388
CC(=N)OC1CCC1=O	C[C]([NH])O[C@H]1CCC1=O	
InChI=1S/C6H9NO2/c1-4(7)9-6-3-2-5(6)8/h6-7H,2-3H2,1H3	InChI=1S/C6H9NO2/c1-4(7)9-6-3-2-5(6)8/h6-7H,2-3H2,1H3/t6-/m0/s1
