19
gdb 96048	2.77356	1.12821	0.89621	3.3692	72.74	-0.2596	0.0036	0.2632	1308.8166	0.1585	-460.190183	-460.180983	-460.180039	-460.225856	32.327	
C	-0.3591809272	 1.4182797308	 0.2043836042	-0.423293
C	 0.1064358079	-0.0249331133	 0.039606799	 0.00283
C	 1.1436037851	-0.2720726811	-1.0633059526	-0.087119
O	 1.6588005534	-1.5678532619	-0.7909157165	-0.25439
C	 1.703166652	-1.7467162257	 0.6199568368	-0.084049
C	 0.8268491545	-0.6450584598	 1.2542415328	 0.05328
O	 1.6795501485	 0.3296048337	 1.8819620432	-0.189775
C	 1.4665007151	 0.639669078	 3.1745308248	 0.17003
O	 2.1181223637	 1.4486220623	 3.7623645451	-0.274414
H	 0.4810825991	 2.0834129867	 0.4179857962	 0.144421
H	-0.8486588697	 1.7684634329	-0.7095989457	 0.123172
H	-1.0818386758	 1.5145208706	 1.0213122707	 0.118276
H	-0.755200608	-0.6707476758	-0.1714870727	 0.090595
H	 0.7199193977	-0.2839657708	-2.070898449	 0.112619
H	 1.9373089763	 0.4916085785	-1.0242864628	 0.103072
H	 1.3337497281	-2.7522467103	 0.8487888383	 0.110484
H	 2.7283781987	-1.6545312881	 1.0012301119	 0.117122
H	 0.1311191171	-1.0379922572	 2.0030381892	 0.08914
H	 0.6330687435	 0.0622468707	 3.6214216772	 0.078
30.9101	44.8503	150.4933	178.2521	201.3966	225.0697	273.9679	344.5657	384.0989	520.2057	577.263	661.7053	723.1675	867.1186	901.4995	943.1334	958.2704	966.459	1005.2784	1043.2368	1048.4464	1093.7418	1134.9966	1146.8909	1163.393	1195.8972	1230.9378	1248.6146	1271.9015	1324.1998	1345.8018	1366.7665	1382.2798	1407.0316	1417.4059	1443.3666	1495.6339	1502.308	1506.5764	1520.5127	1866.2663	2941.8315	2977.8983	3020.4235	3031.1159	3041.107	3051.6747	3071.2976	3094.8964	3103.2198	3126.0405
CC1COCC1OC=O	C[C@H]1COC[C@H]1OC=O	
InChI=1S/C6H10O3/c1-5-2-8-3-6(5)9-4-7/h4-6H,2-3H2,1H3	InChI=1S/C6H10O3/c1-5-2-8-3-6(5)9-4-7/h4-6H,2-3H2,1H3/t5-,6+/m0/s1
