12
gdb 130548	3.78626	1.23752	0.93268	3.125	69.28	-0.2749	-0.0791	0.1958	1133.5537	0.078532	-431.644436	-431.637013	-431.636069	-431.67706	26.369	
O	-0.0024461006	-0.0341376018	 0.0031755832	-0.295731
C	-0.0287503335	 1.182096246	 0.0065425283	 0.138564
C	 1.1837296527	 1.9772146029	 0.0004600412	 0.293158
C	 2.2095758493	 2.6054337645	-0.0047709038	-0.417077
C	-1.3090979317	 1.9134296762	 0.0170751487	 0.245876
N	-1.4067020025	 3.2502142136	 0.0212607511	-0.279172
N	-2.7069932085	 3.4516432338	 0.0304635753	-0.065742
N	-3.4881125849	 2.3709177015	 0.0329005176	-0.195279
C	-2.611952335	 1.3723805531	 0.0244615576	-0.100545
H	 3.1161315696	 3.1605131428	-0.0091491048	 0.216118
H	-3.0972251052	 4.3816720127	 0.0354853526	 0.303341
H	-2.9226166496	 0.3411248048	 0.0238686628	 0.15649
68.1224	118.623	186.5701	234.5896	282.8559	445.7264	496.3853	578.517	655.6687	669.9931	683.0968	709.2381	727.4792	810.5269	921.0415	981.5845	996.641	1072.7403	1151.1009	1229.9187	1246.9362	1375.222	1399.3798	1481.7842	1550.0957	1736.5352	2220.2272	3291.4437	3495.1023	3654.265
O=C(C#C)C1=NNN=C1	O=C(C#C)c1n[nH]nc1	
InChI=1S/C5H3N3O/c1-2-5(9)4-3-6-8-7-4/h1,3H,(H,6,7,8)	InChI=1S/C5H3N3O/c1-2-5(9)4-3-6-8-7-4/h1,3H,(H,6,7,8)
