22
gdb 107469	2.12685	1.55614	1.25667	0.6628	82.11	-0.2217	0.0739	0.2956	1157.4669	0.192609	-404.314281	-404.304551	-404.303607	-404.348286	37.532	
C	-0.4222722128	 1.4782787339	-0.1012639329	-0.378466
C	 0.1080375885	 0.0504767343	 0.0959544386	-0.316184
C	 0.8269513165	-0.4949743188	-1.1020602039	 0.342559
N	 0.126371368	-0.9090792411	-2.3450475039	-0.385652
C	 0.9853727644	-1.8816515479	-1.6167875887	-0.122604
C	 2.4132998777	-1.6150908268	-2.0912727316	-0.278106
C	 2.2679801387	-0.1382934353	-1.5496741354	 0.374959
C	 2.4527463891	 0.9922081056	-2.5491615294	-0.462923
O	 3.026022819	 0.0723521095	-0.3671893986	-0.485522
H	 0.3982894244	 2.1802682699	-0.2776354052	 0.128114
H	-1.1013249484	 1.5362131864	-0.9580784862	 0.11795
H	-0.965832716	 1.817765001	 0.7857497011	 0.110784
H	 0.7942170571	 0.0273673148	 0.9490826893	 0.124043
H	-0.7238528168	-0.6237547258	 0.3413298023	 0.088335
H	-0.8395754121	-1.1070442965	-2.0820563323	 0.222873
H	 0.5673567854	-2.8088340652	-1.2426292657	 0.088054
H	 3.1672429911	-2.152627179	-1.5123907829	 0.099228
H	 2.5871120115	-1.7429777898	-3.163194088	 0.096156
H	 1.7698915077	 0.8658647019	-3.3918785173	 0.143908
H	 2.263282147	 1.9609629744	-2.076354949	 0.117664
H	 3.4791160781	 0.9986388873	-2.9386818124	 0.099591
H	 3.9430479418	 0.2125017673	-0.6261288579	 0.275238
72.1743	121.8703	194.5391	206.6009	238.369	260.3862	282.3715	295.4907	350.5138	421.826	452.0221	484.1985	501.1334	640.1146	665.723	753.92	809.5074	841.913	896.989	906.7449	944.9821	957.3368	966.3843	990.5195	1037.7948	1070.4164	1099.7187	1109.0957	1109.9778	1157.5893	1187.9616	1230.4315	1241.9757	1260.1822	1306.4786	1316.2265	1364.1703	1389.8713	1395.4463	1407.5211	1441.4457	1469.7141	1477.2453	1485.6901	1498.0162	1499.9021	1507.4265	3017.1796	3022.0667	3037.7308	3057.7081	3073.6285	3089.5226	3107.7684	3112.198	3123.9617	3134.6091	3181.0285	3461.7253	3806.3858
CCC12NC1CC2(C)O	CC[C@]12N[C@H]1C[C@]2(C)O	
InChI=1S/C7H13NO/c1-3-7-5(8-7)4-6(7,2)9/h5,8-9H,3-4H2,1-2H3	InChI=1S/C7H13NO/c1-3-7-5(8-7)4-6(7,2)9/h5,8-9H,3-4H2,1-2H3/t5-,6-,7-/m0/s1
