20
gdb 6226	3.51784	1.59664	1.49621	1.0635	70.89	-0.2446	0.0811	0.3257	980.5977	0.175387	-386.161796	-386.152941	-386.151997	-386.195164	32.907	
C	 0.0229583547	 1.4580345884	-0.1694158419	-0.398056
C	 0.0263303554	-0.0230801019	 0.1578503281	 0.22476
O	 0.2461926944	-0.8192676889	-1.0061716968	-0.278772
C	 1.4206767082	-1.5891272414	-0.8020642393	-0.114795
C	 1.5988313942	-1.6055120039	 0.7261495046	 0.366141
C	 0.7687312542	-2.7135919379	 1.3869092488	-0.426119
C	 3.0535067362	-1.6398248323	 1.1756880739	-0.436674
O	 1.0680165316	-0.3130593508	 1.0632934448	-0.297917
H	 0.9845961739	 1.7466871261	-0.6016776919	 0.121835
H	-0.7730964071	 1.678335693	-0.8855161461	 0.124141
H	-0.1492281538	 2.0425455671	 0.7388699697	 0.123253
H	-0.9466019788	-0.3256001274	 0.5815536607	 0.068246
H	 1.2688547217	-2.5846920881	-1.2308819685	 0.10524
H	 2.2871132195	-1.121071572	-1.2917427028	 0.089069
H	 1.2019358749	-3.6978316474	 1.1815656273	 0.113484
H	 0.7410017631	-2.5668170105	 2.4702605763	 0.122615
H	-0.2581600872	-2.7121158881	 1.0101551121	 0.127436
H	 3.6040236653	-0.7971923376	 0.7492918411	 0.123096
H	 3.1197315998	-1.5780675857	 2.2657132847	 0.126051
H	 3.5334700699	-2.5710153607	 0.8584018552	 0.116968
44.7348	131.0226	202.5101	222.0958	237.8339	295.9483	301.628	340.5481	411.5607	441.1327	499.4507	610.7633	717.076	807.3974	840.5083	873.811	927.8211	943.0241	965.1434	994.367	1039.2358	1051.4558	1105.2709	1136.9509	1164.8513	1192.6103	1217.8687	1275.1105	1277.8624	1351.2423	1388.7413	1396.3391	1400.6977	1417.0382	1428.0899	1477.0009	1483.0153	1484.7438	1486.3684	1498.3398	1506.9787	1522.7212	2951.515	2993.1586	3037.8414	3043.6473	3047.6733	3074.7969	3108.572	3114.4627	3120.398	3123.6999	3126.6589	3132.6943
CC1OCC(C)(C)O1	C[C@H]1OCC(C)(C)O1	
InChI=1S/C6H12O2/c1-5-7-4-6(2,3)8-5/h5H,4H2,1-3H3	InChI=1S/C6H12O2/c1-5-7-4-6(2,3)8-5/h5H,4H2,1-3H3/t5-/m0/s1
