16
gdb 128639	4.99669	1.09172	0.90611	1.1315	76.06	-0.2321	-0.0656	0.1665	1266.6102	0.124229	-434.08563	-434.077248	-434.076304	-434.119177	29.74	
C	-0.0425951471	 1.3914844062	 0.0217650156	-0.228663
O	 0.0458092879	-0.0367058182	 0.0247456225	-0.238454
C	 0.6557474594	-0.6102180791	 1.0611877237	 0.498717
N	 0.7043825169	-1.9509873634	 1.0018229747	-0.280391
C	 1.307622983	-2.5144274808	 2.027150753	-0.046001
C	 1.8489720268	-1.7601201865	 3.0854050261	 0.330554
C	 2.53949275	-2.3897918408	 4.2611902309	-0.483264
N	 1.7532413749	-0.4342949394	 3.0579165739	-0.237947
N	 1.1472135188	 0.1589824915	 2.0308404948	-0.287664
H	 0.951857152	 1.8450342045	 0.0314746168	 0.142984
H	-0.5689984189	 1.6431731965	-0.8993296725	 0.134568
H	-0.5983292411	 1.7508684406	 0.891673305	 0.142979
H	 1.3735063119	-3.601568452	 2.0266884967	 0.125512
H	 3.4087548881	-2.9770296638	 3.9454359097	 0.13771
H	 2.8744839286	-1.6089655685	 4.9457168657	 0.151579
H	 1.8688481387	-3.0667788068	 4.8016802832	 0.137782
67.3724	94.3735	147.9914	194.3539	223.4106	338.1177	343.538	417.3521	488.3099	568.598	568.7379	663.2218	769.2201	833.5761	869.803	974.3199	993.7721	1064.1267	1070.268	1079.2103	1153.4507	1179.2476	1200.4668	1273.853	1355.4702	1380.9179	1407.8102	1432.4174	1477.2288	1480.5262	1484.3956	1494.7613	1520.6066	1561.5436	1617.466	3037.0777	3049.0506	3091.0908	3123.9737	3140.2352	3144.056	3154.9736
COC1=NC=C(C)N=N1	COc1ncc(C)nn1	
InChI=1S/C5H7N3O/c1-4-3-6-5(9-2)8-7-4/h3H,1-2H3	InChI=1S/C5H7N3O/c1-4-3-6-5(9-2)8-7-4/h3H,1-2H3
