17
gdb 95733	3.12623	1.26031	0.9578	3.6865	65.01	-0.2569	-0.0029	0.254	1179.56	0.136252	-496.113486	-496.105223	-496.104279	-496.146484	30.826	
O	-0.2544703973	 1.5168823019	-0.2262628021	-0.418981
C	 0.0660089065	 0.1500217366	-0.0189115913	 0.067777
C	-1.1531272358	-0.4524732074	 0.6784234299	-0.083852
O	-1.003013021	-1.8285692997	 0.9534778765	-0.236807
C	-1.0603967446	-2.6853446818	-0.1661501793	-0.21467
C	 0.2940625626	-2.8950527203	-0.8564266904	 0.405603
O	 0.771162259	-3.9837512103	-1.0155293749	-0.309473
O	 0.9791772882	-1.8023093741	-1.2769877349	-0.218808
C	 0.3598791579	-0.5153623947	-1.3699689012	-0.105421
H	 0.5507151168	 1.9915900629	-0.454775408	 0.294822
H	 0.9458690586	 0.0249949592	 0.6290254609	 0.095412
H	-1.3032014398	 0.0432679166	 1.6404905314	 0.125739
H	-2.0438130281	-0.2670542784	 0.0558468795	 0.102418
H	-1.3641237343	-3.6703181744	 0.1914163827	 0.145471
H	-1.8064785986	-2.3368433286	-0.8989297707	 0.112607
H	-0.5533512514	-0.5629098403	-1.9761206581	 0.119507
H	 1.0858163214	 0.0934842928	-1.91579866	 0.118656
76.9232	140.5327	234.6976	260.3228	281.1588	319.2974	341.0201	370.9612	448.9604	485.0711	526.257	605.8751	723.3198	807.7064	906.5685	916.0687	967.9925	1022.3881	1074.8576	1094.2957	1095.45	1133.0946	1170.7698	1215.6468	1244.9276	1252.9882	1309.6443	1326.2527	1354.9714	1376.969	1390.3509	1408.8489	1447.3682	1475.9441	1493.1044	1507.0645	1848.9046	2977.344	2979.596	3007.0697	3035.2099	3096.743	3105.3287	3125.0602	3824.7574
OC1COCC(=O)OC1	O[C@H]1COCC(=O)OC1	
InChI=1S/C5H8O4/c6-4-1-8-3-5(7)9-2-4/h4,6H,1-3H2	InChI=1S/C5H8O4/c6-4-1-8-3-5(7)9-2-4/h4,6H,1-3H2/t4-/m0/s1
