19
gdb 60039	2.53849	1.08305	0.85903	2.1747	76.13	-0.2541	-0.035	0.219	1380.14	0.158412	-456.3757	-456.365965	-456.365021	-456.411189	35.071	
C	-0.2410596785	 1.4843139198	 0.2745082254	-0.388395
C	-0.0463424781	-0.0310306509	 0.1606915616	 0.154181
O	 0.6527002839	-0.5337736258	 1.2804581463	-0.44394
C	-1.4016172364	-0.7225498713	-0.0510333735	-0.227529
N	-1.3278604528	-2.1818496528	-0.1808657692	-0.053169
C	-1.3197195071	-2.9893776392	 0.9459186024	 0.114542
N	-1.2509041739	-2.4936666081	 2.1175084307	-0.492543
C	-1.3354283384	-2.7773524029	-1.434947916	 0.164852
O	-1.2846329593	-3.9650906603	-1.6407289492	-0.308174
H	 0.7258985222	 1.9598169655	 0.4547197593	 0.131261
H	-0.6717679261	 1.9098200299	-0.6389746668	 0.104355
H	-0.8988064196	 1.7272269853	 1.1163630097	 0.117064
H	 0.5783007704	-0.2377618608	-0.7229085184	 0.075307
H	 0.0241570677	-0.9899125873	 1.8638866547	 0.297372
H	-2.0666320379	-0.5016259359	 0.7894632671	 0.14185
H	-1.8688918421	-0.3329363201	-0.9605633459	 0.12049
H	-1.3872143756	-4.0468893733	 0.6897125877	 0.155109
H	-1.2768079614	-3.2259145393	 2.8227339173	 0.241571
H	-1.398023727	-2.0230410126	-2.2403131535	 0.095795
27.2253	86.7146	170.8353	206.2678	234.4503	242.6463	257.4679	322.5985	328.7373	374.0142	446.8397	495.6899	526.4339	580.3685	759.2051	824.4805	845.1175	882.5399	909.4502	958.8555	1032.2606	1077.8382	1083.9265	1117.9558	1154.2437	1176.5049	1207.8617	1330.7173	1344.0955	1361.8848	1384.8334	1398.565	1404.8971	1421.8947	1445.4027	1459.1857	1476.4428	1497.5445	1499.6914	1703.6279	1814.0172	2969.9548	2978.5504	3030.1356	3054.4705	3096.6456	3106.6667	3125.1531	3141.1542	3522.8345	3636.0215
CC(O)CN(C=N)C=O	C[C@@H](O)CN(C=N)C=O	
InChI=1S/C5H10N2O2/c1-5(9)2-7(3-6)4-8/h3-6,9H,2H2,1H3	InChI=1S/C5H10N2O2/c1-5(9)2-7(3-6)4-8/h3-6,9H,2H2,1H3/t5-/m1/s1
