19
gdb 36813	8.58137	0.44327	0.42633	3.8913	83.92	-0.2516	0.0194	0.2709	2409.2891	0.157574	-382.037236	-382.026826	-382.025881	-382.074002	35.988	
C	-0.0073667129	-1.2339794235	 0.0042062328	-0.428729
C	-0.0250836732	-0.0323657314	 0.0079401535	 0.289414
C	-0.0140149386	 1.4250600723	 0.012847576	-0.354491
C	 1.4111389384	 2.0117870419	-0.0075155734	-0.195883
C	 1.4052405897	 3.539039885	 0.0140806539	-0.124672
N	 2.7675818368	 4.0610291349	-0.0422264647	-0.302402
C	 2.8134225435	 5.5166877558	 0.0087467712	-0.260721
C	 4.1956047506	 6.0037713539	-0.0030411472	 0.256076
N	 5.2842139115	 6.3890475559	 0.0117410816	-0.295783
H	-0.0039202496	-2.2957079039	-0.0000901217	 0.196939
H	-0.5745542774	 1.797182859	-0.854957145	 0.133155
H	-0.5499855346	 1.7908611861	 0.8987384806	 0.131601
H	 1.9646820386	 1.6305336292	 0.8593046354	 0.111326
H	 1.9428668192	 1.6643505052	-0.8983662069	 0.130094
H	 0.8648138572	 3.9188244587	-0.863835139	 0.109973
H	 0.8476238712	 3.8980963754	 0.9009754065	 0.083585
H	 3.3157398791	 3.6797081781	 0.722766893	 0.231867
H	 2.2996745411	 5.9168992646	-0.8745721774	 0.157479
H	 2.3063658495	 5.956133503	 0.8881972609	 0.131172
56.2208	64.2616	65.6278	137.2164	141.0434	148.7918	220.3157	340.2187	346.3935	383.2828	394.5641	537.0643	576.1803	620.883	641.9256	754.289	775.7799	867.7035	937.9641	956.8506	997.2372	1024.3177	1054.7247	1094.6797	1130.9626	1148.7674	1194.5004	1255.9329	1280.5604	1308.8841	1321.1626	1350.9816	1379.4189	1424.8043	1475.3875	1489.7244	1497.2616	1499.621	1522.7157	2241.4965	2369.2132	2914.6061	2931.5757	3015.0164	3024.1482	3039.3109	3045.6968	3047.0632	3097.2113	3506.3559	3517.231
C#CCCCNCC#N	C#CCCCNCC#N	
InChI=1S/C7H10N2/c1-2-3-4-6-9-7-5-8/h1,9H,3-4,6-7H2	InChI=1S/C7H10N2/c1-2-3-4-6-9-7-5-8/h1,9H,3-4,6-7H2
