13
gdb 43423	3.08778	1.50487	1.01177	3.3441	72.54	-0.2632	-0.1153	0.1478	1065.0584	0.091118	-452.809653	-452.802491	-452.801547	-452.841657	26.751	
N	-0.1069095952	 1.3240554852	-0.2599170255	-0.498565
C	-0.016912555	 0.0718582399	-0.0159197151	 0.404991
N	 1.1737398296	-0.6459618725	 0.0933832254	-0.436959
C	 1.3150912802	-2.0005859471	 0.356078601	 0.344724
O	 2.3966416686	-2.5271121465	 0.4308402615	-0.312482
C	-0.0068114582	-2.7805341362	 0.5452780126	 0.262246
O	 0.0318105124	-3.9657196595	 0.7773456004	-0.283905
C	-1.2568515968	-2.0144855997	 0.4279492914	-0.168253
C	-1.2512057109	-0.6995652975	 0.168991904	-0.085154
H	 0.8107388937	 1.7611824998	-0.3705552667	 0.223528
H	 2.0476436635	-0.1480512464	-0.0280560693	 0.258913
H	-2.1764059082	-2.5738677056	 0.5626860477	 0.140819
H	-2.1599976936	-0.1167080938	 0.0786358127	 0.150096
79.0059	136.5965	280.5378	341.1551	386.8395	437.838	444.4253	507.3652	612.3885	622.8678	677.7416	682.7739	805.6325	807.1758	889.3479	896.3857	940.58	1033.3364	1105.9131	1155.4111	1190.9235	1316.0413	1369.2609	1418.6029	1435.8233	1661.9869	1705.135	1789.6222	1820.9408	3196.4814	3221.2058	3455.4222	3571.6019
N=C1NC(=O)C(=O)C=C1	[NH]C1=C[CH]C(=O)C(=O)N1	
InChI=1S/C5H4N2O2/c6-4-2-1-3(8)5(9)7-4/h1-2H,(H2,6,7,9)	InChI=1S/C5H4N2O2/c6-4-2-1-3(8)5(9)7-4/h1-2H,(H2,6,7,9)
