27
gdb 118225	2.06586	0.86372	0.72189	0.9323	93.77	-0.2464	0.0797	0.3261	1806.4887	0.248681	-390.705293	-390.693066	-390.692122	-390.744007	43.805	
C	-0.2617341687	 1.4152365892	-0.100379212	-0.382596
C	 0.0734456234	-0.064410694	-0.2009307556	-0.033953
O	 0.5318511544	-0.5024180907	 1.0616926822	-0.254573
C	 0.757359033	-1.9033492196	 1.1822946061	 0.131492
C	 2.055693073	-2.3315383831	 0.4901208633	-0.402838
C	 0.7907281981	-2.2179665151	 2.680773164	-0.179859
C	-0.4857333126	-1.8566495999	 3.4606149919	 0.045497
C	-1.6920036145	-2.7082419186	 3.0399979687	-0.38619
C	-0.2400871161	-1.9823262529	 4.970250697	-0.391492
H	 0.6229737976	 1.9886307565	 0.1909591073	 0.125719
H	-0.6181714685	 1.7926100461	-1.0636543439	 0.111872
H	-1.0396881572	 1.5834587413	 0.6498239989	 0.124143
H	-0.8171456266	-0.6420635501	-0.5021527992	 0.082151
H	 0.836847082	-0.2241386426	-0.978717662	 0.086678
H	-0.0837041876	-2.4391217211	 0.7108601205	 0.062185
H	 2.9095538585	-1.802807155	 0.9258782226	 0.120472
H	 2.2166026182	-3.407698652	 0.6102707954	 0.112897
H	 2.0326119913	-2.1188672112	-0.5824772659	 0.11355
H	 1.0088582041	-3.2872715332	 2.8062385458	 0.085166
H	 1.6396487014	-1.6726482067	 3.1131683165	 0.094513
H	-0.7125307691	-0.8080862068	 3.2352730361	 0.088062
H	-1.5009573189	-3.7744757425	 3.215338259	 0.106127
H	-2.5821078603	-2.4341379091	 3.6162010526	 0.108169
H	-1.93682166	-2.5834728578	 1.980863719	 0.110951
H	 0.006272279	-3.0155144771	 5.2453938337	 0.106692
H	 0.5903884847	-1.3460855575	 5.2943809724	 0.108908
H	-1.1279752687	-1.6921339365	 5.5420829557	 0.106257
27.6986	52.783	74.2487	111.336	162.1407	205.5643	219.234	225.2287	248.7304	254.2612	298.1963	330.5251	379.3319	412.189	455.1361	488.0162	527.7621	807.3272	817.1129	823.4335	885.5484	904.0626	928.363	954.1193	964.5145	983.3746	1026.7677	1067.8591	1106.8738	1133.7157	1152.6599	1176.7401	1184.1308	1190.3049	1198.0701	1276.985	1299.0429	1304.2893	1354.5428	1366.1118	1377.9402	1397.0212	1399.6079	1401.952	1404.0825	1421.6638	1436.9142	1468.6074	1483.0373	1487.248	1489.346	1494.9423	1498.3181	1500.4785	1504.8137	1510.4415	1530.7596	2954.4153	2962.2811	2989.2217	3012.0641	3019.8056	3024.4111	3037.948	3039.9828	3043.497	3057.1136	3082.9728	3091.8376	3096.3082	3101.706	3108.7618	3112.6928	3117.8061	3120.1794
CCOC(C)CC(C)C	CCO[C@@H](C)CC(C)C	
InChI=1S/C8H18O/c1-5-9-8(4)6-7(2)3/h7-8H,5-6H2,1-4H3	InChI=1S/C8H18O/c1-5-9-8(4)6-7(2)3/h7-8H,5-6H2,1-4H3/t8-/m0/s1
