18
gdb 86487	2.18098	1.41155	0.99773	1.4997	80.37	-0.223	-0.0368	0.1862	1229.0013	0.144531	-401.891292	-401.881783	-401.880839	-401.926183	34.22	
C	-0.2768344852	 1.5051960764	 0.299725349	-0.328307
N	-0.1212250916	 0.0739515867	 0.1617768266	-0.059017
C	-1.2691852538	-0.7896650801	 0.4904351997	-0.213063
C	-0.3058437027	-1.8065052477	 1.1740881486	 0.005535
C	 0.7437298028	-0.6251181255	 1.1196606387	-0.200978
C	-0.6685327599	-2.2087955201	 2.6005594061	 0.099141
O	-1.4918605474	-1.6442082691	 3.2707336006	-0.247734
C	 0.0590199074	-2.9704454256	 0.393060978	 0.27195
C	 0.3541557716	-3.9671049138	-0.21145479	-0.431885
H	 0.6763091279	 2.0030411798	 0.0924219141	 0.123788
H	-1.0080501666	 1.8666933178	-0.4306420653	 0.126524
H	-0.6155796327	 1.8122811275	 1.3071216841	 0.099185
H	-1.9545760787	-0.3641006532	 1.2370249456	 0.117524
H	-1.8319109104	-1.1565174389	-0.3720832605	 0.116403
H	 1.7389023481	-0.8874575967	 0.749806685	 0.121239
H	 0.8306974796	-0.1213062283	 2.0956340988	 0.102052
H	-0.0843196066	-3.0682301072	 2.9925281212	 0.096934
H	 0.6151147882	-4.835016982	-0.7652311404	 0.200709
55.0981	64.9501	154.1695	160.6196	213.9937	267.401	282.7791	335.5184	351.5498	462.4832	512.6414	545.814	623.7207	643.0822	664.3921	762.499	872.2574	893.2932	943.026	987.4613	1013.9697	1068.6982	1115.4836	1136.8438	1140.8161	1191.1512	1239.5049	1250.4129	1258.9666	1300.5099	1338.1631	1416.4112	1451.3943	1485.7087	1496.5908	1499.0169	1524.201	1826.4944	2234.1627	2910.2313	2931.9352	2973.5839	3009.7378	3059.8678	3080.8264	3088.026	3101.5342	3500.5823
CN1CC(C1)(C=O)C#C	CN1CC(C1)(C=O)C#C	
InChI=1S/C7H9NO/c1-3-7(6-9)4-8(2)5-7/h1,6H,4-5H2,2H3	InChI=1S/C7H9NO/c1-3-7(6-9)4-8(2)5-7/h1,6H,4-5H2,2H3
