15
gdb 12042	3.97845	1.73762	1.53725	3.3107	65.23	-0.252	0.0159	0.2679	848.1231	0.119967	-358.795299	-358.788053	-358.787109	-358.826552	27.356	
N	-0.0942472993	 1.4801143684	 0.016407136	-0.543227
C	-0.0421545404	 0.0217135462	 0.0080893747	 0.114102
C	 0.1920224945	-0.6536742233	 1.3996659613	-0.187852
N	-1.1155147687	-1.3900740421	 1.3424143943	-0.120133
C	-2.1551188837	-0.3504114552	 1.2456896191	-0.244704
C	-1.4048437461	-0.6933827547	 0.0245253765	-0.042633
C	 0.8494981792	-0.5131155856	-1.032141844	 0.230553
N	 1.5630344551	-0.8805129791	-1.865174346	-0.337516
H	 0.8431694302	 1.8565239316	 0.1362584686	 0.244205
H	-0.4275579386	 1.8217896542	-0.8820256697	 0.243447
H	 1.0245754774	-1.3571271744	 1.4106961513	 0.139216
H	 0.2771775935	 0.0511400758	 2.2317290928	 0.120136
H	-3.1589768706	-0.7539263424	 1.3313246786	 0.130791
H	-1.9943409344	 0.6140077871	 1.7187274966	 0.137399
H	-1.829056158	-1.2183148166	-0.8240770701	 0.116216
135.2392	160.8251	216.1808	225.6607	344.5724	429.2805	480.2636	525.8964	571.9006	647.1106	752.562	787.3631	841.1722	894.215	913.2399	935.1251	977.2545	1036.2865	1060.4457	1106.023	1115.2857	1174.4019	1185.9827	1217.2039	1248.4131	1291.2907	1295.4911	1364.6355	1481.2939	1500.4071	1652.2241	2341.6041	3061.9361	3120.949	3139.956	3178.2774	3215.1819	3476.9722	3557.1097
NC1(CN2CC12)C#N	N[C@]1(CN2C[C@@H]12)C#N	
InChI=1S/C5H7N3/c6-2-5(7)3-8-1-4(5)8/h4H,1,3,7H2	InChI=1S/C5H7N3/c6-2-5(7)3-8-1-4(5)8/h4H,1,3,7H2/t4-,5-,8?/m0/s1
