23
gdb 118409	2.08285	0.81219	0.60741	1.1794	92.56	-0.2433	0.0618	0.3051	1921.0985	0.202352	-388.265439	-388.253496	-388.252552	-388.304584	40.457	
C	-1.5210629079	-0.2255745215	-0.0035121709	-0.387652
C	-0.0009238884	-0.0885618263	 0.0873817279	-0.164632
C	 0.7400366584	-0.6211922882	-1.1607841155	-0.166981
C	 2.2412545657	-0.2931471934	-1.1061428306	-0.064515
O	 2.3917690046	 1.1094820105	-1.1003206262	-0.232063
C	 3.7356644685	 1.5170158534	-1.0173523376	-0.227352
C	 0.5555124607	-2.0606932093	-1.3427840585	 0.06858
C	 0.4258751858	-3.2514621808	-1.4722670538	 0.054657
C	 0.2601232079	-4.6886965193	-1.6407524797	-0.498425
H	-1.9183603211	 0.3381049976	-0.8552531166	 0.112023
H	-1.8155738335	-1.2718881672	-0.1295753009	 0.124712
H	-2.0038844679	 0.1563866274	 0.9012670185	 0.109133
H	 0.2798608566	 0.9613284464	 0.2119968543	 0.113843
H	 0.3708774883	-0.6274724642	 0.9677903066	 0.094728
H	 0.3382822028	-0.0980842141	-2.0407077638	 0.105401
H	 2.6885592245	-0.7383782124	-0.2012781	 0.09061
H	 2.7527526389	-0.7340106286	-1.9764971591	 0.093308
H	 4.2151699877	 1.1597653693	-0.092102212	 0.104345
H	 4.327465701	 1.151002797	-1.8714601564	 0.104142
H	 3.7480551146	 2.6097300772	-1.0222725294	 0.126664
H	 1.1349517654	-5.1363703795	-2.1254414451	 0.14615
H	 0.1237815104	-5.1913864387	-0.6767730558	 0.146183
H	-0.613881943	-4.9192244056	-2.2601189853	 0.147142
24.5075	70.9321	77.3585	88.0222	101.8595	144.5831	204.7434	236.306	243.0591	252.3609	317.0229	334.5713	344.6007	449.211	516.6138	571.7855	724.1511	828.0927	852.9827	976.7991	1002.6168	1026.3916	1052.7434	1054.227	1069.7244	1110.3892	1142.3037	1163.4553	1178.8677	1192.639	1225.7764	1253.3881	1277.2842	1315.2861	1351.5144	1368.4082	1409.659	1414.3997	1416.392	1479.1977	1479.7782	1480.1242	1485.3863	1490.9808	1497.5119	1502.5704	1508.5819	1526.366	2367.8893	2957.2247	2971.9383	2991.9766	3007.9835	3013.2157	3025.6984	3031.9234	3035.083	3085.5101	3085.6437	3085.8056	3100.4561	3112.9642	3113.4284
CCC(COC)C#CC	CC[C@@H](COC)C#CC	
InChI=1S/C8H14O/c1-4-6-8(5-2)7-9-3/h8H,5,7H2,1-3H3	InChI=1S/C8H14O/c1-4-6-8(5-2)7-9-3/h8H,5,7H2,1-3H3/t8-/m1/s1
