21
gdb 112043	2.27038	1.45772	1.11556	1.2661	80.06	-0.2415	0.0171	0.2586	1198.8306	0.180897	-424.226367	-424.216797	-424.215852	-424.260434	36.306	
C	-0.0182255057	 1.4256021678	 0.0441874892	-0.237825
O	 0.2074662985	 0.0435097997	-0.1047493715	-0.252358
C	 0.7064819747	-0.5885132502	 1.0626841001	 0.052761
C	-0.3114012315	-0.8849993825	 2.1412849414	-0.103895
C	-0.1060576304	-2.0897070916	 2.6713473669	-0.068401
C	 1.0529065598	-2.8033824592	 2.0221851624	-0.29049
C	 1.2928168267	-1.9948851541	 0.7222708069	 0.349052
C	 0.567453186	-2.6366934811	-0.4646829499	-0.425107
O	 2.6944836751	-1.945170055	 0.477486655	-0.481155
H	 0.8973362386	 1.9556531063	 0.3512367995	 0.10507
H	-0.3398176319	 1.8087723028	-0.9276287125	 0.126112
H	-0.8034038436	 1.6457617636	 0.7826557071	 0.107256
H	 1.5282970691	 0.0258494246	 1.4713011747	 0.074044
H	-1.0647401209	-0.172546364	 2.4571452732	 0.094824
H	-0.6703190373	-2.5181288083	 3.4927027571	 0.095064
H	 1.9552544465	-2.7566353154	 2.6452317781	 0.120702
H	 0.8574708634	-3.8630114487	 1.8244894009	 0.102147
H	-0.5018547582	-2.7439187461	-0.2626264478	 0.122272
H	 0.6714864441	-2.0229985407	-1.3631601899	 0.119591
H	 0.9958085869	-3.6252106124	-0.652884008	 0.113226
H	 2.82264574	-1.5075210655	-0.3712610829	 0.277112
79.8167	95.9846	182.9202	207.9481	253.0192	267.9884	310.0412	334.4892	343.2816	363.9468	442.2079	517.5096	538.0802	599.0131	710.8276	751.4835	817.6666	934.2201	949.9722	963.2272	975.5017	980.263	1010.4854	1035.2861	1106.8538	1118.4864	1122.3322	1161.6784	1175.4818	1183.2262	1219.5239	1254.9366	1291.1612	1321.0812	1358.1849	1369.2692	1396.9314	1403.8337	1479.5528	1480.7317	1489.1034	1494.0591	1495.5785	1510.2494	1682.4825	2941.2545	2975.1788	3022.7286	3028.2302	3044.537	3066.5538	3110.254	3121.5427	3123.3883	3180.7111	3206.5873	3803.6928
COC1C=CCC1(C)O	CO[C@H]1C=CC[C@]1(C)O	
InChI=1S/C7H12O2/c1-7(8)5-3-4-6(7)9-2/h3-4,6,8H,5H2,1-2H3	InChI=1S/C7H12O2/c1-7(8)5-3-4-6(7)9-2/h3-4,6,8H,5H2,1-2H3/t6-,7-/m0/s1
