19
gdb 68459	2.38493	2.03935	1.33844	2.7275	76.59	-0.2384	0.0227	0.261	993.6501	0.161656	-419.20565	-419.197911	-419.196967	-419.23757	30.792	
C	-0.0749237279	 1.5339327717	 0.0392985538	-0.464326
C	 0.0108374497	 0.0252692029	 0.0050657517	 0.231199
C	 0.7557563675	-0.6932146101	-1.159686799	-0.260134
C	-0.3286541996	-1.7745503236	-0.9635869084	-0.008609
C	 0.084502374	-2.7069065521	 0.1648701724	-0.089059
O	 0.5230782416	-1.9702577688	 1.3214633013	-0.26752
C	 0.489441143	-0.5997908408	 1.3024119771	 0.385401
N	 0.8283966658	 0.0826807342	 2.3121481584	-0.533796
N	-1.2240127372	-0.7006657703	-0.4559007184	-0.338698
H	 0.908120706	 1.9721700227	 0.2282021783	 0.132406
H	-0.4592514877	 1.8965042431	-0.9176925736	 0.113153
H	-0.7403168111	 1.8680507539	 0.8395691817	 0.131634
H	 0.629818985	-0.1487326339	-2.0960119715	 0.11654
H	 1.7999908482	-0.9727596444	-1.0108997727	 0.110721
H	-0.6980073777	-2.336111515	-1.8270609894	 0.07909
H	-0.7567491982	-3.3374988966	 0.4806305347	 0.112113
H	 0.9083323474	-3.3636051887	-0.1401631046	 0.116074
H	 1.1072538726	-0.5341067478	 3.0785633215	 0.218387
H	-1.8488639612	-0.9893309165	 0.2965530766	 0.215426
105.2268	184.3898	211.5767	285.6287	321.2352	386.2393	419.5322	463.1622	492.3571	624.0483	673.8306	712.9281	810.6824	816.6636	859.0601	896.077	914.2531	924.8434	950.0339	985.823	1028.5365	1040.3704	1068.5702	1095.7491	1139.9858	1156.9492	1195.5509	1223.4613	1230.7882	1246.9486	1308.7563	1318.8389	1341.2258	1382.7749	1410.4088	1426.0813	1479.1768	1483.5011	1491.3832	1512.2685	1749.5331	3017.0901	3050.6177	3059.3162	3063.0646	3082.9328	3126.5718	3131.1029	3145.9043	3455.5553	3458.1529
CC12CC(COC1=N)N2	C[C@@]12C[C@@H](CO[C]1[NH])N2	
InChI=1S/C6H10N2O/c1-6-2-4(8-6)3-9-5(6)7/h4,7-8H,2-3H2,1H3	InChI=1S/C6H10N2O/c1-6-2-4(8-6)3-9-5(6)7/h4,7-8H,2-3H2,1H3/t4-,6+/m0/s1
