17
gdb 102900	2.10674	1.0346	0.72722	3.0978	76.1	-0.2542	-0.0002	0.254	1512.3784	0.133635	-417.957473	-417.947337	-417.946392	-417.993509	35.269	
N	 0.0747629991	 1.4864349405	-0.0500577527	-0.516792
C	 0.0487143261	 0.0289009465	-0.0286370657	-0.172365
C	 0.8756244233	-0.452179175	 1.167780044	 0.011257
O	 0.2168224333	-0.0031628806	 2.3343911173	-0.251817
C	 0.9889645434	-0.1426982806	 3.5252873278	-0.225097
C	 0.2567170196	 0.4281108119	 4.6444478989	 0.28485
C	-0.326752579	 0.8929242108	 5.5849531858	-0.410354
C	 1.022257065	-1.9244965583	 1.1660513533	 0.269549
N	 1.1414387122	-3.0738425487	 1.1748381698	-0.321718
H	-0.4251857719	 1.8303943808	-0.8628714821	 0.235621
H	-0.4111156377	 1.8374729263	 0.7693053907	 0.244887
H	-0.9525480633	-0.4235936806	 0.0516456523	 0.113817
H	 0.5125901663	-0.3541723218	-0.9432689617	 0.126323
H	 1.8802202343	-0.0068871559	 1.0981457245	 0.125155
H	 1.2024017662	-1.2052242709	 3.7167894974	 0.148588
H	 1.9571656349	 0.3695620523	 3.406554749	 0.130752
H	-0.8461088717	 1.3023998433	 6.4161010915	 0.207345
46.1983	88.0303	110.4502	134.9608	146.9523	229.8602	267.5065	295.8698	333.2216	349.2308	455.1473	497.9835	550.6593	615.6052	626.4678	686.8652	858.3568	861.5723	964.2578	977.0464	1016.7601	1033.6832	1074.7373	1104.0852	1138.4641	1211.856	1259.4471	1274.3687	1342.154	1355.733	1424.6615	1430.2072	1496.8475	1499.9751	1649.1848	2250.8456	2354.0303	2977.0283	2978.0532	2998.3037	3011.6316	3080.0347	3504.7187	3507.6796	3588.0622
NCC(OCC#C)C#N	NC[C@@H](OCC#C)C#N	
InChI=1S/C6H8N2O/c1-2-3-9-6(4-7)5-8/h1,6H,3-4,7H2	InChI=1S/C6H8N2O/c1-2-3-9-6(4-7)5-8/h1,6H,3-4,7H2/t6-/m1/s1
