17
gdb 54580	3.7914	1.35944	1.15218	2.8724	72.48	-0.2277	0.0203	0.248	1061.9427	0.137123	-417.961831	-417.954037	-417.953093	-417.994448	29.855	
N	 0.0818077287	 1.200026862	 0.4419554631	-0.542687
C	-0.0285808384	-0.039228527	-0.1250030613	 0.288401
O	 0.9156557537	-0.6154412577	-0.6378408188	-0.377773
C	-1.379561714	-0.6491951199	-0.0410009107	 0.228093
C	-2.6440998344	-0.3052658827	 0.7335762982	-0.266388
N	-3.1250283676	-1.7283703958	 0.5309234765	-0.174095
C	-3.3338312478	-1.7566019194	-0.9756220859	-0.185907
C	-1.8328078455	-1.6353080735	-1.1562346687	-0.109859
C	-1.6543574418	-2.1090279803	 0.2415449708	-0.050444
H	 0.9578000603	 1.6857222911	 0.3366690353	 0.261943
H	-0.7241118463	 1.722979608	 0.7371376285	 0.261357
H	-2.4525337056	-0.1384311657	 1.7974228327	 0.114892
H	-3.3298551796	 0.4626821136	 0.3554402617	 0.098358
H	-3.7114136942	-2.7402428161	-1.2655206886	 0.118196
H	-3.9994343953	-0.9755526893	-1.3596263766	 0.100848
H	-1.1890078033	-1.8065953649	-2.0079203463	 0.119175
H	-1.071933989	-2.8755538624	 0.7307973402	 0.11589
59.0846	159.8961	174.2519	197.2314	358.65	408.4128	466.46	493.6355	568.0591	643.1788	710.1741	765.071	782.6639	837.672	838.9343	883.0499	919.7308	946.6669	965.1179	1005.7144	1042.196	1079.349	1085.3107	1101.792	1121.9914	1156.4917	1178.3482	1199.9429	1219.9954	1288.631	1296.0134	1340.6147	1428.4841	1503.2439	1523.0329	1615.6092	1775.8944	3024.5963	3041.5982	3091.183	3105.6425	3217.0198	3234.8941	3599.396	3735.0718
NC(=O)C12CN3CC1C23	NC(=O)[C@@]12CN3C[C@@H]1[C@@H]23	
InChI=1S/C6H8N2O/c7-5(9)6-2-8-1-3(6)4(6)8/h3-4H,1-2H2,(H2,7,9)	InChI=1S/C6H8N2O/c7-5(9)6-2-8-1-3(6)4(6)8/h3-4H,1-2H2,(H2,7,9)/t3-,4+,6+/m1/s1
