22
gdb 104930	2.20708	1.35035	1.00774	2.6069	84.79	-0.2521	-0.0292	0.2228	1297.1585	0.191315	-404.348529	-404.338002	-404.337058	-404.383788	38.727	
C	 0.3991537032	 1.4259355512	 0.4003175687	-0.384814
C	-0.2669254591	 0.1604199319	-0.1543031055	-0.251881
C	 0.4944604686	-0.4230885895	-1.3339816162	 0.179218
N	 1.8552619042	-0.9648953343	-1.074820389	-0.39406
C	 0.8148492944	-1.9059218637	-1.4794055208	 0.263232
C	 0.3669433905	-2.8672691311	-0.3911074063	-0.431983
C	 0.8829420545	-2.5773503146	-2.8434081741	-0.467713
C	 0.3357574222	 0.3598314791	-2.5978976234	 0.115165
O	-0.4987140394	 1.2136998563	-2.7730632369	-0.264629
H	 1.4234870254	 1.2115458889	 0.7193744595	 0.127036
H	 0.429234821	 2.2176651427	-0.3534675643	 0.129537
H	-0.1552958227	 1.8073945565	 1.2628843911	 0.11049
H	-0.3587186061	-0.5816117121	 0.6403412458	 0.097445
H	-1.2793464877	 0.3953008232	-0.4979756628	 0.118122
H	 2.4758420193	-0.7467650286	-1.8551123855	 0.226486
H	 0.5261625641	-2.454259999	 0.6044289025	 0.138572
H	-0.6902985654	-3.1288287683	-0.5053017183	 0.122866
H	 0.9498218111	-3.7923740513	-0.4621948319	 0.120083
H	 1.552783483	-3.4429304668	-2.7872265778	 0.127061
H	-0.1031673221	-2.946231922	-3.1445737239	 0.134263
H	 1.2521780656	-1.9243726838	-3.6353958917	 0.119971
H	 1.0834123751	 0.1300779653	-3.3909919993	 0.065534
72.6749	93.995	139.7133	155.8874	193.8543	218.34	243.4076	279.4824	334.8451	352.5644	388.2146	395.7625	483.6964	538.0028	547.3484	704.4959	731.5681	796.6277	831.6294	933.0003	955.124	981.2042	999.3796	1017.5432	1059.6545	1073.3534	1098.7444	1107.2304	1154.2609	1164.9492	1257.3645	1304.517	1337.2609	1365.4295	1384.3633	1403.1041	1411.9807	1421.1789	1439.8248	1470.7594	1480.4549	1491.3327	1499.5422	1504.7981	1509.8133	1516.967	1806.166	2862.1218	3035.6096	3040.574	3042.6923	3064.4962	3093.0576	3098.2689	3107.5216	3112.6551	3128.6057	3136.8322	3153.3759	3450.1704
CCC1(NC1(C)C)C=O	CC[C@]1(NC1(C)C)C=O	
InChI=1S/C7H13NO/c1-4-7(5-9)6(2,3)8-7/h5,8H,4H2,1-3H3	InChI=1S/C7H13NO/c1-4-7(5-9)6(2,3)8-7/h5,8H,4H2,1-3H3/t7-/m0/s1
