19
gdb 80488	2.11468	1.8277	1.61789	2.0913	69.22	-0.2407	0.0608	0.3015	960.7441	0.161838	-460.154531	-460.146929	-460.145985	-460.186186	31.32	
O	-0.3399236165	 1.698549776	 0.3767662962	-0.447596
C	-0.1645969811	 0.3255930638	 0.1681674504	 0.10857
C	-0.4083603737	-0.758331333	 1.1826798089	-0.107257
C	-1.2202412515	-0.4648560266	 2.4403435741	-0.244449
C	-2.5158664062	 0.2222759396	 1.9810874944	 0.045837
O	-2.4000724425	 1.6319192985	 2.1774391857	-0.431659
C	-2.6757862199	-0.1054244978	 0.4474613856	 0.101011
O	-3.143299808	 1.0355981139	-0.271407165	-0.454483
C	-1.3264033606	-0.622153407	-0.031118799	-0.14889
H	-0.8715395075	 1.8422267054	 1.1819510026	 0.298266
H	 0.6856753364	 0.1635696824	-0.4871273715	 0.106124
H	 0.3206643269	-1.5600550552	 1.2387283869	 0.087845
H	-1.4540324667	-1.4114494154	 2.9382193091	 0.109835
H	-0.6971733699	 0.1621431747	 3.1699143649	 0.122731
H	-3.3854030963	-0.1376025316	 2.5441676311	 0.083928
H	-3.0176992534	 2.019596974	 1.5358714333	 0.290248
H	-3.4436730649	-0.8749296091	 0.3223481097	 0.091138
H	-2.3522641091	 1.5350712479	-0.5201147616	 0.300694
H	-1.3130862756	-1.3234410105	-0.8581664359	 0.088107
132.2647	168.0335	259.8325	316.8192	363.7249	405.6821	484.9811	505.9684	541.5681	563.7557	633.0331	695.4358	744.1702	765.1959	785.7076	823.0876	850.4086	897.8882	932.7765	1001.5373	1039.1831	1048.585	1052.9864	1075.4191	1082.9446	1109.3964	1131.2699	1216.027	1221.1475	1239.9714	1280.6831	1321.0056	1325.8407	1332.6772	1361.805	1368.5501	1410.6949	1419.1518	1447.5115	1486.1689	1501.7963	3021.8796	3049.3111	3062.9164	3088.0635	3153.9805	3159.2358	3172.3444	3561.3177	3688.9345	3735.9152
OC1C2CC(O)C(O)C12	O[C@H]1[C@H]2C[C@@H](O)[C@@H](O)[C@@H]12	
InChI=1S/C6H10O3/c7-3-1-2-4(5(2)8)6(3)9/h2-9H,1H2	InChI=1S/C6H10O3/c7-3-1-2-4(5(2)8)6(3)9/h2-9H,1H2/t2-,3+,4+,5-,6+/m0/s1
