19
gdb 72268	2.73262	1.89223	1.67654	2.1274	73.74	-0.2235	0.077	0.3005	915.9437	0.160782	-422.993603	-422.986563	-422.985619	-423.024519	29.227	
C	 0.0438316371	 1.4967351472	-0.081698424	-0.506649
C	-0.0617080047	 0.0010011889	-0.0315675646	 0.475413
O	 0.4215498274	-0.6797947312	-1.1987755198	-0.326625
C	-0.4454875539	-1.7932994776	-0.8387434376	 0.059917
C	 0.4054733318	-2.7298608633	 0.0077406293	-0.087525
O	 1.0966255941	-1.9458989065	 0.9818110199	-0.258867
C	 0.3753714054	-0.7716543606	 1.302484116	 0.027441
C	-1.1260969713	-1.0800091275	 1.5632399401	-0.272079
C	-1.3425986599	-0.8654804569	 0.0554483893	-0.144653
H	 1.0955376353	 1.7997995312	-0.1309274289	 0.134993
H	-0.4700176261	 1.8930743312	-0.9625585121	 0.12756
H	-0.3973531651	 1.947500933	 0.8132012911	 0.120978
H	-0.8982716163	-2.2741045109	-1.7092552868	 0.081241
H	-0.2124733817	-3.5056252032	 0.4859945042	 0.091356
H	 1.1661538406	-3.223204628	-0.6050347652	 0.11711
H	 0.9544704223	-0.2345381399	 2.0552496917	 0.078446
H	-1.3578729865	-2.0475435177	 2.0157628904	 0.104794
H	-1.6127835235	-0.2901985509	 2.1428841797	 0.105238
H	-2.3082571549	-0.5785081873	-0.362459683	 0.071912
198.7053	217.776	261.4957	286.7735	401.3227	415.7702	471.3079	533.1418	627.8531	697.6109	725.3146	804.7625	837.6495	843.5699	877.4113	899.8449	936.952	952.8667	966.8296	1016.9891	1042.9435	1056.97	1095.8137	1114.5895	1161.3645	1166.664	1175.3481	1185.1161	1214.3412	1250.0582	1278.1569	1304.798	1330.2142	1342.6603	1350.4488	1400.3685	1411.9227	1475.8404	1481.8334	1491.596	1505.9708	2984.9018	3032.8386	3056.2093	3075.821	3084.1328	3101.1357	3102.5146	3105.1343	3109.1539	3112.113
CC12OC3COC1CC23	C[C@@]12O[C@H]3CO[C@@H]1C[C@@H]23	
InChI=1S/C7H10O2/c1-7-4-2-6(7)8-3-5(4)9-7/h4-6H,2-3H2,1H3	InChI=1S/C7H10O2/c1-7-4-2-6(7)8-3-5(4)9-7/h4-6H,2-3H2,1H3/t4-,5+,6-,7+/m1/s1
