17
gdb 20553	4.47172	1.42874	1.41963	4.6479	69.59	-0.2542	0.0063	0.2605	965.1801	0.143089	-360.052689	-360.044914	-360.043969	-360.085576	28.225	
C	-0.0445348041	 1.587539934	 0.1772297476	-0.389538
C	-0.0361978439	 0.0613481581	 0.0467894874	 0.052917
C	 0.8613858963	-0.6167010248	 1.0865702518	-0.389296
N	-1.3986748322	-0.4759393479	 0.101783707	 0.070529
C	-2.310445893	-0.431941929	 1.1024880295	-0.102497
C	-3.4031217975	-1.0938734222	 0.5955494583	-0.067598
N	-3.1147765323	-1.5046386898	-0.6683671162	-0.193711
N	-1.9020923575	-1.1301498199	-0.9656318142	-0.145157
H	 0.9682344055	 1.9774529039	 0.0407881014	 0.127521
H	-0.6940442293	 2.0391335524	-0.5768848104	 0.139603
H	-0.3934178748	 1.900961385	 1.1667056733	 0.121116
H	 0.3037382458	-0.2125197016	-0.955407446	 0.12355
H	 0.5421931631	-0.3760372914	 2.1059535165	 0.121102
H	 0.8439905438	-1.7028916693	 0.9666702265	 0.139684
H	 1.8926152519	-0.2716470327	 0.9687731857	 0.127442
H	-2.1173365369	 0.0438621124	 2.0487932358	 0.141184
H	-4.3572921048	-1.2936091671	 1.0556985059	 0.12315
31.5443	133.1295	214.2085	223.4845	266.2821	317.5768	414.042	487.9925	649.7966	672.0647	722.1317	784.2843	859.4164	891.225	936.5371	953.7023	962.1307	1034.0555	1077.8641	1101.8757	1141.5788	1148.0627	1179.4675	1222.1267	1290.5166	1328.0137	1355.5391	1386.6463	1402.2704	1421.8715	1484.5809	1486.8048	1492.0303	1501.4622	1508.0306	1520.4541	3039.5453	3043.1466	3083.3477	3108.4074	3119.1784	3126.1469	3128.3106	3267.0116	3290.864
CC(C)N1C=CN=N1	CC(C)n1ccnn1	
InChI=1S/C5H9N3/c1-5(2)8-4-3-6-7-8/h3-5H,1-2H3	InChI=1S/C5H9N3/c1-5(2)8-4-3-6-7-8/h3-5H,1-2H3
