19
gdb 56242	4.66285	0.56798	0.56179	4.3462	73.43	-0.2407	0.0301	0.2708	1966.3655	0.157659	-456.420149	-456.40918	-456.408236	-456.458763	37.36	
N	 0.07934992	 1.2411521388	-0.2080143607	-0.520806
C	-0.0570772815	 0.0401077232	 0.4284511076	 0.406876
O	 0.7610751369	-0.3656122645	 1.2309093272	-0.35965
C	-1.3343943615	-0.7311334554	 0.0971248878	-0.313783
C	-1.0775192124	-2.237879273	 0.0017634999	-0.15428
C	-2.3689987604	-3.0565894447	-0.0828983488	-0.313775
C	-2.0891823884	-4.5197599976	-0.4248933381	 0.406868
N	-2.8815000675	-5.4292409631	 0.2164126966	-0.520797
O	-1.2492457459	-4.8509217896	-1.2389956996	-0.359656
H	 0.9244798471	 1.765780355	-0.0497281711	 0.259587
H	-0.5289584574	 1.5233786097	-0.9557113998	 0.256483
H	-2.0434898368	-0.5226932076	 0.9101031057	 0.125482
H	-1.7980096946	-0.3541970609	-0.8226236003	 0.091495
H	-0.4692940916	-2.4664336565	-0.8782242992	 0.13146
H	-0.4901433266	-2.5406098662	 0.8734839556	 0.131457
H	-2.9488352469	-2.9698033658	 0.8440391839	 0.091486
H	-3.0082250593	-2.6659039527	-0.8866076671	 0.125483
H	-3.4897288551	-5.1707656584	 0.9727097435	 0.256483
H	-2.7061777979	-6.4072501805	 0.051216287	 0.259586
25.4261	32.1231	86.0735	92.4134	108.6405	183.756	187.171	256.8721	266.6545	419.4927	452.6169	531.2214	532.0173	596.2605	600.5622	687.4416	708.0221	760.0077	837.2767	852.243	901.2535	1040.2181	1049.0379	1066.9102	1087.667	1114.3338	1167.8394	1238.4997	1280.8021	1295.5061	1315.7976	1351.519	1403.9905	1405.1974	1466.0696	1469.8245	1504.4934	1616.3179	1617.3417	1795.8139	1798.7848	3015.2131	3017.8009	3053.2721	3055.6916	3066.0398	3113.3965	3600.7611	3600.8772	3738.9007	3738.9277
NC(=O)CCCC(N)=O	NC(=O)CCCC(=O)N	
InChI=1S/C5H10N2O2/c6-4(8)2-1-3-5(7)9/h1-3H2,(H2,6,8)(H2,7,9)	InChI=1S/C5H10N2O2/c6-4(8)2-1-3-5(7)9/h1-3H2,(H2,6,8)(H2,7,9)
