15
gdb 82694	2.99241	1.57372	1.24746	1.9599	72.15	-0.2353	0.0265	0.2618	991.3566	0.111665	-420.522274	-420.514967	-420.514023	-420.553837	29.158	
O	 0.1520212343	 1.4206705904	 0.082492397	-0.436151
C	 0.026100092	 0.0395665125	 0.0194868716	 0.1126
C	 0.2063050337	-0.7598240961	 1.3367219555	-0.011386
O	-0.7559195847	-0.099675555	 2.2212343425	-0.305678
C	-1.7713259062	-0.737940706	 1.4446284517	 0.039056
C	-0.883776744	-1.7698021253	 0.8555806823	-0.197311
C	-1.3747142666	-0.6135778986	-0.048137386	 0.155058
C	-2.3039904406	-0.643701693	-1.1172942805	 0.103851
C	-3.0905569622	-0.6621192502	-2.0287017201	-0.391837
H	-0.2757033886	 1.6847258899	 0.9089709716	 0.289525
H	 0.6647170151	-0.3362642462	-0.7827166447	 0.106527
H	 1.1686403979	-0.9518719121	 1.8035003422	 0.100053
H	-2.7926817929	-0.7491486014	 1.7988485777	 0.130478
H	-0.9388646146	-2.8409222466	 0.7329851457	 0.121781
H	-3.7804055325	-0.6756784921	-2.8355751267	 0.183434
128.7227	152.2054	223.4987	314.8196	448.2217	488.2478	503.8949	527.3664	581.0955	618.0833	648.6872	674.7964	741.7315	781.8133	819.0457	850.0891	899.8573	932.8578	953.9491	965.1475	996.7759	1034.8024	1123.9646	1127.5936	1165.1226	1195.283	1223.8518	1262.3657	1278.8402	1299.7185	1392.1353	1441.3052	2231.5963	3105.3651	3163.5409	3222.2772	3238.2973	3503.0039	3755.0958
OC1C2OC3C2C13C#C	O[C@H]1[C@H]2O[C@@H]3[C@H]2[C@]13C#C	
InChI=1S/C7H6O2/c1-2-7-3-4(5(7)8)9-6(3)7/h1,3-6,8H	InChI=1S/C7H6O2/c1-2-7-3-4(5(7)8)9-6(3)7/h1,3-6,8H/t3-,4-,5-,6+,7+/m0/s1
