19
gdb 8538	3.34266	2.24505	1.62722	1.2317	76.36	-0.2036	0.0935	0.2971	861.2294	0.164771	-327.829152	-327.821623	-327.820679	-327.86046	29.486	
C	-0.7057504262	 1.4258301646	-0.4174650212	-0.332833
N	-0.4632757733	 0.0232292111	-0.1037902468	-0.106615
C	-1.2215259956	-0.6006558694	 1.0214598291	-0.058368
C	-0.112165161	-1.6774230455	 1.2116033426	-0.047014
C	-0.0517003434	-1.475618102	 2.7305995369	-0.305948
C	-0.3117210974	-0.0454147127	 2.2015055523	 0.329943
C	-0.4528591293	 1.1760379872	 3.0748748112	-0.526666
C	 0.5785956914	-0.3139003227	 0.9116724587	-0.05833
H	 0.0937412839	 1.784187246	-1.0752891573	 0.117513
H	-1.6473480695	 1.5064006278	-0.9717606756	 0.117519
H	-0.7627568452	 2.1047466099	 0.4458780134	 0.097885
H	-2.3044945908	-0.7445916204	 1.0090447294	 0.072742
H	-0.0051857179	-2.5791097924	 0.6106772446	 0.078509
H	-0.8547018036	-1.9296742455	 3.3207881231	 0.089897
H	 0.9163897846	-1.6476077968	 3.2128005915	 0.089893
H	 0.455841233	 1.3232257792	 3.6706465135	 0.120821
H	-0.6335014505	 2.0937665317	 2.5116207967	 0.127505
H	-1.2848128409	 1.0459632006	 3.7772086405	 0.12082
H	 1.6434155118	-0.1156940806	 0.7682367073	 0.072726
131.6336	170.9315	223.3672	238.5892	290.7782	339.2229	425.574	527.2391	648.7196	708.9482	725.6504	811.65	831.9438	852.941	889.4679	898.279	942.5115	982.1824	1017.8797	1059.5404	1073.0254	1117.5969	1126.2179	1135.6646	1150.0248	1158.1796	1177.9701	1179.675	1205.9909	1231.3466	1286.0276	1293.8073	1340.4975	1406.056	1444.7125	1480.5567	1484.5313	1497.805	1500.4288	1511.3061	2994.6565	3026.6871	3033.6671	3061.139	3081.4375	3084.6505	3087.0823	3090.1383	3090.4466	3124.4456	3133.3767
CN1C2C3CC2(C)C13	CN1[C@H]2[C@@H]3C[C@@]2(C)[C@H]13	
InChI=1S/C7H11N/c1-7-3-4-5(7)8(2)6(4)7/h4-6H,3H2,1-2H3	InChI=1S/C7H11N/c1-7-3-4-5(7)8(2)6(4)7/h4-6H,3H2,1-2H3/t4-,5-,6+,7+
