25
gdb 57540	3.38781	0.79364	0.77759	0.9119	90.03	-0.2435	0.0794	0.3229	1671.7361	0.22589	-389.479734	-389.468777	-389.467833	-389.516003	40.974	
C	 0.3462807024	 1.5135846266	 0.2756626709	-0.398639
C	 0.0849389189	 0.0191254329	 0.0167730474	 0.238057
C	 0.5520921385	-0.8125481714	 1.2246854748	-0.399015
C	-1.415582084	-0.2131585662	-0.229455142	-0.411089
C	 0.8438644788	-0.4270379173	-1.2418820753	-0.055271
O	 2.2364848204	-0.2268663223	-1.057027341	-0.257541
C	 3.0035481115	-0.6286582705	-2.1456289552	 0.153252
C	 3.1966345597	 0.3176467538	-3.3044374089	-0.288494
C	 4.3210654583	 0.0513089358	-2.321080444	-0.288954
H	 1.4141770774	 1.7044457742	 0.4060199961	 0.126295
H	-0.0071262335	 2.1261239573	-0.5617968924	 0.101962
H	-0.17695937	 1.8484650539	 1.1776814833	 0.104703
H	 0.0279947835	-0.5025545357	 2.1350347052	 0.104008
H	 0.350695797	-1.8787967131	 1.0698495846	 0.102409
H	 1.6260604516	-0.693642104	 1.3870154941	 0.128575
H	-1.7757156301	 0.3704150225	-1.0842700045	 0.108542
H	-1.6301188247	-1.2692884662	-0.4280581713	 0.108438
H	-2.0007361613	 0.085286897	 0.646617744	 0.112058
H	 0.6426890255	-1.4929960366	-1.4425394718	 0.079085
H	 0.4958961822	 0.142671278	-2.1185568922	 0.083242
H	 2.9382296168	-1.6949252643	-2.3691317165	 0.080943
H	 3.2682449669	-0.0887304909	-4.3073826325	 0.111253
H	 2.7048437236	 1.2816291437	-3.2362123565	 0.118832
H	 4.5532432026	 0.8388117058	-1.6133541459	 0.124408
H	 5.171566848	-0.5397350528	-2.6412903903	 0.11294
50.3374	58.8557	128.5176	146.7825	207.3386	247.7731	257.4112	261.8096	300.3332	331.0948	377.7021	406.5127	422.0836	483.9725	510.8223	748.5079	765.4231	817.3015	838.6848	918.7908	927.3191	941.7151	955.6882	963.0063	972.6849	985.7547	1043.143	1053.439	1071.2754	1084.1699	1103.1717	1128.4314	1192.9002	1200.9143	1228.608	1243.1206	1250.0595	1287.1489	1309.4719	1373.8313	1393.9602	1396.5226	1415.5317	1441.9874	1453.8057	1477.8591	1486.6389	1489.9564	1495.6723	1500.1519	1504.9807	1518.1247	1522.6976	2955.7688	2992.0984	3023.4112	3026.8195	3033.6021	3084.3554	3087.6258	3091.5237	3092.1792	3098.9992	3120.1892	3124.0884	3134.5821	3141.9183	3219.0881	3234.193
CC(C)(C)COC1CC1	CC(C)(C)COC1CC1	
InChI=1S/C8H16O/c1-8(2,3)6-9-7-4-5-7/h7H,4-6H2,1-3H3	InChI=1S/C8H16O/c1-8(2,3)6-9-7-4-5-7/h7H,4-6H2,1-3H3
