15
gdb 96747	3.24592	0.87498	0.69512	4.6935	77.7	-0.2732	-0.0429	0.2303	1532.1931	0.109515	-416.776115	-416.766423	-416.765479	-416.811619	33.106	
C	 0.0890708186	 1.4504195544	 0.1078321295	-0.335252
N	 0.0476119482	 0.0033076781	 0.0788823228	-0.317944
C	-1.0508937321	-0.6168569989	-0.0231017933	 0.288925
O	-1.090725221	-1.9768756691	-0.0503727486	-0.241691
C	 0.1823554967	-2.6105075717	 0.0439791086	-0.202201
C	-0.0331944409	-4.0565189255	 0.0006347162	 0.273224
N	-0.1565916414	-5.2038144477	-0.0298085651	-0.291759
C	-2.3723206333	-0.0654968068	-0.122914409	 0.283917
C	-3.4637372834	 0.4313793554	-0.204623338	-0.408703
H	 0.7176023977	 1.8048504293	-0.7165772952	 0.137122
H	-0.8942265697	 1.9305723758	 0.0346912067	 0.124746
H	 0.5721143388	 1.773948436	 1.0364448975	 0.137123
H	 0.833010214	-2.2994929343	-0.7805676293	 0.167689
H	 0.6875257295	-2.3304232647	 0.9747394721	 0.16769
H	-4.4338323616	 0.8597574598	-0.2774834049	 0.217114
47.3748	103.4098	115.3886	126.6993	167.5406	239.3987	255.4267	313.7424	353.1044	385.9707	481.1808	549.7093	658.5067	660.6218	674.3777	719.4853	812.8353	960.8378	1017.8235	1045.9539	1121.6818	1134.8214	1160.754	1240.8514	1274.3629	1385.7573	1443.4454	1483.1476	1488.0936	1497.66	1723.217	2235.4929	2376.5657	3014.6368	3049.7673	3084.3857	3085.6151	3086.3562	3495.7196
CN=C(OCC#N)C#C	CN=C(OCC#N)C#C	
InChI=1S/C6H6N2O/c1-3-6(8-2)9-5-4-7/h1H,5H2,2H3	InChI=1S/C6H6N2O/c1-3-6(8-2)9-5-4-7/h1H,5H2,2H3
