18
gdb 40040	3.56377	1.47076	1.24848	1.5345	75.48	-0.2427	0.0194	0.2621	1028.7928	0.149607	-401.936379	-401.929229	-401.928285	-401.968286	28.337	
C	-0.2830890212	 1.3906776879	 0.0521356581	-0.314472
C	 1.148641787	 0.9316647962	-0.0945666846	-0.332328
C	 0.0401114106	-0.0722674389	 0.0336584739	 0.380479
C	-0.1564117048	-1.1044720477	 1.1631578779	-0.338413
C	-0.5628476003	-2.1532565579	 0.099028268	 0.088846
O	-1.9734257187	-2.4657552169	 0.0756250956	-0.231043
C	-2.5000455995	-1.6702876969	-0.8928859187	 0.114817
N	-1.7538600253	-0.8972133851	-1.5669350937	-0.256993
C	-0.3969602325	-1.0913212312	-1.0337163908	-0.1124
H	-0.5839546526	 1.8296310388	 0.9982259951	 0.111275
H	-0.7857804496	 1.8025110313	-0.8158658476	 0.13142
H	 1.6260541918	 1.0419849308	-1.0633034626	 0.115804
H	 1.8178083588	 1.0600627064	 0.7508039078	 0.111159
H	 0.7512867905	-1.3621025618	 1.7165857352	 0.107546
H	-0.9550276361	-0.8826668286	 1.876257936	 0.112786
H	-0.0057504805	-3.0899933553	 0.0749535727	 0.092511
H	-3.5722654931	-1.7760310902	-1.0171671335	 0.140743
H	 0.3131105154	-1.2774917709	-1.8436341787	 0.078264
57.0299	194.9908	244.161	308.4182	347.471	459.0944	497.8535	594.3841	733.6678	774.8499	781.8491	847.7644	864.181	873.8651	899.1003	912.6423	947.086	969.177	985.0086	1016.3608	1031.1613	1051.2373	1072.0796	1087.099	1105.828	1156.3707	1188.0948	1205.4882	1235.4101	1264.3587	1270.5325	1289.3164	1320.5062	1354.2008	1378.6863	1463.5828	1471.4409	1500.5179	1686.9081	3052.5483	3071.8317	3102.8014	3113.6843	3120.3036	3130.6617	3201.322	3214.1845	3220.9755
C1CC11CC2OC=NC12	C1CC21C[C@H]1OC=N[C@@H]21	
InChI=1S/C7H9NO/c1-2-7(1)3-5-6(7)8-4-9-5/h4-6H,1-3H2	InChI=1S/C7H9NO/c1-2-7(1)3-5-6(7)8-4-9-5/h4-6H,1-3H2/t5-,6-/m1/s1
