18
gdb 46070	2.95904	1.318	1.13497	4.9993	70.88	-0.2608	0.0527	0.3135	1123.9716	0.149553	-439.122098	-439.114051	-439.113107	-439.155514	30.117	
O	-0.312348481	 0.0324148174	-0.1341577703	-0.39828
C	-0.202031211	 1.2242552492	-0.0616840594	 0.481465
N	-1.1136837087	 2.1365804973	 0.4221433434	-0.366101
C	-0.7578563211	 3.504752653	 0.1020041933	-0.034071
C	 0.7600308935	 3.2987106009	-0.1401718784	-0.087275
O	 0.9116510231	 1.911004098	-0.4599605576	-0.236913
C	-1.478282677	 4.1048734051	-1.098357544	 0.01394
C	-1.8111756263	 3.2946354869	-2.3245712002	-0.266031
C	-2.915265234	 3.7900176844	-1.4228574027	-0.285487
H	-2.0580439613	 1.8294835777	 0.582339077	 0.262201
H	-0.9152017162	 4.1564818625	 0.9693068852	 0.095069
H	 1.1368146665	 3.8912660359	-0.9761379513	 0.126302
H	 1.3464274517	 3.5219309265	 0.7578629505	 0.118175
H	-1.1745510027	 5.1339441769	-1.2767332025	 0.091861
H	-1.6854178066	 3.7612070123	-3.2948576035	 0.119099
H	-1.5981438296	 2.2314749774	-2.312255869	 0.139378
H	-3.4362472303	 3.0521262358	-0.8210839204	 0.10616
H	-3.5499976389	 4.5985370928	-1.7672327701	 0.120504
62.6945	73.	162.064	229.2119	252.5155	398.1388	449.4502	498.514	551.9308	708.8318	734.9276	764.1206	780.3362	808.1803	840.311	912.9834	924.3355	937.6552	1012.065	1037.6804	1061.0775	1080.6834	1087.4402	1094.4579	1139.6043	1157.0813	1195.249	1221.3953	1230.4869	1241.1037	1299.4761	1378.7462	1387.1676	1418.5594	1427.4576	1466.3395	1508.4131	1516.583	1891.1336	3029.0344	3046.8905	3113.5209	3131.5143	3133.6475	3141.948	3211.1027	3228.4375	3668.535
O=C1NC(CO1)C1CC1	O=C1N[C@@H](CO1)C1CC1	
InChI=1S/C6H9NO2/c8-6-7-5(3-9-6)4-1-2-4/h4-5H,1-3H2,(H,7,8)	InChI=1S/C6H9NO2/c8-6-7-5(3-9-6)4-1-2-4/h4-5H,1-3H2,(H,7,8)/t5-/m0/s1
