21
gdb 111459	2.41843	1.54963	1.05812	1.032	85.22	-0.2188	0.0197	0.2385	1202.8192	0.182118	-387.078996	-387.069885	-387.068941	-387.11315	34.198	
C	-0.0148106883	 1.4499989093	-0.1670543952	-0.23538
O	 0.0095226616	 0.0681042441	 0.1044501012	-0.248534
C	-1.267266776	-0.5723092342	 0.0801304699	 0.02226
C	-1.2008128516	-1.9260171599	-0.6194561345	-0.06091
C	-0.2749184442	-2.9690484459	-0.0440580825	-0.27201
C	-1.7422605448	-2.9623392567	 0.3395935181	-0.077323
C	-2.0550978023	-2.2094588052	 1.5906355508	-0.190128
C	-1.7724485206	-0.9078597523	 1.4855280417	 0.310304
C	-1.8469160136	 0.1359660898	 2.5529381414	-0.497115
H	 1.0221831872	 1.79678597	-0.1585391356	 0.124512
H	-0.448616916	 1.6666764905	-1.1559523786	 0.103315
H	-0.5783420025	 2.0216417717	 0.5855916702	 0.102401
H	-1.9803258426	 0.0892932276	-0.4382362378	 0.062993
H	-1.4209901257	-1.9691675313	-1.6789572486	 0.081099
H	 0.0659045719	-3.7405084818	-0.727081016	 0.105645
H	 0.4491092882	-2.6659408579	 0.7037253722	 0.122193
H	-2.3821752064	-3.772564418	 0.0090805771	 0.084172
H	-2.4163203737	-2.6934669835	 2.492526223	 0.087955
H	-2.2013500418	-0.2819772305	 3.49919398	 0.120186
H	-0.8612229485	 0.5839532512	 2.7266228348	 0.136656
H	-2.5214016602	 0.9547672027	 2.2691188383	 0.11771
50.1851	104.419	163.5019	199.4719	209.2124	235.0399	333.8741	358.4353	438.6336	462.6444	557.7057	641.0794	696.3164	798.1784	823.2162	847.5963	890.1553	935.8433	946.5729	985.9639	1013.5896	1021.4755	1055.9743	1061.1521	1068.3457	1096.8381	1104.859	1142.9437	1180.1482	1185.8642	1215.0711	1217.3869	1283.5812	1319.4829	1350.5125	1377.565	1381.0206	1408.4769	1475.7426	1478.5019	1480.5086	1486.5761	1495.8609	1511.8339	1714.0312	2959.8443	2975.5471	3014.061	3020.2238	3065.5926	3105.3879	3108.793	3129.5221	3169.337	3179.9518	3184.9213	3222.1201
COC1C2CC2C=C1C	CO[C@H]1[C@H]2C[C@H]2C=C1C	
InChI=1S/C8H12O/c1-5-3-6-4-7(6)8(5)9-2/h3,6-8H,4H2,1-2H3	InChI=1S/C8H12O/c1-5-3-6-4-7(6)8(5)9-2/h3,6-8H,4H2,1-2H3/t6-,7+,8-/m1/s1
