14
gdb 49376	2.4061	1.40974	0.9676	3.515	71.13	-0.2711	-0.0401	0.231	1157.8458	0.10086	-432.891851	-432.883554	-432.88261	-432.925593	28.891	
N	 0.0584932906	 1.2731549151	 0.0011155341	-0.40292
C	-0.0188236466	 0.0116862222	-0.060470909	 0.071752
N	-1.2391190727	-0.6557329098	-0.0322901343	-0.094879
C	-1.5061578974	-2.1035648349	-0.0255802968	-0.131119
C	-3.0317670037	-1.7676328516	-0.005479276	-0.396463
C	-2.5997745172	-0.2873821034	 0.0200285796	 0.44776
O	-3.1511831194	 0.7658578338	 0.071890786	-0.303311
C	-1.0130191456	-2.8288653665	-1.1960828061	 0.288738
N	-0.6105906782	-3.4067692581	-2.1120081029	-0.30666
H	 1.0322855849	 1.5690534095	-0.0423866957	 0.240708
H	 0.817931896	-0.6926706559	-0.1462309685	 0.116466
H	-1.1515932054	-2.603748141	 0.8812713312	 0.146383
H	-3.5766378512	-2.0592425159	-0.9036573911	 0.166766
H	-3.5642365543	-2.1060319436	 0.8837643293	 0.15678
79.6444	88.784	133.1597	177.2713	207.179	273.2657	435.6751	479.6164	513.5344	537.0443	607.752	747.6426	770.3039	818.0006	860.432	988.2603	1022.1055	1046.1253	1064.8804	1098.1803	1127.2644	1201.0958	1236.7804	1249.2305	1363.0694	1381.031	1422.8655	1458.082	1723.6124	1919.8332	2361.8137	3045.1517	3062.2681	3101.2537	3163.9793	3506.3119
N=CN1C(CC1=O)C#N	[NH][CH]N1[C@@H](CC1=O)C#N	
InChI=1S/C5H5N3O/c6-2-4-1-5(9)8(4)3-7/h3-4,7H,1H2	InChI=1S/C5H5N3O/c6-2-4-1-5(9)8(4)3-7/h3-4,7H,1H2/t4-/m0/s1
