20
gdb 61307	5.44941	0.70696	0.66225	4.4321	81.14	-0.2417	0.0184	0.2601	1673.0871	0.170781	-399.291182	-399.281567	-399.280623	-399.326289	34.579	
C	-0.0863503579	 1.4907133194	 0.0412558879	-0.352805
N	-0.0148202899	 0.0329455942	 0.0082284454	-0.065763
C	 0.7059050314	-0.5059087774	 1.1526854009	-0.278452
C	 2.1174612757	-0.1017455394	 1.1592827771	 0.276387
N	 3.2275631316	 0.2160863954	 1.1834737059	-0.306398
C	-1.3197976022	-0.6079015789	-0.1349460214	-0.159027
C	-1.9896135309	-0.2785840165	-1.449124191	 0.007028
C	-3.4525158472	-0.4697818057	-1.5964123731	-0.246887
N	-2.8813480903	 0.8870853242	-1.5873462316	-0.309694
H	 0.9225630138	 1.9058827398	 0.1048325997	 0.150168
H	-0.5492643757	 1.858565385	-0.8756659256	 0.157662
H	-0.669539901	 1.8678149138	 0.9036799089	 0.09074
H	 0.2668579867	-0.2089827813	 2.1260897619	 0.127086
H	 0.6712127445	-1.6003499207	 1.1130348971	 0.152178
H	-1.1620147275	-1.6927383244	-0.082013214	 0.112079
H	-2.0088309091	-0.3450818107	 0.6959437676	 0.072513
H	-1.3553764311	-0.440289402	-2.3177382207	 0.107981
H	-3.8663905701	-0.7903602487	-2.5477390327	 0.125154
H	-4.0114205775	-0.8041708246	-0.7252748129	 0.112074
H	-3.0346950634	 1.3108996685	-0.6745363295	 0.227974
54.5899	82.8271	119.8288	137.7954	214.4479	269.6044	304.4057	358.2721	360.2466	391.3287	417.4717	458.082	608.9031	803.7059	830.9125	859.8537	928.5873	946.9616	959.1396	992.3046	1019.1542	1058.5544	1059.6592	1127.9649	1144.755	1159.5146	1182.5232	1201.1372	1245.8913	1257.8604	1291.2386	1304.1691	1320.0729	1364.2547	1397.1956	1436.606	1465.5353	1470.6253	1490.3618	1502.6825	1508.3829	1514.4442	2366.6557	2879.9227	2909.4666	2925.0091	3035.5974	3064.0086	3092.5747	3107.5391	3139.9098	3143.03	3193.8041	3484.9186
CN(CC#N)CC1CN1	CN(CC#N)C[C@H]1CN1	
InChI=1S/C6H11N3/c1-9(3-2-7)5-6-4-8-6/h6,8H,3-5H2,1H3	InChI=1S/C6H11N3/c1-9(3-2-7)5-6-4-8-6/h6,8H,3-5H2,1H3/t6-/m1/s1
