20
gdb 32895	5.03465	0.73756	0.68258	2.7082	83.78	-0.1995	0.0449	0.2443	1675.9396	0.171087	-403.178493	-403.168772	-403.167827	-403.214207	34.651	
C	-0.0940850581	 1.4762044828	-0.0408694529	-0.334245
N	-0.0628850346	 0.0301656527	-0.0132680398	 0.027631
C	 0.0792789492	-0.7866190822	-1.1067387387	-0.086617
C	 0.159414167	-2.0869383998	-0.6667628389	-0.269838
C	 0.0661164048	-2.0693449428	 0.7574433278	 0.253827
C	 0.1159184702	-3.2491714194	 1.6830734108	-0.299728
C	 1.5230127088	-3.8341573238	 1.816875969	-0.05804
O	 1.4520752458	-4.9481248599	 2.6955191018	-0.420692
C	-0.0644252192	-0.7456329013	 1.1204410949	-0.199054
H	 0.9086627013	 1.9099980055	 0.0543843804	 0.135887
H	-0.5320326132	 1.8158739619	-0.982522497	 0.138911
H	-0.7132956796	 1.8484725342	 0.7792127508	 0.139543
H	 0.1029289385	-0.3698590593	-2.1016182445	 0.111081
H	 0.2481183785	-2.9619203001	-1.2937389751	 0.089791
H	-0.2335732035	-2.9656008058	 2.6818724119	 0.101722
H	-0.5494240164	-4.0480167519	 1.3339673801	 0.1075
H	 1.8950822501	-4.1298574224	 0.8231722113	 0.085857
H	 2.2045831372	-3.0591136583	 2.2017385532	 0.083524
H	 2.3346636377	-5.3198650491	 2.779801887	 0.283195
H	-0.1663496245	-0.293108861	 2.0951081679	 0.109744
42.94	86.3899	92.0561	106.9871	182.8356	254.8614	266.0333	343.7992	354.7741	406.9218	615.2549	635.881	673.3335	691.3086	747.8756	774.0225	797.1507	812.4083	986.238	1011.739	1017.0049	1052.8337	1073.6796	1078.9424	1108.006	1148.5195	1190.8536	1211.5784	1237.8876	1275.3899	1311.6814	1327.1968	1384.3902	1404.1614	1420.3814	1452.5463	1454.945	1488.8506	1489.1406	1514.8966	1525.1534	1545.8509	1602.8664	2968.8528	2997.1622	3026.1721	3032.5057	3077.458	3095.2453	3128.6648	3235.3215	3246.4598	3259.7385	3831.3433
CN1C=CC(CCO)=C1	Cn1ccc(CCO)c1	
InChI=1S/C7H11NO/c1-8-4-2-7(6-8)3-5-9/h2,4,6,9H,3,5H2,1H3	InChI=1S/C7H11NO/c1-8-4-2-7(6-8)3-5-9/h2,4,6,9H,3,5H2,1H3
