20
gdb 14058	3.11144	1.57951	1.39445	2.0284	75.09	-0.2378	0.0704	0.3082	1013.4072	0.176189	-348.971112	-348.962428	-348.961484	-349.00417	31.811	
C	-0.0785734566	 0.8126772252	-2.0919800718	-0.411171
C	 0.0358560727	-0.3177339645	-1.0913672248	-0.083498
C	 1.3213109277	-0.6379544864	-0.3441869402	-0.083495
C	 2.603596802	 0.1445157926	-0.5329479511	-0.411171
C	 0.1441286445	-0.0537646522	 0.3834507643	 0.274282
C	 0.0421681297	 1.275414112	 1.1285236615	-0.137524
O	-0.7252023445	 0.6499323246	 2.1806975522	-0.277199
C	-0.6694754106	-0.6399571509	 1.5319743551	-0.140685
H	 0.489396696	 1.695641413	-1.7858547185	 0.117669
H	 0.2904929744	 0.5085246489	-3.0775776055	 0.119417
H	-1.1225737162	 1.1231090026	-2.210735426	 0.120811
H	-0.5601615407	-1.190667177	-1.3526682821	 0.081932
H	 1.4831116166	-1.6996701143	-0.1649984378	 0.081932
H	 2.4201629242	 1.2146568165	-0.663632835	 0.117669
H	 3.2601908385	 0.0313436911	 0.3368129592	 0.120811
H	 3.1556278485	-0.2052456257	-1.4121804987	 0.119417
H	 0.9854142603	 1.694637104	 1.5040740565	 0.098189
H	-0.5248523989	 2.0708457216	 0.6262523814	 0.098189
H	-1.6702147278	-1.0126664076	 1.273189557	 0.097211
H	-0.1582484199	-1.3893313637	 2.1520112345	 0.097212
95.258	156.9557	159.0402	174.2439	183.5911	242.3883	256.4958	427.3239	446.3223	518.6371	573.2162	773.5169	776.5189	865.1714	915.6467	950.4641	977.985	1016.3458	1023.6422	1030.5458	1041.9596	1097.2125	1130.1389	1141.8325	1152.7543	1156.4621	1168.3037	1178.3384	1222.9538	1308.0389	1314.5964	1366.9344	1383.5254	1413.4005	1421.8802	1477.6892	1486.3998	1494.2293	1499.2291	1513.0483	1518.7973	1538.4773	2989.2881	3001.5338	3029.5562	3032.3727	3034.0301	3035.3692	3088.3227	3089.817	3097.2717	3107.9189	3115.3704	3127.6664
CC1C(C)C11COC1	C[C@H]1[C@@H](C)C21COC2	
InChI=1S/C7H12O/c1-5-6(2)7(5)3-8-4-7/h5-6H,3-4H2,1-2H3	InChI=1S/C7H12O/c1-5-6(2)7(5)3-8-4-7/h5-6H,3-4H2,1-2H3/t5-,6+
