18
gdb 119366	2.74157	1.36362	1.09755	2.4459	72.89	-0.2525	-0.0053	0.2473	1146.7638	0.146837	-439.007978	-438.999371	-438.998427	-439.041777	31.454	
C	-0.6419837511	 0.7557927691	-0.5317847979	-0.25897
O	 0.5611186223	 0.3690132838	-1.1773348197	-0.228914
C	 1.2830001988	-0.6288830515	-0.4919083046	-0.2283
C	 0.7914713599	-2.0166733564	-0.8215285649	 0.173558
C	 0.7457687876	-2.7448393059	-2.2079077272	-0.268799
C	 0.3519828787	-3.8330333671	-1.1609912894	-0.151193
N	 1.4136281523	-3.2791601188	-0.2061827841	-0.362556
C	-0.5496069832	-2.7454594469	-0.5557837536	 0.4994
O	-1.6558780451	-2.5505080698	-0.1679225651	-0.327626
H	-1.3408465236	-0.0812050549	-0.4088804553	 0.145051
H	-0.4362881065	 1.1873428923	 0.4595266982	 0.107858
H	-1.1029115295	 1.5212361324	-1.1603885994	 0.127245
H	 2.3294151157	-0.5327598431	-0.8070806873	 0.109403
H	 1.2497175608	-0.4816798382	 0.5987341366	 0.110015
H	 0.0155700517	-2.4252659625	-2.9567789866	 0.122581
H	 1.7377733641	-2.901738941	-2.6423285592	 0.109926
H	 0.192110364	-4.8997766012	-1.2990756846	 0.105679
H	 2.3226032131	-3.4174029503	-0.6625613959	 0.215641
57.9111	125.5708	141.5992	190.5993	206.3199	231.4855	369.2168	462.6127	472.4563	548.3272	676.1042	705.5874	779.86	796.9451	806.0353	902.8579	922.8959	949.9323	979.266	1036.81	1046.4222	1083.0654	1114.9247	1143.1679	1167.0179	1185.8246	1194.4247	1222.6977	1265.2986	1289.3137	1313.6293	1357.1952	1397.1833	1477.5338	1488.9087	1496.8276	1499.9252	1517.1511	1932.0121	2985.9136	2992.3555	3044.5836	3051.0649	3059.2317	3118.3453	3121.678	3154.1245	3371.5617
COCC12CC(N1)C2=O	COC[C@@]12C[C@@H](N1)C2=O	
InChI=1S/C6H9NO2/c1-9-3-6-2-4(7-6)5(6)8/h4,7H,2-3H2,1H3	InChI=1S/C6H9NO2/c1-9-3-6-2-4(7-6)5(6)8/h4,7H,2-3H2,1H3/t4-,6-/m1/s1
