19
gdb 71581	3.07567	1.4836	1.47794	0.8761	74.46	-0.2518	0.0749	0.3267	984.9622	0.1601	-422.99344	-422.985983	-422.985039	-423.024601	31.47	
O	-0.1353731768	 1.3537577904	-0.0690858339	-0.492137
C	-0.0228294526	-0.0316059901	 0.0104537787	 0.411881
C	 0.4378795625	-0.7788100498	 1.2983215323	-0.307581
C	-0.3928929766	-1.918261663	 0.6925556455	-0.103477
C	-1.3566833397	-0.8866072789	 0.0319195688	-0.066821
C	-1.4421115886	-1.7474022984	-1.2375795652	-0.307952
C	 0.0143351927	-2.1252253379	-0.8438942094	 0.412241
O	 0.6806491129	-3.2459376266	-1.3260067098	-0.487845
C	 0.7510468474	-0.7995617799	-1.0869579042	-0.314387
H	 0.7500326188	 1.7286499448	-0.1313753811	 0.278341
H	 1.5118867173	-0.912429515	 1.4653732938	 0.087312
H	-0.0377928067	-0.3747184592	 2.1968019433	 0.099965
H	-0.7437671082	-2.7891711004	 1.2453646711	 0.062367
H	-2.2133624078	-0.4573642517	 0.5467777967	 0.076301
H	-2.1436225269	-2.5771933015	-1.0944971135	 0.086395
H	-1.6079172919	-1.2835611661	-2.214799446	 0.097066
H	 0.1290978431	-4.0185245039	-1.1646976322	 0.277274
H	 0.5864990513	-0.4065614905	-2.093720501	 0.098203
H	 1.8253069598	-0.8629500824	-0.8900435639	 0.092854
215.2208	226.719	267.8802	310.0193	347.2606	402.512	467.9892	474.4991	492.2238	551.1363	653.7708	663.9938	723.8606	811.8732	861.1235	888.8164	900.6116	903.5083	971.7809	979.5457	985.2592	1006.1689	1025.6041	1089.0456	1093.5797	1110.721	1147.0263	1165.0617	1181.6753	1186.4373	1218.0652	1225.351	1233.7736	1277.0448	1303.0269	1332.6951	1371.3163	1397.0777	1485.0056	1497.9626	1522.7646	3035.8589	3039.3368	3054.6491	3092.058	3100.8036	3108.1688	3118.8797	3145.0913	3801.9823	3810.0739
OC12CC3C1CC3(O)C2	O[C@@]12C[C@H]3[C@@H]1C[C@@]3(O)C2	
InChI=1S/C7H10O2/c8-6-1-4-5(6)2-7(4,9)3-6/h4-5,8-9H,1-3H2	InChI=1S/C7H10O2/c8-6-1-4-5(6)2-7(4,9)3-6/h4-5,8-9H,1-3H2/t4-,5-,6+,7+/m0/s1
