16
gdb 34633	2.43896	1.6982	1.09619	3.1456	78.69	-0.2338	-0.0505	0.1833	1076.1303	0.124249	-400.752662	-400.744758	-400.743814	-400.785633	29.47	
N	 0.0813730532	-1.1188046134	-0.1587549721	-0.340946
C	 0.0092903959	 0.0351456335	-0.0909380082	 0.216318
C	-0.025467957	 1.451338925	-0.0132221618	 0.160643
C	-1.1026287524	 2.2287588866	 0.1376646909	-0.230239
C	-0.6718010958	 3.66514273	 0.1688350588	-0.127449
O	 0.7453720265	 3.6366797359	 0.022327957	-0.30669
C	 1.1952170079	 2.3027931344	-0.0934977878	 0.366067
C	 2.520547546	 1.9374186549	 0.5155103215	-0.328808
C	 2.3663930315	 2.0163336913	-0.9919229169	-0.328809
H	-2.1286210422	 1.899001161	 0.2253424915	 0.136284
H	-1.1242650672	 4.2513031098	-0.6461440643	 0.124217
H	-0.9441176859	 4.1590513279	 1.1145628942	 0.124215
H	 3.0526879992	 2.7436838143	 1.0074345304	 0.133115
H	 2.6290893289	 0.9614502088	 0.9762767374	 0.134482
H	 2.3693715396	 1.0944044312	-1.5634469657	 0.134484
H	 2.796771412	 2.8746921889	-1.4951339349	 0.133116
56.2343	130.0096	148.8272	248.3158	306.1152	355.9051	476.4845	480.0913	549.9344	632.7547	651.6646	762.4462	782.2559	834.3107	866.7102	896.4828	934.763	948.6318	979.8048	1040.1863	1054.1596	1072.3699	1090.5243	1138.0671	1192.327	1196.396	1233.0996	1298.6998	1379.1969	1384.1952	1447.2396	1487.4151	1513.2554	1680.3047	2343.8906	2979.6383	2997.4209	3135.1154	3136.4691	3222.4826	3236.2401	3238.4313
N#CC1=CCOC11CC1	N#CC1=CCOC21CC2	
InChI=1S/C7H7NO/c8-5-6-1-4-9-7(6)2-3-7/h1H,2-4H2	InChI=1S/C7H7NO/c8-5-6-1-4-9-7(6)2-3-7/h1H,2-4H2
