17
gdb 37000	3.28217	2.40112	2.12014	1.3583	79.59	-0.1948	-0.0223	0.1725	746.4796	0.139017	-347.462171	-347.45681	-347.455866	-347.491277	24.855	
C	 0.0344669233	 1.4736247029	-0.0011640496	-0.094574
C	 1.3490185881	 1.7990324345	 0.1101170343	 0.008303
C	 2.2426956162	 1.8549777603	-1.096062016	-0.118782
C	 2.0937860177	 0.3262579581	-1.5790438999	-0.054772
C	 1.0636084633	-0.5745953446	-0.9367529956	-0.068925
C	-0.0489782539	 0.0245290833	 0.0910283033	-0.089752
C	 1.2827103552	-0.5489193624	 0.5480146872	-0.081044
C	 2.2147487665	 0.6441762714	 0.7033122266	-0.099544
C	 3.1214171074	 0.7635485431	-0.5599704919	-0.085256
H	-0.6765393377	 2.0443080201	-0.5916128383	 0.094415
H	 2.4483009551	 2.6270975428	-1.8279952343	 0.091144
H	 2.3719487561	 0.1516512572	-2.6117707263	 0.085196
H	 0.75966113	-1.4778190837	-1.4504188679	 0.091048
H	-0.9662300436	-0.5490156519	 0.1788095759	 0.085511
H	 1.3306449165	-1.4385321409	 1.1637401065	 0.084303
H	 2.6801593941	 0.8280852575	 1.6710921857	 0.071569
H	 4.1959442855	 0.6351778123	-0.6206938698	 0.081161
395.8164	443.2784	529.1304	549.3181	606.4108	673.8037	696.3308	720.0182	759.1662	768.7762	799.1077	822.26	829.7626	879.2596	887.353	916.4417	927.644	955.7131	974.8325	1007.2171	1031.191	1036.6888	1062.5481	1065.1829	1076.313	1096.1299	1116.4292	1146.4965	1229.2268	1241.0184	1247.9092	1259.8413	1311.8569	1318.8332	1343.8072	1368.3056	1557.3537	3115.6292	3156.7081	3168.7288	3171.1171	3179.8967	3184.7053	3190.4733	3203.2774
C1=C2C3C4C5C1C5C2C34	[CH]1[C]2[C@@H]3[C@@H]4[C@@H]5[C@H]1[C@@H]5[C@H]2[C@H]34	
InChI=1S/C9H8/c1-2-4-5(2)8-7-3(1)6(4)9(7)8/h1-2,4-9H	InChI=1S/C9H8/c1-2-4-5(2)8-7-3(1)6(4)9(7)8/h1-2,4-9H/t2-,4+,5-,6+,7-,8+,9-/m1/s1
