20
gdb 30721	2.84722	1.19254	0.90754	1.9186	83.43	-0.1781	0.0506	0.2287	1329.4617	0.169952	-403.192963	-403.182753	-403.181809	-403.228549	36.809	
C	 0.001283453	 1.6164642936	 0.2374179013	-0.361458
C	-0.0191837891	 0.0971882926	-0.0175880566	-0.300652
C	-1.394636435	-0.4905987695	-0.0774934573	 0.239945
C	-2.2076553445	-0.802214177	-1.1556187978	 0.073512
C	-1.9041248364	-0.6630115099	-2.6167069046	-0.539149
C	-3.4331816503	-1.295726877	-0.613507338	 0.252005
O	-4.5237810597	-1.7308353929	-1.3151437808	-0.450549
C	-3.3487705128	-1.2752036023	 0.7561186146	-0.187454
N	-2.0976136477	-0.7782207079	 1.0643267337	-0.308172
H	 1.0281695779	 1.9941854948	 0.2814681961	 0.109343
H	-0.5274090885	 2.1506832656	-0.5575800413	 0.123311
H	-0.4908503348	 1.8639442339	 1.183537434	 0.112493
H	 0.4992687272	-0.1180314909	-0.95777315	 0.111111
H	 0.5628632504	-0.407747662	 0.7655230928	 0.098443
H	-2.0617220762	-1.6044006918	-3.1610132785	 0.118321
H	-2.5272178359	 0.0989944414	-3.104849282	 0.121823
H	-0.8629288979	-0.3737775517	-2.7834185721	 0.126416
H	-4.3389007602	-1.6258633151	-2.2528224318	 0.292985
H	-4.0523102786	-1.5742292666	 1.5137542868	 0.114269
H	-1.7408534109	-0.6679218174	 1.9965166415	 0.253458
38.7701	94.2401	112.3622	176.6959	200.4136	217.725	251.6208	298.4731	305.0258	351.5099	443.9622	501.7271	563.3694	631.4086	677.5645	702.1	718.9842	743.013	785.9513	930.0533	969.0886	1031.1331	1059.415	1078.3575	1113.3003	1134.0877	1169.8005	1228.2725	1272.7645	1313.9687	1352.1345	1356.9104	1406.8273	1416.7007	1456.1071	1477.9036	1485.1951	1495.02	1500.5109	1503.8696	1508.789	1574.1587	1667.067	3001.228	3013.6054	3033.3716	3039.1689	3067.9794	3103.0831	3104.4915	3112.5393	3280.4532	3688.6458	3839.3517
CCC1=C(C)C(O)=CN1	CCc1c(C)c(O)c[nH]1	
InChI=1S/C7H11NO/c1-3-6-5(2)7(9)4-8-6/h4,8-9H,3H2,1-2H3	InChI=1S/C7H11NO/c1-3-6-5(2)7(9)4-8-6/h4,8-9H,3H2,1-2H3
