15
gdb 29382	5.88889	0.91932	0.8008	2.0929	72.77	-0.1944	0.0193	0.2137	1340.0163	0.114591	-413.042731	-413.034366	-413.033422	-413.076774	30.371	
N	-0.5765008905	 1.2304143554	 0.8517389093	-0.597347
C	-0.1802660048	 0.0351811927	 0.2511014247	 0.289127
C	-0.8480166646	-0.7460665984	-0.664124913	-0.188045
N	-0.0273231157	-1.8482764635	-0.8534200019	-0.278905
C	 1.0611791892	-1.6821174848	-0.0674511765	 0.381013
C	 2.1894962888	-2.6725481524	 0.0294526429	-0.456868
C	 2.0621160314	-3.7557539477	-0.9427904534	 0.266539
N	 1.9164922092	-4.5967290153	-1.7216257417	-0.310739
N	 1.0061095752	-0.5552545411	 0.613021991	-0.363266
H	 0.2184841679	 1.7205567582	 1.2404114622	 0.250123
H	-1.1044130751	 1.8386529503	 0.2410468458	 0.243511
H	-1.7878703624	-0.63702274	-1.1762971102	 0.122582
H	-0.1969066719	-2.6237686861	-1.4736157874	 0.280337
H	 3.1456558227	-2.1598108915	-0.1245881965	 0.181575
H	 2.2310058108	-3.1052029858	 1.0368240448	 0.180364
22.6582	115.0293	188.8376	226.3637	275.5008	331.8141	376.1762	429.946	500.4744	534.3156	638.299	663.6021	678.0796	706.4605	753.3448	777.8118	945.0994	949.5189	1010.3308	1031.5066	1103.7425	1115.1373	1204.4914	1278.9313	1304.576	1324.6371	1416.0169	1459.008	1504.7498	1554.2012	1621.3272	1650.8167	2365.1455	3037.8013	3072.2123	3286.0029	3548.5269	3645.1264	3652.1344
NC1=CNC(CC#N)=N1	Nc1c[nH]c(CC#N)n1	
InChI=1S/C5H6N4/c6-2-1-5-8-3-4(7)9-5/h3H,1,7H2,(H,8,9)	InChI=1S/C5H6N4/c6-2-1-5-8-3-4(7)9-5/h3H,1,7H2,(H,8,9)
