17
gdb 106759	2.32231	1.51333	1.0896	3.8402	69.65	-0.2475	-0.0182	0.2292	1119.6483	0.134055	-458.941101	-458.932112	-458.931167	-458.975404	32.958	
O	-0.0165798211	 1.5203057591	-0.3355619086	-0.416352
C	 0.071684023	 0.1539217221	 0.0374107186	-0.183572
C	-1.290149932	-0.4863980613	 0.054960993	 0.149411
C	-1.9646681527	-1.1241898677	-1.1675782808	-0.382244
C	-1.845706938	-1.9364254233	 0.0734526306	 0.332792
O	-1.0834995463	-3.0796447049	 0.1745915809	-0.454403
C	-2.9548725431	-1.5464733796	 1.072745744	-0.422678
C	-2.3511226166	-0.1190212985	 1.039902221	 0.388186
O	-2.5339508876	 0.8776045266	 1.6882332261	-0.333617
H	-0.5976165813	 1.94470762	 0.30758442	 0.297379
H	 0.7237424818	-0.3346190459	-0.6930567685	 0.115529
H	 0.5427924789	 0.04271722	 1.02599071	 0.102166
H	-2.9264862407	-0.7708268927	-1.5299500527	 0.122854
H	-1.246662894	-1.3631765275	-1.9470492068	 0.130721
H	-1.4678492614	-3.7582235741	-0.391362876	 0.295159
H	-3.9964241214	-1.6780769068	 0.7636531616	 0.117875
H	-2.8044347375	-1.9934143855	 2.0599528575	 0.140794
41.9979	111.8165	123.0913	199.0725	241.8842	274.2069	368.6762	409.7352	440.815	481.1573	526.7515	573.8674	638.4162	664.2056	762.5412	817.9928	873.8585	946.6531	977.405	995.0564	1023.9137	1059.6476	1082.3508	1099.6491	1123.0206	1196.0422	1204.1835	1254.5895	1307.2037	1355.953	1380.6003	1404.6022	1432.4855	1454.3581	1498.5941	1508.3447	1861.8067	2987.9997	3051.4685	3079.7753	3110.3569	3111.5515	3200.7469	3787.2084	3797.886
OCC12CC1(O)CC2=O	OC[C@@]12C[C@]1(O)CC2=O	
InChI=1S/C6H8O3/c7-3-5-2-6(5,9)1-4(5)8/h7,9H,1-3H2	InChI=1S/C6H8O3/c7-3-5-2-6(5,9)1-4(5)8/h7,9H,1-3H2/t5-,6-/m1/s1
