17
gdb 110819	2.29284	1.47549	1.0808	2.7728	72.32	-0.2532	0.0049	0.2582	1129.6292	0.136262	-417.955101	-417.94664	-417.945696	-417.988553	31.079	
O	 0.0039392691	 0.6147140922	-1.5288263262	-0.421771
C	 0.0129500804	 0.1326651308	-0.1915693722	-0.130622
C	-1.3267755695	-0.54081085	 0.0027611518	 0.031351
C	-1.6301804236	-1.9687394036	-0.191774905	-0.028243
C	-0.4985049607	-2.8824287358	 0.2719972265	-0.286026
C	-0.6544994962	-2.207983703	 1.6656850532	-0.098119
C	 0.4933727159	-1.5702749859	 2.3011949623	 0.300449
N	 1.4050988829	-1.0738415801	 2.8108133382	-0.335263
N	-1.7742614135	-1.3065459946	 1.1887527585	-0.174294
H	 0.8065975775	 1.1269361906	-1.6644171701	 0.292968
H	 0.8540874383	-0.5508375315	-0.0231969281	 0.104352
H	 0.1118365024	 0.9520211484	 0.5358079756	 0.114712
H	-2.1349760189	 0.1208579438	-0.3024921482	 0.117998
H	-2.5026514985	-2.3073883048	-0.739606423	 0.109525
H	-0.7657953018	-3.9386993444	 0.3005754717	 0.129348
H	 0.4604414966	-2.7723432057	-0.2385097116	 0.132204
H	-1.0919803004	-2.8988659165	 2.3906860664	 0.141431
71.0967	121.4709	151.9611	217.4924	237.8143	278.6535	322.6117	455.769	491.8203	526.578	593.2198	734.0205	748.62	797.1834	832.2542	926.3852	963.8963	978.2681	1019.0333	1062.5756	1068.2965	1075.653	1087.2585	1148.3178	1151.4139	1223.9885	1246.9667	1257.6481	1272.2567	1283.3344	1344.5792	1362.3134	1426.2503	1486.8288	1491.2403	1523.3323	2348.5162	2997.4448	3040.8441	3079.395	3079.4885	3138.2555	3139.4159	3176.9468	3831.2867
OCC1C2CC(C#N)N12	OC[C@H]1[C@H]2C[C@@H](C#N)N12	
InChI=1S/C6H8N2O/c7-2-4-1-5-6(3-9)8(4)5/h4-6,9H,1,3H2	InChI=1S/C6H8N2O/c7-2-4-1-5-6(3-9)8(4)5/h4-6,9H,1,3H2/t4-,5+,6-,8?/m0/s1
