19
gdb 41154	2.85644	1.96502	1.47201	1.9711	74.59	-0.2301	0.0707	0.3009	936.0978	0.161524	-422.986207	-422.97938	-422.978435	-423.017077	28.455	
C	-0.0552189622	 1.523442999	 0.0534413569	-0.267052
C	 1.5055981677	 1.579049656	-0.0981407579	-0.34622
C	 1.4236971526	 0.1713248764	-0.6956245888	 0.411911
C	 2.2240298201	-1.1239071182	-0.8279502642	-0.341678
C	 1.2322936426	-1.2870739622	-2.0116486751	 0.056947
C	-0.1744440956	-1.759373387	-1.5805368293	-0.08437
O	-0.8416670705	-0.7715569153	-0.7919180816	-0.263261
C	 0.0592979695	-0.0218957034	-0.0132654764	 0.124324
O	 1.1657890955	 0.1593363563	-2.1316584169	-0.311165
H	-0.4994814905	 1.9614612341	 0.9482997852	 0.099764
H	-0.5525036123	 1.9081776542	-0.8378811477	 0.130685
H	 1.9306667847	 2.3469717562	-0.7463717445	 0.118445
H	 2.0201390079	 1.5906828031	 0.8662440563	 0.112154
H	 3.248919825	-0.9885919676	-1.1799115898	 0.109922
H	 2.1837175605	-1.8338725457	 0.0024829886	 0.097174
H	 1.5720427099	-1.7815333952	-2.9248386788	 0.083831
H	-0.8037963082	-1.9139156868	-2.4623492752	 0.116017
H	-0.1033958968	-2.7169510201	-1.0392953189	 0.090209
H	 0.1692708901	-0.4523399938	 0.9948876382	 0.062362
154.8724	205.5275	323.7212	362.4915	383.3215	448.4212	523.2314	560.5298	677.0279	707.8182	756.5811	807.849	852.9508	877.5969	892.9743	909.203	948.0923	969.4467	992.2925	1005.5322	1043.3786	1098.1854	1115.2212	1128.6819	1149.242	1169.6332	1204.6442	1218.0198	1236.2319	1240.7117	1244.5978	1284.6915	1294.5387	1323.9878	1349.7723	1362.8381	1405.4214	1466.6186	1484.359	1488.1204	1503.8015	2969.8904	2977.4783	3058.9834	3070.9677	3074.103	3084.5883	3089.0888	3124.4236	3129.0298	3150.0374
C1CC23CC(COC12)O3	C1C[C@@]23C[C@@H](CO[C@H]12)O3	
InChI=1S/C7H10O2/c1-2-7-3-5(9-7)4-8-6(1)7/h5-6H,1-4H2	InChI=1S/C7H10O2/c1-2-7-3-5(9-7)4-8-6(1)7/h5-6H,1-4H2/t5-,6+,7+/m0/s1
