15
gdb 85784	3.11677	1.2398	0.93294	1.9993	63.92	-0.2575	-0.0231	0.2344	1186.2495	0.112289	-491.140453	-491.131506	-491.130561	-491.174714	31.485	
N	-0.0681632171	 1.3279254157	-0.0371752328	-0.566906
C	 0.0821383266	-0.021692456	-0.0304513102	 0.471552
O	 1.1275513305	-0.6330607247	-0.0501093661	-0.383803
N	-1.156488039	-0.6949341587	-0.0111426365	-0.165218
C	-1.4562393521	-2.1344506989	 0.0391162806	-0.17425
C	-2.9650209152	-1.7519637908	 0.0349158288	-0.022974
O	-3.6491976161	-2.1950615335	 1.1743951952	-0.418641
C	-2.4715820701	-0.2806172486	 0.0563263921	 0.402644
O	-2.9655831217	 0.8177865912	 0.129504061	-0.385153
H	 0.7633636768	 1.8895792351	 0.0156504629	 0.2703
H	-0.9832815708	 1.744732807	 0.0601291017	 0.283658
H	-1.0915125909	-2.6909593561	-0.8253896949	 0.135782
H	-1.1394769551	-2.6111102381	 0.9683201997	 0.146081
H	-3.4813005147	-2.0101461896	-0.8996510213	 0.10447
H	-4.4780384311	-1.7068903141	 1.2337945299	 0.302459
66.2171	82.8736	154.6384	180.0499	203.1437	279.5348	302.5865	352.7065	430.5229	443.9191	584.1839	613.3153	654.3897	772.8506	783.2884	798.8147	878.2221	963.6938	1045.8733	1107.4838	1149.9027	1169.9132	1189.2437	1219.7782	1232.0303	1302.5617	1360.221	1386.397	1422.758	1513.7108	1619.5312	1823.9375	1857.5283	3017.7017	3083.4254	3144.6376	3558.8674	3728.8794	3810.0294
NC(=O)N1CC(O)C1=O	NC(=O)N1C[C@@H](O)C1=O	
InChI=1S/C4H6N2O3/c5-4(9)6-1-2(7)3(6)8/h2,7H,1H2,(H2,5,9)	InChI=1S/C4H6N2O3/c5-4(9)6-1-2(7)3(6)8/h2,7H,1H2,(H2,5,9)/t2-/m1/s1
