13
gdb 62425	2.56005	1.55212	1.37523	3.9833	63.08	-0.2683	-0.0537	0.2146	959.6121	0.087969	-452.715302	-452.707376	-452.706432	-452.747856	28.696	
O	-0.1491832442	 1.4258608422	 0.1292519858	-0.445225
C	-0.0428061461	 0.0308969112	 0.0478765523	 0.129801
C	 0.8614619866	-0.5253337802	 1.0610428575	 0.233514
N	 1.5999015588	-0.9412844634	 1.846742027	-0.314043
C	-1.3815874881	-0.7042499456	-0.0414438162	-0.03182
C	-2.0995032898	-0.3284830439	-1.2619422092	-0.255888
N	-1.0139341686	-1.3569545162	-1.38704282	-0.168123
C	 0.2142917677	-0.6006534479	-1.3773440285	 0.356751
O	 1.1009180696	-0.5451755036	-2.1628302282	-0.27662
H	 0.7281635155	 1.807030312	-0.0018513914	 0.309851
H	-1.8021650883	-1.3034661792	 0.7546233499	 0.143498
H	-3.0818926734	-0.7583913242	-1.4215643885	 0.157328
H	-1.9432832998	 0.6507782088	-1.7022255806	 0.160976
109.9371	129.0191	179.6785	201.9327	271.7092	313.3895	405.896	471.0999	515.1237	592.7486	664.6981	690.5755	764.5338	776.9067	858.2134	901.8608	1010.5362	1035.1986	1057.0361	1099.6626	1122.9425	1148.3943	1166.4382	1245.0916	1322.8315	1387.4448	1504.5728	1930.5189	2352.0972	3138.2402	3219.6247	3233.5908	3792.5198
OC1(C#N)C2CN2C1=O	O[C@@]1(C#N)[C@H]2CN2C1=O	
InChI=1S/C5H4N2O2/c6-2-5(9)3-1-7(3)4(5)8/h3,9H,1H2	InChI=1S/C5H4N2O2/c6-2-5(9)3-1-7(3)4(5)8/h3,9H,1H2/t3-,5+,7?/m1/s1
