21
gdb 107538	1.84647	1.63704	1.03238	2.9127	83.11	-0.236	-0.0224	0.2135	1237.9448	0.181334	-387.076692	-387.067366	-387.066422	-387.111603	34.521	
C	-0.2210174597	 1.5417413819	-0.0875078381	-0.382458
C	 0.1132735785	 0.0485991957	 0.0391019145	-0.295245
C	 0.7841095369	-0.5091700274	-1.1870070706	 0.368634
C	 0.0197815202	-1.0138800863	-2.3875297971	-0.334674
C	 0.9539173717	-1.9508067653	-1.6752138166	-0.114807
C	 2.3959103811	-1.6631057979	-2.106115294	-0.263366
C	 2.2580313441	-0.1964211009	-1.5645964728	-0.131655
C	 2.5008877204	 0.9547856578	-2.5017721155	 0.158429
O	 3.1352891269	 1.9424894559	-2.2224314673	-0.262068
H	 0.6819165476	 2.1343404874	-0.266981891	 0.136643
H	-0.9081423525	 1.7207811246	-0.9209688387	 0.117553
H	-0.691781853	 1.917877263	 0.8257884464	 0.113018
H	 0.7628265978	-0.1076238874	 0.9106763297	 0.099448
H	-0.8036466575	-0.5225315039	 0.2330075343	 0.097686
H	-1.0364589992	-1.1812463102	-2.199416326	 0.114802
H	 0.2339320177	-0.6834198541	-3.4005148804	 0.10854
H	 0.6062898581	-2.8680508202	-1.2150587984	 0.090109
H	 3.1516303047	-2.221563867	-1.5514723814	 0.116212
H	 2.6012317119	-1.7696936425	-3.1772398769	 0.102251
H	 2.8646281073	-0.0367639008	-0.6697976106	 0.091597
H	 2.033096717	 0.8503971077	-3.5080113296	 0.069351
36.439	89.8776	114.0242	190.3368	219.0989	268.5087	311.0278	356.2488	421.5677	437.9547	484.3389	640.8267	722.8851	789.2948	829.1977	852.0944	868.5537	902.5252	968.9065	979.9563	1001.4621	1021.0505	1041.7104	1056.8521	1066.2353	1090.0661	1101.3393	1152.6492	1169.3315	1214.2231	1225.2926	1259.5569	1277.9932	1310.1933	1315.4837	1355.6391	1401.8895	1414.215	1437.5825	1479.2223	1483.316	1500.646	1504.8301	1509.0414	1817.2479	2862.3935	3014.006	3036.0028	3041.8113	3048.3484	3082.3225	3106.7121	3109.0307	3110.648	3116.964	3180.9314	3196.323
CCC12CC1CC2C=O	CC[C@]12C[C@H]1C[C@H]2C=O	
InChI=1S/C8H12O/c1-2-8-4-6(8)3-7(8)5-9/h5-7H,2-4H2,1H3	InChI=1S/C8H12O/c1-2-8-4-6(8)3-7(8)5-9/h5-7H,2-4H2,1H3/t6-,7+,8+/m1/s1
