16
gdb 84052	3.537	1.2076	0.99799	4.7906	77.22	-0.2678	-0.0576	0.2101	1173.1612	0.124787	-400.755592	-400.74782	-400.746876	-400.787966	29.29	
C	-0.1009331005	 1.5740490101	 0.0851548943	-0.397848
C	 0.0186499078	 0.0430070185	 0.0089229206	-0.062685
C	 0.7995979886	-0.4477071896	-1.1925269023	-0.173215
C	 1.8153227965	-1.2591922508	-0.853412161	 0.217488
C	 2.7194140634	-1.9003763264	-1.7399834324	 0.198564
N	 3.4646396682	-2.4473349684	-2.4382730272	-0.334451
C	 1.8957474112	-1.3813800473	 0.6439851949	-0.088436
O	 2.1432162838	-0.1168646897	 1.284509193	-0.245003
C	 0.7909476799	-0.5714544273	 1.1781277046	 0.03076
H	 0.8902476124	 2.0220237538	 0.1882528062	 0.147025
H	-0.5756854331	 1.9763468575	-0.81442402	 0.123162
H	-0.7063372694	 1.8697851776	 0.9469979413	 0.126206
H	-0.9917902696	-0.3898877286	-0.0200103812	 0.10251
H	 0.5688470467	-0.1384756084	-2.2055119165	 0.130387
H	 2.3274826815	-2.2525817653	 1.124657406	 0.118493
H	 0.2933966226	-0.7868646655	 2.1195295995	 0.107043
109.7462	145.8875	179.8409	232.0485	264.0679	398.6598	437.4371	496.2922	547.3997	577.494	657.7479	713.703	827.9011	855.4385	879.8895	898.5672	909.9976	941.2198	1020.0657	1034.5912	1085.2575	1112.633	1125.2527	1180.3481	1253.8113	1268.0929	1300.1956	1320.622	1345.8597	1398.3087	1417.7813	1494.4613	1504.6707	1655.9688	2339.3067	3007.8075	3045.2474	3113.9748	3133.0356	3154.9471	3182.7132	3207.0574
CC1C=C(C#N)C2OC12	C[C@H]1C=C(C#N)[C@H]2O[C@@H]12	
InChI=1S/C7H7NO/c1-4-2-5(3-8)7-6(4)9-7/h2,4,6-7H,1H3	InChI=1S/C7H7NO/c1-4-2-5(3-8)7-6(4)9-7/h2,4,6-7H,1H3/t4-,6-,7+/m0/s1
