21
gdb 102543	1.83958	1.47726	1.03915	3.6878	74.25	-0.2515	0.0629	0.3144	1248.2824	0.180406	-461.332665	-461.322517	-461.321573	-461.367557	37.616	
C	 0.1946901521	 1.2691672772	-0.9130599258	-0.475319
C	 0.0091867533	-0.0098530979	-0.1276500131	 0.446344
C	 1.1838265273	-0.8394920443	 0.1671642195	-0.223226
O	 0.6325123539	 0.0076954591	 1.1852060757	-0.300808
C	-1.3786961805	-0.6569591844	-0.1229394641	-0.100956
C	-2.3096284968	 0.0303887122	 0.8966381633	-0.056286
O	-1.9660682363	-0.2732821392	 2.2303481504	-0.434519
C	-2.010356465	-0.6788265784	-1.5136950708	-0.107169
O	-1.0912973769	-1.2813908972	-2.4161374462	-0.420856
H	 1.1815659747	 1.6909041605	-0.7093248268	 0.126833
H	 0.1110647777	 1.0642370713	-1.9837877785	 0.137686
H	-0.5551542807	 2.0198792084	-0.6425467663	 0.125438
H	 1.0615708902	-1.908636056	 0.329825209	 0.120713
H	 2.1647991128	-0.5344975922	-0.1936568939	 0.11487
H	-1.2668572766	-1.6944790636	 0.2120871721	 0.090953
H	-2.319624776	 1.1198112217	 0.7178430456	 0.082335
H	-3.3375286643	-0.3226430895	 0.7485939602	 0.097246
H	-1.0064610468	-0.173006062	 2.2954836963	 0.295823
H	-2.951195642	-1.2472519661	-1.4664874444	 0.098773
H	-2.2625495744	 0.3452576455	-1.8314968821	 0.092082
H	-1.4945834055	-1.3008146851	-3.2890217001	 0.290041
64.4887	113.2151	154.4855	180.4001	223.6396	229.2259	259.0066	290.8459	350.0479	387.7269	400.0538	410.6333	488.4015	524.084	575.1269	683.2474	800.0836	887.2067	924.5949	934.531	1002.5437	1034.7375	1059.8902	1073.6771	1098.7517	1102.8576	1122.8895	1132.2535	1169.0358	1224.7524	1241.4928	1245.9146	1290.8535	1308.1645	1350.3375	1390.1476	1400.7261	1434.8383	1456.6083	1470.7185	1487.4026	1496.9599	1512.4303	1524.8542	1530.0541	2949.0839	2974.6729	3004.9913	3042.6114	3042.8126	3053.2032	3088.5027	3110.9098	3131.046	3176.7619	3741.4584	3829.1188
CC1(CO1)C(CO)CO	C[C@]1(CO1)C(CO)CO	
InChI=1S/C6H12O3/c1-6(4-9-6)5(2-7)3-8/h5,7-8H,2-4H2,1H3	InChI=1S/C6H12O3/c1-6(4-9-6)5(2-7)3-8/h5,7-8H,2-4H2,1H3/t6-/m0/s1
