13
gdb 27607	3.54768	1.228	0.91223	5.2174	74.9	-0.275	-0.0625	0.2125	1162.085	0.091621	-415.682246	-415.675214	-415.67427	-415.713845	26.6	
O	 0.105089733	 1.3527276454	 0.1175779054	-0.422735
C	 0.0695684342	 0.0063204081	 0.0372233359	 0.42301
C	 0.0724080249	-0.689363486	-1.1719628238	-0.320516
C	 0.0332862431	-2.0839839214	-1.1269053454	 0.239872
N	-0.0069746154	-2.8045463861	 0.0005302676	-0.329323
C	-0.0087153706	-2.1132362241	 1.1424561402	 0.003452
C	 0.0278875696	-0.7269923985	 1.2238082258	-0.19264
C	 0.0356752238	-2.8171963321	-2.3682479526	 0.241239
N	 0.038926049	-3.3700519562	-3.3840217186	-0.324172
H	 0.1316644515	 1.7341702216	-0.7674884311	 0.309506
H	 0.1038992082	-0.1727502731	-2.1253306846	 0.12067
H	-0.0415027299	-2.7048828127	 2.0534130864	 0.126418
H	 0.0246522187	-0.214357345	 2.1779278748	 0.125219
139.4974	153.5653	229.6284	385.3445	399.9959	425.7268	479.7693	505.4792	530.8468	593.1244	670.0132	764.7708	765.053	874.3517	885.0546	964.1225	999.1518	1003.121	1108.1695	1184.8806	1198.016	1316.7023	1328.7101	1364.9548	1449.3501	1509.2098	1622.1175	1633.4221	2353.6282	3168.8345	3187.3976	3214.4787	3808.5161
OC1=CC(=NC=C1)C#N	Oc1cc(ncc1)C#N	
InChI=1S/C6H4N2O/c7-4-5-3-6(9)1-2-8-5/h1-3H,(H,8,9)	InChI=1S/C6H4N2O/c7-4-5-3-6(9)1-2-8-5/h1-3H,(H,8,9)
