18
gdb 120243	3.29373	1.00299	0.84922	3.78	72.9	-0.2488	-0.0143	0.2345	1377.1675	0.146584	-439.047113	-439.038301	-439.037357	-439.081555	31.46	
C	 0.6462036267	 1.4554164262	 0.0374453252	-0.229573
O	 0.7555033407	 0.0525324475	 0.1180612116	-0.235176
C	-0.1341423739	-0.5141192027	 1.0536196329	-0.0762
C	 0.0789825005	-2.0158019432	 1.0509795054	-0.157466
C	 1.2878227379	-2.6538161594	 1.7386865579	-0.027656
C	 1.2107276358	-2.5531105736	 3.2006961826	-0.247813
N	 0.3985717246	-3.6218059332	 2.5361989958	-0.178675
C	-0.7513228423	-2.9193245362	 1.9859992145	 0.377846
O	-1.9108986732	-3.1025865483	 2.1818425526	-0.295694
H	 0.8757726748	 1.9383722685	 1.0002872799	 0.106851
H	 1.3667064803	 1.7960159923	-0.7096214471	 0.131713
H	-0.3632885303	 1.7683894463	-0.2714858395	 0.10966
H	 0.0383841815	-0.0901477789	 2.0570880056	 0.088999
H	-1.182119451	-0.2971621443	 0.7877807667	 0.108822
H	-0.025829401	-2.3846771646	 0.0246086439	 0.128224
H	 2.1604349906	-3.0366978632	 1.2252021106	 0.118364
H	 2.0224536307	-2.9666777917	 3.7896136328	 0.143308
H	 0.6887624077	-1.7257371416	 3.6747461485	 0.134462
58.5943	92.9891	121.3615	156.6547	223.4517	272.088	279.352	365.9359	506.4598	554.9247	653.7582	694.8565	734.6447	822.2615	870.5606	909.6722	983.7841	1002.164	1026.1363	1054.2317	1073.8553	1118.5156	1137.9103	1148.4272	1161.4298	1185.7309	1194.5565	1227.0796	1240.421	1257.2277	1349.3476	1362.3085	1421.7588	1481.0764	1485.7201	1501.2226	1508.541	1526.1011	1915.6374	2958.6132	2975.7096	2989.0079	3019.6145	3065.5742	3119.1987	3119.5999	3201.4885	3213.4802
COCC1C2CN2C1=O	COC[C@H]1[C@H]2CN2C1=O	
InChI=1S/C6H9NO2/c1-9-3-4-5-2-7(5)6(4)8/h4-5H,2-3H2,1H3	InChI=1S/C6H9NO2/c1-9-3-4-5-2-7(5)6(4)8/h4-5H,2-3H2,1H3/t4-,5+,7?/m0/s1
