14
gdb 45404	2.28892	1.80853	1.25827	4.8792	68.49	-0.2474	-0.0151	0.2323	990.9189	0.100331	-436.63418	-436.626586	-436.625642	-436.666346	28.587	
O	-0.0795108166	 0.0163450763	-0.461832501	-0.311519
C	-0.0408821034	 1.1331307289	-0.0743816311	 0.456807
O	-1.0231549822	 1.8382912582	 0.593022158	-0.260573
C	-0.2415482164	 3.0651492074	 0.6274094089	 0.046877
C	 0.625374481	 3.2052368899	 1.8871610428	-0.191753
N	 1.6505590516	 2.2975542306	 1.2943985077	-0.351471
C	 0.9579435089	 2.3231683428	-0.0360253328	 0.017463
C	 1.6970128536	 2.7064533982	-1.2002568909	 0.189469
C	 2.3320188939	 3.0260378285	-2.1698307544	-0.409954
H	-0.7915417394	 3.9060444594	 0.2128010109	 0.119863
H	 0.968511166	 4.2365463267	 2.0275283558	 0.118296
H	 0.1838877946	 2.8359705732	 2.8165929249	 0.131073
H	 2.5805399625	 2.6964882365	 1.2464259096	 0.238301
H	 2.8870341459	 3.2986901534	-3.0340056384	 0.207121
118.5695	130.274	174.241	243.1912	345.8351	380.0687	482.3346	527.9381	630.5075	642.131	664.0341	669.724	693.1951	777.2585	846.1275	886.1845	954.3386	976.6219	1000.6324	1025.3995	1075.7982	1129.1306	1160.4742	1190.7394	1238.8538	1316.6335	1337.3226	1385.9734	1495.8264	1954.3728	2238.4552	3038.7499	3100.7752	3155.5185	3496.4961	3556.3505
O=C1OC2CNC12C#C	O=C1O[C@H]2CN[C@@]12C#C	
InChI=1S/C6H5NO2/c1-2-6-4(3-7-6)9-5(6)8/h1,4,7H,3H2	InChI=1S/C6H5NO2/c1-2-6-4(3-7-6)9-5(6)8/h1,4,7H,3H2/t4-,6+/m0/s1
