14
gdb 42546	4.32251	1.26753	1.16029	4.0596	73.5	-0.2569	-0.0143	0.2426	1034.8581	0.100046	-399.467836	-399.4607	-399.459756	-399.499377	27.811	
O	-0.076933613	 0.0594025034	 0.0491548184	-0.304717
C	-0.1044929552	 1.2466535816	 0.0497365288	 0.446879
C	-1.1509815706	 2.3438569864	-0.0965525827	-0.227263
C	-0.9443048671	 3.1180582992	 1.2380634303	-0.298087
C	 0.4677872376	 3.4349118829	 0.710230567	 0.224441
C	 1.4071595166	 4.3552278364	 1.2512214206	 0.124262
C	 2.1616776328	 5.1550999921	 1.7362852797	-0.330138
C	 0.0651126765	 3.1562920487	-0.684058158	-0.102826
N	 1.0171777783	 2.1936879515	-0.0020147162	-0.231269
H	-2.1342822764	 2.1725306476	-0.5237615405	 0.110692
H	-1.5411808344	 4.0310970506	 1.2825556822	 0.130706
H	-1.039324326	 2.5540824399	 2.1704852925	 0.126856
H	 2.8405474733	 5.8549656691	 2.1576981261	 0.194404
H	 0.2914573876	 3.6029892305	-1.6407099883	 0.136058
113.9524	148.9143	195.3276	359.7365	452.9761	505.2493	510.4936	540.8458	630.1958	647.4023	671.122	690.3258	772.1565	786.1802	841.1943	882.7752	923.0871	944.9232	988.2926	1038.6857	1049.1943	1107.3144	1124.8432	1154.5643	1201.715	1211.0184	1263.682	1380.1406	1499.1782	1928.8198	2247.8917	3061.4422	3127.6717	3173.8054	3238.7913	3501.1794
O=C1C2CC3(C#C)C2N13	O=C1[C@H]2C[C@]3(C#C)[C@H]2N13	
InChI=1S/C7H5NO/c1-2-7-3-4-5(7)8(7)6(4)9/h1,4-5H,3H2	InChI=1S/C7H5NO/c1-2-7-3-4-5(7)8(7)6(4)9/h1,4-5H,3H2/t4-,5-,7+,8?/m0/s1
