19
gdb 31787	3.29588	1.25603	0.92407	0.4057	80.44	-0.1679	0.0648	0.2327	1268.2076	0.159357	-419.224688	-419.214926	-419.213982	-419.259511	34.993	
C	-0.1242195596	 0.5546576125	 0.8474186801	-0.242546
O	 0.294739606	 0.9612046894	-0.4417081545	-0.267533
C	 0.7582063566	-0.0399497439	-1.2282902971	 0.398127
C	 0.9184449316	-1.3927227548	-1.0414183536	-0.307268
C	 1.4766730335	-1.8971111891	-2.2580170478	-0.211248
C	 1.624127348	-0.8471728707	-3.1289637869	 0.22977
N	 2.0666182307	-0.7576714876	-4.4693297191	-0.607395
N	 1.1695713454	 0.3042394664	-2.4879674102	-0.098099
C	 1.1198685922	 1.6372073727	-3.049102741	-0.342165
H	-0.9442032278	-0.1726436588	 0.7859419464	 0.123838
H	 0.7050365955	 0.1052170454	 1.4091343821	 0.123486
H	-0.4696546541	 1.4530985914	 1.361169761	 0.130993
H	 0.6797364355	-1.9538745192	-0.1533269042	 0.090618
H	 1.741743864	-2.9233555931	-2.4637362745	 0.078991
H	 3.0785009868	-0.7021739817	-4.5427110709	 0.239603
H	 1.7669355258	-1.5644355787	-5.0032509067	 0.243571
H	 0.141976345	 2.0891866518	-2.8643397962	 0.137353
H	 1.8859378021	 2.2881257928	-2.6124310884	 0.126795
H	 1.2905989929	 1.5502456754	-4.1224968986	 0.153107
71.5813	80.176	129.2781	180.4567	204.5524	208.6583	242.1306	301.0291	337.6916	369.7951	550.7341	611.2169	623.3531	665.454	709.1794	720.718	765.1562	775.9124	808.9385	961.1378	1040.0289	1089.4911	1158.3515	1170.8649	1184.5821	1210.2055	1215.0934	1229.7707	1260.4282	1328.8391	1409.4979	1431.8891	1467.2694	1482.1827	1492.3164	1508.0504	1516.3269	1522.2978	1578.5657	1616.3473	1658.1722	3004.6486	3033.82	3061.2577	3097.7851	3135.9819	3153.389	3239.8525	3267.5898	3486.6604	3580.8504
COC1=CC=C(N)N1C	COc1ccc(N)n1C	
InChI=1S/C6H10N2O/c1-8-5(7)3-4-6(8)9-2/h3-4H,7H2,1-2H3	InChI=1S/C6H10N2O/c1-8-5(7)3-4-6(8)9-2/h3-4H,7H2,1-2H3
