15
gdb 46640	2.40364	1.74801	1.50426	3.9556	72.21	-0.252	0.003	0.255	940.2954	0.112957	-416.756645	-416.749101	-416.748157	-416.788834	28.617	
N	-0.0460286955	 1.1929078814	 0.4155494331	-0.531672
C	 0.0031277773	 0.0148650814	-0.0210131076	 0.446824
O	 1.1251909919	-0.6156822424	-0.4942875966	-0.241622
C	 0.8143602338	-1.9363806567	-0.9482350921	-0.120665
C	-0.6591697621	-2.1116199573	-0.6259937935	-0.057158
C	-1.0737216436	-2.022555137	 0.8070762095	-0.220121
C	-0.1151368178	-2.1054127618	 1.8683563668	 0.375963
C	 0.6777373186	-2.1898861169	 2.7680708457	-0.455179
N	-1.1443458898	-0.8306492782	-0.1085071416	-0.152556
H	 0.8789003665	 1.6199967816	 0.3767384197	 0.230397
H	 0.9928192755	-1.999927028	-2.0265289313	 0.126121
H	 1.4644408867	-2.6486357326	-0.4305376811	 0.134579
H	-1.2939828601	-2.6315057411	-1.3362340975	 0.118534
H	-2.0684291998	-2.379956197	 1.057986881	 0.13512
H	 1.3745682984	-2.2524376054	 3.5673703357	 0.211434
97.4584	125.4661	156.5403	256.0825	335.3304	454.1433	519.4999	563.7276	623.1541	677.2591	690.9217	719.9115	756.0014	779.4425	843.1604	865.6554	874.3342	968.35	984.0717	994.0504	1056.9908	1082.8137	1121.4153	1136.5505	1224.6858	1229.4902	1303.7718	1358.2737	1373.4442	1410.9769	1516.2996	1785.6451	2239.0689	3045.9134	3090.2884	3149.9559	3165.6101	3501.1068	3505.5463
N=C1OCC2C(C#C)N12	[NH][C]1OC[C@H]2[C@@H](C#C)N12	
InChI=1S/C6H6N2O/c1-2-4-5-3-9-6(7)8(4)5/h1,4-5,7H,3H2	InChI=1S/C6H6N2O/c1-2-4-5-3-9-6(7)8(4)5/h1,4-5,7H,3H2/t4-,5+,8?/m1/s1
