17
gdb 33859	4.06128	1.30333	1.16634	4.946	76.4	-0.2382	0.0227	0.2609	1061.6996	0.138298	-380.849549	-380.842341	-380.841397	-380.880989	29.073	
N	-0.0047991378	-1.1141152555	-0.1159285126	-0.351494
C	-0.005574918	 0.0405753168	-0.0421859478	 0.250491
C	-0.007640088	 1.4808026871	 0.0222487082	 0.176594
C	 0.4470118735	 2.2607014302	-1.2118632127	-0.32992
C	 1.2856153612	 2.292639349	 0.0333320002	-0.076334
C	 1.0983319492	 3.3724722999	 1.0775464013	-0.041418
C	 0.0652609787	 4.4575224516	 0.8746365058	-0.316435
C	-0.2898494548	 3.2025173548	 1.6445519095	-0.000545
N	-0.9114304259	 2.0766486275	 0.9790393055	-0.365039
H	 0.8246807284	 1.6752847712	-2.0430965343	 0.13683
H	-0.1383329724	 3.1254604015	-1.4994221661	 0.124326
H	 2.2381493991	 1.7782026625	 0.0149396236	 0.11861
H	 1.9432795718	 3.5743115757	 1.7237814367	 0.102058
H	 0.1956446319	 5.3657668489	 1.4540676676	 0.119357
H	-0.3607629954	 4.620842046	-0.1083330936	 0.114999
H	-0.488095225	 3.2835707704	 2.7088522671	 0.103401
H	-1.8297851065	 2.2716307922	 0.5991328715	 0.23452
124.4102	156.6251	265.5885	290.5315	424.5583	454.298	534.502	563.3232	581.7516	635.0622	693.9876	764.9981	792.3184	817.7407	851.0691	882.7409	927.2962	953.816	997.5988	999.5056	1038.1081	1053.5767	1071.7304	1081.0045	1104.3332	1114.7432	1163.1604	1211.7345	1245.719	1274.6182	1346.0706	1364.7457	1383.2297	1405.561	1471.1101	1495.2706	2348.3829	3134.7788	3144.4682	3151.5754	3186.3433	3199.4349	3220.546	3234.7749	3549.1997
N#CC12CC1C1CC1N2	N#C[C@]12C[C@H]1[C@H]1C[C@H]1N2	
InChI=1S/C7H8N2/c8-3-7-2-5(7)4-1-6(4)9-7/h4-6,9H,1-2H2	InChI=1S/C7H8N2/c8-3-7-2-5(7)4-1-6(4)9-7/h4-6,9H,1-2H2/t4-,5+,6-,7-/m1/s1
