27
gdb 100297	1.60462	1.37926	1.05568	1.3177	91.56	-0.2562	0.066	0.3222	1417.3369	0.248975	-390.705601	-390.693545	-390.692601	-390.742082	45.273	
C	 0.4387720188	 1.8924940423	-0.0697622729	-0.399133
C	 0.3698939494	 0.3625972608	-0.0082516731	-0.184955
C	 0.7384841327	-0.3738733841	-1.3142757318	 0.354044
O	 2.117115272	-0.0297271904	-1.5321363893	-0.473521
C	 0.6128744265	-1.905422936	-1.1270444618	-0.217858
C	 1.4786540812	-2.4987397781	-0.00896165	-0.389325
C	-0.1031291218	 0.1363225436	-2.5287941333	 0.026465
C	 0.3327427479	-0.4670821781	-3.8754821388	-0.423928
C	-1.6215112695	-0.0292067313	-2.353893592	-0.406188
H	 1.404746906	 2.2167026717	-0.4652953213	 0.135182
H	-0.3478464246	 2.3227985871	-0.6972133225	 0.112551
H	 0.3221958243	 2.3170206162	 0.9323431599	 0.105077
H	 1.07115244	 0.0192435827	 0.7577864108	 0.105687
H	-0.6254922447	 0.0406472679	 0.3168538738	 0.090707
H	 2.4274972503	-0.5160185143	-2.3019150837	 0.274126
H	-0.4383385926	-2.1633231931	-0.9545067187	 0.096376
H	 0.8892149748	-2.3896475494	-2.072229833	 0.084832
H	 1.1209522449	-2.2139492689	 0.9845165589	 0.117772
H	 1.4689339182	-3.5920423991	-0.0575808041	 0.105064
H	 2.5142899987	-2.160486416	-0.1019769004	 0.125078
H	 0.1108692822	 1.2093200515	-2.5883038847	 0.082577
H	 0.0996311674	-1.5343673	-3.9489183972	 0.118462
H	-0.1925065998	 0.03432846	-4.6947650236	 0.115988
H	 1.403496741	-0.3366389882	-4.0654353223	 0.101212
H	-1.9153291713	-1.0838785192	-2.3218903029	 0.11515
H	-1.9880457668	 0.4487041696	-1.4416294449	 0.117836
H	-2.149195975	 0.4271691129	-3.1979869113	 0.110721
62.0645	96.4048	114.8534	197.7456	206.6851	223.4169	233.0355	241.7174	248.3625	266.7112	300.1011	329.2708	352.7968	378.7272	412.3267	474.6944	536.0948	540.0635	670.8344	779.1555	791.3426	874.1589	921.8424	926.712	946.9055	959.2677	970.0593	1028.9013	1047.0304	1060.6557	1084.5623	1124.4996	1141.6218	1184.8816	1196.0613	1210.3499	1279.3081	1320.402	1341.678	1349.1361	1361.8133	1377.8335	1392.7663	1406.2332	1407.9374	1412.24	1419.5568	1477.295	1482.6825	1488.8778	1497.1223	1501.6406	1503.6252	1506.7494	1510.4466	1512.9457	1515.5209	3021.1735	3029.616	3035.9692	3038.4953	3042.403	3043.6654	3046.0076	3060.6155	3083.6435	3090.983	3095.345	3102.1765	3104.62	3107.7787	3113.676	3121.5885	3125.0247	3824.8121
CCC(O)(CC)C(C)C	CCC(O)(CC)C(C)C	
InChI=1S/C8H18O/c1-5-8(9,6-2)7(3)4/h7,9H,5-6H2,1-4H3	InChI=1S/C8H18O/c1-5-8(9,6-2)7(3)4/h7,9H,5-6H2,1-4H3
