17
gdb 57146	3.13702	0.77037	0.67634	1.8086	81.41	-0.2552	-0.0683	0.187	1636.6224	0.131392	-421.826712	-421.81606	-421.815116	-421.865265	35.188	
C	-0.6273248824	 1.7385427345	 1.008237367	-0.394124
C	-0.0952391126	 0.5168860325	 0.2111681063	-0.271472
C	 0.7402582271	-0.3311900583	 1.0448491643	 0.124678
C	 1.4193831251	-1.0393084179	 1.7512083079	 0.003494
C	 2.2521462406	-1.8738196962	 2.5785249881	 0.020283
O	 1.8355157324	-2.7434430902	 3.3094627734	-0.228592
C	-1.3129246424	-0.2094087604	-0.4242840678	 0.392513
C	-1.8970148974	-1.3976532241	 0.3024100452	-0.48025
O	-1.7678381683	 0.2258313778	-1.4527440818	-0.291501
H	 0.2055700823	 2.3223915604	 1.4060015995	 0.139353
H	-1.2202978019	 2.3683181782	 0.3414369255	 0.148416
H	-1.2517895467	 1.4182868554	 1.8466790009	 0.137454
H	 0.4908773918	 0.8956548362	-0.633549118	 0.139801
H	 3.3365627235	-1.6575485222	 2.4964477877	 0.102046
H	-2.0418788824	-1.1766975791	 1.3648602216	 0.149316
H	-2.8418006562	-1.6818402037	-0.1612647374	 0.145741
H	-1.1950436125	-2.237294413	 0.2573898976	 0.162844
19.2873	28.4178	69.1748	111.7731	143.7345	205.8546	222.0793	246.0103	268.0338	353.0226	409.5041	508.5591	551.3812	596.3672	653.4574	736.5984	828.8989	934.8592	969.2858	1019.878	1021.8563	1070.3593	1089.8281	1170.5868	1214.5203	1271.391	1323.88	1384.6029	1400.3202	1422.2457	1454.3561	1468.7897	1493.8472	1497.6956	1764.7504	1819.9992	2320.678	2922.0461	3045.2595	3050.445	3053.6395	3105.7838	3130.671	3141.3817	3159.49
CC(C#CC=O)C(C)=O	C[C@@H](C#CC=O)C(=O)C	
InChI=1S/C7H8O2/c1-6(7(2)9)4-3-5-8/h5-6H,1-2H3	InChI=1S/C7H8O2/c1-6(7(2)9)4-3-5-8/h5-6H,1-2H3/t6-/m0/s1
