16
gdb 67089	2.64035	1.56585	1.36993	3.0853	70.36	-0.2351	-0.0378	0.1974	984.7402	0.123874	-437.814296	-437.806683	-437.805739	-437.846495	29.373	
O	-0.1687016819	 1.4270843106	 0.0365291044	-0.436105
C	-0.0259272112	 0.0783496268	 0.008593834	 0.347881
C	-1.0565834912	-1.0059182158	-0.0438404139	-0.139394
C	-0.4480762503	-1.6350442854	-1.2875330102	-0.271643
C	 0.8912951983	-0.9610081042	-0.8710737916	 0.1349
N	 1.3131567914	-1.5620421801	 0.4238841419	-0.343771
C	 0.1087545337	-1.0000553801	 1.0268528744	-0.115493
C	 1.946301549	-0.603994801	-1.8563334506	 0.049301
O	 1.7263773667	-0.3562423972	-3.0175849307	-0.256055
H	 0.5869976939	 1.8136106273	 0.4959272757	 0.30135
H	-2.0935892884	-0.9430345694	 0.2592926506	 0.099609
H	-0.42645712	-2.7274173555	-1.3771251521	 0.092035
H	-0.8329597082	-1.1881050937	-2.2055735698	 0.13578
H	 1.3196892295	-2.5838180223	 0.390303131	 0.214252
H	-0.0824067988	-0.9868758844	 2.0924613993	 0.106333
H	 2.9715580274	-0.5510066055	-1.4274176624	 0.081021
76.5197	171.584	194.232	266.1654	365.2002	404.351	459.5726	489.1371	532.4664	616.3472	681.3353	726.6152	770.8511	793.8639	881.0854	933.819	959.4559	973.0224	1001.821	1033.0994	1057.6817	1075.9867	1082.6503	1113.2282	1136.982	1218.0429	1245.8558	1272.817	1297.1054	1320.7949	1355.3821	1407.9164	1484.6331	1510.0666	1806.7735	2889.3635	3037.1842	3129.0214	3198.4059	3208.8802	3418.57	3776.6959
OC12C3CC1(NC23)C=O	O[C@@]12[C@H]3C[C@@]1(N[C@@H]23)C=O	
InChI=1S/C6H7NO2/c8-2-5-1-3-4(7-5)6(3,5)9/h2-4,7,9H,1H2	InChI=1S/C6H7NO2/c8-2-5-1-3-4(7-5)6(3,5)9/h2-4,7,9H,1H2/t3-,4+,5+,6+/m0/s1
