18
gdb 89269	2.52703	1.83588	1.36206	3.2732	70.37	-0.2295	0.0561	0.2857	970.4863	0.148053	-439.00661	-438.999048	-438.998104	-439.038067	31.157	
O	 0.0929841046	 1.4383680665	-0.1154389438	-0.436957
C	 0.024568695	 0.0480641504	-0.0006884266	 0.139234
C	 0.3138705714	-0.598063953	 1.4041712983	-0.343297
C	-1.0943755735	-1.2538769226	 1.3846852493	 0.409375
O	-1.2148762781	-2.637803971	 1.5312545972	-0.48237
C	-2.2859527713	-0.4290946246	 1.9623555673	-0.13709
N	-2.0219479208	 1.005979633	 1.6998453907	-0.359184
C	-2.5701123561	 0.1406458633	 0.6160392508	-0.051946
C	-1.3925614479	-0.6355974363	-0.0114647249	-0.108023
H	-0.4814449394	 1.7747025934	 0.5896349254	 0.291816
H	 0.671813628	-0.3626174227	-0.7798697526	 0.087412
H	 1.1087131981	-1.3484664334	 1.3814859987	 0.099511
H	 0.506602449	 0.122408703	 2.2015296667	 0.101775
H	-0.9566113952	-2.8685104633	 2.4310464578	 0.279224
H	-2.9562508274	-0.7307146811	 2.759489953	 0.09537
H	-2.7987454004	 1.5377297638	 2.0893717795	 0.237837
H	-3.5101378055	 0.402180223	 0.146392126	 0.099937
H	-1.6581975308	-1.2771314482	-0.8507950927	 0.077375
155.7808	242.2236	244.5928	285.5436	340.399	347.1996	434.6876	480.5024	549.7503	621.5933	656.9489	711.8951	772.0517	791.0453	821.5217	835.4714	880.6359	929.672	930.9909	991.8848	1005.263	1015.4824	1030.8788	1075.7944	1098.91	1128.4895	1151.7213	1165.2156	1197.0733	1232.3816	1254.6847	1265.8212	1305.7709	1323.8984	1330.8462	1345.3228	1392.4513	1454.6494	1473.1016	3059.8548	3073.3142	3125.3605	3126.7853	3174.289	3193.1735	3482.8817	3690.9982	3788.9381
OC1CC2(O)C3NC3C12	O[C@H]1C[C@@]2(O)[C@H]3N[C@H]3[C@@H]12	
InChI=1S/C6H9NO2/c8-2-1-6(9)3(2)4-5(6)7-4/h2-5,7-9H,1H2	InChI=1S/C6H9NO2/c8-2-1-6(9)3(2)4-5(6)7-4/h2-5,7-9H,1H2/t2-,3+,4-,5-,6-/m0/s1
