16
gdb 54353	2.00306	1.74773	1.18348	5.1186	70.68	-0.251	0.0024	0.2533	1072.2643	0.123779	-437.861808	-437.853309	-437.852365	-437.895354	31.368	
O	-0.2550238217	-0.0818167948	-0.0873056146	-0.373407
C	-0.0510978463	 1.2314538233	 0.0550035566	 0.399015
O	 1.0309490343	 1.7434082019	 0.118401188	-0.336353
C	-1.3741813283	 2.0352530378	 0.0633775223	-0.026022
C	-1.8076339539	 2.5439468313	-1.3613476583	-0.267068
C	-3.1701085919	 1.8639382996	-1.0958178797	-0.156385
N	-2.5724031508	 1.1329899419	 0.0568316517	-0.369895
H	-1.2345118192	-0.1865222244	-0.1072828577	 0.305375
H	-3.1125669006	 1.1525891321	 0.9158500576	 0.239074
C	-1.3818398619	 3.0537551983	 1.0964513433	 0.304973
C	-1.4413726567	 3.8784868822	 1.9687119556	-0.44117
H	-1.8063798372	 3.6246219169	-1.4863004561	 0.136313
H	-1.2286802362	 2.0791158542	-2.1603601497	 0.136608
H	-3.9477655054	 2.5764888458	-0.8022444541	 0.120585
H	-3.5638656099	 1.2063403064	-1.874822715	 0.121122
H	-1.4657557244	 4.6099310076	 2.7387251001	 0.207236
63.3666	117.2335	145.0277	185.3703	221.8327	319.4547	417.402	483.7698	496.1124	560.6395	637.6921	663.344	705.658	736.3549	748.7306	791.3452	878.0853	919.9612	940.7981	964.5149	1012.8047	1045.27	1104.1959	1159.123	1176.9911	1210.4313	1234.8928	1265.7867	1327.1731	1373.6555	1438.2095	1482.5137	1521.514	1877.1683	2235.5644	3046.6632	3094.6575	3102.6749	3168.3118	3428.9755	3499.6727	3529.9165
[O-]C(=O)C1(CC[NH2+]1)C#C	OC(=O)[C@]1(CCN1)C#C	
InChI=1S/C6H7NO2/c1-2-6(5(8)9)3-4-7-6/h1,7H,3-4H2,(H,8,9)	InChI=1S/C6H7NO2/c1-2-6(5(8)9)3-4-7-6/h1,7H,3-4H2,(H,8,9)/t6-/m1/s1
