14
gdb 129516	5.26854	1.0029	0.8432	2.0505	65.67	-0.2228	0.001	0.2237	1260.2766	0.103512	-466.225429	-466.217606	-466.216662	-466.258318	28.834	
N	-0.1757069359	 1.4102194393	 0.1188301588	-0.572991
C	 0.0939619762	 0.0539203988	 0.0411029171	 0.462954
O	 1.22236223	-0.4014140969	 0.0369813633	-0.383167
N	-1.0367707244	-0.736138808	 0.0112042772	-0.45305
C	-1.0090758801	-2.123353079	-0.0097464133	 0.414927
C	 0.0412989469	-3.0116066711	-0.0606668764	-0.154171
N	-0.590860774	-4.2148590809	-0.0637376812	-0.153827
N	-1.9209663767	-4.0917830473	-0.016647034	-0.115013
N	-2.1820116725	-2.8112892148	 0.0154666271	-0.28741
H	 0.6368479167	 1.9793538708	-0.0617378378	 0.266772
H	-1.0278712115	 1.7588467783	-0.292995533	 0.253292
H	-1.9520286753	-0.3335042776	 0.1392705054	 0.261423
H	 1.1052595759	-2.8773124102	-0.0873489634	 0.176259
H	-0.1830205452	-5.1355522714	-0.0929417996	 0.284003
73.0091	92.8093	166.0965	343.0143	357.3665	368.4625	391.8975	488.679	527.0159	576.3297	627.6494	688.7455	729.0561	766.188	782.0215	825.3874	983.4624	1004.1827	1051.1798	1077.1906	1104.9619	1137.8754	1260.7771	1286.7629	1338.8932	1369.6291	1476.9392	1571.2045	1629.2609	1633.0857	1800.5504	3335.6356	3580.5579	3634.4213	3660.2168	3696.1461
NC(=O)NC1=CNN=N1	NC(=O)Nc1c[nH]nn1	
InChI=1S/C3H5N5O/c4-3(9)6-2-1-5-8-7-2/h1H,(H4,4,5,6,7,8,9)	InChI=1S/C3H5N5O/c4-3(9)6-2-1-5-8-7-2/h1H,(H4,4,5,6,7,8,9)
