19
gdb 23448	3.51052	1.17569	1.04479	1.2186	78.96	-0.22	0.0029	0.2229	1194.9469	0.160756	-419.150005	-419.142035	-419.141091	-419.182734	30.989	
O	 0.0490302581	 1.3424169578	 0.2332766272	-0.392947
N	 0.0910582043	-0.0558812541	 0.39185833	-0.24212
C	-0.9929817283	-0.585690202	 0.0157275469	 0.420031
C	-2.3203693896	-0.1394387098	-0.5490766632	-0.279879
N	-2.7970828254	-1.5574309075	-0.4769613801	-0.096322
C	-3.0591445478	-2.1943307494	-1.7745776654	-0.168043
C	-1.6821227672	-2.5376103512	-2.3833818855	-0.221949
C	-0.851724685	-2.9191296904	-1.1431678885	-0.225245
C	-1.4333793982	-2.0314762968	-0.0200358682	-0.083398
H	 0.9130251555	 1.6105344264	 0.5640751285	 0.307524
H	-2.8999790596	 0.5491019327	 0.075108846	 0.128802
H	-2.2567024012	 0.2829556796	-1.5617205915	 0.116924
H	-3.6367377332	-3.1121727874	-1.6065618413	 0.102676
H	-3.6668738287	-1.5366739238	-2.4030562436	 0.105272
H	-1.7309261719	-3.3374911232	-3.1267346331	 0.100641
H	-1.2519917154	-1.658435686	-2.8759148818	 0.108122
H	-1.0068278235	-3.9730661542	-0.8885030248	 0.105304
H	 0.2217174136	-2.7619059137	-1.2703058514	 0.11868
H	-1.4419682965	-2.5393379269	 0.9490533898	 0.095927
65.2854	157.6436	193.4074	231.6037	328.1497	380.5255	394.2775	476.3114	541.1311	584.6893	631.9954	725.6142	781.2837	853.6916	873.1129	893.5806	903.1191	966.8424	971.3445	984.8075	997.5629	1044.097	1063.1323	1108.5085	1163.9261	1178.7134	1183.9162	1203.8652	1249.8705	1267.2383	1294.0194	1304.5709	1317.2218	1347.2904	1360.2266	1410.5414	1478.1008	1485.8023	1492.8865	1507.2395	1798.6292	3006.243	3023.9976	3045.009	3048.8626	3061.553	3063.4079	3087.8834	3100.3923	3113.3421	3817.192
ON=C1CN2CCCC12	ON=C1CN2CCC[C@@H]12	
InChI=1S/C6H10N2O/c9-7-5-4-8-3-1-2-6(5)8/h6,9H,1-4H2	InChI=1S/C6H10N2O/c9-7-5-4-8-3-1-2-6(5)8/h6,9H,1-4H2/t6-/m0/s1
