20
gdb 7442	2.93417	1.45272	1.2826	2.782	71.3	-0.2637	-0.0257	0.238	1078.2715	0.173794	-386.172513	-386.162665	-386.161721	-386.206943	35.538	
C	-0.2307576649	 1.4346413426	-0.0683355797	-0.394933
C	 0.0419954205	-0.0741884443	-0.0102640815	 0.01371
C	 0.7740063213	-0.5565230372	-1.2692220877	-0.391623
C	 0.8661566929	-0.449288769	 1.2490461427	 0.045547
O	 2.1165294559	 0.1870290517	 1.2394778768	-0.439712
C	 0.13547036	-0.1189999285	 2.5532876133	 0.366141
C	-1.2115582567	-0.7510383658	 2.8164403388	-0.481934
O	 0.6613441079	 0.6359085824	 3.3456595546	-0.324483
H	 0.7132142661	 1.9864328998	-0.0705181762	 0.13651
H	-0.7819741049	 1.6939352783	-0.9771285027	 0.112143
H	-0.8189299724	 1.7826014749	 0.7880651972	 0.110708
H	-0.9145623602	-0.6101327492	 0.0548954978	 0.069622
H	 1.757897713	-0.0847277399	-1.3421354009	 0.140944
H	 0.9206080815	-1.6418599017	-1.2534905669	 0.107635
H	 0.2043699115	-0.3058326202	-2.1696920768	 0.108647
H	 1.0063569492	-1.5456895034	 1.2406577566	 0.082424
H	 2.1476540406	 0.690012627	 2.0704424031	 0.292163
H	-1.2252308316	-1.8032877971	 2.5172302869	 0.140705
H	-1.4614596557	-0.6547116491	 3.8738141197	 0.149112
H	-1.979317334	-0.2372890212	 2.2264438848	 0.156675
76.895	84.7905	132.2555	173.1953	207.2127	239.026	263.7278	291.4159	356.7686	392.6961	418.8692	488.2355	539.692	592.0178	664.7283	788.5464	855.0953	928.0661	958.7008	968.8627	973.8102	1016.225	1053.1317	1131.6629	1162.0892	1201.305	1215.0187	1270.9623	1322.489	1347.186	1370.4827	1386.4365	1397.1247	1419.9816	1440.3112	1465.1039	1476.8509	1483.71	1496.7679	1502.0413	1514.8671	1790.4797	2939.6311	3015.0172	3033.1915	3037.2389	3043.0907	3097.4075	3100.6012	3106.5391	3118.2965	3123.0224	3152.2154	3661.4442
CC(C)C(O)C(C)=O	CC(C)[C@@H](O)C(=O)C	
InChI=1S/C6H12O2/c1-4(2)6(8)5(3)7/h4,6,8H,1-3H3	InChI=1S/C6H12O2/c1-4(2)6(8)5(3)7/h4,6,8H,1-3H3/t6-/m1/s1
