21
gdb 60594	2.85732	1.13972	0.88064	0.9934	78.62	-0.2377	0.0654	0.303	1360.3109	0.181772	-424.18629	-424.176789	-424.175845	-424.221494	34.573	
O	 0.1748483502	 1.6180597333	 0.0878600744	-0.436337
C	 0.1253355406	 0.1936478922	 0.0002120017	 0.086285
C	 0.695986624	-0.3301339913	-1.2952312707	-0.002014
C	 0.1823270464	-1.6195094663	-1.8843572504	-0.2475
C	-0.1358987479	-0.3082244589	-2.5532708048	-0.281924
C	 0.8167064357	-0.404537847	 1.2247649396	 0.149103
C	 0.1791013003	-0.1208987786	 2.5998996381	-0.294277
C	 0.0602646038	-1.654870525	 2.6989231005	-0.062546
O	 0.5852906466	-1.8264477873	 1.3635579213	-0.291675
H	 1.0576522107	 1.897699237	-0.1772181851	 0.278865
H	-0.940653467	-0.0621209787	 0.0536432824	 0.079778
H	 1.7626465717	-0.1411084236	-1.4134493755	 0.071891
H	 0.8975232337	-2.2830422274	-2.356924777	 0.111642
H	-0.6066468739	-2.1313074678	-1.34621174	 0.123163
H	-1.1476716263	 0.075799414	-2.4760076609	 0.116924
H	 0.3571018463	-0.0730578403	-3.4899763225	 0.109662
H	 1.8956371059	-0.1856542806	 1.175895611	 0.058748
H	 0.8206520514	 0.3602467664	 3.3387105501	 0.107968
H	-0.7681374879	 0.4180256771	 2.543850958	 0.118921
H	 0.7051537223	-2.1265815782	 3.4510978032	 0.100088
H	-0.9520023366	-2.064576919	 2.7959465865	 0.103236
62.9595	75.4758	89.4184	144.4306	197.5644	237.0138	244.5494	362.4108	395.4513	449.2901	528.8285	760.337	775.3705	826.1135	835.4713	858.5727	895.6655	941.744	950.397	968.5852	1014.3619	1033.4533	1051.4774	1066.8269	1075.6117	1081.7992	1131.995	1145.812	1157.8132	1173.7297	1195.3964	1209.9764	1226.8893	1255.2777	1261.1845	1280.9594	1293.4062	1358.1597	1397.2276	1400.4115	1434.1279	1473.7095	1493.233	1507.9234	1531.9276	2969.1291	3015.2834	3034.3364	3055.6317	3085.5822	3107.5941	3133.51	3139.6816	3144.5347	3213.0796	3230.9883	3807.0501
OC(C1CC1)C1CCO1	O[C@@H](C1CC1)[C@H]1CCO1	
InChI=1S/C7H12O2/c8-7(5-1-2-5)6-3-4-9-6/h5-8H,1-4H2	InChI=1S/C7H12O2/c8-7(5-1-2-5)6-3-4-9-6/h5-8H,1-4H2/t6-,7+/m1/s1
