14
gdb 124043	3.90959	1.70347	1.20811	4.9966	70.56	-0.2362	-0.0385	0.1977	942.4235	0.104073	-432.859605	-432.853236	-432.852292	-432.890522	24.545	
C	-0.0131589949	 1.4718973758	 0.0996937391	-0.148629
O	 1.3114312039	 2.051840824	 0.0205512035	-0.27574
C	 2.1518308999	 1.4426535804	-0.8279053088	 0.411378
C	 3.2991154138	 1.8290722201	-1.4718474078	-0.187284
N	 3.7899506275	 0.7366948748	-2.137390239	-0.177936
N	 3.026694779	-0.2928811705	-1.9445452842	-0.163482
N	 2.0080978013	 0.1261627473	-1.1350984299	-0.038695
C	 0.9859956885	-0.6602704344	-0.6072076631	 0.041972
C	 0.0003853891	-0.0340701751	 0.0343037537	-0.14689
H	-0.4201394794	 1.8294648271	 1.0478663735	 0.141539
H	-0.6266504213	 1.8950965825	-0.7111197694	 0.131852
H	 3.7885663566	 2.7871476405	-1.494257144	 0.133228
H	 1.0973864002	-1.7271128132	-0.7420125659	 0.152384
H	-0.8112965142	-0.5838557293	 0.4925673126	 0.126302
127.1239	149.6741	325.4147	407.4358	449.1932	531.9657	623.7797	678.6493	703.0241	720.9023	744.3097	815.7879	872.9768	925.8679	956.3232	980.0104	1025.7884	1035.3991	1110.0827	1154.2269	1194.6024	1236.8922	1265.0827	1313.7626	1353.1073	1395.2996	1402.1196	1496.8464	1504.7082	1622.3916	1716.3139	2982.6347	3104.8607	3219.5317	3247.5895	3288.9669
C1OC2=CN=NN2C=C1	C1Oc2cnnn2C=C1	
InChI=1S/C5H5N3O/c1-2-8-5(9-3-1)4-6-7-8/h1-2,4H,3H2	InChI=1S/C5H5N3O/c1-2-8-5(9-3-1)4-6-7-8/h1-2,4H,3H2
