18
gdb 133809	4.45669	0.59932	0.59088	2.8304	62.9	-0.2736	0.0756	0.3492	1887.4675	0.141899	-570.591512	-570.581471	-570.580526	-570.628468	34.259	
C	 0.0510934453	 1.466819443	 0.0083465187	-0.384658
C	-0.0356864691	-0.0613362072	 0.0017922855	-0.185178
C	-1.4733363027	-0.5583215214	 0.0131760309	-0.029707
O	-1.4627299803	-1.9757228603	 0.0061097671	-0.245339
C	-2.7407561815	-2.5377087284	 0.015704164	-0.195649
C	-2.5946749566	-4.0507096074	 0.0060871225	 0.271324
F	-1.9297336506	-4.4935576199	 1.0775130502	-0.071871
F	-3.8144558364	-4.6147717803	 0.0152559721	-0.082451
F	-1.9513645581	-4.4819028229	-1.0831496463	-0.071873
H	 1.0929963988	 1.7985062654	 0.000043725	 0.121869
H	-0.441725706	 1.8996841332	-0.8691789457	 0.118158
H	-0.4249102016	 1.8911458279	 0.8992247722	 0.118155
H	 0.4652305356	-0.4683255051	-0.8836801832	 0.113118
H	 0.4820926138	-0.4768184125	 0.8735135729	 0.113114
H	-2.0041191811	-0.1893203659	 0.9074885632	 0.090546
H	-2.0211894919	-0.1806182508	-0.8670994414	 0.09055
H	-3.3140067456	-2.2609026485	 0.9144015656	 0.114948
H	-3.3316193619	-2.251289589	-0.8684554333	 0.114946
41.5	46.0235	92.5289	121.8947	149.7124	208.8746	241.4397	305.0638	357.3249	382.2384	478.8414	536.8775	569.5697	673.2668	764.6466	856.2454	899.8601	918.1661	991.0508	1025.329	1060.9195	1146.0348	1183.0368	1183.665	1196.3396	1207.0002	1269.229	1294.548	1311.23	1315.5836	1333.3688	1409.3987	1416.0958	1465.7409	1491.0712	1500.2956	1502.2963	1508.9378	1530.4668	2951.4597	2980.173	2982.7864	3019.7546	3033.44	3042.7234	3075.768	3102.5441	3111.9904
CCCOCC(F)(F)F	CCCOCC(F)(F)F	
InChI=1S/C5H9F3O/c1-2-3-9-4-5(6,7)8/h2-4H2,1H3	InChI=1S/C5H9F3O/c1-2-3-9-4-5(6,7)8/h2-4H2,1H3
