21
gdb 59525	3.54306	1.04988	0.92258	1.2589	79.16	-0.2318	0.0691	0.3009	1352.6222	0.180156	-424.191046	-424.181427	-424.180483	-424.225239	36.436	
C	 0.0617686435	 1.3816230708	-0.2791170283	-0.409482
C	 0.0853615703	-0.1027076344	 0.0756619317	 0.103531
O	 0.5980525299	-0.3437216446	 1.3838778026	-0.430285
C	-1.2981473388	-0.7352132156	-0.0412798394	 0.127531
O	-1.9044189863	-0.5981393056	-1.358433121	-0.345318
C	-2.1988347975	-2.0098004301	-1.3846116624	 0.478336
C	-3.5227454266	-2.4212967304	-1.9383887916	-0.488689
C	-0.9208948945	-2.7869152248	-1.3983304959	-0.337165
C	-1.4617140593	-2.2503492497	-0.0829542578	-0.199244
H	 1.0641066668	 1.8104568377	-0.1963488004	 0.121057
H	-0.3070194655	 1.5242148869	-1.2984038421	 0.140975
H	-0.6052632618	 1.931634314	 0.397826638	 0.102495
H	 0.7735015541	-0.6259353461	-0.5966143051	 0.089781
H	 0.1121454043	 0.2199461818	 1.9964226499	 0.277638
H	-1.9623753631	-0.2819779565	 0.7118174085	 0.063979
H	-3.5859829211	-2.1731929225	-3.0041591633	 0.131802
H	-3.6620130423	-3.5012628049	-1.8350782456	 0.123256
H	-4.3420930955	-1.910754481	-1.422569889	 0.126334
H	-1.0282259173	-3.861612868	-1.5105173899	 0.112373
H	-0.03161507	-2.3674501893	-1.8598732267	 0.113323
H	-1.6998435091	-2.8860024076	 0.7585059379	 0.097772
74.2924	124.0877	137.1156	201.8647	246.1946	273.2661	280.8663	306.5737	355.5205	414.0934	439.9775	497.9001	530.938	653.3769	742.0141	810.8579	878.2052	894.3642	927.4702	959.4559	965.8119	975.9215	1014.5153	1028.8832	1056.1616	1069.2709	1089.1001	1117.6015	1122.0014	1179.1709	1203.3817	1263.2733	1281.2991	1290.294	1330.7024	1381.1091	1397.9446	1411.9942	1412.4968	1430.2462	1473.6865	1489.2051	1493.2809	1496.2241	1503.4497	2975.3566	3022.9867	3031.8047	3061.0017	3094.9188	3099.6617	3114.7411	3117.1573	3129.2853	3201.8297	3209.7649	3795.2391
CC(O)C1OC2(C)CC12	C[C@@H](O)[C@H]1O[C@@]2(C)C[C@@H]12	
InChI=1S/C7H12O2/c1-4(8)6-5-3-7(5,2)9-6/h4-6,8H,3H2,1-2H3	InChI=1S/C7H12O2/c1-4(8)6-5-3-7(5,2)9-6/h4-6,8H,3H2,1-2H3/t4-,5+,6-,7+/m1/s1
