16
gdb 96662	4.29538	0.80449	0.76913	4.1075	70.35	-0.265	-0.0887	0.1763	1504.1373	0.119516	-475.049065	-475.038908	-475.037964	-475.085679	33.689	
C	-0.5632325677	 1.7058946424	-0.4519343851	-0.329986
N	-0.69196218	 0.2666450419	-0.4035680559	-0.206231
C	 0.1934488538	-0.5038686921	-0.8337062028	 0.379752
C	 1.5254364897	-0.2775905842	-1.485552939	-0.492009
O	-0.1390456911	-1.8840147611	-0.7667545851	-0.248719
C	 0.511227135	-2.6544110603	 0.1310240681	 0.35094
O	 1.3682129149	-2.2983854098	 0.8887467522	-0.32806
C	-0.0347861692	-4.0887508278	 0.0287631365	 0.086438
O	 0.3988722839	-4.9764895138	 0.7048190092	-0.198377
H	 0.3514397757	 2.086784636	-0.9234047752	 0.112403
H	-1.4273535667	 2.115201905	-0.9857598678	 0.142245
H	-0.6113168292	 2.0924319354	 0.5715399844	 0.146788
H	 2.3119567729	-0.7031370387	-0.8564961647	 0.177021
H	 1.5531588985	-0.7888089521	-2.4529672181	 0.150068
H	 1.7294742145	 0.7815070082	-1.6399952455	 0.142309
H	-0.8481074551	-4.2197751589	-0.7119775412	 0.115417
42.4983	56.3521	110.0499	123.8168	128.8585	151.1205	255.3887	288.139	314.3189	375.7006	444.1477	512.33	582.3314	624.3238	759.9773	798.1775	920.4687	965.2659	1016.4892	1064.6179	1105.1948	1132.4708	1135.088	1184.0791	1215.508	1394.7979	1399.9426	1442.5207	1470.9168	1482.5884	1485.6806	1505.9229	1807.8197	1842.4439	1850.413	2946.4959	3013.7027	3054.9737	3083.8355	3094.6102	3120.9296	3157.364
CN=C(C)OC(=O)C=O	CN=C(C)OC(=O)C=O	
InChI=1S/C5H7NO3/c1-4(6-2)9-5(8)3-7/h3H,1-2H3	InChI=1S/C5H7NO3/c1-4(6-2)9-5(8)3-7/h3H,1-2H3
