20
gdb 84498	3.04848	1.37485	1.11685	2.0601	82.13	-0.2214	0.0157	0.2371	1155.0154	0.171232	-403.126476	-403.117822	-403.116878	-403.159452	33.869	
C	-0.0416304886	 1.6038067957	-0.0044249208	-0.423835
C	 0.0469912952	 0.0751062948	-0.010499646	-0.043664
C	 0.8310977827	-0.50636793	-1.170253615	-0.079128
C	 1.5987996208	-1.5270248056	-0.791727516	-0.153182
C	 1.4708451326	-1.78138078	 0.6675901282	 0.340282
C	 1.2714682061	-3.1693234269	 1.1833728355	-0.297021
N	 2.5041273367	-2.4315235713	 1.4784001203	-0.344813
C	 0.7648941887	-0.5433329073	 1.2360747099	-0.000405
O	 1.7742875096	 0.3072351077	 1.7572862064	-0.414537
H	 0.9544285745	 2.0515726298	 0.0418829862	 0.132537
H	-0.5342171649	 1.9633367124	-0.9134948913	 0.115382
H	-0.6274955495	 1.9697468532	 0.8473547942	 0.105071
H	-0.9778022852	-0.3256628949	-0.0443606208	 0.080447
H	 0.7269571389	-0.1377474071	-2.1850219637	 0.092718
H	 2.2196152524	-2.1394454807	-1.4375588486	 0.09141
H	 0.6266805858	-3.3430294547	 2.0416388703	 0.116859
H	 1.2940757008	-3.9835824445	 0.4622728496	 0.107054
H	 3.2684257538	-2.7482070228	 0.8864789317	 0.230161
H	 0.0465260253	-0.8090720183	 2.0233780577	 0.060839
H	 1.3401624941	 1.0540859804	 2.1804958322	 0.283825
67.006	199.5065	221.412	238.1049	264.5029	301.7351	309.3512	341.8935	438.1579	468.5453	570.6541	619.5373	720.7492	779.8011	831.9228	840.3685	866.6602	904.4331	929.0114	954.6902	962.6111	978.7976	1005.3269	1060.8497	1077.5083	1104.9113	1126.1317	1136.842	1156.377	1207.0679	1255.9435	1279.1444	1294.6704	1317.4542	1344.7494	1351.5027	1389.4733	1411.3965	1441.7476	1497.5056	1507.9622	1509.9202	1675.7262	2980.3943	3008.6916	3028.5715	3090.973	3094.8861	3119.6677	3174.8139	3179.6099	3200.4822	3495.486	3826.9837
CC1C=CC2(CN2)C1O	C[C@H]1C=C[C@]2(CN2)[C@H]1O	
InChI=1S/C7H11NO/c1-5-2-3-7(4-8-7)6(5)9/h2-3,5-6,8-9H,4H2,1H3	InChI=1S/C7H11NO/c1-5-2-3-7(4-8-7)6(5)9/h2-3,5-6,8-9H,4H2,1H3/t5-,6-,7-/m0/s1
