14
gdb 27515	2.03617	1.87514	0.97617	2.9063	68.69	-0.2252	-0.0132	0.2121	1106.1688	0.103352	-470.083449	-470.075905	-470.074961	-470.1155	29.122	
O	-0.1377821202	 1.3141624151	 0.1076459687	-0.409015
C	 0.0593723292	-0.0089793632	-0.0266365763	 0.528054
C	 1.2363247414	-0.6644525132	 0.1326255923	-0.454069
C	 1.2807310256	-2.0985922373	-0.0482794935	 0.451068
O	 2.2572963415	-2.8137903235	 0.0609213519	-0.387082
N	 0.0327664796	-2.6737174045	-0.3857218136	-0.4332
C	-1.1807268807	-2.032252993	-0.554447942	 0.469787
N	-2.3162767301	-2.5271142024	-0.85763378	-0.57077
N	-1.0925487677	-0.6560543501	-0.353494858	-0.383058
H	 0.6979304641	 1.735169727	 0.3383253486	 0.32093
H	 2.1503118866	-0.1500842577	 0.3920265026	 0.109167
H	 0.0587718034	-3.6747271172	-0.5131341178	 0.259214
H	-2.267366177	-3.5352933238	-0.9811520186	 0.216216
H	-1.9491879157	-0.1356348762	-0.4635554742	 0.28276
121.048	160.5702	194.9423	349.9756	375.7135	400.4164	505.2828	513.9933	523.604	584.8922	593.3644	648.4306	681.5951	709.4325	721.036	772.3388	785.888	959.7612	1003.7031	1061.2347	1131.7402	1205.0734	1236.2387	1256.2174	1359.2944	1396.9156	1449.6981	1570.6805	1685.3452	1750.5201	1794.8981	3235.7257	3525.68	3626.5074	3648.015	3826.6036
OC1=CC(=O)NC(=N)N1	OC1=CC(=O)N[C]([NH])N1	
InChI=1S/C4H5N3O2/c5-4-6-2(8)1-3(9)7-4/h1H,(H4,5,6,7,8,9)	InChI=1S/C4H5N3O2/c5-4-6-2(8)1-3(9)7-4/h1H,(H4,5,6,7,8,9)
