14
gdb 45356	2.55638	1.84563	1.22203	5.6719	61.93	-0.264	-0.0137	0.2502	962.2245	0.103121	-473.889078	-473.88215	-473.881206	-473.92087	25.914	
O	 0.0729546768	 0.0951944182	-0.6288293152	-0.301262
C	 0.0704165898	 1.1715683734	-0.1368474191	 0.461844
O	-0.9526170927	 1.7870721184	 0.5533560439	-0.254209
C	-0.1872870853	 3.0296596653	 0.6874495917	 0.116109
C	 0.2023509576	 3.3216283149	 2.1386635288	-0.191912
N	 1.4675274263	 2.6265869776	 2.2877352759	-0.311139
C	 2.0515452106	 2.1578754337	 1.1397196809	 0.416231
O	 3.1465634742	 1.6625664389	 1.0374419019	-0.359307
C	 1.0238973896	 2.3680557278	 0.014160679	-0.356615
H	-0.7016721987	 3.8458525002	 0.1826771338	 0.114817
H	 0.3069482487	 4.4019028323	 2.3036493555	 0.122028
H	-0.5636048655	 2.9404524166	 2.822557237	 0.141467
H	 1.9771735048	 2.5900936611	 3.1564825339	 0.262928
H	 1.4694090739	 2.7601553117	-0.8969954479	 0.139021
102.6309	146.1695	163.1976	347.0673	450.6256	477.8716	511.3502	591.2658	639.1088	728.4737	737.0077	812.7782	855.6804	884.4272	938.0504	987.759	993.9256	1042.6782	1080.4419	1113.7536	1175.78	1218.503	1228.664	1249.1061	1293.5069	1332.0725	1372.8923	1451.6011	1517.0763	1842.1584	1955.0994	3018.876	3072.1409	3131.6234	3158.3566	3643.2001
O=C1OC2CNC(=O)C12	O=C1O[C@H]2CNC(=O)[C@@H]12	
InChI=1S/C5H5NO3/c7-4-3-2(1-6-4)9-5(3)8/h2-3H,1H2,(H,6,7)	InChI=1S/C5H5NO3/c7-4-3-2(1-6-4)9-5(3)8/h2-3H,1H2,(H,6,7)/t2-,3-/m0/s1
