17
gdb 83065	2.74089	1.4556	1.23738	1.5737	80.78	-0.2244	-0.0001	0.2242	1063.2862	0.135304	-384.648217	-384.640168	-384.639224	-384.680346	31.973	
O	 0.069899466	 1.3599087651	 0.0508009227	-0.421741
C	-0.0504672552	-0.0200711519	-0.0041051884	 0.096472
C	-1.370261174	-0.726685644	 0.0029569683	-0.151062
C	-2.6062916465	 0.1069139548	-0.3297062575	-0.284872
C	-2.3512584667	 0.5978877864	-1.739716685	-0.105889
C	-1.2249855665	 0.0954897515	-2.2556508817	-0.161183
C	-0.4877869762	-0.7662705853	-1.2795253867	 0.090114
C	 0.2331086746	-1.9196423925	-1.7177345808	 0.176109
C	 0.8516289878	-2.8853284521	-2.0836232795	-0.396345
H	-0.4593508459	 1.7310917708	-0.6683730941	 0.28645
H	 0.7594213585	-0.4935159234	 0.5401164214	 0.118978
H	-1.4757226782	-1.6200919134	 0.6066278324	 0.103502
H	-3.5274414074	-0.4852770937	-0.2732014239	 0.120237
H	-2.7241481406	 0.9399716494	 0.3762100138	 0.125256
H	-3.0187218528	 1.2842524954	-2.2485019708	 0.106199
H	-0.8394778569	 0.2839105837	-3.2503736701	 0.111928
H	 1.3937694301	-3.7386501308	-2.40743573	 0.185845
133.2793	150.5982	202.0335	226.4399	343.0979	403.6169	435.1686	483.2082	510.5254	564.2701	589.5738	613.913	651.116	722.7876	747.8741	775.5622	853.252	863.5242	936.3241	953.8928	970.5302	1006.024	1041.3001	1070.1416	1099.2564	1146.3731	1183.5832	1211.0337	1238.6756	1304.8554	1326.642	1339.9299	1386.6802	1447.1646	1473.9647	1658.7346	2231.7377	3022.513	3053.6741	3176.6298	3187.2949	3192.4917	3217.9816	3503.5038	3740.7395
OC1C2CC=CC12C#C	O[C@H]1[C@H]2CC=C[C@@]12C#C	
InChI=1S/C8H8O/c1-2-8-5-3-4-6(8)7(8)9/h1,3,5-7,9H,4H2	InChI=1S/C8H8O/c1-2-8-5-3-4-6(8)7(8)9/h1,3,5-7,9H,4H2/t6-,7+,8-/m1/s1
