18
gdb 37566	3.78047	1.68071	1.45036	1.7091	75.57	-0.2344	0.0586	0.293	930.3471	0.149559	-401.819754	-401.813147	-401.812203	-401.850745	26.934	
C	-0.0154946135	 1.5885463894	-0.0500538057	-0.192397
C	 1.4690118862	 1.2516394578	-0.0332243516	-0.101879
C	 1.2036261384	 0.1151592358	 0.9781995966	-0.064264
C	 1.8582938436	-0.9647330051	 0.1011888555	 0.08846
O	 3.1954638777	-0.9354736243	-0.348663284	-0.292786
C	 3.1388114527	-0.7804146351	-1.79634631	-0.062071
C	 1.6691111208	-0.3894561188	-2.2290727143	-0.433227
C	 1.1608728894	-0.0488829586	-0.8573012666	 0.395325
N	-0.0952880766	 0.0655569224	 0.0535376308	-0.241196
H	-0.4346928199	 2.1003897132	 0.8222557019	 0.101426
H	-0.4554651189	 1.9819429034	-0.9722018766	 0.101875
H	 2.3516793282	 1.8935241047	-0.0935653198	 0.074643
H	 1.0730731746	 0.1861486317	 2.0594218289	 0.084082
H	 1.4675231832	-1.9822079975	 0.2269834033	 0.077954
H	 3.8566188392	-0.0005048548	-2.0674597216	 0.115427
H	 3.4499404488	-1.7172216616	-2.272035129	 0.110667
H	 1.6633196892	 0.425207548	-2.9566318146	 0.114334
H	 1.1438669266	-1.2492308707	-2.6552031533	 0.123631
94.2581	223.3078	275.0417	311.9922	504.0367	535.4274	662.1989	676.0005	722.2645	790.6361	831.6995	861.735	870.442	890.3424	908.244	921.2062	947.8637	962.9565	998.2577	1050.8809	1075.6284	1078.853	1099.4482	1115.2927	1151.3183	1170.4632	1183.9807	1202.1751	1219.5083	1236.5604	1268.5144	1272.7961	1301.4612	1316.8625	1371.5595	1383.0986	1488.214	1517.7027	1519.9054	3030.2606	3036.6499	3038.0001	3060.9881	3072.407	3081.4048	3096.6989	3103.8696	3116.2967
C1C2C3C4OCCC24N13	C1[C@H]2[C@@H]3[C@@H]4OCC[C@]24N13	
InChI=1S/C7H9NO/c1-2-9-6-5-4-3-8(5)7(1,4)6/h4-6H,1-3H2	InChI=1S/C7H9NO/c1-2-9-6-5-4-3-8(5)7(1,4)6/h4-6H,1-3H2/t4-,5+,6-,7-/m0/s1
