13
gdb 7946	3.79443	1.8536	1.28889	1.1167	55.8	-0.2831	-0.0256	0.2575	871.5853	0.095766	-435.785849	-435.778889	-435.777944	-435.817325	25.478	
O	 0.1722363894	 1.2854453076	 0.4242901594	-0.429189
C	-0.0290615137	-0.0444467099	 0.0324100525	 0.010443
C	-1.4984608743	-0.4063230325	-0.1795400475	-0.319483
C	-1.4459490856	-1.3751443676	-1.3375196632	 0.407318
N	-2.3180887422	-2.2083831598	-1.6765313261	-0.505627
O	-0.2374988598	-1.195024741	-2.025369413	-0.210232
C	 0.578083039	-0.3316301577	-1.340247141	 0.399476
O	 1.5925785896	 0.1111726751	-1.7862154975	-0.326513
H	 1.0488173626	 1.5416881519	 0.1080734512	 0.302152
H	 0.43774326	-0.7511120659	 0.7403106327	 0.116146
H	-2.000990542	-0.8445060247	 0.6813353329	 0.152974
H	-2.0437750969	 0.495268355	-0.4797579333	 0.160494
H	-2.034495696	-2.7311270805	-2.5067170071	 0.24204
89.4241	140.067	234.2573	340.3816	374.4345	419.0127	509.1879	553.315	606.3063	635.5916	735.3485	815.1719	893.3927	916.8571	978.5137	1037.0733	1049.4328	1122.2213	1153.7327	1174.4812	1261.7199	1277.6472	1315.4499	1370.6591	1419.6943	1471.038	1801.5216	1910.3378	2958.9409	3065.1788	3151.8297	3483.6599	3770.7184
OC1CC(=N)OC1=O	O[C@H]1C[C]([NH])OC1=O	
InChI=1S/C4H5NO3/c5-3-1-2(6)4(7)8-3/h2,5-6H,1H2	InChI=1S/C4H5NO3/c5-3-1-2(6)4(7)8-3/h2,5-6H,1H2/t2-/m0/s1
