19
gdb 36087	3.62287	1.18551	1.12414	1.9054	80.39	-0.239	0.055	0.294	1159.6137	0.159394	-385.836798	-385.828839	-385.827895	-385.869392	31.69	
C	-0.014276317	-1.2160011258	-0.1991969472	-0.45991
C	 0.0063332084	-0.0313264865	-0.0003583306	 0.323462
C	 0.02770859	 1.4108289718	 0.2198762468	-0.464539
C	 1.3944431488	 2.03061229	 0.0112913711	 0.464514
C	 2.2384192587	 1.9203067364	-1.2848236827	-0.263873
C	 3.0405124207	 3.0480737235	-0.5616633662	-0.078661
C	 1.6607294914	 3.5598444141	-0.0402028382	-0.280904
C	 3.5235831392	 2.2785892741	 0.6730018022	-0.073773
O	 2.3085807454	 1.5842554207	 1.032591724	-0.311234
H	-0.0301977756	-2.2648265454	-0.3626453328	 0.194459
H	-0.6838924927	 1.8979501775	-0.4578455421	 0.129762
H	-0.3013636331	 1.6383161567	 1.2416889367	 0.140412
H	 2.7316745986	 0.9645402422	-1.4735481851	 0.107564
H	 1.7145650167	 2.2759707548	-2.1737197784	 0.100199
H	 3.7534100725	 3.6912593021	-1.0752287939	 0.073845
H	 1.0832481646	 4.0765251012	-0.8089751561	 0.099711
H	 1.6302263454	 4.1028846091	 0.907938244	 0.098701
H	 4.3201839044	 1.5574232222	 0.4553348524	 0.101249
H	 3.8439283336	 2.9269378513	 1.497214476	 0.099017
66.7734	108.6735	266.4704	290.0338	342.5206	370.7686	430.5603	493.4502	518.8895	614.5924	637.4211	648.8677	705.1757	829.0087	855.4745	868.8424	898.1297	909.9848	950.1174	965.3711	984.0884	988.796	999.802	1057.549	1093.058	1104.0162	1141.4482	1147.4402	1188.9661	1205.693	1246.6436	1268.9067	1292.4681	1309.1594	1354.0014	1375.7381	1456.0883	1474.8406	1508.7225	1533.2798	2242.3801	3021.9961	3026.8055	3061.2867	3062.971	3064.2217	3074.2233	3130.054	3132.1237	3140.4314	3507.5083
C#CCC12CC(C1)CO2	C#CC[C@@]12C[C@@H](C1)CO2	
InChI=1S/C8H10O/c1-2-3-8-4-7(5-8)6-9-8/h1,7H,3-6H2	InChI=1S/C8H10O/c1-2-3-8-4-7(5-8)6-9-8/h1,7H,3-6H2/t7-,8+
