17
gdb 104840	2.15937	1.4432	1.35246	4.0721	63.81	-0.2671	-0.0034	0.2637	1058.5379	0.135701	-496.110929	-496.102179	-496.101234	-496.144557	31.856	
O	 0.2119030025	 1.3862346259	 0.1449528573	-0.41704
C	 0.1100401623	 0.0034862791	-0.0747274336	-0.100522
C	-1.3375504973	-0.522979937	-0.0636971868	 0.023166
C	-2.1889879644	 0.0771872774	-1.1920978574	-0.13378
O	-2.3333275711	 1.482856834	-1.0243474176	-0.418547
C	-1.4691481226	-2.0387290229	 0.1992638653	-0.139115
O	-2.1053103208	-1.7694369589	 1.4946677024	-0.241939
C	-2.0692627375	-0.4187290831	 1.2753045637	 0.462438
O	-2.564310714	 0.4482231157	 1.9272235385	-0.340218
H	-0.4645559703	 1.8144196274	-0.3993458738	 0.293899
H	 0.5621455415	-0.2999639141	-1.0369478617	 0.09049
H	 0.6849307014	-0.487483059	 0.7190763472	 0.113398
H	-1.6989950341	-0.0687644656	-2.1608737055	 0.124636
H	-3.1708059483	-0.4168526259	-1.2347083158	 0.110615
H	-2.7429813872	 1.6300257422	-0.1596172365	 0.310385
H	-2.1531214655	-2.5881110366	-0.4514307479	 0.129661
H	-0.5356076247	-2.5892193988	 0.3301308121	 0.132471
98.4023	109.4544	128.0626	184.6527	234.147	295.3571	331.5456	388.2081	439.5146	446.5615	534.3465	654.0923	747.0101	756.8573	797.1841	910.0429	937.2428	953.2799	979.1744	1054.6573	1063.6378	1111.59	1138.4725	1153.0423	1164.8255	1201.3895	1257.6918	1296.159	1355.0913	1371.8992	1401.3626	1432.6261	1468.9051	1502.3306	1513.0208	1517.1455	1911.6196	2934.1232	2996.5189	3053.2535	3070.6539	3072.4271	3132.3874	3718.8152	3746.9071
OCC1(CO)COC1=O	OCC1(CO)COC1=O	
InChI=1S/C5H8O4/c6-1-5(2-7)3-9-4(5)8/h6-7H,1-3H2	InChI=1S/C5H8O4/c6-1-5(2-7)3-9-4(5)8/h6-7H,1-3H2
