19
gdb 8553	2.80661	2.72263	1.68566	1.6328	75.04	-0.2329	0.093	0.326	842.3115	0.16576	-327.886315	-327.878773	-327.877829	-327.917535	29.595	
C	-0.0884608231	 1.4763034699	 0.0223423675	-0.500579
C	 0.1113248812	-0.0081925912	-0.0292233603	 0.299458
C	 0.0077784241	-0.8736841206	-1.2781176255	-0.2828
C	-0.2466484178	-2.0147338573	-0.2816196504	-0.002816
C	 1.0717367006	-2.2047570148	 0.4835523255	-0.282806
C	 0.7648750301	-0.8260851968	 1.0532615376	 0.299488
C	 1.3079349166	-0.271413947	 2.3353462152	-0.500583
N	-0.7175213424	-0.9761149973	 0.7873665868	-0.238552
H	 0.7701791138	 2.0004492614	-0.4136734614	 0.119528
H	-0.9811731401	 1.7626154465	-0.5438803754	 0.123954
H	-0.2175561049	 1.8331088581	 1.0471992296	 0.128289
H	-0.8943800281	-0.6192591973	-1.8425653484	 0.104166
H	 0.8615102246	-0.9527186706	-1.9607836488	 0.089345
H	-0.892131822	-2.8557094232	-0.5272080329	 0.078621
H	 0.9817944413	-2.9664911233	 1.2638631424	 0.10415
H	 1.9924887921	-2.3674931081	-0.0881839077	 0.089362
H	 2.362367693	 0.0074641783	 2.2235553603	 0.119529
H	 0.756546211	 0.6144581447	 2.6601726428	 0.128283
H	 1.2393695499	-1.0168814913	 3.1347819032	 0.123965
142.8181	163.4989	215.8823	266.2088	320.2246	362.4489	414.9705	464.5514	589.9262	645.0939	733.8601	740.0577	815.7573	859.2591	902.5154	936.0221	957.2291	965.7375	994.2306	1031.7301	1041.3201	1094.6933	1096.8623	1159.4689	1182.4154	1189.4825	1222.668	1266.3665	1278.8638	1289.1114	1355.785	1403.3968	1414.2707	1427.1025	1477.1004	1485.201	1488.8842	1489.4503	1502.0912	1512.0807	3028.4157	3030.368	3030.7866	3035.9904	3089.0113	3090.3166	3091.4509	3092.3993	3114.5502	3123.0581	3135.0457
CC12CC3CC1(C)N23	C[C@@]12C[C@H]3C[C@]1(C)N23	
InChI=1S/C7H11N/c1-6-3-5-4-7(6,2)8(5)6/h5H,3-4H2,1-2H3	InChI=1S/C7H11N/c1-6-3-5-4-7(6,2)8(5)6/h5H,3-4H2,1-2H3/t5-,6+,7-,8?
