20
gdb 103866	3.12109	1.03307	0.89624	0.8913	75.51	-0.2374	0.0608	0.2982	1345.817	0.170187	-440.227546	-440.218118	-440.217174	-440.261905	35.468	
O	-0.1432384476	 1.2925100956	-0.6015191252	-0.435161
C	 0.0140990697	-0.0193092206	-0.055519822	-0.160915
C	-1.3786223178	-0.5759683943	 0.0974460179	 0.441062
O	-2.1878956367	 0.2306272623	 0.9060762467	-0.4795
C	-2.0351085191	-1.3030053688	-1.0570334326	-0.374825
C	-1.6388061518	-2.0472431296	 0.2070266827	-0.089482
C	-0.5522622707	-3.0818166825	 0.2586622881	-0.022423
C	-0.6899497223	-4.3630178163	-0.4792363757	-0.237815
N	 0.3297986621	-3.3775327167	-0.8826918407	-0.316356
H	 0.6696331957	 1.7829704841	-0.4516195672	 0.29314
H	 0.629755139	-0.654662194	-0.7048660656	 0.105815
H	 0.4939909734	 0.0276681576	 0.9327748446	 0.099366
H	-2.0699976564	 1.1280312467	 0.567820521	 0.287471
H	-3.0917620002	-1.1247099533	-1.2171916954	 0.12042
H	-1.4574108276	-1.4476914923	-1.9654661673	 0.109013
H	-2.4713711082	-2.266404022	 0.8718588537	 0.106889
H	-0.0213949259	-3.1143784036	 1.2091623807	 0.096451
H	-0.3001756452	-5.2857506651	-0.0591055709	 0.116726
H	-1.5663036247	-4.4816449994	-1.1113015282	 0.113898
H	 0.0010483943	-2.8877591477	-1.7115217746	 0.226229
69.4623	115.4345	121.1531	175.5748	256.5794	264.1804	312.9463	321.0257	390.4576	424.7774	474.2015	549.8484	611.2615	726.5118	762.2766	837.8796	877.7623	913.4735	927.9845	952.9411	971.2982	999.8485	1025.266	1045.5858	1054.3003	1074.673	1117.492	1138.7988	1155.7522	1192.8492	1210.1348	1236.1657	1259.7491	1283.5765	1295.6561	1307.9722	1374.884	1410.931	1425.9507	1457.3547	1505.3409	1509.6671	1511.5339	2997.639	3047.5285	3108.1193	3112.2215	3127.8852	3136.7785	3195.334	3221.7041	3496.4044	3768.5919	3840.9146
OCC1(O)CC1C1CN1	OC[C@@]1(O)C[C@H]1[C@H]1CN1	
InChI=1S/C6H11NO2/c8-3-6(9)1-4(6)5-2-7-5/h4-5,7-9H,1-3H2	InChI=1S/C6H11NO2/c8-3-6(9)1-4(6)5-2-7-5/h4-5,7-9H,1-3H2/t4-,5+,6-/m0/s1
