19
gdb 41908	2.22326	1.99186	1.75669	0.7046	70.05	-0.2465	0.0696	0.316	914.2328	0.162496	-460.150231	-460.14303	-460.142086	-460.181931	28.467	
C	 0.0308500295	 1.5427603873	-0.0694039459	-0.081227
O	 1.3426773721	 2.0801157922	 0.0656557823	-0.276221
C	 2.3297799608	 1.1146001972	 0.41724967	 0.051633
C	 1.8193842263	 0.1980281634	 1.5339440731	-0.072281
O	 0.5790310291	-0.4327176831	 1.2035889611	-0.266929
C	 0.0189955294	 0.0162309346	-0.0194344106	 0.05328
C	 0.7055015772	-0.6768090999	-1.2264177989	-0.091795
O	 2.0933307376	-0.8605805036	-1.056465225	-0.229644
C	 2.8206444553	 0.3253136136	-0.8130240846	-0.090223
H	-0.5974237937	 1.921157755	 0.7487100066	 0.10479
H	-0.3960806321	 1.899406692	-1.0159118417	 0.10166
H	 3.1742608161	 1.6988216154	 0.8000315277	 0.08798
H	 2.5583468756	-0.5835671638	 1.7475916698	 0.111113
H	 1.6747299376	 0.7946450251	 2.4444274203	 0.102845
H	-1.0297177639	-0.3039676708	-0.0096246587	 0.086992
H	 0.2988089949	-1.685197099	-1.3403114957	 0.114945
H	 0.4834012863	-0.1112357638	-2.1477271483	 0.086495
H	 2.7962518031	 1.0014923477	-1.6824200689	 0.097968
H	 3.8548157188	 0.0019983404	-0.6555589827	 0.108619
71.9542	239.0646	259.1811	301.5989	353.6653	387.6137	478.768	486.7585	563.5318	760.9714	783.0029	787.3661	869.5124	897.3257	921.0703	941.7927	952.4045	993.8996	1034.6184	1071.0965	1086.4888	1106.7939	1158.0385	1169.229	1192.3464	1239.2558	1263.7143	1281.9547	1308.3031	1339.0852	1349.6972	1357.8986	1364.6362	1386.48	1406.2339	1417.875	1423.8841	1481.6386	1494.7143	1508.7246	1517.4407	2962.5046	2984.8159	3003.2713	3010.0105	3041.149	3042.2594	3049.3106	3054.8618	3078.5714	3091.3122
C1OC2COC1COC2	C1O[C@H]2CO[C@@H]1COC2	
InChI=1S/C6H10O3/c1-5-3-9-6(2-7-1)4-8-5/h5-6H,1-4H2	InChI=1S/C6H10O3/c1-5-3-9-6(2-7-1)4-8-5/h5-6H,1-4H2/t5-,6-/m1/s1
