21
gdb 52674	2.63754	0.9381	0.8489	1.9889	87.48	-0.2487	0.039	0.2877	1512.7712	0.179333	-387.053735	-387.042765	-387.041821	-387.091175	38.899	
C	 0.1743537311	 1.4217473552	 0.254000973	-0.49947
C	 0.0716193489	-0.0221578072	 0.0976697734	 0.048549
C	-0.0059143558	-1.2193251076	-0.0157879648	 0.072751
C	-0.1404492624	-2.6697812092	-0.1909543537	-0.127022
O	-1.5114883403	-3.0521508544	-0.3277086522	-0.425734
C	 0.712130817	-3.1911420555	-1.3493611578	 0.399651
C	 0.3422328257	-2.6534433417	-2.7162760963	-0.482645
C	 2.1598690071	-3.4810280642	-1.041447909	-0.301891
C	 1.1848539244	-4.6181566967	-1.2369266461	-0.317199
H	 1.2140895632	 1.7553182907	 0.165357125	 0.15167
H	-0.4071319476	 1.9472413181	-0.51147538	 0.148847
H	-0.196427298	 1.7444026907	 1.2329899992	 0.151326
H	 0.1996450804	-3.1693317349	 0.7254519093	 0.102698
H	-1.9440227557	-2.3819816052	-0.8664326206	 0.284187
H	 0.4332592452	-1.5623709725	-2.7500452955	 0.122859
H	 0.99353342	-3.0706620686	-3.4897787218	 0.1134
H	-0.6886918173	-2.9206305373	-2.9739934205	 0.11494
H	 2.8920105634	-3.2887215087	-1.8184476612	 0.108229
H	 2.5219500579	-3.2841813653	-0.0373198883	 0.111548
H	 0.8840801524	-5.1918918301	-0.366560566	 0.114739
H	 1.2534453403	-5.2021503557	-2.148569346	 0.108567
19.9727	58.0098	85.6697	141.6594	196.2457	224.5919	239.0499	260.9242	292.2043	324.4589	350.2488	377.4324	472.1568	498.0494	585.127	761.7999	775.2739	803.4111	878.5812	920.5155	954.0484	960.3188	1031.2076	1041.7544	1052.8473	1054.2988	1072.0782	1078.6874	1129.4809	1158.1754	1186.3026	1253.801	1276.561	1319.6042	1382.7089	1410.3837	1415.8681	1418.4362	1470.5022	1477.2977	1478.6772	1490.5613	1502.9548	1512.0084	2363.1442	3022.4139	3028.4156	3029.0893	3089.4414	3090.4631	3092.5906	3105.5447	3126.5643	3131.2464	3203.6578	3217.8723	3823.6052
CC#CC(O)C1(C)CC1	CC#C[C@@H](O)C1(C)CC1	
InChI=1S/C8H12O/c1-3-4-7(9)8(2)5-6-8/h7,9H,5-6H2,1-2H3	InChI=1S/C8H12O/c1-3-4-7(9)8(2)5-6-8/h7,9H,5-6H2,1-2H3/t7-/m1/s1
