18
gdb 83134	2.09514	1.79895	1.45058	2.405	73.25	-0.2412	0.0166	0.2578	1009.453	0.147946	-439.09258	-439.084212	-439.083268	-439.125146	32.159	
C	-0.1194996865	 1.5635394822	 0.0694432172	-0.430305
C	 0.0519522798	 0.0618849659	-0.0137533403	-0.074945
C	 0.6852891096	-0.6678324538	-1.1849501022	-0.173334
C	 1.6030304413	 0.1451079032	-2.0761811153	-0.11145
O	 2.6397822058	 0.6896772357	-1.2193942734	-0.242793
C	 2.6135939467	 0.0846697312	-0.0033758367	 0.354924
N	 3.5281184825	 0.1026288093	 0.8694614846	-0.577636
C	 1.3532908211	-0.6856523677	 0.1758722482	 0.351527
O	 1.4251378983	-1.7780274371	 1.0203687828	-0.473372
H	 0.739272574	 2.1024243471	-0.3390512801	 0.134958
H	-1.0105505106	 1.8840841392	-0.4818372181	 0.118758
H	-0.2419653485	 1.8777077679	 1.1108517911	 0.130268
H	-0.7655519136	-0.5078352317	 0.4223011595	 0.106482
H	 0.2038229392	-1.5471076331	-1.5943694294	 0.10944
H	 2.0827805721	-0.4767915795	-2.8395207923	 0.124457
H	 1.115088848	 0.992384319	-2.5674841125	 0.123812
H	 4.3536482153	 0.6085809821	 0.5503201672	 0.229935
H	 2.2392739057	-1.6488766001	 1.5301358597	 0.299273
111.4762	179.9311	197.4608	220.155	246.3283	295.9734	336.3478	411.9425	474.9282	519.5378	584.0098	678.1733	696.4254	770.828	802.056	870.0912	891.0728	894.006	966.5882	992.7421	1011.232	1046.6201	1076.9058	1108.7964	1123.6273	1139.1053	1199.6449	1227.7432	1244.729	1317.8979	1350.9989	1382.697	1421.1395	1433.685	1479.2656	1498.0095	1505.6484	1521.194	1771.8086	3034.8769	3044.3226	3088.4572	3095.0702	3115.8856	3144.4213	3194.7701	3499.5934	3722.7783
CC1C2COC(=N)C12O	C[C@H]1[C@H]2CO[C]([NH])[C@@]12O	
InChI=1S/C6H9NO2/c1-3-4-2-9-5(7)6(3,4)8/h3-4,7-8H,2H2,1H3	InChI=1S/C6H9NO2/c1-3-4-2-9-5(7)6(3,4)8/h3-4,7-8H,2H2,1H3/t3-,4+,6+/m0/s1
