20
gdb 120996	3.78288	0.89046	0.83743	2.8326	74.96	-0.23	0.0689	0.299	1431.6306	0.171535	-440.223818	-440.215085	-440.214141	-440.257919	32.57	
O	-0.0024265666	 1.3667266445	 0.143362808	-0.420629
C	-0.0382150788	-0.0523288822	 0.1280175852	-0.060508
C	-1.4376549773	-0.6089198622	-0.1355250911	-0.200062
C	-1.4684016186	-2.1282471757	-0.1612077156	 0.00243
N	-1.1195639236	-2.8001613367	 1.1366416346	-0.335841
C	-2.3274710882	-3.6603696799	 1.0619870506	-0.054174
C	-3.5129104558	-3.0393587569	 1.8168454801	-0.060702
O	-3.8415389212	-2.2038167927	 0.6736646598	-0.292353
C	-2.843655804	-2.8424677677	-0.1453121302	 0.0851
H	-0.5719850149	 1.6624947774	 0.8607896273	 0.280204
H	 0.6468673014	-0.3523243512	-0.6740297641	 0.100631
H	 0.3514220774	-0.4747670579	 1.0669324084	 0.096885
H	-2.1265519536	-0.2664721948	 0.6455793071	 0.103235
H	-1.8076223207	-0.2173470248	-1.0912713001	 0.101751
H	-0.8659552075	-2.5101341849	-0.9992074241	 0.067208
H	-0.2516163213	-3.321088808	 1.1016436711	 0.22118
H	-2.1770828239	-4.7399471831	 1.0935508726	 0.078692
H	-4.3353728346	-3.7298591766	 2.0442297761	 0.098238
H	-3.2497610895	-2.4543272026	 2.7037495447	 0.109512
H	-3.2519631187	-3.2203534038	-1.0853065404	 0.079203
71.2141	100.6854	118.6706	146.4094	261.9437	303.7026	359.3998	396.9605	437.6915	561.7942	673.8882	737.7239	785.4736	796.9482	827.86	901.0614	927.4489	954.2255	1004.4817	1005.97	1037.6058	1062.1298	1067.3017	1079.9989	1096.523	1123.5264	1157.3891	1170.2831	1189.4994	1213.3002	1245.8745	1279.9458	1299.2357	1309.0311	1345.4307	1353.2129	1381.7928	1392.0578	1406.1547	1422.2012	1479.8928	1506.0944	1516.804	2985.7501	2989.4669	3014.6371	3031.1766	3050.8901	3080.3408	3083.143	3084.6596	3105.0378	3546.0975	3814.9426
OCCC1NC2COC12	OCC[C@H]1N[C@H]2CO[C@@H]12	
InChI=1S/C6H11NO2/c8-2-1-4-6-5(7-4)3-9-6/h4-8H,1-3H2	InChI=1S/C6H11NO2/c8-2-1-4-6-5(7-4)3-9-6/h4-8H,1-3H2/t4-,5+,6+/m1/s1
