12
gdb 130086	5.63935	1.38166	1.11058	2.8235	63.32	-0.2327	-0.028	0.2047	978.1962	0.080823	-464.970692	-464.964397	-464.963453	-465.001245	24.352	
N	-0.0258059634	 1.3023592707	 0.1434530637	-0.573395
C	-0.0088355805	-0.0587015594	 0.0552856201	 0.427322
N	-1.1350863773	-0.7847900279	 0.0395163803	-0.362125
N	-0.5941570883	-2.04736757	 0.0098210806	 0.005091
C	-0.9130848119	-3.3672423359	-0.0258490469	 0.055746
N	 0.1561556745	-4.1134027017	-0.0544629888	-0.134953
O	 1.265906317	-3.200914342	-0.0358319978	-0.247211
C	 0.7572672838	-1.9727858674	 0.001967361	 0.540745
N	 1.1955944414	-0.7420038701	 0.0293529756	-0.442976
H	 0.8128579604	 1.7597056977	-0.1768055806	 0.272235
H	-0.8901316841	 1.7477474597	-0.1217499703	 0.269363
H	-1.9122883318	-3.7717809537	-0.0301094369	 0.190157
153.6454	303.6703	317.8821	358.4707	390.3743	503.9969	558.118	589.6365	611.9304	736.7796	775.8573	796.942	836.394	872.396	875.8983	992.0804	1011.2959	1094.2681	1203.0934	1222.0876	1382.3177	1405.3576	1444.6586	1554.8177	1587.0233	1647.5258	1656.786	3287.735	3595.6224	3710.6446
NC1=NN2C=NOC2=N1	Nc1nn2cnoc2n1	
InChI=1S/C3H3N5O/c4-2-6-3-8(7-2)1-5-9-3/h1H,(H2,4,7)	InChI=1S/C3H3N5O/c4-2-6-3-8(7-2)1-5-9-3/h1H,(H2,4,7)
