23
gdb 98284	2.46355	1.03328	0.84047	2.3964	86.29	-0.235	-0.0059	0.2292	1506.7404	0.203285	-388.307739	-388.297015	-388.296071	-388.34458	38.585	
C	-0.0311121318	 1.3674485802	-0.5413763159	-0.376818
C	-0.2217719103	-0.1428720177	-0.4378417572	-0.291648
C	-1.4765533788	-0.5563193934	 0.3149791529	 0.398113
O	-2.2161530978	 0.2548918879	 0.8262642966	-0.324602
C	-1.7893119779	-2.0583731729	 0.3770461618	-0.102806
C	-2.2107018663	-2.4630382775	 1.7963582663	-0.393727
C	-2.8896476199	-2.3515157973	-0.6369320748	 0.052571
C	-2.571333885	-2.6301325207	-2.0852632172	-0.277648
C	-3.0676037989	-3.7408732511	-1.191858601	-0.281414
H	 0.8912436232	 1.6072776947	-1.077856231	 0.107853
H	-0.86901992	 1.8305275221	-1.0690713099	 0.13003
H	 0.0157024744	 1.8222617123	 0.4512727281	 0.131922
H	-0.2585480717	-0.6139916852	-1.4300299972	 0.124269
H	 0.6318531829	-0.6194247104	 0.066371367	 0.120816
H	-0.8935487212	-2.6195808602	 0.0814743168	 0.066689
H	-3.0527150119	-1.8483859654	 2.1241360382	 0.139589
H	-2.5093080584	-3.5148131482	 1.8215895398	 0.113447
H	-1.3936536509	-2.3200543046	 2.5108422991	 0.110703
H	-3.7992746312	-1.7874840582	-0.4491343122	 0.100544
H	-3.2379282197	-2.2385356704	-2.8454919552	 0.116036
H	-1.5282323438	-2.6577121251	-2.3845127085	 0.109557
H	-2.3541937327	-4.5014760677	-0.8907079497	 0.111446
H	-4.0755266424	-4.1128430714	-1.3389895068	 0.115076
30.1807	70.7708	89.2449	149.5873	188.8981	194.4781	218.0211	252.9714	281.8478	338.621	358.7177	466.301	559.7195	652.9237	754.3172	795.5573	798.1779	829.6085	833.6486	929.3345	943.2689	982.2349	994.4203	1019.989	1052.9879	1061.6274	1078.2386	1088.2472	1118.3974	1134.3649	1145.8034	1198.6739	1203.212	1225.345	1276.6416	1299.2878	1340.1275	1374.6988	1397.1026	1405.6031	1412.3171	1447.5125	1468.9502	1490.5966	1492.0647	1497.1634	1500.1467	1503.817	1802.5999	3009.9808	3023.6283	3039.6876	3041.1787	3050.5106	3108.5894	3120.9571	3126.5402	3127.1544	3128.8526	3131.8988	3148.1876	3205.4625	3220.6831
CCC(=O)C(C)C1CC1	CCC(=O)[C@@H](C)C1CC1	
InChI=1S/C8H14O/c1-3-8(9)6(2)7-4-5-7/h6-7H,3-5H2,1-2H3	InChI=1S/C8H14O/c1-3-8(9)6(2)7-4-5-7/h6-7H,3-5H2,1-2H3/t6-/m0/s1
