16
gdb 26015	5.0145	0.97804	0.81918	2.4349	73.6	-0.1853	0.0433	0.2287	1329.3512	0.1267	-434.140221	-434.131914	-434.13097	-434.173447	31.546	
N	-0.1704867449	 1.419897736	 0.1162771393	-0.576407
C	 0.0914349897	 0.0505282399	 0.0376163896	 0.446872
O	 1.2225227009	-0.398764224	 0.0157805009	-0.383532
N	-1.0446664558	-0.7225959899	 0.0314408014	-0.461831
C	-1.0667501326	-2.1259178747	 0.0145878074	 0.351917
C	 0.0021289338	-2.9954369271	-0.0357941155	-0.154862
N	-0.5223790624	-4.268752072	-0.0460852022	-0.243016
C	-1.8866770981	-4.2240580403	-0.000900134	-0.05629
C	-2.2625845846	-2.9006867294	 0.0359196604	-0.285124
H	 0.6554420704	 1.9636061527	-0.0860846102	 0.259575
H	-0.9940531643	 1.7611436223	-0.3581877891	 0.244453
H	-1.9258637431	-0.2696279362	 0.2088281915	 0.244668
H	 1.057044147	-2.7997021712	-0.0602745752	 0.15118
H	 0.028556143	-5.107561024	-0.0765131013	 0.261654
H	-2.4791833908	-5.1242229259	 0.0009371117	 0.11761
H	-3.2746334481	-2.526053016	 0.0720648154	 0.083131
66.0312	88.1919	170.6412	325.8853	337.4599	357.0556	388.3002	451.13	453.0305	573.9439	618.699	630.6048	649.683	678.3677	764.5048	771.2973	792.7884	804.9947	902.1669	970.8354	1024.6991	1081.3729	1093.1179	1110.3007	1167.5155	1256.4569	1299.8839	1332.6695	1418.9247	1474.7712	1504.1816	1581.7776	1627.3522	1629.7638	1797.6566	3238.4476	3271.9227	3325.4585	3566.2489	3643.8594	3677.8754	3695.1256
NC(=O)NC1=CNC=C1	NC(=O)Nc1c[nH]cc1	
InChI=1S/C5H7N3O/c6-5(9)8-4-1-2-7-3-4/h1-3,7H,(H3,6,8,9)	InChI=1S/C5H7N3O/c6-5(9)8-4-1-2-7-3-4/h1-3,7H,(H3,6,8,9)
