22
gdb 107027	2.94534	1.27449	1.06477	1.7561	82.71	-0.1986	0.0772	0.2759	1242.0553	0.1921	-404.287389	-404.27756	-404.276616	-404.321648	36.795	
C	-0.0215680371	 0.6796731077	 1.0278399183	-0.25599
O	-0.171214906	-0.4558628122	 0.1917903816	-0.284127
C	-1.4810585768	-0.8251961888	-0.0142141278	 0.408382
C	-2.3021272566	-1.5533591248	 1.0256857986	-0.368689
C	-1.9968155263	-2.2071092735	-0.3136200288	-0.101755
N	-2.8241628699	-1.708618985	-1.4050623655	-0.086216
C	-4.2347086627	-2.0483975846	-1.4153257898	-0.324527
C	-2.3668337559	-0.2941192006	-1.1566938796	-0.016924
C	-3.4054317194	 0.7817576771	-0.8721943614	-0.417536
H	 1.0510976257	 0.8392884347	 1.1585230138	 0.127484
H	-0.461130491	 1.5806004317	 0.5772708607	 0.110823
H	-0.4863748264	 0.5180706811	 2.010200319	 0.111794
H	-1.7087065055	-1.9409515884	 1.8484773615	 0.115768
H	-3.3090070456	-1.2493765194	 1.2968410143	 0.104935
H	-1.4672714111	-3.1503204114	-0.3941069045	 0.100163
H	-4.7802812661	-1.815946756	-0.4843471939	 0.091781
H	-4.7347681058	-1.5309168608	-2.2400527429	 0.118182
H	-4.3332225481	-3.1246056692	-1.5943977209	 0.120933
H	-1.7359536311	 0.0218151791	-1.9972449045	 0.086471
H	-4.0040349611	 0.5606983378	 0.0155716907	 0.118625
H	-2.9067328211	 1.7433509369	-0.7113967362	 0.119469
H	-4.0885491822	 0.9064595684	-1.7191761724	 0.120955
82.1403	124.1265	176.5097	186.8883	210.9286	216.2692	254.6441	269.9548	328.2735	393.279	440.4788	502.0941	549.8431	642.5921	682.4046	764.3473	858.197	879.0424	939.9552	968.0937	992.6036	1034.3884	1045.2254	1072.2487	1086.0982	1107.0165	1127.7471	1154.305	1179.9158	1202.3112	1217.1271	1219.7826	1236.3305	1277.3807	1304.5924	1364.245	1394.6538	1407.5816	1451.2678	1469.132	1484.4472	1489.1582	1490.4987	1496.7145	1503.7971	1506.6158	1507.7908	2952.9206	2993.7432	3018.6683	3036.7741	3047.999	3057.039	3095.3992	3100.8529	3114.6972	3118.1543	3120.9176	3167.4173	3204.4681
COC12CC1N(C)C2C	CO[C@]12C[C@H]1N(C)[C@H]2C	
InChI=1S/C7H13NO/c1-5-7(9-3)4-6(7)8(5)2/h5-6H,4H2,1-3H3	InChI=1S/C7H13NO/c1-5-7(9-3)4-6(7)8(5)2/h5-6H,4H2,1-3H3/t5-,6+,7-/m0/s1
