21
gdb 114057	2.58975	1.19919	1.03011	1.1173	79.33	-0.2389	0.0756	0.3145	1268.8261	0.180702	-424.193344	-424.183577	-424.182633	-424.2276	36.86	
C	-0.0327553161	 1.5619066153	 0.0109336845	-0.49717
C	-0.0394950592	 0.0623845107	 0.0707961644	 0.308469
C	 1.1560023817	-0.7808830602	-0.3352978708	-0.402919
C	 0.6086875457	-0.9007356077	 1.0594134685	 0.341816
O	 1.3573855438	-0.58238134	 2.1844189306	-0.465155
C	-0.6418935523	-1.7906958462	 1.0841044932	-0.050392
C	-1.3595182264	-1.7864605209	 2.4212505114	-0.088037
O	-2.6182728981	-2.4213688669	 2.2398609979	-0.42643
C	-1.2890548103	-0.8317353594	 0.0273448603	-0.287622
H	 0.9375021255	 1.961652125	 0.3224745245	 0.122999
H	-0.2327547579	 1.9232692281	-1.0050365249	 0.11727
H	-0.7969283446	 1.9883529121	 0.6707624921	 0.115913
H	 1.0579466674	-1.5900077452	-1.0574003001	 0.099171
H	 2.089701199	-0.2286914243	-0.3961378033	 0.106641
H	 2.1082776987	-1.1843166726	 2.231064551	 0.285183
H	-0.4973818348	-2.827527483	 0.7568431235	 0.063588
H	-0.7491307052	-2.3121119663	 3.1716886022	 0.084184
H	-1.4785752734	-0.7487711309	 2.7722741587	 0.088315
H	-3.0882646443	-2.3971375607	 3.078263935	 0.285088
H	-2.188046436	-0.3491000793	 0.4189838265	 0.107156
H	-1.5249784131	-1.2735176879	-0.9458801951	 0.091931
84.4068	126.1562	169.0238	176.594	191.4619	267.2593	285.0602	307.0607	335.3035	413.2277	436.2049	486.5857	529.3153	578.7544	722.2657	767.1326	832.4581	863.5812	908.6027	936.2778	967.9912	986.8135	1036.0246	1053.125	1060.5056	1075.9651	1121.5084	1169.7464	1178.0688	1211.4142	1236.2934	1246.8383	1261.0682	1269.2944	1293.1666	1336.3405	1361.4412	1403.2913	1423.0473	1460.543	1480.8424	1486.2304	1496.8872	1513.5159	1520.2935	2969.6763	2997.0593	3020.842	3032.2242	3049.1091	3078.3822	3091.1303	3099.2847	3103.6688	3188.6684	3791.7654	3830.0191
CC12CC1(O)C(CO)C2	C[C@@]12C[C@]1(O)[C@@H](CO)C2	
InChI=1S/C7H12O2/c1-6-2-5(3-8)7(6,9)4-6/h5,8-9H,2-4H2,1H3	InChI=1S/C7H12O2/c1-6-2-5(3-8)7(6,9)4-6/h5,8-9H,2-4H2,1H3/t5-,6-,7+/m1/s1
