23
gdb 95503	2.03569	1.44931	0.90721	1.3989	87.07	-0.2382	0.0174	0.2556	1345.5776	0.206695	-388.305401	-388.296142	-388.295198	-388.338982	36.435	
C	-0.077147815	 1.5480798188	 0.0398377331	-0.397459
C	 0.0055389018	 0.0150801239	 0.0028885305	 0.023344
C	 0.643123878	-0.4444070126	-1.3218662121	-0.169284
C	 0.6148784627	-1.9624732826	-1.5958639056	-0.268468
C	 1.5826688601	-2.7667477557	-0.7604647155	-0.062872
C	 1.612972957	-2.7769992191	 0.570411205	-0.087176
C	 0.6660258711	-2.017753286	 1.4727764066	 0.073302
O	 0.9722598634	-2.2487140921	 2.8465375783	-0.444853
C	 0.7110846713	-0.4979302451	 1.2704195266	-0.166742
H	 0.923787426	 1.9953596451	 0.0229267384	 0.114089
H	-0.6289732518	 1.9372713219	-0.8222621462	 0.107424
H	-0.5799770957	 1.8967638844	 0.9477403044	 0.110881
H	-1.0249763322	-0.3732280605	 0.020903404	 0.067217
H	 0.1106452032	 0.0577706795	-2.1396061737	 0.088262
H	 1.6820111295	-0.0917159828	-1.3678547483	 0.094196
H	-0.4111392801	-2.3294070185	-1.4414476303	 0.10531
H	 0.8337402731	-2.129832682	-2.6552633648	 0.097111
H	 2.3181744442	-3.3591278892	-1.2994806461	 0.08653
H	 2.3740301439	-3.3568433305	 1.0894061493	 0.083198
H	-0.3684025461	-2.34960465	 1.2660139501	 0.069397
H	 0.9479115862	-3.1989668955	 2.9977524181	 0.278211
H	 1.7566345781	-0.1660482361	 1.2843575237	 0.09647
H	 0.2253098111	-0.0532330954	 2.1466187845	 0.101913
79.6881	159.1448	205.4311	229.4608	269.2333	297.8274	306.385	324.0539	388.0799	409.8694	446.4784	501.5687	562.7864	653.0754	722.1765	790.4586	866.8419	878.1713	909.0511	960.3758	968.1607	987.7273	1012.194	1028.8095	1059.0712	1079.0788	1105.9326	1110.2989	1161.879	1179.2343	1231.5134	1255.0907	1273.2023	1289.3749	1319.73	1334.442	1344.0123	1363.1076	1386.4373	1397.2785	1408.5234	1415.9887	1420.9828	1478.773	1483.5196	1490.4529	1498.463	1503.4265	1722.8077	2917.5544	2979.5017	2995.5501	3013.2887	3024.8839	3030.4822	3053.6056	3067.7521	3072.4333	3092.6074	3100.1535	3135.4806	3161.0183	3814.4277
CC1CCC=CC(O)C1	C[C@H]1CCC=C[C@@H](O)C1	
InChI=1S/C8H14O/c1-7-4-2-3-5-8(9)6-7/h3,5,7-9H,2,4,6H2,1H3	InChI=1S/C8H14O/c1-7-4-2-3-5-8(9)6-7/h3,5,7-9H,2,4,6H2,1H3/t7-,8+/m0/s1
