14
gdb 21047	3.955	1.89279	1.29292	3.1346	62.22	-0.1917	0.0375	0.2292	896.4376	0.107964	-412.052187	-412.044376	-412.043432	-412.084738	27.832	
C	 0.1407089752	 1.3869623041	-0.0506249181	-0.321735
N	 0.2066821787	-0.0484761739	 0.0073893878	-0.05392
N	 0.2279816226	-0.8191340268	-1.1608619877	-0.32785
C	 0.1611477899	-2.0221843042	-0.7158057192	 0.468966
N	 0.2584011084	-3.1909329268	-1.4234653197	-0.58549
O	 0.0561003217	-2.1343857214	 0.6359179437	-0.229401
C	 0.0496846971	-0.818472674	 1.1224650455	 0.452623
N	-0.0721066636	-0.4514805512	 2.3283400201	-0.615558
H	 0.9899845535	 1.7837705311	-0.614620475	 0.138015
H	-0.7886907308	 1.7262795543	-0.5232667811	 0.131283
H	 0.1781919056	 1.7527316678	 0.9762951258	 0.17226
H	 0.1366989414	-3.0592338512	-2.4176139893	 0.274241
H	-0.2987495268	-3.947686283	-1.0517892569	 0.269632
H	-0.1482703229	-1.2464679049	 2.9544938142	 0.226934
55.346	113.8359	192.89	262.3168	279.8242	322.9991	351.9065	548.1338	618.495	648.6426	668.0047	689.4214	700.9383	738.1599	851.277	987.3364	995.1203	1033.1104	1153.4495	1159.9726	1187.7235	1278.8596	1428.0746	1445.1503	1453.9713	1482.3681	1517.7303	1620.8347	1725.8227	1810.8738	3027.5941	3089.9857	3155.1255	3560.5513	3564.1309	3670.5283
CN1N=C(N)OC1=N	CN1N=C(N)O[C@H]1[NH]	
InChI=1S/C3H6N4O/c1-7-3(5)8-2(4)6-7/h5H,1H3,(H2,4,6)	InChI=1S/C3H7N4O/c1-7-3(5)8-2(4)6-7/h3,5H,1H3,(H2,4,6)/t3-/m0/s1
