17
gdb 103524	2.47172	1.50889	1.2408	3.8387	69.23	-0.2529	-0.0234	0.2295	1055.2981	0.136327	-455.193561	-455.184932	-455.183988	-455.226725	32.084	
C	-0.0712212945	 1.5539071822	 0.0030910296	-0.414027
C	-0.0312263661	 0.0218439559	 0.013592378	 0.092356
C	-1.4575966123	-0.5764513762	-0.0200568119	-0.061856
O	-2.1364233602	-0.2079480906	-1.1977221344	-0.421715
N	 0.6961454779	-0.5005689881	-1.1634356459	-0.282889
C	 1.6752535868	-1.1808445699	-0.7076084293	 0.059748
N	 1.7841181479	-1.2327676397	 0.6754268261	-0.344518
C	 0.7378299979	-0.5019813944	 1.2365880637	 0.412375
O	 0.5188196725	-0.3427312891	 2.4115640907	-0.369679
H	 0.9285792039	 1.9711559065	-0.1424431098	 0.120562
H	-0.719423499	 1.8929640166	-0.8068346236	 0.141583
H	-0.4661025091	 1.9134484388	 0.9574867837	 0.13828
H	-1.3891273269	-1.6707845439	 0.0833992828	 0.090789
H	-2.0316793341	-0.1928833603	 0.8283187924	 0.127766
H	-1.5488793606	-0.4394700229	-1.9285775254	 0.295448
H	 2.399312723	-1.7055862034	-1.3230730054	 0.14435
H	 2.4906011427	-1.7142726916	 1.2085157887	 0.271428
95.6739	131.1173	160.9084	227.2384	248.4198	290.7007	326.1175	356.3152	472.1799	507.3705	564.675	621.3153	649.2619	737.0505	757.0479	848.7931	908.4995	944.9268	953.9429	967.431	1062.0811	1081.0538	1117.4115	1149.4479	1182.4198	1247.2002	1266.349	1348.6582	1379.2729	1393.3904	1402.6376	1426.8271	1487.1722	1493.9201	1504.9363	1673.28	1848.8865	2980.1618	3050.2846	3092.8838	3125.0736	3144.7123	3190.3275	3649.0732	3774.0394
CC1(CO)N=CNC1=O	C[C@@]1(CO)N=CNC1=O	
InChI=1S/C5H8N2O2/c1-5(2-8)4(9)6-3-7-5/h3,8H,2H2,1H3,(H,6,7,9)	InChI=1S/C5H8N2O2/c1-5(2-8)4(9)6-3-7-5/h3,8H,2H2,1H3,(H,6,7,9)/t5-/m0/s1
