14
gdb 132543	3.11768	1.4182	0.98069	2.3651	69.07	-0.24	-0.0462	0.1938	1119.7586	0.100909	-478.037677	-478.030078	-478.029133	-478.069983	28.278	
C	-0.0403679989	 1.4936827497	 0.0173901111	-0.470311
C	 0.0128612804	-0.0069432079	-0.0140569094	 0.299635
C	-0.0885497711	-0.7433105681	-1.1846109997	-0.080976
N	-0.0391987034	-2.0863432562	-1.1966533922	-0.327435
C	 0.1112104626	-2.6989511704	-0.0434092728	 0.287218
O	 0.1678638101	-4.0407038093	 0.0111925712	-0.403313
C	 0.2142731217	-1.9476317011	 1.1471433633	 0.248942
F	 0.365438809	-2.5913158341	 2.2965608288	-0.050478
N	 0.1672995156	-0.6509745236	 1.1648229167	-0.338987
H	 0.8780021451	 1.9037696485	 0.449793356	 0.144224
H	-0.1663522156	 1.906732595	-0.986265399	 0.125581
H	-0.8709905082	 1.8376620241	 0.6421180609	 0.144222
H	-0.2130866595	-0.2543460293	-2.145701268	 0.11675
H	 0.0790573221	-4.3536778574	-0.9003568369	 0.304928
100.0183	129.9625	229.2271	292.4342	304.4306	388.6367	467.6204	499.5519	541.2638	545.3197	590.5718	636.1957	717.6581	796.767	819.5698	920.4217	996.1423	1035.8113	1061.6424	1151.1463	1256.2707	1270.0675	1330.4376	1374.8529	1413.8668	1461.4703	1475.1911	1494.5854	1523.2074	1613.8224	1647.8156	3040.7657	3099.671	3126.6716	3178.4349	3762.2675
CC1=CN=C(O)C(F)=N1	Cc1cnc(O)c(F)n1	
InChI=1S/C5H5FN2O/c1-3-2-7-5(9)4(6)8-3/h2H,1H3,(H,7,9)	InChI=1S/C5H5FN2O/c1-3-2-7-5(9)4(6)8-3/h2H,1H3,(H,7,9)
