13
gdb 129171	5.40052	1.34239	1.07552	0.8206	67.04	-0.1988	0.0174	0.2162	1014.3739	0.092529	-448.932748	-448.925922	-448.924978	-448.963972	26.061	
N	-0.0217055966	 1.2886364462	-0.0272568253	-0.583226
C	-0.019571107	 0.0294903307	 0.0040577403	 0.440856
N	-1.1264382976	-0.8065400599	 0.0400516539	-0.483554
C	-0.6926091868	-2.13777433	-0.0234043755	 0.233692
C	 0.6675847122	-2.0640751352	-0.0164044687	 0.436355
N	 1.1730000453	-3.307724709	-0.0169593493	-0.342926
N	 0.1601574957	-4.2224482936	-0.0340318096	-0.234255
C	-0.9789632511	-3.5129852029	-0.0285044102	-0.130773
O	 1.1414097983	-0.79265434	 0.0151568589	-0.258895
H	 0.9202092874	 1.6669407542	-0.0510120439	 0.235702
H	-2.041061223	-0.441035297	-0.1556275548	 0.278692
H	 2.1271330044	-3.6224275633	-0.0195467424	 0.286506
H	-1.9246930812	-4.0311563002	-0.0381108634	 0.121826
110.4173	178.6019	323.6764	332.5427	347.0875	430.9165	554.3079	589.2024	653.6288	695.0732	720.696	739.9137	778.4685	840.5449	853.2803	868.229	979.6626	1035.1524	1064.2318	1146.558	1238.611	1299.6287	1309.4859	1337.482	1409.2772	1521.2482	1600.9291	1636.8297	1807.4096	3262.6336	3559.3262	3691.5135	3698.9029
N=C1NC2=C(NN=C2)O1	[NH][C@@H]1Nc2c([nH]nc2)O1	
InChI=1S/C4H4N4O/c5-4-7-2-1-6-8-3(2)9-4/h1H,(H2,5,7)(H,6,8)	InChI=1S/C4H5N4O/c5-4-7-2-1-6-8-3(2)9-4/h1,4-5,7H,(H,6,8)/t4-/m1/s1
