19
gdb 121204	2.55905	0.97973	0.77215	4.2914	76.26	-0.2469	0.0233	0.2702	1471.8883	0.159825	-419.189696	-419.18028	-419.179336	-419.224824	33.581	
O	 0.2131143254	 1.364600755	-0.0526350944	-0.417425
C	 0.0780457383	-0.0435002799	 0.0308161759	-0.064808
C	-1.3750989002	-0.5069277508	-0.1020172236	-0.21177
C	-1.5002905552	-2.0203725931	-0.0640390232	 0.030911
N	-1.1604502468	-2.6637960291	 1.2287278815	-0.306454
C	-2.2840114758	-3.6138920822	 1.1058678123	-0.166941
C	-2.9194361869	-2.6887572212	 0.0216182025	-0.202889
C	-3.9871624057	-1.8305240708	 0.5064898279	 0.298633
N	-4.8411252711	-1.1506266858	 0.8882153657	-0.335042
H	-0.2668055356	 1.7498631055	 0.6876787594	 0.284587
H	 0.6797002237	-0.4455052207	-0.7930356335	 0.105614
H	 0.5043636497	-0.4331139436	 0.9684549635	 0.09714
H	-1.9697498341	-0.0807002988	 0.7147217862	 0.11534
H	-1.7872712505	-0.1251733411	-1.0439220801	 0.111258
H	-0.9638379916	-2.4616349178	-0.9188660575	 0.075238
H	-0.2393119986	-3.0837752207	 1.2822132565	 0.225116
H	-2.0237415822	-4.5923530882	 0.6806574132	 0.104059
H	-2.8589421111	-3.7629939094	 2.0235377842	 0.1297
H	-3.2503412417	-3.1892553473	-0.8895142568	 0.127734
78.8905	85.7149	94.1859	124.1887	185.6853	241.7911	306.0395	342.1202	369.5923	464.9772	524.6474	606.7289	697.3376	777.4503	807.9646	830.9476	904.1196	981.7937	999.2065	1013.3355	1064.0274	1076.9596	1093.0686	1107.1196	1129.778	1144.4032	1179.8511	1208.7479	1247.45	1292.4413	1313.9528	1339.0392	1357.7031	1381.9805	1390.6071	1416.2043	1424.4701	1476.7728	1515.0043	1522.7838	2354.3266	2972.4698	2983.3525	3011.8715	3032.6348	3053.4586	3085.176	3089.0071	3105.3445	3533.7224	3814.552
OCCC1NCC1C#N	OCC[C@H]1NC[C@H]1C#N	
InChI=1S/C6H10N2O/c7-3-5-4-8-6(5)1-2-9/h5-6,8-9H,1-2,4H2	InChI=1S/C6H10N2O/c7-3-5-4-8-6(5)1-2-9/h5-6,8-9H,1-2,4H2/t5-,6-/m1/s1
