16
gdb 24366	3.6761	1.61658	1.14983	1.2339	80.26	-0.1817	-0.0158	0.1659	1012.9527	0.127674	-400.777683	-400.770947	-400.770002	-400.808668	27.157	
C	-0.0123646988	 1.4980858853	 0.017519488	-0.229898
N	 1.3053179714	 2.1665822073	-0.0456959604	-0.414305
C	 2.2408173068	 1.4579129933	-0.8158066801	 0.209098
C	 2.0635489441	 0.1341371013	-1.1264541698	 0.303376
O	 3.1019582068	-0.3153461506	-1.8886881056	-0.197412
C	 3.9510631974	 0.7369564813	-2.036554211	-0.01516
C	 3.4845273975	 1.8493587229	-1.4002220811	-0.289806
C	 1.0297572312	-0.6747790796	-0.5482555723	-0.160626
C	 0.0457640645	-0.0178322383	 0.0927036028	-0.108747
H	-0.5603930399	 1.9146642374	 0.8666298405	 0.108435
H	-0.5710267876	 1.7896433417	-0.8871328103	 0.11815
H	 1.6656355339	 2.419670214	 0.8683084754	 0.23104
H	 4.8251983586	 0.5481612148	-2.6376624618	 0.134675
H	 3.9571245867	 2.8185296149	-1.369987822	 0.111874
H	 1.1027464131	-1.7563904766	-0.5694684067	 0.103967
H	-0.7300412256	-0.5464501789	 0.6357231244	 0.095339
141.7492	173.6345	298.6372	396.293	440.5277	508.5735	574.0456	594.729	616.3902	684.7465	720.7307	735.4814	775.5426	819.5937	826.2998	909.6601	917.7145	960.1581	990.7981	1049.9274	1068.6419	1151.122	1170.6722	1183.6614	1267.3041	1291.4682	1307.1843	1368.2333	1389.0151	1453.3329	1474.5261	1505.0255	1517.0761	1615.8871	1659.1086	2961.0748	3089.4323	3181.1679	3202.2617	3255.2554	3283.6656	3512.0292
C1NC2=C(OC=C2)C=C1	C1Nc2c(occ2)C=C1	
InChI=1S/C7H7NO/c1-2-7-6(8-4-1)3-5-9-7/h1-3,5,8H,4H2	InChI=1S/C7H7NO/c1-2-7-6(8-4-1)3-5-9-7/h1-3,5,8H,4H2
