21
gdb 66314	4.51547	0.64221	0.62007	2.8402	80.74	-0.256	-0.0271	0.2289	1840.3192	0.17879	-424.212569	-424.202121	-424.201177	-424.249551	36.534	
C	-0.1023815497	 1.5556167677	 0.2875829556	-0.461811
C	-0.0466180509	 0.0587998794	 0.0521096503	 0.36059
C	-1.3261593484	-0.5464375379	-0.470611328	-0.121732
O	-1.6234057507	 0.0155710426	-1.7392694554	-0.25316
C	-2.8369099416	-0.4300589357	-2.280628012	-0.13872
C	-3.0474079409	 0.265123322	-3.614630731	 0.13949
O	-3.9928943113	 0.0655629896	-4.3294296982	-0.238341
C	 1.2487529186	-0.5570999136	-0.4186523671	-0.28689
C	 0.7680784005	-0.7981223469	 0.9919013899	-0.313196
H	 0.8592181896	 1.9340498452	 0.6468775012	 0.112076
H	-0.3531849126	 2.0832933844	-0.6372046883	 0.131309
H	-0.862346469	 1.8095205753	 1.0365196716	 0.111703
H	-1.2280246142	-1.6410350244	-0.5579959964	 0.084857
H	-2.1588394472	-0.3468648022	 0.2263023658	 0.088691
H	-2.8458373042	-1.5214831029	-2.4451242266	 0.119933
H	-3.6951750579	-0.2007989642	-1.6249071075	 0.120275
H	-2.2393284684	 0.9850035038	-3.8719415421	 0.096419
H	 1.1983602066	-1.3794983332	-1.1240964035	 0.112799
H	 2.0990424897	 0.1001777113	-0.5645758313	 0.112786
H	 1.2860513299	-0.2990146208	 1.8037440517	 0.112939
H	 0.3994860621	-1.7869148997	 1.2454594515	 0.109983
42.9547	56.7186	89.8453	97.6263	131.4581	210.8234	238.2761	285.0282	340.0949	367.0767	412.7582	459.2131	578.4653	738.9101	742.8083	783.3144	874.4111	914.1104	955.0392	958.1011	1000.8838	1015.9722	1048.8279	1077.7767	1081.4311	1088.7438	1115.7993	1133.7777	1166.4997	1187.1161	1233.2371	1255.4724	1330.8262	1342.5569	1364.0662	1400.2711	1413.9205	1437.8278	1469.0166	1481.1581	1486.9285	1502.0162	1511.5192	1517.8184	1845.1594	2898.6638	2947.3133	2957.7831	2980.5236	2986.2036	3027.7028	3091.8027	3113.0265	3128.2287	3134.628	3206.6727	3221.5818
CC1(COCC=O)CC1	CC1(COCC=O)CC1	
InChI=1S/C7H12O2/c1-7(2-3-7)6-9-5-4-8/h4H,2-3,5-6H2,1H3	InChI=1S/C7H12O2/c1-7(2-3-7)6-9-5-4-8/h4H,2-3,5-6H2,1H3
