17
gdb 7483	4.15273	1.3234	1.22338	2.8675	66.46	-0.2599	0.0146	0.2745	1033.0432	0.14081	-400.971614	-400.963342	-400.962398	-401.004711	29.587	
C	-0.0565218845	 1.6514761524	 0.0914612134	-0.441637
C	-0.0234025522	 0.1332054603	 0.0119535209	 0.336066
C	 1.0967839326	-0.4746754391	-0.874032454	-0.118201
O	 1.847577792	-0.8563544857	 0.2929847136	-0.271194
C	 0.7299232666	-0.5656141343	 1.1592607445	-0.114546
O	-1.333708039	-0.4085309809	-0.1458357183	-0.225834
C	-1.9182113584	-0.2718827227	-1.3531795911	 0.113655
N	-3.1129861929	-0.6423732236	-1.5201478423	-0.439662
H	 0.9469472158	 2.040099747	 0.2872409478	 0.136024
H	-0.416192049	 2.0924521684	-0.8438570507	 0.122008
H	-0.7214837794	 1.9711029869	 0.8992784648	 0.13902
H	 0.7679971882	-1.3445911726	-1.4577859832	 0.107755
H	 1.6543320643	 0.2141967901	-1.5185616762	 0.107607
H	 1.0186859806	 0.0542245531	 2.0145494435	 0.108662
H	 0.221216618	-1.4726297937	 1.5062369507	 0.119513
H	-1.2602626158	 0.158744154	-2.120108446	 0.090736
H	-3.391316827	-0.4921439894	-2.4876823575	 0.23003
74.9612	105.5627	139.6409	186.7594	259.3898	318.9601	351.8219	399.7723	472.4511	516.8706	741.9491	820.4952	838.6393	912.8044	932.0057	945.5119	991.0102	1011.8571	1035.3972	1044.7716	1101.8739	1154.8043	1168.3866	1198.2608	1234.9786	1266.6876	1294.2173	1307.7258	1381.749	1411.0495	1425.2756	1488.19	1491.7679	1503.9438	1528.4149	1744.5576	3008.8696	3024.3882	3030.2224	3040.0318	3067.4118	3084.1372	3111.4132	3122.4499	3517.2091
CC1(COC1)OC=N	CC1(COC1)O[CH][NH]	
InChI=1S/C5H9NO2/c1-5(8-4-6)2-7-3-5/h4,6H,2-3H2,1H3	InChI=1S/C5H9NO2/c1-5(8-4-6)2-7-3-5/h4,6H,2-3H2,1H3
