18
gdb 35762	3.33309	1.34997	1.17368	3.4134	75.09	-0.2585	0.027	0.2855	1072.3307	0.150541	-401.94769	-401.940429	-401.939485	-401.979408	28.798	
N	-0.4544034485	-0.946235823	-0.8476875304	-0.320836
C	-0.2531831715	 0.1094688225	-0.4218286229	 0.262014
C	 0.008648205	 1.4375925132	 0.1307666313	-0.175342
C	-0.5161733602	 1.5126141633	 1.5995581744	-0.082048
O	 0.1403212121	 2.5104405218	 2.3600883561	-0.274513
C	 1.520792386	 2.668165067	 2.0413221779	 0.133535
C	 1.6541928716	 3.2600581419	 0.614630967	-0.245887
C	 1.5199976521	 1.7913145851	 0.1228530531	-0.025902
C	 2.1549330811	 1.3649523257	 1.4797008199	-0.260343
H	-0.5204469593	 2.1660915919	-0.4949943764	 0.129562
H	-1.5831520117	 1.7464807169	 1.6190336263	 0.127625
H	-0.3840509529	 0.5280415549	 2.06652661	 0.119417
H	 1.9773995437	 3.1786843723	 2.8901560112	 0.084731
H	 0.8941250376	 3.9840359944	 0.3099279964	 0.102126
H	 2.6527732409	 3.6600456257	 0.4229952436	 0.106573
H	 1.9979355527	 1.4935136475	-0.8110707024	 0.089362
H	 3.2429426504	 1.4508545925	 1.4487016088	 0.113612
H	 1.8842112109	 0.4051108463	 1.9239551861	 0.116314
104.4989	155.0641	253.4522	315.5036	418.065	432.9715	439.4203	534.9633	550.3728	593.8772	783.8783	808.2968	836.5117	883.2604	897.4974	933.9184	963.4407	987.7334	1006.1618	1037.2416	1052.2604	1084.1306	1115.6808	1140.3319	1148.1095	1193.9821	1242.0798	1248.2062	1272.1692	1275.5149	1309.6867	1327.3666	1337.2424	1372.0336	1420.2151	1469.762	1496.6535	1523.8868	2355.1671	3018.0143	3041.4533	3059.7573	3076.3833	3100.7446	3102.5536	3106.967	3121.8551	3131.3485
N#CC1COC2CC1C2	N#C[C@H]1CO[C@@H]2C[C@H]1C2	
InChI=1S/C7H9NO/c8-3-6-4-9-7-1-5(6)2-7/h5-7H,1-2,4H2	InChI=1S/C7H9NO/c8-3-6-4-9-7-1-5(6)2-7/h5-7H,1-2,4H2/t5-,6-,7+/m0/s1
