18
gdb 39874	3.40465	1.60713	1.45337	3.0255	74.27	-0.2281	0.0578	0.2859	951.9083	0.149432	-401.864933	-401.858239	-401.857294	-401.895817	27.49	
C	-0.0091408388	 1.5227374658	 0.0104865216	-0.28086
O	 1.1633025025	 0.6930258688	-0.0060063965	-0.280167
C	-0.1054654598	 0.0630683245	 0.0031792497	 0.474626
C	-0.4851979802	-0.9517697823	 1.0726786992	-0.094609
C	-2.0047689296	-1.0485553161	 1.3210835128	-0.251351
C	-2.0957571152	-1.8597572177	 0.0122905343	 0.016657
C	-2.0310108713	-1.0337599623	-1.2887868233	-0.251351
C	-0.5067414208	-0.9396229352	-1.0699051349	-0.09461
N	-0.5700383599	-2.0500553176	-0.0041294616	-0.158796
H	-0.1773032962	 2.0739738496	 0.9351353871	 0.116337
H	-0.1957985935	 2.0844027713	-0.9042848798	 0.116337
H	 0.2071887301	-1.0757013054	 1.907355607	 0.088727
H	-2.2235523026	-1.6742097413	 2.1899290704	 0.115669
H	-2.576557347	-0.1194310331	 1.4015794187	 0.100967
H	-2.7289577147	-2.7487135304	 0.0136178841	 0.077059
H	-2.2672903548	-1.6495502483	-2.1600942835	 0.115669
H	-2.6041970201	-0.1038485636	-1.3472325415	 0.100967
H	 0.1687084119	-1.0540042567	-1.9196865036	 0.088727
137.4646	207.5909	309.4599	348.1138	380.7346	441.752	581.9617	664.5607	709.223	797.7998	842.7252	846.4612	893.0358	907.0744	918.1516	919.6225	961.7137	971.0542	981.892	1013.2634	1021.0964	1085.0957	1123.3127	1130.4139	1136.1728	1160.8268	1171.2084	1203.0379	1203.1224	1242.7369	1251.7044	1277.4967	1296.5705	1312.4518	1348.1566	1447.5308	1475.238	1488.8419	1536.347	3052.6134	3053.7596	3078.2106	3087.4567	3094.2442	3096.4816	3108.7435	3113.0044	3163.7432
C1OC11C2CC3CC1N23	C1O[C@]21[C@H]1C[C@H]3C[C@@H]2N13	
InChI=1S/C7H9NO/c1-4-2-6-7(3-9-7)5(1)8(4)6/h4-6H,1-3H2	InChI=1S/C7H9NO/c1-4-2-6-7(3-9-7)5(1)8(4)6/h4-6H,1-3H2/t4-,5+,6-,7+
