16
gdb 45994	5.33058	0.9507	0.85664	3.2209	77.03	-0.2443	-0.0389	0.2054	1306.4001	0.125091	-437.883383	-437.875694	-437.87475	-437.916284	28.425	
N	 0.024637717	 1.3051466524	 0.1643967316	-0.552532
C	-0.0303549015	 0.0448071153	 0.0598260584	 0.435056
O	 1.0570076349	-0.786368006	-0.0934075854	-0.253327
C	 0.6194607643	-2.1433881037	-0.1731017115	-0.176677
C	-0.8836097194	-2.0732805383	-0.0683399759	 0.326602
C	-1.2340817275	-0.7916964237	 0.0812611767	-0.321325
C	-1.7462270761	-3.2629745172	-0.1053500728	-0.037218
C	-1.5266704437	-4.3698591835	-1.0603892431	-0.18125
O	-1.141204214	-4.5011720813	 0.3017976097	-0.226492
H	 0.9924195244	 1.6273120033	 0.1217161626	 0.223604
H	 0.9675964045	-2.5770399378	-1.119617567	 0.12602
H	 1.061745094	-2.7241464395	 0.6447935472	 0.145761
H	-2.2242170626	-0.3779026181	 0.2035662596	 0.128883
H	-2.761931717	-3.1172395688	 0.2600294244	 0.109705
H	-2.3813393094	-4.9694683335	-1.3700762044	 0.129887
H	-0.7118945979	-4.3124804696	-1.7797597403	 0.123304
57.9626	139.8084	165.6071	201.4244	310.0826	357.268	486.7006	544.8789	621.7096	691.3952	701.1631	838.421	861.5933	869.6666	900.3476	912.23	930.7094	977.398	1029.3947	1033.7691	1089.9849	1098.1344	1148.3921	1167.3929	1188.9911	1200.5208	1253.0797	1280.5513	1363.2875	1388.2402	1409.6239	1500.9554	1523.8283	1697.555	1758.8957	3022.1196	3060.9563	3088.5528	3123.1645	3178.7017	3250.6414	3483.3568
N=C1OCC(=C1)C1CO1	[NH]C1=C[C](CO1)[C@H]1CO1	
InChI=1S/C6H7NO2/c7-6-1-4(2-9-6)5-3-8-5/h1,5,7H,2-3H2	InChI=1S/C6H7NO2/c7-6-1-4(2-9-6)5-3-8-5/h1,5,7H,2-3H2/t5-/m1/s1
