21
gdb 97928	4.42244	0.63381	0.61648	1.6875	88.6	-0.2432	0.0464	0.2895	1929.1817	0.180241	-387.055495	-387.045068	-387.044124	-387.092607	37.785	
C	-0.2252369385	 1.5318066897	-0.0949493483	-0.363014
C	-0.020621013	 0.0064615952	-0.0430969098	-0.314341
C	 0.7728527233	-0.4990618357	-1.159999522	 0.097334
C	 1.4318238352	-0.8651495306	-2.1011154712	 0.014679
C	 2.2264811074	-1.3895205742	-3.2114558016	-0.409365
C	 2.0128779291	-2.8899012161	-3.3884445514	 0.441903
O	 2.3255544647	-3.638589827	-2.24832664	-0.468295
C	 0.9022038131	-3.3901928621	-4.2770608312	-0.310565
C	 2.359274612	-3.5489165419	-4.6829985796	-0.314322
H	 0.7354104799	 2.0531246495	-0.0691209831	 0.129168
H	-0.7423354594	 1.8231882324	-1.0131123574	 0.128423
H	-0.8225384515	 1.8653494618	 0.758817202	 0.11493
H	 0.4650314154	-0.2643188582	 0.903276034	 0.128074
H	-0.998096515	-0.4928098827	-0.0332496383	 0.128037
H	 1.9726246439	-0.8677714671	-4.1418577977	 0.122387
H	 3.292029936	-1.2040584777	-3.0228187786	 0.132409
H	 1.775846472	-3.2947558947	-1.5322150589	 0.282642
H	 0.3818695466	-4.2823877556	-3.9486168085	 0.115299
H	 0.290128069	-2.6719297389	-4.8124266027	 0.109632
H	 2.7417174887	-2.9378347788	-5.4937462858	 0.110341
H	 2.7901126111	-4.5412844074	-4.61818573	 0.124645
19.1904	60.5999	73.4869	146.4276	180.178	264.1033	285.0872	332.973	363.3505	386.0907	405.2003	446.4023	516.4952	517.1551	731.4854	753.1981	775.08	787.3714	882.6626	916.5862	932.9987	966.2244	977.4246	1007.9249	1048.6419	1077.8532	1079.5995	1106.0871	1158.6778	1186.4138	1192.5915	1277.22	1287.2219	1307.9311	1319.1245	1350.9321	1408.6388	1413.5497	1452.525	1464.0894	1477.5527	1494.5022	1505.8205	1508.4568	2359.2781	3018.9338	3019.3274	3044.8002	3045.7819	3058.6004	3118.2859	3124.5308	3132.6148	3136.5534	3218.3793	3231.971	3762.6322
CCC#CCC1(O)CC1	CCC#CCC1(O)CC1	
InChI=1S/C8H12O/c1-2-3-4-5-8(9)6-7-8/h9H,2,5-7H2,1H3	InChI=1S/C8H12O/c1-2-3-4-5-8(9)6-7-8/h9H,2,5-7H2,1H3
