16
gdb 90466	2.93196	1.41936	1.24404	4.159	69.12	-0.254	0.0236	0.2776	1047.9563	0.124001	-437.878758	-437.870774	-437.86983	-437.911731	29.461	
C	-0.5771374989	 1.2168184913	-0.0094683102	-0.405512
C	 0.2984646947	-0.0150353335	 0.0123887253	 0.210011
O	 1.1876897083	-0.0266208904	-1.1142009243	-0.263479
C	 2.4626567615	-0.3419153431	-0.6658918913	 0.052553
C	 2.4189671291	-0.3468094673	 0.8148722527	 0.052551
O	 1.1197365461	-0.0342229272	 1.1893234595	-0.263466
C	 2.6815183875	-1.677374942	 0.0771843381	-0.293769
C	 1.7210085685	-2.735966038	 0.0453315601	 0.328806
N	 0.9399521786	-3.5897012536	 0.0194713738	-0.350928
H	 0.0404339637	 2.1179891944	 0.0128180731	 0.130272
H	-1.1870741345	 1.2194012284	-0.9164619366	 0.137673
H	-1.2412673717	 1.2126263468	 0.8586181281	 0.137643
H	-0.2954948871	-0.9363338267	-0.008151251	 0.12346
H	 3.2546072745	 0.0593748099	-1.2853972236	 0.132047
H	 3.1729491103	 0.0502117145	 1.48262305	 0.132047
H	 3.7166379994	-2.0054342236	 0.1066564863	 0.140091
75.3211	121.3867	126.784	218.9587	293.4266	376.9653	379.752	480.0279	629.7019	650.3074	704.3851	729.905	771.6532	775.5228	833.6958	865.8917	940.5811	995.1224	1031.8361	1073.7994	1094.1057	1104.283	1136.6407	1137.6197	1144.6499	1220.1089	1303.6826	1347.1275	1387.0915	1397.549	1404.8278	1429.7748	1484.413	1484.5636	2349.4851	3045.7947	3053.6569	3134.8901	3139.8617	3157.3117	3194.4921	3203.1787
CC1OC2C(O1)C2C#N	C[C@H]1O[C@H]2[C@@H](O1)[C@H]2C#N	
InChI=1S/C6H7NO2/c1-3-8-5-4(2-7)6(5)9-3/h3-6H,1H3	InChI=1S/C6H7NO2/c1-3-8-5-4(2-7)6(5)9-3/h3-6H,1H3/t3-,4-,5+,6-
