18
gdb 33007	5.02392	0.95924	0.81361	0.4893	83.37	-0.2265	-0.0153	0.2111	1411.8444	0.1494	-402.018698	-402.010568	-402.009623	-402.05195	30.275	
C	-0.101221382	 1.5151816677	 0.0118079943	-0.390485
C	 0.0152492125	 0.002154702	 0.0038513584	-0.03392
O	-1.3178066129	-0.5269978696	 0.0110573404	-0.275524
C	-1.4580603578	-1.8663155904	 0.0061921392	 0.460063
N	-0.3797879572	-2.6384778745	-0.005198373	-0.354351
C	-0.570052202	-3.9659688591	-0.0097454779	-0.002031
C	-1.8178121512	-4.5666900576	-0.0032644321	-0.139462
C	-2.9427075683	-3.7348034196	 0.0087070318	-0.065565
C	-2.7721556976	-2.3640631654	 0.0135880946	-0.218508
H	 0.8961995872	 1.9648588149	 0.0065869526	 0.118868
H	-0.6444294046	 1.8692568568	-0.8690061953	 0.127083
H	-0.631409389	 1.8609470565	 0.9037851322	 0.12708
H	 0.5466019779	-0.3607639174	-0.8825657662	 0.11532
H	 0.559416499	-0.3690695867	 0.8789765449	 0.115332
H	 0.3340451715	-4.5703326595	-0.019073167	 0.10684
H	-1.9110591648	-5.6459678271	-0.0074031687	 0.096615
H	-3.9419024833	-4.1583244793	 0.0141470605	 0.106331
H	-3.6055957174	-1.6726649518	 0.0227905412	 0.106314
62.8072	106.8201	162.6071	221.737	262.6156	343.2723	427.6279	444.1381	541.0339	627.1544	645.5948	765.796	803.1788	811.9134	838.3137	891.9225	941.6402	978.9635	1000.7095	1001.5198	1058.4844	1071.8976	1115.5818	1139.2134	1167.7633	1182.4426	1287.7523	1302.9464	1325.372	1343.1843	1390.0692	1416.3231	1470.6376	1485.6504	1497.0968	1506.2243	1526.5939	1611.678	1641.7765	3040.9665	3045.1216	3077.2284	3119.7143	3123.523	3153.1845	3180.7372	3205.8696	3212.5914
CCOC1=NC=CC=C1	CCOc1ncccc1	
InChI=1S/C7H9NO/c1-2-9-7-5-3-4-6-8-7/h3-6H,2H2,1H3	InChI=1S/C7H9NO/c1-2-9-7-5-3-4-6-8-7/h3-6H,2H2,1H3
