13
gdb 128982	4.0592	1.73934	1.2176	5.1366	76.59	-0.2099	-0.0856	0.1242	914.9714	0.093697	-411.802584	-411.79674	-411.795796	-411.832681	23.465	
N	 0.0049429485	 1.2748948676	 0.0093537235	-0.20286
C	 1.1490819258	 2.0343597068	 0.0021826208	 0.063601
N	 2.3497810217	 1.5428707042	-0.0122161972	-0.325855
C	 2.4014472898	 0.1810422294	-0.0200132542	 0.265384
C	 3.4069631552	-0.7437940932	-0.0346869598	-0.163664
N	 2.8853585674	-2.0358627804	-0.0365907508	-0.215692
C	 1.5679679873	-1.9785224468	-0.0236357629	-0.122609
C	 1.1459632572	-0.612560035	-0.0119376127	 0.313238
N	-0.0371612108	-0.0658974483	 0.00259678	-0.276915
H	-0.9007656031	 1.7198013083	 0.0206033439	 0.289249
H	 0.9828378614	 3.107255889	 0.0095642607	 0.142981
H	 4.4748727773	-0.5860991616	-0.0441971249	 0.113921
H	 0.9444748422	-2.86201506	-0.0224065065	 0.11922
205.1423	248.9059	421.1615	451.7787	561.9359	568.3148	617.242	635.7659	648.3287	751.8011	783.3691	824.8306	859.707	859.8068	890.0724	950.1907	1027.5122	1074.9871	1145.5203	1228.9365	1268.9834	1309.9477	1342.509	1414.9596	1437.3897	1481.1616	1582.9282	1609.046	1643.975	3184.1164	3227.4491	3247.8477	3622.4822
N1C=NC2=CN=CC2=N1	[nH]1cnc2cncc2n1	
InChI=1S/C5H4N4/c1-4-5(2-6-1)9-8-3-7-4/h1-3H,(H,7,8)	InChI=1S/C5H4N4/c1-4-5(2-6-1)9-8-3-7-4/h1-3H,(H,7,8)
