25
gdb 104171	2.40414	1.20077	1.0827	1.3432	87.91	-0.2611	0.0693	0.3303	1318.8552	0.229132	-389.51438	-389.504362	-389.503418	-389.548912	39.145	
C	 0.0748078952	 1.2700868606	 0.3862388472	-0.397052
C	 0.0267081888	-0.1817217268	-0.1028592403	-0.223181
C	 0.7353633579	-0.4689685136	-1.4471122701	 0.370388
C	 0.0745104207	 0.308694604	-2.5977813949	-0.445243
C	 2.2640648409	-0.1463289962	-1.3648938957	-0.235054
C	 2.9807545277	-1.3541448322	-1.9912875099	-0.245977
C	 2.1092252782	-2.5394900558	-1.556325918	 0.130339
O	 2.2664987797	-2.8271933388	-0.1654260591	-0.43895
C	 0.6873381195	-2.0057536582	-1.7482644265	-0.261453
H	 1.1040180847	 1.6321584621	 0.4811631379	 0.114385
H	-0.4549604227	 1.9502793961	-0.2880826287	 0.113682
H	-0.3948158184	 1.3582435712	 1.3711975332	 0.110133
H	 0.479455805	-0.8345287593	 0.6527006094	 0.111328
H	-1.0230180751	-0.4940332717	-0.1886588866	 0.085066
H	 0.1069343446	 1.3902740739	-2.433348335	 0.111901
H	 0.5814727022	 0.1071857584	-3.5484530334	 0.104994
H	-0.9761606236	 0.0190726034	-2.7168591128	 0.107681
H	 2.5181606596	 0.7955020062	-1.8594025354	 0.087235
H	 2.568503816	-0.0552973732	-0.3182472862	 0.099741
H	 2.9783891817	-1.2896248851	-3.0865912837	 0.096012
H	 4.0261580393	-1.4544771207	-1.6771262181	 0.080927
H	 2.2974698301	-3.4448963205	-2.1514162369	 0.053683
H	 3.1961715669	-3.0201680242	-0.0067217964	 0.278525
H	-0.013731115	-2.5384863031	-1.1003869565	 0.103443
H	 0.3754858063	-2.1827429465	-2.7831040532	 0.087445
52.652	122.0899	163.3163	215.442	247.2894	272.4187	308.5695	314.8385	352.5188	391.9008	403.4708	416.3335	455.0169	590.596	688.2148	763.5001	794.3654	839.397	861.8247	875.7625	907.5587	933.5454	973.1978	987.7799	1013.2656	1022.059	1032.6024	1055.3554	1096.658	1100.781	1163.2857	1184.0033	1224.2056	1233.0284	1240.5702	1281.6282	1312.9578	1324.5434	1338.465	1361.7567	1366.6534	1372.7395	1409.3785	1416.1075	1420.2443	1478.9429	1480.79	1486.9377	1496.5403	1498.2987	1501.7368	1508.3933	1511.653	2990.5227	3012.7773	3021.7526	3028.2878	3035.1038	3048.7078	3052.9164	3058.898	3067.367	3083.4962	3094.8149	3096.7879	3099.0918	3102.0992	3106.6175	3812.9299
CCC1(C)CCC(O)C1	CC[C@@]1(C)CC[C@@H](O)C1	
InChI=1S/C8H16O/c1-3-8(2)5-4-7(9)6-8/h7,9H,3-6H2,1-2H3	InChI=1S/C8H16O/c1-3-8(2)5-4-7(9)6-8/h7,9H,3-6H2,1-2H3/t7-,8+/m1/s1
