23
gdb 84006	2.12462	1.63443	1.31706	1.1863	85.23	-0.2384	0.0778	0.3163	1143.5925	0.206497	-388.29113	-388.281949	-388.281004	-388.324532	35.656	
C	-0.6179522329	 1.3988910612	-0.3231179691	-0.410406
C	-0.1579670113	-0.0260453658	-0.1142331057	-0.082331
C	 1.2616148153	-0.5002853968	-0.3906744018	-0.102121
C	 2.4180737045	 0.4463090647	-0.6791661787	-0.224968
C	 3.408612457	 0.3630307639	 0.4955962539	-0.219963
C	 2.7008891373	 0.6918867221	 1.8317095907	-0.069791
O	 1.2741746741	 0.6666946491	 1.7424295096	-0.292599
C	 0.7444936923	-0.422253907	 1.03021499	 0.412373
C	 0.4706006164	-1.6463844547	 1.8714726289	-0.461675
H	 0.0802871466	 2.1108073077	 0.1199083019	 0.13176
H	-0.727338383	 1.6308450669	-1.3884517602	 0.109626
H	-1.5911389108	 1.5592207742	 0.1533147997	 0.114123
H	-0.9131827972	-0.7714765619	-0.353353486	 0.076901
H	 1.3582998893	-1.4925528785	-0.8237798947	 0.077063
H	 2.9174499795	 0.1700328569	-1.6125954298	 0.09613
H	 2.0698718579	 1.4758804183	-0.8057551261	 0.105637
H	 3.8207044466	-0.6520427633	 0.5277945355	 0.099513
H	 4.2561736648	 1.0412444471	 0.3524053766	 0.096109
H	 3.0434702612	 0.0130948571	 2.6265094683	 0.090718
H	 2.9337905182	 1.7115882444	 2.1531262351	 0.105605
H	-0.2279192575	-1.4107719788	 2.6815447214	 0.122794
H	 0.0352305813	-2.4459909662	 1.2645644107	 0.112833
H	 1.3913118703	-2.0341504007	 2.32337185	 0.112668
105.4404	142.5916	170.2101	204.8173	217.5394	226.0876	287.2274	371.1955	429.2499	485.657	496.7708	571.7576	642.3529	722.1661	772.071	803.9855	851.6866	881.9237	923.8356	947.3685	967.9221	993.9648	1021.429	1057.888	1073.9609	1092.1233	1134.7381	1142.4109	1151.1316	1161.3765	1208.2061	1245.2387	1252.8225	1282.7077	1295.1632	1343.6887	1364.4055	1376.1935	1406.6939	1411.2571	1413.5128	1453.8222	1481.3758	1488.2621	1493.8469	1497.3084	1501.8596	1509.652	1516.8458	2990.1108	3024.6979	3033.2197	3035.6162	3050.454	3063.1132	3082.7957	3086.207	3087.4451	3091.5533	3106.2947	3121.232	3133.4705	3141.7891
CC1C2CCCOC12C	C[C@H]1[C@H]2CCCO[C@@]12C	
InChI=1S/C8H14O/c1-6-7-4-3-5-9-8(6,7)2/h6-7H,3-5H2,1-2H3	InChI=1S/C8H14O/c1-6-7-4-3-5-9-8(6,7)2/h6-7H,3-5H2,1-2H3/t6-,7+,8-/m0/s1
