20
gdb 107355	3.32181	1.15546	0.97153	3.7172	79.06	-0.2357	0.0288	0.2645	1266.0703	0.171951	-403.190305	-403.181766	-403.180822	-403.223497	33.113	
C	-0.3360498875	 1.4930144462	-0.0652947237	-0.376513
C	 0.1171844022	 0.03236113	 0.0516917815	-0.275594
C	 0.8357833835	-0.471082639	-1.1826386238	 0.357897
C	 0.021752189	-1.0091321018	-2.3471858857	-0.342307
C	 0.8866414134	-1.9419099413	-1.5279512077	-0.061851
N	 2.2069642276	-2.2053362915	-2.0192936995	-0.305955
C	 2.9903454223	-1.0807556391	-2.1532376754	 0.394927
O	 4.0738490601	-1.0320840224	-2.6888302582	-0.369954
C	 2.2157906882	 0.085514604	-1.5131171992	-0.417415
H	 0.5164751886	 2.1636328147	-0.2146620387	 0.122472
H	-1.0161796592	 1.6271530652	-0.9129203106	 0.119614
H	-0.857703046	 1.8157667718	 0.8406579103	 0.114443
H	 0.7770487152	-0.0788422503	 0.9225409597	 0.100287
H	-0.7544835986	-0.6053245294	 0.245062356	 0.094937
H	-1.0531319381	-1.0620472036	-2.2055361803	 0.114122
H	 0.3364267068	-0.7964850386	-3.3643435357	 0.116249
H	 0.4463995032	-2.6981295387	-0.8870244082	 0.102361
H	 2.4380004264	-3.0288043689	-2.5540829622	 0.250101
H	 2.2109828162	 0.931305892	-2.2059864433	 0.134086
H	 2.7456075467	 0.4112013608	-0.6104648553	 0.128093
88.1104	105.4858	162.3953	225.3188	291.2154	348.8137	379.8239	455.5552	472.2007	488.1198	590.735	613.506	697.9389	736.9979	792.979	842.2955	870.7924	905.3956	924.5094	973.3774	1003.6222	1012.629	1049.293	1059.1437	1087.6328	1118.6494	1127.9222	1178.8347	1233.9136	1244.9734	1273.9478	1316.7189	1348.4428	1371.3655	1397.9558	1411.8044	1420.2913	1463.0777	1478.6792	1490.9626	1499.4961	1507.7021	1831.9381	3014.811	3035.4823	3048.4063	3050.1794	3097.7211	3104.6895	3108.3079	3120.4692	3166.3343	3210.6126	3626.1219
CCC12CC1NC(=O)C2	CC[C@]12C[C@H]1NC(=O)C2	
InChI=1S/C7H11NO/c1-2-7-3-5(7)8-6(9)4-7/h5H,2-4H2,1H3,(H,8,9)	InChI=1S/C7H11NO/c1-2-7-3-5(7)8-6(9)4-7/h5H,2-4H2,1H3,(H,8,9)/t5-,7-/m1/s1
