13
gdb 132410	3.90533	1.12014	0.87047	0.7098	69.23	-0.2751	-0.0899	0.1851	1187.004	0.089835	-460.784699	-460.777737	-460.776793	-460.816532	25.695	
F	-0.0138462681	 0.0470383772	 0.0033414152	-0.066191
C	-0.0203719477	 1.375273233	 0.0105558447	 0.375319
C	-1.2498920944	 2.0309155085	 0.0311113032	-0.373235
C	-1.2235220156	 3.4212951284	 0.0381192071	 0.231236
C	-2.4982021751	 4.1896545923	 0.0599149841	 0.105713
O	-2.5606064973	 5.3938671828	 0.0673213758	-0.249044
C	 0.0117162372	 4.0790232815	 0.0244281166	-0.201983
C	 1.1620626788	 3.3066325077	 0.0043138601	 0.011304
N	 1.1515678995	 1.9646649606	-0.0026464913	-0.31388
H	-2.1777071096	 1.4701463501	 0.0410246148	 0.128004
H	-3.4151501949	 3.56062933	 0.0694826886	 0.085616
H	 0.0477213871	 5.1611443469	 0.0296692919	 0.135997
H	 2.1437475501	 3.771408551	-0.0068780807	 0.131145
103.2478	196.3652	225.7713	243.3178	386.6549	458.9249	462.7223	566.759	603.4426	682.2414	757.2475	807.4014	872.9945	899.219	962.0035	1001.3713	1007.1482	1043.4074	1114.9979	1162.0229	1301.0356	1319.822	1330.5457	1407.3353	1450.6005	1511.009	1614.8491	1638.4925	1811.2779	2896.2739	3174.1435	3198.5907	3221.695
FC1=CC(C=O)=CC=N1	Fc1cc(C=O)ccn1	
InChI=1S/C6H4FNO/c7-6-3-5(4-9)1-2-8-6/h1-4H	InChI=1S/C6H4FNO/c7-6-3-5(4-9)1-2-8-6/h1-4H
