15
gdb 9715	3.73788	1.6006	1.56261	3.879	66.99	-0.2714	-0.017	0.2545	877.899	0.119126	-362.683109	-362.675619	-362.674675	-362.714916	27.818	
O	-0.2258469262	 1.2762139408	-0.2366809454	-0.446216
C	 0.0400358249	-0.0973532556	 0.0521600232	 0.219991
C	-1.3201622094	-0.8439924037	 0.0898203865	-0.243819
C	-1.4515844164	-1.5364853882	-1.2872688027	-0.266887
C	-0.0397608547	-1.5371801915	-1.8126046109	-0.059744
C	 0.7812043106	-0.7900421301	-1.0789482428	-0.115508
C	 0.7730998723	-0.1880811854	 1.3339721194	 0.232026
N	 1.3705130552	-0.2438208676	 2.3220723547	-0.342233
H	 0.6145106003	 1.7242614568	-0.3882300906	 0.288198
H	-1.3046110785	-1.5897653334	 0.8872501476	 0.131527
H	-2.1173097276	-0.1312403927	 0.3061042643	 0.133397
H	-1.866666011	-2.5461869192	-1.2007106237	 0.11812
H	-2.1145014165	-0.9862137003	-1.9669607577	 0.127075
H	 0.2486763158	-2.0718646823	-2.7110672945	 0.111749
H	 1.8357671713	-0.6169911976	-1.2587845974	 0.112323
79.0546	161.942	185.4776	270.1645	307.1318	381.2303	484.3519	506.6375	563.2009	606.797	732.8525	767.9967	799.8079	843.4512	929.4121	961.3067	981.4305	990.4118	1063.8609	1089.8859	1103.6461	1143.491	1201.4491	1246.532	1312.0827	1319.3022	1350.3102	1384.5248	1471.8298	1490.6407	1683.23	2349.3534	3032.3953	3068.367	3085.3576	3137.2394	3188.9539	3214.6663	3800.3779
OC1(CCC=C1)C#N	O[C@]1(CCC=C1)C#N	
InChI=1S/C6H7NO/c7-5-6(8)3-1-2-4-6/h1,3,8H,2,4H2	InChI=1S/C6H7NO/c7-5-6(8)3-1-2-4-6/h1,3,8H,2,4H2/t6-/m1/s1
