25
gdb 121109	3.25941	0.81875	0.69713	1.16	90.06	-0.2458	0.0855	0.3313	1754.2292	0.228882	-389.519843	-389.509459	-389.508515	-389.556294	38.096	
C	-0.062242675	 1.6019661524	 0.0619649133	-0.381569
C	-0.0279834237	 0.0719846286	 0.0922021613	-0.164524
C	 0.7273080102	-0.4856599749	 1.3035206464	-0.195362
C	 0.752922149	-2.0062678305	 1.3601470268	 0.150523
C	 1.5157175633	-2.6136344596	 2.5621134595	-0.24924
C	 0.663378407	-3.8442438931	 2.9585750352	-0.234469
C	-0.4833737747	-3.8463534043	 1.9215151659	 0.165013
C	-1.8363332436	-4.298448201	 2.4414332227	-0.409374
O	-0.5784538643	-2.4964234975	 1.4833405657	-0.272457
H	 0.9492520547	 2.0228921833	 0.0266546757	 0.109252
H	-0.6066076174	 1.9719950053	-0.8125905625	 0.109831
H	-0.5546710146	 2.0046827759	 0.9542750098	 0.113057
H	-1.0480468875	-0.3264177538	 0.1012823412	 0.116451
H	 0.4397873107	-0.3034430967	-0.827867396	 0.089192
H	 1.7639962901	-0.1227719647	 1.2964999896	 0.090297
H	 0.2697417379	-0.1156040985	 2.2307747788	 0.095832
H	 1.1896696381	-2.397181964	 0.422743913	 0.054095
H	 2.5423449998	-2.8758312171	 2.2936335374	 0.098917
H	 1.5667884837	-1.8913832898	 3.3823466388	 0.101278
H	 1.2282696791	-4.7798615503	 2.9389596398	 0.09857
H	 0.2556861356	-3.7286826241	 3.9674570138	 0.10081
H	-0.189863509	-4.4798220689	 1.0652062328	 0.05735
H	-2.1476141022	-3.6724200953	 3.2836893655	 0.119886
H	-2.5967135555	-4.2258870879	 1.6587478686	 0.123043
H	-1.7884501214	-5.3384056034	 2.7792737569	 0.113598
37.3689	74.3714	93.8874	126.1818	160.007	230.9072	247.447	289.1557	323.8914	383.4556	458.3825	490.5017	602.6733	652.0607	744.8014	819.5691	831.5013	864.7684	899.6251	905.7028	930.6831	977.2565	996.078	1014.9016	1045.9958	1069.9989	1112.0166	1119.5173	1142.3893	1160.8851	1179.6455	1218.0065	1255.6086	1272.9341	1275.2242	1298.7645	1315.5192	1328.9647	1349.9563	1373.6427	1383.4043	1400.0358	1405.8371	1412.5522	1428.1512	1472.2136	1483.4579	1487.8859	1493.4042	1499.3884	1500.091	1508.6703	1510.2886	2925.563	2935.9347	3011.032	3020.2954	3026.5102	3038.1895	3048.2783	3049.1869	3059.9948	3071.9684	3088.4932	3096.1968	3099.3015	3108.1003	3112.3488	3116.4247
CCCC1CCC(C)O1	CCC[C@H]1CC[C@@H](C)O1	
InChI=1S/C8H16O/c1-3-4-8-6-5-7(2)9-8/h7-8H,3-6H2,1-2H3	InChI=1S/C8H16O/c1-3-4-8-6-5-7(2)9-8/h7-8H,3-6H2,1-2H3/t7-,8+/m1/s1
