18
gdb 96998	3.52865	1.32769	1.25567	2.1932	73.43	-0.2469	0.027	0.2739	1080.5859	0.149685	-439.105279	-439.097625	-439.09668	-439.138025	28.954	
C	 0.0258576581	 1.4426490983	 0.0214221416	-0.337359
N	 0.0616653483	-0.0121815653	 0.0398150903	-0.347519
C	 0.5625665868	-0.6322084925	-0.9287968499	 0.476615
O	 1.1131249249	-0.0994703477	-2.0795800091	-0.271168
C	 1.5587589232	-1.2597724063	-2.8226573184	 0.183482
C	 2.8462586617	-1.777155979	-2.1535361397	-0.240229
C	 2.238596054	-2.4472452058	-0.8832939162	-0.229487
C	 0.7348229179	-2.13062485	-1.0935637755	-0.062319
O	 0.5994411158	-2.2443820393	-2.5263114898	-0.245626
H	 0.6218169581	 1.82581983	 0.8577758599	 0.125454
H	 0.3948111409	 1.8918191041	-0.9074395557	 0.124635
H	-1.0047335619	 1.7729618308	 0.190456759	 0.127689
H	 1.578299887	-1.0193661915	-3.8836175683	 0.104266
H	 3.3512416164	-2.4986520447	-2.79933581	 0.115932
H	 3.5355461799	-0.9609077415	-1.9319573003	 0.121041
H	 2.3965515523	-3.527305	-0.8819992103	 0.116856
H	 2.6201506451	-2.0360858137	 0.0526948391	 0.125982
H	 0.0095928014	-2.7479999759	-0.5725032368	 0.111754
59.6899	105.7843	197.8496	227.5848	306.0328	407.5113	457.7871	584.8977	635.1212	705.5397	754.7954	830.759	844.2437	847.4938	894.131	904.6173	932.9948	977.5318	1008.6701	1030.0239	1043.0031	1093.8478	1124.4728	1131.9756	1154.2194	1194.6726	1228.0943	1232.3051	1262.6609	1308.1339	1321.6644	1339.0017	1362.6067	1439.452	1478.6344	1494.2341	1496.5745	1499.148	1832.772	3018.7034	3076.2039	3080.3854	3084.5481	3091.3965	3124.5725	3140.9577	3155.1466	3181.7434
CN=C1OC2CCC1O2	CN=C1O[C@H]2CC[C@@H]1O2	
InChI=1S/C6H9NO2/c1-7-6-4-2-3-5(8-4)9-6/h4-5H,2-3H2,1H3	InChI=1S/C6H9NO2/c1-7-6-4-2-3-5(8-4)9-6/h4-5H,2-3H2,1H3/t4-,5-/m0/s1
