14
gdb 43660	3.39179	1.16094	0.91775	5.5254	69.55	-0.2415	-0.0686	0.1728	1196.6072	0.10015	-436.698271	-436.690123	-436.689179	-436.731762	29.777	
O	-0.0094017108	 0.0085966204	 0.5218797636	-0.273049
C	-0.0159872004	 1.169705871	 0.2266244002	 0.308214
C	-1.2259825196	 2.0494577609	-0.0573206374	-0.348473
C	-0.6744639946	 3.5023320807	-0.067642343	-0.162571
N	 0.7756079812	 3.3112442695	-0.1533540457	-0.307012
C	 1.246461348	 2.0462694277	 0.0563828233	 0.314485
O	 2.3965649088	 1.6830907551	 0.0987452191	-0.345284
C	-1.1887565501	 4.3278060916	-1.1565774156	 0.321124
C	-1.6138322028	 5.01775956	-2.0430994997	-0.434671
H	-1.6212995447	 1.7850242696	-1.0429110697	 0.163982
H	-2.0209015715	 1.8987432985	 0.6743175639	 0.15279
H	-0.9280681466	 3.9913786007	 0.8832795581	 0.128663
H	 1.4035025886	 4.090764262	-0.2780817905	 0.268579
H	-1.9901112854	 5.6240889822	-2.8303853765	 0.213221
48.8494	94.0039	160.827	242.232	319.116	369.2983	447.1704	478.5376	536.2234	583.5926	635.0159	641.0124	656.6217	678.7413	714.3322	749.6933	866.8489	976.3937	1037.5643	1086.7991	1101.6368	1166.3729	1253.8845	1269.2683	1314.0457	1370.3361	1420.4626	1448.6317	1843.4155	1869.5977	2243.3373	3000.282	3072.2259	3133.7502	3499.5854	3631.2486
O=C1CC(NC1=O)C#C	O=C1C[C@@H](NC1=O)C#C	
InChI=1S/C6H5NO2/c1-2-4-3-5(8)6(9)7-4/h1,4H,3H2,(H,7,9)	InChI=1S/C6H5NO2/c1-2-4-3-5(8)6(9)7-4/h1,4H,3H2,(H,7,9)/t4-/m0/s1
