19
gdb 89421	2.66256	1.5929	1.31712	2.8872	75.89	-0.2449	-0.0101	0.2348	1044.6132	0.159965	-423.028947	-423.020938	-423.019994	-423.060899	32.187	
C	 0.0108495537	 1.5090889706	 0.0148702921	-0.471359
C	-0.0037690507	 0.0007729378	 0.0720321607	 0.389553
C	-1.1677107508	-0.7023869828	-0.6006630923	-0.306291
C	-1.0252637036	-2.2370041784	-0.6042790016	 0.068936
O	-0.094359461	-2.6682169923	-1.593770896	-0.43885
C	-0.6434086226	-2.7610091707	 0.7643395187	-0.112336
C	 0.1423213554	-2.0575719973	 1.5823471288	-0.036201
C	 0.6501124555	-0.7230731007	 1.1842417121	-0.057306
O	 1.2767504829	-0.6263226382	-0.1286039513	-0.302385
H	 0.884474793	 1.90871647	 0.5358958954	 0.128713
H	 0.0456201562	 1.8522926909	-1.0247985295	 0.130393
H	-0.8922532887	 1.92336804	 0.4751786817	 0.124847
H	-2.0914230575	-0.41425729	-0.0826132391	 0.106292
H	-1.257303189	-0.3682232557	-1.6403895107	 0.114371
H	-1.9821900853	-2.6737269247	-0.9076751346	 0.084393
H	 0.7453535701	-2.2560343961	-1.3449018134	 0.287078
H	-0.9834737779	-3.7547886987	 1.0391072402	 0.102045
H	 0.4428043156	-2.4419382184	 2.5523749156	 0.09704
H	 1.1747476047	-0.145444335	 1.9423554231	 0.091067
154.3785	173.129	206.751	291.0072	302.0565	362.4043	395.9051	437.825	474.2746	562.082	590.4384	628.2702	698.8738	758.187	792.546	828.2754	867.894	903.0757	953.6793	966.7466	988.2109	1025.4983	1044.4411	1072.0133	1097.7887	1119.7118	1181.1944	1231.8672	1238.2828	1286.1134	1328.6407	1337.9927	1386.4594	1411.906	1414.0233	1445.8448	1453.3262	1470.8772	1487.2331	1499.3031	1700.8817	3027.0946	3036.6572	3058.7294	3075.4351	3100.9887	3122.5004	3134.0442	3165.8925	3187.7448	3737.9658
CC12CC(O)C=CC1O2	C[C@]12C[C@@H](O)C=C[C@H]1O2	
InChI=1S/C7H10O2/c1-7-4-5(8)2-3-6(7)9-7/h2-3,5-6,8H,4H2,1H3	InChI=1S/C7H10O2/c1-7-4-5(8)2-3-6(7)9-7/h2-3,5-6,8H,4H2,1H3/t5-,6+,7-/m0/s1
