17
gdb 125932	4.5309	1.27024	1.0339	0.62	74.75	-0.2022	0.0223	0.2245	1134.548	0.138598	-418.023663	-418.016182	-418.015238	-418.055766	29.005	
C	 0.1716604618	 1.5335540333	 0.0510199561	-0.398636
C	 0.0681701554	 0.0228958739	-0.0178831553	 0.124485
C	 0.7835345723	-0.6401342455	-1.2466216271	-0.38786
C	 1.4394627517	-1.8063084537	-0.5741867995	 0.272291
N	 2.1167512615	-2.8939298526	-0.9099986567	-0.323668
N	 2.4397584188	-3.4309427018	 0.2884850912	-0.190938
C	 1.9809905907	-2.7179626846	 1.3738114174	-0.209364
C	 1.3292652621	-1.649565746	 0.8105548124	 0.296299
O	 0.6606792875	-0.5374953237	 1.2047673631	-0.303664
H	 1.2201416972	 1.8468273801	 0.0552390623	 0.127564
H	-0.322887736	 1.9859295959	-0.8145462651	 0.120529
H	-0.3069078003	 1.9125288964	 0.9580913928	 0.130242
H	-0.9853074604	-0.285037419	-0.0106403159	 0.091801
H	 0.0628962115	-0.9081798638	-2.0236893347	 0.125278
H	 1.5153662904	 0.0437321278	-1.6946467521	 0.120026
H	 2.9434604371	-4.3001061427	 0.3075189418	 0.272337
H	 2.1643470388	-3.0360238942	 2.3857471992	 0.133276
59.9537	224.3412	241.2083	282.3355	321.3273	397.7573	441.9946	488.4848	588.1899	637.7051	701.8756	726.7228	740.9097	784.6161	826.2102	896.8492	930.0389	971.6925	1042.1164	1053.9638	1098.2212	1123.4256	1166.1505	1189.3541	1205.1053	1276.2948	1307.313	1354.0895	1377.1591	1411.0265	1456.6046	1472.5128	1484.7187	1492.9973	1497.9359	1534.1823	1654.5905	3017.3463	3027.3446	3040.5609	3089.6845	3113.5893	3121.5553	3278.7027	3688.6794
CC1CC2=NNC=C2O1	C[C@H]1Cc2n[nH]cc2O1	
InChI=1S/C6H8N2O/c1-4-2-5-6(9-4)3-7-8-5/h3-4H,2H2,1H3,(H,7,8)	InChI=1S/C6H8N2O/c1-4-2-5-6(9-4)3-7-8-5/h3-4H,2H2,1H3,(H,7,8)/t4-/m0/s1
