13
gdb 10466	3.09997	1.63707	1.21124	4.3577	60.12	-0.2947	-0.0213	0.2735	957.2898	0.09376	-398.609776	-398.602091	-398.601147	-398.642391	26.749	
O	 0.1032309814	 0.0077146283	 0.1327283328	-0.248503
C	 0.0998601467	 1.1918546517	 0.2436462862	 0.16526
O	 1.0792888025	 1.9647441176	-0.3092578217	-0.222327
C	 0.9867599004	 3.3562284461	-0.091543992	 0.265507
C	 1.4047216532	 3.9015592131	 1.2626461719	-0.30935
C	 2.3115422536	 4.0565129119	 0.0753304779	-0.299215
C	-0.0718365676	 4.0117872907	-0.823158943	 0.252707
N	-0.9262837741	 4.5360350778	-1.3995507989	-0.327759
H	-0.6605438964	 1.7830012311	 0.7838172512	 0.106617
H	 0.8775751834	 4.7700568509	 1.6386202857	 0.154281
H	 1.6650121606	 3.156622197	 2.0056394993	 0.150119
H	 3.1773997444	 3.4089248184	 0.0067218281	 0.158118
H	 2.4203486119	 5.0339073856	-0.3777444875	 0.154545
70.4181	130.2834	163.7271	204.9715	229.1672	360.4295	430.2539	520.6496	574.7372	599.485	751.1682	784.1542	913.0922	940.7855	964.8776	1011.6637	1040.93	1072.5638	1097.1369	1137.2228	1195.4105	1261.1393	1312.4371	1422.6045	1454.659	1485.707	1882.2865	2354.0542	2990.0377	3149.4612	3155.6394	3240.3506	3254.465
O=COC1(CC1)C#N	O=COC1(CC1)C#N	
InChI=1S/C5H5NO2/c6-3-5(1-2-5)8-4-7/h4H,1-2H2	InChI=1S/C5H5NO2/c6-3-5(1-2-5)8-4-7/h4H,1-2H2
