15
gdb 18935	3.72929	2.53033	2.02703	2.8702	58.73	-0.2305	0.0537	0.2842	690.0717	0.121834	-399.727464	-399.722015	-399.721071	-399.75674	23.092	
O	 0.0467983893	 1.362690467	 0.0370977905	-0.450533
C	 0.0356655436	-0.0324717884	-0.0320494322	 0.203242
C	-1.352819854	-0.6411219531	-0.3642198974	-0.128547
N	-1.6235244558	 0.1403366234	-1.6275899935	-0.355445
C	-0.5922947857	-0.7600955112	-2.2207570947	-0.060969
C	-0.8425435506	-1.8928165541	-1.213597419	 0.101993
O	 0.5518997742	-2.0964706382	-0.9602232052	-0.291183
C	 0.6833471845	-0.6788669166	-1.2866219206	 0.014385
H	-0.5885042775	 1.6476155249	-0.6401669325	 0.288818
H	 0.4887032542	-0.43826715	 0.8736714536	 0.096416
H	-2.1279220717	-0.6671318726	 0.3986174798	 0.081599
H	-2.5326508203	-0.1222010248	-2.0033943063	 0.227194
H	-0.4868761031	-0.8440095086	-3.3004285966	 0.090767
H	-1.4472938558	-2.7911126683	-1.3354298281	 0.09133
H	 1.6760162587	-0.3741981794	-1.6103376978	 0.090933
240.8269	336.4596	483.7609	506.5685	574.3839	608.4101	710.3034	759.4805	791.6752	838.6153	846.5072	859.051	909.8747	929.8106	943.9679	974.9728	999.8853	1022.188	1064.1337	1107.5615	1145.6256	1158.7923	1165.7307	1181.4201	1209.8048	1255.2668	1263.664	1291.4601	1312.0146	1338.6219	1355.0441	1448.4338	3111.2823	3123.4582	3142.9096	3149.0121	3156.7651	3486.3022	3674.7416
OC1C2NC3C2OC13	O[C@H]1[C@H]2N[C@@H]3[C@H]2O[C@H]13	
InChI=1S/C5H7NO2/c7-3-1-4-2(6-1)5(3)8-4/h1-7H	InChI=1S/C5H7NO2/c7-3-1-4-2(6-1)5(3)8-4/h1-7H/t1-,2-,3+,4+,5+/m1/s1
