17
gdb 48505	4.85786	1.27775	1.27618	3.225	77.73	-0.2398	-0.0222	0.2176	1019.1872	0.136831	-384.628519	-384.621731	-384.620787	-384.65989	26.963	
O	-0.2181416273	 0.3946430203	-0.8681708101	-0.281587
C	 0.0791971617	 1.0308673111	 0.1203082655	-0.002115
C	 1.2615314447	 1.8794083444	 0.2199273537	 0.27791
C	 2.671190208	 1.6276143676	-0.3389872541	-0.105319
C	 1.8767649414	 2.7945716328	-0.8510179159	-0.105305
C	 2.2713794175	 3.8851069933	 0.1775929591	-0.053159
C	 3.7832904248	 3.7001296398	 0.4569862209	-0.243052
C	 3.370458417	 2.2705720545	 0.8860247343	-0.05315
C	 1.9347523026	 2.7997366863	 1.2728156559	-0.148442
H	-0.5559299404	 1.0001022871	 1.0351735252	 0.065047
H	 2.9687822905	 0.7869782017	-0.95020736	 0.110934
H	 1.5370946806	 2.8899861943	-1.8729474088	 0.110935
H	 1.7864213722	 4.8576988694	 0.1164779089	 0.074131
H	 4.4883175279	 3.8165031978	-0.3715869413	 0.099266
H	 4.1098525176	 4.2982537506	 1.3135164744	 0.102704
H	 3.9786160677	 1.637380034	 1.5295052006	 0.074133
H	 1.6041112535	 3.018772455	 2.2849669618	 0.077069
99.7406	153.0759	178.4527	385.2658	453.3832	545.8836	701.9972	703.4084	766.4108	791.4552	798.6998	822.3734	842.3484	866.7025	905.4311	930.4048	941.4479	990.759	1005.1284	1012.3961	1034.936	1050.0921	1061.844	1096.3761	1112.5904	1170.0392	1188.3741	1195.8223	1220.8776	1229.0707	1255.1103	1279.6242	1298.7938	1396.2148	1442.2828	1486.6588	1780.4391	2864.1878	3046.7995	3104.4665	3131.7571	3131.8886	3151.6261	3213.9556	3223.273
O=CC12C3C1C1CC3C21	O=C[C@@]12[C@H]3[C@@H]1[C@@H]1C[C@H]3[C@H]21	
InChI=1S/C8H8O/c9-2-8-5-3-1-4(5)7(8)6(3)8/h2-7H,1H2	InChI=1S/C8H8O/c9-2-8-5-3-1-4(5)7(8)6(3)8/h2-7H,1H2/t3-,4+,5-,6+,7-,8+
