22
gdb 74427	2.58877	1.40071	1.06533	1.5319	89.09	-0.225	0.0246	0.2495	1239.2053	0.195117	-367.216273	-367.207375	-367.206431	-367.24934	35.019	
C	-0.1073700221	 1.517303104	 0.0350541217	-0.478185
C	 0.0135632183	 0.0195528344	 0.0083056815	 0.322231
C	-0.0712870427	-0.6892376072	-1.1205505861	-0.197005
C	-0.0075087341	-2.1778218106	-1.1449128371	 0.308956
C	-1.0946671588	-2.8619193607	-1.9482134998	-0.472765
N	 1.3630430329	-2.7579911084	-1.1852773225	-0.371933
C	 0.5587877839	-2.839075175	 0.0575131388	-0.086649
C	 1.032225261	-1.9757034408	 1.2202020014	-0.212667
C	 0.2237894547	-0.6705369852	 1.342720302	-0.304544
H	 0.8095756761	 1.9813065997	 0.4211383926	 0.123839
H	-0.3058258268	 1.9270591257	-0.9590855612	 0.118817
H	-0.9186392759	 1.8344021954	 0.7037805961	 0.120959
H	-0.220298771	-0.1845081536	-2.0737986966	 0.071833
H	-1.0273889209	-2.5893608006	-3.0084061688	 0.120696
H	-1.0149155753	-3.9519681465	-1.873448378	 0.10856
H	-2.0899560074	-2.5701528857	-1.5959011608	 0.124398
H	 1.327834316	-3.6544150894	-1.6690617932	 0.217589
H	 0.1525524857	-3.8147960976	 0.3157203937	 0.074873
H	 0.9771582065	-2.5372019043	 2.1589930829	 0.090213
H	 2.0850455916	-1.7289488795	 1.051679704	 0.116415
H	 0.7317130143	 0.0118031811	 2.0346506314	 0.098115
H	-0.7569238959	-0.873159535	 1.798643818	 0.106254
117.9473	125.5227	199.1144	212.6368	244.4571	281.2024	378.099	403.9853	438.3668	445.4184	508.2816	530.6731	596.2005	755.5487	777.302	813.918	869.8321	883.8658	912.4691	956.2063	975.0194	1011.4158	1027.7008	1034.8874	1054.3765	1084.7284	1095.9953	1132.5886	1175.1212	1179.9304	1223.1561	1260.1334	1292.3847	1327.37	1347.2836	1381.6655	1394.9779	1410.8288	1412.5985	1445.9403	1475.3103	1479.1509	1483.94	1485.9352	1489.9474	1502.9518	1734.2401	2997.3141	3011.9822	3020.1637	3038.5224	3051.3705	3057.4896	3083.9517	3086.9162	3095.0732	3108.5618	3123.3291	3135.678	3465.3582
CC1=CC2(C)NC2CC1	CC1=C[C@@]2(C)N[C@H]2CC1	
InChI=1S/C8H13N/c1-6-3-4-7-8(2,5-6)9-7/h5,7,9H,3-4H2,1-2H3	InChI=1S/C8H13N/c1-6-3-4-7-8(2,5-6)9-7/h5,7,9H,3-4H2,1-2H3/t7-,8+/m0/s1
