20
gdb 62016	3.52223	0.64624	0.61606	4.373	77.08	-0.245	-0.0188	0.2261	1832.2415	0.167602	-440.336043	-440.324789	-440.323845	-440.375103	37.8	
C	-0.2213899382	 1.5667519699	 0.0477812028	-0.409349
C	 0.0021696234	 0.0458604305	-0.0235908997	-0.068314
C	 0.7994798507	-0.5063741379	 1.1781702862	-0.184765
C	 2.2560370348	-0.0366497807	 1.2307224558	-0.322926
C	 2.9446244452	-0.4814798231	 2.5225571396	 0.412277
N	 4.2946622638	-0.6519186262	 2.4235968363	-0.523024
O	 2.3428383613	-0.6433875783	 3.5663514164	-0.357888
C	-1.3480972362	-0.6451875543	-0.0578308936	 0.159095
O	-1.7464925393	-1.3516429192	-0.9470054107	-0.250024
H	 0.7274532981	 2.1095370718	 0.0602674714	 0.124792
H	-0.792048862	 1.9200928825	-0.816334397	 0.130524
H	-0.7735016274	 1.8398941593	 0.9541749617	 0.126762
H	 0.5103951225	-0.2139496648	-0.9593537777	 0.089244
H	 0.3145453991	-0.2272697416	 2.119493195	 0.131384
H	 0.7871369054	-1.6022717003	 1.1429141133	 0.11503
H	 2.8120610265	-0.3915319735	 0.354739614	 0.102607
H	 2.3095703755	 1.0590077203	 1.2086086133	 0.132884
H	 4.7916107168	-0.5493269751	 1.5570251822	 0.258216
H	 4.8052953083	-0.9168272464	 3.2498680296	 0.261949
H	-1.9780254083	-0.446370853	 0.8430277411	 0.071527
25.8097	44.1106	69.4585	71.4245	97.265	135.0837	203.2262	252.681	295.1498	343.0731	365.4858	452.209	527.1399	549.7646	614.518	678.3348	771.6433	847.3359	891.8324	916.3172	948.6224	974.7934	1059.5682	1074.4608	1115.4818	1133.516	1157.9555	1208.4474	1247.7353	1294.3471	1312.1825	1355.4201	1369.9252	1403.7258	1408.2232	1428.5161	1465.2541	1489.9784	1497.0752	1505.3579	1616.4171	1797.5979	1836.195	2840.6364	3028.3329	3036.3846	3038.7338	3047.0665	3064.4381	3091.7206	3105.5474	3114.6249	3605.18	3743.5428
CC(CCC(N)=O)C=O	C[C@@H](CCC(=O)N)C=O	
InChI=1S/C6H11NO2/c1-5(4-8)2-3-6(7)9/h4-5H,2-3H2,1H3,(H2,7,9)	InChI=1S/C6H11NO2/c1-5(4-8)2-3-6(7)9/h4-5H,2-3H2,1H3,(H2,7,9)/t5-/m0/s1
