20
gdb 66838	2.64035	1.9526	1.45246	1.6193	82.43	-0.2178	0.0914	0.3091	988.4495	0.171207	-365.944034	-365.936256	-365.935312	-365.975711	31.372	
C	-0.020327092	 1.4325033999	 0.0422647036	-0.512386
C	 0.1067582275	-0.0536265641	-0.0623023315	 0.301837
C	 0.2970454667	-0.919320649	-1.3278721365	-0.117526
C	-1.0867137376	-1.5530821381	-1.6142106734	-0.248831
C	-0.9290531732	-2.1158604201	-0.1928909993	 0.01557
C	 0.6244652447	-2.0905099402	-0.3152144894	-0.131127
C	 0.6678397904	-1.0766494628	 0.8615740011	 0.305069
C	 1.4215743666	-1.0123920179	 2.1467648091	-0.526834
N	-0.823932538	-0.9258793996	 0.7508085637	-0.236107
H	 0.8874849701	 1.9343023364	-0.3106316302	 0.115326
H	-0.863007384	 1.794763565	-0.5582815266	 0.122844
H	-0.1993137221	 1.7316401633	 1.0789399529	 0.130238
H	 0.9777732652	-0.5769160761	-2.1058100551	 0.068288
H	-1.9370626689	-0.8977717002	-1.8256553581	 0.100104
H	-1.0228703666	-2.3455741004	-2.3665950796	 0.099717
H	-1.531364177	-2.9302746181	 0.2079813885	 0.071349
H	 1.279876748	-2.9303708315	-0.5336146484	 0.067734
H	 2.4968241407	-0.8940757785	 1.970655565	 0.119386
H	 1.0776394735	-0.1644768861	 2.7473287994	 0.130944
H	 1.2744490261	-1.923583862	 2.7379626447	 0.124405
178.75	185.5523	193.4702	232.4358	266.444	299.5768	442.8466	566.6608	598.5771	624.6739	720.9496	742.5048	802.1831	815.9523	832.4835	863.7957	887.1079	915.2269	950.2793	957.2526	996.4234	1033.9997	1070.3536	1081.4894	1091.3312	1106.7978	1136.8385	1162.8566	1172.9882	1187.2266	1211.4652	1249.2798	1268.9404	1279.2845	1322.8984	1405.7328	1409.8143	1469.8642	1478.0844	1482.2045	1486.609	1488.5139	1502.4416	3024.3569	3026.7063	3045.9828	3085.3404	3086.6294	3104.3313	3104.5557	3111.2033	3119.4577	3126.8205	3143.8507
CC12C3CC4C3C1(C)N24	C[C@@]12[C@@H]3C[C@H]4[C@@H]3[C@]1(C)N24	
InChI=1S/C8H11N/c1-7-4-3-5-6(4)8(7,2)9(5)7/h4-6H,3H2,1-2H3	InChI=1S/C8H11N/c1-7-4-3-5-6(4)8(7,2)9(5)7/h4-6H,3H2,1-2H3/t4-,5+,6-,7-,8+,9?/m1/s1
