17
gdb 77508	1.96418	1.77544	1.30342	2.8283	63.94	-0.2398	0.0573	0.2971	1029.6906	0.133437	-496.03422	-496.025078	-496.024133	-496.067241	34.934	
O	-0.0222746185	 1.436581019	-0.061268843	-0.443316
C	 0.0046815492	 0.0347894636	-0.0004428291	 0.020849
C	-0.0360136283	-0.6614702648	 1.3881692136	 0.300707
O	 1.0204728936	-0.6184771835	 2.279677702	-0.479095
C	-1.4953656101	-0.1325624478	 1.5539268314	-0.35846
C	-1.3900858047	-0.6626779338	 0.1012527782	 0.37459
O	-2.4333411897	-0.6371805699	-0.7946120463	-0.47092
C	-0.6561291831	-1.9067067041	 0.6791190147	-0.015133
O	 0.1053383813	-2.6553011991	-0.2368444917	-0.449866
H	 0.8578946953	 1.7574597217	 0.1595767349	 0.289436
H	 0.7019796331	-0.3991895707	-0.7219654933	 0.079653
H	 0.7121070297	-0.9250768874	 3.1391380985	 0.287322
H	-2.1512170384	-0.6935725645	 2.2257303574	 0.088156
H	-1.6030353091	 0.9442793103	 1.6562675529	 0.1269
H	-2.1401675312	-1.0647932715	-1.6073113928	 0.292426
H	-1.278865221	-2.5481032377	 1.3174380896	 0.06695
H	 0.8261390519	-3.0751806998	 0.2438116431	 0.289799
151.9909	188.5126	213.615	216.3135	265.0009	266.5537	276.6685	301.2586	318.7519	390.3793	476.0425	558.3867	569.0328	617.1996	687.2279	700.8073	763.9877	839.0368	888.4381	1008.8214	1047.2935	1056.915	1112.4655	1129.0678	1137.3257	1151.1624	1156.7136	1179.2398	1245.1315	1283.6099	1307.4523	1333.1132	1378.2024	1386.4636	1409.9468	1453.1753	1533.3588	3013.1436	3066.7268	3076.6552	3175.2239	3802.8271	3807.6022	3813.0909	3818.1604
OC1C2(O)CC1(O)C2O	O[C@H]1[C@@]2(O)C[C@]1(O)[C@H]2O	
InChI=1S/C5H8O4/c6-2-4(8)1-5(2,9)3(4)7/h2-3,6-9H,1H2	InChI=1S/C5H8O4/c6-2-4(8)1-5(2,9)3(4)7/h2-3,6-9H,1H2/t2-,3-,4-,5+
