17
gdb 97856	5.13474	0.66811	0.64	2.0893	79.86	-0.246	0.005	0.251	1743.6545	0.135005	-421.781791	-421.772652	-421.771707	-421.817862	31.81	
O	 0.2312304474	 1.2046647162	 0.4287761918	-0.401996
C	-0.0011162821	-0.0143042755	-0.262947813	-0.192058
C	-1.3661094929	-0.5181035326	-0.1225704021	 0.03594
C	-2.5105622341	-0.8818365432	-0.0212927574	 0.089608
C	-3.8956810729	-1.3409099652	 0.1269905103	-0.100347
O	-4.6976654121	-1.0008956025	-1.0119908941	-0.261253
C	-5.1734313803	-2.1831749457	-1.6526911147	-0.11454
C	-4.7220100133	-3.3166740559	-0.7769658615	-0.091673
C	-4.0047561553	-2.8483779222	 0.2348205777	-0.079778
H	-0.4611625721	 1.8200237724	 0.1656137089	 0.288699
H	 0.2379141786	 0.0795373355	-1.3346000006	 0.120766
H	 0.7110993131	-0.7343425235	 0.1555526429	 0.140106
H	-4.3296888096	-0.8434220053	 1.0089585442	 0.11399
H	-6.2683142429	-2.1278449296	-1.7439816505	 0.111319
H	-4.7645313264	-2.2581427087	-2.6729896507	 0.110338
H	-4.9600989659	-4.3531153118	-0.9794732881	 0.112156
H	-3.5269921492	-3.4066038023	 1.028165527	 0.118725
22.7711	58.8358	92.4417	128.1207	193.8914	281.5897	331.7785	374.6188	458.9446	521.5745	569.6861	700.2069	765.4036	813.8213	830.8805	913.9381	934.4229	957.8362	985.8066	1000.9863	1045.1506	1049.0358	1096.3606	1114.8392	1161.3068	1197.3001	1215.9052	1280.6886	1340.3876	1347.1794	1357.4349	1380.8346	1418.7416	1489.416	1518.5492	1693.8746	2353.1401	2972.0041	2975.7337	2977.5622	3005.0127	3061.0865	3213.5528	3241.5834	3816.0759
OCC#CC1OCC=C1	OCC#C[C@H]1OCC=C1	
InChI=1S/C7H8O2/c8-5-1-3-7-4-2-6-9-7/h2,4,7-8H,5-6H2	InChI=1S/C7H8O2/c8-5-1-3-7-4-2-6-9-7/h2,4,7-8H,5-6H2/t7-/m1/s1
