17
gdb 55004	2.50264	1.17413	1.11995	4.4693	70.35	-0.2387	-0.0194	0.2192	1190.3714	0.134302	-455.166588	-455.157057	-455.156113	-455.202092	34.014	
C	 1.4302176233	 0.0442878913	 0.2108304934	-0.489959
C	 0.0945011388	-0.1178839781	-0.4661449221	 0.381113
O	-0.2148003081	 0.4451217057	-1.4929950671	-0.310741
C	-0.9091904627	-1.0793021005	 0.1423204131	-0.124496
N	-0.6091960243	-1.7481100049	 1.401552842	-0.308308
C	-1.7097116871	-0.7904792509	 1.3899227746	-0.131763
C	-1.5500048535	 0.480234945	 2.1935446204	 0.428727
N	-2.7364917128	 1.1098107043	 2.4473632077	-0.526428
O	-0.4854320202	 0.9065326078	 2.5920953515	-0.35118
H	 2.041161768	 0.7473479249	-0.3564748182	 0.127288
H	 1.280293171	 0.3860840732	 1.2383169651	 0.194072
H	 1.9305624662	-0.9286009003	 0.2736537087	 0.135815
H	-1.4708141601	-1.6070469654	-0.6273230538	 0.109475
H	-0.9596868485	-2.7015469905	 1.4137214084	 0.245062
H	-2.7248547847	-1.1850986193	 1.3704509055	 0.091868
H	-3.5858930519	 0.849036438	 1.9766220785	 0.262071
H	-2.6919615134	 2.0256954798	 2.8649132724	 0.267383
30.2229	56.7297	157.2389	162.9927	202.6929	282.056	286.0343	294.8558	425.474	476.224	500.9854	550.9313	601.2964	647.5923	724.0731	751.978	818.832	882.3417	945.4594	961.7349	989.2514	1051.7678	1074.1192	1105.4463	1160.2991	1191.2431	1226.7494	1269.2998	1303.3937	1386.3604	1406.9568	1456.2118	1471.0239	1479.9379	1621.0118	1799.9507	1804.817	3044.1027	3107.9938	3115.9778	3124.5802	3160.169	3515.9566	3597.0895	3728.3964
CC(=O)C1NC1C(N)=O	CC(=O)[C@H]1N[C@H]1C(=O)N	
InChI=1S/C5H8N2O2/c1-2(8)3-4(7-3)5(6)9/h3-4,7H,1H3,(H2,6,9)	InChI=1S/C5H8N2O2/c1-2(8)3-4(7-3)5(6)9/h3-4,7H,1H3,(H2,6,9)/t3-,4-/m1/s1
