19
gdb 92248	2.7778	1.61603	1.33047	1.2324	74.78	-0.2429	0.0664	0.3093	1027.0286	0.159417	-422.965902	-422.958216	-422.957272	-422.997934	30.157	
C	-0.0857165428	 1.5651437721	-0.0841582375	-0.41147
C	 0.0615789297	 0.0604850894	-0.0011522312	 0.042809
O	 1.1704390964	-0.4532846223	-0.8015731809	-0.322032
C	 1.6144583515	-1.331674742	 0.2627488261	 0.084965
C	 2.8690018021	-0.8147566966	 1.0078553451	-0.263461
C	 1.9224363728	-0.0693524181	 1.9803293782	 0.076864
O	 1.5351548913	-0.8606793621	 3.133274749	-0.297446
C	 0.2265351102	-1.1516051367	 2.5754246409	-0.195103
C	 0.6621784509	-0.5914923318	 1.235206882	 0.250057
H	 0.8320542017	 2.0673823006	 0.2341272018	 0.122167
H	-0.304264866	 1.8678730446	-1.1127872155	 0.131963
H	-0.9110479367	 1.9032284062	 0.551854016	 0.120035
H	-0.8742568684	-0.4301297991	-0.3124325428	 0.074621
H	 1.5341403128	-2.3884363223	-0.0104176987	 0.074682
H	 3.4726375616	-1.5798599523	 1.502427343	 0.113191
H	 3.5049315263	-0.1784904612	 0.3874195955	 0.112845
H	 2.1205780894	 0.9729073576	 2.2472546992	 0.074999
H	-0.0224118165	-2.2183307746	 2.6237581021	 0.107862
H	-0.5596596862	-0.5754841913	 3.0840149377	 0.102452
115.0405	158.2825	206.1268	235.3923	329.6934	368.3831	418.5084	486.3146	527.1202	659.9743	711.291	794.1262	855.682	865.0493	879.8276	906.0125	969.5008	974.6795	986.0517	1030.3743	1049.3997	1088.7622	1107.9163	1133.6257	1134.0336	1160.5769	1175.7244	1187.7125	1245.7952	1263.5993	1269.1712	1295.7559	1315.1094	1341.4457	1372.0466	1398.988	1415.2793	1442.9849	1482.5055	1494.8301	1520.323	2974.9175	2997.1221	3037.7909	3053.0801	3055.5553	3059.3137	3069.5704	3108.4571	3119.8448	3127.099
CC1OC2CC3OCC123	C[C@H]1O[C@H]2C[C@@H]3OC[C@]123	
InChI=1S/C7H10O2/c1-4-7-3-8-5(7)2-6(7)9-4/h4-6H,2-3H2,1H3	InChI=1S/C7H10O2/c1-4-7-3-8-5(7)2-6(7)9-4/h4-6H,2-3H2,1H3/t4-,5+,6+,7-/m1/s1
