16
gdb 57091	3.64257	1.11142	1.04474	5.2845	70.52	-0.2625	-0.008	0.2545	1167.4047	0.124205	-437.889396	-437.881091	-437.880147	-437.922959	30.153	
O	 0.2947190191	 1.5105074854	-0.041882406	-0.407265
C	 0.0809038283	 0.1235966332	-0.0293456045	-0.033901
C	 0.5930594682	-0.5177189406	-1.2628760218	 0.268171
N	 0.9925826443	-1.0189958789	-2.2240174748	-0.317853
C	 0.7213113384	-0.5320470852	 1.2224965858	 0.063588
O	 2.0710450492	-0.0710149775	 1.3009128134	-0.287875
C	 2.3538346676	 0.4004705999	 2.6240567744	-0.124238
C	 1.0230499272	 0.4123414845	 3.319655834	-0.093677
C	 0.0974564697	-0.1112670577	 2.5262905924	-0.091838
H	 1.2371566115	 1.6245860368	 0.1461912707	 0.297705
H	-1.0023563164	-0.0385443564	 0.0020441144	 0.137329
H	 0.6977370533	-1.6257045694	 1.0910451095	 0.10936
H	 3.0735531148	-0.2724856959	 3.1152062129	 0.120935
H	 2.8217068885	 1.3920608132	 2.5608190713	 0.119877
H	 0.8854414558	 0.7823114034	 4.3272236602	 0.120533
H	-0.9510796594	-0.2584221846	 2.7497671079	 0.11915
60.1763	97.0534	140.7375	212.473	254.6115	306.7747	397.4319	453.4769	476.588	584.8711	691.3467	714.3677	774.0346	818.1739	883.3074	923.8488	946.6237	958.5758	982.1098	1042.0611	1049.7148	1085.0947	1114.1109	1137.8332	1202.6357	1248.1797	1279.313	1321.2571	1352.088	1370.6793	1383.8871	1428.5391	1518.4423	1692.864	2356.3418	2977.3567	2989.0608	3028.0106	3061.3794	3214.5934	3238.1499	3751.3613
OC(C#N)C1OCC=C1	O[C@@H](C#N)[C@H]1OCC=C1	
InChI=1S/C6H7NO2/c7-4-5(8)6-2-1-3-9-6/h1-2,5-6,8H,3H2	InChI=1S/C6H7NO2/c7-4-5(8)6-2-1-3-9-6/h1-2,5-6,8H,3H2/t5-,6-/m0/s1
