15
gdb 123622	4.12094	1.56707	1.23912	2.6817	70.36	-0.2442	-0.0171	0.2272	954.7155	0.115819	-416.766948	-416.760828	-416.759884	-416.79737	24.766	
C	 0.071003292	 1.4771314239	-0.0338850514	-0.237815
C	 1.3279272752	 0.6731634524	 0.0006616546	-0.164994
N	-0.0178046899	 0.0184545164	-0.0051586133	-0.101706
C	-0.247372994	-0.6098674997	-1.343708585	-0.303668
C	 0.9842041701	-0.2883821628	-2.1434531956	 0.130716
C	 1.6516970419	-0.4387161972	-3.3095711125	-0.08289
O	 2.8809191596	 0.1181000535	-3.2082037824	-0.17456
N	 3.0459012924	 0.6681215942	-1.9261522709	-0.259386
C	 1.913447387	 0.4158382926	-1.3317275753	 0.405876
H	-0.2724283795	 1.9727333396	 0.8697888195	 0.128496
H	-0.1593914999	 2.0004282756	-0.9601130239	 0.122715
H	 1.9243747135	 0.5914882695	 0.9020080585	 0.120198
H	-0.3742044822	-1.687569338	-1.1959097366	 0.133712
H	-1.1773758871	-0.2249357034	-1.7746012206	 0.128812
H	 1.4340703407	-0.8976752768	-4.2613415852	 0.154494
161.2835	235.3593	362.2925	435.9612	441.2471	591.4461	601.228	697.2392	728.2942	748.9407	799.6119	831.7373	840.321	885.3709	956.2798	967.5911	1016.9339	1021.5618	1072.8056	1109.3121	1117.8468	1148.0945	1164.2694	1215.4334	1251.524	1280.1	1300.2734	1346.7146	1418.8116	1492.6719	1502.7572	1564.8895	1672.7539	3042.9806	3078.6631	3098.9341	3180.0498	3191.19	3266.0695
C1C2N1CC1=CON=C21	C1[C@H]2N1Cc1conc21	
InChI=1S/C6H6N2O/c1-4-3-9-7-6(4)5-2-8(1)5/h3,5H,1-2H2	InChI=1S/C6H6N2O/c1-4-3-9-7-6(4)5-2-8(1)5/h3,5H,1-2H2/t5-,8?/m1/s1
