18
gdb 36914	5.10819	0.85949	0.80711	1.8898	72.31	-0.2495	0.022	0.2715	1416.6584	0.148477	-439.074513	-439.066301	-439.065356	-439.108797	29.505	
C	-0.0358105747	 1.5224657652	 0.3079114233	-0.24679
C	-0.0999709588	 0.0142021424	 0.3094421708	 0.094903
C	-1.2966398081	-0.7172175394	-0.1206442638	-0.179776
O	-0.1595752835	-0.6093514154	-0.9789690618	-0.239103
C	 1.3425804586	 2.051228291	-0.0805526191	 0.099543
C	 1.4831628111	 3.5973187082	-0.0420716186	-0.203904
N	 2.4627943985	 3.8731570417	 1.0239966694	-0.260789
C	 2.8353373842	 2.7391684656	 1.4457652028	 0.120752
O	 2.3223423392	 1.6078218658	 0.9067881875	-0.235654
H	-0.7698479096	 1.9143282001	-0.4059485824	 0.111301
H	-0.2996747146	 1.9083892826	 1.3010393673	 0.112485
H	 0.5788241487	-0.4777921422	 1.0057534734	 0.108707
H	-1.4946446185	-1.7135183183	 0.2719919057	 0.117454
H	-2.1783526759	-0.1625547716	-0.4405317732	 0.112446
H	 1.6454952747	 1.6218124625	-1.0393814796	 0.112062
H	 1.8432266564	 4.0098997642	-0.989952256	 0.12097
H	 0.5324694765	 4.0916037869	 0.1883118331	 0.114536
H	 3.5619489558	 2.5690837407	 2.2328141314	 0.140858
52.1649	68.0326	96.6322	148.4028	307.8419	334.6144	441.6144	470.9831	543.9845	734.3969	792.41	815.1433	869.9301	882.8499	909.7205	956.7203	964.2627	978.6212	991.6446	1041.2864	1085.4301	1111.7939	1128.0124	1137.099	1160.7711	1172.8749	1207.9428	1261.4086	1289.516	1301.5872	1315.2276	1322.1968	1361.4662	1394.0311	1445.0312	1459.2684	1500.014	1532.0347	1711.3134	3026.6523	3037.9139	3063.9661	3074.6932	3081.5935	3087.1576	3120.7704	3167.9787	3214.721
C(C1CO1)C1CN=CO1	C([C@H]1CO1)[C@H]1CN=CO1	
InChI=1S/C6H9NO2/c1(6-3-8-6)5-2-7-4-9-5/h4-6H,1-3H2	InChI=1S/C6H9NO2/c1(6-3-8-6)5-2-7-4-9-5/h4-6H,1-3H2/t5-,6-/m0/s1
