19
gdb 32664	1.88398	1.70211	1.02254	2.4867	78.07	-0.2221	0.0183	0.2405	1204.7767	0.160831	-419.243926	-419.234955	-419.234011	-419.278047	32.744	
C	-0.1547887	 1.2775324366	-0.1294354537	-0.376256
C	-0.2112453756	-0.2025560858	 0.2567457697	-0.173386
N	 0.6510547731	-0.5325047599	 1.3872119189	-0.037856
C	 1.9456290163	-0.9533079809	 1.3218437572	 0.000629
N	 2.4770937963	-1.1483533001	 2.5088655008	-0.276817
C	 1.4743467955	-0.8393071834	 3.3930715471	-0.167328
C	 0.3320270769	-0.4508497542	 2.7341313521	 0.233325
C	-1.0116008304	-0.057449324	 3.2438331981	-0.197248
O	-2.0602280162	-0.9336311979	 2.8198625976	-0.40883
H	 0.863005755	 1.5731035882	-0.4003792438	 0.130442
H	-0.8084523358	 1.4657851896	-0.9866147819	 0.125081
H	-0.4847267415	 1.9155836931	 0.6953456368	 0.132537
H	-1.2280740897	-0.4988955117	 0.5242979939	 0.15049
H	 0.1034636787	-0.824388482	-0.5870456542	 0.120655
H	 2.4411699985	-1.1104351526	 0.3740326166	 0.123662
H	 1.6210097529	-0.9101353886	 4.461377516	 0.106915
H	-0.9577805259	 0.002657032	 4.3399160795	 0.111626
H	-1.3152685391	 0.9319512311	 2.8834553042	 0.11802
H	-1.796883489	-1.8273983895	 3.066106675	 0.284337
70.4665	104.6258	134.7217	164.2789	202.1101	270.4246	361.5116	376.7534	414.9397	435.2062	650.635	671.6864	684.4998	747.2706	804.9635	822.9855	851.5906	931.8035	963.9834	971.8584	1030.0707	1096.239	1115.4125	1148.7221	1191.8667	1216.5237	1257.3698	1292.4242	1295.232	1358.3857	1389.2884	1404.3151	1412.0434	1419.3536	1420.5926	1488.0679	1491.0548	1501.2191	1507.2385	1530.4857	1592.6985	3010.189	3042.8868	3059.4231	3060.3239	3106.4152	3118.1465	3129.5946	3234.7433	3238.2865	3801.8435
CCN1C=NC=C1CO	CCn1cncc1CO	
InChI=1S/C6H10N2O/c1-2-8-5-7-3-6(8)4-9/h3,5,9H,2,4H2,1H3	InChI=1S/C6H10N2O/c1-2-8-5-7-3-6(8)4-9/h3,5,9H,2,4H2,1H3
