15
gdb 54075	2.2444	1.29171	0.90958	3.8392	68.85	-0.2547	0.0024	0.2571	1244.4601	0.110703	-453.963688	-453.954215	-453.953271	-453.999073	33.567	
N	 0.0484163089	 1.4388115239	 0.2461848061	-0.52167
C	 0.2967712487	 0.1200933136	 0.0714736656	 0.41895
O	 1.4067899393	-0.3737006097	 0.0597665662	-0.362427
C	-0.969722719	-0.7465827377	-0.1825547944	-0.253058
N	-0.5466289385	-2.1309874184	-0.2189676584	-0.262767
C	-1.2027530129	-3.038732433	-0.9914941462	 0.154104
O	-2.2504814578	-2.8262043781	-1.5632278658	-0.319928
C	-2.0147357855	-0.4715485969	 0.8073606419	 0.342236
C	-2.8627411429	-0.2002113909	 1.614424876	-0.462814
H	 0.8236358538	 2.0344933286	 0.4891254971	 0.272042
H	-0.8852911846	 1.7545785381	 0.4523967058	 0.27401
H	-1.3660036172	-0.478897169	-1.1728607687	 0.158586
H	 0.423169326	-2.2761060533	 0.0334263022	 0.267587
H	-0.6724619698	-4.0097033021	-1.0279932537	 0.085527
H	-3.6243404586	 0.0081659651	 2.3253005962	 0.209622
33.2619	64.8294	133.1156	172.0128	197.797	269.3393	344.9919	384.9078	408.2159	456.5463	534.3846	556.9852	575.6364	608.8992	628.6975	678.2622	702.2246	781.4134	939.6423	971.1183	1034.308	1081.6025	1130.7373	1201.5088	1245.7047	1351.2624	1370.5234	1422.5091	1496.3883	1620.8209	1798.6652	1812.3381	2234.6768	2952.3071	3011.5806	3499.7407	3573.1918	3591.7976	3721.2619
NC(=O)C(NC=O)C#C	NC(=O)[C@@H](NC=O)C#C	
InChI=1S/C5H6N2O2/c1-2-4(5(6)9)7-3-8/h1,3-4H,(H2,6,9)(H,7,8)	InChI=1S/C5H6N2O2/c1-2-4(5(6)9)7-3-8/h1,3-4H,(H2,6,9)(H,7,8)/t4-/m0/s1
