17
gdb 132729	2.31817	1.76513	1.01465	3.4685	77.91	-0.2465	-0.0234	0.2231	1127.8475	0.135806	-426.055613	-426.047297	-426.046353	-426.088634	30.841	
C	 0.0747126369	 1.5126462463	 0.0338905147	-0.494455
C	 0.0185280081	 0.0079755427	 0.0059159486	 0.245297
C	-0.0207288548	-0.6843810157	-1.2126639825	 0.048603
C	-0.0095594492	 0.0144103302	-2.5465825069	-0.510424
C	-0.0714417607	-2.0786143746	-1.1212280998	 0.296762
F	-0.1100764619	-2.7794379001	-2.2598161204	-0.078155
N	-0.0858257147	-2.7949171299	-0.0219704592	-0.331037
C	-0.0478572688	-2.1168166495	 1.1302053884	-0.006628
C	 0.0042061399	-0.7328734488	 1.1915562663	-0.200005
H	 0.9621856686	 1.8880628773	-0.4883778291	 0.138998
H	-0.7943480853	 1.9532653977	-0.4680158196	 0.139011
H	 0.1005170362	 1.8883101081	 1.0590441715	 0.129296
H	 0.8929154883	 0.6242485564	-2.670042581	 0.133142
H	-0.0460620073	-0.7065155754	-3.362770856	 0.146237
H	-0.8660479018	 0.6906667907	-2.6499518273	 0.133118
H	-0.0599644249	-2.714496739	 2.0376207536	 0.114897
H	 0.0335395415	-0.2305743764	 2.1523304288	 0.095342
94.867	132.9028	140.4786	232.7436	289.4515	295.2717	328.7501	495.5879	521.2178	529.4888	553.4969	603.8459	693.0706	781.209	833.9163	849.0304	930.0418	976.9356	1005.8907	1040.9761	1072.4226	1109.6354	1118.0447	1216.1992	1282.3992	1314.5997	1327.1433	1408.8065	1417.0877	1449.6101	1479.36	1487.7689	1491.4147	1498.1664	1506.2961	1608.9484	1642.9796	3030.713	3031.1706	3076.4127	3082.5825	3124.278	3153.2811	3162.3887	3190.927
CC1=C(C)C(F)=NC=C1	Cc1c(C)c(F)ncc1	
InChI=1S/C7H8FN/c1-5-3-4-9-7(8)6(5)2/h3-4H,1-2H3	InChI=1S/C7H8FN/c1-5-3-4-9-7(8)6(5)2/h3-4H,1-2H3
