16
gdb 6272	3.6793	1.13956	0.96275	1.2964	61.88	-0.2532	-0.0992	0.154	1191.0277	0.126533	-420.894574	-420.885365	-420.884421	-420.929401	31.714	
C	-0.0326926904	 0.9994247271	-0.424354199	-0.411082
C	 0.2376854909	-0.2256371567	 0.446917782	 0.136086
O	 0.7841521588	 0.1364925886	 1.7105335337	-0.430625
C	-1.0042031652	-1.106303474	 0.6447030698	-0.331599
C	-1.4474678109	-1.8653197568	-0.5805245453	 0.286164
O	-0.887682767	-1.8548471236	-1.6538066213	-0.279478
C	-2.7089441389	-2.7337863098	-0.4448415866	 0.099353
O	-3.3669806599	-2.8003738393	 0.5590218686	-0.215938
H	 0.8740546545	 1.6037940621	-0.5099080078	 0.128964
H	-0.3518048495	 0.7017491072	-1.4262024504	 0.140602
H	-0.8209109548	 1.6241842228	 0.0162768351	 0.102361
H	 1.013997078	-0.834307786	-0.0283276392	 0.107592
H	 0.191302574	 0.7787630668	 2.1163818637	 0.277236
H	-0.8071805593	-1.8423404848	 1.4355517631	 0.150479
H	-1.8602515904	-0.5239059311	 1.014215613	 0.130111
H	-2.9491865497	-3.2866822225	-1.3776532992	 0.109775
34.157	97.9763	130.0288	138.9872	224.9297	256.3672	297.0554	345.613	405.3617	442.7307	474.8798	517.6741	627.992	817.8547	840.4588	874.3769	958.8861	983.77	1067.9031	1105.6389	1138.6125	1152.3419	1213.8441	1289.4864	1351.294	1363.1528	1390.4483	1401.5344	1419.1773	1432.7218	1494.0174	1500.3501	1797.7304	1826.1539	2924.5682	3021.9149	3024.2652	3052.6509	3068.3104	3103.9927	3133.8113	3798.5003
CC(O)CC(=O)C=O	C[C@@H](O)CC(=O)C=O	
InChI=1S/C5H8O3/c1-4(7)2-5(8)3-6/h3-4,7H,2H2,1H3	InChI=1S/C5H8O3/c1-4(7)2-5(8)3-6/h3-4,7H,2H2,1H3/t4-/m1/s1
