20
gdb 107218	3.80282	1.2096	1.0867	1.3918	77.94	-0.2261	0.0693	0.2954	1164.4322	0.172203	-403.100195	-403.092117	-403.091173	-403.132742	31.953	
O	-0.0393843034	 1.3531577807	 0.4744958818	-0.422193
C	-0.0180629861	 0.0221135696	-0.0301154163	-0.18136
C	-1.424511756	-0.506193941	-0.0253225631	 0.385029
C	-1.9837872676	-1.1285889637	 1.2319362881	-0.338258
C	-1.7400215736	-1.9864399183	 0.0114043669	-0.067634
N	-2.7859581292	-2.3210809288	-0.9540979619	-0.103892
C	-4.1445375689	-1.8360873085	-0.6726128138	-0.249355
C	-3.2471308661	-1.0499978659	-1.5563956079	-0.010281
C	-2.4354914657	 0.1211690425	-0.996043084	-0.320417
H	 0.8429993115	 1.723920809	 0.3775950553	 0.286083
H	 0.3840090188	-0.0002959909	-1.0565931298	 0.085268
H	 0.6221037551	-0.6280251441	 0.5879333702	 0.082587
H	-1.2941319637	-1.2677854275	 2.0588950131	 0.111007
H	-2.9888603523	-0.8792804847	 1.5498500704	 0.113606
H	-0.9543068196	-2.7327509506	 0.0624867169	 0.092711
H	-4.9337785969	-2.443321255	-1.1086038514	 0.112823
H	-4.3821862057	-1.4504978062	 0.3134498632	 0.113007
H	-3.4219931494	-1.0681258822	-2.629538658	 0.088696
H	-3.0611279675	 0.881738825	-0.5184937596	 0.115698
H	-1.8983011338	 0.6201524008	-1.8086682102	 0.106876
82.6369	135.2899	227.752	264.7267	274.3722	361.9235	370.3489	442.6905	514.6441	644.5931	675.7987	721.3957	769.2711	814.7043	858.5284	880.0142	917.2059	933.3606	951.8498	983.2232	1035.5554	1043.9233	1061.8434	1077.688	1086.6998	1100.6551	1115.8527	1128.71	1162.9976	1191.3932	1223.8785	1236.4189	1270.5397	1286.265	1307.8753	1322.829	1383.2719	1394.3867	1464.4765	1481.1176	1491.2885	1514.4677	1525.3433	2957.2995	2987.5384	3051.4507	3087.1639	3111.8321	3130.773	3134.2123	3162.4462	3194.3635	3217.315	3822.3048
OCC12CC1N1CC1C2	OC[C@]12C[C@H]1N1C[C@H]1C2	
InChI=1S/C7H11NO/c9-4-7-1-5-3-8(5)6(7)2-7/h5-6,9H,1-4H2	InChI=1S/C7H11NO/c9-4-7-1-5-3-8(5)6(7)2-7/h5-6,9H,1-4H2/t5-,6-,7+,8?/m1/s1
