13
gdb 132952	2.39575	1.72903	1.00425	6.3056	67.36	-0.2002	-0.017	0.1831	1040.618	0.089505	-502.014824	-502.007532	-502.006588	-502.046592	27.8	
F	 0.0691385027	 0.0780666251	 0.2213261101	-0.082692
C	 0.0199293459	 1.406545257	 0.0657807099	 0.169378
C	-1.1798796772	 2.0248650598	 0.037138768	-0.096298
N	-1.2444405423	 3.385561383	-0.1217257009	-0.34135
C	-0.0938412808	 4.125960761	-0.2521808457	-0.101032
C	 1.1171647522	 3.5262691652	-0.2261619946	 0.20287
F	 2.2099468885	 4.271877289	-0.3551369678	-0.057503
C	 1.3025542577	 2.0892492609	-0.0627895982	 0.095034
N	 2.4711145548	 1.5497910546	-0.0423292405	-0.567766
H	-2.1119374308	 1.4854902395	 0.1356943034	 0.14498
H	-2.1374328566	 3.8441584356	-0.1425798148	 0.274387
H	-0.1992242553	 5.1948348743	-0.3748992127	 0.144555
H	 2.3742455411	 0.5405844849	 0.0808389639	 0.215435
109.1585	281.2585	291.1293	306.5437	316.5993	317.9556	456.2097	511.5681	522.1845	525.9638	581.4677	704.4376	745.8012	845.7977	859.6404	870.0012	880.9013	970.3874	1083.0181	1215.2463	1266.5395	1284.1197	1328.4178	1372.8682	1435.4819	1547.143	1644.7587	1677.0586	1714.8518	3229.4952	3235.4549	3466.6833	3689.86
FC1=CNC=C(F)C1=N	FC1=CNCC(=C1[NH])F	
InChI=1S/C5H4F2N2/c6-3-1-9-2-4(7)5(3)8/h1-2H,(H2,8,9)	InChI=1S/C5H5F2N2/c6-3-1-9-2-4(7)5(3)8/h1,8-9H,2H2
