21
gdb 108372	2.066	1.56272	1.18388	0.8084	78.52	-0.2208	0.0657	0.2864	1171.9993	0.180145	-424.18295	-424.173244	-424.1723	-424.217279	36.607	
C	-1.2499747324	 0.8413819653	-0.3814948658	-0.376686
C	-0.0404934027	-0.0157416195	 0.0208772323	-0.29269
C	 0.6591669423	-0.6211386166	-1.1643844275	 0.232667
C	 0.1297711141	-1.7950246735	-1.9880663522	-0.144585
O	 1.4677695796	-2.3331370872	-2.1792114538	-0.288975
C	 2.0076343595	-1.3044950641	-1.3467912619	-0.047804
C	 1.7767386105	 0.0621246678	-1.9449279346	 0.318325
C	 1.7717026098	 0.3193464064	-3.432453952	-0.465812
O	 2.3185461468	 1.1052300597	-1.1693877515	-0.465543
H	-0.9391261276	 1.6819777518	-1.0096871137	 0.126328
H	-1.9868892182	 0.2573695879	-0.9441868957	 0.111726
H	-1.7535674659	 1.2476572469	 0.5010669434	 0.111527
H	 0.6739484144	 0.5958871965	 0.5776858832	 0.12206
H	-0.3663110853	-0.8196286233	 0.6942279318	 0.09337
H	-0.477890323	-2.4875849295	-1.392662761	 0.108426
H	-0.3774770511	-1.5869518319	-2.9373057496	 0.103451
H	 2.8094907377	-1.5547043857	-0.6591206638	 0.101111
H	 1.4659133609	-0.5710535977	-3.9847725909	 0.140857
H	 1.1066703779	 1.1502967899	-3.6880321137	 0.121987
H	 2.7822561701	 0.5812064648	-3.7704020956	 0.105627
H	 3.2558671126	 1.172124972	-1.3834542274	 0.284633
52.4426	127.4541	191.6071	204.4431	227.0302	261.8521	283.4042	309.3057	315.944	406.9598	436.668	442.0888	552.0532	647.1067	707.2593	761.1349	786.6442	916.1328	950.4689	957.6594	982.2795	1000.3687	1009.5456	1026.6372	1039.5921	1083.7573	1110.1305	1155.5438	1185.5015	1202.5765	1225.5178	1280.3024	1293.0465	1318.207	1341.5014	1364.2975	1407.0112	1408.7547	1461.0024	1481.824	1489.1775	1498.4853	1500.0099	1505.9658	1520.6563	3016.0184	3021.3043	3027.2386	3032.1974	3064.8342	3087.4309	3088.4741	3106.3245	3110.7565	3135.825	3162.1028	3792.6388
CCC12COC1C2(C)O	CC[C@]12CO[C@H]1[C@]2(C)O	
InChI=1S/C7H12O2/c1-3-7-4-9-5(7)6(7,2)8/h5,8H,3-4H2,1-2H3	InChI=1S/C7H12O2/c1-3-7-4-9-5(7)6(7,2)8/h5,8H,3-4H2,1-2H3/t5-,6-,7-/m0/s1
