16
gdb 55425	2.67762	1.49577	1.01245	1.8977	64.98	-0.2574	-0.0051	0.2523	1118.9701	0.126001	-475.109522	-475.101532	-475.100587	-475.142771	29.559	
N	-0.2094576324	 1.3829766812	-0.0956524515	-0.52287
C	 0.040692533	 0.0519249659	-0.1985855053	 0.387538
O	 1.0958810717	-0.4276766582	-0.5620225649	-0.354896
C	-1.1732249386	-0.843254434	 0.1181637963	-0.271072
C	-0.8266810455	-2.3198935837	 0.3123908152	-0.24302
C	-1.8516475107	-2.771599132	 1.3627502578	-0.096686
O	-2.2284994883	-1.5833566311	 2.0923668858	-0.207819
C	-1.9128865262	-0.4697385851	 1.4055161405	 0.451557
O	-2.2006803542	 0.6324542832	 1.7947253148	-0.357616
H	 0.5811995425	 2.0009144185	-0.1923139351	 0.26072
H	-0.994473816	 1.6796048791	 0.4713665773	 0.281114
H	-1.8936180211	-0.696202412	-0.6973163908	 0.142655
H	-0.8918912093	-2.9055422467	-0.6050570713	 0.125927
H	 0.1967849688	-2.4020936692	 0.6843483455	 0.145902
H	-2.7582750626	-3.1898019224	 0.9121265726	 0.123432
H	-1.4580045611	-3.4869737636	 2.0867521732	 0.135134
64.0078	85.3243	189.0132	225.7797	278.7178	401.9536	444.4712	522.5178	569.7187	600.8021	621.1221	674.3542	694.6588	730.6055	834.2161	880.2374	954.7028	966.3018	1031.9108	1058.2501	1115.4186	1157.2393	1194.6319	1207.1792	1224.8826	1251.6742	1284.1942	1331.7481	1362.1356	1407.5349	1500.8912	1526.4808	1626.5444	1805.1388	1843.6679	3035.2231	3049.2775	3089.3517	3118.0809	3139.9723	3526.9433	3681.3723
NC(=O)C1CCOC1=O	NC(=O)[C@H]1CCOC1=O	
InChI=1S/C5H7NO3/c6-4(7)3-1-2-9-5(3)8/h3H,1-2H2,(H2,6,7)	InChI=1S/C5H7NO3/c6-4(7)3-1-2-9-5(3)8/h3H,1-2H2,(H2,6,7)/t3-/m1/s1
