17
gdb 45094	2.73337	1.74436	1.24752	2.2313	71.24	-0.2376	-0.0166	0.221	993.2665	0.137474	-421.825263	-421.818189	-421.817245	-421.856954	28.153	
O	 0.0440664005	-0.0057007466	 0.2802412107	-0.328554
C	 0.0017141156	 1.1835133877	 0.0498652067	 0.397095
C	-1.3462613178	 1.8827912187	-0.1599228941	-0.360128
C	-1.3438344504	 3.0338143218	-1.1537113039	 0.030909
O	-1.0561439187	 4.3388377594	-0.6386362115	-0.250469
C	-0.0866423046	 3.7212760357	-1.493050058	 0.035102
C	 1.2163150236	 3.2929579898	-0.8735623068	-0.058974
C	 1.3686693041	 3.3504314084	 0.6107528661	-0.301213
C	 1.2432159467	 1.993503655	-0.0652956758	-0.128877
H	-2.051995734	 1.1059712854	-0.4628695549	 0.134248
H	-1.6919802301	 2.2606297854	 0.8111673614	 0.146981
H	-2.1506348222	 3.0221417431	-1.88587814	 0.104219
H	 0.0029295503	 4.1896936308	-2.4719985295	 0.096855
H	 2.093444385	 3.4888303005	-1.4799520567	 0.099838
H	 2.3402980237	 3.5926832351	 1.0241237961	 0.128955
H	 0.5219895031	 3.7268912391	 1.1715813185	 0.144416
H	 2.1390786753	 1.3857176305	-0.1116812084	 0.109598
73.0278	182.7725	266.9609	373.1414	415.4944	446.0447	492.3303	557.6936	587.0854	696.7509	746.0569	803.455	812.968	848.4872	871.5315	927.7338	931.9677	981.6881	1014.4908	1039.6655	1069.3229	1089.9057	1097.9596	1125.9206	1148.7805	1200.6233	1208.4028	1259.1385	1298.1527	1311.5271	1367.2258	1382.2727	1398.4036	1441.3404	1463.995	1487.8366	1791.7188	3036.5769	3103.6274	3115.0414	3124.0455	3150.4807	3172.8041	3186.9271	3242.7908
O=C1CC2OC2C2CC12	O=C1C[C@H]2O[C@H]2[C@H]2C[C@@H]12	
InChI=1S/C7H8O2/c8-5-2-6-7(9-6)4-1-3(4)5/h3-4,6-7H,1-2H2	InChI=1S/C7H8O2/c8-5-2-6-7(9-6)4-1-3(4)5/h3-4,6-7H,1-2H2/t3-,4+,6-,7+/m1/s1
