17
gdb 47073	3.0701	1.54811	1.0844	1.6255	76.28	-0.2435	-0.0603	0.1832	1077.4534	0.137475	-421.853865	-421.846595	-421.845651	-421.885792	28.025	
O	 0.0499438907	-0.0131141619	 0.1540343039	-0.316047
C	 0.0132884462	 1.1873576914	 0.0386789764	 0.321594
C	-1.2455288381	 2.0801800648	 0.1167792732	-0.330407
C	-0.7245750393	 3.5250611958	 0.3331997442	-0.258108
C	 0.6118143697	 3.5138252878	-0.4344914199	 0.07196
O	 1.6343900306	 4.400968967	 0.000203715	-0.282461
C	 2.8420700059	 3.6521444471	 0.1755626896	-0.113859
C	 2.4160888984	 2.2028791826	 0.2127018749	-0.232114
C	 1.138282163	 2.1341866629	-0.1540024756	 0.193409
H	-1.7676300505	 1.9934805163	-0.8459688036	 0.134682
H	-1.9338018978	 1.7210626865	 0.8848336293	 0.133281
H	-1.4243622788	 4.2906550817	-0.0092534284	 0.108434
H	-0.5131047166	 3.7008726608	 1.3929091687	 0.117256
H	 0.418645346	 3.6723334778	-1.5100403853	 0.08238
H	 3.5508551887	 3.8568854418	-0.6451405673	 0.114254
H	 3.3279646925	 3.9648876968	 1.1092861334	 0.122979
H	 3.0458042194	 1.395313451	 0.5639663114	 0.132768
102.861	159.5526	177.9196	294.1218	331.6411	461.873	516.8116	570.8954	595.5351	666.9215	759.5468	810.3963	829.9613	847.533	925.	956.1416	969.3335	988.0617	1029.0153	1047.0128	1061.2039	1106.9944	1151.7768	1185.5864	1195.9003	1214.8358	1261.9612	1281.2823	1298.7269	1338.6931	1361.9198	1384.2761	1453.1231	1497.6314	1507.5869	1708.2149	1823.8211	2943.5287	2960.2042	3029.9026	3030.6087	3057.936	3109.591	3116.5524	3222.5626
O=C1CCC2OCC=C12	O=C1CC[C@H]2OC[CH][C]12	
InChI=1S/C7H8O2/c8-6-1-2-7-5(6)3-4-9-7/h3,7H,1-2,4H2	InChI=1S/C7H8O2/c8-6-1-2-7-5(6)3-4-9-7/h3,7H,1-2,4H2/t7-/m1/s1
