21
gdb 101190	3.06389	1.02506	0.93167	1.9457	78.19	-0.2331	0.0737	0.3067	1349.42	0.181436	-424.171946	-424.162512	-424.161568	-424.206789	34.884	
C	-0.008723426	 1.6975621727	 0.3153145503	-0.393235
C	-0.0342611721	 0.1973464983	-0.0045829816	 0.002668
C	 0.7570426964	-0.6119364409	 1.0257443032	-0.076185
O	 2.1025616329	-0.156609527	 1.0145901342	-0.424536
C	-1.4534091671	-0.3325025963	-0.0884442672	-0.032816
C	-2.4006346424	-0.1187267649	-1.2590676809	-0.165101
C	-1.6598003638	-0.3115672667	-2.578442888	-0.094465
O	-1.1144860477	-1.5845903881	-2.1371647813	-0.282961
C	-1.8753910735	-1.5005801025	-0.9271735067	 0.070031
H	 1.0199319515	 2.0575717921	 0.3856096462	 0.133249
H	-0.5296457151	 2.2719793336	-0.4570116636	 0.108002
H	-0.503908838	 1.902129168	 1.2727503113	 0.102895
H	 0.458683467	 0.0297066852	-0.9681664787	 0.099725
H	 0.3038455731	-0.4828461857	 2.0241398846	 0.075194
H	 0.6973709898	-1.6808674822	 0.7701855652	 0.092219
H	 2.6005183747	-0.672460813	 1.6547930758	 0.285789
H	-1.9991942739	-0.2953012692	 0.8552633987	 0.084548
H	-3.3900097101	 0.3044849933	-1.1498437668	 0.096543
H	-2.3316455196	-0.4626856141	-3.4307290018	 0.109606
H	-0.878553693	 0.4085652083	-2.8480331268	 0.108946
H	-2.3532480332	-2.4070827109	-0.5720338864	 0.099884
43.3627	97.8679	142.7785	178.3198	226.2136	239.4934	257.678	312.9963	404.4066	419.1233	507.8042	626.4226	758.1446	786.6067	806.6997	865.634	910.715	931.2896	960.1705	969.2606	993.1112	1016.0177	1052.0934	1060.0694	1074.5499	1086.2658	1106.9867	1135.8648	1164.2577	1170.457	1199.0651	1248.7012	1261.3514	1265.1681	1305.2096	1319.8931	1361.2356	1366.7833	1400.9064	1447.5149	1457.5705	1492.304	1504.2332	1517.2342	1518.5733	2949.6044	2998.1539	3025.7987	3027.9373	3059.6652	3073.0174	3093.6934	3106.641	3128.6571	3170.5634	3202.1565	3835.0839
CC(CO)C1C2COC12	C[C@@H](CO)[C@H]1[C@H]2CO[C@@H]12	
InChI=1S/C7H12O2/c1-4(2-8)6-5-3-9-7(5)6/h4-8H,2-3H2,1H3	InChI=1S/C7H12O2/c1-4(2-8)6-5-3-9-7(5)6/h4-8H,2-3H2,1H3/t4-,5+,6-,7+/m0/s1
