20
gdb 55693	3.53305	1.03599	0.99557	5.4257	74.35	-0.253	0.0193	0.2723	1273.1529	0.171588	-440.329282	-440.320133	-440.319189	-440.363137	34.399	
C	-0.2138088794	 1.6742149706	-0.5420894971	-0.448528
C	-0.1550915961	 0.2123484724	-0.0666308817	 0.294705
C	-1.4841245638	-0.4995229451	-0.3719486623	-0.413082
C	-2.338494373	-0.249518248	 0.8670210786	 0.428076
O	-1.5323124683	 0.1502406264	 1.8864925983	-0.221528
O	-3.5222263394	-0.3696687827	 0.9924357044	-0.33887
C	 1.0578539364	-0.5198699436	-0.6557193253	-0.222859
N	 2.3148814043	 0.0544901982	-0.1633280478	-0.516191
H	 3.0837520967	-0.5779879487	-0.3588728713	 0.23414
H	 2.528440341	 0.9143584998	-0.658538314	 0.231988
C	-0.1521517965	 0.1560645793	 1.4799248787	-0.09265
H	 0.6788068377	 2.2269848424	-0.2334328647	 0.122229
H	-0.2944457637	 1.7280409627	-1.6332980739	 0.116339
H	-1.080123839	 2.1914049215	-0.1169239439	 0.134916
H	-2.0017693062	-0.1446110352	-1.2648266811	 0.13421
H	-1.3532294886	-1.5839297778	-0.4755174597	 0.12933
H	 1.0243311361	-1.5659956136	-0.3288168827	 0.101941
H	 0.9700379332	-0.5310310318	-1.7558939366	 0.08825
H	 0.3287066986	 1.0168804719	 1.945646386	 0.126573
H	 0.3301000299	-0.7548540988	 1.852225086	 0.111009
75.9814	109.1972	164.4579	208.1659	231.568	291.7954	326.4243	345.5337	378.8378	410.0462	531.9529	557.3787	632.2029	691.4388	797.334	847.6128	851.9737	917.1887	936.5718	951.4679	964.3383	1007.3284	1061.9278	1073.423	1098.9652	1155.7018	1167.8463	1206.3402	1213.4752	1242.1903	1301.0327	1316.7974	1349.2832	1390.4119	1408.5291	1427.0376	1461.6958	1492.88	1501.815	1505.8354	1519.2713	1661.5718	1882.2628	2951.1802	3030.9298	3040.814	3043.2135	3052.1455	3099.9307	3105.943	3118.568	3125.3813	3504.4272	3578.9475
CC1(CC([O-])=O)C[NH2+]C1	C[C@@]1(CC(=O)OC1)CN	
InChI=1S/C6H11NO2/c1-6(2-5(8)9)3-7-4-6/h7H,2-4H2,1H3,(H,8,9)	InChI=1S/C6H11NO2/c1-6(3-7)2-5(8)9-4-6/h2-4,7H2,1H3/t6-/m1/s1
