14
gdb 57581	3.04713	0.81194	0.74516	3.8887	77.97	-0.2771	-0.077	0.2001	1497.8892	0.096899	-436.671435	-436.661655	-436.66071	-436.706819	33.492	
C	 0.0831306812	 1.5715619537	 0.1754319988	-0.420996
C	 0.0292997802	 0.0418962884	 0.0919767725	 0.04466
O	 0.5905379486	-0.6007067012	 1.2291674767	-0.433958
C	-1.4433246172	-0.4566255013	 0.0832001711	 0.161589
O	-2.3647278017	 0.1936157032	-0.3161545256	-0.223727
C	 0.6523711847	-0.4502136051	-1.1417805984	 0.215091
C	 1.1733295993	-0.8739028673	-2.1471939519	-0.078986
C	 1.7666201493	-1.346188038	-3.2825741483	 0.214849
N	 2.2747639648	-1.7471947913	-4.2470283922	-0.326018
H	 1.1151365447	 1.9247438045	 0.1028704427	 0.12659
H	-0.5034509725	 2.0118596017	-0.6331394779	 0.159103
H	-0.340287563	 1.8873239082	 1.1318364792	 0.143357
H	 1.5372927816	-0.4213110172	 1.2473778964	 0.298391
H	-1.5432648202	-1.4815725684	 0.4936849368	 0.120055
56.8677	85.6846	101.6412	208.1907	217.8122	233.0545	245.0092	266.7638	331.4269	371.6449	472.4046	524.2805	562.0214	584.795	593.6539	682.5544	845.9256	932.2214	999.8202	1056.5919	1099.4357	1151.6511	1223.5988	1342.4025	1380.4999	1402.9695	1481.6839	1485.144	1852.0019	2258.0323	2393.537	2942.2758	3053.7827	3134.0512	3148.7145	3811.4834
CC(O)(C=O)C#CC#N	C[C@@](O)(C=O)C#CC#N	
InChI=1S/C6H5NO2/c1-6(9,5-8)3-2-4-7/h5,9H,1H3	InChI=1S/C6H5NO2/c1-6(9,5-8)3-2-4-7/h5,9H,1H3/t6-/m0/s1
