17
gdb 33056	4.54108	0.86968	0.7535	4.3553	74.02	-0.1939	0.0212	0.2151	1487.6	0.135817	-455.152611	-455.143792	-455.142847	-455.186847	31.795	
C	-0.3048827266	 1.3075279091	 0.8386434259	-0.225243
O	-0.2812407935	-0.1026967853	 0.8509207591	-0.240893
C	 0.9266569519	-0.6337078351	 0.3380648609	-0.193273
C	 0.8853667139	-2.1106573679	 0.4798203785	 0.309772
C	 1.1572247396	-3.0970622939	-0.3814579774	-0.142168
O	 1.0339801221	-4.3234694738	 0.2478673734	-0.216638
C	 0.6215380721	-4.0954145966	 1.5511861257	 0.468983
N	 0.3284428384	-4.9621663684	 2.4257189518	-0.603069
N	 0.6022005429	-2.7221003404	 1.7043106495	-0.380058
H	-0.2266771965	 1.7065168535	-0.1843625617	 0.110633
H	-1.2593510015	 1.6192518996	 1.2679881233	 0.135619
H	 0.5145257656	 1.7337835174	 1.4383307955	 0.109453
H	 1.0677594962	-0.3680437589	-0.7211196316	 0.108064
H	 1.7819457144	-0.216023616	 0.8986893994	 0.106327
H	 1.473416927	-3.1063695994	-1.4095287123	 0.148798
H	 0.4184662679	-5.9003981791	 2.0454639284	 0.224711
H	 0.091003266	-2.2807605047	 2.4491512917	 0.278983
66.2286	93.5041	106.3203	191.5293	227.5623	313.0146	342.386	381.6886	436.34	487.7434	603.6916	697.3069	714.446	721.0241	754.6101	785.5378	912.4301	978.8882	1012.7012	1028.176	1070.0921	1097.1549	1146.8932	1182.7873	1220.1136	1226.626	1253.123	1264.2864	1354.5481	1414.8404	1438.0421	1479.0958	1486.2316	1498.5269	1517.4122	1723.1308	1794.4725	2944.1129	2975.9881	3001.3467	3022.9012	3123.8543	3297.821	3542.3738	3685.8098
COCC1=COC(=N)N1	COCC1=CO[C@@H]([NH])N1	
InChI=1S/C5H8N2O2/c1-8-2-4-3-9-5(6)7-4/h3H,2H2,1H3,(H2,6,7)	InChI=1S/C5H9N2O2/c1-8-2-4-3-9-5(6)7-4/h3,5-7H,2H2,1H3/t5-/m0/s1
