18
gdb 15778	5.67969	1.09368	1.0028	4.1589	72.68	-0.2238	0.0248	0.2486	1172.9107	0.153357	-343.959522	-343.950957	-343.950013	-343.992968	30.978	
C	 0.2241736697	 1.4368945843	-0.4487579942	-0.347502
N	 0.057530401	 0.0248297479	-0.1389464696	-0.067913
C	 0.5627677643	-0.3279305776	 1.1818456234	-0.273718
C	 2.0144436515	-0.134021495	 1.2921976754	 0.272406
N	 3.1538468447	 0.0247825795	 1.3960464588	-0.309927
C	-1.2551972023	-0.5462092038	-0.3386283962	 0.061484
C	-2.5273022858	-0.0049494971	 0.2937900022	-0.282855
C	-2.3103430836	 0.0730124737	-1.2026897991	-0.295433
H	 1.269090042	 1.7128463989	-0.2846965985	 0.150797
H	-0.0025966014	 1.614707783	-1.5013491612	 0.135649
H	-0.401034869	 2.1085019189	 0.1674532267	 0.100123
H	 0.0795744772	 0.2367399143	 2.0016254615	 0.129286
H	 0.3501304883	-1.3865959741	 1.3671286034	 0.151852
H	-1.1982450243	-1.631386257	-0.3909173134	 0.099616
H	-3.2507470431	-0.7094422302	 0.6886814285	 0.116529
H	-2.4690099664	 0.9293087558	 0.8419759731	 0.117304
H	-2.1412674093	 1.0556526501	-1.6252658086	 0.12208
H	-2.8757627135	-0.5883796316	-1.8495193822	 0.12022
64.6808	76.1513	146.7634	230.7664	239.8065	296.4834	374.4267	395.171	439.1862	455.3101	578.2701	753.827	800.3102	822.2284	892.106	905.2228	980.0261	995.7941	1020.0228	1047.9185	1087.4806	1106.5577	1140.5424	1150.2598	1195.8853	1204.535	1242.586	1248.7114	1327.1278	1384.1013	1412.9377	1461.7862	1464.7017	1476.9397	1501.3601	1507.3276	1510.2104	2365.2206	2928.673	2943.0176	3066.2174	3087.8981	3122.8697	3131.5424	3134.863	3148.354	3216.131	3233.7642
CN(CC#N)C1CC1	CN(CC#N)C1CC1	
InChI=1S/C6H10N2/c1-8(5-4-7)6-2-3-6/h6H,2-3,5H2,1H3	InChI=1S/C6H10N2/c1-8(5-4-7)6-2-3-6/h6H,2-3,5H2,1H3
