18
gdb 15382	3.79056	1.07427	0.90581	4.7356	73.44	-0.2748	0.0166	0.2914	1295.4609	0.153787	-343.978435	-343.969728	-343.968784	-344.012399	30.95	
C	 0.0644886321	 1.5249180689	 0.1077835532	-0.383227
C	-0.042009609	-0.0003722266	 0.1751479832	-0.165307
C	-1.3952612849	-0.5235395121	-0.3249190309	-0.185634
C	-1.4896647321	-2.0279859036	-0.2439053306	-0.008235
N	-1.8141048105	-2.6033718654	 1.0629061615	-0.310488
C	-2.7842916669	-2.7568910614	-0.041842127	-0.205287
C	-4.0391715435	-2.0563631957	 0.0931946042	 0.331614
N	-5.0511724461	-1.5022665998	 0.1681169004	-0.335948
H	 1.0362402736	 1.8714400475	 0.4723434736	 0.114282
H	-0.0547825606	 1.8866404816	-0.9195565157	 0.115586
H	-0.7105248964	 2.001252671	 0.7177442322	 0.122852
H	 0.7653962364	-0.4524381606	-0.4166183259	 0.091297
H	 0.1043258574	-0.3393752917	 1.2076623466	 0.113373
H	-2.2053973131	-0.0837365847	 0.2665416344	 0.126666
H	-1.5568017904	-0.2132242642	-1.3655998721	 0.104914
H	-0.768420837	-2.5689427686	-0.8569608041	 0.097978
H	-1.3353112395	-3.4873283954	 1.2135358999	 0.245134
H	-2.8827140493	-3.731564999	-0.5123015431	 0.13043
73.2249	84.4134	102.4093	188.6831	234.5776	245.6058	330.1302	377.009	458.3021	573.4141	619.8151	746.1248	803.0526	827.7781	872.6975	899.9054	922.2378	958.5421	1012.3636	1052.2025	1065.1872	1120.0147	1148.4622	1202.0124	1228.0034	1247.0064	1283.7173	1306.3606	1331.826	1384.1626	1406.9414	1413.7972	1460.7778	1476.0826	1492.6225	1499.669	1509.2886	2359.3401	3016.3477	3027.2678	3032.2253	3055.7666	3081.8486	3100.0855	3105.5669	3109.6151	3147.446	3510.8132
CCCC1NC1C#N	CCC[C@H]1N[C@H]1C#N	
InChI=1S/C6H10N2/c1-2-3-5-6(4-7)8-5/h5-6,8H,2-3H2,1H3	InChI=1S/C6H10N2/c1-2-3-5-6(4-7)8-5/h5-6,8H,2-3H2,1H3/t5-,6+/m1/s1
