13
gdb 27450	2.6323	1.78303	1.18402	4.035	69.34	-0.2396	-0.0858	0.1538	978.0443	0.091057	-448.964421	-448.957084	-448.95614	-448.996237	27.32	
N	 0.0176647995	 1.2363506598	-0.3742236325	-0.513338
C	-0.0496668354	-0.0418222147	 0.065136698	 0.42883
N	-1.2191458981	-0.6006211373	 0.2031264905	-0.330285
C	-1.3956098269	-1.9480053491	 0.3856113696	 0.330409
O	-2.259604729	-2.4622072637	 1.0616773753	-0.332761
C	-0.4916682721	-2.8103656116	-0.463111837	-0.051156
N	 0.7873072156	-2.7630568335	-0.4396921806	-0.185585
C	 1.4730397544	-1.7984634141	 0.2656942118	 0.087472
N	 1.1965315413	-0.5515717083	 0.4237222126	-0.280031
H	 0.8785505944	 1.7396961797	-0.2475165362	 0.275899
H	-0.84206515	 1.7481701974	-0.4783871694	 0.277104
H	-0.9709488963	-3.5537998986	-1.1035202487	 0.151278
H	 2.4359861824	-2.1396178759	 0.6447609468	 0.142163
112.4393	149.246	254.0011	298.0384	366.012	403.7648	418.8184	478.9459	546.8354	571.3467	619.8543	712.6063	762.6913	839.0015	876.6434	929.1786	961.4788	1016.3866	1100.9234	1105.2146	1297.7157	1368.1324	1384.9387	1443.5556	1560.5615	1622.4092	1669.055	1691.9154	1784.2232	3115.9033	3144.6369	3614.3868	3748.3584
NC1=NC(=O)C=NC=N1	N[C]1[N]C(=O)C=NC=N1	
InChI=1S/C4H4N4O/c5-4-7-2-6-1-3(9)8-4/h1-2H,(H2,5,8,9)	InChI=1S/C4H4N4O/c5-4-7-2-6-1-3(9)8-4/h1-2H,(H2,5,8,9)
