17
gdb 16385	2.97386	2.44799	1.73671	1.8568	67.48	-0.217	-0.012	0.2049	804.2642	0.143913	-363.844112	-363.837337	-363.836393	-363.874851	26.573	
C	-0.1079571047	 1.5424432727	 0.0008832728	-0.418883
C	 0.0662341609	 0.0304916153	-0.0376489763	-0.058187
N	 0.902223968	-0.4851721889	-1.171073922	-0.131579
C	 1.0741234179	-1.9273249611	-0.7296347558	-0.190259
C	 1.9199272247	-1.3617751008	 0.4489894692	-0.143872
C	 2.3051503038	-0.2924148298	-0.61488866	-0.194904
C	 0.8323488833	-0.5744963202	 1.1692463343	 0.428888
O	 0.6246922158	-0.4343022606	 2.3441107915	-0.339427
H	 0.8497613403	 2.0701772972	 0.0242335711	 0.121944
H	-0.6642206046	 1.885395971	-0.8752940439	 0.130067
H	-0.660942611	 1.8199802513	 0.902655121	 0.139782
H	-0.9221973068	-0.4395703369	-0.1051930151	 0.102558
H	 0.1451878095	-2.4622129191	-0.5124268599	 0.112999
H	 1.6681357617	-2.479529957	-1.4613159998	 0.118376
H	 2.6228403844	-1.9294823105	 1.0562260564	 0.086231
H	 3.0430745198	-0.6476608923	-1.3373292488	 0.12014
H	 2.5575136667	 0.7193847798	-0.2908171947	 0.116124
144.6841	177.0149	225.0101	290.3422	450.7137	499.3041	518.0441	603.9223	689.6102	770.9926	810.4381	829.3516	846.0045	870.6757	888.6776	994.209	1011.5515	1021.6981	1061.1864	1078.5583	1113.5828	1137.8712	1174.0243	1186.2056	1206.2659	1235.072	1257.9181	1271.1981	1305.2841	1359.2886	1406.1249	1486.8373	1495.9112	1506.0847	1534.2877	1869.9465	3037.7202	3047.4749	3056.9183	3070.1555	3117.4337	3120.0586	3126.2294	3129.9371	3136.573
CC1N2CC(C2)C1=O	C[C@H]1N2C[C@@H](C2)C1=O	
InChI=1S/C6H9NO/c1-4-6(8)5-2-7(4)3-5/h4-5H,2-3H2,1H3	InChI=1S/C6H9NO/c1-4-6(8)5-2-7(4)3-5/h4-5H,2-3H2,1H3/t4-/m1/s1
