19
gdb 91448	2.45565	1.68949	1.31398	2.0828	74.78	-0.2338	-0.0075	0.2264	1036.7797	0.159345	-423.035656	-423.027264	-423.026319	-423.068178	32.668	
C	-0.0794939194	 1.5465355588	 0.0509226047	-0.421244
C	 0.0691425575	 0.0271747207	 0.0575603419	 0.005296
C	 0.9895877822	-0.5688981595	-1.0684052318	-0.24478
C	 2.0021403224	-1.3744084952	-0.2188565303	-0.150698
C	 2.3274573848	-0.3528022837	 0.9185500788	-0.309679
C	 0.7983578794	-0.5453345057	 1.2960207036	 0.303845
O	 0.2397189637	-0.2359949468	 2.519244	-0.490995
C	 1.0810016235	-1.985454146	 0.8488499323	 0.366845
O	 0.8709978371	-3.0618572336	 1.3314659327	-0.340478
H	 0.8890810329	 2.0539485403	 0.1044860718	 0.115392
H	-0.5754479488	 1.8780742882	-0.867632878	 0.11534
H	-0.6812798543	 1.8784544949	 0.9019552406	 0.135063
H	-0.9310771773	-0.4172849837	 0.0104705983	 0.085803
H	 0.4401404486	-1.1959734539	-1.7750200742	 0.111696
H	 1.4938910355	 0.2191976085	-1.6361649528	 0.107106
H	 2.7715291432	-1.9532173297	-0.722895176	 0.089002
H	 3.0029909334	-0.7444002271	 1.6811647099	 0.114755
H	 2.6321767656	 0.6457534036	 0.601409487	 0.113015
H	 0.37140785	-0.99113501	 3.1054594313	 0.294716
126.8078	161.3965	187.6552	217.0344	259.9906	298.1899	374.2464	420.7374	440.5283	525.8212	579.9183	671.9542	708.9908	777.5023	836.1613	845.0062	873.9831	902.8531	944.428	958.8462	1008.4656	1034.7485	1058.4742	1093.2902	1118.3921	1124.6575	1143.5876	1188.8455	1229.306	1241.7423	1274.3277	1314.2133	1336.3391	1362.8877	1407.901	1410.6491	1484.3401	1497.0995	1499.0993	1508.1847	1886.8804	3035.2967	3041.0963	3052.7171	3077.0071	3100.1822	3103.0132	3114.6726	3144.0473	3157.8336	3783.0484
CC1CC2CC1(O)C2=O	C[C@H]1C[C@H]2C[C@]1(O)C2=O	
InChI=1S/C7H10O2/c1-4-2-5-3-7(4,9)6(5)8/h4-5,9H,2-3H2,1H3	InChI=1S/C7H10O2/c1-4-2-5-3-7(4,9)6(5)8/h4-5,9H,2-3H2,1H3/t4-,5-,7+/m0/s1
