18
gdb 87691	2.67531	1.23937	1.02956	0.6312	74.99	-0.2354	-0.0405	0.1949	1216.8683	0.14586	-439.06261	-439.053371	-439.052427	-439.097223	33.512	
C	 0.0766694194	 1.4718433526	-0.3665406157	-0.393328
C	 0.136078082	-0.0154093798	-0.1298054981	-0.056297
N	 1.460441098	-0.6264461542	-0.0463180215	-0.376829
C	 0.6360767813	-0.5753173394	 1.1657692802	 0.228685
C	 0.9688139604	 0.1006317917	 2.5072567166	-0.34192
C	 0.3236132865	-1.1003033541	 3.262232917	 0.00854
O	-0.8149534944	-0.7343741542	 4.0088056006	-0.425432
C	 0.0299200293	-1.7501058814	 1.8783758421	 0.305979
O	-0.4772691497	-2.7804788068	 1.5261417164	-0.322348
H	 0.9064661302	 1.9763086359	 0.1345238469	 0.132806
H	 0.143966143	 1.691396724	-1.4373071982	 0.12885
H	-0.8653201581	 1.8873775218	 0.0059595147	 0.125859
H	-0.6501302735	-0.602789065	-0.6029454163	 0.106593
H	 1.4446041361	-1.5753169079	-0.4181973789	 0.246285
H	 2.0347350605	 0.2343287491	 2.6978274871	 0.120473
H	 0.4391503509	 1.0376345465	 2.6898684315	 0.125263
H	 1.0408749744	-1.6853824029	 3.8575263252	 0.090908
H	-1.3069384162	-1.5396339158	 4.2056289803	 0.295913
36.9393	121.2049	164.4037	184.0475	188.6631	255.4901	295.9815	326.6219	388.542	455.1941	527.3813	551.4138	723.3836	751.5513	774.0792	851.6947	874.7796	940.469	955.5786	1025.4773	1046.7731	1075.0453	1077.3264	1108.2192	1131.1567	1155.5299	1197.7027	1232.2044	1237.9621	1261.1941	1300.8467	1342.8007	1395.3266	1412.1161	1458.1561	1472.6219	1486.5402	1499.2408	1869.3875	2988.9775	3038.4344	3080.7113	3102.2148	3113.6645	3132.1456	3138.9736	3474.705	3802.3847
CC1NC11CC(O)C1=O	C[C@H]1N[C@]21C[C@@H](O)C2=O	
InChI=1S/C6H9NO2/c1-3-6(7-3)2-4(8)5(6)9/h3-4,7-8H,2H2,1H3	InChI=1S/C6H9NO2/c1-3-6(7-3)2-4(8)5(6)9/h3-4,7-8H,2H2,1H3/t3-,4-,6+/m1/s1
