15
gdb 36753	7.22854	0.58724	0.55027	2.1271	75.26	-0.2588	-0.0007	0.2581	1850.454	0.112009	-413.006597	-412.997023	-412.996079	-413.043074	31.913	
N	 0.8233331276	-1.1417303404	 0.4817301877	-0.288287
C	 0.4712044645	-0.0478263946	 0.3688533597	 0.249134
C	 0.0151355548	 1.3326097331	 0.2048223286	-0.251586
N	 0.9301454831	 2.0818648814	-0.6361859239	-0.322126
C	 0.8682164159	 3.4431985447	-0.6807360778	 0.126959
N	 0.096466116	 4.1012513852	 0.0914092412	-0.268986
C	 0.1087999124	 5.5505285738	 0.0655867148	-0.241013
C	 0.9942684905	 6.1807011026	-0.9305126329	 0.235114
N	 1.7049065391	 6.6173598134	-1.7309458663	-0.313038
H	-1.0101709639	 1.3265719842	-0.1930106034	 0.162035
H	-0.0371693194	 1.8261191016	 1.1804316759	 0.186658
H	 1.3770801929	 1.5989326996	-1.3974286333	 0.270026
H	 1.5496737561	 3.8876520924	-1.4138243925	 0.134271
H	-0.9112922817	 5.9143736103	-0.1115035419	 0.160045
H	 0.392296732	 5.9286592927	 1.056423734	 0.160793
19.2885	59.2938	94.8656	148.3394	202.4423	219.4382	287.1891	346.8345	372.345	378.3103	440.4924	538.8736	593.0626	761.3384	898.3595	946.711	967.6328	996.2133	1013.801	1031.1829	1097.1779	1238.286	1260.6431	1265.1847	1345.2061	1370.7865	1417.9015	1469.861	1488.6871	1524.286	1745.7685	2349.9123	2372.1844	3008.2458	3026.6715	3049.6458	3074.1784	3085.1	3660.5285
N#CCNC=NCC#N	N#CCNC=NCC#N	
InChI=1S/C5H6N4/c6-1-3-8-5-9-4-2-7/h5H,3-4H2,(H,8,9)	InChI=1S/C5H6N4/c6-1-3-8-5-9-4-2-7/h5H,3-4H2,(H,8,9)
