17
gdb 52825	2.66453	0.99852	0.94974	4.0686	77.65	-0.2514	0.0048	0.2563	1363.6205	0.133696	-421.831457	-421.821736	-421.820792	-421.867952	33.383	
C	 0.0041339665	 1.4993498242	-0.0644839822	-0.50042
C	 0.0362332173	 0.0447098709	-0.0344934653	 0.072663
C	 0.0557240477	-1.1591489904	-0.0127332164	 0.040482
C	 0.0740760403	-2.6100787108	 0.0063996623	-0.081424
C	 1.0718343559	-3.205434963	-0.9985975368	-0.444358
C	 0.0676208134	-3.2706482525	 1.4142406637	-0.103179
O	-1.2458705287	-3.8559673101	 1.1533159732	-0.241948
C	-1.3282940925	-3.2759980811	-0.0836134488	 0.448362
O	-2.2104558644	-3.3510497825	-0.8727026136	-0.323732
H	 0.7502673352	 1.8990120985	-0.7596690399	 0.152611
H	-0.9781430819	 1.8643968247	-0.3833098885	 0.157973
H	 0.2107353219	 1.921058853	 0.9251347413	 0.15186
H	 2.0828236647	-2.8486486379	-0.7844871836	 0.133304
H	 1.0652745708	-4.2987148275	-0.9525718929	 0.128181
H	 0.8045233182	-2.8997829389	-2.0126795197	 0.15078
H	 0.8143824343	-4.0507366377	 1.5763520222	 0.124886
H	 0.0253486213	-2.5812927489	 2.2578753447	 0.133959
16.0415	81.8598	89.6955	147.0221	199.4649	227.2163	272.787	301.0648	335.4109	420.6078	507.0211	536.9732	624.1962	731.3532	780.1034	854.6894	895.543	963.5143	972.7986	1051.0971	1053.2672	1072.1569	1102.1249	1145.9712	1157.2705	1186.8745	1296.7242	1343.4522	1408.4057	1414.6005	1476.1711	1477.1659	1487.1809	1493.853	1513.7156	1942.7851	2370.261	3030.3067	3044.0363	3075.8507	3092.7257	3093.6395	3119.1648	3133.472	3146.2274
CC#CC1(C)COC1=O	CC#C[C@@]1(C)COC1=O	
InChI=1S/C7H8O2/c1-3-4-7(2)5-9-6(7)8/h5H2,1-2H3	InChI=1S/C7H8O2/c1-3-4-7(2)5-9-6(7)8/h5H2,1-2H3/t7-/m0/s1
