18
gdb 112327	2.79038	1.36599	1.01582	2.3306	73.36	-0.2552	0.0197	0.2749	1169.5696	0.149136	-439.089134	-439.081139	-439.080195	-439.121874	30.795	
O	 0.0462898104	 1.3848464772	-0.1278626038	-0.420026
C	 0.0620536599	-0.0274625724	-0.0969721841	-0.066934
C	-1.3279417809	-0.6002893764	 0.1480976597	 0.072867
O	-2.1877327826	-0.1395109129	-0.924083512	-0.278618
C	-3.0878440376	-1.1146064028	-1.2934300533	 0.416819
N	-4.1248191129	-0.90922935	-1.9821457592	-0.547178
C	-2.6338512382	-2.4228130985	-0.7550218388	-0.111592
C	-1.22543255	-2.8187012966	-1.1547448195	-0.294611
C	-1.4605783267	-2.1134027673	 0.14902958	-0.076387
H	-0.596091584	 1.6384953131	-0.8002999648	 0.293587
H	 0.4746248077	-0.451825674	-1.0245293716	 0.093394
H	 0.7218707842	-0.3200701713	 0.7268525103	 0.113543
H	-1.7186510923	-0.1841378262	 1.0860461908	 0.097999
H	-4.2259538249	 0.0852759121	-2.1911279905	 0.221861
H	-3.3771265794	-3.1805213689	-0.5520565429	 0.119994
H	-0.9944992997	-3.8765376219	-1.1089403911	 0.127004
H	-0.7558632869	-2.289741743	-1.9766452199	 0.132345
H	-1.3092622364	-2.6398902402	 1.0829221606	 0.10593
103.6323	122.5101	154.4745	222.9558	324.2414	394.0817	420.7581	460.9888	497.3614	610.71	682.8646	729.4251	796.5138	828.6316	845.0643	886.6224	919.393	955.5916	986.9281	1016.9872	1026.8251	1076.6459	1077.5186	1096.0229	1103.6446	1120.9456	1121.4255	1195.9912	1228.3974	1273.7748	1321.7721	1343.1117	1365.4494	1384.7896	1401.9239	1436.5847	1485.0489	1496.2998	1781.3819	2994.7733	3025.7111	3077.8672	3140.7182	3193.0478	3221.2028	3230.8795	3476.3537	3805.3855
OCC1OC(=N)C2CC12	OC[C@H]1O[C]([NH])[C@H]2C[C@@H]12	
InChI=1S/C6H9NO2/c7-6-4-1-3(4)5(2-8)9-6/h3-5,7-8H,1-2H2	InChI=1S/C6H9NO2/c7-6-4-1-3(4)5(2-8)9-6/h3-5,7-8H,1-2H2/t3-,4+,5-/m1/s1
