17
gdb 81735	3.14811	1.28166	1.09156	5.1681	74.35	-0.2581	0.0001	0.2582	1132.2725	0.135218	-417.972219	-417.963427	-417.962483	-418.005552	32.383	
C	-0.2724320356	 1.526842369	 0.0594947134	-0.412526
C	 0.0608335938	 0.0485381812	 0.0162503778	 0.025479
C	 1.1550628771	-0.4741225239	-0.976128551	 0.000706
O	 1.9330054898	 0.4561465667	-1.6866754398	-0.420693
C	 1.8783874213	-1.0290697318	 0.2480995196	 0.223223
C	 2.1353114162	 0.0566045166	 1.2275622651	-0.273861
N	 0.7930318184	-0.5300519189	 1.2107236749	-0.165306
C	 2.4679637452	-2.3295674491	 0.3307676877	 0.187537
N	 2.9490417396	-3.3813644625	 0.3623904948	-0.339582
H	 0.6173883458	 2.1594189013	 0.0320613297	 0.133798
H	-0.8930604843	 1.7956223274	-0.8018497402	 0.121581
H	-0.8399843129	 1.7576917952	 0.9663498484	 0.136389
H	-0.8550644256	-0.5384977666	-0.0909455207	 0.096494
H	 0.7772104656	-1.2692384069	-1.6268930302	 0.100671
H	 1.5109962414	 0.6315327856	-2.5334846202	 0.295122
H	 2.6988420337	-0.2155881532	 2.1136758091	 0.147421
H	 2.3130348604	 1.0595629299	 0.8543464816	 0.143547
101.1719	142.4531	160.6272	189.7319	211.504	228.0894	316.9998	390.1032	456.1359	523.3939	556.7864	609.4494	668.9166	721.5034	792.52	805.2122	849.3268	958.4024	963.2319	1027.7661	1092.0015	1119.6268	1133.4323	1141.5669	1176.1614	1198.9489	1232.8246	1273.5142	1316.1257	1343.3945	1378.0792	1407.6923	1441.3221	1483.5627	1492.2252	1506.7779	2349.8252	3042.8275	3052.7207	3074.9028	3106.5798	3128.2857	3135.8903	3226.0917	3826.1312
CC1C(O)C2(CN12)C#N	C[C@H]1[C@@H](O)[C@]2(CN12)C#N	
InChI=1S/C6H8N2O/c1-4-5(9)6(2-7)3-8(4)6/h4-5,9H,3H2,1H3	InChI=1S/C6H8N2O/c1-4-5(9)6(2-7)3-8(4)6/h4-5,9H,3H2,1H3/t4-,5+,6+,8?/m0/s1
