17
gdb 74197	2.32074	1.58488	0.94836	4.5125	81.52	-0.2069	-0.02	0.1869	1187.4209	0.138615	-418.056427	-418.048167	-418.047223	-418.090193	31.428	
N	 0.070389906	 1.3477381793	 0.1913101673	-0.53466
C	 0.0265392369	-0.0253494928	 0.0492156101	 0.31664
C	-1.1702618944	-0.6547905685	 0.0294092411	-0.251821
C	-1.567097361	-2.0558802749	-0.0332049884	 0.38675
O	-2.7510724741	-2.3672776196	-0.0686034044	-0.390387
N	-0.6320373046	-3.0853049032	-0.052423305	-0.37629
C	 0.7501859235	-3.0927281422	-0.0009623654	 0.017901
C	 1.6264617744	-2.0868195253	 0.0155358449	-0.095625
C	 1.4185748715	-0.6052393938	-0.0312514095	-0.36463
H	 0.8896418771	 1.822109211	-0.1549077202	 0.254075
H	-0.7891278633	 1.8527410469	 0.0388649457	 0.258533
H	-2.0560036571	-0.0264122552	 0.0698963008	 0.085381
H	-1.0942372354	-3.9815646224	-0.0821325645	 0.2481
H	 1.1421628911	-4.1046458461	 0.0288125574	 0.106929
H	 2.6703044682	-2.3811681308	 0.0603464939	 0.088086
H	 1.8775021221	-0.2039332945	-0.9523824804	 0.12167
H	 1.9976366391	-0.1389703177	 0.7808896766	 0.129349
26.4087	118.6554	174.8178	324.2694	378.3687	386.0376	417.9908	434.6088	487.4471	509.957	546.0915	606.2401	629.6104	732.1642	742.2647	836.7295	848.1381	884.4227	935.5489	962.9329	981.2915	988.8537	1125.4734	1165.3627	1251.7583	1255.6207	1292.7642	1357.882	1392.4588	1440.9644	1461.6947	1472.2541	1490.2816	1651.0845	1688.8464	1742.5841	1769.8163	2947.2449	2990.144	3159.489	3163.5132	3184.8017	3577.9467	3623.2165	3687.0586
NC1=CC(=O)NC=CC1	NC1=CC(=O)NC=CC1	
InChI=1S/C6H8N2O/c7-5-2-1-3-8-6(9)4-5/h1,3-4H,2,7H2,(H,8,9)	InChI=1S/C6H8N2O/c7-5-2-1-3-8-6(9)4-5/h1,3-4H,2,7H2,(H,8,9)
