16
gdb 39808	3.04408	1.70571	1.65115	3.1082	67.87	-0.2444	0.0112	0.2556	886.4447	0.126323	-437.84553	-437.838962	-437.838017	-437.876297	26.415	
C	 0.0156023861	 1.4448726148	 0.0106611813	-0.29097
O	 1.210249086	 0.6391950769	-0.0114821133	-0.27898
C	-0.0327664444	-0.0118314674	-0.0048584826	 0.515482
C	-0.5615872274	-0.9701068607	 1.0631926082	-0.002611
C	-1.6632371763	-1.3252959731	 0.0274097092	-0.253871
C	-0.5841921228	-0.9869961277	-1.0525552737	-0.120509
N	 0.345906708	-2.1248214881	-1.1575385152	-0.255417
C	 0.7302588935	-2.5618002301	-0.0313011196	 0.125212
O	 0.3589980266	-2.0782190545	 1.1818517516	-0.238834
H	-0.1602917757	 1.9895559587	 0.9375152153	 0.12124
H	-0.1848208624	 2.0015134121	-0.9035790042	 0.125128
H	-0.7960867258	-0.6452641443	 2.075358895	 0.097097
H	-2.0418379247	-2.3477814922	 0.0364104249	 0.121131
H	-2.4809820452	-0.6030582756	 0.0530386744	 0.116383
H	-0.8796297659	-0.6351148939	-2.0398390239	 0.084329
H	 1.4163102702	-3.3983913748	 0.0677932025	 0.135191
147.5293	236.7601	265.4854	372.2552	412.2271	513.0341	527.3994	556.5738	683.6746	778.5848	833.4442	849.8605	867.049	905.0326	936.55	950.6789	963.0696	1014.1691	1021.4249	1096.0877	1119.2971	1133.5023	1139.2626	1146.7081	1174.4841	1185.473	1243.4887	1251.6782	1303.1625	1335.4065	1381.0032	1451.9269	1479.0486	1544.8113	1701.073	3081.7388	3082.8338	3122.4146	3135.2546	3149.615	3170.9621	3185.2771
C1OC11C2CC1N=CO2	C1O[C@]21[C@H]1C[C@@H]2[N][CH]O1	
InChI=1S/C6H7NO2/c1-4-6(2-9-6)5(1)8-3-7-4/h3-5H,1-2H2	InChI=1S/C6H7NO2/c1-4-6(2-9-6)5(1)8-3-7-4/h3-5H,1-2H2/t4-,5+,6-/m0/s1
