20
gdb 108420	2.70719	1.54991	1.22207	1.818	77.95	-0.2406	0.0228	0.2634	1099.3862	0.172046	-403.164511	-403.156253	-403.155309	-403.197504	31.647	
C	 0.0694959768	 1.5231468403	 0.1641399526	-0.386996
C	 0.0022899311	-0.0063501854	 0.0958450409	-0.257071
C	-1.4040155902	-0.5473604402	-0.0637703176	 0.419363
C	-2.4032383572	-0.4130704672	 1.1188661563	-0.281707
C	-2.5769269199	-1.9647507314	 1.148986862	-0.220569
C	-1.6742943115	-2.0869236047	-0.1082639174	-0.062835
N	-2.4052921483	-2.3117361959	-1.3624149575	-0.26927
C	-2.4985989332	-1.172600352	-1.9137820496	 0.101199
O	-1.966757944	-0.0740371578	-1.3231870182	-0.265547
H	 1.1029017633	 1.8630899721	 0.2785529883	 0.114303
H	-0.3378059607	 1.9684172587	-0.7473878905	 0.135448
H	-0.504618901	 1.9107482348	 1.0123773234	 0.118091
H	 0.6093736108	-0.3717796734	-0.74167407	 0.106528
H	 0.4305573999	-0.4438585752	 1.0065261526	 0.100128
H	-1.9785586284	 0.025090294	 2.0254042494	 0.104663
H	-3.3024072925	 0.1455866909	 0.8523003395	 0.11322
H	-2.155521547	-2.4384286146	 2.0389665805	 0.103675
H	-3.5929285352	-2.3347276731	 1.0007069389	 0.113537
H	-0.8244856549	-2.7712980877	-0.0332167418	 0.077398
H	-2.9814213878	-0.9760724021	-2.8653106019	 0.136442
82.3972	104.0243	173.3519	210.0942	285.477	336.4368	354.5929	431.0096	576.5232	633.0461	653.3692	739.448	781.244	830.4504	866.3754	868.0419	933.3782	940.901	967.1404	977.0354	1005.8582	1024.498	1037.7279	1111.7916	1128.1785	1147.224	1190.5492	1194.4502	1219.3691	1244.7815	1272.353	1299.4404	1307.6597	1323.6917	1340.1386	1378.2662	1409.0983	1468.2794	1476.8129	1487.9431	1497.4385	1508.3125	1686.1175	3024.5826	3040.3701	3060.476	3062.1283	3066.078	3074.1073	3105.8123	3115.8793	3122.7732	3133.8902	3209.0449
CCC12CCC1N=CO2	CC[C@]12CC[C@H]1N=CO2	
InChI=1S/C7H11NO/c1-2-7-4-3-6(7)8-5-9-7/h5-6H,2-4H2,1H3	InChI=1S/C7H11NO/c1-2-7-4-3-6(7)8-5-9-7/h5-6H,2-4H2,1H3/t6-,7+/m1/s1
