21
gdb 83568	2.11744	1.88542	1.73493	1.4285	81.84	-0.2346	0.0211	0.2558	979.586	0.18558	-387.112518	-387.104938	-387.103993	-387.143996	31.108	
C	-0.2794697903	 1.5152569474	 0.0140702633	-0.429925
C	 0.0544181464	 0.0265617891	 0.0253584946	 0.017132
C	 0.9944535099	-0.4949712935	-1.0754589732	 0.098617
C	 2.3055257623	 0.308322379	-1.1358960975	-0.263016
C	 2.8490682625	 0.560190871	 0.2493453536	-0.043982
C	 2.1815402041	 0.1927122511	 1.3444315414	-0.068273
C	 0.8500406716	-0.5221810486	 1.2358775803	-0.09444
C	 1.0694224222	-1.9652154898	 0.7396588641	-0.071068
O	 1.2831801803	-1.8420356063	-0.6723667494	-0.280949
H	 0.6071537413	 2.1376566439	 0.15506271	 0.127554
H	-0.7507279473	 1.8001787343	-0.9330104136	 0.113355
H	-0.9858277266	 1.7561312146	 0.8155201082	 0.113647
H	-0.8822315303	-0.5403127763	-0.0499232694	 0.075533
H	 0.5223348868	-0.539026486	-2.0622481218	 0.070068
H	 3.027516748	-0.2643379493	-1.7312745497	 0.115536
H	 2.157316066	 1.2586128528	-1.6701985514	 0.099063
H	 3.8097021183	 1.0631321435	 0.3294462543	 0.086044
H	 2.5926197364	 0.3733269668	 2.333601705	 0.083727
H	 0.2920827369	-0.4904091712	 2.1748247527	 0.064349
H	 1.9415326172	-2.4491696101	 1.1917137898	 0.099714
H	 0.1839350444	-2.5896061424	 0.9313668688	 0.087314
171.2859	205.7585	221.068	257.9084	298.5861	370.9992	458.6213	524.3733	541.0795	597.4054	704.8902	769.5978	784.7186	833.2883	860.0727	888.3148	944.6333	958.7905	972.109	986.0681	993.9779	1023.7303	1048.3113	1074.4025	1090.2327	1133.5412	1144.9426	1158.9047	1203.1535	1212.2958	1235.1665	1286.4679	1311.4037	1339.4852	1350.3868	1368.2428	1381.4605	1394.4845	1412.2423	1420.7453	1461.5364	1495.152	1507.0963	1522.4982	1706.5938	2988.0563	3000.4696	3021.1255	3035.9203	3046.251	3057.3213	3064.7137	3081.9704	3093.1105	3124.2167	3147.9504	3173.1171
CC1C2CC=CC1CO2	C[C@H]1[C@H]2CC=C[C@@H]1CO2	
InChI=1S/C8H12O/c1-6-7-3-2-4-8(6)9-5-7/h2-3,6-8H,4-5H2,1H3	InChI=1S/C8H12O/c1-6-7-3-2-4-8(6)9-5-7/h2-3,6-8H,4-5H2,1H3/t6-,7-,8-/m1/s1
