17
gdb 34043	3.07729	1.37925	1.18065	4.17	73.09	-0.2376	0.0235	0.2611	1070.0839	0.137815	-417.989547	-417.981798	-417.980854	-418.021875	29.801	
N	 0.0364194976	-1.0889942553	 0.1097770181	-0.346538
C	 0.0055183458	 0.0658104108	 0.0508776206	 0.276145
C	-0.0316932366	 1.5081271743	-0.0563162564	 0.119995
C	 0.5709585162	 2.0980832382	-1.3427898904	-0.343155
C	 1.315392127	 2.221786145	-0.0462473788	 0.083296
O	 1.3961367753	 3.4732704838	 0.5548788909	-0.258795
C	 0.4790838332	 3.6420247534	 1.6336762488	-0.0701
C	-0.9447469544	 3.4714004337	 1.1318375197	-0.171763
N	-1.1306968582	 2.0977146025	 0.661697904	-0.366043
H	 0.9369535946	 1.4115950482	-2.0971398882	 0.137245
H	 0.1034266814	 3.0034498915	-1.7131176912	 0.131471
H	 2.1977704832	 1.6046779454	 0.1068338173	 0.12325
H	 0.6897175052	 2.9229877193	 2.4381678436	 0.113808
H	 0.640415319	 4.6541529161	 2.010474732	 0.120828
H	-1.6549236001	 3.6563797139	 1.9455042001	 0.115953
H	-1.1246411294	 4.2294049816	 0.3511779093	 0.098497
H	-1.9973623398	 1.9913893875	 0.1482470604	 0.235906
89.638	141.3041	176.7055	292.0468	341.643	416.6596	432.3121	497.0804	539.2519	576.5253	587.733	653.3892	791.5838	810.3473	876.1777	884.4369	927.2429	981.2464	1009.1778	1044.1055	1066.2896	1105.7128	1129.5562	1132.9892	1186.9439	1241.0821	1265.0895	1279.2242	1322.5622	1372.9914	1385.2863	1419.5588	1463.5217	1487.9191	1497.8938	1510.3495	2350.9758	2961.5356	3011.4838	3060.5494	3114.3094	3134.8206	3142.8538	3240.6735	3541.1292
N#CC12CC1OCCN2	N#C[C@]12C[C@H]1OCCN2	
InChI=1S/C6H8N2O/c7-4-6-3-5(6)9-2-1-8-6/h5,8H,1-3H2	InChI=1S/C6H8N2O/c7-4-6-3-5(6)9-2-1-8-6/h5,8H,1-3H2/t5-,6-/m1/s1
