17
gdb 67136	2.16525	1.86366	1.53481	2.1952	74.56	-0.2343	0.0182	0.2525	969.982	0.135614	-417.937004	-417.928903	-417.927959	-417.96933	31.132	
C	-0.131364416	 1.514064996	-0.0997748027	-0.530361
C	 0.0085209389	 0.0355626832	-0.0540058003	 0.28195
C	 0.5994423662	-1.0607949171	-0.8896809549	-0.177352
C	 1.3164536114	-1.5970979485	 0.3374121637	-0.188915
N	 0.3191592412	-0.8233475887	 1.1966050165	-0.248579
C	-0.9418461198	-1.5499995728	 0.8852706801	 0.309275
N	-1.810102893	-2.0949016185	 1.6119507885	-0.578787
C	-0.8983025566	-1.1206418041	-0.5263683636	 0.309833
O	-1.8474154078	-1.1680636381	-1.5096885861	-0.460072
H	 0.8247040294	 2.0188763216	 0.0743435469	 0.13591
H	-0.5064051224	 1.8211926432	-1.0814245201	 0.138037
H	-0.840245411	 1.8596473685	 0.6602670975	 0.138136
H	 0.8941519005	-1.0304931877	-1.9323670323	 0.108012
H	 1.3209071503	-2.6759062015	 0.5260217829	 0.114062
H	 2.3189271693	-1.18367312	 0.4737089814	 0.116306
H	-1.5112272629	-2.0828876945	 2.5896991369	 0.228528
H	-2.7040313778	-1.003116041	-1.0972842243	 0.304016
112.406	164.4832	189.3942	214.2184	297.652	324.4433	343.6637	438.5561	549.6127	619.2707	626.2446	685.1031	718.6432	775.81	814.7907	875.8548	898.8331	899.6731	954.1023	964.5167	993.7837	1068.2205	1079.8296	1110.5746	1142.0513	1163.4131	1227.8615	1233.921	1298.323	1340.4174	1388.3095	1422.9653	1474.316	1479.917	1496.3106	1507.6963	1814.3168	3030.238	3044.9971	3094.5741	3106.5611	3107.9269	3185.8956	3458.5895	3789.3787
CC12C3CN1C(=N)C23O	C[C@@]12[C@H]3CN1[C]([NH])[C@@]23O	
InChI=1S/C6H8N2O/c1-5-3-2-8(5)4(7)6(3,5)9/h3,7,9H,2H2,1H3	InChI=1S/C6H8N2O/c1-5-3-2-8(5)4(7)6(3,5)9/h3,7,9H,2H2,1H3/t3-,5+,6-/m1/s1
