20
gdb 117215	3.99997	0.72825	0.69917	2.387	77.37	-0.2405	-0.0175	0.223	1681.3242	0.16882	-440.270846	-440.260615	-440.259671	-440.30712	36.182	
C	 0.1752405712	 1.480421053	-0.6590637994	-0.404295
C	-0.0674173827	 0.0977914092	-0.1079988988	 0.012951
N	 1.0865560129	-0.7793011721	 0.0358130434	-0.311996
C	 0.3879208943	-0.3467556053	 1.2612593311	-0.145038
C	 1.1227709146	 0.5688585485	 2.1983315128	 0.399342
O	 2.0305918234	 1.2879300215	 1.8408956213	-0.316992
C	 0.6254180307	 0.55270716	 3.6337908321	-0.293176
C	 1.3305788678	 1.5614858757	 4.5263300351	-0.078284
O	 0.7772692853	 1.4295316547	 5.8281675277	-0.425977
H	 1.1140845133	 1.8832262512	-0.278348514	 0.165696
H	 0.2280204121	 1.4397102303	-1.7523010335	 0.119625
H	-0.6430170316	 2.1555378272	-0.3863728178	 0.11189
H	-1.0036109142	-0.3628343741	-0.4252016493	 0.088872
H	 0.8423231128	-1.744918113	-0.1676218051	 0.236418
H	-0.2597594775	-1.0676932946	 1.7566157396	 0.085132
H	-0.4583006909	 0.7324899127	 3.6415638563	 0.130112
H	 0.7527213034	-0.4598490266	 4.0412605223	 0.132033
H	 2.411605201	 1.3646683041	 4.519331223	 0.105561
H	 1.1868753643	 2.5741706042	 4.1231082606	 0.10082
H	 1.2231248599	 2.0563290333	 6.4050267925	 0.287307
38.3273	75.0322	104.5969	129.2988	177.0686	221.1453	266.1565	274.0724	321.0004	373.8969	408.8592	432.8338	589.0902	701.0465	763.2585	812.8695	835.1799	871.4546	936.5053	982.3293	1015.3855	1028.7405	1057.3802	1075.8773	1082.3863	1106.9338	1150.615	1192.8454	1207.5907	1241.6502	1253.792	1259.2261	1302.0635	1342.2813	1397.3373	1430.8935	1446.8674	1460.9822	1470.4624	1494.8104	1500.964	1522.1437	1795.5388	2997.4454	3021.9674	3025.3685	3038.365	3057.4925	3096.9073	3097.2664	3124.6247	3156.4915	3504.9625	3831.5723
CC1NC1C(=O)CCO	C[C@H]1N[C@H]1C(=O)CCO	
InChI=1S/C6H11NO2/c1-4-6(7-4)5(9)2-3-8/h4,6-8H,2-3H2,1H3	InChI=1S/C6H11NO2/c1-4-6(7-4)5(9)2-3-8/h4,6-8H,2-3H2,1H3/t4-,6-/m1/s1
