22
gdb 101373	3.23361	1.07439	0.92654	1.701	82.18	-0.2302	0.0813	0.3115	1357.7312	0.193214	-404.289919	-404.28033	-404.279386	-404.32478	35.44	
C	-1.4752914944	 0.1895834484	-2.2878046346	-0.23411
O	-1.6164220149	-0.8441915797	-1.3425036563	-0.247627
C	-1.2963401383	-0.4803916028	-0.0045186692	 0.119968
C	-2.3724690944	 0.387976902	 0.6504475358	-0.407331
C	-1.1293770793	-1.8065140563	 0.7272951195	 0.065137
C	 0.0530755369	-2.7490868848	 0.3811008949	-0.28446
C	 0.4188542799	-2.6689524171	 1.8623817976	-0.010756
C	 0.6499250275	-1.2730877303	 2.2689184244	-0.241193
N	-0.749382865	-1.7481193153	 2.1898448026	-0.155301
H	-1.65388106	-0.2493629358	-3.272867559	 0.1266
H	-2.1966745383	 1.005363532	-2.1358490452	 0.108006
H	-0.4612418813	 0.6202387088	-2.2720089482	 0.100782
H	-0.3411827005	 0.0709712076	-0.009034135	 0.057072
H	-2.4539952881	 1.3658681211	 0.1677963317	 0.110997
H	-3.3452345364	-0.1103776706	 0.590537801	 0.123159
H	-2.1313867007	 0.5476730964	 1.7051305563	 0.138508
H	-2.0826340751	-2.3392629074	 0.6649849115	 0.090762
H	-0.2720868579	-3.7358641359	 0.0497147444	 0.111952
H	 0.8061100027	-2.3746460033	-0.3186985247	 0.102408
H	 0.665161583	-3.5112505644	 2.5005938786	 0.094388
H	 0.956545128	-1.0857781416	 3.2933811267	 0.119948
H	 1.0306537366	-0.5532706511	 1.5485532273	 0.11109
63.3166	69.8913	141.8445	171.4704	194.8589	229.6276	277.5602	341.679	374.5859	429.6389	489.9886	530.9611	726.9681	761.301	785.6447	828.4042	866.8186	926.4561	952.1793	995.4818	1003.1932	1051.0859	1062.6013	1082.9114	1102.9119	1126.4594	1127.2461	1129.6043	1158.0632	1182.2013	1207.2657	1224.9286	1241.5174	1265.3931	1282.6791	1324.2598	1363.8116	1373.0895	1399.9383	1415.0427	1477.161	1482.6384	1487.5341	1493.2445	1500.7699	1503.5344	1512.8629	2958.8888	2974.8872	3024.9028	3042.9509	3058.9321	3065.1978	3108.5138	3110.613	3115.2526	3122.6134	3124.8407	3164.484	3198.3224
COC(C)C1CC2CN12	CO[C@@H](C)[C@H]1C[C@H]2CN12	
InChI=1S/C7H13NO/c1-5(9-2)7-3-6-4-8(6)7/h5-7H,3-4H2,1-2H3	InChI=1S/C7H13NO/c1-5(9-2)7-3-6-4-8(6)7/h5-7H,3-4H2,1-2H3/t5-,6-,7+,8?/m0/s1
