16
gdb 29821	3.2639	1.39825	0.98617	6.5146	77.26	-0.2009	-0.0504	0.1505	1146.8868	0.125667	-434.122385	-434.113951	-434.113007	-434.155655	30.791	
C	-0.0257398204	 1.4535755736	-0.0053330257	-0.328861
N	-0.033429945	-0.0044788695	 0.0157203619	-0.117947
C	-1.1936116017	-0.7089700404	-0.0939966191	-0.015663
C	-1.1848045368	-2.0746182404	-0.083405514	 0.172137
N	-2.3256181981	-2.8772765105	-0.2826951907	-0.595375
C	 0.1038986907	-2.6658778018	 0.0604260271	 0.008349
N	 1.2248580647	-2.0168301328	 0.1861524516	-0.329018
C	 1.2286460996	-0.6321067035	 0.1680497119	 0.440134
O	 2.2253816155	 0.0574942378	 0.2727598015	-0.404832
H	 0.601324406	 1.8093522558	-0.826164508	 0.160554
H	-1.046764187	 1.8183155815	-0.1283679502	 0.121828
H	 0.4013797072	 1.8371959639	 0.9242654874	 0.159096
H	-2.1024805711	-0.1257679905	-0.1968602251	 0.121114
H	-3.194172875	-2.3866079959	-0.1127380308	 0.24457
H	-2.3098267678	-3.7217122539	 0.2757658757	 0.251183
H	 0.1688584494	-3.7568262334	 0.0702910466	 0.112733
80.0887	121.1166	137.6004	189.801	297.8979	340.1965	358.3822	405.1986	496.2019	521.473	539.4932	629.1343	692.059	742.8558	803.5979	847.4334	885.4735	973.9979	989.2782	1063.9033	1089.0137	1145.4507	1153.2163	1180.273	1328.434	1340.5024	1432.6142	1452.9527	1463.8862	1482.4025	1513.4563	1562.3004	1654.8224	1707.1075	1778.4273	3054.7195	3095.926	3124.4654	3146.8049	3184.0312	3532.8036	3622.5626
CN1C=C(N)C=NC1=O	Cn1cc(N)cnc1=O	
InChI=1S/C5H7N3O/c1-8-3-4(6)2-7-5(8)9/h2-3H,6H2,1H3	InChI=1S/C5H7N3O/c1-8-3-4(6)2-7-5(8)9/h2-3H,6H2,1H3
