17
gdb 15558	3.38717	1.79359	1.28848	3.9415	73.01	-0.2111	-0.0011	0.21	953.8901	0.143009	-363.904886	-363.897226	-363.896282	-363.937109	28.248	
C	 0.0728610788	 1.5718963195	-0.0004996367	-0.389113
C	 0.0057568589	 0.0429515762	 0.0093291839	 0.023139
C	 0.7358220508	-0.5965992348	-1.2113935371	-0.284238
C	 1.9716618457	-1.2163754484	-0.5991361136	-0.155582
C	 1.9043532769	-1.1614983024	 0.7307272577	 0.012228
N	 0.7369943127	-0.5199511729	 1.1689159474	-0.04887
C	 0.3373713757	-0.4474199939	 2.4698387703	 0.137253
O	 0.9542164645	-0.8980343754	 3.413506908	-0.334719
H	 1.1137153532	 1.9072035758	-0.048558936	 0.133912
H	-0.4588811933	 1.9673604987	-0.8719384171	 0.121917
H	-0.3831865999	 1.9972676255	 0.8984101185	 0.123654
H	-1.0391704356	-0.2781271241	 0.0571473282	 0.098416
H	 0.1131351809	-1.3498173725	-1.7105700916	 0.116743
H	 0.968513749	 0.164591176	-1.9650132028	 0.113394
H	 2.7750416618	-1.6615653368	-1.1675402091	 0.108059
H	 2.5847328111	-1.5299040527	 1.4835840331	 0.152609
H	-0.6339766711	 0.0744101822	 2.5735943767	 0.071198
73.71	116.8849	219.2447	261.0397	285.314	330.7685	408.878	504.7236	525.3071	722.2242	740.4156	793.6771	861.3936	876.9657	931.0118	950.3946	971.4353	1021.1487	1033.0803	1088.8875	1099.994	1126.8032	1214.8867	1234.3832	1285.8751	1308.8577	1334.1335	1369.5542	1407.1017	1437.0021	1441.0543	1489.2707	1494.0098	1498.7406	1685.0205	1786.5629	2939.6269	3019.6439	3036.4755	3050.9515	3060.9027	3110.9618	3116.5081	3239.3747	3269.4548
CC1CC=CN1C=O	C[C@H]1CC=CN1C=O	
InChI=1S/C6H9NO/c1-6-3-2-4-7(6)5-8/h2,4-6H,3H2,1H3	InChI=1S/C6H9NO/c1-6-3-2-4-7(6)5-8/h2,4-6H,3H2,1H3/t6-/m0/s1
