21
gdb 87994	2.62021	1.27937	1.18606	2.9375	79.01	-0.2514	0.0678	0.3191	1196.6514	0.17942	-424.203215	-424.193453	-424.192509	-424.237295	37.083	
C	-0.0181534519	 1.506096237	-0.1239296267	-0.419317
C	-0.0075437555	 0.0108203359	 0.0569764808	-0.027374
O	 1.2647815152	-0.6506095739	-0.0575725988	-0.289656
C	 0.6282752652	-0.6532626726	 1.2013117326	 0.441103
C	 1.1715373197	-0.0432283405	 2.4934638973	-0.323149
C	 0.3235475813	-1.0967286044	 3.2664881709	-0.274504
C	 0.1638804411	-1.9224718964	 1.9454333537	 0.312989
C	-1.195926253	-2.519942638	 1.6222557473	-0.465167
O	 1.1989426689	-2.8861112675	 1.8018898604	-0.470841
H	 0.8095547041	 1.9723591183	 0.415999403	 0.128743
H	 0.0776712755	 1.7641189181	-1.1837676743	 0.130227
H	-0.9600533947	 1.9314444743	 0.240312436	 0.118399
H	-0.8167603909	-0.5221365521	-0.4460222348	 0.086649
H	 2.2444700789	-0.2210963681	 2.5953521541	 0.125292
H	 0.9615607429	 1.011347741	 2.6848302523	 0.101201
H	 0.8213184718	-1.6238525024	 4.0830776312	 0.096595
H	-0.6270420396	-0.6918143519	 3.6236859063	 0.099465
H	-1.9897051002	-1.7693525728	 1.6843190189	 0.11447
H	-1.1931898502	-2.9486195004	 0.615269001	 0.133089
H	-1.4414985326	-3.3224491153	 2.3293370225	 0.105957
H	 1.011163594	-3.6067708584	 2.4134961865	 0.275829
75.9101	135.9488	176.8164	193.9517	230.2146	252.1174	276.5134	293.5766	348.8726	383.9769	445.5446	479.2498	528.7035	601.7006	670.5259	745.3482	808.6881	863.7115	881.6376	935.118	958.808	967.7664	984.3634	1025.6004	1077.4124	1114.5379	1128.8154	1139.9261	1188.2523	1196.2343	1205.4109	1211.5755	1260.0298	1274.6246	1350.0594	1380.1871	1404.4363	1407.6788	1462.6529	1467.1133	1484.5325	1486.6583	1490.5181	1493.1313	1523.5171	3022.4664	3035.4761	3061.2091	3070.0975	3086.2635	3090.7184	3098.1571	3111.797	3114.7386	3126.8475	3129.8525	3796.745
CC1OC11CCC1(C)O	C[C@H]1O[C@]21CC[C@]2(C)O	
InChI=1S/C7H12O2/c1-5-7(9-5)4-3-6(7,2)8/h5,8H,3-4H2,1-2H3	InChI=1S/C7H12O2/c1-5-7(9-5)4-3-6(7,2)8/h5,8H,3-4H2,1-2H3/t5-,6+,7+/m1/s1
