22
gdb 107918	2.88048	1.32044	1.17851	0.9049	85.91	-0.2004	0.0869	0.2874	1191.1695	0.194085	-367.147224	-367.138501	-367.137557	-367.180446	34.129	
C	 0.032609008	 1.4767552846	 0.2056322048	-0.372764
C	-0.1104245699	-0.0204798068	-0.1005869834	-0.303786
C	 0.6462754147	-0.4433335501	-1.3269414897	 0.347604
C	 0.3811482834	-0.0589498911	-2.7856333256	-0.30613
C	 1.3929215495	-1.1877867214	-3.1502922407	-0.026648
C	 1.0789489369	-1.839483158	-1.7497142147	-0.172771
C	 2.1393327499	-0.8939817762	-1.2891225381	-0.068505
N	 2.7277982166	-0.7835290392	-2.6182687176	-0.075071
C	 3.3160812616	 0.4820377047	-3.0330784601	-0.328576
H	 1.0815902097	 1.7462312837	 0.3660266235	 0.116527
H	-0.342640019	 2.0860573641	-0.6233723241	 0.118426
H	-0.529943921	 1.7526800586	 1.1028046258	 0.109852
H	 0.2418177096	-0.6069029498	 0.7586500487	 0.095345
H	-1.1742031028	-0.268916535	-0.2181629045	 0.095847
H	-0.6315089688	-0.3496136168	-3.0813028745	 0.097383
H	 0.5820618244	 0.9599371075	-3.1343583847	 0.0881
H	 1.3815821586	-1.6690664186	-4.1275400703	 0.072118
H	 0.7997926589	-2.8340504686	-1.4333299367	 0.092229
H	 2.7241109895	-0.8946073746	-0.3760243887	 0.087532
H	 4.2690526204	 0.6152606839	-2.5094553065	 0.117745
H	 3.5292696024	 0.444247559	-4.1068748471	 0.116549
H	 2.6969304676	 1.3708460001	-2.8332297258	 0.098995
84.6511	117.0757	177.4175	202.8856	240.5508	304.3923	332.9669	394.3926	487.4434	573.6055	608.0996	686.1256	736.1123	784.6992	791.3315	833.1222	867.2512	895.829	931.0319	953.8678	972.7172	988.2507	1036.5118	1037.9207	1066.5695	1090.9395	1123.5046	1133.679	1152.2303	1167.5787	1185.7492	1216.7205	1227.9769	1237.7588	1273.6738	1297.9265	1327.9132	1352.6855	1405.0546	1411.2438	1444.1772	1480.2523	1483.2944	1495.7338	1497.4351	1507.3229	1515.9238	2977.3136	3006.4022	3033.7995	3036.6037	3036.7911	3059.4563	3089.8732	3095.0123	3102.662	3106.3958	3120.078	3175.9997	3219.3935
CCC12CC3C1C2N3C	CC[C@]12C[C@@H]3[C@H]1[C@H]2N3C	
InChI=1S/C8H13N/c1-3-8-4-5-6(8)7(8)9(5)2/h5-7H,3-4H2,1-2H3	InChI=1S/C8H13N/c1-3-8-4-5-6(8)7(8)9(5)2/h5-7H,3-4H2,1-2H3/t5-,6+,7-,8+/m1/s1
