15
gdb 128750	6.91931	0.76031	0.68804	0.791	76.43	-0.221	-0.0115	0.2095	1559.3789	0.113169	-450.117452	-450.108983	-450.108039	-450.152319	28.832	
C	-0.0264117467	 1.3867614496	 0.0084209051	-0.252511
O	 0.0346619661	-0.0373021614	 0.0024306481	-0.19042
C	-1.1472192788	-0.6671225376	 0.0092761154	 0.127921
N	-1.1773416906	-1.9351501756	 0.0054784169	-0.343613
C	-2.4110135878	-2.5655844796	 0.0130141874	 0.389919
C	-2.624979229	-3.9283411167	 0.0098902677	-0.172488
N	-3.9729645954	-4.043518484	 0.0201024175	-0.15243
N	-4.5762241038	-2.840428554	 0.029134527	-0.114933
N	-3.6342158694	-1.9442425999	 0.0249682518	-0.265612
H	 1.0061829087	 1.7364615936	-0.0000789107	 0.148278
H	-0.5441880472	 1.7668155353	-0.8797031731	 0.134668
H	-0.5271542329	 1.759976091	 0.909125622	 0.134679
H	-2.0321087903	-0.0218352148	 0.0183421472	 0.121809
H	-1.9523533004	-4.7678026797	 0.0015804146	 0.151179
H	-4.5389108524	-4.8764778562	 0.0216153331	 0.283555
32.8732	66.2209	118.5936	155.2384	183.3478	327.8463	400.1725	412.1373	539.2752	562.7511	696.5105	739.8892	800.4299	805.3162	978.7914	1010.5205	1034.1328	1049.5435	1068.5421	1127.8357	1168.5558	1176.7191	1263.1542	1280.214	1319.94	1350.4909	1403.5758	1482.7897	1491.5235	1494.5488	1499.1071	1600.9063	1736.4871	3021.3064	3076.0124	3088.6133	3150.1699	3297.3793	3663.8467
COC=NC1=CNN=N1	COC=Nc1c[nH]nn1	
InChI=1S/C4H6N4O/c1-9-3-5-4-2-6-8-7-4/h2-3H,1H3,(H,6,7,8)	InChI=1S/C4H6N4O/c1-9-3-5-4-2-6-8-7-4/h2-3H,1H3,(H,6,7,8)
