15
gdb 84609	2.65834	1.60354	1.23283	3.3346	70.55	-0.2549	-0.032	0.2228	1008.8782	0.113684	-416.792934	-416.785321	-416.784377	-416.824988	29.094	
N	 0.134171265	 1.4342891535	-0.1041011265	-0.510001
C	 0.0742605407	-0.0154715453	 0.0049037793	-0.11003
C	 0.6317822862	-0.5013244101	 1.3340547396	-0.07129
C	-0.2162917255	-1.2774442233	 2.0092765999	-0.08644
C	-1.505986785	-1.4075918788	 1.2651195346	-0.062846
O	-2.1783748175	-0.1417014633	 1.0610116389	-0.285194
C	-1.344120047	-0.6443550617	 0.0113097857	 0.270785
C	-1.9911980066	-0.9686390159	-1.2325423251	 0.2161
N	-2.4616672174	-1.2056630903	-2.2619642153	-0.333053
H	-0.1551135059	 1.7327285518	-1.0308315511	 0.242624
H	-0.5184925634	 1.8423573282	 0.5604450761	 0.243716
H	 0.6485254673	-0.4411897502	-0.8277072781	 0.11136
H	 1.6071128209	-0.1720622818	 1.6711039042	 0.125773
H	-0.0436523307	-1.7358220799	 2.9743401656	 0.121092
H	-2.163865091	-2.2654687127	 1.3567052724	 0.127403
107.895	154.4323	190.0554	263.358	348.1158	402.0733	441.4178	511.454	561.893	581.2033	628.1037	701.5419	764.5643	818.4995	865.1734	891.8097	928.488	956.4259	971.7323	990.7927	1062.1373	1124.9026	1146.6738	1159.6064	1202.8226	1261.5693	1294.0625	1354.9254	1404.2859	1415.0311	1660.4664	1668.3931	2354.1288	3036.3723	3179.6731	3207.7791	3231.1353	3486.8164	3571.4797
NC1C=CC2OC12C#N	N[C@H]1C=C[C@H]2O[C@@]12C#N	
InChI=1S/C6H6N2O/c7-3-6-4(8)1-2-5(6)9-6/h1-2,4-5H,8H2	InChI=1S/C6H6N2O/c7-3-6-4(8)1-2-5(6)9-6/h1-2,4-5H,8H2/t4-,5+,6-/m0/s1
