15
gdb 48124	2.43718	1.60539	0.97986	1.8986	70.77	-0.2653	-0.0961	0.1692	1130.1189	0.112072	-453.970265	-453.961927	-453.960983	-454.003923	29.37	
N	-0.0218864756	 1.3531501057	 0.1333339795	-0.524439
C	 0.0018121751	 0.1175362116	-0.0670089469	 0.391829
C	-0.9879787176	-0.8563808444	-0.6943408383	-0.323699
C	 0.0411804247	-1.9824145029	-0.4066293254	-0.170434
N	 0.9272659136	-0.9582476686	 0.1799959285	-0.14842
C	 2.1594602713	-1.2009032409	 0.71368131	 0.290268
O	 2.644424421	-2.3182175619	 0.7502170903	-0.335536
C	 2.9830361859	-0.0488237013	 1.2934967424	 0.105363
O	 2.6707110376	 1.1112433776	 1.3453327232	-0.23798
H	 0.832434871	 1.679430824	 0.5868026316	 0.257749
H	-1.9330646893	-0.9361262506	-0.1554043152	 0.143154
H	-1.1896030641	-0.6645049445	-1.7491377918	 0.143151
H	-0.2630067852	-2.7406674388	 0.3180976721	 0.138119
H	 0.4808685993	-2.4693190618	-1.2797086696	 0.138102
H	 3.9481598724	-0.4314102132	 1.6784804298	 0.132772
74.4363	98.8932	136.7741	203.4702	207.3065	244.4306	377.5295	507.6142	515.7634	595.1972	626.5401	653.1785	771.835	792.7194	939.7994	944.1814	988.5063	1030.1384	1062.1747	1079.7425	1134.7993	1156.2355	1195.5664	1241.5544	1249.1864	1330.2382	1373.14	1411.5107	1469.8002	1513.6687	1741.1589	1804.2013	1829.4817	2963.5203	3073.7069	3094.4209	3123.3516	3148.8837	3489.4357
N=C1CCN1C(=O)C=O	[NH][C]1CCN1C(=O)C=O	
InChI=1S/C5H6N2O2/c6-4-1-2-7(4)5(9)3-8/h3,6H,1-2H2	InChI=1S/C5H6N2O2/c6-4-1-2-7(4)5(9)3-8/h3,6H,1-2H2
