16
gdb 9654	3.58534	1.38815	1.34215	1.0483	68.69	-0.2302	0.0289	0.2592	998.4111	0.126822	-383.667266	-383.658407	-383.657463	-383.700328	32.264	
C	-0.4112263541	 1.0092451619	-0.1985080628	-0.239139
O	 0.5683419857	 0.0227907288	 0.0910534051	-0.231285
C	 1.0145369712	-0.6420620647	-1.0323166409	 0.090499
C	 1.4988616031	-2.0415132441	-0.8339531042	-0.382139
C	 0.1881951148	-1.8041892198	-1.5864861007	 0.157069
O	-1.0067417422	-2.0442237807	-0.898248322	-0.437195
C	 0.1521258221	-2.0184348684	-3.0077906767	 0.309102
C	 0.1160597369	-2.21317192	-4.194950969	-0.480932
H	-0.0220736068	 1.7658273389	-0.8959893631	 0.105393
H	-1.3136213229	 0.5574358726	-0.6258333537	 0.134692
H	-0.6588134276	 1.4941706079	 0.7481750295	 0.127556
H	 1.5115985831	-0.0195439923	-1.7780245808	 0.099093
H	 2.3648584212	-2.3894679623	-1.384102191	 0.12625
H	 1.3748360724	-2.434668829	 0.168928547	 0.134197
H	-1.1941579365	-2.9879956732	-0.9527390517	 0.29005
H	 0.0793774097	-2.3745631255	-5.243806175	 0.19679
108.9659	121.4139	146.719	186.5525	244.5511	263.0073	291.5141	367.9486	472.2548	484.0871	555.3277	573.1235	596.9924	678.8459	726.114	800.4666	875.1042	914.2551	1020.2299	1062.6201	1068.3582	1126.5072	1172.9318	1183.6709	1233.8194	1249.9746	1259.5542	1344.1866	1399.5192	1458.1695	1487.335	1492.1326	1507.2079	2226.5523	2994.6491	3070.6157	3092.5036	3127.4272	3141.8641	3241.8189	3502.3328	3797.1125
COC1CC1(O)C#C	CO[C@H]1C[C@]1(O)C#C	
InChI=1S/C6H8O2/c1-3-6(7)4-5(6)8-2/h1,5,7H,4H2,2H3	InChI=1S/C6H8O2/c1-3-6(7)4-5(6)8-2/h1,5,7H,4H2,2H3/t5-,6+/m0/s1
