20
gdb 7631	4.59988	1.15894	0.97449	2.9631	75.73	-0.239	-0.0158	0.2233	1217.2004	0.174989	-349.025054	-349.016185	-349.015241	-349.058609	33.004	
C	-0.2098119671	 1.4598268012	 0.0393323203	-0.390038
C	 0.0358825749	-0.053897593	-0.0230249029	 0.01909
C	 0.7385424942	-0.4431070666	-1.3308480994	-0.390038
C	 0.827443399	-0.5354995659	 1.1937042814	 0.054149
C	 0.1528960425	-0.4149042779	 2.599623402	-0.370501
C	 0.579526039	-1.8655845078	 2.8693653759	 0.401477
O	 0.6518608881	-2.5394996804	 3.8553811652	-0.291736
C	 0.9816523033	-2.0778681495	 1.4022336242	-0.370501
H	 0.7386766464	 2.0096909654	 0.0162041721	 0.113555
H	-0.8086934127	 1.7969157992	-0.812884438	 0.113204
H	-0.7385723924	 1.7464201961	 0.953905627	 0.115932
H	-0.942357175	-0.5586088922	 0.0008517121	 0.067663
H	 1.7211719582	 0.0382513178	-1.4033023605	 0.113555
H	 0.891617437	-1.5246612537	-1.4013902	 0.115932
H	 0.1520293082	-0.1308347375	-2.2009341087	 0.113204
H	 1.8111049655	-0.052206945	 1.2033253284	 0.076364
H	 0.5231635559	 0.3376043375	 3.3000974834	 0.127166
H	-0.9389220117	-0.3275806171	 2.5414721137	 0.127178
H	 0.2224262813	-2.6579255363	 0.863546545	 0.127178
H	 1.9568651153	-2.5392422242	 1.2286689085	 0.127165
58.1112	98.7433	165.2098	222.5368	239.9228	294.9068	331.2804	393.3765	407.2944	455.3297	503.1459	656.9176	669.9576	738.2975	872.5318	922.7258	922.7592	932.4771	966.6563	990.939	997.2213	1036.926	1100.575	1141.1447	1148.0509	1191.5378	1192.4806	1232.5135	1240.7748	1268.4565	1312.1947	1350.1514	1390.9908	1402.0481	1423.2431	1426.6102	1448.2284	1486.9079	1491.3882	1504.4968	1510.4859	1893.1477	2984.4957	3025.0113	3028.8243	3039.8481	3041.2281	3046.9179	3090.243	3095.8098	3101.3544	3103.9751	3110.1232	3110.5994
CC(C)C1CC(=O)C1	CC(C)C1CC(=O)C1	
InChI=1S/C7H12O/c1-5(2)6-3-7(8)4-6/h5-6H,3-4H2,1-2H3	InChI=1S/C7H12O/c1-5(2)6-3-7(8)4-6/h5-6H,3-4H2,1-2H3
