15
gdb 49329	2.0797	1.79422	1.09052	2.9673	66.64	-0.2717	-0.0475	0.2242	1076.1862	0.110649	-457.774338	-457.766302	-457.765358	-457.807587	29.134	
O	-0.3685759395	 0.5150704619	 0.7162732468	-0.230615
C	 0.2189566822	 0.9930302729	-0.2179181544	 0.149875
C	 1.3488348202	 1.9914075078	-0.1064681152	-0.413505
C	 1.0853187856	 3.3867082678	-0.7204461503	 0.447712
O	 0.7847408484	 3.8343752957	-1.7775101615	-0.31504
O	 1.3238898352	 4.0434702895	 0.4527247948	-0.25789
C	 1.5687449089	 2.7932502143	 1.1642246462	 0.464833
C	 1.1098214612	 2.608553324	 2.5630275242	-0.323114
C	 2.5956478595	 2.7095667429	 2.2347732648	-0.340469
H	-0.0295109647	 0.7216628634	-1.2661387207	 0.109966
H	 2.2520022656	 1.5476272815	-0.5419749788	 0.146282
H	 0.6496617334	 3.4649766913	 3.0432420274	 0.139011
H	 0.6900761284	 1.6468053141	 2.8282382279	 0.153737
H	 3.2063884018	 1.8147280177	 2.2922116287	 0.129553
H	 3.1055229638	 3.6288221452	 2.5005741002	 0.139666
62.8797	116.5825	165.778	201.8933	256.6616	299.7924	440.875	494.183	519.3051	654.4129	689.3956	760.7886	772.6878	857.7266	877.8221	917.1929	969.0319	985.3596	1045.6656	1052.0643	1058.0252	1080.5064	1114.3441	1154.2944	1185.2102	1262.1773	1293.7897	1395.7733	1428.1407	1453.5464	1508.2136	1826.6932	1941.6644	2910.1697	3057.1314	3136.3618	3150.9826	3224.2571	3247.7529
O=CC1C(=O)OC11CC1	O=C[C@H]1C(=O)OC21CC2	
InChI=1S/C6H6O3/c7-3-4-5(8)9-6(4)1-2-6/h3-4H,1-2H2	InChI=1S/C6H6O3/c7-3-4-5(8)9-6(4)1-2-6/h3-4H,1-2H2/t4-/m0/s1
