18
gdb 43182	2.35891	2.08411	1.29629	3.7415	75.97	-0.2361	-0.0001	0.2359	992.3668	0.14924	-401.924104	-401.916812	-401.915868	-401.955826	28.709	
O	-0.0463639569	 0.0618102873	 0.4928915466	-0.330067
C	-0.1322287737	 1.2073002839	 0.1566741538	 0.387525
C	-1.2606913937	 2.2476953169	 0.0574249978	-0.247954
C	-1.6240314027	 2.7448838859	-1.3860140169	-0.231317
C	-0.6320414145	 3.9412465153	-1.2388060374	-0.300766
C	-0.1017571916	 3.2991603706	 0.0441851837	 0.387909
C	 0.7309201429	 3.8584330879	 1.2158017346	-0.356341
C	 1.7061397093	 2.6593476767	 1.0259652101	-0.180976
N	 0.884293943	 2.1645802405	-0.1323934745	-0.173419
H	-2.0682704112	 2.1795436341	 0.7850460721	 0.097414
H	-1.3720365384	 2.0344216545	-2.1747353734	 0.125735
H	-2.6704039835	 3.032448887	-1.4970896319	 0.114932
H	 0.0995331633	 4.0980961546	-2.0352302513	 0.111669
H	-1.1564147059	 4.8816653976	-1.0437870624	 0.107691
H	 1.1748164152	 4.8350405131	 1.0084840072	 0.118454
H	 0.214647924	 3.9068870774	 2.1772766996	 0.117741
H	 2.7214625471	 2.9261509493	 0.7251695499	 0.120667
H	 1.7544551273	 1.9375213472	 1.8451384225	 0.131101
105.8529	183.2004	189.9739	285.3868	309.7973	438.6393	467.4299	631.5126	720.2571	736.9613	761.8105	765.1908	823.1031	843.934	883.4623	925.6336	938.5371	943.8939	963.0783	1006.3071	1091.4827	1097.9427	1106.9497	1162.1848	1175.7418	1185.288	1205.7356	1213.6899	1234.438	1253.1296	1261.3029	1278.6238	1292.2066	1322.3912	1468.5241	1477.5744	1488.0164	1511.9463	1880.2452	3055.1381	3063.4124	3068.6281	3081.535	3108.1334	3108.5301	3126.1691	3126.4438	3139.5123
O=C1C2CCC22CCN12	O=C1[C@@H]2CC[C@]32CCN13	
InChI=1S/C7H9NO/c9-6-5-1-2-7(5)3-4-8(6)7/h5H,1-4H2	InChI=1S/C7H9NO/c9-6-5-1-2-7(5)3-4-8(6)7/h5H,1-4H2/t5-,7+/m0/s1
