14
gdb 25161	3.17839	1.24846	0.97547	4.5482	67.62	-0.2124	0.0127	0.2251	1144.9662	0.102437	-432.929823	-432.921914	-432.92097	-432.963249	28.467	
O	-0.0651790213	-0.0480255424	-0.3246589317	-0.437907
C	-0.0592222016	 1.1520605518	-0.1268518857	 0.484734
N	-1.1193231372	 2.037547645	-0.0561233084	-0.36886
C	-0.6770960971	 3.3369563979	 0.1821582094	-0.082045
C	 0.6668274512	 3.2983358927	 0.2620570605	-0.109662
N	 1.0564715226	 1.9697962524	 0.0753844224	-0.100394
C	 2.3897064468	 1.4227944814	 0.0591689828	-0.299083
C	 3.1168624734	 1.6456512238	 1.3166550116	 0.266781
N	 3.6988565397	 1.8452848223	 2.2939111734	-0.298365
H	-2.0710917754	 1.7348866113	-0.1630339592	 0.276189
H	-1.356631064	 4.1655051154	 0.2769406182	 0.150707
H	 1.3808265306	 4.0809890592	 0.451093368	 0.155547
H	 2.2715155665	 0.3477778263	-0.1172193916	 0.198895
H	 2.9840837258	 1.837399913	-0.7644986597	 0.163463
44.871	84.131	212.5788	244.5864	274.2761	376.7743	433.9977	454.1001	573.2224	603.1374	659.5151	708.982	757.5754	775.112	810.1274	902.8427	928.0306	974.8421	1084.5942	1101.1891	1188.0986	1196.3735	1294.3877	1342.1099	1380.0851	1400.4653	1449.9862	1471.9306	1637.707	1828.0513	2367.1064	3031.5458	3086.7843	3283.3766	3304.3864	3697.8772
O=C1NC=CN1CC#N	O=c1[nH]ccn1CC#N	
InChI=1S/C5H5N3O/c6-1-3-8-4-2-7-5(8)9/h2,4H,3H2,(H,7,9)	InChI=1S/C5H5N3O/c6-1-3-8-4-2-7-5(8)9/h2,4H,3H2,(H,7,9)
