18
gdb 97303	3.97248	0.92338	0.79161	2.9851	81.14	-0.2311	-0.0158	0.2153	1454.6765	0.146776	-435.25555	-435.246007	-435.245063	-435.290491	33.508	
C	-0.0055394259	 1.4674760417	 0.3558791991	-0.310614
N	 0.0644343576	 0.0369432273	 0.1484821282	-0.21743
C	-1.0312902507	-0.6004611917	 0.0739996206	 0.086442
N	-1.0684981807	-1.9600994872	-0.1118237389	-0.119477
C	-2.1736122315	-2.9039377054	-0.3532643946	-0.199922
C	-1.0937275456	-4.0175098117	-0.5196103824	 0.045056
O	-1.1008701338	-4.6408411066	-1.7772035452	-0.431553
C	-0.0597483241	-2.9045303655	-0.3428830765	 0.360818
N	 1.1952112065	-2.8896078732	-0.4533287577	-0.561223
H	 0.5236447468	 1.7345414667	 1.278218776	 0.129956
H	 0.5053224157	 1.9857499524	-0.4640389682	 0.130138
H	-1.0351759451	 1.8552416879	 0.422723656	 0.09718
H	-2.0271432294	-0.1407467563	 0.1535603136	 0.090944
H	-2.8606418013	-3.0165618931	 0.4898738251	 0.119862
H	-2.7247744959	-2.7151055686	-1.2785713861	 0.132053
H	-1.0970926249	-4.7479737002	 0.3001272013	 0.097284
H	-0.1787080139	-4.767859637	-2.0302906905	 0.303365
H	 1.5529624864	-1.9406584997	-0.3282543897	 0.247122
59.7036	103.2849	129.9179	145.7108	186.6063	211.4314	275.2895	319.3848	353.1351	398.5564	457.1166	518.0382	684.6706	763.0414	836.4422	886.8389	912.785	973.7113	980.555	1025.4591	1041.0587	1136.7626	1138.6585	1145.2413	1178.5931	1181.1016	1212.4272	1262.9309	1293.7803	1351.3997	1386.8242	1398.6729	1435.7481	1452.0947	1477.9727	1504.3693	1509.4189	1728.7656	1799.0941	2969.3345	3013.3091	3020.3828	3052.9022	3056.8099	3073.6694	3111.5187	3475.9286	3796.6748
CN=CN1CC(O)C1=N	CN=CN1C[C@@H](O)[C]1[NH]	
InChI=1S/C5H9N3O/c1-7-3-8-2-4(9)5(8)6/h3-4,6,9H,2H2,1H3	InChI=1S/C5H9N3O/c1-7-3-8-2-4(9)5(8)6/h3-4,6,9H,2H2,1H3/t4-/m1/s1
