16
gdb 60959	4.39285	0.88303	0.76822	2.0564	67.14	-0.2601	-0.0534	0.2067	1392.6614	0.122566	-475.045994	-475.03725	-475.036306	-475.080262	31.445	
O	 0.1963857576	 1.5681691426	 0.015884284	-0.428375
C	 0.0416333627	 0.1786373169	 0.0294751433	 0.040078
C	 0.634168663	-0.4338639867	-1.2236058362	 0.128525
O	 1.1666940516	 0.2457759606	-2.0675791767	-0.255223
C	 0.6959795861	-0.40422576	 1.2950868893	 0.024731
C	-0.0252255555	-0.0713535166	 2.6324770398	-0.39582
C	-0.178768393	-1.6018941677	 2.7995127374	 0.428116
O	-0.5915191375	-2.349539292	 3.6399545779	-0.342763
N	 0.3987498936	-1.8186457771	 1.559725335	-0.341477
H	 0.6481439161	 1.7761359003	-0.8179525677	 0.29899
H	-1.0259616127	-0.1068470968	 0.050413949	 0.100634
H	 0.5540962605	-1.5346806488	-1.3250005354	 0.10183
H	 1.7636619458	-0.1592637957	 1.2989915122	 0.100367
H	 0.5974343565	 0.3965128876	 3.3958185502	 0.142887
H	-0.9603080501	 0.4819787553	 2.5322899196	 0.145433
H	 0.7992473252	-2.6644030718	 1.1790836881	 0.252067
65.6345	72.8085	113.686	188.3726	286.4309	339.2189	375.7628	401.198	417.9099	468.8223	517.1004	562.2262	754.8039	768.7787	810.9707	890.1029	943.3162	976.0874	992.4824	1043.8338	1080.9631	1137.1165	1162.141	1166.7854	1197.3094	1266.945	1275.6836	1299.1876	1371.8274	1375.4976	1389.9064	1438.5191	1460.5195	1811.7686	1905.0236	2933.9714	2953.3562	3051.9329	3095.2606	3153.893	3598.9482	3683.9492
OC(C=O)C1CC(=O)N1	O[C@@H](C=O)[C@H]1CC(=O)N1	
InChI=1S/C5H7NO3/c7-2-4(8)3-1-5(9)6-3/h2-4,8H,1H2,(H,6,9)	InChI=1S/C5H7NO3/c7-2-4(8)3-1-5(9)6-3/h2-4,8H,1H2,(H,6,9)/t3-,4+/m1/s1
