18
gdb 126675	6.3712	0.72431	0.65834	1.784	75.14	-0.2487	0.0006	0.2493	1689.946	0.147411	-439.080239	-439.071491	-439.070547	-439.114761	31.293	
C	-0.0504119564	 1.501107261	 0.0691225229	-0.384516
C	 0.0174799335	-0.0258124696	-0.0240099	-0.19137
C	 0.7341840994	-0.4841066831	-1.2826484989	-0.048594
O	 0.7474849803	-1.9227436426	-1.280483227	-0.271416
C	 1.3411947197	-2.5084579743	-2.3204385773	 0.484635
N	 1.8937537581	-1.8405021822	-3.3095665018	-0.241304
O	 2.3911353523	-2.824245502	-4.1720870118	-0.184581
C	 2.1135337462	-4.0315624043	-3.6599682334	 0.100139
C	 1.4488615346	-3.9221880425	-2.4861487519	-0.370464
H	 0.9508110092	 1.9449582034	 0.0870126807	 0.121513
H	-0.5876041838	 1.9296715361	-0.7838342171	 0.121511
H	-0.5689745837	 1.8133554129	 0.9797030718	 0.120482
H	 0.5380315569	-0.4369503313	 0.848467257	 0.110082
H	-0.9921632926	-0.4521898894	-0.0172986802	 0.110078
H	 0.2285334793	-0.1319296098	-2.18985331	 0.122309
H	 1.766740652	-0.1164004548	-1.3195768137	 0.122288
H	 2.4509346981	-4.8756421359	-4.2420240365	 0.152238
H	 1.087009827	-4.6965985418	-1.8325333229	 0.126971
55.7952	77.6049	111.172	154.6861	235.1995	289.4902	337.1803	343.3504	510.7402	594.1214	723.8608	749.3384	764.9961	789.8752	872.4887	895.4184	908.9643	916.9559	942.8884	1010.7987	1040.2126	1055.7291	1092.2369	1147.9976	1169.3767	1188.8122	1268.4048	1313.8964	1322.3194	1336.3187	1409.2392	1419.3895	1457.9238	1492.1294	1501.7287	1503.9997	1516.2414	1540.4711	1626.2578	3027.0393	3035.292	3041.1975	3059.9482	3081.317	3105.1086	3112.9107	3260.3083	3295.3802
CCCOC1=NOC=C1	CCCOc1nocc1	
InChI=1S/C6H9NO2/c1-2-4-8-6-3-5-9-7-6/h3,5H,2,4H2,1H3	InChI=1S/C6H9NO2/c1-2-4-8-6-3-5-9-7-6/h3,5H,2,4H2,1H3
