20
gdb 35787	3.54292	1.13223	0.95459	4.2999	82.42	-0.2794	0.0411	0.3205	1252.775	0.174117	-366.036744	-366.028785	-366.027841	-366.06929	31.295	
N	 0.0696739994	-1.1894512082	 0.0208993668	-0.326332
C	 0.0241498504	-0.0342583769	 0.0216750057	 0.25911
C	-0.0236032698	 1.4282590761	 0.0360810619	-0.133389
C	-0.7911171134	 1.9570067935	 1.2673508359	-0.211313
C	-1.0196363823	 3.4690452539	 1.1313978633	-0.238395
C	 0.2391217231	 4.2458944903	 0.7868119665	-0.001349
C	 1.5058494367	 4.0942975305	 1.5848409301	-0.286136
C	 1.4340690476	 3.5319647332	 0.1826488702	-0.044832
C	 1.4074271413	 2.019281975	-0.0291372943	-0.224062
H	-0.572742442	 1.7424958231	-0.8618666483	 0.121687
H	-1.7519119741	 1.4428720213	 1.3595738475	 0.119394
H	-0.2213033294	 1.7197849272	 2.173339603	 0.11685
H	-1.7596871051	 3.6337174702	 0.3369110249	 0.10297
H	-1.4663468727	 3.8592969315	 2.0536865821	 0.105418
H	 0.0457528873	 5.2445320637	 0.4056352989	 0.086338
H	 2.1124115283	 4.9759979369	 1.7598388945	 0.112214
H	 1.5173367485	 3.3824200335	 2.405036102	 0.11161
H	 1.9837102233	 4.0804445937	-0.5751948467	 0.089357
H	 2.0244763308	 1.5148939417	 0.7229034146	 0.121617
H	 1.8456261722	 1.7715834497	-1.0000188985	 0.119242
83.2856	151.0344	179.0954	279.9322	331.9523	349.5381	403.3113	491.296	534.0573	554.6593	618.7633	752.9585	782.0596	816.9178	851.3365	892.2829	909.6404	949.6396	972.4805	1010.0137	1036.9254	1061.9908	1076.9721	1098.4067	1128.1548	1131.5417	1147.3241	1197.6109	1235.3397	1248.9547	1281.44	1312.0229	1321.7944	1351.6261	1368.8296	1381.7079	1391.7265	1418.1694	1486.5911	1491.2963	1492.4046	1507.6895	2355.0228	3015.9123	3018.1055	3041.2616	3044.76	3057.7128	3087.954	3093.099	3123.9841	3141.9162	3156.8892	3208.9386
N#CC1CCC2CC2C1	N#C[C@H]1CC[C@H]2C[C@H]2C1	
InChI=1S/C8H11N/c9-5-6-1-2-7-4-8(7)3-6/h6-8H,1-4H2	InChI=1S/C8H11N/c9-5-6-1-2-7-4-8(7)3-6/h6-8H,1-4H2/t6-,7-,8+/m0/s1
