16
gdb 26826	3.44189	1.11953	0.8507	7.0205	82.52	-0.2076	-0.0451	0.1626	1300.0715	0.124338	-434.119214	-434.110277	-434.109333	-434.153131	31.962	
C	-0.0515945905	 1.5369762307	 0.0030869271	-0.50881
C	-0.0184858825	 0.0422532133	-0.018418894	 0.238406
C	 0.0286640714	-0.7922736823	-1.1337859708	 0.252662
N	-0.002160581	-0.5294482894	-2.501419726	-0.610013
N	 0.032989883	-2.0624843344	-0.6438814987	-0.321591
C	-0.0061231086	-1.9762321459	 0.7376019364	 0.228713
C	 0.0135273706	-3.1748066038	 1.5605612998	 0.081907
O	-0.0282954273	-3.2123705481	 2.7688200743	-0.269292
N	-0.0416341038	-0.7088306868	 1.1157340199	-0.31602
H	 0.5139781588	 1.9668069247	-0.8320051433	 0.108576
H	-1.0738898342	 1.9305690209	-0.0540451946	 0.135653
H	 0.3888214975	 1.9005730802	 0.9341260316	 0.15287
H	-0.0190905058	 0.4634576395	-2.6925610325	 0.260078
H	 0.7546347955	-0.9583101196	-3.022613813	 0.254494
H	 0.0040739572	-2.906604583	-1.1931445226	 0.269014
H	 0.0704227399	-4.1130516061	 0.9545736163	 0.043352
71.9599	116.3909	169.8164	187.5883	208.3983	254.24	283.1116	362.9256	414.9899	499.001	529.985	638.5882	671.3988	704.2317	723.8087	775.9251	831.8309	997.817	1009.6437	1044.7277	1059.7247	1102.2287	1188.9593	1239.0043	1321.2979	1386.6352	1410.5954	1460.1877	1478.1254	1494.233	1509.8016	1529.2787	1616.3756	1658.0064	1795.3767	2817.6425	3022.7457	3071.9596	3125.974	3521.1887	3625.1716	3647.2391
CC1=C(N)NC(C=O)=N1	Cc1c(N)[nH]c(C=O)n1	
InChI=1S/C5H7N3O/c1-3-5(6)8-4(2-9)7-3/h2H,6H2,1H3,(H,7,8)	InChI=1S/C5H7N3O/c1-3-5(6)8-4(2-9)7-3/h2H,6H2,1H3,(H,7,8)
