15
gdb 26458	3.83572	1.04189	0.93915	2.2973	67.6	-0.2306	-0.0407	0.19	1220.6682	0.112125	-457.790214	-457.7823	-457.781356	-457.823612	28.864	
O	 0.2124064707	 1.558493264	 0.0342786036	-0.426333
C	 0.0405720892	 0.1690414764	 0.0709996674	-0.063624
C	 0.5935365497	-0.4531335773	-1.2087192181	 0.139432
O	 1.0617489774	 0.2271491254	-2.087493331	-0.256697
C	 0.7257243427	-0.448621891	 1.2603937411	 0.208748
C	 1.667049923	 0.1527753958	 2.0368798279	-0.07911
O	 2.0863343994	-0.6908778454	 3.015638939	-0.141365
C	 1.4047525486	-1.8539788439	 2.8576768472	 0.013989
C	 0.554819739	-1.769658482	 1.8021144595	-0.310998
H	 0.600943296	 1.7463985892	-0.8357408278	 0.296454
H	-1.0342704086	-0.0920196461	 0.1005959057	 0.103858
H	 0.5470494686	-1.557661263	-1.2782218646	 0.105886
H	 2.0977875313	 1.1383474264	 2.0317101386	 0.155433
H	 1.6301729667	-2.6312930393	 3.5687916018	 0.141777
H	-0.1174861635	-2.5406343192	 1.4579676698	 0.11255
52.4061	89.2046	165.0713	231.3104	309.9493	364.4845	424.2661	489.4403	624.036	642.1565	690.2189	741.5972	778.5748	801.2595	825.4387	862.8206	893.8788	994.6756	1027.9534	1055.9489	1101.8396	1144.2219	1205.0456	1240.8365	1255.4979	1260.996	1340.2864	1387.2754	1415.1995	1433.1337	1532.0583	1630.1578	1815.3862	2925.8926	2949.3353	3249.1825	3284.8821	3302.9511	3678.3254
OC(C=O)C1=COC=C1	O[C@@H](C=O)c1cocc1	
InChI=1S/C6H6O3/c7-3-6(8)5-1-2-9-4-5/h1-4,6,8H	InChI=1S/C6H6O3/c7-3-6(8)5-1-2-9-4-5/h1-4,6,8H/t6-/m0/s1
