20
gdb 107972	2.73807	1.35958	1.29756	1.6974	78.99	-0.2308	0.0675	0.2983	1126.9967	0.169424	-403.050264	-403.041535	-403.040591	-403.083514	33.411	
C	-0.0189625061	 1.5600373228	-0.0116372536	-0.374571
C	-0.0644019531	 0.0299554657	 0.0858992471	-0.339365
C	-1.4620074626	-0.5155500703	 0.0859653878	 0.272596
N	-2.5259980021	-0.1431926417	 1.0848744279	-0.379929
C	-3.2291575078	-1.1161900639	 0.1886498275	-0.129225
C	-2.5100739425	-0.5723021041	-1.0708885534	 0.065706
O	-2.0867203964	-1.8766158339	-1.5577414717	-0.360454
C	-1.9669015412	-2.0025654134	-0.1043795633	 0.406719
C	-1.4985147387	-3.2924800334	 0.4856001208	-0.532246
H	 1.0117197699	 1.9241644164	 0.0291453849	 0.111571
H	-0.4614552413	 1.9056870351	-0.9513286837	 0.119556
H	-0.5806657639	 2.0181589539	 0.8070244417	 0.135519
H	 0.4701026388	-0.4251323783	-0.7573290304	 0.116919
H	 0.4506353102	-0.3023728664	 0.9973575503	 0.09901
H	-2.3265921726	-0.5778285433	 1.9903481784	 0.20432
H	-4.2719728298	-1.4110801661	 0.3111902574	 0.085244
H	-2.8192458057	 0.1870596248	-1.787050493	 0.098434
H	-0.4925922079	-3.5375955945	 0.131000572	 0.137482
H	-1.4721635882	-3.2211431653	 1.5782752954	 0.123582
H	-2.1713329392	-4.1102482742	 0.2097464079	 0.139131
84.6742	132.5071	175.3255	203.4526	237.7895	251.7663	284.5757	408.8814	506.6186	557.7922	663.4122	684.176	740.1567	773.443	785.5697	808.0156	844.9576	887.1136	920.3568	948.8099	962.0358	994.2283	1043.0307	1089.1231	1103.4309	1131.4554	1133.7782	1159.4865	1173.4441	1244.0361	1248.6962	1287.1231	1307.5601	1323.7423	1355.3884	1394.796	1410.1932	1421.8008	1472.3569	1475.4931	1490.9336	1495.3653	1507.0756	3016.4087	3035.3181	3041.4767	3056.0123	3106.5749	3109.0666	3111.5581	3112.7201	3120.9617	3140.5614	3393.9177
CCC12NC3C1OC23C	CC[C@@]12N[C@H]3[C@@H]1O[C@@]23C	
InChI=1S/C7H11NO/c1-3-7-5-4(8-7)6(7,2)9-5/h4-5,8H,3H2,1-2H3	InChI=1S/C7H11NO/c1-3-7-5-4(8-7)6(7,2)9-5/h4-5,8H,3H2,1-2H3/t4-,5-,6+,7+/m0/s1
