25
gdb 115704	2.51005	1.00828	0.88458	1.3734	88.66	-0.2598	0.0759	0.3357	1483.9204	0.228143	-389.476994	-389.46637	-389.465426	-389.512553	39.754	
C	 0.8349469568	-1.4210140276	-2.2079276582	-0.39815
C	 0.3082533797	-0.4827480742	-1.1086984576	 0.030573
C	 0.4830720278	 0.9785165038	-1.555629201	-0.391047
C	-1.15265779	-0.713864671	-0.6638805622	-0.018552
C	-2.1991480125	-1.0025671695	-1.7883625618	-0.231051
C	-2.2391708758	-2.4921861045	-1.3521435613	-0.222294
C	-1.5619055704	-2.0826049339	-0.0178965283	 0.052347
C	-0.5448908293	-2.9973034147	 0.6357950101	-0.117637
O	-1.2557131078	-4.1231961416	 1.1395852941	-0.424923
H	 1.8876833177	-1.2010100189	-2.4150629303	 0.109675
H	 0.7695226068	-2.4764786478	-1.9336741943	 0.116432
H	 0.2870396257	-1.2870222425	-3.1467326481	 0.11688
H	 0.9388012477	-0.629445888	-0.2195757247	 0.071094
H	-0.1533076978	 1.202455026	-2.4200149843	 0.115478
H	 0.2144687297	 1.6766280277	-0.7561702422	 0.109121
H	 1.5187561262	 1.1822654161	-1.8472510447	 0.106631
H	-1.4194176475	 0.136271513	-0.0269147072	 0.061477
H	-3.1470417814	-0.4910607078	-1.6006047049	 0.09686
H	-1.9021295383	-0.7905334024	-2.818365661	 0.093714
H	-3.2170800118	-2.9735877843	-1.2861440945	 0.097346
H	-1.5889309194	-3.1212595406	-1.9673373574	 0.096557
H	-2.3366114281	-1.8910699829	 0.7333509974	 0.079638
H	 0.2241287279	-3.3145524538	-0.0836339962	 0.083631
H	-0.0293392352	-2.4584802737	 1.4488708643	 0.082082
H	-0.6184781406	-4.7337655369	 1.5214258142	 0.284119
78.4689	84.3183	119.0523	143.6033	213.4949	238.8619	252.7327	272.4704	285.7426	313.6695	371.2049	416.7912	490.3854	537.4318	710.0401	741.7578	763.817	884.5974	908.034	910.07	928.719	943.0727	965.1385	973.4492	1008.8702	1061.0579	1067.6209	1100.2158	1129.3023	1142.7559	1163.5748	1197.1188	1220.5172	1236.8885	1243.8973	1264.0212	1277.0786	1283.4382	1292.3191	1336.0391	1357.4274	1376.6149	1384.9184	1402.0841	1425.4846	1462.5554	1478.2267	1488.1344	1494.4818	1497.6573	1509.9821	1514.4471	1518.6122	2956.0085	2994.0399	3001.9422	3024.4569	3029.4236	3038.6139	3045.8218	3058.3776	3062.1352	3089.9007	3095.866	3099.0907	3100.5066	3116.7014	3120.1579	3827.7841
CC(C)C1CCC1CO	CC(C)[C@H]1CC[C@H]1CO	
InChI=1S/C8H16O/c1-6(2)8-4-3-7(8)5-9/h6-9H,3-5H2,1-2H3	InChI=1S/C8H16O/c1-6(2)8-4-3-7(8)5-9/h6-9H,3-5H2,1-2H3/t7-,8+/m0/s1
