13
gdb 14818	2.79273	2.00691	1.35332	4.6027	58.37	-0.2785	-0.0515	0.227	874.6571	0.094434	-398.585807	-398.578298	-398.577353	-398.618777	25.361	
O	-0.5953440463	 0.6997891868	-0.5646459369	-0.223844
C	 0.3150552745	 0.7953494171	 0.2148944922	 0.145791
C	 1.389856695	 1.8583874258	 0.1196388155	-0.173687
C	 1.0776385792	 3.0761158075	-0.7645028991	-0.080844
O	 1.10249863	 3.9660280743	 0.3838112183	-0.267393
C	 1.460840984	 2.9059686462	 1.2785417436	-0.007796
C	 0.5153045032	 2.7379558565	 2.3876721925	 0.285203
N	-0.2194004391	 2.5817989148	 3.2658055173	-0.311318
H	 0.4330135717	 0.0871361013	 1.0626198235	 0.106796
H	 2.3499150794	 1.3648677417	-0.0568736623	 0.124799
H	 1.8456222852	 3.3442245368	-1.4959015544	 0.120389
H	 0.094580703	 3.0443079212	-1.2410821867	 0.147871
H	 2.4654033701	 3.0451239602	 1.6962072765	 0.134033
60.0988	69.3314	143.9885	229.0634	250.9517	341.9511	527.9749	566.7373	623.1442	765.2432	802.6886	902.0371	936.9503	978.3459	1030.948	1057.1404	1080.4663	1109.9341	1160.4327	1199.3683	1252.5952	1328.5961	1341.9137	1365.4726	1421.7989	1524.2697	1830.9473	2356.1686	2910.3196	3034.0087	3054.8796	3078.4047	3115.5509
O=CC1COC1C#N	O=C[C@H]1CO[C@H]1C#N	
InChI=1S/C5H5NO2/c6-1-5-4(2-7)3-8-5/h2,4-5H,3H2	InChI=1S/C5H5NO2/c6-1-5-4(2-7)3-8-5/h2,4-5H,3H2/t4-,5-/m0/s1
