16
gdb 20563	4.53535	1.54678	1.19837	2.4899	66.17	-0.2369	0.0197	0.2566	977.3478	0.132271	-379.943524	-379.935959	-379.935015	-379.975708	28.085	
C	 0.2389825697	 1.3593233933	-0.4041509339	-0.402641
C	-0.0067867895	-0.0168866766	 0.2113177207	 0.010811
O	 0.3461326196	-0.0585050112	 1.5966057429	-0.430112
C	-1.4214651354	-0.4969899337	 0.0224446241	 0.359508
C	-2.3955654456	-0.2717702261	-0.9336057947	-0.32725
C	-3.4889600628	-1.066015961	-0.5257065991	-0.003473
N	-3.2295658581	-1.7326678028	 0.5961621408	-0.230284
N	-1.9694322212	-1.3737823549	 0.9015659223	-0.236429
H	 1.2732992285	 1.6639424517	-0.2261728763	 0.128538
H	 0.0616199529	 1.3428540918	-1.4834902428	 0.129836
H	-0.4314795864	 2.1066155406	 0.034626506	 0.118949
H	 0.6813008392	-0.7364003599	-0.2512005529	 0.114795
H	-0.16146817	 0.6293039438	 2.0438080771	 0.282496
H	-2.3267919824	 0.3676915084	-1.7984034582	 0.10107
H	-4.4533836151	-1.1733708197	-1.0004884553	 0.110295
H	-1.5239837534	-1.723911274	 1.7336618893	 0.273892
53.6227	174.922	192.4959	246.6779	333.6571	363.0753	464.35	475.3069	583.4797	632.1876	700.3218	740.5212	805.666	892.7867	893.5765	939.3608	1006.1033	1041.6848	1064.9212	1094.2294	1106.9434	1146.6001	1235.362	1282.1188	1286.1133	1349.9489	1361.2545	1404.227	1414.7762	1437.9134	1489.9097	1491.0414	1492.2384	1593.1385	3025.1041	3037.9531	3109.4626	3127.4838	3242.8605	3270.608	3669.2822	3787.1788
CC(O)C1=CC=NN1	C[C@@H](O)c1ccn[nH]1	
InChI=1S/C5H8N2O/c1-4(8)5-2-3-6-7-5/h2-4,8H,1H3,(H,6,7)	InChI=1S/C5H8N2O/c1-4(8)5-2-3-6-7-5/h2-4,8H,1H3,(H,6,7)/t4-/m1/s1
