15
gdb 49821	2.70823	1.3864	1.01532	2.6684	69.6	-0.2544	-0.0442	0.2102	1127.1093	0.110928	-453.908274	-453.899987	-453.899043	-453.94173	29.954	
N	-0.3880087997	 1.2277075778	-0.890246914	-0.538249
C	-0.1043182192	 0.183067598	-0.2476160456	 0.326253
N	 1.0208206652	-0.3706802054	 0.3851775673	-0.373383
C	 0.403740708	-1.6853122757	 0.6352494133	-0.133097
C	 0.421197261	-2.1196184201	 2.0830046264	 0.148126
O	 0.3535524928	-3.266102922	 2.4419729795	-0.241086
C	-0.925221368	-1.0288290866	 0.1470601718	 0.346918
C	-2.3013078946	-1.1470395619	 0.6316505731	-0.256319
O	-1.8848554235	-1.6621082143	-0.6435708292	-0.244437
H	 0.4172316062	 1.8426637522	-1.0151386782	 0.22092
H	 1.9822718849	-0.2222529613	 0.1143099736	 0.25159
H	 0.7216261126	-2.5017137242	-0.0208845997	 0.120669
H	 0.4731683343	-1.2701776497	 2.8011291515	 0.08682
H	-2.5447783609	-1.9007666537	 1.3781775006	 0.139039
H	-2.9491602291	-0.2745418632	 0.5895078298	 0.146236
67.4947	91.4091	182.1178	227.7616	252.8177	282.2264	397.006	444.5379	457.6189	525.5104	621.0483	698.6053	784.8335	836.7749	859.9624	920.5884	949.6342	1010.5539	1036.6969	1057.4313	1104.8375	1124.2213	1133.0684	1165.2774	1179.0221	1273.0799	1322.2155	1340.5579	1406.3514	1438.0572	1528.0525	1812.2374	1830.7901	2884.3029	3071.9082	3096.3262	3195.5117	3473.5414	3607.6967
N=C1NC(C=O)C11CO1	[NH][C]1N[C@@H](C=O)[C@]21CO2	
InChI=1S/C5H6N2O2/c6-4-5(2-9-5)3(1-8)7-4/h1,3H,2H2,(H2,6,7)	InChI=1S/C5H6N2O2/c6-4-5(2-9-5)3(1-8)7-4/h1,3H,2H2,(H2,6,7)/t3-,5-/m0/s1
