14
gdb 128195	1.69896	1.01175	0.65425	4.4737	66.3	-0.2485	-0.0458	0.2027	1606.8493	0.094427	-470.082415	-470.070349	-470.069405	-470.126516	35.32	
C	 0.0233933795	 1.462001803	 0.1005475627	-0.332406
N	 0.0217467729	 0.0141499462	 0.1532350572	-0.334449
C	 0.2991524487	-0.7555893105	-0.9426973668	 0.48339
C	 0.2419047468	-2.2115126764	-0.6871028504	-0.571035
C	 0.4901571467	-3.0418331185	-1.6850674728	 0.545135
O	 0.7028427242	-3.7799384244	-2.547870485	-0.192789
N	 2.9022369616	-1.2642363083	-3.8143708539	 0.000514
N	 3.0426543621	-0.323679064	-4.3642931409	-0.00624
O	 0.5697407144	-0.2879828152	-2.0392372058	-0.405555
H	 0.7601893019	 1.8859079006	 0.7921675981	 0.125799
H	 0.2858191786	 1.7480417685	-0.9183704007	 0.175728
H	-0.9631818352	 1.8726731498	 0.3437847323	 0.125841
H	-0.1991839379	-0.4386651028	 1.0237754966	 0.245527
H	 0.0054777958	-2.6491023379	 0.2746858495	 0.140539
10.1452	14.0237	30.7664	50.3653	58.1228	78.4635	93.1166	121.387	153.0538	292.5238	382.3121	407.872	503.256	539.6719	578.0624	752.7232	757.0215	944.1619	1054.9557	1124.7878	1154.5381	1169.7528	1232.9009	1414.0973	1440.2947	1493.7425	1499.7355	1562.1028	1741.3474	2245.2737	2432.7441	3025.3893	3076.3168	3155.9481	3203.9455	3653.8871	10.1496	14.0247	30.7666	50.3653	58.1218	78.4628	93.1155	121.3865	153.0536	292.5238	382.3132	407.872	503.2557	539.6722	578.0619	752.723	757.0211	944.1616	1054.9558	1124.7872	1154.5381	1169.7526	1232.9007	1414.0971	1440.2949	1493.7425	1499.7356	1562.1025	1741.3475	2245.2723	2432.744	3025.3894	3076.3169	3155.9481	3203.9455	3653.8874
CNC1=CC(=O)N=NO1	CNC(=O)[CH][C][O].N#N	
InChI=1S/C4H5N3O2/c1-5-4-2-3(8)6-7-9-4/h2,5H,1H3	InChI=1S/C4H5NO2.N2/c1-5-4(7)2-3-6;1-2/h2H,1H3,(H,5,7);
