16
gdb 133636	4.29891	0.62322	0.60874	1.7357	63.82	-0.2684	0.0461	0.3146	1747.5981	0.11876	-532.235845	-532.226415	-532.225471	-532.271454	33.322	
F	 0.0030136087	 0.0660476215	-0.0890494408	-0.084273
C	-0.0373839553	 1.4065523266	-0.0055600811	 0.28359
F	 1.2285261673	 1.8487640543	-0.0920771026	-0.084269
F	-0.6927655949	 1.8552491639	-1.0878615701	-0.079368
C	-0.7071596151	 1.869184147	 1.2714079098	-0.337343
C	 0.0123713466	 1.3763435884	 2.5299266043	-0.185714
C	-0.6869400445	 1.8600862025	 3.815235207	-0.363474
C	-0.0177306318	 1.4018666066	 5.0261812763	 0.288246
C	 0.551326411	 1.0117637326	 6.0100489481	-0.424114
H	-0.7405921933	 2.9632438356	 1.2397366548	 0.130893
H	-1.7408121571	 1.5089312979	 1.2420544161	 0.130895
H	 0.0517072895	 0.2830410949	 2.5272428026	 0.130388
H	 1.0476059504	 1.730084875	 2.5245006568	 0.130391
H	-0.7342546264	 2.9571846838	 3.8163112266	 0.133302
H	-1.7285925912	 1.5124902372	 3.8190598361	 0.133312
H	 1.0467320161	 0.6714765922	 6.8852882561	 0.197537
51.4256	77.4617	88.3624	131.4308	200.2334	279.2269	347.5736	360.5558	375.2626	511.6505	538.2284	576.8556	621.2737	642.3499	653.4078	747.1911	844.6532	847.8819	964.9133	1032.6063	1035.8733	1061.2179	1138.1406	1177.1201	1243.6924	1267.7204	1288.7937	1310.415	1340.4533	1372.1334	1409.1794	1474.253	1477.8158	1506.7564	2241.9941	3015.264	3044.2796	3052.1669	3065.1457	3092.3584	3115.7382	3506.7495
FC(F)(F)CCCC#C	FC(F)(F)CCCC#C	
InChI=1S/C6H7F3/c1-2-3-4-5-6(7,8)9/h1H,3-5H2	InChI=1S/C6H7F3/c1-2-3-4-5-6(7,8)9/h1H,3-5H2
