23
gdb 116337	2.78853	1.21955	0.94184	1.1663	84.72	-0.2588	0.0786	0.3375	1313.5657	0.208208	-388.291411	-388.282603	-388.281659	-388.324769	34.674	
O	-0.059685129	 1.4512727635	 0.0687030298	-0.425963
C	 0.0294328347	 0.0331118928	 0.0137799975	-0.08831
C	-1.3870960474	-0.5366356562	-0.0457567068	 0.023738
C	-2.156307312	-0.0576715689	-1.2894875234	-0.204509
C	-3.5313677668	-0.7275922021	-1.3703698275	-0.200024
C	-3.4132341192	-2.246899454	-1.5744996469	-0.215542
C	-2.3860662668	-2.9027056919	-0.6490739798	-0.033967
C	-0.9295529986	-2.9480947421	-1.0484717201	-0.289746
C	-1.3684729324	-2.0527443591	 0.0856187966	-0.022442
H	 0.8321254958	 1.8095824884	 0.055091328	 0.285351
H	 0.5959674264	-0.2967687791	-0.8718605684	 0.083427
H	 0.548943902	-0.3642969021	 0.901098505	 0.078352
H	-1.9198375163	-0.1399709292	 0.83104145	 0.077382
H	-2.249964957	 1.0302700328	-1.2449264784	 0.112097
H	-1.5794575691	-0.2800546275	-2.1988996291	 0.085149
H	-4.0783131621	-0.5238173912	-0.4399476498	 0.092967
H	-4.1243623519	-0.2916037573	-2.1820794778	 0.087065
H	-4.3913141122	-2.7135232004	-1.4166730781	 0.093778
H	-3.148372487	-2.4492076534	-2.6204281454	 0.095829
H	-2.7480307772	-3.7715298488	-0.1079106354	 0.078853
H	-0.3482334381	-3.8323631869	-0.8097228451	 0.103172
H	-0.6626519378	-2.490260206	-1.9963436357	 0.106809
H	-1.0936973381	-2.3997113512	 1.078843071	 0.076535
89.1792	120.4238	170.7701	240.4441	270.0435	273.4459	356.0533	382.414	427.599	472.8391	557.0517	629.7414	747.3971	776.4315	834.0244	855.9123	866.5822	909.9873	934.8564	948.0681	998.0794	1020.9349	1058.8786	1066.6662	1072.0432	1089.0743	1107.0367	1126.4488	1139.4048	1165.4691	1197.5229	1218.6783	1238.4605	1246.2578	1272.8371	1291.2414	1332.707	1343.3551	1368.3976	1372.2972	1381.8641	1394.4096	1418.7645	1456.2004	1481.98	1493.2492	1495.2349	1508.1248	1518.3625	2960.788	2984.5432	3000.0788	3010.2406	3016.5753	3020.3517	3060.9854	3068.6028	3095.0628	3123.7159	3126.362	3147.676	3206.1732	3834.3849
OCC1CCCC2CC12	OC[C@H]1CCC[C@H]2C[C@@H]12	
InChI=1S/C8H14O/c9-5-7-3-1-2-6-4-8(6)7/h6-9H,1-5H2	InChI=1S/C8H14O/c9-5-7-3-1-2-6-4-8(6)7/h6-9H,1-5H2/t6-,7+,8+/m0/s1
