15
gdb 60688	1.96886	1.60846	1.16853	1.2313	63.01	-0.2641	-0.0708	0.1934	1078.5492	0.108558	-494.881145	-494.872213	-494.871268	-494.915289	31.468	
O	-0.2343033345	 1.462198216	-0.1179263074	-0.464023
C	-0.1545243437	 0.0719309718	-0.1691087162	 0.145058
C	 0.7168651657	-0.4395749222	 0.9853777241	 0.135294
O	 1.2611914169	 0.3328771195	 1.7303304925	-0.254199
C	-1.5527837386	-0.5417282643	-0.0117754513	 0.109492
O	-1.776303177	-1.7168214633	-0.1368064833	-0.247944
C	 0.4631363304	-0.4474865837	-1.4777877301	 0.042994
C	 0.6268273926	 0.4432404246	-2.6298845788	-0.169774
O	 1.740409614	 0.0782451011	-1.8036305837	-0.238006
H	 0.3906309732	 1.7402610218	 0.5726227293	 0.304389
H	 0.8105904056	-1.5367066904	 1.0753039095	 0.130841
H	-2.330095085	 0.2105499498	 0.2363410594	 0.117394
H	 0.3359458994	-1.518478419	-1.6280771583	 0.122208
H	 0.6333061578	 0.0195354652	-3.6323008766	 0.124299
H	 0.3094402131	 1.4775878731	-2.537846779	 0.141978
75.7789	103.5824	109.5914	190.7519	226.553	262.3947	316.1149	340.0283	425.8171	448.9381	517.2548	635.959	650.848	820.2588	848.5162	878.2126	919.1992	982.6514	1013.596	1064.116	1113.8795	1124.221	1167.3192	1177.1599	1224.9109	1284.8318	1366.5407	1374.1712	1403.3958	1412.8087	1512.7619	1800.5001	1834.4272	2928.3144	2983.2239	3103.252	3132.3939	3207.4653	3669.8501
OC(C=O)(C=O)C1CO1	OC(C=O)(C=O)[C@H]1CO1	
InChI=1S/C5H6O4/c6-2-5(8,3-7)4-1-9-4/h2-4,8H,1H2	InChI=1S/C5H6O4/c6-2-5(8,3-7)4-1-9-4/h2-4,8H,1H2/t4-/m1/s1
