18
gdb 113030	4.18303	0.94282	0.87114	6.24	78.63	-0.2267	0.007	0.2337	1365.7913	0.148743	-398.150676	-398.141696	-398.140752	-398.185795	31.585	
C	-0.0879368798	 1.5483934436	-0.1226372688	-0.382222
C	 0.1040993968	 0.0307542994	-0.0040269805	-0.158627
N	 0.7078147921	-0.596150529	-1.1630069679	-0.037883
C	 0.0709968842	-0.6608604393	-2.4764856046	-0.213742
C	 1.2340042028	-1.261268752	-3.3397165779	-0.121802
N	 2.4554329407	-1.1901482335	-2.5000757865	-0.281102
C	 2.0428394663	-0.8267046951	-1.3410750222	 0.079809
C	 0.9638027833	-2.6533029701	-3.7299296433	 0.290708
N	 0.7247208653	-3.7408652876	-4.0384229767	-0.324933
H	 0.8695334809	 2.0538658815	-0.2817987711	 0.128952
H	-0.7525416525	 1.8069664691	-0.9523761219	 0.127839
H	-0.5356704291	 1.9421117027	 0.7949710461	 0.12736
H	 0.7429249427	-0.1972428457	 0.8557528403	 0.123525
H	-0.8614997934	-0.4525389897	 0.1904431976	 0.119422
H	-0.8224161296	-1.2912007834	-2.4634511148	 0.137387
H	-0.2117622532	 0.3359049364	-2.8376745956	 0.117155
H	 1.3826366892	-0.6875145284	-4.259706921	 0.13462
H	 2.7106083335	-0.7119427091	-0.4914146213	 0.133534
40.7024	53.5317	100.8722	169.4637	228.0086	250.0965	337.7902	391.2245	454.0879	514.0363	590.7207	650.0539	787.9889	797.3691	823.1023	915.1761	957.0775	964.8622	979.4223	1012.7196	1073.8692	1087.2957	1116.0851	1208.9388	1246.8914	1255.9499	1264.0796	1314.2996	1336.7456	1356.5973	1393.9737	1411.4771	1448.2169	1482.5885	1494.5155	1503.8947	1524.0674	1669.6304	2358.8142	3017.3234	3028.5695	3041.5595	3060.8774	3075.1909	3085.4932	3114.9047	3118.004	3182.3059
CCN1CC(N=C1)C#N	CCN1C[C@@H]([N][CH]1)C#N	
InChI=1S/C6H9N3/c1-2-9-4-6(3-7)8-5-9/h5-6H,2,4H2,1H3	InChI=1S/C6H9N3/c1-2-9-4-6(3-7)8-5-9/h5-6H,2,4H2,1H3/t6-/m0/s1
