18
gdb 18987	3.70169	2.15758	2.03982	1.6764	69.55	-0.2399	0.0665	0.3064	767.5698	0.156185	-347.74423	-347.737987	-347.737043	-347.774709	25.304	
C	-0.0868119053	 1.3613359052	 0.5015827289	-0.237846
C	 1.2233508947	 1.6837647986	-0.2859662908	-0.230142
C	 1.3798819116	 0.1800624182	-0.6417994276	-0.040387
C	 0.0206237824	-0.1293740311	 0.0795859746	-0.025837
C	-0.5949228725	-0.5903438581	-1.2837502598	-0.089049
C	-1.1701388255	 0.4681234592	-2.2414304821	-0.090599
O	 0.1420039399	 0.7599528685	-2.7880322107	-0.289658
C	 0.7491063647	-0.2806465584	-1.9921346894	 0.113019
H	 0.0245260377	 1.4893302534	 1.5814113108	 0.099172
H	-0.9885170573	 1.8988137682	 0.1973413268	 0.098151
H	 1.0965439021	 2.328824078	-1.1566229529	 0.120654
H	 2.0295943125	 2.0795032181	 0.3351246579	 0.095827
H	 2.31700627	-0.3083305628	-0.3695868593	 0.060065
H	-0.0629133374	-0.8709107612	 0.8754962242	 0.064973
H	-1.0698776033	-1.5709795687	-1.2880157376	 0.074291
H	-1.8320028706	 0.0540826389	-3.012806377	 0.101118
H	-1.6466713657	 1.3538265958	-1.8069406988	 0.105025
H	 1.3190388018	-0.9871660918	-2.6028915571	 0.071222
72.6321	264.4834	285.0821	421.1008	511.4469	641.6527	695.919	720.3271	780.5975	822.8095	844.9248	878.0118	884.9808	930.4359	947.6022	957.8345	993.2439	1009.4956	1035.19	1084.4578	1087.7238	1124.1725	1129.7628	1159.9967	1189.2349	1212.3214	1223.4043	1237.4694	1261.1947	1268.6367	1290.6219	1307.802	1314.3916	1327.3353	1362.8618	1468.8142	1488.9157	1524.974	3014.8932	3056.5297	3057.4755	3063.8225	3072.8625	3084.7918	3095.6876	3101.9975	3113.8643	3133.6762
C1CC2C1C1COC21	C1C[C@H]2[C@@H]1[C@H]1CO[C@@H]21	
InChI=1S/C7H10O/c1-2-5-4(1)6-3-8-7(5)6/h4-7H,1-3H2	InChI=1S/C7H10O/c1-2-5-4(1)6-3-8-7(5)6/h4-7H,1-3H2/t4-,5+,6-,7+/m1/s1
