20
gdb 95549	2.42395	1.7517	1.1351	2.2704	81.59	-0.238	0.0098	0.2479	1114.2315	0.172472	-403.120888	-403.112719	-403.111775	-403.153688	31.941	
C	 0.575002289	 1.5408646402	 0.0176547007	-0.396557
C	 0.1473495306	 0.0752480951	-0.0425896077	 0.108694
O	 1.0400859867	-0.5681449195	-0.9268955996	-0.235917
C	 0.5993269404	-1.7818462338	-1.4940855458	-0.137754
C	 0.7104450419	-3.0007850992	-0.6164803255	-0.073058
C	 0.6362406329	-3.0611807489	 0.7122913443	-0.025657
C	 0.3793874988	-1.9626282469	 1.6769660916	-0.08432
N	 1.4219976661	-0.928006041	 1.9277776843	-0.32322
C	 0.1337651276	-0.531102412	 1.3542683868	-0.031289
H	 1.5905384372	 1.6079833258	 0.4171733787	 0.139962
H	 0.5624831692	 1.979430555	-0.9830575076	 0.11879
H	-0.0956234824	 2.1180587196	 0.6617224871	 0.106051
H	-0.8800341927	 0.0095475929	-0.4448045855	 0.060957
H	-0.4400766447	-1.6781359061	-1.8583705536	 0.096059
H	 1.223703068	-1.9340035766	-2.3824147075	 0.11322
H	 0.8716429095	-3.929525751	-1.1616159132	 0.088668
H	 0.751893844	-4.0383327946	 1.1776998597	 0.086362
H	-0.138866339	-2.3161166603	 2.5682102397	 0.082722
H	 1.4543887907	-0.7062475391	 2.9197790966	 0.228539
H	-0.5738803537	-0.0218839795	 2.0112501667	 0.077749
54.7038	204.8344	220.4329	231.2091	288.2732	304.4893	386.4958	413.7442	481.8592	600.1526	671.2653	709.8744	748.2979	787.4118	828.6828	869.9791	897.1797	924.5031	969.9344	988.7657	1006.8017	1027.8811	1042.4494	1095.489	1120.7998	1158.9603	1161.7571	1195.7257	1234.0307	1246.2398	1293.1733	1297.9394	1342.5471	1382.6917	1400.0597	1408.6553	1420.4865	1437.776	1475.2158	1480.3247	1485.6133	1500.8578	1738.4643	2928.5526	2937.6328	3044.6665	3050.0407	3083.2739	3101.2803	3119.1291	3129.0745	3130.4801	3152.7607	3493.4237
CC1OCC=CC2NC12	C[C@H]1OCC=C[C@H]2N[C@@H]12	
InChI=1S/C7H11NO/c1-5-7-6(8-7)3-2-4-9-5/h2-3,5-8H,4H2,1H3	InChI=1S/C7H11NO/c1-5-7-6(8-7)3-2-4-9-5/h2-3,5-8H,4H2,1H3/t5-,6-,7+/m1/s1
