18
gdb 22379	2.70559	1.20197	0.99985	2.1389	77.58	-0.2205	0.0153	0.2357	1230.3512	0.145063	-439.009602	-439.000302	-438.999358	-439.043455	34.767	
C	-0.0196261761	 1.5515470389	 0.0296311031	-0.419128
C	 0.1181393041	 0.045964803	 0.1289363268	-0.093197
C	 1.3917826942	-0.7428139507	-0.2152365424	-0.258608
C	 2.5767412475	-0.0601661136	 0.3564908116	 0.462547
C	 2.0222545589	-0.037187626	 1.7772101095	-0.389362
C	 0.7661228951	-0.7225557496	 1.2257852037	 0.408469
O	 0.1626039092	-1.7110107705	 1.9722679722	-0.45571
N	 3.6876623541	 0.2352950376	-0.1789060089	-0.272694
O	 4.5642417561	 0.7988880044	 0.7744610708	-0.397208
H	 0.8846798872	 2.0640800737	 0.3667754134	 0.135817
H	-0.1999678563	 1.8522160177	-1.0076971837	 0.124737
H	-0.8585657826	 1.9124089457	 0.6348541258	 0.117565
H	-0.7489237837	-0.4920090118	-0.2610456173	 0.083012
H	 1.3981042008	-1.4899270282	-0.9987781397	 0.102794
H	 2.5932355591	-0.7122703794	 2.4212635444	 0.140427
H	 1.907530165	 0.9262066945	 2.2820153368	 0.116394
H	-0.75714243	-1.7916705733	 1.7019589185	 0.289705
H	 5.3588012074	 0.9472757577	 0.2512627654	 0.304438
82.8677	142.7308	167.0563	195.9284	219.7703	227.6754	302.3182	366.0726	390.259	455.5773	488.1854	502.8934	586.8763	641.4378	710.4257	757.0325	835.1423	902.5268	917.5889	972.573	991.1573	1004.3682	1027.3669	1097.9845	1112.2907	1127.9598	1160.9584	1196.2064	1224.2499	1252.2355	1325.2402	1391.5156	1409.9581	1416.7493	1454.302	1481.4066	1497.1433	1502.6365	1783.6786	3034.8919	3058.2242	3084.5661	3095.5819	3108.8304	3121.9965	3198.2215	3822.1777	3828.6416
CC1C2C(CC12O)=NO	C[C@H]1[C@H]2C(=NO)C[C@@]12O	
InChI=1S/C6H9NO2/c1-3-5-4(7-9)2-6(3,5)8/h3,5,8-9H,2H2,1H3	InChI=1S/C6H9NO2/c1-3-5-4(7-9)2-6(3,5)8/h3,5,8-9H,2H2,1H3/t3-,5-,6+/m0/s1
