17
gdb 54124	3.41664	1.33114	1.12347	12.5643	70.35	-0.1819	0.0005	0.1824	1082.1291	0.137736	-455.080937	-455.073102	-455.072158	-455.113323	30.177	
N	-0.3518455295	 1.3776778834	-0.1121924997	-0.606522
C	-0.052360034	-0.0276304239	 0.0565576598	 0.16736
C	-0.3585648464	-0.7444017002	 1.3465495616	-0.100897
C	-1.5410090674	-0.0938735879	 2.0642663367	-0.215147
N	-2.3206254538	-0.0848828631	 0.7509477145	-0.269131
H	-3.2734533987	-0.4359155388	 0.7843724701	 0.296778
H	-2.2165586318	 0.852921988	 0.2986000499	 0.293497
C	-1.2367334041	-0.9511797702	 0.130534133	-0.054279
C	 1.0962660324	-0.6344842042	-0.836886519	 0.33276
O	 1.553639314	 0.192749904	-1.6402264904	-0.473538
O	 1.3064811309	-1.837177593	-0.6186364719	-0.476227
H	 0.1714171318	 1.923566764	 0.5685944814	 0.238617
H	 0.1020325656	 1.582751993	-1.0118321918	 0.258743
H	 0.3357482956	-1.4507650223	 1.7760395244	 0.148815
H	-2.0493056794	-0.7551351273	 2.7674140992	 0.154757
H	-1.4373599535	 0.909387274	 2.4848086407	 0.147995
H	-1.4838313616	-1.7874810954	-0.5054939183	 0.15642
90.0537	163.388	183.8291	254.0817	322.5255	349.556	404.9435	478.9855	490.5808	672.1801	733.241	751.1749	774.3298	819.6217	852.5722	869.4606	901.0853	920.6629	963.5095	986.2026	1000.2803	1051.4807	1092.0722	1106.0199	1170.9066	1193.9387	1214.5262	1244.1017	1280.2551	1318.3559	1330.4372	1383.2438	1414.0554	1486.1864	1522.4465	1664.8866	1800.8806	3072.6791	3079.6777	3142.3324	3242.191	3249.9375	3363.2678	3512.2652	3540.7947
NC1(C2C[NH2+]C12)C([O-])=O	N[C@]1([C@H]2C[NH2][C@@H]12)C(=O)[O]	
InChI=1S/C5H8N2O2/c6-5(4(8)9)2-1-7-3(2)5/h2-3,7H,1,6H2,(H,8,9)	InChI=1S/C5H8N2O2/c6-5(4(8)9)2-1-7-3(2)5/h2-3H,1,6-7H2/t2-,3+,5-/m0/s1
