15
gdb 31465	4.40038	0.96385	0.79467	6.2087	76.14	-0.2115	-0.0035	0.208	1354.4718	0.113911	-416.853394	-416.845159	-416.844215	-416.886541	29.941	
C	 0.226567757	 0.6183928913	 0.6907421911	-0.251486
O	 0.2294534858	 0.8788463403	-0.7068044629	-0.259904
C	 0.6801803486	-0.1297667166	-1.4725814289	 0.454262
C	 1.1532884153	-1.390387961	-1.2102489862	-0.424336
C	 1.4737218773	-1.967597608	-2.4892840649	 0.174791
C	 1.1818588845	-1.0356218089	-3.46294491	-0.167337
N	 0.6991154023	 0.0786354603	-2.8286640547	-0.328852
C	 1.9965840719	-3.2631148583	-2.7169625838	 0.195626
N	 2.424633992	-4.3260976854	-2.8905927852	-0.353928
H	-0.4189406575	-0.2358155279	 0.927696797	 0.135681
H	 1.241607802	 0.4149589026	 1.0524420223	 0.135662
H	-0.1617290478	 1.5173635801	 1.1697439389	 0.143491
H	 1.2675557956	-1.8639834956	-0.2508765878	 0.122089
H	 1.280058556	-1.0841528708	-4.5337268369	 0.14859
H	 0.3988182471	 0.9322605078	-3.2677750979	 0.275652
91.1702	131.5262	136.9428	200.982	246.1916	317.9999	471.89	472.7756	519.3928	534.1148	585.5471	647.0708	677.6453	714.7612	716.8529	780.8122	982.9414	997.4958	1078.9163	1130.8753	1179.0551	1182.4286	1230.9688	1257.1977	1333.6596	1410.9138	1460.8677	1474.8673	1483.9501	1507.4861	1564.2847	1640.0102	2341.8627	3016.9828	3080.588	3150.339	3283.9965	3286.8834	3678.8209
COC1=CC(=CN1)C#N	COc1cc(c[nH]1)C#N	
InChI=1S/C6H6N2O/c1-9-6-2-5(3-7)4-8-6/h2,4,8H,1H3	InChI=1S/C6H6N2O/c1-9-6-2-5(3-7)4-8-6/h2,4,8H,1H3
