21
gdb 114448	4.55952	1.14631	1.07855	1.3492	82.36	-0.2346	0.0987	0.3333	1215.2781	0.184181	-387.054577	-387.046897	-387.045953	-387.086772	30.842	
C	-0.0628167515	 1.5754668709	-0.0922755815	-0.380987
C	-0.002688674	 0.0584318589	 0.1061752733	-0.186767
C	-1.380595025	-0.5955601339	 0.080495621	 0.113272
O	-2.0393406496	-0.3667711083	-1.1890177548	-0.297526
C	-2.3113738833	-1.6785695215	-1.6349054304	 0.150651
C	-2.7864657388	-2.5743668692	-0.4522170625	-0.093954
C	-2.1045562233	-3.7879803753	-1.1213928854	-0.258512
C	-1.1109631969	-2.6254734456	-1.3404612261	-0.085442
C	-1.3992165602	-2.1218647157	 0.1184868582	-0.057227
H	 0.9389018757	 2.01562008	-0.0891377687	 0.10767
H	-0.5417088401	 1.8155491137	-1.0452076749	 0.135969
H	-0.6418398412	 2.0559599162	 0.7044236272	 0.110768
H	 0.6195292288	-0.3961944122	-0.6740653396	 0.097184
H	 0.4717873625	-0.1782107509	 1.0677622187	 0.091002
H	-2.0072964061	-0.1653298949	 0.8761483377	 0.07074
H	-2.8204021534	-1.6691316063	-2.598387118	 0.082948
H	-3.747364253	-2.5321673556	 0.0623776087	 0.071064
H	-1.7750759008	-4.5873302598	-0.4531272883	 0.095801
H	-2.5886180104	-4.1994718597	-2.0122124253	 0.091928
H	-0.1467286395	-2.6477826321	-1.8492381683	 0.072066
H	-0.9628925599	-2.6376450587	 0.974697659	 0.069353
93.0285	134.445	189.2663	258.388	339.2488	416.6499	451.31	495.3719	688.8957	720.7413	771.1406	793.6753	810.8862	876.9393	894.1173	897.4066	915.3718	942.1936	979.0727	985.9183	992.9762	1034.9562	1052.7844	1075.2762	1086.9018	1112.3708	1121.4697	1123.8929	1147.3375	1174.6581	1182.6106	1231.3162	1240.7919	1261.8234	1278.1333	1289.7369	1306.6308	1330.1823	1378.6798	1405.4667	1409.8505	1475.8514	1497.7998	1510.1396	1520.9981	2990.5694	3020.8137	3035.7727	3049.2839	3061.3713	3100.9393	3102.9581	3105.4797	3109.6531	3116.689	3122.2113	3133.7267
CCC1OC2C3CC2C13	CC[C@H]1O[C@@H]2[C@H]3C[C@@H]2[C@@H]13	
InChI=1S/C8H12O/c1-2-6-7-4-3-5(7)8(4)9-6/h4-8H,2-3H2,1H3	InChI=1S/C8H12O/c1-2-6-7-4-3-5(7)8(4)9-6/h4-8H,2-3H2,1H3/t4-,5+,6-,7-,8+/m1/s1
