16
gdb 125831	3.04458	1.31671	0.98877	3.1675	71.35	-0.255	-0.044	0.211	1172.9052	0.124891	-434.007373	-433.999372	-433.998428	-434.040819	28.82	
C	 0.1532605803	 1.5307645765	-0.1439220458	-0.503542
C	 0.057145554	 0.0490570476	 0.0027552437	 0.252546
N	 0.0710070545	-0.7607168913	-1.0216792625	-0.132435
O	-0.03327293	-2.0241817819	-0.5131297465	-0.15721
N	-0.1094706915	-1.9999818656	 0.8507973272	-0.174781
C	-0.062986861	-0.740207107	 1.193866003	 0.295164
C	-0.1321483844	-0.2959295105	 2.598929369	-0.123127
C	-1.2580715438	-0.7665806313	 3.4647991924	-0.224691
N	 0.1015520887	-1.2586560732	 3.684875709	-0.307969
H	 1.0227086752	 1.9224593363	 0.3942133424	 0.147865
H	 0.247845414	 1.7962972425	-1.197948724	 0.160232
H	-0.7353344481	 2.0241469016	 0.2628990068	 0.147425
H	 0.2814823379	 0.6925858462	 2.7797120502	 0.102443
H	-1.6444155903	-0.1096537692	 4.2390139865	 0.128205
H	-1.9872648009	-1.4263163443	 3.0034586304	 0.133151
H	 0.2031813655	-2.1880484361	 3.281301718	 0.256723
49.4709	127.3192	157.2289	179.6346	270.7448	282.9691	440.9083	478.2026	624.7414	639.764	729.7217	753.893	834.0921	890.9034	931.2378	940.7517	972.1284	998.7341	1024.642	1070.3597	1076.3533	1113.1896	1136.5148	1183.7939	1212.7471	1271.0861	1310.2811	1373.2638	1419.6829	1449.2922	1482.4542	1486.4917	1503.8124	1529.2892	1624.6108	3044.2169	3100.2156	3112.607	3143.6972	3146.0373	3205.7161	3497.8183
CC1=NON=C1C1CN1	Cc1nonc1[C@H]1CN1	
InChI=1S/C5H7N3O/c1-3-5(4-2-6-4)8-9-7-3/h4,6H,2H2,1H3	InChI=1S/C5H7N3O/c1-3-5(4-2-6-4)8-9-7-3/h4,6H,2H2,1H3/t4-/m1/s1
