16
gdb 28161	5.20099	1.26319	1.02283	5.0885	79.01	-0.18	0.0364	0.2164	1124.4214	0.126866	-396.977191	-396.969302	-396.968357	-397.009489	29.479	
C	-0.0154842591	 1.4768272833	 0.0609832235	-0.503374
C	-0.0019371827	-0.0116540618	-0.0404928775	 0.328042
C	-0.0430267729	-0.8337904963	-1.1443193521	-0.383455
C	-0.0019123521	-2.1796342188	-0.6585389743	 0.288903
C	 0.0616861487	-2.1018121022	 0.7199405276	 0.394026
N	 0.1009348558	-3.3840381987	 1.1986592303	-0.413677
C	 0.0579944838	-4.1851040785	 0.0589126271	-0.017771
N	-0.0030845812	-3.504106341	-1.058638367	-0.344236
N	 0.062938836	-0.7987660779	 1.1224513497	-0.46787
H	 0.8909481048	 1.8717083263	 0.5387382411	 0.122645
H	-0.0759065333	 1.912449822	-0.938813667	 0.140667
H	-0.8743211547	 1.8486595173	 0.6353127279	 0.122351
H	-0.0957156708	-0.4925695521	-2.1665995178	 0.094821
H	 0.1497336072	-3.7045467345	 2.1493795668	 0.261662
H	 0.076219586	-5.2613926897	 0.1449218667	 0.121884
H	 0.1017582244	-0.4372183973	 2.0581847049	 0.255382
115.0712	128.1497	158.0541	277.6058	280.6821	324.4717	372.484	501.808	557.6558	621.8082	639.1359	739.1673	763.3258	773.7637	802.7545	823.9245	945.5989	982.1751	1008.9164	1061.0421	1061.7611	1148.4978	1167.8046	1238.6116	1308.7821	1347.8705	1381.5838	1414.0901	1453.3332	1477.8663	1492.5548	1505.8608	1521.9321	1604.7272	1630.7136	3008.1453	3048.6852	3123.5212	3250.4048	3251.989	3683.4819	3687.9567
CC1=CC2=C(NC=N2)N1	Cc1cc2c([nH]cn2)[nH]1	
InChI=1S/C6H7N3/c1-4-2-5-6(9-4)8-3-7-5/h2-3,9H,1H3,(H,7,8)	InChI=1S/C6H7N3/c1-4-2-5-6(9-4)8-3-7-5/h2-3,9H,1H3,(H,7,8)
