20
gdb 12735	2.54119	2.13157	1.75065	1.894	74.12	-0.237	0.075	0.312	900.6072	0.176743	-348.978599	-348.970527	-348.969583	-349.010915	30.928	
C	-0.564930665	 1.3838420642	-0.0078438096	-0.416688
C	 0.0464944475	-0.0098677252	-0.0573082713	-0.018833
C	 1.3517773287	-0.220564271	-0.8948375973	-0.256836
C	 2.0469927078	-0.8135597585	 0.3493494975	 0.078645
O	 2.7707164754	 0.1802591667	 1.1036005113	-0.293643
C	 1.6464832641	 0.3975196906	 1.9860614482	-0.124852
C	 0.7620150137	-0.5996102295	 1.2082517576	 0.294164
C	 0.0365140568	-1.6673098686	 1.9958139203	-0.501964
H	 0.1795770176	 2.1477144773	 0.2386309483	 0.123303
H	-0.9924864809	 1.6500363352	-0.9807395847	 0.116887
H	-1.3692965703	 1.4450294048	 0.7343188501	 0.112467
H	-0.7235216655	-0.7201278122	-0.3780990463	 0.070207
H	 1.2399780654	-0.9122184101	-1.7341328484	 0.096779
H	 1.8367639012	 0.6928546336	-1.2489238715	 0.107076
H	 2.5993048249	-1.7537083181	 0.2579144258	 0.068173
H	 1.8770875715	 0.0755178613	 3.0110254064	 0.093381
H	 1.3316648694	 1.4474944203	 2.0130754233	 0.097439
H	-0.8175205542	-1.2433920803	 2.5390553827	 0.118896
H	-0.3516578515	-2.453156494	 1.3385097078	 0.116331
H	 0.6951371734	-2.1406171265	 2.7323224299	 0.119068
58.0152	193.3993	216.9069	223.2779	278.8916	308.5928	383.9663	399.6105	476.3403	616.0544	640.02	757.4818	834.3335	868.694	874.5996	923.3267	940.7636	977.1743	1006.3283	1015.6077	1045.6454	1101.8639	1111.5643	1147.9382	1168.7518	1175.1558	1194.6347	1230.4796	1255.1105	1272.8191	1289.9673	1326.8244	1353.0136	1391.8263	1407.5359	1412.1958	1468.8053	1491.2416	1492.5742	1494.0712	1498.6783	1530.8119	2999.6755	3018.1098	3026.4996	3035.1367	3051.8554	3053.1498	3064.8815	3079.8489	3089.7982	3092.5853	3100.3498	3114.5118
CC1CC2OCC12C	C[C@H]1C[C@H]2OC[C@@]12C	
InChI=1S/C7H12O/c1-5-3-6-7(5,2)4-8-6/h5-6H,3-4H2,1-2H3	InChI=1S/C7H12O/c1-5-3-6-7(5,2)4-8-6/h5-6H,3-4H2,1-2H3/t5-,6+,7-/m0/s1
