22
gdb 121882	3.67711	0.67073	0.58899	15.9516	84.19	-0.1634	-0.0127	0.1507	1907.3486	0.192789	-441.456385	-441.445373	-441.444428	-441.494187	38.301	
C	-0.0471726182	 1.5742752031	-0.1147638866	-0.417585
C	-0.1647388678	 0.0610247464	-0.0017977012	-0.147629
N	 0.6497977444	-0.4856957399	 1.1328931237	-0.248436
H	 1.6310565359	-0.2191597168	 1.0210324034	 0.300899
H	 0.3516550949	-0.0669070311	 2.0180030545	 0.301794
C	 0.6219611371	-2.0147749926	 1.304394587	-0.169899
C	 1.4716779148	-2.4596372572	 2.4641546844	-0.159718
C	 0.9109765885	-2.119804554	 3.8412604819	-0.398247
C	 1.7141017217	-4.0582819404	 2.2558649326	 0.3676
O	 1.8756373357	-4.6806323361	 3.306940488	-0.445681
O	 1.717415343	-4.3933900089	 1.0557858382	-0.480592
H	 0.9851937044	 1.8860926511	-0.3029195158	 0.146188
H	-0.6570744263	 1.9250964272	-0.9510039947	 0.164883
H	-0.403225659	 2.0765838387	 0.7904218734	 0.144706
H	-1.194295382	-0.2560789755	 0.1793707223	 0.165565
H	 0.1891429106	-0.4472705824	-0.9015499227	 0.172615
H	-0.434367656	-2.2699128757	 1.4297039805	 0.137341
H	 1.0063686011	-2.4670789904	 0.3877783555	 0.17391
H	 2.4776385082	-2.0238203209	 2.34721575	 0.065842
H	-0.1332579335	-2.4431222455	 3.9301758919	 0.110541
H	 1.4806800534	-2.685025451	 4.581338444	 0.166032
H	 0.9595708094	-1.0493189878	 4.1018548798	 0.049872
40.3817	51.4806	70.9453	112.6909	123.6549	182.109	230.9113	247.6056	277.4951	310.8646	395.5067	428.4115	499.8961	599.4229	744.5426	774.4558	780.4018	816.4719	852.8488	887.4086	897.7285	921.488	1031.9644	1037.5329	1040.7703	1108.1115	1147.8231	1170.5817	1212.152	1222.7057	1264.7212	1310.3885	1328.723	1352.2624	1375.9854	1386.2814	1402.702	1409.3826	1426.6107	1477.2129	1480.9167	1490.7815	1496.4513	1497.3039	1509.9411	1650.9585	1806.576	2958.8225	2974.3058	3043.4928	3059.0187	3068.9454	3085.5619	3108.0438	3129.5987	3134.7464	3141.6027	3144.1734	3416.6949	3473.929
CC[NH2+]CC(C)C([O-])=O	CC[NH2]C[C@@H](C)C(=O)[O]	
InChI=1S/C6H13NO2/c1-3-7-4-5(2)6(8)9/h5,7H,3-4H2,1-2H3,(H,8,9)	InChI=1S/C6H13NO2/c1-3-7-4-5(2)6(8)9/h5H,3-4,7H2,1-2H3/t5-/m1/s1
