20
gdb 63686	3.94083	0.78575	0.75782	4.3524	78.56	-0.2559	0.026	0.2819	1588.4247	0.167919	-440.268704	-440.258446	-440.257502	-440.304792	36.301	
C	 0.3327428566	 1.2976434462	-0.3220293907	-0.457759
C	 0.0503467194	-0.0642057254	 0.277759662	 0.393793
C	-0.9511613516	-0.8985151736	-0.4939927375	-0.452643
O	 1.2037425887	-0.7967740586	 0.7337154456	-0.293822
C	 0.2483355247	-0.3584960002	 1.7106782282	-0.001954
C	 0.7289402438	 0.6286697343	 2.744468199	-0.133028
O	 1.3845955025	-0.0324722891	 3.82763657	-0.18588
C	 2.6521092139	-0.4456438779	 3.5960784552	 0.127485
N	 3.2720596138	-1.0802497289	 4.492954619	-0.439763
H	 1.124091077	 1.8270684647	 0.2100508669	 0.127099
H	 0.6489201684	 1.1839766409	-1.3644495913	 0.130756
H	-0.5699525966	 1.9178320077	-0.3155682016	 0.126291
H	-0.607008114	-1.0490669554	-1.5229025364	 0.128257
H	-1.0825757446	-1.878559435	-0.0298189415	 0.132497
H	-1.9239768756	-0.3970777666	-0.5362295031	 0.12336
H	-0.3433367309	-1.1682961598	 2.1422484102	 0.10218
H	 1.3913600532	 1.3788420523	 2.3002634291	 0.112955
H	-0.123115232	 1.1433500566	 3.1982159473	 0.126904
H	 3.0285287128	-0.1713300437	 2.6033321703	 0.104615
H	 4.2107516205	-1.3039165086	 4.1687369494	 0.228657
47.4494	66.6143	109.275	143.9908	175.3932	202.1319	231.7686	296.9445	344.0077	373.9688	426.5418	463.5626	514.2074	645.1108	703.1368	821.619	825.7004	887.2223	942.4798	957.4969	988.3846	1003.9112	1044.2773	1082.8989	1113.636	1121.6975	1145.2282	1158.7265	1247.9014	1264.8673	1319.0815	1353.2964	1390.1478	1411.217	1420.5228	1425.7116	1462.9797	1473.1254	1486.2322	1487.438	1500.4821	1521.0334	1745.4398	3035.5383	3040.6742	3046.4498	3056.3649	3090.3339	3097.158	3102.5085	3105.8938	3128.0851	3141.4167	3516.542
CC1(C)OC1COC=N	CC1(C)O[C@H]1CO[CH][NH]	
InChI=1S/C6H11NO2/c1-6(2)5(9-6)3-8-4-7/h4-5,7H,3H2,1-2H3	InChI=1S/C6H11NO2/c1-6(2)5(9-6)3-8-4-7/h4-5,7H,3H2,1-2H3/t5-/m0/s1
