15
gdb 54773	4.10437	1.1132	0.99035	1.7149	67.39	-0.2579	-0.0338	0.2241	1161.7866	0.109621	-457.711488	-457.703224	-457.70228	-457.746056	29.561	
C	 0.3812510919	 0.7692353091	-0.7840038994	-0.483416
C	-0.0906661421	 0.1431236081	 0.5083691872	 0.353883
O	 0.3925535495	 0.4277963115	 1.5795508212	-0.287523
C	-1.2326373015	-0.8774013491	 0.4954668092	-0.087018
C	-2.0901733495	-1.1381111205	-0.7753132503	-0.116016
O	-0.9286058481	-1.8338081353	-1.3952384178	-0.298789
C	-0.8899116746	-2.321610385	 0.0071328559	-0.08815
C	-2.4188565817	-2.5393595784	-0.1814034119	 0.482067
O	-3.2836430142	-3.3372836593	-0.0612473234	-0.29556
H	 1.2115651053	 1.4442364255	-0.573521218	 0.140437
H	 0.6722921807	-0.0042417135	-1.4984152359	 0.164891
H	-0.4380538187	 1.3312618725	-1.2478847979	 0.138347
H	-1.7617819179	-0.8200035742	 1.45032641	 0.120113
H	-2.6583490502	-0.4482029109	-1.3950728169	 0.124892
H	-0.0732963189	-2.9770042805	 0.300471748	 0.131842
16.1518	118.8877	149.8456	155.8189	249.4324	358.5796	429.5948	459.4021	561.7493	592.9603	661.453	767.9278	786.1434	788.144	832.6506	894.7902	952.3007	973.6051	1011.7708	1042.1359	1085.5091	1125.0669	1135.693	1169.2039	1174.9544	1240.1706	1249.6439	1341.349	1383.8882	1461.6592	1469.4043	1802.4792	1946.5172	3041.8933	3089.097	3114.6638	3157.9342	3161.4927	3164.0246
CC(=O)C1C2OC1C2=O	CC(=O)[C@H]1[C@H]2O[C@@H]1C2=O	
InChI=1S/C6H6O3/c1-2(7)3-5-4(8)6(3)9-5/h3,5-6H,1H3	InChI=1S/C6H6O3/c1-2(7)3-5-4(8)6(3)9-5/h3,5-6H,1H3/t3-,5+,6-
