16
gdb 10693	2.90166	1.91332	1.33977	1.2576	66.69	-0.2627	0.0164	0.2791	931.2122	0.127583	-383.682115	-383.673657	-383.672713	-383.714692	31.653	
C	-0.276750005	 1.5437558635	-0.0832136007	-0.407617
C	 0.0905694293	 0.0656592802	 0.0668204421	 0.028076
O	-1.0412559948	-0.7201112327	 0.3867077997	-0.431241
C	 0.7631293963	-0.4821827097	-1.2034391678	 0.200627
C	 0.5849271413	-1.9006817882	-1.5663883941	-0.219831
O	-0.191282366	-0.8837033122	-2.2116295533	-0.285969
C	 1.9292664898	 0.223375245	-1.6743588488	 0.265239
C	 2.9120538737	 0.8211321515	-2.0236026512	-0.38389
H	 0.6113192882	 2.1594795572	-0.2469333867	 0.131202
H	-0.9507191857	 1.6839404933	-0.935550624	 0.122752
H	-0.7853318148	 1.885604991	 0.8212534368	 0.125897
H	 0.7904543128	-0.0595352209	 0.9009647761	 0.103848
H	-1.5891416856	-0.7342434113	-0.4097617246	 0.289232
H	 1.3303908718	-2.3792147849	-2.1972502738	 0.126174
H	 0.0326259608	-2.5413149647	-0.8846291991	 0.135723
H	 3.7782121979	 1.3457385931	-2.3446161008	 0.199779
76.9347	146.685	198.58	236.6741	276.2792	282.072	388.4907	420.3314	483.2607	510.5591	534.4543	584.738	626.2925	670.0034	683.907	842.009	877.1523	925.2744	961.215	1049.9827	1094.3	1123.7412	1136.7126	1176.6217	1211.1589	1301.1501	1344.1793	1360.2328	1403.9782	1427.2288	1492.2133	1495.4783	1504.0473	2237.3183	3040.964	3052.826	3105.5036	3115.8753	3133.6979	3206.7717	3500.2581	3763.12
CC(O)C1(CO1)C#C	C[C@@H](O)[C@]1(CO1)C#C	
InChI=1S/C6H8O2/c1-3-6(4-8-6)5(2)7/h1,5,7H,4H2,2H3	InChI=1S/C6H8O2/c1-3-6(4-8-6)5(2)7/h1,5,7H,4H2,2H3/t5-,6-/m1/s1
