20
gdb 98271	2.67055	1.10379	0.88605	1.7331	72.63	-0.2448	0.0184	0.2632	1375.8324	0.169256	-477.454389	-477.44371	-477.442766	-477.491126	37.787	
C	-0.1702286193	 1.4257700708	 0.2491654184	-0.331176
N	-0.2319618003	-0.0095579298	 0.4635750401	-0.316147
C	 0.8310961528	-0.6922859349	 0.9498407914	 0.379194
O	 1.9228242354	-0.1920005249	 1.1890907811	-0.404097
C	 0.6551026275	-2.197988081	 1.2329674701	 0.024984
O	 0.9471387523	-2.3967296033	 2.6126502015	-0.447943
C	-0.7202709693	-2.8139175889	 0.9657422862	 0.093219
C	-0.744229901	-4.3153190894	 1.2509860849	-0.397765
O	-1.7233420537	-2.1259350851	 1.7193014951	-0.442074
H	 0.8615438012	 1.6944524843	 0.0214515857	 0.163681
H	-0.8152554871	 1.7037891645	-0.5883691655	 0.127342
H	-0.4829450871	 1.9888520254	 1.1374551919	 0.129469
H	-1.1362227046	-0.4403500469	 0.6071755407	 0.268505
H	 1.3995789236	-2.709626008	 0.6021548208	 0.092577
H	 1.6881387059	-1.8059142548	 2.8054343344	 0.299375
H	-0.9749906433	-2.6412274837	-0.0864092026	 0.092806
H	-0.4472805412	-4.5137245353	 2.2841351005	 0.137041
H	-1.7524325654	-4.7048608348	 1.0902037812	 0.122804
H	-0.053868682	-4.8490624434	 0.5895641628	 0.116074
H	-1.3787601345	-2.072148881	 2.6210345711	 0.292131
34.5529	56.5164	94.7173	151.4766	161.5482	228.763	263.7296	271.9283	312.594	332.3477	387.963	465.9342	505.4141	511.5591	615.5998	669.6799	681.9218	817.9569	853.4437	898.033	956.0125	1002.6802	1070.2899	1075.2207	1109.5176	1149.7295	1161.0862	1183.4249	1222.5992	1304.2128	1311.1346	1338.2707	1360.066	1402.33	1430.7945	1439.7821	1443.6319	1489.1016	1490.1403	1499.8421	1502.8632	1583.6099	1758.974	2980.4706	3026.3538	3043.4286	3049.1934	3096.5235	3115.841	3132.93	3156.3982	3571.0705	3757.0663	3764.5113
CNC(=O)C(O)C(C)O	CNC(=O)[C@@H](O)[C@@H](C)O	
InChI=1S/C5H11NO3/c1-3(7)4(8)5(9)6-2/h3-4,7-8H,1-2H3,(H,6,9)	InChI=1S/C5H11NO3/c1-3(7)4(8)5(9)6-2/h3-4,7-8H,1-2H3,(H,6,9)/t3-,4+/m1/s1
