21
gdb 117213	3.88277	0.73309	0.70683	1.1434	80.77	-0.2421	-0.0114	0.2308	1691.1955	0.18035	-424.234785	-424.224445	-424.223501	-424.271064	36.979	
C	-0.3357958507	 1.4774085137	 0.0560514676	-0.418246
C	-0.0514939178	-0.0065244203	 0.1066907649	 0.016942
C	 1.2730505632	-0.5710238431	-0.2792050196	-0.286162
C	 0.8512324806	-0.6417652172	 1.1794127222	-0.123917
C	 1.5628216771	 0.2086779815	 2.1739036794	 0.378189
O	 2.1653381775	 1.2204375395	 1.8648195094	-0.339946
C	 1.4919928095	-0.2623416506	 3.6164930349	-0.289631
C	 2.200583017	 0.6639686227	 4.5919311705	-0.078622
O	 2.0611488735	 0.0959033279	 5.8870168678	-0.425697
H	 0.5409556438	 2.0581967326	 0.3467388677	 0.155793
H	-0.6228580383	 1.7685229897	-0.960390525	 0.116229
H	-1.1621285179	 1.7452363873	 0.7235998259	 0.113195
H	-0.9093629005	-0.6319075819	-0.1284321265	 0.092813
H	 1.3190295899	-1.5022794639	-0.8324949206	 0.11445
H	 2.070713465	 0.1352139019	-0.4851425221	 0.137073
H	 0.5157140063	-1.6021385154	 1.5565428177	 0.086235
H	 0.4380823172	-0.3783753862	 3.9026894949	 0.13067
H	 1.9211958201	-1.2715684995	 3.6803067055	 0.131285
H	 3.2557869001	 0.7659958868	 4.3022614789	 0.102443
H	 1.7553117281	 1.6675969654	 4.537186409	 0.100235
H	 2.5115013062	 0.6702080891	 6.5128759774	 0.286669
39.5465	73.1547	107.3713	130.2496	180.4702	227.6308	254.3206	273.4134	319.4304	363.0631	407.1174	416.1533	586.8952	686.4374	747.2174	800.4294	824.0784	863.2725	888.1716	950.6332	978.0421	1033.5004	1055.6127	1071.0195	1082.5413	1093.2354	1113.7352	1122.9076	1147.2581	1204.0145	1210.4989	1237.0618	1252.9955	1300.6579	1337.4563	1391.917	1414.8907	1425.4287	1446.888	1470.3698	1474.8621	1500.2335	1506.3258	1522.0962	1770.252	2997.1936	3024.3362	3025.2763	3034.5804	3060.2247	3089.5728	3128.59	3133.36	3147.042	3162.8022	3226.3943	3832.4546
CC1CC1C(=O)CCO	C[C@H]1C[C@H]1C(=O)CCO	
InChI=1S/C7H12O2/c1-5-4-6(5)7(9)2-3-8/h5-6,8H,2-4H2,1H3	InChI=1S/C7H12O2/c1-5-4-6(5)7(9)2-3-8/h5-6,8H,2-4H2,1H3/t5-,6+/m0/s1
