14
gdb 20410	4.87763	2.05986	1.48834	4.0129	63.26	-0.2087	-0.0029	0.2058	792.8519	0.110695	-378.703982	-378.698121	-378.697177	-378.733856	23.038	
C	 0.0095359562	 1.4475924833	 0.0886733355	-0.172286
C	 1.4865843402	 1.9193940627	-0.0889422448	-0.338426
C	 2.2120592545	 0.6110663897	 0.0305256441	 0.378859
N	 3.4416286417	 0.2137525495	 0.193885305	-0.244778
O	 3.3594847457	-1.17962388	 0.1783895723	-0.18548
C	 2.0597596455	-1.5660777616	-0.0037468831	-0.069055
C	 1.2899292391	-0.4567744365	-0.1018174958	 0.169248
N	-0.0043979619	 0.0176806977	-0.3313208905	-0.417871
H	-0.2827057753	 1.5524355118	 1.1432117538	 0.10928
H	-0.6903676677	 2.0273952854	-0.517854765	 0.117714
H	 1.6431353375	 2.3551004152	-1.0820162195	 0.137847
H	 1.7747616738	 2.6660787637	 0.653300911	 0.134941
H	 1.8904233008	-2.6294418814	-0.0212439745	 0.139699
H	-0.7594765899	-0.5209284796	 0.0704681116	 0.240309
159.1375	254.9135	332.3654	460.9209	551.6257	578.5348	642.3509	697.663	729.5476	755.765	810.3635	867.1629	907.6975	937.4498	962.4695	1029.9183	1076.034	1080.9197	1152.1863	1190.0729	1237.9642	1275.2569	1300.1832	1336.2964	1402.1079	1463.7458	1480.3886	1516.7663	1577.3457	1699.4138	3000.9038	3049.8084	3093.8946	3116.2101	3281.4753	3580.508
C1CC2=NOC=C2N1	C1Cc2nocc2N1	
InChI=1S/C5H6N2O/c1-2-6-5-3-8-7-4(1)5/h3,6H,1-2H2	InChI=1S/C5H6N2O/c1-2-6-5-3-8-7-4(1)5/h3,6H,1-2H2
