20
gdb 13902	2.87648	1.53467	1.42663	2.4926	76.75	-0.2366	-0.0091	0.2276	1039.7871	0.175112	-349.024894	-349.015548	-349.014604	-349.058674	34.046	
C	-0.2482456602	 1.2529440793	-1.3817744725	-0.417533
C	-0.0329521222	-0.0517757766	-0.6465980421	-0.019142
C	 1.3155035773	-0.6151125215	-0.3340942222	-0.019142
C	 2.6157821424	 0.0564683289	-0.7179733703	-0.417535
C	 0.4298827106	-0.1126386579	 0.8200258734	-0.152406
C	 0.7599458662	 1.1103821034	 1.6011948234	 0.397673
C	 0.3936227728	 1.052458824	 3.07638152	-0.479751
O	 1.2840633437	 2.1021672632	 1.1286611086	-0.33399
H	 0.4516847709	 2.0239740192	-1.0616457496	 0.15868
H	-0.1359027889	 1.0997702878	-2.4609999049	 0.11328
H	-1.2617459221	 1.6289826633	-1.2055830474	 0.113754
H	-0.7949648778	-0.7970227146	-0.8637341212	 0.08899
H	 1.3692837076	-1.7011719691	-0.3621416087	 0.088982
H	 2.5796707427	 1.1349765446	-0.5683038294	 0.158703
H	 3.4419310373	-0.3361020965	-0.1154785526	 0.113749
H	 2.848257346	-0.1467766759	-1.7693789079	 0.113265
H	-0.0340158307	-0.8928772088	 1.415147148	 0.080086
H	 0.9058758626	 0.2146616736	 3.5634526367	 0.137391
H	 0.6714749383	 1.9875912302	 3.5635937716	 0.137552
H	-0.6820687465	 0.8783424434	 3.1952084773	 0.137393
64.6924	143.0565	164.409	166.4373	207.9698	215.3313	253.6048	330.2191	367.1388	416.528	502.9642	625.8464	629.718	720.3629	778.5409	801.7267	920.8707	942.0724	976.3338	990.9922	1031.2766	1052.7917	1090.3225	1110.9504	1130.7184	1158.4322	1183.4587	1193.861	1271.8501	1375.2189	1377.7705	1406.4234	1420.0612	1420.8861	1435.7363	1464.9246	1476.2868	1489.1914	1499.1467	1508.4764	1519.8172	1774.4783	3032.8358	3035.3296	3037.5692	3088.2412	3089.6906	3092.8736	3118.6303	3128.4479	3151.4262	3155.4461	3158.513	3165.3412
CC1C(C)C1C(C)=O	C[C@H]1[C@@H](C)[C@H]1C(=O)C	
InChI=1S/C7H12O/c1-4-5(2)7(4)6(3)8/h4-5,7H,1-3H3	InChI=1S/C7H12O/c1-4-5(2)7(4)6(3)8/h4-5,7H,1-3H3/t4-,5+,7-
