17
gdb 71433	4.57519	1.1984	1.13701	2.3085	73.02	-0.2379	-0.0255	0.2124	1101.669	0.134351	-421.768604	-421.760766	-421.759822	-421.801025	29.708	
C	-0.1659993602	 1.3817731944	 0.1905467968	-0.506636
C	 0.0020909727	-0.0898308792	 0.031024288	 0.456687
O	-1.0527342646	-0.8572552711	-0.5563131906	-0.322151
C	-0.3410313867	-2.0376917189	-0.1014325969	 0.074755
C	 0.4883565688	-1.1846074736	 0.9194164197	-0.1846
C	 1.3294369151	-0.8179163335	-0.3021159507	-0.161994
C	 0.8925127195	-2.0926186942	-1.0486385366	-0.121503
C	 1.8253064349	-3.2369453557	-0.7683495035	 0.140391
O	 1.7354258853	-3.9683596937	 0.1882909536	-0.255547
H	 0.7069391753	 1.8111257682	 0.690838624	 0.129479
H	-0.2742059025	 1.8671353676	-0.7850464315	 0.13635
H	-1.0537835265	 1.6083814408	 0.7888434468	 0.13704
H	-0.9677939633	-2.9034405449	 0.0917244997	 0.103043
H	 0.7141512781	-1.2718038642	 1.9721731807	 0.108299
H	 2.2855860207	-0.3106502498	-0.3372112595	 0.098151
H	 0.6925281187	-1.9993406225	-2.1228461192	 0.088329
H	 2.6439973949	-3.3686364295	-1.5122287207	 0.079905
88.678	148.6964	199.1617	212.4583	242.6179	325.3419	404.9028	561.8566	605.46	692.8852	752.9588	797.6826	811.3212	854.6346	874.7093	909.0857	915.12	932.0396	976.894	1003.5995	1027.7597	1064.6912	1083.7051	1100.7679	1135.9329	1148.9783	1183.1555	1235.0734	1240.4005	1277.5547	1339.7047	1399.8066	1423.4932	1455.2011	1473.6371	1500.7399	1810.4774	2870.0859	3037.832	3043.5224	3105.2131	3117.0753	3169.7827	3194.7997	3223.6928
CC12OC3C1C2C3C=O	C[C@]12O[C@@H]3[C@H]1[C@H]2[C@H]3C=O	
InChI=1S/C7H8O2/c1-7-4-3(2-8)6(9-7)5(4)7/h2-6H,1H3	InChI=1S/C7H8O2/c1-7-4-3(2-8)6(9-7)5(4)7/h2-6H,1H3/t3-,4-,5-,6+,7-/m1/s1
