19
gdb 118332	2.39725	1.01605	0.78122	1.8934	74.57	-0.2536	-0.0488	0.2048	1495.7727	0.154461	-460.178908	-460.168129	-460.167185	-460.21598	36.205	
C	-0.0491593274	 1.4546439169	-0.002390079	-0.230257
O	 0.0558316787	 0.0488462035	 0.0212772519	-0.243681
C	 0.6688228714	-0.4773068125	-1.1358951723	-0.080226
C	 0.6649509049	-1.9917639167	-0.9903904532	-0.19806
C	-0.7678830229	-2.5250531373	-0.9022077211	 0.163699
O	-1.0585015554	-3.6217100754	-0.5020997518	-0.248098
C	 1.3758904679	-2.685572475	-2.1691198215	 0.36237
C	 1.7952734835	-4.1175242935	-1.9338960437	-0.485686
O	 1.5709578039	-2.0938088826	-3.2044243931	-0.291079
H	 0.9400140351	 1.9338677467	-0.0644270942	 0.110163
H	-0.6538802183	 1.8034365744	-0.8536620659	 0.109719
H	-0.5339159371	 1.7610004064	 0.9272720967	 0.132382
H	 0.1185824885	-0.1863238247	-2.044674394	 0.109241
H	 1.6962399877	-0.1012615498	-1.2519674349	 0.105034
H	 1.1612176819	-2.2919973652	-0.0606984638	 0.123945
H	-1.540971387	-1.8182196729	-1.2711957874	 0.101893
H	 0.9891055193	-4.6762265738	-1.449235031	 0.169934
H	 2.0872827699	-4.582593974	-2.8761098341	 0.142997
H	 2.6495158852	-4.1304337746	-1.2458093575	 0.145711
60.2377	67.0579	85.1633	105.2317	133.2916	168.4814	209.2905	228.6562	291.2074	323.1402	333.6309	420.1613	551.8565	587.6331	629.3126	791.8206	887.5192	943.8252	966.4449	997.488	1057.3662	1108.6885	1122.5738	1162.7023	1169.8396	1186.8221	1229.0873	1232.7539	1251.6372	1320.1135	1388.1641	1413.7275	1422.2049	1466.9686	1473.821	1481.7413	1486.0198	1502.8201	1522.545	1798.9248	1829.634	2910.0533	2973.8628	2986.0533	3014.7066	3024.2119	3037.219	3062.0041	3105.0931	3120.309	3157.4851
COCC(C=O)C(C)=O	COC[C@@H](C=O)C(=O)C	
InChI=1S/C6H10O3/c1-5(8)6(3-7)4-9-2/h3,6H,4H2,1-2H3	InChI=1S/C6H10O3/c1-5(8)6(3-7)4-9-2/h3,6H,4H2,1-2H3/t6-/m1/s1
