15
gdb 14692	8.54623	0.6305	0.61304	3.9868	71.39	-0.2643	0.0113	0.2756	1765.6247	0.116639	-362.626673	-362.617442	-362.616498	-362.662709	30.134	
C	 0.2744262413	 1.3881276486	 0.1186153169	-0.221165
O	 0.3013397651	-0.0217110668	 0.1176361804	-0.228503
C	 0.3126529591	-0.5500131538	-1.1919847159	-0.199626
C	 0.3500128788	-2.0062279672	-1.1416515431	 0.029068
C	 0.3848318752	-3.2069200832	-1.1239197031	 0.150733
C	 0.4199488584	-4.6661473337	-1.0851721057	-0.475501
C	 1.642251107	-5.2322120194	-1.6722760703	 0.279656
N	 2.5962083675	-5.6903450016	-2.1336456343	-0.299332
H	 1.1600566784	 1.8143946517	-0.378464286	 0.10927
H	-0.6241315882	 1.7804025541	-0.3835637203	 0.107408
H	 0.2653528894	 1.7083526643	 1.1624326677	 0.135048
H	-0.580191759	-0.2203811046	-1.7518215222	 0.118875
H	 1.1884814889	-0.1812667387	-1.7540701863	 0.124122
H	 0.3424597316	-5.0179776151	-0.0483459254	 0.187391
H	-0.4426309535	-5.0887460044	-1.6162992524	 0.182555
18.4812	66.5484	94.0664	111.376	230.9968	240.6667	296.9021	358.1215	373.6336	386.4589	484.8776	588.844	819.0471	929.7065	934.962	980.8183	1027.5667	1138.233	1177.2219	1183.0965	1221.2149	1234.9782	1255.4071	1338.1739	1411.9506	1445.7258	1478.5255	1485.3365	1494.8745	1515.9092	2371.1409	2389.4439	2947.8349	2966.5687	2972.3501	3016.7847	3027.5416	3058.2226	3125.0706
COCC#CCC#N	COCC#CCC#N	
InChI=1S/C6H7NO/c1-8-6-4-2-3-5-7/h3,6H2,1H3	InChI=1S/C6H7NO/c1-8-6-4-2-3-5-7/h3,6H2,1H3
