17
gdb 67590	2.29978	2.20162	1.53337	0.5913	70.3	-0.2122	0.0629	0.2751	905.0786	0.136264	-421.768806	-421.761608	-421.760664	-421.79982	29.867	
O	 0.1275175356	 1.3668712051	 0.2151484511	-0.466346
C	 0.0702690449	 0.0027485883	 0.0260284468	 0.302507
C	 1.1239792514	-0.8872136583	-0.6044045101	-0.153269
C	 0.4824511626	-1.9432096616	-1.4868545611	-0.23658
C	-0.820396169	-2.120462608	-0.7242163696	-0.115251
C	-0.5989090901	-1.9216044836	 0.7834841218	-0.182183
C	 0.6974208675	-1.0772976914	 0.859944091	-0.141168
C	-1.2479315734	-0.8415716868	-0.0661438369	 0.317513
O	-2.5256005236	-0.3385459863	-0.1433981014	-0.463543
H	 0.0620098355	 1.7946708505	-0.6465890648	 0.289138
H	 2.1062458494	-0.4739374938	-0.8050332653	 0.087323
H	 0.3204440489	-1.5895642181	-2.5121141615	 0.097273
H	 1.0691667944	-2.8677603928	-1.5286311162	 0.100202
H	-1.5884911193	-2.8171203195	-1.0398059304	 0.092161
H	-1.0017255433	-2.5788285396	 1.54161327	 0.088725
H	 1.3756219135	-0.9953483737	 1.6975726348	 0.092775
H	-2.659310775	 0.2416464094	 0.6153764418	 0.290722
190.1901	221.7251	260.5747	309.8137	372.7342	431.6648	435.4045	528.2246	607.1486	627.0606	702.0175	733.4441	801.4961	818.8487	855.9801	876.4095	911.2179	929.9927	944.9107	969.1499	972.3918	986.7988	1023.7259	1068.0225	1094.2204	1178.1221	1188.2259	1201.5715	1217.198	1223.4248	1286.4557	1294.628	1319.0284	1333.9867	1459.9181	1478.0332	1492.8953	3031.8593	3072.6482	3181.8305	3188.7878	3207.9593	3218.1139	3780.5473	3784.6995
OC12C3CC4C(C13)C24O	O[C@@]12[C@@H]3C[C@H]4[C@@H]([C@H]13)[C@@]24O	
InChI=1S/C7H8O2/c8-6-2-1-3-5(4(2)6)7(3,6)9/h2-5,8-9H,1H2	InChI=1S/C7H8O2/c8-6-2-1-3-5(4(2)6)7(3,6)9/h2-5,8-9H,1H2/t2-,3+,4-,5+,6+,7-
