15
gdb 42843	3.21879	1.8607	1.68885	3.18	63.49	-0.2538	-0.0065	0.2474	830.6167	0.114179	-457.707137	-457.701123	-457.700178	-457.737324	25.039	
O	 0.000345557	 0.0057500974	-0.0090674605	-0.306805
C	-0.0162396875	 1.1872861301	-0.0998130992	 0.479847
C	-1.052957253	 2.3460897767	 0.0434076662	-0.069538
O	-0.02616088	 2.9719311869	 0.8708189933	-0.283294
C	 0.9935622394	 2.3726699092	 0.0154521815	-0.069539
C	 0.9381893392	 3.0830588201	-1.3769147208	 0.062949
C	-0.0723004895	 4.2479676195	-1.2933280807	-0.226512
C	-1.0540987779	 3.0571763063	-1.3497013276	 0.062948
O	-0.059115597	 2.3305205773	-2.1517931381	-0.30298
H	-2.0092296821	 2.2422513315	 0.5552548738	 0.105123
H	 1.9658309622	 2.2938868029	 0.5009551016	 0.105123
H	 1.895689158	 3.1735240021	-1.890030468	 0.097191
H	-0.0687984071	 4.8969283555	-0.4197997053	 0.128011
H	-0.0923612732	 4.811697162	-2.225515172	 0.120285
H	-2.0272795284	 3.1225639825	-1.8364470942	 0.097191
168.7638	276.8052	431.9724	483.4928	487.6295	517.9397	591.6407	621.3622	755.2735	807.1208	828.8395	869.9644	874.8578	877.4957	921.3998	922.8172	925.4076	1015.4256	1017.6237	1047.3132	1096.9503	1109.8643	1129.527	1195.9376	1208.1021	1238.3986	1271.0523	1289.7032	1297.2532	1314.7719	1337.1768	1471.5368	1937.1522	3101.2236	3117.1102	3118.1319	3132.2709	3136.089	3173.2608
O=C1C2OC1C1CC2O1	O=C1[C@H]2O[C@@H]1[C@@H]1C[C@H]2O1	
InChI=1S/C6H6O3/c7-4-5-2-1-3(8-2)6(4)9-5/h2-3,5-6H,1H2	InChI=1S/C6H6O3/c7-4-5-2-1-3(8-2)6(4)9-5/h2-3,5-6H,1H2/t2-,3+,5+,6-
