21
gdb 79391	2.1204	1.68384	1.52568	1.6442	82.85	-0.2466	0.0627	0.3093	1051.6823	0.180927	-387.026798	-387.017716	-387.016772	-387.059927	35.138	
C	 0.049641341	 1.49886228	-0.0566213969	-0.52781
C	 0.0394242345	-0.0097314236	-0.0408418629	 0.298425
C	 0.5799874907	-0.9279822185	-1.1591118362	-0.316184
C	 0.0564061184	-1.903078158	-0.0942216273	-0.079094
C	 0.5438115995	-0.9963296847	 1.0857679202	-0.145819
C	-0.8381838466	-1.0883275129	 1.7572995572	 0.095514
O	-1.2840390571	-0.1151985179	 2.6704198522	-0.447559
C	-1.1793133696	-0.9932513198	 0.2517598659	 0.26415
C	-2.5310475375	-0.9836323133	-0.4067580305	-0.528847
H	 1.0750577762	 1.8805950953	-0.1194080447	 0.126452
H	-0.4976467272	 1.8794372197	-0.9267533287	 0.126163
H	-0.4104526863	 1.9465960978	 0.8316902295	 0.104805
H	 0.0510018043	-0.9041943701	-2.118345269	 0.088295
H	 1.6630424576	-0.9123464354	-1.3233795001	 0.087913
H	 0.0577835357	-2.9939157389	-0.0925089902	 0.068564
H	 1.5407886222	-1.0083962424	 1.5305760601	 0.06554
H	-1.0694294623	-2.053984595	 2.2210734169	 0.076407
H	-1.0134844537	 0.7513937695	 2.3536691749	 0.279439
H	-3.1350638081	-0.1452517365	-0.0422047292	 0.123291
H	-2.4505728906	-0.8920666878	-1.4957870637	 0.118074
H	-3.0816296309	-1.9054189474	-0.1879342576	 0.122282
111.3424	174.2272	186.3545	192.0431	211.5826	233.8075	292.3019	329.1703	392.2402	503.8717	527.7716	639.1568	644.4461	711.2971	774.8031	848.7922	855.4559	879.4782	906.0323	941.7436	954.2522	1003.8846	1011.1818	1071.0851	1087.3634	1126.2717	1133.5961	1141.7158	1152.241	1168.4667	1197.0616	1223.7966	1246.8129	1273.5687	1281.9157	1321.2006	1338.8216	1406.5392	1414.8653	1450.9202	1477.466	1484.4728	1491.9943	1496.5786	1513.6139	3021.0845	3023.2953	3029.1042	3050.1722	3081.4786	3081.6015	3088.143	3089.9545	3090.7289	3094.5164	3106.7844	3835.1733
CC12CC3C1C(O)C23C	C[C@@]12C[C@H]3[C@@H]1[C@@H](O)[C@@]23C	
InChI=1S/C8H12O/c1-7-3-4-5(7)6(9)8(4,7)2/h4-6,9H,3H2,1-2H3	InChI=1S/C8H12O/c1-7-3-4-5(7)6(9)8(4,7)2/h4-6,9H,3H2,1-2H3/t4-,5+,6+,7+,8-/m0/s1
