19
gdb 36498	4.22145	1.03268	0.94223	4.3528	79.11	-0.2231	0.023	0.2462	1266.7227	0.161261	-382.060576	-382.052556	-382.051611	-382.093607	30.819	
N	-0.3183557194	-1.0726142266	 0.098480928	-0.307077
C	-0.1413893318	 0.0582056966	 0.2537522338	 0.27547
C	 0.0804562132	 1.4906712979	 0.4813355113	-0.293983
N	 1.3239747331	 1.9487376164	-0.1391815506	-0.071933
C	 2.5342690389	 1.4024584526	 0.5197577819	-0.202087
C	 2.9874080384	 2.4405088351	 1.5846303143	-0.229043
C	 2.4667619207	 3.7603595663	 1.0393354669	-0.047429
C	 2.7367408721	 4.0320513751	-0.4271584675	-0.324602
C	 1.4397254011	 3.3961656059	-0.0180603742	 0.036971
H	-0.7555331405	 2.0348169579	 0.0282599421	 0.154257
H	 0.0230169964	 1.6739759913	 1.5702566752	 0.131188
H	 2.3274707291	 0.4143549181	 0.9354490508	 0.126712
H	 3.3122873397	 1.2693519898	-0.2368561946	 0.119911
H	 2.5318156008	 2.2369136089	 2.5603619735	 0.104456
H	 4.0728753871	 2.4171668037	 1.7209790617	 0.108542
H	 2.3298914288	 4.5957269019	 1.7158940287	 0.088121
H	 2.6811031993	 5.0640146969	-0.7558625671	 0.117081
H	 3.4795810963	 3.4439191186	-0.9549801981	 0.121658
H	 0.5148407367	 3.9425590136	-0.1629264861	 0.091785
56.8176	116.8986	165.4505	267.4001	333.4113	386.5239	394.4753	427.0743	534.5483	636.7478	692.2764	771.7214	792.1349	833.0008	870.7154	899.5638	923.6705	944.3845	976.1842	1015.6248	1028.8136	1048.5382	1080.9194	1084.1815	1092.7272	1131.9145	1171.603	1200.2929	1210.5815	1257.6106	1283.3457	1311.1442	1330.0063	1369.2388	1374.3343	1412.7955	1475.4942	1485.0459	1497.6034	1520.8017	2366.4231	2936.2848	3040.1407	3061.8182	3065.5875	3085.1951	3115.9504	3136.1819	3172.0714	3180.6084	3219.3363
N#CCN1CCC2CC12	N#CCN1CC[C@H]2C[C@@H]12	
InChI=1S/C7H10N2/c8-2-4-9-3-1-6-5-7(6)9/h6-7H,1,3-5H2	InChI=1S/C7H10N2/c8-2-4-9-3-1-6-5-7(6)9/h6-7H,1,3-5H2/t6-,7+/m0/s1
