17
gdb 85621	3.53229	1.0734	0.85919	3.496	87.96	-0.2394	-0.0698	0.1696	1316.5517	0.134901	-384.706864	-384.698189	-384.697245	-384.740531	32.302	
C	-0.1486345942	 1.5465813945	 0.016918061	-0.397079
C	 0.0696151277	 0.032115974	-0.0335424549	-0.106306
C	 0.9262897823	-0.4823635618	-1.2076068618	-0.344616
C	 1.9956784788	-1.3479903805	-0.5562468239	 0.182562
C	 1.9097388959	-1.3363623422	 0.7897534797	-0.301321
C	 0.7921526483	-0.4799004294	 1.2292609716	 0.403663
O	 0.4843404763	-0.2092848693	 2.3683030436	-0.346106
C	 2.9473474341	-2.0447054695	-1.332801994	 0.223065
C	 3.7377747788	-2.622055723	-2.0360839772	-0.383878
H	 0.8069354416	 2.0813950172	-0.015075147	 0.119248
H	-0.7572640876	 1.8894294107	-0.825015952	 0.115135
H	-0.6534179006	 1.8156692181	 0.9483593896	 0.142819
H	-0.9094852896	-0.4630091858	-0.0453655165	 0.109377
H	 0.3559379934	-1.0617495765	-1.9409849623	 0.12725
H	 1.4001288758	 0.3359171326	-1.7631744886	 0.128983
H	 2.5636389727	-1.8550271867	 1.477907954	 0.121271
H	 4.4426832963	-3.1377771923	-2.6407821814	 0.205933
58.1364	118.3184	141.4944	224.3415	247.2781	300.9443	374.5768	443.6776	497.5829	558.8471	566.8663	615.8005	635.182	648.6125	707.7912	777.7358	878.5021	909.7904	921.3663	926.9519	1035.7775	1096.7354	1127.7599	1135.1669	1181.2814	1209.1385	1261.4761	1280.7195	1319.4706	1335.5427	1404.7252	1476.2409	1495.7531	1500.3225	1635.6356	1802.8953	2218.7614	3030.7906	3036.2769	3039.8645	3076.939	3104.2449	3124.5073	3231.1924	3499.6101
CC1CC(=CC1=O)C#C	C[C@H]1CC(=CC1=O)C#C	
InChI=1S/C8H8O/c1-3-7-4-6(2)8(9)5-7/h1,5-6H,4H2,2H3	InChI=1S/C8H8O/c1-3-7-4-6(2)8(9)5-7/h1,5-6H,4H2,2H3/t6-/m0/s1
