21
gdb 108126	2.90996	1.49107	1.35007	1.34	81.85	-0.26	0.073	0.3331	1058.0196	0.184923	-387.053757	-387.046137	-387.045193	-387.08577	31.136	
O	-0.1090448871	 1.4707925023	 0.0571547823	-0.425555
C	 0.0035349884	 0.0512487262	 0.1086126966	-0.213688
C	-1.3861353891	-0.5178617096	 0.105317001	 0.403412
C	-2.3383164623	-0.4408371975	 1.3087034486	-0.282898
C	-3.1212163391	-1.5370490631	 0.5412130709	-0.048634
C	-3.6454380237	-0.7296171271	-0.6668172527	-0.207479
C	-2.2448426956	-0.4326014021	-1.2421616521	-0.069998
C	-1.757475508	-1.8665917984	-1.5883309904	-0.245964
C	-1.7338170327	-2.0373593653	-0.0631829237	-0.082615
H	 0.7778514752	 1.8420618907	 0.079782714	 0.285964
H	 0.5762847153	-0.3297658666	-0.7528071426	 0.081846
H	 0.5335034835	-0.2699849455	 1.0204320133	 0.080642
H	-1.8452698319	-0.8236824183	 2.2086121528	 0.086223
H	-2.853505529	 0.496690286	 1.5394618904	 0.093468
H	-3.8057719933	-2.2166174951	 1.0479504168	 0.057601
H	-4.2658369153	-1.3042087697	-1.3611859373	 0.087662
H	-4.2023404451	 0.1595454138	-0.3578405583	 0.092458
H	-2.1271923188	 0.4009069689	-1.9327428354	 0.068032
H	-2.4157578174	-2.4962807561	-2.1959511926	 0.085322
H	-0.7472820686	-1.888288245	-2.0065294935	 0.093838
H	-1.2077666154	-2.8341293185	 0.4635005118	 0.060364
83.7172	151.941	239.2412	303.1088	333.7152	430.5063	448.9642	496.8747	596.1716	680.2279	702.2487	798.1375	828.9032	876.9228	889.6375	911.7908	922.4891	940.9097	961.4787	983.9352	989.6407	1004.6556	1049.8119	1058.7647	1071.9012	1091.853	1136.3425	1142.2499	1158.0167	1190.6089	1199.7663	1228.2188	1236.6265	1239.6614	1248.2978	1264.3688	1289.543	1314.0166	1320.3527	1340.053	1462.7456	1485.9339	1497.7685	1513.0433	1519.0543	2956.7814	2983.0525	3038.4267	3041.6578	3049.9871	3090.2634	3095.414	3098.7952	3107.8932	3119.3865	3129.899	3826.2531
OCC12CC3CC1CC23	OC[C@@]12C[C@H]3C[C@@H]1C[C@@H]23	
InChI=1S/C8H12O/c9-4-8-3-5-1-6(8)2-7(5)8/h5-7,9H,1-4H2	InChI=1S/C8H12O/c9-4-8-3-5-1-6(8)2-7(5)8/h5-7,9H,1-4H2/t5-,6-,7-,8+/m1/s1
