18
gdb 91236	2.57693	1.60063	1.3925	4.4276	71.1	-0.2323	0.0226	0.2549	1007.1848	0.148868	-439.113669	-439.105729	-439.104785	-439.146239	30.414	
C	 0.8548906687	 1.2041425382	 0.2566659655	-0.398168
C	 0.0050709638	-0.0281843248	-0.0544251965	 0.112214
C	 0.4288930163	-0.8080249142	-1.3271800809	-0.255473
C	 1.2938057493	-1.9607578856	-0.8062949825	-0.002201
N	 2.6884976858	-1.6532220611	-0.4691732184	-0.328297
C	 2.5193427419	-1.5936201057	 0.8968037991	 0.396046
O	 3.265923297	-1.3409101996	 1.8015801143	-0.359962
C	 1.0030411592	-1.9737607292	 0.7287699562	-0.041172
O	 0.0457990947	-0.9929743683	 1.0140869335	-0.257685
H	 1.9208323674	 0.9704362185	 0.3099747426	 0.136643
H	 0.7094784293	 1.9624682609	-0.5205330517	 0.111194
H	 0.5511359617	 1.6330160054	 1.2152716554	 0.132079
H	-1.0425994616	 0.2826583225	-0.123030227	 0.088518
H	-0.4521066508	-1.22146672	-1.8271413394	 0.112472
H	 0.9563101273	-0.1753258729	-2.045825594	 0.108283
H	 1.1701616916	-2.8939042466	-1.3601730787	 0.090326
H	 3.492024849	-1.462922317	-1.050560902	 0.249006
H	 0.7154144492	-2.9129663504	 1.2047646344	 0.106177
78.1665	127.7341	207.7792	228.139	342.6788	366.4385	400.7323	429.2138	498.9779	631.9879	692.5209	756.3613	781.9072	814.65	850.8807	867.1387	892.4085	954.2516	976.0968	1037.9879	1052.6647	1097.7397	1112.2395	1144.7289	1162.534	1174.5956	1216.2115	1258.6937	1296.3183	1323.1979	1360.3514	1367.562	1381.0008	1393.6429	1411.7342	1478.0398	1492.7893	1494.8481	1895.383	3041.9939	3046.552	3060.7694	3084.0181	3105.3419	3107.9046	3113.1689	3134.186	3601.3804
CC1CC2NC(=O)C2O1	C[C@H]1C[C@H]2NC(=O)[C@H]2O1	
InChI=1S/C6H9NO2/c1-3-2-4-5(9-3)6(8)7-4/h3-5H,2H2,1H3,(H,7,8)	InChI=1S/C6H9NO2/c1-3-2-4-5(9-3)6(8)7-4/h3-5H,2H2,1H3,(H,7,8)/t3-,4+,5-/m0/s1
