19
gdb 62778	2.94219	1.29302	1.11335	4.8052	79.86	-0.235	0.0154	0.2504	1160.2036	0.158985	-382.037661	-382.028868	-382.027923	-382.070726	33.662	
C	-0.0354579447	 1.5381581615	-0.1229650805	-0.465583
C	 0.0313477306	 0.0289135267	-0.001664732	 0.333023
C	-1.2039287407	-0.6920407514	-0.5206835346	-0.454984
C	 1.3060723668	-0.7387669774	-0.1984265846	-0.065533
N	 2.4598147467	 0.0668136157	 0.2681835838	-0.330003
C	 1.9585371043	-0.0594252439	 1.6757036145	-0.156321
C	 1.9123067202	 1.1826667897	 2.4560020308	 0.303813
N	 1.8767681454	 2.1412658041	 3.1006193942	-0.330865
C	 0.6516045577	-0.7014222175	 1.181286942	-0.139199
H	 0.918743817	 2.009831321	 0.1131793012	 0.152395
H	-0.2989686741	 1.8163804532	-1.1497754506	 0.110908
H	-0.801275028	 1.9508503885	 0.5420224503	 0.122002
H	-1.3837877091	-0.4399017475	-1.5711921862	 0.122345
H	-1.1023850982	-1.7801124587	-0.4484968208	 0.112865
H	-2.0923106777	-0.4007565154	 0.0502305543	 0.125523
H	 1.4296450113	-1.5509692355	-0.9057297471	 0.098786
H	 3.339296947	-0.4261730678	 0.1613582971	 0.233211
H	 2.5344535214	-0.791984756	 2.2517372058	 0.125774
H	 0.112350714	-1.454415849	 1.7416947325	 0.101842
102.6866	133.5893	196.4325	225.1026	256.7479	267.875	324.0374	349.8681	421.2335	496.6522	544.1902	596.4607	642.034	733.3311	781.2024	822.0192	895.9431	920.2724	957.2866	973.3164	1000.8338	1020.0016	1036.4813	1046.4299	1069.8896	1092.0329	1154.0014	1165.7496	1241.5781	1268.2128	1294.0923	1324.8516	1377.516	1406.4857	1421.2218	1436.9966	1481.9214	1489.652	1503.7843	1514.8795	2355.4229	3026.9254	3035.7476	3045.8126	3092.0348	3095.2084	3097.6853	3144.9211	3174.1314	3191.1865	3540.2949
CC1(C)C2NC(C#N)C12	CC1(C)[C@H]2N[C@@H](C#N)[C@@H]12	
InChI=1S/C7H10N2/c1-7(2)5-4(3-8)9-6(5)7/h4-6,9H,1-2H3	InChI=1S/C7H10N2/c1-7(2)5-4(3-8)9-6(5)7/h4-6,9H,1-2H3/t4-,5+,6-/m0/s1
