18
gdb 54197	2.93786	1.30479	1.25638	3.6713	70.88	-0.2485	0.0241	0.2725	1082.4278	0.146052	-439.079629	-439.070622	-439.069678	-439.113645	33.627	
C	-0.0624849818	 1.5420813391	 0.1903602328	-0.457076
C	-0.0018113348	 0.0204069339	 0.0345259839	 0.182401
C	 1.0758662115	-0.5484989326	-0.9781534676	-0.330694
C	 1.7487318932	-1.2475561287	 0.2092711326	 0.042732
O	 2.0948900007	-0.2379589202	 1.1652511046	-0.258879
C	 0.7515417088	-0.7307919273	 1.1559484908	 0.007928
C	-1.4019514334	-0.5602499025	-0.1562589075	 0.344096
N	-1.9410037096	-0.3981366975	-1.4009040038	-0.521394
O	-2.003100698	-1.1162458778	 0.7440186058	-0.364997
H	 0.9310334194	 1.9198886675	 0.4430062163	 0.142897
H	-0.3931666545	 2.0296476277	-0.7331071341	 0.106266
H	-0.7578548326	 1.8245134259	 0.9874852358	 0.132697
H	 0.647777289	-1.2469511431	-1.7010384364	 0.114303
H	 1.693154673	 0.190466844	-1.4962499461	 0.108246
H	 2.3289697782	-2.162429128	 0.2206796923	 0.107091
H	 0.3414361725	-1.1378011139	 2.070181337	 0.12159
H	-1.484622102	 0.1400115918	-2.1162397425	 0.260854
H	-2.8998003098	-0.6725141586	-1.5407972241	 0.261941
35.1669	155.3374	190.9555	195.3474	239.6011	249.8113	294.5906	360.5001	415.7808	501.7316	552.9283	588.8402	638.0838	775.9772	792.0874	836.3996	861.1174	870.734	915.2078	928.9977	986.1658	1001.3157	1049.0183	1082.8846	1117.3405	1148.3441	1162.3747	1212.7621	1227.4768	1247.3755	1273.6406	1361.1722	1379.1672	1408.65	1473.2427	1489.2438	1502.1872	1614.5953	1783.7992	3034.375	3059.4357	3099.4955	3119.9753	3126.6392	3190.2404	3221.9318	3600.4404	3736.8509
CC1(CC2OC12)C(N)=O	C[C@]1(C[C@H]2O[C@@H]12)C(=O)N	
InChI=1S/C6H9NO2/c1-6(5(7)8)2-3-4(6)9-3/h3-4H,2H2,1H3,(H2,7,8)	InChI=1S/C6H9NO2/c1-6(5(7)8)2-3-4(6)9-3/h3-4H,2H2,1H3,(H2,7,8)/t3-,4-,6-/m1/s1
