15
gdb 74162	2.77283	1.34117	0.90976	6.2051	80.18	-0.2069	-0.0203	0.1866	1215.5371	0.112999	-416.862318	-416.853766	-416.852822	-416.895499	31.229	
C	-0.0576805169	 1.5570672451	-0.0060920595	-0.516087
C	-0.0472290537	 0.0631073535	 0.0133787422	 0.200958
C	-1.1750049871	-0.81042282	 0.0360810263	-0.34879
C	-0.6705924715	-2.0860339023	 0.0475093323	 0.388711
N	-1.2542041795	-3.3258365463	 0.1376746358	-0.599248
H	-2.2057587461	-3.3698373707	-0.1941232988	 0.266839
H	-0.6813877347	-4.0811293263	-0.2120245833	 0.269132
O	 0.6741355605	-2.0777041841	 0.0315697223	-0.206064
C	 1.0603903435	-0.7444356403	 0.0106557849	 0.154323
C	 2.433452141	-0.4576351492	-0.0141702978	 0.210448
N	 3.5628799117	-0.1884955962	-0.036753161	-0.362247
H	 0.9580867438	 1.9583965958	-0.0249566894	 0.151138
H	-0.5909850305	 1.9343676486	-0.8854109947	 0.139376
H	-0.5670910132	 1.9570432519	 0.8773211789	 0.140852
H	-2.2161458074	-0.5301268195	 0.0463728119	 0.110659
117.4255	137.544	139.9119	194.7813	249.0215	271.6604	349.5739	411.4338	511.7902	549.5198	564.9899	598.5204	628.5273	671.63	705.9999	753.4006	800.7508	995.0559	1023.1269	1060.7531	1083.4725	1120.0322	1206.8666	1267.0934	1353.0265	1415.7124	1471.1296	1481.9626	1492.0943	1588.9155	1635.2601	1666.681	2320.0934	3036.525	3090.0101	3127.9145	3259.1975	3571.3404	3678.0787
CC1=CC(=[NH2+])O[C-]1C#N	Cc1cc(N)oc1C#N	
InChI=1S/C6H5N2O/c1-4-2-6(8)9-5(4)3-7/h2,8H,1H3/q-1/p+1	InChI=1S/C6H6N2O/c1-4-2-6(8)9-5(4)3-7/h2H,8H2,1H3
