16
gdb 50874	6.18278	0.62371	0.57555	4.4533	74.27	-0.2507	-0.0191	0.2316	1812.4635	0.120275	-437.853254	-437.843423	-437.842478	-437.889831	33.534	
N	-0.0466431259	 1.5106425032	-0.0742452414	-0.525026
C	 0.0489021467	 0.2476847718	-0.1161747386	 0.438361
C	-1.1749849324	-0.6210267775	-0.2554272481	-0.375683
C	-2.4703523281	 0.1469011653	-0.0514714581	 0.184365
O	-3.43861804	 0.00910782	-0.7510617333	-0.243855
O	 1.1627505982	-0.5305897166	-0.0637720567	-0.238995
C	 2.4259331203	 0.1363909523	 0.0252898044	-0.268883
C	 3.4854338711	-0.8574474889	 0.0507354896	 0.27925
C	 4.3844483204	-1.6520061584	 0.0742124577	-0.382717
H	 0.8437288853	 1.9957945018	 0.012680787	 0.231101
H	-1.1916044987	-1.1038182064	-1.2373125678	 0.153218
H	-1.1228824321	-1.4248338989	 0.4918066186	 0.148096
H	-2.4695935501	 0.8314902327	 0.8202413086	 0.097893
H	 2.5525955675	 0.8082540221	-0.8350162807	 0.147125
H	 2.4586679053	 0.7511538631	 0.935633151	 0.145174
H	 5.1768743124	-2.3593133155	 0.0939328578	 0.210574
32.6004	61.157	72.8226	113.8321	144.84	225.7901	311.1665	336.6792	348.5646	458.3486	523.9266	565.8838	626.0304	660.5472	690.824	787.5699	856.6882	927.3406	982.0898	1009.683	1037.5308	1052.7497	1066.8159	1121.2083	1203.8843	1247.2759	1253.8002	1352.7744	1411.3046	1427.8529	1440.0253	1500.1504	1730.2409	1838.7139	2254.0416	2935.6732	3000.4289	3032.2827	3033.958	3095.983	3503.9311	3517.4573
N=C(CC=O)OCC#C	[NH][C](CC=O)OCC#C	
InChI=1S/C6H7NO2/c1-2-5-9-6(7)3-4-8/h1,4,7H,3,5H2	InChI=1S/C6H7NO2/c1-2-5-9-6(7)3-4-8/h1,4,7H,3,5H2
