16
gdb 52369	5.88115	0.61963	0.59505	3.7163	75.39	-0.2527	-0.0374	0.2153	1781.1823	0.121115	-437.883326	-437.873325	-437.872381	-437.920263	33.794	
O	-0.1306394951	 0.339813498	 0.4779074536	-0.233769
C	-0.0322905159	 1.3749781052	-0.1288227063	 0.155571
C	 1.230789763	 2.1987167376	-0.2317751036	-0.270695
C	 1.6778400439	 2.3660216625	-1.6996246293	-0.176944
N	 2.8085539835	 3.2650024185	-1.8476660989	-0.31397
C	 2.6422231885	 4.6186932795	-1.8252788576	 0.28325
O	 1.5540930056	 5.157052725	-1.7172127591	-0.366914
C	 3.8866449178	 5.3655891246	-1.9515599009	 0.221436
C	 4.8972612563	 6.0091926156	-2.0498949518	-0.39356
H	-0.9037275797	 1.8016528582	-0.6783218172	 0.082158
H	 1.0172292534	 3.2001052214	 0.1626022624	 0.149556
H	 2.0122487225	 1.7313649712	 0.3731789596	 0.118938
H	 1.9560061655	 1.398944361	-2.1273141416	 0.122942
H	 0.8510587213	 2.7735241717	-2.2891111692	 0.146674
H	 3.7441135551	 2.8932825382	-1.8690127563	 0.261766
H	 5.7826944644	 6.5909352217	-2.1364078638	 0.213562
40.569	49.7246	63.591	84.156	154.1211	238.035	282.752	291.219	376.8467	438.7697	520.1139	584.4511	589.075	663.7962	682.5485	757.3979	772.2945	834.949	921.3279	981.5783	1075.4397	1091.5458	1136.1216	1215.9076	1255.8679	1280.231	1339.1409	1401.7474	1431.4355	1460.8147	1477.0301	1529.7961	1751.1417	1835.6547	2228.0103	2862.7179	3039.3963	3059.4768	3100.7697	3120.3825	3495.1015	3648.1449
O=CCCNC(=O)C#C	O=CCCNC(=O)C#C	
InChI=1S/C6H7NO2/c1-2-6(9)7-4-3-5-8/h1,5H,3-4H2,(H,7,9)	InChI=1S/C6H7NO2/c1-2-6(9)7-4-3-5-8/h1,5H,3-4H2,(H,7,9)
