20
gdb 56226	4.22895	0.66941	0.62829	3.5746	77.21	-0.2404	-0.0098	0.2305	1824.9285	0.167292	-440.348282	-440.337007	-440.336063	-440.387424	37.708	
C	-0.687808755	 1.1873320304	-0.1966899439	-0.472606
C	 0.0315543382	-0.127739372	 0.0412590838	 0.38522
O	 0.5410900131	-0.3963293645	 1.1066271011	-0.297876
C	 0.0779487737	-1.0926935546	-1.1336405917	-0.296517
C	 0.6433276773	-2.463770966	-0.7505259129	-0.160903
N	 0.7888585089	-3.35455163	-1.8931788112	-0.311416
C	-0.2892702831	-3.9402056229	-2.4872238407	 0.403115
C	 0.0270832364	-4.9095854112	-3.6160648913	-0.48168
O	-1.4320269025	-3.7080229931	-2.1285687524	-0.379437
H	-0.3169162131	 1.6779354545	-1.1031252757	 0.133753
H	-1.756420166	 0.9994130111	-0.3532205933	 0.147349
H	-0.5579785844	 1.8443062671	 0.6641527343	 0.141856
H	-0.9261005046	-1.2136519424	-1.5543547432	 0.152033
H	 0.6835486805	-0.632418583	-1.9273681265	 0.115155
H	 1.6191681843	-2.3480783879	-0.2754792735	 0.119786
H	-0.0221302303	-2.9316256575	-0.0195747374	 0.14082
H	 1.7135898735	-3.5863271588	-2.2122224935	 0.24598
H	-0.5925854951	-4.6578256372	-4.4797005214	 0.151913
H	 1.0784965964	-4.9096773463	-3.9156466194	 0.109971
H	-0.2482622582	-5.9200279757	-3.2999445814	 0.153485
34.0981	36.1387	55.5933	77.2573	89.1208	115.5627	189.1753	251.5648	301.2262	374.0502	410.8128	457.513	482.2368	581.8821	633.5681	648.3483	739.3335	844.8351	867.4857	939.4182	950.5176	995.1904	1051.3005	1069.6835	1100.4692	1126.5979	1180.003	1225.6329	1276.9026	1319.1156	1341.3605	1383.3524	1395.4545	1408.9693	1452.8775	1464.5308	1469.4316	1472.0773	1476.4353	1485.603	1533.8131	1770.6476	1805.5218	3019.7466	3036.6928	3048.5256	3070.7218	3080.0821	3097.7695	3121.5618	3126.0471	3134.377	3151.1239	3661.4534
CC(=O)CCNC(C)=O	CC(=O)CCNC(=O)C	
InChI=1S/C6H11NO2/c1-5(8)3-4-7-6(2)9/h3-4H2,1-2H3,(H,7,9)	InChI=1S/C6H11NO2/c1-5(8)3-4-7-6(2)9/h3-4H2,1-2H3,(H,7,9)
