14
gdb 44021	4.78443	1.61128	1.40933	2.7328	64.68	-0.258	-0.0157	0.2424	868.9832	0.102311	-436.585304	-436.579552	-436.578608	-436.615274	23.839	
O	-0.0517764214	 0.0076160901	-0.0213099763	-0.309975
C	 0.0395899846	 1.1923094995	-0.0235722657	 0.41367
O	-1.0738533363	 2.0506009547	-0.1042682342	-0.315722
C	-0.3804502203	 3.2967644353	-0.0665160407	 0.377963
C	-0.3832314128	 4.8231248698	-0.0774441942	-0.251643
N	 1.1312158845	 4.4690065345	 0.0266769548	-0.182866
C	 0.7717669787	 3.2750266551	 0.9383624027	-0.033486
C	 1.2909358751	 2.1194498632	 0.0539256744	-0.245323
C	 0.8956766104	 3.2620359138	-0.9080455913	-0.03349
H	-0.6462640669	 5.3351350489	-1.0057915782	 0.129388
H	-0.76745401	 5.3478491244	 0.8001704333	 0.129389
H	 0.7343515707	 3.3691801304	 2.0223050576	 0.107327
H	 2.2555893158	 1.6228140388	 0.1221605409	 0.107441
H	 1.003499078	 3.3409608814	-1.9884813833	 0.107327
165.3955	348.5243	409.4741	461.5232	505.5111	622.3089	718.4358	720.5495	776.7221	807.3461	820.5297	841.6408	863.3145	865.9742	920.3598	940.4295	958.403	1034.8831	1065.1559	1086.2346	1112.7973	1133.4006	1175.0775	1180.8061	1194.4192	1235.6618	1260.0148	1298.1983	1308.3404	1514.1083	1920.783	3068.958	3135.9604	3136.0836	3141.4559	3160.562
O=C1OC23CN4C2C1C34	O=C1O[C@@]23CN4[C@@H]2[C@@H]1[C@@H]34	
InChI=1S/C6H5NO2/c8-5-2-3-6(9-5)1-7(3)4(2)6/h2-4H,1H2	InChI=1S/C6H5NO2/c8-5-2-3-6(9-5)1-7(3)4(2)6/h2-4H,1H2/t2-,3-,4+,6+
