16
gdb 110094	2.11713	1.44596	1.16525	4.3932	67.92	-0.2525	-0.0539	0.1986	1110.8002	0.121657	-475.006031	-474.996683	-474.995739	-475.040693	32.037	
O	-0.2059075629	 1.1660467485	 0.7028136879	-0.420713
C	-0.015676375	-0.1271473273	 0.137605097	-0.125026
C	-1.3975091495	-0.6507753039	-0.1711648656	-0.01055
C	-1.7670789431	-2.1370780177	-0.0934616152	-0.138808
C	-0.743913136	-3.1636739627	 0.2981242534	 0.161591
O	 0.0886508258	-3.0255378581	 1.1582352334	-0.249878
N	-2.2444626748	-1.165276417	 0.8593557682	-0.062884
C	-2.0814685558	-1.1610715979	 2.2396917112	 0.161538
O	-2.2740549334	-2.1144573138	 2.9485418891	-0.295536
H	 0.6489289496	 1.4867691173	 1.0059145321	 0.296425
H	 0.5616548196	-0.0745072421	-0.7987371313	 0.099356
H	 0.4998098205	-0.8021675964	 0.8274093201	 0.138673
H	-1.9241698131	-0.0797242388	-0.9354204616	 0.121315
H	-2.5097496269	-2.5025132457	-0.8004213972	 0.114618
H	-0.8089166829	-4.1003933438	-0.2955962822	 0.100824
H	-1.8396229123	-0.1470497506	 2.6039834806	 0.109055
79.2889	116.9233	122.1001	130.0325	182.5233	224.34	249.07	285.1447	317.0851	450.7998	499.6793	624.9609	717.064	816.1214	875.0483	905.3882	995.9803	1028.078	1034.02	1061.5136	1072.7399	1102.2225	1124.3149	1166.1299	1257.9196	1269.9328	1357.8591	1381.0939	1412.1862	1421.4443	1444.4412	1487.5613	1524.3688	1797.3509	1826.4245	2906.1844	2984.2099	2987.934	3083.7372	3116.9748	3131.2014	3829.9138
OCC1C(C=O)N1C=O	OC[C@H]1[C@@H](C=O)N1C=O	
InChI=1S/C5H7NO3/c7-1-4-5(2-8)6(4)3-9/h1,3-5,8H,2H2	InChI=1S/C5H7NO3/c7-1-4-5(2-8)6(4)3-9/h1,3-5,8H,2H2/t4-,5+,6?/m1/s1
