21
gdb 111884	2.57282	1.28853	1.17923	2.4527	77.5	-0.2426	0.0656	0.3082	1172.5352	0.184731	-424.207911	-424.199352	-424.198408	-424.241279	32.869	
O	 0.0056163592	 1.4916945053	 0.2042298199	-0.423273
C	 0.0215641327	 0.1397430449	-0.2471386964	-0.096148
C	-1.3351276442	-0.5152621762	-0.1000699146	-0.045601
C	-1.5542424423	-2.0154393554	-0.1366049285	-0.070538
C	-0.3852090588	-3.0001719506	-0.2081379734	-0.233153
C	 0.1561205032	-3.3251347072	 1.1867840538	-0.069619
O	 0.3776249378	-2.1447017884	 1.9430910814	-0.236774
C	-0.8407333839	-1.5216864005	 2.3178763163	-0.106502
C	-1.774483663	-1.2430221431	 1.1515784085	-0.071571
H	-0.2028651182	 1.4774041786	 1.143612518	 0.279223
H	 0.2933854849	 0.1964344486	-1.3075299564	 0.104203
H	 0.7962290477	-0.4397061992	 0.2672820735	 0.110808
H	-2.1181505341	 0.0675617055	-0.5795613512	 0.088611
H	-2.4475551438	-2.3349124985	-0.6633391093	 0.087046
H	-0.716724095	-3.9286906441	-0.6849197577	 0.099876
H	 0.4254505262	-2.606052356	-0.8304531532	 0.111665
H	-0.5481160816	-3.9823646007	 1.7239239013	 0.087454
H	 1.1203161492	-3.838267469	 1.1293534986	 0.106715
H	-1.3702293317	-2.1615330408	 3.0450100877	 0.092763
H	-0.5550092855	-0.6019682528	 2.8418329148	 0.099006
H	-2.8039065287	-1.0872331107	 1.4627201469	 0.08581
72.2639	115.1237	165.6027	222.298	258.4159	322.8061	354.1798	436.9037	448.9793	527.842	552.6133	723.1537	743.5345	792.5316	822.1303	857.2361	933.9612	956.9628	967.826	1007.3075	1050.2988	1054.304	1067.7511	1094.9782	1112.6977	1137.9922	1146.0968	1150.6515	1214.1653	1247.5346	1255.9855	1270.4823	1321.3885	1350.9432	1354.163	1369.5792	1383.4709	1396.4129	1418.3409	1428.7821	1456.1983	1487.195	1494.748	1502.3744	1514.0352	2953.7332	2967.7039	3032.1761	3040.6541	3047.6528	3073.2514	3076.8777	3087.6709	3131.3883	3139.7582	3156.3962	3818.1943
OCC1C2CCOCC12	OC[C@H]1[C@H]2CCOC[C@@H]12	
InChI=1S/C7H12O2/c8-3-6-5-1-2-9-4-7(5)6/h5-8H,1-4H2	InChI=1S/C7H12O2/c8-3-6-5-1-2-9-4-7(5)6/h5-8H,1-4H2/t5-,6+,7-/m1/s1
