19
gdb 31053	2.47232	1.28894	0.87197	0.7254	81.97	-0.1734	0.0331	0.2064	1351.5762	0.159281	-419.231203	-419.221512	-419.220568	-419.265825	35.214	
C	 0.0858522649	 1.4245141848	 0.1832872412	-0.322902
N	-0.3133656912	 0.0758500991	-0.1927194925	-0.394441
C	 0.4578976187	-0.5917340319	-1.1444343526	 0.279434
C	 0.7558739402	-1.9235761942	-1.1411271437	 0.167597
N	 0.4307349346	-2.9104776165	-0.2097324857	-0.607713
O	 1.4664632564	-2.2441952441	-2.288536926	-0.209111
C	 1.6287727536	-1.0954392494	-2.993691527	 0.366679
C	 2.3936920458	-1.1872776179	-4.2657055657	-0.489097
C	 1.0326785441	-0.0545409277	-2.3487874213	-0.354877
H	 1.117109829	 1.4985115914	 0.5656853191	 0.104645
H	-0.000686976	 2.0937771773	-0.6784777676	 0.128116
H	-0.5965380593	 1.7945200625	 0.9532096708	 0.119592
H	-0.4636520287	-0.5236246223	 0.6095774665	 0.234113
H	-0.2264008635	-3.5984149845	-0.567262211	 0.241493
H	 1.2456158815	-3.4095232617	 0.1341650859	 0.240698
H	 1.925283424	-1.8865685261	-4.968030105	 0.133913
H	 2.4417484776	-0.2055840576	-4.7425150294	 0.131136
H	 3.4193713739	-1.5357255278	-4.0959966067	 0.132909
H	 1.0037025145	 0.9682542065	-2.690395059	 0.097814
68.6812	117.2455	143.6809	187.1864	200.5851	218.258	265.0388	288.3147	322.3893	383.6067	526.4968	576.0207	627.3802	648.1345	694.5121	734.8092	784.3127	792.6383	834.5906	986.6789	1010.3115	1052.7822	1061.7864	1104.2599	1151.724	1169.9551	1192.6154	1211.6776	1250.1296	1321.2803	1413.2927	1441.2534	1472.3483	1475.4526	1485.1468	1493.0016	1498.6366	1519.114	1614.015	1654.3079	1721.3209	2968.356	3026.0254	3069.8259	3074.4663	3111.7984	3125.8025	3253.0852	3476.9301	3538.6108	3556.4024
CNC1=C(N)OC(C)=C1	CNc1c(N)oc(C)c1	
InChI=1S/C6H10N2O/c1-4-3-5(8-2)6(7)9-4/h3,8H,7H2,1-2H3	InChI=1S/C6H10N2O/c1-4-3-5(8-2)6(7)9-4/h3,8H,7H2,1-2H3
