17
gdb 131812	5.69418	0.66487	0.645	2.4959	70.2	-0.2688	-0.0245	0.2443	1697.1119	0.137123	-451.308236	-451.299406	-451.298461	-451.34383	30.379	
O	-0.0484004395	 1.4359865305	-0.0646231284	-0.420046
C	 0.0233596781	 0.0202577512	-0.0288419505	-0.074485
C	-1.4018177283	-0.515199739	 0.0087795276	-0.167443
C	-1.4452558516	-2.0525840334	 0.0632959416	-0.302954
C	-2.8399655239	-2.5818367422	 0.0655375093	 0.388741
N	-3.4765786903	-3.0168250686	 1.1496691667	-0.262157
N	-4.6579485281	-3.3413509763	 0.6399281781	-0.06885
N	-4.7762853948	-3.1370419962	-0.6626728573	-0.100072
N	-3.6249647095	-2.6514212087	-1.0449313512	-0.249524
H	 0.8475865863	 1.7829808429	-0.100410552	 0.286806
H	 0.5459218604	-0.3775425302	-0.9147045052	 0.087268
H	 0.5765300905	-0.3303504999	 0.8586456844	 0.084949
H	-1.9139519499	-0.0968210189	 0.8823319749	 0.116709
H	-1.9392797234	-0.1612043836	-0.8771190156	 0.129179
H	-0.9202178762	-2.4662745716	-0.8048969019	 0.127285
H	-0.9363314779	-2.4148061181	 0.9617961123	 0.124043
H	-5.4080803418	-3.7240847879	 1.195690037	 0.300553
25.3672	82.0116	92.5253	118.6695	251.556	258.0145	332.4101	345.9948	471.8188	576.998	730.1507	740.6865	759.3204	811.0594	868.3739	1023.0476	1031.203	1035.4044	1066.7413	1086.36	1092.6886	1128.1784	1192.7783	1207.1941	1233.5888	1270.1966	1294.1689	1305.7773	1314.9745	1368.6324	1374.6051	1466.0275	1469.9857	1485.2001	1500.6892	1528.8229	1545.7928	2955.5033	2980.9359	3042.057	3052.5508	3083.6839	3106.2338	3650.1393	3831.9562
OCCCC1=NNN=N1	OCCCc1n[nH]nn1	
InChI=1S/C4H8N4O/c9-3-1-2-4-5-7-8-6-4/h9H,1-3H2,(H,5,6,7,8)	InChI=1S/C4H8N4O/c9-3-1-2-4-5-7-8-6-4/h9H,1-3H2,(H,5,6,7,8)
