21
gdb 122358	3.03851	1.00352	0.88403	3.8239	75.54	-0.2267	0.0718	0.2985	1398.7533	0.181526	-461.329515	-461.319751	-461.318807	-461.364542	36.051	
C	-0.7323765547	 0.6274270032	 0.8668697542	-0.237049
O	-0.1776643628	-0.6702379014	 0.8830892366	-0.234743
C	 1.244797397	-0.6825561429	 0.83309641	-0.055442
C	 1.747442301	-2.1190447052	 0.9344529701	-0.25177
C	 1.5334376506	-2.7697533601	 2.2867752957	-0.101653
C	 0.15519024	-3.2013513443	 2.7644676039	 0.032735
O	-0.9330317995	-3.1279898271	 1.891008943	-0.439728
C	 1.1685178561	-4.2466781277	 2.3802567728	 0.08345
O	 0.9056734672	-4.9566030882	 1.2116903137	-0.429557
H	-0.4572406674	 1.1668015557	-0.051232522	 0.115757
H	-1.8186218321	 0.5209492668	 0.9050708652	 0.135806
H	-0.3984022833	 1.2190328614	 1.7320373387	 0.114616
H	 1.5770627293	-0.227406463	-0.113389514	 0.093787
H	 1.6468172851	-0.0679781695	 1.6551202879	 0.091202
H	 1.2783284888	-2.720464135	 0.1507603404	 0.120747
H	 2.8209709608	-2.1116117532	 0.7098828696	 0.106928
H	 2.1854050249	-2.4006900227	 3.0756630477	 0.080085
H	-0.095252223	-3.0531734542	 3.8137593083	 0.08352
H	-0.9148053568	-2.2435456449	 1.4861883102	 0.304628
H	 1.6428156829	-4.8527043546	 3.1470126547	 0.093412
H	 0.0026821059	-4.7029176031	 0.9633726032	 0.29327
58.9748	83.741	135.536	163.3168	230.187	236.7107	267.3296	300.0083	325.3862	457.2921	493.6002	569.7135	617.4855	637.867	687.541	766.7967	777.9506	838.0474	899.9939	982.0346	1002.3952	1031.1386	1068.3692	1080.9427	1118.9657	1147.6601	1155.9221	1170.4967	1188.6849	1211.8826	1238.3063	1258.9238	1288.1767	1334.8216	1343.5717	1379.3002	1404.65	1417.3531	1424.6788	1454.2794	1475.7561	1483.5816	1486.2763	1503.3631	1526.2885	2966.3831	2988.0553	3000.509	3038.1739	3042.5234	3097.9314	3106.5522	3124.09	3128.1859	3147.3272	3622.3835	3693.4157
COCCC1C(O)C1O	COCC[C@H]1[C@@H](O)[C@H]1O	
InChI=1S/C6H12O3/c1-9-3-2-4-5(7)6(4)8/h4-8H,2-3H2,1H3	InChI=1S/C6H12O3/c1-9-3-2-4-5(7)6(4)8/h4-8H,2-3H2,1H3/t4-,5+,6-
