21
gdb 101230	4.00841	0.82884	0.72943	0.8104	75.39	-0.2445	0.0597	0.3042	1586.0755	0.180701	-461.342663	-461.332533	-461.331589	-461.378443	36.716	
C	-0.6153756645	 1.292125156	 0.1979548501	-0.397936
C	 0.1857691473	 0.0116085696	 0.0819833917	 0.171219
C	 0.8340371925	-0.3272144191	-1.2804031502	-0.317501
C	 2.1655709222	-0.2692940945	-0.5089389655	 0.145756
O	 1.4931024925	 0.1191444561	 0.710566448	-0.319753
C	 2.9118113309	-1.5858190672	-0.3468898208	 0.123855
O	 3.4509868908	-1.9200658492	-1.6135566598	-0.45315
C	 4.0223179294	-1.4870092119	 0.6931739635	-0.110558
O	 4.7024924167	-2.7413884909	 0.6596197738	-0.436249
H	-0.0756530288	 2.1313375346	-0.2520002483	 0.118883
H	-1.5806213552	 1.1853196401	-0.3096373782	 0.115541
H	-0.8068841861	 1.5307053172	 1.2490078174	 0.125487
H	-0.3755743429	-0.8242125438	 0.5216914409	 0.075427
H	 0.5858605893	-1.298578992	-1.7099204189	 0.117899
H	 0.7115793178	 0.4454457676	-2.0416177144	 0.106671
H	 2.8696694463	 0.5031594379	-0.8453063893	 0.076769
H	 2.1996653076	-2.3589516377	-0.0101670396	 0.067828
H	 4.1180178069	-2.5958659687	-1.4380519968	 0.291955
H	 4.7016328706	-0.6647824549	 0.4220779657	 0.091068
H	 3.5932841065	-1.2799702716	 1.6818211537	 0.112873
H	 5.5190249802	-2.6618873979	 1.159867587	 0.293915
45.7629	71.5191	126.3922	127.8766	231.096	244.4495	266.1261	278.8672	321.8789	416.4857	437.1265	455.6256	490.5017	564.3604	747.8591	845.4595	888.515	892.2406	912.6324	956.0143	1008.6592	1022.5589	1060.9366	1079.7759	1093.7567	1122.7469	1133.5505	1147.8459	1197.3066	1235.3548	1251.9871	1255.0671	1266.5472	1283.2989	1328.1388	1353.6151	1373.177	1387.5192	1407.6266	1438.3549	1464.0094	1482.0948	1491.1033	1496.3095	1513.0708	2955.9647	2990.1399	3004.3955	3019.2463	3031.3896	3051.1248	3080.3522	3103.6826	3110.4544	3136.2833	3776.7957	3843.5616
CC1CC(O1)C(O)CO	C[C@H]1C[C@@H](O1)[C@@H](O)CO	
InChI=1S/C6H12O3/c1-4-2-6(9-4)5(8)3-7/h4-8H,2-3H2,1H3	InChI=1S/C6H12O3/c1-4-2-6(9-4)5(8)3-7/h4-8H,2-3H2,1H3/t4-,5-,6+/m0/s1
