17
gdb 30903	3.80829	0.85637	0.7019	4.843	80.32	-0.2243	-0.0441	0.1802	1577.818	0.132783	-455.178157	-455.16751	-455.166566	-455.214232	37.748	
N	-0.5199229507	 1.3290156021	 0.9703689075	-0.588206
C	-0.2592080779	 0.135392573	 0.3933602153	 0.462723
C	-0.9534829225	-0.6067198804	-0.5176149035	-0.404674
C	-0.2093020509	-1.8242103058	-0.7240360438	 0.334083
O	-0.444355883	-2.7811444877	-1.449214989	-0.375516
C	 0.990352975	-1.6780289396	 0.1800342644	 0.278524
C	 2.011976623	-2.4933990921	 0.3973631393	-0.437172
N	 1.4851833594	-5.2042665416	-1.5519627413	-0.733612
H	 0.7440081233	-4.5078764657	-1.6497056391	 0.275429
H	 1.8497404146	-5.3692884038	-2.4863434914	 0.22637
H	 1.0310420108	-6.0700269674	-1.2737101726	 0.226576
O	 0.8848127636	-0.4441258393	 0.8327018096	-0.242069
H	 0.2404876748	 1.7896457501	 1.4441875688	 0.275086
H	-1.2185470497	 1.918750904	 0.5517678676	 0.277465
H	-1.882012979	-0.337938309	-0.9936930007	 0.110762
H	 2.7992138189	-2.226056948	 1.0927435716	 0.121481
H	 2.0626280804	-3.4441843688	-0.1275786727	 0.192748
40.1959	105.3895	130.6103	144.1558	162.9087	182.6116	231.6137	304.4349	342.0095	359.413	398.3939	412.5671	442.777	551.1958	624.7927	649.0753	705.5516	730.5982	784.0229	785.9456	818.9846	922.2898	989.7162	1022.9103	1066.4715	1128.0196	1140.3225	1258.88	1270.2562	1423.1445	1455.7874	1610.5001	1673.1439	1679.6296	1707.8625	1736.8606	1772.7226	3127.4689	3238.7773	3267.421	3426.1267	3544.3552	3580.168	3606.2774	3728.7859
NC1=CC([O-])=C(C[NH3+])O1	NC1=CC(=O)C(=C)O1.N	
InChI=1S/C5H8N2O2/c6-2-4-3(8)1-5(7)9-4/h1,8H,2,6-7H2	InChI=1S/C5H5NO2.H3N/c1-3-4(7)2-5(6)8-3;/h2H,1,6H2;1H3
