18
gdb 46133	4.41966	1.00664	0.86076	2.5242	80.15	-0.2595	0.0156	0.275	1313.9518	0.148474	-401.936124	-401.927724	-401.92678	-401.969291	31.972	
N	-0.0497845386	 1.3173265912	-0.2405486711	-0.497758
C	-0.0167726313	 0.0794524647	 0.0167794916	 0.383429
C	-1.2787044163	-0.7486214053	 0.0840192685	-0.283486
C	-1.2183522924	-1.8725664949	 1.1247367033	-0.21852
C	 0.086576639	-2.670665704	 0.934158103	-0.190192
C	 1.2695113262	-1.6934416639	 1.0388145338	-0.081385
O	 1.1715969069	-0.5967336729	 0.1258230166	-0.255205
C	 0.2386252253	-3.7486264939	 1.9024244751	 0.293561
C	 0.3749081172	-4.6176361386	 2.7215634361	-0.428309
H	 0.9026799885	 1.6871961758	-0.2858550661	 0.219341
H	-2.1172483729	-0.0730036883	 0.2577817343	 0.134861
H	-1.4235243131	-1.1927292692	-0.9105473041	 0.12797
H	-1.2361484758	-1.4601998812	 2.140456985	 0.11827
H	-2.0865706822	-2.5300471515	 1.030190743	 0.116437
H	 0.0892053701	-3.0959481829	-0.0792748613	 0.113957
H	 1.3321927314	-1.3093992922	 2.0659150274	 0.11761
H	 2.2119252663	-2.190376423	 0.8012902612	 0.130141
H	 0.4909413318	-5.3949363099	 3.4359154037	 0.199278
70.0774	137.3454	165.71	177.6152	304.1942	380.3905	415.6471	455.4328	497.2226	521.5675	565.0543	639.0207	650.6912	686.0736	777.291	822.4345	912.1532	929.3767	960.6271	972.1633	1026.1817	1063.9372	1099.5826	1109.132	1136.8395	1194.4965	1230.3808	1287.1975	1302.4353	1314.2558	1337.7025	1357.5604	1380.6686	1425.7111	1471.4839	1495.8323	1511.0695	1752.5345	2238.3121	3008.2123	3021.9351	3023.2371	3045.6345	3097.205	3115.1308	3125.2846	3457.2275	3503.4824
N=C1CCC(CO1)C#C	[NH][C]1CC[C@@H](CO1)C#C	
InChI=1S/C7H9NO/c1-2-6-3-4-7(8)9-5-6/h1,6,8H,3-5H2	InChI=1S/C7H9NO/c1-2-6-3-4-7(8)9-5-6/h1,6,8H,3-5H2/t6-/m0/s1
