17
gdb 44885	2.98961	1.58163	1.37441	4.802	72.63	-0.2351	0.0177	0.2528	978.0438	0.138415	-417.980777	-417.973797	-417.972853	-418.011959	28.411	
O	 0.0048319342	 0.0670899605	 0.1630571886	-0.368126
C	 0.0377259277	 1.2610053371	 0.0223575062	 0.43037
N	-1.048947945	 2.1454906399	-0.0761004555	-0.316652
C	-0.39972404	 3.4761168716	-0.0106570254	-0.125174
C	 0.7046962599	 3.2773805049	-1.0836327165	-0.214363
C	 1.228412625	 2.2339638582	-0.0383086293	-0.245249
C	 0.7281498065	 3.2581434226	 1.0213605405	 0.431129
C	 1.4587729949	 4.2345229424	 1.8430116681	-0.340719
N	 0.7029457346	 3.1088727094	 2.4554220313	-0.387908
H	-1.8744637089	 1.9418940983	 0.4696982105	 0.248322
H	-1.0937735263	 4.3154562094	-0.0022524404	 0.083234
H	 0.3740277413	 2.8994212835	-2.0520318702	 0.116535
H	 1.3687411654	 4.1365322447	-1.1871678196	 0.113684
H	 2.2241968117	 1.8005507676	-0.0461519068	 0.096767
H	 2.5373646667	 4.1690411402	 1.9571546933	 0.129097
H	 1.0542319202	 5.2407398394	 1.9288179895	 0.116783
H	-0.176452188	 3.4363121103	 2.8489640658	 0.232272
130.9427	218.7145	246.5872	336.5072	429.5189	456.9533	488.5861	549.9179	622.8623	678.429	750.4202	797.6852	829.9188	867.3636	886.135	908.5283	939.368	973.4975	979.5649	1022.0203	1028.681	1051.1733	1089.1922	1110.1324	1134.1593	1170.8596	1194.6694	1215.8881	1232.4528	1248.0114	1268.0095	1309.9654	1356.9352	1429.9715	1489.6114	1521.5571	1871.9515	3080.6307	3101.8206	3130.3177	3151.0898	3170.9264	3187.0877	3492.5092	3606.2295
O=C1NC2CC1C21CN1	O=C1N[C@@H]2C[C@H]1[C@]12CN1	
InChI=1S/C6H8N2O/c9-5-3-1-4(8-5)6(3)2-7-6/h3-4,7H,1-2H2,(H,8,9)	InChI=1S/C6H8N2O/c9-5-3-1-4(8-5)6(3)2-7-6/h3-4,7H,1-2H2,(H,8,9)/t3-,4-,6+/m1/s1
