18
gdb 54105	2.90503	1.56049	1.22541	2.457	72.2	-0.2367	0.018	0.2547	1041.7434	0.148193	-439.061813	-439.05363	-439.052686	-439.094528	32.313	
N	 0.28238639	 0.7129573497	 1.1469566101	-0.516987
C	 0.0687466649	 0.0316988532	-0.0139626196	 0.298156
O	 0.8322834295	 0.0810099693	-0.9612919353	-0.365475
C	-1.225424339	-0.8004402219	 0.007694584	 0.358143
O	-2.2242693701	-0.0931579363	 0.7363845088	-0.494404
C	-1.6487796302	-1.5716046378	-1.2812257573	-0.104656
C	-0.4829436094	-2.5655711431	-0.9918179753	-0.233038
C	-1.1640375716	-2.3141190025	 0.3854949754	-0.088628
C	-2.5271513179	-2.4728050745	-0.3565861968	-0.239015
H	 1.0710073263	 1.3364116285	 1.1961277248	 0.258799
H	-0.4483297193	 0.7661214955	 1.8358891087	 0.265486
H	-2.4615673286	 0.6929153718	 0.232044149	 0.285619
H	-1.9167793502	-1.1292491722	-2.2413762731	 0.075662
H	-0.6260637901	-3.5713612675	-1.3923568203	 0.09129
H	 0.529999998	-2.2026521865	-1.1419742419	 0.133758
H	-0.880275375	-2.7190381786	 1.3578707858	 0.075497
H	-3.400240986	-2.0177056827	 0.1059524605	 0.1085
H	-2.7367255815	-3.4735037944	-0.7412665975	 0.091295
54.2535	163.0451	243.6623	250.9354	349.8142	374.4326	398.959	406.8969	470.9407	567.5115	609.4744	639.8957	660.4707	743.1653	796.6991	819.8981	896.6102	906.3514	930.5447	987.1375	1023.285	1025.2917	1065.1418	1084.6493	1094.4418	1111.3284	1134.8125	1166.0745	1191.2119	1197.5178	1230.8722	1243.825	1265.0171	1319.4993	1361.5543	1496.3903	1535.0477	1595.2152	1785.7894	3074.0542	3078.9192	3104.7745	3111.094	3162.2673	3182.1392	3598.5984	3738.9468	3800.9029
NC(=O)C1(O)C2CC1C2	NC(=O)[C@@]1(O)[C@H]2C[C@@H]1C2	
InChI=1S/C6H9NO2/c7-5(8)6(9)3-1-4(6)2-3/h3-4,9H,1-2H2,(H2,7,8)	InChI=1S/C6H9NO2/c7-5(8)6(9)3-1-4(6)2-3/h3-4,9H,1-2H2,(H2,7,8)/t3-,4+,6-
