15
gdb 19901	6.09559	1.43726	1.41076	3.6984	67.08	-0.2309	0.004	0.2349	896.4234	0.118677	-362.590111	-362.583573	-362.582629	-362.620883	25.246	
O	 0.079003356	 0.0488188143	 0.4168102806	-0.296581
C	 0.0438965539	 1.1956448039	 0.0398045316	 0.130972
N	 1.0809120424	 1.8602852948	-0.5864806054	-0.077144
C	 2.4697487578	 1.7793616123	-0.1672288734	-0.035671
C	 3.3899815878	 2.376589897	-1.2746439109	-0.078194
C	 2.6061548986	 2.8875085842	-2.4520907956	-0.284197
C	 2.625161551	 3.694650569	-1.1825339078	-0.080454
C	 1.7243283479	 3.0700935588	-0.0756287959	-0.055938
H	-0.8637724876	 1.8274536354	 0.0946941072	 0.083456
H	 2.7576491734	 1.0863218366	 0.6116816911	 0.125134
H	 4.4593911238	 2.217249323	-1.2965876756	 0.101404
H	 3.2124178521	 3.2970260879	-3.253717518	 0.116316
H	 1.7009211263	 2.3836632832	-2.7691763207	 0.137501
H	 3.0161211532	 4.7013228318	-1.1228984297	 0.09988
H	 1.3334192334	 3.5761629879	 0.7984865224	 0.113515
99.7681	175.6836	251.6073	359.1422	418.0924	516.1432	684.8825	721.2131	733.5316	782.3558	823.2817	856.3562	889.0639	916.4455	943.9127	952.0992	1014.3314	1030.3555	1032.6225	1049.0016	1078.3626	1099.6155	1158.5581	1184.6851	1240.0858	1253.5139	1284.6212	1325.6806	1409.3974	1415.1443	1464.6142	1791.828	2947.535	3137.2821	3193.2551	3202.8447	3208.5955	3219.9022	3227.5921
O=CN1C2C3CC3C12	O=CN1[C@H]2[C@H]3C[C@H]3[C@@H]12	
InChI=1S/C6H7NO/c8-2-7-5-3-1-4(3)6(5)7/h2-6H,1H2	InChI=1S/C6H7NO/c8-2-7-5-3-1-4(3)6(5)7/h2-6H,1H2/t3-,4+,5-,6+,7?
