21
gdb 39596	3.24533	1.42086	1.05078	1.2695	83.22	-0.2378	0.0203	0.2581	1158.0016	0.186374	-387.105577	-387.098317	-387.097373	-387.136944	30.18	
C	-0.0239411761	 1.5850458981	-0.0076747912	-0.320232
C	 1.4664939289	 1.8813493168	-0.0720919372	-0.065314
C	 2.1946546915	 0.8671378074	 0.4028299065	-0.122249
C	 1.286049112	-0.2285264487	 0.9147970361	 0.018139
C	 1.6150989983	-1.7137117725	 0.8151012826	-0.12197
O	 0.531047507	-2.4562472083	 1.3655352239	-0.249538
C	-0.7146943769	-2.234979477	 0.718892476	-0.062599
C	-1.1561315214	-0.7569290254	 0.7174770368	-0.257985
C	-0.0081605538	 0.0502013416	 0.1242545155	 0.070171
H	-0.4753566482	 2.066424361	 0.8738676673	 0.104236
H	-0.5800459971	 1.93989979	-0.881979444	 0.099236
H	 1.8629151545	 2.8270038678	-0.4248260284	 0.092717
H	 3.2744148294	 0.8576311812	 0.5033867893	 0.091046
H	 1.0940161463	-0.0427103509	 1.9857536659	 0.085212
H	 1.7939840892	-2.0052037398	-0.2342591976	 0.085299
H	 2.4958567372	-1.9933007728	 1.4016451258	 0.102132
H	-0.6625419056	-2.5905951835	-0.3251376483	 0.083545
H	-1.4362575896	-2.8629182063	 1.2494392924	 0.105063
H	-2.0805135522	-0.6594551596	 0.1351369394	 0.090851
H	-1.3735691774	-0.4312214088	 1.742039364	 0.100077
H	 0.1732997541	-0.3342411203	-0.8920699152	 0.072163
169.3031	182.1046	304.677	330.8842	336.8661	427.5236	444.2695	495.1837	533.1734	629.7602	721.8509	775.181	809.6476	855.659	897.7035	938.3042	962.3133	963.7775	966.3729	997.3275	1039.1953	1069.3126	1099.2305	1111.7769	1120.6785	1150.6846	1158.1951	1190.7974	1202.4654	1254.3518	1284.3622	1291.6312	1305.8966	1327.8455	1345.4868	1349.8241	1382.6576	1383.0768	1407.9459	1418.2079	1482.2352	1488.2724	1493.7777	1504.7339	1658.719	2949.28	2954.1453	2961.07	2979.4509	2994.8222	3025.9522	3063.2865	3070.2556	3075.3666	3085.1321	3180.8301	3205.8545
C1C=CC2COCCC12	C1C=C[C@@H]2COCC[C@@H]12	
InChI=1S/C8H12O/c1-2-7-4-5-9-6-8(7)3-1/h1,3,7-8H,2,4-6H2	InChI=1S/C8H12O/c1-2-7-4-5-9-6-8(7)3-1/h1,3,7-8H,2,4-6H2/t7-,8-/m1/s1
