17
gdb 116666	2.78208	0.91317	0.73902	4.0063	75.44	-0.2274	-0.0392	0.1882	1515.2059	0.131983	-455.154748	-455.14439	-455.143446	-455.191371	34.503	
C	-0.4693435003	 1.3741430868	 0.0872528346	-0.312321
N	 0.3958415638	 0.2319762997	-0.1398727538	-0.288724
C	 1.0466466202	-0.3819473935	 0.8798645211	 0.126479
N	 0.8175302014	-0.0937402018	 2.104911433	-0.274632
C	 1.564853906	-0.7912247451	 3.1067766347	-0.144813
C	 3.0769542765	-0.4802071801	 3.1180386236	 0.15174
O	 3.6653825263	 0.0026251621	 2.1902011134	-0.238467
C	 1.0012800695	-0.4941498489	 4.4952248018	 0.133592
O	 1.4603528314	-0.9494554247	 5.5106641379	-0.255303
H	 0.0798799132	 2.2267628187	 0.5052265218	 0.136348
H	-0.9256021913	 1.6674324895	-0.860107975	 0.122319
H	-1.2574737341	 1.1076296745	 0.7961863544	 0.1484
H	 0.750233649	 0.0806799566	-1.0678721157	 0.253528
H	 1.7475624617	-1.1548945573	 0.5446501584	 0.099322
H	 1.5391637189	-1.8955472246	 3.0142450736	 0.124729
H	 3.5781068553	-0.7687575374	 4.0646460658	 0.114355
H	 0.1362335426	 0.2012115254	 4.4770558504	 0.103449
47.7534	85.8725	111.0011	115.4911	128.602	144.4439	237.9683	259.8435	270.3958	369.1653	429.7579	439.3376	533.9343	657.9687	733.3346	846.4264	868.3283	978.4563	991.6292	1061.1668	1089.7132	1114.2828	1157.4847	1199.9178	1206.2098	1247.6653	1295.1092	1376.5084	1387.1905	1420.9764	1454.2778	1474.4059	1507.0745	1544.4421	1732.89	1812.8735	1843.6163	2909.6777	2924.4739	2933.2712	3028.2691	3056.477	3096.217	3137.4074	3672.6665
CNC=NC(C=O)C=O	CNC=NC(C=O)C=O	
InChI=1S/C5H8N2O2/c1-6-4-7-5(2-8)3-9/h2-5H,1H3,(H,6,7)	InChI=1S/C5H8N2O2/c1-6-4-7-5(2-8)3-9/h2-5H,1H3,(H,6,7)
