18
gdb 70435	2.89695	1.47667	1.26985	2.5502	71.18	-0.2176	0.056	0.2736	1040.0929	0.147339	-438.999946	-438.991944	-438.991	-439.03251	31.033	
O	-0.1866399247	 1.4164028778	-0.0803500737	-0.443177
C	 0.0392390105	 0.0588010053	 0.0061809011	 0.298
C	-0.8487978242	-0.7932913628	 0.8641452442	-0.2999
C	 0.6443644714	-0.8690969649	 1.0530516256	-0.111173
N	 1.1734205992	-1.7677876453	-0.0047914023	-0.373349
C	 0.7302464121	-0.8020389714	-1.0567301103	 0.214164
C	 0.050768192	-1.2738869728	-2.354072626	-0.118391
O	 0.9958826316	-0.5332514392	-3.1621773893	-0.271067
C	 1.7609064717	-0.1576906837	-2.0076861817	-0.142839
H	 0.6597342674	 1.8655849814	-0.1842112171	 0.287421
H	-1.3750188857	-0.2185683574	 1.6198818344	 0.121273
H	-1.3862108613	-1.6495033562	 0.4638055435	 0.115577
H	 1.1523851424	-0.7103377737	 1.9957594734	 0.101424
H	 2.1894423896	-1.8016169451	 0.0230554184	 0.217511
H	 0.1173286922	-2.3550947871	-2.5240272663	 0.108742
H	-0.9798663801	-0.9349634887	-2.511372986	 0.109748
H	 1.8926104112	 0.9310723916	-1.9362381843	 0.089608
H	 2.752372145	-0.6344401578	-1.9884106435	 0.096427
83.3683	130.1775	188.0742	253.6343	328.7217	377.7355	415.1391	447.7155	477.6602	542.5223	647.9026	781.8817	813.5024	858.8798	871.59	909.553	933.2467	949.5541	974.7264	991.891	1018.5676	1037.4513	1042.1647	1090.4615	1106.2747	1149.9114	1153.3339	1178.8395	1200.4283	1232.9244	1288.3601	1303.715	1328.5325	1364.9052	1383.1239	1412.5155	1491.4834	1495.4308	1521.6651	2980.4911	3021.3387	3022.9336	3072.538	3109.9248	3194.2407	3211.049	3491.065	3793.3715
OC12CC1NC21COC1	O[C@]12C[C@H]1NC12COC1	
InChI=1S/C6H9NO2/c8-6-1-4(6)7-5(6)2-9-3-5/h4,7-8H,1-3H2	InChI=1S/C6H9NO2/c8-6-1-4(6)7-5(6)2-9-3-5/h4,7-8H,1-3H2/t4-,6-/m1/s1
