21
gdb 73832	2.71261	1.36412	1.02828	1.8669	85.49	-0.2217	0.0163	0.238	1253.4999	0.180529	-387.104883	-387.095406	-387.094462	-387.138553	35.875	
C	 0.058930627	 1.5222586724	 0.1103598532	-0.491416
C	-0.0307822434	 0.033377708	-0.0082978393	 0.201403
C	-0.0458382812	-0.7163605615	-1.1237300352	 0.233787
C	-0.0158528603	-0.2860065386	-2.557055638	-0.508425
C	-0.0476070631	-2.1666138275	-0.7498533432	-0.124745
O	 1.1316133452	-2.5743333471	-0.0081860475	-0.303518
C	-0.0662141864	-2.2620468325	 0.7184181117	 0.417253
C	-0.671108136	-3.3837052086	 1.5169555643	-0.484565
C	-0.0768010659	-0.8273912674	 1.2447653984	-0.370242
H	 0.982588291	 1.8207467852	 0.6231451325	 0.129353
H	 0.0422684634	 2.0214014637	-0.8612944113	 0.123521
H	-0.770469356	 1.9203637259	 0.709372809	 0.122788
H	-0.0667522421	 0.7995842513	-2.6686816705	 0.123325
H	 0.8994057338	-0.6326902681	-3.053660016	 0.134245
H	-0.8562893226	-0.717638811	-3.115680696	 0.123607
H	-0.4544426776	-2.9287454263	-1.4108380328	 0.082921
H	-0.6206728212	-4.3214586852	 0.9580273649	 0.128298
H	-0.1320309273	-3.5226694099	 2.4610447743	 0.12542
H	-1.7183822395	-3.1724140327	 1.7578874169	 0.118901
H	 0.7796787977	-0.6390211724	 1.9047790161	 0.116446
H	-0.9805646356	-0.6261267079	 1.8370735386	 0.101643
141.5955	142.6104	153.6857	168.7327	194.4867	250.3889	281.0452	313.3475	370.0887	426.8549	443.6426	542.5039	582.1119	618.1307	728.9666	768.7869	853.4762	883.2875	909.5974	943.6254	985.796	1003.8814	1023.1126	1057.0946	1077.0087	1102.2483	1136.2602	1182.8189	1198.5339	1223.8006	1257.2067	1298.3477	1352.7691	1407.2084	1410.9337	1419.65	1445.6083	1464.4587	1478.2962	1481.419	1485.513	1487.3915	1492.8789	1497.1953	1723.7292	3010.0493	3015.9394	3018.2578	3032.7126	3048.8679	3058.197	3061.1852	3093.215	3113.326	3119.7606	3122.1025	3139.2441
CC1=C(C)C2OC2(C)C1	CC1=C(C)[C@H]2O[C@@]2(C)C1	
InChI=1S/C8H12O/c1-5-4-8(3)7(9-8)6(5)2/h7H,4H2,1-3H3	InChI=1S/C8H12O/c1-5-4-8(3)7(9-8)6(5)2/h7H,4H2,1-3H3/t7-,8+/m1/s1
