20
gdb 79360	2.35377	1.90904	1.75127	2.1443	76.2	-0.2208	0.0631	0.284	928.2762	0.17511	-403.144153	-403.136949	-403.136004	-403.175572	29.569	
O	-0.1554906402	 1.4551862887	-0.0474415434	-0.437766
C	-0.0298416311	 0.0416690428	-0.0653335935	 0.128457
C	-1.3947400144	-0.609509365	-0.1721928851	-0.050587
C	-1.9405621616	-0.7715623621	-1.5464493266	-0.001762
C	-1.3106037347	-0.0911611826	-2.7506966825	-0.229453
C	 0.2082102265	 0.1574114926	-2.5667884603	-0.199752
C	 0.6991954835	-0.5548246495	-1.2974514685	-0.106685
C	 0.1647314319	-1.9983376867	-1.2760138749	-0.164177
N	-1.2633279183	-1.904531701	-0.8815839146	-0.1292
H	 0.708560601	 1.8296888394	 0.1508043415	 0.283483
H	 0.4578944077	-0.3043635645	 0.859526675	 0.066921
H	-2.0534680865	-0.5831126558	 0.6904150791	 0.084004
H	-3.0139767461	-0.9290655312	-1.6301792239	 0.085415
H	-1.4946468272	-0.7192373646	-3.6306257365	 0.103911
H	-1.8388428472	 0.8498199908	-2.9356993864	 0.111595
H	 0.7663861458	-0.2093619599	-3.4339175655	 0.090675
H	 0.4090777577	 1.2277615855	-2.478825057	 0.102056
H	 1.7880963077	-0.498852673	-1.2064028127	 0.058038
H	 0.2606823469	-2.5064164819	-2.2417008125	 0.102119
H	 0.6748311985	-2.6127386019	-0.5258132916	 0.102707
90.4623	223.2892	287.4718	291.1867	367.5298	422.4668	521.1133	553.8624	623.5394	664.473	751.9188	770.9675	806.2094	824.6343	887.102	905.8554	926.6076	935.2717	1001.4154	1043.2194	1053.1619	1063.9649	1096.8974	1114.0283	1119.0016	1131.2645	1192.4227	1211.1743	1226.9096	1253.2151	1265.1768	1283.3022	1316.1689	1331.3653	1346.1886	1350.6936	1377.6585	1385.7695	1434.5037	1442.764	1478.796	1494.6385	1508.7855	2973.3085	3028.1303	3035.4721	3049.3457	3065.0758	3065.8984	3076.6428	3100.1388	3121.1655	3154.7249	3817.9253
OC1C2C3CCC1CN23	O[C@H]1[C@H]2[C@H]3CC[C@@H]1CN23	
InChI=1S/C7H11NO/c9-7-4-1-2-5-6(7)8(5)3-4/h4-7,9H,1-3H2	InChI=1S/C7H11NO/c9-7-4-1-2-5-6(7)8(5)3-4/h4-7,9H,1-3H2/t4-,5-,6-,7-,8?/m1/s1
