20
gdb 100657	2.09346	1.20248	1.18015	4.0136	75.69	-0.2687	0.0195	0.2882	1245.2676	0.166828	-440.289213	-440.278218	-440.277274	-440.32518	39.098	
C	 0.0441259083	 1.3738667633	-0.1046166805	-0.237601
O	-0.0186122475	-0.022916762	 0.0854275544	-0.246295
C	-1.3152143007	-0.5842000484	 0.0253730352	 0.124786
C	-1.8421083043	-0.6875389469	-1.4071639405	-0.445437
C	-1.2195646482	-1.9640781299	 0.7397139477	 0.198132
C	-0.8072938675	-1.7969531715	 2.2046325096	-0.407811
O	-2.4897834161	-2.6041703531	 0.7485450716	-0.454492
C	-0.2364077691	-2.8197334094	 0.0326168305	 0.263883
N	 0.4839477783	-3.5175933087	-0.5415005492	-0.34662
H	 1.0789679467	 1.6719033833	 0.0777583034	 0.136862
H	-0.2290272495	 1.6730534584	-1.1258527258	 0.11479
H	-0.61055652	 1.9069114989	 0.6016926525	 0.10846
H	-2.0159575764	 0.0144252451	 0.6299675455	 0.078509
H	-1.1890870073	-1.3199483316	-2.0163261292	 0.148882
H	-2.8571308179	-1.0950171433	-1.4185053419	 0.120255
H	-1.8910387046	 0.3003110188	-1.8718431105	 0.128303
H	-1.5923406158	-1.2416006017	 2.7252078779	 0.128798
H	-0.6987891362	-2.7743903589	 2.6782606422	 0.139594
H	 0.131719017	-1.248007322	 2.2709507718	 0.15088
H	-2.6789811192	-2.9348276104	-0.1361516346	 0.296122
61.7691	72.1016	138.9627	179.4158	187.393	206.7419	227.3795	247.5695	289.6975	316.2118	348.4071	377.5635	421.2219	434.5752	488.9896	603.8226	647.5475	703.9394	861.6859	909.466	950.0344	1031.6629	1049.7491	1083.6681	1137.9629	1151.1155	1177.7538	1181.5741	1214.7606	1238.4201	1329.7991	1364.625	1381.2793	1401.5899	1408.3986	1477.8854	1486.4812	1487.6386	1490.2034	1494.0871	1509.3746	1511.319	2351.9546	2975.0885	2985.6782	3038.9911	3047.3955	3060.2527	3118.5252	3121.2031	3125.6882	3136.5823	3166.4763	3817.192
COC(C)C(C)(O)C#N	CO[C@@H](C)[C@@](C)(O)C#N	
InChI=1S/C6H11NO2/c1-5(9-3)6(2,8)4-7/h5,8H,1-3H3	InChI=1S/C6H11NO2/c1-5(9-3)6(2,8)4-7/h5,8H,1-3H3/t5-,6-/m0/s1
