23
gdb 103145	1.8843	1.48779	1.15496	2.7093	85.7	-0.2313	-0.0139	0.2174	1250.9702	0.203157	-388.314516	-388.304023	-388.303079	-388.349658	38.947	
C	-0.078030359	 1.6428898219	-0.0623996367	-0.398685
C	 0.1035986873	 0.1208666765	-0.008906828	-0.222185
C	 0.8054375335	-0.4817516751	-1.246279195	 0.191991
C	 2.1870626939	 0.1241387298	-1.4892814037	-0.456663
C	 0.7217810165	-2.061194947	-1.3273242235	-0.018451
C	 0.5059762591	-2.8892300475	-0.0675494764	-0.416668
C	-0.4541442526	-1.954759672	-2.3469308968	-0.369532
C	-0.1387254588	-0.4591657197	-2.4667678861	 0.390217
O	-0.4413583165	 0.3954189927	-3.2520750363	-0.316617
H	 0.8797272949	 2.1683923464	-0.0128454825	 0.119343
H	-0.5791520584	 1.9471541483	-0.9860250681	 0.142811
H	-0.6836121336	 1.9840594063	 0.7828126252	 0.111362
H	 0.6787801251	-0.1556651309	 0.8843871598	 0.098929
H	-0.8818130885	-0.3459438758	 0.1101575789	 0.096732
H	 2.8250163666	 0.0105681478	-0.6048748465	 0.1134
H	 2.6882820174	-0.3646285009	-2.3307425487	 0.115204
H	 2.1167355834	 1.1893296536	-1.7245088685	 0.136393
H	 1.6166195197	-2.4254434339	-1.8430132571	 0.077618
H	-0.4045152939	-2.5990804608	 0.4656634593	 0.117248
H	 0.4133646066	-3.9510594418	-0.3200273025	 0.117727
H	 1.3467767303	-2.7896546736	 0.6276006107	 0.118246
H	-0.4008283282	-2.5372846157	-3.2699628312	 0.125138
H	-1.4363824348	-2.1241695184	-1.890079976	 0.126441
65.7675	109.4766	137.9388	173.56	206.745	221.3043	225.927	270.4826	307.4686	308.8358	405.1351	445.946	496.1181	543.7924	650.5169	676.7257	760.1559	801.7957	861.0141	867.1283	910.6675	999.2921	1020.8442	1025.321	1034.152	1060.7849	1091.7721	1105.9265	1153.8358	1174.2782	1214.0615	1224.6556	1237.0715	1282.5916	1333.3432	1359.6815	1376.6698	1403.0325	1413.8717	1415.817	1441.7608	1479.1484	1489.4016	1494.5848	1497.4349	1501.906	1505.0403	1513.9822	1874.6552	3014.8287	3028.4464	3031.2915	3042.4034	3043.2073	3046.6599	3050.8132	3092.9459	3094.2853	3103.3819	3108.2149	3109.96	3116.2335	3121.457
CCC1(C)C(C)CC1=O	CC[C@@]1(C)[C@@H](C)CC1=O	
InChI=1S/C8H14O/c1-4-8(3)6(2)5-7(8)9/h6H,4-5H2,1-3H3	InChI=1S/C8H14O/c1-4-8(3)6(2)5-7(8)9/h6H,4-5H2,1-3H3/t6-,8-/m0/s1
