18
gdb 67053	2.87057	1.72128	1.43078	3.1916	77.28	-0.2402	0.0018	0.2421	964.5893	0.147827	-401.849028	-401.841569	-401.840625	-401.880478	30.331	
C	-0.0880008235	 1.5508868919	-0.1520109831	-0.467349
C	-0.1014825098	 0.0317693505	-0.0345435155	 0.165932
C	-1.1671681003	-0.6448876024	 0.919727539	-0.116524
C	-0.33268321	-1.9333432711	 0.8896853852	-0.260015
C	 0.6862544723	-0.7600323716	 1.0209647164	 0.293305
C	-0.2291650948	-0.1619715052	 2.1350282982	-0.308521
N	 1.8801464875	-0.7487855415	 0.1745441156	-0.423972
C	 1.0421397286	-0.5580881554	-0.9746660395	 0.307971
O	 1.2698775358	-0.6967839621	-2.137810639	-0.325691
H	 0.9287082869	 1.956815344	-0.1096094052	 0.13256
H	-0.5097413843	 1.8338590266	-1.122403175	 0.136256
H	-0.6904604757	 2.0377727308	 0.6194132152	 0.117507
H	-2.2552813436	-0.5581569136	 0.8909607012	 0.085176
H	-0.4251082058	-2.6030905107	 1.7471694322	 0.093215
H	-0.3156515579	-2.4797036109	-0.0568942499	 0.109076
H	-0.1655482221	 0.9072418588	 2.3288232575	 0.115946
H	-0.3319573831	-0.7326558957	 3.0616557502	 0.103161
H	 2.6142592897	-1.4498365622	 0.1898767563	 0.241967
142.1983	174.0935	254.0781	292.6762	323.931	424.7556	497.4511	531.1102	581.4476	612.9024	650.3191	730.4227	742.3886	785.4711	817.2586	854.4898	897.157	927.9609	978.0505	997.2456	1021.0028	1057.777	1073.5861	1113.3289	1119.2125	1140.8927	1161.3642	1175.738	1208.6041	1212.1716	1231.5674	1250.7623	1317.03	1406.2122	1484.721	1492.2455	1507.1179	1535.9748	1887.2663	3032.4064	3057.8306	3069.4962	3092.5864	3094.6323	3110.5612	3127.0415	3160.2426	3531.6535
CC12C3CC1(C3)NC2=O	C[C@]12[C@H]3C[C@@]1(C3)NC2=O	
InChI=1S/C7H9NO/c1-6-4-2-7(6,3-4)8-5(6)9/h4H,2-3H2,1H3,(H,8,9)	InChI=1S/C7H9NO/c1-6-4-2-7(6,3-4)8-5(6)9/h4H,2-3H2,1H3,(H,8,9)/t4-,6-,7-/m1/s1
