17
gdb 74084	2.97619	1.37572	1.01588	4.7207	77.52	-0.2357	-0.051	0.1848	1169.096	0.135004	-421.847976	-421.839741	-421.838797	-421.880996	30.729	
C	 0.0121078925	 1.4693569538	 0.0529497285	-0.484771
C	 0.012041858	-0.0210452492	-0.0153779312	 0.308225
C	 0.0087463125	-0.7821199512	-1.1251621607	-0.291852
C	-0.0003926118	-2.215233341	-0.7877300418	 0.340906
O	 0.0016652772	-3.1718777015	-1.5278550806	-0.338963
C	-0.0288456914	-2.2831170783	 0.7367205666	 0.322195
C	-0.6311330635	-3.4399086121	 1.415120932	-0.232442
O	 0.7824011004	-3.2839953939	 1.3519373094	-0.259301
C	 0.0113178779	-0.8542966875	 1.252037576	-0.411163
H	 0.8897965235	 1.8307935691	 0.6032586998	 0.142752
H	 0.01260758	 1.9237024786	-0.9403003842	 0.137477
H	-0.8663966601	 1.8313211008	 0.6018036793	 0.140421
H	 0.0133037457	-0.4210255611	-2.1460884399	 0.115974
H	-1.0784898128	-3.3046923345	 2.3993699118	 0.11397
H	-1.0350521527	-4.2451265975	 0.8039141731	 0.135725
H	 0.9162075301	-0.679049856	 1.846609679	 0.138454
H	-0.8420737755	-0.5998672185	 1.8927157629	 0.122392
70.7437	138.6459	179.2261	245.7905	270.3309	288.301	375.437	442.6951	466.0603	536.2035	621.1832	718.7119	737.0139	847.4734	869.2087	879.5428	902.3612	947.9459	995.4727	1010.9943	1069.4345	1120.5219	1131.4158	1155.5707	1173.2304	1182.6313	1244.8374	1269.2095	1337.8022	1407.7606	1417.3411	1466.2574	1475.5136	1477.255	1512.204	1671.3016	1816.2574	3022.681	3030.0065	3062.6098	3072.4218	3081.3922	3125.223	3178.6901	3214.8793
CC1=CC(=O)C2(CO2)C1	CC1=CC(=O)[C@]2(CO2)C1	
InChI=1S/C7H8O2/c1-5-2-6(8)7(3-5)4-9-7/h2H,3-4H2,1H3	InChI=1S/C7H8O2/c1-5-2-6(8)7(3-5)4-9-7/h2H,3-4H2,1H3/t7-/m1/s1
