20
gdb 65097	3.0369	1.28607	1.24323	1.3172	78.47	-0.243	0.0782	0.3212	1135.2637	0.170446	-403.086956	-403.078398	-403.077453	-403.120301	33.019	
C	 0.5161341989	 0.3586513669	 1.3951922243	-0.479167
C	-0.0012489646	 0.0906250959	-0.0042366811	 0.16767
C	 0.6260663934	 0.7819867631	-1.1584099248	-0.271709
N	 0.8412500659	-0.6636160254	-0.9545931785	-0.347268
C	-1.4394786422	-0.2874179431	-0.0658365507	 0.448594
C	-2.0836525801	-1.6430663321	 0.2863241555	-0.302193
C	-3.2346002564	-1.302695455	-0.7246467165	-0.237605
C	-2.5268462905	 0.0288781554	-1.0073890905	-0.051598
O	-2.4148075327	 0.7229172605	 0.2441208211	-0.304053
H	 1.570770157	 0.6517468866	 1.3740010952	 0.110506
H	-0.0552834357	 1.1641914456	 1.8664890804	 0.144357
H	 0.4223352465	-0.5324274353	 2.0262801461	 0.125253
H	 0.0346901731	 1.036161528	-2.0327343755	 0.117805
H	 1.4438961368	 1.4672707825	-0.9502299822	 0.111157
H	 1.7596034788	-0.8198966094	-0.5445393929	 0.227727
H	-1.4786254593	-2.4908339377	-0.0406077084	 0.120234
H	-2.367152159	-1.7664461169	 1.3341214806	 0.102697
H	-3.2468374135	-1.9750527097	-1.5853249303	 0.108673
H	-4.2430269415	-1.2098566053	-0.3151055573	 0.109362
H	-2.5371877049	 0.6363482154	-1.9056663543	 0.099559
51.0572	140.401	176.2399	225.7684	263.6257	298.2344	347.7845	448.7558	488.8555	513.2775	548.1514	735.5911	776.0426	811.3843	853.299	883.8736	921.4856	927.4387	941.9057	946.0617	975.003	989.4489	1023.6105	1049.5703	1066.4236	1106.0205	1131.8997	1151.1446	1166.8331	1213.3396	1215.5454	1241.6084	1269.2869	1272.4742	1322.043	1370.2427	1412.3488	1462.1444	1467.8097	1483.7841	1493.6307	1507.8051	1520.506	3029.4812	3066.2293	3073.1217	3095.5273	3109.7353	3110.603	3120.0718	3137.0195	3180.123	3196.5007	3487.1048
CC1(CN1)C12CCC1O2	C[C@]1(CN1)[C@]12CC[C@H]1O2	
InChI=1S/C7H11NO/c1-6(4-8-6)7-3-2-5(7)9-7/h5,8H,2-4H2,1H3	InChI=1S/C7H11NO/c1-6(4-8-6)7-3-2-5(7)9-7/h5,8H,2-4H2,1H3/t5-,6+,7+/m1/s1
