17
gdb 11804	3.60579	1.78667	1.34536	3.6543	70.55	-0.2285	0.0386	0.2671	934.6773	0.141605	-363.869697	-363.861741	-363.860797	-363.902072	29.214	
C	 0.0163448535	 1.396049847	 0.062082888	-0.354425
N	 0.027127529	-0.0410485283	 0.0373276938	-0.113147
C	 0.005696406	-0.9375300325	-1.0057740056	 0.414221
O	-0.0281184422	-0.7824055092	-2.1989039699	-0.377064
C	 0.0419728386	-2.1333769417	-0.020105868	-0.480983
C	 0.0631073674	-1.0562571644	 1.0760466773	 0.403008
C	 0.8593726083	-0.9999238731	 2.3399919006	-0.332008
C	-0.6654557688	-1.0118120001	 2.3807520514	-0.331962
H	 0.9173529986	 1.8010012571	 0.5393599939	 0.129111
H	-0.0150397118	 1.7402107619	-0.9744088368	 0.165407
H	-0.8633131791	 1.7867284559	 0.5885483618	 0.129106
H	-0.8484551038	-2.7645234733	-0.0475571005	 0.132077
H	 0.9398723545	-2.7498171532	-0.0961685679	 0.132077
H	 1.3935910219	-1.8914388927	 2.6514228456	 0.123044
H	 1.3572268251	-0.0704175116	 2.596797549	 0.119251
H	-1.1630114313	-0.0898206387	 2.6638808068	 0.119241
H	-1.1684677059	-1.9112536631	 2.7200456707	 0.123045
98.7713	121.2068	145.4701	204.3162	278.6658	292.9872	454.6499	520.0932	527.4556	557.0792	715.8324	768.0452	817.4692	840.231	911.9326	937.1503	975.5292	1023.3584	1048.4802	1067.5682	1073.4933	1131.4574	1151.4442	1181.5729	1184.1672	1196.641	1258.634	1391.8232	1413.0339	1446.2444	1457.3294	1467.4146	1483.4713	1508.9279	1518.0557	1880.3814	3012.5677	3062.527	3080.6606	3127.0257	3129.3631	3130.2878	3138.2619	3206.0548	3220.1768
CN1C(=O)CC11CC1	CN1C(=O)CC21CC2	
InChI=1S/C6H9NO/c1-7-5(8)4-6(7)2-3-6/h2-4H2,1H3	InChI=1S/C6H9NO/c1-7-5(8)4-6(7)2-3-6/h2-4H2,1H3
