17
gdb 13837	4.45518	1.39589	1.30331	3.3735	69.54	-0.2357	0.0267	0.2625	984.5313	0.14333	-363.912469	-363.904431	-363.903486	-363.946277	29.053	
N	-0.2167561819	 1.3012764728	 0.6913367877	-0.526709
C	 0.0444238382	 0.1957310024	-0.0654678596	 0.394891
O	 1.1542801798	-0.039481229	-0.5064917982	-0.370566
C	-1.1526241033	-0.7097758059	-0.3371821375	-0.076535
C	-1.6292899129	-0.6030754982	-1.8198532589	-0.260752
C	-1.9930854565	-2.0260529289	-2.1694070741	-0.061863
C	-1.559608281	-2.892803085	-1.2577096016	-0.06071
C	-0.822340028	-2.2133810862	-0.1296123092	-0.263603
H	 0.5287295419	 1.9600372006	 0.8475605896	 0.25892
H	-1.1381326717	 1.5230072163	 1.0232891028	 0.257248
H	-1.989027265	-0.4372923888	 0.3152875438	 0.063357
H	-2.4626164234	 0.0992955272	-1.9340405121	 0.098744
H	-0.8174101771	-0.241464273	-2.4647369636	 0.128682
H	-2.5043882529	-2.2830715536	-3.0904964161	 0.091169
H	-1.6644330998	-3.9705485231	-1.3160399509	 0.091896
H	 0.2596582714	-2.3742445375	-0.2150437938	 0.136853
H	-1.1249048877	-2.5676674002	 0.8621448618	 0.098976
20.9202	88.6682	140.2325	215.0041	288.0438	377.5807	389.1616	581.2107	589.699	627.5461	724.6779	762.1997	789.6588	816.5527	919.499	958.5419	970.9833	973.4411	982.7854	1034.3883	1064.9294	1093.3774	1130.0766	1160.7132	1209.5076	1266.5256	1296.4046	1312.1801	1334.067	1363.3629	1409.353	1481.1442	1487.1048	1616.8038	1692.8646	1791.3304	3022.3605	3030.2622	3035.3634	3060.8444	3069.8192	3182.2223	3207.8883	3602.945	3742.5702
NC(=O)C1CC=CC1	NC(=O)[C@H]1CC=CC1	
InChI=1S/C6H9NO/c7-6(8)5-3-1-2-4-5/h1-2,5H,3-4H2,(H2,7,8)	InChI=1S/C6H9NO/c7-6(8)5-3-1-2-4-5/h1-2,5H,3-4H2,(H2,7,8)
