13
gdb 19502	3.60509	1.99794	1.84404	4.1318	57.63	-0.2572	0.0204	0.2775	748.6622	0.096467	-398.578605	-398.572053	-398.571109	-398.6097	23.595	
N	 0.225283154	-1.1877443985	 0.1350961658	-0.346549
C	 0.1424994348	-0.0341305031	 0.093852405	 0.325306
C	 0.047199915	 1.3920561478	 0.0477968328	-0.292443
C	 0.4639375001	 2.2816874366	 1.2383127493	 0.058445
O	 1.2334780375	 1.7230774732	 2.2523720128	-0.247599
C	 2.4325153952	 1.2193024224	 1.6669724079	 0.007985
O	 2.5294035662	 1.7481164205	 0.3459340034	-0.247599
C	 1.2965769819	 2.2977710565	 0.0134161986	 0.058442
H	-0.7965058066	 1.7726815742	-0.5207279322	 0.142067
H	-0.1983757974	 3.0672872673	 1.5785562601	 0.134938
H	 3.2924885434	 1.5560989551	 2.2559723751	 0.128373
H	 2.3919614047	 0.1254682207	 1.6250385381	 0.143698
H	 1.3595939613	 3.0973807373	-0.7133883166	 0.134936
119.3095	127.1424	151.751	345.9801	395.3474	628.5963	644.9943	722.2654	726.9638	773.1258	780.356	930.2047	937.8641	994.2978	1020.4304	1039.1113	1086.3051	1129.8193	1131.4337	1149.9765	1208.7168	1217.8918	1306.0439	1347.8402	1400.6047	1442.8389	1550.8827	2350.4006	3034.9577	3085.3796	3158.0218	3198.3355	3207.0041
N#CC1C2OCOC12	N#C[C@H]1[C@H]2OCO[C@@H]12	
InChI=1S/C5H5NO2/c6-1-3-4-5(3)8-2-7-4/h3-5H,2H2	InChI=1S/C5H5NO2/c6-1-3-4-5(3)8-2-7-4/h3-5H,2H2/t3-,4+,5-
