17
gdb 33351	6.00364	0.68196	0.64382	1.4728	97.81	-0.2373	-0.0109	0.2264	1711.7315	0.135596	-347.51387	-347.505277	-347.504333	-347.547721	32.096	
C	-0.0418869585	-3.8204348948	-0.0990026757	-0.569736
C	-0.0209744375	-2.6131271665	-0.0705490395	 0.299869
C	 0.0022473957	-1.25301479	-0.03969997	-0.298175
C	 0.0253058142	-0.0427283593	-0.0061426196	 0.448758
C	 0.0525689885	 1.4117609629	 0.0314220729	-0.245206
C	-0.6192382675	 2.0254070095	 1.3030639235	-0.215176
C	 0.2065145715	 3.2940938979	 1.6262476292	-0.259125
C	 1.5226654691	 3.0308288302	 0.9342673219	-0.065958
C	 1.4516152041	 2.0163803639	 0.0776864055	-0.056846
H	-0.0596047072	-4.8814890671	-0.122729814	 0.188285
H	-0.4604349531	 1.7773614248	-0.8725782085	 0.115069
H	-1.6820786987	 2.2230367213	 1.1498123649	 0.108527
H	-0.529271162	 1.3075035401	 2.1222602483	 0.122819
H	-0.2647452701	 4.2021572025	 1.2243280167	 0.110474
H	 0.3137756694	 3.4558280917	 2.7043537855	 0.109511
H	 2.4038768327	 3.6404726484	 1.1011837943	 0.099455
H	 2.2485631592	 1.6533310446	-0.5595548654	 0.107455
62.8232	77.4232	137.9384	221.2529	246.1788	376.1178	422.6438	477.3508	518.1422	538.8649	569.6529	590.8361	598.3753	735.8192	763.671	806.8192	850.6283	900.3807	925.1914	972.3258	993.5073	1023.6737	1065.5517	1125.2136	1162.4147	1190.0318	1219.4088	1269.8868	1296.1776	1314.5494	1334.525	1375.2555	1483.4277	1498.8835	1687.2764	2180.1296	2359.6027	2971.5023	3010.2564	3057.9117	3073.4035	3120.5055	3188.7783	3219.1498	3506.2597
C#CC#CC1CCC=C1	C#CC#C[C@H]1CCC=C1	
InChI=1S/C9H8/c1-2-3-6-9-7-4-5-8-9/h1,4,7,9H,5,8H2	InChI=1S/C9H8/c1-2-3-6-9-7-4-5-8-9/h1,4,7,9H,5,8H2/t9-/m1/s1
