16
gdb 6271	3.51058	1.28576	1.08357	2.0644	62.89	-0.2631	-0.0824	0.1807	1121.5814	0.127115	-420.918571	-420.909512	-420.908568	-420.95296	30.952	
C	-0.1737676544	 1.4970705232	-0.11442073	-0.398588
C	 0.0389149111	-0.0060914387	 0.0229611238	 0.138641
C	-1.2488459159	-0.81299777	-0.0111398158	-0.393093
O	 0.8404530598	-0.4836955523	-1.1014112136	-0.230196
C	 2.1582941216	-0.3601117425	-1.0025446067	 0.339104
O	 2.7786202358	 0.1119310979	-0.0798299971	-0.348992
C	 2.8914734154	-0.9060654823	-2.2354082897	 0.093132
O	 2.3550856636	-1.3666019628	-3.2027545796	-0.212284
H	 0.7802252643	 2.0277760057	-0.081011012	 0.142391
H	-0.6796892992	 1.7294334281	-1.0565330396	 0.129122
H	-0.7953197598	 1.8598877915	 0.7098557429	 0.124923
H	 0.6072005806	-0.2164121895	 0.9335194888	 0.113942
H	-1.796065759	-0.6309907709	-0.9408701581	 0.133286
H	-1.039642121	-1.8832241822	 0.0624979128	 0.130375
H	-1.8885630714	-0.5265243007	 0.8286530185	 0.124172
H	 3.9903877685	-0.8155743645	-2.1195755746	 0.114064
54.2991	87.8597	132.6089	145.3776	216.1564	242.3257	264.6301	355.5177	403.5426	459.9971	516.9742	611.5697	684.0737	846.7538	888.9768	936.3374	951.9182	978.8165	1029.4194	1134.4567	1164.2631	1204.4291	1309.0644	1365.6347	1376.7112	1388.2598	1402.4387	1420.6454	1481.1651	1486.2037	1494.9969	1510.2424	1798.2305	1843.2958	2943.2958	3043.7761	3047.8495	3074.3628	3115.1495	3124.2739	3126.5821	3134.3594
CC(C)OC(=O)C=O	CC(C)OC(=O)C=O	
InChI=1S/C5H8O3/c1-4(2)8-5(7)3-6/h3-4H,1-2H3	InChI=1S/C5H8O3/c1-4(2)8-5(7)3-6/h3-4H,1-2H3
