24
gdb 117997	3.22104	0.76621	0.64993	4.0793	90.45	-0.3081	0.0388	0.3469	1789.1411	0.215561	-368.447212	-368.435872	-368.434928	-368.484269	40.641	
C	 0.0065805128	 1.6115083006	 0.0460530855	-0.381153
C	-0.1020541289	 0.0850852553	-0.0187834846	-0.180598
C	 0.6753953051	-0.5079774485	-1.2020546319	-0.179131
C	 0.7212379201	-2.047523948	-1.2370537387	 0.02539
C	-0.6836797613	-2.6636176426	-1.3088208488	-0.414573
C	 1.6009634477	-2.551250163	-2.4223667655	-0.13148
C	 3.0482022747	-2.0143455617	-2.4259438642	-0.406092
C	 1.6440322628	-4.0191607316	-2.4386307639	 0.272561
N	 1.6973183091	-5.1741523194	-2.4415471449	-0.337072
H	 1.0487867433	 1.931498163	 0.1554319479	 0.114674
H	-0.386992953	 2.0755695867	-0.8652379201	 0.115428
H	-0.5563485389	 2.0144879165	 0.8934531373	 0.114934
H	 0.2770614512	-0.3493004359	 0.9159495392	 0.098202
H	-1.1586608401	-0.1972107648	-0.0805132203	 0.104506
H	 0.2403989596	-0.1395646468	-2.1431001616	 0.092095
H	 1.6965553484	-0.1128268271	-1.1627267368	 0.098068
H	 1.204117324	-2.3953121255	-0.312917032	 0.087904
H	-0.6375554737	-3.7540680278	-1.3678103863	 0.144766
H	-1.2744128029	-2.4057891579	-0.4269306355	 0.12303
H	-1.224758491	-2.3002462056	-2.1911897313	 0.113379
H	 1.1130364542	-2.2416788549	-3.357290125	 0.121759
H	 3.6315829276	-2.4935641149	-3.2158239335	 0.137935
H	 3.0631649608	-0.9373504386	-2.601429071	 0.130646
H	 3.5398596584	-2.2194064676	-1.4702563439	 0.134824
45.897	68.3624	102.1117	121.2699	182.6904	206.4623	221.9947	244.0517	267.3981	297.474	333.3478	379.7594	417.9807	443.3801	569.4377	595.7052	746.3408	800.3115	849.9642	872.9561	904.5694	940.1075	981.7338	1009.6719	1039.5193	1062.7806	1072.6346	1111.2962	1146.5089	1177.9081	1189.1325	1250.2037	1288.5434	1313.8206	1328.7599	1331.7311	1364.4376	1366.2919	1393.8548	1413.0195	1414.7331	1419.17	1479.7712	1493.034	1495.9137	1498.5356	1500.3385	1503.6064	1508.6303	1511.8478	2351.746	2998.2174	3006.2848	3019.7527	3023.6159	3030.1208	3034.9922	3049.6899	3054.6067	3072.2452	3097.9681	3104.386	3107.4467	3123.9409	3127.852	3138.3279
CCCC(C)C(C)C#N	CCC[C@@H](C)[C@@H](C)C#N	
InChI=1S/C8H15N/c1-4-5-7(2)8(3)6-9/h7-8H,4-5H2,1-3H3	InChI=1S/C8H15N/c1-4-5-7(2)8(3)6-9/h7-8H,4-5H2,1-3H3/t7-,8+/m1/s1
