21
gdb 31781	2.96222	1.2703	0.96024	1.3278	88.14	-0.1798	0.0524	0.2323	1296.3766	0.182798	-383.302717	-383.292789	-383.291845	-383.337646	36.113	
C	 0.3310964641	 0.8193752968	 0.6683104866	-0.324179
N	-0.1343702211	 0.0994720917	-0.5237782769	-0.384223
C	-1.3653948611	-0.5742687823	-0.3821662	 0.247013
C	-2.6702219016	-0.1570003544	-0.5288884051	-0.223045
C	-3.5039226182	-1.281159315	-0.2843668164	-0.22415
C	-2.6936519805	-2.3540315302	 0.0155044456	 0.283959
C	-3.0479836182	-3.7616869718	 0.3636027473	-0.503076
N	-1.3844701652	-1.9207261841	-0.0541634761	-0.058311
C	-0.2085508049	-2.73824719	 0.1498554717	-0.344839
H	 1.27891728	 1.3172212411	 0.4409266032	 0.113854
H	-0.3850653691	 1.5694979277	 1.0366621704	 0.110187
H	 0.512222814	 0.1050695166	 1.4771502969	 0.125409
H	-0.1760387215	 0.7305980905	-1.3143299755	 0.231885
H	-2.9827890966	 0.8450244905	-0.7824248099	 0.080058
H	-4.5831305315	-1.3077062504	-0.3157619986	 0.083489
H	-2.6611672718	-4.4890389954	-0.3624242041	 0.12225
H	-2.6668654851	-4.0600883502	 1.3489463967	 0.121549
H	-4.1351986569	-3.8681209584	 0.3848280148	 0.131465
H	-0.2788904552	-3.6667516016	-0.4248573629	 0.130137
H	 0.6567119442	-2.1703708607	-0.1950305558	 0.156071
H	-0.0687592737	-2.9974315406	 1.2063781782	 0.124498
54.881	109.6451	144.6617	168.5454	186.7763	196.6028	241.4989	278.5222	323.8962	396.732	500.6121	578.6753	638.17	667.7879	696.2077	739.1066	755.7908	779.3949	804.8046	955.3413	1000.739	1039.2201	1056.7864	1060.8073	1136.7135	1154.6472	1158.0965	1184.7608	1223.2063	1250.0762	1337.2892	1395.6811	1415.5662	1425.3374	1451.6463	1452.4787	1477.5063	1481.1767	1488.4786	1500.8434	1508.3531	1515.4413	1518.0536	1552.8515	1614.0853	2987.4976	3008.1654	3023.928	3048.5058	3071.3217	3083.5759	3108.1712	3117.8202	3143.9622	3231.6517	3247.3879	3549.6219
CNC1=CC=C(C)N1C	CNc1ccc(C)n1C	
InChI=1S/C7H12N2/c1-6-4-5-7(8-2)9(6)3/h4-5,8H,1-3H3	InChI=1S/C7H12N2/c1-6-4-5-7(8-2)9(6)3/h4-5,8H,1-3H3
