18
gdb 104384	2.64007	1.52836	1.20115	2.8105	68.73	-0.2593	0.0111	0.2704	1065.3457	0.148952	-476.243735	-476.235475	-476.23453	-476.27638	31.881	
O	-0.1152477513	 1.4484086592	-0.4124325456	-0.433381
C	 0.0351353706	 0.0762508181	-0.0989794026	-0.131232
C	-1.3476884674	-0.5583880782	 0.0678769746	 0.277058
O	-2.1386811467	-0.2875954069	-1.0826486731	-0.477547
C	-1.3982788528	-2.0609322143	 0.3390045652	-0.279008
C	-2.712855303	-2.200470339	 1.1155942589	-0.095547
O	-2.8495429328	-0.9627932009	 1.8539660237	-0.240212
C	-2.0772707793	-0.0044219435	 1.296995409	 0.4284
N	-1.9737976835	 1.1904089402	 1.7075690922	-0.580656
H	-0.5886923667	 1.8334500231	 0.3480006125	 0.302019
H	 0.5509526971	-0.3929674244	-0.9433788513	 0.112314
H	 0.6377088928	-0.0792165722	 0.8080326562	 0.094364
H	-1.9196828586	 0.6266542514	-1.318908801	 0.291044
H	-1.3847621082	-2.6369976034	-0.5869436508	 0.129151
H	-0.5511364456	-2.3618773888	 0.9639305665	 0.115697
H	-3.5719473281	-2.2998084473	 0.4453564594	 0.135172
H	-2.7228592913	-3.0158022418	 1.8411034923	 0.124048
H	-2.5674782853	 1.3712000685	 2.5173279339	 0.228315
99.2375	178.5078	190.8075	209.2497	275.5177	334.7593	365.0197	415.1731	509.5747	514.7246	656.8925	676.2165	711.6351	725.3568	743.2476	852.8666	877.0418	928.2343	956.6834	1002.7138	1016.8338	1055.009	1071.4821	1111.1831	1155.4711	1180.5423	1214.2048	1241.5101	1267.8957	1311.5506	1334.6439	1373.0498	1404.2613	1434.4934	1473.9591	1477.0042	1494.1521	1516.291	1758.6304	2998.0379	3059.2023	3062.7413	3077.3075	3120.6259	3137.2384	3483.535	3605.1758	3722.8864
OCC1(O)CCOC1=N	OC[C@@]1(O)CCO[C]1[NH]	
InChI=1S/C5H9NO3/c6-4-5(8,3-7)1-2-9-4/h6-8H,1-3H2	InChI=1S/C5H9NO3/c6-4-5(8,3-7)1-2-9-4/h6-8H,1-3H2/t5-/m0/s1
