20
gdb 26221	3.68146	0.99924	0.8398	0.819	82.78	-0.1743	0.0608	0.2351	1409.7613	0.170604	-403.192389	-403.182801	-403.181856	-403.226848	36.094	
C	 0.0521579604	 1.5928118378	 0.1784341866	-0.384686
C	-0.0539910967	 0.0742162667	-0.0079970917	-0.090242
C	 0.7881383445	-0.6641917539	 1.0535856021	-0.375065
C	-1.4857803835	-0.3795709806	-0.0004883973	 0.319114
C	-2.6596790887	 0.2541367576	 0.324707032	-0.221222
C	-3.7410535396	-0.6725785515	 0.1663091601	-0.303397
C	-3.1766629779	-1.849146629	-0.2563729547	 0.365232
O	-3.6796041006	-3.0706003658	-0.5776549657	-0.438501
N	-1.8259042411	-1.680432908	-0.3558941366	-0.355949
H	 1.0971360108	 1.9130841094	 0.1263484806	 0.106961
H	-0.5105510622	 2.1281918586	-0.5913518112	 0.119553
H	-0.3404736994	 1.8937854198	 1.1556849777	 0.119997
H	 0.3775714991	-0.1684040614	-0.9920523994	 0.073368
H	 0.4235062639	-0.4325069243	 2.0597956824	 0.12124
H	 0.7389024378	-1.7505637335	 0.9270602714	 0.101657
H	 1.8409704468	-0.3678189537	 0.9919315647	 0.107541
H	-2.7509529046	 1.2801941513	 0.6452766447	 0.088345
H	-4.7907106118	-0.4901379943	 0.3372838329	 0.081727
H	-4.6341919766	-3.0392560584	-0.4657237724	 0.305861
H	-1.1922911107	-2.3982563668	-0.6625406363	 0.258467
41.7146	128.5814	179.5641	223.5274	233.0401	260.7547	282.8561	314.4335	377.4925	422.4779	433.9258	489.4628	610.2173	647.507	685.0483	701.2285	728.9247	804.9682	877.4421	928.4417	964.7849	982.9615	1024.4683	1053.082	1100.025	1121.3172	1162.2358	1171.825	1219.6521	1261.3412	1307.0439	1341.6707	1357.2547	1395.8231	1417.2056	1426.4926	1485.0231	1491.5211	1500.1691	1511.0224	1532.5695	1569.8495	1644.8895	2969.774	3026.8601	3036.0735	3095.3463	3100.522	3105.3598	3113.6441	3240.5102	3256.4281	3678.1921	3849.9215
CC(C)C1=CC=C(O)N1	CC(C)c1ccc(O)[nH]1	
InChI=1S/C7H11NO/c1-5(2)6-3-4-7(9)8-6/h3-5,8-9H,1-2H3	InChI=1S/C7H11NO/c1-5(2)6-3-4-7(9)8-6/h3-5,8-9H,1-2H3
