25
gdb 93670	2.3871	1.31857	1.16959	1.349	88.01	-0.259	0.0666	0.3256	1259.8965	0.228383	-389.516668	-389.506379	-389.505435	-389.551287	40.08	
C	-0.4742151005	 1.4019945163	 0.08379794	-0.438053
C	 0.0431184398	-0.0358314726	 0.101763175	 0.030652
C	 0.768635073	-0.4793632677	-1.1818016989	-0.205158
C	 1.5733449528	-1.7360204968	-0.7733611746	-0.255103
C	 1.6705052297	-1.7269453708	 0.7919990871	 0.321182
C	 0.7866844707	-2.8394632619	 1.3886597516	-0.434562
C	 3.1125533152	-1.9248295295	 1.2780511239	-0.436692
C	 1.0898789675	-0.3431794197	 1.1937785926	 0.085915
O	 2.1498621995	 0.6120266476	 1.1780888836	-0.446329
H	 0.3374436551	 2.1133380152	-0.1057968347	 0.113163
H	-1.2151427447	 1.5419516412	-0.7098139628	 0.118307
H	-0.9550679917	 1.6725868755	 1.0314284013	 0.107661
H	-0.8115138974	-0.7031422731	 0.2756210157	 0.070564
H	 0.0799206684	-0.663142278	-2.011745693	 0.086588
H	 1.4499038095	 0.3181690932	-1.4962568179	 0.103833
H	 1.0762768427	-2.6503289495	-1.1139660948	 0.089945
H	 2.5674182531	-1.7346168526	-1.2289513092	 0.096223
H	 1.1332638753	-3.8218359057	 1.0503719961	 0.112232
H	 0.8247844359	-2.8313737698	 2.4836873172	 0.108684
H	-0.2617042609	-2.742183455	 1.08828064	 0.109558
H	 3.7751619719	-1.1583541472	 0.8732598836	 0.128489
H	 3.1757109188	-1.8785763833	 2.3708668576	 0.103867
H	 3.4831540317	-2.9068849739	 0.9632268053	 0.100252
H	 0.6391642653	-0.3803000355	 2.1974829473	 0.04609
H	 1.7880574194	 1.4591332038	 1.4539601278	 0.282691
45.5491	136.1889	213.3083	223.5853	242.473	262.5127	268.9017	305.5084	325.3131	340.6232	355.9041	400.0911	478.6956	516.3498	580.7225	628.9681	793.0075	803.464	858.8921	885.8357	925.7998	944.2581	955.4965	961.8194	1000.5236	1015.1329	1022.3591	1069.0597	1096.463	1141.5154	1165.2766	1188.8942	1216.1252	1244.0719	1253.1826	1285.8387	1308.1899	1319.9965	1333.8153	1346.7054	1384.1733	1398.1052	1401.0781	1413.5842	1430.4451	1485.0714	1486.5067	1488.122	1496.8718	1503.1691	1506.2197	1511.4429	1512.5746	2977.2089	3015.5167	3023.3204	3025.7665	3031.2771	3042.4613	3049.2599	3077.9108	3086.9469	3088.1917	3094.465	3095.8176	3097.0737	3100.5726	3134.9533	3829.9541
CC1CCC(C)(C)C1O	C[C@H]1CCC(C)(C)[C@H]1O	
InChI=1S/C8H16O/c1-6-4-5-8(2,3)7(6)9/h6-7,9H,4-5H2,1-3H3	InChI=1S/C8H16O/c1-6-4-5-8(2,3)7(6)9/h6-7,9H,4-5H2,1-3H3/t6-,7-/m0/s1
