19
gdb 103103	1.88501	1.47643	1.12758	2.3492	76.85	-0.2402	0.0279	0.2682	1191.1459	0.157722	-419.203378	-419.193272	-419.192327	-419.238231	37.	
C	-0.2814789881	 1.5334609588	-0.0846970158	-0.405997
C	 0.1172838186	 0.0621405339	 0.0824619504	-0.24473
C	 0.7691063236	-0.5215649426	-1.1571764078	 0.389671
O	 1.9282524188	 0.1346586913	-1.5828681324	-0.461319
C	 0.8124424403	-1.9820789474	-1.4126404275	-0.030859
N	 0.32396115	-2.9419846358	-0.4754994271	-0.515098
C	-0.1017520564	-1.0834410699	-2.3097144829	-0.317068
C	-1.5161490084	-1.1902404234	-2.1596974573	 0.288074
N	-2.6581697244	-1.3025666246	-1.9950450988	-0.355201
H	 0.5899126831	 2.168730338	-0.2781246824	 0.113805
H	-0.9940824672	 1.6602477735	-0.9059719606	 0.136034
H	-0.7535495714	 1.9086142054	 0.8270460484	 0.12895
H	 0.8241832864	-0.045352138	 0.9130450456	 0.121644
H	-0.7737267321	-0.5162782717	 0.3436507818	 0.117069
H	 1.6921234115	 1.0364913186	-1.829089689	 0.287831
H	 1.7063784502	-2.3107512513	-1.9326221601	 0.126141
H	-0.5297417688	-2.6308805821	-0.0247349475	 0.247315
H	 0.1019922757	-3.8127609662	-0.9483053349	 0.245333
H	 0.2566513385	-0.8777132068	-3.3121735121	 0.128406
66.3802	115.1828	131.848	176.0154	205.1614	225.3978	260.6085	290.7122	337.836	389.0357	409.8192	440.413	540.3956	580.2981	645.3218	678.7785	778.2797	798.1446	855.8384	883.0768	906.1831	993.1784	1030.6155	1052.9886	1079.0788	1093.5861	1162.8015	1186.401	1262.6477	1288.2563	1295.658	1314.5983	1353.037	1391.2452	1408.9213	1470.9467	1494.7006	1503.9692	1508.6774	1664.7718	2331.6267	3034.2117	3046.8717	3085.8385	3107.2647	3118.4029	3171.2665	3178.9261	3507.3807	3585.395	3794.0772
CCC1(O)C(N)C1C#N	CC[C@@]1(O)[C@@H](N)[C@H]1C#N	
InChI=1S/C6H10N2O/c1-2-6(9)4(3-7)5(6)8/h4-5,9H,2,8H2,1H3	InChI=1S/C6H10N2O/c1-2-6(9)4(3-7)5(6)8/h4-5,9H,2,8H2,1H3/t4-,5+,6+/m1/s1
