21
gdb 121529	5.227	0.4372	0.42341	3.0861	85.68	-0.2489	0.0415	0.2904	2581.4631	0.179362	-424.193198	-424.181656	-424.180711	-424.232217	39.58	
C	-0.3532930262	 1.454733859	 0.1060190006	-0.381905
C	 0.0601930409	-0.0097306089	-0.1011305499	-0.016726
O	 0.7802725997	-0.1796660478	-1.321994993	-0.415352
C	 0.8084162558	-0.527184256	 1.0493265225	 0.144158
C	 1.4612559704	-0.9178520163	 1.9841129961	-0.027425
C	 2.2297779625	-1.4306302597	 3.1128282166	-0.359271
C	 1.9557625371	-2.9179674494	 3.4060230511	-0.155283
C	 2.7710747585	-3.4302956553	 4.5861052136	-0.073399
O	 2.4460648376	-4.7973745065	 4.7762176799	-0.421087
H	 0.5307480318	 2.0849001968	 0.2476874911	 0.114355
H	-0.8996394796	 1.806780851	-0.7729965036	 0.123235
H	-0.9896908398	 1.5587302189	 0.9897412163	 0.122642
H	-0.8462200407	-0.6126144162	-0.2364388505	 0.115584
H	 1.6612278137	 0.1863149364	-1.185998688	 0.280444
H	 3.3011457487	-1.2866512393	 2.9163487724	 0.127318
H	 2.0070819163	-0.832127484	 4.0068688928	 0.127819
H	 0.8915649682	-3.0640798548	 3.617057228	 0.119082
H	 2.1891626007	-3.5190762945	 2.5215037752	 0.120956
H	 3.8467585976	-3.2993441847	 4.3800104861	 0.084336
H	 2.5392128744	-2.8347624718	 5.4851593883	 0.084174
H	 2.9588528822	-5.1293130868	 5.5187670943	 0.286344
16.5326	60.3824	66.2466	113.2771	132.9951	160.0349	240.1001	252.4335	258.1989	274.4831	335.0097	380.6603	408.8863	506.3318	545.5982	569.7401	735.3345	755.3411	864.4568	896.9635	1005.7591	1019.2762	1031.4815	1069.2762	1086.6891	1095.433	1117.3121	1178.419	1213.698	1230.6294	1280.2542	1299.327	1303.659	1312.0672	1341.2107	1374.433	1398.476	1417.6076	1464.5925	1473.0144	1488.0193	1491.2004	1498.4655	1528.0707	2359.9088	2952.9743	2977.9926	3007.2593	3034.3309	3034.8152	3039.0515	3055.8179	3102.0593	3113.4925	3125.6434	3805.5015	3830.7016
CC(O)C#CCCCO	C[C@@H](O)C#CCCCO	
InChI=1S/C7H12O2/c1-7(9)5-3-2-4-6-8/h7-9H,2,4,6H2,1H3	InChI=1S/C7H12O2/c1-7(9)5-3-2-4-6-8/h7-9H,2,4,6H2,1H3/t7-/m1/s1
