12
gdb 13746	3.22459	1.69641	1.43377	2.5541	55.25	-0.2692	-0.028	0.2412	863.0789	0.083096	-414.673301	-414.6657	-414.664756	-414.70563	26.7	
N	 0.5584803415	 0.8397857559	 0.5295952924	-0.519414
C	-0.2701670249	 0.2525140985	-0.3644569771	 0.373238
O	-0.3728841765	 0.5455107559	-1.537753248	-0.350948
C	-1.117167619	-0.8681939808	 0.2061282977	-0.024
O	-0.9086373078	-1.2737125673	 1.55889322	-0.231277
C	-2.1472950288	-0.6340820472	 1.2478681022	-0.095002
C	-2.3714557768	 0.6717635534	 1.8301625233	 0.308478
N	-2.5786526194	 1.7011196692	 2.3122495298	-0.315954
H	 1.1071678118	 1.6320720533	 0.2395417276	 0.275751
H	 0.5907751357	 0.5278460154	 1.4855254629	 0.280125
H	-1.3108709897	-1.6682070086	-0.5049808108	 0.142394
H	-3.018725486	-1.2854898576	 1.26492607	 0.15661
71.1973	111.6254	198.5511	274.5746	277.2924	316.3843	467.6777	512.4641	550.3371	593.8352	626.4036	761.2495	783.1761	873.6031	939.4759	979.2953	1073.2329	1101.5767	1128.537	1254.7562	1339.6692	1385.9658	1429.145	1607.771	1814.4883	2365.0924	3140.2882	3155.8194	3602.6162	3738.9344
NC(=O)C1OC1C#N	NC(=O)[C@H]1O[C@H]1C#N	
InChI=1S/C4H4N2O2/c5-1-2-3(8-2)4(6)7/h2-3H,(H2,6,7)	InChI=1S/C4H4N2O2/c5-1-2-3(8-2)4(6)7/h2-3H,(H2,6,7)/t2-,3-/m0/s1
