18
gdb 114478	3.37618	1.31994	1.2141	4.1519	70.76	-0.2358	0.0562	0.292	1072.5513	0.148579	-438.989842	-438.982243	-438.981299	-439.022172	29.794	
O	-0.0667439868	 1.5265196605	-0.159137055	-0.425161
C	 0.0990147064	 0.156835078	 0.1830691661	-0.093693
C	-1.2348194652	-0.5590412943	 0.0854145779	 0.123827
O	-1.7780949343	-0.5407751704	-1.2752938279	-0.32337
C	-2.082966124	-1.9449075074	-1.2155158846	 0.132673
C	-1.0529476819	-2.9330188854	-1.8234250774	-0.081912
N	 0.2929472627	-2.3690164146	-1.5998131787	-0.315852
C	-0.3876510826	-3.06317719	-0.4866436179	-0.065937
C	-1.4104415435	-2.0983080242	 0.1643693724	-0.134918
H	-0.4028311855	 1.5345262902	-1.0628374561	 0.292529
H	 0.8399571114	-0.333528461	-0.4542519573	 0.120292
H	 0.448436205	 0.1319188991	 1.2220618066	 0.096964
H	-1.9479431855	-0.0525954704	 0.7509347746	 0.081107
H	-3.1335958383	-2.1750304362	-1.4096455199	 0.081494
H	-1.221979478	-3.6640115238	-2.6049948699	 0.094667
H	 0.9584063533	-3.0299795489	-1.9996750349	 0.234828
H	 0.0656762482	-3.92673436	-0.015610034	 0.098079
H	-1.9400172711	-2.5072422213	 1.022986116	 0.084384
73.0782	150.5258	180.2153	294.0151	339.0717	412.5093	456.9849	495.6345	621.6428	707.0531	752.6164	788.453	800.9999	858.6628	882.0013	888.7403	931.5945	947.7525	988.9651	1019.4309	1026.3984	1044.1299	1070.8288	1107.4924	1121.7471	1135.8963	1182.8773	1205.9335	1212.9843	1218.6619	1281.193	1282.6574	1326.5982	1337.6411	1355.6638	1379.5454	1405.6106	1428.8704	1502.0917	3004.5377	3041.2796	3077.974	3101.1652	3129.9212	3180.1939	3193.3789	3474.1097	3799.1547
OCC1OC2C3NC3C12	OC[C@H]1O[C@H]2[C@H]3N[C@H]3[C@@H]12	
InChI=1S/C6H9NO2/c8-1-2-3-4-5(7-4)6(3)9-2/h2-8H,1H2	InChI=1S/C6H9NO2/c8-1-2-3-4-5(7-4)6(3)9-2/h2-8H,1H2/t2-,3-,4+,5+,6-/m1/s1
