15
gdb 132964	3.2077	1.3396	0.95053	2.5872	72.39	-0.2118	-0.0455	0.1663	1137.205	0.112902	-461.974365	-461.96663	-461.965686	-462.006915	28.827	
C	-0.0109818412	 1.4547358409	 0.0070913202	-0.331881
N	 0.0037985132	-0.0046658992	-0.0285446185	-0.133712
C	-0.106186745	-0.678017851	-1.211647692	-0.087641
C	-0.0917787531	-2.0356041025	-1.2355882432	 0.185279
F	-0.2001829437	-2.6874040821	-2.400664573	-0.079965
C	 0.0375626653	-2.7652183167	-0.0321776206	-0.167773
C	 0.1473191655	-2.0955462723	 1.1483465048	-0.242102
C	 0.1371723348	-0.6483675681	 1.2253115392	 0.431914
O	 0.2307899371	 0.0236246683	 2.2437330045	-0.415654
H	 0.914314122	 1.824979135	 0.4546152583	 0.159363
H	-0.1169169822	 1.8384509912	-1.0079897341	 0.127328
H	-0.8387329235	 1.8030102564	 0.6292427935	 0.159333
H	-0.2037716199	-0.0901138308	-2.1148349963	 0.141734
H	 0.0466783436	-3.8493439663	-0.0750350441	 0.126843
H	 0.2481647871	-2.6149513226	 2.0927595013	 0.126932
82.8333	132.9233	191.1301	311.0339	339.1877	366.1007	419.7865	454.2468	518.1019	538.6187	605.3843	719.0534	742.5581	812.8372	852.3886	872.5445	962.3599	988.894	1067.5479	1124.3361	1152.8797	1161.5422	1208.619	1298.9731	1317.4921	1412.253	1457.407	1464.8851	1482.7578	1511.4758	1575.85	1682.6449	1760.992	3058.2233	3125.3969	3154.7827	3189.8582	3218.7054	3221.7574
CN1C=C(F)C=CC1=O	Cn1cc(F)ccc1=O	
InChI=1S/C6H6FNO/c1-8-4-5(7)2-3-6(8)9/h2-4H,1H3	InChI=1S/C6H6FNO/c1-8-4-5(7)2-3-6(8)9/h2-4H,1H3
