20
gdb 56671	2.49922	1.28395	1.12492	5.3424	78.63	-0.2584	0.0321	0.2905	1198.0533	0.169544	-403.155159	-403.145506	-403.144561	-403.189766	35.278	
C	 0.6361870336	-0.0109029448	-1.5213106198	-0.407738
C	 0.054665729	 0.0666233087	-0.0958329033	-0.182354
C	 0.0522012754	 1.4535906866	 0.382034492	 0.285224
N	 0.0572776672	 2.555805835	 0.7295696377	-0.330459
C	-1.3586689327	-0.5571682682	 0.0358636393	 0.433962
C	-2.4209879029	 0.1596165767	-0.7841058348	-0.451288
C	-1.3653802956	-2.1074729659	-0.0444315266	-0.340053
C	-1.7884087326	-2.0441886662	 1.4353236374	-0.071907
O	-1.7322605735	-0.6026417328	 1.4380667579	-0.314821
H	 1.6748418767	 0.3273392249	-1.5288383314	 0.141685
H	 0.6086285824	-1.0425854626	-1.8834391513	 0.127195
H	 0.0727295588	 0.6165202347	-2.2153349727	 0.143419
H	 0.703772634	-0.4998225745	 0.5826236181	 0.124513
H	-2.2100261981	 0.095921658	-1.8563662466	 0.120144
H	-3.3970090784	-0.2967304644	-0.6001812425	 0.124735
H	-2.4777484142	 1.2147160618	-0.5011600077	 0.152674
H	-2.1001530732	-2.5283328753	-0.7321076692	 0.115568
H	-0.394420338	-2.5700029027	-0.231685893	 0.110893
H	-2.7966757173	-2.4130231689	 1.656335132	 0.109936
H	-1.0871033306	-2.4829372599	 2.1544253545	 0.108671
63.2067	90.4353	137.8605	206.7398	211.7427	234.4914	257.1777	316.8351	359.3075	394.443	438.9628	516.7782	578.5236	709.0293	785.3526	821.5316	871.3139	898.6779	927.5712	965.8974	996.8863	1019.556	1034.0503	1071.5372	1114.4958	1157.1687	1163.0193	1194.703	1209.3364	1262.0851	1274.4275	1313.7618	1345.8009	1357.7118	1409.3619	1414.5413	1483.0357	1489.6015	1490.8095	1496.4566	1505.9746	1533.7448	2356.8868	3024.3491	3041.0805	3043.0304	3053.126	3063.655	3078.1117	3115.3945	3124.3292	3126.4791	3133.9128	3137.0643
CC(C#N)C1(C)CCO1	C[C@@H](C#N)[C@@]1(C)CCO1	
InChI=1S/C7H11NO/c1-6(5-8)7(2)3-4-9-7/h6H,3-4H2,1-2H3	InChI=1S/C7H11NO/c1-6(5-8)7(2)3-4-9-7/h6H,3-4H2,1-2H3/t6-,7+/m0/s1
