21
gdb 101774	2.63273	1.07611	0.94321	4.4722	76.24	-0.2412	-0.0271	0.2141	1366.5799	0.178848	-461.370522	-461.359794	-461.35885	-461.407525	37.937	
C	 0.1278355563	 1.3595341745	 0.6107170768	-0.425285
C	-0.1604309618	 0.04478987	-0.1100915298	 0.114556
C	 0.9811782604	-0.3566925305	-1.0496080091	-0.042753
O	 2.2315331975	-0.3924479303	-0.4064593035	-0.43538
O	-0.3686117561	-1.1084315375	 0.7368059692	-0.272557
C	-0.5341708038	-0.9886890786	 2.1119606071	-0.169698
C	 0.7751032421	-1.0639086041	 2.9039438756	 0.370713
C	 0.6407419371	-0.9742984838	 4.4106690143	-0.479764
O	 1.8495864301	-1.1928146086	 2.3610046796	-0.286213
H	 1.0506495236	 1.2986725209	 1.1911741914	 0.143866
H	 0.264076497	 2.1404334506	-0.1435226317	 0.126852
H	-0.6967377783	 1.6758965418	 1.2553567577	 0.111355
H	-1.0760323897	 0.1607778459	-0.710030943	 0.074312
H	 0.7188995116	-1.3284089734	-1.4983894841	 0.087335
H	 1.0546684946	 0.375705301	-1.862961036	 0.092008
H	 2.1263508162	-0.904547069	 0.411555445	 0.301731
H	-1.0813346362	-0.0877856771	 2.4259783185	 0.114308
H	-1.1502264636	-1.8396015883	 2.4398378231	 0.130173
H	-0.1512977378	-1.6344029163	 4.779207439	 0.140622
H	 1.590294097	-1.2280493106	 4.8826837798	 0.153496
H	 0.3635300237	 0.0482608935	 4.6934417901	 0.150325
39.748	46.0921	88.1791	111.6889	156.3203	233.2981	246.2117	272.1146	324.522	350.7733	392.4268	454.2033	503.1509	611.6275	621.7323	657.4191	770.1237	796.8519	858.1889	894.7419	926.4205	966.9611	1004.2998	1084.6087	1095.6669	1137.8184	1144.1036	1180.0948	1211.0704	1251.3113	1298.7465	1349.4132	1373.3789	1382.4026	1390.4319	1393.6642	1421.0506	1446.3288	1452.1829	1464.1806	1475.5031	1493.8511	1498.5449	1505.8399	1809.3147	2972.5293	2989.0754	2996.807	3027.6115	3038.6837	3049.5999	3054.691	3100.1068	3111.4826	3141.0584	3155.7037	3681.0687
CC(CO)OCC(C)=O	C[C@@H](CO)OCC(=O)C	
InChI=1S/C6H12O3/c1-5(8)4-9-6(2)3-7/h6-7H,3-4H2,1-2H3	InChI=1S/C6H12O3/c1-5(8)4-9-6(2)3-7/h6-7H,3-4H2,1-2H3/t6-/m0/s1
