23
gdb 89463	2.18339	1.50988	1.37812	1.7705	85.06	-0.2343	0.0787	0.3131	1147.8607	0.204026	-388.277188	-388.267493	-388.266549	-388.311284	37.221	
C	-0.638445401	 1.3048899065	-0.0425891104	-0.418257
C	 0.0937716573	-0.0304542454	-0.0551510286	-0.012437
C	 1.4413364188	-0.1359683471	-0.8401868393	-0.298069
C	 2.1273757396	-0.7273179625	 0.4186183149	 0.419868
C	 2.9639422938	-1.9746846393	 0.3062461867	-0.478267
O	 2.7763672188	 0.3130278778	 1.1929530479	-0.332891
C	 1.6055140023	 0.5027219129	 2.0170282322	-0.130299
C	 0.7992601023	-0.5555285916	 1.238352782	 0.233095
C	 0.1069817365	-1.6397203117	 2.0339814626	-0.500617
H	 0.0245684181	 2.1312670309	 0.233621184	 0.121732
H	-1.0424671519	 1.531521359	-1.0354024795	 0.116281
H	-1.4780991318	 1.297321877	 0.6619330149	 0.112044
H	-0.5978410882	-0.8065053814	-0.4021647828	 0.068167
H	 1.4095815415	-0.7973477363	-1.710420525	 0.093538
H	 1.8816377376	 0.8195654812	-1.1362058568	 0.104515
H	 3.8822212748	-1.7613012367	-0.2531362924	 0.128388
H	 3.2502034669	-2.3477574268	 1.2942415789	 0.119878
H	 2.4216829478	-2.7646011688	-0.2238794038	 0.113633
H	 1.8049020072	 0.2281947113	 3.0620849687	 0.092387
H	 1.2408489834	 1.5367259473	 1.9940785252	 0.095454
H	-0.7779019656	-1.2441954424	 2.5485683209	 0.119048
H	-0.2300049607	-2.4575507231	 1.3875028442	 0.114989
H	 0.7677769623	-2.0649161408	 2.7974449753	 0.117821
51.9295	177.6634	187.4779	206.8891	217.4236	221.7814	273.9449	318.1089	340.9728	392.5515	428.2868	514.6179	579.8245	624.594	695.2068	768.3594	851.0835	876.4115	893.9737	909.1702	941.3581	973.9476	1001.8342	1013.6251	1047.8374	1087.7074	1141.3109	1147.6229	1160.8466	1185.8787	1194.8488	1227.4998	1234.8234	1257.3894	1302.9182	1316.7496	1351.1118	1386.4849	1405.0503	1408.3973	1412.3828	1469.716	1478.2896	1488.0303	1492.1277	1494.3661	1494.6006	1497.4796	1530.1083	3000.1	3017.5969	3025.8857	3029.2338	3031.902	3046.3175	3055.1462	3078.505	3089.6457	3091.3635	3096.2232	3098.0675	3108.684	3113.9169
CC1CC2(C)OCC12C	C[C@H]1C[C@@]2(C)OC[C@@]12C	
InChI=1S/C8H14O/c1-6-4-8(3)7(6,2)5-9-8/h6H,4-5H2,1-3H3	InChI=1S/C8H14O/c1-6-4-8(3)7(6,2)5-9-8/h6H,4-5H2,1-3H3/t6-,7-,8+/m0/s1
