23
gdb 104388	2.21951	1.35099	1.06626	2.0031	79.88	-0.2506	0.0588	0.3094	1249.3511	0.205588	-425.436097	-425.426003	-425.425059	-425.470731	38.275	
C	 0.2270141051	 1.4508220228	-0.0612656518	-0.469212
C	 0.0034027114	-0.0704543899	-0.0467161529	 0.262099
C	-1.4979748576	-0.3825686802	 0.009044712	-0.126059
O	-2.2326323096	 0.1115772718	-1.1047757363	-0.430322
C	 0.7138234973	-0.7532429791	-1.2339867861	-0.224481
C	 2.2030179071	-0.8766955067	-0.8166270425	-0.222646
C	 2.2115475957	-0.8227358757	 0.7341416631	-0.248377
C	 0.7291655964	-0.7338107162	 1.1569517083	 0.126048
O	 0.5016513082	-0.129610337	 2.4181712916	-0.446846
H	 1.2884870637	 1.7131701268	-0.11588091	 0.114663
H	-0.2552239646	 1.8990259927	-0.9355773515	 0.115576
H	-0.1920679574	 1.9209867974	 0.8355980116	 0.111931
H	-1.6393767803	-1.4697946189	-0.0047923892	 0.101781
H	-1.9121346891	-0.011278662	 0.9582554093	 0.098293
H	-2.3775731046	 1.0524630676	-0.9728121174	 0.283788
H	 0.2838321858	-1.7511917027	-1.3805822637	 0.095986
H	 0.5766289392	-0.2134363694	-2.1739397114	 0.101397
H	 2.6470750693	-1.7992950276	-1.1989888661	 0.100899
H	 2.7939240292	-0.0553483877	-1.2324026133	 0.101014
H	 2.7074085643	-1.6817242742	 1.1929980575	 0.105678
H	 2.7422385216	 0.067561612	 1.0939686761	 0.087103
H	 0.3250202251	-1.7484825817	 1.2678300326	 0.083554
H	 0.9887107338	 0.7008008878	 2.4406651598	 0.278135
90.1406	91.5101	144.8513	181.9475	214.5898	265.033	283.6084	314.9097	322.048	348.2538	369.1346	474.4905	538.0235	603.7071	628.1619	722.6087	793.8931	846.0739	894.8394	927.5298	935.6127	953.7784	1015.1952	1029.3212	1044.359	1055.1092	1091.4472	1113.8114	1140.4913	1157.3888	1223.0083	1235.6236	1258.2626	1269.8296	1307.5027	1317.6486	1332.5461	1342.5164	1358.7772	1384.1269	1400.5266	1417.77	1435.0647	1485.8562	1490.8317	1497.1886	1507.085	1513.2468	1516.3306	2994.5688	3020.1605	3028.3924	3032.3234	3036.0066	3057.6788	3059.4812	3082.7827	3095.2952	3096.1295	3100.4272	3106.9772	3809.8224	3836.9053
CC1(CO)CCCC1O	C[C@@]1(CO)CCC[C@H]1O	
InChI=1S/C7H14O2/c1-7(5-8)4-2-3-6(7)9/h6,8-9H,2-5H2,1H3	InChI=1S/C7H14O2/c1-7(5-8)4-2-3-6(7)9/h6,8-9H,2-5H2,1H3/t6-,7+/m1/s1
