14
gdb 42747	2.79078	1.60585	1.32628	5.0104	72.48	-0.2703	-0.0248	0.2455	961.2969	0.101489	-399.547916	-399.540839	-399.539895	-399.579453	27.234	
O	-0.0356001469	 0.0092728783	-0.1409001673	-0.269055
C	-0.0516487258	 1.1831795865	-0.0504233424	 0.404096
C	-1.0835267957	 2.3711844277	 0.0958827423	-0.197221
C	-0.0190247513	 2.9863381615	 1.0539301593	-0.250973
C	 1.0235188514	 2.3977811504	 0.045296303	 0.065149
C	 0.6031012656	 3.0732863109	-1.2526165166	-0.11904
C	-0.7407419901	 3.0567990048	-1.215053013	-0.096114
C	 2.4140034285	 2.2219956532	 0.3624684868	 0.1621
N	 3.5274132421	 2.0616395195	 0.6303024377	-0.333938
H	-2.1205618298	 2.2170242777	 0.3792403941	 0.105225
H	-0.0213318766	 4.0758488967	 1.1243478432	 0.128033
H	 0.0213519027	 2.5108121207	 2.0376209062	 0.134046
H	 1.2780355014	 3.3639958789	-2.0433574025	 0.138036
H	-1.4449021056	 3.3354382332	-1.9849173408	 0.129656
127.5041	150.2538	180.8794	343.4746	439.7573	478.9225	527.5361	543.4409	581.5271	675.1265	700.5572	753.3473	794.9428	824.4611	867.8921	910.0604	947.6167	963.6624	1019.3995	1063.4142	1073.4588	1111.5851	1160.2646	1204.0649	1248.9473	1269.0043	1338.8908	1481.0937	1588.4719	1941.3036	2355.9609	3066.0466	3143.0018	3172.7048	3238.1949	3261.9034
O=C1C2CC1(C=C2)C#N	O=C1[C@H]2C[C@@]1(C=C2)C#N	
InChI=1S/C7H5NO/c8-4-7-2-1-5(3-7)6(7)9/h1-2,5H,3H2	InChI=1S/C7H5NO/c8-4-7-2-1-5(3-7)6(7)9/h1-2,5H,3H2/t5-,7+/m1/s1
