21
gdb 40095	3.21525	1.44337	1.2603	1.5781	81.71	-0.2236	0.0819	0.3055	1091.8878	0.184339	-387.079532	-387.071875	-387.070931	-387.111574	31.228	
C	-0.3696241734	 1.3211353062	 0.2437113661	-0.337479
C	 1.0794879932	 0.9180059845	-0.0099166589	-0.347364
C	-0.0117041874	-0.100605965	-0.0343825957	 0.482806
O	-0.1086161406	-1.1104717624	 0.9714230449	-0.333259
C	-0.4210719531	-2.1182465115	-0.0286401723	 0.131245
C	-1.8433095924	-2.6528639458	 0.105283559	-0.217233
C	-2.7260406897	-1.5154191523	-0.4452599054	-0.20998
C	-1.9013107915	-0.9425019632	-1.6177232075	-0.216899
C	-0.4389060714	-1.0433959173	-1.1559321168	-0.169977
H	-0.6459691512	 1.5682662032	 1.2633160924	 0.122666
H	-0.8924041758	 1.8901287545	-0.5188038039	 0.112913
H	 1.5429676997	 1.2096952051	-0.9473080511	 0.110603
H	 1.7476860029	 0.9030307698	 0.8445255231	 0.122182
H	 0.3528570956	-2.8915036368	-0.0582390701	 0.071017
H	-1.9439164397	-3.5524697281	-0.5157064518	 0.094097
H	-2.0764995332	-2.9308125178	 1.1369725832	 0.107778
H	-3.7196168341	-1.8537533536	-0.7505964282	 0.091748
H	-2.861440469	-0.7503228156	 0.325796505	 0.117418
H	-2.0393400663	-1.5614985182	-2.5124245429	 0.096116
H	-2.1911303211	 0.0787901991	-1.8836049974	 0.097737
H	 0.2770841486	-1.1458004948	-1.9727852917	 0.073867
80.1625	178.4419	230.565	256.2427	348.724	374.7578	467.7925	534.1588	601.4274	678.8252	756.976	819.5345	830.776	848.4021	862.8935	890.4496	900.3984	905.9945	942.8378	962.786	963.85	989.2394	1040.9023	1045.4973	1055.4842	1065.4673	1103.2507	1134.4315	1186.1147	1189.9798	1196.4697	1224.7291	1258.9697	1278.6524	1306.1862	1329.1369	1334.7906	1345.0948	1364.1791	1399.2981	1446.9157	1468.4842	1484.5247	1498.499	1500.9163	3027.7248	3033.879	3054.9503	3057.788	3082.315	3093.7513	3097.7852	3105.6992	3123.6788	3126.4233	3206.8742	3221.3296
C1CC11OC2CCCC12	C1CC21O[C@H]1CCC[C@@H]21	
InChI=1S/C8H12O/c1-2-6-7(3-1)9-8(6)4-5-8/h6-7H,1-5H2	InChI=1S/C8H12O/c1-2-6-7(3-1)9-8(6)4-5-8/h6-7H,1-5H2/t6-,7+/m1/s1
