16
gdb 11872	4.81481	1.57444	1.35577	2.8289	66.14	-0.2532	0.0266	0.2798	914.5893	0.13248	-379.912634	-379.905738	-379.904793	-379.943939	26.348	
N	-0.0563566695	 1.2798750857	-0.0764446649	-0.540879
C	-0.0351223361	 0.018888588	-0.0568146684	 0.421324
C	-1.2509893584	-0.886109147	-0.0550174343	-0.393713
C	-0.6691583417	-2.2281292836	-0.4602865946	 0.303469
C	-1.4376896211	-3.4840334725	-0.5638876128	-0.303641
N	-0.9196934554	-2.8228694925	-1.7799891108	-0.341756
C	 0.7818221458	-2.1454578871	-0.0153857168	-0.126537
O	 1.1006213552	-0.7428205473	-0.029097732	-0.239647
H	 0.8941327727	 1.6539967432	-0.0593072711	 0.22306
H	-1.66792409	-0.9216425364	 0.9587598467	 0.138901
H	-2.0296279333	-0.508369416	-0.720018212	 0.136257
H	-0.9691586	-4.4364275895	-0.3284344391	 0.123564
H	-2.5046178472	-3.4456805755	-0.3576839661	 0.118709
H	-1.6715059681	-2.3268081207	-2.2535402657	 0.233899
H	 0.9261521498	-2.5305732971	 1.0021790772	 0.111628
H	 1.4521191673	-2.6651411115	-0.7026967452	 0.135362
79.2259	150.717	262.562	360.7442	377.5268	464.161	502.1693	531.4075	680.8811	787.5296	845.4117	865.0714	889.3021	897.2672	937.0664	958.3421	988.8272	1008.5691	1062.4361	1087.3598	1103.2005	1136.1528	1174.1204	1227.8966	1248.1606	1267.4211	1286.517	1329.8614	1379.283	1432.0765	1464.1694	1511.4416	1518.2075	1781.7269	3025.3674	3042.6065	3102.7014	3115.8905	3118.0791	3185.6077	3472.052	3492.8626
N=C1CC2(CN2)CO1	[NH][C]1C[C@]2(CN2)CO1	
InChI=1S/C5H8N2O/c6-4-1-5(2-7-5)3-8-4/h6-7H,1-3H2	InChI=1S/C5H8N2O/c6-4-1-5(2-7-5)3-8-4/h6-7H,1-3H2/t5-/m0/s1
