15
gdb 48290	2.36564	0.91965	0.69302	3.9121	70.76	-0.2965	-0.0669	0.2296	1515.0754	0.110707	-416.841557	-416.832117	-416.831172	-416.877372	31.576	
O	-0.5396926589	 0.7704374466	-0.7650973457	-0.214199
C	 0.1029946943	 1.0573167752	 0.2038843984	 0.156858
C	 1.3208282301	 2.0050608499	 0.1508493544	-0.255346
C	 1.4071113304	 2.7641207802	-1.1852469046	-0.186172
C	 2.6975530783	 3.5959575665	-1.304313335	-0.362383
C	 2.7858533232	 4.2809168288	-2.5918014495	 0.263822
N	 2.8423448554	 4.8135452089	-3.6152462753	-0.292258
C	 1.3042469842	 2.8905871794	 1.3158904194	 0.268318
N	 1.2716813738	 3.5935281928	 2.2327299031	-0.304029
H	-0.1148956479	 0.6448433961	 1.2097677577	 0.124568
H	 2.199068684	 1.348134429	 0.2617741639	 0.159139
H	 1.3499061456	 2.0296486721	-1.9911508916	 0.154356
H	 0.5340596194	 3.4136277724	-1.2891048929	 0.15282
H	 2.7474700554	 4.3441017752	-0.5050150075	 0.178304
H	 3.5800290726	 2.9544173768	-1.192544805	 0.156202
63.7316	67.3513	89.4079	109.9422	165.7708	228.9185	263.7039	314.5392	397.0339	504.8625	519.0126	574.6875	634.7682	766.8868	799.777	919.7972	942.7202	1020.9545	1054.682	1073.6288	1105.8758	1196.0153	1240.5913	1296.663	1311.29	1337.3253	1386.8114	1416.037	1470.2126	1490.6528	1845.4205	2356.9955	2367.7569	2935.4313	2992.5069	3039.55	3079.032	3082.1914	3132.2691
O=CC(CCC#N)C#N	O=C[C@@H](CCC#N)C#N	
InChI=1S/C6H6N2O/c7-3-1-2-6(4-8)5-9/h5-6H,1-2H2	InChI=1S/C6H6N2O/c7-3-1-2-6(4-8)5-9/h5-6H,1-2H2/t6-/m0/s1
