18
gdb 85562	2.9025	1.37336	1.0658	4.597	75.56	-0.2182	0.0057	0.224	1158.7088	0.147835	-439.150232	-439.141455	-439.14051	-439.183705	32.697	
C	 0.5777487386	 1.3498799905	-0.3840766651	-0.394007
C	-0.0482440214	 0.0600284011	 0.1536376404	 0.029002
O	-0.1279165266	-0.9144607128	-0.9200622854	-0.257024
C	 0.8959328568	-1.753689982	-1.1874715474	 0.464727
O	 0.9682566294	-2.3501062786	-2.230686788	-0.384561
N	 1.8155018988	-1.900879856	-0.1647999421	-0.385967
C	 1.5872560826	-1.4297062183	 1.1311066385	-0.082206
C	 0.6712685761	-0.4895482091	 1.3609841566	 0.241732
C	 0.336539693	 0.0476761719	 2.7191616591	-0.48794
H	 1.62615668	 1.186899215	-0.6505702349	 0.132486
H	 0.0363803189	 1.6911533366	-1.2705310979	 0.133977
H	 0.5353634285	 2.1373393852	 0.374865211	 0.121036
H	-1.0992259201	 0.2480477772	 0.3998718589	 0.102149
H	 2.4972003227	-2.6228447026	-0.3292484918	 0.265472
H	 2.1900195461	-1.886491329	 1.9075560422	 0.116503
H	 0.9588953884	-0.4132971268	 3.4911864584	 0.126313
H	 0.4843410305	 1.1337386668	 2.7775100273	 0.12796
H	-0.7137313724	-0.1399625489	 2.9780388102	 0.130347
76.2355	108.08	186.8473	218.1482	234.1266	288.198	339.0909	399.8424	465.8152	472.716	524.5563	586.3726	613.3615	749.1627	762.6732	804.3355	863.9185	889.982	968.0752	999.716	1055.7596	1078.3846	1097.3141	1120.4506	1153.9677	1223.4077	1252.2284	1351.5374	1383.3667	1402.7941	1413.5104	1421.5057	1458.3121	1475.9103	1486.2978	1493.1279	1497.0176	1760.5068	1851.0551	3012.5724	3041.4534	3045.0177	3056.1106	3107.7694	3116.4931	3125.6598	3197.2072	3662.0773
CC1OC(=O)NC=C1C	C[C@H]1OC(=O)NC=C1C	
InChI=1S/C6H9NO2/c1-4-3-7-6(8)9-5(4)2/h3,5H,1-2H3,(H,7,8)	InChI=1S/C6H9NO2/c1-4-3-7-6(8)9-5(4)2/h3,5H,1-2H3,(H,7,8)/t5-/m1/s1
