18
gdb 24686	3.57957	1.54783	1.11083	2.0704	85.03	-0.2388	-0.0192	0.2196	1079.1476	0.152334	-364.897576	-364.890848	-364.889904	-364.928616	27.244	
C	 0.0094965067	 1.5041950267	-0.0249104994	-0.211407
C	 1.5073532865	 1.9161437392	-0.0245159319	-0.335207
C	 2.1839181708	 0.7412462727	 0.6390852622	 0.293975
C	 3.4506904275	 0.6111145622	 1.187328569	-0.227766
C	 3.8017447514	-0.6283132563	 1.7238305275	-0.104453
C	 2.8791897904	-1.6707428703	 1.6810799804	-0.029597
N	 1.6525193055	-1.5633375847	 1.152069077	-0.345628
C	 1.33416331	-0.3733252383	 0.6513356709	 0.305812
C	 0.0095003231	-0.0436895113	 0.0006787985	-0.31412
H	-0.4659870848	 1.8809399924	 0.8868266816	 0.109593
H	-0.5400572504	 1.9181595965	-0.8734363519	 0.100529
H	 1.8801048944	 2.0398336171	-1.0506964575	 0.114116
H	 1.6844420893	 2.8664215843	 0.4888648991	 0.109035
H	 4.1487184114	 1.4430937383	 1.206757251	 0.100089
H	 4.7761195815	-0.7858986503	 2.1729882699	 0.097408
H	 3.1359609877	-2.6426192045	 2.0959809934	 0.10309
H	-0.8384377101	-0.4725003462	 0.5408987734	 0.118783
H	-0.0184418409	-0.4610654976	-1.0150165032	 0.115747
140.2237	176.3726	263.2545	399.0073	432.2505	517.2714	530.5735	606.3706	622.6294	746.4399	754.9245	812.9369	858.2468	862.4851	900.8349	916.2973	964.3759	984.116	1010.4964	1058.7295	1069.0852	1106.5968	1149.0265	1172.5941	1204.9837	1230.3227	1255.2865	1278.0816	1293.5159	1324.4322	1342.8003	1347.6974	1453.1948	1477.5397	1484.7236	1496.6438	1502.9454	1615.5416	1634.0966	3013.0779	3020.3996	3048.5916	3072.9338	3092.463	3106.1772	3152.6424	3167.8984	3195.5715
C1CC2=CC=CN=C2C1	C1Cc2cccnc2C1	
InChI=1S/C8H9N/c1-3-7-4-2-6-9-8(7)5-1/h2,4,6H,1,3,5H2	InChI=1S/C8H9N/c1-3-7-4-2-6-9-8(7)5-1/h2,4,6H,1,3,5H2
