15
gdb 28688	3.6238	1.06086	0.88613	2.6285	74.29	-0.2024	0.0155	0.2178	1281.2668	0.112306	-416.802863	-416.794341	-416.793397	-416.836707	31.118	
N	 0.2849226439	 1.2942899836	-0.1438774901	-0.59868
C	-0.0198707919	-0.0507904552	-0.0302068321	 0.341631
C	-1.1195476808	-0.7738042279	 0.3097439387	-0.195439
N	-0.7690391285	-2.1232248292	 0.3472651879	-0.291317
C	 0.4798302523	-2.1536078571	 0.0346643993	 0.384035
C	 1.3845362489	-3.3389117521	-0.0829522325	-0.44711
C	 1.9668919322	-3.5061413539	-1.4136527353	 0.306316
C	 2.4496409009	-3.6426478692	-2.5047197328	-0.453974
O	 1.017424628	-0.9145211462	-0.2072807401	-0.194732
H	 0.9460605348	 1.4891519219	-0.8857166237	 0.261792
H	-0.5386079296	 1.8725691773	-0.2378571708	 0.260564
H	-2.1188313328	-0.4333231967	 0.5245386973	 0.110174
H	 2.1913851836	-3.2664350692	 0.6592662881	 0.150246
H	 0.7843658408	-4.2140290485	 0.1842372976	 0.167069
H	 2.8728878083	-3.7659166276	-3.4706219915	 0.199425
45.6452	90.4611	181.4244	217.2444	269.8516	326.1824	337.4924	429.1339	464.8386	620.2073	636.7709	649.5305	668.3582	704.0505	732.2149	777.8519	794.9952	921.0882	953.4172	984.014	1023.0799	1100.5171	1132.6106	1213.2709	1270.9074	1289.0886	1337.5653	1423.7624	1451.7102	1619.2349	1637.3937	1675.4745	2244.8278	3016.4375	3090.2404	3271.1811	3507.1219	3542.936	3644.3765
NC1=CN=C(CC#C)O1	Nc1cnc(CC#C)o1	
InChI=1S/C6H6N2O/c1-2-3-6-8-4-5(7)9-6/h1,4H,3,7H2	InChI=1S/C6H6N2O/c1-2-3-6-8-4-5(7)9-6/h1,4H,3,7H2
