18
gdb 33000	5.20195	0.9056	0.77883	4.2489	83.48	-0.2229	-0.0148	0.2081	1455.1171	0.150162	-398.195413	-398.186873	-398.185928	-398.230001	30.758	
C	 0.0201375647	 1.5778964772	-0.0689879596	-0.410759
C	-0.0139385758	 0.0554930619	 0.0228630056	-0.10797
N	 0.6432108868	-0.5369545903	-1.1239994048	-0.364289
C	 0.7870619768	-1.8657379274	-1.3526878426	 0.447657
N	 1.4316403634	-2.2030911155	-2.4870712984	-0.340205
C	 1.5790676201	-3.5016600015	-2.7220023254	 0.075931
N	 1.1674350296	-4.5259348229	-1.9728367789	-0.276035
C	 0.5285726839	-4.1695862939	-0.8489432438	 0.021911
C	 0.303624471	-2.8583075968	-0.4769358514	-0.230204
H	 1.0509138865	 1.9458591998	-0.0952288613	 0.131344
H	-0.4935035644	 1.9276437975	-0.9703499694	 0.131293
H	-0.4759983043	 2.0221268359	 0.7972911347	 0.131412
H	 0.4778781657	-0.2705647771	 0.9506533988	 0.113715
H	-1.0566002413	-0.2887637902	 0.0810456986	 0.113653
H	 1.0354211519	 0.0624635972	-1.8330390524	 0.248327
H	 2.1015264048	-3.7584257489	-3.6419206857	 0.109845
H	 0.1798564559	-4.9827441357	-0.2153447534	 0.108449
H	-0.2170257554	-2.6150072693	 0.4400445496	 0.095925
35.9456	49.2543	150.31	203.3582	261.8344	329.4642	373.7359	433.7247	457.7909	560.4916	614.827	695.1741	802.4535	816.9792	843.6639	860.0721	959.5584	985.2785	996.5715	1022.9753	1076.1135	1098.1204	1174.6906	1176.264	1209.6699	1248.208	1300.9518	1340.0039	1368.9179	1395.7574	1415.2206	1435.9137	1463.8935	1493.9252	1503.4979	1532.8384	1561.1856	1597.8785	1637.4822	2991.8422	3014.3207	3041.2923	3109.7252	3126.3803	3147.7922	3151.1444	3212.9206	3634.1053
CCNC1=NC=NC=C1	CCNc1ncncc1	
InChI=1S/C6H9N3/c1-2-8-6-3-4-7-5-9-6/h3-5H,2H2,1H3,(H,7,8,9)	InChI=1S/C6H9N3/c1-2-8-6-3-4-7-5-9-6/h3-5H,2H2,1H3,(H,7,8,9)
