16
gdb 11265	4.66776	1.33357	1.17784	1.1275	76.21	-0.2324	-0.0226	0.2098	1024.9733	0.130018	-346.58703	-346.579365	-346.578421	-346.618876	29.374	
O	 0.0605420633	 1.4224550006	-0.0170618323	-0.43446
C	 0.0100688537	 0.0033590733	 0.0044469706	 0.124106
C	 0.6295703891	-0.569263099	 1.305762296	-0.271968
C	-0.5692151595	-0.7688199779	 2.1956156378	-0.181652
C	-1.7195909166	-0.7417022578	 1.5002503015	 0.196018
C	-1.4475853465	-0.5168073349	 0.0183793497	-0.334042
C	-3.0249020863	-0.9316625722	 2.0121497195	 0.174851
C	-4.1559982725	-1.0833467592	 2.400060298	-0.400082
H	-0.4180013891	 1.7414358356	 0.7570893612	 0.28122
H	 0.5537272162	-0.3110822993	-0.8892383409	 0.085754
H	 1.1416081242	-1.5251191131	 1.1229764702	 0.115041
H	 1.3794967441	 0.1180952862	 1.7115662646	 0.114482
H	-0.5027899649	-0.946375886	 3.262381141	 0.102704
H	-2.125757435	 0.2046866041	-0.4464800357	 0.119781
H	-1.5502714224	-1.4606113834	-0.5325923771	 0.116571
H	-5.146380088	-1.222354157	 2.756542516	 0.191677
89.4079	157.627	171.9256	331.4209	365.451	382.4167	429.8429	530.812	540.6464	552.9803	599.3012	634.7385	769.0395	819.7852	856.2533	883.0604	892.6447	947.6369	977.9234	1041.2127	1069.6337	1136.8917	1170.4739	1184.0084	1252.5718	1274.8026	1301.3614	1317.1283	1340.9708	1432.1038	1467.574	1478.7695	1660.5434	2221.2854	3006.8453	3028.7042	3070.0609	3089.5882	3092.5688	3207.041	3503.609	3790.6994
OC1CC=C(C1)C#C	O[C@H]1CC=C(C1)C#C	
InChI=1S/C7H8O/c1-2-6-3-4-7(8)5-6/h1,3,7-8H,4-5H2	InChI=1S/C7H8O/c1-2-6-3-4-7(8)5-6/h1,3,7-8H,4-5H2/t7-/m0/s1
