17
gdb 65951	2.26861	1.48792	1.40886	4.224	72.58	-0.2665	0.0192	0.2857	1039.5354	0.135648	-417.977471	-417.96886	-417.967916	-418.010674	32.175	
N	 0.0420801043	 1.4490606069	-0.4378426993	-0.553893
C	-0.0313606916	 0.0464367146	-0.0518306054	 0.03509
C	 0.0246395058	-0.2422562469	 1.4873631128	-0.25475
C	-1.1766432557	-1.2225681199	 1.3462898367	-0.324543
C	-1.4457490893	-0.5886048154	-0.0153981742	 0.456348
C	-2.6713335871	 0.0108082935	-0.5344420252	-0.25574
O	-2.0973476723	-1.1782629351	-1.1102970309	-0.265693
C	 0.9134728883	-0.8079891672	-0.7927565889	 0.248933
N	 1.6784925401	-1.438927931	-1.3882295808	-0.339413
H	 0.963059086	 1.8164665843	-0.2098831322	 0.244122
H	-0.0477390066	 1.5341039876	-1.4478684577	 0.247266
H	 0.9608554088	-0.646919929	 1.8703244096	 0.126989
H	-0.2407460385	 0.6684537322	 2.0270512358	 0.128288
H	-0.8540927497	-2.2625493895	 1.2498645116	 0.137752
H	-1.9689498193	-1.1593476438	 2.0934797273	 0.118779
H	-3.6066775965	-0.1381952433	 0.0028114806	 0.124075
H	-2.6208213968	 0.9040415521	-1.1527715297	 0.126389
75.421	128.9179	193.2477	201.7487	245.2314	300.8989	329.6884	397.2242	470.0918	496.7899	557.9603	642.3132	660.7303	751.8124	871.2992	884.7794	898.8899	908.8128	924.0118	946.5045	966.7727	1115.9067	1122.7083	1145.1953	1165.8091	1171.0048	1210.3129	1226.7205	1256.545	1283.8248	1302.749	1432.4492	1475.7945	1493.114	1538.9505	1655.1929	2340.5157	3073.3997	3087.7841	3092.4658	3129.243	3155.4219	3184.3865	3477.7251	3552.3096
NC1(CCC11CO1)C#N	N[C@]1(CC[C@]21CO2)C#N	
InChI=1S/C6H8N2O/c7-3-5(8)1-2-6(5)4-9-6/h1-2,4,8H2	InChI=1S/C6H8N2O/c7-3-5(8)1-2-6(5)4-9-6/h1-2,4,8H2/t5-,6-/m1/s1
