19
gdb 83613	2.49478	1.8736	1.25818	1.6923	74.81	-0.241	0.0557	0.2967	1029.4888	0.159664	-422.962558	-422.954896	-422.953952	-422.994537	30.075	
C	-0.1196429755	 1.5700002325	 0.0676206289	-0.409929
C	 0.0209062921	 0.056341529	-0.0118414897	-0.009596
C	 0.742146193	-0.526264334	-1.2708921271	-0.151569
C	 0.4121441873	-1.9822259378	-1.6885225161	-0.113114
O	 1.5290360906	-2.5182868267	-0.9145218923	-0.326743
C	 1.7833246179	-1.2391579008	-0.3812786777	 0.420301
C	 3.0821803272	-0.6164009289	 0.0831923299	-0.168925
O	 2.3253605835	 0.2020751209	 1.0197273811	-0.292235
C	 1.1220978304	-0.6005795769	 0.8718738802	 0.023788
H	 0.8576203836	 2.0523374544	-0.0181448122	 0.133044
H	-0.7654903451	 1.9449738196	-0.7333349588	 0.111489
H	-0.5579787129	 1.8738570624	 1.024038854	 0.117862
H	-0.9496188485	-0.425685248	 0.1579669662	 0.073261
H	 1.0137594387	 0.157289183	-2.0760489077	 0.078304
H	-0.548986339	-2.3733421661	-1.3341684909	 0.106651
H	 0.5317029187	-2.2119982101	-2.7518430074	 0.113558
H	 3.7538871438	-1.3094646071	 0.6082963185	 0.111122
H	 3.6551506363	-0.0158465205	-0.6319934467	 0.10806
H	 0.8512992378	-1.1136401248	 1.7990898376	 0.074669
105.3223	214.0863	227.7265	236.0004	277.3767	349.2501	362.3252	520.5972	535.0204	666.7584	770.789	797.8502	826.6007	885.2121	923.5551	953.7071	967.4135	968.7306	979.9593	1009.2342	1034.5797	1080.1087	1104.4502	1127.5277	1138.3861	1150.5961	1167.6811	1184.6244	1237.5029	1256.2833	1271.6249	1293.238	1314.2659	1343.5085	1356.5231	1372.9783	1406.8372	1490.3625	1501.9875	1513.105	1517.5446	3007.7425	3026.4467	3029.5025	3036.0251	3068.0971	3070.137	3081.0864	3098.4412	3105.7083	3120.0436
CC1C2COC22COC12	C[C@H]1[C@@H]2CO[C@]32CO[C@@H]13	
InChI=1S/C7H10O2/c1-4-5-2-9-7(5)3-8-6(4)7/h4-6H,2-3H2,1H3	InChI=1S/C7H10O2/c1-4-5-2-9-7(5)3-8-6(4)7/h4-6H,2-3H2,1H3/t4-,5-,6-,7-/m0/s1
