21
gdb 83875	2.09262	1.83548	1.33679	1.7445	77.99	-0.2454	0.0788	0.3242	1072.9712	0.183567	-424.217453	-424.208973	-424.208028	-424.250046	33.22	
C	-0.2109356939	 1.5429221329	-0.1945441372	-0.412132
C	 0.0029144757	 0.0504948676	-0.0597195263	-0.045184
C	 1.349052616	-0.5772716333	-0.3374675133	 0.062713
O	 2.4270049152	 0.2858798964	-0.5912489894	-0.241682
C	 3.2066946496	 0.5397599328	 0.551565811	 0.012652
O	 2.4537786847	 1.0952464259	 1.5924045027	-0.244582
C	 1.548929002	 0.1363299745	 2.1525821748	 0.110812
C	 0.6702256927	 0.8612606357	 3.1617680136	-0.404955
C	 0.7849038131	-0.6083297652	 1.0661373887	-0.104525
H	 0.6593890964	 2.1047617471	 0.1445447198	 0.144483
H	-0.3983553456	 1.8055456812	-1.2414596127	 0.114752
H	-1.0793734884	 1.8668594141	 0.3888325272	 0.111145
H	-0.8392755592	-0.5467950677	-0.4024513791	 0.082873
H	 1.4032625918	-1.4928716497	-0.9217387524	 0.091177
H	 3.6958237475	-0.3898038536	 0.8959422502	 0.077987
H	 3.955628707	 1.2780595264	 0.2585663543	 0.115437
H	 2.1548930363	-0.6170203936	 2.6869217825	 0.070121
H	 0.0573508531	 1.6214854657	 2.6723774941	 0.131938
H	 0.0060394174	 0.1493983077	 3.6612148867	 0.115228
H	 1.2903971866	 1.3491705826	 3.919064905	 0.123408
H	 0.4008933622	-1.5656793975	 1.4075541696	 0.088336
131.5419	164.0616	203.761	223.9741	233.2953	288.8589	343.7789	395.2022	451.2923	539.4851	550.7465	659.5962	714.909	765.9515	782.2071	828.104	880.1971	951.7829	960.1154	1026.6838	1048.0044	1059.5188	1065.3777	1094.9559	1121.6775	1142.0986	1152.333	1161.3214	1190.6915	1231.0517	1249.3211	1308.1079	1351.672	1361.0668	1373.0128	1388.8338	1408.957	1421.9046	1440.2963	1444.8414	1483.077	1497.4458	1504.3407	1506.243	1512.3264	2933.4209	2941.4262	3036.6971	3047.7748	3089.7528	3113.7931	3118.029	3120.5009	3127.0081	3134.865	3145.0956	3154.2856
CC1C2OCOC(C)C12	C[C@H]1[C@H]2OCO[C@@H](C)[C@@H]12	
InChI=1S/C7H12O2/c1-4-6-5(2)8-3-9-7(4)6/h4-7H,3H2,1-2H3	InChI=1S/C7H12O2/c1-4-6-5(2)8-3-9-7(4)6/h4-7H,3H2,1-2H3/t4-,5+,6-,7-/m1/s1
