15
gdb 14290	3.83728	1.77683	1.73446	3.454	60.32	-0.2434	0.0238	0.2672	804.6424	0.119963	-399.820804	-399.813788	-399.812844	-399.852109	26.702	
O	 0.0188538326	 1.3889258968	 0.0601643938	-0.427452
C	-0.0283195746	-0.0005839134	 0.0223728345	 0.116506
C	-1.3563209743	-0.7375764357	 0.0223857782	-0.111125
C	-2.6050743762	 0.0578824122	-0.315888356	-0.349199
C	-2.4198260518	 0.5328556466	-1.7681602326	 0.387057
O	-3.1741913058	 1.2065063086	-2.428420384	-0.361108
N	-1.1814027911	 0.0770428927	-2.1790652027	-0.316819
C	-0.4800416651	-0.7285021792	-1.2231336315	-0.08425
H	-0.1304651659	 1.7147218688	-0.8362622582	 0.293352
H	 0.7742283447	-0.4578807667	 0.5948446895	 0.106365
H	-1.4465431166	-1.6365127276	 0.6196417989	 0.099812
H	-3.5161712367	-0.542094402	-0.2476333819	 0.134324
H	-2.7375613063	 0.9388580696	 0.3193159384	 0.148936
H	-0.8453084086	 0.2660347715	-3.1097189905	 0.25722
H	 0.0349909456	-1.6041273422	-1.6015900259	 0.106382
78.5603	173.9156	239.9125	274.7264	440.8742	452.6165	529.4878	590.2663	604.5827	682.7051	736.2748	774.8602	781.6055	853.9876	938.888	963.1726	1029.2889	1058.6126	1061.2612	1091.5449	1113.6402	1192.607	1202.6132	1235.5489	1281.7638	1329.229	1345.5919	1368.198	1398.9925	1441.6409	1456.6376	1836.4872	3066.8641	3110.3452	3146.2607	3170.2125	3186.7288	3647.112	3770.1427
OC1C2CC(=O)NC12	O[C@H]1[C@H]2CC(=O)N[C@@H]12	
InChI=1S/C5H7NO2/c7-3-1-2-4(6-3)5(2)8/h2,4-5,8H,1H2,(H,6,7)	InChI=1S/C5H7NO2/c7-3-1-2-4(6-3)5(2)8/h2,4-5,8H,1H2,(H,6,7)/t2-,4+,5-/m0/s1
