14
gdb 28089	5.65986	0.96119	0.82166	2.7319	66.66	-0.1954	0.012	0.2074	1283.2903	0.102799	-470.074764	-470.066941	-470.065997	-470.10732	29.051	
O	 0.0832825862	 1.3280653809	 0.040791622	-0.423935
C	 0.0659129818	-0.0137715413	 0.0075878604	 0.459331
N	 0.0942157999	-0.7699431585	-1.0605589676	-0.439047
C	 0.0582751952	-2.0582033571	-0.5604947766	 0.362491
N	 0.0765792102	-3.1179599634	-1.4671728324	-0.391178
C	 0.0463344366	-4.4382384196	-1.1358792881	 0.138849
O	-0.0008146998	-4.8694543053	-0.0023656758	-0.316714
C	 0.0084493896	-2.0739685525	 0.804082041	-0.184088
N	 0.0144220239	-0.7205216134	 1.1568464704	-0.300972
H	 0.1207117232	 1.6244844916	-0.8770011602	 0.315734
H	 0.1155639998	-2.854035002	-2.4398691768	 0.260937
H	 0.0699744864	-5.0850029406	-2.033355096	 0.081073
H	-0.0285543964	-2.8734941531	 1.517716744	 0.162058
H	-0.0139062366	-0.3367474155	 2.0854648357	 0.275462
71.6807	164.6333	204.5502	286.5338	297.9051	384.9072	394.0629	475.9732	479.7465	575.5084	593.4948	661.3912	709.7573	736.6187	749.8595	877.0626	1007.2782	1010.026	1034.8331	1097.2592	1155.7136	1200.6142	1268.5054	1294.0218	1375.751	1429.711	1531.3416	1578.0858	1631.7037	1639.3379	1792.0714	2953.7662	3335.1452	3631.7082	3682.5795	3810.5078
OC1=NC(NC=O)=CN1	Oc1nc(NC=O)c[nH]1	
InChI=1S/C4H5N3O2/c8-2-6-3-1-5-4(9)7-3/h1-2H,(H,6,8)(H2,5,7,9)	InChI=1S/C4H5N3O2/c8-2-6-3-1-5-4(9)7-3/h1-2H,(H,6,8)(H2,5,7,9)
