18
gdb 49649	4.04264	1.38459	1.30179	3.1279	75.29	-0.2312	-0.0279	0.2033	1006.8009	0.149773	-401.890323	-401.883519	-401.882575	-401.921717	27.298	
O	-0.7128174242	 0.7655276963	-0.6245106225	-0.244678
C	 0.1114461534	 0.9156174309	 0.2423495285	 0.130522
C	 1.2385269897	 1.9134035797	 0.2156202069	-0.072135
C	 1.3311989672	 3.0825611572	-0.7994515524	-0.089518
C	 0.0248705031	 3.832424301	-0.4700025137	-0.172209
N	 0.3308247785	 4.1812776153	 0.9570337215	-0.149871
C	 1.5297939507	 5.0811253513	 0.7243752913	-0.187746
C	 2.2676124954	 3.83376632	 0.2547554876	-0.045664
C	 1.3678677603	 3.0492442382	 1.2480711149	-0.024139
H	 0.0996777246	 0.2764951428	 1.1571528474	 0.077082
H	 2.1774097642	 1.3433113837	 0.2657106172	 0.101092
H	 1.6207824106	 2.920842423	-1.8355291471	 0.078359
H	-0.1319345678	 4.7427196752	-1.0526292402	 0.10043
H	-0.8616514783	 3.2052948442	-0.5510262719	 0.131215
H	 1.3486431246	 5.9219709878	 0.048087221	 0.102462
H	 1.9117035897	 5.4522282385	 1.6798443391	 0.108223
H	 3.3478266789	 3.7099730517	 0.1693880796	 0.071844
H	 1.5621629595	 2.9078073632	 2.3094722129	 0.08473
88.8713	179.3964	205.0453	382.0674	433.8916	531.4842	639.5208	673.7953	721.4836	754.8543	808.3585	831.6302	839.2015	900.5731	916.1646	931.2884	975.3877	989.9458	1008.9998	1034.8564	1036.8247	1043.0766	1077.6407	1127.9476	1136.3151	1168.3636	1191.1686	1200.5449	1225.2981	1246.4074	1255.8693	1276.7542	1289.8269	1322.8516	1370.1456	1424.0958	1506.5179	1536.5414	1822.4371	2851.0969	3017.6636	3046.6702	3082.3538	3102.792	3106.5907	3137.7078	3142.6255	3149.7996
O=CC1C2CN3CC2C13	O=C[C@H]1[C@H]2CN3C[C@H]2[C@H]13	
InChI=1S/C7H9NO/c9-3-6-4-1-8-2-5(4)7(6)8/h3-7H,1-2H2	InChI=1S/C7H9NO/c9-3-6-4-1-8-2-5(4)7(6)8/h3-7H,1-2H2/t4-,5+,6-,7+/m0/s1
