18
gdb 85532	2.58675	1.64523	1.19296	2.3951	72.45	-0.2554	0.0261	0.2815	1058.1091	0.148399	-439.083659	-439.075671	-439.074727	-439.116478	30.597	
C	 0.5469616317	 1.314229486	-0.2541394772	-0.392941
C	-0.088011577	-0.0008860415	 0.1856401737	 0.089735
O	-0.2065890893	-0.9070560442	-0.9409261787	-0.267857
C	 0.7673109711	-1.8007658122	-1.2623936868	 0.38593
N	 0.6630441487	-2.5543815014	-2.2757976665	-0.512167
C	 1.985276125	-1.8856637705	-0.3668971414	-0.32359
C	 1.6575107186	-1.6354607877	 1.0923845126	 0.031777
O	 1.9818362541	-0.3366277433	 1.5950301331	-0.242249
C	 0.6048343715	-0.6520374176	 1.3762500219	 0.014482
H	 1.5992962998	 1.1796908018	-0.5115479225	 0.137428
H	 0.0117331413	 1.7101095579	-1.1204794536	 0.12821
H	 0.4948024529	 2.0456118013	 0.5582199122	 0.128733
H	-1.1323547893	 0.1778290247	 0.4574488878	 0.100918
H	-0.2051019318	-2.3502456987	-2.7754519225	 0.216886
H	 2.435722938	-2.865227387	-0.5268361154	 0.143085
H	 2.7174971541	-1.1349817429	-0.6864371597	 0.146655
H	 1.8366326814	-2.4465374706	 1.7948838273	 0.110274
H	 0.0156142991	-0.7341857142	 2.2873233558	 0.104692
77.1197	90.4228	213.5762	240.712	350.3267	400.725	420.329	449.2614	514.8381	536.1267	620.6617	723.0009	790.3518	837.415	840.686	891.9458	911.4623	941.2381	986.6602	1011.7082	1045.4037	1060.7986	1102.1304	1117.2434	1147.1325	1171.4857	1218.3582	1290.6028	1312.0375	1324.037	1359.5706	1370.5864	1408.7366	1416.602	1458.0978	1464.5651	1486.7673	1490.6054	1742.9383	3051.1913	3052.6462	3066.0012	3124.2208	3125.813	3133.1023	3143.0319	3145.5679	3461.968
CC1OC(=N)CC2OC12	C[C@H]1O[C]([NH])C[C@H]2O[C@@H]12	
InChI=1S/C6H9NO2/c1-3-6-4(9-6)2-5(7)8-3/h3-4,6-7H,2H2,1H3	InChI=1S/C6H9NO2/c1-3-6-4(9-6)2-5(7)8-3/h3-4,6-7H,2H2,1H3/t3-,4-,6+/m1/s1
