21
gdb 40220	2.05959	1.97354	1.27412	1.616	81.77	-0.2384	0.0788	0.3172	1073.7259	0.183398	-387.063262	-387.05494	-387.053996	-387.096393	32.507	
C	 0.4445641715	 1.4556537436	-0.0829534537	-0.34535
C	 1.4485328622	 0.3596407057	 0.1978256548	-0.305868
C	-0.0059082684	 0.0293798128	-0.0324036596	 0.274347
C	-0.8676241489	-0.5291770871	 1.0874898459	-0.133246
O	-1.128848463	-1.891325837	 0.743505713	-0.268873
C	-0.7307331721	-2.1400995052	-0.6061870416	-0.133299
C	-0.457105445	-0.7780735736	-1.2214523218	 0.274377
C	-1.3755151335	-0.2013519255	-2.2709410672	-0.305848
C	 0.0413157787	-0.5988177004	-2.6211600745	-0.345357
H	 0.1572133325	 2.1119918345	 0.7325031116	 0.115164
H	 0.4870438344	 1.9503430012	-1.048773699	 0.112379
H	 2.1573522419	 0.1113519293	-0.5853129828	 0.114017
H	 1.8413755623	 0.271014987	 1.2056032462	 0.112838
H	-0.3742960378	-0.4938373519	 2.0662940527	 0.097336
H	-1.8203347331	 0.0175394287	 1.1641959597	 0.092824
H	 0.1753611732	-2.7657442924	-0.6106770292	 0.0928
H	-1.5278687932	-2.6904810181	-1.1202928253	 0.09736
H	-2.1869060326	-0.8210357823	-2.6389539213	 0.11284
H	-1.6050253678	 0.8579596241	-2.2204078665	 0.114017
H	 0.7588593829	 0.1924805319	-2.8168955372	 0.112377
H	 0.1921448557	-1.4861030952	-3.2280308043	 0.115165
58.6239	107.9881	202.9096	209.2859	307.8182	308.5912	360.5213	500.9615	527.8418	551.7999	719.5823	780.1018	785.216	832.2544	865.3816	908.1781	925.1948	926.2374	956.4899	972.7769	974.4118	996.2363	1050.4237	1061.4109	1067.2119	1079.8792	1082.7049	1095.4809	1107.6589	1185.0048	1187.7326	1187.8921	1225.1949	1233.5101	1283.6627	1333.8342	1366.3502	1385.0462	1431.1388	1463.6501	1466.8419	1500.9652	1510.2078	1521.635	1529.5096	2976.5846	2981.3644	3044.2438	3044.527	3119.667	3121.1453	3126.5764	3126.7886	3197.4407	3197.9081	3215.1791	3215.7866
C1CC11COCC11CC1	C1CC21COCC12CC1	
InChI=1S/C8H12O/c1-2-7(1)5-9-6-8(7)3-4-8/h1-6H2	InChI=1S/C8H12O/c1-2-7(1)5-9-6-8(7)3-4-8/h1-6H2
