15
gdb 24987	4.86287	1.21669	0.98617	2.0243	68.09	-0.1942	0.0398	0.234	1116.2267	0.115284	-453.986237	-453.978759	-453.977815	-454.01849	27.589	
O	 0.0021497805	-0.0305570376	-0.0225385764	-0.417892
C	-0.0144129508	 1.1808015821	-0.0228084135	 0.425889
N	-1.1305829883	 2.0297392773	-0.0022361539	-0.458667
C	-0.711708601	 3.349463929	 0.0868577682	 0.257624
C	 0.6261574096	 3.3677521591	 0.0680831528	 0.257624
C	 1.1310520124	 4.7661470476	-0.0482499778	-0.163773
O	-0.0729819515	 5.5447289939	 0.0544737195	-0.273374
C	-1.2576961381	 4.7334935307	-0.0147290659	-0.163773
N	 1.0782773639	 2.0599337519	-0.0332335787	-0.458667
H	-2.0585884033	 1.6602873519	 0.1068990004	 0.269385
H	 1.8119089239	 5.0786396347	 0.7554407768	 0.116586
H	 1.6352604809	 4.9630169464	-1.008558375	 0.111533
H	-1.7938388395	 4.916141603	-0.9604387865	 0.111533
H	-1.9240238	 5.0275709208	 0.8078659103	 0.116586
H	 2.0187293714	 1.7160230291	 0.0496803397	 0.269385
91.012	123.4478	209.3962	245.6445	320.6333	379.4711	473.8033	534.5942	550.4362	634.6219	731.9454	750.9619	782.9536	886.3739	896.7937	970.0825	1027.6462	1057.973	1064.6772	1092.5272	1153.884	1208.722	1237.2984	1272.6696	1277.8521	1344.9635	1378.9671	1465.0251	1483.2586	1524.9749	1534.1667	1712.7978	1846.748	2963.2734	2968.0545	3011.6033	3014.987	3689.8672	3689.9149
O=C1NC2=C(COC2)N1	O=c1[nH]c2c(COC2)[nH]1	
InChI=1S/C5H6N2O2/c8-5-6-3-1-9-2-4(3)7-5/h1-2H2,(H2,6,7,8)	InChI=1S/C5H6N2O2/c8-5-6-3-1-9-2-4(3)7-5/h1-2H2,(H2,6,7,8)
