14
gdb 8777	3.181	1.63328	1.08744	2.0545	69.74	-0.2452	-0.0777	0.1675	1036.382	0.104567	-378.701774	-378.692978	-378.692034	-378.735097	31.028	
C	-0.0159975196	 1.435024434	 0.0824568211	-0.344764
N	-0.0049170701	-0.0142718973	 0.0484470796	-0.281603
C	 0.470782911	-0.5728430458	-0.9989905951	 0.300092
N	 0.9595470132	 0.0040909111	-2.1376840793	-0.56021
C	 0.4947901409	-2.0810910713	-1.0537208763	 0.17642
O	 0.9959560493	-2.6586977092	-2.00060322	-0.317859
C	-0.0897002531	-2.7907232137	 0.059813099	 0.322291
C	-0.558156938	-3.4635888738	 0.9403689222	-0.406494
H	 1.0020347724	 1.8574955765	 0.0504428493	 0.113371
H	-0.5731295217	 1.8632342855	-0.7656508522	 0.121227
H	-0.4857116923	 1.7775786854	 1.0069742789	 0.131365
H	 1.2611554517	 0.9627841147	-2.1199831944	 0.260714
H	 1.4302974862	-0.6231476062	-2.7731613787	 0.272494
H	-0.9765901799	-4.04128779	 1.7282926158	 0.212955
76.04	133.4095	142.9974	175.9398	239.2218	282.0143	323.6151	346.235	430.0841	501.5382	543.2742	597.5453	643.8315	659.8298	713.5624	766.8314	820.983	989.817	1095.1893	1099.0859	1150.0274	1202.6354	1376.4781	1429.9788	1488.8398	1501.5992	1600.8802	1725.0371	1741.5469	2219.6552	2963.3369	3010.7651	3109.5199	3496.7579	3583.9625	3717.6806
CN=C(N)C(=O)C#C	CN=C(N)C(=O)C#C	
InChI=1S/C5H6N2O/c1-3-4(8)5(6)7-2/h1H,2H3,(H2,6,7)	InChI=1S/C5H6N2O/c1-3-4(8)5(6)7-2/h1H,2H3,(H2,6,7)
