16
gdb 112332	2.83125	1.39215	1.03781	4.6407	64.76	-0.254	-0.0068	0.2472	1118.9084	0.125469	-475.026844	-475.019129	-475.018185	-475.059404	29.053	
O	 0.0600732267	 1.3565021712	-0.1433318873	-0.420445
C	 0.0468981378	-0.0543326112	-0.0866792816	-0.072049
C	-1.357689369	-0.5905433961	 0.1647900899	 0.098149
O	-2.2083978306	-0.1346996448	-0.9187563163	-0.260533
C	-2.9918560144	-1.1335839188	-1.4259139797	 0.488956
O	-3.8720806061	-0.9312647461	-2.2080037354	-0.339899
C	-2.5504762192	-2.4338943479	-0.8138323831	-0.203272
N	-1.1155510638	-2.6949333207	-1.1152083894	-0.326812
C	-1.5008570327	-2.1030833168	 0.1745334993	-0.082432
H	-0.5365578392	 1.6118661789	-0.8562165542	 0.296902
H	 0.4385598164	-0.5148284779	-1.0032225761	 0.119687
H	 0.6961127898	-0.3437418334	 0.7471328753	 0.109626
H	-1.7578926626	-0.1589785276	 1.0896853138	 0.104693
H	-3.2551305411	-3.2506160847	-0.7326071953	 0.126739
H	-0.9438541431	-3.69068457	-0.9911185141	 0.247245
H	-1.3683326188	-2.6545089941	 1.097920124	 0.113444
103.0851	133.6357	155.4872	229.9648	336.9678	408.9982	433.1894	487.5649	506.7846	633.8949	713.3645	777.8712	827.5315	840.1659	879.0874	907.3817	934.0464	998.6499	1024.2618	1060.9341	1091.9326	1107.2419	1120.2183	1152.0107	1191.6811	1228.3319	1258.2017	1314.6012	1357.9521	1373.4248	1397.9074	1411.7809	1432.3767	1499.9417	1891.0656	3022.3964	3048.2846	3080.745	3186.402	3214.6197	3496.0378	3804.6557
OCC1OC(=O)C2NC12	OC[C@H]1OC(=O)[C@H]2N[C@@H]12	
InChI=1S/C5H7NO3/c7-1-2-3-4(6-3)5(8)9-2/h2-4,6-7H,1H2	InChI=1S/C5H7NO3/c7-1-2-3-4(6-3)5(8)9-2/h2-4,6-7H,1H2/t2-,3+,4+/m1/s1
