23
gdb 91121	3.50992	1.36875	1.28092	0.0626	88.52	-0.2726	0.0927	0.3653	1123.5488	0.20984	-351.168366	-351.160936	-351.159992	-351.199761	31.343	
C	-0.142270719	 1.5173600873	 0.0094407556	-0.412023
C	 0.0593473104	 0.0022464487	 0.0451445817	 0.030988
C	 0.9707780934	-0.5674687726	-1.0918925874	-0.253574
C	 2.0181084013	-1.2940092777	-0.2428439555	-0.008058
C	 1.2043916189	-2.000149416	 0.8914434216	-0.015406
C	 2.2482354725	-2.4306586453	 1.9268440696	-0.233696
C	 3.1248118398	-1.1402012639	 1.9478971484	-0.230419
C	 2.3601407606	-0.3028504632	 0.9162245985	-0.010678
C	 0.8480977538	-0.5223140884	 1.2558929776	-0.010554
H	 0.8135710603	 2.0514123745	 0.0391653776	 0.113286
H	-0.6622524839	 1.822881159	-0.9051197371	 0.110616
H	-0.7409546834	 1.858736808	 0.8613617633	 0.108627
H	-0.927236471	-0.4763813931	 0.0148101039	 0.062921
H	 0.4345239083	-1.2427286928	-1.7661572038	 0.090604
H	 1.4117592906	 0.2275776407	-1.7035500663	 0.09027
H	 2.81604661	-1.8280428622	-0.7656708829	 0.048945
H	 0.4117214225	-2.7102964036	 0.6420622612	 0.049443
H	 1.8014082098	-2.6547578469	 2.9005145412	 0.09246
H	 2.8084180315	-3.3158618859	 1.6097381444	 0.092707
H	 3.1511014249	-0.6634177657	 2.9327828169	 0.092571
H	 4.1598673296	-1.327434307	 1.6452991589	 0.092421
H	 2.7472818193	 0.6942173341	 0.6948781146	 0.052002
H	 0.4635822797	-0.275192068	 2.2495581681	 0.046547
153.7136	216.9686	231.6593	272.5886	320.8947	380.7515	448.0091	577.9418	659.2178	685.5897	779.4159	822.036	826.8191	894.1079	907.4576	908.8198	924.7149	939.9615	944.1952	960.2662	987.241	1015.5798	1024.7889	1039.8463	1048.3448	1066.0936	1102.3578	1115.6323	1134.1703	1183.0243	1197.1202	1208.2246	1255.5984	1258.9501	1260.6963	1265.5787	1266.787	1273.8232	1311.5355	1315.0205	1322.7107	1374.6643	1385.0791	1410.8241	1492.9363	1496.7834	1498.0006	1503.822	1513.6698	3019.2957	3025.6856	3037.7752	3040.5458	3049.7563	3070.1031	3073.6341	3074.235	3077.8256	3081.3561	3091.3254	3091.8609	3093.7479	3098.0575
CC1CC2C3CCC2C13	C[C@H]1C[C@@H]2[C@H]3CC[C@@H]2[C@@H]13	
InChI=1S/C9H14/c1-5-4-8-6-2-3-7(8)9(5)6/h5-9H,2-4H2,1H3	InChI=1S/C9H14/c1-5-4-8-6-2-3-7(8)9(5)6/h5-9H,2-4H2,1H3/t5-,6-,7+,8-,9+/m0/s1
