21
gdb 67451	2.15666	1.86556	1.79946	1.6649	80.96	-0.2354	0.0805	0.3159	971.385	0.184369	-387.079213	-387.071555	-387.070611	-387.111001	31.005	
C	-0.0401869041	 1.5180330155	 0.0444383612	-0.526894
C	 0.0294312668	 0.0126537379	-0.0094655828	 0.355136
C	 0.6278790649	-0.8495928525	-1.1872124746	-0.088106
C	 1.500775895	-1.6102706609	-0.1513761763	-0.23875
C	 0.8543588811	-0.8103507111	 1.0224800035	-0.088486
C	-0.1947852423	-1.5399911765	 1.8498721803	-0.088495
O	-1.3100116939	-1.7563034262	 0.9851874612	-0.277823
C	-1.2756307935	-0.8385558049	-0.1015565012	 0.062925
C	-0.767269154	-1.4704731526	-1.428720146	-0.241686
H	 0.9592648502	 1.9659685038	 0.0066920755	 0.115994
H	-0.6159066582	 1.9237978866	-0.7954259996	 0.11745
H	-0.5225150919	 1.8584055601	 0.9691276771	 0.119338
H	 1.1466628014	-0.4179460022	-2.0442740528	 0.061327
H	 1.372498901	-2.6970954995	-0.1208827007	 0.097937
H	 2.5662562208	-1.3938488838	-0.2604673433	 0.09957
H	 1.5619773735	-0.251427121	 1.638855719	 0.067663
H	 0.1410845119	-2.5152322504	 2.2209297654	 0.102611
H	-0.4965972309	-0.9317067968	 2.7178975858	 0.086441
H	-2.2289234803	-0.3018197619	-0.1532399158	 0.07012
H	-1.2612910492	-1.0264471745	-2.298271207	 0.095391
H	-0.8418263784	-2.5594791692	-1.4916530287	 0.098336
106.9258	198.0415	210.8501	248.7613	344.473	355.3045	394.1943	568.4672	595.431	650.9015	711.6133	788.5104	804.5661	848.2913	867.4054	883.5153	923.8026	939.4096	966.4744	988.2906	1021.9619	1044.1955	1081.935	1113.6868	1119.7145	1133.7695	1156.9077	1164.074	1195.4416	1202.795	1216.3347	1236.398	1256.9146	1285.0859	1299.249	1330.669	1338.0266	1352.1644	1393.4973	1411.4004	1464.5121	1481.3352	1489.0098	1493.9567	1517.5174	2970.616	3016.6559	3039.8165	3046.6418	3052.2361	3055.0382	3079.7935	3081.5553	3085.9865	3091.1457	3103.9593	3109.2351
CC12C3CC1COC2C3	C[C@@]12[C@H]3C[C@@H]1CO[C@@H]2C3	
InChI=1S/C8H12O/c1-8-5-2-6(8)4-9-7(8)3-5/h5-7H,2-4H2,1H3	InChI=1S/C8H12O/c1-8-5-2-6(8)4-9-7(8)3-5/h5-7H,2-4H2,1H3/t5-,6+,7+,8+/m0/s1
