23
gdb 114097	3.04911	1.1421	0.97608	1.7044	85.62	-0.2378	0.0726	0.3104	1344.882	0.20519	-388.268894	-388.259478	-388.258534	-388.303125	35.763	
C	 0.2034616789	 1.4112457114	-0.2808320379	-0.38154
C	 0.0695952931	-0.0933972368	-0.0263989066	-0.18971
C	-1.376364112	-0.5487169043	 0.1246811659	 0.034485
C	-2.3310813263	-0.4855537568	-1.114916193	-0.313255
C	-2.7343735496	-1.9777767914	-0.8928285039	 0.309575
C	-4.199613138	-2.3145253918	-0.7451903566	-0.503077
C	-1.8084794486	-2.9518540229	-1.64382965	-0.115147
O	-0.7995626904	-2.8700885988	-0.6110977967	-0.294174
C	-1.6547769109	-2.0660199451	 0.2318926082	 0.046589
H	 1.2522178964	 1.7017622504	-0.3975940072	 0.111728
H	-0.3261319439	 1.7108843643	-1.1919918834	 0.115588
H	-0.2132467229	 1.9942875364	 0.5483334793	 0.109993
H	 0.5310904867	-0.6592620293	-0.8428837117	 0.108442
H	 0.6256719014	-0.3636065712	 0.8811938391	 0.093584
H	-1.84116674	-0.0385221996	 0.9779096781	 0.065359
H	-3.1581000652	 0.2219877454	-1.016442502	 0.098178
H	-1.8320701777	-0.2962136184	-2.0708363493	 0.095761
H	-4.7283893951	-2.1887405963	-1.6981757041	 0.119835
H	-4.3422526818	-3.3506978929	-0.4192251097	 0.118542
H	-4.6873274726	-1.6613660645	-0.0132895005	 0.11763
H	-2.2033120611	-3.9741412324	-1.731313009	 0.092574
H	-1.4334507268	-2.6287917942	-2.6234456946	 0.096001
H	-1.7931086937	-2.5151543211	 1.2209576956	 0.063038
70.8591	98.6575	151.7112	206.5232	213.6195	242.732	281.6689	333.019	382.8798	412.1303	498.7913	633.8038	681.9699	774.3385	793.6478	843.6984	875.2014	907.6325	932.4138	939.699	961.706	987.1961	1010.4084	1033.1931	1041.4721	1079.2808	1124.2464	1152.3682	1163.9746	1194.7129	1198.848	1234.1419	1256.6523	1270.4256	1283.9166	1288.5637	1321.4268	1345.0743	1379.9224	1384.9197	1411.879	1413.0539	1481.7828	1490.3241	1492.2829	1493.7566	1499.4695	1507.9767	1522.6664	2991.8497	3019.5252	3019.9753	3022.9019	3028.2964	3041.5863	3046.5479	3053.4452	3068.8892	3082.0469	3093.4513	3095.9139	3100.4387	3102.5125
CCC1CC2(C)COC12	CC[C@H]1C[C@@]2(C)CO[C@@H]12	
InChI=1S/C8H14O/c1-3-6-4-8(2)5-9-7(6)8/h6-7H,3-5H2,1-2H3	InChI=1S/C8H14O/c1-3-6-4-8(2)5-9-7(6)8/h6-7H,3-5H2,1-2H3/t6-,7-,8-/m0/s1
