13
gdb 43033	2.94733	1.68935	1.22768	5.4988	68.4	-0.2762	-0.0437	0.2326	958.0058	0.09005	-415.570664	-415.563874	-415.56293	-415.602035	25.608	
O	-0.0557341642	 0.043467538	 0.0529266826	-0.298794
C	-0.05225886	 1.2334024634	 0.1001571501	 0.430365
C	-1.0869078398	 2.3408386147	-0.0858862933	-0.141075
C	-1.0158561637	 3.1726004886	 1.2131590653	-0.257057
C	 0.3807321186	 3.5204030192	 0.7199975298	-0.0497
N	 0.0705906547	 3.2219170149	-0.6937194194	-0.159435
C	 1.019926766	 2.2970143751	 0.0962217287	 0.065454
C	 2.4155157633	 2.1829427031	-0.1631187468	 0.196376
N	 3.5499441699	 2.062879261	-0.3521448499	-0.328186
H	-2.0008894644	 2.1751167546	-0.6482937111	 0.129517
H	-1.6600267352	 4.0531994935	 1.1617315327	 0.14102
H	-1.151405988	 2.6592701858	 2.1681243736	 0.134482
H	 1.0143487329	 4.3571631382	 0.9931918576	 0.137032
134.0264	151.8117	190.6106	371.3894	397.5792	492.2375	535.8369	620.1274	625.5962	721.7932	766.917	793.1154	821.957	897.8694	935.1541	988.4947	995.7808	1010.0024	1082.7997	1136.3334	1163.1412	1205.0038	1233.1857	1260.867	1282.3517	1384.3154	1494.8422	1913.3364	2358.0236	3068.9553	3127.684	3179.9474	3186.2408
O=C1C2CC3N2C13C#N	O=C1[C@H]2C[C@@H]3N2[C@]13C#N	
InChI=1S/C6H4N2O/c7-2-6-4-1-3(5(6)9)8(4)6/h3-4H,1H2	InChI=1S/C6H4N2O/c7-2-6-4-1-3(5(6)9)8(4)6/h3-4H,1H2/t3-,4+,6+,8?/m1/s1
