24
gdb 113785	2.52137	1.20586	0.976	1.0673	90.28	-0.2095	0.083	0.2925	1364.2618	0.215924	-368.364846	-368.354828	-368.353884	-368.399415	38.639	
C	 0.9074486084	-1.8146397156	-0.1383720755	-0.382609
C	-0.1410173396	-2.1381042118	 0.9345177742	-0.220376
C	-1.4439381648	-1.3767512579	 0.742719886	 0.032194
C	-2.5446047114	-1.3940782021	 1.7521503681	-0.274073
N	-1.8945065703	-0.1453360136	 1.3887036177	-0.140577
C	-1.2543371983	 0.6813045432	 2.3876006712	 0.365026
C	-2.1910398413	 1.8148576364	 2.7676978342	-0.414278
C	-0.3350257733	 0.1729939323	 3.4845265311	-0.31492
C	 0.2148663499	 0.9868321288	 2.3284630329	-0.30231
H	 1.1817876205	-0.7554272661	-0.1381832436	 0.127613
H	 1.8202511405	-2.3983360546	 0.0152357562	 0.113747
H	 0.5261488538	-2.0507841054	-1.1377556368	 0.117555
H	-0.3805319845	-3.2082813881	 0.873916912	 0.105017
H	 0.2765704318	-1.9818980346	 1.9314119009	 0.106195
H	-1.7561838213	-1.39341852	-0.3039081923	 0.084943
H	-3.5846998971	-1.5160894021	 1.4556612779	 0.106031
H	-2.2994382078	-1.819854969	 2.7259479229	 0.10329
H	-3.1203975077	 1.420410469	 3.1933368152	 0.114582
H	-1.7325816321	 2.4744287262	 3.5108075135	 0.104385
H	-2.4510377498	 2.4065652951	 1.8849086344	 0.121004
H	-0.409374687	 0.6476637272	 4.4576190501	 0.107259
H	-0.08622064	-0.8791441788	 3.5345494423	 0.112531
H	 0.8190476417	 0.4664517816	 1.5962927255	 0.118949
H	 0.5327767098	 2.0074383901	 2.5153827121	 0.10882
61.9895	121.0591	166.9328	187.1625	219.344	236.1615	266.4746	319.7944	338.3809	361.9471	420.7966	503.8068	552.4169	589.8908	742.8289	779.3944	796.5453	824.4416	854.8027	918.1101	932.2474	950.6949	963.6929	1010.5113	1031.2265	1055.9073	1058.4105	1063.2049	1076.7533	1116.7401	1121.1402	1139.5995	1167.3138	1185.1004	1187.9443	1259.8425	1288.8032	1317.1155	1339.999	1384.6625	1413.2034	1414.2421	1430.4123	1463.0677	1477.3762	1483.7365	1495.5439	1499.4283	1506.8883	1509.1533	1514.3014	3022.2084	3031.8153	3036.0986	3070.8591	3074.3046	3092.9786	3097.6705	3110.1622	3111.7478	3115.6413	3138.1287	3142.1155	3155.3827	3223.6258	3236.3614
CCC1CN1C1(C)CC1	CC[C@H]1CN1C1(C)CC1	
InChI=1S/C8H15N/c1-3-7-6-9(7)8(2)4-5-8/h7H,3-6H2,1-2H3	InChI=1S/C8H15N/c1-3-7-6-9(7)8(2)4-5-8/h7H,3-6H2,1-2H3/t7-,9?/m0/s1
