19
gdb 78776	3.16707	1.39731	1.26317	0.6569	74.14	-0.24	0.0714	0.3114	1060.7634	0.158268	-422.966595	-422.958389	-422.957445	-422.998556	33.305	
C	-0.0020265214	 1.566687875	 0.0260190265	-0.471931
C	 0.0824144548	 0.0459322627	 0.0284351616	 0.42288
O	-1.2236312283	-0.517122474	 0.1136008696	-0.483854
C	 0.8058284799	-0.6941230057	-1.0947479001	-0.091764
C	 2.2896504521	-0.7964354191	-0.7250036925	-0.126918
C	 1.2758633618	-1.7718247601	-0.1550141424	-0.104873
C	 1.0706845047	-0.6905813222	 0.988752072	-0.1696
C	 2.4853136778	-0.1461787497	 0.6450795442	 0.143883
O	 3.5339086006	-0.7196880454	 1.3968814702	-0.448514
H	 0.9657966087	 2.0373186259	-0.161680183	 0.126538
H	-0.6987336799	 1.8927557861	-0.7523723566	 0.126092
H	-0.3739398983	 1.9391378016	 0.9892653683	 0.106875
H	-1.6416259722	-0.161182482	 0.9052992125	 0.273595
H	 0.4709236478	-0.8078029563	-2.1185856448	 0.091431
H	 3.04359092	-0.9762580024	-1.4820741799	 0.090587
H	 1.1785446297	-2.8453598919	-0.2050617279	 0.095593
H	 0.794392904	-0.8767061462	 2.0261331916	 0.065401
H	 2.6473011373	 0.9335533661	 0.7103516076	 0.077031
H	 3.4746948208	-1.6768039924	 1.2877530231	 0.277548
179.848	199.252	228.7938	256.9431	292.9263	308.2093	371.5377	384.371	445.586	492.6263	570.6064	625.1053	786.4324	792.0812	831.3317	837.7901	878.6772	903.8382	928.5026	941.5811	962.0464	1007.3796	1031.039	1037.1949	1038.9605	1075.0587	1120.7344	1148.4339	1154.8845	1179.324	1200.149	1203.817	1252.7751	1281.0683	1294.5472	1356.7241	1396.9429	1406.764	1442.8865	1488.4888	1498.8424	3025.2973	3071.0364	3094.4162	3125.2662	3125.8251	3185.9953	3194.2674	3235.013	3779.604	3800.6962
CC1(O)C2C3C2C1C3O	C[C@@]1(O)[C@H]2[C@@H]3[C@H]2[C@H]1[C@H]3O	
InChI=1S/C7H10O2/c1-7(9)4-2-3(4)6(8)5(2)7/h2-6,8-9H,1H3	InChI=1S/C7H10O2/c1-7(9)4-2-3(4)6(8)5(2)7/h2-6,8-9H,1H3/t2-,3+,4-,5+,6+,7-/m1/s1
