16
gdb 67392	3.02331	1.60101	1.44602	4.1613	68.46	-0.2616	-0.0086	0.253	952.9239	0.125382	-437.881563	-437.87451	-437.873566	-437.912915	27.588	
C	 0.0566160121	 1.4942632058	 0.0347291137	-0.524053
C	-0.0588965481	 0.0087282706	-0.0711216727	 0.334852
C	 0.5223768908	-0.8979967122	-1.084601864	-0.247427
N	 0.9912568149	-0.9774717292	 0.352548741	-0.182869
C	-0.0490477768	-1.7252435311	 1.1331979175	-0.172853
C	-1.1790796068	-0.9539041366	 0.426320022	 0.004168
O	-1.6165808454	-1.7157702368	-0.7050238099	-0.23267
C	-0.5667791586	-1.8024184337	-1.5851680535	 0.463427
O	-0.6051617113	-2.457598484	-2.5843105097	-0.344441
H	 1.0581707801	 1.8150456523	-0.265105124	 0.145209
H	-0.6742926487	 1.9897738522	-0.6130406953	 0.138983
H	-0.1138312451	 1.8332857923	 1.0619432383	 0.133286
H	 1.3011294428	-0.5988095487	-1.7730558705	 0.127482
H	-0.0519228571	-2.8126934942	 1.0126162552	 0.125651
H	 0.0672066182	-1.4588088684	 2.1860859364	 0.12527
H	-2.0498954808	-0.5928427883	 0.9689409655	 0.105985
139.8024	188.1944	217.664	268.3501	404.8902	446.2179	475.6098	578.6803	648.3713	676.6521	719.9368	797.2105	815.7882	889.3765	900.87	929.6708	945.8094	1004.7163	1019.5644	1086.8291	1098.1937	1115.2798	1144.2848	1177.5005	1206.3469	1235.0313	1259.511	1301.928	1345.2965	1405.8347	1441.9633	1481.43	1490.2715	1494.2687	1884.9611	3035.7256	3057.4597	3100.4381	3118.7494	3122.5032	3147.0894	3217.8719
CC12C3N1CC2OC3=O	C[C@@]12[C@H]3N1C[C@@H]2OC3=O	
InChI=1S/C6H7NO2/c1-6-3-2-7(6)4(6)5(8)9-3/h3-4H,2H2,1H3	InChI=1S/C6H7NO2/c1-6-3-2-7(6)4(6)5(8)9-3/h3-4H,2H2,1H3/t3-,4-,6+,7?/m0/s1
