21
gdb 98849	3.18082	1.07708	0.85647	3.5067	81.75	-0.2305	0.0604	0.2909	1413.2206	0.182357	-420.438269	-420.428116	-420.427172	-420.473966	35.894	
C	 0.07138196	 1.4162174111	-0.3437811643	-0.323871
N	 0.0001325375	-0.0081499299	-0.0801591061	-0.351824
C	-1.2203290271	-0.6386548139	 0.0310178533	 0.451805
O	-2.2854537818	-0.1108217389	-0.2512010439	-0.41793
N	-1.1467783009	-1.9392248194	 0.4865966507	-0.135483
C	-0.0695125426	-2.9212689492	 0.2770121017	-0.185263
C	-1.1412202083	-4.0420903475	 0.307473172	-0.264545
C	-2.2249588344	-2.9241141967	 0.2648571317	 0.088422
C	-3.3277495613	-2.9336685935	 1.3082830077	-0.401465
H	 0.1911197722	 2.0094510577	 0.5726052756	 0.117638
H	 0.905514204	 1.6395275564	-1.016338762	 0.118112
H	-0.8647068821	 1.7076959076	-0.8208228692	 0.168471
H	 0.7850545512	-0.4337486852	 0.3858400128	 0.241039
H	 0.4364233054	-2.8104141787	-0.690931048	 0.111465
H	 0.6876787895	-2.9480192053	 1.0692998984	 0.104534
H	-1.1309361741	-4.7368450345	-0.5324896664	 0.112012
H	-1.1480431353	-4.6068692132	 1.2419042049	 0.111205
H	-2.66266724	-2.8034149867	-0.734261293	 0.087688
H	-2.9114168136	-3.0455799809	 2.3147566803	 0.109314
H	-3.8872871517	-1.9958190891	 1.2646666555	 0.148001
H	-4.0211770567	-3.76161493	 1.1238556485	 0.110675
71.2081	83.454	96.4491	129.0858	150.5366	186.6396	242.2117	274.9479	325.8882	420.5272	453.1812	492.0018	540.6696	724.3038	774.5171	812.3932	825.3096	891.6394	942.4413	958.3794	976.8475	1081.0562	1112.8143	1145.3708	1153.2454	1156.1035	1174.2765	1185.499	1199.7504	1232.2663	1263.0932	1284.9891	1332.0242	1347.0248	1386.8953	1405.3868	1441.3518	1483.1527	1489.413	1492.846	1502.2764	1503.5176	1525.6875	1559.1926	1764.7275	3009.9037	3013.1149	3024.3856	3033.6664	3050.7359	3077.3581	3082.9904	3103.3031	3125.87	3140.5806	3154.9436	3634.0269
CNC(=O)N1CCC1C	CNC(=O)N1CC[C@H]1C	
InChI=1S/C6H12N2O/c1-5-3-4-8(5)6(9)7-2/h5H,3-4H2,1-2H3,(H,7,9)	InChI=1S/C6H12N2O/c1-5-3-4-8(5)6(9)7-2/h5H,3-4H2,1-2H3,(H,7,9)/t5-/m1/s1
