18
gdb 103105	2.23286	1.2074	1.17998	3.9096	73.26	-0.273	0.0215	0.2945	1191.3958	0.144802	-439.081893	-439.071885	-439.070941	-439.116764	36.185	
C	 0.0285078309	 1.5342302033	-0.2670551983	-0.407467
C	 0.0021429973	 0.0629724578	 0.1659106724	-0.232036
C	-1.3876341613	-0.5341351543	 0.0919303628	 0.363239
O	-2.3494579181	 0.0419519749	 0.9315306848	-0.464964
C	-1.9019996347	-1.1200827125	-1.1908304322	 0.02622
O	-1.0538641581	-1.1081445512	-2.2865660508	-0.406601
C	-1.5864459022	-2.0440159767	 0.0026990448	-0.302899
C	-0.4730895504	-2.9380054299	-0.0933866545	 0.302264
N	 0.415886388	-3.6714693262	-0.2012845127	-0.348605
H	 1.0422938005	 1.9373057915	-0.1957793747	 0.12649
H	-0.3049920038	 1.6439424559	-1.3037589938	 0.13493
H	-0.6091492379	 2.1564416834	 0.3712547102	 0.108951
H	 0.6747531795	-0.5178132035	-0.4688419123	 0.135748
H	 0.358837913	-0.0352756665	 1.1973465802	 0.115058
H	-2.5242916151	 0.9349035649	 0.6130893734	 0.290826
H	-2.9642490775	-0.9920166419	-1.3978009675	 0.107838
H	-1.073898274	-1.9725908616	-2.7132133947	 0.305594
H	-2.4418651159	-2.4233642473	 0.5507950128	 0.145413
68.4609	100.9198	117.0804	189.5027	233.9027	247.8253	263.6686	283.1253	311.4407	390.6271	405.7303	424.6533	514.9153	615.9154	650.3627	706.8518	785.1113	817.4451	880.7832	938.9278	1001.1451	1037.6108	1061.211	1084.7828	1112.5166	1158.5938	1222.0486	1263.1181	1306.9644	1307.4186	1319.039	1354.501	1385.4212	1406.1844	1464.1764	1472.1348	1502.9138	1507.3251	2349.5047	3032.7709	3050.8365	3093.1844	3110.4742	3116.5092	3121.6178	3179.5116	3793.3126	3798.7066
CCC1(O)C(O)C1C#N	CC[C@@]1(O)[C@@H](O)[C@H]1C#N	
InChI=1S/C6H9NO2/c1-2-6(9)4(3-7)5(6)8/h4-5,8-9H,2H2,1H3	InChI=1S/C6H9NO2/c1-2-6(9)4(3-7)5(6)8/h4-5,8-9H,2H2,1H3/t4-,5+,6+/m1/s1
