13
gdb 7238	4.63497	1.30826	1.02248	2.6341	60.02	-0.2563	-0.059	0.1972	1065.1103	0.094625	-431.944631	-431.936418	-431.935474	-431.978073	28.492	
N	 0.1406114864	 0.1660955574	 1.1845721596	-0.542383
C	-0.0004210077	 0.0399696738	-0.1741188084	 0.214874
N	 0.6044595521	 0.6646934003	-1.1072975524	-0.471822
C	-1.0628178247	-0.9537107919	-0.6210864922	 0.492069
O	-1.4445107863	-1.1113314238	-1.740421493	-0.307538
O	-1.5267360318	-1.6705649781	 0.4626703999	-0.229733
C	-2.5009282016	-2.6170761294	 0.2491493726	 0.118023
N	-2.9051295062	-3.2688665939	 1.2443983555	-0.420858
H	 0.9463244718	 0.6576036049	 1.5348792025	 0.256274
H	-0.2580978223	-0.5408726721	 1.7795490346	 0.279608
H	 1.3008519414	 1.3106337855	-0.7292047196	 0.213495
H	-2.8055920173	-2.6797743452	-0.7951802792	 0.152742
H	-3.6226133338	-3.9328502174	 0.95645791	 0.245251
49.0642	113.2112	119.8538	166.1335	331.8051	355.3615	406.0429	433.8468	458.9015	504.8635	569.5245	655.1867	808.8979	854.0835	884.9039	904.7441	1014.6225	1071.9847	1097.647	1110.9429	1171.5072	1262.3098	1384.8229	1415.9052	1621.6856	1721.2045	1747.245	1868.2776	3147.0432	3453.8228	3509.0713	3599.2889	3721.5724
NC(=N)C(=O)OC=N	NC(=N)C(=O)O[CH][NH]	
InChI=1S/C3H5N3O2/c4-1-8-3(7)2(5)6/h1,4H,(H3,5,6)	InChI=1S/C3H5N3O2/c4-1-8-3(7)2(5)6/h1,4H,(H3,5,6)
