19
gdb 22686	1.94329	1.61318	1.12942	8.0521	78.03	-0.1261	0.0202	0.1463	1145.183	0.157672	-456.202959	-456.193877	-456.192932	-456.237112	34.05	
O	-1.9354995947	 0.8078181519	 1.5866515383	-0.450686
C	-0.7300596703	 0.3206228806	 0.7937348483	-0.187794
C	-1.1106997759	-0.6977662709	-0.1907210526	 0.187032
C	-1.4057915892	-2.1202791466	 0.2287717136	-0.329521
C	-2.9098903505	-2.3486081555	 0.3431424817	 0.040522
C	-3.6226644699	-2.4669135687	 1.6408041954	-0.251962
N	-3.6751729713	-1.1810950775	 0.9030916804	-0.242067
H	-3.0676630878	-0.3692102922	 1.2322029824	 0.324783
H	-4.5325392111	-0.9274545792	 0.4277054524	 0.302561
N	-1.574852879	-0.2721336779	-1.3576680182	-0.096544
O	-2.215557338	-1.1352902217	-2.0588675249	-0.500356
H	-2.2838497126	 1.5416162263	 1.0650505305	 0.280086
H	-0.3079225184	 1.2017610169	 0.3061934861	 0.120151
H	-0.055614553	-0.0350853672	 1.5768776963	 0.100303
H	-1.0637558146	-2.8015224056	-0.5579334475	 0.133432
H	-0.9104797243	-2.3770940997	 1.1716456631	 0.084228
H	-3.3876551713	-2.7381092763	-0.545515711	 0.160643
H	-4.5670320504	-2.9954616276	 1.7113673381	 0.158009
H	-3.0540508377	-2.4033407292	 2.5631438575	 0.167179
59.7785	96.4208	124.0356	223.1101	252.9535	290.5733	339.4641	369.9199	420.3031	469.8713	509.3035	595.1806	667.7093	734.3289	754.7943	817.5938	845.7982	870.0048	906.3564	929.0434	955.4729	995.3478	1072.3166	1121.2918	1144.2737	1154.5299	1187.8668	1219.0017	1269.4974	1270.9185	1305.0564	1317.7839	1325.4666	1330.7416	1367.5062	1385.7772	1439.2386	1450.7065	1469.9574	1496.1834	1702.5029	2682.4758	3030.3001	3063.2596	3084.1173	3126.0769	3136.4226	3224.9736	3235.5904	3583.4903	3785.3681
OCC(CC1C[NH2+]1)=N[O-]	OCC(=N[O])C[C@H]1C[NH2]1	
InChI=1S/C5H10N2O2/c8-3-5(7-9)1-4-2-6-4/h4,6,8-9H,1-3H2	InChI=1S/C5H10N2O2/c8-3-5(7-9)1-4-2-6-4/h4,8H,1-3,6H2/t4-/m0/s1
