19
gdb 104472	1.73872	1.57661	1.14255	2.6077	73.11	-0.2398	-0.0219	0.2179	1182.6407	0.156184	-460.151681	-460.141725	-460.140781	-460.186258	36.342	
C	 0.523627382	 1.4303177763	 0.5558353797	-0.38373
C	-0.1345283041	 0.1235381762	 0.0917637739	-0.285731
C	 0.4454311737	-0.4056180123	-1.2085258436	 0.142583
C	 0.0904449799	 0.3019189164	-2.4586753333	 0.091983
O	 0.4264516867	-0.0598763281	-3.5663920103	-0.286782
C	 1.8910767262	-1.0002253067	-1.2267158294	 0.080058
O	 2.5972379356	-1.0873434618	-0.0404927037	-0.422114
C	 0.7190202996	-1.8959260602	-1.4122930709	-0.012938
O	 0.4069864005	-2.7219784228	-0.3201518211	-0.434266
H	 1.5886163874	 1.2731281525	 0.743715465	 0.141659
H	 0.4254665839	 2.2209422743	-0.1957877427	 0.114066
H	 0.0588083692	 1.7929036476	 1.4778839347	 0.112081
H	-0.0375154524	-0.6365042038	 0.8702672959	 0.116634
H	-1.2137231394	 0.2726958047	-0.0427026564	 0.102574
H	-0.5167461031	 1.2240931764	-2.3222358001	 0.077419
H	 2.5021112845	-0.7270540497	-2.0804987661	 0.128564
H	 2.1594677827	-1.7725984828	 0.4856346126	 0.290959
H	 0.4860837757	-2.2877214313	-2.3992907879	 0.123018
H	 0.7347474314	-3.6057536548	-0.5195122162	 0.303962
91.7442	117.4976	144.0599	200.932	205.4213	231.8025	239.9619	261.3105	304.4054	316.8423	451.2582	512.5153	551.5621	649.1301	666.5568	714.2104	765.8598	778.4775	880.0531	974.4053	1001.6875	1039.9656	1059.3258	1091.9437	1103.4003	1147.4894	1175.3648	1216.4998	1244.1814	1289.6065	1309.1605	1331.9548	1370.4235	1399.8368	1411.662	1426.6069	1461.5472	1492.8923	1499.7847	1511.3876	1784.1432	2882.8943	3028.5798	3037.8969	3091.9331	3109.2648	3127.8345	3141.9007	3173.9477	3725.3102	3810.5995
CCC1(C=O)C(O)C1O	CC[C@@]1(C=O)[C@@H](O)[C@H]1O	
InChI=1S/C6H10O3/c1-2-6(3-7)4(8)5(6)9/h3-5,8-9H,2H2,1H3	InChI=1S/C6H10O3/c1-2-6(3-7)4(8)5(6)9/h3-5,8-9H,2H2,1H3/t4-,5+,6+
