19
gdb 127230	2.83696	1.20655	0.90187	3.0831	80.27	-0.2259	0.0217	0.2476	1319.717	0.159285	-419.231783	-419.222022	-419.221078	-419.267205	34.23	
C	 0.0126354347	 1.402863196	 0.1019187281	-0.318964
N	-0.0206431409	-0.0400311611	 0.0106197875	 0.054532
C	 0.0956977019	-0.8092858313	-1.1040557767	-0.119501
C	 0.100750015	-2.1280085688	-0.699319422	 0.127339
C	 0.1885382382	-3.3656006343	-1.5393942856	-0.515077
C	-0.0137162856	-2.0472502653	 0.7134143984	 0.238883
C	-0.0378637866	-3.1743767779	 1.6994233669	-0.16675
O	 1.1394860824	-3.981275465	 1.6412215872	-0.415351
N	-0.0760600084	-0.7814401193	 1.1314067514	-0.334549
H	 1.0230966159	 1.7672774468	 0.3180303662	 0.140232
H	-0.3264943647	 1.8327216784	-0.8428901796	 0.137291
H	-0.6548726856	 1.720150392	 0.9045412823	 0.155584
H	 0.1625537175	-0.3662456763	-2.0862844316	 0.125357
H	 0.5687271266	-3.1440096292	-2.5407724537	 0.116747
H	 0.8509389063	-4.098366761	-1.0706438605	 0.147297
H	-0.7900206786	-3.8469753162	-1.6607024529	 0.12607
H	-0.1993858937	-2.7605958827	 2.7041256138	 0.107208
H	-0.861658576	-3.8642969302	 1.4860968918	 0.111803
H	 1.8897816318	-3.3909823044	 1.7681258689	 0.281847
59.9927	68.8802	103.8983	139.5369	181.6418	230.7709	271.2887	277.868	359.6426	412.6626	478.4094	605.9416	630.5102	659.0767	766.8577	790.7777	792.6819	971.3658	1007.8144	1028.5286	1052.0906	1066.6328	1084.2699	1147.7126	1194.4957	1195.8831	1212.6029	1344.1362	1354.9568	1407.7354	1415.949	1421.1971	1445.749	1466.1859	1481.3526	1484.6185	1492.9451	1500.4826	1511.5008	1524.1453	1609.7722	3014.311	3025.131	3037.7586	3068.1593	3084.0563	3111.4932	3119.0487	3149.1744	3246.3616	3809.7673
CN1C=C(C)C(CO)=N1	Cn1cc(C)c(CO)n1	
InChI=1S/C6H10N2O/c1-5-3-8(2)7-6(5)4-9/h3,9H,4H2,1-2H3	InChI=1S/C6H10N2O/c1-5-3-8(2)7-6(5)4-9/h3,9H,4H2,1-2H3
