18
gdb 35131	5.26465	0.84328	0.82097	3.3988	76.34	-0.2799	0.0314	0.3114	1398.489	0.148123	-401.92961	-401.921252	-401.920307	-401.963417	30.667	
N	-0.3074047591	-1.1553551023	-0.0367552936	-0.327782
C	-0.0755743154	-0.0222766726	-0.0217863903	 0.271062
C	 0.224398347	 1.4012684911	 0.0105851647	-0.166078
C	-0.1091567439	 2.0825556763	 1.3793782037	-0.246646
C	 1.3947395697	 1.9753615552	 1.7696025222	 0.002512
C	 1.7334728791	 1.720238139	 0.2763446398	-0.254358
C	 2.0109281647	 3.1625226355	 2.4571990845	 0.064203
C	 3.3408733586	 3.6818803071	 2.1175705563	-0.181936
O	 2.1567473997	 4.3518660833	 1.6742920995	-0.233831
H	-0.2113661062	 1.8728358076	-0.8729750067	 0.125946
H	-0.407780721	 3.1213176487	 1.2216427961	 0.129639
H	-0.8408392478	 1.5830535002	 2.015021637	 0.125512
H	 1.5712091745	 1.0792237568	 2.3736468848	 0.09721
H	 2.452709869	 0.935841892	 0.0394180979	 0.123177
H	 2.0133152076	 2.6491732756	-0.2246710466	 0.133029
H	 1.6427092472	 3.3482389601	 3.4683293487	 0.097622
H	 3.9241588049	 4.2119512574	 2.8685123708	 0.122328
H	 3.9227249414	 3.1997014988	 1.3334664813	 0.118391
57.5994	85.14	144.3948	184.4541	235.4859	287.258	424.4803	492.263	568.4082	569.4585	659.682	796.0997	809.4724	821.3293	880.0279	909.2295	933.3853	956.5153	988.8875	1028.5334	1073.6743	1091.6482	1119.8925	1129.8715	1164.4734	1171.9369	1189.8316	1207.7741	1259.2092	1271.3785	1277.0035	1295.9904	1342.6939	1381.3905	1431.2739	1469.7219	1491.0568	1529.4281	2351.5656	3056.1882	3075.9248	3078.4683	3086.3069	3087.877	3091.8496	3141.1585	3144.4027	3174.3565
N#CC1CC(C1)C1CO1	N#C[C@H]1C[C@@H](C1)[C@H]1CO1	
InChI=1S/C7H9NO/c8-3-5-1-6(2-5)7-4-9-7/h5-7H,1-2,4H2	InChI=1S/C7H9NO/c8-3-5-1-6(2-5)7-4-9-7/h5-7H,1-2,4H2/t5-,6-,7-/m1/s1
