16
gdb 25560	6.19618	0.80843	0.71835	1.2862	73.76	-0.2224	0.0056	0.2279	1497.9567	0.125749	-434.097532	-434.089011	-434.088067	-434.133991	29.161	
N	-0.1763483772	 1.2904083425	 0.0105607347	-0.437349
C	-0.089354851	 0.0330330612	 0.0045668534	 0.137342
O	-1.2137804998	-0.7125211362	 0.0102162237	-0.202574
C	-1.042328025	-2.1309739875	 0.0018282206	-0.186777
C	-2.408513578	-2.7408125466	 0.011954538	 0.339766
N	-2.6737347773	-4.0271111957	 0.0106534116	-0.319336
C	-4.0481851278	-4.1099328679	 0.0218483433	-0.089076
C	-4.6077171716	-2.8594949964	 0.0299980015	-0.112157
N	-3.5412842426	-1.9883304651	 0.0234689519	-0.258416
H	 0.752516041	 1.7061749387	 0.0051885662	 0.234946
H	 0.8324143313	-0.5638521373	-0.0050629298	 0.096004
H	-0.489393956	-2.4467155619	-0.8926443125	 0.139208
H	-0.4724697385	-2.4553845588	 0.8824557149	 0.139254
H	-4.5528558352	-5.0638477271	 0.0234313964	 0.107836
H	-5.6272467607	-2.5128820372	 0.0395268651	 0.129147
H	-3.5601536219	-0.9816864346	 0.0266498009	 0.282183
13.5446	27.2891	108.3681	115.0811	236.1247	312.2566	381.0042	590.0185	641.6717	658.481	694.75	734.9562	750.8078	822.8565	858.445	932.8897	994.063	1013.707	1036.2531	1046.5231	1101.0295	1136.0351	1147.7887	1183.5507	1231.2367	1273.677	1296.9544	1371.3107	1403.9802	1423.4873	1483.5773	1506.0701	1512.2659	1593.0259	1752.2936	3006.8547	3034.1538	3045.4465	3250.9837	3284.0525	3524.1261	3666.2369
N=COCC1=NC=CN1	[NH][CH]OCc1ncc[nH]1	
InChI=1S/C5H7N3O/c6-4-9-3-5-7-1-2-8-5/h1-2,4,6H,3H2,(H,7,8)	InChI=1S/C5H7N3O/c6-4-9-3-5-7-1-2-8-5/h1-2,4,6H,3H2,(H,7,8)
