18
gdb 74143	2.58223	1.40255	1.1186	5.2186	76.98	-0.2181	-0.0148	0.2033	1128.1676	0.147268	-439.135888	-439.127034	-439.12609	-439.168877	34.571	
C	 0.0919414151	 1.5305624358	 0.0147654768	-0.430534
C	-0.0018194527	-0.0024839174	 0.0544218976	 0.287646
O	-1.3592331133	-0.4036096088	 0.2749512786	-0.481756
C	 0.6726513096	-0.6621963359	-1.1629464368	-0.393376
C	 2.0089134509	-1.2220479609	-0.6285944766	 0.399398
O	 2.9070224766	-1.6465451845	-1.3252344362	-0.361885
C	 1.9434406768	-1.1681128418	 0.8268526576	-0.357003
C	 0.79797839	-0.5646568215	 1.22607906	 0.391559
N	 0.3142254582	-0.3381662961	 2.4748242681	-0.580188
H	 1.1265525816	 1.8530764582	-0.1301382951	 0.138183
H	-0.5012241177	 1.9200585028	-0.8211901259	 0.11241
H	-0.282603668	 1.9683385317	 0.9437334645	 0.124062
H	-1.9144828922	 0.0677846158	-0.3545213154	 0.284258
H	 0.0593259292	-1.4985898772	-1.5123827095	 0.130462
H	 0.8392038736	 0.0140399554	-2.0053357362	 0.111327
H	 2.7069956907	-1.5886765371	 1.4684104579	 0.093797
H	 0.7165569498	-0.8514232637	 3.2431056301	 0.262216
H	-0.684330618	-0.1977936349	 2.5278882403	 0.269426
83.1484	165.9889	244.9911	262.4483	273.9376	292.9306	345.7573	368.0373	418.357	501.3716	525.8543	551.6515	562.6035	601.7826	607.4786	701.3056	740.2681	843.7695	860.7392	912.1818	936.3719	970.521	1065.3285	1087.1305	1101.0174	1185.0793	1213.9207	1223.327	1246.0893	1289.8534	1341.5952	1401.7806	1423.9543	1459.6723	1488.1512	1498.4133	1627.9403	1689.4799	1800.4307	3031.4729	3060.2282	3104.2962	3110.332	3128.8891	3215.4507	3573.6801	3685.9405	3818.1323
CC1(O)CC(=O)C=C1N	C[C@@]1(O)CC(=O)C=C1N	
InChI=1S/C6H9NO2/c1-6(9)3-4(8)2-5(6)7/h2,9H,3,7H2,1H3	InChI=1S/C6H9NO2/c1-6(9)3-4(8)2-5(6)7/h2,9H,3,7H2,1H3/t6-/m1/s1
