17
gdb 103725	2.32304	1.34625	1.00303	5.0642	69.72	-0.2523	0.0184	0.2707	1185.7586	0.13456	-455.12422	-455.11473	-455.113786	-455.15825	35.138	
N	-0.2769951264	 1.4125457549	-0.0958759046	-0.561353
C	-0.0152524835	-0.008176095	-0.0957584049	 0.180378
C	 1.1354915399	-0.5001566394	-0.9517170295	-0.149426
O	 2.3709536676	 0.0596777578	-0.531129597	-0.413064
C	-0.3326404899	-0.730984748	 1.1929745761	-0.375745
C	-1.3153208194	-0.8172961989	 0.0331506824	 0.271247
O	-2.4983541985	-0.1003215711	 0.1075178045	-0.460396
C	-1.4460398609	-2.0686529529	-0.6753811664	 0.275238
N	-1.523494988	-3.0782559126	-1.2343537005	-0.356038
H	 0.3782931906	 1.8958207098	 0.5098613987	 0.251993
H	-0.1459051383	 1.7917337908	-1.0298699997	 0.247597
H	 1.1635729893	-1.5977069257	-0.9671857442	 0.117227
H	 0.9951157249	-0.1659925952	-1.9864551021	 0.120996
H	 2.6067544286	-0.343961987	 0.3108490557	 0.28806
H	 0.2542869003	-1.6090539929	 1.4403723055	 0.133132
H	-0.6834110119	-0.1480306581	 2.0373161209	 0.135893
H	-2.2137524743	 0.8328258235	 0.0857061251	 0.294262
102.3545	120.0868	130.7129	189.9694	226.4897	289.7111	311.036	322.9876	368.3394	409.5549	441.657	497.9745	579.7939	605.7351	649.6002	746.3382	760.9657	837.6102	911.6038	923.3034	951.3498	981.3898	1049.3838	1067.9431	1107.9818	1168.406	1210.8197	1271.4351	1317.4682	1352.8317	1401.3111	1412.9505	1436.2025	1465.1916	1498.7515	1660.5684	2352.9999	3019.3794	3069.6213	3133.7872	3231.1696	3496.7183	3573.3534	3596.5905	3811.8003
NC1(CO)CC1(O)C#N	N[C@@]1(CO)C[C@]1(O)C#N	
InChI=1S/C5H8N2O2/c6-2-5(9)1-4(5,7)3-8/h8-9H,1,3,7H2	InChI=1S/C5H8N2O2/c6-2-5(9)1-4(5,7)3-8/h8-9H,1,3,7H2/t4-,5+/m1/s1
