19
gdb 59621	3.20452	1.08314	0.97108	3.22	71.98	-0.2509	0.0548	0.3057	1271.2416	0.161068	-456.398866	-456.390057	-456.389113	-456.432432	33.399	
C	 0.0565958955	 1.5749395164	-0.2166327295	-0.409218
C	 0.0538407796	 0.0609490237	 0.009245021	 0.12726
O	 0.8641772059	-0.30219163	 1.1134760018	-0.433049
C	-1.3680032221	-0.5035043866	 0.1834010821	 0.01843
C	-1.3916687849	-2.0480174244	 0.3034244555	-0.189001
N	-2.4723799235	-2.2632122244	 1.2524645293	-0.342971
C	-2.7171766344	-1.1408489065	 2.0188946266	 0.43157
O	-3.4494839342	-1.0507195791	 2.9764593063	-0.402408
N	-1.9460433752	-0.1056065039	 1.4677764249	-0.367053
H	 1.0832917333	 1.9309886208	-0.3301242164	 0.132417
H	-0.5078024206	 1.8454966596	-1.1156993359	 0.113376
H	-0.3850601368	 2.1006907412	 0.6378273655	 0.112301
H	 0.5035919899	-0.4290392858	-0.8641447189	 0.089636
H	 0.3438517997	-0.0961718387	 1.9026389816	 0.284746
H	-1.9958251393	-0.1792512421	-0.6589168298	 0.081548
H	-1.5938238387	-2.5251574951	-0.6594914856	 0.114934
H	-0.4243812895	-2.4012053399	 0.6819614246	 0.127361
H	-2.6355121417	-3.1613757572	 1.6780039323	 0.256376
H	-2.3461058631	 0.8150605419	 1.5705923147	 0.253745
86.1068	99.9105	175.8797	219.4455	249.7566	290.276	341.0273	438.559	460.1099	490.2835	524.679	586.1053	617.6357	693.8362	737.5789	775.5178	851.9738	910.4529	971.3498	993.37	1015.4113	1043.77	1076.9252	1103.089	1115.5722	1161.9628	1228.1259	1261.6019	1281.2018	1324.9394	1330.5413	1374.5086	1388.1313	1400.0932	1412.2443	1430.4726	1448.2559	1490.6651	1500.9301	1534.0291	1855.4655	2996.3165	3026.9812	3030.2707	3032.263	3084.0655	3098.1839	3124.1685	3622.0105	3650.418	3744.3343
CC(O)C1CNC(=O)N1	C[C@@H](O)[C@H]1CNC(=O)N1	
InChI=1S/C5H10N2O2/c1-3(8)4-2-6-5(9)7-4/h3-4,8H,2H2,1H3,(H2,6,7,9)	InChI=1S/C5H10N2O2/c1-3(8)4-2-6-5(9)7-4/h3-4,8H,2H2,1H3,(H2,6,7,9)/t3-,4-/m1/s1
