20
gdb 62885	3.1248	1.47916	1.15596	2.6774	79.8	-0.2353	0.077	0.3124	1113.6427	0.169388	-403.042015	-403.033512	-403.032567	-403.074415	33.839	
C	 0.0024253358	 1.5502436012	-0.0407048982	-0.463758
C	-0.0813739602	 0.0266087702	-0.0091498706	 0.35601
C	-1.4852009569	-0.4480185838	-0.3746901004	-0.479529
C	 1.1738135076	-0.7276304738	-0.5796171601	-0.117463
O	 1.9706648677	-0.1994305659	 0.5555567639	-0.31133
C	 0.6972682553	-0.6689152037	 1.1640251827	-0.09964
C	 0.853353073	-1.9373660775	 0.3109671375	 0.469126
C	 0.2485824441	-3.2669516183	 0.1408259607	-0.349221
N	 1.6447857073	-3.09716245	 0.6234411036	-0.389508
H	 1.0022546296	 1.8968005217	 0.2186671783	 0.14092
H	-0.2548321574	 1.9262086371	-1.0375666712	 0.109817
H	-0.7155976339	 1.9857531001	 0.6634663724	 0.111356
H	-1.7575664628	-0.0849133882	-1.3722000052	 0.11829
H	-1.5923582369	-1.5327510053	-0.3701737153	 0.127514
H	-2.2168553313	-0.0331106927	 0.3276825734	 0.120156
H	 1.6227885352	-0.6837438646	-1.5743570154	 0.086891
H	 0.585457829	-0.5610273161	 2.2433816996	 0.094618
H	-0.4406567461	-3.6677596603	 0.8795748016	 0.124637
H	 0.0827625991	-3.6281581557	-0.8720962554	 0.115311
H	 2.3152467517	-3.2998242245	-0.1138152721	 0.235802
161.2257	175.5647	178.3609	219.99	265.3583	333.1183	346.8271	377.4437	418.9093	479.5978	601.351	637.7209	737.5899	744.5568	764.1045	859.378	864.8182	909.612	922.3451	947.9333	963.23	965.3102	1011.2459	1043.3556	1096.7685	1112.4566	1119.399	1139.0038	1165.1175	1180.0678	1230.1663	1238.5922	1249.9895	1262.0314	1315.1023	1393.1249	1415.3947	1449.4697	1483.452	1490.57	1502.8079	1515.0584	1529.8232	3030.5841	3037.1161	3083.4829	3089.6906	3096.1968	3098.2788	3119.8232	3143.8824	3152.943	3181.1276	3502.1681
CC1(C)C2OC1C21CN1	CC1(C)[C@H]2O[C@@H]1[C@]12CN1	
InChI=1S/C7H11NO/c1-6(2)4-7(3-8-7)5(6)9-4/h4-5,8H,3H2,1-2H3	InChI=1S/C7H11NO/c1-6(2)4-7(3-8-7)5(6)9-4/h4-5,8H,3H2,1-2H3/t4-,5+,7-
