17
gdb 76844	2.46338	1.66044	1.35596	3.2162	67.09	-0.2707	-0.0029	0.2678	995.9193	0.135946	-458.972563	-458.964562	-458.963617	-459.005197	30.359	
C	-0.4943869551	 1.4230211882	-0.0004891275	-0.405824
C	-0.0610802016	-0.0346396198	 0.0077838672	-0.04868
C	 1.1758265862	-0.4548656223	-0.8799442938	 0.121506
O	 1.852805725	 0.5223054187	-1.6135349094	-0.425218
C	 1.8921787147	-0.9778804533	 0.3866282801	 0.059024
O	 2.6703713635	 0.1028562106	 1.0003105148	-0.277132
C	 1.6364474523	 0.4054116777	 1.8806292351	 0.462386
O	 1.6523648877	 1.2177664435	 2.7447825455	-0.318861
C	 0.6773286037	-0.6067942042	 1.2742410235	-0.249791
H	 0.3343804959	 2.1020469275	 0.218702423	 0.129195
H	-0.8879439204	 1.6926989485	-0.984829342	 0.130758
H	-1.2766010198	 1.6032578558	 0.7433936196	 0.126825
H	-0.9160969253	-0.6753747491	-0.2252816715	 0.089662
H	 0.9157115926	-1.2604894362	-1.5722924044	 0.097444
H	 2.3958793769	 1.0221759856	-0.9903147138	 0.296997
H	 2.4441280237	-1.9159242114	 0.3978351074	 0.102062
H	 0.1413966298	-1.2720369598	 1.9467306862	 0.109646
81.5098	143.3061	192.6251	222.083	256.2453	376.2001	419.6651	461.8224	539.3789	570.8904	635.3149	748.4575	767.3673	813.9786	861.9967	882.5826	896.7438	960.9791	975.6396	1028.1713	1070.9304	1097.5933	1136.1485	1146.4654	1168.5227	1194.9946	1228.8431	1265.0902	1290.185	1306.6509	1319.2519	1358.2903	1418.5567	1439.5997	1491.4659	1494.6265	1940.1647	3044.0066	3059.0093	3076.8078	3113.4573	3118.652	3134.971	3153.6988	3770.531
CC1C(O)C2OC(=O)C12	C[C@H]1[C@@H](O)[C@H]2OC(=O)[C@@H]12	
InChI=1S/C6H8O3/c1-2-3-5(4(2)7)9-6(3)8/h2-5,7H,1H3	InChI=1S/C6H8O3/c1-2-3-5(4(2)7)9-6(3)8/h2-5,7H,1H3/t2-,3+,4-,5+/m1/s1
