18
gdb 7000	2.49885	2.05064	1.57032	4.1617	67.43	-0.2635	0.0169	0.2803	920.4847	0.152069	-384.984778	-384.976087	-384.975142	-385.017552	31.766	
C	-0.3114685979	 1.4925290168	-0.059852304	-0.411199
C	 0.1104961424	 0.0406877168	-0.0316029732	 0.124092
O	 1.3685936449	-0.1756380445	-0.7697102893	-0.267713
C	 1.9809420888	-0.7227035639	 0.3259970512	 0.451066
O	 3.0946101101	-1.1344908899	 0.4087211731	-0.339977
C	 0.7561188471	-0.5873363017	 1.2421421965	 0.070158
C	 0.9810991628	 0.3148037113	 2.4551207014	-0.446724
C	 0.1698370706	-1.9411503005	 1.6506510765	-0.444374
H	 0.4776630077	 2.150053252	 0.3124783008	 0.131817
H	-0.5488472019	 1.7935697594	-1.0843567897	 0.137139
H	-1.2070083004	 1.6394874605	 0.5527878005	 0.126123
H	-0.6639465173	-0.5975056819	-0.4687397742	 0.092964
H	 1.4363121496	 1.2713379063	 2.1872493031	 0.128399
H	 0.0350307007	 0.5163791387	 2.9686646332	 0.120957
H	 1.650873245	-0.1818788082	 3.1632303062	 0.139367
H	 0.8507871584	-2.459989064	 2.3317133778	 0.138799
H	-0.7880668977	-1.8060881482	 2.1645728351	 0.120784
H	 0.004217107	-2.5877127691	 0.7834640949	 0.128323
91.8782	174.2448	191.007	204.2527	222.1337	275.3738	278.7971	311.1776	368.0294	487.9775	567.1628	666.2062	734.8292	757.7275	804.8147	868.28	962.6229	989.8726	1010.3692	1044.5259	1056.0865	1116.1898	1145.4874	1215.4074	1216.9197	1270.9955	1331.0492	1387.319	1402.0363	1414.397	1425.2066	1476.6752	1483.1094	1485.7628	1498.6401	1504.8966	1512.3221	1927.9275	3033.2231	3039.6048	3044.927	3059.3147	3103.1631	3108.5406	3113.3567	3114.6152	3120.4747	3131.8194
CC1OC(=O)C1(C)C	C[C@H]1OC(=O)C1(C)C	
InChI=1S/C6H10O2/c1-4-6(2,3)5(7)8-4/h4H,1-3H3	InChI=1S/C6H10O2/c1-4-6(2,3)5(7)8-4/h4H,1-3H3/t4-/m1/s1
