22
gdb 117256	3.70552	0.84785	0.72538	1.3455	84.56	-0.2557	0.0354	0.2911	1639.0256	0.194066	-404.35377	-404.343947	-404.343002	-404.389745	35.566	
C	-0.1812537622	 1.4851099745	 0.5250469942	-0.389296
C	 0.182970886	 0.1127970738	-0.0102131173	-0.026959
O	 0.6432782897	-0.6748625461	 1.098226069	-0.24772
C	 1.0168923462	-1.9431998609	 0.8315196459	 0.376158
N	 0.9625461609	-2.4145263384	-0.3474017605	-0.543597
C	 1.4687490186	-2.6165628089	 2.0998594131	-0.041765
C	 0.4458025931	-2.7654934533	 3.268082551	-0.213619
C	 1.0592865648	-4.1607911347	 3.5611717683	-0.218136
C	 1.6770796883	-4.1524302454	 2.1354099002	-0.243283
H	 0.6861875548	 1.9688745046	 0.98340448	 0.125
H	-0.5390417291	 2.1204040562	-0.2907777815	 0.11861
H	-0.9713129513	 1.4138268431	 1.278239574	 0.125021
H	-0.6730986054	-0.3878367178	-0.4748321582	 0.116954
H	 0.9733132212	 0.1627391989	-0.7667141206	 0.117029
H	 1.2862049012	-3.3795519712	-0.358151408	 0.219995
H	 2.3612244725	-2.0950073851	 2.4628946675	 0.097321
H	 0.4723166244	-2.0127849621	 4.0577282143	 0.105473
H	-0.5774660575	-2.8409013519	 2.8896410459	 0.109236
H	 1.829594118	-4.1097443788	 4.3357569952	 0.105531
H	 0.3735668733	-4.9741990569	 3.8070053802	 0.101153
H	 1.0241185629	-4.658688074	 1.4172785394	 0.104755
H	 2.6939678995	-4.5314125256	 2.0120292979	 0.102141
34.844	81.9276	101.6824	121.8311	156.3365	245.1778	264.9346	312.1325	365.0583	429.9439	532.5898	669.7923	729.6792	788.8522	796.9306	806.4649	861.0031	879.8852	898.6354	934.6452	961.9904	962.8646	1027.8085	1046.3106	1090.9412	1118.3053	1129.5805	1138.5835	1183.5255	1203.3733	1238.9019	1249.3833	1257.5706	1274.2107	1281.804	1287.5532	1318.9474	1374.7269	1408.3115	1437.5471	1479.2429	1485.5781	1487.0608	1496.6766	1509.8664	1521.3291	1713.4177	3043.4461	3044.6682	3046.5967	3052.1662	3060.8025	3065.0076	3079.9501	3103.7159	3113.839	3117.6896	3121.2913	3127.2053	3510.795
CCOC(=N)C1CCC1	CCO[C]([NH])C1CCC1	
InChI=1S/C7H13NO/c1-2-9-7(8)6-4-3-5-6/h6,8H,2-5H2,1H3	InChI=1S/C7H13NO/c1-2-9-7(8)6-4-3-5-6/h6,8H,2-5H2,1H3
