12
gdb 129748	3.51256	1.14871	0.88162	2.2848	60.97	-0.2342	-0.0516	0.1825	1191.3116	0.075865	-505.920267	-505.912121	-505.911177	-505.954287	27.853	
N	-0.0361132882	 1.3880823589	 0.3011982532	-0.602677
C	-0.0540414705	 0.0187717649	 0.0830965352	 0.177641
C	-1.086738581	-0.8461932178	-0.1291164684	 0.432686
O	-2.3970027949	-0.6007600363	-0.3300143795	-0.228838
C	-3.3280644396	-1.4381431251	 0.2636808977	 0.16255
O	-4.4868021323	-1.2893371896	 0.0671742199	-0.228996
O	-0.6114180081	-2.0925373635	-0.214281939	-0.213191
N	 0.7989350698	-1.9832582611	-0.0284901302	-0.011681
N	 1.0728489084	-0.7574602644	 0.1305767008	-0.158406
H	 0.8671422349	 1.7932514256	 0.0936770491	 0.268631
H	-0.775971547	 1.8831766605	-0.1781314337	 0.26565
H	-2.8555600415	-2.204513992	 0.895598615	 0.136631
38.181	110.7037	142.3325	172.5247	263.1095	301.0632	384.4429	476.8636	508.7083	638.9754	667.6946	703.7292	731.1816	758.7999	859.2572	1007.7406	1027.6878	1054.5509	1094.8473	1251.5596	1320.3912	1406.0051	1426.2101	1454.9725	1638.4338	1719.9347	1894.3781	3045.2524	3552.2208	3649.3517
NC1=C(OC=O)ON=N1	Nc1c(OC=O)onn1	
InChI=1S/C3H3N3O3/c4-2-3(8-1-7)9-6-5-2/h1H,4H2	InChI=1S/C3H3N3O3/c4-2-3(8-1-7)9-6-5-2/h1H,4H2
