25
gdb 120871	4.53302	0.74883	0.708	0.3104	93.95	-0.2403	0.0883	0.3286	1755.7901	0.228396	-352.342602	-352.332535	-352.331591	-352.377684	38.29	
C	 0.0595076297	 1.5852273707	-0.0588989563	-0.379998
C	-0.0196405263	 0.0622276151	 0.076500503	-0.15917
C	-1.438807251	-0.4891050067	-0.1087697979	-0.188062
C	-1.5177929226	-2.0073940571	 0.0274833895	 0.035971
C	-1.2987507221	-2.6733389731	 1.4329165205	-0.310066
C	-2.645003493	-3.4034272725	 1.286070078	 0.376675
C	-2.8905230788	-4.8263286979	 1.698234416	-0.496868
C	-3.737791005	-2.381080248	 1.1474678851	-0.325449
C	-2.885975373	-2.700137568	-0.0554326946	-0.125244
H	 1.0838043871	 1.9475966268	 0.0747595735	 0.108881
H	-0.2834103171	 1.9131290218	-1.0467344816	 0.112299
H	-0.5693698575	 2.082183491	 0.6883553402	 0.112379
H	 0.6481781713	-0.4064109397	-0.6588940866	 0.091147
H	 0.3601712968	-0.2373807361	 1.0621179292	 0.097595
H	-2.109732925	-0.0131157088	 0.6186387836	 0.089182
H	-1.8140709094	-0.199561728	-1.1006590931	 0.088892
H	-0.8301894594	-2.4632292327	-0.6941459354	 0.066607
H	-0.4382518346	-3.3471122375	 1.4519440978	 0.096235
H	-1.2226242068	-1.9921153157	 2.288568513	 0.087268
H	-2.9096312323	-4.9275606894	 2.7907648649	 0.116656
H	-3.8515290514	-5.1894505595	 1.3185216958	 0.114533
H	-2.1075165576	-5.4942498861	 1.3199525067	 0.112435
H	-4.7452990846	-2.7850388515	 1.1086698218	 0.103735
H	-3.6726651259	-1.4171719087	 1.6476261398	 0.09985
H	-3.3275526613	-3.0987183081	-0.9627708127	 0.074515
73.6502	88.0554	102.6046	169.6097	210.1234	247.5015	270.7349	283.599	358.5086	381.99	433.3146	504.6919	609.654	709.0786	742.8036	803.2527	835.101	867.9099	885.5405	915.3006	947.4224	961.1357	975.5731	980.4751	1028.771	1045.5663	1064.2178	1068.8673	1081.8641	1108.8269	1128.4672	1148.68	1192.6152	1235.6459	1247.1236	1264.5966	1274.9775	1287.97	1316.0701	1329.119	1375.2176	1389.6345	1402.5268	1412.1938	1424.739	1479.0061	1482.6089	1486.2869	1492.4679	1498.4581	1499.6397	1508.4405	1510.5328	3003.1848	3013.5304	3014.9268	3025.9663	3027.6181	3031.6572	3036.6921	3055.6382	3071.1582	3090.3548	3093.5345	3094.7144	3098.7632	3103.2136	3161.3276	3189.3451
CCCC1CC2(C)CC12	CCC[C@H]1C[C@@]2(C)C[C@@H]12	
InChI=1S/C9H16/c1-3-4-7-5-9(2)6-8(7)9/h7-8H,3-6H2,1-2H3	InChI=1S/C9H16/c1-3-4-7-5-9(2)6-8(7)9/h7-8H,3-6H2,1-2H3/t7-,8-,9-/m0/s1
