21
gdb 109863	2.30639	1.43749	1.04158	1.0259	78.46	-0.2435	0.0736	0.3171	1226.6454	0.180408	-424.19277	-424.183012	-424.182068	-424.227003	36.366	
C	-0.305792166	 1.5922465217	 0.1138900439	-0.411289
C	-0.1033394506	 0.0828476898	 0.107072111	-0.008433
C	 0.4206610705	-0.5530031314	-1.190573772	-0.058707
O	 1.7413166531	-0.0326998863	-1.4174966066	-0.294987
C	 1.5875696106	-1.1442599569	-0.5139265587	 0.400026
C	 2.388349873	-2.3790109272	-0.7744458828	-0.50537
C	 1.1518438034	-0.549182882	 0.8407930157	-0.067129
C	 2.143920448	 0.3508331251	 1.5510974368	-0.098735
O	 1.5119013622	 0.8525030582	 2.7247595969	-0.423899
H	 0.539154405	 2.0972491687	-0.3622127888	 0.126119
H	-1.2128455706	 1.8646306307	-0.4367775393	 0.105312
H	-0.396938104	 1.9644542185	 1.1376207487	 0.129554
H	-1.0106702643	-0.426675332	 0.4462621638	 0.074666
H	-0.1284534501	-0.8853808283	-2.0656857059	 0.094147
H	 2.3809171453	-2.6194732344	-1.8409447312	 0.133987
H	 3.4311170285	-2.2450166966	-0.4645446542	 0.128813
H	 1.9807348416	-3.2297536537	-0.2186058162	 0.124501
H	 0.8271068726	-1.3338777784	 1.5316713802	 0.079164
H	 3.0449886023	-0.2310008455	 1.8087197581	 0.081967
H	 2.4566712367	 1.1630997593	 0.8822003035	 0.104215
H	 2.0984628527	 1.4996554806	 3.1271464471	 0.286079
97.987	122.2618	166.6577	193.2756	205.5215	228.3451	241.4891	277.6166	318.6427	340.7003	486.2573	540.322	565.0528	676.5385	719.1389	761.2765	853.5344	886.6995	908.5251	977.1468	997.3269	1016.1061	1051.4707	1063.8813	1066.2468	1098.9804	1132.532	1154.7262	1191.1352	1209.0219	1243.0154	1259.4849	1271.9868	1293.1745	1352.8449	1367.1508	1400.9743	1405.9367	1448.81	1471.6989	1483.8424	1488.1172	1496.3376	1507.7861	1527.9399	2959.1323	3030.782	3032.3423	3037.8285	3053.2959	3068.4001	3093.6027	3105.2396	3119.4847	3124.3458	3169.778	3828.0833
CC1C2OC2(C)C1CO	C[C@H]1[C@H]2O[C@@]2(C)[C@H]1CO	
InChI=1S/C7H12O2/c1-4-5(3-8)7(2)6(4)9-7/h4-6,8H,3H2,1-2H3	InChI=1S/C7H12O2/c1-4-5(3-8)7(2)6(4)9-7/h4-6,8H,3H2,1-2H3/t4-,5+,6-,7+/m1/s1
