18
gdb 67488	2.47805	1.63943	1.23867	2.6296	83.11	-0.2023	0.048	0.2503	1069.4672	0.145939	-364.684026	-364.675759	-364.674815	-364.716312	32.847	
C	 0.0221332942	 1.5001700392	-0.0103402478	-0.496311
C	-0.0417157713	 0.0011730863	 0.0274632727	 0.322688
C	-1.4011387822	-0.7493122417	 0.1822172141	-0.125775
N	-1.2308966512	-2.174213259	-0.1783933275	-0.316602
C	-0.8008368173	-1.6871713346	 1.1514387234	-0.056939
C	 0.5762667401	-0.9876193287	 1.0134530523	-0.13318
C	 1.1061256806	-0.8938387785	-0.4120003034	-0.261362
C	 1.1747237425	-1.8920127838	-1.4447515886	 0.347866
C	 1.3949336602	-2.654087257	-2.3496269928	-0.45183
H	 1.0447805501	 1.8566733148	 0.1480307174	 0.121874
H	-0.3211087034	 1.8884315948	-0.9770283435	 0.127518
H	-0.6101042311	 1.9429184175	 0.7687803088	 0.118744
H	-2.3711261621	-0.2688228084	 0.170383217	 0.093016
H	-2.1366093338	-2.6281982239	-0.0596373495	 0.229815
H	-1.1989882651	-2.1044197441	 2.0666509211	 0.096545
H	 1.2222025865	-0.7826138239	 1.8587915436	 0.090401
H	 2.0229188474	-0.3020803621	-0.3952164723	 0.113259
H	 1.523929956	-3.357301267	-3.133887065	 0.180273
123.1843	168.2672	208.4253	215.4353	282.5761	331.5817	374.1772	455.0685	534.4343	605.609	610.2022	626.5622	671.8431	738.6543	756.0643	819.4264	835.6098	884.321	893.3251	919.4618	948.8925	953.5081	989.5512	1045.4233	1086.7135	1107.0937	1109.4828	1137.1518	1204.3703	1226.3844	1276.4316	1308.6452	1335.2249	1359.3474	1414.9461	1453.8616	1483.301	1497.9879	2228.5899	3018.3422	3075.1967	3092.8286	3099.4135	3180.9454	3191.1444	3206.6205	3467.4664	3506.7379
CC12C3NC3C1C2C#C	C[C@]12[C@H]3N[C@H]3[C@H]1[C@H]2C#C	
InChI=1S/C8H9N/c1-3-4-5-6-7(9-6)8(4,5)2/h1,4-7,9H,2H3	InChI=1S/C8H9N/c1-3-4-5-6-7(9-6)8(4,5)2/h1,4-7,9H,2H3/t4-,5-,6+,7+,8-/m1/s1
