16
gdb 35500	3.29073	1.46038	1.19645	4.3338	73.26	-0.2433	-0.0085	0.2347	1025.1509	0.127149	-396.926584	-396.919374	-396.91843	-396.958729	27.102	
N	-0.7825430911	-0.7710747861	-1.1631857886	-0.315268
C	-0.4719877231	 0.2252150616	-0.6660712105	 0.282039
C	-0.0844477108	 1.4796090456	-0.0336282004	-0.107562
C	-0.1482803205	 1.5658727779	 1.5245136599	-0.275304
C	 1.2934952764	 2.1338691002	 1.473984019	 0.017167
C	 2.4639837043	 1.3519194067	 2.1084977694	-0.186031
N	 2.9510223707	 0.4503712276	 1.0481282113	-0.219209
C	 2.2969210456	 0.7113218848	-0.011583318	 0.039275
N	 1.3876701415	 1.7910687433	 0.0131463672	-0.126578
H	-0.6208476198	 2.2968888214	-0.5247110037	 0.140673
H	-0.9308622012	 2.208565907	 1.9293069167	 0.126376
H	-0.2031500506	 0.5812938048	 1.9935070006	 0.140005
H	 1.3462875754	 3.2106261404	 1.6471577406	 0.096152
H	 3.2728123724	 2.021006168	 2.421381731	 0.123165
H	 2.1697660385	 0.7665817944	 2.9876381548	 0.11853
H	 2.4305709525	 0.1692288724	-0.9428509594	 0.146569
69.2527	132.1632	206.0592	280.7943	341.4256	474.4565	515.9774	556.7896	671.7508	707.4323	776.0026	809.9415	882.8099	908.0828	942.3444	958.8595	987.3395	1005.8937	1056.4704	1075.8755	1085.7032	1146.7472	1163.4484	1219.9747	1239.532	1255.43	1276.7761	1316.5626	1336.4564	1344.2079	1378.6098	1481.3539	1494.5345	1679.7962	2355.4402	3035.9141	3066.7503	3068.107	3080.5519	3087.9573	3144.1648	3194.1093
N#CC1CC2CN=CN12	N#C[C@H]1C[C@H]2C[N][CH]N12	
InChI=1S/C6H7N3/c7-2-5-1-6-3-8-4-9(5)6/h4-6H,1,3H2	InChI=1S/C6H7N3/c7-2-5-1-6-3-8-4-9(5)6/h4-6H,1,3H2/t5-,6+/m1/s1
