19
gdb 15773	3.28645	1.37276	1.09965	1.8279	77.58	-0.2264	0.0609	0.2873	1131.8658	0.163348	-327.857748	-327.848792	-327.847848	-327.891478	33.169	
C	 0.2222366248	 1.5724304975	-0.0116533122	-0.423076
C	 0.061867738	 0.0452889155	-0.0837587699	 0.06394
C	 0.6691337659	-0.6045376946	 1.1824923685	-0.356271
C	 0.8105470169	-2.0519055573	 1.0974010016	 0.320734
C	 0.958074853	-3.2422219777	 1.0239909781	-0.446643
N	-1.2948098889	-0.4836364488	-0.2536307452	-0.056045
C	-2.4614095965	 0.2429589689	 0.2267685397	-0.224269
C	-2.2017030225	 0.0813854894	-1.2341993471	-0.226111
H	 1.284522757	 1.8334991543	-0.0390967021	 0.121503
H	-0.2573309128	 2.0766085137	-0.8554109619	 0.119316
H	-0.1935227706	 1.9832813244	 0.9143700701	 0.120809
H	 0.6265539639	-0.3196086223	-0.9500828766	 0.09648
H	 1.6515245765	-0.1548871579	 1.3741542851	 0.123232
H	 0.0378560904	-0.3411940835	 2.0416316118	 0.127936
H	 1.0724324468	-4.2954988041	 0.9591985142	 0.189713
H	-3.2149783325	-0.3595268187	 0.7269861998	 0.117094
H	-2.3389088985	 1.2430215921	 0.6368489173	 0.107715
H	-1.9066988379	 0.97496806	-1.7820677009	 0.106889
H	-2.7628137929	-0.6399488609	-1.8230384503	 0.117055
60.0843	81.921	138.7372	238.5251	254.9663	292.8902	339.2121	344.5006	400.022	513.3681	549.5505	608.5608	632.6278	696.5074	817.6743	868.2375	889.3418	918.4184	952.7413	992.7549	1029.179	1066.6361	1106.2842	1110.4793	1118.8969	1141.4984	1168.0526	1180.436	1246.4399	1306.7537	1335.3528	1367.7926	1379.0919	1403.6056	1463.5284	1485.9882	1495.3674	1509.8603	1526.7736	2241.4762	3017.3073	3035.23	3039.4742	3055.761	3091.6545	3102.591	3107.4074	3112.548	3169.4133	3186.902	3508.8886
CC(CC#C)N1CC1	C[C@@H](CC#C)N1CC1	
InChI=1S/C7H11N/c1-3-4-7(2)8-5-6-8/h1,7H,4-6H2,2H3	InChI=1S/C7H11N/c1-3-4-7(2)8-5-6-8/h1,7H,4-6H2,2H3/t7-/m0/s1
