17
gdb 15979	3.55453	1.68849	1.28163	4.2301	71.07	-0.2271	0.0254	0.2524	964.1157	0.142148	-363.855644	-363.847907	-363.846963	-363.88847	28.164	
O	 0.0050572872	 0.0113955469	 0.3261801315	-0.338298
C	 0.0813402654	 1.2243786748	 0.3668444195	 0.121598
N	 1.1832816416	 1.9303257538	 0.0419924927	-0.084035
C	 2.4962494694	 1.4687148462	-0.4131005062	-0.164045
C	 2.9490963089	 2.9594898764	-0.4794665387	-0.338263
C	 1.5398586099	 3.3383701848	 0.0041861824	 0.394724
C	 0.660641192	 4.4650782713	-0.4446324689	-0.322556
C	 1.1341563308	 4.3836632174	 0.9976126039	-0.322521
H	-0.7597460503	 1.8772824029	 0.67912597	 0.062481
H	 3.0153714786	 0.8457376325	 0.3208534347	 0.12783
H	 2.4624789868	 0.9381905722	-1.368941247	 0.127823
H	 3.7537952211	 3.2219011644	 0.2091774504	 0.119336
H	 3.1984223389	 3.3149022532	-1.4805633774	 0.119339
H	 1.0935101647	 5.2226139175	-1.0903348061	 0.122224
H	-0.382707632	 4.2463724644	-0.6467322382	 0.126075
H	 0.4054270156	 4.1108696798	 1.753779859	 0.126072
H	 1.8899633314	 5.0856700915	 1.3354072082	 0.122216
46.8818	98.6341	159.1224	280.5656	291.8879	319.0251	437.0847	525.3974	574.0311	762.522	784.4012	835.1429	855.711	890.6497	921.7712	941.2026	985.6059	1027.7481	1048.3264	1070.7882	1109.6498	1123.3035	1162.399	1186.6684	1209.2305	1220.4794	1253.8874	1324.8322	1378.9534	1399.0746	1452.7698	1455.7851	1490.0228	1497.7753	1524.9822	1783.4604	2916.5512	3053.1442	3081.9013	3096.7474	3125.3527	3128.2113	3136.1054	3206.7274	3221.0662
O=CN1CCC11CC1	O=CN1CCC21CC2	
InChI=1S/C6H9NO/c8-5-7-4-3-6(7)1-2-6/h5H,1-4H2	InChI=1S/C6H9NO/c8-5-7-4-3-6(7)1-2-6/h5H,1-4H2
