18
gdb 66510	3.10391	1.90084	1.65265	2.1577	81.12	-0.2032	-0.0445	0.1587	892.6465	0.148101	-364.684252	-364.677374	-364.67643	-364.715002	28.525	
C	 0.0179631391	 1.4405262682	-0.1115936421	-0.506997
C	-0.0950637927	-0.0515306485	-0.1066949161	 0.330137
C	 0.5869688019	-0.9652806682	-1.1434846488	-0.1381
N	 1.0632260844	-0.9495518789	 0.2623663174	-0.202025
C	-0.0455255695	-1.9763374543	 0.5259966489	-0.028545
C	-1.1477333409	-0.928335055	 0.6761977948	-0.083842
C	-2.3658660968	-1.6044490744	-0.0496038608	-0.273012
C	-1.6348499606	-2.1594706769	-1.2772959237	-0.111643
C	-0.3208476524	-2.165574977	-0.9786386392	 0.053773
H	 0.9757662947	 1.7506741422	-0.5409052906	 0.132223
H	-0.7845448486	 1.895684556	-0.7034044864	 0.121279
H	-0.0385625735	 1.8449622886	 0.9053963731	 0.126938
H	 1.1715484108	-0.5692158439	-1.9676310222	 0.097503
H	 0.14173883	-2.8053174911	 1.2061984813	 0.084563
H	-1.3479566815	-0.5161725254	 1.6702195119	 0.070991
H	-2.8431657579	-2.3221827487	 0.6326876742	 0.114396
H	-3.153407529	-0.9187034317	-0.3830617696	 0.112186
H	-2.0245379674	-1.992247341	-2.2765351221	 0.100175
172.7062	208.4326	253.7296	325.778	363.0747	515.6306	569.1634	610.4386	681.2133	730.3905	755.2808	777.6623	806.0867	853.8496	882.8013	895.4711	924.7632	939.1837	972.3114	987.8702	1010.6058	1026.8085	1042.4529	1088.8483	1123.6502	1167.1364	1170.7783	1211.229	1228.8638	1238.9369	1259.4796	1284.607	1311.4048	1362.8607	1412.11	1466.2329	1479.4773	1489.1717	1589.0625	3004.1188	3024.888	3061.5051	3068.676	3086.7904	3105.0398	3131.0263	3165.1517	3172.2904
CC12C3N1C1C2CC=C31	C[C@@]12[C@H]3N1[C@H]1[C@@H]2C[CH][C]31	
InChI=1S/C8H9N/c1-8-5-3-2-4-6(5)9(8)7(4)8/h2,5-7H,3H2,1H3	InChI=1S/C8H9N/c1-8-5-3-2-4-6(5)9(8)7(4)8/h2,5-7H,3H2,1H3/t5-,6+,7-,8+,9?/m0/s1
