17
gdb 47296	3.00442	1.34654	1.00505	2.4073	70.86	-0.2409	-0.0377	0.2032	1148.976	0.137101	-455.148233	-455.14	-455.139056	-455.182285	30.361	
N	-0.0040203425	 1.4496797604	 0.3417556421	-0.477583
C	-0.069889927	 0.2452501157	-0.0376294568	 0.38955
C	-1.423954332	-0.3771236378	-0.32298633	-0.239117
N	-1.4341840182	-1.2946192025	-1.4579077102	-0.308951
C	-1.0330983656	-2.6524739033	-1.1365157557	-0.278887
C	 0.4784984985	-2.7860533062	-0.9545767629	 0.385481
O	 0.9979420092	-3.8524267521	-0.7365411525	-0.287264
C	 1.2998492852	-1.5010605854	-1.0916095148	-0.168625
O	 1.0429598616	-0.5542594567	-0.0441388323	-0.263363
H	 0.9653891217	 1.6964003842	 0.5540861809	 0.223802
H	-1.7602012338	-0.8693044938	 0.6092075733	 0.112825
H	-2.1052999869	 0.4520624411	-0.5147383057	 0.140717
H	-2.3497545427	-1.2930563411	-1.8864722587	 0.237082
H	-1.5118158164	-3.0619472911	-0.2279156373	 0.122378
H	-1.3057380198	-3.3186253102	-1.9621612276	 0.140225
H	 2.3526987481	-1.7657640014	-0.9884280028	 0.136728
H	 1.1192559706	-1.0462667399	-2.0717088491	 0.135005
28.9717	78.2515	158.7096	299.1567	317.5469	338.3613	436.2693	454.8131	498.6793	516.242	576.5071	664.6098	723.7746	780.3545	837.7727	914.2698	946.1367	961.7323	1000.1883	1031.3851	1063.0777	1135.6091	1178.4762	1214.7813	1230.8878	1288.5399	1305.8231	1321.7495	1340.4305	1382.0842	1399.6003	1449.2795	1473.1237	1475.419	1490.9593	1745.9082	1826.0553	2927.8193	2941.7758	3048.287	3074.9385	3130.1358	3138.0836	3460.137	3573.7085
N=C1CNCC(=O)CO1	[NH][C]1CNCC(=O)CO1	
InChI=1S/C5H8N2O2/c6-5-2-7-1-4(8)3-9-5/h6-7H,1-3H2	InChI=1S/C5H8N2O2/c6-5-2-7-1-4(8)3-9-5/h6-7H,1-3H2
