21
gdb 40280	2.7932	1.36587	1.04375	2.1239	84.67	-0.2378	0.0115	0.2493	1205.8437	0.184326	-387.086689	-387.078524	-387.07758	-387.119631	32.329	
C	 0.641418799	 1.460873458	 0.0855319398	-0.215345
O	 1.4488909843	 0.2939073765	-0.0086718986	-0.281623
C	 0.0166309561	 0.1189633544	 0.0219593072	 0.370352
C	-0.4793430405	-0.5152863432	 1.3070304015	-0.267465
C	-1.9716495618	-0.3197517741	 1.6056597423	-0.198192
C	-2.9138277163	-1.1161443998	 0.6944725755	-0.184965
C	-3.0374986901	-0.5989795867	-0.7463144383	-0.255387
C	-1.7984716864	-0.6234709483	-1.6084583911	-0.062186
C	-0.5400723582	-0.3162762926	-1.2898462106	-0.112716
H	 0.6799954554	 1.9878749603	 1.0393615657	 0.108611
H	 0.6339283903	 2.100105318	-0.796488819	 0.11082
H	-0.2570899685	-1.589700264	 1.2680642819	 0.105253
H	 0.1199411994	-0.1027179002	 2.1252386948	 0.101222
H	-2.1489914152	-0.6284543675	 2.6423635355	 0.096504
H	-2.224597384	 0.7485683664	 1.5581935398	 0.092022
H	-2.5923005541	-2.1655994069	 0.675167356	 0.09853
H	-3.9175935221	-1.1091207348	 1.136034998	 0.093071
H	-3.8163417959	-1.1805106407	-1.2526020566	 0.101481
H	-3.4228284347	 0.4326481047	-0.7177722733	 0.111087
H	-1.9791649925	-0.8781774413	-2.6510394749	 0.089714
H	 0.2140105756	-0.3387762783	-2.0734024756	 0.099213
51.4278	141.0953	237.669	301.1622	312.7287	333.3624	391.2906	428.0092	475.5987	557.6088	623.4611	712.9684	757.9163	792.6571	838.8145	861.6279	908.0995	910.0473	940.4979	958.0172	979.4121	1011.2661	1049.2465	1097.3125	1108.3253	1134.5285	1154.8234	1169.9344	1214.1802	1237.0584	1267.3452	1296.7804	1309.834	1352.8802	1377.8278	1382.5498	1385.283	1402.7066	1435.5811	1474.8973	1482.7671	1487.7421	1494.0587	1522.9396	1726.9377	2986.2169	3013.0213	3018.2128	3024.6381	3052.9337	3058.952	3062.0437	3071.3357	3076.449	3135.2351	3158.9689	3161.4972
C1OC11CCCCC=C1	C1O[C@]21CCCCC=C2	
InChI=1S/C8H12O/c1-2-4-6-8(5-3-1)7-9-8/h3,5H,1-2,4,6-7H2	InChI=1S/C8H12O/c1-2-4-6-8(5-3-1)7-9-8/h3,5H,1-2,4,6-7H2/t8-/m0/s1
