21
gdb 118322	2.04697	1.20222	0.80966	2.1088	82.84	-0.2462	-0.0127	0.2336	1463.5395	0.181703	-420.453101	-420.442749	-420.441805	-420.488891	37.042	
C	 0.347506238	 1.1853964376	 0.2162769667	-0.380304
C	 0.1957473516	-0.3132893829	-0.0544557522	-0.17633
C	-1.2681821985	-0.7625748135	 0.0261025115	-0.159766
N	-1.447760341	-2.201566759	-0.1960933402	-0.102816
C	-1.28745453	-3.0556485905	 0.8934231946	 0.086883
N	-0.9919839327	-2.606295078	 2.0470097561	-0.479479
C	-1.7453120251	-2.7714939435	-1.4384302563	 0.41369
C	-1.9311509875	-1.8202756559	-2.606368226	-0.511386
O	-1.8605476268	-3.9728292501	-1.5770299288	-0.348925
H	 1.3963091062	 1.4905953669	 0.1600191709	 0.119072
H	-0.2120086591	 1.7846185634	-0.5112161195	 0.112104
H	-0.0214426486	 1.4450099599	 1.2142537713	 0.12584
H	 0.6029057228	-0.5591474373	-1.043345963	 0.095211
H	 0.7713161829	-0.8875792431	 0.677794696	 0.130072
H	-1.6566004717	-0.5498248703	 1.0248808767	 0.144258
H	-1.8801975973	-0.2147567742	-0.6928236729	 0.107944
H	-1.4473941449	-4.0967547768	 0.6155006745	 0.146302
H	-0.9309369597	-3.3752696461	 2.7116022052	 0.229958
H	-1.078024223	-1.148789264	-2.7354564888	 0.145814
H	-2.0558758935	-2.4276673102	-3.5019977237	 0.151742
H	-2.8241538518	-1.2010749522	-2.4713269921	 0.150118
69.2507	79.1228	106.991	142.0864	196.3918	215.2709	231.5788	245.7895	326.1822	379.6836	414.111	427.6864	569.3306	597.4579	631.5436	743.5498	811.1328	838.3342	880.8891	906.8978	976.3766	1042.8549	1052.4087	1053.1309	1089.2888	1125.9399	1144.9363	1192.3168	1264.7436	1326.5078	1335.1354	1354.1094	1372.6936	1393.9865	1409.4563	1417.3145	1424.7438	1464.8273	1484.0856	1490.922	1492.4641	1500.2008	1508.4567	1706.8647	1781.7532	3030.659	3031.7747	3049.1508	3077.1133	3081.276	3100.9446	3109.7464	3115.1395	3128.3208	3146.2737	3164.6176	3504.5941
CCCN(C=N)C(C)=O	CCCN(C=N)C(=O)C	
InChI=1S/C6H12N2O/c1-3-4-8(5-7)6(2)9/h5,7H,3-4H2,1-2H3	InChI=1S/C6H12N2O/c1-3-4-8(5-7)6(2)9/h5,7H,3-4H2,1-2H3
