16
gdb 9126	6.98276	0.72936	0.66854	4.5913	73.14	-0.2562	-0.0461	0.2102	1644.2851	0.126965	-383.720964	-383.71116	-383.710215	-383.757346	32.227	
C	 0.0929560295	 1.4953354503	 0.0085197572	-0.384671
C	-0.0778379809	-0.0213008069	 0.0024650008	-0.278786
C	-1.534524186	-0.4604440002	 0.0140485219	 0.216855
O	-2.4617507867	 0.3211074279	 0.0274133695	-0.289339
C	-1.7471481305	-1.8962372665	 0.0081033562	-0.026182
C	-1.9158693855	-3.0912782149	 0.0032149795	 0.197882
C	-2.0965281921	-4.5354881427	-0.0024320986	-0.22065
O	-3.4788247064	-4.8508804873	 0.0092097121	-0.401262
H	 1.1534438924	 1.7617173918	 0.0000957915	 0.109752
H	-0.3853234801	 1.9454561348	-0.8649248517	 0.134053
H	-0.3691474224	 1.9365859726	 0.8950921565	 0.134086
H	 0.3981519813	-0.4787594507	-0.8755620208	 0.128749
H	 0.4145019521	-0.4874876831	 0.8667966163	 0.128779
H	-1.5926675695	-4.9451529681	-0.8937005572	 0.127955
H	-1.5756868308	-4.9542680429	 0.8747440129	 0.127971
H	-3.5569808145	-5.8104579841	 0.0041865541	 0.294808
31.9484	54.868	70.8857	135.4317	180.1378	191.0694	220.0107	270.4929	372.1855	409.128	518.9255	567.1322	617.9595	731.892	806.894	930.3117	1009.5828	1013.2514	1060.6782	1087.9916	1090.7449	1179.9949	1247.1139	1256.6465	1272.2186	1368.6516	1412.393	1449.3833	1456.4409	1490.0598	1490.9447	1497.2395	1765.2259	2332.808	2962.5299	2981.1303	3022.3509	3049.6743	3052.1889	3123.8448	3128.9384	3819.7763
CCC(=O)C#CCO	CCC(=O)C#CCO	
InChI=1S/C6H8O2/c1-2-6(8)4-3-5-7/h7H,2,5H2,1H3	InChI=1S/C6H8O2/c1-2-6(8)4-3-5-7/h7H,2,5H2,1H3
