13
gdb 8986	6.5969	0.99244	0.91594	2.4288	62.49	-0.2551	-0.0561	0.199	1172.3447	0.094074	-394.794891	-394.786394	-394.78545	-394.829016	28.361	
N	-0.6293203228	 0.8950383301	-0.7616543759	-0.512056
C	-0.1889126069	-0.0933657705	-0.0789554222	 0.288313
N	-0.9988804188	-0.7961074757	 0.7671844523	-0.313684
C	-2.3530689861	-0.3463678687	 1.0101756076	-0.253536
C	-3.2626161849	-0.5276814379	-0.2080120398	 0.182963
O	-4.3551229864	-0.0382173379	-0.2808043444	-0.232297
C	 1.1817588924	-0.5773354974	-0.1362212258	 0.232856
N	 2.2803135884	-0.9311895556	-0.2036816645	-0.312814
H	 0.0891630271	 1.2927192677	-1.3599395476	 0.2477
H	-0.5783965644	-1.471836475	 1.3809326382	 0.273293
H	-2.769836775	-0.9406911238	 1.8294562916	 0.143498
H	-2.3857423711	 0.7092195028	 1.3028877165	 0.162577
H	-2.8426239415	-1.1821889981	-1.002739606	 0.093188
42.2793	67.1348	139.9181	164.8526	240.439	280.4593	330.5683	384.5233	441.2378	584.3927	636.8839	701.1141	727.6467	825.555	892.3391	1026.3305	1053.3257	1109.5816	1172.8426	1275.5614	1324.8512	1335.1733	1405.2178	1438.575	1544.1778	1684.0836	1848.544	2350.7419	2899.3959	3045.8032	3101.4532	3544.5882	3674.1883
N=C(NCC=O)C#N	N=C(NCC=O)C#N	
InChI=1S/C4H5N3O/c5-3-4(6)7-1-2-8/h2H,1H2,(H2,6,7)	InChI=1S/C4H5N3O/c5-3-4(6)7-1-2-8/h2H,1H2,(H2,6,7)
