25
gdb 114808	2.5285	1.18987	1.05324	0.1485	92.45	-0.2531	0.0817	0.3348	1346.1654	0.229016	-352.344037	-352.334366	-352.333422	-352.378497	37.504	
C	 0.0364457562	 1.5329591247	-0.1779923013	-0.378358
C	 0.0479485428	 0.005910273	-0.0408154669	-0.202608
C	-1.3523768873	-0.5895318735	 0.0542403394	 0.009874
C	-2.2771969738	-0.5852387032	-1.2026299532	-0.258044
C	-2.6837005233	-2.0596346306	-0.9177552702	-0.057946
C	-1.9242119184	-3.1085339743	-1.7578439792	-0.216373
C	-0.7225840438	-3.0208264681	-0.7701538114	-0.288016
C	-1.5686604301	-2.1261276152	 0.196753249	 0.35421
C	-1.792892297	-2.6801679193	 1.5878324596	-0.496984
H	 1.0514373318	 1.9347848816	-0.2578977573	 0.109136
H	-0.5159867797	 1.8459023705	-1.0707516139	 0.118001
H	-0.4422944206	 2.0044807248	 0.6876172618	 0.1121
H	 0.5792190282	-0.4258100217	-0.8983672588	 0.093019
H	 0.6251892187	-0.2769466216	 0.8500335044	 0.091312
H	-1.8796186107	-0.1019552331	 0.8852934182	 0.059536
H	-3.0910430986	 0.1432664548	-1.1842629424	 0.095593
H	-1.7381943966	-0.4627096906	-2.1490840067	 0.089858
H	-3.7405915064	-2.2341907014	-0.706047936	 0.05485
H	-2.4038298431	-4.0913109841	-1.7416739792	 0.095633
H	-1.7283493592	-2.8429984324	-2.8015022583	 0.09058
H	-0.4217966715	-3.9773472776	-0.3345410064	 0.096082
H	 0.1741621403	-2.5464664508	-1.1761211556	 0.096506
H	-0.869957925	-2.6437813038	 2.18105245	 0.113119
H	-2.5564862971	-2.1087287614	 2.1280678485	 0.109127
H	-2.1189418057	-3.7264340466	 1.5560204361	 0.109794
60.4867	90.4333	169.7921	191.8103	225.5579	240.5656	295.9929	317.8449	372.8343	418.6598	467.1729	587.4664	645.2745	740.3816	765.7724	781.4253	830.1286	859.2418	888.2431	911.1749	948.3569	957.8974	969.1764	993.5003	1018.4947	1034.601	1059.4238	1122.6835	1139.3104	1150.2224	1162.1932	1187.3231	1216.0118	1224.8303	1251.3158	1258.2831	1272.5792	1282.5544	1292.2898	1308.5035	1337.2732	1344.0955	1396.6697	1407.7435	1412.4052	1476.2884	1482.4719	1486.2225	1490.8032	1493.582	1499.723	1500.5413	1507.7112	3004.776	3011.8609	3013.5771	3029.5355	3036.895	3043.4893	3048.4891	3059.8529	3073.1264	3078.1449	3083.4096	3088.7464	3096.3201	3100.1298	3100.9133	3111.7212
CCC1CC2CCC12C	CC[C@H]1C[C@H]2CC[C@@]12C	
InChI=1S/C9H16/c1-3-7-6-8-4-5-9(7,8)2/h7-8H,3-6H2,1-2H3	InChI=1S/C9H16/c1-3-7-6-8-4-5-9(7,8)2/h7-8H,3-6H2,1-2H3/t7-,8+,9-/m0/s1
