22
gdb 93012	2.78401	1.3049	0.98784	1.4432	89.57	-0.2203	0.0191	0.2394	1274.3099	0.196113	-367.213476	-367.205007	-367.204063	-367.246205	33.946	
C	 0.0190798439	 1.5768544622	 0.0084324709	-0.403534
C	 0.0202519149	 0.0464730442	-0.0157081383	 0.019634
C	 0.7168666818	-0.5019259838	-1.27438055	-0.249797
C	 0.9420550355	-1.9904266114	-1.2086081913	-0.095717
C	 0.8661674411	-2.6884946966	-0.074268249	-0.097206
C	 0.5998965897	-2.0630750043	 1.2437709841	 0.320219
C	-0.300180683	-2.7900754233	 2.1907937942	-0.283125
N	 1.1411347476	-2.7116487861	 2.4594063699	-0.367459
C	 0.6765669443	-0.5465164603	 1.2410813266	-0.265284
H	 1.041727643	 1.9685651214	 0.0648164945	 0.113141
H	-0.4453747806	 1.9890304055	-0.8940534933	 0.108715
H	-0.5317622761	 1.9603617509	 0.8736935778	 0.111098
H	-1.0227785745	-0.3000529212	-0.0415766201	 0.074592
H	 0.1248243014	-0.2564808549	-2.1657485348	 0.100558
H	 1.6808729463	 0.0120435103	-1.4164670312	 0.105192
H	 1.1661187002	-2.5030682705	-2.1407554308	 0.086781
H	 1.0068096764	-3.7685411925	-0.0815859173	 0.076109
H	-0.9257850305	-2.2224181069	 2.8755211442	 0.115784
H	-0.7260104489	-3.7376614263	 1.8695235708	 0.107808
H	 1.5899537837	-3.591846237	 2.2139162547	 0.226096
H	 1.7343130241	-0.2513099729	 1.2708132101	 0.10088
H	 0.2146996595	-0.1461881666	 2.1495845981	 0.095514
100.2514	139.6609	235.5729	254.2826	274.1474	355.793	368.1642	421.8831	433.6691	444.5062	537.3304	656.6827	745.0993	777.0322	827.1446	888.678	896.3709	911.4421	928.6033	946.8652	966.3746	987.1745	995.0238	1005.49	1078.9171	1088.9822	1115.4675	1131.7276	1148.59	1172.1994	1213.2712	1255.6176	1274.1617	1301.1167	1319.9357	1335.8903	1371.3758	1377.6786	1398.6628	1410.4898	1432.436	1472.1604	1487.8297	1497.6991	1499.5281	1509.5587	1714.1772	2982.7206	3000.9076	3019.3601	3025.2666	3034.536	3072.0465	3090.3991	3096.6472	3097.9913	3129.8087	3162.3869	3183.1257	3483.6039
CC1CC=CC2(CN2)C1	C[C@H]1CC=C[C@]2(CN2)C1	
InChI=1S/C8H13N/c1-7-3-2-4-8(5-7)6-9-8/h2,4,7,9H,3,5-6H2,1H3	InChI=1S/C8H13N/c1-7-3-2-4-8(5-7)6-9-8/h2,4,7,9H,3,5-6H2,1H3/t7-,8+/m0/s1
