16
gdb 12211	4.0741	1.51221	1.18775	5.1139	70.04	-0.2473	-0.0199	0.2274	1013.762	0.130528	-379.946115	-379.938002	-379.937058	-379.979003	28.486	
C	-0.0967431297	 1.5990576377	-0.010336279	-0.403833
C	 0.0176977207	 0.080252195	-0.0230600676	-0.137645
C	 0.8334883618	-0.5876229519	-1.1695269645	-0.19463
N	 1.750140531	-1.1184640307	-0.1472924204	-0.097653
C	 2.8768709161	-1.9075147861	-0.296542972	 0.069437
N	 3.5847595475	-2.2924338301	 0.6835600873	-0.411097
C	 1.0706261998	-0.5246705942	 0.9326888566	 0.431121
O	 1.2724270443	-0.5050130354	 2.1096425799	-0.327486
H	 0.8772824623	 2.0707568126	-0.1765209983	 0.127065
H	-0.7834939587	 1.950637297	-0.7864709645	 0.122885
H	-0.4723066868	 1.9402464763	 0.9584625379	 0.144743
H	-0.9607728202	-0.3870591042	 0.1216428423	 0.110891
H	 0.3083011442	-1.3622295447	-1.73601113	 0.120527
H	 1.3099464157	 0.1164882781	-1.8593094696	 0.119628
H	 3.0577864721	-2.1420870718	-1.3541854038	 0.095676
H	 4.36136073	-2.8607395277	 0.3494864957	 0.23037
70.564	147.5019	161.9819	177.9328	212.3535	232.1261	361.1062	476.7273	514.7445	667.676	759.6816	765.251	816.3525	863.3899	930.8265	973.9225	1061.6523	1083.4362	1100.9403	1109.8868	1147.5002	1181.4873	1219.0854	1253.7089	1283.1723	1352.1361	1394.4965	1414.1458	1427.7882	1495.1119	1496.9859	1522.4673	1717.8733	1898.8272	3026.1674	3037.7287	3044.1431	3071.2755	3094.6886	3108.6112	3118.2981	3501.355
CC1CN(C=N)C1=O	C[C@H]1CN([CH][NH])C1=O	
InChI=1S/C5H8N2O/c1-4-2-7(3-6)5(4)8/h3-4,6H,2H2,1H3	InChI=1S/C5H8N2O/c1-4-2-7(3-6)5(4)8/h3-4,6H,2H2,1H3/t4-/m0/s1
