18
gdb 18483	3.28355	1.60228	1.39463	1.626	67.77	-0.251	0.0705	0.3215	957.4857	0.153807	-384.894331	-384.886268	-384.885324	-384.92691	30.347	
O	-0.0932655925	 1.3029470725	-0.5218309697	-0.425325
C	 0.0374533502	 0.0273408345	 0.1022237211	-0.117619
C	-1.3186989862	-0.6327156606	 0.0636595857	 0.013543
C	-1.9252535745	-1.3181942311	-1.124726643	-0.05374
C	-0.8768118654	-2.1005715398	-1.9207701181	-0.287095
C	-0.5979315611	-2.9583638068	-0.6357864781	 0.117422
O	 0.7075971599	-3.0111840453	-0.0928620774	-0.427447
C	-1.5871137713	-2.11275852	 0.154519209	-0.104797
H	 0.7529182805	 1.7538427336	-0.4473646706	 0.282841
H	 0.7928238759	-0.5914634827	-0.3934485146	 0.101922
H	 0.3503328052	 0.1313231186	 1.1534879641	 0.083949
H	-2.0612604728	-0.0614608923	 0.6183003406	 0.090511
H	-2.9046654032	-1.0455709161	-1.4969224837	 0.086421
H	-1.2961254664	-2.6947809	-2.7359040563	 0.097605
H	-0.0338424464	-1.5191951529	-2.3056004972	 0.10413
H	-0.9959857173	-3.972857805	-0.7715619815	 0.074068
H	 1.2382582599	-3.595686086	-0.6438888657	 0.281883
H	-2.2526538844	-2.5114474306	 0.9111093952	 0.081728
60.0357	142.9614	211.9886	250.5694	268.4853	287.7824	371.4271	438.4673	498.1134	605.9408	699.2896	756.4615	806.1174	848.2357	900.7318	959.614	975.5423	993.4862	1026.1869	1054.7212	1061.7904	1067.2127	1094.9506	1122.674	1174.7444	1189.1599	1208.5444	1247.0376	1251.2485	1279.2495	1285.5244	1331.3174	1348.8283	1419.6333	1430.9749	1480.4287	1488.5002	1531.5261	2976.5916	3006.3872	3053.5666	3067.1809	3107.7087	3127.5894	3175.1393	3193.155	3811.3145	3825.4944
OCC1C2CC(O)C12	OC[C@H]1[C@H]2C[C@@H](O)[C@@H]12	
InChI=1S/C6H10O2/c7-2-4-3-1-5(8)6(3)4/h3-8H,1-2H2	InChI=1S/C6H10O2/c7-2-4-3-1-5(8)6(3)4/h3-8H,1-2H2/t3-,4+,5-,6-/m1/s1
