14
gdb 45354	2.57846	1.82791	1.21836	6.4055	62.32	-0.2704	-0.0132	0.2572	964.0142	0.102488	-473.881093	-473.873981	-473.873037	-473.913225	26.287	
O	 0.0497963543	-0.0045293928	-0.151047692	-0.329065
C	 0.0127118378	 1.1840135155	-0.043207805	 0.43327
N	-1.006336977	 2.0956390623	 0.0997433829	-0.324856
C	-0.1592688408	 3.2920144965	 0.0759869101	 0.000147
C	 0.0151400629	 4.0146164717	 1.4160225474	-0.095425
O	 1.0347570045	 3.3112080607	 2.1365097118	-0.221505
C	 1.7536446652	 2.4684887348	 1.3340226157	 0.449473
O	 2.7438664011	 1.9184162836	 1.7083834343	-0.323541
C	 1.0645966353	 2.3509037961	-0.0149539481	-0.349345
H	-2.0066826007	 1.9729856446	 0.1614412509	 0.260728
H	-0.3543576851	 3.9642056149	-0.7618097656	 0.107935
H	 0.3411899986	 5.0502444008	 1.2676281625	 0.125788
H	-0.8949934188	 4.0121853972	 2.0217695757	 0.128797
H	 1.7514004829	 2.3975148141	-0.8565593806	 0.137599
76.2118	137.3225	166.6753	354.645	362.2421	461.0867	475.499	596.317	643.2998	717.4886	734.2565	813.6866	848.2174	896.3028	922.4968	968.2081	1006.5819	1066.0301	1086.1221	1132.0755	1152.0655	1175.3974	1208.5583	1241.407	1282.3657	1354.2246	1377.6386	1405.5952	1507.9563	1881.0982	1927.0889	3042.7711	3093.6844	3102.6408	3160.7441	3608.8704
O=C1NC2COC(=O)C12	O=C1N[C@H]2COC(=O)[C@@H]12	
InChI=1S/C5H5NO3/c7-4-3-2(6-4)1-9-5(3)8/h2-3H,1H2,(H,6,7)	InChI=1S/C5H5NO3/c7-4-3-2(6-4)1-9-5(3)8/h2-3H,1H2,(H,6,7)/t2-,3+/m0/s1
