16
gdb 126963	6.37211	0.82144	0.73627	4.2132	70.18	-0.229	0.0297	0.2587	1507.9745	0.124	-471.196294	-471.187665	-471.186721	-471.230402	30.878	
C	 0.1243970236	 1.5392391449	 0.0449335148	-0.404028
C	-0.1031357047	 0.0340026073	 0.1108426011	-0.120246
N	 0.6871201198	-0.5542468194	 1.1909264364	-0.409526
C	 0.7873309218	-1.8957778414	 1.3012247097	 0.548258
N	 0.4139007415	-2.7836349837	 0.4406999517	-0.247242
O	 0.8430685153	-4.0187692111	 1.0496042069	-0.248363
C	 1.4077391524	-3.7477167337	 2.2505312693	 0.508676
N	 1.8919978122	-4.5178795696	 3.1131377029	-0.581325
O	 1.3810005544	-2.3789204123	 2.4194537845	-0.218771
H	 1.1788045405	 1.7699272904	-0.1307060906	 0.13774
H	-0.4655495734	 1.9724013387	-0.7667182481	 0.135485
H	-0.1842582998	 2.0284043893	 0.9758575194	 0.122546
H	-1.1706348808	-0.1925607355	 0.2406709772	 0.121107
H	 0.2111116576	-0.4482418389	-0.8192779191	 0.14939
H	 0.7238339142	-0.0537318941	 2.0667875789	 0.263087
H	 1.8188081255	-5.4861930208	 2.8113265649	 0.243214
51.8475	91.9382	125.7833	185.5485	257.7938	324.1326	341.3374	365.9982	446.3653	536.5209	689.7241	729.9653	740.0862	781.9958	790.566	813.0316	908.101	919.0167	969.462	1006.1647	1050.1812	1108.244	1154.0009	1175.3058	1267.379	1292.9958	1333.129	1407.6325	1421.8414	1493.3955	1498.6371	1524.1045	1558.1893	1712.5305	1816.9753	3011.8254	3039.0341	3085.6807	3112.0143	3129.6735	3545.5601	3616.0306
CCNC1=NOC(=N)O1	CCNC1=NO[C@@H]([NH])O1	
InChI=1S/C4H7N3O2/c1-2-6-4-7-9-3(5)8-4/h5H,2H2,1H3,(H,6,7)	InChI=1S/C4H8N3O2/c1-2-6-4-7-9-3(5)8-4/h3,5H,2H2,1H3,(H,6,7)/t3-/m0/s1
