21
gdb 84690	2.6787	1.67013	1.41242	1.7278	81.98	-0.2343	0.0123	0.2465	1029.7944	0.185767	-387.109341	-387.101789	-387.100845	-387.140982	30.965	
C	-0.1690072606	 1.5656567289	-0.0037949519	-0.412467
C	 0.0299410574	 0.0416779911	-0.0166127988	-0.013376
C	 0.5821443691	-0.4446171758	-1.3413578266	-0.050802
C	 1.5642521267	-1.3426321072	-1.4226610128	-0.081006
C	 2.1871182405	-1.9077929245	-0.1565636982	 0.06646
C	 1.1247193466	-1.9985475344	 0.943526818	-0.240532
C	 0.9067297284	-0.4863111718	 1.1460320271	-0.056215
C	 2.3720815124	 0.0178863527	 1.0945621881	-0.076796
O	 3.1318826976	-0.9785894132	 0.3937289878	-0.269703
H	 0.7693032017	 2.1046382585	-0.1655408819	 0.123991
H	-0.8606057802	 1.8702678159	-0.7963831472	 0.114356
H	-0.5899907288	 1.895974731	 0.9519802119	 0.111706
H	-0.9714018887	-0.4014148978	 0.1121704071	 0.080931
H	 0.1401759078	-0.0229796192	-2.2422150228	 0.084844
H	 1.9611511986	-1.6566399761	-2.383438291	 0.088449
H	 2.7280030531	-2.8370940118	-0.3473810462	 0.070961
H	 0.2192008932	-2.5302823552	 0.6415805114	 0.098982
H	 1.540997126	-2.472608202	 1.8372231086	 0.0978
H	 0.4377753799	-0.2407133169	 2.1031186702	 0.065244
H	 2.4685459544	 0.9841597802	 0.5865283364	 0.097928
H	 2.7970426447	 0.1228773476	 2.1000182507	 0.099243
112.9121	211.3018	253.3895	261.3014	347.1692	398.3223	423.2378	476.3826	592.9567	643.7595	718.5876	740.8369	797.2426	840.6608	888.6118	900.7206	921.3106	947.612	963.267	991.5234	1002.4115	1016.1922	1031.0307	1074.4791	1091.1336	1114.3577	1121.8892	1173.7284	1184.393	1217.7884	1241.9236	1306.2453	1311.5197	1322.535	1339.9008	1354.2788	1369.0482	1383.815	1401.7969	1417.8217	1486.6783	1493.4386	1502.7639	1524.5983	1702.8891	2962.347	3024.1502	3032.0124	3053.6787	3057.2642	3070.7341	3092.053	3096.9589	3107.7138	3111.6183	3140.0635	3176.095
CC1C=CC2CC1CO2	C[C@H]1C=C[C@@H]2C[C@H]1CO2	
InChI=1S/C8H12O/c1-6-2-3-8-4-7(6)5-9-8/h2-3,6-8H,4-5H2,1H3	InChI=1S/C8H12O/c1-6-2-3-8-4-7(6)5-9-8/h2-3,6-8H,4-5H2,1H3/t6-,7-,8+/m0/s1
