14
gdb 47299	3.68828	1.34448	1.03714	2.7753	60.07	-0.2932	-0.0204	0.2728	1066.9682	0.101916	-510.989885	-510.982391	-510.981447	-511.02276	27.017	
N	-0.0933677629	 1.3056129739	 0.3668085342	-0.476612
C	-0.0186420424	 0.1137269397	-0.040094223	 0.36724
C	-1.28893776	-0.6715242244	-0.2790344896	-0.15626
O	-1.3291768829	-1.4395864583	-1.4967128694	-0.239736
C	-0.7487266172	-2.6646754968	-1.4873917886	 0.439794
O	-1.2667936573	-3.6382786778	-1.9299040352	-0.325475
O	 0.5002163543	-2.6901379068	-0.9387858533	-0.227487
C	 1.3174008209	-1.5470799226	-1.1278079166	 0.007644
O	 1.1707547841	-0.5572989811	-0.1352827765	-0.229787
H	 0.8385993982	 1.6774597907	 0.5631511991	 0.234351
H	-1.4616759045	-1.3373705654	 0.5745582312	 0.151836
H	-2.1111651172	 0.0375349906	-0.3485511475	 0.168268
H	 2.3428700247	-1.9007679396	-1.0324684694	 0.150412
H	 1.1373503122	-1.1214732022	-2.1202278353	 0.135813
49.5645	111.8825	197.5262	296.3653	316.8576	381.5684	420.0988	531.093	556.8284	692.8279	730.4681	804.2082	825.3513	855.3237	937.6721	1007.2788	1013.3337	1035.7254	1097.9426	1131.3026	1148.3315	1217.6154	1286.9996	1330.7211	1355.6362	1390.0812	1464.7091	1480.9852	1507.4802	1761.6676	1904.286	3047.4966	3055.5678	3156.7153	3167.2869	3467.2694
N=C1COC(=O)OCO1	[NH][C]1COC(=O)OCO1	
InChI=1S/C4H5NO4/c5-3-1-7-4(6)9-2-8-3/h5H,1-2H2	InChI=1S/C4H5NO4/c5-3-1-7-4(6)9-2-8-3/h5H,1-2H2
