21
gdb 102084	2.0293	1.25649	1.00395	3.8526	78.93	-0.2385	-0.0179	0.2206	1306.039	0.179599	-424.215752	-424.205389	-424.204444	-424.251591	37.415	
C	-0.0624530876	 1.579052098	-0.248170581	-0.479082
C	-0.0447588877	 0.0673641323	-0.0905377386	 0.357678
C	 1.2263182787	-0.6601823365	-0.4550880926	-0.301239
C	 0.8319223738	-0.5165503435	 0.9954751698	-0.319554
C	-1.3544949789	-0.6758198043	-0.3875010631	-0.127928
C	-2.5333905078	-0.1839828105	 0.4463590746	-0.111308
O	-3.620010602	-1.0563839274	 0.1714768831	-0.420023
C	-1.6810212725	-0.5901190801	-1.8736107529	 0.179693
O	-1.2767167271	-1.36701519	-2.698567532	-0.257877
H	 0.9291818018	 1.9942143088	-0.0448217252	 0.119388
H	-0.3391326352	 1.8794101748	-1.2651688982	 0.122554
H	-0.7641987943	 2.05703929	 0.4442382511	 0.118471
H	 1.1345696373	-1.6336915231	-0.9226864996	 0.13093
H	 2.0608406671	-0.0701857459	-0.8186369015	 0.111164
H	 1.3976209816	 0.1721002455	 1.6144810923	 0.110825
H	 0.4828668327	-1.3991144649	 1.5211088937	 0.114437
H	-1.2017642414	-1.738201459	-0.1700165874	 0.103886
H	-2.2625755502	-0.1898904048	 1.5128359853	 0.097063
H	-2.7836388951	 0.8536484504	 0.1742042959	 0.091356
H	-4.4040065593	-0.7191536403	 0.6147440714	 0.290515
H	-2.312186144	 0.2811410205	-2.1690756551	 0.069052
52.5396	67.8866	103.3215	169.8504	216.9364	225.9889	238.1002	296.4796	308.3971	335.4514	408.992	447.3076	462.7502	563.3323	738.5518	785.6305	870.3698	879.8747	919.3534	948.8717	954.7374	997.9972	1041.3973	1061.0233	1077.5261	1079.5199	1090.0918	1129.9868	1140.4767	1187.4146	1220.0951	1247.0482	1273.4235	1307.4475	1331.4981	1369.1376	1422.8451	1428.2485	1453.0245	1473.121	1495.2982	1501.3801	1509.207	1523.2684	1834.0776	2849.0563	2975.164	3007.6901	3028.2533	3062.7759	3087.7307	3102.6582	3128.59	3138.4447	3208.6389	3225.8559	3830.8556
CC1(CC1)C(CO)C=O	CC1(CC1)[C@@H](CO)C=O	
InChI=1S/C7H12O2/c1-7(2-3-7)6(4-8)5-9/h4,6,9H,2-3,5H2,1H3	InChI=1S/C7H12O2/c1-7(2-3-7)6(4-8)5-9/h4,6,9H,2-3,5H2,1H3/t6-/m1/s1
