17
gdb 80751	4.33353	1.07235	1.06198	3.5224	69.01	-0.2376	-0.037	0.2006	1177.3282	0.13415	-458.940314	-458.931828	-458.930884	-458.974239	30.412	
C	 0.209541534	 1.7521123058	 0.08565826	-0.409461
C	 0.1379876551	 0.2758359827	-0.2217632337	-0.069399
C	 1.3715670291	-0.5996116019	-0.3562278824	 0.029686
O	 2.5754297688	-0.0752298136	 0.1714662761	-0.261467
C	 2.5331322733	-0.2742157744	 1.5742344355	 0.100902
O	 1.1708487858	-0.3777229899	 1.9519196994	-0.261478
C	 0.455359007	-0.7969399983	 0.8051482511	 0.029693
C	 3.2711472493	-1.5660379562	 1.9369457393	 0.164503
O	 4.2172361045	-1.6085597205	 2.676039084	-0.234622
H	 0.3653537272	 2.3289656033	-0.8312170153	 0.125355
H	-0.7214191676	 2.0944439301	 0.548039583	 0.125368
H	 1.0280662451	 1.9807600817	 0.769474916	 0.140081
H	-0.661468752	-0.0138938938	-0.9016358077	 0.095962
H	 1.5086561856	-1.2981196205	-1.1735987842	 0.112425
H	 2.9947170323	 0.5771874997	 2.0830375546	 0.117135
H	-0.1784538798	-1.6615281807	 0.9650698913	 0.112419
H	 2.8515410122	-2.4758009836	 1.4513675132	 0.082898
73.7636	74.8837	111.2616	169.7953	221.4957	307.7611	375.9523	430.7718	478.3723	635.0506	750.0334	752.2409	767.7296	787.7152	902.0197	936.2402	982.2403	996.4584	1021.5647	1066.7098	1083.9359	1100.8895	1103.8351	1119.1916	1137.821	1156.9697	1216.4282	1282.8008	1309.0067	1353.4855	1354.4534	1416.6523	1419.9153	1421.9056	1487.775	1498.9946	1843.6281	2883.2489	3045.913	3083.7666	3104.6751	3123.8818	3143.9873	3169.8023	3179.8293
CC1C2OC(OC12)C=O	C[C@H]1[C@H]2O[C@@H](O[C@@H]12)C=O	
InChI=1S/C6H8O3/c1-3-5-6(3)9-4(2-7)8-5/h2-6H,1H3	InChI=1S/C6H8O3/c1-3-5-6(3)9-4(2-7)8-5/h2-6H,1H3/t3-,4-,5+,6-
