21
gdb 36595	5.09342	0.76456	0.75131	0.6913	89.75	-0.2573	0.059	0.3162	1577.7297	0.182314	-349.876789	-349.868021	-349.867077	-349.91084	33.896	
C	 0.0314178621	-1.2221530084	-0.0050339081	-0.438519
C	-0.0063466698	-0.0205933112	 0.0021912255	 0.297957
C	-0.0182792558	 1.436688866	 0.0111319557	-0.360467
C	 1.3984532453	 2.0514662495	-0.0011769671	-0.342371
C	 1.3805632237	 3.5599046542	 0.0078938476	 0.386354
C	 0.7749268825	 4.507482412	 1.0964114685	-0.249322
C	 1.3838659303	 5.4464238519	 0.018851635	-0.045442
C	 2.6210297105	 4.5066641383	-0.0019452534	-0.272087
C	 0.7482983353	 4.5200391852	-1.0541839444	-0.249317
H	 0.052815273	-2.2833957095	-0.0110992395	 0.191854
H	-0.5804664297	 1.8032194527	-0.8572088473	 0.132885
H	-0.5606956917	 1.7926895511	 0.8962726545	 0.132888
H	 1.9550873859	 1.6840772383	 0.8691848137	 0.110405
H	 1.9353217631	 1.6944103685	-0.8881001812	 0.110405
H	-0.3147175592	 4.5165535768	 1.1947584096	 0.086901
H	 1.2631228656	 4.4997024002	 2.0756785263	 0.087623
H	 1.3855716108	 6.5366493165	 0.025194686	 0.071544
H	 3.2486236167	 4.4972876659	 0.8943038813	 0.087091
H	 3.2262554701	 4.507797051	-0.9134967369	 0.087091
H	 1.2120880988	 4.5237701763	-2.0452669798	 0.087624
H	-0.3434469176	 4.5300893347	-1.1253906362	 0.086904
61.2189	82.9447	102.0201	197.2461	299.219	356.8068	358.0487	474.8527	542.4946	545.6797	615.3966	634.8165	690.9457	744.8314	796.3984	800.3396	881.5992	920.8901	931.7797	960.2042	967.0614	985.3141	998.2556	1026.2011	1028.5879	1099.0047	1100.8098	1133.9564	1142.7003	1153.7946	1159.0688	1219.4724	1229.9318	1237.9906	1251.0444	1290.4976	1320.5578	1321.6551	1382.651	1471.9072	1488.2543	1497.2123	1498.3787	1554.7807	2238.5655	3019.8896	3033.3057	3037.2969	3038.757	3047.0596	3048.2388	3076.1658	3100.0711	3105.8636	3107.0714	3108.7986	3508.5208
C#CCCC12CC(C1)C2	C#CCC[C@@]12C[C@@H](C1)C2	
InChI=1S/C9H12/c1-2-3-4-9-5-8(6-9)7-9/h1,8H,3-7H2	InChI=1S/C9H12/c1-2-3-4-9-5-8(6-9)7-9/h1,8H,3-7H2/t8-,9+
