19
gdb 81367	2.51207	1.65494	1.30283	2.2236	75.92	-0.2361	0.0078	0.2439	1031.3616	0.160557	-423.009636	-423.0017	-423.000756	-423.041547	31.906	
O	-0.0594420338	 1.3780663487	-0.0501159492	-0.453789
C	 0.0429339924	-0.0296284584	-0.00498727	 0.163216
C	 0.1662008475	-0.619937588	 1.4448104047	-0.112059
C	-1.3861257781	-0.4605920229	 1.5346931433	-0.238699
C	-1.3821393464	-0.6365795602	-0.0113790559	-0.036223
C	-1.3116518279	-2.1220828533	-0.3830092227	 0.09052
O	-1.0475843576	-2.1884377748	-1.7874926426	-0.441062
C	-0.2332688197	-2.8047941169	 0.4344205825	-0.115777
C	 0.4801300605	-2.0895160678	 1.3060807879	-0.066008
H	 0.8163465229	 1.7437703797	 0.1099759392	 0.280071
H	 0.7496262239	-0.4131265395	-0.749429768	 0.072706
H	 0.8001301645	-0.0992104102	 2.1655110235	 0.053002
H	-1.9252940628	-1.193483941	 2.1396066484	 0.09124
H	-1.6778806679	 0.5527385225	 1.8117560653	 0.113643
H	-2.1326766077	-0.1167015329	-0.6094403171	 0.078959
H	-2.2887094003	-2.5916240264	-0.1751211102	 0.068065
H	-0.8617364467	-3.1053577675	-2.0138069462	 0.278707
H	-0.0741305954	-3.8709840509	 0.2897706167	 0.082213
H	 1.2650558727	-2.5358297099	 1.9095407204	 0.091274
149.224	201.2463	206.9695	293.0891	302.761	337.5057	385.3953	421.0829	474.7615	507.0332	619.8906	706.3983	751.8346	846.7375	858.8696	905.1348	926.9596	933.6856	963.3043	972.5071	986.2804	1050.7907	1068.3671	1086.1038	1115.3645	1119.0335	1134.0283	1164.429	1190.2175	1221.994	1253.1838	1276.2519	1305.8849	1313.8203	1322.0478	1351.2452	1399.9865	1412.9194	1428.5374	1486.6052	1693.5529	2944.6056	3041.7142	3068.9944	3085.6306	3098.6742	3138.4708	3146.3568	3175.8531	3814.3773	3816.788
OC1C2CC1C(O)C=C2	O[C@H]1[C@H]2C[C@@H]1[C@@H](O)C=C2	
InChI=1S/C7H10O2/c8-6-2-1-4-3-5(6)7(4)9/h1-2,4-9H,3H2	InChI=1S/C7H10O2/c8-6-2-1-4-3-5(6)7(4)9/h1-2,4-9H,3H2/t4-,5-,6+,7+/m1/s1
