23
gdb 54905	3.22838	1.02412	0.93509	2.5383	86.4	-0.2403	-0.0092	0.2311	1399.8756	0.203173	-388.315937	-388.30558	-388.304636	-388.35188	38.428	
C	 0.0567756271	 1.0780305246	 1.2296931153	-0.478145
C	-0.0008082699	 0.2238092576	-0.0246618312	 0.377607
O	 0.8159766639	 0.3406133379	-0.9122158702	-0.305242
C	-1.1140007821	-0.8055978158	-0.0743869762	-0.079514
C	-1.3491283585	-1.4827284187	-1.447460214	-0.289683
C	-0.7701872202	-2.8319870926	-0.9072569482	 0.37497
C	-1.7274907458	-4.0177284604	-0.9943265627	-0.445346
C	 0.5945214628	-3.1767243918	-1.5048163158	-0.448773
C	-0.6675401298	-2.1923965342	 0.5171582869	-0.286599
H	 0.980785576	 1.6570041039	 1.250072105	 0.13999
H	-0.800298989	 1.7619395817	 1.245789429	 0.141211
H	-0.0190112588	 0.4559842302	 2.1283065362	 0.137534
H	-2.0056405289	-0.4008715267	 0.4118912821	 0.073629
H	-2.4039182728	-1.5367255323	-1.7283292366	 0.089304
H	-0.7804208581	-1.0291744827	-2.2615185192	 0.119105
H	-1.8876617991	-4.3163095187	-2.036998434	 0.113616
H	-1.3312457309	-4.8872746561	-0.4565205677	 0.11077
H	-2.7054560783	-3.7756328393	-0.5633938298	 0.104875
H	 1.2672321902	-2.3150847752	-1.4673098729	 0.136955
H	 1.0636710145	-4.0056623286	-0.9612868413	 0.104208
H	 0.4946140722	-3.4782972614	-2.554030618	 0.109173
H	 0.3294065115	-2.2128375311	 0.967129433	 0.102061
H	-1.3804098761	-2.5984316303	 1.2391793304	 0.098294
35.6791	51.3288	138.9141	162.9338	220.0641	243.8102	276.0612	303.872	335.1983	368.0788	398.2793	413.5358	565.5832	587.495	642.5092	727.7329	818.9589	828.201	889.0722	927.5172	939.8239	942.6614	966.7501	989.1622	1006.2396	1018.2204	1064.3531	1114.2003	1145.4661	1185.5212	1201.5553	1226.1765	1240.0075	1259.6969	1302.4109	1308.4982	1364.3161	1383.6483	1401.5147	1419.0382	1462.9561	1465.6298	1476.481	1482.5411	1486.6397	1489.4133	1501.7996	1511.7856	1799.8653	3016.3518	3022.1257	3033.8766	3049.21	3059.6083	3069.0441	3081.6198	3086.1869	3087.4615	3094.5937	3105.0002	3110.7767	3124.5149	3151.0363
CC(=O)C1CC(C)(C)C1	CC(=O)C1CC(C)(C)C1	
InChI=1S/C8H14O/c1-6(9)7-4-8(2,3)5-7/h7H,4-5H2,1-3H3	InChI=1S/C8H14O/c1-6(9)7-4-8(2,3)5-7/h7H,4-5H2,1-3H3
