19
gdb 39338	2.78853	1.8264	1.33973	1.8012	74.04	-0.2278	0.0797	0.3074	984.7194	0.161828	-423.013437	-423.006406	-423.005462	-423.044721	28.66	
C	-0.2544923975	 1.4052213415	-0.0746900241	-0.389815
C	 1.1944671513	 0.9403618001	 0.0082365655	 0.003051
O	 1.7914268687	 0.9581022946	 1.2793999644	-0.261656
C	 1.5324921544	-0.3115882417	 1.8926988533	-0.083279
C	 0.1532940458	-0.7726912654	 1.3747186798	-0.114404
C	 0.0254611519	-2.2535076462	 0.95328536	-0.24524
C	 0.2775690305	-2.2037509011	-0.5674314074	-0.10211
O	-0.2538515872	-0.9488973674	-0.9940480255	-0.286109
C	 0.0635732033	-0.0488596748	 0.0207476878	 0.43288
H	-0.6881375343	 1.9091190119	 0.7832534494	 0.117519
H	-0.5810072754	 1.7675257317	-1.0446606673	 0.122639
H	 1.8620147865	 1.0878515042	-0.8349024778	 0.100952
H	 2.3110095375	-1.0360996784	 1.6036271251	 0.087289
H	 1.5772983598	-0.171781701	 2.9759411439	 0.109407
H	-0.6407667952	-0.4779674723	 2.0655267396	 0.082202
H	 0.7295381663	-2.9112519929	 1.4704863889	 0.105141
H	-0.9854020676	-2.6184386604	 1.1536035344	 0.113012
H	 1.3555969137	-2.252809754	-0.7853737903	 0.09634
H	-0.2282394928	-2.9915680084	-1.1296140597	 0.11218
135.6376	182.3593	226.7169	352.9011	400.0454	428.5962	547.7057	586.7108	608.8969	658.3537	800.151	825.8926	847.4593	878.6763	918.1991	948.7459	963.464	987.9349	995.7991	1025.8668	1046.0394	1052.653	1065.6702	1086.8203	1132.0152	1142.0061	1205.3886	1214.2376	1241.7465	1251.7348	1270.0312	1285.7897	1333.6667	1338.688	1367.485	1389.5851	1401.8845	1471.2687	1488.9113	1510.7775	1520.0013	2971.9738	2986.8941	3058.1502	3069.9717	3095.0538	3102.3595	3113.1966	3122.9902	3159.9259	3217.4297
C1C2OCC3CCOC123	C1[C@H]2OC[C@@H]3CCO[C@]123	
InChI=1S/C7H10O2/c1-2-9-7-3-6(7)8-4-5(1)7/h5-6H,1-4H2	InChI=1S/C7H10O2/c1-2-9-7-3-6(7)8-4-5(1)7/h5-6H,1-4H2/t5-,6+,7-/m0/s1
