19
gdb 85930	2.57996	1.40368	1.16978	3.0327	71.79	-0.2657	0.0083	0.274	1150.1745	0.156757	-460.228253	-460.218941	-460.217997	-460.262162	34.6	
C	-0.0253301085	 1.5800897314	 0.0076494871	-0.40299
C	 0.124326796	 0.0688403594	-0.0635001937	-0.033684
O	 1.0039134733	-0.3139533698	-1.1091799626	-0.294206
C	 1.7758399357	-1.4231871374	-0.6678986394	 0.434681
C	 1.1498410089	-2.7438697773	-1.1105204059	-0.410853
C	 3.2076082081	-1.2423379119	-1.1394103601	-0.412717
O	 1.7510029991	-1.3645566754	 0.7768891684	-0.248512
C	 0.7666730244	-0.5294934162	 1.185943882	 0.405627
O	 0.4926048202	-0.3282864495	 2.3323737807	-0.341336
H	 0.9526893185	 2.0561401538	 0.1166781157	 0.130995
H	-0.5010385615	 1.9592628338	-0.8999374405	 0.130109
H	-0.6428795257	 1.8411811013	 0.8707372204	 0.145167
H	-0.8656497344	-0.3984575699	-0.1917570751	 0.107574
H	 1.1470444299	-2.8037031518	-2.201780615	 0.13189
H	 1.7154246516	-3.5884518913	-0.7090815625	 0.134187
H	 0.1186850895	-2.8175765396	-0.7544678749	 0.125465
H	 3.6087384678	-0.3045333735	-0.7498954976	 0.132577
H	 3.8317635927	-2.0705640036	-0.7955835248	 0.132497
H	 3.2316097143	-1.2104635926	-2.2316101521	 0.133527
78.7154	101.416	195.6202	206.4445	232.4302	244.7584	314.6781	329.0047	339.7255	419.6135	508.9462	532.4188	614.6434	623.3086	716.7997	791.7165	853.071	895.5277	927.4098	954.4415	999.5224	1004.037	1070.0582	1088.5172	1140.77	1171.9767	1233.6775	1255.3973	1284.2524	1329.4327	1370.956	1402.8145	1404.9779	1417.6654	1472.0428	1476.028	1483.4357	1493.8566	1496.118	1498.4606	1890.841	2974.3537	3049.737	3052.3364	3057.628	3127.4495	3131.1647	3131.3701	3136.8968	3138.9135	3143.1639
CC1OC(C)(C)OC1=O	C[C@H]1OC(C)(C)OC1=O	
InChI=1S/C6H10O3/c1-4-5(7)9-6(2,3)8-4/h4H,1-3H3	InChI=1S/C6H10O3/c1-4-5(7)9-6(2,3)8-4/h4H,1-3H3/t4-/m1/s1
