16
gdb 109124	3.29846	1.15096	0.89027	2.0067	67.37	-0.2245	-0.0192	0.2053	1240.2168	0.123971	-475.049348	-475.040545	-475.0396	-475.08314	32.032	
O	 0.131853947	 1.3711638209	-0.0491068688	-0.409051
C	 0.0290140533	-0.0343665043	 0.1143808294	-0.176466
C	-1.3860865175	-0.5204753588	 0.0960365266	 0.203986
C	-2.4996881394	 0.2155850386	 0.1780591254	-0.116873
N	-3.6665544286	-0.5838403392	 0.1519199161	-0.340174
C	-3.3332457112	-1.9002990328	-0.0606211924	 0.401208
O	-4.0662660337	-2.8236458973	-0.3343408748	-0.376783
C	-1.7933706714	-1.9737853885	 0.0547392891	-0.08483
O	-1.2396509124	-2.7003756266	-1.0209674763	-0.433246
H	-0.1712225988	 1.5771714027	-0.9398387691	 0.284725
H	 0.6094495533	-0.5792071645	-0.6463390916	 0.119708
H	 0.5032592692	-0.2562792136	 1.0798182317	 0.124812
H	-2.5888755444	 1.2862869735	 0.2873109326	 0.141512
H	-4.5964119883	-0.2320189715	-0.0128467982	 0.263268
H	-1.555108166	-2.4592590174	 1.0196773363	 0.101958
H	-1.862363781	-3.4175042012	-1.2045790059	 0.296247
75.9314	95.5613	164.9338	204.737	249.1489	306.4983	342.8182	368.3172	380.5697	493.852	543.6241	568.2362	656.0003	733.8757	759.5166	859.7689	874.9969	914.0987	988.6778	1056.3041	1079.682	1131.3302	1181.2981	1200.8045	1216.8781	1235.7145	1313.8652	1345.727	1389.7326	1393.7017	1409.5041	1427.8272	1499.0303	1711.9848	1837.595	2930.1173	2987.83	3032.4734	3250.9155	3642.3494	3751.8703	3809.2166
OCC1=CNC(=O)C1O	OCC1=CNC(=O)[C@H]1O	
InChI=1S/C5H7NO3/c7-2-3-1-6-5(9)4(3)8/h1,4,7-8H,2H2,(H,6,9)	InChI=1S/C5H7NO3/c7-2-3-1-6-5(9)4(3)8/h1,4,7-8H,2H2,(H,6,9)/t4-/m0/s1
