21
gdb 79184	2.52227	1.84849	1.46707	1.6409	79.9	-0.2218	0.0774	0.2992	1002.6261	0.183862	-387.061697	-387.053894	-387.05295	-387.093481	31.943	
C	-0.1435148102	 1.5924369934	-0.1059826646	-0.393229
C	 0.0229745641	 0.0703208905	-0.0106887335	-0.019407
C	 0.8074516667	-0.5051215861	-1.195014459	-0.082908
C	 2.2891555204	-0.1809795231	-1.2630088668	 0.097536
O	 2.7606418129	 0.2975991993	-0.0008954359	-0.312035
C	 2.1545098568	-0.8819402673	 0.6378694652	 0.085476
C	 1.847591811	-1.5088689812	-0.737828459	-0.175154
C	 0.8154307865	-0.4640962961	 1.2431136101	 0.021922
C	 0.9498013551	 0.4884840068	 2.4312121925	-0.413551
H	 0.8272097313	 2.0929941675	-0.1258896565	 0.13595
H	-0.6792608398	 1.8543362829	-1.0250094957	 0.103444
H	-0.7212267675	 1.9914651607	 0.7336861448	 0.107369
H	-0.9773926468	-0.3780708061	-0.0052623176	 0.067931
H	 0.3092984466	-0.6684966224	-2.1453396358	 0.083109
H	 2.8287868634	 0.1179513174	-2.1540353622	 0.10019
H	 2.8624182784	-1.3739847291	 1.3085120461	 0.073218
H	 1.9929387105	-2.5249918023	-1.0760033462	 0.094537
H	 0.3210303655	-1.3838447475	 1.5858519668	 0.069681
H	 1.516995949	 1.3816129182	 2.1578512298	 0.136591
H	-0.0288301772	 0.8044911637	 2.8056242176	 0.112265
H	 1.4748006934	-0.002506179	 3.2578525797	 0.107066
113.5834	220.2609	241.964	260.5102	279.5742	317.731	454.32	482.1934	546.6756	636.9304	725.4495	750.4281	763.2981	800.1478	820.5335	870.7368	899.9064	953.7702	959.1814	984.8526	1005.649	1013.5424	1022.8631	1048.0659	1066.2571	1078.9614	1101.7051	1116.8495	1152.4549	1170.1865	1223.1322	1257.4102	1264.455	1283.2489	1321.5051	1347.4557	1356.9633	1365.2592	1399.7588	1404.7402	1413.7346	1487.7071	1499.829	1505.4205	1515.664	3001.4273	3029.6392	3035.3491	3039.3628	3089.9285	3093.7493	3098.3536	3124.2006	3130.0417	3165.8327	3181.9567	3211.4172
CC1C2C3OC(C23)C1C	C[C@H]1[C@H]2[C@H]3O[C@H]([C@@H]23)[C@H]1C	
InChI=1S/C8H12O/c1-3-4(2)7-6-5(3)8(6)9-7/h3-8H,1-2H3	InChI=1S/C8H12O/c1-3-4(2)7-6-5(3)8(6)9-7/h3-8H,1-2H3/t3-,4+,5-,6-,7+,8-/m1/s1
