19
gdb 102062	2.14154	1.21195	0.82681	1.5297	78.39	-0.2492	-0.0282	0.221	1392.5736	0.154643	-422.995709	-422.98493	-422.983986	-423.032271	37.821	
C	-0.0967069945	 1.5733179544	 0.0091613567	-0.397378
C	 0.0629134961	 0.050846223	 0.0050988939	-0.201421
C	 0.7449128214	-0.4913070559	-1.2713988859	-0.073431
C	 2.2127667068	-0.111005743	-1.2487234854	 0.164702
O	 2.704344686	 0.7903735796	-1.876429911	-0.251805
C	 0.585430465	-2.0329537049	-1.3681298423	-0.068204
O	-0.7805921091	-2.4286507563	-1.3404982272	-0.414425
C	 1.2784850468	-2.5609334371	-2.5459003646	 0.277065
C	 1.8245429254	-2.9571245539	-3.5409511314	-0.420667
H	 0.8652651624	 2.083407433	-0.0984165181	 0.134978
H	-0.7361403136	 1.9028164734	-0.8166005673	 0.120321
H	-0.5562727816	 1.9105119549	 0.9429471673	 0.117356
H	 0.6430250758	-0.2690361652	 0.8821671068	 0.099039
H	-0.9126487088	-0.4371016025	 0.0876662285	 0.126597
H	 0.2966703796	-0.0311901159	-2.1595304703	 0.093241
H	 2.8285451137	-0.7184287799	-0.5423078537	 0.074787
H	 1.0221667514	-2.4804222398	-0.4656256415	 0.122989
H	-1.1541890231	-2.2432178947	-2.2095785169	 0.288945
H	 2.3173395904	-3.3182754991	-4.4101779375	 0.207312
52.7524	63.7689	92.4535	115.0796	192.3839	206.7605	241.478	258.708	299.9163	338.482	378.1581	415.1435	483.053	582.1599	588.7823	639.3036	684.957	778.6139	875.3643	922.2103	967.7889	981.548	1037.392	1066.1622	1105.3199	1116.0455	1157.4334	1224.4604	1258.9423	1285.0868	1327.304	1355.4096	1365.7401	1417.6457	1419.9711	1432.9598	1493.7071	1498.6757	1506.998	1831.8301	2232.6336	2841.382	3014.1764	3026.7579	3038.7451	3055.7615	3084.2873	3106.6338	3115.7904	3500.2706	3803.8767
CCC(C=O)C(O)C#C	CC[C@@H](C=O)[C@@H](O)C#C	
InChI=1S/C7H10O2/c1-3-6(5-8)7(9)4-2/h2,5-7,9H,3H2,1H3	InChI=1S/C7H10O2/c1-3-6(5-8)7(9)4-2/h2,5-7,9H,3H2,1H3/t6-,7-/m0/s1
