17
gdb 108707	3.40032	1.10784	0.88867	5.2273	80.34	-0.228	-0.0738	0.1542	1304.9909	0.13642	-418.061654	-418.052875	-418.051931	-418.095738	31.929	
C	-0.0053584395	 1.5447898768	 0.2059232149	-0.376559
C	-0.0325485746	 0.0273985939	-0.0613020384	-0.302492
C	-1.4171760661	-0.5322105748	-0.1040270739	 0.383091
C	-2.0999815309	-1.0364457161	-1.1717007572	-0.373228
C	-3.4159163902	-1.4427498472	-0.713928044	 0.341091
O	-4.3681147829	-1.9360070272	-1.2828642404	-0.347517
C	-3.4245887426	-1.1152163344	 0.7966598265	 0.282016
N	-4.3370720326	-1.3056670815	 1.6523137414	-0.510629
N	-2.181225202	-0.5532594224	 1.0519387793	-0.37394
H	 1.0265490837	 1.9047409795	 0.2307676825	 0.129963
H	-0.539929071	 2.0864567783	-0.5792005979	 0.138521
H	-0.47240364	 1.7950855818	 1.1629173642	 0.125077
H	 0.4602667382	-0.1939127802	-1.0114411738	 0.13068
H	 0.5357224508	-0.4912158046	 0.7224205721	 0.12367
H	-1.724967033	-1.1154609178	-2.1797681095	 0.116695
H	-5.1309665323	-1.7350172725	 1.1663720392	 0.246683
H	-1.856917085	-0.3009252416	 1.969962395	 0.266879
51.4656	93.1026	150.2125	197.306	248.0267	296.4458	318.4549	366.4893	476.8682	561.0021	575.6204	638.9745	706.2547	753.4286	774.7287	796.6073	828.0465	933.8775	936.9588	1013.012	1059.7472	1067.3092	1084.0162	1163.5742	1177.9313	1266.5661	1317.5007	1346.4891	1368.6742	1411.1786	1460.3907	1481.2773	1496.788	1505.7971	1624.102	1758.7104	1800.4668	3025.6665	3047.0409	3095.0598	3121.9322	3125.9398	3258.438	3432.4356	3667.7402
CCC1=CC(=O)C(=N)N1	CCC1=CC(=O)[C]([NH])N1	
InChI=1S/C6H8N2O/c1-2-4-3-5(9)6(7)8-4/h3H,2H2,1H3,(H2,7,8,9)	InChI=1S/C6H8N2O/c1-2-4-3-5(9)6(7)8-4/h3H,2H2,1H3,(H2,7,8,9)
