13
gdb 24822	3.0469	1.50587	1.00779	3.6962	76.06	-0.2411	-0.0452	0.1959	1077.7506	0.089446	-419.436308	-419.428957	-419.428012	-419.468252	27.715	
O	-0.006678324	-0.0689154128	 0.0039047125	-0.350339
C	-0.0157022937	 1.1484515832	 0.0099430429	 0.315351
C	-1.2399200459	 1.9545544912	 0.0298596638	-0.246536
C	-1.2008575223	 3.2946634013	 0.0357922361	 0.069884
O	-0.0486431134	 4.0075421046	 0.0241014718	-0.183342
C	 1.1172641213	 3.3318375711	 0.0055432614	 0.015864
C	 1.2189088352	 1.9807657522	-0.0022926269	-0.129827
C	 2.4942177311	 1.3599908632	-0.0220447153	 0.256328
C	 3.5721748604	 0.8254911305	-0.0387564996	-0.38518
H	-2.1918375695	 1.4384776211	 0.0398593034	 0.132081
H	-2.0624627358	 3.9497903996	 0.0502424228	 0.151063
H	 1.9659781826	 4.0033226942	-0.0023773792	 0.154769
H	 4.517605394	 0.3421671506	-0.0534147338	 0.199884
104.6163	138.0834	199.7917	372.7965	384.306	442.6575	443.8078	538.627	573.6374	583.1986	601.1988	656.8494	711.2505	775.791	864.9497	871.4781	918.685	969.1348	987.2439	1121.5687	1159.8218	1244.5598	1345.3954	1377.4901	1420.4148	1607.3243	1677.0071	1760.6538	2233.0732	3212.9964	3227.421	3233.1098	3503.1718
O=C1C=COC=C1C#C	O=c1ccocc1C#C	
InChI=1S/C7H4O2/c1-2-6-5-9-4-3-7(6)8/h1,3-5H	InChI=1S/C7H4O2/c1-2-6-5-9-4-3-7(6)8/h1,3-5H
