16
gdb 22011	3.83158	1.12634	0.87521	3.3021	82.53	-0.1825	-0.0253	0.1572	1271.0923	0.124956	-434.037582	-434.02913	-434.028186	-434.07055	31.488	
C	 0.021133532	 1.474979347	-0.0227025999	-0.491397
C	-0.0581811642	-0.0219441999	 0.0148466027	 0.42335
C	-1.1869082936	-0.7473483574	-0.1500312991	-0.300678
C	-1.1349002894	-2.1915735198	-0.0922478105	 0.333575
C	 0.2023786244	-2.7350107313	 0.15097299	-0.05142
N	 1.2702767062	-2.0208449938	 0.3060381207	-0.192272
N	 1.1320506597	-0.681086793	 0.2370180124	-0.301271
N	-2.2196468876	-2.8819591303	-0.25107481	-0.267829
O	-1.9514516924	-4.2684998099	-0.1588897182	-0.406747
H	 0.6940058376	 1.8163614782	-0.8183307721	 0.140437
H	-0.9658899082	 1.9028041399	-0.2030060248	 0.148975
H	 0.4012944238	 1.875602659	 0.9245606568	 0.140425
H	-2.1367020511	-0.2588158952	-0.3261128324	 0.108552
H	 0.3379498071	-3.8063680793	 0.2103253283	 0.146214
H	 1.9904225022	-0.1722093044	 0.3643024432	 0.267365
H	-2.8260173664	-4.64550709	-0.2930532671	 0.30272
107.9282	137.2803	158.6725	221.4405	289.2121	333.9796	365.9003	382.9122	458.1598	489.9235	533.8421	575.405	635.5059	738.1449	749.6596	873.711	910.7579	943.5192	975.0686	996.2068	1058.6306	1065.7857	1123.1118	1208.5385	1298.0649	1350.1164	1377.1004	1413.3057	1429.2274	1471.9906	1476.4234	1508.7217	1630.4725	1659.9907	1708.4655	3028.0764	3079.3214	3142.3481	3214.9115	3231.8577	3659.8307	3835.7352
CC1=CC(C=NN1)=NO	Cc1cc(=NO)cn[nH]1	
InChI=1S/C5H7N3O/c1-4-2-5(8-9)3-6-7-4/h2-3,9H,1H3,(H,7,8)	InChI=1S/C5H7N3O/c1-4-2-5(8-9)3-6-7-4/h2-3,9H,1H3,(H,7,8)
