19
gdb 81476	3.43262	1.5666	1.49752	1.1935	73.16	-0.2362	0.0716	0.3077	949.9323	0.162423	-422.957962	-422.951342	-422.950398	-422.988453	28.674	
O	-0.0316896993	 1.3784772158	-0.0523385186	-0.457463
C	 0.0167367917	-0.0347100672	 0.0060028189	 0.177093
C	 0.0908639555	-0.6270984167	 1.4639398589	-0.10597
C	-1.4114689527	-0.2226413245	 1.5492771498	-0.233915
C	-1.4270581002	-0.6211716935	 0.0413752705	-0.070877
C	-1.2499873624	-2.1887571468	-0.0769348392	 0.06734
C	-1.2062328712	-2.8553408543	 1.3183264904	-0.22306
C	 0.1917413269	-2.1932646912	 1.2786965831	 0.071478
O	 0.1873302879	-2.4690702966	-0.1626623802	-0.289639
H	 0.8726864887	 1.7018101488	 0.0016706265	 0.281462
H	 0.7086056729	-0.4323957807	-0.7337767803	 0.089499
H	 0.8117494343	-0.2247234727	 2.1795641158	 0.054545
H	-2.0733422432	-0.7200266978	 2.2559246773	 0.087846
H	-1.5126298117	 0.8559955281	 1.659075898	 0.118061
H	-2.1838071868	-0.2114460431	-0.629705239	 0.066756
H	-1.8111154901	-2.6375520064	-0.8982432489	 0.079737
H	-1.9334541323	-2.6193461148	 2.0924118034	 0.100517
H	-1.1073172946	-3.9358424734	 1.2094438269	 0.108836
H	 1.0438348166	-2.6488505432	 1.7863083868	 0.077754
246.1757	265.7249	298.835	339.424	460.2132	495.9205	534.4094	537.8455	606.36	774.5933	778.2655	842.7597	857.2108	867.831	889.7835	898.6877	906.4804	932.3552	939.6583	1009.8503	1034.7738	1057.5112	1071.1555	1081.8195	1091.6499	1120.8103	1138.0187	1192.2692	1200.1797	1229.418	1244.6126	1247.1064	1275.2283	1289.7843	1297.8522	1311.6941	1324.3778	1346.896	1414.5308	1485.8073	1533.7308	3075.2094	3087.4223	3093.2874	3099.0279	3102.1709	3113.031	3122.3281	3146.8982	3160.884	3823.4936
OC1C2CC1C1CC2O1	O[C@H]1[C@H]2C[C@@H]1[C@@H]1C[C@H]2O1	
InChI=1S/C7H10O2/c8-7-3-1-4(7)6-2-5(3)9-6/h3-8H,1-2H2	InChI=1S/C7H10O2/c8-7-3-1-4(7)6-2-5(3)9-6/h3-8H,1-2H2/t3-,4+,5+,6-,7-
