18
gdb 66854	2.57373	2.11295	1.85812	0.4624	73.11	-0.2364	0.0595	0.2959	861.9361	0.149728	-401.899144	-401.892559	-401.891615	-401.929654	27.561	
C	-0.0860649185	 1.5114095798	 0.009907867	-0.514205
C	-0.0058691868	 0.0140911789	 0.0178383639	 0.311579
C	 1.0512267248	-0.7742900792	-0.8386120225	 0.04736
C	 0.2650826297	-1.9050364119	-1.4897700141	-0.242857
C	-0.9069832591	-2.0430688376	-0.536275965	-0.037177
C	-0.7013241141	-1.7586639058	 0.9083677926	-0.071987
C	 0.547447311	-0.8861618885	 1.1294009933	 0.054256
O	 1.7009250472	-1.27652659	 0.3662539898	-0.314629
N	-1.3408675833	-0.7274224551	-0.0180616969	-0.195615
H	 0.9017537748	 1.954254797	 0.172677998	 0.12626
H	-0.4715939186	 1.8716178592	-0.9506018122	 0.12689
H	-0.7608084402	 1.867284233	 0.7940828217	 0.131421
H	 1.7490202567	-0.2351028916	-1.4831054548	 0.079301
H	-0.0954369077	-1.6240461107	-2.4864762582	 0.106538
H	 0.8715338147	-2.8105123587	-1.5766651896	 0.119622
H	-1.7248575535	-2.710522016	-0.7921146179	 0.096294
H	-1.2803124762	-2.2509396998	 1.6831901961	 0.091572
H	 0.773002889	-0.5800251431	 2.1519980286	 0.085375
205.6145	222.1099	264.581	347.0204	420.6191	522.6437	594.7445	654.1709	709.6648	712.902	777.7016	815.0535	847.9671	877.455	896.0233	898.5723	927.0316	981.4145	990.5379	1010.3747	1044.87	1057.6415	1079.9776	1143.1009	1154.9365	1169.559	1176.0795	1213.5836	1216.4596	1269.4618	1316.2394	1324.9209	1346.8984	1372.0109	1406.7598	1414.7742	1471.7246	1481.7555	1491.1576	3031.9475	3039.9625	3087.9136	3099.0806	3102.1937	3104.3046	3112.344	3152.3871	3164.7485
CC12C3CC4C(C1O3)N24	C[C@@]12[C@@H]3C[C@H]4[C@@H]([C@H]1O3)N24	
InChI=1S/C7H9NO/c1-7-4-2-3-5(8(3)7)6(7)9-4/h3-6H,2H2,1H3	InChI=1S/C7H9NO/c1-7-4-2-3-5(8(3)7)6(7)9-4/h3-6H,2H2,1H3/t3-,4-,5-,6+,7+,8?/m0/s1
