16
gdb 128801	6.72924	0.81083	0.7303	4.3403	67.44	-0.2291	0.0179	0.247	1494.5217	0.125116	-471.221123	-471.212394	-471.21145	-471.256028	30.429	
C	-0.0499674029	 1.313199305	 0.0213338111	-0.229205
O	-0.0069467759	-0.0961065252	-0.0307109104	-0.248802
C	 0.7083130929	-0.5855414234	-1.1414829137	-0.168759
C	 0.6802920636	-2.0780484191	-1.0810981009	 0.356837
N	 1.2346763346	-2.9211344566	-1.9395420097	-0.41734
C	 0.903942064	-4.130611382	-1.40831993	 0.411984
O	 1.2736839239	-5.2871862661	-1.974473421	-0.410169
N	 0.1930018897	-4.1055097037	-0.2957982929	-0.287626
N	 0.0632426605	-2.7590067128	-0.1067091055	-0.220625
H	 0.9590900114	 1.7455992896	 0.0960140009	 0.115729
H	-0.5442278937	 1.7352432489	-0.8665430255	 0.115746
H	-0.6212244633	 1.5871365489	 0.9105894956	 0.136546
H	 0.2617769837	-0.2427339101	-2.0892427094	 0.124424
H	 1.7524237343	-0.2320255916	-1.1338859761	 0.124385
H	 1.7766078168	-5.0562757494	-2.7643559338	 0.309866
H	-0.4415768596	-2.3867342325	 0.6797406414	 0.287009
27.0249	67.024	131.5722	204.4886	219.4313	344.8212	350.177	366.3972	401.9315	517.1945	559.8013	691.859	716.8652	767.6226	798.0728	995.0678	1026.9554	1043.996	1079.5818	1146.5932	1166.8491	1184.4587	1217.2393	1228.6206	1234.2042	1301.4487	1373.0149	1442.5659	1476.9615	1484.8923	1495.4575	1504.3294	1520.6981	1590.2962	1637.7193	2967.1867	2984.1021	2991.7354	3032.2561	3126.4024	3684.1897	3818.4063
COCC1=NC(O)=NN1	COCc1nc(O)n[nH]1	
InChI=1S/C4H7N3O2/c1-9-2-3-5-4(8)7-6-3/h2H2,1H3,(H2,5,6,7,8)	InChI=1S/C4H7N3O2/c1-9-2-3-5-4(8)7-6-3/h2H2,1H3,(H2,5,6,7,8)
