17
gdb 62245	3.2955	0.73472	0.64129	5.3705	70.44	-0.2629	0.0064	0.2693	1667.9153	0.134788	-455.174582	-455.164574	-455.16363	-455.211094	34.198	
O	 0.4631120788	 1.50328719	 0.231535247	-0.412139
C	 0.0329405187	 0.1933569143	-0.1057891452	-0.020384
C	 0.5714188091	-0.2864896829	-1.4630269155	-0.202341
C	 0.1478567609	 0.6607269421	-2.5954641265	-0.171456
N	 0.6339919994	 0.2316085711	-3.8967474809	-0.272365
C	 0.037615429	-0.7767471069	-4.5857210274	 0.151274
O	-0.9246370909	-1.4008735035	-4.1895101288	-0.32292
C	 0.3801350572	-0.7661686632	 0.9613261941	 0.258257
N	 0.6949387351	-1.5036858299	 1.7933166809	-0.311217
H	 1.4079553324	 1.4706612537	 0.4221336165	 0.296038
H	-1.0604198658	 0.2568647921	-0.1556767884	 0.148878
H	 1.6649734604	-0.3580561696	-1.4141799772	 0.104585
H	 0.1856129125	-1.2885596276	-1.6718778207	 0.154638
H	-0.9455472915	 0.7010812846	-2.6407153419	 0.140397
H	 0.5130796889	 1.670917653	-2.4006763714	 0.124194
H	 1.4431423275	 0.6780342441	-4.2961353162	 0.252708
H	 0.5269919283	-0.9651250815	-5.5614840183	 0.081854
39.7197	53.8118	110.7796	112.9342	197.887	215.696	264.4102	290.1111	339.1087	379.0774	441.3165	495.2535	587.4796	593.8395	735.777	809.7893	891.8504	951.3592	1002.1327	1031.7917	1047.1473	1100.4438	1103.7751	1194.0979	1233.8166	1273.1497	1299.8432	1343.138	1359.2	1408.1409	1421.0254	1427.3031	1472.0068	1488.4885	1523.6267	1800.9252	2356.0648	2944.1073	3036.0182	3055.7335	3061.4162	3100.5236	3125.7306	3645.9009	3799.4446
OC(CCNC=O)C#N	O[C@@H](CCNC=O)C#N	
InChI=1S/C5H8N2O2/c6-3-5(9)1-2-7-4-8/h4-5,9H,1-2H2,(H,7,8)	InChI=1S/C5H8N2O2/c6-3-5(9)1-2-7-4-8/h4-5,9H,1-2H2,(H,7,8)/t5-/m0/s1
