19
gdb 97507	3.91732	0.67004	0.60332	3.4519	89.97	-0.2515	-0.0449	0.2066	1899.2668	0.157405	-385.876395	-385.866375	-385.86543	-385.913996	34.791	
C	-0.0562583587	 1.5716767188	 0.0179285858	-0.368915
C	 0.0183449757	 0.035553792	-0.0422252041	-0.324031
C	 0.7118786618	-0.4692565361	-1.2190012459	 0.156845
C	 1.287395364	-0.8866523756	-2.1955866383	-0.037662
C	 1.977518778	-1.3858226037	-3.3667130953	 0.223537
O	 2.1247383276	-2.5786249306	-3.5673395021	-0.329341
C	 2.4931661025	-0.3489247771	-4.3056149352	-0.105577
C	 3.7876217995	-0.6663088308	-5.0426130887	-0.248544
C	 2.4990585886	-0.7000568683	-5.7875676143	-0.248544
H	 0.9453170036	 2.0094278521	 0.0340461284	 0.13202
H	-0.5861023374	 1.9697296835	-0.8514725295	 0.132018
H	-0.5862280209	 1.8896416455	 0.9202063722	 0.121227
H	 0.5206708766	-0.3501988803	 0.8543514156	 0.143426
H	-0.9935443159	-0.3894470373	-0.021226448	 0.143426
H	 2.3062292148	 0.6814258581	-4.0289469854	 0.094245
H	 4.4726359862	 0.1569136597	-5.2089561534	 0.117481
H	 4.244051422	-1.6169106749	-4.7920666707	 0.140454
H	 2.0919421411	-1.6732740052	-6.036262573	 0.140454
H	 2.2695466007	 0.0992141903	-6.4826210282	 0.117481
14.8967	50.1209	62.0623	135.7524	180.6407	229.4962	260.899	269.9884	364.4661	399.9978	534.3523	567.888	724.4812	750.1432	778.579	800.4511	827.934	864.0403	903.5579	935.8258	1017.5796	1064.684	1083.0584	1093.4536	1098.416	1111.2964	1127.5741	1194.8062	1210.2856	1218.8046	1282.7424	1347.5184	1399.4597	1410.6106	1452.6577	1462.704	1483.4811	1495.5024	1504.4055	1736.4879	2330.1428	3022.8015	3047.1922	3050.8392	3121.8917	3126.1685	3140.9692	3142.6214	3186.9257	3228.9091	3243.4505
CCC#CC(=O)C1CC1	CCC#CC(=O)C1CC1	
InChI=1S/C8H10O/c1-2-3-4-8(9)7-5-6-7/h7H,2,5-6H2,1H3	InChI=1S/C8H10O/c1-2-3-4-8(9)7-5-6-7/h7H,2,5-6H2,1H3
