20
gdb 14126	3.67294	1.58664	1.34264	1.2408	74.72	-0.2451	0.0746	0.3197	1001.1591	0.176808	-348.977497	-348.969193	-348.968249	-349.009954	32.015	
C	 0.0466536687	 1.5437745513	-0.1161929426	-0.408581
C	-0.0740968991	 0.0238369374	 0.0194283757	 0.001935
O	 0.3383650668	-0.6405568494	-1.1722046569	-0.426232
C	 0.6575060195	-0.4967599701	 1.2355414847	 0.399405
C	 2.0950523989	-0.9418170149	 1.2152314668	-0.335233
C	 1.0299610607	-1.9297949615	 1.6171217552	-0.102076
C	 0.6095657167	-1.6813535055	 3.0695659421	-0.220364
C	 0.2313600093	-0.2121133809	 2.6863892425	-0.300058
H	 1.0982243399	 1.8378357945	-0.2227174293	 0.109449
H	-0.5040998629	 1.892729762	-0.9942354196	 0.12068
H	-0.3501991063	 2.0521728479	 0.7682945263	 0.122169
H	-1.1366556928	-0.235420534	 0.1218163916	 0.084385
H	 1.1896352631	-0.2704429184	-1.4294037737	 0.278526
H	 2.5163846637	-1.1167965356	 0.2307340006	 0.098605
H	 2.8069322708	-0.5653926267	 1.9478243424	 0.097669
H	 0.8701157659	-2.8396675867	 1.0514912652	 0.090739
H	-0.261723272	-2.2647583945	 3.3752990534	 0.102481
H	 1.3939776509	-1.808132908	 3.8234115918	 0.09393
H	 0.7678789172	 0.5928678109	 3.1997992739	 0.092016
H	-0.842358609	-0.0268765478	 2.7813919999	 0.100555
71.3569	158.4827	199.6772	249.0829	288.897	301.9744	326.6153	412.7242	476.2108	490.6704	667.6281	710.8769	786.1425	845.5064	859.3951	903.0057	927.5688	952.4676	969.949	1011.2542	1018.9369	1047.8551	1068.5168	1088.3571	1105.0361	1122.5196	1159.2403	1202.8326	1224.3655	1244.5587	1272.035	1287.0871	1307.331	1358.9528	1395.2142	1400.7107	1417.9685	1479.7724	1483.1318	1491.2048	1495.2377	1509.8929	3015.3534	3026.7175	3037.5064	3046.219	3086.0586	3095.6258	3098.535	3108.2753	3116.1952	3184.5151	3198.7445	3805.8711
CC(O)C12CC1CC2	C[C@@H](O)[C@]12C[C@H]1CC2	
InChI=1S/C7H12O/c1-5(8)7-3-2-6(7)4-7/h5-6,8H,2-4H2,1H3	InChI=1S/C7H12O/c1-5(8)7-3-2-6(7)4-7/h5-6,8H,2-4H2,1H3/t5-,6-,7+/m1/s1
