17
gdb 24596	5.05083	1.13382	0.95493	2.1315	76.35	-0.1957	0.0308	0.2265	1209.6698	0.138474	-418.019168	-418.011626	-418.010682	-418.051936	27.788	
C	-0.1659484774	 1.5050303698	 0.0785219495	-0.237435
C	 1.368347691	 1.5508962585	-0.1624369297	-0.158994
N	 1.4402136212	 0.1478074811	 0.2750446366	-0.165731
C	-0.023233445	-0.0300245803	 0.2695424798	-0.170969
C	 2.3513974521	-0.7410016325	-0.1988809911	 0.493227
N	 3.5030016024	-0.4872621004	-0.7498683758	-0.367537
C	 4.0327059876	-1.7543662857	-0.9882018166	-0.10564
C	 3.1666825687	-2.7018232537	-0.5759394032	-0.056714
O	 2.0576923554	-2.0558934474	-0.055535772	-0.198674
H	-0.4830731596	 2.0287653548	 0.9812091719	 0.119582
H	-0.788347044	 1.8227666085	-0.7576278118	 0.11746
H	 1.662400661	 1.6829701014	-1.2101217406	 0.122129
H	 1.9499529299	 2.2396232092	 0.4562464222	 0.120959
H	-0.4244113066	-0.4555423799	 1.1937150839	 0.12013
H	-0.382791191	-0.6248162918	-0.5790654091	 0.114646
H	 5.0017100141	-1.8821048212	-1.444701986	 0.117177
H	 3.1407562603	-3.7766289206	-0.564220508	 0.136383
83.6068	89.5023	159.9079	171.635	322.415	453.6048	510.4942	611.8799	687.9234	749.0606	765.6637	843.0866	861.5387	872.5629	925.1293	932.0425	940.8793	973.6884	1068.7975	1092.3569	1123.5095	1143.3699	1149.3695	1157.9988	1189.1054	1203.6874	1230.974	1269.2344	1295.4322	1304.2896	1348.089	1433.6705	1491.6463	1512.1549	1534.4645	1581.1006	1656.154	3026.1956	3037.5703	3080.8371	3087.4276	3094.4831	3148.6582	3259.6696	3308.3635
C1CN(C1)C1=NC=CO1	C1CN(C1)c1ncco1	
InChI=1S/C6H8N2O/c1-3-8(4-1)6-7-2-5-9-6/h2,5H,1,3-4H2	InChI=1S/C6H8N2O/c1-3-8(4-1)6-7-2-5-9-6/h2,5H,1,3-4H2
