17
gdb 63567	2.72375	1.43962	1.11152	4.1747	69.21	-0.2713	-0.0143	0.2571	1116.9489	0.133453	-458.975161	-458.966361	-458.965417	-459.008492	32.252	
C	-0.0663038076	 1.5352451752	-0.0514787685	-0.454398
C	-0.0708249405	 0.0260848706	 0.0306507511	 0.285854
C	-1.1936446522	-0.6947304126	-0.6790094891	-0.463736
O	 1.2301539371	-0.5908191864	-0.1114870353	-0.299178
C	 0.6208571635	-0.6354375582	 1.1514513243	 0.167731
C	 1.1936589489	-0.1363994369	 2.4760577969	-0.167167
O	 0.7156807043	-1.366424369	 3.1130129427	-0.247705
C	 0.2530982091	-1.8926646329	 1.9246628278	 0.420028
O	-0.2447205805	-2.9536153707	 1.7336652662	-0.33356
H	 0.8104338612	 1.9556766777	 0.4466825601	 0.130256
H	-0.050506367	 1.8547171664	-1.0987283757	 0.137747
H	-0.9681509672	 1.9491711316	 0.4112098422	 0.131448
H	-1.1515105581	-0.4852022921	-1.7530103236	 0.130737
H	-1.1222639327	-1.7726063573	-0.5243804237	 0.162638
H	-2.1640426203	-0.350453378	-0.3069287382	 0.127788
H	 2.2828143743	-0.0699983375	 2.516493443	 0.140156
H	 0.7267389177	 0.7421805701	 2.9258254098	 0.131361
124.8719	133.7173	152.2529	181.6583	212.8386	263.4019	314.0328	351.1077	420.7453	469.6085	532.3115	641.4395	686.9771	753.3192	788.2991	880.8929	939.6409	953.2312	957.9355	991.8925	1048.8361	1080.826	1126.3769	1146.5219	1153.2357	1192.5637	1257.8442	1322.0572	1410.6601	1420.7721	1465.9351	1475.1369	1483.2702	1497.7489	1508.8472	1529.3636	1937.7956	3038.0543	3043.0657	3072.0622	3102.6808	3107.4979	3126.9791	3135.5767	3145.2244
CC1(C)OC11COC1=O	CC1(C)O[C@]21COC2=O	
InChI=1S/C6H8O3/c1-5(2)6(9-5)3-8-4(6)7/h3H2,1-2H3	InChI=1S/C6H8O3/c1-5(2)6(9-5)3-8-4(6)7/h3H2,1-2H3/t6-/m1/s1
