23
gdb 101779	3.40432	0.7295	0.67444	3.4092	83.26	-0.244	0.0568	0.3008	1779.6479	0.204826	-421.661147	-421.649862	-421.648918	-421.698631	40.596	
C	-0.0052337762	 1.3926199961	 0.3682126246	-0.390671
C	-0.0316623291	-0.0649177816	-0.1030260755	-0.167786
C	-1.4349395801	-0.6929380674	-0.1655106795	 0.055022
C	-2.3468446705	-0.0078257491	-1.1899564818	-0.391242
C	-1.3095434845	-2.2013947711	-0.4505347021	-0.168239
N	-2.5772205156	-2.9185050111	-0.3786924997	-0.334708
C	-3.0158205802	-3.4227501593	 0.8230426986	 0.446129
N	-4.1454135131	-4.2328943686	 0.721676566	-0.566319
O	-2.4543278003	-3.2075819352	 1.8819092518	-0.392038
H	 1.0235517065	 1.7549040924	 0.4600294249	 0.110987
H	-0.5253045182	 2.0582717123	-0.327372221	 0.11566
H	-0.4827999004	 1.4966541867	 1.3488680014	 0.117731
H	 0.4403911886	-0.1376711413	-1.0935113047	 0.086324
H	 0.58911407	-0.6656161582	 0.5740857482	 0.098835
H	-1.8924031027	-0.6036327852	 0.8284565537	 0.095002
H	-2.5379140426	 1.0371193104	-0.930999767	 0.116136
H	-1.8959675078	-0.0253042252	-2.190845992	 0.102247
H	-3.3140055086	-0.5162098857	-1.2471667917	 0.106589
H	-0.8947134176	-2.3571154928	-1.4535299918	 0.090673
H	-0.6202132243	-2.6476718393	 0.2732402098	 0.126661
H	-2.9286724548	-3.3395706007	-1.2220827832	 0.240257
H	-4.8118664822	-4.0076352542	-0.0023496702	 0.243743
H	-4.5714324263	-4.3977315316	 1.6214743412	 0.259008
37.4446	58.0308	75.255	93.5789	214.5251	218.523	238.0168	275.4989	311.9115	327.7924	345.0223	411.3702	421.2352	473.4937	529.4029	574.9733	675.9752	775.3791	783.3195	822.8235	864.2951	912.6977	956.5084	978.87	1019.0327	1045.7091	1090.7865	1136.0699	1155.4496	1179.2268	1193.9231	1275.3758	1305.9475	1320.7323	1333.96	1379.3044	1385.8207	1395.451	1412.0242	1418.0268	1465.7422	1485.0593	1496.5718	1499.8741	1507.1126	1512.2603	1532.0498	1627.7439	1799.8783	3002.9005	3020.1978	3024.6543	3033.5345	3036.6195	3045.5553	3087.645	3093.3786	3099.2792	3104.5842	3113.3591	3569.4552	3646.1626	3681.9594
CCC(C)CNC(N)=O	CC[C@@H](C)CNC(=O)N	
InChI=1S/C6H14N2O/c1-3-5(2)4-8-6(7)9/h5H,3-4H2,1-2H3,(H3,7,8,9)	InChI=1S/C6H14N2O/c1-3-5(2)4-8-6(7)9/h5H,3-4H2,1-2H3,(H3,7,8,9)/t5-/m1/s1
