18
gdb 74177	2.49374	1.66328	1.08858	3.8662	82.67	-0.2305	-0.0254	0.2051	1120.7086	0.148736	-401.964042	-401.956141	-401.955197	-401.996435	30.76	
C	 0.0358101817	 1.4541170304	 0.0393358404	-0.4838
C	 0.0137841132	-0.045369315	-0.0054364422	 0.294352
C	 0.0991864918	-0.745875264	-1.1454305997	-0.211971
C	 0.0257258113	-2.2042274451	-1.213785933	 0.371409
N	 0.1358892599	-2.813471017	-2.3255436481	-0.526128
O	-0.2049813755	-2.9062104566	-0.0568077484	-0.265754
C	-0.1786308537	-2.2680524188	 1.1942758069	 0.114094
C	 1.0736492749	-1.6486919497	 1.7297376852	-0.324072
C	-0.0991124112	-0.769283596	 1.2821030744	-0.167631
H	 0.8652436681	 1.8138493092	 0.6607973978	 0.135428
H	 0.1360170326	 1.8857246075	-0.9591284962	 0.132523
H	-0.8849409611	 1.8430574231	 0.4923807868	 0.133279
H	 0.2104134089	-0.2614376329	-2.1080177496	 0.11293
H	 0.0432990455	-3.8207447083	-2.1798954556	 0.21702
H	-0.8262453678	-2.801036881	 1.8807127568	 0.113333
H	 1.2735303483	-1.738787245	 2.7919114238	 0.122655
H	 1.9492166149	-1.6457981674	 1.0901185721	 0.135296
H	-0.6688474217	-0.2735260933	 2.0623464987	 0.097037
93.5297	158.2697	196.3672	230.4328	293.7382	386.4891	447.4659	484.6806	531.1566	568.7866	681.8592	703.8293	757.374	814.484	846.9684	881.9585	898.0531	912.4372	980.275	1005.527	1036.9997	1048.0969	1062.9933	1089.9745	1107.5126	1126.7171	1174.8367	1183.9387	1248.9617	1297.1523	1344.1904	1405.9318	1411.7906	1433.6372	1472.8592	1477.2247	1486.3173	1690.3332	1730.2331	3021.2088	3069.5727	3123.6601	3134.1802	3150.2341	3178.3443	3208.6495	3229.9235	3468.4693
CC1=CC(=N)OC2CC12	C[C]1C=C([NH])O[C@H]2C[C@@H]12	
InChI=1S/C7H9NO/c1-4-2-7(8)9-6-3-5(4)6/h2,5-6,8H,3H2,1H3	InChI=1S/C7H9NO/c1-4-2-7(8)9-6-3-5(4)6/h2,5-6,8H,3H2,1H3/t5-,6-/m0/s1
