20
gdb 121811	3.54834	0.78949	0.75207	5.268	77.05	-0.2849	0.0196	0.3045	1600.0432	0.167659	-440.292835	-440.282111	-440.281167	-440.329012	38.016	
C	-0.098749549	 1.481661713	-0.2402314364	-0.389158
C	-0.0203766231	-0.021907358	-0.047203605	-0.037316
O	-1.342052851	-0.5396326476	 0.0187110526	-0.270349
C	-1.4012913475	-1.9413791188	 0.1628149825	-0.093377
C	-2.8983821582	-2.3121319559	 0.06526067	 0.196579
C	-3.6880392122	-1.8003121092	 1.2833127283	-0.41555
O	-3.427891101	-1.786172734	-1.1409943737	-0.455746
C	-3.0009399448	-3.7834476475	-0.0132512094	 0.280838
N	-3.0569443195	-4.9367250809	-0.0326742535	-0.333094
H	 0.907342878	 1.9078455874	-0.2889887596	 0.125704
H	-0.6222280447	 1.7254543099	-1.1691054829	 0.129277
H	-0.6336936491	 1.9500773266	 0.5905763792	 0.132054
H	 0.5235005795	-0.4971205083	-0.8787828794	 0.101043
H	 0.5193037959	-0.2694851793	 0.8801475832	 0.100279
H	-0.8473151288	-2.4405766363	-0.6454454058	 0.116149
H	-0.9822128838	-2.2663367689	 1.126400429	 0.110804
H	-3.5334608146	-0.7229115745	 1.3754631872	 0.135352
H	-4.751302604	-2.0007318458	 1.1396036433	 0.14355
H	-3.3551344453	-2.286593969	 2.2047973534	 0.128799
H	-3.0218323965	-0.9127574229	-1.229647803	 0.294162
56.7989	77.8076	101.0973	158.4019	183.4102	200.5854	244.519	252.4423	301.6149	366.9919	387.3427	414.3534	419.7967	503.0462	590.0144	593.5205	762.0795	821.8576	898.85	915.9384	952.6974	985.97	1041.6502	1128.7769	1144.9722	1152.3662	1165.9833	1195.7605	1204.2011	1280.3379	1299.2272	1362.3902	1398.7513	1407.0576	1417.666	1444.0118	1484.7893	1488.8315	1491.4987	1499.1539	1507.1878	1533.5627	2365.7441	2975.3705	2991.768	3007.0645	3033.8757	3047.5099	3052.473	3122.7772	3124.7805	3130.7479	3147.4066	3756.7606
CCOCC(C)(O)C#N	CCOC[C@@](C)(O)C#N	
InChI=1S/C6H11NO2/c1-3-9-5-6(2,8)4-7/h8H,3,5H2,1-2H3	InChI=1S/C6H11NO2/c1-3-9-5-6(2,8)4-7/h8H,3,5H2,1-2H3/t6-/m0/s1
