18
gdb 16867	3.32444	1.97337	1.51573	3.	70.63	-0.2349	-0.0109	0.224	880.3519	0.155961	-347.82677	-347.819731	-347.818787	-347.858335	27.387	
O	 0.031413503	-0.1053552383	-0.0031535722	-0.312534
C	-0.0024053623	 1.1015687799	 0.0588706779	 0.379805
C	-1.2949172487	 1.8980762994	 0.0855568123	-0.285307
C	-1.4090573231	 2.7210810884	 1.3882530569	-0.2361
C	-0.1343781877	 3.4974590267	 1.72089961	-0.022152
C	 0.950757972	 2.8459976814	 2.5465744458	-0.283886
C	 1.1890208021	 3.1135384513	 1.0840970157	-0.024393
C	 1.2593952319	 1.9566040249	 0.0967724858	-0.313566
H	-1.2835159138	 2.5879119144	-0.7688636599	 0.11209
H	-2.1385422743	 1.2144058968	-0.0313013709	 0.116719
H	-2.2495661258	 3.4150104162	 1.2918087742	 0.107359
H	-1.6642789812	 2.0463800075	 2.2133138538	 0.116315
H	-0.2803512659	 4.5593330433	 1.8912884877	 0.087113
H	 1.4827912482	 3.4437855163	 3.2783874632	 0.111382
H	 0.7910641094	 1.8143321998	 2.8492825483	 0.118717
H	 1.8661199519	 3.9316020284	 0.8568851295	 0.087009
H	 2.1186377541	 1.3056440013	 0.2836054744	 0.121074
H	 1.3760794703	 2.3625892323	-0.9188939425	 0.120357
62.7901	126.066	289.3397	368.7758	391.975	470.6598	486.7714	544.9087	682.4054	746.3	776.9264	803.0995	845.8796	860.5664	909.0913	942.1302	1000.9674	1006.9809	1062.6237	1075.5561	1109.1508	1125.206	1137.4068	1162.759	1221.1579	1226.5966	1240.6857	1251.6785	1319.2515	1329.3997	1364.8631	1381.0295	1413.9261	1461.5216	1474.2643	1491.0773	1503.5264	1819.3907	3008.2168	3024.7763	3038.8832	3078.6064	3084.9364	3112.7541	3119.3523	3142.5939	3154.9733	3207.2898
O=C1CCC2CC2C1	O=C1CC[C@H]2C[C@H]2C1	
InChI=1S/C7H10O/c8-7-2-1-5-3-6(5)4-7/h5-6H,1-4H2	InChI=1S/C7H10O/c8-7-2-1-5-3-6(5)4-7/h5-6H,1-4H2/t5-,6-/m0/s1
