19
gdb 53118	2.08968	1.24301	0.88413	1.4838	80.57	-0.2425	0.0469	0.2894	1368.9834	0.156941	-422.985562	-422.975419	-422.974475	-423.021833	36.132	
C	-0.1165440907	 1.4509961525	-0.0196724295	-0.499993
C	-0.0459729598	-0.0038094298	-0.0118868754	 0.056093
C	 0.0637330936	-1.2048490598	 0.0070969191	 0.104908
C	 0.1059806478	-2.6541291778	-0.0076743045	-0.28896
C	 0.2810385167	-3.3188662272	 1.3949794577	 0.14574
O	 0.996721243	-2.5458187163	 2.3221787203	-0.422111
C	-1.2601151289	-3.4315907546	 1.5207317095	-0.308545
C	-1.3488569852	-3.2733312548	-0.0217509664	 0.161835
O	-2.3858377821	-2.5354385603	-0.5898381325	-0.428926
H	 0.876678507	 1.8920367803	 0.1187076504	 0.153618
H	-0.5178370322	 1.8277068379	-0.9669335505	 0.148834
H	-0.7587458692	 1.8241669219	 0.7856172192	 0.148705
H	 0.786045607	-3.0111995994	-0.7860893813	 0.097707
H	 0.7378564595	-4.3104706461	 1.2649666994	 0.070509
H	 0.9983264802	-3.0134965702	 3.1635242067	 0.284943
H	-1.688443966	-4.3271602184	 1.9765510105	 0.094623
H	-1.6554547206	-2.5391689565	 2.0149084612	 0.111573
H	-1.3391340392	-4.2444487213	-0.5240460734	 0.090465
H	-2.209340031	-1.6049568999	-0.3926640805	 0.278983
30.3782	79.8252	83.0094	121.7547	222.365	239.3071	256.9629	334.8434	391.7014	414.1492	432.6331	435.3536	488.233	622.4237	647.7622	743.6632	775.464	883.3233	949.5274	974.3381	1050.5462	1054.0386	1055.2211	1070.1223	1120.1011	1163.6415	1170.9212	1198.1333	1219.602	1242.2413	1245.7304	1316.8366	1347.7675	1355.5856	1414.6165	1420.7639	1451.533	1477.9579	1478.4371	1479.6168	2357.2881	2992.7687	3027.798	3059.1393	3062.7226	3076.7633	3088.477	3090.0354	3122.0641	3735.0092	3816.75
CC#CC1C(O)CC1O	CC#C[C@H]1[C@@H](O)C[C@H]1O	
InChI=1S/C7H10O2/c1-2-3-5-6(8)4-7(5)9/h5-9H,4H2,1H3	InChI=1S/C7H10O2/c1-2-3-5-6(8)4-7(5)9/h5-9H,4H2,1H3/t5-,6-,7+
