16
gdb 49681	2.39063	1.59568	1.524	2.2025	69.99	-0.2484	-0.0564	0.192	963.2757	0.124117	-437.886522	-437.878759	-437.877814	-437.919561	28.631	
O	-0.5236477629	 0.4602374053	 0.2771911752	-0.270602
C	 0.0492576054	 1.3150106203	-0.3552741953	 0.150204
C	 1.3393261058	 1.9820840629	-0.0104455018	-0.089643
C	 1.54737746	 2.802922317	 1.2477792328	-0.173996
N	 2.3029068116	 1.5793562756	 1.0164693838	-0.117859
C	 1.8519084711	 0.558863849	 2.015805716	-0.164775
C	 0.7020257805	 1.1500347492	 2.8500631236	-0.340081
C	 0.5928671055	 2.6099830543	 2.4039841404	 0.415947
O	-0.0631306121	 3.4805737656	 2.9122079193	-0.307815
H	-0.3601729803	 1.6732210799	-1.3255712719	 0.094813
H	 1.8217115343	 2.3962170471	-0.8950098091	 0.118528
H	 2.0400895005	 3.7659649923	 1.153689798	 0.125307
H	 1.5736692346	-0.3601702532	 1.5011368168	 0.138297
H	 2.7282716356	 0.3530524485	 2.6356346686	 0.121688
H	-0.2534525232	 0.6545170911	 2.6672646841	 0.165623
H	 0.8968880937	 1.1248180052	 3.9256497495	 0.134364
41.8529	124.01	184.9036	220.1673	314.6252	352.3314	443.498	553.4935	615.4723	672.3392	721.7221	742.4203	796.4549	818.1535	859.474	932.5567	949.2375	992.9283	1034.9576	1062.3117	1073.0851	1101.5556	1178.237	1198.47	1257.8619	1260.9062	1287.1863	1318.9434	1361.7293	1395.5809	1433.3318	1440.7443	1498.3505	1807.7875	1845.5124	2890.3315	3070.0293	3077.7183	3119.3918	3125.2389	3142.2762	3163.9249
O=CC1C2N1CCC2=O	O=C[C@H]1[C@@H]2N1CCC2=O	
InChI=1S/C6H7NO2/c8-3-4-6-5(9)1-2-7(4)6/h3-4,6H,1-2H2	InChI=1S/C6H7NO2/c8-3-4-6-5(9)1-2-7(4)6/h3-4,6H,1-2H2/t4-,6-,7?/m0/s1
