17
gdb 34992	2.71806	1.6758	1.44213	3.3031	75.22	-0.2501	0.0047	0.2548	958.9348	0.138116	-380.836989	-380.829858	-380.828914	-380.868524	28.291	
N	-0.5584980159	-1.1534153341	-0.1632129246	-0.350277
C	-0.2716726803	-0.0355592719	-0.0730490875	 0.299358
C	-0.0296416047	 1.3818971315	 0.0073038797	-0.153053
C	 0.5219792136	 2.0446122439	 1.2371492537	-0.032852
C	 1.2999780599	 1.2490676828	 2.2910847806	-0.279628
C	 2.6576056887	 0.9462799898	 1.6392436529	-0.03087
C	 2.6980772797	-0.0738757795	 0.5306434119	-0.315899
C	 2.5501727014	 1.3925244239	 0.1979297718	-0.003765
N	 1.2758391333	 2.0800509575	-0.0181780719	-0.116304
H	-0.7832295341	 1.9303350783	-0.5552198512	 0.141766
H	 0.0432211731	 2.970323087	 1.5486381683	 0.107823
H	 1.4326173419	 1.8667896057	 3.1829533981	 0.118455
H	 0.7697596603	 0.3430426538	 2.6026847742	 0.13326
H	 3.5528844801	 1.1259586842	 2.2231264576	 0.094657
H	 3.6668908537	-0.5015372811	 0.2924549487	 0.117743
H	 1.8776334212	-0.7649395827	 0.4077273617	 0.162173
H	 3.3659664381	 1.8870525208	-0.3155794638	 0.107414
100.0139	167.3814	229.6016	310.1344	380.6089	433.8319	580.4473	624.0623	651.6317	685.7418	738.0904	780.5257	804.664	820.4997	851.448	900.4755	944.0056	986.7993	1007.954	1048.9712	1067.0417	1075.1302	1104.0109	1112.0663	1126.0777	1138.4732	1194.6837	1223.7368	1295.929	1299.3965	1323.8227	1360.2087	1379.3121	1390.9	1482.2269	1495.2186	2341.3689	3054.6513	3098.7418	3121.4208	3132.781	3147.7216	3172.8468	3183.3329	3257.9734
N#CC1C2CC3CC3N12	N#C[C@H]1[C@H]2C[C@H]3C[C@H]3N12	
InChI=1S/C7H8N2/c8-3-7-6-2-4-1-5(4)9(6)7/h4-7H,1-2H2	InChI=1S/C7H8N2/c8-3-7-6-2-4-1-5(4)9(6)7/h4-7H,1-2H2/t4-,5-,6-,7+,9?/m1/s1
