16
gdb 94252	2.01866	1.51458	1.26233	1.8246	69.99	-0.2761	-0.0641	0.212	1081.4754	0.122122	-437.884116	-437.875112	-437.874168	-437.918457	31.555	
C	-0.3391529289	 1.4592208059	 0.0476878443	-0.423852
C	 0.1870898902	 0.045752685	-0.0629442698	 0.133565
O	 1.4468788865	-0.0319465307	-0.7435547281	-0.27525
C	 2.0458141342	-0.8239426268	 0.2944241286	-0.104868
C	 0.8070898656	-0.6749601075	 1.2151365743	-0.029913
C	 1.0069591546	 0.2590106274	 2.4089398359	 0.110997
O	 1.9638087986	 0.9742120468	 2.5288244342	-0.231114
C	 0.1223327011	-1.8851398777	 1.6293386219	 0.226944
N	-0.4326195847	-2.837971129	 1.9775572613	-0.324882
H	 0.3812307731	 2.1161318403	 0.5404882763	 0.148919
H	-0.5195461024	 1.8445355247	-0.9604501298	 0.145846
H	-1.2875203451	 1.480986414	 0.5945974192	 0.130457
H	-0.5575435523	-0.6122268079	-0.5292221188	 0.106014
H	 2.2466602776	-1.8522641306	-0.0224377707	 0.127123
H	 2.9466208268	-0.357595812	 0.7014666178	 0.144635
H	 0.182003155	 0.2476825781	 3.1501386536	 0.115378
60.8464	84.5824	145.5841	165.9241	212.4559	253.651	285.4668	338.8231	457.1696	507.9238	538.4604	556.2833	651.2748	792.0574	860.589	897.749	918.7402	1033.3737	1038.8715	1059.1554	1108.3102	1128.5399	1168.5146	1187.4867	1220.0571	1293.9384	1351.3253	1381.8238	1408.4309	1423.0085	1480.7761	1496.9911	1512.6871	1830.4023	2352.235	2928.5282	3021.515	3043.0173	3047.2143	3112.0895	3114.3583	3134.9303
CC1OCC1(C=O)C#N	C[C@H]1OC[C@]1(C=O)C#N	
InChI=1S/C6H7NO2/c1-5-6(2-7,3-8)4-9-5/h3,5H,4H2,1H3	InChI=1S/C6H7NO2/c1-5-6(2-7,3-8)4-9-5/h3,5H,4H2,1H3/t5-,6-/m1/s1
