20
gdb 50599	3.24506	1.28895	1.0508	4.1389	80.19	-0.2351	0.0291	0.2642	1177.7407	0.173571	-403.179481	-403.171525	-403.17058	-403.212729	30.386	
O	 0.148640943	-0.0799012654	 0.0446271304	-0.344038
C	 0.1422916739	 1.1329537476	 0.1132909414	 0.135342
N	 1.2266087317	 1.9323023648	-0.0540089312	-0.027991
C	 2.5781183712	 1.399582412	-0.2274782725	-0.180176
C	 3.4602344193	 2.4215976928	 0.5130973998	-0.232423
C	 2.7200396117	 3.7533716111	 0.3371166415	-0.010857
C	 2.7765680007	 4.4219874353	-1.0704550715	-0.234295
C	 1.2468886155	 4.2000566141	-1.2399862514	-0.226873
C	 1.2208405984	 3.379568901	 0.0866524206	-0.001066
H	-0.7725373056	 1.7205624154	 0.3310996566	 0.066341
H	 2.6182881785	 0.3873226616	 0.1772022846	 0.142406
H	 2.8399347559	 1.3419308357	-1.29260986	 0.112015
H	 3.5131778311	 2.1600454782	 1.575097504	 0.110958
H	 4.48185134	 2.4503980741	 0.1237608199	 0.106383
H	 2.8957069266	 4.4473183473	 1.160401636	 0.076384
H	 3.1053596478	 5.4631120596	-1.0773169922	 0.104818
H	 3.3890357618	 3.8701899655	-1.7891762465	 0.103269
H	 0.6636384668	 5.1219209933	-1.1726788004	 0.106259
H	 0.9271717517	 3.6505770432	-2.1282831148	 0.10855
H	 0.47123773	 3.6860888928	 0.8198518957	 0.084995
44.3075	105.1442	191.6259	242.1999	320.8997	344.9955	385.4391	503.5568	616.634	681.0983	733.549	762.7625	823.0971	852.0108	881.3092	913.1441	954.3107	960.6519	975.0322	991.4449	1032.694	1063.4853	1072.359	1142.9609	1178.2588	1188.3435	1205.583	1235.3153	1244.1446	1257.6072	1271.6831	1293.681	1314.5078	1321.3508	1339.7912	1370.896	1420.9699	1444.048	1472.2367	1489.1655	1492.6147	1523.3973	1788.041	2926.2364	3014.3334	3049.3925	3059.1737	3063.6916	3077.6126	3094.8705	3098.7646	3108.451	3123.9204	3126.0111
O=CN1CCC2CCC12	O=CN1CC[C@H]2CC[C@@H]12	
InChI=1S/C7H11NO/c9-5-8-4-3-6-1-2-7(6)8/h5-7H,1-4H2	InChI=1S/C7H11NO/c9-5-8-4-3-6-1-2-7(6)8/h5-7H,1-4H2/t6-,7-/m1/s1
