17
gdb 36317	3.34871	1.27604	1.11678	2.7758	77.67	-0.2088	0.02	0.2288	1116.5628	0.136398	-380.817823	-380.809813	-380.808869	-380.851102	30.37	
C	 0.1807733245	-1.1701280961	-0.2447537942	-0.456847
C	 0.097157507	 0.0213206152	-0.1136435927	 0.327832
C	 0.0113092412	 1.4785903196	 0.0440537727	-0.343108
N	 1.2827812989	 2.1686941672	-0.0112656705	-0.016595
C	 2.1090749969	 2.3945535799	 1.0702438575	 0.049189
N	 3.3130670379	 2.75743085	 0.8153653255	-0.27258
C	 3.4522641577	 2.683327216	-0.6226065804	 0.000281
C	 3.2856592698	 1.3260915345	-1.2714707649	-0.305354
C	 2.0981758808	 2.2543578133	-1.1948644801	-0.036416
H	 0.2532501635	-2.2236765526	-0.3582001397	 0.205315
H	-0.6482917099	 1.8882745254	-0.7319065098	 0.142977
H	-0.4605800043	 1.7180380244	 1.0045604604	 0.145545
H	 1.7049270008	 2.2898581699	 2.0727083485	 0.125083
H	 4.0972205439	 3.4197914852	-1.0866328795	 0.097456
H	 3.7324701579	 1.2041369867	-2.2517929719	 0.115239
H	 3.3008911981	 0.4451907786	-0.6391433612	 0.124099
H	 1.6219371951	 2.6548487428	-2.0834368996	 0.097884
51.4437	66.2937	202.3088	291.2144	336.1169	350.8884	415.453	471.1713	626.6666	628.2934	664.7526	699.2686	737.4166	768.0924	819.0574	896.9966	925.4457	933.7281	947.1203	980.7195	996.8476	1044.7525	1072.9312	1100.3243	1114.7804	1187.7337	1208.1498	1242.428	1299.0268	1342.1927	1363.9072	1380.8216	1421.4245	1460.745	1466.5132	1646.6571	2235.5714	3020.006	3059.0416	3133.8018	3159.7924	3181.2964	3188.5975	3228.0502	3504.0567
C#CCN1C=NC2CC12	C#CCN1C=N[C@H]2C[C@@H]12	
InChI=1S/C7H8N2/c1-2-3-9-5-8-6-4-7(6)9/h1,5-7H,3-4H2	InChI=1S/C7H8N2/c1-2-3-9-5-8-6-4-7(6)9/h1,5-7H,3-4H2/t6-,7+/m0/s1
