14
gdb 130646	5.07404	1.34451	1.07005	2.1164	69.32	-0.2247	-0.0155	0.2093	1029.5713	0.104484	-432.920711	-432.91405	-432.913106	-432.95194	25.518	
O	-0.0495208438	 0.0178021379	 0.0053214938	-0.345539
C	-0.0403523732	 1.2207087595	 0.0106422649	 0.408786
C	-1.2682467882	 2.1704964191	 0.0322890593	-0.308371
N	-0.6283217763	 3.4620941679	 0.0297491373	 0.026468
N	-1.0884427091	 4.7338696502	 0.0423058186	-0.290702
C	 0.0294186418	 5.4560047705	 0.0304274523	 0.022939
C	 1.2155879479	 4.6684409561	 0.0103444942	-0.38392
C	 0.7205470333	 3.3851238409	 0.0108502242	 0.492391
N	 1.0803239615	 2.0413757644	-0.0006365828	-0.457804
H	-1.8931292458	 2.0008201803	-0.8497127322	 0.165164
H	-1.8685377542	 1.9921352599	 0.9295276247	 0.165182
H	-0.0369862223	 6.5341711391	 0.0366002776	 0.117692
H	 2.2396562176	 4.9987585175	-0.0020701675	 0.110389
H	 2.0182929607	 1.6779398567	-0.0150020943	 0.277325
103.1365	161.1795	293.3691	353.3337	431.4148	545.1227	562.2476	578.3632	647.9844	697.6683	753.6897	758.4156	846.748	856.0884	879.2095	954.6338	1004.6017	1049.8829	1121.3578	1181.8629	1204.6238	1259.778	1269.6353	1299.3629	1349.6044	1368.3337	1453.5859	1481.0642	1526.5291	1637.6985	1862.1876	3060.2655	3103.6482	3247.4064	3285.3247	3673.9292
O=C1CN2N=CC=C2N1	O=C1Cn2nccc2N1	
InChI=1S/C5H5N3O/c9-5-3-8-4(7-5)1-2-6-8/h1-2H,3H2,(H,7,9)	InChI=1S/C5H5N3O/c9-5-3-8-4(7-5)1-2-6-8/h1-2H,3H2,(H,7,9)
