18
gdb 109131	4.0635	0.99663	0.88042	4.6415	76.38	-0.2198	0.0029	0.2227	1341.0876	0.148624	-439.143055	-439.134354	-439.13341	-439.177014	31.839	
C	 0.0241760784	 1.6016984876	 0.131460674	-0.371005
C	 0.0056699425	 0.0747290593	-0.0633936654	-0.287122
C	-1.3727161908	-0.524349511	-0.056801037	 0.236731
C	-1.9846679181	-1.0237879481	-1.1301801872	-0.082222
N	-3.2813405322	-1.5395580532	-1.0293745873	-0.38275
C	-4.1484293773	-1.1914351128	-0.0076674394	 0.470246
O	-5.3319064938	-1.4053232087	-0.0440201813	-0.381648
O	-3.5758506307	-0.548512439	 1.0343256679	-0.240308
C	-2.1482011005	-0.6175805599	 1.2299804571	-0.169975
H	 1.0516420692	 1.9783970562	 0.1360643168	 0.117525
H	-0.5218548005	 2.1022275173	-0.6736130629	 0.124093
H	-0.4389898999	 1.8946079591	 1.0791044181	 0.121742
H	 0.4961669314	-0.1756387965	-1.0108746783	 0.10583
H	 0.6132308131	-0.3908783133	 0.7259799357	 0.105099
H	-1.5412031662	-1.0590847493	-2.1186766324	 0.116164
H	-3.7448026159	-1.901507161	-1.8465009426	 0.266215
H	-1.9183362551	-1.5541632289	 1.7623769376	 0.120784
H	-1.9209501037	 0.2079163721	 1.9091134866	 0.1306
66.2184	82.1294	148.2569	194.5762	206.7958	315.9891	379.8496	443.8837	469.703	516.7777	552.3224	606.8709	746.3709	769.5975	789.2427	836.6013	881.2934	932.0686	966.3257	1027.5785	1039.5943	1088.6571	1102.1862	1154.394	1226.0537	1240.8926	1266.0207	1286.1514	1358.08	1394.0761	1408.5374	1432.771	1460.4227	1480.6725	1494.9259	1503.6726	1507.0644	1755.0192	1854.6527	2978.5888	3003.8949	3038.4943	3059.499	3091.801	3107.7419	3114.8627	3197.6832	3659.3368
CCC1=CNC(=O)OC1	CCC1=CNC(=O)OC1	
InChI=1S/C6H9NO2/c1-2-5-3-7-6(8)9-4-5/h3H,2,4H2,1H3,(H,7,8)	InChI=1S/C6H9NO2/c1-2-5-3-7-6(8)9-4-5/h3H,2,4H2,1H3,(H,7,8)
