17
gdb 40332	4.44678	1.28968	1.26267	0.7881	74.87	-0.2102	0.0642	0.2744	1037.4976	0.136888	-380.709833	-380.702908	-380.701964	-380.741583	27.434	
C	 1.0797323849	 1.0360244634	 0.0951771209	-0.239293
N	 0.3863084698	 0.133776454	-0.8393724254	-0.316222
C	-0.2966774933	 0.56357317	 0.3955107577	-0.207046
C	-0.5643866505	-0.4894263098	 1.3919113199	 0.457525
C	 0.2953313204	-1.6545132344	 1.9480291886	-0.177293
C	-0.9917558441	-2.3558047267	 2.4026311512	-0.106415
C	-0.3012414941	-1.3627388911	 3.2999717078	-0.00948
N	-1.1310689969	-0.1957783224	 2.7629335781	-0.233988
C	-1.8125175778	-1.1730736308	 1.8353816858	-0.122371
H	 1.927094877	 0.5919345837	 0.6098847219	 0.120884
H	 1.2106933148	 2.0803685786	-0.1751270896	 0.114978
H	 0.0298472582	 0.6569496521	-1.6343952996	 0.2348
H	-1.0954857285	 1.2989160094	 0.3142969186	 0.090721
H	 1.2402336774	-2.0871581971	 1.6540223811	 0.102809
H	-1.1857626604	-3.4118657482	 2.5209120407	 0.097897
H	 0.0909132321	-1.4285575296	 4.3070599141	 0.099216
H	-2.8472072089	-1.056662831	 1.5335999281	 0.093277
70.978	157.3019	158.1661	379.3317	422.1619	592.6494	673.6156	739.3204	771.2751	789.3183	815.8627	844.6194	868.8732	874.6948	887.5808	898.7649	928.1288	946.3668	970.0069	992.9089	999.0764	1006.3408	1032.9822	1057.5186	1075.5228	1114.664	1136.7866	1175.2332	1193.4228	1236.4364	1251.8416	1278.4997	1288.9183	1343.2872	1359.6673	1485.6014	1518.6231	3109.9881	3123.3926	3174.8258	3187.8654	3195.5521	3218.8063	3230.9967	3509.1169
C1NC1C12C3C4C3N1C24	C1N[C@H]1[C@@]12[C@@H]3[C@H]4[C@@H]3N1[C@@H]24	
InChI=1S/C7H8N2/c1-2(8-1)7-4-3-5(4)9(7)6(3)7/h2-6,8H,1H2	InChI=1S/C7H8N2/c1-2(8-1)7-4-3-5(4)9(7)6(3)7/h2-6,8H,1H2/t2-,3+,4-,5+,6-,7+,9?/m1/s1
