15
gdb 132057	2.31826	1.86977	1.03603	4.9993	76.02	-0.1811	-0.0123	0.1688	1067.9471	0.114248	-458.128201	-458.120451	-458.119507	-458.160095	30.516	
N	-0.0042842139	 1.3993162211	 0.154869466	-0.588777
C	 0.0191310236	 0.0165821853	 0.05531343	 0.220488
C	-1.1366193658	-0.709315849	 0.0381252172	 0.148309
F	-2.3069998902	-0.0527424847	 0.0515778586	-0.082462
C	-1.2000102485	-2.1508377742	 0.0013991043	 0.291692
N	-2.3107677386	-2.7972528978	-0.0146075756	-0.56857
N	 0.0847989417	-2.7319623182	-0.0236211681	-0.39853
C	 1.2612638257	-2.0363993006	-0.0139660169	 0.035469
C	 1.2747137418	-0.6855422768	 0.0257836757	-0.241177
H	 0.763987954	 1.8763507792	-0.292744451	 0.251627
H	-0.9000908054	 1.8126505912	-0.0604964742	 0.261079
H	-2.154942424	-3.8050396502	-0.0496360763	 0.18927
H	 0.1134364733	-3.739040799	-0.0522092201	 0.25095
H	 2.1625069874	-2.6358011193	-0.0364567949	 0.129558
H	 2.208797769	-0.1407512669	 0.0503606752	 0.101074
128.2757	189.345	277.5668	297.61	319.3249	353.575	491.6183	499.2637	518.7841	534.8526	551.9284	601.7595	669.3864	699.0475	722.2941	739.6117	750.8224	859.0149	900.1761	1004.0248	1061.9726	1138.4123	1197.6124	1242.5831	1266.5171	1329.8493	1390.7689	1459.6752	1497.5177	1617.5369	1645.2007	1690.8926	1727.0475	3208.3632	3227.3132	3466.2301	3567.5545	3633.4822	3672.3974
NC1=C(F)C(=N)NC=C1	N[C@@H]1C(=C([NH])NC=C1)F	
InChI=1S/C5H6FN3/c6-4-3(7)1-2-9-5(4)8/h1-2H,(H4,7,8,9)	InChI=1S/C5H7FN3/c6-4-3(7)1-2-9-5(4)8/h1-3,8-9H,7H2/t3-/m0/s1
