16
gdb 125935	4.50022	1.31152	1.06679	2.061	70.45	-0.2233	-0.0029	0.2204	1093.7969	0.127057	-434.067186	-434.059836	-434.058892	-434.099377	27.81	
C	 0.221292108	 1.5007042317	 0.1011579039	-0.396697
C	 0.0486048417	 0.0002360152	-0.021292496	 0.121246
C	 0.7308890782	-0.6413745754	-1.2906710643	-0.39301
C	 1.4383094241	-1.7902677519	-0.6510895206	 0.246413
N	 2.1710170681	-2.8565040726	-0.9399005663	-0.304158
N	 2.4649567485	-3.3300108812	 0.2761498577	-0.109965
N	 1.9729601707	-2.6577041602	 1.3437479204	-0.336472
C	 1.3300034099	-1.6816309307	 0.7324246822	 0.407703
O	 0.6253790728	-0.6306010584	 1.1828945863	-0.281896
H	 1.282879281	 1.7660341634	 0.1076219866	 0.131524
H	-0.2576259697	 2.0036540299	-0.7450974354	 0.124308
H	-0.234038944	 1.8683389349	 1.0243374473	 0.136628
H	-1.0146323418	-0.2640154982	-0.0091880432	 0.10257
H	-0.0172521223	-0.9239467309	-2.0359650638	 0.132468
H	 1.4210342746	 0.0664910964	-1.7647595661	 0.128168
H	 2.9950278602	-4.175725522	 0.3972466414	 0.291171
50.544	225.5932	246.7057	281.5672	324.8595	357.1607	437.9775	501.0218	606.2865	680.8913	729.6314	750.3992	780.6325	837.948	898.1393	932.0078	978.7376	1052.7562	1098.0931	1126.9257	1153.1535	1167.2466	1201.3491	1220.6651	1274.2513	1346.1035	1374.1142	1411.4221	1445.9586	1462.2011	1484.2449	1493.831	1498.9631	1567.5202	1625.9202	3035.598	3041.9578	3043.1307	3091.3856	3115.6626	3126.031	3692.9725
CC1CC2=NNN=C2O1	C[C@H]1Cc2n[nH]nc2O1	
InChI=1S/C5H7N3O/c1-3-2-4-5(9-3)7-8-6-4/h3H,2H2,1H3,(H,6,7,8)	InChI=1S/C5H7N3O/c1-3-2-4-5(9-3)7-8-6-4/h3H,2H2,1H3,(H,6,7,8)/t3-/m0/s1
