14
gdb 44335	3.41958	1.99735	1.60563	3.7494	63.8	-0.2336	-0.0216	0.212	809.1996	0.10407	-432.870289	-432.864163	-432.863219	-432.90072	24.558	
O	 0.1555218719	 0.1174475714	 0.4491206181	-0.348347
C	 0.0922356258	 1.2246392731	-0.0015642338	 0.406325
N	-0.9637716924	 2.1062911144	 0.0325960022	-0.309727
C	-0.7022575259	 3.3136923783	-0.6793626099	-0.022537
C	 0.5280103066	 4.206048405	-0.3280120533	-0.040976
N	 1.3741556448	 3.8529623962	 0.7835680997	-0.186465
C	 1.7312972528	 2.6477302898	 0.5890572461	 0.006077
N	 1.2274601195	 1.9858506822	-0.6075243423	-0.207482
C	 0.6099521134	 3.1041063677	-1.3559568139	-0.070887
H	-1.820084212	 1.8861824608	 0.512459783	 0.269266
H	-1.5387706452	 3.785210179	-1.1790585574	 0.124659
H	 0.4602273548	 5.2541895379	-0.5893040492	 0.113363
H	 2.3150302716	 2.0562931749	 1.2848774714	 0.155455
H	 0.8166171144	 3.1858069392	-2.4158698407	 0.111275
115.7307	290.2291	330.282	383.0614	496.3792	622.2096	638.5457	730.5775	742.05	775.5229	789.5001	812.9284	851.8209	883.3007	909.8819	948.9735	1003.778	1011.2561	1050.3583	1060.1439	1086.7049	1103.1497	1145.7207	1181.042	1267.4246	1318.7924	1327.8374	1375.3297	1418.4732	1656.5087	1882.1264	3180.5381	3196.6038	3206.7607	3220.4828	3667.2705
O=C1NC2C3N=CN1C23	O=C1N[C@H]2[C@H]3[N][CH]N1[C@@H]23	
InChI=1S/C5H5N3O/c9-5-7-3-2-4(3)8(5)1-6-2/h1-4H,(H,7,9)	InChI=1S/C5H5N3O/c9-5-7-3-2-4(3)8(5)1-6-2/h1-4H,(H,7,9)/t2-,3+,4-/m1/s1
