17
gdb 54279	2.15032	1.41616	1.11931	1.973	73.66	-0.249	-0.0265	0.2226	1164.1754	0.131531	-421.788688	-421.778993	-421.778049	-421.82391	34.622	
C	-1.0253364482	 0.9946570893	 0.4440419563	-0.48221
C	 0.1441434792	 0.0926719709	 0.1211868385	 0.335136
O	 1.0468390287	-0.1262126846	 0.8959983002	-0.304899
C	 0.1718735221	-0.5452898146	-1.2567143415	 0.302197
C	 1.5598315462	-0.7744366364	-1.8406948709	-0.431125
C	 2.2327439735	 0.4755468655	-2.1777571914	 0.316395
C	 2.7721535206	 1.5125741893	-2.4538715327	-0.445792
C	-0.9442635978	-1.440843384	-1.6263470555	-0.226201
O	-0.8465356885	-0.1288559485	-2.1676849275	-0.253602
H	-0.9615451345	 1.893766166	-0.1790415271	 0.162088
H	-1.9839679009	 0.5253672471	 0.2060701736	 0.142068
H	-0.9870500658	 1.2710242247	 1.497989618	 0.141301
H	 2.1480191158	-1.3234193237	-1.0975582883	 0.159134
H	 1.4725314211	-1.40450814	-2.7322857879	 0.133242
H	 3.2569477648	 2.4253517148	-2.6972033972	 0.199786
H	-0.749294832	-2.2566095528	-2.32101028	 0.128312
H	-1.7667419642	-1.6074984731	-0.9324328966	 0.124169
55.6049	61.286	116.7456	124.0845	229.4636	270.0487	309.1118	332.5388	350.6107	441.8824	503.7369	538.1841	610.6705	620.1164	651.6942	701.0404	814.9869	894.9047	928.801	938.2999	984.1587	990.2646	1047.7723	1121.1879	1134.2365	1167.7632	1227.0674	1305.3412	1327.8479	1386.9233	1390.5128	1445.9766	1451.7798	1467.5212	1527.0157	1806.1376	2244.0503	3044.7236	3047.1141	3085.5759	3088.958	3109.8118	3159.0428	3173.8281	3507.0309
CC(=O)C1(CC#C)CO1	CC(=O)[C@@]1(CC#C)CO1	
InChI=1S/C7H8O2/c1-3-4-7(5-9-7)6(2)8/h1H,4-5H2,2H3	InChI=1S/C7H8O2/c1-3-4-7(5-9-7)6(2)8/h1H,4-5H2,2H3/t7-/m1/s1
