17
gdb 26761	3.52625	1.11112	0.85385	1.4635	90.48	-0.2035	-0.0138	0.1897	1337.0209	0.133832	-384.706509	-384.697258	-384.696313	-384.740699	33.553	
C	 0.1759469529	 1.4420839156	-0.0023073143	-0.504065
C	-0.0512005858	-0.0272207381	-0.004703423	 0.251792
C	-1.1729065913	-0.8100269644	 0.0444542601	 0.204728
C	-2.6028344821	-0.3694715788	 0.1204109433	-0.508874
C	-0.7032829743	-2.1612762084	 0.0081483541	-0.396
C	 0.6604181262	-2.1114746717	-0.0600052994	 0.224102
O	 1.0670396639	-0.8016397472	-0.0682498312	-0.21177
C	 1.6465324867	-3.1102021457	-0.1190523346	 0.246774
C	 2.4832078487	-3.9760308839	-0.1691981048	-0.423161
H	 0.787375735	 1.7492556663	 0.8537818261	 0.142566
H	 0.69876688	 1.7658573604	-0.9094609339	 0.142563
H	-0.7756086978	 1.9745370992	 0.0504902066	 0.135032
H	-3.1800892716	-0.7357747045	-0.7360963804	 0.132781
H	-3.0914639486	-0.7512308939	 1.0240148624	 0.132779
H	-2.6900144043	 0.7199873149	 0.1343478144	 0.124535
H	-1.2998198159	-3.060169484	 0.0298546081	 0.114629
H	 3.2201021483	-4.7389862158	-0.2133868335	 0.191589
79.5515	112.7485	119.2033	140.1158	218.2728	266.1431	295.2645	368.0539	459.373	524.424	530.5738	561.697	629.7542	648.3075	682.0733	685.5254	766.1192	825.9415	968.1293	991.2964	1022.0391	1056.6011	1066.7407	1150.8059	1180.8801	1245.6565	1271.8178	1397.2249	1423.7782	1430.4729	1471.342	1483.4967	1488.2247	1497.5033	1565.3307	1661.5653	2228.2037	3030.3597	3032.1442	3079.9921	3081.3877	3114.4897	3133.3535	3255.2707	3504.1927
CC1=C(C)C=C(O1)C#C	Cc1c(C)cc(o1)C#C	
InChI=1S/C8H8O/c1-4-8-5-6(2)7(3)9-8/h1,5H,2-3H3	InChI=1S/C8H8O/c1-4-8-5-6(2)7(3)9-8/h1,5H,2-3H3
