14
gdb 25400	2.78292	1.57207	1.00458	7.1181	77.84	-0.2227	-0.0888	0.1339	1088.301	0.102436	-432.897165	-432.889673	-432.888729	-432.929712	27.602	
N	-0.0745258837	 1.3341765227	 0.0108342701	-0.54329
C	-0.0158005015	 0.0546597454	 0.0035493544	 0.330761
N	 1.1655080675	-0.7072810174	-0.0075674584	-0.354441
C	 1.1801683988	-2.068799408	-0.0156936204	 0.012383
C	 0.0054656044	-2.7518617388	-0.012815947	-0.067541
N	-1.1939590118	-2.0978550059	-0.0017229192	-0.2686
C	-1.222211591	-0.7980623406	 0.0060510469	 0.173749
C	-2.562593259	-0.1169643503	 0.0185583045	 0.109862
O	-3.6082063146	-0.718261041	 0.019411119	-0.249757
H	 0.8487134326	 1.7692111572	 0.0077410068	 0.202762
H	 2.0395469224	-0.2015299818	-0.0097507794	 0.261122
H	 2.1532664948	-2.5445554961	-0.0241858948	 0.144947
H	-0.016741721	-3.8337940788	-0.0190560924	 0.125966
H	-2.5104799878	 0.9857425933	 0.0269834997	 0.122078
85.1011	87.6781	221.8659	248.1592	367.0712	434.4449	498.6324	511.1777	561.6543	625.9396	640.4088	774.9126	796.2756	813.5826	823.1975	893.4994	930.7237	1040.172	1040.9909	1097.8723	1151.7417	1214.6727	1260.3077	1321.8576	1408.7541	1428.3031	1494.6578	1543.7419	1642.1372	1708.9873	1805.1226	2991.018	3205.0679	3223.1298	3463.2971	3607.86
N=C1NC=CN=C1C=O	[NH]c1[nH]ccnc1C=O	
InChI=1S/C5H5N3O/c6-5-4(3-9)7-1-2-8-5/h1-3H,(H2,6,8)	InChI=1S/C5H10N3O/c6-5-4(3-9)7-1-2-8-5/h3-8H,1-2H2
