14
gdb 66069	2.81565	1.2903	1.08673	3.9748	63.22	-0.2916	-0.0708	0.2208	1093.128	0.098913	-473.808676	-473.800327	-473.799382	-473.842186	29.664	
O	 0.0770561883	 1.465114645	-0.2590700423	-0.447961
C	 0.0210766738	 0.1066569055	-0.0673152304	 0.268851
C	-0.0339317171	-0.4147769891	 1.3924125605	-0.133125
O	-1.1470476246	-1.2822626089	 1.0780943188	-0.262739
C	-1.3763601854	-0.6323005605	-0.1804949917	-0.128874
C	-2.5280465677	 0.2708335221	-0.1755100433	 0.322222
N	-3.4447682741	 0.9736732756	-0.1794191244	-0.309838
C	 1.0571885414	-0.6100018683	-0.9108825572	 0.120638
O	 1.7747239161	-0.0023037003	-1.6643714687	-0.263921
H	 0.7180491942	 1.6176804286	-0.9737440536	 0.304655
H	 0.8247853145	-0.9739862979	 1.776546354	 0.125575
H	-0.3094996501	 0.3854531261	 2.0878104811	 0.144946
H	-1.4919550448	-1.3567011702	-0.9949274298	 0.135451
H	 1.1095809754	-1.7105998679	-0.7957700629	 0.12412
63.5068	123.8419	131.7438	216.2934	291.8511	300.567	364.8463	377.5105	475.3404	520.1696	551.4561	618.998	822.1385	846.8252	875.6961	913.8033	975.5309	1015.4466	1044.4717	1083.4965	1112.0612	1157.3823	1220.2785	1297.9238	1331.6397	1357.7654	1384.4553	1441.6499	1512.7668	1820.0915	2359.9774	2949.8474	3039.4189	3047.6247	3099.6879	3671.5317
OC1(COC1C#N)C=O	O[C@]1(CO[C@H]1C#N)C=O	
InChI=1S/C5H5NO3/c6-1-4-5(8,2-7)3-9-4/h2,4,8H,3H2	InChI=1S/C5H5NO3/c6-1-4-5(8,2-7)3-9-4/h2,4,8H,3H2/t4-,5-/m0/s1
