16
gdb 51493	4.10551	1.09438	0.97728	2.7631	71.38	-0.2492	-0.0173	0.2319	1188.5928	0.12525	-437.8906	-437.882962	-437.882018	-437.923744	28.426	
O	-0.1567940438	 0.0629784455	 0.5350704555	-0.325648
C	-0.0443843337	 1.2131634358	 0.1655821531	 0.154858
N	 1.1129087181	 1.7948745133	-0.2460194515	-0.27682
C	 2.3963183193	 1.1122392753	-0.2391431682	-0.029952
C	 3.0018604561	 0.9761219265	-1.6316591472	-0.093385
C	 4.200696006	 1.5533427782	-1.7223042795	-0.090743
C	 4.5635367819	 2.1901859167	-0.4169553408	 0.000729
O	 3.6347081129	 3.2355022896	-0.0217574037	-0.267692
C	 3.4626727793	 1.9172224821	 0.5119159061	 0.011241
H	-0.8957121454	 1.920244433	 0.1202058963	 0.079512
H	 1.1225443038	 2.7725491213	-0.4955898263	 0.259438
H	 2.2181887214	 0.1381227837	 0.2262341234	 0.130979
H	 2.4533288506	 0.5025200262	-2.4374075691	 0.118441
H	 4.825597163	 1.6007370654	-2.6052493997	 0.11242
H	 5.5905468494	 2.349677895	-0.1059636227	 0.107236
H	 3.5737822512	 1.8232766422	 1.5879175145	 0.109385
39.6152	112.7555	193.1453	225.3127	321.1411	424.9442	506.6375	555.1517	586.5861	697.404	744.7353	770.0239	828.3247	840.5995	870.6323	945.6707	948.7518	977.6878	1009.7561	1032.0317	1052.5192	1072.2194	1111.6175	1131.8524	1206.106	1252.055	1292.9801	1302.2106	1319.0153	1371.3941	1416.3056	1427.2104	1516.1295	1665.868	1799.8331	2943.1149	3081.9258	3159.7415	3178.2847	3199.5021	3224.4683	3623.2373
O=CNC1C=CC2OC12	O=CN[C@H]1C=C[C@H]2O[C@@H]12	
InChI=1S/C6H7NO2/c8-3-7-4-1-2-5-6(4)9-5/h1-6H,(H,7,8)	InChI=1S/C6H7NO2/c8-3-7-4-1-2-5-6(4)9-5/h1-6H,(H,7,8)/t4-,5+,6-/m0/s1
