13
gdb 11186	4.13822	1.58615	1.38701	4.6049	59.45	-0.2723	0.0146	0.2869	881.0578	0.096391	-398.609525	-398.602547	-398.601602	-398.641065	25.53	
O	-0.0730032882	 0.0384353875	-0.3047678385	-0.380078
C	-0.0586272562	 1.2207002897	-0.122555579	 0.482388
N	-1.1054429096	 2.0321134859	 0.2879082108	-0.352121
C	-0.7964846894	 3.4393280494	 0.0636627893	-0.182968
C	 0.7560605685	 3.3476462279	 0.0932494718	-0.086395
O	 1.0542493798	 2.0017708266	-0.2730363421	-0.231761
C	-1.3338773624	 3.9661757048	-1.1920597742	 0.338098
C	-1.7856358686	 4.3934830854	-2.2202163507	-0.462613
H	-2.0353856985	 1.6834812836	 0.1134003505	 0.267548
H	-1.1525058031	 4.0548070114	 0.8964886984	 0.126929
H	 1.2319509839	 4.0246353277	-0.6159689534	 0.141873
H	 1.1317296219	 3.5403737051	 1.1037649708	 0.126011
H	-2.1816019282	 4.7692360449	-3.1318155237	 0.213087
80.9315	143.6223	214.572	258.2739	448.6746	485.2498	533.2728	588.0157	647.1805	670.5653	720.671	767.8735	809.2851	822.5602	925.1313	997.7387	1047.9356	1094.2735	1119.2999	1202.5191	1237.1181	1280.4722	1368.5141	1403.2079	1412.7292	1514.7882	1900.0694	2236.6485	3043.985	3056.269	3138.2291	3499.7503	3641.1451
O=C1NC(CO1)C#C	O=C1N[C@@H](CO1)C#C	
InChI=1S/C5H5NO2/c1-2-4-3-8-5(7)6-4/h1,4H,3H2,(H,6,7)	InChI=1S/C5H5NO2/c1-2-4-3-8-5(7)6-4/h1,4H,3H2,(H,6,7)/t4-/m1/s1
