19
gdb 17556	3.14598	2.08439	1.6206	1.7496	75.8	-0.2179	0.0815	0.2995	881.968	0.165672	-327.870125	-327.862559	-327.861615	-327.901432	30.032	
C	-0.0596027495	 1.5553194107	 0.0491947887	-0.515082
C	 0.1089100937	 0.0693244488	-0.0025583754	 0.257499
N	-0.8220297116	-0.8574691308	 0.7028971648	-0.372314
C	 0.6375894613	-0.9128649336	 0.9875658409	-0.098743
C	 1.2599898752	-1.7778711692	-0.1166908007	-0.312811
C	 0.6983925247	-0.7583810354	-1.1384215046	 0.378324
C	 0.1222537239	-1.0041464637	-2.4967489767	-0.31652
C	 1.4153817556	-0.2293156474	-2.3440559674	-0.34195
H	 0.8486984673	 2.0674424663	-0.2853160139	 0.127167
H	-0.8865134928	 1.8874857856	-0.5904742965	 0.126631
H	-0.2760934836	 1.8887698946	 1.0700317922	 0.116919
H	-1.2440351783	-0.3203333881	 1.4622796155	 0.217403
H	 1.0106896158	-0.7533498732	 1.992373879	 0.088103
H	 2.3531195178	-1.7902499158	-0.08985651	 0.099743
H	 0.8763226489	-2.7999841174	-0.1783332175	 0.105269
H	 0.1746312502	-2.0116105988	-2.8965785382	 0.111898
H	-0.7715581503	-0.4591290733	-2.7827987083	 0.110774
H	 1.3924499981	 0.8397661428	-2.5324730556	 0.108474
H	 2.3429429538	-0.710157992	-2.639301436	 0.109217
133.753	192.8815	211.4487	232.8896	321.2301	369.8691	447.0135	483.9591	579.9493	636.0247	749.8328	772.9268	844.6598	853.8541	885.3354	908.9967	937.206	945.49	979.2882	1019.5564	1037.361	1050.0935	1073.1178	1078.4603	1106.8995	1130.8988	1180.2829	1184.753	1201.7712	1234.1376	1304.0617	1321.1171	1387.7101	1406.264	1442.472	1463.1199	1477.2874	1484.094	1499.9157	1507.1066	3021.3117	3052.2086	3081.5274	3096.5631	3108.0742	3118.9494	3126.9821	3181.4851	3196.6281	3213.4148	3447.5672
CC12NC1CC21CC1	C[C@]12N[C@H]1CC12CC1	
InChI=1S/C7H11N/c1-6-5(8-6)4-7(6)2-3-7/h5,8H,2-4H2,1H3	InChI=1S/C7H11N/c1-6-5(8-6)4-7(6)2-3-7/h5,8H,2-4H2,1H3/t5-,6-/m0/s1
