19
gdb 115863	2.81359	1.31366	1.17994	2.5957	70.28	-0.2434	0.0632	0.3066	1119.2301	0.160553	-460.141101	-460.132936	-460.131992	-460.173756	31.901	
O	 0.0298869889	 1.4083316746	-0.0983398197	-0.421806
C	 0.0770500606	-0.0030733476	-0.0122449419	-0.0801
C	-1.3204110173	-0.6064924843	 0.0509202957	 0.080241
O	-2.0003370511	-0.2462713055	-1.1703383344	-0.302851
C	-3.0908275006	-1.1596691057	-1.3511509035	-0.11461
C	-2.6055783081	-2.482225436	-0.785218054	-0.128287
C	-1.2066548926	-2.8762142145	-1.1794537366	 0.131553
O	-0.5490686314	-2.3587665103	-2.2965781641	-0.431396
C	-1.42025087	-2.1200609743	 0.111503961	-0.142614
H	-0.5383660593	 1.6178854452	-0.8480392	 0.291177
H	 0.6306820064	-0.4512938304	-0.8501826287	 0.10312
H	 0.6156201708	-0.2460102979	 0.9096441151	 0.1105
H	-1.8551658234	-0.1600473983	 0.9045975503	 0.084529
H	-3.9853656018	-0.8106120786	-0.8148980228	 0.108528
H	-3.314097214	-1.18329355	-2.4226168277	 0.120328
H	-3.3415524936	-3.2294223591	-0.5106483826	 0.094383
H	-0.9596571004	-3.9270124053	-1.068793201	 0.109749
H	-0.8063838442	-1.4304849036	-2.3753607787	 0.293269
H	-1.248514389	-2.6075098383	 1.0645690636	 0.094289
100.9203	142.3377	196.6809	238.8965	249.5037	375.5226	415.3101	457.8832	508.9541	548.3371	561.9646	722.7079	743.6241	780.4099	795.1244	833.5235	928.3287	975.5479	991.6272	1019.4167	1049.5109	1057.7234	1070.074	1087.1512	1106.8858	1115.1469	1131.4467	1190.012	1217.1649	1249.8007	1297.8972	1316.209	1338.0502	1343.5882	1353.558	1396.0054	1415.5952	1439.774	1470.0306	1505.3227	1517.2757	2976.8311	3000.368	3008.753	3076.5798	3080.9589	3165.5488	3171.1994	3182.4613	3750.4103	3806.4567
OCC1OCC2C(O)C12	OC[C@H]1OC[C@H]2[C@@H](O)[C@@H]12	
InChI=1S/C6H10O3/c7-1-4-5-3(2-9-4)6(5)8/h3-8H,1-2H2	InChI=1S/C6H10O3/c7-1-4-5-3(2-9-4)6(5)8/h3-8H,1-2H2/t3-,4-,5-,6-/m1/s1
