15
gdb 26863	2.98602	1.48012	0.99803	4.3135	75.57	-0.2121	-0.0753	0.1368	1120.7298	0.11241	-453.995733	-453.987481	-453.986537	-454.028594	30.451	
C	 0.1087184936	 1.4957778714	 0.0233755784	-0.493342
C	-0.0388566262	 0.0129913356	 0.0089963771	 0.349672
C	-1.2073028568	-0.6813716743	 0.0905257861	 0.204846
N	-2.4615251236	-0.0571578177	 0.2063265892	-0.58328
N	-1.2098204192	-2.0541985642	 0.1385658918	-0.245406
C	-0.0859020569	-2.687196751	 0.0659923172	-0.127388
C	 1.2152368189	-2.0397169281	-0.0901802155	 0.37866
O	 2.2857045801	-2.5764413631	-0.1999950695	-0.34086
O	 1.1392064137	-0.6551394668	-0.1016953663	-0.239209
H	 1.0230419043	 1.7753314083	 0.5540019895	 0.154867
H	 0.1790596262	 1.9103374463	-0.9906687127	 0.145134
H	-0.7500739538	 1.9518152864	 0.5223610294	 0.149975
H	-2.6369290659	 0.6514256957	-0.4938104069	 0.25026
H	-3.194605389	-0.7549019978	 0.1855821072	 0.253179
H	-0.0806823454	-3.7725311907	 0.1180445252	 0.142893
97.5405	126.882	174.7052	224.617	288.4135	342.4562	355.8351	430.8987	474.9241	523.9159	581.6543	615.1779	702.7299	732.9393	780.4087	827.3518	880.8963	929.1426	1026.4371	1040.8293	1063.2644	1131.3905	1243.2802	1288.953	1341.1982	1401.8375	1427.6748	1475.6151	1483.7649	1569.1513	1641.7751	1686.6667	1832.4837	3024.6098	3091.4387	3132.6605	3173.9862	3540.673	3634.1158
CC1=C(N)N=CC(=O)O1	Cc1c(N)ncc(=O)o1	
InChI=1S/C5H6N2O2/c1-3-5(6)7-2-4(8)9-3/h2H,6H2,1H3	InChI=1S/C5H6N2O2/c1-3-5(6)7-2-4(8)9-3/h2H,6H2,1H3
