15
gdb 28507	3.15962	1.42772	0.98936	2.3979	73.24	-0.2228	-0.0338	0.189	1127.1918	0.113502	-454.022857	-454.015019	-454.014074	-454.055241	29.695	
C	-0.0842402572	 1.5315685556	-0.0166625314	-0.476427
C	-0.0174257372	 0.0312424142	-0.0278544611	 0.234946
N	-0.1140697037	-0.6259009945	-1.1824863519	-0.276459
C	-0.053743629	-1.9568074323	-1.1830904945	-0.112094
C	 0.1088997002	-2.6583411534	 0.0113084987	 0.396913
O	 0.1689370636	-4.0040411395	 0.0008622084	-0.414954
N	 0.2087989826	-2.0333012947	 1.1822867929	-0.438318
C	 0.1459927193	-0.7087964598	 1.1578541948	 0.369046
O	 0.2444558016	-0.0485831369	 2.3292532259	-0.408299
H	 0.8270131252	 1.9685787464	 0.4066263056	 0.134299
H	-0.2121487899	 1.8934005112	-1.0378388137	 0.137926
H	-0.9183267239	 1.8894288904	 0.5971599882	 0.134297
H	-0.1336281256	-2.4797746375	-2.1295692432	 0.119724
H	 0.282260428	-4.2860066551	 0.9184077113	 0.299907
H	 0.3504245461	-0.7178264942	 3.01916051	 0.299496
98.5634	123.7296	245.0557	278.5374	340.1352	344.7221	469.7877	492.6313	504.3524	530.2917	543.7853	592.4605	704.6786	745.1435	780.4344	796.803	891.5817	983.7634	1036.2486	1060.2896	1169.5937	1197.58	1255.4839	1286.2969	1323.5637	1387.2322	1407.2554	1468.5754	1478.4408	1493.4476	1524.8743	1606.2767	1653.563	3035.2481	3085.6283	3144.2719	3191.037	3771.1038	3779.2009
CC1=NC=C(O)N=C1O	Cc1ncc(O)nc1O	
InChI=1S/C5H6N2O2/c1-3-5(9)7-4(8)2-6-3/h2H,1H3,(H2,7,8,9)	InChI=1S/C5H6N2O2/c1-3-5(9)7-4(8)2-6-3/h2H,1H3,(H2,7,8,9)
