20
gdb 94588	3.35872	0.95477	0.84511	5.628	75.83	-0.2386	0.0235	0.2621	1410.4006	0.170822	-440.30236	-440.293255	-440.292311	-440.336931	33.501	
C	-0.0306648853	 1.7692881466	-0.6386908359	-0.403629
C	-0.1026245999	 0.2663804358	-0.3842267389	 0.050653
C	 1.1174044509	-0.5346264097	-0.9181328432	-0.242728
C	 1.61532825	-0.5917667462	 0.5445465182	-0.172484
N	 0.2600873124	-0.1952633528	 0.9913366362	-0.10623
H	-0.4247668338	-1.5415530007	 2.1767324901	 0.296888
C	 0.0950533405	 0.6301294627	 2.1724950945	-0.313957
C	-0.0770530238	-0.2327920645	 3.435278396	 0.41513
O	-0.4205154101	-1.4995773465	 3.1588969231	-0.361027
O	 0.0545659191	 0.190594605	 4.5505247493	-0.334277
H	 0.9454153072	 2.1828330669	-0.3638823518	 0.122387
H	-0.1924458779	 1.9675530567	-1.7034320541	 0.125484
H	-0.8006974587	 2.3131171513	-0.0825707695	 0.125037
H	-1.0841973617	-0.1095123173	-0.6943592398	 0.083161
H	 0.8480553696	-1.5132538347	-1.318142867	 0.116505
H	 1.7568163366	-0.0153453173	-1.6330798128	 0.111389
H	 1.9599650796	-1.5546502464	 0.9335659278	 0.116894
H	 2.3776516498	 0.1682837521	 0.7701280397	 0.103695
H	 0.9190997046	 1.334601639	 2.3516088319	 0.12583
H	-0.8216755389	 1.2229817002	 2.074918906	 0.141278
60.4969	86.2398	115.9339	166.6529	243.6034	250.84	341.5032	360.3633	420.7472	494.5792	573.0487	623.341	734.142	780.0665	831.728	855.9281	874.4828	898.3625	928.8771	952.7519	971.909	1046.7722	1086.6715	1106.6104	1148.6401	1178.494	1207.0173	1216.5997	1234.7883	1254.016	1272.8664	1298.0862	1332.2832	1347.0765	1378.6471	1408.94	1423.1348	1459.6929	1487.4239	1495.7355	1496.1669	1529.0069	1879.7813	2998.3228	3011.585	3033.3885	3033.7754	3072.6237	3073.9301	3086.2702	3103.6705	3106.6541	3140.5648	3467.4107
CC1CC[NH+]1CC([O-])=O	C[C@H]1CCN1CC(=O)O	
InChI=1S/C6H11NO2/c1-5-2-3-7(5)4-6(8)9/h5H,2-4H2,1H3,(H,8,9)	InChI=1S/C6H11NO2/c1-5-2-3-7(5)4-6(8)9/h5H,2-4H2,1H3,(H,8,9)/t5-/m0/s1
