18
gdb 79455	3.40816	1.57584	1.33744	2.3967	70.27	-0.219	0.0557	0.2747	987.0623	0.149016	-439.009843	-439.002829	-439.001885	-439.040874	28.963	
C	-0.1616034362	 1.464400303	 0.0788964022	-0.327113
N	-0.0095264191	 0.0137036225	 0.0414497715	-0.104245
C	 0.7481826632	-0.4465896459	-1.1450877795	-0.041947
C	 2.1259482423	-0.3106132617	-0.4656043277	 0.08254
O	 2.5612611876	-1.605411672	-0.9229100386	-0.313526
C	 1.1369374494	-1.9528933923	-0.8902479413	-0.005928
C	 0.9237593364	-2.0252393388	 0.6447425808	 0.197559
O	 1.8223714617	-2.8885856714	 1.280987622	-0.454519
C	 1.1734842275	-0.5048787537	 0.8117773227	-0.122436
H	 0.7622565312	 2.0307799319	-0.1342321325	 0.09674
H	-0.9167428123	 1.7655081367	-0.6547363966	 0.122872
H	-0.519208597	 1.7619258242	 1.0692962697	 0.125655
H	 0.4719644062	-0.106667989	-2.1423905047	 0.086757
H	 2.8705801636	 0.4785435919	-0.5413541471	 0.098577
H	 0.8754720948	-2.792628399	-1.5304890883	 0.09173
H	-0.0915949608	-2.2845928103	 0.9442070984	 0.101065
H	 2.6586658419	-2.7835313479	 0.8043955703	 0.286721
H	 1.3670867995	-0.103923118	 1.8046166787	 0.079499
196.5053	225.8367	252.7631	259.0663	370.1819	478.2113	506.3925	552.6863	611.3695	702.9929	741.5378	817.1966	829.512	851.5527	856.9267	910.2502	934.9664	936.2081	950.4343	1004.3514	1050.0503	1088.5146	1107.239	1140.6853	1160.0381	1162.2919	1178.5023	1182.5129	1205.7884	1232.2679	1255.5996	1271.7936	1291.3118	1320.3658	1341.325	1436.3148	1455.3116	1494.637	1500.7959	2949.3522	3062.6133	3103.6893	3123.91	3128.3564	3142.1581	3149.1207	3154.5873	3732.339
CN1C2C3OC2C(O)C13	CN1[C@H]2[C@@H]3O[C@H]2[C@@H](O)[C@H]13	
InChI=1S/C6H9NO2/c1-7-2-4(8)6-3(7)5(2)9-6/h2-6,8H,1H3	InChI=1S/C6H9NO2/c1-7-2-4(8)6-3(7)5(2)9-6/h2-6,8H,1H3/t2-,3-,4-,5+,6+/m0/s1
