13
gdb 130514	3.9937	1.73686	1.21044	0.672	76.39	-0.2378	-0.0974	0.1403	922.3598	0.092208	-415.604051	-415.598174	-415.59723	-415.634205	23.467	
O	-0.088904356	 1.3160720143	 0.0101146971	-0.250881
N	 1.0501581258	 2.10408464	 0.0036132142	-0.090466
C	 2.1961255362	 1.4826874758	-0.0110322857	 0.047799
C	 2.4210056812	 0.0726135059	-0.0212891991	-0.255775
C	 1.3101436969	-0.7073182154	-0.015006557	 0.299181
N	 1.1235939955	-2.0572573498	-0.0209853017	-0.348726
C	-0.2035459298	-2.1943090162	-0.0087510293	-0.003909
C	-0.9599580317	-0.9764684865	 0.0054018122	-0.323765
C	 0.0113507343	-0.012971115	 0.0015492573	 0.392872
H	 3.0340238049	 2.1729271508	-0.0151998102	 0.147368
H	 3.4279369563	-0.326746498	-0.0333401058	 0.141871
H	-0.641981355	-3.1872559168	-0.0102418895	 0.121462
H	-2.0313408188	-0.8631053991	 0.0163737775	 0.122969
205.5591	244.1092	362.7831	437.6086	543.7406	576.5948	603.8582	634.6291	759.5624	765.5532	786.3989	870.5487	892.9731	920.3096	933.416	961.3096	976.4967	1024.9665	1054.6907	1201.1707	1225.2182	1302.6284	1330.4868	1337.3275	1386.2093	1418.2619	1556.5939	1597.4423	1695.7874	3189.4861	3193.3707	3214.4017	3271.2504
O1N=CC=C2N=CC=C12	O1N=C[CH]c2nccc12	
InChI=1S/C6H4N2O/c1-4-8-9-6-2-3-7-5(1)6/h1-4H	InChI=1S/C6H5N2O/c1-4-8-9-6-2-3-7-5(1)6/h1-4,7H
