15
gdb 13572	3.12217	1.77668	1.34512	3.1791	69.13	-0.2612	-0.0537	0.2075	927.9641	0.118744	-358.830448	-358.822497	-358.821553	-358.863014	28.421	
C	 0.4420089851	 1.4051669487	 0.1045565847	-0.42079
C	 0.0365081784	-0.0402774582	-0.0545516468	 0.007125
C	 0.699909681	-0.918984318	-1.0723528264	-0.243471
N	 0.9365580993	-1.1300182134	 0.3421075649	-0.079337
C	 2.188033662	-0.9475367858	 0.9013201585	 0.229494
N	 3.2735829839	-1.2144095236	 0.2848390825	-0.483906
C	 2.1431186999	-0.5047192878	 2.2874807501	 0.265649
N	 2.1524227495	-0.1323294072	 3.3823917841	-0.329082
H	 1.4881678891	 1.559430871	-0.1758965644	 0.136252
H	-0.1788963969	 2.0357889696	-0.539521208	 0.134856
H	 0.3080365355	 1.7444211738	 1.1362764178	 0.148852
H	-1.0024732247	-0.2550302243	 0.1863723945	 0.112741
H	 0.1368487222	-1.7012601859	-1.5724587998	 0.132747
H	 1.5236240619	-0.4999903378	-1.6442347879	 0.144849
H	 4.0796829338	-1.1157454411	 0.9002822062	 0.24402
71.1609	124.6177	165.6605	226.775	269.0227	314.8656	390.3039	432.7341	539.2004	567.6888	703.7825	742.9424	810.6984	871.3744	908.4327	926.2949	1005.6231	1046.5738	1087.8175	1131.5973	1151.8084	1165.7213	1193.9984	1282.6674	1398.0407	1414.838	1431.4843	1487.7328	1499.9573	1510.25	1668.2438	2345.3517	3041.3963	3110.0236	3113.964	3117.8737	3138.4981	3207.9955	3505.5614
CC1CN1C(=N)C#N	C[C@H]1CN1[C]([NH])C#N	
InChI=1S/C5H7N3/c1-4-3-8(4)5(7)2-6/h4,7H,3H2,1H3	InChI=1S/C5H7N3/c1-4-3-8(4)5(7)2-6/h4,7H,3H2,1H3/t4-,8?/m0/s1
