22
gdb 116364	3.11634	1.07199	0.84893	2.3216	83.95	-0.2359	0.0228	0.2588	1410.6983	0.195531	-404.360584	-404.351306	-404.350361	-404.395323	34.376	
C	-0.000443293	 1.5470212226	 0.2414984324	-0.393522
C	-0.0628002368	 0.0359999213	-0.0082547981	-0.176492
C	 0.6833618828	-0.4545768031	-1.2663202863	 0.009437
C	 0.7896256573	-1.9833144798	-1.2745347702	-0.216386
C	 1.7955568475	-2.5216441088	-2.280824526	-0.074699
O	 1.4234232799	-2.4380876488	-3.6584770087	-0.226548
C	 1.1479691852	-1.2424944415	-4.2494271704	 0.118518
N	 0.6156155073	-0.1774507517	-3.8414782569	-0.256632
C	 0.0056187038	 0.0651044596	-2.5468695552	-0.147722
H	 1.0370962425	 1.8970494654	 0.2830915358	 0.116218
H	-0.5126326244	 2.1201886835	-0.5364140253	 0.125186
H	-0.4733490513	 1.8000383144	 1.1956109666	 0.113679
H	 0.3626885313	-0.4788784412	 0.8622781846	 0.091959
H	-1.1118428229	-0.2864938663	-0.0631733884	 0.095534
H	 1.7049825679	-0.0455211399	-1.2337506781	 0.071523
H	 1.1160478852	-2.332957965	-0.2863054731	 0.09765
H	-0.1939131562	-2.4359188045	-1.4592045304	 0.103959
H	 2.7582956788	-2.0067848576	-2.1499246896	 0.104484
H	 1.9617574829	-3.5898882775	-2.1183407533	 0.114534
H	 1.4364656347	-1.3113382618	-5.3000443658	 0.113719
H	-1.0134746756	-0.3530380093	-2.5836729444	 0.108848
H	-0.1208942768	 1.14885963	-2.4673187194	 0.106752
63.8529	66.1117	103.8121	210.8187	225.2983	281.2497	307.4177	380.9607	412.2221	433.2344	502.473	532.9672	734.124	775.6199	819.0952	860.8943	910.7344	922.7256	958.9992	971.0141	992.1152	1035.6919	1044.0299	1067.7941	1112.9797	1150.935	1155.9134	1174.7715	1229.8027	1267.5568	1297.1632	1317.5047	1332.4518	1360.234	1375.0529	1388.8649	1408.619	1415.7505	1426.8999	1441.0396	1468.5792	1487.0935	1488.0174	1499.0076	1501.9445	1509.3552	1767.0222	2978.5529	2991.3827	3005.5066	3010.5845	3018.0826	3035.8035	3044.7045	3059.1672	3069.7952	3092.8125	3099.6992	3113.3229	3118.9107
CCC1CCOC=NC1	CC[C@H]1CCOC=NC1	
InChI=1S/C7H13NO/c1-2-7-3-4-9-6-8-5-7/h6-7H,2-5H2,1H3	InChI=1S/C7H13NO/c1-2-7-3-4-9-6-8-5-7/h6-7H,2-5H2,1H3/t7-/m0/s1
