17
gdb 41398	2.77946	1.933	1.38903	0.3039	71.7	-0.2493	-0.0095	0.2398	931.8494	0.137784	-421.786454	-421.779696	-421.778751	-421.817635	26.771	
C	 0.0350225873	 1.5221475986	 0.0210458484	-0.162543
O	 1.4818818908	 1.5353555597	 0.0000581334	-0.303555
C	 1.5275720024	 0.0912927968	-0.1918163482	 0.051606
C	 2.1200119515	-0.7132354143	 0.9353963375	-0.090521
C	 1.175127617	-1.2856281373	 1.6876883143	-0.090522
C	-0.2093764056	-0.8943341612	 1.2417061659	 0.051609
O	-0.9305281017	-1.8745686019	 0.4396522119	-0.303553
C	-0.9064122779	-1.000796943	-0.7135846773	-0.162544
C	 0.0046108372	-0.0056470431	 0.0041095303	 0.205963
H	-0.3744164785	 2.0129534047	 0.9123487068	 0.108131
H	-0.3862840634	 1.9978092402	-0.8750633661	 0.102916
H	 1.9482804638	-0.1536127065	-1.1755169983	 0.080788
H	 3.189203209	-0.8194193212	 1.0825648867	 0.110195
H	 1.3570079509	-1.9361964513	 2.5360892249	 0.110195
H	-0.844113194	-0.519926325	 2.0550756004	 0.080789
H	-0.4939807019	-1.4934321284	-1.602496156	 0.10813
H	-1.9078356271	-0.6158819269	-0.9497092947	 0.102918
110.9244	208.9392	257.3909	287.2258	411.2908	447.2883	582.7578	653.0853	729.5702	787.7993	818.6722	874.4316	883.7749	940.5867	956.4358	962.3612	987.1999	989.0795	1009.5394	1013.6604	1041.1036	1107.7739	1137.0446	1140.3208	1175.6608	1199.9589	1211.6168	1267.6995	1278.7773	1312.9858	1344.0275	1354.8323	1362.5014	1380.991	1515.1573	1518.6787	1657.2491	3002.469	3005.8375	3024.5203	3026.7422	3052.342	3052.9422	3186.51	3210.4109
C1OC2C=CC3OCC123	C1O[C@H]2C=C[C@@H]3OC[C@]123	
InChI=1S/C7H8O2/c1-2-6-7(4-9-6)3-8-5(1)7/h1-2,5-6H,3-4H2	InChI=1S/C7H8O2/c1-2-6-7(4-9-6)3-8-5(1)7/h1-2,5-6H,3-4H2/t5-,6-,7+/m0/s1
