22
gdb 103772	3.18805	1.07491	0.94759	2.1307	82.56	-0.2384	0.0595	0.2979	1348.6297	0.192783	-404.3077	-404.297904	-404.29696	-404.342464	36.266	
C	 0.2251932672	 1.4464755754	 0.2719167716	-0.384169
C	-0.2420559575	 0.0591839795	-0.1844178979	-0.22406
C	 0.5296880039	-0.4804011441	-1.3791796788	 0.256646
C	 0.3671284129	 0.2807426663	-2.6801904823	-0.472862
N	 1.8781601769	-0.9995473764	-1.0318045014	-0.411939
C	 0.8365665848	-1.9288531442	-1.4503864868	 0.235664
C	 0.3449592915	-3.1175117512	-0.63007171	-0.134394
O	 0.3017091263	-3.9382215764	-1.82131121	-0.277207
C	 0.829482016	-2.8798160877	-2.6463991138	-0.150175
H	 1.2967182953	 1.4317904907	 0.4935677611	 0.131815
H	 0.045528523	 2.2115136118	-0.4902030456	 0.113087
H	-0.3045367362	 1.7563127929	 1.1776762882	 0.113003
H	-0.1278610195	-0.6442652543	 0.6468297099	 0.105137
H	-1.3115145499	 0.0834488366	-0.4321590794	 0.093885
H	 0.7481927458	 1.3035238941	-2.5915428171	 0.128336
H	 0.9073075207	-0.205151499	-3.4987899179	 0.114171
H	-0.6881028898	 0.3455620993	-2.9688422304	 0.125114
H	 2.5344957422	-0.8379074257	-1.7939201973	 0.223096
H	 1.0649465291	-3.4920525002	 0.1080454997	 0.109198
H	-0.6430417424	-3.0215680002	-0.1628317207	 0.103004
H	 0.1563562034	-2.6266579518	-3.4760436292	 0.103368
H	 1.8203340865	-3.1285635654	-3.052954892	 0.099281
64.7028	102.7471	138.154	168.9866	189.0975	226.3352	263.593	299.3496	362.1655	429.229	453.9708	474.4501	622.2139	684.2682	784.7182	827.6349	877.6902	912.4686	945.1804	978.5345	998.4111	1013.9167	1026.3358	1033.7384	1037.1401	1087.7551	1116.9291	1138.6293	1150.8152	1159.2498	1178.2713	1257.8069	1282.8127	1305.4586	1332.5916	1355.8944	1373.311	1404.1061	1414.5931	1473.1929	1473.7937	1488.6558	1502.2153	1503.3538	1507.84	1515.4191	1529.3554	2991.4474	3014.4209	3022.7874	3029.5202	3036.9488	3038.8887	3059.2049	3070.9096	3093.1261	3100.9686	3107.3218	3114.1178	3475.3444
CCC1(C)NC11COC1	CC[C@@]1(C)NC21COC2	
InChI=1S/C7H13NO/c1-3-6(2)7(8-6)4-9-5-7/h8H,3-5H2,1-2H3	InChI=1S/C7H13NO/c1-3-6(2)7(8-6)4-9-5-7/h8H,3-5H2,1-2H3/t6-/m1/s1
