21
gdb 56820	2.25007	1.24733	0.93235	4.8202	82.88	-0.255	0.0242	0.2792	1328.6924	0.18197	-383.265583	-383.255191	-383.254247	-383.301038	37.694	
C	-0.3894176899	 0.9342008163	-1.7091080738	-0.414942
C	-0.0224287731	-0.2345076015	-0.8169722901	-0.051897
C	 1.4075834721	-0.5898635588	-0.4635973028	-0.020551
C	 2.6081003614	 0.195335088	-0.9536175982	-0.416594
C	 0.4681207872	-0.0797738707	 0.6114908953	-0.03403
C	 0.6188131404	 1.287646926	 1.272553197	-0.152514
N	-0.6068086587	 1.8342070083	 1.8736503821	-0.507513
C	 1.6633054062	 1.2205731592	 2.3113999485	 0.308262
N	 2.4861581146	 1.1309378336	 3.117505402	-0.325439
H	 0.2640409464	 1.8000698367	-1.5785099188	 0.120139
H	-0.3284577285	 0.6439659963	-2.7634485135	 0.126582
H	-1.4175721866	 1.2656093801	-1.5227228542	 0.117812
H	-0.6774538428	-1.0898612433	-0.9648405523	 0.08993
H	 1.606960675	-1.6567202658	-0.4016421329	 0.091225
H	 2.4108717104	 1.2648346119	-1.0598536391	 0.115942
H	 3.4501135367	 0.0859393309	-0.2626125225	 0.140065
H	 2.930909647	-0.171739961	-1.9337402842	 0.12144
H	 0.1132614625	-0.8260996541	 1.3189391639	 0.090574
H	 0.9629156823	 2.0226841942	 0.5380115632	 0.126341
H	-1.3141396006	 1.9039072831	 1.1473390565	 0.237909
H	-0.967284462	 1.1774058506	 2.5611860238	 0.237258
51.7574	102.2362	153.9611	172.0246	191.8985	199.1288	225.7048	253.1118	289.1677	314.9504	458.5211	480.5809	510.4407	558.6752	615.9871	763.9086	775.4528	838.2383	874.9877	931.3437	953.3167	961.6222	1027.6317	1048.8303	1107.9507	1118.3088	1132.1974	1155.0525	1160.4958	1188.7889	1206.0397	1269.982	1290.4254	1379.4535	1391.8954	1398.3795	1420.7538	1428.4642	1449.6476	1490.2548	1495.9328	1504.4813	1515.4925	1656.6699	2360.586	3032.7005	3039.4907	3064.9844	3086.9957	3098.1027	3108.2724	3117.8213	3124.8213	3130.0062	3145.1287	3484.9265	3567.7295
CC1C(C)C1C(N)C#N	C[C@H]1[C@@H](C)[C@H]1[C@@H](N)C#N	
InChI=1S/C7H12N2/c1-4-5(2)7(4)6(9)3-8/h4-7H,9H2,1-2H3	InChI=1S/C7H12N2/c1-4-5(2)7(4)6(9)3-8/h4-7H,9H2,1-2H3/t4-,5+,6-,7-/m0/s1
