19
gdb 18731	3.05176	2.14857	1.45875	2.2546	70.75	-0.2183	0.0685	0.2868	895.1017	0.167751	-365.038713	-365.031397	-365.030453	-365.069982	28.959	
O	-0.0505829834	 1.4445784433	-0.0166137372	-0.436861
C	-0.0005592321	 0.0218445832	 0.0313929002	 0.109073
C	 0.7947369521	-0.5062994032	 1.2298874359	-0.242003
C	 0.578635926	-2.0163790962	 1.3592292284	-0.204618
C	-0.8887118962	-2.3254785284	 1.6770758871	-0.141189
N	-1.8650750883	-1.6373399804	 0.8104280658	-0.104017
C	-2.3048367452	-0.3037796872	 1.2110663709	-0.234123
C	-1.4351847879	-0.4719847843	 0.0197375375	 0.006304
H	 0.8493947349	 1.7663998149	-0.1360780074	 0.278344
H	 0.4832257307	-0.362896756	-0.8826333927	 0.065429
H	 1.8567925741	-0.2700063051	 1.0911901451	 0.086016
H	 0.4721447883	 0.0110283925	 2.1414220984	 0.105303
H	 0.8633739458	-2.5049140187	 0.4178899961	 0.102295
H	 1.217328736	-2.4446560198	 2.1392003502	 0.098261
H	-1.0669451025	-3.4026421864	 1.5807937677	 0.103891
H	-1.0962940554	-2.0655171068	 2.7232854647	 0.098947
H	-3.3655583541	-0.0974277605	 1.0905982814	 0.109918
H	-1.859706002	 0.1398357683	 2.0999360538	 0.109044
H	-1.902953621	-0.4209752994	-0.961623596	 0.089986
102.4504	218.0868	265.4911	278.9287	349.1823	392.839	436.0802	460.2879	586.2585	618.42	724.5241	776.9371	875.4569	897.6979	911.3193	927.1918	963.7435	1036.6561	1057.33	1071.3231	1090.6769	1107.8256	1118.5791	1157.3707	1169.1136	1197.2062	1229.9312	1252.43	1282.87	1324.7255	1342.9796	1373.5231	1376.7115	1389.9569	1423.7497	1440.3341	1488.2266	1494.9661	1505.1394	1524.031	2949.4456	3015.0232	3020.3983	3026.2428	3052.8499	3066.0308	3074.9564	3093.4163	3118.2193	3173.9976	3803.0359
OC1CCCN2CC12	O[C@H]1CCCN2C[C@@H]12	
InChI=1S/C6H11NO/c8-6-2-1-3-7-4-5(6)7/h5-6,8H,1-4H2	InChI=1S/C6H11NO/c8-6-2-1-3-7-4-5(6)7/h5-6,8H,1-4H2/t5-,6-,7?/m0/s1
