25
gdb 120482	3.43868	0.77017	0.69715	1.3217	89.43	-0.2503	0.0742	0.3244	1749.7522	0.227734	-389.489405	-389.478627	-389.477683	-389.525389	40.013	
C	 0.0924089945	 1.5590641999	 0.0537175283	-0.380114
C	 0.0086903065	 0.0309605674	 0.0991563727	-0.163169
C	-1.4207601334	-0.4997127148	-0.0703280898	-0.190906
C	-1.5058772482	-2.0203229129	-0.0147893261	 0.037284
C	-1.2442457201	-2.7496687134	 1.3352104648	-0.283628
C	-2.3434123103	-3.7675408548	 0.9352061041	 0.140856
O	-3.2798136878	-4.189243568	 1.9011466256	-0.43204
C	-2.8950363494	-2.7442313714	-0.0944370077	-0.053101
C	-4.0969244499	-1.9457121348	 0.4066770837	-0.385808
H	 1.12262064	 1.9082684606	 0.1760191392	 0.109178
H	-0.2798763145	 1.9480119566	-0.9007870637	 0.112522
H	-0.5092263414	 2.0120342666	 0.8497440891	 0.11308
H	 0.6480072589	-0.3954114546	-0.6854786638	 0.091693
H	 0.4188636906	-0.3294994418	 1.051584207	 0.098138
H	-2.0605557143	-0.0616101469	 0.7064745767	 0.091754
H	-1.8237927627	-0.1469448307	-1.0304902357	 0.089694
H	-0.8461940869	-2.4382668779	-0.7851391986	 0.064666
H	-0.2387482941	-3.1272231398	 1.539417905	 0.087282
H	-1.5783640614	-2.146118224	 2.1854972213	 0.100988
H	-1.8991870119	-4.630697127	 0.4178001389	 0.06141
H	-2.8297261605	-4.7678297794	 2.5245013776	 0.281204
H	-3.1323014939	-3.1690026918	-1.0749786733	 0.061737
H	-3.9251462917	-1.5106070211	 1.3952268186	 0.117837
H	-4.3383388901	-1.1321937896	-0.2849857086	 0.106434
H	-4.9730619382	-2.5945767064	 0.4900315448	 0.12301
65.7862	87.8042	108.5403	127.7089	222.9185	236.9687	242.0341	248.0881	268.8704	313.9351	371.4085	418.8758	491.2155	550.029	650.347	746.5962	786.5942	815.1237	857.3943	895.3525	917.4025	921.3627	978.6324	1017.6996	1041.5056	1048.8072	1074.5851	1085.438	1135.186	1144.1169	1171.8492	1187.2077	1219.8559	1236.6086	1268.0943	1271.1633	1282.4543	1307.7184	1327.3571	1335.9197	1369.8596	1377.3939	1397.3595	1407.8151	1413.8805	1429.9056	1480.5368	1487.1375	1491.5534	1496.3911	1499.4355	1500.0356	1510.8883	2983.5457	3003.7838	3014.4102	3020.4632	3028.1195	3035.7311	3040.7859	3046.1819	3050.8229	3058.6961	3094.4247	3099.5211	3102.4014	3108.4964	3116.274	3819.2291
CCCC1CC(O)C1C	CCC[C@H]1C[C@@H](O)[C@H]1C	
InChI=1S/C8H16O/c1-3-4-7-5-8(9)6(7)2/h6-9H,3-5H2,1-2H3	InChI=1S/C8H16O/c1-3-4-7-5-8(9)6(7)2/h6-9H,3-5H2,1-2H3/t6-,7-,8+/m0/s1
