14
gdb 49540	2.97569	1.21017	0.94745	3.1704	67.3	-0.259	-0.049	0.2099	1169.9221	0.099738	-436.623544	-436.615958	-436.615014	-436.656262	27.607	
O	-0.157484423	-0.0399095969	-0.2378056111	-0.24537
C	-0.0766470682	 1.1341295947	 0.0224440861	 0.137818
C	 1.2314216577	 1.8809648712	 0.0005858509	-0.110433
C	 1.2267240942	 3.3227348775	-0.5932997115	 0.032335
O	 0.4271746509	 3.7831399078	 0.5587488166	-0.300802
C	 1.4824175267	 2.9248924126	 1.1318980825	 0.032254
C	 2.5090140232	 3.6751022883	 0.2253526815	-0.142164
C	 3.792035838	 3.0812694811	-0.10168962	 0.27525
N	 4.8148059924	 2.6097813075	-0.3619835368	-0.324087
H	-0.9640106629	 1.7380621179	 0.2937890838	 0.108953
H	 2.0591248243	 1.2248890287	-0.2735779289	 0.129039
H	 0.942587636	 3.6648171255	-1.5871413574	 0.131052
H	 1.5052644397	 2.7883211194	 2.2118413053	 0.131081
H	 2.589695751	 4.7375138047	 0.4583449789	 0.145074
91.1414	109.6107	170.8308	240.2774	277.8531	401.1787	480.4341	533.0794	543.4941	628.301	724.0959	790.0441	888.9255	899.7873	902.3491	963.3066	1026.3312	1034.5664	1076.396	1119.2107	1129.7362	1140.37	1183.4549	1186.3514	1229.0965	1255.9747	1328.0094	1349.734	1423.2735	1823.0884	2358.0514	2950.5872	3116.7986	3119.1163	3140.582	3144.6662
O=CC1C2OC1C2C#N	O=C[C@H]1[C@H]2O[C@@H]1[C@H]2C#N	
InChI=1S/C6H5NO2/c7-1-3-5-4(2-8)6(3)9-5/h2-6H	InChI=1S/C6H5NO2/c7-1-3-5-4(2-8)6(3)9-5/h2-6H/t3-,4-,5-,6+
