22
gdb 58315	3.47327	0.70815	0.61445	4.1234	83.62	-0.2812	0.0403	0.3215	1818.8844	0.191953	-404.37575	-404.364808	-404.363863	-404.412358	39.325	
C	-0.0367812524	 1.5613283164	-0.0628215042	-0.388189
C	 0.0250211511	 0.0294537168	 0.0248870494	 0.006341
C	 0.8632871491	-0.407719164	 1.2356023592	-0.400697
C	-1.397568171	-0.5683595471	 0.0373817093	 0.132441
O	-2.1581707795	-0.1206322191	-1.0860278493	-0.431223
C	-1.4251525933	-2.1018831587	 0.1192765167	-0.214805
C	-2.8696118762	-2.639874886	 0.0980279072	-0.338225
C	-2.9243199322	-4.098868735	 0.0957733189	 0.254474
N	-2.948005982	-5.2544157483	 0.0924208023	-0.309013
H	 0.9653736927	 1.9835815815	-0.1848844593	 0.111165
H	-0.6573212839	 1.8866294349	-0.9000841729	 0.124674
H	-0.466280505	 1.9835082524	 0.8535696706	 0.114244
H	 0.5203050455	-0.3477551675	-0.8848956841	 0.064432
H	 0.3576267372	-0.1537395502	 2.1749954515	 0.117568
H	 1.0674804428	-1.4814450129	 1.2415285451	 0.121193
H	 1.8279382143	 0.1088818749	 1.234136623	 0.119106
H	-1.9356231701	-0.160728007	 0.9050276504	 0.088685
H	-1.6686320644	-0.3558043328	-1.8831485452	 0.280022
H	-0.8670408434	-2.5253439499	-0.7259729256	 0.109698
H	-0.9261567443	-2.4436502412	 1.0298692266	 0.125515
H	-3.4226441947	-2.2712343292	 0.9701285506	 0.149266
H	-3.3891298501	-2.2559610679	-0.78476883	 0.163326
49.1397	82.7235	96.2983	110.5841	202.993	226.5279	231.2122	275.1129	330.4769	340.855	369.0807	401.868	408.9504	483.2469	506.0025	585.4063	770.5813	831.4323	898.6261	930.735	948.2482	961.2524	972.8868	1022.2555	1073.5931	1075.7338	1127.1568	1148.5753	1176.4836	1194.151	1264.2384	1268.4409	1311.9251	1340.2045	1354.0071	1378.2962	1389.1421	1400.535	1412.0073	1426.1092	1469.8513	1487.7013	1490.0764	1491.0874	1505.5964	1514.6958	2361.2276	2970.842	3013.3556	3030.7053	3031.8754	3035.9045	3049.463	3089.8099	3094.8423	3100.323	3106.5088	3116.6553	3131.319	3788.5463
CC(C)C(O)CCC#N	CC(C)[C@@H](O)CCC#N	
InChI=1S/C7H13NO/c1-6(2)7(9)4-3-5-8/h6-7,9H,3-4H2,1-2H3	InChI=1S/C7H13NO/c1-6(2)7(9)4-3-5-8/h6-7,9H,3-4H2,1-2H3/t7-/m0/s1
