14
gdb 66827	2.81766	2.28085	1.87391	2.6558	64.27	-0.2116	-0.0665	0.1451	768.3345	0.099973	-436.540773	-436.534539	-436.533595	-436.570843	26.199	
O	-0.2109973875	 1.4635287889	 0.1103546765	-0.483625
C	-0.1145492595	 0.098576255	 0.0343935932	 0.396751
C	-1.3249887178	-0.8012353106	-0.0398821577	-0.167188
C	-0.7389757137	-1.9438959604	-0.8714124578	-0.013159
N	 0.5258138592	-1.6974867443	-1.5111474759	-0.174742
C	 0.9238566058	-0.6622958856	-0.8703464686	 0.088664
O	 1.8814372849	-0.8353872488	 0.1607464013	-0.28678
C	 0.6291881792	-0.8485244514	 0.9945028554	 0.009396
C	-0.5287585294	-1.8900538461	 0.6726129111	-0.132001
H	 0.6634255054	 1.8453313695	-0.0331697835	 0.299066
H	-2.3702815414	-0.5343623922	 0.0044543915	 0.116577
H	-1.3888646899	-2.7083556968	-1.2812677872	 0.114039
H	 0.8475822964	-0.6336817789	 2.0391182533	 0.123269
H	-0.8686000416	-2.6767722182	 1.3302635183	 0.109732
237.9851	280.1128	314.7911	399.7757	500.393	547.8703	589.4674	658.7456	674.9475	705.8544	737.6138	765.8166	807.9457	830.3574	871.2172	895.4836	945.1352	971.6787	993.0385	1019.6371	1040.268	1055.5436	1097.4801	1134.1415	1189.7307	1218.738	1233.7795	1288.1861	1339.2936	1421.2115	1528.165	3146.6363	3188.7308	3224.3136	3236.81	3792.0709
OC12C3C4N=C1OC2C34	O[C@@]12[C@H]3[C@H]4[N][C]1O[C@@H]2[C@@H]34	
InChI=1S/C6H5NO2/c8-6-2-1-3(2)7-5(6)9-4(1)6/h1-4,8H	InChI=1S/C6H5NO2/c8-6-2-1-3(2)7-5(6)9-4(1)6/h1-4,8H/t1-,2+,3-,4+,6+/m0/s1
