16
gdb 104941	3.11319	0.85795	0.72681	4.8853	85.97	-0.2648	-0.0484	0.2164	1523.6528	0.122536	-400.708923	-400.699742	-400.698798	-400.743484	32.644	
C	 0.1554227406	 1.263761135	 0.2746451893	-0.256825
O	-0.204961041	-0.0382022347	-0.1686794181	-0.25939
C	 0.5855643233	-0.5276487009	-1.2064879281	 0.218471
C	 1.9338154744	-1.1447514329	-0.8439971739	-0.313483
C	 0.7725400159	-2.0280084391	-1.2023727856	-0.306787
C	 0.4581100941	 0.1535950819	-2.4650048636	 0.180975
C	 0.3357627774	 0.7504666442	-3.5106748222	-0.06818
C	 0.2073636556	 1.413036538	-4.6959518744	 0.20081
N	 0.1002534825	 1.9784634027	-5.7057300992	-0.337482
H	 1.1948970687	 1.2932558658	 0.6280483046	 0.114433
H	 0.0292880653	 2.0090422772	-0.5207393149	 0.129012
H	-0.5151424083	 1.5044392956	 1.1013610192	 0.13852
H	 2.7513713472	-1.0412850101	-1.5472970333	 0.138079
H	 2.2051917601	-1.0703633243	 0.2027961153	 0.13731
H	 0.2581618343	-2.5408465885	-0.3983255102	 0.144722
H	 0.77737762	-2.53864864	-2.1574355849	 0.139814
69.653	94.2342	123.8721	189.4324	221.152	242.2692	264.2671	340.4228	432.5601	528.4526	539.647	566.3877	601.1292	617.4682	773.3748	835.0561	890.8217	951.193	958.9481	1051.8001	1070.3115	1087.9006	1101.5494	1182.6752	1194.939	1220.7012	1270.646	1332.5582	1449.5474	1473.8577	1483.3958	1487.3368	1507.0395	2257.1472	2387.3288	3004.9833	3065.9838	3135.4294	3144.7173	3151.1224	3235.3912	3250.4208
COC1(CC1)C#CC#N	COC1(CC1)C#CC#N	
InChI=1S/C7H7NO/c1-9-7(4-5-7)3-2-6-8/h4-5H2,1H3	InChI=1S/C7H7NO/c1-9-7(4-5-7)3-2-6-8/h4-5H2,1H3
