15
gdb 84192	3.73574	1.07346	0.86657	2.2601	77.72	-0.2472	-0.0436	0.2036	1263.9121	0.11059	-420.619564	-420.611156	-420.610211	-420.652785	31.342	
O	 0.2848375352	 1.4155436232	-0.19573621	-0.438526
C	 0.1101218465	 0.0431283768	 0.0566523413	 0.02866
C	 0.7214562009	-0.4516922643	 1.3377629205	-0.203021
C	-0.1028278382	-1.2741245353	 2.0127006058	 0.168952
C	-1.4535585257	-1.4154359933	 1.3256170084	-0.428097
C	-1.3700565801	-0.3249374695	 0.2614136662	 0.349757
O	-2.274638243	 0.2614840311	-0.2730514222	-0.309744
C	 0.188023363	-1.9572383122	 3.2166080355	 0.206889
C	 0.3886965223	-2.5579946571	 4.2415658079	-0.395549
H	-0.5457652117	 1.7187282961	-0.5895279398	 0.295624
H	 0.4933482011	-0.5547326225	-0.7942968518	 0.102074
H	 1.728603189	-0.1966455063	 1.6408682764	 0.122814
H	-1.5784976108	-2.3993720805	 0.8543574052	 0.149468
H	-2.3098881965	-1.267621208	 1.9902062977	 0.150244
H	 0.5820181378	-3.0799989082	 5.1460716387	 0.200455
78.9031	111.9025	145.2319	250.1624	291.592	343.5433	418.8157	445.1502	501.6579	539.2443	555.2883	613.5144	617.8994	646.245	699.9613	770.3879	867.7976	887.2701	963.5553	1028.0718	1087.6399	1117.3075	1153.2895	1182.9257	1220.1882	1271.328	1310.2813	1340.2146	1410.1986	1449.2083	1656.1106	1853.1776	2224.3575	2901.7973	3031.6234	3091.8778	3223.7205	3501.4753	3740.301
OC1C=C(CC1=O)C#C	O[C@H]1C=C(CC1=O)C#C	
InChI=1S/C7H6O2/c1-2-5-3-6(8)7(9)4-5/h1,3,6,8H,4H2	InChI=1S/C7H6O2/c1-2-5-3-6(8)7(9)4-5/h1,3,6,8H,4H2/t6-/m0/s1
