13
gdb 7230	3.88551	1.49266	1.10744	3.4468	58.56	-0.2832	-0.089	0.1943	1003.5646	0.092518	-435.775202	-435.7669	-435.765956	-435.808867	27.956	
C	 0.1668949869	 1.1737122516	 0.1882780262	-0.469216
C	-0.2707198145	-0.2665718113	 0.1859919512	 0.350321
O	 0.4921831606	-1.2049965284	 0.1930278808	-0.290038
C	-1.7738137789	-0.5218599896	 0.1846028183	 0.285225
N	-2.5828672234	 0.448135298	 0.1869043204	-0.457159
O	-2.1744985804	-1.8262369111	 0.299955684	-0.201048
C	-1.562743672	-2.8407478179	-0.4151139724	 0.181125
O	-1.7518174877	-3.9764749168	-0.1281262029	-0.243734
H	 1.2558035901	 1.2172627475	 0.1663152579	 0.147142
H	-0.2591497584	 1.6994912129	-0.6708289149	 0.163306
H	-0.2185701019	 1.680177331	 1.0780249409	 0.166234
H	-3.550727316	 0.1185242432	 0.2126642099	 0.247688
H	-0.9814114945	-2.476249439	-1.2702121393	 0.120152
59.7662	85.8536	129.4776	133.3319	281.053	300.9264	383.1082	409.427	435.2595	600.7271	620.8679	694.9159	773.1931	939.6335	976.2275	1009.3381	1044.7327	1053.491	1113.7152	1193.4439	1346.4848	1391.617	1421.6629	1453.3085	1461.4484	1726.6855	1803.5326	1882.826	3057.1376	3073.3442	3122.0927	3165.8796	3466.3116
CC(=O)C(=N)OC=O	CC(=O)[C]([NH])OC=O	
InChI=1S/C4H5NO3/c1-3(7)4(5)8-2-6/h2,5H,1H3	InChI=1S/C4H5NO3/c1-3(7)4(5)8-2-6/h2,5H,1H3
