21
gdb 107307	3.35989	1.12988	0.94758	1.9164	84.23	-0.2315	0.0094	0.2409	1332.8969	0.18143	-387.098258	-387.089144	-387.0882	-387.131995	34.779	
C	 0.0053479456	 1.4865870739	-0.4032964394	-0.379928
C	 0.0179214072	 0.0486690418	 0.1329981516	-0.277662
C	-1.366765821	-0.5328886994	 0.2694506544	 0.428598
C	-2.3541011954	 0.0031490908	 1.3111203693	-0.375118
C	-3.2710364309	-1.1770953859	 1.5960003718	 0.313304
C	-4.4427497996	-1.0503681538	 2.5154263233	-0.485687
C	-2.8926250805	-2.2586226385	 0.9030581518	-0.191193
C	-1.7286581712	-1.9422920258	 0.029056184	-0.074706
O	-2.0105345939	-0.91262995	-0.9562164461	-0.309138
H	 1.0233966925	 1.8673227143	-0.5272886035	 0.111814
H	-0.494923387	 1.5269194582	-1.3754591084	 0.134513
H	-0.5225579918	 2.1642661214	 0.2759534086	 0.116144
H	 0.5959647136	-0.5903220374	-0.5432791023	 0.104947
H	 0.5175592601	 0.0164063584	 1.1097798362	 0.096339
H	-1.8364760335	 0.3366759372	 2.2213668379	 0.104478
H	-2.9123855652	 0.8671846035	 0.9307174715	 0.120857
H	-5.1615199781	-0.3106808168	 2.1401446188	 0.13088
H	-4.9676648257	-2.0023249124	 2.6318004721	 0.12549
H	-4.1324661692	-0.7048097909	 3.5099688561	 0.124071
H	-3.3813972297	-3.2253738351	 0.9281680333	 0.093111
H	-1.0177535762	-2.6974276835	-0.2946130611	 0.088889
73.6205	126.0354	162.7763	189.5674	224.3878	297.8578	314.4889	372.609	420.9802	426.4051	506.4208	611.0368	684.6531	723.8178	783.6463	821.936	865.6419	877.447	915.0704	952.6593	960.5115	977.123	1031.6673	1047.1389	1052.1855	1093.4851	1106.9834	1178.1094	1194.1697	1223.0455	1261.7252	1287.0047	1332.1799	1336.8838	1362.9886	1406.8197	1412.6239	1441.5558	1462.6	1473.643	1478.8454	1486.8428	1498.8391	1508.5517	1698.1272	3013.4138	3018.0174	3026.8678	3037.1416	3057.2539	3062.797	3070.5443	3105.6113	3111.4476	3115.8792	3153.2963	3201.8023
CCC12CC(C)=CC1O2	CC[C@]12CC(=C[C@H]1O2)C	
InChI=1S/C8H12O/c1-3-8-5-6(2)4-7(8)9-8/h4,7H,3,5H2,1-2H3	InChI=1S/C8H12O/c1-3-8-5-6(2)4-7(8)9-8/h4,7H,3,5H2,1-2H3/t7-,8+/m1/s1
