18
gdb 116257	2.14439	1.56342	1.11423	4.0679	71.53	-0.2697	0.0136	0.2833	1143.6563	0.147576	-439.084921	-439.075805	-439.074861	-439.120089	31.768	
C	-0.084344097	 1.4140785053	 0.0198917391	-0.247307
O	 0.2309541075	 0.0369016646	 0.1014574864	-0.23207
C	 0.7169355466	-0.5146271835	-1.0872772478	 0.134837
C	 1.2228586171	-1.9455164396	-0.8454409264	-0.285529
C	 0.8947863386	-2.6921532813	-2.1545568867	-0.083694
O	 0.2335227132	-1.74864871	-3.0195870302	-0.242653
C	-0.3313604742	-0.735209759	-2.2230858312	-0.098451
C	-1.6546113857	-1.118164446	-1.6801875476	 0.287198
N	-2.6907839693	-1.4282436489	-1.2737568985	-0.324658
H	 0.7805701919	 2.0042950223	-0.3182490076	 0.110703
H	-0.9292888016	 1.6054567937	-0.6562014035	 0.119639
H	-0.3644576552	 1.7355963143	 1.024761464	 0.141033
H	 1.5107972736	 0.1178396674	-1.5133529834	 0.084491
H	 2.2871203228	-1.9627781301	-0.6058943277	 0.120595
H	 0.6762976778	-2.3597797712	 0.0050568004	 0.141138
H	 1.7804426339	-3.0398071818	-2.6915444681	 0.120701
H	 0.2380119195	-3.551628049	-1.9760199928	 0.122361
H	-0.4650465994	 0.1449125228	-2.8582215485	 0.131664
35.2813	80.6075	110.405	141.0864	200.548	235.169	276.8575	375.6751	439.1129	509.42	601.5562	678.8396	709.4489	819.4176	872.6164	924.7069	936.3684	988.5434	1026.7424	1077.8139	1109.3336	1111.6471	1167.259	1182.3958	1213.3282	1230.0503	1247.8261	1275.1438	1298.1953	1327.443	1363.191	1383.3939	1401.323	1480.9604	1494.1721	1497.1995	1504.2848	1526.7259	2353.6177	2983.4762	2990.0551	3035.97	3041.2534	3079.4302	3081.7229	3096.7812	3129.4156	3132.547
COC1CCOC1C#N	CO[C@H]1CCO[C@H]1C#N	
InChI=1S/C6H9NO2/c1-8-5-2-3-9-6(5)4-7/h5-6H,2-3H2,1H3	InChI=1S/C6H9NO2/c1-8-5-2-3-9-6(5)4-7/h5-6H,2-3H2,1H3/t5-,6-/m0/s1
