15
gdb 33438	2.17783	1.99692	1.18682	5.1056	74.46	-0.3202	-0.0173	0.3029	1007.2856	0.113981	-379.638669	-379.631337	-379.630393	-379.670471	28.004	
N	-0.0500695244	-1.1570752647	-0.0678749658	-0.328521
C	-0.0430822078	-0.0020301606	-0.0406549489	 0.237384
C	-0.0271752873	 1.4586331079	 0.000422636	 0.074601
C	-1.0099453603	 1.99519035	-0.9385909159	 0.237357
N	-1.7849700584	 2.4265729408	-1.6789723522	-0.328513
C	 0.0758585269	 2.1479068667	 1.4226362675	-0.060636
C	 1.5304565356	 1.6021128351	 1.506211534	-0.255373
C	 1.3854560259	 2.1718101076	 0.0656731045	-0.060633
C	 0.662833068	 3.3947627316	 0.7004511618	-0.255375
H	-0.707825669	 2.1079185118	 2.1775187028	 0.113301
H	 2.2007194748	 2.1577269578	 2.1628660363	 0.116497
H	 1.6605779703	 0.5247875035	 1.6128139062	 0.140056
H	 2.1124912117	 2.159396765	-0.7448040726	 0.113302
H	-0.007841501	 3.9720195152	 0.0633556537	 0.140041
H	 1.2900023551	 4.0394176823	 1.3170848724	 0.116511
143.4298	147.1317	192.8066	195.2564	424.7972	497.4444	505.8608	534.1637	547.1552	602.5413	614.1143	788.7463	814.0661	894.9396	904.7821	907.752	1005.128	1010.0837	1024.48	1075.0236	1101.9504	1112.7432	1151.6915	1179.5319	1191.8888	1204.0949	1237.0852	1238.5404	1257.8178	1506.479	1544.6058	2357.5246	2360.5525	3086.4063	3086.8395	3135.1546	3137.4903	3155.3526	3156.2552
N#CC1(C#N)C2CC1C2	N#CC1(C#N)[C@H]2C[C@@H]1C2	
InChI=1S/C7H6N2/c8-3-7(4-9)5-1-6(7)2-5/h5-6H,1-2H2	InChI=1S/C7H6N2/c8-3-7(4-9)5-1-6(7)2-5/h5-6H,1-2H2/t5-,6+
