18
gdb 115542	2.75683	1.0899	1.02996	2.2768	73.27	-0.2691	0.0023	0.2714	1266.2473	0.145548	-439.075676	-439.066071	-439.065127	-439.110656	34.202	
C	 0.2155966661	 1.5258978805	 0.1640590266	-0.393274
C	 0.0003928486	 0.0119657855	 0.0607291073	-0.188382
C	 0.529152444	-0.5305567388	-1.2522576794	 0.118045
O	 1.9608178538	-0.3779260963	-1.4028199734	-0.284621
C	 2.1467328848	-1.7697773027	-1.6921143889	-0.109262
C	 0.648177584	-2.0797738949	-1.415698042	 0.172148
O	 0.371333604	-2.755563556	-0.2134251496	-0.448855
C	-0.0965276794	-2.6666754262	-2.5343315606	 0.230426
N	-0.6730177821	-3.1561639898	-3.4086501739	-0.331375
H	 1.2777050239	 1.7706434203	 0.0757959471	 0.139627
H	-0.3208366103	 2.0602130235	-0.6276078885	 0.117341
H	-0.1430199149	 1.9030891975	 1.125777834	 0.118245
H	 0.4986711708	-0.5044493299	 0.8854319892	 0.119046
H	-1.0668043251	-0.2316078135	 0.1284343142	 0.110848
H	 0.0060705101	-0.0696923441	-2.1009470868	 0.093593
H	 2.4789729959	-1.9457085017	-2.7217826707	 0.119985
H	 2.8246245141	-2.2617140417	-0.9854894513	 0.117006
H	 0.5049577219	-3.7006635114	-0.3488138833	 0.299459
52.103	85.4556	142.8174	167.1204	201.8887	227.4152	262.1087	297.9113	385.5879	403.5878	479.8845	549.9506	599.8306	641.1203	769.2514	851.7292	915.0279	918.7054	955.8681	1003.4446	1037.785	1053.4007	1108.4417	1128.2842	1154.6102	1165.0315	1216.2088	1279.5691	1294.2926	1319.2701	1347.5041	1373.9603	1405.2126	1413.0645	1476.5211	1498.6696	1507.3776	1509.3018	2350.9427	3015.268	3025.559	3039.2561	3043.8792	3080.1822	3093.9567	3113.2484	3122.9202	3803.6928
CCC1OCC1(O)C#N	CC[C@H]1OC[C@]1(O)C#N	
InChI=1S/C6H9NO2/c1-2-5-6(8,3-7)4-9-5/h5,8H,2,4H2,1H3	InChI=1S/C6H9NO2/c1-2-5-6(8,3-7)4-9-5/h5,8H,2,4H2,1H3/t5-,6-/m1/s1
