18
gdb 53424	2.68711	1.0628	0.90286	3.102	81.77	-0.2463	0.0217	0.268	1373.1113	0.147894	-401.947329	-401.938142	-401.937198	-401.983463	32.295	
C	-0.062894502	 1.4626262989	 0.1332237908	-0.496544
C	-0.0355035855	 0.0094070513	 0.0506788542	 0.014201
C	-0.0205069972	-1.1913247571	-0.0363971506	 0.127436
C	 0.0031525481	-2.6497719405	-0.1142626834	-0.252947
C	 0.6898226402	-3.2986820552	 1.1107040222	-0.238811
C	-0.4767500332	-3.3931006017	 2.0979693531	-0.079756
O	-1.6384638674	-3.6264997397	 1.2816881969	-0.237885
C	-1.4113321721	-3.22726101	-0.0035393082	 0.418111
N	-2.231570891	-3.3316445011	-0.9541717489	-0.537036
H	 0.4972866938	 1.825003707	 1.0022361324	 0.146136
H	 0.3792178747	 1.9178507899	-0.7597301039	 0.151592
H	-1.0896252034	 1.8344256421	 0.2207677069	 0.152878
H	 0.4445014389	-2.9682147447	-1.0616995747	 0.128785
H	 1.0442826159	-4.2997161076	 0.8470539223	 0.116585
H	 1.527799205	-2.7151813605	 1.4927792693	 0.121492
H	-0.3944831443	-4.2204973405	 2.8059134304	 0.120738
H	-0.6142140003	-2.4581881224	 2.6535548627	 0.122852
H	-3.1087650302	-3.7412020881	-0.6275188216	 0.222174
15.6787	69.9772	89.8496	149.2874	211.5206	257.7806	305.8326	406.709	437.376	499.505	612.7495	669.9797	675.2697	786.3784	863.4778	890.3731	908.5961	932.1057	970.6515	1031.5642	1051.6364	1053.5465	1080.6929	1106.5928	1169.938	1194.1883	1218.1081	1266.2197	1280.2288	1322.2778	1345.8848	1405.9228	1414.9465	1477.7495	1478.2209	1487.4413	1519.3327	1779.8099	2371.4534	3027.7078	3040.7036	3062.2324	3083.4254	3088.368	3090.2121	3109.4315	3136.1037	3470.8158
CC#CC1CCOC1=N	CC#C[C@H]1CCO[C]1[NH]	
InChI=1S/C7H9NO/c1-2-3-6-4-5-9-7(6)8/h6,8H,4-5H2,1H3	InChI=1S/C7H9NO/c1-2-3-6-4-5-9-7(6)8/h6,8H,4-5H2,1H3/t6-/m0/s1
