16
gdb 44803	2.9977	1.38169	1.12897	2.7686	69.2	-0.243	-0.0214	0.2216	1082.3427	0.123725	-437.825254	-437.817456	-437.816512	-437.858233	28.945	
O	-0.0568321626	 0.1571973236	 1.2941513048	-0.304274
C	-0.0415424243	 1.1944984246	 0.7004206149	 0.389762
C	-1.143152685	 2.0934003448	 0.0654897594	-0.34329
C	 0.0030191175	 2.8539185027	-0.6185302295	-0.116614
N	 0.7945575113	 3.4318057645	 0.4733306537	-0.36845
C	 1.0582888396	 2.0092269005	 0.0436184163	 0.221146
C	 2.4125732347	 1.5960283447	-0.3975195378	-0.082461
C	 2.6815865861	 1.1694799634	-1.77806584	-0.167526
O	 3.0363095683	 2.4827889572	-1.3323021608	-0.236739
H	-1.7702400337	 1.5030306634	-0.6085822547	 0.131614
H	-1.7634682625	 2.6803145603	 0.7454435411	 0.137856
H	 0.0259197194	 3.2629947485	-1.6196817132	 0.121019
H	 1.5540999894	 3.9640363557	 0.0418606899	 0.252933
H	 3.0715126087	 1.2333390163	 0.3914523104	 0.117852
H	 3.520549602	 0.5068094237	-1.9822351443	 0.127926
H	 1.8606210913	 1.1260792161	-2.4908894405	 0.119247
62.1782	117.8441	166.4627	176.71	323.6759	414.5768	466.2384	559.2641	562.4267	637.7754	667.5484	807.6758	847.1221	862.3669	886.574	920.9267	957.6834	993.2782	1000.3729	1046.3383	1055.136	1097.242	1111.2089	1155.0659	1169.9541	1176.4556	1209.2841	1269.1873	1293.032	1336.8043	1382.5865	1441.6889	1465.0712	1523.4741	1891.7594	3070.239	3093.1901	3113.8256	3133.3395	3185.6267	3213.8003	3443.9464
O=C1CC2NC12C1CO1	O=C1C[C@H]2N[C@@]12[C@H]1CO1	
InChI=1S/C6H7NO2/c8-4-1-3-6(4,7-3)5-2-9-5/h3,5,7H,1-2H2	InChI=1S/C6H7NO2/c8-4-1-3-6(4,7-3)5-2-9-5/h3,5,7H,1-2H2/t3-,5-,6-/m1/s1
