23
gdb 117950	2.37242	0.93656	0.70441	2.6959	83.58	-0.2387	-0.0093	0.2294	1688.9614	0.201373	-425.450894	-425.439288	-425.438344	-425.489248	40.262	
C	-1.0260720911	 0.7349567759	 0.2088544919	-0.385202
C	 0.0961839852	-0.2647946687	-0.0145514124	-0.036993
O	 0.4577543725	-0.8156826368	 1.239400349	-0.258184
C	 1.3996488892	-1.8701725223	 1.1867586829	 0.042592
C	 2.830284155	-1.3992219867	 0.9114032814	-0.401629
C	 1.3239269692	-2.6666689541	 2.5031612138	 0.353805
O	 2.1912705446	-3.468448987	 2.7675939646	-0.314739
C	 0.1277373494	-2.4286749829	 3.4048555375	-0.269317
C	 0.1221256872	-3.3215985939	 4.6420930276	-0.382518
H	-0.699049012	 1.5342513542	 0.8799400438	 0.128608
H	-1.3304315964	 1.1834802693	-0.7414745933	 0.117221
H	-1.8949825561	 0.2450904544	 0.6573431967	 0.125352
H	-0.2297067434	-1.0689072133	-0.6956659044	 0.087576
H	 0.9576259338	 0.2306217564	-0.4871501208	 0.09526
H	 1.1014516984	-2.5871852754	 0.3990720714	 0.091369
H	 3.1113805401	-0.6181448807	 1.6244676838	 0.123811
H	 3.5136954302	-2.2422137411	 1.0282314486	 0.146774
H	 2.9318269359	-0.9995831331	-0.1005842122	 0.114142
H	 0.1213304017	-1.3631883906	 3.6664310282	 0.135571
H	-0.7796136172	-2.5578559475	 2.8007246768	 0.122923
H	 0.1048489168	-4.3787682916	 4.3640161811	 0.126998
H	 1.0204067268	-3.1619012819	 5.2441022044	 0.129293
H	-0.7530546597	-3.1127126426	 5.2637668196	 0.107289
30.1084	62.4909	72.9917	89.6967	134.943	187.6112	210.0269	230.4629	250.2319	301.3736	318.891	374.3071	412.4744	477.925	555.4766	639.4897	749.3679	802.1098	823.6992	863.9674	936.0094	989.0264	1003.1838	1026.61	1079.7466	1100.3855	1123.6342	1144.0395	1155.93	1184.0249	1189.8966	1263.496	1299.3573	1323.7738	1344.7124	1370.9822	1391.2471	1402.3164	1413.514	1432.618	1438.1548	1483.7412	1492.0709	1492.2708	1495.6203	1497.837	1500.4548	1530.1089	1804.3232	2932.8555	2963.8721	3003.3533	3037.15	3045.2585	3049.413	3049.9221	3061.3369	3119.9943	3120.2014	3120.9168	3122.092	3124.0901	3145.3712
CCOC(C)C(=O)CC	CCO[C@@H](C)C(=O)CC	
InChI=1S/C7H14O2/c1-4-7(8)6(3)9-5-2/h6H,4-5H2,1-3H3	InChI=1S/C7H14O2/c1-4-7(8)6(3)9-5-2/h6H,4-5H2,1-3H3/t6-/m0/s1
