16
gdb 25157	3.52979	1.41243	1.09716	4.3987	69.94	-0.2103	0.0235	0.2337	1077.6208	0.125383	-437.916212	-437.908706	-437.907762	-437.948866	28.509	
O	-0.1021024813	 0.1049506701	-0.7409810167	-0.424214
C	-0.0333398884	 1.2723829099	-0.4467183299	 0.495238
O	-1.1208942078	 2.1183698185	-0.3662595062	-0.211581
C	-0.6714477441	 3.3694725476	-0.0072988543	-0.045618
C	 0.6573968367	 3.3403591495	 0.1408225421	-0.127225
N	 1.0708396321	 2.0355197166	-0.1309246138	-0.131201
C	 2.4328534977	 1.5663248609	-0.0876431849	 0.060097
C	 2.7909388907	 0.1895396704	 0.4005271106	-0.283923
C	 2.9611537318	 0.5488164601	-1.0610279753	-0.283926
H	-1.4092312703	 4.1443764281	 0.0968792984	 0.155281
H	 1.353901513	 4.1151021552	 0.4120655885	 0.151614
H	 3.0948559853	 2.3785227513	 0.1890268732	 0.103997
H	 3.667327616	 0.0949045539	 1.0318217265	 0.11571
H	 1.9736704597	-0.4810365034	 0.631995617	 0.155035
H	 2.2502190774	 0.1030679408	-1.7444783218	 0.154984
H	 3.9572075915	 0.7068903506	-1.4590682833	 0.115732
47.4318	130.4419	200.4678	253.6956	378.6868	416.6527	492.5421	586.7917	650.8298	677.9953	764.3533	764.5764	777.255	782.3573	814.2181	903.6074	913.192	948.2629	1010.1168	1068.9217	1074.4398	1093.5434	1122.4062	1127.6148	1157.8991	1198.5042	1210.1417	1268.4418	1310.6734	1421.1122	1442.9474	1451.428	1504.6413	1655.4733	1854.4866	3146.1095	3148.463	3177.0865	3241.9674	3252.6577	3281.8361	3312.4177
O=C1OC=CN1C1CC1	O=c1occn1C1CC1	
InChI=1S/C6H7NO2/c8-6-7(3-4-9-6)5-1-2-5/h3-5H,1-2H2	InChI=1S/C6H7NO2/c8-6-7(3-4-9-6)5-1-2-5/h3-5H,1-2H2
