14
gdb 5742	3.98475	2.18258	1.43935	2.7631	64.23	-0.1941	0.0481	0.2422	816.2041	0.109233	-378.714755	-378.708059	-378.707115	-378.745943	24.672	
O	 0.0049719907	 1.4174380933	-0.1181214293	-0.433127
C	 0.0862137508	 0.0732940112	 0.0216446167	 0.291991
C	 1.1123486619	-0.8511335572	-0.0544716004	-0.229335
N	 0.6568853204	-2.1504393291	 0.184061111	-0.355907
C	-0.623252344	-1.9760018099	 0.3539959692	 0.362585
C	-1.9750657225	-2.4688776417	 0.8435699575	-0.363237
C	-2.381915932	-0.9420338713	 0.7951025015	-0.169673
N	-1.0324138028	-0.681301697	 0.2466670607	-0.045927
H	 0.8835540681	 1.7540139754	-0.3212364627	 0.309804
H	 2.1488074415	-0.6550440887	-0.2860754412	 0.097058
H	-2.5353941283	-3.1138282114	 0.1623711618	 0.131195
H	-1.9884114563	-2.9050684155	 1.8450551951	 0.134378
H	-3.1916412751	-0.6734989426	 0.1132163179	 0.133015
H	-2.5475984225	-0.4849951553	 1.7734193622	 0.137181
67.752	195.5138	238.0671	286.3841	354.2623	551.053	635.4924	665.3299	678.378	726.8274	752.3379	807.0161	837.1222	899.2393	1046.3217	1065.3459	1114.8175	1136.2762	1158.7412	1178.4611	1218.1105	1254.8322	1266.2406	1287.6739	1388.8631	1479.7804	1495.3718	1519.7361	1585.8264	1598.124	3067.4166	3071.3761	3114.4149	3129.7426	3238.0307	3837.4912
OC1=CN=C2CCN12	Oc1cnc2CCn12	
InChI=1S/C5H6N2O/c8-5-3-6-4-1-2-7(4)5/h3,8H,1-2H2	InChI=1S/C5H6N2O/c8-5-3-6-4-1-2-7(4)5/h3,8H,1-2H2
