17
gdb 32247	2.62113	1.5574	0.98305	2.5577	79.62	-0.2031	0.0118	0.2149	1166.0707	0.137358	-421.888615	-421.880643	-421.879698	-421.921144	30.746	
C	-0.0866847898	 1.3231665335	 0.1315256203	-0.249282
O	 0.025227158	-0.0809697197	 0.0053463848	-0.295035
C	 0.6436200564	-0.5837873516	-1.1106971297	 0.280123
C	 1.1821656863	 0.1600668407	-2.1520665828	-0.249967
C	 1.7852677821	-0.4954570214	-3.2306647915	-0.122588
C	 1.8446922151	-1.8822490183	-3.2592388132	-0.109718
C	 1.3035049956	-2.6311003696	-2.212726549	-0.196771
C	 0.7034950179	-1.9903628302	-1.1389506254	 0.304816
O	 0.1745981668	-2.7131234078	-0.1168358035	-0.444056
H	 0.8998401599	 1.8029651144	 0.157280597	 0.129681
H	-0.672422417	 1.7537891261	-0.6904262028	 0.129668
H	-0.6015759035	 1.5074797739	 1.0758077047	 0.136537
H	 1.1382870611	 1.241827782	-2.1345483183	 0.097084
H	 2.2043493888	 0.0897627289	-4.0414263809	 0.090756
H	 2.3118118946	-2.3921748276	-4.0945572656	 0.09241
H	 1.3383000001	-3.7146784583	-2.2134635277	 0.102471
H	-0.1876038322	-2.0798593348	 0.5167874936	 0.303871
75.0923	179.8279	226.717	243.0869	312.0437	343.9433	455.5528	481.7668	507.7918	539.2383	574.033	593.0646	732.6046	761.1074	772.0987	846.6945	857.2157	904.5105	946.3495	1052.382	1071.5639	1133.0092	1179.2515	1180.5935	1202.8579	1233.8658	1260.437	1300.7478	1334.4314	1408.0388	1482.5083	1488.4309	1501.3992	1509.486	1540.4885	1638.6188	1654.6815	3008.7333	3069.3447	3135.1159	3178.5789	3191.6509	3201.7155	3209.3039	3773.1634
COC1=CC=CC=C1O	COc1ccccc1O	
InChI=1S/C7H8O2/c1-9-7-5-3-2-4-6(7)8/h2-5,8H,1H3	InChI=1S/C7H8O2/c1-9-7-5-3-2-4-6(7)8/h2-5,8H,1H3
