18
gdb 72584	2.17348	1.66771	1.48472	3.4496	71.52	-0.2394	0.0094	0.2488	1016.601	0.147119	-439.103295	-439.094535	-439.09359	-439.136434	32.887	
C	 0.0974820898	 1.592872323	-0.1118512367	-0.473993
C	 0.060031018	 0.1016679124	 0.0419030789	 0.424135
C	 0.5842604351	-0.8613814344	-1.0435428418	-0.271478
C	 1.2702046636	-1.7206995504	 0.0615253044	-0.279828
C	 0.7770774422	-0.7354544721	 1.1651583064	 0.086017
N	 1.7608670018	-0.2566028853	 2.0852557753	-0.598511
C	-0.6582362043	-1.0526741535	 1.6018646972	 0.397042
O	-1.2060462514	-1.6083469538	 2.5016910196	-0.340625
O	-1.2373536355	-0.3872992135	 0.5471284819	-0.299101
H	 1.1188151949	 1.919411699	-0.3287011829	 0.133265
H	-0.551327913	 1.918351987	-0.9319568486	 0.133845
H	-0.23491818	 2.0874530793	 0.8055334273	 0.129066
H	-0.2029607169	-1.3473884839	-1.6220895419	 0.121078
H	 1.2963732777	-0.3966544811	-1.7289488707	 0.112487
H	 0.941634126	-2.7560734392	 0.1679542205	 0.122325
H	 2.3603159611	-1.6998993136	-0.0074377429	 0.118427
H	 1.3372317681	 0.1202548853	 2.926940476	 0.244075
H	 2.3804198427	-1.0069161452	 2.3723418781	 0.241774
107.2051	135.6205	175.7339	187.459	216.5562	274.5912	313.5431	369.9755	412.0016	562.0049	620.6783	632.979	714.8113	742.8874	770.5196	793.8504	846.4337	884.9256	924.5488	950.4445	978.4985	1000.8959	1048.6485	1140.1873	1182.488	1209.2491	1224.5582	1236.2171	1261.8419	1284.5251	1327.2903	1372.7161	1413.5278	1464.9615	1479.2279	1484.6814	1488.4804	1663.489	1919.1608	3038.0335	3068.8044	3076.3118	3107.9239	3118.7922	3121.0953	3138.0315	3506.7166	3584.8104
CC12CCC1(N)C(=O)O2	C[C@@]12CC[C@]1(N)C(=O)O2	
InChI=1S/C6H9NO2/c1-5-2-3-6(5,7)4(8)9-5/h2-3,7H2,1H3	InChI=1S/C6H9NO2/c1-5-2-3-6(5,7)4(8)9-5/h2-3,7H2,1H3/t5-,6+/m1/s1
