16
gdb 81636	4.55003	0.89704	0.81963	4.0365	67.75	-0.2675	-0.002	0.2656	1352.9136	0.124188	-474.962525	-474.954709	-474.953765	-474.996056	28.941	
O	 0.0566326198	 1.4526763766	-0.1479789274	-0.44757
C	 0.0896335302	 0.0738689299	-0.0592315426	 0.220523
C	 0.0781866209	-0.5919710976	 1.3593994481	-0.136376
N	-1.3527945151	-0.0831593519	 1.4615241461	-0.358062
C	-1.2625752652	-0.7066885968	 0.0758624859	-0.136385
C	-0.473119431	-1.87785438	 0.7030244372	 0.165246
O	 0.3913231923	-2.6321297996	-0.1324643714	-0.205441
C	 0.3919290602	-3.9765972405	-0.0135020939	 0.168547
O	 1.0873505281	-4.6823142623	-0.6767115624	-0.268469
H	-0.5958305915	 1.7400169941	 0.5078469757	 0.293831
H	 0.8093163367	-0.3143381282	-0.7763122137	 0.120743
H	 0.7882062412	-0.4892541973	 2.1802030567	 0.096702
H	-1.9057780238	-0.6719398	 2.0917819552	 0.217862
H	-2.1167424066	-0.7378323513	-0.6007684153	 0.096697
H	-1.0522036552	-2.530064367	 1.3662468279	 0.090518
H	-0.315960501	-4.3379646281	 0.7576713538	 0.081633
34.8576	130.0525	143.4184	302.1185	317.7344	357.1915	404.1871	461.4406	589.3591	676.5404	736.574	781.1394	809.7501	865.7606	911.8524	924.2043	932.4992	1039.7724	1042.0987	1076.0404	1113.9496	1129.1783	1145.065	1160.2543	1162.6267	1193.2735	1198.3356	1262.9083	1274.5677	1284.0856	1343.8656	1390.1629	1444.2225	1467.075	1871.9989	2949.0162	3052.809	3120.0265	3123.8495	3159.879	3396.8105	3731.7785
OC1C2NC1C2OC=O	O[C@H]1[C@H]2N[C@@H]1[C@H]2OC=O	
InChI=1S/C5H7NO3/c7-1-9-5-2-4(8)3(5)6-2/h1-6,8H	InChI=1S/C5H7NO3/c7-1-9-5-2-4(8)3(5)6-2/h1-6,8H/t2-,3+,4+,5+
