17
gdb 99390	7.8635	0.54794	0.51722	3.9508	67.4	-0.2602	-0.0313	0.2289	2026.0994	0.131178	-496.116882	-496.106308	-496.105364	-496.15501	33.745	
C	 0.0984978876	 1.3291580404	 0.1079476353	-0.240359
O	-0.0550880703	-0.0954354095	 0.0364278104	-0.234064
C	-1.3280728423	-0.5358260951	 0.0109791247	 0.414861
O	-2.2985959216	 0.1680609779	 0.0433620858	-0.332512
C	-1.321770262	-2.0551563194	-0.064603996	-0.175935
O	-2.6415173666	-2.5167940827	-0.0920636025	-0.227699
C	-2.7429746565	-3.9165529724	-0.1595901867	-0.140393
C	-4.2191926826	-4.2786944624	-0.1815190407	 0.13794
O	-4.6213454308	-5.4094951743	-0.2396761437	-0.23651
H	 1.1728531766	 1.5111106218	 0.1212144295	 0.136699
H	-0.3611374009	 1.809064214	-0.7595513858	 0.144725
H	-0.36817403	 1.7207567995	 1.0151244018	 0.144765
H	-0.7591324312	-2.358315628	-0.9628175	 0.125052
H	-0.7652067978	-2.4461375234	 0.8029420683	 0.125011
H	-2.2633053836	-4.3247937402	-1.0653214199	 0.124946
H	-2.269061169	-4.4095504634	 0.7061791176	 0.12491
H	-4.8943089892	-3.3968769429	-0.1384132881	 0.108563
32.7905	53.8437	82.1411	85.9317	108.3849	115.5416	168.993	227.7196	291.8418	333.7068	458.5053	561.0892	599.3208	718.0352	743.2016	909.9765	1001.1172	1037.383	1040.573	1097.3239	1116.3966	1179.6834	1201.4085	1209.5619	1229.779	1233.672	1253.3607	1345.2268	1399.62	1427.8248	1471.3185	1475.2178	1482.3726	1498.0432	1505.2634	1846.1436	1853.0184	2912.1747	2960.8635	2974.0049	2990.8517	3000.3964	3054.1708	3129.7553	3162.8943
COC(=O)COCC=O	COC(=O)COCC=O	
InChI=1S/C5H8O4/c1-8-5(7)4-9-3-2-6/h2H,3-4H2,1H3	InChI=1S/C5H8O4/c1-8-5(7)4-9-3-2-6/h2H,3-4H2,1H3
