17
gdb 52913	2.2609	1.12635	0.8492	1.8284	83.53	-0.2516	0.0252	0.2768	1403.7155	0.132724	-384.601781	-384.591814	-384.590869	-384.639508	34.205	
C	 0.0396512322	 1.517191523	-0.0447297106	-0.500873
C	 0.0376619825	 0.0617949442	-0.0318746457	 0.088741
C	 0.0433090011	-1.1419706769	-0.0286287998	 0.011137
C	 0.0280311039	-2.5979335584	-0.0018272389	-0.087674
C	 0.0874374866	-3.2424134427	 1.4314868965	-0.091977
O	-1.2215852438	-3.8107109297	 1.2944320397	-0.263146
C	-1.4014568164	-3.2534534303	-0.014157741	-0.092
C	 0.9624616598	-3.1745854114	-0.9597834787	 0.269606
C	 1.7242203462	-3.678562152	-1.7404534166	-0.449496
H	 0.8335180135	 1.9052127975	-0.6920860265	 0.15377
H	-0.9132733639	 1.9121910639	-0.4134309693	 0.151523
H	 0.2009143797	 1.9230981615	 0.9598804314	 0.151367
H	 0.865556187	-4.0032245581	 1.5511381195	 0.116526
H	 0.1449750507	-2.5091488678	 2.2427540454	 0.113527
H	-2.2196194272	-2.5266637999	-0.0531463106	 0.113552
H	-1.5381594764	-4.0210567879	-0.7827380495	 0.116516
H	 2.4011904947	-4.112075505	-2.4343625553	 0.1989
11.4951	37.2136	84.6059	113.0869	182.156	199.4227	298.7758	304.2908	444.5227	467.7065	506.0346	545.9124	559.0286	633.8029	636.2739	822.2307	848.8615	971.7427	977.3783	980.3277	1038.3775	1052.5901	1053.7488	1059.9576	1155.0986	1164.6181	1173.2929	1294.7987	1305.3825	1364.4306	1414.2752	1477.1442	1477.2774	1505.7497	1531.1858	2238.6268	2372.4315	3026.5966	3028.7015	3036.809	3088.6742	3090.3349	3090.414	3091.6088	3502.3168
CC#CC1(COC1)C#C	CC#CC1(COC1)C#C	
InChI=1S/C8H8O/c1-3-5-8(4-2)6-9-7-8/h2H,6-7H2,1H3	InChI=1S/C8H8O/c1-3-5-8(4-2)6-9-7-8/h2H,6-7H2,1H3
