25
gdb 121832	2.22582	0.95461	0.8683	2.3551	85.68	-0.2569	0.0696	0.3264	1553.5561	0.225609	-426.628154	-426.616502	-426.615558	-426.665666	42.557	
C	-0.0640617782	 1.5658699497	-0.1741632787	-0.394329
C	-0.1003644803	 0.0361130683	-0.1195222883	-0.176928
C	-1.5031472206	-0.5861320389	 0.0358472164	 0.368408
C	-1.3786229861	-2.1179695038	 0.03576873	-0.418198
C	-2.1988076259	-0.1040209794	 1.3179644157	-0.423823
O	-2.2116264217	-0.1413823845	-1.1366083412	-0.303043
C	-3.5906024817	-0.4423000478	-1.2647885688	-0.084959
C	-3.9636841915	-0.0750826788	-2.6949612931	-0.05356
O	-3.1920877475	-0.8021147713	-3.6293517335	-0.422627
H	 0.9479593716	 1.9161148125	-0.3990692678	 0.109803
H	-0.7355321948	 1.9384939413	-0.9514169961	 0.129669
H	-0.3614045626	 2.0179965844	 0.7770939434	 0.112584
H	 0.3324899986	-0.3677573189	-1.0426285044	 0.09589
H	 0.5275515694	-0.3262207138	 0.7030838727	 0.091831
H	-0.7410866844	-2.4475354166	 0.8619670666	 0.115343
H	-2.3489312043	-2.6079185714	 0.1561169178	 0.115663
H	-0.9329387882	-2.4639306413	-0.9015460068	 0.118605
H	-2.3967295562	 0.9701229665	 1.2801129819	 0.124745
H	-3.1493753656	-0.6215015093	 1.4766411731	 0.115435
H	-1.566181627	-0.306068186	 2.1878216472	 0.116337
H	-3.784091569	-1.5116998643	-1.1023908619	 0.096105
H	-4.2003346688	 0.1334500196	-0.5527527338	 0.088646
H	-5.0156645257	-0.3186562017	-2.8776001054	 0.104119
H	-3.8392851975	 1.0117648531	-2.8287616598	 0.089456
H	-2.2809340823	-0.7143830574	-3.3240560949	 0.284832
25.5044	76.0531	96.4146	142.0083	175.6078	221.753	231.814	255.638	269.6727	298.6857	341.1775	367.6118	410.2804	458.8119	469.4846	520.4469	538.6277	732.113	775.2976	836.8877	906.9116	915.2304	919.1614	968.2234	997.0779	1011.4893	1067.2129	1071.9395	1088.3465	1117.3036	1137.3361	1206.5181	1215.3943	1230.699	1262.8602	1270.6508	1324.4699	1372.906	1384.6513	1395.6719	1400.6042	1406.6583	1418.7286	1440.3105	1471.3146	1480.8355	1490.2299	1495.235	1500.4341	1501.8301	1507.4348	1511.8444	1517.0637	2975.3296	2989.203	3027.7876	3033.2206	3041.4374	3043.1982	3046.641	3064.7476	3076.4332	3104.1125	3107.7586	3113.9703	3116.8256	3124.0581	3127.7228	3788.0299
CCC(C)(C)OCCO	CCC(C)(C)OCCO	
InChI=1S/C7H16O2/c1-4-7(2,3)9-6-5-8/h8H,4-6H2,1-3H3	InChI=1S/C7H16O2/c1-4-7(2,3)9-6-5-8/h8H,4-6H2,1-3H3
