20
gdb 96492	2.58316	1.53845	1.10154	1.6656	76.67	-0.2537	0.0037	0.2574	1147.59	0.171787	-440.289908	-440.281426	-440.280482	-440.322733	32.619	
C	-0.120003361	 1.5358953197	-0.0078687836	-0.39919
C	-0.0307706406	 0.0234401833	-0.0188483311	 0.205384
O	 0.5666649707	-0.367900382	-1.2161246972	-0.239551
C	 0.453876862	-1.745859314	-1.5701047802	-0.073015
C	 1.7571547119	-2.5173519628	-1.3451549361	-0.201054
C	 2.3807727495	-2.2830263086	 0.0398564283	-0.152976
N	 1.4406667134	-2.5935732145	 1.1132540267	-0.2079
C	 0.7026357405	-1.6644609451	 1.5379168465	 0.088152
O	 0.7335078985	-0.3475598619	 1.1425543616	-0.246268
H	 0.8853109439	 1.9580099092	-0.0806079366	 0.139897
H	-0.7109698632	 1.8788614699	-0.8596956917	 0.127125
H	-0.5830068577	 1.8792677973	 0.9192621452	 0.127132
H	-1.0233490808	-0.4474471015	 0.0717992243	 0.073592
H	-0.3657011287	-2.2081258446	-1.0048515072	 0.103657
H	 0.1833662748	-1.7832577462	-2.631326385	 0.106568
H	 1.5470427629	-3.5833498689	-1.495763749	 0.107757
H	 2.4951036911	-2.2223028693	-2.0993917112	 0.108414
H	 3.2480420008	-2.9402422363	 0.1532166598	 0.102947
H	 2.7213598455	-1.2431065294	 0.0967415833	 0.117701
H	-0.0122277032	-1.8586974743	 2.3402616829	 0.111629
118.8033	136.2285	205.7073	222.3055	265.7266	288.9061	338.697	358.6674	481.5936	522.3895	546.1216	618.3549	720.1089	779.0899	834.5759	855.692	880.4552	943.3114	969.5101	998.3493	1052.1701	1068.6274	1093.92	1113.8899	1120.8654	1167.4308	1180.089	1247.5473	1276.8499	1312.816	1364.1981	1372.3871	1381.6406	1389.9204	1405.2872	1414.6365	1429.7988	1470.4131	1481.9003	1486.9973	1502.5721	1507.2885	1727.5418	2968.2236	3017.1244	3034.0129	3037.9568	3060.2207	3064.2141	3081.0515	3089.8032	3113.1194	3141.2329	3145.3774
CC1OCCCN=CO1	C[C@H]1OCCCN=CO1	
InChI=1S/C6H11NO2/c1-6-8-4-2-3-7-5-9-6/h5-6H,2-4H2,1H3/b7-5-	InChI=1S/C6H11NO2/c1-6-8-4-2-3-7-5-9-6/h5-6H,2-4H2,1H3/b7-5-/t6-/m0/s1
