20
gdb 27278	2.9896	1.54874	1.05305	2.0095	87.3	-0.1875	0.055	0.2425	1164.6599	0.173884	-366.070396	-366.062242	-366.061298	-366.103363	31.143	
C	-0.0943515775	 1.5272627547	 0.0304640663	-0.501335
C	-0.0441016193	 0.0285762659	-0.0036121397	 0.093904
C	 0.0964421203	-0.7754827348	-1.1147468251	 0.292413
C	 0.3068074139	-0.7079082552	-2.5985457012	-0.351703
C	 0.0219643982	-2.1735566935	-3.0362400056	-0.208762
C	 0.3166995612	-3.0356085931	-1.7842326087	-0.177432
N	 0.0879456937	-2.0877024863	-0.7089030462	 0.005145
C	-0.0416357044	-2.1579364255	 0.6506306337	-0.14298
C	-0.1335983562	-0.8613210347	 1.1136612093	-0.233384
H	 0.7661944905	 1.9559856092	 0.5590052983	 0.120707
H	-0.0963525879	 1.9467105166	-0.9803718466	 0.112044
H	-0.9938846879	 1.8935135442	 0.5393240691	 0.120331
H	-0.3534626119	 0.0030398513	-3.1041130397	 0.113943
H	 1.3363931201	-0.4183869189	-2.8497383569	 0.110983
H	-1.0341731555	-2.2757582482	-3.3021109828	 0.117031
H	 0.6144756661	-2.4852463249	-3.8991562314	 0.105136
H	-0.3431280859	-3.9045351188	-1.7018516053	 0.1168
H	 1.3539044664	-3.3971466292	-1.772917595	 0.113224
H	-0.0752689244	-3.1026385854	 1.1694317991	 0.109044
H	-0.2698128596	-0.5723763034	 2.1461434585	 0.084892
67.9874	126.421	171.3145	227.2255	234.7209	285.2749	482.6647	568.8658	603.3652	616.7032	654.0947	697.3067	722.4987	778.3533	792.5501	869.1486	899.3361	920.1926	982.6924	1004.017	1051.8117	1058.9806	1074.9616	1094.3786	1172.3071	1180.6018	1218.7711	1230.2336	1247.1382	1307.6175	1323.5928	1335.5227	1362.5792	1418.5609	1437.6025	1451.2203	1484.7392	1489.4542	1495.4997	1502.5408	1508.9459	1533.6683	1630.9634	3008.2806	3009.7162	3017.8852	3058.	3063.7995	3072.6681	3077.9627	3096.3974	3114.4357	3228.6125	3262.1166
CC1=C2CCCN2C=C1	Cc1c2CCCn2cc1	
InChI=1S/C8H11N/c1-7-4-6-9-5-2-3-8(7)9/h4,6H,2-3,5H2,1H3	InChI=1S/C8H11N/c1-7-4-6-9-5-2-3-8(7)9/h4,6H,2-3,5H2,1H3
