19
gdb 108986	2.82283	1.36095	1.07603	0.728	76.03	-0.2284	0.0052	0.2336	1163.4107	0.158354	-422.979243	-422.970732	-422.969788	-423.012277	32.855	
C	 0.0380494386	 1.534192877	 0.1041697431	-0.513786
C	-0.0106189609	 0.0356192522	-0.0018722315	 0.297268
C	 0.630872011	-0.7966615143	-1.1607958413	-0.251935
C	 0.6017285846	-1.813864094	 0.014236695	 0.021116
O	 0.8839803571	-0.6905576321	 0.9148573721	-0.315299
C	-0.9104360674	-2.0082087739	 0.2188259326	-0.215924
C	-1.3419808917	-0.7442117825	 0.2104883128	 0.291787
C	-2.7059966229	-0.1676737155	 0.37970092	-0.196176
O	-3.6873417067	-1.1328445143	 0.7110995473	-0.406139
H	 1.0568149989	 1.8967382551	-0.0555041429	 0.131861
H	-0.6144819502	 1.9951368542	-0.6446368407	 0.124236
H	-0.2906501731	 1.8640910396	 1.0949646652	 0.132921
H	 0.0379197277	-1.0057434099	-2.0538483401	 0.096015
H	 1.6403338681	-0.4544469756	-1.4043075145	 0.102466
H	 1.284612154	-2.6562335028	 0.1112741576	 0.07921
H	-1.4544994485	-2.9355024438	 0.3173983623	 0.111286
H	-2.675474862	 0.6485023047	 1.122974373	 0.100665
H	-3.0465468064	 0.2947818374	-0.5569824461	 0.125089
H	-3.3921641904	-1.5712735516	 1.5165415962	 0.28534
83.901	159.7192	168.8873	196.678	277.7034	311.3269	340.4224	408.1516	504.3593	567.8304	593.2065	642.9851	715.4809	778.6209	793.9997	826.3387	853.9813	901.4897	908.7858	952.7937	994.1711	1028.045	1037.8613	1075.0887	1107.5952	1142.9527	1172.613	1204.4772	1211.4421	1236.9771	1246.7844	1282.1449	1319.5859	1381.7204	1413.2624	1421.5282	1476.878	1485.4559	1489.4389	1494.261	1683.2423	2948.4055	3025.5621	3038.9053	3056.8289	3106.9944	3119.6918	3129.3738	3138.6372	3245.8575	3806.8988
CC12CC(O1)C=C2CO	C[C@@]12C[C@@H](O1)C=C2CO	
InChI=1S/C7H10O2/c1-7-3-6(9-7)2-5(7)4-8/h2,6,8H,3-4H2,1H3	InChI=1S/C7H10O2/c1-7-3-6(9-7)2-5(7)4-8/h2,6,8H,3-4H2,1H3/t6-,7-/m0/s1
