15
gdb 133675	3.13811	0.95231	0.86653	0.5405	59.52	-0.2587	0.0484	0.3071	1300.2237	0.107554	-548.279488	-548.270177	-548.269233	-548.314164	33.555	
N	 0.0347147189	 1.5417000551	 0.0442952499	-0.497646
C	-0.0165016995	 0.0917367565	-0.0196081594	-0.122633
C	-1.4676779017	-0.4159691291	 0.1191681642	-0.376636
C	-2.0310814073	-0.1706139514	 1.4386490643	 0.314876
C	-2.4921129305	 0.0097523151	 2.5328036976	-0.430569
C	 0.6047009273	-0.4696592247	-1.3039952537	 0.272671
F	 1.8700115344	-0.0443563458	-1.4484285587	-0.081112
F	 0.6280396243	-1.8116782706	-1.3093909189	-0.076034
F	-0.0785037496	-0.0723931008	-2.3929606694	-0.089742
H	 0.9961039288	 1.8623203704	-0.0104595274	 0.242052
H	-0.4574143227	 1.9432475855	-0.7492315409	 0.236405
H	 0.5797183473	-0.3137404101	 0.8047323034	 0.123944
H	-2.0835918702	 0.065672853	-0.6508047768	 0.138995
H	-1.4875804412	-1.4896995487	-0.0974481373	 0.148572
H	-2.9027644383	 0.1773057455	 3.497410093	 0.196858
63.6443	75.6449	131.4833	213.4722	243.7356	286.6004	319.5815	346.6752	388.5546	425.3588	490.4911	570.0905	580.5133	620.8202	649.2241	689.0145	818.495	882.5687	917.5744	956.1148	1008.695	1147.7364	1159.0662	1162.2067	1210.1887	1268.8672	1317.545	1319.7165	1384.0647	1410.2513	1473.0133	1668.2938	2247.417	3032.4547	3066.2599	3079.1848	3497.2591	3507.866	3580.9988
NC(CC#C)C(F)(F)F	N[C@@H](CC#C)C(F)(F)F	
InChI=1S/C5H6F3N/c1-2-3-4(9)5(6,7)8/h1,4H,3,9H2	InChI=1S/C5H6F3N/c1-2-3-4(9)5(6,7)8/h1,4H,3,9H2/t4-/m0/s1
