22
gdb 8712	2.39831	1.68065	1.30618	0.4198	74.08	-0.2467	0.0691	0.3158	1083.0466	0.196947	-387.331604	-387.320978	-387.320034	-387.366736	38.127	
C	-0.0392695283	 1.5471679035	 0.1708286417	-0.395913
C	-0.0979057304	 0.0255424391	 0.0099356802	-0.198491
C	 0.6621242046	-0.5288497591	-1.2145298372	 0.368987
C	 0.5574014244	-2.0597961344	-1.2562122397	-0.437822
C	 0.1136872283	 0.0547823549	-2.5272297096	-0.110301
O	-1.2819122394	-0.2013990372	-2.5924219346	-0.423042
O	 2.0249773884	-0.0814008176	-1.2440410346	-0.285442
C	 2.8875313762	-0.5539212205	-0.2348593922	-0.244538
H	 0.9924346916	 1.9090457156	 0.1418194174	 0.123435
H	-0.5961127797	 2.0548531896	-0.62244034	 0.120184
H	-0.4810914236	 1.8510563741	 1.1247930424	 0.106006
H	 0.29813474	-0.4566936846	 0.9116650217	 0.087209
H	-1.139157016	-0.2993318936	-0.0761742463	 0.116745
H	-0.4678300656	-2.3426484487	-1.5068757621	 0.136605
H	 1.2251715552	-2.464888293	-2.0233854607	 0.11314
H	 0.81075571	-2.5194246389	-0.296490732	 0.108798
H	 0.3312927421	 1.1305972191	-2.5524766676	 0.09666
H	 0.6516833809	-0.4141570972	-3.3637139244	 0.089398
H	-1.6086575039	 0.1311778352	-3.4325494324	 0.291009
H	 2.5591272549	-0.2681006553	 0.7743109167	 0.106476
H	 3.0122973978	-1.6450343842	-0.2615589864	 0.106909
H	 3.8611947725	-0.0924363768	-0.4205745704	 0.123987
69.7761	83.7007	136.2333	183.3547	198.6768	219.8156	227.8606	257.0879	285.1434	321.3876	343.5871	383.6307	432.9079	521.4735	546.2899	712.7745	776.1935	874.4322	919.6949	961.7167	1004.2408	1055.0223	1063.8574	1078.1559	1124.5315	1164.7245	1180.0986	1186.6162	1211.0024	1234.8219	1269.5571	1290.7626	1327.3649	1374.6106	1397.332	1405.9927	1450.8809	1472.1287	1478.1944	1492.915	1495.7613	1499.4053	1502.8736	1507.8482	1514.6468	1529.1446	2992.5118	2995.7843	3032.6698	3036.1923	3041.7979	3042.3902	3045.7055	3084.7905	3104.5143	3105.9213	3109.4139	3118.1267	3128.4717	3843.1136
CCC(C)(CO)OC	CC[C@@](C)(CO)OC	
InChI=1S/C6H14O2/c1-4-6(2,5-7)8-3/h7H,4-5H2,1-3H3	InChI=1S/C6H14O2/c1-4-6(2,5-7)8-3/h7H,4-5H2,1-3H3/t6-/m0/s1
