17
gdb 119820	5.95283	0.79019	0.70685	3.9125	71.85	-0.244	-0.0091	0.2349	1553.4279	0.135337	-455.178239	-455.169286	-455.168342	-455.213043	31.345	
C	 0.011340498	 1.4200077113	-0.0434736849	-0.227635
O	-0.0145937518	 0.0124463297	 0.0245183677	-0.205168
C	 0.6122820195	-0.5888034847	-1.0646383929	-0.151437
C	 0.5573215792	-2.0845060999	-0.9418747428	 0.35717
N	 0.0265003552	-2.7540087143	 0.0056070528	-0.27392
C	 0.2300803857	-4.1647048999	-0.3292469947	-0.301064
C	 0.9879410888	-4.2018732302	-1.662776154	 0.401981
O	 1.3721287056	-5.1317738151	-2.3260506355	-0.358456
N	 1.1410413534	-2.8496352311	-1.9578796669	-0.378427
H	 1.0415685427	 1.8096125141	-0.0543447872	 0.107781
H	-0.5089298601	 1.795483863	-0.9388073399	 0.107761
H	-0.4996264612	 1.7927872244	 0.8462960029	 0.139412
H	 0.1365366725	-0.297480123	-2.0207679189	 0.107044
H	 1.6729049404	-0.2821651945	-1.1448893314	 0.107158
H	 0.803617203	-4.6756192362	 0.4520044669	 0.151397
H	-0.7272019344	-4.690253787	-0.4172918633	 0.151505
H	 1.6057417633	-2.5094070466	-2.7844263978	 0.264899
44.7114	70.6844	134.7776	149.9816	231.9734	251.6452	340.1362	354.6451	443.3549	503.6376	548.5412	638.2268	680.2841	748.8266	888.4882	966.1865	974.3128	1014.3069	1041.3969	1056.6784	1151.1204	1178.5554	1178.5636	1184.7222	1221.915	1247.9842	1263.7723	1287.0581	1386.4951	1438.6309	1461.4334	1480.7038	1486.9275	1495.3172	1521.6364	1716.8937	1856.689	2922.7646	2936.943	2972.0369	3017.2618	3052.616	3087.0043	3127.5925	3648.8069
COCC1=NCC(=O)N1	COCC1=NCC(=O)N1	
InChI=1S/C5H8N2O2/c1-9-3-4-6-2-5(8)7-4/h2-3H2,1H3,(H,6,7,8)	InChI=1S/C5H8N2O2/c1-9-3-4-6-2-5(8)7-4/h2-3H2,1H3,(H,6,7,8)
