19
gdb 65323	3.7987	1.02122	0.9227	0.6547	83.29	-0.2427	0.0262	0.2689	1309.2993	0.157889	-381.979895	-381.97067	-381.969726	-382.013692	34.922	
C	-0.1089742916	 1.7804692298	 0.2895320077	-0.445069
C	-0.0995921441	 0.2906797343	 0.0208315615	 0.292288
N	 0.9142388903	-0.1591827075	-0.9342534314	-0.358366
C	 1.0513377254	-0.5557974624	 0.4939456558	-0.307446
C	 2.1664410997	-0.0343564342	 1.2331223896	 0.370071
C	 3.0872221355	 0.3840342426	 1.8835175116	-0.420703
C	-1.474684784	-0.3301859283	 0.0307219783	-0.048107
C	-2.2518996517	-0.4838513995	-1.2262003161	-0.242365
N	-1.7608105618	-1.6681730297	-0.4951943004	-0.32622
H	 0.9085580637	 2.1726984621	 0.3162528018	 0.143204
H	-0.6649300739	 2.3027617471	-0.4957825091	 0.122751
H	-0.589962884	 1.9965133659	 1.2494962464	 0.121069
H	 0.5977163039	-0.95998625	-1.4790167088	 0.219614
H	 0.7930923092	-1.584083906	 0.7399487098	 0.116732
H	 3.9050840042	 0.7562625522	 2.4492819136	 0.197935
H	-2.0274859703	-0.1094329358	 0.9421727979	 0.101809
H	-3.330607793	-0.3596228074	-1.2272834102	 0.123891
H	-1.7609226317	-0.2086906859	-2.1565133646	 0.118932
H	-0.9498273158	-2.0610333671	-0.9698257033	 0.219981
90.2344	117.128	136.4574	184.4587	223.2863	260.9881	313.4916	375.8736	413.5859	489.733	553.8652	603.9578	615.2047	659.0407	680.3239	806.7028	820.5813	861.0061	903.5352	947.2671	955.6999	974.5752	993.438	1066.7442	1073.4852	1098.6292	1129.5683	1158.9286	1171.7967	1197.3769	1242.4259	1278.5003	1296.0924	1328.5832	1414.6214	1420.2212	1433.4925	1486.3437	1494.7701	1513.3449	2239.0973	3040.0649	3102.5497	3109.7307	3122.7047	3123.8824	3143.0316	3196.6985	3462.6395	3475.8766	3503.6716
CC1(NC1C#C)C1CN1	C[C@]1(N[C@H]1C#C)[C@H]1CN1	
InChI=1S/C7H10N2/c1-3-5-7(2,9-5)6-4-8-6/h1,5-6,8-9H,4H2,2H3	InChI=1S/C7H10N2/c1-3-5-7(2,9-5)6-4-8-6/h1,5-6,8-9H,4H2,2H3/t5-,6+,7+/m0/s1
