19
gdb 31653	3.55951	1.07906	0.83984	2.0204	81.34	-0.1705	0.0524	0.223	1377.8971	0.159114	-419.220382	-419.21059	-419.209646	-419.255371	35.153	
C	 0.0220036966	 1.3909347934	 0.039461306	-0.237867
O	 0.0124320987	-0.0196602718	 0.025857501	-0.269525
C	-1.2178940622	-0.6053079708	 0.0249504646	 0.35267
C	-1.3967754523	-1.9703009853	 0.028306962	-0.231876
N	-2.7574718499	-2.2126047277	 0.0098716519	-0.003104
C	-3.3669274709	-3.5240605307	-0.0070685183	-0.341974
C	-3.4313351357	-1.0187278442	 0.0198535164	 0.2792
N	-4.8440624914	-1.0075411314	-0.0328837477	-0.608744
C	-2.5023335392	 0.0080419677	 0.0256424806	-0.389449
H	 1.0703018647	 1.6966733152	 0.0400651675	 0.125104
H	-0.4732643781	 1.8094843554	-0.8478355613	 0.113755
H	-0.4695947993	 1.7922114769	 0.9368277689	 0.113147
H	-0.6791033505	-2.772551112	 0.041763305	 0.110752
H	-3.3439941648	-3.9976925085	 0.9821753943	 0.125994
H	-4.4051840926	-3.4165164626	-0.3237068743	 0.156428
H	-2.8386983897	-4.171325214	-0.713065519	 0.133085
H	-5.2681722071	-1.0142806357	 0.8907530412	 0.241947
H	-5.1753314373	-0.1791130184	-0.5122201428	 0.244731
H	-2.733175939	 1.0609765945	 0.0380776039	 0.085725
55.8135	87.4632	143.8656	180.6187	197.476	204.9148	240.8744	304.142	353.3159	390.7624	529.6162	606.0595	610.1776	644.2469	661.0455	669.8767	736.6429	811.7884	827.825	995.6258	1065.9806	1092.0179	1152.8606	1157.3351	1179.7739	1186.6101	1211.0165	1222.5227	1249.4421	1379.5115	1422.1324	1442.4664	1475.4044	1485.9592	1488.1142	1502.3551	1509.6537	1524.7777	1543.3168	1625.8017	1657.3926	2990.8886	3023.1384	3043.1392	3087.7544	3123.0087	3146.6433	3256.6687	3275.771	3484.4553	3584.9588
COC1=CN(C)C(N)=C1	COc1cn(C)c(N)c1	
InChI=1S/C6H10N2O/c1-8-4-5(9-2)3-6(8)7/h3-4H,7H2,1-2H3	InChI=1S/C6H10N2O/c1-8-4-5(9-2)3-6(8)7/h3-4H,7H2,1-2H3
