14
gdb 25003	5.1427	1.35511	1.0798	2.0244	69.58	-0.2208	-0.0139	0.2068	1027.3361	0.104438	-432.903178	-432.896695	-432.895751	-432.934281	24.946	
N	-0.070203793	 1.2438974261	 0.0079314731	-0.517204
C	-0.0277395362	-0.0084446707	 0.0007513392	 0.379979
C	-1.2470342923	-0.9380381839	 0.0024568222	-0.270002
N	-0.5983646159	-2.2309270207	-0.0083543352	-0.062667
C	-0.8493790605	-3.5799578222	-0.0144201287	-0.005181
N	 0.2724538434	-4.2595893663	-0.0244834382	-0.264629
C	 1.3107911681	-3.3397117822	-0.0252320863	-0.21829
C	 0.7605254729	-2.093981918	-0.0152359196	 0.363036
O	 1.1303352186	-0.7758429354	-0.0100117059	-0.245694
H	 0.8639277101	 1.6542184884	 0.0049534176	 0.244292
H	-1.8560146837	-0.7725881494	 0.8958000193	 0.166447
H	-1.8660108012	-0.7627369984	-0.882094151	 0.166447
H	-1.8465748328	-3.990859073	-0.0110908278	 0.139528
H	 2.3453277325	-3.6371054443	-0.0326961886	 0.123938
100.0694	171.0921	310.3603	342.0533	530.987	533.2688	566.0973	662.1145	674.1446	758.9149	775.788	804.0465	822.4901	854.71	888.1671	955.4704	1019.3231	1031.2138	1107.7429	1153.1065	1191.7977	1251.3618	1252.5595	1283.6839	1307.2494	1402.1337	1440.4224	1488.5124	1526.7298	1620.8187	1812.8143	3060.8532	3102.1214	3263.8608	3279.5354	3497.4322
N=C1CN2C=NC=C2O1	[NH][C]1Cn2cncc2O1	
InChI=1S/C5H5N3O/c6-4-2-8-3-7-1-5(8)9-4/h1,3,6H,2H2	InChI=1S/C5H5N3O/c6-4-2-8-3-7-1-5(8)9-4/h1,3,6H,2H2
