21
gdb 91089	2.80528	1.57462	1.40707	1.3717	80.56	-0.229	0.0744	0.3034	1041.9686	0.184215	-387.068517	-387.060765	-387.059821	-387.100815	31.364	
C	 0.3266716585	 1.5890794843	-0.0666028493	-0.404017
C	 0.0811568318	 0.0902235431	 0.0180863534	 0.020397
C	 0.8314348648	-0.8465999853	-0.9803421342	-0.27258
C	 1.3628152447	-1.7008533426	 0.2119305165	-0.034968
C	 2.8430588189	-1.7058968631	 0.5697086811	-0.083672
C	 3.6761133167	-0.4535290395	 0.3446217037	-0.323226
C	 3.0008746241	-0.6878109854	 1.6656328634	 0.107817
O	 1.7791579001	-0.0297678504	 1.8935715625	-0.271087
C	 0.7167751605	-0.6930717268	 1.2094559511	 0.092524
H	 1.3893729687	 1.8245582493	 0.0350943068	 0.126134
H	-0.0233043007	 1.9841222243	-1.0266331971	 0.1082
H	-0.2015549749	 2.1231482094	 0.7303307719	 0.117222
H	-0.9960528601	-0.1059536374	-0.0073832089	 0.068607
H	 0.1904541676	-1.3850730347	-1.6822316407	 0.096858
H	 1.6178617317	-0.3511516935	-1.5554009806	 0.099425
H	 0.9559923077	-2.7132367942	 0.2435374588	 0.070318
H	 3.3593342031	-2.6575091636	 0.6135521028	 0.089156
H	 4.7524160799	-0.584729395	 0.2945438211	 0.110592
H	 3.2915949449	 0.3364243012	-0.2902851601	 0.119855
H	 3.5751360995	-0.8569313894	 2.5707571801	 0.094269
H	 0.0051022125	-1.0756981006	 1.9506347078	 0.068178
59.4138	194.1933	206.0299	244.1895	339.9464	386.915	481.471	500.181	616.5897	681.1293	721.9892	756.3424	802.0534	827.4658	839.6987	890.142	907.352	934.8205	955.9753	969.5537	1001.8592	1012.7125	1048.9405	1067.7435	1096.5255	1114.3657	1120.8772	1127.0471	1157.4998	1179.2888	1205.1104	1214.7569	1247.5786	1278.6856	1288.2825	1318.2711	1326.8546	1360.4747	1362.1255	1383.8992	1410.1867	1473.3001	1488.9697	1491.9101	1500.0987	3023.0593	3033.7115	3047.2364	3063.8732	3087.0002	3096.1068	3113.2687	3118.3274	3130.8507	3158.6525	3177.0403	3219.0219
CC1CC2C3CC3OC12	C[C@H]1C[C@H]2[C@H]3C[C@H]3O[C@@H]12	
InChI=1S/C8H12O/c1-4-2-6-5-3-7(5)9-8(4)6/h4-8H,2-3H2,1H3	InChI=1S/C8H12O/c1-4-2-6-5-3-7(5)9-8(4)6/h4-8H,2-3H2,1H3/t4-,5+,6-,7+,8-/m0/s1
