18
gdb 96924	2.5144	1.33041	1.10908	2.3898	75.88	-0.2214	0.0179	0.2393	1179.9985	0.146514	-435.201164	-435.19173	-435.190786	-435.235146	34.832	
C	-0.0576256124	 1.4347124577	 0.0351128149	-0.342158
N	-0.0238127769	-0.0165240387	 0.1198668838	-0.320507
C	-1.0916010684	-0.6562000272	-0.0404613396	 0.333834
N	-2.4670446108	-0.2830375578	-0.2961155391	-0.394501
C	-2.8911136832	-1.6788682971	 0.0186783292	-0.111838
C	-2.3298014155	-2.5623694776	-1.0673579297	-0.049933
N	-2.1339537912	-2.20434688	-2.4474174464	-0.528132
C	-1.4222515205	-2.1241586037	 0.0723291011	 0.251095
O	-0.7951256709	-3.0032148779	 0.9243705821	-0.440649
H	 0.7895568307	 1.7746231245	-0.5693785127	 0.131848
H	-0.9787260162	 1.8433152976	-0.4043491716	 0.107315
H	 0.0730145637	 1.8670078614	 1.0348090509	 0.127564
H	-2.8361350672	 0.4340829416	 0.3181139675	 0.242909
H	-3.7223634198	-1.8903946209	 0.6783672727	 0.111195
H	-2.595870883	-3.6087258013	-0.9327817283	 0.108156
H	-2.9730299537	-2.437244434	-2.9726689838	 0.228854
H	-2.0384857489	-1.1934429976	-2.5122778503	 0.246201
H	-0.0624293059	-3.4111592591	 0.4487397392	 0.298749
95.0194	110.3551	178.5888	188.5966	215.5895	245.3796	272.683	283.9466	328.8196	468.2892	511.3058	513.568	621.9951	688.5696	724.7945	789.3919	803.8562	901.0532	909.6193	935.0872	960.5407	1005.8786	1062.1743	1082.4288	1118.2393	1129.0757	1164.2124	1214.4258	1225.4946	1261.2675	1305.5094	1321.9522	1389.2779	1438.9916	1488.0794	1496.9223	1505.7346	1665.0805	1825.8519	2995.5113	3062.4995	3085.4069	3145.8582	3203.0363	3477.1583	3550.5071	3551.4032	3793.0389
CN=C1NC2C(N)C12O	CN=C1N[C@H]2[C@@H](N)[C@@]12O	
InChI=1S/C5H9N3O/c1-7-4-5(9)2(6)3(5)8-4/h2-3,9H,6H2,1H3,(H,7,8)	InChI=1S/C5H9N3O/c1-7-4-5(9)2(6)3(5)8-4/h2-3,9H,6H2,1H3,(H,7,8)/t2-,3+,5+/m1/s1
