13
gdb 5138	5.84754	1.36239	1.21214	1.2806	64.41	-0.2447	-0.0007	0.244	960.6157	0.095668	-361.458164	-361.451175	-361.450231	-361.490223	25.199	
C	-0.0431974734	-1.1784782012	 0.335787392	-0.446326
C	 0.001301207	-0.0009865994	 0.1059762648	 0.304966
C	 0.0493956629	 1.4323843948	-0.1716491093	-0.445017
C	 1.4354496938	 2.0003071248	-0.1703659227	 0.398535
N	 2.0256915176	 2.6496407351	-1.1222700352	-0.300476
C	 3.2740549693	 2.9703926861	-0.5997242834	-0.112567
C	 3.3635602235	 2.4843520846	 0.658562094	-0.037753
O	 2.1839542659	 1.8573148875	 0.9505195916	-0.16372
H	-0.0802284089	-2.2203929977	 0.5372036926	 0.202876
H	-0.3761050045	 1.6487027673	-1.1561071495	 0.169644
H	-0.5640688609	 1.9680862115	 0.5654849107	 0.155237
H	 4.0048613987	 3.5209860909	-1.1699369655	 0.126992
H	 4.1136834689	 2.4819547758	 1.43006719	 0.147609
41.9473	106.2571	267.9	320.7682	327.3931	460.0151	624.8656	630.9056	649.8584	683.011	764.7913	790.1191	865.2597	918.8786	933.9349	951.7683	982.147	1107.4539	1134.1685	1165.3435	1208.0323	1272.8064	1331.6969	1389.637	1453.204	1555.3026	1618.3885	2247.8221	3021.2846	3092.163	3266.7946	3302.6342	3506.7105
C#CCC1=NC=CO1	C#CCc1ncco1	
InChI=1S/C6H5NO/c1-2-3-6-7-4-5-8-6/h1,4-5H,3H2	InChI=1S/C6H5NO/c1-2-3-6-7-4-5-8-6/h1,4-5H,3H2
