18
gdb 112684	3.36161	1.1144	0.89469	3.1883	70.28	-0.268	0.0192	0.2871	1296.5051	0.147352	-476.236356	-476.227452	-476.226508	-476.270459	32.519	
C	 0.0562471317	 1.4330275136	-0.0198564296	-0.247593
O	-0.2107751827	 0.0452420865	-0.1702874517	-0.219004
C	 0.6167861542	-0.6009388123	-1.0594459525	 0.216361
C	 0.35265755	-2.1069510819	-1.0452185056	-0.293503
C	 0.5630020683	-2.5060390517	-2.5088442562	 0.068284
O	-0.1695191468	-3.6271424643	-2.9174877109	-0.438305
C	 0.1444578639	-1.2399658182	-3.2314842988	 0.383065
N	-0.3146341558	-1.2494091467	-4.4068192237	-0.564579
O	 0.323384809	-0.1669614631	-2.4261456772	-0.253935
H	 1.0991822239	 1.6046092133	 0.2824737073	 0.114349
H	-0.1412900958	 1.9789679053	-0.9488339575	 0.135262
H	-0.6088197204	 1.7976099291	 0.7647203566	 0.137728
H	 1.6693633777	-0.333577347	-0.8804589094	 0.080487
H	 0.9958883071	-2.6335677362	-0.339613872	 0.120458
H	-0.6924613169	-2.273347662	-0.7704760871	 0.139957
H	 1.6408137427	-2.6553981456	-2.6981312907	 0.093403
H	-0.4976755589	-3.411434015	-3.8033670446	 0.297858
H	-0.5773322814	-0.3190562238	-4.7305964963	 0.229707
67.6622	109.078	115.2839	172.7412	267.5053	270.4151	359.02	391.0561	419.8645	480.6848	549.2169	595.0234	654.9323	710.3074	809.7186	870.9183	883.5398	964.1693	1016.2077	1036.2639	1076.2409	1094.0492	1150.0515	1170.733	1179.4402	1188.6979	1242.94	1262.1551	1273.9326	1310.4652	1371.5405	1410.8777	1416.0861	1437.3417	1481.9072	1485.9979	1493.6035	1510.0292	1783.0612	2946.3748	2990.2649	3004.278	3077.8234	3080.2241	3137.3957	3141.0159	3498.1239	3721.8457
COC1CC(O)C(=N)O1	CO[C@H]1C[C@@H](O)[C]([NH])O1	
InChI=1S/C5H9NO3/c1-8-4-2-3(7)5(6)9-4/h3-4,6-7H,2H2,1H3	InChI=1S/C5H9NO3/c1-8-4-2-3(7)5(6)9-4/h3-4,6-7H,2H2,1H3/t3-,4-/m1/s1
