20
gdb 59396	2.86461	0.95751	0.94066	4.372	80.71	-0.2909	0.0079	0.2988	1397.8539	0.167867	-403.155412	-403.145114	-403.14417	-403.190732	37.1	
C	 1.1613012491	 0.7808381423	-0.9815623082	-0.390379
C	 1.8254846779	-0.5155292514	-0.4922950072	-0.020614
C	 3.3563683748	-0.446840007	-0.5917422006	-0.393699
C	 1.4113371593	-0.7838206565	 0.9386883155	 0.04475
O	 0.0737335853	-1.2216955199	 1.1911518705	-0.278152
C	 1.1384016561	-2.1271307008	 1.5107629461	 0.216073
C	 1.2030993942	-3.4253223941	 0.7355944401	-0.470266
C	 1.3688806111	-2.2841934847	 2.9420121836	 0.255149
N	 1.5727017102	-2.4315575185	 4.0701357126	-0.332034
H	 1.4931393373	 1.6405575548	-0.3881817095	 0.119532
H	 1.4208742978	 0.9760846295	-2.0264134151	 0.118062
H	 0.0724959498	 0.7152047418	-0.9038593941	 0.135282
H	 1.4654665974	-1.3375256735	-1.1197339415	 0.083143
H	 3.7564952841	 0.3518042864	 0.0433172373	 0.12397
H	 3.8249595426	-1.386310287	-0.2820508574	 0.120368
H	 3.6657351313	-0.237675475	-1.6200243571	 0.123237
H	 1.756252116	-0.0280171514	 1.6489625811	 0.10833
H	 0.4477937584	-4.1207258497	 1.1124724119	 0.150861
H	 1.0134613107	-3.2526704142	-0.3238639203	 0.142167
H	 2.1848995665	-3.893171771	 0.8538936623	 0.144224
59.902	101.2061	128.3396	165.246	212.3003	221.7128	242.1633	256.3789	316.1027	370.236	382.8324	444.1924	489.2365	577.2073	600.9317	695.7258	827.1657	870.3209	892.8428	932.0051	946.3983	972.9127	1023.2623	1088.7994	1109.3846	1155.52	1177.6687	1199.1044	1237.9472	1318.1954	1336.42	1344.6631	1400.7847	1414.406	1419.9601	1459.1192	1482.4201	1488.5478	1491.4444	1496.1428	1504.9038	1513.8532	2356.1314	3031.4985	3034.6696	3050.5029	3055.6249	3082.6059	3098.1975	3104.9998	3110.6078	3118.2948	3119.8863	3154.3622
CC(C)C1OC1(C)C#N	CC(C)[C@H]1O[C@]1(C)C#N	
InChI=1S/C7H11NO/c1-5(2)6-7(3,4-8)9-6/h5-6H,1-3H3	InChI=1S/C7H11NO/c1-5(2)6-7(3,4-8)9-6/h5-6H,1-3H3/t6-,7-/m1/s1
