15
gdb 28158	5.26583	1.2773	1.03459	3.4665	74.37	-0.196	0.0145	0.2105	1099.3441	0.114821	-416.846812	-416.839476	-416.838532	-416.878551	27.689	
C	-0.0162066534	 1.4700539193	 0.07452886	-0.501539
C	-0.0017403145	-0.017690224	-0.0426762313	 0.327989
C	-0.0484640879	-0.8268320577	-1.1597737841	-0.386205
C	-0.0054466435	-2.174022894	-0.68179921	 0.246924
C	 0.0640672931	-2.1044184429	 0.6806745525	 0.391031
N	 0.0688755322	-0.8183888157	 1.1118264381	-0.466802
O	 0.109489318	-3.3332936095	 1.2327022701	-0.218823
C	 0.0614152078	-4.1416241897	 0.0952548692	 0.026058
N	-0.0053527855	-3.5241989743	-1.0367257731	-0.336061
H	 0.8882179485	 1.8577687133	 0.5605476198	 0.127874
H	-0.0719821267	 1.9150715988	-0.9212804772	 0.143018
H	-0.8779305731	 1.8337239589	 0.648737197	 0.127931
H	-0.1058008111	-0.471471125	-2.1764370908	 0.10397
H	 0.1130343475	-0.4798723984	 2.0565204757	 0.269009
H	 0.0858395585	-5.2013257291	 0.2897233842	 0.145627
120.1758	142.6378	215.8671	279.0146	319.7247	367.939	500.9268	554.1931	624.4928	627.6474	744.2168	764.9509	772.3473	798.3473	819.7665	912.6275	975.1016	1010.5468	1023.7387	1062.5275	1144.2401	1161.401	1243.377	1306.9395	1361.0126	1414.8263	1451.2205	1478.0986	1495.8601	1528.59	1552.465	1586.5657	1608.9989	3014.2452	3057.4472	3125.9137	3258.0957	3287.7465	3686.7369
CC1=CC2=C(N1)OC=N2	Cc1cc2c([nH]1)ocn2	
InChI=1S/C6H6N2O/c1-4-2-5-6(8-4)9-3-7-5/h2-3,8H,1H3	InChI=1S/C6H6N2O/c1-4-2-5-6(8-4)9-3-7-5/h2-3,8H,1H3
