21
gdb 15431	3.51778	1.11626	0.96561	2.1314	76.21	-0.216	0.0659	0.282	1301.1302	0.18752	-366.225707	-366.216118	-366.215174	-366.260396	34.293	
C	-0.0688247567	 1.525808127	-0.2325613745	-0.380641
C	 0.1692490599	 0.0194600068	-0.1014503989	-0.160829
C	 0.4755549145	-0.4041034447	 1.3358114264	-0.130515
N	 0.6270416215	-1.856504625	 1.4145484449	-0.090952
C	 1.9594246511	-2.424326333	 1.2221950249	-0.248941
C	 1.3058523701	-2.4579396841	 2.5601461191	 0.004055
C	 1.8545313044	-1.670155842	 3.7344355186	-0.115653
O	 2.8714389384	-0.7680600466	 3.3201129555	-0.403204
H	 0.8070713234	 2.0979212313	 0.0937173676	 0.112403
H	-0.2809314044	 1.8062612551	-1.2688038854	 0.111385
H	-0.9191869717	 1.8488292541	 0.3788703113	 0.111309
H	-0.7068755624	-0.5375336773	-0.4526001003	 0.102672
H	 1.0047689048	-0.2815742791	-0.7461490166	 0.09628
H	 1.3594384081	 0.1349000201	 1.7071246237	 0.103205
H	-0.368484787	-0.1266634259	 1.9820448702	 0.08839
H	 2.0143064348	-3.3214294748	 0.6103978358	 0.105438
H	 2.795523663	-1.7374550135	 1.1152910663	 0.128113
H	 0.8403455378	-3.3880195477	 2.8862178766	 0.087484
H	 1.0303022486	-1.131590962	 4.2296337795	 0.095537
H	 2.2504557327	-2.3941962578	 4.464552223	 0.095311
H	 3.0770879492	-0.1897263307	 4.0605946121	 0.289152
79.2748	85.2085	110.743	132.7492	226.6414	231.8577	251.8343	265.8348	346.4463	428.4696	465.4299	619.0968	752.1002	761.385	811.845	894.235	900.7824	936.2036	973.8913	1026.5551	1045.3121	1057.7264	1098.6805	1121.338	1128.3868	1143.9475	1174.0641	1204.7009	1233.7011	1277.9134	1279.3731	1321.3118	1333.7223	1338.7576	1404.0219	1411.5434	1417.4421	1456.2902	1490.0371	1498.7996	1499.9257	1509.4715	1513.436	1524.6067	2965.078	2989.4637	2996.4374	3026.2683	3028.4361	3034.1605	3066.3631	3095.178	3100.6127	3101.9994	3104.8524	3189.4098	3828.2781
CCCN1CC1CO	CCCN1C[C@H]1CO	
InChI=1S/C6H13NO/c1-2-3-7-4-6(7)5-8/h6,8H,2-5H2,1H3	InChI=1S/C6H13NO/c1-2-3-7-4-6(7)5-8/h6,8H,2-5H2,1H3/t6-,7?/m0/s1
