18
gdb 89500	3.0427	1.42491	1.17533	2.4439	72.9	-0.2465	-0.0003	0.2461	1094.4477	0.147544	-439.057697	-439.049578	-439.048634	-439.090017	31.62	
C	-0.1844940097	 1.5052663734	 0.0524851416	-0.385074
C	 0.0825294837	 0.0069950648	 0.0492913354	 0.056687
C	 0.7795416969	-0.5055875916	-1.2738129119	-0.292219
C	 1.5186558746	-1.7344416059	-0.7415745715	 0.301776
O	 0.7329383624	-2.8863607114	-0.9616119785	-0.481746
C	 3.0552709717	-2.0132014856	-0.6237495294	-0.17946
O	 2.9751794639	-1.7951674609	 0.8508711473	-0.278272
C	 1.7229419814	-1.2665983663	 0.664697469	 0.35343
N	 1.0375333364	-0.3392194893	 1.1690892993	-0.32042
H	 0.7529431884	 2.0629603918	-0.0428969569	 0.118661
H	-0.8383247659	 1.7804967067	-0.7820535289	 0.111373
H	-0.6651392583	 1.8103763478	 0.9855526983	 0.12889
H	-0.8614283888	-0.5309021607	 0.2013485482	 0.094753
H	 0.0775215459	-0.7479435777	-2.0742016251	 0.117308
H	 1.4760504629	 0.2614876009	-1.6273786052	 0.107588
H	 0.9625055709	-3.5532815275	-0.3042377426	 0.290093
H	 3.3685969039	-3.0335919429	-0.8523490798	 0.124348
H	 3.7287823995	-1.2757313655	-1.0658209993	 0.132283
106.8369	187.2125	235.7725	243.9529	292.1524	329.1063	342.0678	386.3361	483.0392	543.1923	598.6489	679.2615	749.8843	779.7635	814.6676	882.5316	891.5501	909.4425	927.403	984.3564	1040.1431	1087.3332	1107.3856	1124.675	1136.5783	1162.6231	1208.1494	1259.2165	1271.3016	1300.946	1340.6416	1361.012	1386.9134	1409.0537	1469.763	1485.2659	1493.6666	1497.9423	1773.9117	3029.5854	3035.5534	3058.6727	3068.0832	3105.1644	3120.4298	3125.0532	3143.1831	3794.6935
CC1CC2(O)COC2=N1	C[C@H]1C[C@@]2(O)CO[C]2[N]1	
InChI=1S/C6H9NO2/c1-4-2-6(8)3-9-5(6)7-4/h4,8H,2-3H2,1H3	InChI=1S/C6H9NO2/c1-4-2-6(8)3-9-5(6)7-4/h4,8H,2-3H2,1H3/t4-,6+/m0/s1
