22
gdb 96456	2.10128	1.85752	1.26363	1.6508	81.67	-0.2223	0.0813	0.3036	1096.2025	0.196298	-404.316597	-404.308386	-404.307442	-404.348703	33.322	
C	-0.1241556307	 1.5725016326	-0.0469226914	-0.434011
C	-0.0225190574	 0.0436047255	 0.0069371039	 0.115302
O	 0.4145721703	-0.5466412829	-1.2201448239	-0.261884
C	 1.6421116169	-0.0986956929	-1.7717217695	-0.071817
C	 2.9048915594	-0.4798355852	-0.9903420731	-0.195594
C	 3.0084527013	 0.1659330119	 0.3940400206	-0.158548
N	 2.1753496772	-0.5447883076	 1.3609844359	-0.074917
C	 1.3577888436	 0.2122328196	 2.2963557193	-0.261805
C	 0.7223746479	-0.5718377288	 1.1943282431	-0.01419
H	 0.8399053424	 2.0854525562	-0.0537454943	 0.124799
H	-0.6711203098	 1.8650710988	-0.9485060162	 0.125643
H	-0.6822919412	 1.9314790772	 0.8223712882	 0.122225
H	-1.0517679214	-0.3251468246	 0.0931144947	 0.087371
H	 1.6807257945	-0.5594629585	-2.76448463	 0.105876
H	 1.6260789976	 0.9913741891	-1.9263174202	 0.085424
H	 2.9591228011	-1.5685180633	-0.8788020546	 0.11587
H	 3.7670157131	-0.1716789613	-1.5958012134	 0.093598
H	 4.0409944423	 0.1060010317	 0.758577198	 0.103556
H	 2.7694833383	 1.240089251	 0.3209936814	 0.081963
H	 1.330960327	-0.1524845841	 3.3206664727	 0.111416
H	 1.3576039515	 1.2975621652	 2.2075643277	 0.106097
H	 0.3137745462	-1.5475989896	 1.454168061	 0.093625
143.7395	204.2282	234.4162	268.3362	291.2366	329.9354	350.3429	417.5948	449.9183	468.7022	533.0488	671.9181	713.3865	760.0068	811.3914	866.2132	910.654	919.7305	966.9647	980.2959	1007.1214	1046.2836	1076.8345	1080.8192	1107.2085	1125.8748	1142.4302	1151.687	1174.3057	1186.0415	1238.732	1269.3494	1318.6024	1360.0563	1371.1288	1373.3531	1387.1134	1389.5431	1396.6615	1418.35	1421.9494	1467.4713	1486.4708	1490.4362	1502.5867	1513.8615	1523.3716	2958.3463	2987.1604	3025.4095	3029.0354	3043.1083	3045.9611	3068.4654	3081.0208	3089.3627	3106.2363	3115.4985	3125.4872	3169.9057
CC1OCCCN2CC12	C[C@H]1OCCCN2C[C@@H]12	
InChI=1S/C7H13NO/c1-6-7-5-8(7)3-2-4-9-6/h6-7H,2-5H2,1H3	InChI=1S/C7H13NO/c1-6-7-5-8(7)3-2-4-9-6/h6-7H,2-5H2,1H3/t6-,7+,8?/m1/s1
