18
gdb 46059	3.29359	1.20191	0.99524	3.6306	71.77	-0.2517	0.006	0.2577	1203.1641	0.149492	-439.106894	-439.098984	-439.09804	-439.13997	29.653	
O	 0.0326248341	-0.0049640371	 0.3581902381	-0.325286
C	-0.0504857886	 1.1503485287	 0.0672205771	 0.427404
C	-1.2934937824	 2.0237301841	-0.0564251759	-0.364072
C	-0.7998866242	 3.2365911569	-0.8478572336	-0.24674
C	 0.6980700712	 3.2812801505	-0.4832770316	 0.089684
O	 1.0532039947	 1.9099649227	-0.2111313399	-0.237686
C	 1.5958059519	 3.8366851577	-1.5644337646	-0.001774
C	 3.0028512432	 3.3988200254	-1.7035988103	-0.244105
N	 1.9912602597	 3.0065799905	-2.7082509282	-0.321903
H	-2.1050344773	 1.4624702602	-0.5207653685	 0.145201
H	-1.6159263505	 2.2929832526	 0.9562769866	 0.143015
H	-0.9087969371	 3.0669686348	-1.9236746147	 0.130453
H	-1.3092462653	 4.1691110963	-0.5981585874	 0.118498
H	 0.8485003561	 3.8525968454	 0.4435196192	 0.096975
H	 1.3391422797	 4.8615745347	-1.8292570143	 0.097032
H	 3.7549507317	 4.0976295808	-2.0577295968	 0.120273
H	 3.3612417279	 2.6360373441	-1.0196397636	 0.134
H	 1.7203603952	 2.042400392	-2.5218862215	 0.23903
87.9385	93.8038	150.2964	192.4791	268.5863	404.5495	497.4448	533.6719	580.3507	620.1392	694.2013	791.0591	815.9219	853.7789	880.0861	916.7699	959.6419	987.5357	1003.8748	1040.4943	1062.7087	1088.3258	1130.4038	1143.1893	1156.4246	1182.8522	1203.7241	1235.0513	1273.6229	1299.8506	1303.3442	1321.0654	1354.0452	1385.8649	1429.6677	1465.197	1500.0671	1506.9485	1890.8539	3007.4374	3053.2239	3063.2258	3116.7425	3119.4975	3122.1979	3132.9683	3211.224	3487.0477
O=C1CCC(O1)C1CN1	O=C1CC[C@@H](O1)[C@H]1CN1	
InChI=1S/C6H9NO2/c8-6-2-1-5(9-6)4-3-7-4/h4-5,7H,1-3H2	InChI=1S/C6H9NO2/c8-6-2-1-5(9-6)4-3-7-4/h4-5,7H,1-3H2/t4-,5-/m1/s1
