18
gdb 79131	2.64058	1.80901	1.24885	1.1691	79.7	-0.2103	-0.0451	0.1652	1018.3664	0.146976	-401.826684	-401.818921	-401.817977	-401.858545	30.888	
C	-0.2633820927	 1.1242902422	-0.5784881312	-0.474753
C	-0.0345356479	 0.0232122016	 0.4036732372	 0.269665
C	-1.0034839741	-0.7079485743	 1.0157844551	-0.168498
C	-0.34776079	-1.9761464568	 1.6133017142	-0.102354
C	-0.6019467955	-2.622751684	 0.3053545851	-0.083617
C	-1.7455569456	-1.5718944659	-0.0462052143	 0.100861
O	-3.0133872491	-2.1023958463	 0.2009552236	-0.41676
N	 0.7856929315	-2.1744742108	 0.7298161546	-0.116832
C	 1.2490029385	-0.8035509637	 0.3997769123	-0.226737
H	 0.1593734553	 0.8887298364	-1.5640625615	 0.127019
H	-1.3273946442	 1.3507596107	-0.6857488503	 0.137749
H	 0.2350643071	 2.0442882511	-0.2444283626	 0.137728
H	-0.3790217264	-2.3609510221	 2.6259729738	 0.090971
H	-0.6829091671	-3.6801925341	 0.0720588749	 0.107653
H	-1.7911118199	-1.1624257508	-1.057850793	 0.095906
H	-3.0399568575	-2.4008732258	 1.1177737478	 0.28359
H	 1.7123154156	-0.7550143011	-0.5930931222	 0.117708
H	 2.017060192	-0.5357451965	 1.1364335167	 0.1207
144.0274	162.6121	190.2888	279.0898	327.2031	369.4297	421.1967	482.5037	493.8597	584.963	711.1988	750.8323	766.9747	790.7786	854.8712	870.5727	905.9384	934.4247	937.8304	966.1995	1021.7924	1028.899	1077.2245	1079.5354	1105.3614	1181.6012	1192.8516	1201.7432	1216.5676	1236.2838	1278.3345	1292.5541	1321.5544	1402.4621	1439.7199	1460.3446	1473.9739	1483.8681	1581.4817	3009.8995	3023.0514	3053.8361	3064.7809	3091.2384	3114.5491	3161.5665	3181.894	3793.2813
CC1=C2C3C(C2O)N3C1	C[C]1[C]2[C@H]3[C@@H]([C@H]2O)N3C1	
InChI=1S/C7H9NO/c1-3-2-8-5-4(3)7(9)6(5)8/h5-7,9H,2H2,1H3	InChI=1S/C7H9NO/c1-3-2-8-5-4(3)7(9)6(5)8/h5-7,9H,2H2,1H3/t5-,6-,7-,8?/m0/s1
