21
gdb 64450	2.14731	1.69443	1.24268	2.565	78.36	-0.2286	-0.0178	0.2108	1117.2064	0.181634	-424.262017	-424.252782	-424.251838	-424.295688	35.35	
C	 0.0979492048	 1.5092157291	-0.0888746689	-0.407702
C	-0.0057925029	-0.0104990317	 0.0107840443	 0.251418
C	-1.4821802441	-0.4499594515	 0.0869577875	-0.429128
O	 0.6228217686	-0.5105869473	-1.1800854141	-0.287857
C	 0.8853279541	-1.9020772018	-1.2304994436	-0.075932
C	 1.8439662418	-2.3183864367	-0.1197202205	-0.211995
C	 1.2379746192	-1.949044653	 1.2423433922	-0.31202
C	 0.722759811	-0.5162921226	 1.2782938329	 0.372108
O	 0.8324971061	 0.1783806054	 2.2615530554	-0.315997
H	 1.1426239061	 1.8077481212	-0.204544935	 0.122886
H	-0.4617699271	 1.8599789564	-0.9598668166	 0.114835
H	-0.2973661212	 1.9767326121	 0.8136806284	 0.134529
H	-1.9981280068	-0.1311085293	-0.8233602611	 0.12906
H	-1.5946000333	-1.533573674	 0.1816496572	 0.115425
H	-1.9688539798	 0.0132339862	 0.9497289771	 0.134926
H	-0.0453234229	-2.4890452218	-1.1703861931	 0.088257
H	 1.3206426519	-2.0810779196	-2.2180331137	 0.110813
H	 2.050400415	-3.3932221858	-0.1725376322	 0.101458
H	 2.7959113847	-1.793640091	-0.25952868	 0.115799
H	 0.3747095175	-2.6012053323	 1.4407388936	 0.12488
H	 1.9353560671	-2.0800956722	 2.0733051702	 0.124236
61.5642	148.3813	184.7886	210.1917	236.9023	303.5228	320.0074	347.8413	397.91	432.2094	458.0506	522.3463	556.8539	645.3545	697.0645	823.9483	851.2176	875.0624	916.1715	936.1854	970.0843	998.9178	1021.1708	1070.6774	1117.1928	1144.2984	1177.3853	1203.0368	1211.7888	1237.684	1291.5478	1307.517	1341.9979	1372.512	1387.5288	1403.5406	1411.5003	1459.3467	1472.6989	1481.4922	1485.8605	1490.8487	1502.7195	1513.0954	1810.9826	2978.5987	3011.2217	3036.5085	3044.6804	3056.3016	3079.7509	3084.9183	3103.2095	3117.6543	3123.4169	3128.3017	3152.6112
CC1(C)OCCCC1=O	CC1(C)OCCCC1=O	
InChI=1S/C7H12O2/c1-7(2)6(8)4-3-5-9-7/h3-5H2,1-2H3	InChI=1S/C7H12O2/c1-7(2)6(8)4-3-5-9-7/h3-5H2,1-2H3
