16
gdb 34302	3.41544	1.51094	1.34832	5.9078	68.17	-0.274	0.0162	0.2902	966.1192	0.126418	-437.896736	-437.889843	-437.888899	-437.927981	27.198	
N	 0.0415121817	-1.092052099	-0.0372310059	-0.330545
C	 0.0172627738	 0.0610584647	-0.0217477034	 0.256055
C	-0.0415569241	 1.5210595441	 0.0515438163	 0.412441
C	-0.6944033337	 2.1726543263	 1.2829233138	-0.278466
C	-0.4029265516	 3.5653845068	 0.6879356024	-0.126553
C	 1.1137485236	 3.4348121184	 0.4614111934	-0.07798
O	 1.2697206276	 2.057449708	 0.0385465923	-0.299792
C	-1.0793780364	 3.4040236744	-0.6850329584	-0.07798
O	-0.790830345	 2.0285229814	-1.038597016	-0.299794
H	-1.7541676312	 1.9325816695	 1.3761306331	 0.129732
H	-0.1610144421	 1.9549408383	 2.2089472248	 0.129731
H	-0.7153104054	 4.4364170669	 1.262128478	 0.096129
H	 1.4900734123	 4.0958788776	-0.3261294387	 0.118727
H	 1.6946925629	 3.5993600555	 1.3760786528	 0.114784
H	-2.1653768625	 3.5451691174	-0.6417473906	 0.114784
H	-0.6621009799	 4.0656665797	-1.4511649041	 0.118727
146.0487	162.1337	212.0212	380.8346	458.9958	468.767	527.2931	561.6261	574.888	596.1954	795.5163	839.339	862.9103	920.5859	935.1342	951.7501	958.3397	971.5997	979.4648	1082.304	1085.1591	1110.8323	1150.7123	1160.564	1193.9505	1221.1281	1283.8252	1312.0968	1312.62	1358.4186	1385.2325	1489.0211	1514.7975	1533.0209	2386.3365	3032.5553	3034.14	3078.1938	3083.0109	3090.3367	3134.8167	3154.7239
N#CC12CC(CO1)CO2	N#C[C@@]12C[C@@H](CO1)CO2	
InChI=1S/C6H7NO2/c7-4-6-1-5(2-8-6)3-9-6/h5H,1-3H2	InChI=1S/C6H7NO2/c7-4-6-1-5(2-8-6)3-9-6/h5H,1-3H2/t5-,6-
