13
gdb 129030	3.47039	1.36875	0.9816	3.2769	73.44	-0.2795	-0.103	0.1765	1094.9503	0.08941	-452.718118	-452.710744	-452.7098	-452.751393	26.657	
N	-0.06643125	 1.0423339199	 1.0302195396	-0.467064
C	 0.0215347938	 0.0701916296	 0.1960033507	 0.234866
C	-1.2316683584	-0.4666996586	-0.3240201939	-0.052745
C	-1.4041645073	-1.4659243548	-1.1930371965	-0.214693
C	-0.4318278663	-2.3252845626	-1.8895834352	 0.428373
O	-0.7935715813	-3.1828920558	-2.6451921648	-0.284553
O	 0.9544269542	-2.2311648633	-1.745754681	-0.268939
N	 1.7523875119	-1.3961309028	-0.9894549574	-0.048642
C	 1.3344259304	-0.472981622	-0.2125353251	 0.009603
H	 0.8600502871	 1.350143637	 1.3379018	 0.234639
H	-2.1063380725	 0.0394100138	 0.0723906557	 0.144714
H	-2.4131334433	-1.7436622672	-1.4782847192	 0.147302
H	 2.1778435315	 0.0323006767	 0.2615480572	 0.13714
30.0104	76.3058	260.2143	357.0454	377.0006	395.3489	409.4896	542.4411	602.5513	655.4227	762.8882	770.3598	802.8968	857.5304	898.5238	910.6872	964.9707	969.5228	1049.3736	1097.5514	1171.3471	1273.1167	1376.7649	1389.5054	1441.9249	1639.1238	1675.566	1719.1219	1821.8009	3119.2933	3186.7563	3204.5104	3437.6663
N=C1C=CC(=O)ON=C1	[NH]C1=C[CH]C(=O)ON=C1	
InChI=1S/C5H4N2O2/c6-4-1-2-5(8)9-7-3-4/h1-3,6H	InChI=1S/C5H4N2O2/c6-4-1-2-5(8)9-7-3-4/h1-3,6H
