16
gdb 16564	3.27124	2.67148	2.12806	1.2822	64.07	-0.2434	0.0115	0.255	710.3673	0.133706	-383.750621	-383.744773	-383.743829	-383.780314	23.79	
C	-0.0356938345	 1.5707695984	-0.0331187163	-0.07773
O	 1.3414619818	 1.9296244261	 0.0954116575	-0.278394
C	 2.1044775349	 0.73005434	-0.0491296192	 0.190726
C	 2.5437488562	 0.2191344202	 1.3312995989	-0.272989
C	 1.3555965953	-0.354405525	 2.0642239902	-0.056098
C	 0.1630168131	-0.4414263971	 1.4764674712	-0.06132
C	 0.0186683445	 0.0324630135	 0.0473532705	 0.001786
O	 1.2444471489	-0.204591518	-0.6601720228	-0.250974
H	-0.6087430287	 2.0309724614	 0.776840388	 0.109276
H	-0.429928371	 1.9063272434	-1.0013381734	 0.100469
H	 2.9486307553	 0.9170951384	-0.7196053511	 0.087828
H	 3.3347020848	-0.535781875	 1.2215872439	 0.110378
H	 2.9811013807	 1.0544382538	 1.8910079415	 0.119939
H	 1.5056713322	-0.6996027328	 3.0834824396	 0.095122
H	-0.7112925949	-0.8260873081	 1.9918247452	 0.091613
H	-0.7869269988	-0.4681121291	-0.4918815937	 0.090368
175.3831	276.8057	353.6744	453.7498	490.5773	572.5375	681.9062	715.5241	808.1967	839.0365	857.9815	884.0277	903.9695	970.1018	982.0211	985.5977	1008.3551	1028.5967	1041.811	1084.554	1142.3158	1183.3721	1194.9017	1209.0066	1270.2462	1321.9119	1327.1413	1353.9109	1380.4729	1385.3694	1414.2379	1461.3741	1516.1878	1709.0918	3015.306	3015.8853	3060.5211	3071.2618	3088.8248	3108.7823	3159.6912	3185.7644
C1OC2CC=CC1O2	C1O[C@H]2CC=C[C@@H]1O2	
InChI=1S/C6H8O2/c1-2-5-4-7-6(3-1)8-5/h1-2,5-6H,3-4H2	InChI=1S/C6H8O2/c1-2-5-4-7-6(3-1)8-5/h1-2,5-6H,3-4H2/t5-,6+/m0/s1
