16
gdb 49507	3.82567	1.22078	1.14096	3.5884	69.95	-0.249	-0.0455	0.2035	1073.006	0.125367	-437.896326	-437.889015	-437.888071	-437.928362	28.059	
O	-0.6483001398	 0.8239421407	 0.5531439632	-0.238713
C	 0.2327138424	 0.9805734882	-0.2555136445	 0.117188
C	 1.3592346112	 1.9723435005	-0.1517708441	-0.089287
C	 1.1053908073	 3.4161446206	-0.765349807	-0.035879
C	 0.344520714	 3.747031489	 0.5399180226	-0.226895
C	 1.4633875924	 2.8418861829	 1.1551815335	-0.158568
C	 2.723280725	 3.641187258	 0.7816162112	 0.410449
O	 3.7570930243	 3.804145014	 1.3740605811	-0.363434
N	 2.3820645653	 4.1014402053	-0.4999526254	-0.308803
H	 0.2680174281	 0.3647677759	-1.183676344	 0.085251
H	 2.2784806338	 1.496569711	-0.5128584171	 0.096501
H	 0.7064065272	 3.5815457463	-1.7644276986	 0.093953
H	 0.3216664602	 4.7980037995	 0.8317182833	 0.117933
H	-0.6377070268	 3.2850460065	 0.6112640633	 0.142974
H	 1.4179762449	 2.4143576745	 2.1521304245	 0.105464
H	 3.1053845907	 4.1559287671	-1.2032798419	 0.251866
84.0579	165.8545	185.4989	281.7427	370.9948	453.0512	487.1844	504.1927	647.0153	694.2799	743.6172	794.1323	806.7074	865.9224	888.4366	918.2988	985.3665	990.9484	1015.0093	1044.0756	1070.4231	1100.2293	1105.7651	1172.7926	1192.2688	1214.4948	1230.9506	1254.2803	1309.732	1346.4757	1381.8766	1425.8441	1503.3027	1815.2664	1872.578	2867.1296	3047.513	3093.8928	3138.8211	3175.4985	3177.0491	3607.0085
O=CC1C2CC1C(=O)N2	O=C[C@H]1[C@H]2C[C@@H]1C(=O)N2	
InChI=1S/C6H7NO2/c8-2-4-3-1-5(4)7-6(3)9/h2-5H,1H2,(H,7,9)	InChI=1S/C6H7NO2/c8-2-4-3-1-5(4)7-6(3)9/h2-5H,1H2,(H,7,9)/t3-,4+,5+/m0/s1
