23
gdb 96478	2.33713	1.42955	0.97953	1.5492	87.7	-0.2292	0.0158	0.245	1290.9474	0.206519	-388.297138	-388.287949	-388.287004	-388.330707	35.949	
C	 0.0871560798	 1.6246547673	-0.0645377133	-0.417149
C	 0.0650067567	 0.0900028653	 0.0089594066	-0.072609
C	 0.6715977725	-0.518699637	-1.2772076258	-0.188855
C	 0.2216610705	-1.9509375063	-1.5874729829	-0.076907
O	 0.655086028	-2.9369159602	-0.6757053312	-0.235498
C	 0.0622737787	-2.8463934183	 0.6137136942	-0.13422
C	 0.6825227752	-1.8043808226	 1.5148902871	-0.154201
C	 0.7140182144	-0.4902651407	 1.2698102756	 0.325949
C	 1.4147996201	 0.4392903611	 2.2286391594	-0.481176
H	 1.1072000399	 2.0133279756	-0.1520094483	 0.117881
H	-0.4687675166	 1.9633348179	-0.9443249809	 0.111576
H	-0.3736404099	 2.0860070887	 0.8133839757	 0.114226
H	-0.9944047706	-0.2106729097	 0.0300710764	 0.083061
H	 0.3713235259	 0.0979177524	-2.1350752596	 0.088022
H	 1.7659715891	-0.4821626783	-1.2245343421	 0.102137
H	-0.8807838883	-1.9705675271	-1.664598872	 0.078355
H	 0.6219176221	-2.2554598	-2.5604600002	 0.101764
H	-1.0235942032	-2.6726993168	 0.5056393176	 0.089078
H	 0.186037453	-3.8370975742	 1.0603920942	 0.104301
H	 1.1586686671	-2.1780426602	 2.4185122995	 0.078214
H	 1.8471574141	-0.1182629043	 3.0630783402	 0.11754
H	 2.2255030185	 0.9924565966	 1.7387668806	 0.124714
H	 0.734009783	 1.1919762808	 2.6433307492	 0.123796
65.5751	165.8921	197.5849	247.4363	271.6262	273.2401	327.3489	336.2945	391.1594	409.3688	434.4773	550.647	561.722	656.9173	708.7946	817.7765	851.8024	854.1772	931.407	969.7715	979.1219	1026.4256	1039.0312	1045.1117	1064.7032	1083.1709	1124.786	1136.831	1174.4308	1213.4651	1236.6269	1283.2332	1313.8944	1329.0693	1345.689	1367.5245	1381.8998	1395.9902	1408.9094	1419.4628	1425.5024	1469.9456	1476.6289	1483.0847	1484.4748	1494.017	1507.2048	1509.5496	1718.1993	2936.3957	2943.1643	2974.4789	3015.8897	3022.4427	3038.0862	3064.5181	3069.9424	3070.2854	3079.1651	3102.4076	3110.6393	3114.618	3148.2775
CC1CCOCC=C1C	C[C@H]1CCOCC=C1C	
InChI=1S/C8H14O/c1-7-3-5-9-6-4-8(7)2/h3,8H,4-6H2,1-2H3	InChI=1S/C8H14O/c1-7-3-5-9-6-4-8(7)2/h3,8H,4-6H2,1-2H3/t8-/m0/s1
