18
gdb 14841	3.01731	1.59675	1.15565	1.1731	73.69	-0.2497	0.0385	0.2882	1066.6846	0.152202	-347.755605	-347.746938	-347.745994	-347.789281	31.3	
C	-0.1153989421	 1.5621288043	-0.1585861386	-0.387122
C	-0.009330786	 0.0364341166	-0.0766740541	-0.18799
C	-1.3533909466	-0.606693351	 0.2109241602	 0.152189
O	-2.3195705016	-0.3783399345	-0.8440349277	-0.287742
C	-2.4333763269	-1.780539483	-1.1342029532	-0.074216
C	-1.4939386424	-2.1578394974	 0.044174296	-0.26678
C	-0.3174549982	-2.9467808789	-0.2513246213	 0.34719
C	 0.6548792135	-3.6065190356	-0.5080144774	-0.472512
H	 0.8512260697	 2.0112256824	-0.4043084126	 0.112293
H	-0.8343807488	 1.853371107	-0.9294842243	 0.137156
H	-0.4510996333	 1.9894683645	 0.7929739423	 0.112029
H	 0.3871634235	-0.3681876698	-1.0144038853	 0.108299
H	 0.6915227378	-0.2607099921	 0.7138083337	 0.101862
H	-1.7477411143	-0.2455823663	 1.1708030623	 0.076585
H	-3.4646861181	-2.1408713035	-1.0467855322	 0.106811
H	-2.0414131242	-2.0353893755	-2.1254124346	 0.111263
H	-2.0409247487	-2.6033972969	 0.8792469469	 0.111234
H	 1.5137073467	-4.1897213404	-0.7314307902	 0.199451
56.5224	102.9887	117.8269	197.9296	216.7514	249.8369	354.1932	446.4197	500.4409	565.1391	621.3834	639.1028	738.0844	765.8053	830.662	892.745	940.5732	974.9371	1019.5989	1037.8133	1061.9415	1106.5567	1125.039	1155.0567	1167.1329	1220.3975	1269.5534	1289.6351	1329.8191	1349.9016	1365.9775	1405.7469	1412.0763	1473.2722	1496.9705	1509.6908	1526.9792	2233.9709	3004.6225	3024.1261	3032.4335	3035.698	3063.4443	3073.8634	3079.3461	3103.9157	3119.6426	3503.4347
CCC1OCC1C#C	CC[C@H]1OC[C@H]1C#C	
InChI=1S/C7H10O/c1-3-6-5-8-7(6)4-2/h1,6-7H,4-5H2,2H3	InChI=1S/C7H10O/c1-3-6-5-8-7(6)4-2/h1,6-7H,4-5H2,2H3/t6-,7-/m1/s1
