20
gdb 60441	3.87325	0.6711	0.64197	6.0088	72.52	-0.2441	0.0249	0.269	1774.5287	0.169758	-477.451727	-477.441533	-477.440589	-477.487998	36.375	
C	 0.0776922191	 1.2463148077	-0.5652339785	-0.401962
C	 0.0026840314	-0.0826750941	 0.1818978709	 0.10911
O	 0.2116396664	 0.0892969555	 1.5855747982	-0.438369
C	-1.3664327316	-0.741961321	 0.054983093	-0.126906
N	-1.3805829029	-2.0156635557	 0.7762389061	-0.326188
H	-1.0294637222	-3.4070632774	-0.4868677624	 0.299652
H	-1.0111838304	-1.8532119485	 1.7059108852	 0.246427
C	-2.6827708095	-2.6743497832	 0.8174863494	-0.307914
C	-2.8641196797	-3.6184396033	-0.3835713977	 0.419156
O	-1.7037479342	-3.9215018844	-0.9855034039	-0.363888
O	-3.9256629263	-4.0592498447	-0.729564511	-0.332885
H	 1.0663121055	 1.7019078632	-0.4438310399	 0.112188
H	-0.0928473322	 1.1046495292	-1.6373613281	 0.124866
H	-0.6693272467	 1.9468244898	-0.1797508971	 0.130408
H	 0.7554432132	-0.777552731	-0.2227893285	 0.077771
H	 1.1098680888	 0.4045264351	 1.7236690827	 0.289309
H	-2.1324034724	-0.0458014624	 0.4366272991	 0.103247
H	-1.5865605523	-0.9263101068	-1.0026527508	 0.118465
H	-2.7456956111	-3.2955057012	 1.717376221	 0.139445
H	-3.5364986428	-1.983983737	 0.8411321024	 0.12807
53.9524	60.5419	82.2768	145.7108	186.3438	221.5535	275.4899	309.1864	337.4701	377.102	459.8076	487.1727	553.1113	563.2621	673.539	792.6827	853.6614	868.9114	897.0801	918.719	953.946	975.5164	1058.3211	1085.9687	1133.6678	1148.5174	1152.585	1207.02	1228.4443	1267.8933	1302.2779	1345.8638	1354.0929	1384.757	1408.7499	1424.7565	1435.6552	1467.3268	1484.0446	1491.807	1497.1136	1506.9185	1880.1624	2963.8024	2983.0106	3021.377	3034.0604	3064.9904	3081.7784	3101.9034	3116.6002	3454.5643	3550.8699	3829.2138
CC(O)C[NH2+]CC([O-])=O	C[C@@H](O)CNCC(=O)O	
InChI=1S/C5H11NO3/c1-4(7)2-6-3-5(8)9/h4,6-7H,2-3H2,1H3,(H,8,9)	InChI=1S/C5H11NO3/c1-4(7)2-6-3-5(8)9/h4,6-7H,2-3H2,1H3,(H,8,9)/t4-/m1/s1
