15
gdb 29886	3.25754	1.47269	1.02232	9.4219	71.15	-0.2349	-0.0243	0.2106	1095.9306	0.114718	-450.187849	-450.179864	-450.178919	-450.220673	29.428	
C	-0.0938790681	 1.4880508077	 0.0036343753	-0.363896
N	-0.0043191788	 0.0363721854	 0.0187952212	-0.111288
C	 0.0249803808	-0.6973709734	-1.1525410006	 0.095328
N	 0.043780332	-1.9679513726	-1.2283846989	-0.306416
C	 0.0186499523	-2.7107789988	-0.0056067594	 0.378088
O	-0.0165013798	-3.9156180274	-0.0306192	-0.344907
N	 0.0509934869	-1.9984972121	 1.2026833858	-0.376674
C	 0.0257321579	-0.7094528428	 1.1857737639	 0.471711
N	-0.0324019095	-0.0077515217	 2.3648731493	-0.57546
H	 0.8207353861	 1.9553600832	 0.3876294388	 0.145109
H	-0.2313348562	 1.8174218716	-1.0278434456	 0.156629
H	-0.947394573	 1.8287214424	 0.5963754017	 0.163219
H	 0.0297761431	-0.0879205888	-2.0569879666	 0.129619
H	 0.1265118682	-0.6032872063	 3.1651720544	 0.278304
H	 0.4176977981	 0.8926944235	 2.4150510207	 0.260637
58.8347	172.3275	185.152	210.7579	331.0484	378.0047	388.4569	444.3575	498.219	572.7355	600.7059	605.6292	748.8349	751.187	810.8714	823.194	910.6893	971.5175	1032.7623	1122.9024	1150.3745	1195.09	1268.6862	1331.6716	1419.6328	1437.7738	1481.281	1489.1374	1520.2175	1587.739	1648.6123	1735.1295	1817.5982	3027.4261	3096.9289	3124.5893	3138.3189	3576.7218	3690.3307
CN1C=NC(=O)N=C1N	Cn1cnc(=O)nc1N	
InChI=1S/C4H6N4O/c1-8-2-6-4(9)7-3(8)5/h2H,1H3,(H2,5,7,9)	InChI=1S/C4H6N4O/c1-8-2-6-4(9)7-3(8)5/h2H,1H3,(H2,5,7,9)
