16
gdb 125417	3.27789	1.43426	1.00455	3.3446	78.78	-0.2021	-0.0143	0.1878	1138.3697	0.126373	-430.281888	-430.273407	-430.272463	-430.315333	31.61	
C	-0.0412321446	 1.4751468139	 0.0451453247	-0.480879
C	 0.0164283695	-0.025618048	-0.0363079314	 0.413103
N	-0.0825741848	-0.6246778191	-1.1902275951	-0.388907
C	-0.0622798994	-2.0079896258	-1.1998908437	 0.294208
N	-0.1177683554	-2.7491053383	-2.246878981	-0.561579
C	 0.0444500405	-2.6946513938	 0.1156558059	 0.404729
N	-0.0016531154	-4.0453381415	 0.0827406376	-0.547231
N	 0.1649307554	-2.0605128376	 1.2452647121	-0.32589
N	 0.1497387602	-0.6932549678	 1.1252462206	-0.272815
H	 0.5488748207	 1.8625015924	 0.8811482061	 0.125884
H	 0.3352385456	 1.8958795718	-0.8874549116	 0.162039
H	-1.0762389572	 1.8099865799	 0.1744905284	 0.153189
H	-0.179001289	-2.1579118484	-3.0771788474	 0.215912
H	 0.0784692469	-4.4522969088	-0.8373033244	 0.279878
H	 0.2557470626	-4.56978258	 0.9010056078	 0.258036
H	 0.2299580845	-0.2084667989	 2.0034075013	 0.270322
47.117	100.4336	188.3379	288.175	307.9511	347.8712	352.3404	452.1693	502.7888	508.5471	525.3471	564.2489	586.7541	648.3233	722.0413	809.2406	820.7928	891.23	968.5436	1036.0823	1055.6119	1070.9268	1144.9206	1223.4656	1296.4183	1366.5343	1409.4518	1441.4325	1469.8329	1487.5979	1545.6887	1589.8207	1616.0211	1665.6368	1691.6422	3043.3845	3104.7053	3154.2395	3472.5396	3576.859	3653.2964	3723.079
CC1=NC(=N)C(N)=NN1	C[C@@H]1N=C([NH])C(=NN1)N	
InChI=1S/C4H7N5/c1-2-7-3(5)4(6)9-8-2/h1H3,(H2,6,9)(H2,5,7,8)	InChI=1S/C4H8N5/c1-2-7-3(5)4(6)9-8-2/h2,5,8H,1H3,(H2,6,9)/t2-/m1/s1
