17
gdb 69471	5.92944	0.81321	0.77595	5.3398	71.41	-0.261	0.0065	0.2675	1457.8949	0.133446	-458.947578	-458.93887	-458.937925	-458.981916	31.225	
C	 0.1060580457	 1.5376357453	 0.0182501249	-0.500746
C	-0.1021382086	 0.0605032318	 0.0647448331	 0.412144
C	-1.4083612644	-0.737367496	-0.1211322173	-0.335522
C	-0.8223109587	-1.8016611726	 0.8646281257	 0.130693
O	-0.7078701073	-3.1301913573	 0.3769695477	-0.185992
C	-1.3169857675	-4.1196546136	 1.0593731329	 0.16922
O	-1.2792489694	-5.261774178	 0.7168500372	-0.271504
C	 0.4770582522	-0.9976060828	 0.9240027292	-0.074224
O	 0.9341976445	-0.8032448126	-0.4165595666	-0.270118
H	 1.1206240977	 1.790133752	 0.3366235387	 0.140187
H	-0.0359287446	 1.9147888206	-1.0005739075	 0.138886
H	-0.6078954246	 2.0521301545	 0.6691916625	 0.127583
H	-2.3093025706	-0.2537135785	 0.2627700597	 0.112231
H	-1.5727294645	-1.0938273677	-1.1393355523	 0.130502
H	-1.346232601	-1.7948558497	 1.8276210758	 0.094122
H	-1.8470836597	-3.7543144881	 1.9619584373	 0.075127
H	 1.2175935708	-0.9627597275	 1.715284079	 0.107409
42.1561	83.2859	141.5252	198.1088	245.8991	286.3863	317.626	403.0594	412.7076	517.7806	652.3101	683.223	749.5082	838.6761	889.3965	908.1235	958.5612	974.9471	1020.0129	1042.7714	1050.7066	1060.4346	1130.7602	1158.9034	1191.1402	1205.6785	1213.5929	1271.4763	1288.7581	1378.6319	1405.167	1438.723	1453.0524	1474.6893	1485.4316	1496.094	1870.4466	2933.7413	3037.4336	3040.9202	3075.5095	3100.1496	3125.1502	3139.396	3184.0658
CC12CC(OC=O)C1O2	C[C@]12C[C@@H](OC=O)[C@H]1O2	
InChI=1S/C6H8O3/c1-6-2-4(8-3-7)5(6)9-6/h3-5H,2H2,1H3	InChI=1S/C6H8O3/c1-6-2-4(8-3-7)5(6)9-6/h3-5H,2H2,1H3/t4-,5-,6+/m1/s1
