18
gdb 40483	3.42662	1.54885	1.31438	1.9896	75.95	-0.2321	0.0826	0.3147	999.0482	0.148419	-401.820689	-401.813597	-401.812653	-401.852424	28.121	
C	 0.4182774821	 1.4255140395	 0.2579564519	-0.178038
O	 1.1231604957	 0.2827827807	-0.2381679726	-0.232788
C	-0.2539207219	 0.1261537069	 0.1162834377	-0.084753
C	-0.5628162265	-0.7139659406	 1.3046756066	 0.370934
C	-1.8924727859	-0.8029093711	 2.0693320302	-0.307953
C	-0.8877202526	-1.6310371764	 2.8696933942	-0.002739
C	-0.1697326314	-2.2021754476	 1.6124278193	-0.111542
C	 1.1624276501	-1.7239600641	 2.1796935005	-0.191401
N	 0.2427628323	-0.5890646717	 2.6337245959	-0.191642
H	 0.7105753215	 1.7520381782	 1.2531114127	 0.137753
H	 0.232114541	 2.2097524569	-0.4738394585	 0.115329
H	-0.9212762467	-0.0227725567	-0.7348375038	 0.094066
H	-2.2398440846	 0.1225427921	 2.5369041335	 0.108749
H	-2.7070960776	-1.3456387479	 1.5830041086	 0.099885
H	-0.9902574379	-2.105973912	 3.8464132623	 0.085031
H	-0.4296186064	-3.0963272833	 1.0357386396	 0.066218
H	 1.5845678842	-2.2876697192	 3.0185039226	 0.094827
H	 1.9392272545	-1.4023115437	 1.4851190492	 0.128066
75.5403	174.9091	190.8134	371.0106	391.8326	441.9808	486.8684	633.0312	712.7359	774.3442	842.3768	854.0468	871.8443	880.0087	897.9841	931.1432	937.3774	998.5141	1015.7931	1029.0617	1065.7441	1081.3553	1101.4791	1113.526	1148.0406	1157.6347	1158.6525	1169.5589	1173.7784	1216.7882	1245.5125	1272.9348	1277.8587	1286.504	1307.2179	1439.3511	1494.2968	1512.9771	1520.5028	3041.5012	3051.5164	3056.3103	3089.3373	3096.0774	3108.772	3120.9343	3136.8921	3192.1577
C1OC1C12CC3C1CN23	C1O[C@H]1[C@@]12C[C@H]3[C@@H]1CN23	
InChI=1S/C7H9NO/c1-5-4-2-8(5)7(1,4)6-3-9-6/h4-6H,1-3H2	InChI=1S/C7H9NO/c1-5-4-2-8(5)7(1,4)6-3-9-6/h4-6H,1-3H2/t4-,5-,6+,7+/m0/s1
