18
gdb 30715	2.92382	1.27224	0.92699	2.0253	76.48	-0.1888	0.0229	0.2117	1256.0047	0.147773	-439.109345	-439.100084	-439.09914	-439.143339	34.144	
C	-0.0534382976	 1.488179531	 0.0349516901	-0.514144
C	-0.0001690328	-0.0062672204	 0.0034518312	 0.226057
C	 0.0823585575	-0.8225642256	-1.082595802	-0.1294
O	 0.1155057571	-2.1280917818	-0.723705615	-0.189783
C	 0.0556286108	-2.1644036141	 0.6488505027	 0.262086
C	 0.0744288199	-3.4858512571	 1.3325712535	-0.186197
O	-0.8821342323	-3.5465323325	 2.397514726	-0.413202
C	-0.0177209188	-0.8905913823	 1.1407963959	 0.039119
N	-0.0236589448	-0.5055896794	 2.4865538146	-0.615349
H	 0.7722444916	 1.9063302944	 0.6225622131	 0.136229
H	 0.0076473828	 1.9064791551	-0.9733193936	 0.127429
H	-0.9850267006	 1.8553812493	 0.4849970292	 0.120412
H	 0.1235377612	-0.622295947	-2.1414462558	 0.127982
H	-0.0848865903	-4.2800006688	 0.5891117279	 0.112092
H	 1.0354726674	-3.686149284	 1.8220859285	 0.124421
H	-1.7396607128	-3.3345499709	 2.0117658132	 0.281375
H	-0.3349600722	-1.2610620406	 3.0861564873	 0.251607
H	-0.5736723561	 0.3259256046	 2.6596603032	 0.239268
79.455	120.1644	136.1817	194.7495	230.0834	260.4123	311.4628	355.0038	384.3171	437.8471	472.3029	593.5707	617.8659	684.5369	715.834	740.8668	769.0394	800.6723	936.5149	992.1419	1010.4029	1028.1779	1064.3798	1149.0171	1183.9571	1224.9397	1231.6372	1281.7865	1311.4324	1367.27	1413.3814	1420.3768	1470.3034	1481.1503	1500.3734	1505.1314	1594.4953	1649.7151	1693.0381	3004.8505	3017.1877	3046.6814	3065.8474	3110.8012	3265.433	3523.6776	3617.82	3798.409
CC1=COC(CO)=C1N	Cc1coc(CO)c1N	
InChI=1S/C6H9NO2/c1-4-3-9-5(2-8)6(4)7/h3,8H,2,7H2,1H3	InChI=1S/C6H9NO2/c1-4-3-9-5(2-8)6(4)7/h3,8H,2,7H2,1H3
