16
gdb 53027	4.17455	1.00277	0.89322	1.6944	80.25	-0.2353	0.0207	0.256	1322.6839	0.122943	-400.603057	-400.594984	-400.59404	-400.637921	29.507	
C	 0.0059231813	 1.4312555391	 0.0287765464	-0.517265
C	 0.0328858059	-0.022334135	 0.0279810044	 0.355064
C	 0.0525296415	-1.2275281112	 0.030475963	-0.401044
C	 0.0789043428	-2.6531013968	 0.0167896315	 0.277387
N	 0.8615506043	-3.5097754173	 0.9816974154	-0.380313
C	 0.2156193823	-4.5222879537	 0.0902032315	-0.096394
C	-1.099300756	-3.6986177647	-0.0072497043	 0.064165
O	-1.1832204687	-3.7647137565	-1.4551995474	-0.323564
C	 0.2425396512	-3.6500876003	-1.2052285646	 0.033232
H	 0.7871317566	 1.8384415761	 0.6799619059	 0.154884
H	 0.1687249194	 1.831672661	-0.9778485946	 0.154017
H	-0.9573882158	 1.8099877244	 0.3875098309	 0.155232
H	 1.861059132	-3.4374237514	 0.7744229573	 0.214399
H	 0.3396366942	-5.5983325453	 0.2003377394	 0.096199
H	-2.0106515853	-3.7319749726	 0.5868496914	 0.112326
H	 0.9311052341	-3.6229760058	-2.0511950662	 0.101675
11.7355	87.3644	107.9851	278.0103	299.605	411.8063	458.184	485.2126	519.1897	611.8305	747.8292	783.7296	816.6331	830.3891	882.2061	892.433	911.8161	985.1866	1019.2337	1030.624	1052.7751	1053.7026	1097.6073	1115.4291	1156.2377	1162.5122	1184.0104	1263.8772	1276.2209	1313.43	1376.8436	1414.2941	1474.1697	1475.9566	2362.5227	3028.1367	3090.6433	3091.3785	3110.3898	3135.5905	3149.5837	3409.6114
CC#CC12NC3C1OC23	CC#C[C@@]12N[C@H]3[C@@H]1O[C@@H]23	
InChI=1S/C7H7NO/c1-2-3-7-5-4(8-7)6(7)9-5/h4-6,8H,1H3	InChI=1S/C7H7NO/c1-2-3-7-5-4(8-7)6(7)9-5/h4-6,8H,1H3/t4-,5-,6+,7+
