19
gdb 61997	3.63268	0.81494	0.79701	1.6422	78.45	-0.2379	-0.0196	0.2183	1504.5131	0.154032	-422.996733	-422.98599	-422.985046	-423.034077	37.542	
C	-1.2670714559	 0.7198712438	-0.8963341858	-0.409836
C	-0.2246791101	-0.0833434398	-0.1030412332	-0.04129
O	-0.8061904213	-1.0949296676	 0.7245792902	-0.254039
C	-1.4731246367	-0.6090649195	 1.8730984166	-0.164206
C	-2.9936618772	-0.4568552822	 1.7145651957	 0.36169
C	-3.6986147349	-1.512297988	 0.8901297216	-0.47104
O	-3.5753543776	 0.440397108	 2.279213242	-0.29713
C	 0.7270428769	-0.7435618347	-0.9951044781	 0.315325
C	 1.5059401931	-1.2544258282	-1.7529570142	-0.437296
H	-0.7661378822	 1.4791464153	-1.5030995109	 0.13413
H	-1.8290619279	 0.0607712225	-1.5626801791	 0.135468
H	-1.9612036066	 1.2272654375	-0.2203841582	 0.13657
H	 0.3329126592	 0.6142306581	 0.5435706105	 0.106076
H	-1.3077642128	-1.3488740593	 2.6695167827	 0.129124
H	-1.0674116527	 0.3496439507	 2.2199880042	 0.118828
H	-3.575871986	-2.4910122116	 1.3699682115	 0.14363
H	-4.7595161468	-1.2737848295	 0.810899224	 0.139349
H	-3.2427973386	-1.5984531041	-0.0991489039	 0.153014
H	 2.1999131183	-1.7132266614	-2.4132577156	 0.201632
36.8413	37.8706	81.8081	100.3546	154.074	215.9067	239.3892	280.5701	348.3798	389.3361	431.5913	481.914	521.1006	545.2106	607.0448	625.8938	675.3286	770.4405	805.4484	866.3261	912.5652	1003.6059	1048.5546	1084.2181	1104.4911	1110.8388	1144.9113	1236.5353	1279.012	1346.8567	1356.1389	1378.6617	1387.4593	1403.6519	1458.5505	1463.9022	1472.9368	1491.8494	1495.6675	1814.2761	2245.4931	2965.8295	3004.3484	3042.5359	3047.9969	3060.1609	3112.5727	3124.2658	3133.1144	3162.1548	3504.1115
CC(OCC(C)=O)C#C	C[C@@H](OCC(=O)C)C#C	
InChI=1S/C7H10O2/c1-4-7(3)9-5-6(2)8/h1,7H,5H2,2-3H3	InChI=1S/C7H10O2/c1-4-7(3)9-5-6(2)8/h1,7H,5H2,2-3H3/t7-/m1/s1
