19
gdb 105013	2.22089	1.33309	1.13432	3.8892	75.82	-0.2593	0.0299	0.2892	1190.4228	0.158149	-419.18073	-419.170874	-419.16993	-419.215675	35.724	
C	-1.5081460303	-1.2241827836	-0.1287586584	-0.260632
O	-0.4034080871	-0.3307976808	-0.2131444522	-0.303907
C	 0.6264617797	-0.6946293611	-1.0858853542	 0.459641
C	 1.9814020999	-0.9295735806	-0.4833744592	-0.298953
C	 1.1955452901	-2.0878375157	-1.0596588983	-0.342249
C	 0.5600241809	 0.0533708594	-2.417838021	-0.183557
N	-0.7571457597	-0.1013208135	-3.0395288373	-0.508845
C	 0.9389322132	 1.4750501478	-2.2300313368	 0.266581
N	 1.2042287093	 2.5951343603	-2.1216536638	-0.32878
H	-1.8723716383	-1.5206196616	-1.1177666072	 0.132767
H	-1.2565392441	-2.1280495877	 0.4416218801	 0.11217
H	-2.2946108809	-0.6866051352	 0.406564126	 0.130329
H	 2.8570020276	-0.5701848905	-1.0135074306	 0.122321
H	 2.0405558966	-0.852209379	 0.5956247072	 0.13194
H	 0.764148955	-2.7958535583	-0.3621821498	 0.125778
H	 1.5171166197	-2.5292217537	-1.9967593901	 0.122486
H	 1.3049724744	-0.3895054998	-3.0881518916	 0.127384
H	-1.4394190656	 0.4004263897	-2.4776653858	 0.25058
H	-0.7598824906	 0.3413014136	-3.9538307369	 0.244946
48.4431	111.6909	132.6194	162.8174	210.1834	245.7799	286.5217	305.8129	330.7314	360.1904	403.5686	506.9271	580.8024	617.2148	757.5513	767.3685	851.1821	900.1446	915.8538	960.0536	981.4636	1022.0165	1057.1504	1081.3	1090.0974	1109.9394	1176.6709	1183.9541	1187.5959	1221.8386	1275.9479	1296.2317	1350.9437	1399.2394	1461.1487	1476.1287	1495.4919	1501.4739	1514.0378	1655.1624	2345.8893	3010.387	3055.6686	3079.5201	3123.9317	3139.4933	3142.6176	3222.151	3236.1424	3496.7872	3573.3949
COC1(CC1)C(N)C#N	COC1(CC1)[C@@H](N)C#N	
InChI=1S/C6H10N2O/c1-9-6(2-3-6)5(8)4-7/h5H,2-3,8H2,1H3	InChI=1S/C6H10N2O/c1-9-6(2-3-6)5(8)4-7/h5H,2-3,8H2,1H3/t5-/m0/s1
