17
gdb 84800	2.32961	1.71182	1.09879	10.5232	73.5	-0.188	-0.042	0.146	1084.0566	0.136509	-455.163591	-455.154836	-455.153892	-455.19817	31.272	
C	 0.0448388406	 1.4271562453	-0.0857036734	-0.352282
N	 0.0044048495	-0.0287145961	-0.0467287579	 0.02592
C	 0.080762744	-0.8336420762	-1.0686623064	 0.116959
N	-0.0117854632	-2.1150181202	-0.7351643516	-0.289753
H	 0.1095577188	-2.8717913212	-1.3847558143	 0.283745
C	-0.1614994072	-2.2619740942	 0.7263723945	-0.187478
C	 0.0105308076	-0.8070679226	 1.2181684366	-0.160372
C	 1.3977228139	-0.5931403486	 2.0258233311	 0.37207
O	 1.7351931288	 0.5959837479	 2.1241002944	-0.458724
O	 1.8887719067	-1.6524046844	 2.4300599778	-0.43263
H	 0.7890427204	 1.7376211991	 0.6521617823	 0.221718
H	 0.3101916562	 1.7563613482	-1.0927630751	 0.128035
H	-0.9391206986	 1.8291143772	 0.1791075524	 0.138968
H	 0.2121889067	-0.4918105574	-2.0870371154	 0.178926
H	-1.1313669987	-2.7138084434	 0.9579534394	 0.118093
H	 0.6516395082	-2.8443060199	 1.1726363891	 0.180009
H	-0.8091105537	-0.4593811934	 1.8508481964	 0.116795
26.7559	82.9101	164.6166	212.8957	243.394	283.9538	326.1152	348.6911	456.2845	523.371	554.9453	635.9864	765.5843	793.9958	820.1055	925.6587	933.1578	956.4503	986.4747	1044.4745	1111.8695	1159.2169	1174.4165	1185.5228	1237.0321	1255.6295	1288.9522	1308.6642	1327.2586	1377.8109	1418.1953	1472.0914	1494.7774	1523.2541	1558.3617	1714.7055	1810.7642	3029.2601	3033.9025	3084.6762	3096.6149	3109.5025	3141.0314	3233.3565	3687.9265
CN1C=[NH+]CC1C([O-])=O	CN1[CH]NC[C@H]1C(=O)[O]	
InChI=1S/C5H8N2O2/c1-7-3-6-2-4(7)5(8)9/h3-4H,2H2,1H3,(H,8,9)	InChI=1S/C5H8N2O2/c1-7-3-6-2-4(7)5(8)9/h3-4,6H,2H2,1H3/t4-/m0/s1
