15
gdb 24906	4.89563	1.30668	1.03971	1.8463	74.11	-0.1903	0.0125	0.2028	1076.7728	0.115306	-416.835088	-416.828196	-416.827252	-416.866315	27.236	
N	-0.0290262564	 1.251195221	-0.0658275652	-0.524924
C	 0.0062640731	-0.0121109493	 0.0249748155	 0.376485
C	-1.2552149056	-0.9096742233	 0.0196805429	-0.424596
C	-0.661182392	-2.2891111973	-0.048800422	 0.192587
C	 0.6818161244	-2.1557598026	-0.0007827895	 0.408699
N	 1.1458595379	-0.8525879241	 0.143199998	-0.451674
O	 1.3478261995	-3.3127664038	 0.0284886296	-0.209072
C	 0.3484076349	-4.2808816084	-0.015523681	-0.032467
C	-0.8864242823	-3.7045595068	-0.0505517537	-0.342309
H	 0.9048546527	 1.6640268564	-0.0415372325	 0.20963
H	-1.8323571363	-0.72414707	 0.9330551194	 0.144188
H	-1.8958368589	-0.6278234637	-0.8214986588	 0.143768
H	 2.0353405001	-0.5474237642	-0.2230375769	 0.257157
H	 0.703407752	-5.2960171589	-0.0392858303	 0.13634
H	-1.8235026332	-4.2384343952	-0.0871013853	 0.116186
107.6066	204.0007	292.9285	336.093	387.9731	526.8516	541.131	560.422	598.1415	643.2555	711.3604	726.9137	825.1297	826.7699	837.0949	866.43	926.8096	966.502	1020.5445	1052.5111	1111.0099	1156.196	1167.4714	1233.347	1273.883	1292.491	1314.2297	1417.7025	1465.0997	1509.2777	1538.0516	1664.6405	1757.395	3044.1747	3081.2905	3253.6526	3301.6816	3458.7912	3614.6911
N=C1CC2=C(N1)OC=C2	[NH][C]1Cc2c(N1)occ2	
InChI=1S/C6H6N2O/c7-5-3-4-1-2-9-6(4)8-5/h1-2H,3H2,(H2,7,8)	InChI=1S/C6H6N2O/c7-5-3-4-1-2-9-6(4)8-5/h1-2H,3H2,(H2,7,8)
