14
gdb 64908	2.0541	1.72828	1.11575	3.337	69.24	-0.2591	-0.0067	0.2525	1064.859	0.096891	-436.629661	-436.620545	-436.619601	-436.6631	33.771	
O	 0.0141860192	 1.3566340397	 0.0206630915	-0.452875
C	 0.067663343	-0.0307085126	 0.0342213969	 0.20526
C	-0.4695223847	-0.7605278982	 1.2506293872	-0.389597
C	-1.3011457315	-0.742971143	-0.0202639529	 0.142873
O	-2.3610012403	 0.1629400843	-0.1151884749	-0.45191
C	-1.4713282627	-1.9577629241	-0.7806324275	 0.277349
N	-1.6316601278	-2.9355191352	-1.3766762885	-0.340415
C	 1.1814559789	-0.5919410727	-0.6792751985	 0.328958
C	 2.1154644632	-1.0737364796	-1.2603221693	-0.433457
H	-0.9146190151	 1.5993848901	-0.1071591996	 0.303252
H	-0.0100355846	-1.6980072109	 1.5393141172	 0.15551
H	-0.8277640602	-0.1297318698	 2.0573189526	 0.137779
H	-3.0447501401	-0.0800328834	 0.5199297647	 0.30877
H	 2.9353325526	-1.4983671749	-1.7857067889	 0.208501
100.8639	113.5251	191.575	198.7316	253.4541	286.374	311.956	374.9653	439.2644	443.4606	461.9985	548.9553	585.6984	622.8716	636.9123	688.8178	695.8943	772.6936	849.4773	907.2062	935.6585	1054.7665	1097.9077	1201.9402	1245.4698	1298.9153	1336.9322	1412.3111	1449.0224	2248.5297	2352.8747	3139.4901	3243.9691	3500.2715	3732.4074	3795.1256
OC1(CC1(O)C#N)C#C	O[C@]1(C[C@]1(O)C#N)C#C	
InChI=1S/C6H5NO2/c1-2-5(8)3-6(5,9)4-7/h1,8-9H,3H2	InChI=1S/C6H5NO2/c1-2-5(8)3-6(5,9)4-7/h1,8-9H,3H2/t5-,6-/m0/s1
