15
gdb 37540	4.17458	1.75963	1.50834	2.7264	68.66	-0.2369	-0.0008	0.2361	850.1421	0.115075	-416.676043	-416.670301	-416.669356	-416.705925	24.061	
N	-0.0856144543	 1.5614501057	-0.1197954258	-0.32949
C	 1.3739619082	 1.2453605263	-0.0148947418	-0.056076
C	 1.246406706	 0.0977078232	 1.0209375294	-0.136464
C	-0.0446052193	 0.0801307269	 0.0395813993	-0.136718
C	 1.2129878186	-0.0781137435	-0.8736005595	 0.405066
N	 1.8321878533	-0.2444893484	-2.1673500236	-0.366902
C	 2.9990548841	-0.6294600973	-1.8005756479	 0.090762
O	 3.2813649368	-0.8704519527	-0.4706993866	-0.257338
C	 1.9483927638	-0.9289836946	 0.1159367623	 0.059118
H	-0.4115672797	 1.9980413715	 0.7470421243	 0.210945
H	 2.158698052	 1.9950971967	-0.1012775649	 0.097375
H	 1.2142016639	 0.1833589022	 2.1077062815	 0.086461
H	-0.9286759969	-0.5536815385	 0.1087930429	 0.098456
H	 3.8438282206	-0.7804395909	-2.4630919927	 0.143285
H	 1.6785101828	-1.9810644668	 0.2471017431	 0.091519
210.1723	307.4507	335.0469	528.8714	560.3299	589.5063	673.0503	700.9393	800.8345	846.9529	865.098	891.8054	906.0554	920.6706	939.897	947.551	965.7064	1038.1356	1042.2922	1046.2235	1085.4627	1093.098	1142.1433	1158.2662	1179.1351	1223.636	1243.1794	1280.4994	1292.6232	1319.2627	1335.8034	1383.8362	1601.1595	3066.5186	3110.4354	3123.1499	3135.9818	3219.7163	3401.3703
N1C2C3C1C21N=COC31	N1[C@H]2[C@H]3[C@@H]1[C@]12[N][CH]O[C@@H]31	
InChI=1S/C6H6N2O/c1-7-6-3-2(4(6)8-3)5(6)9-1/h1-5,8H	InChI=1S/C6H6N2O/c1-7-6-3-2(4(6)8-3)5(6)9-1/h1-5,8H/t2-,3-,4+,5-,6-/m0/s1
