15
gdb 98710	2.3132	1.31538	1.07432	2.4841	66.91	-0.266	-0.0256	0.2404	1160.9595	0.111478	-453.958493	-453.949377	-453.948433	-453.993404	31.178	
C	 0.2224584939	 1.5361162781	-0.058159478	-0.337287
N	 0.8303135559	 0.2477487983	-0.3307522805	-0.31083
C	 0.1736445609	-0.7497024784	-0.9642715854	 0.375949
O	-0.9530254939	-0.6930050373	-1.4216883718	-0.372525
C	 0.9605974039	-2.0397768988	-1.0873641313	-0.024592
O	 2.3152788954	-2.073297684	-0.637314091	-0.234969
C	 1.3585436828	-2.8421585613	 0.0950171251	-0.100372
C	 1.0734356041	-2.4092136831	 1.446268172	 0.311352
N	 0.8570126846	-2.0939745412	 2.5366022677	-0.319447
H	 0.800231423	 2.3464219639	-0.5142583759	 0.133191
H	-0.7796143276	 1.524476644	-0.4881551345	 0.173046
H	 0.1494362777	 1.7155668792	 1.0193960548	 0.142831
H	 1.7748590744	 0.0627650819	-0.0302023393	 0.266661
H	 0.7523971445	-2.58644116	-2.0044604199	 0.14163
H	 1.4512031805	-3.9202573314	-0.019121762	 0.155361
64.4924	80.3445	84.1962	162.1013	179.2264	243.6872	295.4848	321.3747	471.306	536.7866	565.94	593.0357	657.7674	765.9531	825.1874	862.6601	913.579	977.9169	1060.6301	1113.0183	1135.1162	1153.427	1178.2614	1246.8198	1280.5152	1357.4349	1421.4515	1442.5363	1494.3004	1498.5731	1577.9513	1793.3609	2364.5481	3037.5378	3094.9448	3140.4263	3154.6038	3155.8826	3630.9906
CNC(=O)C1OC1C#N	CNC(=O)[C@H]1O[C@H]1C#N	
InChI=1S/C5H6N2O2/c1-7-5(8)4-3(2-6)9-4/h3-4H,1H3,(H,7,8)	InChI=1S/C5H6N2O2/c1-7-5(8)4-3(2-6)9-4/h3-4H,1H3,(H,7,8)/t3-,4-/m0/s1
