14
gdb 129066	3.3683	1.44686	1.03676	1.3983	79.98	-0.2451	-0.0933	0.1518	1073.7343	0.103888	-429.025807	-429.018566	-429.017622	-429.058225	27.053	
N	-0.0087405661	 1.1164378138	 0.9627671061	-0.468534
C	 0.0685539229	 0.1162223451	 0.1600560365	 0.236264
C	 1.3272687884	-0.5539937618	-0.1826755832	-0.054326
N	 1.5728824225	-1.5636765452	-0.9390694571	-0.174513
N	 0.6654920779	-2.2239968931	-1.6619477593	-0.236022
C	-0.6321524139	-1.8698935518	-2.0936414523	 0.410284
N	-0.965174931	-2.3136753292	-3.2405052884	-0.492544
N	-1.5326424458	-1.182618794	-1.2747830176	-0.267575
C	-1.2435549575	-0.3622018963	-0.3461916138	 0.03125
H	 0.922820919	 1.4026413706	 1.2784761749	 0.23235
H	 2.2070084799	-0.1590965619	 0.3233620014	 0.117534
H	 1.0936049671	-2.8825839765	-2.299151791	 0.279442
H	-1.9531043961	-2.11728577	-3.3974972639	 0.240153
H	-2.0776452175	 0.1094419701	 0.1762156077	 0.146238
52.1106	108.1598	292.1824	353.1331	388.6252	406.09	453.6286	519.9823	635.3209	682.7888	688.2464	754.4128	784.6185	854.128	866.0695	894.8275	917.9027	947.0586	1010.9882	1080.6828	1137.5736	1197.9824	1339.9133	1397.3931	1410.6544	1419.5154	1481.3017	1642.9317	1669.511	1696.418	1730.0925	3125.5389	3138.9014	3427.9302	3506.0424	3589.1238
N=C1C=NNC(=N)N=C1	[NH]C1=C[N]N[C]([NH])N=C1	
InChI=1S/C4H5N5/c5-3-1-7-4(6)9-8-2-3/h1-2,5H,(H2,6,9)	InChI=1S/C4H5N5/c5-3-1-7-4(6)9-8-2-3/h1-2,5H,(H2,6,9)
