13
gdb 133210	3.11227	1.40299	0.97288	4.5302	64.79	-0.2723	-0.0858	0.1865	1100.7447	0.087276	-497.860001	-497.852419	-497.851474	-497.892296	27.864	
C	-0.0332808439	 1.5221174532	 0.0572599947	-0.478629
C	-0.0096559495	 0.0235372008	 0.009854446	 0.233807
N	-0.0458162077	-0.5434816491	-1.1508769857	-0.098904
O	-0.0247002617	-1.9208964086	-1.2097101091	-0.26695
C	 0.0336838912	-2.7653380134	-0.0931999676	 0.468055
O	 0.0462315008	-3.9477670503	-0.2901283399	-0.326276
C	 0.073217148	-2.0953034272	 1.19490005	-0.405754
C	 0.0515690723	-0.7553828286	 1.224315603	 0.300152
F	 0.0849495792	-0.0750337905	 2.3624002322	-0.046037
H	 0.8620335315	 1.908247202	 0.5549513957	 0.151558
H	-0.0801770041	 1.9161299486	-0.958251099	 0.160866
H	-0.8990644779	 1.8782804499	 0.6246610205	 0.151556
H	 0.1188703919	-2.7045736367	 2.0874534894	 0.156557
99.0817	172.8131	188.5766	271.3446	322.5224	372.576	417.8334	442.6307	529.3197	567.1907	714.8818	721.3815	728.0269	760.5863	865.7519	899.091	966.1325	1044.677	1061.6909	1187.2599	1226.4958	1252.764	1413.5286	1422.662	1471.5917	1476.8141	1610.3152	1705.798	1853.2415	3046.9337	3105.1708	3156.9045	3234.3121
CC1=NOC(=O)C=C1F	Cc1noc(=O)cc1F	
InChI=1S/C5H4FNO2/c1-3-4(6)2-5(8)9-7-3/h2H,1H3	InChI=1S/C5H4FNO2/c1-3-4(6)2-5(8)9-7-3/h2H,1H3
