18
gdb 47089	2.5747	1.84007	1.3018	1.7481	71.74	-0.2547	0.0215	0.2762	992.2211	0.15086	-439.114711	-439.107387	-439.106443	-439.147087	28.072	
N	 0.0390274044	 1.1733827996	 0.4736725692	-0.545872
C	 0.0335309234	-0.0396218848	 0.1231103312	 0.414838
O	 1.1489890578	-0.7780344772	-0.14063766	-0.240317
C	 0.8019828546	-2.1069980408	-0.5624425877	-0.113158
C	-0.6665234936	-2.3212137677	-0.1773766691	 0.09584
O	-0.8105316686	-2.9480473572	 1.0939358381	-0.274106
C	-1.31038536	-2.01325148	 2.0545295015	-0.083848
C	-2.0607170992	-0.9498614896	 1.2486137168	-0.229211
C	-1.2174059002	-0.8903286358	-0.0333136724	-0.149253
H	 0.9935512419	 1.534212846	 0.5153574445	 0.223169
H	 0.9515239393	-2.1843172113	-1.6461119582	 0.10989
H	 1.4594417462	-2.815197886	-0.0537089823	 0.131861
H	-1.1852018551	-2.9347379828	-0.920947046	 0.087481
H	-1.9444485919	-2.5608430518	 2.7571965257	 0.110918
H	-0.4798725394	-1.5635298957	 2.6183393054	 0.10783
H	-3.0761442548	-1.284419639	 1.0166498615	 0.107113
H	-2.1084408918	 0.0199216623	 1.7464393494	 0.137861
H	-1.7860444728	-0.5514022181	-0.9014930377	 0.108965
61.3215	136.2129	158.0455	291.2546	367.3832	456.3846	554.5269	589.9113	681.2866	726.2563	775.205	829.1271	864.1864	891.9988	900.3628	915.9986	957.0862	972.2226	1005.7821	1037.0436	1045.4975	1098.6268	1116.654	1137.3677	1194.6074	1214.6008	1240.5634	1269.335	1274.5708	1278.779	1312.3195	1347.5812	1364.1564	1395.9786	1406.6573	1488.8984	1505.6166	1527.3465	1770.5832	2997.6801	3032.3044	3057.1406	3062.5198	3088.179	3098.4625	3114.4402	3132.9779	3474.8238
N=C1OCC2OCCC12	[NH][C]1OC[C@H]2OCC[C@@H]12	
InChI=1S/C6H9NO2/c7-6-4-1-2-8-5(4)3-9-6/h4-5,7H,1-3H2	InChI=1S/C6H9NO2/c7-6-4-1-2-8-5(4)3-9-6/h4-5,7H,1-3H2/t4-,5-/m1/s1
