19
gdb 35119	2.83904	1.26677	1.01005	0.8044	89.16	-0.2435	0.0099	0.2534	1229.8651	0.159897	-348.721719	-348.713184	-348.712239	-348.755472	32.797	
C	-0.6211474794	-0.981163492	-1.1246616199	-0.4898
C	-0.3183832279	 0.0505822384	-0.5872654445	 0.336975
C	 0.0510605663	 1.312982956	 0.0738038203	-0.250843
C	-0.7294243232	 1.4329229821	 1.3697953595	-0.047513
C	-0.3109168888	 1.3440724903	 2.629455731	-0.063749
C	 1.0924137337	 1.1240365373	 3.1306744137	-0.252575
C	 2.1579240639	 2.0319441932	 2.4956926937	-0.246175
C	 2.4128683615	 1.8001481799	 1.0299876883	-0.074241
C	 1.5586441366	 1.4814098946	 0.0601328398	-0.035504
H	-0.8877085698	-1.8939403392	-1.5969682866	 0.195327
H	-0.3293800329	 2.1150038926	-0.5828130051	 0.124667
H	-1.7954224668	 1.5641919005	 1.1979100837	 0.096313
H	-1.0748213355	 1.4287114807	 3.3999304663	 0.087967
H	 1.107063407	 1.2785910419	 4.2149118318	 0.098294
H	 1.3825761412	 0.0770886662	 2.9701307855	 0.121615
H	 1.8795336314	 3.0819182563	 2.6628810205	 0.114974
H	 3.1018165343	 1.8876078868	 3.0343155748	 0.099801
H	 3.4521900486	 1.9166806486	 0.7272519832	 0.087381
H	 1.9662767299	 1.3468988056	-0.939612006	 0.097088
31.7472	132.0765	175.1232	198.1195	327.1006	342.7236	410.2149	414.8357	535.2156	558.2395	612.6867	629.6823	639.9024	720.5479	736.6738	791.4759	833.402	870.7694	911.7347	958.9693	1000.0361	1009.6006	1018.8627	1046.9703	1084.7729	1103.0581	1194.2298	1254.1035	1259.9949	1270.9629	1299.2614	1350.1217	1357.3833	1383.2741	1424.9049	1440.4295	1479.9514	1485.6752	1739.8075	1747.231	2230.1228	2946.6932	3009.7912	3020.3324	3052.5764	3064.7996	3128.4494	3133.6724	3154.4883	3159.1533	3504.8555
C#CC1C=CCCC=C1	C#C[C@H]1C=CCCC=C1	
InChI=1S/C9H10/c1-2-9-7-5-3-4-6-8-9/h1,5-9H,3-4H2	InChI=1S/C9H10/c1-2-9-7-5-3-4-6-8-9/h1,5-9H,3-4H2
