17
gdb 31279	1.95572	1.8963	1.00867	1.5736	71.88	-0.1925	0.0286	0.2211	1159.8807	0.134642	-458.957798	-458.948764	-458.947819	-458.99242	31.894	
C	 0.5870000876	 0.5919200367	-0.5208632206	-0.252801
O	-0.1545897812	-0.3447610242	 0.2698906597	-0.266548
C	 0.4999731472	-0.8348022646	 1.3363229665	 0.26182
C	 0.8471135439	-2.1011344787	 1.72033008	 0.216172
O	 0.705372386	-3.3018696068	 1.109922377	-0.27256
C	 0.208968637	-3.2938742955	-0.2194234343	-0.244292
C	 1.4411350921	-1.9746528227	 3.0215646983	-0.279541
C	 1.4195379029	-0.6537284565	 3.3222141929	-0.003311
O	 0.8467327095	 0.059957215	 2.3152517871	-0.182307
H	 1.4994779631	 0.1283504774	-0.9155021866	 0.118449
H	-0.0666121312	 0.8834227836	-1.3446302953	 0.13433
H	 0.853182737	 1.4753815562	 0.0674842101	 0.138963
H	 0.8791508364	-2.7427283097	-0.8918269703	 0.115369
H	 0.1639048975	-4.3387827534	-0.5318205647	 0.128512
H	-0.7892183184	-2.8471589236	-0.2750503667	 0.135816
H	 1.8282619924	-2.7813824068	 3.6229562199	 0.11702
H	 1.7600562081	-0.0806611065	 4.1680994571	 0.134909
49.2941	73.8122	155.2503	168.2793	207.2378	230.3906	307.2831	369.5516	412.3515	510.8904	625.8051	655.0539	671.3543	716.7248	736.4381	816.9179	897.7986	1013.7244	1043.1636	1092.2098	1119.1637	1171.6049	1178.3879	1184.2585	1203.0499	1228.3686	1268.1816	1313.9342	1426.752	1469.8834	1484.9568	1486.2126	1499.9663	1504.9517	1506.8367	1563.4003	1703.6764	3012.689	3019.7354	3082.2689	3096.4777	3133.0053	3140.7153	3261.2913	3287.6074
COC1=C(OC)C=CO1	COc1c(OC)cco1	
InChI=1S/C6H8O3/c1-7-5-3-4-9-6(5)8-2/h3-4H,1-2H3	InChI=1S/C6H8O3/c1-7-5-3-4-9-6(5)8-2/h3-4H,1-2H3
