16
gdb 42590	3.25822	1.98819	1.79599	3.0526	69.81	-0.2394	-0.0208	0.2187	809.6195	0.127606	-400.723731	-400.718008	-400.717063	-400.753654	24.421	
O	 0.0134081682	 0.0009307328	 0.0141270748	-0.326823
C	-0.0245399187	 1.1968484061	 0.0087110414	 0.459975
C	-1.1951401581	 2.1861271509	 0.0522637708	-0.193709
C	-0.7887928121	 3.018276791	 1.2808991738	-0.047602
C	-0.3115635593	 4.1418288434	 0.4491751559	-0.04581
C	-0.6683082397	 3.3943511765	-0.8510639389	-0.071825
C	 0.7166199421	 2.939888858	-1.355333701	-0.233903
C	 1.1031739191	 2.2509833494	-0.0282036117	-0.123187
N	 0.6843662278	 3.2203896902	 1.0435999583	-0.126985
H	-2.2073973672	 1.8127496506	-0.0634000402	 0.092903
H	-1.1584526204	 2.959684195	 2.2972166892	 0.106261
H	-0.2367163695	 5.2056179319	 0.6404289872	 0.099361
H	-1.369700229	 3.8360261284	-1.5547296806	 0.084423
H	 0.683347023	 2.2378380218	-2.1954910878	 0.117156
H	 1.3657277419	 3.7816089146	-1.6130649408	 0.114108
H	 2.1205017719	 1.8953261994	 0.1092175197	 0.095657
144.5378	361.7464	431.9434	542.8082	548.7041	663.9987	737.1279	746.5496	771.9317	796.5435	841.066	842.6427	857.8193	900.5749	934.6982	940.9012	953.3526	969.8129	980.7957	1017.226	1051.0276	1099.6609	1126.2136	1144.4524	1171.4058	1187.8194	1209.8646	1212.3396	1246.7303	1259.3061	1279.5122	1298.3196	1352.3463	1486.4044	1883.4571	3048.662	3103.9342	3149.3464	3164.4757	3176.8278	3180.2727	3195.5251
O=C1C2C3C4C2CC1N34	O=C1[C@H]2[C@@H]3[C@@H]4[C@H]2C[C@H]1N34	
InChI=1S/C7H7NO/c9-7-3-1-2-4(7)6-5(2)8(3)6/h2-6H,1H2	InChI=1S/C7H7NO/c9-7-3-1-2-4(7)6-5(2)8(3)6/h2-6H,1H2/t2-,3+,4+,5-,6+,8?/m0/s1
