12
gdb 44133	2.76368	1.6699	1.36362	6.757	58.44	-0.3069	-0.0004	0.3065	914.009	0.078258	-472.652151	-472.645408	-472.644464	-472.683851	24.709	
O	 0.0020976934	 0.0065858568	 0.0239089961	-0.335617
C	-0.0144115456	 1.1875873852	 0.0233565195	 0.50506
O	-1.1460141485	 1.9654729222	 0.0324418855	-0.228967
C	-0.7887310778	 3.3180763971	 0.0480600714	 0.048962
C	 0.7004781993	 3.3388805571	 0.02800284	 0.048964
O	 1.0948564194	 1.9967830657	 0.0022677268	-0.228966
C	-0.0680402382	 3.8576659904	-1.1885020049	-0.281118
C	-0.0748610062	 3.1462397919	-2.4323366105	 0.329223
N	-0.0803339423	 2.5716687281	-3.435321852	-0.320147
H	-1.4463684927	 3.9438726085	 0.6358427153	 0.152498
H	 1.3559625794	 3.9830319922	 0.5980955342	 0.152498
H	-0.0843042503	 4.9401389749	-1.2736061712	 0.15761
91.45	138.9777	187.8932	349.5053	399.0928	512.951	637.1691	646.2245	712.2655	763.0052	768.2646	792.9295	793.5898	891.2883	953.1048	1023.6251	1037.6534	1060.4148	1103.8537	1115.3417	1144.6857	1197.5264	1349.1834	1349.8471	1409.6794	1960.1898	2364.5995	3166.5538	3211.3922	3218.9912
O=C1OC2C(O1)C2C#N	O=C1O[C@H]2[C@@H](O1)[C@H]2C#N	
InChI=1S/C5H3NO3/c6-1-2-3-4(2)9-5(7)8-3/h2-4H	InChI=1S/C5H3NO3/c6-1-2-3-4(2)9-5(7)8-3/h2-4H/t2-,3+,4-
