18
gdb 93255	2.76174	1.30952	0.93192	3.248	68.01	-0.2463	0.001	0.2472	1216.7399	0.148712	-476.250158	-476.241404	-476.24046	-476.283629	32.737	
N	-0.0889358247	 1.4819014418	 0.0550766243	-0.510886
C	-0.0668071533	 0.0306563043	-0.0586250824	-0.114464
C	-1.4761402882	-0.5595904525	 0.0024293038	-0.210446
C	-1.4027074846	-2.0652563737	-0.1950196219	 0.073785
O	-2.7192127862	-2.5891020745	-0.1687607356	-0.424617
C	-0.7535285189	-2.3544767322	-1.550329605	-0.091742
O	 0.5161739072	-1.7150991879	-1.7449304666	-0.227956
C	 0.7575583458	-0.4698644695	-1.2636797097	 0.396917
O	 1.6672687273	 0.1688209363	-1.7201386757	-0.326059
H	 0.8526533038	 1.8242145104	-0.1223197451	 0.244617
H	-0.6568971115	 1.8652009297	-0.6973851414	 0.226416
H	 0.49174821	-0.3549729902	 0.8092967262	 0.119762
H	-1.9429229036	-0.3117842618	 0.9587793355	 0.127211
H	-2.1061290664	-0.1311520619	-0.788907168	 0.108752
H	-0.7871173733	-2.5054260159	 0.605774545	 0.081091
H	-2.6677174421	-3.5501998706	-0.1481889867	 0.289929
H	-0.5624899069	-3.4237879476	-1.6818126483	 0.114036
H	-1.4426988643	-2.0311555343	-2.3406535485	 0.123655
73.1648	127.6566	196.6442	258.4088	276.9546	285.257	319.4763	388.5422	406.9294	412.7535	476.8519	574.5059	591.6314	728.321	794.7212	910.9832	920.1286	955.9402	1002.97	1056.1494	1070.3751	1103.9931	1113.131	1159.3333	1178.1958	1192.0301	1232.4706	1266.6122	1300.2771	1340.5935	1346.3494	1368.198	1403.9521	1411.8608	1451.9772	1497.3068	1516.9886	1671.8384	1835.1044	2975.168	2985.2192	3026.5467	3033.3939	3089.3169	3104.0338	3476.7884	3550.0693	3817.9382
NC1CC(O)COC1=O	N[C@H]1C[C@@H](O)COC1=O	
InChI=1S/C5H9NO3/c6-4-1-3(7)2-9-5(4)8/h3-4,7H,1-2,6H2	InChI=1S/C5H9NO3/c6-4-1-3(7)2-9-5(4)8/h3-4,7H,1-2,6H2/t3-,4+/m1/s1
