20
gdb 126240	2.12531	1.40322	0.90701	2.7627	83.23	-0.1845	0.0291	0.2135	1336.0369	0.172391	-399.345056	-399.335486	-399.334541	-399.380398	34.583	
C	 0.1010250189	 1.564566242	 0.1680246278	-0.366545
C	-0.0011577456	 0.0329986739	 0.0333735549	-0.314144
C	-1.4015763865	-0.4798887979	-0.0656790311	 0.281696
C	-2.2104116403	-0.714173727	-1.1704726708	 0.149604
N	-1.8411165467	-0.5642135958	-2.5167249822	-0.396605
C	-2.8826242612	-0.7682699563	-3.5100192064	-0.323025
C	-3.4307694625	-1.1888800125	-0.6323359388	-0.075155
N	-3.3945493393	-1.248788462	 0.6998785676	-0.238926
N	-2.1691377476	-0.8061029258	 1.0141884095	-0.251471
H	 1.146727711	 1.8835245277	 0.2236280736	 0.115212
H	-0.3619829062	 2.067995016	-0.6867279677	 0.117873
H	-0.4103666217	 1.9151682422	 1.0698762727	 0.119975
H	 0.543835628	-0.2929525187	-0.8604536078	 0.120383
H	 0.5047350882	-0.4397673992	 0.8848213061	 0.105687
H	-1.3347776283	 0.295251572	-2.6805119817	 0.229706
H	-3.2299838406	-1.8060777839	-3.4698892772	 0.133832
H	-3.7612276486	-0.1144505206	-3.3803810412	 0.107546
H	-2.466092704	-0.594893511	-4.5054918019	 0.118568
H	-4.322565271	-1.496496556	-1.1566792332	 0.100815
H	-1.8990089759	-0.7667076171	 1.9823869879	 0.264973
35.0329	71.7141	147.6071	164.0024	207.946	229.6862	293.2376	309.8409	404.1388	470.5765	481.4555	580.2705	646.944	695.9117	711.9193	764.1947	782.8557	852.4507	950.811	968.0769	1054.5101	1074.2937	1083.9339	1130.6597	1151.0372	1161.5271	1210.1129	1256.4829	1275.2554	1339.1848	1353.3313	1395.5547	1407.9692	1430.7151	1462.7947	1472.3762	1484.9961	1490.6214	1496.3197	1503.8261	1522.2135	1545.2759	1636.4965	2964.369	3022.75	3034.5474	3060.6123	3064.8804	3105.9391	3109.508	3114.0324	3251.9574	3566.0034	3667.9439
CCC1=C(NC)C=NN1	CCc1c(NC)cn[nH]1	
InChI=1S/C6H11N3/c1-3-5-6(7-2)4-8-9-5/h4,7H,3H2,1-2H3,(H,8,9)	InChI=1S/C6H11N3/c1-3-5-6(7-2)4-8-9-5/h4,7H,3H2,1-2H3,(H,8,9)
