25
gdb 101610	2.32582	1.05372	0.93354	2.6069	85.49	-0.245	0.0654	0.3105	1457.948	0.224943	-426.632411	-426.620804	-426.61986	-426.669088	43.224	
C	-1.0283935599	 0.9890863259	-0.6465471801	-0.385853
C	-0.2127036473	-0.081323695	 0.0757364701	 0.103689
C	-1.1033548423	-1.1285045919	 0.7603346857	-0.055977
O	-1.8143299929	-1.8919246902	-0.1938032071	-0.422518
O	 0.575683845	-0.7855717515	-0.8929363355	-0.320506
C	 2.0087603398	-0.8226787094	-0.7653774472	 0.35666
C	 2.4381487502	-1.5006875509	 0.545414339	-0.408945
C	 2.4543919435	-1.6667064155	-1.9637504548	-0.397308
C	 2.597785079	 0.5930092423	-0.8702577166	-0.406483
H	-0.3734784963	 1.6815847916	-1.181262439	 0.112474
H	-1.7030705128	 0.5168433295	-1.3649218107	 0.134676
H	-1.6309763926	 1.5606950733	 0.0671242007	 0.109283
H	 0.4251111065	 0.3882318181	 0.8344414872	 0.069067
H	-0.4785830315	-1.7718603305	 1.4001607356	 0.079905
H	-1.8443109289	-0.6383730326	 1.4018274214	 0.099461
H	-1.1526732501	-2.1441730424	-0.8510573942	 0.285321
H	 2.0092957385	-2.5046617159	 0.6152917928	 0.120523
H	 3.5281720844	-1.5905978586	 0.5869369025	 0.114678
H	 2.1234827061	-0.9295419111	 1.4238755139	 0.114275
H	 2.1223141477	-1.2038400805	-2.8969978154	 0.120471
H	 3.543837408	-1.7619556753	-1.9886967171	 0.111433
H	 2.0202484231	-2.6689858531	-1.905704684	 0.115271
H	 2.2833229011	 1.2281796572	-0.0368450952	 0.114357
H	 3.6914684212	 0.5529639174	-0.857496328	 0.114153
H	 2.2815559905	 1.067450469	-1.8035725538	 0.121893
36.7415	79.4674	125.1853	186.7763	198.1644	220.7466	254.2689	264.2045	269.1337	297.7793	321.2656	362.002	399.2413	427.3098	476.8778	499.0974	508.1465	634.6351	753.6497	822.4892	880.3185	906.1779	918.8776	923.2286	956.2171	997.1505	1031.8293	1040.3688	1049.2949	1084.5728	1144.7689	1152.3433	1222.7163	1232.1088	1250.4651	1274.8669	1331.3234	1368.1862	1383.5675	1395.5924	1397.8806	1411.2674	1424.6725	1439.3474	1470.9741	1481.7131	1484.605	1485.5683	1497.0571	1498.3369	1500.0351	1508.7151	1518.2232	2975.2633	3031.1274	3036.1196	3039.4121	3043.0173	3046.6299	3066.2934	3104.4264	3109.66	3112.3791	3113.8057	3116.0469	3119.1443	3123.2837	3132.151	3770.3575
CC(CO)OC(C)(C)C	C[C@@H](CO)OC(C)(C)C	
InChI=1S/C7H16O2/c1-6(5-8)9-7(2,3)4/h6,8H,5H2,1-4H3	InChI=1S/C7H16O2/c1-6(5-8)9-7(2,3)4/h6,8H,5H2,1-4H3/t6-/m0/s1
