18
gdb 79438	2.86493	1.78591	1.37178	3.7624	75.7	-0.214	-0.0051	0.2089	976.1416	0.149038	-401.902175	-401.895125	-401.894181	-401.933347	28.642	
C	-0.2304525505	 1.4388105117	 0.0919811031	-0.327493
N	 0.00200045	 0.0012553401	 0.0364780629	-0.113389
C	 0.7981257559	-0.4267990488	-1.1435665399	 0.017559
C	 2.1738673276	-0.2173983196	-0.4420315001	-0.065206
C	 2.6498696413	-1.5854461177	-0.9731032198	-0.258831
C	 1.1303339378	-1.9602503674	-0.9258699948	-0.186989
C	 0.9662801177	-1.9596040221	 0.5949535519	 0.495156
O	 0.7461479409	-2.8433001409	 1.3714016987	-0.342671
C	 1.2216325732	-0.4595588059	 0.8058340353	-0.139947
H	 0.6661656749	 2.0550137428	-0.0948301391	 0.096652
H	-0.9873832589	 1.7046918554	-0.6535426956	 0.124008
H	-0.6245757312	 1.7018941709	 1.0782672426	 0.127614
H	 0.5189977753	-0.0770200485	-2.1374953564	 0.081985
H	 2.7799732477	 0.6850767349	-0.4835206735	 0.085045
H	 3.0196121792	-1.4991961482	-1.9980607289	 0.112125
H	 3.33979592	-2.1930728343	-0.3807606538	 0.115448
H	 0.6979418782	-2.7738468625	-1.501423462	 0.091131
H	 1.3838223307	-0.07607252	 1.8106283293	 0.087804
150.661	213.971	237.0471	277.882	369.2112	443.7712	501.7209	575.6936	697.5737	746.0055	792.0685	799.5765	804.7296	836.1924	845.8636	908.54	938.4643	950.4661	996.747	1006.3522	1075.4623	1078.4014	1105.9702	1129.6608	1158.9463	1160.0359	1168.7204	1189.4468	1202.8022	1225.314	1251.8508	1274.1533	1296.272	1311.0448	1450.9031	1490.948	1499.1575	1501.1224	1896.7405	2955.5908	3055.4501	3063.1632	3103.38	3112.1432	3117.5393	3136.1901	3153.1072	3164.1813
CN1C2C3CC2C(=O)C13	CN1[C@H]2[C@@H]3C[C@H]2C(=O)[C@H]13	
InChI=1S/C7H9NO/c1-8-5-3-2-4(5)7(9)6(3)8/h3-6H,2H2,1H3	InChI=1S/C7H9NO/c1-8-5-3-2-4(5)7(9)6(3)8/h3-6H,2H2,1H3/t3-,4+,5-,6+/m0/s1
