20
gdb 14551	4.1059	1.4425	1.37279	1.3558	75.05	-0.2488	0.0753	0.3241	1004.7368	0.176929	-348.969902	-348.961554	-348.96061	-349.002246	31.951	
C	-0.0668139797	 1.5848969975	 0.1436489632	-0.474897
C	 0.0150703238	 0.0710454595	 0.0821210307	 0.360444
C	-1.2427920151	-0.5688383386	-0.4703670406	-0.145981
O	-1.4061527556	-0.1563940427	-1.8236491085	-0.424909
C	 1.2658793496	-0.6903315072	-0.2892004849	-0.068023
C	 2.536348374	-0.0243717221	 0.2534930551	-0.247666
C	 1.9465123008	-0.1081737528	 1.6992036106	-0.245187
C	 0.689186988	-0.7806038271	 1.1318179985	-0.109335
H	 0.8641728783	 2.0478463315	 0.4763177806	 0.114501
H	-0.3096400819	 1.9837101825	-0.8452097489	 0.133648
H	-0.8577969724	 1.9001986048	 0.8351811461	 0.105996
H	-1.162917622	-1.6654614285	-0.401715999	 0.079915
H	-2.1088867568	-0.2614393224	 0.1380077775	 0.082783
H	-2.2731059869	-0.4466692633	-2.121465162	 0.285101
H	 1.2439307798	-1.4266932709	-1.0843153974	 0.083868
H	 3.4193566288	-0.6568403494	 0.1382483288	 0.101161
H	 2.7744072838	 0.969992442	-0.1371970792	 0.09717
H	 2.5250601982	-0.7791065402	 2.3378770707	 0.101539
H	 1.7983041654	 0.8336016719	 2.2369730304	 0.095469
H	 0.1671473297	-1.6056409145	 1.6051023782	 0.074404
96.931	165.4488	185.248	237.0981	261.7387	274.5226	339.3928	367.0582	438.9211	539.5599	678.8294	726.2354	786.6536	843.9042	862.3028	933.8392	956.8674	963.709	977.9126	1002.17	1028.9532	1056.471	1065.3178	1097.2023	1109.5115	1119.985	1198.9923	1221.4486	1242.7218	1244.9825	1260.85	1270.9626	1295.3906	1324.1814	1413.2384	1427.0664	1459.5482	1475.028	1496.6202	1501.1168	1512.9661	1516.3884	2960.5355	2991.9326	3031.5304	3047.2791	3054.628	3094.2869	3098.7049	3112.8243	3128.6113	3158.5222	3176.4793	3830.247
CC1(CO)C2CCC12	C[C@@]1(CO)[C@H]2CC[C@@H]12	
InChI=1S/C7H12O/c1-7(4-8)5-2-3-6(5)7/h5-6,8H,2-4H2,1H3	InChI=1S/C7H12O/c1-7(4-8)5-2-3-6(5)7/h5-6,8H,2-4H2,1H3/t5-,6+,7+
