19
gdb 42404	3.24705	1.07407	0.94596	2.4303	77.77	-0.2411	0.0024	0.2435	1305.554	0.15899	-419.164979	-419.156043	-419.155099	-419.19973	32.14	
O	-0.1181158347	 0.9422672647	-1.8767511495	-0.339609
C	-0.0170248128	 1.8137668704	-1.0410754461	 0.372743
C	 1.32534519	 2.4479027473	-0.6812645256	-0.239755
N	 1.9138732604	 1.6633241687	 0.4061947656	-0.080507
C	 2.6385863995	 0.4618600596	-0.0077281775	-0.212918
C	 3.3742379464	 1.6617642707	 0.4754570141	-0.223984
N	-1.1052239081	 2.3372344422	-0.3564032647	-0.075273
C	-1.2692617062	 2.3188144278	 1.0879126577	-0.2287
C	-2.1654375689	 1.5211340874	 0.1828372449	-0.22128
H	 1.9481500274	 2.4528852335	-1.5891486758	 0.105296
H	 1.1906959006	 3.4764848967	-0.3335193456	 0.116224
H	 2.5164086393	-0.4032962904	 0.6369437653	 0.118931
H	 2.6732323292	 0.2376301177	-1.0708055735	 0.133394
H	 3.9162701499	 2.2478372174	-0.2644648889	 0.114759
H	 3.7966718581	 1.6876956645	 1.4755956223	 0.119738
H	-0.5166220012	 1.7875668416	 1.6622890723	 0.152038
H	-1.6362572243	 3.2395261063	 1.533523416	 0.124101
H	-3.1771866133	 1.8658306008	-0.0098395078	 0.126672
H	-2.0253665412	 0.4445429332	 0.1390509469	 0.138131
54.7792	74.7759	92.0231	162.8375	219.68	243.5702	337.7504	373.6235	440.259	611.6962	669.4609	748.6425	789.7783	812.718	845.6513	903.249	950.0882	972.8211	1005.6994	1022.5367	1042.3204	1059.4695	1110.9395	1118.7381	1128.1772	1134.3409	1152.133	1170.6132	1174.7368	1176.5372	1209.8388	1264.9417	1311.4038	1357.8995	1413.2283	1485.2189	1492.2163	1498.8424	1521.6053	1524.6695	1789.601	2984.4736	3084.0255	3099.9913	3114.2646	3114.4005	3117.8244	3185.5291	3201.1001	3203.2248	3214.612
O=C(CN1CC1)N1CC1	O=C(CN1CC1)N1CC1	
InChI=1S/C6H10N2O/c9-6(8-3-4-8)5-7-1-2-7/h1-5H2	InChI=1S/C6H10N2O/c9-6(8-3-4-8)5-7-1-2-7/h1-5H2
