17
gdb 23263	2.89456	1.4956	1.06093	1.0862	80.82	-0.2076	-0.0296	0.178	1115.3395	0.136184	-417.953037	-417.944965	-417.944021	-417.985358	31.112	
C	 0.0128522118	 1.5382584379	-0.0282672902	-0.491891
C	-0.0044914408	 0.0408920004	 0.017632991	 0.218102
C	-0.066706611	-0.7879697288	-1.0432440918	-0.136805
N	-0.1031406176	-2.180650298	-0.738306913	-0.109817
C	 1.1944628677	-2.6509734798	-0.1982701558	-0.239454
C	 0.0968206267	-2.2245011186	 0.7242462603	-0.106036
C	 0.068933888	-0.8140444437	 1.2189332554	 0.337444
N	 0.0513842866	-0.5755631182	 2.4775370596	-0.267561
O	-0.0316187472	 0.798707724	 2.7605643085	-0.394861
H	 0.9071415594	 1.939902882	 0.4569454424	 0.138782
H	-0.0082367151	 1.8882088755	-1.0646394577	 0.113357
H	-0.8440398885	 1.963076667	 0.5018108113	 0.143036
H	-0.0862707843	-0.5023213246	-2.0884899603	 0.115944
H	 1.387803515	-3.7124956554	-0.3193371955	 0.128491
H	 2.0496378936	-1.9931936307	-0.3214585277	 0.126699
H	-0.4461386165	-2.982787472	 1.276686396	 0.117491
H	-0.0492327678	 0.8029347531	 3.7230355375	 0.307079
117.3477	184.7757	207.2179	226.2774	289.3184	334.0856	403.175	412.8946	459.664	488.4135	639.4962	703.4793	736.1281	756.6794	818.9729	858.989	893.6912	969.7583	992.5638	1018.7883	1055.4204	1060.5845	1069.953	1100.2319	1157.199	1167.6696	1245.96	1261.7486	1338.8594	1343.6686	1411.7519	1421.7727	1474.6748	1483.4348	1490.5609	1657.9537	1717.8789	3042.4816	3107.5159	3115.3456	3116.8292	3180.9728	3205.6262	3215.2417	3822.9106
CC1=CN2CC2C1=NO	CC1=CN2C[C@H]2C1=NO	
InChI=1S/C6H8N2O/c1-4-2-8-3-5(8)6(4)7-9/h2,5,9H,3H2,1H3	InChI=1S/C6H8N2O/c1-4-2-8-3-5(8)6(4)7-9/h2,5,9H,3H2,1H3/t5-,8?/m0/s1
