17
gdb 14992	4.56093	1.44481	1.16025	3.0475	65.43	-0.2486	0.0143	0.2629	1008.172	0.144515	-401.011047	-401.003727	-401.002783	-401.042811	27.446	
O	 0.0535127237	 1.3990946865	 0.0940697707	-0.424891
C	 0.0654794939	 0.0004275904	-0.063729721	-0.056287
C	-1.3586696556	-0.5700435075	-0.0157170333	 0.03256
C	-1.4107450642	-2.0954390858	-0.1266163341	-0.248167
C	-2.8127807822	-2.5670102956	 0.2393242749	-0.076628
O	-3.2074821206	-2.0754304684	 1.5323142436	-0.223635
C	-2.7536248161	-0.8473220584	 1.8627364152	 0.133822
N	-1.9621572472	-0.0887269663	 1.2320706424	-0.296781
H	-0.5527406815	 1.5583408852	 0.8316139472	 0.290383
H	 0.5277066194	-0.2194919063	-1.0327896172	 0.099005
H	 0.6700197486	-0.493226081	 0.7170124784	 0.079778
H	-1.9155408735	-0.1157602185	-0.8473203429	 0.093541
H	-1.157815777	-2.4340183608	-1.1366007204	 0.111257
H	-0.6854304733	-2.5434053185	 0.5633895325	 0.115391
H	-3.5462142571	-2.2152406288	-0.4971263029	 0.117955
H	-2.8845328592	-3.6549671919	 0.3042963785	 0.123033
H	-3.1722033783	-0.5448967142	 2.8211334184	 0.129664
101.5	135.9867	197.0976	268.8958	368.9415	381.755	511.6545	527.8595	539.8521	587.8937	791.3262	820.7469	869.2551	933.0931	963.7068	972.7496	1012.2815	1082.5365	1088.194	1110.7648	1144.8356	1185.1159	1228.3769	1240.9484	1267.0457	1307.9999	1350.9997	1375.8451	1384.0441	1402.0449	1417.5883	1451.0139	1479.5422	1507.5745	1510.9962	1732.205	2953.0323	3008.3117	3029.3556	3038.9833	3063.2991	3088.1407	3106.244	3157.0601	3737.9852
OCC1CCOC=N1	OC[C@H]1CCOC=N1	
InChI=1S/C5H9NO2/c7-3-5-1-2-8-4-6-5/h4-5,7H,1-3H2	InChI=1S/C5H9NO2/c7-3-5-1-2-8-4-6-5/h4-5,7H,1-3H2/t5-/m1/s1
