19
gdb 120331	3.52176	0.99385	0.95679	0.7327	71.93	-0.2461	0.0884	0.3345	1325.5203	0.158855	-460.115661	-460.106976	-460.106032	-460.150077	31.179	
C	 0.4655491131	 1.3883740131	-0.0154116746	-0.223843
O	 0.6036370588	-0.0092753727	-0.0889902028	-0.235273
C	-0.1169432034	-0.5690732372	-1.1690688799	-0.067925
C	 0.1025640518	-2.0566407026	-1.1517467885	-0.102305
C	-0.1707526294	-2.935371027	-2.3553331225	 0.020602
O	-0.2890647954	-2.2801355456	-3.6016750042	-0.253944
C	 1.042168182	-2.1211196562	-4.0619647154	 0.022474
O	 1.8549927183	-1.9479217716	-2.9152700843	-0.251012
C	 1.2414268182	-2.7191172951	-1.9049778585	 0.044436
H	 0.8432959589	 1.8861486421	-0.9228655178	 0.104197
H	-0.5850182946	 1.6906108188	 0.1263297108	 0.1005
H	 1.0490028234	 1.7306952665	 0.8428365664	 0.125328
H	-1.192871184	-0.3458860227	-1.0672799521	 0.087004
H	 0.2172781137	-0.1404006473	-2.1233267815	 0.102395
H	-0.1291939276	-2.5236150542	-0.197194405	 0.099165
H	-0.7181445669	-3.8682809427	-2.2741942104	 0.106147
H	 1.360755713	-3.0127155733	-4.6289217464	 0.093611
H	 1.1027295016	-1.2246630721	-4.6848643667	 0.12225
H	 1.8759007984	-3.4705970305	-1.4485027465	 0.106193
52.8572	85.1284	117.6062	182.6568	225.7155	261.0286	269.0888	403.8779	529.0618	621.4684	730.1524	753.4211	778.2882	811.2536	923.6067	960.0905	974.8399	999.1927	1058.1155	1065.3273	1078.7407	1097.9868	1112.2875	1137.9651	1161.2689	1176.1015	1185.9186	1204.6909	1225.3227	1232.9059	1268.5207	1303.4929	1337.7784	1399.8982	1423.8755	1446.6605	1481.0345	1484.4347	1500.5584	1522.5802	1536.5027	2956.2826	2956.7136	2968.078	3007.7764	3030.5509	3097.1442	3112.4275	3141.8728	3162.5225	3174.6489
COCC1C2OCOC12	COC[C@H]1[C@H]2OCO[C@@H]12	
InChI=1S/C6H10O3/c1-7-2-4-5-6(4)9-3-8-5/h4-6H,2-3H2,1H3	InChI=1S/C6H10O3/c1-7-2-4-5-6(4)9-3-8-5/h4-6H,2-3H2,1H3/t4-,5+,6-
