21
gdb 107393	3.2386	1.14579	0.94964	1.8732	84.91	-0.2311	0.0111	0.2423	1335.5778	0.181423	-387.098496	-387.08937	-387.088426	-387.132219	34.802	
C	 0.2737963298	 1.4767946593	-0.2894952229	-0.379385
C	-0.1238330406	 0.0231536346	-0.0000966017	-0.284802
C	 0.4725832483	-0.4981002153	 1.2814434004	 0.422187
O	 1.9072073218	-0.755765779	 1.2442916565	-0.309314
C	 1.0214271775	-1.8504395475	 1.4935584488	-0.042242
C	 0.8679596539	-2.2076400187	 2.9651670142	-0.340559
C	 0.2582978829	-0.9516717303	 3.5726816313	 0.314585
C	 0.0242882958	-0.8312173051	 5.0442181033	-0.48536
C	 0.022363748	-0.0295884467	 2.63175028	-0.24924
H	 1.3620773817	 1.5692336512	-0.3479063458	 0.135838
H	-0.1509073013	 1.8163450446	-1.2387761922	 0.111317
H	-0.0794141532	 2.1550875608	 0.4942041615	 0.116556
H	-1.2163126296	-0.0646257469	 0.0562734809	 0.100036
H	 0.2070311126	-0.6177940837	-0.8243690649	 0.104952
H	 1.0091337005	-2.6240830771	 0.7291506153	 0.08791
H	 0.2139390851	-3.0797698886	 3.1000358592	 0.106847
H	 1.8316617348	-2.4595301434	 3.4253981135	 0.120803
H	 0.9681279181	-0.897127369	 5.60050609	 0.130859
H	-0.4525663308	 0.1188372819	 5.2997888384	 0.124914
H	-0.6114847738	-1.6458797857	 5.4140146173	 0.123778
H	-0.4094643117	 0.9483846145	 2.8107083469	 0.09032
77.0725	133.7769	159.2897	186.6116	218.5729	282.9523	311.68	374.9783	415.8915	450.4842	509.0046	597.4271	668.4534	723.5692	790.6333	812.9151	868.2995	877.0427	912.3395	961.7408	980.0786	982.3385	1010.521	1041.9115	1071.8879	1091.3796	1101.7896	1163.2136	1192.4713	1229.1653	1277.3963	1288.5633	1323.1151	1350.4336	1366.6906	1408.0069	1411.5895	1442.3169	1459.3319	1473.126	1478.6656	1487.5453	1498.9721	1508.9252	1700.8886	3015.4959	3020.7247	3027.7731	3038.6138	3056.1766	3062.8364	3071.0429	3106.1555	3111.539	3118.7269	3136.8626	3196.2741
CCC12OC1CC(C)=C2	CC[C@]12O[C@H]1CC(=C2)C	
InChI=1S/C8H12O/c1-3-8-5-6(2)4-7(8)9-8/h5,7H,3-4H2,1-2H3	InChI=1S/C8H12O/c1-3-8-5-6(2)4-7(8)9-8/h5,7H,3-4H2,1-2H3/t7-,8+/m0/s1
