17
gdb 133851	3.5942	1.86545	1.79273	3.5079	74.91	-0.1909	-0.0056	0.1853	828.51	0.136286	-384.559208	-384.552566	-384.551621	-384.589503	28.22	
O	 6.227387347	-0.6630733649	 0.3777980224	-0.446967
C	 5.0023505902	-0.5670296211	-0.2142764149	 0.396282
C	 3.7601836947	 0.073754054	 0.5368953308	-0.0836
C	 4.2493956607	 0.619356009	-0.7784414251	-0.161401
C	 3.4665704558	-0.2770472952	-1.770391397	-0.086992
C	 2.0755688962	-0.4247247488	-1.139504412	-0.232643
C	 2.5771441084	-0.856861792	 0.2562458238	-0.049994
C	 3.6050419649	-1.9701858566	 0.0760948246	-0.148362
C	 4.2486651942	-1.5246035167	-1.1840744669	-0.125104
H	 6.900647394	-0.6395060442	-0.3124261265	 0.293904
H	 3.9775761983	 0.5353257137	 1.4887302083	 0.117601
H	 4.6265689394	 1.6262016082	-0.8964020361	 0.103719
H	 3.549460712	-0.0554073994	-2.8318887909	 0.067512
H	 1.4683580988	-1.199104348	-1.6198119175	 0.101864
H	 1.5115307905	 0.5141305041	-1.1241111106	 0.097252
H	 1.8537931378	-0.9761766448	 1.0583133154	 0.07182
H	 4.828024487	-2.2034158874	-1.800410948	 0.085107
239.2967	271.7831	288.4109	325.728	396.6636	426.9779	553.4134	643.0687	687.0715	730.5472	772.0291	820.5307	860.3519	876.2772	881.8257	897.5285	925.3695	939.7167	970.3545	979.7086	1000.333	1003.8091	1048.8002	1094.9566	1114.8023	1127.2512	1145.1808	1191.7845	1209.8668	1228.3139	1231.4152	1262.3385	1283.4165	1313.7591	1326.4039	1435.4499	1484.3842	3043.4435	3094.484	3143.4122	3149.337	3176.3649	3208.1933	3234.3743	3784.1304
OC12C3C1C1CC3C2=C1	O[C@@]12[C@H]3[C@@H]1[C@@H]1C[C@H]3[C][C@H]21	
InChI=1S/C8H8O/c9-8-5-2-3-1-4(5)7(8)6(3)8/h2-4,6-7,9H,1H2	InChI=1S/C8H8O/c9-8-5-2-3-1-4(5)7(8)6(3)8/h3-7,9H,1H2/t3-,4+,5-,6+,7-,8-/m0/s1
