16
gdb 25932	2.77309	1.6471	1.04836	1.6262	74.34	-0.1776	-0.0015	0.1761	1082.711	0.126611	-434.13813	-434.130091	-434.129146	-434.170485	31.573	
N	-0.0569126224	 1.3459748415	-0.0797372549	-0.557534
C	 0.0568333568	-0.0080006824	 0.1108464607	 0.491157
O	 1.1208299703	-0.5555258402	 0.3372192292	-0.394838
N	-1.1606219781	-0.6991921077	 0.0644735807	-0.144746
C	-2.449600455	-0.1349338343	 0.1428036149	-0.123845
C	-3.348904797	-1.1534214253	 0.0868389971	-0.150786
C	-2.631939529	-2.3852477048	-0.0423533586	-0.264384
C	-1.2914522617	-2.0878636987	-0.0479280034	 0.369931
N	-0.1883320318	-2.8959688757	-0.2520131233	-0.598678
H	 0.8290093555	 1.8165545461	-0.1757904336	 0.270285
H	-0.8129254279	 1.6985044069	-0.643924959	 0.266411
H	-2.5752542648	 0.912627112	 0.3520123701	 0.123807
H	-4.4211728079	-1.0449168542	 0.1501449007	 0.101037
H	-3.0515952333	-3.3750185909	-0.1326216173	 0.088762
H	-0.3621064071	-3.8659957666	-0.0359910762	 0.248223
H	 0.6594552734	-2.5274198756	 0.1601434128	 0.275199
90.9413	134.0105	254.1439	281.2355	359.0565	380.7408	450.0532	463.6796	522.6196	531.1389	598.5405	618.7995	661.345	692.5153	702.2847	732.2249	746.8902	783.1674	847.1768	891.0937	1035.6935	1074.6124	1108.7293	1122.8627	1195.8075	1247.0583	1286.3943	1356.287	1413.8032	1477.066	1552.7424	1596.4641	1619.7427	1649.2211	1797.1612	3242.1243	3255.9917	3292.3317	3540.2555	3593.9206	3661.0461	3714.7369
NC(=O)N1C=CC=C1N	NC(=O)n1cccc1N	
InChI=1S/C5H7N3O/c6-4-2-1-3-8(4)5(7)9/h1-3H,6H2,(H2,7,9)	InChI=1S/C5H7N3O/c6-4-2-1-3-8(4)5(7)9/h1-3H,6H2,(H2,7,9)
