21
gdb 105044	2.66472	1.26618	1.10962	3.8407	77.75	-0.2407	0.0663	0.3071	1203.7488	0.182622	-420.349276	-420.339958	-420.339014	-420.383754	35.685	
C	 0.3165311313	 0.6740557279	 1.2763803044	-0.473919
C	-0.0136813774	-0.0393957809	-0.0239039444	 0.234967
C	 0.6118266377	 0.4842047359	-1.2669728854	-0.301059
N	 1.0621842339	-0.7965491169	-0.6944844813	-0.339984
C	-1.3683583167	-0.7107882927	-0.0412230445	 0.284997
C	-1.605900502	-1.7180114353	 1.0865366933	-0.127762
O	-2.8071956567	-2.4294377266	 0.9084089129	-0.427617
C	-2.5274480321	 0.019240782	-0.6197936049	-0.272045
N	-1.9684321655	-1.1639723497	-1.2996784945	-0.378626
H	 1.2731133134	 1.200086262	 1.1980237941	 0.11327
H	-0.4539784998	 1.4105496246	 1.5280123435	 0.131394
H	 0.3894815155	-0.0295877934	 2.1118822378	 0.134983
H	 0.1208332984	 0.4102510173	-2.2343073124	 0.109369
H	 1.2496118691	 1.3596240625	-1.1706948572	 0.113281
H	 1.9441626109	-0.6704194121	-0.2032521112	 0.230112
H	-0.7343290447	-2.3936219653	 1.1277462777	 0.093998
H	-1.6744326261	-1.2045083649	 2.0519802885	 0.10271
H	-2.847578429	-2.611880229	-0.0432323311	 0.292551
H	-3.5193744141	-0.1288859287	-0.2046361806	 0.131201
H	-2.3413906311	 0.998026756	-1.0542668358	 0.109858
H	-1.4048168848	-0.9180865626	-2.106511349	 0.238321
28.8526	122.0637	193.8876	216.9342	244.6665	273.3811	326.6233	356.4304	372.9351	449.2607	504.0923	536.4124	565.1011	664.1748	795.4254	831.6168	845.1217	898.3247	933.4403	949.1238	954.3518	978.8276	1002.7092	1042.8128	1053.5583	1087.7583	1100.529	1118.521	1138.7445	1148.5508	1229.2349	1241.9491	1244.9391	1272.0746	1307.8006	1356.4241	1376.824	1414.1913	1416.468	1458.2138	1485.8776	1499.0421	1504.3108	1513.0489	1523.3063	2959.4359	3032.2521	3060.2541	3099.5248	3101.3491	3104.4307	3112.3105	3176.1275	3204.7772	3493.0183	3538.4612	3701.9941
CC1(CN1)C1(CO)CN1	C[C@]1(CN1)[C@@]1(CO)CN1	
InChI=1S/C6H12N2O/c1-5(2-7-5)6(4-9)3-8-6/h7-9H,2-4H2,1H3	InChI=1S/C6H12N2O/c1-5(2-7-5)6(4-9)3-8-6/h7-9H,2-4H2,1H3/t5-,6-/m0/s1
