16
gdb 46727	3.26988	1.74038	1.31675	4.7183	68.96	-0.2534	-0.0067	0.2467	942.1316	0.127269	-437.845558	-437.839159	-437.838215	-437.876418	25.477	
O	 0.0034110551	 0.0032619317	-0.3301253168	-0.331452
C	-0.0039938963	 1.1493777644	 0.0268193922	 0.43133
O	-1.1518785416	 1.7363772527	 0.4291110999	-0.22922
C	-1.0921734604	 3.0967412737	 0.8792435012	-0.108138
C	 0.256330109	 3.741266251	 0.6855811375	 0.014915
C	 1.0976024402	 3.4580762259	-0.5816296431	-0.088052
C	 2.3039964702	 3.7801705554	 0.3168402812	-0.17055
N	 1.4351840222	 2.9289603356	 1.2604267784	-0.16221
C	 1.2199435511	 2.0304456016	 0.0130131496	-0.121846
H	-1.863456521	 3.6501631514	 0.3322392398	 0.12741
H	-1.3544494199	 3.1055219435	 1.9435150818	 0.13578
H	 0.2374413471	 4.7731318501	 1.050398835	 0.088327
H	 0.9024212682	 3.7428340847	-1.6200266895	 0.084977
H	 3.2618738146	 3.3133127376	 0.0755327559	 0.115142
H	 2.4319516284	 4.8103218494	 0.6602753118	 0.109504
H	 2.0926658529	 1.4327484714	-0.250245405	 0.104083
135.0259	176.9659	317.5474	387.181	480.3921	482.8498	606.8199	689.9827	731.9434	771.0576	801.2432	856.9103	867.4423	914.2168	941.1129	981.791	1008.1726	1033.8851	1067.601	1113.8309	1120.5773	1147.0622	1163.9598	1188.1107	1224.8708	1237.3511	1247.6224	1264.3837	1297.52	1336.4642	1401.8854	1434.3975	1501.844	1529.0991	1852.2814	3037.1016	3052.1902	3061.3348	3071.6656	3079.4417	3122.607	3127.0049
O=C1OCC2C3CN2C13	O=C1OC[C@@H]2[C@H]3CN2[C@@H]13	
InChI=1S/C6H7NO2/c8-6-5-3-1-7(5)4(3)2-9-6/h3-5H,1-2H2	InChI=1S/C6H7NO2/c8-6-5-3-1-7(5)4(3)2-9-6/h3-5H,1-2H2/t3-,4-,5-/m1/s1
