19
gdb 95439	2.65726	1.34741	0.95914	3.2533	79.77	-0.241	-0.0575	0.1836	1245.6273	0.15745	-423.059526	-423.050141	-423.049197	-423.094332	33.636	
C	 0.1373462575	 1.5883607378	-0.1782229711	-0.39953
C	-0.0024074501	 0.0900370802	 0.0812586541	 0.051947
O	 0.3718571771	-0.6468068512	-1.0958746719	-0.282942
C	 1.3980472554	-1.5807825246	-0.8038181866	-0.111292
C	 1.6987837816	-1.3972121549	 0.651614224	-0.219561
C	 0.9013833137	-0.4578940674	 1.1681859703	 0.217129
C	 0.8147426882	-0.0104412829	 2.5758438952	 0.307475
C	 1.7788315156	-0.6131832927	 3.5835320783	-0.492206
O	-0.0170507893	 0.8122102381	 2.9104663533	-0.306053
H	 1.1813628878	 1.848821391	-0.3788184904	 0.108613
H	-0.4612576717	 1.8669252631	-1.0498384399	 0.122784
H	-0.2120484866	 2.1505168883	 0.6903780077	 0.143515
H	-1.0544968785	-0.1316287372	 0.3158045393	 0.094753
H	 1.0612915199	-2.6083908217	-1.0213445623	 0.112264
H	 2.2793209628	-1.3958162418	-1.4394314785	 0.113475
H	 2.4503450777	-1.9734719002	 1.1767678998	 0.114958
H	 2.8162644206	-0.4175371055	 3.292472383	 0.139862
H	 1.5863754488	-0.1761330198	 4.5637024461	 0.14475
H	 1.6545008997	-1.6997652786	 3.6380548797	 0.14006
63.8291	71.6925	126.7744	163.0267	183.3653	246.5991	274.1188	340.8189	398.471	473.4324	520.5688	609.3774	651.9726	762.9652	807.8116	835.318	868.8403	917.2398	970.9828	1023.7591	1041.2287	1045.4768	1065.1617	1098.5095	1119.2309	1136.37	1198.6524	1261.1171	1292.0242	1357.6396	1371.708	1378.6819	1390.545	1396.7305	1468.1598	1476.909	1491.7578	1496.4692	1512.1591	1688.4692	1762.3134	2962.9917	2978.9556	2989.3345	3041.793	3044.2398	3104.9829	3116.9076	3141.1347	3154.9916	3216.9311
CC1OCC=C1C(C)=O	C[C@H]1OCC=C1C(=O)C	
InChI=1S/C7H10O2/c1-5(8)7-3-4-9-6(7)2/h3,6H,4H2,1-2H3	InChI=1S/C7H10O2/c1-5(8)7-3-4-9-6(7)2/h3,6H,4H2,1-2H3/t6-/m1/s1
