16
gdb 44210	3.90675	1.22825	1.14213	3.5634	69.8	-0.2346	0.0072	0.2418	1082.4293	0.124727	-437.85008	-437.842688	-437.841744	-437.882351	28.187	
O	 0.1952088107	 0.0770370962	-0.2651121223	-0.344305
C	 0.1412795992	 1.255993702	-0.0588374969	 0.42135
N	-0.9597511288	 2.1299459794	 0.0858053532	-0.338047
C	-0.1055960356	 3.3151567341	 0.1615725495	-0.113428
C	 1.1254273723	 2.4004182177	 0.0805822223	-0.325322
C	 0.7858436795	 3.405994029	-1.0269058127	 0.467785
C	 0.5531346313	 3.2316520485	-2.5249455354	-0.365148
C	 1.5244488699	 4.4280370527	-2.6380624592	-0.080882
O	 1.6458742456	 4.5166458919	-1.192984294	-0.310694
H	-1.7912614896	 2.0643366552	-0.4917537828	 0.242896
H	-0.301722892	 4.1211581732	 0.8565774069	 0.122465
H	 2.0670443736	 2.4450188629	 0.6078613741	 0.128254
H	 0.9057685585	 2.2906655917	-2.948124156	 0.138101
H	-0.4665077651	 3.4268305696	-2.861153633	 0.120022
H	 2.4902312831	 4.2131421162	-3.1057616202	 0.119784
H	 1.1082039775	 5.3482615495	-3.0592142435	 0.117169
79.7708	120.7974	188.3981	259.9747	405.039	420.577	508.6096	545.824	613.0351	710.9766	772.4506	792.4635	830.0874	862.8086	873.4221	939.0022	961.5651	982.5341	1009.9828	1016.6826	1057.7817	1100.6481	1118.6942	1132.7982	1163.4347	1206.6901	1216.4445	1241.307	1272.2528	1330.2048	1355.0668	1406.6804	1486.9185	1529.4616	1893.0738	3043.9697	3084.6984	3092.4335	3142.3989	3204.2652	3235.7822	3539.9721
O=C1NC2C1C21CCO1	O=C1N[C@H]2[C@@H]1[C@]12CCO1	
InChI=1S/C6H7NO2/c8-5-3-4(7-5)6(3)1-2-9-6/h3-4H,1-2H2,(H,7,8)	InChI=1S/C6H7NO2/c8-5-3-4(7-5)6(3)1-2-9-6/h3-4H,1-2H2,(H,7,8)/t3-,4-,6-/m0/s1
