23
gdb 101868	5.21216	0.56466	0.53485	1.1912	89.82	-0.2547	0.0341	0.2887	2120.9668	0.201843	-388.251683	-388.240229	-388.239285	-388.289369	40.4	
C	-0.0851819598	 1.5315175978	 0.0690257981	-0.390859
C	 0.0183366608	 0.0062717091	-0.0290827602	-0.170354
C	 0.7740152055	-0.5018614495	-1.2700848391	 0.021387
C	 2.2512757927	-0.0867168758	-1.2837440009	-0.391479
C	 0.6383851883	-2.0213719726	-1.3687595847	-0.04452
O	 1.2177924132	-2.4618404209	-2.5829586002	-0.248973
C	 1.1635929425	-3.8649836308	-2.7315772904	-0.20505
C	 1.7770749546	-4.2592358352	-3.9934294113	 0.278724
C	 2.276955642	-4.612105404	-5.026572459	-0.41444
H	 0.8968143856	 2.0025800705	 0.1722381275	 0.120543
H	-0.563823666	 1.9523447876	-0.8223533374	 0.115081
H	-0.6830216559	 1.8262175254	 0.9370995652	 0.112162
H	 0.5072447481	-0.3852861412	 0.8739438677	 0.09317
H	-0.9950402765	-0.416494257	-0.0336155575	 0.091465
H	 0.2885293236	-0.0842398459	-2.1633880584	 0.08214
H	 2.36554033	 0.9992273461	-1.3389917098	 0.112115
H	 2.7596302909	-0.4310858189	-0.3742713699	 0.104981
H	 2.7621452507	-0.5269441428	-2.1428367315	 0.135689
H	 1.1390644773	-2.5057146216	-0.5108246529	 0.08219
H	-0.4249072218	-2.3141450155	-1.3308426976	 0.082773
H	 1.6839793538	-4.3636990017	-1.8953035882	 0.117062
H	 0.1176608626	-4.2174182775	-2.7029218419	 0.116574
H	 2.7205046078	-4.9171579854	-5.9419214177	 0.199616
37.7632	73.1936	77.613	103.0512	135.4568	191.593	207.8724	255.4629	288.4634	304.313	335.5396	368.5553	425.0272	506.7935	568.0757	607.2345	675.0119	777.7188	832.3782	921.4628	930.6394	972.5567	983.825	1014.7749	1030.7148	1037.6472	1054.0724	1143.6494	1164.4143	1177.8484	1193.6075	1251.7528	1266.3341	1295.4524	1312.9262	1376.5442	1380.4366	1387.2632	1408.5722	1415.5116	1444.9882	1484.2114	1493.128	1497.2777	1500.2504	1507.4387	1512.5134	1522.9723	2248.1536	2936.8441	2950.4279	2964.3837	2970.9355	3005.8039	3013.1813	3030.6816	3034.4541	3043.4257	3099.4202	3100.7962	3109.8066	3130.3087	3506.3656
CCC(C)COCC#C	CC[C@@H](C)COCC#C	
InChI=1S/C8H14O/c1-4-6-9-7-8(3)5-2/h1,8H,5-7H2,2-3H3	InChI=1S/C8H14O/c1-4-6-9-7-8(3)5-2/h1,8H,5-7H2,2-3H3/t8-/m1/s1
