16
gdb 28516	3.18882	1.32427	0.93663	2.1694	77.05	-0.1809	0.0141	0.195	1182.6629	0.12525	-437.953284	-437.944912	-437.943967	-437.985743	32.572	
N	-0.0460632387	 1.4370853599	-0.0632628929	-0.595293
C	-0.008766141	 0.0340907474	-0.0366877678	 0.325621
C	-1.188924836	-0.7147896037	-0.0527481994	-0.197358
C	-1.1367431365	-2.1085159719	-0.0933816363	-0.223129
C	 0.0809492338	-2.7674969595	-0.1166406726	 0.22052
O	 0.2420846362	-4.1374185299	-0.1523991006	-0.478773
C	 1.2695772492	-2.0237632271	-0.099059655	 0.349905
O	 2.4735008005	-2.6564674563	-0.1181017614	-0.450522
C	 1.2211184038	-0.6380684699	-0.0591642231	-0.29272
H	 0.7685828725	 1.8753623261	 0.3434294013	 0.243113
H	-0.8897964244	 1.8285932472	 0.3315679831	 0.24146
H	-2.150281194	-0.2120280227	-0.0392043684	 0.078567
H	-2.0595229051	-2.6831499645	-0.1033377526	 0.082171
H	-0.6197513578	-4.5613226117	-0.1893093718	 0.298952
H	 2.2965888482	-3.60527453	-0.1495641104	 0.306827
H	 2.1566282592	-0.0885727736	-0.051846762	 0.090658
130.573	154.3816	234.0246	259.0393	306.762	326.0963	368.0195	440.4881	452.8138	468.0404	516.4721	598.3399	616.4676	672.2459	715.7297	753.6524	793.353	799.3061	861.7702	871.6442	975.232	1098.1607	1139.908	1172.9101	1208.0564	1222.9903	1295.2039	1344.6796	1361.751	1405.4552	1523.3617	1556.0249	1648.0149	1655.1827	1678.9769	3154.1682	3181.6191	3184.1717	3552.7948	3647.9082	3784.9019	3847.9014
NC1=CC=C(O)C(O)=C1	Nc1ccc(O)c(O)c1	
InChI=1S/C6H7NO2/c7-4-1-2-5(8)6(9)3-4/h1-3,8-9H,7H2	InChI=1S/C6H7NO2/c7-4-1-2-5(8)6(9)3-4/h1-3,8-9H,7H2
