18
gdb 108347	2.66871	1.69136	1.34836	3.6099	70.82	-0.2329	0.0565	0.2894	1002.4849	0.147321	-438.980833	-438.97303	-438.972086	-439.013098	30.2	
C	 0.0193284071	 1.3431395253	 0.2100546353	-0.257707
O	-0.1585634415	-0.0211077943	-0.1225505698	-0.287236
C	 0.6072551454	-0.4844685162	-1.1806094913	 0.383291
C	 0.777958768	-2.0170875654	-1.2173559135	-0.129115
O	 2.2230994814	-1.8944109341	-1.3061457421	-0.28437
C	 2.1606154043	-0.4627047927	-1.2786404902	 0.02932
C	 2.0382407579	 0.2625947561	-2.6502151375	-0.067188
N	 1.2283502072	-0.6009501147	-3.5387339144	-0.321874
C	 0.5463921288	 0.2623452397	-2.5510389809	-0.153802
H	 1.062767151	 1.5618687547	 0.4769093313	 0.113705
H	-0.279223257	 2.0142944515	-0.6063633777	 0.112892
H	-0.6153994127	 1.5399263995	 1.0764533768	 0.134074
H	 0.47400373	-2.4883024756	-0.2763207974	 0.104151
H	 0.3584305763	-2.5411208104	-2.0783620304	 0.119324
H	 2.831802506	 0.0001793769	-0.5509712776	 0.080128
H	 2.7165093677	 0.9986447071	-3.0652955525	 0.093582
H	 1.1732149434	-0.1311217301	-4.4420239688	 0.234053
H	-0.1857475231	 0.9969310327	-2.8639061392	 0.096773
95.1397	168.3561	176.2466	248.1169	305.7148	335.5407	410.3375	494.3834	536.8056	654.8496	712.3422	795.5083	819.365	828.0886	899.6509	903.944	948.0356	973.3769	995.345	1032.3626	1060.6368	1070.4042	1100.7532	1104.7688	1134.4282	1168.0551	1177.1068	1180.058	1219.6613	1245.5162	1279.3948	1311.4597	1324.6578	1344.9393	1386.6374	1483.4621	1489.3351	1492.3795	1504.4896	2996.8703	3041.6617	3049.6892	3083.9122	3117.0921	3124.5889	3177.3887	3190.957	3472.7402
COC12COC1C1NC21	CO[C@]12CO[C@H]1[C@H]1N[C@@H]21	
InChI=1S/C6H9NO2/c1-8-6-2-9-5(6)3-4(6)7-3/h3-5,7H,2H2,1H3	InChI=1S/C6H9NO2/c1-8-6-2-9-5(6)3-4(6)7-3/h3-5,7H,2H2,1H3/t3-,4+,5-,6-/m0/s1
