14
gdb 25840	3.97522	1.29637	0.98344	2.5169	69.07	-0.2601	-0.0936	0.1665	1122.3637	0.101816	-432.928271	-432.920594	-432.91965	-432.961516	26.98	
C	 0.0566561727	 1.3657002119	 0.3531127317	-0.476266
C	 0.1016618455	-0.1434132102	 0.301735425	 0.335031
O	 1.1231921916	-0.7819022019	 0.3429681014	-0.262221
C	-1.2413315105	-0.8664807056	 0.1913809509	 0.249233
N	-2.3449841716	-0.1140003939	 0.1490958521	-0.271353
C	-3.4840609662	-0.8007849231	 0.0529431463	 0.081676
N	-3.5907233641	-2.1268098591	-0.0013654804	-0.229608
C	-2.4191657552	-2.7678772546	 0.0490669707	 0.08442
N	-1.2200399796	-2.2009420523	 0.1446932324	-0.240954
H	 1.074445812	 1.7481371589	 0.4307388302	 0.141565
H	-0.433768531	 1.7646009171	-0.5402198829	 0.152401
H	-0.5433566333	 1.701988469	 1.2043167869	 0.152402
H	-4.4066420585	-0.2257883731	 0.0156478276	 0.140758
H	-2.4505349219	-3.8543931329	 0.0079846081	 0.142917
38.1269	134.5055	146.5517	205.9107	350.6278	361.7691	418.3441	477.2954	606.4086	616.8859	701.1733	776.8054	835.7253	967.3828	980.6564	1009.6473	1048.3937	1049.2822	1148.014	1182.3161	1194.153	1276.5011	1322.7356	1389.3815	1423.478	1450.7799	1458.1601	1464.3531	1579.5345	1596.9925	1819.1135	3051.1164	3112.8406	3162.1116	3165.7482	3169.3419
CC(=O)C1=NC=NC=N1	CC(=O)c1ncncn1	
InChI=1S/C5H5N3O/c1-4(9)5-7-2-6-3-8-5/h2-3H,1H3	InChI=1S/C5H5N3O/c1-4(9)5-7-2-6-3-8-5/h2-3H,1H3
