20
gdb 90779	3.85513	1.32892	1.22327	1.5221	77.92	-0.2389	0.0712	0.3101	1089.8341	0.172043	-403.118684	-403.110762	-403.109817	-403.150634	31.924	
C	 0.0288562773	 1.5135057185	 0.0690467463	-0.494532
C	-0.0264633267	 0.0158012316	 0.0604786593	 0.352126
C	-1.3050188179	-0.8354626769	-0.0412500735	-0.306493
C	-0.5219153738	-2.0220505714	 0.6017748005	-0.080827
C	 0.6247624739	-1.0189344031	 0.9277143177	-0.144145
N	 1.1585094144	-0.7288654624	-0.4042783766	-0.133273
C	 0.9079058529	-1.8789304191	-1.3010038777	-0.215057
C	 0.0729380795	-2.9102285098	-0.4930023284	 0.151246
O	 0.8526033502	-3.9776228696	 0.0231432291	-0.444142
H	 1.0366717935	 1.8581988966	 0.3140356997	 0.131981
H	-0.2356435246	 1.9188788356	-0.9150063877	 0.120871
H	-0.6732470746	 1.9284369479	 0.8004392242	 0.115569
H	-2.0786473021	-0.4528195289	 0.6293252774	 0.106079
H	-1.7455960863	-0.9933002209	-1.0329528493	 0.091215
H	-1.0110859695	-2.5668678602	 1.4077117934	 0.076121
H	 1.2487487427	-0.9377867825	 1.8108452762	 0.08722
H	 0.4027571065	-1.5458861964	-2.2127258193	 0.106217
H	 1.8647413068	-2.3225091809	-1.5923768331	 0.11118
H	-0.7001709569	-3.3870284669	-1.1031217954	 0.087097
H	 1.5491037547	-3.596539281	 0.5701075374	 0.281544
120.7752	184.6122	217.3491	287.4223	301.8806	328.9632	409.476	424.176	469.6043	617.9341	724.339	744.4955	748.3775	821.0029	831.5243	854.0884	918.1028	923.6067	960.0345	973.4943	986.8733	1023.4801	1025.3917	1082.6501	1094.7142	1112.9253	1151.899	1174.0713	1193.0205	1217.7848	1228.1269	1252.0234	1275.608	1299.5065	1306.8351	1324.8411	1397.4175	1426.5945	1434.8254	1485.0184	1485.493	1490.876	1506.6046	3027.1814	3031.5054	3051.1523	3072.621	3086.6425	3095.0028	3099.0511	3120.458	3130.4543	3172.3362	3793.9866
CC12CC3C1N2CC3O	C[C@]12C[C@@H]3[C@H]1N2C[C@H]3O	
InChI=1S/C7H11NO/c1-7-2-4-5(9)3-8(7)6(4)7/h4-6,9H,2-3H2,1H3	InChI=1S/C7H11NO/c1-7-2-4-5(9)3-8(7)6(4)7/h4-6,9H,2-3H2,1H3/t4-,5+,6+,7-,8?/m0/s1
