15
gdb 10577	2.65715	1.95873	1.35232	1.2761	75.36	-0.2348	0.0126	0.2475	941.1591	0.115236	-325.417913	-325.409429	-325.408485	-325.450306	31.613	
C	-0.1727675787	 1.4459388855	-0.084159285	-0.318302
N	 0.0463365286	 0.0072740485	 0.0059953602	-0.113971
C	 1.3893232644	-0.4825297747	-0.1866192427	-0.261123
C	 0.766837733	-0.5227553262	 1.1951351689	-0.013949
C	 1.2897240117	 0.3857839093	 2.1888947692	 0.305316
C	 1.7037922211	 1.1375632923	 3.0307767883	-0.477263
C	 0.2593005227	-1.7714321049	 1.7138963557	 0.269069
C	-0.1427886964	-2.8163635958	 2.1490569142	-0.424815
H	 0.6635665299	 2.0498155506	 0.2944792574	 0.118394
H	-0.3403199006	 1.693949677	-1.1365141336	 0.129236
H	-1.0725549074	 1.7065364952	 0.4797745628	 0.135611
H	 1.4889340645	-1.4138836744	-0.7366917779	 0.132121
H	 2.1960025302	 0.2368769255	-0.3209688549	 0.12174
H	 2.0762026932	 1.7938832016	 3.7780917945	 0.201355
H	-0.5082655263	-3.7361751796	 2.5336152829	 0.196582
129.2897	141.6732	161.2526	191.3484	229.419	339.2245	363.6695	474.3151	500.7735	568.5038	587.0847	602.9962	612.8759	628.2485	651.9455	663.6726	775.5907	904.6095	913.8427	1051.1984	1117.6463	1130.0772	1145.5495	1205.5327	1253.4953	1327.7889	1449.1128	1487.8993	1491.756	1503.9731	2234.376	2244.9254	3005.118	3086.0755	3093.0768	3117.6936	3191.9515	3501.2494	3503.7204
CN1CC1(C#C)C#C	CN1CC1(C#C)C#C	
InChI=1S/C7H7N/c1-4-7(5-2)6-8(7)3/h1-2H,6H2,3H3	InChI=1S/C7H7N/c1-4-7(5-2)6-8(7)3/h1-2H,6H2,3H3
