18
gdb 97183	2.77822	1.34506	0.93959	1.698	78.97	-0.2326	0.0024	0.2349	1235.5195	0.149399	-435.300043	-435.291524	-435.290579	-435.333517	31.609	
C	 0.1096404113	 1.4088024656	 0.175987389	-0.347662
N	 0.0499056993	-0.0408749196	 0.2673385578	-0.301121
C	-1.0326886235	-0.6256290038	-0.0550285309	 0.404422
C	-1.1710157944	-2.1238697226	 0.0358852604	-0.295749
C	-2.1125912933	-2.6120970708	-1.0540438977	-0.09705
O	-3.3869299336	-1.9557854275	-0.9441918601	-0.2486
C	-3.3944005395	-0.6050606976	-0.845141884	 0.457213
N	-4.4244642036	 0.1123905792	-1.0225332693	-0.56892
N	-2.1844382171	-0.0003153326	-0.5190678986	-0.388226
H	 1.0990261324	 1.7484426075	 0.4905820001	 0.129586
H	-0.0539308516	 1.7725156923	-0.8504524512	 0.116589
H	-0.629335227	 1.9044029307	 0.8256313033	 0.116704
H	-0.1811688555	-2.5750979062	-0.0490203389	 0.139423
H	-1.5841580962	-2.3943213013	 1.0153251759	 0.135437
H	-1.6943283251	-2.4248375096	-2.0513371436	 0.122958
H	-2.330833038	-3.6772897615	-0.9632428517	 0.1292
H	-5.2105973999	-0.4692828723	-1.3040527246	 0.226994
H	-2.2366495145	 1.0067688501	-0.5175401359	 0.268801
86.7738	107.7046	146.2921	205.1223	215.8435	296.6063	396.9435	468.2275	496.8008	552.4167	590.9276	630.4197	699.206	717.0425	796.6683	820.462	887.02	956.5295	994.9278	1030.5342	1072.7425	1084.651	1107.5687	1142.7083	1169.5591	1223.1319	1270.8064	1297.4311	1357.5614	1382.5304	1420.9206	1436.1469	1445.7423	1463.4013	1496.6701	1508.3534	1514.4135	1751.7142	1756.9857	2967.9515	3015.863	3028.5069	3045.143	3105.4833	3120.6684	3128.6341	3527.4989	3639.5352
CN=C1CCOC(=N)N1	CN=C1CCO[C]([NH])N1	
InChI=1S/C5H9N3O/c1-7-4-2-3-9-5(6)8-4/h2-3H2,1H3,(H2,6,7,8)	InChI=1S/C5H9N3O/c1-7-4-2-3-9-5(6)8-4/h2-3H2,1H3,(H2,6,7,8)
