19
gdb 19283	3.24024	1.75422	1.38443	1.3861	70.86	-0.2253	0.0789	0.3042	953.3225	0.165757	-365.00949	-365.001308	-365.000364	-365.041814	30.956	
C	-0.3573696124	 1.5576380957	 0.1408022978	-0.411878
C	-0.0905644928	 0.0588488452	 0.1109661532	 0.016827
C	 0.4034777116	-0.5612028741	-1.2061978935	-0.055994
N	 1.7297100523	 0.0422000419	-1.4896568827	-0.335885
C	 1.6218994428	-1.1068846277	-0.5529010145	-0.082214
C	 1.210001052	-0.5307040607	 0.8062695668	 0.010786
C	 2.1870431677	 0.3998673529	 1.4977747563	-0.094738
O	 1.5728784471	 0.8553420412	 2.7005947315	-0.425508
H	 0.4467807848	 2.1032585981	-0.3596909672	 0.129801
H	-1.2956575866	 1.794319845	-0.3733823381	 0.100944
H	-0.4290020864	 1.9143782677	 1.1718837879	 0.126059
H	-0.9626368341	-0.488064433	 0.4811359195	 0.072412
H	-0.1930342467	-0.9738165204	-2.011385008	 0.086228
H	 2.042511403	-0.3338261433	-2.384133105	 0.225972
H	 2.1629782365	-2.0258915647	-0.7451538735	 0.087263
H	 0.928075555	-1.324984485	 1.5035725373	 0.078681
H	 3.118585601	-0.1498442004	 1.7152254483	 0.077996
H	 2.4438767482	 1.2343080817	 0.8337140079	 0.10821
H	 2.1310478469	 1.5403641701	 3.0795334761	 0.285039
107.7369	138.2691	200.9871	222.114	247.7841	272.8764	311.1362	440.2067	535.0089	594.0635	669.5176	753.1887	809.2899	841.6069	869.4199	915.3516	971.6618	1007.2204	1017.9478	1034.9221	1068.3308	1073.7432	1108.926	1117.882	1139.0754	1158.9114	1187.9543	1230.7795	1251.1489	1272.8077	1301.9458	1329.6044	1353.7898	1369.6617	1388.2782	1404.5967	1455.4568	1488.5768	1509.2116	1525.431	2958.1678	3035.6541	3040.2915	3057.3552	3074.7286	3104.2909	3125.9887	3173.6109	3187.5054	3474.3907	3830.4532
CC1C2NC2C1CO	C[C@H]1[C@H]2N[C@H]2[C@H]1CO	
InChI=1S/C6H11NO/c1-3-4(2-8)6-5(3)7-6/h3-8H,2H2,1H3	InChI=1S/C6H11NO/c1-3-4(2-8)6-5(3)7-6/h3-8H,2H2,1H3/t3-,4+,5-,6+/m1/s1
