19
gdb 68544	2.15564	1.94495	1.60062	3.234	75.48	-0.2306	0.0032	0.2338	969.753	0.156549	-422.983703	-422.974793	-422.973849	-423.0169	34.555	
C	-0.0130666043	 1.4923307609	-0.1094766526	-0.523133
C	 0.0061093464	-0.0023680483	 0.0148174695	 0.337014
O	 0.4170270196	-0.7273918772	-1.1940823009	-0.316712
C	-0.1805373706	-1.8783202242	-0.5317482832	-0.047926
C	 0.692826892	-2.0121892564	 0.7143976606	-0.094123
C	 0.8196842948	-0.7336281782	 1.0882030139	-0.138441
C	-1.3177340397	-0.8957914017	-0.0250351159	 0.42546
C	-2.1514254685	-1.1811977197	 1.21438781	-0.517216
O	-2.1412174846	-0.4667661137	-1.0823437882	-0.464709
H	 0.9711699724	 1.8617457681	-0.413205734	 0.132982
H	-0.7480135109	 1.792697991	-0.8600432852	 0.142504
H	-0.2731668118	 1.9565056364	 0.8475182768	 0.1145
H	-0.3776094737	-2.7294065917	-1.1823753891	 0.076278
H	 1.0433607215	-2.9218065376	 1.1802284151	 0.107789
H	 1.3070824258	-0.293056874	 1.9464438764	 0.105826
H	-1.5486065867	-1.508051053	 2.0603055251	 0.13498
H	-2.7007688674	-0.2793273243	 1.5091044506	 0.123883
H	-2.8863495196	-1.9672325876	 0.9984647254	 0.117955
H	-3.0575861848	-0.6130550489	-0.8336636545	 0.283087
56.87	180.718	192.3433	214.2632	241.989	276.8319	327.6271	401.7925	424.553	505.8357	572.3536	609.8759	649.3723	656.6211	733.8132	745.4239	823.3606	861.3444	877.759	906.1244	918.0233	958.0251	981.4511	1062.2833	1096.3638	1108.6863	1135.6422	1153.6891	1162.7496	1227.2535	1259.8073	1293.1581	1334.1464	1392.8032	1402.9518	1415.2334	1477.7233	1491.9549	1495.5893	1500.6318	1604.6423	3023.0847	3041.7498	3080.1003	3109.6751	3129.3852	3134.3284	3154.4169	3221.2266	3248.4892	3843.1265
CC12OC(C=C1)C2(C)O	C[C@@]12O[C@@H](C=C1)[C@]2(C)O	
InChI=1S/C7H10O2/c1-6-4-3-5(9-6)7(6,2)8/h3-5,8H,1-2H3	InChI=1S/C7H10O2/c1-6-4-3-5(9-6)7(6,2)8/h3-5,8H,1-2H3/t5-,6+,7-/m0/s1
