16
gdb 29728	3.3655	1.33954	0.96982	6.2638	80.9	-0.2364	-0.0333	0.2032	1166.8362	0.125283	-396.991235	-396.982573	-396.981629	-397.024843	30.579	
C	 0.0293536317	 1.4274491536	 0.0108714626	-0.358159
N	 0.0125911527	-0.0247781885	-0.0096470349	-0.096994
C	 0.0132194013	-0.8287096184	-1.1237277798	 0.279317
C	 0.0324040547	-0.2937760637	-2.5140547606	-0.509024
C	-0.0066286954	-2.1212831948	-0.6384076771	-0.16583
N	-0.0193762003	-2.1391658258	 0.7229073935	-0.300797
C	-0.0075193532	-0.8670132963	 1.080105912	 0.23869
C	-0.0138459488	-0.3728702807	 2.4090421717	 0.23745
N	-0.018252769	 0.0769270983	 3.4768523511	-0.357406
H	 0.9284943106	 1.8096546845	-0.4808328439	 0.15164
H	-0.8513319971	 1.8304187768	-0.497373087	 0.151642
H	 0.0236838222	 1.7655773171	 1.0475253434	 0.179456
H	 0.9248909487	 0.3121322927	-2.7110253456	 0.140489
H	 0.0292509471	-1.122712414	-3.2247567401	 0.149675
H	-0.8417831125	 0.332903512	-2.7274367053	 0.140487
H	-0.0121971627	-3.0347552327	-1.2143760498	 0.119366
84.9194	114.6415	151.4542	153.9728	223.6467	263.6764	271.9154	400.8826	514.7032	536.9719	593.5909	657.6152	707.9077	720.4397	739.669	851.1483	982.3786	1011.048	1062.5377	1152.1272	1154.6916	1197.323	1237.7581	1310.4159	1390.1307	1419.099	1434.8664	1471.5175	1477.4914	1480.3547	1490.2948	1506.3093	1511.6873	1586.762	2339.8097	3024.9401	3047.4336	3073.1711	3111.2309	3130.5599	3154.6512	3246.97
CN1C(C)=CN=C1C#N	Cn1c(C)cnc1C#N	
InChI=1S/C6H7N3/c1-5-4-8-6(3-7)9(5)2/h4H,1-2H3	InChI=1S/C6H7N3/c1-5-4-8-6(3-7)9(5)2/h4H,1-2H3
