16
gdb 16031	3.40228	1.77242	1.44949	3.8777	70.8	-0.2358	0.0058	0.2416	902.9895	0.131534	-342.752455	-342.744998	-342.744053	-342.784038	27.941	
C	 0.0057495942	 1.5602059514	 0.0142480809	-0.420401
C	 0.0623507816	 0.0521193437	-0.0700978956	-0.04543
C	 0.6487287737	-0.7431599406	-1.210413976	-0.15706
C	 1.9362876933	-0.1114347993	-1.74874603	-0.180172
N	 2.4886107682	 0.0315941703	-0.3584802585	-0.367591
C	 1.3323886157	-0.7352750549	 0.1684375807	 0.233946
C	 1.4762406949	-1.7637880339	 1.1427380857	 0.185994
N	 1.6121438722	-2.5996992606	 1.9329821441	-0.349321
H	 0.9655234765	 2.0069233968	-0.2514435579	 0.148544
H	-0.7666776087	 1.955637888	-0.6533848046	 0.121556
H	-0.2370600385	 1.874431469	 1.0340343281	 0.128941
H	-0.8028315968	-0.4584329083	 0.3474319861	 0.111916
H	 0.1019042168	-1.5442829596	-1.6904711216	 0.116014
H	 2.5071263882	-0.8159734623	-2.3599790111	 0.119295
H	 1.8443996975	 0.838319379	-2.2854024845	 0.115263
H	 3.3490543512	-0.4950591886	-0.2528636659	 0.238505
132.1513	157.9984	178.7295	228.2631	275.0819	399.5267	493.771	525.7422	559.8463	644.2501	726.3236	775.8693	802.8886	888.6894	939.454	963.0773	989.8372	1006.381	1059.179	1088.3795	1118.659	1158.2208	1160.4437	1208.9729	1241.2674	1301.5066	1326.084	1363.3352	1409.3671	1462.2872	1489.254	1503.4982	1515.2039	2338.3822	3043.0454	3045.9985	3094.6077	3103.7896	3132.9495	3147.9376	3198.5814	3537.7101
CC1C2CNC12C#N	C[C@H]1[C@H]2CN[C@@]12C#N	
InChI=1S/C6H8N2/c1-4-5-2-8-6(4,5)3-7/h4-5,8H,2H2,1H3	InChI=1S/C6H8N2/c1-4-5-2-8-6(4,5)3-7/h4-5,8H,2H2,1H3/t4-,5+,6-/m0/s1
