16
gdb 30517	2.63782	1.58443	0.99607	5.7777	78.91	-0.1974	-0.0214	0.176	1141.2602	0.125732	-434.111663	-434.103455	-434.102511	-434.144436	30.778	
C	 0.0192481017	 1.4086074034	-0.2014374767	-0.343117
N	 0.019711797	-0.0387739598	-0.1990611939	-0.259562
C	-1.0694943201	-0.6354053634	 0.0906472553	 0.278787
N	-2.2754278741	-0.0187740565	 0.4091515804	-0.398698
C	-3.4479788718	-0.6936944064	 0.7211284414	-0.044501
C	-3.4620809766	-2.0313037194	 0.7271942702	-0.039761
N	-2.295667483	-2.7253842733	 0.4192751812	-0.367117
C	-1.0788250559	-2.1526571811	 0.0958048243	 0.379278
O	-0.1070908151	-2.8255167855	-0.1607427264	-0.33878
H	 1.0144363254	 1.773375074	-0.4657029173	 0.133686
H	-0.6909527995	 1.8309548897	-0.9334024826	 0.107448
H	-0.2357982059	 1.8339578932	 0.7847534755	 0.107437
H	-2.2880210252	 0.9878247592	 0.4107924632	 0.258076
H	-4.3140673429	-0.0911431391	 0.9495922772	 0.131899
H	-4.3380774865	-2.616578382	 0.9603537019	 0.13414
H	-2.2903743978	-3.734759583	 0.4195901561	 0.260785
89.2893	166.7141	188.096	218.3003	221.1229	360.5383	407.7847	515.6047	516.4499	539.9124	575.2954	579.4424	640.0731	708.2447	745.9161	796.0361	842.2979	922.3477	1040.3905	1078.3626	1099.3608	1112.6868	1167.9707	1199.3545	1221.366	1370.3893	1427.0482	1433.3957	1459.7013	1470.4481	1507.1761	1509.7361	1715.3282	1727.7746	1810.283	2942.6995	2984.618	3103.8322	3242.3389	3261.1698	3622.2534	3648.9954
CN=C1NC=CNC1=O	CN=c1[nH]cc[nH]c1=O	
InChI=1S/C5H7N3O/c1-6-4-5(9)8-3-2-7-4/h2-3H,1H3,(H,6,7)(H,8,9)	InChI=1S/C5H7N3O/c1-6-4-5(9)8-3-2-7-4/h2-3H,1H3,(H,6,7)(H,8,9)
