17
gdb 71861	2.97032	1.71749	1.36502	4.8421	71.88	-0.2447	0.0215	0.2662	969.1536	0.137729	-418.010258	-418.003113	-418.002169	-418.041574	28.617	
C	-0.0797501586	 1.5230160082	 0.0097024977	-0.49215
C	-0.0740056279	 0.0287740233	-0.0639835449	 0.321403
C	 0.7278253405	-0.8346951661	-1.0535357117	-0.299
C	-0.2421244365	-2.0186514763	-0.715169038	-0.047418
N	 0.2509494648	-2.7786973567	 0.4250293185	-0.309664
C	 0.4190511636	-1.8846477795	 1.4782399538	 0.398292
O	 1.0990141876	-2.0328839092	 2.4572020501	-0.356218
N	-0.40119374	-0.7248988848	 1.2009629171	-0.196296
C	-1.1664404982	-0.9846833071	-0.0204667158	-0.087132
H	 0.8823921017	 1.8947992686	 0.3784281187	 0.136142
H	-0.2526747566	 1.9579550085	-0.9804960533	 0.120826
H	-0.8599023994	 1.8700964131	 0.6910566949	 0.141575
H	 0.5761587692	-0.4653310145	-2.0717346784	 0.113452
H	 1.7959526717	-0.9965314209	-0.873900927	 0.105654
H	-0.6147674253	-2.6425903352	-1.5243802121	 0.094699
H	 0.9918817161	-3.4552216737	 0.30308854	 0.250515
H	-2.2477814625	-0.9153694077	-0.0129197495	 0.10532
149.2981	193.9849	200.7439	295.4427	407.1091	450.3889	501.5743	564.5965	596.9882	672.1845	705.1977	747.8425	815.6554	864.0861	877.8879	904.5836	919.3234	937.2405	992.3609	1015.2607	1033.9219	1060.1846	1102.2065	1155.87	1165.4088	1175.8709	1205.851	1249.7806	1273.316	1334.1076	1385.3127	1397.8171	1432.738	1481.1088	1485.5574	1492.5488	1869.2334	3035.9312	3043.7241	3097.8054	3104.2791	3128.2294	3143.7571	3186.2893	3603.3991
CC12CC3NC(=O)N1C23	C[C@@]12C[C@H]3NC(=O)N1[C@@H]23	
InChI=1S/C6H8N2O/c1-6-2-3-4(6)8(6)5(9)7-3/h3-4H,2H2,1H3,(H,7,9)	InChI=1S/C6H8N2O/c1-6-2-3-4(6)8(6)5(9)7-3/h3-4H,2H2,1H3,(H,7,9)/t3-,4-,6+,8?/m1/s1
