21
gdb 59260	2.4634	1.24775	1.10461	2.5575	78.68	-0.2296	0.0704	0.3	1244.4417	0.180567	-424.182788	-424.173115	-424.172171	-424.217403	36.143	
C	-0.0231761245	 1.5263928731	-0.027164151	-0.4062
C	 0.0119450529	-0.0000310275	 0.0571374702	 0.110278
O	 0.7535400588	-0.4427449942	 1.1971927232	-0.434027
C	-1.3833909344	-0.5967323372	 0.0216410982	-0.123526
C	-1.9636473145	-1.2774270481	-1.1907792549	 0.037883
O	-0.9427549704	-1.9299561294	-1.9493295361	-0.287942
C	-0.6609624689	-2.8100003955	-0.8236967133	-0.13966
C	-1.6819377296	-2.0884580296	 0.056149334	 0.252557
C	-2.5701716941	-2.7472462896	 1.0698547058	-0.503537
H	 0.9921228799	 1.9311366761	-0.0092103116	 0.122724
H	-0.5160898385	 1.8563194697	-0.9474220116	 0.121538
H	-0.5760074915	 1.9525447417	 0.8200085402	 0.100899
H	 0.5721816033	-0.3881315909	-0.7982543461	 0.107673
H	 0.279742221	-0.1515063948	 1.9840107245	 0.2731
H	-2.1346800037	-0.0324752442	 0.5761426328	 0.076437
H	-2.8712881116	-0.9888799711	-1.7102884601	 0.100038
H	-0.9560189669	-3.8374905632	-1.0669030117	 0.102825
H	 0.3892919958	-2.7825399427	-0.5164877464	 0.122445
H	-2.0150215442	-2.9943286117	 1.9828077802	 0.125583
H	-3.3974186675	-2.0900876757	 1.3568246781	 0.119824
H	-3.0017656814	-3.676232715	 0.6801098455	 0.121087
45.051	122.0135	167.3592	190.273	242.8034	249.6844	263.5242	293.9005	339.306	383.4367	459.4055	524.7345	575.8175	632.578	804.3525	817.2721	877.1398	904.6075	932.3009	950.2448	987.9028	1003.6144	1009.0597	1054.8322	1061.7371	1085.3334	1103.2705	1134.3997	1164.7665	1172.053	1237.7009	1250.414	1295.2384	1301.4389	1330.1522	1384.3459	1400.8456	1415.9248	1429.4187	1474.2054	1486.8954	1490.9855	1496.8463	1499.2417	1516.3267	3020.9851	3021.6969	3028.4674	3074.4869	3080.0959	3086.1294	3094.9257	3097.1165	3105.3851	3119.9924	3168.5559	3799.0225
CC(O)C1C2OCC12C	C[C@@H](O)[C@H]1[C@H]2OC[C@@]12C	
InChI=1S/C7H12O2/c1-4(8)5-6-7(5,2)3-9-6/h4-6,8H,3H2,1-2H3	InChI=1S/C7H12O2/c1-4(8)5-6-7(5,2)3-9-6/h4-6,8H,3H2,1-2H3/t4-,5+,6-,7+/m1/s1
