19
gdb 79465	2.49845	1.82979	1.45414	2.6428	73.49	-0.2353	0.0686	0.3039	975.9416	0.159703	-422.981157	-422.97348	-422.972535	-423.012872	31.005	
C	-0.2209923849	 1.6456631309	 0.0765093325	-0.438635
C	 0.022392494	 0.1445547605	 0.0071488703	-0.03021
C	 0.6427866853	-0.5487092814	-1.2188272686	-0.102578
C	 2.2226853257	-0.3843805541	-1.2014121711	 0.067958
C	 2.4521002452	 0.136159557	 0.2294716457	-0.290965
C	 1.1890995213	-0.5666284148	 0.7734344205	 0.342573
O	 1.1006233499	-0.9125834631	 2.117741707	-0.49091
C	 1.1174862265	-1.7180367692	-0.3348545035	 0.070284
O	 2.3840938415	-1.8222159362	-0.9949322171	-0.296874
H	 0.6364450689	 2.2309611871	-0.2677691968	 0.116802
H	-1.0751454167	 1.9257420383	-0.5493532471	 0.120901
H	-0.4533752679	 1.9605789515	 1.1007718675	 0.113396
H	-0.9041496481	-0.3893017368	 0.2536559874	 0.08002
H	 0.1481183899	-0.6790631735	-2.1787104448	 0.077622
H	 2.8029351472	 0.0101635817	-2.0343824715	 0.081608
H	 3.3778201647	-0.2751315015	 0.6368915195	 0.113069
H	 2.4401248763	 1.2219172806	 0.3449509949	 0.092961
H	 1.3210796471	-0.1423399311	 2.6520695057	 0.281829
H	 0.5971905741	-2.6498812958	-0.1209345204	 0.091148
166.2147	176.3659	189.9462	254.7897	295.3164	360.482	488.1836	520.7851	573.943	621.6158	659.0097	740.7121	789.9444	811.386	841.3048	874.5537	910.4365	927.9741	941.8068	983.6622	1028.4027	1034.6856	1055.6593	1092.287	1121.8943	1133.1003	1146.3794	1169.264	1199.0778	1217.7213	1223.979	1257.6675	1286.1504	1323.209	1328.3868	1369.3375	1404.1676	1413.2956	1482.5117	1494.8317	1508.1041	3027.5747	3032.1571	3073.9016	3087.3802	3106.2985	3128.2968	3131.3591	3139.3441	3149.4632	3807.3516
CC1C2C3CC1(O)C2O3	C[C@H]1[C@H]2[C@H]3C[C@]1(O)[C@@H]2O3	
InChI=1S/C7H10O2/c1-3-5-4-2-7(3,8)6(5)9-4/h3-6,8H,2H2,1H3	InChI=1S/C7H10O2/c1-3-5-4-2-7(3,8)6(5)9-4/h3-6,8H,2H2,1H3/t3-,4+,5-,6+,7+/m0/s1
