20
gdb 94208	2.8443	1.28876	1.10426	3.4192	74.76	-0.2334	0.0562	0.2896	1175.9023	0.170744	-440.241433	-440.232383	-440.231439	-440.275262	34.524	
O	-0.3185829782	 1.4467865941	 0.045907865	-0.442793
C	-0.0862452264	 0.0501995078	 0.0248508058	 0.07455
C	 0.3134306818	-0.669615076	 1.3365930642	-0.277258
C	-0.7575533656	-1.7502512783	 1.0166882754	-0.25728
C	-1.4198713409	-0.7664418211	 0.0082333132	 0.37233
O	-2.4428723462	-0.0111954715	 0.6309631492	-0.493394
C	-1.8938632782	-1.3339337545	-1.3098278169	-0.04351
C	-3.3005168735	-1.7734691768	-1.4694745766	-0.244642
N	-2.8122363313	-0.5639930675	-2.1589712457	-0.327942
H	 0.3723169879	 1.8702333505	 0.564248276	 0.295172
H	 0.5646774681	-0.2236902093	-0.8151179584	 0.08153
H	 1.3528261359	-0.9883839566	 1.4381130661	 0.101793
H	 0.031175276	-0.0728187809	 2.2082851063	 0.108298
H	-0.3349301536	-2.6276475207	 0.519851222	 0.104038
H	-1.4042584605	-2.0718371586	 1.8336391654	 0.116248
H	-2.1307789146	 0.9067381503	 0.6254325583	 0.292356
H	-1.1188488352	-1.8623187513	-1.8632855346	 0.078484
H	-3.536806305	-2.610687356	-2.1199975461	 0.110376
H	-3.9628591636	-1.640447785	-0.6196078329	 0.123491
H	-3.122511467	 0.2422742613	-1.6184014556	 0.228155
72.0506	96.9814	163.3592	187.7455	244.0458	311.3903	334.7962	357.8719	429.765	469.3386	532.3948	606.5272	654.7844	737.7472	778.8223	852.2711	877.8943	909.9246	931.4955	958.1205	975.1706	995.977	1025.6069	1090.094	1101.6643	1115.9186	1133.8308	1153.5987	1178.2961	1200.6709	1214.482	1248.6835	1263.8746	1279.5605	1291.5698	1313.0156	1341.1557	1382.43	1391.9593	1435.1948	1465.983	1484.4592	1501.6267	3024.1992	3062.1261	3068.8207	3112.1696	3117.2578	3118.2994	3137.8532	3205.636	3479.4167	3698.749	3831.2599
OC1CCC1(O)C1CN1	O[C@H]1CC[C@]1(O)[C@H]1CN1	
InChI=1S/C6H11NO2/c8-5-1-2-6(5,9)4-3-7-4/h4-5,7-9H,1-3H2	InChI=1S/C6H11NO2/c8-5-1-2-6(5,9)4-3-7-4/h4-5,7-9H,1-3H2/t4-,5+,6+/m1/s1
