14
gdb 15300	3.56032	1.40416	1.12189	4.2555	63.27	-0.2673	-0.0159	0.2513	1017.9687	0.106709	-378.723847	-378.716085	-378.715141	-378.756802	26.803	
O	-0.1107394637	 0.535659703	-0.4608511565	-0.279832
C	 0.0798007322	 1.6388946058	-0.013859338	 0.124119
N	 1.2750989666	 2.0584663874	 0.5543801859	-0.051771
C	 2.5840946029	 1.6991027613	 0.0664068206	-0.253485
C	 2.1326124222	 3.1326028976	 0.098283659	-0.004224
C	 1.8459592378	 3.850616377	-1.214182532	-0.365712
C	 0.8498533204	 4.9129155172	-1.0676671178	 0.265144
N	 0.0626284314	 5.7476573077	-0.9337592695	-0.295123
H	-0.7019271055	 2.4173241538	 0.0548062702	 0.112669
H	 3.2931291053	 1.3425575959	 0.8076901358	 0.140385
H	 2.6294767575	 1.198072823	-0.8980360631	 0.142406
H	 2.5080816475	 3.779862752	 0.887917924	 0.128238
H	 2.7742970469	 4.2928479417	-1.5940290195	 0.168345
H	 1.4966659685	 3.1374556465	-1.9693832291	 0.168841
58.7687	106.7145	141.8812	215.3881	270.5564	381.0472	394.2966	428.7294	551.6841	624.1467	802.1238	860.0418	912.0362	961.3583	989.0631	1041.0055	1082.0655	1095.9417	1136.8523	1143.7826	1168.8489	1242.6116	1317.9536	1374.5019	1416.6369	1429.6932	1456.5112	1512.9684	1800.9523	2365.8744	2976.2204	3043.8117	3085.1484	3111.546	3137.8476	3201.4243
O=CN1CC1CC#N	O=CN1C[C@H]1CC#N	
InChI=1S/C5H6N2O/c6-2-1-5-3-7(5)4-8/h4-5H,1,3H2	InChI=1S/C5H6N2O/c6-2-1-5-3-7(5)4-8/h4-5H,1,3H2/t5-,7?/m1/s1
