21
gdb 97479	5.66596	0.45006	0.42797	0.1046	109.83	-0.2242	0.0016	0.2258	2646.1859	0.179976	-349.92909	-349.917839	-349.916895	-349.969071	39.086	
C	-0.0498550962	 1.570504075	 0.0789769663	-0.365456
C	 0.0090017461	 0.0321555443	 0.0126738204	-0.342468
C	 0.68084248	-0.4643570628	-1.1795235909	 0.276849
C	 1.2418198617	-0.8602978626	-2.1773091789	-0.223563
C	 1.8715360659	-1.3057976096	-3.2979522083	-0.297117
C	 2.4295251828	-1.7028262644	-4.2974373303	 0.376451
C	 3.0933027909	-2.1864898038	-5.5046406413	-0.165224
C	 3.1713087615	-3.7273366047	-5.5160004683	-0.374451
C	 2.3992228232	-1.6494292979	-6.7735577289	-0.374426
H	 0.9563612496	 1.9976648313	 0.0798711169	 0.131497
H	-0.5882164661	 1.975636519	-0.7818125398	 0.131426
H	-0.5629584983	 1.8905748758	 0.9905980428	 0.116195
H	 0.5204336962	-0.3541113802	 0.904317637	 0.134183
H	-1.0097863736	-0.37579588	 0.0506897342	 0.134149
H	 4.1225369344	-1.7995362972	-5.4970522238	 0.109351
H	 2.1677980014	-4.1631894834	-5.533164487	 0.12654
H	 3.7112304859	-4.0702205256	-6.4043765374	 0.113279
H	 3.6888206935	-4.1017976991	-4.6291905448	 0.126636
H	 2.3700473219	-0.5568847836	-6.7736599789	 0.126425
H	 2.9373120969	-1.9828477071	-7.6666150583	 0.113261
H	 1.3702931523	-2.0167661033	-6.8340312908	 0.126463
2.9526	53.8214	70.2396	123.5248	164.3403	225.9901	233.9625	240.6378	272.3813	312.404	358.7678	424.127	482.352	527.9681	547.9553	584.8388	614.9239	783.8426	807.8414	906.7675	931.6669	963.4397	990.8483	1077.7451	1100.7299	1109.43	1115.9609	1178.2434	1268.6457	1282.519	1319.6162	1339.8429	1362.9237	1394.848	1408.3118	1417.3772	1470.7194	1485.0644	1488.7745	1494.3044	1497.9381	1505.251	1510.2561	2271.0703	2380.6832	2999.7407	3014.8172	3037.4235	3040.5612	3042.0629	3045.9079	3109.0534	3113.7049	3119.9511	3121.3759	3123.1009	3126.806
CCC#CC#CC(C)C	CCC#CC#CC(C)C	
InChI=1S/C9H12/c1-4-5-6-7-8-9(2)3/h9H,4H2,1-3H3	InChI=1S/C9H12/c1-4-5-6-7-8-9(2)3/h9H,4H2,1-3H3
