25
gdb 122351	3.11777	0.76471	0.70526	0.8325	90.87	-0.2454	0.0807	0.3261	1784.0616	0.226776	-389.477443	-389.4661	-389.465156	-389.514795	40.422	
C	-1.1250237339	-0.1650092504	-4.2606181253	-0.383898
C	-0.7169881447	-1.0931512296	-3.1286453973	-0.022773
O	-1.8778371729	-1.4965053208	-2.4348925605	-0.244455
C	-1.6046093903	-2.3692855554	-1.3536350311	-0.074685
C	-2.8973607741	-2.6660372562	-0.6413690265	-0.045772
C	-3.9048327011	-3.6585550281	-1.1864614939	-0.007712
C	-3.6890295572	-4.4062079584	-2.4853825327	-0.402757
C	-3.153349967	-3.9705911076	 0.0916601602	-0.035902
C	-2.1330242951	-5.0850581563	 0.2088918619	-0.406845
H	-0.2449899214	 0.1684406161	-4.8188577146	 0.111893
H	-1.8014856675	-0.6770243273	-4.9509542733	 0.124936
H	-1.6413455189	 0.7150803163	-3.8667458222	 0.125469
H	-0.1823283081	-1.9739505433	-3.525675208	 0.080435
H	-0.0196005268	-0.5819380725	-2.4421363332	 0.081519
H	-1.1171524666	-3.2841461022	-1.7238260594	 0.079192
H	-0.8907738884	-1.8941039748	-0.6579077798	 0.082256
H	-3.3213826709	-1.7777466645	-0.1804204614	 0.083401
H	-4.9416249801	-3.3645960908	-1.0410108599	 0.079057
H	-2.6543676501	-4.7283554007	-2.6237492798	 0.111626
H	-4.317439792	-5.3028827879	-2.5281660149	 0.110301
H	-3.9467989524	-3.7715233774	-3.3393354886	 0.125853
H	-3.7414540731	-3.8544189458	 0.9992320891	 0.080371
H	-1.5642647458	-5.2433832109	-0.7100945327	 0.116661
H	-1.4131931771	-4.8762744144	 1.0084157799	 0.115648
H	-2.6271096644	-6.0326323472	 0.451344084	 0.116178
42.1464	79.7558	89.6644	121.3558	143.9088	173.7949	210.5847	224.8436	246.4574	284.1736	343.2419	409.7656	469.0317	533.2175	560.7176	748.4379	775.8712	822.4669	851.7934	903.4648	927.5213	963.8948	1016.4418	1033.8399	1046.2923	1054.1241	1108.3298	1132.2436	1141.5424	1156.9715	1163.5988	1182.3043	1189.8964	1199.5189	1266.5851	1280.8122	1296.3818	1359.3281	1380.0961	1395.3532	1410.1513	1418.7841	1424.2649	1447.7581	1465.965	1483.3185	1488.6174	1492.3676	1499.471	1503.5871	1511.3919	1519.5134	1536.7473	2941.4146	2953.4323	2967.2845	2995.1593	3031.3229	3036.3145	3043.9092	3084.3953	3093.372	3107.6433	3117.107	3117.9115	3120.3914	3126.1519	3130.3665	3145.2042
CCOCC1C(C)C1C	CCOC[C@H]1[C@@H](C)[C@H]1C	
InChI=1S/C8H16O/c1-4-9-5-8-6(2)7(8)3/h6-8H,4-5H2,1-3H3	InChI=1S/C8H16O/c1-4-9-5-8-6(2)7(8)3/h6-8H,4-5H2,1-3H3/t6-,7+,8-
