20
gdb 13219	4.38635	1.14038	0.96045	2.4644	71.13	-0.2536	0.061	0.3146	1228.1488	0.177003	-386.12322	-386.114479	-386.113535	-386.156778	32.468	
O	 0.1374144076	 1.4105008518	-0.1330503149	-0.425303
C	 0.0926548111	 0.0134691759	 0.0578483969	-0.061236
C	-1.3480303829	-0.5012679234	-0.001651921	 0.076971
O	-1.9595333421	-0.0218290779	-1.2093086131	-0.44467
C	-1.4617744845	-2.0087008536	 0.1308813491	 0.028
C	-1.1477284054	-2.6682675476	 1.5065702418	-0.234454
C	-2.349715104	-3.6245512637	 1.2796769501	-0.212855
C	-2.8787308445	-2.6454240536	 0.196549995	-0.229218
H	-0.5132936808	 1.5893697049	-0.8251036179	 0.283821
H	 0.6934109843	-0.5180347023	-0.7046363573	 0.067515
H	 0.5400496349	-0.2038345739	 1.0340241231	 0.109348
H	-1.9212422323	-0.0166852046	 0.7987810169	 0.09019
H	-1.5973352039	-0.5351041841	-1.9415446803	 0.280495
H	-0.8658167973	-2.48839269	-0.6583922931	 0.059775
H	-0.1585879916	-3.110365676	 1.6460927406	 0.100161
H	-1.3344072898	-1.9711619163	 2.3303512209	 0.104948
H	-2.0317648132	-4.5771486011	 0.8463909952	 0.102984
H	-2.9971301456	-3.8337769593	 2.1340495006	 0.099779
H	-3.6079291414	-1.9384887577	 0.6039364784	 0.107131
H	-3.2891881585	-3.0715332078	-0.7215338108	 0.096617
75.7551	101.4879	134.4239	157.6553	264.6414	320.7231	336.5946	391.2191	442.6638	519.8656	545.8305	663.8326	780.5375	796.7142	872.1062	902.722	934.2641	958.3175	977.6993	1019.0355	1044.254	1080.8308	1108.0273	1121.9882	1142.8087	1203.4456	1210.2831	1224.4557	1256.3648	1260.4221	1267.4636	1284.9198	1297.2098	1306.0307	1382.2184	1390.0497	1420.2668	1444.8223	1478.2166	1486.4594	1506.4197	1509.796	2924.8777	3003.8865	3039.9322	3048.415	3057.0145	3060.7341	3067.8167	3099.2394	3106.5541	3120.6223	3757.3917	3786.1561
OCC(O)C1CCC1	OC[C@@H](O)C1CCC1	
InChI=1S/C6H12O2/c7-4-6(8)5-2-1-3-5/h5-8H,1-4H2	InChI=1S/C6H12O2/c7-4-6(8)5-2-1-3-5/h5-8H,1-4H2/t6-/m1/s1
