19
gdb 24732	3.45356	1.57227	1.12497	2.9243	82.6	-0.1702	0.0518	0.222	1078.5321	0.16398	-382.110986	-382.103692	-382.102748	-382.142642	29.485	
C	-0.013081716	 1.5308936491	-0.0307828672	-0.21627
C	 1.4301301751	 2.0551855567	-0.0023563761	-0.165919
N	 2.1558444454	 1.6412859574	 1.1971333403	-0.392041
C	 1.9318408648	 0.3142025287	 1.6083773881	 0.342644
C	 2.5975820197	-0.455037763	 2.5382855481	-0.27149
C	 1.9454702953	-1.720310217	 2.5793864984	-0.154716
C	 0.9184774933	-1.6905392057	 1.669200867	-0.119851
N	 0.9000684869	-0.4394739805	 1.0860537662	-0.033201
C	 0.0066067956	 0.0017234584	 0.0285386997	-0.156024
H	-0.5664190135	 1.9325634855	 0.8264858977	 0.105823
H	-0.5281503338	 1.8540179057	-0.9411539597	 0.10332
H	 1.9656248481	 1.6786775428	-0.8853080926	 0.111869
H	 1.4539828786	 3.146770962	-0.0565240852	 0.104988
H	 2.0216249937	 2.2946987038	 1.9589159719	 0.234415
H	 3.4483819378	-0.1356685778	 3.1197434379	 0.083954
H	 2.2113179939	-2.5603798406	 3.2028258681	 0.087872
H	 0.2113611738	-2.4450244778	 1.3629050991	 0.103384
H	-0.9932337044	-0.4000899699	 0.2201478832	 0.116344
H	 0.3406228057	-0.4007898278	-0.938478075	 0.114899
91.7694	160.624	280.5589	309.5353	391.3525	461.0279	517.5689	591.2563	611.5986	642.4484	683.4297	694.168	734.6508	770.7307	820.3202	880.5711	894.5269	904.983	957.4008	993.3865	1047.8795	1081.5056	1102.7795	1137.2332	1209.9306	1214.1194	1227.0134	1256.2594	1304.4713	1324.353	1352.1007	1371.384	1391.7042	1421.3449	1445.6303	1478.3037	1482.2286	1496.7784	1511.1177	1536.6569	1602.9943	2999.2926	3009.4098	3036.3095	3071.8947	3088.0206	3092.3172	3238.8489	3252.3618	3265.5099	3537.1703
C1CNC2=CC=CN2C1	C1CNc2cccn2C1	
InChI=1S/C7H10N2/c1-3-7-8-4-2-6-9(7)5-1/h1,3,5,8H,2,4,6H2	InChI=1S/C7H10N2/c1-3-7-8-4-2-6-9(7)5-1/h1,3,5,8H,2,4,6H2
