24
gdb 13893	2.54273	1.58709	1.18639	0.1405	85.27	-0.2569	0.0766	0.3335	1169.9625	0.221631	-314.271967	-314.261684	-314.260739	-314.306613	38.011	
C	 0.1962383298	 1.4199982018	 0.2289272559	-0.38616
C	-0.2498425779	-0.0229582802	-0.0554786901	 0.024368
C	-1.7523453132	-0.0775873465	-0.3740201177	-0.386134
C	 0.5614962268	-0.6197589206	-1.1947591593	 0.003856
C	 1.9484856991	-1.2117959237	-1.0255445485	-0.038427
C	 2.6640334902	-1.2946019674	 0.307717397	-0.406629
C	 0.7799858678	-2.1090087921	-1.3878853049	-0.038448
C	 0.231518974	-3.1625016971	-0.4467125372	-0.406646
H	 1.2560695496	 1.4652247751	 0.4968735888	 0.114576
H	 0.0496694242	 2.0531312277	-0.6544679835	 0.109107
H	-0.3807228773	 1.8588500737	 1.0501700021	 0.105112
H	-0.0817993865	-0.6084225245	 0.8558581768	 0.066251
H	-1.9779493573	 0.4945967994	-1.282002963	 0.109103
H	-2.0890205557	-1.1056190133	-0.5379676021	 0.114571
H	-2.3464116324	 0.3483094222	 0.4418329609	 0.105107
H	 0.4203313477	-0.0621281088	-2.1204782203	 0.069794
H	 2.6300880318	-1.005477734	-1.8479725322	 0.075707
H	 1.9858986654	-1.4708200323	 1.1458410012	 0.115545
H	 3.3971697862	-2.1093922805	 0.3053359439	 0.113379
H	 3.2077264745	-0.3667658287	 0.5183241122	 0.115659
H	 0.7675743058	-2.4355513906	-2.4255519242	 0.075708
H	 0.2061515633	-2.8331088446	 0.5945518911	 0.115564
H	-0.7910881564	-3.4412643995	-0.7249085999	 0.115653
H	 0.8402542903	-4.0731808753	-0.4853762371	 0.113382
63.1787	126.066	158.162	164.3505	184.1831	227.8685	237.9672	260.3027	276.6863	330.6544	408.2978	464.6218	516.5754	567.8027	760.5981	762.7156	800.0613	894.2903	926.4407	944.7858	947.6787	964.3747	1007.2488	1047.1196	1052.5493	1107.2376	1134.4814	1140.2449	1161.9693	1187.6867	1188.0313	1207.8082	1274.053	1306.8963	1337.7321	1378.2643	1395.0592	1400.7659	1417.0042	1418.2096	1422.6731	1454.5778	1484.4455	1489.0765	1490.2731	1495.3632	1501.2921	1502.8281	1508.0542	1515.9567	3022.7625	3026.5318	3028.1335	3030.3737	3035.4797	3080.5809	3082.4563	3085.4785	3091.2718	3099.3828	3103.9856	3104.3176	3106.5059	3116.2371	3121.3746	3135.3913
CC(C)C1C(C)C1C	CC(C)[C@H]1[C@@H](C)[C@H]1C	
InChI=1S/C8H16/c1-5(2)8-6(3)7(8)4/h5-8H,1-4H3	InChI=1S/C8H16/c1-5(2)8-6(3)7(8)4/h5-8H,1-4H3/t6-,7+,8-
