21
gdb 69112	2.58285	1.53536	1.1685	2.9278	83.5	-0.2436	-0.0204	0.2232	1128.7251	0.182873	-387.119424	-387.110791	-387.109847	-387.152112	33.802	
C	-0.1710158339	 1.4805231437	 0.265374541	-0.487725
C	 0.0912330729	 0.0079784082	 0.0610715876	 0.313071
C	-0.6785050273	-1.0019640797	 0.847633403	-0.370307
C	 0.810771021	-0.8755718131	 1.125591635	 0.22609
C	 1.7434378543	-1.8308187639	 0.393859452	-0.297017
C	 1.2520165234	-1.8354902769	-1.0713300508	-0.232775
C	 0.632370333	-0.4405545565	-1.2935471458	-0.258446
C	 1.2393828378	-0.2795255744	 2.4061682477	 0.065882
O	 0.5330262625	 0.3583819215	 3.1559571848	-0.27827
H	 0.6969352925	 2.0823978382	-0.0275213963	 0.112306
H	-1.0188118493	 1.8022611778	-0.3507089933	 0.117766
H	-0.4051977676	 1.7014545273	 1.3089025817	 0.152086
H	-1.3169738528	-0.6184660728	 1.6363950017	 0.135467
H	-1.0284119759	-1.9154897859	 0.3773144018	 0.111854
H	 2.7706089009	-1.4489097305	 0.4571039621	 0.103031
H	 1.749734916	-2.8371842405	 0.8268988916	 0.104276
H	 2.0551286589	-2.0537350904	-1.7795982103	 0.103014
H	 0.4946466359	-2.6129463928	-1.2100165706	 0.109208
H	-0.1431764185	-0.4470761414	-2.0680196208	 0.102752
H	 1.3988682954	 0.2748547025	-1.616884303	 0.101174
H	 2.3149543908	-0.4424688404	 2.6491056309	 0.066564
129.6573	174.5235	206.5662	216.2036	223.6687	278.6205	333.0368	396.0647	431.1477	464.1773	574.3169	637.9803	673.8778	729.4276	792.6758	887.0219	890.8384	927.3682	937.7239	942.6034	988.7006	1028.7509	1038.4018	1065.3969	1076.561	1101.5663	1119.189	1190.8142	1219.1934	1246.1803	1264.7209	1272.0045	1322.7387	1342.2218	1361.159	1385.2412	1419.8871	1435.9195	1475.5475	1486.6017	1494.0475	1498.8853	1501.2244	1515.9996	1790.8549	2860.5399	3023.024	3024.3446	3029.1536	3051.148	3064.7544	3070.4726	3082.0555	3102.0049	3127.2328	3129.3919	3218.5146
CC12CC1(CCC2)C=O	C[C@]12C[C@]1(CCC2)C=O	
InChI=1S/C8H12O/c1-7-3-2-4-8(7,5-7)6-9/h6H,2-5H2,1H3	InChI=1S/C8H12O/c1-7-3-2-4-8(7,5-7)6-9/h6H,2-5H2,1H3/t7-,8+/m0/s1
