14
gdb 131733	5.01913	1.03539	0.86294	5.4762	68.32	-0.2516	-0.0823	0.1693	1241.9396	0.101744	-470.019175	-470.011229	-470.010284	-470.052913	28.156	
O	 0.0305762573	 1.4494503017	 0.010298336	-0.393495
C	 0.015146203	 0.045600694	 0.0009405915	-0.161204
C	-1.4076013808	-0.454029486	 0.0122921897	 0.286851
N	-2.3969307722	 0.3911054355	 0.0221182042	-0.190863
N	-3.614429171	-0.1490371236	 0.0312984838	-0.25975
C	-3.9570642031	-1.5121502103	 0.0313295548	 0.461191
O	-5.1155449386	-1.8539842491	 0.0401082347	-0.366442
N	-2.8631382918	-2.3861962304	 0.0206286949	-0.298049
C	-1.6779697459	-1.8657890891	 0.0119160751	-0.011335
H	 0.9482370449	 1.7367683882	-0.0009643575	 0.297685
H	 0.519080812	-0.3687677343	-0.8903671548	 0.112324
H	 0.5372200536	-0.3808506175	 0.8759629105	 0.112172
H	-4.3814202683	 0.5107082081	 0.0390906751	 0.284512
H	-0.8338016289	-2.559492997	 0.0037421419	 0.126403
33.4878	83.4332	189.8721	225.6724	295.4303	387.0406	395.8277	478.8051	511.85	598.1159	639.7313	735.1017	792.0869	805.3554	840.3113	981.8736	1009.9169	1047.2133	1102.1545	1137.2004	1224.6656	1250.892	1252.6753	1291.5499	1424.7811	1436.6924	1475.9565	1512.9228	1572.99	1671.1264	1824.7908	2943.1573	2957.9646	3100.9979	3592.1121	3836.6348
OCC1=NNC(=O)N=C1	OCc1n[nH]c(=O)nc1	
InChI=1S/C4H5N3O2/c8-2-3-1-5-4(9)7-6-3/h1,8H,2H2,(H,5,7,9)	InChI=1S/C4H5N3O2/c8-2-3-1-5-4(9)7-6-3/h1,8H,2H2,(H,5,7,9)
