15
gdb 26076	3.31008	1.18897	0.91299	1.416	71.62	-0.2286	0.0112	0.2398	1209.5225	0.111802	-420.604449	-420.596214	-420.595269	-420.637858	30.601	
O	 0.5212220663	 1.5768661886	-0.1386753491	-0.405537
C	 0.1572462253	 0.2068694919	 0.003549388	-0.173274
C	 0.4553298374	-0.5688831456	-1.2085931483	 0.310248
C	 0.7210779295	-1.1898429754	-2.2026688783	-0.457499
C	 0.7843756714	-0.4098538749	 1.232055419	 0.22449
C	 1.2991201229	 0.2774983356	 2.287325049	-0.099687
O	 1.7608094952	-0.5791941867	 3.2360972502	-0.144215
C	 1.5315786864	-1.8375162405	 2.7765806972	 0.006536
C	 0.9384472854	-1.8006028714	 1.5566171455	-0.294199
H	 1.4659297275	 1.598920642	-0.3323549797	 0.285686
H	-0.933414226	 0.233696235	 0.1300761687	 0.136911
H	 0.9465983392	-1.7351219257	-3.0859400305	 0.20288
H	 1.3979149611	 1.3275315114	 2.5013320843	 0.147203
H	 1.8508468509	-2.6375961813	 3.4237470402	 0.138835
H	 0.6538076475	-2.6430463529	 0.946617444	 0.121622
49.4046	114.2077	178.2243	218.4174	278.891	338.5463	418.6016	472.1254	580.8337	617.7343	624.2603	634.0725	678.0192	741.6227	767.7964	813.9229	843.2123	893.3185	919.6973	1010.1359	1050.13	1065.6314	1101.7171	1201.6046	1241.3131	1255.6947	1280.7502	1316.15	1399.6487	1419.6119	1532.7329	1626.2064	2234.4026	3019.8894	3260.6449	3285.6667	3294.2119	3501.3858	3794.8677
OC(C#C)C1=COC=C1	O[C@@H](C#C)c1cocc1	
InChI=1S/C7H6O2/c1-2-7(8)6-3-4-9-5-6/h1,3-5,7-8H	InChI=1S/C7H6O2/c1-2-7(8)6-3-4-9-5-6/h1,3-5,7-8H/t7-/m0/s1
