17
gdb 16991	3.90028	2.18555	2.06252	0.8787	68.42	-0.2279	0.0422	0.2701	741.6745	0.144554	-363.725006	-363.719036	-363.718092	-363.754643	25.127	
C	 0.0320356772	 1.5785450138	 0.1554695019	-0.201418
O	 1.4901057751	 1.5886769167	-0.1388670217	-0.325286
C	 1.2151997112	 0.3728857938	-0.9584105113	 0.127017
C	 1.343600159	-1.2091461701	-1.0418565894	-0.079399
C	 1.6261849102	-1.6860346458	 0.3760444236	-0.189549
C	 0.6426408326	-0.7311523632	 1.108747971	-0.205814
C	 0.0742832192	 0.0435912201	-0.1021806103	 0.237722
N	-0.2148447281	-1.1760249409	-1.0347153529	-0.405766
H	-0.1756377036	 1.9271044279	 1.1702969588	 0.119852
H	-0.5149651783	 2.1712079356	-0.5860058376	 0.111486
H	 0.9409135361	 0.7341739721	-1.957675628	 0.078265
H	 1.8121383353	-1.7142290337	-1.887896203	 0.078274
H	 1.3759597476	-2.7412804501	 0.5004086986	 0.109079
H	 2.6700423159	-1.5334331225	 0.6613539979	 0.106574
H	-0.1602052313	-1.2633590715	 1.6237994792	 0.105974
H	 1.1475993147	-0.070252234	 1.8139384689	 0.113514
H	-0.5081270128	-0.8147752481	-1.9450873057	 0.219475
219.0379	301.148	342.084	400.7496	501.868	547.3154	638.9918	737.7025	758.0087	812.1549	825.6619	845.391	865.8703	895.0539	924.2642	946.8655	985.0485	1013.4992	1037.1781	1077.8847	1111.4128	1119.3494	1143.7977	1161.0677	1198.5838	1245.9513	1259.6156	1265.6383	1280.2637	1302.8504	1334.583	1355.4424	1408.1528	1471.3301	1497.6084	1503.5737	3016.4283	3038.3973	3068.4796	3078.1686	3110.8983	3113.0317	3117.0002	3137.6825	3436.7987
C1OC2C3CCC12N3	C1O[C@H]2[C@H]3CC[C@@]12N3	
InChI=1S/C6H9NO/c1-2-6-3-8-5(6)4(1)7-6/h4-5,7H,1-3H2	InChI=1S/C6H9NO/c1-2-6-3-8-5(6)4(1)7-6/h4-5,7H,1-3H2/t4-,5+,6-/m1/s1
