17
gdb 99809	1.69549	0.739	0.54196	4.7677	72.57	-0.2316	-0.0534	0.1783	2016.5618	0.127162	-455.207491	-455.193159	-455.192215	-455.254375	42.035	
C	-0.2059429351	 2.1521323193	-1.3241475602	-0.481372
C	-0.0565159714	 2.0313734405	 0.1721038486	 0.209768
C	 0.5075945651	 2.9525543487	 0.9596695613	-0.351565
N	-0.1970430499	-2.8340705278	 3.1629441483	-0.745109
H	-0.4668442463	-1.943126012	 2.7485454693	 0.261982
H	 0.0886882751	-3.4058993659	 2.3710813679	 0.234123
H	-1.0692549371	-3.2495762005	 3.4831853765	 0.224977
C	-0.5624907769	 0.8229927739	 0.7567959556	 0.26388
N	-0.9817616747	-0.1656832102	 1.1899427855	-0.353096
C	 0.2447104441	-2.3425990953	-0.8883713608	 0.599203
O	-0.0087588783	-3.2733854145	-0.2412878185	-0.287771
O	 0.5075270723	-1.4243528076	-1.5533191649	-0.305765
H	 0.2434490979	 3.0825619553	-1.6773077926	 0.13481
H	 0.2735074071	 1.3081186681	-1.8291931877	 0.167741
H	-1.2627307887	 2.1417344062	-1.6115610016	 0.149453
H	 0.5923459333	 2.8148589872	 2.0307202081	 0.144293
H	 0.9007782935	 3.8724730444	 0.5410949652	 0.134447
15.6301	18.1598	20.2047	44.625	48.3632	65.1262	81.4797	93.5526	101.4027	158.769	187.2041	190.8586	204.2421	299.911	387.7021	563.4249	601.8805	680.5984	687.9781	762.2193	768.1935	966.2976	971.6869	1036.2892	1077.7366	1152.0505	1283.4316	1379.7432	1414.2771	1444.9854	1475.2137	1495.6693	1688.8069	1690.9821	1699.554	2335.3123	2434.3505	3043.3184	3105.7134	3137.0307	3164.2187	3256.4074	3454.8611	3560.13	3568.0247
CC(C[NH3+])(C#N)C([O-])=O	CC(=C)C#N.N.C(=O)=O	
InChI=1S/C5H8N2O2/c1-5(2-6,3-7)4(8)9/h2,6H2,1H3,(H,8,9)	InChI=1S/C4H5N.CO2.H3N/c1-4(2)3-5;2-1-3;/h1H2,2H3;;1H3
