17
gdb 16645	2.78967	2.30962	1.66404	3.3417	67.6	-0.2294	-0.0179	0.2115	837.5671	0.143573	-363.869628	-363.862415	-363.861471	-363.901009	27.635	
C	 0.6902151847	 1.4572036685	-0.0271178189	-0.402301
C	 0.0063169118	 0.0800011383	-0.0095085694	-0.095009
C	 0.3402116083	-0.8306850783	-1.2223583725	-0.234566
C	 1.3053235015	-1.8859975358	-0.6952101151	-0.030864
N	 2.4701829215	-1.2916111999	-0.0326552575	-0.328809
C	 1.344758115	-1.8343944892	 0.792394668	-0.164405
C	 0.4275138222	-0.7294363947	 1.2343255796	 0.447392
O	 0.0394074225	-0.5384237945	 2.3593210094	-0.33591
H	 1.7738165171	 1.3478144846	-0.1137338324	 0.145375
H	 0.3314660961	 2.0509077368	-0.8740237833	 0.11159
H	 0.4656243766	 2.0038152057	 0.8933485324	 0.130592
H	-1.0743268083	 0.2336442591	 0.0714878416	 0.100711
H	-0.5638948011	-1.3229562265	-1.5955907959	 0.105352
H	 0.7794499292	-0.2703504485	-2.0535169851	 0.110368
H	 1.4211175925	-2.8278241333	-1.2220288362	 0.09512
H	 3.2283228299	-1.9698710464	 0.0019567132	 0.241324
H	 1.5134023106	-2.6907082758	 1.4341644123	 0.104039
86.8946	199.0866	226.8572	246.5091	359.922	384.8878	457.9024	570.7736	652.104	717.4639	783.812	808.9115	854.7304	890.0227	893.82	944.7674	956.6484	991.5298	1060.0208	1097.8579	1119.3335	1129.914	1154.1474	1185.6837	1230.1999	1258.0002	1269.2917	1325.2429	1341.8547	1362.3889	1395.439	1412.2865	1484.4556	1494.366	1508.1255	1839.7825	3039.3938	3044.6033	3060.2717	3089.8637	3109.0808	3131.9651	3162.4466	3194.0334	3494.4986
CC1CC2NC2C1=O	C[C@H]1C[C@H]2N[C@H]2C1=O	
InChI=1S/C6H9NO/c1-3-2-4-5(7-4)6(3)8/h3-5,7H,2H2,1H3	InChI=1S/C6H9NO/c1-3-2-4-5(7-4)6(3)8/h3-5,7H,2H2,1H3/t3-,4+,5+/m0/s1
