15
gdb 125446	3.02825	1.49824	1.00982	2.5437	74.03	-0.226	-0.0753	0.1507	1116.1841	0.11256	-450.118284	-450.110041	-450.109097	-450.151155	30.817	
C	 0.0766990543	 1.4652925682	 0.007750719	-0.464521
C	 0.063810165	-0.0273451355	-0.0181503375	 0.286848
N	 0.0570525097	-0.6608100858	-1.1364749169	-0.3334
C	 0.0292575482	-2.0544710911	-1.0683660423	 0.451946
N	 0.1209273239	-2.663631079	-2.2956682966	-0.548367
N	-0.0482920125	-2.7995646178	-0.0127586526	-0.190853
O	-0.0156253557	-2.0998290226	 1.2173826001	-0.274045
C	 0.0572916126	-0.7443159718	 1.2740822778	 0.370208
N	 0.1059733199	-0.1101844615	 2.3759101381	-0.524967
H	 0.9528953919	 1.8210543014	 0.5582913193	 0.162945
H	 0.0814590051	 1.855611247	-1.0100187376	 0.138098
H	-0.7935219331	 1.8382497976	 0.5567153508	 0.159893
H	-0.2262581124	-2.1101208847	-3.0632817245	 0.266587
H	-0.1187000816	-3.6431134749	-2.3170676389	 0.267829
H	 0.0896292548	-0.7579575896	 3.166116062	 0.231797
69.16	142.7921	200.2223	266.4946	295.6076	341.185	379.2243	428.3349	497.5171	516.4231	548.7207	568.0723	674.8854	680.6432	780.4283	814.4387	878.2178	911.838	973.2907	1052.3409	1063.3342	1079.4341	1158.2233	1225.1934	1377.7577	1408.2792	1424.5427	1456.9837	1461.611	1600.8267	1643.7569	1686.8276	1716.0825	3052.9881	3110.888	3160.8453	3471.6389	3584.8551	3704.1404
CC1=NC(N)=NOC1=N	CC1=C(ON=C([N]1)N)[NH]	
InChI=1S/C4H6N4O/c1-2-3(5)9-8-4(6)7-2/h5H,1H3,(H2,6,8)	InChI=1S/C4H6N4O/c1-2-3(5)9-8-4(6)7-2/h5H,1H3,(H2,6,8)
