16
gdb 42223	3.51517	1.18648	0.93915	5.7605	77.68	-0.2527	-0.0501	0.2026	1211.3128	0.124717	-396.888308	-396.880361	-396.879417	-396.92135	29.44	
N	 0.0200343617	 1.2489942847	-0.329064826	-0.486368
C	 0.1045448974	 0.042557407	 0.074924369	 0.214265
C	-1.0981225648	-0.7765347574	 0.0365123357	 0.317012
N	-2.0280049176	-1.4614079591	-0.0037348139	-0.32641
N	 1.1861210415	-0.6090418608	 0.6624623403	-0.116966
C	 2.5189236855	-0.5681260599	 0.0557843844	-0.047044
C	 3.5001453241	-1.0954312539	 1.1110957662	-0.243713
C	 2.6756532925	-2.4340233042	 1.1586292444	-0.238638
C	 1.7347508097	-1.8495854133	 0.0987431896	-0.035135
H	 0.9258095056	 1.7168388776	-0.253052321	 0.230035
H	 2.7092256476	 0.0952064532	-0.7796641358	 0.117026
H	 4.5043984063	-1.2422935882	 0.7097751051	 0.119337
H	 3.5548697912	-0.5124607665	 2.0323426486	 0.121916
H	 3.2483171548	-3.2863986327	 0.7890333302	 0.119182
H	 2.2034428902	-2.692582696	 2.1080070115	 0.125572
H	 1.2005992743	-2.3584625706	-0.6943534083	 0.12993
66.0349	114.8569	159.9141	234.5237	289.3202	324.9461	397.782	499.0863	593.9602	695.9184	730.4045	743.3886	789.7805	841.2655	891.8291	892.2503	923.8089	947.5295	952.3082	1002.0514	1033.9315	1087.6575	1116.0176	1167.0022	1213.9085	1220.8416	1247.1185	1250.5283	1294.9145	1345.0202	1401.1477	1466.4786	1486.6249	1675.9193	2359.6178	3076.3913	3082.7877	3129.2122	3144.8708	3188.2924	3202.2308	3463.0114
N=C(C#N)N1C2CCC12	[NH][C](C#N)N1[C@H]2CC[C@@H]12	
InChI=1S/C6H7N3/c7-3-6(8)9-4-1-2-5(4)9/h4-5,8H,1-2H2	InChI=1S/C6H7N3/c7-3-6(8)9-4-1-2-5(4)9/h4-5,8H,1-2H2/t4-,5+,9?
