14
gdb 77065	3.28973	1.05659	0.86729	5.1324	62.4	-0.2844	-0.0229	0.2615	1254.1993	0.099717	-473.849887	-473.841264	-473.84032	-473.88424	29.691	
O	 0.0774575254	 1.386953446	 0.2391377007	-0.415932
C	 0.0915175418	-0.0060652735	 0.0964244074	-0.087417
C	-1.3026147369	-0.668872036	 0.145092845	 0.106333
C	-2.4905238417	 0.2868066576	 0.1981230562	-0.347264
C	-3.7670246314	-0.4075913659	 0.0483337257	 0.262765
N	-4.7742034763	-0.962686433	-0.0574113267	-0.291608
O	-1.0909539291	-1.2138908773	-1.2014013633	-0.24241
C	 0.1125123665	-0.5671888003	-1.3391391692	 0.423511
O	 0.819695452	-0.5138982844	-2.2905846988	-0.313142
H	 0.8866204753	 1.7412355567	-0.1466142938	 0.311836
H	 0.8285238416	-0.4923657198	 0.7491986052	 0.120511
H	-1.4103618867	-1.4870122031	 0.8590769665	 0.12714
H	-2.47649781	 0.8123195773	 1.1595631812	 0.172599
H	-2.3876826505	 1.0483453457	-0.579576656	 0.173078
54.3731	97.9634	123.651	146.6237	227.7726	264.4869	364.9722	386.6732	458.4648	541.2519	560.1797	712.3195	769.3169	846.5547	889.1621	930.9875	968.4095	995.7156	1093.8666	1125.4379	1171.2344	1181.5326	1231.6291	1280.9334	1310.2045	1345.5532	1398.4509	1413.939	1445.7107	1946.0713	2370.2825	3023.6018	3061.3121	3102.1169	3117.2867	3812.7072
OC1C(CC#N)OC1=O	O[C@H]1[C@@H](CC#N)OC1=O	
InChI=1S/C5H5NO3/c6-2-1-3-4(7)5(8)9-3/h3-4,7H,1H2	InChI=1S/C5H5NO3/c6-2-1-3-4(7)5(8)9-3/h3-4,7H,1H2/t3-,4+/m1/s1
