17
gdb 124189	4.75491	0.77494	0.69479	2.0573	82.21	-0.2356	0.0239	0.2595	1612.3213	0.136597	-380.871626	-380.862528	-380.861584	-380.909096	31.555	
C	 0.1882727319	 1.3933472845	-0.6255359115	-0.496325
C	 0.041306037	 0.0231032497	-0.1549240123	 0.054815
C	-0.0803811715	-1.1063870579	 0.2431284727	 0.071076
C	-0.2231620495	-2.4825291817	 0.7125349315	-0.457341
C	-1.5044036223	-3.1466116366	 0.2740511409	 0.351628
N	-2.1305493188	-3.985882561	 1.0961916685	-0.291612
N	-3.190999428	-4.4217887017	 0.3878046584	-0.182838
C	-3.2597218226	-3.8810844873	-0.8522250831	-0.019157
C	-2.1741010753	-3.0412248744	-0.9672511471	-0.266567
H	 0.8919922189	 1.4567577389	-1.4631173706	 0.144265
H	-0.7694270789	 1.8020563233	-0.9667491778	 0.14601
H	 0.561389882	 2.0490774572	 0.1691347872	 0.146732
H	 0.6333454394	-3.0732726331	 0.3567933151	 0.138348
H	-0.1791156544	-2.5220096344	 1.8068329616	 0.14577
H	-3.8302333885	-5.0681415653	 0.8173125605	 0.273954
H	-4.0580267883	-4.12637313	-1.5348800496	 0.131314
H	-1.9020660111	-2.4300454502	-1.8115610144	 0.109927
7.3178	27.098	72.8754	196.0441	225.5518	286.2769	339.8937	378.898	451.3117	498.4807	649.429	682.0516	738.3936	770.9957	786.6181	846.4947	940.979	948.1458	989.8238	1053.434	1054.6812	1067.4944	1106.1874	1165.1765	1190.9916	1221.7047	1293.5807	1330.2258	1407.7942	1415.722	1461.0474	1474.0757	1479.1678	1480.0493	1493.2279	1573.1599	2376.845	3003.2298	3025.2496	3061.0101	3084.474	3085.4063	3257.7641	3281.2127	3679.6575
CC#CCC1=NNC=C1	CC#CCc1n[nH]cc1	
InChI=1S/C7H8N2/c1-2-3-4-7-5-6-8-9-7/h5-6H,4H2,1H3,(H,8,9)	InChI=1S/C7H8N2/c1-2-3-4-7-5-6-8-9-7/h5-6H,4H2,1H3,(H,8,9)
