20
gdb 61838	3.70446	0.78181	0.72233	3.6311	77.	-0.2452	-0.0175	0.2277	1600.3531	0.168113	-440.264654	-440.254282	-440.253338	-440.301278	36.399	
C	 0.2179795808	 1.5412914025	-0.3985617532	-0.396227
C	 0.0867641676	 0.07706657	-0.0565772403	 0.002949
N	 1.3272127761	-0.7113192054	 0.0729704513	-0.343213
C	 0.4634556817	-0.5260239248	 1.2498554745	-0.049564
C	 1.0568204022	 0.2496967402	 2.4079188545	 0.127153
O	 0.0447317678	 0.8147560132	 3.2345122231	-0.43025
C	 2.0229378301	-0.6237205311	 3.2234385443	-0.30547
C	 2.6165392812	 0.1415109397	 4.3847366249	 0.16528
O	 2.6110053242	-0.232994572	 5.5283534225	-0.241523
H	 1.1087023213	 1.9816494843	 0.0541614314	 0.128963
H	 0.300252493	 1.6720330502	-1.4826849546	 0.120287
H	-0.6584658088	 2.0992692867	-0.0535079987	 0.127458
H	-0.7464424242	-0.4176952637	-0.5554559137	 0.084867
H	 1.212733033	-1.6419265579	-0.318025475	 0.23333
H	-0.1352718981	-1.3809454627	 1.5712838839	 0.073633
H	 1.6114483669	 1.1068765124	 2.0143498464	 0.099547
H	-0.4108426826	 0.096357749	 3.6878205673	 0.283445
H	 1.5229998135	-1.5190598116	 3.6118402451	 0.105717
H	 2.8370682603	-0.9463347683	 2.5601502459	 0.138821
H	 3.0828386639	 1.1133568792	 4.1002900004	 0.074798
40.8287	72.12	76.7635	120.2476	167.9398	202.5541	226.4202	277.6091	380.0203	388.4789	403.5457	474.2388	524.1048	595.43	781.5537	788.7347	841.592	910.7895	944.9809	970.0987	1011.0571	1021.7461	1047.7525	1072.0248	1095.8533	1115.2502	1156.8861	1183.7062	1193.9011	1248.0004	1270.6059	1280.73	1301.6936	1356.8197	1401.3685	1410.9628	1429.9313	1433.1628	1457.8067	1470.3108	1491.7313	1504.3223	1837.5644	2864.7099	3023.1651	3040.594	3067.3997	3076.7881	3088.8226	3101.7658	3105.1715	3133.0653	3510.7026	3799.6739
CC1NC1C(O)CC=O	C[C@H]1N[C@H]1[C@@H](O)CC=O	
InChI=1S/C6H11NO2/c1-4-6(7-4)5(9)2-3-8/h3-7,9H,2H2,1H3	InChI=1S/C6H11NO2/c1-4-6(7-4)5(9)2-3-8/h3-7,9H,2H2,1H3/t4-,5+,6-/m1/s1
