18
gdb 64764	3.29126	1.15329	1.07801	5.3399	77.82	-0.2506	-0.0025	0.2481	1181.3994	0.146684	-401.9724	-401.963593	-401.962649	-402.006238	32.495	
C	 0.1059522035	 1.484173706	-0.0843809411	-0.4195
C	-0.0404280998	-0.0378352175	 0.0166515758	 0.324461
C	-1.5401110245	-0.4630718175	 0.005108162	-0.356224
C	-2.260802476	-0.005844046	-1.1799740944	 0.276047
N	-2.8363802887	 0.3648465219	-2.1108929185	-0.315967
O	 0.61150879	-0.6505508283	-1.1015846681	-0.296256
C	 1.595808589	-1.5868845206	-0.668656006	-0.131349
C	 1.5800463227	-1.5011603717	 0.830738293	-0.097815
C	 0.6594171233	-0.6286115976	 1.2195502072	-0.126528
H	 1.1642282863	 1.7548373306	-0.0717422707	 0.126027
H	-0.3376065148	 1.8465344816	-1.0153142496	 0.153927
H	-0.3914130056	 1.9827440227	 0.7542850951	 0.113335
H	-1.5962044844	-1.5546867115	 0.0543648632	 0.151579
H	-2.0445289975	-0.06852832	 0.8946429975	 0.144513
H	 1.3480010542	-2.5954910307	-1.0345897791	 0.112885
H	 2.573519493	-1.3197906611	-1.0966105986	 0.116179
H	 2.240573631	-2.0779544028	 1.4656491305	 0.115517
H	 0.4120085381	-0.3463704373	 2.2351723518	 0.10917
64.6901	87.4146	137.1314	225.8377	239.891	320.9905	362.8215	372.9426	396.6773	467.0061	537.5805	690.2726	740.8509	783.0759	828.5724	864.1832	915.113	925.6847	957.4947	960.7269	976.4223	1046.0042	1057.6362	1113.9563	1135.9567	1172.0602	1195.0536	1203.1012	1269.3349	1320.0676	1360.1521	1380.9497	1406.5838	1453.5128	1486.3094	1492.6371	1521.3143	1692.6416	2361.7713	2982.7865	3005.1179	3041.9535	3048.7972	3095.5705	3116.851	3133.9748	3206.3352	3230.8234
CC1(CC#N)OCC=C1	C[C@@]1(CC#N)OCC=C1	
InChI=1S/C7H9NO/c1-7(4-5-8)3-2-6-9-7/h2-3H,4,6H2,1H3	InChI=1S/C7H9NO/c1-7(4-5-8)3-2-6-9-7/h2-3H,4,6H2,1H3/t7-/m1/s1
