20
gdb 22666	4.41164	0.83373	0.74043	0.9464	85.58	-0.2298	0.0126	0.2425	1561.4844	0.169994	-403.134022	-403.124676	-403.123732	-403.168642	34.775	
C	 0.011008746	 1.5241873795	 0.2494713517	-0.375076
C	-0.06588816	 0.0262331083	-0.0960662732	-0.288591
C	-1.4596755803	-0.5281262541	-0.0698205995	 0.346121
C	-2.1394467827	-1.034976109	-1.1025609345	-0.192232
C	-3.5187362356	-1.5168244181	-0.734746494	-0.341738
C	-3.5782537684	-1.2145484459	 0.7500064949	 0.394587
C	-2.2775360098	-0.5799242499	 1.2074899186	-0.397221
N	-4.5376321522	-1.4304285069	 1.5549833841	-0.219388
O	-5.6290990028	-2.0244230164	 0.8903752656	-0.396286
H	 1.0452197197	 1.8786481306	 0.204859345	 0.115218
H	-0.5825623846	 2.1176956347	-0.4529381811	 0.121408
H	-0.3647694947	 1.7247309881	 1.2576709782	 0.120853
H	 0.36894234	-0.1422797622	-1.0876600259	 0.102685
H	 0.5592928656	-0.5306113963	 0.6166381624	 0.103195
H	-1.7512690836	-1.1073096682	-2.1131636887	 0.087512
H	-4.3255378192	-1.002263188	-1.2743337321	 0.130913
H	-3.6767583188	-2.5870407631	-0.9259697074	 0.13084
H	-1.7851604938	-1.1746574645	 1.9889295833	 0.124615
H	-2.4455533534	 0.4128434378	 1.6438994956	 0.128148
H	-6.2666657112	-2.1293028564	 1.6042577768	 0.304439
56.2047	68.2759	160.6346	191.5703	241.6603	274.8487	307.6904	360.9602	385.3065	459.2755	498.2611	518.1766	642.2715	692.6246	786.0932	828.3411	836.0276	874.1521	925.6306	965.2278	966.5455	995.7244	997.8584	1068.2567	1092.1133	1139.7733	1177.1444	1181.2176	1216.5759	1269.8673	1290.5487	1296.7576	1354.2224	1359.5865	1400.4969	1408.4391	1460.7912	1468.1521	1479.3548	1499.3335	1507.7341	1714.0675	1763.1861	3005.3586	3014.936	3017.471	3033.6638	3037.1017	3042.7028	3060.3484	3109.0553	3110.6338	3184.7642	3821.6303
CCC1=CCC(C1)=NO	CCC1=CCC(=NO)C1	
InChI=1S/C7H11NO/c1-2-6-3-4-7(5-6)8-9/h3,9H,2,4-5H2,1H3	InChI=1S/C7H11NO/c1-2-6-3-4-7(5-6)8-9/h3,9H,2,4-5H2,1H3
