18
gdb 113429	4.84297	0.8214	0.77275	1.8017	73.2	-0.2473	-0.0308	0.2165	1456.1495	0.146167	-439.05669	-439.047871	-439.046926	-439.091128	32.781	
O	 0.0159943534	 1.2930098876	-0.8154223648	-0.418457
C	 0.0453227734	 0.250484133	 0.1424796379	-0.060202
C	-1.3112240841	-0.3991906169	 0.2823400204	-0.115777
N	-1.7144868974	-1.1991519099	-0.9017957785	-0.389475
C	-1.5025735251	-1.8618358505	 0.3832746113	 0.330615
C	-0.4626347788	-2.9791407377	 0.5966885235	-0.411578
C	-1.5043126642	-3.6852742291	 1.4853746308	 0.407141
O	-1.4910642573	-4.6766940619	 2.1519321506	-0.283013
C	-2.5714453362	-2.6034128812	 1.2095547939	-0.436461
H	-0.3082301652	 0.8921593263	-1.6309058254	 0.29088
H	 0.7916942399	-0.5145579267	-0.1204306768	 0.091083
H	 0.3521305957	 0.7067930162	 1.0896697115	 0.11017
H	-2.076858498	 0.2296333216	 0.7347414624	 0.09422
H	-2.7097993598	-1.0896015469	-1.0814450726	 0.234956
H	-0.2094718631	-3.5372754895	-0.3102901923	 0.144108
H	 0.4637033921	-2.7092220315	 1.1121320396	 0.137617
H	-2.9546235847	-2.0960026622	 2.1000552419	 0.1383
H	-3.4208755207	-2.9840787708	 0.6306329664	 0.135874
39.2453	76.4364	135.9123	200.6864	293.427	338.8375	404.5431	423.1705	440.2989	476.6026	506.6559	590.7091	660.599	721.5711	821.2772	853.3997	914.9066	952.4012	984.0751	992.4188	1013.2932	1066.3765	1072.7546	1091.2011	1102.0285	1178.2546	1186.7978	1190.6812	1216.1264	1262.5383	1281.1242	1337.8324	1381.2588	1420.1853	1425.3175	1437.5504	1487.613	1497.9379	1902.6702	2991.1231	3043.6899	3057.6349	3074.0076	3099.6648	3109.9919	3121.8831	3494.1751	3789.2082
OCC1NC11CC(=O)C1	OC[C@H]1NC21CC(=O)C2	
InChI=1S/C6H9NO2/c8-3-5-6(7-5)1-4(9)2-6/h5,7-8H,1-3H2	InChI=1S/C6H9NO2/c8-3-5-6(7-5)1-4(9)2-6/h5,7-8H,1-3H2/t5-/m1/s1
