15
gdb 66034	2.67318	1.263	1.14311	1.8963	70.08	-0.3005	-0.0247	0.2758	1107.5096	0.111496	-416.81164	-416.80292	-416.801976	-416.845705	30.769	
C	-0.2624833884	 1.5951987241	 0.0463974671	-0.43433
C	-0.0062201179	 0.0966580814	 0.0450225466	 0.247586
O	 1.1335912153	-0.2655743002	-0.7620046991	-0.288112
C	 1.8245214885	-0.882022973	 0.341869391	-0.080806
C	 0.6657759437	-0.5494741234	 1.3194303073	-0.26894
C	 0.9694834864	 0.3417337966	 2.4222655359	 0.296779
N	 1.2225294528	 1.0579373631	 3.2934648206	-0.317587
C	-1.2047587412	-0.6472945954	-0.378411117	 0.273172
N	-2.1460849559	-1.2373537678	-0.6955736199	-0.323961
H	 0.6270247714	 2.124275197	 0.3941893997	 0.151716
H	-0.4968721936	 1.9206011866	-0.9701611151	 0.155137
H	-1.1037506751	 1.8438290329	 0.6991594048	 0.15321
H	 1.9873215622	-1.9520666748	 0.18302732	 0.136936
H	 2.7747493613	-0.3866489012	 0.5584981986	 0.139637
H	 0.1302250506	-1.4246642359	 1.6886865295	 0.159561
41.3585	134.0957	148.0803	190.6437	222.6663	240.2291	329.5016	379.4406	489.408	507.8073	564.1162	587.3614	649.0465	786.9519	887.9978	900.0391	921.7386	1020.4184	1060.7891	1072.8469	1127.8468	1159.4964	1170.0774	1189.4553	1243.5431	1340.8089	1356.2389	1411.0116	1474.8387	1484.1076	1524.2958	2355.5496	2361.0267	3052.3017	3054.4812	3104.8272	3117.2508	3134.6814	3144.7661
CC1(OCC1C#N)C#N	C[C@]1(OC[C@H]1C#N)C#N	
InChI=1S/C6H6N2O/c1-6(4-8)5(2-7)3-9-6/h5H,3H2,1H3	InChI=1S/C6H6N2O/c1-6(4-8)5(2-7)3-9-6/h5H,3H2,1H3/t5-,6+/m1/s1
