17
gdb 65056	2.38291	1.58653	1.16786	5.3548	72.25	-0.2779	0.0127	0.2906	1079.9025	0.134738	-417.966318	-417.957631	-417.956687	-417.99992	32.313	
C	 0.5822980188	 0.5313079035	 1.2235463508	-0.486249
C	-0.0213717653	 0.0196597218	-0.0650976842	 0.352741
C	 0.4114648687	 0.5937462076	-1.3471124299	-0.251519
O	 0.8831071949	-0.6887263801	-0.9274330549	-0.263519
C	-1.4021037196	-0.6113074877	 0.0565006943	 0.130003
C	-2.5754047957	 0.04226234	-0.6170972337	-0.259074
N	-2.0446547418	-1.219752076	-1.1150862998	-0.328227
C	-1.6357032394	-1.3322568694	 1.2948494243	 0.257712
N	-1.8178610345	-1.8767696943	 2.2978712621	-0.345164
H	 1.5619751397	 0.9720197163	 1.028041891	 0.132344
H	-0.0622318019	 1.2905937598	 1.6783272112	 0.13368
H	 0.7037096542	-0.2815019839	 1.9444068638	 0.161966
H	-0.2392606412	 0.5929880253	-2.221239408	 0.109103
H	 1.1480291301	 1.3958505331	-1.3387910463	 0.127045
H	-3.5574017657	-0.0235739006	-0.1588816415	 0.147008
H	-2.3700281805	 0.9674168183	-1.14847409	 0.127003
H	-1.441199231	-1.1126113939	-1.9265784793	 0.255146
43.1155	152.1306	187.5047	214.343	266.1189	280.4557	340.4872	381.8885	443.5801	480.8201	556.669	587.2028	619.9328	793.4376	848.2136	865.647	901.3781	926.8813	944.9381	978.6442	1033.0695	1062.8518	1108.3226	1133.2883	1136.3424	1175.7475	1196.9985	1243.0158	1301.0265	1347.6022	1396.5647	1421.2115	1482.1005	1496.0604	1508.8498	1540.1703	2359.3475	3047.7006	3080.8035	3115.3244	3118.4023	3137.016	3161.5691	3208.4315	3517.8308
CC1(CO1)C1(CN1)C#N	C[C@]1(CO1)[C@]1(CN1)C#N	
InChI=1S/C6H8N2O/c1-5(4-9-5)6(2-7)3-8-6/h8H,3-4H2,1H3	InChI=1S/C6H8N2O/c1-5(4-9-5)6(2-7)3-8-6/h8H,3-4H2,1H3/t5-,6+/m0/s1
