13
gdb 132122	3.10237	1.47271	1.00176	4.3955	67.33	-0.2179	-0.0652	0.1527	1073.0531	0.089385	-494.044835	-494.037189	-494.036245	-494.077374	28.062	
N	 0.0534050414	 1.466371539	 0.1186395968	-0.603764
C	 0.0099308608	 0.0552876106	 0.0401054119	-0.033944
C	-1.1139058785	-0.6952417042	 0.050913781	 0.378315
F	-2.324380933	-0.1828226854	 0.0893946791	-0.040028
O	-1.1414523518	-2.0133663023	 0.0758242882	-0.206416
C	 0.0731350878	-2.7441165431	-0.0103591991	 0.436176
N	-0.0785126891	-3.9948065688	-0.0876399777	-0.519817
N	 1.2559636595	-2.0272526466	 0.0151783002	-0.311946
C	 1.2096716558	-0.7338662354	 0.0490350341	 0.019668
H	 0.4648860618	 1.88482896	-0.7092341254	 0.253654
H	-0.8710287589	 1.8600940886	 0.2456003959	 0.252993
H	 0.8430956332	-4.426088626	-0.1255571049	 0.240535
H	 2.160274411	-0.2008324363	 0.0869401498	 0.134573
70.0352	163.1033	192.2299	274.3021	308.0162	361.5161	440.6722	488.6852	533.0893	590.26	672.7418	732.3733	752.3308	801.1423	820.3232	851.3551	923.7748	979.2074	998.7996	1130.8562	1208.4658	1276.6616	1328.2706	1399.3887	1436.398	1582.1361	1655.9076	1728.5794	1758.5005	3132.6681	3510.8056	3527.9295	3604.7576
NC1=C(F)OC(=N)N=C1	NC1=CN=C(O[C@H]1F)[NH]	
InChI=1S/C4H4FN3O/c5-3-2(6)1-8-4(7)9-3/h1,7H,6H2	InChI=1S/C4H5FN3O/c5-3-2(6)1-8-4(7)9-3/h1,3,7H,6H2/t3-/m1/s1
