18
gdb 92007	2.37282	1.60642	1.06429	3.4485	72.75	-0.2231	-0.0274	0.1956	1126.1499	0.146491	-439.063954	-439.055471	-439.054527	-439.097772	30.921	
C	-0.2958369736	 1.4806667464	-0.1114834882	-0.326037
N	-0.1844007655	 0.0428952803	 0.0195246588	-0.076351
C	-1.4533799003	-0.6843377786	 0.0796274165	-0.188655
C	-1.0904241459	-2.0027586178	 0.7227547204	 0.035896
O	 0.0573738288	-2.637360672	 0.1508091527	-0.245596
C	 0.2318287294	-1.8543530279	 1.3371640574	 0.0059
C	 0.7127157042	-0.4331431538	 1.0698007533	-0.083934
C	 2.1567185828	-0.4081215155	 0.5794036853	 0.162665
O	 3.0897796234	-0.0258677275	 1.2359888306	-0.24885
H	 0.6978881517	 1.9258098689	-0.2222015898	 0.132201
H	-0.8728779333	 1.726028808	-1.0088462595	 0.125948
H	-0.7891188184	 1.9618162278	 0.7540245091	 0.098178
H	-2.2090800231	-0.1847970448	 0.7149304826	 0.089369
H	-1.8812334166	-0.7927794856	-0.9243820724	 0.118837
H	-1.8598528565	-2.664480087	 1.1092024428	 0.107344
H	 0.5674745775	-2.3850108132	 2.2225117661	 0.115941
H	 0.6587812368	 0.1370588199	 2.0139393736	 0.077673
H	 2.2686689886	-0.7870620676	-0.4585618794	 0.09947
47.7783	96.8801	170.5602	218.7768	239.3116	302.2301	366.015	386.3252	459.7079	480.6015	662.4638	696.3485	831.5234	864.9647	897.6845	916.0538	960.0926	1009.1662	1028.0447	1066.2942	1084.8758	1098.4824	1115.267	1151.7795	1202.6256	1225.3732	1249.9214	1258.4209	1291.0036	1304.238	1330.3971	1379.4221	1396.756	1433.5861	1466.2078	1487.5523	1504.7436	1512.264	1831.4284	2916.7642	2927.4256	2932.6338	2954.9172	3044.5592	3061.111	3104.7999	3160.5627	3174.1978
CN1CC2OC2C1C=O	CN1C[C@H]2O[C@H]2[C@H]1C=O	
InChI=1S/C6H9NO2/c1-7-2-5-6(9-5)4(7)3-8/h3-6H,2H2,1H3	InChI=1S/C6H9NO2/c1-7-2-5-6(9-5)4(7)3-8/h3-6H,2H2,1H3/t4-,5-,6+/m1/s1
