14
gdb 45401	2.2755	1.80361	1.28152	4.3314	69.87	-0.244	-0.0147	0.2293	986.9264	0.099978	-436.634196	-436.626514	-436.625569	-436.666419	28.883	
O	-0.047291733	 0.0221144439	 0.0816789812	-0.335185
C	-0.0427492283	 1.2141385491	-0.0003100151	 0.379751
N	-1.0443166264	 2.1703810569	 0.017247718	-0.331357
C	-0.1706496769	 3.3373873683	 0.004011673	-0.09129
C	 0.4351700606	 3.7288879478	 1.3638821603	-0.097642
O	 1.4659617058	 2.720188738	 1.2522924572	-0.312988
C	 1.0437524892	 2.3495031481	-0.0883279072	 0.134682
C	 2.0742772027	 2.3153322277	-1.0810186089	 0.246962
C	 2.9242859097	 2.2647868707	-1.9293115452	-0.404355
H	-1.9916641517	 2.0814818959	 0.3589852637	 0.255834
H	-0.4069621457	 4.104110697	-0.7310863012	 0.116116
H	 0.8728804575	 4.7336967399	 1.3800744546	 0.12043
H	-0.2030356321	 3.5838310164	 2.2416268817	 0.113229
H	 3.6804780087	 2.2154746302	-2.6739914721	 0.205813
118.2049	129.2486	169.7741	241.4606	355.7299	378.687	470.3402	517.6417	539.9547	624.1637	657.651	679.5202	685.8455	742.6908	855.1985	883.72	949.919	986.5179	999.7002	1050.6902	1087.9651	1094.4676	1161.9371	1196.4819	1271.0224	1331.7371	1341.1958	1362.6063	1507.5307	1908.6841	2239.0756	3031.0492	3086.2436	3137.8308	3498.4179	3592.2511
O=C1NC2COC12C#C	O=C1N[C@H]2CO[C@@]12C#C	
InChI=1S/C6H5NO2/c1-2-6-4(3-9-6)7-5(6)8/h1,4H,3H2,(H,7,8)	InChI=1S/C6H5NO2/c1-2-6-4(3-9-6)7-5(6)8/h1,4H,3H2,(H,7,8)/t4-,6+/m0/s1
