21
gdb 104505	1.88543	1.27689	1.00226	1.7182	84.25	-0.2533	0.0525	0.3059	1326.9497	0.179422	-387.041856	-387.031482	-387.030538	-387.077309	38.659	
C	-0.7965569364	 1.4227428954	 0.6765178059	-0.384488
C	-0.0388979839	 0.2203607272	 0.1006682961	-0.250664
C	 0.8850096579	-0.461844792	 1.0983415551	 0.340649
C	 2.1070343675	 0.3470417193	 1.5417695466	-0.43617
C	 2.998710328	 0.7066232339	 0.4425575979	 0.322283
C	 3.7240946225	 0.9969107652	-0.4710191217	-0.454077
C	 0.2633459816	-1.3683537941	 2.1489831247	-0.384113
C	 1.0709234602	-1.9520065777	 1.0124846212	 0.063148
O	 0.4236882248	-2.6319236396	-0.0232955762	-0.421613
H	-0.1177712932	 2.2204240123	 0.9959185743	 0.116035
H	-1.468890673	 1.8503114384	-0.0737280099	 0.112482
H	-1.4015796398	 1.1340296712	 1.5429505575	 0.111887
H	-0.7479237565	-0.5215262243	-0.2755204082	 0.111221
H	 0.556688596	 0.5398999785	-0.7627332338	 0.112771
H	 1.7770263056	 1.2589790073	 2.056195159	 0.131235
H	 2.6702930847	-0.2266356462	 2.2884649146	 0.122538
H	 4.3687697678	 1.2529948459	-1.2747703958	 0.194799
H	 0.6757499864	-1.3856677908	 3.1530517261	 0.105304
H	-0.8123197476	-1.5045501773	 2.0985525534	 0.112239
H	 2.0647049124	-2.3349859526	 1.2480483698	 0.08656
H	 0.098125765	-3.4667001401	 0.3285742832	 0.287974
45.0017	89.298	127.7958	184.4823	224.3309	244.9761	269.9469	283.7518	346.2331	350.3448	381.3895	460.8424	537.3201	564.4896	618.1335	636.7051	711.6954	784.0176	817.1518	875.0293	907.0269	951.7954	982.9445	991.8834	1022.4209	1041.4733	1063.0391	1099.3704	1118.428	1177.6386	1214.907	1253.8266	1279.2968	1319.2297	1329.8486	1350.0322	1388.2042	1410.5131	1428.1699	1468.1105	1486.3744	1493.9015	1501.8319	1509.0147	2236.4451	3018.7644	3032.5909	3043.2726	3047.9927	3087.0375	3089.4105	3102.4788	3109.3012	3121.9019	3209.6384	3506.6055	3809.6047
CCC1(CC#C)CC1O	CC[C@@]1(CC#C)C[C@H]1O	
InChI=1S/C8H12O/c1-3-5-8(4-2)6-7(8)9/h1,7,9H,4-6H2,2H3	InChI=1S/C8H12O/c1-3-5-8(4-2)6-7(8)9/h1,7,9H,4-6H2,2H3/t7-,8-/m1/s1
