19
gdb 78851	3.28092	1.571	1.3607	1.3493	77.22	-0.2172	0.0798	0.2969	1005.2781	0.159835	-385.84317	-385.835751	-385.834807	-385.874468	30.815	
C	 0.0954000603	 1.5632099428	 0.0248613578	-0.391662
C	-0.004533339	 0.0363980403	-0.0167269588	 0.001276
C	 0.8278664719	-0.6039386045	-1.1196127326	-0.07194
C	 2.2428335592	-0.8793362569	-0.6343743413	-0.072959
C	 1.2444058587	-2.013069414	-0.7542866631	-0.189145
C	 1.1325194026	-2.0479718067	 0.8019801364	 0.387794
O	 1.0407332053	-3.1772359335	 1.5850931536	-0.467502
C	 2.1270036094	-0.9254647943	 0.9088947943	-0.145746
C	 0.6363760639	-0.6652461351	 1.1698852387	-0.161402
H	 1.1386557348	 1.8787298497	 0.1291031397	 0.119457
H	-0.3036980188	 2.0116448275	-0.8913669304	 0.10809
H	-0.4679140386	 1.9751029644	 0.8688706554	 0.108617
H	-1.0582807013	-0.2599410721	-0.1131165553	 0.065213
H	 0.6663689937	-0.3498958995	-2.1618196296	 0.080683
H	 3.1384257245	-0.693023896	-1.210514607	 0.084692
H	 1.2439277475	-2.8643443435	-1.4214024894	 0.087968
H	 0.112324153	-3.4313860333	 1.6429854412	 0.283224
H	 2.9082021048	-0.7488125027	 1.6343904183	 0.090652
H	 0.3230781382	-0.4856600327	 2.1922346222	 0.082686
161.4269	223.7257	237.5759	264.7048	323.0415	371.9399	499.0438	571.34	618.2278	693.339	706.0292	741.5768	771.0177	837.329	850.9346	880.6158	902.6549	912.1335	933.8918	956.0792	979.7806	989.5591	1020.2505	1036.3364	1048.3241	1083.3549	1117.7511	1122.3721	1138.3287	1201.5944	1225.1651	1257.8423	1271.0028	1296.4016	1310.7817	1345.8728	1383.2142	1406.4228	1469.122	1496.8244	1497.4615	3010.5518	3029.076	3094.3367	3103.8343	3172.6967	3183.8494	3201.1799	3211.7525	3219.8456	3777.9905
CC1C2C3C2C2(O)C3C12	C[C@H]1[C@H]2[C@@H]3[C@H]2[C@@]2(O)[C@@H]3[C@@H]12	
InChI=1S/C8H10O/c1-2-3-4-6(3)8(9)5(2)7(4)8/h2-7,9H,1H3	InChI=1S/C8H10O/c1-2-3-4-6(3)8(9)5(2)7(4)8/h2-7,9H,1H3/t2-,3-,4+,5+,6-,7-,8+/m0/s1
