18
gdb 105554	1.94649	1.52724	1.27856	2.224	78.76	-0.2653	0.015	0.2802	1125.2558	0.145926	-401.914611	-401.905367	-401.904423	-401.948534	34.177	
C	 0.0031127416	 1.6166209296	 0.0945700175	-0.392991
C	-0.0196498111	 0.0942867859	-0.0539168378	-0.238711
C	-1.4425833745	-0.5076463017	-0.0234060695	-0.024527
C	-1.4892295692	-2.0548476146	 0.1650854288	-0.122508
O	-2.0497623535	-1.8869044016	 1.5009781097	-0.254166
C	-2.0758585701	-0.5173031528	 1.3755029051	 0.42511
N	-2.4626707538	 0.373653522	 2.1646480418	-0.541935
C	-2.2916898967	 0.0029002796	-1.0856708901	 0.305932
C	-2.9827700832	 0.4056866404	-1.982611483	-0.455761
H	 1.0340367507	 1.9825649091	 0.0979091543	 0.111629
H	-0.5267180342	 2.0971268681	-0.7326391077	 0.131272
H	-0.4782218385	 1.9221467033	 1.0271113269	 0.153302
H	 0.4513307103	-0.2056924041	-0.997417102	 0.10898
H	 0.5574308995	-0.3707785088	 0.7543705752	 0.106544
H	-2.1804112604	-2.5889995153	-0.4885450788	 0.132487
H	-0.5180552781	-2.5539012338	 0.2048055098	 0.122188
H	-2.8153483111	-0.0234730991	 3.0372083298	 0.23178
H	-3.6023435977	 0.772465724	-2.76347737	 0.201376
102.7236	111.6749	125.9339	165.7926	192.2794	267.561	290.0695	368.5985	401.266	515.3283	550.2521	634.855	637.1076	646.0275	696.4873	766.334	797.9274	860.1619	907.1878	944.5555	977.2395	1009.2148	1016.5359	1053.268	1126.1624	1154.7732	1177.9959	1227.2252	1235.3474	1313.5601	1359.5427	1367.6824	1416.4223	1484.1482	1496.8454	1511.641	1512.6473	1820.8066	2237.7907	3027.6064	3047.2231	3067.3384	3068.4971	3117.0775	3131.088	3136.8109	3476.5062	3500.822
CCC1(COC1=N)C#C	CC[C@]1(CO[C]1[NH])C#C	
InChI=1S/C7H9NO/c1-3-7(4-2)5-9-6(7)8/h1,8H,4-5H2,2H3	InChI=1S/C7H9NO/c1-3-7(4-2)5-9-6(7)8/h1,8H,4-5H2,2H3/t7-/m0/s1
