19
gdb 39978	3.5817	1.56205	1.39717	2.2322	77.64	-0.2327	0.0734	0.3061	979.0925	0.162784	-382.010185	-382.003411	-382.002467	-382.041174	28.202	
C	 0.0257930787	 1.5164445268	-0.0151423849	-0.308391
N	 1.2521250004	 0.6969227988	 0.0598919275	-0.362023
C	-0.0609195727	 0.0396685221	 0.0142041017	 0.394888
C	-0.469827014	-0.8088930677	 1.2218062462	-0.326882
C	-0.6958330944	-2.1784763824	 0.5921852773	-0.02196
C	-1.6927141988	-2.3505716452	-0.4961641116	-0.035034
C	-2.0227065163	-1.0378704082	-1.1910745335	-0.256978
C	-0.491645255	-0.7728615677	-1.1831209868	-0.089119
N	-0.2149777599	-2.2339374479	-0.813802002	-0.151787
H	-0.1925371141	 2.0939495105	 0.8794300019	 0.118723
H	-0.2073547068	 2.0278594255	-0.9467149284	 0.109287
H	 1.702412483	 0.6565116053	-0.8519824396	 0.230674
H	 0.3386617275	-0.8332937286	 1.9560235231	 0.125857
H	-1.3683392595	-0.4264655065	 1.7177640981	 0.10749
H	-0.452584678	-3.0652716116	 1.1685700975	 0.094159
H	-2.2272526011	-3.2856941794	-0.6352528566	 0.089639
H	-2.3964328804	-1.2055708101	-2.2032727817	 0.112387
H	-2.6751942937	-0.3201077292	-0.6827359266	 0.099738
H	-0.0366473148	-0.4729352445	-2.1284049517	 0.069332
105.2514	245.7864	305.3844	350.5768	400.6628	456.3716	530.5522	704.0062	742.2692	763.7078	784.0287	798.7765	841.3438	888.7065	911.9167	929.211	961.8256	968.1653	977.9241	999.4639	1010.7529	1046.5352	1071.6311	1087.9024	1097.1974	1138.0726	1142.745	1181.0272	1200.8104	1226.9869	1263.9015	1266.6855	1278.2603	1286.7401	1322.5196	1348.7833	1397.1675	1424.9507	1484.9226	1499.4733	1515.4224	3043.805	3049.1042	3096.5719	3098.9075	3105.7975	3111.8639	3150.5288	3168.3767	3181.68	3489.0787
C1NC11CC2C3CC1N23	C1N[C@]21C[C@H]1[C@H]3C[C@@H]2N13	
InChI=1S/C7H10N2/c1-4-5-2-7(3-8-7)6(1)9(4)5/h4-6,8H,1-3H2	InChI=1S/C7H10N2/c1-4-5-2-7(3-8-7)6(1)9(4)5/h4-6,8H,1-3H2/t4-,5+,6+,7+,9?/m1/s1
