24
gdb 10859	3.26176	1.48523	1.27615	0.1274	84.49	-0.2846	0.0778	0.3624	1114.3283	0.22551	-314.307247	-314.298665	-314.29772	-314.339568	34.196	
C	-0.1536655612	 1.5880051811	 0.0120495901	-0.404366
C	-0.0306416905	 0.0618062359	 0.0026741783	 0.062367
C	 0.6727046775	-0.4466213165	-1.2670633859	-0.182176
C	 0.8068533295	-1.9772078021	-1.2785779574	-0.212382
C	 1.5176786659	-2.5310187659	-0.0260403669	 0.046034
C	 3.0300100152	-2.2586699148	-0.0390156948	-0.389476
C	 0.8309516066	-1.9907718703	 1.245717721	-0.212382
C	 0.696767327	-0.4601639663	 1.2532149155	-0.182176
H	 0.8358145925	 2.0611393012	 0.0051480793	 0.109492
H	-0.6993095842	 1.9502515742	-0.8661107293	 0.106911
H	-0.6824123339	 1.940738297	 0.9043059827	 0.106911
H	-1.0469605649	-0.3626085654	 0.0100974997	 0.063494
H	 0.1211663337	-0.1170033569	-2.1561811294	 0.085168
H	 1.6648115047	 0.0209058165	-1.3360818306	 0.090714
H	-0.1990991106	-2.4155533471	-1.3334823754	 0.0868
H	 1.3343916426	-2.3036160311	-2.1831218234	 0.084185
H	 1.3923391196	-3.6219248012	-0.0307053149	 0.061901
H	 3.2636582775	-1.1896446835	-0.0355100438	 0.115506
H	 3.5130407853	-2.7016242263	 0.8386874594	 0.108304
H	 3.4961510188	-2.6921311141	-0.9304830399	 0.108304
H	-0.1738150913	-2.4297839461	 1.3151016895	 0.0868
H	 1.3756275458	-2.3268294218	 2.1364657312	 0.084185
H	 1.6900600145	 0.006694522	 1.308297501	 0.090714
H	 0.16234024	-0.1401744087	 2.1561917442	 0.085168
108.9069	197.3471	218.3218	239.9455	244.4496	302.2489	361.5063	371.4224	423.6878	461.4601	465.7731	636.1683	757.8968	788.4837	789.0913	864.6028	933.7759	940.7709	960.2843	965.4317	983.0503	1012.0698	1013.7383	1063.5503	1103.2368	1110.9568	1120.781	1186.3647	1189.6656	1227.6078	1274.075	1287.8555	1332.3418	1334.0231	1345.6352	1369.231	1377.2097	1379.6818	1384.8979	1401.7928	1413.6822	1417.5689	1477.013	1482.7585	1484.8358	1497.7084	1500.736	1502.2463	1504.7285	1508.2385	2978.1513	3000.1835	3007.394	3009.6074	3012.8863	3019.9662	3022.8269	3032.5186	3046.7438	3049.6818	3052.4406	3057.0013	3087.2432	3093.1322	3093.8201	3104.7767
CC1CCC(C)CC1	C[C@H]1CC[C@@H](C)CC1	
InChI=1S/C8H16/c1-7-3-5-8(2)6-4-7/h7-8H,3-6H2,1-2H3	InChI=1S/C8H16/c1-7-3-5-8(2)6-4-7/h7-8H,3-6H2,1-2H3/t7-,8+
