17
gdb 24608	4.72212	1.07589	0.96024	2.8902	74.16	-0.2188	0.0324	0.2511	1222.0731	0.138702	-418.023479	-418.01588	-418.014936	-418.056739	28.031	
C	-0.2478987691	 0.9740018652	 0.3355253502	-0.062024
C	 0.9587759472	 1.1927902573	-0.595402776	-0.280046
C	 1.7569349993	 0.4421643517	 0.5067506844	 0.039145
O	 0.5386818107	 0.1722587977	 1.2436480041	-0.291173
C	 2.4786841528	-0.8075282888	 0.1438641324	 0.267967
C	 2.0264120294	-2.0964823599	 0.2559698778	-0.179104
N	 3.0565017056	-2.8815090481	-0.2157177621	-0.234278
C	 4.0662605257	-2.0450466735	-0.5867152057	 0.007879
N	 3.7537727612	-0.7868392127	-0.3811416003	-0.317788
H	-0.6289995167	 1.8808516412	 0.8226064034	 0.099689
H	-1.0944893991	 0.4123745892	-0.0760942126	 0.101679
H	 0.9092773048	 0.6538353349	-1.542154097	 0.113397
H	 1.2532481434	 2.2267310558	-0.7778317113	 0.111331
H	 2.4266328209	 1.1062274647	 1.069827233	 0.086809
H	 1.1062408666	-2.5067740581	 0.6327719084	 0.141376
H	 3.0653440867	-3.8864778094	-0.2589704766	 0.266594
H	 4.9976822005	-2.4097866271	-0.993750442	 0.128546
46.0106	86.5054	144.4961	205.311	372.1833	430.9249	523.9598	649.7107	664.57	718.2963	757.6592	789.4287	822.1459	842.5268	919.4904	946.4093	956.2157	992.8163	1031.0706	1045.2606	1090.9784	1097.0424	1135.2767	1167.9763	1212.3594	1229.68	1249.9033	1255.7383	1274.3632	1348.5881	1357.2304	1390.1102	1456.3827	1488.4922	1524.3078	1533.6797	1600.7119	3008.1126	3015.6716	3055.572	3087.098	3145.0153	3249.9744	3295.7514	3668.3095
C1CC(O1)C1=CNC=N1	C1C[C@@H](O1)c1c[nH]cn1	
InChI=1S/C6H8N2O/c1-2-9-6(1)5-3-7-4-8-5/h3-4,6H,1-2H2,(H,7,8)	InChI=1S/C6H8N2O/c1-2-9-6(1)5-3-7-4-8-5/h3-4,6H,1-2H2,(H,7,8)/t6-/m1/s1
