25
gdb 117830	2.00105	1.00919	0.88096	2.0572	84.98	-0.2456	0.0745	0.3202	1533.4122	0.225484	-426.617903	-426.605968	-426.605024	-426.655195	42.964	
C	-0.0232597133	 1.5822697073	 0.0910552974	-0.393496
C	-0.0836386885	 0.0562661115	-0.0230231776	-0.199208
C	 0.6630454295	-0.5476555535	-1.237607175	 0.347636
C	 0.5719155092	-2.0825068262	-1.1726321597	-0.437586
C	 0.0749522109	-0.0155910936	-2.5586508943	-0.213906
C	 0.7017476851	-0.5912780029	-3.8326653172	-0.075268
O	 0.1839844845	 0.0276769297	-5.0034779779	-0.422253
O	 2.0301801278	-0.0993940981	-1.2702438753	-0.277564
C	 2.8987059711	-0.5486370251	-0.2546994345	-0.244849
H	 1.0100781515	 1.9361889643	 0.0384715669	 0.127699
H	-0.5852289405	 2.0756533365	-0.7072447168	 0.118235
H	-0.4501419131	 1.9131051432	 1.042738221	 0.108514
H	 0.3255762668	-0.3904036747	 0.8912447695	 0.09213
H	-1.1275824625	-0.2769291378	-0.0693114137	 0.095899
H	-0.4560740002	-2.4052138073	-1.3638748108	 0.119348
H	 1.220578507	-2.5517496887	-1.9171385326	 0.126114
H	 0.855620809	-2.4625378452	-0.186865201	 0.112919
H	-1.0057107264	-0.1962702755	-2.5761910488	 0.097344
H	 0.2198832358	 1.0709618431	-2.5770204297	 0.09184
H	 1.7947485381	-0.5023468974	-3.7761808416	 0.103361
H	 0.4614953278	-1.6530958767	-3.9425168261	 0.105903
H	 0.4422204096	 0.9546073328	-4.979248071	 0.278421
H	 2.564180323	-0.2622280604	 0.7524103221	 0.105735
H	 3.045400847	-1.6372257054	-0.2734527096	 0.107593
H	 3.863917381	-0.0701999698	-0.4416847739	 0.125438
64.2714	85.4379	94.083	100.9771	146.1804	192.9311	219.4271	259.3141	280.7316	292.1071	307.131	345.2961	357.8034	382.9811	414.2163	529.7144	566.4826	727.983	776.6465	782.2292	877.5378	922.2785	969.8902	1002.4411	1023.8034	1063.3677	1076.5579	1080.686	1118.5642	1127.9384	1177.6322	1184.6487	1203.407	1221.2394	1254.597	1313.0689	1321.4391	1339.1881	1372.2903	1395.7844	1405.6753	1409.7829	1422.9981	1470.1736	1471.9737	1478.7547	1492.1881	1497.3235	1499.4293	1509.7299	1509.9761	1514.4664	1519.9515	2991.8908	3018.901	3026.9071	3033.3255	3041.5495	3044.3641	3045.0592	3057.8935	3070.4636	3093.4542	3104.4677	3108.3638	3110.0933	3119.7717	3120.5546	3814.3685
CCC(C)(CCO)OC	CC[C@@](C)(CCO)OC	
InChI=1S/C7H16O2/c1-4-7(2,9-3)5-6-8/h8H,4-6H2,1-3H3	InChI=1S/C7H16O2/c1-4-7(2,9-3)5-6-8/h8H,4-6H2,1-3H3/t7-/m0/s1
