20
gdb 102020	2.49108	0.96194	0.83954	3.8979	77.99	-0.244	-0.0222	0.2218	1491.3158	0.167983	-440.300558	-440.28984	-440.288896	-440.338358	36.695	
C	-0.2384563409	 1.5373224667	-0.3510104027	-0.392163
C	-0.1102395871	 0.0155115761	-0.2570234817	-0.188101
C	 0.8816555646	-0.5844709308	-1.2921262323	-0.135649
C	 2.2946259856	-0.1184187121	-0.9576794318	 0.160621
O	 2.8621940617	 0.771700926	-1.5358109451	-0.257536
C	 0.8169993388	-2.0956889507	-1.2691151958	 0.375994
N	 1.2319181312	-2.7506646661	-0.2651184879	-0.524605
O	 0.2755334926	-2.5647793711	-2.4231925653	-0.230603
C	 0.137107401	-3.9733002832	-2.5582185439	-0.269287
H	 0.7218396102	 2.0374364905	-0.1959063161	 0.136457
H	-0.611996932	 1.8424949071	-1.3341171914	 0.1218
H	-0.9382786288	 1.9084594557	 0.4037216223	 0.116304
H	 0.2109423624	-0.2894996804	 0.7448824561	 0.125847
H	-1.0882945419	-0.4511267843	-0.4206705999	 0.109043
H	 0.6321474795	-0.2243289329	-2.2928485447	 0.108381
H	 2.75484766	-0.6582487846	-0.1039821184	 0.108388
H	 1.1347899688	-3.7588855272	-0.3659702562	 0.220201
H	 1.111176717	-4.475090353	-2.5173987495	 0.135083
H	-0.5158322663	-4.3866753412	-1.7802118515	 0.133234
H	-0.3147988766	-4.1395034746	-3.5363552142	 0.14659
15.7279	61.5774	88.8622	118.6274	174.8058	203.1473	218.4175	246.3961	283.0359	337.8799	345.7778	446.3491	472.5794	681.7435	699.8224	775.1881	859.1258	879.7741	909.4527	962.9431	1010.3225	1023.1061	1078.1832	1108.6558	1120.6402	1159.2068	1174.7268	1217.8854	1237.4709	1260.647	1331.2195	1350.0365	1377.9685	1410.7394	1418.8267	1472.9297	1489.4575	1492.426	1496.5247	1504.8117	1505.5369	1722.5607	1828.7522	2925.214	3017.9955	3038.6053	3039.8477	3074.2611	3082.3777	3096.8399	3108.7913	3117.4602	3148.3459	3512.5906
CCC(C=O)C(=N)OC	CC[C@@H](C=O)[C]([NH])OC	
InChI=1S/C6H11NO2/c1-3-5(4-8)6(7)9-2/h4-5,7H,3H2,1-2H3	InChI=1S/C6H11NO2/c1-3-5(4-8)6(7)9-2/h4-5,7H,3H2,1-2H3/t5-/m0/s1
