20
gdb 17687	4.53788	1.51053	1.46654	0.1863	79.2	-0.2645	0.095	0.3595	963.1408	0.178917	-311.808153	-311.801103	-311.800159	-311.839644	28.411	
C	-0.1868823708	 1.3873928908	-0.1677193158	-0.267848
C	 1.2352645808	 0.9864358518	 0.1326336256	-0.267891
C	 0.1501246293	-0.0625730425	 0.085618551	-0.136734
C	-0.3054599578	-0.7432774708	 1.3311621476	 0.381477
C	-0.4318433311	-0.1390106586	 2.768040198	-0.257159
C	-0.8849424248	-1.6199808784	 2.8989624527	-0.046579
C	-1.6935706403	-1.4179184078	 1.5884630113	-0.25248
C	 0.3316315116	-2.0000418692	 2.0113421767	-0.2527
H	-0.7336457422	 1.9197124905	 0.6031962423	 0.111114
H	-0.4374011956	 1.6870864668	-1.1792454551	 0.1092
H	 1.9608782684	 1.010961968	-0.6727553446	 0.109206
H	 1.6386328169	 1.2508882026	 1.1042118548	 0.111167
H	 0.1533112933	-0.7073813986	-0.7902576308	 0.078406
H	 0.5008109119	 0.1334156366	 3.271249859	 0.086568
H	-1.2029804199	 0.6231530486	 2.9154598841	 0.086546
H	-1.2188911389	-2.1221397449	 3.8070886011	 0.068732
H	-2.5585010632	-0.7499280666	 1.6392283178	 0.085448
H	-1.9158959173	-2.3153485409	 1.003285937	 0.08402
H	 0.2629676299	-2.9416178722	 1.4581911699	 0.084023
H	 1.3248018899	-1.8662900753	 2.4502304676	 0.085483
60.4527	178.519	183.0533	370.5374	419.0343	539.1946	551.612	597.3746	775.6224	786.8057	802.6447	833.3933	871.2153	902.868	912.766	942.8983	960.1366	966.727	972.9239	996.7658	1055.8826	1067.1821	1077.7976	1099.1041	1102.494	1133.4691	1140.9962	1145.6953	1161.6665	1164.9066	1199.8679	1216.216	1233.7359	1235.5685	1242.9255	1310.1938	1421.8225	1467.4526	1497.1271	1497.7209	1505.0206	1555.2821	3037.7616	3038.2584	3046.9007	3100.2437	3105.9742	3107.2419	3109.6022	3128.8449	3131.7711	3137.283	3209.9491	3225.1571
C1CC1C12CC(C1)C2	C1CC1[C@@]12C[C@@H](C1)C2	
InChI=1S/C8H12/c1-2-7(1)8-3-6(4-8)5-8/h6-7H,1-5H2	InChI=1S/C8H12/c1-2-7(1)8-3-6(4-8)5-8/h6-7H,1-5H2/t6-,8-
