20
gdb 39973	3.51545	1.55151	1.39062	1.6589	81.12	-0.2285	0.0853	0.3138	1003.3184	0.173948	-365.96834	-365.961386	-365.960441	-365.99947	29.149	
C	 0.010636011	 1.5263889268	 0.0002299087	-0.329306
C	 1.3023090867	 0.7397254689	-0.0071749238	-0.324265
C	-0.0226475721	 0.0238761439	 0.012768696	 0.430062
C	-0.4720881313	-0.8053250241	 1.2221190943	-0.34704
C	-0.7276462079	-2.1731614951	 0.5976842473	-0.017144
C	-1.7239067867	-2.3229069636	-0.4951798133	-0.034981
C	-2.0152680308	-1.0053241692	-1.1975178238	-0.258109
C	-0.4776716355	-0.7813848061	-1.1806400458	-0.082858
N	-0.2418366252	-2.2488206055	-0.8035186695	-0.152208
H	-0.2625216173	 2.0518348575	 0.9096933306	 0.111683
H	-0.2795865877	 2.0411246521	-0.910409194	 0.111323
H	 1.8844475563	 0.7190540599	-0.922711805	 0.115135
H	 1.8984750899	 0.7314115569	 0.8996128638	 0.111101
H	 0.3033046893	-0.8639819004	 1.9918920445	 0.106945
H	-1.3730316687	-0.3982224024	 1.6952104328	 0.106238
H	-0.5142351957	-3.0628171898	 1.1820297206	 0.089466
H	-2.2821712754	-3.2447620635	-0.6315244132	 0.086659
H	-2.3915757049	-1.168799861	-2.209715328	 0.108854
H	-2.6493456824	-0.2675782436	-0.6943888605	 0.097047
H	-0.0102089915	-0.5047619716	-2.1260800018	 0.071396
101.4204	234.4221	284.1827	326.4281	398.1916	452.6224	521.4452	700.8441	742.1591	759.386	778.8278	785.6042	795.6872	879.9867	892.2164	898.5763	955.0759	966.2203	970.1034	990.0692	1002.796	1020.672	1053.9048	1057.3496	1077.447	1086.2925	1093.7668	1142.106	1182.2997	1187.0958	1200.8972	1232.4944	1263.6763	1264.8601	1289.5641	1303.9593	1346.3637	1392.8271	1412.0423	1466.9888	1489.4067	1502.6081	1505.1534	3035.7175	3043.3434	3078.4454	3101.5079	3112.2193	3122.3779	3127.0977	3146.538	3163.6259	3199.944	3215.4345
C1CC11CC2C3CC1N23	C1CC21C[C@H]1[C@H]3C[C@@H]2N13	
InChI=1S/C8H11N/c1-2-8(1)4-6-5-3-7(8)9(5)6/h5-7H,1-4H2	InChI=1S/C8H11N/c1-2-8(1)4-6-5-3-7(8)9(5)6/h5-7H,1-4H2/t5-,6+,7+,9?/m1/s1
