15
gdb 125980	3.7934	1.2543	1.09205	3.9386	67.85	-0.2574	-0.0624	0.195	1095.7347	0.112187	-450.042833	-450.035199	-450.034255	-450.075598	27.777	
C	-0.1270690941	 1.2624964749	 1.367433459	-0.416742
C	 0.0607833666	-0.1120824165	 0.7753087199	 0.012288
C	 0.1212266986	-0.3175694541	-0.7029869248	-0.248757
N	 1.3202152063	-0.4889981788	 0.1110109228	-0.143823
C	 2.3733498522	 0.3791279795	 0.000731362	 0.473983
N	 2.8366595073	 0.9031643298	-1.1049995699	-0.184923
O	 3.9485521811	 1.5838304269	-0.7023850148	-0.142774
N	 4.0935339207	 1.4462974759	 0.666423193	 0.052717
N	 3.1579854221	 0.7247362205	 1.0944269444	-0.217705
H	 0.2435519458	 2.0446361982	 0.6985531584	 0.134693
H	-1.1914106787	 1.4450050524	 1.5452049921	 0.13402
H	 0.3978071857	 1.3527982973	 2.3231093001	 0.150731
H	-0.3355093855	-0.9286669061	 1.3740675894	 0.114798
H	-0.2611604378	-1.2289074715	-1.1518057834	 0.136519
H	 0.0759739897	 0.5652190917	-1.3356986683	 0.144973
67.4131	112.9011	173.423	228.3628	301.6708	382.4636	439.7593	552.7176	582.3055	657.4162	747.6963	783.4038	814.0686	891.1811	910.7501	940.602	1018.4577	1050.4525	1061.5507	1083.3116	1135.4582	1149.3288	1170.0836	1194.7369	1256.7894	1350.3816	1401.5119	1423.1364	1487.5426	1495.8515	1509.3132	1515.6099	1612.7967	3042.6985	3112.683	3115.7008	3117.7873	3144.5572	3208.5693
CC1CN1C1=NON=N1	C[C@H]1CN1c1nonn1	
InChI=1S/C4H6N4O/c1-3-2-8(3)4-5-7-9-6-4/h3H,2H2,1H3	InChI=1S/C4H6N4O/c1-3-2-8(3)4-5-7-9-6-4/h3H,2H2,1H3/t3-,8?/m0/s1
