16
gdb 44068	3.39679	1.52074	1.41175	2.4201	69.44	-0.2384	-0.0279	0.2105	943.9428	0.124725	-437.75477	-437.748043	-437.747099	-437.785703	27.632	
O	 0.0003430878	-0.0175175323	 0.148095223	-0.321979
C	 0.0136885358	 1.1803031156	 0.1110168328	 0.472724
C	-1.1347791745	 2.1983945687	 0.1664438169	-0.386517
C	-0.2793280106	 3.4683708251	-0.0250171514	 0.362661
C	-0.894131417	 4.5389196817	-0.9712759195	-0.280366
N	-0.2937580755	 3.7129688758	-2.1362265629	-0.373655
C	 0.712508837	 3.2218206146	-1.0760513911	 0.012944
C	 1.1909032581	 2.1380251287	-0.0188373694	-0.123334
O	 0.8030200328	 3.1688738727	 1.0009122324	-0.363366
H	-1.8930762223	 2.0075395159	-0.5985804536	 0.121826
H	-1.6234776522	 2.2053199928	 1.1443432334	 0.146881
H	-1.9813663267	 4.6506506979	-0.9912575395	 0.12285
H	-0.4051977254	 5.5137662268	-0.9437280691	 0.141624
H	-0.9628391832	 2.9816509716	-2.3737934676	 0.232907
H	 1.4984874835	 3.9790346707	-1.0670600233	 0.123891
H	 2.2140895723	 1.7801965436	 0.0740824691	 0.110909
115.5589	281.3026	320.5194	338.0105	465.3857	476.0725	518.5594	576.6489	628.8411	679.8067	755.7957	763.7108	809.3753	820.031	838.1166	865.2851	940.5336	957.3779	986.9785	1042.3185	1066.113	1098.4587	1124.198	1149.7329	1175.9292	1217.5469	1225.4229	1245.2075	1269.9946	1309.7042	1331.0769	1409.4314	1448.8355	1490.0073	1883.3309	3064.6911	3068.1659	3091.9618	3114.0912	3140.4401	3159.7676	3483.5515
O=C1CC23CNC2C1O3	O=C1C[C@]23CN[C@@H]2[C@H]1O3	
InChI=1S/C6H7NO2/c8-3-1-6-2-7-5(6)4(3)9-6/h4-5,7H,1-2H2	InChI=1S/C6H7NO2/c8-3-1-6-2-7-5(6)4(3)9-6/h4-5,7H,1-2H2/t4-,5+,6-/m0/s1
