20
gdb 90806	3.1165	1.75065	1.41473	1.2549	80.52	-0.2103	0.071	0.2813	985.1969	0.173375	-365.942844	-365.935703	-365.934759	-365.974543	29.576	
C	-0.5095544765	 1.464987991	 0.0865350856	-0.397037
C	 0.0284058154	 0.0343564793	-0.0304051206	-0.005408
C	 0.7933659551	-0.1805578067	-1.3597204462	-0.165762
N	 2.0933292245	-0.8405633345	-1.2537128691	-0.096727
C	 3.056218654	-0.4744712563	-0.2412968204	-0.065436
C	 2.4198721382	-0.1655454415	 1.153921014	-0.100073
C	 1.7900298423	-1.549318962	 1.1584918969	-0.116847
C	 0.9182061494	-0.3252280906	 1.1437620381	-0.038082
C	 2.4205660651	-1.8284515882	-0.244994596	-0.065829
H	 0.3134497048	 2.1884039294	 0.1057264248	 0.117851
H	-1.1554638561	 1.7143922982	-0.7625007417	 0.111511
H	-1.0956926649	 1.5982918206	 1.002725816	 0.107979
H	-0.828551361	-0.6512654083	-0.0027454988	 0.071875
H	 0.1891461952	-0.7647946613	-2.0614232482	 0.104745
H	 0.9848461067	 0.7855286269	-1.84155623	 0.101907
H	 4.0492437831	-0.1568701772	-0.5399367412	 0.089689
H	 2.9558283761	 0.32765374	 1.9540265814	 0.084693
H	 1.7784208309	-2.2791578335	 1.957389879	 0.084792
H	 0.4707463816	-0.1155039364	 2.1138887954	 0.084295
H	 2.8088428562	-2.791564169	-0.5566679791	 0.091863
51.0332	233.8592	266.2203	338.7227	412.3836	492.1299	527.8694	573.5406	686.7274	708.5943	728.4	761.0906	809.6735	860.3903	885.6065	890.0706	923.9172	941.3451	963.3065	972.6827	988.5057	1026.7548	1055.9508	1065.0012	1071.4307	1090.2619	1110.3275	1145.8262	1196.5756	1236.1576	1264.6723	1266.6256	1296.4715	1302.8018	1338.7032	1349.0756	1360.776	1400.2619	1408.3745	1444.6109	1493.1308	1495.8723	1500.0514	3006.5418	3022.0785	3031.0035	3070.833	3091.2181	3095.3024	3120.6578	3161.7998	3173.7423	3191.462	3202.3688
CC1CN2C3C4C(C14)C23	C[C@H]1CN2[C@H]3[C@@H]4[C@@H]([C@H]14)[C@@H]23	
InChI=1S/C8H11N/c1-3-2-9-7-5-4(3)6(5)8(7)9/h3-8H,2H2,1H3	InChI=1S/C8H11N/c1-3-2-9-7-5-4(3)6(5)8(7)9/h3-8H,2H2,1H3/t3-,4-,5+,6-,7+,8-,9?/m0/s1
