19
gdb 36507	3.43764	1.07332	0.97395	3.2914	81.28	-0.2347	0.0167	0.2514	1261.8272	0.161267	-382.084254	-382.075916	-382.074972	-382.117508	31.371	
N	-0.2078037762	-1.190939694	 0.0907376167	-0.31479
C	-0.141560776	-0.0375795715	 0.0460697265	 0.255004
C	 0.0118461785	 1.4389318057	-0.0156428448	-0.299604
N	 1.3804697153	 1.908117341	-0.0175983147	-0.061375
C	 2.1467853916	 1.5012765547	-1.1965870865	-0.15758
C	 3.4358900671	 2.3219850814	-1.2854864873	-0.255556
C	 4.1398161334	 2.3562998774	 0.0434095619	-0.046927
C	 3.5248270889	 2.0273175266	 1.175896391	-0.062462
C	 2.0782698535	 1.6273446165	 1.2370179466	-0.198863
H	-0.4970954607	 1.7931816081	-0.9188499191	 0.150599
H	-0.5186186923	 1.8676433122	 0.842476685	 0.150156
H	 2.3928552883	 0.4247683131	-1.1722422087	 0.106468
H	 1.5261959819	 1.669827806	-2.0830937173	 0.10146
H	 4.0896942179	 1.8887802366	-2.052241963	 0.107289
H	 3.207579831	 3.3440289011	-1.617278426	 0.11619
H	 5.1840108256	 2.6567667497	 0.0551295492	 0.090406
H	 4.0559429353	 2.03078892	 2.1233360458	 0.094467
H	 1.5743121692	 2.1845376948	 2.0393451298	 0.111469
H	 2.0089990276	 0.5575494006	 1.5188154448	 0.113649
81.9481	90.0368	171.9149	214.9593	329.2916	346.4488	394.3869	400.5589	416.5684	524.5354	633.606	675.7598	757.8698	805.6519	875.763	899.4693	923.6889	986.9593	999.7345	1008.0523	1030.1725	1050.7217	1077.0477	1137.2086	1164.5516	1215.7996	1226.7981	1254.5638	1317.8954	1346.1643	1358.358	1367.1808	1385.4978	1421.1011	1426.5752	1454.0597	1472.5153	1493.0505	1509.9619	1734.0617	2344.3812	2908.4489	2949.8337	3014.213	3015.7031	3039.4629	3053.6533	3064.3843	3081.2341	3156.4441	3179.987
N#CCN1CCC=CC1	N#CCN1CCC=CC1	
InChI=1S/C7H10N2/c8-4-7-9-5-2-1-3-6-9/h1-2H,3,5-7H2	InChI=1S/C7H10N2/c8-4-7-9-5-2-1-3-6-9/h1-2H,3,5-7H2
