14
gdb 128262	4.01956	1.21306	0.93735	3.8742	70.69	-0.2491	-0.0781	0.1711	1174.7158	0.102603	-466.200002	-466.192004	-466.191059	-466.233549	28.051	
C	 0.0112121773	 1.4744480967	 0.0357086411	-0.334676
N	 0.183937781	 0.0349317443	-0.0258314491	-0.328264
C	 0.6547987755	-0.6847799915	-1.0582012243	 0.509401
N	 0.7368874567	-1.9910749226	-0.9197065864	-0.408224
C	 1.2165336493	-2.704446622	-1.9766336007	 0.454736
O	 1.3705537969	-3.8993410527	-2.0555639956	-0.376475
N	 1.5647774295	-1.8916542394	-3.1028808272	-0.24798
N	 1.462121472	-0.5784602304	-3.1896733912	-0.015749
N	 1.0109299109	 0.0646734357	-2.1879415908	-0.269995
H	 0.6131266596	 1.9008513754	 0.8454701866	 0.138238
H	 0.3295359475	 1.9085598235	-0.9098283513	 0.184313
H	-1.0395638531	 1.729724635	 0.2104872174	 0.138237
H	-0.0664938823	-0.5232994395	 0.776981615	 0.267769
H	 1.9290218991	-2.3494388227	-3.9281498035	 0.28867
52.1616	106.9874	128.8549	186.1679	234.2623	419.3213	426.4331	515.161	584.475	612.3793	630.1198	709.82	763.7737	766.6173	819.0459	935.1715	1005.6511	1067.7409	1145.2104	1155.9745	1191.1277	1253.3656	1367.6359	1418.6261	1468.8592	1476.4175	1497.9071	1511.7771	1559.1266	1660.5177	1844.53	3033.8323	3085.67	3179.0821	3601.8604	3621.7082
CNC1=NC(=O)NN=N1	CNc1nc(=O)[nH]nn1	
InChI=1S/C3H5N5O/c1-4-2-5-3(9)7-8-6-2/h1H3,(H2,4,5,6,7,9)	InChI=1S/C3H5N5O/c1-4-2-5-3(9)7-8-6-2/h1H3,(H2,4,5,6,7,9)
