15
gdb 13530	3.15242	1.97206	1.46783	4.7926	56.59	-0.2519	0.0088	0.2606	853.4386	0.119698	-436.945241	-436.937833	-436.936889	-436.977629	27.06	
O	 0.1402513277	 1.3348384494	-0.2125354993	-0.426826
C	 0.1075526524	-0.0359812735	 0.0653743524	 0.130232
C	 0.1077251117	-0.3427953316	 1.5823155212	-0.176336
N	-1.2794682146	-0.900145136	 1.4955428015	-0.347491
H	-1.3579613046	-1.8648281959	 1.7950218342	 0.236639
H	-2.8956102045	 0.1577197609	 1.350831717	 0.306722
C	-1.3032463953	-0.7102560051	 0.0225889625	-0.185839
C	-2.4006827584	 0.2474472571	-0.4256316334	 0.447631
O	-3.2582266338	 0.5790717683	 0.5380033365	-0.358546
O	-2.4443743194	 0.6859537031	-1.5492655023	-0.367029
H	-0.3205378873	 1.4776393889	-1.0509954838	 0.30434
H	 0.867123681	-0.5863360604	-0.5038240648	 0.082013
H	 0.8627040538	-1.0675102734	 1.8992816995	 0.113497
H	 0.170196976	 0.5493804999	 2.2102223601	 0.132392
H	-1.3555647748	-1.6202160517	-0.5818738913	 0.1086
48.9025	118.4425	173.2524	285.5774	371.9287	421.2985	446.9247	543.617	586.2485	685.2906	774.181	807.8429	839.4518	867.4007	933.4741	974.7173	987.3793	1030.6945	1067.6903	1131.8178	1159.9396	1224.8488	1240.1691	1250.8693	1286.8182	1336.7869	1346.9216	1377.1775	1421.5937	1438.1467	1500.9314	1847.4325	3017.9018	3056.847	3074.7713	3113.7498	3448.911	3547.4445	3754.1574
OC1C[NH2+]C1C([O-])=O	O[C@H]1CN[C@H]1C(=O)O	
InChI=1S/C4H7NO3/c6-2-1-5-3(2)4(7)8/h2-3,5-6H,1H2,(H,7,8)	InChI=1S/C4H7NO3/c6-2-1-5-3(2)4(7)8/h2-3,5-6H,1H2,(H,7,8)/t2-,3+/m0/s1
