15
gdb 52631	2.15544	1.04797	0.95128	3.6096	77.86	-0.2534	-0.0384	0.215	1355.6838	0.106375	-420.556575	-420.545875	-420.544931	-420.593816	36.041	
C	-0.1737525707	 1.5078122309	-0.0119264421	-0.501054
C	-0.101015516	 0.055576614	 0.0123633765	 0.031371
C	-0.0337332826	-1.146767614	 0.0462025669	 0.096713
C	 0.0274369492	-2.6139452039	 0.027209768	-0.136607
O	-1.2737551793	-3.195146216	-0.0514806577	-0.426503
C	 0.6739371645	-2.9986058436	-1.3393188906	 0.171578
O	 1.8138973357	-3.3183127304	-1.4950614007	-0.229591
C	 0.7980059488	-3.1317731321	 1.159681103	 0.363665
C	 1.4032275716	-3.5745113132	 2.097139814	-0.455336
H	 0.6057700445	 1.9268976133	-0.6570730532	 0.16147
H	-1.1422050626	 1.8484529547	-0.3932502527	 0.157153
H	-0.039503484	 1.9269704157	 0.9908511367	 0.158698
H	-1.7809049678	-2.8718697438	 0.70188283	 0.293652
H	-0.0671509339	-2.9183316779	-2.1608125356	 0.109351
H	 1.9488443825	-3.9654469036	 2.9205144875	 0.205439
26.3708	64.0646	84.766	120.8859	141.1421	198.0393	236.163	277.8493	314.3342	330.3397	416.2276	466.6711	488.758	537.9651	632.7221	646.5002	673.776	716.464	872.8899	973.9998	1033.6968	1050.5014	1052.5814	1112.1018	1206.503	1338.8596	1386.3323	1412.3938	1474.0841	1474.8775	1859.6857	2242.6936	2359.8664	2932.5213	3032.7432	3097.2538	3097.5509	3500.3714	3808.8391
CC#CC(O)(C=O)C#C	CC#C[C@@](O)(C=O)C#C	
InChI=1S/C7H6O2/c1-3-5-7(9,4-2)6-8/h2,6,9H,1H3	InChI=1S/C7H6O2/c1-3-5-7(9,4-2)6-8/h2,6,9H,1H3/t7-/m1/s1
