21
gdb 40079	3.15881	1.34203	1.27668	1.8779	80.36	-0.2559	0.0702	0.3261	1098.765	0.184416	-387.075727	-387.067991	-387.067047	-387.108465	30.964	
C	-0.8282216231	 1.0878222733	 0.2360469271	-0.252413
O	 0.5745800257	 1.2030645922	-0.0293413962	-0.291327
C	 0.0107784682	-0.1021054581	 0.0309374155	 0.473736
C	 0.4289665431	-1.0357606572	 1.1619538445	-0.313162
C	-0.2116244113	-2.3812737952	 0.7941635952	-0.005489
C	-1.7386281554	-2.5130783521	 1.0702597476	-0.22279
C	-2.0315718663	-2.4576515687	-0.455903178	-0.222763
C	-0.5091544881	-2.3243439299	-0.7555196705	-0.005523
C	-0.0322576639	-0.9473320006	-1.2377419081	-0.313152
H	-1.1360900678	 1.3702952111	 1.2426268373	 0.10944
H	-1.4830041988	 1.4367898802	-0.5622375748	 0.109441
H	 1.5231451042	-1.1167847373	 1.1545759925	 0.10717
H	 0.1335323145	-0.6680382114	 2.1491660938	 0.100582
H	 0.3797251932	-3.2298089726	 1.1425457991	 0.065183
H	-2.0266724373	-3.4508816229	 1.5512040225	 0.098665
H	-2.1650924315	-1.692034167	 1.6540165914	 0.095395
H	-2.4889915372	-3.3636289461	-0.8605364228	 0.098678
H	-2.6331586327	-1.604000103	-0.7816776831	 0.095379
H	-0.0997959801	-3.1376887281	-1.3571629171	 0.065189
H	-0.6672759425	-0.5146058647	-2.0165790483	 0.100581
H	 0.9856608371	-1.0135339822	-1.6418439475	 0.107179
50.0965	92.1839	280.8762	331.4725	351.3265	379.5381	393.0752	531.3465	589.3884	738.5443	740.1105	757.6262	826.4406	849.2123	862.1486	890.71	903.5034	920.6298	938.8442	957.4769	1000.7497	1017.7157	1069.8473	1073.7665	1131.8098	1135.8705	1154.7699	1155.8359	1178.9121	1221.1265	1223.9031	1242.6961	1263.7992	1265.4845	1282.6199	1300.2652	1312.0634	1344.6662	1345.6048	1429.27	1471.8092	1479.6517	1487.0192	1495.2201	1531.9234	3028.4347	3033.0669	3049.6871	3056.8739	3072.9126	3076.8348	3084.314	3086.6366	3090.4175	3095.89	3115.0776	3158.24
C1OC11CC2CCC2C1	C1O[C@]21C[C@H]1CC[C@H]1C2	
InChI=1S/C8H12O/c1-2-7-4-8(5-9-8)3-6(1)7/h6-7H,1-5H2	InChI=1S/C8H12O/c1-2-7-4-8(5-9-8)3-6(1)7/h6-7H,1-5H2/t6-,7+,8-
