21
gdb 76854	2.31382	1.79591	1.52852	1.6672	80.6	-0.2478	0.0724	0.3202	1012.6626	0.182523	-387.030081	-387.02187	-387.020926	-387.062225	32.897	
C	-0.4907084691	 1.5868141665	-0.2359013725	-0.418025
C	-0.1191576903	 0.1108274819	-0.1492961975	 0.005635
C	 1.0541869358	-0.4796285072	-1.0352873372	 0.005617
C	 1.8333257337	 0.4174664678	-1.9904029361	-0.418033
C	 1.7446214223	-1.0198490852	 0.2584628162	-0.076424
C	 2.7311675741	-0.1144370318	 1.0366950138	 0.011052
O	 2.3199685487	 1.2505437276	 0.9033816736	-0.232589
C	 1.6366386	 0.4369173088	 1.8631431123	 0.011028
C	 0.5874964424	-0.4371758105	 1.1323783049	-0.076449
H	 0.3712468767	 2.2352374553	-0.0755676005	 0.142489
H	-0.9210704349	 1.8216098726	-1.2159144361	 0.108071
H	-1.2469253313	 1.8336432481	 0.5184341521	 0.105285
H	-1.0246789175	-0.4798181237	-0.3252075656	 0.068626
H	 0.6701122059	-1.3325831831	-1.6051379037	 0.068616
H	 2.2406355397	 1.2945697492	-1.4864926567	 0.142529
H	 2.6675183937	-0.1360927618	-2.4370629806	 0.105276
H	 1.1930415965	 0.7582197971	-2.8117972558	 0.108055
H	 1.995820584	-2.0805496492	 0.2982601821	 0.068623
H	 3.7796942612	-0.2817645099	 1.2583523899	 0.100991
H	 1.6265243606	 0.8028696511	 2.8841800437	 0.100995
H	 0.0106452577	-1.0808535636	 1.7977290338	 0.068632
150.1267	192.284	206.9525	229.8129	241.6663	248.7344	357.4567	463.9428	509.6243	647.052	647.7296	726.6993	761.3064	803.8135	814.3644	844.6716	887.0912	897.4555	937.4548	950.7996	993.9687	1018.1329	1027.3038	1053.4011	1075.8489	1086.8318	1116.7305	1169.8932	1175.7599	1201.3868	1217.9977	1235.244	1250.4438	1266.3882	1309.8401	1320.4725	1357.6011	1366.3418	1383.9978	1402.4914	1412.2826	1485.7402	1499.8991	1504.7562	1519.7208	3023.8008	3031.3276	3032.0209	3047.2535	3082.7704	3086.1179	3097.272	3107.7023	3142.6114	3147.8289	3166.5657	3181.6875
CC1C(C)C2C3OC3C12	C[C@H]1[C@@H](C)[C@H]2[C@H]3O[C@H]3[C@@H]12	
InChI=1S/C8H12O/c1-3-4(2)6-5(3)7-8(6)9-7/h3-8H,1-2H3	InChI=1S/C8H12O/c1-3-4(2)6-5(3)7-8(6)9-7/h3-8H,1-2H3/t3-,4+,5-,6+,7-,8+
