13
gdb 12453	3.70143	2.09057	1.47326	3.4216	54.95	-0.2658	-0.0102	0.2556	798.0543	0.097135	-435.762829	-435.756325	-435.755381	-435.793862	23.597	
O	 0.0136283192	 0.5926891279	-1.1695460289	-0.294485
C	 0.0079356617	 1.2411487056	-0.1663488833	 0.406887
C	-1.2476261599	 1.4508188388	 0.6904225432	-0.310456
N	-1.6012928028	 2.8013662784	 1.0907195275	-0.251519
C	-0.7986094887	 3.7215180533	 1.3942797647	 0.137355
O	 0.5618173769	 3.7320374049	 1.4946700622	-0.20675
C	 1.2052106264	 2.477514521	 1.5005473879	 0.014059
O	 1.1710841997	 1.8329977515	 0.2495023852	-0.211125
H	-2.0647026918	 1.0528914915	 0.0853878652	 0.156357
H	-1.1818208175	 0.7995484669	 1.5731642185	 0.146073
H	-1.1760675532	 4.7160434367	 1.6243721545	 0.140568
H	 2.2549771381	 2.6827503156	 1.7044599867	 0.149488
H	 0.7806451818	 1.8412126179	 2.2851111267	 0.123548
98.4977	135.2885	297.4576	349.8119	416.8094	475.4291	532.4733	578.332	728.6777	738.6614	845.273	945.0022	970.8311	995.475	1013.6831	1062.3823	1115.0043	1153.4733	1238.4024	1277.2618	1317.6818	1352.3782	1421.5352	1449.7151	1474.3642	1519.1711	1773.7159	1869.4898	3017.5114	3047.3892	3107.9403	3154.2532	3163.844
O=C1CN=COCO1	O=C1CN=COCO1	
InChI=1S/C4H5NO3/c6-4-1-5-2-7-3-8-4/h2H,1,3H2	InChI=1S/C4H5NO3/c6-4-1-5-2-7-3-8-4/h2H,1,3H2
