15
gdb 45674	3.12745	1.71536	1.17053	4.7883	72.65	-0.2174	-0.0157	0.2017	986.9609	0.1149	-416.833806	-416.827017	-416.826073	-416.865079	26.603	
O	-0.1196087093	 0.0064724232	 0.1651946698	-0.278092
C	-0.0550085931	 1.1963813601	 0.0770250325	 0.362088
C	-1.2496683804	 2.1934811373	 0.0026129177	-0.349249
C	-0.6771291275	 3.4546540087	 0.6203767314	-0.247191
C	 0.6556982395	 3.3638409301	 0.6313738918	 0.354259
N	 1.7457108917	 3.9533551209	 1.2694280593	-0.399567
C	 2.6773692367	 2.9059494377	 1.4109492928	 0.053512
N	 2.4464689202	 1.8261749475	 0.7651904533	-0.246149
C	 1.2026512854	 2.0973643262	 0.0312765449	-0.128723
H	-1.5367516436	 2.2957254747	-1.054939938	 0.13041
H	-2.1229370378	 1.7951972222	 0.5292729645	 0.130914
H	-1.2843485071	 4.2250512343	 1.0768757663	 0.097824
H	 1.6338949994	 4.6438755129	 1.9963470509	 0.25838
H	 3.55024052	 3.0661887752	 2.0355148118	 0.137339
H	 1.4487851858	 2.201292509	-1.0398648491	 0.124245
99.6311	203.983	276.5938	323.8746	445.7456	516.5268	532.0649	594.0891	616.8027	647.9716	739.0001	787.2938	805.0601	904.4705	924.1138	943.8095	954.5694	988.933	1011.6911	1056.4154	1102.9019	1157.1642	1184.2178	1230.3946	1264.7829	1278.0961	1301.6756	1341.3453	1403.7271	1465.0382	1651.3759	1737.7968	1879.6917	2955.6254	2996.9787	3077.2533	3199.4699	3212.7181	3622.5943
O=C1CC=C2NC=NC12	O=C1CC=C2N[CH][N][C@@H]12	
InChI=1S/C6H6N2O/c9-5-2-1-4-6(5)8-3-7-4/h1,3,6H,2H2,(H,7,8)	InChI=1S/C6H6N2O/c9-5-2-1-4-6(5)8-3-7-4/h1,3,6H,2H2,(H,7,8)/t6-/m1/s1
