16
gdb 125916	4.38029	1.29775	1.06176	4.733	70.65	-0.2183	0.0072	0.2256	1103.5663	0.125873	-437.877015	-437.869744	-437.868799	-437.909478	27.555	
C	-0.4480999214	 1.4609832175	 0.0221649935	-0.395321
C	 0.1349539088	 0.0630724945	 0.0168039478	 0.120876
C	 0.9922679142	-0.2916600793	-1.2611632392	-0.405357
C	 2.2696445863	-0.7475714846	-0.6203140726	 0.071158
C	 2.1512740753	-0.5620940742	 0.7160087879	 0.513859
O	 3.2212569539	-0.8903200286	 1.4071474436	-0.238829
N	 4.1864994246	-1.3502079667	 0.4416618125	-0.164093
C	 3.5859574703	-1.2444171125	-0.7295488581	-0.111601
O	 1.0181500236	-0.0724922022	 1.2064446079	-0.281227
H	 0.3427737712	 2.2079453304	-0.0956156004	 0.13536
H	-1.1536905959	 1.5703193017	-0.8077242942	 0.128588
H	-0.979590026	 1.6592628252	 0.9564228506	 0.138562
H	-0.649781323	-0.684246361	 0.1650871237	 0.110285
H	 0.486628742	-1.0552034111	-1.8605049395	 0.124758
H	 1.1155168119	 0.592946816	-1.8978185309	 0.120462
H	 4.1494985439	-1.5432352751	-1.6032812226	 0.132522
35.5863	213.7506	246.231	257.5622	324.2713	430.2265	471.8075	602.7274	615.8824	720.6955	732.7401	759.2872	815.8538	825.0679	888.4117	910.9433	939.7447	970.2058	1046.62	1097.005	1123.3081	1187.1674	1198.7294	1216.0657	1270.1767	1335.1695	1366.7922	1409.8375	1414.7061	1428.722	1483.3605	1495.3067	1506.8676	1556.3287	1672.5389	3025.6599	3042.9226	3058.6624	3076.6096	3116.7635	3127.5899	3233.9652
CC1CC2=C(ON=C2)O1	C[C@H]1Cc2c(onc2)O1	
InChI=1S/C6H7NO2/c1-4-2-5-3-7-9-6(5)8-4/h3-4H,2H2,1H3	InChI=1S/C6H7NO2/c1-4-2-5-3-7-9-6(5)8-4/h3-4H,2H2,1H3/t4-/m0/s1
