17
gdb 35822	2.47494	1.7442	1.29122	5.9107	70.65	-0.2522	0.019	0.2713	1000.9679	0.138788	-417.989549	-417.982016	-417.981072	-418.022388	28.248	
N	 0.1678308642	-0.9758926505	 0.7864300066	-0.326962
C	 0.0856372224	 0.1124759346	 0.4092174116	 0.344497
C	-0.051655521	 1.4929009898	-0.0826798302	-0.231861
N	-0.9092966817	 2.2771807329	 0.8212506845	-0.273394
C	-0.0048897566	 2.8840352561	 1.8138361624	-0.204874
C	 1.3178381525	 3.1994549005	 1.0788982526	-0.081769
C	 2.5914869786	 2.4349034019	 1.5027079094	-0.088357
O	 2.4561494669	 1.5114984014	 0.3963646338	-0.271403
C	 1.3316014421	 2.2336343344	-0.1264835344	 0.130608
H	-0.5120455129	 1.4452119799	-1.0737012966	 0.123787
H	-1.3603444239	 3.0061040077	 0.2784614891	 0.229581
H	-0.4785526281	 3.7610321893	 2.259548638	 0.115601
H	 0.1685192582	 2.1576576986	 2.6166280218	 0.131804
H	 1.4454819716	 4.2612613494	 0.8661580541	 0.086135
H	 3.5221937765	 3.0080821381	 1.4281679672	 0.110411
H	 2.5537790225	 1.9241533594	 2.4717947253	 0.117652
H	 1.5350698984	 2.6364648067	-1.1243302653	 0.088545
43.4522	125.7609	165.1091	268.7209	360.0766	373.3305	494.1926	583.2014	648.0016	725.8701	758.9686	770.0909	847.3903	872.1418	893.8404	924.6569	970.3107	998.2752	1032.1671	1046.2842	1086.865	1091.9859	1121.8806	1165.7022	1200.4093	1228.0586	1252.7667	1277.4647	1313.9142	1333.6505	1349.408	1358.4132	1369.3186	1467.3701	1498.535	1521.8057	2365.2812	3026.969	3042.257	3047.3827	3074.8785	3078.1959	3100.8798	3118.1047	3527.4588
N#CC1NCC2COC12	N#C[C@H]1NC[C@H]2CO[C@@H]12	
InChI=1S/C6H8N2O/c7-1-5-6-4(2-8-5)3-9-6/h4-6,8H,2-3H2	InChI=1S/C6H8N2O/c7-1-5-6-4(2-8-5)3-9-6/h4-6,8H,2-3H2/t4-,5+,6+/m0/s1
