18
gdb 103688	3.96178	0.87949	0.84575	5.2995	71.06	-0.2394	0.0273	0.2667	1387.0694	0.146175	-476.221448	-476.211971	-476.211027	-476.257228	33.709	
O	 0.0172263057	 1.2628890667	-0.3348030582	-0.435544
C	-0.0716969665	-0.1425351889	-0.1229559714	-0.145794
C	-1.534267054	-0.4262946213	 0.1807286251	 0.408229
O	-1.9619869283	 0.3329549916	 1.2773122153	-0.47772
C	-2.4678667548	-0.3910169442	-1.0837791326	-0.239386
N	-2.602786322	-1.8423218268	-0.9450852753	-0.04344
C	-1.8804864955	-1.9325114503	 0.321331557	-0.226654
C	-3.222432569	-2.80291553	-1.6620272932	 0.133157
O	-3.2508239779	-3.9785865812	-1.3575769924	-0.333882
H	 0.9430849902	 1.5208145169	-0.3443697602	 0.300419
H	 0.2541129295	-0.7090535901	-1.0070986098	 0.103841
H	 0.5374655503	-0.4563344677	 0.7370567236	 0.10554
H	-1.5622771754	 1.2065349517	 1.1686890474	 0.290353
H	-3.3943996242	 0.1620756499	-0.8973352623	 0.119631
H	-2.0119538111	-0.0527449132	-2.0195174806	 0.118947
H	-1.0423530877	-2.6372160025	 0.3161345272	 0.121184
H	-2.5232096577	-2.1374427759	 1.1832061118	 0.133765
H	-3.6985178016	-2.3933663445	-2.5771406515	 0.067354
17.5123	93.3371	117.4531	180.6711	221.1461	260.7217	307.6879	354.9776	360.7848	413.8776	479.7683	499.784	566.9487	726.5735	802.1626	890.5899	928.429	954.8011	968.4079	1034.5578	1050.9232	1079.7041	1129.8358	1135.5273	1163.9841	1193.8912	1218.838	1258.4123	1279.8128	1292.2183	1324.925	1396.9238	1419.8612	1447.8783	1465.3485	1496.0216	1510.7776	1517.6938	1790.7712	2919.0302	2990.9277	3033.1039	3034.6692	3043.5138	3090.2667	3093.1227	3762.1784	3843.2723
OCC1(O)CN(C1)C=O	OCC1(O)CN(C1)C=O	
InChI=1S/C5H9NO3/c7-3-5(9)1-6(2-5)4-8/h4,7,9H,1-3H2	InChI=1S/C5H9NO3/c7-3-5(9)1-6(2-5)4-8/h4,7,9H,1-3H2
