16
gdb 30004	3.34982	1.7081	1.13942	5.279	77.5	-0.1853	0.0353	0.2207	1022.9669	0.127369	-396.967726	-396.960058	-396.959114	-396.999958	28.585	
C	-0.0139300677	 1.4622872497	 0.0319003551	-0.352256
N	-0.0071935922	 0.0187895462	 0.0391003575	-0.146848
C	-0.0355108396	-0.8302586203	-1.0672232658	-0.030566
N	-0.0207724216	-2.1056574397	-0.7691869447	-0.360612
C	 0.0199866729	-2.130959123	 0.6139154368	 0.274563
C	 0.0284220562	-0.8378797551	 1.1066361147	 0.383212
N	 0.066799796	-0.8474558666	 2.4694883384	-0.421285
C	 0.0846362181	-2.1933137171	 2.8547207436	-0.075765
C	 0.056418398	-3.0049853343	 1.7446058919	-0.290084
H	 0.8890062924	 1.8677146695	 0.5030272334	 0.137882
H	-0.0459177863	 1.8093972065	-1.0027080172	 0.14944
H	-0.8912713589	 1.8596251032	 0.5553687809	 0.137928
H	-0.0663960349	-0.4118681401	-2.0634489781	 0.119396
H	 0.0847949915	-0.0651307638	 3.0973838225	 0.260346
H	 0.1161902592	-2.4446724716	 3.9025454313	 0.115354
H	 0.0615015569	-4.0834408834	 1.7579390897	 0.099297
99.2876	136.9993	178.727	244.8546	245.9924	355.7849	528.6088	590.8522	615.5495	620.3888	677.5881	706.8679	752.7589	783.125	810.1055	823.1593	927.9753	1043.7096	1059.5341	1077.1147	1138.8504	1152.4616	1243.0854	1253.7373	1313.4008	1341.955	1376.3166	1449.2502	1471.1939	1481.0539	1484.5961	1509.45	1528.3854	1560.4946	1636.6983	3022.1221	3074.7377	3131.8107	3237.6243	3252.9298	3272.4914	3696.7853
CN1C=NC2=C1NC=C2	Cn1cnc2c1[nH]cc2	
InChI=1S/C6H7N3/c1-9-4-8-5-2-3-7-6(5)9/h2-4,7H,1H3	InChI=1S/C6H7N3/c1-9-4-8-5-2-3-7-6(5)9/h2-4,7H,1H3
