20
gdb 78887	2.52026	2.14512	1.47251	1.5905	80.17	-0.221	0.0732	0.2942	960.1898	0.171913	-365.964182	-365.956643	-365.955699	-365.995558	31.022	
C	 0.0875176627	 1.5776925923	-0.0396362023	-0.397486
C	 0.0265036155	 0.0558156904	 0.0233288382	-0.011802
N	 0.7588987048	-0.549781051	-1.1016535118	-0.124714
C	 2.1642211258	-0.7601622063	-0.7012004449	-0.073347
C	 1.2065414788	-1.8989638322	-0.723520518	-0.071972
C	 1.202982801	-1.9459053106	 0.8301848677	-0.151137
C	 2.1799845102	-0.783111068	 0.8528730137	-0.139442
C	 0.7272133872	-0.5667035181	 1.2294830548	 0.333101
C	 0.3155506341	-0.2618594155	 2.64666024	-0.505286
H	 1.1230817136	 1.9268175326	 0.0292912464	 0.117393
H	-0.331921457	 1.937893281	-0.982762726	 0.124491
H	-0.4797568879	 2.02774995	 0.7811436347	 0.111673
H	-1.01699695	-0.2798212266	-0.0330328303	 0.074309
H	 2.9662137928	-0.4726359667	-1.36876812	 0.090107
H	 1.0748683023	-2.724563477	-1.4112282578	 0.090782
H	 1.1590169877	-2.8231773378	 1.4602480522	 0.085348
H	 3.0244766786	-0.6024763642	 1.5027846096	 0.084681
H	 0.4111477887	 0.8065741634	 2.8688596329	 0.122919
H	-0.7272578966	-0.5480403671	 2.8251600301	 0.120498
H	 0.9350244677	-0.8050036887	 3.3668805808	 0.119885
171.4799	213.7635	222.2278	237.6053	280.5059	339.4449	535.7847	571.7796	591.6273	717.0552	735.5509	750.9484	789.4727	811.4418	848.0639	879.2178	885.4657	896.1883	931.3536	951.8559	984.8787	1007.4918	1028.3344	1038.5165	1064.2778	1107.102	1115.6805	1146.8009	1152.8325	1195.5605	1213.5428	1246.4934	1275.2147	1292.6905	1323.5001	1369.9205	1403.295	1408.8672	1422.4967	1488.7087	1495.8556	1496.6636	1502.8822	3026.8431	3029.7014	3037.9706	3086.9096	3100.6405	3106.9855	3118.0217	3185.2881	3197.9783	3208.6903	3219.789
CC1N2C3C2C2C3C12C	C[C@H]1N2[C@@H]3[C@H]2[C@H]2[C@@H]3[C@@]12C	
InChI=1S/C8H11N/c1-3-8(2)4-5(8)7-6(4)9(3)7/h3-7H,1-2H3	InChI=1S/C8H11N/c1-3-8(2)4-5(8)7-6(4)9(3)7/h3-7H,1-2H3/t3-,4-,5+,6-,7+,8+,9?/m1/s1
