15
gdb 17233	5.16399	1.72799	1.54491	3.4073	66.23	-0.25	-0.0288	0.2212	823.905	0.119614	-362.60209	-362.595761	-362.594817	-362.632594	24.347	
O	-0.5671776844	 0.657089045	 0.629477009	-0.264223
C	 0.1884757731	 0.9801454517	-0.2561062083	 0.054583
C	 1.368993457	 1.8314118316	-0.0450142392	 0.264993
C	 1.9048350309	 2.4320049629	 1.2502558963	-0.300045
C	 2.8058535549	 3.3100102548	 0.3411464577	-0.08749
C	 3.6879580078	 2.2552168782	-0.3552260675	-0.147038
N	 2.4783407615	 1.7412423745	-1.0844768788	-0.178534
C	 1.8053595081	 3.0271752815	-0.8441960817	-0.085382
H	 0.0396628076	 0.6593139624	-1.3093279881	 0.084886
H	 1.1228660617	 3.0095393858	 1.7468546462	 0.12587
H	 2.3991194141	 1.7745239186	 1.971815656	 0.107932
H	 3.1858978717	 4.2720782249	 0.6771627333	 0.08557
H	 4.3727396761	 2.6739948001	-1.0961376314	 0.119168
H	 4.2078474978	 1.5189413431	 0.2674248195	 0.108006
H	 1.2944298022	 3.6144930848	-1.5963453329	 0.111704
112.2205	186.8576	260.6572	426.2761	441.9421	474.4392	668.6746	722.4607	770.2522	806.4877	850.534	912.6218	945.3565	949.9674	974.1818	988.3673	1018.1386	1033.1559	1083.3953	1122.9867	1142.7599	1166.7646	1187.3358	1233.2224	1242.2211	1271.3382	1314.2822	1362.5231	1424.6886	1494.4342	1513.9193	1805.5732	2907.3899	3044.3414	3058.9815	3113.8924	3125.5031	3143.8534	3202.3189
O=CC12CC3CN1C23	O=C[C@@]12C[C@H]3CN1[C@@H]23	
InChI=1S/C6H7NO/c8-3-6-1-4-2-7(6)5(4)6/h3-5H,1-2H2	InChI=1S/C6H7NO/c8-3-6-1-4-2-7(6)5(4)6/h3-5H,1-2H2/t4-,5+,6+,7?/m0/s1
