18
gdb 83400	2.67775	1.40223	1.16013	2.6313	73.21	-0.2391	0.0169	0.2561	1122.2444	0.14704	-439.083666	-439.074757	-439.073813	-439.11723	33.172	
C	-0.0316067554	 1.5393837182	-0.1076292767	-0.423917
C	 0.0856605188	 0.0339078144	-0.0439864257	-0.061982
C	 1.3734172637	-0.7459275131	-0.1796236526	-0.188437
C	 2.5033567586	-0.0668501846	 0.5874041748	-0.109297
O	 1.6867367412	 0.0445758642	 1.7892473944	-0.342295
C	 0.6300662989	-0.6924977108	 1.1520355839	 0.347913
C	-0.082505607	-1.7655312934	 1.9011864721	 0.313677
N	 0.3583773459	-1.9117366028	 3.1780309041	-0.539974
O	-0.9655447744	-2.4313107041	 1.3900955646	-0.380546
H	 0.7330918909	 2.0244998135	 0.5036525395	 0.133108
H	 0.0661548948	 1.898506011	-1.1372945231	 0.119563
H	-1.0077113613	 1.860961551	 0.2689212563	 0.127089
H	-0.7454564149	-0.5220184616	-0.4708919531	 0.124775
H	 1.4852965496	-1.5881512917	-0.8486236362	 0.115362
H	 3.3605677754	-0.723369217	 0.7694739283	 0.117101
H	 2.8523387204	 0.9103230568	 0.2366145162	 0.112796
H	 1.1221869273	-1.3501324423	 3.5147444945	 0.272872
H	-0.0542952224	-2.6203814777	 3.7603488388	 0.262191
74.1786	141.026	168.6818	192.8628	242.8002	246.6007	271.3697	374.5809	462.9199	484.7653	583.1412	612.5113	664.4163	722.4624	759.8799	825.4293	890.9507	947.8579	968.466	976.6492	983.1519	1044.592	1084.7578	1094.927	1109.9094	1141.1348	1165.716	1176.3448	1219.0804	1319.0393	1334.8252	1376.3019	1408.8558	1468.9276	1492.4467	1504.715	1519.0931	1600.8403	1789.3555	3034.7301	3041.0732	3084.6779	3101.6449	3123.1537	3158.5438	3209.7668	3601.0113	3743.0823
CC1C2COC12C(N)=O	C[C@H]1[C@H]2CO[C@@]12C(=O)N	
InChI=1S/C6H9NO2/c1-3-4-2-9-6(3,4)5(7)8/h3-4H,2H2,1H3,(H2,7,8)	InChI=1S/C6H9NO2/c1-3-4-2-9-6(3,4)5(7)8/h3-4H,2H2,1H3,(H2,7,8)/t3-,4+,6-/m0/s1
