17
gdb 61141	3.67061	0.86785	0.76581	2.6621	81.62	-0.2612	-0.0626	0.1986	1466.8616	0.131408	-384.638874	-384.628722	-384.627777	-384.674567	36.183	
C	 0.2423378188	 1.4168433783	 0.1204500325	-0.40502
C	-0.023573506	-0.0949593026	-0.0107830997	-0.098116
C	-1.5295901033	-0.4332397279	-0.0200766178	-0.36909
C	-2.1883500134	-0.084162426	 1.2319546317	 0.288172
C	-2.7112395274	 0.2052622167	 2.275149298	-0.434371
C	 0.6434442473	-0.6444447267	-1.2675136166	 0.225106
O	 0.0253422903	-1.1082848708	-2.2016918479	-0.299794
C	 2.0974758094	-0.5800696467	-1.2851288095	 0.260852
C	 3.3005746974	-0.537089997	-1.2845234094	-0.383767
H	 1.3136501065	 1.6285079539	 0.1572614623	 0.132218
H	-0.1869259429	 1.96101086	-0.7275681732	 0.128286
H	-0.2196462247	 1.7917151449	 1.0366953137	 0.143916
H	 0.4501402014	-0.5948330316	 0.8445624515	 0.113356
H	-2.0087758695	 0.086823103	-0.8576872947	 0.1439
H	-1.6586827747	-1.5015074016	-0.2250518287	 0.144278
H	-3.1900231276	 0.4539795903	 3.1896042161	 0.194606
H	 4.3631909083	-0.5053458263	-1.3005599182	 0.215469
44.864	69.0085	106.9288	169.6263	200.3602	236.6717	258.2943	310.2861	345.5721	356.1775	440.0847	518.9991	617.2607	619.3263	644.4402	645.6354	701.0829	729.3338	795.2818	861.9313	898.5001	979.0387	1056.2828	1075.0519	1093.143	1147.7978	1251.382	1293.8159	1322.3356	1373.4099	1404.8551	1463.2608	1499.2021	1500.9777	1762.9485	2209.9118	2237.8764	3025.489	3042.5807	3045.1607	3077.3994	3117.0509	3133.5435	3492.7772	3506.4428
CC(CC#C)C(=O)C#C	C[C@@H](CC#C)C(=O)C#C	
InChI=1S/C8H8O/c1-4-6-7(3)8(9)5-2/h1-2,7H,6H2,3H3	InChI=1S/C8H8O/c1-4-6-7(3)8(9)5-2/h1-2,7H,6H2,3H3/t7-/m0/s1
