15
gdb 28554	2.48712	1.7778	1.04349	4.4201	70.18	-0.221	-0.0548	0.1661	1075.4234	0.113386	-454.013699	-454.005897	-454.004953	-454.045963	28.925	
C	-0.0543837389	 1.5093592309	 0.0683627645	-0.507055
C	-0.0169254034	 0.0253454229	-0.0431637519	 0.281752
C	-0.0372657035	-0.8164357283	-1.1037834234	-0.157288
N	 0.0164975299	-2.1628121876	-0.7316967947	-0.346779
C	 0.0698774545	-2.1516936167	 0.5567870185	 0.478016
O	 0.133027961	-3.2023378131	 1.3588504322	-0.403577
N	 0.0544577896	-0.8377697796	 1.0807518778	-0.188011
C	 0.1012649777	-0.5250542696	 2.4139595819	 0.180667
O	 0.1629626368	-1.3615967156	 3.2973024982	-0.33729
H	 0.8403674778	 1.9194456374	 0.5534988101	 0.135745
H	-0.1084531908	 1.9379200796	-0.9350021659	 0.149436
H	-0.9273817897	 1.8692772004	 0.62732668	 0.135739
H	-0.0885643063	-0.5420870179	-2.1467699482	 0.124014
H	 0.1618104512	-2.8679729723	 2.2805680456	 0.326589
H	 0.0799256841	 0.5554119396	 2.6187418453	 0.128041
124.1833	186.2687	197.4089	232.5403	273.474	299.5153	348.7613	490.029	552.7316	612.6159	616.8567	693.6794	738.5181	771.8106	823.7176	863.1638	1004.6093	1035.6019	1067.1942	1067.5874	1147.4037	1246.7842	1300.6098	1313.8172	1368.9714	1419.819	1437.0997	1472.7123	1477.3068	1496.4195	1649.0356	1681.8645	1777.8266	3014.826	3036.1312	3060.2633	3124.3414	3251.4069	3493.6187
CC1=CN=C(O)N1C=O	Cc1cnc(O)n1C=O	
InChI=1S/C5H6N2O2/c1-4-2-6-5(9)7(4)3-8/h2-3H,1H3,(H,6,9)	InChI=1S/C5H6N2O2/c1-4-2-6-5(9)7(4)3-8/h2-3H,1H3,(H,6,9)
