21
gdb 110710	2.5155	1.38163	1.12861	1.2512	82.97	-0.2241	0.0154	0.2395	1192.3211	0.183017	-387.056789	-387.048268	-387.047324	-387.089697	33.799	
C	 0.0872522765	 1.5741681794	-0.1362579669	-0.376243
C	 0.0684632646	 0.0789121099	 0.2034584113	-0.223957
C	-1.3184313362	-0.5301676668	 0.0774199185	 0.070523
C	-2.0182729235	-0.7348146218	-1.3201365753	-0.142625
C	-1.0704259469	-1.7055236267	-2.0145177811	-0.091813
C	-0.7659352711	-2.5877605166	-1.0535287956	-0.092931
C	-1.5533368228	-2.0843439512	 0.1557381873	-0.122539
C	-2.9196905103	-1.8042233443	-0.5635287047	 0.155312
O	-3.9079855039	-1.3200281633	 0.3089874439	-0.441093
H	 1.0881694074	 1.9982235517	-0.0086196023	 0.109011
H	-0.2166408338	 1.7475447585	-1.174430957	 0.113471
H	-0.5980558391	 2.1384282154	 0.5062497811	 0.112121
H	 0.7738157374	-0.45583068	-0.4408984385	 0.096722
H	 0.4184984024	-0.0637395196	 1.2347054122	 0.090392
H	-2.0119407404	-0.0238405383	 0.7547827055	 0.087373
H	-2.4510443806	 0.0883553309	-1.8900427467	 0.052616
H	-0.7693732463	-1.6832247851	-3.052522532	 0.096306
H	-0.1485834632	-3.4738309396	-1.0952025794	 0.097675
H	-1.5078134837	-2.6387114988	 1.0930429571	 0.061215
H	-3.295614481	-2.6191937113	-1.1949746071	 0.06388
H	-4.6911110758	-1.1132119825	-0.2104242104	 0.284584
82.5606	155.6751	200.922	244.8226	270.2087	301.2692	333.5246	387.8669	500.9426	552.3334	584.1422	714.935	722.6171	768.956	833.7148	846.9768	875.8249	913.8345	919.5909	925.7592	935.9878	963.629	1000.0654	1068.088	1087.344	1099.1456	1103.6277	1125.6575	1163.2692	1172.4514	1195.1489	1225.9227	1253.6915	1256.0048	1284.6923	1297.8822	1333.9017	1352.8903	1404.804	1411.7441	1425.8256	1487.7062	1501.0788	1507.6853	1614.7989	3019.1051	3024.9386	3028.8722	3065.664	3079.5452	3098.4225	3100.7018	3108.3823	3120.2815	3216.1376	3242.8199	3820.8223
CCC1C2C=CC1C2O	CC[C@H]1[C@H]2C=C[C@@H]1[C@H]2O	
InChI=1S/C8H12O/c1-2-5-6-3-4-7(5)8(6)9/h3-9H,2H2,1H3	InChI=1S/C8H12O/c1-2-5-6-3-4-7(5)8(6)9/h3-9H,2H2,1H3/t5-,6+,7-,8-
