14
gdb 129671	3.3191	1.41476	1.05931	3.7881	65.65	-0.2252	-0.0203	0.2048	1061.1676	0.100676	-469.960938	-469.953269	-469.952325	-469.99331	28.523	
N	-0.6293614312	 0.6331721825	 1.2341794432	-0.597424
C	-0.2276439202	-0.2781014635	 0.3117140966	 0.392308
C	-0.9573221491	-0.9351910152	-0.6663432401	 0.18342
N	-0.078360628	-1.7584264626	-1.3022489367	-0.163622
N	 1.0764470163	-1.7019958159	-0.8388324609	-0.046604
O	 1.0208545428	-0.6867238354	 0.2838181629	-0.232881
C	-2.3788306209	-0.793524425	-1.0212114329	-0.043152
C	-3.466936571	-0.9089999788	-0.0335053976	-0.180719
O	-3.0275983495	 0.3793996175	-0.4888866625	-0.248806
H	 0.0896502489	 1.2033763004	 1.6511971433	 0.273249
H	-1.4967928263	 1.0970558471	 0.9989632236	 0.283919
H	-2.6157493873	-1.0117991987	-2.06128767	 0.122648
H	-4.4645122129	-1.1953238491	-0.3612323482	 0.130057
H	-3.2233214717	-1.1437966333	 1.0006820193	 0.127607
81.2585	160.4535	191.5768	282.7928	305.7357	396.4911	412.2294	476.0847	522.3666	595.0406	662.7705	682.2309	739.7844	769.7924	832.0781	904.1578	973.169	1004.0179	1092.6065	1096.8138	1151.8875	1170.9433	1254.0748	1277.1724	1303.3307	1411.585	1485.2413	1511.6774	1534.9506	1594.5492	1662.2824	3093.3138	3129.8017	3187.7779	3556.7888	3684.7093
NC1=C(N=NO1)C1CO1	Nc1c(nno1)[C@H]1CO1	
InChI=1S/C4H5N3O2/c5-4-3(2-1-8-2)6-7-9-4/h2H,1,5H2	InChI=1S/C4H5N3O2/c5-4-3(2-1-8-2)6-7-9-4/h2H,1,5H2/t2-/m1/s1
