23
gdb 106367	2.88031	1.2331	1.07209	1.3387	85.47	-0.2615	0.0745	0.336	1251.9628	0.207088	-388.283705	-388.274831	-388.273887	-388.316919	35.149	
C	-0.1588931168	 1.5177117636	 0.0164320949	-0.416136
C	 0.0665851292	 0.0069570402	 0.0368855091	 0.052273
C	 1.0168279121	-0.5395360844	-1.0839623817	-0.266402
C	 2.0509532372	-1.2864667255	-0.2121957847	 0.37817
C	 3.1666883997	-2.0169784769	-0.9123345909	-0.199057
O	 3.9040847253	-1.0716272013	-1.679525095	-0.425382
C	 1.131147054	-1.9995999774	 0.8246608535	-0.287811
C	 0.8332591607	-0.5376101497	 1.2661627478	-0.02419
C	 2.319091946	-0.2419193573	 0.9131418674	-0.255465
H	 0.7830900756	 2.071600069	 0.08731639	 0.115768
H	-0.6507386785	 1.8266882378	-0.9124246542	 0.111871
H	-0.7957763844	 1.8346857336	 0.8500985934	 0.107474
H	-0.91123412	-0.4856739717	-0.024689039	 0.06182
H	 0.5062200916	-1.2104248256	-1.7828144685	 0.084744
H	 1.4855850326	 0.2580995919	-1.6663100288	 0.108288
H	 3.8118525111	-2.5117425263	-0.1679927314	 0.0792
H	 2.7433461511	-2.8072979795	-1.5556829546	 0.080649
H	 4.6116747541	-1.5390114624	-2.1324962097	 0.287132
H	 0.2997471698	-2.6039784524	 0.4464522317	 0.083054
H	 1.6973486128	-2.5623927719	 1.5719230192	 0.088982
H	 0.4177676085	-0.3103176357	 2.249269788	 0.051583
H	 3.0113312132	-0.6190092608	 1.6707009997	 0.087915
H	 2.6054631051	 0.7707287828	 0.619569464	 0.095523
94.7498	125.9316	202.2904	225.9094	241.4795	281.4303	327.0107	395.8575	451.0512	474.5168	515.1867	606.2899	685.4887	796.2239	832.8451	842.4755	887.4219	905.6552	926.9616	951.997	967.9355	996.3886	1023.0294	1040.3398	1051.8514	1067.042	1087.2653	1126.275	1154.064	1162.9198	1181.1617	1204.4202	1212.6176	1233.5648	1242.4	1272.6483	1288.1692	1297.7749	1326.8748	1350.0606	1381.3845	1409.7329	1465.431	1486.2933	1495.6925	1499.4956	1501.8527	1514.2892	1530.977	2952.3316	2981.4618	3022.0088	3025.3328	3039.4777	3047.1058	3058.8394	3089.026	3094.5941	3097.7372	3099.7651	3103.9291	3115.3156	3831.668
CC1CC2(CO)CC1C2	C[C@H]1C[C@]2(CO)C[C@H]1C2	
InChI=1S/C8H14O/c1-6-2-8(5-9)3-7(6)4-8/h6-7,9H,2-5H2,1H3	InChI=1S/C8H14O/c1-6-2-8(5-9)3-7(6)4-8/h6-7,9H,2-5H2,1H3/t6-,7-,8-/m0/s1
