19
gdb 56981	2.89869	1.20438	0.95104	3.271	78.75	-0.2471	0.0314	0.2784	1253.9222	0.159914	-382.038894	-382.030279	-382.029335	-382.072542	32.155	
C	 0.0389469805	 1.5301930316	-0.0559289871	-0.397588
C	 0.0752477208	-0.0054856905	 0.0684117091	-0.1692
C	 0.7416935422	-0.4126238689	 1.310493491	 0.274837
N	 1.2477413538	-0.7359814707	 2.298290999	-0.325186
C	-1.3360131774	-0.6194018418	 0.0098095842	 0.020326
C	-2.1386938329	-0.5807798911	-1.3211969308	-0.202876
N	-2.4088886961	-2.0619671096	-1.2694392446	-0.123058
C	-1.0845485056	-2.6992172698	-1.347532422	-0.236542
C	-1.4990907347	-2.1359247832	-0.0475192803	-0.048544
H	 1.0468449153	 1.9513162414	-0.0402160699	 0.139894
H	-0.4398575478	 1.8131743078	-0.9975922782	 0.130399
H	-0.5294672254	 1.9724188253	 0.7670894168	 0.13928
H	 0.6701477636	-0.4096171151	-0.7599567155	 0.123127
H	-1.9311084436	-0.2003371998	 0.8257467113	 0.101514
H	-3.0717641853	-0.0185902614	-1.2631334181	 0.120395
H	-1.5911077122	-0.2706222396	-2.2190151978	 0.103831
H	-1.1389551251	-3.7780283868	-1.4543169278	 0.130023
H	-0.3038154817	-2.2281485378	-1.9421273642	 0.109483
H	-1.7386285282	-2.7655331501	 0.8025119149	 0.109885
63.1039	119.4762	149.7067	209.264	227.4706	278.5962	363.6521	405.0451	482.8276	532.1571	589.7355	727.4163	753.4679	785.948	816.4003	880.4703	953.9375	959.7772	996.1214	1009.966	1046.2125	1061.0931	1094.9213	1101.0318	1115.8102	1126.155	1172.3532	1203.5364	1224.6119	1267.1019	1284.2809	1298.5612	1330.7081	1376.1004	1385.5592	1413.1255	1492.9288	1494.212	1499.1416	1509.7976	2354.2577	3034.848	3036.8591	3048.4782	3073.6092	3101.3082	3118.7396	3123.6128	3130.4419	3171.9724	3198.1877
CC(C#N)C1CN2CC12	C[C@@H](C#N)[C@H]1CN2C[C@@H]12	
InChI=1S/C7H10N2/c1-5(2-8)6-3-9-4-7(6)9/h5-7H,3-4H2,1H3	InChI=1S/C7H10N2/c1-5(2-8)6-3-9-4-7(6)9/h5-7H,3-4H2,1H3/t5-,6+,7-,9?/m0/s1
