18
gdb 57941	3.3353	0.91471	0.76504	5.4017	71.11	-0.2575	-0.0329	0.2245	1490.5112	0.144448	-476.284877	-476.274526	-476.273581	-476.321508	35.9	
C	-0.0699986926	 1.5510311272	-0.0192465292	-0.39483
C	 0.0093513733	 0.0168404708	 0.0375905842	 0.037017
O	 0.8302813843	-0.3930333269	 1.0943979247	-0.433635
C	-1.3818324402	-0.6169217575	 0.227262908	 0.405051
O	-1.6483238771	-1.2084906924	 1.2476431626	-0.33127
N	-2.2492678421	-0.445960577	-0.8420859557	-0.381604
C	-3.5856851791	-0.8835636522	-0.9528533406	 0.413388
C	-4.203212624	-0.5294117605	-2.2958911072	-0.504569
O	-4.1651306322	-1.4694469529	-0.0788749673	-0.284768
H	 0.9435992817	 1.9549234359	-0.0761769995	 0.14177
H	-0.6301838983	 1.9085653042	-0.8899703299	 0.099783
H	-0.5447626856	 1.9385838169	 0.886697935	 0.137239
H	 0.423438282	-0.3555603282	-0.914869297	 0.087103
H	 0.2435408434	-0.8798391645	 1.6977975821	 0.297123
H	-1.872322303	 0.0433641368	-1.6402653257	 0.257895
H	-4.1932169545	 0.5539905244	-2.4572154017	 0.145048
H	-3.6458343479	-0.9947232247	-3.1160809734	 0.146401
H	-5.2317580583	-0.8869744094	-2.3102545793	 0.162859
40.3141	61.6715	94.8549	107.9734	142.5589	218.1712	247.4047	328.3691	344.3916	399.9706	428.2052	470.2555	568.7489	576.1599	621.5916	679.9647	757.9527	854.1784	915.9893	927.9109	1017.4354	1052.1827	1055.9521	1098.9928	1165.0442	1199.5103	1216.0557	1284.0322	1363.6037	1387.5965	1402.4735	1436.3997	1466.8607	1482.6738	1484.1073	1494.7983	1520.2954	1798.1536	1863.1188	2960.8043	3037.4303	3041.2561	3103.7533	3110.5995	3130.8585	3169.1496	3615.6593	3659.9391
CC(O)C(=O)NC(C)=O	C[C@@H](O)C(=O)NC(=O)C	
InChI=1S/C5H9NO3/c1-3(7)5(9)6-4(2)8/h3,7H,1-2H3,(H,6,8,9)	InChI=1S/C5H9NO3/c1-3(7)5(9)6-4(2)8/h3,7H,1-2H3,(H,6,8,9)/t3-/m1/s1
