17
gdb 46192	3.09886	1.61599	1.21787	2.1891	73.28	-0.2282	-0.0377	0.1905	1012.4383	0.137271	-417.920109	-417.912828	-417.911883	-417.952039	28.467	
O	-0.1241491144	 0.0238993344	-0.2714892068	-0.294528
C	-0.1049647279	 1.1987940169	-0.0489828899	 0.297053
C	-1.1459149703	 2.2504664192	 0.3686825918	-0.285517
N	-0.0514996191	 3.2637343983	 0.4244944752	-0.412461
C	 0.9627792402	 2.2995181937	-0.0662121708	 0.297154
C	 2.3950680992	 2.220514111	 0.5416593943	-0.07839
C	 2.8237880412	 1.4134534682	-0.7066706313	-0.208243
C	 1.9820384581	 2.6146936049	-1.1985411636	-0.11562
N	 2.7855502243	 3.4751896	-0.2276311296	-0.331231
H	-1.9157642775	 2.4211291072	-0.3936890572	 0.130207
H	-1.6358989894	 2.0730765641	 1.3316060594	 0.13908
H	-0.2085287777	 4.0382584232	-0.2108266662	 0.226071
H	 2.66745631	 2.0724960664	 1.5867924878	 0.091706
H	 3.8847132179	 1.482240543	-0.9454958667	 0.112337
H	 2.4002740094	 0.4179123204	-0.8326146841	 0.132003
H	 1.7702969309	 2.9332206359	-2.2211663031	 0.085925
H	 2.2072196351	 4.2546683631	 0.1018510606	 0.214455
90.7412	138.3863	185.9308	330.3324	355.3173	464.8539	519.7029	601.0902	617.5092	691.1472	739.9157	797.1481	815.9649	871.2858	879.0088	911.5309	971.8188	1009.9165	1028.0909	1039.247	1067.5296	1077.8027	1089.1879	1110.7245	1161.713	1173.0814	1189.172	1210.1959	1217.3887	1266.5601	1281.8388	1291.1219	1309.4995	1363.6669	1473.0966	1491.4445	1897.1174	3031.5296	3081.7205	3090.4637	3099.9044	3119.4429	3178.4038	3389.5364	3534.1192
O=C1CNC11C2CC1N2	O=C1CN[C@]21[C@H]1C[C@@H]2N1	
InChI=1S/C6H8N2O/c9-5-2-7-6(5)3-1-4(6)8-3/h3-4,7-8H,1-2H2	InChI=1S/C6H8N2O/c9-5-2-7-6(5)3-1-4(6)8-3/h3-4,7-8H,1-2H2/t3-,4+,6-
