19
gdb 106051	2.60731	1.64935	1.30968	1.2561	74.98	-0.2348	0.0741	0.3089	1039.4333	0.158758	-422.958136	-422.949799	-422.948855	-422.990894	32.115	
C	 0.1481581728	 1.2931157438	-0.1539964354	-0.26139
O	-0.1579611485	-0.0515177099	 0.1991769904	-0.292446
C	 0.5912471212	-0.520142569	 1.2479484015	 0.430391
C	 2.0484571806	-0.9942060228	 1.0697420094	-0.136373
C	 2.6983813865	-1.005929461	 2.4514135889	-0.224831
C	 1.3140734574	-1.4837790166	 2.9690408792	-0.128778
C	 0.9587618183	-1.9573507166	 1.5050387328	-0.169169
C	 0.3689624071	-0.2633981451	 2.7246943638	 0.053633
O	 0.7307474729	 1.0155080331	 3.2010282632	-0.437776
H	 1.1918376847	 1.3890540602	-0.4827481109	 0.110336
H	-0.5163411456	 1.5615974453	-0.9781929869	 0.121437
H	-0.0173105618	 1.9740513837	 0.6890099401	 0.13273
H	 2.5115687064	-0.9333604501	 0.0930212649	 0.087829
H	 3.4526499459	-1.7933426098	 2.5360847172	 0.094529
H	 3.0798733625	-0.0652889599	 2.8599953312	 0.099865
H	 1.2166109258	-2.0799871333	 3.8738403248	 0.067204
H	 0.5751731314	-2.8745868352	 1.0856705705	 0.098801
H	-0.6649816083	-0.5188207889	 2.9948467027	 0.07145
H	 0.4639382508	 1.0865731322	 4.1231080925	 0.282557
92.3454	151.4105	167.2036	222.4338	263.4737	287.5025	366.1699	418.9083	486.7545	598.8096	644.3234	706.2435	792.0938	801.7045	837.8529	866.1033	933.4799	960.5888	981.5556	993.7434	1000.7936	1039.9892	1049.4924	1108.9702	1117.2544	1133.6982	1147.8415	1183.5922	1194.0246	1205.6625	1215.861	1241.9169	1278.4434	1295.6566	1329.2365	1385.6372	1448.5163	1484.8716	1490.9939	1495.9115	1510.0995	3006.3855	3014.3751	3047.9124	3071.695	3103.7984	3124.9815	3135.3282	3196.5459	3239.3166	3815.2134
COC12C3CC(C13)C2O	CO[C@]12[C@H]3C[C@H]([C@@H]13)[C@H]2O	
InChI=1S/C7H10O2/c1-9-7-4-2-3(5(4)7)6(7)8/h3-6,8H,2H2,1H3	InChI=1S/C7H10O2/c1-9-7-4-2-3(5(4)7)6(7)8/h3-6,8H,2H2,1H3/t3-,4+,5-,6-,7-/m1/s1
