20
gdb 101759	4.55535	0.67309	0.61153	3.6358	73.68	-0.2604	0.0231	0.2835	1814.3168	0.168667	-477.425732	-477.415048	-477.414104	-477.462603	37.501	
C	 0.1025006776	 1.3927133747	-0.2540081832	-0.46251
C	-0.0067021777	-0.0797491469	 0.0478693555	 0.399086
N	-0.0853425698	-0.661345773	 1.1720628454	-0.513496
O	-0.0164651122	-0.7906885484	-1.103152414	-0.260169
C	-0.0907023158	-2.2205590427	-0.9849294342	-0.072396
C	-0.0478372861	-2.7589722034	-2.4055126069	 0.079725
O	 1.1450554167	-2.3466126465	-3.067125314	-0.453276
C	-0.0406936347	-4.2839418045	-2.4590133758	-0.048963
O	 0.0336135874	-4.7416018196	-3.7924357713	-0.427984
H	 1.0320359342	 1.6004949113	-0.793221714	 0.14515
H	-0.7236206204	 1.7085631183	-0.8981804346	 0.148592
H	 0.0854527012	 1.9814625447	 0.6641715335	 0.131103
H	-0.0664768605	 0.017164242	 1.9296915628	 0.223019
H	 0.7577948419	-2.579535664	-0.3939818183	 0.125762
H	-1.0132393858	-2.5014497133	-0.4665247337	 0.121349
H	-0.9286886261	-2.392264305	-2.9557698009	 0.079742
H	 1.1871464734	-1.3870488416	-2.9974235615	 0.293031
H	 0.8032368746	-4.6573258213	-1.8557898736	 0.091118
H	-0.9660807542	-4.6818864698	-2.0299598471	 0.107947
H	 0.7479019563	-4.237477851	-4.2008839442	 0.293168
47.3716	60.5099	101.1118	115.474	131.2397	187.8092	244.0896	275.2068	320.637	372.6326	449.6557	459.7975	488.8441	550.9651	572.9868	630.3977	854.5748	864.6944	913.7526	939.7311	973.1436	1040.103	1068.323	1073.2286	1084.9911	1107.9175	1127.0101	1139.8687	1205.8848	1259.3442	1281.184	1322.8825	1365.0531	1383.0748	1401.2173	1422.6086	1433.5841	1453.3923	1472.513	1482.2066	1496.649	1503.8516	1732.5179	2969.8526	2989.2534	3048.5961	3050.3375	3077.6132	3101.1774	3111.5417	3145.9422	3519.2368	3790.3137	3820.1562
CC(=N)OCC(O)CO	C[C]([NH])OC[C@@H](O)CO	
InChI=1S/C5H11NO3/c1-4(6)9-3-5(8)2-7/h5-8H,2-3H2,1H3	InChI=1S/C5H11NO3/c1-4(6)9-3-5(8)2-7/h5-8H,2-3H2,1H3/t5-/m0/s1
