21
gdb 81338	2.58666	1.36763	1.13388	1.3896	85.58	-0.2093	0.0294	0.2387	1194.8916	0.182022	-387.070503	-387.061525	-387.06058	-387.103579	34.927	
C	-0.020652125	 1.4475064174	 0.130669769	-0.521012
C	-0.0325589495	-0.0403539706	 0.0322658551	 0.23551
C	-0.0327854865	-0.8676890827	-1.0295687141	 0.235509
C	-0.0211788925	-0.5993422009	-2.4963370894	-0.521012
C	 0.0236556151	-2.2585933103	-0.3910395311	-0.160538
C	-1.0010394306	-2.0901716389	 0.7763785276	-0.245877
C	 0.0240095572	-0.9995774601	 1.2248298844	-0.160539
C	 1.1481770409	-1.9815502067	 0.6912736904	 0.193436
O	 1.5780658581	-3.0319141533	 1.5095769931	-0.448684
H	 0.8698978458	 1.8066576742	 0.6628823238	 0.126537
H	-0.0312074849	 1.9195651944	-0.8559982455	 0.122173
H	-0.8880140683	 1.8221697919	 0.6897883515	 0.124117
H	-0.0319359517	 0.4727942283	-2.712837568	 0.122174
H	 0.8693493865	-1.0274580201	-2.974875984	 0.126539
H	-0.8885635968	-1.0500230048	-2.9961671434	 0.124115
H	 0.0456390819	-3.135934714	-1.0389412038	 0.057595
H	-2.0076315342	-1.7546333262	 0.5151621279	 0.095135
H	-1.0691666421	-2.9542934617	 1.4496811079	 0.07402
H	 0.0463551827	-0.5858434977	 2.2339444553	 0.057595
H	 2.0542002646	-1.5002450989	 0.3160627862	 0.082278
H	 0.8117366194	-3.4915893195	 1.8678833973	 0.280929
151.6815	154.4663	172.5182	180.4625	244.7341	246.2214	317.8593	338.0533	414.9371	499.4471	517.5438	582.6195	616.0634	696.934	816.6605	845.8427	864.3875	864.7571	928.5452	963.9665	996.8959	1032.4427	1040.3012	1051.485	1065.7871	1097.4188	1103.458	1152.3793	1176.0423	1201.8891	1217.0918	1219.141	1245.2092	1252.6747	1286.5329	1338.9926	1410.5949	1420.5723	1425.6915	1477.4714	1478.4904	1488.4692	1491.0708	1508.6536	1719.3025	3010.9062	3012.5619	3020.7597	3053.7545	3053.9469	3091.1565	3100.9977	3101.4125	3105.7901	3107.3562	3110.762	3813.056
CC1=C(C)C2CC1C2O	CC1=C(C)[C@@H]2C[C@H]1[C@H]2O	
InChI=1S/C8H12O/c1-4-5(2)7-3-6(4)8(7)9/h6-9H,3H2,1-2H3	InChI=1S/C8H12O/c1-4-5(2)7-3-6(4)8(7)9/h6-9H,3H2,1-2H3/t6-,7+,8-
