18
gdb 100283	2.19902	1.4969	1.08242	2.1952	64.16	-0.2478	0.0124	0.2602	1138.2696	0.147361	-513.388471	-513.379099	-513.378155	-513.422329	35.546	
N	 0.4282252768	 0.8349187214	 0.8599086875	-0.527652
C	-0.0907963898	 0.2234650499	-0.2231592043	 0.40654
O	 0.4208728789	 0.2938463817	-1.3377772032	-0.40437
C	-1.3728419751	-0.6247455696	 0.0167231561	 0.210861
O	-0.9533356008	-1.9300137359	 0.4166003781	-0.482821
C	-2.2664319809	-0.1123532655	 1.1508844537	-0.122232
O	-1.6350392835	-0.2431235278	 2.4204888818	-0.420126
C	-2.1405380333	-0.7423019594	-1.3128707304	-0.114
O	-1.3909976482	-1.5234983782	-2.2251279763	-0.433692
H	 1.3065538606	 1.3184948814	 0.7604038522	 0.259952
H	 0.0123951726	 0.6847637492	 1.7701735006	 0.277245
H	-0.7864902174	-2.4019722592	-0.4148427968	 0.295901
H	-2.5010228551	 0.9478500488	 1.019939209	 0.12299
H	-3.2067585861	-0.6805553347	 1.1332270231	 0.109512
H	-1.3507124204	-1.165640658	 2.472228457	 0.305139
H	-3.0830682659	-1.2715043715	-1.1384105116	 0.109106
H	-2.3687831762	 0.2545990887	-1.7142801409	 0.105018
H	-0.580928896	-1.0012293712	-2.3667816754	 0.30263
66.8721	148.392	192.9179	204.3147	259.6697	268.9523	324.1528	364.3775	390.3211	408.5949	451.0747	514.6028	552.0206	563.029	673.2166	712.028	726.2362	772.9112	808.1303	893.8896	968.1394	1018.5135	1076.5701	1098.2846	1120.4159	1144.974	1161.9876	1217.5194	1278.5548	1345.4973	1374.3236	1394.9515	1418.8294	1439.648	1468.984	1489.946	1498.541	1616.7065	1751.3647	3008.1756	3013.8956	3079.1694	3097.0111	3520.7372	3629.1223	3687.6085	3697.8707	3770.9855
NC(=O)C(O)(CO)CO	NC(=O)C(O)(CO)CO	
InChI=1S/C4H9NO4/c5-3(8)4(9,1-6)2-7/h6-7,9H,1-2H2,(H2,5,8)	InChI=1S/C4H9NO4/c5-3(8)4(9,1-6)2-7/h6-7,9H,1-2H2,(H2,5,8)
