20
gdb 106046	2.67952	1.52175	1.21122	1.5177	78.29	-0.2416	0.0644	0.306	1111.1152	0.171285	-403.096428	-403.087931	-403.086987	-403.129535	32.718	
C	-0.4847546747	 1.3983309416	 0.179602079	-0.385389
C	 0.2387500208	 0.0669063661	-0.0544979746	-0.309164
C	 0.986580159	-0.4346554358	 1.147852545	 0.336829
C	 1.1514910013	-1.8878786963	 1.4584248412	-0.084401
C	 2.2198093054	-2.0662011022	 2.5223426354	-0.239166
C	 1.6320950167	-0.7645696189	 3.0895272285	-0.064483
C	 1.9401954499	 0.3289556307	 2.0419288769	 0.073183
O	 3.2500320072	 0.506159023	 1.5529899784	-0.441369
N	 0.2832565968	-1.0362144982	 2.3508260322	-0.209105
H	 0.2214354294	 2.2054522057	 0.4001367222	 0.116397
H	-1.0537156722	 1.6923825061	-0.7073223624	 0.11191
H	-1.1798423565	 1.3166368132	 1.0205961865	 0.132768
H	-0.4885834523	-0.6983577616	-0.3511276754	 0.105717
H	 0.9443670744	 0.1634027702	-0.889829096	 0.111505
H	 0.7135584104	-2.6455744261	 0.8174899405	 0.091045
H	 1.9946873093	-2.9203458865	 3.1656779794	 0.106589
H	 3.272954832	-2.0683371502	 2.2292529252	 0.108851
H	 1.6236085938	-0.5476092183	 4.1563812198	 0.074788
H	 1.4873697451	 1.2811628557	 2.346499164	 0.078585
H	 3.7113485741	 1.1276768321	 2.1247710542	 0.284909
62.8724	168.0917	188.7888	213.2004	257.6935	268.4426	325.0054	386.8054	520.796	593.2092	624.3276	724.3462	750.2714	788.1896	817.0165	857.8528	882.5709	942.1998	962.9907	986.9082	1003.7566	1032.6845	1046.4194	1061.0544	1101.1236	1127.8764	1140.6494	1180.4698	1201.6811	1228.6876	1243.3429	1273.7993	1289.9711	1300.3654	1349.982	1366.3409	1407.4753	1411.7834	1461.5778	1470.6264	1487.2385	1499.6622	1508.4518	3024.0848	3026.1662	3038.947	3059.1394	3059.775	3105.9097	3115.5455	3116.4434	3130.973	3172.7318	3819.23
CCC12C3CC(C1O)N23	CC[C@@]12[C@H]3C[C@@H]([C@H]1O)N23	
InChI=1S/C7H11NO/c1-2-7-5-3-4(6(7)9)8(5)7/h4-6,9H,2-3H2,1H3	InChI=1S/C7H11NO/c1-2-7-5-3-4(6(7)9)8(5)7/h4-6,9H,2-3H2,1H3/t4-,5+,6+,7+,8?/m0/s1
