17
gdb 88343	4.26413	0.81649	0.76337	2.1298	72.78	-0.2522	-0.0463	0.2059	1472.8324	0.133181	-458.972453	-458.963374	-458.96243	-459.00782	32.542	
O	 0.361617197	 1.0876139956	-0.2390947422	-0.412226
C	 0.0507003621	-0.1919827376	 0.1548942406	 0.158989
C	-0.6149596875	-0.5004568057	 1.4372607039	-0.321714
C	-1.4314532687	-0.6929228205	 0.1476293119	-0.20592
C	-2.4359157706	 0.3235166295	-0.1873720722	 0.401265
O	-2.3067354093	 1.4997068046	 0.1357562952	-0.384527
C	-3.6625844823	-0.0993906839	-0.9853843518	-0.378221
C	-4.9459966196	 0.3507116007	-0.2948755069	 0.161149
O	-5.9304890153	-0.332241439	-0.2094485683	-0.229854
H	-0.39080791	 1.6557008536	 0.0017848532	 0.30761
H	 0.7656213739	-0.904884049	-0.2424848322	 0.123765
H	-0.3502506541	-1.4044047713	 1.9741363752	 0.129552
H	-0.9197602506	 0.3396644931	 2.0527364654	 0.14168
H	-1.6192724299	-1.706058347	-0.1854067265	 0.102787
H	-3.6192123634	 0.4404274755	-1.9418440064	 0.162308
H	-3.7112990698	-1.1702464377	-1.1879783032	 0.131653
H	-4.8948189318	 1.377062209	 0.1223994142	 0.111704
29.4724	64.306	105.7464	180.7528	212.5964	287.4179	330.8031	446.5501	466.5222	480.7735	568.0716	599.7717	699.1082	761.2804	771.6663	809.1205	857.2697	913.1317	995.616	1021.985	1050.135	1059.5633	1083.0964	1107.6989	1125.9575	1139.8962	1197.8562	1239.0485	1284.5547	1363.5209	1404.9744	1405.1933	1442.4403	1451.7218	1485.6413	1718.5227	1838.6963	2934.009	3028.5236	3129.393	3134.7519	3174.1092	3188.9041	3231.3221	3638.319
OC1CC1C(=O)CC=O	O[C@H]1C[C@H]1C(=O)CC=O	
InChI=1S/C6H8O3/c7-2-1-5(8)4-3-6(4)9/h2,4,6,9H,1,3H2	InChI=1S/C6H8O3/c7-2-1-5(8)4-3-6(4)9/h2,4,6,9H,1,3H2/t4-,6-/m0/s1
