15
gdb 27623	3.09936	1.24498	0.89407	5.3775	77.3	-0.2053	-0.0156	0.1896	1228.8652	0.112954	-416.864278	-416.855675	-416.85473	-416.897521	31.217	
C	 0.1249969154	 1.453642935	 0.04538997	-0.503172
C	-0.0367332388	-0.0180733316	-0.0078072803	 0.260588
C	-1.1213018391	-0.8452204509	-0.0971501738	 0.113204
C	-0.6290626733	-2.2050092797	-0.0911509163	-0.404561
C	 0.7221941053	-2.0931681143	-0.0061170293	 0.393051
N	 1.7682017092	-2.9966200886	-0.0429149206	-0.595526
O	 1.0949077022	-0.783808185	 0.0444927651	-0.200882
C	-2.4703680844	-0.4226033244	-0.1700008453	 0.193549
N	-3.5747227755	-0.0762277324	-0.2276842167	-0.354839
H	 0.7339322568	 1.8203507965	-0.7888296145	 0.146563
H	-0.8563584996	 1.9293246971	-0.0075725027	 0.161021
H	 0.6137643432	 1.770556674	 0.9739613856	 0.143968
H	-1.2148259405	-3.1069428523	-0.1425656975	 0.12243
H	 1.4861350932	-3.9389953546	 0.1868230815	 0.262916
H	 2.5648866558	-2.707951059	 0.5104129748	 0.261689
133.1854	135.1212	138.7774	184.5536	207.7923	272.9599	315.3601	420.6139	518.728	523.6781	582.561	638.9116	656.0375	684.5245	708.1765	747.7916	795.2331	960.1813	1035.0496	1061.2149	1097.6825	1135.9216	1192.7082	1264.9526	1343.1201	1414.448	1440.1031	1470.6447	1485.2377	1619.4776	1641.798	1680.6139	2342.5274	3029.9151	3080.2656	3137.229	3279.2876	3550.7869	3653.7648
CC1=C(C=C(N)O1)C#N	Cc1c(cc(N)o1)C#N	
InChI=1S/C6H6N2O/c1-4-5(3-7)2-6(8)9-4/h2H,8H2,1H3	InChI=1S/C6H6N2O/c1-4-5(3-7)2-6(8)9-4/h2H,8H2,1H3
