20
gdb 32597	2.6405	1.22547	0.90322	2.0066	83.44	-0.1766	0.0483	0.2249	1332.696	0.170109	-403.187829	-403.178004	-403.17706	-403.222706	36.038	
C	-0.0012443025	 1.5644998541	 0.1085278557	-0.371411
C	-0.0295807088	 0.0409344691	-0.0532611468	-0.157471
N	-1.3696514931	-0.5173661683	-0.029147765	-0.038534
C	-2.0584629021	-0.8168693418	 1.1357058355	-0.201698
C	-3.3206692585	-1.2230719948	 0.7776641462	 0.314517
O	-4.2817188532	-1.6169525118	 1.6668561442	-0.451504
C	-3.4105129056	-1.1637455487	-0.6390010957	-0.395196
C	-2.1894860838	-0.7197826959	-1.112128885	 0.327367
C	-1.7516283809	-0.4867001872	-2.5216001977	-0.506001
H	 1.0311696433	 1.9288487903	 0.1072890282	 0.115937
H	-0.5399880012	 2.0558577515	-0.7069472814	 0.127857
H	-0.4713465179	 1.860949371	 1.0504590818	 0.132043
H	 0.4479110128	-0.2483984189	-0.9938605358	 0.116822
H	 0.5447997364	-0.4324872318	 0.7500129737	 0.118155
H	-1.5944054868	-0.7279788865	 2.1035533044	 0.109459
H	-5.0689941908	-1.8557453242	 1.1700664563	 0.293187
H	-4.2624332531	-1.4298831543	-1.2484829942	 0.081421
H	-1.4694115494	 0.5561927646	-2.7140383134	 0.125479
H	-0.894688449	-1.1110519492	-2.8053163588	 0.127343
H	-2.5718064958	-0.7328384372	-3.1999880421	 0.132229
53.2403	100.7138	138.9399	197.4766	207.8151	213.697	277.9259	307.6709	315.6229	407.4851	495.2902	589.2891	618.4696	629.0512	646.5054	677.7728	741.042	775.5891	804.9905	960.561	997.2131	1018.1288	1058.8488	1094.2417	1100.7396	1166.6044	1175.9543	1193.511	1260.7916	1306.1949	1379.5602	1390.9442	1405.0826	1419.6274	1449.2725	1475.1061	1479.3699	1483.9232	1488.6417	1504.779	1511.6964	1549.9468	1654.7268	3012.5085	3040.2605	3048.3809	3054.1348	3088.0364	3113.6655	3119.0243	3124.3689	3226.8125	3271.1345	3846.7151
CCN1C=C(O)C=C1C	CCn1cc(O)cc1C	
InChI=1S/C7H11NO/c1-3-8-5-7(9)4-6(8)2/h4-5,9H,3H2,1-2H3	InChI=1S/C7H11NO/c1-3-8-5-7(9)4-6(8)2/h4-5,9H,3H2,1-2H3
