15
gdb 9088	6.37429	0.98977	0.89815	4.4598	66.4	-0.2565	0.0159	0.2724	1227.7595	0.116172	-399.74737	-399.738455	-399.737511	-399.781445	31.051	
O	-0.4995131255	 0.9454682906	-0.5242257562	-0.415151
C	 0.0013434517	-0.3486030177	-0.206301383	-0.040532
C	 1.0098499522	-0.8321834273	-1.2670070901	-0.098312
O	 0.3867134497	-0.9825576367	-2.5285098458	-0.17656
C	 0.3322604944	 0.1015279249	-3.3349477865	 0.14428
N	-0.3107000325	 0.0409515188	-4.4172378231	-0.441253
C	 0.6051159079	-0.3991814659	 1.1246953116	 0.279512
C	 1.1501388926	-0.4033813944	 2.1961139068	-0.440082
H	 0.1254788902	 1.5940138177	-0.181364282	 0.289363
H	-0.8673431736	-1.0156691295	-0.2517352445	 0.13919
H	 1.8534466905	-0.1300500595	-1.3179154365	 0.107796
H	 1.3964304243	-1.8162830752	-0.9900535097	 0.133993
H	 0.8992792391	 0.9586839933	-2.952308973	 0.079346
H	-0.2295148161	 0.9232473583	-4.9179110242	 0.228761
H	 1.6085145952	-0.4188650274	 3.1545787763	 0.209649
60.716	72.4409	142.0777	150.543	222.2221	287.336	305.1721	358.8191	436.9598	507.8226	569.2111	648.5602	657.97	688.2606	814.5365	876.4731	950.2083	988.524	1031.1044	1075.8332	1096.5077	1154.146	1228.7416	1268.9693	1299.2691	1351.0279	1390.9288	1414.4049	1426.4734	1486.2834	1747.2473	2234.1426	3014.8039	3044.3015	3055.2534	3106.9004	3500.6642	3520.7022	3807.9397
OC(COC=N)C#C	O[C@@H](CO[CH][NH])C#C	
InChI=1S/C5H7NO2/c1-2-5(7)3-8-4-6/h1,4-7H,3H2	InChI=1S/C5H7NO2/c1-2-5(7)3-8-4-6/h1,4-7H,3H2/t5-/m1/s1
