22
gdb 68385	2.5022	1.90221	1.40891	1.398	84.82	-0.2153	0.0873	0.3026	1022.3142	0.196918	-367.183467	-367.175932	-367.174988	-367.214697	32.006	
C	-0.0714427397	 1.5233513482	 0.0460086505	-0.483359
C	 0.0264390632	 0.0075621939	 0.029466665	 0.317489
C	 0.8851429974	-0.7063201261	-1.069496567	-0.251144
C	 1.1330448718	-1.8110293193	-0.0021163871	-0.016039
C	 0.9485786272	-0.7018231303	 1.0643188299	-0.272935
C	-0.0494504924	-2.7902428338	 0.026589263	-0.164181
N	-1.3685662607	-2.1348508714	-0.0871975577	-0.097807
C	-1.928142621	-1.4491538668	 1.0814103921	-0.264371
C	-1.3419835016	-0.6646060778	-0.0370635422	-0.037873
H	 0.9245481283	 1.9785996721	 0.0404454718	 0.109205
H	-0.6154104895	 1.8970345186	-0.8292409049	 0.115297
H	-0.5987470774	 1.8771052732	 0.9395694666	 0.116912
H	 0.3857596392	-0.9877058678	-2.0014303718	 0.097228
H	 1.7991400258	-0.1487621797	-1.2935593559	 0.090752
H	 2.0809543046	-2.3543353892	-0.0314843862	 0.059261
H	 1.8683333071	-0.1251227313	 1.2028175993	 0.092929
H	 0.5561829384	-0.9686294061	 2.0483201704	 0.089885
H	 0.0388115862	-3.4784579368	-0.8238163084	 0.103529
H	-0.0192992847	-3.4027959953	 0.9367400364	 0.09723
H	-3.008570547	-1.5294257662	 1.1795092295	 0.108337
H	-1.3948565174	-1.4954081413	 2.0270737747	 0.108533
H	-2.0218513777	-0.1889868066	-0.7456373778	 0.08112
197.4016	223.475	249.7893	300.8106	339.2168	408.0408	437.8429	467.126	499.1409	589.6576	657.2077	720.3906	829.9467	836.5932	850.7548	870.7727	890.0082	913.9609	924.1612	991.9001	1005.0761	1019.7225	1029.5113	1054.1359	1081.6828	1108.0319	1117.8089	1140.3618	1148.031	1169.1843	1203.0029	1215.2086	1238.1625	1269.2575	1281.4756	1302.1854	1320.4073	1339.6673	1375.7865	1408.0051	1410.7129	1477.2504	1491.7733	1493.8399	1495.0784	1508.62	1526.3676	3012.1081	3021.451	3045.3712	3047.1297	3051.9866	3074.4439	3084.1872	3088.6484	3094.0458	3098.0192	3104.4308	3105.6055	3180.86
CC12CC(C1)CN1CC21	C[C@@]12C[C@@H](C1)CN1C[C@@H]21	
InChI=1S/C8H13N/c1-8-2-6(3-8)4-9-5-7(8)9/h6-7H,2-5H2,1H3	InChI=1S/C8H13N/c1-8-2-6(3-8)4-9-5-7(8)9/h6-7H,2-5H2,1H3/t6-,7-,8+,9?/m0/s1
