19
gdb 110592	3.13543	1.35163	1.10593	2.2005	75.82	-0.2289	0.0837	0.3126	1151.2543	0.157356	-422.923514	-422.915068	-422.914124	-422.956622	31.893	
C	 0.2011585623	 1.3603141011	 0.1966397823	-0.237041
O	-0.2842479154	 0.1075798233	-0.2340498672	-0.256529
C	 0.4817683323	-0.4673379526	-1.2600908118	 0.077079
C	 1.7402795846	-1.2732396977	-0.8660275566	-0.147025
C	 0.8758763584	-2.4832150791	-0.3952347634	 0.054472
O	 1.5886833179	-3.4662318146	-1.2050580111	-0.33241
C	 1.5156541078	-2.2720842372	-2.0402112944	 0.037051
C	 0.056925748	-1.9017263846	-1.6048335164	 0.268298
C	-1.2342591382	-2.418679892	-2.1649556215	-0.53487
H	 1.2105986907	 1.286036525	 0.627880777	 0.107871
H	 0.2326483503	 2.0876846665	-0.6295218991	 0.105906
H	-0.483551233	 1.7286149717	 0.9642298421	 0.128706
H	 0.5979706847	 0.2322584407	-2.1026240265	 0.061096
H	 2.6985895017	-0.9549105691	-0.4582980777	 0.083137
H	 0.5455419666	-2.7653982715	 0.6024316817	 0.101384
H	 1.9639554129	-2.296768089	-3.0330190508	 0.09315
H	-1.1948943891	-3.5092821788	-2.251723486	 0.135379
H	-2.0736454553	-2.1518854403	-1.5152091579	 0.134344
H	-1.4320939071	-2.0019264318	-3.1584725627	 0.120002
81.9448	151.6016	165.598	221.3264	225.5304	249.9268	324.6465	395.523	531.2205	599.0273	679.2761	745.7169	795.9657	815.2027	848.7294	872.5525	902.5396	937.9162	954.8853	997.3516	1018.9314	1079.3138	1107.4225	1139.4203	1147.4947	1155.3433	1160.1938	1172.2198	1184.0507	1216.1677	1233.7221	1269.8678	1312.9438	1351.5914	1401.1071	1424.5002	1483.5217	1488.2318	1488.5551	1492.0119	1509.1405	2974.7422	2984.7328	3025.4376	3032.7706	3099.3391	3109.3941	3115.9317	3120.3355	3130.9387	3145.5567
COC1C2C3OC2C13C	CO[C@H]1[C@H]2[C@@H]3O[C@H]2[C@]13C	
InChI=1S/C7H10O2/c1-7-4(8-2)3-5(7)9-6(3)7/h3-6H,1-2H3	InChI=1S/C7H10O2/c1-7-4(8-2)3-5(7)9-6(3)7/h3-6H,1-2H3/t3-,4-,5-,6+,7+/m0/s1
