13
gdb 47971	2.99186	0.86274	0.70189	3.4784	72.8	-0.2776	-0.0801	0.1974	1502.8467	0.085185	-456.512327	-456.503339	-456.502395	-456.547719	29.813	
O	-0.9104362429	 1.0808027198	-0.3153687967	-0.221453
C	 0.1824729012	 0.802817921	 0.1192588564	 0.016333
C	 1.3297371338	 1.674866612	 0.0454585334	 0.118903
C	 2.3072183026	 2.3814164908	-0.0019921215	 0.057449
C	 3.4741240609	 3.2116021242	-0.0464744869	 0.074433
C	 3.8507126695	 3.9053234493	-1.3141692493	-0.199814
O	 3.2789470031	 4.6279285817	-0.250369216	-0.236989
C	 4.6073464655	 2.913013357	 0.9056306374	 0.112093
O	 4.6963769751	 1.9179110366	 1.5676515646	-0.227233
H	 0.3863383556	-0.1656039841	 0.617407341	 0.113668
H	 4.9046913597	 4.097941823	-1.5134683078	 0.138094
H	 3.2166916207	 3.7421255322	-2.1828872468	 0.153335
H	 5.3606017553	 3.7301327764	 0.9254127624	 0.101182
47.5051	67.1576	120.5431	124.9126	171.6973	271.9164	294.3101	360.3147	419.2584	498.7238	565.3244	634.4143	746.2388	828.4975	885.0312	922.6092	1019.5979	1035.4643	1049.3517	1138.4688	1164.8175	1276.1512	1338.0678	1414.6002	1419.4469	1512.1985	1769.0414	1844.0559	2331.3338	2910.4505	2935.063	3086.8112	3188.5688
O=CC#CC1(CO1)C=O	O=CC#C[C@]1(CO1)C=O	
InChI=1S/C6H4O3/c7-3-1-2-6(4-8)5-9-6/h3-4H,5H2	InChI=1S/C6H4O3/c7-3-1-2-6(4-8)5-9-6/h3-4H,5H2/t6-/m1/s1
