19
gdb 106211	2.83483	1.82159	1.34539	1.0456	79.38	-0.2229	0.0046	0.2275	995.9386	0.159809	-385.82141	-385.813975	-385.813031	-385.85309	30.087	
C	 0.0991617939	 1.3289882223	-0.1233643916	-0.262872
O	-0.1415561782	-0.0428567189	 0.1237151041	-0.311264
C	 0.5762675768	-0.5597655657	 1.1919600726	 0.447975
C	 0.2402572168	-0.1308832955	 2.6214075482	-0.19153
C	 1.0574716135	-0.8740084069	 3.3671030383	-0.10549
C	 1.8340603605	-1.6955730098	 2.3487654809	-0.069615
C	 0.8226591744	-2.1067700891	 1.2143591189	-0.09325
C	 1.9427465163	-1.9510737491	 0.1577275684	-0.26202
C	 2.1501285297	-0.7615188447	 1.1256082485	-0.108453
H	 1.1483032791	 1.5135162324	-0.3947030551	 0.11233
H	-0.5410726804	 1.6213114678	-0.9586293881	 0.128
H	-0.1465626268	 1.9521833695	 0.7482130615	 0.110724
H	-0.5133178849	 0.5880527614	 2.909562264	 0.104531
H	 1.1616523717	-0.920328368	 4.4419990123	 0.104786
H	 2.5862836038	-2.4137202872	 2.6721708159	 0.06859
H	 0.0492390182	-2.8760050241	 1.2818150156	 0.070674
H	 2.7211968844	-2.7186653657	 0.1553144654	 0.086498
H	 1.6197510388	-1.7063962179	-0.8555001161	 0.104453
H	 2.9156022324	 0.0184333192	 1.0947732564	 0.065934
99.2768	176.8722	201.803	333.9267	354.5218	430.4335	478.8553	511.4254	624.6709	678.473	700.9103	757.6112	800.2309	850.8671	902.2209	907.741	912.3029	926.8808	954.7138	1019.6605	1037.1134	1049.2847	1070.6943	1088.6991	1101.9277	1127.8307	1132.8734	1182.0328	1186.2477	1198.5194	1216.7206	1233.1835	1246.3234	1282.6574	1297.7605	1340.0988	1483.6206	1487.8743	1507.2852	1510.965	1637.7942	2991.1596	3042.383	3059.3722	3078.6955	3088.0395	3120.4834	3127.6199	3130.208	3219.7871	3247.3243
COC12C=CC3C1CC23	CO[C@@]12C=C[C@H]3[C@@H]1C[C@@H]23	
InChI=1S/C8H10O/c1-9-8-3-2-5-6(8)4-7(5)8/h2-3,5-7H,4H2,1H3	InChI=1S/C8H10O/c1-9-8-3-2-5-6(8)4-7(5)8/h2-3,5-7H,4H2,1H3/t5-,6-,7+,8-
