19
gdb 65641	3.4798	1.1963	1.12174	1.4547	75.39	-0.2477	-0.0256	0.222	1142.2197	0.158034	-422.999219	-422.990675	-422.989731	-423.032992	31.868	
C	-0.3960311154	 1.6748449006	 0.0752461572	-0.464587
C	-0.0860212481	 0.186314426	 0.1095603671	 0.214995
C	 1.0893536232	-0.3290324881	-0.8123396364	-0.300658
C	 1.8442538912	-0.8427654588	 0.4259545525	 0.131827
O	 2.7232191285	 0.1489013239	 0.9963865225	-0.291611
C	 1.7381614064	 0.5156665754	 1.9925678122	-0.09255
C	 0.6840533275	-0.4004313175	 1.3573085852	-0.133189
C	-1.3280514405	-0.6427355142	-0.132544084	 0.129857
O	-2.4302786695	-0.2041093959	-0.3374947739	-0.259818
H	 0.5150730551	 2.2720908979	 0.1614090529	 0.122717
H	-0.8859236513	 1.9348843415	-0.8672444722	 0.134005
H	-1.0786595831	 1.956216861	 0.8828516941	 0.127293
H	 0.7885693991	-1.1181109507	-1.5089820259	 0.107868
H	 1.6140873855	 0.4533439608	-1.3639784669	 0.12262
H	 2.2971084686	-1.837357681	 0.3982838889	 0.080965
H	 2.0483362283	 0.1921065534	 2.9946925385	 0.105296
H	 1.5399885223	 1.5921571771	 2.0129155484	 0.110171
H	 0.1243240125	-1.0633448815	 2.0173235936	 0.083346
H	-1.1495110202	-1.7448244199	-0.1103308739	 0.071452
48.6787	77.7004	192.5363	233.7676	266.3001	309.6985	345.3964	381.0991	431.4835	508.528	692.3498	746.2482	786.0689	828.2481	836.9216	915.9356	924.5179	975.6224	978.517	1009.1069	1016.6701	1026.2431	1069.9829	1111.977	1141.3938	1160.2292	1173.6495	1196.4035	1234.8734	1266.1381	1283.5618	1307.1741	1327.7787	1363.6834	1408.5814	1435.9023	1461.0371	1487.0353	1488.3861	1527.8352	1826.8926	2842.7875	3014.9014	3044.7229	3050.379	3072.0201	3074.2629	3107.0042	3114.9081	3120.8604	3123.0932
CC1(CC2OCC12)C=O	C[C@]1(C[C@H]2OC[C@@H]12)C=O	
InChI=1S/C7H10O2/c1-7(4-8)2-6-5(7)3-9-6/h4-6H,2-3H2,1H3	InChI=1S/C7H10O2/c1-7(4-8)2-6-5(7)3-9-6/h4-6H,2-3H2,1H3/t5-,6-,7+/m1/s1
